/*--------------------------------*- C++ -*----------------------------------*\
  =========                 |
  \\      /  F ield         | OpenFOAM: The Open Source CFD Toolbox
   \\    /   O peration     | Website:  https://openfoam.org
    \\  /    A nd           | Version:  9
     \\/     M anipulation  |
\*---------------------------------------------------------------------------*/
FoamFile
{
    format      ascii;
    class       volScalarField;
    location    "1000";
    object      p;
}
// * * * * * * * * * * * * * * * * * * * * * * * * * * * * * * * * * * * * * //

dimensions      [0 0 0 0 0 0 0];

internalField   nonuniform List<scalar> 
100
(
10625.3
10518.6
10411.8
10305
10198.2
10091.4
9984.62
9877.84
9771.05
9664.26
9557.48
9450.69
9343.9
9237.11
9130.33
9023.54
8916.75
8809.96
8703.18
8596.39
8489.6
8382.81
8276.03
8169.24
8062.45
7955.66
7848.88
7742.09
7635.3
7528.51
7421.73
7314.94
7208.15
7101.36
6994.58
6887.79
6781
6674.21
6567.43
6460.64
6353.85
6247.06
6140.28
6033.49
5926.7
5819.91
5713.13
5606.34
5499.55
5392.77
5285.98
5179.19
5072.4
4965.62
4858.83
4752.04
4645.25
4538.47
4431.68
4324.89
4218.1
4111.32
4004.53
3897.74
3790.95
3684.17
3577.38
3470.59
3363.8
3257.02
3150.23
3043.44
2936.65
2829.87
2723.08
2616.29
2509.5
2402.72
2295.93
2189.14
2082.35
1975.57
1868.78
1761.99
1655.21
1548.42
1441.63
1334.84
1228.06
1121.27
1014.48
907.693
800.906
694.118
587.331
480.543
373.756
266.969
160.181
53.3937
)
;

boundaryField
{
    inlet
    {
        type            darcyGradPressure;
        gradient        uniform 43233.8;
        Mf              Mf;
        phi             phi;
        value           uniform 10678.7;
    }
    outlet
    {
        type            fixedValue;
        value           uniform 0;
    }
    emptyWalls
    {
        type            empty;
    }
}


// ************************************************************************* //
