/*--------------------------------*- C++ -*----------------------------------*\
  =========                 |
  \\      /  F ield         | OpenFOAM: The Open Source CFD Toolbox
   \\    /   O peration     | Website:  https://openfoam.org
    \\  /    A nd           | Version:  9
     \\/     M anipulation  |
\*---------------------------------------------------------------------------*/
FoamFile
{
    format      ascii;
    class       volScalarField;
    location    "115000";
    object      krc;
}
// * * * * * * * * * * * * * * * * * * * * * * * * * * * * * * * * * * * * * //

dimensions      [0 0 0 0 0 0 0];

internalField   nonuniform List<scalar> 
100
(
2.07364e-21
1.91374e-23
2.19849e-23
2.44612e-23
2.97489e-24
2.28502e-23
4.211e-24
2.38627e-25
1.599e-23
9.55963e-24
2.19231e-23
1.75708e-25
4.51463e-24
6.35455e-24
1.56081e-23
2.00857e-23
2.23686e-23
9.38326e-24
1.5067e-23
1.56068e-23
7.00692e-24
3.52548e-23
6.1937e-24
4.08089e-24
2.87467e-23
1.3854e-23
1.95226e-23
2.04121e-23
9.38278e-24
3.84636e-23
5.7702e-24
6.73896e-24
2.84796e-23
2.77942e-23
1.24963e-24
2.46113e-23
2.33972e-25
1.32723e-26
9.4054e-24
1.93205e-23
1.41177e-23
6.87414e-24
2.91937e-23
1.9617e-23
7.37572e-24
2.9045e-27
1.70732e-23
1.54867e-23
1.67594e-23
2.37153e-23
5.04596e-25
1.06219e-25
3.03744e-23
2.15177e-23
1.40994e-23
1.55412e-23
1.53136e-23
2.43147e-23
1.70894e-23
1.6451e-23
2.31756e-23
1.42122e-23
5.1351e-24
1.62213e-23
2.20501e-25
2.35741e-23
2.2385e-23
2.54891e-23
2.55073e-23
6.15743e-25
2.09785e-23
1.50749e-23
4.90626e-26
8.669e-26
2.6195e-25
7.3153e-24
2.58427e-25
3.75484e-25
2.11768e-23
2.11237e-25
2.29501e-23
2.46503e-23
6.58799e-26
1.57199e-23
9.65721e-26
2.424e-25
1.48487e-25
1.52547e-23
2.44674e-26
1.56435e-23
1.93447e-23
1.5509e-23
1.01013e-25
7.84519e-24
2.20264e-26
7.78659e-26
1.47216e-23
2.33717e-23
2.40191e-23
1.69508e-23
)
;

boundaryField
{
    inlet
    {
        type            calculated;
        value           uniform 2.07364e-21;
    }
    outlet
    {
        type            calculated;
        value           uniform 1.69508e-23;
    }
    emptyWalls
    {
        type            empty;
    }
}


// ************************************************************************* //
