/*--------------------------------*- C++ -*----------------------------------*\
  =========                 |
  \\      /  F ield         | OpenFOAM: The Open Source CFD Toolbox
   \\    /   O peration     | Website:  https://openfoam.org
    \\  /    A nd           | Version:  9
     \\/     M anipulation  |
\*---------------------------------------------------------------------------*/
FoamFile
{
    format      ascii;
    class       volVectorField;
    location    "15200";
    object      Uc;
}
// * * * * * * * * * * * * * * * * * * * * * * * * * * * * * * * * * * * * * //

dimensions      [0 0 0 0 0 0 0];

internalField   nonuniform List<vector> 
1000
(
(1.2078e-11 0 0)
(6.48939e-11 0 0)
(1.8024e-10 0 0)
(3.60655e-10 0 0)
(6.02423e-10 0 0)
(9.03784e-10 0 0)
(1.26252e-09 0 0)
(1.67484e-09 0 0)
(2.13458e-09 0 0)
(2.63211e-09 0 0)
(3.15478e-09 0 0)
(3.68685e-09 0 0)
(4.21128e-09 0 0)
(4.71205e-09 0 0)
(5.17663e-09 0 0)
(5.60148e-09 0 0)
(6.01125e-09 0 0)
(6.55596e-09 0 0)
(7.9556e-09 0 0)
(1.28555e-08 0 0)
(3.4743e-08 0 0)
(1.13943e-07 0 0)
(1.9011e-07 0 0)
(2.09631e-07 0 0)
(2.16361e-07 0 0)
(2.20071e-07 0 0)
(2.22721e-07 0 0)
(2.24883e-07 0 0)
(2.26776e-07 0 0)
(2.28499e-07 0 0)
(2.30104e-07 0 0)
(2.3162e-07 0 0)
(2.33064e-07 0 0)
(2.34449e-07 0 0)
(2.35783e-07 0 0)
(2.37076e-07 0 0)
(2.38335e-07 0 0)
(2.39567e-07 0 0)
(2.40781e-07 0 0)
(2.41983e-07 0 0)
(2.43179e-07 0 0)
(2.44376e-07 0 0)
(2.45579e-07 0 0)
(2.46795e-07 0 0)
(2.48033e-07 0 0)
(2.49324e-07 0 0)
(2.50672e-07 0 0)
(2.52065e-07 0 0)
(2.53508e-07 0 0)
(2.55009e-07 0 0)
(2.5658e-07 0 0)
(2.58239e-07 0 0)
(2.60013e-07 0 0)
(2.61943e-07 0 0)
(2.6409e-07 0 0)
(2.66539e-07 0 0)
(2.69396e-07 0 0)
(2.72764e-07 0 0)
(2.76713e-07 0 0)
(2.81233e-07 0 0)
(2.86235e-07 0 0)
(2.91598e-07 0 0)
(2.97222e-07 0 0)
(3.03042e-07 0 0)
(3.09013e-07 0 0)
(3.15109e-07 0 0)
(3.2131e-07 0 0)
(3.27605e-07 0 0)
(3.33982e-07 0 0)
(3.40434e-07 0 0)
(3.46951e-07 0 0)
(3.53524e-07 0 0)
(3.60145e-07 0 0)
(3.66805e-07 0 0)
(3.73499e-07 0 0)
(3.80218e-07 0 0)
(3.86959e-07 0 0)
(3.93717e-07 0 0)
(4.00489e-07 0 0)
(4.07274e-07 0 0)
(4.14071e-07 0 0)
(4.2088e-07 0 0)
(4.27702e-07 0 0)
(4.34538e-07 0 0)
(4.41389e-07 0 0)
(4.48256e-07 0 0)
(4.55141e-07 0 0)
(4.62045e-07 0 0)
(4.68969e-07 0 0)
(4.75912e-07 0 0)
(4.82875e-07 0 0)
(4.89858e-07 0 0)
(4.9686e-07 0 0)
(5.03883e-07 0 0)
(5.10924e-07 0 0)
(5.17983e-07 0 0)
(5.25061e-07 0 0)
(5.32155e-07 0 0)
(5.39267e-07 0 0)
(5.46395e-07 0 0)
(5.53539e-07 0 0)
(5.60698e-07 0 0)
(5.67873e-07 0 0)
(5.75063e-07 0 0)
(5.82267e-07 0 0)
(5.89485e-07 0 0)
(5.96717e-07 0 0)
(6.03963e-07 0 0)
(6.11223e-07 0 0)
(6.18495e-07 0 0)
(6.25781e-07 0 0)
(6.3308e-07 0 0)
(6.40392e-07 0 0)
(6.47717e-07 0 0)
(6.55054e-07 0 0)
(6.62403e-07 0 0)
(6.69765e-07 0 0)
(6.77138e-07 0 0)
(6.84524e-07 0 0)
(6.91921e-07 0 0)
(6.9933e-07 0 0)
(7.0675e-07 0 0)
(7.14182e-07 0 0)
(7.21625e-07 0 0)
(7.2908e-07 0 0)
(7.36545e-07 0 0)
(7.44021e-07 0 0)
(7.51508e-07 0 0)
(7.59006e-07 0 0)
(7.66514e-07 0 0)
(7.74033e-07 0 0)
(7.81562e-07 0 0)
(7.89101e-07 0 0)
(7.96651e-07 0 0)
(8.04211e-07 0 0)
(8.11781e-07 0 0)
(8.19361e-07 0 0)
(8.26951e-07 0 0)
(8.34551e-07 0 0)
(8.42161e-07 0 0)
(8.4978e-07 0 0)
(8.57409e-07 0 0)
(8.65047e-07 0 0)
(8.72695e-07 0 0)
(8.80352e-07 0 0)
(8.88019e-07 0 0)
(8.95694e-07 0 0)
(9.03379e-07 0 0)
(9.11074e-07 0 0)
(9.18778e-07 0 0)
(9.26492e-07 0 0)
(9.34215e-07 0 0)
(9.41948e-07 0 0)
(9.49691e-07 0 0)
(9.57443e-07 0 0)
(9.65205e-07 0 0)
(9.72976e-07 0 0)
(9.80756e-07 0 0)
(9.88545e-07 0 0)
(9.96343e-07 0 0)
(1.00415e-06 0 0)
(1.01196e-06 0 0)
(1.01979e-06 0 0)
(1.02762e-06 0 0)
(1.03546e-06 0 0)
(1.04331e-06 0 0)
(1.05117e-06 0 0)
(1.05904e-06 0 0)
(1.06692e-06 0 0)
(1.07481e-06 0 0)
(1.0827e-06 0 0)
(1.09059e-06 0 0)
(1.09849e-06 0 0)
(1.1064e-06 0 0)
(1.1143e-06 0 0)
(1.1222e-06 0 0)
(1.1301e-06 0 0)
(1.13799e-06 0 0)
(1.14588e-06 0 0)
(1.15377e-06 0 0)
(1.16165e-06 0 0)
(1.16952e-06 0 0)
(1.1774e-06 0 0)
(1.18527e-06 0 0)
(1.19315e-06 0 0)
(1.20103e-06 0 0)
(1.20891e-06 0 0)
(1.21681e-06 0 0)
(1.22472e-06 0 0)
(1.23265e-06 0 0)
(1.24059e-06 0 0)
(1.24857e-06 0 0)
(1.25657e-06 0 0)
(1.26461e-06 0 0)
(1.27268e-06 0 0)
(1.28079e-06 0 0)
(1.28894e-06 0 0)
(1.29713e-06 0 0)
(1.30535e-06 0 0)
(1.31362e-06 0 0)
(1.32191e-06 0 0)
(1.33024e-06 0 0)
(1.33859e-06 0 0)
(1.34696e-06 0 0)
(1.35535e-06 0 0)
(1.36375e-06 0 0)
(1.37216e-06 0 0)
(1.38057e-06 0 0)
(1.38898e-06 0 0)
(1.39739e-06 0 0)
(1.40579e-06 0 0)
(1.41418e-06 0 0)
(1.42257e-06 0 0)
(1.43095e-06 0 0)
(1.43933e-06 0 0)
(1.4477e-06 0 0)
(1.45607e-06 0 0)
(1.46443e-06 0 0)
(1.4728e-06 0 0)
(1.48116e-06 0 0)
(1.48953e-06 0 0)
(1.4979e-06 0 0)
(1.50628e-06 0 0)
(1.51467e-06 0 0)
(1.52306e-06 0 0)
(1.53147e-06 0 0)
(1.53988e-06 0 0)
(1.54831e-06 0 0)
(1.55675e-06 0 0)
(1.5652e-06 0 0)
(1.57366e-06 0 0)
(1.58213e-06 0 0)
(1.59061e-06 0 0)
(1.59911e-06 0 0)
(1.60762e-06 0 0)
(1.61614e-06 0 0)
(1.62467e-06 0 0)
(1.63321e-06 0 0)
(1.64177e-06 0 0)
(1.65033e-06 0 0)
(1.65891e-06 0 0)
(1.6675e-06 0 0)
(1.67609e-06 0 0)
(1.6847e-06 0 0)
(1.69332e-06 0 0)
(1.70194e-06 0 0)
(1.71058e-06 0 0)
(1.71923e-06 0 0)
(1.72788e-06 0 0)
(1.73655e-06 0 0)
(1.74523e-06 0 0)
(1.75391e-06 0 0)
(1.7626e-06 0 0)
(1.77131e-06 0 0)
(1.78002e-06 0 0)
(1.78874e-06 0 0)
(1.79748e-06 0 0)
(1.80622e-06 0 0)
(1.81497e-06 0 0)
(1.82373e-06 0 0)
(1.8325e-06 0 0)
(1.84128e-06 0 0)
(1.85006e-06 0 0)
(1.85886e-06 0 0)
(1.86767e-06 0 0)
(1.87648e-06 0 0)
(1.88531e-06 0 0)
(1.89414e-06 0 0)
(1.90299e-06 0 0)
(1.91184e-06 0 0)
(1.9207e-06 0 0)
(1.92957e-06 0 0)
(1.93845e-06 0 0)
(1.94734e-06 0 0)
(1.95624e-06 0 0)
(1.96515e-06 0 0)
(1.97407e-06 0 0)
(1.983e-06 0 0)
(1.99193e-06 0 0)
(2.00088e-06 0 0)
(2.00984e-06 0 0)
(2.0188e-06 0 0)
(2.02778e-06 0 0)
(2.03676e-06 0 0)
(2.04576e-06 0 0)
(2.05476e-06 0 0)
(2.06377e-06 0 0)
(2.07279e-06 0 0)
(2.08183e-06 0 0)
(2.09087e-06 0 0)
(2.09992e-06 0 0)
(2.10898e-06 0 0)
(2.11806e-06 0 0)
(2.12714e-06 0 0)
(2.13623e-06 0 0)
(2.14534e-06 0 0)
(2.15445e-06 0 0)
(2.16358e-06 0 0)
(2.17271e-06 0 0)
(2.18186e-06 0 0)
(2.19101e-06 0 0)
(2.20018e-06 0 0)
(2.20936e-06 0 0)
(2.21855e-06 0 0)
(2.22775e-06 0 0)
(2.23696e-06 0 0)
(2.24618e-06 0 0)
(2.25541e-06 0 0)
(2.26465e-06 0 0)
(2.2739e-06 0 0)
(2.28317e-06 0 0)
(2.29244e-06 0 0)
(2.30173e-06 0 0)
(2.31102e-06 0 0)
(2.32032e-06 0 0)
(2.32963e-06 0 0)
(2.33895e-06 0 0)
(2.34828e-06 0 0)
(2.35761e-06 0 0)
(2.36694e-06 0 0)
(2.37628e-06 0 0)
(2.38562e-06 0 0)
(2.39497e-06 0 0)
(2.40431e-06 0 0)
(2.41366e-06 0 0)
(2.423e-06 0 0)
(2.43234e-06 0 0)
(2.44168e-06 0 0)
(2.45102e-06 0 0)
(2.46035e-06 0 0)
(2.46969e-06 0 0)
(2.47902e-06 0 0)
(2.48836e-06 0 0)
(2.4977e-06 0 0)
(2.50705e-06 0 0)
(2.5164e-06 0 0)
(2.52576e-06 0 0)
(2.53514e-06 0 0)
(2.54453e-06 0 0)
(2.55394e-06 0 0)
(2.56338e-06 0 0)
(2.57284e-06 0 0)
(2.58233e-06 0 0)
(2.59186e-06 0 0)
(2.60142e-06 0 0)
(2.61102e-06 0 0)
(2.62066e-06 0 0)
(2.63035e-06 0 0)
(2.64008e-06 0 0)
(2.64986e-06 0 0)
(2.65969e-06 0 0)
(2.66956e-06 0 0)
(2.67948e-06 0 0)
(2.68944e-06 0 0)
(2.69945e-06 0 0)
(2.70949e-06 0 0)
(2.71957e-06 0 0)
(2.72969e-06 0 0)
(2.73983e-06 0 0)
(2.74999e-06 0 0)
(2.76018e-06 0 0)
(2.77038e-06 0 0)
(2.78059e-06 0 0)
(2.79082e-06 0 0)
(2.80105e-06 0 0)
(2.81129e-06 0 0)
(2.82153e-06 0 0)
(2.83177e-06 0 0)
(2.84202e-06 0 0)
(2.85226e-06 0 0)
(2.86251e-06 0 0)
(2.87275e-06 0 0)
(2.883e-06 0 0)
(2.89324e-06 0 0)
(2.90349e-06 0 0)
(2.91375e-06 0 0)
(2.92401e-06 0 0)
(2.93428e-06 0 0)
(2.94455e-06 0 0)
(2.95484e-06 0 0)
(2.96513e-06 0 0)
(2.97544e-06 0 0)
(2.98576e-06 0 0)
(2.9961e-06 0 0)
(3.00645e-06 0 0)
(3.01682e-06 0 0)
(3.02721e-06 0 0)
(3.03761e-06 0 0)
(3.04804e-06 0 0)
(3.05848e-06 0 0)
(3.06895e-06 0 0)
(3.07943e-06 0 0)
(3.08993e-06 0 0)
(3.10046e-06 0 0)
(3.111e-06 0 0)
(3.12156e-06 0 0)
(3.13215e-06 0 0)
(3.14275e-06 0 0)
(3.15338e-06 0 0)
(3.16403e-06 0 0)
(3.1747e-06 0 0)
(3.18538e-06 0 0)
(3.19609e-06 0 0)
(3.20682e-06 0 0)
(3.21757e-06 0 0)
(3.22834e-06 0 0)
(3.23913e-06 0 0)
(3.24994e-06 0 0)
(3.26077e-06 0 0)
(3.27162e-06 0 0)
(3.28249e-06 0 0)
(3.29338e-06 0 0)
(3.30429e-06 0 0)
(3.31522e-06 0 0)
(3.32617e-06 0 0)
(3.33714e-06 0 0)
(3.34813e-06 0 0)
(3.35914e-06 0 0)
(3.37018e-06 0 0)
(3.38123e-06 0 0)
(3.3923e-06 0 0)
(3.4034e-06 0 0)
(3.41451e-06 0 0)
(3.42565e-06 0 0)
(3.43681e-06 0 0)
(3.44798e-06 0 0)
(3.45918e-06 0 0)
(3.4704e-06 0 0)
(3.48165e-06 0 0)
(3.49291e-06 0 0)
(3.5042e-06 0 0)
(3.51551e-06 0 0)
(3.52684e-06 0 0)
(3.53819e-06 0 0)
(3.54956e-06 0 0)
(3.56096e-06 0 0)
(3.57238e-06 0 0)
(3.58382e-06 0 0)
(3.59529e-06 0 0)
(3.60678e-06 0 0)
(3.61829e-06 0 0)
(3.62983e-06 0 0)
(3.64139e-06 0 0)
(3.65297e-06 0 0)
(3.66458e-06 0 0)
(3.67621e-06 0 0)
(3.68787e-06 0 0)
(3.69955e-06 0 0)
(3.71125e-06 0 0)
(3.72299e-06 0 0)
(3.73474e-06 0 0)
(3.74653e-06 0 0)
(3.75833e-06 0 0)
(3.77017e-06 0 0)
(3.78203e-06 0 0)
(3.79392e-06 0 0)
(3.80583e-06 0 0)
(3.81778e-06 0 0)
(3.82975e-06 0 0)
(3.84174e-06 0 0)
(3.85377e-06 0 0)
(3.86583e-06 0 0)
(3.87791e-06 0 0)
(3.89002e-06 0 0)
(3.90216e-06 0 0)
(3.91434e-06 0 0)
(3.92654e-06 0 0)
(3.93877e-06 0 0)
(3.95103e-06 0 0)
(3.96333e-06 0 0)
(3.97565e-06 0 0)
(3.98801e-06 0 0)
(4.00039e-06 0 0)
(4.01281e-06 0 0)
(4.02526e-06 0 0)
(4.03774e-06 0 0)
(4.05025e-06 0 0)
(4.0628e-06 0 0)
(4.07537e-06 0 0)
(4.08798e-06 0 0)
(4.10061e-06 0 0)
(4.11328e-06 0 0)
(4.12598e-06 0 0)
(4.13871e-06 0 0)
(4.15147e-06 0 0)
(4.16426e-06 0 0)
(4.17708e-06 0 0)
(4.18993e-06 0 0)
(4.2028e-06 0 0)
(4.2157e-06 0 0)
(4.22863e-06 0 0)
(4.24159e-06 0 0)
(4.25457e-06 0 0)
(4.26758e-06 0 0)
(4.28061e-06 0 0)
(4.29367e-06 0 0)
(4.30676e-06 0 0)
(4.31987e-06 0 0)
(4.33302e-06 0 0)
(4.34619e-06 0 0)
(4.35939e-06 0 0)
(4.37262e-06 0 0)
(4.38588e-06 0 0)
(4.39918e-06 0 0)
(4.41252e-06 0 0)
(4.42589e-06 0 0)
(4.43931e-06 0 0)
(4.45277e-06 0 0)
(4.46628e-06 0 0)
(4.47984e-06 0 0)
(4.49345e-06 0 0)
(4.50712e-06 0 0)
(4.52085e-06 0 0)
(4.53465e-06 0 0)
(4.54852e-06 0 0)
(4.56245e-06 0 0)
(4.57647e-06 0 0)
(4.59056e-06 0 0)
(4.60473e-06 0 0)
(4.61899e-06 0 0)
(4.63333e-06 0 0)
(4.64776e-06 0 0)
(4.66228e-06 0 0)
(4.6769e-06 0 0)
(4.6916e-06 0 0)
(4.70641e-06 0 0)
(4.7213e-06 0 0)
(4.73629e-06 0 0)
(4.75136e-06 0 0)
(4.76653e-06 0 0)
(4.78179e-06 0 0)
(4.79713e-06 0 0)
(4.81255e-06 0 0)
(4.82806e-06 0 0)
(4.84365e-06 0 0)
(4.85931e-06 0 0)
(4.87505e-06 0 0)
(4.89085e-06 0 0)
(4.90673e-06 0 0)
(4.92267e-06 0 0)
(4.93867e-06 0 0)
(4.95474e-06 0 0)
(4.97086e-06 0 0)
(4.98705e-06 0 0)
(5.00329e-06 0 0)
(5.01959e-06 0 0)
(5.03594e-06 0 0)
(5.05236e-06 0 0)
(5.06883e-06 0 0)
(5.08535e-06 0 0)
(5.10194e-06 0 0)
(5.11858e-06 0 0)
(5.13527e-06 0 0)
(5.15203e-06 0 0)
(5.16884e-06 0 0)
(5.18571e-06 0 0)
(5.20264e-06 0 0)
(5.21962e-06 0 0)
(5.23665e-06 0 0)
(5.25374e-06 0 0)
(5.27087e-06 0 0)
(5.28805e-06 0 0)
(5.30527e-06 0 0)
(5.32253e-06 0 0)
(5.33981e-06 0 0)
(5.3571e-06 0 0)
(5.3744e-06 0 0)
(5.39168e-06 0 0)
(5.40893e-06 0 0)
(5.42614e-06 0 0)
(5.44327e-06 0 0)
(5.46029e-06 0 0)
(5.47718e-06 0 0)
(5.4939e-06 0 0)
(5.5104e-06 0 0)
(5.52664e-06 0 0)
(5.54257e-06 0 0)
(5.55814e-06 0 0)
(5.57329e-06 0 0)
(5.58794e-06 0 0)
(5.60206e-06 0 0)
(5.61558e-06 0 0)
(5.62844e-06 0 0)
(5.6406e-06 0 0)
(5.652e-06 0 0)
(5.6626e-06 0 0)
(5.67239e-06 0 0)
(5.68135e-06 0 0)
(5.68947e-06 0 0)
(5.69678e-06 0 0)
(5.70329e-06 0 0)
(5.70902e-06 0 0)
(5.71403e-06 0 0)
(5.71837e-06 0 0)
(5.72212e-06 0 0)
(5.72538e-06 0 0)
(5.72824e-06 0 0)
(5.73087e-06 0 0)
(5.73347e-06 0 0)
(5.73641e-06 0 0)
(5.7403e-06 0 0)
(5.74614e-06 0 0)
(5.75571e-06 0 0)
(5.77213e-06 0 0)
(5.80081e-06 0 0)
(5.85101e-06 0 0)
(5.93796e-06 0 0)
(6.08491e-06 0 0)
(6.32265e-06 0 0)
(6.68127e-06 0 0)
(7.16916e-06 0 0)
(7.74757e-06 0 0)
(8.32981e-06 0 0)
(8.8235e-06 0 0)
(9.18089e-06 0 0)
(9.40875e-06 0 0)
(9.5416e-06 0 0)
(9.61482e-06 0 0)
(9.65389e-06 0 0)
(9.67437e-06 0 0)
(9.68502e-06 0 0)
(9.69053e-06 0 0)
(9.69338e-06 0 0)
(9.69485e-06 0 0)
(9.69562e-06 0 0)
(9.69602e-06 0 0)
(9.69624e-06 0 0)
(9.69635e-06 0 0)
(9.69641e-06 0 0)
(9.69644e-06 0 0)
(9.69646e-06 0 0)
(9.69646e-06 0 0)
(9.69646e-06 0 0)
(9.69646e-06 0 0)
(9.69645e-06 0 0)
(9.69643e-06 0 0)
(9.69641e-06 0 0)
(9.69639e-06 0 0)
(9.69637e-06 0 0)
(9.69634e-06 0 0)
(9.69632e-06 0 0)
(9.69628e-06 0 0)
(9.69625e-06 0 0)
(9.69621e-06 0 0)
(9.69617e-06 0 0)
(9.69613e-06 0 0)
(9.69608e-06 0 0)
(9.69604e-06 0 0)
(9.69599e-06 0 0)
(9.69593e-06 0 0)
(9.69588e-06 0 0)
(9.69583e-06 0 0)
(9.69577e-06 0 0)
(9.69571e-06 0 0)
(9.69565e-06 0 0)
(9.69558e-06 0 0)
(9.69551e-06 0 0)
(9.69545e-06 0 0)
(9.69538e-06 0 0)
(9.6953e-06 0 0)
(9.69523e-06 0 0)
(9.69515e-06 0 0)
(9.69506e-06 0 0)
(9.69498e-06 0 0)
(9.69489e-06 0 0)
(9.69479e-06 0 0)
(9.69469e-06 0 0)
(9.69459e-06 0 0)
(9.69448e-06 0 0)
(9.69436e-06 0 0)
(9.69423e-06 0 0)
(9.6941e-06 0 0)
(9.69395e-06 0 0)
(9.6938e-06 0 0)
(9.69364e-06 0 0)
(9.69346e-06 0 0)
(9.69327e-06 0 0)
(9.69307e-06 0 0)
(9.69286e-06 0 0)
(9.69263e-06 0 0)
(9.69238e-06 0 0)
(9.69212e-06 0 0)
(9.69184e-06 0 0)
(9.69154e-06 0 0)
(9.69122e-06 0 0)
(9.69089e-06 0 0)
(9.69053e-06 0 0)
(9.69015e-06 0 0)
(9.68976e-06 0 0)
(9.68934e-06 0 0)
(9.68891e-06 0 0)
(9.68846e-06 0 0)
(9.68798e-06 0 0)
(9.6875e-06 0 0)
(9.68699e-06 0 0)
(9.68647e-06 0 0)
(9.68594e-06 0 0)
(9.68539e-06 0 0)
(9.68484e-06 0 0)
(9.68427e-06 0 0)
(9.68371e-06 0 0)
(9.68313e-06 0 0)
(9.68256e-06 0 0)
(9.682e-06 0 0)
(9.68143e-06 0 0)
(9.68088e-06 0 0)
(9.68034e-06 0 0)
(9.67981e-06 0 0)
(9.6793e-06 0 0)
(9.67882e-06 0 0)
(9.67836e-06 0 0)
(9.67793e-06 0 0)
(9.67753e-06 0 0)
(9.67716e-06 0 0)
(9.67684e-06 0 0)
(9.67656e-06 0 0)
(9.67632e-06 0 0)
(9.67612e-06 0 0)
(9.67597e-06 0 0)
(9.67588e-06 0 0)
(9.67583e-06 0 0)
(9.67581e-06 0 0)
(9.67581e-06 0 0)
(9.67583e-06 0 0)
(9.67594e-06 0 0)
(9.67614e-06 0 0)
(9.67637e-06 0 0)
(9.67665e-06 0 0)
(9.67697e-06 0 0)
(9.67733e-06 0 0)
(9.67772e-06 0 0)
(9.67814e-06 0 0)
(9.67859e-06 0 0)
(9.67906e-06 0 0)
(9.67956e-06 0 0)
(9.68006e-06 0 0)
(9.68059e-06 0 0)
(9.68112e-06 0 0)
(9.68165e-06 0 0)
(9.68219e-06 0 0)
(9.68272e-06 0 0)
(9.68325e-06 0 0)
(9.68377e-06 0 0)
(9.68428e-06 0 0)
(9.68477e-06 0 0)
(9.68525e-06 0 0)
(9.68571e-06 0 0)
(9.68616e-06 0 0)
(9.68658e-06 0 0)
(9.68698e-06 0 0)
(9.68737e-06 0 0)
(9.68773e-06 0 0)
(9.68806e-06 0 0)
(9.68838e-06 0 0)
(9.68868e-06 0 0)
(9.68895e-06 0 0)
(9.68921e-06 0 0)
(9.68945e-06 0 0)
(9.68967e-06 0 0)
(9.68988e-06 0 0)
(9.69006e-06 0 0)
(9.69024e-06 0 0)
(9.6904e-06 0 0)
(9.69055e-06 0 0)
(9.6907e-06 0 0)
(9.69083e-06 0 0)
(9.69095e-06 0 0)
(9.69107e-06 0 0)
(9.69118e-06 0 0)
(9.69129e-06 0 0)
(9.69139e-06 0 0)
(9.69149e-06 0 0)
(9.69158e-06 0 0)
(9.69168e-06 0 0)
(9.69177e-06 0 0)
(9.69186e-06 0 0)
(9.69196e-06 0 0)
(9.69205e-06 0 0)
(9.69214e-06 0 0)
(9.69223e-06 0 0)
(9.69233e-06 0 0)
(9.69242e-06 0 0)
(9.69252e-06 0 0)
(9.69261e-06 0 0)
(9.69271e-06 0 0)
(9.69281e-06 0 0)
(9.69291e-06 0 0)
(9.69301e-06 0 0)
(9.69311e-06 0 0)
(9.69322e-06 0 0)
(9.69332e-06 0 0)
(9.69342e-06 0 0)
(9.69353e-06 0 0)
(9.69363e-06 0 0)
(9.69374e-06 0 0)
(9.69384e-06 0 0)
(9.69395e-06 0 0)
(9.69405e-06 0 0)
(9.69416e-06 0 0)
(9.69426e-06 0 0)
(9.69436e-06 0 0)
(9.69447e-06 0 0)
(9.69457e-06 0 0)
(9.69467e-06 0 0)
(9.69477e-06 0 0)
(9.69487e-06 0 0)
(9.69496e-06 0 0)
(9.69506e-06 0 0)
(9.69515e-06 0 0)
(9.69525e-06 0 0)
(9.69534e-06 0 0)
(9.69542e-06 0 0)
(9.69551e-06 0 0)
(9.6956e-06 0 0)
(9.69568e-06 0 0)
(9.69576e-06 0 0)
(9.69584e-06 0 0)
(9.69591e-06 0 0)
(9.69599e-06 0 0)
(9.69606e-06 0 0)
(9.69613e-06 0 0)
(9.69619e-06 0 0)
(9.69625e-06 0 0)
(9.69631e-06 0 0)
(9.69637e-06 0 0)
(9.69642e-06 0 0)
(9.69647e-06 0 0)
(9.69651e-06 0 0)
(9.69656e-06 0 0)
(9.69659e-06 0 0)
(9.69663e-06 0 0)
(9.69666e-06 0 0)
(9.69668e-06 0 0)
(9.6967e-06 0 0)
(9.69672e-06 0 0)
(9.69674e-06 0 0)
(9.69675e-06 0 0)
(9.69675e-06 0 0)
(9.69675e-06 0 0)
(9.69675e-06 0 0)
(9.69675e-06 0 0)
(9.69675e-06 0 0)
(9.69674e-06 0 0)
(9.69673e-06 0 0)
(9.69671e-06 0 0)
(9.6967e-06 0 0)
(9.69667e-06 0 0)
(9.69665e-06 0 0)
(9.69662e-06 0 0)
(9.69659e-06 0 0)
(9.69656e-06 0 0)
(9.69652e-06 0 0)
(9.69649e-06 0 0)
(9.69645e-06 0 0)
(9.6964e-06 0 0)
(9.69636e-06 0 0)
(9.69631e-06 0 0)
(9.69626e-06 0 0)
(9.69621e-06 0 0)
(9.69615e-06 0 0)
(9.69609e-06 0 0)
(9.69603e-06 0 0)
(9.69596e-06 0 0)
(9.69589e-06 0 0)
(9.69582e-06 0 0)
(9.69574e-06 0 0)
(9.69566e-06 0 0)
(9.69557e-06 0 0)
(9.69548e-06 0 0)
(9.69539e-06 0 0)
(9.69529e-06 0 0)
(9.69518e-06 0 0)
(9.69507e-06 0 0)
(9.69495e-06 0 0)
(9.69482e-06 0 0)
(9.69469e-06 0 0)
(9.69454e-06 0 0)
(9.69439e-06 0 0)
(9.69423e-06 0 0)
(9.69406e-06 0 0)
(9.69388e-06 0 0)
(9.69368e-06 0 0)
(9.69348e-06 0 0)
(9.69326e-06 0 0)
(9.69303e-06 0 0)
(9.69278e-06 0 0)
(9.69253e-06 0 0)
(9.69225e-06 0 0)
(9.69196e-06 0 0)
(9.69166e-06 0 0)
(9.69134e-06 0 0)
(9.69101e-06 0 0)
(9.69066e-06 0 0)
(9.69029e-06 0 0)
(9.68991e-06 0 0)
(9.68952e-06 0 0)
(9.68911e-06 0 0)
(9.68868e-06 0 0)
(9.68824e-06 0 0)
(9.68779e-06 0 0)
(9.68733e-06 0 0)
(9.68686e-06 0 0)
(9.68637e-06 0 0)
(9.68588e-06 0 0)
(9.68538e-06 0 0)
(9.68488e-06 0 0)
(9.68438e-06 0 0)
(9.68387e-06 0 0)
(9.68336e-06 0 0)
(9.68286e-06 0 0)
(9.68236e-06 0 0)
(9.68187e-06 0 0)
(9.68139e-06 0 0)
(9.68093e-06 0 0)
(9.68048e-06 0 0)
(9.68004e-06 0 0)
(9.67963e-06 0 0)
(9.67923e-06 0 0)
(9.67887e-06 0 0)
(9.67852e-06 0 0)
(9.67821e-06 0 0)
(9.67793e-06 0 0)
(9.67768e-06 0 0)
(9.67747e-06 0 0)
(9.67729e-06 0 0)
(9.67715e-06 0 0)
(9.67705e-06 0 0)
(9.67699e-06 0 0)
(9.67697e-06 0 0)
(9.67696e-06 0 0)
(9.67697e-06 0 0)
(9.67701e-06 0 0)
(9.67713e-06 0 0)
(9.6773e-06 0 0)
(9.67751e-06 0 0)
(9.67775e-06 0 0)
(9.67802e-06 0 0)
(9.67833e-06 0 0)
(9.67866e-06 0 0)
(9.67902e-06 0 0)
(9.6794e-06 0 0)
(9.6798e-06 0 0)
(9.68022e-06 0 0)
(9.68065e-06 0 0)
(9.68109e-06 0 0)
(9.68154e-06 0 0)
(9.682e-06 0 0)
(9.68246e-06 0 0)
(9.68292e-06 0 0)
(9.68338e-06 0 0)
(9.68383e-06 0 0)
(9.68428e-06 0 0)
(9.68472e-06 0 0)
(9.68515e-06 0 0)
(9.68556e-06 0 0)
(9.68596e-06 0 0)
(9.68635e-06 0 0)
(9.68673e-06 0 0)
(9.68708e-06 0 0)
(9.68743e-06 0 0)
(9.68775e-06 0 0)
(9.68806e-06 0 0)
(9.68836e-06 0 0)
(9.68864e-06 0 0)
(9.6889e-06 0 0)
(9.68915e-06 0 0)
(9.68938e-06 0 0)
(9.6896e-06 0 0)
(9.68981e-06 0 0)
(9.69001e-06 0 0)
(9.6902e-06 0 0)
(9.69037e-06 0 0)
(9.69054e-06 0 0)
(9.6907e-06 0 0)
(9.69085e-06 0 0)
(9.691e-06 0 0)
(9.69113e-06 0 0)
(9.69127e-06 0 0)
(9.6914e-06 0 0)
(9.69152e-06 0 0)
(9.69165e-06 0 0)
(9.69177e-06 0 0)
(9.69188e-06 0 0)
(9.692e-06 0 0)
(9.69212e-06 0 0)
(9.69223e-06 0 0)
(9.69234e-06 0 0)
(9.69246e-06 0 0)
(9.69257e-06 0 0)
(9.69268e-06 0 0)
(9.6928e-06 0 0)
(9.69291e-06 0 0)
(9.69302e-06 0 0)
(9.69314e-06 0 0)
(9.69325e-06 0 0)
(9.69337e-06 0 0)
(9.69348e-06 0 0)
(9.6936e-06 0 0)
(9.69371e-06 0 0)
(9.69383e-06 0 0)
)
;

boundaryField
{
    inlet
    {
        type            fixedValue;
        value           uniform (0 0 0);
    }
    outlet
    {
        type            zeroGradient;
    }
    emptyWalls
    {
        type            empty;
    }
}


// ************************************************************************* //
