/*--------------------------------*- C++ -*----------------------------------*\
  =========                 |
  \\      /  F ield         | OpenFOAM: The Open Source CFD Toolbox
   \\    /   O peration     | Website:  https://openfoam.org
    \\  /    A nd           | Version:  9
     \\/     M anipulation  |
\*---------------------------------------------------------------------------*/
FoamFile
{
    format      ascii;
    class       volScalarField;
    location    "24250";
    object      Sa;
}
// * * * * * * * * * * * * * * * * * * * * * * * * * * * * * * * * * * * * * //

dimensions      [0 0 0 0 0 0 0];

internalField   nonuniform List<scalar> 
1000
(
0.549585
0.548646
0.547532
0.546292
0.545173
0.543943
0.542791
0.541577
0.540376
0.539159
0.537927
0.53669
0.535448
0.534198
0.532953
0.531714
0.530481
0.529286
0.528092
0.526988
0.525867
0.524904
0.5239
0.523093
0.522261
0.521594
0.520953
0.520419
0.519926
0.519463
0.518835
0.51729
0.511806
0.488502
0.342281
0.12512
0.0794219
0.06588
0.0594683
0.0554717
0.0525629
0.0502377
0.0482823
0.0465771
0.0450631
0.043695
0.0424503
0.041306
0.0402517
0.0392735
0.0383662
0.0375201
0.0367321
0.0359939
0.0353025
0.0346515
0.0340392
0.0334607
0.0329147
0.0323985
0.0319126
0.0314538
0.0310188
0.0306031
0.0302075
0.0298302
0.0294694
0.029123
0.0287917
0.0284755
0.0281752
0.0278854
0.0276093
0.0273488
0.0271123
0.0268937
0.0266881
0.026494
0.0263096
0.0261328
0.0259617
0.0257955
0.0256351
0.0254832
0.0253406
0.0252058
0.0250725
0.02494
0.0248096
0.0246826
0.0245609
0.0244468
0.0243434
0.0242538
0.0241798
0.0241206
0.024071
0.0240239
0.0239788
0.0239356
0.0238945
0.0238552
0.0238175
0.023781
0.0237454
0.0237103
0.0236755
0.0236406
0.0236057
0.0235705
0.023535
0.0234992
0.0234632
0.0234269
0.0233905
0.023354
0.0233175
0.0232811
0.0232447
0.0232084
0.0231724
0.0231365
0.0231008
0.0230653
0.0230302
0.0229952
0.0229606
0.0229262
0.022892
0.0228582
0.0228246
0.0227913
0.0227582
0.0227254
0.0226929
0.0226607
0.0226287
0.022597
0.0225656
0.0225344
0.0225035
0.0224729
0.0224426
0.0224125
0.0223826
0.022353
0.0223236
0.0222945
0.0222656
0.0222369
0.0222086
0.0221804
0.0221526
0.022125
0.0220977
0.0220706
0.0220438
0.0220172
0.0219908
0.0219646
0.0219385
0.0219125
0.0218867
0.021861
0.0218354
0.0218101
0.0217849
0.02176
0.0217353
0.0217109
0.0216867
0.0216627
0.0216389
0.0216153
0.0215918
0.0215683
0.0215449
0.0215214
0.0214979
0.0214744
0.0214509
0.0214276
0.0214047
0.0213824
0.0213607
0.02134
0.0213204
0.021302
0.0212848
0.0212689
0.0212542
0.0212407
0.0212283
0.0212167
0.0212058
0.0211955
0.0211855
0.0211755
0.0211654
0.0211547
0.0211433
0.0211309
0.0211171
0.0211017
0.0210846
0.0210655
0.0210445
0.0210214
0.0209965
0.0209697
0.0209414
0.0209119
0.0208813
0.0208501
0.0208186
0.0207871
0.0207558
0.0207252
0.0206953
0.0206663
0.0206384
0.0206115
0.0205857
0.020561
0.0205372
0.0205144
0.0204924
0.0204711
0.0204503
0.0204301
0.0204102
0.0203906
0.0203713
0.020352
0.0203328
0.0203137
0.0202945
0.0202753
0.0202561
0.0202368
0.0202174
0.020198
0.0201786
0.0201591
0.0201396
0.0201201
0.0201006
0.0200811
0.0200617
0.0200423
0.020023
0.0200037
0.0199845
0.0199654
0.0199464
0.0199275
0.0199086
0.0198899
0.0198712
0.0198527
0.0198343
0.0198159
0.0197977
0.0197796
0.0197616
0.0197438
0.019726
0.0197083
0.0196908
0.0196734
0.019656
0.0196388
0.0196217
0.0196047
0.0195878
0.0195711
0.0195544
0.0195379
0.0195215
0.0195052
0.019489
0.0194729
0.0194569
0.0194411
0.0194254
0.0194097
0.0193942
0.0193787
0.0193634
0.0193481
0.0193329
0.0193178
0.0193027
0.0192878
0.0192729
0.0192581
0.0192434
0.0192288
0.0192142
0.0191998
0.0191854
0.0191711
0.0191569
0.0191427
0.0191286
0.0191145
0.0191005
0.0190864
0.0190725
0.0190585
0.0190447
0.0190309
0.0190172
0.0190038
0.0189905
0.0189775
0.0189648
0.0189525
0.0189406
0.0189292
0.0189183
0.0189079
0.0188981
0.0188889
0.0188802
0.0188721
0.0188645
0.0188573
0.0188506
0.0188442
0.0188381
0.0188321
0.0188262
0.0188203
0.0188142
0.0188078
0.018801
0.0187936
0.0187856
0.0187769
0.0187674
0.0187569
0.0187455
0.0187331
0.0187197
0.0187054
0.0186901
0.0186739
0.0186569
0.0186392
0.0186209
0.0186022
0.0185831
0.0185638
0.0185445
0.0185252
0.018506
0.018487
0.0184684
0.0184502
0.0184323
0.018415
0.0183981
0.0183817
0.0183657
0.0183502
0.0183351
0.0183204
0.0183061
0.0182921
0.0182783
0.0182648
0.0182515
0.0182384
0.0182253
0.0182124
0.0181995
0.0181867
0.0181739
0.0181612
0.0181484
0.0181356
0.0181228
0.01811
0.0180972
0.0180844
0.0180715
0.0180587
0.0180458
0.0180329
0.0180201
0.0180072
0.0179943
0.0179815
0.0179687
0.0179559
0.0179432
0.0179305
0.0179178
0.0179052
0.0178926
0.01788
0.0178676
0.0178551
0.0178428
0.0178305
0.0178182
0.017806
0.0177939
0.0177818
0.0177698
0.0177579
0.017746
0.0177342
0.0177225
0.0177108
0.0176992
0.0176877
0.0176762
0.0176648
0.0176535
0.0176422
0.0176311
0.0176199
0.0176089
0.0175979
0.017587
0.0175761
0.0175654
0.0175546
0.017544
0.0175334
0.0175228
0.0175123
0.0175019
0.0174915
0.0174812
0.0174709
0.0174607
0.0174505
0.0174404
0.0174304
0.0174203
0.0174103
0.0174004
0.0173905
0.0173807
0.0173708
0.0173611
0.0173513
0.0173416
0.0173319
0.0173223
0.0173127
0.0173031
0.0172936
0.0172842
0.0172748
0.0172655
0.0172564
0.0172473
0.0172384
0.0172297
0.0172211
0.0172128
0.0172047
0.0171969
0.0171893
0.017182
0.017175
0.0171683
0.0171619
0.0171558
0.01715
0.0171445
0.0171392
0.0171342
0.0171295
0.0171249
0.0171204
0.017116
0.0171117
0.0171074
0.0171031
0.0170986
0.017094
0.0170891
0.017084
0.0170785
0.0170727
0.0170664
0.0170597
0.0170524
0.0170446
0.0170363
0.0170274
0.0170179
0.0170079
0.0169973
0.0169862
0.0169746
0.0169626
0.0169502
0.0169375
0.0169245
0.0169113
0.0168979
0.0168844
0.0168708
0.0168573
0.0168438
0.0168304
0.0168172
0.0168041
0.0167913
0.0167786
0.0167662
0.0167541
0.0167422
0.0167305
0.0167191
0.0167079
0.0166969
0.0166861
0.0166755
0.0166651
0.0166548
0.0166447
0.0166347
0.0166248
0.0166149
0.0166052
0.0165955
0.0165858
0.0165762
0.0165666
0.016557
0.0165475
0.0165379
0.0165284
0.0165188
0.0165093
0.0164997
0.0164902
0.0164806
0.0164711
0.0164615
0.016452
0.0164425
0.0164329
0.0164234
0.0164139
0.0164044
0.016395
0.0163855
0.0163761
0.0163667
0.0163574
0.016348
0.0163387
0.0163294
0.0163202
0.016311
0.0163018
0.0162927
0.0162836
0.0162746
0.0162656
0.0162566
0.0162477
0.0162388
0.01623
0.0162212
0.0162125
0.0162038
0.0161951
0.0161865
0.016178
0.0161695
0.016161
0.0161526
0.0161442
0.0161358
0.0161276
0.0161193
0.0161111
0.0161029
0.0160948
0.0160867
0.0160787
0.0160707
0.0160628
0.0160548
0.0160469
0.0160391
0.0160313
0.0160235
0.0160158
0.016008
0.0160004
0.0159927
0.0159851
0.0159775
0.0159699
0.0159624
0.0159549
0.0159474
0.0159399
0.0159325
0.0159251
0.0159177
0.0159103
0.015903
0.0158958
0.0158885
0.0158814
0.0158742
0.0158672
0.0158602
0.0158533
0.0158465
0.0158398
0.0158332
0.0158267
0.0158204
0.0158142
0.0158082
0.0158023
0.0157965
0.015791
0.0157856
0.0157804
0.0157754
0.0157706
0.015766
0.0157615
0.0157572
0.015753
0.0157489
0.015745
0.0157412
0.0157375
0.0157338
0.0157302
0.0157265
0.0157229
0.0157192
0.0157154
0.0157115
0.0157075
0.0157033
0.0156989
0.0156942
0.0156894
0.0156842
0.0156788
0.015673
0.015667
0.0156605
0.0156538
0.0156467
0.0156392
0.0156314
0.0156232
0.0156147
0.0156059
0.0155969
0.0155875
0.0155779
0.0155681
0.0155582
0.0155481
0.0155378
0.0155275
0.0155171
0.0155068
0.0154964
0.015486
0.0154757
0.0154654
0.0154553
0.0154452
0.0154353
0.0154255
0.0154158
0.0154063
0.0153969
0.0153877
0.0153786
0.0153696
0.0153607
0.015352
0.0153434
0.0153349
0.0153265
0.0153182
0.01531
0.0153019
0.0152938
0.0152858
0.0152778
0.0152699
0.015262
0.0152541
0.0152463
0.0152385
0.0152307
0.0152229
0.0152151
0.0152073
0.0151996
0.0151918
0.0151841
0.0151763
0.0151686
0.0151608
0.0151531
0.0151453
0.0151376
0.0151299
0.0151222
0.0151145
0.0151068
0.0150991
0.0150914
0.0150837
0.0150761
0.0150685
0.0150609
0.0150533
0.0150457
0.0150381
0.0150306
0.0150231
0.0150156
0.0150082
0.0150007
0.0149933
0.0149859
0.0149786
0.0149713
0.014964
0.0149567
0.0149495
0.0149423
0.0149351
0.0149279
0.0149208
0.0149137
0.0149066
0.0148996
0.0148926
0.0148856
0.0148787
0.0148718
0.0148649
0.014858
0.0148512
0.0148444
0.0148377
0.0148309
0.0148242
0.0148175
0.0148108
0.0148042
0.0147976
0.014791
0.0147844
0.0147779
0.0147713
0.0147648
0.0147584
0.0147519
0.0147455
0.014739
0.0147326
0.0147263
0.0147199
0.0147136
0.0147073
0.014701
0.0146947
0.0146885
0.0146823
0.0146761
0.0146699
0.0146638
0.0146578
0.0146517
0.0146458
0.0146398
0.014634
0.0146282
0.0146224
0.0146168
0.0146112
0.0146057
0.0146003
0.014595
0.0145898
0.0145847
0.0145797
0.0145748
0.0145701
0.0145654
0.0145608
0.0145564
0.0145521
0.0145478
0.0145437
0.0145397
0.0145357
0.0145319
0.0145281
0.0145243
0.0145206
0.014517
0.0145134
0.0145098
0.0145062
0.0145025
0.0144989
0.0144951
0.0144913
0.0144875
0.0144835
0.0144794
0.0144751
0.0144707
0.0144662
0.0144614
0.0144565
0.0144514
0.014446
0.0144405
0.0144347
0.0144286
0.0144224
0.0144159
0.0144092
0.0144022
0.014395
0.0143877
0.01438
0.0143723
0.0143643
0.0143562
0.0143479
0.0143395
0.0143309
0.0143223
0.0143136
0.0143048
0.014296
0.0142871
0.0142782
0.0142693
0.0142605
0.0142516
0.0142428
0.0142341
0.0142254
0.0142167
0.0142082
0.0141997
0.0141912
0.0141829
0.0141746
0.0141665
0.0141584
0.0141503
0.0141424
0.0141345
0.0141267
0.014119
0.0141113
0.0141036
0.0140961
0.0140885
0.014081
0.0140736
0.0140662
0.0140588
0.0140514
0.0140441
0.0140367
0.0140294
0.0140221
0.0140148
0.0140076
0.0140003
0.013993
0.0139858
0.0139785
0.0139712
0.013964
0.0139568
0.0139495
0.0139423
0.013935
0.0139278
0.0139206
0.0139134
0.0139062
0.0138991
0.0138919
0.0138848
0.0138776
0.0138706
0.0138635
0.0138565
0.0138495
0.0138426
0.0138357
0.0138288
0.0138221
0.0138154
0.0138087
0.0138022
0.0137957
0.0137894
0.0137832
0.0137771
0.0137711
0.0137653
0.0137596
0.0137541
0.0137488
0.0137437
0.0137388
0.0137341
0.0137296
0.0137254
0.0137215
0.0137178
0.0137143
0.0137111
0.0137082
0.0137055
0.013703
0.0137008
0.0136989
0.0136971
0.0136956
0.0136943
0.0136931
0.0136921
0.0136913
0.0136906
0.0136901
0.0136896
0.0136893
0.0136891
0.0136889
0.0136888
0.0136888
0.0136888
0.0136888
0.0136889
0.013689
0.0136891
0.013689
0.0136889
0.0136883
0.0136875
0.013685
0.0136812
0.0136734
0.0136597
0.0136354
0.0135928
0.0135226
0.0134116
0.0132543
0.0130605
0.0128651
0.0127099
0.0126113
0.0125595
0.0125344
0.012523
0.0125181
0.0125158
0.0125157
0.0125158
0.0125167
0.012517
0.0125188
0.0125192
0.0125213
0.0125218
0.0125241
0.0125246
0.0125271
0.0125276
0.0125303
0.0125309
0.0125338
0.0125345
0.0125384
)
;

boundaryField
{
    inlet
    {
        type            fixedValue;
        value           uniform 0.55;
    }
    outlet
    {
        type            zeroGradient;
    }
    emptyWalls
    {
        type            empty;
    }
}


// ************************************************************************* //
