/*--------------------------------*- C++ -*----------------------------------*\
  =========                 |
  \\      /  F ield         | OpenFOAM: The Open Source CFD Toolbox
   \\    /   O peration     | Website:  https://openfoam.org
    \\  /    A nd           | Version:  9
     \\/     M anipulation  |
\*---------------------------------------------------------------------------*/
FoamFile
{
    format      ascii;
    class       volScalarField;
    location    "7450";
    object      Fa;
}
// * * * * * * * * * * * * * * * * * * * * * * * * * * * * * * * * * * * * * //

dimensions      [0 0 0 0 0 0 0];

internalField   nonuniform List<scalar> 
1000
(
0.194735
0.19476
0.194613
0.194549
0.194397
0.194309
0.194172
0.193987
0.193214
0.188675
0.162616
0.152307
0.149994
0.148956
0.148263
0.147761
0.147372
0.147061
0.146787
0.146558
0.146393
0.146179
0.146106
0.14592
0.145814
0.145706
0.145645
0.145591
0.145612
0.145642
0.145687
0.145772
0.145911
0.146102
0.146332
0.146582
0.146833
0.147073
0.147293
0.147487
0.147648
0.147765
0.147829
0.147826
0.147747
0.14759
0.147356
0.147055
0.146702
0.146319
0.145925
0.145543
0.145189
0.144878
0.144618
0.144412
0.144259
0.144155
0.144094
0.144066
0.144063
0.144077
0.144099
0.144124
0.144145
0.144159
0.144164
0.144158
0.144142
0.144115
0.14408
0.144036
0.143986
0.143931
0.143873
0.143811
0.143748
0.143684
0.14362
0.143555
0.143491
0.143427
0.143363
0.1433
0.143237
0.143175
0.143113
0.143051
0.14299
0.142929
0.142867
0.142807
0.142746
0.142685
0.142624
0.142564
0.142503
0.142443
0.142383
0.142323
0.142263
0.142204
0.142145
0.142086
0.142029
0.141972
0.141916
0.141861
0.141807
0.141754
0.141702
0.141652
0.141603
0.141555
0.141508
0.141463
0.141418
0.141375
0.141334
0.141293
0.141253
0.141214
0.141177
0.14114
0.141104
0.141069
0.141035
0.141001
0.140968
0.140935
0.140903
0.140871
0.14084
0.140809
0.140779
0.140749
0.140719
0.140689
0.14066
0.140631
0.140602
0.140574
0.140546
0.140518
0.14049
0.140462
0.140435
0.140407
0.14038
0.140353
0.140326
0.1403
0.140274
0.14025
0.140227
0.140204
0.140184
0.140164
0.140146
0.140129
0.140114
0.1401
0.140088
0.140078
0.140072
0.140068
0.140069
0.140076
0.140088
0.140107
0.140133
0.140168
0.140211
0.140262
0.140323
0.140391
0.140467
0.14055
0.140638
0.140731
0.140826
0.14092
0.141013
0.141102
0.141183
0.141254
0.141313
0.141357
0.141384
0.141391
0.141376
0.141339
0.141279
0.141195
0.141089
0.140961
0.140814
0.140651
0.140473
0.140286
0.140091
0.139893
0.139696
0.139502
0.139314
0.139136
0.138968
0.138813
0.138671
0.138542
0.138428
0.138324
0.138237
0.138157
0.138093
0.13803
0.137984
0.137934
0.137901
0.137857
0.137831
0.137791
0.137766
0.137727
0.137699
0.137659
0.137624
0.137584
0.137541
0.137499
0.137448
0.137402
0.137347
0.137294
0.137238
0.137179
0.13712
0.137057
0.136996
0.136931
0.136867
0.136803
0.136736
0.136671
0.136604
0.136537
0.136471
0.136403
0.136337
0.13627
0.136204
0.136138
0.136071
0.136005
0.135939
0.135873
0.135808
0.135741
0.135677
0.135611
0.135546
0.135482
0.135415
0.135352
0.135286
0.135221
0.135158
0.135092
0.135029
0.134964
0.1349
0.134837
0.134773
0.134712
0.134649
0.134588
0.134528
0.134468
0.134412
0.134354
0.134301
0.134248
0.1342
0.134153
0.134109
0.134071
0.134033
0.134001
0.13397
0.133943
0.133915
0.133883
0.133845
0.133784
0.133693
0.133539
0.133295
0.132927
0.132434
0.131894
0.131429
0.131132
0.130973
0.130903
0.130874
0.130865
0.130869
0.130871
0.130884
0.130893
0.130903
0.130914
0.130926
0.130938
0.130951
0.130963
0.130976
0.130988
0.131001
0.131014
0.131027
0.13104
0.131053
0.131066
0.131079
0.131092
0.131106
0.131119
0.131132
0.131146
0.13116
0.131174
0.131188
0.131202
0.131217
0.131232
0.131248
0.131264
0.13128
0.131297
0.131315
0.131333
0.131352
0.131372
0.131393
0.131415
0.131438
0.131462
0.131489
0.131516
0.131546
0.131578
0.131612
0.131649
0.131688
0.13173
0.131775
0.131823
0.131874
0.131928
0.131986
0.132047
0.132111
0.132178
0.132249
0.132321
0.132397
0.132474
0.132553
0.132632
0.132713
0.132793
0.132873
0.132951
0.133027
0.1331
0.133169
0.133233
0.133292
0.133344
0.133388
0.133425
0.133452
0.13347
0.133478
0.133479
0.133479
0.133475
0.13345
0.13341
0.13336
0.133302
0.133236
0.133162
0.133083
0.132998
0.13291
0.132818
0.132725
0.132631
0.132538
0.132446
0.132356
0.13227
0.132188
0.132111
0.132039
0.131972
0.131912
0.131857
0.131809
0.131766
0.13173
0.131699
0.131673
0.131651
0.131634
0.131621
0.131612
0.131605
0.131601
0.131599
0.131598
0.131598
0.131599
0.131601
0.131604
0.131606
0.131609
0.13161
0.131611
0.131611
0.131611
0.131611
0.131608
0.131604
0.131598
0.131592
0.131584
0.131575
0.131565
0.131553
0.131541
0.131528
0.131515
0.1315
0.131485
0.131469
0.131453
0.131437
0.13142
0.131403
0.131386
0.131368
0.131351
0.131333
0.131316
0.131299
0.131282
0.131265
0.131248
0.131232
0.131216
0.1312
0.131184
0.131169
0.131155
0.131141
0.131127
0.131113
0.131101
0.131088
0.131076
0.131064
0.131053
0.131042
0.131032
0.131022
0.131012
0.131003
0.130994
0.130985
0.130977
0.130969
0.130962
0.130954
0.130947
0.130941
0.130935
0.130929
0.130923
0.130918
0.130912
0.130908
0.130903
0.1309
0.130896
0.130893
0.13089
0.130888
0.130886
0.130884
0.130883
0.130883
0.130883
0.130883
0.130883
0.130884
0.130886
0.130888
0.130892
0.130895
0.1309
0.130905
0.13091
0.130916
0.130923
0.13093
0.130937
0.130945
0.130954
0.130963
0.130972
0.130982
0.130992
0.131002
0.131013
0.131024
0.131036
0.131047
0.131059
0.131071
0.131084
0.131096
0.131109
0.131122
0.131135
0.131148
0.131161
0.131175
0.131188
0.131202
0.131216
0.13123
0.131245
0.13126
0.131276
0.131291
0.131308
0.131325
0.131342
0.131361
0.13138
0.1314
0.131421
0.131443
0.131467
0.131492
0.131519
0.131547
0.131577
0.131608
0.131642
0.131678
0.131716
0.131756
0.131798
0.131843
0.13189
0.131939
0.13199
0.132044
0.1321
0.132157
0.132217
0.132277
0.13234
0.132402
0.132466
0.132529
0.132593
0.132656
0.132717
0.132777
0.132835
0.13289
0.132942
0.13299
0.133034
0.133073
0.133107
0.133136
0.133158
0.133173
0.133181
0.133184
0.133184
0.133183
0.133172
0.133147
0.133114
0.133074
0.133029
0.132977
0.13292
0.132859
0.132794
0.132726
0.132655
0.132583
0.13251
0.132437
0.132365
0.132294
0.132225
0.132159
0.132095
0.132035
0.131979
0.131926
0.131878
0.131834
0.131794
0.131758
0.131727
0.131699
0.131675
0.131655
0.131638
0.131623
0.131612
0.131603
0.131596
0.131591
0.131587
0.131585
0.131583
0.131582
0.131582
0.131582
0.131582
0.131582
0.131582
0.131582
0.131582
0.13158
0.131578
0.131575
0.13157
0.131565
0.131559
0.131552
0.131543
0.131534
0.131524
0.131513
0.131501
0.131489
0.131475
0.131461
0.131447
0.131431
0.131416
0.1314
0.131383
0.131366
0.131349
0.131332
0.131315
0.131297
0.13128
0.131263
0.131245
0.131228
0.131211
0.131194
0.131178
0.131162
0.131146
0.13113
0.131115
0.1311
0.131086
0.131072
0.131058
0.131045
0.131032
0.13102
0.131008
0.130996
0.130985
0.130975
0.130965
0.130955
0.130946
0.130937
0.130928
0.13092
0.130912
0.130904
0.130897
0.13089
0.130884
0.130878
0.130872
0.130866
0.130861
0.130856
0.130851
0.130847
0.130843
0.130839
0.130836
0.130833
0.13083
0.130828
0.130825
0.130824
0.130823
0.130822
0.130821
0.130821
0.130821
0.130821
0.130822
0.130824
0.130826
0.130829
0.130832
0.130836
0.130841
0.130846
0.130851
0.130857
0.130863
0.130871
0.130878
0.130886
0.130895
0.130904
0.130914
0.130924
0.130935
0.130946
0.130958
0.130971
0.130983
0.130997
0.131011
0.131025
0.13104
0.131056
0.131072
0.131088
0.131105
0.131123
0.131142
0.131161
0.131181
0.131201
0.131223
0.131245
0.131268
0.131293
0.131318
0.131345
0.131372
0.131401
0.131432
0.131463
0.131497
0.131531
0.131568
0.131606
0.131645
0.131686
0.131729
0.131774
0.13182
0.131868
0.131918
0.131969
0.132021
0.132075
0.13213
0.132186
0.132243
0.1323
0.132358
0.132416
0.132473
0.13253
0.132587
0.132642
0.132696
0.132748
0.132798
0.132845
0.13289
0.132931
0.132969
0.133002
0.133032
0.133057
0.133077
0.133092
0.133102
0.133106
0.133107
0.133107
0.133105
0.13309
0.133068
0.133041
0.133009
0.132972
0.132931
0.132886
0.132837
0.132786
0.132732
0.132677
0.13262
0.132562
0.132503
0.132445
0.132388
0.132332
0.132277
0.132223
0.132172
0.132124
0.132077
0.132034
0.131993
0.131956
0.131921
0.131889
0.13186
0.131833
0.13181
0.131789
0.13177
0.131753
0.131739
0.131726
0.131715
0.131705
0.131697
0.131689
0.131683
0.131677
0.131672
0.131667
0.131662
0.131658
0.131653
0.131649
0.131644
0.131638
0.131632
0.131626
0.13162
0.131612
0.131604
0.131596
0.131587
0.131577
0.131566
0.131555
0.131543
0.131531
0.131518
0.131505
0.131491
0.131477
0.131462
0.131446
0.131431
0.131415
0.131399
0.131382
0.131365
0.131348
0.131331
0.131314
0.131297
0.13128
0.131263
0.131245
0.131228
0.131212
0.131195
0.131178
0.131162
0.131146
0.13113
0.131115
0.1311
0.131086
0.131071
0.131058
0.131044
0.131031
0.131019
0.131007
0.130996
0.130985
0.130974
0.130964
0.130955
0.130946
0.130937
0.130929
0.130922
0.130915
0.130908
0.130902
0.130897
0.130892
0.130887
0.130882
0.130879
0.130875
0.130872
0.130869
0.130867
0.130865
0.130863
0.130862
0.130861
0.13086
0.13086
0.13086
0.13086
0.13086
0.130861
0.130863
0.130864
0.130867
0.130869
0.130872
0.130875
0.130879
0.130884
0.130888
0.130894
0.130899
0.130905
0.130912
0.13092
0.130927
0.130936
0.130945
0.130955
0.130965
0.130976
0.130988
0.131
0.131013
0.131028
0.131042
0.131058
0.131074
0.131091
0.131109
0.131129
0.131148
0.131169
0.131191
0.131214
0.131237
0.131262
0.131289
0.131315
0.131345
0.131371
0.131406
0.131432
0.131474
0.131497
0.131546
0.131567
0.131624
0.131643
0.131706
0.131725
0.131794
0.131812
0.131886
0.131905
0.131982
0.132002
0.132083
0.132103
0.132186
0.132207
0.132292
0.132314
0.132418
)
;

boundaryField
{
    inlet
    {
        type            calculated;
        value           uniform 0.194831;
    }
    outlet
    {
        type            calculated;
        value           uniform 0.13241;
    }
    emptyWalls
    {
        type            empty;
    }
}


// ************************************************************************* //
