/*--------------------------------*- C++ -*----------------------------------*\
  =========                 |
  \\      /  F ield         | OpenFOAM: The Open Source CFD Toolbox
   \\    /   O peration     | Website:  https://openfoam.org
    \\  /    A nd           | Version:  9
     \\/     M anipulation  |
\*---------------------------------------------------------------------------*/
FoamFile
{
    format      ascii;
    class       volScalarField;
    location    "3350";
    object      Sb;
}
// * * * * * * * * * * * * * * * * * * * * * * * * * * * * * * * * * * * * * //

dimensions      [0 0 0 0 0 0 0];

internalField   nonuniform List<scalar> 
1000
(
0.351677
0.358012
0.364468
0.386307
0.516351
0.651496
0.67366
0.679793
0.682077
0.68287
0.682808
0.68129
0.676863
0.670944
0.664693
0.658417
0.652254
0.646257
0.640448
0.634833
0.629406
0.624161
0.619089
0.61418
0.609426
0.604818
0.600347
0.596004
0.591782
0.587676
0.583678
0.579782
0.575983
0.572276
0.568655
0.565116
0.561655
0.558267
0.554948
0.551696
0.548507
0.545378
0.542307
0.53929
0.536325
0.53341
0.530542
0.52772
0.524943
0.522207
0.519513
0.516857
0.514239
0.511657
0.509109
0.506593
0.504109
0.501655
0.499229
0.496829
0.494455
0.492105
0.489779
0.487476
0.485195
0.482935
0.480696
0.478477
0.476278
0.474099
0.471938
0.469797
0.467673
0.465567
0.463478
0.461406
0.459351
0.457312
0.455288
0.453278
0.451283
0.4493
0.447328
0.445367
0.443416
0.441471
0.439534
0.437602
0.435675
0.433751
0.43183
0.429911
0.427993
0.426076
0.42416
0.422244
0.420328
0.418412
0.416495
0.414577
0.412657
0.410735
0.408811
0.406883
0.404952
0.403015
0.401073
0.399124
0.397169
0.395205
0.393232
0.391249
0.389256
0.387252
0.385236
0.383208
0.381168
0.379117
0.377057
0.374993
0.372929
0.370872
0.36883
0.366812
0.364821
0.362852
0.360873
0.358804
0.356477
0.353583
0.3496
0.343747
0.335073
0.322873
0.307476
0.290819
0.27575
0.264312
0.256813
0.252388
0.249948
0.248654
0.247984
0.247642
0.247468
0.24738
0.247336
0.247314
0.247303
0.247298
0.247295
0.247294
0.247293
0.247293
0.247293
0.247293
0.247293
0.247293
0.247293
0.247293
0.247293
0.247293
0.247293
0.247293
0.247293
0.247293
0.247293
0.247293
0.247294
0.247294
0.247294
0.247294
0.247294
0.247294
0.247294
0.247294
0.247295
0.247295
0.247295
0.247295
0.247295
0.247296
0.247296
0.247296
0.247296
0.247296
0.247296
0.247297
0.247297
0.247297
0.247297
0.247297
0.247297
0.247297
0.247298
0.247298
0.247298
0.247298
0.247298
0.247298
0.247298
0.247298
0.247298
0.247298
0.247298
0.247298
0.247298
0.247298
0.247298
0.247298
0.247298
0.247297
0.247297
0.247297
0.247297
0.247297
0.247296
0.247296
0.247296
0.247296
0.247295
0.247295
0.247295
0.247294
0.247294
0.247294
0.247293
0.247293
0.247292
0.247292
0.247292
0.247291
0.247291
0.24729
0.24729
0.24729
0.247289
0.247289
0.247288
0.247288
0.247288
0.247287
0.247287
0.247286
0.247286
0.247286
0.247285
0.247285
0.247284
0.247284
0.247283
0.247282
0.247282
0.247281
0.24728
0.247279
0.247278
0.247277
0.247276
0.247275
0.247273
0.247272
0.24727
0.247269
0.247267
0.247265
0.247263
0.247261
0.24726
0.247258
0.247256
0.247254
0.247252
0.247251
0.247249
0.247248
0.247246
0.247245
0.247244
0.247244
0.247243
0.247243
0.247243
0.247243
0.247243
0.247244
0.247246
0.247247
0.247249
0.247252
0.247254
0.247256
0.247259
0.247262
0.247264
0.247267
0.24727
0.247272
0.247274
0.247277
0.247278
0.24728
0.247282
0.247283
0.247284
0.247285
0.247285
0.247286
0.247286
0.247286
0.247286
0.247286
0.247287
0.247286
0.247286
0.247286
0.247285
0.247285
0.247285
0.247284
0.247284
0.247284
0.247283
0.247283
0.247283
0.247283
0.247282
0.247282
0.247282
0.247282
0.247282
0.247282
0.247282
0.247282
0.247282
0.247282
0.247282
0.247283
0.247283
0.247283
0.247283
0.247283
0.247283
0.247283
0.247284
0.247284
0.247284
0.247284
0.247284
0.247284
0.247284
0.247285
0.247285
0.247285
0.247285
0.247285
0.247285
0.247286
0.247286
0.247286
0.247286
0.247286
0.247286
0.247286
0.247287
0.247287
0.247287
0.247287
0.247287
0.247287
0.247287
0.247287
0.247287
0.247287
0.247287
0.247287
0.247287
0.247287
0.247287
0.247287
0.247287
0.247287
0.247287
0.247287
0.247287
0.247287
0.247287
0.247287
0.247286
0.247286
0.247286
0.247286
0.247286
0.247286
0.247286
0.247286
0.247286
0.247286
0.247286
0.247286
0.247286
0.247286
0.247286
0.247286
0.247286
0.247286
0.247286
0.247286
0.247286
0.247286
0.247287
0.247287
0.247287
0.247287
0.247287
0.247287
0.247287
0.247287
0.247287
0.247287
0.247287
0.247287
0.247287
0.247287
0.247287
0.247287
0.247288
0.247288
0.247288
0.247288
0.247288
0.247288
0.247288
0.247288
0.247288
0.247288
0.247288
0.247288
0.247288
0.247288
0.247288
0.247288
0.247287
0.247287
0.247287
0.247287
0.247287
0.247287
0.247287
0.247287
0.247286
0.247286
0.247286
0.247285
0.247285
0.247285
0.247284
0.247284
0.247283
0.247283
0.247282
0.247282
0.247281
0.24728
0.247279
0.247279
0.247278
0.247277
0.247276
0.247275
0.247273
0.247272
0.247271
0.24727
0.247269
0.247267
0.247266
0.247265
0.247263
0.247262
0.247261
0.24726
0.247259
0.247258
0.247257
0.247256
0.247256
0.247255
0.247255
0.247255
0.247255
0.247255
0.247255
0.247256
0.247257
0.247259
0.247261
0.247263
0.247265
0.247267
0.24727
0.247273
0.247275
0.247278
0.247281
0.247284
0.247287
0.247289
0.247292
0.247294
0.247296
0.247298
0.2473
0.247301
0.247302
0.247303
0.247304
0.247304
0.247305
0.247305
0.247305
0.247305
0.247305
0.247305
0.247304
0.247304
0.247303
0.247303
0.247302
0.247302
0.247301
0.2473
0.2473
0.247299
0.247299
0.247298
0.247298
0.247297
0.247297
0.247296
0.247296
0.247296
0.247296
0.247295
0.247295
0.247295
0.247295
0.247295
0.247295
0.247295
0.247295
0.247295
0.247298
0.247307
0.247444
0.248141
0.24974
0.249995
0.25
0.25
0.25
0.25
0.25
0.25
0.25
0.25
0.25
0.25
0.25
0.25
0.25
0.25
0.25
0.25
0.25
0.25
0.25
0.25
0.25
0.25
0.25
0.25
0.25
0.25
0.25
0.25
0.25
0.25
0.25
0.25
0.25
0.25
0.25
0.25
0.25
0.25
0.25
0.25
0.25
0.25
0.25
0.25
0.25
0.25
0.25
0.25
0.25
0.25
0.25
0.25
0.25
0.25
0.25
0.25
0.25
0.25
0.25
0.25
0.25
0.25
0.25
0.25
0.25
0.25
0.25
0.25
0.25
0.25
0.25
0.25
0.25
0.25
0.25
0.25
0.25
0.25
0.25
0.25
0.25
0.25
0.25
0.25
0.25
0.25
0.25
0.25
0.25
0.25
0.25
0.25
0.25
0.25
0.25
0.25
0.25
0.25
0.25
0.25
0.25
0.25
0.25
0.25
0.25
0.25
0.25
0.25
0.25
0.25
0.25
0.25
0.25
0.25
0.25
0.25
0.25
0.25
0.25
0.25
0.25
0.25
0.25
0.25
0.25
0.25
0.25
0.25
0.25
0.25
0.25
0.25
0.25
0.25
0.25
0.25
0.25
0.25
0.25
0.25
0.25
0.25
0.25
0.25
0.25
0.25
0.25
0.25
0.25
0.25
0.25
0.25
0.25
0.25
0.25
0.25
0.25
0.25
0.25
0.25
0.25
0.25
0.25
0.25
0.25
0.25
0.25
0.25
0.25
0.25
0.25
0.25
0.25
0.25
0.25
0.25
0.25
0.25
0.25
0.25
0.25
0.25
0.25
0.25
0.25
0.25
0.25
0.25
0.25
0.25
0.25
0.25
0.25
0.25
0.25
0.25
0.25
0.25
0.25
0.25
0.25
0.25
0.25
0.25
0.25
0.25
0.25
0.25
0.25
0.25
0.25
0.25
0.25
0.25
0.25
0.25
0.25
0.25
0.25
0.25
0.25
0.25
0.25
0.25
0.25
0.25
0.25
0.25
0.25
0.25
0.25
0.25
0.25
0.25
0.25
0.25
0.25
0.25
0.25
0.25
0.25
0.25
0.25
0.25
0.25
0.25
0.25
0.25
0.25
0.25
0.25
0.25
0.25
0.25
0.25
0.25
0.25
0.25
0.25
0.25
0.25
0.25
0.25
0.25
0.25
0.25
0.25
0.25
0.25
0.25
0.25
0.25
0.25
0.25
0.25
0.25
0.25
0.25
0.25
0.25
0.25
0.25
0.25
0.25
0.25
0.25
0.25
0.25
0.25
0.25
0.25
0.25
0.25
0.25
0.25
0.25
0.25
0.25
0.25
0.25
0.25
0.25
0.25
0.25
0.25
0.25
0.25
0.25
0.25
0.25
0.25
0.25
0.25
0.25
0.25
0.25
0.25
0.25
0.25
0.25
0.25
0.25
0.25
0.25
0.25
0.25
0.25
0.25
0.25
0.25
0.25
0.25
0.25
0.25
0.25
0.25
0.25
0.25
0.25
0.25
0.25
0.25
0.25
0.25
0.25
0.25
0.25
0.25
0.25
0.25
0.25
0.25
0.25
0.25
0.25
0.25
0.25
0.25
0.25
0.25
0.25
0.25
0.25
0.25
0.25
0.25
0.25
0.25
0.25
0.25
0.25
0.25
0.25
0.25
0.25
0.25
0.25
0.25
0.25
0.25
0.25
0.25
0.25
0.25
0.25
0.25
0.25
0.25
0.25
0.25
0.25
0.25
0.25
0.25
0.25
0.25
0.25
0.25
0.25
0.25
0.25
0.25
0.25
0.25
0.25
0.25
0.25
0.25
0.25
0.25
0.25
0.25
0.25
0.25
0.25
0.25
0.25
0.25
0.25
0.25
0.25
0.25
0.25
0.25
0.25
0.25
0.25
0.25
0.25
0.25
0.25
0.25
0.25
0.25
0.25
0.25
0.25
0.25
0.25
0.25
0.25
0.25
)
;

boundaryField
{
    inlet
    {
        type            fixedValue;
        value           uniform 0.35;
    }
    outlet
    {
        type            zeroGradient;
    }
    emptyWalls
    {
        type            empty;
    }
}


// ************************************************************************* //
