/*--------------------------------*- C++ -*----------------------------------*\
  =========                 |
  \\      /  F ield         | OpenFOAM: The Open Source CFD Toolbox
   \\    /   O peration     | Website:  https://openfoam.org
    \\  /    A nd           | Version:  9
     \\/     M anipulation  |
\*---------------------------------------------------------------------------*/
FoamFile
{
    format      ascii;
    class       surfaceScalarField;
    location    "3500";
    object      phib;
}
// * * * * * * * * * * * * * * * * * * * * * * * * * * * * * * * * * * * * * //

dimensions      [0 2 0 0 0 0 0];

internalField   nonuniform List<scalar> 
999
(
1.13604e-09
1.13645e-09
1.13737e-09
1.1411e-09
1.16799e-09
1.17638e-09
1.17855e-09
1.17944e-09
1.17988e-09
1.18007e-09
1.18009e-09
1.17973e-09
1.17835e-09
1.1763e-09
1.17397e-09
1.17147e-09
1.16887e-09
1.16618e-09
1.16342e-09
1.16061e-09
1.15776e-09
1.15487e-09
1.15195e-09
1.149e-09
1.14602e-09
1.14301e-09
1.13997e-09
1.13691e-09
1.13383e-09
1.13072e-09
1.12758e-09
1.12443e-09
1.12125e-09
1.11805e-09
1.11483e-09
1.11159e-09
1.10832e-09
1.10504e-09
1.10173e-09
1.0984e-09
1.09505e-09
1.09169e-09
1.0883e-09
1.0849e-09
1.08147e-09
1.07803e-09
1.07457e-09
1.07109e-09
1.06759e-09
1.06407e-09
1.06054e-09
1.05699e-09
1.05342e-09
1.04983e-09
1.04623e-09
1.04261e-09
1.03897e-09
1.03531e-09
1.03164e-09
1.02795e-09
1.02425e-09
1.02053e-09
1.01679e-09
1.01303e-09
1.00926e-09
1.00546e-09
1.00165e-09
9.97805e-10
9.93941e-10
9.90051e-10
9.86135e-10
9.82192e-10
9.7822e-10
9.74219e-10
9.70189e-10
9.66128e-10
9.62036e-10
9.57914e-10
9.53763e-10
9.49582e-10
9.45374e-10
9.41138e-10
9.36875e-10
9.32586e-10
9.28269e-10
9.23925e-10
9.1955e-10
9.15143e-10
9.107e-10
9.06217e-10
9.01693e-10
8.97123e-10
8.92505e-10
8.87836e-10
8.83114e-10
8.78339e-10
8.73509e-10
8.68626e-10
8.63689e-10
8.58701e-10
8.53663e-10
8.48576e-10
8.43444e-10
8.38267e-10
8.33049e-10
8.27792e-10
8.22497e-10
8.17168e-10
8.11806e-10
8.06412e-10
8.00987e-10
7.95533e-10
7.90049e-10
7.84533e-10
7.78982e-10
7.73393e-10
7.67758e-10
7.62073e-10
7.56328e-10
7.50515e-10
7.44625e-10
7.38653e-10
7.32592e-10
7.26444e-10
7.20212e-10
7.13909e-10
7.07553e-10
7.01169e-10
6.94786e-10
6.8843e-10
6.82099e-10
6.7573e-10
6.69129e-10
6.61867e-10
6.53111e-10
6.41379e-10
6.24298e-10
5.98568e-10
5.60754e-10
5.09571e-10
4.49023e-10
3.88761e-10
3.38904e-10
3.03969e-10
2.82405e-10
2.7017e-10
2.63571e-10
2.60112e-10
2.58328e-10
2.57416e-10
2.56952e-10
2.56716e-10
2.56598e-10
2.56539e-10
2.56509e-10
2.56495e-10
2.5649e-10
2.56489e-10
2.5649e-10
2.56493e-10
2.56496e-10
2.56499e-10
2.56502e-10
2.56505e-10
2.56509e-10
2.56512e-10
2.56516e-10
2.56519e-10
2.56522e-10
2.56525e-10
2.56528e-10
2.5653e-10
2.56533e-10
2.56535e-10
2.56538e-10
2.5654e-10
2.56541e-10
2.56543e-10
2.56545e-10
2.56546e-10
2.56547e-10
2.56549e-10
2.5655e-10
2.56551e-10
2.56552e-10
2.56552e-10
2.56553e-10
2.56554e-10
2.56554e-10
2.56555e-10
2.56555e-10
2.56556e-10
2.56556e-10
2.56556e-10
2.56556e-10
2.56557e-10
2.56557e-10
2.56558e-10
2.56559e-10
2.56559e-10
2.5656e-10
2.56561e-10
2.56562e-10
2.56563e-10
2.56565e-10
2.56567e-10
2.56568e-10
2.56571e-10
2.56573e-10
2.56575e-10
2.56578e-10
2.5658e-10
2.56583e-10
2.56586e-10
2.5659e-10
2.56593e-10
2.56597e-10
2.56601e-10
2.56605e-10
2.56609e-10
2.56613e-10
2.56617e-10
2.56622e-10
2.56626e-10
2.5663e-10
2.56634e-10
2.56638e-10
2.56642e-10
2.56646e-10
2.5665e-10
2.56653e-10
2.56657e-10
2.5666e-10
2.56663e-10
2.56666e-10
2.56668e-10
2.5667e-10
2.56672e-10
2.56674e-10
2.56675e-10
2.56676e-10
2.56676e-10
2.56676e-10
2.56676e-10
2.56675e-10
2.56675e-10
2.56674e-10
2.56672e-10
2.5667e-10
2.56667e-10
2.56664e-10
2.56661e-10
2.56657e-10
2.56653e-10
2.56649e-10
2.56645e-10
2.5664e-10
2.56635e-10
2.5663e-10
2.56625e-10
2.5662e-10
2.56615e-10
2.56609e-10
2.56604e-10
2.56599e-10
2.56593e-10
2.56588e-10
2.56583e-10
2.56578e-10
2.56573e-10
2.56568e-10
2.56563e-10
2.56559e-10
2.56554e-10
2.5655e-10
2.56546e-10
2.56542e-10
2.56538e-10
2.56534e-10
2.5653e-10
2.56526e-10
2.56522e-10
2.56519e-10
2.56515e-10
2.56511e-10
2.56507e-10
2.56502e-10
2.56497e-10
2.56491e-10
2.56485e-10
2.56477e-10
2.56468e-10
2.56458e-10
2.56447e-10
2.56434e-10
2.56419e-10
2.56402e-10
2.56383e-10
2.56362e-10
2.56339e-10
2.56313e-10
2.56285e-10
2.56255e-10
2.56223e-10
2.56188e-10
2.56152e-10
2.56113e-10
2.56074e-10
2.56032e-10
2.5599e-10
2.55947e-10
2.55904e-10
2.55862e-10
2.5582e-10
2.55779e-10
2.5574e-10
2.55703e-10
2.5567e-10
2.5564e-10
2.55615e-10
2.55594e-10
2.55579e-10
2.5557e-10
2.55566e-10
2.55566e-10
2.55566e-10
2.55573e-10
2.55596e-10
2.55627e-10
2.55665e-10
2.55709e-10
2.55759e-10
2.55814e-10
2.55873e-10
2.55935e-10
2.55998e-10
2.56063e-10
2.56126e-10
2.56189e-10
2.56248e-10
2.56305e-10
2.56357e-10
2.56405e-10
2.56448e-10
2.56487e-10
2.56519e-10
2.56547e-10
2.5657e-10
2.56588e-10
2.56602e-10
2.56611e-10
2.56617e-10
2.5662e-10
2.5662e-10
2.5662e-10
2.56619e-10
2.56612e-10
2.56604e-10
2.56595e-10
2.56585e-10
2.56575e-10
2.56566e-10
2.56557e-10
2.56548e-10
2.56539e-10
2.56532e-10
2.56525e-10
2.56519e-10
2.56514e-10
2.56509e-10
2.56505e-10
2.56503e-10
2.56501e-10
2.56499e-10
2.56499e-10
2.56498e-10
2.56498e-10
2.56498e-10
2.565e-10
2.56502e-10
2.56504e-10
2.56507e-10
2.5651e-10
2.56513e-10
2.56516e-10
2.5652e-10
2.56524e-10
2.56527e-10
2.56531e-10
2.56535e-10
2.56539e-10
2.56543e-10
2.56548e-10
2.56552e-10
2.56556e-10
2.5656e-10
2.56565e-10
2.56569e-10
2.56573e-10
2.56577e-10
2.56581e-10
2.56585e-10
2.5659e-10
2.56594e-10
2.56598e-10
2.56602e-10
2.56606e-10
2.5661e-10
2.56614e-10
2.56618e-10
2.56621e-10
2.56624e-10
2.56627e-10
2.5663e-10
2.56632e-10
2.56634e-10
2.56637e-10
2.56638e-10
2.5664e-10
2.56641e-10
2.56642e-10
2.56642e-10
2.56642e-10
2.56642e-10
2.56642e-10
2.56641e-10
2.5664e-10
2.56638e-10
2.56636e-10
2.56635e-10
2.56633e-10
2.5663e-10
2.56628e-10
2.56625e-10
2.56622e-10
2.56618e-10
2.56615e-10
2.56612e-10
2.56608e-10
2.56605e-10
2.56602e-10
2.56599e-10
2.56595e-10
2.56592e-10
2.56589e-10
2.56586e-10
2.56583e-10
2.56581e-10
2.56579e-10
2.56577e-10
2.56575e-10
2.56574e-10
2.56573e-10
2.56572e-10
2.56571e-10
2.56571e-10
2.56571e-10
2.56571e-10
2.56571e-10
2.56572e-10
2.56573e-10
2.56575e-10
2.56576e-10
2.56578e-10
2.5658e-10
2.56582e-10
2.56584e-10
2.56587e-10
2.56589e-10
2.56591e-10
2.56594e-10
2.56596e-10
2.56598e-10
2.566e-10
2.56602e-10
2.56603e-10
2.56605e-10
2.56606e-10
2.56607e-10
2.56607e-10
2.56607e-10
2.56607e-10
2.56607e-10
2.56607e-10
2.56606e-10
2.56604e-10
2.56602e-10
2.56599e-10
2.56596e-10
2.56593e-10
2.56589e-10
2.56584e-10
2.56579e-10
2.56573e-10
2.56566e-10
2.56558e-10
2.5655e-10
2.56541e-10
2.5653e-10
2.56519e-10
2.56507e-10
2.56494e-10
2.56479e-10
2.56463e-10
2.56446e-10
2.56427e-10
2.56407e-10
2.56386e-10
2.56363e-10
2.56339e-10
2.56314e-10
2.56288e-10
2.5626e-10
2.56232e-10
2.56202e-10
2.56171e-10
2.5614e-10
2.56109e-10
2.56077e-10
2.56046e-10
2.56014e-10
2.55984e-10
2.55955e-10
2.55927e-10
2.55901e-10
2.55877e-10
2.55857e-10
2.55839e-10
2.55825e-10
2.55816e-10
2.55812e-10
2.55811e-10
2.55811e-10
2.55814e-10
2.55827e-10
2.55849e-10
2.55879e-10
2.55915e-10
2.55958e-10
2.56006e-10
2.56061e-10
2.56119e-10
2.56182e-10
2.56248e-10
2.56317e-10
2.56386e-10
2.56456e-10
2.56525e-10
2.56592e-10
2.56656e-10
2.56717e-10
2.56774e-10
2.56826e-10
2.56874e-10
2.56916e-10
2.56953e-10
2.56984e-10
2.5701e-10
2.57031e-10
2.57047e-10
2.57059e-10
2.57066e-10
2.5707e-10
2.57071e-10
2.57071e-10
2.5707e-10
2.57062e-10
2.57052e-10
2.57041e-10
2.57026e-10
2.57011e-10
2.57001e-10
2.56985e-10
2.56965e-10
2.56956e-10
2.56954e-10
2.57038e-10
2.57377e-10
2.59689e-10
2.84791e-10
2.9632e-10
2.9672e-10
2.96726e-10
2.96727e-10
2.96727e-10
2.96727e-10
2.96727e-10
2.96727e-10
2.96727e-10
2.96727e-10
2.96727e-10
2.96727e-10
2.96727e-10
2.96727e-10
2.96727e-10
2.96727e-10
2.96727e-10
2.96727e-10
2.96727e-10
2.96727e-10
2.96727e-10
2.96727e-10
2.96727e-10
2.96727e-10
2.96727e-10
2.96727e-10
2.96727e-10
2.96727e-10
2.96727e-10
2.96727e-10
2.96727e-10
2.96727e-10
2.96727e-10
2.96727e-10
2.96727e-10
2.96727e-10
2.96727e-10
2.96727e-10
2.96727e-10
2.96727e-10
2.96727e-10
2.96727e-10
2.96727e-10
2.96727e-10
2.96727e-10
2.96727e-10
2.96727e-10
2.96727e-10
2.96727e-10
2.96727e-10
2.96727e-10
2.96727e-10
2.96727e-10
2.96727e-10
2.96727e-10
2.96727e-10
2.96727e-10
2.96727e-10
2.96727e-10
2.96727e-10
2.96727e-10
2.96727e-10
2.96727e-10
2.96727e-10
2.96727e-10
2.96727e-10
2.96727e-10
2.96727e-10
2.96727e-10
2.96727e-10
2.96727e-10
2.96727e-10
2.96727e-10
2.96727e-10
2.96727e-10
2.96727e-10
2.96727e-10
2.96727e-10
2.96727e-10
2.96727e-10
2.96727e-10
2.96727e-10
2.96727e-10
2.96727e-10
2.96727e-10
2.96727e-10
2.96727e-10
2.96727e-10
2.96727e-10
2.96727e-10
2.96727e-10
2.96727e-10
2.96727e-10
2.96727e-10
2.96727e-10
2.96727e-10
2.96727e-10
2.96727e-10
2.96727e-10
2.96727e-10
2.96727e-10
2.96727e-10
2.96727e-10
2.96727e-10
2.96727e-10
2.96727e-10
2.96727e-10
2.96727e-10
2.96727e-10
2.96727e-10
2.96727e-10
2.96727e-10
2.96727e-10
2.96727e-10
2.96727e-10
2.96727e-10
2.96727e-10
2.96727e-10
2.96727e-10
2.96727e-10
2.96727e-10
2.96727e-10
2.96727e-10
2.96727e-10
2.96727e-10
2.96727e-10
2.96727e-10
2.96727e-10
2.96727e-10
2.96727e-10
2.96727e-10
2.96727e-10
2.96727e-10
2.96727e-10
2.96727e-10
2.96727e-10
2.96727e-10
2.96727e-10
2.96727e-10
2.96727e-10
2.96727e-10
2.96727e-10
2.96727e-10
2.96727e-10
2.96727e-10
2.96727e-10
2.96727e-10
2.96727e-10
2.96727e-10
2.96727e-10
2.96727e-10
2.96727e-10
2.96727e-10
2.96727e-10
2.96727e-10
2.96727e-10
2.96727e-10
2.96727e-10
2.96727e-10
2.96727e-10
2.96727e-10
2.96727e-10
2.96727e-10
2.96727e-10
2.96727e-10
2.96727e-10
2.96727e-10
2.96727e-10
2.96727e-10
2.96727e-10
2.96727e-10
2.96727e-10
2.96727e-10
2.96727e-10
2.96727e-10
2.96727e-10
2.96727e-10
2.96727e-10
2.96727e-10
2.96727e-10
2.96727e-10
2.96727e-10
2.96727e-10
2.96727e-10
2.96727e-10
2.96727e-10
2.96727e-10
2.96727e-10
2.96727e-10
2.96727e-10
2.96727e-10
2.96727e-10
2.96727e-10
2.96727e-10
2.96727e-10
2.96727e-10
2.96727e-10
2.96727e-10
2.96727e-10
2.96727e-10
2.96727e-10
2.96727e-10
2.96727e-10
2.96727e-10
2.96727e-10
2.96727e-10
2.96727e-10
2.96727e-10
2.96727e-10
2.96727e-10
2.96727e-10
2.96727e-10
2.96727e-10
2.96727e-10
2.96727e-10
2.96727e-10
2.96727e-10
2.96727e-10
2.96727e-10
2.96727e-10
2.96727e-10
2.96727e-10
2.96727e-10
2.96727e-10
2.96727e-10
2.96727e-10
2.96727e-10
2.96727e-10
2.96727e-10
2.96727e-10
2.96727e-10
2.96727e-10
2.96727e-10
2.96727e-10
2.96727e-10
2.96727e-10
2.96727e-10
2.96727e-10
2.96727e-10
2.96727e-10
2.96727e-10
2.96727e-10
2.96727e-10
2.96727e-10
2.96727e-10
2.96727e-10
2.96727e-10
2.96727e-10
2.96727e-10
2.96727e-10
2.96727e-10
2.96727e-10
2.96727e-10
2.96727e-10
2.96727e-10
2.96727e-10
2.96727e-10
2.96727e-10
2.96727e-10
2.96727e-10
2.96727e-10
2.96727e-10
2.96727e-10
2.96727e-10
2.96727e-10
2.96727e-10
2.96727e-10
2.96727e-10
2.96727e-10
2.96727e-10
2.96727e-10
2.96727e-10
2.96727e-10
2.96727e-10
2.96727e-10
2.96727e-10
2.96727e-10
2.96727e-10
2.96727e-10
2.96727e-10
2.96727e-10
2.96727e-10
2.96727e-10
2.96727e-10
2.96727e-10
2.96727e-10
2.96727e-10
2.96727e-10
2.96727e-10
2.96727e-10
2.96727e-10
2.96727e-10
2.96727e-10
2.96727e-10
2.96727e-10
2.96727e-10
2.96727e-10
2.96727e-10
2.96727e-10
2.96727e-10
2.96727e-10
2.96727e-10
2.96727e-10
2.96727e-10
2.96727e-10
2.96727e-10
2.96727e-10
2.96727e-10
2.96727e-10
2.96727e-10
2.96727e-10
2.96727e-10
2.96727e-10
2.96727e-10
2.96727e-10
2.96727e-10
2.96727e-10
2.96727e-10
2.96727e-10
2.96727e-10
2.96727e-10
2.96727e-10
2.96727e-10
2.96727e-10
2.96727e-10
2.96727e-10
2.96727e-10
2.96727e-10
2.96727e-10
2.96727e-10
2.96727e-10
2.96727e-10
2.96727e-10
2.96727e-10
2.96727e-10
2.96727e-10
2.96727e-10
2.96727e-10
2.96727e-10
2.96727e-10
2.96727e-10
2.96727e-10
2.96727e-10
2.96727e-10
2.96727e-10
2.96727e-10
2.96727e-10
2.96727e-10
2.96727e-10
2.96727e-10
2.96727e-10
2.96727e-10
2.96727e-10
2.96727e-10
2.96727e-10
2.96727e-10
2.96727e-10
2.96727e-10
2.96727e-10
2.96727e-10
2.96727e-10
2.96727e-10
2.96727e-10
2.96727e-10
2.96727e-10
2.96727e-10
2.96727e-10
2.96727e-10
2.96727e-10
2.96727e-10
2.96727e-10
2.96727e-10
2.96727e-10
2.96727e-10
2.96727e-10
2.96727e-10
2.96727e-10
2.96727e-10
2.96727e-10
2.96727e-10
2.96727e-10
2.96727e-10
2.96727e-10
2.96727e-10
2.96727e-10
2.96727e-10
2.96727e-10
2.96727e-10
2.96727e-10
2.96727e-10
2.96727e-10
2.96727e-10
2.96727e-10
2.96727e-10
2.96727e-10
2.96727e-10
2.96727e-10
2.96727e-10
2.96727e-10
2.96727e-10
2.96727e-10
2.96727e-10
2.96727e-10
2.96727e-10
2.96727e-10
2.96727e-10
2.96727e-10
2.96727e-10
2.96727e-10
2.96727e-10
2.96727e-10
2.96727e-10
2.96727e-10
2.96727e-10
2.96727e-10
2.96727e-10
2.96727e-10
2.96727e-10
2.96727e-10
)
;

boundaryField
{
    inlet
    {
        type            calculated;
        value           uniform -1.13622e-09;
    }
    outlet
    {
        type            calculated;
        value           uniform 2.96727e-10;
    }
    emptyWalls
    {
        type            empty;
        value           nonuniform List<scalar> 0();
    }
}


// ************************************************************************* //
