/*--------------------------------*- C++ -*----------------------------------*\
  =========                 |
  \\      /  F ield         | OpenFOAM: The Open Source CFD Toolbox
   \\    /   O peration     | Website:  https://openfoam.org
    \\  /    A nd           | Version:  9
     \\/     M anipulation  |
\*---------------------------------------------------------------------------*/
FoamFile
{
    format      ascii;
    class       volVectorField;
    location    "3500";
    object      Ub;
}
// * * * * * * * * * * * * * * * * * * * * * * * * * * * * * * * * * * * * * //

dimensions      [0 0 0 0 0 0 0];

internalField   nonuniform List<vector> 
1000
(
(1.13611e-05 0 0)
(1.13625e-05 0 0)
(1.13691e-05 0 0)
(1.13924e-05 0 0)
(1.15454e-05 0 0)
(1.17218e-05 0 0)
(1.17747e-05 0 0)
(1.179e-05 0 0)
(1.17966e-05 0 0)
(1.17997e-05 0 0)
(1.18008e-05 0 0)
(1.17991e-05 0 0)
(1.17904e-05 0 0)
(1.17732e-05 0 0)
(1.17513e-05 0 0)
(1.17272e-05 0 0)
(1.17017e-05 0 0)
(1.16752e-05 0 0)
(1.1648e-05 0 0)
(1.16202e-05 0 0)
(1.15919e-05 0 0)
(1.15632e-05 0 0)
(1.15341e-05 0 0)
(1.15047e-05 0 0)
(1.14751e-05 0 0)
(1.14451e-05 0 0)
(1.14149e-05 0 0)
(1.13844e-05 0 0)
(1.13537e-05 0 0)
(1.13227e-05 0 0)
(1.12915e-05 0 0)
(1.12601e-05 0 0)
(1.12284e-05 0 0)
(1.11965e-05 0 0)
(1.11644e-05 0 0)
(1.11321e-05 0 0)
(1.10995e-05 0 0)
(1.10668e-05 0 0)
(1.10338e-05 0 0)
(1.10007e-05 0 0)
(1.09673e-05 0 0)
(1.09337e-05 0 0)
(1.08999e-05 0 0)
(1.0866e-05 0 0)
(1.08318e-05 0 0)
(1.07975e-05 0 0)
(1.0763e-05 0 0)
(1.07283e-05 0 0)
(1.06934e-05 0 0)
(1.06583e-05 0 0)
(1.06231e-05 0 0)
(1.05876e-05 0 0)
(1.0552e-05 0 0)
(1.05163e-05 0 0)
(1.04803e-05 0 0)
(1.04442e-05 0 0)
(1.04079e-05 0 0)
(1.03714e-05 0 0)
(1.03348e-05 0 0)
(1.0298e-05 0 0)
(1.0261e-05 0 0)
(1.02239e-05 0 0)
(1.01866e-05 0 0)
(1.01491e-05 0 0)
(1.01115e-05 0 0)
(1.00736e-05 0 0)
(1.00355e-05 0 0)
(9.99725e-06 0 0)
(9.95873e-06 0 0)
(9.91996e-06 0 0)
(9.88093e-06 0 0)
(9.84163e-06 0 0)
(9.80206e-06 0 0)
(9.7622e-06 0 0)
(9.72204e-06 0 0)
(9.68158e-06 0 0)
(9.64082e-06 0 0)
(9.59975e-06 0 0)
(9.55839e-06 0 0)
(9.51673e-06 0 0)
(9.47478e-06 0 0)
(9.43256e-06 0 0)
(9.39006e-06 0 0)
(9.3473e-06 0 0)
(9.30427e-06 0 0)
(9.26097e-06 0 0)
(9.21737e-06 0 0)
(9.17346e-06 0 0)
(9.12921e-06 0 0)
(9.08458e-06 0 0)
(9.03955e-06 0 0)
(8.99408e-06 0 0)
(8.94814e-06 0 0)
(8.90171e-06 0 0)
(8.85475e-06 0 0)
(8.80727e-06 0 0)
(8.75924e-06 0 0)
(8.71068e-06 0 0)
(8.66157e-06 0 0)
(8.61195e-06 0 0)
(8.56182e-06 0 0)
(8.51119e-06 0 0)
(8.4601e-06 0 0)
(8.40855e-06 0 0)
(8.35658e-06 0 0)
(8.3042e-06 0 0)
(8.25145e-06 0 0)
(8.19833e-06 0 0)
(8.14487e-06 0 0)
(8.09109e-06 0 0)
(8.037e-06 0 0)
(7.9826e-06 0 0)
(7.92791e-06 0 0)
(7.87291e-06 0 0)
(7.81758e-06 0 0)
(7.76187e-06 0 0)
(7.70576e-06 0 0)
(7.64916e-06 0 0)
(7.592e-06 0 0)
(7.53422e-06 0 0)
(7.4757e-06 0 0)
(7.41639e-06 0 0)
(7.35622e-06 0 0)
(7.29518e-06 0 0)
(7.23328e-06 0 0)
(7.17061e-06 0 0)
(7.10731e-06 0 0)
(7.04361e-06 0 0)
(6.97978e-06 0 0)
(6.91608e-06 0 0)
(6.85265e-06 0 0)
(6.78914e-06 0 0)
(6.72429e-06 0 0)
(6.65498e-06 0 0)
(6.57489e-06 0 0)
(6.47245e-06 0 0)
(6.32839e-06 0 0)
(6.11433e-06 0 0)
(5.79661e-06 0 0)
(5.35162e-06 0 0)
(4.79297e-06 0 0)
(4.18892e-06 0 0)
(3.63833e-06 0 0)
(3.21436e-06 0 0)
(2.93187e-06 0 0)
(2.76287e-06 0 0)
(2.66871e-06 0 0)
(2.61842e-06 0 0)
(2.5922e-06 0 0)
(2.57872e-06 0 0)
(2.57184e-06 0 0)
(2.56834e-06 0 0)
(2.56657e-06 0 0)
(2.56568e-06 0 0)
(2.56524e-06 0 0)
(2.56502e-06 0 0)
(2.56493e-06 0 0)
(2.5649e-06 0 0)
(2.5649e-06 0 0)
(2.56492e-06 0 0)
(2.56494e-06 0 0)
(2.56497e-06 0 0)
(2.565e-06 0 0)
(2.56504e-06 0 0)
(2.56507e-06 0 0)
(2.56511e-06 0 0)
(2.56514e-06 0 0)
(2.56517e-06 0 0)
(2.56521e-06 0 0)
(2.56524e-06 0 0)
(2.56526e-06 0 0)
(2.56529e-06 0 0)
(2.56532e-06 0 0)
(2.56534e-06 0 0)
(2.56536e-06 0 0)
(2.56539e-06 0 0)
(2.56541e-06 0 0)
(2.56542e-06 0 0)
(2.56544e-06 0 0)
(2.56545e-06 0 0)
(2.56547e-06 0 0)
(2.56548e-06 0 0)
(2.56549e-06 0 0)
(2.5655e-06 0 0)
(2.56551e-06 0 0)
(2.56552e-06 0 0)
(2.56553e-06 0 0)
(2.56553e-06 0 0)
(2.56554e-06 0 0)
(2.56555e-06 0 0)
(2.56555e-06 0 0)
(2.56555e-06 0 0)
(2.56556e-06 0 0)
(2.56556e-06 0 0)
(2.56556e-06 0 0)
(2.56557e-06 0 0)
(2.56557e-06 0 0)
(2.56557e-06 0 0)
(2.56558e-06 0 0)
(2.56559e-06 0 0)
(2.5656e-06 0 0)
(2.56561e-06 0 0)
(2.56562e-06 0 0)
(2.56563e-06 0 0)
(2.56564e-06 0 0)
(2.56566e-06 0 0)
(2.56567e-06 0 0)
(2.56569e-06 0 0)
(2.56572e-06 0 0)
(2.56574e-06 0 0)
(2.56576e-06 0 0)
(2.56579e-06 0 0)
(2.56582e-06 0 0)
(2.56585e-06 0 0)
(2.56588e-06 0 0)
(2.56592e-06 0 0)
(2.56595e-06 0 0)
(2.56599e-06 0 0)
(2.56603e-06 0 0)
(2.56607e-06 0 0)
(2.56611e-06 0 0)
(2.56615e-06 0 0)
(2.56619e-06 0 0)
(2.56624e-06 0 0)
(2.56628e-06 0 0)
(2.56632e-06 0 0)
(2.56636e-06 0 0)
(2.5664e-06 0 0)
(2.56644e-06 0 0)
(2.56648e-06 0 0)
(2.56652e-06 0 0)
(2.56655e-06 0 0)
(2.56659e-06 0 0)
(2.56662e-06 0 0)
(2.56665e-06 0 0)
(2.56667e-06 0 0)
(2.56669e-06 0 0)
(2.56671e-06 0 0)
(2.56673e-06 0 0)
(2.56674e-06 0 0)
(2.56675e-06 0 0)
(2.56676e-06 0 0)
(2.56676e-06 0 0)
(2.56676e-06 0 0)
(2.56676e-06 0 0)
(2.56675e-06 0 0)
(2.56674e-06 0 0)
(2.56673e-06 0 0)
(2.56671e-06 0 0)
(2.56669e-06 0 0)
(2.56666e-06 0 0)
(2.56662e-06 0 0)
(2.56659e-06 0 0)
(2.56655e-06 0 0)
(2.56651e-06 0 0)
(2.56647e-06 0 0)
(2.56642e-06 0 0)
(2.56638e-06 0 0)
(2.56633e-06 0 0)
(2.56628e-06 0 0)
(2.56623e-06 0 0)
(2.56617e-06 0 0)
(2.56612e-06 0 0)
(2.56607e-06 0 0)
(2.56601e-06 0 0)
(2.56596e-06 0 0)
(2.56591e-06 0 0)
(2.56586e-06 0 0)
(2.5658e-06 0 0)
(2.56575e-06 0 0)
(2.5657e-06 0 0)
(2.56566e-06 0 0)
(2.56561e-06 0 0)
(2.56556e-06 0 0)
(2.56552e-06 0 0)
(2.56548e-06 0 0)
(2.56544e-06 0 0)
(2.5654e-06 0 0)
(2.56536e-06 0 0)
(2.56532e-06 0 0)
(2.56528e-06 0 0)
(2.56524e-06 0 0)
(2.5652e-06 0 0)
(2.56517e-06 0 0)
(2.56513e-06 0 0)
(2.56509e-06 0 0)
(2.56504e-06 0 0)
(2.565e-06 0 0)
(2.56494e-06 0 0)
(2.56488e-06 0 0)
(2.56481e-06 0 0)
(2.56473e-06 0 0)
(2.56463e-06 0 0)
(2.56453e-06 0 0)
(2.5644e-06 0 0)
(2.56426e-06 0 0)
(2.5641e-06 0 0)
(2.56393e-06 0 0)
(2.56373e-06 0 0)
(2.56351e-06 0 0)
(2.56326e-06 0 0)
(2.56299e-06 0 0)
(2.5627e-06 0 0)
(2.56239e-06 0 0)
(2.56205e-06 0 0)
(2.5617e-06 0 0)
(2.56132e-06 0 0)
(2.56093e-06 0 0)
(2.56053e-06 0 0)
(2.56011e-06 0 0)
(2.55969e-06 0 0)
(2.55926e-06 0 0)
(2.55883e-06 0 0)
(2.55841e-06 0 0)
(2.55799e-06 0 0)
(2.55759e-06 0 0)
(2.55722e-06 0 0)
(2.55687e-06 0 0)
(2.55655e-06 0 0)
(2.55627e-06 0 0)
(2.55604e-06 0 0)
(2.55586e-06 0 0)
(2.55574e-06 0 0)
(2.55568e-06 0 0)
(2.55566e-06 0 0)
(2.55566e-06 0 0)
(2.55569e-06 0 0)
(2.55584e-06 0 0)
(2.55612e-06 0 0)
(2.55646e-06 0 0)
(2.55687e-06 0 0)
(2.55734e-06 0 0)
(2.55787e-06 0 0)
(2.55844e-06 0 0)
(2.55904e-06 0 0)
(2.55967e-06 0 0)
(2.56031e-06 0 0)
(2.56095e-06 0 0)
(2.56158e-06 0 0)
(2.56219e-06 0 0)
(2.56277e-06 0 0)
(2.56331e-06 0 0)
(2.56381e-06 0 0)
(2.56427e-06 0 0)
(2.56468e-06 0 0)
(2.56503e-06 0 0)
(2.56533e-06 0 0)
(2.56559e-06 0 0)
(2.56579e-06 0 0)
(2.56595e-06 0 0)
(2.56607e-06 0 0)
(2.56614e-06 0 0)
(2.56618e-06 0 0)
(2.5662e-06 0 0)
(2.5662e-06 0 0)
(2.56619e-06 0 0)
(2.56615e-06 0 0)
(2.56608e-06 0 0)
(2.56599e-06 0 0)
(2.5659e-06 0 0)
(2.5658e-06 0 0)
(2.56571e-06 0 0)
(2.56561e-06 0 0)
(2.56552e-06 0 0)
(2.56544e-06 0 0)
(2.56536e-06 0 0)
(2.56528e-06 0 0)
(2.56522e-06 0 0)
(2.56516e-06 0 0)
(2.56511e-06 0 0)
(2.56507e-06 0 0)
(2.56504e-06 0 0)
(2.56502e-06 0 0)
(2.565e-06 0 0)
(2.56499e-06 0 0)
(2.56498e-06 0 0)
(2.56498e-06 0 0)
(2.56498e-06 0 0)
(2.56499e-06 0 0)
(2.56501e-06 0 0)
(2.56503e-06 0 0)
(2.56505e-06 0 0)
(2.56508e-06 0 0)
(2.56511e-06 0 0)
(2.56515e-06 0 0)
(2.56518e-06 0 0)
(2.56522e-06 0 0)
(2.56526e-06 0 0)
(2.56529e-06 0 0)
(2.56533e-06 0 0)
(2.56537e-06 0 0)
(2.56541e-06 0 0)
(2.56545e-06 0 0)
(2.5655e-06 0 0)
(2.56554e-06 0 0)
(2.56558e-06 0 0)
(2.56563e-06 0 0)
(2.56567e-06 0 0)
(2.56571e-06 0 0)
(2.56575e-06 0 0)
(2.56579e-06 0 0)
(2.56583e-06 0 0)
(2.56588e-06 0 0)
(2.56592e-06 0 0)
(2.56596e-06 0 0)
(2.566e-06 0 0)
(2.56604e-06 0 0)
(2.56608e-06 0 0)
(2.56612e-06 0 0)
(2.56616e-06 0 0)
(2.56619e-06 0 0)
(2.56623e-06 0 0)
(2.56626e-06 0 0)
(2.56628e-06 0 0)
(2.56631e-06 0 0)
(2.56633e-06 0 0)
(2.56635e-06 0 0)
(2.56637e-06 0 0)
(2.56639e-06 0 0)
(2.5664e-06 0 0)
(2.56641e-06 0 0)
(2.56642e-06 0 0)
(2.56642e-06 0 0)
(2.56642e-06 0 0)
(2.56642e-06 0 0)
(2.56642e-06 0 0)
(2.5664e-06 0 0)
(2.56639e-06 0 0)
(2.56637e-06 0 0)
(2.56636e-06 0 0)
(2.56634e-06 0 0)
(2.56632e-06 0 0)
(2.56629e-06 0 0)
(2.56626e-06 0 0)
(2.56623e-06 0 0)
(2.5662e-06 0 0)
(2.56617e-06 0 0)
(2.56613e-06 0 0)
(2.5661e-06 0 0)
(2.56607e-06 0 0)
(2.56603e-06 0 0)
(2.566e-06 0 0)
(2.56597e-06 0 0)
(2.56594e-06 0 0)
(2.56591e-06 0 0)
(2.56588e-06 0 0)
(2.56585e-06 0 0)
(2.56582e-06 0 0)
(2.5658e-06 0 0)
(2.56578e-06 0 0)
(2.56576e-06 0 0)
(2.56575e-06 0 0)
(2.56573e-06 0 0)
(2.56572e-06 0 0)
(2.56572e-06 0 0)
(2.56571e-06 0 0)
(2.56571e-06 0 0)
(2.56571e-06 0 0)
(2.56571e-06 0 0)
(2.56571e-06 0 0)
(2.56573e-06 0 0)
(2.56574e-06 0 0)
(2.56575e-06 0 0)
(2.56577e-06 0 0)
(2.56579e-06 0 0)
(2.56581e-06 0 0)
(2.56583e-06 0 0)
(2.56586e-06 0 0)
(2.56588e-06 0 0)
(2.5659e-06 0 0)
(2.56593e-06 0 0)
(2.56595e-06 0 0)
(2.56597e-06 0 0)
(2.56599e-06 0 0)
(2.56601e-06 0 0)
(2.56603e-06 0 0)
(2.56604e-06 0 0)
(2.56605e-06 0 0)
(2.56606e-06 0 0)
(2.56607e-06 0 0)
(2.56607e-06 0 0)
(2.56607e-06 0 0)
(2.56607e-06 0 0)
(2.56607e-06 0 0)
(2.56606e-06 0 0)
(2.56605e-06 0 0)
(2.56603e-06 0 0)
(2.56601e-06 0 0)
(2.56598e-06 0 0)
(2.56595e-06 0 0)
(2.56591e-06 0 0)
(2.56587e-06 0 0)
(2.56581e-06 0 0)
(2.56576e-06 0 0)
(2.56569e-06 0 0)
(2.56562e-06 0 0)
(2.56554e-06 0 0)
(2.56545e-06 0 0)
(2.56535e-06 0 0)
(2.56525e-06 0 0)
(2.56513e-06 0 0)
(2.565e-06 0 0)
(2.56486e-06 0 0)
(2.56471e-06 0 0)
(2.56454e-06 0 0)
(2.56436e-06 0 0)
(2.56417e-06 0 0)
(2.56396e-06 0 0)
(2.56375e-06 0 0)
(2.56351e-06 0 0)
(2.56327e-06 0 0)
(2.56301e-06 0 0)
(2.56274e-06 0 0)
(2.56246e-06 0 0)
(2.56217e-06 0 0)
(2.56187e-06 0 0)
(2.56156e-06 0 0)
(2.56125e-06 0 0)
(2.56093e-06 0 0)
(2.56061e-06 0 0)
(2.5603e-06 0 0)
(2.55999e-06 0 0)
(2.55969e-06 0 0)
(2.55941e-06 0 0)
(2.55914e-06 0 0)
(2.55889e-06 0 0)
(2.55867e-06 0 0)
(2.55848e-06 0 0)
(2.55832e-06 0 0)
(2.55821e-06 0 0)
(2.55814e-06 0 0)
(2.55811e-06 0 0)
(2.55811e-06 0 0)
(2.55812e-06 0 0)
(2.5582e-06 0 0)
(2.55838e-06 0 0)
(2.55864e-06 0 0)
(2.55897e-06 0 0)
(2.55936e-06 0 0)
(2.55982e-06 0 0)
(2.56034e-06 0 0)
(2.5609e-06 0 0)
(2.56151e-06 0 0)
(2.56215e-06 0 0)
(2.56282e-06 0 0)
(2.56351e-06 0 0)
(2.56421e-06 0 0)
(2.5649e-06 0 0)
(2.56558e-06 0 0)
(2.56624e-06 0 0)
(2.56686e-06 0 0)
(2.56745e-06 0 0)
(2.568e-06 0 0)
(2.5685e-06 0 0)
(2.56895e-06 0 0)
(2.56934e-06 0 0)
(2.56968e-06 0 0)
(2.56997e-06 0 0)
(2.57021e-06 0 0)
(2.57039e-06 0 0)
(2.57053e-06 0 0)
(2.57063e-06 0 0)
(2.57068e-06 0 0)
(2.57071e-06 0 0)
(2.57071e-06 0 0)
(2.5707e-06 0 0)
(2.57066e-06 0 0)
(2.57057e-06 0 0)
(2.57046e-06 0 0)
(2.57033e-06 0 0)
(2.57018e-06 0 0)
(2.57006e-06 0 0)
(2.56993e-06 0 0)
(2.56975e-06 0 0)
(2.5696e-06 0 0)
(2.56955e-06 0 0)
(2.56996e-06 0 0)
(2.57207e-06 0 0)
(2.58533e-06 0 0)
(2.7224e-06 0 0)
(2.90556e-06 0 0)
(2.9652e-06 0 0)
(2.96723e-06 0 0)
(2.96726e-06 0 0)
(2.96727e-06 0 0)
(2.96727e-06 0 0)
(2.96727e-06 0 0)
(2.96727e-06 0 0)
(2.96727e-06 0 0)
(2.96727e-06 0 0)
(2.96727e-06 0 0)
(2.96727e-06 0 0)
(2.96727e-06 0 0)
(2.96727e-06 0 0)
(2.96727e-06 0 0)
(2.96727e-06 0 0)
(2.96727e-06 0 0)
(2.96727e-06 0 0)
(2.96727e-06 0 0)
(2.96727e-06 0 0)
(2.96727e-06 0 0)
(2.96727e-06 0 0)
(2.96727e-06 0 0)
(2.96727e-06 0 0)
(2.96727e-06 0 0)
(2.96727e-06 0 0)
(2.96727e-06 0 0)
(2.96727e-06 0 0)
(2.96727e-06 0 0)
(2.96727e-06 0 0)
(2.96727e-06 0 0)
(2.96727e-06 0 0)
(2.96727e-06 0 0)
(2.96727e-06 0 0)
(2.96727e-06 0 0)
(2.96727e-06 0 0)
(2.96727e-06 0 0)
(2.96727e-06 0 0)
(2.96727e-06 0 0)
(2.96727e-06 0 0)
(2.96727e-06 0 0)
(2.96727e-06 0 0)
(2.96727e-06 0 0)
(2.96727e-06 0 0)
(2.96727e-06 0 0)
(2.96727e-06 0 0)
(2.96727e-06 0 0)
(2.96727e-06 0 0)
(2.96727e-06 0 0)
(2.96727e-06 0 0)
(2.96727e-06 0 0)
(2.96727e-06 0 0)
(2.96727e-06 0 0)
(2.96727e-06 0 0)
(2.96727e-06 0 0)
(2.96727e-06 0 0)
(2.96727e-06 0 0)
(2.96727e-06 0 0)
(2.96727e-06 0 0)
(2.96727e-06 0 0)
(2.96727e-06 0 0)
(2.96727e-06 0 0)
(2.96727e-06 0 0)
(2.96727e-06 0 0)
(2.96727e-06 0 0)
(2.96727e-06 0 0)
(2.96727e-06 0 0)
(2.96727e-06 0 0)
(2.96727e-06 0 0)
(2.96727e-06 0 0)
(2.96727e-06 0 0)
(2.96727e-06 0 0)
(2.96727e-06 0 0)
(2.96727e-06 0 0)
(2.96727e-06 0 0)
(2.96727e-06 0 0)
(2.96727e-06 0 0)
(2.96727e-06 0 0)
(2.96727e-06 0 0)
(2.96727e-06 0 0)
(2.96727e-06 0 0)
(2.96727e-06 0 0)
(2.96727e-06 0 0)
(2.96727e-06 0 0)
(2.96727e-06 0 0)
(2.96727e-06 0 0)
(2.96727e-06 0 0)
(2.96727e-06 0 0)
(2.96727e-06 0 0)
(2.96727e-06 0 0)
(2.96727e-06 0 0)
(2.96727e-06 0 0)
(2.96727e-06 0 0)
(2.96727e-06 0 0)
(2.96727e-06 0 0)
(2.96727e-06 0 0)
(2.96727e-06 0 0)
(2.96727e-06 0 0)
(2.96727e-06 0 0)
(2.96727e-06 0 0)
(2.96727e-06 0 0)
(2.96727e-06 0 0)
(2.96727e-06 0 0)
(2.96727e-06 0 0)
(2.96727e-06 0 0)
(2.96727e-06 0 0)
(2.96727e-06 0 0)
(2.96727e-06 0 0)
(2.96727e-06 0 0)
(2.96727e-06 0 0)
(2.96727e-06 0 0)
(2.96727e-06 0 0)
(2.96727e-06 0 0)
(2.96727e-06 0 0)
(2.96727e-06 0 0)
(2.96727e-06 0 0)
(2.96727e-06 0 0)
(2.96727e-06 0 0)
(2.96727e-06 0 0)
(2.96727e-06 0 0)
(2.96727e-06 0 0)
(2.96727e-06 0 0)
(2.96727e-06 0 0)
(2.96727e-06 0 0)
(2.96727e-06 0 0)
(2.96727e-06 0 0)
(2.96727e-06 0 0)
(2.96727e-06 0 0)
(2.96727e-06 0 0)
(2.96727e-06 0 0)
(2.96727e-06 0 0)
(2.96727e-06 0 0)
(2.96727e-06 0 0)
(2.96727e-06 0 0)
(2.96727e-06 0 0)
(2.96727e-06 0 0)
(2.96727e-06 0 0)
(2.96727e-06 0 0)
(2.96727e-06 0 0)
(2.96727e-06 0 0)
(2.96727e-06 0 0)
(2.96727e-06 0 0)
(2.96727e-06 0 0)
(2.96727e-06 0 0)
(2.96727e-06 0 0)
(2.96727e-06 0 0)
(2.96727e-06 0 0)
(2.96727e-06 0 0)
(2.96727e-06 0 0)
(2.96727e-06 0 0)
(2.96727e-06 0 0)
(2.96727e-06 0 0)
(2.96727e-06 0 0)
(2.96727e-06 0 0)
(2.96727e-06 0 0)
(2.96727e-06 0 0)
(2.96727e-06 0 0)
(2.96727e-06 0 0)
(2.96727e-06 0 0)
(2.96727e-06 0 0)
(2.96727e-06 0 0)
(2.96727e-06 0 0)
(2.96727e-06 0 0)
(2.96727e-06 0 0)
(2.96727e-06 0 0)
(2.96727e-06 0 0)
(2.96727e-06 0 0)
(2.96727e-06 0 0)
(2.96727e-06 0 0)
(2.96727e-06 0 0)
(2.96727e-06 0 0)
(2.96727e-06 0 0)
(2.96727e-06 0 0)
(2.96727e-06 0 0)
(2.96727e-06 0 0)
(2.96727e-06 0 0)
(2.96727e-06 0 0)
(2.96727e-06 0 0)
(2.96727e-06 0 0)
(2.96727e-06 0 0)
(2.96727e-06 0 0)
(2.96727e-06 0 0)
(2.96727e-06 0 0)
(2.96727e-06 0 0)
(2.96727e-06 0 0)
(2.96727e-06 0 0)
(2.96727e-06 0 0)
(2.96727e-06 0 0)
(2.96727e-06 0 0)
(2.96727e-06 0 0)
(2.96727e-06 0 0)
(2.96727e-06 0 0)
(2.96727e-06 0 0)
(2.96727e-06 0 0)
(2.96727e-06 0 0)
(2.96727e-06 0 0)
(2.96727e-06 0 0)
(2.96727e-06 0 0)
(2.96727e-06 0 0)
(2.96727e-06 0 0)
(2.96727e-06 0 0)
(2.96727e-06 0 0)
(2.96727e-06 0 0)
(2.96727e-06 0 0)
(2.96727e-06 0 0)
(2.96727e-06 0 0)
(2.96727e-06 0 0)
(2.96727e-06 0 0)
(2.96727e-06 0 0)
(2.96727e-06 0 0)
(2.96727e-06 0 0)
(2.96727e-06 0 0)
(2.96727e-06 0 0)
(2.96727e-06 0 0)
(2.96727e-06 0 0)
(2.96727e-06 0 0)
(2.96727e-06 0 0)
(2.96727e-06 0 0)
(2.96727e-06 0 0)
(2.96727e-06 0 0)
(2.96727e-06 0 0)
(2.96727e-06 0 0)
(2.96727e-06 0 0)
(2.96727e-06 0 0)
(2.96727e-06 0 0)
(2.96727e-06 0 0)
(2.96727e-06 0 0)
(2.96727e-06 0 0)
(2.96727e-06 0 0)
(2.96727e-06 0 0)
(2.96727e-06 0 0)
(2.96727e-06 0 0)
(2.96727e-06 0 0)
(2.96727e-06 0 0)
(2.96727e-06 0 0)
(2.96727e-06 0 0)
(2.96727e-06 0 0)
(2.96727e-06 0 0)
(2.96727e-06 0 0)
(2.96727e-06 0 0)
(2.96727e-06 0 0)
(2.96727e-06 0 0)
(2.96727e-06 0 0)
(2.96727e-06 0 0)
(2.96727e-06 0 0)
(2.96727e-06 0 0)
(2.96727e-06 0 0)
(2.96727e-06 0 0)
(2.96727e-06 0 0)
(2.96727e-06 0 0)
(2.96727e-06 0 0)
(2.96727e-06 0 0)
(2.96727e-06 0 0)
(2.96727e-06 0 0)
(2.96727e-06 0 0)
(2.96727e-06 0 0)
(2.96727e-06 0 0)
(2.96727e-06 0 0)
(2.96727e-06 0 0)
(2.96727e-06 0 0)
(2.96727e-06 0 0)
(2.96727e-06 0 0)
(2.96727e-06 0 0)
(2.96727e-06 0 0)
(2.96727e-06 0 0)
(2.96727e-06 0 0)
(2.96727e-06 0 0)
(2.96727e-06 0 0)
(2.96727e-06 0 0)
(2.96727e-06 0 0)
(2.96727e-06 0 0)
(2.96727e-06 0 0)
(2.96727e-06 0 0)
(2.96727e-06 0 0)
(2.96727e-06 0 0)
(2.96727e-06 0 0)
(2.96727e-06 0 0)
(2.96727e-06 0 0)
(2.96727e-06 0 0)
(2.96727e-06 0 0)
(2.96727e-06 0 0)
(2.96727e-06 0 0)
(2.96727e-06 0 0)
(2.96727e-06 0 0)
(2.96727e-06 0 0)
(2.96727e-06 0 0)
(2.96727e-06 0 0)
(2.96727e-06 0 0)
(2.96727e-06 0 0)
(2.96727e-06 0 0)
(2.96727e-06 0 0)
(2.96727e-06 0 0)
(2.96727e-06 0 0)
(2.96727e-06 0 0)
(2.96727e-06 0 0)
(2.96727e-06 0 0)
(2.96727e-06 0 0)
(2.96727e-06 0 0)
(2.96727e-06 0 0)
(2.96727e-06 0 0)
(2.96727e-06 0 0)
(2.96727e-06 0 0)
(2.96727e-06 0 0)
(2.96727e-06 0 0)
(2.96727e-06 0 0)
(2.96727e-06 0 0)
(2.96727e-06 0 0)
(2.96727e-06 0 0)
(2.96727e-06 0 0)
(2.96727e-06 0 0)
(2.96727e-06 0 0)
(2.96727e-06 0 0)
(2.96727e-06 0 0)
(2.96727e-06 0 0)
(2.96727e-06 0 0)
(2.96727e-06 0 0)
(2.96727e-06 0 0)
(2.96727e-06 0 0)
(2.96727e-06 0 0)
(2.96727e-06 0 0)
(2.96727e-06 0 0)
(2.96727e-06 0 0)
(2.96727e-06 0 0)
(2.96727e-06 0 0)
(2.96727e-06 0 0)
(2.96727e-06 0 0)
(2.96727e-06 0 0)
(2.96727e-06 0 0)
(2.96727e-06 0 0)
(2.96727e-06 0 0)
(2.96727e-06 0 0)
(2.96727e-06 0 0)
(2.96727e-06 0 0)
(2.96727e-06 0 0)
(2.96727e-06 0 0)
(2.96727e-06 0 0)
(2.96727e-06 0 0)
(2.96727e-06 0 0)
(2.96727e-06 0 0)
(2.96727e-06 0 0)
(2.96727e-06 0 0)
(2.96727e-06 0 0)
(2.96727e-06 0 0)
(2.96727e-06 0 0)
(2.96727e-06 0 0)
(2.96727e-06 0 0)
(2.96727e-06 0 0)
(2.96727e-06 0 0)
(2.96727e-06 0 0)
(2.96727e-06 0 0)
(2.96727e-06 0 0)
(2.96727e-06 0 0)
(2.96727e-06 0 0)
(2.96727e-06 0 0)
(2.96727e-06 0 0)
(2.96727e-06 0 0)
(2.96727e-06 0 0)
(2.96727e-06 0 0)
(2.96727e-06 0 0)
(2.96727e-06 0 0)
(2.96727e-06 0 0)
(2.96727e-06 0 0)
(2.96727e-06 0 0)
(2.96727e-06 0 0)
(2.96727e-06 0 0)
(2.96727e-06 0 0)
(2.96727e-06 0 0)
(2.96727e-06 0 0)
(2.96727e-06 0 0)
(2.96727e-06 0 0)
(2.96727e-06 0 0)
(2.96727e-06 0 0)
(2.96727e-06 0 0)
(2.96727e-06 0 0)
(2.96727e-06 0 0)
(2.96727e-06 0 0)
(2.96727e-06 0 0)
(2.96727e-06 0 0)
(2.96727e-06 0 0)
(2.96727e-06 0 0)
(2.96727e-06 0 0)
(2.96727e-06 0 0)
(2.96727e-06 0 0)
(2.96727e-06 0 0)
(2.96727e-06 0 0)
(2.96727e-06 0 0)
(2.96727e-06 0 0)
(2.96727e-06 0 0)
(2.96727e-06 0 0)
(2.96727e-06 0 0)
(2.96727e-06 0 0)
(2.96727e-06 0 0)
(2.96727e-06 0 0)
(2.96727e-06 0 0)
(2.96727e-06 0 0)
(2.96727e-06 0 0)
(2.96727e-06 0 0)
(2.96727e-06 0 0)
(2.96727e-06 0 0)
(2.96727e-06 0 0)
(2.96727e-06 0 0)
(2.96727e-06 0 0)
(2.96727e-06 0 0)
(2.96727e-06 0 0)
(2.96727e-06 0 0)
(2.96727e-06 0 0)
(2.96727e-06 0 0)
(2.96727e-06 0 0)
(2.96727e-06 0 0)
(2.96727e-06 0 0)
(2.96727e-06 0 0)
(2.96727e-06 0 0)
(2.96727e-06 0 0)
(2.96727e-06 0 0)
(2.96727e-06 0 0)
(2.96727e-06 0 0)
(2.96727e-06 0 0)
(2.96727e-06 0 0)
(2.96727e-06 0 0)
(2.96727e-06 0 0)
)
;

boundaryField
{
    inlet
    {
        type            fixedValue;
        value           uniform (1.13622e-05 0 0);
    }
    outlet
    {
        type            zeroGradient;
    }
    emptyWalls
    {
        type            empty;
    }
}


// ************************************************************************* //
