/*--------------------------------*- C++ -*----------------------------------*\
  =========                 |
  \\      /  F ield         | OpenFOAM: The Open Source CFD Toolbox
   \\    /   O peration     | Website:  https://openfoam.org
    \\  /    A nd           | Version:  9
     \\/     M anipulation  |
\*---------------------------------------------------------------------------*/
FoamFile
{
    format      ascii;
    class       volScalarField;
    location    "19950";
    object      Fa;
}
// * * * * * * * * * * * * * * * * * * * * * * * * * * * * * * * * * * * * * //

dimensions      [0 0 0 0 0 0 0];

internalField   nonuniform List<scalar> 
1000
(
0.194879
0.194725
0.194828
0.194741
0.194758
0.194723
0.194693
0.194659
0.194624
0.194576
0.194535
0.19448
0.194416
0.194363
0.194267
0.194248
0.194102
0.194154
0.19396
0.194056
0.193869
0.193937
0.193819
0.193831
0.193749
0.193623
0.193046
0.189448
0.165202
0.153168
0.15085
0.149934
0.149421
0.149072
0.148804
0.148573
0.14836
0.148164
0.147994
0.147859
0.147752
0.147655
0.147547
0.147419
0.147283
0.147171
0.147122
0.147168
0.147321
0.147566
0.147867
0.148172
0.148435
0.14862
0.148716
0.148738
0.148722
0.148703
0.148672
0.148522
0.148207
0.14784
0.147452
0.147066
0.146704
0.14638
0.146105
0.145881
0.145708
0.14558
0.145493
0.145439
0.145411
0.145401
0.145405
0.145414
0.145428
0.14544
0.145452
0.145457
0.145453
0.145441
0.145422
0.145397
0.145367
0.145334
0.145298
0.14526
0.145221
0.145182
0.145142
0.145102
0.145062
0.145024
0.144985
0.144947
0.14491
0.144874
0.144838
0.144803
0.144769
0.144735
0.144703
0.144671
0.14464
0.14461
0.144581
0.144553
0.144526
0.1445
0.144474
0.14445
0.144427
0.144404
0.144383
0.144363
0.144343
0.144325
0.144307
0.144291
0.144275
0.14426
0.144247
0.144234
0.144223
0.144214
0.144205
0.144199
0.144193
0.144188
0.144184
0.14418
0.144176
0.144172
0.144167
0.144162
0.144158
0.144153
0.144149
0.144146
0.144144
0.144142
0.144142
0.144143
0.144144
0.144146
0.144147
0.144146
0.144144
0.14414
0.144134
0.144128
0.144123
0.144123
0.144129
0.144144
0.144172
0.144214
0.14427
0.144343
0.144431
0.144534
0.14465
0.144778
0.144915
0.145058
0.145205
0.145351
0.145494
0.14563
0.145754
0.145862
0.145951
0.146016
0.146055
0.146065
0.146045
0.145996
0.145919
0.145816
0.14569
0.145546
0.145389
0.145223
0.145054
0.144886
0.144724
0.144571
0.14443
0.144302
0.144189
0.144091
0.144008
0.14394
0.143884
0.143839
0.143804
0.143776
0.143755
0.143738
0.143725
0.143713
0.143701
0.14369
0.143677
0.143663
0.143647
0.143628
0.143608
0.143585
0.14356
0.143534
0.143506
0.143476
0.143445
0.143413
0.14338
0.143347
0.143313
0.143279
0.143245
0.14321
0.143176
0.143143
0.143109
0.143076
0.143043
0.143011
0.142979
0.142948
0.142918
0.142888
0.142858
0.142829
0.142801
0.142773
0.142746
0.14272
0.142694
0.142669
0.142645
0.142621
0.142598
0.142576
0.142554
0.142533
0.142513
0.142493
0.142474
0.142456
0.142438
0.142422
0.142406
0.142391
0.142376
0.142363
0.14235
0.142338
0.142327
0.142316
0.142306
0.142297
0.142287
0.142279
0.14227
0.142263
0.142255
0.142248
0.142241
0.142234
0.142228
0.142222
0.142217
0.142212
0.142207
0.142202
0.142198
0.142193
0.142189
0.142184
0.142179
0.142174
0.142169
0.142165
0.142161
0.142159
0.142158
0.142161
0.142166
0.142176
0.14219
0.14221
0.142236
0.142269
0.142308
0.142356
0.14241
0.142472
0.142541
0.142616
0.142698
0.142784
0.142874
0.142967
0.143061
0.143155
0.143247
0.143335
0.143417
0.143493
0.143559
0.143615
0.143659
0.143689
0.143706
0.143708
0.143694
0.143665
0.143622
0.143565
0.143495
0.143413
0.143322
0.143223
0.143118
0.143008
0.142897
0.142785
0.142675
0.142568
0.142465
0.142367
0.142275
0.14219
0.142112
0.14204
0.141976
0.141918
0.141867
0.141821
0.14178
0.141744
0.141711
0.141682
0.141656
0.141631
0.141608
0.141586
0.141565
0.141544
0.141522
0.141501
0.141478
0.141455
0.141432
0.141407
0.141382
0.141355
0.141328
0.1413
0.141271
0.141241
0.141211
0.141181
0.14115
0.141119
0.141087
0.141056
0.141024
0.140993
0.140961
0.14093
0.140898
0.140867
0.140837
0.140806
0.140776
0.140746
0.140717
0.140688
0.14066
0.140632
0.140604
0.140577
0.140551
0.140524
0.140499
0.140474
0.140449
0.140425
0.140402
0.140379
0.140357
0.140335
0.140314
0.140293
0.140273
0.140253
0.140235
0.140216
0.140199
0.140182
0.140165
0.140149
0.140134
0.140119
0.140105
0.140091
0.140078
0.140066
0.140054
0.140042
0.140031
0.14002
0.14001
0.14
0.13999
0.139981
0.139972
0.139964
0.139956
0.139948
0.13994
0.139933
0.139926
0.139919
0.139912
0.139905
0.139899
0.139893
0.139887
0.139881
0.139876
0.139872
0.139868
0.139865
0.139864
0.139863
0.139865
0.139868
0.139874
0.139883
0.139894
0.139909
0.139927
0.139948
0.139974
0.140004
0.140037
0.140075
0.140118
0.140164
0.140213
0.140267
0.140323
0.140382
0.140444
0.140507
0.140571
0.140635
0.140698
0.14076
0.14082
0.140877
0.14093
0.140978
0.14102
0.141057
0.141086
0.141108
0.141121
0.141126
0.141122
0.14111
0.141088
0.141058
0.141019
0.140972
0.140918
0.140857
0.14079
0.140719
0.140642
0.140563
0.140481
0.140398
0.140314
0.14023
0.140148
0.140067
0.139988
0.139913
0.13984
0.139771
0.139705
0.139643
0.139585
0.139531
0.13948
0.139433
0.139389
0.139348
0.13931
0.139274
0.13924
0.139208
0.139178
0.139149
0.139121
0.139094
0.139067
0.139041
0.139016
0.13899
0.138964
0.138938
0.138912
0.138886
0.138859
0.138832
0.138804
0.138777
0.138748
0.13872
0.138691
0.138662
0.138633
0.138603
0.138574
0.138544
0.138514
0.138485
0.138455
0.138425
0.138396
0.138366
0.138337
0.138308
0.138279
0.13825
0.138222
0.138194
0.138166
0.138139
0.138112
0.138085
0.138059
0.138033
0.138008
0.137983
0.137958
0.137934
0.13791
0.137887
0.137864
0.137842
0.13782
0.137799
0.137778
0.137757
0.137737
0.137717
0.137698
0.13768
0.137661
0.137644
0.137626
0.137609
0.137593
0.137577
0.137562
0.137546
0.137532
0.137518
0.137504
0.13749
0.137477
0.137464
0.137452
0.13744
0.137428
0.137417
0.137406
0.137395
0.137385
0.137375
0.137365
0.137355
0.137346
0.137336
0.137327
0.137319
0.13731
0.137302
0.137294
0.137287
0.137279
0.137273
0.137266
0.137261
0.137256
0.137251
0.137248
0.137246
0.137244
0.137245
0.137246
0.137249
0.137254
0.13726
0.137269
0.13728
0.137293
0.137308
0.137326
0.137346
0.137368
0.137394
0.137421
0.137451
0.137484
0.137519
0.137555
0.137594
0.137634
0.137676
0.137718
0.137762
0.137805
0.137849
0.137892
0.137935
0.137976
0.138015
0.138052
0.138086
0.138118
0.138145
0.138169
0.138189
0.138203
0.138213
0.138218
0.138217
0.13821
0.138198
0.13818
0.138156
0.138127
0.138093
0.138053
0.138009
0.13796
0.137907
0.13785
0.13779
0.137728
0.137663
0.137596
0.137528
0.137459
0.13739
0.137322
0.137253
0.137186
0.13712
0.137055
0.136992
0.136931
0.136872
0.136815
0.136761
0.136708
0.136658
0.136611
0.136565
0.136521
0.13648
0.13644
0.136402
0.136365
0.13633
0.136296
0.136263
0.136232
0.136201
0.13617
0.136141
0.136112
0.136083
0.136054
0.136026
0.135997
0.135969
0.135941
0.135912
0.135884
0.135856
0.135827
0.135798
0.135769
0.13574
0.135711
0.135681
0.135652
0.135622
0.135592
0.135562
0.135533
0.135503
0.135473
0.135443
0.135413
0.135383
0.135353
0.135324
0.135294
0.135265
0.135235
0.135206
0.135177
0.135149
0.13512
0.135092
0.135064
0.135036
0.135009
0.134982
0.134954
0.134928
0.134901
0.134876
0.13485
0.134824
0.134799
0.134774
0.13475
0.134726
0.134702
0.134679
0.134656
0.134633
0.134611
0.134589
0.134567
0.134546
0.134526
0.134505
0.134485
0.134466
0.134447
0.134429
0.13441
0.134393
0.134376
0.134359
0.134344
0.134329
0.134314
0.1343
0.134287
0.134275
0.134264
0.134253
0.134243
0.134235
0.134226
0.134219
0.134214
0.134209
0.134205
0.134203
0.134201
0.1342
0.134202
0.134202
0.134205
0.134209
0.134213
0.134219
0.134226
0.134233
0.134243
0.134253
0.134263
0.134276
0.134286
0.134303
0.134315
0.134334
0.134346
0.134363
0.134375
0.134394
0.134391
0.134389
0.13435
0.134277
0.13413
0.133877
0.133504
0.133006
0.132515
0.132117
0.131906
0.131804
0.131782
0.131795
0.131814
0.131862
0.131893
0.131935
0.131979
0.132022
0.132067
0.132111
0.132156
0.132199
0.132243
0.132285
0.132326
0.132366
0.132405
0.132442
0.132477
0.132509
0.13254
0.132568
0.132593
0.132616
0.132635
0.132652
0.132665
0.132674
0.132679
0.132681
0.132681
0.132681
0.132677
0.132666
0.132651
0.132634
0.132614
0.132592
0.132567
0.132539
0.13251
0.132479
0.132446
0.132411
0.132375
0.132339
0.132301
0.132263
0.132225
0.132187
0.132149
0.132111
0.132074
0.132037
0.132001
0.131966
0.131933
0.1319
0.131869
0.131838
0.13181
0.131782
0.131756
0.131731
0.131707
0.131685
0.131664
0.131644
0.131625
0.131607
0.131591
0.131575
0.13156
0.131546
0.131532
0.131519
0.131507
0.131495
0.131484
0.131473
0.131462
0.131452
0.131441
0.131431
0.131422
0.131412
0.131402
0.131392
0.131383
0.131373
0.131363
0.131353
0.131343
0.131334
0.131324
0.131314
0.131304
0.131293
0.131283
0.131273
0.131263
0.131253
0.131243
0.131232
0.131222
0.131212
0.131202
0.131192
0.131182
0.131172
0.131163
0.131153
0.131144
0.131134
0.131125
0.131116
0.131107
0.131099
0.13109
0.131082
0.131074
0.131067
0.131059
0.131052
0.131045
0.131038
0.131032
0.131025
0.131019
0.131014
0.131008
0.131003
0.130998
0.130994
0.13099
0.130986
0.130982
0.130979
0.130976
0.130973
0.130971
0.130969
0.130967
0.130966
0.130965
0.130964
0.130964
0.130963
0.130963
0.130964
0.130964
0.130965
0.130966
0.130968
0.130969
0.130972
0.130973
0.130978
0.130979
0.130984
0.130986
0.130992
0.130993
0.131
0.131002
0.13101
0.131012
0.131021
0.131024
0.131033
0.131036
0.131047
0.13105
0.131062
0.131066
0.131079
0.131083
0.131098
0.131102
0.131119
0.131124
0.131143
0.131148
0.131169
0.131175
0.131198
0.131205
0.131231
0.131238
0.131268
0.131276
0.131308
0.131317
0.131366
)
;

boundaryField
{
    inlet
    {
        type            calculated;
        value           uniform 0.194831;
    }
    outlet
    {
        type            calculated;
        value           uniform 0.131358;
    }
    emptyWalls
    {
        type            empty;
    }
}


// ************************************************************************* //
