/*--------------------------------*- C++ -*----------------------------------*\
  =========                 |
  \\      /  F ield         | OpenFOAM: The Open Source CFD Toolbox
   \\    /   O peration     | Website:  https://openfoam.org
    \\  /    A nd           | Version:  9
     \\/     M anipulation  |
\*---------------------------------------------------------------------------*/
FoamFile
{
    format      ascii;
    class       volScalarField;
    location    "19950";
    object      kra;
}
// * * * * * * * * * * * * * * * * * * * * * * * * * * * * * * * * * * * * * //

dimensions      [0 0 0 0 0 0 0];

internalField   nonuniform List<scalar> 
1000
(
0.000236797
0.000237761
0.000239189
0.000240522
0.000241907
0.000243276
0.000244661
0.000246059
0.000247472
0.000248892
0.000250324
0.000251752
0.000253168
0.00025457
0.000255915
0.000257251
0.000258448
0.00025967
0.000260657
0.000261699
0.000262473
0.000263285
0.000263902
0.000264563
0.000265396
0.000267582
0.000275304
0.000311746
0.000557755
0.000829021
0.000882476
0.000898889
0.000906869
0.00091189
0.000915491
0.000918227
0.000920336
0.000922027
0.000923481
0.00092484
0.000926114
0.000927222
0.000928042
0.000928543
0.000928827
0.000929133
0.000929753
0.000930927
0.000932748
0.000935131
0.000937823
0.000940481
0.000942767
0.000944439
0.000945416
0.000945805
0.00094586
0.000945836
0.000945671
0.0009446
0.000942282
0.000939543
0.000936588
0.000933583
0.000930693
0.000928009
0.000925612
0.000923504
0.000921689
0.000920107
0.000918725
0.000917457
0.000916244
0.00091498
0.000913591
0.000911964
0.000910044
0.000907772
0.000905179
0.000902309
0.000899242
0.000896035
0.000892729
0.000889357
0.000885941
0.000882502
0.000879055
0.00087561
0.000872177
0.000868763
0.000865372
0.000862007
0.000858672
0.000855368
0.000852096
0.000848858
0.000845652
0.00084248
0.000839342
0.000836237
0.000833166
0.000830128
0.000827124
0.000824153
0.000821215
0.000818309
0.000815436
0.000812594
0.000809785
0.000807007
0.00080426
0.000801544
0.000798858
0.000796203
0.000793577
0.00079098
0.000788412
0.000785872
0.00078336
0.000780875
0.000778418
0.000775988
0.000773586
0.000771211
0.000768864
0.000766546
0.000764255
0.000761991
0.000759754
0.00075754
0.000755349
0.000753176
0.000751021
0.000748882
0.000746758
0.000744649
0.000742558
0.000740484
0.00073843
0.000736397
0.000734385
0.000732395
0.000730427
0.000728478
0.000726548
0.000724633
0.000722729
0.000720832
0.000718939
0.000717049
0.000715165
0.000713292
0.000711442
0.000709627
0.000707863
0.000706164
0.000704543
0.00070301
0.000701573
0.000700233
0.000698987
0.000697832
0.000696758
0.000695755
0.00069481
0.000693907
0.000693032
0.000692164
0.000691285
0.000690373
0.000689408
0.000688366
0.000687228
0.000685974
0.000684589
0.000683064
0.000681392
0.000679577
0.000677624
0.000675547
0.000673366
0.000671103
0.000668783
0.000666433
0.00066408
0.000661746
0.000659454
0.000657222
0.000655062
0.000652984
0.000650993
0.000649089
0.000647272
0.000645535
0.000643873
0.000642278
0.000640739
0.000639249
0.000637798
0.000636378
0.000634981
0.0006336
0.00063223
0.000630866
0.000629505
0.000628144
0.000626781
0.000625416
0.000624047
0.000622676
0.000621301
0.000619926
0.000618549
0.000617173
0.000615798
0.000614425
0.000613056
0.00061169
0.000610331
0.000608977
0.000607629
0.000606289
0.000604956
0.000603632
0.000602315
0.000601007
0.000599708
0.000598417
0.000597135
0.000595862
0.000594598
0.000593344
0.000592098
0.000590861
0.000589633
0.000588414
0.000587204
0.000586003
0.00058481
0.000583627
0.000582452
0.000581286
0.000580129
0.00057898
0.000577839
0.000576708
0.000575584
0.000574469
0.000573363
0.000572265
0.000571175
0.000570095
0.000569022
0.00056796
0.000566904
0.000565858
0.000564819
0.00056379
0.000562767
0.000561753
0.000560745
0.000559745
0.00055875
0.000557764
0.000556781
0.000555806
0.000554836
0.000553873
0.000552914
0.000551962
0.000551015
0.000550075
0.00054914
0.000548211
0.000547286
0.000546368
0.000545453
0.000544542
0.000543634
0.00054273
0.00054183
0.000540933
0.00054004
0.000539153
0.000538273
0.000537402
0.000536544
0.000535699
0.000534873
0.000534067
0.000533285
0.000532529
0.000531802
0.000531107
0.000530445
0.000529816
0.000529221
0.000528659
0.00052813
0.00052763
0.000527157
0.000526706
0.000526274
0.000525856
0.000525444
0.000525034
0.000524617
0.000524187
0.000523737
0.00052326
0.000522747
0.000522194
0.000521594
0.000520942
0.000520235
0.000519471
0.000518647
0.000517765
0.000516827
0.000515836
0.000514796
0.000513714
0.000512596
0.00051145
0.000510284
0.000509106
0.000507923
0.000506744
0.000505574
0.00050442
0.000503287
0.000502179
0.000501098
0.000500048
0.000499028
0.000498039
0.000497081
0.000496152
0.000495251
0.000494375
0.000493523
0.000492691
0.000491877
0.000491078
0.000490293
0.000489518
0.000488751
0.000487991
0.000487236
0.000486484
0.000485735
0.000484986
0.000484238
0.000483489
0.00048274
0.00048199
0.00048124
0.000480488
0.000479735
0.000478982
0.000478229
0.000477475
0.000476722
0.00047597
0.000475218
0.000474468
0.000473719
0.000472972
0.000472228
0.000471485
0.000470746
0.000470009
0.000469275
0.000468545
0.000467817
0.000467094
0.000466373
0.000465657
0.000464944
0.000464235
0.000463529
0.000462828
0.00046213
0.000461437
0.000460747
0.000460061
0.000459379
0.000458702
0.000458028
0.000457358
0.000456692
0.00045603
0.000455373
0.000454719
0.000454069
0.000453424
0.000452782
0.000452144
0.000451511
0.000450882
0.000450256
0.000449635
0.000449017
0.000448404
0.000447795
0.000447189
0.000446587
0.000445989
0.000445395
0.000444804
0.000444216
0.000443632
0.000443051
0.000442474
0.000441899
0.000441328
0.00044076
0.000440194
0.000439632
0.000439072
0.000438515
0.00043796
0.000437408
0.000436859
0.000436312
0.000435767
0.000435224
0.000434683
0.000434145
0.000433608
0.000433075
0.000432544
0.000432016
0.000431491
0.000430971
0.000430455
0.000429945
0.000429441
0.000428944
0.000428456
0.000427976
0.000427508
0.00042705
0.000426605
0.000426173
0.000425755
0.000425351
0.000424962
0.000424589
0.000424231
0.000423888
0.000423559
0.000423244
0.000422942
0.000422652
0.000422371
0.000422099
0.000421833
0.000421571
0.00042131
0.000421048
0.000420783
0.00042051
0.000420229
0.000419934
0.000419625
0.000419297
0.00041895
0.000418579
0.000418185
0.000417763
0.000417316
0.000416838
0.000416334
0.0004158
0.00041524
0.000414651
0.000414039
0.000413402
0.000412747
0.000412071
0.000411382
0.000410678
0.000409967
0.000409249
0.000408529
0.000407807
0.000407089
0.000406376
0.00040567
0.000404973
0.000404287
0.000403612
0.00040295
0.000402302
0.000401668
0.000401047
0.000400439
0.000399844
0.000399262
0.000398692
0.000398133
0.000397583
0.000397043
0.000396511
0.000395986
0.000395467
0.000394954
0.000394445
0.00039394
0.000393438
0.000392938
0.000392441
0.000391944
0.000391449
0.000390954
0.00039046
0.000389965
0.000389471
0.000388977
0.000388483
0.000387989
0.000387495
0.000387
0.000386506
0.000386012
0.000385519
0.000385025
0.000384533
0.000384041
0.00038355
0.00038306
0.000382571
0.000382083
0.000381596
0.000381111
0.000380628
0.000380146
0.000379665
0.000379187
0.00037871
0.000378236
0.000377763
0.000377292
0.000376824
0.000376357
0.000375893
0.00037543
0.00037497
0.000374512
0.000374056
0.000373603
0.000373151
0.000372702
0.000372255
0.000371811
0.000371368
0.000370928
0.00037049
0.000370054
0.00036962
0.000369189
0.00036876
0.000368333
0.000367909
0.000367486
0.000367066
0.000366648
0.000366232
0.000365818
0.000365406
0.000364996
0.000364588
0.000364182
0.000363778
0.000363376
0.000362976
0.000362578
0.000362181
0.000361786
0.000361393
0.000361002
0.000360612
0.000360223
0.000359836
0.000359451
0.000359067
0.000358685
0.000358303
0.000357923
0.000357545
0.000357168
0.000356792
0.000356418
0.000356045
0.000355674
0.000355304
0.000354936
0.000354571
0.000354207
0.000353846
0.000353488
0.000353134
0.000352782
0.000352434
0.000352091
0.000351752
0.000351418
0.00035109
0.000350768
0.000350451
0.000350142
0.000349839
0.000349544
0.000349255
0.000348975
0.000348701
0.000348436
0.000348178
0.000347927
0.000347684
0.000347446
0.000347216
0.00034699
0.00034677
0.000346553
0.00034634
0.000346129
0.00034592
0.00034571
0.0003455
0.000345287
0.000345071
0.00034485
0.000344623
0.000344389
0.000344146
0.000343893
0.00034363
0.000343354
0.000343066
0.000342765
0.000342448
0.000342117
0.000341771
0.000341409
0.000341032
0.00034064
0.000340233
0.000339811
0.000339375
0.000338927
0.000338467
0.000337996
0.000337515
0.000337026
0.00033653
0.000336029
0.000335524
0.000335016
0.000334506
0.000333997
0.000333488
0.000332982
0.000332479
0.000331979
0.000331485
0.000330996
0.000330513
0.000330036
0.000329566
0.000329102
0.000328645
0.000328195
0.000327751
0.000327314
0.000326883
0.000326457
0.000326037
0.000325622
0.000325211
0.000324805
0.000324403
0.000324004
0.000323608
0.000323215
0.000322824
0.000322434
0.000322047
0.000321661
0.000321276
0.000320891
0.000320508
0.000320124
0.000319741
0.000319359
0.000318976
0.000318593
0.000318211
0.000317828
0.000317445
0.000317062
0.000316679
0.000316296
0.000315913
0.00031553
0.000315147
0.000314764
0.000314381
0.000313998
0.000313615
0.000313234
0.000312851
0.000312471
0.000312089
0.00031171
0.000311329
0.000310951
0.000310572
0.000310194
0.000309818
0.000309441
0.000309066
0.000308691
0.000308318
0.000307945
0.000307574
0.000307203
0.000306833
0.000306465
0.000306097
0.000305731
0.000305366
0.000305002
0.000304639
0.000304278
0.000303918
0.000303559
0.000303202
0.000302846
0.000302492
0.00030214
0.00030179
0.000301441
0.000301094
0.00030075
0.000300408
0.000300069
0.000299733
0.000299399
0.000299069
0.000298744
0.000298421
0.000298104
0.000297792
0.000297484
0.000297184
0.00029689
0.000296603
0.000296325
0.000296056
0.000295795
0.000295547
0.000295307
0.000295079
0.000294866
0.000294664
0.000294475
0.000294302
0.00029414
0.000293994
0.000293864
0.000293744
0.00029364
0.000293551
0.00029347
0.000293406
0.000293353
0.000293307
0.000293275
0.000293253
0.000293235
0.00029323
0.000293232
0.000293235
0.000293251
0.000293259
0.000293288
0.0002933
0.000293325
0.000293323
0.000293311
0.000293251
0.000293139
0.000292848
0.000292344
0.000291372
0.000289691
0.000286843
0.00028235
0.000275964
0.000268066
0.000260142
0.00025378
0.000249794
0.000247674
0.000246697
0.000246284
0.000246112
0.000246111
0.000246125
0.000246187
0.000246266
0.000246352
0.000246443
0.000246534
0.000246627
0.000246719
0.000246811
0.0002469
0.000246988
0.000247072
0.000247154
0.000247232
0.000247306
0.000247375
0.00024744
0.000247499
0.000247553
0.000247601
0.000247642
0.000247677
0.000247705
0.000247724
0.000247735
0.000247739
0.000247739
0.000247738
0.00024773
0.000247706
0.000247676
0.000247639
0.000247597
0.000247549
0.000247497
0.000247439
0.000247377
0.00024731
0.00024724
0.000247167
0.000247091
0.000247014
0.000246934
0.000246854
0.000246773
0.000246692
0.000246611
0.000246531
0.000246452
0.000246375
0.000246299
0.000246225
0.000246154
0.000246085
0.000246018
0.000245955
0.000245894
0.000245835
0.00024578
0.000245727
0.000245677
0.00024563
0.000245585
0.000245543
0.000245503
0.000245466
0.00024543
0.000245397
0.000245365
0.000245335
0.000245307
0.000245279
0.000245253
0.000245228
0.000245204
0.000245181
0.000245159
0.000245137
0.000245115
0.000245094
0.000245073
0.000245052
0.000245032
0.000245011
0.00024499
0.00024497
0.000244949
0.000244929
0.000244908
0.000244887
0.000244866
0.000244845
0.000244824
0.000244802
0.000244781
0.00024476
0.000244738
0.000244717
0.000244695
0.000244674
0.000244652
0.000244631
0.00024461
0.000244588
0.000244568
0.000244547
0.000244526
0.000244506
0.000244486
0.000244466
0.000244447
0.000244428
0.00024441
0.000244391
0.000244374
0.000244356
0.00024434
0.000244323
0.000244307
0.000244292
0.000244277
0.000244263
0.000244249
0.000244236
0.000244224
0.000244212
0.0002442
0.000244189
0.000244179
0.00024417
0.000244161
0.000244153
0.000244145
0.000244138
0.000244132
0.000244126
0.000244122
0.000244117
0.000244114
0.000244111
0.000244108
0.000244107
0.000244106
0.000244106
0.000244106
0.000244106
0.000244106
0.000244109
0.00024411
0.000244116
0.000244117
0.000244125
0.000244127
0.000244136
0.000244138
0.000244149
0.000244152
0.000244165
0.000244169
0.000244184
0.000244188
0.000244204
0.000244209
0.000244228
0.000244233
0.000244253
0.000244259
0.000244282
0.000244289
0.000244314
0.000244321
0.00024435
0.000244358
0.00024439
0.000244399
0.000244434
0.000244444
0.000244484
0.000244495
0.000244539
0.000244551
0.000244601
0.000244615
0.000244671
0.000244686
0.000244748
0.000244765
0.000244834
0.000244852
0.000244957
)
;

boundaryField
{
    inlet
    {
        type            calculated;
        value           uniform 0.000236304;
    }
    outlet
    {
        type            calculated;
        value           uniform 0.000244939;
    }
    emptyWalls
    {
        type            empty;
    }
}


// ************************************************************************* //
