/*--------------------------------*- C++ -*----------------------------------*\
  =========                 |
  \\      /  F ield         | OpenFOAM: The Open Source CFD Toolbox
   \\    /   O peration     | Website:  https://openfoam.org
    \\  /    A nd           | Version:  9
     \\/     M anipulation  |
\*---------------------------------------------------------------------------*/
FoamFile
{
    format      ascii;
    class       volVectorField;
    location    "19950";
    object      Uc;
}
// * * * * * * * * * * * * * * * * * * * * * * * * * * * * * * * * * * * * * //

dimensions      [0 0 0 0 0 0 0];

internalField   nonuniform List<vector> 
1000
(
(6.7138e-12 0 0)
(3.50935e-11 0 0)
(9.77156e-11 0 0)
(1.97734e-10 0 0)
(3.33578e-10 0 0)
(5.04727e-10 0 0)
(7.10999e-10 0 0)
(9.52224e-10 0 0)
(1.22797e-09 0 0)
(1.53733e-09 0 0)
(1.87863e-09 0 0)
(2.24919e-09 0 0)
(2.64512e-09 0 0)
(3.06102e-09 0 0)
(3.49012e-09 0 0)
(3.92417e-09 0 0)
(4.35428e-09 0 0)
(4.77127e-09 0 0)
(5.16671e-09 0 0)
(5.53414e-09 0 0)
(5.86901e-09 0 0)
(6.17093e-09 0 0)
(6.44707e-09 0 0)
(6.73562e-09 0 0)
(7.21877e-09 0 0)
(8.71562e-09 0 0)
(1.41508e-08 0 0)
(4.02711e-08 0 0)
(1.2102e-07 0 0)
(1.92938e-07 0 0)
(2.09899e-07 0 0)
(2.15773e-07 0 0)
(2.18981e-07 0 0)
(2.21234e-07 0 0)
(2.23046e-07 0 0)
(2.24617e-07 0 0)
(2.2604e-07 0 0)
(2.27362e-07 0 0)
(2.28608e-07 0 0)
(2.29794e-07 0 0)
(2.30931e-07 0 0)
(2.32029e-07 0 0)
(2.33096e-07 0 0)
(2.34138e-07 0 0)
(2.35157e-07 0 0)
(2.36149e-07 0 0)
(2.37112e-07 0 0)
(2.38044e-07 0 0)
(2.38943e-07 0 0)
(2.39816e-07 0 0)
(2.4067e-07 0 0)
(2.41516e-07 0 0)
(2.42367e-07 0 0)
(2.43231e-07 0 0)
(2.44113e-07 0 0)
(2.45014e-07 0 0)
(2.45931e-07 0 0)
(2.46862e-07 0 0)
(2.47818e-07 0 0)
(2.48828e-07 0 0)
(2.49894e-07 0 0)
(2.50995e-07 0 0)
(2.52127e-07 0 0)
(2.53286e-07 0 0)
(2.54472e-07 0 0)
(2.55685e-07 0 0)
(2.56928e-07 0 0)
(2.58208e-07 0 0)
(2.59534e-07 0 0)
(2.60919e-07 0 0)
(2.62383e-07 0 0)
(2.6395e-07 0 0)
(2.65659e-07 0 0)
(2.67557e-07 0 0)
(2.69702e-07 0 0)
(2.72158e-07 0 0)
(2.74979e-07 0 0)
(2.78192e-07 0 0)
(2.81778e-07 0 0)
(2.85677e-07 0 0)
(2.89816e-07 0 0)
(2.94133e-07 0 0)
(2.98584e-07 0 0)
(3.03138e-07 0 0)
(3.07775e-07 0 0)
(3.12477e-07 0 0)
(3.17234e-07 0 0)
(3.22037e-07 0 0)
(3.2688e-07 0 0)
(3.31757e-07 0 0)
(3.36665e-07 0 0)
(3.416e-07 0 0)
(3.46559e-07 0 0)
(3.51542e-07 0 0)
(3.56546e-07 0 0)
(3.61569e-07 0 0)
(3.66611e-07 0 0)
(3.71671e-07 0 0)
(3.76747e-07 0 0)
(3.81839e-07 0 0)
(3.86946e-07 0 0)
(3.92068e-07 0 0)
(3.97205e-07 0 0)
(4.02355e-07 0 0)
(4.07518e-07 0 0)
(4.12694e-07 0 0)
(4.17883e-07 0 0)
(4.23084e-07 0 0)
(4.28297e-07 0 0)
(4.33521e-07 0 0)
(4.38757e-07 0 0)
(4.44004e-07 0 0)
(4.49262e-07 0 0)
(4.54531e-07 0 0)
(4.5981e-07 0 0)
(4.65099e-07 0 0)
(4.70399e-07 0 0)
(4.75708e-07 0 0)
(4.81027e-07 0 0)
(4.86356e-07 0 0)
(4.91694e-07 0 0)
(4.97041e-07 0 0)
(5.02398e-07 0 0)
(5.07763e-07 0 0)
(5.13137e-07 0 0)
(5.1852e-07 0 0)
(5.23911e-07 0 0)
(5.2931e-07 0 0)
(5.34718e-07 0 0)
(5.40134e-07 0 0)
(5.45558e-07 0 0)
(5.50991e-07 0 0)
(5.56432e-07 0 0)
(5.61882e-07 0 0)
(5.6734e-07 0 0)
(5.72806e-07 0 0)
(5.7828e-07 0 0)
(5.83763e-07 0 0)
(5.89253e-07 0 0)
(5.9475e-07 0 0)
(6.00254e-07 0 0)
(6.05766e-07 0 0)
(6.11285e-07 0 0)
(6.1681e-07 0 0)
(6.22343e-07 0 0)
(6.27884e-07 0 0)
(6.33431e-07 0 0)
(6.38987e-07 0 0)
(6.44552e-07 0 0)
(6.50124e-07 0 0)
(6.55705e-07 0 0)
(6.61292e-07 0 0)
(6.66886e-07 0 0)
(6.72484e-07 0 0)
(6.78085e-07 0 0)
(6.83687e-07 0 0)
(6.89288e-07 0 0)
(6.94888e-07 0 0)
(7.00484e-07 0 0)
(7.06076e-07 0 0)
(7.11664e-07 0 0)
(7.17248e-07 0 0)
(7.2283e-07 0 0)
(7.28409e-07 0 0)
(7.33987e-07 0 0)
(7.39566e-07 0 0)
(7.45147e-07 0 0)
(7.50733e-07 0 0)
(7.56326e-07 0 0)
(7.61929e-07 0 0)
(7.67545e-07 0 0)
(7.73177e-07 0 0)
(7.78827e-07 0 0)
(7.845e-07 0 0)
(7.90196e-07 0 0)
(7.95918e-07 0 0)
(8.01667e-07 0 0)
(8.07444e-07 0 0)
(8.13248e-07 0 0)
(8.19078e-07 0 0)
(8.24932e-07 0 0)
(8.30806e-07 0 0)
(8.36698e-07 0 0)
(8.42604e-07 0 0)
(8.4852e-07 0 0)
(8.54443e-07 0 0)
(8.60369e-07 0 0)
(8.66296e-07 0 0)
(8.72221e-07 0 0)
(8.78143e-07 0 0)
(8.8406e-07 0 0)
(8.89972e-07 0 0)
(8.95878e-07 0 0)
(9.0178e-07 0 0)
(9.07678e-07 0 0)
(9.13573e-07 0 0)
(9.19465e-07 0 0)
(9.25358e-07 0 0)
(9.3125e-07 0 0)
(9.37145e-07 0 0)
(9.43043e-07 0 0)
(9.48944e-07 0 0)
(9.54851e-07 0 0)
(9.60764e-07 0 0)
(9.66683e-07 0 0)
(9.72609e-07 0 0)
(9.78542e-07 0 0)
(9.84483e-07 0 0)
(9.90431e-07 0 0)
(9.96387e-07 0 0)
(1.00235e-06 0 0)
(1.00832e-06 0 0)
(1.0143e-06 0 0)
(1.02028e-06 0 0)
(1.02627e-06 0 0)
(1.03227e-06 0 0)
(1.03828e-06 0 0)
(1.04429e-06 0 0)
(1.05031e-06 0 0)
(1.05633e-06 0 0)
(1.06236e-06 0 0)
(1.06839e-06 0 0)
(1.07443e-06 0 0)
(1.08047e-06 0 0)
(1.08652e-06 0 0)
(1.09258e-06 0 0)
(1.09864e-06 0 0)
(1.10471e-06 0 0)
(1.11078e-06 0 0)
(1.11685e-06 0 0)
(1.12293e-06 0 0)
(1.12902e-06 0 0)
(1.13511e-06 0 0)
(1.14121e-06 0 0)
(1.14731e-06 0 0)
(1.15341e-06 0 0)
(1.15952e-06 0 0)
(1.16563e-06 0 0)
(1.17175e-06 0 0)
(1.17788e-06 0 0)
(1.18401e-06 0 0)
(1.19014e-06 0 0)
(1.19628e-06 0 0)
(1.20242e-06 0 0)
(1.20857e-06 0 0)
(1.21472e-06 0 0)
(1.22088e-06 0 0)
(1.22704e-06 0 0)
(1.2332e-06 0 0)
(1.23937e-06 0 0)
(1.24555e-06 0 0)
(1.25173e-06 0 0)
(1.25791e-06 0 0)
(1.2641e-06 0 0)
(1.27029e-06 0 0)
(1.27648e-06 0 0)
(1.28268e-06 0 0)
(1.28889e-06 0 0)
(1.2951e-06 0 0)
(1.30131e-06 0 0)
(1.30753e-06 0 0)
(1.31375e-06 0 0)
(1.31998e-06 0 0)
(1.32621e-06 0 0)
(1.33245e-06 0 0)
(1.33869e-06 0 0)
(1.34493e-06 0 0)
(1.35119e-06 0 0)
(1.35744e-06 0 0)
(1.3637e-06 0 0)
(1.36997e-06 0 0)
(1.37624e-06 0 0)
(1.38251e-06 0 0)
(1.38879e-06 0 0)
(1.39507e-06 0 0)
(1.40136e-06 0 0)
(1.40765e-06 0 0)
(1.41395e-06 0 0)
(1.42026e-06 0 0)
(1.42657e-06 0 0)
(1.43288e-06 0 0)
(1.4392e-06 0 0)
(1.44553e-06 0 0)
(1.45186e-06 0 0)
(1.45819e-06 0 0)
(1.46453e-06 0 0)
(1.47086e-06 0 0)
(1.47721e-06 0 0)
(1.48355e-06 0 0)
(1.48989e-06 0 0)
(1.49623e-06 0 0)
(1.50256e-06 0 0)
(1.5089e-06 0 0)
(1.51522e-06 0 0)
(1.52155e-06 0 0)
(1.52786e-06 0 0)
(1.53417e-06 0 0)
(1.54048e-06 0 0)
(1.54678e-06 0 0)
(1.55307e-06 0 0)
(1.55936e-06 0 0)
(1.56565e-06 0 0)
(1.57193e-06 0 0)
(1.57822e-06 0 0)
(1.58451e-06 0 0)
(1.5908e-06 0 0)
(1.5971e-06 0 0)
(1.60341e-06 0 0)
(1.60973e-06 0 0)
(1.61606e-06 0 0)
(1.62242e-06 0 0)
(1.62879e-06 0 0)
(1.63519e-06 0 0)
(1.64161e-06 0 0)
(1.64806e-06 0 0)
(1.65453e-06 0 0)
(1.66104e-06 0 0)
(1.66757e-06 0 0)
(1.67414e-06 0 0)
(1.68073e-06 0 0)
(1.68734e-06 0 0)
(1.69398e-06 0 0)
(1.70065e-06 0 0)
(1.70733e-06 0 0)
(1.71403e-06 0 0)
(1.72074e-06 0 0)
(1.72746e-06 0 0)
(1.73419e-06 0 0)
(1.74093e-06 0 0)
(1.74766e-06 0 0)
(1.7544e-06 0 0)
(1.76113e-06 0 0)
(1.76787e-06 0 0)
(1.77459e-06 0 0)
(1.78132e-06 0 0)
(1.78803e-06 0 0)
(1.79475e-06 0 0)
(1.80145e-06 0 0)
(1.80816e-06 0 0)
(1.81486e-06 0 0)
(1.82155e-06 0 0)
(1.82825e-06 0 0)
(1.83495e-06 0 0)
(1.84164e-06 0 0)
(1.84834e-06 0 0)
(1.85504e-06 0 0)
(1.86174e-06 0 0)
(1.86845e-06 0 0)
(1.87516e-06 0 0)
(1.88188e-06 0 0)
(1.8886e-06 0 0)
(1.89533e-06 0 0)
(1.90207e-06 0 0)
(1.90881e-06 0 0)
(1.91556e-06 0 0)
(1.92232e-06 0 0)
(1.92909e-06 0 0)
(1.93586e-06 0 0)
(1.94265e-06 0 0)
(1.94944e-06 0 0)
(1.95623e-06 0 0)
(1.96304e-06 0 0)
(1.96985e-06 0 0)
(1.97667e-06 0 0)
(1.9835e-06 0 0)
(1.99033e-06 0 0)
(1.99717e-06 0 0)
(2.00402e-06 0 0)
(2.01087e-06 0 0)
(2.01773e-06 0 0)
(2.0246e-06 0 0)
(2.03147e-06 0 0)
(2.03835e-06 0 0)
(2.04523e-06 0 0)
(2.05212e-06 0 0)
(2.05902e-06 0 0)
(2.06592e-06 0 0)
(2.07283e-06 0 0)
(2.07974e-06 0 0)
(2.08666e-06 0 0)
(2.09359e-06 0 0)
(2.10052e-06 0 0)
(2.10746e-06 0 0)
(2.1144e-06 0 0)
(2.12135e-06 0 0)
(2.1283e-06 0 0)
(2.13526e-06 0 0)
(2.14222e-06 0 0)
(2.14919e-06 0 0)
(2.15617e-06 0 0)
(2.16315e-06 0 0)
(2.17013e-06 0 0)
(2.17713e-06 0 0)
(2.18412e-06 0 0)
(2.19113e-06 0 0)
(2.19813e-06 0 0)
(2.20515e-06 0 0)
(2.21217e-06 0 0)
(2.21919e-06 0 0)
(2.22622e-06 0 0)
(2.23326e-06 0 0)
(2.2403e-06 0 0)
(2.24735e-06 0 0)
(2.2544e-06 0 0)
(2.26146e-06 0 0)
(2.26852e-06 0 0)
(2.27559e-06 0 0)
(2.28267e-06 0 0)
(2.28975e-06 0 0)
(2.29683e-06 0 0)
(2.30392e-06 0 0)
(2.31102e-06 0 0)
(2.31813e-06 0 0)
(2.32524e-06 0 0)
(2.33235e-06 0 0)
(2.33947e-06 0 0)
(2.3466e-06 0 0)
(2.35374e-06 0 0)
(2.36088e-06 0 0)
(2.36802e-06 0 0)
(2.37518e-06 0 0)
(2.38234e-06 0 0)
(2.3895e-06 0 0)
(2.39667e-06 0 0)
(2.40385e-06 0 0)
(2.41104e-06 0 0)
(2.41823e-06 0 0)
(2.42543e-06 0 0)
(2.43264e-06 0 0)
(2.43985e-06 0 0)
(2.44707e-06 0 0)
(2.4543e-06 0 0)
(2.46153e-06 0 0)
(2.46877e-06 0 0)
(2.47601e-06 0 0)
(2.48326e-06 0 0)
(2.49051e-06 0 0)
(2.49777e-06 0 0)
(2.50503e-06 0 0)
(2.51229e-06 0 0)
(2.51955e-06 0 0)
(2.52682e-06 0 0)
(2.53408e-06 0 0)
(2.54135e-06 0 0)
(2.54861e-06 0 0)
(2.55588e-06 0 0)
(2.56313e-06 0 0)
(2.57039e-06 0 0)
(2.57764e-06 0 0)
(2.58489e-06 0 0)
(2.59214e-06 0 0)
(2.59938e-06 0 0)
(2.60663e-06 0 0)
(2.61387e-06 0 0)
(2.6211e-06 0 0)
(2.62834e-06 0 0)
(2.63558e-06 0 0)
(2.64282e-06 0 0)
(2.65007e-06 0 0)
(2.65732e-06 0 0)
(2.66459e-06 0 0)
(2.67186e-06 0 0)
(2.67914e-06 0 0)
(2.68644e-06 0 0)
(2.69376e-06 0 0)
(2.7011e-06 0 0)
(2.70846e-06 0 0)
(2.71584e-06 0 0)
(2.72325e-06 0 0)
(2.73069e-06 0 0)
(2.73816e-06 0 0)
(2.74566e-06 0 0)
(2.75319e-06 0 0)
(2.76075e-06 0 0)
(2.76835e-06 0 0)
(2.77597e-06 0 0)
(2.78363e-06 0 0)
(2.79132e-06 0 0)
(2.79905e-06 0 0)
(2.80679e-06 0 0)
(2.81457e-06 0 0)
(2.82237e-06 0 0)
(2.83019e-06 0 0)
(2.83803e-06 0 0)
(2.84588e-06 0 0)
(2.85375e-06 0 0)
(2.86163e-06 0 0)
(2.86953e-06 0 0)
(2.87743e-06 0 0)
(2.88533e-06 0 0)
(2.89324e-06 0 0)
(2.90115e-06 0 0)
(2.90907e-06 0 0)
(2.91698e-06 0 0)
(2.92489e-06 0 0)
(2.93281e-06 0 0)
(2.94072e-06 0 0)
(2.94863e-06 0 0)
(2.95655e-06 0 0)
(2.96446e-06 0 0)
(2.97237e-06 0 0)
(2.98029e-06 0 0)
(2.98821e-06 0 0)
(2.99613e-06 0 0)
(3.00405e-06 0 0)
(3.01198e-06 0 0)
(3.01991e-06 0 0)
(3.02786e-06 0 0)
(3.0358e-06 0 0)
(3.04376e-06 0 0)
(3.05173e-06 0 0)
(3.0597e-06 0 0)
(3.06768e-06 0 0)
(3.07568e-06 0 0)
(3.08368e-06 0 0)
(3.0917e-06 0 0)
(3.09973e-06 0 0)
(3.10776e-06 0 0)
(3.11582e-06 0 0)
(3.12388e-06 0 0)
(3.13195e-06 0 0)
(3.14004e-06 0 0)
(3.14814e-06 0 0)
(3.15625e-06 0 0)
(3.16437e-06 0 0)
(3.1725e-06 0 0)
(3.18065e-06 0 0)
(3.18881e-06 0 0)
(3.19698e-06 0 0)
(3.20516e-06 0 0)
(3.21336e-06 0 0)
(3.22156e-06 0 0)
(3.22978e-06 0 0)
(3.23801e-06 0 0)
(3.24625e-06 0 0)
(3.2545e-06 0 0)
(3.26276e-06 0 0)
(3.27103e-06 0 0)
(3.27932e-06 0 0)
(3.28761e-06 0 0)
(3.29592e-06 0 0)
(3.30424e-06 0 0)
(3.31257e-06 0 0)
(3.32091e-06 0 0)
(3.32926e-06 0 0)
(3.33762e-06 0 0)
(3.346e-06 0 0)
(3.35438e-06 0 0)
(3.36278e-06 0 0)
(3.37119e-06 0 0)
(3.3796e-06 0 0)
(3.38803e-06 0 0)
(3.39647e-06 0 0)
(3.40493e-06 0 0)
(3.41339e-06 0 0)
(3.42187e-06 0 0)
(3.43035e-06 0 0)
(3.43885e-06 0 0)
(3.44736e-06 0 0)
(3.45588e-06 0 0)
(3.46441e-06 0 0)
(3.47296e-06 0 0)
(3.48151e-06 0 0)
(3.49008e-06 0 0)
(3.49866e-06 0 0)
(3.50725e-06 0 0)
(3.51585e-06 0 0)
(3.52447e-06 0 0)
(3.5331e-06 0 0)
(3.54174e-06 0 0)
(3.55039e-06 0 0)
(3.55906e-06 0 0)
(3.56773e-06 0 0)
(3.57642e-06 0 0)
(3.58513e-06 0 0)
(3.59384e-06 0 0)
(3.60257e-06 0 0)
(3.61131e-06 0 0)
(3.62007e-06 0 0)
(3.62884e-06 0 0)
(3.63762e-06 0 0)
(3.64641e-06 0 0)
(3.65522e-06 0 0)
(3.66404e-06 0 0)
(3.67288e-06 0 0)
(3.68173e-06 0 0)
(3.6906e-06 0 0)
(3.69948e-06 0 0)
(3.70837e-06 0 0)
(3.71728e-06 0 0)
(3.7262e-06 0 0)
(3.73514e-06 0 0)
(3.74409e-06 0 0)
(3.75306e-06 0 0)
(3.76204e-06 0 0)
(3.77103e-06 0 0)
(3.78004e-06 0 0)
(3.78907e-06 0 0)
(3.79811e-06 0 0)
(3.80716e-06 0 0)
(3.81623e-06 0 0)
(3.82531e-06 0 0)
(3.83441e-06 0 0)
(3.84351e-06 0 0)
(3.85263e-06 0 0)
(3.86177e-06 0 0)
(3.87091e-06 0 0)
(3.88006e-06 0 0)
(3.88923e-06 0 0)
(3.8984e-06 0 0)
(3.90759e-06 0 0)
(3.91678e-06 0 0)
(3.92598e-06 0 0)
(3.93519e-06 0 0)
(3.94441e-06 0 0)
(3.95364e-06 0 0)
(3.96287e-06 0 0)
(3.97211e-06 0 0)
(3.98136e-06 0 0)
(3.99062e-06 0 0)
(3.99988e-06 0 0)
(4.00916e-06 0 0)
(4.01844e-06 0 0)
(4.02774e-06 0 0)
(4.03704e-06 0 0)
(4.04636e-06 0 0)
(4.0557e-06 0 0)
(4.06505e-06 0 0)
(4.07441e-06 0 0)
(4.0838e-06 0 0)
(4.09321e-06 0 0)
(4.10264e-06 0 0)
(4.11209e-06 0 0)
(4.12157e-06 0 0)
(4.13109e-06 0 0)
(4.14063e-06 0 0)
(4.1502e-06 0 0)
(4.15981e-06 0 0)
(4.16946e-06 0 0)
(4.17915e-06 0 0)
(4.18888e-06 0 0)
(4.19865e-06 0 0)
(4.20847e-06 0 0)
(4.21833e-06 0 0)
(4.22824e-06 0 0)
(4.2382e-06 0 0)
(4.24821e-06 0 0)
(4.25826e-06 0 0)
(4.26836e-06 0 0)
(4.27851e-06 0 0)
(4.2887e-06 0 0)
(4.29894e-06 0 0)
(4.30923e-06 0 0)
(4.31956e-06 0 0)
(4.32993e-06 0 0)
(4.34034e-06 0 0)
(4.35079e-06 0 0)
(4.36128e-06 0 0)
(4.3718e-06 0 0)
(4.38236e-06 0 0)
(4.39294e-06 0 0)
(4.40356e-06 0 0)
(4.4142e-06 0 0)
(4.42486e-06 0 0)
(4.43556e-06 0 0)
(4.44627e-06 0 0)
(4.45701e-06 0 0)
(4.46776e-06 0 0)
(4.47854e-06 0 0)
(4.48934e-06 0 0)
(4.50015e-06 0 0)
(4.51099e-06 0 0)
(4.52184e-06 0 0)
(4.53272e-06 0 0)
(4.54361e-06 0 0)
(4.55453e-06 0 0)
(4.56546e-06 0 0)
(4.57642e-06 0 0)
(4.5874e-06 0 0)
(4.5984e-06 0 0)
(4.60943e-06 0 0)
(4.62048e-06 0 0)
(4.63156e-06 0 0)
(4.64267e-06 0 0)
(4.6538e-06 0 0)
(4.66496e-06 0 0)
(4.67616e-06 0 0)
(4.68738e-06 0 0)
(4.69863e-06 0 0)
(4.70992e-06 0 0)
(4.72124e-06 0 0)
(4.7326e-06 0 0)
(4.74399e-06 0 0)
(4.75541e-06 0 0)
(4.76687e-06 0 0)
(4.77837e-06 0 0)
(4.7899e-06 0 0)
(4.80147e-06 0 0)
(4.81308e-06 0 0)
(4.82473e-06 0 0)
(4.83641e-06 0 0)
(4.84814e-06 0 0)
(4.8599e-06 0 0)
(4.87171e-06 0 0)
(4.88355e-06 0 0)
(4.89543e-06 0 0)
(4.90736e-06 0 0)
(4.91933e-06 0 0)
(4.93133e-06 0 0)
(4.94338e-06 0 0)
(4.95547e-06 0 0)
(4.9676e-06 0 0)
(4.97977e-06 0 0)
(4.99199e-06 0 0)
(5.00425e-06 0 0)
(5.01655e-06 0 0)
(5.02889e-06 0 0)
(5.04128e-06 0 0)
(5.05371e-06 0 0)
(5.06618e-06 0 0)
(5.07869e-06 0 0)
(5.09125e-06 0 0)
(5.10385e-06 0 0)
(5.1165e-06 0 0)
(5.12919e-06 0 0)
(5.14192e-06 0 0)
(5.1547e-06 0 0)
(5.16752e-06 0 0)
(5.18038e-06 0 0)
(5.19329e-06 0 0)
(5.20624e-06 0 0)
(5.21922e-06 0 0)
(5.23225e-06 0 0)
(5.24532e-06 0 0)
(5.25843e-06 0 0)
(5.27158e-06 0 0)
(5.28476e-06 0 0)
(5.29798e-06 0 0)
(5.31123e-06 0 0)
(5.3245e-06 0 0)
(5.33781e-06 0 0)
(5.35113e-06 0 0)
(5.36448e-06 0 0)
(5.37784e-06 0 0)
(5.39121e-06 0 0)
(5.40458e-06 0 0)
(5.41795e-06 0 0)
(5.43129e-06 0 0)
(5.44462e-06 0 0)
(5.45791e-06 0 0)
(5.47115e-06 0 0)
(5.48432e-06 0 0)
(5.49742e-06 0 0)
(5.51041e-06 0 0)
(5.52327e-06 0 0)
(5.53599e-06 0 0)
(5.54854e-06 0 0)
(5.5609e-06 0 0)
(5.57301e-06 0 0)
(5.58486e-06 0 0)
(5.59642e-06 0 0)
(5.60764e-06 0 0)
(5.61849e-06 0 0)
(5.62895e-06 0 0)
(5.63897e-06 0 0)
(5.64851e-06 0 0)
(5.65756e-06 0 0)
(5.66609e-06 0 0)
(5.67407e-06 0 0)
(5.6815e-06 0 0)
(5.68837e-06 0 0)
(5.69466e-06 0 0)
(5.70039e-06 0 0)
(5.70556e-06 0 0)
(5.71019e-06 0 0)
(5.71431e-06 0 0)
(5.71795e-06 0 0)
(5.72112e-06 0 0)
(5.72387e-06 0 0)
(5.72622e-06 0 0)
(5.72821e-06 0 0)
(5.7299e-06 0 0)
(5.73131e-06 0 0)
(5.73249e-06 0 0)
(5.73346e-06 0 0)
(5.73428e-06 0 0)
(5.735e-06 0 0)
(5.7357e-06 0 0)
(5.73649e-06 0 0)
(5.73756e-06 0 0)
(5.73923e-06 0 0)
(5.74203e-06 0 0)
(5.74693e-06 0 0)
(5.75568e-06 0 0)
(5.77131e-06 0 0)
(5.79918e-06 0 0)
(5.84844e-06 0 0)
(5.93414e-06 0 0)
(6.07933e-06 0 0)
(6.31468e-06 0 0)
(6.67038e-06 0 0)
(7.15544e-06 0 0)
(7.73208e-06 0 0)
(8.31431e-06 0 0)
(8.80937e-06 0 0)
(9.16855e-06 0 0)
(9.39781e-06 0 0)
(9.53144e-06 0 0)
(9.60491e-06 0 0)
(9.64389e-06 0 0)
(9.6641e-06 0 0)
(9.67435e-06 0 0)
(9.67939e-06 0 0)
(9.68175e-06 0 0)
(9.68272e-06 0 0)
(9.68298e-06 0 0)
(9.68288e-06 0 0)
(9.68259e-06 0 0)
(9.68221e-06 0 0)
(9.6818e-06 0 0)
(9.68137e-06 0 0)
(9.68094e-06 0 0)
(9.68052e-06 0 0)
(9.68011e-06 0 0)
(9.67973e-06 0 0)
(9.67937e-06 0 0)
(9.67903e-06 0 0)
(9.67872e-06 0 0)
(9.67844e-06 0 0)
(9.6782e-06 0 0)
(9.67798e-06 0 0)
(9.6778e-06 0 0)
(9.67766e-06 0 0)
(9.67757e-06 0 0)
(9.67751e-06 0 0)
(9.67749e-06 0 0)
(9.67749e-06 0 0)
(9.6775e-06 0 0)
(9.67757e-06 0 0)
(9.67769e-06 0 0)
(9.67786e-06 0 0)
(9.67806e-06 0 0)
(9.67828e-06 0 0)
(9.67854e-06 0 0)
(9.67883e-06 0 0)
(9.67914e-06 0 0)
(9.67947e-06 0 0)
(9.67983e-06 0 0)
(9.6802e-06 0 0)
(9.68059e-06 0 0)
(9.681e-06 0 0)
(9.68141e-06 0 0)
(9.68184e-06 0 0)
(9.68227e-06 0 0)
(9.6827e-06 0 0)
(9.68314e-06 0 0)
(9.68357e-06 0 0)
(9.684e-06 0 0)
(9.68442e-06 0 0)
(9.68483e-06 0 0)
(9.68524e-06 0 0)
(9.68563e-06 0 0)
(9.68602e-06 0 0)
(9.68639e-06 0 0)
(9.68674e-06 0 0)
(9.68708e-06 0 0)
(9.68741e-06 0 0)
(9.68773e-06 0 0)
(9.68802e-06 0 0)
(9.68831e-06 0 0)
(9.68858e-06 0 0)
(9.68883e-06 0 0)
(9.68907e-06 0 0)
(9.6893e-06 0 0)
(9.68951e-06 0 0)
(9.68971e-06 0 0)
(9.68991e-06 0 0)
(9.69009e-06 0 0)
(9.69026e-06 0 0)
(9.69042e-06 0 0)
(9.69057e-06 0 0)
(9.69072e-06 0 0)
(9.69086e-06 0 0)
(9.691e-06 0 0)
(9.69112e-06 0 0)
(9.69125e-06 0 0)
(9.69137e-06 0 0)
(9.69149e-06 0 0)
(9.69161e-06 0 0)
(9.69172e-06 0 0)
(9.69183e-06 0 0)
(9.69194e-06 0 0)
(9.69205e-06 0 0)
(9.69216e-06 0 0)
(9.69227e-06 0 0)
(9.69238e-06 0 0)
(9.69249e-06 0 0)
(9.6926e-06 0 0)
(9.69271e-06 0 0)
(9.69282e-06 0 0)
(9.69293e-06 0 0)
(9.69304e-06 0 0)
(9.69315e-06 0 0)
(9.69326e-06 0 0)
(9.69337e-06 0 0)
(9.69348e-06 0 0)
(9.6936e-06 0 0)
(9.69371e-06 0 0)
(9.69382e-06 0 0)
(9.69393e-06 0 0)
(9.69404e-06 0 0)
(9.69415e-06 0 0)
(9.69426e-06 0 0)
(9.69437e-06 0 0)
(9.69448e-06 0 0)
(9.69459e-06 0 0)
(9.69469e-06 0 0)
(9.6948e-06 0 0)
(9.6949e-06 0 0)
(9.695e-06 0 0)
(9.6951e-06 0 0)
(9.6952e-06 0 0)
(9.69529e-06 0 0)
(9.69539e-06 0 0)
(9.69548e-06 0 0)
(9.69557e-06 0 0)
(9.69565e-06 0 0)
(9.69574e-06 0 0)
(9.69582e-06 0 0)
(9.6959e-06 0 0)
(9.69597e-06 0 0)
(9.69605e-06 0 0)
(9.69612e-06 0 0)
(9.69618e-06 0 0)
(9.69625e-06 0 0)
(9.69631e-06 0 0)
(9.69637e-06 0 0)
(9.69642e-06 0 0)
(9.69647e-06 0 0)
(9.69652e-06 0 0)
(9.69657e-06 0 0)
(9.69661e-06 0 0)
(9.69665e-06 0 0)
(9.69668e-06 0 0)
(9.69671e-06 0 0)
(9.69674e-06 0 0)
(9.69677e-06 0 0)
(9.69679e-06 0 0)
(9.69681e-06 0 0)
(9.69682e-06 0 0)
(9.69684e-06 0 0)
(9.69684e-06 0 0)
(9.69685e-06 0 0)
(9.69685e-06 0 0)
(9.69685e-06 0 0)
(9.69685e-06 0 0)
(9.69684e-06 0 0)
(9.69683e-06 0 0)
(9.69682e-06 0 0)
(9.6968e-06 0 0)
(9.69678e-06 0 0)
(9.69676e-06 0 0)
(9.69673e-06 0 0)
(9.6967e-06 0 0)
(9.69667e-06 0 0)
(9.69663e-06 0 0)
(9.69659e-06 0 0)
(9.69655e-06 0 0)
(9.6965e-06 0 0)
(9.69645e-06 0 0)
(9.6964e-06 0 0)
(9.69635e-06 0 0)
(9.69629e-06 0 0)
(9.69623e-06 0 0)
(9.69616e-06 0 0)
(9.69609e-06 0 0)
(9.69602e-06 0 0)
(9.69595e-06 0 0)
(9.69586e-06 0 0)
(9.69578e-06 0 0)
(9.69569e-06 0 0)
(9.6956e-06 0 0)
(9.6955e-06 0 0)
(9.69539e-06 0 0)
(9.69528e-06 0 0)
(9.69516e-06 0 0)
(9.69504e-06 0 0)
(9.69491e-06 0 0)
(9.69477e-06 0 0)
(9.69462e-06 0 0)
(9.69447e-06 0 0)
(9.69431e-06 0 0)
(9.69414e-06 0 0)
(9.69395e-06 0 0)
(9.69376e-06 0 0)
(9.69356e-06 0 0)
(9.69334e-06 0 0)
(9.69312e-06 0 0)
(9.69288e-06 0 0)
(9.69263e-06 0 0)
)
;

boundaryField
{
    inlet
    {
        type            fixedValue;
        value           uniform (0 0 0);
    }
    outlet
    {
        type            zeroGradient;
    }
    emptyWalls
    {
        type            empty;
    }
}


// ************************************************************************* //
