/*--------------------------------*- C++ -*----------------------------------*\
  =========                 |
  \\      /  F ield         | OpenFOAM: The Open Source CFD Toolbox
   \\    /   O peration     | Website:  https://openfoam.org
    \\  /    A nd           | Version:  9
     \\/     M anipulation  |
\*---------------------------------------------------------------------------*/
FoamFile
{
    format      ascii;
    class       surfaceScalarField;
    location    "4400";
    object      phia;
}
// * * * * * * * * * * * * * * * * * * * * * * * * * * * * * * * * * * * * * //

dimensions      [0 2 0 0 0 0 0];

internalField   nonuniform List<scalar> 
999
(
2.74731e-10
2.74517e-10
2.73998e-10
2.72718e-10
2.68508e-10
2.45277e-10
2.21287e-10
2.16389e-10
2.13095e-10
2.10739e-10
2.08711e-10
2.07052e-10
2.05986e-10
2.05121e-10
2.04466e-10
2.04197e-10
2.04299e-10
2.0448e-10
2.04674e-10
2.04849e-10
2.04987e-10
2.05076e-10
2.05117e-10
2.05112e-10
2.0507e-10
2.04998e-10
2.04906e-10
2.048e-10
2.04685e-10
2.04565e-10
2.04443e-10
2.04319e-10
2.04194e-10
2.04068e-10
2.03941e-10
2.03814e-10
2.03686e-10
2.03558e-10
2.0343e-10
2.03301e-10
2.03171e-10
2.03039e-10
2.02905e-10
2.02769e-10
2.02632e-10
2.02493e-10
2.02354e-10
2.02215e-10
2.02076e-10
2.01936e-10
2.01797e-10
2.01657e-10
2.01518e-10
2.01379e-10
2.0124e-10
2.01102e-10
2.00965e-10
2.00829e-10
2.00696e-10
2.00566e-10
2.00438e-10
2.00314e-10
2.00193e-10
2.00075e-10
1.9996e-10
1.99848e-10
1.99738e-10
1.99631e-10
1.99526e-10
1.99423e-10
1.99321e-10
1.99221e-10
1.99123e-10
1.99026e-10
1.98929e-10
1.98834e-10
1.9874e-10
1.98645e-10
1.98552e-10
1.98458e-10
1.98364e-10
1.9827e-10
1.98176e-10
1.98081e-10
1.97986e-10
1.9789e-10
1.97794e-10
1.97697e-10
1.976e-10
1.97502e-10
1.97404e-10
1.97306e-10
1.97208e-10
1.97112e-10
1.97016e-10
1.96921e-10
1.96828e-10
1.96737e-10
1.96648e-10
1.96561e-10
1.96477e-10
1.96395e-10
1.96316e-10
1.96239e-10
1.96166e-10
1.96094e-10
1.96025e-10
1.95959e-10
1.95894e-10
1.95831e-10
1.9577e-10
1.95711e-10
1.95654e-10
1.95599e-10
1.95546e-10
1.95495e-10
1.95445e-10
1.95397e-10
1.9535e-10
1.95303e-10
1.95256e-10
1.95209e-10
1.95161e-10
1.95113e-10
1.95066e-10
1.95019e-10
1.94974e-10
1.94933e-10
1.94897e-10
1.94867e-10
1.94847e-10
1.94836e-10
1.94838e-10
1.94853e-10
1.94881e-10
1.94924e-10
1.94981e-10
1.95051e-10
1.95133e-10
1.95225e-10
1.95326e-10
1.95432e-10
1.95542e-10
1.95651e-10
1.95756e-10
1.95854e-10
1.95941e-10
1.96012e-10
1.96063e-10
1.9609e-10
1.96089e-10
1.96057e-10
1.95989e-10
1.95883e-10
1.95736e-10
1.95549e-10
1.95321e-10
1.95054e-10
1.94749e-10
1.94413e-10
1.94049e-10
1.93664e-10
1.93265e-10
1.92859e-10
1.92454e-10
1.92057e-10
1.91674e-10
1.91307e-10
1.90959e-10
1.90623e-10
1.90288e-10
1.8993e-10
1.89514e-10
1.88991e-10
1.88325e-10
1.87534e-10
1.8673e-10
1.86077e-10
1.8566e-10
1.85445e-10
1.85353e-10
1.85328e-10
1.85333e-10
1.85356e-10
1.8539e-10
1.85424e-10
1.85461e-10
1.85498e-10
1.85532e-10
1.85564e-10
1.85592e-10
1.85616e-10
1.85636e-10
1.85652e-10
1.85663e-10
1.8567e-10
1.85673e-10
1.85673e-10
1.85673e-10
1.85669e-10
1.85658e-10
1.85646e-10
1.85632e-10
1.85617e-10
1.85601e-10
1.85584e-10
1.85565e-10
1.85546e-10
1.85526e-10
1.85506e-10
1.85486e-10
1.85465e-10
1.85444e-10
1.85424e-10
1.85403e-10
1.85383e-10
1.85362e-10
1.85342e-10
1.85322e-10
1.85302e-10
1.85282e-10
1.85263e-10
1.85243e-10
1.85224e-10
1.85205e-10
1.85186e-10
1.85168e-10
1.85149e-10
1.8513e-10
1.85112e-10
1.85094e-10
1.85075e-10
1.85057e-10
1.85039e-10
1.8502e-10
1.85002e-10
1.84984e-10
1.84965e-10
1.84947e-10
1.84928e-10
1.8491e-10
1.84891e-10
1.84872e-10
1.84854e-10
1.84835e-10
1.84817e-10
1.84798e-10
1.8478e-10
1.84762e-10
1.84744e-10
1.84726e-10
1.84709e-10
1.84692e-10
1.84675e-10
1.84659e-10
1.84644e-10
1.84629e-10
1.84615e-10
1.84602e-10
1.84589e-10
1.84577e-10
1.84566e-10
1.84556e-10
1.84547e-10
1.84539e-10
1.84532e-10
1.84526e-10
1.8452e-10
1.84516e-10
1.84513e-10
1.84512e-10
1.84511e-10
1.8451e-10
1.8451e-10
1.84511e-10
1.84513e-10
1.84517e-10
1.84521e-10
1.84526e-10
1.84532e-10
1.84538e-10
1.84545e-10
1.84552e-10
1.8456e-10
1.84568e-10
1.84576e-10
1.84585e-10
1.84594e-10
1.84602e-10
1.84611e-10
1.84619e-10
1.84628e-10
1.84636e-10
1.84644e-10
1.84651e-10
1.84658e-10
1.84665e-10
1.84672e-10
1.84678e-10
1.84684e-10
1.84689e-10
1.84695e-10
1.847e-10
1.84706e-10
1.84712e-10
1.84718e-10
1.84726e-10
1.84734e-10
1.84743e-10
1.84753e-10
1.84764e-10
1.84778e-10
1.84793e-10
1.84809e-10
1.84828e-10
1.84849e-10
1.84872e-10
1.84898e-10
1.84926e-10
1.84956e-10
1.84988e-10
1.85023e-10
1.8506e-10
1.851e-10
1.85142e-10
1.85186e-10
1.85233e-10
1.85282e-10
1.85334e-10
1.85389e-10
1.85447e-10
1.85508e-10
1.85573e-10
1.85642e-10
1.85716e-10
1.85794e-10
1.85876e-10
1.85964e-10
1.86058e-10
1.86157e-10
1.86262e-10
1.86372e-10
1.86489e-10
1.86612e-10
1.8674e-10
1.86873e-10
1.87011e-10
1.87153e-10
1.87298e-10
1.87445e-10
1.87594e-10
1.87742e-10
1.87889e-10
1.88034e-10
1.88173e-10
1.88306e-10
1.88431e-10
1.88546e-10
1.88649e-10
1.88739e-10
1.88812e-10
1.88868e-10
1.88904e-10
1.88922e-10
1.88926e-10
1.88926e-10
1.88914e-10
1.88857e-10
1.88767e-10
1.88655e-10
1.88521e-10
1.88369e-10
1.882e-10
1.88017e-10
1.87821e-10
1.87618e-10
1.87409e-10
1.87198e-10
1.86988e-10
1.86782e-10
1.86583e-10
1.86393e-10
1.86214e-10
1.86048e-10
1.85897e-10
1.8576e-10
1.8564e-10
1.85535e-10
1.85445e-10
1.85371e-10
1.85311e-10
1.85264e-10
1.8523e-10
1.85207e-10
1.85194e-10
1.85189e-10
1.85188e-10
1.85188e-10
1.85194e-10
1.85215e-10
1.85237e-10
1.85261e-10
1.85285e-10
1.85308e-10
1.85331e-10
1.85353e-10
1.85373e-10
1.8539e-10
1.85406e-10
1.85419e-10
1.85429e-10
1.85438e-10
1.85443e-10
1.85447e-10
1.85448e-10
1.85448e-10
1.85448e-10
1.85447e-10
1.85441e-10
1.85434e-10
1.85426e-10
1.85417e-10
1.85408e-10
1.85398e-10
1.85388e-10
1.85377e-10
1.85367e-10
1.85357e-10
1.85347e-10
1.85337e-10
1.85328e-10
1.85318e-10
1.8531e-10
1.85301e-10
1.85293e-10
1.85286e-10
1.85279e-10
1.85272e-10
1.85266e-10
1.8526e-10
1.85255e-10
1.8525e-10
1.85245e-10
1.8524e-10
1.85236e-10
1.85232e-10
1.85228e-10
1.85223e-10
1.85219e-10
1.85215e-10
1.85211e-10
1.85207e-10
1.85202e-10
1.85197e-10
1.85192e-10
1.85187e-10
1.85181e-10
1.85174e-10
1.85167e-10
1.85159e-10
1.85151e-10
1.85142e-10
1.85133e-10
1.85123e-10
1.85112e-10
1.851e-10
1.85088e-10
1.85075e-10
1.85062e-10
1.85048e-10
1.85033e-10
1.85017e-10
1.85001e-10
1.84985e-10
1.84968e-10
1.84951e-10
1.84933e-10
1.84915e-10
1.84897e-10
1.84879e-10
1.84861e-10
1.84843e-10
1.84825e-10
1.84808e-10
1.84791e-10
1.84774e-10
1.84758e-10
1.84743e-10
1.84728e-10
1.84714e-10
1.84701e-10
1.84689e-10
1.84678e-10
1.84668e-10
1.8466e-10
1.84653e-10
1.84647e-10
1.84642e-10
1.84639e-10
1.84637e-10
1.84637e-10
1.84637e-10
1.84637e-10
1.84639e-10
1.84644e-10
1.84651e-10
1.84659e-10
1.84668e-10
1.84678e-10
1.84689e-10
1.84702e-10
1.84715e-10
1.8473e-10
1.84745e-10
1.84761e-10
1.84778e-10
1.84795e-10
1.84812e-10
1.84831e-10
1.84849e-10
1.84868e-10
1.84887e-10
1.84906e-10
1.84925e-10
1.84944e-10
1.84964e-10
1.84983e-10
1.85003e-10
1.85022e-10
1.85042e-10
1.85062e-10
1.85082e-10
1.85103e-10
1.85124e-10
1.85145e-10
1.85168e-10
1.85192e-10
1.85217e-10
1.85244e-10
1.85273e-10
1.85304e-10
1.85338e-10
1.85375e-10
1.85415e-10
1.85459e-10
1.85508e-10
1.8556e-10
1.85617e-10
1.8568e-10
1.85748e-10
1.85821e-10
1.85901e-10
1.85986e-10
1.86078e-10
1.86175e-10
1.86279e-10
1.86388e-10
1.86503e-10
1.86623e-10
1.86748e-10
1.86878e-10
1.87011e-10
1.87147e-10
1.87286e-10
1.87426e-10
1.87566e-10
1.87706e-10
1.87844e-10
1.87978e-10
1.88109e-10
1.88233e-10
1.88351e-10
1.88459e-10
1.88558e-10
1.88646e-10
1.8872e-10
1.8878e-10
1.88825e-10
1.88851e-10
1.88863e-10
1.88865e-10
1.88865e-10
1.88851e-10
1.88791e-10
1.8871e-10
1.8861e-10
1.88492e-10
1.88358e-10
1.88209e-10
1.88048e-10
1.87876e-10
1.87695e-10
1.87508e-10
1.87317e-10
1.87126e-10
1.86935e-10
1.86748e-10
1.86566e-10
1.86391e-10
1.86225e-10
1.86069e-10
1.85925e-10
1.85792e-10
1.85672e-10
1.85564e-10
1.85469e-10
1.85386e-10
1.85315e-10
1.85255e-10
1.85206e-10
1.85167e-10
1.85137e-10
1.85115e-10
1.85101e-10
1.85093e-10
1.8509e-10
1.85089e-10
1.8509e-10
1.85095e-10
1.85108e-10
1.85123e-10
1.85138e-10
1.85153e-10
1.85168e-10
1.85183e-10
1.85197e-10
1.85209e-10
1.8522e-10
1.8523e-10
1.85237e-10
1.85243e-10
1.85247e-10
1.85249e-10
1.8525e-10
1.8525e-10
1.85249e-10
1.85245e-10
1.85238e-10
1.8523e-10
1.8522e-10
1.85209e-10
1.85197e-10
1.85184e-10
1.8517e-10
1.85155e-10
1.85139e-10
1.85123e-10
1.85106e-10
1.85089e-10
1.85072e-10
1.85054e-10
1.85037e-10
1.85019e-10
1.85001e-10
1.84984e-10
1.84966e-10
1.84949e-10
1.84932e-10
1.84916e-10
1.849e-10
1.84884e-10
1.84869e-10
1.84855e-10
1.84841e-10
1.84828e-10
1.84816e-10
1.84804e-10
1.84793e-10
1.84783e-10
1.84774e-10
1.84766e-10
1.84759e-10
1.84752e-10
1.84747e-10
1.84743e-10
1.8474e-10
1.84737e-10
1.84736e-10
1.84736e-10
1.84736e-10
1.84736e-10
1.84738e-10
1.84742e-10
1.84747e-10
1.84753e-10
1.84759e-10
1.84767e-10
1.84775e-10
1.84784e-10
1.84793e-10
1.84803e-10
1.84813e-10
1.84823e-10
1.84834e-10
1.84845e-10
1.84856e-10
1.84867e-10
1.84877e-10
1.84888e-10
1.84898e-10
1.84908e-10
1.84917e-10
1.84925e-10
1.84933e-10
1.8494e-10
1.84947e-10
1.84952e-10
1.84957e-10
1.84961e-10
1.84964e-10
1.84965e-10
1.84966e-10
1.84966e-10
1.84966e-10
1.84965e-10
1.84964e-10
1.84961e-10
1.84958e-10
1.84953e-10
1.84946e-10
1.84902e-10
1.84742e-10
1.82592e-10
1.75054e-10
7.70529e-11
4.1641e-12
2.29322e-15
1.04148e-22
1.58201e-38
3.63112e-72
6.27242e-144
1.00913e-296
0
0
0
0
0
0
0
0
0
0
0
0
0
0
0
0
0
0
0
0
0
0
0
0
0
0
0
0
0
0
0
0
0
0
0
0
0
0
0
0
0
0
0
0
0
0
0
0
0
0
0
0
0
0
0
0
0
0
0
0
0
0
0
0
0
0
0
0
0
0
0
0
0
0
0
0
0
0
0
0
0
0
0
0
0
0
0
0
0
0
0
0
0
0
0
0
0
0
0
0
0
0
0
0
0
0
0
0
0
0
0
0
0
0
0
0
0
0
0
0
0
0
0
0
0
0
0
0
0
0
0
0
0
0
0
0
0
0
0
0
0
0
0
0
0
0
0
0
0
0
0
0
0
0
0
0
0
0
0
0
0
0
0
0
0
0
0
0
0
0
0
0
0
0
0
0
0
0
0
0
0
0
0
0
0
0
0
0
0
0
0
0
0
0
0
0
0
0
0
0
0
0
0
0
0
0
0
0
0
0
0
0
0
0
0
0
0
0
0
0
0
0
0
0
0
0
0
0
0
0
0
0
0
0
0
0
0
0
0
0
0
0
0
0
0
0
0
0
0
0
0
0
0
0
0
0
0
0
0
0
0
0
0
0
0
0
0
)
;

boundaryField
{
    inlet
    {
        type            calculated;
        value           uniform -2.74882e-10;
    }
    outlet
    {
        type            calculated;
        value           uniform 0;
    }
    emptyWalls
    {
        type            empty;
        value           nonuniform List<scalar> 0();
    }
}


// ************************************************************************* //
