/*--------------------------------*- C++ -*----------------------------------*\
  =========                 |
  \\      /  F ield         | OpenFOAM: The Open Source CFD Toolbox
   \\    /   O peration     | Website:  https://openfoam.org
    \\  /    A nd           | Version:  9
     \\/     M anipulation  |
\*---------------------------------------------------------------------------*/
FoamFile
{
    format      ascii;
    class       volVectorField;
    location    "12850";
    object      Ub;
}
// * * * * * * * * * * * * * * * * * * * * * * * * * * * * * * * * * * * * * //

dimensions      [0 0 0 0 0 0 0];

internalField   nonuniform List<vector> 
1000
(
(1.1362e-05 0 0)
(1.13623e-05 0 0)
(1.13624e-05 0 0)
(1.13626e-05 0 0)
(1.13628e-05 0 0)
(1.13632e-05 0 0)
(1.13637e-05 0 0)
(1.13644e-05 0 0)
(1.13652e-05 0 0)
(1.13659e-05 0 0)
(1.13668e-05 0 0)
(1.13673e-05 0 0)
(1.1368e-05 0 0)
(1.13685e-05 0 0)
(1.13694e-05 0 0)
(1.13723e-05 0 0)
(1.13827e-05 0 0)
(1.14481e-05 0 0)
(1.16148e-05 0 0)
(1.17401e-05 0 0)
(1.17587e-05 0 0)
(1.17604e-05 0 0)
(1.17561e-05 0 0)
(1.17505e-05 0 0)
(1.17481e-05 0 0)
(1.17501e-05 0 0)
(1.17543e-05 0 0)
(1.17591e-05 0 0)
(1.17664e-05 0 0)
(1.17758e-05 0 0)
(1.17845e-05 0 0)
(1.17918e-05 0 0)
(1.17973e-05 0 0)
(1.18009e-05 0 0)
(1.1803e-05 0 0)
(1.18037e-05 0 0)
(1.18034e-05 0 0)
(1.18026e-05 0 0)
(1.18015e-05 0 0)
(1.18001e-05 0 0)
(1.17988e-05 0 0)
(1.17976e-05 0 0)
(1.17965e-05 0 0)
(1.17953e-05 0 0)
(1.17941e-05 0 0)
(1.17927e-05 0 0)
(1.1791e-05 0 0)
(1.17886e-05 0 0)
(1.17854e-05 0 0)
(1.17813e-05 0 0)
(1.17764e-05 0 0)
(1.17708e-05 0 0)
(1.17649e-05 0 0)
(1.17586e-05 0 0)
(1.17522e-05 0 0)
(1.17456e-05 0 0)
(1.17388e-05 0 0)
(1.1732e-05 0 0)
(1.1725e-05 0 0)
(1.1718e-05 0 0)
(1.17109e-05 0 0)
(1.17037e-05 0 0)
(1.16965e-05 0 0)
(1.16892e-05 0 0)
(1.16819e-05 0 0)
(1.16745e-05 0 0)
(1.1667e-05 0 0)
(1.16596e-05 0 0)
(1.16521e-05 0 0)
(1.16445e-05 0 0)
(1.16369e-05 0 0)
(1.16293e-05 0 0)
(1.16216e-05 0 0)
(1.16139e-05 0 0)
(1.16061e-05 0 0)
(1.15983e-05 0 0)
(1.15905e-05 0 0)
(1.15826e-05 0 0)
(1.15748e-05 0 0)
(1.15668e-05 0 0)
(1.15589e-05 0 0)
(1.15508e-05 0 0)
(1.15428e-05 0 0)
(1.15347e-05 0 0)
(1.15266e-05 0 0)
(1.15185e-05 0 0)
(1.15103e-05 0 0)
(1.15021e-05 0 0)
(1.14939e-05 0 0)
(1.14856e-05 0 0)
(1.14773e-05 0 0)
(1.1469e-05 0 0)
(1.14606e-05 0 0)
(1.14522e-05 0 0)
(1.14438e-05 0 0)
(1.14353e-05 0 0)
(1.14269e-05 0 0)
(1.14184e-05 0 0)
(1.14098e-05 0 0)
(1.14012e-05 0 0)
(1.13927e-05 0 0)
(1.13841e-05 0 0)
(1.13755e-05 0 0)
(1.13668e-05 0 0)
(1.13582e-05 0 0)
(1.13496e-05 0 0)
(1.13409e-05 0 0)
(1.13322e-05 0 0)
(1.13235e-05 0 0)
(1.13148e-05 0 0)
(1.13061e-05 0 0)
(1.12973e-05 0 0)
(1.12884e-05 0 0)
(1.12796e-05 0 0)
(1.12707e-05 0 0)
(1.12618e-05 0 0)
(1.12528e-05 0 0)
(1.12439e-05 0 0)
(1.12349e-05 0 0)
(1.12259e-05 0 0)
(1.12168e-05 0 0)
(1.12077e-05 0 0)
(1.11984e-05 0 0)
(1.11889e-05 0 0)
(1.11792e-05 0 0)
(1.11693e-05 0 0)
(1.11592e-05 0 0)
(1.11489e-05 0 0)
(1.11384e-05 0 0)
(1.11277e-05 0 0)
(1.11168e-05 0 0)
(1.11058e-05 0 0)
(1.10947e-05 0 0)
(1.10835e-05 0 0)
(1.10724e-05 0 0)
(1.10613e-05 0 0)
(1.10503e-05 0 0)
(1.10395e-05 0 0)
(1.10289e-05 0 0)
(1.10186e-05 0 0)
(1.10087e-05 0 0)
(1.09992e-05 0 0)
(1.09901e-05 0 0)
(1.09815e-05 0 0)
(1.09733e-05 0 0)
(1.09654e-05 0 0)
(1.0958e-05 0 0)
(1.09508e-05 0 0)
(1.09439e-05 0 0)
(1.09371e-05 0 0)
(1.09304e-05 0 0)
(1.09237e-05 0 0)
(1.09169e-05 0 0)
(1.091e-05 0 0)
(1.09029e-05 0 0)
(1.08956e-05 0 0)
(1.0888e-05 0 0)
(1.08801e-05 0 0)
(1.0872e-05 0 0)
(1.08637e-05 0 0)
(1.08551e-05 0 0)
(1.08463e-05 0 0)
(1.08373e-05 0 0)
(1.08282e-05 0 0)
(1.0819e-05 0 0)
(1.08096e-05 0 0)
(1.08002e-05 0 0)
(1.07908e-05 0 0)
(1.07813e-05 0 0)
(1.07718e-05 0 0)
(1.07623e-05 0 0)
(1.07529e-05 0 0)
(1.07434e-05 0 0)
(1.0734e-05 0 0)
(1.07246e-05 0 0)
(1.07152e-05 0 0)
(1.07058e-05 0 0)
(1.06964e-05 0 0)
(1.06871e-05 0 0)
(1.06778e-05 0 0)
(1.06684e-05 0 0)
(1.06591e-05 0 0)
(1.06498e-05 0 0)
(1.06404e-05 0 0)
(1.06311e-05 0 0)
(1.06217e-05 0 0)
(1.06124e-05 0 0)
(1.0603e-05 0 0)
(1.05936e-05 0 0)
(1.05842e-05 0 0)
(1.05748e-05 0 0)
(1.05653e-05 0 0)
(1.05559e-05 0 0)
(1.05464e-05 0 0)
(1.05369e-05 0 0)
(1.05274e-05 0 0)
(1.05179e-05 0 0)
(1.05084e-05 0 0)
(1.04988e-05 0 0)
(1.04893e-05 0 0)
(1.04797e-05 0 0)
(1.04701e-05 0 0)
(1.04605e-05 0 0)
(1.04509e-05 0 0)
(1.04412e-05 0 0)
(1.04315e-05 0 0)
(1.04219e-05 0 0)
(1.04121e-05 0 0)
(1.04024e-05 0 0)
(1.03927e-05 0 0)
(1.03829e-05 0 0)
(1.03731e-05 0 0)
(1.03633e-05 0 0)
(1.03535e-05 0 0)
(1.03437e-05 0 0)
(1.03338e-05 0 0)
(1.03239e-05 0 0)
(1.0314e-05 0 0)
(1.03041e-05 0 0)
(1.02942e-05 0 0)
(1.02842e-05 0 0)
(1.02742e-05 0 0)
(1.02642e-05 0 0)
(1.02542e-05 0 0)
(1.02441e-05 0 0)
(1.0234e-05 0 0)
(1.02239e-05 0 0)
(1.02138e-05 0 0)
(1.02037e-05 0 0)
(1.01935e-05 0 0)
(1.01833e-05 0 0)
(1.01731e-05 0 0)
(1.01628e-05 0 0)
(1.01526e-05 0 0)
(1.01423e-05 0 0)
(1.0132e-05 0 0)
(1.01217e-05 0 0)
(1.01113e-05 0 0)
(1.0101e-05 0 0)
(1.00906e-05 0 0)
(1.00802e-05 0 0)
(1.00698e-05 0 0)
(1.00593e-05 0 0)
(1.00489e-05 0 0)
(1.00384e-05 0 0)
(1.00279e-05 0 0)
(1.00174e-05 0 0)
(1.00069e-05 0 0)
(9.99631e-06 0 0)
(9.98575e-06 0 0)
(9.97516e-06 0 0)
(9.96456e-06 0 0)
(9.95393e-06 0 0)
(9.94329e-06 0 0)
(9.93262e-06 0 0)
(9.92194e-06 0 0)
(9.91123e-06 0 0)
(9.9005e-06 0 0)
(9.88974e-06 0 0)
(9.87896e-06 0 0)
(9.86814e-06 0 0)
(9.85729e-06 0 0)
(9.8464e-06 0 0)
(9.83546e-06 0 0)
(9.82447e-06 0 0)
(9.81343e-06 0 0)
(9.80232e-06 0 0)
(9.79114e-06 0 0)
(9.77989e-06 0 0)
(9.76855e-06 0 0)
(9.75712e-06 0 0)
(9.74561e-06 0 0)
(9.734e-06 0 0)
(9.7223e-06 0 0)
(9.71051e-06 0 0)
(9.69862e-06 0 0)
(9.68666e-06 0 0)
(9.67461e-06 0 0)
(9.6625e-06 0 0)
(9.65033e-06 0 0)
(9.63812e-06 0 0)
(9.62587e-06 0 0)
(9.61361e-06 0 0)
(9.60135e-06 0 0)
(9.58912e-06 0 0)
(9.57693e-06 0 0)
(9.56479e-06 0 0)
(9.55273e-06 0 0)
(9.54078e-06 0 0)
(9.52893e-06 0 0)
(9.51722e-06 0 0)
(9.50564e-06 0 0)
(9.49422e-06 0 0)
(9.48295e-06 0 0)
(9.47185e-06 0 0)
(9.4609e-06 0 0)
(9.4501e-06 0 0)
(9.43944e-06 0 0)
(9.42892e-06 0 0)
(9.4185e-06 0 0)
(9.40818e-06 0 0)
(9.39793e-06 0 0)
(9.38772e-06 0 0)
(9.37754e-06 0 0)
(9.36736e-06 0 0)
(9.35716e-06 0 0)
(9.34691e-06 0 0)
(9.33661e-06 0 0)
(9.32623e-06 0 0)
(9.31576e-06 0 0)
(9.30519e-06 0 0)
(9.29452e-06 0 0)
(9.28374e-06 0 0)
(9.27284e-06 0 0)
(9.26184e-06 0 0)
(9.25073e-06 0 0)
(9.23951e-06 0 0)
(9.22819e-06 0 0)
(9.21678e-06 0 0)
(9.20529e-06 0 0)
(9.19372e-06 0 0)
(9.18209e-06 0 0)
(9.17039e-06 0 0)
(9.15864e-06 0 0)
(9.14684e-06 0 0)
(9.13499e-06 0 0)
(9.12312e-06 0 0)
(9.11121e-06 0 0)
(9.09928e-06 0 0)
(9.08732e-06 0 0)
(9.07534e-06 0 0)
(9.06334e-06 0 0)
(9.05133e-06 0 0)
(9.0393e-06 0 0)
(9.02726e-06 0 0)
(9.0152e-06 0 0)
(9.00312e-06 0 0)
(8.99103e-06 0 0)
(8.97893e-06 0 0)
(8.9668e-06 0 0)
(8.95466e-06 0 0)
(8.94249e-06 0 0)
(8.93031e-06 0 0)
(8.9181e-06 0 0)
(8.90587e-06 0 0)
(8.89361e-06 0 0)
(8.88133e-06 0 0)
(8.86902e-06 0 0)
(8.85669e-06 0 0)
(8.84432e-06 0 0)
(8.83193e-06 0 0)
(8.81951e-06 0 0)
(8.80705e-06 0 0)
(8.79457e-06 0 0)
(8.78205e-06 0 0)
(8.7695e-06 0 0)
(8.75691e-06 0 0)
(8.7443e-06 0 0)
(8.73164e-06 0 0)
(8.71896e-06 0 0)
(8.70624e-06 0 0)
(8.69348e-06 0 0)
(8.68069e-06 0 0)
(8.66786e-06 0 0)
(8.655e-06 0 0)
(8.6421e-06 0 0)
(8.62916e-06 0 0)
(8.61619e-06 0 0)
(8.60318e-06 0 0)
(8.59013e-06 0 0)
(8.57704e-06 0 0)
(8.56391e-06 0 0)
(8.55074e-06 0 0)
(8.53754e-06 0 0)
(8.52429e-06 0 0)
(8.511e-06 0 0)
(8.49767e-06 0 0)
(8.48431e-06 0 0)
(8.4709e-06 0 0)
(8.45744e-06 0 0)
(8.44395e-06 0 0)
(8.43041e-06 0 0)
(8.41683e-06 0 0)
(8.40321e-06 0 0)
(8.38954e-06 0 0)
(8.37582e-06 0 0)
(8.36206e-06 0 0)
(8.34826e-06 0 0)
(8.33441e-06 0 0)
(8.32051e-06 0 0)
(8.30657e-06 0 0)
(8.29258e-06 0 0)
(8.27854e-06 0 0)
(8.26446e-06 0 0)
(8.25032e-06 0 0)
(8.23614e-06 0 0)
(8.22191e-06 0 0)
(8.20762e-06 0 0)
(8.19329e-06 0 0)
(8.17891e-06 0 0)
(8.16448e-06 0 0)
(8.15e-06 0 0)
(8.13546e-06 0 0)
(8.12088e-06 0 0)
(8.10625e-06 0 0)
(8.09156e-06 0 0)
(8.07682e-06 0 0)
(8.06203e-06 0 0)
(8.04718e-06 0 0)
(8.03229e-06 0 0)
(8.01733e-06 0 0)
(8.00233e-06 0 0)
(7.98727e-06 0 0)
(7.97215e-06 0 0)
(7.95698e-06 0 0)
(7.94175e-06 0 0)
(7.92646e-06 0 0)
(7.91112e-06 0 0)
(7.89571e-06 0 0)
(7.88025e-06 0 0)
(7.86473e-06 0 0)
(7.84914e-06 0 0)
(7.8335e-06 0 0)
(7.81778e-06 0 0)
(7.802e-06 0 0)
(7.78616e-06 0 0)
(7.77024e-06 0 0)
(7.75426e-06 0 0)
(7.7382e-06 0 0)
(7.72206e-06 0 0)
(7.70585e-06 0 0)
(7.68956e-06 0 0)
(7.67319e-06 0 0)
(7.65673e-06 0 0)
(7.64018e-06 0 0)
(7.62354e-06 0 0)
(7.60681e-06 0 0)
(7.58999e-06 0 0)
(7.57306e-06 0 0)
(7.55604e-06 0 0)
(7.53891e-06 0 0)
(7.52167e-06 0 0)
(7.50433e-06 0 0)
(7.48689e-06 0 0)
(7.46933e-06 0 0)
(7.45167e-06 0 0)
(7.4339e-06 0 0)
(7.41602e-06 0 0)
(7.39804e-06 0 0)
(7.37995e-06 0 0)
(7.36175e-06 0 0)
(7.34346e-06 0 0)
(7.32507e-06 0 0)
(7.30659e-06 0 0)
(7.28802e-06 0 0)
(7.26936e-06 0 0)
(7.25063e-06 0 0)
(7.23182e-06 0 0)
(7.21293e-06 0 0)
(7.19399e-06 0 0)
(7.17498e-06 0 0)
(7.15592e-06 0 0)
(7.13682e-06 0 0)
(7.11767e-06 0 0)
(7.09848e-06 0 0)
(7.07926e-06 0 0)
(7.06e-06 0 0)
(7.04072e-06 0 0)
(7.02143e-06 0 0)
(7.00212e-06 0 0)
(6.98279e-06 0 0)
(6.96345e-06 0 0)
(6.94411e-06 0 0)
(6.92477e-06 0 0)
(6.90542e-06 0 0)
(6.8861e-06 0 0)
(6.86679e-06 0 0)
(6.84751e-06 0 0)
(6.82828e-06 0 0)
(6.80911e-06 0 0)
(6.79002e-06 0 0)
(6.77105e-06 0 0)
(6.75222e-06 0 0)
(6.73358e-06 0 0)
(6.71518e-06 0 0)
(6.69707e-06 0 0)
(6.6793e-06 0 0)
(6.66195e-06 0 0)
(6.64509e-06 0 0)
(6.62881e-06 0 0)
(6.61317e-06 0 0)
(6.59826e-06 0 0)
(6.58415e-06 0 0)
(6.57089e-06 0 0)
(6.55856e-06 0 0)
(6.5472e-06 0 0)
(6.53683e-06 0 0)
(6.52746e-06 0 0)
(6.51909e-06 0 0)
(6.51167e-06 0 0)
(6.50514e-06 0 0)
(6.49942e-06 0 0)
(6.49439e-06 0 0)
(6.48985e-06 0 0)
(6.48549e-06 0 0)
(6.48083e-06 0 0)
(6.47509e-06 0 0)
(6.46692e-06 0 0)
(6.45398e-06 0 0)
(6.4322e-06 0 0)
(6.39455e-06 0 0)
(6.32925e-06 0 0)
(6.21754e-06 0 0)
(6.0324e-06 0 0)
(5.74199e-06 0 0)
(5.32371e-06 0 0)
(4.78956e-06 0 0)
(4.20361e-06 0 0)
(3.66142e-06 0 0)
(3.23718e-06 0 0)
(2.94994e-06 0 0)
(2.77551e-06 0 0)
(2.67697e-06 0 0)
(2.62367e-06 0 0)
(2.59555e-06 0 0)
(2.58091e-06 0 0)
(2.57335e-06 0 0)
(2.56947e-06 0 0)
(2.56749e-06 0 0)
(2.56649e-06 0 0)
(2.56599e-06 0 0)
(2.56575e-06 0 0)
(2.56564e-06 0 0)
(2.5656e-06 0 0)
(2.5656e-06 0 0)
(2.56562e-06 0 0)
(2.56564e-06 0 0)
(2.56567e-06 0 0)
(2.5657e-06 0 0)
(2.56573e-06 0 0)
(2.56576e-06 0 0)
(2.5658e-06 0 0)
(2.56583e-06 0 0)
(2.56586e-06 0 0)
(2.56589e-06 0 0)
(2.56591e-06 0 0)
(2.56594e-06 0 0)
(2.56597e-06 0 0)
(2.566e-06 0 0)
(2.56602e-06 0 0)
(2.56605e-06 0 0)
(2.56607e-06 0 0)
(2.5661e-06 0 0)
(2.56612e-06 0 0)
(2.56614e-06 0 0)
(2.56617e-06 0 0)
(2.56619e-06 0 0)
(2.56621e-06 0 0)
(2.56623e-06 0 0)
(2.56624e-06 0 0)
(2.56626e-06 0 0)
(2.56628e-06 0 0)
(2.56629e-06 0 0)
(2.56631e-06 0 0)
(2.56632e-06 0 0)
(2.56633e-06 0 0)
(2.56634e-06 0 0)
(2.56635e-06 0 0)
(2.56636e-06 0 0)
(2.56636e-06 0 0)
(2.56637e-06 0 0)
(2.56637e-06 0 0)
(2.56638e-06 0 0)
(2.56638e-06 0 0)
(2.56638e-06 0 0)
(2.56638e-06 0 0)
(2.56637e-06 0 0)
(2.56637e-06 0 0)
(2.56637e-06 0 0)
(2.56636e-06 0 0)
(2.56635e-06 0 0)
(2.56635e-06 0 0)
(2.56634e-06 0 0)
(2.56633e-06 0 0)
(2.56631e-06 0 0)
(2.5663e-06 0 0)
(2.56629e-06 0 0)
(2.56627e-06 0 0)
(2.56626e-06 0 0)
(2.56624e-06 0 0)
(2.56622e-06 0 0)
(2.5662e-06 0 0)
(2.56618e-06 0 0)
(2.56616e-06 0 0)
(2.56614e-06 0 0)
(2.56612e-06 0 0)
(2.5661e-06 0 0)
(2.56608e-06 0 0)
(2.56605e-06 0 0)
(2.56603e-06 0 0)
(2.566e-06 0 0)
(2.56598e-06 0 0)
(2.56595e-06 0 0)
(2.56593e-06 0 0)
(2.5659e-06 0 0)
(2.56588e-06 0 0)
(2.56585e-06 0 0)
(2.56582e-06 0 0)
(2.5658e-06 0 0)
(2.56577e-06 0 0)
(2.56574e-06 0 0)
(2.56571e-06 0 0)
(2.56568e-06 0 0)
(2.56565e-06 0 0)
(2.56562e-06 0 0)
(2.56559e-06 0 0)
(2.56556e-06 0 0)
(2.56553e-06 0 0)
(2.5655e-06 0 0)
(2.56546e-06 0 0)
(2.56543e-06 0 0)
(2.56539e-06 0 0)
(2.56535e-06 0 0)
(2.56531e-06 0 0)
(2.56527e-06 0 0)
(2.56523e-06 0 0)
(2.56518e-06 0 0)
(2.56513e-06 0 0)
(2.56508e-06 0 0)
(2.56503e-06 0 0)
(2.56497e-06 0 0)
(2.5649e-06 0 0)
(2.56484e-06 0 0)
(2.56476e-06 0 0)
(2.56469e-06 0 0)
(2.56461e-06 0 0)
(2.56452e-06 0 0)
(2.56443e-06 0 0)
(2.56433e-06 0 0)
(2.56423e-06 0 0)
(2.56412e-06 0 0)
(2.56401e-06 0 0)
(2.56389e-06 0 0)
(2.56377e-06 0 0)
(2.56364e-06 0 0)
(2.5635e-06 0 0)
(2.56336e-06 0 0)
(2.56322e-06 0 0)
(2.56307e-06 0 0)
(2.56291e-06 0 0)
(2.56275e-06 0 0)
(2.56259e-06 0 0)
(2.56243e-06 0 0)
(2.56227e-06 0 0)
(2.56211e-06 0 0)
(2.56194e-06 0 0)
(2.56178e-06 0 0)
(2.56162e-06 0 0)
(2.56146e-06 0 0)
(2.56131e-06 0 0)
(2.56116e-06 0 0)
(2.56102e-06 0 0)
(2.56089e-06 0 0)
(2.56076e-06 0 0)
(2.56064e-06 0 0)
(2.56054e-06 0 0)
(2.56044e-06 0 0)
(2.56036e-06 0 0)
(2.56029e-06 0 0)
(2.56023e-06 0 0)
(2.56019e-06 0 0)
(2.56017e-06 0 0)
(2.56015e-06 0 0)
(2.56015e-06 0 0)
(2.56015e-06 0 0)
(2.56016e-06 0 0)
(2.5602e-06 0 0)
(2.56026e-06 0 0)
(2.56034e-06 0 0)
(2.56043e-06 0 0)
(2.56053e-06 0 0)
(2.56064e-06 0 0)
(2.56077e-06 0 0)
(2.5609e-06 0 0)
(2.56104e-06 0 0)
(2.56119e-06 0 0)
(2.56134e-06 0 0)
(2.5615e-06 0 0)
(2.56166e-06 0 0)
(2.56182e-06 0 0)
(2.56198e-06 0 0)
(2.56214e-06 0 0)
(2.5623e-06 0 0)
(2.56246e-06 0 0)
(2.56261e-06 0 0)
(2.56276e-06 0 0)
(2.56291e-06 0 0)
(2.56304e-06 0 0)
(2.56318e-06 0 0)
(2.5633e-06 0 0)
(2.56342e-06 0 0)
(2.56353e-06 0 0)
(2.56364e-06 0 0)
(2.56374e-06 0 0)
(2.56383e-06 0 0)
(2.56391e-06 0 0)
(2.56399e-06 0 0)
(2.56406e-06 0 0)
(2.56413e-06 0 0)
(2.56419e-06 0 0)
(2.56425e-06 0 0)
(2.5643e-06 0 0)
(2.56434e-06 0 0)
(2.56439e-06 0 0)
(2.56443e-06 0 0)
(2.56447e-06 0 0)
(2.5645e-06 0 0)
(2.56454e-06 0 0)
(2.56457e-06 0 0)
(2.5646e-06 0 0)
(2.56462e-06 0 0)
(2.56465e-06 0 0)
(2.56468e-06 0 0)
(2.56471e-06 0 0)
(2.56473e-06 0 0)
(2.56476e-06 0 0)
(2.56479e-06 0 0)
(2.56481e-06 0 0)
(2.56484e-06 0 0)
(2.56487e-06 0 0)
(2.5649e-06 0 0)
(2.56492e-06 0 0)
(2.56495e-06 0 0)
(2.56498e-06 0 0)
(2.56501e-06 0 0)
(2.56504e-06 0 0)
(2.56507e-06 0 0)
(2.5651e-06 0 0)
(2.56513e-06 0 0)
(2.56516e-06 0 0)
(2.56519e-06 0 0)
(2.56523e-06 0 0)
(2.56526e-06 0 0)
(2.56529e-06 0 0)
(2.56533e-06 0 0)
(2.56536e-06 0 0)
(2.5654e-06 0 0)
(2.56543e-06 0 0)
(2.56547e-06 0 0)
(2.56551e-06 0 0)
(2.56554e-06 0 0)
(2.56558e-06 0 0)
(2.56561e-06 0 0)
(2.56565e-06 0 0)
(2.56568e-06 0 0)
(2.56571e-06 0 0)
(2.56575e-06 0 0)
(2.56578e-06 0 0)
(2.56581e-06 0 0)
(2.56583e-06 0 0)
(2.56586e-06 0 0)
(2.56589e-06 0 0)
(2.56591e-06 0 0)
(2.56594e-06 0 0)
(2.56596e-06 0 0)
(2.56598e-06 0 0)
(2.566e-06 0 0)
(2.56602e-06 0 0)
(2.56603e-06 0 0)
(2.56605e-06 0 0)
(2.56607e-06 0 0)
(2.56608e-06 0 0)
(2.56609e-06 0 0)
(2.56611e-06 0 0)
(2.56612e-06 0 0)
(2.56613e-06 0 0)
(2.56614e-06 0 0)
(2.56614e-06 0 0)
(2.56615e-06 0 0)
(2.56616e-06 0 0)
(2.56616e-06 0 0)
(2.56617e-06 0 0)
(2.56617e-06 0 0)
(2.56617e-06 0 0)
(2.56618e-06 0 0)
(2.56618e-06 0 0)
(2.56618e-06 0 0)
(2.56618e-06 0 0)
(2.56618e-06 0 0)
(2.56617e-06 0 0)
(2.56617e-06 0 0)
(2.56617e-06 0 0)
(2.56617e-06 0 0)
(2.56616e-06 0 0)
(2.56616e-06 0 0)
(2.56615e-06 0 0)
(2.56614e-06 0 0)
(2.56614e-06 0 0)
(2.56613e-06 0 0)
(2.56612e-06 0 0)
(2.56611e-06 0 0)
(2.5661e-06 0 0)
(2.56609e-06 0 0)
(2.56608e-06 0 0)
(2.56606e-06 0 0)
(2.56605e-06 0 0)
(2.56604e-06 0 0)
(2.56602e-06 0 0)
(2.56601e-06 0 0)
(2.56599e-06 0 0)
(2.56597e-06 0 0)
(2.56596e-06 0 0)
(2.56594e-06 0 0)
(2.56592e-06 0 0)
(2.5659e-06 0 0)
(2.56588e-06 0 0)
(2.56586e-06 0 0)
(2.56584e-06 0 0)
(2.56582e-06 0 0)
(2.56579e-06 0 0)
(2.56577e-06 0 0)
(2.56574e-06 0 0)
(2.56572e-06 0 0)
(2.56569e-06 0 0)
(2.56566e-06 0 0)
(2.56563e-06 0 0)
(2.56559e-06 0 0)
(2.56556e-06 0 0)
(2.56552e-06 0 0)
(2.56548e-06 0 0)
(2.56544e-06 0 0)
(2.5654e-06 0 0)
(2.56535e-06 0 0)
(2.5653e-06 0 0)
(2.56525e-06 0 0)
(2.56519e-06 0 0)
(2.56513e-06 0 0)
(2.56507e-06 0 0)
(2.56501e-06 0 0)
(2.56493e-06 0 0)
(2.56486e-06 0 0)
(2.56478e-06 0 0)
(2.5647e-06 0 0)
(2.56461e-06 0 0)
(2.56452e-06 0 0)
(2.56442e-06 0 0)
(2.56432e-06 0 0)
(2.56422e-06 0 0)
(2.56411e-06 0 0)
(2.56399e-06 0 0)
(2.56387e-06 0 0)
(2.56375e-06 0 0)
(2.56362e-06 0 0)
(2.56349e-06 0 0)
(2.56335e-06 0 0)
(2.56322e-06 0 0)
(2.56307e-06 0 0)
(2.56293e-06 0 0)
(2.56279e-06 0 0)
(2.56264e-06 0 0)
(2.5625e-06 0 0)
(2.56235e-06 0 0)
(2.5622e-06 0 0)
(2.56206e-06 0 0)
(2.56192e-06 0 0)
(2.56178e-06 0 0)
(2.56164e-06 0 0)
(2.56151e-06 0 0)
(2.56138e-06 0 0)
(2.56126e-06 0 0)
(2.56115e-06 0 0)
(2.56104e-06 0 0)
(2.56094e-06 0 0)
(2.56085e-06 0 0)
(2.56076e-06 0 0)
(2.56069e-06 0 0)
(2.56063e-06 0 0)
(2.56058e-06 0 0)
(2.56054e-06 0 0)
(2.56051e-06 0 0)
(2.5605e-06 0 0)
(2.56049e-06 0 0)
(2.56049e-06 0 0)
(2.56049e-06 0 0)
(2.56051e-06 0 0)
(2.56055e-06 0 0)
(2.5606e-06 0 0)
(2.56067e-06 0 0)
(2.56074e-06 0 0)
(2.56083e-06 0 0)
(2.56092e-06 0 0)
(2.56102e-06 0 0)
(2.56113e-06 0 0)
(2.56125e-06 0 0)
(2.56137e-06 0 0)
(2.56149e-06 0 0)
(2.56162e-06 0 0)
(2.56175e-06 0 0)
(2.56189e-06 0 0)
(2.56202e-06 0 0)
(2.56215e-06 0 0)
(2.56229e-06 0 0)
(2.56242e-06 0 0)
(2.56255e-06 0 0)
(2.56268e-06 0 0)
(2.5628e-06 0 0)
(2.56292e-06 0 0)
(2.56304e-06 0 0)
(2.56315e-06 0 0)
(2.56326e-06 0 0)
(2.56336e-06 0 0)
(2.56345e-06 0 0)
(2.56355e-06 0 0)
(2.56363e-06 0 0)
(2.56371e-06 0 0)
(2.56379e-06 0 0)
(2.56386e-06 0 0)
(2.56393e-06 0 0)
(2.56399e-06 0 0)
(2.56405e-06 0 0)
(2.56411e-06 0 0)
(2.56416e-06 0 0)
(2.56421e-06 0 0)
(2.56426e-06 0 0)
(2.5643e-06 0 0)
(2.56435e-06 0 0)
(2.56439e-06 0 0)
(2.56442e-06 0 0)
(2.56446e-06 0 0)
(2.5645e-06 0 0)
(2.56453e-06 0 0)
(2.56457e-06 0 0)
(2.5646e-06 0 0)
(2.56463e-06 0 0)
(2.56467e-06 0 0)
(2.5647e-06 0 0)
(2.56473e-06 0 0)
(2.56477e-06 0 0)
(2.5648e-06 0 0)
(2.56483e-06 0 0)
(2.56487e-06 0 0)
(2.5649e-06 0 0)
(2.56494e-06 0 0)
(2.56497e-06 0 0)
(2.56501e-06 0 0)
(2.56504e-06 0 0)
(2.56508e-06 0 0)
(2.56512e-06 0 0)
(2.56515e-06 0 0)
(2.56519e-06 0 0)
(2.56523e-06 0 0)
(2.56526e-06 0 0)
(2.5653e-06 0 0)
(2.56534e-06 0 0)
(2.56537e-06 0 0)
(2.56541e-06 0 0)
(2.56544e-06 0 0)
(2.56548e-06 0 0)
(2.56551e-06 0 0)
(2.56554e-06 0 0)
(2.56558e-06 0 0)
(2.56561e-06 0 0)
(2.56564e-06 0 0)
(2.56567e-06 0 0)
(2.5657e-06 0 0)
(2.56573e-06 0 0)
(2.56576e-06 0 0)
(2.56578e-06 0 0)
(2.56581e-06 0 0)
(2.56583e-06 0 0)
(2.56586e-06 0 0)
(2.56588e-06 0 0)
(2.5659e-06 0 0)
(2.56592e-06 0 0)
(2.56594e-06 0 0)
(2.56596e-06 0 0)
(2.56597e-06 0 0)
(2.56599e-06 0 0)
(2.566e-06 0 0)
(2.56602e-06 0 0)
(2.56603e-06 0 0)
(2.56604e-06 0 0)
(2.56606e-06 0 0)
(2.56607e-06 0 0)
(2.56608e-06 0 0)
(2.56608e-06 0 0)
(2.56609e-06 0 0)
(2.5661e-06 0 0)
(2.5661e-06 0 0)
(2.56611e-06 0 0)
(2.56611e-06 0 0)
(2.56612e-06 0 0)
(2.56612e-06 0 0)
(2.56612e-06 0 0)
(2.56612e-06 0 0)
(2.56612e-06 0 0)
(2.56612e-06 0 0)
(2.56612e-06 0 0)
(2.56612e-06 0 0)
(2.56612e-06 0 0)
)
;

boundaryField
{
    inlet
    {
        type            fixedValue;
        value           uniform (1.13622e-05 0 0);
    }
    outlet
    {
        type            zeroGradient;
    }
    emptyWalls
    {
        type            empty;
    }
}


// ************************************************************************* //
