/*--------------------------------*- C++ -*----------------------------------*\
  =========                 |
  \\      /  F ield         | OpenFOAM: The Open Source CFD Toolbox
   \\    /   O peration     | Website:  https://openfoam.org
    \\  /    A nd           | Version:  9
     \\/     M anipulation  |
\*---------------------------------------------------------------------------*/
FoamFile
{
    format      ascii;
    class       volVectorField;
    location    "18050";
    object      Ua;
}
// * * * * * * * * * * * * * * * * * * * * * * * * * * * * * * * * * * * * * //

dimensions      [0 0 0 0 0 0 0];

internalField   nonuniform List<vector> 
1000
(
(2.74904e-06 0 0)
(2.74877e-06 0 0)
(2.74854e-06 0 0)
(2.74824e-06 0 0)
(2.74784e-06 0 0)
(2.7474e-06 0 0)
(2.74688e-06 0 0)
(2.74636e-06 0 0)
(2.74574e-06 0 0)
(2.74498e-06 0 0)
(2.74425e-06 0 0)
(2.74327e-06 0 0)
(2.7424e-06 0 0)
(2.74141e-06 0 0)
(2.74041e-06 0 0)
(2.73949e-06 0 0)
(2.7385e-06 0 0)
(2.73762e-06 0 0)
(2.73679e-06 0 0)
(2.73606e-06 0 0)
(2.73538e-06 0 0)
(2.7345e-06 0 0)
(2.73214e-06 0 0)
(2.72349e-06 0 0)
(2.68356e-06 0 0)
(2.46145e-06 0 0)
(2.21535e-06 0 0)
(2.14328e-06 0 0)
(2.12176e-06 0 0)
(2.11123e-06 0 0)
(2.10431e-06 0 0)
(2.09901e-06 0 0)
(2.09463e-06 0 0)
(2.09084e-06 0 0)
(2.08748e-06 0 0)
(2.08445e-06 0 0)
(2.08171e-06 0 0)
(2.07921e-06 0 0)
(2.07691e-06 0 0)
(2.07481e-06 0 0)
(2.07288e-06 0 0)
(2.07109e-06 0 0)
(2.06944e-06 0 0)
(2.06794e-06 0 0)
(2.06657e-06 0 0)
(2.06534e-06 0 0)
(2.0642e-06 0 0)
(2.06314e-06 0 0)
(2.06213e-06 0 0)
(2.06117e-06 0 0)
(2.06024e-06 0 0)
(2.05929e-06 0 0)
(2.05835e-06 0 0)
(2.05745e-06 0 0)
(2.05659e-06 0 0)
(2.05584e-06 0 0)
(2.05519e-06 0 0)
(2.05465e-06 0 0)
(2.05419e-06 0 0)
(2.05375e-06 0 0)
(2.0533e-06 0 0)
(2.05281e-06 0 0)
(2.05227e-06 0 0)
(2.05171e-06 0 0)
(2.05125e-06 0 0)
(2.05094e-06 0 0)
(2.05086e-06 0 0)
(2.05111e-06 0 0)
(2.05182e-06 0 0)
(2.05314e-06 0 0)
(2.05515e-06 0 0)
(2.05783e-06 0 0)
(2.06096e-06 0 0)
(2.06427e-06 0 0)
(2.06751e-06 0 0)
(2.07054e-06 0 0)
(2.07332e-06 0 0)
(2.07585e-06 0 0)
(2.07812e-06 0 0)
(2.08005e-06 0 0)
(2.08154e-06 0 0)
(2.08244e-06 0 0)
(2.08263e-06 0 0)
(2.08202e-06 0 0)
(2.08059e-06 0 0)
(2.07841e-06 0 0)
(2.07559e-06 0 0)
(2.07228e-06 0 0)
(2.06868e-06 0 0)
(2.06497e-06 0 0)
(2.06132e-06 0 0)
(2.05789e-06 0 0)
(2.05478e-06 0 0)
(2.05208e-06 0 0)
(2.04982e-06 0 0)
(2.04802e-06 0 0)
(2.04666e-06 0 0)
(2.0457e-06 0 0)
(2.04508e-06 0 0)
(2.04474e-06 0 0)
(2.0446e-06 0 0)
(2.04461e-06 0 0)
(2.04471e-06 0 0)
(2.04484e-06 0 0)
(2.04496e-06 0 0)
(2.04504e-06 0 0)
(2.04506e-06 0 0)
(2.045e-06 0 0)
(2.04487e-06 0 0)
(2.04466e-06 0 0)
(2.04438e-06 0 0)
(2.04403e-06 0 0)
(2.04362e-06 0 0)
(2.04317e-06 0 0)
(2.04268e-06 0 0)
(2.04216e-06 0 0)
(2.04162e-06 0 0)
(2.04107e-06 0 0)
(2.04051e-06 0 0)
(2.03994e-06 0 0)
(2.03938e-06 0 0)
(2.03882e-06 0 0)
(2.03826e-06 0 0)
(2.03771e-06 0 0)
(2.03716e-06 0 0)
(2.03663e-06 0 0)
(2.03611e-06 0 0)
(2.03559e-06 0 0)
(2.03509e-06 0 0)
(2.0346e-06 0 0)
(2.03411e-06 0 0)
(2.03364e-06 0 0)
(2.03318e-06 0 0)
(2.03273e-06 0 0)
(2.03229e-06 0 0)
(2.03186e-06 0 0)
(2.03145e-06 0 0)
(2.03105e-06 0 0)
(2.03065e-06 0 0)
(2.03027e-06 0 0)
(2.02991e-06 0 0)
(2.02955e-06 0 0)
(2.02921e-06 0 0)
(2.02888e-06 0 0)
(2.02856e-06 0 0)
(2.02825e-06 0 0)
(2.02796e-06 0 0)
(2.02767e-06 0 0)
(2.0274e-06 0 0)
(2.02714e-06 0 0)
(2.02689e-06 0 0)
(2.02665e-06 0 0)
(2.02642e-06 0 0)
(2.02621e-06 0 0)
(2.02601e-06 0 0)
(2.02583e-06 0 0)
(2.02566e-06 0 0)
(2.0255e-06 0 0)
(2.02536e-06 0 0)
(2.02524e-06 0 0)
(2.02512e-06 0 0)
(2.02501e-06 0 0)
(2.02491e-06 0 0)
(2.02482e-06 0 0)
(2.02473e-06 0 0)
(2.02464e-06 0 0)
(2.02455e-06 0 0)
(2.02446e-06 0 0)
(2.02438e-06 0 0)
(2.0243e-06 0 0)
(2.02422e-06 0 0)
(2.02416e-06 0 0)
(2.0241e-06 0 0)
(2.02405e-06 0 0)
(2.02402e-06 0 0)
(2.02399e-06 0 0)
(2.02396e-06 0 0)
(2.02394e-06 0 0)
(2.02391e-06 0 0)
(2.02387e-06 0 0)
(2.02382e-06 0 0)
(2.02376e-06 0 0)
(2.02369e-06 0 0)
(2.02364e-06 0 0)
(2.02361e-06 0 0)
(2.02362e-06 0 0)
(2.0237e-06 0 0)
(2.02386e-06 0 0)
(2.02414e-06 0 0)
(2.02455e-06 0 0)
(2.0251e-06 0 0)
(2.02581e-06 0 0)
(2.02669e-06 0 0)
(2.02774e-06 0 0)
(2.02895e-06 0 0)
(2.03031e-06 0 0)
(2.0318e-06 0 0)
(2.03341e-06 0 0)
(2.03511e-06 0 0)
(2.03687e-06 0 0)
(2.03865e-06 0 0)
(2.04042e-06 0 0)
(2.04213e-06 0 0)
(2.04373e-06 0 0)
(2.04519e-06 0 0)
(2.04646e-06 0 0)
(2.04749e-06 0 0)
(2.04825e-06 0 0)
(2.04871e-06 0 0)
(2.04884e-06 0 0)
(2.04863e-06 0 0)
(2.04808e-06 0 0)
(2.04721e-06 0 0)
(2.04602e-06 0 0)
(2.04455e-06 0 0)
(2.04285e-06 0 0)
(2.04095e-06 0 0)
(2.03892e-06 0 0)
(2.03679e-06 0 0)
(2.03464e-06 0 0)
(2.0325e-06 0 0)
(2.03041e-06 0 0)
(2.02843e-06 0 0)
(2.02657e-06 0 0)
(2.02486e-06 0 0)
(2.02331e-06 0 0)
(2.02193e-06 0 0)
(2.02073e-06 0 0)
(2.01969e-06 0 0)
(2.0188e-06 0 0)
(2.01806e-06 0 0)
(2.01744e-06 0 0)
(2.01692e-06 0 0)
(2.0165e-06 0 0)
(2.01615e-06 0 0)
(2.01585e-06 0 0)
(2.01559e-06 0 0)
(2.01535e-06 0 0)
(2.01513e-06 0 0)
(2.01491e-06 0 0)
(2.01468e-06 0 0)
(2.01444e-06 0 0)
(2.01418e-06 0 0)
(2.0139e-06 0 0)
(2.0136e-06 0 0)
(2.01327e-06 0 0)
(2.01292e-06 0 0)
(2.01255e-06 0 0)
(2.01215e-06 0 0)
(2.01174e-06 0 0)
(2.01131e-06 0 0)
(2.01087e-06 0 0)
(2.01041e-06 0 0)
(2.00995e-06 0 0)
(2.00948e-06 0 0)
(2.009e-06 0 0)
(2.00852e-06 0 0)
(2.00804e-06 0 0)
(2.00756e-06 0 0)
(2.00707e-06 0 0)
(2.00659e-06 0 0)
(2.00612e-06 0 0)
(2.00565e-06 0 0)
(2.00518e-06 0 0)
(2.00472e-06 0 0)
(2.00426e-06 0 0)
(2.00381e-06 0 0)
(2.00337e-06 0 0)
(2.00293e-06 0 0)
(2.0025e-06 0 0)
(2.00208e-06 0 0)
(2.00167e-06 0 0)
(2.00126e-06 0 0)
(2.00086e-06 0 0)
(2.00047e-06 0 0)
(2.00008e-06 0 0)
(1.99971e-06 0 0)
(1.99934e-06 0 0)
(1.99898e-06 0 0)
(1.99863e-06 0 0)
(1.99829e-06 0 0)
(1.99795e-06 0 0)
(1.99762e-06 0 0)
(1.9973e-06 0 0)
(1.99699e-06 0 0)
(1.99669e-06 0 0)
(1.99639e-06 0 0)
(1.99611e-06 0 0)
(1.99583e-06 0 0)
(1.99556e-06 0 0)
(1.9953e-06 0 0)
(1.99505e-06 0 0)
(1.9948e-06 0 0)
(1.99457e-06 0 0)
(1.99435e-06 0 0)
(1.99413e-06 0 0)
(1.99392e-06 0 0)
(1.99373e-06 0 0)
(1.99354e-06 0 0)
(1.99335e-06 0 0)
(1.99318e-06 0 0)
(1.99301e-06 0 0)
(1.99285e-06 0 0)
(1.99269e-06 0 0)
(1.99254e-06 0 0)
(1.9924e-06 0 0)
(1.99226e-06 0 0)
(1.99213e-06 0 0)
(1.992e-06 0 0)
(1.99187e-06 0 0)
(1.99175e-06 0 0)
(1.99164e-06 0 0)
(1.99153e-06 0 0)
(1.99142e-06 0 0)
(1.99132e-06 0 0)
(1.99122e-06 0 0)
(1.99113e-06 0 0)
(1.99104e-06 0 0)
(1.99094e-06 0 0)
(1.99086e-06 0 0)
(1.99077e-06 0 0)
(1.99069e-06 0 0)
(1.99061e-06 0 0)
(1.99054e-06 0 0)
(1.99049e-06 0 0)
(1.99045e-06 0 0)
(1.99044e-06 0 0)
(1.99045e-06 0 0)
(1.9905e-06 0 0)
(1.99059e-06 0 0)
(1.99073e-06 0 0)
(1.99093e-06 0 0)
(1.99119e-06 0 0)
(1.99153e-06 0 0)
(1.99193e-06 0 0)
(1.99242e-06 0 0)
(1.99299e-06 0 0)
(1.99364e-06 0 0)
(1.99437e-06 0 0)
(1.99518e-06 0 0)
(1.99607e-06 0 0)
(1.99703e-06 0 0)
(1.99804e-06 0 0)
(1.99911e-06 0 0)
(2.00021e-06 0 0)
(2.00133e-06 0 0)
(2.00247e-06 0 0)
(2.00359e-06 0 0)
(2.00468e-06 0 0)
(2.00573e-06 0 0)
(2.00671e-06 0 0)
(2.00761e-06 0 0)
(2.0084e-06 0 0)
(2.00907e-06 0 0)
(2.0096e-06 0 0)
(2.00998e-06 0 0)
(2.0102e-06 0 0)
(2.01024e-06 0 0)
(2.01011e-06 0 0)
(2.0098e-06 0 0)
(2.00931e-06 0 0)
(2.00865e-06 0 0)
(2.00782e-06 0 0)
(2.00685e-06 0 0)
(2.00575e-06 0 0)
(2.00453e-06 0 0)
(2.00321e-06 0 0)
(2.00182e-06 0 0)
(2.00038e-06 0 0)
(1.9989e-06 0 0)
(1.99742e-06 0 0)
(1.99594e-06 0 0)
(1.99449e-06 0 0)
(1.99309e-06 0 0)
(1.99174e-06 0 0)
(1.99045e-06 0 0)
(1.98924e-06 0 0)
(1.98811e-06 0 0)
(1.98706e-06 0 0)
(1.98609e-06 0 0)
(1.98521e-06 0 0)
(1.9844e-06 0 0)
(1.98367e-06 0 0)
(1.98301e-06 0 0)
(1.98241e-06 0 0)
(1.98187e-06 0 0)
(1.98138e-06 0 0)
(1.98094e-06 0 0)
(1.98053e-06 0 0)
(1.98014e-06 0 0)
(1.97978e-06 0 0)
(1.97944e-06 0 0)
(1.97911e-06 0 0)
(1.97879e-06 0 0)
(1.97846e-06 0 0)
(1.97814e-06 0 0)
(1.97782e-06 0 0)
(1.97748e-06 0 0)
(1.97715e-06 0 0)
(1.9768e-06 0 0)
(1.97644e-06 0 0)
(1.97607e-06 0 0)
(1.97569e-06 0 0)
(1.97531e-06 0 0)
(1.97491e-06 0 0)
(1.9745e-06 0 0)
(1.97409e-06 0 0)
(1.97366e-06 0 0)
(1.97323e-06 0 0)
(1.9728e-06 0 0)
(1.97236e-06 0 0)
(1.97191e-06 0 0)
(1.97146e-06 0 0)
(1.97101e-06 0 0)
(1.97056e-06 0 0)
(1.97011e-06 0 0)
(1.96966e-06 0 0)
(1.96921e-06 0 0)
(1.96876e-06 0 0)
(1.96832e-06 0 0)
(1.96787e-06 0 0)
(1.96743e-06 0 0)
(1.967e-06 0 0)
(1.96657e-06 0 0)
(1.96614e-06 0 0)
(1.96572e-06 0 0)
(1.9653e-06 0 0)
(1.96489e-06 0 0)
(1.96448e-06 0 0)
(1.96408e-06 0 0)
(1.96368e-06 0 0)
(1.96329e-06 0 0)
(1.96291e-06 0 0)
(1.96253e-06 0 0)
(1.96216e-06 0 0)
(1.96179e-06 0 0)
(1.96144e-06 0 0)
(1.96108e-06 0 0)
(1.96074e-06 0 0)
(1.9604e-06 0 0)
(1.96007e-06 0 0)
(1.95974e-06 0 0)
(1.95943e-06 0 0)
(1.95912e-06 0 0)
(1.95881e-06 0 0)
(1.95852e-06 0 0)
(1.95823e-06 0 0)
(1.95795e-06 0 0)
(1.95767e-06 0 0)
(1.9574e-06 0 0)
(1.95715e-06 0 0)
(1.95689e-06 0 0)
(1.95665e-06 0 0)
(1.95641e-06 0 0)
(1.95618e-06 0 0)
(1.95596e-06 0 0)
(1.95574e-06 0 0)
(1.95553e-06 0 0)
(1.95533e-06 0 0)
(1.95513e-06 0 0)
(1.95494e-06 0 0)
(1.95475e-06 0 0)
(1.95457e-06 0 0)
(1.9544e-06 0 0)
(1.95423e-06 0 0)
(1.95407e-06 0 0)
(1.95391e-06 0 0)
(1.95376e-06 0 0)
(1.95361e-06 0 0)
(1.95346e-06 0 0)
(1.95332e-06 0 0)
(1.95319e-06 0 0)
(1.95305e-06 0 0)
(1.95292e-06 0 0)
(1.9528e-06 0 0)
(1.95268e-06 0 0)
(1.95256e-06 0 0)
(1.95245e-06 0 0)
(1.95234e-06 0 0)
(1.95224e-06 0 0)
(1.95215e-06 0 0)
(1.95206e-06 0 0)
(1.95198e-06 0 0)
(1.95192e-06 0 0)
(1.95186e-06 0 0)
(1.95183e-06 0 0)
(1.95181e-06 0 0)
(1.95181e-06 0 0)
(1.95183e-06 0 0)
(1.95188e-06 0 0)
(1.95196e-06 0 0)
(1.95207e-06 0 0)
(1.95222e-06 0 0)
(1.9524e-06 0 0)
(1.95263e-06 0 0)
(1.9529e-06 0 0)
(1.95321e-06 0 0)
(1.95357e-06 0 0)
(1.95398e-06 0 0)
(1.95443e-06 0 0)
(1.95493e-06 0 0)
(1.95548e-06 0 0)
(1.95606e-06 0 0)
(1.95669e-06 0 0)
(1.95735e-06 0 0)
(1.95805e-06 0 0)
(1.95877e-06 0 0)
(1.95951e-06 0 0)
(1.96026e-06 0 0)
(1.96102e-06 0 0)
(1.96178e-06 0 0)
(1.96252e-06 0 0)
(1.96325e-06 0 0)
(1.96395e-06 0 0)
(1.96461e-06 0 0)
(1.96522e-06 0 0)
(1.96577e-06 0 0)
(1.96626e-06 0 0)
(1.96668e-06 0 0)
(1.96701e-06 0 0)
(1.96726e-06 0 0)
(1.96741e-06 0 0)
(1.96746e-06 0 0)
(1.96741e-06 0 0)
(1.96726e-06 0 0)
(1.96699e-06 0 0)
(1.96662e-06 0 0)
(1.96615e-06 0 0)
(1.96558e-06 0 0)
(1.96491e-06 0 0)
(1.96415e-06 0 0)
(1.96332e-06 0 0)
(1.9624e-06 0 0)
(1.96143e-06 0 0)
(1.9604e-06 0 0)
(1.95933e-06 0 0)
(1.95823e-06 0 0)
(1.9571e-06 0 0)
(1.95596e-06 0 0)
(1.95482e-06 0 0)
(1.95368e-06 0 0)
(1.95256e-06 0 0)
(1.95146e-06 0 0)
(1.95039e-06 0 0)
(1.94936e-06 0 0)
(1.94836e-06 0 0)
(1.9474e-06 0 0)
(1.94649e-06 0 0)
(1.94562e-06 0 0)
(1.9448e-06 0 0)
(1.94402e-06 0 0)
(1.94328e-06 0 0)
(1.94259e-06 0 0)
(1.94194e-06 0 0)
(1.94133e-06 0 0)
(1.94075e-06 0 0)
(1.94021e-06 0 0)
(1.93969e-06 0 0)
(1.9392e-06 0 0)
(1.93873e-06 0 0)
(1.93829e-06 0 0)
(1.93785e-06 0 0)
(1.93743e-06 0 0)
(1.93702e-06 0 0)
(1.93662e-06 0 0)
(1.93623e-06 0 0)
(1.93583e-06 0 0)
(1.93544e-06 0 0)
(1.93505e-06 0 0)
(1.93466e-06 0 0)
(1.93427e-06 0 0)
(1.93387e-06 0 0)
(1.93347e-06 0 0)
(1.93307e-06 0 0)
(1.93266e-06 0 0)
(1.93224e-06 0 0)
(1.93183e-06 0 0)
(1.9314e-06 0 0)
(1.93097e-06 0 0)
(1.93054e-06 0 0)
(1.93011e-06 0 0)
(1.92967e-06 0 0)
(1.92922e-06 0 0)
(1.92878e-06 0 0)
(1.92833e-06 0 0)
(1.92788e-06 0 0)
(1.92744e-06 0 0)
(1.92699e-06 0 0)
(1.92654e-06 0 0)
(1.92609e-06 0 0)
(1.92564e-06 0 0)
(1.92519e-06 0 0)
(1.92474e-06 0 0)
(1.9243e-06 0 0)
(1.92386e-06 0 0)
(1.92342e-06 0 0)
(1.92298e-06 0 0)
(1.92255e-06 0 0)
(1.92212e-06 0 0)
(1.9217e-06 0 0)
(1.92128e-06 0 0)
(1.92086e-06 0 0)
(1.92045e-06 0 0)
(1.92004e-06 0 0)
(1.91964e-06 0 0)
(1.91924e-06 0 0)
(1.91885e-06 0 0)
(1.91846e-06 0 0)
(1.91808e-06 0 0)
(1.91771e-06 0 0)
(1.91733e-06 0 0)
(1.91697e-06 0 0)
(1.91661e-06 0 0)
(1.91625e-06 0 0)
(1.91591e-06 0 0)
(1.91556e-06 0 0)
(1.91523e-06 0 0)
(1.91489e-06 0 0)
(1.91457e-06 0 0)
(1.91425e-06 0 0)
(1.91393e-06 0 0)
(1.91363e-06 0 0)
(1.91332e-06 0 0)
(1.91303e-06 0 0)
(1.91273e-06 0 0)
(1.91245e-06 0 0)
(1.91217e-06 0 0)
(1.91189e-06 0 0)
(1.91162e-06 0 0)
(1.91136e-06 0 0)
(1.9111e-06 0 0)
(1.91084e-06 0 0)
(1.91059e-06 0 0)
(1.91035e-06 0 0)
(1.91011e-06 0 0)
(1.90987e-06 0 0)
(1.90964e-06 0 0)
(1.90942e-06 0 0)
(1.90919e-06 0 0)
(1.90897e-06 0 0)
(1.90876e-06 0 0)
(1.90855e-06 0 0)
(1.90834e-06 0 0)
(1.90813e-06 0 0)
(1.90793e-06 0 0)
(1.90774e-06 0 0)
(1.90754e-06 0 0)
(1.90735e-06 0 0)
(1.90716e-06 0 0)
(1.90698e-06 0 0)
(1.9068e-06 0 0)
(1.90662e-06 0 0)
(1.90645e-06 0 0)
(1.90628e-06 0 0)
(1.90612e-06 0 0)
(1.90596e-06 0 0)
(1.90581e-06 0 0)
(1.90566e-06 0 0)
(1.90553e-06 0 0)
(1.9054e-06 0 0)
(1.90528e-06 0 0)
(1.90517e-06 0 0)
(1.90508e-06 0 0)
(1.90499e-06 0 0)
(1.90493e-06 0 0)
(1.90488e-06 0 0)
(1.90484e-06 0 0)
(1.90483e-06 0 0)
(1.90484e-06 0 0)
(1.90487e-06 0 0)
(1.90492e-06 0 0)
(1.905e-06 0 0)
(1.9051e-06 0 0)
(1.90524e-06 0 0)
(1.9054e-06 0 0)
(1.90559e-06 0 0)
(1.9058e-06 0 0)
(1.90605e-06 0 0)
(1.90633e-06 0 0)
(1.90664e-06 0 0)
(1.90698e-06 0 0)
(1.90734e-06 0 0)
(1.90774e-06 0 0)
(1.90816e-06 0 0)
(1.9086e-06 0 0)
(1.90907e-06 0 0)
(1.90955e-06 0 0)
(1.91006e-06 0 0)
(1.91058e-06 0 0)
(1.91111e-06 0 0)
(1.91165e-06 0 0)
(1.91219e-06 0 0)
(1.91274e-06 0 0)
(1.91328e-06 0 0)
(1.91382e-06 0 0)
(1.91434e-06 0 0)
(1.91485e-06 0 0)
(1.91534e-06 0 0)
(1.9158e-06 0 0)
(1.91623e-06 0 0)
(1.91663e-06 0 0)
(1.91698e-06 0 0)
(1.91729e-06 0 0)
(1.91756e-06 0 0)
(1.91777e-06 0 0)
(1.91792e-06 0 0)
(1.91802e-06 0 0)
(1.91805e-06 0 0)
(1.91803e-06 0 0)
(1.91794e-06 0 0)
(1.91778e-06 0 0)
(1.91757e-06 0 0)
(1.91728e-06 0 0)
(1.91693e-06 0 0)
(1.91651e-06 0 0)
(1.91601e-06 0 0)
(1.91541e-06 0 0)
(1.91467e-06 0 0)
(1.91373e-06 0 0)
(1.91247e-06 0 0)
(1.9107e-06 0 0)
(1.90811e-06 0 0)
(1.90431e-06 0 0)
(1.89891e-06 0 0)
(1.89189e-06 0 0)
(1.88397e-06 0 0)
(1.87656e-06 0 0)
(1.87091e-06 0 0)
(1.86725e-06 0 0)
(1.86507e-06 0 0)
(1.86372e-06 0 0)
(1.86279e-06 0 0)
(1.86207e-06 0 0)
(1.86146e-06 0 0)
(1.86091e-06 0 0)
(1.86041e-06 0 0)
(1.85995e-06 0 0)
(1.85951e-06 0 0)
(1.8591e-06 0 0)
(1.85872e-06 0 0)
(1.85836e-06 0 0)
(1.85803e-06 0 0)
(1.85772e-06 0 0)
(1.85742e-06 0 0)
(1.85715e-06 0 0)
(1.8569e-06 0 0)
(1.85666e-06 0 0)
(1.85644e-06 0 0)
(1.85623e-06 0 0)
(1.85604e-06 0 0)
(1.85586e-06 0 0)
(1.85569e-06 0 0)
(1.85553e-06 0 0)
(1.85537e-06 0 0)
(1.85522e-06 0 0)
(1.85508e-06 0 0)
(1.85494e-06 0 0)
(1.85481e-06 0 0)
(1.85468e-06 0 0)
(1.85455e-06 0 0)
(1.85442e-06 0 0)
(1.85429e-06 0 0)
(1.85416e-06 0 0)
(1.85404e-06 0 0)
(1.85391e-06 0 0)
(1.85378e-06 0 0)
(1.85365e-06 0 0)
(1.85352e-06 0 0)
(1.85338e-06 0 0)
(1.85325e-06 0 0)
(1.85311e-06 0 0)
(1.85297e-06 0 0)
(1.85283e-06 0 0)
(1.85269e-06 0 0)
(1.85255e-06 0 0)
(1.85241e-06 0 0)
(1.85227e-06 0 0)
(1.85212e-06 0 0)
(1.85198e-06 0 0)
(1.85183e-06 0 0)
(1.85169e-06 0 0)
(1.85154e-06 0 0)
(1.8514e-06 0 0)
(1.85126e-06 0 0)
(1.85112e-06 0 0)
(1.85098e-06 0 0)
(1.85084e-06 0 0)
(1.8507e-06 0 0)
(1.85057e-06 0 0)
(1.85044e-06 0 0)
(1.85031e-06 0 0)
(1.85018e-06 0 0)
(1.85005e-06 0 0)
(1.84993e-06 0 0)
(1.84981e-06 0 0)
(1.8497e-06 0 0)
(1.84958e-06 0 0)
(1.84948e-06 0 0)
(1.84937e-06 0 0)
(1.84927e-06 0 0)
(1.84917e-06 0 0)
(1.84908e-06 0 0)
(1.84899e-06 0 0)
(1.8489e-06 0 0)
(1.84882e-06 0 0)
(1.84874e-06 0 0)
(1.84866e-06 0 0)
(1.84859e-06 0 0)
(1.84853e-06 0 0)
(1.84847e-06 0 0)
(1.84841e-06 0 0)
(1.84836e-06 0 0)
(1.84831e-06 0 0)
(1.84827e-06 0 0)
(1.84823e-06 0 0)
(1.84819e-06 0 0)
(1.84816e-06 0 0)
(1.84813e-06 0 0)
(1.84811e-06 0 0)
(1.8481e-06 0 0)
(1.84808e-06 0 0)
(1.84807e-06 0 0)
(1.84807e-06 0 0)
(1.84807e-06 0 0)
(1.84807e-06 0 0)
(1.84807e-06 0 0)
(1.84808e-06 0 0)
(1.8481e-06 0 0)
(1.84812e-06 0 0)
(1.84814e-06 0 0)
(1.84817e-06 0 0)
(1.8482e-06 0 0)
(1.84823e-06 0 0)
(1.84827e-06 0 0)
(1.84831e-06 0 0)
(1.84836e-06 0 0)
(1.84841e-06 0 0)
(1.84846e-06 0 0)
(1.84851e-06 0 0)
(1.84857e-06 0 0)
(1.84863e-06 0 0)
(1.8487e-06 0 0)
(1.84876e-06 0 0)
(1.84884e-06 0 0)
(1.84891e-06 0 0)
(1.84899e-06 0 0)
(1.84907e-06 0 0)
(1.84916e-06 0 0)
(1.84925e-06 0 0)
(1.84934e-06 0 0)
(1.84944e-06 0 0)
(1.84955e-06 0 0)
(1.84966e-06 0 0)
(1.84977e-06 0 0)
(1.84989e-06 0 0)
(1.85002e-06 0 0)
(1.85015e-06 0 0)
(1.85029e-06 0 0)
(1.85044e-06 0 0)
(1.8506e-06 0 0)
(1.85077e-06 0 0)
(1.85094e-06 0 0)
(1.85113e-06 0 0)
(1.85133e-06 0 0)
(1.85154e-06 0 0)
(1.85177e-06 0 0)
(1.85201e-06 0 0)
(1.85226e-06 0 0)
(1.85253e-06 0 0)
(1.85282e-06 0 0)
(1.85312e-06 0 0)
(1.85343e-06 0 0)
(1.85377e-06 0 0)
(1.85412e-06 0 0)
(1.8545e-06 0 0)
(1.85489e-06 0 0)
(1.8553e-06 0 0)
(1.85573e-06 0 0)
(1.85618e-06 0 0)
(1.85664e-06 0 0)
(1.85713e-06 0 0)
(1.85763e-06 0 0)
(1.85815e-06 0 0)
(1.85869e-06 0 0)
(1.85924e-06 0 0)
(1.85981e-06 0 0)
(1.86038e-06 0 0)
(1.86097e-06 0 0)
(1.86157e-06 0 0)
(1.86217e-06 0 0)
(1.86278e-06 0 0)
(1.8634e-06 0 0)
(1.86401e-06 0 0)
(1.86462e-06 0 0)
(1.86523e-06 0 0)
(1.86583e-06 0 0)
(1.86642e-06 0 0)
(1.867e-06 0 0)
(1.86756e-06 0 0)
(1.8681e-06 0 0)
(1.86862e-06 0 0)
(1.86912e-06 0 0)
(1.86959e-06 0 0)
(1.87003e-06 0 0)
(1.87043e-06 0 0)
(1.8708e-06 0 0)
(1.87113e-06 0 0)
(1.87143e-06 0 0)
(1.87168e-06 0 0)
(1.87189e-06 0 0)
(1.87205e-06 0 0)
(1.87216e-06 0 0)
(1.87223e-06 0 0)
(1.87226e-06 0 0)
(1.87227e-06 0 0)
(1.87226e-06 0 0)
(1.8722e-06 0 0)
(1.87206e-06 0 0)
(1.87185e-06 0 0)
(1.87161e-06 0 0)
(1.87133e-06 0 0)
(1.871e-06 0 0)
(1.87065e-06 0 0)
(1.87026e-06 0 0)
(1.86984e-06 0 0)
(1.86939e-06 0 0)
(1.86892e-06 0 0)
(1.86844e-06 0 0)
(1.86793e-06 0 0)
(1.86741e-06 0 0)
(1.86688e-06 0 0)
(1.86635e-06 0 0)
(1.86581e-06 0 0)
(1.86527e-06 0 0)
(1.86473e-06 0 0)
(1.86419e-06 0 0)
(1.86367e-06 0 0)
(1.86315e-06 0 0)
(1.86264e-06 0 0)
(1.86215e-06 0 0)
(1.86167e-06 0 0)
(1.86121e-06 0 0)
(1.86076e-06 0 0)
(1.86034e-06 0 0)
(1.85993e-06 0 0)
(1.85954e-06 0 0)
(1.85916e-06 0 0)
(1.85881e-06 0 0)
(1.85847e-06 0 0)
(1.85816e-06 0 0)
(1.85785e-06 0 0)
(1.85757e-06 0 0)
(1.8573e-06 0 0)
(1.85705e-06 0 0)
(1.85681e-06 0 0)
(1.85659e-06 0 0)
(1.85637e-06 0 0)
(1.85617e-06 0 0)
(1.85598e-06 0 0)
(1.8558e-06 0 0)
(1.85562e-06 0 0)
(1.85546e-06 0 0)
(1.8553e-06 0 0)
(1.85514e-06 0 0)
(1.85499e-06 0 0)
(1.85485e-06 0 0)
(1.85471e-06 0 0)
(1.85457e-06 0 0)
(1.85443e-06 0 0)
(1.85429e-06 0 0)
(1.85416e-06 0 0)
(1.85403e-06 0 0)
(1.85389e-06 0 0)
(1.85376e-06 0 0)
(1.85363e-06 0 0)
(1.85349e-06 0 0)
(1.85336e-06 0 0)
(1.85322e-06 0 0)
(1.85309e-06 0 0)
(1.85295e-06 0 0)
(1.85282e-06 0 0)
(1.85268e-06 0 0)
(1.85255e-06 0 0)
(1.85241e-06 0 0)
(1.85227e-06 0 0)
(1.85213e-06 0 0)
(1.852e-06 0 0)
(1.85186e-06 0 0)
(1.85172e-06 0 0)
(1.85159e-06 0 0)
(1.85145e-06 0 0)
(1.85132e-06 0 0)
(1.85118e-06 0 0)
(1.85105e-06 0 0)
(1.85092e-06 0 0)
(1.85079e-06 0 0)
(1.85066e-06 0 0)
(1.85054e-06 0 0)
(1.85042e-06 0 0)
(1.8503e-06 0 0)
)
;

boundaryField
{
    inlet
    {
        type            fixedValue;
        value           uniform (2.74882e-06 0 0);
    }
    outlet
    {
        type            zeroGradient;
    }
    emptyWalls
    {
        type            empty;
    }
}


// ************************************************************************* //
