/*--------------------------------*- C++ -*----------------------------------*\
  =========                 |
  \\      /  F ield         | OpenFOAM: The Open Source CFD Toolbox
   \\    /   O peration     | Website:  https://openfoam.org
    \\  /    A nd           | Version:  9
     \\/     M anipulation  |
\*---------------------------------------------------------------------------*/
FoamFile
{
    format      ascii;
    class       volScalarField;
    location    "13100";
    object      krb;
}
// * * * * * * * * * * * * * * * * * * * * * * * * * * * * * * * * * * * * * //

dimensions      [0 0 0 0 0 0 0];

internalField   nonuniform List<scalar> 
1000
(
0.0980148
0.0986509
0.0996963
0.100476
0.101535
0.102324
0.103362
0.104201
0.105149
0.105971
0.106779
0.107482
0.108123
0.108683
0.109287
0.110394
0.114011
0.130199
0.261805
0.448479
0.490118
0.503878
0.510944
0.515488
0.518784
0.521316
0.523334
0.524963
0.526292
0.527372
0.528253
0.528965
0.529538
0.529993
0.53034
0.530601
0.530768
0.530865
0.530871
0.530808
0.530655
0.530415
0.530085
0.529658
0.529118
0.528444
0.527594
0.526505
0.525096
0.523282
0.521023
0.518383
0.515518
0.512535
0.509488
0.506414
0.503336
0.500269
0.497225
0.49421
0.491233
0.488297
0.485405
0.482557
0.479755
0.476995
0.474275
0.471592
0.468944
0.466329
0.463743
0.461185
0.458654
0.45615
0.453671
0.451219
0.448793
0.446393
0.444021
0.441676
0.439358
0.437068
0.434806
0.432571
0.430363
0.428182
0.426027
0.423898
0.421794
0.419714
0.417658
0.415625
0.413615
0.411627
0.409661
0.407715
0.405791
0.403886
0.402002
0.400137
0.398291
0.396464
0.394655
0.392864
0.391092
0.389336
0.387598
0.385876
0.384171
0.382482
0.380809
0.379152
0.37751
0.375883
0.374271
0.372674
0.371091
0.369522
0.367967
0.366426
0.364899
0.363384
0.361883
0.360394
0.358918
0.357454
0.356003
0.354563
0.353136
0.35172
0.350315
0.348922
0.34754
0.346169
0.344808
0.343459
0.342119
0.340791
0.339472
0.338163
0.336864
0.335575
0.334296
0.333026
0.331765
0.330514
0.329271
0.328038
0.326814
0.325598
0.324391
0.323193
0.322003
0.320821
0.319648
0.318483
0.317325
0.316175
0.315034
0.313899
0.312773
0.311653
0.310541
0.309436
0.308339
0.307248
0.306165
0.305088
0.304018
0.302954
0.301896
0.300844
0.299798
0.298758
0.297723
0.296693
0.295669
0.294649
0.293635
0.292627
0.291623
0.290625
0.289632
0.288645
0.287663
0.286688
0.285719
0.284756
0.2838
0.282851
0.281908
0.280973
0.280045
0.279124
0.278211
0.277304
0.276405
0.275512
0.274626
0.273746
0.272871
0.272002
0.271138
0.270278
0.269422
0.26857
0.267722
0.266878
0.266036
0.265198
0.264363
0.263531
0.262701
0.261876
0.261053
0.260233
0.259417
0.258605
0.257795
0.25699
0.256188
0.255389
0.254595
0.253804
0.253017
0.252233
0.251454
0.250678
0.249905
0.249136
0.248371
0.24761
0.246852
0.246097
0.245346
0.244598
0.243853
0.243112
0.242374
0.241639
0.240908
0.240179
0.239454
0.238731
0.238012
0.237296
0.236582
0.235872
0.235164
0.234459
0.233757
0.233058
0.232362
0.231669
0.230978
0.23029
0.229604
0.228922
0.228242
0.227564
0.226889
0.226217
0.225547
0.22488
0.224215
0.223553
0.222893
0.222235
0.22158
0.220928
0.220277
0.219629
0.218983
0.21834
0.217699
0.21706
0.216423
0.215788
0.215156
0.214526
0.213898
0.213272
0.212648
0.212026
0.211406
0.210789
0.210173
0.20956
0.208948
0.208338
0.20773
0.207125
0.206521
0.205919
0.205319
0.204721
0.204124
0.20353
0.202937
0.202347
0.201758
0.20117
0.200585
0.200001
0.19942
0.198839
0.198261
0.197684
0.197109
0.196536
0.195964
0.195394
0.194825
0.194258
0.193693
0.193129
0.192566
0.192006
0.191446
0.190888
0.190332
0.189776
0.189223
0.18867
0.188119
0.187569
0.18702
0.186472
0.185926
0.18538
0.184836
0.184293
0.183751
0.18321
0.18267
0.182131
0.181593
0.181057
0.180522
0.179988
0.179455
0.178924
0.178394
0.177865
0.177338
0.176813
0.176289
0.175766
0.175245
0.174726
0.174209
0.173693
0.173179
0.172667
0.172157
0.171648
0.17114
0.170635
0.17013
0.169628
0.169126
0.168626
0.168127
0.167629
0.167132
0.166637
0.166141
0.165647
0.165154
0.164661
0.164169
0.163677
0.163186
0.162695
0.162205
0.161716
0.161227
0.160738
0.16025
0.159763
0.159276
0.15879
0.158304
0.157819
0.157335
0.156851
0.156368
0.155885
0.155403
0.154922
0.154441
0.153961
0.153482
0.153003
0.152525
0.152048
0.151571
0.151095
0.150619
0.150144
0.149669
0.149195
0.148722
0.148249
0.147776
0.147304
0.146832
0.146361
0.145891
0.14542
0.14495
0.144481
0.144012
0.143543
0.143075
0.142607
0.142139
0.141672
0.141204
0.140738
0.140271
0.139805
0.139338
0.138872
0.138407
0.137941
0.137476
0.137011
0.136546
0.136081
0.135616
0.135151
0.134686
0.134222
0.133757
0.133293
0.132828
0.132364
0.131899
0.131435
0.13097
0.130505
0.130041
0.129576
0.129111
0.128646
0.128181
0.127715
0.12725
0.126784
0.126318
0.125851
0.125385
0.124918
0.124451
0.123984
0.123516
0.123048
0.12258
0.122111
0.121642
0.121172
0.120702
0.120232
0.119761
0.11929
0.118818
0.118346
0.117873
0.1174
0.116926
0.116452
0.115978
0.115503
0.115027
0.114551
0.114075
0.113599
0.113122
0.112646
0.112169
0.111692
0.111216
0.11074
0.110265
0.109791
0.109318
0.108847
0.108379
0.107913
0.107451
0.106993
0.106541
0.106096
0.105658
0.105229
0.104811
0.104405
0.104013
0.103636
0.103276
0.102935
0.102614
0.102315
0.102038
0.101784
0.101554
0.101347
0.101162
0.100999
0.100856
0.100731
0.100622
0.100524
0.10043
0.100331
0.100211
0.100044
0.0997806
0.0993408
0.0985845
0.0972789
0.0950578
0.0914073
0.0857608
0.0778212
0.0680715
0.0579719
0.0492722
0.0429502
0.0389298
0.036595
0.0353122
0.0346292
0.0342717
0.0340863
0.0339906
0.0339413
0.033916
0.033903
0.0338964
0.033893
0.0338914
0.0338907
0.0338905
0.0338904
0.0338905
0.0338908
0.033891
0.0338913
0.0338916
0.0338919
0.0338923
0.0338926
0.0338929
0.0338932
0.0338935
0.0338938
0.0338941
0.0338944
0.0338947
0.0338949
0.0338952
0.0338954
0.0338956
0.0338958
0.033896
0.0338962
0.0338963
0.0338965
0.0338966
0.0338967
0.0338968
0.0338968
0.0338969
0.033897
0.033897
0.033897
0.033897
0.033897
0.033897
0.033897
0.033897
0.033897
0.0338969
0.0338969
0.0338968
0.0338968
0.0338967
0.0338967
0.0338966
0.0338966
0.0338965
0.0338964
0.0338964
0.0338963
0.0338962
0.0338962
0.0338961
0.033896
0.033896
0.0338959
0.0338959
0.0338958
0.0338957
0.0338957
0.0338956
0.0338956
0.0338955
0.0338955
0.0338954
0.0338954
0.0338953
0.0338953
0.0338952
0.0338952
0.0338952
0.0338951
0.0338951
0.033895
0.033895
0.033895
0.033895
0.0338949
0.0338949
0.0338949
0.0338949
0.0338949
0.0338948
0.0338948
0.0338948
0.0338948
0.0338948
0.0338948
0.0338948
0.0338948
0.0338948
0.0338948
0.0338948
0.0338948
0.0338948
0.0338948
0.0338948
0.0338948
0.0338948
0.0338948
0.0338948
0.0338948
0.0338948
0.0338948
0.0338948
0.0338949
0.0338949
0.0338949
0.0338949
0.0338949
0.0338949
0.0338949
0.0338949
0.0338949
0.0338949
0.033895
0.033895
0.033895
0.033895
0.033895
0.033895
0.033895
0.033895
0.033895
0.033895
0.033895
0.033895
0.033895
0.033895
0.033895
0.033895
0.033895
0.033895
0.033895
0.033895
0.033895
0.033895
0.033895
0.0338949
0.0338949
0.0338949
0.0338949
0.0338948
0.0338948
0.0338948
0.0338947
0.0338947
0.0338946
0.0338946
0.0338945
0.0338944
0.0338944
0.0338943
0.0338942
0.0338941
0.033894
0.0338939
0.0338938
0.0338936
0.0338935
0.0338934
0.0338932
0.033893
0.0338929
0.0338927
0.0338925
0.0338923
0.0338921
0.0338919
0.0338917
0.0338914
0.0338912
0.0338909
0.0338907
0.0338904
0.0338901
0.0338899
0.0338896
0.0338893
0.033889
0.0338888
0.0338885
0.0338882
0.0338879
0.0338876
0.0338874
0.0338871
0.0338869
0.0338867
0.0338865
0.0338863
0.0338861
0.0338859
0.0338858
0.0338856
0.0338855
0.0338854
0.0338854
0.0338853
0.0338853
0.0338853
0.0338853
0.0338854
0.0338855
0.0338856
0.0338858
0.033886
0.0338862
0.0338864
0.0338867
0.033887
0.0338873
0.0338876
0.0338879
0.0338883
0.0338886
0.033889
0.0338893
0.0338896
0.03389
0.0338903
0.0338906
0.0338909
0.0338912
0.0338914
0.0338917
0.0338919
0.0338921
0.0338923
0.0338925
0.0338927
0.0338928
0.033893
0.0338931
0.0338932
0.0338933
0.0338934
0.0338935
0.0338936
0.0338936
0.0338937
0.0338937
0.0338938
0.0338938
0.0338938
0.0338939
0.0338939
0.033894
0.033894
0.033894
0.0338941
0.0338941
0.0338941
0.0338942
0.0338942
0.0338942
0.0338943
0.0338943
0.0338943
0.0338944
0.0338944
0.0338945
0.0338945
0.0338946
0.0338946
0.0338946
0.0338947
0.0338947
0.0338948
0.0338948
0.0338949
0.0338949
0.033895
0.033895
0.033895
0.0338951
0.0338951
0.0338952
0.0338952
0.0338952
0.0338953
0.0338953
0.0338953
0.0338954
0.0338954
0.0338954
0.0338955
0.0338955
0.0338955
0.0338955
0.0338956
0.0338956
0.0338956
0.0338956
0.0338957
0.0338957
0.0338957
0.0338957
0.0338957
0.0338957
0.0338958
0.0338958
0.0338958
0.0338958
0.0338958
0.0338958
0.0338958
0.0338958
0.0338958
0.0338958
0.0338958
0.0338958
0.0338958
0.0338958
0.0338958
0.0338958
0.0338958
0.0338958
0.0338958
0.0338958
0.0338958
0.0338958
0.0338958
0.0338958
0.0338958
0.0338958
0.0338958
0.0338957
0.0338957
0.0338957
0.0338957
0.0338957
0.0338956
0.0338956
0.0338956
0.0338956
0.0338955
0.0338955
0.0338955
0.0338955
0.0338954
0.0338954
0.0338954
0.0338953
0.0338953
0.0338952
0.0338952
0.0338952
0.0338951
0.0338951
0.033895
0.0338949
0.0338949
0.0338948
0.0338947
0.0338947
0.0338946
0.0338945
0.0338944
0.0338943
0.0338942
0.0338941
0.033894
0.0338939
0.0338938
0.0338937
0.0338935
0.0338934
0.0338932
0.0338931
0.0338929
0.0338927
0.0338925
0.0338923
0.0338922
0.0338919
0.0338917
0.0338915
0.0338913
0.0338911
0.0338908
0.0338906
0.0338903
0.0338901
0.0338898
0.0338896
0.0338893
0.0338891
0.0338889
0.0338886
0.0338884
0.0338881
0.0338879
0.0338877
0.0338875
0.0338873
0.0338871
0.0338869
0.0338868
0.0338866
0.0338865
0.0338864
0.0338863
0.0338862
0.0338862
0.0338861
0.0338861
0.0338861
0.0338861
0.0338862
0.0338862
0.0338863
0.0338865
0.0338866
0.0338867
0.0338869
0.0338871
0.0338872
0.0338875
0.0338877
0.0338879
0.0338881
0.0338884
0.0338886
0.0338889
0.0338891
0.0338893
0.0338896
0.0338898
0.03389
0.0338903
0.0338905
0.0338907
0.0338909
0.0338911
0.0338912
0.0338914
0.0338916
0.0338917
0.0338919
0.033892
0.0338921
0.0338923
0.0338924
0.0338925
0.0338926
0.0338927
0.0338927
0.0338928
0.0338929
0.033893
0.033893
0.0338931
0.0338932
)
;

boundaryField
{
    inlet
    {
        type            calculated;
        value           uniform 0.0976562;
    }
    outlet
    {
        type            calculated;
        value           uniform 0.0338932;
    }
    emptyWalls
    {
        type            empty;
    }
}


// ************************************************************************* //
