/*--------------------------------*- C++ -*----------------------------------*\
  =========                 |
  \      /  F ield         | OpenFOAM: The Open Source CFD Toolbox
   \    /   O peration     | Website:  https://openfoam.org
    \  /    A nd           | Version:  9
     \/     M anipulation  |
\*---------------------------------------------------------------------------*/
FoamFile
{
    format      ascii;
    class       volScalarField;
    location    "0";
    object      K;
}
// * * * * * * * * * * * * * * * * * * * * * * * * * * * * * * * * * * * * * //

dimensions      [0 0 0 0 0 0 0];

internalField   nonuniform List<scalar> 
38400
(
2.745197e-12
2.975758e-12
3.106265e-12
3.018317e-12
2.700683e-12
3.024426e-12
2.984541e-12
2.677683e-12
2.583597e-12
2.745906e-12
2.757454e-12
2.592098e-12
2.910141e-12
2.832159e-12
2.957188e-12
2.814786e-12
2.957865e-12
3.115441e-12
2.875467e-12
2.780164e-12
2.693781e-12
2.591081e-12
2.357322e-12
2.874693e-12
3.033707e-12
2.867959e-12
3.092447e-12
2.876126e-12
2.602604e-12
2.520986e-12
2.808500e-12
3.105356e-12
2.761639e-12
2.461711e-12
2.791275e-12
3.100291e-12
3.305691e-12
3.046081e-12
2.733389e-12
2.508998e-12
2.753598e-12
2.650894e-12
2.903460e-12
2.888877e-12
2.789739e-12
3.095751e-12
2.903175e-12
2.834918e-12
2.824911e-12
2.470565e-12
2.605930e-12
2.482935e-12
2.850383e-12
2.762452e-12
3.143789e-12
2.437207e-12
3.014603e-12
2.858063e-12
3.012076e-12
2.678874e-12
2.510301e-12
3.047249e-12
2.540367e-12
2.831310e-12
2.874580e-12
2.853324e-12
2.689661e-12
2.724738e-12
2.869722e-12
2.672240e-12
2.488504e-12
2.623262e-12
2.318396e-12
2.761220e-12
2.967449e-12
2.994063e-12
2.886084e-12
2.823282e-12
2.566383e-12
2.571574e-12
2.410063e-12
2.698487e-12
2.913361e-12
2.936483e-12
2.890173e-12
2.721299e-12
2.672200e-12
2.504156e-12
2.792128e-12
3.031989e-12
3.167448e-12
2.524648e-12
3.178266e-12
2.800978e-12
2.612482e-12
2.485076e-12
3.177999e-12
2.435543e-12
2.625403e-12
2.628923e-12
2.927406e-12
2.959719e-12
2.552251e-12
2.772937e-12
2.932917e-12
2.943601e-12
2.641212e-12
2.692667e-12
2.483094e-12
2.823940e-12
2.308633e-12
2.644990e-12
2.861617e-12
3.004514e-12
3.024629e-12
2.853274e-12
2.578982e-12
3.015541e-12
2.813505e-12
2.577182e-12
2.840574e-12
2.867481e-12
2.713434e-12
2.965157e-12
3.026826e-12
2.597431e-12
2.419843e-12
2.983606e-12
3.009230e-12
2.621420e-12
2.888989e-12
2.791126e-12
2.665883e-12
2.460238e-12
2.538316e-12
2.723175e-12
2.784300e-12
3.123294e-12
2.805630e-12
2.706252e-12
2.523600e-12
2.923539e-12
3.194782e-12
3.030547e-12
2.639832e-12
2.671104e-12
3.136809e-12
2.971069e-12
3.135974e-12
2.732883e-12
2.785586e-12
2.451091e-12
2.913579e-12
3.169397e-12
2.709831e-12
2.916882e-12
2.900156e-12
3.076945e-12
2.779206e-12
2.475605e-12
2.882470e-12
2.762246e-12
2.939164e-12
2.679592e-12
2.995515e-12
2.692631e-12
2.730214e-12
2.399120e-12
3.257703e-12
2.919062e-12
2.538542e-12
2.958180e-12
2.610567e-12
2.912096e-12
2.804195e-12
2.889593e-12
2.942037e-12
2.602750e-12
2.821112e-12
2.884533e-12
2.837927e-12
2.896383e-12
2.944159e-12
2.685772e-12
2.861451e-12
3.106940e-12
2.766176e-12
2.873037e-12
2.959857e-12
2.700456e-12
2.795125e-12
3.135500e-12
2.797265e-12
2.514407e-12
2.857627e-12
2.867089e-12
2.738742e-12
2.996962e-12
2.384778e-12
2.492498e-12
2.952996e-12
2.861121e-12
2.836663e-12
2.884160e-12
2.910347e-12
2.924635e-12
2.567398e-12
2.964526e-12
2.452711e-12
2.381685e-12
2.913607e-12
2.855726e-12
2.859219e-12
2.639893e-12
2.667776e-12
2.855733e-12
3.075762e-12
2.539357e-12
2.910946e-12
2.747915e-12
2.338346e-12
3.282066e-12
2.766854e-12
2.978756e-12
3.131072e-12
2.923221e-12
2.982219e-12
2.684078e-12
2.393613e-12
2.569559e-12
2.670397e-12
2.627206e-12
2.392038e-12
2.172895e-12
2.953275e-12
2.698283e-12
2.548172e-12
2.982379e-12
3.101803e-12
3.108530e-12
2.856248e-12
2.569042e-12
2.745194e-12
2.563153e-12
2.910776e-12
2.339373e-12
2.560268e-12
2.681094e-12
2.607481e-12
2.895765e-12
2.954308e-12
2.798640e-12
2.527521e-12
2.692142e-12
2.618176e-12
2.676113e-12
2.729736e-12
2.578469e-12
2.700767e-12
2.891107e-12
2.865505e-12
3.017620e-12
2.489770e-12
2.510096e-12
2.357352e-12
2.576769e-12
2.900771e-12
2.838153e-12
2.915059e-12
2.923804e-12
2.980977e-12
2.869845e-12
2.616878e-12
2.734566e-12
2.616009e-12
2.751677e-12
2.994760e-12
2.586651e-12
2.824489e-12
2.812971e-12
3.318349e-12
2.558298e-12
2.909735e-12
3.077545e-12
2.509640e-12
2.442164e-12
2.672382e-12
2.552667e-12
2.898842e-12
2.896631e-12
2.728089e-12
2.850278e-12
2.858871e-12
2.562978e-12
2.658316e-12
2.511088e-12
2.934588e-12
2.537580e-12
2.875917e-12
2.742818e-12
2.768834e-12
2.649431e-12
2.691803e-12
2.827003e-12
2.439689e-12
2.820854e-12
2.739486e-12
2.716298e-12
3.214704e-12
2.457154e-12
2.889913e-12
2.434191e-12
2.860116e-12
2.835069e-12
2.696314e-12
2.444329e-12
2.677164e-12
2.775793e-12
2.909497e-12
2.981116e-12
2.695475e-12
2.784586e-12
2.483748e-12
2.513839e-12
3.049238e-12
2.740667e-12
2.720111e-12
3.299501e-12
3.186753e-12
3.048894e-12
2.967774e-12
2.937206e-12
2.641795e-12
3.159831e-12
2.844382e-12
2.350184e-12
3.072518e-12
2.741847e-12
2.670922e-12
2.706041e-12
2.491294e-12
2.982066e-12
2.968758e-12
2.677440e-12
3.293330e-12
2.959340e-12
3.066225e-12
2.733787e-12
2.432027e-12
2.844564e-12
2.414876e-12
3.047897e-12
2.950517e-12
2.761024e-12
2.917589e-12
2.802922e-12
2.746569e-12
3.161617e-12
2.992310e-12
2.909211e-12
3.092184e-12
2.642873e-12
2.749160e-12
3.063058e-12
2.753577e-12
2.739442e-12
2.966554e-12
2.810031e-12
3.012931e-12
2.808952e-12
3.085169e-12
2.781363e-12
2.996824e-12
2.365714e-12
2.669021e-12
2.582998e-12
2.706327e-12
2.914173e-12
3.119501e-12
2.548341e-12
2.863673e-12
2.530855e-12
2.760111e-12
2.735865e-12
2.814939e-12
2.801716e-12
2.632079e-12
2.862378e-12
2.576460e-12
3.041448e-12
2.641839e-12
2.655751e-12
2.788120e-12
2.934487e-12
2.598147e-12
3.221239e-12
2.930423e-12
2.664351e-12
2.718787e-12
3.017834e-12
2.739222e-12
2.858273e-12
2.572653e-12
2.729186e-12
2.849827e-12
2.541376e-12
3.039462e-12
2.409657e-12
3.041540e-12
3.018038e-12
2.868620e-12
2.674499e-12
2.634939e-12
3.054211e-12
3.085661e-12
2.595324e-12
2.693941e-12
2.815308e-12
2.421066e-12
3.153460e-12
2.888359e-12
2.919988e-12
3.080919e-12
2.675355e-12
2.880093e-12
2.535898e-12
2.728922e-12
2.350073e-12
2.683019e-12
2.461540e-12
2.426563e-12
2.695963e-12
2.883520e-12
2.744909e-12
2.849947e-12
3.126186e-12
2.492916e-12
2.735633e-12
2.986603e-12
2.520786e-12
2.755276e-12
2.941262e-12
2.670508e-12
2.747443e-12
2.790606e-12
2.823857e-12
2.687374e-12
2.863393e-12
2.477163e-12
2.840025e-12
2.716857e-12
2.734068e-12
3.230120e-12
2.635040e-12
2.579549e-12
2.674808e-12
2.878409e-12
2.777516e-12
3.119672e-12
2.637683e-12
2.406094e-12
2.701841e-12
2.874796e-12
3.155587e-12
2.830054e-12
2.782344e-12
2.556186e-12
2.846081e-12
3.017254e-12
3.005140e-12
2.900853e-12
2.892166e-12
2.865460e-12
3.029605e-12
2.485458e-12
2.609149e-12
3.229300e-12
2.534271e-12
2.846284e-12
2.616164e-12
2.848811e-12
2.660169e-12
2.752342e-12
2.655076e-12
2.508367e-12
2.479661e-12
2.800014e-12
2.402838e-12
2.641523e-12
2.566297e-12
3.060567e-12
2.304988e-12
2.561708e-12
2.906968e-12
2.505181e-12
2.917002e-12
2.973758e-12
2.835792e-12
2.896504e-12
2.872872e-12
3.016155e-12
3.158198e-12
2.871379e-12
3.310219e-12
2.813508e-12
2.376099e-12
2.617696e-12
2.499021e-12
2.829048e-12
2.295681e-12
3.058852e-12
3.187867e-12
2.913526e-12
2.735784e-12
3.139890e-12
2.328263e-12
3.155575e-12
2.477049e-12
2.903822e-12
2.599301e-12
3.009929e-12
2.806247e-12
2.647576e-12
2.932877e-12
2.380848e-12
2.861329e-12
2.472924e-12
3.065620e-12
2.781117e-12
2.694924e-12
2.492376e-12
2.800264e-12
2.747065e-12
2.697203e-12
2.885921e-12
2.442420e-12
2.673284e-12
2.331019e-12
2.953050e-12
2.484992e-12
3.111048e-12
2.916515e-12
2.921765e-12
2.877936e-12
2.602180e-12
2.731221e-12
2.963952e-12
2.921452e-12
2.720334e-12
3.039456e-12
3.026740e-12
2.579624e-12
3.023418e-12
3.229259e-12
3.023126e-12
2.701684e-12
2.841333e-12
3.006722e-12
2.931956e-12
2.675685e-12
2.002754e-12
2.860834e-12
2.715152e-12
3.343290e-12
3.378310e-12
2.790417e-12
2.876184e-12
2.957295e-12
2.745340e-12
2.323218e-12
3.006508e-12
2.717539e-12
2.808390e-12
2.950225e-12
2.557742e-12
2.690165e-12
2.993887e-12
2.791760e-12
2.904118e-12
2.729725e-12
2.507917e-12
3.193070e-12
2.696350e-12
2.472859e-12
2.733430e-12
2.495257e-12
2.468012e-12
3.175391e-12
3.079652e-12
2.715254e-12
2.623946e-12
2.486296e-12
3.049310e-12
2.846801e-12
3.021123e-12
3.118163e-12
2.408531e-12
3.014337e-12
3.076123e-12
3.026952e-12
2.809187e-12
2.523503e-12
3.029052e-12
2.623659e-12
2.539385e-12
2.835631e-12
2.818460e-12
2.413277e-12
2.782601e-12
2.324229e-12
2.403396e-12
2.755562e-12
2.952921e-12
3.116933e-12
2.652788e-12
3.160336e-12
2.434338e-12
2.834815e-12
3.087115e-12
2.768229e-12
2.874135e-12
2.975256e-12
2.645637e-12
2.436113e-12
2.472113e-12
2.191416e-12
2.945335e-12
2.729071e-12
2.685932e-12
2.817972e-12
2.823148e-12
2.799401e-12
2.609294e-12
3.143283e-12
2.633431e-12
2.843633e-12
2.775553e-12
2.694879e-12
2.793908e-12
2.950780e-12
2.985119e-12
2.810522e-12
2.876939e-12
2.558390e-12
3.004983e-12
2.722692e-12
2.991070e-12
2.883793e-12
3.029632e-12
3.014002e-12
2.540709e-12
2.788015e-12
2.600645e-12
2.912496e-12
2.791954e-12
2.635726e-12
2.921572e-12
2.878560e-12
2.785964e-12
3.186604e-12
2.635823e-12
2.740212e-12
3.112363e-12
2.891965e-12
2.691372e-12
2.847472e-12
2.863151e-12
2.815525e-12
2.912272e-12
2.531516e-12
3.351173e-12
3.073703e-12
2.748189e-12
3.012333e-12
2.539886e-12
2.572012e-12
3.030286e-12
2.960044e-12
3.101551e-12
3.112410e-12
2.248028e-12
2.471374e-12
2.654398e-12
3.171853e-12
3.030223e-12
2.963414e-12
2.974919e-12
2.997922e-12
2.779083e-12
3.042274e-12
2.591701e-12
2.254261e-12
2.654871e-12
2.809794e-12
2.870721e-12
2.598861e-12
2.682965e-12
3.029396e-12
2.611492e-12
2.355024e-12
3.048074e-12
2.674056e-12
2.939448e-12
2.940164e-12
3.077015e-12
2.399442e-12
2.512780e-12
3.261118e-12
2.924344e-12
2.580899e-12
2.908799e-12
3.027624e-12
2.979550e-12
2.895232e-12
2.651212e-12
2.822984e-12
3.077985e-12
2.967058e-12
2.646596e-12
2.624484e-12
2.550707e-12
3.114718e-12
2.721373e-12
2.570733e-12
3.184738e-12
2.669166e-12
2.975933e-12
2.910955e-12
2.453504e-12
2.596441e-12
2.755403e-12
3.105295e-12
2.957498e-12
2.563946e-12
2.900035e-12
2.609783e-12
2.914903e-12
3.061618e-12
2.574273e-12
2.951200e-12
2.653149e-12
2.989624e-12
2.565723e-12
2.927422e-12
3.122326e-12
2.383036e-12
2.755487e-12
2.464016e-12
2.879283e-12
2.605019e-12
2.706023e-12
2.909760e-12
2.627141e-12
3.007438e-12
2.299930e-12
2.599192e-12
2.753515e-12
2.842188e-12
2.726266e-12
2.713625e-12
2.880198e-12
2.732812e-12
2.859811e-12
2.676782e-12
2.706010e-12
2.807115e-12
2.979668e-12
2.900156e-12
3.305862e-12
2.575461e-12
2.690617e-12
2.781453e-12
2.685814e-12
3.370818e-12
2.578657e-12
2.782417e-12
3.219597e-12
2.582342e-12
3.052770e-12
2.496321e-12
2.682038e-12
2.774422e-12
2.796125e-12
2.489381e-12
2.569628e-12
2.873047e-12
2.769560e-12
2.985703e-12
3.071000e-12
2.641922e-12
3.028459e-12
2.457958e-12
2.982351e-12
3.001288e-12
3.081451e-12
2.777702e-12
2.483976e-12
2.553284e-12
2.884936e-12
2.805300e-12
2.609610e-12
2.779927e-12
2.859240e-12
2.731774e-12
2.803139e-12
2.602338e-12
2.822473e-12
2.350355e-12
2.958210e-12
2.691932e-12
3.003805e-12
3.044761e-12
2.874139e-12
3.149282e-12
2.693655e-12
2.814247e-12
3.062301e-12
2.736218e-12
2.829321e-12
2.232954e-12
2.587487e-12
2.896665e-12
2.847789e-12
2.882094e-12
2.803573e-12
3.174752e-12
2.799129e-12
2.604283e-12
2.912871e-12
2.439445e-12
2.884356e-12
3.104352e-12
2.884562e-12
2.534442e-12
3.084564e-12
2.926252e-12
2.731822e-12
2.732293e-12
2.687196e-12
2.774692e-12
2.726263e-12
2.963038e-12
2.551348e-12
3.017825e-12
2.716708e-12
2.724244e-12
3.208638e-12
2.359753e-12
2.472642e-12
2.708365e-12
2.848690e-12
2.768311e-12
2.907523e-12
2.789349e-12
2.997249e-12
2.738255e-12
2.515081e-12
2.642360e-12
2.909060e-12
2.524458e-12
2.982635e-12
2.856123e-12
2.722831e-12
2.810718e-12
2.606795e-12
2.909457e-12
2.561936e-12
2.618432e-12
3.060418e-12
2.383981e-12
2.664132e-12
2.782668e-12
2.849504e-12
2.931733e-12
2.809878e-12
2.645381e-12
2.769818e-12
2.840412e-12
3.273706e-12
2.887969e-12
2.554073e-12
3.010734e-12
3.111403e-12
2.943960e-12
2.676455e-12
2.680183e-12
3.027885e-12
2.408181e-12
2.442810e-12
2.923490e-12
2.917714e-12
2.875499e-12
2.439122e-12
2.430059e-12
2.685900e-12
2.949745e-12
2.756291e-12
2.630868e-12
2.860029e-12
3.113602e-12
2.785403e-12
2.928171e-12
2.543398e-12
3.042253e-12
2.619755e-12
2.602552e-12
2.631605e-12
3.142204e-12
2.559268e-12
2.919664e-12
2.970313e-12
2.636870e-12
2.638496e-12
2.763857e-12
2.779431e-12
2.626165e-12
2.837629e-12
2.889690e-12
2.897984e-12
2.673717e-12
2.660752e-12
2.644912e-12
2.670576e-12
2.770775e-12
3.037124e-12
2.795889e-12
3.066897e-12
2.906062e-12
2.867904e-12
3.016161e-12
2.779494e-12
2.711246e-12
2.784436e-12
2.923494e-12
2.916054e-12
2.550079e-12
2.661152e-12
2.904321e-12
2.829944e-12
2.560780e-12
2.629213e-12
2.968746e-12
2.458785e-12
2.735231e-12
2.927519e-12
3.370166e-12
2.658124e-12
2.587899e-12
2.613284e-12
2.868458e-12
2.452127e-12
3.030159e-12
2.770866e-12
2.774223e-12
2.903685e-12
2.628140e-12
2.568821e-12
2.650117e-12
2.786562e-12
2.698193e-12
2.826223e-12
2.733017e-12
2.905946e-12
3.073987e-12
3.171954e-12
2.398296e-12
3.167670e-12
3.131008e-12
2.918393e-12
2.796859e-12
2.708690e-12
2.609644e-12
2.940757e-12
2.708268e-12
2.764789e-12
2.814138e-12
2.613138e-12
2.997095e-12
2.895638e-12
3.037695e-12
2.914171e-12
3.106926e-12
2.499290e-12
2.674294e-12
2.645232e-12
2.977264e-12
3.359722e-12
3.314202e-12
2.498616e-12
2.518425e-12
2.774422e-12
2.657118e-12
2.979580e-12
3.089264e-12
2.888663e-12
2.674036e-12
3.072827e-12
2.794275e-12
2.650640e-12
2.833731e-12
2.835541e-12
2.532780e-12
2.453221e-12
3.036387e-12
2.621150e-12
3.191785e-12
2.987449e-12
2.862056e-12
2.709042e-12
2.503922e-12
2.851604e-12
2.802235e-12
2.815535e-12
2.265915e-12
2.447363e-12
2.782172e-12
2.959843e-12
2.713602e-12
2.757316e-12
2.532934e-12
2.946297e-12
2.978871e-12
2.803527e-12
2.890245e-12
3.007007e-12
2.779467e-12
2.713667e-12
2.814079e-12
2.878626e-12
3.103278e-12
2.522950e-12
2.735171e-12
2.815377e-12
2.591557e-12
2.599902e-12
2.599801e-12
2.962856e-12
2.824481e-12
2.708666e-12
2.852498e-12
2.748232e-12
2.881704e-12
2.942883e-12
2.846913e-12
2.800831e-12
3.006783e-12
2.635266e-12
2.762548e-12
3.129466e-12
2.492901e-12
2.567943e-12
2.772591e-12
2.622028e-12
2.924811e-12
2.755314e-12
3.071188e-12
2.587689e-12
2.849369e-12
2.912602e-12
2.823209e-12
2.564387e-12
2.648860e-12
3.009473e-12
2.407571e-12
2.740843e-12
2.921239e-12
2.914341e-12
3.060190e-12
2.761743e-12
2.475240e-12
2.661981e-12
2.714664e-12
2.736748e-12
2.907631e-12
2.917914e-12
2.545324e-12
2.934544e-12
2.443079e-12
3.389870e-12
2.778839e-12
2.855480e-12
2.631789e-12
2.781287e-12
2.439423e-12
3.083296e-12
2.936473e-12
2.889836e-12
2.965518e-12
3.141881e-12
3.129727e-12
2.622897e-12
2.981832e-12
2.644268e-12
2.797196e-12
3.182380e-12
2.920125e-12
2.886317e-12
2.699156e-12
2.814928e-12
2.855718e-12
2.935502e-12
2.822182e-12
2.767763e-12
2.561031e-12
2.411435e-12
3.128153e-12
2.887738e-12
2.687775e-12
2.619176e-12
2.907622e-12
2.678389e-12
2.653906e-12
2.770788e-12
3.001127e-12
2.755179e-12
3.079938e-12
2.678376e-12
2.872979e-12
2.784541e-12
2.682420e-12
2.763799e-12
2.922203e-12
2.728971e-12
2.939497e-12
2.981649e-12
2.813450e-12
3.073249e-12
2.988385e-12
2.761359e-12
2.446367e-12
3.023821e-12
2.786319e-12
2.212930e-12
2.819918e-12
2.991211e-12
3.227030e-12
2.619005e-12
3.245710e-12
2.412658e-12
2.729040e-12
3.030708e-12
2.100474e-12
2.995137e-12
2.742886e-12
2.711244e-12
2.663283e-12
2.714493e-12
2.678785e-12
2.841741e-12
2.900089e-12
2.858293e-12
2.698459e-12
2.655479e-12
2.809834e-12
2.870073e-12
2.874812e-12
2.646154e-12
2.938067e-12
2.732511e-12
2.775446e-12
2.451063e-12
2.895120e-12
2.666502e-12
2.883504e-12
2.786210e-12
2.849069e-12
2.586508e-12
2.664795e-12
2.927138e-12
2.528945e-12
2.818158e-12
2.541354e-12
2.784171e-12
2.896561e-12
3.083622e-12
2.843903e-12
2.574492e-12
3.247816e-12
2.463515e-12
2.541077e-12
2.487959e-12
3.013222e-12
2.862267e-12
2.956972e-12
2.675354e-12
2.839786e-12
2.723290e-12
2.660997e-12
3.019426e-12
2.441430e-12
2.343371e-12
3.276228e-12
2.799109e-12
2.702200e-12
2.740511e-12
3.240777e-12
3.448616e-12
2.819698e-12
2.875492e-12
2.690808e-12
2.557865e-12
2.738328e-12
2.737925e-12
2.758180e-12
2.674997e-12
2.826764e-12
2.993129e-12
2.976238e-12
2.693905e-12
2.980756e-12
2.936224e-12
2.850627e-12
3.070455e-12
2.635846e-12
3.258965e-12
2.346267e-12
3.287358e-12
2.387214e-12
2.884562e-12
3.167654e-12
2.813379e-12
2.967558e-12
2.780989e-12
2.545084e-12
2.751000e-12
2.738072e-12
3.278040e-12
2.644982e-12
2.753034e-12
3.094439e-12
3.004233e-12
3.025206e-12
2.912348e-12
3.013884e-12
2.730947e-12
3.104401e-12
2.527728e-12
2.512136e-12
2.584854e-12
2.660596e-12
2.739092e-12
2.671745e-12
2.799987e-12
2.607829e-12
2.286406e-12
2.935503e-12
2.984933e-12
2.731208e-12
2.450965e-12
3.000132e-12
2.761325e-12
3.035427e-12
3.035903e-12
2.826278e-12
2.687400e-12
2.937637e-12
2.833491e-12
2.732818e-12
2.676216e-12
2.669703e-12
3.060157e-12
2.808640e-12
3.135594e-12
2.737938e-12
2.745773e-12
2.719820e-12
2.963622e-12
2.920635e-12
2.705976e-12
2.735359e-12
2.527620e-12
2.903639e-12
3.191039e-12
3.064202e-12
2.685126e-12
2.801427e-12
2.830837e-12
2.766255e-12
2.572442e-12
2.563184e-12
3.164483e-12
2.723340e-12
2.602196e-12
3.221617e-12
2.995248e-12
2.562153e-12
2.401709e-12
2.444628e-12
2.456930e-12
2.729451e-12
2.603242e-12
3.110263e-12
2.969436e-12
2.922020e-12
2.448267e-12
2.988151e-12
3.359020e-12
2.854060e-12
2.848713e-12
2.982213e-12
2.809849e-12
3.100116e-12
2.807867e-12
2.723529e-12
2.940122e-12
2.820499e-12
2.901340e-12
2.596546e-12
2.988288e-12
2.745931e-12
2.881970e-12
2.377817e-12
2.782982e-12
2.520049e-12
2.406014e-12
2.729817e-12
2.928676e-12
2.713834e-12
2.687801e-12
2.813010e-12
2.428123e-12
2.871743e-12
2.707146e-12
2.456168e-12
2.817073e-12
3.007302e-12
2.961163e-12
2.752139e-12
2.745513e-12
2.855150e-12
2.744530e-12
2.385829e-12
2.995428e-12
2.618022e-12
2.871947e-12
2.881293e-12
3.106446e-12
3.140511e-12
2.650489e-12
3.085270e-12
2.807506e-12
2.697435e-12
2.843214e-12
2.817528e-12
3.235452e-12
2.707405e-12
2.392054e-12
3.214192e-12
3.049869e-12
2.896268e-12
2.721691e-12
2.613778e-12
2.750671e-12
2.986681e-12
2.653204e-12
2.509873e-12
2.636175e-12
3.050339e-12
3.101532e-12
2.758143e-12
2.694070e-12
2.722551e-12
2.493598e-12
2.594831e-12
2.949904e-12
2.708568e-12
2.368028e-12
2.768042e-12
2.704357e-12
2.693079e-12
2.463222e-12
2.674897e-12
3.021917e-12
2.687057e-12
3.106978e-12
2.861027e-12
3.108952e-12
2.655445e-12
2.825743e-12
2.926613e-12
3.241230e-12
2.410158e-12
3.257282e-12
2.806849e-12
2.819367e-12
3.076071e-12
2.593867e-12
2.758470e-12
2.612491e-12
2.670793e-12
2.859547e-12
3.021442e-12
2.930178e-12
2.815309e-12
2.980709e-12
2.680337e-12
2.332626e-12
3.009039e-12
2.891994e-12
2.519745e-12
2.603186e-12
3.028328e-12
3.085595e-12
2.445777e-12
2.792422e-12
2.501778e-12
2.516569e-12
2.868967e-12
2.739615e-12
2.407256e-12
2.751498e-12
3.031492e-12
2.747662e-12
2.854366e-12
2.690690e-12
2.844276e-12
2.627593e-12
2.778533e-12
2.855418e-12
3.259199e-12
3.002763e-12
2.834006e-12
3.078758e-12
3.015086e-12
2.708299e-12
2.790350e-12
3.332088e-12
2.135143e-12
2.416183e-12
2.932599e-12
2.728280e-12
2.549466e-12
2.981341e-12
3.100221e-12
2.695374e-12
2.727580e-12
2.689394e-12
3.048458e-12
2.953256e-12
2.758366e-12
2.285328e-12
2.781490e-12
2.994699e-12
2.362231e-12
2.935278e-12
2.918080e-12
2.879116e-12
2.649557e-12
2.953242e-12
2.740545e-12
2.799523e-12
2.469532e-12
2.586308e-12
2.895436e-12
2.130846e-12
2.737459e-12
3.195973e-12
2.925220e-12
2.405556e-12
3.350606e-12
2.991743e-12
2.839621e-12
2.918091e-12
2.728811e-12
2.739787e-12
3.145453e-12
2.671554e-12
2.388500e-12
2.801635e-12
3.185510e-12
3.017576e-12
2.571341e-12
2.278145e-12
2.896678e-12
2.599403e-12
2.900633e-12
2.252098e-12
3.014790e-12
2.481640e-12
2.522346e-12
2.724221e-12
2.914313e-12
2.545513e-12
3.050943e-12
3.079658e-12
2.837693e-12
2.466347e-12
2.686731e-12
2.704556e-12
2.891039e-12
2.877737e-12
2.217223e-12
3.127744e-12
3.030189e-12
2.825737e-12
2.700767e-12
2.724132e-12
2.531747e-12
2.771583e-12
2.842114e-12
2.972119e-12
2.808696e-12
2.730997e-12
2.507164e-12
2.722865e-12
2.679974e-12
2.683667e-12
2.634199e-12
2.798581e-12
3.024462e-12
2.506327e-12
2.483005e-12
2.807715e-12
2.992162e-12
2.670084e-12
2.587221e-12
2.689392e-12
2.721842e-12
2.750702e-12
2.956601e-12
2.826202e-12
2.834456e-12
2.744789e-12
2.718133e-12
2.774219e-12
2.466679e-12
2.852346e-12
2.607708e-12
2.492663e-12
2.831075e-12
2.240888e-12
3.007669e-12
2.693451e-12
2.798377e-12
2.601137e-12
2.177689e-12
3.039943e-12
2.869320e-12
3.044202e-12
2.788809e-12
2.568870e-12
3.069883e-12
2.644482e-12
2.814036e-12
2.734761e-12
2.732521e-12
2.687208e-12
3.010538e-12
2.782705e-12
3.263388e-12
2.891316e-12
2.736214e-12
3.073501e-12
3.218835e-12
2.883678e-12
2.760006e-12
2.712073e-12
2.875812e-12
2.778196e-12
2.570829e-12
2.904958e-12
2.487112e-12
2.752453e-12
2.649579e-12
2.407360e-12
2.623336e-12
3.165547e-12
2.590279e-12
2.746911e-12
3.315273e-12
2.672334e-12
3.250517e-12
2.727639e-12
2.519987e-12
2.795599e-12
2.871296e-12
2.325930e-12
2.378899e-12
2.458785e-12
2.681453e-12
2.873448e-12
3.302469e-12
2.564655e-12
2.661447e-12
2.581940e-12
2.693192e-12
3.121340e-12
2.457020e-12
2.771203e-12
2.867602e-12
2.852394e-12
2.659261e-12
2.717630e-12
2.326729e-12
2.647689e-12
2.913269e-12
2.888951e-12
2.754848e-12
2.677574e-12
2.204074e-12
2.455494e-12
2.771171e-12
2.479019e-12
2.918596e-12
2.366742e-12
2.791227e-12
2.861209e-12
3.115223e-12
2.945672e-12
3.086486e-12
3.079529e-12
3.073273e-12
2.569990e-12
2.495033e-12
2.887344e-12
2.824416e-12
2.561652e-12
2.969032e-12
3.050578e-12
2.524590e-12
2.850674e-12
2.552061e-12
2.421904e-12
2.804154e-12
2.599662e-12
3.180338e-12
2.982576e-12
2.826522e-12
2.565713e-12
2.753568e-12
2.865439e-12
2.987963e-12
2.751885e-12
2.958228e-12
2.681513e-12
2.533224e-12
3.152791e-12
2.416313e-12
2.853380e-12
2.988799e-12
2.466850e-12
2.696000e-12
2.813157e-12
2.793682e-12
2.444583e-12
2.878617e-12
2.708907e-12
2.549847e-12
2.547163e-12
2.449507e-12
2.803463e-12
2.757541e-12
3.057551e-12
2.738646e-12
2.692974e-12
2.855124e-12
2.707184e-12
2.803620e-12
3.090191e-12
2.731002e-12
2.897906e-12
2.900095e-12
2.884315e-12
3.153242e-12
2.604084e-12
3.027302e-12
2.576752e-12
3.171133e-12
2.996070e-12
2.579910e-12
3.118132e-12
2.566001e-12
3.230251e-12
3.035291e-12
2.895683e-12
2.821123e-12
2.979494e-12
3.005193e-12
2.816781e-12
2.688708e-12
2.255891e-12
2.813231e-12
2.788476e-12
2.967432e-12
2.705833e-12
2.466774e-12
2.801473e-12
2.504143e-12
2.550827e-12
2.916060e-12
3.118038e-12
2.921452e-12
2.690209e-12
3.124157e-12
2.692813e-12
2.974330e-12
2.922221e-12
2.918521e-12
3.002179e-12
3.025988e-12
3.124998e-12
2.375991e-12
2.948481e-12
3.192636e-12
2.962893e-12
2.895350e-12
2.890698e-12
2.768512e-12
2.744581e-12
2.761237e-12
2.668854e-12
2.955143e-12
2.689968e-12
2.363224e-12
2.974750e-12
2.687188e-12
3.189945e-12
2.494869e-12
2.726025e-12
2.438800e-12
2.810115e-12
3.004302e-12
3.111591e-12
2.634200e-12
2.861142e-12
2.685663e-12
2.740158e-12
3.222159e-12
2.760596e-12
2.765996e-12
3.242154e-12
2.866435e-12
2.869028e-12
2.542366e-12
2.569091e-12
2.457682e-12
2.438246e-12
3.170461e-12
1.931424e-12
3.044088e-12
2.700290e-12
2.805053e-12
2.459629e-12
3.084150e-12
2.743590e-12
3.123537e-12
3.322865e-12
3.119915e-12
2.503228e-12
2.346615e-12
2.998658e-12
2.842406e-12
2.832459e-12
3.025871e-12
2.490644e-12
2.676346e-12
2.858132e-12
3.033326e-12
2.826033e-12
2.554603e-12
2.953385e-12
2.914747e-12
2.943535e-12
2.959072e-12
3.057792e-12
2.703990e-12
2.855675e-12
2.697177e-12
2.834030e-12
2.790339e-12
2.913253e-12
2.640049e-12
2.882162e-12
2.736639e-12
3.200645e-12
2.876509e-12
2.557801e-12
2.802179e-12
2.811944e-12
2.298968e-12
2.388711e-12
2.997729e-12
2.889666e-12
3.017461e-12
3.036353e-12
2.480650e-12
3.162870e-12
2.741005e-12
2.781065e-12
2.491517e-12
2.510204e-12
2.610544e-12
2.803155e-12
2.703325e-12
2.701871e-12
3.044881e-12
2.902434e-12
2.664087e-12
2.852576e-12
2.936196e-12
2.818091e-12
2.708775e-12
3.140313e-12
2.469106e-12
3.072589e-12
3.074972e-12
2.797910e-12
2.485989e-12
2.723297e-12
2.527008e-12
2.931971e-12
3.122774e-12
3.421876e-12
2.759956e-12
2.823666e-12
2.654558e-12
2.649879e-12
2.878837e-12
2.874502e-12
2.631232e-12
2.712927e-12
2.601170e-12
2.943572e-12
2.636489e-12
2.563835e-12
2.624971e-12
2.608059e-12
2.913644e-12
2.788823e-12
2.909536e-12
2.690564e-12
2.684318e-12
2.972401e-12
2.593520e-12
2.338494e-12
2.856390e-12
2.664431e-12
3.217756e-12
2.990720e-12
3.229774e-12
2.827214e-12
2.969085e-12
2.690185e-12
2.738573e-12
2.637600e-12
2.754151e-12
2.811477e-12
2.861270e-12
2.485681e-12
2.868961e-12
3.337244e-12
2.940488e-12
2.986717e-12
2.856162e-12
2.640836e-12
2.517163e-12
3.245094e-12
3.098258e-12
2.596925e-12
2.795082e-12
2.923785e-12
2.665021e-12
2.919498e-12
2.737238e-12
3.063524e-12
3.357976e-12
3.031928e-12
2.668378e-12
2.730990e-12
2.723131e-12
3.078654e-12
2.938094e-12
3.248298e-12
2.938256e-12
2.633299e-12
2.755407e-12
2.850324e-12
2.807496e-12
2.670403e-12
2.765603e-12
2.777926e-12
2.817108e-12
2.988169e-12
3.057246e-12
2.738104e-12
2.843714e-12
2.615300e-12
2.903789e-12
3.315722e-12
2.830085e-12
2.776645e-12
2.880161e-12
2.516973e-12
2.859516e-12
2.918515e-12
2.848033e-12
2.546574e-12
2.724997e-12
2.745482e-12
3.086553e-12
2.046438e-12
2.645601e-12
2.768162e-12
3.130187e-12
3.050517e-12
2.727124e-12
2.671284e-12
2.787706e-12
2.842031e-12
2.741410e-12
2.901649e-12
2.689784e-12
2.796590e-12
2.676569e-12
3.335472e-12
3.132538e-12
2.614288e-12
2.733870e-12
2.617818e-12
2.878984e-12
2.794602e-12
2.747767e-12
2.268123e-12
2.801422e-12
2.851919e-12
2.947077e-12
2.822913e-12
2.241194e-12
2.976824e-12
2.471127e-12
2.478154e-12
2.486448e-12
2.816640e-12
2.640409e-12
2.975007e-12
2.759232e-12
2.688284e-12
2.508936e-12
2.742022e-12
2.870270e-12
2.886491e-12
2.639081e-12
2.976207e-12
2.812736e-12
2.736940e-12
2.870072e-12
2.819861e-12
2.289956e-12
2.480488e-12
2.567173e-12
3.383315e-12
2.563484e-12
2.308869e-12
2.691063e-12
2.809913e-12
3.148092e-12
2.620897e-12
2.667754e-12
2.882041e-12
2.684745e-12
2.519721e-12
2.388262e-12
2.792467e-12
3.311642e-12
2.481260e-12
3.071428e-12
2.694518e-12
2.868161e-12
2.686070e-12
3.092644e-12
2.472120e-12
2.482734e-12
3.144709e-12
2.995084e-12
2.808064e-12
2.941822e-12
2.702751e-12
2.961879e-12
2.142065e-12
2.810336e-12
2.914769e-12
2.404565e-12
2.615183e-12
2.565608e-12
2.670206e-12
2.267722e-12
2.528177e-12
2.516166e-12
2.550227e-12
3.165299e-12
3.069646e-12
2.703988e-12
2.766932e-12
2.309437e-12
3.013490e-12
2.922977e-12
2.720447e-12
2.724475e-12
2.883879e-12
2.741779e-12
2.915367e-12
2.998656e-12
2.777422e-12
2.578074e-12
2.776646e-12
2.942992e-12
2.943814e-12
2.817246e-12
2.256428e-12
2.656559e-12
3.158288e-12
2.756834e-12
2.966470e-12
3.219663e-12
2.717273e-12
2.876838e-12
2.849591e-12
2.920803e-12
2.924276e-12
2.842490e-12
2.261937e-12
2.688843e-12
2.299532e-12
2.366752e-12
2.521104e-12
2.704325e-12
2.462066e-12
2.394688e-12
2.507226e-12
2.838208e-12
2.652174e-12
2.829028e-12
2.786261e-12
2.882985e-12
2.823030e-12
2.757409e-12
2.867335e-12
2.702781e-12
2.701031e-12
2.673695e-12
2.618578e-12
2.638386e-12
3.043104e-12
2.697031e-12
2.617731e-12
2.590994e-12
2.577133e-12
2.700821e-12
2.510368e-12
2.660351e-12
2.241105e-12
2.725913e-12
2.284624e-12
2.746743e-12
2.749541e-12
2.799642e-12
3.070175e-12
2.558293e-12
2.549571e-12
2.882501e-12
2.751871e-12
2.727231e-12
2.567550e-12
3.101376e-12
2.660193e-12
2.790288e-12
2.734188e-12
2.938836e-12
2.839882e-12
2.762456e-12
2.435213e-12
2.887930e-12
3.002747e-12
2.891763e-12
2.390022e-12
2.502876e-12
2.986465e-12
2.744250e-12
2.851859e-12
3.113739e-12
2.759292e-12
2.684568e-12
2.806427e-12
2.826844e-12
2.664929e-12
2.685715e-12
2.583854e-12
3.068563e-12
2.421458e-12
2.246783e-12
2.656306e-12
2.939216e-12
2.779884e-12
2.700097e-12
2.342999e-12
3.032613e-12
2.970299e-12
2.843959e-12
3.089699e-12
3.063753e-12
2.694572e-12
2.913412e-12
3.156999e-12
3.048707e-12
2.668961e-12
2.515860e-12
3.514034e-12
3.033688e-12
2.888569e-12
2.318767e-12
2.370311e-12
2.518992e-12
2.657980e-12
2.740371e-12
3.022821e-12
3.034865e-12
2.743312e-12
2.826255e-12
2.993182e-12
2.429738e-12
2.729084e-12
3.079703e-12
2.512302e-12
3.040758e-12
2.617986e-12
2.832912e-12
2.793978e-12
2.679724e-12
2.690294e-12
2.684656e-12
2.858475e-12
2.999763e-12
2.796394e-12
3.350736e-12
3.133011e-12
2.752636e-12
2.939565e-12
2.523671e-12
2.824091e-12
2.864427e-12
2.573080e-12
2.666938e-12
3.014767e-12
2.970852e-12
2.808615e-12
3.226707e-12
2.851360e-12
2.875514e-12
2.822323e-12
3.091124e-12
2.835139e-12
2.827907e-12
2.795675e-12
2.589854e-12
2.824344e-12
3.014870e-12
2.993460e-12
2.348197e-12
2.600280e-12
2.802994e-12
2.833980e-12
2.683405e-12
2.719488e-12
2.629694e-12
2.947053e-12
3.132661e-12
3.026019e-12
2.795921e-12
2.560926e-12
2.575848e-12
2.686853e-12
3.031437e-12
3.281183e-12
2.872876e-12
2.927053e-12
2.532354e-12
3.028581e-12
3.036814e-12
2.721468e-12
2.594465e-12
2.503144e-12
2.526816e-12
2.703905e-12
2.304624e-12
2.862424e-12
2.894246e-12
3.039441e-12
2.600866e-12
2.704119e-12
2.804770e-12
3.113203e-12
2.998048e-12
2.781250e-12
2.614036e-12
2.775515e-12
2.695189e-12
2.857171e-12
3.136962e-12
2.897459e-12
3.054015e-12
2.548367e-12
2.964469e-12
2.553178e-12
2.539436e-12
2.513834e-12
2.927136e-12
3.183498e-12
2.518232e-12
2.716045e-12
3.048041e-12
2.902833e-12
2.048965e-12
2.797148e-12
2.739668e-12
2.678342e-12
2.630763e-12
2.439831e-12
2.907963e-12
2.959104e-12
2.390756e-12
3.040916e-12
2.869981e-12
2.497936e-12
2.609218e-12
2.718469e-12
2.571305e-12
2.718894e-12
2.461717e-12
2.562239e-12
3.015888e-12
3.002895e-12
2.795235e-12
2.424528e-12
2.889413e-12
2.807390e-12
2.538252e-12
2.929408e-12
2.671390e-12
2.622338e-12
2.672063e-12
2.957660e-12
3.137826e-12
2.964307e-12
3.052229e-12
2.575673e-12
2.430271e-12
2.867596e-12
2.895848e-12
2.718019e-12
2.794526e-12
2.584184e-12
2.621650e-12
2.401368e-12
3.341035e-12
2.822925e-12
2.857160e-12
2.177003e-12