/*--------------------------------*- C++ -*----------------------------------*\
  =========                 |
  \\      /  F ield         | OpenFOAM: The Open Source CFD Toolbox
   \\    /   O peration     | Website:  https://openfoam.org
    \\  /    A nd           | Version:  9
     \\/     M anipulation  |
\*---------------------------------------------------------------------------*/
FoamFile
{
    format      ascii;
    class       volScalarField;
    location    "60000";
    object      krc;
}
// * * * * * * * * * * * * * * * * * * * * * * * * * * * * * * * * * * * * * //

dimensions      [0 0 0 0 0 0 0];

internalField   nonuniform List<scalar> 
100
(
2.68341e-23
8.07108e-24
7.70248e-24
9.38374e-24
7.78823e-25
9.20425e-24
1.37624e-24
1.0058e-26
6.23205e-24
1.97391e-24
6.34545e-24
2.22718e-25
1.66924e-24
4.71327e-24
7.43468e-24
3.08034e-24
5.46544e-24
3.14494e-25
1.33113e-23
2.09922e-23
1.18484e-23
3.56325e-23
2.70509e-23
8.31103e-24
8.36275e-23
3.52716e-23
1.66978e-22
9.20978e-23
2.88394e-22
2.20795e-22
5.3896e-22
4.98004e-22
5.56672e-22
7.39652e-22
1.16394e-21
1.12484e-21
1.44956e-21
1.64865e-21
1.96956e-21
2.10815e-21
2.06965e-21
1.72305e-21
1.50959e-21
1.89429e-21
1.18094e-21
7.12459e-22
3.47559e-22
1.36575e-25
8.99944e-23
3.16771e-22
1.21714e-21
2.88126e-21
5.27352e-21
7.33693e-21
1.14111e-20
1.78995e-20
2.28434e-20
3.00276e-20
3.99892e-20
4.81682e-20
5.66198e-20
6.43847e-20
7.10782e-20
7.79273e-20
8.195e-20
8.41538e-20
9.01659e-20
8.81537e-20
9.1551e-20
8.85111e-20
8.80688e-20
8.41874e-20
7.91394e-20
7.38521e-20
6.8972e-20
6.24854e-20
5.75643e-20
5.13111e-20
4.68479e-20
3.99624e-20
3.55778e-20
2.87763e-20
2.53984e-20
2.17834e-20
1.78792e-20
1.46481e-20
1.20215e-20
9.94115e-21
7.62322e-21
6.19744e-21
4.34133e-21
3.41502e-21
2.77288e-21
1.04323e-21
4.67529e-21
3.13494e-20
4.06325e-19
8.39412e-18
1.06825e-16
5.58967e-16
)
;

boundaryField
{
    inlet
    {
        type            calculated;
        value           uniform 2.68341e-23;
    }
    outlet
    {
        type            calculated;
        value           uniform 5.58967e-16;
    }
    emptyWalls
    {
        type            empty;
    }
}


// ************************************************************************* //
