/*--------------------------------*- C++ -*----------------------------------*\
  =========                 |
  \\      /  F ield         | OpenFOAM: The Open Source CFD Toolbox
   \\    /   O peration     | Website:  https://openfoam.org
    \\  /    A nd           | Version:  9
     \\/     M anipulation  |
\*---------------------------------------------------------------------------*/
FoamFile
{
    format      ascii;
    class       volScalarField;
    location    "22050";
    object      Fa;
}
// * * * * * * * * * * * * * * * * * * * * * * * * * * * * * * * * * * * * * //

dimensions      [0 0 0 0 0 0 0];

internalField   nonuniform List<scalar> 
1000
(
0.194749
0.194865
0.194725
0.194851
0.194711
0.194786
0.194698
0.194696
0.194655
0.194619
0.194582
0.194545
0.194493
0.194444
0.194387
0.194323
0.19427
0.194187
0.194166
0.194038
0.194077
0.193905
0.193983
0.193825
0.193883
0.193785
0.193795
0.193721
0.193601
0.193074
0.189864
0.16665
0.153407
0.150941
0.14999
0.149463
0.149106
0.148835
0.148618
0.148432
0.148261
0.148094
0.147932
0.147786
0.147667
0.147577
0.147504
0.147428
0.147332
0.147214
0.147089
0.146985
0.146939
0.146977
0.147111
0.147332
0.147612
0.14791
0.148185
0.148403
0.148544
0.14861
0.148619
0.148608
0.148594
0.148555
0.148345
0.148036
0.147685
0.147318
0.146961
0.14663
0.146338
0.146091
0.145891
0.145736
0.145622
0.145543
0.145494
0.145467
0.145456
0.145455
0.14546
0.145465
0.145469
0.14547
0.145469
0.145463
0.14545
0.14543
0.145405
0.145376
0.145343
0.145309
0.145272
0.145235
0.145197
0.145159
0.145121
0.145083
0.145046
0.145009
0.144973
0.144938
0.144904
0.14487
0.144837
0.144805
0.144774
0.144744
0.144714
0.144685
0.144658
0.144631
0.144605
0.14458
0.144556
0.144533
0.144512
0.144491
0.144471
0.144452
0.144434
0.144417
0.1444
0.144385
0.14437
0.144357
0.144345
0.144334
0.144324
0.144316
0.144309
0.144303
0.144299
0.144294
0.14429
0.144286
0.144282
0.144277
0.144272
0.144266
0.144261
0.144257
0.144253
0.144251
0.14425
0.144251
0.144252
0.144254
0.144256
0.144258
0.144259
0.144258
0.144256
0.144251
0.144245
0.144239
0.144236
0.144237
0.144247
0.144268
0.144301
0.144349
0.144414
0.144494
0.14459
0.144699
0.144822
0.144954
0.145094
0.14524
0.145387
0.145533
0.145674
0.145806
0.145925
0.146026
0.146107
0.146164
0.146194
0.146195
0.146167
0.146111
0.146027
0.14592
0.145792
0.145648
0.145493
0.145332
0.145169
0.145009
0.144856
0.144712
0.144581
0.144463
0.144359
0.14427
0.144195
0.144132
0.144082
0.144041
0.144009
0.143983
0.143963
0.143947
0.143933
0.14392
0.143907
0.143894
0.14388
0.143864
0.143846
0.143826
0.143805
0.143781
0.143755
0.143728
0.1437
0.14367
0.143639
0.143608
0.143576
0.143543
0.143511
0.143478
0.143445
0.143413
0.14338
0.143348
0.143317
0.143285
0.143255
0.143224
0.143195
0.143165
0.143137
0.143109
0.143081
0.143054
0.143028
0.143003
0.142978
0.142954
0.14293
0.142907
0.142885
0.142863
0.142842
0.142822
0.142803
0.142784
0.142766
0.142748
0.142732
0.142716
0.142701
0.142687
0.142674
0.142661
0.142649
0.142638
0.142628
0.142618
0.142609
0.1426
0.142592
0.142584
0.142576
0.142568
0.142561
0.142555
0.142548
0.142542
0.142537
0.142532
0.142528
0.142524
0.14252
0.142516
0.142512
0.142509
0.142505
0.142501
0.142497
0.142492
0.142489
0.142485
0.142483
0.142483
0.142485
0.142491
0.1425
0.142515
0.142534
0.142561
0.142593
0.142634
0.142681
0.142737
0.1428
0.14287
0.142947
0.14303
0.143118
0.143211
0.143306
0.143403
0.1435
0.143594
0.143685
0.143771
0.14385
0.143919
0.143978
0.144025
0.144059
0.144079
0.144083
0.144073
0.144047
0.144006
0.143952
0.143885
0.143806
0.143718
0.143621
0.143519
0.143413
0.143305
0.143196
0.143089
0.142985
0.142885
0.142791
0.142702
0.14262
0.142544
0.142476
0.142414
0.142358
0.142308
0.142264
0.142225
0.14219
0.142159
0.14213
0.142104
0.14208
0.142058
0.142036
0.142015
0.141994
0.141973
0.141951
0.141929
0.141907
0.141883
0.141859
0.141834
0.141808
0.141781
0.141754
0.141726
0.141698
0.141669
0.141639
0.14161
0.14158
0.14155
0.14152
0.14149
0.14146
0.14143
0.141401
0.141371
0.141342
0.141313
0.141285
0.141256
0.141229
0.141201
0.141174
0.141148
0.141122
0.141097
0.141072
0.141047
0.141023
0.141
0.140977
0.140955
0.140933
0.140912
0.140891
0.140871
0.140852
0.140833
0.140815
0.140798
0.140781
0.140765
0.140749
0.140734
0.14072
0.140706
0.140693
0.140681
0.140669
0.140657
0.140646
0.140635
0.140625
0.140616
0.140607
0.140598
0.140589
0.140581
0.140574
0.140567
0.14056
0.140553
0.140547
0.140541
0.140535
0.140529
0.140524
0.140518
0.140513
0.140508
0.140504
0.140499
0.140495
0.140492
0.14049
0.140488
0.140488
0.140489
0.140493
0.140498
0.140506
0.140517
0.140531
0.140548
0.140569
0.140595
0.140624
0.140657
0.140696
0.140738
0.140784
0.140835
0.14089
0.140947
0.141008
0.141072
0.141137
0.141204
0.141271
0.141338
0.141404
0.141467
0.141528
0.141586
0.141638
0.141685
0.141726
0.14176
0.141786
0.141803
0.141813
0.141813
0.141804
0.141786
0.141759
0.141724
0.14168
0.141629
0.141571
0.141507
0.141437
0.141363
0.141286
0.141206
0.141125
0.141043
0.140962
0.140881
0.140802
0.140726
0.140652
0.140582
0.140514
0.140451
0.140391
0.140335
0.140283
0.140234
0.140189
0.140146
0.140107
0.14007
0.140036
0.140004
0.139973
0.139944
0.139916
0.13989
0.139863
0.139838
0.139813
0.139788
0.139763
0.139738
0.139713
0.139688
0.139662
0.139636
0.13961
0.139584
0.139557
0.13953
0.139502
0.139474
0.139447
0.139418
0.13939
0.139362
0.139333
0.139305
0.139277
0.139248
0.13922
0.139192
0.139164
0.139137
0.139109
0.139082
0.139055
0.139029
0.139002
0.138977
0.138951
0.138926
0.138901
0.138877
0.138853
0.13883
0.138807
0.138785
0.138763
0.138741
0.13872
0.1387
0.138679
0.13866
0.138641
0.138622
0.138604
0.138587
0.13857
0.138554
0.138538
0.138522
0.138507
0.138493
0.138479
0.138465
0.138452
0.138439
0.138427
0.138415
0.138404
0.138393
0.138382
0.138372
0.138362
0.138353
0.138343
0.138334
0.138326
0.138317
0.138309
0.138301
0.138294
0.138286
0.138279
0.138272
0.138265
0.138259
0.138253
0.138247
0.138241
0.138237
0.138232
0.138229
0.138226
0.138224
0.138223
0.138223
0.138225
0.138228
0.138233
0.13824
0.138248
0.138259
0.138272
0.138288
0.138306
0.138327
0.13835
0.138376
0.138405
0.138436
0.13847
0.138507
0.138546
0.138586
0.138629
0.138674
0.138719
0.138766
0.138813
0.138861
0.138908
0.138954
0.138999
0.139043
0.139084
0.139123
0.139159
0.139191
0.139219
0.139242
0.139261
0.139275
0.139283
0.139286
0.139283
0.139274
0.139259
0.139239
0.139212
0.13918
0.139143
0.139101
0.139055
0.139004
0.13895
0.138892
0.138832
0.138769
0.138705
0.13864
0.138574
0.138508
0.138442
0.138377
0.138313
0.13825
0.138189
0.13813
0.138072
0.138017
0.137964
0.137913
0.137865
0.137818
0.137774
0.137732
0.137693
0.137654
0.137618
0.137583
0.13755
0.137518
0.137487
0.137457
0.137428
0.1374
0.137372
0.137345
0.137318
0.137291
0.137265
0.137239
0.137212
0.137186
0.13716
0.137134
0.137107
0.137081
0.137054
0.137027
0.137
0.136973
0.136946
0.136919
0.136892
0.136864
0.136837
0.13681
0.136782
0.136755
0.136728
0.1367
0.136673
0.136646
0.13662
0.136593
0.136567
0.13654
0.136514
0.136489
0.136463
0.136438
0.136413
0.136388
0.136364
0.13634
0.136317
0.136293
0.13627
0.136248
0.136226
0.136204
0.136182
0.136161
0.136141
0.13612
0.1361
0.136081
0.136062
0.136043
0.136024
0.136006
0.135989
0.135972
0.135955
0.135938
0.135922
0.135906
0.135891
0.135876
0.135861
0.135847
0.135833
0.135819
0.135806
0.135793
0.13578
0.135767
0.135755
0.135743
0.135731
0.13572
0.135708
0.135697
0.135686
0.135676
0.135665
0.135655
0.135646
0.135636
0.135627
0.135618
0.13561
0.135602
0.135594
0.135587
0.135581
0.135575
0.13557
0.135565
0.135562
0.135559
0.135558
0.135558
0.135559
0.135561
0.135564
0.13557
0.135576
0.135584
0.135594
0.135606
0.135619
0.135634
0.135651
0.13567
0.13569
0.135712
0.135735
0.135761
0.135787
0.135815
0.135844
0.135874
0.135905
0.135937
0.135969
0.136001
0.136033
0.136065
0.136096
0.136126
0.136156
0.136184
0.13621
0.136234
0.136256
0.136275
0.136292
0.136306
0.136317
0.136324
0.136328
0.136328
0.136324
0.136317
0.136305
0.13629
0.13627
0.136247
0.13622
0.13619
0.136155
0.136118
0.136078
0.136034
0.135988
0.13594
0.13589
0.135838
0.135786
0.135731
0.135677
0.135622
0.135566
0.135512
0.135457
0.135404
0.135351
0.1353
0.13525
0.135201
0.135155
0.13511
0.135068
0.135027
0.134989
0.134952
0.134918
0.134885
0.134855
0.134827
0.1348
0.134776
0.134752
0.134731
0.134711
0.134692
0.134674
0.134657
0.134642
0.134627
0.134613
0.134599
0.134586
0.134573
0.13456
0.134548
0.134536
0.134524
0.13451
0.134496
0.134481
0.134461
0.134435
0.134397
0.134339
0.134246
0.134095
0.133855
0.133493
0.133004
0.132446
0.131947
0.131603
0.131409
0.131309
0.131256
0.131225
0.131205
0.13119
0.131178
0.131167
0.131156
0.131146
0.131137
0.131128
0.131119
0.13111
0.131101
0.131093
0.131084
0.131076
0.131069
0.131061
0.131054
0.131047
0.13104
0.131034
0.131028
0.131022
0.131016
0.131011
0.131006
0.131002
0.130997
0.130993
0.130989
0.130986
0.130983
0.13098
0.130977
0.130975
0.130973
0.130972
0.13097
0.130969
0.130969
0.130968
0.130968
0.130968
0.130968
0.130969
0.13097
0.130971
0.130973
0.130975
0.130977
0.130979
0.130982
0.130985
0.130988
0.130991
0.130995
0.130999
0.131003
0.131007
0.131012
0.131017
0.131022
0.131028
0.131033
0.13104
0.131046
0.131053
0.13106
0.131068
0.131076
0.131084
0.131093
0.131103
0.131113
0.131124
0.131135
0.131147
0.13116
0.131173
0.131188
0.131203
0.13122
0.131235
0.131256
0.131271
0.131297
0.131311
0.131342
0.131355
0.131392
0.131404
0.131446
0.131459
0.131505
0.131517
0.131568
0.131581
0.131635
0.131649
0.131706
0.131721
0.13178
0.131795
0.131857
0.131872
0.131935
0.131951
0.13203
)
;

boundaryField
{
    inlet
    {
        type            calculated;
        value           uniform 0.194831;
    }
    outlet
    {
        type            calculated;
        value           uniform 0.132022;
    }
    emptyWalls
    {
        type            empty;
    }
}


// ************************************************************************* //
