/*--------------------------------*- C++ -*----------------------------------*\
  =========                 |
  \\      /  F ield         | OpenFOAM: The Open Source CFD Toolbox
   \\    /   O peration     | Website:  https://openfoam.org
    \\  /    A nd           | Version:  9
     \\/     M anipulation  |
\*---------------------------------------------------------------------------*/
FoamFile
{
    format      ascii;
    class       surfaceScalarField;
    location    "22050";
    object      phia;
}
// * * * * * * * * * * * * * * * * * * * * * * * * * * * * * * * * * * * * * //

dimensions      [0 2 0 0 0 0 0];

internalField   nonuniform List<scalar> 
999
(
2.74893e-10
2.74875e-10
2.74866e-10
2.74855e-10
2.7481e-10
2.748e-10
2.74737e-10
2.74707e-10
2.74652e-10
2.74601e-10
2.74548e-10
2.74485e-10
2.74414e-10
2.7434e-10
2.74254e-10
2.74171e-10
2.74076e-10
2.74002e-10
2.73897e-10
2.73835e-10
2.73741e-10
2.73675e-10
2.73618e-10
2.73547e-10
2.73519e-10
2.73458e-10
2.73412e-10
2.73275e-10
2.72813e-10
2.71077e-10
2.61531e-10
2.23489e-10
2.1466e-10
2.12313e-10
2.11277e-10
2.10654e-10
2.10212e-10
2.09868e-10
2.09583e-10
2.09332e-10
2.09093e-10
2.08861e-10
2.08643e-10
2.08456e-10
2.08309e-10
2.08194e-10
2.08089e-10
2.07968e-10
2.07817e-10
2.07645e-10
2.07484e-10
2.07378e-10
2.07372e-10
2.07494e-10
2.07744e-10
2.08098e-10
2.08505e-10
2.0891e-10
2.09258e-10
2.09511e-10
2.09657e-10
2.0971e-10
2.09708e-10
2.09694e-10
2.09663e-10
2.09517e-10
2.09111e-10
2.08646e-10
2.08139e-10
2.07629e-10
2.07143e-10
2.06704e-10
2.06323e-10
2.06008e-10
2.05757e-10
2.05567e-10
2.05431e-10
2.05341e-10
2.05287e-10
2.0526e-10
2.05253e-10
2.05255e-10
2.05262e-10
2.05268e-10
2.05272e-10
2.05272e-10
2.05267e-10
2.05254e-10
2.0523e-10
2.05199e-10
2.05161e-10
2.05117e-10
2.0507e-10
2.0502e-10
2.04968e-10
2.04914e-10
2.04861e-10
2.04807e-10
2.04754e-10
2.04701e-10
2.04649e-10
2.04597e-10
2.04547e-10
2.04498e-10
2.0445e-10
2.04403e-10
2.04357e-10
2.04312e-10
2.04269e-10
2.04227e-10
2.04186e-10
2.04146e-10
2.04108e-10
2.0407e-10
2.04035e-10
2.04e-10
2.03967e-10
2.03936e-10
2.03906e-10
2.03877e-10
2.0385e-10
2.03824e-10
2.03799e-10
2.03775e-10
2.03753e-10
2.03731e-10
2.03711e-10
2.03693e-10
2.03677e-10
2.03662e-10
2.0365e-10
2.03639e-10
2.0363e-10
2.03623e-10
2.03617e-10
2.03611e-10
2.03605e-10
2.03599e-10
2.03592e-10
2.03585e-10
2.03578e-10
2.0357e-10
2.03564e-10
2.03558e-10
2.03554e-10
2.03552e-10
2.03552e-10
2.03553e-10
2.03555e-10
2.03558e-10
2.03561e-10
2.03563e-10
2.03564e-10
2.03561e-10
2.03556e-10
2.03548e-10
2.0354e-10
2.03533e-10
2.03532e-10
2.0354e-10
2.03561e-10
2.036e-10
2.03657e-10
2.03737e-10
2.03839e-10
2.03963e-10
2.04108e-10
2.04271e-10
2.04451e-10
2.04644e-10
2.04845e-10
2.05052e-10
2.05259e-10
2.05461e-10
2.05654e-10
2.05831e-10
2.05986e-10
2.06115e-10
2.06212e-10
2.06273e-10
2.06295e-10
2.06276e-10
2.06217e-10
2.06118e-10
2.05983e-10
2.05817e-10
2.05626e-10
2.05415e-10
2.05192e-10
2.04963e-10
2.04736e-10
2.04515e-10
2.04305e-10
2.04111e-10
2.03935e-10
2.03779e-10
2.03643e-10
2.03526e-10
2.03429e-10
2.03349e-10
2.03285e-10
2.03233e-10
2.03193e-10
2.03161e-10
2.03135e-10
2.03114e-10
2.03095e-10
2.03077e-10
2.03058e-10
2.03039e-10
2.03017e-10
2.02994e-10
2.02967e-10
2.02938e-10
2.02906e-10
2.02871e-10
2.02834e-10
2.02795e-10
2.02754e-10
2.02711e-10
2.02667e-10
2.02623e-10
2.02577e-10
2.02531e-10
2.02485e-10
2.02439e-10
2.02393e-10
2.02347e-10
2.02302e-10
2.02257e-10
2.02212e-10
2.02168e-10
2.02125e-10
2.02083e-10
2.02041e-10
2.02001e-10
2.01961e-10
2.01921e-10
2.01883e-10
2.01846e-10
2.01809e-10
2.01774e-10
2.01739e-10
2.01705e-10
2.01673e-10
2.01641e-10
2.0161e-10
2.0158e-10
2.01551e-10
2.01523e-10
2.01495e-10
2.01469e-10
2.01444e-10
2.0142e-10
2.01398e-10
2.01376e-10
2.01355e-10
2.01336e-10
2.01318e-10
2.01301e-10
2.01285e-10
2.0127e-10
2.01255e-10
2.01242e-10
2.01229e-10
2.01217e-10
2.01205e-10
2.01194e-10
2.01183e-10
2.01173e-10
2.01163e-10
2.01154e-10
2.01146e-10
2.01138e-10
2.01131e-10
2.01124e-10
2.01118e-10
2.01112e-10
2.01107e-10
2.01102e-10
2.01097e-10
2.01091e-10
2.01086e-10
2.0108e-10
2.01074e-10
2.01068e-10
2.01063e-10
2.0106e-10
2.01058e-10
2.01059e-10
2.01065e-10
2.01075e-10
2.01092e-10
2.01116e-10
2.01149e-10
2.0119e-10
2.01242e-10
2.01304e-10
2.01377e-10
2.0146e-10
2.01554e-10
2.01658e-10
2.01771e-10
2.01892e-10
2.0202e-10
2.02152e-10
2.02288e-10
2.02424e-10
2.02559e-10
2.0269e-10
2.02815e-10
2.02931e-10
2.03035e-10
2.03126e-10
2.03201e-10
2.03258e-10
2.03296e-10
2.03313e-10
2.03308e-10
2.03283e-10
2.03236e-10
2.03169e-10
2.03083e-10
2.0298e-10
2.02862e-10
2.02732e-10
2.02592e-10
2.02445e-10
2.02293e-10
2.02141e-10
2.01989e-10
2.0184e-10
2.01696e-10
2.01559e-10
2.01429e-10
2.01309e-10
2.01197e-10
2.01096e-10
2.01003e-10
2.0092e-10
2.00846e-10
2.0078e-10
2.00721e-10
2.00669e-10
2.00622e-10
2.0058e-10
2.00542e-10
2.00507e-10
2.00474e-10
2.00443e-10
2.00412e-10
2.00383e-10
2.00353e-10
2.00323e-10
2.00292e-10
2.0026e-10
2.00228e-10
2.00194e-10
2.00159e-10
2.00123e-10
2.00086e-10
2.00048e-10
2.00009e-10
1.9997e-10
1.99929e-10
1.99888e-10
1.99847e-10
1.99805e-10
1.99762e-10
1.9972e-10
1.99678e-10
1.99635e-10
1.99593e-10
1.99551e-10
1.9951e-10
1.99468e-10
1.99427e-10
1.99387e-10
1.99347e-10
1.99307e-10
1.99268e-10
1.9923e-10
1.99193e-10
1.99156e-10
1.99119e-10
1.99084e-10
1.99049e-10
1.99015e-10
1.98981e-10
1.98949e-10
1.98917e-10
1.98886e-10
1.98856e-10
1.98826e-10
1.98798e-10
1.9877e-10
1.98743e-10
1.98717e-10
1.98692e-10
1.98668e-10
1.98645e-10
1.98622e-10
1.98601e-10
1.9858e-10
1.9856e-10
1.98541e-10
1.98523e-10
1.98506e-10
1.98489e-10
1.98473e-10
1.98458e-10
1.98444e-10
1.9843e-10
1.98416e-10
1.98404e-10
1.98392e-10
1.9838e-10
1.98369e-10
1.98359e-10
1.98349e-10
1.98339e-10
1.9833e-10
1.98321e-10
1.98313e-10
1.98305e-10
1.98297e-10
1.98289e-10
1.98282e-10
1.98275e-10
1.98268e-10
1.98262e-10
1.98256e-10
1.98251e-10
1.98247e-10
1.98244e-10
1.98243e-10
1.98244e-10
1.98247e-10
1.98253e-10
1.98263e-10
1.98276e-10
1.98293e-10
1.98315e-10
1.98343e-10
1.98375e-10
1.98414e-10
1.98458e-10
1.98509e-10
1.98565e-10
1.98628e-10
1.98697e-10
1.98771e-10
1.9885e-10
1.98934e-10
1.99022e-10
1.99113e-10
1.99206e-10
1.993e-10
1.99395e-10
1.99488e-10
1.9958e-10
1.99668e-10
1.99751e-10
1.99828e-10
1.99899e-10
1.99961e-10
2.00013e-10
2.00055e-10
2.00086e-10
2.00105e-10
2.00112e-10
2.00106e-10
2.00087e-10
2.00056e-10
2.00012e-10
1.99956e-10
1.99889e-10
1.99812e-10
1.99725e-10
1.99631e-10
1.9953e-10
1.99423e-10
1.99312e-10
1.99199e-10
1.99084e-10
1.98968e-10
1.98854e-10
1.98742e-10
1.98632e-10
1.98526e-10
1.98424e-10
1.98327e-10
1.98235e-10
1.98148e-10
1.98067e-10
1.9799e-10
1.97919e-10
1.97852e-10
1.9779e-10
1.97733e-10
1.97679e-10
1.97629e-10
1.97582e-10
1.97538e-10
1.97496e-10
1.97456e-10
1.97417e-10
1.9738e-10
1.97343e-10
1.97308e-10
1.97272e-10
1.97237e-10
1.97202e-10
1.97167e-10
1.97131e-10
1.97095e-10
1.97059e-10
1.97022e-10
1.96985e-10
1.96947e-10
1.96909e-10
1.96871e-10
1.96832e-10
1.96793e-10
1.96753e-10
1.96713e-10
1.96674e-10
1.96634e-10
1.96593e-10
1.96553e-10
1.96513e-10
1.96473e-10
1.96434e-10
1.96394e-10
1.96355e-10
1.96316e-10
1.96278e-10
1.9624e-10
1.96202e-10
1.96165e-10
1.96128e-10
1.96092e-10
1.96056e-10
1.96021e-10
1.95987e-10
1.95953e-10
1.95919e-10
1.95887e-10
1.95855e-10
1.95823e-10
1.95793e-10
1.95763e-10
1.95733e-10
1.95705e-10
1.95677e-10
1.9565e-10
1.95623e-10
1.95597e-10
1.95572e-10
1.95548e-10
1.95524e-10
1.95502e-10
1.95479e-10
1.95458e-10
1.95437e-10
1.95417e-10
1.95398e-10
1.95379e-10
1.95361e-10
1.95343e-10
1.95326e-10
1.9531e-10
1.95294e-10
1.95279e-10
1.95264e-10
1.9525e-10
1.95236e-10
1.95223e-10
1.9521e-10
1.95197e-10
1.95185e-10
1.95174e-10
1.95162e-10
1.95151e-10
1.95141e-10
1.9513e-10
1.9512e-10
1.95111e-10
1.95101e-10
1.95093e-10
1.95084e-10
1.95076e-10
1.95069e-10
1.95063e-10
1.95057e-10
1.95052e-10
1.95049e-10
1.95047e-10
1.95047e-10
1.95048e-10
1.95051e-10
1.95057e-10
1.95065e-10
1.95076e-10
1.9509e-10
1.95107e-10
1.95127e-10
1.95151e-10
1.95178e-10
1.95209e-10
1.95244e-10
1.95283e-10
1.95325e-10
1.95371e-10
1.95421e-10
1.95474e-10
1.9553e-10
1.95589e-10
1.95651e-10
1.95715e-10
1.9578e-10
1.95846e-10
1.95913e-10
1.95979e-10
1.96045e-10
1.9611e-10
1.96173e-10
1.96233e-10
1.96289e-10
1.96342e-10
1.96389e-10
1.96432e-10
1.96468e-10
1.96498e-10
1.96521e-10
1.96537e-10
1.96544e-10
1.96544e-10
1.96536e-10
1.96519e-10
1.96494e-10
1.96461e-10
1.9642e-10
1.96371e-10
1.96316e-10
1.96253e-10
1.96185e-10
1.9611e-10
1.96031e-10
1.95948e-10
1.95862e-10
1.95772e-10
1.95681e-10
1.95588e-10
1.95495e-10
1.95402e-10
1.9531e-10
1.95219e-10
1.95129e-10
1.95042e-10
1.94956e-10
1.94874e-10
1.94795e-10
1.94718e-10
1.94645e-10
1.94575e-10
1.94508e-10
1.94445e-10
1.94384e-10
1.94326e-10
1.94271e-10
1.94218e-10
1.94168e-10
1.9412e-10
1.94074e-10
1.9403e-10
1.93987e-10
1.93945e-10
1.93905e-10
1.93865e-10
1.93826e-10
1.93788e-10
1.93751e-10
1.93713e-10
1.93676e-10
1.93639e-10
1.93602e-10
1.93565e-10
1.93528e-10
1.93491e-10
1.93453e-10
1.93416e-10
1.93378e-10
1.9334e-10
1.93302e-10
1.93264e-10
1.93226e-10
1.93187e-10
1.93149e-10
1.9311e-10
1.93071e-10
1.93033e-10
1.92994e-10
1.92956e-10
1.92917e-10
1.92879e-10
1.92841e-10
1.92803e-10
1.92765e-10
1.92728e-10
1.92691e-10
1.92654e-10
1.92617e-10
1.92581e-10
1.92545e-10
1.9251e-10
1.92475e-10
1.92441e-10
1.92407e-10
1.92373e-10
1.9234e-10
1.92307e-10
1.92275e-10
1.92244e-10
1.92213e-10
1.92182e-10
1.92152e-10
1.92123e-10
1.92094e-10
1.92065e-10
1.92037e-10
1.9201e-10
1.91983e-10
1.91957e-10
1.91931e-10
1.91906e-10
1.91882e-10
1.91858e-10
1.91834e-10
1.91811e-10
1.91789e-10
1.91767e-10
1.91745e-10
1.91724e-10
1.91704e-10
1.91684e-10
1.91664e-10
1.91645e-10
1.91626e-10
1.91608e-10
1.9159e-10
1.91572e-10
1.91555e-10
1.91538e-10
1.91522e-10
1.91506e-10
1.9149e-10
1.91475e-10
1.9146e-10
1.91445e-10
1.91431e-10
1.91417e-10
1.91403e-10
1.9139e-10
1.91377e-10
1.91365e-10
1.91353e-10
1.91342e-10
1.91332e-10
1.91322e-10
1.91314e-10
1.91306e-10
1.91299e-10
1.91294e-10
1.9129e-10
1.91287e-10
1.91286e-10
1.91286e-10
1.91288e-10
1.91292e-10
1.91299e-10
1.91307e-10
1.91317e-10
1.9133e-10
1.91345e-10
1.91363e-10
1.91383e-10
1.91405e-10
1.9143e-10
1.91458e-10
1.91488e-10
1.9152e-10
1.91554e-10
1.91591e-10
1.91629e-10
1.91669e-10
1.91711e-10
1.91754e-10
1.91798e-10
1.91843e-10
1.91888e-10
1.91933e-10
1.91978e-10
1.92023e-10
1.92066e-10
1.92108e-10
1.92149e-10
1.92187e-10
1.92223e-10
1.92255e-10
1.92285e-10
1.9231e-10
1.92332e-10
1.92349e-10
1.92362e-10
1.9237e-10
1.92372e-10
1.9237e-10
1.92362e-10
1.92348e-10
1.92329e-10
1.92305e-10
1.92275e-10
1.92239e-10
1.92199e-10
1.92153e-10
1.92103e-10
1.92048e-10
1.91989e-10
1.91926e-10
1.91859e-10
1.9179e-10
1.91718e-10
1.91644e-10
1.91569e-10
1.91492e-10
1.91415e-10
1.91337e-10
1.91259e-10
1.91182e-10
1.91106e-10
1.91031e-10
1.90957e-10
1.90886e-10
1.90817e-10
1.9075e-10
1.90686e-10
1.90624e-10
1.90565e-10
1.90509e-10
1.90457e-10
1.90407e-10
1.9036e-10
1.90315e-10
1.90274e-10
1.90235e-10
1.90199e-10
1.90165e-10
1.90134e-10
1.90105e-10
1.90077e-10
1.90051e-10
1.90027e-10
1.90004e-10
1.89982e-10
1.89962e-10
1.89942e-10
1.89923e-10
1.89905e-10
1.89887e-10
1.8987e-10
1.89852e-10
1.89835e-10
1.89817e-10
1.89798e-10
1.89777e-10
1.89751e-10
1.89719e-10
1.89674e-10
1.89607e-10
1.895e-10
1.89329e-10
1.89054e-10
1.8863e-10
1.88031e-10
1.87293e-10
1.86546e-10
1.8595e-10
1.85569e-10
1.85361e-10
1.85253e-10
1.85194e-10
1.85158e-10
1.85133e-10
1.85114e-10
1.85097e-10
1.85082e-10
1.85068e-10
1.85054e-10
1.85041e-10
1.85028e-10
1.85015e-10
1.85003e-10
1.84991e-10
1.84979e-10
1.84968e-10
1.84957e-10
1.84946e-10
1.84935e-10
1.84925e-10
1.84916e-10
1.84907e-10
1.84898e-10
1.84889e-10
1.84881e-10
1.84874e-10
1.84866e-10
1.8486e-10
1.84853e-10
1.84847e-10
1.84842e-10
1.84837e-10
1.84832e-10
1.84828e-10
1.84824e-10
1.84821e-10
1.84818e-10
1.84815e-10
1.84813e-10
1.84811e-10
1.8481e-10
1.8481e-10
1.84809e-10
1.84809e-10
1.84809e-10
1.8481e-10
1.84811e-10
1.84813e-10
1.84815e-10
1.84817e-10
1.8482e-10
1.84823e-10
1.84827e-10
1.8483e-10
1.84835e-10
1.84839e-10
1.84844e-10
1.84849e-10
1.84855e-10
1.84861e-10
1.84868e-10
1.84874e-10
1.84882e-10
1.84889e-10
1.84897e-10
1.84906e-10
1.84914e-10
1.84924e-10
1.84934e-10
1.84944e-10
1.84955e-10
1.84967e-10
1.84979e-10
1.84992e-10
1.85006e-10
1.85021e-10
1.85036e-10
1.85053e-10
1.85071e-10
1.85089e-10
1.85109e-10
1.8513e-10
1.85152e-10
1.85175e-10
1.85201e-10
1.85226e-10
1.85255e-10
1.85283e-10
1.85315e-10
1.85346e-10
1.85381e-10
1.85416e-10
1.85454e-10
1.85493e-10
1.85534e-10
1.85576e-10
1.85619e-10
1.85665e-10
1.85711e-10
1.8576e-10
1.8581e-10
1.85861e-10
1.85913e-10
1.85966e-10
1.86019e-10
1.86074e-10
1.86129e-10
1.86185e-10
1.8624e-10
)
;

boundaryField
{
    inlet
    {
        type            calculated;
        value           uniform -2.74882e-10;
    }
    outlet
    {
        type            calculated;
        value           uniform 1.86296e-10;
    }
    emptyWalls
    {
        type            empty;
        value           nonuniform List<scalar> 0();
    }
}


// ************************************************************************* //
