/*--------------------------------*- C++ -*----------------------------------*\
  =========                 |
  \\      /  F ield         | OpenFOAM: The Open Source CFD Toolbox
   \\    /   O peration     | Website:  https://openfoam.org
    \\  /    A nd           | Version:  9
     \\/     M anipulation  |
\*---------------------------------------------------------------------------*/
FoamFile
{
    format      ascii;
    class       volVectorField;
    location    "22050";
    object      Uc;
}
// * * * * * * * * * * * * * * * * * * * * * * * * * * * * * * * * * * * * * //

dimensions      [0 0 0 0 0 0 0];

internalField   nonuniform List<vector> 
1000
(
(5.42364e-12 0 0)
(2.80845e-11 0 0)
(7.81591e-11 0 0)
(1.58604e-10 0 0)
(2.68266e-10 0 0)
(4.06778e-10 0 0)
(5.74054e-10 0 0)
(7.70116e-10 0 0)
(9.94941e-10 0 0)
(1.24829e-09 0 0)
(1.52963e-09 0 0)
(1.83793e-09 0 0)
(2.1715e-09 0 0)
(2.52788e-09 0 0)
(2.9036e-09 0 0)
(3.29415e-09 0 0)
(3.69384e-09 0 0)
(4.09615e-09 0 0)
(4.49376e-09 0 0)
(4.87944e-09 0 0)
(5.24643e-09 0 0)
(5.5891e-09 0 0)
(5.90383e-09 0 0)
(6.18856e-09 0 0)
(6.4446e-09 0 0)
(6.67987e-09 0 0)
(6.93057e-09 0 0)
(7.36488e-09 0 0)
(8.73265e-09 0 0)
(1.37322e-08 0 0)
(3.76177e-08 0 0)
(1.17525e-07 0 0)
(1.91316e-07 0 0)
(2.09232e-07 0 0)
(2.15249e-07 0 0)
(2.18431e-07 0 0)
(2.20616e-07 0 0)
(2.22347e-07 0 0)
(2.23832e-07 0 0)
(2.25168e-07 0 0)
(2.26405e-07 0 0)
(2.2757e-07 0 0)
(2.28681e-07 0 0)
(2.29747e-07 0 0)
(2.30774e-07 0 0)
(2.31768e-07 0 0)
(2.32733e-07 0 0)
(2.33675e-07 0 0)
(2.346e-07 0 0)
(2.3551e-07 0 0)
(2.36406e-07 0 0)
(2.37283e-07 0 0)
(2.3814e-07 0 0)
(2.38972e-07 0 0)
(2.39778e-07 0 0)
(2.40563e-07 0 0)
(2.41332e-07 0 0)
(2.42094e-07 0 0)
(2.42858e-07 0 0)
(2.43634e-07 0 0)
(2.44426e-07 0 0)
(2.45236e-07 0 0)
(2.46064e-07 0 0)
(2.46906e-07 0 0)
(2.47767e-07 0 0)
(2.4866e-07 0 0)
(2.49601e-07 0 0)
(2.50586e-07 0 0)
(2.51597e-07 0 0)
(2.52633e-07 0 0)
(2.5369e-07 0 0)
(2.54768e-07 0 0)
(2.55866e-07 0 0)
(2.56988e-07 0 0)
(2.58137e-07 0 0)
(2.59319e-07 0 0)
(2.60543e-07 0 0)
(2.61822e-07 0 0)
(2.6317e-07 0 0)
(2.6461e-07 0 0)
(2.66171e-07 0 0)
(2.67892e-07 0 0)
(2.69818e-07 0 0)
(2.72002e-07 0 0)
(2.7449e-07 0 0)
(2.77312e-07 0 0)
(2.80465e-07 0 0)
(2.8391e-07 0 0)
(2.87586e-07 0 0)
(2.91435e-07 0 0)
(2.95414e-07 0 0)
(2.99493e-07 0 0)
(3.03652e-07 0 0)
(3.07873e-07 0 0)
(3.12146e-07 0 0)
(3.16463e-07 0 0)
(3.20817e-07 0 0)
(3.25202e-07 0 0)
(3.29616e-07 0 0)
(3.34055e-07 0 0)
(3.38516e-07 0 0)
(3.42998e-07 0 0)
(3.47499e-07 0 0)
(3.52017e-07 0 0)
(3.56552e-07 0 0)
(3.61103e-07 0 0)
(3.65668e-07 0 0)
(3.70248e-07 0 0)
(3.7484e-07 0 0)
(3.79446e-07 0 0)
(3.84064e-07 0 0)
(3.88694e-07 0 0)
(3.93335e-07 0 0)
(3.97988e-07 0 0)
(4.02651e-07 0 0)
(4.07326e-07 0 0)
(4.1201e-07 0 0)
(4.16704e-07 0 0)
(4.21408e-07 0 0)
(4.26122e-07 0 0)
(4.30845e-07 0 0)
(4.35578e-07 0 0)
(4.40319e-07 0 0)
(4.45069e-07 0 0)
(4.49828e-07 0 0)
(4.54596e-07 0 0)
(4.59372e-07 0 0)
(4.64156e-07 0 0)
(4.68948e-07 0 0)
(4.73748e-07 0 0)
(4.78556e-07 0 0)
(4.83371e-07 0 0)
(4.88193e-07 0 0)
(4.93023e-07 0 0)
(4.97861e-07 0 0)
(5.02706e-07 0 0)
(5.07558e-07 0 0)
(5.12418e-07 0 0)
(5.17286e-07 0 0)
(5.22161e-07 0 0)
(5.27043e-07 0 0)
(5.31933e-07 0 0)
(5.3683e-07 0 0)
(5.41733e-07 0 0)
(5.46643e-07 0 0)
(5.51559e-07 0 0)
(5.56482e-07 0 0)
(5.61411e-07 0 0)
(5.66346e-07 0 0)
(5.71287e-07 0 0)
(5.76235e-07 0 0)
(5.81189e-07 0 0)
(5.86151e-07 0 0)
(5.91119e-07 0 0)
(5.96095e-07 0 0)
(6.01078e-07 0 0)
(6.06068e-07 0 0)
(6.11064e-07 0 0)
(6.16065e-07 0 0)
(6.2107e-07 0 0)
(6.26075e-07 0 0)
(6.31081e-07 0 0)
(6.36085e-07 0 0)
(6.41086e-07 0 0)
(6.46084e-07 0 0)
(6.51078e-07 0 0)
(6.56068e-07 0 0)
(6.61054e-07 0 0)
(6.66038e-07 0 0)
(6.7102e-07 0 0)
(6.76001e-07 0 0)
(6.80984e-07 0 0)
(6.8597e-07 0 0)
(6.9096e-07 0 0)
(6.95959e-07 0 0)
(7.00967e-07 0 0)
(7.05987e-07 0 0)
(7.11022e-07 0 0)
(7.16076e-07 0 0)
(7.21149e-07 0 0)
(7.26245e-07 0 0)
(7.31364e-07 0 0)
(7.36507e-07 0 0)
(7.41675e-07 0 0)
(7.46867e-07 0 0)
(7.52081e-07 0 0)
(7.57314e-07 0 0)
(7.62565e-07 0 0)
(7.6783e-07 0 0)
(7.73107e-07 0 0)
(7.7839e-07 0 0)
(7.83679e-07 0 0)
(7.88969e-07 0 0)
(7.94259e-07 0 0)
(7.99547e-07 0 0)
(8.04832e-07 0 0)
(8.10112e-07 0 0)
(8.15388e-07 0 0)
(8.20659e-07 0 0)
(8.25926e-07 0 0)
(8.3119e-07 0 0)
(8.36451e-07 0 0)
(8.41712e-07 0 0)
(8.46972e-07 0 0)
(8.52233e-07 0 0)
(8.57496e-07 0 0)
(8.62763e-07 0 0)
(8.68033e-07 0 0)
(8.73307e-07 0 0)
(8.78587e-07 0 0)
(8.83873e-07 0 0)
(8.89164e-07 0 0)
(8.94462e-07 0 0)
(8.99766e-07 0 0)
(9.05077e-07 0 0)
(9.10394e-07 0 0)
(9.15717e-07 0 0)
(9.21046e-07 0 0)
(9.26382e-07 0 0)
(9.31723e-07 0 0)
(9.3707e-07 0 0)
(9.42422e-07 0 0)
(9.4778e-07 0 0)
(9.53142e-07 0 0)
(9.5851e-07 0 0)
(9.63883e-07 0 0)
(9.6926e-07 0 0)
(9.74642e-07 0 0)
(9.80029e-07 0 0)
(9.8542e-07 0 0)
(9.90815e-07 0 0)
(9.96215e-07 0 0)
(1.00162e-06 0 0)
(1.00703e-06 0 0)
(1.01244e-06 0 0)
(1.01786e-06 0 0)
(1.02328e-06 0 0)
(1.0287e-06 0 0)
(1.03413e-06 0 0)
(1.03956e-06 0 0)
(1.045e-06 0 0)
(1.05044e-06 0 0)
(1.05589e-06 0 0)
(1.06134e-06 0 0)
(1.06679e-06 0 0)
(1.07224e-06 0 0)
(1.0777e-06 0 0)
(1.08317e-06 0 0)
(1.08864e-06 0 0)
(1.09411e-06 0 0)
(1.09958e-06 0 0)
(1.10506e-06 0 0)
(1.11055e-06 0 0)
(1.11603e-06 0 0)
(1.12152e-06 0 0)
(1.12702e-06 0 0)
(1.13251e-06 0 0)
(1.13802e-06 0 0)
(1.14352e-06 0 0)
(1.14903e-06 0 0)
(1.15454e-06 0 0)
(1.16005e-06 0 0)
(1.16557e-06 0 0)
(1.17109e-06 0 0)
(1.17662e-06 0 0)
(1.18215e-06 0 0)
(1.18768e-06 0 0)
(1.19322e-06 0 0)
(1.19876e-06 0 0)
(1.20431e-06 0 0)
(1.20986e-06 0 0)
(1.21541e-06 0 0)
(1.22097e-06 0 0)
(1.22653e-06 0 0)
(1.23209e-06 0 0)
(1.23766e-06 0 0)
(1.24323e-06 0 0)
(1.24881e-06 0 0)
(1.25439e-06 0 0)
(1.25997e-06 0 0)
(1.26556e-06 0 0)
(1.27115e-06 0 0)
(1.27674e-06 0 0)
(1.28234e-06 0 0)
(1.28795e-06 0 0)
(1.29356e-06 0 0)
(1.29917e-06 0 0)
(1.30479e-06 0 0)
(1.3104e-06 0 0)
(1.31602e-06 0 0)
(1.32165e-06 0 0)
(1.32727e-06 0 0)
(1.33289e-06 0 0)
(1.33851e-06 0 0)
(1.34412e-06 0 0)
(1.34974e-06 0 0)
(1.35534e-06 0 0)
(1.36095e-06 0 0)
(1.36654e-06 0 0)
(1.37213e-06 0 0)
(1.37772e-06 0 0)
(1.3833e-06 0 0)
(1.38887e-06 0 0)
(1.39444e-06 0 0)
(1.4e-06 0 0)
(1.40557e-06 0 0)
(1.41113e-06 0 0)
(1.41669e-06 0 0)
(1.42226e-06 0 0)
(1.42783e-06 0 0)
(1.43341e-06 0 0)
(1.439e-06 0 0)
(1.4446e-06 0 0)
(1.45022e-06 0 0)
(1.45586e-06 0 0)
(1.46151e-06 0 0)
(1.46719e-06 0 0)
(1.47289e-06 0 0)
(1.47862e-06 0 0)
(1.48437e-06 0 0)
(1.49014e-06 0 0)
(1.49594e-06 0 0)
(1.50177e-06 0 0)
(1.50761e-06 0 0)
(1.51348e-06 0 0)
(1.51937e-06 0 0)
(1.52527e-06 0 0)
(1.53119e-06 0 0)
(1.53712e-06 0 0)
(1.54305e-06 0 0)
(1.549e-06 0 0)
(1.55494e-06 0 0)
(1.56089e-06 0 0)
(1.56684e-06 0 0)
(1.57278e-06 0 0)
(1.57872e-06 0 0)
(1.58466e-06 0 0)
(1.59059e-06 0 0)
(1.59652e-06 0 0)
(1.60244e-06 0 0)
(1.60836e-06 0 0)
(1.61427e-06 0 0)
(1.62018e-06 0 0)
(1.62609e-06 0 0)
(1.632e-06 0 0)
(1.6379e-06 0 0)
(1.64381e-06 0 0)
(1.64972e-06 0 0)
(1.65563e-06 0 0)
(1.66154e-06 0 0)
(1.66745e-06 0 0)
(1.67337e-06 0 0)
(1.67929e-06 0 0)
(1.68522e-06 0 0)
(1.69115e-06 0 0)
(1.69709e-06 0 0)
(1.70303e-06 0 0)
(1.70898e-06 0 0)
(1.71493e-06 0 0)
(1.72089e-06 0 0)
(1.72686e-06 0 0)
(1.73283e-06 0 0)
(1.73881e-06 0 0)
(1.7448e-06 0 0)
(1.75079e-06 0 0)
(1.75678e-06 0 0)
(1.76278e-06 0 0)
(1.76879e-06 0 0)
(1.7748e-06 0 0)
(1.78082e-06 0 0)
(1.78684e-06 0 0)
(1.79287e-06 0 0)
(1.7989e-06 0 0)
(1.80493e-06 0 0)
(1.81097e-06 0 0)
(1.81702e-06 0 0)
(1.82307e-06 0 0)
(1.82912e-06 0 0)
(1.83518e-06 0 0)
(1.84124e-06 0 0)
(1.84731e-06 0 0)
(1.85338e-06 0 0)
(1.85946e-06 0 0)
(1.86554e-06 0 0)
(1.87162e-06 0 0)
(1.87771e-06 0 0)
(1.8838e-06 0 0)
(1.8899e-06 0 0)
(1.896e-06 0 0)
(1.9021e-06 0 0)
(1.90821e-06 0 0)
(1.91432e-06 0 0)
(1.92043e-06 0 0)
(1.92655e-06 0 0)
(1.93268e-06 0 0)
(1.93881e-06 0 0)
(1.94494e-06 0 0)
(1.95107e-06 0 0)
(1.95721e-06 0 0)
(1.96335e-06 0 0)
(1.9695e-06 0 0)
(1.97565e-06 0 0)
(1.9818e-06 0 0)
(1.98796e-06 0 0)
(1.99412e-06 0 0)
(2.00029e-06 0 0)
(2.00646e-06 0 0)
(2.01263e-06 0 0)
(2.01881e-06 0 0)
(2.02499e-06 0 0)
(2.03118e-06 0 0)
(2.03737e-06 0 0)
(2.04356e-06 0 0)
(2.04976e-06 0 0)
(2.05596e-06 0 0)
(2.06217e-06 0 0)
(2.06838e-06 0 0)
(2.0746e-06 0 0)
(2.08082e-06 0 0)
(2.08704e-06 0 0)
(2.09327e-06 0 0)
(2.0995e-06 0 0)
(2.10574e-06 0 0)
(2.11198e-06 0 0)
(2.11823e-06 0 0)
(2.12448e-06 0 0)
(2.13074e-06 0 0)
(2.137e-06 0 0)
(2.14326e-06 0 0)
(2.14953e-06 0 0)
(2.15581e-06 0 0)
(2.16209e-06 0 0)
(2.16837e-06 0 0)
(2.17466e-06 0 0)
(2.18095e-06 0 0)
(2.18725e-06 0 0)
(2.19354e-06 0 0)
(2.19984e-06 0 0)
(2.20614e-06 0 0)
(2.21245e-06 0 0)
(2.21875e-06 0 0)
(2.22505e-06 0 0)
(2.23135e-06 0 0)
(2.23764e-06 0 0)
(2.24393e-06 0 0)
(2.25022e-06 0 0)
(2.25651e-06 0 0)
(2.26279e-06 0 0)
(2.26907e-06 0 0)
(2.27534e-06 0 0)
(2.28161e-06 0 0)
(2.28787e-06 0 0)
(2.29413e-06 0 0)
(2.30039e-06 0 0)
(2.30665e-06 0 0)
(2.3129e-06 0 0)
(2.31916e-06 0 0)
(2.32541e-06 0 0)
(2.33167e-06 0 0)
(2.33794e-06 0 0)
(2.34421e-06 0 0)
(2.35049e-06 0 0)
(2.35679e-06 0 0)
(2.36309e-06 0 0)
(2.36941e-06 0 0)
(2.37575e-06 0 0)
(2.38211e-06 0 0)
(2.38849e-06 0 0)
(2.39489e-06 0 0)
(2.40132e-06 0 0)
(2.40777e-06 0 0)
(2.41425e-06 0 0)
(2.42076e-06 0 0)
(2.42729e-06 0 0)
(2.43385e-06 0 0)
(2.44044e-06 0 0)
(2.44705e-06 0 0)
(2.45369e-06 0 0)
(2.46035e-06 0 0)
(2.46703e-06 0 0)
(2.47373e-06 0 0)
(2.48044e-06 0 0)
(2.48718e-06 0 0)
(2.49392e-06 0 0)
(2.50068e-06 0 0)
(2.50745e-06 0 0)
(2.51422e-06 0 0)
(2.52099e-06 0 0)
(2.52777e-06 0 0)
(2.53456e-06 0 0)
(2.54134e-06 0 0)
(2.54812e-06 0 0)
(2.5549e-06 0 0)
(2.56168e-06 0 0)
(2.56846e-06 0 0)
(2.57523e-06 0 0)
(2.582e-06 0 0)
(2.58877e-06 0 0)
(2.59554e-06 0 0)
(2.60231e-06 0 0)
(2.60908e-06 0 0)
(2.61584e-06 0 0)
(2.62261e-06 0 0)
(2.62938e-06 0 0)
(2.63616e-06 0 0)
(2.64293e-06 0 0)
(2.64971e-06 0 0)
(2.6565e-06 0 0)
(2.66329e-06 0 0)
(2.67008e-06 0 0)
(2.67688e-06 0 0)
(2.68369e-06 0 0)
(2.6905e-06 0 0)
(2.69732e-06 0 0)
(2.70415e-06 0 0)
(2.71099e-06 0 0)
(2.71783e-06 0 0)
(2.72468e-06 0 0)
(2.73154e-06 0 0)
(2.73841e-06 0 0)
(2.74529e-06 0 0)
(2.75217e-06 0 0)
(2.75906e-06 0 0)
(2.76596e-06 0 0)
(2.77287e-06 0 0)
(2.77979e-06 0 0)
(2.78671e-06 0 0)
(2.79364e-06 0 0)
(2.80058e-06 0 0)
(2.80753e-06 0 0)
(2.81448e-06 0 0)
(2.82144e-06 0 0)
(2.82841e-06 0 0)
(2.83539e-06 0 0)
(2.84237e-06 0 0)
(2.84936e-06 0 0)
(2.85636e-06 0 0)
(2.86336e-06 0 0)
(2.87037e-06 0 0)
(2.87739e-06 0 0)
(2.88442e-06 0 0)
(2.89145e-06 0 0)
(2.89848e-06 0 0)
(2.90553e-06 0 0)
(2.91258e-06 0 0)
(2.91964e-06 0 0)
(2.92671e-06 0 0)
(2.93378e-06 0 0)
(2.94086e-06 0 0)
(2.94794e-06 0 0)
(2.95503e-06 0 0)
(2.96213e-06 0 0)
(2.96924e-06 0 0)
(2.97635e-06 0 0)
(2.98347e-06 0 0)
(2.99059e-06 0 0)
(2.99772e-06 0 0)
(3.00486e-06 0 0)
(3.01201e-06 0 0)
(3.01916e-06 0 0)
(3.02632e-06 0 0)
(3.03348e-06 0 0)
(3.04066e-06 0 0)
(3.04783e-06 0 0)
(3.05502e-06 0 0)
(3.06221e-06 0 0)
(3.06941e-06 0 0)
(3.07662e-06 0 0)
(3.08384e-06 0 0)
(3.09106e-06 0 0)
(3.09829e-06 0 0)
(3.10552e-06 0 0)
(3.11276e-06 0 0)
(3.12002e-06 0 0)
(3.12727e-06 0 0)
(3.13454e-06 0 0)
(3.14181e-06 0 0)
(3.14909e-06 0 0)
(3.15638e-06 0 0)
(3.16368e-06 0 0)
(3.17098e-06 0 0)
(3.1783e-06 0 0)
(3.18562e-06 0 0)
(3.19295e-06 0 0)
(3.20029e-06 0 0)
(3.20763e-06 0 0)
(3.21499e-06 0 0)
(3.22235e-06 0 0)
(3.22972e-06 0 0)
(3.2371e-06 0 0)
(3.24449e-06 0 0)
(3.25188e-06 0 0)
(3.25928e-06 0 0)
(3.2667e-06 0 0)
(3.27411e-06 0 0)
(3.28154e-06 0 0)
(3.28897e-06 0 0)
(3.29641e-06 0 0)
(3.30386e-06 0 0)
(3.31131e-06 0 0)
(3.31877e-06 0 0)
(3.32623e-06 0 0)
(3.33369e-06 0 0)
(3.34116e-06 0 0)
(3.34863e-06 0 0)
(3.3561e-06 0 0)
(3.36358e-06 0 0)
(3.37106e-06 0 0)
(3.37854e-06 0 0)
(3.38601e-06 0 0)
(3.39349e-06 0 0)
(3.40097e-06 0 0)
(3.40845e-06 0 0)
(3.41594e-06 0 0)
(3.42342e-06 0 0)
(3.4309e-06 0 0)
(3.43839e-06 0 0)
(3.44587e-06 0 0)
(3.45337e-06 0 0)
(3.46086e-06 0 0)
(3.46836e-06 0 0)
(3.47587e-06 0 0)
(3.48338e-06 0 0)
(3.4909e-06 0 0)
(3.49844e-06 0 0)
(3.50599e-06 0 0)
(3.51355e-06 0 0)
(3.52112e-06 0 0)
(3.52872e-06 0 0)
(3.53633e-06 0 0)
(3.54397e-06 0 0)
(3.55163e-06 0 0)
(3.55931e-06 0 0)
(3.56702e-06 0 0)
(3.57476e-06 0 0)
(3.58253e-06 0 0)
(3.59033e-06 0 0)
(3.59816e-06 0 0)
(3.60602e-06 0 0)
(3.61392e-06 0 0)
(3.62185e-06 0 0)
(3.62981e-06 0 0)
(3.6378e-06 0 0)
(3.64583e-06 0 0)
(3.65389e-06 0 0)
(3.66198e-06 0 0)
(3.6701e-06 0 0)
(3.67825e-06 0 0)
(3.68643e-06 0 0)
(3.69463e-06 0 0)
(3.70285e-06 0 0)
(3.7111e-06 0 0)
(3.71936e-06 0 0)
(3.72765e-06 0 0)
(3.73595e-06 0 0)
(3.74426e-06 0 0)
(3.75259e-06 0 0)
(3.76093e-06 0 0)
(3.76928e-06 0 0)
(3.77764e-06 0 0)
(3.78601e-06 0 0)
(3.79438e-06 0 0)
(3.80276e-06 0 0)
(3.81115e-06 0 0)
(3.81955e-06 0 0)
(3.82795e-06 0 0)
(3.83635e-06 0 0)
(3.84476e-06 0 0)
(3.85318e-06 0 0)
(3.86161e-06 0 0)
(3.87004e-06 0 0)
(3.87848e-06 0 0)
(3.88692e-06 0 0)
(3.89538e-06 0 0)
(3.90384e-06 0 0)
(3.91232e-06 0 0)
(3.9208e-06 0 0)
(3.9293e-06 0 0)
(3.93781e-06 0 0)
(3.94633e-06 0 0)
(3.95486e-06 0 0)
(3.96341e-06 0 0)
(3.97197e-06 0 0)
(3.98055e-06 0 0)
(3.98914e-06 0 0)
(3.99775e-06 0 0)
(4.00637e-06 0 0)
(4.01501e-06 0 0)
(4.02366e-06 0 0)
(4.03233e-06 0 0)
(4.04102e-06 0 0)
(4.04972e-06 0 0)
(4.05844e-06 0 0)
(4.06718e-06 0 0)
(4.07594e-06 0 0)
(4.08471e-06 0 0)
(4.09351e-06 0 0)
(4.10231e-06 0 0)
(4.11114e-06 0 0)
(4.11998e-06 0 0)
(4.12885e-06 0 0)
(4.13772e-06 0 0)
(4.14662e-06 0 0)
(4.15554e-06 0 0)
(4.16447e-06 0 0)
(4.17342e-06 0 0)
(4.18239e-06 0 0)
(4.19137e-06 0 0)
(4.20038e-06 0 0)
(4.2094e-06 0 0)
(4.21844e-06 0 0)
(4.22749e-06 0 0)
(4.23657e-06 0 0)
(4.24566e-06 0 0)
(4.25477e-06 0 0)
(4.2639e-06 0 0)
(4.27305e-06 0 0)
(4.28222e-06 0 0)
(4.2914e-06 0 0)
(4.30061e-06 0 0)
(4.30983e-06 0 0)
(4.31907e-06 0 0)
(4.32833e-06 0 0)
(4.33761e-06 0 0)
(4.3469e-06 0 0)
(4.35622e-06 0 0)
(4.36556e-06 0 0)
(4.37491e-06 0 0)
(4.38429e-06 0 0)
(4.39368e-06 0 0)
(4.4031e-06 0 0)
(4.41253e-06 0 0)
(4.42199e-06 0 0)
(4.43146e-06 0 0)
(4.44095e-06 0 0)
(4.45047e-06 0 0)
(4.46001e-06 0 0)
(4.46956e-06 0 0)
(4.47914e-06 0 0)
(4.48874e-06 0 0)
(4.49837e-06 0 0)
(4.50801e-06 0 0)
(4.51767e-06 0 0)
(4.52736e-06 0 0)
(4.53707e-06 0 0)
(4.5468e-06 0 0)
(4.55656e-06 0 0)
(4.56634e-06 0 0)
(4.57614e-06 0 0)
(4.58596e-06 0 0)
(4.59581e-06 0 0)
(4.60569e-06 0 0)
(4.61558e-06 0 0)
(4.62551e-06 0 0)
(4.63545e-06 0 0)
(4.64542e-06 0 0)
(4.65542e-06 0 0)
(4.66544e-06 0 0)
(4.67549e-06 0 0)
(4.68556e-06 0 0)
(4.69566e-06 0 0)
(4.70579e-06 0 0)
(4.71594e-06 0 0)
(4.72612e-06 0 0)
(4.73633e-06 0 0)
(4.74656e-06 0 0)
(4.75682e-06 0 0)
(4.76711e-06 0 0)
(4.77742e-06 0 0)
(4.78776e-06 0 0)
(4.79813e-06 0 0)
(4.80852e-06 0 0)
(4.81894e-06 0 0)
(4.82939e-06 0 0)
(4.83987e-06 0 0)
(4.85037e-06 0 0)
(4.86089e-06 0 0)
(4.87144e-06 0 0)
(4.88202e-06 0 0)
(4.89262e-06 0 0)
(4.90325e-06 0 0)
(4.9139e-06 0 0)
(4.92458e-06 0 0)
(4.93528e-06 0 0)
(4.946e-06 0 0)
(4.95675e-06 0 0)
(4.96753e-06 0 0)
(4.97833e-06 0 0)
(4.98915e-06 0 0)
(5e-06 0 0)
(5.01087e-06 0 0)
(5.02177e-06 0 0)
(5.0327e-06 0 0)
(5.04365e-06 0 0)
(5.05463e-06 0 0)
(5.06564e-06 0 0)
(5.07668e-06 0 0)
(5.08774e-06 0 0)
(5.09884e-06 0 0)
(5.10997e-06 0 0)
(5.12114e-06 0 0)
(5.13233e-06 0 0)
(5.14357e-06 0 0)
(5.15484e-06 0 0)
(5.16615e-06 0 0)
(5.1775e-06 0 0)
(5.1889e-06 0 0)
(5.20033e-06 0 0)
(5.21181e-06 0 0)
(5.22333e-06 0 0)
(5.23491e-06 0 0)
(5.24653e-06 0 0)
(5.25819e-06 0 0)
(5.26991e-06 0 0)
(5.28167e-06 0 0)
(5.29349e-06 0 0)
(5.30535e-06 0 0)
(5.31726e-06 0 0)
(5.32922e-06 0 0)
(5.34122e-06 0 0)
(5.35326e-06 0 0)
(5.36535e-06 0 0)
(5.37747e-06 0 0)
(5.38962e-06 0 0)
(5.4018e-06 0 0)
(5.414e-06 0 0)
(5.42621e-06 0 0)
(5.43843e-06 0 0)
(5.45064e-06 0 0)
(5.46284e-06 0 0)
(5.47501e-06 0 0)
(5.48714e-06 0 0)
(5.49921e-06 0 0)
(5.51121e-06 0 0)
(5.52311e-06 0 0)
(5.53489e-06 0 0)
(5.54654e-06 0 0)
(5.55803e-06 0 0)
(5.56934e-06 0 0)
(5.58043e-06 0 0)
(5.59127e-06 0 0)
(5.60184e-06 0 0)
(5.61211e-06 0 0)
(5.62204e-06 0 0)
(5.63161e-06 0 0)
(5.6408e-06 0 0)
(5.64956e-06 0 0)
(5.65788e-06 0 0)
(5.66574e-06 0 0)
(5.67312e-06 0 0)
(5.68001e-06 0 0)
(5.68641e-06 0 0)
(5.69231e-06 0 0)
(5.69771e-06 0 0)
(5.70262e-06 0 0)
(5.70705e-06 0 0)
(5.71104e-06 0 0)
(5.71459e-06 0 0)
(5.71774e-06 0 0)
(5.7205e-06 0 0)
(5.7229e-06 0 0)
(5.72499e-06 0 0)
(5.72678e-06 0 0)
(5.72832e-06 0 0)
(5.72964e-06 0 0)
(5.73075e-06 0 0)
(5.73168e-06 0 0)
(5.73247e-06 0 0)
(5.73315e-06 0 0)
(5.73374e-06 0 0)
(5.7343e-06 0 0)
(5.73487e-06 0 0)
(5.73553e-06 0 0)
(5.73642e-06 0 0)
(5.73778e-06 0 0)
(5.74003e-06 0 0)
(5.74391e-06 0 0)
(5.75075e-06 0 0)
(5.76287e-06 0 0)
(5.78442e-06 0 0)
(5.82254e-06 0 0)
(5.88931e-06 0 0)
(6.00391e-06 0 0)
(6.19388e-06 0 0)
(6.49141e-06 0 0)
(6.91863e-06 0 0)
(7.46183e-06 0 0)
(8.05459e-06 0 0)
(8.6001e-06 0 0)
(9.02485e-06 0 0)
(9.31139e-06 0 0)
(9.48499e-06 0 0)
(9.58297e-06 0 0)
(9.63599e-06 0 0)
(9.66401e-06 0 0)
(9.67867e-06 0 0)
(9.6863e-06 0 0)
(9.69029e-06 0 0)
(9.69239e-06 0 0)
(9.69352e-06 0 0)
(9.69415e-06 0 0)
(9.69453e-06 0 0)
(9.69477e-06 0 0)
(9.69493e-06 0 0)
(9.69507e-06 0 0)
(9.69518e-06 0 0)
(9.69528e-06 0 0)
(9.69537e-06 0 0)
(9.69546e-06 0 0)
(9.69555e-06 0 0)
(9.69563e-06 0 0)
(9.69571e-06 0 0)
(9.69578e-06 0 0)
(9.69586e-06 0 0)
(9.69593e-06 0 0)
(9.696e-06 0 0)
(9.69606e-06 0 0)
(9.69612e-06 0 0)
(9.69618e-06 0 0)
(9.69624e-06 0 0)
(9.69629e-06 0 0)
(9.69634e-06 0 0)
(9.69639e-06 0 0)
(9.69643e-06 0 0)
(9.69647e-06 0 0)
(9.69651e-06 0 0)
(9.69654e-06 0 0)
(9.69657e-06 0 0)
(9.6966e-06 0 0)
(9.69662e-06 0 0)
(9.69664e-06 0 0)
(9.69666e-06 0 0)
(9.69667e-06 0 0)
(9.69668e-06 0 0)
(9.69669e-06 0 0)
(9.6967e-06 0 0)
(9.6967e-06 0 0)
(9.69669e-06 0 0)
(9.69669e-06 0 0)
(9.69668e-06 0 0)
(9.69666e-06 0 0)
(9.69665e-06 0 0)
(9.69663e-06 0 0)
(9.69661e-06 0 0)
(9.69658e-06 0 0)
(9.69656e-06 0 0)
(9.69653e-06 0 0)
(9.69649e-06 0 0)
(9.69645e-06 0 0)
(9.69641e-06 0 0)
(9.69637e-06 0 0)
(9.69632e-06 0 0)
(9.69627e-06 0 0)
(9.69622e-06 0 0)
(9.69617e-06 0 0)
(9.6961e-06 0 0)
(9.69604e-06 0 0)
(9.69597e-06 0 0)
(9.6959e-06 0 0)
(9.69582e-06 0 0)
(9.69574e-06 0 0)
(9.69566e-06 0 0)
(9.69557e-06 0 0)
(9.69547e-06 0 0)
(9.69536e-06 0 0)
(9.69525e-06 0 0)
(9.69514e-06 0 0)
(9.69501e-06 0 0)
(9.69488e-06 0 0)
(9.69474e-06 0 0)
(9.69459e-06 0 0)
(9.69443e-06 0 0)
(9.69426e-06 0 0)
(9.69408e-06 0 0)
(9.69389e-06 0 0)
(9.69369e-06 0 0)
(9.69348e-06 0 0)
(9.69326e-06 0 0)
(9.69302e-06 0 0)
(9.69277e-06 0 0)
(9.69251e-06 0 0)
(9.69223e-06 0 0)
(9.69194e-06 0 0)
(9.69164e-06 0 0)
(9.69133e-06 0 0)
(9.691e-06 0 0)
(9.69066e-06 0 0)
(9.69031e-06 0 0)
(9.68994e-06 0 0)
(9.68957e-06 0 0)
(9.68918e-06 0 0)
(9.68878e-06 0 0)
(9.68838e-06 0 0)
(9.68796e-06 0 0)
(9.68754e-06 0 0)
(9.68711e-06 0 0)
(9.68667e-06 0 0)
(9.68624e-06 0 0)
(9.6858e-06 0 0)
(9.68536e-06 0 0)
)
;

boundaryField
{
    inlet
    {
        type            fixedValue;
        value           uniform (0 0 0);
    }
    outlet
    {
        type            zeroGradient;
    }
    emptyWalls
    {
        type            empty;
    }
}


// ************************************************************************* //
