/*--------------------------------*- C++ -*----------------------------------*\
  =========                 |
  \\      /  F ield         | OpenFOAM: The Open Source CFD Toolbox
   \\    /   O peration     | Website:  https://openfoam.org
    \\  /    A nd           | Version:  9
     \\/     M anipulation  |
\*---------------------------------------------------------------------------*/
FoamFile
{
    format      ascii;
    class       surfaceScalarField;
    location    "92000";
    object      phia;
}
// * * * * * * * * * * * * * * * * * * * * * * * * * * * * * * * * * * * * * //

dimensions      [0 2 0 0 0 0 0];

internalField   nonuniform List<scalar> 
99
(
1.46187e-09
1.46187e-09
1.46187e-09
1.46187e-09
1.46187e-09
1.46187e-09
1.46187e-09
1.46187e-09
1.46187e-09
1.46187e-09
1.45341e-09
1.46675e-09
1.46363e-09
1.46278e-09
1.46226e-09
1.46208e-09
1.46196e-09
1.46192e-09
1.46189e-09
1.46188e-09
1.46188e-09
1.46187e-09
1.46187e-09
1.46187e-09
1.46187e-09
1.46187e-09
1.46187e-09
1.46187e-09
1.46187e-09
1.46187e-09
1.46187e-09
1.46187e-09
1.46187e-09
1.46187e-09
1.46187e-09
1.46187e-09
1.46187e-09
1.46187e-09
1.46187e-09
1.46187e-09
1.46187e-09
1.46187e-09
1.46187e-09
1.46187e-09
1.46187e-09
1.46187e-09
1.46187e-09
1.46187e-09
1.46187e-09
1.46187e-09
1.46187e-09
1.46187e-09
1.46187e-09
1.46187e-09
1.46187e-09
1.46187e-09
1.46187e-09
1.46187e-09
1.46187e-09
1.46187e-09
1.46187e-09
1.46187e-09
1.46187e-09
1.46187e-09
1.46187e-09
1.46187e-09
1.46187e-09
1.46187e-09
1.46187e-09
1.46187e-09
1.46187e-09
1.46187e-09
1.46187e-09
1.46187e-09
1.46187e-09
1.46187e-09
1.46187e-09
1.46187e-09
1.46187e-09
1.46187e-09
1.46187e-09
1.46187e-09
1.46187e-09
1.46187e-09
1.46187e-09
1.46187e-09
1.46187e-09
1.46187e-09
1.46187e-09
1.46187e-09
1.46187e-09
1.46187e-09
1.46187e-09
1.46187e-09
1.46187e-09
1.46187e-09
1.46187e-09
1.46187e-09
1.46187e-09
)
;

boundaryField
{
    inlet
    {
        type            calculated;
        value           uniform -1.46187e-09;
    }
    outlet
    {
        type            calculated;
        value           uniform 1.46187e-09;
    }
    emptyWalls
    {
        type            empty;
        value           nonuniform List<scalar> 0();
    }
}


// ************************************************************************* //
