/*--------------------------------*- C++ -*----------------------------------*\
  =========                 |
  \\      /  F ield         | OpenFOAM: The Open Source CFD Toolbox
   \\    /   O peration     | Website:  https://openfoam.org
    \\  /    A nd           | Version:  9
     \\/     M anipulation  |
\*---------------------------------------------------------------------------*/
FoamFile
{
    format      ascii;
    class       surfaceScalarField;
    location    "92000";
    object      phib;
}
// * * * * * * * * * * * * * * * * * * * * * * * * * * * * * * * * * * * * * //

dimensions      [0 2 0 0 0 0 0];

internalField   nonuniform List<scalar> 
99
(
1.46187e-09
1.46187e-09
1.46187e-09
1.46187e-09
1.46187e-09
1.46187e-09
1.46187e-09
1.46187e-09
1.46187e-09
1.46187e-09
1.47033e-09
1.45699e-09
1.46011e-09
1.46096e-09
1.46148e-09
1.46166e-09
1.46178e-09
1.46182e-09
1.46185e-09
1.46186e-09
1.46186e-09
1.46187e-09
1.46187e-09
1.46187e-09
1.46187e-09
1.46187e-09
1.46187e-09
1.46187e-09
1.46187e-09
1.46187e-09
1.46187e-09
1.46187e-09
1.46187e-09
1.46187e-09
1.46187e-09
1.46187e-09
1.46187e-09
1.46187e-09
1.46187e-09
1.46187e-09
1.46187e-09
1.46187e-09
1.46187e-09
1.46187e-09
1.46187e-09
1.46187e-09
1.46187e-09
1.46187e-09
1.46187e-09
1.46187e-09
1.46187e-09
1.46187e-09
1.46187e-09
1.46187e-09
1.46187e-09
1.46187e-09
1.46187e-09
1.46187e-09
1.46187e-09
1.46187e-09
1.46187e-09
1.46187e-09
1.46187e-09
1.46187e-09
1.46187e-09
1.46187e-09
1.46187e-09
1.46187e-09
1.46187e-09
1.46187e-09
1.46187e-09
1.46187e-09
1.46187e-09
1.46187e-09
1.46187e-09
1.46187e-09
1.46187e-09
1.46187e-09
1.46187e-09
1.46187e-09
1.46187e-09
1.46187e-09
1.46187e-09
1.46187e-09
1.46187e-09
1.46187e-09
1.46187e-09
1.46187e-09
1.46187e-09
1.46187e-09
1.46187e-09
1.46187e-09
1.46187e-09
1.46187e-09
1.46187e-09
1.46187e-09
1.46187e-09
1.46187e-09
1.46187e-09
)
;

boundaryField
{
    inlet
    {
        type            calculated;
        value           uniform -1.46187e-09;
    }
    outlet
    {
        type            calculated;
        value           uniform 1.46187e-09;
    }
    emptyWalls
    {
        type            empty;
        value           nonuniform List<scalar> 0();
    }
}


// ************************************************************************* //
