/*--------------------------------*- C++ -*----------------------------------*\
  =========                 |
  \\      /  F ield         | OpenFOAM: The Open Source CFD Toolbox
   \\    /   O peration     | Website:  https://openfoam.org
    \\  /    A nd           | Version:  9
     \\/     M anipulation  |
\*---------------------------------------------------------------------------*/
FoamFile
{
    format      ascii;
    class       volVectorField;
    location    "92000";
    object      Ua;
}
// * * * * * * * * * * * * * * * * * * * * * * * * * * * * * * * * * * * * * //

dimensions      [0 0 0 0 0 0 0];

internalField   nonuniform List<vector> 
100
(
(1.51077e-05 0 0)
(1.46187e-05 0 0)
(1.46187e-05 0 0)
(1.46187e-05 0 0)
(1.46187e-05 0 0)
(1.46187e-05 0 0)
(1.46187e-05 0 0)
(1.46187e-05 0 0)
(1.46187e-05 0 0)
(1.46187e-05 0 0)
(1.45764e-05 0 0)
(1.46008e-05 0 0)
(1.46519e-05 0 0)
(1.46321e-05 0 0)
(1.46252e-05 0 0)
(1.46217e-05 0 0)
(1.46202e-05 0 0)
(1.46194e-05 0 0)
(1.46191e-05 0 0)
(1.46189e-05 0 0)
(1.46188e-05 0 0)
(1.46188e-05 0 0)
(1.46187e-05 0 0)
(1.46187e-05 0 0)
(1.46187e-05 0 0)
(1.46187e-05 0 0)
(1.46187e-05 0 0)
(1.46187e-05 0 0)
(1.46187e-05 0 0)
(1.46187e-05 0 0)
(1.46187e-05 0 0)
(1.46187e-05 0 0)
(1.46187e-05 0 0)
(1.46187e-05 0 0)
(1.46187e-05 0 0)
(1.46187e-05 0 0)
(1.46187e-05 0 0)
(1.46187e-05 0 0)
(1.46187e-05 0 0)
(1.46187e-05 0 0)
(1.46187e-05 0 0)
(1.46187e-05 0 0)
(1.46187e-05 0 0)
(1.46187e-05 0 0)
(1.46187e-05 0 0)
(1.46187e-05 0 0)
(1.46187e-05 0 0)
(1.46187e-05 0 0)
(1.46187e-05 0 0)
(1.46187e-05 0 0)
(1.46187e-05 0 0)
(1.46187e-05 0 0)
(1.46187e-05 0 0)
(1.46187e-05 0 0)
(1.46187e-05 0 0)
(1.46187e-05 0 0)
(1.46187e-05 0 0)
(1.46187e-05 0 0)
(1.46187e-05 0 0)
(1.46187e-05 0 0)
(1.46187e-05 0 0)
(1.46187e-05 0 0)
(1.46187e-05 0 0)
(1.46187e-05 0 0)
(1.46187e-05 0 0)
(1.46187e-05 0 0)
(1.46187e-05 0 0)
(1.46187e-05 0 0)
(1.46187e-05 0 0)
(1.46187e-05 0 0)
(1.46187e-05 0 0)
(1.46187e-05 0 0)
(1.46187e-05 0 0)
(1.46187e-05 0 0)
(1.46187e-05 0 0)
(1.46187e-05 0 0)
(1.46187e-05 0 0)
(1.46187e-05 0 0)
(1.46187e-05 0 0)
(1.46187e-05 0 0)
(1.46187e-05 0 0)
(1.46187e-05 0 0)
(1.46187e-05 0 0)
(1.46187e-05 0 0)
(1.46187e-05 0 0)
(1.46187e-05 0 0)
(1.46187e-05 0 0)
(1.46187e-05 0 0)
(1.46187e-05 0 0)
(1.46187e-05 0 0)
(1.46187e-05 0 0)
(1.46187e-05 0 0)
(1.46187e-05 0 0)
(1.46187e-05 0 0)
(1.46187e-05 0 0)
(1.46187e-05 0 0)
(1.46187e-05 0 0)
(1.46187e-05 0 0)
(1.46187e-05 0 0)
(1.46187e-05 0 0)
)
;

boundaryField
{
    inlet
    {
        type            fixedValue;
        value           uniform (1.46187e-05 0 0);
    }
    outlet
    {
        type            zeroGradient;
    }
    emptyWalls
    {
        type            empty;
    }
}


// ************************************************************************* //
