/*--------------------------------*- C++ -*----------------------------------*\
  =========                 |
  \\      /  F ield         | OpenFOAM: The Open Source CFD Toolbox
   \\    /   O peration     | Website:  https://openfoam.org
    \\  /    A nd           | Version:  9
     \\/     M anipulation  |
\*---------------------------------------------------------------------------*/
FoamFile
{
    format      ascii;
    class       volScalarField;
    location    "14250";
    object      p;
}
// * * * * * * * * * * * * * * * * * * * * * * * * * * * * * * * * * * * * * //

dimensions      [0 0 0 0 0 0 0];

internalField   nonuniform List<scalar> 
1000
(
215788
215364
214943
214525
214111
213700
213293
212889
212488
212091
211696
211305
210916
210529
210144
209761
209380
209002
208636
208310
208110
208005
207915
207829
207744
207660
207576
207493
207410
207328
207246
207164
207082
207000
206918
206836
206754
206673
206591
206509
206428
206346
206265
206183
206101
206020
205938
205856
205775
205693
205611
205529
205446
205364
205281
205198
205115
205031
204947
204863
204778
204692
204607
204520
204434
204347
204259
204171
204083
203994
203905
203815
203725
203634
203543
203452
203360
203268
203175
203082
202988
202894
202800
202705
202610
202514
202418
202322
202225
202128
202030
201932
201834
201735
201636
201536
201436
201336
201235
201134
201033
200931
200828
200726
200623
200519
200415
200311
200206
200101
199996
199890
199784
199678
199571
199464
199356
199248
199140
199031
198922
198813
198703
198593
198482
198371
198260
198149
198037
197925
197812
197699
197586
197472
197358
197244
197129
197014
196899
196783
196668
196551
196435
196318
196200
196083
195965
195846
195728
195609
195489
195370
195250
195129
195008
194887
194766
194644
194522
194399
194276
194153
194029
193905
193781
193656
193532
193406
193281
193155
193029
192902
192775
192648
192521
192393
192265
192136
192007
191878
191749
191619
191489
191358
191228
191097
190965
190833
190701
190569
190436
190303
190170
190037
189903
189768
189634
189499
189364
189228
189093
188956
188820
188683
188546
188409
188271
188133
187995
187856
187717
187578
187439
187299
187159
187018
186878
186736
186595
186453
186311
186169
186027
185884
185741
185597
185453
185309
185165
185020
184875
184730
184584
184439
184292
184146
183999
183852
183705
183557
183409
183261
183112
182964
182815
182665
182515
182365
182215
182065
181914
181763
181611
181459
181307
181155
181002
180850
180696
180543
180389
180235
180081
179926
179771
179616
179461
179305
179149
178992
178836
178679
178522
178364
178207
178049
177890
177732
177573
177414
177255
177095
176935
176775
176615
176454
176293
176132
175970
175809
175647
175484
175322
175159
174996
174832
174668
174504
174340
174175
174010
173845
173680
173514
173348
173181
173015
172848
172680
172513
172345
172177
172008
171840
171670
171501
171332
171162
170991
170821
170650
170479
170308
170136
169965
169792
169620
169447
169274
169101
168928
168754
168580
168405
168231
168056
167881
167705
167529
167353
167177
167000
166824
166646
166469
166291
166113
165935
165757
165578
165399
165219
165040
164860
164680
164499
164318
164137
163956
163774
163592
163410
163228
163045
162862
162679
162495
162312
162128
161943
161759
161574
161388
161203
161017
160831
160645
160458
160271
160084
159897
159709
159521
159333
159145
158956
158767
158577
158388
158198
158008
157817
157627
157436
157244
157053
156861
156669
156477
156284
156091
155898
155704
155511
155317
155122
154928
154733
154538
154342
154147
153951
153755
153558
153361
153164
152967
152769
152572
152373
152175
151976
151777
151578
151379
151179
150979
150778
150578
150377
150176
149974
149773
149571
149368
149166
148963
148760
148557
148353
148149
147945
147740
147536
147331
147126
146920
146714
146508
146302
146096
145889
145682
145474
145267
145059
144850
144642
144433
144224
144015
143805
143596
143385
143175
142964
142753
142542
142330
142118
141906
141693
141481
141267
141054
140840
140626
140412
140197
139982
139767
139551
139335
139119
138903
138686
138469
138251
138034
137816
137597
137379
137160
136940
136721
136501
136281
136060
135840
135619
135397
135175
134953
134731
134509
134286
134062
133839
133615
133391
133166
132942
132717
132491
132265
132039
131813
131586
131359
131132
130904
130677
130448
130220
129991
129762
129532
129302
129072
128842
128611
128380
128148
127916
127684
127452
127219
126986
126753
126520
126286
126052
125817
125582
125348
125112
124877
124641
124406
124170
123933
123697
123461
123224
122987
122751
122514
122277
122040
121803
121566
121329
121091
120854
120617
120379
120141
119902
119662
119421
119176
118927
118671
118409
118141
117869
117594
117317
117040
116762
116485
116207
115929
115651
115373
115096
114818
114540
114262
113984
113707
113429
113151
112873
112595
112317
112040
111762
111484
111206
110928
110651
110373
110095
109817
109539
109262
108984
108706
108428
108150
107873
107595
107317
107039
106762
106484
106206
105928
105651
105373
105095
104818
104540
104262
103985
103707
103429
103152
102874
102596
102319
102041
101764
101486
101209
100931
100653
100376
100099
99821
99543.6
99266.2
98988.8
98711.4
98434
98156.6
97879.2
97601.9
97324.5
97047.2
96769.9
96492.6
96215.3
95938
95660.7
95383.4
95106.1
94828.8
94551.5
94274.2
93996.9
93719.6
93442.3
93165
92887.7
92610.4
92333
92055.6
91778.3
91500.9
91223.5
90946.1
90668.6
90391.2
90113.7
89836.3
89558.8
89281.3
89003.8
88726.3
88448.7
88171.2
87893.6
87616
87338.4
87060.8
86783.2
86505.6
86228
85950.4
85672.7
85395.1
85117.4
84839.8
84562.1
84284.4
84006.8
83729.1
83451.4
83173.7
82896
82618.3
82340.6
82062.9
81785.3
81507.6
81229.8
80952.1
80674.4
80396.7
80119
79841.3
79563.6
79285.9
79008.1
78730.4
78452.7
78174.9
77897.2
77619.5
77341.7
77064
76786.2
76508.5
76230.7
75953
75675.2
75397.5
75119.7
74841.9
74564.2
74286.4
74008.6
73730.8
73453
73175.3
72897.5
72619.7
72341.9
72064.1
71786.3
71508.5
71230.7
70952.9
70675.1
70397.3
70119.4
69841.6
69563.8
69286
69008.2
68730.3
68452.5
68174.7
67896.8
67619
67341.2
67063.3
66785.5
66507.7
66229.8
65952
65674.1
65396.3
65118.5
64840.6
64562.8
64284.9
64007.1
63729.2
63451.4
63173.5
62895.7
62617.8
62340
62062.1
61784.3
61506.4
61228.6
60950.8
60672.9
60395.1
60117.2
59839.4
59561.5
59283.7
59005.9
58728
58450.2
58172.3
57894.5
57616.7
57338.8
57061
56783.2
56505.4
56227.5
55949.7
55671.9
55394.1
55116.3
54838.4
54560.6
54282.8
54005
53727.2
53449.4
53171.6
52893.8
52616
52338.2
52060.5
51782.7
51504.9
51227.1
50949.4
50671.6
50393.8
50116.1
49838.3
49560.6
49282.9
49005.1
48727.4
48449.7
48172
47894.3
47616.6
47338.9
47061.3
46783.6
46505.9
46228.3
45950.7
45673.1
45395.5
45117.9
44840.3
44562.7
44285.2
44007.6
43730.1
43452.6
43175.1
42897.6
42620.1
42342.7
42065.2
41787.8
41510.4
41233
40955.6
40678.2
40400.8
40123.4
39846.1
39568.7
39291.4
39014.1
38736.7
38459.4
38182.1
37904.8
37627.5
37350.2
37072.8
36795.5
36518.2
36240.9
35963.6
35686.2
35408.9
35131.6
34854.2
34576.9
34299.5
34022.1
33744.7
33467.3
33189.9
32912.5
32635
32357.6
32080.1
31802.6
31525.1
31247.6
30970.1
30692.6
30415
30137.5
29859.9
29582.3
29304.8
29027.2
28749.6
28471.9
28194.3
27916.7
27639.1
27361.4
27083.8
26806.1
26528.5
26250.8
25973.1
25695.5
25417.8
25140.1
24862.4
24584.7
24307
24029.3
23751.6
23473.9
23196.2
22918.5
22640.8
22363.1
22085.4
21807.6
21529.9
21252.2
20974.5
20696.7
20419
20141.2
19863.5
19585.8
19308
19030.3
18752.5
18474.7
18197
17919.2
17641.5
17363.7
17085.9
16808.1
16530.4
16252.6
15974.8
15697
15419.2
15141.4
14863.6
14585.8
14308
14030.2
13752.4
13474.6
13196.8
12919
12641.2
12363.4
12085.6
11807.8
11529.9
11252.1
10974.3
10696.5
10418.7
10140.8
9863.01
9585.18
9307.35
9029.52
8751.69
8473.86
8196.02
7918.19
7640.36
7362.52
7084.69
6806.85
6529.02
6251.18
5973.35
5695.51
5417.68
5139.84
4862.01
4584.17
4306.34
4028.5
3750.67
3472.83
3195
2917.17
2639.34
2361.51
2083.68
1805.85
1528.02
1250.2
972.374
694.551
416.73
138.909
)
;

boundaryField
{
    inlet
    {
        type            darcyGradPressure;
        gradient        uniform 116344;
        Mf              Mf;
        phi             phi;
        value           uniform 216002;
    }
    outlet
    {
        type            fixedValue;
        value           uniform 0;
    }
    emptyWalls
    {
        type            empty;
    }
}


// ************************************************************************* //
