/*--------------------------------*- C++ -*----------------------------------*\
  =========                 |
  \\      /  F ield         | OpenFOAM: The Open Source CFD Toolbox
   \\    /   O peration     | Website:  https://openfoam.org
    \\  /    A nd           | Version:  9
     \\/     M anipulation  |
\*---------------------------------------------------------------------------*/
FoamFile
{
    format      ascii;
    class       volScalarField;
    location    "10750";
    object      krc;
}
// * * * * * * * * * * * * * * * * * * * * * * * * * * * * * * * * * * * * * //

dimensions      [0 0 0 0 0 0 0];

internalField   nonuniform List<scalar> 
1000
(
4.51694e-07
4.70643e-06
1.5997e-05
3.2964e-05
5.53137e-05
8.25057e-05
0.0001135
0.000146713
0.000180267
0.000212475
0.000243285
0.000280029
0.000367938
0.00073014
0.00385877
0.0278188
0.041708
0.0457177
0.0476874
0.0489788
0.0499672
0.0507832
0.0514889
0.0521121
0.0526737
0.0531835
0.0536539
0.0540932
0.0545117
0.0549152
0.055311
0.0557044
0.0561067
0.0565325
0.0569713
0.0574298
0.0579202
0.0584624
0.0590848
0.0598227
0.0607077
0.06175
0.0629273
0.0641995
0.065533
0.0669058
0.0683035
0.0697168
0.0711396
0.0725675
0.0739975
0.0754274
0.0768557
0.0782812
0.0797031
0.0811207
0.0825337
0.0839416
0.0853441
0.0867411
0.0881323
0.0895178
0.0908973
0.0922708
0.0936383
0.0949996
0.0963549
0.0977042
0.0990474
0.100385
0.101716
0.103041
0.10436
0.105674
0.106981
0.108283
0.109578
0.110869
0.112153
0.113432
0.114705
0.115973
0.117235
0.118492
0.119743
0.120989
0.12223
0.123466
0.124696
0.125921
0.127142
0.128357
0.129567
0.130773
0.131974
0.13317
0.134361
0.135547
0.136729
0.137906
0.139079
0.140248
0.141411
0.142571
0.143726
0.144877
0.146024
0.147167
0.148305
0.14944
0.15057
0.151696
0.152819
0.153937
0.155052
0.156163
0.15727
0.158373
0.159473
0.160569
0.161662
0.162751
0.163836
0.164918
0.165996
0.16707
0.168142
0.169209
0.170274
0.171335
0.172393
0.173448
0.174499
0.175548
0.176593
0.177636
0.178675
0.179712
0.180746
0.181778
0.182806
0.183832
0.184856
0.185877
0.186896
0.187912
0.188926
0.189937
0.190946
0.191952
0.192956
0.193957
0.194956
0.195953
0.196946
0.197938
0.198927
0.199913
0.200897
0.201878
0.202858
0.203835
0.204809
0.205782
0.206752
0.20772
0.208686
0.20965
0.210612
0.211572
0.212531
0.213487
0.214441
0.215393
0.216344
0.217293
0.21824
0.219185
0.220128
0.22107
0.22201
0.222948
0.223885
0.22482
0.225753
0.226685
0.227615
0.228544
0.229471
0.230396
0.23132
0.232243
0.233164
0.234083
0.235001
0.235918
0.236833
0.237748
0.23866
0.239572
0.240482
0.24139
0.242298
0.243204
0.244109
0.245013
0.245916
0.246817
0.247718
0.248617
0.249515
0.250412
0.251308
0.252203
0.253097
0.25399
0.254882
0.255773
0.256663
0.257552
0.258441
0.259328
0.260215
0.2611
0.261985
0.262869
0.263752
0.264634
0.265516
0.266397
0.267277
0.268157
0.269035
0.269914
0.270791
0.271668
0.272544
0.27342
0.274295
0.275169
0.276043
0.276917
0.277789
0.278662
0.279534
0.280405
0.281276
0.282147
0.283017
0.283887
0.284757
0.285626
0.286495
0.287364
0.288232
0.2891
0.289968
0.290836
0.291703
0.292571
0.293438
0.294305
0.295171
0.296038
0.296905
0.297771
0.298638
0.299504
0.30037
0.301237
0.302103
0.302969
0.303835
0.304701
0.305568
0.306434
0.3073
0.308167
0.309033
0.3099
0.310766
0.311633
0.3125
0.313367
0.314234
0.315102
0.31597
0.316838
0.317707
0.318576
0.319446
0.320316
0.321188
0.322059
0.322932
0.323805
0.324679
0.325554
0.32643
0.327307
0.328185
0.329064
0.329944
0.330826
0.331708
0.332592
0.333476
0.334362
0.335249
0.336137
0.337027
0.337917
0.338808
0.339701
0.340595
0.341489
0.342385
0.343282
0.34418
0.345079
0.345979
0.346881
0.347784
0.348688
0.349593
0.3505
0.351408
0.352317
0.353229
0.354141
0.355056
0.355972
0.35689
0.35781
0.358731
0.359655
0.36058
0.361508
0.362437
0.363369
0.364303
0.365239
0.366177
0.367117
0.36806
0.369006
0.369954
0.370904
0.371857
0.372813
0.373771
0.374732
0.375696
0.376663
0.377633
0.378606
0.379581
0.38056
0.381542
0.382528
0.383517
0.384509
0.385504
0.386503
0.387506
0.388512
0.389522
0.390536
0.391554
0.392576
0.393602
0.394632
0.395666
0.396704
0.397747
0.398795
0.399847
0.400904
0.401965
0.403031
0.404102
0.405178
0.406259
0.407346
0.408437
0.409533
0.410635
0.411741
0.412852
0.413969
0.415089
0.416216
0.417345
0.41848
0.419617
0.420757
0.421899
0.423042
0.424186
0.425327
0.426466
0.427598
0.428721
0.429833
0.43093
0.432009
0.433063
0.434088
0.435079
0.43603
0.436936
0.437792
0.438593
0.439336
0.440017
0.440634
0.441189
0.441685
0.442126
0.442524
0.442894
0.443263
0.443679
0.444221
0.445026
0.44633
0.448539
0.452328
0.458761
0.469334
0.485717
0.508835
0.537409
0.567297
0.593355
0.61252
0.624824
0.632016
0.635982
0.638097
0.639205
0.639778
0.640075
0.640227
0.640304
0.640343
0.640362
0.640371
0.640375
0.640377
0.640376
0.640375
0.640373
0.640371
0.640368
0.640366
0.640363
0.64036
0.640357
0.640353
0.640349
0.640345
0.640341
0.640337
0.640332
0.640327
0.640322
0.640317
0.640312
0.640306
0.6403
0.640295
0.640289
0.640283
0.640277
0.640271
0.640265
0.64026
0.640254
0.640249
0.640244
0.640239
0.640235
0.640231
0.640228
0.640225
0.640222
0.640221
0.640219
0.640219
0.640219
0.640219
0.64022
0.640221
0.640223
0.640227
0.64023
0.640234
0.640239
0.640244
0.640249
0.640255
0.640261
0.640267
0.640273
0.64028
0.640286
0.640292
0.640299
0.640305
0.640311
0.640317
0.640322
0.640328
0.640333
0.640338
0.640342
0.640346
0.64035
0.640354
0.640357
0.64036
0.640363
0.640366
0.640368
0.64037
0.640372
0.640374
0.640375
0.640377
0.640378
0.640379
0.64038
0.640382
0.640383
0.640384
0.640385
0.640386
0.640387
0.640388
0.640389
0.64039
0.640391
0.640392
0.640393
0.640394
0.640395
0.640396
0.640397
0.640398
0.6404
0.640401
0.640402
0.640403
0.640404
0.640406
0.640407
0.640408
0.640409
0.640411
0.640412
0.640413
0.640414
0.640415
0.640416
0.640417
0.640419
0.64042
0.640421
0.640422
0.640422
0.640423
0.640424
0.640425
0.640426
0.640427
0.640427
0.640428
0.640429
0.640429
0.64043
0.64043
0.640431
0.640431
0.640431
0.640432
0.640432
0.640432
0.640432
0.640433
0.640433
0.640433
0.640433
0.640433
0.640433
0.640433
0.640433
0.640433
0.640433
0.640433
0.640433
0.640433
0.640433
0.640433
0.640433
0.640433
0.640432
0.640432
0.640432
0.640432
0.640432
0.640431
0.640431
0.640431
0.64043
0.64043
0.64043
0.640429
0.640429
0.640429
0.640428
0.640428
0.640427
0.640427
0.640426
0.640426
0.640425
0.640425
0.640424
0.640424
0.640423
0.640422
0.640422
0.640421
0.640421
0.64042
0.640419
0.640418
0.640418
0.640417
0.640416
0.640415
0.640414
0.640414
0.640413
0.640412
0.640411
0.64041
0.640409
0.640407
0.640406
0.640405
0.640404
0.640402
0.640401
0.640399
0.640397
0.640395
0.640393
0.640391
0.640389
0.640387
0.640384
0.640381
0.640378
0.640375
0.640372
0.640368
0.640364
0.64036
0.640356
0.640352
0.640347
0.640343
0.640338
0.640333
0.640328
0.640323
0.640318
0.640313
0.640308
0.640303
0.640298
0.640293
0.640288
0.640283
0.640279
0.640275
0.640271
0.640267
0.640264
0.640261
0.640258
0.640256
0.640254
0.640253
0.640252
0.640251
0.640251
0.640251
0.640251
0.640252
0.640254
0.640256
0.640258
0.640261
0.640264
0.640268
0.640272
0.640276
0.64028
0.640285
0.64029
0.640295
0.640299
0.640304
0.640309
0.640314
0.640319
0.640324
0.640328
0.640332
0.640337
0.640341
0.640344
0.640348
0.640352
0.640355
0.640358
0.640361
0.640363
0.640365
0.640368
0.64037
0.640371
0.640373
0.640375
0.640376
0.640377
0.640379
0.64038
0.640381
0.640382
0.640383
0.640383
0.640384
0.640385
0.640386
0.640387
0.640387
0.640388
0.640389
0.64039
0.640391
0.640392
0.640392
0.640393
0.640394
0.640395
0.640396
0.640397
0.640398
0.640399
0.6404
0.640401
0.640402
0.640403
0.640404
0.640405
0.640406
0.640407
0.640408
0.640409
0.64041
0.640411
0.640412
0.640413
0.640413
0.640414
0.640415
0.640416
0.640417
0.640418
0.640419
0.64042
0.64042
0.640421
0.640422
0.640422
0.640423
0.640424
0.640424
0.640425
0.640425
0.640426
0.640426
0.640427
0.640427
0.640427
0.640428
0.640428
0.640428
0.640428
0.640428
0.640429
0.640429
0.640429
0.640429
0.640429
0.640429
0.640429
0.640429
0.640429
0.640429
0.640429
0.640428
0.640428
0.640428
0.640428
0.640428
0.640427
0.640427
0.640427
0.640427
0.640426
0.640426
0.640426
0.640425
0.640425
0.640424
0.640424
0.640424
0.640423
0.640423
0.640422
0.640422
0.640421
0.640421
0.64042
0.64042
0.640419
0.640418
0.640418
0.640417
0.640416
0.640416
0.640415
0.640414
0.640413
0.640412
0.640412
0.640411
0.64041
0.640409
0.640407
0.640406
0.640405
0.640404
0.640402
0.640401
0.6404
0.640398
0.640396
0.640394
0.640392
0.64039
0.640388
0.640386
0.640383
0.640381
0.640378
0.640375
0.640372
0.640369
0.640366
0.640363
0.640359
0.640356
0.640352
0.640348
0.640344
0.64034
0.640336
0.640332
0.640328
0.640324
0.640319
0.640315
0.640311
0.640307
0.640303
0.640299
0.640295
0.640291
0.640287
0.640284
0.64028
0.640277
0.640275
0.640272
0.64027
0.640267
0.640266
0.640264
0.640263
0.640262
0.640262
0.640262
0.640262
0.640262
0.640262
0.640263
0.640265
0.640267
0.640269
0.640272
0.640274
0.640277
0.640281
0.640284
0.640288
0.640291
0.640295
0.640299
0.640303
0.640307
0.640311
0.640315
0.640319
0.640323
0.640326
0.64033
0.640334
0.640337
0.64034
0.640343
0.640346
0.640349
0.640352
0.640354
0.640356
0.640359
0.640361
0.640363
0.640364
0.640366
0.640368
0.640369
0.64037
0.640372
0.640373
0.640374
0.640375
0.640376
0.640377
0.640378
0.640379
0.64038
0.640381
0.640382
0.640382
0.640383
0.640384
0.640385
0.640386
0.640387
0.640388
0.640389
0.64039
0.640391
0.640392
0.640393
0.640394
0.640395
0.640396
0.640397
0.640398
0.640399
0.6404
0.640401
0.640402
0.640403
0.640405
0.640405
0.640407
0.640408
0.640409
0.64041
0.640411
0.640412
0.640413
0.640414
0.640416
0.640416
0.640418
0.640418
0.640419
0.64042
0.640421
0.640422
)
;

boundaryField
{
    inlet
    {
        type            calculated;
        value           uniform 3.08149e-33;
    }
    outlet
    {
        type            calculated;
        value           uniform 0.640422;
    }
    emptyWalls
    {
        type            empty;
    }
}


// ************************************************************************* //
