/*--------------------------------*- C++ -*----------------------------------*\
  =========                 |
  \\      /  F ield         | OpenFOAM: The Open Source CFD Toolbox
   \\    /   O peration     | Website:  https://openfoam.org
    \\  /    A nd           | Version:  9
     \\/     M anipulation  |
\*---------------------------------------------------------------------------*/
FoamFile
{
    format      ascii;
    class       surfaceScalarField;
    location    "10750";
    object      phib;
}
// * * * * * * * * * * * * * * * * * * * * * * * * * * * * * * * * * * * * * //

dimensions      [0 2 0 0 0 0 0];

internalField   nonuniform List<scalar> 
999
(
1.13624e-09
1.13623e-09
1.13631e-09
1.13628e-09
1.1364e-09
1.13642e-09
1.13652e-09
1.13664e-09
1.13667e-09
1.1368e-09
1.13682e-09
1.13698e-09
1.13742e-09
1.13921e-09
1.15146e-09
1.17219e-09
1.17469e-09
1.17481e-09
1.17437e-09
1.17421e-09
1.17467e-09
1.17533e-09
1.17599e-09
1.17698e-09
1.17802e-09
1.17891e-09
1.17959e-09
1.18005e-09
1.18032e-09
1.18042e-09
1.18038e-09
1.18029e-09
1.18014e-09
1.17997e-09
1.17979e-09
1.1796e-09
1.17941e-09
1.17919e-09
1.17892e-09
1.17857e-09
1.1781e-09
1.17751e-09
1.17685e-09
1.17614e-09
1.17539e-09
1.17463e-09
1.17384e-09
1.17303e-09
1.17222e-09
1.17139e-09
1.17054e-09
1.16969e-09
1.16883e-09
1.16796e-09
1.16708e-09
1.1662e-09
1.16531e-09
1.16441e-09
1.1635e-09
1.16259e-09
1.16167e-09
1.16075e-09
1.15982e-09
1.15889e-09
1.15795e-09
1.15701e-09
1.15607e-09
1.15512e-09
1.15417e-09
1.15321e-09
1.15225e-09
1.15129e-09
1.15032e-09
1.14935e-09
1.14838e-09
1.1474e-09
1.14642e-09
1.14543e-09
1.14444e-09
1.14345e-09
1.14245e-09
1.14145e-09
1.14044e-09
1.13943e-09
1.13842e-09
1.1374e-09
1.13638e-09
1.13536e-09
1.13433e-09
1.1333e-09
1.13226e-09
1.13123e-09
1.13018e-09
1.12914e-09
1.12809e-09
1.12704e-09
1.12599e-09
1.12494e-09
1.12388e-09
1.12282e-09
1.12176e-09
1.1207e-09
1.11963e-09
1.11857e-09
1.11751e-09
1.11644e-09
1.11537e-09
1.1143e-09
1.11322e-09
1.11214e-09
1.11105e-09
1.10997e-09
1.10887e-09
1.10778e-09
1.10668e-09
1.10558e-09
1.10448e-09
1.10337e-09
1.10225e-09
1.10112e-09
1.09997e-09
1.09881e-09
1.09763e-09
1.09643e-09
1.09521e-09
1.09396e-09
1.0927e-09
1.09142e-09
1.09012e-09
1.08882e-09
1.0875e-09
1.08618e-09
1.08486e-09
1.08354e-09
1.08224e-09
1.08096e-09
1.0797e-09
1.07847e-09
1.07728e-09
1.07613e-09
1.07501e-09
1.07394e-09
1.07291e-09
1.07192e-09
1.07096e-09
1.07003e-09
1.06912e-09
1.06823e-09
1.06734e-09
1.06645e-09
1.06555e-09
1.06464e-09
1.06371e-09
1.06275e-09
1.06177e-09
1.06076e-09
1.05973e-09
1.05867e-09
1.05758e-09
1.05648e-09
1.05535e-09
1.05421e-09
1.05306e-09
1.0519e-09
1.05073e-09
1.04955e-09
1.04837e-09
1.04719e-09
1.046e-09
1.04482e-09
1.04364e-09
1.04246e-09
1.04128e-09
1.04011e-09
1.03893e-09
1.03776e-09
1.03659e-09
1.03542e-09
1.03425e-09
1.03308e-09
1.03192e-09
1.03075e-09
1.02957e-09
1.0284e-09
1.02723e-09
1.02605e-09
1.02487e-09
1.02369e-09
1.02251e-09
1.02133e-09
1.02014e-09
1.01895e-09
1.01775e-09
1.01656e-09
1.01536e-09
1.01415e-09
1.01295e-09
1.01174e-09
1.01053e-09
1.00932e-09
1.0081e-09
1.00688e-09
1.00566e-09
1.00443e-09
1.0032e-09
1.00197e-09
1.00074e-09
9.99499e-10
9.98259e-10
9.97016e-10
9.95771e-10
9.94522e-10
9.9327e-10
9.92016e-10
9.90759e-10
9.89499e-10
9.88236e-10
9.8697e-10
9.85701e-10
9.8443e-10
9.83155e-10
9.81878e-10
9.80598e-10
9.79314e-10
9.78028e-10
9.76739e-10
9.75447e-10
9.74152e-10
9.72853e-10
9.71552e-10
9.70247e-10
9.6894e-10
9.67629e-10
9.66315e-10
9.64998e-10
9.63678e-10
9.62355e-10
9.61028e-10
9.59699e-10
9.58366e-10
9.5703e-10
9.55691e-10
9.54349e-10
9.53004e-10
9.51655e-10
9.50304e-10
9.4895e-10
9.47593e-10
9.46233e-10
9.4487e-10
9.43504e-10
9.42135e-10
9.40763e-10
9.39388e-10
9.38009e-10
9.36627e-10
9.35242e-10
9.33853e-10
9.32461e-10
9.31066e-10
9.29666e-10
9.28262e-10
9.26855e-10
9.25443e-10
9.24026e-10
9.22605e-10
9.21178e-10
9.19745e-10
9.18306e-10
9.16861e-10
9.15408e-10
9.13947e-10
9.12478e-10
9.11e-10
9.09512e-10
9.08016e-10
9.06509e-10
9.04992e-10
9.03466e-10
9.0193e-10
9.00384e-10
8.98828e-10
8.97265e-10
8.95693e-10
8.94115e-10
8.9253e-10
8.90941e-10
8.89348e-10
8.87754e-10
8.86159e-10
8.84565e-10
8.82973e-10
8.81386e-10
8.79804e-10
8.78229e-10
8.76663e-10
8.75106e-10
8.73559e-10
8.72023e-10
8.70499e-10
8.68985e-10
8.67482e-10
8.65989e-10
8.64506e-10
8.6303e-10
8.6156e-10
8.60095e-10
8.58633e-10
8.57171e-10
8.55707e-10
8.5424e-10
8.52768e-10
8.51289e-10
8.49801e-10
8.48302e-10
8.46793e-10
8.45271e-10
8.43737e-10
8.42189e-10
8.40628e-10
8.39053e-10
8.37465e-10
8.35864e-10
8.34251e-10
8.32625e-10
8.30988e-10
8.2934e-10
8.27681e-10
8.26013e-10
8.24336e-10
8.22649e-10
8.20955e-10
8.19254e-10
8.17545e-10
8.15829e-10
8.14106e-10
8.12377e-10
8.10642e-10
8.08901e-10
8.07154e-10
8.054e-10
8.03641e-10
8.01875e-10
8.00103e-10
7.98325e-10
7.9654e-10
7.94748e-10
7.92949e-10
7.91143e-10
7.89329e-10
7.87508e-10
7.85679e-10
7.83843e-10
7.81998e-10
7.80144e-10
7.78282e-10
7.76411e-10
7.74531e-10
7.72641e-10
7.70742e-10
7.68833e-10
7.66914e-10
7.64985e-10
7.63046e-10
7.61097e-10
7.59136e-10
7.57164e-10
7.55181e-10
7.53187e-10
7.51182e-10
7.49165e-10
7.47136e-10
7.45095e-10
7.43042e-10
7.40976e-10
7.38898e-10
7.36807e-10
7.34703e-10
7.32587e-10
7.30457e-10
7.28315e-10
7.26159e-10
7.23989e-10
7.21806e-10
7.19609e-10
7.17399e-10
7.15176e-10
7.12939e-10
7.1069e-10
7.08427e-10
7.06151e-10
7.03863e-10
7.01564e-10
6.99255e-10
6.96935e-10
6.9461e-10
6.92275e-10
6.89939e-10
6.876e-10
6.85265e-10
6.82937e-10
6.80619e-10
6.78322e-10
6.76047e-10
6.73806e-10
6.71607e-10
6.69459e-10
6.67377e-10
6.65367e-10
6.63445e-10
6.61618e-10
6.59898e-10
6.58296e-10
6.56815e-10
6.55466e-10
6.54244e-10
6.53149e-10
6.52172e-10
6.51294e-10
6.50493e-10
6.49718e-10
6.48896e-10
6.47895e-10
6.46487e-10
6.44287e-10
6.40622e-10
6.34365e-10
6.2369e-10
6.05896e-10
5.77635e-10
5.36204e-10
4.82282e-10
4.22303e-10
3.66631e-10
3.23413e-10
2.9453e-10
2.77205e-10
2.67502e-10
2.6228e-10
2.59531e-10
2.58099e-10
2.57357e-10
2.56973e-10
2.56773e-10
2.56668e-10
2.56612e-10
2.5658e-10
2.56561e-10
2.56548e-10
2.56538e-10
2.56529e-10
2.56521e-10
2.56513e-10
2.56504e-10
2.56495e-10
2.56485e-10
2.56475e-10
2.56463e-10
2.56451e-10
2.56438e-10
2.56425e-10
2.5641e-10
2.56395e-10
2.56379e-10
2.56362e-10
2.56345e-10
2.56327e-10
2.56308e-10
2.56289e-10
2.56269e-10
2.56249e-10
2.56228e-10
2.56208e-10
2.56187e-10
2.56166e-10
2.56146e-10
2.56126e-10
2.56106e-10
2.56087e-10
2.56069e-10
2.56052e-10
2.56036e-10
2.56021e-10
2.56008e-10
2.55996e-10
2.55986e-10
2.55979e-10
2.55973e-10
2.55969e-10
2.55967e-10
2.55967e-10
2.55967e-10
2.55968e-10
2.55974e-10
2.55983e-10
2.55993e-10
2.56005e-10
2.56018e-10
2.56033e-10
2.5605e-10
2.56067e-10
2.56085e-10
2.56104e-10
2.56124e-10
2.56144e-10
2.56164e-10
2.56184e-10
2.56204e-10
2.56223e-10
2.56242e-10
2.5626e-10
2.56277e-10
2.56294e-10
2.5631e-10
2.56324e-10
2.56338e-10
2.56351e-10
2.56362e-10
2.56373e-10
2.56382e-10
2.56391e-10
2.56399e-10
2.56406e-10
2.56412e-10
2.56417e-10
2.56422e-10
2.56426e-10
2.5643e-10
2.56433e-10
2.56436e-10
2.56439e-10
2.56441e-10
2.56443e-10
2.56446e-10
2.56448e-10
2.5645e-10
2.56452e-10
2.56454e-10
2.56456e-10
2.56458e-10
2.5646e-10
2.56463e-10
2.56465e-10
2.56468e-10
2.56471e-10
2.56474e-10
2.56477e-10
2.5648e-10
2.56484e-10
2.56487e-10
2.56491e-10
2.56495e-10
2.56499e-10
2.56503e-10
2.56507e-10
2.56511e-10
2.56515e-10
2.56519e-10
2.56523e-10
2.56528e-10
2.56532e-10
2.56536e-10
2.5654e-10
2.56544e-10
2.56549e-10
2.56553e-10
2.56557e-10
2.56561e-10
2.56564e-10
2.56568e-10
2.56572e-10
2.56575e-10
2.56579e-10
2.56582e-10
2.56585e-10
2.56588e-10
2.56591e-10
2.56594e-10
2.56597e-10
2.566e-10
2.56602e-10
2.56605e-10
2.56607e-10
2.56609e-10
2.56611e-10
2.56613e-10
2.56615e-10
2.56616e-10
2.56618e-10
2.56619e-10
2.5662e-10
2.56621e-10
2.56623e-10
2.56623e-10
2.56624e-10
2.56625e-10
2.56626e-10
2.56626e-10
2.56626e-10
2.56627e-10
2.56627e-10
2.56627e-10
2.56627e-10
2.56627e-10
2.56627e-10
2.56626e-10
2.56626e-10
2.56626e-10
2.56625e-10
2.56624e-10
2.56624e-10
2.56623e-10
2.56622e-10
2.56621e-10
2.5662e-10
2.56619e-10
2.56617e-10
2.56616e-10
2.56615e-10
2.56613e-10
2.56612e-10
2.5661e-10
2.56609e-10
2.56607e-10
2.56605e-10
2.56603e-10
2.56601e-10
2.56599e-10
2.56597e-10
2.56595e-10
2.56593e-10
2.56591e-10
2.56588e-10
2.56586e-10
2.56584e-10
2.56581e-10
2.56578e-10
2.56576e-10
2.56573e-10
2.5657e-10
2.56567e-10
2.56564e-10
2.56561e-10
2.56557e-10
2.56554e-10
2.5655e-10
2.56546e-10
2.56542e-10
2.56538e-10
2.56533e-10
2.56528e-10
2.56523e-10
2.56518e-10
2.56512e-10
2.56506e-10
2.56499e-10
2.56492e-10
2.56485e-10
2.56477e-10
2.56469e-10
2.5646e-10
2.56451e-10
2.56441e-10
2.56431e-10
2.5642e-10
2.56409e-10
2.56397e-10
2.56385e-10
2.56372e-10
2.56359e-10
2.56346e-10
2.56331e-10
2.56317e-10
2.56302e-10
2.56287e-10
2.56271e-10
2.56255e-10
2.56239e-10
2.56222e-10
2.56206e-10
2.5619e-10
2.56173e-10
2.56157e-10
2.56141e-10
2.56125e-10
2.5611e-10
2.56096e-10
2.56082e-10
2.56069e-10
2.56057e-10
2.56046e-10
2.56036e-10
2.56027e-10
2.5602e-10
2.56013e-10
2.56009e-10
2.56006e-10
2.56004e-10
2.56004e-10
2.56004e-10
2.56004e-10
2.56008e-10
2.56014e-10
2.56022e-10
2.56031e-10
2.56042e-10
2.56053e-10
2.56066e-10
2.5608e-10
2.56095e-10
2.5611e-10
2.56126e-10
2.56142e-10
2.56159e-10
2.56176e-10
2.56193e-10
2.5621e-10
2.56227e-10
2.56243e-10
2.56259e-10
2.56275e-10
2.56289e-10
2.56304e-10
2.56317e-10
2.5633e-10
2.56342e-10
2.56354e-10
2.56364e-10
2.56374e-10
2.56383e-10
2.56392e-10
2.56399e-10
2.56407e-10
2.56413e-10
2.56419e-10
2.56424e-10
2.56429e-10
2.56434e-10
2.56438e-10
2.56442e-10
2.56445e-10
2.56449e-10
2.56452e-10
2.56455e-10
2.56457e-10
2.5646e-10
2.56463e-10
2.56465e-10
2.56468e-10
2.5647e-10
2.56473e-10
2.56475e-10
2.56478e-10
2.56481e-10
2.56483e-10
2.56486e-10
2.56489e-10
2.56492e-10
2.56495e-10
2.56498e-10
2.56502e-10
2.56505e-10
2.56508e-10
2.56511e-10
2.56515e-10
2.56518e-10
2.56522e-10
2.56525e-10
2.56529e-10
2.56532e-10
2.56536e-10
2.56539e-10
2.56543e-10
2.56546e-10
2.5655e-10
2.56553e-10
2.56556e-10
2.5656e-10
2.56563e-10
2.56566e-10
2.56569e-10
2.56572e-10
2.56575e-10
2.56578e-10
2.56581e-10
2.56584e-10
2.56586e-10
2.56589e-10
2.56591e-10
2.56593e-10
2.56595e-10
2.56597e-10
2.56599e-10
2.56601e-10
2.56603e-10
2.56604e-10
2.56606e-10
2.56607e-10
2.56608e-10
2.56609e-10
2.5661e-10
2.56611e-10
2.56612e-10
2.56612e-10
2.56613e-10
2.56613e-10
2.56614e-10
2.56614e-10
2.56614e-10
2.56614e-10
2.56614e-10
2.56614e-10
2.56614e-10
2.56613e-10
2.56613e-10
2.56612e-10
2.56612e-10
2.56611e-10
2.5661e-10
2.5661e-10
2.56609e-10
2.56608e-10
2.56607e-10
2.56606e-10
2.56605e-10
2.56603e-10
2.56602e-10
2.56601e-10
2.56599e-10
2.56598e-10
2.56597e-10
2.56595e-10
2.56593e-10
2.56592e-10
2.5659e-10
2.56588e-10
2.56586e-10
2.56584e-10
2.56582e-10
2.5658e-10
2.56578e-10
2.56576e-10
2.56573e-10
2.56571e-10
2.56568e-10
2.56566e-10
2.56563e-10
2.5656e-10
2.56557e-10
2.56554e-10
2.5655e-10
2.56547e-10
2.56543e-10
2.56539e-10
2.56535e-10
2.56531e-10
2.56526e-10
2.56521e-10
2.56516e-10
2.56511e-10
2.56505e-10
2.56499e-10
2.56493e-10
2.56487e-10
2.5648e-10
2.56472e-10
2.56464e-10
2.56456e-10
2.56448e-10
2.56439e-10
2.56429e-10
2.5642e-10
2.56409e-10
2.56399e-10
2.56388e-10
2.56376e-10
2.56364e-10
2.56352e-10
2.56339e-10
2.56326e-10
2.56312e-10
2.56299e-10
2.56285e-10
2.5627e-10
2.56256e-10
2.56241e-10
2.56227e-10
2.56212e-10
2.56198e-10
2.56183e-10
2.56169e-10
2.56155e-10
2.56142e-10
2.56129e-10
2.56116e-10
2.56104e-10
2.56093e-10
2.56082e-10
2.56072e-10
2.56063e-10
2.56055e-10
2.56048e-10
2.56042e-10
2.56037e-10
2.56034e-10
2.56031e-10
2.5603e-10
2.5603e-10
2.5603e-10
2.5603e-10
2.56033e-10
2.56038e-10
2.56044e-10
2.56051e-10
2.56059e-10
2.56068e-10
2.56078e-10
2.56089e-10
2.561e-10
2.56113e-10
2.56125e-10
2.56139e-10
2.56152e-10
2.56166e-10
2.5618e-10
2.56194e-10
2.56208e-10
2.56222e-10
2.56235e-10
2.56248e-10
2.56261e-10
2.56274e-10
2.56286e-10
2.56298e-10
2.56309e-10
2.5632e-10
2.5633e-10
2.56339e-10
2.56348e-10
2.56357e-10
2.56365e-10
2.56372e-10
2.56379e-10
2.56385e-10
2.56392e-10
2.56397e-10
2.56402e-10
2.56407e-10
2.56412e-10
2.56416e-10
2.5642e-10
2.56424e-10
2.56428e-10
2.56431e-10
2.56435e-10
2.56438e-10
2.56441e-10
2.56444e-10
2.56447e-10
2.56451e-10
2.56454e-10
2.56457e-10
2.5646e-10
2.56463e-10
2.56466e-10
2.5647e-10
2.56473e-10
2.56476e-10
2.5648e-10
2.56483e-10
2.56487e-10
2.5649e-10
2.56494e-10
2.56497e-10
2.56501e-10
2.56505e-10
2.56509e-10
2.56513e-10
2.56516e-10
2.5652e-10
2.56524e-10
2.56528e-10
2.56532e-10
2.56536e-10
2.5654e-10
2.56544e-10
2.56547e-10
2.56551e-10
2.56555e-10
2.56559e-10
2.56562e-10
2.56566e-10
2.56569e-10
2.56573e-10
2.56576e-10
2.5658e-10
2.56583e-10
2.56586e-10
2.5659e-10
)
;

boundaryField
{
    inlet
    {
        type            calculated;
        value           uniform -1.13622e-09;
    }
    outlet
    {
        type            calculated;
        value           uniform 2.56593e-10;
    }
    emptyWalls
    {
        type            empty;
        value           nonuniform List<scalar> 0();
    }
}


// ************************************************************************* //
