/*--------------------------------*- C++ -*----------------------------------*\
  =========                 |
  \\      /  F ield         | OpenFOAM: The Open Source CFD Toolbox
   \\    /   O peration     | Website:  https://openfoam.org
    \\  /    A nd           | Version:  9
     \\/     M anipulation  |
\*---------------------------------------------------------------------------*/
FoamFile
{
    format      ascii;
    class       surfaceScalarField;
    location    "10750";
    object      phic;
}
// * * * * * * * * * * * * * * * * * * * * * * * * * * * * * * * * * * * * * //

dimensions      [0 2 0 0 0 0 0];

internalField   nonuniform List<scalar> 
999
(
5.20846e-15
2.36247e-14
5.52297e-14
9.84974e-14
1.5209e-13
2.14048e-13
2.81318e-13
3.50213e-13
4.17222e-13
4.80572e-13
5.47845e-13
6.70034e-13
1.08471e-12
2.55072e-12
1.02693e-11
1.94257e-11
2.11295e-11
2.17933e-11
2.21948e-11
2.24996e-11
2.27625e-11
2.30001e-11
2.32193e-11
2.343e-11
2.36302e-11
2.38202e-11
2.40013e-11
2.41757e-11
2.4346e-11
2.45147e-11
2.46845e-11
2.48586e-11
2.50476e-11
2.5249e-11
2.54645e-11
2.56995e-11
2.59632e-11
2.627e-11
2.66396e-11
2.70941e-11
2.76484e-11
2.82999e-11
2.90282e-11
2.98103e-11
3.063e-11
3.14772e-11
3.23451e-11
3.32291e-11
3.41262e-11
3.50341e-11
3.59512e-11
3.68764e-11
3.78087e-11
3.87474e-11
3.96921e-11
4.06422e-11
4.15974e-11
4.25574e-11
4.35219e-11
4.44909e-11
4.5464e-11
4.64411e-11
4.7422e-11
4.84067e-11
4.9395e-11
5.03868e-11
5.13821e-11
5.23806e-11
5.33824e-11
5.43874e-11
5.53954e-11
5.64065e-11
5.74205e-11
5.84374e-11
5.94571e-11
6.04795e-11
6.15047e-11
6.25325e-11
6.35628e-11
6.45958e-11
6.56312e-11
6.66692e-11
6.77096e-11
6.87524e-11
6.97975e-11
7.0845e-11
7.18948e-11
7.29468e-11
7.40011e-11
7.50575e-11
7.61162e-11
7.7177e-11
7.82399e-11
7.9305e-11
8.03721e-11
8.14413e-11
8.25126e-11
8.35859e-11
8.46613e-11
8.57388e-11
8.68183e-11
8.78998e-11
8.89834e-11
9.00691e-11
9.11568e-11
9.22464e-11
9.3338e-11
9.44314e-11
9.55267e-11
9.66236e-11
9.77224e-11
9.88229e-11
9.99251e-11
1.01029e-10
1.02135e-10
1.03243e-10
1.04352e-10
1.05463e-10
1.06575e-10
1.07688e-10
1.08802e-10
1.09917e-10
1.11032e-10
1.12147e-10
1.13262e-10
1.14378e-10
1.15493e-10
1.16609e-10
1.17725e-10
1.18841e-10
1.19959e-10
1.21077e-10
1.22198e-10
1.2332e-10
1.24445e-10
1.25573e-10
1.26705e-10
1.27842e-10
1.28983e-10
1.3013e-10
1.31282e-10
1.32441e-10
1.33605e-10
1.34776e-10
1.35952e-10
1.37133e-10
1.38319e-10
1.39508e-10
1.40701e-10
1.41896e-10
1.43093e-10
1.4429e-10
1.45488e-10
1.46686e-10
1.47884e-10
1.49081e-10
1.50277e-10
1.51473e-10
1.52669e-10
1.53864e-10
1.55059e-10
1.56255e-10
1.57451e-10
1.58648e-10
1.59846e-10
1.61045e-10
1.62246e-10
1.63449e-10
1.64654e-10
1.65862e-10
1.67071e-10
1.68283e-10
1.69497e-10
1.70714e-10
1.71933e-10
1.73155e-10
1.74379e-10
1.75605e-10
1.76833e-10
1.78064e-10
1.79297e-10
1.80533e-10
1.8177e-10
1.8301e-10
1.84251e-10
1.85495e-10
1.86741e-10
1.87989e-10
1.89239e-10
1.90491e-10
1.91744e-10
1.93e-10
1.94258e-10
1.95518e-10
1.9678e-10
1.98044e-10
1.9931e-10
2.00578e-10
2.01848e-10
2.0312e-10
2.04394e-10
2.05671e-10
2.06949e-10
2.08229e-10
2.09512e-10
2.10796e-10
2.12083e-10
2.13372e-10
2.14663e-10
2.15956e-10
2.17252e-10
2.18549e-10
2.19849e-10
2.21151e-10
2.22455e-10
2.23762e-10
2.2507e-10
2.26381e-10
2.27695e-10
2.2901e-10
2.30328e-10
2.31648e-10
2.32971e-10
2.34295e-10
2.35623e-10
2.36952e-10
2.38284e-10
2.39618e-10
2.40955e-10
2.42294e-10
2.43636e-10
2.4498e-10
2.46326e-10
2.47675e-10
2.49026e-10
2.5038e-10
2.51736e-10
2.53095e-10
2.54456e-10
2.5582e-10
2.57187e-10
2.58556e-10
2.59928e-10
2.61302e-10
2.6268e-10
2.64059e-10
2.65442e-10
2.66828e-10
2.68216e-10
2.69607e-10
2.71001e-10
2.72398e-10
2.73797e-10
2.752e-10
2.76605e-10
2.78014e-10
2.79425e-10
2.80839e-10
2.82256e-10
2.83676e-10
2.85099e-10
2.86525e-10
2.87954e-10
2.89385e-10
2.9082e-10
2.92257e-10
2.93697e-10
2.95139e-10
2.96584e-10
2.98031e-10
2.99481e-10
3.00932e-10
3.02386e-10
3.03841e-10
3.05299e-10
3.06757e-10
3.08218e-10
3.0968e-10
3.11143e-10
3.12608e-10
3.14075e-10
3.15544e-10
3.17014e-10
3.18487e-10
3.19962e-10
3.2144e-10
3.22921e-10
3.24406e-10
3.25895e-10
3.27388e-10
3.28887e-10
3.30391e-10
3.31901e-10
3.33418e-10
3.34943e-10
3.36475e-10
3.38016e-10
3.39565e-10
3.41123e-10
3.42691e-10
3.44268e-10
3.45855e-10
3.47451e-10
3.49057e-10
3.50671e-10
3.52295e-10
3.53926e-10
3.55565e-10
3.57212e-10
3.58865e-10
3.60524e-10
3.62188e-10
3.63857e-10
3.65531e-10
3.67209e-10
3.6889e-10
3.70574e-10
3.72262e-10
3.73952e-10
3.75646e-10
3.77342e-10
3.79042e-10
3.80744e-10
3.8245e-10
3.8416e-10
3.85873e-10
3.87591e-10
3.89313e-10
3.9104e-10
3.92772e-10
3.94509e-10
3.96253e-10
3.98002e-10
3.99757e-10
4.01519e-10
4.03288e-10
4.05063e-10
4.06846e-10
4.08636e-10
4.10433e-10
4.12238e-10
4.1405e-10
4.15871e-10
4.17699e-10
4.19536e-10
4.21381e-10
4.23234e-10
4.25095e-10
4.26965e-10
4.28843e-10
4.3073e-10
4.32626e-10
4.3453e-10
4.36443e-10
4.38365e-10
4.40296e-10
4.42236e-10
4.44186e-10
4.46145e-10
4.48113e-10
4.50091e-10
4.52079e-10
4.54076e-10
4.56083e-10
4.581e-10
4.60128e-10
4.62166e-10
4.64214e-10
4.66274e-10
4.68344e-10
4.70424e-10
4.72516e-10
4.7462e-10
4.76734e-10
4.78861e-10
4.81e-10
4.8315e-10
4.85313e-10
4.87488e-10
4.89675e-10
4.91875e-10
4.94088e-10
4.96314e-10
4.98553e-10
5.00806e-10
5.0307e-10
5.05349e-10
5.07639e-10
5.09943e-10
5.12259e-10
5.14588e-10
5.16929e-10
5.19281e-10
5.21643e-10
5.24013e-10
5.26391e-10
5.28774e-10
5.31162e-10
5.3355e-10
5.35935e-10
5.38312e-10
5.40675e-10
5.43021e-10
5.45339e-10
5.47624e-10
5.49866e-10
5.52053e-10
5.54176e-10
5.56221e-10
5.58179e-10
5.60037e-10
5.61785e-10
5.63415e-10
5.64917e-10
5.66288e-10
5.67526e-10
5.68635e-10
5.69625e-10
5.7051e-10
5.7132e-10
5.72099e-10
5.72928e-10
5.7394e-10
5.75363e-10
5.77596e-10
5.81319e-10
5.87683e-10
5.98546e-10
6.16647e-10
6.45384e-10
6.87456e-10
7.42113e-10
8.02763e-10
8.58907e-10
9.02394e-10
9.31403e-10
9.48781e-10
9.58502e-10
9.63723e-10
9.66466e-10
9.67884e-10
9.6861e-10
9.68977e-10
9.69158e-10
9.69242e-10
9.69276e-10
9.69284e-10
9.69277e-10
9.69263e-10
9.69243e-10
9.6922e-10
9.69194e-10
9.69165e-10
9.69134e-10
9.691e-10
9.69064e-10
9.69025e-10
9.68983e-10
9.68939e-10
9.68891e-10
9.68841e-10
9.68788e-10
9.68731e-10
9.68672e-10
9.6861e-10
9.68545e-10
9.68478e-10
9.68409e-10
9.68337e-10
9.68264e-10
9.68189e-10
9.68113e-10
9.68036e-10
9.67959e-10
9.67883e-10
9.67807e-10
9.67732e-10
9.6766e-10
9.6759e-10
9.67523e-10
9.67459e-10
9.674e-10
9.67346e-10
9.67297e-10
9.67255e-10
9.67219e-10
9.6719e-10
9.6717e-10
9.67157e-10
9.67152e-10
9.67151e-10
9.67152e-10
9.67159e-10
9.67184e-10
9.67218e-10
9.67258e-10
9.67305e-10
9.67358e-10
9.67417e-10
9.6748e-10
9.67548e-10
9.67619e-10
9.67693e-10
9.67769e-10
9.67846e-10
9.67925e-10
9.68003e-10
9.6808e-10
9.68156e-10
9.6823e-10
9.68302e-10
9.6837e-10
9.68436e-10
9.68498e-10
9.68557e-10
9.68612e-10
9.68663e-10
9.6871e-10
9.68753e-10
9.68793e-10
9.68828e-10
9.68861e-10
9.6889e-10
9.68917e-10
9.68941e-10
9.68962e-10
9.68981e-10
9.68998e-10
9.69013e-10
9.69027e-10
9.6904e-10
9.69052e-10
9.69063e-10
9.69073e-10
9.69083e-10
9.69093e-10
9.69103e-10
9.69112e-10
9.69122e-10
9.69132e-10
9.69143e-10
9.69153e-10
9.69165e-10
9.69176e-10
9.69188e-10
9.69201e-10
9.69214e-10
9.69227e-10
9.69241e-10
9.69255e-10
9.69269e-10
9.69284e-10
9.69299e-10
9.69314e-10
9.6933e-10
9.69346e-10
9.69361e-10
9.69377e-10
9.69393e-10
9.69408e-10
9.69424e-10
9.69439e-10
9.69455e-10
9.6947e-10
9.69485e-10
9.69499e-10
9.69514e-10
9.69528e-10
9.69541e-10
9.69554e-10
9.69567e-10
9.6958e-10
9.69592e-10
9.69603e-10
9.69614e-10
9.69625e-10
9.69635e-10
9.69645e-10
9.69654e-10
9.69663e-10
9.69671e-10
9.69678e-10
9.69686e-10
9.69692e-10
9.69699e-10
9.69705e-10
9.6971e-10
9.69715e-10
9.69719e-10
9.69724e-10
9.69727e-10
9.6973e-10
9.69733e-10
9.69736e-10
9.69738e-10
9.69739e-10
9.69741e-10
9.69741e-10
9.69742e-10
9.69742e-10
9.69742e-10
9.69742e-10
9.69742e-10
9.69741e-10
9.6974e-10
9.69738e-10
9.69736e-10
9.69734e-10
9.69732e-10
9.69729e-10
9.69726e-10
9.69723e-10
9.69719e-10
9.69716e-10
9.69712e-10
9.69707e-10
9.69703e-10
9.69698e-10
9.69693e-10
9.69687e-10
9.69682e-10
9.69676e-10
9.6967e-10
9.69664e-10
9.69657e-10
9.6965e-10
9.69643e-10
9.69636e-10
9.69629e-10
9.69621e-10
9.69613e-10
9.69605e-10
9.69596e-10
9.69588e-10
9.69579e-10
9.6957e-10
9.6956e-10
9.6955e-10
9.6954e-10
9.69529e-10
9.69519e-10
9.69507e-10
9.69495e-10
9.69483e-10
9.69471e-10
9.69457e-10
9.69443e-10
9.69429e-10
9.69413e-10
9.69397e-10
9.69379e-10
9.69361e-10
9.69341e-10
9.69321e-10
9.69299e-10
9.69276e-10
9.69251e-10
9.69225e-10
9.69197e-10
9.69167e-10
9.69136e-10
9.69102e-10
9.69066e-10
9.69029e-10
9.68989e-10
9.68947e-10
9.68903e-10
9.68856e-10
9.68808e-10
9.68757e-10
9.68704e-10
9.6865e-10
9.68593e-10
9.68535e-10
9.68476e-10
9.68415e-10
9.68353e-10
9.6829e-10
9.68227e-10
9.68164e-10
9.681e-10
9.68038e-10
9.67976e-10
9.67915e-10
9.67856e-10
9.67799e-10
9.67744e-10
9.67692e-10
9.67643e-10
9.67598e-10
9.67557e-10
9.6752e-10
9.67488e-10
9.6746e-10
9.67438e-10
9.67422e-10
9.67411e-10
9.67406e-10
9.67405e-10
9.67405e-10
9.67408e-10
9.67423e-10
9.67447e-10
9.67476e-10
9.6751e-10
9.6755e-10
9.67594e-10
9.67642e-10
9.67694e-10
9.67749e-10
9.67806e-10
9.67866e-10
9.67928e-10
9.6799e-10
9.68054e-10
9.68117e-10
9.6818e-10
9.68242e-10
9.68304e-10
9.68363e-10
9.68421e-10
9.68477e-10
9.6853e-10
9.68581e-10
9.68629e-10
9.68674e-10
9.68717e-10
9.68757e-10
9.68794e-10
9.68828e-10
9.6886e-10
9.68889e-10
9.68915e-10
9.6894e-10
9.68962e-10
9.68983e-10
9.69001e-10
9.69019e-10
9.69034e-10
9.69049e-10
9.69062e-10
9.69075e-10
9.69086e-10
9.69097e-10
9.69108e-10
9.69118e-10
9.69128e-10
9.69138e-10
9.69148e-10
9.69158e-10
9.69167e-10
9.69177e-10
9.69188e-10
9.69198e-10
9.69208e-10
9.69219e-10
9.6923e-10
9.69241e-10
9.69253e-10
9.69264e-10
9.69276e-10
9.69289e-10
9.69301e-10
9.69314e-10
9.69326e-10
9.69339e-10
9.69352e-10
9.69365e-10
9.69378e-10
9.69391e-10
9.69404e-10
9.69417e-10
9.6943e-10
9.69443e-10
9.69456e-10
9.69468e-10
9.69481e-10
9.69493e-10
9.69505e-10
9.69517e-10
9.69528e-10
9.6954e-10
9.6955e-10
9.69561e-10
9.69571e-10
9.69581e-10
9.6959e-10
9.69599e-10
9.69608e-10
9.69616e-10
9.69624e-10
9.69631e-10
9.69638e-10
9.69645e-10
9.69651e-10
9.69656e-10
9.69662e-10
9.69666e-10
9.69671e-10
9.69674e-10
9.69678e-10
9.69681e-10
9.69684e-10
9.69686e-10
9.69688e-10
9.69689e-10
9.6969e-10
9.69691e-10
9.69691e-10
9.69691e-10
9.69691e-10
9.69691e-10
9.6969e-10
9.69689e-10
9.69687e-10
9.69685e-10
9.69683e-10
9.69681e-10
9.69678e-10
9.69675e-10
9.69672e-10
9.69668e-10
9.69664e-10
9.6966e-10
9.69656e-10
9.69652e-10
9.69647e-10
9.69642e-10
9.69637e-10
9.69632e-10
9.69626e-10
9.69621e-10
9.69615e-10
9.69608e-10
9.69602e-10
9.69595e-10
9.69588e-10
9.69581e-10
9.69574e-10
9.69566e-10
9.69558e-10
9.6955e-10
9.69541e-10
9.69532e-10
9.69523e-10
9.69513e-10
9.69503e-10
9.69492e-10
9.69481e-10
9.69469e-10
9.69457e-10
9.69444e-10
9.69431e-10
9.69416e-10
9.69401e-10
9.69386e-10
9.69369e-10
9.69351e-10
9.69333e-10
9.69313e-10
9.69292e-10
9.6927e-10
9.69247e-10
9.69222e-10
9.69196e-10
9.69169e-10
9.6914e-10
9.6911e-10
9.69078e-10
9.69044e-10
9.69009e-10
9.68972e-10
9.68933e-10
9.68893e-10
9.68851e-10
9.68807e-10
9.68762e-10
9.68716e-10
9.68668e-10
9.68618e-10
9.68568e-10
9.68516e-10
9.68464e-10
9.6841e-10
9.68356e-10
9.68302e-10
9.68248e-10
9.68193e-10
9.68139e-10
9.68086e-10
9.68033e-10
9.67981e-10
9.67931e-10
9.67882e-10
9.67835e-10
9.67791e-10
9.67748e-10
9.67709e-10
9.67673e-10
9.6764e-10
9.6761e-10
9.67585e-10
9.67563e-10
9.67545e-10
9.67532e-10
9.67523e-10
9.67519e-10
9.67518e-10
9.67518e-10
9.6752e-10
9.67531e-10
9.67549e-10
9.67571e-10
9.67598e-10
9.67628e-10
9.67662e-10
9.67699e-10
9.6774e-10
9.67783e-10
9.67829e-10
9.67876e-10
9.67925e-10
9.67976e-10
9.68027e-10
9.68079e-10
9.6813e-10
9.68182e-10
9.68233e-10
9.68284e-10
9.68333e-10
9.68382e-10
9.68428e-10
9.68473e-10
9.68517e-10
9.68558e-10
9.68598e-10
9.68635e-10
9.6867e-10
9.68704e-10
9.68735e-10
9.68765e-10
9.68792e-10
9.68818e-10
9.68842e-10
9.68864e-10
9.68885e-10
9.68904e-10
9.68923e-10
9.6894e-10
9.68956e-10
9.68971e-10
9.68985e-10
9.68999e-10
9.69012e-10
9.69024e-10
9.69036e-10
9.69048e-10
9.6906e-10
9.69072e-10
9.69083e-10
9.69094e-10
9.69106e-10
9.69118e-10
9.69129e-10
9.69141e-10
9.69153e-10
9.69165e-10
9.69178e-10
9.6919e-10
9.69203e-10
9.69216e-10
9.6923e-10
9.69243e-10
9.69257e-10
9.6927e-10
9.69284e-10
9.69298e-10
9.69313e-10
9.69327e-10
9.69341e-10
9.69355e-10
9.6937e-10
9.69384e-10
9.69399e-10
9.69413e-10
9.69427e-10
9.69441e-10
9.69456e-10
9.69469e-10
9.69483e-10
9.69497e-10
9.69511e-10
9.69524e-10
9.69537e-10
9.6955e-10
9.69562e-10
9.69574e-10
9.69586e-10
9.69598e-10
)
;

boundaryField
{
    inlet
    {
        type            calculated;
        value           uniform 0;
    }
    outlet
    {
        type            calculated;
        value           uniform 9.69609e-10;
    }
    emptyWalls
    {
        type            empty;
        value           nonuniform List<scalar> 0();
    }
}


// ************************************************************************* //
