/*--------------------------------*- C++ -*----------------------------------*\
  =========                 |
  \\      /  F ield         | OpenFOAM: The Open Source CFD Toolbox
   \\    /   O peration     | Website:  https://openfoam.org
    \\  /    A nd           | Version:  9
     \\/     M anipulation  |
\*---------------------------------------------------------------------------*/
FoamFile
{
    format      ascii;
    class       volScalarField;
    location    "8900";
    object      Fa;
}
// * * * * * * * * * * * * * * * * * * * * * * * * * * * * * * * * * * * * * //

dimensions      [0 0 0 0 0 0 0];

internalField   nonuniform List<scalar> 
1000
(
0.194681
0.194794
0.194652
0.194654
0.194535
0.194466
0.194338
0.194238
0.194089
0.193907
0.193243
0.189523
0.164931
0.152738
0.150225
0.14914
0.148458
0.147958
0.147556
0.147254
0.146966
0.146758
0.146547
0.146372
0.146243
0.146057
0.145989
0.145824
0.145698
0.145577
0.145476
0.145381
0.145323
0.145295
0.145327
0.145361
0.14539
0.145412
0.145437
0.145479
0.145554
0.145675
0.145843
0.146049
0.146279
0.14652
0.146758
0.146986
0.147197
0.147384
0.147539
0.147652
0.147712
0.14771
0.147638
0.147495
0.147283
0.147012
0.146695
0.146349
0.145993
0.145645
0.145318
0.145026
0.144776
0.144572
0.144413
0.144298
0.14422
0.144174
0.144152
0.144148
0.144154
0.144164
0.144175
0.144182
0.144183
0.144177
0.144162
0.144139
0.144108
0.144071
0.144028
0.143979
0.143927
0.143873
0.143816
0.143758
0.143698
0.143639
0.143579
0.143519
0.143458
0.143398
0.143338
0.143279
0.14322
0.143161
0.143102
0.143044
0.142987
0.142931
0.142876
0.142822
0.142769
0.142717
0.142667
0.142618
0.142571
0.142525
0.14248
0.142437
0.142395
0.142353
0.142313
0.142274
0.142236
0.142199
0.142161
0.142126
0.14209
0.142056
0.142021
0.141989
0.141955
0.141924
0.141891
0.14186
0.141829
0.141799
0.141768
0.141739
0.141709
0.141681
0.141652
0.141624
0.141596
0.141569
0.141543
0.141516
0.141491
0.141466
0.141441
0.141417
0.141393
0.14137
0.141347
0.141325
0.141303
0.141281
0.14126
0.141238
0.141217
0.141196
0.141174
0.141153
0.141131
0.14111
0.141089
0.141069
0.14105
0.141032
0.141014
0.140998
0.140982
0.140968
0.140955
0.140944
0.140934
0.140926
0.140921
0.14092
0.140923
0.140932
0.140946
0.140968
0.140997
0.141035
0.141081
0.141136
0.141201
0.141273
0.141354
0.141442
0.141535
0.141633
0.141734
0.141835
0.141934
0.142029
0.142118
0.142196
0.142263
0.142315
0.142349
0.142364
0.142358
0.142329
0.142277
0.142203
0.142106
0.141988
0.141851
0.141698
0.141532
0.141355
0.141173
0.140987
0.140802
0.140621
0.140446
0.14028
0.140124
0.13998
0.139849
0.13973
0.139625
0.139531
0.13945
0.139379
0.139317
0.139264
0.139217
0.139177
0.13914
0.139107
0.139077
0.139047
0.139018
0.138989
0.138959
0.138928
0.138896
0.138862
0.138826
0.138788
0.138749
0.138707
0.138665
0.13862
0.138574
0.138527
0.138479
0.13843
0.13838
0.138329
0.138278
0.138226
0.138174
0.138121
0.138069
0.138016
0.137963
0.137911
0.137858
0.137805
0.137752
0.1377
0.137647
0.137595
0.137543
0.137491
0.13744
0.137388
0.137337
0.137287
0.137236
0.137187
0.137137
0.137088
0.13704
0.136992
0.136945
0.136899
0.136853
0.136807
0.136763
0.136719
0.136676
0.136633
0.136591
0.136549
0.136509
0.136468
0.136429
0.13639
0.136351
0.136313
0.136275
0.136238
0.136201
0.136164
0.136127
0.136091
0.136055
0.136019
0.135983
0.135948
0.135912
0.135877
0.135841
0.135806
0.135771
0.135736
0.135701
0.135666
0.135631
0.135596
0.135562
0.135527
0.135493
0.135459
0.135425
0.135391
0.135357
0.135323
0.13529
0.135256
0.135223
0.135189
0.135156
0.135123
0.13509
0.135058
0.135025
0.134993
0.134961
0.134929
0.134899
0.134868
0.134838
0.13481
0.134782
0.134755
0.13473
0.134707
0.134685
0.134666
0.13465
0.134637
0.134627
0.134621
0.134619
0.13462
0.134627
0.134638
0.134652
0.134671
0.13469
0.134711
0.134723
0.134727
0.134695
0.134627
0.134462
0.134206
0.133794
0.133334
0.132878
0.132607
0.132461
0.132446
0.132469
0.132523
0.132603
0.132665
0.13274
0.132815
0.132889
0.13296
0.133029
0.133092
0.133151
0.133204
0.133253
0.133293
0.133327
0.13335
0.133363
0.133367
0.133367
0.133366
0.133351
0.133319
0.13328
0.133234
0.13318
0.13312
0.133054
0.132982
0.132906
0.132827
0.132745
0.132661
0.132577
0.132494
0.132411
0.132331
0.132254
0.13218
0.13211
0.132044
0.131983
0.131927
0.131875
0.131829
0.131788
0.131751
0.131719
0.131691
0.131668
0.131648
0.131631
0.131618
0.131607
0.131598
0.131591
0.131586
0.131582
0.131579
0.131576
0.131574
0.131572
0.13157
0.131568
0.131566
0.131563
0.131559
0.131555
0.13155
0.131544
0.131538
0.131531
0.131523
0.131515
0.131506
0.131496
0.131485
0.131474
0.131463
0.131451
0.131439
0.131426
0.131413
0.131399
0.131386
0.131372
0.131358
0.131344
0.13133
0.131316
0.131301
0.131287
0.131273
0.131258
0.131244
0.13123
0.131215
0.131201
0.131187
0.131173
0.131159
0.131146
0.131132
0.131119
0.131105
0.131092
0.131079
0.131067
0.131054
0.131042
0.13103
0.131019
0.131008
0.130997
0.130986
0.130976
0.130966
0.130957
0.130948
0.130939
0.130931
0.130924
0.130917
0.13091
0.130904
0.130898
0.130893
0.130889
0.130885
0.130881
0.130878
0.130876
0.130874
0.130872
0.130871
0.130871
0.130871
0.130871
0.130871
0.130872
0.130873
0.130875
0.130878
0.130881
0.130884
0.130888
0.130892
0.130896
0.130901
0.130906
0.130911
0.130916
0.130922
0.130928
0.130935
0.130941
0.130948
0.130955
0.130963
0.13097
0.130978
0.130986
0.130995
0.131003
0.131012
0.131021
0.13103
0.13104
0.13105
0.13106
0.13107
0.131081
0.131092
0.131104
0.131116
0.131128
0.131142
0.131155
0.13117
0.131185
0.131201
0.131217
0.131235
0.131254
0.131274
0.131294
0.131317
0.13134
0.131366
0.131392
0.131421
0.131451
0.131484
0.131518
0.131554
0.131593
0.131633
0.131676
0.131722
0.131769
0.131819
0.131871
0.131925
0.131981
0.132039
0.132099
0.132161
0.132223
0.132287
0.132351
0.132416
0.132481
0.132546
0.13261
0.132673
0.132734
0.132793
0.132849
0.132902
0.132952
0.132998
0.133039
0.133075
0.133106
0.133131
0.13315
0.133163
0.133169
0.13317
0.13317
0.133168
0.133154
0.133128
0.133096
0.133058
0.133015
0.132966
0.132914
0.132857
0.132797
0.132735
0.132671
0.132605
0.132539
0.132473
0.132407
0.132343
0.13228
0.132219
0.13216
0.132104
0.132051
0.132002
0.131955
0.131912
0.131873
0.131837
0.131804
0.131774
0.131747
0.131723
0.131702
0.131683
0.131666
0.131651
0.131638
0.131626
0.131615
0.131606
0.131597
0.131589
0.131581
0.131574
0.131566
0.131559
0.131551
0.131543
0.131535
0.131526
0.131517
0.131507
0.131497
0.131486
0.131475
0.131464
0.131451
0.131439
0.131426
0.131412
0.131398
0.131384
0.131369
0.131354
0.131339
0.131324
0.131309
0.131293
0.131277
0.131262
0.131246
0.13123
0.131214
0.131199
0.131183
0.131167
0.131152
0.131137
0.131122
0.131106
0.131092
0.131077
0.131063
0.131048
0.131034
0.131021
0.131007
0.130994
0.130981
0.130969
0.130956
0.130944
0.130933
0.130922
0.130911
0.130901
0.130891
0.130882
0.130873
0.130864
0.130856
0.130849
0.130842
0.130836
0.13083
0.130825
0.130821
0.130817
0.130814
0.130812
0.13081
0.130809
0.130808
0.130808
0.130808
0.130808
0.13081
0.130813
0.130816
0.13082
0.130824
0.130829
0.130834
0.13084
0.130847
0.130854
0.130861
0.130869
0.130878
0.130886
0.130895
0.130905
0.130914
0.130924
0.130935
0.130945
0.130956
0.130968
0.130979
0.130991
0.131003
0.131015
0.131027
0.13104
0.131052
0.131065
0.131079
0.131092
0.131106
0.13112
0.131134
0.131149
0.131164
0.131179
0.131195
0.131211
0.131228
0.131245
0.131263
0.131282
0.131301
0.131321
0.131342
0.131364
0.131386
0.13141
0.131435
0.131461
0.131489
0.131517
0.131548
0.131579
0.131612
0.131647
0.131683
0.131721
0.13176
0.131801
0.131844
0.131888
0.131934
0.131981
0.13203
0.13208
0.132131
0.132183
0.132236
0.132289
0.132343
0.132397
0.132451
0.132505
0.132558
0.13261
0.132661
0.132711
0.132758
0.132804
0.132847
0.132886
0.132923
0.132957
0.132986
0.133012
0.133033
0.133049
0.133061
0.133067
0.13307
0.13307
0.133069
0.133063
0.133045
0.133022
0.132994
0.132962
0.132926
0.132885
0.132842
0.132795
0.132745
0.132694
0.13264
0.132585
0.13253
0.132474
0.132418
0.132363
0.132309
0.132255
0.132204
0.132154
0.132106
0.132061
0.132018
0.131977
0.131939
0.131904
0.131871
0.131841
0.131813
0.131787
0.131764
0.131743
0.131724
0.131706
0.13169
0.131676
0.131663
0.131651
0.13164
0.13163
0.131621
0.131612
0.131603
0.131594
0.131586
0.131578
0.131569
0.13156
0.131551
0.131542
0.131533
0.131523
0.131512
0.131502
0.13149
0.131479
0.131467
0.131454
0.131441
0.131428
0.131415
0.131401
0.131387
0.131373
0.131358
0.131344
0.131329
0.131314
0.131299
0.131284
0.13127
0.131255
0.13124
0.131226
0.131212
0.131198
0.131184
0.13117
0.131157
0.131144
0.131131
0.131118
0.131106
0.131094
0.131083
0.131072
0.131061
0.13105
0.13104
0.13103
0.131021
0.131012
0.131003
0.130995
0.130987
0.130979
0.130972
0.130965
0.130959
0.130953
0.130947
0.130942
0.130937
0.130932
0.130928
0.130925
0.130921
0.130918
0.130916
0.130914
0.130912
0.130911
0.13091
0.13091
0.13091
0.13091
0.130911
0.130912
0.130914
0.130917
0.13092
0.130923
0.130927
0.130931
0.130936
0.130941
0.130947
0.130953
0.13096
0.130967
0.130974
0.130982
0.13099
0.130998
0.131007
0.131016
0.131026
0.131036
0.131046
0.131057
0.131068
0.131079
0.131091
0.131102
0.131115
0.131127
0.13114
0.131153
0.131167
0.131181
0.131195
0.13121
0.131225
0.131241
0.131258
0.131274
0.131292
0.13131
0.131329
0.131349
0.131369
0.13139
0.131413
0.131436
0.13146
0.131485
0.131511
0.131538
0.131567
0.131597
0.131628
0.13166
0.131693
0.131728
0.131764
0.131801
0.13184
0.131879
0.13192
0.131961
0.132004
0.132047
0.132092
0.132136
0.132181
0.132228
0.132271
0.132321
0.13236
0.132413
0.132446
0.132503
0.13253
0.132587
0.132608
0.132665
0.132679
0.132745
)
;

boundaryField
{
    inlet
    {
        type            calculated;
        value           uniform 0.194831;
    }
    outlet
    {
        type            calculated;
        value           uniform 0.132737;
    }
    emptyWalls
    {
        type            empty;
    }
}


// ************************************************************************* //
