/*--------------------------------*- C++ -*----------------------------------*\
  =========                 |
  \\      /  F ield         | OpenFOAM: The Open Source CFD Toolbox
   \\    /   O peration     | Website:  https://openfoam.org
    \\  /    A nd           | Version:  9
     \\/     M anipulation  |
\*---------------------------------------------------------------------------*/
FoamFile
{
    format      ascii;
    class       volScalarField;
    location    "8900";
    object      krb;
}
// * * * * * * * * * * * * * * * * * * * * * * * * * * * * * * * * * * * * * //

dimensions      [0 0 0 0 0 0 0];

internalField   nonuniform List<scalar> 
1000
(
0.098218
0.099354
0.100815
0.102145
0.103485
0.104734
0.105903
0.106934
0.107939
0.109424
0.113795
0.132633
0.280352
0.457742
0.496162
0.509486
0.516472
0.520892
0.523957
0.526146
0.527748
0.528891
0.529717
0.530285
0.530647
0.530849
0.530866
0.53073
0.530379
0.52979
0.528892
0.527562
0.525605
0.522843
0.519278
0.515229
0.510957
0.506584
0.502179
0.497783
0.493418
0.489099
0.484837
0.480638
0.476506
0.472446
0.46846
0.464548
0.46071
0.456946
0.453255
0.449637
0.446091
0.442617
0.439215
0.435882
0.432615
0.429413
0.426271
0.423186
0.420153
0.417169
0.41423
0.411333
0.408477
0.405659
0.402879
0.400136
0.397429
0.394759
0.392124
0.389526
0.386964
0.384437
0.381946
0.37949
0.377068
0.37468
0.372325
0.370002
0.36771
0.365449
0.363217
0.361014
0.35884
0.356692
0.354571
0.352476
0.350407
0.348362
0.346341
0.344344
0.34237
0.340418
0.338488
0.33658
0.334693
0.332827
0.330981
0.329155
0.327348
0.32556
0.323791
0.32204
0.320307
0.318591
0.316893
0.315211
0.313546
0.311897
0.310264
0.308646
0.307044
0.305457
0.303885
0.302327
0.300784
0.299254
0.297738
0.296236
0.294747
0.293271
0.291808
0.290358
0.28892
0.287494
0.286081
0.284679
0.283289
0.28191
0.280542
0.279186
0.27784
0.276505
0.275181
0.273866
0.272563
0.271269
0.269985
0.26871
0.267446
0.266191
0.264945
0.263708
0.26248
0.261261
0.260051
0.258849
0.257656
0.256471
0.255294
0.254126
0.252966
0.251813
0.250668
0.249531
0.248402
0.24728
0.246165
0.245057
0.243957
0.242863
0.241777
0.240697
0.239624
0.238557
0.237497
0.236443
0.235396
0.234355
0.233319
0.23229
0.231266
0.230248
0.229235
0.228228
0.227226
0.226229
0.225237
0.22425
0.223268
0.222291
0.221318
0.220351
0.219388
0.21843
0.217477
0.216529
0.215586
0.214648
0.213715
0.212788
0.211866
0.21095
0.21004
0.209135
0.208236
0.207342
0.206455
0.205572
0.204696
0.203825
0.202958
0.202097
0.201241
0.200388
0.19954
0.198696
0.197856
0.197018
0.196184
0.195353
0.194525
0.193699
0.192876
0.192056
0.191238
0.190423
0.18961
0.1888
0.187993
0.187188
0.186386
0.185587
0.18479
0.183996
0.183205
0.182417
0.181631
0.180849
0.180069
0.179292
0.178517
0.177746
0.176977
0.17621
0.175447
0.174685
0.173927
0.17317
0.172417
0.171665
0.170916
0.170169
0.169425
0.168682
0.167942
0.167203
0.166467
0.165733
0.165001
0.164271
0.163542
0.162816
0.162091
0.161368
0.160647
0.159928
0.15921
0.158494
0.157779
0.157066
0.156355
0.155644
0.154936
0.154229
0.153523
0.152818
0.152115
0.151413
0.150712
0.150012
0.149314
0.148616
0.14792
0.147224
0.14653
0.145836
0.145143
0.144451
0.14376
0.14307
0.14238
0.141691
0.141003
0.140315
0.139628
0.138942
0.138256
0.13757
0.136884
0.136199
0.135515
0.13483
0.134146
0.133462
0.132778
0.132095
0.131411
0.130727
0.130043
0.129359
0.128675
0.12799
0.127306
0.126621
0.125936
0.12525
0.124564
0.123877
0.12319
0.122502
0.121814
0.121125
0.120435
0.119745
0.119054
0.118362
0.11767
0.116977
0.116284
0.11559
0.114897
0.114203
0.113509
0.112817
0.112125
0.111436
0.11075
0.110067
0.109389
0.108718
0.108056
0.107404
0.106766
0.106143
0.105541
0.10496
0.104406
0.103881
0.103389
0.102932
0.102511
0.102128
0.101781
0.101464
0.101171
0.100887
0.100583
0.100215
0.0997016
0.0989087
0.0976108
0.0954521
0.0919284
0.0864639
0.078713
0.069064
0.0589021
0.0500006
0.0434395
0.039224
0.0367603
0.0354018
0.034677
0.0342973
0.0341
0.0339981
0.0339454
0.0339181
0.0339039
0.0338964
0.0338925
0.0338904
0.0338892
0.0338884
0.033888
0.0338877
0.0338876
0.0338876
0.0338876
0.0338876
0.0338877
0.0338878
0.033888
0.0338883
0.0338885
0.0338889
0.0338892
0.0338896
0.03389
0.0338904
0.0338908
0.0338913
0.0338917
0.0338921
0.0338926
0.033893
0.0338934
0.0338938
0.0338942
0.0338945
0.0338949
0.0338951
0.0338954
0.0338957
0.0338959
0.0338961
0.0338962
0.0338964
0.0338965
0.0338966
0.0338967
0.0338968
0.0338968
0.0338969
0.0338969
0.0338969
0.0338969
0.0338969
0.0338969
0.0338969
0.0338968
0.0338968
0.0338968
0.0338967
0.0338967
0.0338966
0.0338966
0.0338965
0.0338964
0.0338964
0.0338963
0.0338963
0.0338962
0.0338962
0.0338961
0.0338961
0.033896
0.0338959
0.0338959
0.0338958
0.0338958
0.0338957
0.0338957
0.0338956
0.0338956
0.0338955
0.0338955
0.0338954
0.0338954
0.0338953
0.0338953
0.0338953
0.0338952
0.0338952
0.0338952
0.0338951
0.0338951
0.0338951
0.0338951
0.033895
0.033895
0.033895
0.033895
0.033895
0.033895
0.033895
0.033895
0.033895
0.033895
0.033895
0.033895
0.033895
0.033895
0.0338951
0.0338951
0.0338951
0.0338951
0.0338951
0.0338951
0.0338951
0.0338952
0.0338952
0.0338952
0.0338952
0.0338952
0.0338952
0.0338953
0.0338953
0.0338953
0.0338953
0.0338953
0.0338953
0.0338953
0.0338954
0.0338954
0.0338954
0.0338954
0.0338954
0.0338954
0.0338954
0.0338954
0.0338954
0.0338954
0.0338955
0.0338955
0.0338955
0.0338955
0.0338955
0.0338955
0.0338955
0.0338955
0.0338955
0.0338955
0.0338955
0.0338955
0.0338955
0.0338955
0.0338955
0.0338955
0.0338954
0.0338954
0.0338954
0.0338954
0.0338954
0.0338954
0.0338953
0.0338953
0.0338953
0.0338953
0.0338952
0.0338952
0.0338951
0.0338951
0.0338951
0.033895
0.0338949
0.0338949
0.0338948
0.0338947
0.0338947
0.0338946
0.0338945
0.0338944
0.0338943
0.0338942
0.0338941
0.033894
0.0338938
0.0338937
0.0338935
0.0338934
0.0338932
0.033893
0.0338928
0.0338926
0.0338924
0.0338922
0.0338919
0.0338917
0.0338914
0.0338911
0.0338908
0.0338905
0.0338902
0.0338899
0.0338896
0.0338893
0.0338889
0.0338886
0.0338882
0.0338879
0.0338875
0.0338872
0.0338869
0.0338865
0.0338862
0.0338859
0.0338856
0.0338853
0.033885
0.0338848
0.0338846
0.0338844
0.0338843
0.0338841
0.0338841
0.033884
0.033884
0.0338839
0.0338839
0.033884
0.0338841
0.0338842
0.0338844
0.0338846
0.0338849
0.0338852
0.0338855
0.0338859
0.0338863
0.0338867
0.0338871
0.0338875
0.0338879
0.0338883
0.0338887
0.0338892
0.0338896
0.03389
0.0338903
0.0338907
0.033891
0.0338913
0.0338916
0.0338918
0.0338921
0.0338923
0.0338925
0.0338926
0.0338927
0.0338929
0.033893
0.033893
0.0338931
0.0338932
0.0338932
0.0338933
0.0338933
0.0338933
0.0338934
0.0338934
0.0338934
0.0338934
0.0338934
0.0338935
0.0338935
0.0338935
0.0338935
0.0338935
0.0338936
0.0338936
0.0338936
0.0338937
0.0338937
0.0338938
0.0338938
0.0338939
0.033894
0.033894
0.0338941
0.0338941
0.0338942
0.0338943
0.0338943
0.0338944
0.0338945
0.0338946
0.0338946
0.0338947
0.0338948
0.0338948
0.0338949
0.033895
0.033895
0.0338951
0.0338952
0.0338953
0.0338953
0.0338954
0.0338955
0.0338955
0.0338956
0.0338956
0.0338957
0.0338958
0.0338958
0.0338959
0.0338959
0.033896
0.0338961
0.0338961
0.0338962
0.0338962
0.0338962
0.0338963
0.0338963
0.0338964
0.0338964
0.0338964
0.0338965
0.0338965
0.0338965
0.0338966
0.0338966
0.0338966
0.0338966
0.0338966
0.0338966
0.0338966
0.0338966
0.0338966
0.0338966
0.0338966
0.0338967
0.0338966
0.0338966
0.0338966
0.0338966
0.0338966
0.0338965
0.0338965
0.0338965
0.0338964
0.0338964
0.0338964
0.0338963
0.0338963
0.0338963
0.0338962
0.0338962
0.0338961
0.0338961
0.033896
0.033896
0.0338959
0.0338959
0.0338958
0.0338957
0.0338957
0.0338956
0.0338955
0.0338955
0.0338954
0.0338954
0.0338953
0.0338952
0.0338952
0.0338951
0.033895
0.0338949
0.0338948
0.0338948
0.0338947
0.0338946
0.0338945
0.0338944
0.0338943
0.0338942
0.0338941
0.033894
0.0338939
0.0338938
0.0338937
0.0338936
0.0338934
0.0338933
0.0338931
0.033893
0.0338928
0.0338927
0.0338925
0.0338923
0.0338921
0.0338919
0.0338917
0.0338915
0.0338913
0.033891
0.0338908
0.0338905
0.0338903
0.03389
0.0338897
0.0338895
0.0338892
0.0338889
0.0338886
0.0338883
0.033888
0.0338877
0.0338875
0.0338872
0.0338869
0.0338866
0.0338864
0.0338861
0.0338859
0.0338857
0.0338855
0.0338853
0.0338851
0.033885
0.0338849
0.0338848
0.0338847
0.0338847
0.0338847
0.0338847
0.0338848
0.0338848
0.0338849
0.033885
0.0338852
0.0338854
0.0338856
0.0338858
0.0338861
0.0338864
0.0338866
0.0338869
0.0338872
0.0338875
0.0338879
0.0338882
0.0338885
0.0338888
0.0338891
0.0338894
0.0338897
0.0338899
0.0338902
0.0338904
0.0338907
0.0338909
0.0338911
0.0338913
0.0338915
0.0338916
0.0338918
0.0338919
0.033892
0.0338921
0.0338922
0.0338923
0.0338924
0.0338924
0.0338925
0.0338926
0.0338926
0.0338926
0.0338927
0.0338927
0.0338928
0.0338928
0.0338928
0.0338929
0.0338929
0.0338929
0.033893
0.033893
0.0338931
0.0338931
0.0338932
0.0338932
0.0338933
0.0338933
0.0338934
0.0338934
0.0338935
0.0338936
0.0338936
0.0338937
0.0338938
0.0338939
0.0338939
0.033894
0.0338941
0.0338941
0.0338942
0.0338943
0.0338944
0.0338945
0.0338945
0.0338946
0.0338947
0.0338948
0.0338948
0.0338949
0.033895
0.0338951
0.0338951
0.0338952
0.0338952
0.0338953
0.0338954
0.0338954
0.0338955
0.0338955
0.0338956
0.0338956
0.0338957
0.0338957
0.0338958
0.0338958
0.0338959
0.0338959
0.033896
0.033896
0.033896
0.0338961
0.0338961
0.0338961
0.0338961
0.0338962
0.0338962
0.0338962
0.0338962
0.0338962
0.0338962
0.0338963
0.0338963
0.0338963
0.0338963
0.0338963
0.0338963
0.0338963
0.0338963
0.0338963
0.0338963
0.0338962
0.0338962
0.0338962
0.0338962
0.0338962
0.0338961
0.0338961
0.0338961
0.033896
0.033896
0.033896
0.0338959
0.0338959
0.0338959
0.0338958
0.0338957
0.0338957
0.0338956
0.0338956
0.0338956
0.0338955
0.0338955
0.0338954
0.0338953
0.0338952
0.0338952
0.0338951
0.0338951
0.033895
0.0338949
0.0338948
0.0338948
0.0338947
0.0338946
0.0338945
0.0338944
0.0338944
0.0338943
0.0338942
0.0338941
0.033894
0.0338939
0.0338938
0.0338936
0.0338935
0.0338934
0.0338933
0.0338931
0.033893
0.0338928
0.0338927
0.0338925
0.0338923
0.0338922
0.033892
0.0338918
0.0338916
0.0338914
0.0338912
0.033891
0.0338908
0.0338905
0.0338903
0.0338901
0.0338898
0.0338896
0.0338893
0.0338891
0.0338889
0.0338887
0.0338884
0.0338882
0.0338879
0.0338877
0.0338874
0.0338873
0.033887
0.033887
0.0338866
)
;

boundaryField
{
    inlet
    {
        type            calculated;
        value           uniform 0.0976562;
    }
    outlet
    {
        type            calculated;
        value           uniform 0.0338866;
    }
    emptyWalls
    {
        type            empty;
    }
}


// ************************************************************************* //
