/*--------------------------------*- C++ -*----------------------------------*\
  =========                 |
  \\      /  F ield         | OpenFOAM: The Open Source CFD Toolbox
   \\    /   O peration     | Website:  https://openfoam.org
    \\  /    A nd           | Version:  9
     \\/     M anipulation  |
\*---------------------------------------------------------------------------*/
FoamFile
{
    format      ascii;
    class       surfaceScalarField;
    location    "8900";
    object      phic;
}
// * * * * * * * * * * * * * * * * * * * * * * * * * * * * * * * * * * * * * //

dimensions      [0 2 0 0 0 0 0];

internalField   nonuniform List<scalar> 
999
(
8.01966e-15
3.66134e-14
8.32327e-14
1.44732e-13
2.1732e-13
2.95768e-13
3.7469e-13
4.53488e-13
5.57828e-13
8.38372e-13
1.80712e-12
6.22328e-12
1.81533e-11
2.08486e-11
2.17534e-11
2.2264e-11
2.26387e-11
2.29498e-11
2.32238e-11
2.34729e-11
2.37028e-11
2.39181e-11
2.41234e-11
2.43237e-11
2.4524e-11
2.47294e-11
2.49452e-11
2.51904e-11
2.54596e-11
2.57639e-11
2.61231e-11
2.65663e-11
2.71251e-11
2.78173e-11
2.86314e-11
2.95356e-11
3.05009e-11
3.15087e-11
3.25473e-11
3.36085e-11
3.4687e-11
3.57789e-11
3.68819e-11
3.79944e-11
3.91156e-11
4.02447e-11
4.13816e-11
4.25258e-11
4.36772e-11
4.48357e-11
4.60015e-11
4.71747e-11
4.83557e-11
4.95449e-11
5.07424e-11
5.19484e-11
5.31625e-11
5.43844e-11
5.56132e-11
5.68482e-11
5.80883e-11
5.93325e-11
6.058e-11
6.18301e-11
6.30823e-11
6.4336e-11
6.55913e-11
6.68482e-11
6.81068e-11
6.93673e-11
7.063e-11
7.18953e-11
7.31634e-11
7.44346e-11
7.57091e-11
7.69872e-11
7.82689e-11
7.95542e-11
8.08433e-11
8.21361e-11
8.34325e-11
8.47324e-11
8.60358e-11
8.73426e-11
8.86527e-11
8.99659e-11
9.12823e-11
9.26017e-11
9.39241e-11
9.52496e-11
9.65779e-11
9.79092e-11
9.92433e-11
1.0058e-10
1.0192e-10
1.03263e-10
1.04608e-10
1.05956e-10
1.07307e-10
1.08661e-10
1.10017e-10
1.11376e-10
1.12738e-10
1.14102e-10
1.15469e-10
1.16839e-10
1.18211e-10
1.19585e-10
1.20963e-10
1.22342e-10
1.23724e-10
1.25109e-10
1.26497e-10
1.27886e-10
1.29279e-10
1.30674e-10
1.32071e-10
1.33472e-10
1.34874e-10
1.3628e-10
1.37687e-10
1.39098e-10
1.40511e-10
1.41926e-10
1.43344e-10
1.44765e-10
1.46189e-10
1.47615e-10
1.49043e-10
1.50474e-10
1.51908e-10
1.53345e-10
1.54784e-10
1.56226e-10
1.5767e-10
1.59117e-10
1.60567e-10
1.62019e-10
1.63474e-10
1.64932e-10
1.66393e-10
1.67856e-10
1.69322e-10
1.7079e-10
1.72261e-10
1.73735e-10
1.75212e-10
1.76691e-10
1.78173e-10
1.79658e-10
1.81146e-10
1.82637e-10
1.8413e-10
1.85627e-10
1.87126e-10
1.88628e-10
1.90133e-10
1.91641e-10
1.93152e-10
1.94666e-10
1.96183e-10
1.97702e-10
1.99224e-10
2.00749e-10
2.02277e-10
2.03808e-10
2.05341e-10
2.06878e-10
2.08417e-10
2.09958e-10
2.11502e-10
2.13049e-10
2.14597e-10
2.16148e-10
2.177e-10
2.19254e-10
2.20809e-10
2.22366e-10
2.23924e-10
2.25483e-10
2.27043e-10
2.28605e-10
2.30168e-10
2.31733e-10
2.33299e-10
2.34868e-10
2.3644e-10
2.38015e-10
2.39593e-10
2.41176e-10
2.42765e-10
2.44359e-10
2.4596e-10
2.47568e-10
2.49184e-10
2.50808e-10
2.52442e-10
2.54085e-10
2.55737e-10
2.574e-10
2.59072e-10
2.60753e-10
2.62443e-10
2.64142e-10
2.65848e-10
2.67561e-10
2.6928e-10
2.71004e-10
2.72732e-10
2.74463e-10
2.76198e-10
2.77935e-10
2.79673e-10
2.81414e-10
2.83155e-10
2.84898e-10
2.86642e-10
2.88388e-10
2.90136e-10
2.91885e-10
2.93637e-10
2.95392e-10
2.97149e-10
2.9891e-10
3.00675e-10
3.02444e-10
3.04218e-10
3.05996e-10
3.0778e-10
3.09569e-10
3.11363e-10
3.13163e-10
3.14969e-10
3.16781e-10
3.18599e-10
3.20423e-10
3.22254e-10
3.24091e-10
3.25934e-10
3.27783e-10
3.29639e-10
3.31501e-10
3.3337e-10
3.35245e-10
3.37127e-10
3.39015e-10
3.4091e-10
3.42811e-10
3.44719e-10
3.46634e-10
3.48555e-10
3.50483e-10
3.52419e-10
3.54361e-10
3.5631e-10
3.58267e-10
3.6023e-10
3.62201e-10
3.6418e-10
3.66165e-10
3.68159e-10
3.7016e-10
3.72168e-10
3.74185e-10
3.76209e-10
3.78242e-10
3.80282e-10
3.82331e-10
3.84389e-10
3.86454e-10
3.88528e-10
3.90611e-10
3.92703e-10
3.94804e-10
3.96914e-10
3.99032e-10
4.01161e-10
4.03299e-10
4.05446e-10
4.07603e-10
4.0977e-10
4.11947e-10
4.14135e-10
4.16332e-10
4.18541e-10
4.2076e-10
4.2299e-10
4.25231e-10
4.27484e-10
4.29749e-10
4.32025e-10
4.34314e-10
4.36615e-10
4.38928e-10
4.41254e-10
4.43593e-10
4.45945e-10
4.48311e-10
4.50691e-10
4.53084e-10
4.55492e-10
4.57915e-10
4.60352e-10
4.62805e-10
4.65272e-10
4.67755e-10
4.70254e-10
4.7277e-10
4.75301e-10
4.7785e-10
4.80416e-10
4.82999e-10
4.85599e-10
4.88217e-10
4.90852e-10
4.93506e-10
4.96179e-10
4.98869e-10
5.01578e-10
5.04305e-10
5.07049e-10
5.0981e-10
5.12587e-10
5.15381e-10
5.18189e-10
5.21009e-10
5.23839e-10
5.26675e-10
5.29513e-10
5.3235e-10
5.35177e-10
5.37989e-10
5.40776e-10
5.43526e-10
5.46226e-10
5.48863e-10
5.51422e-10
5.53888e-10
5.56242e-10
5.5847e-10
5.60556e-10
5.62489e-10
5.64262e-10
5.65877e-10
5.67345e-10
5.68692e-10
5.69971e-10
5.71274e-10
5.72767e-10
5.74739e-10
5.77686e-10
5.8246e-10
5.90466e-10
6.03913e-10
6.25877e-10
6.59728e-10
7.07175e-10
7.65268e-10
8.25299e-10
8.7692e-10
9.14387e-10
9.38169e-10
9.51944e-10
9.59463e-10
9.63429e-10
9.65461e-10
9.66473e-10
9.66956e-10
9.67167e-10
9.67239e-10
9.67242e-10
9.67214e-10
9.67172e-10
9.67125e-10
9.67082e-10
9.67043e-10
9.67013e-10
9.66994e-10
9.66984e-10
9.66982e-10
9.66982e-10
9.66988e-10
9.67018e-10
9.67058e-10
9.67105e-10
9.67161e-10
9.67224e-10
9.67294e-10
9.67371e-10
9.67453e-10
9.67539e-10
9.67629e-10
9.67721e-10
9.67814e-10
9.67907e-10
9.67999e-10
9.68089e-10
9.68177e-10
9.68261e-10
9.68341e-10
9.68416e-10
9.68487e-10
9.68552e-10
9.68612e-10
9.68666e-10
9.68715e-10
9.68758e-10
9.68796e-10
9.68829e-10
9.68857e-10
9.68882e-10
9.68902e-10
9.68919e-10
9.68932e-10
9.68943e-10
9.68952e-10
9.68959e-10
9.68964e-10
9.68968e-10
9.68972e-10
9.68974e-10
9.68977e-10
9.68979e-10
9.68982e-10
9.68985e-10
9.68989e-10
9.68993e-10
9.68997e-10
9.69003e-10
9.6901e-10
9.69017e-10
9.69025e-10
9.69034e-10
9.69044e-10
9.69054e-10
9.69066e-10
9.69078e-10
9.6909e-10
9.69104e-10
9.69118e-10
9.69132e-10
9.69147e-10
9.69162e-10
9.69178e-10
9.69194e-10
9.6921e-10
9.69226e-10
9.69242e-10
9.69259e-10
9.69276e-10
9.69292e-10
9.69309e-10
9.69326e-10
9.69343e-10
9.69359e-10
9.69376e-10
9.69393e-10
9.69409e-10
9.69426e-10
9.69442e-10
9.69458e-10
9.69474e-10
9.6949e-10
9.69506e-10
9.69521e-10
9.69536e-10
9.69551e-10
9.69566e-10
9.6958e-10
9.69594e-10
9.69608e-10
9.69622e-10
9.69635e-10
9.69647e-10
9.69659e-10
9.69671e-10
9.69683e-10
9.69693e-10
9.69704e-10
9.69714e-10
9.69723e-10
9.69732e-10
9.6974e-10
9.69748e-10
9.69755e-10
9.69762e-10
9.69768e-10
9.69773e-10
9.69778e-10
9.69782e-10
9.69786e-10
9.69789e-10
9.69792e-10
9.69794e-10
9.69795e-10
9.69796e-10
9.69796e-10
9.69796e-10
9.69796e-10
9.69795e-10
9.69793e-10
9.69791e-10
9.69788e-10
9.69785e-10
9.69782e-10
9.69778e-10
9.69773e-10
9.69768e-10
9.69763e-10
9.69758e-10
9.69752e-10
9.69746e-10
9.69739e-10
9.69732e-10
9.69725e-10
9.69717e-10
9.6971e-10
9.69702e-10
9.69693e-10
9.69685e-10
9.69676e-10
9.69667e-10
9.69658e-10
9.69648e-10
9.69638e-10
9.69628e-10
9.69618e-10
9.69607e-10
9.69596e-10
9.69585e-10
9.69573e-10
9.69561e-10
9.69549e-10
9.69536e-10
9.69523e-10
9.69509e-10
9.69495e-10
9.6948e-10
9.69464e-10
9.69448e-10
9.6943e-10
9.69412e-10
9.69393e-10
9.69373e-10
9.69351e-10
9.69329e-10
9.69305e-10
9.69279e-10
9.69252e-10
9.69223e-10
9.69192e-10
9.6916e-10
9.69125e-10
9.69088e-10
9.69049e-10
9.69007e-10
9.68963e-10
9.68917e-10
9.68868e-10
9.68816e-10
9.68762e-10
9.68706e-10
9.68647e-10
9.68585e-10
9.68522e-10
9.68457e-10
9.68389e-10
9.6832e-10
9.6825e-10
9.68179e-10
9.68107e-10
9.68035e-10
9.67963e-10
9.67891e-10
9.67821e-10
9.67752e-10
9.67686e-10
9.67622e-10
9.67561e-10
9.67504e-10
9.67451e-10
9.67403e-10
9.6736e-10
9.67323e-10
9.67292e-10
9.67268e-10
9.6725e-10
9.6724e-10
9.67236e-10
9.67236e-10
9.67237e-10
9.67243e-10
9.67269e-10
9.67301e-10
9.6734e-10
9.67385e-10
9.67436e-10
9.67492e-10
9.67553e-10
9.67617e-10
9.67684e-10
9.67754e-10
9.67826e-10
9.67899e-10
9.67972e-10
9.68045e-10
9.68116e-10
9.68187e-10
9.68255e-10
9.68321e-10
9.68384e-10
9.68443e-10
9.685e-10
9.68553e-10
9.68602e-10
9.68647e-10
9.68689e-10
9.68727e-10
9.68762e-10
9.68793e-10
9.68822e-10
9.68847e-10
9.68869e-10
9.68889e-10
9.68907e-10
9.68922e-10
9.68936e-10
9.68949e-10
9.6896e-10
9.6897e-10
9.6898e-10
9.68989e-10
9.68998e-10
9.69006e-10
9.69015e-10
9.69023e-10
9.69032e-10
9.69041e-10
9.69051e-10
9.69061e-10
9.69072e-10
9.69083e-10
9.69094e-10
9.69107e-10
9.6912e-10
9.69133e-10
9.69147e-10
9.69161e-10
9.69176e-10
9.69191e-10
9.69207e-10
9.69223e-10
9.6924e-10
9.69257e-10
9.69274e-10
9.69291e-10
9.69308e-10
9.69326e-10
9.69343e-10
9.69361e-10
9.69378e-10
9.69396e-10
9.69413e-10
9.69431e-10
9.69448e-10
9.69466e-10
9.69483e-10
9.695e-10
9.69517e-10
9.69533e-10
9.6955e-10
9.69566e-10
9.69582e-10
9.69598e-10
9.69613e-10
9.69628e-10
9.69643e-10
9.69658e-10
9.69672e-10
9.69686e-10
9.69699e-10
9.69712e-10
9.69725e-10
9.69737e-10
9.69749e-10
9.6976e-10
9.69771e-10
9.69781e-10
9.69791e-10
9.698e-10
9.69809e-10
9.69816e-10
9.69824e-10
9.6983e-10
9.69836e-10
9.69841e-10
9.69846e-10
9.6985e-10
9.69853e-10
9.69855e-10
9.69857e-10
9.69858e-10
9.69858e-10
9.69858e-10
9.69858e-10
9.69857e-10
9.69855e-10
9.69851e-10
9.69848e-10
9.69843e-10
9.69838e-10
9.69832e-10
9.69826e-10
9.69819e-10
9.69811e-10
9.69803e-10
9.69795e-10
9.69786e-10
9.69776e-10
9.69766e-10
9.69756e-10
9.69745e-10
9.69734e-10
9.69723e-10
9.69711e-10
9.69699e-10
9.69687e-10
9.69674e-10
9.69662e-10
9.69649e-10
9.69635e-10
9.69622e-10
9.69608e-10
9.69594e-10
9.69579e-10
9.69565e-10
9.6955e-10
9.69535e-10
9.69519e-10
9.69504e-10
9.69487e-10
9.69471e-10
9.69454e-10
9.69437e-10
9.69419e-10
9.69401e-10
9.69382e-10
9.69362e-10
9.69342e-10
9.69321e-10
9.69299e-10
9.69276e-10
9.69253e-10
9.69228e-10
9.69202e-10
9.69175e-10
9.69146e-10
9.69117e-10
9.69085e-10
9.69053e-10
9.69018e-10
9.68983e-10
9.68945e-10
9.68906e-10
9.68864e-10
9.68822e-10
9.68777e-10
9.6873e-10
9.68682e-10
9.68632e-10
9.6858e-10
9.68527e-10
9.68473e-10
9.68417e-10
9.68359e-10
9.68301e-10
9.68242e-10
9.68183e-10
9.68123e-10
9.68062e-10
9.68003e-10
9.67943e-10
9.67885e-10
9.67827e-10
9.67772e-10
9.67718e-10
9.67666e-10
9.67617e-10
9.67571e-10
9.67529e-10
9.6749e-10
9.67455e-10
9.67424e-10
9.67398e-10
9.67377e-10
9.67362e-10
9.67352e-10
9.67347e-10
9.67345e-10
9.67345e-10
9.67348e-10
9.67363e-10
9.67385e-10
9.67413e-10
9.67446e-10
9.67484e-10
9.67527e-10
9.67573e-10
9.67624e-10
9.67677e-10
9.67733e-10
9.67791e-10
9.67851e-10
9.67912e-10
9.67974e-10
9.68036e-10
9.68098e-10
9.68158e-10
9.68218e-10
9.68276e-10
9.68332e-10
9.68386e-10
9.68438e-10
9.68487e-10
9.68534e-10
9.68577e-10
9.68618e-10
9.68656e-10
9.68691e-10
9.68723e-10
9.68753e-10
9.6878e-10
9.68805e-10
9.68828e-10
9.68848e-10
9.68866e-10
9.68883e-10
9.68898e-10
9.68912e-10
9.68925e-10
9.68937e-10
9.68948e-10
9.68958e-10
9.68968e-10
9.68978e-10
9.68987e-10
9.68997e-10
9.69006e-10
9.69016e-10
9.69026e-10
9.69036e-10
9.69046e-10
9.69057e-10
9.69068e-10
9.6908e-10
9.69092e-10
9.69105e-10
9.69118e-10
9.69132e-10
9.69146e-10
9.69161e-10
9.69175e-10
9.6919e-10
9.69206e-10
9.69222e-10
9.69238e-10
9.69254e-10
9.6927e-10
9.69287e-10
9.69303e-10
9.6932e-10
9.69336e-10
9.69352e-10
9.69369e-10
9.69385e-10
9.69401e-10
9.69417e-10
9.69432e-10
9.69447e-10
9.69462e-10
9.69477e-10
9.69491e-10
9.69505e-10
9.69519e-10
9.69532e-10
9.69545e-10
9.69558e-10
9.6957e-10
9.69582e-10
9.69594e-10
9.69605e-10
9.69615e-10
9.69626e-10
9.69636e-10
9.69645e-10
9.69654e-10
9.69663e-10
9.69671e-10
9.69679e-10
9.69686e-10
9.69693e-10
9.697e-10
9.69706e-10
9.69711e-10
9.69716e-10
9.69721e-10
9.69726e-10
9.6973e-10
9.69733e-10
9.69736e-10
9.69739e-10
9.69741e-10
9.69742e-10
9.69743e-10
9.69743e-10
9.69744e-10
9.69744e-10
9.69743e-10
9.69742e-10
9.6974e-10
9.69738e-10
9.69735e-10
9.69731e-10
9.69727e-10
9.69723e-10
9.69718e-10
9.69712e-10
9.69706e-10
9.697e-10
9.69692e-10
9.69685e-10
9.69677e-10
9.69669e-10
9.6966e-10
9.6965e-10
9.69641e-10
9.69631e-10
9.6962e-10
9.69609e-10
9.69598e-10
9.69587e-10
9.69575e-10
9.69562e-10
9.6955e-10
9.69537e-10
9.69523e-10
9.6951e-10
9.69495e-10
9.69481e-10
9.69466e-10
9.69451e-10
9.69435e-10
9.69419e-10
9.69402e-10
9.69385e-10
9.69367e-10
9.69348e-10
9.69329e-10
9.69309e-10
9.69289e-10
9.69267e-10
9.69245e-10
9.69222e-10
9.69198e-10
9.69173e-10
9.69146e-10
9.69119e-10
9.69091e-10
9.69061e-10
9.6903e-10
9.68997e-10
9.68963e-10
9.68928e-10
9.68892e-10
9.68854e-10
9.68815e-10
9.68774e-10
9.68732e-10
9.68689e-10
9.68644e-10
9.68599e-10
9.68552e-10
9.68504e-10
9.68455e-10
9.68406e-10
9.68356e-10
9.68305e-10
9.68255e-10
9.68204e-10
9.68155e-10
9.68103e-10
9.68055e-10
9.68005e-10
9.67959e-10
9.67912e-10
9.67868e-10
9.67825e-10
9.67786e-10
9.67747e-10
)
;

boundaryField
{
    inlet
    {
        type            calculated;
        value           uniform 0;
    }
    outlet
    {
        type            calculated;
        value           uniform 9.67714e-10;
    }
    emptyWalls
    {
        type            empty;
        value           nonuniform List<scalar> 0();
    }
}


// ************************************************************************* //
