/*--------------------------------*- C++ -*----------------------------------*\
  =========                 |
  \\      /  F ield         | OpenFOAM: The Open Source CFD Toolbox
   \\    /   O peration     | Website:  https://openfoam.org
    \\  /    A nd           | Version:  9
     \\/     M anipulation  |
\*---------------------------------------------------------------------------*/
FoamFile
{
    format      ascii;
    class       volScalarField;
    location    "8900";
    object      Sa;
}
// * * * * * * * * * * * * * * * * * * * * * * * * * * * * * * * * * * * * * //

dimensions      [0 0 0 0 0 0 0];

internalField   nonuniform List<scalar> 
1000
(
0.548614
0.545637
0.542014
0.538683
0.535434
0.532417
0.529656
0.527236
0.524927
0.521528
0.511825
0.473846
0.269446
0.100072
0.0664553
0.0543099
0.0476006
0.0430978
0.0397574
0.0371687
0.0350869
0.0334063
0.0320018
0.0308172
0.0297883
0.0288721
0.0280572
0.0272858
0.0265695
0.0259268
0.0253538
0.0248523
0.0244491
0.024182
0.0240552
0.0239729
0.0238856
0.0237954
0.0237045
0.0236151
0.0235293
0.0234484
0.0233727
0.0233016
0.0232339
0.0231682
0.0231036
0.0230393
0.0229746
0.0229091
0.0228419
0.0227723
0.0226993
0.0226222
0.0225403
0.0224534
0.0223619
0.0222666
0.0221686
0.0220694
0.0219705
0.0218734
0.0217793
0.0216891
0.0216035
0.0215228
0.0214468
0.0213753
0.0213079
0.0212439
0.0211827
0.0211237
0.0210664
0.0210101
0.0209546
0.0208995
0.0208446
0.0207898
0.0207349
0.02068
0.0206251
0.0205703
0.0205157
0.0204612
0.0204071
0.0203533
0.0202999
0.0202469
0.0201944
0.0201424
0.0200909
0.0200399
0.0199894
0.0199394
0.01989
0.019841
0.0197924
0.0197444
0.0196969
0.0196498
0.0196032
0.0195572
0.0195116
0.0194665
0.0194219
0.0193777
0.0193341
0.019291
0.0192483
0.0192061
0.0191644
0.0191231
0.0190822
0.0190418
0.0190017
0.0189621
0.0189228
0.018884
0.0188454
0.0188073
0.0187695
0.0187321
0.0186949
0.0186582
0.0186216
0.0185855
0.0185496
0.0185141
0.0184788
0.0184439
0.0184091
0.0183748
0.0183406
0.0183068
0.0182732
0.0182398
0.0182068
0.018174
0.0181415
0.0181092
0.0180772
0.0180454
0.0180139
0.0179826
0.0179516
0.0179208
0.0178902
0.0178599
0.0178298
0.0177999
0.0177702
0.0177407
0.0177114
0.0176822
0.0176533
0.0176245
0.0175959
0.0175675
0.0175393
0.0175113
0.0174835
0.017456
0.0174286
0.0174016
0.0173747
0.0173481
0.0173217
0.0172955
0.0172697
0.0172441
0.0172189
0.017194
0.0171696
0.0171457
0.0171224
0.0170996
0.0170775
0.0170561
0.0170355
0.0170155
0.0169963
0.0169777
0.0169598
0.0169425
0.0169257
0.0169093
0.0168931
0.0168771
0.0168611
0.0168449
0.0168283
0.0168112
0.0167933
0.0167746
0.0167548
0.0167338
0.0167116
0.0166879
0.0166629
0.0166364
0.0166085
0.0165794
0.0165492
0.016518
0.0164861
0.0164536
0.0164208
0.016388
0.0163553
0.0163229
0.0162911
0.01626
0.0162296
0.0162002
0.0161716
0.016144
0.0161173
0.0160916
0.0160666
0.0160425
0.016019
0.0159962
0.0159739
0.0159521
0.0159306
0.0159094
0.0158885
0.0158677
0.015847
0.0158264
0.0158058
0.0157852
0.0157646
0.0157439
0.0157232
0.0157025
0.0156817
0.0156609
0.01564
0.0156191
0.0155982
0.0155773
0.0155564
0.0155354
0.0155145
0.0154936
0.0154728
0.015452
0.0154312
0.0154104
0.0153897
0.0153691
0.0153485
0.015328
0.0153075
0.0152871
0.0152667
0.0152464
0.0152262
0.015206
0.0151859
0.0151659
0.0151459
0.015126
0.0151062
0.0150865
0.0150668
0.0150472
0.0150276
0.0150082
0.0149888
0.0149695
0.0149503
0.0149312
0.0149121
0.0148931
0.0148742
0.0148554
0.0148367
0.014818
0.0147994
0.0147809
0.0147625
0.0147441
0.0147258
0.0147076
0.0146894
0.0146713
0.0146532
0.0146352
0.0146173
0.0145994
0.0145815
0.0145637
0.0145459
0.0145281
0.0145104
0.0144927
0.014475
0.0144574
0.0144398
0.0144222
0.0144047
0.0143871
0.0143696
0.0143521
0.0143347
0.0143172
0.0142998
0.0142824
0.014265
0.0142476
0.0142303
0.014213
0.0141957
0.0141784
0.0141611
0.0141439
0.0141267
0.0141095
0.0140923
0.0140752
0.0140581
0.014041
0.014024
0.0140071
0.0139902
0.0139735
0.0139568
0.0139403
0.013924
0.013908
0.0138922
0.0138767
0.0138616
0.0138471
0.013833
0.0138196
0.013807
0.0137951
0.0137842
0.0137742
0.0137653
0.0137574
0.0137505
0.0137446
0.0137393
0.0137344
0.0137292
0.0137228
0.0137128
0.0136966
0.0136681
0.0136199
0.0135393
0.013417
0.0132472
0.0130514
0.0128661
0.0127317
0.0126518
0.0126137
0.0125971
0.0125915
0.0125917
0.012593
0.012596
0.0125995
0.0126032
0.0126069
0.0126106
0.0126139
0.0126171
0.0126199
0.0126225
0.0126247
0.0126265
0.0126277
0.0126285
0.0126287
0.0126287
0.0126285
0.0126278
0.0126261
0.012624
0.0126215
0.0126186
0.0126154
0.0126118
0.012608
0.0126039
0.0125996
0.0125952
0.0125907
0.0125862
0.0125817
0.0125773
0.012573
0.0125688
0.0125648
0.012561
0.0125575
0.0125542
0.0125512
0.0125484
0.0125459
0.0125437
0.0125417
0.01254
0.0125385
0.0125372
0.0125361
0.0125352
0.0125345
0.0125339
0.0125334
0.012533
0.0125328
0.0125325
0.0125324
0.0125322
0.0125321
0.012532
0.0125319
0.0125318
0.0125317
0.0125315
0.0125313
0.0125311
0.0125308
0.0125305
0.0125302
0.0125298
0.0125294
0.0125289
0.0125284
0.0125279
0.0125273
0.0125267
0.0125261
0.0125254
0.0125248
0.0125241
0.0125234
0.0125227
0.0125219
0.0125212
0.0125204
0.0125197
0.0125189
0.0125181
0.0125174
0.0125166
0.0125158
0.012515
0.0125143
0.0125135
0.0125127
0.012512
0.0125112
0.0125104
0.0125097
0.0125089
0.0125082
0.0125075
0.0125068
0.0125061
0.0125054
0.0125047
0.012504
0.0125034
0.0125027
0.0125021
0.0125015
0.0125009
0.0125003
0.0124998
0.0124992
0.0124987
0.0124983
0.0124978
0.0124974
0.012497
0.0124966
0.0124962
0.0124959
0.0124956
0.0124953
0.0124951
0.0124948
0.0124947
0.0124945
0.0124944
0.0124942
0.0124942
0.0124941
0.0124941
0.0124941
0.0124941
0.0124941
0.0124941
0.0124942
0.0124943
0.0124945
0.0124946
0.0124948
0.012495
0.0124952
0.0124955
0.0124957
0.012496
0.0124963
0.0124966
0.0124969
0.0124972
0.0124976
0.0124979
0.0124983
0.0124987
0.0124991
0.0124995
0.0124999
0.0125003
0.0125008
0.0125012
0.0125017
0.0125022
0.0125027
0.0125032
0.0125038
0.0125043
0.0125049
0.0125055
0.0125061
0.0125067
0.0125073
0.012508
0.0125087
0.0125095
0.0125103
0.0125111
0.0125119
0.0125128
0.0125138
0.0125148
0.0125159
0.012517
0.0125182
0.0125195
0.0125208
0.0125223
0.0125238
0.0125255
0.0125272
0.0125291
0.012531
0.0125331
0.0125353
0.0125376
0.0125401
0.0125426
0.0125453
0.0125481
0.012551
0.0125541
0.0125572
0.0125604
0.0125637
0.0125671
0.0125705
0.012574
0.0125775
0.012581
0.0125845
0.0125879
0.0125913
0.0125946
0.0125978
0.0126008
0.0126037
0.0126063
0.0126088
0.012611
0.0126129
0.0126146
0.012616
0.012617
0.0126177
0.012618
0.0126181
0.012618
0.0126179
0.0126172
0.0126158
0.0126141
0.012612
0.0126097
0.0126071
0.0126043
0.0126012
0.012598
0.0125947
0.0125912
0.0125877
0.0125841
0.0125805
0.012577
0.0125735
0.0125701
0.0125669
0.0125637
0.0125607
0.0125579
0.0125552
0.0125527
0.0125504
0.0125482
0.0125463
0.0125445
0.0125429
0.0125414
0.0125401
0.012539
0.012538
0.0125371
0.0125362
0.0125355
0.0125349
0.0125343
0.0125338
0.0125333
0.0125329
0.0125325
0.0125321
0.0125317
0.0125312
0.0125308
0.0125304
0.01253
0.0125295
0.012529
0.0125285
0.0125279
0.0125274
0.0125267
0.0125261
0.0125255
0.0125248
0.0125241
0.0125233
0.0125226
0.0125218
0.012521
0.0125202
0.0125194
0.0125186
0.0125177
0.0125169
0.0125161
0.0125152
0.0125144
0.0125135
0.0125127
0.0125118
0.012511
0.0125101
0.0125093
0.0125085
0.0125076
0.0125068
0.012506
0.0125052
0.0125045
0.0125037
0.0125029
0.0125022
0.0125015
0.0125008
0.0125001
0.0124994
0.0124987
0.0124981
0.0124975
0.0124969
0.0124963
0.0124957
0.0124952
0.0124947
0.0124942
0.0124937
0.0124933
0.0124929
0.0124926
0.0124922
0.0124919
0.0124916
0.0124914
0.0124912
0.012491
0.0124909
0.0124908
0.0124907
0.0124907
0.0124907
0.0124907
0.0124907
0.0124908
0.012491
0.0124911
0.0124913
0.0124916
0.0124918
0.0124921
0.0124925
0.0124928
0.0124932
0.0124936
0.012494
0.0124945
0.0124949
0.0124954
0.0124959
0.0124965
0.012497
0.0124976
0.0124981
0.0124987
0.0124993
0.0124999
0.0125006
0.0125012
0.0125019
0.0125025
0.0125032
0.0125039
0.0125046
0.0125053
0.0125061
0.0125068
0.0125076
0.0125083
0.0125091
0.0125099
0.0125108
0.0125116
0.0125125
0.0125134
0.0125143
0.0125153
0.0125163
0.0125173
0.0125184
0.0125196
0.0125207
0.012522
0.0125232
0.0125246
0.012526
0.0125275
0.012529
0.0125307
0.0125324
0.0125342
0.012536
0.012538
0.01254
0.0125421
0.0125444
0.0125467
0.012549
0.0125515
0.0125541
0.0125567
0.0125594
0.0125621
0.0125649
0.0125678
0.0125706
0.0125736
0.0125765
0.0125794
0.0125823
0.0125851
0.0125879
0.0125907
0.0125933
0.0125959
0.0125983
0.0126007
0.0126028
0.0126048
0.0126066
0.0126082
0.0126095
0.0126107
0.0126116
0.0126122
0.0126125
0.0126127
0.0126127
0.0126126
0.0126123
0.0126113
0.0126101
0.0126086
0.0126069
0.0126049
0.0126028
0.0126004
0.0125979
0.0125952
0.0125924
0.0125896
0.0125866
0.0125836
0.0125806
0.0125776
0.0125746
0.0125717
0.0125688
0.0125661
0.0125634
0.0125608
0.0125584
0.012556
0.0125539
0.0125518
0.0125499
0.0125481
0.0125465
0.012545
0.0125436
0.0125423
0.0125412
0.0125402
0.0125392
0.0125384
0.0125376
0.0125369
0.0125363
0.0125357
0.0125351
0.0125346
0.0125341
0.0125336
0.0125332
0.0125327
0.0125323
0.0125318
0.0125313
0.0125309
0.0125304
0.0125298
0.0125293
0.0125288
0.0125282
0.0125276
0.0125269
0.0125263
0.0125256
0.0125249
0.0125242
0.0125235
0.0125227
0.012522
0.0125212
0.0125204
0.0125196
0.0125188
0.012518
0.0125172
0.0125164
0.0125157
0.0125149
0.0125141
0.0125133
0.0125125
0.0125118
0.012511
0.0125103
0.0125096
0.0125088
0.0125082
0.0125075
0.0125068
0.0125062
0.0125056
0.012505
0.0125044
0.0125038
0.0125033
0.0125027
0.0125022
0.0125017
0.0125013
0.0125008
0.0125004
0.0125
0.0124996
0.0124992
0.0124989
0.0124985
0.0124982
0.0124979
0.0124977
0.0124974
0.0124972
0.012497
0.0124968
0.0124967
0.0124965
0.0124964
0.0124963
0.0124963
0.0124962
0.0124962
0.0124962
0.0124962
0.0124963
0.0124963
0.0124964
0.0124966
0.0124967
0.0124969
0.0124971
0.0124974
0.0124976
0.0124979
0.0124982
0.0124985
0.0124989
0.0124993
0.0124997
0.0125001
0.0125005
0.012501
0.0125015
0.012502
0.0125025
0.012503
0.0125036
0.0125042
0.0125047
0.0125054
0.012506
0.0125066
0.0125073
0.012508
0.0125086
0.0125094
0.0125101
0.0125109
0.0125116
0.0125124
0.0125133
0.0125141
0.012515
0.0125159
0.0125169
0.0125178
0.0125189
0.0125199
0.012521
0.0125222
0.0125234
0.0125246
0.0125259
0.0125273
0.0125287
0.0125302
0.0125317
0.0125333
0.012535
0.0125367
0.0125385
0.0125404
0.0125423
0.0125443
0.0125464
0.0125485
0.0125507
0.012553
0.0125553
0.0125576
0.01256
0.0125624
0.0125648
0.0125673
0.0125697
0.0125723
0.0125745
0.0125773
0.0125791
0.0125822
0.0125836
0.0125867
0.0125878
0.0125909
0.0125917
0.0125952
)
;

boundaryField
{
    inlet
    {
        type            fixedValue;
        value           uniform 0.55;
    }
    outlet
    {
        type            zeroGradient;
    }
    emptyWalls
    {
        type            empty;
    }
}


// ************************************************************************* //
