/*--------------------------------*- C++ -*----------------------------------*\
  =========                 |
  \\      /  F ield         | OpenFOAM: The Open Source CFD Toolbox
   \\    /   O peration     | Website:  https://openfoam.org
    \\  /    A nd           | Version:  9
     \\/     M anipulation  |
\*---------------------------------------------------------------------------*/
FoamFile
{
    format      ascii;
    class       volScalarField;
    location    "8900";
    object      Sb;
}
// * * * * * * * * * * * * * * * * * * * * * * * * * * * * * * * * * * * * * //

dimensions      [0 0 0 0 0 0 0];

internalField   nonuniform List<scalar> 
1000
(
0.350718
0.352164
0.35401
0.355681
0.357353
0.358901
0.360342
0.361607
0.362832
0.364634
0.369868
0.391351
0.523586
0.641253
0.66351
0.671026
0.674928
0.677383
0.679079
0.680287
0.68117
0.681799
0.682253
0.682565
0.682764
0.682875
0.682884
0.68281
0.682617
0.682294
0.6818
0.681068
0.679989
0.678463
0.676488
0.674235
0.67185
0.669398
0.666917
0.66443
0.661949
0.659485
0.657042
0.654624
0.652235
0.649878
0.647553
0.645262
0.643005
0.640782
0.638594
0.63644
0.634321
0.632236
0.630186
0.628171
0.626188
0.624237
0.622316
0.620422
0.618554
0.616709
0.614885
0.613082
0.611297
0.609531
0.607782
0.60605
0.604336
0.602639
0.600959
0.599296
0.597651
0.596024
0.594414
0.592822
0.591247
0.589689
0.588147
0.586622
0.585113
0.583619
0.58214
0.580676
0.579226
0.57779
0.576367
0.574958
0.573561
0.572178
0.570806
0.569447
0.568099
0.566763
0.565438
0.564124
0.562822
0.561529
0.560248
0.558976
0.557715
0.556463
0.555221
0.553989
0.552765
0.551551
0.550346
0.549149
0.547961
0.546782
0.545611
0.544448
0.543293
0.542145
0.541006
0.539874
0.53875
0.537633
0.536523
0.535421
0.534325
0.533236
0.532154
0.531079
0.53001
0.528948
0.527892
0.526842
0.525799
0.524761
0.52373
0.522704
0.521684
0.52067
0.519661
0.518658
0.51766
0.516668
0.51568
0.514698
0.513721
0.512749
0.511782
0.51082
0.509862
0.508909
0.507961
0.507018
0.506078
0.505144
0.504213
0.503287
0.502365
0.501448
0.500534
0.499625
0.498719
0.497818
0.49692
0.496026
0.495136
0.494249
0.493366
0.492487
0.491611
0.490739
0.489869
0.489003
0.488141
0.487281
0.486425
0.485572
0.484721
0.483873
0.483028
0.482186
0.481346
0.480508
0.479673
0.47884
0.47801
0.477182
0.476356
0.475532
0.474711
0.473892
0.473075
0.472261
0.47145
0.470641
0.469835
0.469032
0.468231
0.467434
0.466641
0.46585
0.465063
0.464279
0.463498
0.462721
0.461947
0.461176
0.460407
0.459642
0.458879
0.458118
0.45736
0.456603
0.455848
0.455094
0.454341
0.45359
0.45284
0.45209
0.451341
0.450593
0.449846
0.4491
0.448354
0.447609
0.446865
0.446122
0.44538
0.444638
0.443898
0.443158
0.44242
0.441682
0.440946
0.44021
0.439476
0.438743
0.438011
0.437279
0.436549
0.435819
0.435091
0.434363
0.433636
0.43291
0.432185
0.43146
0.430736
0.430013
0.42929
0.428567
0.427846
0.427124
0.426403
0.425683
0.424963
0.424243
0.423523
0.422804
0.422084
0.421365
0.420647
0.419928
0.419209
0.41849
0.417771
0.417053
0.416334
0.415614
0.414895
0.414176
0.413456
0.412736
0.412015
0.411294
0.410573
0.409851
0.409129
0.408406
0.407683
0.406958
0.406233
0.405508
0.404781
0.404054
0.403326
0.402596
0.401866
0.401135
0.400403
0.399669
0.398935
0.398199
0.397462
0.396723
0.395983
0.395242
0.394499
0.393754
0.393008
0.39226
0.39151
0.390759
0.390005
0.389249
0.388492
0.387732
0.38697
0.386206
0.38544
0.384671
0.383899
0.383126
0.382349
0.38157
0.380787
0.380003
0.379215
0.378424
0.37763
0.376834
0.376034
0.375231
0.374424
0.373615
0.372803
0.371988
0.371171
0.370351
0.369529
0.368706
0.367881
0.367056
0.366232
0.365411
0.364592
0.36378
0.362975
0.36218
0.3614
0.360637
0.359896
0.359181
0.358496
0.357845
0.357233
0.356664
0.356139
0.35566
0.355225
0.354828
0.35446
0.354101
0.353718
0.353253
0.352604
0.351597
0.34994
0.34716
0.342553
0.335232
0.324441
0.310237
0.29416
0.278892
0.266743
0.258446
0.253387
0.250525
0.248975
0.248157
0.24773
0.247509
0.247394
0.247335
0.247304
0.247288
0.247279
0.247275
0.247272
0.247271
0.24727
0.247269
0.247269
0.247269
0.247269
0.247269
0.247269
0.247269
0.24727
0.24727
0.247271
0.247271
0.247272
0.247273
0.247274
0.247275
0.247276
0.247277
0.247278
0.247279
0.247279
0.24728
0.247281
0.247282
0.247283
0.247284
0.247284
0.247285
0.247286
0.247286
0.247287
0.247287
0.247287
0.247288
0.247288
0.247288
0.247288
0.247289
0.247289
0.247289
0.247289
0.247289
0.247289
0.247289
0.247289
0.247289
0.247289
0.247289
0.247289
0.247288
0.247288
0.247288
0.247288
0.247288
0.247288
0.247288
0.247288
0.247288
0.247287
0.247287
0.247287
0.247287
0.247287
0.247287
0.247287
0.247287
0.247286
0.247286
0.247286
0.247286
0.247286
0.247286
0.247286
0.247286
0.247286
0.247285
0.247285
0.247285
0.247285
0.247285
0.247285
0.247285
0.247285
0.247285
0.247285
0.247285
0.247285
0.247285
0.247285
0.247285
0.247285
0.247285
0.247285
0.247285
0.247285
0.247285
0.247285
0.247285
0.247285
0.247285
0.247285
0.247285
0.247285
0.247285
0.247285
0.247285
0.247285
0.247285
0.247285
0.247285
0.247285
0.247285
0.247285
0.247285
0.247285
0.247285
0.247285
0.247285
0.247285
0.247286
0.247286
0.247286
0.247286
0.247286
0.247286
0.247286
0.247286
0.247286
0.247286
0.247286
0.247286
0.247286
0.247286
0.247286
0.247286
0.247286
0.247286
0.247286
0.247286
0.247286
0.247286
0.247286
0.247286
0.247286
0.247286
0.247286
0.247286
0.247286
0.247286
0.247286
0.247286
0.247285
0.247285
0.247285
0.247285
0.247285
0.247285
0.247285
0.247285
0.247285
0.247285
0.247285
0.247284
0.247284
0.247284
0.247284
0.247284
0.247284
0.247283
0.247283
0.247283
0.247283
0.247282
0.247282
0.247282
0.247282
0.247281
0.247281
0.24728
0.24728
0.24728
0.247279
0.247279
0.247278
0.247278
0.247277
0.247276
0.247276
0.247275
0.247274
0.247274
0.247273
0.247272
0.247272
0.247271
0.24727
0.247269
0.247269
0.247268
0.247267
0.247266
0.247266
0.247265
0.247264
0.247264
0.247263
0.247263
0.247262
0.247262
0.247261
0.247261
0.247261
0.247261
0.247261
0.247261
0.247261
0.247261
0.247261
0.247261
0.247262
0.247262
0.247263
0.247263
0.247264
0.247265
0.247266
0.247267
0.247268
0.247268
0.247269
0.24727
0.247271
0.247272
0.247273
0.247274
0.247275
0.247275
0.247276
0.247277
0.247277
0.247278
0.247278
0.247279
0.247279
0.24728
0.24728
0.24728
0.24728
0.247281
0.247281
0.247281
0.247281
0.247281
0.247281
0.247281
0.247281
0.247281
0.247281
0.247281
0.247281
0.247281
0.247281
0.247281
0.247282
0.247282
0.247282
0.247282
0.247282
0.247282
0.247282
0.247282
0.247282
0.247282
0.247282
0.247283
0.247283
0.247283
0.247283
0.247283
0.247283
0.247283
0.247284
0.247284
0.247284
0.247284
0.247284
0.247284
0.247285
0.247285
0.247285
0.247285
0.247285
0.247285
0.247285
0.247286
0.247286
0.247286
0.247286
0.247286
0.247286
0.247286
0.247287
0.247287
0.247287
0.247287
0.247287
0.247287
0.247287
0.247287
0.247287
0.247288
0.247288
0.247288
0.247288
0.247288
0.247288
0.247288
0.247288
0.247288
0.247288
0.247288
0.247288
0.247288
0.247288
0.247288
0.247288
0.247288
0.247288
0.247288
0.247288
0.247288
0.247288
0.247288
0.247288
0.247288
0.247288
0.247288
0.247288
0.247288
0.247288
0.247288
0.247288
0.247288
0.247287
0.247287
0.247287
0.247287
0.247287
0.247287
0.247287
0.247287
0.247287
0.247286
0.247286
0.247286
0.247286
0.247286
0.247286
0.247286
0.247286
0.247285
0.247285
0.247285
0.247285
0.247285
0.247285
0.247284
0.247284
0.247284
0.247284
0.247284
0.247284
0.247283
0.247283
0.247283
0.247283
0.247282
0.247282
0.247282
0.247282
0.247281
0.247281
0.247281
0.24728
0.24728
0.24728
0.247279
0.247279
0.247278
0.247278
0.247278
0.247277
0.247277
0.247276
0.247276
0.247275
0.247274
0.247274
0.247273
0.247273
0.247272
0.247271
0.247271
0.24727
0.24727
0.247269
0.247268
0.247268
0.247267
0.247267
0.247266
0.247265
0.247265
0.247265
0.247264
0.247264
0.247263
0.247263
0.247263
0.247263
0.247262
0.247262
0.247262
0.247262
0.247262
0.247263
0.247263
0.247263
0.247263
0.247264
0.247264
0.247265
0.247265
0.247266
0.247267
0.247267
0.247268
0.247269
0.247269
0.24727
0.247271
0.247271
0.247272
0.247273
0.247273
0.247274
0.247274
0.247275
0.247275
0.247276
0.247276
0.247277
0.247277
0.247277
0.247278
0.247278
0.247278
0.247278
0.247279
0.247279
0.247279
0.247279
0.247279
0.247279
0.24728
0.24728
0.24728
0.24728
0.24728
0.24728
0.24728
0.24728
0.24728
0.24728
0.24728
0.24728
0.247281
0.247281
0.247281
0.247281
0.247281
0.247281
0.247281
0.247281
0.247281
0.247282
0.247282
0.247282
0.247282
0.247282
0.247282
0.247283
0.247283
0.247283
0.247283
0.247283
0.247283
0.247284
0.247284
0.247284
0.247284
0.247284
0.247284
0.247285
0.247285
0.247285
0.247285
0.247285
0.247285
0.247285
0.247286
0.247286
0.247286
0.247286
0.247286
0.247286
0.247286
0.247286
0.247286
0.247287
0.247287
0.247287
0.247287
0.247287
0.247287
0.247287
0.247287
0.247287
0.247287
0.247287
0.247287
0.247287
0.247287
0.247287
0.247287
0.247287
0.247288
0.247288
0.247288
0.247288
0.247288
0.247288
0.247288
0.247288
0.247287
0.247287
0.247287
0.247287
0.247287
0.247287
0.247287
0.247287
0.247287
0.247287
0.247287
0.247287
0.247287
0.247287
0.247287
0.247286
0.247286
0.247286
0.247286
0.247286
0.247286
0.247286
0.247286
0.247286
0.247285
0.247285
0.247285
0.247285
0.247285
0.247285
0.247285
0.247284
0.247284
0.247284
0.247284
0.247284
0.247284
0.247283
0.247283
0.247283
0.247283
0.247283
0.247282
0.247282
0.247282
0.247282
0.247281
0.247281
0.247281
0.24728
0.24728
0.24728
0.247279
0.247279
0.247279
0.247278
0.247278
0.247277
0.247277
0.247276
0.247276
0.247276
0.247275
0.247275
0.247274
0.247274
0.247273
0.247272
0.247272
0.247271
0.247271
0.24727
0.24727
0.247269
0.247269
0.247268
0.247268
0.247267
0.247267
0.247267
)
;

boundaryField
{
    inlet
    {
        type            fixedValue;
        value           uniform 0.35;
    }
    outlet
    {
        type            zeroGradient;
    }
    emptyWalls
    {
        type            empty;
    }
}


// ************************************************************************* //
