/*--------------------------------*- C++ -*----------------------------------*\
  =========                 |
  \\      /  F ield         | OpenFOAM: The Open Source CFD Toolbox
   \\    /   O peration     | Website:  https://openfoam.org
    \\  /    A nd           | Version:  9
     \\/     M anipulation  |
\*---------------------------------------------------------------------------*/
FoamFile
{
    format      ascii;
    class       volScalarField;
    location    "23200";
    object      Fb;
}
// * * * * * * * * * * * * * * * * * * * * * * * * * * * * * * * * * * * * * //

dimensions      [0 0 0 0 0 0 0];

internalField   nonuniform List<scalar> 
1000
(
0.805202
0.805206
0.805198
0.805203
0.805214
0.805204
0.805252
0.805216
0.805307
0.80523
0.805363
0.805263
0.805403
0.805331
0.805427
0.805414
0.805458
0.805478
0.805512
0.805536
0.805577
0.805602
0.805636
0.805659
0.80568
0.805708
0.805701
0.805764
0.805706
0.805834
0.805833
0.806337
0.81048
0.828237
0.832689
0.833527
0.833557
0.833062
0.832455
0.832203
0.832389
0.832775
0.833172
0.833828
0.834555
0.835129
0.835535
0.835791
0.835943
0.836012
0.835943
0.835891
0.835855
0.835837
0.835853
0.83589
0.835924
0.835959
0.836019
0.836061
0.836123
0.836162
0.836221
0.836255
0.836305
0.836332
0.836374
0.836394
0.836423
0.836444
0.836461
0.836473
0.836481
0.836485
0.836484
0.836479
0.836469
0.836454
0.836434
0.836407
0.836374
0.836334
0.836287
0.836231
0.836165
0.836087
0.835995
0.835884
0.835751
0.835592
0.835406
0.835193
0.834959
0.834711
0.834452
0.834183
0.833908
0.833628
0.833344
0.833057
0.832769
0.83248
0.83219
0.831899
0.831605
0.83131
0.831011
0.830708
0.830401
0.830091
0.829778
0.829463
0.82915
0.828837
0.828527
0.828218
0.82791
0.827604
0.827299
0.826992
0.82668
0.826357
0.826019
0.82566
0.825276
0.824867
0.824435
0.823982
0.823514
0.823034
0.822549
0.82206
0.821573
0.82109
0.820616
0.820155
0.819713
0.819294
0.818903
0.818545
0.818223
0.817936
0.817685
0.817466
0.817275
0.817105
0.816951
0.816805
0.816661
0.816511
0.816352
0.816179
0.815988
0.815779
0.815551
0.815303
0.815039
0.814758
0.814463
0.814158
0.813843
0.813521
0.813195
0.812867
0.812537
0.812208
0.81188
0.811553
0.811229
0.810907
0.810587
0.81027
0.809955
0.809641
0.809329
0.809018
0.808708
0.808399
0.80809
0.807781
0.807472
0.807162
0.806852
0.806542
0.806231
0.805919
0.805607
0.805293
0.804979
0.804664
0.804347
0.80403
0.803712
0.803393
0.803072
0.802751
0.802428
0.802105
0.80178
0.801454
0.801127
0.800799
0.80047
0.80014
0.799809
0.799477
0.799143
0.798809
0.798473
0.798136
0.797798
0.797459
0.797118
0.796776
0.796433
0.796089
0.795743
0.795397
0.79505
0.794702
0.794354
0.794005
0.793655
0.793305
0.792954
0.792603
0.792251
0.791898
0.791544
0.791189
0.790834
0.790477
0.790119
0.789761
0.789403
0.789044
0.788686
0.788328
0.78797
0.787612
0.787254
0.786895
0.786536
0.786173
0.785808
0.785438
0.785062
0.78468
0.784291
0.783893
0.783486
0.78307
0.782645
0.782211
0.781768
0.781317
0.78086
0.780396
0.779929
0.779458
0.778987
0.778518
0.778052
0.777591
0.777138
0.776696
0.776265
0.775848
0.775446
0.775061
0.774693
0.774341
0.774007
0.773689
0.773385
0.773094
0.772815
0.772544
0.772279
0.772018
0.771759
0.771499
0.771237
0.770969
0.770696
0.770416
0.770129
0.769833
0.769529
0.769217
0.768898
0.768571
0.768238
0.767899
0.767555
0.767206
0.766854
0.7665
0.766143
0.765785
0.765426
0.765066
0.764707
0.764347
0.763988
0.763629
0.763271
0.762914
0.762557
0.762201
0.761845
0.76149
0.761135
0.760781
0.760426
0.760072
0.759718
0.759364
0.759009
0.758654
0.758299
0.757944
0.757588
0.757231
0.756874
0.756516
0.756158
0.755798
0.755438
0.755078
0.754716
0.754354
0.753991
0.753627
0.753262
0.752897
0.752531
0.752163
0.751795
0.751427
0.751057
0.750686
0.750315
0.749942
0.749569
0.749195
0.74882
0.748444
0.748067
0.747689
0.747311
0.746931
0.746551
0.74617
0.745788
0.745405
0.745021
0.744637
0.744252
0.743866
0.74348
0.743093
0.742706
0.742317
0.741929
0.741539
0.741149
0.740758
0.740367
0.739975
0.739583
0.73919
0.738797
0.738404
0.73801
0.737615
0.737221
0.736826
0.73643
0.736034
0.735637
0.735239
0.73484
0.73444
0.734037
0.733632
0.733225
0.732814
0.7324
0.731983
0.731561
0.731134
0.730703
0.730267
0.729826
0.72938
0.728929
0.728473
0.728013
0.72755
0.727083
0.726613
0.726141
0.725668
0.725195
0.724722
0.72425
0.723781
0.723316
0.722855
0.722399
0.72195
0.721508
0.721074
0.720648
0.720231
0.719823
0.719424
0.719035
0.718654
0.718281
0.717916
0.717558
0.717206
0.716859
0.716516
0.716176
0.715838
0.715501
0.715164
0.714826
0.714486
0.714143
0.713798
0.713449
0.713096
0.712738
0.712377
0.712011
0.711641
0.711267
0.710889
0.710508
0.710123
0.709735
0.709344
0.708951
0.708556
0.708159
0.707761
0.707362
0.706961
0.70656
0.706158
0.705756
0.705353
0.70495
0.704547
0.704144
0.703741
0.703338
0.702935
0.702532
0.702129
0.701726
0.701323
0.700919
0.700516
0.700112
0.699708
0.699303
0.698898
0.698493
0.698088
0.697681
0.697275
0.696868
0.69646
0.696052
0.695643
0.695233
0.694823
0.694412
0.694
0.693588
0.693174
0.692761
0.692346
0.691931
0.691514
0.691097
0.69068
0.690261
0.689842
0.689422
0.689001
0.688579
0.688156
0.687733
0.687308
0.686883
0.686457
0.686031
0.685603
0.685175
0.684745
0.684315
0.683884
0.683453
0.68302
0.682587
0.682153
0.681719
0.681283
0.680847
0.68041
0.679973
0.679534
0.679096
0.678656
0.678216
0.677775
0.677333
0.676891
0.676448
0.676005
0.675561
0.675117
0.674671
0.674226
0.673779
0.673332
0.672884
0.672435
0.671986
0.671535
0.671083
0.67063
0.670176
0.669719
0.669262
0.668802
0.66834
0.667876
0.667409
0.66694
0.666468
0.665993
0.665515
0.665034
0.66455
0.664063
0.663573
0.66308
0.662584
0.662086
0.661585
0.661081
0.660576
0.66007
0.659562
0.659053
0.658544
0.658035
0.657527
0.657019
0.656514
0.65601
0.655508
0.65501
0.654515
0.654023
0.653536
0.653053
0.652575
0.652102
0.651633
0.65117
0.650711
0.650257
0.649808
0.649364
0.648923
0.648486
0.648053
0.647622
0.647194
0.646767
0.646342
0.645918
0.645494
0.645069
0.644644
0.644218
0.643791
0.643362
0.64293
0.642497
0.642061
0.641623
0.641182
0.640738
0.640292
0.639843
0.639391
0.638937
0.63848
0.638022
0.637561
0.637098
0.636633
0.636167
0.635699
0.63523
0.634759
0.634287
0.633814
0.633341
0.632866
0.632391
0.631915
0.631438
0.630961
0.630483
0.630004
0.629526
0.629046
0.628566
0.628086
0.627605
0.627123
0.626642
0.626159
0.625676
0.625192
0.624708
0.624223
0.623738
0.623252
0.622765
0.622277
0.621788
0.621299
0.620809
0.620318
0.619826
0.619334
0.61884
0.618346
0.61785
0.617354
0.616857
0.616358
0.615859
0.615359
0.614858
0.614356
0.613852
0.613348
0.612843
0.612336
0.611829
0.61132
0.610811
0.6103
0.609788
0.609276
0.608762
0.608247
0.607731
0.607214
0.606695
0.606176
0.605656
0.605134
0.604612
0.604088
0.603563
0.603038
0.602511
0.601983
0.601454
0.600924
0.600393
0.59986
0.599327
0.598793
0.598258
0.597721
0.597184
0.596646
0.596106
0.595566
0.595024
0.594482
0.593938
0.593394
0.592848
0.592301
0.591752
0.591203
0.590652
0.5901
0.589547
0.588992
0.588435
0.587877
0.587318
0.586756
0.586193
0.585627
0.58506
0.58449
0.583918
0.583344
0.582768
0.582189
0.581608
0.581025
0.580439
0.57985
0.579259
0.578666
0.57807
0.577472
0.576872
0.57627
0.575665
0.575059
0.574451
0.573842
0.573231
0.572619
0.572006
0.571393
0.570779
0.570165
0.569551
0.568937
0.568323
0.567711
0.567099
0.566488
0.565879
0.565271
0.564665
0.56406
0.563458
0.562857
0.562259
0.561663
0.561068
0.560476
0.559885
0.559296
0.558709
0.558123
0.557539
0.556956
0.556373
0.555791
0.555209
0.554628
0.554046
0.553463
0.55288
0.552296
0.551711
0.551124
0.550535
0.549945
0.549352
0.548758
0.548161
0.547561
0.546959
0.546355
0.545748
0.545138
0.544525
0.54391
0.543292
0.542672
0.542049
0.541424
0.540796
0.540165
0.539533
0.538897
0.53826
0.537621
0.536979
0.536335
0.535689
0.535041
0.534392
0.53374
0.533086
0.532431
0.531773
0.531114
0.530453
0.52979
0.529125
0.528459
0.52779
0.52712
0.526448
0.525774
0.525098
0.52442
0.52374
0.523059
0.522375
0.521689
0.521001
0.520312
0.51962
0.518925
0.518229
0.517531
0.51683
0.516127
0.515422
0.514714
0.514004
0.513292
0.512578
0.511861
0.511141
0.51042
0.509695
0.508969
0.508239
0.507507
0.506773
0.506036
0.505297
0.504555
0.50381
0.503063
0.502312
0.50156
0.500805
0.500047
0.499286
0.498523
0.497757
0.496989
0.496218
0.495444
0.494668
0.493889
0.493108
0.492324
0.491538
0.490749
0.489959
0.489166
0.488371
0.487573
0.486774
0.485973
0.485171
0.484367
0.483562
0.482756
0.48195
0.481143
0.480336
0.479529
0.478725
0.47792
0.47712
0.47632
0.475525
0.474735
0.473949
0.473171
0.4724
0.471639
0.470888
0.470149
0.469424
0.468713
0.468021
0.467347
0.466693
0.466063
0.465456
0.464875
0.464322
0.463797
0.463301
0.462837
0.462402
0.461999
0.461627
0.461285
0.460974
0.460691
0.460434
0.460205
0.46
0.459818
0.459656
0.459513
0.459387
0.459274
0.459177
0.459091
0.459014
0.458949
0.458885
0.45883
0.45878
0.458727
0.458681
0.458622
0.458554
0.458461
0.458312
0.458085
0.457688
0.456994
0.45578
0.453633
0.449852
0.443276
0.432112
0.413951
0.386448
0.349205
0.306102
0.264852
0.232273
0.210356
0.197191
0.189819
0.185856
0.183771
0.182687
0.182128
0.181842
0.181697
0.181624
0.181589
0.181573
0.181568
0.181568
0.181571
0.181575
0.181581
0.181586
0.181593
0.181599
0.181606
0.181612
0.18162
0.181626
0.181633
0.181639
0.181646
0.181651
0.181658
0.181663
0.18167
0.181674
0.18168
0.181685
0.18169
0.181694
0.181699
0.181703
0.181708
0.181711
0.181715
0.181718
0.181722
0.181724
0.181728
0.18173
0.181734
0.181735
0.181739
0.18174
0.181743
0.181744
0.181748
0.181748
0.181752
0.181752
0.181756
0.181756
0.18176
0.18176
0.181763
0.181764
0.181767
0.181768
)
;

boundaryField
{
    inlet
    {
        type            calculated;
        value           uniform 0.805169;
    }
    outlet
    {
        type            calculated;
        value           uniform 0.18177;
    }
    emptyWalls
    {
        type            empty;
    }
}


// ************************************************************************* //
