/*--------------------------------*- C++ -*----------------------------------*\
  =========                 |
  \\      /  F ield         | OpenFOAM: The Open Source CFD Toolbox
   \\    /   O peration     | Website:  https://openfoam.org
    \\  /    A nd           | Version:  9
     \\/     M anipulation  |
\*---------------------------------------------------------------------------*/
FoamFile
{
    format      ascii;
    class       volScalarField;
    location    "3000";
    object      Fa;
}
// * * * * * * * * * * * * * * * * * * * * * * * * * * * * * * * * * * * * * //

dimensions      [0 0 0 0 0 0 0];

internalField   nonuniform List<scalar> 
1000
(
0.194645
0.194482
0.193077
0.182974
0.157308
0.153708
0.152507
0.151041
0.150051
0.149619
0.148265
0.147536
0.146712
0.145863
0.14507
0.144395
0.143873
0.143515
0.14332
0.143266
0.143322
0.143449
0.14361
0.143767
0.143901
0.14399
0.144036
0.144032
0.143994
0.143919
0.143828
0.143717
0.143601
0.143475
0.14335
0.143221
0.143092
0.142966
0.142841
0.142719
0.1426
0.142484
0.14237
0.142258
0.142148
0.142038
0.141929
0.141821
0.141712
0.141604
0.141497
0.14139
0.141284
0.141179
0.141074
0.140971
0.140867
0.140766
0.140663
0.140565
0.14046
0.140364
0.140256
0.140164
0.14005
0.139961
0.139841
0.139753
0.139632
0.139537
0.139421
0.139314
0.139206
0.139086
0.138984
0.138857
0.138751
0.138626
0.138509
0.138392
0.138263
0.138147
0.138016
0.137893
0.137768
0.137636
0.137514
0.137381
0.137254
0.137127
0.136995
0.13687
0.13674
0.136611
0.136486
0.136357
0.136231
0.136106
0.135979
0.135855
0.135732
0.135608
0.135487
0.135367
0.135247
0.135131
0.135015
0.134902
0.134793
0.134687
0.134583
0.134484
0.134384
0.134284
0.134171
0.134032
0.133842
0.133566
0.13317
0.13265
0.132088
0.131613
0.13132
0.131168
0.13111
0.131088
0.131089
0.131096
0.131108
0.131122
0.131134
0.131148
0.131161
0.131175
0.131187
0.1312
0.131211
0.131223
0.131233
0.131244
0.131254
0.131264
0.131273
0.131282
0.13129
0.131299
0.131308
0.131318
0.13133
0.131345
0.131362
0.131385
0.131412
0.131446
0.131488
0.131539
0.131598
0.131669
0.13175
0.131843
0.131948
0.132064
0.132192
0.132332
0.132481
0.132641
0.132809
0.132984
0.133165
0.13335
0.133537
0.133725
0.13391
0.134091
0.134263
0.134426
0.134574
0.134705
0.134813
0.134896
0.134948
0.134972
0.134975
0.134974
0.134961
0.134869
0.13473
0.134556
0.13435
0.134117
0.13386
0.133586
0.133299
0.133006
0.132712
0.132424
0.132148
0.131889
0.13165
0.131436
0.131248
0.131088
0.130955
0.13085
0.13077
0.130716
0.130683
0.130669
0.130667
0.130668
0.130679
0.130721
0.130771
0.130826
0.130883
0.13094
0.130997
0.131052
0.131104
0.131152
0.131196
0.131235
0.13127
0.1313
0.131325
0.131346
0.131362
0.131374
0.131383
0.131389
0.131391
0.131392
0.131391
0.13139
0.131384
0.131376
0.131366
0.131356
0.131344
0.131332
0.131319
0.131306
0.131292
0.131278
0.131264
0.131249
0.131234
0.131219
0.131204
0.131188
0.131173
0.131158
0.131142
0.131127
0.131112
0.131097
0.131083
0.131068
0.131054
0.13104
0.131027
0.131014
0.131002
0.13099
0.130978
0.130967
0.130956
0.130945
0.130935
0.130926
0.130917
0.130909
0.130901
0.130894
0.130887
0.130881
0.130876
0.130872
0.130869
0.130867
0.130866
0.130866
0.130866
0.130867
0.13087
0.130874
0.13088
0.130887
0.130895
0.130904
0.130913
0.130924
0.130935
0.130947
0.130959
0.130972
0.130985
0.130998
0.131011
0.131024
0.131036
0.131048
0.13106
0.131071
0.131082
0.131092
0.131101
0.131109
0.131115
0.131121
0.131126
0.131129
0.131131
0.131132
0.131132
0.131132
0.131131
0.131127
0.131122
0.131116
0.131108
0.1311
0.131091
0.131081
0.131071
0.13106
0.131049
0.131038
0.131028
0.131017
0.131007
0.130998
0.130989
0.130981
0.130974
0.130969
0.130964
0.13096
0.130958
0.130957
0.130957
0.130957
0.130958
0.130961
0.130967
0.130973
0.130982
0.130992
0.131003
0.131016
0.131031
0.131047
0.131066
0.131086
0.13111
0.131136
0.131165
0.131197
0.131233
0.131272
0.131316
0.131364
0.131418
0.131476
0.131541
0.13161
0.131686
0.131767
0.131856
0.131949
0.132049
0.132154
0.132266
0.132381
0.132502
0.132626
0.132754
0.132883
0.133013
0.133143
0.133271
0.133395
0.133515
0.133628
0.133731
0.133823
0.133901
0.133962
0.134005
0.134025
0.134029
0.134028
0.134021
0.133973
0.133869
0.133736
0.133572
0.133381
0.133162
0.132919
0.132656
0.132378
0.132087
0.131791
0.131494
0.131201
0.130917
0.130648
0.130395
0.130162
0.129952
0.129767
0.129607
0.129472
0.129362
0.129277
0.129214
0.129173
0.129152
0.129146
0.129146
0.129149
0.129178
0.129228
0.129287
0.12935
0.129418
0.129487
0.129558
0.129628
0.129697
0.129764
0.129827
0.129888
0.129944
0.129996
0.130044
0.130087
0.130126
0.13016
0.13019
0.130216
0.130238
0.130256
0.130272
0.130284
0.130294
0.130302
0.130307
0.130311
0.130313
0.130315
0.130315
0.130315
0.130314
0.130313
0.13031
0.130308
0.130303
0.130302
0.130295
0.130294
0.130287
0.130285
0.130277
0.130274
0.130265
0.130262
0.130251
0.130247
0.130234
0.13023
0.130213
0.130209
0.130189
0.130184
0.130161
0.130155
0.13013
0.130123
0.130094
0.130086
0.130054
0.130045
0.130012
0.130001
0.129965
0.129955
0.129917
0.129903
0.129867
0.129855
0.129813
0.129801
0.129763
0.129736
0.129502
0.128542
0.123607
0.031697
0.000172347
7.09772e-10
2.00306e-21
4.68806e-46
4.19917e-98
2.51453e-208
0
0
0
0
0
0
0
0
0
0
0
0
0
0
0
0
0
0
0
0
0
0
0
0
0
0
0
0
0
0
0
0
0
0
0
0
0
0
0
0
0
0
0
0
0
0
0
0
0
0
0
0
0
0
0
0
0
0
0
0
0
0
0
0
0
0
0
0
0
0
0
0
0
0
0
0
0
0
0
0
0
0
0
0
0
0
0
0
0
0
0
0
0
0
0
0
0
0
0
0
0
0
0
0
0
0
0
0
0
0
0
0
0
0
0
0
0
0
0
0
0
0
0
0
0
0
0
0
0
0
0
0
0
0
0
0
0
0
0
0
0
0
0
0
0
0
0
0
0
0
0
0
0
0
0
0
0
0
0
0
0
0
0
0
0
0
0
0
0
0
0
0
0
0
0
0
0
0
0
0
0
0
0
0
0
0
0
0
0
0
0
0
0
0
0
0
0
0
0
0
0
0
0
0
0
0
0
0
0
0
0
0
0
0
0
0
0
0
0
0
0
0
0
0
0
0
0
0
0
0
0
0
0
0
0
0
0
0
0
0
0
0
0
0
0
0
0
0
0
0
0
0
0
0
0
0
0
0
0
0
0
0
0
0
0
0
0
0
0
0
0
0
0
0
0
0
0
0
0
0
0
0
0
0
0
0
0
0
0
0
0
0
0
0
0
0
0
0
0
0
0
0
0
0
0
0
0
0
0
0
0
0
0
0
0
0
0
0
0
0
0
0
0
0
0
0
0
0
0
0
0
0
0
0
0
0
0
0
0
0
0
0
0
0
0
0
0
0
0
0
0
0
0
0
0
0
0
0
0
0
0
0
0
0
0
0
0
0
0
0
0
0
0
0
0
0
0
0
0
0
0
0
0
0
0
0
0
0
0
0
0
0
0
0
0
0
0
0
0
0
0
0
0
0
0
0
0
0
0
0
0
0
0
0
0
0
0
0
0
0
0
0
0
0
0
0
0
0
0
0
0
0
0
0
0
0
0
0
0
0
0
0
0
0
0
0
0
0
0
0
0
0
0
0
0
0
0
0
0
0
0
0
0
0
0
0
0
0
0
0
0
0
0
0
0
0
0
0
0
0
0
0
0
0
0
0
0
0
0
0
0
0
0
0
)
;

boundaryField
{
    inlet
    {
        type            calculated;
        value           uniform 0.194831;
    }
    outlet
    {
        type            calculated;
        value           uniform 0;
    }
    emptyWalls
    {
        type            empty;
    }
}


// ************************************************************************* //
