/*--------------------------------*- C++ -*----------------------------------*\
  =========                 |
  \\      /  F ield         | OpenFOAM: The Open Source CFD Toolbox
   \\    /   O peration     | Website:  https://openfoam.org
    \\  /    A nd           | Version:  9
     \\/     M anipulation  |
\*---------------------------------------------------------------------------*/
FoamFile
{
    format      ascii;
    class       volScalarField;
    location    "3000";
    object      krb;
}
// * * * * * * * * * * * * * * * * * * * * * * * * * * * * * * * * * * * * * //

dimensions      [0 0 0 0 0 0 0];

internalField   nonuniform List<scalar> 
1000
(
0.0999159
0.104874
0.114843
0.163124
0.411978
0.50324
0.521743
0.527929
0.529944
0.529758
0.525622
0.515291
0.503259
0.491072
0.479168
0.46771
0.45675
0.446286
0.436304
0.426776
0.417678
0.408986
0.400673
0.392719
0.3851
0.377795
0.370781
0.364042
0.357555
0.351305
0.345274
0.33945
0.333817
0.328366
0.323083
0.317961
0.312989
0.308159
0.303463
0.298895
0.294448
0.290115
0.285891
0.28177
0.277749
0.273821
0.269983
0.266231
0.26256
0.258968
0.25545
0.252004
0.248626
0.245314
0.242064
0.238875
0.235744
0.232668
0.229645
0.226673
0.223751
0.220876
0.218047
0.21526
0.212517
0.209812
0.207148
0.20452
0.20193
0.199372
0.196849
0.194358
0.191897
0.189466
0.187063
0.184688
0.182338
0.180014
0.177714
0.175436
0.173181
0.170947
0.168732
0.166536
0.164358
0.162197
0.160051
0.157922
0.155806
0.153703
0.151613
0.149534
0.147465
0.145406
0.143355
0.141311
0.139274
0.137243
0.135217
0.133195
0.131177
0.129163
0.127151
0.125144
0.123141
0.121145
0.119159
0.117189
0.115241
0.113321
0.111433
0.109572
0.107713
0.105791
0.103674
0.101115
0.0977076
0.0928815
0.0860396
0.0769712
0.066401
0.0560239
0.0475559
0.0416982
0.0381219
0.0361111
0.0350353
0.0344758
0.0341893
0.0340442
0.0339714
0.033935
0.0339169
0.0339078
0.0339032
0.0339009
0.0338998
0.0338993
0.033899
0.0338988
0.0338988
0.0338987
0.0338986
0.0338986
0.0338986
0.0338985
0.0338984
0.0338983
0.0338983
0.0338982
0.0338981
0.033898
0.0338979
0.0338977
0.0338975
0.0338972
0.0338969
0.0338965
0.0338961
0.0338956
0.0338951
0.0338944
0.0338937
0.033893
0.0338922
0.0338914
0.0338905
0.0338896
0.0338886
0.0338877
0.0338867
0.0338857
0.0338847
0.0338838
0.0338829
0.033882
0.0338812
0.0338805
0.0338799
0.0338795
0.0338792
0.0338791
0.0338791
0.0338792
0.0338792
0.0338797
0.0338804
0.0338813
0.0338824
0.0338836
0.033885
0.0338864
0.0338879
0.0338895
0.033891
0.0338925
0.0338939
0.0338953
0.0338966
0.0338977
0.0338987
0.0338995
0.0339002
0.0339007
0.0339011
0.0339013
0.0339015
0.0339015
0.0339014
0.0339013
0.0339012
0.0339009
0.0339006
0.0339002
0.0338998
0.0338994
0.033899
0.0338986
0.0338982
0.0338979
0.0338975
0.0338972
0.0338968
0.0338966
0.0338963
0.0338961
0.0338959
0.0338957
0.0338956
0.0338954
0.0338953
0.0338951
0.033895
0.0338949
0.0338948
0.0338947
0.0338947
0.0338946
0.0338946
0.0338945
0.0338945
0.0338945
0.0338945
0.0338944
0.0338944
0.0338944
0.0338944
0.0338944
0.0338944
0.0338944
0.0338944
0.0338945
0.0338945
0.0338945
0.0338945
0.0338945
0.0338946
0.0338946
0.0338947
0.0338947
0.0338947
0.0338948
0.0338948
0.0338948
0.0338948
0.0338949
0.0338949
0.033895
0.033895
0.0338951
0.0338951
0.0338951
0.0338952
0.0338952
0.0338952
0.0338953
0.0338953
0.0338953
0.0338954
0.0338954
0.0338954
0.0338954
0.0338954
0.0338955
0.0338955
0.0338955
0.0338954
0.0338954
0.0338954
0.0338954
0.0338954
0.0338954
0.0338953
0.0338953
0.0338952
0.0338952
0.0338951
0.0338951
0.0338951
0.0338951
0.033895
0.033895
0.033895
0.033895
0.0338949
0.0338949
0.0338949
0.0338949
0.0338948
0.0338948
0.0338949
0.0338949
0.0338949
0.0338949
0.0338949
0.0338949
0.0338949
0.033895
0.033895
0.0338951
0.0338951
0.0338952
0.0338953
0.0338953
0.0338954
0.0338954
0.0338955
0.0338955
0.0338956
0.0338957
0.0338957
0.0338958
0.0338958
0.0338959
0.0338959
0.0338959
0.033896
0.033896
0.0338959
0.033896
0.033896
0.033896
0.033896
0.033896
0.0338959
0.0338959
0.0338958
0.0338958
0.0338957
0.0338956
0.0338956
0.0338955
0.0338953
0.0338952
0.0338951
0.033895
0.0338948
0.0338947
0.0338945
0.0338942
0.033894
0.0338937
0.0338934
0.0338931
0.0338927
0.0338923
0.0338919
0.0338915
0.033891
0.0338905
0.0338899
0.0338893
0.0338887
0.0338881
0.0338874
0.0338867
0.033886
0.0338854
0.0338847
0.033884
0.0338833
0.0338827
0.033882
0.0338815
0.033881
0.0338806
0.0338802
0.03388
0.0338798
0.0338798
0.0338799
0.03388
0.0338802
0.0338805
0.0338811
0.0338819
0.0338828
0.0338838
0.033885
0.0338864
0.0338878
0.0338893
0.0338909
0.0338925
0.033894
0.0338956
0.0338971
0.0338985
0.0338998
0.0339009
0.033902
0.033903
0.0339038
0.0339046
0.0339052
0.0339056
0.0339059
0.0339061
0.0339061
0.0339061
0.0339061
0.0339061
0.0339059
0.0339057
0.0339053
0.033905
0.0339046
0.0339042
0.0339038
0.0339034
0.033903
0.0339026
0.0339023
0.033902
0.0339017
0.0339014
0.0339011
0.0339009
0.0339007
0.0339005
0.0339003
0.0339001
0.0339
0.0338999
0.0338998
0.0338998
0.0338997
0.0338996
0.0338996
0.0338995
0.0338995
0.0338995
0.0338995
0.0338995
0.0338995
0.0338995
0.0338995
0.0338995
0.0338995
0.0338995
0.0338995
0.0338995
0.0338995
0.0338995
0.0338996
0.0338996
0.0338996
0.0338996
0.0338996
0.0338997
0.0338997
0.0338998
0.0338999
0.0338999
0.0339
0.0339
0.0339001
0.0339001
0.0339002
0.0339003
0.0339004
0.0339005
0.0339007
0.0339007
0.0339009
0.0339009
0.0339011
0.0339012
0.0339013
0.0339014
0.0339016
0.0339017
0.0339019
0.033902
0.0339022
0.0339024
0.0339036
0.0339087
0.0339351
0.0345519
0.0351074
0.0351556
0.0351562
0.0351562
0.0351562
0.0351562
0.0351562
0.0351562
0.0351563
0.0351563
0.0351563
0.0351563
0.0351563
0.0351562
0.0351562
0.0351562
0.0351562
0.0351563
0.0351563
0.0351563
0.0351563
0.0351563
0.0351563
0.0351563
0.0351563
0.0351563
0.0351563
0.0351563
0.0351563
0.0351563
0.0351563
0.0351563
0.0351562
0.0351562
0.0351563
0.0351563
0.0351563
0.0351563
0.0351563
0.0351563
0.0351563
0.0351563
0.0351563
0.0351563
0.0351563
0.0351563
0.0351563
0.0351563
0.0351563
0.0351563
0.0351563
0.0351563
0.0351563
0.0351563
0.0351563
0.0351563
0.0351563
0.0351562
0.0351562
0.0351562
0.0351562
0.0351563
0.0351563
0.0351563
0.0351563
0.0351562
0.0351562
0.0351563
0.0351562
0.0351563
0.0351563
0.0351563
0.0351563
0.0351563
0.0351563
0.0351563
0.0351563
0.0351563
0.0351563
0.0351563
0.0351563
0.0351563
0.0351563
0.0351563
0.0351563
0.0351563
0.0351563
0.0351563
0.0351563
0.0351563
0.0351563
0.0351563
0.0351563
0.0351563
0.0351563
0.0351563
0.0351563
0.0351563
0.0351563
0.0351563
0.0351563
0.0351563
0.0351563
0.0351563
0.0351563
0.0351562
0.0351562
0.0351562
0.0351562
0.0351563
0.0351563
0.0351562
0.0351563
0.0351563
0.0351563
0.0351563
0.0351563
0.0351563
0.0351563
0.0351563
0.0351563
0.0351563
0.0351562
0.0351563
0.0351563
0.0351563
0.0351563
0.0351562
0.0351562
0.0351562
0.0351562
0.0351562
0.0351562
0.0351563
0.0351562
0.0351563
0.0351563
0.0351563
0.0351563
0.0351563
0.0351563
0.0351563
0.0351563
0.0351563
0.0351563
0.0351563
0.0351563
0.0351563
0.0351563
0.0351563
0.0351563
0.0351563
0.0351563
0.0351563
0.0351563
0.0351563
0.0351562
0.0351562
0.0351563
0.0351563
0.0351563
0.0351563
0.0351563
0.0351563
0.0351562
0.0351563
0.0351562
0.0351563
0.0351562
0.0351563
0.0351563
0.0351563
0.0351563
0.0351563
0.0351563
0.0351562
0.0351562
0.0351563
0.0351563
0.0351563
0.0351563
0.0351563
0.0351563
0.0351563
0.0351563
0.0351563
0.0351563
0.0351563
0.0351563
0.0351563
0.0351563
0.0351563
0.0351563
0.0351563
0.0351563
0.0351562
0.0351563
0.0351562
0.0351562
0.0351562
0.0351562
0.0351562
0.0351562
0.0351562
0.0351563
0.0351563
0.0351563
0.0351562
0.0351562
0.0351562
0.0351562
0.0351563
0.0351563
0.0351563
0.0351563
0.0351563
0.0351563
0.0351563
0.0351563
0.0351563
0.0351563
0.0351563
0.0351563
0.0351563
0.0351563
0.0351563
0.0351563
0.0351563
0.0351563
0.0351563
0.0351562
0.0351563
0.0351562
0.0351562
0.0351562
0.0351562
0.0351563
0.0351563
0.0351562
0.0351562
0.0351562
0.0351563
0.0351563
0.0351563
0.0351563
0.0351562
0.0351563
0.0351563
0.0351563
0.0351563
0.0351563
0.0351563
0.0351563
0.0351563
0.0351563
0.0351563
0.0351563
0.0351562
0.0351563
0.0351562
0.0351562
0.0351562
0.0351562
0.0351563
0.0351563
0.0351563
0.0351563
0.0351563
0.0351563
0.0351563
0.0351563
0.0351563
0.0351562
0.0351562
0.0351562
0.0351562
0.0351562
0.0351562
0.0351563
0.0351562
0.0351563
0.0351563
0.0351563
0.0351563
0.0351562
0.0351563
0.0351562
0.0351562
0.0351563
0.0351563
0.0351562
0.0351563
0.0351563
0.0351563
0.0351563
0.0351563
0.0351563
0.0351563
0.0351563
0.0351563
0.0351563
0.0351563
0.0351563
0.0351563
0.0351563
0.0351563
0.0351563
0.0351563
0.0351563
0.0351563
0.0351563
0.0351563
0.0351562
0.0351562
0.0351562
0.0351563
0.0351563
0.0351563
0.0351563
0.0351563
0.0351563
0.0351563
0.0351563
0.0351563
0.0351563
0.0351563
0.0351562
0.0351562
0.0351562
0.0351563
0.0351563
0.0351563
0.0351563
0.0351563
0.0351563
0.0351563
0.0351563
0.0351563
0.0351563
0.0351563
0.0351563
0.0351563
0.0351563
0.0351563
0.0351563
0.0351562
0.0351562
0.0351562
0.0351562
0.0351562
0.0351562
0.0351562
0.0351562
0.0351563
0.0351563
0.0351563
0.0351563
0.0351563
0.0351563
0.0351563
0.0351562
0.0351563
0.0351563
0.0351563
0.0351563
0.0351563
0.0351562
0.0351562
0.0351562
0.0351562
0.0351562
0.0351562
0.0351562
0.0351562
0.0351562
0.0351562
0.0351562
0.0351563
0.0351563
0.0351563
0.0351563
0.0351563
0.0351563
0.0351563
0.0351563
0.0351563
0.0351563
0.0351562
0.0351562
0.0351562
0.0351562
0.0351562
0.0351563
0.0351563
0.0351563
0.0351563
0.0351562
0.0351562
0.0351563
0.0351563
0.0351563
0.0351562
0.0351563
0.0351562
0.0351563
0.0351563
0.0351562
0.0351563
0.0351563
0.0351563
0.0351562
0.0351562
0.0351562
0.0351562
0.0351562
0.0351562
0.0351562
0.0351563
0.0351563
0.0351563
0.0351563
0.0351563
0.0351563
0.0351563
0.0351563
0.0351562
0.0351563
0.0351563
0.0351563
0.0351563
0.0351563
0.0351562
0.0351562
0.0351562
0.0351563
0.0351563
0.0351563
0.0351563
0.0351563
0.0351563
0.0351563
0.0351562
0.0351562
0.0351563
0.0351563
0.0351563
0.0351563
0.0351563
0.0351562
0.0351563
0.0351562
0.0351562
0.0351562
0.0351563
0.0351563
0.0351563
0.0351563
0.0351563
0.0351563
0.0351563
0.0351563
0.0351563
0.0351563
0.0351563
0.0351563
0.0351563
0.0351563
0.0351563
0.0351563
0.0351563
0.0351563
0.0351563
0.0351563
0.0351563
0.0351563
0.0351563
0.0351563
0.0351563
0.0351563
0.0351563
0.0351563
0.0351563
0.0351563
0.0351563
0.0351563
0.0351563
0.0351563
0.0351563
0.0351563
0.0351563
0.0351563
0.0351562
0.0351562
0.0351562
0.0351562
0.0351562
0.0351562
0.0351562
0.0351562
0.0351562
)
;

boundaryField
{
    inlet
    {
        type            calculated;
        value           uniform 0.0976562;
    }
    outlet
    {
        type            calculated;
        value           uniform 0.0351562;
    }
    emptyWalls
    {
        type            empty;
    }
}


// ************************************************************************* //
