/*--------------------------------*- C++ -*----------------------------------*\
  =========                 |
  \\      /  F ield         | OpenFOAM: The Open Source CFD Toolbox
   \\    /   O peration     | Website:  https://openfoam.org
    \\  /    A nd           | Version:  9
     \\/     M anipulation  |
\*---------------------------------------------------------------------------*/
FoamFile
{
    format      ascii;
    class       volScalarField;
    location    "18400";
    object      kra;
}
// * * * * * * * * * * * * * * * * * * * * * * * * * * * * * * * * * * * * * //

dimensions      [0 0 0 0 0 0 0];

internalField   nonuniform List<scalar> 
1000
(
0.000236844
0.000237895
0.000239493
0.000240909
0.000242462
0.000243925
0.000245455
0.000246977
0.000248515
0.000250057
0.000251601
0.000253121
0.00025462
0.000256066
0.00025745
0.000258752
0.000259935
0.000261047
0.000261953
0.000262874
0.000263527
0.000264353
0.000265344
0.000268447
0.000279437
0.000338538
0.000662642
0.000853775
0.000892174
0.000906518
0.000915377
0.000923648
0.000931935
0.000938709
0.000942661
0.000944017
0.000944116
0.000943888
0.000941942
0.000938447
0.000935227
0.000932627
0.00093078
0.000929656
0.000929119
0.000928997
0.000929081
0.000929715
0.000930178
0.00093031
0.000930302
0.000930251
0.000929973
0.000929605
0.000928995
0.000928307
0.000927522
0.000926664
0.00092574
0.000924756
0.000923719
0.000922621
0.000921468
0.000920241
0.000918941
0.000917532
0.000916004
0.000914297
0.000912378
0.000910169
0.000907646
0.000904773
0.000901615
0.000898233
0.00089472
0.000891129
0.000887496
0.000883846
0.000880196
0.000876558
0.00087294
0.000869348
0.000865787
0.000862259
0.000858768
0.000855313
0.000851897
0.00084852
0.000845181
0.000841882
0.000838621
0.000835398
0.000832214
0.000829069
0.000825963
0.000822897
0.000819872
0.000816886
0.000813939
0.000811031
0.000808159
0.00080532
0.000802512
0.000799731
0.000796973
0.000794238
0.000791525
0.000788837
0.000786176
0.000783545
0.000780947
0.000778381
0.000775848
0.000773346
0.000770874
0.000768428
0.000766004
0.000763597
0.0007612
0.00075881
0.000756427
0.000754058
0.000751717
0.000749424
0.0007472
0.000745071
0.000743054
0.000741162
0.000739402
0.000737771
0.000736259
0.000734855
0.000733542
0.0007323
0.00073111
0.000729952
0.000728802
0.000727635
0.000726427
0.000725147
0.00072377
0.000722266
0.000720613
0.000718793
0.000716793
0.000714611
0.000712253
0.000709735
0.00070708
0.000704318
0.000701483
0.000698612
0.000695739
0.000692898
0.000690118
0.000687422
0.000684826
0.000682341
0.000679973
0.00067772
0.000675578
0.000673538
0.000671591
0.000669723
0.000667923
0.000666176
0.000664473
0.000662799
0.000661149
0.000659511
0.000657882
0.000656255
0.000654628
0.000652997
0.000651363
0.000649724
0.000648082
0.000646436
0.00064479
0.000643142
0.000641498
0.000639854
0.000638217
0.000636584
0.000634959
0.000633341
0.000631733
0.000630134
0.000628546
0.000626967
0.000625401
0.000623845
0.000622301
0.000620768
0.000619248
0.000617738
0.000616241
0.000614755
0.000613281
0.000611819
0.000610369
0.000608929
0.000607502
0.000606086
0.000604681
0.000603288
0.000601906
0.000600535
0.000599175
0.000597826
0.000596488
0.000595161
0.000593844
0.000592538
0.000591242
0.000589957
0.000588681
0.000587417
0.000586162
0.000584918
0.000583683
0.00058246
0.000581246
0.000580043
0.00057885
0.000577667
0.000576493
0.000575329
0.000574174
0.000573027
0.000571888
0.000570756
0.000569632
0.000568515
0.000567406
0.000566302
0.000565207
0.000564118
0.000563036
0.000561962
0.000560895
0.000559835
0.000558782
0.000557735
0.000556695
0.000555659
0.000554628
0.000553601
0.000552579
0.000551561
0.000550548
0.000549543
0.000548547
0.000547563
0.000546593
0.000545643
0.000544714
0.000543812
0.000542939
0.000542098
0.000541293
0.000540525
0.000539795
0.000539104
0.000538451
0.000537836
0.000537254
0.000536703
0.000536179
0.000535675
0.000535186
0.000534704
0.000534223
0.000533733
0.000533227
0.000532695
0.000532129
0.000531521
0.000530864
0.00053015
0.000529375
0.000528534
0.000527627
0.000526651
0.000525609
0.000524505
0.000523343
0.00052213
0.000520874
0.000519584
0.00051827
0.000516941
0.000515607
0.000514277
0.00051296
0.000511663
0.000510391
0.00050915
0.000507942
0.000506772
0.000505638
0.000504542
0.000503483
0.000502458
0.000501466
0.000500504
0.000499568
0.000498656
0.000497764
0.00049689
0.00049603
0.000495181
0.000494341
0.000493507
0.000492679
0.000491854
0.00049103
0.000490207
0.000489384
0.000488561
0.000487737
0.000486912
0.000486086
0.000485259
0.000484431
0.000483603
0.000482775
0.000481947
0.00048112
0.000480294
0.00047947
0.000478647
0.000477827
0.000477009
0.000476194
0.000475382
0.000474573
0.000473768
0.000472966
0.000472168
0.000471374
0.000470584
0.000469799
0.000469017
0.000468239
0.000467466
0.000466697
0.000465933
0.000465173
0.000464417
0.000463665
0.000462918
0.000462175
0.000461437
0.000460702
0.000459972
0.000459247
0.000458526
0.000457808
0.000457096
0.000456387
0.000455683
0.000454983
0.000454287
0.000453595
0.000452908
0.000452225
0.000451546
0.000450871
0.000450201
0.000449535
0.000448872
0.000448214
0.00044756
0.00044691
0.000446264
0.000445621
0.000444982
0.000444347
0.000443715
0.000443087
0.000442462
0.00044184
0.000441222
0.000440606
0.000439995
0.000439385
0.00043878
0.000438176
0.000437576
0.000436978
0.000436383
0.000435791
0.000435201
0.000434614
0.000434029
0.000433447
0.000432868
0.000432291
0.000431719
0.00043115
0.000430585
0.000430026
0.000429473
0.000428926
0.000428388
0.000427858
0.000427339
0.000426831
0.000426336
0.000425854
0.000425386
0.000424933
0.000424496
0.000424075
0.000423671
0.000423283
0.00042291
0.000422553
0.000422211
0.000421882
0.000421564
0.000421257
0.000420957
0.000420662
0.00042037
0.000420078
0.000419784
0.000419483
0.000419173
0.00041885
0.000418512
0.000418155
0.000417777
0.000417375
0.000416947
0.000416491
0.000416005
0.000415488
0.000414941
0.000414362
0.000413754
0.000413117
0.000412452
0.000411762
0.00041105
0.000410319
0.000409572
0.000408812
0.000408043
0.000407269
0.000406492
0.000405717
0.000404945
0.000404181
0.000403426
0.000402683
0.000401951
0.000401235
0.000400533
0.000399847
0.000399177
0.000398522
0.000397883
0.000397258
0.000396647
0.000396049
0.000395463
0.000394888
0.000394323
0.000393766
0.000393218
0.000392675
0.000392138
0.000391605
0.000391077
0.000390551
0.000390027
0.000389505
0.000388984
0.000388463
0.000387943
0.000387423
0.000386903
0.000386383
0.000385862
0.000385341
0.00038482
0.000384298
0.000383776
0.000383254
0.000382732
0.00038221
0.000381688
0.000381167
0.000380646
0.000380126
0.000379607
0.000379089
0.000378572
0.000378056
0.000377541
0.000377028
0.000376517
0.000376007
0.000375499
0.000374992
0.000374487
0.000373985
0.000373484
0.000372985
0.000372489
0.000371994
0.000371501
0.000371011
0.000370523
0.000370037
0.000369553
0.000369071
0.000368591
0.000368114
0.000367639
0.000367166
0.000366696
0.000366228
0.000365762
0.000365298
0.000364836
0.000364377
0.00036392
0.000363466
0.000363013
0.000362563
0.000362115
0.00036167
0.000361226
0.000360785
0.000360346
0.000359909
0.000359475
0.000359042
0.000358611
0.000358183
0.000357756
0.000357332
0.000356909
0.000356488
0.000356069
0.000355652
0.000355237
0.000354823
0.000354411
0.000354001
0.000353592
0.000353184
0.000352779
0.000352375
0.000351972
0.000351571
0.000351171
0.000350773
0.000350376
0.000349981
0.000349588
0.000349197
0.000348808
0.000348421
0.000348037
0.000347655
0.000347277
0.000346902
0.00034653
0.000346163
0.000345801
0.000345443
0.00034509
0.000344744
0.000344404
0.00034407
0.000343743
0.000343423
0.000343111
0.000342806
0.000342509
0.00034222
0.000341938
0.000341664
0.000341398
0.000341138
0.000340885
0.000340638
0.000340396
0.000340158
0.000339924
0.000339693
0.000339464
0.000339234
0.000339005
0.000338773
0.000338538
0.000338298
0.000338053
0.0003378
0.000337539
0.000337268
0.000336985
0.000336691
0.000336384
0.000336062
0.000335726
0.000335373
0.000335006
0.000334622
0.000334223
0.000333806
0.000333376
0.000332927
0.000332468
0.000331991
0.000331506
0.000331006
0.000330499
0.00032998
0.000329458
0.000328926
0.000328393
0.000327856
0.000327318
0.00032678
0.000326243
0.000325708
0.000325177
0.000324651
0.00032413
0.000323614
0.000323105
0.000322603
0.000322108
0.000321619
0.000321138
0.000320664
0.000320197
0.000319737
0.000319283
0.000318835
0.000318392
0.000317955
0.000317523
0.000317095
0.00031667
0.000316249
0.000315831
0.000315416
0.000315002
0.000314591
0.000314181
0.000313772
0.000313364
0.000312956
0.000312549
0.000312142
0.000311735
0.000311329
0.000310922
0.000310515
0.000310107
0.0003097
0.000309292
0.000308884
0.000308475
0.000308067
0.000307658
0.000307249
0.000306841
0.000306432
0.000306024
0.000305616
0.000305209
0.000304802
0.000304396
0.00030399
0.000303586
0.000303183
0.000302781
0.000302381
0.000301983
0.000301586
0.000301192
0.0003008
0.000300411
0.000300026
0.000299644
0.000299266
0.000298892
0.000298524
0.000298161
0.000297805
0.000297455
0.000297115
0.000296781
0.000296458
0.000296145
0.000295843
0.000295556
0.000295277
0.000295018
0.000294767
0.000294536
0.000294318
0.000294116
0.000293934
0.000293761
0.000293613
0.000293472
0.000293351
0.000293245
0.000293148
0.000293073
0.000292997
0.000292944
0.000292894
0.000292851
0.000292826
0.000292791
0.000292777
0.000292753
0.000292732
0.000292712
0.000292665
0.000292606
0.00029248
0.000292266
0.00029188
0.000291182
0.000289975
0.000287896
0.000284509
0.000279349
0.000272317
0.000264192
0.000256579
0.000250968
0.000247625
0.000245911
0.000245107
0.000244724
0.000244556
0.000244478
0.000244449
0.000244449
0.000244455
0.00024447
0.000244489
0.000244512
0.000244536
0.000244562
0.00024459
0.00024462
0.000244652
0.000244686
0.000244723
0.000244761
0.000244802
0.000244845
0.000244892
0.00024494
0.000244992
0.000245046
0.000245104
0.000245164
0.000245228
0.000245295
0.000245365
0.000245438
0.000245515
0.000245594
0.000245676
0.000245761
0.000245849
0.000245938
0.00024603
0.000246124
0.000246219
0.000246316
0.000246413
0.000246511
0.000246608
0.000246706
0.000246802
0.000246897
0.000246991
0.000247082
0.000247171
0.000247256
0.000247337
0.000247414
0.000247487
0.000247554
0.000247616
0.000247671
0.000247721
0.000247762
0.000247797
0.000247824
0.000247842
0.000247853
0.000247856
0.000247856
0.000247855
0.000247845
0.000247818
0.000247783
0.000247742
0.000247695
0.000247641
0.000247582
0.000247518
0.000247449
0.000247376
0.000247299
0.000247219
0.000247136
0.000247051
0.000246965
0.000246878
0.00024679
0.000246703
0.000246616
0.00024653
0.000246446
0.000246363
0.000246283
0.000246205
0.00024613
0.000246057
0.000245987
0.000245921
0.000245858
0.000245797
0.00024574
0.000245686
0.000245635
0.000245587
0.000245542
0.0002455
0.00024546
0.000245423
0.000245388
0.000245354
0.000245323
0.000245294
0.000245266
0.000245239
0.000245214
0.00024519
0.000245167
0.000245144
0.000245122
0.000245101
0.00024508
0.00024506
0.000245039
0.000245019
0.000244999
0.000244979
0.000244959
0.000244939
0.000244919
0.000244898
0.000244878
0.000244857
0.000244837
0.000244816
0.000244795
0.000244774
0.000244753
0.000244732
0.00024471
0.000244689
0.000244668
0.000244647
0.000244626
0.000244605
0.000244584
0.000244563
0.000244543
0.000244523
0.000244503
0.000244483
0.000244464
0.000244445
0.000244426
0.000244408
0.00024439
0.000244373
0.000244356
0.00024434
0.000244324
0.000244308
0.000244293
0.000244279
0.000244265
0.000244252
0.00024424
0.000244228
0.000244216
0.000244206
0.000244196
0.000244186
0.000244177
0.000244169
0.000244161
0.000244154
0.000244148
0.000244143
0.000244138
0.000244133
0.00024413
0.000244127
0.000244124
0.000244123
0.000244121
0.000244121
0.000244121
0.000244121
0.000244121
0.000244123
0.000244126
0.000244128
0.000244132
0.000244136
0.000244141
0.000244146
0.000244152
0.000244158
0.000244165
0.000244172
0.000244181
0.000244189
0.000244198
0.000244207
0.000244217
0.000244228
0.000244239
0.00024425
0.000244263
0.000244275
0.000244289
0.000244303
0.000244318
0.000244334
0.00024435
0.000244368
0.000244386
0.000244405
0.000244425
0.000244447
0.00024447
0.000244494
0.000244519
0.000244546
0.000244574
0.000244605
0.000244636
0.000244671
0.000244706
0.000244744
0.000244784
0.000244826
0.00024487
0.000244917
0.000244966
0.000245018
0.000245072
0.00024513
0.000245189
0.000245251
0.000245315
0.000245382
0.000245452
0.000245523
0.000245598
0.000245672
0.000245754
0.000245828
0.000245919
0.00024599
0.000246091
0.000246155
0.000246266
0.000246325
0.000246442
0.000246495
0.000246617
0.000246663
0.000246788
0.000246826
0.000246951
0.000246982
0.000247132
)
;

boundaryField
{
    inlet
    {
        type            calculated;
        value           uniform 0.000236304;
    }
    outlet
    {
        type            calculated;
        value           uniform 0.000247115;
    }
    emptyWalls
    {
        type            empty;
    }
}


// ************************************************************************* //
