/*--------------------------------*- C++ -*----------------------------------*\
  =========                 |
  \\      /  F ield         | OpenFOAM: The Open Source CFD Toolbox
   \\    /   O peration     | Website:  https://openfoam.org
    \\  /    A nd           | Version:  9
     \\/     M anipulation  |
\*---------------------------------------------------------------------------*/
FoamFile
{
    format      ascii;
    class       volScalarField;
    location    "18400";
    object      krc;
}
// * * * * * * * * * * * * * * * * * * * * * * * * * * * * * * * * * * * * * //

dimensions      [0 0 0 0 0 0 0];

internalField   nonuniform List<scalar> 
1000
(
1.37918e-07
1.29835e-06
4.6228e-06
9.89403e-06
1.70798e-05
2.61942e-05
3.72638e-05
5.03016e-05
6.53017e-05
8.22061e-05
0.000100896
0.000121164
0.000142705
0.000165102
0.000187846
0.00021037
0.000232111
0.000252573
0.000271391
0.000288411
0.000303847
0.000319305
0.000342706
0.000412597
0.00071044
0.00321781
0.0251676
0.0404986
0.0445993
0.0464154
0.0475233
0.0483338
0.0489887
0.049552
0.0500519
0.0505078
0.0509272
0.051319
0.0516857
0.0520329
0.0523607
0.0526735
0.0529711
0.0532574
0.0535318
0.053798
0.0540554
0.0543069
0.0545521
0.0547936
0.0550309
0.0552664
0.0554997
0.0557332
0.0559686
0.0562094
0.0564517
0.0566959
0.0569426
0.0571927
0.0574471
0.0577071
0.0579746
0.058252
0.0585425
0.058851
0.0591841
0.0595509
0.0599625
0.0604313
0.0609675
0.0615751
0.0622486
0.0629742
0.0637372
0.0645262
0.0653334
0.0661535
0.0669827
0.0678182
0.0686581
0.069501
0.0703458
0.0711916
0.0720378
0.0728838
0.0737294
0.0745742
0.0754179
0.0762603
0.0771013
0.0779408
0.0787785
0.0796145
0.0804486
0.0812809
0.0821111
0.0829393
0.0837655
0.0845897
0.0854117
0.0862316
0.0870494
0.087865
0.0886785
0.0894898
0.0902989
0.0911058
0.0919106
0.0927132
0.0935136
0.0943119
0.095108
0.0959019
0.0966937
0.0974833
0.0982707
0.0990561
0.0998393
0.10062
0.101399
0.102176
0.102951
0.103724
0.104494
0.105263
0.106029
0.106794
0.107556
0.108316
0.109074
0.10983
0.110584
0.111336
0.112086
0.112834
0.11358
0.114324
0.115066
0.115807
0.116545
0.117282
0.118017
0.11875
0.119481
0.120211
0.120939
0.121665
0.12239
0.123113
0.123834
0.124553
0.125271
0.125987
0.126701
0.127413
0.128124
0.128833
0.12954
0.130246
0.13095
0.131652
0.132352
0.133051
0.133748
0.134443
0.135137
0.135829
0.13652
0.137209
0.137896
0.138582
0.139266
0.139949
0.140631
0.141311
0.141989
0.142666
0.143341
0.144015
0.144688
0.145359
0.146029
0.146697
0.147364
0.148029
0.148693
0.149356
0.150017
0.150677
0.151336
0.151993
0.152649
0.153303
0.153957
0.154609
0.155259
0.155908
0.156556
0.157203
0.157849
0.158493
0.159136
0.159778
0.160418
0.161057
0.161695
0.162332
0.162968
0.163602
0.164235
0.164867
0.165498
0.166128
0.166756
0.167384
0.16801
0.168635
0.169259
0.169882
0.170504
0.171125
0.171744
0.172363
0.17298
0.173596
0.174212
0.174826
0.175439
0.176051
0.176662
0.177272
0.177881
0.178489
0.179096
0.179702
0.180307
0.180911
0.181514
0.182116
0.182717
0.183317
0.183916
0.184514
0.185112
0.185708
0.186303
0.186898
0.187491
0.188084
0.188676
0.189266
0.189856
0.190445
0.191034
0.191621
0.192207
0.192793
0.193377
0.193961
0.194544
0.195125
0.195706
0.196286
0.196866
0.197444
0.198021
0.198598
0.199173
0.199748
0.200322
0.200896
0.201468
0.20204
0.202611
0.203181
0.20375
0.204319
0.204887
0.205455
0.206022
0.206588
0.207154
0.20772
0.208284
0.208848
0.209412
0.209975
0.210538
0.2111
0.211661
0.212221
0.212781
0.213341
0.2139
0.214458
0.215015
0.215572
0.216128
0.216683
0.217238
0.217792
0.218345
0.218897
0.219449
0.22
0.220551
0.221101
0.22165
0.222199
0.222747
0.223294
0.223841
0.224387
0.224933
0.225478
0.226023
0.226567
0.22711
0.227653
0.228196
0.228738
0.229279
0.22982
0.230361
0.230901
0.23144
0.231979
0.232517
0.233055
0.233593
0.23413
0.234666
0.235202
0.235738
0.236273
0.236807
0.237341
0.237875
0.238408
0.238941
0.239473
0.240005
0.240537
0.241068
0.241598
0.242128
0.242658
0.243187
0.243716
0.244244
0.244772
0.2453
0.245827
0.246354
0.24688
0.247406
0.247932
0.248457
0.248982
0.249507
0.250031
0.250554
0.251078
0.251601
0.252123
0.252646
0.253168
0.253689
0.25421
0.254731
0.255252
0.255772
0.256292
0.256812
0.257331
0.25785
0.258368
0.258887
0.259405
0.259923
0.26044
0.260957
0.261474
0.26199
0.262507
0.263023
0.263538
0.264054
0.264569
0.265084
0.265598
0.266113
0.266627
0.267141
0.267654
0.268168
0.268681
0.269194
0.269707
0.270219
0.270731
0.271243
0.271755
0.272267
0.272778
0.273289
0.2738
0.27431
0.274821
0.275331
0.275841
0.27635
0.27686
0.277369
0.277878
0.278386
0.278895
0.279403
0.279911
0.280419
0.280926
0.281433
0.281941
0.282448
0.282954
0.283461
0.283968
0.284474
0.284981
0.285487
0.285993
0.2865
0.287006
0.287512
0.288018
0.288525
0.289031
0.289538
0.290045
0.290551
0.291058
0.291565
0.292072
0.292579
0.293086
0.293594
0.294101
0.294608
0.295116
0.295623
0.29613
0.296638
0.297145
0.297653
0.29816
0.298667
0.299174
0.299682
0.300189
0.300696
0.301203
0.30171
0.302216
0.302723
0.30323
0.303737
0.304243
0.30475
0.305257
0.305764
0.30627
0.306777
0.307284
0.307791
0.308298
0.308805
0.309312
0.309819
0.310326
0.310833
0.311341
0.311848
0.312356
0.312863
0.313371
0.313879
0.314387
0.314896
0.315404
0.315913
0.316421
0.31693
0.317439
0.317948
0.318458
0.318967
0.319477
0.319987
0.320497
0.321007
0.321518
0.322028
0.322539
0.32305
0.323561
0.324073
0.324584
0.325096
0.325608
0.326121
0.326633
0.327146
0.327659
0.328172
0.328686
0.3292
0.329714
0.330228
0.330743
0.331258
0.331773
0.332288
0.332804
0.33332
0.333836
0.334353
0.33487
0.335387
0.335905
0.336423
0.336941
0.33746
0.337979
0.338498
0.339018
0.339538
0.340058
0.340579
0.3411
0.341622
0.342144
0.342666
0.343189
0.343712
0.344236
0.34476
0.345285
0.34581
0.346335
0.346861
0.347388
0.347914
0.348442
0.34897
0.349498
0.350027
0.350556
0.351086
0.351617
0.352148
0.352679
0.353211
0.353744
0.354277
0.354811
0.355345
0.35588
0.356416
0.356952
0.357488
0.358026
0.358564
0.359102
0.359641
0.360181
0.360721
0.361263
0.361804
0.362346
0.362889
0.363433
0.363977
0.364522
0.365068
0.365614
0.366161
0.366709
0.367257
0.367806
0.368356
0.368907
0.369458
0.370011
0.370564
0.371118
0.371673
0.372228
0.372785
0.373342
0.373901
0.37446
0.375021
0.375582
0.376145
0.376709
0.377274
0.37784
0.378407
0.378976
0.379545
0.380116
0.380688
0.381262
0.381837
0.382413
0.38299
0.383569
0.384149
0.38473
0.385313
0.385897
0.386483
0.38707
0.387658
0.388248
0.388839
0.389431
0.390025
0.39062
0.391216
0.391814
0.392414
0.393014
0.393616
0.39422
0.394825
0.395431
0.396039
0.396648
0.397259
0.397871
0.398485
0.399101
0.399718
0.400337
0.400957
0.401579
0.402203
0.402828
0.403455
0.404084
0.404715
0.405348
0.405982
0.406618
0.407256
0.407896
0.408538
0.409182
0.409828
0.410476
0.411126
0.411778
0.412432
0.413088
0.413746
0.414407
0.415069
0.415733
0.416399
0.417067
0.417738
0.41841
0.419084
0.419761
0.420438
0.421118
0.421799
0.422483
0.423167
0.423853
0.42454
0.425227
0.425916
0.426604
0.427293
0.427982
0.428669
0.429355
0.430039
0.43072
0.431398
0.432071
0.432739
0.4334
0.434052
0.434695
0.435327
0.435946
0.43655
0.437137
0.437706
0.438254
0.43878
0.439281
0.439757
0.440206
0.440626
0.441016
0.441376
0.441706
0.442006
0.442277
0.442519
0.442733
0.442921
0.443085
0.443227
0.443348
0.443452
0.443539
0.443613
0.443675
0.443731
0.443783
0.443839
0.443908
0.444007
0.444164
0.444432
0.444903
0.445736
0.447215
0.44982
0.454348
0.462013
0.474425
0.493133
0.518453
0.548064
0.577131
0.600939
0.617556
0.627833
0.633698
0.636887
0.638576
0.639457
0.639912
0.640147
0.640267
0.640329
0.640359
0.640375
0.640382
0.640385
0.640387
0.640386
0.640386
0.640384
0.640383
0.640381
0.64038
0.640378
0.640376
0.640374
0.640372
0.64037
0.640367
0.640365
0.640362
0.64036
0.640357
0.640354
0.640351
0.640348
0.640345
0.640342
0.640338
0.640335
0.640332
0.640328
0.640325
0.640321
0.640318
0.640314
0.640311
0.640308
0.640304
0.640301
0.640298
0.640295
0.640292
0.640289
0.640287
0.640284
0.640282
0.64028
0.640278
0.640277
0.640276
0.640275
0.640274
0.640274
0.640274
0.640274
0.640275
0.640275
0.640276
0.640278
0.64028
0.640282
0.640284
0.640286
0.640289
0.640292
0.640295
0.640298
0.640302
0.640305
0.640309
0.640312
0.640316
0.64032
0.640323
0.640327
0.640331
0.640334
0.640338
0.640341
0.640345
0.640348
0.640351
0.640354
0.640357
0.64036
0.640362
0.640365
0.640367
0.640369
0.640371
0.640373
0.640375
0.640377
0.640378
0.64038
0.640381
0.640382
0.640384
0.640385
0.640386
0.640387
0.640388
0.640389
0.640389
0.64039
0.640391
0.640392
0.640392
0.640393
0.640394
0.640395
0.640395
0.640396
0.640397
0.640397
0.640398
0.640399
0.640399
0.6404
0.640401
0.640401
0.640402
0.640403
0.640404
0.640404
0.640405
0.640406
0.640407
0.640407
0.640408
0.640409
0.64041
0.64041
0.640411
0.640412
0.640413
0.640413
0.640414
0.640415
0.640415
0.640416
0.640417
0.640418
0.640418
0.640419
0.640419
0.64042
0.640421
0.640421
0.640422
0.640422
0.640423
0.640423
0.640424
0.640424
0.640425
0.640425
0.640425
0.640426
0.640426
0.640426
0.640427
0.640427
0.640427
0.640427
0.640427
0.640428
0.640428
0.640428
0.640428
0.640428
0.640428
0.640428
0.640428
0.640428
0.640428
0.640428
0.640428
0.640428
0.640427
0.640427
0.640427
0.640427
0.640427
0.640427
0.640427
0.640426
0.640426
0.640426
0.640426
0.640425
0.640425
0.640424
0.640424
0.640423
0.640423
0.640422
0.640421
0.64042
0.64042
0.640419
0.640418
0.640417
0.640415
0.640414
0.640413
0.640412
0.64041
0.640409
0.640408
0.640406
0.640405
0.640403
0.640401
0.6404
0.640398
0.640396
0.640394
0.640392
0.64039
0.640388
0.640386
0.640384
0.640381
0.640379
0.640376
0.640374
0.640371
0.640368
0.640365
0.640362
0.640359
0.640356
0.640352
0.64035
0.640346
0.640343
0.640339
0.640337
0.640332
0.64033
0.640325
0.640323
0.640318
0.640317
0.640312
0.640311
0.640305
)
;

boundaryField
{
    inlet
    {
        type            calculated;
        value           uniform 3.08149e-33;
    }
    outlet
    {
        type            calculated;
        value           uniform 0.640305;
    }
    emptyWalls
    {
        type            empty;
    }
}


// ************************************************************************* //
