/*--------------------------------*- C++ -*----------------------------------*\
  =========                 |
  \\      /  F ield         | OpenFOAM: The Open Source CFD Toolbox
   \\    /   O peration     | Website:  https://openfoam.org
    \\  /    A nd           | Version:  9
     \\/     M anipulation  |
\*---------------------------------------------------------------------------*/
FoamFile
{
    format      ascii;
    class       volVectorField;
    location    "20150";
    object      Uc;
}
// * * * * * * * * * * * * * * * * * * * * * * * * * * * * * * * * * * * * * //

dimensions      [0 0 0 0 0 0 0];

internalField   nonuniform List<vector> 
1000
(
(6.57218e-12 0 0)
(3.43222e-11 0 0)
(9.55626e-11 0 0)
(1.9344e-10 0 0)
(3.26421e-10 0 0)
(4.94e-10 0 0)
(6.96028e-10 0 0)
(9.3234e-10 0 0)
(1.20259e-09 0 0)
(1.50593e-09 0 0)
(1.84089e-09 0 0)
(2.20497e-09 0 0)
(2.59461e-09 0 0)
(3.00485e-09 0 0)
(3.42914e-09 0 0)
(3.85986e-09 0 0)
(4.28811e-09 0 0)
(4.70498e-09 0 0)
(5.10209e-09 0 0)
(5.47244e-09 0 0)
(5.81151e-09 0 0)
(6.11756e-09 0 0)
(6.39484e-09 0 0)
(6.66761e-09 0 0)
(7.05164e-09 0 0)
(8.07627e-09 0 0)
(1.17402e-08 0 0)
(2.76589e-08 0 0)
(1.03079e-07 0 0)
(1.83664e-07 0 0)
(2.07002e-07 0 0)
(2.14426e-07 0 0)
(2.18118e-07 0 0)
(2.20567e-07 0 0)
(2.22476e-07 0 0)
(2.24103e-07 0 0)
(2.2556e-07 0 0)
(2.26904e-07 0 0)
(2.28168e-07 0 0)
(2.2937e-07 0 0)
(2.30523e-07 0 0)
(2.31635e-07 0 0)
(2.32712e-07 0 0)
(2.33759e-07 0 0)
(2.34778e-07 0 0)
(2.35774e-07 0 0)
(2.3675e-07 0 0)
(2.37708e-07 0 0)
(2.38651e-07 0 0)
(2.39582e-07 0 0)
(2.40503e-07 0 0)
(2.41416e-07 0 0)
(2.42326e-07 0 0)
(2.43233e-07 0 0)
(2.44142e-07 0 0)
(2.45055e-07 0 0)
(2.45975e-07 0 0)
(2.46904e-07 0 0)
(2.47846e-07 0 0)
(2.48812e-07 0 0)
(2.49807e-07 0 0)
(2.50823e-07 0 0)
(2.5186e-07 0 0)
(2.52919e-07 0 0)
(2.54005e-07 0 0)
(2.55122e-07 0 0)
(2.56275e-07 0 0)
(2.57469e-07 0 0)
(2.58713e-07 0 0)
(2.60016e-07 0 0)
(2.61389e-07 0 0)
(2.6285e-07 0 0)
(2.64425e-07 0 0)
(2.6615e-07 0 0)
(2.6807e-07 0 0)
(2.7024e-07 0 0)
(2.72721e-07 0 0)
(2.75559e-07 0 0)
(2.78772e-07 0 0)
(2.82336e-07 0 0)
(2.8619e-07 0 0)
(2.90268e-07 0 0)
(2.94512e-07 0 0)
(2.98883e-07 0 0)
(3.03353e-07 0 0)
(3.07903e-07 0 0)
(3.1252e-07 0 0)
(3.17198e-07 0 0)
(3.21932e-07 0 0)
(3.26718e-07 0 0)
(3.31553e-07 0 0)
(3.36434e-07 0 0)
(3.41355e-07 0 0)
(3.46313e-07 0 0)
(3.51302e-07 0 0)
(3.56317e-07 0 0)
(3.61352e-07 0 0)
(3.66404e-07 0 0)
(3.71469e-07 0 0)
(3.76543e-07 0 0)
(3.81625e-07 0 0)
(3.86712e-07 0 0)
(3.91805e-07 0 0)
(3.96903e-07 0 0)
(4.02007e-07 0 0)
(4.07118e-07 0 0)
(4.12235e-07 0 0)
(4.17361e-07 0 0)
(4.22496e-07 0 0)
(4.27642e-07 0 0)
(4.32799e-07 0 0)
(4.37968e-07 0 0)
(4.4315e-07 0 0)
(4.48344e-07 0 0)
(4.5355e-07 0 0)
(4.5877e-07 0 0)
(4.64001e-07 0 0)
(4.69245e-07 0 0)
(4.745e-07 0 0)
(4.79767e-07 0 0)
(4.85045e-07 0 0)
(4.90334e-07 0 0)
(4.95633e-07 0 0)
(5.00943e-07 0 0)
(5.06262e-07 0 0)
(5.1159e-07 0 0)
(5.16928e-07 0 0)
(5.22275e-07 0 0)
(5.27631e-07 0 0)
(5.32996e-07 0 0)
(5.38369e-07 0 0)
(5.43751e-07 0 0)
(5.49141e-07 0 0)
(5.5454e-07 0 0)
(5.59947e-07 0 0)
(5.65362e-07 0 0)
(5.70784e-07 0 0)
(5.76215e-07 0 0)
(5.81654e-07 0 0)
(5.871e-07 0 0)
(5.92553e-07 0 0)
(5.98014e-07 0 0)
(6.03483e-07 0 0)
(6.08958e-07 0 0)
(6.14441e-07 0 0)
(6.19932e-07 0 0)
(6.25429e-07 0 0)
(6.30933e-07 0 0)
(6.36444e-07 0 0)
(6.41962e-07 0 0)
(6.47487e-07 0 0)
(6.53018e-07 0 0)
(6.58556e-07 0 0)
(6.64101e-07 0 0)
(6.69652e-07 0 0)
(6.7521e-07 0 0)
(6.80774e-07 0 0)
(6.86344e-07 0 0)
(6.9192e-07 0 0)
(6.97503e-07 0 0)
(7.03091e-07 0 0)
(7.08685e-07 0 0)
(7.14285e-07 0 0)
(7.19891e-07 0 0)
(7.25503e-07 0 0)
(7.31121e-07 0 0)
(7.36745e-07 0 0)
(7.42375e-07 0 0)
(7.48011e-07 0 0)
(7.53654e-07 0 0)
(7.59302e-07 0 0)
(7.64957e-07 0 0)
(7.70618e-07 0 0)
(7.76284e-07 0 0)
(7.81957e-07 0 0)
(7.87635e-07 0 0)
(7.93318e-07 0 0)
(7.99007e-07 0 0)
(8.04702e-07 0 0)
(8.10402e-07 0 0)
(8.16107e-07 0 0)
(8.21819e-07 0 0)
(8.27536e-07 0 0)
(8.3326e-07 0 0)
(8.38991e-07 0 0)
(8.44728e-07 0 0)
(8.50471e-07 0 0)
(8.5622e-07 0 0)
(8.61974e-07 0 0)
(8.67732e-07 0 0)
(8.73492e-07 0 0)
(8.79253e-07 0 0)
(8.85014e-07 0 0)
(8.90773e-07 0 0)
(8.96529e-07 0 0)
(9.0228e-07 0 0)
(9.08027e-07 0 0)
(9.13769e-07 0 0)
(9.19505e-07 0 0)
(9.25236e-07 0 0)
(9.30963e-07 0 0)
(9.36686e-07 0 0)
(9.42408e-07 0 0)
(9.48129e-07 0 0)
(9.53851e-07 0 0)
(9.59578e-07 0 0)
(9.65311e-07 0 0)
(9.71053e-07 0 0)
(9.76808e-07 0 0)
(9.82578e-07 0 0)
(9.88365e-07 0 0)
(9.94174e-07 0 0)
(1.00001e-06 0 0)
(1.00586e-06 0 0)
(1.01175e-06 0 0)
(1.01766e-06 0 0)
(1.0236e-06 0 0)
(1.02956e-06 0 0)
(1.03555e-06 0 0)
(1.04157e-06 0 0)
(1.0476e-06 0 0)
(1.05365e-06 0 0)
(1.05972e-06 0 0)
(1.06579e-06 0 0)
(1.07187e-06 0 0)
(1.07796e-06 0 0)
(1.08404e-06 0 0)
(1.09013e-06 0 0)
(1.09621e-06 0 0)
(1.10228e-06 0 0)
(1.10835e-06 0 0)
(1.11442e-06 0 0)
(1.12048e-06 0 0)
(1.12653e-06 0 0)
(1.13258e-06 0 0)
(1.13863e-06 0 0)
(1.14467e-06 0 0)
(1.15071e-06 0 0)
(1.15676e-06 0 0)
(1.1628e-06 0 0)
(1.16885e-06 0 0)
(1.17489e-06 0 0)
(1.18095e-06 0 0)
(1.18701e-06 0 0)
(1.19307e-06 0 0)
(1.19914e-06 0 0)
(1.20522e-06 0 0)
(1.2113e-06 0 0)
(1.21739e-06 0 0)
(1.22349e-06 0 0)
(1.22959e-06 0 0)
(1.2357e-06 0 0)
(1.24182e-06 0 0)
(1.24795e-06 0 0)
(1.25408e-06 0 0)
(1.26022e-06 0 0)
(1.26636e-06 0 0)
(1.27251e-06 0 0)
(1.27867e-06 0 0)
(1.28483e-06 0 0)
(1.291e-06 0 0)
(1.29717e-06 0 0)
(1.30335e-06 0 0)
(1.30954e-06 0 0)
(1.31572e-06 0 0)
(1.32192e-06 0 0)
(1.32812e-06 0 0)
(1.33432e-06 0 0)
(1.34053e-06 0 0)
(1.34674e-06 0 0)
(1.35296e-06 0 0)
(1.35918e-06 0 0)
(1.36541e-06 0 0)
(1.37164e-06 0 0)
(1.37788e-06 0 0)
(1.38412e-06 0 0)
(1.39037e-06 0 0)
(1.39662e-06 0 0)
(1.40287e-06 0 0)
(1.40913e-06 0 0)
(1.4154e-06 0 0)
(1.42166e-06 0 0)
(1.42794e-06 0 0)
(1.43421e-06 0 0)
(1.4405e-06 0 0)
(1.44678e-06 0 0)
(1.45307e-06 0 0)
(1.45937e-06 0 0)
(1.46567e-06 0 0)
(1.47197e-06 0 0)
(1.47828e-06 0 0)
(1.48459e-06 0 0)
(1.49091e-06 0 0)
(1.49723e-06 0 0)
(1.50356e-06 0 0)
(1.50989e-06 0 0)
(1.51622e-06 0 0)
(1.52256e-06 0 0)
(1.5289e-06 0 0)
(1.53525e-06 0 0)
(1.5416e-06 0 0)
(1.54795e-06 0 0)
(1.55431e-06 0 0)
(1.56068e-06 0 0)
(1.56705e-06 0 0)
(1.57342e-06 0 0)
(1.5798e-06 0 0)
(1.58618e-06 0 0)
(1.59257e-06 0 0)
(1.59896e-06 0 0)
(1.60536e-06 0 0)
(1.61176e-06 0 0)
(1.61816e-06 0 0)
(1.62458e-06 0 0)
(1.63099e-06 0 0)
(1.63741e-06 0 0)
(1.64384e-06 0 0)
(1.65027e-06 0 0)
(1.65671e-06 0 0)
(1.66315e-06 0 0)
(1.66959e-06 0 0)
(1.67605e-06 0 0)
(1.6825e-06 0 0)
(1.68896e-06 0 0)
(1.69543e-06 0 0)
(1.7019e-06 0 0)
(1.70838e-06 0 0)
(1.71485e-06 0 0)
(1.72133e-06 0 0)
(1.72781e-06 0 0)
(1.7343e-06 0 0)
(1.74078e-06 0 0)
(1.74726e-06 0 0)
(1.75373e-06 0 0)
(1.76021e-06 0 0)
(1.76667e-06 0 0)
(1.77314e-06 0 0)
(1.7796e-06 0 0)
(1.78605e-06 0 0)
(1.7925e-06 0 0)
(1.79894e-06 0 0)
(1.80538e-06 0 0)
(1.81181e-06 0 0)
(1.81824e-06 0 0)
(1.82466e-06 0 0)
(1.83109e-06 0 0)
(1.83752e-06 0 0)
(1.84395e-06 0 0)
(1.85039e-06 0 0)
(1.85683e-06 0 0)
(1.86329e-06 0 0)
(1.86975e-06 0 0)
(1.87624e-06 0 0)
(1.88274e-06 0 0)
(1.88926e-06 0 0)
(1.89581e-06 0 0)
(1.90238e-06 0 0)
(1.90897e-06 0 0)
(1.9156e-06 0 0)
(1.92225e-06 0 0)
(1.92894e-06 0 0)
(1.93565e-06 0 0)
(1.94239e-06 0 0)
(1.94915e-06 0 0)
(1.95595e-06 0 0)
(1.96277e-06 0 0)
(1.9696e-06 0 0)
(1.97646e-06 0 0)
(1.98334e-06 0 0)
(1.99022e-06 0 0)
(1.99712e-06 0 0)
(2.00403e-06 0 0)
(2.01094e-06 0 0)
(2.01785e-06 0 0)
(2.02476e-06 0 0)
(2.03168e-06 0 0)
(2.03859e-06 0 0)
(2.0455e-06 0 0)
(2.0524e-06 0 0)
(2.0593e-06 0 0)
(2.0662e-06 0 0)
(2.07309e-06 0 0)
(2.07998e-06 0 0)
(2.08686e-06 0 0)
(2.09374e-06 0 0)
(2.10062e-06 0 0)
(2.10751e-06 0 0)
(2.11439e-06 0 0)
(2.12127e-06 0 0)
(2.12815e-06 0 0)
(2.13504e-06 0 0)
(2.14193e-06 0 0)
(2.14882e-06 0 0)
(2.15573e-06 0 0)
(2.16263e-06 0 0)
(2.16955e-06 0 0)
(2.17647e-06 0 0)
(2.18339e-06 0 0)
(2.19033e-06 0 0)
(2.19727e-06 0 0)
(2.20423e-06 0 0)
(2.21118e-06 0 0)
(2.21815e-06 0 0)
(2.22513e-06 0 0)
(2.23211e-06 0 0)
(2.2391e-06 0 0)
(2.24611e-06 0 0)
(2.25311e-06 0 0)
(2.26013e-06 0 0)
(2.26715e-06 0 0)
(2.27418e-06 0 0)
(2.28122e-06 0 0)
(2.28827e-06 0 0)
(2.29532e-06 0 0)
(2.30238e-06 0 0)
(2.30945e-06 0 0)
(2.31652e-06 0 0)
(2.3236e-06 0 0)
(2.33069e-06 0 0)
(2.33778e-06 0 0)
(2.34488e-06 0 0)
(2.35199e-06 0 0)
(2.3591e-06 0 0)
(2.36622e-06 0 0)
(2.37335e-06 0 0)
(2.38048e-06 0 0)
(2.38762e-06 0 0)
(2.39476e-06 0 0)
(2.40191e-06 0 0)
(2.40907e-06 0 0)
(2.41623e-06 0 0)
(2.4234e-06 0 0)
(2.43058e-06 0 0)
(2.43776e-06 0 0)
(2.44495e-06 0 0)
(2.45214e-06 0 0)
(2.45935e-06 0 0)
(2.46655e-06 0 0)
(2.47377e-06 0 0)
(2.48099e-06 0 0)
(2.48821e-06 0 0)
(2.49544e-06 0 0)
(2.50268e-06 0 0)
(2.50992e-06 0 0)
(2.51718e-06 0 0)
(2.52443e-06 0 0)
(2.53169e-06 0 0)
(2.53896e-06 0 0)
(2.54624e-06 0 0)
(2.55352e-06 0 0)
(2.56081e-06 0 0)
(2.5681e-06 0 0)
(2.5754e-06 0 0)
(2.58271e-06 0 0)
(2.59003e-06 0 0)
(2.59735e-06 0 0)
(2.60467e-06 0 0)
(2.61201e-06 0 0)
(2.61935e-06 0 0)
(2.62669e-06 0 0)
(2.63405e-06 0 0)
(2.64141e-06 0 0)
(2.64878e-06 0 0)
(2.65615e-06 0 0)
(2.66354e-06 0 0)
(2.67092e-06 0 0)
(2.67832e-06 0 0)
(2.68573e-06 0 0)
(2.69314e-06 0 0)
(2.70056e-06 0 0)
(2.70798e-06 0 0)
(2.71542e-06 0 0)
(2.72286e-06 0 0)
(2.73031e-06 0 0)
(2.73777e-06 0 0)
(2.74523e-06 0 0)
(2.7527e-06 0 0)
(2.76018e-06 0 0)
(2.76767e-06 0 0)
(2.77516e-06 0 0)
(2.78266e-06 0 0)
(2.79016e-06 0 0)
(2.79767e-06 0 0)
(2.80519e-06 0 0)
(2.81271e-06 0 0)
(2.82023e-06 0 0)
(2.82776e-06 0 0)
(2.83528e-06 0 0)
(2.84281e-06 0 0)
(2.85034e-06 0 0)
(2.85787e-06 0 0)
(2.8654e-06 0 0)
(2.87293e-06 0 0)
(2.88045e-06 0 0)
(2.88798e-06 0 0)
(2.8955e-06 0 0)
(2.90302e-06 0 0)
(2.91054e-06 0 0)
(2.91805e-06 0 0)
(2.92557e-06 0 0)
(2.93309e-06 0 0)
(2.94061e-06 0 0)
(2.94813e-06 0 0)
(2.95565e-06 0 0)
(2.96318e-06 0 0)
(2.97071e-06 0 0)
(2.97826e-06 0 0)
(2.98581e-06 0 0)
(2.99337e-06 0 0)
(3.00095e-06 0 0)
(3.00855e-06 0 0)
(3.01617e-06 0 0)
(3.0238e-06 0 0)
(3.03146e-06 0 0)
(3.03915e-06 0 0)
(3.04686e-06 0 0)
(3.0546e-06 0 0)
(3.06238e-06 0 0)
(3.07018e-06 0 0)
(3.07802e-06 0 0)
(3.08589e-06 0 0)
(3.09379e-06 0 0)
(3.10173e-06 0 0)
(3.10971e-06 0 0)
(3.11771e-06 0 0)
(3.12575e-06 0 0)
(3.13382e-06 0 0)
(3.14191e-06 0 0)
(3.15004e-06 0 0)
(3.15818e-06 0 0)
(3.16636e-06 0 0)
(3.17455e-06 0 0)
(3.18276e-06 0 0)
(3.19099e-06 0 0)
(3.19923e-06 0 0)
(3.20748e-06 0 0)
(3.21574e-06 0 0)
(3.22401e-06 0 0)
(3.23229e-06 0 0)
(3.24057e-06 0 0)
(3.24886e-06 0 0)
(3.25715e-06 0 0)
(3.26544e-06 0 0)
(3.27373e-06 0 0)
(3.28202e-06 0 0)
(3.29032e-06 0 0)
(3.29862e-06 0 0)
(3.30692e-06 0 0)
(3.31523e-06 0 0)
(3.32354e-06 0 0)
(3.33185e-06 0 0)
(3.34016e-06 0 0)
(3.34849e-06 0 0)
(3.35681e-06 0 0)
(3.36515e-06 0 0)
(3.37349e-06 0 0)
(3.38185e-06 0 0)
(3.39021e-06 0 0)
(3.39858e-06 0 0)
(3.40696e-06 0 0)
(3.41536e-06 0 0)
(3.42376e-06 0 0)
(3.43218e-06 0 0)
(3.44061e-06 0 0)
(3.44906e-06 0 0)
(3.45752e-06 0 0)
(3.46599e-06 0 0)
(3.47447e-06 0 0)
(3.48297e-06 0 0)
(3.49149e-06 0 0)
(3.50002e-06 0 0)
(3.50856e-06 0 0)
(3.51712e-06 0 0)
(3.52569e-06 0 0)
(3.53428e-06 0 0)
(3.54288e-06 0 0)
(3.55149e-06 0 0)
(3.56012e-06 0 0)
(3.56877e-06 0 0)
(3.57743e-06 0 0)
(3.5861e-06 0 0)
(3.59479e-06 0 0)
(3.60349e-06 0 0)
(3.6122e-06 0 0)
(3.62093e-06 0 0)
(3.62968e-06 0 0)
(3.63843e-06 0 0)
(3.6472e-06 0 0)
(3.65599e-06 0 0)
(3.66479e-06 0 0)
(3.6736e-06 0 0)
(3.68243e-06 0 0)
(3.69127e-06 0 0)
(3.70013e-06 0 0)
(3.709e-06 0 0)
(3.71788e-06 0 0)
(3.72678e-06 0 0)
(3.73569e-06 0 0)
(3.74462e-06 0 0)
(3.75356e-06 0 0)
(3.76252e-06 0 0)
(3.77149e-06 0 0)
(3.78047e-06 0 0)
(3.78947e-06 0 0)
(3.79848e-06 0 0)
(3.80751e-06 0 0)
(3.81656e-06 0 0)
(3.82561e-06 0 0)
(3.83469e-06 0 0)
(3.84378e-06 0 0)
(3.85288e-06 0 0)
(3.862e-06 0 0)
(3.87113e-06 0 0)
(3.88028e-06 0 0)
(3.88945e-06 0 0)
(3.89863e-06 0 0)
(3.90783e-06 0 0)
(3.91704e-06 0 0)
(3.92627e-06 0 0)
(3.93552e-06 0 0)
(3.94478e-06 0 0)
(3.95406e-06 0 0)
(3.96335e-06 0 0)
(3.97266e-06 0 0)
(3.98199e-06 0 0)
(3.99134e-06 0 0)
(4.0007e-06 0 0)
(4.01008e-06 0 0)
(4.01948e-06 0 0)
(4.02889e-06 0 0)
(4.03832e-06 0 0)
(4.04778e-06 0 0)
(4.05725e-06 0 0)
(4.06673e-06 0 0)
(4.07624e-06 0 0)
(4.08577e-06 0 0)
(4.09531e-06 0 0)
(4.10487e-06 0 0)
(4.11446e-06 0 0)
(4.12406e-06 0 0)
(4.13368e-06 0 0)
(4.14332e-06 0 0)
(4.15298e-06 0 0)
(4.16266e-06 0 0)
(4.17236e-06 0 0)
(4.18208e-06 0 0)
(4.19182e-06 0 0)
(4.20158e-06 0 0)
(4.21136e-06 0 0)
(4.22116e-06 0 0)
(4.23097e-06 0 0)
(4.24081e-06 0 0)
(4.25067e-06 0 0)
(4.26054e-06 0 0)
(4.27043e-06 0 0)
(4.28034e-06 0 0)
(4.29026e-06 0 0)
(4.3002e-06 0 0)
(4.31016e-06 0 0)
(4.32014e-06 0 0)
(4.33013e-06 0 0)
(4.34013e-06 0 0)
(4.35015e-06 0 0)
(4.36019e-06 0 0)
(4.37024e-06 0 0)
(4.3803e-06 0 0)
(4.39038e-06 0 0)
(4.40047e-06 0 0)
(4.41058e-06 0 0)
(4.42071e-06 0 0)
(4.43085e-06 0 0)
(4.441e-06 0 0)
(4.45117e-06 0 0)
(4.46136e-06 0 0)
(4.47157e-06 0 0)
(4.4818e-06 0 0)
(4.49205e-06 0 0)
(4.50233e-06 0 0)
(4.51263e-06 0 0)
(4.52295e-06 0 0)
(4.53331e-06 0 0)
(4.54369e-06 0 0)
(4.55411e-06 0 0)
(4.56456e-06 0 0)
(4.57505e-06 0 0)
(4.58557e-06 0 0)
(4.59614e-06 0 0)
(4.60675e-06 0 0)
(4.6174e-06 0 0)
(4.62811e-06 0 0)
(4.63886e-06 0 0)
(4.64966e-06 0 0)
(4.66051e-06 0 0)
(4.67142e-06 0 0)
(4.68239e-06 0 0)
(4.69341e-06 0 0)
(4.70449e-06 0 0)
(4.71562e-06 0 0)
(4.72682e-06 0 0)
(4.73807e-06 0 0)
(4.74939e-06 0 0)
(4.76076e-06 0 0)
(4.77218e-06 0 0)
(4.78367e-06 0 0)
(4.79521e-06 0 0)
(4.80681e-06 0 0)
(4.81846e-06 0 0)
(4.83016e-06 0 0)
(4.84191e-06 0 0)
(4.85371e-06 0 0)
(4.86555e-06 0 0)
(4.87744e-06 0 0)
(4.88938e-06 0 0)
(4.90135e-06 0 0)
(4.91337e-06 0 0)
(4.92543e-06 0 0)
(4.93752e-06 0 0)
(4.94964e-06 0 0)
(4.96181e-06 0 0)
(4.974e-06 0 0)
(4.98624e-06 0 0)
(4.9985e-06 0 0)
(5.0108e-06 0 0)
(5.02313e-06 0 0)
(5.0355e-06 0 0)
(5.0479e-06 0 0)
(5.06033e-06 0 0)
(5.07279e-06 0 0)
(5.0853e-06 0 0)
(5.09783e-06 0 0)
(5.1104e-06 0 0)
(5.12301e-06 0 0)
(5.13565e-06 0 0)
(5.14833e-06 0 0)
(5.16105e-06 0 0)
(5.17381e-06 0 0)
(5.1866e-06 0 0)
(5.19944e-06 0 0)
(5.21231e-06 0 0)
(5.22522e-06 0 0)
(5.23817e-06 0 0)
(5.25116e-06 0 0)
(5.26419e-06 0 0)
(5.27725e-06 0 0)
(5.29035e-06 0 0)
(5.30349e-06 0 0)
(5.31665e-06 0 0)
(5.32984e-06 0 0)
(5.34306e-06 0 0)
(5.35631e-06 0 0)
(5.36957e-06 0 0)
(5.38285e-06 0 0)
(5.39614e-06 0 0)
(5.40942e-06 0 0)
(5.4227e-06 0 0)
(5.43596e-06 0 0)
(5.4492e-06 0 0)
(5.46241e-06 0 0)
(5.47555e-06 0 0)
(5.48863e-06 0 0)
(5.50163e-06 0 0)
(5.51451e-06 0 0)
(5.52728e-06 0 0)
(5.53989e-06 0 0)
(5.55232e-06 0 0)
(5.56455e-06 0 0)
(5.57654e-06 0 0)
(5.58826e-06 0 0)
(5.59967e-06 0 0)
(5.61075e-06 0 0)
(5.62146e-06 0 0)
(5.63176e-06 0 0)
(5.64162e-06 0 0)
(5.651e-06 0 0)
(5.65989e-06 0 0)
(5.66826e-06 0 0)
(5.6761e-06 0 0)
(5.68338e-06 0 0)
(5.6901e-06 0 0)
(5.69626e-06 0 0)
(5.70187e-06 0 0)
(5.70693e-06 0 0)
(5.71147e-06 0 0)
(5.71551e-06 0 0)
(5.71908e-06 0 0)
(5.72219e-06 0 0)
(5.7249e-06 0 0)
(5.72723e-06 0 0)
(5.72922e-06 0 0)
(5.73092e-06 0 0)
(5.73236e-06 0 0)
(5.73357e-06 0 0)
(5.73458e-06 0 0)
(5.73545e-06 0 0)
(5.73625e-06 0 0)
(5.73703e-06 0 0)
(5.7379e-06 0 0)
(5.73906e-06 0 0)
(5.74078e-06 0 0)
(5.74362e-06 0 0)
(5.74853e-06 0 0)
(5.75718e-06 0 0)
(5.77255e-06 0 0)
(5.79985e-06 0 0)
(5.848e-06 0 0)
(5.93176e-06 0 0)
(6.0738e-06 0 0)
(6.30455e-06 0 0)
(6.65464e-06 0 0)
(7.13468e-06 0 0)
(7.70942e-06 0 0)
(8.2944e-06 0 0)
(8.79582e-06 0 0)
(9.16222e-06 0 0)
(9.39745e-06 0 0)
(9.5352e-06 0 0)
(9.61131e-06 0 0)
(9.65194e-06 0 0)
(9.67322e-06 0 0)
(9.68425e-06 0 0)
(9.68993e-06 0 0)
(9.69282e-06 0 0)
(9.69429e-06 0 0)
(9.69501e-06 0 0)
(9.69535e-06 0 0)
(9.6955e-06 0 0)
(9.69554e-06 0 0)
(9.69553e-06 0 0)
(9.69549e-06 0 0)
(9.69544e-06 0 0)
(9.69537e-06 0 0)
(9.69529e-06 0 0)
(9.69521e-06 0 0)
(9.69513e-06 0 0)
(9.69504e-06 0 0)
(9.69494e-06 0 0)
(9.69484e-06 0 0)
(9.69473e-06 0 0)
(9.69462e-06 0 0)
(9.6945e-06 0 0)
(9.69437e-06 0 0)
(9.69424e-06 0 0)
(9.69409e-06 0 0)
(9.69394e-06 0 0)
(9.69378e-06 0 0)
(9.6936e-06 0 0)
(9.69342e-06 0 0)
(9.69322e-06 0 0)
(9.69301e-06 0 0)
(9.69279e-06 0 0)
(9.69255e-06 0 0)
(9.69231e-06 0 0)
(9.69204e-06 0 0)
(9.69177e-06 0 0)
(9.69148e-06 0 0)
(9.69117e-06 0 0)
(9.69085e-06 0 0)
(9.69051e-06 0 0)
(9.69016e-06 0 0)
(9.68979e-06 0 0)
(9.68941e-06 0 0)
(9.68902e-06 0 0)
(9.68861e-06 0 0)
(9.6882e-06 0 0)
(9.68777e-06 0 0)
(9.68733e-06 0 0)
(9.68688e-06 0 0)
(9.68643e-06 0 0)
(9.68596e-06 0 0)
(9.6855e-06 0 0)
(9.68503e-06 0 0)
(9.68456e-06 0 0)
(9.68409e-06 0 0)
(9.68363e-06 0 0)
(9.68317e-06 0 0)
(9.68271e-06 0 0)
(9.68227e-06 0 0)
(9.68184e-06 0 0)
(9.68142e-06 0 0)
(9.68102e-06 0 0)
(9.68063e-06 0 0)
(9.68027e-06 0 0)
(9.67993e-06 0 0)
(9.67961e-06 0 0)
(9.67932e-06 0 0)
(9.67905e-06 0 0)
(9.67882e-06 0 0)
(9.67862e-06 0 0)
(9.67845e-06 0 0)
(9.67832e-06 0 0)
(9.67823e-06 0 0)
(9.67817e-06 0 0)
(9.67814e-06 0 0)
(9.67813e-06 0 0)
(9.67814e-06 0 0)
(9.67817e-06 0 0)
(9.67827e-06 0 0)
(9.67842e-06 0 0)
(9.6786e-06 0 0)
(9.6788e-06 0 0)
(9.67904e-06 0 0)
(9.6793e-06 0 0)
(9.67959e-06 0 0)
(9.6799e-06 0 0)
(9.68023e-06 0 0)
(9.68057e-06 0 0)
(9.68094e-06 0 0)
(9.68131e-06 0 0)
(9.6817e-06 0 0)
(9.6821e-06 0 0)
(9.6825e-06 0 0)
(9.6829e-06 0 0)
(9.68331e-06 0 0)
(9.68372e-06 0 0)
(9.68412e-06 0 0)
(9.68452e-06 0 0)
(9.68491e-06 0 0)
(9.6853e-06 0 0)
(9.68568e-06 0 0)
(9.68604e-06 0 0)
(9.6864e-06 0 0)
(9.68674e-06 0 0)
(9.68707e-06 0 0)
(9.68739e-06 0 0)
(9.68769e-06 0 0)
(9.68798e-06 0 0)
(9.68826e-06 0 0)
(9.68852e-06 0 0)
(9.68877e-06 0 0)
(9.689e-06 0 0)
(9.68923e-06 0 0)
(9.68944e-06 0 0)
(9.68964e-06 0 0)
(9.68983e-06 0 0)
(9.69001e-06 0 0)
(9.69018e-06 0 0)
(9.69034e-06 0 0)
(9.6905e-06 0 0)
(9.69065e-06 0 0)
(9.69079e-06 0 0)
(9.69092e-06 0 0)
(9.69105e-06 0 0)
(9.69118e-06 0 0)
(9.6913e-06 0 0)
(9.69142e-06 0 0)
(9.69154e-06 0 0)
(9.69165e-06 0 0)
(9.69176e-06 0 0)
(9.69187e-06 0 0)
(9.69198e-06 0 0)
(9.69209e-06 0 0)
(9.6922e-06 0 0)
(9.69231e-06 0 0)
(9.69242e-06 0 0)
(9.69253e-06 0 0)
(9.69264e-06 0 0)
(9.69275e-06 0 0)
(9.69286e-06 0 0)
(9.69297e-06 0 0)
(9.69308e-06 0 0)
(9.69319e-06 0 0)
(9.6933e-06 0 0)
(9.69341e-06 0 0)
(9.69353e-06 0 0)
(9.69364e-06 0 0)
(9.69375e-06 0 0)
(9.69386e-06 0 0)
(9.69398e-06 0 0)
(9.69409e-06 0 0)
(9.6942e-06 0 0)
(9.69431e-06 0 0)
(9.69442e-06 0 0)
(9.69453e-06 0 0)
(9.69463e-06 0 0)
(9.69474e-06 0 0)
(9.69484e-06 0 0)
(9.69494e-06 0 0)
(9.69504e-06 0 0)
(9.69514e-06 0 0)
(9.69524e-06 0 0)
(9.69534e-06 0 0)
(9.69543e-06 0 0)
(9.69552e-06 0 0)
(9.69561e-06 0 0)
(9.69569e-06 0 0)
(9.69577e-06 0 0)
(9.69585e-06 0 0)
(9.69593e-06 0 0)
(9.69601e-06 0 0)
(9.69608e-06 0 0)
(9.69615e-06 0 0)
(9.69621e-06 0 0)
(9.69628e-06 0 0)
(9.69634e-06 0 0)
(9.69639e-06 0 0)
(9.69645e-06 0 0)
(9.6965e-06 0 0)
(9.69655e-06 0 0)
(9.69659e-06 0 0)
(9.69663e-06 0 0)
)
;

boundaryField
{
    inlet
    {
        type            fixedValue;
        value           uniform (0 0 0);
    }
    outlet
    {
        type            zeroGradient;
    }
    emptyWalls
    {
        type            empty;
    }
}


// ************************************************************************* //
