/*--------------------------------*- C++ -*----------------------------------*\
  =========                 |
  \\      /  F ield         | OpenFOAM: The Open Source CFD Toolbox
   \\    /   O peration     | Website:  https://openfoam.org
    \\  /    A nd           | Version:  9
     \\/     M anipulation  |
\*---------------------------------------------------------------------------*/
FoamFile
{
    format      ascii;
    class       volScalarField;
    location    "4600";
    object      Fb;
}
// * * * * * * * * * * * * * * * * * * * * * * * * * * * * * * * * * * * * * //

dimensions      [0 0 0 0 0 0 0];

internalField   nonuniform List<scalar> 
100
(
0.299991
0.300007
0.299998
0.300033
0.300143
0.300231
0.299981
0.300068
0.29982
0.299993
0.299813
0.299911
0.29977
0.299886
0.299696
0.299859
0.299695
0.299817
0.299657
0.299791
0.299603
0.299744
0.299579
0.299701
0.29955
0.299624
0.299594
0.299505
0.299653
0.299455
0.299597
0.299428
0.299558
0.299345
0.299511
0.299131
0.299529
0.299406
0.299248
0.299284
0.299403
0.299403
0.29951
0.299472
0.29957
0.299501
0.299586
0.299564
0.299661
0.299648
0.299715
0.299692
0.299743
0.29973
0.299776
0.299794
0.299859
0.299888
0.299942
0.299938
0.300007
0.300003
0.30011
0.300083
0.300186
0.300137
0.300221
0.300198
0.300283
0.300268
0.300338
0.300321
0.300395
0.300436
0.300483
0.300547
0.300577
0.300643
0.30067
0.300737
0.300763
0.300831
0.300857
0.300929
0.300962
0.301034
0.301053
0.301118
0.30113
0.301194
0.301205
0.301274
0.301293
0.301366
0.301389
0.301464
0.301486
0.301561
0.301718
0.0536361
)
;

boundaryField
{
    inlet
    {
        type            calculated;
        value           uniform 0.587717;
    }
    outlet
    {
        type            calculated;
        value           uniform 0.30155;
    }
    emptyWalls
    {
        type            empty;
    }
}


// ************************************************************************* //
