/*--------------------------------*- C++ -*----------------------------------*\
  =========                 |
  \\      /  F ield         | OpenFOAM: The Open Source CFD Toolbox
   \\    /   O peration     | Website:  https://openfoam.org
    \\  /    A nd           | Version:  9
     \\/     M anipulation  |
\*---------------------------------------------------------------------------*/
FoamFile
{
    format      ascii;
    class       volScalarField;
    location    "4600";
    object      kra;
}
// * * * * * * * * * * * * * * * * * * * * * * * * * * * * * * * * * * * * * //

dimensions      [0 0 0 0 0 0 0];

internalField   nonuniform List<scalar> 
100
(
4.07644e-05
3.0351e-05
3.2817e-05
3.14795e-05
3.14383e-05
3.11046e-05
3.09392e-05
3.07165e-05
3.05272e-05
3.03426e-05
3.01745e-05
3.00131e-05
2.98632e-05
2.97185e-05
2.95852e-05
2.94535e-05
2.93324e-05
2.92135e-05
2.9103e-05
2.89934e-05
2.88922e-05
2.87902e-05
2.86955e-05
2.86002e-05
2.85114e-05
2.84217e-05
2.83362e-05
2.82536e-05
2.81697e-05
2.8093e-05
2.80128e-05
2.79359e-05
2.785e-05
2.7755e-05
2.763e-05
2.74818e-05
2.73012e-05
2.73978e-05
2.74184e-05
2.74567e-05
2.7472e-05
2.74964e-05
2.75189e-05
2.75436e-05
2.75662e-05
2.75906e-05
2.76123e-05
2.76345e-05
2.76544e-05
2.76754e-05
2.76948e-05
2.7715e-05
2.77337e-05
2.77527e-05
2.77703e-05
2.77875e-05
2.78035e-05
2.78195e-05
2.7835e-05
2.78506e-05
2.7865e-05
2.78796e-05
2.78922e-05
2.79066e-05
2.79182e-05
2.79327e-05
2.79436e-05
2.79569e-05
2.79671e-05
2.79781e-05
2.79917e-05
2.7996e-05
2.802e-05
2.80118e-05
2.80418e-05
2.80275e-05
2.80583e-05
2.80431e-05
2.80727e-05
2.80572e-05
2.80865e-05
2.80702e-05
2.80978e-05
2.80814e-05
2.81085e-05
2.80914e-05
2.81176e-05
2.81008e-05
2.81263e-05
2.8109e-05
2.81336e-05
2.81159e-05
2.81393e-05
2.81211e-05
2.81437e-05
2.81251e-05
2.81468e-05
2.81279e-05
2.81514e-05
7.22814e-05
)
;

boundaryField
{
    inlet
    {
        type            calculated;
        value           uniform 1.22446e-05;
    }
    outlet
    {
        type            calculated;
        value           uniform 8.67875e-06;
    }
    emptyWalls
    {
        type            empty;
    }
}


// ************************************************************************* //
