/*--------------------------------*- C++ -*----------------------------------*\
  =========                 |
  \\      /  F ield         | OpenFOAM: The Open Source CFD Toolbox
   \\    /   O peration     | Website:  https://openfoam.org
    \\  /    A nd           | Version:  9
     \\/     M anipulation  |
\*---------------------------------------------------------------------------*/
FoamFile
{
    format      ascii;
    class       volScalarField;
    location    "4600";
    object      p;
}
// * * * * * * * * * * * * * * * * * * * * * * * * * * * * * * * * * * * * * //

dimensions      [0 0 0 0 0 0 0];

internalField   nonuniform List<scalar> 
100
(
6.10124e+06
6.09327e+06
6.08256e+06
6.07267e+06
6.06235e+06
6.05202e+06
6.04157e+06
6.03106e+06
6.02048e+06
6.00984e+06
5.99915e+06
5.9884e+06
5.9776e+06
5.96675e+06
5.95586e+06
5.94493e+06
5.93396e+06
5.92295e+06
5.9119e+06
5.90082e+06
5.8897e+06
5.87855e+06
5.86737e+06
5.85616e+06
5.84492e+06
5.83365e+06
5.82236e+06
5.81104e+06
5.79969e+06
5.78832e+06
5.77692e+06
5.7655e+06
5.75405e+06
5.74258e+06
5.73107e+06
5.71952e+06
5.70792e+06
5.6963e+06
5.68474e+06
5.6732e+06
5.66169e+06
5.6502e+06
5.63873e+06
5.62729e+06
5.61586e+06
5.60446e+06
5.59307e+06
5.58171e+06
5.57037e+06
5.55905e+06
5.54776e+06
5.53648e+06
5.52522e+06
5.51398e+06
5.50276e+06
5.49156e+06
5.48039e+06
5.46923e+06
5.45809e+06
5.44696e+06
5.43586e+06
5.42478e+06
5.41372e+06
5.40267e+06
5.39165e+06
5.38064e+06
5.36965e+06
5.35868e+06
5.34773e+06
5.33679e+06
5.32588e+06
5.31498e+06
5.3041e+06
5.29323e+06
5.28238e+06
5.27156e+06
5.26075e+06
5.24996e+06
5.23918e+06
5.22843e+06
5.21768e+06
5.20697e+06
5.19626e+06
5.18557e+06
5.1749e+06
5.16425e+06
5.15361e+06
5.14299e+06
5.13239e+06
5.12181e+06
5.11123e+06
5.10068e+06
5.09015e+06
5.07963e+06
5.06913e+06
5.05864e+06
5.04817e+06
5.03772e+06
5.02728e+06
5.01688e+06
)
;

boundaryField
{
    inlet
    {
        type            darcyGradPressure;
        gradient        uniform 3.90469e+06;
        Mf              Mf;
        phi             phi;
        value           uniform 6.10905e+06;
    }
    outlet
    {
        type            fixedValue;
        value           uniform 5e+06;
    }
    emptyWalls
    {
        type            empty;
    }
}


// ************************************************************************* //
