/*--------------------------------*- C++ -*----------------------------------*\
  =========                 |
  \\      /  F ield         | OpenFOAM: The Open Source CFD Toolbox
   \\    /   O peration     | Website:  https://openfoam.org
    \\  /    A nd           | Version:  9
     \\/     M anipulation  |
\*---------------------------------------------------------------------------*/
FoamFile
{
    format      ascii;
    class       surfaceScalarField;
    location    "4600";
    object      phia;
}
// * * * * * * * * * * * * * * * * * * * * * * * * * * * * * * * * * * * * * //

dimensions      [0 2 0 0 0 0 0];

internalField   nonuniform List<scalar> 
99
(
1.42076e-08
1.42024e-08
1.41966e-08
1.41878e-08
1.41765e-08
1.41737e-08
1.41681e-08
1.41623e-08
1.41555e-08
1.41477e-08
1.41405e-08
1.41327e-08
1.41246e-08
1.41168e-08
1.41085e-08
1.40998e-08
1.40914e-08
1.4083e-08
1.40743e-08
1.40659e-08
1.40574e-08
1.40486e-08
1.40399e-08
1.40311e-08
1.40226e-08
1.40129e-08
1.40048e-08
1.39948e-08
1.39859e-08
1.3977e-08
1.39675e-08
1.39574e-08
1.39459e-08
1.39316e-08
1.3913e-08
1.38907e-08
1.38676e-08
1.38523e-08
1.3839e-08
1.38222e-08
1.38068e-08
1.37918e-08
1.37773e-08
1.37628e-08
1.37486e-08
1.37345e-08
1.37198e-08
1.37049e-08
1.36898e-08
1.3675e-08
1.36601e-08
1.36453e-08
1.36303e-08
1.36152e-08
1.35998e-08
1.3584e-08
1.3568e-08
1.35521e-08
1.35363e-08
1.35203e-08
1.35042e-08
1.34877e-08
1.34712e-08
1.34547e-08
1.34383e-08
1.3422e-08
1.34053e-08
1.33886e-08
1.33717e-08
1.33545e-08
1.33383e-08
1.33198e-08
1.33037e-08
1.3287e-08
1.32685e-08
1.325e-08
1.32326e-08
1.32151e-08
1.31968e-08
1.31782e-08
1.316e-08
1.31418e-08
1.31234e-08
1.31047e-08
1.30858e-08
1.30671e-08
1.30485e-08
1.30299e-08
1.3011e-08
1.29921e-08
1.29732e-08
1.29542e-08
1.29349e-08
1.29156e-08
1.28962e-08
1.28767e-08
1.28572e-08
1.28377e-08
1.2818e-08
)
;

boundaryField
{
    inlet
    {
        type            calculated;
        value           uniform -1.42126e-08;
    }
    outlet
    {
        type            calculated;
        value           uniform 1.28056e-08;
    }
    emptyWalls
    {
        type            empty;
        value           nonuniform List<scalar> 0();
    }
}


// ************************************************************************* //
