/*--------------------------------*- C++ -*----------------------------------*\
  =========                 |
  \\      /  F ield         | OpenFOAM: The Open Source CFD Toolbox
   \\    /   O peration     | Website:  https://openfoam.org
    \\  /    A nd           | Version:  9
     \\/     M anipulation  |
\*---------------------------------------------------------------------------*/
FoamFile
{
    format      ascii;
    class       surfaceScalarField;
    location    "4600";
    object      phib;
}
// * * * * * * * * * * * * * * * * * * * * * * * * * * * * * * * * * * * * * //

dimensions      [0 2 0 0 0 0 0];

internalField   nonuniform List<scalar> 
99
(
6.09095e-09
6.09072e-09
6.09048e-09
6.0929e-09
6.09746e-09
6.09328e-09
6.09162e-09
6.09e-09
6.08922e-09
6.08916e-09
6.08832e-09
6.08789e-09
6.08763e-09
6.08689e-09
6.0866e-09
6.0866e-09
6.08617e-09
6.08578e-09
6.08551e-09
6.08498e-09
6.08449e-09
6.08425e-09
6.08382e-09
6.08352e-09
6.08274e-09
6.08319e-09
6.08198e-09
6.08257e-09
6.08207e-09
6.0815e-09
6.08123e-09
6.08083e-09
6.08028e-09
6.0795e-09
6.07858e-09
6.07751e-09
6.07857e-09
6.07746e-09
6.07545e-09
6.07779e-09
6.079e-09
6.08009e-09
6.08079e-09
6.08139e-09
6.08168e-09
6.08185e-09
6.08249e-09
6.08326e-09
6.08411e-09
6.08466e-09
6.08511e-09
6.08539e-09
6.08577e-09
6.08611e-09
6.08675e-09
6.08759e-09
6.08855e-09
6.08939e-09
6.0899e-09
6.09056e-09
6.09122e-09
6.09227e-09
6.09308e-09
6.09385e-09
6.0944e-09
6.09476e-09
6.09538e-09
6.096e-09
6.09672e-09
6.09727e-09
6.0978e-09
6.09842e-09
6.09897e-09
6.09964e-09
6.10056e-09
6.10151e-09
6.10243e-09
6.10336e-09
6.10431e-09
6.10524e-09
6.10615e-09
6.10709e-09
6.10811e-09
6.10915e-09
6.11019e-09
6.11116e-09
6.11199e-09
6.11277e-09
6.1135e-09
6.11425e-09
6.11505e-09
6.11591e-09
6.11685e-09
6.11782e-09
6.1188e-09
6.11977e-09
6.12076e-09
6.12175e-09
6.12278e-09
)
;

boundaryField
{
    inlet
    {
        type            calculated;
        value           uniform -6.09112e-09;
    }
    outlet
    {
        type            calculated;
        value           uniform 6.12258e-09;
    }
    emptyWalls
    {
        type            empty;
        value           nonuniform List<scalar> 0();
    }
}


// ************************************************************************* //
