/*--------------------------------*- C++ -*----------------------------------*\
  =========                 |
  \\      /  F ield         | OpenFOAM: The Open Source CFD Toolbox
   \\    /   O peration     | Website:  https://openfoam.org
    \\  /    A nd           | Version:  9
     \\/     M anipulation  |
\*---------------------------------------------------------------------------*/
FoamFile
{
    format      ascii;
    class       surfaceScalarField;
    location    "4600";
    object      phic;
}
// * * * * * * * * * * * * * * * * * * * * * * * * * * * * * * * * * * * * * //

dimensions      [0 2 0 0 0 0 0];

internalField   nonuniform List<scalar> 
99
(
5.19781e-12
1.0607e-11
1.66211e-11
2.30039e-11
2.97635e-11
3.67627e-11
4.39825e-11
5.14145e-11
5.90542e-11
6.69024e-11
7.495e-11
8.31738e-11
9.15501e-11
1.00056e-10
1.08671e-10
1.17372e-10
1.26145e-10
1.3498e-10
1.43872e-10
1.52818e-10
1.61817e-10
1.7087e-10
1.79979e-10
1.89142e-10
1.98372e-10
2.07644e-10
2.16976e-10
2.26333e-10
2.35741e-10
2.45242e-10
2.55005e-10
2.65463e-10
2.77519e-10
2.92604e-10
3.12142e-10
3.35489e-10
3.57573e-10
3.73975e-10
3.89269e-10
4.03737e-10
4.17886e-10
4.31821e-10
4.45691e-10
4.59556e-10
4.73464e-10
4.87429e-10
5.01465e-10
5.15589e-10
5.29802e-10
5.44116e-10
5.58525e-10
5.73039e-10
5.87659e-10
6.02381e-10
6.17198e-10
6.3212e-10
6.47139e-10
6.62273e-10
6.77506e-10
6.92839e-10
7.08286e-10
7.23808e-10
7.39462e-10
7.55186e-10
7.71048e-10
7.8698e-10
8.03036e-10
8.19172e-10
8.35343e-10
8.51978e-10
8.67617e-10
8.85545e-10
9.01085e-10
9.17064e-10
9.34687e-10
9.52196e-10
9.68694e-10
9.85261e-10
1.00267e-09
1.02026e-09
1.0376e-09
1.05481e-09
1.07224e-09
1.0899e-09
1.10776e-09
1.12551e-09
1.14323e-09
1.16109e-09
1.17922e-09
1.19736e-09
1.21547e-09
1.23362e-09
1.25194e-09
1.27032e-09
1.28877e-09
1.30722e-09
1.32574e-09
1.34432e-09
1.36299e-09
)
;

boundaryField
{
    inlet
    {
        type            calculated;
        value           uniform 0;
    }
    outlet
    {
        type            calculated;
        value           uniform 1.37551e-09;
    }
    emptyWalls
    {
        type            empty;
        value           nonuniform List<scalar> 0();
    }
}


// ************************************************************************* //
