/*--------------------------------*- C++ -*----------------------------------*\
  =========                 |
  \\      /  F ield         | OpenFOAM: The Open Source CFD Toolbox
   \\    /   O peration     | Website:  https://openfoam.org
    \\  /    A nd           | Version:  9
     \\/     M anipulation  |
\*---------------------------------------------------------------------------*/
FoamFile
{
    format      ascii;
    class       volVectorField;
    location    "4600";
    object      Ua;
}
// * * * * * * * * * * * * * * * * * * * * * * * * * * * * * * * * * * * * * //

dimensions      [0 0 0 0 0 0 0];

internalField   nonuniform List<vector> 
100
(
(0 0 8.97964e-06)
(0 0 1.1304e-05)
(0 0 1.12996e-05)
(0 0 1.12938e-05)
(0 0 1.12858e-05)
(0 0 1.12802e-05)
(0 0 1.12769e-05)
(0 0 1.12723e-05)
(0 0 1.12673e-05)
(0 0 1.12615e-05)
(0 0 1.12555e-05)
(0 0 1.12495e-05)
(0 0 1.12432e-05)
(0 0 1.12369e-05)
(0 0 1.12305e-05)
(0 0 1.12237e-05)
(0 0 1.12169e-05)
(0 0 1.12102e-05)
(0 0 1.12034e-05)
(0 0 1.11967e-05)
(0 0 1.11899e-05)
(0 0 1.1183e-05)
(0 0 1.11761e-05)
(0 0 1.11691e-05)
(0 0 1.11622e-05)
(0 0 1.1155e-05)
(0 0 1.11479e-05)
(0 0 1.11407e-05)
(0 0 1.11332e-05)
(0 0 1.11261e-05)
(0 0 1.11188e-05)
(0 0 1.1111e-05)
(0 0 1.11024e-05)
(0 0 1.10921e-05)
(0 0 1.1079e-05)
(0 0 1.10628e-05)
(0 0 1.10447e-05)
(0 0 1.10294e-05)
(0 0 1.1018e-05)
(0 0 1.10061e-05)
(0 0 1.09933e-05)
(0 0 1.09812e-05)
(0 0 1.09694e-05)
(0 0 1.09578e-05)
(0 0 1.09464e-05)
(0 0 1.09352e-05)
(0 0 1.09237e-05)
(0 0 1.09119e-05)
(0 0 1.09e-05)
(0 0 1.08881e-05)
(0 0 1.08763e-05)
(0 0 1.08645e-05)
(0 0 1.08526e-05)
(0 0 1.08407e-05)
(0 0 1.08285e-05)
(0 0 1.08161e-05)
(0 0 1.08035e-05)
(0 0 1.07908e-05)
(0 0 1.07781e-05)
(0 0 1.07655e-05)
(0 0 1.07527e-05)
(0 0 1.07397e-05)
(0 0 1.07266e-05)
(0 0 1.07135e-05)
(0 0 1.07004e-05)
(0 0 1.06874e-05)
(0 0 1.06743e-05)
(0 0 1.06609e-05)
(0 0 1.06476e-05)
(0 0 1.0634e-05)
(0 0 1.06207e-05)
(0 0 1.06069e-05)
(0 0 1.05931e-05)
(0 0 1.05801e-05)
(0 0 1.05661e-05)
(0 0 1.05514e-05)
(0 0 1.05371e-05)
(0 0 1.05232e-05)
(0 0 1.05089e-05)
(0 0 1.04943e-05)
(0 0 1.04796e-05)
(0 0 1.04652e-05)
(0 0 1.04506e-05)
(0 0 1.04358e-05)
(0 0 1.04209e-05)
(0 0 1.04059e-05)
(0 0 1.03911e-05)
(0 0 1.03763e-05)
(0 0 1.03613e-05)
(0 0 1.03463e-05)
(0 0 1.03313e-05)
(0 0 1.03162e-05)
(0 0 1.0301e-05)
(0 0 1.02856e-05)
(0 0 1.02702e-05)
(0 0 1.02547e-05)
(0 0 1.02392e-05)
(0 0 1.02237e-05)
(0 0 1.02081e-05)
(0 0 1.01953e-05)
)
;

boundaryField
{
    inlet
    {
        type            fixedValue;
        value           uniform (0 0 1.131e-05);
    }
    outlet
    {
        type            zeroGradient;
    }
    emptyWalls
    {
        type            empty;
    }
}


// ************************************************************************* //
