/*--------------------------------*- C++ -*----------------------------------*\
  =========                 |
  \\      /  F ield         | OpenFOAM: The Open Source CFD Toolbox
   \\    /   O peration     | Website:  https://openfoam.org
    \\  /    A nd           | Version:  9
     \\/     M anipulation  |
\*---------------------------------------------------------------------------*/
FoamFile
{
    format      ascii;
    class       volVectorField;
    location    "4600";
    object      Ub;
}
// * * * * * * * * * * * * * * * * * * * * * * * * * * * * * * * * * * * * * //

dimensions      [0 0 0 0 0 0 0];

internalField   nonuniform List<vector> 
100
(
(0 0 7.17144e-06)
(0 0 4.84693e-06)
(0 0 4.84675e-06)
(0 0 4.84761e-06)
(0 0 4.85039e-06)
(0 0 4.85054e-06)
(0 0 4.84822e-06)
(0 0 4.84691e-06)
(0 0 4.84596e-06)
(0 0 4.84562e-06)
(0 0 4.84527e-06)
(0 0 4.84476e-06)
(0 0 4.84448e-06)
(0 0 4.84408e-06)
(0 0 4.84368e-06)
(0 0 4.84356e-06)
(0 0 4.84339e-06)
(0 0 4.84306e-06)
(0 0 4.8428e-06)
(0 0 4.84248e-06)
(0 0 4.84208e-06)
(0 0 4.84179e-06)
(0 0 4.84152e-06)
(0 0 4.84123e-06)
(0 0 4.8408e-06)
(0 0 4.84067e-06)
(0 0 4.84036e-06)
(0 0 4.84012e-06)
(0 0 4.84015e-06)
(0 0 4.83973e-06)
(0 0 4.83939e-06)
(0 0 4.83913e-06)
(0 0 4.83875e-06)
(0 0 4.83822e-06)
(0 0 4.83755e-06)
(0 0 4.83676e-06)
(0 0 4.83675e-06)
(0 0 4.83673e-06)
(0 0 4.83549e-06)
(0 0 4.83562e-06)
(0 0 4.83703e-06)
(0 0 4.83795e-06)
(0 0 4.83866e-06)
(0 0 4.83918e-06)
(0 0 4.83953e-06)
(0 0 4.83971e-06)
(0 0 4.84004e-06)
(0 0 4.8406e-06)
(0 0 4.84124e-06)
(0 0 4.8418e-06)
(0 0 4.8422e-06)
(0 0 4.84248e-06)
(0 0 4.84275e-06)
(0 0 4.84304e-06)
(0 0 4.84343e-06)
(0 0 4.84402e-06)
(0 0 4.84473e-06)
(0 0 4.84545e-06)
(0 0 4.84599e-06)
(0 0 4.84645e-06)
(0 0 4.84697e-06)
(0 0 4.84766e-06)
(0 0 4.8484e-06)
(0 0 4.84902e-06)
(0 0 4.84955e-06)
(0 0 4.84991e-06)
(0 0 4.8503e-06)
(0 0 4.8508e-06)
(0 0 4.85133e-06)
(0 0 4.85183e-06)
(0 0 4.85227e-06)
(0 0 4.85272e-06)
(0 0 4.85319e-06)
(0 0 4.85367e-06)
(0 0 4.85431e-06)
(0 0 4.85505e-06)
(0 0 4.85579e-06)
(0 0 4.85653e-06)
(0 0 4.85728e-06)
(0 0 4.85803e-06)
(0 0 4.85876e-06)
(0 0 4.85949e-06)
(0 0 4.86027e-06)
(0 0 4.8611e-06)
(0 0 4.86192e-06)
(0 0 4.86272e-06)
(0 0 4.86343e-06)
(0 0 4.86408e-06)
(0 0 4.86468e-06)
(0 0 4.86527e-06)
(0 0 4.86588e-06)
(0 0 4.86655e-06)
(0 0 4.86726e-06)
(0 0 4.86802e-06)
(0 0 4.86879e-06)
(0 0 4.86957e-06)
(0 0 4.87035e-06)
(0 0 4.87114e-06)
(0 0 4.87194e-06)
(0 0 4.87228e-06)
)
;

boundaryField
{
    inlet
    {
        type            fixedValue;
        value           uniform (0 0 4.84716e-06);
    }
    outlet
    {
        type            zeroGradient;
    }
    emptyWalls
    {
        type            empty;
    }
}


// ************************************************************************* //
