/*--------------------------------*- C++ -*----------------------------------*\
  =========                 |
  \\      /  F ield         | OpenFOAM: The Open Source CFD Toolbox
   \\    /   O peration     | Website:  https://openfoam.org
    \\  /    A nd           | Version:  9
     \\/     M anipulation  |
\*---------------------------------------------------------------------------*/
FoamFile
{
    format      ascii;
    class       volVectorField;
    location    "4600";
    object      Uc;
}
// * * * * * * * * * * * * * * * * * * * * * * * * * * * * * * * * * * * * * //

dimensions      [0 0 0 0 0 0 0];

internalField   nonuniform List<vector> 
100
(
(0 0 6.11987e-09)
(0 0 6.28852e-09)
(0 0 1.08337e-08)
(0 0 1.57663e-08)
(0 0 2.09955e-08)
(0 0 2.64699e-08)
(0 0 3.21275e-08)
(0 0 3.79573e-08)
(0 0 4.39541e-08)
(0 0 5.01165e-08)
(0 0 5.64413e-08)
(0 0 6.29155e-08)
(0 0 6.95205e-08)
(0 0 7.62378e-08)
(0 0 8.305e-08)
(0 0 8.99399e-08)
(0 0 9.68924e-08)
(0 0 1.03898e-07)
(0 0 1.10952e-07)
(0 0 1.1805e-07)
(0 0 1.25189e-07)
(0 0 1.32372e-07)
(0 0 1.39599e-07)
(0 0 1.46869e-07)
(0 0 1.54187e-07)
(0 0 1.61549e-07)
(0 0 1.68951e-07)
(0 0 1.76387e-07)
(0 0 1.83853e-07)
(0 0 1.91377e-07)
(0 0 1.99042e-07)
(0 0 2.07087e-07)
(0 0 2.16045e-07)
(0 0 2.26845e-07)
(0 0 2.40621e-07)
(0 0 2.57684e-07)
(0 0 2.75761e-07)
(0 0 2.91074e-07)
(0 0 3.03685e-07)
(0 0 3.15527e-07)
(0 0 3.26913e-07)
(0 0 3.38088e-07)
(0 0 3.49151e-07)
(0 0 3.60186e-07)
(0 0 3.71237e-07)
(0 0 3.82327e-07)
(0 0 3.93469e-07)
(0 0 4.04673e-07)
(0 0 4.15948e-07)
(0 0 4.27298e-07)
(0 0 4.38727e-07)
(0 0 4.50235e-07)
(0 0 4.61827e-07)
(0 0 4.73502e-07)
(0 0 4.85255e-07)
(0 0 4.97088e-07)
(0 0 5.09001e-07)
(0 0 5.20998e-07)
(0 0 5.33081e-07)
(0 0 5.45243e-07)
(0 0 5.5749e-07)
(0 0 5.69812e-07)
(0 0 5.82217e-07)
(0 0 5.94702e-07)
(0 0 6.07269e-07)
(0 0 6.1992e-07)
(0 0 6.32647e-07)
(0 0 6.45456e-07)
(0 0 6.58311e-07)
(0 0 6.71364e-07)
(0 0 6.84205e-07)
(0 0 6.97561e-07)
(0 0 7.10878e-07)
(0 0 7.23419e-07)
(0 0 7.36788e-07)
(0 0 7.50767e-07)
(0 0 7.64298e-07)
(0 0 7.77454e-07)
(0 0 7.90973e-07)
(0 0 8.04897e-07)
(0 0 8.18795e-07)
(0 0 8.32545e-07)
(0 0 8.46328e-07)
(0 0 8.60291e-07)
(0 0 8.74421e-07)
(0 0 8.88589e-07)
(0 0 9.02705e-07)
(0 0 9.16861e-07)
(0 0 9.31182e-07)
(0 0 9.45615e-07)
(0 0 9.60037e-07)
(0 0 9.74464e-07)
(0 0 9.88974e-07)
(0 0 1.00358e-06)
(0 0 1.01823e-06)
(0 0 1.03291e-06)
(0 0 1.04762e-06)
(0 0 1.06238e-06)
(0 0 1.0772e-06)
(0 0 1.08962e-06)
)
;

boundaryField
{
    inlet
    {
        type            fixedValue;
        value           uniform (0 0 0);
    }
    outlet
    {
        type            zeroGradient;
    }
    emptyWalls
    {
        type            empty;
    }
}


// ************************************************************************* //
