/*--------------------------------*- C++ -*----------------------------------*\
  =========                 |
  \\      /  F ield         | OpenFOAM: The Open Source CFD Toolbox
   \\    /   O peration     | Website:  https://openfoam.org
    \\  /    A nd           | Version:  9
     \\/     M anipulation  |
\*---------------------------------------------------------------------------*/
FoamFile
{
    format      ascii;
    class       volScalarField;
    location    "6850";
    object      Fa;
}
// * * * * * * * * * * * * * * * * * * * * * * * * * * * * * * * * * * * * * //

dimensions      [0 0 0 0 0 0 0];

internalField   nonuniform List<scalar> 
1000
(
0.194827
0.194744
0.194666
0.194549
0.194381
0.194369
0.193877
0.193736
0.190205
0.166196
0.152603
0.149863
0.148668
0.147896
0.147363
0.146922
0.146605
0.146312
0.146104
0.14586
0.145761
0.145541
0.14536
0.145191
0.14505
0.144955
0.144947
0.144935
0.144922
0.144909
0.144895
0.144878
0.144861
0.144842
0.144823
0.144804
0.144787
0.144775
0.144772
0.144779
0.144793
0.144809
0.144824
0.144835
0.144845
0.144859
0.144889
0.144942
0.145025
0.145142
0.145289
0.145462
0.145654
0.145857
0.146062
0.146262
0.146448
0.146614
0.14675
0.146847
0.146896
0.14689
0.146823
0.146692
0.1465
0.146251
0.145956
0.145627
0.145279
0.144927
0.144586
0.144268
0.143982
0.143736
0.143532
0.14337
0.143248
0.143163
0.143108
0.143078
0.143067
0.143067
0.143075
0.143084
0.143093
0.143095
0.143092
0.14308
0.14306
0.14303
0.142993
0.142949
0.142898
0.142841
0.14278
0.142716
0.142648
0.142579
0.142508
0.142436
0.142364
0.142292
0.14222
0.142149
0.142078
0.142007
0.141937
0.141868
0.141799
0.141731
0.141664
0.141597
0.141531
0.141466
0.141399
0.141336
0.14127
0.141207
0.141142
0.141081
0.141015
0.140955
0.140889
0.14083
0.140764
0.140705
0.14064
0.140581
0.140518
0.140459
0.140399
0.140339
0.140281
0.140223
0.140167
0.140111
0.140057
0.140004
0.139953
0.139903
0.139854
0.139807
0.139762
0.139718
0.139676
0.139635
0.139597
0.139559
0.139523
0.139488
0.139454
0.139421
0.13939
0.139359
0.139329
0.139299
0.13927
0.139241
0.139212
0.139184
0.139155
0.139127
0.139099
0.13907
0.139042
0.139014
0.138985
0.138957
0.138928
0.138899
0.13887
0.138841
0.138812
0.138783
0.138754
0.138724
0.138695
0.138667
0.138638
0.138611
0.138583
0.138557
0.138531
0.138506
0.138483
0.138459
0.138437
0.138416
0.138396
0.138378
0.138362
0.138348
0.138336
0.138328
0.138324
0.138324
0.138329
0.13834
0.138358
0.138381
0.138412
0.13845
0.138494
0.138545
0.138602
0.138665
0.138731
0.138802
0.138874
0.138947
0.139019
0.139087
0.139151
0.139208
0.139255
0.139291
0.139314
0.139321
0.139312
0.139285
0.139238
0.139172
0.139086
0.138981
0.138857
0.138716
0.138559
0.13839
0.138209
0.138021
0.137827
0.137631
0.137436
0.137244
0.137058
0.136879
0.136708
0.136549
0.1364
0.136263
0.136138
0.136025
0.135923
0.135831
0.135749
0.135676
0.135611
0.135552
0.135499
0.135451
0.135406
0.135364
0.135324
0.135285
0.135247
0.13521
0.135172
0.135135
0.135097
0.13506
0.135023
0.134986
0.13495
0.134914
0.134878
0.134841
0.134802
0.134757
0.1347
0.134621
0.134503
0.13432
0.134039
0.13363
0.133102
0.132536
0.132065
0.131758
0.131588
0.131496
0.131443
0.131407
0.13138
0.131357
0.131336
0.131317
0.131298
0.131279
0.131261
0.131244
0.131227
0.13121
0.131193
0.131177
0.131162
0.131147
0.131133
0.131119
0.131105
0.131092
0.13108
0.131068
0.131056
0.131045
0.131034
0.131024
0.131014
0.131005
0.130996
0.130987
0.130979
0.130971
0.130964
0.130956
0.130949
0.130942
0.130936
0.130929
0.130923
0.130918
0.130912
0.130907
0.130902
0.130897
0.130893
0.130889
0.130885
0.130881
0.130878
0.130876
0.130874
0.130872
0.130871
0.13087
0.13087
0.13087
0.13087
0.130871
0.130874
0.130876
0.13088
0.130884
0.130889
0.130894
0.1309
0.130907
0.130914
0.130922
0.13093
0.130939
0.130949
0.130958
0.130969
0.13098
0.130991
0.131002
0.131014
0.131026
0.131039
0.131051
0.131064
0.131077
0.13109
0.131103
0.131116
0.131129
0.131143
0.131156
0.131169
0.131182
0.131196
0.131209
0.131223
0.131237
0.131251
0.131265
0.13128
0.131295
0.13131
0.131326
0.131342
0.131359
0.131377
0.131395
0.131415
0.131435
0.131457
0.13148
0.131505
0.131531
0.13156
0.13159
0.131623
0.131658
0.131696
0.131737
0.131781
0.131827
0.131877
0.13193
0.131987
0.132046
0.132109
0.132174
0.132243
0.132313
0.132386
0.132461
0.132537
0.132614
0.132691
0.132767
0.132843
0.132917
0.132988
0.133056
0.133119
0.133177
0.13323
0.133275
0.133314
0.133344
0.133365
0.133377
0.133381
0.133381
0.133379
0.133367
0.133332
0.133288
0.133234
0.133172
0.133103
0.133027
0.132945
0.132859
0.132769
0.132677
0.132584
0.13249
0.132398
0.132308
0.132222
0.132138
0.13206
0.131987
0.131919
0.131857
0.131801
0.131751
0.131708
0.13167
0.131639
0.131612
0.131591
0.131574
0.131562
0.131553
0.131548
0.131546
0.131546
0.131546
0.131547
0.131552
0.131559
0.131565
0.131572
0.131579
0.131585
0.13159
0.131595
0.131599
0.131601
0.131602
0.131602
0.131602
0.131602
0.131599
0.131594
0.131587
0.131579
0.13157
0.13156
0.131549
0.131537
0.131523
0.131509
0.131495
0.131479
0.131463
0.131446
0.131429
0.131411
0.131393
0.131375
0.131356
0.131338
0.131319
0.131301
0.131282
0.131263
0.131245
0.131227
0.131209
0.131191
0.131174
0.131157
0.13114
0.131124
0.131108
0.131093
0.131078
0.131064
0.13105
0.131037
0.131024
0.131011
0.131
0.130988
0.130977
0.130967
0.130957
0.130947
0.130938
0.130929
0.130921
0.130913
0.130905
0.130898
0.130891
0.130885
0.130878
0.130872
0.130867
0.130861
0.130856
0.130851
0.130846
0.130841
0.130837
0.130833
0.13083
0.130826
0.130823
0.13082
0.130818
0.130816
0.130814
0.130812
0.130811
0.130811
0.130811
0.130811
0.130811
0.130811
0.130813
0.130815
0.130818
0.130822
0.130826
0.13083
0.130836
0.130841
0.130848
0.130854
0.130862
0.13087
0.130879
0.130888
0.130898
0.130908
0.130919
0.13093
0.130943
0.130955
0.130968
0.130981
0.130995
0.131009
0.131024
0.13104
0.131055
0.131071
0.131088
0.131105
0.131123
0.131141
0.13116
0.13118
0.1312
0.131221
0.131243
0.131266
0.131289
0.131314
0.13134
0.131367
0.131395
0.131425
0.131457
0.13149
0.131525
0.131561
0.1316
0.13164
0.131683
0.131728
0.131776
0.131825
0.131876
0.13193
0.131986
0.132044
0.132104
0.132165
0.132228
0.132292
0.132358
0.132424
0.132491
0.132557
0.132624
0.132689
0.132754
0.132816
0.132877
0.132934
0.132989
0.13304
0.133086
0.133128
0.133165
0.133196
0.133221
0.133239
0.133251
0.133255
0.133256
0.133255
0.133252
0.133231
0.133202
0.133165
0.133123
0.133074
0.13302
0.132962
0.132899
0.132834
0.132765
0.132695
0.132624
0.132552
0.132481
0.132411
0.132342
0.132276
0.132213
0.132152
0.132095
0.132042
0.131993
0.131947
0.131906
0.131869
0.131835
0.131806
0.13178
0.131757
0.131738
0.131722
0.131709
0.131698
0.131689
0.131682
0.131676
0.131672
0.131669
0.131667
0.131665
0.131664
0.131663
0.131662
0.131662
0.13166
0.131659
0.131657
0.131654
0.131651
0.131647
0.131642
0.131636
0.13163
0.131622
0.131614
0.131605
0.131595
0.131584
0.131573
0.13156
0.131547
0.131534
0.13152
0.131505
0.13149
0.131474
0.131458
0.131441
0.131424
0.131407
0.13139
0.131372
0.131354
0.131337
0.131318
0.1313
0.131282
0.131264
0.131246
0.131229
0.131211
0.131193
0.131176
0.131159
0.131142
0.131126
0.13111
0.131094
0.131079
0.131064
0.13105
0.131036
0.131023
0.13101
0.130998
0.130986
0.130975
0.130964
0.130954
0.130945
0.130936
0.130927
0.130919
0.130912
0.130905
0.130898
0.130893
0.130887
0.130882
0.130878
0.130874
0.13087
0.130867
0.130864
0.130861
0.130859
0.130857
0.130855
0.130854
0.130853
0.130853
0.130852
0.130852
0.130852
0.130852
0.130853
0.130854
0.130856
0.130857
0.13086
0.130862
0.130865
0.130868
0.130872
0.130876
0.130881
0.130885
0.130891
0.130897
0.130904
0.130911
0.130919
0.130927
0.130936
0.130946
0.130957
0.130968
0.130979
0.130992
0.131005
0.131019
0.131035
0.13105
0.131067
0.131084
0.131103
0.131122
0.131142
0.131163
0.131185
0.131208
0.131233
0.131258
0.131284
0.131311
0.13134
0.13137
0.131401
0.131434
0.131468
0.131503
0.13154
0.131578
0.131618
0.131659
0.131702
0.131747
0.131793
0.131841
0.13189
0.131941
0.131993
0.132047
0.132102
0.132158
0.132215
0.132273
0.132332
0.132391
0.132451
0.132511
0.132571
0.13263
0.132688
0.132745
0.132801
0.132855
0.132908
0.132957
0.133004
0.133047
0.133087
0.133123
0.133155
0.133182
0.133204
0.13322
0.133232
0.133237
0.133238
0.133238
0.133236
0.133225
0.133202
0.133173
0.133139
0.133099
0.133055
0.133006
0.132954
0.132897
0.132838
0.132776
0.132712
0.132646
0.13258
0.132513
0.132447
0.132381
0.132316
0.132253
0.132192
0.132133
0.132077
0.132024
0.131973
0.131926
0.131881
0.13184
0.131802
0.131767
0.131735
0.131706
0.131679
0.131655
0.131634
0.131615
0.131597
0.131582
0.131568
0.131555
0.131544
0.131534
0.131525
0.131516
0.131508
0.1315
0.131493
0.131486
0.131479
0.131471
0.131464
0.131457
0.131449
0.131441
0.131433
0.131425
0.131416
0.131407
0.131397
0.131387
0.131377
0.131367
0.131356
0.131345
0.131333
0.131322
0.13131
0.131298
0.131286
0.131274
0.131261
0.131248
0.131236
0.131223
0.13121
0.131197
0.131184
0.131171
0.131158
0.131145
0.131132
0.131119
0.131107
0.131094
0.131081
0.131069
0.131056
0.131044
0.131032
0.13102
0.131008
0.130996
0.130985
0.130974
0.130963
0.130952
0.130941
0.130931
0.130921
0.130912
0.130903
0.130894
0.130886
0.130878
0.13087
0.130863
0.130856
0.13085
0.130844
0.130838
0.130833
0.130828
0.130824
0.130821
0.130817
0.130815
0.130812
0.13081
0.130809
0.130808
0.130807
0.130807
0.130807
0.130807
0.130808
0.130808
0.130811
0.130811
0.130815
0.130816
0.13082
0.130821
0.130827
0.130829
0.130835
0.130837
0.130844
0.130846
0.130854
0.130856
0.130865
0.130868
0.130877
0.130881
0.130892
0.130895
0.130908
0.130911
0.130935
)
;

boundaryField
{
    inlet
    {
        type            calculated;
        value           uniform 0.194831;
    }
    outlet
    {
        type            calculated;
        value           uniform 0.130927;
    }
    emptyWalls
    {
        type            empty;
    }
}


// ************************************************************************* //
