/*--------------------------------*- C++ -*----------------------------------*\
  =========                 |
  \\      /  F ield         | OpenFOAM: The Open Source CFD Toolbox
   \\    /   O peration     | Website:  https://openfoam.org
    \\  /    A nd           | Version:  9
     \\/     M anipulation  |
\*---------------------------------------------------------------------------*/
FoamFile
{
    format      ascii;
    class       volScalarField;
    location    "6850";
    object      p;
}
// * * * * * * * * * * * * * * * * * * * * * * * * * * * * * * * * * * * * * //

dimensions      [0 0 0 0 0 0 0];

internalField   nonuniform List<scalar> 
1000
(
247724
247304
246891
246485
246085
245691
245303
244925
244580
244327
244208
244118
244032
243949
243866
243783
243701
243619
243538
243456
243374
243293
243211
243129
243047
242965
242882
242798
242713
242628
242542
242455
242367
242278
242188
242097
242006
241913
241820
241726
241631
241535
241438
241341
241243
241143
241044
240943
240841
240739
240636
240532
240427
240322
240216
240109
240001
239893
239784
239674
239563
239452
239340
239227
239113
238999
238884
238768
238652
238534
238416
238297
238178
238058
237937
237815
237692
237569
237446
237321
237196
237070
236944
236816
236689
236560
236431
236301
236171
236039
235908
235775
235642
235508
235374
235239
235103
234966
234829
234692
234553
234414
234275
234135
233994
233852
233710
233567
233424
233280
233135
232990
232844
232697
232550
232402
232254
232105
231955
231805
231654
231503
231351
231198
231045
230891
230736
230581
230426
230269
230112
229955
229797
229638
229479
229319
229158
228997
228835
228673
228510
228347
228183
228018
227853
227687
227521
227354
227186
227018
226849
226680
226510
226340
226169
225997
225825
225652
225479
225305
225130
224955
224780
224603
224427
224249
224071
223893
223714
223534
223354
223173
222992
222810
222627
222444
222260
222076
221891
221706
221520
221334
221147
220959
220771
220582
220393
220203
220012
219821
219630
219437
219245
219051
218857
218663
218468
218272
218076
217879
217682
217484
217286
217087
216887
216687
216487
216285
216084
215881
215678
215475
215271
215066
214861
214655
214449
214242
214035
213827
213618
213409
213199
212989
212778
212566
212354
212141
211927
211713
211499
211283
211067
210850
210633
210415
210196
209977
209757
209537
209315
209094
208871
208648
208424
208200
207975
207749
207523
207296
207068
206840
206611
206381
206151
205921
205689
205457
205225
204992
204758
204524
204289
204055
203819
203583
203347
203111
202874
202636
202397
202157
201914
201667
201414
201155
200890
200619
200345
200069
199792
199515
199237
198959
198682
198404
198126
197849
197571
197293
197015
196738
196460
196182
195904
195626
195349
195071
194793
194515
194237
193960
193682
193404
193126
192848
192571
192293
192015
191737
191459
191181
190904
190626
190348
190070
189792
189514
189237
188959
188681
188403
188125
187847
187569
187292
187014
186736
186458
186180
185902
185624
185346
185069
184791
184513
184235
183957
183679
183401
183124
182846
182568
182290
182012
181734
181456
181179
180901
180623
180345
180067
179789
179511
179234
178956
178678
178400
178122
177845
177567
177289
177011
176733
176455
176178
175900
175622
175344
175067
174789
174511
174233
173955
173678
173400
173122
172844
172567
172289
172011
171733
171456
171178
170900
170623
170345
170067
169789
169512
169234
168956
168679
168401
168124
167846
167568
167291
167013
166735
166458
166180
165903
165625
165348
165070
164793
164516
164238
163961
163683
163406
163129
162851
162574
162297
162020
161742
161465
161188
160911
160634
160356
160079
159802
159525
159248
158971
158693
158416
158139
157862
157585
157307
157030
156753
156476
156198
155921
155643
155366
155089
154811
154534
154256
153978
153701
153423
153146
152868
152591
152313
152035
151758
151480
151202
150925
150647
150369
150092
149814
149536
149259
148981
148703
148425
148148
147870
147592
147315
147037
146759
146482
146204
145927
145649
145371
145094
144816
144538
144261
143983
143705
143428
143150
142872
142594
142317
142039
141761
141484
141206
140928
140651
140373
140095
139817
139540
139262
138984
138706
138429
138151
137873
137595
137318
137040
136762
136484
136206
135929
135651
135373
135095
134817
134539
134262
133984
133706
133428
133150
132872
132595
132317
132039
131761
131483
131205
130928
130650
130372
130094
129816
129538
129260
128982
128705
128427
128149
127871
127593
127315
127037
126759
126482
126204
125926
125648
125370
125092
124814
124536
124259
123981
123703
123425
123147
122869
122591
122313
122035
121758
121480
121202
120924
120646
120368
120090
119812
119535
119257
118979
118701
118423
118145
117868
117590
117312
117034
116756
116478
116201
115923
115645
115367
115089
114812
114534
114256
113978
113700
113423
113145
112867
112589
112312
112034
111756
111479
111201
110923
110645
110368
110090
109812
109535
109257
108980
108702
108424
108147
107869
107592
107314
107037
106759
106482
106204
105927
105649
105372
105095
104817
104540
104262
103985
103708
103431
103153
102876
102599
102322
102044
101767
101490
101213
100936
100658
100381
100104
99826.8
99549.6
99272.4
98995.2
98717.9
98440.7
98163.4
97886.1
97608.8
97331.5
97054.1
96776.8
96499.4
96222
95944.6
95667.1
95389.7
95112.2
94834.7
94557.2
94279.6
94002.1
93724.5
93447
93169.4
92891.8
92614.2
92336.6
92059
91781.4
91503.7
91226.1
90948.5
90670.8
90393.2
90115.6
89837.9
89560.3
89282.6
89005
88727.3
88449.7
88172.1
87894.4
87616.8
87339.1
87061.5
86783.8
86506.2
86228.5
85950.9
85673.2
85395.6
85117.9
84840.3
84562.6
84285
84007.3
83729.6
83452
83174.3
82896.6
82618.9
82341.2
82063.5
81785.8
81508.1
81230.4
80952.7
80675
80397.3
80119.6
79841.8
79564.1
79286.4
79008.6
78730.9
78453.1
78175.4
77897.6
77619.8
77342.1
77064.3
76786.5
76508.7
76230.9
75953.1
75675.3
75397.5
75119.7
74841.9
74564.1
74286.3
74008.4
73730.6
73452.8
73174.9
72897.1
72619.2
72341.4
72063.6
71785.7
71507.8
71230
70952.1
70674.3
70396.4
70118.6
69840.7
69562.8
69285
69007.1
68729.2
68451.4
68173.5
67895.6
67617.8
67339.9
67062
66784.1
66506.3
66228.4
65950.5
65672.7
65394.8
65116.9
64839
64561.2
64283.3
64005.4
63727.6
63449.7
63171.8
62893.9
62616.1
62338.2
62060.4
61782.5
61504.6
61226.8
60948.9
60671.1
60393.2
60115.4
59837.5
59559.7
59281.8
59004
58726.2
58448.3
58170.5
57892.7
57614.9
57337
57059.2
56781.4
56503.6
56225.8
55948
55670.3
55392.5
55114.7
54837
54559.2
54281.5
54003.7
53726
53448.3
53170.6
52892.8
52615.2
52337.5
52059.8
51782.1
51504.5
51226.8
50949.2
50671.6
50394
50116.4
49838.8
49561.3
49283.7
49006.2
48728.7
48451.2
48173.7
47896.3
47618.8
47341.4
47064
46786.6
46509.2
46231.8
45954.5
45677.1
45399.8
45122.5
44845.2
44568
44290.7
44013.5
43736.2
43459
43181.8
42904.6
42627.4
42350.2
42073
41795.8
41518.6
41241.4
40964.1
40686.9
40409.7
40132.5
39855.3
39578
39300.8
39023.5
38746.2
38468.9
38191.6
37914.2
37636.9
37359.5
37082.1
36804.7
36527.3
36249.8
35972.3
35694.9
35417.4
35139.8
34862.3
34584.7
34307.2
34029.6
33752
33474.4
33196.8
32919.2
32641.6
32363.9
32086.3
31808.6
31531
31253.3
30975.7
30698
30420.3
30142.6
29865
29587.3
29309.6
29031.9
28754.2
28476.5
28198.8
27921.1
27643.4
27365.7
27088
26810.3
26532.6
26254.9
25977.2
25699.5
25421.8
25144.1
24866.4
24588.6
24310.9
24033.2
23755.4
23477.7
23200
22922.2
22644.5
22366.7
22089
21811.2
21533.5
21255.7
20977.9
20700.2
20422.4
20144.6
19866.8
19589.1
19311.3
19033.5
18755.7
18477.9
18200.1
17922.3
17644.5
17366.6
17088.8
16811
16533.2
16255.4
15977.5
15699.7
15421.9
15144
14866.2
14588.3
14310.5
14032.6
13754.8
13476.9
13199.1
12921.2
12643.3
12365.5
12087.6
11809.7
11531.9
11254
10976.1
10698.2
10420.4
10142.5
9864.6
9586.72
9308.84
9030.95
8753.07
8475.18
8197.3
7919.42
7641.53
7363.65
7085.76
6807.88
6529.99
6252.11
5974.22
5696.34
5418.46
5140.58
4862.69
4584.81
4306.94
4029.06
3751.18
3473.31
3195.43
2917.56
2639.69
2361.82
2083.95
1806.08
1528.22
1250.35
972.494
694.636
416.78
138.926
)
;

boundaryField
{
    inlet
    {
        type            darcyGradPressure;
        gradient        uniform 116344;
        Mf              Mf;
        phi             phi;
        value           uniform 247938;
    }
    outlet
    {
        type            fixedValue;
        value           uniform 0;
    }
    emptyWalls
    {
        type            empty;
    }
}


// ************************************************************************* //
