/*--------------------------------*- C++ -*----------------------------------*\
  =========                 |
  \\      /  F ield         | OpenFOAM: The Open Source CFD Toolbox
   \\    /   O peration     | Website:  https://openfoam.org
    \\  /    A nd           | Version:  9
     \\/     M anipulation  |
\*---------------------------------------------------------------------------*/
FoamFile
{
    format      ascii;
    class       volVectorField;
    location    "1750";
    object      Ub;
}
// * * * * * * * * * * * * * * * * * * * * * * * * * * * * * * * * * * * * * //

dimensions      [0 0 0 0 0 0 0];

internalField   nonuniform List<vector> 
1000
(
(1.13632e-05 0 0)
(1.14139e-05 0 0)
(1.16124e-05 0 0)
(1.17813e-05 0 0)
(1.1804e-05 0 0)
(1.18029e-05 0 0)
(1.17774e-05 0 0)
(1.17318e-05 0 0)
(1.16806e-05 0 0)
(1.1626e-05 0 0)
(1.1569e-05 0 0)
(1.15102e-05 0 0)
(1.14501e-05 0 0)
(1.13888e-05 0 0)
(1.13265e-05 0 0)
(1.12633e-05 0 0)
(1.11993e-05 0 0)
(1.11344e-05 0 0)
(1.10686e-05 0 0)
(1.1002e-05 0 0)
(1.09346e-05 0 0)
(1.08664e-05 0 0)
(1.07973e-05 0 0)
(1.07272e-05 0 0)
(1.06561e-05 0 0)
(1.05838e-05 0 0)
(1.05104e-05 0 0)
(1.04358e-05 0 0)
(1.036e-05 0 0)
(1.02833e-05 0 0)
(1.02055e-05 0 0)
(1.01269e-05 0 0)
(1.00474e-05 0 0)
(9.96702e-06 0 0)
(9.88587e-06 0 0)
(9.80398e-06 0 0)
(9.72144e-06 0 0)
(9.63832e-06 0 0)
(9.55477e-06 0 0)
(9.47089e-06 0 0)
(9.38679e-06 0 0)
(9.30258e-06 0 0)
(9.21832e-06 0 0)
(9.13405e-06 0 0)
(9.04974e-06 0 0)
(8.96533e-06 0 0)
(8.88067e-06 0 0)
(8.79555e-06 0 0)
(8.70965e-06 0 0)
(8.62261e-06 0 0)
(8.53401e-06 0 0)
(8.44339e-06 0 0)
(8.35032e-06 0 0)
(8.25439e-06 0 0)
(8.15525e-06 0 0)
(8.05261e-06 0 0)
(7.94629e-06 0 0)
(7.83616e-06 0 0)
(7.72221e-06 0 0)
(7.60449e-06 0 0)
(7.48308e-06 0 0)
(7.35781e-06 0 0)
(7.22777e-06 0 0)
(7.09024e-06 0 0)
(6.93886e-06 0 0)
(6.7607e-06 0 0)
(6.53293e-06 0 0)
(6.222e-06 0 0)
(5.79207e-06 0 0)
(5.23017e-06 0 0)
(4.57888e-06 0 0)
(3.93793e-06 0 0)
(3.41086e-06 0 0)
(3.04412e-06 0 0)
(2.8208e-06 0 0)
(2.69688e-06 0 0)
(2.63201e-06 0 0)
(2.59922e-06 0 0)
(2.58301e-06 0 0)
(2.5751e-06 0 0)
(2.57128e-06 0 0)
(2.56946e-06 0 0)
(2.56861e-06 0 0)
(2.56823e-06 0 0)
(2.56806e-06 0 0)
(2.568e-06 0 0)
(2.568e-06 0 0)
(2.56802e-06 0 0)
(2.56806e-06 0 0)
(2.5681e-06 0 0)
(2.56815e-06 0 0)
(2.56819e-06 0 0)
(2.56824e-06 0 0)
(2.56829e-06 0 0)
(2.56833e-06 0 0)
(2.56837e-06 0 0)
(2.5684e-06 0 0)
(2.56842e-06 0 0)
(2.56845e-06 0 0)
(2.56846e-06 0 0)
(2.56848e-06 0 0)
(2.56849e-06 0 0)
(2.56849e-06 0 0)
(2.56849e-06 0 0)
(2.56848e-06 0 0)
(2.56848e-06 0 0)
(2.56847e-06 0 0)
(2.56846e-06 0 0)
(2.56845e-06 0 0)
(2.56845e-06 0 0)
(2.56845e-06 0 0)
(2.56844e-06 0 0)
(2.56844e-06 0 0)
(2.56844e-06 0 0)
(2.56845e-06 0 0)
(2.56847e-06 0 0)
(2.56849e-06 0 0)
(2.56852e-06 0 0)
(2.56854e-06 0 0)
(2.56858e-06 0 0)
(2.56861e-06 0 0)
(2.56866e-06 0 0)
(2.56871e-06 0 0)
(2.56876e-06 0 0)
(2.56882e-06 0 0)
(2.56888e-06 0 0)
(2.56893e-06 0 0)
(2.56899e-06 0 0)
(2.56906e-06 0 0)
(2.56913e-06 0 0)
(2.5692e-06 0 0)
(2.56928e-06 0 0)
(2.56936e-06 0 0)
(2.56944e-06 0 0)
(2.56952e-06 0 0)
(2.5696e-06 0 0)
(2.56969e-06 0 0)
(2.56979e-06 0 0)
(2.56988e-06 0 0)
(2.56998e-06 0 0)
(2.57007e-06 0 0)
(2.57017e-06 0 0)
(2.57026e-06 0 0)
(2.57035e-06 0 0)
(2.57045e-06 0 0)
(2.57055e-06 0 0)
(2.57064e-06 0 0)
(2.57073e-06 0 0)
(2.57082e-06 0 0)
(2.5709e-06 0 0)
(2.57098e-06 0 0)
(2.57105e-06 0 0)
(2.57112e-06 0 0)
(2.57118e-06 0 0)
(2.57123e-06 0 0)
(2.57127e-06 0 0)
(2.5713e-06 0 0)
(2.57131e-06 0 0)
(2.57131e-06 0 0)
(2.57131e-06 0 0)
(2.5713e-06 0 0)
(2.57127e-06 0 0)
(2.57122e-06 0 0)
(2.57115e-06 0 0)
(2.57106e-06 0 0)
(2.57096e-06 0 0)
(2.57084e-06 0 0)
(2.5707e-06 0 0)
(2.57054e-06 0 0)
(2.57037e-06 0 0)
(2.57019e-06 0 0)
(2.56999e-06 0 0)
(2.56977e-06 0 0)
(2.56954e-06 0 0)
(2.56929e-06 0 0)
(2.56903e-06 0 0)
(2.56876e-06 0 0)
(2.56847e-06 0 0)
(2.56817e-06 0 0)
(2.56786e-06 0 0)
(2.56754e-06 0 0)
(2.5672e-06 0 0)
(2.56686e-06 0 0)
(2.56652e-06 0 0)
(2.56616e-06 0 0)
(2.56581e-06 0 0)
(2.56544e-06 0 0)
(2.56507e-06 0 0)
(2.56471e-06 0 0)
(2.56434e-06 0 0)
(2.56397e-06 0 0)
(2.56361e-06 0 0)
(2.56326e-06 0 0)
(2.5629e-06 0 0)
(2.56255e-06 0 0)
(2.56221e-06 0 0)
(2.56187e-06 0 0)
(2.56153e-06 0 0)
(2.5612e-06 0 0)
(2.56087e-06 0 0)
(2.56055e-06 0 0)
(2.56022e-06 0 0)
(2.5599e-06 0 0)
(2.55958e-06 0 0)
(2.55926e-06 0 0)
(2.55893e-06 0 0)
(2.5586e-06 0 0)
(2.55825e-06 0 0)
(2.55789e-06 0 0)
(2.55752e-06 0 0)
(2.55713e-06 0 0)
(2.55671e-06 0 0)
(2.55627e-06 0 0)
(2.55581e-06 0 0)
(2.55531e-06 0 0)
(2.55478e-06 0 0)
(2.55421e-06 0 0)
(2.5536e-06 0 0)
(2.55296e-06 0 0)
(2.55227e-06 0 0)
(2.55154e-06 0 0)
(2.55078e-06 0 0)
(2.54998e-06 0 0)
(2.54914e-06 0 0)
(2.54828e-06 0 0)
(2.5474e-06 0 0)
(2.5465e-06 0 0)
(2.54559e-06 0 0)
(2.54469e-06 0 0)
(2.5438e-06 0 0)
(2.54296e-06 0 0)
(2.54217e-06 0 0)
(2.54146e-06 0 0)
(2.54088e-06 0 0)
(2.54045e-06 0 0)
(2.5402e-06 0 0)
(2.54011e-06 0 0)
(2.54009e-06 0 0)
(2.54017e-06 0 0)
(2.54061e-06 0 0)
(2.5416e-06 0 0)
(2.54308e-06 0 0)
(2.54498e-06 0 0)
(2.54728e-06 0 0)
(2.54994e-06 0 0)
(2.5529e-06 0 0)
(2.55607e-06 0 0)
(2.55934e-06 0 0)
(2.56261e-06 0 0)
(2.56576e-06 0 0)
(2.56871e-06 0 0)
(2.57139e-06 0 0)
(2.57375e-06 0 0)
(2.57575e-06 0 0)
(2.5774e-06 0 0)
(2.5787e-06 0 0)
(2.57968e-06 0 0)
(2.58034e-06 0 0)
(2.58074e-06 0 0)
(2.58092e-06 0 0)
(2.58097e-06 0 0)
(2.58096e-06 0 0)
(2.58075e-06 0 0)
(2.58027e-06 0 0)
(2.57968e-06 0 0)
(2.57902e-06 0 0)
(2.57833e-06 0 0)
(2.57761e-06 0 0)
(2.57689e-06 0 0)
(2.57617e-06 0 0)
(2.57547e-06 0 0)
(2.57479e-06 0 0)
(2.57413e-06 0 0)
(2.57352e-06 0 0)
(2.57294e-06 0 0)
(2.5724e-06 0 0)
(2.5719e-06 0 0)
(2.57145e-06 0 0)
(2.57103e-06 0 0)
(2.57066e-06 0 0)
(2.57032e-06 0 0)
(2.57001e-06 0 0)
(2.56975e-06 0 0)
(2.56951e-06 0 0)
(2.5693e-06 0 0)
(2.56911e-06 0 0)
(2.56896e-06 0 0)
(2.5688e-06 0 0)
(2.56867e-06 0 0)
(2.56856e-06 0 0)
(2.56845e-06 0 0)
(2.56833e-06 0 0)
(2.56826e-06 0 0)
(2.56825e-06 0 0)
(2.56895e-06 0 0)
(2.57231e-06 0 0)
(2.59034e-06 0 0)
(2.74782e-06 0 0)
(2.92786e-06 0 0)
(2.96651e-06 0 0)
(2.96725e-06 0 0)
(2.96727e-06 0 0)
(2.96727e-06 0 0)
(2.96727e-06 0 0)
(2.96727e-06 0 0)
(2.96727e-06 0 0)
(2.96727e-06 0 0)
(2.96727e-06 0 0)
(2.96727e-06 0 0)
(2.96727e-06 0 0)
(2.96727e-06 0 0)
(2.96727e-06 0 0)
(2.96727e-06 0 0)
(2.96727e-06 0 0)
(2.96727e-06 0 0)
(2.96727e-06 0 0)
(2.96727e-06 0 0)
(2.96727e-06 0 0)
(2.96727e-06 0 0)
(2.96727e-06 0 0)
(2.96727e-06 0 0)
(2.96727e-06 0 0)
(2.96727e-06 0 0)
(2.96727e-06 0 0)
(2.96727e-06 0 0)
(2.96727e-06 0 0)
(2.96727e-06 0 0)
(2.96727e-06 0 0)
(2.96727e-06 0 0)
(2.96727e-06 0 0)
(2.96727e-06 0 0)
(2.96727e-06 0 0)
(2.96727e-06 0 0)
(2.96727e-06 0 0)
(2.96727e-06 0 0)
(2.96727e-06 0 0)
(2.96727e-06 0 0)
(2.96727e-06 0 0)
(2.96727e-06 0 0)
(2.96727e-06 0 0)
(2.96727e-06 0 0)
(2.96727e-06 0 0)
(2.96727e-06 0 0)
(2.96727e-06 0 0)
(2.96727e-06 0 0)
(2.96727e-06 0 0)
(2.96727e-06 0 0)
(2.96727e-06 0 0)
(2.96727e-06 0 0)
(2.96727e-06 0 0)
(2.96727e-06 0 0)
(2.96727e-06 0 0)
(2.96727e-06 0 0)
(2.96727e-06 0 0)
(2.96727e-06 0 0)
(2.96727e-06 0 0)
(2.96727e-06 0 0)
(2.96727e-06 0 0)
(2.96727e-06 0 0)
(2.96727e-06 0 0)
(2.96727e-06 0 0)
(2.96727e-06 0 0)
(2.96727e-06 0 0)
(2.96727e-06 0 0)
(2.96727e-06 0 0)
(2.96727e-06 0 0)
(2.96727e-06 0 0)
(2.96727e-06 0 0)
(2.96727e-06 0 0)
(2.96727e-06 0 0)
(2.96727e-06 0 0)
(2.96727e-06 0 0)
(2.96727e-06 0 0)
(2.96727e-06 0 0)
(2.96727e-06 0 0)
(2.96727e-06 0 0)
(2.96727e-06 0 0)
(2.96727e-06 0 0)
(2.96727e-06 0 0)
(2.96727e-06 0 0)
(2.96727e-06 0 0)
(2.96727e-06 0 0)
(2.96727e-06 0 0)
(2.96727e-06 0 0)
(2.96727e-06 0 0)
(2.96727e-06 0 0)
(2.96727e-06 0 0)
(2.96727e-06 0 0)
(2.96727e-06 0 0)
(2.96727e-06 0 0)
(2.96727e-06 0 0)
(2.96727e-06 0 0)
(2.96727e-06 0 0)
(2.96727e-06 0 0)
(2.96727e-06 0 0)
(2.96727e-06 0 0)
(2.96727e-06 0 0)
(2.96727e-06 0 0)
(2.96727e-06 0 0)
(2.96727e-06 0 0)
(2.96727e-06 0 0)
(2.96727e-06 0 0)
(2.96727e-06 0 0)
(2.96727e-06 0 0)
(2.96727e-06 0 0)
(2.96727e-06 0 0)
(2.96727e-06 0 0)
(2.96727e-06 0 0)
(2.96727e-06 0 0)
(2.96727e-06 0 0)
(2.96727e-06 0 0)
(2.96727e-06 0 0)
(2.96727e-06 0 0)
(2.96727e-06 0 0)
(2.96727e-06 0 0)
(2.96727e-06 0 0)
(2.96727e-06 0 0)
(2.96727e-06 0 0)
(2.96727e-06 0 0)
(2.96727e-06 0 0)
(2.96727e-06 0 0)
(2.96727e-06 0 0)
(2.96727e-06 0 0)
(2.96727e-06 0 0)
(2.96727e-06 0 0)
(2.96727e-06 0 0)
(2.96727e-06 0 0)
(2.96727e-06 0 0)
(2.96727e-06 0 0)
(2.96727e-06 0 0)
(2.96727e-06 0 0)
(2.96727e-06 0 0)
(2.96727e-06 0 0)
(2.96727e-06 0 0)
(2.96727e-06 0 0)
(2.96727e-06 0 0)
(2.96727e-06 0 0)
(2.96727e-06 0 0)
(2.96727e-06 0 0)
(2.96727e-06 0 0)
(2.96727e-06 0 0)
(2.96727e-06 0 0)
(2.96727e-06 0 0)
(2.96727e-06 0 0)
(2.96727e-06 0 0)
(2.96727e-06 0 0)
(2.96727e-06 0 0)
(2.96727e-06 0 0)
(2.96727e-06 0 0)
(2.96727e-06 0 0)
(2.96727e-06 0 0)
(2.96727e-06 0 0)
(2.96727e-06 0 0)
(2.96727e-06 0 0)
(2.96727e-06 0 0)
(2.96727e-06 0 0)
(2.96727e-06 0 0)
(2.96727e-06 0 0)
(2.96727e-06 0 0)
(2.96727e-06 0 0)
(2.96727e-06 0 0)
(2.96727e-06 0 0)
(2.96727e-06 0 0)
(2.96727e-06 0 0)
(2.96727e-06 0 0)
(2.96727e-06 0 0)
(2.96727e-06 0 0)
(2.96727e-06 0 0)
(2.96727e-06 0 0)
(2.96727e-06 0 0)
(2.96727e-06 0 0)
(2.96727e-06 0 0)
(2.96727e-06 0 0)
(2.96727e-06 0 0)
(2.96727e-06 0 0)
(2.96727e-06 0 0)
(2.96727e-06 0 0)
(2.96727e-06 0 0)
(2.96727e-06 0 0)
(2.96727e-06 0 0)
(2.96727e-06 0 0)
(2.96727e-06 0 0)
(2.96727e-06 0 0)
(2.96727e-06 0 0)
(2.96727e-06 0 0)
(2.96727e-06 0 0)
(2.96727e-06 0 0)
(2.96727e-06 0 0)
(2.96727e-06 0 0)
(2.96727e-06 0 0)
(2.96727e-06 0 0)
(2.96727e-06 0 0)
(2.96727e-06 0 0)
(2.96727e-06 0 0)
(2.96727e-06 0 0)
(2.96727e-06 0 0)
(2.96727e-06 0 0)
(2.96727e-06 0 0)
(2.96727e-06 0 0)
(2.96727e-06 0 0)
(2.96727e-06 0 0)
(2.96727e-06 0 0)
(2.96727e-06 0 0)
(2.96727e-06 0 0)
(2.96727e-06 0 0)
(2.96727e-06 0 0)
(2.96727e-06 0 0)
(2.96727e-06 0 0)
(2.96727e-06 0 0)
(2.96727e-06 0 0)
(2.96727e-06 0 0)
(2.96727e-06 0 0)
(2.96727e-06 0 0)
(2.96727e-06 0 0)
(2.96727e-06 0 0)
(2.96727e-06 0 0)
(2.96727e-06 0 0)
(2.96727e-06 0 0)
(2.96727e-06 0 0)
(2.96727e-06 0 0)
(2.96727e-06 0 0)
(2.96727e-06 0 0)
(2.96727e-06 0 0)
(2.96727e-06 0 0)
(2.96727e-06 0 0)
(2.96727e-06 0 0)
(2.96727e-06 0 0)
(2.96727e-06 0 0)
(2.96727e-06 0 0)
(2.96727e-06 0 0)
(2.96727e-06 0 0)
(2.96727e-06 0 0)
(2.96727e-06 0 0)
(2.96727e-06 0 0)
(2.96727e-06 0 0)
(2.96727e-06 0 0)
(2.96727e-06 0 0)
(2.96727e-06 0 0)
(2.96727e-06 0 0)
(2.96727e-06 0 0)
(2.96727e-06 0 0)
(2.96727e-06 0 0)
(2.96727e-06 0 0)
(2.96727e-06 0 0)
(2.96727e-06 0 0)
(2.96727e-06 0 0)
(2.96727e-06 0 0)
(2.96727e-06 0 0)
(2.96727e-06 0 0)
(2.96727e-06 0 0)
(2.96727e-06 0 0)
(2.96727e-06 0 0)
(2.96727e-06 0 0)
(2.96727e-06 0 0)
(2.96727e-06 0 0)
(2.96727e-06 0 0)
(2.96727e-06 0 0)
(2.96727e-06 0 0)
(2.96727e-06 0 0)
(2.96727e-06 0 0)
(2.96727e-06 0 0)
(2.96727e-06 0 0)
(2.96727e-06 0 0)
(2.96727e-06 0 0)
(2.96727e-06 0 0)
(2.96727e-06 0 0)
(2.96727e-06 0 0)
(2.96727e-06 0 0)
(2.96727e-06 0 0)
(2.96727e-06 0 0)
(2.96727e-06 0 0)
(2.96727e-06 0 0)
(2.96727e-06 0 0)
(2.96727e-06 0 0)
(2.96727e-06 0 0)
(2.96727e-06 0 0)
(2.96727e-06 0 0)
(2.96727e-06 0 0)
(2.96727e-06 0 0)
(2.96727e-06 0 0)
(2.96727e-06 0 0)
(2.96727e-06 0 0)
(2.96727e-06 0 0)
(2.96727e-06 0 0)
(2.96727e-06 0 0)
(2.96727e-06 0 0)
(2.96727e-06 0 0)
(2.96727e-06 0 0)
(2.96727e-06 0 0)
(2.96727e-06 0 0)
(2.96727e-06 0 0)
(2.96727e-06 0 0)
(2.96727e-06 0 0)
(2.96727e-06 0 0)
(2.96727e-06 0 0)
(2.96727e-06 0 0)
(2.96727e-06 0 0)
(2.96727e-06 0 0)
(2.96727e-06 0 0)
(2.96727e-06 0 0)
(2.96727e-06 0 0)
(2.96727e-06 0 0)
(2.96727e-06 0 0)
(2.96727e-06 0 0)
(2.96727e-06 0 0)
(2.96727e-06 0 0)
(2.96727e-06 0 0)
(2.96727e-06 0 0)
(2.96727e-06 0 0)
(2.96727e-06 0 0)
(2.96727e-06 0 0)
(2.96727e-06 0 0)
(2.96727e-06 0 0)
(2.96727e-06 0 0)
(2.96727e-06 0 0)
(2.96727e-06 0 0)
(2.96727e-06 0 0)
(2.96727e-06 0 0)
(2.96727e-06 0 0)
(2.96727e-06 0 0)
(2.96727e-06 0 0)
(2.96727e-06 0 0)
(2.96727e-06 0 0)
(2.96727e-06 0 0)
(2.96727e-06 0 0)
(2.96727e-06 0 0)
(2.96727e-06 0 0)
(2.96727e-06 0 0)
(2.96727e-06 0 0)
(2.96727e-06 0 0)
(2.96727e-06 0 0)
(2.96727e-06 0 0)
(2.96727e-06 0 0)
(2.96727e-06 0 0)
(2.96727e-06 0 0)
(2.96727e-06 0 0)
(2.96727e-06 0 0)
(2.96727e-06 0 0)
(2.96727e-06 0 0)
(2.96727e-06 0 0)
(2.96727e-06 0 0)
(2.96727e-06 0 0)
(2.96727e-06 0 0)
(2.96727e-06 0 0)
(2.96727e-06 0 0)
(2.96727e-06 0 0)
(2.96727e-06 0 0)
(2.96727e-06 0 0)
(2.96727e-06 0 0)
(2.96727e-06 0 0)
(2.96727e-06 0 0)
(2.96727e-06 0 0)
(2.96727e-06 0 0)
(2.96727e-06 0 0)
(2.96727e-06 0 0)
(2.96727e-06 0 0)
(2.96727e-06 0 0)
(2.96727e-06 0 0)
(2.96727e-06 0 0)
(2.96727e-06 0 0)
(2.96727e-06 0 0)
(2.96727e-06 0 0)
(2.96727e-06 0 0)
(2.96727e-06 0 0)
(2.96727e-06 0 0)
(2.96727e-06 0 0)
(2.96727e-06 0 0)
(2.96727e-06 0 0)
(2.96727e-06 0 0)
(2.96727e-06 0 0)
(2.96727e-06 0 0)
(2.96727e-06 0 0)
(2.96727e-06 0 0)
(2.96727e-06 0 0)
(2.96727e-06 0 0)
(2.96727e-06 0 0)
(2.96727e-06 0 0)
(2.96727e-06 0 0)
(2.96727e-06 0 0)
(2.96727e-06 0 0)
(2.96727e-06 0 0)
(2.96727e-06 0 0)
(2.96727e-06 0 0)
(2.96727e-06 0 0)
(2.96727e-06 0 0)
(2.96727e-06 0 0)
(2.96727e-06 0 0)
(2.96727e-06 0 0)
(2.96727e-06 0 0)
(2.96727e-06 0 0)
(2.96727e-06 0 0)
(2.96727e-06 0 0)
(2.96727e-06 0 0)
(2.96727e-06 0 0)
(2.96727e-06 0 0)
(2.96727e-06 0 0)
(2.96727e-06 0 0)
(2.96727e-06 0 0)
(2.96727e-06 0 0)
(2.96727e-06 0 0)
(2.96727e-06 0 0)
(2.96727e-06 0 0)
(2.96727e-06 0 0)
(2.96727e-06 0 0)
(2.96727e-06 0 0)
(2.96727e-06 0 0)
(2.96727e-06 0 0)
(2.96727e-06 0 0)
(2.96727e-06 0 0)
(2.96727e-06 0 0)
(2.96727e-06 0 0)
(2.96727e-06 0 0)
(2.96727e-06 0 0)
(2.96727e-06 0 0)
(2.96727e-06 0 0)
(2.96727e-06 0 0)
(2.96727e-06 0 0)
(2.96727e-06 0 0)
(2.96727e-06 0 0)
(2.96727e-06 0 0)
(2.96727e-06 0 0)
(2.96727e-06 0 0)
(2.96727e-06 0 0)
(2.96727e-06 0 0)
(2.96727e-06 0 0)
(2.96727e-06 0 0)
(2.96727e-06 0 0)
(2.96727e-06 0 0)
(2.96727e-06 0 0)
(2.96727e-06 0 0)
(2.96727e-06 0 0)
(2.96727e-06 0 0)
(2.96727e-06 0 0)
(2.96727e-06 0 0)
(2.96727e-06 0 0)
(2.96727e-06 0 0)
(2.96727e-06 0 0)
(2.96727e-06 0 0)
(2.96727e-06 0 0)
(2.96727e-06 0 0)
(2.96727e-06 0 0)
(2.96727e-06 0 0)
(2.96727e-06 0 0)
(2.96727e-06 0 0)
(2.96727e-06 0 0)
(2.96727e-06 0 0)
(2.96727e-06 0 0)
(2.96727e-06 0 0)
(2.96727e-06 0 0)
(2.96727e-06 0 0)
(2.96727e-06 0 0)
(2.96727e-06 0 0)
(2.96727e-06 0 0)
(2.96727e-06 0 0)
(2.96727e-06 0 0)
(2.96727e-06 0 0)
(2.96727e-06 0 0)
(2.96727e-06 0 0)
(2.96727e-06 0 0)
(2.96727e-06 0 0)
(2.96727e-06 0 0)
(2.96727e-06 0 0)
(2.96727e-06 0 0)
(2.96727e-06 0 0)
(2.96727e-06 0 0)
(2.96727e-06 0 0)
(2.96727e-06 0 0)
(2.96727e-06 0 0)
(2.96727e-06 0 0)
(2.96727e-06 0 0)
(2.96727e-06 0 0)
(2.96727e-06 0 0)
(2.96727e-06 0 0)
(2.96727e-06 0 0)
(2.96727e-06 0 0)
(2.96727e-06 0 0)
(2.96727e-06 0 0)
(2.96727e-06 0 0)
(2.96727e-06 0 0)
(2.96727e-06 0 0)
(2.96727e-06 0 0)
(2.96727e-06 0 0)
(2.96727e-06 0 0)
(2.96727e-06 0 0)
(2.96727e-06 0 0)
(2.96727e-06 0 0)
(2.96727e-06 0 0)
(2.96727e-06 0 0)
(2.96727e-06 0 0)
(2.96727e-06 0 0)
(2.96727e-06 0 0)
(2.96727e-06 0 0)
(2.96727e-06 0 0)
(2.96727e-06 0 0)
(2.96727e-06 0 0)
(2.96727e-06 0 0)
(2.96727e-06 0 0)
(2.96727e-06 0 0)
(2.96727e-06 0 0)
(2.96727e-06 0 0)
(2.96727e-06 0 0)
(2.96727e-06 0 0)
(2.96727e-06 0 0)
(2.96727e-06 0 0)
(2.96727e-06 0 0)
(2.96727e-06 0 0)
(2.96727e-06 0 0)
(2.96727e-06 0 0)
(2.96727e-06 0 0)
(2.96727e-06 0 0)
(2.96727e-06 0 0)
(2.96727e-06 0 0)
(2.96727e-06 0 0)
(2.96727e-06 0 0)
(2.96727e-06 0 0)
(2.96727e-06 0 0)
(2.96727e-06 0 0)
(2.96727e-06 0 0)
(2.96727e-06 0 0)
(2.96727e-06 0 0)
(2.96727e-06 0 0)
(2.96727e-06 0 0)
(2.96727e-06 0 0)
(2.96727e-06 0 0)
(2.96727e-06 0 0)
(2.96727e-06 0 0)
(2.96727e-06 0 0)
(2.96727e-06 0 0)
(2.96727e-06 0 0)
(2.96727e-06 0 0)
(2.96727e-06 0 0)
(2.96727e-06 0 0)
(2.96727e-06 0 0)
(2.96727e-06 0 0)
(2.96727e-06 0 0)
(2.96727e-06 0 0)
(2.96727e-06 0 0)
(2.96727e-06 0 0)
(2.96727e-06 0 0)
(2.96727e-06 0 0)
(2.96727e-06 0 0)
(2.96727e-06 0 0)
(2.96727e-06 0 0)
(2.96727e-06 0 0)
(2.96727e-06 0 0)
(2.96727e-06 0 0)
(2.96727e-06 0 0)
(2.96727e-06 0 0)
(2.96727e-06 0 0)
(2.96727e-06 0 0)
(2.96727e-06 0 0)
(2.96727e-06 0 0)
(2.96727e-06 0 0)
(2.96727e-06 0 0)
(2.96727e-06 0 0)
(2.96727e-06 0 0)
(2.96727e-06 0 0)
(2.96727e-06 0 0)
(2.96727e-06 0 0)
(2.96727e-06 0 0)
(2.96727e-06 0 0)
(2.96727e-06 0 0)
(2.96727e-06 0 0)
(2.96727e-06 0 0)
(2.96727e-06 0 0)
(2.96727e-06 0 0)
(2.96727e-06 0 0)
(2.96727e-06 0 0)
(2.96727e-06 0 0)
(2.96727e-06 0 0)
(2.96727e-06 0 0)
(2.96727e-06 0 0)
(2.96727e-06 0 0)
(2.96727e-06 0 0)
(2.96727e-06 0 0)
(2.96727e-06 0 0)
(2.96727e-06 0 0)
(2.96727e-06 0 0)
(2.96727e-06 0 0)
(2.96727e-06 0 0)
(2.96727e-06 0 0)
(2.96727e-06 0 0)
(2.96727e-06 0 0)
(2.96727e-06 0 0)
(2.96727e-06 0 0)
(2.96727e-06 0 0)
(2.96727e-06 0 0)
(2.96727e-06 0 0)
(2.96727e-06 0 0)
(2.96727e-06 0 0)
(2.96727e-06 0 0)
(2.96727e-06 0 0)
(2.96727e-06 0 0)
(2.96727e-06 0 0)
(2.96727e-06 0 0)
(2.96727e-06 0 0)
(2.96727e-06 0 0)
(2.96727e-06 0 0)
(2.96727e-06 0 0)
(2.96727e-06 0 0)
(2.96727e-06 0 0)
(2.96727e-06 0 0)
(2.96727e-06 0 0)
(2.96727e-06 0 0)
(2.96727e-06 0 0)
(2.96727e-06 0 0)
(2.96727e-06 0 0)
(2.96727e-06 0 0)
(2.96727e-06 0 0)
(2.96727e-06 0 0)
(2.96727e-06 0 0)
(2.96727e-06 0 0)
(2.96727e-06 0 0)
(2.96727e-06 0 0)
(2.96727e-06 0 0)
(2.96727e-06 0 0)
(2.96727e-06 0 0)
(2.96727e-06 0 0)
(2.96727e-06 0 0)
(2.96727e-06 0 0)
(2.96727e-06 0 0)
(2.96727e-06 0 0)
(2.96727e-06 0 0)
(2.96727e-06 0 0)
(2.96727e-06 0 0)
(2.96727e-06 0 0)
(2.96727e-06 0 0)
(2.96727e-06 0 0)
(2.96727e-06 0 0)
(2.96727e-06 0 0)
(2.96727e-06 0 0)
(2.96727e-06 0 0)
(2.96727e-06 0 0)
(2.96727e-06 0 0)
(2.96727e-06 0 0)
(2.96727e-06 0 0)
(2.96727e-06 0 0)
(2.96727e-06 0 0)
(2.96727e-06 0 0)
(2.96727e-06 0 0)
(2.96727e-06 0 0)
(2.96727e-06 0 0)
(2.96727e-06 0 0)
(2.96727e-06 0 0)
(2.96727e-06 0 0)
(2.96727e-06 0 0)
(2.96727e-06 0 0)
(2.96727e-06 0 0)
(2.96727e-06 0 0)
(2.96727e-06 0 0)
(2.96727e-06 0 0)
(2.96727e-06 0 0)
(2.96727e-06 0 0)
(2.96727e-06 0 0)
(2.96727e-06 0 0)
(2.96727e-06 0 0)
(2.96727e-06 0 0)
(2.96727e-06 0 0)
(2.96727e-06 0 0)
(2.96727e-06 0 0)
(2.96727e-06 0 0)
(2.96727e-06 0 0)
(2.96727e-06 0 0)
(2.96727e-06 0 0)
(2.96727e-06 0 0)
(2.96727e-06 0 0)
(2.96727e-06 0 0)
(2.96727e-06 0 0)
(2.96727e-06 0 0)
(2.96727e-06 0 0)
(2.96727e-06 0 0)
(2.96727e-06 0 0)
(2.96727e-06 0 0)
(2.96727e-06 0 0)
(2.96727e-06 0 0)
(2.96727e-06 0 0)
(2.96727e-06 0 0)
(2.96727e-06 0 0)
(2.96727e-06 0 0)
(2.96727e-06 0 0)
(2.96727e-06 0 0)
(2.96727e-06 0 0)
(2.96727e-06 0 0)
(2.96727e-06 0 0)
(2.96727e-06 0 0)
(2.96727e-06 0 0)
(2.96727e-06 0 0)
(2.96727e-06 0 0)
(2.96727e-06 0 0)
(2.96727e-06 0 0)
(2.96727e-06 0 0)
(2.96727e-06 0 0)
(2.96727e-06 0 0)
(2.96727e-06 0 0)
(2.96727e-06 0 0)
(2.96727e-06 0 0)
(2.96727e-06 0 0)
(2.96727e-06 0 0)
(2.96727e-06 0 0)
(2.96727e-06 0 0)
)
;

boundaryField
{
    inlet
    {
        type            fixedValue;
        value           uniform (1.13622e-05 0 0);
    }
    outlet
    {
        type            zeroGradient;
    }
    emptyWalls
    {
        type            empty;
    }
}


// ************************************************************************* //
