/*--------------------------------*- C++ -*----------------------------------*\
  =========                 |
  \\      /  F ield         | OpenFOAM: The Open Source CFD Toolbox
   \\    /   O peration     | Website:  https://openfoam.org
    \\  /    A nd           | Version:  9
     \\/     M anipulation  |
\*---------------------------------------------------------------------------*/
FoamFile
{
    format      ascii;
    class       volScalarField;
    location    "23850";
    object      krb;
}
// * * * * * * * * * * * * * * * * * * * * * * * * * * * * * * * * * * * * * //

dimensions      [0 0 0 0 0 0 0];

internalField   nonuniform List<scalar> 
1000
(
0.0978275
0.0981826
0.0986476
0.0991158
0.099591
0.100065
0.100545
0.10104
0.101523
0.102045
0.102528
0.103081
0.10356
0.104138
0.104618
0.105193
0.105685
0.106224
0.106717
0.107207
0.107667
0.108105
0.108507
0.10888
0.109212
0.10951
0.109773
0.110006
0.110227
0.110449
0.110923
0.112327
0.117982
0.154261
0.362929
0.467672
0.491201
0.500326
0.505532
0.50927
0.512155
0.514578
0.51665
0.518393
0.519872
0.521158
0.52225
0.523209
0.524079
0.524871
0.525594
0.526254
0.526854
0.527402
0.527895
0.52834
0.52874
0.5291
0.529419
0.529702
0.529951
0.530167
0.530354
0.530509
0.53064
0.530741
0.53082
0.53087
0.530899
0.530901
0.530881
0.530835
0.530765
0.530669
0.530549
0.530403
0.530232
0.530034
0.52981
0.529558
0.529277
0.528965
0.52862
0.528239
0.527818
0.527351
0.526829
0.526241
0.525572
0.524802
0.523909
0.52287
0.521671
0.520315
0.518826
0.517247
0.515611
0.513938
0.51224
0.510528
0.508809
0.507087
0.505367
0.503649
0.501938
0.500234
0.49854
0.496855
0.495182
0.49352
0.491869
0.49023
0.488602
0.486986
0.485381
0.483786
0.4822
0.480622
0.479052
0.477489
0.475934
0.474387
0.47285
0.471323
0.469807
0.468302
0.466808
0.465327
0.463859
0.462403
0.460962
0.459535
0.458123
0.456726
0.455346
0.453981
0.452631
0.451295
0.449972
0.448662
0.447362
0.446072
0.444791
0.443517
0.44225
0.440989
0.439734
0.438485
0.437241
0.436003
0.434771
0.433544
0.432324
0.431111
0.429905
0.428706
0.427514
0.42633
0.425154
0.423985
0.422823
0.42167
0.420524
0.419386
0.418255
0.417131
0.416015
0.414905
0.413803
0.412707
0.411618
0.410536
0.40946
0.408391
0.407328
0.406271
0.40522
0.404175
0.403137
0.402104
0.401077
0.400056
0.39904
0.39803
0.397026
0.396028
0.395034
0.394047
0.393064
0.392087
0.391115
0.390148
0.389187
0.38823
0.387279
0.386333
0.385391
0.384455
0.383523
0.382596
0.381674
0.380756
0.379844
0.378935
0.378032
0.377132
0.376238
0.375347
0.374461
0.37358
0.372703
0.37183
0.370961
0.370097
0.369237
0.368381
0.367529
0.366682
0.365838
0.364999
0.364163
0.363331
0.362503
0.361679
0.360859
0.360043
0.35923
0.358422
0.357617
0.356815
0.356018
0.355225
0.354435
0.353648
0.352865
0.352086
0.351309
0.350536
0.349765
0.348997
0.348232
0.347469
0.346708
0.34595
0.345193
0.344439
0.343688
0.342938
0.342191
0.341447
0.340705
0.339966
0.33923
0.338498
0.337769
0.337044
0.336323
0.335606
0.334894
0.334186
0.333483
0.332785
0.332092
0.331404
0.33072
0.330041
0.329366
0.328696
0.328029
0.327366
0.326707
0.32605
0.325396
0.324744
0.324095
0.323447
0.322801
0.322157
0.321515
0.320874
0.320234
0.319597
0.31896
0.318326
0.317693
0.317062
0.316433
0.315806
0.315181
0.314558
0.313938
0.313319
0.312703
0.312089
0.311477
0.310867
0.31026
0.309655
0.309053
0.308452
0.307854
0.307258
0.306665
0.306073
0.305484
0.304897
0.304311
0.303728
0.303147
0.302568
0.301991
0.301416
0.300843
0.300272
0.299703
0.299136
0.298571
0.298007
0.297446
0.296886
0.296328
0.295772
0.295217
0.294665
0.294114
0.293565
0.293017
0.292472
0.291928
0.291386
0.290845
0.290307
0.28977
0.289234
0.2887
0.288168
0.287638
0.287109
0.286582
0.286056
0.285532
0.285009
0.284488
0.283969
0.283451
0.282935
0.28242
0.281907
0.281395
0.280885
0.280376
0.279869
0.279364
0.278859
0.278357
0.277855
0.277356
0.276857
0.276361
0.275865
0.275371
0.274879
0.274388
0.273898
0.27341
0.272923
0.272437
0.271953
0.271471
0.270989
0.270509
0.270031
0.269553
0.269077
0.268602
0.268128
0.267656
0.267184
0.266714
0.266244
0.265775
0.265308
0.264841
0.264375
0.26391
0.263445
0.262982
0.262519
0.262057
0.261596
0.261136
0.260677
0.260219
0.259762
0.259307
0.258853
0.2584
0.257948
0.257498
0.25705
0.256604
0.256159
0.255716
0.255275
0.254836
0.254399
0.253964
0.253531
0.2531
0.252671
0.252244
0.251819
0.251395
0.250973
0.250552
0.250133
0.249716
0.249299
0.248884
0.248469
0.248056
0.247643
0.247231
0.24682
0.24641
0.246
0.245591
0.245183
0.244775
0.244368
0.243961
0.243555
0.24315
0.242746
0.242342
0.241939
0.241537
0.241136
0.240735
0.240335
0.239937
0.239539
0.239142
0.238745
0.23835
0.237956
0.237563
0.23717
0.236779
0.236388
0.235998
0.235609
0.235222
0.234835
0.234449
0.234063
0.233679
0.233295
0.232913
0.232531
0.23215
0.23177
0.231391
0.231012
0.230635
0.230258
0.229882
0.229506
0.229132
0.228758
0.228385
0.228013
0.227641
0.227271
0.226901
0.226532
0.226163
0.225795
0.225428
0.225062
0.224697
0.224332
0.223968
0.223604
0.223242
0.22288
0.222518
0.222158
0.221798
0.221439
0.22108
0.220722
0.220365
0.220009
0.219653
0.219298
0.218943
0.218589
0.218236
0.217884
0.217532
0.217181
0.21683
0.216481
0.216131
0.215783
0.215435
0.215088
0.214741
0.214395
0.21405
0.213705
0.213361
0.213018
0.212675
0.212333
0.211991
0.21165
0.21131
0.21097
0.210631
0.210293
0.209955
0.209617
0.209281
0.208944
0.208609
0.208274
0.207939
0.207605
0.207271
0.206938
0.206605
0.206272
0.20594
0.205609
0.205278
0.204947
0.204616
0.204286
0.203956
0.203627
0.203298
0.20297
0.202641
0.202314
0.201986
0.201659
0.201333
0.201007
0.200682
0.200357
0.200033
0.19971
0.199387
0.199065
0.198744
0.198424
0.198104
0.197785
0.197468
0.197151
0.196835
0.196519
0.196205
0.195892
0.19558
0.195268
0.194958
0.194648
0.194339
0.194031
0.193723
0.193417
0.193111
0.192805
0.192501
0.192196
0.191893
0.191589
0.191287
0.190984
0.190682
0.19038
0.190079
0.189778
0.189477
0.189176
0.188876
0.188576
0.188277
0.187977
0.187678
0.187379
0.187081
0.186782
0.186485
0.186187
0.18589
0.185593
0.185296
0.185
0.184704
0.184409
0.184114
0.183819
0.183525
0.183231
0.182937
0.182644
0.182351
0.182059
0.181767
0.181475
0.181184
0.180893
0.180603
0.180313
0.180023
0.179734
0.179445
0.179156
0.178868
0.17858
0.178293
0.178006
0.177719
0.177433
0.177147
0.176861
0.176576
0.176291
0.176006
0.175722
0.175438
0.175154
0.174871
0.174588
0.174305
0.174022
0.17374
0.173458
0.173177
0.172896
0.172615
0.172334
0.172054
0.171774
0.171494
0.171215
0.170936
0.170657
0.170378
0.1701
0.169822
0.169544
0.169267
0.16899
0.168713
0.168436
0.16816
0.167884
0.167608
0.167332
0.167057
0.166782
0.166507
0.166233
0.165959
0.165685
0.165411
0.165137
0.164864
0.164591
0.164319
0.164046
0.163774
0.163502
0.16323
0.162959
0.162688
0.162417
0.162146
0.161876
0.161605
0.161335
0.161066
0.160796
0.160527
0.160257
0.159989
0.15972
0.159451
0.159183
0.158914
0.158646
0.158378
0.158111
0.157843
0.157576
0.157308
0.157041
0.156774
0.156507
0.15624
0.155973
0.155707
0.15544
0.155174
0.154907
0.154641
0.154375
0.154109
0.153843
0.153578
0.153312
0.153047
0.152782
0.152517
0.152252
0.151987
0.151723
0.151459
0.151195
0.150931
0.150668
0.150405
0.150142
0.14988
0.149618
0.149356
0.149095
0.148833
0.148573
0.148312
0.148052
0.147793
0.147533
0.147274
0.147016
0.146757
0.146499
0.146242
0.145984
0.145727
0.14547
0.145213
0.144957
0.1447
0.144444
0.144188
0.143932
0.143676
0.14342
0.143165
0.142909
0.142654
0.142398
0.142143
0.141887
0.141632
0.141376
0.141121
0.140866
0.14061
0.140355
0.1401
0.139844
0.139589
0.139333
0.139078
0.138823
0.138568
0.138312
0.138057
0.137802
0.137546
0.137291
0.137036
0.136781
0.136526
0.136271
0.136015
0.13576
0.135505
0.13525
0.134995
0.13474
0.134485
0.13423
0.133975
0.13372
0.133466
0.133211
0.132956
0.132701
0.132446
0.132191
0.131936
0.131681
0.131426
0.131171
0.130916
0.130661
0.130406
0.130151
0.129896
0.12964
0.129385
0.12913
0.128875
0.128619
0.128364
0.128108
0.127853
0.127597
0.127341
0.127085
0.126829
0.126573
0.126317
0.126061
0.125805
0.125549
0.125292
0.125035
0.124779
0.124522
0.124265
0.124008
0.123751
0.123493
0.123236
0.122978
0.122721
0.122463
0.122205
0.121947
0.121688
0.12143
0.121171
0.120912
0.120654
0.120394
0.120135
0.119876
0.119616
0.119356
0.119096
0.118836
0.118576
0.118315
0.118054
0.117793
0.117532
0.117271
0.117009
0.116747
0.116485
0.116223
0.115961
0.115698
0.115435
0.115172
0.114908
0.114645
0.114381
0.114117
0.113853
0.113588
0.113324
0.113059
0.112794
0.112528
0.112263
0.111997
0.111731
0.111465
0.111198
0.110932
0.110665
0.110399
0.110132
0.109865
0.109598
0.109331
0.109064
0.108797
0.108531
0.108264
0.107998
0.107732
0.107467
0.107202
0.106939
0.106675
0.106413
0.106152
0.105893
0.105635
0.105379
0.105125
0.104874
0.104625
0.104379
0.104137
0.1039
0.103666
0.103438
0.103215
0.102997
0.102787
0.102583
0.102387
0.1022
0.10202
0.10185
0.101689
0.101537
0.101395
0.101264
0.101142
0.10103
0.100928
0.100835
0.100752
0.100677
0.100611
0.100553
0.100502
0.100457
0.100419
0.100387
0.100359
0.100336
0.100316
0.1003
0.100287
0.100276
0.100268
0.10026
0.100254
0.100248
0.100242
0.100234
0.100222
0.100203
0.100169
0.100109
0.100001
0.0998078
0.0994628
0.0988496
0.097771
0.0959085
0.0927943
0.0878568
0.0806597
0.0713807
0.0611917
0.0518737
0.0447405
0.0400259
0.0372185
0.0356533
0.0348131
0.0343716
0.034142
0.0340234
0.0339623
0.0339309
0.0339147
0.0339065
0.0339022
0.0339
0.0338989
0.0338983
0.033898
0.0338979
0.0338978
0.0338977
0.0338977
0.0338976
0.0338976
0.0338976
0.0338975
0.0338975
0.0338974
0.0338974
0.0338973
0.0338973
0.0338972
0.0338971
0.033897
0.033897
0.0338969
0.0338969
0.0338968
0.0338968
0.0338966
)
;

boundaryField
{
    inlet
    {
        type            calculated;
        value           uniform 0.0976562;
    }
    outlet
    {
        type            calculated;
        value           uniform 0.0338966;
    }
    emptyWalls
    {
        type            empty;
    }
}


// ************************************************************************* //
