/*--------------------------------*- C++ -*----------------------------------*\
  =========                 |
  \\      /  F ield         | OpenFOAM: The Open Source CFD Toolbox
   \\    /   O peration     | Website:  https://openfoam.org
    \\  /    A nd           | Version:  9
     \\/     M anipulation  |
\*---------------------------------------------------------------------------*/
FoamFile
{
    format      ascii;
    class       volScalarField;
    location    "28700";
    object      Sa;
}
// * * * * * * * * * * * * * * * * * * * * * * * * * * * * * * * * * * * * * //

dimensions      [0 0 0 0 0 0 0];

internalField   nonuniform List<scalar> 
1000
(
0.549654
0.548874
0.547951
0.546929
0.545983
0.544974
0.543999
0.543001
0.541995
0.540987
0.539963
0.538932
0.537895
0.536847
0.535792
0.534739
0.533665
0.532618
0.531531
0.530508
0.529422
0.52844
0.527391
0.526454
0.525491
0.524617
0.523774
0.523
0.522285
0.521639
0.521053
0.520532
0.520065
0.519653
0.519282
0.518931
0.518525
0.517651
0.514813
0.503797
0.443205
0.197506
0.0935831
0.0716538
0.0632831
0.0587887
0.0557699
0.0533859
0.0513539
0.0495819
0.0479911
0.0465048
0.0451651
0.043957
0.0428629
0.0418593
0.0409371
0.0400944
0.0393001
0.0385469
0.0378322
0.0371532
0.0365091
0.0358944
0.0353116
0.0347567
0.0342297
0.0337259
0.0332476
0.0327897
0.0323546
0.031937
0.0315394
0.0311573
0.0307924
0.0304417
0.0301061
0.0297836
0.0294741
0.0291769
0.0288909
0.028616
0.028351
0.0280962
0.0278474
0.0276076
0.027377
0.0271552
0.0269421
0.0267379
0.0265419
0.0263544
0.0261746
0.0260032
0.0258394
0.0256835
0.0255348
0.0253935
0.025259
0.0251314
0.0250099
0.0248951
0.0247863
0.0246836
0.0245869
0.0244964
0.0244117
0.0243333
0.0242616
0.0241975
0.0241416
0.0240949
0.0240575
0.0240275
0.0240008
0.023973
0.0239438
0.0239137
0.0238829
0.023852
0.0238212
0.0237908
0.0237611
0.0237325
0.0237056
0.023681
0.0236593
0.0236407
0.0236246
0.0236105
0.0235975
0.0235848
0.023572
0.0235586
0.0235445
0.0235296
0.0235136
0.0234961
0.0234765
0.0234545
0.0234295
0.0234012
0.0233695
0.0233346
0.0232966
0.0232562
0.0232139
0.0231705
0.0231266
0.023083
0.0230401
0.0229984
0.0229583
0.02292
0.0228835
0.0228489
0.0228162
0.0227851
0.0227554
0.0227271
0.0226997
0.0226732
0.0226473
0.0226218
0.0225965
0.0225714
0.0225462
0.0225211
0.0224958
0.0224704
0.0224449
0.0224193
0.0223936
0.0223679
0.022342
0.0223163
0.0222904
0.0222647
0.022239
0.0222134
0.0221879
0.0221625
0.0221372
0.0221122
0.0220872
0.0220624
0.0220377
0.0220133
0.0219889
0.0219648
0.0219407
0.021917
0.0218933
0.0218699
0.0218465
0.0218235
0.0218004
0.0217778
0.021755
0.0217326
0.0217102
0.0216881
0.021666
0.0216443
0.0216224
0.0216011
0.0215795
0.0215586
0.0215374
0.0215168
0.021496
0.0214758
0.0214553
0.0214354
0.0214151
0.0213955
0.0213754
0.021356
0.0213361
0.021317
0.0212973
0.0212785
0.0212591
0.0212406
0.0212215
0.0212034
0.0211846
0.0211668
0.0211483
0.0211308
0.0211125
0.0210951
0.0210768
0.0210594
0.021041
0.0210236
0.0210051
0.0209878
0.0209694
0.0209525
0.0209347
0.0209186
0.0209018
0.020887
0.0208718
0.0208587
0.0208452
0.0208341
0.0208225
0.0208132
0.0208033
0.0207957
0.0207872
0.0207807
0.020773
0.020767
0.0207596
0.0207533
0.0207452
0.0207379
0.0207283
0.0207191
0.0207073
0.0206955
0.0206809
0.020666
0.0206484
0.0206304
0.0206099
0.0205891
0.0205662
0.0205432
0.0205186
0.0204943
0.020469
0.0204443
0.0204191
0.0203948
0.0203704
0.0203472
0.0203241
0.0203023
0.0202807
0.0202605
0.0202404
0.0202215
0.0202027
0.0201851
0.0201674
0.0201508
0.0201338
0.0201178
0.0201013
0.0200858
0.0200695
0.0200543
0.020038
0.0200229
0.0200066
0.0199915
0.0199752
0.0199601
0.0199435
0.0199285
0.0199118
0.0198968
0.01988
0.0198651
0.0198482
0.0198334
0.0198165
0.0198018
0.0197849
0.0197704
0.0197535
0.0197392
0.0197224
0.0197082
0.0196916
0.0196776
0.019661
0.0196472
0.0196308
0.0196172
0.0196009
0.0195876
0.0195714
0.0195582
0.0195423
0.0195293
0.0195134
0.0195006
0.019485
0.0194723
0.0194569
0.0194444
0.0194291
0.0194169
0.0194018
0.0193897
0.0193748
0.0193629
0.0193482
0.0193365
0.0193219
0.0193103
0.0192959
0.0192845
0.0192702
0.019259
0.0192449
0.0192338
0.0192198
0.0192089
0.0191951
0.0191843
0.0191707
0.0191601
0.0191465
0.0191361
0.0191227
0.0191124
0.0190991
0.0190888
0.0190756
0.0190654
0.0190522
0.019042
0.0190289
0.0190189
0.0190059
0.018996
0.0189833
0.0189738
0.0189615
0.0189525
0.0189407
0.0189324
0.0189214
0.0189138
0.0189037
0.0188971
0.018888
0.0188823
0.0188742
0.0188694
0.0188621
0.0188582
0.0188516
0.0188483
0.0188422
0.0188392
0.0188332
0.0188301
0.0188239
0.0188205
0.0188136
0.0188094
0.0188016
0.0187961
0.018787
0.0187801
0.0187694
0.018761
0.0187486
0.0187384
0.0187244
0.0187126
0.0186971
0.0186839
0.0186672
0.018653
0.0186354
0.0186206
0.0186025
0.0185874
0.0185693
0.0185543
0.0185365
0.0185219
0.0185045
0.0184905
0.0184739
0.0184606
0.0184446
0.0184321
0.0184169
0.0184051
0.0183905
0.0183793
0.0183653
0.0183546
0.0183411
0.0183308
0.0183176
0.0183075
0.0182945
0.0182847
0.0182718
0.0182621
0.0182493
0.0182396
0.0182268
0.0182171
0.0182044
0.0181947
0.0181819
0.0181722
0.0181594
0.0181496
0.0181368
0.0181271
0.0181143
0.0181046
0.0180919
0.0180822
0.0180695
0.0180599
0.0180472
0.0180377
0.0180251
0.0180156
0.0180031
0.0179937
0.0179813
0.017972
0.0179597
0.0179505
0.0179383
0.0179293
0.0179172
0.0179082
0.0178962
0.0178874
0.0178755
0.0178668
0.017855
0.0178465
0.0178348
0.0178264
0.0178148
0.0178065
0.0177951
0.0177869
0.0177756
0.0177675
0.0177563
0.0177484
0.0177373
0.0177294
0.0177185
0.0177107
0.0176999
0.0176923
0.0176815
0.017674
0.0176634
0.0176559
0.0176454
0.0176381
0.0176276
0.0176204
0.0176101
0.0176029
0.0175927
0.0175856
0.0175754
0.0175684
0.0175583
0.0175513
0.0175413
0.0175344
0.0175244
0.0175177
0.0175078
0.0175012
0.0174914
0.017485
0.0174755
0.0174692
0.01746
0.0174541
0.0174452
0.0174397
0.0174313
0.0174263
0.0174183
0.0174138
0.0174064
0.0174024
0.0173956
0.0173922
0.0173859
0.017383
0.0173772
0.0173747
0.0173693
0.0173672
0.017362
0.0173601
0.017355
0.0173531
0.0173479
0.0173458
0.0173404
0.0173379
0.017332
0.017329
0.0173224
0.0173186
0.0173112
0.0173066
0.0172982
0.0172926
0.0172832
0.0172765
0.0172662
0.0172585
0.0172472
0.0172386
0.0172264
0.017217
0.0172042
0.0171942
0.0171808
0.0171705
0.0171568
0.0171463
0.0171325
0.0171219
0.0171082
0.0170978
0.0170843
0.0170742
0.017061
0.0170513
0.0170385
0.0170291
0.0170167
0.0170078
0.0169958
0.0169873
0.0169757
0.0169675
0.0169562
0.0169483
0.0169373
0.0169296
0.0169189
0.0169114
0.0169008
0.0168935
0.016883
0.0168757
0.0168653
0.0168582
0.0168478
0.0168407
0.0168304
0.0168233
0.016813
0.0168059
0.0167956
0.0167885
0.0167782
0.0167711
0.0167609
0.0167538
0.0167435
0.0167365
0.0167263
0.0167193
0.0167091
0.0167021
0.016692
0.0166851
0.016675
0.0166681
0.0166581
0.0166513
0.0166413
0.0166346
0.0166247
0.0166181
0.0166082
0.0166017
0.0165919
0.0165854
0.0165757
0.0165694
0.0165598
0.0165535
0.0165439
0.0165377
0.0165283
0.0165222
0.0165128
0.0165068
0.0164975
0.0164916
0.0164824
0.0164765
0.0164674
0.0164616
0.0164526
0.0164469
0.016438
0.0164323
0.0164235
0.0164179
0.0164091
0.0164037
0.016395
0.0163895
0.0163809
0.0163756
0.016367
0.0163617
0.0163532
0.016348
0.0163395
0.0163344
0.016326
0.0163209
0.0163126
0.0163075
0.0162992
0.0162943
0.0162861
0.0162812
0.0162731
0.0162683
0.0162603
0.0162557
0.0162478
0.0162434
0.0162357
0.0162314
0.016224
0.01622
0.0162128
0.016209
0.0162021
0.0161987
0.0161921
0.016189
0.0161828
0.01618
0.0161741
0.0161717
0.0161662
0.0161641
0.0161589
0.0161571
0.0161521
0.0161505
0.0161457
0.0161443
0.0161397
0.0161383
0.0161337
0.0161323
0.0161276
0.0161261
0.0161211
0.0161194
0.0161141
0.016112
0.0161063
0.0161038
0.0160976
0.0160945
0.0160877
0.016084
0.0160766
0.0160722
0.0160642
0.0160591
0.0160504
0.0160447
0.0160354
0.0160291
0.0160192
0.0160124
0.016002
0.0159948
0.0159841
0.0159765
0.0159655
0.0159578
0.0159466
0.0159387
0.0159275
0.0159197
0.0159085
0.0159008
0.0158898
0.0158822
0.0158713
0.015864
0.0158534
0.0158462
0.0158358
0.015829
0.0158188
0.0158122
0.0158023
0.0157959
0.0157862
0.01578
0.0157705
0.0157645
0.0157552
0.0157493
0.0157401
0.0157343
0.0157253
0.0157196
0.0157106
0.015705
0.0156961
0.0156905
0.0156816
0.0156761
0.0156673
0.0156618
0.015653
0.0156475
0.0156387
0.0156333
0.0156244
0.015619
0.0156102
0.0156048
0.0155961
0.0155907
0.0155819
0.0155766
0.0155678
0.0155625
0.0155538
0.0155485
0.0155399
0.0155346
0.015526
0.0155208
0.0155122
0.015507
0.0154985
0.0154934
0.0154849
0.0154799
0.0154715
0.0154665
0.0154581
0.0154532
0.0154448
0.01544
0.0154317
0.0154269
0.0154187
0.015414
0.0154059
0.0154012
0.0153931
0.0153885
0.0153805
0.0153759
0.015368
0.0153635
0.0153556
0.0153512
0.0153433
0.0153389
0.0153312
0.0153269
0.0153191
0.0153149
0.0153072
0.015303
0.0152954
0.0152912
0.0152836
0.0152795
0.015272
0.015268
0.0152605
0.0152565
0.0152491
0.0152451
0.0152377
0.0152339
0.0152265
0.0152227
0.0152154
0.0152117
0.0152045
0.0152008
0.0151937
0.0151902
0.0151831
0.0151797
0.0151728
0.0151695
0.0151627
0.0151596
0.015153
0.0151501
0.0151436
0.0151409
0.0151346
0.0151321
0.0151261
0.0151238
0.015118
0.0151159
0.0151104
0.0151085
0.0151032
0.0151015
0.0150965
0.0150949
0.0150901
0.0150887
0.015084
0.0150828
0.0150782
0.015077
0.0150725
0.0150713
0.0150667
0.0150656
0.0150609
0.0150597
0.0150549
0.0150537
0.0150486
0.0150473
0.0150418
0.0150403
0.0150343
0.0150328
0.0150262
0.0150244
0.0150172
0.0150153
0.0150074
0.0150053
0.0149967
0.0149944
0.0149851
0.0149826
0.0149728
0.0149697
0.0149596
0.0149558
0.0149455
0.0149411
0.0149308
0.0149259
0.0149156
0.0149104
0.0149002
0.0148945
0.0148844
0.0148785
0.0148686
0.0148625
0.0148528
0.0148465
0.014837
0.0148307
0.0148214
0.0148151
0.014806
0.0147998
0.0147909
0.0147848
0.0147761
0.0147701
0.0147616
0.0147557
0.0147474
0.0147416
0.0147334
0.0147277
0.0147197
0.0147142
0.0147062
0.0147008
0.0146929
0.0146875
0.0146798
0.0146745
0.0146667
0.0146615
0.0146538
0.0146486
0.014641
0.0146358
0.0146282
0.0146231
0.0146154
0.0146104
0.0146027
0.0145977
0.01459
0.0145851
0.0145774
0.0145725
0.0145647
0.01456
0.0145521
0.0145474
0.0145395
0.014535
0.014527
0.0145226
0.0145145
0.0145102
0.014502
0.0144979
0.0144896
0.0144856
0.0144773
0.0144735
0.014465
0.0144613
0.0144529
0.0144493
0.0144408
0.0144374
0.0144288
0.0144255
0.0144168
0.0144137
0.014405
0.014402
0.0143933
0.0143904
0.0143816
0.0143788
0.0143701
0.0143674
0.0143586
0.014356
0.0143473
0.0143447
0.014336
0.0143335
0.0143248
0.0143224
0.0143137
0.0143114
0.0143027
0.0143004
0.0142917
0.0142896
0.0142749
0.251903
)
;

boundaryField
{
    inlet
    {
        type            fixedValue;
        value           uniform 0.55;
    }
    outlet
    {
        type            zeroGradient;
    }
    emptyWalls
    {
        type            empty;
    }
}


// ************************************************************************* //
