/*--------------------------------*- C++ -*----------------------------------*\
  =========                 |
  \\      /  F ield         | OpenFOAM: The Open Source CFD Toolbox
   \\    /   O peration     | Website:  https://openfoam.org
    \\  /    A nd           | Version:  9
     \\/     M anipulation  |
\*---------------------------------------------------------------------------*/
FoamFile
{
    format      ascii;
    class       volScalarField;
    location    "27950";
    object      krc;
}
// * * * * * * * * * * * * * * * * * * * * * * * * * * * * * * * * * * * * * //

dimensions      [0 0 0 0 0 0 0];

internalField   nonuniform List<scalar> 
1000
(
5.66672e-08
5.12755e-07
1.80649e-06
3.90779e-06
6.8071e-06
1.05053e-05
1.50138e-05
2.03447e-05
2.65142e-05
3.35385e-05
4.14346e-05
5.02159e-05
5.9893e-05
7.04714e-05
8.19483e-05
9.43113e-05
0.000107534
0.000121573
0.000136363
0.000151813
0.000167805
0.000184184
0.000200774
0.000217362
0.000233729
0.000249643
0.000264896
0.000279301
0.000292722
0.000305069
0.000316311
0.000326461
0.000335588
0.000343852
0.000351768
0.000361468
0.000382693
0.000459221
0.000814783
0.00428276
0.0285538
0.040984
0.0444478
0.0459926
0.0469165
0.0475782
0.0481061
0.0485561
0.0489546
0.0493171
0.0496522
0.0499661
0.0502622
0.0505437
0.0508121
0.0510694
0.0513163
0.0515543
0.0517838
0.0520059
0.0522206
0.0524291
0.0526315
0.0528287
0.0530205
0.053208
0.053391
0.0535702
0.0537457
0.0539181
0.0540874
0.0542543
0.0544187
0.0545813
0.0547417
0.0549007
0.0550581
0.0552145
0.0553699
0.0555249
0.0556794
0.0558342
0.055991
0.0561482
0.0563058
0.0564639
0.0566226
0.056782
0.0569423
0.0571037
0.0572666
0.0574311
0.0575975
0.0577661
0.0579375
0.0581118
0.0582898
0.0584721
0.0586594
0.0588527
0.0590535
0.0592634
0.0594849
0.0597208
0.0599752
0.0602527
0.0605584
0.0608973
0.0612733
0.0616871
0.0621362
0.0626144
0.0631149
0.0636315
0.0641601
0.0646975
0.0652415
0.0657904
0.0663431
0.0668985
0.0674559
0.0680149
0.068575
0.0691358
0.069697
0.0702585
0.0708201
0.0713815
0.0719427
0.0725037
0.0730642
0.0736243
0.0741839
0.0747429
0.0753013
0.075859
0.076416
0.0769722
0.0775277
0.0780822
0.078636
0.0791888
0.0797407
0.0802917
0.0808417
0.0813909
0.081939
0.0824862
0.0830324
0.0835777
0.084122
0.0846653
0.0852077
0.0857491
0.0862895
0.0868289
0.0873674
0.087905
0.0884415
0.0889771
0.0895117
0.0900454
0.0905781
0.0911099
0.0916406
0.0921704
0.0926992
0.0932271
0.0937541
0.09428
0.094805
0.095329
0.0958521
0.0963743
0.0968955
0.0974157
0.097935
0.0984533
0.0989707
0.0994872
0.100003
0.100517
0.101031
0.101544
0.102056
0.102567
0.103077
0.103586
0.104094
0.104601
0.105107
0.105613
0.106117
0.106621
0.107124
0.107626
0.108127
0.108627
0.109126
0.109625
0.110122
0.110619
0.111115
0.111609
0.112103
0.112597
0.113089
0.113581
0.114071
0.114561
0.11505
0.115538
0.116026
0.116512
0.116998
0.117483
0.117967
0.11845
0.118932
0.119414
0.119895
0.120375
0.120854
0.121332
0.12181
0.122287
0.122763
0.123238
0.123713
0.124187
0.12466
0.125132
0.125603
0.126074
0.126544
0.127013
0.127481
0.127948
0.128415
0.128881
0.129346
0.12981
0.130274
0.130737
0.131199
0.13166
0.132121
0.132581
0.13304
0.133499
0.133957
0.134414
0.134871
0.135327
0.135783
0.136238
0.136692
0.137146
0.137599
0.138051
0.138503
0.138954
0.139405
0.139855
0.140304
0.140753
0.141201
0.141648
0.142095
0.142541
0.142986
0.143431
0.143875
0.144318
0.144761
0.145203
0.145644
0.146085
0.146525
0.146964
0.147403
0.147841
0.148279
0.148716
0.149152
0.149588
0.150023
0.150458
0.150892
0.151325
0.151758
0.15219
0.152622
0.153053
0.153483
0.153913
0.154343
0.154772
0.1552
0.155628
0.156055
0.156482
0.156908
0.157333
0.157758
0.158182
0.158606
0.15903
0.159452
0.159875
0.160296
0.160717
0.161138
0.161558
0.161978
0.162397
0.162815
0.163233
0.163651
0.164068
0.164484
0.1649
0.165316
0.165731
0.166145
0.166559
0.166972
0.167385
0.167798
0.16821
0.168621
0.169032
0.169442
0.169852
0.170262
0.170671
0.171079
0.171487
0.171895
0.172302
0.172708
0.173115
0.17352
0.173926
0.17433
0.174735
0.175138
0.175542
0.175945
0.176347
0.176749
0.177151
0.177552
0.177952
0.178353
0.178753
0.179152
0.179551
0.179949
0.180347
0.180745
0.181142
0.181539
0.181935
0.182331
0.182727
0.183121
0.183516
0.18391
0.184304
0.184697
0.185089
0.185482
0.185873
0.186265
0.186656
0.187046
0.187436
0.187826
0.188215
0.188604
0.188992
0.18938
0.189768
0.190155
0.190542
0.190929
0.191315
0.191701
0.192087
0.192472
0.192857
0.193242
0.193626
0.194011
0.194395
0.194779
0.195162
0.195545
0.195928
0.196311
0.196693
0.197075
0.197456
0.197838
0.198219
0.198599
0.198979
0.199359
0.199739
0.200118
0.200496
0.200875
0.201253
0.201631
0.202008
0.202385
0.202761
0.203137
0.203513
0.203889
0.204264
0.204639
0.205013
0.205387
0.205761
0.206134
0.206508
0.206881
0.207253
0.207625
0.207997
0.208369
0.20874
0.209111
0.209482
0.209853
0.210223
0.210593
0.210962
0.211332
0.211701
0.212069
0.212438
0.212806
0.213174
0.213541
0.213909
0.214276
0.214642
0.215009
0.215375
0.215741
0.216106
0.216472
0.216837
0.217201
0.217566
0.21793
0.218294
0.218658
0.219021
0.219384
0.219747
0.22011
0.220472
0.220834
0.221196
0.221558
0.221919
0.22228
0.222641
0.223001
0.223361
0.223722
0.224081
0.224441
0.2248
0.225159
0.225518
0.225876
0.226234
0.226593
0.22695
0.227308
0.227665
0.228022
0.228379
0.228736
0.229092
0.229448
0.229804
0.23016
0.230515
0.230871
0.231225
0.23158
0.231935
0.232289
0.232643
0.232997
0.233351
0.233704
0.234057
0.234411
0.234763
0.235116
0.235468
0.23582
0.236172
0.236524
0.236875
0.237226
0.237577
0.237928
0.238278
0.238629
0.238978
0.239328
0.239678
0.240027
0.240376
0.240725
0.241073
0.241422
0.241769
0.242118
0.242465
0.242813
0.24316
0.243507
0.243854
0.244201
0.244547
0.244894
0.24524
0.245587
0.245932
0.246279
0.246624
0.246971
0.247316
0.247662
0.248007
0.248353
0.248699
0.249044
0.249389
0.249735
0.25008
0.250425
0.25077
0.251115
0.25146
0.251805
0.252149
0.252494
0.252838
0.253182
0.253526
0.25387
0.254213
0.254557
0.2549
0.255244
0.255586
0.255929
0.256272
0.256615
0.256956
0.257299
0.25764
0.257983
0.258324
0.258666
0.259007
0.259348
0.259689
0.26003
0.26037
0.260711
0.261052
0.261392
0.261732
0.262073
0.262412
0.262753
0.263092
0.263432
0.263771
0.264111
0.26445
0.264789
0.265128
0.265468
0.265806
0.266145
0.266484
0.266823
0.267161
0.267499
0.267837
0.268176
0.268513
0.268852
0.269189
0.269527
0.269865
0.270203
0.27054
0.270877
0.271214
0.271552
0.271888
0.272226
0.272562
0.2729
0.273236
0.273573
0.273909
0.274246
0.274582
0.274918
0.275254
0.275591
0.275926
0.276263
0.276598
0.276934
0.277269
0.277605
0.277941
0.278276
0.278611
0.278947
0.279282
0.279617
0.279952
0.280288
0.280622
0.280957
0.281292
0.281627
0.281961
0.282296
0.28263
0.282965
0.283299
0.283634
0.283968
0.284302
0.284636
0.284971
0.285304
0.285639
0.285972
0.286307
0.28664
0.286975
0.287308
0.287642
0.287975
0.288309
0.288642
0.288976
0.289309
0.289643
0.289976
0.29031
0.290642
0.290976
0.291308
0.291642
0.291974
0.292308
0.29264
0.292973
0.293305
0.293638
0.29397
0.294303
0.294635
0.294968
0.295299
0.295632
0.295964
0.296296
0.296628
0.29696
0.297292
0.297624
0.297956
0.298289
0.29862
0.298953
0.299284
0.299617
0.299949
0.300282
0.300614
0.300947
0.301279
0.301612
0.301944
0.302278
0.30261
0.302944
0.303277
0.303611
0.303943
0.304278
0.304611
0.304945
0.305278
0.305613
0.305946
0.306281
0.306614
0.306949
0.307283
0.307618
0.307951
0.308286
0.30862
0.308955
0.309289
0.309624
0.309958
0.310293
0.310627
0.310962
0.311296
0.311631
0.311965
0.3123
0.312634
0.312969
0.313303
0.313638
0.313972
0.314308
0.314642
0.314977
0.315311
0.315647
0.315981
0.316317
0.316651
0.316987
0.317321
0.317657
0.317991
0.318327
0.318662
0.318998
0.319333
0.319669
0.320004
0.320341
0.320676
0.321013
0.321348
0.321685
0.32202
0.322357
0.322693
0.32303
0.323366
0.323703
0.324039
0.324377
0.324713
0.325051
0.325387
0.325725
0.326061
0.326399
0.326736
0.327075
0.327411
0.32775
0.328087
0.328426
0.328763
0.329102
0.32944
0.329779
0.330117
0.330456
0.330794
0.331134
0.331472
0.331812
0.33215
0.33249
0.332829
0.333169
0.333508
0.333849
0.334188
0.334529
0.334869
0.33521
0.335549
0.335891
0.336231
0.336573
0.336913
0.337255
0.337596
0.337938
0.338279
0.338622
0.338963
0.339306
0.339647
0.33999
0.340332
0.340676
0.341018
0.341362
0.341704
0.342049
0.342391
0.342736
0.343079
0.343424
0.343768
0.344113
0.344457
0.344802
0.345146
0.345493
0.345837
0.346183
0.346528
0.346875
0.34722
0.347567
0.347912
0.34826
0.348606
0.348953
0.3493
0.349648
0.349994
0.350343
0.350689
0.351038
0.351386
0.351735
0.352082
0.352432
0.35278
0.35313
0.353479
0.353829
0.354178
0.354528
0.354878
0.355229
0.35558
0.355931
0.356282
0.356634
0.356986
0.357339
0.357691
0.358044
0.358397
0.358751
0.359105
0.359459
0.359815
0.360169
0.360526
0.36088
0.361239
0.361592
0.361953
0.362307
0.36267
0.363023
0.363387
0.363741
0.364106
0.364461
0.364826
0.365182
0.365548
0.365905
0.366272
0.36663
0.366998
0.367355
0.367724
0.368083
0.368452
0.368812
0.369182
0.369542
0.369913
0.370274
0.370645
0.371007
0.37138
0.371741
0.372116
0.372475
0.372856
0.373209
0.373598
0.373944
0.374343
0.374679
0.37509
0.375415
0.375839
0.376152
0.376591
0.37689
0.377345
0.37763
0.378101
0.378371
0.378858
0.379115
0.379616
0.37986
0.380377
0.380608
0.381138
0.381359
0.381901
0.382113
0.382664
0.38287
0.383429
0.383629
0.384195
0.384391
0.384963
0.385156
0.385732
0.385923
0.386503
0.386694
0.387275
0.387467
0.388049
0.388243
0.388825
0.389021
0.389604
0.389801
0.390385
0.390583
0.391168
0.391369
0.391954
0.392156
0.392742
0.392946
0.393533
0.393739
0.394326
0.394533
0.395123
0.39533
0.395922
0.396131
0.396722
0.396935
0.397525
0.397742
0.398331
0.398551
0.399141
0.399362
0.399953
0.400177
0.400768
0.400995
0.401586
0.401816
0.402407
0.40264
0.403231
0.403467
0.404059
0.404296
0.404891
0.405128
0.405726
0.405965
0.406563
0.406805
0.407403
0.407655
0.225238
)
;

boundaryField
{
    inlet
    {
        type            calculated;
        value           uniform 3.08149e-33;
    }
    outlet
    {
        type            calculated;
        value           uniform 0.225238;
    }
    emptyWalls
    {
        type            empty;
    }
}


// ************************************************************************* //
