/*--------------------------------*- C++ -*----------------------------------*\
  =========                 |
  \\      /  F ield         | OpenFOAM: The Open Source CFD Toolbox
   \\    /   O peration     | Website:  https://openfoam.org
    \\  /    A nd           | Version:  9
     \\/     M anipulation  |
\*---------------------------------------------------------------------------*/
FoamFile
{
    format      ascii;
    class       volScalarField;
    location    "27950";
    object      p;
}
// * * * * * * * * * * * * * * * * * * * * * * * * * * * * * * * * * * * * * //

dimensions      [0 0 0 0 0 0 0];

internalField   nonuniform List<scalar> 
1000
(
162283
161857
161433
161010
160590
160170
159753
159337
158923
158510
158100
157691
157283
156878
156474
156072
155672
155273
154876
154481
154088
153696
153306
152917
152530
152144
151759
151376
150994
150612
150232
149852
149473
149095
148717
148340
147964
147591
147230
146909
146730
146628
146538
146451
146365
146280
146196
146111
146027
145943
145860
145776
145693
145610
145527
145444
145362
145279
145197
145114
145032
144950
144868
144786
144704
144622
144540
144458
144376
144294
144213
144131
144049
143968
143886
143804
143723
143641
143559
143478
143396
143314
143233
143151
143070
142988
142906
142825
142743
142661
142580
142498
142416
142334
142252
142170
142089
142007
141925
141843
141760
141678
141596
141514
141431
141349
141266
141184
141101
141018
140935
140851
140768
140684
140600
140516
140432
140347
140262
140177
140092
140006
139921
139835
139749
139663
139576
139489
139403
139315
139228
139140
139053
138965
138876
138788
138699
138610
138521
138431
138342
138252
138162
138071
137981
137890
137799
137708
137616
137524
137433
137340
137248
137155
137063
136970
136876
136783
136689
136596
136502
136407
136313
136218
136123
136028
135933
135837
135741
135646
135549
135453
135356
135260
135163
135065
134968
134870
134773
134674
134576
134478
134379
134280
134181
134082
133983
133883
133783
133683
133583
133482
133382
133281
133180
133078
132977
132875
132773
132671
132569
132467
132364
132261
132158
132055
131951
131848
131744
131640
131536
131431
131327
131222
131117
131012
130906
130801
130695
130589
130483
130377
130270
130164
130057
129950
129842
129735
129627
129520
129412
129303
129195
129086
128978
128869
128760
128650
128541
128431
128322
128212
128101
127991
127881
127770
127659
127548
127437
127326
127214
127102
126991
126879
126766
126654
126541
126429
126316
126202
126089
125976
125862
125748
125634
125520
125405
125290
125176
125061
124945
124830
124714
124599
124483
124366
124250
124134
124017
123900
123783
123666
123548
123431
123313
123195
123077
122959
122840
122722
122603
122484
122365
122246
122126
122006
121887
121767
121646
121526
121405
121285
121164
121043
120922
120800
120679
120557
120435
120313
120190
120068
119945
119823
119700
119577
119453
119330
119206
119082
118958
118834
118710
118585
118461
118336
118211
118086
117960
117835
117709
117583
117457
117331
117205
117078
116952
116825
116698
116571
116444
116316
116188
116061
115933
115804
115676
115548
115419
115290
115161
115032
114903
114773
114644
114514
114384
114254
114124
113993
113863
113732
113601
113470
113339
113207
113076
112944
112812
112680
112548
112416
112283
112151
112018
111885
111752
111619
111485
111352
111218
111084
110950
110816
110682
110547
110413
110278
110143
110008
109873
109738
109602
109467
109331
109195
109059
108922
108786
108649
108512
108376
108238
108101
107964
107826
107688
107550
107412
107274
107135
106997
106858
106719
106580
106441
106301
106162
106022
105882
105742
105602
105462
105321
105180
105039
104898
104757
104616
104475
104333
104191
104049
103907
103765
103622
103480
103337
103194
103051
102908
102765
102621
102478
102334
102190
102046
101902
101757
101613
101468
101323
101178
101033
100887
100742
100596
100450
100304
100158
100012
99865.7
99719.1
99572.4
99425.5
99278.5
99131.3
98984
98836.5
98688.9
98541.1
98393.2
98245.1
98096.8
97948.4
97799.9
97651.2
97502.4
97353.4
97204.2
97054.9
96905.5
96755.9
96606.2
96456.3
96306.2
96156
96005.7
95855.2
95704.6
95553.8
95402.9
95251.8
95100.6
94949.2
94797.7
94646
94494.2
94342.2
94190.1
94037.8
93885.4
93732.8
93580.1
93427.3
93274.3
93121.1
92967.8
92814.4
92660.8
92507.1
92353.2
92199.2
92045
91890.7
91736.3
91581.7
91427
91272.1
91117.1
90961.9
90806.7
90651.2
90495.7
90340
90184.1
90028.1
89872
89715.8
89559.4
89402.9
89246.2
89089.4
88932.5
88775.4
88618.2
88460.9
88303.4
88145.8
87988
87830.1
87672.1
87513.9
87355.6
87197.1
87038.5
86879.7
86720.8
86561.7
86402.5
86243.1
86083.6
85923.9
85764.1
85604.1
85444
85283.7
85123.2
84962.6
84801.9
84641
84479.9
84318.7
84157.4
83995.9
83834.2
83672.4
83510.4
83348.3
83186.1
83023.6
82861.1
82698.4
82535.5
82372.5
82209.4
82046.1
81882.6
81719.1
81555.3
81391.4
81227.4
81063.3
80898.9
80734.5
80569.9
80405.1
80240.2
80075.2
79910
79744.6
79579.2
79413.5
79247.8
79081.9
78915.8
78749.6
78583.2
78416.7
78250.1
78083.3
77916.4
77749.3
77582.1
77414.7
77247.2
77079.5
76911.7
76743.8
76575.7
76407.5
76239.1
76070.6
75901.9
75733.1
75564.1
75395
75225.8
75056.4
74886.9
74717.2
74547.4
74377.4
74207.3
74037
73866.7
73696.1
73525.4
73354.6
73183.7
73012.6
72841.3
72669.9
72498.4
72326.7
72154.9
71982.9
71810.8
71638.6
71466.2
71293.7
71121
70948.2
70775.3
70602.2
70429
70255.6
70082.1
69908.4
69734.6
69560.7
69386.6
69212.4
69038.1
68863.6
68688.9
68514.2
68339.2
68164.2
67989
67813.7
67638.2
67462.6
67286.8
67110.9
66934.9
66758.7
66582.4
66406
66229.4
66052.7
65875.8
65698.8
65521.7
65344.4
65167
64989.5
64811.8
64634
64456.1
64278
64099.8
63921.5
63743
63564.4
63385.7
63206.8
63027.9
62848.7
62669.5
62490.1
62310.6
62131
61951.2
61771.3
61591.2
61411.1
61230.8
61050.3
60869.8
60689
60508.2
60327.2
60146.1
59964.9
59783.5
59601.9
59420.3
59238.4
59056.5
58874.4
58692.1
58509.7
58327.2
58144.5
57961.7
57778.7
57595.6
57412.3
57228.9
57045.3
56861.6
56677.7
56493.7
56309.6
56125.3
55940.8
55756.2
55571.5
55386.6
55201.5
55016.3
54831
54645.5
54459.9
54274.1
54088.2
53902.1
53715.9
53529.6
53343.1
53156.5
52969.7
52782.8
52595.7
52408.5
52221.1
52033.7
51846
51658.2
51470.3
51282.3
51094
50905.7
50717.2
50528.6
50339.8
50150.9
49961.8
49772.6
49583.3
49393.8
49204.1
49014.4
48824.4
48634.4
48444.2
48253.8
48063.3
47872.7
47681.9
47491
47300
47108.8
46917.4
46725.9
46534.3
46342.5
46150.6
45958.6
45766.4
45574
45381.5
45188.9
44996.1
44803.2
44610.2
44417
44223.6
44030.2
43836.5
43642.8
43448.9
43254.8
43060.6
42866.3
42671.8
42477.2
42282.5
42087.6
41892.5
41697.4
41502
41306.6
41111
40915.2
40719.3
40523.3
40327.2
40130.8
39934.4
39737.8
39541.1
39344.2
39147.2
38950
38752.8
38555.3
38357.7
38160
37962.2
37764.2
37566
37367.8
37169.3
36970.8
36772.1
36573.3
36374.3
36175.2
35975.9
35776.5
35577
35377.3
35177.5
34977.5
34777.4
34577.2
34376.8
34176.3
33975.7
33774.9
33574
33372.9
33171.7
32970.4
32768.9
32567.3
32365.6
32163.7
31961.7
31759.6
31557.3
31354.9
31152.3
30949.7
30746.8
30543.9
30340.8
30137.6
29934.3
29730.8
29527.2
29323.4
29119.5
28915.5
28711.4
28507.1
28302.6
28098.1
27893.4
27688.5
27483.6
27278.5
27073.2
26867.8
26662.3
26456.6
26250.8
26044.8
25838.7
25632.4
25426
25219.5
25012.8
24805.9
24598.9
24391.8
24184.5
23977
23769.4
23561.7
23353.8
23145.7
22937.5
22729.1
22520.6
22311.9
22103.1
21894.1
21685
21475.7
21266.3
21056.7
20847
20637.1
20427
20216.9
20006.5
19796
19585.4
19374.6
19163.6
18952.5
18741.2
18529.8
18318.3
18106.6
17894.7
17682.7
17470.5
17258.2
17045.8
16833.2
16620.4
16407.5
16194.4
15981.2
15767.8
15554.3
15340.6
15126.8
14912.8
14698.7
14484.4
14270
14055.4
13840.7
13625.8
13410.8
13195.6
12980.3
12764.8
12549.1
12333.4
12117.4
11901.3
11685.1
11468.6
11252.1
11035.4
10818.5
10601.5
10384.3
10167
9949.53
9731.9
9514.12
9296.18
9078.09
8859.85
8641.45
8422.9
8204.2
7985.34
7766.33
7547.16
7327.84
7108.36
6888.73
6668.95
6449.01
6228.91
6008.67
5788.26
5567.71
5346.99
5126.13
4905.1
4683.93
4462.59
4241.11
4019.46
3797.66
3575.71
3353.6
3131.33
2908.91
2686.33
2463.6
2240.71
2017.66
1794.46
1571.1
1347.58
1123.91
900.077
676.09
451.947
227.484
)
;

boundaryField
{
    inlet
    {
        type            darcyGradPressure;
        gradient        uniform 116344;
        Mf              Mf;
        phi             phi;
        value           uniform 162497;
    }
    outlet
    {
        type            fixedValue;
        value           uniform 0;
    }
    emptyWalls
    {
        type            empty;
    }
}


// ************************************************************************* //
