/*--------------------------------*- C++ -*----------------------------------*\
  =========                 |
  \\      /  F ield         | OpenFOAM: The Open Source CFD Toolbox
   \\    /   O peration     | Website:  https://openfoam.org
    \\  /    A nd           | Version:  9
     \\/     M anipulation  |
\*---------------------------------------------------------------------------*/
FoamFile
{
    format      ascii;
    class       surfaceScalarField;
    location    "29500";
    object      phic;
}
// * * * * * * * * * * * * * * * * * * * * * * * * * * * * * * * * * * * * * //

dimensions      [0 2 0 0 0 0 0];

internalField   nonuniform List<scalar> 
999
(
5.87e-16
2.38302e-15
5.8469e-15
1.09291e-14
1.76015e-14
2.58582e-14
3.57012e-14
4.71391e-14
6.01842e-14
7.48479e-14
9.11432e-14
1.09078e-13
1.28649e-13
1.49855e-13
1.72668e-13
1.97062e-13
2.22969e-13
2.50325e-13
2.79001e-13
3.08859e-13
3.39709e-13
3.71294e-13
4.03361e-13
4.35538e-13
4.67498e-13
4.98827e-13
5.29153e-13
5.5812e-13
5.85424e-13
6.1084e-13
6.34233e-13
6.55548e-13
6.74825e-13
6.92151e-13
7.07766e-13
7.22108e-13
7.37027e-13
7.60185e-13
8.26326e-13
1.07505e-12
2.05352e-12
7.44947e-12
1.84745e-11
2.06715e-11
2.13452e-11
2.16729e-11
2.18813e-11
2.20372e-11
2.21667e-11
2.22809e-11
2.23844e-11
2.24787e-11
2.25648e-11
2.26442e-11
2.27195e-11
2.27932e-11
2.28671e-11
2.29417e-11
2.30168e-11
2.30912e-11
2.31644e-11
2.32419e-11
2.33196e-11
2.33959e-11
2.34702e-11
2.35422e-11
2.3612e-11
2.36798e-11
2.37459e-11
2.38108e-11
2.38749e-11
2.39369e-11
2.39992e-11
2.40616e-11
2.41241e-11
2.41866e-11
2.42492e-11
2.4312e-11
2.43752e-11
2.44385e-11
2.45022e-11
2.45661e-11
2.46304e-11
2.46952e-11
2.47606e-11
2.48267e-11
2.48943e-11
2.49628e-11
2.5032e-11
2.51021e-11
2.51732e-11
2.52452e-11
2.53182e-11
2.53925e-11
2.54679e-11
2.55447e-11
2.5623e-11
2.57029e-11
2.57846e-11
2.58683e-11
2.59541e-11
2.60424e-11
2.61335e-11
2.62278e-11
2.63257e-11
2.64279e-11
2.65353e-11
2.66489e-11
2.67701e-11
2.69008e-11
2.70432e-11
2.72001e-11
2.73742e-11
2.75682e-11
2.77837e-11
2.80207e-11
2.82772e-11
2.85496e-11
2.88342e-11
2.91283e-11
2.94295e-11
2.97365e-11
3.00481e-11
3.03635e-11
3.06819e-11
3.1003e-11
3.13263e-11
3.16515e-11
3.19785e-11
3.2307e-11
3.26369e-11
3.29683e-11
3.33009e-11
3.36349e-11
3.397e-11
3.43061e-11
3.46433e-11
3.49814e-11
3.53204e-11
3.56601e-11
3.60004e-11
3.6341e-11
3.66819e-11
3.70227e-11
3.73634e-11
3.77039e-11
3.80442e-11
3.83845e-11
3.87248e-11
3.90654e-11
3.94064e-11
3.97479e-11
4.009e-11
4.04328e-11
4.07764e-11
4.1121e-11
4.14667e-11
4.18138e-11
4.21624e-11
4.25127e-11
4.28647e-11
4.32187e-11
4.35744e-11
4.39319e-11
4.4291e-11
4.46514e-11
4.5013e-11
4.53755e-11
4.57387e-11
4.61023e-11
4.64661e-11
4.683e-11
4.71939e-11
4.75575e-11
4.7921e-11
4.82843e-11
4.86474e-11
4.90103e-11
4.93732e-11
4.97361e-11
5.00991e-11
5.04622e-11
5.08256e-11
5.11892e-11
5.15533e-11
5.19177e-11
5.22826e-11
5.2648e-11
5.30139e-11
5.33803e-11
5.37472e-11
5.41146e-11
5.44825e-11
5.48509e-11
5.52198e-11
5.55892e-11
5.5959e-11
5.63292e-11
5.66998e-11
5.70709e-11
5.74423e-11
5.78142e-11
5.81864e-11
5.85589e-11
5.89319e-11
5.93051e-11
5.96788e-11
6.00527e-11
6.0427e-11
6.08017e-11
6.11766e-11
6.15519e-11
6.19274e-11
6.23033e-11
6.26795e-11
6.3056e-11
6.34329e-11
6.381e-11
6.41874e-11
6.45652e-11
6.49432e-11
6.53215e-11
6.57002e-11
6.60791e-11
6.64582e-11
6.68377e-11
6.72174e-11
6.75974e-11
6.79776e-11
6.83581e-11
6.87389e-11
6.91199e-11
6.95012e-11
6.98827e-11
7.02646e-11
7.06467e-11
7.10291e-11
7.14118e-11
7.17947e-11
7.21779e-11
7.25614e-11
7.29451e-11
7.33291e-11
7.37132e-11
7.40976e-11
7.44823e-11
7.48671e-11
7.52522e-11
7.56375e-11
7.60231e-11
7.6409e-11
7.67952e-11
7.71817e-11
7.75685e-11
7.79557e-11
7.83433e-11
7.87312e-11
7.91193e-11
7.95077e-11
7.98962e-11
8.02848e-11
8.06733e-11
8.10616e-11
8.14497e-11
8.18374e-11
8.22247e-11
8.26116e-11
8.29979e-11
8.33837e-11
8.37689e-11
8.41537e-11
8.45381e-11
8.4922e-11
8.53057e-11
8.56893e-11
8.60729e-11
8.64566e-11
8.68406e-11
8.72252e-11
8.76104e-11
8.79965e-11
8.83837e-11
8.87722e-11
8.9162e-11
8.95535e-11
8.99466e-11
9.03415e-11
9.07381e-11
9.11365e-11
9.15366e-11
9.19383e-11
9.23415e-11
9.27459e-11
9.31514e-11
9.35578e-11
9.39649e-11
9.43725e-11
9.47803e-11
9.51883e-11
9.55961e-11
9.60039e-11
9.64113e-11
9.68184e-11
9.72251e-11
9.76315e-11
9.80374e-11
9.8443e-11
9.88482e-11
9.92532e-11
9.9658e-11
1.00063e-10
1.00467e-10
1.00872e-10
1.01276e-10
1.01681e-10
1.02086e-10
1.02491e-10
1.02896e-10
1.03302e-10
1.03707e-10
1.04114e-10
1.0452e-10
1.04927e-10
1.05334e-10
1.05742e-10
1.06149e-10
1.06557e-10
1.06966e-10
1.07375e-10
1.07784e-10
1.08193e-10
1.08603e-10
1.09013e-10
1.09423e-10
1.09834e-10
1.10244e-10
1.10655e-10
1.11066e-10
1.11478e-10
1.11889e-10
1.12301e-10
1.12713e-10
1.13125e-10
1.13538e-10
1.13951e-10
1.14363e-10
1.14776e-10
1.1519e-10
1.15603e-10
1.16017e-10
1.1643e-10
1.16844e-10
1.17259e-10
1.17673e-10
1.18088e-10
1.18502e-10
1.18917e-10
1.19332e-10
1.19747e-10
1.20163e-10
1.20578e-10
1.20994e-10
1.2141e-10
1.21826e-10
1.22242e-10
1.22658e-10
1.23075e-10
1.23492e-10
1.23909e-10
1.24326e-10
1.24743e-10
1.2516e-10
1.25578e-10
1.25996e-10
1.26414e-10
1.26832e-10
1.2725e-10
1.27669e-10
1.28087e-10
1.28506e-10
1.28925e-10
1.29344e-10
1.29764e-10
1.30183e-10
1.30603e-10
1.31023e-10
1.31443e-10
1.31864e-10
1.32284e-10
1.32705e-10
1.33126e-10
1.33548e-10
1.33969e-10
1.34391e-10
1.34812e-10
1.35233e-10
1.35655e-10
1.36076e-10
1.36496e-10
1.36917e-10
1.37337e-10
1.37756e-10
1.38175e-10
1.38594e-10
1.39012e-10
1.39429e-10
1.39846e-10
1.40263e-10
1.40679e-10
1.41094e-10
1.4151e-10
1.41925e-10
1.4234e-10
1.42755e-10
1.4317e-10
1.43586e-10
1.44002e-10
1.44419e-10
1.44836e-10
1.45255e-10
1.45675e-10
1.46096e-10
1.46519e-10
1.46944e-10
1.4737e-10
1.47797e-10
1.48227e-10
1.48658e-10
1.49091e-10
1.49526e-10
1.49962e-10
1.504e-10
1.50839e-10
1.51279e-10
1.5172e-10
1.52163e-10
1.52606e-10
1.53049e-10
1.53493e-10
1.53937e-10
1.54381e-10
1.54825e-10
1.55269e-10
1.55712e-10
1.56156e-10
1.56599e-10
1.57042e-10
1.57484e-10
1.57926e-10
1.58368e-10
1.58809e-10
1.5925e-10
1.59691e-10
1.60132e-10
1.60573e-10
1.61013e-10
1.61454e-10
1.61895e-10
1.62335e-10
1.62776e-10
1.63217e-10
1.63659e-10
1.641e-10
1.64542e-10
1.64984e-10
1.65426e-10
1.65869e-10
1.66312e-10
1.66755e-10
1.67199e-10
1.67643e-10
1.68087e-10
1.68531e-10
1.68976e-10
1.69421e-10
1.69867e-10
1.70312e-10
1.70758e-10
1.71204e-10
1.71651e-10
1.72098e-10
1.72545e-10
1.72992e-10
1.73439e-10
1.73887e-10
1.74335e-10
1.74783e-10
1.75231e-10
1.7568e-10
1.76129e-10
1.76578e-10
1.77027e-10
1.77476e-10
1.77925e-10
1.78375e-10
1.78825e-10
1.79275e-10
1.79725e-10
1.80176e-10
1.80626e-10
1.81077e-10
1.81528e-10
1.81979e-10
1.82431e-10
1.82882e-10
1.83334e-10
1.83785e-10
1.84237e-10
1.8469e-10
1.85142e-10
1.85594e-10
1.86047e-10
1.865e-10
1.86953e-10
1.87406e-10
1.8786e-10
1.88313e-10
1.88767e-10
1.89221e-10
1.89675e-10
1.90129e-10
1.90584e-10
1.91038e-10
1.91493e-10
1.91948e-10
1.92404e-10
1.92859e-10
1.93315e-10
1.93771e-10
1.94227e-10
1.94683e-10
1.9514e-10
1.95597e-10
1.96054e-10
1.96511e-10
1.96968e-10
1.97426e-10
1.97883e-10
1.98341e-10
1.98799e-10
1.99256e-10
1.99714e-10
2.00172e-10
2.00629e-10
2.01087e-10
2.01544e-10
2.02e-10
2.02457e-10
2.02913e-10
2.03368e-10
2.03824e-10
2.04278e-10
2.04732e-10
2.05186e-10
2.05639e-10
2.06092e-10
2.06545e-10
2.06997e-10
2.07449e-10
2.07901e-10
2.08352e-10
2.08804e-10
2.09256e-10
2.09708e-10
2.1016e-10
2.10613e-10
2.11067e-10
2.11521e-10
2.11977e-10
2.12433e-10
2.12891e-10
2.1335e-10
2.1381e-10
2.14272e-10
2.14736e-10
2.15201e-10
2.15668e-10
2.16137e-10
2.16607e-10
2.1708e-10
2.17554e-10
2.1803e-10
2.18507e-10
2.18986e-10
2.19467e-10
2.19948e-10
2.20431e-10
2.20915e-10
2.21399e-10
2.21885e-10
2.22371e-10
2.22857e-10
2.23344e-10
2.23831e-10
2.24318e-10
2.24806e-10
2.25293e-10
2.2578e-10
2.26267e-10
2.26753e-10
2.2724e-10
2.27726e-10
2.28212e-10
2.28698e-10
2.29184e-10
2.29669e-10
2.30155e-10
2.3064e-10
2.31125e-10
2.3161e-10
2.32095e-10
2.32581e-10
2.33066e-10
2.33552e-10
2.34037e-10
2.34523e-10
2.3501e-10
2.35496e-10
2.35983e-10
2.3647e-10
2.36957e-10
2.37445e-10
2.37933e-10
2.38421e-10
2.3891e-10
2.39399e-10
2.39889e-10
2.40378e-10
2.40869e-10
2.41359e-10
2.4185e-10
2.42341e-10
2.42833e-10
2.43325e-10
2.43817e-10
2.4431e-10
2.44803e-10
2.45296e-10
2.4579e-10
2.46284e-10
2.46778e-10
2.47273e-10
2.47767e-10
2.48263e-10
2.48758e-10
2.49254e-10
2.49749e-10
2.50246e-10
2.50742e-10
2.51239e-10
2.51736e-10
2.52233e-10
2.5273e-10
2.53228e-10
2.53726e-10
2.54224e-10
2.54723e-10
2.55221e-10
2.5572e-10
2.56219e-10
2.56719e-10
2.57218e-10
2.57718e-10
2.58218e-10
2.58719e-10
2.59219e-10
2.5972e-10
2.60222e-10
2.60723e-10
2.61225e-10
2.61726e-10
2.62229e-10
2.62731e-10
2.63234e-10
2.63737e-10
2.6424e-10
2.64743e-10
2.65247e-10
2.65751e-10
2.66255e-10
2.6676e-10
2.67265e-10
2.6777e-10
2.68276e-10
2.68781e-10
2.69287e-10
2.69794e-10
2.703e-10
2.70807e-10
2.71314e-10
2.71822e-10
2.72329e-10
2.72837e-10
2.73345e-10
2.73854e-10
2.74362e-10
2.74871e-10
2.75379e-10
2.75888e-10
2.76397e-10
2.76905e-10
2.77414e-10
2.77922e-10
2.78431e-10
2.78939e-10
2.79447e-10
2.79954e-10
2.80462e-10
2.80969e-10
2.81475e-10
2.81982e-10
2.82488e-10
2.82994e-10
2.835e-10
2.84005e-10
2.8451e-10
2.85015e-10
2.8552e-10
2.86025e-10
2.8653e-10
2.87035e-10
2.8754e-10
2.88045e-10
2.88551e-10
2.89058e-10
2.89565e-10
2.90073e-10
2.90582e-10
2.91091e-10
2.91602e-10
2.92115e-10
2.92628e-10
2.93143e-10
2.9366e-10
2.94178e-10
2.94698e-10
2.9522e-10
2.95744e-10
2.96269e-10
2.96797e-10
2.97326e-10
2.97857e-10
2.9839e-10
2.98925e-10
2.99462e-10
3.00001e-10
3.00541e-10
3.01082e-10
3.01626e-10
3.0217e-10
3.02716e-10
3.03262e-10
3.0381e-10
3.04358e-10
3.04908e-10
3.05458e-10
3.06008e-10
3.06559e-10
3.0711e-10
3.07661e-10
3.08213e-10
3.08765e-10
3.09317e-10
3.09868e-10
3.1042e-10
3.10972e-10
3.11524e-10
3.12076e-10
3.12628e-10
3.1318e-10
3.13732e-10
3.14284e-10
3.14837e-10
3.15389e-10
3.15942e-10
3.16494e-10
3.17047e-10
3.176e-10
3.18154e-10
3.18707e-10
3.19262e-10
3.19816e-10
3.20371e-10
3.20926e-10
3.21482e-10
3.22038e-10
3.22595e-10
3.23152e-10
3.2371e-10
3.24268e-10
3.24826e-10
3.25386e-10
3.25945e-10
3.26506e-10
3.27067e-10
3.27628e-10
3.2819e-10
3.28752e-10
3.29315e-10
3.29879e-10
3.30443e-10
3.31007e-10
3.31572e-10
3.32138e-10
3.32704e-10
3.3327e-10
3.33837e-10
3.34405e-10
3.34973e-10
3.35541e-10
3.3611e-10
3.3668e-10
3.3725e-10
3.3782e-10
3.38391e-10
3.38962e-10
3.39534e-10
3.40107e-10
3.40679e-10
3.41252e-10
3.41826e-10
3.424e-10
3.42975e-10
3.4355e-10
3.44125e-10
3.44701e-10
3.45278e-10
3.45854e-10
3.46432e-10
3.4701e-10
3.47588e-10
3.48167e-10
3.48746e-10
3.49326e-10
3.49906e-10
3.50487e-10
3.51068e-10
3.5165e-10
3.52232e-10
3.52815e-10
3.53397e-10
3.53981e-10
3.54565e-10
3.5515e-10
3.55735e-10
3.56321e-10
3.56907e-10
3.57494e-10
3.58082e-10
3.58669e-10
3.59258e-10
3.59847e-10
3.60436e-10
3.61026e-10
3.61617e-10
3.62208e-10
3.628e-10
3.63391e-10
3.63984e-10
3.64576e-10
3.65171e-10
3.65763e-10
3.6636e-10
3.66951e-10
3.6755e-10
3.68141e-10
3.68741e-10
3.69332e-10
3.69933e-10
3.70524e-10
3.71126e-10
3.71716e-10
3.7232e-10
3.7291e-10
3.73513e-10
3.74103e-10
3.74707e-10
3.75297e-10
3.75901e-10
3.76492e-10
3.77094e-10
3.77686e-10
3.78288e-10
3.78881e-10
3.79483e-10
3.80077e-10
3.80678e-10
3.81274e-10
3.81875e-10
3.82472e-10
3.83074e-10
3.83673e-10
3.84275e-10
3.84876e-10
3.8548e-10
3.86083e-10
3.86688e-10
3.87294e-10
3.87901e-10
3.88509e-10
3.89119e-10
3.89731e-10
3.90344e-10
3.9096e-10
3.91576e-10
3.92196e-10
3.92816e-10
3.9344e-10
3.94065e-10
3.94693e-10
3.95323e-10
3.95956e-10
3.9659e-10
3.97228e-10
3.97867e-10
3.98509e-10
3.99154e-10
3.998e-10
4.00449e-10
4.011e-10
4.01752e-10
4.02408e-10
4.03063e-10
4.03723e-10
4.04381e-10
4.05043e-10
4.05705e-10
4.0637e-10
4.07034e-10
4.07701e-10
4.08368e-10
4.09036e-10
4.09704e-10
4.10375e-10
4.11045e-10
4.11717e-10
4.12388e-10
4.13061e-10
4.13734e-10
4.14408e-10
4.15082e-10
4.15757e-10
4.16432e-10
4.17109e-10
4.17784e-10
4.18462e-10
4.19139e-10
4.19818e-10
4.20496e-10
4.21177e-10
4.21856e-10
4.22538e-10
4.23219e-10
4.23902e-10
4.24585e-10
4.2527e-10
4.25955e-10
4.26642e-10
4.27328e-10
4.28017e-10
4.28705e-10
4.29396e-10
4.30087e-10
4.30779e-10
4.31472e-10
4.32166e-10
4.32861e-10
4.33559e-10
4.34255e-10
4.34955e-10
4.35654e-10
4.36356e-10
4.37057e-10
4.37761e-10
4.38465e-10
4.39171e-10
4.39878e-10
4.40586e-10
4.41295e-10
4.42006e-10
4.42717e-10
4.4343e-10
4.44143e-10
4.44859e-10
4.45575e-10
4.46292e-10
4.47011e-10
4.4773e-10
4.48452e-10
4.49174e-10
4.49897e-10
4.50623e-10
4.51347e-10
4.52075e-10
4.52803e-10
4.53533e-10
4.54263e-10
4.54995e-10
4.55728e-10
)
;

boundaryField
{
    inlet
    {
        type            calculated;
        value           uniform 0;
    }
    outlet
    {
        type            calculated;
        value           uniform 5.09661e-10;
    }
    emptyWalls
    {
        type            empty;
        value           nonuniform List<scalar> 0();
    }
}


// ************************************************************************* //
