/*--------------------------------*- C++ -*----------------------------------*\
  =========                 |
  \\      /  F ield         | OpenFOAM: The Open Source CFD Toolbox
   \\    /   O peration     | Website:  https://openfoam.org
    \\  /    A nd           | Version:  9
     \\/     M anipulation  |
\*---------------------------------------------------------------------------*/
FoamFile
{
    format      ascii;
    class       surfaceScalarField;
    location    "13500";
    object      phib;
}
// * * * * * * * * * * * * * * * * * * * * * * * * * * * * * * * * * * * * * //

dimensions      [0 2 0 0 0 0 0];

internalField   nonuniform List<scalar> 
999
(
1.13623e-09
1.13625e-09
1.13628e-09
1.1363e-09
1.13634e-09
1.13636e-09
1.13641e-09
1.13644e-09
1.13653e-09
1.13655e-09
1.13666e-09
1.13669e-09
1.13676e-09
1.13682e-09
1.13686e-09
1.13704e-09
1.13748e-09
1.1393e-09
1.15208e-09
1.17148e-09
1.17344e-09
1.17346e-09
1.17364e-09
1.17451e-09
1.17554e-09
1.17663e-09
1.17788e-09
1.17884e-09
1.17949e-09
1.17988e-09
1.18009e-09
1.18013e-09
1.18e-09
1.17989e-09
1.17982e-09
1.17978e-09
1.17975e-09
1.17973e-09
1.17973e-09
1.17975e-09
1.17976e-09
1.17977e-09
1.17977e-09
1.17976e-09
1.17973e-09
1.17968e-09
1.17961e-09
1.1795e-09
1.17934e-09
1.17913e-09
1.17883e-09
1.17845e-09
1.17798e-09
1.17745e-09
1.17688e-09
1.17629e-09
1.17568e-09
1.17505e-09
1.1744e-09
1.17375e-09
1.17309e-09
1.17242e-09
1.17174e-09
1.17105e-09
1.17036e-09
1.16967e-09
1.16896e-09
1.16826e-09
1.16755e-09
1.16683e-09
1.16611e-09
1.16538e-09
1.16465e-09
1.16392e-09
1.16318e-09
1.16244e-09
1.16169e-09
1.16094e-09
1.16019e-09
1.15943e-09
1.15867e-09
1.15791e-09
1.15714e-09
1.15637e-09
1.15559e-09
1.15481e-09
1.15403e-09
1.15325e-09
1.15246e-09
1.15167e-09
1.15087e-09
1.15008e-09
1.14928e-09
1.14848e-09
1.14768e-09
1.14688e-09
1.14607e-09
1.14527e-09
1.14446e-09
1.14365e-09
1.14284e-09
1.14203e-09
1.14121e-09
1.14039e-09
1.13956e-09
1.13873e-09
1.1379e-09
1.13706e-09
1.13623e-09
1.13539e-09
1.13456e-09
1.13372e-09
1.13286e-09
1.132e-09
1.13112e-09
1.13022e-09
1.12929e-09
1.12834e-09
1.12737e-09
1.12637e-09
1.12535e-09
1.12431e-09
1.12326e-09
1.1222e-09
1.12113e-09
1.12007e-09
1.11901e-09
1.11796e-09
1.11694e-09
1.11594e-09
1.11497e-09
1.11405e-09
1.11317e-09
1.11233e-09
1.11154e-09
1.1108e-09
1.1101e-09
1.10944e-09
1.1088e-09
1.10819e-09
1.1076e-09
1.107e-09
1.10641e-09
1.1058e-09
1.10517e-09
1.10452e-09
1.10384e-09
1.10314e-09
1.10241e-09
1.10165e-09
1.10086e-09
1.10005e-09
1.09923e-09
1.09838e-09
1.09753e-09
1.09666e-09
1.09578e-09
1.0949e-09
1.09402e-09
1.09314e-09
1.09225e-09
1.09137e-09
1.09049e-09
1.08961e-09
1.08874e-09
1.08787e-09
1.087e-09
1.08613e-09
1.08526e-09
1.0844e-09
1.08353e-09
1.08267e-09
1.08181e-09
1.08094e-09
1.08008e-09
1.07921e-09
1.07834e-09
1.07748e-09
1.07661e-09
1.07574e-09
1.07486e-09
1.07399e-09
1.07312e-09
1.07224e-09
1.07136e-09
1.07048e-09
1.0696e-09
1.06872e-09
1.06783e-09
1.06694e-09
1.06606e-09
1.06517e-09
1.06427e-09
1.06338e-09
1.06248e-09
1.06159e-09
1.06069e-09
1.05979e-09
1.05888e-09
1.05798e-09
1.05707e-09
1.05616e-09
1.05525e-09
1.05434e-09
1.05342e-09
1.05251e-09
1.05159e-09
1.05067e-09
1.04975e-09
1.04882e-09
1.0479e-09
1.04697e-09
1.04604e-09
1.04511e-09
1.04417e-09
1.04323e-09
1.0423e-09
1.04136e-09
1.04041e-09
1.03947e-09
1.03852e-09
1.03758e-09
1.03662e-09
1.03567e-09
1.03472e-09
1.03376e-09
1.03281e-09
1.03185e-09
1.03089e-09
1.02992e-09
1.02896e-09
1.02799e-09
1.02703e-09
1.02606e-09
1.02509e-09
1.02412e-09
1.02314e-09
1.02217e-09
1.02119e-09
1.02022e-09
1.01924e-09
1.01826e-09
1.01727e-09
1.01629e-09
1.0153e-09
1.01431e-09
1.01332e-09
1.01233e-09
1.01133e-09
1.01033e-09
1.00933e-09
1.00832e-09
1.00731e-09
1.00629e-09
1.00526e-09
1.00423e-09
1.00319e-09
1.00214e-09
1.00108e-09
1.00002e-09
9.98939e-10
9.97852e-10
9.96755e-10
9.95649e-10
9.94534e-10
9.93412e-10
9.92283e-10
9.91149e-10
9.90012e-10
9.88873e-10
9.87734e-10
9.86597e-10
9.85464e-10
9.84337e-10
9.8322e-10
9.82113e-10
9.81018e-10
9.79938e-10
9.78874e-10
9.77827e-10
9.76797e-10
9.75786e-10
9.74792e-10
9.73816e-10
9.72856e-10
9.7191e-10
9.70977e-10
9.70055e-10
9.69141e-10
9.68232e-10
9.67326e-10
9.6642e-10
9.65512e-10
9.646e-10
9.63682e-10
9.62755e-10
9.61819e-10
9.60872e-10
9.59915e-10
9.58946e-10
9.57965e-10
9.56973e-10
9.55971e-10
9.54958e-10
9.53935e-10
9.52903e-10
9.51863e-10
9.50817e-10
9.49764e-10
9.48705e-10
9.47642e-10
9.46574e-10
9.45504e-10
9.4443e-10
9.43354e-10
9.42277e-10
9.41198e-10
9.40117e-10
9.39035e-10
9.37953e-10
9.36869e-10
9.35785e-10
9.34699e-10
9.33613e-10
9.32526e-10
9.31437e-10
9.30347e-10
9.29256e-10
9.28164e-10
9.2707e-10
9.25974e-10
9.24877e-10
9.23778e-10
9.22677e-10
9.21574e-10
9.20469e-10
9.19362e-10
9.18253e-10
9.17142e-10
9.16028e-10
9.14912e-10
9.13794e-10
9.12673e-10
9.1155e-10
9.10425e-10
9.09297e-10
9.08167e-10
9.07034e-10
9.05899e-10
9.04761e-10
9.0362e-10
9.02477e-10
9.01331e-10
9.00183e-10
8.99031e-10
8.97877e-10
8.96721e-10
8.95561e-10
8.94399e-10
8.93233e-10
8.92065e-10
8.90894e-10
8.8972e-10
8.88542e-10
8.87362e-10
8.86179e-10
8.84993e-10
8.83803e-10
8.82611e-10
8.81415e-10
8.80216e-10
8.79014e-10
8.77809e-10
8.766e-10
8.75388e-10
8.74173e-10
8.72955e-10
8.71733e-10
8.70507e-10
8.69279e-10
8.68047e-10
8.66811e-10
8.65572e-10
8.6433e-10
8.63084e-10
8.61835e-10
8.60582e-10
8.59326e-10
8.58067e-10
8.56803e-10
8.55537e-10
8.54267e-10
8.52993e-10
8.51716e-10
8.50436e-10
8.49152e-10
8.47864e-10
8.46573e-10
8.45278e-10
8.4398e-10
8.42678e-10
8.41372e-10
8.40062e-10
8.38749e-10
8.37431e-10
8.3611e-10
8.34785e-10
8.33455e-10
8.32121e-10
8.30783e-10
8.2944e-10
8.28093e-10
8.2674e-10
8.25382e-10
8.24019e-10
8.2265e-10
8.21276e-10
8.19895e-10
8.18508e-10
8.17114e-10
8.15713e-10
8.14305e-10
8.1289e-10
8.11467e-10
8.10036e-10
8.08598e-10
8.07152e-10
8.05697e-10
8.04235e-10
8.02765e-10
8.01288e-10
7.99802e-10
7.9831e-10
7.96811e-10
7.95305e-10
7.93793e-10
7.92276e-10
7.90754e-10
7.89227e-10
7.87697e-10
7.86163e-10
7.84627e-10
7.83089e-10
7.8155e-10
7.80011e-10
7.78471e-10
7.76933e-10
7.75395e-10
7.7386e-10
7.72325e-10
7.70794e-10
7.69264e-10
7.67737e-10
7.66213e-10
7.64689e-10
7.63168e-10
7.61648e-10
7.60128e-10
7.58609e-10
7.57088e-10
7.55565e-10
7.5404e-10
7.5251e-10
7.50976e-10
7.49437e-10
7.47891e-10
7.46338e-10
7.44776e-10
7.43205e-10
7.41625e-10
7.40034e-10
7.38432e-10
7.36819e-10
7.35194e-10
7.33558e-10
7.3191e-10
7.30249e-10
7.28577e-10
7.26892e-10
7.25195e-10
7.23486e-10
7.21766e-10
7.20034e-10
7.18291e-10
7.16537e-10
7.14772e-10
7.12996e-10
7.1121e-10
7.09414e-10
7.07609e-10
7.05794e-10
7.0397e-10
7.02137e-10
7.00296e-10
6.98447e-10
6.9659e-10
6.94728e-10
6.92859e-10
6.90985e-10
6.89108e-10
6.87227e-10
6.85345e-10
6.83464e-10
6.81587e-10
6.79715e-10
6.77851e-10
6.76e-10
6.74164e-10
6.7235e-10
6.70562e-10
6.68807e-10
6.67091e-10
6.6542e-10
6.63801e-10
6.62243e-10
6.60752e-10
6.59337e-10
6.58002e-10
6.56755e-10
6.55599e-10
6.54536e-10
6.53571e-10
6.52701e-10
6.51928e-10
6.51246e-10
6.50649e-10
6.5013e-10
6.49677e-10
6.49276e-10
6.48906e-10
6.48533e-10
6.48102e-10
6.47521e-10
6.46632e-10
6.4516e-10
6.42628e-10
6.38211e-10
6.30533e-10
6.17433e-10
5.95883e-10
5.6256e-10
5.15748e-10
4.5831e-10
3.98813e-10
3.47521e-10
3.10203e-10
2.86448e-10
2.72646e-10
2.65062e-10
2.61024e-10
2.58912e-10
2.57816e-10
2.57251e-10
2.56961e-10
2.56812e-10
2.56735e-10
2.56696e-10
2.56676e-10
2.56665e-10
2.5666e-10
2.56657e-10
2.56656e-10
2.56655e-10
2.56654e-10
2.56654e-10
2.56653e-10
2.56653e-10
2.56652e-10
2.56651e-10
2.5665e-10
2.56649e-10
2.56648e-10
2.56647e-10
2.56645e-10
2.56644e-10
2.56643e-10
2.56641e-10
2.56639e-10
2.56638e-10
2.56636e-10
2.56634e-10
2.56632e-10
2.5663e-10
2.56628e-10
2.56626e-10
2.56624e-10
2.56621e-10
2.56619e-10
2.56616e-10
2.56613e-10
2.56611e-10
2.56608e-10
2.56605e-10
2.56601e-10
2.56598e-10
2.56594e-10
2.56591e-10
2.56587e-10
2.56583e-10
2.56578e-10
2.56574e-10
2.56569e-10
2.56564e-10
2.56559e-10
2.56553e-10
2.56547e-10
2.56541e-10
2.56534e-10
2.56527e-10
2.56519e-10
2.56511e-10
2.56502e-10
2.56493e-10
2.56484e-10
2.56474e-10
2.56463e-10
2.56452e-10
2.5644e-10
2.56427e-10
2.56414e-10
2.56401e-10
2.56386e-10
2.56372e-10
2.56356e-10
2.56341e-10
2.56325e-10
2.56308e-10
2.56291e-10
2.56274e-10
2.56256e-10
2.56239e-10
2.56221e-10
2.56203e-10
2.56186e-10
2.56169e-10
2.56151e-10
2.56135e-10
2.56119e-10
2.56103e-10
2.56088e-10
2.56074e-10
2.56061e-10
2.56049e-10
2.56038e-10
2.56029e-10
2.56021e-10
2.56014e-10
2.56009e-10
2.56005e-10
2.56003e-10
2.56002e-10
2.56002e-10
2.56002e-10
2.56003e-10
2.56009e-10
2.56016e-10
2.56024e-10
2.56034e-10
2.56045e-10
2.56056e-10
2.56069e-10
2.56083e-10
2.56098e-10
2.56113e-10
2.56128e-10
2.56144e-10
2.56161e-10
2.56177e-10
2.56193e-10
2.5621e-10
2.56226e-10
2.56241e-10
2.56257e-10
2.56272e-10
2.56286e-10
2.563e-10
2.56313e-10
2.56325e-10
2.56337e-10
2.56348e-10
2.56359e-10
2.56368e-10
2.56378e-10
2.56386e-10
2.56394e-10
2.56401e-10
2.56408e-10
2.56414e-10
2.5642e-10
2.56425e-10
2.5643e-10
2.56435e-10
2.56439e-10
2.56443e-10
2.56447e-10
2.5645e-10
2.56454e-10
2.56457e-10
2.5646e-10
2.56463e-10
2.56466e-10
2.56469e-10
2.56472e-10
2.56475e-10
2.56478e-10
2.56481e-10
2.56484e-10
2.56488e-10
2.56491e-10
2.56494e-10
2.56497e-10
2.565e-10
2.56503e-10
2.56507e-10
2.5651e-10
2.56513e-10
2.56516e-10
2.5652e-10
2.56523e-10
2.56526e-10
2.56529e-10
2.56532e-10
2.56536e-10
2.56539e-10
2.56542e-10
2.56545e-10
2.56548e-10
2.56551e-10
2.56554e-10
2.56557e-10
2.56559e-10
2.56562e-10
2.56565e-10
2.56567e-10
2.5657e-10
2.56572e-10
2.56575e-10
2.56577e-10
2.56579e-10
2.56582e-10
2.56584e-10
2.56586e-10
2.56587e-10
2.56589e-10
2.56591e-10
2.56593e-10
2.56594e-10
2.56596e-10
2.56597e-10
2.56598e-10
2.56599e-10
2.56601e-10
2.56602e-10
2.56602e-10
2.56603e-10
2.56604e-10
2.56604e-10
2.56605e-10
2.56605e-10
2.56605e-10
2.56606e-10
2.56606e-10
2.56606e-10
2.56606e-10
2.56606e-10
2.56606e-10
2.56606e-10
2.56606e-10
2.56606e-10
2.56606e-10
2.56606e-10
2.56606e-10
2.56606e-10
2.56606e-10
2.56605e-10
2.56605e-10
2.56605e-10
2.56604e-10
2.56604e-10
2.56603e-10
2.56602e-10
2.56601e-10
2.566e-10
2.56599e-10
2.56598e-10
2.56597e-10
2.56595e-10
2.56594e-10
2.56592e-10
2.5659e-10
2.56588e-10
2.56587e-10
2.56584e-10
2.56582e-10
2.5658e-10
2.56578e-10
2.56575e-10
2.56573e-10
2.5657e-10
2.56567e-10
2.56564e-10
2.56561e-10
2.56558e-10
2.56554e-10
2.56551e-10
2.56547e-10
2.56543e-10
2.56539e-10
2.56534e-10
2.56529e-10
2.56524e-10
2.56519e-10
2.56514e-10
2.56508e-10
2.56502e-10
2.56495e-10
2.56488e-10
2.56481e-10
2.56473e-10
2.56465e-10
2.56456e-10
2.56447e-10
2.56437e-10
2.56427e-10
2.56417e-10
2.56406e-10
2.56395e-10
2.56383e-10
2.56371e-10
2.56358e-10
2.56345e-10
2.56332e-10
2.56318e-10
2.56304e-10
2.5629e-10
2.56276e-10
2.56261e-10
2.56247e-10
2.56232e-10
2.56218e-10
2.56204e-10
2.5619e-10
2.56176e-10
2.56162e-10
2.56149e-10
2.56137e-10
2.56125e-10
2.56114e-10
2.56103e-10
2.56093e-10
2.56085e-10
2.56077e-10
2.5607e-10
2.56064e-10
2.56059e-10
2.56056e-10
2.56053e-10
2.56052e-10
2.56052e-10
2.56052e-10
2.56052e-10
2.56055e-10
2.5606e-10
2.56066e-10
2.56073e-10
2.56081e-10
2.56089e-10
2.56099e-10
2.5611e-10
2.56121e-10
2.56133e-10
2.56146e-10
2.56159e-10
2.56172e-10
2.56186e-10
2.56199e-10
2.56213e-10
2.56227e-10
2.56241e-10
2.56254e-10
2.56267e-10
2.5628e-10
2.56293e-10
2.56305e-10
2.56317e-10
2.56328e-10
2.56339e-10
2.56349e-10
2.56359e-10
2.56368e-10
2.56377e-10
2.56386e-10
2.56393e-10
2.56401e-10
2.56407e-10
2.56414e-10
2.5642e-10
2.56426e-10
2.56431e-10
2.56436e-10
2.5644e-10
2.56445e-10
2.56449e-10
2.56453e-10
2.56457e-10
2.5646e-10
2.56464e-10
2.56467e-10
2.56471e-10
2.56474e-10
2.56477e-10
2.5648e-10
2.56483e-10
2.56487e-10
2.5649e-10
2.56493e-10
2.56496e-10
2.56499e-10
2.56502e-10
2.56505e-10
2.56508e-10
2.56511e-10
2.56515e-10
2.56518e-10
2.56521e-10
2.56524e-10
2.56527e-10
2.5653e-10
2.56534e-10
2.56537e-10
2.5654e-10
2.56543e-10
2.56546e-10
2.56549e-10
2.56552e-10
2.56555e-10
2.56558e-10
2.5656e-10
2.56563e-10
2.56566e-10
2.56568e-10
2.56571e-10
2.56574e-10
2.56576e-10
2.56578e-10
2.56581e-10
2.56583e-10
2.56585e-10
2.56587e-10
2.56589e-10
2.56591e-10
2.56592e-10
2.56594e-10
2.56596e-10
2.56597e-10
2.56599e-10
2.566e-10
2.56601e-10
2.56602e-10
2.56604e-10
2.56605e-10
2.56606e-10
2.56606e-10
2.56607e-10
2.56608e-10
2.56609e-10
2.56609e-10
2.5661e-10
2.5661e-10
2.56611e-10
2.56611e-10
2.56611e-10
2.56612e-10
2.56612e-10
2.56612e-10
2.56612e-10
2.56612e-10
2.56612e-10
2.56612e-10
2.56611e-10
2.56611e-10
2.5661e-10
2.5661e-10
2.56609e-10
2.56609e-10
2.56608e-10
2.56607e-10
2.56606e-10
2.56605e-10
2.56604e-10
2.56603e-10
2.56602e-10
2.566e-10
2.56599e-10
2.56597e-10
2.56596e-10
2.56594e-10
2.56592e-10
2.5659e-10
)
;

boundaryField
{
    inlet
    {
        type            calculated;
        value           uniform -1.13622e-09;
    }
    outlet
    {
        type            calculated;
        value           uniform 2.56588e-10;
    }
    emptyWalls
    {
        type            empty;
        value           nonuniform List<scalar> 0();
    }
}


// ************************************************************************* //
