/*--------------------------------*- C++ -*----------------------------------*\
  =========                 |
  \\      /  F ield         | OpenFOAM: The Open Source CFD Toolbox
   \\    /   O peration     | Website:  https://openfoam.org
    \\  /    A nd           | Version:  9
     \\/     M anipulation  |
\*---------------------------------------------------------------------------*/
FoamFile
{
    format      ascii;
    class       volScalarField;
    location    "12600";
    object      Sb;
}
// * * * * * * * * * * * * * * * * * * * * * * * * * * * * * * * * * * * * * //

dimensions      [0 0 0 0 0 0 0];

internalField   nonuniform List<scalar> 
1000
(
0.350374
0.35143
0.352623
0.353858
0.355048
0.356262
0.357444
0.358625
0.359743
0.36081
0.361767
0.362622
0.363389
0.364062
0.365229
0.368203
0.379961
0.456133
0.620154
0.656302
0.66643
0.671112
0.673972
0.675975
0.677492
0.678677
0.679628
0.680393
0.681011
0.681509
0.681909
0.682226
0.682472
0.68266
0.682793
0.682877
0.682915
0.682905
0.682849
0.68274
0.682578
0.682359
0.682075
0.681713
0.681253
0.680658
0.679882
0.678873
0.677604
0.676109
0.674479
0.672773
0.671024
0.669252
0.667471
0.665689
0.663913
0.662146
0.660392
0.658652
0.656927
0.655219
0.653528
0.651854
0.650197
0.648557
0.646934
0.645328
0.643738
0.642164
0.640607
0.639065
0.637539
0.63603
0.634535
0.633056
0.631591
0.63014
0.628701
0.627274
0.625859
0.624455
0.623062
0.621681
0.620311
0.618953
0.617607
0.616273
0.614952
0.613643
0.612348
0.611065
0.609797
0.608542
0.607302
0.606076
0.604864
0.603665
0.60248
0.601307
0.600145
0.598994
0.597853
0.596719
0.595594
0.594476
0.593364
0.592258
0.591158
0.590065
0.588977
0.587895
0.58682
0.585751
0.584689
0.583634
0.582585
0.581544
0.580509
0.579482
0.578462
0.577449
0.576443
0.575444
0.574451
0.573466
0.572487
0.571514
0.570547
0.569587
0.568633
0.567684
0.566741
0.565804
0.564873
0.563947
0.563027
0.562111
0.561202
0.560297
0.559397
0.558503
0.557613
0.556729
0.555849
0.554974
0.554103
0.553238
0.552377
0.55152
0.550668
0.549821
0.548977
0.548139
0.547304
0.546473
0.545647
0.544825
0.544006
0.543192
0.542382
0.541575
0.540772
0.539974
0.539178
0.538387
0.537599
0.536815
0.536034
0.535257
0.534483
0.533713
0.532946
0.532182
0.531422
0.530665
0.529911
0.52916
0.528413
0.527668
0.526927
0.526189
0.525453
0.524721
0.523992
0.523265
0.522542
0.521821
0.521103
0.520388
0.519676
0.518966
0.518259
0.517555
0.516854
0.516155
0.515459
0.514765
0.514074
0.513385
0.512699
0.512015
0.511334
0.510655
0.509978
0.509303
0.508631
0.507961
0.507294
0.506628
0.505964
0.505303
0.504643
0.503985
0.503328
0.502674
0.50202
0.501369
0.500719
0.50007
0.499424
0.498778
0.498134
0.497492
0.496852
0.496213
0.495577
0.494942
0.494309
0.493679
0.493051
0.492425
0.491802
0.491182
0.490565
0.48995
0.489338
0.488729
0.488123
0.48752
0.486919
0.486321
0.485725
0.485132
0.48454
0.483951
0.483363
0.482777
0.482192
0.481608
0.481026
0.480444
0.479863
0.479283
0.478704
0.478126
0.477548
0.476971
0.476395
0.47582
0.475245
0.474672
0.474099
0.473528
0.472957
0.472388
0.47182
0.471253
0.470687
0.470122
0.469558
0.468996
0.468435
0.467875
0.467316
0.466758
0.466202
0.465647
0.465092
0.464539
0.463987
0.463436
0.462886
0.462337
0.461789
0.461243
0.460697
0.460152
0.459608
0.459064
0.458522
0.457981
0.45744
0.456901
0.456362
0.455824
0.455287
0.45475
0.454215
0.45368
0.453146
0.452613
0.45208
0.451548
0.451017
0.450487
0.449957
0.449428
0.4489
0.448372
0.447845
0.447319
0.446793
0.446268
0.445743
0.445219
0.444696
0.444173
0.443651
0.443129
0.442608
0.442087
0.441567
0.441048
0.440528
0.44001
0.439492
0.438974
0.438456
0.437939
0.437423
0.436907
0.436391
0.435876
0.435361
0.434846
0.434332
0.433818
0.433305
0.432791
0.432278
0.431766
0.431253
0.430741
0.43023
0.429718
0.429207
0.428696
0.428185
0.427674
0.427164
0.426654
0.426144
0.425634
0.425124
0.424615
0.424105
0.423596
0.423087
0.422578
0.422069
0.42156
0.421051
0.420542
0.420034
0.419525
0.419016
0.418507
0.417998
0.417489
0.41698
0.416471
0.415961
0.415452
0.414942
0.414432
0.413921
0.413411
0.4129
0.412388
0.411877
0.411365
0.410852
0.41034
0.409826
0.409313
0.408799
0.408285
0.40777
0.407255
0.406739
0.406224
0.405708
0.405191
0.404675
0.404158
0.403641
0.403124
0.402606
0.402089
0.401571
0.401053
0.400535
0.400017
0.399498
0.39898
0.398461
0.397942
0.397423
0.396903
0.396384
0.395863
0.395343
0.394821
0.3943
0.393777
0.393254
0.39273
0.392205
0.391679
0.391152
0.390624
0.390095
0.389565
0.389033
0.3885
0.387966
0.387431
0.386894
0.386356
0.385817
0.385276
0.384734
0.38419
0.383644
0.383098
0.382549
0.382
0.381449
0.380896
0.380342
0.379786
0.379228
0.378669
0.378108
0.377546
0.376982
0.376416
0.375849
0.375279
0.374708
0.374136
0.373561
0.372985
0.372407
0.371828
0.371247
0.370664
0.370079
0.369493
0.368905
0.368316
0.367726
0.367135
0.366543
0.365951
0.365358
0.364766
0.364175
0.363586
0.362999
0.362415
0.361836
0.361262
0.360696
0.360139
0.359592
0.359059
0.35854
0.358039
0.357557
0.357098
0.356663
0.356254
0.355873
0.355521
0.3552
0.35491
0.354649
0.354419
0.354216
0.354038
0.353882
0.353741
0.353609
0.353472
0.353307
0.353079
0.352723
0.35213
0.351109
0.349341
0.346313
0.341278
0.333342
0.321848
0.307116
0.290984
0.276201
0.264816
0.257237
0.252697
0.250156
0.248789
0.248069
0.247695
0.247501
0.247401
0.24735
0.247324
0.24731
0.247303
0.2473
0.247298
0.247297
0.247296
0.247296
0.247296
0.247296
0.247295
0.247295
0.247295
0.247295
0.247295
0.247295
0.247295
0.247295
0.247295
0.247295
0.247295
0.247295
0.247295
0.247294
0.247294
0.247294
0.247294
0.247294
0.247294
0.247294
0.247294
0.247294
0.247293
0.247293
0.247293
0.247293
0.247293
0.247292
0.247292
0.247292
0.247292
0.247291
0.247291
0.247291
0.24729
0.24729
0.247289
0.247289
0.247288
0.247287
0.247287
0.247286
0.247285
0.247285
0.247284
0.247283
0.247282
0.247282
0.247281
0.24728
0.247279
0.247278
0.247277
0.247276
0.247275
0.247274
0.247273
0.247272
0.247272
0.247271
0.24727
0.247269
0.247268
0.247267
0.247267
0.247266
0.247265
0.247265
0.247264
0.247264
0.247264
0.247263
0.247263
0.247263
0.247263
0.247263
0.247263
0.247263
0.247263
0.247263
0.247264
0.247264
0.247265
0.247265
0.247266
0.247266
0.247267
0.247267
0.247268
0.247268
0.247269
0.24727
0.24727
0.247271
0.247271
0.247272
0.247273
0.247273
0.247274
0.247274
0.247275
0.247275
0.247275
0.247276
0.247276
0.247276
0.247277
0.247277
0.247277
0.247278
0.247278
0.247278
0.247278
0.247278
0.247279
0.247279
0.247279
0.247279
0.247279
0.247279
0.24728
0.24728
0.24728
0.24728
0.24728
0.24728
0.247281
0.247281
0.247281
0.247281
0.247281
0.247282
0.247282
0.247282
0.247282
0.247282
0.247282
0.247283
0.247283
0.247283
0.247283
0.247283
0.247283
0.247284
0.247284
0.247284
0.247284
0.247284
0.247284
0.247284
0.247285
0.247285
0.247285
0.247285
0.247285
0.247285
0.247285
0.247285
0.247286
0.247286
0.247286
0.247286
0.247286
0.247286
0.247286
0.247286
0.247286
0.247286
0.247286
0.247286
0.247286
0.247286
0.247286
0.247286
0.247287
0.247287
0.247287
0.247287
0.247287
0.247287
0.247287
0.247287
0.247287
0.247287
0.247287
0.247287
0.247287
0.247287
0.247287
0.247287
0.247287
0.247286
0.247286
0.247286
0.247286
0.247286
0.247286
0.247286
0.247286
0.247286
0.247286
0.247286
0.247286
0.247286
0.247286
0.247286
0.247286
0.247286
0.247286
0.247286
0.247286
0.247286
0.247286
0.247286
0.247286
0.247286
0.247286
0.247286
0.247286
0.247287
0.247287
0.247287
0.247287
0.247287
0.247287
0.247287
0.247286
0.247286
0.247286
0.247286
0.247286
0.247286
0.247286
0.247285
0.247285
0.247285
0.247285
0.247285
0.247284
0.247284
0.247284
0.247283
0.247283
0.247282
0.247282
0.247282
0.247281
0.247281
0.24728
0.24728
0.247279
0.247279
0.247278
0.247278
0.247277
0.247277
0.247276
0.247275
0.247275
0.247274
0.247274
0.247273
0.247272
0.247272
0.247271
0.24727
0.24727
0.247269
0.247269
0.247268
0.247268
0.247267
0.247267
0.247267
0.247266
0.247266
0.247266
0.247265
0.247265
0.247265
0.247265
0.247265
0.247265
0.247265
0.247265
0.247265
0.247265
0.247266
0.247266
0.247266
0.247267
0.247267
0.247268
0.247268
0.247269
0.247269
0.24727
0.24727
0.247271
0.247271
0.247272
0.247272
0.247273
0.247273
0.247274
0.247274
0.247275
0.247275
0.247275
0.247276
0.247276
0.247277
0.247277
0.247277
0.247278
0.247278
0.247278
0.247278
0.247279
0.247279
0.247279
0.247279
0.247279
0.24728
0.24728
0.24728
0.24728
0.24728
0.24728
0.24728
0.247281
0.247281
0.247281
0.247281
0.247281
0.247281
0.247281
0.247282
0.247282
0.247282
0.247282
0.247282
0.247282
0.247282
0.247282
0.247283
0.247283
0.247283
0.247283
0.247283
0.247283
0.247283
0.247284
0.247284
0.247284
0.247284
0.247284
0.247284
0.247284
0.247285
0.247285
0.247285
0.247285
0.247285
0.247285
0.247285
0.247285
0.247285
0.247286
0.247286
0.247286
0.247286
0.247286
0.247286
0.247286
0.247286
0.247286
0.247286
0.247286
0.247286
0.247286
0.247286
0.247286
0.247286
0.247286
0.247287
0.247287
0.247287
0.247287
0.247287
0.247287
0.247287
0.247287
0.247287
0.247287
0.247287
0.247287
0.247287
0.247287
0.247286
0.247286
0.247286
0.247286
0.247286
0.247286
0.247286
0.247286
0.247286
0.247286
0.247286
0.247286
0.247286
0.247286
0.247286
0.247286
0.247286
0.247286
0.247286
0.247286
0.247286
0.247286
0.247286
0.247286
0.247286
0.247286
0.247286
0.247286
0.247286
0.247286
0.247286
0.247286
0.247285
0.247285
0.247285
0.247285
0.247285
0.247285
0.247285
0.247284
0.247284
0.247284
0.247284
0.247283
0.247283
0.247283
0.247283
0.247282
0.247282
0.247282
0.247281
0.247281
0.247281
0.24728
0.24728
0.247279
0.247279
0.247278
0.247278
0.247277
0.247277
0.247276
0.247276
0.247275
0.247275
0.247274
0.247274
0.247273
0.247273
0.247272
0.247272
0.247271
)
;

boundaryField
{
    inlet
    {
        type            fixedValue;
        value           uniform 0.35;
    }
    outlet
    {
        type            zeroGradient;
    }
    emptyWalls
    {
        type            empty;
    }
}


// ************************************************************************* //
