/*--------------------------------*- C++ -*----------------------------------*\
  =========                 |
  \\      /  F ield         | OpenFOAM: The Open Source CFD Toolbox
   \\    /   O peration     | Website:  https://openfoam.org
    \\  /    A nd           | Version:  9
     \\/     M anipulation  |
\*---------------------------------------------------------------------------*/
FoamFile
{
    format      ascii;
    class       volScalarField;
    location    "17950";
    object      kra;
}
// * * * * * * * * * * * * * * * * * * * * * * * * * * * * * * * * * * * * * //

dimensions      [0 0 0 0 0 0 0];

internalField   nonuniform List<scalar> 
1000
(
0.00023682
0.000237989
0.000239536
0.000241077
0.000242609
0.000244153
0.000245713
0.000247271
0.000248864
0.000250415
0.000252036
0.000253522
0.000255127
0.000256487
0.000257964
0.000259164
0.000260392
0.0002614
0.000262347
0.000263146
0.000263904
0.000264796
0.000266821
0.000273778
0.000304497
0.000519223
0.000819105
0.000880856
0.000898713
0.000907035
0.00091207
0.000915599
0.00091826
0.000920378
0.000922105
0.000923554
0.000924769
0.00092577
0.000926571
0.000927163
0.000927575
0.000927903
0.000928119
0.000928312
0.000928592
0.000928786
0.0009288
0.000928778
0.000928658
0.000928368
0.000928033
0.000927799
0.000927702
0.000927691
0.000927889
0.000928967
0.000930291
0.000931752
0.000933209
0.00093443
0.00093515
0.000935329
0.00093531
0.00093519
0.000934763
0.000933825
0.000932203
0.000929741
0.000926433
0.000922303
0.000917527
0.000912289
0.000906825
0.000901311
0.000895886
0.000890645
0.000885651
0.000880934
0.000876506
0.000872351
0.000868449
0.000864762
0.000861252
0.000857876
0.000854598
0.00085138
0.000848197
0.000845025
0.000841852
0.000838669
0.000835473
0.000832264
0.000829046
0.000825824
0.000822603
0.00081939
0.00081619
0.000813007
0.000809845
0.000806709
0.0008036
0.00080052
0.00079747
0.000794452
0.000791465
0.000788512
0.00078559
0.000782701
0.000779843
0.000777018
0.000774222
0.000771459
0.000768724
0.000766021
0.000763346
0.000760702
0.000758084
0.000755498
0.000752937
0.000750407
0.000747901
0.000745425
0.000742974
0.000740552
0.000738154
0.000735783
0.000733437
0.000731116
0.000728819
0.000726547
0.000724298
0.000722073
0.00071987
0.000717691
0.000715534
0.0007134
0.000711289
0.000709202
0.000707137
0.000705095
0.000703076
0.000701078
0.000699101
0.000697142
0.000695201
0.000693276
0.000691366
0.00068947
0.000687589
0.000685722
0.00068387
0.000682034
0.000680213
0.00067841
0.000676625
0.000674859
0.000673109
0.000671376
0.000669657
0.000667948
0.000666247
0.000664553
0.000662864
0.000661183
0.000659514
0.000657862
0.000656237
0.000654649
0.000653107
0.000651622
0.000650201
0.000648852
0.000647579
0.000646383
0.000645262
0.000644215
0.000643234
0.000642313
0.00064144
0.000640605
0.000639793
0.000638991
0.000638181
0.000637347
0.000636469
0.000635531
0.000634515
0.000633405
0.000632188
0.000630855
0.0006294
0.000627822
0.000626125
0.000624317
0.000622411
0.000620424
0.000618376
0.000616287
0.000614178
0.000612072
0.000609986
0.000607938
0.000605942
0.000604007
0.000602143
0.000600351
0.000598635
0.000596991
0.000595417
0.000593907
0.000592455
0.000591053
0.000589695
0.000588373
0.00058708
0.00058581
0.000584557
0.000583315
0.000582081
0.000580851
0.000579623
0.000578394
0.000577165
0.000575932
0.000574698
0.000573461
0.000572223
0.000570983
0.000569742
0.000568502
0.000567264
0.000566027
0.000564793
0.000563563
0.000562337
0.000561116
0.0005599
0.000558691
0.000557488
0.000556291
0.000555101
0.000553919
0.000552744
0.000551576
0.000550415
0.000549262
0.000548117
0.00054698
0.00054585
0.000544728
0.000543614
0.000542506
0.000541408
0.000540315
0.000539232
0.000538155
0.000537086
0.000536024
0.00053497
0.000533922
0.000532883
0.00053185
0.000530825
0.000529806
0.000528795
0.00052779
0.000526794
0.000525802
0.00052482
0.000523843
0.000522875
0.000521912
0.000520957
0.000520009
0.000519068
0.000518133
0.000517206
0.000516284
0.00051537
0.000514461
0.000513558
0.000512661
0.000511769
0.000510883
0.000510002
0.000509126
0.000508255
0.000507389
0.000506529
0.000505673
0.000504823
0.000503977
0.000503137
0.0005023
0.000501469
0.000500641
0.000499817
0.000498997
0.000498181
0.000497368
0.00049656
0.000495757
0.00049496
0.00049417
0.000493389
0.000492618
0.00049186
0.000491116
0.000490389
0.000489681
0.000488995
0.000488331
0.000487692
0.00048708
0.000486494
0.000485936
0.000485404
0.0004849
0.000484419
0.000483962
0.000483525
0.000483106
0.000482699
0.000482301
0.000481908
0.000481513
0.000481112
0.000480699
0.000480268
0.000479813
0.000479329
0.000478809
0.000478252
0.00047765
0.000477004
0.000476308
0.000475563
0.000474769
0.000473927
0.000473039
0.000472109
0.000471141
0.000470141
0.000469113
0.000468065
0.000467004
0.000465935
0.000464864
0.000463798
0.000462743
0.000461702
0.00046068
0.000459679
0.000458703
0.000457753
0.000456829
0.000455932
0.000455061
0.000454215
0.000453394
0.000452595
0.000451816
0.000451056
0.000450312
0.000449582
0.000448864
0.000448156
0.000447457
0.000446764
0.000446076
0.000445392
0.000444711
0.000444031
0.000443352
0.000442673
0.000441994
0.000441314
0.000440634
0.000439953
0.000439271
0.000438588
0.000437905
0.000437222
0.000436538
0.000435854
0.000435171
0.000434488
0.000433807
0.000433126
0.000432446
0.000431769
0.000431093
0.000430418
0.000429747
0.000429077
0.00042841
0.000427745
0.000427084
0.000426425
0.000425769
0.000425116
0.000424466
0.000423819
0.000423175
0.000422535
0.000421897
0.000421263
0.000420632
0.000420005
0.000419381
0.00041876
0.000418142
0.000417528
0.000416917
0.000416309
0.000415705
0.000415104
0.000414507
0.000413913
0.000413322
0.000412734
0.00041215
0.00041157
0.000410992
0.000410418
0.000409848
0.000409281
0.000408717
0.000408156
0.000407599
0.000407045
0.000406494
0.000405946
0.000405401
0.00040486
0.000404321
0.000403785
0.000403252
0.000402722
0.000402195
0.00040167
0.000401148
0.000400628
0.000400111
0.000399596
0.000399084
0.000398574
0.000398066
0.000397561
0.000397058
0.000396557
0.000396058
0.000395561
0.000395066
0.000394574
0.000394084
0.000393597
0.000393112
0.000392631
0.000392153
0.000391679
0.000391209
0.000390745
0.000390287
0.000389835
0.00038939
0.000388952
0.000388524
0.000388105
0.000387696
0.000387297
0.00038691
0.000386534
0.00038617
0.000385819
0.000385479
0.000385151
0.000384834
0.000384529
0.000384234
0.000383948
0.00038367
0.000383399
0.000383133
0.000382871
0.000382611
0.000382351
0.000382088
0.000381821
0.000381548
0.000381265
0.000380972
0.000380664
0.000380343
0.000380003
0.000379645
0.000379266
0.000378866
0.000378442
0.000377996
0.000377525
0.000377031
0.000376514
0.000375974
0.000375413
0.000374832
0.000374234
0.000373618
0.00037299
0.000372349
0.000371699
0.000371043
0.000370383
0.000369721
0.00036906
0.000368401
0.000367747
0.0003671
0.00036646
0.00036583
0.000365209
0.0003646
0.000364002
0.000363415
0.00036284
0.000362276
0.000361724
0.000361182
0.00036065
0.000360128
0.000359615
0.00035911
0.000358612
0.00035812
0.000357635
0.000357154
0.000356677
0.000356204
0.000355735
0.000355267
0.000354801
0.000354337
0.000353874
0.000353412
0.00035295
0.000352488
0.000352026
0.000351564
0.000351102
0.00035064
0.000350177
0.000349714
0.000349251
0.000348788
0.000348324
0.00034786
0.000347398
0.000346934
0.000346471
0.000346008
0.000345547
0.000345084
0.000344625
0.000344164
0.000343705
0.000343246
0.00034279
0.000342334
0.000341879
0.000341426
0.000340973
0.000340523
0.000340073
0.000339625
0.000339179
0.000338734
0.000338291
0.000337849
0.00033741
0.000336971
0.000336535
0.0003361
0.000335667
0.000335235
0.000334805
0.000334378
0.000333951
0.000333527
0.000333104
0.000332683
0.000332264
0.000331846
0.00033143
0.000331016
0.000330603
0.000330193
0.000329783
0.000329376
0.00032897
0.000328566
0.000328164
0.000327762
0.000327363
0.000326965
0.000326569
0.000326174
0.00032578
0.000325388
0.000324998
0.000324608
0.00032422
0.000323833
0.000323447
0.000323063
0.00032268
0.000322297
0.000321916
0.000321536
0.000321157
0.000320779
0.000320402
0.000320026
0.000319651
0.000319277
0.000318903
0.000318531
0.00031816
0.00031779
0.000317421
0.000317053
0.000316688
0.000316323
0.00031596
0.000315598
0.000315239
0.000314883
0.000314528
0.000314176
0.000313827
0.000313482
0.00031314
0.000312802
0.000312469
0.000312139
0.000311814
0.000311494
0.000311179
0.000310869
0.000310565
0.000310266
0.000309973
0.000309685
0.000309403
0.000309126
0.000308854
0.000308588
0.000308326
0.000308068
0.000307814
0.000307564
0.000307316
0.000307071
0.000306827
0.000306584
0.000306341
0.000306097
0.000305852
0.000305605
0.000305354
0.000305101
0.000304842
0.000304579
0.000304309
0.000304034
0.000303752
0.000303463
0.000303167
0.000302864
0.000302555
0.000302238
0.000301916
0.000301589
0.000301257
0.000300922
0.000300585
0.000300247
0.000299909
0.000299574
0.000299243
0.000298916
0.000298597
0.000298285
0.000297984
0.000297692
0.000297413
0.000297147
0.000296892
0.000296653
0.000296426
0.000296213
0.000296014
0.000295828
0.000295655
0.000295494
0.000295345
0.000295206
0.000295076
0.000294953
0.000294834
0.000294714
0.000294584
0.000294429
0.000294222
0.000293919
0.000293436
0.000292637
0.000291293
0.000289051
0.000285448
0.000280037
0.000272788
0.000264554
0.000257011
0.00025155
0.000248337
0.000246692
0.000245896
0.000245507
0.000245309
0.000245201
0.000245138
0.000245096
0.000245066
0.000245041
0.00024502
0.000244999
0.000244979
0.00024496
0.00024494
0.00024492
0.0002449
0.000244879
0.000244859
0.000244838
0.000244817
0.000244796
0.000244774
0.000244753
0.000244731
0.00024471
0.000244688
0.000244666
0.000244644
0.000244623
0.000244601
0.00024458
0.000244559
0.000244538
0.000244517
0.000244496
0.000244476
0.000244457
0.000244437
0.000244418
0.0002444
0.000244381
0.000244364
0.000244347
0.00024433
0.000244314
0.000244298
0.000244283
0.000244268
0.000244255
0.000244241
0.000244229
0.000244216
0.000244205
0.000244194
0.000244184
0.000244174
0.000244165
0.000244157
0.000244149
0.000244143
0.000244136
0.000244131
0.000244126
0.000244121
0.000244118
0.000244115
0.000244112
0.000244111
0.00024411
0.00024411
0.00024411
0.00024411
0.00024411
0.000244113
0.000244115
0.000244118
0.000244122
0.000244127
0.000244131
0.000244137
0.000244143
0.000244149
0.000244156
0.000244164
0.000244171
0.00024418
0.000244189
0.000244198
0.000244208
0.000244219
0.00024423
0.000244241
0.000244253
0.000244266
0.000244279
0.000244292
0.000244307
0.000244322
0.000244337
0.000244354
0.000244371
0.000244389
0.000244408
0.000244429
0.00024445
0.000244472
0.000244496
0.000244522
0.000244548
0.000244577
0.000244607
0.000244639
0.000244674
0.00024471
0.000244748
0.000244789
0.000244833
0.000244879
0.000244927
0.000244979
0.000245033
0.00024509
0.00024515
0.000245213
0.000245279
0.000245348
0.000245419
0.000245494
0.000245571
0.000245651
0.000245733
0.000245818
0.000245905
0.000245993
0.000246084
0.000246175
0.000246268
0.000246362
0.000246455
0.000246549
0.000246642
0.000246735
0.000246826
0.000246916
0.000247003
0.000247088
0.00024717
0.000247249
0.000247323
0.000247393
0.000247458
0.000247518
0.000247572
0.00024762
0.000247662
0.000247697
0.000247726
0.000247747
0.000247761
0.000247767
0.000247768
0.000247768
0.000247766
0.000247748
0.00024772
0.000247685
0.000247644
0.000247596
0.000247544
0.000247486
0.000247423
0.000247356
0.000247285
0.000247211
0.000247134
0.000247055
0.000246974
0.000246892
0.00024681
0.000246727
0.000246644
0.000246562
0.000246481
0.000246402
0.000246324
0.000246248
0.000246174
0.000246103
0.000246034
0.000245969
0.000245906
0.000245846
0.000245788
0.000245734
0.000245683
0.000245634
0.000245588
0.000245545
0.000245504
0.000245465
0.000245429
0.000245395
0.000245363
0.000245333
0.000245304
0.000245276
0.00024525
0.000245226
0.000245202
0.000245179
0.000245157
0.000245135
0.000245114
0.000245093
0.000245073
0.000245053
0.000245033
0.000245014
0.000244994
0.000244974
0.000244954
0.000244935
0.000244915
0.000244895
0.000244875
0.000244855
0.000244834
0.000244814
0.000244793
0.000244773
0.000244752
0.000244732
0.000244711
0.00024469
0.00024467
0.000244649
0.000244629
0.000244608
0.000244588
0.000244568
0.000244548
0.000244529
0.00024451
0.000244491
0.000244472
0.000244454
0.000244436
0.000244418
0.000244401
0.000244384
0.000244368
0.000244352
0.000244337
0.000244322
0.000244308
0.000244294
0.000244281
0.000244269
0.000244257
0.000244245
0.000244234
0.000244224
0.000244215
0.000244206
0.000244197
0.000244189
0.000244182
0.000244176
0.00024417
0.000244165
0.00024416
0.000244156
0.000244153
0.000244149
0.000244165
)
;

boundaryField
{
    inlet
    {
        type            calculated;
        value           uniform 0.000236304;
    }
    outlet
    {
        type            calculated;
        value           uniform 0.000244147;
    }
    emptyWalls
    {
        type            empty;
    }
}


// ************************************************************************* //
