/*--------------------------------*- C++ -*----------------------------------*\
  =========                 |
  \\      /  F ield         | OpenFOAM: The Open Source CFD Toolbox
   \\    /   O peration     | Website:  https://openfoam.org
    \\  /    A nd           | Version:  9
     \\/     M anipulation  |
\*---------------------------------------------------------------------------*/
FoamFile
{
    format      ascii;
    class       volVectorField;
    location    "17950";
    object      Ua;
}
// * * * * * * * * * * * * * * * * * * * * * * * * * * * * * * * * * * * * * //

dimensions      [0 0 0 0 0 0 0];

internalField   nonuniform List<vector> 
1000
(
(2.74898e-06 0 0)
(2.7486e-06 0 0)
(2.7484e-06 0 0)
(2.74817e-06 0 0)
(2.74785e-06 0 0)
(2.7475e-06 0 0)
(2.74704e-06 0 0)
(2.74649e-06 0 0)
(2.74579e-06 0 0)
(2.74505e-06 0 0)
(2.74418e-06 0 0)
(2.74326e-06 0 0)
(2.74236e-06 0 0)
(2.74127e-06 0 0)
(2.74032e-06 0 0)
(2.73927e-06 0 0)
(2.73831e-06 0 0)
(2.7375e-06 0 0)
(2.73672e-06 0 0)
(2.7361e-06 0 0)
(2.73546e-06 0 0)
(2.73448e-06 0 0)
(2.73155e-06 0 0)
(2.7209e-06 0 0)
(2.66886e-06 0 0)
(2.43387e-06 0 0)
(2.19518e-06 0 0)
(2.13514e-06 0 0)
(2.11675e-06 0 0)
(2.10752e-06 0 0)
(2.10144e-06 0 0)
(2.09682e-06 0 0)
(2.09303e-06 0 0)
(2.08979e-06 0 0)
(2.08699e-06 0 0)
(2.08452e-06 0 0)
(2.08233e-06 0 0)
(2.08032e-06 0 0)
(2.07843e-06 0 0)
(2.07659e-06 0 0)
(2.07481e-06 0 0)
(2.07316e-06 0 0)
(2.07164e-06 0 0)
(2.07036e-06 0 0)
(2.06935e-06 0 0)
(2.06843e-06 0 0)
(2.06747e-06 0 0)
(2.06653e-06 0 0)
(2.06552e-06 0 0)
(2.06443e-06 0 0)
(2.06343e-06 0 0)
(2.0627e-06 0 0)
(2.06233e-06 0 0)
(2.06229e-06 0 0)
(2.06306e-06 0 0)
(2.06528e-06 0 0)
(2.06843e-06 0 0)
(2.07185e-06 0 0)
(2.07537e-06 0 0)
(2.07857e-06 0 0)
(2.08106e-06 0 0)
(2.08287e-06 0 0)
(2.0844e-06 0 0)
(2.08581e-06 0 0)
(2.08691e-06 0 0)
(2.08743e-06 0 0)
(2.08712e-06 0 0)
(2.08584e-06 0 0)
(2.08364e-06 0 0)
(2.08067e-06 0 0)
(2.07712e-06 0 0)
(2.07319e-06 0 0)
(2.06908e-06 0 0)
(2.06502e-06 0 0)
(2.06121e-06 0 0)
(2.05779e-06 0 0)
(2.05486e-06 0 0)
(2.05245e-06 0 0)
(2.05059e-06 0 0)
(2.04924e-06 0 0)
(2.04836e-06 0 0)
(2.04786e-06 0 0)
(2.04767e-06 0 0)
(2.0477e-06 0 0)
(2.04787e-06 0 0)
(2.0481e-06 0 0)
(2.04835e-06 0 0)
(2.04855e-06 0 0)
(2.04868e-06 0 0)
(2.04873e-06 0 0)
(2.04867e-06 0 0)
(2.04852e-06 0 0)
(2.04827e-06 0 0)
(2.04795e-06 0 0)
(2.04755e-06 0 0)
(2.0471e-06 0 0)
(2.0466e-06 0 0)
(2.04607e-06 0 0)
(2.04552e-06 0 0)
(2.04495e-06 0 0)
(2.04438e-06 0 0)
(2.0438e-06 0 0)
(2.04322e-06 0 0)
(2.04264e-06 0 0)
(2.04207e-06 0 0)
(2.04151e-06 0 0)
(2.04096e-06 0 0)
(2.04042e-06 0 0)
(2.03989e-06 0 0)
(2.03936e-06 0 0)
(2.03885e-06 0 0)
(2.03836e-06 0 0)
(2.03787e-06 0 0)
(2.03739e-06 0 0)
(2.03693e-06 0 0)
(2.03648e-06 0 0)
(2.03603e-06 0 0)
(2.03561e-06 0 0)
(2.03519e-06 0 0)
(2.03479e-06 0 0)
(2.03439e-06 0 0)
(2.03401e-06 0 0)
(2.03365e-06 0 0)
(2.0333e-06 0 0)
(2.03296e-06 0 0)
(2.03263e-06 0 0)
(2.03231e-06 0 0)
(2.03201e-06 0 0)
(2.03172e-06 0 0)
(2.03144e-06 0 0)
(2.03118e-06 0 0)
(2.03092e-06 0 0)
(2.03068e-06 0 0)
(2.03045e-06 0 0)
(2.03023e-06 0 0)
(2.03003e-06 0 0)
(2.02984e-06 0 0)
(2.02966e-06 0 0)
(2.02951e-06 0 0)
(2.02936e-06 0 0)
(2.02924e-06 0 0)
(2.02913e-06 0 0)
(2.02903e-06 0 0)
(2.02893e-06 0 0)
(2.02885e-06 0 0)
(2.02877e-06 0 0)
(2.02868e-06 0 0)
(2.0286e-06 0 0)
(2.02852e-06 0 0)
(2.02844e-06 0 0)
(2.02836e-06 0 0)
(2.02829e-06 0 0)
(2.02822e-06 0 0)
(2.02816e-06 0 0)
(2.02812e-06 0 0)
(2.02808e-06 0 0)
(2.02806e-06 0 0)
(2.02805e-06 0 0)
(2.02804e-06 0 0)
(2.02803e-06 0 0)
(2.028e-06 0 0)
(2.02797e-06 0 0)
(2.02791e-06 0 0)
(2.02785e-06 0 0)
(2.02778e-06 0 0)
(2.02774e-06 0 0)
(2.02774e-06 0 0)
(2.0278e-06 0 0)
(2.02797e-06 0 0)
(2.02826e-06 0 0)
(2.0287e-06 0 0)
(2.02931e-06 0 0)
(2.03011e-06 0 0)
(2.03109e-06 0 0)
(2.03225e-06 0 0)
(2.0336e-06 0 0)
(2.03511e-06 0 0)
(2.03676e-06 0 0)
(2.03853e-06 0 0)
(2.04039e-06 0 0)
(2.04229e-06 0 0)
(2.0442e-06 0 0)
(2.04606e-06 0 0)
(2.04784e-06 0 0)
(2.04947e-06 0 0)
(2.05091e-06 0 0)
(2.05211e-06 0 0)
(2.05303e-06 0 0)
(2.05361e-06 0 0)
(2.05384e-06 0 0)
(2.05369e-06 0 0)
(2.05317e-06 0 0)
(2.05228e-06 0 0)
(2.05103e-06 0 0)
(2.04948e-06 0 0)
(2.04766e-06 0 0)
(2.04563e-06 0 0)
(2.04344e-06 0 0)
(2.04117e-06 0 0)
(2.03886e-06 0 0)
(2.03658e-06 0 0)
(2.03438e-06 0 0)
(2.03229e-06 0 0)
(2.03036e-06 0 0)
(2.0286e-06 0 0)
(2.02703e-06 0 0)
(2.02566e-06 0 0)
(2.02447e-06 0 0)
(2.02347e-06 0 0)
(2.02263e-06 0 0)
(2.02194e-06 0 0)
(2.02139e-06 0 0)
(2.02094e-06 0 0)
(2.02058e-06 0 0)
(2.02028e-06 0 0)
(2.02004e-06 0 0)
(2.01983e-06 0 0)
(2.01963e-06 0 0)
(2.01943e-06 0 0)
(2.01923e-06 0 0)
(2.01902e-06 0 0)
(2.01878e-06 0 0)
(2.01852e-06 0 0)
(2.01823e-06 0 0)
(2.01792e-06 0 0)
(2.01757e-06 0 0)
(2.01721e-06 0 0)
(2.01682e-06 0 0)
(2.0164e-06 0 0)
(2.01597e-06 0 0)
(2.01552e-06 0 0)
(2.01506e-06 0 0)
(2.01459e-06 0 0)
(2.01411e-06 0 0)
(2.01363e-06 0 0)
(2.01314e-06 0 0)
(2.01265e-06 0 0)
(2.01216e-06 0 0)
(2.01167e-06 0 0)
(2.01118e-06 0 0)
(2.0107e-06 0 0)
(2.01022e-06 0 0)
(2.00974e-06 0 0)
(2.00927e-06 0 0)
(2.00881e-06 0 0)
(2.00835e-06 0 0)
(2.00791e-06 0 0)
(2.00746e-06 0 0)
(2.00703e-06 0 0)
(2.0066e-06 0 0)
(2.00618e-06 0 0)
(2.00577e-06 0 0)
(2.00537e-06 0 0)
(2.00498e-06 0 0)
(2.00459e-06 0 0)
(2.00421e-06 0 0)
(2.00384e-06 0 0)
(2.00348e-06 0 0)
(2.00313e-06 0 0)
(2.00278e-06 0 0)
(2.00245e-06 0 0)
(2.00212e-06 0 0)
(2.0018e-06 0 0)
(2.00149e-06 0 0)
(2.00118e-06 0 0)
(2.00089e-06 0 0)
(2.0006e-06 0 0)
(2.00033e-06 0 0)
(2.00006e-06 0 0)
(1.9998e-06 0 0)
(1.99955e-06 0 0)
(1.99931e-06 0 0)
(1.99908e-06 0 0)
(1.99885e-06 0 0)
(1.99864e-06 0 0)
(1.99844e-06 0 0)
(1.99825e-06 0 0)
(1.99806e-06 0 0)
(1.99788e-06 0 0)
(1.99772e-06 0 0)
(1.99755e-06 0 0)
(1.9974e-06 0 0)
(1.99725e-06 0 0)
(1.9971e-06 0 0)
(1.99696e-06 0 0)
(1.99683e-06 0 0)
(1.9967e-06 0 0)
(1.99657e-06 0 0)
(1.99645e-06 0 0)
(1.99634e-06 0 0)
(1.99623e-06 0 0)
(1.99612e-06 0 0)
(1.99602e-06 0 0)
(1.99593e-06 0 0)
(1.99584e-06 0 0)
(1.99575e-06 0 0)
(1.99566e-06 0 0)
(1.99557e-06 0 0)
(1.99549e-06 0 0)
(1.9954e-06 0 0)
(1.99533e-06 0 0)
(1.99525e-06 0 0)
(1.99519e-06 0 0)
(1.99514e-06 0 0)
(1.99512e-06 0 0)
(1.99511e-06 0 0)
(1.99515e-06 0 0)
(1.99522e-06 0 0)
(1.99535e-06 0 0)
(1.99553e-06 0 0)
(1.99578e-06 0 0)
(1.9961e-06 0 0)
(1.99651e-06 0 0)
(1.997e-06 0 0)
(1.99757e-06 0 0)
(1.99824e-06 0 0)
(1.999e-06 0 0)
(1.99984e-06 0 0)
(2.00077e-06 0 0)
(2.00177e-06 0 0)
(2.00284e-06 0 0)
(2.00397e-06 0 0)
(2.00513e-06 0 0)
(2.00633e-06 0 0)
(2.00753e-06 0 0)
(2.00872e-06 0 0)
(2.00987e-06 0 0)
(2.01098e-06 0 0)
(2.01201e-06 0 0)
(2.01295e-06 0 0)
(2.01377e-06 0 0)
(2.01446e-06 0 0)
(2.01499e-06 0 0)
(2.01536e-06 0 0)
(2.01554e-06 0 0)
(2.01554e-06 0 0)
(2.01534e-06 0 0)
(2.01495e-06 0 0)
(2.01436e-06 0 0)
(2.0136e-06 0 0)
(2.01267e-06 0 0)
(2.01158e-06 0 0)
(2.01035e-06 0 0)
(2.00901e-06 0 0)
(2.00759e-06 0 0)
(2.00609e-06 0 0)
(2.00455e-06 0 0)
(2.003e-06 0 0)
(2.00145e-06 0 0)
(1.99992e-06 0 0)
(1.99844e-06 0 0)
(1.99701e-06 0 0)
(1.99565e-06 0 0)
(1.99438e-06 0 0)
(1.99319e-06 0 0)
(1.99209e-06 0 0)
(1.99108e-06 0 0)
(1.99016e-06 0 0)
(1.98933e-06 0 0)
(1.98859e-06 0 0)
(1.98791e-06 0 0)
(1.98731e-06 0 0)
(1.98677e-06 0 0)
(1.98629e-06 0 0)
(1.98585e-06 0 0)
(1.98544e-06 0 0)
(1.98507e-06 0 0)
(1.98472e-06 0 0)
(1.98439e-06 0 0)
(1.98408e-06 0 0)
(1.98376e-06 0 0)
(1.98345e-06 0 0)
(1.98314e-06 0 0)
(1.98282e-06 0 0)
(1.98249e-06 0 0)
(1.98216e-06 0 0)
(1.98182e-06 0 0)
(1.98146e-06 0 0)
(1.98109e-06 0 0)
(1.98071e-06 0 0)
(1.98032e-06 0 0)
(1.97992e-06 0 0)
(1.97951e-06 0 0)
(1.97909e-06 0 0)
(1.97866e-06 0 0)
(1.97822e-06 0 0)
(1.97778e-06 0 0)
(1.97734e-06 0 0)
(1.97689e-06 0 0)
(1.97643e-06 0 0)
(1.97598e-06 0 0)
(1.97552e-06 0 0)
(1.97507e-06 0 0)
(1.97461e-06 0 0)
(1.97416e-06 0 0)
(1.9737e-06 0 0)
(1.97325e-06 0 0)
(1.97281e-06 0 0)
(1.97237e-06 0 0)
(1.97193e-06 0 0)
(1.97149e-06 0 0)
(1.97106e-06 0 0)
(1.97064e-06 0 0)
(1.97022e-06 0 0)
(1.96981e-06 0 0)
(1.9694e-06 0 0)
(1.969e-06 0 0)
(1.9686e-06 0 0)
(1.96821e-06 0 0)
(1.96783e-06 0 0)
(1.96745e-06 0 0)
(1.96708e-06 0 0)
(1.96672e-06 0 0)
(1.96636e-06 0 0)
(1.96601e-06 0 0)
(1.96566e-06 0 0)
(1.96533e-06 0 0)
(1.965e-06 0 0)
(1.96468e-06 0 0)
(1.96436e-06 0 0)
(1.96405e-06 0 0)
(1.96375e-06 0 0)
(1.96346e-06 0 0)
(1.96317e-06 0 0)
(1.9629e-06 0 0)
(1.96263e-06 0 0)
(1.96237e-06 0 0)
(1.96211e-06 0 0)
(1.96186e-06 0 0)
(1.96162e-06 0 0)
(1.96139e-06 0 0)
(1.96117e-06 0 0)
(1.96095e-06 0 0)
(1.96074e-06 0 0)
(1.96053e-06 0 0)
(1.96034e-06 0 0)
(1.96015e-06 0 0)
(1.95996e-06 0 0)
(1.95978e-06 0 0)
(1.95961e-06 0 0)
(1.95944e-06 0 0)
(1.95928e-06 0 0)
(1.95912e-06 0 0)
(1.95897e-06 0 0)
(1.95882e-06 0 0)
(1.95868e-06 0 0)
(1.95854e-06 0 0)
(1.95841e-06 0 0)
(1.95828e-06 0 0)
(1.95815e-06 0 0)
(1.95803e-06 0 0)
(1.95791e-06 0 0)
(1.9578e-06 0 0)
(1.95769e-06 0 0)
(1.95758e-06 0 0)
(1.95748e-06 0 0)
(1.95739e-06 0 0)
(1.9573e-06 0 0)
(1.95722e-06 0 0)
(1.95715e-06 0 0)
(1.9571e-06 0 0)
(1.95706e-06 0 0)
(1.95703e-06 0 0)
(1.95703e-06 0 0)
(1.95705e-06 0 0)
(1.9571e-06 0 0)
(1.95718e-06 0 0)
(1.95729e-06 0 0)
(1.95744e-06 0 0)
(1.95763e-06 0 0)
(1.95786e-06 0 0)
(1.95814e-06 0 0)
(1.95847e-06 0 0)
(1.95884e-06 0 0)
(1.95927e-06 0 0)
(1.95974e-06 0 0)
(1.96027e-06 0 0)
(1.96084e-06 0 0)
(1.96146e-06 0 0)
(1.96212e-06 0 0)
(1.96282e-06 0 0)
(1.96356e-06 0 0)
(1.96432e-06 0 0)
(1.9651e-06 0 0)
(1.9659e-06 0 0)
(1.9667e-06 0 0)
(1.9675e-06 0 0)
(1.96828e-06 0 0)
(1.96905e-06 0 0)
(1.96977e-06 0 0)
(1.97046e-06 0 0)
(1.97109e-06 0 0)
(1.97166e-06 0 0)
(1.97216e-06 0 0)
(1.97257e-06 0 0)
(1.97289e-06 0 0)
(1.97312e-06 0 0)
(1.97324e-06 0 0)
(1.97325e-06 0 0)
(1.97315e-06 0 0)
(1.97294e-06 0 0)
(1.97262e-06 0 0)
(1.97218e-06 0 0)
(1.97163e-06 0 0)
(1.97098e-06 0 0)
(1.97023e-06 0 0)
(1.96939e-06 0 0)
(1.96848e-06 0 0)
(1.96749e-06 0 0)
(1.96644e-06 0 0)
(1.96534e-06 0 0)
(1.9642e-06 0 0)
(1.96304e-06 0 0)
(1.96186e-06 0 0)
(1.96068e-06 0 0)
(1.95951e-06 0 0)
(1.95835e-06 0 0)
(1.95722e-06 0 0)
(1.95611e-06 0 0)
(1.95504e-06 0 0)
(1.95402e-06 0 0)
(1.95304e-06 0 0)
(1.9521e-06 0 0)
(1.95122e-06 0 0)
(1.95038e-06 0 0)
(1.94959e-06 0 0)
(1.94885e-06 0 0)
(1.94816e-06 0 0)
(1.94751e-06 0 0)
(1.9469e-06 0 0)
(1.94633e-06 0 0)
(1.94579e-06 0 0)
(1.94528e-06 0 0)
(1.9448e-06 0 0)
(1.94434e-06 0 0)
(1.9439e-06 0 0)
(1.94348e-06 0 0)
(1.94307e-06 0 0)
(1.94267e-06 0 0)
(1.94228e-06 0 0)
(1.94189e-06 0 0)
(1.94151e-06 0 0)
(1.94112e-06 0 0)
(1.94074e-06 0 0)
(1.94035e-06 0 0)
(1.93997e-06 0 0)
(1.93957e-06 0 0)
(1.93918e-06 0 0)
(1.93877e-06 0 0)
(1.93837e-06 0 0)
(1.93796e-06 0 0)
(1.93754e-06 0 0)
(1.93712e-06 0 0)
(1.93669e-06 0 0)
(1.93626e-06 0 0)
(1.93582e-06 0 0)
(1.93538e-06 0 0)
(1.93494e-06 0 0)
(1.93449e-06 0 0)
(1.93405e-06 0 0)
(1.9336e-06 0 0)
(1.93315e-06 0 0)
(1.9327e-06 0 0)
(1.93225e-06 0 0)
(1.9318e-06 0 0)
(1.93135e-06 0 0)
(1.93091e-06 0 0)
(1.93046e-06 0 0)
(1.93002e-06 0 0)
(1.92958e-06 0 0)
(1.92914e-06 0 0)
(1.92871e-06 0 0)
(1.92828e-06 0 0)
(1.92786e-06 0 0)
(1.92744e-06 0 0)
(1.92702e-06 0 0)
(1.92661e-06 0 0)
(1.9262e-06 0 0)
(1.9258e-06 0 0)
(1.9254e-06 0 0)
(1.92501e-06 0 0)
(1.92462e-06 0 0)
(1.92424e-06 0 0)
(1.92387e-06 0 0)
(1.9235e-06 0 0)
(1.92313e-06 0 0)
(1.92278e-06 0 0)
(1.92242e-06 0 0)
(1.92208e-06 0 0)
(1.92174e-06 0 0)
(1.9214e-06 0 0)
(1.92107e-06 0 0)
(1.92075e-06 0 0)
(1.92043e-06 0 0)
(1.92012e-06 0 0)
(1.91982e-06 0 0)
(1.91952e-06 0 0)
(1.91923e-06 0 0)
(1.91894e-06 0 0)
(1.91866e-06 0 0)
(1.91838e-06 0 0)
(1.91811e-06 0 0)
(1.91785e-06 0 0)
(1.91759e-06 0 0)
(1.91734e-06 0 0)
(1.91709e-06 0 0)
(1.91685e-06 0 0)
(1.91661e-06 0 0)
(1.91638e-06 0 0)
(1.91615e-06 0 0)
(1.91593e-06 0 0)
(1.91571e-06 0 0)
(1.91549e-06 0 0)
(1.91528e-06 0 0)
(1.91508e-06 0 0)
(1.91487e-06 0 0)
(1.91467e-06 0 0)
(1.91448e-06 0 0)
(1.91429e-06 0 0)
(1.9141e-06 0 0)
(1.91392e-06 0 0)
(1.91373e-06 0 0)
(1.91356e-06 0 0)
(1.91338e-06 0 0)
(1.91321e-06 0 0)
(1.91304e-06 0 0)
(1.91288e-06 0 0)
(1.91272e-06 0 0)
(1.91257e-06 0 0)
(1.91242e-06 0 0)
(1.91228e-06 0 0)
(1.91214e-06 0 0)
(1.91201e-06 0 0)
(1.91189e-06 0 0)
(1.91178e-06 0 0)
(1.91169e-06 0 0)
(1.9116e-06 0 0)
(1.91152e-06 0 0)
(1.91147e-06 0 0)
(1.91142e-06 0 0)
(1.9114e-06 0 0)
(1.9114e-06 0 0)
(1.91141e-06 0 0)
(1.91145e-06 0 0)
(1.91152e-06 0 0)
(1.91161e-06 0 0)
(1.91173e-06 0 0)
(1.91187e-06 0 0)
(1.91204e-06 0 0)
(1.91225e-06 0 0)
(1.91248e-06 0 0)
(1.91274e-06 0 0)
(1.91303e-06 0 0)
(1.91335e-06 0 0)
(1.9137e-06 0 0)
(1.91408e-06 0 0)
(1.91447e-06 0 0)
(1.9149e-06 0 0)
(1.91534e-06 0 0)
(1.9158e-06 0 0)
(1.91627e-06 0 0)
(1.91675e-06 0 0)
(1.91724e-06 0 0)
(1.91774e-06 0 0)
(1.91823e-06 0 0)
(1.91871e-06 0 0)
(1.91918e-06 0 0)
(1.91964e-06 0 0)
(1.92007e-06 0 0)
(1.92048e-06 0 0)
(1.92085e-06 0 0)
(1.92119e-06 0 0)
(1.92148e-06 0 0)
(1.92173e-06 0 0)
(1.92193e-06 0 0)
(1.92207e-06 0 0)
(1.92215e-06 0 0)
(1.92218e-06 0 0)
(1.92214e-06 0 0)
(1.92203e-06 0 0)
(1.92186e-06 0 0)
(1.92163e-06 0 0)
(1.92133e-06 0 0)
(1.92096e-06 0 0)
(1.92054e-06 0 0)
(1.92005e-06 0 0)
(1.91951e-06 0 0)
(1.91892e-06 0 0)
(1.91828e-06 0 0)
(1.9176e-06 0 0)
(1.91689e-06 0 0)
(1.91615e-06 0 0)
(1.91538e-06 0 0)
(1.9146e-06 0 0)
(1.9138e-06 0 0)
(1.913e-06 0 0)
(1.91219e-06 0 0)
(1.9114e-06 0 0)
(1.91061e-06 0 0)
(1.90983e-06 0 0)
(1.90908e-06 0 0)
(1.90834e-06 0 0)
(1.90764e-06 0 0)
(1.90695e-06 0 0)
(1.9063e-06 0 0)
(1.90568e-06 0 0)
(1.90509e-06 0 0)
(1.90453e-06 0 0)
(1.90399e-06 0 0)
(1.90348e-06 0 0)
(1.90299e-06 0 0)
(1.9025e-06 0 0)
(1.90198e-06 0 0)
(1.9014e-06 0 0)
(1.90069e-06 0 0)
(1.89971e-06 0 0)
(1.89827e-06 0 0)
(1.89605e-06 0 0)
(1.89263e-06 0 0)
(1.88765e-06 0 0)
(1.88107e-06 0 0)
(1.87362e-06 0 0)
(1.86673e-06 0 0)
(1.86159e-06 0 0)
(1.85843e-06 0 0)
(1.85673e-06 0 0)
(1.85583e-06 0 0)
(1.85534e-06 0 0)
(1.85504e-06 0 0)
(1.85482e-06 0 0)
(1.85465e-06 0 0)
(1.8545e-06 0 0)
(1.85437e-06 0 0)
(1.85424e-06 0 0)
(1.85411e-06 0 0)
(1.85398e-06 0 0)
(1.85385e-06 0 0)
(1.85372e-06 0 0)
(1.85359e-06 0 0)
(1.85346e-06 0 0)
(1.85332e-06 0 0)
(1.85319e-06 0 0)
(1.85305e-06 0 0)
(1.85291e-06 0 0)
(1.85277e-06 0 0)
(1.85263e-06 0 0)
(1.85249e-06 0 0)
(1.85234e-06 0 0)
(1.8522e-06 0 0)
(1.85206e-06 0 0)
(1.85191e-06 0 0)
(1.85176e-06 0 0)
(1.85162e-06 0 0)
(1.85148e-06 0 0)
(1.85133e-06 0 0)
(1.85119e-06 0 0)
(1.85105e-06 0 0)
(1.85091e-06 0 0)
(1.85077e-06 0 0)
(1.85063e-06 0 0)
(1.8505e-06 0 0)
(1.85037e-06 0 0)
(1.85024e-06 0 0)
(1.85011e-06 0 0)
(1.84999e-06 0 0)
(1.84986e-06 0 0)
(1.84975e-06 0 0)
(1.84963e-06 0 0)
(1.84952e-06 0 0)
(1.84941e-06 0 0)
(1.84931e-06 0 0)
(1.84921e-06 0 0)
(1.84911e-06 0 0)
(1.84902e-06 0 0)
(1.84893e-06 0 0)
(1.84884e-06 0 0)
(1.84876e-06 0 0)
(1.84869e-06 0 0)
(1.84862e-06 0 0)
(1.84855e-06 0 0)
(1.84848e-06 0 0)
(1.84842e-06 0 0)
(1.84837e-06 0 0)
(1.84832e-06 0 0)
(1.84827e-06 0 0)
(1.84823e-06 0 0)
(1.84819e-06 0 0)
(1.84816e-06 0 0)
(1.84813e-06 0 0)
(1.84811e-06 0 0)
(1.84809e-06 0 0)
(1.84807e-06 0 0)
(1.84806e-06 0 0)
(1.84805e-06 0 0)
(1.84805e-06 0 0)
(1.84805e-06 0 0)
(1.84805e-06 0 0)
(1.84806e-06 0 0)
(1.84807e-06 0 0)
(1.84809e-06 0 0)
(1.84811e-06 0 0)
(1.84814e-06 0 0)
(1.84817e-06 0 0)
(1.8482e-06 0 0)
(1.84824e-06 0 0)
(1.84828e-06 0 0)
(1.84832e-06 0 0)
(1.84836e-06 0 0)
(1.84841e-06 0 0)
(1.84847e-06 0 0)
(1.84852e-06 0 0)
(1.84858e-06 0 0)
(1.84865e-06 0 0)
(1.84871e-06 0 0)
(1.84878e-06 0 0)
(1.84886e-06 0 0)
(1.84893e-06 0 0)
(1.84901e-06 0 0)
(1.8491e-06 0 0)
(1.84918e-06 0 0)
(1.84928e-06 0 0)
(1.84937e-06 0 0)
(1.84947e-06 0 0)
(1.84958e-06 0 0)
(1.84969e-06 0 0)
(1.8498e-06 0 0)
(1.84992e-06 0 0)
(1.85005e-06 0 0)
(1.85019e-06 0 0)
(1.85033e-06 0 0)
(1.85048e-06 0 0)
(1.85064e-06 0 0)
(1.85081e-06 0 0)
(1.85099e-06 0 0)
(1.85118e-06 0 0)
(1.85138e-06 0 0)
(1.8516e-06 0 0)
(1.85183e-06 0 0)
(1.85207e-06 0 0)
(1.85233e-06 0 0)
(1.8526e-06 0 0)
(1.85289e-06 0 0)
(1.8532e-06 0 0)
(1.85352e-06 0 0)
(1.85386e-06 0 0)
(1.85423e-06 0 0)
(1.85461e-06 0 0)
(1.85501e-06 0 0)
(1.85543e-06 0 0)
(1.85587e-06 0 0)
(1.85633e-06 0 0)
(1.85681e-06 0 0)
(1.8573e-06 0 0)
(1.85782e-06 0 0)
(1.85835e-06 0 0)
(1.8589e-06 0 0)
(1.85946e-06 0 0)
(1.86004e-06 0 0)
(1.86063e-06 0 0)
(1.86124e-06 0 0)
(1.86185e-06 0 0)
(1.86246e-06 0 0)
(1.86309e-06 0 0)
(1.86371e-06 0 0)
(1.86434e-06 0 0)
(1.86496e-06 0 0)
(1.86557e-06 0 0)
(1.86618e-06 0 0)
(1.86678e-06 0 0)
(1.86736e-06 0 0)
(1.86793e-06 0 0)
(1.86847e-06 0 0)
(1.86899e-06 0 0)
(1.86949e-06 0 0)
(1.86995e-06 0 0)
(1.87039e-06 0 0)
(1.87079e-06 0 0)
(1.87115e-06 0 0)
(1.87147e-06 0 0)
(1.87174e-06 0 0)
(1.87198e-06 0 0)
(1.87217e-06 0 0)
(1.87231e-06 0 0)
(1.8724e-06 0 0)
(1.87245e-06 0 0)
(1.87246e-06 0 0)
(1.87246e-06 0 0)
(1.87244e-06 0 0)
(1.87232e-06 0 0)
(1.87213e-06 0 0)
(1.8719e-06 0 0)
(1.87162e-06 0 0)
(1.87131e-06 0 0)
(1.87096e-06 0 0)
(1.87057e-06 0 0)
(1.87015e-06 0 0)
(1.86971e-06 0 0)
(1.86924e-06 0 0)
(1.86874e-06 0 0)
(1.86823e-06 0 0)
(1.86771e-06 0 0)
(1.86717e-06 0 0)
(1.86662e-06 0 0)
(1.86607e-06 0 0)
(1.86552e-06 0 0)
(1.86497e-06 0 0)
(1.86443e-06 0 0)
(1.86389e-06 0 0)
(1.86336e-06 0 0)
(1.86284e-06 0 0)
(1.86233e-06 0 0)
(1.86184e-06 0 0)
(1.86137e-06 0 0)
(1.86091e-06 0 0)
(1.86047e-06 0 0)
(1.86005e-06 0 0)
(1.85965e-06 0 0)
(1.85927e-06 0 0)
(1.85891e-06 0 0)
(1.85856e-06 0 0)
(1.85824e-06 0 0)
(1.85793e-06 0 0)
(1.85764e-06 0 0)
(1.85737e-06 0 0)
(1.85711e-06 0 0)
(1.85687e-06 0 0)
(1.85664e-06 0 0)
(1.85643e-06 0 0)
(1.85622e-06 0 0)
(1.85603e-06 0 0)
(1.85585e-06 0 0)
(1.85568e-06 0 0)
(1.85551e-06 0 0)
(1.85535e-06 0 0)
(1.8552e-06 0 0)
(1.85505e-06 0 0)
(1.8549e-06 0 0)
(1.85476e-06 0 0)
(1.85463e-06 0 0)
(1.85449e-06 0 0)
(1.85436e-06 0 0)
(1.85422e-06 0 0)
(1.85409e-06 0 0)
(1.85396e-06 0 0)
(1.85383e-06 0 0)
(1.8537e-06 0 0)
(1.85356e-06 0 0)
(1.85343e-06 0 0)
(1.8533e-06 0 0)
(1.85316e-06 0 0)
(1.85303e-06 0 0)
(1.85289e-06 0 0)
(1.85276e-06 0 0)
(1.85262e-06 0 0)
(1.85248e-06 0 0)
(1.85234e-06 0 0)
(1.85221e-06 0 0)
(1.85207e-06 0 0)
(1.85193e-06 0 0)
(1.85179e-06 0 0)
(1.85166e-06 0 0)
(1.85152e-06 0 0)
(1.85138e-06 0 0)
(1.85125e-06 0 0)
(1.85112e-06 0 0)
(1.85098e-06 0 0)
(1.85085e-06 0 0)
(1.85072e-06 0 0)
(1.8506e-06 0 0)
(1.85047e-06 0 0)
(1.85035e-06 0 0)
(1.85023e-06 0 0)
(1.85011e-06 0 0)
(1.85e-06 0 0)
(1.84989e-06 0 0)
(1.84978e-06 0 0)
(1.84967e-06 0 0)
(1.84957e-06 0 0)
(1.84947e-06 0 0)
(1.84938e-06 0 0)
(1.84929e-06 0 0)
(1.8492e-06 0 0)
(1.84912e-06 0 0)
(1.84904e-06 0 0)
(1.84896e-06 0 0)
(1.84889e-06 0 0)
(1.84882e-06 0 0)
(1.84875e-06 0 0)
(1.84869e-06 0 0)
(1.84864e-06 0 0)
(1.84859e-06 0 0)
(1.84854e-06 0 0)
(1.84849e-06 0 0)
(1.84846e-06 0 0)
(1.84842e-06 0 0)
(1.84839e-06 0 0)
(1.84836e-06 0 0)
(1.84834e-06 0 0)
(1.84832e-06 0 0)
(1.84831e-06 0 0)
)
;

boundaryField
{
    inlet
    {
        type            fixedValue;
        value           uniform (2.74882e-06 0 0);
    }
    outlet
    {
        type            zeroGradient;
    }
    emptyWalls
    {
        type            empty;
    }
}


// ************************************************************************* //
