/*--------------------------------*- C++ -*----------------------------------*\
  =========                 |
  \\      /  F ield         | OpenFOAM: The Open Source CFD Toolbox
   \\    /   O peration     | Website:  https://openfoam.org
    \\  /    A nd           | Version:  9
     \\/     M anipulation  |
\*---------------------------------------------------------------------------*/
FoamFile
{
    format      ascii;
    class       surfaceScalarField;
    location    "25500";
    object      phic;
}
// * * * * * * * * * * * * * * * * * * * * * * * * * * * * * * * * * * * * * //

dimensions      [0 2 0 0 0 0 0];

internalField   nonuniform List<scalar> 
999
(
7.97329e-16
3.28037e-15
8.04845e-15
1.50063e-14
2.41107e-14
3.53541e-14
4.87383e-14
6.42771e-14
8.19786e-14
1.01851e-13
1.23894e-13
1.48073e-13
1.74368e-13
2.02679e-13
2.32911e-13
2.64891e-13
2.98392e-13
3.33124e-13
3.6872e-13
4.04738e-13
4.4069e-13
4.76036e-13
5.10259e-13
5.42839e-13
5.7342e-13
6.01636e-13
6.27403e-13
6.5063e-13
6.71457e-13
6.90295e-13
7.08443e-13
7.31844e-13
7.87252e-13
9.90138e-13
1.74818e-12
5.63496e-12
1.76683e-11
2.04759e-11
2.12895e-11
2.16673e-11
2.19034e-11
2.20793e-11
2.22244e-11
2.23517e-11
2.24676e-11
2.25757e-11
2.26781e-11
2.27761e-11
2.28702e-11
2.29609e-11
2.30487e-11
2.31343e-11
2.32182e-11
2.3301e-11
2.33827e-11
2.34628e-11
2.3541e-11
2.36165e-11
2.36894e-11
2.37595e-11
2.38274e-11
2.38939e-11
2.396e-11
2.40265e-11
2.40941e-11
2.4163e-11
2.42333e-11
2.43043e-11
2.43758e-11
2.44478e-11
2.4522e-11
2.46015e-11
2.46816e-11
2.47631e-11
2.4846e-11
2.49297e-11
2.50135e-11
2.50988e-11
2.51838e-11
2.52693e-11
2.53555e-11
2.54428e-11
2.55315e-11
2.56218e-11
2.57142e-11
2.5809e-11
2.59067e-11
2.60079e-11
2.61131e-11
2.62229e-11
2.63384e-11
2.64608e-11
2.65916e-11
2.6733e-11
2.68878e-11
2.70595e-11
2.72518e-11
2.74684e-11
2.77118e-11
2.79822e-11
2.82772e-11
2.8592e-11
2.89219e-11
2.92632e-11
2.96132e-11
2.99701e-11
3.03325e-11
3.06994e-11
3.10701e-11
3.1444e-11
3.18206e-11
3.21997e-11
3.25809e-11
3.29639e-11
3.33488e-11
3.37352e-11
3.41231e-11
3.45123e-11
3.49028e-11
3.52945e-11
3.56874e-11
3.60814e-11
3.64764e-11
3.68724e-11
3.72694e-11
3.76674e-11
3.80662e-11
3.84659e-11
3.88665e-11
3.92678e-11
3.967e-11
4.00728e-11
4.04765e-11
4.08809e-11
4.1286e-11
4.16918e-11
4.20983e-11
4.25056e-11
4.29136e-11
4.33223e-11
4.37317e-11
4.41418e-11
4.45525e-11
4.49639e-11
4.53759e-11
4.57884e-11
4.62015e-11
4.66151e-11
4.70293e-11
4.7444e-11
4.78594e-11
4.82753e-11
4.86919e-11
4.91091e-11
4.95269e-11
4.99455e-11
5.03647e-11
5.07845e-11
5.1205e-11
5.16258e-11
5.2047e-11
5.24683e-11
5.28896e-11
5.33107e-11
5.37315e-11
5.41519e-11
5.4572e-11
5.49917e-11
5.54111e-11
5.58303e-11
5.62494e-11
5.66686e-11
5.70879e-11
5.75076e-11
5.79277e-11
5.83486e-11
5.87704e-11
5.91934e-11
5.96177e-11
6.00436e-11
6.04713e-11
6.0901e-11
6.13327e-11
6.17666e-11
6.22024e-11
6.26403e-11
6.30799e-11
6.35212e-11
6.39638e-11
6.44074e-11
6.48518e-11
6.52967e-11
6.57419e-11
6.61872e-11
6.66323e-11
6.70771e-11
6.75217e-11
6.79659e-11
6.84097e-11
6.88532e-11
6.92964e-11
6.97394e-11
7.01823e-11
7.06251e-11
7.10681e-11
7.15112e-11
7.19545e-11
7.23982e-11
7.28423e-11
7.32867e-11
7.37317e-11
7.41772e-11
7.46231e-11
7.50696e-11
7.55167e-11
7.59642e-11
7.64123e-11
7.68609e-11
7.731e-11
7.77596e-11
7.82096e-11
7.86601e-11
7.91111e-11
7.95624e-11
8.00142e-11
8.04664e-11
8.09189e-11
8.13719e-11
8.18252e-11
8.22789e-11
8.27329e-11
8.31873e-11
8.3642e-11
8.40971e-11
8.45525e-11
8.50083e-11
8.54643e-11
8.59207e-11
8.63774e-11
8.68344e-11
8.72918e-11
8.77494e-11
8.82074e-11
8.86657e-11
8.91243e-11
8.95832e-11
9.00424e-11
9.05019e-11
9.09617e-11
9.14218e-11
9.18822e-11
9.23428e-11
9.28038e-11
9.3265e-11
9.37265e-11
9.41882e-11
9.46503e-11
9.51126e-11
9.55752e-11
9.60381e-11
9.65013e-11
9.69648e-11
9.74285e-11
9.78926e-11
9.8357e-11
9.88217e-11
9.92867e-11
9.97519e-11
1.00217e-10
1.00683e-10
1.01149e-10
1.01616e-10
1.02082e-10
1.02549e-10
1.03016e-10
1.03484e-10
1.03951e-10
1.0442e-10
1.04888e-10
1.05357e-10
1.05826e-10
1.06295e-10
1.06765e-10
1.07235e-10
1.07705e-10
1.08176e-10
1.08647e-10
1.09117e-10
1.09588e-10
1.10059e-10
1.10529e-10
1.10999e-10
1.11469e-10
1.11938e-10
1.12406e-10
1.12874e-10
1.13342e-10
1.13809e-10
1.14275e-10
1.14741e-10
1.15206e-10
1.15671e-10
1.16136e-10
1.16601e-10
1.17066e-10
1.17531e-10
1.17997e-10
1.18464e-10
1.18932e-10
1.19401e-10
1.19871e-10
1.20343e-10
1.20817e-10
1.21293e-10
1.2177e-10
1.2225e-10
1.22732e-10
1.23216e-10
1.23702e-10
1.24189e-10
1.24679e-10
1.2517e-10
1.25663e-10
1.26156e-10
1.26651e-10
1.27146e-10
1.27641e-10
1.28137e-10
1.28633e-10
1.29128e-10
1.29624e-10
1.30119e-10
1.30613e-10
1.31108e-10
1.31601e-10
1.32095e-10
1.32588e-10
1.3308e-10
1.33572e-10
1.34064e-10
1.34556e-10
1.35048e-10
1.3554e-10
1.36032e-10
1.36524e-10
1.37016e-10
1.37508e-10
1.38001e-10
1.38494e-10
1.38987e-10
1.39481e-10
1.39975e-10
1.4047e-10
1.40965e-10
1.4146e-10
1.41956e-10
1.42452e-10
1.42949e-10
1.43446e-10
1.43943e-10
1.44441e-10
1.4494e-10
1.45438e-10
1.45937e-10
1.46437e-10
1.46936e-10
1.47436e-10
1.47937e-10
1.48437e-10
1.48938e-10
1.4944e-10
1.49941e-10
1.50443e-10
1.50945e-10
1.51448e-10
1.5195e-10
1.52453e-10
1.52957e-10
1.5346e-10
1.53964e-10
1.54468e-10
1.54972e-10
1.55477e-10
1.55981e-10
1.56486e-10
1.56992e-10
1.57497e-10
1.58003e-10
1.58509e-10
1.59015e-10
1.59522e-10
1.60028e-10
1.60535e-10
1.61043e-10
1.6155e-10
1.62058e-10
1.62566e-10
1.63074e-10
1.63582e-10
1.64091e-10
1.646e-10
1.65109e-10
1.65619e-10
1.66128e-10
1.66638e-10
1.67149e-10
1.67659e-10
1.6817e-10
1.68681e-10
1.69192e-10
1.69704e-10
1.70216e-10
1.70728e-10
1.7124e-10
1.71753e-10
1.72266e-10
1.72779e-10
1.73293e-10
1.73806e-10
1.74321e-10
1.74835e-10
1.7535e-10
1.75865e-10
1.7638e-10
1.76896e-10
1.77412e-10
1.77928e-10
1.78444e-10
1.7896e-10
1.79476e-10
1.79993e-10
1.80509e-10
1.81025e-10
1.8154e-10
1.82056e-10
1.82571e-10
1.83085e-10
1.83599e-10
1.84113e-10
1.84626e-10
1.85139e-10
1.85651e-10
1.86162e-10
1.86673e-10
1.87184e-10
1.87694e-10
1.88204e-10
1.88715e-10
1.89225e-10
1.89735e-10
1.90246e-10
1.90757e-10
1.91269e-10
1.91782e-10
1.92297e-10
1.92812e-10
1.93329e-10
1.93847e-10
1.94367e-10
1.94889e-10
1.95413e-10
1.95939e-10
1.96468e-10
1.96998e-10
1.9753e-10
1.98065e-10
1.98602e-10
1.9914e-10
1.99681e-10
2.00223e-10
2.00766e-10
2.01311e-10
2.01857e-10
2.02404e-10
2.02951e-10
2.035e-10
2.04048e-10
2.04597e-10
2.05146e-10
2.05694e-10
2.06243e-10
2.06792e-10
2.0734e-10
2.07888e-10
2.08435e-10
2.08983e-10
2.0953e-10
2.10077e-10
2.10623e-10
2.11169e-10
2.11715e-10
2.12261e-10
2.12808e-10
2.13354e-10
2.139e-10
2.14446e-10
2.14992e-10
2.15539e-10
2.16086e-10
2.16633e-10
2.17181e-10
2.17729e-10
2.18278e-10
2.18826e-10
2.19376e-10
2.19926e-10
2.20476e-10
2.21027e-10
2.21578e-10
2.2213e-10
2.22682e-10
2.23235e-10
2.23788e-10
2.24342e-10
2.24896e-10
2.2545e-10
2.26006e-10
2.26561e-10
2.27117e-10
2.27673e-10
2.2823e-10
2.28787e-10
2.29345e-10
2.29903e-10
2.30461e-10
2.3102e-10
2.31579e-10
2.32138e-10
2.32698e-10
2.33258e-10
2.33819e-10
2.34379e-10
2.34941e-10
2.35502e-10
2.36064e-10
2.36626e-10
2.37189e-10
2.37752e-10
2.38315e-10
2.38879e-10
2.39443e-10
2.40007e-10
2.40572e-10
2.41137e-10
2.41702e-10
2.42267e-10
2.42833e-10
2.434e-10
2.43966e-10
2.44533e-10
2.451e-10
2.45668e-10
2.46236e-10
2.46804e-10
2.47373e-10
2.47942e-10
2.48511e-10
2.49081e-10
2.49651e-10
2.50222e-10
2.50792e-10
2.51364e-10
2.51935e-10
2.52507e-10
2.5308e-10
2.53652e-10
2.54225e-10
2.54799e-10
2.55373e-10
2.55947e-10
2.56522e-10
2.57097e-10
2.57673e-10
2.58249e-10
2.58825e-10
2.59402e-10
2.59979e-10
2.60557e-10
2.61135e-10
2.61713e-10
2.62291e-10
2.6287e-10
2.63449e-10
2.64028e-10
2.64607e-10
2.65186e-10
2.65765e-10
2.66345e-10
2.66924e-10
2.67503e-10
2.68081e-10
2.6866e-10
2.69238e-10
2.69816e-10
2.70394e-10
2.70971e-10
2.71548e-10
2.72124e-10
2.72701e-10
2.73277e-10
2.73853e-10
2.74428e-10
2.75004e-10
2.75579e-10
2.76155e-10
2.76731e-10
2.77307e-10
2.77884e-10
2.78461e-10
2.79039e-10
2.79618e-10
2.80198e-10
2.80779e-10
2.81361e-10
2.81945e-10
2.82531e-10
2.83118e-10
2.83708e-10
2.84299e-10
2.84892e-10
2.85488e-10
2.86086e-10
2.86686e-10
2.87289e-10
2.87894e-10
2.88501e-10
2.8911e-10
2.89722e-10
2.90336e-10
2.90951e-10
2.91569e-10
2.92188e-10
2.92809e-10
2.93431e-10
2.94054e-10
2.94678e-10
2.95304e-10
2.9593e-10
2.96557e-10
2.97184e-10
2.97812e-10
2.9844e-10
2.99068e-10
2.99696e-10
3.00324e-10
3.00953e-10
3.01581e-10
3.0221e-10
3.02838e-10
3.03467e-10
3.04095e-10
3.04724e-10
3.05352e-10
3.05981e-10
3.06609e-10
3.07238e-10
3.07868e-10
3.08497e-10
3.09127e-10
3.09757e-10
3.10388e-10
3.11019e-10
3.1165e-10
3.12282e-10
3.12915e-10
3.13548e-10
3.14182e-10
3.14816e-10
3.15452e-10
3.16087e-10
3.16724e-10
3.17361e-10
3.17999e-10
3.18638e-10
3.19277e-10
3.19918e-10
3.20558e-10
3.212e-10
3.21842e-10
3.22486e-10
3.23129e-10
3.23774e-10
3.24419e-10
3.25065e-10
3.25712e-10
3.26359e-10
3.27007e-10
3.27656e-10
3.28305e-10
3.28955e-10
3.29606e-10
3.30257e-10
3.30909e-10
3.31562e-10
3.32215e-10
3.32869e-10
3.33524e-10
3.34179e-10
3.34835e-10
3.35491e-10
3.36148e-10
3.36806e-10
3.37464e-10
3.38123e-10
3.38783e-10
3.39443e-10
3.40104e-10
3.40766e-10
3.41428e-10
3.42091e-10
3.42754e-10
3.43418e-10
3.44083e-10
3.44749e-10
3.45415e-10
3.46081e-10
3.46749e-10
3.47417e-10
3.48085e-10
3.48755e-10
3.49425e-10
3.50096e-10
3.50767e-10
3.51439e-10
3.52112e-10
3.52786e-10
3.5346e-10
3.54135e-10
3.54811e-10
3.55487e-10
3.56164e-10
3.56842e-10
3.57521e-10
3.58201e-10
3.58881e-10
3.59562e-10
3.60244e-10
3.60926e-10
3.6161e-10
3.62294e-10
3.62979e-10
3.63664e-10
3.6435e-10
3.65038e-10
3.65725e-10
3.66414e-10
3.67103e-10
3.67793e-10
3.68483e-10
3.69174e-10
3.69865e-10
3.70557e-10
3.71249e-10
3.71942e-10
3.72635e-10
3.73329e-10
3.74023e-10
3.74717e-10
3.75411e-10
3.76106e-10
3.768e-10
3.77495e-10
3.78191e-10
3.78886e-10
3.79581e-10
3.80277e-10
3.80973e-10
3.81669e-10
3.82365e-10
3.83062e-10
3.83759e-10
3.84456e-10
3.85155e-10
3.85853e-10
3.86553e-10
3.87253e-10
3.87954e-10
3.88657e-10
3.8936e-10
3.90065e-10
3.90771e-10
3.91479e-10
3.92189e-10
3.929e-10
3.93614e-10
3.9433e-10
3.95048e-10
3.95768e-10
3.96491e-10
3.97217e-10
3.97945e-10
3.98676e-10
3.9941e-10
4.00146e-10
4.00886e-10
4.01629e-10
4.02375e-10
4.03123e-10
4.03875e-10
4.04629e-10
4.05386e-10
4.06146e-10
4.06909e-10
4.07674e-10
4.08441e-10
4.09211e-10
4.09983e-10
4.10757e-10
4.11533e-10
4.1231e-10
4.1309e-10
4.13871e-10
4.14653e-10
4.15437e-10
4.16221e-10
4.17007e-10
4.17794e-10
4.18582e-10
4.19371e-10
4.20161e-10
4.20952e-10
4.21743e-10
4.22536e-10
4.23329e-10
4.24123e-10
4.24918e-10
4.25713e-10
4.2651e-10
4.27307e-10
4.28106e-10
4.28906e-10
4.29706e-10
4.30508e-10
4.3131e-10
4.32114e-10
4.3292e-10
4.33726e-10
4.34534e-10
4.35343e-10
4.36154e-10
4.36966e-10
4.37779e-10
4.38594e-10
4.39411e-10
4.40229e-10
4.41048e-10
4.4187e-10
4.42693e-10
4.43517e-10
4.44343e-10
4.45171e-10
4.46001e-10
4.46832e-10
4.47665e-10
4.485e-10
4.49337e-10
4.50175e-10
4.51015e-10
4.51857e-10
4.52701e-10
4.53546e-10
4.54393e-10
4.55242e-10
4.56093e-10
4.56945e-10
4.578e-10
4.58656e-10
4.59514e-10
4.60373e-10
4.61235e-10
4.62098e-10
4.62964e-10
4.63831e-10
4.647e-10
4.65571e-10
4.66444e-10
4.67318e-10
4.68195e-10
4.69073e-10
4.69953e-10
4.70836e-10
4.7172e-10
4.72606e-10
4.73494e-10
4.74384e-10
4.75277e-10
4.76171e-10
4.77067e-10
4.77965e-10
4.78866e-10
4.79768e-10
4.80673e-10
4.81579e-10
4.82488e-10
4.83399e-10
4.84312e-10
4.85227e-10
4.86145e-10
4.87065e-10
4.87987e-10
4.88911e-10
4.89838e-10
4.90767e-10
4.91698e-10
4.92632e-10
4.93568e-10
4.94506e-10
4.95447e-10
4.9639e-10
4.97336e-10
4.98284e-10
4.99235e-10
5.00188e-10
5.01144e-10
5.02103e-10
5.03063e-10
5.04027e-10
5.04993e-10
5.05961e-10
5.06932e-10
5.07906e-10
5.08882e-10
5.09861e-10
5.10843e-10
5.11826e-10
5.12813e-10
5.13801e-10
5.14793e-10
5.15786e-10
5.16782e-10
5.17781e-10
5.18781e-10
5.19784e-10
5.20789e-10
5.21797e-10
5.22806e-10
5.23818e-10
5.24832e-10
5.25847e-10
5.26864e-10
5.27884e-10
5.28905e-10
5.29927e-10
5.30952e-10
5.31978e-10
5.33005e-10
5.34033e-10
5.35063e-10
5.36094e-10
5.37125e-10
5.38158e-10
5.39191e-10
5.40224e-10
5.41258e-10
5.42291e-10
5.43324e-10
5.44357e-10
5.45387e-10
5.46417e-10
5.47443e-10
5.48468e-10
5.49487e-10
5.50504e-10
5.51514e-10
5.52518e-10
5.53515e-10
5.54503e-10
5.55481e-10
5.56447e-10
5.57399e-10
5.58337e-10
5.59258e-10
5.60159e-10
5.61039e-10
5.61896e-10
5.62728e-10
5.63533e-10
5.64309e-10
5.65052e-10
5.65763e-10
5.66439e-10
5.67079e-10
5.67682e-10
5.68248e-10
5.68775e-10
5.69265e-10
5.69715e-10
5.7013e-10
5.70507e-10
5.70851e-10
5.71161e-10
5.71438e-10
5.71688e-10
5.71908e-10
5.72106e-10
5.72276e-10
5.7243e-10
5.7256e-10
5.72681e-10
)
;

boundaryField
{
    inlet
    {
        type            calculated;
        value           uniform 0;
    }
    outlet
    {
        type            calculated;
        value           uniform 6.5194e-10;
    }
    emptyWalls
    {
        type            empty;
        value           nonuniform List<scalar> 0();
    }
}


// ************************************************************************* //
