/*--------------------------------*- C++ -*----------------------------------*\
  =========                 |
  \\      /  F ield         | OpenFOAM: The Open Source CFD Toolbox
   \\    /   O peration     | Website:  https://openfoam.org
    \\  /    A nd           | Version:  9
     \\/     M anipulation  |
\*---------------------------------------------------------------------------*/
FoamFile
{
    format      ascii;
    class       volScalarField;
    location    "17050";
    object      Fb;
}
// * * * * * * * * * * * * * * * * * * * * * * * * * * * * * * * * * * * * * //

dimensions      [0 0 0 0 0 0 0];

internalField   nonuniform List<scalar> 
1000
(
0.805119
0.805242
0.805192
0.805231
0.805242
0.805262
0.805273
0.805311
0.805324
0.805363
0.805394
0.805417
0.805477
0.805465
0.805591
0.805504
0.805713
0.805556
0.805771
0.805634
0.805788
0.805806
0.806255
0.809733
0.827483
0.832885
0.834033
0.834462
0.834691
0.834821
0.834773
0.834471
0.833975
0.833473
0.833149
0.833075
0.833181
0.833335
0.833492
0.833847
0.834399
0.834937
0.835412
0.835795
0.83608
0.836269
0.836375
0.836406
0.836389
0.836334
0.836277
0.836202
0.836127
0.836064
0.836009
0.835964
0.835922
0.835884
0.835842
0.835798
0.835743
0.835676
0.835589
0.835475
0.835324
0.835132
0.834894
0.834619
0.83432
0.834004
0.833674
0.833335
0.832988
0.832634
0.832274
0.83191
0.831542
0.831169
0.830794
0.830415
0.830032
0.829647
0.829259
0.828868
0.828475
0.82808
0.827682
0.827282
0.82688
0.826475
0.826068
0.825659
0.825248
0.824835
0.82442
0.824003
0.823584
0.823163
0.822741
0.822316
0.82189
0.82146
0.821029
0.820596
0.82016
0.819722
0.819283
0.818842
0.818401
0.817958
0.817516
0.817072
0.816628
0.816184
0.815738
0.81529
0.814841
0.81439
0.813937
0.813481
0.813024
0.812566
0.812107
0.811649
0.811192
0.810736
0.81028
0.809823
0.809363
0.808895
0.808417
0.807926
0.80742
0.806897
0.806356
0.805798
0.805224
0.804636
0.804036
0.803426
0.80281
0.802191
0.801572
0.800959
0.800355
0.799764
0.799192
0.798643
0.79812
0.797626
0.797164
0.796734
0.796334
0.795964
0.795618
0.795292
0.794981
0.79468
0.794381
0.794081
0.793773
0.793454
0.793121
0.792771
0.792404
0.792019
0.791616
0.791197
0.790764
0.790317
0.789859
0.789393
0.78892
0.788442
0.787961
0.787478
0.786994
0.786511
0.786028
0.785548
0.785069
0.784592
0.784117
0.783645
0.783174
0.782704
0.782236
0.781769
0.781303
0.780837
0.780372
0.779907
0.779442
0.778976
0.77851
0.778044
0.777577
0.77711
0.776641
0.776172
0.775702
0.775231
0.774759
0.774286
0.773812
0.773337
0.772861
0.772384
0.771906
0.771427
0.770946
0.770465
0.769983
0.769499
0.769014
0.768528
0.768042
0.767554
0.767064
0.766574
0.766083
0.76559
0.765097
0.764602
0.764106
0.763609
0.76311
0.762611
0.76211
0.761608
0.761105
0.760601
0.760095
0.759588
0.75908
0.758571
0.758061
0.757549
0.757037
0.756523
0.756009
0.755494
0.754977
0.754461
0.753943
0.753425
0.752905
0.752385
0.751863
0.751342
0.750818
0.750295
0.74977
0.749245
0.748718
0.748192
0.747665
0.747137
0.746608
0.746079
0.745548
0.745016
0.744481
0.743944
0.743404
0.742859
0.74231
0.741756
0.741195
0.740629
0.740055
0.739474
0.738886
0.738291
0.737689
0.737081
0.736467
0.735847
0.735224
0.734597
0.733969
0.733341
0.732714
0.73209
0.731471
0.730857
0.730252
0.729656
0.729072
0.728498
0.727939
0.727392
0.726859
0.72634
0.725835
0.725341
0.72486
0.724388
0.723925
0.723469
0.723018
0.722568
0.722121
0.721672
0.721221
0.720766
0.720306
0.71984
0.719367
0.718887
0.7184
0.717905
0.717402
0.716893
0.716377
0.715854
0.715327
0.714794
0.714257
0.713717
0.713173
0.712627
0.712079
0.71153
0.710979
0.710428
0.709876
0.709325
0.708773
0.708221
0.707669
0.707118
0.706567
0.706016
0.705466
0.704915
0.704365
0.703815
0.703264
0.702714
0.702163
0.701612
0.70106
0.700508
0.699956
0.699403
0.698849
0.698294
0.697739
0.697183
0.696625
0.696067
0.695508
0.694948
0.694387
0.693825
0.693262
0.692698
0.692133
0.691566
0.690999
0.69043
0.68986
0.689289
0.688717
0.688144
0.68757
0.686994
0.686417
0.685839
0.68526
0.68468
0.684098
0.683515
0.682931
0.682346
0.681759
0.681172
0.680583
0.679992
0.679401
0.678808
0.678214
0.677619
0.677023
0.676425
0.675826
0.675226
0.674625
0.674023
0.673419
0.672814
0.672209
0.671602
0.670994
0.670385
0.669775
0.669163
0.668551
0.667938
0.667323
0.666708
0.666091
0.665474
0.664855
0.664236
0.663615
0.662994
0.662371
0.661747
0.661122
0.660496
0.659869
0.65924
0.658609
0.657977
0.657343
0.656707
0.656069
0.655429
0.654785
0.654139
0.65349
0.652837
0.652181
0.651521
0.650857
0.650189
0.649517
0.648842
0.648162
0.647478
0.64679
0.646099
0.645405
0.644708
0.644008
0.643306
0.642603
0.641898
0.641194
0.640489
0.639785
0.639083
0.638383
0.637686
0.636992
0.636303
0.635618
0.634938
0.634263
0.633594
0.632932
0.632275
0.631624
0.630979
0.63034
0.629706
0.629077
0.628452
0.62783
0.627212
0.626596
0.625981
0.625367
0.624753
0.624137
0.623521
0.622902
0.622281
0.621656
0.621028
0.620396
0.61976
0.619119
0.618474
0.617824
0.61717
0.616511
0.615849
0.615182
0.614512
0.613837
0.613159
0.612478
0.611794
0.611108
0.610418
0.609727
0.609033
0.608337
0.60764
0.606941
0.60624
0.605538
0.604834
0.604129
0.603423
0.602716
0.602007
0.601298
0.600587
0.599875
0.599162
0.598447
0.597732
0.597015
0.596297
0.595577
0.594856
0.594133
0.593409
0.592684
0.591956
0.591228
0.590497
0.589765
0.589031
0.588295
0.587557
0.586818
0.586076
0.585333
0.584588
0.58384
0.583091
0.58234
0.581586
0.580831
0.580073
0.579314
0.578552
0.577788
0.577022
0.576253
0.575483
0.57471
0.573935
0.573157
0.572378
0.571595
0.570811
0.570024
0.569235
0.568444
0.56765
0.566853
0.566055
0.565254
0.56445
0.563644
0.562835
0.562024
0.56121
0.560394
0.559575
0.558753
0.557929
0.557102
0.556273
0.555441
0.554607
0.553769
0.552929
0.552087
0.551241
0.550393
0.549542
0.548688
0.547832
0.546972
0.54611
0.545245
0.544377
0.543507
0.542633
0.541756
0.540876
0.539993
0.539107
0.538218
0.537326
0.53643
0.535531
0.534629
0.533723
0.532813
0.5319
0.530983
0.530062
0.529137
0.528208
0.527275
0.526337
0.525395
0.524449
0.523498
0.522541
0.52158
0.520614
0.519643
0.518667
0.517686
0.516699
0.515708
0.514711
0.513709
0.512701
0.511689
0.510672
0.50965
0.508623
0.507591
0.506555
0.505515
0.504471
0.503422
0.502371
0.501316
0.500258
0.499197
0.498134
0.497068
0.496
0.494931
0.493861
0.492789
0.491717
0.490644
0.489572
0.488499
0.487427
0.486357
0.485288
0.484221
0.483155
0.482093
0.481035
0.479981
0.478933
0.477891
0.476856
0.475831
0.474816
0.473814
0.472826
0.471856
0.470906
0.469978
0.469075
0.468201
0.467359
0.466551
0.465782
0.465053
0.464367
0.463725
0.463131
0.462584
0.462085
0.461635
0.461231
0.460871
0.460555
0.46028
0.460043
0.45984
0.459668
0.459522
0.459397
0.459287
0.459187
0.459084
0.45896
0.458785
0.458508
0.458039
0.457221
0.455774
0.453208
0.448695
0.44088
0.427746
0.406776
0.375979
0.336133
0.292642
0.253576
0.224414
0.205599
0.194597
0.188534
0.185302
0.183611
0.182734
0.182282
0.182051
0.181933
0.181873
0.181844
0.18183
0.181823
0.181821
0.181821
0.181822
0.181824
0.181826
0.181828
0.18183
0.181832
0.181834
0.181836
0.181838
0.18184
0.181842
0.181844
0.181846
0.181847
0.181849
0.18185
0.181852
0.181853
0.181855
0.181856
0.181857
0.181858
0.181859
0.18186
0.181861
0.181862
0.181862
0.181863
0.181863
0.181864
0.181864
0.181864
0.181864
0.181864
0.181864
0.181864
0.181864
0.181863
0.181863
0.181863
0.181862
0.181862
0.181861
0.18186
0.18186
0.181859
0.181858
0.181857
0.181856
0.181855
0.181854
0.181853
0.181852
0.181851
0.181849
0.181848
0.181847
0.181846
0.181844
0.181843
0.181841
0.18184
0.181838
0.181837
0.181835
0.181834
0.181832
0.18183
0.181829
0.181827
0.181825
0.181823
0.181821
0.181819
0.181817
0.181815
0.181812
0.18181
0.181807
0.181804
0.181801
0.181798
0.181795
0.181792
0.181788
0.181784
0.18178
0.181776
0.181771
0.181766
0.181761
0.181756
0.18175
0.181744
0.181738
0.181731
0.181724
0.181717
0.181709
0.181701
0.181693
0.181685
0.181676
0.181667
0.181658
0.181649
0.181639
0.18163
0.18162
0.18161
0.1816
0.18159
0.181581
0.181571
0.181562
0.181552
0.181543
0.181535
0.181526
0.181518
0.181511
0.181504
0.181497
0.181491
0.181486
0.181482
0.181478
0.181475
0.181472
0.181471
0.18147
0.18147
0.18147
0.18147
0.181472
0.181475
0.181479
0.181483
0.181488
0.181494
0.1815
0.181507
0.181514
0.181522
0.18153
0.181538
0.181546
0.181555
0.181564
0.181573
0.181582
0.18159
0.181599
0.181608
0.181616
0.181625
0.181633
0.181641
0.181648
0.181655
0.181662
0.181669
0.181675
0.181681
0.181687
0.181692
0.181697
0.181702
0.181707
0.181711
0.181715
0.181719
0.181722
0.181725
0.181729
0.181731
0.181734
0.181737
0.181739
0.181742
0.181744
0.181746
0.181748
0.18175
0.181752
0.181754
0.181756
0.181758
0.18176
0.181762
0.181764
0.181766
0.181769
0.181771
0.181773
0.181775
0.181778
0.18178
0.181783
0.181785
0.181788
0.18179
0.181793
0.181796
0.181798
0.181801
0.181803
0.181806
0.181808
0.181811
0.181813
0.181815
0.181818
0.18182
0.181822
0.181824
0.181826
0.181828
0.18183
0.181832
0.181834
0.181835
0.181837
0.181838
0.18184
0.181841
0.181843
0.181844
0.181845
0.181846
0.181847
0.181848
0.181849
0.18185
0.181851
0.181852
0.181852
0.181853
0.181854
0.181854
0.181854
0.181855
0.181855
0.181855
0.181855
0.181856
0.181856
0.181856
0.181855
0.181855
0.181855
0.181855
0.181855
0.181854
0.181854
0.181853
0.181853
0.181852
0.181851
0.18185
0.18185
0.181849
0.181848
0.181847
0.181846
0.181845
0.181844
0.181842
0.181842
0.181839
0.181839
0.181837
0.181836
0.181833
0.181833
0.18183
0.181829
0.181826
0.181825
0.181821
0.181821
0.181817
0.181816
0.181811
0.18181
0.181805
0.181804
0.181799
0.181797
0.181791
0.18179
0.181783
0.181782
0.181774
0.181772
0.181762
)
;

boundaryField
{
    inlet
    {
        type            calculated;
        value           uniform 0.805169;
    }
    outlet
    {
        type            calculated;
        value           uniform 0.181763;
    }
    emptyWalls
    {
        type            empty;
    }
}


// ************************************************************************* //
