/*--------------------------------*- C++ -*----------------------------------*\
  =========                 |
  \\      /  F ield         | OpenFOAM: The Open Source CFD Toolbox
   \\    /   O peration     | Website:  https://openfoam.org
    \\  /    A nd           | Version:  9
     \\/     M anipulation  |
\*---------------------------------------------------------------------------*/
FoamFile
{
    format      ascii;
    class       surfaceScalarField;
    location    "26450";
    object      phic;
}
// * * * * * * * * * * * * * * * * * * * * * * * * * * * * * * * * * * * * * //

dimensions      [0 2 0 0 0 0 0];

internalField   nonuniform List<scalar> 
999
(
7.38199e-16
3.02616e-15
7.42626e-15
1.38561e-14
2.22774e-14
3.2683e-14
4.50737e-14
5.94648e-14
7.58632e-14
9.42837e-14
1.14727e-13
1.37182e-13
1.61625e-13
1.88006e-13
2.16245e-13
2.46229e-13
2.77787e-13
3.10712e-13
3.44699e-13
3.79432e-13
4.14458e-13
4.49357e-13
4.83612e-13
5.16731e-13
5.48302e-13
5.77887e-13
6.0529e-13
6.30297e-13
6.52917e-13
6.73223e-13
6.91485e-13
7.0853e-13
7.2768e-13
7.63904e-13
8.83579e-13
1.33265e-12
3.31311e-12
1.43896e-11
1.98773e-11
2.10545e-11
2.15315e-11
2.18027e-11
2.19933e-11
2.21455e-11
2.22764e-11
2.23941e-11
2.2503e-11
2.26054e-11
2.2703e-11
2.27967e-11
2.28873e-11
2.29751e-11
2.30607e-11
2.31441e-11
2.32258e-11
2.33058e-11
2.33843e-11
2.34615e-11
2.35374e-11
2.36122e-11
2.3686e-11
2.3759e-11
2.38312e-11
2.39028e-11
2.39738e-11
2.40443e-11
2.41145e-11
2.41843e-11
2.4254e-11
2.43236e-11
2.43933e-11
2.44631e-11
2.45331e-11
2.46037e-11
2.46748e-11
2.47467e-11
2.48191e-11
2.48935e-11
2.4969e-11
2.50454e-11
2.51228e-11
2.52014e-11
2.52812e-11
2.53625e-11
2.54455e-11
2.55304e-11
2.56173e-11
2.57065e-11
2.57981e-11
2.58922e-11
2.59891e-11
2.6089e-11
2.61925e-11
2.63e-11
2.64125e-11
2.65312e-11
2.6658e-11
2.67934e-11
2.69412e-11
2.71067e-11
2.7293e-11
2.7503e-11
2.77391e-11
2.80009e-11
2.82853e-11
2.85878e-11
2.89043e-11
2.92318e-11
2.95683e-11
2.99124e-11
3.02628e-11
3.06188e-11
3.09794e-11
3.13439e-11
3.17116e-11
3.20818e-11
3.24542e-11
3.28282e-11
3.32034e-11
3.35796e-11
3.39567e-11
3.43343e-11
3.47125e-11
3.50912e-11
3.54704e-11
3.58501e-11
3.62305e-11
3.66114e-11
3.69931e-11
3.73756e-11
3.77589e-11
3.8143e-11
3.85281e-11
3.8914e-11
3.93009e-11
3.96887e-11
4.00773e-11
4.04668e-11
4.08572e-11
4.12484e-11
4.16404e-11
4.20331e-11
4.24266e-11
4.28208e-11
4.32157e-11
4.36112e-11
4.40074e-11
4.44043e-11
4.48017e-11
4.51998e-11
4.55985e-11
4.59978e-11
4.63976e-11
4.6798e-11
4.7199e-11
4.76005e-11
4.80026e-11
4.84052e-11
4.88084e-11
4.9212e-11
4.96162e-11
5.00209e-11
5.0426e-11
5.08317e-11
5.12379e-11
5.16445e-11
5.20517e-11
5.24593e-11
5.28674e-11
5.32759e-11
5.3685e-11
5.40945e-11
5.45044e-11
5.49148e-11
5.53256e-11
5.57368e-11
5.61484e-11
5.65605e-11
5.69729e-11
5.73858e-11
5.77991e-11
5.82128e-11
5.8627e-11
5.90416e-11
5.94567e-11
5.98721e-11
6.0288e-11
6.07044e-11
6.11211e-11
6.15381e-11
6.19556e-11
6.23734e-11
6.27916e-11
6.32101e-11
6.36289e-11
6.40481e-11
6.44678e-11
6.48878e-11
6.53083e-11
6.57292e-11
6.61506e-11
6.65726e-11
6.6995e-11
6.74178e-11
6.7841e-11
6.82645e-11
6.86882e-11
6.91119e-11
6.95355e-11
6.99589e-11
7.0382e-11
7.08046e-11
7.12268e-11
7.16485e-11
7.20697e-11
7.24904e-11
7.29107e-11
7.33308e-11
7.37506e-11
7.41703e-11
7.45901e-11
7.50101e-11
7.54306e-11
7.58517e-11
7.62737e-11
7.66968e-11
7.71212e-11
7.75471e-11
7.79748e-11
7.84042e-11
7.88356e-11
7.9269e-11
7.97044e-11
8.01418e-11
8.05809e-11
8.10217e-11
8.14639e-11
8.19074e-11
8.23517e-11
8.27968e-11
8.32424e-11
8.36881e-11
8.41339e-11
8.45796e-11
8.5025e-11
8.547e-11
8.59146e-11
8.63588e-11
8.68026e-11
8.7246e-11
8.7689e-11
8.81318e-11
8.85745e-11
8.9017e-11
8.94595e-11
8.9902e-11
9.03447e-11
9.07876e-11
9.12308e-11
9.16743e-11
9.21181e-11
9.25624e-11
9.3007e-11
9.34521e-11
9.38976e-11
9.43436e-11
9.479e-11
9.52368e-11
9.56841e-11
9.61317e-11
9.65798e-11
9.70283e-11
9.74771e-11
9.79264e-11
9.83759e-11
9.88258e-11
9.92761e-11
9.97267e-11
1.00178e-10
1.00629e-10
1.0108e-10
1.01532e-10
1.01984e-10
1.02436e-10
1.02889e-10
1.03342e-10
1.03795e-10
1.04249e-10
1.04702e-10
1.05156e-10
1.0561e-10
1.06065e-10
1.0652e-10
1.06975e-10
1.0743e-10
1.07885e-10
1.08341e-10
1.08797e-10
1.09253e-10
1.0971e-10
1.10166e-10
1.10623e-10
1.11081e-10
1.11538e-10
1.11996e-10
1.12453e-10
1.12912e-10
1.1337e-10
1.13828e-10
1.14287e-10
1.14746e-10
1.15206e-10
1.15665e-10
1.16125e-10
1.16585e-10
1.17045e-10
1.17506e-10
1.17967e-10
1.18428e-10
1.18889e-10
1.1935e-10
1.19812e-10
1.20274e-10
1.20736e-10
1.21199e-10
1.21661e-10
1.22124e-10
1.22588e-10
1.23051e-10
1.23515e-10
1.23979e-10
1.24443e-10
1.24908e-10
1.25373e-10
1.25838e-10
1.26304e-10
1.26769e-10
1.27235e-10
1.27701e-10
1.28166e-10
1.28632e-10
1.29097e-10
1.29562e-10
1.30026e-10
1.30491e-10
1.30954e-10
1.31417e-10
1.3188e-10
1.32341e-10
1.32803e-10
1.33264e-10
1.33724e-10
1.34184e-10
1.34643e-10
1.35103e-10
1.35562e-10
1.36021e-10
1.36481e-10
1.36942e-10
1.37402e-10
1.37864e-10
1.38327e-10
1.38791e-10
1.39257e-10
1.39724e-10
1.40193e-10
1.40664e-10
1.41136e-10
1.41611e-10
1.42088e-10
1.42567e-10
1.43047e-10
1.4353e-10
1.44014e-10
1.445e-10
1.44987e-10
1.45475e-10
1.45964e-10
1.46454e-10
1.46944e-10
1.47435e-10
1.47926e-10
1.48417e-10
1.48908e-10
1.49398e-10
1.49889e-10
1.50378e-10
1.50868e-10
1.51357e-10
1.51846e-10
1.52334e-10
1.52822e-10
1.5331e-10
1.53797e-10
1.54285e-10
1.54772e-10
1.55259e-10
1.55746e-10
1.56234e-10
1.56721e-10
1.57209e-10
1.57696e-10
1.58185e-10
1.58673e-10
1.59162e-10
1.59651e-10
1.60141e-10
1.6063e-10
1.61121e-10
1.61612e-10
1.62103e-10
1.62594e-10
1.63086e-10
1.63578e-10
1.64071e-10
1.64564e-10
1.65058e-10
1.65551e-10
1.66046e-10
1.6654e-10
1.67035e-10
1.6753e-10
1.68025e-10
1.68521e-10
1.69017e-10
1.69513e-10
1.7001e-10
1.70507e-10
1.71004e-10
1.71501e-10
1.71999e-10
1.72497e-10
1.72995e-10
1.73493e-10
1.73992e-10
1.74491e-10
1.7499e-10
1.75489e-10
1.75989e-10
1.76489e-10
1.76989e-10
1.77489e-10
1.7799e-10
1.78491e-10
1.78992e-10
1.79493e-10
1.79994e-10
1.80496e-10
1.80998e-10
1.815e-10
1.82002e-10
1.82505e-10
1.83008e-10
1.83511e-10
1.84014e-10
1.84518e-10
1.85022e-10
1.85526e-10
1.8603e-10
1.86535e-10
1.8704e-10
1.87545e-10
1.8805e-10
1.88556e-10
1.89061e-10
1.89567e-10
1.90074e-10
1.9058e-10
1.91087e-10
1.91594e-10
1.92102e-10
1.92609e-10
1.93117e-10
1.93626e-10
1.94134e-10
1.94643e-10
1.95152e-10
1.95662e-10
1.96171e-10
1.96681e-10
1.97191e-10
1.97701e-10
1.98212e-10
1.98722e-10
1.99232e-10
1.99743e-10
2.00253e-10
2.00763e-10
2.01272e-10
2.01782e-10
2.02291e-10
2.02799e-10
2.03307e-10
2.03815e-10
2.04322e-10
2.04829e-10
2.05335e-10
2.05841e-10
2.06346e-10
2.06851e-10
2.07356e-10
2.0786e-10
2.08365e-10
2.08869e-10
2.09374e-10
2.09879e-10
2.10384e-10
2.1089e-10
2.11396e-10
2.11904e-10
2.12413e-10
2.12923e-10
2.13434e-10
2.13947e-10
2.14461e-10
2.14978e-10
2.15496e-10
2.16017e-10
2.16539e-10
2.17064e-10
2.1759e-10
2.18119e-10
2.18649e-10
2.19182e-10
2.19716e-10
2.20252e-10
2.2079e-10
2.21329e-10
2.21869e-10
2.2241e-10
2.22952e-10
2.23495e-10
2.24038e-10
2.24582e-10
2.25126e-10
2.2567e-10
2.26215e-10
2.26759e-10
2.27303e-10
2.27847e-10
2.28391e-10
2.28934e-10
2.29477e-10
2.3002e-10
2.30563e-10
2.31105e-10
2.31648e-10
2.3219e-10
2.32732e-10
2.33274e-10
2.33816e-10
2.34359e-10
2.34901e-10
2.35443e-10
2.35986e-10
2.36529e-10
2.37072e-10
2.37616e-10
2.3816e-10
2.38704e-10
2.39249e-10
2.39794e-10
2.4034e-10
2.40886e-10
2.41432e-10
2.41979e-10
2.42527e-10
2.43075e-10
2.43623e-10
2.44172e-10
2.44722e-10
2.45272e-10
2.45822e-10
2.46373e-10
2.46924e-10
2.47475e-10
2.48027e-10
2.4858e-10
2.49133e-10
2.49686e-10
2.5024e-10
2.50794e-10
2.51348e-10
2.51903e-10
2.52458e-10
2.53014e-10
2.5357e-10
2.54126e-10
2.54683e-10
2.5524e-10
2.55797e-10
2.56355e-10
2.56913e-10
2.57472e-10
2.58031e-10
2.5859e-10
2.59149e-10
2.59709e-10
2.60269e-10
2.60829e-10
2.6139e-10
2.61951e-10
2.62513e-10
2.63075e-10
2.63637e-10
2.64199e-10
2.64762e-10
2.65325e-10
2.65889e-10
2.66453e-10
2.67017e-10
2.67582e-10
2.68147e-10
2.68712e-10
2.69278e-10
2.69844e-10
2.7041e-10
2.70977e-10
2.71544e-10
2.72112e-10
2.7268e-10
2.73248e-10
2.73817e-10
2.74386e-10
2.74956e-10
2.75526e-10
2.76096e-10
2.76667e-10
2.77238e-10
2.7781e-10
2.78382e-10
2.78954e-10
2.79527e-10
2.801e-10
2.80674e-10
2.81247e-10
2.81822e-10
2.82396e-10
2.82971e-10
2.83546e-10
2.84121e-10
2.84697e-10
2.85272e-10
2.85848e-10
2.86423e-10
2.86999e-10
2.87574e-10
2.8815e-10
2.88725e-10
2.893e-10
2.89874e-10
2.90449e-10
2.91023e-10
2.91597e-10
2.92171e-10
2.92744e-10
2.93317e-10
2.9389e-10
2.94463e-10
2.95036e-10
2.95609e-10
2.96181e-10
2.96754e-10
2.97327e-10
2.97901e-10
2.98475e-10
2.99049e-10
2.99624e-10
3.002e-10
3.00777e-10
3.01356e-10
3.01935e-10
3.02516e-10
3.03098e-10
3.03682e-10
3.04268e-10
3.04856e-10
3.05446e-10
3.06038e-10
3.06632e-10
3.07228e-10
3.07827e-10
3.08428e-10
3.09031e-10
3.09636e-10
3.10244e-10
3.10853e-10
3.11465e-10
3.12079e-10
3.12694e-10
3.13311e-10
3.1393e-10
3.14551e-10
3.15172e-10
3.15795e-10
3.16419e-10
3.17044e-10
3.17669e-10
3.18296e-10
3.18922e-10
3.19549e-10
3.20177e-10
3.20805e-10
3.21433e-10
3.22061e-10
3.22689e-10
3.23317e-10
3.23946e-10
3.24574e-10
3.25203e-10
3.25831e-10
3.2646e-10
3.27089e-10
3.27718e-10
3.28347e-10
3.28977e-10
3.29606e-10
3.30236e-10
3.30867e-10
3.31498e-10
3.32129e-10
3.32761e-10
3.33393e-10
3.34026e-10
3.34659e-10
3.35293e-10
3.35928e-10
3.36563e-10
3.37199e-10
3.37836e-10
3.38473e-10
3.39112e-10
3.39751e-10
3.4039e-10
3.41031e-10
3.41672e-10
3.42314e-10
3.42957e-10
3.436e-10
3.44244e-10
3.44889e-10
3.45535e-10
3.46181e-10
3.46829e-10
3.47476e-10
3.48125e-10
3.48775e-10
3.49425e-10
3.50076e-10
3.50727e-10
3.5138e-10
3.52032e-10
3.52686e-10
3.53341e-10
3.53996e-10
3.54651e-10
3.55308e-10
3.55965e-10
3.56623e-10
3.57282e-10
3.57941e-10
3.58601e-10
3.59262e-10
3.59923e-10
3.60585e-10
3.61248e-10
3.61911e-10
3.62575e-10
3.6324e-10
3.63905e-10
3.64572e-10
3.65238e-10
3.65906e-10
3.66574e-10
3.67243e-10
3.67913e-10
3.68584e-10
3.69255e-10
3.69927e-10
3.70599e-10
3.71273e-10
3.71947e-10
3.72622e-10
3.73298e-10
3.73974e-10
3.74651e-10
3.75329e-10
3.76008e-10
3.76688e-10
3.77368e-10
3.7805e-10
3.78732e-10
3.79415e-10
3.80098e-10
3.80783e-10
3.81468e-10
3.82154e-10
3.82842e-10
3.83529e-10
3.84218e-10
3.84907e-10
3.85598e-10
3.86289e-10
3.86981e-10
3.87673e-10
3.88367e-10
3.89061e-10
3.89756e-10
3.90451e-10
3.91148e-10
3.91844e-10
3.92542e-10
3.93239e-10
3.93938e-10
3.94636e-10
3.95336e-10
3.96035e-10
3.96736e-10
3.97436e-10
3.98137e-10
3.98838e-10
3.99539e-10
4.00241e-10
4.00943e-10
4.01645e-10
4.02347e-10
4.0305e-10
4.03753e-10
4.04457e-10
4.05161e-10
4.05866e-10
4.06571e-10
4.07277e-10
4.07983e-10
4.08691e-10
4.09399e-10
4.10108e-10
4.10819e-10
4.1153e-10
4.12243e-10
4.12958e-10
4.13673e-10
4.14391e-10
4.15111e-10
4.15833e-10
4.16557e-10
4.17283e-10
4.18011e-10
4.18742e-10
4.19476e-10
4.20212e-10
4.20951e-10
4.21693e-10
4.22438e-10
4.23185e-10
4.23936e-10
4.2469e-10
4.25446e-10
4.26206e-10
4.26969e-10
4.27734e-10
4.28503e-10
4.29274e-10
4.30049e-10
4.30825e-10
4.31605e-10
4.32387e-10
4.33171e-10
4.33957e-10
4.34746e-10
4.35536e-10
4.36329e-10
4.37123e-10
4.37919e-10
4.38716e-10
4.39515e-10
4.40316e-10
4.41118e-10
4.41921e-10
4.42725e-10
4.4353e-10
4.44337e-10
4.45144e-10
4.45953e-10
4.46762e-10
4.47573e-10
4.48385e-10
4.49198e-10
4.50012e-10
4.50827e-10
4.51643e-10
4.52461e-10
4.5328e-10
4.541e-10
4.54921e-10
4.55744e-10
4.56568e-10
4.57393e-10
4.5822e-10
4.59049e-10
4.59879e-10
4.60711e-10
4.61544e-10
4.62379e-10
4.63216e-10
4.64055e-10
4.64895e-10
4.65738e-10
4.66582e-10
4.67428e-10
4.68275e-10
4.69125e-10
4.69977e-10
4.70831e-10
4.71686e-10
4.72544e-10
4.73403e-10
4.74265e-10
4.75129e-10
4.75994e-10
4.76862e-10
4.77732e-10
4.78604e-10
4.79477e-10
4.80354e-10
4.81231e-10
4.82112e-10
4.82993e-10
4.83878e-10
4.84764e-10
4.85653e-10
4.86544e-10
4.87436e-10
4.88332e-10
4.89228e-10
4.90128e-10
4.91029e-10
4.91933e-10
4.92839e-10
4.93747e-10
4.94657e-10
4.9557e-10
4.96485e-10
4.97402e-10
4.98321e-10
4.99243e-10
5.00167e-10
5.01094e-10
5.02022e-10
5.02953e-10
5.03886e-10
5.04823e-10
5.05761e-10
5.06701e-10
5.07644e-10
5.0859e-10
5.09538e-10
5.10487e-10
5.11442e-10
5.12395e-10
5.13356e-10
5.14313e-10
5.1528e-10
5.1624e-10
5.17213e-10
5.18178e-10
5.19158e-10
5.20126e-10
5.21112e-10
5.22085e-10
5.23075e-10
5.24053e-10
5.25049e-10
5.26032e-10
5.27032e-10
5.28019e-10
5.29025e-10
5.30016e-10
5.31026e-10
5.32022e-10
5.33035e-10
5.34036e-10
5.35052e-10
5.36057e-10
5.37075e-10
5.38083e-10
5.39102e-10
5.40114e-10
5.41133e-10
5.42146e-10
5.43164e-10
5.44176e-10
5.45193e-10
5.46203e-10
5.47215e-10
5.48222e-10
5.49225e-10
5.50225e-10
5.51219e-10
)
;

boundaryField
{
    inlet
    {
        type            calculated;
        value           uniform 0;
    }
    outlet
    {
        type            calculated;
        value           uniform 6.1943e-10;
    }
    emptyWalls
    {
        type            empty;
        value           nonuniform List<scalar> 0();
    }
}


// ************************************************************************* //
