/*--------------------------------*- C++ -*----------------------------------*\
  =========                 |
  \\      /  F ield         | OpenFOAM: The Open Source CFD Toolbox
   \\    /   O peration     | Website:  https://openfoam.org
    \\  /    A nd           | Version:  9
     \\/     M anipulation  |
\*---------------------------------------------------------------------------*/
FoamFile
{
    format      ascii;
    class       volScalarField;
    location    "26450";
    object      Sa;
}
// * * * * * * * * * * * * * * * * * * * * * * * * * * * * * * * * * * * * * //

dimensions      [0 0 0 0 0 0 0];

internalField   nonuniform List<scalar> 
1000
(
0.549582
0.548823
0.54771
0.546693
0.545568
0.544535
0.543421
0.542349
0.541247
0.54014
0.539028
0.537902
0.536767
0.535627
0.534477
0.533326
0.532181
0.531029
0.529914
0.528778
0.527728
0.526635
0.525685
0.524688
0.523849
0.523001
0.522277
0.521594
0.520997
0.52046
0.519991
0.519566
0.519165
0.518648
0.517461
0.513303
0.496528
0.396814
0.144477
0.0845095
0.0682927
0.0611578
0.0569244
0.0539245
0.0515713
0.0496045
0.0479012
0.0463866
0.0450212
0.0437736
0.0426277
0.0415662
0.0405809
0.0396614
0.0388022
0.0379966
0.0372409
0.0365297
0.0358608
0.0352289
0.0346331
0.0340686
0.0335342
0.0330268
0.0325458
0.0320877
0.0316528
0.0312372
0.0308429
0.0304647
0.0301051
0.0297597
0.0294309
0.0291135
0.0288107
0.0285174
0.028238
0.027967
0.027705
0.0274541
0.0272141
0.0269848
0.0267658
0.0265565
0.0263563
0.0261645
0.0259808
0.0258052
0.0256378
0.0254787
0.0253285
0.0251873
0.0250557
0.0249338
0.0248218
0.0247197
0.0246268
0.024544
0.0244774
0.0244173
0.0243603
0.0243134
0.0242766
0.0242475
0.0242264
0.0242084
0.024188
0.0241641
0.024136
0.0241031
0.0240652
0.0240226
0.0239759
0.0239259
0.0238739
0.0238208
0.0237676
0.0237152
0.0236644
0.0236155
0.023569
0.023525
0.0234834
0.0234443
0.0234072
0.0233721
0.0233385
0.0233062
0.0232748
0.0232441
0.0232138
0.0231836
0.0231535
0.0231233
0.023093
0.0230625
0.0230318
0.023001
0.02297
0.022939
0.0229079
0.0228768
0.0228457
0.0228147
0.0227838
0.0227531
0.0227225
0.022692
0.0226618
0.0226317
0.0226019
0.0225722
0.0225428
0.0225136
0.0224846
0.0224558
0.0224272
0.0223989
0.0223707
0.0223428
0.0223152
0.0222877
0.0222605
0.0222335
0.0222067
0.0221801
0.0221538
0.0221276
0.0221016
0.0220758
0.0220502
0.0220248
0.0219996
0.0219747
0.0219499
0.0219254
0.0219011
0.021877
0.0218532
0.0218295
0.021806
0.0217827
0.0217595
0.0217365
0.0217135
0.0216907
0.021668
0.0216455
0.0216231
0.0216009
0.0215788
0.021557
0.0215354
0.021514
0.0214928
0.0214718
0.0214509
0.0214301
0.0214094
0.0213886
0.0213679
0.0213471
0.0213263
0.0213055
0.0212847
0.0212641
0.0212438
0.021224
0.0212049
0.0211865
0.021169
0.0211526
0.0211373
0.0211231
0.0211101
0.0210981
0.0210871
0.0210769
0.0210675
0.0210587
0.0210503
0.021042
0.0210337
0.021025
0.0210159
0.0210059
0.0209949
0.0209827
0.0209689
0.0209536
0.0209365
0.0209175
0.0208968
0.0208744
0.0208504
0.020825
0.0207985
0.020771
0.020743
0.0207146
0.0206861
0.0206579
0.0206301
0.0206029
0.0205764
0.0205508
0.0205261
0.0205024
0.0204795
0.0204575
0.0204364
0.020416
0.0203962
0.020377
0.0203583
0.0203399
0.0203219
0.020304
0.0202864
0.0202688
0.0202512
0.0202337
0.0202162
0.0201986
0.0201811
0.0201634
0.0201457
0.020128
0.0201103
0.0200925
0.0200747
0.020057
0.0200392
0.0200214
0.0200037
0.0199861
0.0199684
0.0199509
0.0199334
0.0199159
0.0198986
0.0198813
0.0198641
0.019847
0.01983
0.0198131
0.0197963
0.0197796
0.019763
0.0197465
0.0197301
0.0197138
0.0196976
0.0196815
0.0196655
0.0196495
0.0196337
0.019618
0.0196024
0.0195869
0.0195715
0.0195562
0.019541
0.0195259
0.0195109
0.019496
0.0194812
0.0194665
0.0194519
0.0194374
0.019423
0.0194087
0.0193944
0.0193803
0.0193662
0.0193521
0.0193382
0.0193243
0.0193105
0.0192968
0.0192832
0.0192697
0.0192562
0.0192429
0.0192296
0.0192164
0.0192032
0.0191902
0.0191771
0.0191641
0.0191511
0.0191382
0.0191253
0.0191124
0.0190995
0.0190868
0.0190741
0.0190616
0.0190493
0.0190372
0.0190254
0.0190139
0.0190028
0.0189922
0.018982
0.0189722
0.018963
0.0189544
0.0189463
0.0189387
0.0189316
0.018925
0.0189188
0.0189129
0.0189074
0.0189021
0.0188969
0.0188917
0.0188864
0.018881
0.0188752
0.018869
0.0188623
0.018855
0.018847
0.0188381
0.0188285
0.0188179
0.0188063
0.0187939
0.0187805
0.0187662
0.0187512
0.0187353
0.0187188
0.0187018
0.0186843
0.0186665
0.0186484
0.0186303
0.0186122
0.0185941
0.0185763
0.0185588
0.0185415
0.0185247
0.0185082
0.0184922
0.0184766
0.0184614
0.0184467
0.0184323
0.0184183
0.0184046
0.0183912
0.0183781
0.0183652
0.0183525
0.01834
0.0183276
0.0183153
0.0183031
0.0182909
0.0182788
0.0182667
0.0182546
0.0182425
0.0182305
0.0182184
0.0182062
0.0181941
0.018182
0.0181699
0.0181577
0.0181456
0.0181334
0.0181213
0.0181092
0.018097
0.018085
0.0180729
0.0180609
0.0180489
0.0180369
0.018025
0.0180131
0.0180013
0.0179895
0.0179778
0.0179661
0.0179545
0.0179429
0.0179314
0.01792
0.0179086
0.0178972
0.017886
0.0178748
0.0178636
0.0178526
0.0178415
0.0178306
0.0178197
0.0178089
0.0177981
0.0177875
0.0177768
0.0177663
0.0177558
0.0177454
0.017735
0.0177247
0.0177144
0.0177042
0.0176941
0.017684
0.017674
0.0176641
0.0176542
0.0176443
0.0176345
0.0176247
0.017615
0.0176054
0.0175958
0.0175863
0.0175768
0.0175673
0.0175579
0.0175485
0.0175392
0.0175299
0.0175207
0.0175115
0.0175023
0.0174931
0.017484
0.017475
0.017466
0.017457
0.0174481
0.0174393
0.0174306
0.017422
0.0174135
0.0174052
0.0173971
0.0173891
0.0173814
0.0173739
0.0173667
0.0173597
0.017353
0.0173466
0.0173405
0.0173347
0.0173292
0.017324
0.017319
0.0173143
0.0173098
0.0173056
0.0173014
0.0172975
0.0172935
0.0172897
0.0172857
0.0172818
0.0172776
0.0172734
0.0172687
0.017264
0.0172587
0.0172534
0.0172472
0.017241
0.0172338
0.0172266
0.0172184
0.01721
0.0172007
0.0171913
0.0171809
0.0171705
0.0171591
0.0171479
0.0171357
0.0171238
0.017111
0.0170986
0.0170855
0.0170729
0.0170596
0.0170469
0.0170338
0.0170212
0.0170083
0.016996
0.0169835
0.0169716
0.0169595
0.016948
0.0169364
0.0169253
0.0169142
0.0169035
0.0168929
0.0168826
0.0168723
0.0168623
0.0168524
0.0168427
0.016833
0.0168235
0.016814
0.0168046
0.0167953
0.016786
0.0167767
0.0167675
0.0167583
0.0167491
0.0167399
0.0167307
0.0167216
0.0167124
0.0167032
0.0166941
0.0166849
0.0166758
0.0166666
0.0166575
0.0166483
0.0166392
0.0166301
0.016621
0.0166119
0.0166028
0.0165938
0.0165848
0.0165758
0.0165668
0.0165579
0.016549
0.0165401
0.0165313
0.0165225
0.0165137
0.016505
0.0164963
0.0164877
0.0164791
0.0164705
0.016462
0.0164535
0.0164451
0.0164367
0.0164284
0.0164201
0.0164118
0.0164036
0.0163955
0.0163873
0.0163793
0.0163713
0.0163633
0.0163553
0.0163475
0.0163396
0.0163318
0.016324
0.0163163
0.0163086
0.016301
0.0162933
0.0162858
0.0162782
0.0162707
0.0162632
0.0162558
0.0162484
0.0162411
0.0162337
0.0162265
0.0162191
0.016212
0.0162047
0.0161976
0.0161903
0.0161833
0.0161761
0.0161691
0.016162
0.0161551
0.0161481
0.0161412
0.0161343
0.0161276
0.0161207
0.0161141
0.0161075
0.016101
0.0160945
0.0160883
0.016082
0.016076
0.01607
0.0160643
0.0160586
0.0160532
0.0160478
0.0160427
0.0160377
0.016033
0.0160283
0.016024
0.0160197
0.0160157
0.0160117
0.0160079
0.0160042
0.0160007
0.0159972
0.0159939
0.0159905
0.0159873
0.0159839
0.0159806
0.0159771
0.0159738
0.01597
0.0159664
0.0159623
0.0159583
0.0159538
0.0159493
0.0159443
0.0159392
0.0159335
0.0159279
0.0159215
0.0159152
0.015908
0.0159011
0.0158932
0.0158856
0.0158771
0.0158689
0.0158598
0.0158511
0.0158415
0.0158324
0.0158224
0.0158131
0.0158028
0.0157933
0.0157829
0.0157733
0.0157629
0.0157533
0.015743
0.0157335
0.0157233
0.0157141
0.0157041
0.0156952
0.0156854
0.0156768
0.0156672
0.0156589
0.0156496
0.0156415
0.0156325
0.0156246
0.0156158
0.0156082
0.0155995
0.0155921
0.0155836
0.0155764
0.015568
0.0155609
0.0155526
0.0155456
0.0155373
0.0155304
0.0155221
0.0155154
0.0155071
0.0155004
0.015492
0.0154854
0.0154771
0.0154705
0.0154621
0.0154556
0.0154472
0.0154407
0.0154322
0.0154259
0.0154173
0.015411
0.0154025
0.0153963
0.0153877
0.0153815
0.015373
0.0153668
0.0153583
0.0153522
0.0153437
0.0153376
0.0153292
0.0153231
0.0153149
0.0153087
0.0153006
0.0152944
0.0152864
0.0152802
0.0152724
0.0152661
0.0152585
0.0152522
0.0152447
0.0152384
0.015231
0.0152247
0.0152175
0.0152111
0.015204
0.0151977
0.0151907
0.0151844
0.0151775
0.0151712
0.0151644
0.0151582
0.0151515
0.0151453
0.0151386
0.0151325
0.0151259
0.0151198
0.0151132
0.0151072
0.0151007
0.0150947
0.0150882
0.0150824
0.0150759
0.0150701
0.0150636
0.0150579
0.0150515
0.0150459
0.0150394
0.0150339
0.0150274
0.015022
0.0150155
0.0150103
0.0150037
0.0149986
0.014992
0.0149872
0.0149806
0.0149759
0.0149693
0.0149648
0.0149582
0.014954
0.0149474
0.0149435
0.0149369
0.0149333
0.0149268
0.0149235
0.0149171
0.0149141
0.0149078
0.0149052
0.014899
0.0148967
0.0148907
0.0148886
0.0148828
0.014881
0.0148754
0.0148737
0.0148684
0.0148669
0.0148616
0.0148603
0.0148551
0.0148539
0.0148488
0.0148475
0.0148424
0.0148412
0.014836
0.0148347
0.0148293
0.0148279
0.0148222
0.0148206
0.0148147
0.0148127
0.0148065
0.0148041
0.0147975
0.0147948
0.0147878
0.0147846
0.0147771
0.0147735
0.0147655
0.0147615
0.014753
0.0147485
0.0147396
0.0147347
0.0147253
0.01472
0.0147103
0.0147047
0.0146947
0.0146889
0.0146786
0.0146726
0.0146622
0.014656
0.0146455
0.0146393
0.0146287
0.0146225
0.014612
0.0146058
0.0145954
0.0145893
0.014579
0.0145731
0.0145629
0.0145571
0.014547
0.0145414
0.0145315
0.014526
0.0145163
0.014511
0.0145014
0.0144963
0.0144868
0.0144818
0.0144724
0.0144675
0.0144583
0.0144534
0.0144443
0.0144395
0.0144305
0.0144258
0.0144167
0.0144121
0.0144031
0.0143985
0.0143895
0.014385
0.014376
0.0143715
0.0143625
0.014358
0.014349
0.0143445
0.0143355
0.0143311
0.0143221
0.0143177
0.0143086
0.0143043
0.0142952
0.0142909
0.0142818
0.0142776
0.0142684
0.0142643
0.0142551
0.014251
0.0142418
0.0142378
0.0142285
0.0142246
0.0142153
0.0142115
0.0142022
0.0141985
0.0141891
0.0141855
0.014176
0.0141726
0.0141631
0.0141598
0.0141502
0.0141471
0.0141374
0.0141344
0.0141247
0.0141219
0.0141121
0.0141094
0.0140996
0.0140969
0.0140871
0.0140846
0.0140748
0.0140723
0.0140625
0.0140601
0.0140503
0.0140479
0.0140382
0.0140358
0.0140262
0.0140238
0.0140143
0.0140119
0.0140024
0.014
0.0139906
0.0139882
0.0139789
0.0139765
0.0139672
0.0139647
0.0139557
0.0139531
0.0139442
0.0139415
0.0139329
0.01393
0.0139215
0.0139187
0.0139103
0.0139074
0.0138992
0.0138964
0.0138882
0.0138855
0.0138774
0.0138748
0.0138668
0.0138643
0.0138565
0.0138542
0.0138464
0.0138443
0.0138367
0.0138348
0.0138212
0.193606
)
;

boundaryField
{
    inlet
    {
        type            fixedValue;
        value           uniform 0.55;
    }
    outlet
    {
        type            zeroGradient;
    }
    emptyWalls
    {
        type            empty;
    }
}


// ************************************************************************* //
