/*--------------------------------*- C++ -*----------------------------------*\
  =========                 |
  \\      /  F ield         | OpenFOAM: The Open Source CFD Toolbox
   \\    /   O peration     | Website:  https://openfoam.org
    \\  /    A nd           | Version:  9
     \\/     M anipulation  |
\*---------------------------------------------------------------------------*/
FoamFile
{
    format      ascii;
    class       volScalarField;
    location    "4000";
    object      Sb;
}
// * * * * * * * * * * * * * * * * * * * * * * * * * * * * * * * * * * * * * //

dimensions      [0 0 0 0 0 0 0];

internalField   nonuniform List<scalar> 
1000
(
0.352084
0.35529
0.360176
0.36655
0.390766
0.531776
0.651656
0.672181
0.678527
0.681222
0.682426
0.682888
0.682832
0.681909
0.679141
0.674636
0.669514
0.664218
0.65892
0.653703
0.648605
0.643642
0.638817
0.634131
0.62958
0.62516
0.620863
0.616684
0.612619
0.608661
0.604804
0.601044
0.597376
0.593795
0.590296
0.586876
0.583532
0.580259
0.577056
0.573918
0.570843
0.567827
0.564868
0.561961
0.559105
0.556297
0.553534
0.550816
0.54814
0.545505
0.54291
0.540354
0.537836
0.535356
0.532911
0.530503
0.528129
0.525788
0.523481
0.521207
0.518964
0.516752
0.514571
0.512418
0.510294
0.508195
0.506121
0.50407
0.50204
0.500029
0.498036
0.49606
0.494099
0.492153
0.490221
0.488303
0.486398
0.484507
0.482629
0.480765
0.478914
0.477076
0.475251
0.473439
0.471639
0.469852
0.468077
0.466313
0.464561
0.462819
0.461088
0.459366
0.457654
0.455951
0.454257
0.45257
0.450892
0.449221
0.447556
0.445898
0.444247
0.442601
0.440961
0.439325
0.437695
0.436069
0.434447
0.432829
0.431214
0.429602
0.427992
0.426385
0.424779
0.423176
0.421573
0.419971
0.418369
0.416768
0.415166
0.413563
0.411959
0.410353
0.408745
0.407135
0.405521
0.403903
0.402282
0.400656
0.399025
0.397388
0.395745
0.394095
0.392439
0.390775
0.389102
0.387421
0.38573
0.384029
0.382319
0.380599
0.378871
0.377133
0.375389
0.373641
0.371892
0.370149
0.368417
0.366706
0.365026
0.363383
0.361782
0.36021
0.358634
0.35697
0.355057
0.3526
0.349108
0.34384
0.335868
0.324424
0.309638
0.293189
0.277852
0.265871
0.257827
0.252994
0.250293
0.248847
0.248091
0.247702
0.247503
0.247402
0.24735
0.247324
0.247311
0.247304
0.247301
0.247299
0.247298
0.247298
0.247298
0.247297
0.247297
0.247297
0.247297
0.247297
0.247297
0.247297
0.247297
0.247297
0.247297
0.247297
0.247297
0.247297
0.247297
0.247297
0.247297
0.247297
0.247296
0.247296
0.247296
0.247296
0.247296
0.247296
0.247296
0.247295
0.247295
0.247295
0.247295
0.247294
0.247294
0.247294
0.247293
0.247293
0.247292
0.247292
0.247292
0.247291
0.247291
0.24729
0.24729
0.247289
0.247288
0.247288
0.247287
0.247286
0.247286
0.247285
0.247284
0.247283
0.247282
0.24728
0.247279
0.247278
0.247277
0.247275
0.247274
0.247273
0.247271
0.24727
0.247268
0.247267
0.247265
0.247264
0.247263
0.247261
0.24726
0.247259
0.247259
0.247258
0.247258
0.247258
0.247258
0.247257
0.247258
0.247259
0.24726
0.247261
0.247262
0.247264
0.247266
0.247267
0.247269
0.247271
0.247273
0.247275
0.247277
0.247278
0.24728
0.247281
0.247282
0.247283
0.247284
0.247285
0.247285
0.247286
0.247286
0.247286
0.247286
0.247286
0.247285
0.247285
0.247285
0.247284
0.247284
0.247283
0.247283
0.247282
0.247282
0.247281
0.247281
0.247281
0.24728
0.24728
0.24728
0.24728
0.24728
0.247279
0.247279
0.247279
0.247279
0.247279
0.247279
0.247279
0.247279
0.247279
0.247279
0.247279
0.247279
0.24728
0.24728
0.24728
0.24728
0.24728
0.24728
0.24728
0.24728
0.24728
0.24728
0.247281
0.247281
0.247281
0.247281
0.247281
0.247281
0.247281
0.247281
0.247281
0.247281
0.247282
0.247282
0.247282
0.247282
0.247282
0.247282
0.247282
0.247282
0.247282
0.247282
0.247283
0.247283
0.247283
0.247283
0.247283
0.247283
0.247283
0.247283
0.247283
0.247284
0.247284
0.247284
0.247284
0.247284
0.247284
0.247284
0.247285
0.247285
0.247285
0.247285
0.247285
0.247285
0.247285
0.247286
0.247286
0.247286
0.247286
0.247286
0.247286
0.247287
0.247287
0.247287
0.247287
0.247287
0.247287
0.247287
0.247288
0.247288
0.247288
0.247288
0.247288
0.247288
0.247288
0.247288
0.247288
0.247288
0.247288
0.247288
0.247288
0.247288
0.247288
0.247288
0.247288
0.247288
0.247288
0.247288
0.247288
0.247288
0.247288
0.247287
0.247287
0.247287
0.247287
0.247287
0.247286
0.247286
0.247286
0.247286
0.247286
0.247285
0.247285
0.247285
0.247285
0.247285
0.247284
0.247284
0.247284
0.247284
0.247284
0.247284
0.247283
0.247283
0.247283
0.247283
0.247283
0.247283
0.247283
0.247283
0.247283
0.247283
0.247283
0.247283
0.247283
0.247283
0.247282
0.247282
0.247282
0.247281
0.247281
0.24728
0.24728
0.247279
0.247278
0.247277
0.247276
0.247275
0.247274
0.247273
0.247271
0.24727
0.247269
0.247268
0.247266
0.247265
0.247264
0.247262
0.247261
0.24726
0.247258
0.247257
0.247256
0.247255
0.247254
0.247253
0.247253
0.247252
0.247252
0.247252
0.247252
0.247252
0.247252
0.247253
0.247254
0.247255
0.247256
0.247258
0.247259
0.247261
0.247262
0.247264
0.247266
0.247268
0.24727
0.247272
0.247273
0.247275
0.247276
0.247278
0.247279
0.24728
0.247281
0.247282
0.247283
0.247284
0.247284
0.247285
0.247285
0.247285
0.247285
0.247285
0.247285
0.247285
0.247285
0.247285
0.247285
0.247285
0.247285
0.247284
0.247284
0.247284
0.247284
0.247283
0.247283
0.247283
0.247283
0.247283
0.247283
0.247283
0.247283
0.247283
0.247283
0.247283
0.247283
0.247283
0.247283
0.247283
0.247283
0.247283
0.247283
0.247283
0.247283
0.247284
0.247284
0.247284
0.247284
0.247284
0.247284
0.247284
0.247285
0.247285
0.247285
0.247285
0.247285
0.247285
0.247286
0.247286
0.247286
0.247286
0.247286
0.247286
0.247286
0.247287
0.247287
0.247287
0.247287
0.247287
0.247287
0.247287
0.247287
0.247287
0.247287
0.247287
0.247287
0.247287
0.247287
0.247287
0.247287
0.247287
0.247287
0.247287
0.247287
0.247287
0.247287
0.247287
0.247287
0.247287
0.247287
0.247287
0.247287
0.247287
0.247287
0.247287
0.247286
0.247286
0.247286
0.247286
0.247286
0.247286
0.247286
0.247286
0.247286
0.247286
0.247286
0.247285
0.247285
0.247285
0.247285
0.247285
0.247285
0.247285
0.247285
0.247285
0.247285
0.247285
0.247285
0.247285
0.247285
0.247285
0.247285
0.247285
0.247286
0.247286
0.247286
0.247286
0.247286
0.247286
0.247286
0.247286
0.247286
0.247286
0.247286
0.247286
0.247286
0.247286
0.247286
0.247286
0.247286
0.247286
0.247286
0.247286
0.247286
0.247286
0.247286
0.247286
0.247286
0.247286
0.247285
0.247285
0.247285
0.247285
0.247284
0.247284
0.247283
0.247283
0.247283
0.247282
0.247281
0.247281
0.24728
0.247279
0.247279
0.247278
0.247277
0.247276
0.247276
0.247274
0.247273
0.247273
0.247275
0.24731
0.247417
0.248549
0.249858
0.249998
0.25
0.25
0.25
0.25
0.25
0.25
0.25
0.25
0.25
0.25
0.25
0.25
0.25
0.25
0.25
0.25
0.25
0.25
0.25
0.25
0.25
0.25
0.25
0.25
0.25
0.25
0.25
0.25
0.25
0.25
0.25
0.25
0.25
0.25
0.25
0.25
0.25
0.25
0.25
0.25
0.25
0.25
0.25
0.25
0.25
0.25
0.25
0.25
0.25
0.25
0.25
0.25
0.25
0.25
0.25
0.25
0.25
0.25
0.25
0.25
0.25
0.25
0.25
0.25
0.25
0.25
0.25
0.25
0.25
0.25
0.25
0.25
0.25
0.25
0.25
0.25
0.25
0.25
0.25
0.25
0.25
0.25
0.25
0.25
0.25
0.25
0.25
0.25
0.25
0.25
0.25
0.25
0.25
0.25
0.25
0.25
0.25
0.25
0.25
0.25
0.25
0.25
0.25
0.25
0.25
0.25
0.25
0.25
0.25
0.25
0.25
0.25
0.25
0.25
0.25
0.25
0.25
0.25
0.25
0.25
0.25
0.25
0.25
0.25
0.25
0.25
0.25
0.25
0.25
0.25
0.25
0.25
0.25
0.25
0.25
0.25
0.25
0.25
0.25
0.25
0.25
0.25
0.25
0.25
0.25
0.25
0.25
0.25
0.25
0.25
0.25
0.25
0.25
0.25
0.25
0.25
0.25
0.25
0.25
0.25
0.25
0.25
0.25
0.25
0.25
0.25
0.25
0.25
0.25
0.25
0.25
0.25
0.25
0.25
0.25
0.25
0.25
0.25
0.25
0.25
0.25
0.25
0.25
0.25
0.25
0.25
0.25
0.25
0.25
0.25
0.25
0.25
0.25
0.25
0.25
0.25
0.25
0.25
0.25
0.25
0.25
0.25
0.25
0.25
0.25
0.25
0.25
0.25
0.25
0.25
0.25
0.25
0.25
0.25
0.25
0.25
0.25
0.25
0.25
0.25
0.25
0.25
0.25
0.25
0.25
0.25
0.25
0.25
0.25
0.25
0.25
0.25
0.25
0.25
0.25
0.25
0.25
0.25
0.25
0.25
0.25
0.25
0.25
0.25
0.25
0.25
0.25
0.25
0.25
0.25
0.25
0.25
0.25
0.25
0.25
0.25
0.25
0.25
0.25
0.25
0.25
0.25
0.25
0.25
0.25
0.25
0.25
0.25
0.25
0.25
0.25
0.25
0.25
0.25
0.25
0.25
0.25
0.25
0.25
0.25
0.25
0.25
0.25
0.25
0.25
0.25
0.25
0.25
0.25
0.25
0.25
0.25
0.25
0.25
0.25
0.25
0.25
0.25
0.25
0.25
0.25
0.25
0.25
0.25
0.25
0.25
0.25
0.25
0.25
0.25
0.25
0.25
0.25
0.25
0.25
0.25
0.25
0.25
0.25
0.25
0.25
0.25
0.25
0.25
0.25
0.25
0.25
0.25
0.25
0.25
0.25
0.25
0.25
0.25
0.25
0.25
0.25
)
;

boundaryField
{
    inlet
    {
        type            fixedValue;
        value           uniform 0.35;
    }
    outlet
    {
        type            zeroGradient;
    }
    emptyWalls
    {
        type            empty;
    }
}


// ************************************************************************* //
