/*--------------------------------*- C++ -*----------------------------------*\
  =========                 |
  \\      /  F ield         | OpenFOAM: The Open Source CFD Toolbox
   \\    /   O peration     | Website:  https://openfoam.org
    \\  /    A nd           | Version:  9
     \\/     M anipulation  |
\*---------------------------------------------------------------------------*/
FoamFile
{
    format      ascii;
    class       volVectorField;
    location    "4000";
    object      Ub;
}
// * * * * * * * * * * * * * * * * * * * * * * * * * * * * * * * * * * * * * //

dimensions      [0 0 0 0 0 0 0];

internalField   nonuniform List<vector> 
1000
(
(1.13609e-05 0 0)
(1.13621e-05 0 0)
(1.13657e-05 0 0)
(1.13748e-05 0 0)
(1.14151e-05 0 0)
(1.15852e-05 0 0)
(1.17504e-05 0 0)
(1.17864e-05 0 0)
(1.17979e-05 0 0)
(1.18033e-05 0 0)
(1.1806e-05 0 0)
(1.18071e-05 0 0)
(1.18069e-05 0 0)
(1.18037e-05 0 0)
(1.17944e-05 0 0)
(1.17787e-05 0 0)
(1.17593e-05 0 0)
(1.17379e-05 0 0)
(1.17153e-05 0 0)
(1.16919e-05 0 0)
(1.16677e-05 0 0)
(1.16431e-05 0 0)
(1.16179e-05 0 0)
(1.15924e-05 0 0)
(1.15665e-05 0 0)
(1.15403e-05 0 0)
(1.15138e-05 0 0)
(1.1487e-05 0 0)
(1.146e-05 0 0)
(1.14328e-05 0 0)
(1.14053e-05 0 0)
(1.13777e-05 0 0)
(1.13499e-05 0 0)
(1.13218e-05 0 0)
(1.12935e-05 0 0)
(1.12651e-05 0 0)
(1.12364e-05 0 0)
(1.12077e-05 0 0)
(1.11789e-05 0 0)
(1.115e-05 0 0)
(1.11211e-05 0 0)
(1.10919e-05 0 0)
(1.10625e-05 0 0)
(1.10327e-05 0 0)
(1.10025e-05 0 0)
(1.09718e-05 0 0)
(1.09405e-05 0 0)
(1.09087e-05 0 0)
(1.08764e-05 0 0)
(1.08437e-05 0 0)
(1.08108e-05 0 0)
(1.07777e-05 0 0)
(1.07445e-05 0 0)
(1.07113e-05 0 0)
(1.06783e-05 0 0)
(1.06454e-05 0 0)
(1.06128e-05 0 0)
(1.05806e-05 0 0)
(1.05488e-05 0 0)
(1.05176e-05 0 0)
(1.0487e-05 0 0)
(1.0457e-05 0 0)
(1.04277e-05 0 0)
(1.03991e-05 0 0)
(1.03709e-05 0 0)
(1.03432e-05 0 0)
(1.03158e-05 0 0)
(1.02884e-05 0 0)
(1.02608e-05 0 0)
(1.02329e-05 0 0)
(1.02045e-05 0 0)
(1.01754e-05 0 0)
(1.01456e-05 0 0)
(1.01151e-05 0 0)
(1.00837e-05 0 0)
(1.00516e-05 0 0)
(1.00188e-05 0 0)
(9.98544e-06 0 0)
(9.9515e-06 0 0)
(9.91711e-06 0 0)
(9.88236e-06 0 0)
(9.84733e-06 0 0)
(9.81207e-06 0 0)
(9.77666e-06 0 0)
(9.74112e-06 0 0)
(9.70548e-06 0 0)
(9.66977e-06 0 0)
(9.63398e-06 0 0)
(9.59811e-06 0 0)
(9.56217e-06 0 0)
(9.52613e-06 0 0)
(9.48998e-06 0 0)
(9.4537e-06 0 0)
(9.41728e-06 0 0)
(9.3807e-06 0 0)
(9.34395e-06 0 0)
(9.307e-06 0 0)
(9.26985e-06 0 0)
(9.23248e-06 0 0)
(9.19489e-06 0 0)
(9.15706e-06 0 0)
(9.11899e-06 0 0)
(9.08067e-06 0 0)
(9.04209e-06 0 0)
(9.00325e-06 0 0)
(8.96414e-06 0 0)
(8.92475e-06 0 0)
(8.88506e-06 0 0)
(8.84509e-06 0 0)
(8.80481e-06 0 0)
(8.76421e-06 0 0)
(8.72331e-06 0 0)
(8.68207e-06 0 0)
(8.6405e-06 0 0)
(8.59859e-06 0 0)
(8.55633e-06 0 0)
(8.5137e-06 0 0)
(8.47071e-06 0 0)
(8.42733e-06 0 0)
(8.38355e-06 0 0)
(8.33937e-06 0 0)
(8.29478e-06 0 0)
(8.24974e-06 0 0)
(8.20426e-06 0 0)
(8.15832e-06 0 0)
(8.11191e-06 0 0)
(8.065e-06 0 0)
(8.01758e-06 0 0)
(7.96964e-06 0 0)
(7.92116e-06 0 0)
(7.87212e-06 0 0)
(7.8225e-06 0 0)
(7.77228e-06 0 0)
(7.72145e-06 0 0)
(7.66999e-06 0 0)
(7.61787e-06 0 0)
(7.56506e-06 0 0)
(7.51157e-06 0 0)
(7.45738e-06 0 0)
(7.4025e-06 0 0)
(7.34693e-06 0 0)
(7.29071e-06 0 0)
(7.23388e-06 0 0)
(7.17653e-06 0 0)
(7.1188e-06 0 0)
(7.06086e-06 0 0)
(7.00296e-06 0 0)
(6.94541e-06 0 0)
(6.88852e-06 0 0)
(6.83256e-06 0 0)
(6.77757e-06 0 0)
(6.72311e-06 0 0)
(6.66778e-06 0 0)
(6.60843e-06 0 0)
(6.53884e-06 0 0)
(6.44786e-06 0 0)
(6.31702e-06 0 0)
(6.11896e-06 0 0)
(5.82041e-06 0 0)
(5.39582e-06 0 0)
(4.85332e-06 0 0)
(4.25473e-06 0 0)
(3.69718e-06 0 0)
(3.25889e-06 0 0)
(2.96168e-06 0 0)
(2.7815e-06 0 0)
(2.68013e-06 0 0)
(2.62562e-06 0 0)
(2.59705e-06 0 0)
(2.58229e-06 0 0)
(2.57474e-06 0 0)
(2.57088e-06 0 0)
(2.56891e-06 0 0)
(2.5679e-06 0 0)
(2.56738e-06 0 0)
(2.56711e-06 0 0)
(2.56696e-06 0 0)
(2.56688e-06 0 0)
(2.56683e-06 0 0)
(2.56679e-06 0 0)
(2.56677e-06 0 0)
(2.56675e-06 0 0)
(2.56673e-06 0 0)
(2.56671e-06 0 0)
(2.5667e-06 0 0)
(2.56669e-06 0 0)
(2.56668e-06 0 0)
(2.56667e-06 0 0)
(2.56666e-06 0 0)
(2.56665e-06 0 0)
(2.56665e-06 0 0)
(2.56664e-06 0 0)
(2.56663e-06 0 0)
(2.56662e-06 0 0)
(2.56661e-06 0 0)
(2.5666e-06 0 0)
(2.56659e-06 0 0)
(2.56657e-06 0 0)
(2.56654e-06 0 0)
(2.56652e-06 0 0)
(2.56649e-06 0 0)
(2.56645e-06 0 0)
(2.56641e-06 0 0)
(2.56636e-06 0 0)
(2.56631e-06 0 0)
(2.56625e-06 0 0)
(2.56618e-06 0 0)
(2.56611e-06 0 0)
(2.56603e-06 0 0)
(2.56595e-06 0 0)
(2.56586e-06 0 0)
(2.56576e-06 0 0)
(2.56566e-06 0 0)
(2.56556e-06 0 0)
(2.56546e-06 0 0)
(2.56535e-06 0 0)
(2.56523e-06 0 0)
(2.56511e-06 0 0)
(2.56499e-06 0 0)
(2.56486e-06 0 0)
(2.56472e-06 0 0)
(2.56457e-06 0 0)
(2.56441e-06 0 0)
(2.56425e-06 0 0)
(2.56407e-06 0 0)
(2.56387e-06 0 0)
(2.56366e-06 0 0)
(2.56344e-06 0 0)
(2.56319e-06 0 0)
(2.56293e-06 0 0)
(2.56266e-06 0 0)
(2.56236e-06 0 0)
(2.56205e-06 0 0)
(2.56172e-06 0 0)
(2.56138e-06 0 0)
(2.56103e-06 0 0)
(2.56066e-06 0 0)
(2.56029e-06 0 0)
(2.55991e-06 0 0)
(2.55953e-06 0 0)
(2.55916e-06 0 0)
(2.5588e-06 0 0)
(2.55844e-06 0 0)
(2.55811e-06 0 0)
(2.5578e-06 0 0)
(2.55753e-06 0 0)
(2.55729e-06 0 0)
(2.55709e-06 0 0)
(2.55695e-06 0 0)
(2.55686e-06 0 0)
(2.55681e-06 0 0)
(2.55679e-06 0 0)
(2.5568e-06 0 0)
(2.55685e-06 0 0)
(2.55702e-06 0 0)
(2.55729e-06 0 0)
(2.55761e-06 0 0)
(2.55798e-06 0 0)
(2.55841e-06 0 0)
(2.55888e-06 0 0)
(2.55938e-06 0 0)
(2.55991e-06 0 0)
(2.56045e-06 0 0)
(2.561e-06 0 0)
(2.56155e-06 0 0)
(2.56209e-06 0 0)
(2.5626e-06 0 0)
(2.56309e-06 0 0)
(2.56354e-06 0 0)
(2.56395e-06 0 0)
(2.56432e-06 0 0)
(2.56464e-06 0 0)
(2.56492e-06 0 0)
(2.56515e-06 0 0)
(2.56533e-06 0 0)
(2.56547e-06 0 0)
(2.56558e-06 0 0)
(2.56564e-06 0 0)
(2.56567e-06 0 0)
(2.56568e-06 0 0)
(2.56568e-06 0 0)
(2.56566e-06 0 0)
(2.56561e-06 0 0)
(2.56554e-06 0 0)
(2.56545e-06 0 0)
(2.56536e-06 0 0)
(2.56527e-06 0 0)
(2.56518e-06 0 0)
(2.56509e-06 0 0)
(2.565e-06 0 0)
(2.56493e-06 0 0)
(2.56486e-06 0 0)
(2.5648e-06 0 0)
(2.56475e-06 0 0)
(2.5647e-06 0 0)
(2.56467e-06 0 0)
(2.56464e-06 0 0)
(2.56462e-06 0 0)
(2.5646e-06 0 0)
(2.5646e-06 0 0)
(2.56459e-06 0 0)
(2.56459e-06 0 0)
(2.5646e-06 0 0)
(2.56462e-06 0 0)
(2.56463e-06 0 0)
(2.56466e-06 0 0)
(2.56468e-06 0 0)
(2.5647e-06 0 0)
(2.56473e-06 0 0)
(2.56476e-06 0 0)
(2.56478e-06 0 0)
(2.56481e-06 0 0)
(2.56483e-06 0 0)
(2.56486e-06 0 0)
(2.56488e-06 0 0)
(2.56491e-06 0 0)
(2.56493e-06 0 0)
(2.56496e-06 0 0)
(2.56498e-06 0 0)
(2.565e-06 0 0)
(2.56502e-06 0 0)
(2.56503e-06 0 0)
(2.56505e-06 0 0)
(2.56507e-06 0 0)
(2.56508e-06 0 0)
(2.5651e-06 0 0)
(2.56511e-06 0 0)
(2.56512e-06 0 0)
(2.56513e-06 0 0)
(2.56514e-06 0 0)
(2.56515e-06 0 0)
(2.56516e-06 0 0)
(2.56517e-06 0 0)
(2.56518e-06 0 0)
(2.56519e-06 0 0)
(2.5652e-06 0 0)
(2.56521e-06 0 0)
(2.56522e-06 0 0)
(2.56523e-06 0 0)
(2.56524e-06 0 0)
(2.56525e-06 0 0)
(2.56526e-06 0 0)
(2.56527e-06 0 0)
(2.56529e-06 0 0)
(2.5653e-06 0 0)
(2.56532e-06 0 0)
(2.56533e-06 0 0)
(2.56535e-06 0 0)
(2.56537e-06 0 0)
(2.56539e-06 0 0)
(2.56542e-06 0 0)
(2.56544e-06 0 0)
(2.56547e-06 0 0)
(2.56549e-06 0 0)
(2.56552e-06 0 0)
(2.56556e-06 0 0)
(2.56559e-06 0 0)
(2.56562e-06 0 0)
(2.56566e-06 0 0)
(2.56569e-06 0 0)
(2.56573e-06 0 0)
(2.56577e-06 0 0)
(2.56581e-06 0 0)
(2.56585e-06 0 0)
(2.56589e-06 0 0)
(2.56593e-06 0 0)
(2.56597e-06 0 0)
(2.56602e-06 0 0)
(2.56606e-06 0 0)
(2.5661e-06 0 0)
(2.56614e-06 0 0)
(2.56618e-06 0 0)
(2.56621e-06 0 0)
(2.56625e-06 0 0)
(2.56629e-06 0 0)
(2.56632e-06 0 0)
(2.56635e-06 0 0)
(2.56638e-06 0 0)
(2.56641e-06 0 0)
(2.56643e-06 0 0)
(2.56646e-06 0 0)
(2.56648e-06 0 0)
(2.56649e-06 0 0)
(2.56651e-06 0 0)
(2.56652e-06 0 0)
(2.56652e-06 0 0)
(2.56653e-06 0 0)
(2.56653e-06 0 0)
(2.56653e-06 0 0)
(2.56652e-06 0 0)
(2.56652e-06 0 0)
(2.5665e-06 0 0)
(2.56649e-06 0 0)
(2.56647e-06 0 0)
(2.56644e-06 0 0)
(2.56642e-06 0 0)
(2.56639e-06 0 0)
(2.56636e-06 0 0)
(2.56633e-06 0 0)
(2.56629e-06 0 0)
(2.56625e-06 0 0)
(2.56621e-06 0 0)
(2.56617e-06 0 0)
(2.56613e-06 0 0)
(2.56609e-06 0 0)
(2.56605e-06 0 0)
(2.566e-06 0 0)
(2.56596e-06 0 0)
(2.56591e-06 0 0)
(2.56587e-06 0 0)
(2.56582e-06 0 0)
(2.56578e-06 0 0)
(2.56574e-06 0 0)
(2.56569e-06 0 0)
(2.56565e-06 0 0)
(2.56561e-06 0 0)
(2.56557e-06 0 0)
(2.56553e-06 0 0)
(2.56549e-06 0 0)
(2.56545e-06 0 0)
(2.56541e-06 0 0)
(2.56537e-06 0 0)
(2.56533e-06 0 0)
(2.56529e-06 0 0)
(2.56526e-06 0 0)
(2.56521e-06 0 0)
(2.56517e-06 0 0)
(2.56512e-06 0 0)
(2.56507e-06 0 0)
(2.565e-06 0 0)
(2.56493e-06 0 0)
(2.56486e-06 0 0)
(2.56477e-06 0 0)
(2.56467e-06 0 0)
(2.56456e-06 0 0)
(2.56444e-06 0 0)
(2.5643e-06 0 0)
(2.56415e-06 0 0)
(2.56399e-06 0 0)
(2.5638e-06 0 0)
(2.5636e-06 0 0)
(2.56339e-06 0 0)
(2.56315e-06 0 0)
(2.5629e-06 0 0)
(2.56263e-06 0 0)
(2.56235e-06 0 0)
(2.56205e-06 0 0)
(2.56174e-06 0 0)
(2.56142e-06 0 0)
(2.56109e-06 0 0)
(2.56075e-06 0 0)
(2.56041e-06 0 0)
(2.56006e-06 0 0)
(2.55971e-06 0 0)
(2.55937e-06 0 0)
(2.55903e-06 0 0)
(2.5587e-06 0 0)
(2.55839e-06 0 0)
(2.55809e-06 0 0)
(2.55782e-06 0 0)
(2.55757e-06 0 0)
(2.55735e-06 0 0)
(2.55717e-06 0 0)
(2.55702e-06 0 0)
(2.55692e-06 0 0)
(2.55686e-06 0 0)
(2.55684e-06 0 0)
(2.55683e-06 0 0)
(2.55685e-06 0 0)
(2.55693e-06 0 0)
(2.55711e-06 0 0)
(2.55734e-06 0 0)
(2.55762e-06 0 0)
(2.55795e-06 0 0)
(2.55832e-06 0 0)
(2.55872e-06 0 0)
(2.55916e-06 0 0)
(2.55962e-06 0 0)
(2.56009e-06 0 0)
(2.56058e-06 0 0)
(2.56107e-06 0 0)
(2.56155e-06 0 0)
(2.56202e-06 0 0)
(2.56248e-06 0 0)
(2.56292e-06 0 0)
(2.56332e-06 0 0)
(2.5637e-06 0 0)
(2.56405e-06 0 0)
(2.56436e-06 0 0)
(2.56464e-06 0 0)
(2.56489e-06 0 0)
(2.56509e-06 0 0)
(2.56527e-06 0 0)
(2.56541e-06 0 0)
(2.56553e-06 0 0)
(2.56561e-06 0 0)
(2.56568e-06 0 0)
(2.56572e-06 0 0)
(2.56574e-06 0 0)
(2.56574e-06 0 0)
(2.56574e-06 0 0)
(2.56573e-06 0 0)
(2.5657e-06 0 0)
(2.56566e-06 0 0)
(2.56561e-06 0 0)
(2.56555e-06 0 0)
(2.5655e-06 0 0)
(2.56545e-06 0 0)
(2.56539e-06 0 0)
(2.56534e-06 0 0)
(2.56529e-06 0 0)
(2.56525e-06 0 0)
(2.56521e-06 0 0)
(2.56518e-06 0 0)
(2.56515e-06 0 0)
(2.56513e-06 0 0)
(2.56511e-06 0 0)
(2.5651e-06 0 0)
(2.5651e-06 0 0)
(2.5651e-06 0 0)
(2.5651e-06 0 0)
(2.5651e-06 0 0)
(2.5651e-06 0 0)
(2.56512e-06 0 0)
(2.56514e-06 0 0)
(2.56516e-06 0 0)
(2.56519e-06 0 0)
(2.56522e-06 0 0)
(2.56525e-06 0 0)
(2.56529e-06 0 0)
(2.56532e-06 0 0)
(2.56536e-06 0 0)
(2.5654e-06 0 0)
(2.56543e-06 0 0)
(2.56547e-06 0 0)
(2.56551e-06 0 0)
(2.56555e-06 0 0)
(2.56559e-06 0 0)
(2.56563e-06 0 0)
(2.56567e-06 0 0)
(2.56571e-06 0 0)
(2.56575e-06 0 0)
(2.56579e-06 0 0)
(2.56583e-06 0 0)
(2.56587e-06 0 0)
(2.5659e-06 0 0)
(2.56594e-06 0 0)
(2.56597e-06 0 0)
(2.56601e-06 0 0)
(2.56604e-06 0 0)
(2.56607e-06 0 0)
(2.5661e-06 0 0)
(2.56613e-06 0 0)
(2.56615e-06 0 0)
(2.56618e-06 0 0)
(2.5662e-06 0 0)
(2.56622e-06 0 0)
(2.56624e-06 0 0)
(2.56625e-06 0 0)
(2.56627e-06 0 0)
(2.56628e-06 0 0)
(2.56629e-06 0 0)
(2.56629e-06 0 0)
(2.5663e-06 0 0)
(2.5663e-06 0 0)
(2.5663e-06 0 0)
(2.5663e-06 0 0)
(2.5663e-06 0 0)
(2.56629e-06 0 0)
(2.56628e-06 0 0)
(2.56627e-06 0 0)
(2.56626e-06 0 0)
(2.56624e-06 0 0)
(2.56622e-06 0 0)
(2.5662e-06 0 0)
(2.56618e-06 0 0)
(2.56616e-06 0 0)
(2.56613e-06 0 0)
(2.56611e-06 0 0)
(2.56608e-06 0 0)
(2.56606e-06 0 0)
(2.56603e-06 0 0)
(2.566e-06 0 0)
(2.56598e-06 0 0)
(2.56595e-06 0 0)
(2.56592e-06 0 0)
(2.5659e-06 0 0)
(2.56588e-06 0 0)
(2.56585e-06 0 0)
(2.56583e-06 0 0)
(2.56582e-06 0 0)
(2.5658e-06 0 0)
(2.56578e-06 0 0)
(2.56577e-06 0 0)
(2.56576e-06 0 0)
(2.56575e-06 0 0)
(2.56574e-06 0 0)
(2.56574e-06 0 0)
(2.56574e-06 0 0)
(2.56574e-06 0 0)
(2.56574e-06 0 0)
(2.56574e-06 0 0)
(2.56574e-06 0 0)
(2.56575e-06 0 0)
(2.56577e-06 0 0)
(2.56578e-06 0 0)
(2.5658e-06 0 0)
(2.56581e-06 0 0)
(2.56583e-06 0 0)
(2.56584e-06 0 0)
(2.56586e-06 0 0)
(2.56588e-06 0 0)
(2.56589e-06 0 0)
(2.56591e-06 0 0)
(2.56593e-06 0 0)
(2.56594e-06 0 0)
(2.56596e-06 0 0)
(2.56597e-06 0 0)
(2.56598e-06 0 0)
(2.56599e-06 0 0)
(2.566e-06 0 0)
(2.566e-06 0 0)
(2.566e-06 0 0)
(2.566e-06 0 0)
(2.566e-06 0 0)
(2.566e-06 0 0)
(2.56599e-06 0 0)
(2.56597e-06 0 0)
(2.56595e-06 0 0)
(2.56593e-06 0 0)
(2.5659e-06 0 0)
(2.56587e-06 0 0)
(2.56582e-06 0 0)
(2.56578e-06 0 0)
(2.56572e-06 0 0)
(2.56566e-06 0 0)
(2.56559e-06 0 0)
(2.56552e-06 0 0)
(2.56543e-06 0 0)
(2.56534e-06 0 0)
(2.56523e-06 0 0)
(2.56512e-06 0 0)
(2.56501e-06 0 0)
(2.56488e-06 0 0)
(2.56472e-06 0 0)
(2.56457e-06 0 0)
(2.56442e-06 0 0)
(2.56423e-06 0 0)
(2.56404e-06 0 0)
(2.56387e-06 0 0)
(2.56367e-06 0 0)
(2.56341e-06 0 0)
(2.56321e-06 0 0)
(2.563e-06 0 0)
(2.56271e-06 0 0)
(2.56246e-06 0 0)
(2.5624e-06 0 0)
(2.56282e-06 0 0)
(2.56986e-06 0 0)
(2.60109e-06 0 0)
(2.76622e-06 0 0)
(2.93658e-06 0 0)
(2.96681e-06 0 0)
(2.96725e-06 0 0)
(2.96727e-06 0 0)
(2.96727e-06 0 0)
(2.96727e-06 0 0)
(2.96727e-06 0 0)
(2.96727e-06 0 0)
(2.96727e-06 0 0)
(2.96727e-06 0 0)
(2.96727e-06 0 0)
(2.96727e-06 0 0)
(2.96727e-06 0 0)
(2.96727e-06 0 0)
(2.96727e-06 0 0)
(2.96727e-06 0 0)
(2.96727e-06 0 0)
(2.96727e-06 0 0)
(2.96727e-06 0 0)
(2.96727e-06 0 0)
(2.96727e-06 0 0)
(2.96727e-06 0 0)
(2.96727e-06 0 0)
(2.96727e-06 0 0)
(2.96727e-06 0 0)
(2.96727e-06 0 0)
(2.96727e-06 0 0)
(2.96727e-06 0 0)
(2.96727e-06 0 0)
(2.96727e-06 0 0)
(2.96727e-06 0 0)
(2.96727e-06 0 0)
(2.96727e-06 0 0)
(2.96727e-06 0 0)
(2.96727e-06 0 0)
(2.96727e-06 0 0)
(2.96727e-06 0 0)
(2.96727e-06 0 0)
(2.96727e-06 0 0)
(2.96727e-06 0 0)
(2.96727e-06 0 0)
(2.96727e-06 0 0)
(2.96727e-06 0 0)
(2.96727e-06 0 0)
(2.96727e-06 0 0)
(2.96727e-06 0 0)
(2.96727e-06 0 0)
(2.96727e-06 0 0)
(2.96727e-06 0 0)
(2.96727e-06 0 0)
(2.96727e-06 0 0)
(2.96727e-06 0 0)
(2.96727e-06 0 0)
(2.96727e-06 0 0)
(2.96727e-06 0 0)
(2.96727e-06 0 0)
(2.96727e-06 0 0)
(2.96727e-06 0 0)
(2.96727e-06 0 0)
(2.96727e-06 0 0)
(2.96727e-06 0 0)
(2.96727e-06 0 0)
(2.96727e-06 0 0)
(2.96727e-06 0 0)
(2.96727e-06 0 0)
(2.96727e-06 0 0)
(2.96727e-06 0 0)
(2.96727e-06 0 0)
(2.96727e-06 0 0)
(2.96727e-06 0 0)
(2.96727e-06 0 0)
(2.96727e-06 0 0)
(2.96727e-06 0 0)
(2.96727e-06 0 0)
(2.96727e-06 0 0)
(2.96727e-06 0 0)
(2.96727e-06 0 0)
(2.96727e-06 0 0)
(2.96727e-06 0 0)
(2.96727e-06 0 0)
(2.96727e-06 0 0)
(2.96727e-06 0 0)
(2.96727e-06 0 0)
(2.96727e-06 0 0)
(2.96727e-06 0 0)
(2.96727e-06 0 0)
(2.96727e-06 0 0)
(2.96727e-06 0 0)
(2.96727e-06 0 0)
(2.96727e-06 0 0)
(2.96727e-06 0 0)
(2.96727e-06 0 0)
(2.96727e-06 0 0)
(2.96727e-06 0 0)
(2.96727e-06 0 0)
(2.96727e-06 0 0)
(2.96727e-06 0 0)
(2.96727e-06 0 0)
(2.96727e-06 0 0)
(2.96727e-06 0 0)
(2.96727e-06 0 0)
(2.96727e-06 0 0)
(2.96727e-06 0 0)
(2.96727e-06 0 0)
(2.96727e-06 0 0)
(2.96727e-06 0 0)
(2.96727e-06 0 0)
(2.96727e-06 0 0)
(2.96727e-06 0 0)
(2.96727e-06 0 0)
(2.96727e-06 0 0)
(2.96727e-06 0 0)
(2.96727e-06 0 0)
(2.96727e-06 0 0)
(2.96727e-06 0 0)
(2.96727e-06 0 0)
(2.96727e-06 0 0)
(2.96727e-06 0 0)
(2.96727e-06 0 0)
(2.96727e-06 0 0)
(2.96727e-06 0 0)
(2.96727e-06 0 0)
(2.96727e-06 0 0)
(2.96727e-06 0 0)
(2.96727e-06 0 0)
(2.96727e-06 0 0)
(2.96727e-06 0 0)
(2.96727e-06 0 0)
(2.96727e-06 0 0)
(2.96727e-06 0 0)
(2.96727e-06 0 0)
(2.96727e-06 0 0)
(2.96727e-06 0 0)
(2.96727e-06 0 0)
(2.96727e-06 0 0)
(2.96727e-06 0 0)
(2.96727e-06 0 0)
(2.96727e-06 0 0)
(2.96727e-06 0 0)
(2.96727e-06 0 0)
(2.96727e-06 0 0)
(2.96727e-06 0 0)
(2.96727e-06 0 0)
(2.96727e-06 0 0)
(2.96727e-06 0 0)
(2.96727e-06 0 0)
(2.96727e-06 0 0)
(2.96727e-06 0 0)
(2.96727e-06 0 0)
(2.96727e-06 0 0)
(2.96727e-06 0 0)
(2.96727e-06 0 0)
(2.96727e-06 0 0)
(2.96727e-06 0 0)
(2.96727e-06 0 0)
(2.96727e-06 0 0)
(2.96727e-06 0 0)
(2.96727e-06 0 0)
(2.96727e-06 0 0)
(2.96727e-06 0 0)
(2.96727e-06 0 0)
(2.96727e-06 0 0)
(2.96727e-06 0 0)
(2.96727e-06 0 0)
(2.96727e-06 0 0)
(2.96727e-06 0 0)
(2.96727e-06 0 0)
(2.96727e-06 0 0)
(2.96727e-06 0 0)
(2.96727e-06 0 0)
(2.96727e-06 0 0)
(2.96727e-06 0 0)
(2.96727e-06 0 0)
(2.96727e-06 0 0)
(2.96727e-06 0 0)
(2.96727e-06 0 0)
(2.96727e-06 0 0)
(2.96727e-06 0 0)
(2.96727e-06 0 0)
(2.96727e-06 0 0)
(2.96727e-06 0 0)
(2.96727e-06 0 0)
(2.96727e-06 0 0)
(2.96727e-06 0 0)
(2.96727e-06 0 0)
(2.96727e-06 0 0)
(2.96727e-06 0 0)
(2.96727e-06 0 0)
(2.96727e-06 0 0)
(2.96727e-06 0 0)
(2.96727e-06 0 0)
(2.96727e-06 0 0)
(2.96727e-06 0 0)
(2.96727e-06 0 0)
(2.96727e-06 0 0)
(2.96727e-06 0 0)
(2.96727e-06 0 0)
(2.96727e-06 0 0)
(2.96727e-06 0 0)
(2.96727e-06 0 0)
(2.96727e-06 0 0)
(2.96727e-06 0 0)
(2.96727e-06 0 0)
(2.96727e-06 0 0)
(2.96727e-06 0 0)
(2.96727e-06 0 0)
(2.96727e-06 0 0)
(2.96727e-06 0 0)
(2.96727e-06 0 0)
(2.96727e-06 0 0)
(2.96727e-06 0 0)
(2.96727e-06 0 0)
(2.96727e-06 0 0)
(2.96727e-06 0 0)
(2.96727e-06 0 0)
(2.96727e-06 0 0)
(2.96727e-06 0 0)
(2.96727e-06 0 0)
(2.96727e-06 0 0)
(2.96727e-06 0 0)
(2.96727e-06 0 0)
(2.96727e-06 0 0)
(2.96727e-06 0 0)
(2.96727e-06 0 0)
(2.96727e-06 0 0)
(2.96727e-06 0 0)
(2.96727e-06 0 0)
(2.96727e-06 0 0)
(2.96727e-06 0 0)
(2.96727e-06 0 0)
(2.96727e-06 0 0)
(2.96727e-06 0 0)
(2.96727e-06 0 0)
(2.96727e-06 0 0)
(2.96727e-06 0 0)
(2.96727e-06 0 0)
(2.96727e-06 0 0)
(2.96727e-06 0 0)
(2.96727e-06 0 0)
(2.96727e-06 0 0)
(2.96727e-06 0 0)
(2.96727e-06 0 0)
(2.96727e-06 0 0)
(2.96727e-06 0 0)
(2.96727e-06 0 0)
(2.96727e-06 0 0)
(2.96727e-06 0 0)
(2.96727e-06 0 0)
(2.96727e-06 0 0)
(2.96727e-06 0 0)
(2.96727e-06 0 0)
(2.96727e-06 0 0)
(2.96727e-06 0 0)
(2.96727e-06 0 0)
(2.96727e-06 0 0)
(2.96727e-06 0 0)
(2.96727e-06 0 0)
(2.96727e-06 0 0)
(2.96727e-06 0 0)
(2.96727e-06 0 0)
(2.96727e-06 0 0)
(2.96727e-06 0 0)
(2.96727e-06 0 0)
(2.96727e-06 0 0)
(2.96727e-06 0 0)
(2.96727e-06 0 0)
(2.96727e-06 0 0)
(2.96727e-06 0 0)
(2.96727e-06 0 0)
(2.96727e-06 0 0)
(2.96727e-06 0 0)
(2.96727e-06 0 0)
(2.96727e-06 0 0)
(2.96727e-06 0 0)
(2.96727e-06 0 0)
(2.96727e-06 0 0)
(2.96727e-06 0 0)
(2.96727e-06 0 0)
(2.96727e-06 0 0)
(2.96727e-06 0 0)
(2.96727e-06 0 0)
(2.96727e-06 0 0)
(2.96727e-06 0 0)
(2.96727e-06 0 0)
(2.96727e-06 0 0)
(2.96727e-06 0 0)
(2.96727e-06 0 0)
(2.96727e-06 0 0)
(2.96727e-06 0 0)
(2.96727e-06 0 0)
(2.96727e-06 0 0)
(2.96727e-06 0 0)
(2.96727e-06 0 0)
(2.96727e-06 0 0)
(2.96727e-06 0 0)
(2.96727e-06 0 0)
(2.96727e-06 0 0)
(2.96727e-06 0 0)
(2.96727e-06 0 0)
(2.96727e-06 0 0)
(2.96727e-06 0 0)
(2.96727e-06 0 0)
(2.96727e-06 0 0)
(2.96727e-06 0 0)
(2.96727e-06 0 0)
(2.96727e-06 0 0)
(2.96727e-06 0 0)
(2.96727e-06 0 0)
(2.96727e-06 0 0)
(2.96727e-06 0 0)
(2.96727e-06 0 0)
(2.96727e-06 0 0)
(2.96727e-06 0 0)
(2.96727e-06 0 0)
(2.96727e-06 0 0)
(2.96727e-06 0 0)
(2.96727e-06 0 0)
(2.96727e-06 0 0)
(2.96727e-06 0 0)
(2.96727e-06 0 0)
(2.96727e-06 0 0)
(2.96727e-06 0 0)
(2.96727e-06 0 0)
(2.96727e-06 0 0)
(2.96727e-06 0 0)
(2.96727e-06 0 0)
(2.96727e-06 0 0)
(2.96727e-06 0 0)
(2.96727e-06 0 0)
(2.96727e-06 0 0)
(2.96727e-06 0 0)
(2.96727e-06 0 0)
(2.96727e-06 0 0)
(2.96727e-06 0 0)
(2.96727e-06 0 0)
(2.96727e-06 0 0)
(2.96727e-06 0 0)
(2.96727e-06 0 0)
(2.96727e-06 0 0)
)
;

boundaryField
{
    inlet
    {
        type            fixedValue;
        value           uniform (1.13622e-05 0 0);
    }
    outlet
    {
        type            zeroGradient;
    }
    emptyWalls
    {
        type            empty;
    }
}


// ************************************************************************* //
