/*--------------------------------*- C++ -*----------------------------------*\
  =========                 |
  \\      /  F ield         | OpenFOAM: The Open Source CFD Toolbox
   \\    /   O peration     | Website:  https://openfoam.org
    \\  /    A nd           | Version:  9
     \\/     M anipulation  |
\*---------------------------------------------------------------------------*/
FoamFile
{
    format      ascii;
    class       volScalarField;
    location    "10850";
    object      kra;
}
// * * * * * * * * * * * * * * * * * * * * * * * * * * * * * * * * * * * * * //

dimensions      [0 0 0 0 0 0 0];

internalField   nonuniform List<scalar> 
1000
(
0.00023728
0.000239369
0.000242264
0.000244693
0.00024751
0.00024985
0.000252497
0.000254687
0.000256895
0.000258705
0.000260403
0.000262133
0.000265624
0.000276866
0.000329982
0.000639098
0.000854624
0.000896106
0.000910637
0.000918342
0.000923428
0.000927027
0.000929638
0.000931797
0.000934168
0.000937183
0.000940745
0.000944221
0.000946852
0.000948209
0.000948527
0.000948506
0.000948335
0.000947452
0.000944978
0.000941553
0.000937379
0.000932667
0.000927518
0.000921985
0.000916059
0.000909746
0.000903228
0.000896693
0.00089035
0.000884258
0.000878417
0.000872791
0.00086733
0.000861985
0.00085671
0.00085147
0.000846242
0.000841015
0.000835787
0.000830563
0.000825352
0.000820166
0.000815018
0.000809916
0.00080487
0.000799887
0.000794972
0.000790128
0.000785359
0.000780664
0.000776045
0.000771502
0.000767035
0.000762641
0.000758322
0.000754075
0.000749899
0.000745792
0.000741752
0.000737777
0.000733865
0.000730013
0.000726219
0.000722481
0.000718797
0.000715165
0.000711582
0.000708049
0.000704564
0.000701125
0.000697733
0.000694385
0.000691083
0.000687824
0.000684609
0.000681437
0.000678307
0.000675218
0.00067217
0.000669163
0.000666195
0.000663266
0.000660376
0.000657522
0.000654706
0.000651926
0.000649181
0.000646471
0.000643795
0.000641153
0.000638543
0.000635965
0.000633419
0.000630904
0.000628419
0.000625964
0.000623537
0.000621138
0.000618767
0.000616422
0.000614102
0.000611807
0.000609534
0.000607283
0.000605051
0.000602839
0.000600644
0.000598469
0.000596314
0.00059418
0.000592069
0.000589981
0.000587919
0.000585879
0.000583866
0.000581872
0.000579903
0.00057795
0.000576023
0.000574113
0.000572235
0.000570381
0.000568571
0.000566797
0.000565081
0.000563416
0.000561819
0.000560283
0.000558821
0.000557424
0.000556096
0.000554831
0.000553623
0.000552464
0.000551344
0.000550254
0.000549177
0.000548102
0.000547012
0.00054589
0.000544721
0.000543487
0.000542174
0.000540768
0.00053926
0.000537642
0.000535911
0.000534069
0.000532122
0.000530081
0.00052796
0.000525776
0.000523551
0.000521304
0.000519056
0.000516827
0.000514635
0.000512494
0.000510416
0.00050841
0.000506482
0.000504632
0.000502861
0.000501164
0.000499539
0.000497977
0.000496473
0.000495018
0.000493604
0.000492225
0.000490873
0.000489541
0.000488225
0.000486919
0.00048562
0.000484324
0.000483029
0.000481733
0.000480436
0.000479136
0.000477835
0.000476531
0.000475227
0.000473922
0.000472617
0.000471314
0.000470013
0.000468716
0.000467422
0.000466134
0.000464851
0.000463575
0.000462306
0.000461044
0.00045979
0.000458544
0.000457306
0.000456076
0.000454855
0.000453643
0.000452439
0.000451244
0.000450058
0.00044888
0.00044771
0.000446549
0.000445396
0.000444251
0.000443114
0.000441985
0.000440864
0.000439751
0.000438645
0.000437546
0.000436456
0.000435372
0.000434295
0.000433226
0.000432163
0.000431107
0.000430059
0.000429016
0.00042798
0.000426951
0.000425928
0.000424912
0.000423902
0.000422898
0.0004219
0.000420909
0.000419924
0.000418944
0.000417971
0.000417004
0.000416043
0.000415087
0.000414138
0.000413194
0.000412256
0.000411325
0.000410398
0.000409478
0.000408563
0.000407653
0.00040675
0.000405851
0.000404958
0.00040407
0.000403187
0.000402308
0.000401435
0.000400566
0.000399701
0.000398841
0.000397985
0.000397132
0.000396284
0.00039544
0.000394599
0.000393763
0.00039293
0.000392102
0.000391277
0.000390457
0.000389641
0.000388829
0.000388022
0.00038722
0.000386422
0.00038563
0.000384844
0.000384064
0.000383291
0.000382526
0.000381769
0.000381021
0.000380284
0.000379559
0.000378847
0.000378148
0.000377465
0.000376797
0.000376147
0.000375514
0.000374899
0.000374303
0.000373726
0.000373167
0.000372625
0.0003721
0.000371591
0.000371095
0.00037061
0.000370135
0.000369666
0.0003692
0.000368734
0.000368264
0.000367787
0.000367298
0.000366795
0.000366272
0.000365727
0.000365155
0.000364555
0.000363922
0.000363256
0.000362554
0.000361816
0.00036104
0.00036023
0.000359383
0.000358506
0.000357597
0.000356664
0.000355708
0.000354734
0.000353747
0.000352751
0.000351752
0.000350753
0.000349759
0.000348774
0.000347801
0.000346843
0.000345903
0.000344982
0.000344081
0.000343201
0.000342342
0.000341505
0.000340688
0.00033989
0.000339111
0.000338348
0.0003376
0.000336868
0.000336145
0.000335437
0.000334731
0.000334042
0.000333347
0.000332671
0.00033198
0.000331313
0.000330623
0.000329962
0.00032927
0.00032861
0.000327916
0.000327253
0.000326559
0.000325888
0.000325198
0.000324515
0.000323832
0.000323138
0.000322457
0.000321758
0.000321076
0.000320379
0.000319689
0.000318998
0.000318301
0.000317616
0.000316918
0.000316232
0.00031554
0.000314849
0.000314165
0.000313474
0.000312793
0.000312107
0.000311425
0.000310748
0.000310067
0.000309395
0.00030872
0.00030805
0.000307384
0.000306717
0.000306059
0.0003054
0.000304746
0.000304099
0.000303452
0.000302817
0.000302182
0.000301558
0.000300943
0.000300334
0.000299742
0.000299157
0.00029859
0.000298041
0.000297507
0.000297
0.000296512
0.000296053
0.000295623
0.00029522
0.000294853
0.000294515
0.000294211
0.00029394
0.000293696
0.000293484
0.00029329
0.000293113
0.000292937
0.000292736
0.000292481
0.000292097
0.000291485
0.000290455
0.000288716
0.000285855
0.000281375
0.000275001
0.000267112
0.000259088
0.000252611
0.000248451
0.00024622
0.000245131
0.000244624
0.000244382
0.000244271
0.000244221
0.000244198
0.000244197
0.000244198
0.000244206
0.000244216
0.000244228
0.000244241
0.000244255
0.000244269
0.000244283
0.000244299
0.000244314
0.00024433
0.000244347
0.000244364
0.000244382
0.000244401
0.00024442
0.000244439
0.00024446
0.000244481
0.000244503
0.000244526
0.000244551
0.000244576
0.000244603
0.000244632
0.000244662
0.000244694
0.000244729
0.000244765
0.000244805
0.000244847
0.000244893
0.000244941
0.000244994
0.000245051
0.000245112
0.000245177
0.000245247
0.000245321
0.000245402
0.000245486
0.000245577
0.000245673
0.000245774
0.000245881
0.000245993
0.000246109
0.000246231
0.000246357
0.000246487
0.000246621
0.000246758
0.000246897
0.000247039
0.000247181
0.000247324
0.000247465
0.000247606
0.000247743
0.000247877
0.000248006
0.00024813
0.000248246
0.000248355
0.000248454
0.000248544
0.000248621
0.000248687
0.000248739
0.000248778
0.000248802
0.000248812
0.000248813
0.000248812
0.000248804
0.000248762
0.000248702
0.00024863
0.000248545
0.00024845
0.000248344
0.000248229
0.000248106
0.000247977
0.000247842
0.000247704
0.000247562
0.00024742
0.000247277
0.000247135
0.000246996
0.00024686
0.000246728
0.000246601
0.000246479
0.000246364
0.000246255
0.000246153
0.000246058
0.00024597
0.000245888
0.000245814
0.000245746
0.000245684
0.000245628
0.000245577
0.000245532
0.000245491
0.000245454
0.000245421
0.000245391
0.000245364
0.00024534
0.000245317
0.000245295
0.000245275
0.000245256
0.000245237
0.000245219
0.0002452
0.000245181
0.000245162
0.000245143
0.000245122
0.000245101
0.00024508
0.000245057
0.000245034
0.00024501
0.000244985
0.000244959
0.000244933
0.000244906
0.000244879
0.00024485
0.000244822
0.000244793
0.000244764
0.000244734
0.000244705
0.000244675
0.000244646
0.000244616
0.000244587
0.000244558
0.00024453
0.000244502
0.000244474
0.000244447
0.00024442
0.000244394
0.000244369
0.000244345
0.000244321
0.000244298
0.000244276
0.000244254
0.000244234
0.000244214
0.000244196
0.000244178
0.000244161
0.000244145
0.00024413
0.000244116
0.000244103
0.00024409
0.000244079
0.000244068
0.000244058
0.000244049
0.000244041
0.000244034
0.000244027
0.000244021
0.000244016
0.000244012
0.000244008
0.000244006
0.000244003
0.000244002
0.000244001
0.000244001
0.000244001
0.000244001
0.000244002
0.000244005
0.000244007
0.000244011
0.000244015
0.000244019
0.000244024
0.00024403
0.000244036
0.000244043
0.00024405
0.000244057
0.000244065
0.000244074
0.000244083
0.000244093
0.000244103
0.000244114
0.000244125
0.000244136
0.000244148
0.000244161
0.000244173
0.000244187
0.000244201
0.000244215
0.000244229
0.000244245
0.00024426
0.000244277
0.000244293
0.00024431
0.000244328
0.000244346
0.000244365
0.000244385
0.000244405
0.000244426
0.000244448
0.000244471
0.000244494
0.000244519
0.000244545
0.000244573
0.000244601
0.000244632
0.000244663
0.000244697
0.000244733
0.000244771
0.000244811
0.000244854
0.000244899
0.000244947
0.000244998
0.000245053
0.00024511
0.000245171
0.000245236
0.000245304
0.000245376
0.000245452
0.000245531
0.000245615
0.000245702
0.000245794
0.000245889
0.000245987
0.000246089
0.000246194
0.000246302
0.000246413
0.000246526
0.00024664
0.000246756
0.000246873
0.00024699
0.000247107
0.000247223
0.000247337
0.000247449
0.000247559
0.000247664
0.000247765
0.000247861
0.000247951
0.000248034
0.000248111
0.000248179
0.000248239
0.000248289
0.00024833
0.000248361
0.000248381
0.00024839
0.000248392
0.000248392
0.000248388
0.000248363
0.00024832
0.000248267
0.000248204
0.000248132
0.000248052
0.000247963
0.000247869
0.000247768
0.000247662
0.000247551
0.000247438
0.000247322
0.000247205
0.000247088
0.000246971
0.000246855
0.000246741
0.00024663
0.000246522
0.000246417
0.000246317
0.000246222
0.000246131
0.000246045
0.000245964
0.000245888
0.000245818
0.000245752
0.000245691
0.000245635
0.000245583
0.000245536
0.000245492
0.000245452
0.000245416
0.000245382
0.000245351
0.000245322
0.000245296
0.000245271
0.000245248
0.000245226
0.000245205
0.000245185
0.000245165
0.000245146
0.000245127
0.000245108
0.000245089
0.000245069
0.00024505
0.00024503
0.00024501
0.00024499
0.000244969
0.000244948
0.000244926
0.000244904
0.000244881
0.000244858
0.000244835
0.000244811
0.000244787
0.000244763
0.000244738
0.000244714
0.000244689
0.000244665
0.00024464
0.000244615
0.000244591
0.000244567
0.000244543
0.000244519
0.000244495
0.000244472
0.00024445
0.000244428
0.000244406
0.000244385
0.000244364
0.000244345
0.000244325
0.000244307
0.000244289
0.000244272
0.000244256
0.00024424
0.000244225
0.000244211
0.000244198
0.000244186
0.000244174
0.000244164
0.000244154
0.000244145
0.000244137
0.000244129
0.000244123
0.000244117
0.000244112
0.000244107
0.000244104
0.000244101
0.000244099
0.000244098
0.000244097
0.000244097
0.000244097
0.000244097
0.000244099
0.000244101
0.000244104
0.000244108
0.000244112
0.000244117
0.000244122
0.000244128
0.000244133
0.00024414
0.000244147
0.000244155
0.000244163
0.000244171
0.00024418
0.000244189
0.000244199
0.000244209
0.000244219
0.00024423
0.000244242
0.000244254
0.000244266
0.000244279
0.000244292
0.000244306
0.00024432
0.000244335
0.00024435
0.000244366
0.000244383
0.0002444
0.000244418
0.000244437
0.000244457
0.000244477
0.000244499
0.000244521
0.000244545
0.00024457
0.000244596
0.000244624
0.000244652
0.000244683
0.000244715
0.000244749
0.000244785
0.000244823
0.000244863
0.000244906
0.00024495
0.000244997
0.000245047
0.0002451
0.000245155
0.000245213
0.000245274
0.000245338
0.000245405
0.000245475
0.000245548
0.000245624
0.000245703
0.000245786
0.00024587
0.000245958
0.000246048
0.000246141
0.000246235
0.000246332
0.00024643
0.00024653
0.000246631
0.000246732
0.000246834
0.000246935
0.000247036
0.000247136
0.000247234
0.000247331
0.000247424
0.000247515
0.000247602
0.000247685
0.000247763
0.000247837
0.000247904
0.000247966
0.000248021
0.000248069
0.000248109
0.000248142
0.000248167
0.000248184
0.000248192
0.000248193
0.000248193
0.00024819
0.000248173
0.00024814
0.000248099
0.00024805
0.000247995
0.000247931
0.000247864
0.000247788
0.00024771
0.000247623
0.000247539
0.000247444
0.000247356
0.000247255
0.000247165
0.000247062
0.000246973
0.000246869
0.000246783
0.000246682
0.000246601
0.000246503
0.000246429
0.000246336
0.000246269
0.000246182
0.000246124
0.000246043
0.000245993
0.00024592
0.000245876
0.00024581
0.000245774
0.000245715
0.000245683
0.000245631
0.000245604
0.000245558
0.000245535
0.000245494
0.000245474
0.000245437
0.000245419
0.000245385
0.000245368
0.000245337
0.000245321
0.000245291
0.000245275
0.000245246
0.000245231
0.000245201
0.000245186
0.000245156
0.000245141
0.00024511
0.000245095
0.000245063
0.000245047
0.000245014
0.000244998
)
;

boundaryField
{
    inlet
    {
        type            calculated;
        value           uniform 0.000236304;
    }
    outlet
    {
        type            calculated;
        value           uniform 0.000244981;
    }
    emptyWalls
    {
        type            empty;
    }
}


// ************************************************************************* //
