/*--------------------------------*- C++ -*----------------------------------*\
  =========                 |
  \\      /  F ield         | OpenFOAM: The Open Source CFD Toolbox
   \\    /   O peration     | Website:  https://openfoam.org
    \\  /    A nd           | Version:  9
     \\/     M anipulation  |
\*---------------------------------------------------------------------------*/
FoamFile
{
    format      ascii;
    class       surfaceScalarField;
    location    "10850";
    object      phic;
}
// * * * * * * * * * * * * * * * * * * * * * * * * * * * * * * * * * * * * * //

dimensions      [0 2 0 0 0 0 0];

internalField   nonuniform List<scalar> 
999
(
5.10036e-15
2.31206e-14
5.41122e-14
9.65884e-14
1.49323e-13
2.1038e-13
2.76981e-13
3.45419e-13
4.12237e-13
4.75316e-13
5.39954e-13
6.45932e-13
9.89871e-13
2.18605e-12
8.27179e-12
1.88975e-11
2.09867e-11
2.17349e-11
2.21709e-11
2.24926e-11
2.27598e-11
2.2996e-11
2.32113e-11
2.34103e-11
2.3595e-11
2.37674e-11
2.39309e-11
2.409e-11
2.42488e-11
2.44101e-11
2.45748e-11
2.47443e-11
2.49256e-11
2.51246e-11
2.53391e-11
2.55723e-11
2.58309e-11
2.61264e-11
2.64756e-11
2.68994e-11
2.74164e-11
2.80315e-11
2.87299e-11
2.94883e-11
3.02879e-11
3.1117e-11
3.19677e-11
3.28353e-11
3.37162e-11
3.46084e-11
3.55103e-11
3.64207e-11
3.73387e-11
3.82637e-11
3.91951e-11
4.01325e-11
4.10754e-11
4.20235e-11
4.29765e-11
4.39342e-11
4.48962e-11
4.58623e-11
4.68325e-11
4.78064e-11
4.87841e-11
4.97652e-11
5.07497e-11
5.17376e-11
5.27287e-11
5.37229e-11
5.47202e-11
5.57204e-11
5.67236e-11
5.77296e-11
5.87384e-11
5.97499e-11
6.07641e-11
6.1781e-11
6.28005e-11
6.38226e-11
6.48471e-11
6.58742e-11
6.69039e-11
6.79359e-11
6.89703e-11
7.00071e-11
7.10463e-11
7.20877e-11
7.31314e-11
7.41774e-11
7.52255e-11
7.62759e-11
7.73283e-11
7.83829e-11
7.94396e-11
8.04984e-11
8.15592e-11
8.2622e-11
8.36869e-11
8.47537e-11
8.58225e-11
8.68932e-11
8.79659e-11
8.90404e-11
9.01169e-11
9.11953e-11
9.22755e-11
9.33576e-11
9.44415e-11
9.55273e-11
9.66148e-11
9.77042e-11
9.87954e-11
9.98884e-11
1.00983e-10
1.0208e-10
1.03178e-10
1.04278e-10
1.05381e-10
1.06484e-10
1.0759e-10
1.08698e-10
1.09807e-10
1.10918e-10
1.12032e-10
1.13146e-10
1.14263e-10
1.15381e-10
1.16501e-10
1.17622e-10
1.18745e-10
1.1987e-10
1.20996e-10
1.22124e-10
1.23254e-10
1.24385e-10
1.25518e-10
1.26652e-10
1.27787e-10
1.28923e-10
1.30059e-10
1.31196e-10
1.32334e-10
1.33471e-10
1.34608e-10
1.35745e-10
1.36883e-10
1.3802e-10
1.39157e-10
1.40295e-10
1.41434e-10
1.42574e-10
1.43715e-10
1.44858e-10
1.46004e-10
1.47152e-10
1.48305e-10
1.49461e-10
1.50622e-10
1.51789e-10
1.52961e-10
1.54139e-10
1.55323e-10
1.56514e-10
1.5771e-10
1.58912e-10
1.6012e-10
1.61331e-10
1.62547e-10
1.63766e-10
1.64988e-10
1.66211e-10
1.67436e-10
1.68661e-10
1.69886e-10
1.71111e-10
1.72336e-10
1.7356e-10
1.74783e-10
1.76006e-10
1.77229e-10
1.78452e-10
1.79674e-10
1.80898e-10
1.82121e-10
1.83346e-10
1.84572e-10
1.858e-10
1.8703e-10
1.88261e-10
1.89495e-10
1.9073e-10
1.91969e-10
1.93209e-10
1.94452e-10
1.95698e-10
1.96946e-10
1.98197e-10
1.9945e-10
2.00706e-10
2.01964e-10
2.03224e-10
2.04487e-10
2.05753e-10
2.0702e-10
2.0829e-10
2.09562e-10
2.10837e-10
2.12114e-10
2.13392e-10
2.14674e-10
2.15957e-10
2.17242e-10
2.1853e-10
2.1982e-10
2.21112e-10
2.22406e-10
2.23702e-10
2.25001e-10
2.26302e-10
2.27605e-10
2.2891e-10
2.30218e-10
2.31527e-10
2.32839e-10
2.34154e-10
2.35471e-10
2.36789e-10
2.38111e-10
2.39434e-10
2.40761e-10
2.42089e-10
2.4342e-10
2.44753e-10
2.46089e-10
2.47427e-10
2.48767e-10
2.50111e-10
2.51456e-10
2.52804e-10
2.54155e-10
2.55508e-10
2.56864e-10
2.58222e-10
2.59583e-10
2.60946e-10
2.62313e-10
2.63681e-10
2.65053e-10
2.66427e-10
2.67804e-10
2.69183e-10
2.70565e-10
2.7195e-10
2.73338e-10
2.74728e-10
2.76122e-10
2.77518e-10
2.78917e-10
2.80318e-10
2.81723e-10
2.83131e-10
2.84541e-10
2.85955e-10
2.87371e-10
2.88791e-10
2.90213e-10
2.91639e-10
2.93068e-10
2.945e-10
2.95935e-10
2.97373e-10
2.98815e-10
3.00259e-10
3.01708e-10
3.03159e-10
3.04614e-10
3.06072e-10
3.07534e-10
3.08999e-10
3.10467e-10
3.11939e-10
3.13414e-10
3.14893e-10
3.16375e-10
3.1786e-10
3.19349e-10
3.20841e-10
3.22337e-10
3.23835e-10
3.25337e-10
3.26842e-10
3.28351e-10
3.29862e-10
3.31375e-10
3.32892e-10
3.34411e-10
3.35932e-10
3.37456e-10
3.38982e-10
3.4051e-10
3.42041e-10
3.43574e-10
3.45109e-10
3.46647e-10
3.48187e-10
3.4973e-10
3.51275e-10
3.52824e-10
3.54377e-10
3.55933e-10
3.57494e-10
3.5906e-10
3.60631e-10
3.62208e-10
3.63792e-10
3.65382e-10
3.6698e-10
3.68586e-10
3.70201e-10
3.71824e-10
3.73458e-10
3.75101e-10
3.76755e-10
3.78419e-10
3.80094e-10
3.81779e-10
3.83476e-10
3.85182e-10
3.86899e-10
3.88626e-10
3.90362e-10
3.92107e-10
3.93861e-10
3.95622e-10
3.97391e-10
3.99167e-10
4.00949e-10
4.02737e-10
4.0453e-10
4.06329e-10
4.08132e-10
4.0994e-10
4.11752e-10
4.1357e-10
4.15391e-10
4.17218e-10
4.19049e-10
4.20886e-10
4.22728e-10
4.24575e-10
4.26428e-10
4.28288e-10
4.30154e-10
4.32028e-10
4.33908e-10
4.35796e-10
4.37692e-10
4.39596e-10
4.41508e-10
4.4343e-10
4.45361e-10
4.47301e-10
4.49251e-10
4.5121e-10
4.5318e-10
4.55159e-10
4.57149e-10
4.5915e-10
4.61162e-10
4.63184e-10
4.65218e-10
4.67263e-10
4.69319e-10
4.71387e-10
4.73465e-10
4.75557e-10
4.7766e-10
4.79775e-10
4.81902e-10
4.84042e-10
4.86194e-10
4.88359e-10
4.90536e-10
4.92725e-10
4.94928e-10
4.97145e-10
4.99373e-10
5.01615e-10
5.0387e-10
5.06137e-10
5.08417e-10
5.10709e-10
5.13015e-10
5.15332e-10
5.1766e-10
5.19999e-10
5.22347e-10
5.24704e-10
5.27067e-10
5.29436e-10
5.31808e-10
5.34179e-10
5.36546e-10
5.38904e-10
5.41248e-10
5.43572e-10
5.45869e-10
5.48131e-10
5.50347e-10
5.52508e-10
5.54603e-10
5.56621e-10
5.58549e-10
5.60379e-10
5.62098e-10
5.63698e-10
5.65171e-10
5.66514e-10
5.67727e-10
5.68812e-10
5.6978e-10
5.70646e-10
5.71437e-10
5.722e-10
5.73014e-10
5.74008e-10
5.75411e-10
5.77613e-10
5.81286e-10
5.87568e-10
5.98294e-10
6.16189e-10
6.44638e-10
6.86391e-10
7.40812e-10
8.01449e-10
8.57834e-10
9.01684e-10
9.3103e-10
9.4865e-10
9.58521e-10
9.63832e-10
9.66624e-10
9.68074e-10
9.68821e-10
9.69203e-10
9.69396e-10
9.69492e-10
9.69538e-10
9.69558e-10
9.69565e-10
9.69564e-10
9.6956e-10
9.69554e-10
9.69547e-10
9.69539e-10
9.69531e-10
9.69522e-10
9.69513e-10
9.69503e-10
9.69494e-10
9.69483e-10
9.69473e-10
9.69462e-10
9.6945e-10
9.69438e-10
9.69426e-10
9.69413e-10
9.69399e-10
9.69384e-10
9.69369e-10
9.69353e-10
9.69335e-10
9.69316e-10
9.69296e-10
9.69275e-10
9.69252e-10
9.69227e-10
9.692e-10
9.69171e-10
9.6914e-10
9.69107e-10
9.69072e-10
9.69034e-10
9.68993e-10
9.6895e-10
9.68904e-10
9.68855e-10
9.68803e-10
9.68749e-10
9.68692e-10
9.68632e-10
9.6857e-10
9.68505e-10
9.68438e-10
9.68369e-10
9.68298e-10
9.68226e-10
9.68153e-10
9.68079e-10
9.68005e-10
9.67931e-10
9.67858e-10
9.67786e-10
9.67715e-10
9.67647e-10
9.67582e-10
9.67519e-10
9.67461e-10
9.67408e-10
9.67359e-10
9.67316e-10
9.67279e-10
9.67249e-10
9.67226e-10
9.67211e-10
9.67203e-10
9.67201e-10
9.67201e-10
9.67204e-10
9.67217e-10
9.67247e-10
9.67282e-10
9.67324e-10
9.67372e-10
9.67426e-10
9.67484e-10
9.67547e-10
9.67614e-10
9.67684e-10
9.67756e-10
9.6783e-10
9.67905e-10
9.67981e-10
9.68056e-10
9.6813e-10
9.68203e-10
9.68274e-10
9.68342e-10
9.68408e-10
9.68471e-10
9.6853e-10
9.68586e-10
9.68638e-10
9.68687e-10
9.68732e-10
9.68773e-10
9.68811e-10
9.68845e-10
9.68876e-10
9.68904e-10
9.6893e-10
9.68953e-10
9.68973e-10
9.68992e-10
9.69008e-10
9.69023e-10
9.69037e-10
9.6905e-10
9.69061e-10
9.69072e-10
9.69083e-10
9.69093e-10
9.69102e-10
9.69112e-10
9.69122e-10
9.69132e-10
9.69142e-10
9.69152e-10
9.69163e-10
9.69174e-10
9.69186e-10
9.69197e-10
9.6921e-10
9.69223e-10
9.69236e-10
9.69249e-10
9.69263e-10
9.69277e-10
9.69292e-10
9.69306e-10
9.69321e-10
9.69336e-10
9.69351e-10
9.69367e-10
9.69382e-10
9.69397e-10
9.69412e-10
9.69428e-10
9.69443e-10
9.69458e-10
9.69472e-10
9.69487e-10
9.69501e-10
9.69515e-10
9.69529e-10
9.69542e-10
9.69555e-10
9.69567e-10
9.69579e-10
9.69591e-10
9.69602e-10
9.69613e-10
9.69623e-10
9.69633e-10
9.69643e-10
9.69652e-10
9.6966e-10
9.69668e-10
9.69676e-10
9.69683e-10
9.6969e-10
9.69696e-10
9.69702e-10
9.69707e-10
9.69712e-10
9.69717e-10
9.69721e-10
9.69724e-10
9.69728e-10
9.69731e-10
9.69733e-10
9.69735e-10
9.69737e-10
9.69738e-10
9.69739e-10
9.6974e-10
9.6974e-10
9.6974e-10
9.6974e-10
9.6974e-10
9.69739e-10
9.69738e-10
9.69736e-10
9.69734e-10
9.69732e-10
9.69729e-10
9.69727e-10
9.69723e-10
9.6972e-10
9.69717e-10
9.69713e-10
9.69708e-10
9.69704e-10
9.69699e-10
9.69695e-10
9.69689e-10
9.69684e-10
9.69679e-10
9.69673e-10
9.69667e-10
9.6966e-10
9.69654e-10
9.69647e-10
9.6964e-10
9.69633e-10
9.69625e-10
9.69618e-10
9.6961e-10
9.69602e-10
9.69593e-10
9.69585e-10
9.69576e-10
9.69566e-10
9.69557e-10
9.69547e-10
9.69536e-10
9.69525e-10
9.69514e-10
9.69502e-10
9.69489e-10
9.69476e-10
9.69463e-10
9.69448e-10
9.69433e-10
9.69417e-10
9.694e-10
9.69382e-10
9.69363e-10
9.69343e-10
9.69322e-10
9.693e-10
9.69276e-10
9.69251e-10
9.69224e-10
9.69196e-10
9.69167e-10
9.69135e-10
9.69102e-10
9.69067e-10
9.6903e-10
9.68991e-10
9.6895e-10
9.68907e-10
9.68862e-10
9.68815e-10
9.68766e-10
9.68716e-10
9.68663e-10
9.68609e-10
9.68553e-10
9.68496e-10
9.68437e-10
9.68378e-10
9.68317e-10
9.68256e-10
9.68195e-10
9.68134e-10
9.68073e-10
9.68013e-10
9.67953e-10
9.67896e-10
9.67839e-10
9.67785e-10
9.67734e-10
9.67685e-10
9.6764e-10
9.67598e-10
9.6756e-10
9.67527e-10
9.67498e-10
9.67474e-10
9.67455e-10
9.67442e-10
9.67435e-10
9.67432e-10
9.67431e-10
9.67433e-10
9.67438e-10
9.67458e-10
9.67484e-10
9.67514e-10
9.6755e-10
9.6759e-10
9.67634e-10
9.67682e-10
9.67733e-10
9.67788e-10
9.67844e-10
9.67903e-10
9.67963e-10
9.68025e-10
9.68086e-10
9.68148e-10
9.68209e-10
9.68269e-10
9.68328e-10
9.68386e-10
9.68442e-10
9.68496e-10
9.68547e-10
9.68596e-10
9.68643e-10
9.68686e-10
9.68728e-10
9.68766e-10
9.68802e-10
9.68835e-10
9.68866e-10
9.68895e-10
9.68921e-10
9.68945e-10
9.68967e-10
9.68987e-10
9.69005e-10
9.69022e-10
9.69038e-10
9.69053e-10
9.69066e-10
9.69079e-10
9.69091e-10
9.69102e-10
9.69113e-10
9.69123e-10
9.69134e-10
9.69144e-10
9.69154e-10
9.69164e-10
9.69174e-10
9.69184e-10
9.69194e-10
9.69205e-10
9.69215e-10
9.69226e-10
9.69237e-10
9.69249e-10
9.6926e-10
9.69272e-10
9.69284e-10
9.69296e-10
9.69308e-10
9.69321e-10
9.69333e-10
9.69346e-10
9.69359e-10
9.69372e-10
9.69385e-10
9.69398e-10
9.69411e-10
9.69424e-10
9.69436e-10
9.69449e-10
9.69462e-10
9.69474e-10
9.69486e-10
9.69498e-10
9.6951e-10
9.69521e-10
9.69533e-10
9.69544e-10
9.69554e-10
9.69565e-10
9.69574e-10
9.69584e-10
9.69593e-10
9.69602e-10
9.6961e-10
9.69618e-10
9.69626e-10
9.69633e-10
9.6964e-10
9.69646e-10
9.69652e-10
9.69657e-10
9.69662e-10
9.69667e-10
9.69671e-10
9.69674e-10
9.69678e-10
9.69681e-10
9.69683e-10
9.69685e-10
9.69687e-10
9.69688e-10
9.69689e-10
9.69689e-10
9.6969e-10
9.6969e-10
9.6969e-10
9.69689e-10
9.69688e-10
9.69687e-10
9.69685e-10
9.69683e-10
9.69681e-10
9.69678e-10
9.69675e-10
9.69672e-10
9.69669e-10
9.69665e-10
9.69661e-10
9.69657e-10
9.69653e-10
9.69649e-10
9.69644e-10
9.69639e-10
9.69634e-10
9.69629e-10
9.69623e-10
9.69617e-10
9.69611e-10
9.69605e-10
9.69598e-10
9.69591e-10
9.69584e-10
9.69577e-10
9.69569e-10
9.69561e-10
9.69553e-10
9.69544e-10
9.69535e-10
9.69526e-10
9.69516e-10
9.69506e-10
9.69495e-10
9.69484e-10
9.69472e-10
9.6946e-10
9.69447e-10
9.69433e-10
9.69419e-10
9.69404e-10
9.69388e-10
9.69372e-10
9.69354e-10
9.69335e-10
9.69316e-10
9.69295e-10
9.69274e-10
9.69251e-10
9.69226e-10
9.69201e-10
9.69174e-10
9.69145e-10
9.69116e-10
9.69084e-10
9.69051e-10
9.69017e-10
9.68981e-10
9.68943e-10
9.68904e-10
9.68863e-10
9.68821e-10
9.68777e-10
9.68732e-10
9.68685e-10
9.68637e-10
9.68588e-10
9.68538e-10
9.68487e-10
9.68435e-10
9.68382e-10
9.68329e-10
9.68276e-10
9.68223e-10
9.6817e-10
9.68117e-10
9.68065e-10
9.68014e-10
9.67965e-10
9.67916e-10
9.6787e-10
9.67825e-10
9.67783e-10
9.67743e-10
9.67706e-10
9.67673e-10
9.67642e-10
9.67615e-10
9.67592e-10
9.67573e-10
9.67557e-10
9.67547e-10
9.6754e-10
9.67538e-10
9.67537e-10
9.67538e-10
9.67542e-10
9.67557e-10
9.67576e-10
9.676e-10
9.67627e-10
9.67658e-10
9.67692e-10
9.6773e-10
9.6777e-10
9.67813e-10
9.67858e-10
9.67905e-10
9.67954e-10
9.68003e-10
9.68053e-10
9.68104e-10
9.68154e-10
9.68205e-10
9.68255e-10
9.68304e-10
9.68352e-10
9.68399e-10
9.68444e-10
9.68488e-10
9.6853e-10
9.6857e-10
9.68608e-10
9.68645e-10
9.68679e-10
9.68712e-10
9.68742e-10
9.68771e-10
9.68798e-10
9.68823e-10
9.68846e-10
9.68868e-10
9.68889e-10
9.68908e-10
9.68927e-10
9.68943e-10
9.6896e-10
9.68975e-10
9.68989e-10
9.69003e-10
9.69016e-10
9.69029e-10
9.69041e-10
9.69053e-10
9.69065e-10
9.69077e-10
9.69089e-10
9.691e-10
9.69112e-10
9.69124e-10
9.69136e-10
9.69148e-10
9.6916e-10
9.69173e-10
9.69185e-10
9.69198e-10
9.69211e-10
)
;

boundaryField
{
    inlet
    {
        type            calculated;
        value           uniform 0;
    }
    outlet
    {
        type            calculated;
        value           uniform 9.69224e-10;
    }
    emptyWalls
    {
        type            empty;
        value           nonuniform List<scalar> 0();
    }
}


// ************************************************************************* //
