/*--------------------------------*- C++ -*----------------------------------*\
  =========                 |
  \\      /  F ield         | OpenFOAM: The Open Source CFD Toolbox
   \\    /   O peration     | Website:  https://openfoam.org
    \\  /    A nd           | Version:  9
     \\/     M anipulation  |
\*---------------------------------------------------------------------------*/
FoamFile
{
    format      ascii;
    class       volScalarField;
    location    "64000";
    object      krc;
}
// * * * * * * * * * * * * * * * * * * * * * * * * * * * * * * * * * * * * * //

dimensions      [0 0 0 0 0 0 0];

internalField   nonuniform List<scalar> 
100
(
1.15394e-24
1.55526e-25
1.66231e-25
1.78549e-25
8.28051e-26
1.2444e-25
2.46149e-26
5.18803e-27
1.20484e-25
1.20375e-25
1.89049e-25
1.94939e-26
8.55381e-26
1.5596e-25
8.87359e-26
8.8549e-26
6.32075e-26
5.32463e-27
1.49032e-25
2.26289e-25
2.59125e-26
1.07759e-25
1.80528e-26
1.14617e-25
5.35424e-26
1.50612e-25
2.43447e-26
2.73896e-25
1.77377e-26
3.12911e-25
7.55924e-27
1.58075e-25
4.43653e-25
5.67093e-25
1.37971e-25
1.00588e-24
7.44975e-25
7.3727e-25
5.97037e-25
6.82772e-25
9.13317e-25
2.50889e-24
3.62975e-24
1.55875e-24
3.58829e-24
3.23235e-24
2.82042e-24
5.94461e-24
2.99442e-24
2.66366e-24
4.1933e-24
3.66904e-24
4.6335e-24
1.80707e-24
1.54291e-24
2.7831e-24
7.81597e-25
4.2329e-25
1.4581e-24
9.51367e-25
5.49147e-25
2.43949e-25
8.45765e-26
8.11418e-26
3.17992e-26
5.03258e-25
8.89689e-27
4.06502e-25
2.2073e-26
5.13136e-26
2.43949e-25
3.63081e-25
5.22145e-25
1.92154e-24
4.64196e-24
8.11754e-24
1.73363e-23
3.04472e-23
5.94062e-23
7.91197e-23
1.33244e-22
1.79511e-22
2.95473e-22
4.52978e-22
6.55348e-22
9.69377e-22
1.44187e-21
1.9807e-21
2.84331e-21
3.97645e-21
5.70096e-21
7.69696e-21
1.21119e-20
1.45158e-20
3.34456e-21
6.4348e-20
5.38406e-18
2.48005e-17
6.09209e-16
4.04561e-15
)
;

boundaryField
{
    inlet
    {
        type            calculated;
        value           uniform 1.15394e-24;
    }
    outlet
    {
        type            calculated;
        value           uniform 4.04561e-15;
    }
    emptyWalls
    {
        type            empty;
    }
}


// ************************************************************************* //
