/*--------------------------------*- C++ -*----------------------------------*\
  =========                 |
  \\      /  F ield         | OpenFOAM: The Open Source CFD Toolbox
   \\    /   O peration     | Website:  https://openfoam.org
    \\  /    A nd           | Version:  9
     \\/     M anipulation  |
\*---------------------------------------------------------------------------*/
FoamFile
{
    format      ascii;
    class       volVectorField;
    location    "10450";
    object      Ua;
}
// * * * * * * * * * * * * * * * * * * * * * * * * * * * * * * * * * * * * * //

dimensions      [0 0 0 0 0 0 0];

internalField   nonuniform List<vector> 
1000
(
(2.74878e-06 0 0)
(2.7481e-06 0 0)
(2.74759e-06 0 0)
(2.74689e-06 0 0)
(2.74601e-06 0 0)
(2.74497e-06 0 0)
(2.74372e-06 0 0)
(2.74236e-06 0 0)
(2.74088e-06 0 0)
(2.73955e-06 0 0)
(2.73778e-06 0 0)
(2.73477e-06 0 0)
(2.72518e-06 0 0)
(2.68315e-06 0 0)
(2.45793e-06 0 0)
(2.20965e-06 0 0)
(2.13687e-06 0 0)
(2.11418e-06 0 0)
(2.10245e-06 0 0)
(2.09444e-06 0 0)
(2.08819e-06 0 0)
(2.08297e-06 0 0)
(2.07848e-06 0 0)
(2.07456e-06 0 0)
(2.07114e-06 0 0)
(2.06812e-06 0 0)
(2.06542e-06 0 0)
(2.06298e-06 0 0)
(2.06078e-06 0 0)
(2.05876e-06 0 0)
(2.05688e-06 0 0)
(2.05511e-06 0 0)
(2.0534e-06 0 0)
(2.05182e-06 0 0)
(2.05036e-06 0 0)
(2.04902e-06 0 0)
(2.04779e-06 0 0)
(2.0467e-06 0 0)
(2.04582e-06 0 0)
(2.04525e-06 0 0)
(2.045e-06 0 0)
(2.0449e-06 0 0)
(2.04482e-06 0 0)
(2.04474e-06 0 0)
(2.04466e-06 0 0)
(2.04458e-06 0 0)
(2.04448e-06 0 0)
(2.04437e-06 0 0)
(2.04424e-06 0 0)
(2.04411e-06 0 0)
(2.04395e-06 0 0)
(2.04377e-06 0 0)
(2.04357e-06 0 0)
(2.04336e-06 0 0)
(2.04316e-06 0 0)
(2.04299e-06 0 0)
(2.04287e-06 0 0)
(2.04282e-06 0 0)
(2.04285e-06 0 0)
(2.04293e-06 0 0)
(2.04302e-06 0 0)
(2.0431e-06 0 0)
(2.04315e-06 0 0)
(2.04321e-06 0 0)
(2.04334e-06 0 0)
(2.04365e-06 0 0)
(2.04424e-06 0 0)
(2.04517e-06 0 0)
(2.04651e-06 0 0)
(2.04823e-06 0 0)
(2.0503e-06 0 0)
(2.05266e-06 0 0)
(2.05524e-06 0 0)
(2.05793e-06 0 0)
(2.06067e-06 0 0)
(2.06337e-06 0 0)
(2.06593e-06 0 0)
(2.06826e-06 0 0)
(2.07025e-06 0 0)
(2.07178e-06 0 0)
(2.07277e-06 0 0)
(2.0731e-06 0 0)
(2.07271e-06 0 0)
(2.07157e-06 0 0)
(2.06969e-06 0 0)
(2.06712e-06 0 0)
(2.06397e-06 0 0)
(2.06037e-06 0 0)
(2.05647e-06 0 0)
(2.05243e-06 0 0)
(2.04842e-06 0 0)
(2.04458e-06 0 0)
(2.04103e-06 0 0)
(2.03787e-06 0 0)
(2.03513e-06 0 0)
(2.03286e-06 0 0)
(2.03104e-06 0 0)
(2.02965e-06 0 0)
(2.02864e-06 0 0)
(2.02796e-06 0 0)
(2.02754e-06 0 0)
(2.02732e-06 0 0)
(2.02723e-06 0 0)
(2.02723e-06 0 0)
(2.02725e-06 0 0)
(2.02728e-06 0 0)
(2.02726e-06 0 0)
(2.02719e-06 0 0)
(2.02704e-06 0 0)
(2.02682e-06 0 0)
(2.02651e-06 0 0)
(2.02613e-06 0 0)
(2.02568e-06 0 0)
(2.02516e-06 0 0)
(2.02459e-06 0 0)
(2.02397e-06 0 0)
(2.02331e-06 0 0)
(2.02263e-06 0 0)
(2.02192e-06 0 0)
(2.0212e-06 0 0)
(2.02047e-06 0 0)
(2.01974e-06 0 0)
(2.01901e-06 0 0)
(2.01828e-06 0 0)
(2.01756e-06 0 0)
(2.01684e-06 0 0)
(2.01614e-06 0 0)
(2.01545e-06 0 0)
(2.01477e-06 0 0)
(2.0141e-06 0 0)
(2.01344e-06 0 0)
(2.01279e-06 0 0)
(2.01215e-06 0 0)
(2.01153e-06 0 0)
(2.01091e-06 0 0)
(2.01031e-06 0 0)
(2.00972e-06 0 0)
(2.00913e-06 0 0)
(2.00856e-06 0 0)
(2.008e-06 0 0)
(2.00744e-06 0 0)
(2.0069e-06 0 0)
(2.00636e-06 0 0)
(2.00584e-06 0 0)
(2.00532e-06 0 0)
(2.00481e-06 0 0)
(2.00431e-06 0 0)
(2.00382e-06 0 0)
(2.00333e-06 0 0)
(2.00285e-06 0 0)
(2.00238e-06 0 0)
(2.00191e-06 0 0)
(2.00145e-06 0 0)
(2.001e-06 0 0)
(2.00056e-06 0 0)
(2.00012e-06 0 0)
(1.99969e-06 0 0)
(1.99926e-06 0 0)
(1.99884e-06 0 0)
(1.99844e-06 0 0)
(1.99803e-06 0 0)
(1.99764e-06 0 0)
(1.99725e-06 0 0)
(1.99687e-06 0 0)
(1.9965e-06 0 0)
(1.99614e-06 0 0)
(1.99578e-06 0 0)
(1.99544e-06 0 0)
(1.9951e-06 0 0)
(1.99477e-06 0 0)
(1.99445e-06 0 0)
(1.99413e-06 0 0)
(1.99383e-06 0 0)
(1.99353e-06 0 0)
(1.99324e-06 0 0)
(1.99295e-06 0 0)
(1.99267e-06 0 0)
(1.9924e-06 0 0)
(1.99212e-06 0 0)
(1.99186e-06 0 0)
(1.99159e-06 0 0)
(1.99132e-06 0 0)
(1.99105e-06 0 0)
(1.99078e-06 0 0)
(1.99051e-06 0 0)
(1.99024e-06 0 0)
(1.98998e-06 0 0)
(1.98971e-06 0 0)
(1.98946e-06 0 0)
(1.9892e-06 0 0)
(1.98896e-06 0 0)
(1.98872e-06 0 0)
(1.9885e-06 0 0)
(1.98828e-06 0 0)
(1.98807e-06 0 0)
(1.98788e-06 0 0)
(1.9877e-06 0 0)
(1.98755e-06 0 0)
(1.98742e-06 0 0)
(1.98732e-06 0 0)
(1.98726e-06 0 0)
(1.98725e-06 0 0)
(1.9873e-06 0 0)
(1.98743e-06 0 0)
(1.98763e-06 0 0)
(1.98793e-06 0 0)
(1.98834e-06 0 0)
(1.98885e-06 0 0)
(1.98947e-06 0 0)
(1.99022e-06 0 0)
(1.99108e-06 0 0)
(1.99206e-06 0 0)
(1.99314e-06 0 0)
(1.99432e-06 0 0)
(1.99558e-06 0 0)
(1.99691e-06 0 0)
(1.99828e-06 0 0)
(1.99967e-06 0 0)
(2.00106e-06 0 0)
(2.00241e-06 0 0)
(2.00369e-06 0 0)
(2.00487e-06 0 0)
(2.00593e-06 0 0)
(2.00681e-06 0 0)
(2.0075e-06 0 0)
(2.00797e-06 0 0)
(2.00819e-06 0 0)
(2.00815e-06 0 0)
(2.00783e-06 0 0)
(2.00722e-06 0 0)
(2.00633e-06 0 0)
(2.00518e-06 0 0)
(2.00376e-06 0 0)
(2.00211e-06 0 0)
(2.00027e-06 0 0)
(1.99826e-06 0 0)
(1.99612e-06 0 0)
(1.99389e-06 0 0)
(1.99162e-06 0 0)
(1.98935e-06 0 0)
(1.9871e-06 0 0)
(1.98492e-06 0 0)
(1.98283e-06 0 0)
(1.98086e-06 0 0)
(1.97902e-06 0 0)
(1.97732e-06 0 0)
(1.97578e-06 0 0)
(1.97438e-06 0 0)
(1.97313e-06 0 0)
(1.97203e-06 0 0)
(1.97106e-06 0 0)
(1.9702e-06 0 0)
(1.96946e-06 0 0)
(1.96881e-06 0 0)
(1.96823e-06 0 0)
(1.96772e-06 0 0)
(1.96726e-06 0 0)
(1.96684e-06 0 0)
(1.96644e-06 0 0)
(1.96606e-06 0 0)
(1.96568e-06 0 0)
(1.96529e-06 0 0)
(1.9649e-06 0 0)
(1.9645e-06 0 0)
(1.96407e-06 0 0)
(1.96362e-06 0 0)
(1.96315e-06 0 0)
(1.96266e-06 0 0)
(1.96214e-06 0 0)
(1.9616e-06 0 0)
(1.96104e-06 0 0)
(1.96045e-06 0 0)
(1.95985e-06 0 0)
(1.95923e-06 0 0)
(1.95859e-06 0 0)
(1.95794e-06 0 0)
(1.95728e-06 0 0)
(1.9566e-06 0 0)
(1.95592e-06 0 0)
(1.95524e-06 0 0)
(1.95455e-06 0 0)
(1.95385e-06 0 0)
(1.95316e-06 0 0)
(1.95246e-06 0 0)
(1.95177e-06 0 0)
(1.95108e-06 0 0)
(1.95039e-06 0 0)
(1.94971e-06 0 0)
(1.94904e-06 0 0)
(1.94837e-06 0 0)
(1.94771e-06 0 0)
(1.94705e-06 0 0)
(1.94641e-06 0 0)
(1.94577e-06 0 0)
(1.94514e-06 0 0)
(1.94453e-06 0 0)
(1.94392e-06 0 0)
(1.94332e-06 0 0)
(1.94273e-06 0 0)
(1.94215e-06 0 0)
(1.94157e-06 0 0)
(1.94101e-06 0 0)
(1.94045e-06 0 0)
(1.93991e-06 0 0)
(1.93937e-06 0 0)
(1.93883e-06 0 0)
(1.93831e-06 0 0)
(1.93779e-06 0 0)
(1.93727e-06 0 0)
(1.93676e-06 0 0)
(1.93626e-06 0 0)
(1.93576e-06 0 0)
(1.93526e-06 0 0)
(1.93477e-06 0 0)
(1.93428e-06 0 0)
(1.9338e-06 0 0)
(1.93332e-06 0 0)
(1.93284e-06 0 0)
(1.93237e-06 0 0)
(1.9319e-06 0 0)
(1.93143e-06 0 0)
(1.93097e-06 0 0)
(1.93051e-06 0 0)
(1.93006e-06 0 0)
(1.92961e-06 0 0)
(1.92916e-06 0 0)
(1.92872e-06 0 0)
(1.92828e-06 0 0)
(1.92785e-06 0 0)
(1.92742e-06 0 0)
(1.927e-06 0 0)
(1.92658e-06 0 0)
(1.92617e-06 0 0)
(1.92576e-06 0 0)
(1.92536e-06 0 0)
(1.92496e-06 0 0)
(1.92457e-06 0 0)
(1.92418e-06 0 0)
(1.9238e-06 0 0)
(1.92342e-06 0 0)
(1.92304e-06 0 0)
(1.92267e-06 0 0)
(1.9223e-06 0 0)
(1.92194e-06 0 0)
(1.92158e-06 0 0)
(1.92122e-06 0 0)
(1.92086e-06 0 0)
(1.92051e-06 0 0)
(1.92016e-06 0 0)
(1.91981e-06 0 0)
(1.91947e-06 0 0)
(1.91912e-06 0 0)
(1.91878e-06 0 0)
(1.91845e-06 0 0)
(1.91811e-06 0 0)
(1.91778e-06 0 0)
(1.91745e-06 0 0)
(1.91713e-06 0 0)
(1.91681e-06 0 0)
(1.9165e-06 0 0)
(1.91619e-06 0 0)
(1.91589e-06 0 0)
(1.9156e-06 0 0)
(1.91532e-06 0 0)
(1.91505e-06 0 0)
(1.9148e-06 0 0)
(1.91456e-06 0 0)
(1.91434e-06 0 0)
(1.91414e-06 0 0)
(1.91396e-06 0 0)
(1.91382e-06 0 0)
(1.9137e-06 0 0)
(1.91361e-06 0 0)
(1.91356e-06 0 0)
(1.91356e-06 0 0)
(1.91359e-06 0 0)
(1.91367e-06 0 0)
(1.9138e-06 0 0)
(1.91398e-06 0 0)
(1.91421e-06 0 0)
(1.91449e-06 0 0)
(1.91482e-06 0 0)
(1.91521e-06 0 0)
(1.91564e-06 0 0)
(1.91613e-06 0 0)
(1.91666e-06 0 0)
(1.91723e-06 0 0)
(1.91784e-06 0 0)
(1.91848e-06 0 0)
(1.91914e-06 0 0)
(1.91982e-06 0 0)
(1.92051e-06 0 0)
(1.92121e-06 0 0)
(1.9219e-06 0 0)
(1.92257e-06 0 0)
(1.92321e-06 0 0)
(1.92383e-06 0 0)
(1.92439e-06 0 0)
(1.92491e-06 0 0)
(1.92536e-06 0 0)
(1.92574e-06 0 0)
(1.92604e-06 0 0)
(1.92625e-06 0 0)
(1.92637e-06 0 0)
(1.92638e-06 0 0)
(1.92629e-06 0 0)
(1.92609e-06 0 0)
(1.92577e-06 0 0)
(1.92532e-06 0 0)
(1.92474e-06 0 0)
(1.92402e-06 0 0)
(1.92311e-06 0 0)
(1.92198e-06 0 0)
(1.92053e-06 0 0)
(1.91861e-06 0 0)
(1.91594e-06 0 0)
(1.91218e-06 0 0)
(1.90692e-06 0 0)
(1.89997e-06 0 0)
(1.89175e-06 0 0)
(1.88349e-06 0 0)
(1.87663e-06 0 0)
(1.87183e-06 0 0)
(1.86875e-06 0 0)
(1.86674e-06 0 0)
(1.86531e-06 0 0)
(1.86416e-06 0 0)
(1.86319e-06 0 0)
(1.86233e-06 0 0)
(1.86155e-06 0 0)
(1.86085e-06 0 0)
(1.86021e-06 0 0)
(1.85963e-06 0 0)
(1.85911e-06 0 0)
(1.85864e-06 0 0)
(1.85823e-06 0 0)
(1.85786e-06 0 0)
(1.85754e-06 0 0)
(1.85726e-06 0 0)
(1.85701e-06 0 0)
(1.85679e-06 0 0)
(1.85661e-06 0 0)
(1.85644e-06 0 0)
(1.8563e-06 0 0)
(1.85617e-06 0 0)
(1.85606e-06 0 0)
(1.85595e-06 0 0)
(1.85585e-06 0 0)
(1.85576e-06 0 0)
(1.85567e-06 0 0)
(1.85557e-06 0 0)
(1.85548e-06 0 0)
(1.85538e-06 0 0)
(1.85527e-06 0 0)
(1.85516e-06 0 0)
(1.85504e-06 0 0)
(1.85492e-06 0 0)
(1.85479e-06 0 0)
(1.85465e-06 0 0)
(1.8545e-06 0 0)
(1.85434e-06 0 0)
(1.85418e-06 0 0)
(1.85401e-06 0 0)
(1.85384e-06 0 0)
(1.85366e-06 0 0)
(1.85347e-06 0 0)
(1.85328e-06 0 0)
(1.85308e-06 0 0)
(1.85288e-06 0 0)
(1.85268e-06 0 0)
(1.85248e-06 0 0)
(1.85227e-06 0 0)
(1.85206e-06 0 0)
(1.85186e-06 0 0)
(1.85165e-06 0 0)
(1.85145e-06 0 0)
(1.85124e-06 0 0)
(1.85104e-06 0 0)
(1.85084e-06 0 0)
(1.85065e-06 0 0)
(1.85046e-06 0 0)
(1.85027e-06 0 0)
(1.85009e-06 0 0)
(1.84991e-06 0 0)
(1.84974e-06 0 0)
(1.84957e-06 0 0)
(1.8494e-06 0 0)
(1.84925e-06 0 0)
(1.8491e-06 0 0)
(1.84895e-06 0 0)
(1.84881e-06 0 0)
(1.84868e-06 0 0)
(1.84855e-06 0 0)
(1.84843e-06 0 0)
(1.84832e-06 0 0)
(1.84821e-06 0 0)
(1.84811e-06 0 0)
(1.84801e-06 0 0)
(1.84792e-06 0 0)
(1.84784e-06 0 0)
(1.84777e-06 0 0)
(1.84769e-06 0 0)
(1.84763e-06 0 0)
(1.84757e-06 0 0)
(1.84752e-06 0 0)
(1.84747e-06 0 0)
(1.84742e-06 0 0)
(1.84739e-06 0 0)
(1.84735e-06 0 0)
(1.84733e-06 0 0)
(1.8473e-06 0 0)
(1.84728e-06 0 0)
(1.84727e-06 0 0)
(1.84726e-06 0 0)
(1.84726e-06 0 0)
(1.84726e-06 0 0)
(1.84726e-06 0 0)
(1.84726e-06 0 0)
(1.84727e-06 0 0)
(1.84728e-06 0 0)
(1.8473e-06 0 0)
(1.84733e-06 0 0)
(1.84735e-06 0 0)
(1.84738e-06 0 0)
(1.84742e-06 0 0)
(1.84746e-06 0 0)
(1.8475e-06 0 0)
(1.84754e-06 0 0)
(1.84759e-06 0 0)
(1.84764e-06 0 0)
(1.84769e-06 0 0)
(1.84775e-06 0 0)
(1.84781e-06 0 0)
(1.84788e-06 0 0)
(1.84794e-06 0 0)
(1.84802e-06 0 0)
(1.84809e-06 0 0)
(1.84817e-06 0 0)
(1.84825e-06 0 0)
(1.84833e-06 0 0)
(1.84842e-06 0 0)
(1.8485e-06 0 0)
(1.8486e-06 0 0)
(1.84869e-06 0 0)
(1.84879e-06 0 0)
(1.84889e-06 0 0)
(1.84899e-06 0 0)
(1.8491e-06 0 0)
(1.84921e-06 0 0)
(1.84932e-06 0 0)
(1.84944e-06 0 0)
(1.84956e-06 0 0)
(1.84968e-06 0 0)
(1.84981e-06 0 0)
(1.84994e-06 0 0)
(1.85007e-06 0 0)
(1.85021e-06 0 0)
(1.85035e-06 0 0)
(1.8505e-06 0 0)
(1.85066e-06 0 0)
(1.85082e-06 0 0)
(1.85099e-06 0 0)
(1.85117e-06 0 0)
(1.85136e-06 0 0)
(1.85156e-06 0 0)
(1.85176e-06 0 0)
(1.85198e-06 0 0)
(1.85222e-06 0 0)
(1.85247e-06 0 0)
(1.85273e-06 0 0)
(1.85301e-06 0 0)
(1.85332e-06 0 0)
(1.85364e-06 0 0)
(1.85398e-06 0 0)
(1.85435e-06 0 0)
(1.85474e-06 0 0)
(1.85515e-06 0 0)
(1.8556e-06 0 0)
(1.85607e-06 0 0)
(1.85657e-06 0 0)
(1.85709e-06 0 0)
(1.85765e-06 0 0)
(1.85824e-06 0 0)
(1.85886e-06 0 0)
(1.85951e-06 0 0)
(1.86019e-06 0 0)
(1.8609e-06 0 0)
(1.86164e-06 0 0)
(1.8624e-06 0 0)
(1.86318e-06 0 0)
(1.86399e-06 0 0)
(1.86481e-06 0 0)
(1.86565e-06 0 0)
(1.8665e-06 0 0)
(1.86735e-06 0 0)
(1.86821e-06 0 0)
(1.86907e-06 0 0)
(1.86992e-06 0 0)
(1.87075e-06 0 0)
(1.87157e-06 0 0)
(1.87236e-06 0 0)
(1.87312e-06 0 0)
(1.87385e-06 0 0)
(1.87453e-06 0 0)
(1.87516e-06 0 0)
(1.87574e-06 0 0)
(1.87626e-06 0 0)
(1.87671e-06 0 0)
(1.87709e-06 0 0)
(1.8774e-06 0 0)
(1.87763e-06 0 0)
(1.87777e-06 0 0)
(1.87784e-06 0 0)
(1.87786e-06 0 0)
(1.87786e-06 0 0)
(1.8778e-06 0 0)
(1.87759e-06 0 0)
(1.87723e-06 0 0)
(1.8768e-06 0 0)
(1.87631e-06 0 0)
(1.87574e-06 0 0)
(1.87511e-06 0 0)
(1.87442e-06 0 0)
(1.87369e-06 0 0)
(1.87291e-06 0 0)
(1.87209e-06 0 0)
(1.87125e-06 0 0)
(1.87039e-06 0 0)
(1.86952e-06 0 0)
(1.86864e-06 0 0)
(1.86777e-06 0 0)
(1.8669e-06 0 0)
(1.86605e-06 0 0)
(1.86523e-06 0 0)
(1.86443e-06 0 0)
(1.86365e-06 0 0)
(1.86292e-06 0 0)
(1.86222e-06 0 0)
(1.86156e-06 0 0)
(1.86094e-06 0 0)
(1.86036e-06 0 0)
(1.85982e-06 0 0)
(1.85932e-06 0 0)
(1.85886e-06 0 0)
(1.85844e-06 0 0)
(1.85806e-06 0 0)
(1.85772e-06 0 0)
(1.8574e-06 0 0)
(1.85712e-06 0 0)
(1.85687e-06 0 0)
(1.85664e-06 0 0)
(1.85643e-06 0 0)
(1.85624e-06 0 0)
(1.85607e-06 0 0)
(1.85592e-06 0 0)
(1.85578e-06 0 0)
(1.85564e-06 0 0)
(1.85552e-06 0 0)
(1.8554e-06 0 0)
(1.85529e-06 0 0)
(1.85518e-06 0 0)
(1.85507e-06 0 0)
(1.85496e-06 0 0)
(1.85485e-06 0 0)
(1.85474e-06 0 0)
(1.85463e-06 0 0)
(1.85451e-06 0 0)
(1.85439e-06 0 0)
(1.85426e-06 0 0)
(1.85413e-06 0 0)
(1.854e-06 0 0)
(1.85386e-06 0 0)
(1.85372e-06 0 0)
(1.85357e-06 0 0)
(1.85342e-06 0 0)
(1.85327e-06 0 0)
(1.85311e-06 0 0)
(1.85295e-06 0 0)
(1.85279e-06 0 0)
(1.85263e-06 0 0)
(1.85246e-06 0 0)
(1.85229e-06 0 0)
(1.85212e-06 0 0)
(1.85195e-06 0 0)
(1.85178e-06 0 0)
(1.85161e-06 0 0)
(1.85144e-06 0 0)
(1.85127e-06 0 0)
(1.85111e-06 0 0)
(1.85094e-06 0 0)
(1.85078e-06 0 0)
(1.85061e-06 0 0)
(1.85046e-06 0 0)
(1.8503e-06 0 0)
(1.85015e-06 0 0)
(1.85e-06 0 0)
(1.84985e-06 0 0)
(1.84971e-06 0 0)
(1.84957e-06 0 0)
(1.84944e-06 0 0)
(1.84931e-06 0 0)
(1.84919e-06 0 0)
(1.84907e-06 0 0)
(1.84896e-06 0 0)
(1.84886e-06 0 0)
(1.84875e-06 0 0)
(1.84866e-06 0 0)
(1.84857e-06 0 0)
(1.84849e-06 0 0)
(1.84841e-06 0 0)
(1.84833e-06 0 0)
(1.84827e-06 0 0)
(1.84821e-06 0 0)
(1.84815e-06 0 0)
(1.8481e-06 0 0)
(1.84806e-06 0 0)
(1.84802e-06 0 0)
(1.84799e-06 0 0)
(1.84796e-06 0 0)
(1.84794e-06 0 0)
(1.84792e-06 0 0)
(1.84791e-06 0 0)
(1.8479e-06 0 0)
(1.8479e-06 0 0)
(1.8479e-06 0 0)
(1.8479e-06 0 0)
(1.8479e-06 0 0)
(1.84791e-06 0 0)
(1.84793e-06 0 0)
(1.84795e-06 0 0)
(1.84798e-06 0 0)
(1.84801e-06 0 0)
(1.84804e-06 0 0)
(1.84807e-06 0 0)
(1.84811e-06 0 0)
(1.84815e-06 0 0)
(1.8482e-06 0 0)
(1.84825e-06 0 0)
(1.8483e-06 0 0)
(1.84835e-06 0 0)
(1.84841e-06 0 0)
(1.84847e-06 0 0)
(1.84853e-06 0 0)
(1.84859e-06 0 0)
(1.84866e-06 0 0)
(1.84873e-06 0 0)
(1.8488e-06 0 0)
(1.84888e-06 0 0)
(1.84895e-06 0 0)
(1.84904e-06 0 0)
(1.84912e-06 0 0)
(1.84921e-06 0 0)
(1.8493e-06 0 0)
(1.84939e-06 0 0)
(1.84949e-06 0 0)
(1.84959e-06 0 0)
(1.84969e-06 0 0)
(1.8498e-06 0 0)
(1.84991e-06 0 0)
(1.85002e-06 0 0)
(1.85014e-06 0 0)
(1.85027e-06 0 0)
(1.8504e-06 0 0)
(1.85054e-06 0 0)
(1.85068e-06 0 0)
(1.85083e-06 0 0)
(1.85098e-06 0 0)
(1.85115e-06 0 0)
(1.85132e-06 0 0)
(1.8515e-06 0 0)
(1.85169e-06 0 0)
(1.8519e-06 0 0)
(1.85211e-06 0 0)
(1.85234e-06 0 0)
(1.85258e-06 0 0)
(1.85283e-06 0 0)
(1.8531e-06 0 0)
(1.85338e-06 0 0)
(1.85369e-06 0 0)
(1.85401e-06 0 0)
(1.85435e-06 0 0)
(1.8547e-06 0 0)
(1.85508e-06 0 0)
(1.85548e-06 0 0)
(1.85591e-06 0 0)
(1.85635e-06 0 0)
(1.85682e-06 0 0)
(1.85731e-06 0 0)
(1.85782e-06 0 0)
(1.85836e-06 0 0)
(1.85892e-06 0 0)
(1.8595e-06 0 0)
(1.8601e-06 0 0)
(1.86073e-06 0 0)
(1.86137e-06 0 0)
(1.86203e-06 0 0)
(1.86271e-06 0 0)
(1.86341e-06 0 0)
(1.86412e-06 0 0)
(1.86484e-06 0 0)
(1.86556e-06 0 0)
(1.86629e-06 0 0)
(1.86703e-06 0 0)
(1.86776e-06 0 0)
(1.86848e-06 0 0)
(1.8692e-06 0 0)
(1.86991e-06 0 0)
(1.87059e-06 0 0)
(1.87126e-06 0 0)
(1.8719e-06 0 0)
(1.87252e-06 0 0)
(1.8731e-06 0 0)
(1.87364e-06 0 0)
(1.87414e-06 0 0)
(1.87459e-06 0 0)
(1.875e-06 0 0)
(1.87535e-06 0 0)
(1.87565e-06 0 0)
(1.87589e-06 0 0)
(1.87607e-06 0 0)
(1.87619e-06 0 0)
(1.87624e-06 0 0)
(1.87626e-06 0 0)
(1.87625e-06 0 0)
(1.87622e-06 0 0)
(1.87606e-06 0 0)
(1.87579e-06 0 0)
(1.87547e-06 0 0)
(1.87509e-06 0 0)
(1.87466e-06 0 0)
(1.87417e-06 0 0)
(1.87365e-06 0 0)
(1.87308e-06 0 0)
(1.87247e-06 0 0)
(1.87183e-06 0 0)
(1.87117e-06 0 0)
(1.87049e-06 0 0)
(1.86979e-06 0 0)
(1.86908e-06 0 0)
(1.86837e-06 0 0)
(1.86766e-06 0 0)
(1.86696e-06 0 0)
(1.86627e-06 0 0)
(1.86559e-06 0 0)
(1.86493e-06 0 0)
(1.86429e-06 0 0)
(1.86367e-06 0 0)
(1.86308e-06 0 0)
(1.86252e-06 0 0)
(1.86198e-06 0 0)
(1.86148e-06 0 0)
(1.861e-06 0 0)
(1.86055e-06 0 0)
(1.86014e-06 0 0)
(1.85975e-06 0 0)
(1.85939e-06 0 0)
(1.85905e-06 0 0)
(1.85874e-06 0 0)
(1.85845e-06 0 0)
(1.85819e-06 0 0)
(1.85795e-06 0 0)
(1.85772e-06 0 0)
(1.85751e-06 0 0)
(1.85731e-06 0 0)
(1.85713e-06 0 0)
(1.85696e-06 0 0)
(1.8568e-06 0 0)
(1.85664e-06 0 0)
(1.8565e-06 0 0)
(1.85635e-06 0 0)
(1.85621e-06 0 0)
(1.85608e-06 0 0)
(1.85594e-06 0 0)
(1.8558e-06 0 0)
(1.85567e-06 0 0)
(1.85553e-06 0 0)
(1.85539e-06 0 0)
(1.85525e-06 0 0)
(1.85511e-06 0 0)
(1.85496e-06 0 0)
(1.85481e-06 0 0)
(1.85466e-06 0 0)
(1.8545e-06 0 0)
(1.85434e-06 0 0)
(1.85418e-06 0 0)
(1.85401e-06 0 0)
(1.85385e-06 0 0)
(1.85367e-06 0 0)
(1.8535e-06 0 0)
(1.85332e-06 0 0)
(1.85314e-06 0 0)
(1.85296e-06 0 0)
(1.85278e-06 0 0)
(1.8526e-06 0 0)
(1.85241e-06 0 0)
(1.85223e-06 0 0)
(1.85204e-06 0 0)
(1.85186e-06 0 0)
(1.85167e-06 0 0)
(1.85148e-06 0 0)
(1.8513e-06 0 0)
(1.85112e-06 0 0)
(1.85093e-06 0 0)
(1.85075e-06 0 0)
(1.85057e-06 0 0)
(1.8504e-06 0 0)
(1.85022e-06 0 0)
(1.85005e-06 0 0)
(1.84988e-06 0 0)
(1.84972e-06 0 0)
(1.84956e-06 0 0)
(1.8494e-06 0 0)
(1.84924e-06 0 0)
(1.84909e-06 0 0)
(1.84895e-06 0 0)
(1.84881e-06 0 0)
(1.84867e-06 0 0)
(1.84854e-06 0 0)
(1.84841e-06 0 0)
(1.84829e-06 0 0)
(1.84817e-06 0 0)
(1.84806e-06 0 0)
(1.84796e-06 0 0)
(1.84786e-06 0 0)
(1.84777e-06 0 0)
(1.84768e-06 0 0)
(1.8476e-06 0 0)
(1.84752e-06 0 0)
(1.84745e-06 0 0)
(1.84739e-06 0 0)
(1.84734e-06 0 0)
(1.84729e-06 0 0)
(1.84724e-06 0 0)
(1.8472e-06 0 0)
(1.84717e-06 0 0)
(1.84715e-06 0 0)
(1.84713e-06 0 0)
(1.84712e-06 0 0)
(1.84711e-06 0 0)
(1.84711e-06 0 0)
(1.8471e-06 0 0)
(1.84711e-06 0 0)
(1.84712e-06 0 0)
(1.84714e-06 0 0)
(1.84717e-06 0 0)
(1.8472e-06 0 0)
(1.84723e-06 0 0)
(1.84728e-06 0 0)
(1.84732e-06 0 0)
(1.84738e-06 0 0)
(1.84743e-06 0 0)
(1.8475e-06 0 0)
(1.84756e-06 0 0)
(1.84763e-06 0 0)
(1.84771e-06 0 0)
(1.84779e-06 0 0)
(1.84787e-06 0 0)
(1.84796e-06 0 0)
(1.84806e-06 0 0)
(1.84815e-06 0 0)
(1.84826e-06 0 0)
(1.84836e-06 0 0)
(1.84848e-06 0 0)
(1.84859e-06 0 0)
(1.84871e-06 0 0)
(1.84884e-06 0 0)
(1.84897e-06 0 0)
(1.84911e-06 0 0)
(1.84925e-06 0 0)
(1.8494e-06 0 0)
(1.84956e-06 0 0)
(1.84972e-06 0 0)
(1.84988e-06 0 0)
(1.85006e-06 0 0)
(1.85025e-06 0 0)
(1.85044e-06 0 0)
(1.85064e-06 0 0)
(1.85085e-06 0 0)
(1.85108e-06 0 0)
(1.85131e-06 0 0)
(1.85155e-06 0 0)
(1.85181e-06 0 0)
(1.85208e-06 0 0)
(1.85236e-06 0 0)
(1.85266e-06 0 0)
(1.85297e-06 0 0)
(1.8533e-06 0 0)
(1.85364e-06 0 0)
(1.854e-06 0 0)
(1.85437e-06 0 0)
(1.85476e-06 0 0)
(1.85517e-06 0 0)
(1.8556e-06 0 0)
(1.85605e-06 0 0)
(1.85651e-06 0 0)
(1.857e-06 0 0)
(1.8575e-06 0 0)
(1.85802e-06 0 0)
(1.85855e-06 0 0)
(1.85911e-06 0 0)
)
;

boundaryField
{
    inlet
    {
        type            fixedValue;
        value           uniform (2.74882e-06 0 0);
    }
    outlet
    {
        type            zeroGradient;
    }
    emptyWalls
    {
        type            empty;
    }
}


// ************************************************************************* //
