/*--------------------------------*- C++ -*----------------------------------*\
  =========                 |
  \\      /  F ield         | OpenFOAM: The Open Source CFD Toolbox
   \\    /   O peration     | Website:  https://openfoam.org
    \\  /    A nd           | Version:  9
     \\/     M anipulation  |
\*---------------------------------------------------------------------------*/
FoamFile
{
    format      ascii;
    class       volScalarField;
    location    "5700";
    object      krb;
}
// * * * * * * * * * * * * * * * * * * * * * * * * * * * * * * * * * * * * * //

dimensions      [0 0 0 0 0 0 0];

internalField   nonuniform List<scalar> 
1000
(
0.0987868
0.100432
0.102934
0.104539
0.106646
0.109879
0.120267
0.186119
0.426792
0.49343
0.512303
0.5207
0.525279
0.527954
0.529505
0.530347
0.530763
0.530735
0.530203
0.528722
0.525819
0.521073
0.51502
0.508494
0.501808
0.495121
0.488519
0.482045
0.475722
0.46956
0.463561
0.457725
0.452048
0.446525
0.441151
0.435921
0.430828
0.425868
0.421034
0.416322
0.411726
0.407242
0.402865
0.398591
0.394415
0.390334
0.386344
0.38244
0.378621
0.374882
0.371221
0.367635
0.36412
0.360675
0.357297
0.353983
0.350731
0.347539
0.344405
0.341327
0.338303
0.335331
0.33241
0.329538
0.326713
0.323935
0.321202
0.318511
0.315863
0.313256
0.310689
0.30816
0.305668
0.303213
0.300794
0.298409
0.296057
0.293739
0.291452
0.289195
0.286969
0.284772
0.282604
0.280463
0.278349
0.276262
0.274199
0.272162
0.270149
0.26816
0.266194
0.26425
0.262329
0.260429
0.258551
0.256692
0.254854
0.253034
0.251233
0.24945
0.247685
0.245936
0.244204
0.242488
0.240788
0.239104
0.237436
0.235783
0.234146
0.232524
0.230918
0.229327
0.227752
0.226192
0.224647
0.223118
0.221605
0.220106
0.218622
0.217154
0.215699
0.214258
0.21283
0.211415
0.210011
0.208619
0.207237
0.205865
0.204502
0.203148
0.201803
0.200465
0.199135
0.197812
0.196497
0.19519
0.193889
0.192596
0.19131
0.190031
0.18876
0.187496
0.186239
0.184989
0.183747
0.182512
0.181284
0.180063
0.178849
0.177642
0.176441
0.175246
0.174058
0.172876
0.171699
0.170529
0.169364
0.168205
0.16705
0.165901
0.164757
0.163618
0.162483
0.161353
0.160227
0.159105
0.157988
0.156874
0.155764
0.154657
0.153554
0.152455
0.151358
0.150265
0.149174
0.148087
0.147001
0.145918
0.144837
0.143759
0.142682
0.141607
0.140534
0.139462
0.138392
0.137322
0.136254
0.135187
0.134121
0.133055
0.131989
0.130923
0.129858
0.128793
0.127727
0.126661
0.125595
0.124528
0.123461
0.122393
0.121324
0.120254
0.119185
0.118115
0.117047
0.115979
0.114914
0.113853
0.112798
0.111752
0.110719
0.109703
0.108708
0.107741
0.106808
0.105915
0.105067
0.104265
0.103506
0.102775
0.10204
0.101239
0.10026
0.098908
0.0968688
0.0936742
0.0887405
0.0815908
0.072327
0.0620496
0.0525391
0.0451836
0.0402875
0.037361
0.0357275
0.0348513
0.0343915
0.034153
0.03403
0.0339669
0.0339346
0.0339181
0.0339096
0.0339052
0.0339029
0.0339017
0.033901
0.0339006
0.0339004
0.0339003
0.0339002
0.0339001
0.0339
0.0338999
0.0338998
0.0338997
0.0338997
0.0338996
0.0338995
0.0338994
0.0338993
0.0338992
0.0338991
0.033899
0.0338989
0.0338988
0.0338987
0.0338986
0.0338985
0.0338983
0.0338982
0.033898
0.0338979
0.0338978
0.0338976
0.0338974
0.0338973
0.0338971
0.0338969
0.0338967
0.0338964
0.0338962
0.0338959
0.0338956
0.0338953
0.033895
0.0338946
0.0338942
0.0338938
0.0338934
0.0338929
0.0338924
0.0338919
0.0338914
0.0338909
0.0338904
0.0338899
0.0338894
0.0338889
0.0338884
0.0338879
0.0338874
0.033887
0.0338866
0.0338863
0.033886
0.0338857
0.0338855
0.0338854
0.0338854
0.0338853
0.0338852
0.0338853
0.0338855
0.0338858
0.0338861
0.0338864
0.0338868
0.0338873
0.0338877
0.0338882
0.0338887
0.0338893
0.0338898
0.0338902
0.0338907
0.0338911
0.0338915
0.0338919
0.0338922
0.0338925
0.0338928
0.033893
0.0338931
0.0338932
0.0338933
0.0338933
0.0338933
0.0338933
0.0338932
0.0338931
0.0338931
0.033893
0.0338929
0.0338927
0.0338926
0.0338924
0.0338923
0.0338921
0.033892
0.0338919
0.0338917
0.0338916
0.0338915
0.0338915
0.0338914
0.0338913
0.0338913
0.0338912
0.0338912
0.0338911
0.0338911
0.0338911
0.0338911
0.0338911
0.0338912
0.0338912
0.0338913
0.0338913
0.0338914
0.0338914
0.0338915
0.0338916
0.0338916
0.0338917
0.0338918
0.0338919
0.033892
0.0338921
0.0338922
0.0338923
0.0338924
0.0338926
0.0338927
0.0338928
0.0338929
0.0338931
0.0338932
0.0338933
0.0338934
0.0338936
0.0338937
0.0338938
0.033894
0.0338941
0.0338942
0.0338944
0.0338945
0.0338946
0.0338947
0.0338949
0.033895
0.0338951
0.0338952
0.0338953
0.0338954
0.0338955
0.0338956
0.0338957
0.0338958
0.0338959
0.0338959
0.033896
0.0338961
0.0338962
0.0338962
0.0338963
0.0338963
0.0338964
0.0338964
0.0338964
0.0338965
0.0338965
0.0338965
0.0338965
0.0338965
0.0338966
0.0338966
0.0338966
0.0338966
0.0338966
0.0338966
0.0338966
0.0338966
0.0338966
0.0338966
0.0338966
0.0338966
0.0338966
0.0338966
0.0338966
0.0338966
0.0338966
0.0338965
0.0338965
0.0338965
0.0338965
0.0338965
0.0338965
0.0338964
0.0338964
0.0338964
0.0338964
0.0338963
0.0338963
0.0338962
0.0338962
0.0338961
0.0338961
0.033896
0.0338959
0.0338959
0.0338958
0.0338957
0.0338956
0.0338955
0.0338954
0.0338952
0.0338951
0.033895
0.0338949
0.0338947
0.0338946
0.0338944
0.0338943
0.0338942
0.033894
0.0338939
0.0338937
0.0338935
0.0338934
0.0338932
0.0338931
0.033893
0.0338928
0.0338927
0.0338926
0.0338925
0.0338923
0.0338922
0.033892
0.0338918
0.0338916
0.0338914
0.0338912
0.0338909
0.0338907
0.0338904
0.0338901
0.0338898
0.0338895
0.0338891
0.0338887
0.0338883
0.0338878
0.0338874
0.033887
0.0338866
0.0338862
0.0338858
0.0338853
0.033885
0.0338846
0.0338842
0.0338839
0.0338836
0.0338833
0.0338831
0.033883
0.0338828
0.0338828
0.0338827
0.0338827
0.0338827
0.0338827
0.0338829
0.0338831
0.0338834
0.0338837
0.0338841
0.0338845
0.0338849
0.0338853
0.0338858
0.0338863
0.0338868
0.0338873
0.0338878
0.0338883
0.0338888
0.0338893
0.0338897
0.0338902
0.0338905
0.0338909
0.0338912
0.0338916
0.0338918
0.0338921
0.0338923
0.0338924
0.0338926
0.0338927
0.0338928
0.0338929
0.033893
0.033893
0.0338931
0.0338931
0.0338931
0.0338931
0.0338931
0.0338931
0.0338931
0.0338931
0.0338931
0.0338931
0.0338931
0.0338931
0.0338931
0.0338931
0.0338931
0.0338931
0.0338931
0.0338931
0.0338931
0.0338932
0.0338932
0.0338933
0.0338933
0.0338934
0.0338934
0.0338935
0.0338935
0.0338936
0.0338936
0.0338937
0.0338938
0.0338938
0.0338939
0.033894
0.0338941
0.0338941
0.0338942
0.0338943
0.0338943
0.0338944
0.0338945
0.0338946
0.0338946
0.0338947
0.0338948
0.0338948
0.0338949
0.033895
0.0338951
0.0338952
0.0338952
0.0338953
0.0338954
0.0338954
0.0338955
0.0338956
0.0338956
0.0338957
0.0338958
0.0338958
0.0338959
0.033896
0.033896
0.0338961
0.0338962
0.0338962
0.0338963
0.0338963
0.0338964
0.0338964
0.0338965
0.0338965
0.0338966
0.0338966
0.0338966
0.0338967
0.0338967
0.0338967
0.0338967
0.0338968
0.0338968
0.0338968
0.0338968
0.0338968
0.0338968
0.0338968
0.0338968
0.0338968
0.0338969
0.0338969
0.0338969
0.0338969
0.0338968
0.0338968
0.0338968
0.0338968
0.0338967
0.0338967
0.0338967
0.0338967
0.0338967
0.0338966
0.0338966
0.0338966
0.0338965
0.0338965
0.0338965
0.0338965
0.0338964
0.0338964
0.0338964
0.0338963
0.0338963
0.0338962
0.0338962
0.0338961
0.0338961
0.0338961
0.033896
0.033896
0.0338959
0.0338958
0.0338958
0.0338957
0.0338957
0.0338956
0.0338956
0.0338955
0.0338954
0.0338953
0.0338952
0.0338951
0.033895
0.0338949
0.0338948
0.0338947
0.0338946
0.0338944
0.0338943
0.0338941
0.0338939
0.0338937
0.0338935
0.0338933
0.0338931
0.0338929
0.0338926
0.0338923
0.0338921
0.0338918
0.0338915
0.0338912
0.0338908
0.0338905
0.0338902
0.0338898
0.0338894
0.033889
0.0338887
0.0338883
0.0338879
0.0338875
0.0338872
0.0338868
0.0338864
0.033886
0.0338857
0.0338854
0.0338851
0.0338848
0.0338845
0.0338843
0.0338841
0.0338839
0.0338838
0.0338837
0.0338836
0.0338836
0.0338836
0.0338836
0.0338836
0.0338838
0.033884
0.0338842
0.0338844
0.0338847
0.0338851
0.0338854
0.0338858
0.0338862
0.0338866
0.0338871
0.0338875
0.033888
0.0338884
0.0338889
0.0338893
0.0338897
0.0338901
0.0338905
0.0338909
0.0338912
0.0338916
0.0338919
0.0338922
0.0338924
0.0338926
0.0338928
0.033893
0.0338932
0.0338933
0.0338934
0.0338935
0.0338936
0.0338937
0.0338937
0.0338937
0.0338938
0.0338938
0.0338938
0.0338938
0.0338938
0.0338938
0.0338938
0.0338938
0.0338938
0.0338938
0.0338938
0.0338938
0.0338938
0.0338938
0.0338938
0.0338938
0.0338938
0.0338938
0.0338938
0.0338939
0.0338939
0.0338939
0.0338939
0.0338939
0.033894
0.033894
0.033894
0.033894
0.033894
0.0338941
0.0338941
0.0338941
0.0338942
0.0338942
0.0338942
0.0338942
0.0338942
0.0338942
0.0338943
0.0338943
0.0338943
0.0338944
0.0338944
0.0338944
0.0338944
0.0338944
0.0338945
0.0338945
0.0338945
0.0338946
0.0338946
0.0338946
0.0338946
0.0338946
0.0338947
0.0338947
0.0338948
0.0338948
0.0338949
0.0338949
0.0338949
0.0338949
0.033895
0.033895
0.0338951
0.0338952
0.0338952
0.0338953
0.0338953
0.0338954
0.0338954
0.0338954
0.0338955
0.0338956
0.0338956
0.0338957
0.0338958
0.0338958
0.0338959
0.0338959
0.0338959
0.033896
0.033896
0.0338961
0.0338962
0.0338962
0.0338962
0.0338962
0.0338963
0.0338963
0.0338963
0.0338964
0.0338964
0.0338964
0.0338964
0.0338964
0.0338964
0.0338964
0.0338964
0.0338964
0.0338964
0.0338964
0.0338963
0.0338963
0.0338963
0.0338963
0.0338963
0.0338962
0.0338962
0.0338961
0.0338961
0.033896
0.033896
0.033896
0.0338959
0.0338958
0.0338958
0.0338957
0.0338957
0.0338956
0.0338955
0.0338954
0.0338954
0.0338953
0.0338953
0.0338951
0.0338951
0.033895
0.033895
0.0338948
0.0338947
0.0338946
0.0338945
0.0338944
0.0338943
0.0338941
0.033894
0.0338938
0.0338937
0.0338935
0.0338933
0.033893
0.0338929
0.0338927
0.0338924
0.0338921
0.0338919
0.0338916
0.0338913
0.033891
0.0338908
0.0338903
0.03389
0.0338898
0.0338894
0.0338888
0.0338887
0.0338888
0.0338919
0.0339057
0.0341199
0.034936
0.0351505
0.0351561
0.0351562
0.0351562
0.0351562
0.0351562
0.0351562
0.0351562
0.0351563
0.0351563
0.0351563
0.0351563
0.0351563
0.0351563
0.0351562
0.0351562
0.0351563
0.0351563
0.0351563
0.0351563
0.0351563
0.0351563
0.0351563
0.0351563
0.0351563
0.0351563
0.0351563
0.0351563
0.0351563
0.0351563
0.0351563
0.0351563
0.0351563
0.0351563
0.0351563
0.0351563
0.0351563
0.0351563
0.0351563
0.0351563
0.0351563
0.0351563
0.0351563
0.0351563
0.0351563
0.0351563
0.0351563
0.0351563
0.0351563
0.0351563
0.0351563
0.0351563
0.0351563
0.0351563
0.0351563
0.0351563
0.0351563
0.0351563
0.0351562
0.0351562
0.0351562
0.0351562
0.0351562
0.0351562
)
;

boundaryField
{
    inlet
    {
        type            calculated;
        value           uniform 0.0976562;
    }
    outlet
    {
        type            calculated;
        value           uniform 0.0351562;
    }
    emptyWalls
    {
        type            empty;
    }
}


// ************************************************************************* //
