/*--------------------------------*- C++ -*----------------------------------*\
  =========                 |
  \\      /  F ield         | OpenFOAM: The Open Source CFD Toolbox
   \\    /   O peration     | Website:  https://openfoam.org
    \\  /    A nd           | Version:  9
     \\/     M anipulation  |
\*---------------------------------------------------------------------------*/
FoamFile
{
    format      ascii;
    class       surfaceScalarField;
    location    "2450";
    object      phia;
}
// * * * * * * * * * * * * * * * * * * * * * * * * * * * * * * * * * * * * * //

dimensions      [0 2 0 0 0 0 0];

internalField   nonuniform List<scalar> 
999
(
2.74683e-10
2.7157e-10
2.551e-10
2.16189e-10
2.09775e-10
2.07511e-10
2.06272e-10
2.05333e-10
2.04819e-10
2.04727e-10
2.04611e-10
2.04482e-10
2.04349e-10
2.04222e-10
2.04101e-10
2.03977e-10
2.03837e-10
2.03678e-10
2.03508e-10
2.03346e-10
2.03218e-10
2.0315e-10
2.03156e-10
2.03246e-10
2.03416e-10
2.03656e-10
2.03955e-10
2.043e-10
2.04677e-10
2.05072e-10
2.0547e-10
2.05851e-10
2.062e-10
2.06499e-10
2.06731e-10
2.06882e-10
2.06937e-10
2.06882e-10
2.067e-10
2.06378e-10
2.05904e-10
2.05276e-10
2.04502e-10
2.03602e-10
2.02609e-10
2.01562e-10
2.00507e-10
1.99488e-10
1.98543e-10
1.97703e-10
1.96985e-10
1.964e-10
1.95945e-10
1.95611e-10
1.95386e-10
1.9525e-10
1.95184e-10
1.95169e-10
1.95186e-10
1.9522e-10
1.95257e-10
1.95287e-10
1.95302e-10
1.95295e-10
1.95265e-10
1.95209e-10
1.95129e-10
1.95026e-10
1.94901e-10
1.94758e-10
1.94599e-10
1.94427e-10
1.94243e-10
1.94052e-10
1.93854e-10
1.93651e-10
1.93443e-10
1.93232e-10
1.93019e-10
1.92804e-10
1.92586e-10
1.92368e-10
1.92147e-10
1.91925e-10
1.91702e-10
1.91478e-10
1.91254e-10
1.91031e-10
1.90807e-10
1.90584e-10
1.90356e-10
1.90117e-10
1.89849e-10
1.89524e-10
1.89097e-10
1.88521e-10
1.87776e-10
1.86928e-10
1.86142e-10
1.85571e-10
1.85233e-10
1.85056e-10
1.84963e-10
1.84909e-10
1.84874e-10
1.84848e-10
1.84827e-10
1.84809e-10
1.84792e-10
1.84777e-10
1.84763e-10
1.8475e-10
1.84737e-10
1.84725e-10
1.84713e-10
1.84701e-10
1.8469e-10
1.84679e-10
1.84668e-10
1.84657e-10
1.84647e-10
1.84639e-10
1.84632e-10
1.84628e-10
1.84626e-10
1.84625e-10
1.84625e-10
1.84626e-10
1.84632e-10
1.84642e-10
1.84653e-10
1.84667e-10
1.84683e-10
1.847e-10
1.84719e-10
1.84739e-10
1.8476e-10
1.84782e-10
1.84804e-10
1.84827e-10
1.84849e-10
1.84872e-10
1.84894e-10
1.84915e-10
1.84936e-10
1.84956e-10
1.84975e-10
1.84994e-10
1.85011e-10
1.85026e-10
1.85041e-10
1.85053e-10
1.85064e-10
1.85073e-10
1.8508e-10
1.85084e-10
1.85086e-10
1.85086e-10
1.85086e-10
1.85085e-10
1.85079e-10
1.85069e-10
1.85058e-10
1.85044e-10
1.85028e-10
1.85011e-10
1.84992e-10
1.84972e-10
1.84951e-10
1.8493e-10
1.84909e-10
1.84887e-10
1.84867e-10
1.84847e-10
1.84828e-10
1.84811e-10
1.84795e-10
1.84782e-10
1.8477e-10
1.84761e-10
1.84755e-10
1.8475e-10
1.84748e-10
1.84748e-10
1.84748e-10
1.84749e-10
1.84756e-10
1.84765e-10
1.84776e-10
1.84788e-10
1.84802e-10
1.84818e-10
1.84835e-10
1.84854e-10
1.84874e-10
1.84896e-10
1.84919e-10
1.84945e-10
1.84974e-10
1.85005e-10
1.8504e-10
1.85079e-10
1.85123e-10
1.85172e-10
1.85228e-10
1.85291e-10
1.85363e-10
1.85443e-10
1.85534e-10
1.85635e-10
1.85747e-10
1.85871e-10
1.86008e-10
1.86157e-10
1.86319e-10
1.86493e-10
1.8668e-10
1.86878e-10
1.87088e-10
1.87307e-10
1.87534e-10
1.87768e-10
1.88007e-10
1.88248e-10
1.88489e-10
1.88726e-10
1.88956e-10
1.89175e-10
1.89377e-10
1.8956e-10
1.89716e-10
1.8984e-10
1.89925e-10
1.89968e-10
1.89981e-10
1.89982e-10
1.89962e-10
1.89866e-10
1.89647e-10
1.8937e-10
1.89031e-10
1.88632e-10
1.88179e-10
1.8768e-10
1.87144e-10
1.86583e-10
1.86009e-10
1.85434e-10
1.84871e-10
1.84332e-10
1.83826e-10
1.83362e-10
1.82946e-10
1.82583e-10
1.82276e-10
1.82025e-10
1.81829e-10
1.81686e-10
1.81594e-10
1.81546e-10
1.81532e-10
1.81531e-10
1.81543e-10
1.8162e-10
1.81738e-10
1.81873e-10
1.82021e-10
1.82175e-10
1.82333e-10
1.82491e-10
1.82647e-10
1.82798e-10
1.82942e-10
1.83077e-10
1.83203e-10
1.83318e-10
1.83423e-10
1.83516e-10
1.83599e-10
1.8367e-10
1.83731e-10
1.83782e-10
1.83824e-10
1.83858e-10
1.83884e-10
1.83904e-10
1.83918e-10
1.83927e-10
1.83932e-10
1.83933e-10
1.83934e-10
1.83933e-10
1.8393e-10
1.83923e-10
1.83916e-10
1.83908e-10
1.83901e-10
1.83894e-10
1.83888e-10
1.83882e-10
1.83877e-10
1.83872e-10
1.83868e-10
1.83864e-10
1.8386e-10
1.83856e-10
1.83852e-10
1.83848e-10
1.83843e-10
1.83837e-10
1.83831e-10
1.83823e-10
1.83815e-10
1.83805e-10
1.83794e-10
1.83781e-10
1.83767e-10
1.83751e-10
1.83734e-10
1.83715e-10
1.83694e-10
1.83672e-10
1.83648e-10
1.83623e-10
1.83596e-10
1.83568e-10
1.83538e-10
1.83506e-10
1.83474e-10
1.8344e-10
1.83405e-10
1.83369e-10
1.83331e-10
1.83293e-10
1.83254e-10
1.83215e-10
1.83175e-10
1.83135e-10
1.83094e-10
1.83054e-10
1.83014e-10
1.82975e-10
1.82937e-10
1.82899e-10
1.82863e-10
1.82829e-10
1.82797e-10
1.82768e-10
1.82741e-10
1.82717e-10
1.82696e-10
1.8268e-10
1.82669e-10
1.82663e-10
1.82661e-10
1.82661e-10
1.82663e-10
1.82671e-10
1.82681e-10
1.82701e-10
1.82723e-10
1.82758e-10
1.82793e-10
1.82845e-10
1.82899e-10
1.82956e-10
1.83021e-10
1.83095e-10
1.83174e-10
1.8326e-10
1.83351e-10
1.83448e-10
1.8355e-10
1.83657e-10
1.83769e-10
1.83885e-10
1.84005e-10
1.84133e-10
1.8426e-10
1.84391e-10
1.84529e-10
1.84669e-10
1.84807e-10
1.8495e-10
1.85099e-10
1.85244e-10
1.85388e-10
1.85542e-10
1.85694e-10
1.85836e-10
1.85988e-10
1.86148e-10
1.8629e-10
1.86434e-10
1.86599e-10
1.86751e-10
1.86881e-10
1.87044e-10
1.87217e-10
1.87342e-10
1.87488e-10
1.87685e-10
1.8783e-10
1.87949e-10
1.8817e-10
1.88356e-10
1.88383e-10
1.88369e-10
1.85301e-10
1.73512e-10
5.96883e-11
1.76718e-12
2.70058e-16
8.56075e-25
4.35435e-43
4.77724e-82
1.75578e-165
0
0
0
0
0
0
0
0
0
0
0
0
0
0
0
0
0
0
0
0
0
0
0
0
0
0
0
0
0
0
0
0
0
0
0
0
0
0
0
0
0
0
0
0
0
0
0
0
0
0
0
0
0
0
0
0
0
0
0
0
0
0
0
0
0
0
0
0
0
0
0
0
0
0
0
0
0
0
0
0
0
0
0
0
0
0
0
0
0
0
0
0
0
0
0
0
0
0
0
0
0
0
0
0
0
0
0
0
0
0
0
0
0
0
0
0
0
0
0
0
0
0
0
0
0
0
0
0
0
0
0
0
0
0
0
0
0
0
0
0
0
0
0
0
0
0
0
0
0
0
0
0
0
0
0
0
0
0
0
0
0
0
0
0
0
0
0
0
0
0
0
0
0
0
0
0
0
0
0
0
0
0
0
0
0
0
0
0
0
0
0
0
0
0
0
0
0
0
0
0
0
0
0
0
0
0
0
0
0
0
0
0
0
0
0
0
0
0
0
0
0
0
0
0
0
0
0
0
0
0
0
0
0
0
0
0
0
0
0
0
0
0
0
0
0
0
0
0
0
0
0
0
0
0
0
0
0
0
0
0
0
0
0
0
0
0
0
0
0
0
0
0
0
0
0
0
0
0
0
0
0
0
0
0
0
0
0
0
0
0
0
0
0
0
0
0
0
0
0
0
0
0
0
0
0
0
0
0
0
0
0
0
0
0
0
0
0
0
0
0
0
0
0
0
0
0
0
0
0
0
0
0
0
0
0
0
0
0
0
0
0
0
0
0
0
0
0
0
0
0
0
0
0
0
0
0
0
0
0
0
0
0
0
0
0
0
0
0
0
0
0
0
0
0
0
0
0
0
0
0
0
0
0
0
0
0
0
0
0
0
0
0
0
0
0
0
0
0
0
0
0
0
0
0
0
0
0
0
0
0
0
0
0
0
0
0
0
0
0
0
0
0
0
0
0
0
0
0
0
0
0
0
0
0
0
0
0
0
0
0
0
0
0
0
0
0
0
0
0
0
0
0
0
0
0
0
0
0
0
0
0
0
0
0
0
0
0
0
0
0
0
0
0
0
0
0
0
0
0
0
0
0
0
0
0
0
0
0
0
0
0
0
0
0
0
0
0
0
0
0
0
0
0
0
0
0
0
0
0
0
0
0
0
0
0
0
0
0
0
0
0
0
0
0
0
0
0
0
0
0
0
0
0
0
0
0
0
0
0
0
0
0
0
0
0
0
0
0
0
0
0
0
0
0
0
0
0
0
0
0
0
0
0
0
0
0
0
0
0
0
0
0
0
0
0
0
0
0
0
0
0
0
)
;

boundaryField
{
    inlet
    {
        type            calculated;
        value           uniform -2.74882e-10;
    }
    outlet
    {
        type            calculated;
        value           uniform 0;
    }
    emptyWalls
    {
        type            empty;
        value           nonuniform List<scalar> 0();
    }
}


// ************************************************************************* //
