/*--------------------------------*- C++ -*----------------------------------*\
  =========                 |
  \\      /  F ield         | OpenFOAM: The Open Source CFD Toolbox
   \\    /   O peration     | Website:  https://openfoam.org
    \\  /    A nd           | Version:  9
     \\/     M anipulation  |
\*---------------------------------------------------------------------------*/
FoamFile
{
    format      ascii;
    class       volScalarField;
    location    "18800";
    object      Fb;
}
// * * * * * * * * * * * * * * * * * * * * * * * * * * * * * * * * * * * * * //

dimensions      [0 0 0 0 0 0 0];

internalField   nonuniform List<scalar> 
1000
(
0.805197
0.805211
0.805207
0.805205
0.805229
0.805206
0.805281
0.805217
0.805369
0.805243
0.805449
0.80531
0.80549
0.805419
0.805522
0.80552
0.805575
0.805588
0.805627
0.805643
0.805677
0.805696
0.805735
0.805787
0.805983
0.806997
0.815693
0.830903
0.833324
0.834179
0.834641
0.834957
0.835202
0.835404
0.835577
0.835727
0.835864
0.83598
0.836085
0.836184
0.836263
0.83634
0.836404
0.836461
0.836509
0.836554
0.836587
0.83662
0.836633
0.836663
0.836663
0.83668
0.836668
0.836673
0.83665
0.836637
0.836612
0.836586
0.836557
0.836525
0.836494
0.836452
0.836411
0.836358
0.836293
0.836218
0.836131
0.836027
0.83591
0.835776
0.835623
0.835443
0.83523
0.834981
0.834697
0.834385
0.834049
0.833685
0.833285
0.832842
0.832353
0.831822
0.831263
0.83069
0.830115
0.829546
0.828986
0.828437
0.827902
0.827386
0.826896
0.826441
0.826029
0.825666
0.825354
0.82509
0.82487
0.824685
0.824524
0.824375
0.824228
0.824071
0.823898
0.823701
0.823476
0.823221
0.822937
0.822625
0.822288
0.821929
0.821553
0.821163
0.820764
0.820359
0.819951
0.819543
0.819136
0.818733
0.818333
0.817937
0.817545
0.817157
0.816773
0.816392
0.816012
0.815635
0.815259
0.814884
0.814509
0.814134
0.813759
0.813383
0.813007
0.81263
0.812252
0.811872
0.811492
0.81111
0.810727
0.810343
0.809958
0.809571
0.809184
0.808794
0.808404
0.808012
0.807619
0.807225
0.80683
0.806433
0.806035
0.805635
0.805234
0.804832
0.804429
0.804024
0.803618
0.80321
0.802802
0.802392
0.80198
0.801568
0.801154
0.800739
0.800322
0.799904
0.799484
0.799063
0.79864
0.798216
0.79779
0.797363
0.796935
0.796507
0.796077
0.795647
0.795216
0.794784
0.794352
0.79392
0.793486
0.793052
0.792616
0.79218
0.791742
0.791303
0.790864
0.790423
0.789983
0.789542
0.789102
0.788662
0.788222
0.787782
0.78734
0.786897
0.78645
0.785999
0.785541
0.785076
0.784602
0.784119
0.783625
0.78312
0.782604
0.782077
0.78154
0.780993
0.780439
0.779879
0.779314
0.778747
0.77818
0.777616
0.777057
0.776506
0.775967
0.775441
0.774931
0.774439
0.773967
0.773516
0.773086
0.772676
0.772285
0.771912
0.771555
0.77121
0.770875
0.770546
0.770221
0.769895
0.769566
0.769233
0.768891
0.768541
0.768181
0.76781
0.767428
0.767036
0.766633
0.76622
0.765799
0.765371
0.764936
0.764495
0.76405
0.763602
0.763152
0.7627
0.762247
0.761793
0.76134
0.760887
0.760435
0.759984
0.759534
0.759085
0.758637
0.75819
0.757744
0.757298
0.756853
0.756408
0.755964
0.755519
0.755075
0.75463
0.754185
0.753739
0.753293
0.752847
0.7524
0.751952
0.751503
0.751054
0.750604
0.750153
0.749701
0.749248
0.748794
0.74834
0.747884
0.747427
0.74697
0.746511
0.746052
0.745591
0.745129
0.744667
0.744203
0.743739
0.743273
0.742806
0.742339
0.74187
0.741401
0.74093
0.740459
0.739986
0.739512
0.739038
0.738562
0.738085
0.737607
0.737128
0.736648
0.736167
0.735686
0.735203
0.734719
0.734234
0.733748
0.733262
0.732775
0.732286
0.731797
0.731308
0.730817
0.730326
0.729834
0.729341
0.728848
0.728354
0.727859
0.727363
0.726867
0.726371
0.725873
0.725375
0.724877
0.724378
0.723879
0.723378
0.722877
0.722374
0.721871
0.721365
0.720857
0.720347
0.719834
0.719317
0.718796
0.718271
0.717742
0.717208
0.716668
0.716123
0.715573
0.715017
0.714456
0.71389
0.71332
0.712745
0.712167
0.711586
0.711003
0.71042
0.709836
0.709253
0.708672
0.708095
0.707521
0.706954
0.706392
0.705839
0.705293
0.704757
0.70423
0.703713
0.703206
0.702709
0.702221
0.701743
0.701273
0.700811
0.700355
0.699905
0.699459
0.699016
0.698574
0.698133
0.697692
0.697248
0.696802
0.696353
0.695899
0.695441
0.694977
0.694508
0.694034
0.693555
0.693071
0.692581
0.692087
0.691588
0.691086
0.690579
0.69007
0.689558
0.689043
0.688526
0.688008
0.687488
0.686967
0.686445
0.685922
0.685399
0.684875
0.684352
0.683828
0.683303
0.682779
0.682255
0.68173
0.681206
0.680681
0.680156
0.679631
0.679106
0.67858
0.678054
0.677527
0.677
0.676472
0.675944
0.675415
0.674885
0.674354
0.673823
0.673291
0.672758
0.672224
0.671689
0.671153
0.670617
0.670079
0.66954
0.669001
0.66846
0.667919
0.667376
0.666832
0.666287
0.665742
0.665195
0.664647
0.664098
0.663548
0.662996
0.662444
0.661891
0.661336
0.660781
0.660224
0.659666
0.659107
0.658547
0.657986
0.657424
0.656861
0.656296
0.65573
0.655164
0.654596
0.654027
0.653457
0.652885
0.652313
0.65174
0.651165
0.650589
0.650013
0.649435
0.648856
0.648276
0.647695
0.647113
0.64653
0.645946
0.645361
0.644775
0.644188
0.6436
0.643011
0.642421
0.64183
0.641238
0.640644
0.64005
0.639454
0.638858
0.63826
0.63766
0.637059
0.636457
0.635852
0.635246
0.634638
0.634027
0.633414
0.632799
0.632181
0.631559
0.630935
0.630308
0.629677
0.629043
0.628406
0.627765
0.627121
0.626473
0.625822
0.625168
0.624511
0.623852
0.62319
0.622525
0.62186
0.621192
0.620524
0.619855
0.619187
0.618518
0.61785
0.617184
0.616519
0.615857
0.615197
0.614541
0.613888
0.613238
0.612593
0.611952
0.611316
0.610684
0.610056
0.609433
0.608814
0.608199
0.607588
0.606979
0.606374
0.605771
0.605169
0.604569
0.60397
0.60337
0.602771
0.60217
0.601568
0.600964
0.600358
0.599749
0.599138
0.598523
0.597905
0.597283
0.596658
0.596029
0.595396
0.59476
0.59412
0.593477
0.592831
0.592181
0.591528
0.590872
0.590214
0.589553
0.588889
0.588223
0.587555
0.586885
0.586213
0.585539
0.584864
0.584186
0.583508
0.582828
0.582146
0.581463
0.580779
0.580094
0.579407
0.578719
0.578029
0.577338
0.576646
0.575952
0.575257
0.574561
0.573863
0.573163
0.572462
0.571759
0.571055
0.570349
0.569641
0.568932
0.568221
0.567508
0.566793
0.566076
0.565358
0.564637
0.563915
0.56319
0.562464
0.561735
0.561004
0.560272
0.559537
0.5588
0.558061
0.557319
0.556576
0.55583
0.555082
0.554331
0.553579
0.552824
0.552066
0.551307
0.550545
0.54978
0.549013
0.548244
0.547472
0.546697
0.54592
0.545141
0.544359
0.543575
0.542787
0.541998
0.541205
0.54041
0.539612
0.538812
0.538009
0.537203
0.536394
0.535583
0.534769
0.533952
0.533132
0.53231
0.531484
0.530656
0.529824
0.52899
0.528153
0.527313
0.52647
0.525624
0.524775
0.523922
0.523067
0.522208
0.521347
0.520482
0.519614
0.518742
0.517867
0.516989
0.516108
0.515222
0.514334
0.513441
0.512545
0.511645
0.510741
0.509833
0.508921
0.508005
0.507084
0.50616
0.50523
0.504297
0.503358
0.502416
0.501469
0.500517
0.49956
0.498599
0.497633
0.496662
0.495688
0.494708
0.493725
0.492737
0.491746
0.49075
0.489751
0.48875
0.487745
0.486738
0.485729
0.484719
0.483707
0.482696
0.481685
0.480676
0.479669
0.478666
0.477667
0.476674
0.475689
0.474713
0.473747
0.472795
0.471857
0.470937
0.470037
0.469159
0.468307
0.467482
0.466687
0.465926
0.4652
0.464513
0.463866
0.463262
0.4627
0.462183
0.46171
0.461281
0.460897
0.460555
0.460254
0.459991
0.459764
0.459571
0.459408
0.459273
0.459163
0.459073
0.459
0.45894
0.45889
0.458843
0.45879
0.458717
0.458601
0.458399
0.458042
0.457402
0.456254
0.454202
0.450563
0.444206
0.43337
0.415669
0.388711
0.351921
0.308912
0.267294
0.23409
0.211581
0.197993
0.190364
0.186255
0.184092
0.182968
0.182387
0.182089
0.181937
0.18186
0.181821
0.181802
0.181793
0.181789
0.181789
0.181789
0.181791
0.181793
0.181794
0.181796
0.181799
0.181801
0.181803
0.181805
0.181807
0.181809
0.181811
0.181813
0.181816
0.181818
0.18182
0.181822
0.181823
0.181825
0.181827
0.181829
0.181831
0.181832
0.181834
0.181835
0.181837
0.181838
0.18184
0.181841
0.181842
0.181843
0.181844
0.181845
0.181846
0.181847
0.181848
0.181849
0.181849
0.18185
0.181851
0.181851
0.181852
0.181852
0.181852
0.181853
0.181853
0.181853
0.181853
0.181853
0.181853
0.181853
0.181853
0.181853
0.181853
0.181852
0.181852
0.181852
0.181851
0.181851
0.18185
0.18185
0.181849
0.181848
0.181848
0.181847
0.181846
0.181845
0.181845
0.181844
0.181843
0.181842
0.181841
0.18184
0.181838
0.181837
0.181836
0.181835
0.181834
0.181832
0.181831
0.181829
0.181828
0.181826
0.181825
0.181823
0.181822
0.18182
0.181818
0.181816
0.181814
0.181812
0.18181
0.181807
0.181805
0.181802
0.181799
0.181796
0.181793
0.18179
0.181786
0.181783
0.181779
0.181775
0.18177
0.181766
0.181761
0.181756
0.18175
0.181745
0.181739
0.181732
0.181726
0.181719
0.181712
0.181705
0.181697
0.181689
0.181681
0.181673
0.181664
0.181656
0.181647
0.181638
0.181629
0.18162
0.181611
0.181602
0.181593
0.181584
0.181576
0.181567
0.181559
0.181551
0.181543
0.181536
0.181529
0.181522
0.181516
0.18151
0.181505
0.181501
0.181497
0.181494
0.181491
0.18149
0.181488
0.181488
0.181488
0.181488
0.181488
0.18149
0.181493
0.181497
0.181501
0.181506
0.181511
0.181516
0.181523
0.181529
0.181536
0.181543
0.181551
0.181558
0.181566
0.181574
0.181582
0.18159
0.181598
0.181606
0.181614
0.181622
0.181629
0.181637
0.181644
0.181651
0.181658
0.181664
0.18167
0.181676
0.181682
0.181687
0.181692
0.181697
0.181702
0.181706
0.18171
0.181714
0.181718
0.181722
0.181725
0.181729
0.181732
0.181735
0.181738
0.181741
0.181744
0.181747
0.18175
0.181753
0.181755
0.181758
0.18176
0.181763
0.181765
0.181768
0.18177
0.181773
0.181774
0.181777
0.181779
0.181782
0.181783
0.181786
0.181787
0.18179
0.181791
0.181795
0.181796
0.181799
0.1818
0.181803
0.181804
0.181807
0.181808
0.181811
0.181811
)
;

boundaryField
{
    inlet
    {
        type            calculated;
        value           uniform 0.805169;
    }
    outlet
    {
        type            calculated;
        value           uniform 0.181813;
    }
    emptyWalls
    {
        type            empty;
    }
}


// ************************************************************************* //
