/*--------------------------------*- C++ -*----------------------------------*\
  =========                 |
  \\      /  F ield         | OpenFOAM: The Open Source CFD Toolbox
   \\    /   O peration     | Website:  https://openfoam.org
    \\  /    A nd           | Version:  9
     \\/     M anipulation  |
\*---------------------------------------------------------------------------*/
FoamFile
{
    format      ascii;
    class       surfaceScalarField;
    location    "18800";
    object      phic;
}
// * * * * * * * * * * * * * * * * * * * * * * * * * * * * * * * * * * * * * //

dimensions      [0 2 0 0 0 0 0];

internalField   nonuniform List<scalar> 
999
(
1.52493e-15
6.49307e-15
1.58318e-14
2.92564e-14
4.66729e-14
6.80444e-14
9.33493e-14
1.22512e-13
1.55436e-13
1.91873e-13
2.3149e-13
2.73783e-13
3.18017e-13
3.63389e-13
4.08817e-13
4.53303e-13
4.95792e-13
5.35455e-13
5.71697e-13
6.04338e-13
6.34012e-13
6.64415e-13
7.1351e-13
8.63937e-13
1.41724e-12
3.85486e-12
1.63409e-11
2.01337e-11
2.1206e-11
2.16821e-11
2.1975e-11
2.21932e-11
2.23745e-11
2.25344e-11
2.26806e-11
2.28172e-11
2.29466e-11
2.30703e-11
2.31893e-11
2.33044e-11
2.34159e-11
2.35245e-11
2.36304e-11
2.37341e-11
2.38359e-11
2.39361e-11
2.40351e-11
2.41333e-11
2.42309e-11
2.43283e-11
2.44258e-11
2.45236e-11
2.46222e-11
2.47219e-11
2.4823e-11
2.49282e-11
2.50361e-11
2.51466e-11
2.52598e-11
2.53762e-11
2.5496e-11
2.56198e-11
2.57484e-11
2.58825e-11
2.60236e-11
2.61736e-11
2.6335e-11
2.65118e-11
2.67091e-11
2.69335e-11
2.71921e-11
2.74913e-11
2.78341e-11
2.82178e-11
2.86349e-11
2.90767e-11
2.95363e-11
3.00092e-11
3.04917e-11
3.09814e-11
3.14768e-11
3.19767e-11
3.24806e-11
3.29884e-11
3.34996e-11
3.40141e-11
3.45316e-11
3.50521e-11
3.55753e-11
3.61015e-11
3.66306e-11
3.71631e-11
3.76989e-11
3.82383e-11
3.87813e-11
3.93277e-11
3.98772e-11
4.04297e-11
4.09845e-11
4.15414e-11
4.20998e-11
4.26593e-11
4.32197e-11
4.37806e-11
4.43419e-11
4.49034e-11
4.54651e-11
4.6027e-11
4.65892e-11
4.71519e-11
4.77151e-11
4.82789e-11
4.88436e-11
4.94091e-11
4.99757e-11
5.05435e-11
5.11124e-11
5.16825e-11
5.22539e-11
5.28265e-11
5.34003e-11
5.39754e-11
5.45516e-11
5.5129e-11
5.57075e-11
5.62871e-11
5.68678e-11
5.74494e-11
5.80321e-11
5.86157e-11
5.92003e-11
5.97857e-11
6.03721e-11
6.09594e-11
6.15475e-11
6.21365e-11
6.27263e-11
6.3317e-11
6.39085e-11
6.45008e-11
6.5094e-11
6.56879e-11
6.62826e-11
6.68781e-11
6.74744e-11
6.80714e-11
6.86692e-11
6.92677e-11
6.9867e-11
7.04671e-11
7.10678e-11
7.16693e-11
7.22715e-11
7.28744e-11
7.3478e-11
7.40823e-11
7.46873e-11
7.52929e-11
7.58993e-11
7.65063e-11
7.7114e-11
7.77223e-11
7.83313e-11
7.8941e-11
7.95512e-11
8.01621e-11
8.07736e-11
8.13858e-11
8.19985e-11
8.26118e-11
8.32258e-11
8.38404e-11
8.44556e-11
8.50714e-11
8.56879e-11
8.6305e-11
8.69227e-11
8.75411e-11
8.81602e-11
8.87798e-11
8.94001e-11
9.0021e-11
9.06424e-11
9.12644e-11
9.1887e-11
9.25102e-11
9.3134e-11
9.37584e-11
9.43834e-11
9.50092e-11
9.56356e-11
9.62627e-11
9.68904e-11
9.75187e-11
9.81475e-11
9.87767e-11
9.94062e-11
1.00036e-10
1.00665e-10
1.01295e-10
1.01924e-10
1.02552e-10
1.03181e-10
1.03808e-10
1.04435e-10
1.05062e-10
1.05688e-10
1.06313e-10
1.06939e-10
1.07564e-10
1.08189e-10
1.08815e-10
1.09441e-10
1.10068e-10
1.10697e-10
1.11327e-10
1.11959e-10
1.12593e-10
1.13229e-10
1.13868e-10
1.1451e-10
1.15155e-10
1.15803e-10
1.16454e-10
1.17108e-10
1.17765e-10
1.18423e-10
1.19085e-10
1.19747e-10
1.20412e-10
1.21077e-10
1.21743e-10
1.22409e-10
1.23075e-10
1.23741e-10
1.24407e-10
1.25072e-10
1.25736e-10
1.264e-10
1.27063e-10
1.27726e-10
1.28388e-10
1.2905e-10
1.29712e-10
1.30374e-10
1.31035e-10
1.31697e-10
1.32359e-10
1.33021e-10
1.33684e-10
1.34348e-10
1.35012e-10
1.35677e-10
1.36342e-10
1.37009e-10
1.37676e-10
1.38343e-10
1.39012e-10
1.39682e-10
1.40352e-10
1.41023e-10
1.41695e-10
1.42367e-10
1.43041e-10
1.43715e-10
1.44389e-10
1.45065e-10
1.45741e-10
1.46417e-10
1.47095e-10
1.47773e-10
1.48451e-10
1.4913e-10
1.4981e-10
1.5049e-10
1.51171e-10
1.51852e-10
1.52534e-10
1.53217e-10
1.539e-10
1.54583e-10
1.55267e-10
1.55952e-10
1.56637e-10
1.57323e-10
1.58009e-10
1.58696e-10
1.59383e-10
1.60071e-10
1.60759e-10
1.61448e-10
1.62138e-10
1.62828e-10
1.63518e-10
1.64209e-10
1.64901e-10
1.65593e-10
1.66286e-10
1.66979e-10
1.67672e-10
1.68367e-10
1.69061e-10
1.69757e-10
1.70452e-10
1.71149e-10
1.71845e-10
1.72543e-10
1.73241e-10
1.73939e-10
1.74638e-10
1.75337e-10
1.76037e-10
1.76738e-10
1.77439e-10
1.78141e-10
1.78843e-10
1.79546e-10
1.80249e-10
1.80953e-10
1.81658e-10
1.82363e-10
1.83068e-10
1.83775e-10
1.84481e-10
1.85189e-10
1.85897e-10
1.86606e-10
1.87315e-10
1.88025e-10
1.88735e-10
1.89447e-10
1.90158e-10
1.90871e-10
1.91584e-10
1.92297e-10
1.93011e-10
1.93726e-10
1.9444e-10
1.95155e-10
1.9587e-10
1.96586e-10
1.97301e-10
1.98016e-10
1.9873e-10
1.99445e-10
2.00159e-10
2.00873e-10
2.01586e-10
2.02298e-10
2.03011e-10
2.03722e-10
2.04434e-10
2.05145e-10
2.05855e-10
2.06566e-10
2.07277e-10
2.07988e-10
2.087e-10
2.09412e-10
2.10126e-10
2.1084e-10
2.11557e-10
2.12275e-10
2.12995e-10
2.13718e-10
2.14443e-10
2.15171e-10
2.15902e-10
2.16637e-10
2.17374e-10
2.18115e-10
2.18859e-10
2.19607e-10
2.20357e-10
2.21111e-10
2.21867e-10
2.22626e-10
2.23387e-10
2.2415e-10
2.24914e-10
2.2568e-10
2.26447e-10
2.27215e-10
2.27983e-10
2.28752e-10
2.2952e-10
2.30289e-10
2.31057e-10
2.31825e-10
2.32593e-10
2.3336e-10
2.34127e-10
2.34893e-10
2.3566e-10
2.36426e-10
2.37192e-10
2.37958e-10
2.38724e-10
2.3949e-10
2.40256e-10
2.41023e-10
2.4179e-10
2.42558e-10
2.43327e-10
2.44096e-10
2.44866e-10
2.45637e-10
2.46409e-10
2.47181e-10
2.47955e-10
2.4873e-10
2.49505e-10
2.50282e-10
2.5106e-10
2.51839e-10
2.52619e-10
2.53399e-10
2.54181e-10
2.54964e-10
2.55748e-10
2.56533e-10
2.57319e-10
2.58105e-10
2.58893e-10
2.59682e-10
2.60471e-10
2.61262e-10
2.62053e-10
2.62846e-10
2.63639e-10
2.64433e-10
2.65228e-10
2.66024e-10
2.66821e-10
2.67618e-10
2.68417e-10
2.69216e-10
2.70016e-10
2.70817e-10
2.71619e-10
2.72422e-10
2.73226e-10
2.74031e-10
2.74836e-10
2.75642e-10
2.7645e-10
2.77258e-10
2.78067e-10
2.78876e-10
2.79687e-10
2.80499e-10
2.81311e-10
2.82125e-10
2.82939e-10
2.83754e-10
2.8457e-10
2.85387e-10
2.86205e-10
2.87024e-10
2.87843e-10
2.88664e-10
2.89485e-10
2.90308e-10
2.91131e-10
2.91955e-10
2.92781e-10
2.93607e-10
2.94434e-10
2.95262e-10
2.96091e-10
2.96921e-10
2.97752e-10
2.98584e-10
2.99417e-10
3.00251e-10
3.01086e-10
3.01922e-10
3.02759e-10
3.03597e-10
3.04436e-10
3.05276e-10
3.06117e-10
3.06959e-10
3.07803e-10
3.08647e-10
3.09493e-10
3.10339e-10
3.11187e-10
3.12036e-10
3.12886e-10
3.13737e-10
3.14589e-10
3.15441e-10
3.16295e-10
3.1715e-10
3.18006e-10
3.18862e-10
3.1972e-10
3.20578e-10
3.21436e-10
3.22295e-10
3.23155e-10
3.24015e-10
3.24876e-10
3.25736e-10
3.26597e-10
3.27458e-10
3.2832e-10
3.29181e-10
3.30043e-10
3.30905e-10
3.31767e-10
3.32629e-10
3.33492e-10
3.34355e-10
3.35219e-10
3.36083e-10
3.36948e-10
3.37814e-10
3.38681e-10
3.39549e-10
3.40419e-10
3.4129e-10
3.42164e-10
3.4304e-10
3.43918e-10
3.44799e-10
3.45683e-10
3.4657e-10
3.47461e-10
3.48355e-10
3.49253e-10
3.50154e-10
3.5106e-10
3.5197e-10
3.52884e-10
3.53802e-10
3.54724e-10
3.5565e-10
3.56581e-10
3.57515e-10
3.58453e-10
3.59394e-10
3.60339e-10
3.61287e-10
3.62237e-10
3.63191e-10
3.64146e-10
3.65104e-10
3.66064e-10
3.67025e-10
3.67988e-10
3.68952e-10
3.69918e-10
3.70884e-10
3.71851e-10
3.72819e-10
3.73788e-10
3.74757e-10
3.75727e-10
3.76698e-10
3.7767e-10
3.78642e-10
3.79615e-10
3.80589e-10
3.81564e-10
3.8254e-10
3.83518e-10
3.84496e-10
3.85476e-10
3.86458e-10
3.87441e-10
3.88425e-10
3.89412e-10
3.904e-10
3.9139e-10
3.92382e-10
3.93376e-10
3.94372e-10
3.9537e-10
3.96371e-10
3.97373e-10
3.98378e-10
3.99385e-10
4.00395e-10
4.01407e-10
4.02421e-10
4.03437e-10
4.04456e-10
4.05477e-10
4.06501e-10
4.07527e-10
4.08555e-10
4.09586e-10
4.10619e-10
4.11655e-10
4.12693e-10
4.13733e-10
4.14776e-10
4.15822e-10
4.1687e-10
4.1792e-10
4.18973e-10
4.20028e-10
4.21086e-10
4.22146e-10
4.23209e-10
4.24274e-10
4.25342e-10
4.26412e-10
4.27485e-10
4.28561e-10
4.29639e-10
4.3072e-10
4.31803e-10
4.32889e-10
4.33978e-10
4.35069e-10
4.36163e-10
4.3726e-10
4.3836e-10
4.39462e-10
4.40567e-10
4.41675e-10
4.42786e-10
4.439e-10
4.45016e-10
4.46136e-10
4.47258e-10
4.48383e-10
4.49512e-10
4.50643e-10
4.51778e-10
4.52915e-10
4.54056e-10
4.552e-10
4.56347e-10
4.57497e-10
4.5865e-10
4.59807e-10
4.60967e-10
4.62131e-10
4.63297e-10
4.64467e-10
4.65641e-10
4.66818e-10
4.67999e-10
4.69183e-10
4.70371e-10
4.71563e-10
4.72758e-10
4.73957e-10
4.75159e-10
4.76366e-10
4.77576e-10
4.78791e-10
4.80009e-10
4.81231e-10
4.82457e-10
4.83688e-10
4.84922e-10
4.86161e-10
4.87403e-10
4.8865e-10
4.89901e-10
4.91156e-10
4.92416e-10
4.93679e-10
4.94947e-10
4.96219e-10
4.97495e-10
4.98775e-10
5.0006e-10
5.01348e-10
5.02641e-10
5.03938e-10
5.05239e-10
5.06544e-10
5.07853e-10
5.09166e-10
5.10482e-10
5.11803e-10
5.13127e-10
5.14455e-10
5.15787e-10
5.17123e-10
5.18462e-10
5.19805e-10
5.21151e-10
5.225e-10
5.23854e-10
5.2521e-10
5.2657e-10
5.27933e-10
5.29299e-10
5.30668e-10
5.3204e-10
5.33414e-10
5.3479e-10
5.36168e-10
5.37548e-10
5.38928e-10
5.40308e-10
5.41687e-10
5.43065e-10
5.4444e-10
5.45811e-10
5.47177e-10
5.48535e-10
5.49883e-10
5.51219e-10
5.52541e-10
5.53846e-10
5.5513e-10
5.5639e-10
5.57623e-10
5.58824e-10
5.59989e-10
5.61116e-10
5.622e-10
5.63237e-10
5.64223e-10
5.65156e-10
5.66033e-10
5.66852e-10
5.67612e-10
5.68313e-10
5.68954e-10
5.69535e-10
5.70059e-10
5.70528e-10
5.70946e-10
5.71314e-10
5.71637e-10
5.71917e-10
5.7216e-10
5.72369e-10
5.7255e-10
5.72708e-10
5.72847e-10
5.72976e-10
5.73104e-10
5.73247e-10
5.73434e-10
5.73711e-10
5.74158e-10
5.74917e-10
5.76243e-10
5.7858e-10
5.82703e-10
5.89912e-10
6.02271e-10
6.22734e-10
6.54691e-10
7.00249e-10
7.57267e-10
8.17731e-10
8.71118e-10
9.10776e-10
9.36415e-10
9.51468e-10
9.59795e-10
9.64248e-10
9.66588e-10
9.67809e-10
9.68444e-10
9.68776e-10
9.68952e-10
9.69048e-10
9.69102e-10
9.69135e-10
9.69157e-10
9.69174e-10
9.69188e-10
9.692e-10
9.69212e-10
9.69224e-10
9.69235e-10
9.69247e-10
9.69258e-10
9.6927e-10
9.69282e-10
9.69294e-10
9.69306e-10
9.69318e-10
9.6933e-10
9.69342e-10
9.69354e-10
9.69366e-10
9.69379e-10
9.69391e-10
9.69403e-10
9.69415e-10
9.69427e-10
9.69439e-10
9.6945e-10
9.69462e-10
9.69473e-10
9.69484e-10
9.69496e-10
9.69506e-10
9.69517e-10
9.69527e-10
9.69537e-10
9.69547e-10
9.69557e-10
9.69566e-10
9.69575e-10
9.69584e-10
9.69592e-10
9.696e-10
9.69608e-10
9.69615e-10
9.69622e-10
9.69629e-10
9.69635e-10
9.69641e-10
9.69646e-10
9.69651e-10
9.69656e-10
9.69661e-10
9.69665e-10
9.69668e-10
9.69671e-10
9.69674e-10
9.69677e-10
9.69679e-10
9.6968e-10
9.69682e-10
9.69682e-10
9.69683e-10
9.69684e-10
9.69684e-10
9.69683e-10
9.69682e-10
9.69681e-10
9.69679e-10
9.69677e-10
9.69675e-10
9.69673e-10
9.6967e-10
9.69666e-10
9.69663e-10
9.69659e-10
9.69655e-10
9.6965e-10
9.69645e-10
9.6964e-10
9.69635e-10
9.69629e-10
9.69623e-10
9.69617e-10
9.6961e-10
9.69603e-10
9.69596e-10
9.69588e-10
9.6958e-10
9.69572e-10
9.69563e-10
9.69554e-10
9.69544e-10
9.69534e-10
9.69523e-10
9.69512e-10
9.695e-10
9.69487e-10
9.69474e-10
9.6946e-10
9.69445e-10
9.69429e-10
9.69412e-10
9.69395e-10
9.69376e-10
9.69356e-10
9.69335e-10
9.69313e-10
9.6929e-10
9.69265e-10
9.6924e-10
9.69212e-10
9.69183e-10
9.69153e-10
9.69122e-10
9.69089e-10
9.69054e-10
9.69018e-10
9.68981e-10
9.68942e-10
9.68902e-10
9.68861e-10
9.68819e-10
9.68775e-10
9.6873e-10
9.68685e-10
9.68639e-10
9.68592e-10
9.68545e-10
9.68497e-10
9.68449e-10
9.68402e-10
9.68354e-10
9.68307e-10
9.68261e-10
9.68215e-10
9.68171e-10
9.68128e-10
9.68086e-10
9.68047e-10
9.68009e-10
9.67973e-10
9.6794e-10
9.67909e-10
9.67882e-10
9.67857e-10
9.67835e-10
9.67817e-10
9.67802e-10
9.67791e-10
9.67783e-10
9.67779e-10
9.67777e-10
9.67777e-10
9.67778e-10
9.67784e-10
9.67798e-10
9.67815e-10
9.67835e-10
9.67858e-10
9.67884e-10
9.67912e-10
9.67943e-10
9.67976e-10
9.68012e-10
9.68049e-10
9.68087e-10
9.68127e-10
9.68167e-10
9.68209e-10
9.68251e-10
9.68293e-10
9.68336e-10
9.68378e-10
9.6842e-10
9.68461e-10
9.68502e-10
9.68541e-10
9.6858e-10
9.68618e-10
9.68654e-10
9.6869e-10
9.68724e-10
9.68756e-10
9.68787e-10
9.68817e-10
9.68845e-10
9.68872e-10
9.68897e-10
9.68922e-10
9.68944e-10
9.68966e-10
9.68986e-10
9.69005e-10
9.69023e-10
9.6904e-10
9.69056e-10
9.69072e-10
9.69086e-10
9.691e-10
9.69113e-10
9.69126e-10
9.69138e-10
9.6915e-10
9.69161e-10
9.69173e-10
9.69184e-10
9.69195e-10
9.69205e-10
9.69216e-10
9.69227e-10
9.69238e-10
9.69248e-10
9.69259e-10
9.69269e-10
9.6928e-10
9.69291e-10
9.69302e-10
9.69313e-10
9.69324e-10
9.69335e-10
9.69346e-10
9.69357e-10
9.69368e-10
9.69379e-10
9.6939e-10
9.69401e-10
9.69412e-10
9.69423e-10
9.69434e-10
9.69444e-10
)
;

boundaryField
{
    inlet
    {
        type            calculated;
        value           uniform 0;
    }
    outlet
    {
        type            calculated;
        value           uniform 9.69455e-10;
    }
    emptyWalls
    {
        type            empty;
        value           nonuniform List<scalar> 0();
    }
}


// ************************************************************************* //
