/*--------------------------------*- C++ -*----------------------------------*\
  =========                 |
  \\      /  F ield         | OpenFOAM: The Open Source CFD Toolbox
   \\    /   O peration     | Website:  https://openfoam.org
    \\  /    A nd           | Version:  9
     \\/     M anipulation  |
\*---------------------------------------------------------------------------*/
FoamFile
{
    format      ascii;
    class       volScalarField;
    location    "18800";
    object      Sa;
}
// * * * * * * * * * * * * * * * * * * * * * * * * * * * * * * * * * * * * * //

dimensions      [0 0 0 0 0 0 0];

internalField   nonuniform List<scalar> 
1000
(
0.549428
0.548234
0.546668
0.545117
0.543558
0.542023
0.540427
0.538897
0.537242
0.535736
0.534051
0.532572
0.530943
0.529499
0.528021
0.526684
0.525415
0.524281
0.523253
0.522357
0.521562
0.520847
0.520042
0.518463
0.513239
0.492512
0.365657
0.131689
0.0800776
0.0650751
0.0580042
0.0535808
0.0503566
0.0477842
0.0456347
0.0437744
0.0421398
0.0406791
0.0393686
0.0381771
0.0370983
0.0361087
0.0352056
0.0343721
0.0336063
0.0328946
0.0322367
0.0316217
0.0310511
0.030513
0.0300124
0.0295379
0.0290949
0.0286734
0.0282787
0.0278998
0.0275366
0.0271926
0.0268686
0.0265638
0.0262772
0.0260093
0.0257583
0.0255244
0.025307
0.0251051
0.0249178
0.0247449
0.0245858
0.0244408
0.0243123
0.0242043
0.0241207
0.0240615
0.0240182
0.0239765
0.0239343
0.0238927
0.023853
0.0238165
0.0237837
0.0237542
0.0237272
0.0237012
0.0236754
0.023649
0.0236217
0.0235935
0.0235642
0.0235332
0.0234999
0.0234636
0.0234236
0.0233793
0.0233306
0.0232777
0.0232212
0.0231617
0.0231003
0.0230381
0.022976
0.0229151
0.022856
0.0227992
0.0227453
0.0226943
0.0226462
0.0226009
0.0225581
0.0225174
0.0224786
0.0224412
0.0224049
0.0223693
0.0223342
0.0222993
0.0222644
0.0222295
0.0221944
0.0221592
0.0221238
0.0220883
0.0220526
0.0220169
0.0219811
0.0219454
0.0219098
0.0218742
0.0218388
0.0218036
0.0217685
0.0217337
0.0216991
0.0216648
0.0216307
0.0215968
0.0215632
0.0215299
0.0214969
0.0214641
0.0214315
0.0213992
0.0213672
0.0213354
0.0213039
0.0212727
0.0212416
0.0212109
0.0211804
0.0211501
0.0211201
0.0210903
0.0210607
0.0210314
0.0210023
0.0209735
0.0209449
0.0209166
0.0208884
0.0208605
0.0208328
0.0208054
0.0207781
0.0207511
0.0207243
0.0206978
0.0206715
0.0206454
0.0206195
0.0205939
0.0205685
0.0205433
0.0205183
0.0204934
0.0204687
0.0204442
0.0204198
0.0203955
0.0203714
0.0203475
0.0203237
0.0203
0.0202765
0.0202532
0.0202301
0.0202071
0.0201843
0.0201617
0.0201391
0.0201166
0.0200942
0.0200718
0.0200495
0.0200273
0.0200052
0.0199834
0.0199619
0.0199409
0.0199205
0.0199008
0.0198819
0.0198638
0.0198467
0.0198306
0.0198154
0.0198012
0.0197879
0.0197754
0.0197636
0.0197524
0.0197416
0.0197311
0.0197205
0.0197098
0.0196987
0.019687
0.0196743
0.0196606
0.0196456
0.0196292
0.0196112
0.0195916
0.0195703
0.0195474
0.0195229
0.019497
0.0194699
0.0194418
0.019413
0.0193837
0.0193543
0.0193248
0.0192957
0.019267
0.019239
0.0192118
0.0191854
0.01916
0.0191355
0.0191119
0.0190892
0.0190673
0.0190462
0.0190257
0.0190058
0.0189864
0.0189674
0.0189487
0.0189302
0.0189119
0.0188937
0.0188755
0.0188574
0.0188393
0.0188211
0.0188029
0.0187846
0.0187663
0.018748
0.0187296
0.0187112
0.0186927
0.0186742
0.0186558
0.0186373
0.0186189
0.0186005
0.0185821
0.0185638
0.0185455
0.0185273
0.0185092
0.0184912
0.0184732
0.0184553
0.0184375
0.0184198
0.0184022
0.0183847
0.0183673
0.01835
0.0183327
0.0183156
0.0182986
0.0182816
0.0182648
0.0182481
0.0182314
0.0182149
0.0181984
0.0181821
0.0181658
0.0181497
0.0181336
0.0181176
0.0181018
0.018086
0.0180703
0.0180547
0.0180393
0.0180239
0.0180086
0.0179934
0.0179783
0.0179633
0.0179484
0.0179335
0.0179188
0.0179042
0.0178896
0.0178752
0.0178608
0.0178465
0.0178323
0.0178181
0.017804
0.01779
0.0177761
0.0177622
0.0177484
0.0177346
0.0177209
0.0177073
0.0176938
0.0176803
0.0176668
0.0176535
0.0176401
0.0176268
0.0176136
0.0176004
0.0175872
0.0175742
0.0175611
0.0175482
0.0175353
0.0175225
0.0175099
0.0174975
0.0174853
0.0174733
0.0174616
0.0174501
0.0174391
0.0174284
0.017418
0.0174081
0.0173987
0.0173896
0.017381
0.0173728
0.017365
0.0173575
0.0173504
0.0173435
0.0173369
0.0173304
0.017324
0.0173176
0.0173111
0.0173044
0.0172974
0.0172901
0.0172824
0.0172741
0.0172652
0.0172556
0.0172453
0.0172343
0.0172224
0.0172097
0.0171962
0.017182
0.017167
0.0171513
0.017135
0.0171181
0.0171008
0.0170832
0.0170653
0.0170472
0.0170291
0.017011
0.0169931
0.0169753
0.0169578
0.0169407
0.0169239
0.0169074
0.0168914
0.0168758
0.0168606
0.0168458
0.0168314
0.0168173
0.0168036
0.0167901
0.016777
0.0167641
0.0167514
0.0167388
0.0167264
0.0167142
0.016702
0.0166899
0.0166778
0.0166658
0.0166538
0.0166418
0.0166298
0.0166178
0.0166057
0.0165937
0.0165816
0.0165696
0.0165575
0.0165454
0.0165333
0.0165212
0.016509
0.0164969
0.0164848
0.0164727
0.0164606
0.0164486
0.0164365
0.0164245
0.0164125
0.0164005
0.0163886
0.0163767
0.0163649
0.016353
0.0163413
0.0163295
0.0163179
0.0163062
0.0162946
0.0162831
0.0162716
0.0162601
0.0162487
0.0162374
0.0162261
0.0162148
0.0162036
0.0161925
0.0161814
0.0161704
0.0161594
0.0161484
0.0161375
0.0161267
0.0161159
0.0161052
0.0160945
0.0160838
0.0160732
0.0160627
0.0160522
0.0160418
0.0160314
0.0160211
0.0160108
0.0160006
0.0159904
0.0159802
0.0159701
0.0159601
0.0159501
0.0159401
0.0159302
0.0159204
0.0159105
0.0159007
0.015891
0.0158813
0.0158716
0.015862
0.0158524
0.0158428
0.0158333
0.0158238
0.0158143
0.0158049
0.0157955
0.0157861
0.0157768
0.0157675
0.0157582
0.015749
0.0157398
0.0157307
0.0157216
0.0157126
0.0157037
0.0156949
0.0156862
0.0156776
0.0156691
0.0156608
0.0156526
0.0156446
0.0156367
0.0156291
0.0156216
0.0156144
0.0156074
0.0156006
0.015594
0.0155876
0.0155815
0.0155756
0.0155699
0.0155643
0.0155589
0.0155536
0.0155485
0.0155434
0.0155384
0.0155334
0.0155284
0.0155233
0.0155182
0.0155128
0.0155074
0.0155016
0.0154957
0.0154894
0.0154828
0.0154758
0.0154685
0.0154607
0.0154526
0.0154439
0.0154348
0.0154253
0.0154153
0.0154049
0.0153941
0.0153829
0.0153713
0.0153595
0.0153473
0.0153349
0.0153223
0.0153096
0.0152967
0.0152838
0.0152709
0.015258
0.0152452
0.0152324
0.0152198
0.0152073
0.015195
0.0151829
0.015171
0.0151593
0.0151478
0.0151365
0.0151254
0.0151145
0.0151038
0.0150932
0.0150829
0.0150727
0.0150626
0.0150527
0.0150429
0.0150331
0.0150235
0.0150139
0.0150045
0.014995
0.0149856
0.0149762
0.0149669
0.0149575
0.0149482
0.0149389
0.0149295
0.0149202
0.0149109
0.0149015
0.0148922
0.0148828
0.0148734
0.014864
0.0148546
0.0148452
0.0148358
0.0148264
0.014817
0.0148075
0.0147981
0.0147887
0.0147793
0.0147699
0.0147605
0.0147511
0.0147417
0.0147323
0.014723
0.0147136
0.0147043
0.014695
0.0146858
0.0146765
0.0146673
0.0146581
0.0146489
0.0146397
0.0146306
0.0146215
0.0146124
0.0146033
0.0145943
0.0145853
0.0145763
0.0145674
0.0145584
0.0145495
0.0145407
0.0145318
0.014523
0.0145143
0.0145055
0.0144968
0.0144881
0.0144794
0.0144708
0.0144622
0.0144536
0.0144451
0.0144366
0.0144281
0.0144196
0.0144112
0.0144027
0.0143944
0.014386
0.0143777
0.0143694
0.0143611
0.0143528
0.0143446
0.0143364
0.0143282
0.01432
0.0143118
0.0143037
0.0142956
0.0142875
0.0142794
0.0142713
0.0142633
0.0142552
0.0142472
0.0142392
0.0142313
0.0142233
0.0142154
0.0142075
0.0141996
0.0141917
0.0141839
0.0141761
0.0141683
0.0141606
0.0141529
0.0141453
0.0141378
0.0141303
0.0141228
0.0141155
0.0141082
0.014101
0.0140939
0.0140869
0.01408
0.0140732
0.0140665
0.0140599
0.0140534
0.0140471
0.0140409
0.0140348
0.0140288
0.0140229
0.0140172
0.0140115
0.0140059
0.0140004
0.013995
0.0139897
0.0139844
0.0139792
0.0139739
0.0139687
0.0139635
0.0139583
0.0139531
0.0139478
0.0139425
0.0139371
0.0139316
0.013926
0.0139203
0.0139145
0.0139086
0.0139026
0.0138965
0.0138903
0.0138839
0.0138775
0.0138711
0.0138646
0.013858
0.0138515
0.013845
0.0138385
0.0138321
0.0138257
0.0138196
0.0138135
0.0138076
0.0138019
0.0137964
0.0137911
0.013786
0.0137812
0.0137766
0.0137722
0.013768
0.0137641
0.0137604
0.0137569
0.0137536
0.0137505
0.0137475
0.0137447
0.0137419
0.0137391
0.013736
0.0137324
0.0137278
0.0137211
0.0137106
0.0136935
0.0136647
0.0136165
0.0135381
0.0134178
0.013251
0.0130522
0.0128594
0.0127117
0.012621
0.0125733
0.01255
0.0125386
0.0125328
0.0125297
0.0125279
0.0125267
0.0125258
0.0125252
0.0125246
0.012524
0.0125235
0.0125229
0.0125224
0.0125219
0.0125213
0.0125208
0.0125203
0.0125197
0.0125192
0.0125186
0.0125181
0.0125175
0.0125169
0.0125163
0.0125158
0.0125152
0.0125146
0.012514
0.0125135
0.0125129
0.0125123
0.0125117
0.0125112
0.0125106
0.0125101
0.0125095
0.012509
0.0125085
0.012508
0.0125075
0.012507
0.0125065
0.012506
0.0125055
0.0125051
0.0125047
0.0125043
0.0125039
0.0125035
0.0125031
0.0125027
0.0125024
0.0125021
0.0125018
0.0125015
0.0125012
0.012501
0.0125007
0.0125005
0.0125003
0.0125001
0.0124999
0.0124998
0.0124997
0.0124995
0.0124995
0.0124994
0.0124993
0.0124993
0.0124993
0.0124993
0.0124993
0.0124993
0.0124993
0.0124993
0.0124994
0.0124995
0.0124996
0.0124997
0.0124999
0.0125
0.0125002
0.0125004
0.0125006
0.0125008
0.012501
0.0125012
0.0125015
0.0125018
0.012502
0.0125023
0.0125026
0.012503
0.0125033
0.0125036
0.012504
0.0125044
0.0125048
0.0125052
0.0125056
0.0125061
0.0125066
0.0125071
0.0125076
0.0125082
0.0125088
0.0125094
0.0125101
0.0125108
0.0125115
0.0125123
0.0125131
0.012514
0.0125149
0.0125159
0.0125169
0.012518
0.0125191
0.0125204
0.0125216
0.012523
0.0125244
0.0125259
0.0125275
0.0125291
0.0125308
0.0125326
0.0125344
0.0125363
0.0125383
0.0125403
0.0125424
0.0125445
0.0125467
0.0125489
0.0125511
0.0125534
0.0125557
0.012558
0.0125603
0.0125626
0.0125649
0.0125672
0.0125694
0.0125716
0.0125737
0.0125758
0.0125777
0.0125796
0.0125814
0.0125831
0.0125846
0.012586
0.0125873
0.0125884
0.0125894
0.0125902
0.0125908
0.0125913
0.0125916
0.0125917
0.0125917
0.0125917
0.0125916
0.0125911
0.0125903
0.0125894
0.0125884
0.0125872
0.0125859
0.0125845
0.0125829
0.0125812
0.0125795
0.0125777
0.0125758
0.0125738
0.0125718
0.0125698
0.0125678
0.0125657
0.0125637
0.0125616
0.0125596
0.0125576
0.0125557
0.0125538
0.0125519
0.0125501
0.0125484
0.0125467
0.0125451
0.0125436
0.0125421
0.0125407
0.0125394
0.0125381
0.0125369
0.0125358
0.0125347
0.0125337
0.0125328
0.0125318
0.012531
0.0125301
0.0125294
0.0125286
0.012528
0.0125272
0.0125267
0.0125259
0.0125254
0.0125247
0.0125243
0.0125236
0.0125232
0.0125224
0.0125221
0.0125214
0.012521
0.0125203
0.01252
0.0125192
0.0125189
0.0125181
0.0125179
0.0125171
0.0125168
0.012516
0.0125157
0.0125149
0.0125147
0.0125138
0.0125136
0.0125128
0.0125125
0.0125117
0.0125115
0.0125106
0.0125105
)
;

boundaryField
{
    inlet
    {
        type            fixedValue;
        value           uniform 0.55;
    }
    outlet
    {
        type            zeroGradient;
    }
    emptyWalls
    {
        type            empty;
    }
}


// ************************************************************************* //
