/*--------------------------------*- C++ -*----------------------------------*\
  =========                 |
  \\      /  F ield         | OpenFOAM: The Open Source CFD Toolbox
   \\    /   O peration     | Website:  https://openfoam.org
    \\  /    A nd           | Version:  9
     \\/     M anipulation  |
\*---------------------------------------------------------------------------*/
FoamFile
{
    format      ascii;
    class       volScalarField;
    location    "20050";
    object      krb;
}
// * * * * * * * * * * * * * * * * * * * * * * * * * * * * * * * * * * * * * //

dimensions      [0 0 0 0 0 0 0];

internalField   nonuniform List<scalar> 
1000
(
0.0978446
0.0982932
0.0988583
0.0994305
0.100007
0.100586
0.101171
0.101768
0.102371
0.102981
0.103604
0.104213
0.104851
0.105433
0.106081
0.106606
0.107232
0.107688
0.108227
0.10862
0.109034
0.10936
0.10967
0.109948
0.110308
0.11114
0.114104
0.127766
0.242145
0.43923
0.484952
0.499131
0.506036
0.51039
0.513549
0.51604
0.518089
0.519832
0.52133
0.52264
0.523784
0.524793
0.525681
0.526468
0.527162
0.527777
0.528316
0.528791
0.529203
0.529556
0.529855
0.530113
0.530329
0.530504
0.530644
0.530751
0.530822
0.530855
0.53085
0.530808
0.530725
0.530583
0.530398
0.530174
0.529913
0.529618
0.529292
0.528937
0.528547
0.528109
0.527616
0.527063
0.526441
0.525732
0.52491
0.523941
0.522788
0.521426
0.519859
0.518124
0.516282
0.514371
0.512414
0.510427
0.508422
0.506407
0.504388
0.50237
0.500358
0.498354
0.496361
0.494381
0.492415
0.490464
0.48853
0.486612
0.484711
0.482828
0.480961
0.479112
0.477279
0.475464
0.473664
0.47188
0.470113
0.468361
0.466624
0.464902
0.463196
0.461504
0.459826
0.458163
0.456513
0.454878
0.453256
0.451648
0.450053
0.448471
0.446903
0.445347
0.443803
0.442272
0.440753
0.439246
0.437751
0.436268
0.434796
0.433336
0.431887
0.430449
0.429021
0.427605
0.426199
0.424804
0.423419
0.422045
0.42068
0.419326
0.417981
0.416646
0.41532
0.414004
0.412697
0.4114
0.410111
0.408831
0.40756
0.406298
0.405045
0.4038
0.402563
0.401335
0.400116
0.398905
0.397701
0.396506
0.395319
0.394139
0.392967
0.391802
0.390645
0.389496
0.388353
0.387218
0.386091
0.38497
0.383857
0.382751
0.381652
0.380559
0.379474
0.378394
0.37732
0.376252
0.37519
0.374132
0.373079
0.372031
0.370987
0.369948
0.368914
0.367884
0.366859
0.365839
0.364824
0.363815
0.362812
0.361815
0.360824
0.35984
0.358863
0.357894
0.356932
0.355979
0.355033
0.354095
0.353166
0.352244
0.35133
0.350423
0.349523
0.348629
0.347741
0.346858
0.345979
0.345105
0.344235
0.343368
0.342504
0.341643
0.340785
0.339931
0.339079
0.33823
0.337384
0.336541
0.335702
0.334866
0.334034
0.333205
0.33238
0.331559
0.330742
0.329928
0.329119
0.328314
0.327512
0.326715
0.325921
0.325132
0.324346
0.323564
0.322786
0.322011
0.32124
0.320473
0.31971
0.318949
0.318193
0.317439
0.31669
0.315943
0.3152
0.31446
0.313723
0.312989
0.312259
0.311532
0.310807
0.310086
0.309368
0.308653
0.307941
0.307232
0.306526
0.305822
0.305122
0.304424
0.30373
0.303038
0.302349
0.301662
0.300979
0.300298
0.29962
0.298944
0.298271
0.297601
0.296933
0.296268
0.295606
0.294946
0.294289
0.293634
0.292982
0.292332
0.291684
0.291039
0.290397
0.289756
0.289119
0.288483
0.28785
0.287219
0.286591
0.285965
0.285341
0.28472
0.284101
0.283484
0.282869
0.282256
0.281646
0.281038
0.280432
0.279829
0.279227
0.278628
0.27803
0.277435
0.276842
0.276251
0.275662
0.275076
0.274491
0.273908
0.273327
0.272748
0.27217
0.271595
0.271021
0.270448
0.269878
0.269308
0.26874
0.268173
0.267608
0.267044
0.266481
0.26592
0.26536
0.264802
0.264245
0.263689
0.263135
0.262583
0.262033
0.261484
0.260938
0.260393
0.259851
0.259312
0.258774
0.258239
0.257707
0.257178
0.256651
0.256127
0.255606
0.255087
0.254571
0.254058
0.253547
0.253038
0.252532
0.252027
0.251525
0.251024
0.250525
0.250027
0.249531
0.249036
0.248542
0.248049
0.247557
0.247067
0.246577
0.246088
0.2456
0.245113
0.244626
0.244141
0.243657
0.243174
0.242692
0.242211
0.241732
0.241253
0.240776
0.2403
0.239825
0.239352
0.23888
0.238409
0.237939
0.237471
0.237004
0.236539
0.236074
0.235611
0.23515
0.234689
0.23423
0.233772
0.233316
0.23286
0.232406
0.231953
0.231502
0.231051
0.230602
0.230153
0.229706
0.22926
0.228815
0.228372
0.227929
0.227488
0.227047
0.226608
0.22617
0.225732
0.225296
0.224861
0.224427
0.223994
0.223562
0.223131
0.222701
0.222272
0.221844
0.221417
0.220991
0.220566
0.220142
0.219719
0.219296
0.218875
0.218455
0.218036
0.217617
0.2172
0.216784
0.216368
0.215953
0.21554
0.215127
0.214715
0.214304
0.213894
0.213484
0.213076
0.212668
0.212262
0.211856
0.211451
0.211047
0.210644
0.210242
0.20984
0.20944
0.20904
0.208641
0.208243
0.207845
0.207449
0.207053
0.206659
0.206265
0.205872
0.205479
0.205088
0.204697
0.204307
0.203918
0.203529
0.203142
0.202755
0.202369
0.201983
0.201598
0.201214
0.200831
0.200448
0.200066
0.199684
0.199303
0.198922
0.198542
0.198163
0.197784
0.197406
0.197028
0.19665
0.196273
0.195897
0.195521
0.195146
0.194771
0.194397
0.194023
0.19365
0.193278
0.192906
0.192536
0.192166
0.191797
0.191428
0.191061
0.190695
0.190329
0.189965
0.189601
0.189239
0.188878
0.188518
0.188158
0.1878
0.187444
0.187088
0.186733
0.186379
0.186026
0.185674
0.185323
0.184973
0.184623
0.184275
0.183927
0.183579
0.183232
0.182886
0.18254
0.182195
0.18185
0.181505
0.181161
0.180817
0.180473
0.18013
0.179787
0.179445
0.179103
0.178761
0.178419
0.178078
0.177738
0.177397
0.177057
0.176718
0.176379
0.17604
0.175702
0.175364
0.175026
0.174689
0.174353
0.174017
0.173681
0.173346
0.173012
0.172677
0.172344
0.17201
0.171678
0.171345
0.171013
0.170682
0.170351
0.170021
0.169691
0.169361
0.169032
0.168703
0.168375
0.168047
0.167719
0.167392
0.167065
0.166739
0.166413
0.166087
0.165762
0.165437
0.165113
0.164788
0.164465
0.164141
0.163818
0.163496
0.163173
0.162851
0.162529
0.162208
0.161887
0.161566
0.161246
0.160926
0.160606
0.160287
0.159968
0.159649
0.15933
0.159012
0.158694
0.158377
0.158059
0.157742
0.157426
0.157109
0.156793
0.156477
0.156162
0.155846
0.155531
0.155216
0.154902
0.154587
0.154273
0.15396
0.153646
0.153333
0.15302
0.152707
0.152394
0.152082
0.15177
0.151458
0.151146
0.150835
0.150524
0.150213
0.149902
0.149592
0.149281
0.148971
0.148661
0.148351
0.148042
0.147733
0.147423
0.147114
0.146806
0.146497
0.146189
0.14588
0.145572
0.145264
0.144956
0.144648
0.144341
0.144033
0.143726
0.143418
0.143111
0.142804
0.142497
0.14219
0.141883
0.141576
0.141269
0.140962
0.140655
0.140348
0.140041
0.139734
0.139427
0.139121
0.138814
0.138507
0.138201
0.137894
0.137588
0.137281
0.136975
0.136669
0.136363
0.136056
0.135751
0.135445
0.135139
0.134834
0.134528
0.134223
0.133918
0.133614
0.133309
0.133005
0.1327
0.132397
0.132093
0.131789
0.131486
0.131183
0.130879
0.130577
0.130274
0.129971
0.129668
0.129366
0.129064
0.128761
0.128459
0.128156
0.127854
0.127551
0.127249
0.126946
0.126643
0.12634
0.126037
0.125734
0.125431
0.125127
0.124823
0.124519
0.124215
0.123911
0.123606
0.123301
0.122996
0.12269
0.122385
0.122079
0.121772
0.121466
0.121159
0.120852
0.120545
0.120238
0.11993
0.119622
0.119314
0.119005
0.118697
0.118388
0.118078
0.117769
0.117459
0.117149
0.116839
0.116528
0.116217
0.115906
0.115595
0.115283
0.114971
0.114659
0.114346
0.114034
0.113721
0.113407
0.113094
0.11278
0.112466
0.112152
0.111838
0.111523
0.111209
0.110894
0.110579
0.110265
0.10995
0.109636
0.109321
0.109007
0.108693
0.10838
0.108067
0.107756
0.107445
0.107135
0.106827
0.10652
0.106215
0.105912
0.105612
0.105316
0.105023
0.104733
0.104449
0.10417
0.103896
0.10363
0.103371
0.10312
0.102877
0.102644
0.102422
0.10221
0.10201
0.101822
0.101646
0.101482
0.101332
0.101194
0.101069
0.100956
0.100854
0.100764
0.100685
0.100615
0.100555
0.100504
0.10046
0.100422
0.100391
0.100364
0.100342
0.100323
0.100306
0.100289
0.100271
0.100247
0.100211
0.100152
0.100052
0.0998747
0.0995602
0.0990025
0.0980209
0.0963215
0.0934612
0.0888762
0.0820774
0.0730983
0.06294
0.0533487
0.0457913
0.0406838
0.037597
0.0358605
0.0349238
0.03443
0.034173
0.03404
0.0339714
0.0339361
0.0339178
0.0339084
0.0339036
0.033901
0.0338996
0.0338988
0.0338983
0.033898
0.0338978
0.0338976
0.0338974
0.0338972
0.033897
0.0338968
0.0338965
0.0338963
0.0338961
0.0338958
0.0338955
0.0338953
0.033895
0.0338947
0.0338944
0.033894
0.0338937
0.0338934
0.0338931
0.0338928
0.0338924
0.0338921
0.0338918
0.0338915
0.0338911
0.0338908
0.0338905
0.0338902
0.0338899
0.0338897
0.0338894
0.0338892
0.033889
0.0338887
0.0338885
0.0338884
0.0338882
0.0338881
0.033888
0.0338879
0.0338878
0.0338877
0.0338877
0.0338876
0.0338876
0.0338876
0.0338877
0.0338877
0.0338878
0.0338879
0.0338879
0.033888
0.0338882
0.0338883
0.0338884
0.0338885
0.0338887
0.0338888
0.033889
0.0338891
0.0338893
0.0338894
0.0338896
0.0338897
0.0338898
0.03389
0.0338901
0.0338903
0.0338904
0.0338905
0.0338906
0.0338908
0.0338909
0.033891
0.0338911
0.0338912
0.0338913
0.0338914
0.0338915
0.0338916
0.0338917
0.0338918
0.0338918
0.0338919
0.033892
0.0338921
0.0338922
0.0338922
0.0338923
0.0338924
0.0338925
0.0338926
0.0338926
0.0338927
0.0338928
0.0338929
0.033893
0.033893
0.0338931
0.0338932
0.0338933
0.0338934
0.0338935
0.0338935
0.0338936
0.0338937
0.0338938
0.0338939
0.033894
0.033894
0.0338941
0.0338942
0.0338943
0.0338944
0.0338944
0.0338945
0.0338946
0.0338947
0.0338947
0.0338948
0.0338949
0.0338949
0.033895
0.033895
0.0338951
0.0338952
0.0338952
0.0338953
0.0338953
0.0338954
0.0338954
0.0338955
0.0338955
0.0338955
0.0338956
0.0338956
0.0338956
0.0338957
0.0338957
0.0338957
0.0338957
0.0338958
0.0338958
0.0338958
0.0338958
0.0338958
0.0338959
0.0338959
0.0338959
0.0338959
0.0338959
0.0338959
0.0338959
0.0338959
0.0338959
0.0338959
0.0338959
0.0338959
0.0338959
0.0338959
0.0338959
0.0338958
0.0338958
0.0338958
0.0338958
0.0338957
0.0338957
0.0338956
0.0338956
0.0338955
0.0338955
0.0338954
0.0338954
0.0338953
)
;

boundaryField
{
    inlet
    {
        type            calculated;
        value           uniform 0.0976562;
    }
    outlet
    {
        type            calculated;
        value           uniform 0.0338953;
    }
    emptyWalls
    {
        type            empty;
    }
}


// ************************************************************************* //
