/*--------------------------------*- C++ -*----------------------------------*\
  =========                 |
  \\      /  F ield         | OpenFOAM: The Open Source CFD Toolbox
   \\    /   O peration     | Website:  https://openfoam.org
    \\  /    A nd           | Version:  9
     \\/     M anipulation  |
\*---------------------------------------------------------------------------*/
FoamFile
{
    format      ascii;
    class       volScalarField;
    location    "21150";
    object      kra;
}
// * * * * * * * * * * * * * * * * * * * * * * * * * * * * * * * * * * * * * //

dimensions      [0 0 0 0 0 0 0];

internalField   nonuniform List<scalar> 
1000
(
0.000236732
0.000237686
0.000238996
0.000240246
0.000241576
0.000242806
0.000244172
0.000245409
0.0002468
0.00024808
0.000249465
0.000250798
0.000252159
0.0002535
0.000254828
0.000256115
0.000257367
0.00025855
0.000259663
0.000260688
0.000261614
0.000262453
0.000263169
0.000263852
0.00026438
0.000265049
0.00026595
0.000268961
0.000279826
0.000339602
0.000665024
0.000853329
0.000891325
0.000905716
0.000915342
0.000924565
0.000932874
0.000938485
0.000940932
0.000941383
0.000941274
0.000939977
0.000936634
0.000933557
0.000931195
0.000929659
0.000928884
0.000928678
0.000928747
0.00092942
0.000930261
0.000930899
0.000931208
0.00093126
0.000931233
0.000931166
0.000930827
0.000930484
0.000929932
0.000929447
0.000928799
0.000928223
0.000927527
0.000926818
0.000926081
0.000925315
0.000924521
0.000923699
0.000922848
0.000921967
0.000921048
0.000920096
0.000919097
0.000918055
0.000916948
0.000915776
0.000914509
0.000913132
0.000911597
0.000909879
0.000907922
0.000905711
0.000903225
0.000900513
0.000897623
0.000894624
0.000891559
0.000888456
0.000885334
0.000882207
0.000879087
0.000875979
0.000872891
0.000869827
0.000866791
0.000863788
0.000860818
0.000857881
0.000854977
0.000852102
0.000849254
0.00084643
0.000843625
0.00084084
0.000838074
0.000835326
0.000832601
0.000829903
0.000827237
0.000824608
0.000822018
0.000819464
0.000816941
0.000814443
0.000811966
0.000809505
0.000807057
0.000804618
0.000802184
0.000799755
0.000797336
0.000794941
0.000792593
0.00079032
0.000788153
0.000786116
0.000784227
0.000782491
0.000780902
0.000779447
0.000778105
0.000776853
0.000775667
0.000774524
0.000773401
0.000772274
0.000771118
0.000769905
0.000768606
0.00076719
0.000765628
0.000763895
0.000761974
0.000759854
0.000757538
0.000755035
0.000752369
0.000749569
0.000746671
0.000743714
0.000740739
0.000737782
0.000734877
0.000732053
0.000729329
0.00072672
0.000724233
0.00072187
0.000719625
0.000717492
0.000715459
0.000713514
0.000711641
0.000709828
0.000708062
0.00070633
0.000704622
0.000702929
0.000701244
0.000699562
0.000697879
0.000696192
0.000694502
0.000692806
0.000691107
0.000689405
0.000687701
0.000685997
0.000684294
0.000682595
0.000680901
0.000679212
0.000677531
0.000675859
0.000674195
0.000672542
0.000670899
0.000669267
0.000667646
0.000666036
0.000664439
0.000662853
0.000661279
0.000659717
0.000658167
0.000656629
0.000655103
0.000653588
0.000652086
0.000650596
0.000649117
0.000647651
0.000646196
0.000644754
0.000643323
0.000641904
0.000640495
0.000639099
0.000637714
0.00063634
0.000634977
0.000633627
0.000632286
0.000630958
0.00062964
0.000628336
0.000627042
0.00062576
0.000624489
0.000623231
0.000621982
0.000620745
0.000619517
0.0006183
0.000617089
0.000615889
0.000614696
0.000613511
0.000612333
0.000611163
0.00061
0.000608845
0.000607698
0.000606559
0.000605429
0.000604307
0.000603193
0.000602087
0.000600987
0.000599894
0.000598805
0.000597721
0.00059664
0.000595562
0.000594488
0.00059342
0.000592359
0.000591309
0.000590273
0.000589256
0.000588262
0.000587295
0.000586362
0.000585465
0.000584608
0.000583794
0.000583025
0.000582301
0.000581622
0.000580986
0.000580391
0.000579832
0.000579305
0.000578803
0.000578318
0.000577844
0.00057737
0.000576888
0.000576387
0.000575858
0.000575289
0.000574673
0.000574001
0.000573264
0.000572457
0.000571576
0.000570618
0.000569584
0.000568475
0.000567298
0.000566056
0.00056476
0.000563419
0.000562042
0.000560642
0.000559229
0.000557815
0.000556408
0.000555018
0.000553654
0.000552319
0.000551021
0.000549761
0.000548542
0.000547363
0.000546224
0.000545125
0.000544061
0.00054303
0.000542029
0.000541054
0.000540102
0.000539169
0.000538252
0.000537347
0.000536452
0.000535564
0.000534682
0.000533802
0.000532924
0.000532047
0.00053117
0.000530292
0.000529413
0.000528533
0.000527652
0.000526771
0.000525888
0.000525006
0.000524123
0.000523242
0.000522361
0.000521482
0.000520605
0.00051973
0.000518858
0.000517989
0.000517123
0.000516261
0.000515402
0.000514548
0.000513698
0.000512852
0.000512011
0.000511175
0.000510343
0.000509516
0.000508694
0.000507877
0.000507065
0.000506258
0.000505456
0.000504659
0.000503867
0.00050308
0.000502298
0.000501521
0.000500749
0.000499983
0.000499221
0.000498464
0.000497713
0.000496967
0.000496225
0.000495489
0.000494758
0.000494033
0.000493312
0.000492596
0.000491886
0.00049118
0.00049048
0.000489784
0.000489092
0.000488406
0.000487723
0.000487045
0.000486371
0.000485701
0.000485034
0.000484372
0.000483713
0.000483058
0.000482407
0.000481758
0.000481114
0.000480472
0.000479834
0.000479199
0.000478567
0.000477937
0.00047731
0.000476686
0.000476064
0.000475444
0.000474826
0.000474211
0.000473599
0.000472991
0.000472386
0.000471786
0.000471192
0.000470605
0.000470026
0.000469456
0.000468898
0.000468352
0.00046782
0.000467304
0.000466804
0.000466323
0.00046586
0.000465416
0.000464992
0.000464588
0.000464204
0.000463838
0.00046349
0.000463158
0.000462841
0.000462535
0.000462239
0.00046195
0.000461664
0.000461378
0.000461088
0.00046079
0.000460481
0.000460157
0.000459814
0.000459448
0.000459056
0.000458635
0.000458182
0.000457696
0.000457175
0.000456618
0.000456025
0.000455397
0.000454734
0.000454039
0.000453314
0.000452562
0.000451787
0.000450993
0.000450183
0.000449362
0.000448534
0.000447702
0.000446872
0.000446046
0.000445227
0.000444419
0.000443624
0.000442843
0.000442078
0.00044133
0.0004406
0.000439887
0.000439191
0.000438513
0.00043785
0.000437203
0.000436569
0.000435949
0.000435339
0.000434741
0.000434151
0.000433569
0.000432993
0.000432423
0.000431857
0.000431295
0.000430735
0.000430178
0.000429622
0.000429067
0.000428512
0.000427958
0.000427404
0.000426849
0.000426295
0.00042574
0.000425186
0.000424631
0.000424076
0.000423522
0.000422967
0.000422414
0.00042186
0.000421308
0.000420757
0.000420207
0.000419658
0.000419111
0.000418565
0.000418021
0.000417479
0.000416939
0.000416401
0.000415865
0.000415332
0.0004148
0.000414271
0.000413745
0.000413221
0.000412699
0.00041218
0.000411664
0.00041115
0.000410639
0.000410131
0.000409625
0.000409122
0.000408621
0.000408124
0.000407629
0.000407137
0.000406647
0.000406161
0.000405677
0.000405195
0.000404717
0.000404241
0.000403768
0.000403298
0.00040283
0.000402365
0.000401903
0.000401443
0.000400986
0.000400531
0.000400079
0.000399629
0.000399182
0.000398737
0.000398294
0.000397854
0.000397415
0.000396979
0.000396544
0.000396112
0.000395682
0.000395253
0.000394826
0.000394401
0.000393978
0.000393556
0.000393136
0.000392718
0.000392301
0.000391885
0.000391471
0.000391059
0.000390649
0.00039024
0.000389834
0.00038943
0.000389029
0.000388631
0.000388237
0.000387847
0.000387461
0.000387079
0.000386704
0.000386335
0.000385972
0.000385617
0.00038527
0.000384931
0.000384601
0.00038428
0.000383969
0.000383668
0.000383377
0.000383095
0.000382824
0.000382562
0.000382309
0.000382066
0.00038183
0.000381601
0.000381378
0.00038116
0.000380947
0.000380735
0.000380525
0.000380315
0.000380102
0.000379885
0.000379663
0.000379433
0.000379195
0.000378946
0.000378686
0.000378411
0.000378121
0.000377816
0.000377493
0.000377152
0.000376793
0.000376414
0.000376016
0.0003756
0.000375165
0.000374712
0.000374241
0.000373755
0.000373254
0.00037274
0.000372215
0.00037168
0.000371136
0.000370587
0.000370033
0.000369476
0.000368919
0.000368362
0.000367808
0.000367257
0.000366711
0.000366171
0.000365638
0.000365112
0.000364594
0.000364085
0.000363583
0.000363091
0.000362607
0.000362131
0.000361663
0.000361202
0.000360749
0.000360302
0.000359862
0.000359427
0.000358998
0.000358573
0.000358152
0.000357734
0.00035732
0.000356908
0.000356498
0.00035609
0.000355684
0.000355278
0.000354874
0.00035447
0.000354067
0.000353663
0.000353261
0.000352858
0.000352455
0.000352052
0.00035165
0.000351247
0.000350845
0.000350442
0.00035004
0.000349637
0.000349236
0.000348834
0.000348433
0.000348032
0.000347633
0.000347233
0.000346835
0.000346437
0.000346041
0.000345645
0.000345251
0.000344856
0.000344464
0.000344073
0.000343683
0.000343294
0.000342907
0.00034252
0.000342136
0.000341753
0.000341371
0.000340991
0.000340612
0.000340235
0.000339859
0.000339485
0.000339112
0.000338741
0.000338372
0.000338004
0.000337638
0.000337273
0.00033691
0.000336549
0.000336189
0.00033583
0.000335474
0.000335119
0.000334765
0.000334413
0.000334063
0.000333714
0.000333366
0.00033302
0.000332676
0.000332333
0.000331991
0.000331651
0.000331311
0.000330974
0.000330637
0.000330302
0.000329968
0.000329635
0.000329304
0.000328973
0.000328644
0.000328315
0.000327988
0.000327661
0.000327336
0.000327012
0.000326688
0.000326366
0.000326045
0.000325725
0.000325406
0.000325088
0.000324772
0.000324457
0.000324143
0.000323831
0.000323522
0.000323214
0.000322908
0.000322605
0.000322305
0.000322007
0.000321713
0.000321422
0.000321135
0.000320852
0.000320573
0.000320299
0.000320028
0.000319763
0.000319503
0.000319248
0.000318998
0.000318753
0.000318513
0.000318279
0.000318049
0.000317825
0.000317605
0.000317389
0.000317177
0.000316969
0.000316764
0.000316562
0.000316362
0.000316163
0.000315965
0.000315767
0.000315569
0.000315369
0.000315168
0.000314963
0.000314754
0.000314541
0.000314322
0.000314098
0.000313866
0.000313627
0.000313379
0.000313122
0.000312856
0.000312579
0.000312293
0.000311995
0.000311687
0.000311368
0.000311037
0.000310696
0.000310343
0.000309982
0.000309608
0.000309227
0.000308836
0.000308436
0.00030803
0.000307616
0.000307198
0.000306774
0.000306346
0.000305915
0.000305482
0.000305049
0.000304614
0.000304181
0.000303749
0.00030332
0.000302894
0.000302472
0.000302054
0.000301642
0.000301236
0.000300836
0.000300444
0.000300059
0.000299683
0.000299314
0.000298955
0.000298605
0.000298266
0.000297938
0.000297619
0.000297314
0.000297019
0.000296737
0.000296468
0.000296212
0.00029597
0.000295741
0.000295527
0.000295325
0.000295137
0.000294964
0.000294802
0.000294656
0.000294519
0.000294396
0.000294283
0.000294181
0.000294088
0.000294004
0.000293928
0.000293859
0.000293796
0.000293738
0.000293686
0.000293637
0.000293592
0.000293548
0.000293506
0.000293465
0.000293421
0.000293373
0.000293313
0.000293233
0.000293115
0.000292928
0.000292618
0.000292089
0.000291182
0.000289631
0.000287048
0.000282949
0.000276969
0.000269306
0.000261127
0.000254162
0.000249462
0.000246839
0.000245532
0.000244904
0.000244596
0.000244438
0.000244352
0.000244302
0.00024427
0.000244248
0.000244231
0.000244216
0.000244204
0.000244193
0.000244183
0.000244173
0.000244165
0.000244157
0.000244149
0.000244143
0.000244137
0.000244131
0.000244127
0.000244123
0.000244119
0.000244116
0.000244114
0.000244113
0.000244113
0.000244113
0.000244113
0.000244113
0.000244115
0.000244117
0.00024412
0.000244123
0.000244127
0.000244132
0.000244137
0.000244142
0.000244149
0.000244155
0.000244162
0.00024417
0.000244178
0.000244187
0.000244196
0.000244206
0.000244216
0.000244227
0.000244239
0.00024425
0.000244263
0.000244276
0.00024429
0.000244304
0.00024432
0.000244335
0.000244352
0.000244369
0.000244388
0.000244407
0.000244428
0.00024445
0.000244473
0.000244497
0.000244523
0.00024455
0.000244579
0.000244609
0.000244642
0.000244676
0.000244713
0.000244751
0.000244792
0.000244835
0.000244881
0.000244929
0.000244979
0.000245032
0.000245087
0.000245146
0.000245206
0.00024527
0.000245335
0.000245404
0.000245475
0.000245548
0.000245623
0.000245701
0.00024578
0.000245861
0.000245943
0.000246027
0.000246112
0.000246198
0.000246284
0.00024637
0.000246456
0.000246542
0.000246627
0.000246711
0.000246793
0.000246873
0.000246951
0.000247026
0.000247099
0.000247168
0.000247233
0.000247294
0.00024735
0.000247403
0.000247449
0.000247491
0.000247526
0.000247556
0.00024758
0.000247597
0.000247607
0.000247611
0.000247611
0.00024761
0.000247602
0.000247597
0.000247571
0.000247548
0.000247501
0.000247467
0.000247414
0.00024737
0.00024731
0.000247256
0.000247193
0.00024713
0.000247064
0.000246993
0.000246927
0.000246849
0.000246785
0.000246702
0.000246641
0.000246553
0.000246498
0.000246407
0.000246357
0.000246265
0.000246223
0.000246129
)
;

boundaryField
{
    inlet
    {
        type            calculated;
        value           uniform 0.000236304;
    }
    outlet
    {
        type            calculated;
        value           uniform 0.000246111;
    }
    emptyWalls
    {
        type            empty;
    }
}


// ************************************************************************* //
