/*--------------------------------*- C++ -*----------------------------------*\
  =========                 |
  \\      /  F ield         | OpenFOAM: The Open Source CFD Toolbox
   \\    /   O peration     | Website:  https://openfoam.org
    \\  /    A nd           | Version:  9
     \\/     M anipulation  |
\*---------------------------------------------------------------------------*/
FoamFile
{
    format      ascii;
    class       volScalarField;
    location    "5750";
    object      Sb;
}
// * * * * * * * * * * * * * * * * * * * * * * * * * * * * * * * * * * * * * //

dimensions      [0 0 0 0 0 0 0];

internalField   nonuniform List<scalar> 
1000
(
0.351389
0.353592
0.356552
0.358665
0.361086
0.364789
0.375937
0.43281
0.615544
0.660931
0.672274
0.677077
0.679663
0.681158
0.682043
0.682537
0.682782
0.682798
0.682565
0.681863
0.680445
0.678037
0.674801
0.671222
0.667505
0.663749
0.660007
0.656308
0.652669
0.649097
0.645596
0.642167
0.63881
0.635524
0.632307
0.629156
0.62607
0.623046
0.620082
0.617176
0.614326
0.611529
0.608784
0.606088
0.603441
0.60084
0.598283
0.59577
0.593298
0.590866
0.588472
0.586117
0.583797
0.581512
0.579261
0.577043
0.574856
0.5727
0.570573
0.568475
0.566405
0.564362
0.562345
0.560353
0.558386
0.556442
0.554522
0.552624
0.550748
0.548893
0.547058
0.545244
0.543449
0.541673
0.539915
0.538176
0.536454
0.534749
0.533061
0.531389
0.529733
0.528093
0.526467
0.524856
0.52326
0.521678
0.520109
0.518554
0.517012
0.515482
0.513965
0.51246
0.510967
0.509485
0.508015
0.506555
0.505106
0.503667
0.502239
0.50082
0.499411
0.498012
0.496622
0.49524
0.493868
0.492504
0.491148
0.489801
0.488461
0.487128
0.485802
0.484483
0.483171
0.481865
0.480566
0.479272
0.477985
0.476704
0.475429
0.474161
0.472898
0.471642
0.470393
0.469149
0.467913
0.466683
0.46546
0.464243
0.463033
0.46183
0.460633
0.459443
0.458259
0.45708
0.455907
0.454739
0.453575
0.452416
0.451259
0.450106
0.448956
0.447808
0.446662
0.445518
0.444375
0.443235
0.442096
0.440958
0.439822
0.438687
0.437554
0.436422
0.435292
0.434162
0.433035
0.431909
0.430785
0.429662
0.42854
0.42742
0.426301
0.425183
0.424066
0.42295
0.421834
0.420719
0.419605
0.418491
0.417377
0.416263
0.415149
0.414035
0.41292
0.411804
0.410688
0.409571
0.408453
0.407333
0.406212
0.405089
0.403964
0.402837
0.401708
0.400577
0.399443
0.398306
0.397167
0.396024
0.394878
0.393728
0.392575
0.391417
0.390255
0.389089
0.387918
0.386742
0.385561
0.384375
0.383183
0.381986
0.380783
0.379573
0.378358
0.377137
0.37591
0.374678
0.373441
0.3722
0.370956
0.369712
0.368469
0.367232
0.366005
0.364792
0.363601
0.362439
0.361313
0.360231
0.359201
0.358224
0.357296
0.356399
0.355495
0.354503
0.353284
0.351587
0.349001
0.34489
0.338395
0.328643
0.315328
0.299484
0.283567
0.270206
0.260679
0.254696
0.25125
0.249368
0.24837
0.24785
0.247581
0.247443
0.247372
0.247336
0.247317
0.247308
0.247303
0.2473
0.247299
0.247298
0.247298
0.247298
0.247298
0.247298
0.247298
0.247297
0.247297
0.247297
0.247297
0.247297
0.247297
0.247296
0.247296
0.247296
0.247296
0.247296
0.247296
0.247295
0.247295
0.247295
0.247295
0.247295
0.247294
0.247294
0.247294
0.247294
0.247294
0.247293
0.247293
0.247293
0.247293
0.247292
0.247292
0.247292
0.247292
0.247291
0.247291
0.247291
0.247291
0.24729
0.24729
0.247289
0.247289
0.247288
0.247288
0.247287
0.247287
0.247286
0.247285
0.247285
0.247284
0.247283
0.247282
0.247281
0.24728
0.247279
0.247278
0.247277
0.247276
0.247274
0.247273
0.247272
0.247271
0.247269
0.247268
0.247267
0.247266
0.247265
0.247264
0.247263
0.247263
0.247262
0.247262
0.247261
0.247261
0.247261
0.247261
0.247261
0.247262
0.247262
0.247263
0.247264
0.247265
0.247266
0.247267
0.247268
0.247269
0.24727
0.247271
0.247272
0.247273
0.247274
0.247275
0.247275
0.247276
0.247277
0.247277
0.247278
0.247278
0.247278
0.247278
0.247279
0.247279
0.247279
0.247279
0.247278
0.247278
0.247278
0.247278
0.247278
0.247278
0.247277
0.247277
0.247277
0.247277
0.247277
0.247276
0.247276
0.247276
0.247276
0.247276
0.247276
0.247276
0.247276
0.247276
0.247276
0.247276
0.247276
0.247276
0.247276
0.247276
0.247277
0.247277
0.247277
0.247277
0.247277
0.247278
0.247278
0.247278
0.247278
0.247278
0.247279
0.247279
0.247279
0.24728
0.24728
0.24728
0.24728
0.247281
0.247281
0.247281
0.247282
0.247282
0.247282
0.247282
0.247283
0.247283
0.247283
0.247284
0.247284
0.247284
0.247284
0.247285
0.247285
0.247285
0.247285
0.247286
0.247286
0.247286
0.247286
0.247286
0.247287
0.247287
0.247287
0.247287
0.247287
0.247287
0.247287
0.247288
0.247288
0.247288
0.247288
0.247288
0.247288
0.247288
0.247288
0.247288
0.247288
0.247288
0.247288
0.247288
0.247288
0.247288
0.247288
0.247288
0.247288
0.247288
0.247288
0.247288
0.247288
0.247288
0.247288
0.247288
0.247288
0.247288
0.247288
0.247288
0.247288
0.247288
0.247288
0.247288
0.247288
0.247288
0.247288
0.247288
0.247287
0.247287
0.247287
0.247287
0.247287
0.247287
0.247287
0.247287
0.247286
0.247286
0.247286
0.247286
0.247286
0.247285
0.247285
0.247285
0.247285
0.247285
0.247284
0.247284
0.247284
0.247284
0.247284
0.247284
0.247284
0.247284
0.247284
0.247283
0.247283
0.247283
0.247283
0.247283
0.247282
0.247282
0.247282
0.247282
0.247281
0.247281
0.24728
0.24728
0.247279
0.247279
0.247278
0.247277
0.247277
0.247276
0.247275
0.247274
0.247274
0.247273
0.247272
0.247271
0.24727
0.247269
0.247268
0.247267
0.247266
0.247265
0.247264
0.247264
0.247263
0.247262
0.247261
0.24726
0.24726
0.247259
0.247259
0.247258
0.247258
0.247258
0.247258
0.247258
0.247258
0.247258
0.247258
0.247259
0.247259
0.24726
0.247261
0.247261
0.247262
0.247263
0.247264
0.247265
0.247266
0.247267
0.247269
0.24727
0.247271
0.247272
0.247273
0.247274
0.247274
0.247275
0.247276
0.247277
0.247277
0.247278
0.247278
0.247279
0.247279
0.247279
0.24728
0.24728
0.24728
0.24728
0.24728
0.24728
0.24728
0.24728
0.24728
0.24728
0.24728
0.24728
0.24728
0.24728
0.24728
0.24728
0.24728
0.24728
0.24728
0.24728
0.247281
0.247281
0.247281
0.247281
0.247281
0.247281
0.247281
0.247281
0.247281
0.247281
0.247282
0.247282
0.247282
0.247282
0.247282
0.247282
0.247282
0.247283
0.247283
0.247283
0.247283
0.247283
0.247283
0.247284
0.247284
0.247284
0.247284
0.247284
0.247284
0.247284
0.247285
0.247285
0.247285
0.247285
0.247285
0.247285
0.247286
0.247286
0.247286
0.247286
0.247286
0.247286
0.247286
0.247287
0.247287
0.247287
0.247287
0.247287
0.247287
0.247287
0.247287
0.247288
0.247288
0.247288
0.247288
0.247288
0.247288
0.247288
0.247288
0.247288
0.247288
0.247289
0.247289
0.247289
0.247289
0.247289
0.247289
0.247289
0.247289
0.247289
0.247289
0.247289
0.247289
0.247289
0.247289
0.247289
0.247289
0.247289
0.247289
0.247289
0.247288
0.247288
0.247288
0.247288
0.247288
0.247288
0.247288
0.247288
0.247288
0.247288
0.247288
0.247288
0.247288
0.247288
0.247288
0.247288
0.247288
0.247287
0.247287
0.247287
0.247287
0.247287
0.247287
0.247287
0.247287
0.247287
0.247287
0.247287
0.247287
0.247287
0.247286
0.247286
0.247286
0.247286
0.247286
0.247286
0.247285
0.247285
0.247285
0.247285
0.247284
0.247284
0.247284
0.247283
0.247283
0.247282
0.247282
0.247281
0.247281
0.24728
0.24728
0.247279
0.247278
0.247278
0.247277
0.247276
0.247276
0.247275
0.247274
0.247273
0.247273
0.247272
0.247271
0.24727
0.247269
0.247269
0.247268
0.247267
0.247266
0.247265
0.247265
0.247264
0.247263
0.247263
0.247262
0.247262
0.247261
0.247261
0.24726
0.24726
0.24726
0.24726
0.24726
0.24726
0.24726
0.24726
0.247261
0.247261
0.247262
0.247262
0.247263
0.247264
0.247265
0.247265
0.247266
0.247267
0.247268
0.247269
0.24727
0.247271
0.247272
0.247273
0.247274
0.247275
0.247276
0.247276
0.247277
0.247278
0.247278
0.247279
0.247279
0.24728
0.24728
0.247281
0.247281
0.247281
0.247281
0.247282
0.247282
0.247282
0.247282
0.247282
0.247282
0.247282
0.247282
0.247282
0.247282
0.247282
0.247282
0.247282
0.247282
0.247282
0.247282
0.247282
0.247282
0.247282
0.247282
0.247282
0.247282
0.247282
0.247282
0.247282
0.247282
0.247282
0.247282
0.247282
0.247282
0.247283
0.247283
0.247283
0.247283
0.247283
0.247283
0.247283
0.247283
0.247283
0.247283
0.247283
0.247283
0.247283
0.247283
0.247283
0.247283
0.247283
0.247283
0.247284
0.247284
0.247284
0.247284
0.247284
0.247284
0.247284
0.247284
0.247284
0.247284
0.247284
0.247284
0.247284
0.247284
0.247284
0.247284
0.247285
0.247285
0.247285
0.247285
0.247285
0.247285
0.247285
0.247285
0.247285
0.247285
0.247286
0.247286
0.247286
0.247286
0.247286
0.247286
0.247286
0.247286
0.247287
0.247287
0.247287
0.247287
0.247287
0.247287
0.247287
0.247287
0.247287
0.247288
0.247288
0.247288
0.247288
0.247288
0.247288
0.247288
0.247288
0.247288
0.247288
0.247288
0.247288
0.247288
0.247288
0.247288
0.247288
0.247288
0.247288
0.247288
0.247288
0.247287
0.247287
0.247287
0.247287
0.247287
0.247287
0.247287
0.247287
0.247287
0.247287
0.247286
0.247286
0.247286
0.247286
0.247286
0.247286
0.247286
0.247286
0.247285
0.247285
0.247285
0.247285
0.247285
0.247284
0.247284
0.247284
0.247283
0.247283
0.247283
0.247283
0.247282
0.247282
0.247281
0.247281
0.247281
0.24728
0.247279
0.247279
0.247278
0.247278
0.247277
0.247277
0.247276
0.247276
0.247276
0.247287
0.24732
0.247655
0.249385
0.249976
0.25
0.25
0.25
0.25
0.25
0.25
0.25
0.25
0.25
0.25
0.25
0.25
0.25
0.25
0.25
0.25
0.25
0.25
0.25
0.25
0.25
0.25
0.25
0.25
0.25
0.25
0.25
0.25
0.25
0.25
0.25
0.25
0.25
0.25
0.25
0.25
0.25
0.25
0.25
0.25
0.25
0.25
0.25
0.25
0.25
0.25
0.25
0.25
0.25
0.25
0.25
0.25
0.25
0.25
0.25
)
;

boundaryField
{
    inlet
    {
        type            fixedValue;
        value           uniform 0.35;
    }
    outlet
    {
        type            zeroGradient;
    }
    emptyWalls
    {
        type            empty;
    }
}


// ************************************************************************* //
