/*--------------------------------*- C++ -*----------------------------------*\
  =========                 |
  \\      /  F ield         | OpenFOAM: The Open Source CFD Toolbox
   \\    /   O peration     | Website:  https://openfoam.org
    \\  /    A nd           | Version:  9
     \\/     M anipulation  |
\*---------------------------------------------------------------------------*/
FoamFile
{
    format      ascii;
    class       volScalarField;
    location    "12550";
    object      krc;
}
// * * * * * * * * * * * * * * * * * * * * * * * * * * * * * * * * * * * * * //

dimensions      [0 0 0 0 0 0 0];

internalField   nonuniform List<scalar> 
1000
(
3.18868e-07
3.21418e-06
1.11716e-05
2.33595e-05
3.96686e-05
5.99778e-05
8.39726e-05
0.000111045
0.000140244
0.000170321
0.000199928
0.000227893
0.000253819
0.000280215
0.000323536
0.000467467
0.0012087
0.0103668
0.0357513
0.0434618
0.0462766
0.0478306
0.0489155
0.0497703
0.0504917
0.0511227
0.0516887
0.0522025
0.0526742
0.0531108
0.0535191
0.0539048
0.0542729
0.0546283
0.0549743
0.0553153
0.0556535
0.055996
0.0563538
0.0567187
0.057092
0.0574782
0.057884
0.0583199
0.0588019
0.0593519
0.0599959
0.0607571
0.0616441
0.0626422
0.0637219
0.0648558
0.0660255
0.0672188
0.0684275
0.0696462
0.070871
0.0720992
0.0733288
0.0745583
0.0757868
0.0770134
0.0782375
0.0794585
0.0806763
0.0818904
0.0831007
0.084307
0.0855092
0.0867069
0.0879005
0.0890895
0.090274
0.0914539
0.0926292
0.0938
0.0949662
0.0961279
0.097285
0.0984376
0.0995857
0.100729
0.101869
0.103004
0.104134
0.10526
0.106383
0.107501
0.108614
0.109724
0.11083
0.111931
0.113028
0.114122
0.115211
0.116296
0.117377
0.118454
0.119527
0.120596
0.121661
0.122722
0.123779
0.124833
0.125882
0.126928
0.12797
0.129009
0.130043
0.131075
0.132102
0.133127
0.134148
0.135165
0.136179
0.13719
0.138197
0.139201
0.140202
0.141199
0.142194
0.143185
0.144173
0.145158
0.14614
0.147118
0.148094
0.149067
0.150037
0.151003
0.151967
0.152929
0.153887
0.154842
0.155795
0.156745
0.157692
0.158636
0.159578
0.160517
0.161454
0.162387
0.163319
0.164247
0.165174
0.166097
0.167018
0.167937
0.168854
0.169767
0.170679
0.171588
0.172495
0.1734
0.174302
0.175202
0.1761
0.176995
0.177888
0.178779
0.179668
0.180555
0.18144
0.182323
0.183203
0.184082
0.184958
0.185833
0.186705
0.187576
0.188444
0.189311
0.190175
0.191038
0.191899
0.192758
0.193615
0.194471
0.195324
0.196176
0.197026
0.197875
0.198721
0.199566
0.200409
0.201251
0.202091
0.202929
0.203766
0.204601
0.205434
0.206266
0.207096
0.207925
0.208752
0.209578
0.210402
0.211225
0.212046
0.212866
0.213685
0.214501
0.215317
0.216131
0.216943
0.217754
0.218564
0.219372
0.220179
0.220984
0.221788
0.222591
0.223393
0.224193
0.224991
0.225789
0.226585
0.22738
0.228175
0.228968
0.22976
0.230551
0.231341
0.23213
0.232918
0.233705
0.234492
0.235278
0.236063
0.236847
0.23763
0.238413
0.239195
0.239976
0.240756
0.241535
0.242314
0.243091
0.243868
0.244643
0.245418
0.246192
0.246965
0.247736
0.248507
0.249277
0.250046
0.250814
0.251582
0.252348
0.253114
0.253879
0.254643
0.255406
0.256169
0.256931
0.257692
0.258452
0.259212
0.259971
0.26073
0.261488
0.262246
0.263003
0.263759
0.264515
0.26527
0.266025
0.266779
0.267533
0.268286
0.269039
0.269791
0.270543
0.271294
0.272045
0.272796
0.273546
0.274295
0.275045
0.275794
0.276542
0.27729
0.278038
0.278785
0.279532
0.280279
0.281026
0.281772
0.282518
0.283263
0.284008
0.284753
0.285498
0.286243
0.286987
0.287731
0.288475
0.289219
0.289963
0.290706
0.291449
0.292193
0.292936
0.293679
0.294421
0.295164
0.295907
0.296649
0.297392
0.298134
0.298877
0.299619
0.300362
0.301104
0.301847
0.302589
0.303332
0.304074
0.304817
0.305559
0.306302
0.307045
0.307788
0.308531
0.309275
0.310018
0.310762
0.311506
0.31225
0.312994
0.313739
0.314484
0.315229
0.315974
0.31672
0.317466
0.318212
0.318959
0.319706
0.320453
0.321201
0.321949
0.322697
0.323446
0.324196
0.324946
0.325696
0.326447
0.327198
0.32795
0.328702
0.329455
0.330209
0.330963
0.331718
0.332473
0.333229
0.333985
0.334742
0.3355
0.336259
0.337018
0.337777
0.338538
0.339299
0.340061
0.340823
0.341587
0.342351
0.343115
0.343881
0.344648
0.345415
0.346183
0.346952
0.347722
0.348493
0.349265
0.350038
0.350813
0.351588
0.352365
0.353143
0.353922
0.354703
0.355485
0.356268
0.357053
0.35784
0.358628
0.359418
0.36021
0.361003
0.361798
0.362595
0.363394
0.364195
0.364997
0.365801
0.366608
0.367416
0.368226
0.369038
0.369852
0.370667
0.371485
0.372304
0.373126
0.373949
0.374774
0.375602
0.376431
0.377262
0.378095
0.378931
0.379769
0.380608
0.38145
0.382294
0.383141
0.38399
0.384841
0.385695
0.386551
0.38741
0.388272
0.389136
0.390003
0.390873
0.391746
0.392622
0.393501
0.394383
0.395269
0.396157
0.397049
0.397944
0.398842
0.399744
0.400649
0.401558
0.402471
0.403388
0.404307
0.405231
0.406158
0.40709
0.408025
0.408964
0.409908
0.410854
0.411805
0.41276
0.413719
0.414681
0.415648
0.416618
0.417591
0.418568
0.419548
0.420531
0.421516
0.422503
0.423491
0.42448
0.425468
0.426455
0.427439
0.428419
0.429392
0.430357
0.431311
0.432251
0.433174
0.434076
0.434955
0.435805
0.436623
0.437404
0.438145
0.438842
0.439492
0.440093
0.440643
0.441141
0.441587
0.441983
0.442332
0.442638
0.442907
0.443149
0.443376
0.443613
0.443895
0.444286
0.444895
0.445911
0.447661
0.450698
0.455921
0.464662
0.478587
0.499068
0.525852
0.555848
0.583931
0.605933
0.620756
0.629701
0.63473
0.637441
0.638869
0.639613
0.639997
0.640195
0.640296
0.640348
0.640374
0.640388
0.640394
0.640397
0.640399
0.640399
0.640399
0.640399
0.640398
0.640397
0.640397
0.640396
0.640395
0.640395
0.640394
0.640393
0.640392
0.640391
0.640391
0.64039
0.640389
0.640387
0.640386
0.640385
0.640384
0.640382
0.640381
0.640379
0.640378
0.640376
0.640374
0.640372
0.64037
0.640367
0.640365
0.640362
0.640359
0.640356
0.640353
0.64035
0.640346
0.640343
0.640339
0.640335
0.640331
0.640327
0.640322
0.640318
0.640313
0.640309
0.640304
0.6403
0.640295
0.64029
0.640286
0.640282
0.640277
0.640273
0.640269
0.640266
0.640262
0.640259
0.640257
0.640254
0.640252
0.640251
0.64025
0.640249
0.640249
0.640249
0.64025
0.640251
0.640252
0.640254
0.640257
0.64026
0.640263
0.640267
0.640271
0.640275
0.64028
0.640285
0.64029
0.640295
0.6403
0.640306
0.640311
0.640316
0.640321
0.640326
0.640331
0.640336
0.640341
0.640345
0.640349
0.640353
0.640357
0.64036
0.640363
0.640366
0.640369
0.640371
0.640374
0.640376
0.640377
0.640379
0.640381
0.640382
0.640383
0.640384
0.640385
0.640386
0.640387
0.640388
0.640389
0.640389
0.64039
0.640391
0.640391
0.640392
0.640393
0.640393
0.640394
0.640395
0.640395
0.640396
0.640397
0.640397
0.640398
0.640399
0.640399
0.6404
0.640401
0.640402
0.640403
0.640403
0.640404
0.640405
0.640406
0.640407
0.640408
0.640408
0.640409
0.64041
0.640411
0.640412
0.640412
0.640413
0.640414
0.640415
0.640415
0.640416
0.640417
0.640418
0.640418
0.640419
0.64042
0.64042
0.640421
0.640421
0.640422
0.640422
0.640423
0.640423
0.640424
0.640424
0.640425
0.640425
0.640426
0.640426
0.640426
0.640427
0.640427
0.640427
0.640428
0.640428
0.640428
0.640428
0.640429
0.640429
0.640429
0.640429
0.640429
0.640429
0.640429
0.640429
0.640429
0.640429
0.640429
0.640429
0.640429
0.640429
0.640429
0.640429
0.640429
0.640428
0.640428
0.640428
0.640428
0.640427
0.640427
0.640427
0.640427
0.640427
0.640426
0.640426
0.640426
0.640425
0.640425
0.640425
0.640424
0.640424
0.640423
0.640423
0.640422
0.640421
0.64042
0.64042
0.640419
0.640418
0.640417
0.640415
0.640414
0.640413
0.640412
0.64041
0.640409
0.640408
0.640406
0.640405
0.640403
0.640401
0.6404
0.640398
0.640396
0.640394
0.640392
0.64039
0.640387
0.640385
0.640383
0.64038
0.640377
0.640374
0.640371
0.640368
0.640365
0.640361
0.640358
0.640354
0.64035
0.640346
0.640342
0.640338
0.640334
0.64033
0.640325
0.640321
0.640317
0.640312
0.640308
0.640304
0.6403
0.640296
0.640292
0.640288
0.640284
0.640281
0.640278
0.640275
0.640272
0.64027
0.640268
0.640266
0.640265
0.640264
0.640264
0.640263
0.640263
0.640263
0.640264
0.640265
0.640266
0.640268
0.640271
0.640273
0.640276
0.640279
0.640283
0.640286
0.64029
0.640294
0.640298
0.640302
0.640306
0.64031
0.640314
0.640318
0.640322
0.640326
0.64033
0.640334
0.640338
0.640341
0.640344
0.640348
0.640351
0.640353
0.640356
0.640359
0.640361
0.640363
0.640365
0.640367
0.640369
0.640371
0.640372
0.640374
0.640375
0.640376
0.640377
0.640379
0.64038
0.640381
0.640382
0.640383
0.640384
0.640384
0.640385
0.640386
0.640387
0.640388
0.640389
0.64039
0.640391
0.640392
0.640393
0.640393
0.640394
0.640395
0.640396
0.640397
0.640398
0.640399
0.6404
0.640401
0.640402
0.640403
0.640404
0.640405
0.640406
0.640407
0.640408
0.640409
0.64041
0.640411
0.640412
0.640413
0.640414
0.640415
0.640416
0.640416
0.640417
0.640418
0.640419
0.640419
0.64042
0.640421
0.640421
0.640422
0.640422
0.640423
0.640423
0.640424
0.640424
0.640425
0.640425
0.640426
0.640426
0.640426
0.640427
0.640427
0.640427
0.640427
0.640428
0.640428
0.640428
0.640428
0.640428
0.640428
0.640428
0.640428
0.640428
0.640428
0.640428
0.640428
0.640428
0.640428
0.640428
0.640428
0.640428
0.640428
0.640428
0.640427
0.640427
0.640427
0.640427
0.640426
0.640426
0.640426
0.640425
0.640425
0.640424
0.640424
0.640423
0.640423
0.640422
0.640422
0.640421
0.64042
0.64042
0.640419
0.640418
0.640417
0.640416
0.640415
0.640414
0.640413
0.640412
0.640411
0.64041
0.640409
0.640408
0.640406
0.640405
0.640404
0.640402
0.640401
0.640399
0.640397
0.640395
0.640393
0.640391
0.640389
0.640387
0.640385
0.640382
0.64038
0.640377
0.640375
0.640372
0.640369
0.640366
0.640363
0.640359
0.640356
0.640352
0.640349
0.640345
0.640342
0.640338
0.640334
0.64033
0.640326
0.640322
0.640318
0.640315
0.640311
0.640307
0.640303
0.6403
0.640296
0.640293
0.64029
0.640287
0.640283
0.640281
0.640278
0.640277
0.640274
0.640273
0.64027
)
;

boundaryField
{
    inlet
    {
        type            calculated;
        value           uniform 3.08149e-33;
    }
    outlet
    {
        type            calculated;
        value           uniform 0.64027;
    }
    emptyWalls
    {
        type            empty;
    }
}


// ************************************************************************* //
