/*--------------------------------*- C++ -*----------------------------------*\
  =========                 |
  \\      /  F ield         | OpenFOAM: The Open Source CFD Toolbox
   \\    /   O peration     | Website:  https://openfoam.org
    \\  /    A nd           | Version:  9
     \\/     M anipulation  |
\*---------------------------------------------------------------------------*/
FoamFile
{
    format      ascii;
    class       volVectorField;
    location    "12550";
    object      Ub;
}
// * * * * * * * * * * * * * * * * * * * * * * * * * * * * * * * * * * * * * //

dimensions      [0 0 0 0 0 0 0];

internalField   nonuniform List<vector> 
1000
(
(1.13618e-05 0 0)
(1.13623e-05 0 0)
(1.13627e-05 0 0)
(1.13629e-05 0 0)
(1.13634e-05 0 0)
(1.13637e-05 0 0)
(1.13642e-05 0 0)
(1.13648e-05 0 0)
(1.13655e-05 0 0)
(1.13661e-05 0 0)
(1.13667e-05 0 0)
(1.13673e-05 0 0)
(1.13678e-05 0 0)
(1.13686e-05 0 0)
(1.137e-05 0 0)
(1.13749e-05 0 0)
(1.13974e-05 0 0)
(1.15417e-05 0 0)
(1.17089e-05 0 0)
(1.17606e-05 0 0)
(1.17757e-05 0 0)
(1.1783e-05 0 0)
(1.17878e-05 0 0)
(1.17914e-05 0 0)
(1.17943e-05 0 0)
(1.17967e-05 0 0)
(1.17988e-05 0 0)
(1.18005e-05 0 0)
(1.18019e-05 0 0)
(1.18031e-05 0 0)
(1.18041e-05 0 0)
(1.18049e-05 0 0)
(1.18055e-05 0 0)
(1.1806e-05 0 0)
(1.18063e-05 0 0)
(1.18065e-05 0 0)
(1.18066e-05 0 0)
(1.18065e-05 0 0)
(1.18063e-05 0 0)
(1.18059e-05 0 0)
(1.18053e-05 0 0)
(1.18045e-05 0 0)
(1.18035e-05 0 0)
(1.18021e-05 0 0)
(1.18004e-05 0 0)
(1.17981e-05 0 0)
(1.17951e-05 0 0)
(1.17912e-05 0 0)
(1.17862e-05 0 0)
(1.17804e-05 0 0)
(1.1774e-05 0 0)
(1.17673e-05 0 0)
(1.17603e-05 0 0)
(1.17532e-05 0 0)
(1.17459e-05 0 0)
(1.17385e-05 0 0)
(1.17309e-05 0 0)
(1.17233e-05 0 0)
(1.17156e-05 0 0)
(1.17078e-05 0 0)
(1.16998e-05 0 0)
(1.16918e-05 0 0)
(1.16837e-05 0 0)
(1.16755e-05 0 0)
(1.16672e-05 0 0)
(1.1659e-05 0 0)
(1.16508e-05 0 0)
(1.16425e-05 0 0)
(1.1634e-05 0 0)
(1.16253e-05 0 0)
(1.16163e-05 0 0)
(1.16068e-05 0 0)
(1.15969e-05 0 0)
(1.15865e-05 0 0)
(1.15759e-05 0 0)
(1.15649e-05 0 0)
(1.15538e-05 0 0)
(1.15426e-05 0 0)
(1.15315e-05 0 0)
(1.15203e-05 0 0)
(1.15094e-05 0 0)
(1.14987e-05 0 0)
(1.14883e-05 0 0)
(1.14784e-05 0 0)
(1.14691e-05 0 0)
(1.14604e-05 0 0)
(1.14524e-05 0 0)
(1.14451e-05 0 0)
(1.14384e-05 0 0)
(1.14323e-05 0 0)
(1.14267e-05 0 0)
(1.14214e-05 0 0)
(1.14163e-05 0 0)
(1.14111e-05 0 0)
(1.14059e-05 0 0)
(1.14003e-05 0 0)
(1.13945e-05 0 0)
(1.13882e-05 0 0)
(1.13815e-05 0 0)
(1.13743e-05 0 0)
(1.13667e-05 0 0)
(1.13588e-05 0 0)
(1.13505e-05 0 0)
(1.13419e-05 0 0)
(1.13332e-05 0 0)
(1.13242e-05 0 0)
(1.13152e-05 0 0)
(1.13061e-05 0 0)
(1.1297e-05 0 0)
(1.12879e-05 0 0)
(1.12788e-05 0 0)
(1.12697e-05 0 0)
(1.12608e-05 0 0)
(1.12518e-05 0 0)
(1.12429e-05 0 0)
(1.12341e-05 0 0)
(1.12253e-05 0 0)
(1.12165e-05 0 0)
(1.12077e-05 0 0)
(1.1199e-05 0 0)
(1.11902e-05 0 0)
(1.11815e-05 0 0)
(1.11727e-05 0 0)
(1.1164e-05 0 0)
(1.11552e-05 0 0)
(1.11464e-05 0 0)
(1.11376e-05 0 0)
(1.11288e-05 0 0)
(1.11199e-05 0 0)
(1.11111e-05 0 0)
(1.11022e-05 0 0)
(1.10933e-05 0 0)
(1.10843e-05 0 0)
(1.10754e-05 0 0)
(1.10665e-05 0 0)
(1.10575e-05 0 0)
(1.10485e-05 0 0)
(1.10395e-05 0 0)
(1.10305e-05 0 0)
(1.10214e-05 0 0)
(1.10124e-05 0 0)
(1.10033e-05 0 0)
(1.09942e-05 0 0)
(1.09851e-05 0 0)
(1.09759e-05 0 0)
(1.09668e-05 0 0)
(1.09576e-05 0 0)
(1.09484e-05 0 0)
(1.09392e-05 0 0)
(1.093e-05 0 0)
(1.09207e-05 0 0)
(1.09114e-05 0 0)
(1.09021e-05 0 0)
(1.08928e-05 0 0)
(1.08834e-05 0 0)
(1.08741e-05 0 0)
(1.08647e-05 0 0)
(1.08553e-05 0 0)
(1.08458e-05 0 0)
(1.08364e-05 0 0)
(1.08269e-05 0 0)
(1.08174e-05 0 0)
(1.08079e-05 0 0)
(1.07983e-05 0 0)
(1.07887e-05 0 0)
(1.07791e-05 0 0)
(1.07695e-05 0 0)
(1.07599e-05 0 0)
(1.07502e-05 0 0)
(1.07405e-05 0 0)
(1.07308e-05 0 0)
(1.07211e-05 0 0)
(1.07113e-05 0 0)
(1.07015e-05 0 0)
(1.06917e-05 0 0)
(1.06819e-05 0 0)
(1.0672e-05 0 0)
(1.06622e-05 0 0)
(1.06523e-05 0 0)
(1.06424e-05 0 0)
(1.06325e-05 0 0)
(1.06226e-05 0 0)
(1.06127e-05 0 0)
(1.06027e-05 0 0)
(1.05928e-05 0 0)
(1.05828e-05 0 0)
(1.05728e-05 0 0)
(1.05628e-05 0 0)
(1.05527e-05 0 0)
(1.05427e-05 0 0)
(1.05326e-05 0 0)
(1.05225e-05 0 0)
(1.05124e-05 0 0)
(1.05022e-05 0 0)
(1.04921e-05 0 0)
(1.04819e-05 0 0)
(1.04717e-05 0 0)
(1.04614e-05 0 0)
(1.04511e-05 0 0)
(1.04407e-05 0 0)
(1.04303e-05 0 0)
(1.04198e-05 0 0)
(1.04091e-05 0 0)
(1.03984e-05 0 0)
(1.03876e-05 0 0)
(1.03767e-05 0 0)
(1.03656e-05 0 0)
(1.03544e-05 0 0)
(1.03431e-05 0 0)
(1.03316e-05 0 0)
(1.03201e-05 0 0)
(1.03085e-05 0 0)
(1.02967e-05 0 0)
(1.02849e-05 0 0)
(1.02731e-05 0 0)
(1.02612e-05 0 0)
(1.02493e-05 0 0)
(1.02375e-05 0 0)
(1.02257e-05 0 0)
(1.02141e-05 0 0)
(1.02025e-05 0 0)
(1.01911e-05 0 0)
(1.01799e-05 0 0)
(1.0169e-05 0 0)
(1.01582e-05 0 0)
(1.01476e-05 0 0)
(1.01374e-05 0 0)
(1.01273e-05 0 0)
(1.01175e-05 0 0)
(1.01079e-05 0 0)
(1.00985e-05 0 0)
(1.00893e-05 0 0)
(1.00802e-05 0 0)
(1.00711e-05 0 0)
(1.00622e-05 0 0)
(1.00533e-05 0 0)
(1.00443e-05 0 0)
(1.00353e-05 0 0)
(1.00262e-05 0 0)
(1.0017e-05 0 0)
(1.00077e-05 0 0)
(9.99829e-06 0 0)
(9.9887e-06 0 0)
(9.97896e-06 0 0)
(9.96907e-06 0 0)
(9.95903e-06 0 0)
(9.94885e-06 0 0)
(9.93855e-06 0 0)
(9.92812e-06 0 0)
(9.91759e-06 0 0)
(9.90697e-06 0 0)
(9.89627e-06 0 0)
(9.88551e-06 0 0)
(9.87469e-06 0 0)
(9.86383e-06 0 0)
(9.85293e-06 0 0)
(9.84201e-06 0 0)
(9.83107e-06 0 0)
(9.82012e-06 0 0)
(9.80916e-06 0 0)
(9.7982e-06 0 0)
(9.78724e-06 0 0)
(9.77627e-06 0 0)
(9.7653e-06 0 0)
(9.75433e-06 0 0)
(9.74336e-06 0 0)
(9.73239e-06 0 0)
(9.72142e-06 0 0)
(9.71044e-06 0 0)
(9.69945e-06 0 0)
(9.68845e-06 0 0)
(9.67744e-06 0 0)
(9.66642e-06 0 0)
(9.65539e-06 0 0)
(9.64434e-06 0 0)
(9.63327e-06 0 0)
(9.62219e-06 0 0)
(9.61108e-06 0 0)
(9.59996e-06 0 0)
(9.58882e-06 0 0)
(9.57765e-06 0 0)
(9.56646e-06 0 0)
(9.55525e-06 0 0)
(9.54401e-06 0 0)
(9.53276e-06 0 0)
(9.52147e-06 0 0)
(9.51017e-06 0 0)
(9.49883e-06 0 0)
(9.48748e-06 0 0)
(9.4761e-06 0 0)
(9.46469e-06 0 0)
(9.45326e-06 0 0)
(9.4418e-06 0 0)
(9.43031e-06 0 0)
(9.4188e-06 0 0)
(9.40726e-06 0 0)
(9.3957e-06 0 0)
(9.38411e-06 0 0)
(9.37249e-06 0 0)
(9.36085e-06 0 0)
(9.34918e-06 0 0)
(9.33748e-06 0 0)
(9.32575e-06 0 0)
(9.31399e-06 0 0)
(9.30221e-06 0 0)
(9.29039e-06 0 0)
(9.27855e-06 0 0)
(9.26668e-06 0 0)
(9.25478e-06 0 0)
(9.24285e-06 0 0)
(9.23089e-06 0 0)
(9.2189e-06 0 0)
(9.20688e-06 0 0)
(9.19483e-06 0 0)
(9.18274e-06 0 0)
(9.17063e-06 0 0)
(9.15848e-06 0 0)
(9.14631e-06 0 0)
(9.1341e-06 0 0)
(9.12186e-06 0 0)
(9.10959e-06 0 0)
(9.09728e-06 0 0)
(9.08495e-06 0 0)
(9.07258e-06 0 0)
(9.06018e-06 0 0)
(9.04774e-06 0 0)
(9.03528e-06 0 0)
(9.02278e-06 0 0)
(9.01025e-06 0 0)
(8.99769e-06 0 0)
(8.98509e-06 0 0)
(8.97247e-06 0 0)
(8.95981e-06 0 0)
(8.94712e-06 0 0)
(8.9344e-06 0 0)
(8.92165e-06 0 0)
(8.90886e-06 0 0)
(8.89605e-06 0 0)
(8.8832e-06 0 0)
(8.87032e-06 0 0)
(8.85741e-06 0 0)
(8.84447e-06 0 0)
(8.8315e-06 0 0)
(8.81849e-06 0 0)
(8.80545e-06 0 0)
(8.79237e-06 0 0)
(8.77927e-06 0 0)
(8.76612e-06 0 0)
(8.75294e-06 0 0)
(8.73973e-06 0 0)
(8.72648e-06 0 0)
(8.71319e-06 0 0)
(8.69985e-06 0 0)
(8.68648e-06 0 0)
(8.67306e-06 0 0)
(8.6596e-06 0 0)
(8.64609e-06 0 0)
(8.63252e-06 0 0)
(8.6189e-06 0 0)
(8.60523e-06 0 0)
(8.59149e-06 0 0)
(8.57768e-06 0 0)
(8.56381e-06 0 0)
(8.54987e-06 0 0)
(8.53585e-06 0 0)
(8.52176e-06 0 0)
(8.50759e-06 0 0)
(8.49333e-06 0 0)
(8.479e-06 0 0)
(8.46459e-06 0 0)
(8.45009e-06 0 0)
(8.43552e-06 0 0)
(8.42087e-06 0 0)
(8.40614e-06 0 0)
(8.39134e-06 0 0)
(8.37648e-06 0 0)
(8.36156e-06 0 0)
(8.34659e-06 0 0)
(8.33156e-06 0 0)
(8.31651e-06 0 0)
(8.30142e-06 0 0)
(8.28631e-06 0 0)
(8.27119e-06 0 0)
(8.25606e-06 0 0)
(8.24095e-06 0 0)
(8.22584e-06 0 0)
(8.21077e-06 0 0)
(8.19573e-06 0 0)
(8.18072e-06 0 0)
(8.16577e-06 0 0)
(8.15086e-06 0 0)
(8.13601e-06 0 0)
(8.12122e-06 0 0)
(8.10648e-06 0 0)
(8.0918e-06 0 0)
(8.07717e-06 0 0)
(8.06259e-06 0 0)
(8.04805e-06 0 0)
(8.03354e-06 0 0)
(8.01905e-06 0 0)
(8.00457e-06 0 0)
(7.99008e-06 0 0)
(7.97559e-06 0 0)
(7.96106e-06 0 0)
(7.9465e-06 0 0)
(7.93189e-06 0 0)
(7.91721e-06 0 0)
(7.90246e-06 0 0)
(7.88763e-06 0 0)
(7.87271e-06 0 0)
(7.85768e-06 0 0)
(7.84256e-06 0 0)
(7.82732e-06 0 0)
(7.81197e-06 0 0)
(7.7965e-06 0 0)
(7.78092e-06 0 0)
(7.76522e-06 0 0)
(7.74941e-06 0 0)
(7.73349e-06 0 0)
(7.71745e-06 0 0)
(7.7013e-06 0 0)
(7.68504e-06 0 0)
(7.66868e-06 0 0)
(7.65222e-06 0 0)
(7.63566e-06 0 0)
(7.61901e-06 0 0)
(7.60226e-06 0 0)
(7.58542e-06 0 0)
(7.5685e-06 0 0)
(7.55149e-06 0 0)
(7.53439e-06 0 0)
(7.51721e-06 0 0)
(7.49995e-06 0 0)
(7.4826e-06 0 0)
(7.46517e-06 0 0)
(7.44766e-06 0 0)
(7.43007e-06 0 0)
(7.41239e-06 0 0)
(7.39464e-06 0 0)
(7.37679e-06 0 0)
(7.35886e-06 0 0)
(7.34084e-06 0 0)
(7.32273e-06 0 0)
(7.30453e-06 0 0)
(7.28624e-06 0 0)
(7.26786e-06 0 0)
(7.24938e-06 0 0)
(7.23081e-06 0 0)
(7.21214e-06 0 0)
(7.19336e-06 0 0)
(7.17449e-06 0 0)
(7.15552e-06 0 0)
(7.13645e-06 0 0)
(7.11727e-06 0 0)
(7.098e-06 0 0)
(7.07862e-06 0 0)
(7.05914e-06 0 0)
(7.03957e-06 0 0)
(7.0199e-06 0 0)
(7.00014e-06 0 0)
(6.9803e-06 0 0)
(6.96038e-06 0 0)
(6.94039e-06 0 0)
(6.92033e-06 0 0)
(6.90022e-06 0 0)
(6.88009e-06 0 0)
(6.85994e-06 0 0)
(6.8398e-06 0 0)
(6.8197e-06 0 0)
(6.79967e-06 0 0)
(6.77974e-06 0 0)
(6.75997e-06 0 0)
(6.74041e-06 0 0)
(6.72113e-06 0 0)
(6.70218e-06 0 0)
(6.68363e-06 0 0)
(6.66557e-06 0 0)
(6.64807e-06 0 0)
(6.63123e-06 0 0)
(6.61513e-06 0 0)
(6.59986e-06 0 0)
(6.58547e-06 0 0)
(6.57205e-06 0 0)
(6.55963e-06 0 0)
(6.54826e-06 0 0)
(6.53796e-06 0 0)
(6.52872e-06 0 0)
(6.5205e-06 0 0)
(6.51326e-06 0 0)
(6.50689e-06 0 0)
(6.50127e-06 0 0)
(6.49619e-06 0 0)
(6.49135e-06 0 0)
(6.48625e-06 0 0)
(6.48006e-06 0 0)
(6.47136e-06 0 0)
(6.4577e-06 0 0)
(6.43485e-06 0 0)
(6.39551e-06 0 0)
(6.32748e-06 0 0)
(6.21141e-06 0 0)
(6.01971e-06 0 0)
(5.72051e-06 0 0)
(5.29273e-06 0 0)
(4.75177e-06 0 0)
(4.16521e-06 0 0)
(3.62902e-06 0 0)
(3.21416e-06 0 0)
(2.93577e-06 0 0)
(2.76776e-06 0 0)
(2.67321e-06 0 0)
(2.62217e-06 0 0)
(2.59525e-06 0 0)
(2.58123e-06 0 0)
(2.57396e-06 0 0)
(2.57021e-06 0 0)
(2.56827e-06 0 0)
(2.56727e-06 0 0)
(2.56674e-06 0 0)
(2.56646e-06 0 0)
(2.56631e-06 0 0)
(2.56622e-06 0 0)
(2.56616e-06 0 0)
(2.56612e-06 0 0)
(2.56609e-06 0 0)
(2.56607e-06 0 0)
(2.56604e-06 0 0)
(2.56602e-06 0 0)
(2.56599e-06 0 0)
(2.56597e-06 0 0)
(2.56594e-06 0 0)
(2.56592e-06 0 0)
(2.56589e-06 0 0)
(2.56586e-06 0 0)
(2.56583e-06 0 0)
(2.5658e-06 0 0)
(2.56577e-06 0 0)
(2.56574e-06 0 0)
(2.5657e-06 0 0)
(2.56566e-06 0 0)
(2.56562e-06 0 0)
(2.56558e-06 0 0)
(2.56554e-06 0 0)
(2.56549e-06 0 0)
(2.56544e-06 0 0)
(2.56538e-06 0 0)
(2.56532e-06 0 0)
(2.56526e-06 0 0)
(2.56519e-06 0 0)
(2.56511e-06 0 0)
(2.56503e-06 0 0)
(2.56494e-06 0 0)
(2.56485e-06 0 0)
(2.56475e-06 0 0)
(2.56464e-06 0 0)
(2.56453e-06 0 0)
(2.56441e-06 0 0)
(2.56428e-06 0 0)
(2.56415e-06 0 0)
(2.56401e-06 0 0)
(2.56386e-06 0 0)
(2.56371e-06 0 0)
(2.56355e-06 0 0)
(2.56338e-06 0 0)
(2.56321e-06 0 0)
(2.56303e-06 0 0)
(2.56285e-06 0 0)
(2.56267e-06 0 0)
(2.56249e-06 0 0)
(2.5623e-06 0 0)
(2.56211e-06 0 0)
(2.56193e-06 0 0)
(2.56175e-06 0 0)
(2.56156e-06 0 0)
(2.56139e-06 0 0)
(2.56122e-06 0 0)
(2.56105e-06 0 0)
(2.5609e-06 0 0)
(2.56075e-06 0 0)
(2.56061e-06 0 0)
(2.56049e-06 0 0)
(2.56038e-06 0 0)
(2.56029e-06 0 0)
(2.56021e-06 0 0)
(2.56014e-06 0 0)
(2.5601e-06 0 0)
(2.56007e-06 0 0)
(2.56005e-06 0 0)
(2.56004e-06 0 0)
(2.56004e-06 0 0)
(2.56006e-06 0 0)
(2.56011e-06 0 0)
(2.56018e-06 0 0)
(2.56027e-06 0 0)
(2.56037e-06 0 0)
(2.56048e-06 0 0)
(2.56061e-06 0 0)
(2.56075e-06 0 0)
(2.56089e-06 0 0)
(2.56104e-06 0 0)
(2.5612e-06 0 0)
(2.56137e-06 0 0)
(2.56154e-06 0 0)
(2.56171e-06 0 0)
(2.56188e-06 0 0)
(2.56205e-06 0 0)
(2.56222e-06 0 0)
(2.56239e-06 0 0)
(2.56255e-06 0 0)
(2.56271e-06 0 0)
(2.56286e-06 0 0)
(2.563e-06 0 0)
(2.56314e-06 0 0)
(2.56327e-06 0 0)
(2.56339e-06 0 0)
(2.5635e-06 0 0)
(2.56361e-06 0 0)
(2.56371e-06 0 0)
(2.5638e-06 0 0)
(2.56388e-06 0 0)
(2.56396e-06 0 0)
(2.56403e-06 0 0)
(2.56409e-06 0 0)
(2.56415e-06 0 0)
(2.5642e-06 0 0)
(2.56425e-06 0 0)
(2.56429e-06 0 0)
(2.56433e-06 0 0)
(2.56437e-06 0 0)
(2.56441e-06 0 0)
(2.56444e-06 0 0)
(2.56447e-06 0 0)
(2.5645e-06 0 0)
(2.56452e-06 0 0)
(2.56455e-06 0 0)
(2.56458e-06 0 0)
(2.5646e-06 0 0)
(2.56463e-06 0 0)
(2.56466e-06 0 0)
(2.56468e-06 0 0)
(2.56471e-06 0 0)
(2.56474e-06 0 0)
(2.56477e-06 0 0)
(2.5648e-06 0 0)
(2.56483e-06 0 0)
(2.56486e-06 0 0)
(2.5649e-06 0 0)
(2.56493e-06 0 0)
(2.56496e-06 0 0)
(2.565e-06 0 0)
(2.56503e-06 0 0)
(2.56507e-06 0 0)
(2.5651e-06 0 0)
(2.56514e-06 0 0)
(2.56517e-06 0 0)
(2.56521e-06 0 0)
(2.56524e-06 0 0)
(2.56528e-06 0 0)
(2.56532e-06 0 0)
(2.56535e-06 0 0)
(2.56539e-06 0 0)
(2.56542e-06 0 0)
(2.56546e-06 0 0)
(2.56549e-06 0 0)
(2.56552e-06 0 0)
(2.56555e-06 0 0)
(2.56559e-06 0 0)
(2.56562e-06 0 0)
(2.56565e-06 0 0)
(2.56568e-06 0 0)
(2.5657e-06 0 0)
(2.56573e-06 0 0)
(2.56576e-06 0 0)
(2.56579e-06 0 0)
(2.56581e-06 0 0)
(2.56583e-06 0 0)
(2.56586e-06 0 0)
(2.56588e-06 0 0)
(2.5659e-06 0 0)
(2.56592e-06 0 0)
(2.56594e-06 0 0)
(2.56596e-06 0 0)
(2.56598e-06 0 0)
(2.56599e-06 0 0)
(2.56601e-06 0 0)
(2.56602e-06 0 0)
(2.56604e-06 0 0)
(2.56605e-06 0 0)
(2.56606e-06 0 0)
(2.56607e-06 0 0)
(2.56609e-06 0 0)
(2.5661e-06 0 0)
(2.5661e-06 0 0)
(2.56611e-06 0 0)
(2.56612e-06 0 0)
(2.56613e-06 0 0)
(2.56613e-06 0 0)
(2.56614e-06 0 0)
(2.56614e-06 0 0)
(2.56614e-06 0 0)
(2.56614e-06 0 0)
(2.56615e-06 0 0)
(2.56615e-06 0 0)
(2.56615e-06 0 0)
(2.56615e-06 0 0)
(2.56615e-06 0 0)
(2.56614e-06 0 0)
(2.56614e-06 0 0)
(2.56614e-06 0 0)
(2.56613e-06 0 0)
(2.56612e-06 0 0)
(2.56612e-06 0 0)
(2.56611e-06 0 0)
(2.5661e-06 0 0)
(2.56609e-06 0 0)
(2.56608e-06 0 0)
(2.56607e-06 0 0)
(2.56606e-06 0 0)
(2.56605e-06 0 0)
(2.56603e-06 0 0)
(2.56602e-06 0 0)
(2.566e-06 0 0)
(2.56598e-06 0 0)
(2.56597e-06 0 0)
(2.56595e-06 0 0)
(2.56593e-06 0 0)
(2.56591e-06 0 0)
(2.5659e-06 0 0)
(2.56588e-06 0 0)
(2.56586e-06 0 0)
(2.56584e-06 0 0)
(2.56582e-06 0 0)
(2.5658e-06 0 0)
(2.56578e-06 0 0)
(2.56576e-06 0 0)
(2.56574e-06 0 0)
(2.56572e-06 0 0)
(2.5657e-06 0 0)
(2.56568e-06 0 0)
(2.56565e-06 0 0)
(2.56563e-06 0 0)
(2.5656e-06 0 0)
(2.56558e-06 0 0)
(2.56555e-06 0 0)
(2.56552e-06 0 0)
(2.56548e-06 0 0)
(2.56545e-06 0 0)
(2.5654e-06 0 0)
(2.56536e-06 0 0)
(2.56531e-06 0 0)
(2.56526e-06 0 0)
(2.56521e-06 0 0)
(2.56515e-06 0 0)
(2.56509e-06 0 0)
(2.56502e-06 0 0)
(2.56494e-06 0 0)
(2.56487e-06 0 0)
(2.56478e-06 0 0)
(2.56469e-06 0 0)
(2.5646e-06 0 0)
(2.5645e-06 0 0)
(2.5644e-06 0 0)
(2.56429e-06 0 0)
(2.56417e-06 0 0)
(2.56405e-06 0 0)
(2.56393e-06 0 0)
(2.5638e-06 0 0)
(2.56366e-06 0 0)
(2.56352e-06 0 0)
(2.56338e-06 0 0)
(2.56323e-06 0 0)
(2.56308e-06 0 0)
(2.56293e-06 0 0)
(2.56277e-06 0 0)
(2.56262e-06 0 0)
(2.56246e-06 0 0)
(2.5623e-06 0 0)
(2.56215e-06 0 0)
(2.56199e-06 0 0)
(2.56184e-06 0 0)
(2.56169e-06 0 0)
(2.56154e-06 0 0)
(2.5614e-06 0 0)
(2.56126e-06 0 0)
(2.56114e-06 0 0)
(2.56101e-06 0 0)
(2.5609e-06 0 0)
(2.5608e-06 0 0)
(2.5607e-06 0 0)
(2.56062e-06 0 0)
(2.56054e-06 0 0)
(2.56048e-06 0 0)
(2.56043e-06 0 0)
(2.56039e-06 0 0)
(2.56037e-06 0 0)
(2.56036e-06 0 0)
(2.56036e-06 0 0)
(2.56036e-06 0 0)
(2.56037e-06 0 0)
(2.5604e-06 0 0)
(2.56046e-06 0 0)
(2.56052e-06 0 0)
(2.5606e-06 0 0)
(2.56069e-06 0 0)
(2.56079e-06 0 0)
(2.5609e-06 0 0)
(2.56101e-06 0 0)
(2.56113e-06 0 0)
(2.56126e-06 0 0)
(2.5614e-06 0 0)
(2.56154e-06 0 0)
(2.56168e-06 0 0)
(2.56182e-06 0 0)
(2.56196e-06 0 0)
(2.56211e-06 0 0)
(2.56225e-06 0 0)
(2.56239e-06 0 0)
(2.56253e-06 0 0)
(2.56266e-06 0 0)
(2.56279e-06 0 0)
(2.56292e-06 0 0)
(2.56304e-06 0 0)
(2.56316e-06 0 0)
(2.56327e-06 0 0)
(2.56337e-06 0 0)
(2.56347e-06 0 0)
(2.56356e-06 0 0)
(2.56365e-06 0 0)
(2.56373e-06 0 0)
(2.56381e-06 0 0)
(2.56388e-06 0 0)
(2.56395e-06 0 0)
(2.56401e-06 0 0)
(2.56407e-06 0 0)
(2.56412e-06 0 0)
(2.56417e-06 0 0)
(2.56422e-06 0 0)
(2.56427e-06 0 0)
(2.56431e-06 0 0)
(2.56435e-06 0 0)
(2.56439e-06 0 0)
(2.56442e-06 0 0)
(2.56446e-06 0 0)
(2.56449e-06 0 0)
(2.56452e-06 0 0)
(2.56455e-06 0 0)
(2.56459e-06 0 0)
(2.56462e-06 0 0)
(2.56465e-06 0 0)
(2.56468e-06 0 0)
(2.56471e-06 0 0)
(2.56475e-06 0 0)
(2.56478e-06 0 0)
(2.56481e-06 0 0)
(2.56485e-06 0 0)
(2.56488e-06 0 0)
(2.56492e-06 0 0)
(2.56495e-06 0 0)
(2.56499e-06 0 0)
(2.56502e-06 0 0)
(2.56506e-06 0 0)
(2.56509e-06 0 0)
(2.56513e-06 0 0)
(2.56517e-06 0 0)
(2.5652e-06 0 0)
(2.56524e-06 0 0)
(2.56528e-06 0 0)
(2.56531e-06 0 0)
(2.56535e-06 0 0)
(2.56538e-06 0 0)
(2.56542e-06 0 0)
(2.56545e-06 0 0)
(2.56548e-06 0 0)
(2.56552e-06 0 0)
(2.56555e-06 0 0)
(2.56558e-06 0 0)
(2.56561e-06 0 0)
(2.56564e-06 0 0)
(2.56567e-06 0 0)
(2.5657e-06 0 0)
(2.56573e-06 0 0)
(2.56575e-06 0 0)
(2.56578e-06 0 0)
(2.5658e-06 0 0)
(2.56583e-06 0 0)
(2.56585e-06 0 0)
(2.56587e-06 0 0)
(2.56589e-06 0 0)
(2.56591e-06 0 0)
(2.56593e-06 0 0)
(2.56595e-06 0 0)
(2.56597e-06 0 0)
(2.56598e-06 0 0)
(2.566e-06 0 0)
(2.56601e-06 0 0)
(2.56603e-06 0 0)
(2.56604e-06 0 0)
(2.56605e-06 0 0)
(2.56606e-06 0 0)
(2.56607e-06 0 0)
(2.56608e-06 0 0)
(2.56609e-06 0 0)
(2.56609e-06 0 0)
(2.5661e-06 0 0)
(2.5661e-06 0 0)
(2.56611e-06 0 0)
(2.56611e-06 0 0)
(2.56611e-06 0 0)
(2.56612e-06 0 0)
(2.56612e-06 0 0)
(2.56612e-06 0 0)
(2.56612e-06 0 0)
(2.56612e-06 0 0)
(2.56612e-06 0 0)
(2.56611e-06 0 0)
(2.56611e-06 0 0)
(2.56611e-06 0 0)
(2.5661e-06 0 0)
(2.56609e-06 0 0)
(2.56609e-06 0 0)
(2.56608e-06 0 0)
(2.56607e-06 0 0)
(2.56606e-06 0 0)
(2.56605e-06 0 0)
(2.56604e-06 0 0)
(2.56603e-06 0 0)
(2.56601e-06 0 0)
(2.566e-06 0 0)
(2.56599e-06 0 0)
(2.56597e-06 0 0)
(2.56596e-06 0 0)
(2.56594e-06 0 0)
(2.56593e-06 0 0)
(2.56591e-06 0 0)
(2.56589e-06 0 0)
(2.56587e-06 0 0)
(2.56585e-06 0 0)
(2.56583e-06 0 0)
(2.56581e-06 0 0)
(2.56579e-06 0 0)
(2.56576e-06 0 0)
(2.56574e-06 0 0)
(2.56571e-06 0 0)
(2.56569e-06 0 0)
(2.56566e-06 0 0)
(2.56563e-06 0 0)
(2.5656e-06 0 0)
(2.56556e-06 0 0)
(2.56553e-06 0 0)
(2.56549e-06 0 0)
(2.56545e-06 0 0)
(2.56541e-06 0 0)
(2.56536e-06 0 0)
(2.56532e-06 0 0)
(2.56527e-06 0 0)
(2.56521e-06 0 0)
(2.56516e-06 0 0)
(2.5651e-06 0 0)
(2.56504e-06 0 0)
(2.56497e-06 0 0)
(2.5649e-06 0 0)
(2.56483e-06 0 0)
(2.56475e-06 0 0)
(2.56467e-06 0 0)
(2.56458e-06 0 0)
(2.56449e-06 0 0)
(2.5644e-06 0 0)
(2.5643e-06 0 0)
(2.5642e-06 0 0)
(2.56409e-06 0 0)
(2.56398e-06 0 0)
(2.56387e-06 0 0)
(2.56375e-06 0 0)
(2.56363e-06 0 0)
(2.56351e-06 0 0)
(2.56338e-06 0 0)
(2.56325e-06 0 0)
(2.56311e-06 0 0)
(2.56298e-06 0 0)
(2.56284e-06 0 0)
(2.56271e-06 0 0)
(2.56257e-06 0 0)
(2.56243e-06 0 0)
(2.56229e-06 0 0)
(2.56215e-06 0 0)
(2.56201e-06 0 0)
(2.56188e-06 0 0)
(2.56175e-06 0 0)
(2.56162e-06 0 0)
(2.56149e-06 0 0)
(2.56137e-06 0 0)
(2.56126e-06 0 0)
(2.56114e-06 0 0)
(2.56104e-06 0 0)
(2.56094e-06 0 0)
(2.56086e-06 0 0)
(2.56078e-06 0 0)
(2.5607e-06 0 0)
(2.56064e-06 0 0)
(2.56059e-06 0 0)
)
;

boundaryField
{
    inlet
    {
        type            fixedValue;
        value           uniform (1.13622e-05 0 0);
    }
    outlet
    {
        type            zeroGradient;
    }
    emptyWalls
    {
        type            empty;
    }
}


// ************************************************************************* //
