/*--------------------------------*- C++ -*----------------------------------*\
  =========                 |
  \\      /  F ield         | OpenFOAM: The Open Source CFD Toolbox
   \\    /   O peration     | Website:  https://openfoam.org
    \\  /    A nd           | Version:  9
     \\/     M anipulation  |
\*---------------------------------------------------------------------------*/
FoamFile
{
    format      ascii;
    class       volScalarField;
    location    "7000";
    object      Fa;
}
// * * * * * * * * * * * * * * * * * * * * * * * * * * * * * * * * * * * * * //

dimensions      [0 0 0 0 0 0 0];

internalField   nonuniform List<scalar> 
1000
(
0.194762
0.194872
0.194479
0.194839
0.194048
0.194651
0.193692
0.193963
0.191649
0.174237
0.154316
0.150824
0.149377
0.148508
0.147861
0.147369
0.146955
0.146605
0.146343
0.146078
0.145849
0.145653
0.145416
0.145192
0.145015
0.144847
0.144774
0.144735
0.144695
0.144656
0.144617
0.14458
0.144544
0.144509
0.144476
0.144443
0.144412
0.144382
0.144352
0.144324
0.144296
0.144268
0.144242
0.144215
0.144189
0.144163
0.144137
0.144111
0.144086
0.14406
0.144036
0.144011
0.143987
0.143964
0.143941
0.143919
0.143896
0.143873
0.143849
0.143825
0.1438
0.143777
0.143756
0.14374
0.143729
0.143722
0.143719
0.143719
0.143719
0.143719
0.14372
0.143724
0.143734
0.143754
0.143789
0.143841
0.143912
0.144004
0.144116
0.144245
0.14439
0.144546
0.144708
0.144873
0.145033
0.145185
0.145319
0.145435
0.145517
0.145568
0.145574
0.14554
0.145454
0.145326
0.145148
0.144935
0.144684
0.144411
0.144121
0.143827
0.143536
0.143257
0.142999
0.142765
0.14256
0.142384
0.14224
0.142123
0.142034
0.141967
0.14192
0.141889
0.141868
0.141856
0.141848
0.141842
0.141834
0.141824
0.141809
0.141789
0.141763
0.141731
0.141694
0.141651
0.141603
0.14155
0.141493
0.141433
0.141371
0.141306
0.14124
0.141172
0.141104
0.141035
0.140966
0.140897
0.140828
0.140759
0.140691
0.140623
0.140555
0.140488
0.140422
0.140356
0.14029
0.140225
0.140161
0.140097
0.140033
0.139969
0.139906
0.139844
0.139781
0.139719
0.139657
0.139595
0.139533
0.139472
0.139411
0.13935
0.139289
0.139229
0.139169
0.139109
0.13905
0.138992
0.138934
0.138877
0.138821
0.138766
0.138712
0.138659
0.138607
0.138557
0.138508
0.13846
0.138413
0.138368
0.138324
0.138282
0.13824
0.1382
0.138162
0.138124
0.138088
0.138053
0.138018
0.137985
0.137952
0.13792
0.137888
0.137857
0.137826
0.137795
0.137765
0.137734
0.137704
0.137674
0.137644
0.137614
0.137584
0.137554
0.137524
0.137493
0.137463
0.137432
0.137401
0.137371
0.13734
0.137309
0.137278
0.137247
0.137216
0.137185
0.137155
0.137125
0.137095
0.137066
0.137038
0.13701
0.136982
0.136956
0.13693
0.136905
0.136882
0.136859
0.136838
0.136819
0.136802
0.136788
0.136776
0.136768
0.136763
0.136763
0.136767
0.136777
0.136791
0.136811
0.136837
0.136868
0.136904
0.136945
0.136991
0.13704
0.137093
0.137148
0.137204
0.13726
0.137315
0.137367
0.137414
0.137456
0.137491
0.137516
0.137531
0.137534
0.137525
0.137501
0.137462
0.137409
0.137339
0.137255
0.137156
0.137043
0.136918
0.136783
0.136639
0.136489
0.136334
0.136177
0.13602
0.135863
0.135707
0.13555
0.135388
0.135213
0.135008
0.13475
0.134404
0.133942
0.13337
0.132767
0.132264
0.131934
0.131749
0.131651
0.131601
0.131571
0.131559
0.131551
0.13155
0.131556
0.13156
0.131567
0.131576
0.131585
0.131594
0.131603
0.131612
0.131619
0.131626
0.131631
0.131634
0.131635
0.131635
0.131635
0.131633
0.131628
0.131621
0.131613
0.131604
0.131594
0.131582
0.13157
0.131556
0.131541
0.131526
0.13151
0.131493
0.131476
0.131458
0.13144
0.131422
0.131404
0.131385
0.131367
0.131348
0.13133
0.131311
0.131293
0.131275
0.131258
0.131241
0.131224
0.131207
0.131191
0.131176
0.13116
0.131146
0.131131
0.131117
0.131104
0.131091
0.131079
0.131067
0.131056
0.131044
0.131034
0.131024
0.131014
0.131005
0.130996
0.130987
0.130979
0.130971
0.130963
0.130956
0.130949
0.130942
0.130935
0.130929
0.130923
0.130917
0.130912
0.130907
0.130902
0.130897
0.130893
0.130889
0.130886
0.130883
0.13088
0.130878
0.130876
0.130874
0.130874
0.130873
0.130873
0.130873
0.130874
0.130876
0.130878
0.130881
0.130885
0.130889
0.130894
0.1309
0.130906
0.130913
0.13092
0.130928
0.130936
0.130945
0.130955
0.130965
0.130975
0.130986
0.130997
0.131008
0.13102
0.131032
0.131044
0.131056
0.131069
0.131082
0.131094
0.131108
0.13112
0.131134
0.131147
0.13116
0.131173
0.131187
0.131201
0.131214
0.131228
0.131242
0.131257
0.131271
0.131286
0.131302
0.131317
0.131334
0.131351
0.131368
0.131387
0.131406
0.131427
0.131448
0.131471
0.131496
0.131522
0.13155
0.13158
0.131612
0.131646
0.131683
0.131722
0.131764
0.131809
0.131857
0.131908
0.131961
0.132018
0.132077
0.132139
0.132204
0.132271
0.13234
0.132411
0.132483
0.132556
0.132629
0.132702
0.132774
0.132845
0.132913
0.132979
0.133041
0.133098
0.133151
0.133198
0.133239
0.133272
0.133298
0.133315
0.133324
0.133326
0.133326
0.133323
0.133306
0.133271
0.133228
0.133176
0.133117
0.133051
0.132979
0.132902
0.132821
0.132737
0.132651
0.132564
0.132476
0.13239
0.132306
0.132224
0.132146
0.132071
0.132002
0.131937
0.131878
0.131824
0.131776
0.131733
0.131696
0.131664
0.131637
0.131615
0.131597
0.131584
0.131573
0.131566
0.131562
0.13156
0.131559
0.131559
0.13156
0.131564
0.131569
0.131574
0.131579
0.131584
0.131588
0.131591
0.131593
0.131595
0.131595
0.131595
0.131595
0.131594
0.13159
0.131584
0.131578
0.13157
0.131561
0.131551
0.131539
0.131527
0.131514
0.131501
0.131486
0.131471
0.131455
0.131438
0.131421
0.131404
0.131386
0.131368
0.13135
0.131332
0.131314
0.131295
0.131277
0.131259
0.131241
0.131223
0.131205
0.131188
0.131171
0.131154
0.131138
0.131122
0.131106
0.131091
0.131077
0.131062
0.131049
0.131036
0.131023
0.131011
0.130999
0.130988
0.130977
0.130966
0.130956
0.130947
0.130938
0.130929
0.130921
0.130913
0.130905
0.130898
0.130891
0.130884
0.130878
0.130872
0.130866
0.130861
0.130856
0.130851
0.130846
0.130842
0.130838
0.130834
0.13083
0.130827
0.130824
0.130821
0.130819
0.130817
0.130816
0.130814
0.130814
0.130813
0.130813
0.130813
0.130814
0.130815
0.130817
0.13082
0.130823
0.130826
0.130831
0.130836
0.130841
0.130847
0.130853
0.13086
0.130868
0.130876
0.130885
0.130895
0.130904
0.130915
0.130926
0.130938
0.130949
0.130962
0.130975
0.130989
0.131002
0.131017
0.131032
0.131047
0.131063
0.13108
0.131097
0.131114
0.131132
0.131151
0.13117
0.13119
0.131211
0.131232
0.131255
0.131278
0.131302
0.131328
0.131354
0.131383
0.131412
0.131443
0.131475
0.131509
0.131545
0.131583
0.131622
0.131664
0.131707
0.131753
0.1318
0.13185
0.131901
0.131955
0.132011
0.132068
0.132127
0.132187
0.132249
0.132312
0.132375
0.132439
0.132503
0.132568
0.132631
0.132693
0.132754
0.132813
0.13287
0.132924
0.132975
0.133022
0.133065
0.133103
0.133137
0.133165
0.133186
0.133202
0.133211
0.133215
0.133215
0.133214
0.133208
0.133186
0.133157
0.133122
0.133081
0.133034
0.132983
0.132927
0.132868
0.132806
0.132741
0.132675
0.132607
0.132539
0.132472
0.132406
0.13234
0.132277
0.132217
0.132159
0.132104
0.132053
0.132005
0.131961
0.131921
0.131884
0.131851
0.131821
0.131795
0.131772
0.131753
0.131736
0.131721
0.131709
0.131699
0.131691
0.131684
0.131679
0.131674
0.131671
0.131668
0.131666
0.131664
0.131662
0.131661
0.131658
0.131656
0.131653
0.13165
0.131646
0.131641
0.131636
0.13163
0.131623
0.131615
0.131607
0.131597
0.131587
0.131576
0.131565
0.131553
0.13154
0.131526
0.131512
0.131498
0.131483
0.131467
0.131451
0.131435
0.131418
0.131401
0.131384
0.131366
0.131349
0.131331
0.131313
0.131295
0.131277
0.131259
0.131242
0.131224
0.131207
0.131189
0.131172
0.131156
0.131139
0.131123
0.131107
0.131092
0.131077
0.131063
0.131048
0.131035
0.131022
0.131009
0.130997
0.130986
0.130975
0.130964
0.130954
0.130945
0.130936
0.130928
0.13092
0.130913
0.130906
0.130899
0.130894
0.130888
0.130883
0.130879
0.130875
0.130871
0.130868
0.130865
0.130862
0.13086
0.130858
0.130857
0.130856
0.130855
0.130854
0.130854
0.130854
0.130854
0.130854
0.130855
0.130856
0.130858
0.13086
0.130862
0.130865
0.130868
0.130872
0.130876
0.13088
0.130885
0.13089
0.130896
0.130903
0.130909
0.130917
0.130925
0.130934
0.130943
0.130953
0.130964
0.130976
0.130988
0.131001
0.131014
0.131029
0.131044
0.13106
0.131077
0.131095
0.131114
0.131133
0.131154
0.131176
0.131198
0.131222
0.131246
0.131272
0.131299
0.131327
0.131356
0.131386
0.131418
0.131451
0.131486
0.131522
0.131559
0.131598
0.131638
0.13168
0.131723
0.131768
0.131814
0.131862
0.131911
0.131961
0.132013
0.132066
0.132121
0.132176
0.132232
0.132289
0.132347
0.132405
0.132463
0.132521
0.132578
0.132635
0.132691
0.132746
0.1328
0.132851
0.132901
0.132947
0.132991
0.133032
0.133069
0.133102
0.133131
0.133156
0.133176
0.133191
0.1332
0.133204
0.133204
0.133204
0.133202
0.133186
0.133164
0.133136
0.133102
0.133064
0.133021
0.132974
0.132923
0.132869
0.132812
0.132752
0.132691
0.132628
0.132565
0.132501
0.132437
0.132374
0.132312
0.132251
0.132192
0.132135
0.132081
0.132029
0.13198
0.131934
0.13189
0.131849
0.131812
0.131777
0.131745
0.131716
0.131689
0.131665
0.131643
0.131623
0.131605
0.131588
0.131574
0.131561
0.131548
0.131537
0.131527
0.131518
0.131509
0.131501
0.131493
0.131485
0.131477
0.131469
0.131462
0.131454
0.131446
0.131438
0.131429
0.13142
0.131411
0.131402
0.131392
0.131383
0.131372
0.131362
0.131351
0.13134
0.131329
0.131317
0.131305
0.131293
0.131281
0.131269
0.131257
0.131244
0.131231
0.131219
0.131206
0.131193
0.13118
0.131167
0.131154
0.131142
0.131129
0.131116
0.131103
0.131091
0.131078
0.131065
0.131053
0.131041
0.131029
0.131017
0.131005
0.130994
0.130982
0.130972
0.130959
0.130951
0.130938
0.130932
0.130918
0.130913
0.1309
0.130896
0.130883
0.13088
0.130867
0.130868
)
;

boundaryField
{
    inlet
    {
        type            calculated;
        value           uniform 0.194831;
    }
    outlet
    {
        type            calculated;
        value           uniform 0.13086;
    }
    emptyWalls
    {
        type            empty;
    }
}


// ************************************************************************* //
