/*--------------------------------*- C++ -*----------------------------------*\
  =========                 |
  \\      /  F ield         | OpenFOAM: The Open Source CFD Toolbox
   \\    /   O peration     | Website:  https://openfoam.org
    \\  /    A nd           | Version:  9
     \\/     M anipulation  |
\*---------------------------------------------------------------------------*/
FoamFile
{
    format      ascii;
    class       volScalarField;
    location    "7000";
    object      kra;
}
// * * * * * * * * * * * * * * * * * * * * * * * * * * * * * * * * * * * * * //

dimensions      [0 0 0 0 0 0 0];

internalField   nonuniform List<scalar> 
1000
(
0.000237885
0.000241873
0.000245944
0.000250056
0.000253222
0.000256775
0.000259841
0.000267944
0.000293464
0.000458404
0.000812799
0.000892643
0.000913241
0.000921596
0.000925527
0.000927467
0.000928112
0.000927978
0.000927632
0.000926679
0.000925522
0.000924157
0.000921938
0.000919055
0.000915406
0.000910186
0.000903607
0.000895685
0.000887098
0.000878251
0.000869355
0.000860528
0.000851836
0.000843314
0.000834979
0.000826841
0.000818901
0.000811157
0.000803607
0.000796245
0.000789065
0.00078206
0.000775226
0.000768554
0.00076204
0.000755675
0.000749456
0.000743374
0.000737429
0.000731613
0.000725928
0.000720361
0.000714919
0.000709587
0.000704369
0.000699254
0.000694243
0.000689323
0.000684496
0.000679754
0.000675102
0.000670542
0.00066608
0.000661719
0.000657462
0.000653304
0.000649237
0.000645251
0.000641336
0.000637487
0.000633706
0.000630002
0.000626388
0.000622882
0.000619501
0.000616257
0.000613158
0.000610206
0.000607393
0.000604711
0.000602138
0.000599663
0.000597253
0.000594897
0.000592552
0.00059021
0.000587818
0.000585376
0.00058282
0.00058016
0.000577334
0.000574367
0.000571208
0.000567901
0.000564418
0.000560818
0.000557102
0.000553331
0.000549531
0.000545753
0.000542035
0.000538408
0.000534908
0.000531546
0.000528345
0.0005253
0.000522415
0.000519679
0.000517082
0.000514607
0.000512236
0.000509955
0.000507744
0.000505588
0.000503472
0.000501384
0.000499314
0.000497253
0.000495197
0.000493142
0.000491084
0.000489024
0.000486961
0.000484897
0.000482833
0.000480772
0.000478715
0.000476665
0.000474624
0.000472593
0.000470575
0.000468571
0.000466581
0.000464607
0.00046265
0.00046071
0.000458788
0.000456883
0.000454995
0.000453125
0.000451273
0.000449438
0.00044762
0.000445818
0.000444033
0.000442264
0.000440511
0.000438774
0.000437051
0.000435343
0.000433651
0.000431971
0.000430306
0.000428655
0.000427017
0.000425392
0.000423779
0.00042218
0.000420593
0.000419019
0.000417457
0.000415907
0.00041437
0.000412845
0.000411333
0.000409833
0.000408346
0.000406872
0.000405411
0.000403963
0.000402528
0.000401106
0.000399698
0.000398303
0.000396921
0.000395552
0.000394197
0.000392854
0.000391525
0.000390208
0.000388904
0.000387611
0.000386331
0.000385062
0.000383805
0.000382558
0.000381321
0.000380094
0.000378877
0.000377669
0.000376469
0.000375277
0.000374093
0.000372917
0.000371748
0.000370586
0.00036943
0.000368281
0.000367138
0.000366001
0.00036487
0.000363745
0.000362625
0.00036151
0.000360401
0.000359297
0.000358197
0.000357103
0.000356014
0.000354929
0.00035385
0.000352776
0.000351707
0.000350643
0.000349585
0.000348533
0.000347486
0.000346445
0.00034541
0.000344382
0.000343359
0.000342342
0.000341331
0.000340327
0.000339331
0.000338341
0.000337359
0.000336385
0.000335421
0.000334468
0.000333524
0.000332594
0.000331677
0.000330774
0.000329886
0.000329015
0.00032816
0.000327322
0.000326501
0.000325696
0.000324908
0.000324134
0.000323374
0.000322627
0.000321888
0.000321158
0.000320431
0.000319707
0.000318979
0.000318247
0.000317505
0.000316749
0.000315978
0.000315186
0.000314372
0.000313532
0.000312665
0.000311769
0.000310845
0.000309896
0.000308921
0.000307928
0.000306919
0.000305903
0.000304887
0.00030388
0.000302892
0.000301929
0.000301001
0.000300107
0.000299248
0.000298411
0.000297569
0.000296668
0.000295609
0.000294225
0.000292241
0.000289257
0.000284779
0.000278449
0.000270501
0.000262156
0.000255146
0.000250465
0.000247864
0.000246565
0.000245942
0.000245631
0.000245485
0.00024541
0.000245376
0.000245374
0.000245376
0.000245386
0.000245402
0.000245421
0.00024544
0.000245459
0.000245476
0.000245492
0.000245506
0.000245516
0.000245522
0.000245525
0.000245525
0.000245525
0.000245521
0.00024551
0.000245496
0.00024548
0.00024546
0.000245438
0.000245414
0.000245387
0.000245358
0.000245327
0.000245294
0.00024526
0.000245225
0.000245189
0.000245151
0.000245113
0.000245075
0.000245036
0.000244997
0.000244958
0.000244919
0.00024488
0.000244841
0.000244803
0.000244765
0.000244728
0.000244692
0.000244656
0.000244621
0.000244587
0.000244554
0.000244522
0.000244491
0.000244461
0.000244432
0.000244403
0.000244376
0.00024435
0.000244325
0.000244301
0.000244277
0.000244255
0.000244234
0.000244213
0.000244193
0.000244174
0.000244156
0.000244138
0.000244122
0.000244105
0.00024409
0.000244075
0.000244061
0.000244047
0.000244034
0.000244021
0.000244009
0.000243997
0.000243987
0.000243976
0.000243967
0.000243958
0.000243949
0.000243942
0.000243935
0.00024393
0.000243925
0.000243921
0.000243918
0.000243916
0.000243916
0.000243916
0.000243916
0.000243917
0.000243921
0.000243925
0.000243932
0.00024394
0.000243949
0.000243959
0.000243971
0.000243984
0.000243998
0.000244014
0.000244031
0.000244048
0.000244067
0.000244087
0.000244108
0.000244129
0.000244152
0.000244175
0.0002442
0.000244224
0.00024425
0.000244275
0.000244302
0.000244328
0.000244355
0.000244382
0.00024441
0.000244437
0.000244465
0.000244493
0.000244521
0.000244549
0.000244578
0.000244606
0.000244635
0.000244664
0.000244695
0.000244724
0.000244756
0.000244787
0.00024482
0.000244853
0.000244887
0.000244923
0.000244961
0.000244999
0.000245041
0.000245084
0.00024513
0.000245178
0.00024523
0.000245285
0.000245344
0.000245407
0.000245475
0.000245547
0.000245625
0.000245708
0.000245798
0.000245892
0.000245994
0.000246101
0.000246215
0.000246334
0.00024646
0.000246591
0.000246728
0.00024687
0.000247016
0.000247166
0.000247318
0.000247472
0.000247628
0.000247782
0.000247935
0.000248085
0.00024823
0.000248369
0.000248501
0.000248623
0.000248735
0.000248834
0.000248921
0.000248991
0.000249046
0.000249082
0.000249101
0.000249105
0.000249105
0.0002491
0.000249062
0.000248989
0.000248897
0.000248788
0.000248663
0.000248523
0.000248371
0.000248208
0.000248036
0.000247857
0.000247674
0.000247489
0.000247305
0.000247122
0.000246943
0.00024677
0.000246604
0.000246447
0.0002463
0.000246164
0.000246038
0.000245925
0.000245823
0.000245733
0.000245654
0.000245586
0.00024553
0.000245483
0.000245445
0.000245416
0.000245394
0.000245379
0.00024537
0.000245365
0.000245365
0.000245365
0.000245366
0.000245375
0.000245385
0.000245395
0.000245406
0.000245416
0.000245424
0.000245431
0.000245436
0.000245439
0.00024544
0.00024544
0.00024544
0.000245437
0.000245428
0.000245417
0.000245403
0.000245386
0.000245367
0.000245346
0.000245322
0.000245297
0.000245269
0.00024524
0.000245209
0.000245177
0.000245143
0.000245108
0.000245073
0.000245036
0.000244999
0.000244961
0.000244922
0.000244884
0.000244845
0.000244807
0.000244768
0.000244729
0.000244691
0.000244654
0.000244616
0.00024458
0.000244544
0.000244508
0.000244474
0.00024444
0.000244407
0.000244376
0.000244345
0.000244315
0.000244286
0.000244258
0.000244231
0.000244205
0.00024418
0.000244157
0.000244134
0.000244112
0.000244091
0.000244071
0.000244052
0.000244033
0.000244016
0.000243999
0.000243983
0.000243967
0.000243953
0.000243939
0.000243926
0.000243913
0.000243901
0.000243889
0.000243878
0.000243868
0.000243858
0.000243849
0.00024384
0.000243832
0.000243824
0.000243817
0.000243811
0.000243806
0.000243801
0.000243797
0.000243793
0.000243791
0.00024379
0.000243789
0.000243789
0.000243789
0.000243789
0.000243793
0.000243797
0.000243802
0.000243809
0.000243817
0.000243825
0.000243836
0.000243847
0.000243859
0.000243873
0.000243888
0.000243904
0.000243922
0.00024394
0.00024396
0.000243981
0.000244003
0.000244026
0.000244051
0.000244076
0.000244103
0.00024413
0.000244159
0.000244188
0.000244219
0.00024425
0.000244283
0.000244316
0.000244351
0.000244387
0.000244424
0.000244462
0.000244501
0.000244542
0.000244584
0.000244628
0.000244673
0.00024472
0.00024477
0.000244821
0.000244875
0.000244931
0.000244991
0.000245053
0.000245118
0.000245186
0.000245258
0.000245334
0.000245413
0.000245497
0.000245585
0.000245676
0.000245773
0.000245873
0.000245979
0.000246088
0.000246201
0.000246319
0.00024644
0.000246565
0.000246693
0.000246823
0.000246956
0.000247091
0.000247226
0.000247362
0.000247498
0.000247632
0.000247764
0.000247893
0.000248019
0.000248139
0.000248254
0.000248361
0.000248461
0.000248552
0.000248633
0.000248704
0.000248763
0.00024881
0.000248843
0.000248863
0.00024887
0.00024887
0.000248868
0.000248856
0.00024881
0.000248748
0.000248673
0.000248586
0.000248487
0.000248378
0.00024826
0.000248135
0.000248003
0.000247865
0.000247725
0.000247582
0.000247438
0.000247295
0.000247155
0.000247017
0.000246883
0.000246755
0.000246633
0.000246517
0.000246408
0.000246307
0.000246214
0.000246128
0.000246051
0.000245981
0.000245919
0.000245863
0.000245815
0.000245773
0.000245737
0.000245707
0.000245681
0.00024566
0.000245642
0.000245628
0.000245617
0.000245608
0.000245601
0.000245595
0.00024559
0.000245586
0.000245582
0.000245578
0.000245574
0.000245569
0.000245563
0.000245556
0.000245548
0.000245538
0.000245526
0.000245513
0.000245499
0.000245482
0.000245464
0.000245445
0.000245424
0.000245401
0.000245376
0.00024535
0.000245323
0.000245295
0.000245265
0.000245234
0.000245202
0.000245169
0.000245135
0.000245101
0.000245065
0.000245029
0.000244993
0.000244956
0.000244919
0.000244881
0.000244844
0.000244806
0.000244768
0.000244731
0.000244693
0.000244656
0.000244619
0.000244583
0.000244547
0.000244512
0.000244477
0.000244443
0.00024441
0.000244377
0.000244346
0.000244315
0.000244285
0.000244257
0.000244229
0.000244202
0.000244177
0.000244152
0.000244129
0.000244107
0.000244086
0.000244066
0.000244048
0.00024403
0.000244014
0.000243998
0.000243984
0.000243971
0.000243958
0.000243947
0.000243937
0.000243927
0.000243919
0.000243911
0.000243904
0.000243898
0.000243892
0.000243888
0.000243884
0.000243881
0.000243878
0.000243876
0.000243875
0.000243875
0.000243875
0.000243875
0.000243875
0.000243877
0.00024388
0.000243883
0.000243887
0.000243892
0.000243898
0.000243904
0.000243912
0.00024392
0.00024393
0.00024394
0.000243951
0.000243963
0.000243977
0.000243992
0.000244008
0.000244025
0.000244043
0.000244063
0.000244084
0.000244107
0.000244131
0.000244157
0.000244184
0.000244213
0.000244244
0.000244276
0.00024431
0.000244346
0.000244384
0.000244423
0.000244465
0.000244508
0.000244554
0.000244601
0.000244651
0.000244703
0.000244757
0.000244814
0.000244873
0.000244934
0.000244999
0.000245066
0.000245136
0.000245209
0.000245285
0.000245363
0.000245445
0.00024553
0.000245618
0.00024571
0.000245805
0.000245902
0.000246003
0.000246107
0.000246214
0.000246324
0.000246437
0.000246552
0.000246669
0.000246788
0.000246909
0.00024703
0.000247153
0.000247276
0.000247399
0.000247521
0.000247642
0.00024776
0.000247877
0.00024799
0.000248099
0.000248203
0.000248303
0.000248396
0.000248482
0.000248561
0.000248631
0.000248693
0.000248745
0.000248787
0.000248818
0.000248838
0.000248847
0.000248848
0.000248847
0.000248842
0.00024881
0.000248762
0.000248702
0.000248631
0.00024855
0.000248459
0.000248359
0.000248251
0.000248136
0.000248015
0.000247889
0.000247759
0.000247626
0.000247491
0.000247356
0.000247221
0.000247088
0.000246956
0.000246828
0.000246703
0.000246583
0.000246468
0.000246358
0.000246254
0.000246156
0.000246064
0.000245978
0.000245898
0.000245825
0.000245757
0.000245695
0.000245638
0.000245587
0.00024554
0.000245498
0.00024546
0.000245426
0.000245395
0.000245367
0.000245341
0.000245318
0.000245297
0.000245277
0.000245258
0.00024524
0.000245223
0.000245207
0.00024519
0.000245174
0.000245158
0.000245141
0.000245124
0.000245107
0.000245089
0.000245071
0.000245052
0.000245032
0.000245012
0.000244991
0.000244969
0.000244947
0.000244924
0.000244901
0.000244877
0.000244853
0.000244828
0.000244803
0.000244777
0.000244751
0.000244725
0.000244698
0.000244672
0.000244645
0.000244618
0.000244591
0.000244563
0.000244536
0.000244509
0.000244482
0.000244455
0.000244428
0.000244401
0.000244374
0.000244347
0.000244321
0.000244295
0.000244269
0.000244243
0.000244219
0.000244193
0.000244171
0.000244144
0.000244125
0.000244097
0.00024408
0.000244053
0.000244038
0.000244011
0.000243999
0.000243972
0.000243962
0.000243936
0.000243929
0.000243901
0.000243904
)
;

boundaryField
{
    inlet
    {
        type            calculated;
        value           uniform 0.000236304;
    }
    outlet
    {
        type            calculated;
        value           uniform 0.000243887;
    }
    emptyWalls
    {
        type            empty;
    }
}


// ************************************************************************* //
