/*--------------------------------*- C++ -*----------------------------------*\
  =========                 |
  \\      /  F ield         | OpenFOAM: The Open Source CFD Toolbox
   \\    /   O peration     | Website:  https://openfoam.org
    \\  /    A nd           | Version:  9
     \\/     M anipulation  |
\*---------------------------------------------------------------------------*/
FoamFile
{
    format      ascii;
    class       surfaceScalarField;
    location    "15600";
    object      phic;
}
// * * * * * * * * * * * * * * * * * * * * * * * * * * * * * * * * * * * * * //

dimensions      [0 2 0 0 0 0 0];

internalField   nonuniform List<scalar> 
999
(
2.28289e-15
9.94923e-15
2.4043e-14
4.40626e-14
6.98317e-14
1.0122e-13
1.38009e-13
1.79811e-13
2.25985e-13
2.75578e-13
3.27336e-13
3.79709e-13
4.31133e-13
4.79965e-13
5.25164e-13
5.66131e-13
6.0447e-13
6.50032e-13
7.52267e-13
1.11841e-12
2.4965e-12
9.97655e-12
1.92747e-11
2.09812e-11
2.16012e-11
2.19503e-11
2.22004e-11
2.24089e-11
2.25965e-11
2.27685e-11
2.2932e-11
2.30923e-11
2.32436e-11
2.33871e-11
2.35233e-11
2.36533e-11
2.37783e-11
2.38997e-11
2.40161e-11
2.41316e-11
2.42471e-11
2.43628e-11
2.44791e-11
2.45964e-11
2.47162e-11
2.48387e-11
2.49677e-11
2.51012e-11
2.5239e-11
2.53815e-11
2.55297e-11
2.56848e-11
2.58487e-11
2.60241e-11
2.62151e-11
2.64276e-11
2.66697e-11
2.69515e-11
2.72832e-11
2.76718e-11
2.81167e-11
2.86091e-11
2.91365e-11
2.96894e-11
3.02609e-11
3.08466e-11
3.14435e-11
3.20492e-11
3.26623e-11
3.32816e-11
3.39062e-11
3.45354e-11
3.51687e-11
3.58058e-11
3.64463e-11
3.70899e-11
3.77365e-11
3.83858e-11
3.90377e-11
3.96921e-11
4.03488e-11
4.10078e-11
4.16689e-11
4.23321e-11
4.29974e-11
4.36646e-11
4.43337e-11
4.50046e-11
4.56773e-11
4.63518e-11
4.70279e-11
4.77057e-11
4.83851e-11
4.90662e-11
4.97488e-11
5.04329e-11
5.11186e-11
5.18058e-11
5.24945e-11
5.31848e-11
5.38765e-11
5.45696e-11
5.52642e-11
5.59601e-11
5.66573e-11
5.73558e-11
5.80556e-11
5.87565e-11
5.94587e-11
6.01621e-11
6.08668e-11
6.15728e-11
6.22802e-11
6.29888e-11
6.36987e-11
6.44097e-11
6.51216e-11
6.58341e-11
6.65471e-11
6.72602e-11
6.79734e-11
6.86865e-11
6.93995e-11
7.01123e-11
7.08251e-11
7.1538e-11
7.22511e-11
7.29647e-11
7.36788e-11
7.43939e-11
7.51101e-11
7.58279e-11
7.65475e-11
7.72694e-11
7.7994e-11
7.87216e-11
7.94526e-11
8.01871e-11
8.09252e-11
8.16671e-11
8.24125e-11
8.31611e-11
8.39127e-11
8.46668e-11
8.54229e-11
8.61806e-11
8.69392e-11
8.76984e-11
8.84578e-11
8.9217e-11
8.9976e-11
9.07344e-11
9.14923e-11
9.22496e-11
9.30065e-11
9.37631e-11
9.45195e-11
9.52759e-11
9.60325e-11
9.67894e-11
9.75468e-11
9.8305e-11
9.90639e-11
9.98237e-11
1.00585e-10
1.01347e-10
1.0211e-10
1.02874e-10
1.03639e-10
1.04406e-10
1.05173e-10
1.05942e-10
1.06712e-10
1.07483e-10
1.08255e-10
1.09028e-10
1.09803e-10
1.10578e-10
1.11354e-10
1.12131e-10
1.12909e-10
1.13688e-10
1.14468e-10
1.15248e-10
1.1603e-10
1.16813e-10
1.17596e-10
1.1838e-10
1.19165e-10
1.19951e-10
1.20737e-10
1.21525e-10
1.22313e-10
1.23102e-10
1.23892e-10
1.24683e-10
1.25475e-10
1.26267e-10
1.2706e-10
1.27854e-10
1.28649e-10
1.29444e-10
1.30241e-10
1.31038e-10
1.31836e-10
1.32635e-10
1.33434e-10
1.34234e-10
1.35035e-10
1.35837e-10
1.3664e-10
1.37443e-10
1.38248e-10
1.39052e-10
1.39858e-10
1.40665e-10
1.41472e-10
1.4228e-10
1.43089e-10
1.43898e-10
1.44709e-10
1.4552e-10
1.46332e-10
1.47144e-10
1.47958e-10
1.48772e-10
1.49587e-10
1.50403e-10
1.5122e-10
1.52037e-10
1.52855e-10
1.53675e-10
1.54495e-10
1.55315e-10
1.56137e-10
1.5696e-10
1.57783e-10
1.58607e-10
1.59432e-10
1.60258e-10
1.61084e-10
1.61912e-10
1.6274e-10
1.63569e-10
1.64399e-10
1.6523e-10
1.66061e-10
1.66893e-10
1.67727e-10
1.6856e-10
1.69395e-10
1.70229e-10
1.71065e-10
1.719e-10
1.72736e-10
1.73571e-10
1.74407e-10
1.75242e-10
1.76076e-10
1.76911e-10
1.77745e-10
1.78578e-10
1.79411e-10
1.80244e-10
1.81076e-10
1.81908e-10
1.82741e-10
1.83573e-10
1.84406e-10
1.8524e-10
1.86075e-10
1.86911e-10
1.87749e-10
1.88589e-10
1.89432e-10
1.90277e-10
1.91126e-10
1.91978e-10
1.92834e-10
1.93694e-10
1.94558e-10
1.95426e-10
1.96298e-10
1.97174e-10
1.98054e-10
1.98937e-10
1.99824e-10
2.00713e-10
2.01605e-10
2.02499e-10
2.03394e-10
2.04291e-10
2.05188e-10
2.06086e-10
2.06983e-10
2.07881e-10
2.08779e-10
2.09676e-10
2.10573e-10
2.11469e-10
2.12364e-10
2.1326e-10
2.14155e-10
2.15049e-10
2.15944e-10
2.16838e-10
2.17733e-10
2.18628e-10
2.19524e-10
2.2042e-10
2.21317e-10
2.22215e-10
2.23114e-10
2.24014e-10
2.24915e-10
2.25817e-10
2.26721e-10
2.27626e-10
2.28532e-10
2.2944e-10
2.30349e-10
2.31259e-10
2.32171e-10
2.33084e-10
2.33998e-10
2.34914e-10
2.35831e-10
2.3675e-10
2.3767e-10
2.38591e-10
2.39513e-10
2.40437e-10
2.41362e-10
2.42288e-10
2.43216e-10
2.44145e-10
2.45075e-10
2.46006e-10
2.46938e-10
2.47872e-10
2.48807e-10
2.49743e-10
2.5068e-10
2.51619e-10
2.52559e-10
2.53499e-10
2.54442e-10
2.55385e-10
2.56329e-10
2.57275e-10
2.58222e-10
2.5917e-10
2.60119e-10
2.6107e-10
2.62022e-10
2.62975e-10
2.63929e-10
2.64884e-10
2.65841e-10
2.66799e-10
2.67758e-10
2.68718e-10
2.6968e-10
2.70643e-10
2.71607e-10
2.72572e-10
2.73539e-10
2.74507e-10
2.75476e-10
2.76447e-10
2.77418e-10
2.78392e-10
2.79366e-10
2.80342e-10
2.81319e-10
2.82297e-10
2.83277e-10
2.84258e-10
2.8524e-10
2.86224e-10
2.87209e-10
2.88196e-10
2.89184e-10
2.90173e-10
2.91164e-10
2.92156e-10
2.9315e-10
2.94145e-10
2.95142e-10
2.9614e-10
2.97139e-10
2.9814e-10
2.99143e-10
3.00147e-10
3.01153e-10
3.0216e-10
3.03169e-10
3.04179e-10
3.05191e-10
3.06204e-10
3.07219e-10
3.08236e-10
3.09254e-10
3.10273e-10
3.11294e-10
3.12316e-10
3.1334e-10
3.14365e-10
3.15391e-10
3.16418e-10
3.17446e-10
3.18475e-10
3.19505e-10
3.20536e-10
3.21568e-10
3.226e-10
3.23633e-10
3.24666e-10
3.257e-10
3.26735e-10
3.2777e-10
3.28805e-10
3.29841e-10
3.30877e-10
3.31915e-10
3.32953e-10
3.33992e-10
3.35032e-10
3.36074e-10
3.37117e-10
3.38162e-10
3.39209e-10
3.40259e-10
3.41311e-10
3.42367e-10
3.43426e-10
3.44488e-10
3.45555e-10
3.46626e-10
3.47701e-10
3.48781e-10
3.49867e-10
3.50958e-10
3.52054e-10
3.53155e-10
3.54262e-10
3.55375e-10
3.56493e-10
3.57617e-10
3.58746e-10
3.59879e-10
3.61018e-10
3.62161e-10
3.63308e-10
3.64459e-10
3.65614e-10
3.66772e-10
3.67933e-10
3.69096e-10
3.70261e-10
3.71429e-10
3.72598e-10
3.73769e-10
3.74942e-10
3.76116e-10
3.77291e-10
3.78467e-10
3.79645e-10
3.80823e-10
3.82003e-10
3.83185e-10
3.84368e-10
3.85552e-10
3.86738e-10
3.87926e-10
3.89116e-10
3.90308e-10
3.91502e-10
3.92699e-10
3.93898e-10
3.951e-10
3.96304e-10
3.97511e-10
3.98722e-10
3.99935e-10
4.01151e-10
4.02371e-10
4.03594e-10
4.0482e-10
4.0605e-10
4.07283e-10
4.0852e-10
4.0976e-10
4.11004e-10
4.12251e-10
4.13502e-10
4.14757e-10
4.16016e-10
4.17278e-10
4.18544e-10
4.19814e-10
4.21088e-10
4.22365e-10
4.23647e-10
4.24932e-10
4.26221e-10
4.27513e-10
4.2881e-10
4.30111e-10
4.31416e-10
4.32725e-10
4.34038e-10
4.35354e-10
4.36675e-10
4.38e-10
4.39329e-10
4.40663e-10
4.42001e-10
4.43342e-10
4.44689e-10
4.46039e-10
4.47394e-10
4.48754e-10
4.50118e-10
4.51486e-10
4.52859e-10
4.54237e-10
4.55619e-10
4.57006e-10
4.58398e-10
4.59795e-10
4.61196e-10
4.62602e-10
4.64014e-10
4.6543e-10
4.66852e-10
4.68279e-10
4.69711e-10
4.71148e-10
4.72591e-10
4.74039e-10
4.75492e-10
4.76951e-10
4.78416e-10
4.79886e-10
4.81363e-10
4.82845e-10
4.84333e-10
4.85826e-10
4.87326e-10
4.88832e-10
4.90344e-10
4.91862e-10
4.93387e-10
4.94918e-10
4.96455e-10
4.97999e-10
4.99549e-10
5.01106e-10
5.02669e-10
5.04239e-10
5.05816e-10
5.074e-10
5.0899e-10
5.10587e-10
5.12191e-10
5.13801e-10
5.15419e-10
5.17043e-10
5.18673e-10
5.20309e-10
5.21952e-10
5.236e-10
5.25254e-10
5.26913e-10
5.28578e-10
5.30246e-10
5.31918e-10
5.33592e-10
5.35268e-10
5.36945e-10
5.38622e-10
5.40296e-10
5.41966e-10
5.4363e-10
5.45284e-10
5.46926e-10
5.48554e-10
5.50163e-10
5.51749e-10
5.53308e-10
5.54834e-10
5.56321e-10
5.57765e-10
5.59161e-10
5.60502e-10
5.61783e-10
5.62997e-10
5.64141e-10
5.6521e-10
5.662e-10
5.67111e-10
5.6794e-10
5.68688e-10
5.69354e-10
5.69941e-10
5.70454e-10
5.70897e-10
5.71277e-10
5.71596e-10
5.71866e-10
5.72095e-10
5.72292e-10
5.72482e-10
5.72686e-10
5.72945e-10
5.73335e-10
5.73974e-10
5.75077e-10
5.77023e-10
5.80469e-10
5.86528e-10
5.97006e-10
6.14587e-10
6.42632e-10
6.83914e-10
7.37909e-10
7.98321e-10
8.5475e-10
8.98824e-10
9.28428e-10
9.46258e-10
9.56279e-10
9.61693e-10
9.64563e-10
9.66076e-10
9.66881e-10
9.67318e-10
9.67568e-10
9.67722e-10
9.67828e-10
9.6791e-10
9.6798e-10
9.68044e-10
9.68105e-10
9.68164e-10
9.68223e-10
9.68279e-10
9.68335e-10
9.6839e-10
9.68443e-10
9.68494e-10
9.68543e-10
9.6859e-10
9.68635e-10
9.68677e-10
9.68717e-10
9.68755e-10
9.6879e-10
9.68823e-10
9.68854e-10
9.68883e-10
9.68909e-10
9.68933e-10
9.68956e-10
9.68977e-10
9.68996e-10
9.69014e-10
9.69031e-10
9.69046e-10
9.6906e-10
9.69074e-10
9.69086e-10
9.69098e-10
9.6911e-10
9.69121e-10
9.69131e-10
9.69142e-10
9.69152e-10
9.69162e-10
9.69172e-10
9.69182e-10
9.69192e-10
9.69202e-10
9.69212e-10
9.69223e-10
9.69233e-10
9.69244e-10
9.69254e-10
9.69265e-10
9.69276e-10
9.69287e-10
9.69298e-10
9.6931e-10
9.69321e-10
9.69333e-10
9.69344e-10
9.69356e-10
9.69367e-10
9.69379e-10
9.6939e-10
9.69402e-10
9.69413e-10
9.69424e-10
9.69436e-10
9.69447e-10
9.69458e-10
9.69469e-10
9.69479e-10
9.6949e-10
9.695e-10
9.6951e-10
9.6952e-10
9.6953e-10
9.69539e-10
9.69548e-10
9.69557e-10
9.69566e-10
9.69574e-10
9.69582e-10
9.6959e-10
9.69598e-10
9.69605e-10
9.69612e-10
9.69618e-10
9.69625e-10
9.69631e-10
9.69636e-10
9.69642e-10
9.69647e-10
9.69651e-10
9.69656e-10
9.6966e-10
9.69663e-10
9.69667e-10
9.6967e-10
9.69672e-10
9.69675e-10
9.69676e-10
9.69678e-10
9.69679e-10
9.6968e-10
9.69681e-10
9.69681e-10
9.69681e-10
9.69681e-10
9.6968e-10
9.69679e-10
9.69678e-10
9.69676e-10
9.69674e-10
9.69672e-10
9.69669e-10
9.69666e-10
9.69663e-10
9.69659e-10
9.69656e-10
9.69651e-10
9.69647e-10
9.69643e-10
9.69638e-10
9.69633e-10
9.69627e-10
9.69621e-10
9.69616e-10
9.69609e-10
9.69603e-10
9.69596e-10
9.69589e-10
9.69582e-10
9.69574e-10
9.69566e-10
9.69558e-10
9.6955e-10
9.69541e-10
9.69531e-10
9.69522e-10
9.69511e-10
9.695e-10
9.69489e-10
9.69477e-10
9.69464e-10
9.69451e-10
9.69437e-10
9.69422e-10
9.69406e-10
9.69389e-10
9.69371e-10
9.69351e-10
9.69331e-10
9.69309e-10
9.69286e-10
9.69262e-10
9.69236e-10
9.69209e-10
9.6918e-10
9.69149e-10
9.69117e-10
9.69083e-10
9.69047e-10
9.6901e-10
9.68971e-10
9.6893e-10
9.68888e-10
9.68844e-10
9.68799e-10
9.68752e-10
9.68704e-10
9.68655e-10
9.68605e-10
9.68553e-10
9.68501e-10
9.68449e-10
9.68396e-10
9.68343e-10
9.6829e-10
9.68238e-10
9.68186e-10
9.68135e-10
9.68085e-10
9.68036e-10
9.67989e-10
9.67944e-10
9.67902e-10
9.67862e-10
9.67824e-10
9.6779e-10
9.67759e-10
9.67732e-10
9.67708e-10
9.67688e-10
9.67673e-10
9.67661e-10
9.67654e-10
9.67651e-10
9.67651e-10
9.67651e-10
9.67654e-10
9.67667e-10
9.67685e-10
9.67706e-10
9.67732e-10
9.67761e-10
9.67793e-10
9.67829e-10
9.67867e-10
9.67907e-10
9.6795e-10
9.67994e-10
9.6804e-10
9.68087e-10
9.68135e-10
9.68183e-10
9.68231e-10
9.6828e-10
9.68328e-10
9.68376e-10
9.68422e-10
9.68468e-10
9.68513e-10
9.68556e-10
9.68598e-10
9.68638e-10
9.68676e-10
9.68713e-10
9.68748e-10
9.68781e-10
9.68812e-10
9.68842e-10
9.6887e-10
9.68896e-10
9.68921e-10
9.68944e-10
9.68966e-10
9.68986e-10
9.69005e-10
9.69023e-10
9.69039e-10
9.69055e-10
9.6907e-10
9.69084e-10
9.69097e-10
9.69109e-10
9.69122e-10
9.69133e-10
9.69144e-10
9.69155e-10
9.69166e-10
9.69176e-10
9.69186e-10
9.69196e-10
9.69206e-10
9.69216e-10
9.69226e-10
9.69236e-10
9.69246e-10
9.69256e-10
9.69266e-10
9.69276e-10
9.69286e-10
9.69296e-10
9.69306e-10
9.69316e-10
9.69327e-10
9.69337e-10
9.69347e-10
9.69358e-10
9.69368e-10
9.69379e-10
9.69389e-10
9.69399e-10
9.6941e-10
9.6942e-10
9.6943e-10
9.6944e-10
9.6945e-10
9.6946e-10
9.6947e-10
9.6948e-10
9.69489e-10
9.69499e-10
9.69508e-10
9.69517e-10
9.69526e-10
9.69535e-10
9.69544e-10
9.69552e-10
9.6956e-10
9.69568e-10
9.69576e-10
9.69583e-10
9.6959e-10
9.69597e-10
9.69604e-10
9.6961e-10
9.69616e-10
9.69622e-10
9.69628e-10
9.69633e-10
9.69638e-10
9.69642e-10
9.69646e-10
9.6965e-10
9.69654e-10
9.69657e-10
9.6966e-10
9.69663e-10
9.69665e-10
9.69667e-10
9.69669e-10
9.6967e-10
9.69671e-10
9.69672e-10
9.69672e-10
9.69672e-10
9.69672e-10
9.69672e-10
9.69671e-10
9.6967e-10
9.69668e-10
9.69666e-10
9.69664e-10
9.69661e-10
9.69658e-10
9.69655e-10
9.69651e-10
9.69648e-10
9.69643e-10
9.69639e-10
9.69634e-10
9.69629e-10
9.69624e-10
9.69618e-10
9.69612e-10
9.69605e-10
9.69598e-10
9.69591e-10
9.69584e-10
9.69576e-10
9.69567e-10
9.69558e-10
9.69548e-10
9.69539e-10
9.69528e-10
9.69517e-10
9.69505e-10
9.69492e-10
9.69479e-10
9.69465e-10
9.6945e-10
9.69434e-10
9.69417e-10
9.694e-10
9.69381e-10
9.69361e-10
9.6934e-10
9.69318e-10
9.69295e-10
9.69271e-10
)
;

boundaryField
{
    inlet
    {
        type            calculated;
        value           uniform 0;
    }
    outlet
    {
        type            calculated;
        value           uniform 9.69244e-10;
    }
    emptyWalls
    {
        type            empty;
        value           nonuniform List<scalar> 0();
    }
}


// ************************************************************************* //
