/*--------------------------------*- C++ -*----------------------------------*\
  =========                 |
  \\      /  F ield         | OpenFOAM: The Open Source CFD Toolbox
   \\    /   O peration     | Website:  https://openfoam.org
    \\  /    A nd           | Version:  9
     \\/     M anipulation  |
\*---------------------------------------------------------------------------*/
FoamFile
{
    format      ascii;
    class       volVectorField;
    location    "15600";
    object      Ub;
}
// * * * * * * * * * * * * * * * * * * * * * * * * * * * * * * * * * * * * * //

dimensions      [0 0 0 0 0 0 0];

internalField   nonuniform List<vector> 
1000
(
(1.13618e-05 0 0)
(1.13621e-05 0 0)
(1.13623e-05 0 0)
(1.13626e-05 0 0)
(1.13629e-05 0 0)
(1.13632e-05 0 0)
(1.13635e-05 0 0)
(1.13639e-05 0 0)
(1.13644e-05 0 0)
(1.13649e-05 0 0)
(1.13654e-05 0 0)
(1.1366e-05 0 0)
(1.13665e-05 0 0)
(1.1367e-05 0 0)
(1.13675e-05 0 0)
(1.1368e-05 0 0)
(1.13686e-05 0 0)
(1.13691e-05 0 0)
(1.13701e-05 0 0)
(1.13728e-05 0 0)
(1.13831e-05 0 0)
(1.14506e-05 0 0)
(1.16162e-05 0 0)
(1.17367e-05 0 0)
(1.17517e-05 0 0)
(1.17501e-05 0 0)
(1.1745e-05 0 0)
(1.17433e-05 0 0)
(1.17469e-05 0 0)
(1.17531e-05 0 0)
(1.17604e-05 0 0)
(1.17702e-05 0 0)
(1.17805e-05 0 0)
(1.17887e-05 0 0)
(1.17946e-05 0 0)
(1.17983e-05 0 0)
(1.18004e-05 0 0)
(1.18013e-05 0 0)
(1.18008e-05 0 0)
(1.17995e-05 0 0)
(1.17986e-05 0 0)
(1.17981e-05 0 0)
(1.17977e-05 0 0)
(1.17974e-05 0 0)
(1.17972e-05 0 0)
(1.17973e-05 0 0)
(1.17974e-05 0 0)
(1.17976e-05 0 0)
(1.17977e-05 0 0)
(1.17978e-05 0 0)
(1.17977e-05 0 0)
(1.17976e-05 0 0)
(1.17974e-05 0 0)
(1.17969e-05 0 0)
(1.17963e-05 0 0)
(1.17955e-05 0 0)
(1.17943e-05 0 0)
(1.17927e-05 0 0)
(1.17906e-05 0 0)
(1.17878e-05 0 0)
(1.17843e-05 0 0)
(1.17801e-05 0 0)
(1.17755e-05 0 0)
(1.17706e-05 0 0)
(1.17655e-05 0 0)
(1.17602e-05 0 0)
(1.17548e-05 0 0)
(1.17493e-05 0 0)
(1.17436e-05 0 0)
(1.17379e-05 0 0)
(1.17322e-05 0 0)
(1.17263e-05 0 0)
(1.17204e-05 0 0)
(1.17145e-05 0 0)
(1.17084e-05 0 0)
(1.17024e-05 0 0)
(1.16963e-05 0 0)
(1.16902e-05 0 0)
(1.1684e-05 0 0)
(1.16777e-05 0 0)
(1.16715e-05 0 0)
(1.16652e-05 0 0)
(1.16588e-05 0 0)
(1.16525e-05 0 0)
(1.16461e-05 0 0)
(1.16396e-05 0 0)
(1.16331e-05 0 0)
(1.16266e-05 0 0)
(1.16201e-05 0 0)
(1.16135e-05 0 0)
(1.16069e-05 0 0)
(1.16003e-05 0 0)
(1.15936e-05 0 0)
(1.15869e-05 0 0)
(1.15801e-05 0 0)
(1.15734e-05 0 0)
(1.15666e-05 0 0)
(1.15598e-05 0 0)
(1.1553e-05 0 0)
(1.15461e-05 0 0)
(1.15393e-05 0 0)
(1.15325e-05 0 0)
(1.15256e-05 0 0)
(1.15188e-05 0 0)
(1.15119e-05 0 0)
(1.15049e-05 0 0)
(1.1498e-05 0 0)
(1.1491e-05 0 0)
(1.14839e-05 0 0)
(1.14769e-05 0 0)
(1.14698e-05 0 0)
(1.14627e-05 0 0)
(1.14557e-05 0 0)
(1.14486e-05 0 0)
(1.14416e-05 0 0)
(1.14345e-05 0 0)
(1.14274e-05 0 0)
(1.14201e-05 0 0)
(1.14127e-05 0 0)
(1.14051e-05 0 0)
(1.13973e-05 0 0)
(1.13893e-05 0 0)
(1.13809e-05 0 0)
(1.13724e-05 0 0)
(1.13636e-05 0 0)
(1.13546e-05 0 0)
(1.13454e-05 0 0)
(1.13361e-05 0 0)
(1.13268e-05 0 0)
(1.13174e-05 0 0)
(1.1308e-05 0 0)
(1.12988e-05 0 0)
(1.12897e-05 0 0)
(1.12808e-05 0 0)
(1.12723e-05 0 0)
(1.12641e-05 0 0)
(1.12563e-05 0 0)
(1.1249e-05 0 0)
(1.12421e-05 0 0)
(1.12358e-05 0 0)
(1.12298e-05 0 0)
(1.12243e-05 0 0)
(1.12191e-05 0 0)
(1.12142e-05 0 0)
(1.12094e-05 0 0)
(1.12047e-05 0 0)
(1.12e-05 0 0)
(1.11952e-05 0 0)
(1.11903e-05 0 0)
(1.11851e-05 0 0)
(1.11797e-05 0 0)
(1.11741e-05 0 0)
(1.11682e-05 0 0)
(1.1162e-05 0 0)
(1.11555e-05 0 0)
(1.11488e-05 0 0)
(1.1142e-05 0 0)
(1.11349e-05 0 0)
(1.11277e-05 0 0)
(1.11204e-05 0 0)
(1.1113e-05 0 0)
(1.11056e-05 0 0)
(1.10981e-05 0 0)
(1.10906e-05 0 0)
(1.10831e-05 0 0)
(1.10757e-05 0 0)
(1.10682e-05 0 0)
(1.10608e-05 0 0)
(1.10534e-05 0 0)
(1.1046e-05 0 0)
(1.10387e-05 0 0)
(1.10314e-05 0 0)
(1.10241e-05 0 0)
(1.10168e-05 0 0)
(1.10096e-05 0 0)
(1.10023e-05 0 0)
(1.09951e-05 0 0)
(1.09879e-05 0 0)
(1.09806e-05 0 0)
(1.09734e-05 0 0)
(1.09662e-05 0 0)
(1.09589e-05 0 0)
(1.09517e-05 0 0)
(1.09444e-05 0 0)
(1.09372e-05 0 0)
(1.09299e-05 0 0)
(1.09226e-05 0 0)
(1.09153e-05 0 0)
(1.09079e-05 0 0)
(1.09006e-05 0 0)
(1.08933e-05 0 0)
(1.08859e-05 0 0)
(1.08785e-05 0 0)
(1.08711e-05 0 0)
(1.08637e-05 0 0)
(1.08562e-05 0 0)
(1.08488e-05 0 0)
(1.08413e-05 0 0)
(1.08338e-05 0 0)
(1.08263e-05 0 0)
(1.08188e-05 0 0)
(1.08113e-05 0 0)
(1.08037e-05 0 0)
(1.07961e-05 0 0)
(1.07885e-05 0 0)
(1.07809e-05 0 0)
(1.07733e-05 0 0)
(1.07656e-05 0 0)
(1.0758e-05 0 0)
(1.07503e-05 0 0)
(1.07426e-05 0 0)
(1.07349e-05 0 0)
(1.07271e-05 0 0)
(1.07194e-05 0 0)
(1.07116e-05 0 0)
(1.07038e-05 0 0)
(1.0696e-05 0 0)
(1.06882e-05 0 0)
(1.06804e-05 0 0)
(1.06725e-05 0 0)
(1.06646e-05 0 0)
(1.06567e-05 0 0)
(1.06488e-05 0 0)
(1.06409e-05 0 0)
(1.0633e-05 0 0)
(1.0625e-05 0 0)
(1.0617e-05 0 0)
(1.0609e-05 0 0)
(1.0601e-05 0 0)
(1.0593e-05 0 0)
(1.0585e-05 0 0)
(1.0577e-05 0 0)
(1.05689e-05 0 0)
(1.05609e-05 0 0)
(1.05528e-05 0 0)
(1.05447e-05 0 0)
(1.05366e-05 0 0)
(1.05285e-05 0 0)
(1.05204e-05 0 0)
(1.05123e-05 0 0)
(1.05041e-05 0 0)
(1.04959e-05 0 0)
(1.04878e-05 0 0)
(1.04796e-05 0 0)
(1.04714e-05 0 0)
(1.04632e-05 0 0)
(1.0455e-05 0 0)
(1.04467e-05 0 0)
(1.04385e-05 0 0)
(1.04302e-05 0 0)
(1.04219e-05 0 0)
(1.04136e-05 0 0)
(1.04052e-05 0 0)
(1.03967e-05 0 0)
(1.03882e-05 0 0)
(1.03797e-05 0 0)
(1.0371e-05 0 0)
(1.03623e-05 0 0)
(1.03534e-05 0 0)
(1.03445e-05 0 0)
(1.03355e-05 0 0)
(1.03263e-05 0 0)
(1.03171e-05 0 0)
(1.03078e-05 0 0)
(1.02983e-05 0 0)
(1.02888e-05 0 0)
(1.02793e-05 0 0)
(1.02696e-05 0 0)
(1.026e-05 0 0)
(1.02503e-05 0 0)
(1.02407e-05 0 0)
(1.0231e-05 0 0)
(1.02214e-05 0 0)
(1.02119e-05 0 0)
(1.02025e-05 0 0)
(1.01932e-05 0 0)
(1.01841e-05 0 0)
(1.01751e-05 0 0)
(1.01663e-05 0 0)
(1.01577e-05 0 0)
(1.01492e-05 0 0)
(1.0141e-05 0 0)
(1.0133e-05 0 0)
(1.01251e-05 0 0)
(1.01174e-05 0 0)
(1.01099e-05 0 0)
(1.01025e-05 0 0)
(1.00952e-05 0 0)
(1.0088e-05 0 0)
(1.00808e-05 0 0)
(1.00737e-05 0 0)
(1.00666e-05 0 0)
(1.00594e-05 0 0)
(1.00522e-05 0 0)
(1.00449e-05 0 0)
(1.00375e-05 0 0)
(1.00301e-05 0 0)
(1.00225e-05 0 0)
(1.00148e-05 0 0)
(1.0007e-05 0 0)
(9.99912e-06 0 0)
(9.99111e-06 0 0)
(9.983e-06 0 0)
(9.97479e-06 0 0)
(9.9665e-06 0 0)
(9.95813e-06 0 0)
(9.94968e-06 0 0)
(9.94118e-06 0 0)
(9.93263e-06 0 0)
(9.92404e-06 0 0)
(9.91541e-06 0 0)
(9.90675e-06 0 0)
(9.89808e-06 0 0)
(9.88938e-06 0 0)
(9.88068e-06 0 0)
(9.87197e-06 0 0)
(9.86325e-06 0 0)
(9.85454e-06 0 0)
(9.84582e-06 0 0)
(9.8371e-06 0 0)
(9.82839e-06 0 0)
(9.81967e-06 0 0)
(9.81096e-06 0 0)
(9.80225e-06 0 0)
(9.79353e-06 0 0)
(9.78482e-06 0 0)
(9.7761e-06 0 0)
(9.76738e-06 0 0)
(9.75865e-06 0 0)
(9.74992e-06 0 0)
(9.74118e-06 0 0)
(9.73243e-06 0 0)
(9.72368e-06 0 0)
(9.71491e-06 0 0)
(9.70613e-06 0 0)
(9.69734e-06 0 0)
(9.68854e-06 0 0)
(9.67972e-06 0 0)
(9.67089e-06 0 0)
(9.66205e-06 0 0)
(9.65319e-06 0 0)
(9.64431e-06 0 0)
(9.63542e-06 0 0)
(9.62651e-06 0 0)
(9.61759e-06 0 0)
(9.60865e-06 0 0)
(9.59969e-06 0 0)
(9.59071e-06 0 0)
(9.58172e-06 0 0)
(9.57271e-06 0 0)
(9.56368e-06 0 0)
(9.55463e-06 0 0)
(9.54556e-06 0 0)
(9.53648e-06 0 0)
(9.52737e-06 0 0)
(9.51825e-06 0 0)
(9.50911e-06 0 0)
(9.49995e-06 0 0)
(9.49077e-06 0 0)
(9.48157e-06 0 0)
(9.47235e-06 0 0)
(9.46311e-06 0 0)
(9.45385e-06 0 0)
(9.44457e-06 0 0)
(9.43527e-06 0 0)
(9.42595e-06 0 0)
(9.41661e-06 0 0)
(9.40726e-06 0 0)
(9.39788e-06 0 0)
(9.38848e-06 0 0)
(9.37906e-06 0 0)
(9.36962e-06 0 0)
(9.36016e-06 0 0)
(9.35068e-06 0 0)
(9.34118e-06 0 0)
(9.33166e-06 0 0)
(9.32212e-06 0 0)
(9.31256e-06 0 0)
(9.30298e-06 0 0)
(9.29339e-06 0 0)
(9.28377e-06 0 0)
(9.27413e-06 0 0)
(9.26447e-06 0 0)
(9.25479e-06 0 0)
(9.2451e-06 0 0)
(9.23538e-06 0 0)
(9.22565e-06 0 0)
(9.2159e-06 0 0)
(9.20613e-06 0 0)
(9.19634e-06 0 0)
(9.18653e-06 0 0)
(9.1767e-06 0 0)
(9.16686e-06 0 0)
(9.15699e-06 0 0)
(9.14711e-06 0 0)
(9.1372e-06 0 0)
(9.12728e-06 0 0)
(9.11734e-06 0 0)
(9.10738e-06 0 0)
(9.0974e-06 0 0)
(9.08739e-06 0 0)
(9.07737e-06 0 0)
(9.06732e-06 0 0)
(9.05725e-06 0 0)
(9.04715e-06 0 0)
(9.03703e-06 0 0)
(9.02687e-06 0 0)
(9.01669e-06 0 0)
(9.00647e-06 0 0)
(8.99621e-06 0 0)
(8.98591e-06 0 0)
(8.97557e-06 0 0)
(8.96518e-06 0 0)
(8.95475e-06 0 0)
(8.94426e-06 0 0)
(8.93372e-06 0 0)
(8.92312e-06 0 0)
(8.91246e-06 0 0)
(8.90174e-06 0 0)
(8.89097e-06 0 0)
(8.88013e-06 0 0)
(8.86923e-06 0 0)
(8.85827e-06 0 0)
(8.84725e-06 0 0)
(8.83618e-06 0 0)
(8.82506e-06 0 0)
(8.81389e-06 0 0)
(8.80268e-06 0 0)
(8.79144e-06 0 0)
(8.78017e-06 0 0)
(8.76887e-06 0 0)
(8.75757e-06 0 0)
(8.74626e-06 0 0)
(8.73495e-06 0 0)
(8.72365e-06 0 0)
(8.71238e-06 0 0)
(8.70114e-06 0 0)
(8.68993e-06 0 0)
(8.67878e-06 0 0)
(8.66767e-06 0 0)
(8.65663e-06 0 0)
(8.64565e-06 0 0)
(8.63475e-06 0 0)
(8.62392e-06 0 0)
(8.61316e-06 0 0)
(8.60248e-06 0 0)
(8.59187e-06 0 0)
(8.58133e-06 0 0)
(8.57086e-06 0 0)
(8.56045e-06 0 0)
(8.5501e-06 0 0)
(8.53978e-06 0 0)
(8.52951e-06 0 0)
(8.51926e-06 0 0)
(8.50902e-06 0 0)
(8.49879e-06 0 0)
(8.48856e-06 0 0)
(8.4783e-06 0 0)
(8.46802e-06 0 0)
(8.45771e-06 0 0)
(8.44736e-06 0 0)
(8.43695e-06 0 0)
(8.42649e-06 0 0)
(8.41596e-06 0 0)
(8.40537e-06 0 0)
(8.39471e-06 0 0)
(8.38399e-06 0 0)
(8.37319e-06 0 0)
(8.36232e-06 0 0)
(8.35138e-06 0 0)
(8.34037e-06 0 0)
(8.32929e-06 0 0)
(8.31815e-06 0 0)
(8.30695e-06 0 0)
(8.29568e-06 0 0)
(8.28436e-06 0 0)
(8.27299e-06 0 0)
(8.26157e-06 0 0)
(8.2501e-06 0 0)
(8.23858e-06 0 0)
(8.22702e-06 0 0)
(8.21542e-06 0 0)
(8.20379e-06 0 0)
(8.19211e-06 0 0)
(8.18041e-06 0 0)
(8.16867e-06 0 0)
(8.1569e-06 0 0)
(8.1451e-06 0 0)
(8.13327e-06 0 0)
(8.12141e-06 0 0)
(8.10952e-06 0 0)
(8.09761e-06 0 0)
(8.08566e-06 0 0)
(8.07368e-06 0 0)
(8.06167e-06 0 0)
(8.04964e-06 0 0)
(8.03757e-06 0 0)
(8.02547e-06 0 0)
(8.01334e-06 0 0)
(8.00117e-06 0 0)
(7.98897e-06 0 0)
(7.97674e-06 0 0)
(7.96447e-06 0 0)
(7.95217e-06 0 0)
(7.93983e-06 0 0)
(7.92745e-06 0 0)
(7.91504e-06 0 0)
(7.90259e-06 0 0)
(7.89009e-06 0 0)
(7.87756e-06 0 0)
(7.86498e-06 0 0)
(7.85236e-06 0 0)
(7.8397e-06 0 0)
(7.827e-06 0 0)
(7.81426e-06 0 0)
(7.80147e-06 0 0)
(7.78863e-06 0 0)
(7.77575e-06 0 0)
(7.76282e-06 0 0)
(7.74985e-06 0 0)
(7.73682e-06 0 0)
(7.72375e-06 0 0)
(7.71063e-06 0 0)
(7.69747e-06 0 0)
(7.68425e-06 0 0)
(7.67098e-06 0 0)
(7.65766e-06 0 0)
(7.64429e-06 0 0)
(7.63087e-06 0 0)
(7.61739e-06 0 0)
(7.60386e-06 0 0)
(7.59028e-06 0 0)
(7.57664e-06 0 0)
(7.56295e-06 0 0)
(7.5492e-06 0 0)
(7.5354e-06 0 0)
(7.52154e-06 0 0)
(7.50762e-06 0 0)
(7.49364e-06 0 0)
(7.47961e-06 0 0)
(7.46551e-06 0 0)
(7.45136e-06 0 0)
(7.43714e-06 0 0)
(7.42287e-06 0 0)
(7.40853e-06 0 0)
(7.39413e-06 0 0)
(7.37966e-06 0 0)
(7.36513e-06 0 0)
(7.35054e-06 0 0)
(7.33589e-06 0 0)
(7.32117e-06 0 0)
(7.30638e-06 0 0)
(7.29152e-06 0 0)
(7.2766e-06 0 0)
(7.26161e-06 0 0)
(7.24656e-06 0 0)
(7.23143e-06 0 0)
(7.21624e-06 0 0)
(7.20098e-06 0 0)
(7.18564e-06 0 0)
(7.17024e-06 0 0)
(7.15476e-06 0 0)
(7.13922e-06 0 0)
(7.1236e-06 0 0)
(7.10792e-06 0 0)
(7.09217e-06 0 0)
(7.07634e-06 0 0)
(7.06044e-06 0 0)
(7.04448e-06 0 0)
(7.02844e-06 0 0)
(7.01234e-06 0 0)
(6.99618e-06 0 0)
(6.97995e-06 0 0)
(6.96366e-06 0 0)
(6.94731e-06 0 0)
(6.9309e-06 0 0)
(6.91444e-06 0 0)
(6.89794e-06 0 0)
(6.88139e-06 0 0)
(6.86482e-06 0 0)
(6.84823e-06 0 0)
(6.83162e-06 0 0)
(6.81501e-06 0 0)
(6.79842e-06 0 0)
(6.78187e-06 0 0)
(6.76538e-06 0 0)
(6.74897e-06 0 0)
(6.73267e-06 0 0)
(6.71651e-06 0 0)
(6.70054e-06 0 0)
(6.68478e-06 0 0)
(6.6693e-06 0 0)
(6.65413e-06 0 0)
(6.63934e-06 0 0)
(6.62496e-06 0 0)
(6.61106e-06 0 0)
(6.59769e-06 0 0)
(6.58491e-06 0 0)
(6.57277e-06 0 0)
(6.56131e-06 0 0)
(6.55057e-06 0 0)
(6.54057e-06 0 0)
(6.53134e-06 0 0)
(6.52287e-06 0 0)
(6.51519e-06 0 0)
(6.50825e-06 0 0)
(6.50206e-06 0 0)
(6.49656e-06 0 0)
(6.4917e-06 0 0)
(6.48743e-06 0 0)
(6.48369e-06 0 0)
(6.48042e-06 0 0)
(6.47749e-06 0 0)
(6.47475e-06 0 0)
(6.47204e-06 0 0)
(6.46897e-06 0 0)
(6.46503e-06 0 0)
(6.45929e-06 0 0)
(6.45007e-06 0 0)
(6.43447e-06 0 0)
(6.40743e-06 0 0)
(6.36027e-06 0 0)
(6.27865e-06 0 0)
(6.14049e-06 0 0)
(5.91599e-06 0 0)
(5.57475e-06 0 0)
(5.10519e-06 0 0)
(4.54027e-06 0 0)
(3.96199e-06 0 0)
(3.46348e-06 0 0)
(3.0974e-06 0 0)
(2.8615e-06 0 0)
(2.72301e-06 0 0)
(2.6464e-06 0 0)
(2.60548e-06 0 0)
(2.58406e-06 0 0)
(2.57299e-06 0 0)
(2.56733e-06 0 0)
(2.56448e-06 0 0)
(2.56308e-06 0 0)
(2.56243e-06 0 0)
(2.56217e-06 0 0)
(2.56211e-06 0 0)
(2.56215e-06 0 0)
(2.56225e-06 0 0)
(2.56238e-06 0 0)
(2.56252e-06 0 0)
(2.56266e-06 0 0)
(2.56281e-06 0 0)
(2.56296e-06 0 0)
(2.5631e-06 0 0)
(2.56324e-06 0 0)
(2.56338e-06 0 0)
(2.56351e-06 0 0)
(2.56363e-06 0 0)
(2.56375e-06 0 0)
(2.56386e-06 0 0)
(2.56397e-06 0 0)
(2.56407e-06 0 0)
(2.56416e-06 0 0)
(2.56424e-06 0 0)
(2.56432e-06 0 0)
(2.5644e-06 0 0)
(2.56446e-06 0 0)
(2.56453e-06 0 0)
(2.56458e-06 0 0)
(2.56463e-06 0 0)
(2.56468e-06 0 0)
(2.56472e-06 0 0)
(2.56476e-06 0 0)
(2.5648e-06 0 0)
(2.56483e-06 0 0)
(2.56486e-06 0 0)
(2.56489e-06 0 0)
(2.56491e-06 0 0)
(2.56494e-06 0 0)
(2.56496e-06 0 0)
(2.56498e-06 0 0)
(2.565e-06 0 0)
(2.56502e-06 0 0)
(2.56504e-06 0 0)
(2.56505e-06 0 0)
(2.56507e-06 0 0)
(2.56509e-06 0 0)
(2.5651e-06 0 0)
(2.56512e-06 0 0)
(2.56514e-06 0 0)
(2.56516e-06 0 0)
(2.56517e-06 0 0)
(2.56519e-06 0 0)
(2.56521e-06 0 0)
(2.56523e-06 0 0)
(2.56525e-06 0 0)
(2.56527e-06 0 0)
(2.56529e-06 0 0)
(2.56531e-06 0 0)
(2.56533e-06 0 0)
(2.56535e-06 0 0)
(2.56537e-06 0 0)
(2.56539e-06 0 0)
(2.56541e-06 0 0)
(2.56543e-06 0 0)
(2.56545e-06 0 0)
(2.56547e-06 0 0)
(2.56549e-06 0 0)
(2.56551e-06 0 0)
(2.56553e-06 0 0)
(2.56555e-06 0 0)
(2.56557e-06 0 0)
(2.56559e-06 0 0)
(2.56561e-06 0 0)
(2.56563e-06 0 0)
(2.56565e-06 0 0)
(2.56567e-06 0 0)
(2.56569e-06 0 0)
(2.56571e-06 0 0)
(2.56573e-06 0 0)
(2.56575e-06 0 0)
(2.56576e-06 0 0)
(2.56578e-06 0 0)
(2.5658e-06 0 0)
(2.56581e-06 0 0)
(2.56583e-06 0 0)
(2.56585e-06 0 0)
(2.56586e-06 0 0)
(2.56587e-06 0 0)
(2.56589e-06 0 0)
(2.5659e-06 0 0)
(2.56591e-06 0 0)
(2.56592e-06 0 0)
(2.56594e-06 0 0)
(2.56595e-06 0 0)
(2.56596e-06 0 0)
(2.56596e-06 0 0)
(2.56597e-06 0 0)
(2.56598e-06 0 0)
(2.56599e-06 0 0)
(2.56599e-06 0 0)
(2.566e-06 0 0)
(2.566e-06 0 0)
(2.56601e-06 0 0)
(2.56601e-06 0 0)
(2.56601e-06 0 0)
(2.56602e-06 0 0)
(2.56602e-06 0 0)
(2.56602e-06 0 0)
(2.56602e-06 0 0)
(2.56602e-06 0 0)
(2.56602e-06 0 0)
(2.56601e-06 0 0)
(2.56601e-06 0 0)
(2.56601e-06 0 0)
(2.566e-06 0 0)
(2.566e-06 0 0)
(2.56599e-06 0 0)
(2.56598e-06 0 0)
(2.56598e-06 0 0)
(2.56597e-06 0 0)
(2.56596e-06 0 0)
(2.56595e-06 0 0)
(2.56594e-06 0 0)
(2.56593e-06 0 0)
(2.56592e-06 0 0)
(2.56591e-06 0 0)
(2.56589e-06 0 0)
(2.56588e-06 0 0)
(2.56587e-06 0 0)
(2.56585e-06 0 0)
(2.56584e-06 0 0)
(2.56582e-06 0 0)
(2.5658e-06 0 0)
(2.56578e-06 0 0)
(2.56577e-06 0 0)
(2.56575e-06 0 0)
(2.56572e-06 0 0)
(2.5657e-06 0 0)
(2.56568e-06 0 0)
(2.56565e-06 0 0)
(2.56563e-06 0 0)
(2.5656e-06 0 0)
(2.56557e-06 0 0)
(2.56554e-06 0 0)
(2.5655e-06 0 0)
(2.56547e-06 0 0)
(2.56543e-06 0 0)
(2.56539e-06 0 0)
(2.56534e-06 0 0)
(2.5653e-06 0 0)
(2.56525e-06 0 0)
(2.5652e-06 0 0)
(2.56514e-06 0 0)
(2.56508e-06 0 0)
(2.56502e-06 0 0)
(2.56495e-06 0 0)
(2.56488e-06 0 0)
(2.5648e-06 0 0)
(2.56472e-06 0 0)
(2.56464e-06 0 0)
(2.56455e-06 0 0)
(2.56445e-06 0 0)
(2.56435e-06 0 0)
(2.56425e-06 0 0)
(2.56414e-06 0 0)
(2.56403e-06 0 0)
(2.56392e-06 0 0)
(2.56379e-06 0 0)
(2.56367e-06 0 0)
(2.56354e-06 0 0)
(2.56341e-06 0 0)
(2.56328e-06 0 0)
(2.56314e-06 0 0)
(2.563e-06 0 0)
(2.56286e-06 0 0)
(2.56272e-06 0 0)
(2.56257e-06 0 0)
(2.56243e-06 0 0)
(2.56229e-06 0 0)
(2.56214e-06 0 0)
(2.562e-06 0 0)
(2.56187e-06 0 0)
(2.56173e-06 0 0)
(2.5616e-06 0 0)
(2.56148e-06 0 0)
(2.56136e-06 0 0)
(2.56125e-06 0 0)
(2.56114e-06 0 0)
(2.56105e-06 0 0)
(2.56096e-06 0 0)
(2.56088e-06 0 0)
(2.5608e-06 0 0)
(2.56074e-06 0 0)
(2.56069e-06 0 0)
(2.56065e-06 0 0)
(2.56063e-06 0 0)
(2.56061e-06 0 0)
(2.5606e-06 0 0)
(2.5606e-06 0 0)
(2.5606e-06 0 0)
(2.56062e-06 0 0)
(2.56066e-06 0 0)
(2.56071e-06 0 0)
(2.56078e-06 0 0)
(2.56085e-06 0 0)
(2.56093e-06 0 0)
(2.56103e-06 0 0)
(2.56113e-06 0 0)
(2.56124e-06 0 0)
(2.56135e-06 0 0)
(2.56147e-06 0 0)
(2.5616e-06 0 0)
(2.56173e-06 0 0)
(2.56187e-06 0 0)
(2.562e-06 0 0)
(2.56214e-06 0 0)
(2.56228e-06 0 0)
(2.56242e-06 0 0)
(2.56255e-06 0 0)
(2.56269e-06 0 0)
(2.56282e-06 0 0)
(2.56294e-06 0 0)
(2.56307e-06 0 0)
(2.56319e-06 0 0)
(2.5633e-06 0 0)
(2.56341e-06 0 0)
(2.56352e-06 0 0)
(2.56362e-06 0 0)
(2.56371e-06 0 0)
(2.5638e-06 0 0)
(2.56388e-06 0 0)
(2.56396e-06 0 0)
(2.56403e-06 0 0)
(2.5641e-06 0 0)
(2.56417e-06 0 0)
(2.56423e-06 0 0)
(2.56428e-06 0 0)
(2.56433e-06 0 0)
(2.56438e-06 0 0)
(2.56443e-06 0 0)
(2.56447e-06 0 0)
(2.56451e-06 0 0)
(2.56455e-06 0 0)
(2.56458e-06 0 0)
(2.56461e-06 0 0)
(2.56465e-06 0 0)
(2.56468e-06 0 0)
(2.5647e-06 0 0)
(2.56473e-06 0 0)
(2.56476e-06 0 0)
(2.56479e-06 0 0)
(2.56481e-06 0 0)
(2.56484e-06 0 0)
(2.56486e-06 0 0)
(2.56489e-06 0 0)
(2.56491e-06 0 0)
(2.56494e-06 0 0)
(2.56496e-06 0 0)
(2.56499e-06 0 0)
(2.56502e-06 0 0)
(2.56504e-06 0 0)
(2.56507e-06 0 0)
(2.56509e-06 0 0)
(2.56512e-06 0 0)
(2.56515e-06 0 0)
(2.56517e-06 0 0)
(2.5652e-06 0 0)
(2.56523e-06 0 0)
(2.56525e-06 0 0)
(2.56528e-06 0 0)
(2.56531e-06 0 0)
(2.56533e-06 0 0)
(2.56536e-06 0 0)
(2.56539e-06 0 0)
(2.56541e-06 0 0)
(2.56544e-06 0 0)
(2.56547e-06 0 0)
(2.56549e-06 0 0)
(2.56552e-06 0 0)
(2.56554e-06 0 0)
(2.56557e-06 0 0)
(2.56559e-06 0 0)
(2.56562e-06 0 0)
(2.56564e-06 0 0)
(2.56567e-06 0 0)
(2.56569e-06 0 0)
(2.56571e-06 0 0)
(2.56574e-06 0 0)
(2.56576e-06 0 0)
(2.56578e-06 0 0)
(2.5658e-06 0 0)
(2.56582e-06 0 0)
(2.56584e-06 0 0)
(2.56586e-06 0 0)
(2.56588e-06 0 0)
(2.56589e-06 0 0)
(2.56591e-06 0 0)
(2.56593e-06 0 0)
(2.56594e-06 0 0)
(2.56596e-06 0 0)
(2.56597e-06 0 0)
(2.56598e-06 0 0)
(2.566e-06 0 0)
(2.56601e-06 0 0)
(2.56602e-06 0 0)
(2.56603e-06 0 0)
(2.56604e-06 0 0)
(2.56604e-06 0 0)
(2.56605e-06 0 0)
(2.56606e-06 0 0)
(2.56606e-06 0 0)
(2.56607e-06 0 0)
(2.56607e-06 0 0)
(2.56608e-06 0 0)
(2.56608e-06 0 0)
(2.56608e-06 0 0)
(2.56608e-06 0 0)
(2.56608e-06 0 0)
(2.56608e-06 0 0)
(2.56608e-06 0 0)
(2.56608e-06 0 0)
(2.56607e-06 0 0)
(2.56607e-06 0 0)
(2.56606e-06 0 0)
(2.56606e-06 0 0)
(2.56605e-06 0 0)
(2.56604e-06 0 0)
(2.56603e-06 0 0)
(2.56602e-06 0 0)
(2.56601e-06 0 0)
(2.566e-06 0 0)
(2.56599e-06 0 0)
(2.56597e-06 0 0)
(2.56596e-06 0 0)
(2.56595e-06 0 0)
(2.56593e-06 0 0)
(2.56591e-06 0 0)
(2.5659e-06 0 0)
(2.56588e-06 0 0)
(2.56586e-06 0 0)
(2.56584e-06 0 0)
(2.56581e-06 0 0)
(2.56579e-06 0 0)
(2.56577e-06 0 0)
(2.56574e-06 0 0)
(2.56571e-06 0 0)
(2.56568e-06 0 0)
(2.56565e-06 0 0)
(2.56562e-06 0 0)
(2.56558e-06 0 0)
(2.56555e-06 0 0)
(2.56551e-06 0 0)
(2.56547e-06 0 0)
(2.56542e-06 0 0)
(2.56538e-06 0 0)
(2.56533e-06 0 0)
(2.56528e-06 0 0)
(2.56522e-06 0 0)
(2.56516e-06 0 0)
(2.5651e-06 0 0)
(2.56504e-06 0 0)
(2.56497e-06 0 0)
)
;

boundaryField
{
    inlet
    {
        type            fixedValue;
        value           uniform (1.13622e-05 0 0);
    }
    outlet
    {
        type            zeroGradient;
    }
    emptyWalls
    {
        type            empty;
    }
}


// ************************************************************************* //
