/*--------------------------------*- C++ -*----------------------------------*\
  =========                 |
  \\      /  F ield         | OpenFOAM: The Open Source CFD Toolbox
   \\    /   O peration     | Website:  https://openfoam.org
    \\  /    A nd           | Version:  9
     \\/     M anipulation  |
\*---------------------------------------------------------------------------*/
FoamFile
{
    format      ascii;
    class       volScalarField;
    location    "26400";
    object      Fb;
}
// * * * * * * * * * * * * * * * * * * * * * * * * * * * * * * * * * * * * * //

dimensions      [0 0 0 0 0 0 0];

internalField   nonuniform List<scalar> 
1000
(
0.805226
0.805162
0.805241
0.805157
0.805262
0.805174
0.805269
0.805212
0.805261
0.805254
0.805267
0.805288
0.805303
0.805323
0.805349
0.805369
0.805394
0.805425
0.805441
0.805492
0.805482
0.805565
0.805515
0.805628
0.80556
0.805668
0.805627
0.805694
0.805691
0.805722
0.80573
0.80575
0.805758
0.805782
0.805821
0.805995
0.806907
0.814343
0.830505
0.83304
0.833904
0.834358
0.834662
0.834896
0.835091
0.835259
0.835409
0.835542
0.835663
0.835774
0.835875
0.835966
0.83605
0.836125
0.836193
0.836254
0.836308
0.836358
0.836404
0.836447
0.836485
0.836513
0.836535
0.836553
0.836558
0.836565
0.836575
0.836581
0.836589
0.836603
0.836613
0.836615
0.836601
0.836586
0.836557
0.836534
0.836497
0.836469
0.836447
0.836434
0.836428
0.836425
0.836417
0.836398
0.83636
0.836296
0.836206
0.836097
0.835946
0.835683
0.835397
0.835101
0.834803
0.834515
0.834261
0.834051
0.833853
0.833644
0.83344
0.833245
0.833075
0.832942
0.832845
0.832781
0.832743
0.832726
0.83272
0.832716
0.832704
0.832676
0.832627
0.832551
0.832446
0.832313
0.832152
0.831965
0.831756
0.831527
0.831283
0.831027
0.830764
0.830497
0.830227
0.829958
0.829691
0.829427
0.829167
0.82891
0.828657
0.828406
0.828159
0.827913
0.827669
0.827427
0.827185
0.826943
0.826701
0.826459
0.826216
0.825973
0.825728
0.825483
0.825236
0.824989
0.82474
0.824491
0.82424
0.823988
0.823734
0.82348
0.823224
0.822967
0.822708
0.822448
0.822186
0.821924
0.82166
0.821394
0.821128
0.820861
0.820592
0.820323
0.820052
0.81978
0.819507
0.819232
0.818956
0.818678
0.818398
0.818117
0.817835
0.817552
0.817267
0.816982
0.816696
0.81641
0.816124
0.815837
0.81555
0.815262
0.814973
0.814682
0.81439
0.814096
0.813801
0.813504
0.813206
0.812907
0.812607
0.812308
0.81201
0.811712
0.811416
0.811122
0.810828
0.810535
0.810241
0.809944
0.809642
0.809333
0.809015
0.808686
0.808345
0.807991
0.807624
0.807244
0.806852
0.806448
0.806035
0.805614
0.805187
0.804756
0.804325
0.803896
0.803471
0.803055
0.80265
0.80226
0.801886
0.801532
0.801199
0.800889
0.800601
0.800336
0.800093
0.799869
0.799661
0.799467
0.799283
0.799105
0.79893
0.798755
0.798576
0.798392
0.798199
0.797996
0.797783
0.79756
0.797325
0.797079
0.796824
0.79656
0.796288
0.796009
0.795725
0.795436
0.795144
0.79485
0.794554
0.794257
0.79396
0.793664
0.793368
0.793073
0.792779
0.792486
0.792194
0.791903
0.791613
0.791324
0.791036
0.790748
0.79046
0.790173
0.789886
0.789598
0.789311
0.789023
0.788735
0.788447
0.788158
0.787869
0.787579
0.787288
0.786996
0.786704
0.786411
0.786117
0.785823
0.785527
0.785231
0.784934
0.784636
0.784337
0.784038
0.783737
0.783436
0.783134
0.782831
0.782527
0.782223
0.781917
0.781611
0.781303
0.780995
0.780685
0.780375
0.780064
0.779752
0.779439
0.779125
0.778811
0.778496
0.778181
0.777865
0.777548
0.77723
0.776912
0.776594
0.776274
0.775954
0.775633
0.775311
0.774989
0.774665
0.774341
0.774017
0.773692
0.773367
0.773042
0.772716
0.772391
0.772065
0.77174
0.771414
0.771087
0.770759
0.77043
0.770099
0.769765
0.769428
0.769087
0.768741
0.76839
0.768033
0.767671
0.767301
0.766925
0.766543
0.766154
0.765758
0.765357
0.764951
0.76454
0.764126
0.76371
0.763293
0.762876
0.76246
0.762048
0.761639
0.761237
0.760842
0.760456
0.760079
0.759713
0.759358
0.759015
0.758684
0.758366
0.758059
0.757764
0.757479
0.757203
0.756936
0.756675
0.756419
0.756167
0.755918
0.755668
0.755419
0.755167
0.754913
0.754654
0.754392
0.754124
0.753851
0.753573
0.753289
0.753001
0.752707
0.752408
0.752106
0.751799
0.751489
0.751176
0.75086
0.750543
0.750224
0.749903
0.749582
0.74926
0.748937
0.748615
0.748292
0.74797
0.747647
0.747325
0.747003
0.746682
0.74636
0.746039
0.745718
0.745398
0.745077
0.744756
0.744436
0.744115
0.743794
0.743473
0.743152
0.74283
0.742508
0.742185
0.741863
0.741539
0.741215
0.740891
0.740565
0.74024
0.739913
0.739586
0.739258
0.73893
0.738601
0.738271
0.73794
0.737609
0.737277
0.736944
0.736611
0.736277
0.735942
0.735606
0.735269
0.734932
0.734594
0.734255
0.733915
0.733575
0.733233
0.732892
0.732549
0.732206
0.731862
0.731517
0.731172
0.730826
0.730479
0.730132
0.729784
0.729435
0.729086
0.728736
0.728386
0.728035
0.727683
0.727331
0.726979
0.726625
0.726272
0.725918
0.725563
0.725208
0.724853
0.724497
0.724141
0.723784
0.723426
0.723068
0.722708
0.722348
0.721986
0.721622
0.721256
0.720889
0.720518
0.720145
0.719769
0.71939
0.719007
0.71862
0.71823
0.717836
0.717438
0.717036
0.716631
0.716222
0.71581
0.715394
0.714976
0.714556
0.714135
0.713712
0.713289
0.712867
0.712445
0.712025
0.711607
0.711192
0.710781
0.710375
0.709973
0.709577
0.709188
0.708804
0.708428
0.708058
0.707696
0.70734
0.706991
0.706649
0.706314
0.705983
0.705658
0.705337
0.705021
0.704707
0.704397
0.704086
0.703779
0.703469
0.703162
0.70285
0.702541
0.702225
0.701912
0.701591
0.701272
0.700945
0.700621
0.700288
0.699957
0.699618
0.699282
0.698937
0.698596
0.698246
0.6979
0.697546
0.697197
0.69684
0.696489
0.696129
0.695775
0.695415
0.695059
0.694698
0.694341
0.693979
0.693621
0.693259
0.692901
0.692538
0.69218
0.691817
0.691458
0.691096
0.690736
0.690373
0.690013
0.68965
0.689289
0.688926
0.688564
0.6882
0.687837
0.687473
0.687109
0.686744
0.686378
0.686012
0.685646
0.685279
0.684911
0.684543
0.684174
0.683804
0.683434
0.683063
0.682692
0.682319
0.681946
0.681573
0.681198
0.680823
0.680447
0.68007
0.679693
0.679315
0.678936
0.678557
0.678176
0.677795
0.677414
0.677031
0.676648
0.676264
0.675879
0.675494
0.675108
0.674721
0.674334
0.673946
0.673557
0.673168
0.672778
0.672387
0.671996
0.671604
0.671211
0.670818
0.670425
0.67003
0.669636
0.66924
0.668844
0.668447
0.668051
0.667653
0.667255
0.666855
0.666456
0.666055
0.665655
0.665252
0.66485
0.664445
0.664041
0.663634
0.663227
0.662817
0.662407
0.661993
0.661579
0.661162
0.660744
0.660322
0.659899
0.659473
0.659045
0.658614
0.658181
0.657744
0.657307
0.656865
0.656423
0.655977
0.655531
0.655082
0.654632
0.65418
0.653729
0.653275
0.652823
0.652369
0.651917
0.651464
0.651014
0.650564
0.650118
0.649672
0.649231
0.64879
0.648355
0.647922
0.647493
0.647067
0.646647
0.646229
0.645817
0.645407
0.645004
0.644602
0.644205
0.64381
0.64342
0.643031
0.642647
0.642262
0.641882
0.641501
0.641123
0.640743
0.640366
0.639985
0.639608
0.639226
0.638848
0.638463
0.638082
0.637694
0.637309
0.636917
0.636529
0.636133
0.635741
0.63534
0.634944
0.634539
0.63414
0.633731
0.633328
0.632915
0.632509
0.632094
0.631685
0.631267
0.630856
0.630435
0.630023
0.6296
0.629187
0.628762
0.628347
0.627921
0.627505
0.627077
0.626661
0.626232
0.625814
0.625384
0.624966
0.624535
0.624116
0.623684
0.623264
0.622831
0.62241
0.621975
0.621554
0.621118
0.620695
0.620258
0.619835
0.619395
0.618971
0.61853
0.618105
0.617662
0.617236
0.616791
0.616364
0.615917
0.615489
0.615039
0.614611
0.614159
0.613729
0.613275
0.612844
0.612387
0.611956
0.611497
0.611064
0.610602
0.610168
0.609705
0.609269
0.608804
0.608366
0.607899
0.60746
0.606992
0.606549
0.60608
0.605636
0.605165
0.604718
0.604247
0.603797
0.603326
0.602873
0.602401
0.601945
0.601472
0.601014
0.60054
0.600079
0.599605
0.599141
0.598666
0.5982
0.597724
0.597255
0.596778
0.596307
0.595829
0.595356
0.594876
0.594401
0.593919
0.593441
0.592958
0.592478
0.591992
0.591509
0.59102
0.590536
0.590043
0.589556
0.58906
0.58857
0.588071
0.587577
0.587073
0.586577
0.586069
0.585569
0.585056
0.584553
0.584035
0.583528
0.583005
0.582496
0.581968
0.581456
0.580923
0.580409
0.579872
0.579356
0.578814
0.578297
0.577752
0.577234
0.576686
0.576169
0.575619
0.575102
0.574551
0.574036
0.573484
0.572971
0.57242
0.57191
0.57136
0.570854
0.570306
0.569803
0.569258
0.56876
0.568218
0.567723
0.567185
0.566694
0.56616
0.565673
0.565142
0.564659
0.564131
0.56365
0.563125
0.562646
0.562123
0.561646
0.561123
0.560646
0.560124
0.559647
0.559123
0.558645
0.55812
0.55764
0.557112
0.55663
0.556099
0.555614
0.55508
0.554591
0.554053
0.553561
0.553019
0.552523
0.551977
0.551477
0.550927
0.550423
0.549869
0.549362
0.548804
0.548292
0.547731
0.547216
0.546652
0.546133
0.545565
0.545044
0.544473
0.543948
0.543374
0.542847
0.54227
0.54174
0.541161
0.540628
0.540046
0.53951
0.538926
0.538388
0.5378
0.53726
0.53667
0.536126
0.535534
0.534988
0.534392
0.533844
0.533245
0.532694
0.532093
0.531539
0.530934
0.530377
0.52977
0.52921
0.5286
0.528036
0.527423
0.526857
0.52624
0.52567
0.52505
0.524477
0.523853
0.523278
0.522649
0.522072
0.521437
0.52086
0.520218
0.51964
0.518992
0.518413
0.517759
0.517177
0.51652
0.515934
0.515273
0.514683
0.514018
0.513425
0.512754
0.51216
0.511483
0.510886
0.510205
0.509604
0.508918
0.508314
0.507624
0.507017
0.506321
0.505711
0.505011
0.504397
0.503692
0.503074
0.502365
0.501745
0.501029
0.500409
0.499682
0.499066
0.498326
0.497715
0.496959
0.496358
0.495583
0.494994
0.494197
0.493624
0.4928
0.492245
0.491396
0.490858
0.489983
0.489463
0.48856
0.488059
0.487129
0.486648
0.485691
0.485228
0.484246
0.4838
0.482795
0.482364
0.48134
0.480922
0.479882
0.479475
0.478423
0.478026
0.476965
0.47658
0.475509
0.47514
0.474065
0.473762
0.0129791
)
;

boundaryField
{
    inlet
    {
        type            calculated;
        value           uniform 0.805169;
    }
    outlet
    {
        type            calculated;
        value           uniform 0.53822;
    }
    emptyWalls
    {
        type            empty;
    }
}


// ************************************************************************* //
