/*--------------------------------*- C++ -*----------------------------------*\
  =========                 |
  \\      /  F ield         | OpenFOAM: The Open Source CFD Toolbox
   \\    /   O peration     | Website:  https://openfoam.org
    \\  /    A nd           | Version:  9
     \\/     M anipulation  |
\*---------------------------------------------------------------------------*/
FoamFile
{
    format      ascii;
    class       volScalarField;
    location    "26400";
    object      krc;
}
// * * * * * * * * * * * * * * * * * * * * * * * * * * * * * * * * * * * * * //

dimensions      [0 0 0 0 0 0 0];

internalField   nonuniform List<scalar> 
1000
(
6.39016e-08
5.80039e-07
2.04976e-06
4.43107e-06
7.71207e-06
1.18946e-05
1.69922e-05
2.30192e-05
2.99944e-05
3.79358e-05
4.68608e-05
5.67811e-05
6.77034e-05
7.96246e-05
9.25292e-05
0.000106385
0.000121138
0.000136707
0.00015298
0.000169809
0.000187009
0.000204359
0.000221617
0.000238521
0.000254825
0.000270298
0.000284769
0.000298109
0.000310264
0.000321234
0.000331089
0.000340033
0.000348785
0.000360461
0.000389429
0.000499808
0.00107893
0.00808228
0.0339088
0.042243
0.044992
0.0463367
0.0471898
0.0478246
0.0483426
0.0487905
0.0491906
0.0495571
0.0498968
0.0502159
0.0505171
0.0508037
0.051077
0.0513389
0.0515903
0.0518326
0.0520661
0.052292
0.0525105
0.0527226
0.0529286
0.0531293
0.0533248
0.0535159
0.0537026
0.0538858
0.0540653
0.0542421
0.054416
0.0545878
0.0547574
0.0549253
0.0550915
0.0552567
0.0554207
0.0555845
0.0557478
0.0559127
0.056079
0.0562458
0.0564131
0.0565812
0.05675
0.0569198
0.0570909
0.0572635
0.057438
0.0576146
0.0577939
0.0579761
0.0581621
0.0583524
0.0585479
0.0587497
0.0589594
0.0591789
0.0594108
0.0596584
0.0599262
0.0602194
0.0605439
0.0609052
0.0613073
0.0617505
0.0622312
0.0627423
0.0632759
0.063826
0.0643881
0.0649591
0.0655366
0.0661191
0.0667052
0.067294
0.0678847
0.0684768
0.06907
0.0696636
0.0702577
0.0708518
0.0714458
0.0720396
0.072633
0.0732259
0.0738184
0.0744101
0.0750012
0.0755915
0.076181
0.0767697
0.0773575
0.0779444
0.0785304
0.0791154
0.0796995
0.0802825
0.0808646
0.0814456
0.0820256
0.0826045
0.0831824
0.0837593
0.0843351
0.0849098
0.0854834
0.086056
0.0866275
0.0871979
0.0877672
0.0883354
0.0889026
0.0894686
0.0900336
0.0905975
0.0911603
0.091722
0.0922827
0.0928422
0.0934007
0.0939581
0.0945144
0.0950697
0.0956239
0.096177
0.096729
0.09728
0.0978299
0.0983788
0.0989266
0.0994734
0.100019
0.100564
0.101107
0.10165
0.102192
0.102732
0.103272
0.10381
0.104348
0.104884
0.10542
0.105954
0.106488
0.10702
0.107551
0.108082
0.108611
0.10914
0.109667
0.110194
0.110719
0.111244
0.111768
0.11229
0.112812
0.113333
0.113853
0.114372
0.11489
0.115407
0.115923
0.116438
0.116952
0.117465
0.117977
0.118489
0.118999
0.119508
0.120017
0.120524
0.121031
0.121537
0.122041
0.122545
0.123048
0.123551
0.124052
0.124553
0.125052
0.125551
0.126049
0.126547
0.127044
0.12754
0.128035
0.128529
0.129023
0.129516
0.130008
0.130499
0.13099
0.13148
0.131969
0.132457
0.132944
0.133431
0.133916
0.134401
0.134885
0.135369
0.135851
0.136333
0.136814
0.137294
0.137773
0.138252
0.138729
0.139206
0.139683
0.140158
0.140633
0.141107
0.14158
0.142053
0.142525
0.142996
0.143466
0.143936
0.144405
0.144874
0.145341
0.145808
0.146275
0.14674
0.147205
0.147669
0.148133
0.148596
0.149058
0.149519
0.14998
0.150441
0.1509
0.151359
0.151817
0.152275
0.152732
0.153188
0.153644
0.154098
0.154553
0.155006
0.15546
0.155912
0.156364
0.156815
0.157266
0.157715
0.158165
0.158613
0.159062
0.159509
0.159956
0.160402
0.160848
0.161293
0.161737
0.162181
0.162625
0.163067
0.16351
0.163951
0.164392
0.164832
0.165272
0.165712
0.16615
0.166588
0.167026
0.167463
0.167899
0.168335
0.168771
0.169205
0.16964
0.170073
0.170507
0.170939
0.171371
0.171803
0.172234
0.172664
0.173094
0.173524
0.173953
0.174381
0.174809
0.175237
0.175664
0.17609
0.176516
0.176941
0.177366
0.17779
0.178214
0.178637
0.17906
0.179482
0.179903
0.180324
0.180745
0.181165
0.181584
0.182003
0.182421
0.182839
0.183257
0.183674
0.18409
0.184507
0.184922
0.185337
0.185752
0.186167
0.186581
0.186994
0.187408
0.187821
0.188234
0.188646
0.189058
0.189469
0.189881
0.190292
0.190702
0.191113
0.191522
0.191932
0.192341
0.19275
0.193158
0.193566
0.193973
0.19438
0.194787
0.195193
0.195599
0.196004
0.196409
0.196813
0.197217
0.197621
0.198024
0.198426
0.198829
0.199231
0.199632
0.200033
0.200434
0.200834
0.201234
0.201634
0.202033
0.202432
0.20283
0.203228
0.203626
0.204023
0.20442
0.204817
0.205213
0.205609
0.206004
0.2064
0.206795
0.207189
0.207583
0.207977
0.208371
0.208764
0.209157
0.209549
0.209941
0.210333
0.210725
0.211116
0.211507
0.211897
0.212288
0.212677
0.213067
0.213456
0.213845
0.214234
0.214622
0.21501
0.215397
0.215785
0.216172
0.216558
0.216945
0.217331
0.217716
0.218102
0.218487
0.218872
0.219256
0.219641
0.220024
0.220408
0.220791
0.221174
0.221557
0.22194
0.222322
0.222704
0.223085
0.223467
0.223848
0.224228
0.224609
0.224989
0.225369
0.225749
0.226128
0.226507
0.226886
0.227264
0.227643
0.228021
0.228398
0.228776
0.229153
0.22953
0.229907
0.230283
0.23066
0.231035
0.231411
0.231787
0.232162
0.232537
0.232911
0.233286
0.23366
0.234034
0.234408
0.234781
0.235154
0.235527
0.235899
0.236272
0.236644
0.237015
0.237387
0.237758
0.238129
0.238499
0.23887
0.23924
0.239609
0.239979
0.240348
0.240717
0.241086
0.241455
0.241823
0.242192
0.24256
0.242928
0.243295
0.243663
0.244031
0.244398
0.244765
0.245132
0.245499
0.245866
0.246233
0.2466
0.246967
0.247333
0.2477
0.248066
0.248432
0.248799
0.249165
0.249531
0.249896
0.250262
0.250628
0.250993
0.251358
0.251723
0.252088
0.252453
0.252817
0.253181
0.253546
0.253909
0.254273
0.254637
0.255
0.255363
0.255726
0.256088
0.256451
0.256813
0.257175
0.257537
0.257899
0.258261
0.258622
0.258984
0.259345
0.259706
0.260067
0.260427
0.260788
0.261148
0.261509
0.261869
0.262229
0.262589
0.262949
0.263308
0.263668
0.264027
0.264386
0.264745
0.265105
0.265463
0.265822
0.266181
0.266539
0.266898
0.267256
0.267614
0.267972
0.26833
0.268688
0.269046
0.269404
0.269761
0.270119
0.270476
0.270833
0.27119
0.271547
0.271904
0.272261
0.272617
0.272974
0.27333
0.273687
0.274043
0.274399
0.274755
0.275111
0.275467
0.275823
0.276178
0.276534
0.276889
0.277245
0.2776
0.277955
0.27831
0.278665
0.27902
0.279375
0.27973
0.280085
0.280439
0.280794
0.281148
0.281503
0.281857
0.282212
0.282566
0.28292
0.283274
0.283628
0.283982
0.284336
0.28469
0.285043
0.285397
0.285751
0.286104
0.286458
0.286811
0.287165
0.287518
0.287871
0.288225
0.288578
0.288931
0.289284
0.289637
0.28999
0.290343
0.290696
0.291049
0.291401
0.291754
0.292107
0.292459
0.292811
0.293164
0.293516
0.293868
0.29422
0.294572
0.294924
0.295276
0.295628
0.29598
0.296332
0.296683
0.297035
0.297387
0.297738
0.29809
0.298441
0.298793
0.299144
0.299496
0.299848
0.300199
0.300551
0.300903
0.301255
0.301606
0.301958
0.30231
0.302663
0.303015
0.303367
0.30372
0.304072
0.304425
0.304778
0.305131
0.305484
0.305837
0.306191
0.306544
0.306898
0.307251
0.307605
0.307959
0.308313
0.308667
0.309021
0.309375
0.309729
0.310084
0.310438
0.310792
0.311146
0.311501
0.311855
0.312209
0.312564
0.312918
0.313272
0.313627
0.313981
0.314336
0.31469
0.315045
0.315399
0.315754
0.316109
0.316463
0.316818
0.317173
0.317528
0.317883
0.318238
0.318593
0.318948
0.319303
0.319658
0.320014
0.320369
0.320725
0.32108
0.321436
0.321792
0.322148
0.322504
0.32286
0.323216
0.323572
0.323929
0.324285
0.324642
0.324999
0.325356
0.325713
0.32607
0.326427
0.326785
0.327142
0.3275
0.327857
0.328215
0.328573
0.328931
0.329289
0.329648
0.330006
0.330365
0.330723
0.331082
0.331441
0.3318
0.332159
0.332519
0.332878
0.333238
0.333597
0.333958
0.334317
0.334678
0.335038
0.335399
0.335759
0.33612
0.336481
0.336843
0.337204
0.337565
0.337927
0.338289
0.338651
0.339013
0.339375
0.339738
0.3401
0.340464
0.340826
0.34119
0.341553
0.341917
0.342281
0.342645
0.343009
0.343374
0.343738
0.344103
0.344468
0.344833
0.345199
0.345565
0.34593
0.346297
0.346663
0.34703
0.347396
0.347763
0.34813
0.348498
0.348866
0.349234
0.349602
0.34997
0.350338
0.350707
0.351076
0.351446
0.351815
0.352185
0.352555
0.352925
0.353295
0.353666
0.354037
0.354408
0.354779
0.355151
0.355522
0.355895
0.356267
0.35664
0.357012
0.357385
0.357758
0.358132
0.358506
0.35888
0.359254
0.35963
0.360004
0.36038
0.360755
0.361132
0.361508
0.361885
0.362262
0.36264
0.363017
0.363397
0.363775
0.364155
0.364534
0.364915
0.365295
0.365677
0.366058
0.366441
0.366822
0.367207
0.367589
0.367974
0.368358
0.368744
0.369129
0.369516
0.369902
0.37029
0.370677
0.371066
0.371454
0.371844
0.372233
0.372624
0.373013
0.373406
0.373796
0.374189
0.374581
0.374975
0.375367
0.375762
0.376155
0.376551
0.376946
0.377342
0.377738
0.378135
0.378531
0.37893
0.379327
0.379727
0.380125
0.380526
0.380925
0.381327
0.381727
0.38213
0.382531
0.382935
0.383337
0.383742
0.384145
0.384552
0.384956
0.385363
0.385769
0.386178
0.386585
0.386995
0.387403
0.387814
0.388223
0.388636
0.389046
0.38946
0.389872
0.390287
0.3907
0.391117
0.391532
0.391949
0.392366
0.392785
0.393202
0.393623
0.394042
0.394464
0.394885
0.395308
0.39573
0.396155
0.396579
0.397005
0.39743
0.397858
0.398285
0.398715
0.399143
0.399574
0.400005
0.400436
0.400871
0.401301
0.401739
0.40217
0.402612
0.403043
0.403487
0.403919
0.404365
0.4048
0.405247
0.405684
0.406133
0.406572
0.407023
0.407463
0.407916
0.408358
0.408813
0.409258
0.409714
0.410161
0.410619
0.411068
0.411528
0.41198
0.412441
0.412895
0.413359
0.413815
0.414281
0.414739
0.415207
0.415665
0.41614
0.416595
0.417077
0.417528
0.41802
0.418465
0.418969
0.419404
0.419922
0.420347
0.420881
0.421293
0.421844
0.422244
0.42281
0.423198
0.423781
0.424155
0.424756
0.425115
0.425733
0.426078
0.426712
0.427044
0.427692
0.428013
0.428672
0.428983
0.429651
0.429953
0.430627
0.430921
0.4316
0.431885
0.432568
0.432842
0.433526
0.433798
0.270683
)
;

boundaryField
{
    inlet
    {
        type            calculated;
        value           uniform 3.08149e-33;
    }
    outlet
    {
        type            calculated;
        value           uniform 0.270683;
    }
    emptyWalls
    {
        type            empty;
    }
}


// ************************************************************************* //
