/*--------------------------------*- C++ -*----------------------------------*\
  =========                 |
  \\      /  F ield         | OpenFOAM: The Open Source CFD Toolbox
   \\    /   O peration     | Website:  https://openfoam.org
    \\  /    A nd           | Version:  9
     \\/     M anipulation  |
\*---------------------------------------------------------------------------*/
FoamFile
{
    format      ascii;
    class       surfaceScalarField;
    location    "26400";
    object      phib;
}
// * * * * * * * * * * * * * * * * * * * * * * * * * * * * * * * * * * * * * //

dimensions      [0 2 0 0 0 0 0];

internalField   nonuniform List<scalar> 
999
(
1.13621e-09
1.13622e-09
1.13622e-09
1.13623e-09
1.13624e-09
1.13625e-09
1.13627e-09
1.13627e-09
1.1363e-09
1.1363e-09
1.13633e-09
1.13635e-09
1.13638e-09
1.13641e-09
1.13644e-09
1.13647e-09
1.13651e-09
1.13655e-09
1.13659e-09
1.13662e-09
1.13667e-09
1.1367e-09
1.13674e-09
1.13677e-09
1.1368e-09
1.13685e-09
1.13687e-09
1.13691e-09
1.13693e-09
1.13696e-09
1.13698e-09
1.137e-09
1.13702e-09
1.13707e-09
1.13722e-09
1.1378e-09
1.14071e-09
1.16461e-09
1.17384e-09
1.17612e-09
1.17704e-09
1.17758e-09
1.17796e-09
1.17826e-09
1.17852e-09
1.17874e-09
1.17894e-09
1.17912e-09
1.17928e-09
1.17943e-09
1.17957e-09
1.17969e-09
1.1798e-09
1.1799e-09
1.17999e-09
1.18008e-09
1.18015e-09
1.18022e-09
1.18028e-09
1.18034e-09
1.18038e-09
1.18042e-09
1.18045e-09
1.18046e-09
1.18047e-09
1.18048e-09
1.18049e-09
1.1805e-09
1.18052e-09
1.18054e-09
1.18055e-09
1.18054e-09
1.18052e-09
1.18049e-09
1.18045e-09
1.18041e-09
1.18036e-09
1.18033e-09
1.1803e-09
1.18029e-09
1.18028e-09
1.18027e-09
1.18025e-09
1.18021e-09
1.18014e-09
1.18003e-09
1.17989e-09
1.17973e-09
1.17942e-09
1.17903e-09
1.17862e-09
1.1782e-09
1.17779e-09
1.17741e-09
1.17708e-09
1.17679e-09
1.1765e-09
1.17621e-09
1.17593e-09
1.17567e-09
1.17546e-09
1.1753e-09
1.17518e-09
1.17511e-09
1.17507e-09
1.17506e-09
1.17505e-09
1.17504e-09
1.17501e-09
1.17495e-09
1.17487e-09
1.17474e-09
1.17457e-09
1.17436e-09
1.17412e-09
1.17384e-09
1.17353e-09
1.1732e-09
1.17284e-09
1.17248e-09
1.1721e-09
1.17172e-09
1.17134e-09
1.17097e-09
1.17059e-09
1.17022e-09
1.16986e-09
1.1695e-09
1.16914e-09
1.16879e-09
1.16844e-09
1.1681e-09
1.16775e-09
1.16741e-09
1.16707e-09
1.16673e-09
1.16639e-09
1.16604e-09
1.1657e-09
1.16536e-09
1.16501e-09
1.16467e-09
1.16432e-09
1.16397e-09
1.16362e-09
1.16326e-09
1.16291e-09
1.16255e-09
1.16219e-09
1.16183e-09
1.16147e-09
1.16111e-09
1.16074e-09
1.16037e-09
1.16e-09
1.15963e-09
1.15926e-09
1.15888e-09
1.15851e-09
1.15813e-09
1.15775e-09
1.15737e-09
1.15698e-09
1.1566e-09
1.15621e-09
1.15582e-09
1.15543e-09
1.15504e-09
1.15464e-09
1.15425e-09
1.15385e-09
1.15345e-09
1.15304e-09
1.15264e-09
1.15224e-09
1.15183e-09
1.15143e-09
1.15103e-09
1.15062e-09
1.15021e-09
1.1498e-09
1.14939e-09
1.14898e-09
1.14856e-09
1.14814e-09
1.14772e-09
1.1473e-09
1.14688e-09
1.14646e-09
1.14604e-09
1.14562e-09
1.1452e-09
1.14478e-09
1.14437e-09
1.14395e-09
1.14354e-09
1.14312e-09
1.1427e-09
1.14227e-09
1.14183e-09
1.14137e-09
1.1409e-09
1.14041e-09
1.1399e-09
1.13937e-09
1.13883e-09
1.13826e-09
1.13769e-09
1.1371e-09
1.1365e-09
1.1359e-09
1.13529e-09
1.13468e-09
1.13408e-09
1.13349e-09
1.13291e-09
1.13234e-09
1.13181e-09
1.13129e-09
1.13081e-09
1.13035e-09
1.12993e-09
1.12954e-09
1.12918e-09
1.12885e-09
1.12855e-09
1.12826e-09
1.128e-09
1.12774e-09
1.12749e-09
1.12725e-09
1.127e-09
1.12674e-09
1.12647e-09
1.1262e-09
1.1259e-09
1.12559e-09
1.12527e-09
1.12493e-09
1.12458e-09
1.12421e-09
1.12383e-09
1.12345e-09
1.12305e-09
1.12264e-09
1.12223e-09
1.12182e-09
1.1214e-09
1.12099e-09
1.12057e-09
1.12015e-09
1.11973e-09
1.11931e-09
1.1189e-09
1.11848e-09
1.11807e-09
1.11766e-09
1.11725e-09
1.11684e-09
1.11643e-09
1.11603e-09
1.11562e-09
1.11522e-09
1.11481e-09
1.11441e-09
1.114e-09
1.11359e-09
1.11319e-09
1.11278e-09
1.11237e-09
1.11197e-09
1.11156e-09
1.11115e-09
1.11074e-09
1.11032e-09
1.10991e-09
1.1095e-09
1.10908e-09
1.10867e-09
1.10825e-09
1.10783e-09
1.10741e-09
1.10699e-09
1.10657e-09
1.10614e-09
1.10572e-09
1.10529e-09
1.10487e-09
1.10444e-09
1.10401e-09
1.10358e-09
1.10315e-09
1.10271e-09
1.10228e-09
1.10184e-09
1.10141e-09
1.10097e-09
1.10053e-09
1.10009e-09
1.09965e-09
1.0992e-09
1.09876e-09
1.09831e-09
1.09787e-09
1.09742e-09
1.09697e-09
1.09653e-09
1.09608e-09
1.09563e-09
1.09517e-09
1.09472e-09
1.09427e-09
1.09381e-09
1.09336e-09
1.0929e-09
1.09244e-09
1.09199e-09
1.09153e-09
1.09107e-09
1.09061e-09
1.09015e-09
1.08969e-09
1.08923e-09
1.08877e-09
1.08831e-09
1.08785e-09
1.08739e-09
1.08692e-09
1.08645e-09
1.08598e-09
1.0855e-09
1.08501e-09
1.08452e-09
1.08402e-09
1.08352e-09
1.083e-09
1.08247e-09
1.08194e-09
1.08139e-09
1.08084e-09
1.08028e-09
1.07971e-09
1.07913e-09
1.07855e-09
1.07797e-09
1.07738e-09
1.07679e-09
1.0762e-09
1.07562e-09
1.07504e-09
1.07447e-09
1.0739e-09
1.07335e-09
1.07281e-09
1.07229e-09
1.07178e-09
1.07129e-09
1.07081e-09
1.07035e-09
1.06991e-09
1.06949e-09
1.06908e-09
1.06868e-09
1.0683e-09
1.06793e-09
1.06756e-09
1.06721e-09
1.06685e-09
1.0665e-09
1.06615e-09
1.06579e-09
1.06544e-09
1.06508e-09
1.06471e-09
1.06433e-09
1.06395e-09
1.06356e-09
1.06317e-09
1.06276e-09
1.06235e-09
1.06193e-09
1.06151e-09
1.06108e-09
1.06064e-09
1.06021e-09
1.05976e-09
1.05932e-09
1.05887e-09
1.05841e-09
1.05796e-09
1.05751e-09
1.05705e-09
1.0566e-09
1.05614e-09
1.05569e-09
1.05523e-09
1.05478e-09
1.05432e-09
1.05387e-09
1.05342e-09
1.05296e-09
1.05251e-09
1.05206e-09
1.0516e-09
1.05115e-09
1.0507e-09
1.05025e-09
1.04979e-09
1.04934e-09
1.04889e-09
1.04843e-09
1.04798e-09
1.04753e-09
1.04707e-09
1.04661e-09
1.04616e-09
1.0457e-09
1.04524e-09
1.04478e-09
1.04432e-09
1.04386e-09
1.0434e-09
1.04294e-09
1.04247e-09
1.04201e-09
1.04154e-09
1.04107e-09
1.04061e-09
1.04014e-09
1.03967e-09
1.0392e-09
1.03872e-09
1.03825e-09
1.03778e-09
1.0373e-09
1.03682e-09
1.03635e-09
1.03587e-09
1.03539e-09
1.03491e-09
1.03442e-09
1.03394e-09
1.03346e-09
1.03297e-09
1.03249e-09
1.032e-09
1.03151e-09
1.03102e-09
1.03053e-09
1.03004e-09
1.02955e-09
1.02906e-09
1.02857e-09
1.02807e-09
1.02758e-09
1.02708e-09
1.02659e-09
1.02609e-09
1.02559e-09
1.02509e-09
1.02459e-09
1.02409e-09
1.02359e-09
1.02309e-09
1.02259e-09
1.02209e-09
1.02158e-09
1.02108e-09
1.02057e-09
1.02007e-09
1.01956e-09
1.01905e-09
1.01854e-09
1.01802e-09
1.01751e-09
1.01698e-09
1.01646e-09
1.01593e-09
1.0154e-09
1.01486e-09
1.01432e-09
1.01377e-09
1.01322e-09
1.01266e-09
1.01209e-09
1.01152e-09
1.01095e-09
1.01037e-09
1.00979e-09
1.0092e-09
1.00861e-09
1.00801e-09
1.00742e-09
1.00682e-09
1.00622e-09
1.00563e-09
1.00503e-09
1.00444e-09
1.00386e-09
1.00327e-09
1.0027e-09
1.00213e-09
1.00156e-09
1.00101e-09
1.00046e-09
9.99928e-10
9.99402e-10
9.98885e-10
9.98378e-10
9.97882e-10
9.97394e-10
9.96916e-10
9.96446e-10
9.95984e-10
9.95528e-10
9.95079e-10
9.94634e-10
9.94193e-10
9.93755e-10
9.93319e-10
9.92884e-10
9.92448e-10
9.92012e-10
9.91574e-10
9.91133e-10
9.90689e-10
9.90241e-10
9.8979e-10
9.89335e-10
9.88875e-10
9.88411e-10
9.87943e-10
9.8747e-10
9.86994e-10
9.86513e-10
9.86029e-10
9.85541e-10
9.85051e-10
9.84557e-10
9.84062e-10
9.83563e-10
9.83063e-10
9.82562e-10
9.82059e-10
9.81554e-10
9.81049e-10
9.80543e-10
9.80036e-10
9.79529e-10
9.79021e-10
9.78514e-10
9.78005e-10
9.77497e-10
9.76988e-10
9.76479e-10
9.7597e-10
9.75461e-10
9.74951e-10
9.74442e-10
9.73931e-10
9.73421e-10
9.7291e-10
9.72399e-10
9.71888e-10
9.71376e-10
9.70863e-10
9.7035e-10
9.69836e-10
9.69322e-10
9.68806e-10
9.6829e-10
9.67774e-10
9.67256e-10
9.66738e-10
9.66218e-10
9.65698e-10
9.65177e-10
9.64655e-10
9.64132e-10
9.63608e-10
9.63084e-10
9.62558e-10
9.62031e-10
9.61503e-10
9.60974e-10
9.60444e-10
9.59913e-10
9.59381e-10
9.58848e-10
9.58314e-10
9.57779e-10
9.57243e-10
9.56706e-10
9.56168e-10
9.55628e-10
9.55088e-10
9.54547e-10
9.54005e-10
9.53461e-10
9.52917e-10
9.52372e-10
9.51826e-10
9.51279e-10
9.50731e-10
9.50182e-10
9.49632e-10
9.49081e-10
9.4853e-10
9.47977e-10
9.47424e-10
9.46869e-10
9.46314e-10
9.45758e-10
9.45201e-10
9.44644e-10
9.44085e-10
9.43526e-10
9.42966e-10
9.42406e-10
9.41844e-10
9.41281e-10
9.40718e-10
9.40154e-10
9.39588e-10
9.39022e-10
9.38454e-10
9.37884e-10
9.37314e-10
9.36741e-10
9.36167e-10
9.3559e-10
9.35012e-10
9.3443e-10
9.33847e-10
9.3326e-10
9.32671e-10
9.32078e-10
9.31482e-10
9.30883e-10
9.3028e-10
9.29674e-10
9.29065e-10
9.28451e-10
9.27834e-10
9.27214e-10
9.26591e-10
9.25964e-10
9.25335e-10
9.24703e-10
9.24069e-10
9.23433e-10
9.22795e-10
9.22157e-10
9.21517e-10
9.20878e-10
9.20239e-10
9.19601e-10
9.18964e-10
9.18329e-10
9.17696e-10
9.17067e-10
9.16441e-10
9.15819e-10
9.15201e-10
9.14588e-10
9.1398e-10
9.13378e-10
9.12781e-10
9.12189e-10
9.11604e-10
9.11024e-10
9.1045e-10
9.09881e-10
9.09318e-10
9.08759e-10
9.08206e-10
9.07656e-10
9.0711e-10
9.06568e-10
9.06028e-10
9.05491e-10
9.04955e-10
9.0442e-10
9.03886e-10
9.03352e-10
9.02818e-10
9.02282e-10
9.01745e-10
9.01207e-10
9.00667e-10
9.00124e-10
8.99579e-10
8.99031e-10
8.9848e-10
8.97927e-10
8.9737e-10
8.96811e-10
8.96249e-10
8.95684e-10
8.95116e-10
8.94546e-10
8.93973e-10
8.93398e-10
8.9282e-10
8.92241e-10
8.91659e-10
8.91076e-10
8.90491e-10
8.89905e-10
8.89317e-10
8.88727e-10
8.88137e-10
8.87546e-10
8.86953e-10
8.8636e-10
8.85766e-10
8.85171e-10
8.84575e-10
8.83978e-10
8.83381e-10
8.82783e-10
8.82185e-10
8.81586e-10
8.80986e-10
8.80385e-10
8.79784e-10
8.79182e-10
8.7858e-10
8.77976e-10
8.77372e-10
8.76767e-10
8.76161e-10
8.75555e-10
8.74947e-10
8.74339e-10
8.73729e-10
8.73119e-10
8.72508e-10
8.71895e-10
8.71282e-10
8.70668e-10
8.70053e-10
8.69436e-10
8.68818e-10
8.68199e-10
8.6758e-10
8.66958e-10
8.66336e-10
8.65713e-10
8.65088e-10
8.64462e-10
8.63835e-10
8.63207e-10
8.62578e-10
8.61947e-10
8.61315e-10
8.60682e-10
8.60047e-10
8.59412e-10
8.58774e-10
8.58136e-10
8.57497e-10
8.56856e-10
8.56214e-10
8.55571e-10
8.54926e-10
8.54281e-10
8.53633e-10
8.52986e-10
8.52336e-10
8.51686e-10
8.51033e-10
8.50381e-10
8.49726e-10
8.49071e-10
8.48414e-10
8.47756e-10
8.47097e-10
8.46437e-10
8.45775e-10
8.45113e-10
8.44449e-10
8.43784e-10
8.43118e-10
8.42451e-10
8.41782e-10
8.41112e-10
8.40441e-10
8.39768e-10
8.39094e-10
8.38419e-10
8.37742e-10
8.37064e-10
8.36384e-10
8.35703e-10
8.35019e-10
8.34334e-10
8.33647e-10
8.32958e-10
8.32267e-10
8.31573e-10
8.30877e-10
8.30179e-10
8.29478e-10
8.28775e-10
8.28069e-10
8.2736e-10
8.26649e-10
8.25934e-10
8.25217e-10
8.24497e-10
8.23774e-10
8.23048e-10
8.2232e-10
8.21588e-10
8.20854e-10
8.20117e-10
8.19378e-10
8.18636e-10
8.17893e-10
8.17147e-10
8.164e-10
8.15651e-10
8.14901e-10
8.14149e-10
8.13397e-10
8.12644e-10
8.11891e-10
8.11138e-10
8.10385e-10
8.09633e-10
8.08881e-10
8.08131e-10
8.07382e-10
8.06634e-10
8.05889e-10
8.05145e-10
8.04404e-10
8.03665e-10
8.02928e-10
8.02194e-10
8.01463e-10
8.00735e-10
8.00009e-10
7.99286e-10
7.98565e-10
7.97847e-10
7.97131e-10
7.96418e-10
7.95706e-10
7.94996e-10
7.94288e-10
7.93581e-10
7.92875e-10
7.92169e-10
7.91464e-10
7.90759e-10
7.90054e-10
7.89348e-10
7.88641e-10
7.87934e-10
7.87224e-10
7.86514e-10
7.85801e-10
7.85086e-10
7.8437e-10
7.8365e-10
7.82929e-10
7.82204e-10
7.81478e-10
7.80748e-10
7.80016e-10
7.7928e-10
7.78542e-10
7.77801e-10
7.77058e-10
7.76312e-10
7.75562e-10
7.74811e-10
7.74056e-10
7.733e-10
7.7254e-10
7.71779e-10
7.71014e-10
7.70248e-10
7.69479e-10
7.68709e-10
7.67936e-10
7.67161e-10
7.66384e-10
7.65605e-10
7.64824e-10
7.64041e-10
7.63256e-10
7.6247e-10
7.61681e-10
7.60891e-10
7.60099e-10
7.59305e-10
7.58509e-10
7.57711e-10
7.56911e-10
7.5611e-10
7.55307e-10
7.54501e-10
7.53694e-10
7.52885e-10
7.52074e-10
7.5126e-10
7.50445e-10
7.49628e-10
7.48809e-10
7.47987e-10
7.47163e-10
7.46338e-10
7.4551e-10
7.4468e-10
7.43847e-10
7.43012e-10
7.42175e-10
7.41336e-10
7.40494e-10
7.3965e-10
7.38803e-10
7.37954e-10
7.37103e-10
7.36248e-10
7.35393e-10
7.34533e-10
7.33672e-10
7.32807e-10
7.31941e-10
7.31071e-10
7.302e-10
7.29325e-10
7.28448e-10
7.27568e-10
7.26685e-10
7.258e-10
7.24912e-10
7.24021e-10
7.23128e-10
7.22231e-10
7.21333e-10
7.20431e-10
7.19526e-10
7.18619e-10
7.17709e-10
7.16795e-10
7.1588e-10
7.14961e-10
7.14039e-10
7.13115e-10
7.12188e-10
7.11257e-10
7.10325e-10
7.09388e-10
7.0845e-10
7.07507e-10
7.06564e-10
7.05614e-10
7.04666e-10
7.0371e-10
7.02757e-10
7.01793e-10
7.00835e-10
6.99865e-10
6.98902e-10
6.97924e-10
6.96957e-10
6.95972e-10
6.94999e-10
6.94008e-10
6.93029e-10
6.92032e-10
6.91048e-10
6.90044e-10
6.89054e-10
6.88044e-10
6.87048e-10
6.86034e-10
6.85032e-10
6.84012e-10
6.83005e-10
6.81981e-10
6.80968e-10
6.79942e-10
6.78924e-10
6.77896e-10
6.76875e-10
6.75846e-10
6.74823e-10
6.73794e-10
6.72774e-10
6.71747e-10
6.7073e-10
6.69712e-10
6.687e-10
6.67692e-10
)
;

boundaryField
{
    inlet
    {
        type            calculated;
        value           uniform -1.13622e-09;
    }
    outlet
    {
        type            calculated;
        value           uniform 7.59482e-10;
    }
    emptyWalls
    {
        type            empty;
        value           nonuniform List<scalar> 0();
    }
}


// ************************************************************************* //
