/*--------------------------------*- C++ -*----------------------------------*\
  =========                 |
  \\      /  F ield         | OpenFOAM: The Open Source CFD Toolbox
   \\    /   O peration     | Website:  https://openfoam.org
    \\  /    A nd           | Version:  9
     \\/     M anipulation  |
\*---------------------------------------------------------------------------*/
FoamFile
{
    format      ascii;
    class       volVectorField;
    location    "26400";
    object      Ua;
}
// * * * * * * * * * * * * * * * * * * * * * * * * * * * * * * * * * * * * * //

dimensions      [0 0 0 0 0 0 0];

internalField   nonuniform List<vector> 
1000
(
(2.74908e-06 0 0)
(2.74884e-06 0 0)
(2.74876e-06 0 0)
(2.74865e-06 0 0)
(2.74845e-06 0 0)
(2.74827e-06 0 0)
(2.74799e-06 0 0)
(2.74775e-06 0 0)
(2.74748e-06 0 0)
(2.74714e-06 0 0)
(2.7468e-06 0 0)
(2.74633e-06 0 0)
(2.74585e-06 0 0)
(2.74531e-06 0 0)
(2.74471e-06 0 0)
(2.7441e-06 0 0)
(2.74343e-06 0 0)
(2.74274e-06 0 0)
(2.74201e-06 0 0)
(2.74128e-06 0 0)
(2.74053e-06 0 0)
(2.73981e-06 0 0)
(2.73912e-06 0 0)
(2.7384e-06 0 0)
(2.73778e-06 0 0)
(2.7371e-06 0 0)
(2.73648e-06 0 0)
(2.73591e-06 0 0)
(2.73535e-06 0 0)
(2.7349e-06 0 0)
(2.73447e-06 0 0)
(2.73409e-06 0 0)
(2.7337e-06 0 0)
(2.73307e-06 0 0)
(2.73124e-06 0 0)
(2.72441e-06 0 0)
(2.69324e-06 0 0)
(2.48574e-06 0 0)
(2.23824e-06 0 0)
(2.15561e-06 0 0)
(2.13186e-06 0 0)
(2.12099e-06 0 0)
(2.11418e-06 0 0)
(2.10908e-06 0 0)
(2.10488e-06 0 0)
(2.10125e-06 0 0)
(2.098e-06 0 0)
(2.09505e-06 0 0)
(2.09233e-06 0 0)
(2.08982e-06 0 0)
(2.08748e-06 0 0)
(2.08529e-06 0 0)
(2.08324e-06 0 0)
(2.08134e-06 0 0)
(2.07956e-06 0 0)
(2.07789e-06 0 0)
(2.07633e-06 0 0)
(2.07484e-06 0 0)
(2.07342e-06 0 0)
(2.07207e-06 0 0)
(2.07081e-06 0 0)
(2.06967e-06 0 0)
(2.06863e-06 0 0)
(2.06769e-06 0 0)
(2.06686e-06 0 0)
(2.06605e-06 0 0)
(2.06524e-06 0 0)
(2.06444e-06 0 0)
(2.06362e-06 0 0)
(2.06275e-06 0 0)
(2.06192e-06 0 0)
(2.06122e-06 0 0)
(2.06066e-06 0 0)
(2.06022e-06 0 0)
(2.05985e-06 0 0)
(2.05953e-06 0 0)
(2.05925e-06 0 0)
(2.05892e-06 0 0)
(2.05848e-06 0 0)
(2.0579e-06 0 0)
(2.05722e-06 0 0)
(2.0565e-06 0 0)
(2.05583e-06 0 0)
(2.05532e-06 0 0)
(2.05506e-06 0 0)
(2.05512e-06 0 0)
(2.05551e-06 0 0)
(2.05617e-06 0 0)
(2.05767e-06 0 0)
(2.06028e-06 0 0)
(2.06336e-06 0 0)
(2.06657e-06 0 0)
(2.06976e-06 0 0)
(2.07272e-06 0 0)
(2.07518e-06 0 0)
(2.07711e-06 0 0)
(2.07877e-06 0 0)
(2.08031e-06 0 0)
(2.08168e-06 0 0)
(2.08274e-06 0 0)
(2.08325e-06 0 0)
(2.08306e-06 0 0)
(2.0821e-06 0 0)
(2.08041e-06 0 0)
(2.07811e-06 0 0)
(2.07533e-06 0 0)
(2.07223e-06 0 0)
(2.069e-06 0 0)
(2.06578e-06 0 0)
(2.06271e-06 0 0)
(2.05989e-06 0 0)
(2.0574e-06 0 0)
(2.05527e-06 0 0)
(2.05352e-06 0 0)
(2.05213e-06 0 0)
(2.05109e-06 0 0)
(2.05036e-06 0 0)
(2.04988e-06 0 0)
(2.0496e-06 0 0)
(2.04947e-06 0 0)
(2.04944e-06 0 0)
(2.04946e-06 0 0)
(2.0495e-06 0 0)
(2.04952e-06 0 0)
(2.0495e-06 0 0)
(2.04944e-06 0 0)
(2.04931e-06 0 0)
(2.04912e-06 0 0)
(2.04887e-06 0 0)
(2.04857e-06 0 0)
(2.04822e-06 0 0)
(2.04783e-06 0 0)
(2.0474e-06 0 0)
(2.04696e-06 0 0)
(2.04649e-06 0 0)
(2.04601e-06 0 0)
(2.04553e-06 0 0)
(2.04504e-06 0 0)
(2.04455e-06 0 0)
(2.04407e-06 0 0)
(2.04359e-06 0 0)
(2.04312e-06 0 0)
(2.04265e-06 0 0)
(2.0422e-06 0 0)
(2.04175e-06 0 0)
(2.04131e-06 0 0)
(2.04088e-06 0 0)
(2.04047e-06 0 0)
(2.04006e-06 0 0)
(2.03967e-06 0 0)
(2.03929e-06 0 0)
(2.03893e-06 0 0)
(2.03858e-06 0 0)
(2.03824e-06 0 0)
(2.03791e-06 0 0)
(2.0376e-06 0 0)
(2.0373e-06 0 0)
(2.03701e-06 0 0)
(2.03673e-06 0 0)
(2.03647e-06 0 0)
(2.03621e-06 0 0)
(2.03596e-06 0 0)
(2.03572e-06 0 0)
(2.0355e-06 0 0)
(2.03529e-06 0 0)
(2.0351e-06 0 0)
(2.03493e-06 0 0)
(2.03477e-06 0 0)
(2.03463e-06 0 0)
(2.0345e-06 0 0)
(2.03439e-06 0 0)
(2.0343e-06 0 0)
(2.03421e-06 0 0)
(2.03412e-06 0 0)
(2.03404e-06 0 0)
(2.03396e-06 0 0)
(2.03388e-06 0 0)
(2.0338e-06 0 0)
(2.03373e-06 0 0)
(2.03366e-06 0 0)
(2.03361e-06 0 0)
(2.03357e-06 0 0)
(2.03354e-06 0 0)
(2.03354e-06 0 0)
(2.03355e-06 0 0)
(2.03358e-06 0 0)
(2.03363e-06 0 0)
(2.03368e-06 0 0)
(2.03373e-06 0 0)
(2.03378e-06 0 0)
(2.03381e-06 0 0)
(2.03382e-06 0 0)
(2.03381e-06 0 0)
(2.03377e-06 0 0)
(2.03371e-06 0 0)
(2.03365e-06 0 0)
(2.0336e-06 0 0)
(2.03359e-06 0 0)
(2.03365e-06 0 0)
(2.0338e-06 0 0)
(2.03409e-06 0 0)
(2.03453e-06 0 0)
(2.03514e-06 0 0)
(2.03594e-06 0 0)
(2.03692e-06 0 0)
(2.03809e-06 0 0)
(2.03944e-06 0 0)
(2.04095e-06 0 0)
(2.0426e-06 0 0)
(2.04436e-06 0 0)
(2.0462e-06 0 0)
(2.04809e-06 0 0)
(2.04999e-06 0 0)
(2.05185e-06 0 0)
(2.05364e-06 0 0)
(2.05531e-06 0 0)
(2.0568e-06 0 0)
(2.05809e-06 0 0)
(2.05912e-06 0 0)
(2.05986e-06 0 0)
(2.06028e-06 0 0)
(2.06037e-06 0 0)
(2.06012e-06 0 0)
(2.05953e-06 0 0)
(2.05863e-06 0 0)
(2.05744e-06 0 0)
(2.056e-06 0 0)
(2.05435e-06 0 0)
(2.05255e-06 0 0)
(2.05065e-06 0 0)
(2.04871e-06 0 0)
(2.04676e-06 0 0)
(2.04486e-06 0 0)
(2.04304e-06 0 0)
(2.04134e-06 0 0)
(2.03977e-06 0 0)
(2.03835e-06 0 0)
(2.03709e-06 0 0)
(2.03598e-06 0 0)
(2.03503e-06 0 0)
(2.03422e-06 0 0)
(2.03353e-06 0 0)
(2.03296e-06 0 0)
(2.03249e-06 0 0)
(2.0321e-06 0 0)
(2.03176e-06 0 0)
(2.03148e-06 0 0)
(2.03123e-06 0 0)
(2.03099e-06 0 0)
(2.03077e-06 0 0)
(2.03054e-06 0 0)
(2.03031e-06 0 0)
(2.03006e-06 0 0)
(2.0298e-06 0 0)
(2.02952e-06 0 0)
(2.02922e-06 0 0)
(2.0289e-06 0 0)
(2.02856e-06 0 0)
(2.02821e-06 0 0)
(2.02783e-06 0 0)
(2.02745e-06 0 0)
(2.02705e-06 0 0)
(2.02665e-06 0 0)
(2.02623e-06 0 0)
(2.02581e-06 0 0)
(2.02539e-06 0 0)
(2.02497e-06 0 0)
(2.02455e-06 0 0)
(2.02413e-06 0 0)
(2.02371e-06 0 0)
(2.02329e-06 0 0)
(2.02288e-06 0 0)
(2.02248e-06 0 0)
(2.02208e-06 0 0)
(2.02169e-06 0 0)
(2.02131e-06 0 0)
(2.02094e-06 0 0)
(2.02057e-06 0 0)
(2.02021e-06 0 0)
(2.01987e-06 0 0)
(2.01953e-06 0 0)
(2.0192e-06 0 0)
(2.01887e-06 0 0)
(2.01856e-06 0 0)
(2.01826e-06 0 0)
(2.01796e-06 0 0)
(2.01768e-06 0 0)
(2.0174e-06 0 0)
(2.01714e-06 0 0)
(2.01688e-06 0 0)
(2.01664e-06 0 0)
(2.0164e-06 0 0)
(2.01618e-06 0 0)
(2.01596e-06 0 0)
(2.01576e-06 0 0)
(2.01557e-06 0 0)
(2.01539e-06 0 0)
(2.01522e-06 0 0)
(2.01506e-06 0 0)
(2.0149e-06 0 0)
(2.01476e-06 0 0)
(2.01462e-06 0 0)
(2.01449e-06 0 0)
(2.01436e-06 0 0)
(2.01425e-06 0 0)
(2.01413e-06 0 0)
(2.01403e-06 0 0)
(2.01393e-06 0 0)
(2.01384e-06 0 0)
(2.01375e-06 0 0)
(2.01368e-06 0 0)
(2.01361e-06 0 0)
(2.01355e-06 0 0)
(2.0135e-06 0 0)
(2.01346e-06 0 0)
(2.01342e-06 0 0)
(2.01339e-06 0 0)
(2.01336e-06 0 0)
(2.01334e-06 0 0)
(2.01331e-06 0 0)
(2.01328e-06 0 0)
(2.01325e-06 0 0)
(2.01322e-06 0 0)
(2.01319e-06 0 0)
(2.01315e-06 0 0)
(2.01313e-06 0 0)
(2.01312e-06 0 0)
(2.01313e-06 0 0)
(2.01316e-06 0 0)
(2.01324e-06 0 0)
(2.01336e-06 0 0)
(2.01354e-06 0 0)
(2.01379e-06 0 0)
(2.01412e-06 0 0)
(2.01453e-06 0 0)
(2.01503e-06 0 0)
(2.01563e-06 0 0)
(2.01633e-06 0 0)
(2.01712e-06 0 0)
(2.01802e-06 0 0)
(2.019e-06 0 0)
(2.02007e-06 0 0)
(2.02122e-06 0 0)
(2.02243e-06 0 0)
(2.02369e-06 0 0)
(2.02498e-06 0 0)
(2.02629e-06 0 0)
(2.02759e-06 0 0)
(2.02887e-06 0 0)
(2.03009e-06 0 0)
(2.03125e-06 0 0)
(2.03232e-06 0 0)
(2.03327e-06 0 0)
(2.03408e-06 0 0)
(2.03475e-06 0 0)
(2.03524e-06 0 0)
(2.03556e-06 0 0)
(2.03569e-06 0 0)
(2.03563e-06 0 0)
(2.03538e-06 0 0)
(2.03495e-06 0 0)
(2.03433e-06 0 0)
(2.03356e-06 0 0)
(2.03263e-06 0 0)
(2.03157e-06 0 0)
(2.03041e-06 0 0)
(2.02916e-06 0 0)
(2.02785e-06 0 0)
(2.02651e-06 0 0)
(2.02514e-06 0 0)
(2.02379e-06 0 0)
(2.02245e-06 0 0)
(2.02116e-06 0 0)
(2.01992e-06 0 0)
(2.01875e-06 0 0)
(2.01764e-06 0 0)
(2.01662e-06 0 0)
(2.01567e-06 0 0)
(2.0148e-06 0 0)
(2.01401e-06 0 0)
(2.0133e-06 0 0)
(2.01265e-06 0 0)
(2.01206e-06 0 0)
(2.01154e-06 0 0)
(2.01106e-06 0 0)
(2.01062e-06 0 0)
(2.01023e-06 0 0)
(2.00985e-06 0 0)
(2.00951e-06 0 0)
(2.00917e-06 0 0)
(2.00885e-06 0 0)
(2.00854e-06 0 0)
(2.00823e-06 0 0)
(2.00792e-06 0 0)
(2.0076e-06 0 0)
(2.00729e-06 0 0)
(2.00696e-06 0 0)
(2.00663e-06 0 0)
(2.00629e-06 0 0)
(2.00594e-06 0 0)
(2.00558e-06 0 0)
(2.00522e-06 0 0)
(2.00485e-06 0 0)
(2.00448e-06 0 0)
(2.0041e-06 0 0)
(2.00371e-06 0 0)
(2.00332e-06 0 0)
(2.00293e-06 0 0)
(2.00254e-06 0 0)
(2.00215e-06 0 0)
(2.00176e-06 0 0)
(2.00137e-06 0 0)
(2.00098e-06 0 0)
(2.00059e-06 0 0)
(2.00021e-06 0 0)
(1.99984e-06 0 0)
(1.99946e-06 0 0)
(1.9991e-06 0 0)
(1.99874e-06 0 0)
(1.99838e-06 0 0)
(1.99803e-06 0 0)
(1.99769e-06 0 0)
(1.99736e-06 0 0)
(1.99703e-06 0 0)
(1.99671e-06 0 0)
(1.9964e-06 0 0)
(1.99609e-06 0 0)
(1.99579e-06 0 0)
(1.99551e-06 0 0)
(1.99522e-06 0 0)
(1.99495e-06 0 0)
(1.99469e-06 0 0)
(1.99443e-06 0 0)
(1.99419e-06 0 0)
(1.99395e-06 0 0)
(1.99372e-06 0 0)
(1.9935e-06 0 0)
(1.99329e-06 0 0)
(1.99308e-06 0 0)
(1.99289e-06 0 0)
(1.9927e-06 0 0)
(1.99252e-06 0 0)
(1.99235e-06 0 0)
(1.99218e-06 0 0)
(1.99203e-06 0 0)
(1.99188e-06 0 0)
(1.99173e-06 0 0)
(1.9916e-06 0 0)
(1.99147e-06 0 0)
(1.99134e-06 0 0)
(1.99123e-06 0 0)
(1.99112e-06 0 0)
(1.99101e-06 0 0)
(1.99092e-06 0 0)
(1.99083e-06 0 0)
(1.99074e-06 0 0)
(1.99066e-06 0 0)
(1.99059e-06 0 0)
(1.99052e-06 0 0)
(1.99045e-06 0 0)
(1.99039e-06 0 0)
(1.99033e-06 0 0)
(1.99028e-06 0 0)
(1.99023e-06 0 0)
(1.99018e-06 0 0)
(1.99014e-06 0 0)
(1.9901e-06 0 0)
(1.99006e-06 0 0)
(1.99003e-06 0 0)
(1.99002e-06 0 0)
(1.99001e-06 0 0)
(1.99002e-06 0 0)
(1.99005e-06 0 0)
(1.99011e-06 0 0)
(1.99019e-06 0 0)
(1.9903e-06 0 0)
(1.99045e-06 0 0)
(1.99064e-06 0 0)
(1.99088e-06 0 0)
(1.99117e-06 0 0)
(1.99151e-06 0 0)
(1.9919e-06 0 0)
(1.99235e-06 0 0)
(1.99286e-06 0 0)
(1.99343e-06 0 0)
(1.99406e-06 0 0)
(1.99475e-06 0 0)
(1.99549e-06 0 0)
(1.99628e-06 0 0)
(1.99711e-06 0 0)
(1.99799e-06 0 0)
(1.99889e-06 0 0)
(1.99982e-06 0 0)
(2.00076e-06 0 0)
(2.0017e-06 0 0)
(2.00264e-06 0 0)
(2.00356e-06 0 0)
(2.00444e-06 0 0)
(2.00529e-06 0 0)
(2.00608e-06 0 0)
(2.00681e-06 0 0)
(2.00746e-06 0 0)
(2.00803e-06 0 0)
(2.0085e-06 0 0)
(2.00887e-06 0 0)
(2.00913e-06 0 0)
(2.00927e-06 0 0)
(2.00929e-06 0 0)
(2.0092e-06 0 0)
(2.00898e-06 0 0)
(2.00865e-06 0 0)
(2.00821e-06 0 0)
(2.00766e-06 0 0)
(2.00701e-06 0 0)
(2.00627e-06 0 0)
(2.00545e-06 0 0)
(2.00457e-06 0 0)
(2.00362e-06 0 0)
(2.00264e-06 0 0)
(2.00162e-06 0 0)
(2.00058e-06 0 0)
(1.99953e-06 0 0)
(1.99848e-06 0 0)
(1.99745e-06 0 0)
(1.99643e-06 0 0)
(1.99544e-06 0 0)
(1.99449e-06 0 0)
(1.99357e-06 0 0)
(1.9927e-06 0 0)
(1.99187e-06 0 0)
(1.99108e-06 0 0)
(1.99034e-06 0 0)
(1.98965e-06 0 0)
(1.989e-06 0 0)
(1.98839e-06 0 0)
(1.98782e-06 0 0)
(1.98729e-06 0 0)
(1.98679e-06 0 0)
(1.98632e-06 0 0)
(1.98588e-06 0 0)
(1.98546e-06 0 0)
(1.98506e-06 0 0)
(1.98468e-06 0 0)
(1.98431e-06 0 0)
(1.98395e-06 0 0)
(1.9836e-06 0 0)
(1.98325e-06 0 0)
(1.98291e-06 0 0)
(1.98257e-06 0 0)
(1.98223e-06 0 0)
(1.98189e-06 0 0)
(1.98154e-06 0 0)
(1.9812e-06 0 0)
(1.98085e-06 0 0)
(1.98051e-06 0 0)
(1.98015e-06 0 0)
(1.9798e-06 0 0)
(1.97944e-06 0 0)
(1.97908e-06 0 0)
(1.97872e-06 0 0)
(1.97836e-06 0 0)
(1.978e-06 0 0)
(1.97763e-06 0 0)
(1.97727e-06 0 0)
(1.9769e-06 0 0)
(1.97654e-06 0 0)
(1.97618e-06 0 0)
(1.97582e-06 0 0)
(1.97546e-06 0 0)
(1.97511e-06 0 0)
(1.97476e-06 0 0)
(1.97441e-06 0 0)
(1.97407e-06 0 0)
(1.97374e-06 0 0)
(1.9734e-06 0 0)
(1.97308e-06 0 0)
(1.97275e-06 0 0)
(1.97244e-06 0 0)
(1.97213e-06 0 0)
(1.97182e-06 0 0)
(1.97152e-06 0 0)
(1.97123e-06 0 0)
(1.97095e-06 0 0)
(1.97067e-06 0 0)
(1.9704e-06 0 0)
(1.97014e-06 0 0)
(1.96988e-06 0 0)
(1.96963e-06 0 0)
(1.96939e-06 0 0)
(1.96915e-06 0 0)
(1.96892e-06 0 0)
(1.9687e-06 0 0)
(1.96848e-06 0 0)
(1.96828e-06 0 0)
(1.96808e-06 0 0)
(1.96788e-06 0 0)
(1.9677e-06 0 0)
(1.96751e-06 0 0)
(1.96734e-06 0 0)
(1.96717e-06 0 0)
(1.96701e-06 0 0)
(1.96686e-06 0 0)
(1.96671e-06 0 0)
(1.96656e-06 0 0)
(1.96643e-06 0 0)
(1.9663e-06 0 0)
(1.96617e-06 0 0)
(1.96605e-06 0 0)
(1.96593e-06 0 0)
(1.96582e-06 0 0)
(1.96572e-06 0 0)
(1.96561e-06 0 0)
(1.96552e-06 0 0)
(1.96542e-06 0 0)
(1.96534e-06 0 0)
(1.96525e-06 0 0)
(1.96517e-06 0 0)
(1.96509e-06 0 0)
(1.96502e-06 0 0)
(1.96495e-06 0 0)
(1.96489e-06 0 0)
(1.96483e-06 0 0)
(1.96478e-06 0 0)
(1.96473e-06 0 0)
(1.96469e-06 0 0)
(1.96466e-06 0 0)
(1.96465e-06 0 0)
(1.96464e-06 0 0)
(1.96465e-06 0 0)
(1.96467e-06 0 0)
(1.96471e-06 0 0)
(1.96477e-06 0 0)
(1.96486e-06 0 0)
(1.96497e-06 0 0)
(1.96511e-06 0 0)
(1.96528e-06 0 0)
(1.96548e-06 0 0)
(1.96571e-06 0 0)
(1.96598e-06 0 0)
(1.96628e-06 0 0)
(1.96663e-06 0 0)
(1.96701e-06 0 0)
(1.96743e-06 0 0)
(1.96788e-06 0 0)
(1.96838e-06 0 0)
(1.96891e-06 0 0)
(1.96947e-06 0 0)
(1.97007e-06 0 0)
(1.97069e-06 0 0)
(1.97134e-06 0 0)
(1.97201e-06 0 0)
(1.97269e-06 0 0)
(1.97339e-06 0 0)
(1.97409e-06 0 0)
(1.97479e-06 0 0)
(1.97548e-06 0 0)
(1.97616e-06 0 0)
(1.97681e-06 0 0)
(1.97744e-06 0 0)
(1.97804e-06 0 0)
(1.9786e-06 0 0)
(1.97911e-06 0 0)
(1.97957e-06 0 0)
(1.97997e-06 0 0)
(1.9803e-06 0 0)
(1.98057e-06 0 0)
(1.98076e-06 0 0)
(1.98088e-06 0 0)
(1.98093e-06 0 0)
(1.98089e-06 0 0)
(1.98077e-06 0 0)
(1.98057e-06 0 0)
(1.98029e-06 0 0)
(1.97994e-06 0 0)
(1.97952e-06 0 0)
(1.97902e-06 0 0)
(1.97846e-06 0 0)
(1.97785e-06 0 0)
(1.97718e-06 0 0)
(1.97646e-06 0 0)
(1.9757e-06 0 0)
(1.97491e-06 0 0)
(1.9741e-06 0 0)
(1.97326e-06 0 0)
(1.97242e-06 0 0)
(1.97156e-06 0 0)
(1.97071e-06 0 0)
(1.96986e-06 0 0)
(1.96902e-06 0 0)
(1.9682e-06 0 0)
(1.9674e-06 0 0)
(1.96662e-06 0 0)
(1.96586e-06 0 0)
(1.96513e-06 0 0)
(1.96442e-06 0 0)
(1.96375e-06 0 0)
(1.9631e-06 0 0)
(1.96248e-06 0 0)
(1.96189e-06 0 0)
(1.96133e-06 0 0)
(1.96079e-06 0 0)
(1.96028e-06 0 0)
(1.95979e-06 0 0)
(1.95932e-06 0 0)
(1.95887e-06 0 0)
(1.95844e-06 0 0)
(1.95802e-06 0 0)
(1.95762e-06 0 0)
(1.95722e-06 0 0)
(1.95684e-06 0 0)
(1.95647e-06 0 0)
(1.9561e-06 0 0)
(1.95574e-06 0 0)
(1.95539e-06 0 0)
(1.95504e-06 0 0)
(1.95469e-06 0 0)
(1.95434e-06 0 0)
(1.95399e-06 0 0)
(1.95365e-06 0 0)
(1.9533e-06 0 0)
(1.95295e-06 0 0)
(1.95261e-06 0 0)
(1.95226e-06 0 0)
(1.95191e-06 0 0)
(1.95156e-06 0 0)
(1.95121e-06 0 0)
(1.95086e-06 0 0)
(1.95051e-06 0 0)
(1.95016e-06 0 0)
(1.94981e-06 0 0)
(1.94946e-06 0 0)
(1.94911e-06 0 0)
(1.94877e-06 0 0)
(1.94842e-06 0 0)
(1.94808e-06 0 0)
(1.94774e-06 0 0)
(1.9474e-06 0 0)
(1.94706e-06 0 0)
(1.94673e-06 0 0)
(1.9464e-06 0 0)
(1.94608e-06 0 0)
(1.94575e-06 0 0)
(1.94544e-06 0 0)
(1.94512e-06 0 0)
(1.94482e-06 0 0)
(1.94451e-06 0 0)
(1.94421e-06 0 0)
(1.94392e-06 0 0)
(1.94363e-06 0 0)
(1.94335e-06 0 0)
(1.94307e-06 0 0)
(1.9428e-06 0 0)
(1.94253e-06 0 0)
(1.94227e-06 0 0)
(1.94201e-06 0 0)
(1.94176e-06 0 0)
(1.94152e-06 0 0)
(1.94128e-06 0 0)
(1.94105e-06 0 0)
(1.94083e-06 0 0)
(1.94061e-06 0 0)
(1.94039e-06 0 0)
(1.94018e-06 0 0)
(1.93998e-06 0 0)
(1.93978e-06 0 0)
(1.93959e-06 0 0)
(1.9394e-06 0 0)
(1.93922e-06 0 0)
(1.93905e-06 0 0)
(1.93888e-06 0 0)
(1.93871e-06 0 0)
(1.93855e-06 0 0)
(1.9384e-06 0 0)
(1.93824e-06 0 0)
(1.9381e-06 0 0)
(1.93796e-06 0 0)
(1.93782e-06 0 0)
(1.93769e-06 0 0)
(1.93756e-06 0 0)
(1.93743e-06 0 0)
(1.93731e-06 0 0)
(1.93719e-06 0 0)
(1.93708e-06 0 0)
(1.93697e-06 0 0)
(1.93687e-06 0 0)
(1.93677e-06 0 0)
(1.93667e-06 0 0)
(1.93658e-06 0 0)
(1.9365e-06 0 0)
(1.93642e-06 0 0)
(1.93634e-06 0 0)
(1.93628e-06 0 0)
(1.93622e-06 0 0)
(1.93617e-06 0 0)
(1.93613e-06 0 0)
(1.9361e-06 0 0)
(1.93608e-06 0 0)
(1.93608e-06 0 0)
(1.93609e-06 0 0)
(1.93611e-06 0 0)
(1.93615e-06 0 0)
(1.93621e-06 0 0)
(1.93629e-06 0 0)
(1.93639e-06 0 0)
(1.93651e-06 0 0)
(1.93666e-06 0 0)
(1.93683e-06 0 0)
(1.93702e-06 0 0)
(1.93724e-06 0 0)
(1.93749e-06 0 0)
(1.93776e-06 0 0)
(1.93806e-06 0 0)
(1.93838e-06 0 0)
(1.93873e-06 0 0)
(1.93911e-06 0 0)
(1.93951e-06 0 0)
(1.93993e-06 0 0)
(1.94037e-06 0 0)
(1.94084e-06 0 0)
(1.94132e-06 0 0)
(1.94181e-06 0 0)
(1.94232e-06 0 0)
(1.94284e-06 0 0)
(1.94336e-06 0 0)
(1.94389e-06 0 0)
(1.94441e-06 0 0)
(1.94493e-06 0 0)
(1.94545e-06 0 0)
(1.94595e-06 0 0)
(1.94643e-06 0 0)
(1.94689e-06 0 0)
(1.94733e-06 0 0)
(1.94773e-06 0 0)
(1.94811e-06 0 0)
(1.94845e-06 0 0)
(1.94875e-06 0 0)
(1.949e-06 0 0)
(1.94921e-06 0 0)
(1.94937e-06 0 0)
(1.94947e-06 0 0)
(1.94953e-06 0 0)
(1.94953e-06 0 0)
(1.94947e-06 0 0)
(1.94936e-06 0 0)
(1.94919e-06 0 0)
(1.94896e-06 0 0)
(1.94868e-06 0 0)
(1.94835e-06 0 0)
(1.94797e-06 0 0)
(1.94754e-06 0 0)
(1.94706e-06 0 0)
(1.94654e-06 0 0)
(1.94598e-06 0 0)
(1.94538e-06 0 0)
(1.94475e-06 0 0)
(1.9441e-06 0 0)
(1.94342e-06 0 0)
(1.94272e-06 0 0)
(1.94201e-06 0 0)
(1.94129e-06 0 0)
(1.94056e-06 0 0)
(1.93983e-06 0 0)
(1.9391e-06 0 0)
(1.93837e-06 0 0)
(1.93765e-06 0 0)
(1.93694e-06 0 0)
(1.93623e-06 0 0)
(1.93555e-06 0 0)
(1.93487e-06 0 0)
(1.93422e-06 0 0)
(1.93358e-06 0 0)
(1.93296e-06 0 0)
(1.93235e-06 0 0)
(1.93177e-06 0 0)
(1.9312e-06 0 0)
(1.93066e-06 0 0)
(1.93012e-06 0 0)
(1.92961e-06 0 0)
(1.92911e-06 0 0)
(1.92863e-06 0 0)
(1.92816e-06 0 0)
(1.92771e-06 0 0)
(1.92727e-06 0 0)
(1.92684e-06 0 0)
(1.92642e-06 0 0)
(1.92601e-06 0 0)
(1.9256e-06 0 0)
(1.92521e-06 0 0)
(1.92482e-06 0 0)
(1.92443e-06 0 0)
(1.92405e-06 0 0)
(1.92368e-06 0 0)
(1.92331e-06 0 0)
(1.92294e-06 0 0)
(1.92257e-06 0 0)
(1.9222e-06 0 0)
(1.92184e-06 0 0)
(1.92147e-06 0 0)
(1.92111e-06 0 0)
(1.92075e-06 0 0)
(1.92039e-06 0 0)
(1.92003e-06 0 0)
(1.91967e-06 0 0)
(1.91931e-06 0 0)
(1.91895e-06 0 0)
(1.91859e-06 0 0)
(1.91823e-06 0 0)
(1.91787e-06 0 0)
(1.91752e-06 0 0)
(1.91716e-06 0 0)
(1.91681e-06 0 0)
(1.91645e-06 0 0)
(1.91611e-06 0 0)
(1.91576e-06 0 0)
(1.91541e-06 0 0)
(1.91507e-06 0 0)
(1.91473e-06 0 0)
(1.91439e-06 0 0)
(1.91406e-06 0 0)
(1.91373e-06 0 0)
(1.9134e-06 0 0)
(1.91307e-06 0 0)
(1.91275e-06 0 0)
(1.91244e-06 0 0)
(1.91213e-06 0 0)
(1.91182e-06 0 0)
(1.91152e-06 0 0)
(1.91122e-06 0 0)
(1.91092e-06 0 0)
(1.91063e-06 0 0)
(1.91035e-06 0 0)
(1.91007e-06 0 0)
(1.90979e-06 0 0)
(1.90952e-06 0 0)
(1.90926e-06 0 0)
(1.909e-06 0 0)
(1.90874e-06 0 0)
(1.90849e-06 0 0)
(1.90825e-06 0 0)
(1.90801e-06 0 0)
(1.90777e-06 0 0)
(1.90754e-06 0 0)
(1.90732e-06 0 0)
(1.90709e-06 0 0)
(1.90688e-06 0 0)
(1.90667e-06 0 0)
(1.90646e-06 0 0)
(1.90626e-06 0 0)
(1.90606e-06 0 0)
(1.90586e-06 0 0)
(1.90568e-06 0 0)
(1.90549e-06 0 0)
(1.90531e-06 0 0)
(1.90513e-06 0 0)
(1.90496e-06 0 0)
(1.90479e-06 0 0)
(1.90463e-06 0 0)
(1.90446e-06 0 0)
(1.90431e-06 0 0)
(1.90415e-06 0 0)
(1.90401e-06 0 0)
(1.90386e-06 0 0)
(1.90372e-06 0 0)
(1.90358e-06 0 0)
(1.90345e-06 0 0)
(1.90332e-06 0 0)
(1.9032e-06 0 0)
(1.90308e-06 0 0)
(1.90297e-06 0 0)
(1.90287e-06 0 0)
(1.90277e-06 0 0)
(1.90267e-06 0 0)
(1.90259e-06 0 0)
(1.90251e-06 0 0)
(1.90244e-06 0 0)
(1.90238e-06 0 0)
(1.90233e-06 0 0)
(1.90229e-06 0 0)
(1.90226e-06 0 0)
(1.90225e-06 0 0)
(1.90225e-06 0 0)
(1.90226e-06 0 0)
(1.90228e-06 0 0)
(1.90233e-06 0 0)
(1.90238e-06 0 0)
(1.90246e-06 0 0)
(1.90255e-06 0 0)
(1.90266e-06 0 0)
(1.90279e-06 0 0)
(1.90294e-06 0 0)
(1.90311e-06 0 0)
(1.90329e-06 0 0)
(1.9035e-06 0 0)
(1.90372e-06 0 0)
(1.90397e-06 0 0)
(1.90423e-06 0 0)
(1.90451e-06 0 0)
(1.90481e-06 0 0)
(1.90512e-06 0 0)
(1.09592e-06 0 0)
)
;

boundaryField
{
    inlet
    {
        type            fixedValue;
        value           uniform (2.74882e-06 0 0);
    }
    outlet
    {
        type            zeroGradient;
    }
    emptyWalls
    {
        type            empty;
    }
}


// ************************************************************************* //
