/*--------------------------------*- C++ -*----------------------------------*\
  =========                 |
  \\      /  F ield         | OpenFOAM: The Open Source CFD Toolbox
   \\    /   O peration     | Website:  https://openfoam.org
    \\  /    A nd           | Version:  9
     \\/     M anipulation  |
\*---------------------------------------------------------------------------*/
FoamFile
{
    format      ascii;
    class       volVectorField;
    location    "26400";
    object      Ub;
}
// * * * * * * * * * * * * * * * * * * * * * * * * * * * * * * * * * * * * * //

dimensions      [0 0 0 0 0 0 0];

internalField   nonuniform List<vector> 
1000
(
(1.13619e-05 0 0)
(1.13621e-05 0 0)
(1.13622e-05 0 0)
(1.13622e-05 0 0)
(1.13624e-05 0 0)
(1.13625e-05 0 0)
(1.13626e-05 0 0)
(1.13627e-05 0 0)
(1.13628e-05 0 0)
(1.1363e-05 0 0)
(1.13632e-05 0 0)
(1.13634e-05 0 0)
(1.13637e-05 0 0)
(1.13639e-05 0 0)
(1.13643e-05 0 0)
(1.13646e-05 0 0)
(1.13649e-05 0 0)
(1.13653e-05 0 0)
(1.13657e-05 0 0)
(1.13661e-05 0 0)
(1.13665e-05 0 0)
(1.13669e-05 0 0)
(1.13672e-05 0 0)
(1.13676e-05 0 0)
(1.13679e-05 0 0)
(1.13683e-05 0 0)
(1.13686e-05 0 0)
(1.13689e-05 0 0)
(1.13692e-05 0 0)
(1.13695e-05 0 0)
(1.13697e-05 0 0)
(1.13699e-05 0 0)
(1.13701e-05 0 0)
(1.13704e-05 0 0)
(1.13714e-05 0 0)
(1.13751e-05 0 0)
(1.13926e-05 0 0)
(1.15266e-05 0 0)
(1.16922e-05 0 0)
(1.17498e-05 0 0)
(1.17658e-05 0 0)
(1.17731e-05 0 0)
(1.17777e-05 0 0)
(1.17811e-05 0 0)
(1.17839e-05 0 0)
(1.17863e-05 0 0)
(1.17884e-05 0 0)
(1.17903e-05 0 0)
(1.1792e-05 0 0)
(1.17936e-05 0 0)
(1.1795e-05 0 0)
(1.17963e-05 0 0)
(1.17975e-05 0 0)
(1.17985e-05 0 0)
(1.17995e-05 0 0)
(1.18004e-05 0 0)
(1.18011e-05 0 0)
(1.18018e-05 0 0)
(1.18025e-05 0 0)
(1.18031e-05 0 0)
(1.18036e-05 0 0)
(1.1804e-05 0 0)
(1.18043e-05 0 0)
(1.18046e-05 0 0)
(1.18047e-05 0 0)
(1.18048e-05 0 0)
(1.18049e-05 0 0)
(1.1805e-05 0 0)
(1.18051e-05 0 0)
(1.18053e-05 0 0)
(1.18054e-05 0 0)
(1.18054e-05 0 0)
(1.18053e-05 0 0)
(1.1805e-05 0 0)
(1.18047e-05 0 0)
(1.18043e-05 0 0)
(1.18038e-05 0 0)
(1.18034e-05 0 0)
(1.18031e-05 0 0)
(1.18029e-05 0 0)
(1.18029e-05 0 0)
(1.18028e-05 0 0)
(1.18026e-05 0 0)
(1.18023e-05 0 0)
(1.18018e-05 0 0)
(1.18009e-05 0 0)
(1.17996e-05 0 0)
(1.17981e-05 0 0)
(1.17957e-05 0 0)
(1.17922e-05 0 0)
(1.17883e-05 0 0)
(1.17841e-05 0 0)
(1.17799e-05 0 0)
(1.1776e-05 0 0)
(1.17724e-05 0 0)
(1.17693e-05 0 0)
(1.17664e-05 0 0)
(1.17635e-05 0 0)
(1.17607e-05 0 0)
(1.1758e-05 0 0)
(1.17557e-05 0 0)
(1.17538e-05 0 0)
(1.17524e-05 0 0)
(1.17515e-05 0 0)
(1.17509e-05 0 0)
(1.17506e-05 0 0)
(1.17505e-05 0 0)
(1.17504e-05 0 0)
(1.17502e-05 0 0)
(1.17498e-05 0 0)
(1.17491e-05 0 0)
(1.1748e-05 0 0)
(1.17466e-05 0 0)
(1.17447e-05 0 0)
(1.17424e-05 0 0)
(1.17398e-05 0 0)
(1.17368e-05 0 0)
(1.17336e-05 0 0)
(1.17302e-05 0 0)
(1.17266e-05 0 0)
(1.17229e-05 0 0)
(1.17191e-05 0 0)
(1.17153e-05 0 0)
(1.17116e-05 0 0)
(1.17078e-05 0 0)
(1.17041e-05 0 0)
(1.17004e-05 0 0)
(1.16968e-05 0 0)
(1.16932e-05 0 0)
(1.16897e-05 0 0)
(1.16862e-05 0 0)
(1.16827e-05 0 0)
(1.16792e-05 0 0)
(1.16758e-05 0 0)
(1.16724e-05 0 0)
(1.1669e-05 0 0)
(1.16656e-05 0 0)
(1.16622e-05 0 0)
(1.16587e-05 0 0)
(1.16553e-05 0 0)
(1.16518e-05 0 0)
(1.16484e-05 0 0)
(1.16449e-05 0 0)
(1.16414e-05 0 0)
(1.16379e-05 0 0)
(1.16344e-05 0 0)
(1.16308e-05 0 0)
(1.16273e-05 0 0)
(1.16237e-05 0 0)
(1.16201e-05 0 0)
(1.16165e-05 0 0)
(1.16129e-05 0 0)
(1.16092e-05 0 0)
(1.16056e-05 0 0)
(1.16019e-05 0 0)
(1.15982e-05 0 0)
(1.15944e-05 0 0)
(1.15907e-05 0 0)
(1.15869e-05 0 0)
(1.15832e-05 0 0)
(1.15794e-05 0 0)
(1.15756e-05 0 0)
(1.15718e-05 0 0)
(1.15679e-05 0 0)
(1.15641e-05 0 0)
(1.15602e-05 0 0)
(1.15563e-05 0 0)
(1.15524e-05 0 0)
(1.15484e-05 0 0)
(1.15445e-05 0 0)
(1.15405e-05 0 0)
(1.15365e-05 0 0)
(1.15325e-05 0 0)
(1.15284e-05 0 0)
(1.15244e-05 0 0)
(1.15204e-05 0 0)
(1.15163e-05 0 0)
(1.15123e-05 0 0)
(1.15082e-05 0 0)
(1.15042e-05 0 0)
(1.15001e-05 0 0)
(1.1496e-05 0 0)
(1.14918e-05 0 0)
(1.14877e-05 0 0)
(1.14835e-05 0 0)
(1.14793e-05 0 0)
(1.14751e-05 0 0)
(1.14709e-05 0 0)
(1.14667e-05 0 0)
(1.14625e-05 0 0)
(1.14583e-05 0 0)
(1.14541e-05 0 0)
(1.14499e-05 0 0)
(1.14457e-05 0 0)
(1.14416e-05 0 0)
(1.14375e-05 0 0)
(1.14333e-05 0 0)
(1.14291e-05 0 0)
(1.14248e-05 0 0)
(1.14205e-05 0 0)
(1.1416e-05 0 0)
(1.14113e-05 0 0)
(1.14065e-05 0 0)
(1.14015e-05 0 0)
(1.13963e-05 0 0)
(1.1391e-05 0 0)
(1.13854e-05 0 0)
(1.13798e-05 0 0)
(1.13739e-05 0 0)
(1.1368e-05 0 0)
(1.1362e-05 0 0)
(1.13559e-05 0 0)
(1.13498e-05 0 0)
(1.13438e-05 0 0)
(1.13378e-05 0 0)
(1.1332e-05 0 0)
(1.13263e-05 0 0)
(1.13207e-05 0 0)
(1.13155e-05 0 0)
(1.13105e-05 0 0)
(1.13058e-05 0 0)
(1.13014e-05 0 0)
(1.12974e-05 0 0)
(1.12936e-05 0 0)
(1.12902e-05 0 0)
(1.1287e-05 0 0)
(1.12841e-05 0 0)
(1.12813e-05 0 0)
(1.12787e-05 0 0)
(1.12762e-05 0 0)
(1.12737e-05 0 0)
(1.12712e-05 0 0)
(1.12687e-05 0 0)
(1.12661e-05 0 0)
(1.12633e-05 0 0)
(1.12605e-05 0 0)
(1.12575e-05 0 0)
(1.12543e-05 0 0)
(1.1251e-05 0 0)
(1.12476e-05 0 0)
(1.1244e-05 0 0)
(1.12402e-05 0 0)
(1.12364e-05 0 0)
(1.12325e-05 0 0)
(1.12285e-05 0 0)
(1.12244e-05 0 0)
(1.12203e-05 0 0)
(1.12161e-05 0 0)
(1.1212e-05 0 0)
(1.12078e-05 0 0)
(1.12036e-05 0 0)
(1.11994e-05 0 0)
(1.11952e-05 0 0)
(1.11911e-05 0 0)
(1.11869e-05 0 0)
(1.11828e-05 0 0)
(1.11787e-05 0 0)
(1.11746e-05 0 0)
(1.11705e-05 0 0)
(1.11664e-05 0 0)
(1.11623e-05 0 0)
(1.11582e-05 0 0)
(1.11542e-05 0 0)
(1.11501e-05 0 0)
(1.11461e-05 0 0)
(1.1142e-05 0 0)
(1.1138e-05 0 0)
(1.11339e-05 0 0)
(1.11298e-05 0 0)
(1.11258e-05 0 0)
(1.11217e-05 0 0)
(1.11176e-05 0 0)
(1.11135e-05 0 0)
(1.11094e-05 0 0)
(1.11053e-05 0 0)
(1.11012e-05 0 0)
(1.1097e-05 0 0)
(1.10929e-05 0 0)
(1.10887e-05 0 0)
(1.10846e-05 0 0)
(1.10804e-05 0 0)
(1.10762e-05 0 0)
(1.1072e-05 0 0)
(1.10678e-05 0 0)
(1.10636e-05 0 0)
(1.10593e-05 0 0)
(1.10551e-05 0 0)
(1.10508e-05 0 0)
(1.10465e-05 0 0)
(1.10422e-05 0 0)
(1.10379e-05 0 0)
(1.10336e-05 0 0)
(1.10293e-05 0 0)
(1.1025e-05 0 0)
(1.10206e-05 0 0)
(1.10162e-05 0 0)
(1.10119e-05 0 0)
(1.10075e-05 0 0)
(1.10031e-05 0 0)
(1.09987e-05 0 0)
(1.09942e-05 0 0)
(1.09898e-05 0 0)
(1.09854e-05 0 0)
(1.09809e-05 0 0)
(1.09764e-05 0 0)
(1.0972e-05 0 0)
(1.09675e-05 0 0)
(1.0963e-05 0 0)
(1.09585e-05 0 0)
(1.0954e-05 0 0)
(1.09495e-05 0 0)
(1.0945e-05 0 0)
(1.09404e-05 0 0)
(1.09359e-05 0 0)
(1.09313e-05 0 0)
(1.09267e-05 0 0)
(1.09222e-05 0 0)
(1.09176e-05 0 0)
(1.0913e-05 0 0)
(1.09084e-05 0 0)
(1.09038e-05 0 0)
(1.08992e-05 0 0)
(1.08946e-05 0 0)
(1.089e-05 0 0)
(1.08854e-05 0 0)
(1.08808e-05 0 0)
(1.08762e-05 0 0)
(1.08715e-05 0 0)
(1.08669e-05 0 0)
(1.08621e-05 0 0)
(1.08574e-05 0 0)
(1.08526e-05 0 0)
(1.08477e-05 0 0)
(1.08427e-05 0 0)
(1.08377e-05 0 0)
(1.08326e-05 0 0)
(1.08274e-05 0 0)
(1.08221e-05 0 0)
(1.08167e-05 0 0)
(1.08112e-05 0 0)
(1.08056e-05 0 0)
(1.07999e-05 0 0)
(1.07942e-05 0 0)
(1.07884e-05 0 0)
(1.07826e-05 0 0)
(1.07767e-05 0 0)
(1.07708e-05 0 0)
(1.07649e-05 0 0)
(1.07591e-05 0 0)
(1.07533e-05 0 0)
(1.07475e-05 0 0)
(1.07418e-05 0 0)
(1.07363e-05 0 0)
(1.07308e-05 0 0)
(1.07255e-05 0 0)
(1.07203e-05 0 0)
(1.07153e-05 0 0)
(1.07105e-05 0 0)
(1.07058e-05 0 0)
(1.07013e-05 0 0)
(1.0697e-05 0 0)
(1.06928e-05 0 0)
(1.06888e-05 0 0)
(1.06849e-05 0 0)
(1.06811e-05 0 0)
(1.06775e-05 0 0)
(1.06738e-05 0 0)
(1.06703e-05 0 0)
(1.06668e-05 0 0)
(1.06632e-05 0 0)
(1.06597e-05 0 0)
(1.06562e-05 0 0)
(1.06526e-05 0 0)
(1.06489e-05 0 0)
(1.06452e-05 0 0)
(1.06414e-05 0 0)
(1.06376e-05 0 0)
(1.06337e-05 0 0)
(1.06297e-05 0 0)
(1.06256e-05 0 0)
(1.06214e-05 0 0)
(1.06172e-05 0 0)
(1.06129e-05 0 0)
(1.06086e-05 0 0)
(1.06043e-05 0 0)
(1.05998e-05 0 0)
(1.05954e-05 0 0)
(1.05909e-05 0 0)
(1.05864e-05 0 0)
(1.05819e-05 0 0)
(1.05773e-05 0 0)
(1.05728e-05 0 0)
(1.05683e-05 0 0)
(1.05637e-05 0 0)
(1.05592e-05 0 0)
(1.05546e-05 0 0)
(1.05501e-05 0 0)
(1.05455e-05 0 0)
(1.0541e-05 0 0)
(1.05364e-05 0 0)
(1.05319e-05 0 0)
(1.05274e-05 0 0)
(1.05228e-05 0 0)
(1.05183e-05 0 0)
(1.05138e-05 0 0)
(1.05093e-05 0 0)
(1.05047e-05 0 0)
(1.05002e-05 0 0)
(1.04957e-05 0 0)
(1.04911e-05 0 0)
(1.04866e-05 0 0)
(1.04821e-05 0 0)
(1.04775e-05 0 0)
(1.0473e-05 0 0)
(1.04684e-05 0 0)
(1.04639e-05 0 0)
(1.04593e-05 0 0)
(1.04547e-05 0 0)
(1.04501e-05 0 0)
(1.04455e-05 0 0)
(1.04409e-05 0 0)
(1.04363e-05 0 0)
(1.04317e-05 0 0)
(1.0427e-05 0 0)
(1.04224e-05 0 0)
(1.04177e-05 0 0)
(1.04131e-05 0 0)
(1.04084e-05 0 0)
(1.04037e-05 0 0)
(1.0399e-05 0 0)
(1.03943e-05 0 0)
(1.03896e-05 0 0)
(1.03849e-05 0 0)
(1.03801e-05 0 0)
(1.03754e-05 0 0)
(1.03706e-05 0 0)
(1.03658e-05 0 0)
(1.03611e-05 0 0)
(1.03563e-05 0 0)
(1.03515e-05 0 0)
(1.03467e-05 0 0)
(1.03418e-05 0 0)
(1.0337e-05 0 0)
(1.03322e-05 0 0)
(1.03273e-05 0 0)
(1.03224e-05 0 0)
(1.03176e-05 0 0)
(1.03127e-05 0 0)
(1.03078e-05 0 0)
(1.03029e-05 0 0)
(1.0298e-05 0 0)
(1.02931e-05 0 0)
(1.02881e-05 0 0)
(1.02832e-05 0 0)
(1.02783e-05 0 0)
(1.02733e-05 0 0)
(1.02683e-05 0 0)
(1.02634e-05 0 0)
(1.02584e-05 0 0)
(1.02534e-05 0 0)
(1.02484e-05 0 0)
(1.02434e-05 0 0)
(1.02384e-05 0 0)
(1.02334e-05 0 0)
(1.02284e-05 0 0)
(1.02234e-05 0 0)
(1.02183e-05 0 0)
(1.02133e-05 0 0)
(1.02083e-05 0 0)
(1.02032e-05 0 0)
(1.01981e-05 0 0)
(1.0193e-05 0 0)
(1.01879e-05 0 0)
(1.01828e-05 0 0)
(1.01776e-05 0 0)
(1.01725e-05 0 0)
(1.01672e-05 0 0)
(1.0162e-05 0 0)
(1.01567e-05 0 0)
(1.01513e-05 0 0)
(1.01459e-05 0 0)
(1.01404e-05 0 0)
(1.01349e-05 0 0)
(1.01294e-05 0 0)
(1.01238e-05 0 0)
(1.01181e-05 0 0)
(1.01124e-05 0 0)
(1.01066e-05 0 0)
(1.01008e-05 0 0)
(1.00949e-05 0 0)
(1.0089e-05 0 0)
(1.00831e-05 0 0)
(1.00772e-05 0 0)
(1.00712e-05 0 0)
(1.00652e-05 0 0)
(1.00593e-05 0 0)
(1.00533e-05 0 0)
(1.00474e-05 0 0)
(1.00415e-05 0 0)
(1.00356e-05 0 0)
(1.00299e-05 0 0)
(1.00241e-05 0 0)
(1.00185e-05 0 0)
(1.00129e-05 0 0)
(1.00074e-05 0 0)
(1.0002e-05 0 0)
(9.99665e-06 0 0)
(9.99143e-06 0 0)
(9.98632e-06 0 0)
(9.9813e-06 0 0)
(9.97638e-06 0 0)
(9.97155e-06 0 0)
(9.96681e-06 0 0)
(9.96215e-06 0 0)
(9.95756e-06 0 0)
(9.95303e-06 0 0)
(9.94856e-06 0 0)
(9.94414e-06 0 0)
(9.93974e-06 0 0)
(9.93537e-06 0 0)
(9.93102e-06 0 0)
(9.92666e-06 0 0)
(9.9223e-06 0 0)
(9.91793e-06 0 0)
(9.91353e-06 0 0)
(9.90911e-06 0 0)
(9.90465e-06 0 0)
(9.90016e-06 0 0)
(9.89563e-06 0 0)
(9.89105e-06 0 0)
(9.88643e-06 0 0)
(9.88177e-06 0 0)
(9.87707e-06 0 0)
(9.87232e-06 0 0)
(9.86753e-06 0 0)
(9.86271e-06 0 0)
(9.85785e-06 0 0)
(9.85296e-06 0 0)
(9.84804e-06 0 0)
(9.8431e-06 0 0)
(9.83813e-06 0 0)
(9.83313e-06 0 0)
(9.82813e-06 0 0)
(9.8231e-06 0 0)
(9.81807e-06 0 0)
(9.81302e-06 0 0)
(9.80796e-06 0 0)
(9.8029e-06 0 0)
(9.79783e-06 0 0)
(9.79275e-06 0 0)
(9.78767e-06 0 0)
(9.78259e-06 0 0)
(9.77751e-06 0 0)
(9.77242e-06 0 0)
(9.76734e-06 0 0)
(9.76225e-06 0 0)
(9.75715e-06 0 0)
(9.75206e-06 0 0)
(9.74696e-06 0 0)
(9.74187e-06 0 0)
(9.73676e-06 0 0)
(9.73166e-06 0 0)
(9.72655e-06 0 0)
(9.72144e-06 0 0)
(9.71632e-06 0 0)
(9.71119e-06 0 0)
(9.70606e-06 0 0)
(9.70093e-06 0 0)
(9.69579e-06 0 0)
(9.69064e-06 0 0)
(9.68548e-06 0 0)
(9.68032e-06 0 0)
(9.67515e-06 0 0)
(9.66997e-06 0 0)
(9.66478e-06 0 0)
(9.65958e-06 0 0)
(9.65438e-06 0 0)
(9.64916e-06 0 0)
(9.64394e-06 0 0)
(9.6387e-06 0 0)
(9.63346e-06 0 0)
(9.62821e-06 0 0)
(9.62294e-06 0 0)
(9.61767e-06 0 0)
(9.61239e-06 0 0)
(9.60709e-06 0 0)
(9.60179e-06 0 0)
(9.59647e-06 0 0)
(9.59115e-06 0 0)
(9.58581e-06 0 0)
(9.58047e-06 0 0)
(9.57511e-06 0 0)
(9.56974e-06 0 0)
(9.56437e-06 0 0)
(9.55898e-06 0 0)
(9.55358e-06 0 0)
(9.54818e-06 0 0)
(9.54276e-06 0 0)
(9.53733e-06 0 0)
(9.53189e-06 0 0)
(9.52645e-06 0 0)
(9.52099e-06 0 0)
(9.51552e-06 0 0)
(9.51005e-06 0 0)
(9.50456e-06 0 0)
(9.49907e-06 0 0)
(9.49357e-06 0 0)
(9.48805e-06 0 0)
(9.48253e-06 0 0)
(9.477e-06 0 0)
(9.47146e-06 0 0)
(9.46592e-06 0 0)
(9.46036e-06 0 0)
(9.4548e-06 0 0)
(9.44923e-06 0 0)
(9.44365e-06 0 0)
(9.43806e-06 0 0)
(9.43246e-06 0 0)
(9.42686e-06 0 0)
(9.42125e-06 0 0)
(9.41563e-06 0 0)
(9.41e-06 0 0)
(9.40436e-06 0 0)
(9.39871e-06 0 0)
(9.39305e-06 0 0)
(9.38738e-06 0 0)
(9.38169e-06 0 0)
(9.37599e-06 0 0)
(9.37027e-06 0 0)
(9.36454e-06 0 0)
(9.35878e-06 0 0)
(9.35301e-06 0 0)
(9.34721e-06 0 0)
(9.34139e-06 0 0)
(9.33553e-06 0 0)
(9.32966e-06 0 0)
(9.32374e-06 0 0)
(9.3178e-06 0 0)
(9.31183e-06 0 0)
(9.30582e-06 0 0)
(9.29977e-06 0 0)
(9.29369e-06 0 0)
(9.28758e-06 0 0)
(9.28143e-06 0 0)
(9.27524e-06 0 0)
(9.26903e-06 0 0)
(9.26278e-06 0 0)
(9.2565e-06 0 0)
(9.25019e-06 0 0)
(9.24386e-06 0 0)
(9.23751e-06 0 0)
(9.23114e-06 0 0)
(9.22476e-06 0 0)
(9.21837e-06 0 0)
(9.21198e-06 0 0)
(9.20558e-06 0 0)
(9.1992e-06 0 0)
(9.19282e-06 0 0)
(9.18646e-06 0 0)
(9.18013e-06 0 0)
(9.17382e-06 0 0)
(9.16754e-06 0 0)
(9.1613e-06 0 0)
(9.1551e-06 0 0)
(9.14895e-06 0 0)
(9.14284e-06 0 0)
(9.13679e-06 0 0)
(9.13079e-06 0 0)
(9.12485e-06 0 0)
(9.11896e-06 0 0)
(9.11314e-06 0 0)
(9.10737e-06 0 0)
(9.10165e-06 0 0)
(9.09599e-06 0 0)
(9.09038e-06 0 0)
(9.08482e-06 0 0)
(9.07931e-06 0 0)
(9.07383e-06 0 0)
(9.06839e-06 0 0)
(9.06298e-06 0 0)
(9.0576e-06 0 0)
(9.05223e-06 0 0)
(9.04688e-06 0 0)
(9.04153e-06 0 0)
(9.03619e-06 0 0)
(9.03085e-06 0 0)
(9.0255e-06 0 0)
(9.02014e-06 0 0)
(9.01476e-06 0 0)
(9.00937e-06 0 0)
(9.00395e-06 0 0)
(8.99851e-06 0 0)
(8.99305e-06 0 0)
(8.98756e-06 0 0)
(8.98204e-06 0 0)
(8.97649e-06 0 0)
(8.97091e-06 0 0)
(8.9653e-06 0 0)
(8.95966e-06 0 0)
(8.954e-06 0 0)
(8.94831e-06 0 0)
(8.9426e-06 0 0)
(8.93685e-06 0 0)
(8.93109e-06 0 0)
(8.92531e-06 0 0)
(8.9195e-06 0 0)
(8.91368e-06 0 0)
(8.90784e-06 0 0)
(8.90198e-06 0 0)
(8.89611e-06 0 0)
(8.89022e-06 0 0)
(8.88432e-06 0 0)
(8.87841e-06 0 0)
(8.87249e-06 0 0)
(8.86657e-06 0 0)
(8.86063e-06 0 0)
(8.85468e-06 0 0)
(8.84873e-06 0 0)
(8.84277e-06 0 0)
(8.8368e-06 0 0)
(8.83082e-06 0 0)
(8.82484e-06 0 0)
(8.81885e-06 0 0)
(8.81286e-06 0 0)
(8.80686e-06 0 0)
(8.80085e-06 0 0)
(8.79483e-06 0 0)
(8.78881e-06 0 0)
(8.78278e-06 0 0)
(8.77674e-06 0 0)
(8.7707e-06 0 0)
(8.76464e-06 0 0)
(8.75858e-06 0 0)
(8.75251e-06 0 0)
(8.74643e-06 0 0)
(8.74034e-06 0 0)
(8.73424e-06 0 0)
(8.72813e-06 0 0)
(8.72202e-06 0 0)
(8.71589e-06 0 0)
(8.70975e-06 0 0)
(8.7036e-06 0 0)
(8.69744e-06 0 0)
(8.69127e-06 0 0)
(8.68509e-06 0 0)
(8.6789e-06 0 0)
(8.67269e-06 0 0)
(8.66647e-06 0 0)
(8.66025e-06 0 0)
(8.65401e-06 0 0)
(8.64775e-06 0 0)
(8.64149e-06 0 0)
(8.63521e-06 0 0)
(8.62892e-06 0 0)
(8.62262e-06 0 0)
(8.61631e-06 0 0)
(8.60998e-06 0 0)
(8.60364e-06 0 0)
(8.59729e-06 0 0)
(8.59093e-06 0 0)
(8.58455e-06 0 0)
(8.57817e-06 0 0)
(8.57176e-06 0 0)
(8.56535e-06 0 0)
(8.55892e-06 0 0)
(8.55249e-06 0 0)
(8.54604e-06 0 0)
(8.53957e-06 0 0)
(8.5331e-06 0 0)
(8.52661e-06 0 0)
(8.52011e-06 0 0)
(8.51359e-06 0 0)
(8.50707e-06 0 0)
(8.50053e-06 0 0)
(8.49398e-06 0 0)
(8.48742e-06 0 0)
(8.48085e-06 0 0)
(8.47427e-06 0 0)
(8.46767e-06 0 0)
(8.46106e-06 0 0)
(8.45444e-06 0 0)
(8.44781e-06 0 0)
(8.44117e-06 0 0)
(8.43451e-06 0 0)
(8.42784e-06 0 0)
(8.42116e-06 0 0)
(8.41447e-06 0 0)
(8.40776e-06 0 0)
(8.40104e-06 0 0)
(8.39431e-06 0 0)
(8.38757e-06 0 0)
(8.38081e-06 0 0)
(8.37403e-06 0 0)
(8.36724e-06 0 0)
(8.36043e-06 0 0)
(8.35361e-06 0 0)
(8.34677e-06 0 0)
(8.33991e-06 0 0)
(8.33302e-06 0 0)
(8.32612e-06 0 0)
(8.3192e-06 0 0)
(8.31225e-06 0 0)
(8.30528e-06 0 0)
(8.29829e-06 0 0)
(8.29127e-06 0 0)
(8.28422e-06 0 0)
(8.27715e-06 0 0)
(8.27005e-06 0 0)
(8.26292e-06 0 0)
(8.25576e-06 0 0)
(8.24857e-06 0 0)
(8.24136e-06 0 0)
(8.23411e-06 0 0)
(8.22684e-06 0 0)
(8.21954e-06 0 0)
(8.21221e-06 0 0)
(8.20486e-06 0 0)
(8.19748e-06 0 0)
(8.19007e-06 0 0)
(8.18265e-06 0 0)
(8.1752e-06 0 0)
(8.16774e-06 0 0)
(8.16025e-06 0 0)
(8.15276e-06 0 0)
(8.14525e-06 0 0)
(8.13773e-06 0 0)
(8.13021e-06 0 0)
(8.12268e-06 0 0)
(8.11514e-06 0 0)
(8.10761e-06 0 0)
(8.10009e-06 0 0)
(8.09257e-06 0 0)
(8.08506e-06 0 0)
(8.07756e-06 0 0)
(8.07008e-06 0 0)
(8.06262e-06 0 0)
(8.05517e-06 0 0)
(8.04774e-06 0 0)
(8.04034e-06 0 0)
(8.03297e-06 0 0)
(8.02561e-06 0 0)
(8.01829e-06 0 0)
(8.01099e-06 0 0)
(8.00372e-06 0 0)
(7.99647e-06 0 0)
(7.98925e-06 0 0)
(7.98206e-06 0 0)
(7.97489e-06 0 0)
(7.96775e-06 0 0)
(7.96062e-06 0 0)
(7.95351e-06 0 0)
(7.94642e-06 0 0)
(7.93935e-06 0 0)
(7.93228e-06 0 0)
(7.92522e-06 0 0)
(7.91817e-06 0 0)
(7.91112e-06 0 0)
(7.90407e-06 0 0)
(7.89701e-06 0 0)
(7.88995e-06 0 0)
(7.88288e-06 0 0)
(7.87579e-06 0 0)
(7.86869e-06 0 0)
(7.86157e-06 0 0)
(7.85444e-06 0 0)
(7.84728e-06 0 0)
(7.8401e-06 0 0)
(7.8329e-06 0 0)
(7.82567e-06 0 0)
(7.81841e-06 0 0)
(7.81113e-06 0 0)
(7.80382e-06 0 0)
(7.79648e-06 0 0)
(7.78911e-06 0 0)
(7.78172e-06 0 0)
(7.7743e-06 0 0)
(7.76685e-06 0 0)
(7.75937e-06 0 0)
(7.75187e-06 0 0)
(7.74434e-06 0 0)
(7.73678e-06 0 0)
(7.7292e-06 0 0)
(7.72159e-06 0 0)
(7.71397e-06 0 0)
(7.70631e-06 0 0)
(7.69864e-06 0 0)
(7.69094e-06 0 0)
(7.68322e-06 0 0)
(7.67548e-06 0 0)
(7.66772e-06 0 0)
(7.65994e-06 0 0)
(7.65214e-06 0 0)
(7.64432e-06 0 0)
(7.63649e-06 0 0)
(7.62863e-06 0 0)
(7.62075e-06 0 0)
(7.61286e-06 0 0)
(7.60495e-06 0 0)
(7.59702e-06 0 0)
(7.58907e-06 0 0)
(7.5811e-06 0 0)
(7.57311e-06 0 0)
(7.56511e-06 0 0)
(7.55708e-06 0 0)
(7.54904e-06 0 0)
(7.54098e-06 0 0)
(7.53289e-06 0 0)
(7.52479e-06 0 0)
(7.51667e-06 0 0)
(7.50853e-06 0 0)
(7.50037e-06 0 0)
(7.49218e-06 0 0)
(7.48398e-06 0 0)
(7.47575e-06 0 0)
(7.46751e-06 0 0)
(7.45924e-06 0 0)
(7.45095e-06 0 0)
(7.44263e-06 0 0)
(7.4343e-06 0 0)
(7.42594e-06 0 0)
(7.41755e-06 0 0)
(7.40915e-06 0 0)
(7.40072e-06 0 0)
(7.39227e-06 0 0)
(7.38379e-06 0 0)
(7.37528e-06 0 0)
(7.36676e-06 0 0)
(7.3582e-06 0 0)
(7.34963e-06 0 0)
(7.34102e-06 0 0)
(7.3324e-06 0 0)
(7.32374e-06 0 0)
(7.31506e-06 0 0)
(7.30636e-06 0 0)
(7.29762e-06 0 0)
(7.28886e-06 0 0)
(7.28008e-06 0 0)
(7.27127e-06 0 0)
(7.26243e-06 0 0)
(7.25356e-06 0 0)
(7.24467e-06 0 0)
(7.23575e-06 0 0)
(7.2268e-06 0 0)
(7.21782e-06 0 0)
(7.20882e-06 0 0)
(7.19978e-06 0 0)
(7.19072e-06 0 0)
(7.18164e-06 0 0)
(7.17252e-06 0 0)
(7.16338e-06 0 0)
(7.1542e-06 0 0)
(7.145e-06 0 0)
(7.13577e-06 0 0)
(7.12651e-06 0 0)
(7.11723e-06 0 0)
(7.10791e-06 0 0)
(7.09856e-06 0 0)
(7.08919e-06 0 0)
(7.07978e-06 0 0)
(7.07035e-06 0 0)
(7.06089e-06 0 0)
(7.0514e-06 0 0)
(7.04188e-06 0 0)
(7.03233e-06 0 0)
(7.02275e-06 0 0)
(7.01314e-06 0 0)
(7.0035e-06 0 0)
(6.99383e-06 0 0)
(6.98413e-06 0 0)
(6.97441e-06 0 0)
(6.96465e-06 0 0)
(6.95486e-06 0 0)
(6.94504e-06 0 0)
(6.93519e-06 0 0)
(6.92531e-06 0 0)
(6.9154e-06 0 0)
(6.90546e-06 0 0)
(6.89549e-06 0 0)
(6.88549e-06 0 0)
(6.87546e-06 0 0)
(6.86541e-06 0 0)
(6.85533e-06 0 0)
(6.84522e-06 0 0)
(6.83509e-06 0 0)
(6.82493e-06 0 0)
(6.81475e-06 0 0)
(6.80455e-06 0 0)
(6.79433e-06 0 0)
(6.7841e-06 0 0)
(6.77385e-06 0 0)
(6.7636e-06 0 0)
(6.75334e-06 0 0)
(6.74309e-06 0 0)
(6.73284e-06 0 0)
(6.7226e-06 0 0)
(6.71239e-06 0 0)
(6.70221e-06 0 0)
(6.69206e-06 0 0)
(6.68196e-06 0 0)
(7.13587e-06 0 0)
)
;

boundaryField
{
    inlet
    {
        type            fixedValue;
        value           uniform (1.13622e-05 0 0);
    }
    outlet
    {
        type            zeroGradient;
    }
    emptyWalls
    {
        type            empty;
    }
}


// ************************************************************************* //
