/*--------------------------------*- C++ -*----------------------------------*\
  =========                 |
  \\      /  F ield         | OpenFOAM: The Open Source CFD Toolbox
   \\    /   O peration     | Website:  https://openfoam.org
    \\  /    A nd           | Version:  9
     \\/     M anipulation  |
\*---------------------------------------------------------------------------*/
FoamFile
{
    format      ascii;
    class       volVectorField;
    location    "1700";
    object      Ua;
}
// * * * * * * * * * * * * * * * * * * * * * * * * * * * * * * * * * * * * * //

dimensions      [0 0 0 0 0 0 0];

internalField   nonuniform List<vector> 
1000
(
(2.73807e-06 0 0)
(2.63063e-06 0 0)
(2.33565e-06 0 0)
(2.1075e-06 0 0)
(2.06754e-06 0 0)
(2.05149e-06 0 0)
(2.04532e-06 0 0)
(2.04383e-06 0 0)
(2.04216e-06 0 0)
(2.04051e-06 0 0)
(2.039e-06 0 0)
(2.03763e-06 0 0)
(2.0364e-06 0 0)
(2.03539e-06 0 0)
(2.03477e-06 0 0)
(2.03473e-06 0 0)
(2.03541e-06 0 0)
(2.03681e-06 0 0)
(2.03883e-06 0 0)
(2.04131e-06 0 0)
(2.0441e-06 0 0)
(2.04704e-06 0 0)
(2.05004e-06 0 0)
(2.05303e-06 0 0)
(2.05593e-06 0 0)
(2.0586e-06 0 0)
(2.06086e-06 0 0)
(2.06245e-06 0 0)
(2.06307e-06 0 0)
(2.06246e-06 0 0)
(2.06033e-06 0 0)
(2.05648e-06 0 0)
(2.05077e-06 0 0)
(2.04312e-06 0 0)
(2.03355e-06 0 0)
(2.02218e-06 0 0)
(2.00924e-06 0 0)
(1.99511e-06 0 0)
(1.98026e-06 0 0)
(1.96524e-06 0 0)
(1.95061e-06 0 0)
(1.93688e-06 0 0)
(1.9245e-06 0 0)
(1.91377e-06 0 0)
(1.90486e-06 0 0)
(1.89781e-06 0 0)
(1.89255e-06 0 0)
(1.88892e-06 0 0)
(1.88671e-06 0 0)
(1.88569e-06 0 0)
(1.88561e-06 0 0)
(1.8862e-06 0 0)
(1.88725e-06 0 0)
(1.88855e-06 0 0)
(1.8899e-06 0 0)
(1.89117e-06 0 0)
(1.89223e-06 0 0)
(1.89298e-06 0 0)
(1.89336e-06 0 0)
(1.89334e-06 0 0)
(1.89286e-06 0 0)
(1.89189e-06 0 0)
(1.89031e-06 0 0)
(1.88792e-06 0 0)
(1.88435e-06 0 0)
(1.87917e-06 0 0)
(1.87212e-06 0 0)
(1.86372e-06 0 0)
(1.85545e-06 0 0)
(1.84899e-06 0 0)
(1.84495e-06 0 0)
(1.84278e-06 0 0)
(1.84166e-06 0 0)
(1.84103e-06 0 0)
(1.84061e-06 0 0)
(1.84028e-06 0 0)
(1.84001e-06 0 0)
(1.83976e-06 0 0)
(1.83952e-06 0 0)
(1.83931e-06 0 0)
(1.83911e-06 0 0)
(1.83893e-06 0 0)
(1.83877e-06 0 0)
(1.83863e-06 0 0)
(1.83852e-06 0 0)
(1.83844e-06 0 0)
(1.83839e-06 0 0)
(1.83837e-06 0 0)
(1.83837e-06 0 0)
(1.83837e-06 0 0)
(1.83839e-06 0 0)
(1.83844e-06 0 0)
(1.8385e-06 0 0)
(1.83855e-06 0 0)
(1.8386e-06 0 0)
(1.83863e-06 0 0)
(1.83865e-06 0 0)
(1.83866e-06 0 0)
(1.83866e-06 0 0)
(1.83865e-06 0 0)
(1.83861e-06 0 0)
(1.83853e-06 0 0)
(1.83842e-06 0 0)
(1.8383e-06 0 0)
(1.83815e-06 0 0)
(1.83798e-06 0 0)
(1.83779e-06 0 0)
(1.83758e-06 0 0)
(1.83735e-06 0 0)
(1.8371e-06 0 0)
(1.83684e-06 0 0)
(1.83657e-06 0 0)
(1.83628e-06 0 0)
(1.83598e-06 0 0)
(1.83566e-06 0 0)
(1.83533e-06 0 0)
(1.83499e-06 0 0)
(1.83463e-06 0 0)
(1.83426e-06 0 0)
(1.83388e-06 0 0)
(1.83348e-06 0 0)
(1.83308e-06 0 0)
(1.83266e-06 0 0)
(1.83223e-06 0 0)
(1.83179e-06 0 0)
(1.83134e-06 0 0)
(1.83089e-06 0 0)
(1.83044e-06 0 0)
(1.82998e-06 0 0)
(1.82952e-06 0 0)
(1.82907e-06 0 0)
(1.82862e-06 0 0)
(1.82818e-06 0 0)
(1.82775e-06 0 0)
(1.82733e-06 0 0)
(1.82693e-06 0 0)
(1.82655e-06 0 0)
(1.8262e-06 0 0)
(1.82588e-06 0 0)
(1.8256e-06 0 0)
(1.82536e-06 0 0)
(1.82517e-06 0 0)
(1.82504e-06 0 0)
(1.82496e-06 0 0)
(1.82494e-06 0 0)
(1.82493e-06 0 0)
(1.82495e-06 0 0)
(1.82507e-06 0 0)
(1.82532e-06 0 0)
(1.82564e-06 0 0)
(1.82605e-06 0 0)
(1.82653e-06 0 0)
(1.82708e-06 0 0)
(1.82771e-06 0 0)
(1.82842e-06 0 0)
(1.82919e-06 0 0)
(1.83005e-06 0 0)
(1.83097e-06 0 0)
(1.83197e-06 0 0)
(1.83304e-06 0 0)
(1.83417e-06 0 0)
(1.83538e-06 0 0)
(1.83665e-06 0 0)
(1.83798e-06 0 0)
(1.83937e-06 0 0)
(1.84082e-06 0 0)
(1.84231e-06 0 0)
(1.84386e-06 0 0)
(1.84544e-06 0 0)
(1.84706e-06 0 0)
(1.84871e-06 0 0)
(1.85038e-06 0 0)
(1.85207e-06 0 0)
(1.85377e-06 0 0)
(1.85547e-06 0 0)
(1.85717e-06 0 0)
(1.85886e-06 0 0)
(1.86054e-06 0 0)
(1.8622e-06 0 0)
(1.86384e-06 0 0)
(1.86546e-06 0 0)
(1.86705e-06 0 0)
(1.86862e-06 0 0)
(1.87017e-06 0 0)
(1.87169e-06 0 0)
(1.8732e-06 0 0)
(1.87468e-06 0 0)
(1.87616e-06 0 0)
(1.87763e-06 0 0)
(1.87911e-06 0 0)
(1.88059e-06 0 0)
(1.88211e-06 0 0)
(1.88366e-06 0 0)
(1.88526e-06 0 0)
(1.88692e-06 0 0)
(1.88867e-06 0 0)
(1.8905e-06 0 0)
(1.89245e-06 0 0)
(1.89453e-06 0 0)
(1.89674e-06 0 0)
(1.89912e-06 0 0)
(1.90166e-06 0 0)
(1.90438e-06 0 0)
(1.90729e-06 0 0)
(1.9104e-06 0 0)
(1.91371e-06 0 0)
(1.91722e-06 0 0)
(1.92092e-06 0 0)
(1.9248e-06 0 0)
(1.92885e-06 0 0)
(1.93304e-06 0 0)
(1.93734e-06 0 0)
(1.94173e-06 0 0)
(1.94614e-06 0 0)
(1.95052e-06 0 0)
(1.95481e-06 0 0)
(1.95891e-06 0 0)
(1.96271e-06 0 0)
(1.96609e-06 0 0)
(1.96886e-06 0 0)
(1.97084e-06 0 0)
(1.97195e-06 0 0)
(1.97234e-06 0 0)
(1.97235e-06 0 0)
(1.97184e-06 0 0)
(1.96939e-06 0 0)
(1.96411e-06 0 0)
(1.95652e-06 0 0)
(1.94686e-06 0 0)
(1.93526e-06 0 0)
(1.92192e-06 0 0)
(1.90723e-06 0 0)
(1.89163e-06 0 0)
(1.87567e-06 0 0)
(1.85988e-06 0 0)
(1.84476e-06 0 0)
(1.83076e-06 0 0)
(1.81819e-06 0 0)
(1.80726e-06 0 0)
(1.79809e-06 0 0)
(1.79067e-06 0 0)
(1.78494e-06 0 0)
(1.78081e-06 0 0)
(1.77811e-06 0 0)
(1.77666e-06 0 0)
(1.77611e-06 0 0)
(1.77601e-06 0 0)
(1.77627e-06 0 0)
(1.77788e-06 0 0)
(1.78069e-06 0 0)
(1.7838e-06 0 0)
(1.78714e-06 0 0)
(1.79063e-06 0 0)
(1.79418e-06 0 0)
(1.79773e-06 0 0)
(1.80124e-06 0 0)
(1.80465e-06 0 0)
(1.80793e-06 0 0)
(1.81106e-06 0 0)
(1.814e-06 0 0)
(1.81675e-06 0 0)
(1.81929e-06 0 0)
(1.82163e-06 0 0)
(1.82376e-06 0 0)
(1.82568e-06 0 0)
(1.8274e-06 0 0)
(1.82894e-06 0 0)
(1.83031e-06 0 0)
(1.83152e-06 0 0)
(1.83258e-06 0 0)
(1.83351e-06 0 0)
(1.83433e-06 0 0)
(1.83507e-06 0 0)
(1.83572e-06 0 0)
(1.83628e-06 0 0)
(1.83682e-06 0 0)
(1.83732e-06 0 0)
(1.83774e-06 0 0)
(1.83816e-06 0 0)
(1.83861e-06 0 0)
(1.83901e-06 0 0)
(1.83933e-06 0 0)
(1.83975e-06 0 0)
(1.8402e-06 0 0)
(1.84041e-06 0 0)
(1.84038e-06 0 0)
(1.83677e-06 0 0)
(1.81967e-06 0 0)
(1.72925e-06 0 0)
(9.79122e-07 0 0)
(1.54256e-07 0 0)
(1.32072e-09 0 0)
(1.40386e-14 0 0)
(2.47252e-25 0 0)
(1.85324e-48 0 0)
(4.84629e-97 0 0)
(6.93782e-200 0 0)
(0 0 0)
(0 0 0)
(0 0 0)
(0 0 0)
(0 0 0)
(0 0 0)
(0 0 0)
(0 0 0)
(0 0 0)
(0 0 0)
(0 0 0)
(0 0 0)
(0 0 0)
(0 0 0)
(0 0 0)
(0 0 0)
(0 0 0)
(0 0 0)
(0 0 0)
(0 0 0)
(0 0 0)
(0 0 0)
(0 0 0)
(0 0 0)
(0 0 0)
(0 0 0)
(0 0 0)
(0 0 0)
(0 0 0)
(0 0 0)
(0 0 0)
(0 0 0)
(0 0 0)
(0 0 0)
(0 0 0)
(0 0 0)
(0 0 0)
(0 0 0)
(0 0 0)
(0 0 0)
(0 0 0)
(0 0 0)
(0 0 0)
(0 0 0)
(0 0 0)
(0 0 0)
(0 0 0)
(0 0 0)
(0 0 0)
(0 0 0)
(0 0 0)
(0 0 0)
(0 0 0)
(0 0 0)
(0 0 0)
(0 0 0)
(0 0 0)
(0 0 0)
(0 0 0)
(0 0 0)
(0 0 0)
(0 0 0)
(0 0 0)
(0 0 0)
(0 0 0)
(0 0 0)
(0 0 0)
(0 0 0)
(0 0 0)
(0 0 0)
(0 0 0)
(0 0 0)
(0 0 0)
(0 0 0)
(0 0 0)
(0 0 0)
(0 0 0)
(0 0 0)
(0 0 0)
(0 0 0)
(0 0 0)
(0 0 0)
(0 0 0)
(0 0 0)
(0 0 0)
(0 0 0)
(0 0 0)
(0 0 0)
(0 0 0)
(0 0 0)
(0 0 0)
(0 0 0)
(0 0 0)
(0 0 0)
(0 0 0)
(0 0 0)
(0 0 0)
(0 0 0)
(0 0 0)
(0 0 0)
(0 0 0)
(0 0 0)
(0 0 0)
(0 0 0)
(0 0 0)
(0 0 0)
(0 0 0)
(0 0 0)
(0 0 0)
(0 0 0)
(0 0 0)
(0 0 0)
(0 0 0)
(0 0 0)
(0 0 0)
(0 0 0)
(0 0 0)
(0 0 0)
(0 0 0)
(0 0 0)
(0 0 0)
(0 0 0)
(0 0 0)
(0 0 0)
(0 0 0)
(0 0 0)
(0 0 0)
(0 0 0)
(0 0 0)
(0 0 0)
(0 0 0)
(0 0 0)
(0 0 0)
(0 0 0)
(0 0 0)
(0 0 0)
(0 0 0)
(0 0 0)
(0 0 0)
(0 0 0)
(0 0 0)
(0 0 0)
(0 0 0)
(0 0 0)
(0 0 0)
(0 0 0)
(0 0 0)
(0 0 0)
(0 0 0)
(0 0 0)
(0 0 0)
(0 0 0)
(0 0 0)
(0 0 0)
(0 0 0)
(0 0 0)
(0 0 0)
(0 0 0)
(0 0 0)
(0 0 0)
(0 0 0)
(0 0 0)
(0 0 0)
(0 0 0)
(0 0 0)
(0 0 0)
(0 0 0)
(0 0 0)
(0 0 0)
(0 0 0)
(0 0 0)
(0 0 0)
(0 0 0)
(0 0 0)
(0 0 0)
(0 0 0)
(0 0 0)
(0 0 0)
(0 0 0)
(0 0 0)
(0 0 0)
(0 0 0)
(0 0 0)
(0 0 0)
(0 0 0)
(0 0 0)
(0 0 0)
(0 0 0)
(0 0 0)
(0 0 0)
(0 0 0)
(0 0 0)
(0 0 0)
(0 0 0)
(0 0 0)
(0 0 0)
(0 0 0)
(0 0 0)
(0 0 0)
(0 0 0)
(0 0 0)
(0 0 0)
(0 0 0)
(0 0 0)
(0 0 0)
(0 0 0)
(0 0 0)
(0 0 0)
(0 0 0)
(0 0 0)
(0 0 0)
(0 0 0)
(0 0 0)
(0 0 0)
(0 0 0)
(0 0 0)
(0 0 0)
(0 0 0)
(0 0 0)
(0 0 0)
(0 0 0)
(0 0 0)
(0 0 0)
(0 0 0)
(0 0 0)
(0 0 0)
(0 0 0)
(0 0 0)
(0 0 0)
(0 0 0)
(0 0 0)
(0 0 0)
(0 0 0)
(0 0 0)
(0 0 0)
(0 0 0)
(0 0 0)
(0 0 0)
(0 0 0)
(0 0 0)
(0 0 0)
(0 0 0)
(0 0 0)
(0 0 0)
(0 0 0)
(0 0 0)
(0 0 0)
(0 0 0)
(0 0 0)
(0 0 0)
(0 0 0)
(0 0 0)
(0 0 0)
(0 0 0)
(0 0 0)
(0 0 0)
(0 0 0)
(0 0 0)
(0 0 0)
(0 0 0)
(0 0 0)
(0 0 0)
(0 0 0)
(0 0 0)
(0 0 0)
(0 0 0)
(0 0 0)
(0 0 0)
(0 0 0)
(0 0 0)
(0 0 0)
(0 0 0)
(0 0 0)
(0 0 0)
(0 0 0)
(0 0 0)
(0 0 0)
(0 0 0)
(0 0 0)
(0 0 0)
(0 0 0)
(0 0 0)
(0 0 0)
(0 0 0)
(0 0 0)
(0 0 0)
(0 0 0)
(0 0 0)
(0 0 0)
(0 0 0)
(0 0 0)
(0 0 0)
(0 0 0)
(0 0 0)
(0 0 0)
(0 0 0)
(0 0 0)
(0 0 0)
(0 0 0)
(0 0 0)
(0 0 0)
(0 0 0)
(0 0 0)
(0 0 0)
(0 0 0)
(0 0 0)
(0 0 0)
(0 0 0)
(0 0 0)
(0 0 0)
(0 0 0)
(0 0 0)
(0 0 0)
(0 0 0)
(0 0 0)
(0 0 0)
(0 0 0)
(0 0 0)
(0 0 0)
(0 0 0)
(0 0 0)
(0 0 0)
(0 0 0)
(0 0 0)
(0 0 0)
(0 0 0)
(0 0 0)
(0 0 0)
(0 0 0)
(0 0 0)
(0 0 0)
(0 0 0)
(0 0 0)
(0 0 0)
(0 0 0)
(0 0 0)
(0 0 0)
(0 0 0)
(0 0 0)
(0 0 0)
(0 0 0)
(0 0 0)
(0 0 0)
(0 0 0)
(0 0 0)
(0 0 0)
(0 0 0)
(0 0 0)
(0 0 0)
(0 0 0)
(0 0 0)
(0 0 0)
(0 0 0)
(0 0 0)
(0 0 0)
(0 0 0)
(0 0 0)
(0 0 0)
(0 0 0)
(0 0 0)
(0 0 0)
(0 0 0)
(0 0 0)
(0 0 0)
(0 0 0)
(0 0 0)
(0 0 0)
(0 0 0)
(0 0 0)
(0 0 0)
(0 0 0)
(0 0 0)
(0 0 0)
(0 0 0)
(0 0 0)
(0 0 0)
(0 0 0)
(0 0 0)
(0 0 0)
(0 0 0)
(0 0 0)
(0 0 0)
(0 0 0)
(0 0 0)
(0 0 0)
(0 0 0)
(0 0 0)
(0 0 0)
(0 0 0)
(0 0 0)
(0 0 0)
(0 0 0)
(0 0 0)
(0 0 0)
(0 0 0)
(0 0 0)
(0 0 0)
(0 0 0)
(0 0 0)
(0 0 0)
(0 0 0)
(0 0 0)
(0 0 0)
(0 0 0)
(0 0 0)
(0 0 0)
(0 0 0)
(0 0 0)
(0 0 0)
(0 0 0)
(0 0 0)
(0 0 0)
(0 0 0)
(0 0 0)
(0 0 0)
(0 0 0)
(0 0 0)
(0 0 0)
(0 0 0)
(0 0 0)
(0 0 0)
(0 0 0)
(0 0 0)
(0 0 0)
(0 0 0)
(0 0 0)
(0 0 0)
(0 0 0)
(0 0 0)
(0 0 0)
(0 0 0)
(0 0 0)
(0 0 0)
(0 0 0)
(0 0 0)
(0 0 0)
(0 0 0)
(0 0 0)
(0 0 0)
(0 0 0)
(0 0 0)
(0 0 0)
(0 0 0)
(0 0 0)
(0 0 0)
(0 0 0)
(0 0 0)
(0 0 0)
(0 0 0)
(0 0 0)
(0 0 0)
(0 0 0)
(0 0 0)
(0 0 0)
(0 0 0)
(0 0 0)
(0 0 0)
(0 0 0)
(0 0 0)
(0 0 0)
(0 0 0)
(0 0 0)
(0 0 0)
(0 0 0)
(0 0 0)
(0 0 0)
(0 0 0)
(0 0 0)
(0 0 0)
(0 0 0)
(0 0 0)
(0 0 0)
(0 0 0)
(0 0 0)
(0 0 0)
(0 0 0)
(0 0 0)
(0 0 0)
(0 0 0)
(0 0 0)
(0 0 0)
(0 0 0)
(0 0 0)
(0 0 0)
(0 0 0)
(0 0 0)
(0 0 0)
(0 0 0)
(0 0 0)
(0 0 0)
(0 0 0)
(0 0 0)
(0 0 0)
(0 0 0)
(0 0 0)
(0 0 0)
(0 0 0)
(0 0 0)
(0 0 0)
(0 0 0)
(0 0 0)
(0 0 0)
(0 0 0)
(0 0 0)
(0 0 0)
(0 0 0)
(0 0 0)
(0 0 0)
(0 0 0)
(0 0 0)
(0 0 0)
(0 0 0)
(0 0 0)
(0 0 0)
(0 0 0)
(0 0 0)
(0 0 0)
(0 0 0)
(0 0 0)
(0 0 0)
(0 0 0)
(0 0 0)
(0 0 0)
(0 0 0)
(0 0 0)
(0 0 0)
(0 0 0)
(0 0 0)
(0 0 0)
(0 0 0)
(0 0 0)
(0 0 0)
(0 0 0)
(0 0 0)
(0 0 0)
(0 0 0)
(0 0 0)
(0 0 0)
(0 0 0)
(0 0 0)
(0 0 0)
(0 0 0)
(0 0 0)
(0 0 0)
(0 0 0)
(0 0 0)
(0 0 0)
(0 0 0)
(0 0 0)
(0 0 0)
(0 0 0)
(0 0 0)
(0 0 0)
(0 0 0)
(0 0 0)
(0 0 0)
(0 0 0)
(0 0 0)
(0 0 0)
(0 0 0)
(0 0 0)
(0 0 0)
(0 0 0)
(0 0 0)
(0 0 0)
(0 0 0)
(0 0 0)
(0 0 0)
(0 0 0)
(0 0 0)
(0 0 0)
(0 0 0)
(0 0 0)
(0 0 0)
(0 0 0)
(0 0 0)
(0 0 0)
(0 0 0)
(0 0 0)
(0 0 0)
(0 0 0)
(0 0 0)
(0 0 0)
(0 0 0)
(0 0 0)
(0 0 0)
(0 0 0)
(0 0 0)
(0 0 0)
(0 0 0)
(0 0 0)
(0 0 0)
(0 0 0)
(0 0 0)
(0 0 0)
(0 0 0)
(0 0 0)
(0 0 0)
(0 0 0)
(0 0 0)
(0 0 0)
(0 0 0)
(0 0 0)
(0 0 0)
(0 0 0)
(0 0 0)
(0 0 0)
(0 0 0)
(0 0 0)
(0 0 0)
(0 0 0)
(0 0 0)
(0 0 0)
(0 0 0)
(0 0 0)
(0 0 0)
(0 0 0)
(0 0 0)
(0 0 0)
(0 0 0)
(0 0 0)
(0 0 0)
(0 0 0)
(0 0 0)
(0 0 0)
(0 0 0)
(0 0 0)
(0 0 0)
(0 0 0)
(0 0 0)
(0 0 0)
(0 0 0)
(0 0 0)
(0 0 0)
(0 0 0)
(0 0 0)
(0 0 0)
(0 0 0)
(0 0 0)
(0 0 0)
(0 0 0)
(0 0 0)
(0 0 0)
(0 0 0)
(0 0 0)
(0 0 0)
(0 0 0)
(0 0 0)
(0 0 0)
(0 0 0)
(0 0 0)
(0 0 0)
(0 0 0)
(0 0 0)
(0 0 0)
(0 0 0)
(0 0 0)
(0 0 0)
(0 0 0)
(0 0 0)
(0 0 0)
(0 0 0)
(0 0 0)
(0 0 0)
(0 0 0)
(0 0 0)
(0 0 0)
(0 0 0)
(0 0 0)
(0 0 0)
(0 0 0)
(0 0 0)
(0 0 0)
(0 0 0)
(0 0 0)
(0 0 0)
(0 0 0)
(0 0 0)
(0 0 0)
(0 0 0)
(0 0 0)
(0 0 0)
(0 0 0)
(0 0 0)
(0 0 0)
(0 0 0)
(0 0 0)
(0 0 0)
(0 0 0)
(0 0 0)
(0 0 0)
(0 0 0)
(0 0 0)
(0 0 0)
(0 0 0)
(0 0 0)
(0 0 0)
(0 0 0)
(0 0 0)
(0 0 0)
(0 0 0)
(0 0 0)
(0 0 0)
)
;

boundaryField
{
    inlet
    {
        type            fixedValue;
        value           uniform (2.74882e-06 0 0);
    }
    outlet
    {
        type            zeroGradient;
    }
    emptyWalls
    {
        type            empty;
    }
}


// ************************************************************************* //
