/*--------------------------------*- C++ -*----------------------------------*\
  =========                 |
  \\      /  F ield         | OpenFOAM: The Open Source CFD Toolbox
   \\    /   O peration     | Website:  https://openfoam.org
    \\  /    A nd           | Version:  9
     \\/     M anipulation  |
\*---------------------------------------------------------------------------*/
FoamFile
{
    format      ascii;
    class       volScalarField;
    location    "4800";
    object      p;
}
// * * * * * * * * * * * * * * * * * * * * * * * * * * * * * * * * * * * * * //

dimensions      [0 0 0 0 0 0 0];

internalField   nonuniform List<scalar> 
1000
(
263322
262905
262499
262102
261718
261367
261104
260984
260894
260810
260727
260644
260562
260481
260399
260318
260236
260153
260070
259986
259901
259815
259727
259638
259548
259456
259363
259270
259174
259078
258981
258882
258782
258681
258579
258476
258371
258266
258159
258051
257942
257833
257722
257610
257497
257382
257267
257151
257034
256916
256796
256676
256555
256433
256310
256185
256060
255934
255807
255679
255550
255420
255289
255157
255025
254891
254757
254621
254485
254348
254210
254071
253931
253790
253648
253506
253363
253218
253073
252927
252780
252632
252484
252334
252183
252032
251880
251726
251572
251417
251261
251104
250947
250788
250629
250469
250308
250146
249983
249819
249655
249489
249323
249156
248989
248820
248651
248481
248310
248138
247965
247791
247617
247442
247266
247089
246912
246733
246554
246374
246193
246011
245828
245645
245461
245276
245090
244903
244716
244528
244338
244148
243958
243766
243574
243380
243186
242991
242796
242599
242402
242204
242004
241805
241604
241402
241200
240997
240793
240588
240382
240175
239968
239760
239550
239340
239130
238918
238705
238492
238278
238062
237846
237630
237412
237193
236974
236753
236532
236310
236086
235862
235638
235412
235185
234957
234729
234500
234269
234038
233806
233574
233340
233106
232871
232636
232399
232162
231923
231682
231437
231188
230933
230671
230402
230130
229854
229578
229300
229023
228745
228467
228189
227912
227634
227356
227078
226800
226522
226244
225967
225689
225411
225133
224855
224578
224300
224022
223744
223466
223189
222911
222633
222355
222078
221800
221522
221244
220967
220689
220411
220134
219856
219578
219301
219023
218745
218468
218190
217913
217635
217358
217080
216803
216525
216248
215970
215693
215415
215138
214861
214584
214306
214029
213752
213475
213198
212920
212643
212366
212089
211812
211535
211258
210981
210704
210427
210150
209873
209596
209319
209042
208765
208488
208211
207934
207657
207379
207102
206825
206547
206270
205992
205715
205437
205160
204882
204605
204327
204049
203772
203494
203216
202938
202661
202383
202105
201828
201550
201272
200994
200717
200439
200161
199884
199606
199328
199051
198773
198495
198218
197940
197662
197384
197107
196829
196551
196274
195996
195718
195441
195163
194885
194608
194330
194052
193774
193497
193219
192941
192664
192386
192108
191830
191553
191275
190997
190719
190442
190164
189886
189608
189331
189053
188775
188497
188219
187942
187664
187386
187108
186830
186553
186275
185997
185719
185441
185164
184886
184608
184330
184052
183774
183497
183219
182941
182663
182385
182107
181829
181551
181274
180996
180718
180440
180162
179884
179606
179328
179051
178773
178495
178217
177939
177661
177383
177105
176827
176549
176272
175994
175716
175438
175160
174882
174604
174326
174048
173771
173493
173215
172937
172659
172381
172103
171825
171548
171270
170992
170714
170436
170158
169880
169602
169325
169047
168769
168491
168213
167935
167657
167380
167102
166824
166546
166268
165990
165712
165435
165157
164879
164601
164323
164046
163768
163490
163212
162934
162657
162379
162101
161823
161546
161268
160990
160712
160435
160157
159879
159602
159324
159047
158769
158491
158214
157936
157659
157381
157104
156826
156549
156272
155994
155717
155440
155162
154885
154608
154331
154053
153776
153499
153222
152945
152668
152391
152113
151836
151559
151282
151005
150728
150451
150174
149897
149620
149342
149065
148788
148511
148233
147956
147679
147401
147124
146846
146569
146291
146014
145736
145459
145181
144903
144626
144348
144070
143793
143515
143237
142959
142682
142404
142126
141849
141571
141293
141015
140738
140460
140182
139904
139627
139349
139071
138793
138516
138238
137960
137683
137405
137127
136849
136572
136294
136016
135739
135461
135183
134905
134628
134350
134072
133794
133517
133239
132961
132684
132406
132128
131850
131573
131295
131017
130739
130462
130184
129906
129628
129351
129073
128795
128517
128240
127962
127684
127406
127128
126851
126573
126295
126017
125740
125462
125184
124906
124629
124351
124073
123795
123517
123240
122962
122684
122406
122129
121851
121573
121295
121017
120740
120462
120184
119906
119628
119350
119073
118795
118517
118239
117961
117683
117406
117128
116850
116572
116294
116016
115738
115461
115183
114905
114627
114349
114071
113793
113515
113238
112960
112682
112404
112126
111848
111570
111293
111015
110737
110459
110181
109903
109625
109348
109070
108792
108514
108236
107958
107681
107403
107125
106847
106569
106292
106014
105736
105458
105180
104903
104625
104347
104069
103791
103514
103236
102958
102680
102403
102125
101847
101570
101292
101014
100737
100459
100181
99903.6
99626
99348.4
99070.8
98793.2
98515.6
98238.1
97960.6
97683.1
97405.6
97128.2
96850.8
96573.4
96296
96018.7
95741.3
95464
95186.8
94909.5
94632.3
94355.1
94077.9
93800.7
93523.6
93246.5
92969.3
92692.2
92415.1
92138.1
91861
91583.9
91306.8
91029.7
90752.6
90475.5
90198.4
89921.3
89644.2
89367
89089.8
88812.6
88535.3
88258.1
87980.8
87703.4
87426
87148.6
86871.2
86593.7
86316.2
86038.7
85761.1
85483.6
85205.9
84928.3
84650.7
84373
84095.3
83817.6
83539.9
83262.1
82984.4
82706.7
82428.9
82151.1
81873.4
81595.6
81317.8
81040.1
80762.3
80484.5
80206.8
79929
79651.2
79373.5
79095.7
78817.9
78540.2
78262.4
77984.6
77706.9
77429.1
77151.4
76873.6
76595.9
76318.1
76040.3
75762.6
75484.8
75207.1
74929.3
74651.5
74373.8
74096
73818.2
73540.5
73262.7
72984.9
72707.1
72429.3
72151.5
71873.8
71596
71318.2
71040.4
70762.6
70484.7
70206.9
69929.1
69651.3
69373.5
69095.7
68817.8
68540
68262.2
67984.3
67706.5
67428.7
67150.8
66873
66595.1
66317.3
66039.4
65761.4
65482.8
65200.7
64894.1
64584.2
64274.4
63964.7
63654.9
63345.1
63035.4
62725.6
62415.9
62106.1
61796.4
61486.6
61176.9
60867.1
60557.3
60247.6
59937.8
59628.1
59318.3
59008.6
58698.8
58389
58079.3
57769.5
57459.8
57150
56840.3
56530.5
56220.8
55911
55601.2
55291.5
54981.7
54672
54362.2
54052.5
53742.7
53432.9
53123.2
52813.4
52503.7
52193.9
51884.2
51574.4
51264.7
50954.9
50645.1
50335.4
50025.6
49715.9
49406.1
49096.4
48786.6
48476.9
48167.1
47857.3
47547.6
47237.8
46928.1
46618.3
46308.6
45998.8
45689
45379.3
45069.5
44759.8
44450
44140.3
43830.5
43520.8
43211
42901.2
42591.5
42281.7
41972
41662.2
41352.5
41042.7
40732.9
40423.2
40113.4
39803.7
39493.9
39184.2
38874.4
38564.7
38254.9
37945.1
37635.4
37325.6
37015.9
36706.1
36396.4
36086.6
35776.8
35467.1
35157.3
34847.6
34537.8
34228.1
33918.3
33608.6
33298.8
32989
32679.3
32369.5
32059.8
31750
31440.3
31130.5
30820.7
30511
30201.2
29891.5
29581.7
29272
28962.2
28652.5
28342.7
28032.9
27723.2
27413.4
27103.7
26793.9
26484.2
26174.4
25864.6
25554.9
25245.1
24935.4
24625.6
24315.9
24006.1
23696.4
23386.6
23076.8
22767.1
22457.3
22147.6
21837.8
21528.1
21218.3
20908.5
20598.8
20289
19979.3
19669.5
19359.8
19050
18740.3
18430.5
18120.7
17811
17501.2
17191.5
16881.7
16572
16262.2
15952.4
15642.7
15332.9
15023.2
14713.4
14403.7
14093.9
13784.2
13474.4
13164.6
12854.9
12545.1
12235.4
11925.6
11615.9
11306.1
10996.3
10686.6
10376.8
10067.1
9757.32
9447.57
9137.81
8828.05
8518.3
8208.54
7898.78
7589.03
7279.27
6969.52
6659.76
6350
6040.25
5730.49
5420.73
5110.98
4801.22
4491.47
4181.71
3871.95
3562.2
3252.44
2942.68
2632.93
2323.17
2013.42
1703.66
1393.9
1084.15
774.391
464.634
154.878
)
;

boundaryField
{
    inlet
    {
        type            darcyGradPressure;
        gradient        uniform 116344;
        Mf              Mf;
        phi             phi;
        value           uniform 263535;
    }
    outlet
    {
        type            fixedValue;
        value           uniform 0;
    }
    emptyWalls
    {
        type            empty;
    }
}


// ************************************************************************* //
