/*--------------------------------*- C++ -*----------------------------------*\
  =========                 |
  \\      /  F ield         | OpenFOAM: The Open Source CFD Toolbox
   \\    /   O peration     | Website:  https://openfoam.org
    \\  /    A nd           | Version:  9
     \\/     M anipulation  |
\*---------------------------------------------------------------------------*/
FoamFile
{
    format      ascii;
    class       volScalarField;
    location    "28850";
    object      krc;
}
// * * * * * * * * * * * * * * * * * * * * * * * * * * * * * * * * * * * * * //

dimensions      [0 0 0 0 0 0 0];

internalField   nonuniform List<scalar> 
1000
(
5.30162e-08
4.79019e-07
1.68451e-06
3.64492e-06
6.35189e-06
9.80592e-06
1.40172e-05
1.89969e-05
2.47598e-05
3.13208e-05
3.86963e-05
4.69e-05
5.59435e-05
6.58347e-05
7.65753e-05
8.81605e-05
0.000100573
0.000113785
0.000127748
0.000142399
0.000157644
0.000173367
0.000189419
0.000205629
0.000221799
0.000237719
0.000253177
0.000267978
0.000281952
0.000294975
0.000306966
0.000317897
0.000327781
0.000336674
0.000344706
0.000352215
0.000360567
0.00037583
0.000425744
0.000635923
0.00218389
0.0195154
0.0387552
0.0436793
0.0455818
0.0466307
0.0473443
0.0478971
0.0483591
0.0487643
0.0491301
0.0494673
0.0497817
0.050078
0.0503585
0.050626
0.0508817
0.0511273
0.0513636
0.0515919
0.0518125
0.0520264
0.0522336
0.0524351
0.0526309
0.0528222
0.0530086
0.0531908
0.0533687
0.0535431
0.0537138
0.0538816
0.0540463
0.0542087
0.0543686
0.0545268
0.0546828
0.0548375
0.0549906
0.0551426
0.0552936
0.0554441
0.055594
0.0557438
0.0558945
0.0560467
0.056199
0.0563518
0.0565051
0.0566588
0.0568134
0.0569688
0.0571253
0.0572831
0.0574425
0.0576036
0.0577669
0.0579326
0.0581012
0.0582731
0.0584488
0.0586291
0.0588148
0.059007
0.0592072
0.0594173
0.0596399
0.059878
0.0601359
0.060418
0.0607294
0.0610742
0.061455
0.0618713
0.0623192
0.0627923
0.0632841
0.0637897
0.0643055
0.064829
0.0653582
0.0658917
0.0664285
0.0669677
0.0675088
0.0680512
0.0685945
0.0691385
0.0696829
0.0702274
0.070772
0.0713164
0.0718607
0.0724045
0.072948
0.073491
0.0740334
0.0745753
0.0751165
0.075657
0.0761969
0.076736
0.0772743
0.0778119
0.0783487
0.0788847
0.0794198
0.079954
0.0804874
0.0810199
0.0815515
0.0820822
0.0826119
0.0831407
0.0836686
0.0841955
0.0847215
0.0852467
0.0857708
0.0862941
0.0868165
0.087338
0.0878585
0.0883782
0.088897
0.089415
0.089932
0.0904483
0.0909637
0.0914782
0.0919919
0.0925047
0.0930167
0.0935278
0.094038
0.0945473
0.0950558
0.0955633
0.0960699
0.0965756
0.0970803
0.0975842
0.0980871
0.0985892
0.0990903
0.0995905
0.10009
0.100588
0.101086
0.101582
0.102078
0.102573
0.103067
0.10356
0.104053
0.104544
0.105035
0.105525
0.106014
0.106502
0.106989
0.107476
0.107961
0.108446
0.10893
0.109414
0.109896
0.110378
0.110858
0.111338
0.111817
0.112296
0.112773
0.11325
0.113726
0.114201
0.114676
0.115149
0.115622
0.116094
0.116566
0.117036
0.117506
0.117975
0.118443
0.118911
0.119377
0.119843
0.120309
0.120773
0.121237
0.1217
0.122162
0.122623
0.123084
0.123544
0.124004
0.124462
0.12492
0.125377
0.125834
0.126289
0.126744
0.127199
0.127652
0.128105
0.128558
0.129009
0.12946
0.12991
0.13036
0.130808
0.131257
0.131704
0.132151
0.132597
0.133042
0.133487
0.133931
0.134375
0.134817
0.13526
0.135701
0.136142
0.136582
0.137022
0.137461
0.137899
0.138337
0.138774
0.13921
0.139646
0.140081
0.140515
0.140949
0.141382
0.141815
0.142246
0.142678
0.143108
0.143538
0.143967
0.144396
0.144824
0.145251
0.145678
0.146104
0.14653
0.146955
0.14738
0.147804
0.148227
0.14865
0.149073
0.149495
0.149917
0.150338
0.150758
0.151179
0.151598
0.152018
0.152436
0.152855
0.153272
0.15369
0.154106
0.154522
0.154938
0.155353
0.155767
0.156181
0.156595
0.157008
0.15742
0.157832
0.158243
0.158653
0.159064
0.159473
0.159882
0.160291
0.160699
0.161106
0.161513
0.16192
0.162326
0.162731
0.163136
0.163541
0.163945
0.164349
0.164752
0.165154
0.165556
0.165958
0.166359
0.16676
0.167161
0.167561
0.16796
0.168359
0.168757
0.169155
0.169553
0.16995
0.170347
0.170743
0.171139
0.171534
0.171929
0.172324
0.172717
0.173111
0.173504
0.173897
0.174289
0.174681
0.175072
0.175463
0.175854
0.176244
0.176634
0.177023
0.177412
0.1778
0.178188
0.178576
0.178963
0.17935
0.179736
0.180122
0.180508
0.180893
0.181278
0.181662
0.182046
0.18243
0.182813
0.183196
0.183578
0.18396
0.184342
0.184723
0.185104
0.185484
0.185864
0.186244
0.186623
0.187002
0.187381
0.187759
0.188137
0.188514
0.188891
0.189268
0.189644
0.19002
0.190396
0.190771
0.191146
0.191521
0.191895
0.192269
0.192642
0.193015
0.193388
0.19376
0.194132
0.194504
0.194875
0.195246
0.195616
0.195986
0.196356
0.196725
0.197094
0.197463
0.197831
0.198199
0.198566
0.198934
0.1993
0.199667
0.200033
0.200399
0.200764
0.201129
0.201494
0.201859
0.202223
0.202587
0.202951
0.203315
0.203678
0.204041
0.204404
0.204767
0.20513
0.205492
0.205854
0.206216
0.206578
0.206939
0.2073
0.207662
0.208022
0.208383
0.208743
0.209103
0.209462
0.209822
0.210181
0.21054
0.210898
0.211256
0.211614
0.211972
0.212329
0.212686
0.213042
0.213399
0.213755
0.214111
0.214466
0.214821
0.215176
0.215531
0.215885
0.216239
0.216593
0.216947
0.2173
0.217653
0.218006
0.218358
0.21871
0.219063
0.219414
0.219766
0.220117
0.220468
0.220819
0.22117
0.22152
0.22187
0.22222
0.22257
0.222919
0.223269
0.223617
0.223966
0.224314
0.224663
0.225011
0.225359
0.225706
0.226054
0.226401
0.226748
0.227094
0.227441
0.227787
0.228133
0.228479
0.228824
0.22917
0.229515
0.22986
0.230205
0.230549
0.230893
0.231237
0.231581
0.231924
0.232268
0.232611
0.232954
0.233297
0.23364
0.233982
0.234324
0.234666
0.235008
0.235349
0.235691
0.236032
0.236373
0.236714
0.237055
0.237395
0.237735
0.238075
0.238415
0.238754
0.239094
0.239433
0.239772
0.240111
0.24045
0.240788
0.241127
0.241465
0.241803
0.24214
0.242478
0.242816
0.243153
0.24349
0.243827
0.244164
0.2445
0.244836
0.245173
0.245509
0.245845
0.24618
0.246516
0.246851
0.247186
0.247521
0.247856
0.24819
0.248524
0.248858
0.249192
0.249525
0.249859
0.250192
0.250525
0.250858
0.251191
0.251523
0.251856
0.252188
0.25252
0.252852
0.253184
0.253515
0.253847
0.254178
0.25451
0.254841
0.255172
0.255503
0.255835
0.256165
0.256497
0.256827
0.257159
0.257489
0.25782
0.258151
0.258482
0.258812
0.259143
0.259474
0.259805
0.260135
0.260466
0.260796
0.261126
0.261456
0.261787
0.262116
0.262447
0.262776
0.263106
0.263435
0.263765
0.264094
0.264423
0.264752
0.265081
0.26541
0.265739
0.266067
0.266395
0.266723
0.267052
0.267379
0.267707
0.268035
0.268363
0.26869
0.269018
0.269345
0.269672
0.269999
0.270326
0.270653
0.27098
0.271306
0.271633
0.271959
0.272286
0.272612
0.272939
0.273265
0.273592
0.273917
0.274244
0.274569
0.274895
0.275221
0.275547
0.275872
0.276198
0.276523
0.276849
0.277174
0.2775
0.277825
0.27815
0.278475
0.2788
0.279125
0.27945
0.279774
0.2801
0.280424
0.280749
0.281073
0.281398
0.281722
0.282047
0.282371
0.282695
0.283019
0.283344
0.283667
0.283992
0.284315
0.28464
0.284963
0.285287
0.285611
0.285935
0.286258
0.286582
0.286905
0.287229
0.287552
0.287876
0.288199
0.288523
0.288846
0.28917
0.289492
0.289816
0.290139
0.290462
0.290785
0.291108
0.291431
0.291754
0.292077
0.2924
0.292723
0.293046
0.293368
0.293692
0.294014
0.294337
0.29466
0.294983
0.295305
0.295628
0.29595
0.296274
0.296595
0.296919
0.297241
0.297564
0.297885
0.298208
0.29853
0.298853
0.299175
0.299498
0.299819
0.300142
0.300464
0.300786
0.301108
0.30143
0.301752
0.302074
0.302395
0.302718
0.303039
0.303361
0.303683
0.304005
0.304326
0.304649
0.30497
0.305292
0.305613
0.305936
0.306257
0.30658
0.306901
0.307224
0.307545
0.307868
0.30819
0.308513
0.308835
0.309158
0.30948
0.309804
0.310126
0.31045
0.310773
0.311097
0.31142
0.311744
0.312067
0.312392
0.312715
0.31304
0.313364
0.313689
0.314012
0.314338
0.314662
0.314987
0.315311
0.315637
0.315961
0.316287
0.316611
0.316937
0.317262
0.317588
0.317912
0.318238
0.318563
0.318889
0.319213
0.31954
0.319864
0.320191
0.320515
0.320842
0.321167
0.321493
0.321818
0.322145
0.32247
0.322797
0.323122
0.323449
0.323774
0.324101
0.324427
0.324754
0.32508
0.325407
0.325733
0.326061
0.326387
0.326715
0.327041
0.327369
0.327695
0.328024
0.32835
0.328679
0.329005
0.329334
0.329661
0.32999
0.330317
0.330646
0.330974
0.331303
0.331631
0.331961
0.332289
0.332618
0.332947
0.333277
0.333605
0.333935
0.334264
0.334595
0.334924
0.335254
0.335584
0.335915
0.336245
0.336575
0.336906
0.337237
0.337568
0.337899
0.33823
0.338561
0.338893
0.339224
0.339556
0.339888
0.34022
0.340552
0.340885
0.341216
0.341551
0.341881
0.342217
0.342547
0.342884
0.343213
0.343552
0.34388
0.34422
0.344548
0.344889
0.345217
0.345558
0.345887
0.346228
0.346557
0.346898
0.347228
0.34757
0.3479
0.348242
0.348572
0.348915
0.349246
0.349589
0.34992
0.350263
0.350595
0.350939
0.35127
0.351616
0.351945
0.352294
0.352621
0.352975
0.353296
0.353657
0.35397
0.354342
0.354644
0.355028
0.355318
0.355715
0.355993
0.356404
0.356668
0.357094
0.357343
0.357785
0.35802
0.358476
0.358697
0.359168
0.359376
0.35986
0.360057
0.360553
0.360739
0.361245
0.361424
0.361938
0.362111
0.362631
0.362799
0.363325
0.363489
0.36402
0.364181
0.364715
0.364875
0.365411
0.365571
0.366108
0.36627
0.366806
0.36697
0.367506
0.367671
0.368208
0.368374
0.368912
0.369079
0.369618
0.369787
0.370324
0.370495
0.371033
0.371206
0.371745
0.371917
0.372457
0.372631
0.373172
0.373347
0.373887
0.374065
0.374604
0.374784
0.375323
0.375506
0.376043
0.376228
0.376766
0.376952
0.377489
0.377678
0.378214
0.378405
0.378941
0.379134
0.37967
0.379864
0.380401
0.380596
0.381134
0.381329
0.381868
0.382064
0.382604
0.382802
0.38334
0.383542
0.384079
0.384283
0.38482
0.385026
0.385563
0.385771
0.386308
0.386518
0.387055
0.387267
0.387805
0.388018
0.388556
0.388772
0.38931
0.389526
0.390067
0.390283
0.390826
0.391042
0.391585
0.391806
0.392347
0.392571
0.393112
0.393337
0.39388
0.394107
0.394649
0.394885
0.203458
)
;

boundaryField
{
    inlet
    {
        type            calculated;
        value           uniform 3.08149e-33;
    }
    outlet
    {
        type            calculated;
        value           uniform 0.203458;
    }
    emptyWalls
    {
        type            empty;
    }
}


// ************************************************************************* //
