/*--------------------------------*- C++ -*----------------------------------*\
  =========                 |
  \\      /  F ield         | OpenFOAM: The Open Source CFD Toolbox
   \\    /   O peration     | Website:  https://openfoam.org
    \\  /    A nd           | Version:  9
     \\/     M anipulation  |
\*---------------------------------------------------------------------------*/
FoamFile
{
    format      ascii;
    class       surfaceScalarField;
    location    "28850";
    object      phic;
}
// * * * * * * * * * * * * * * * * * * * * * * * * * * * * * * * * * * * * * //

dimensions      [0 2 0 0 0 0 0];

internalField   nonuniform List<scalar> 
999
(
6.15073e-16
2.50156e-15
6.13871e-15
1.14702e-14
1.84677e-14
2.71232e-14
3.744e-14
4.94276e-14
6.30975e-14
7.84621e-14
9.55346e-14
1.14315e-13
1.34807e-13
1.56989e-13
1.80845e-13
2.06315e-13
2.33343e-13
2.61819e-13
2.91602e-13
3.22533e-13
3.54346e-13
3.86804e-13
4.19541e-13
4.52206e-13
4.8439e-13
5.15684e-13
5.45703e-13
5.74111e-13
6.00639e-13
6.25121e-13
6.47466e-13
6.67706e-13
6.85887e-13
7.02267e-13
7.17235e-13
7.32504e-13
7.55162e-13
8.17319e-13
1.05014e-12
1.95346e-12
6.85037e-12
1.82448e-11
2.06147e-11
2.13257e-11
2.16658e-11
2.18807e-11
2.20411e-11
2.21731e-11
2.22884e-11
2.23936e-11
2.24922e-11
2.25859e-11
2.26749e-11
2.27586e-11
2.2837e-11
2.29106e-11
2.29809e-11
2.30496e-11
2.31183e-11
2.31879e-11
2.32585e-11
2.33293e-11
2.33997e-11
2.34694e-11
2.35433e-11
2.36181e-11
2.36921e-11
2.37648e-11
2.38358e-11
2.39051e-11
2.39727e-11
2.40389e-11
2.41039e-11
2.41681e-11
2.42319e-11
2.42951e-11
2.43584e-11
2.44221e-11
2.44859e-11
2.45501e-11
2.46151e-11
2.46808e-11
2.47472e-11
2.48144e-11
2.48833e-11
2.49531e-11
2.50239e-11
2.50956e-11
2.51684e-11
2.52421e-11
2.5317e-11
2.53931e-11
2.54705e-11
2.55494e-11
2.56298e-11
2.5712e-11
2.5796e-11
2.58822e-11
2.59708e-11
2.6062e-11
2.61563e-11
2.6254e-11
2.63558e-11
2.64624e-11
2.65747e-11
2.66942e-11
2.68225e-11
2.69619e-11
2.71148e-11
2.72844e-11
2.74735e-11
2.76843e-11
2.79176e-11
2.81722e-11
2.84448e-11
2.87315e-11
2.90288e-11
2.93343e-11
2.96462e-11
2.99632e-11
3.02844e-11
3.06091e-11
3.09367e-11
3.12668e-11
3.15992e-11
3.19335e-11
3.22695e-11
3.26071e-11
3.2946e-11
3.32862e-11
3.36276e-11
3.397e-11
3.43134e-11
3.46577e-11
3.50029e-11
3.5349e-11
3.56959e-11
3.60437e-11
3.63924e-11
3.6742e-11
3.70925e-11
3.74437e-11
3.77957e-11
3.81485e-11
3.85019e-11
3.88559e-11
3.92103e-11
3.95649e-11
3.99196e-11
4.02741e-11
4.06284e-11
4.09824e-11
4.13361e-11
4.16897e-11
4.20433e-11
4.2397e-11
4.27509e-11
4.31052e-11
4.346e-11
4.38154e-11
4.41716e-11
4.45287e-11
4.48869e-11
4.52464e-11
4.56073e-11
4.59699e-11
4.63343e-11
4.67006e-11
4.70687e-11
4.74386e-11
4.78102e-11
4.81832e-11
4.85576e-11
4.89329e-11
4.9309e-11
4.96856e-11
5.00626e-11
5.04396e-11
5.08166e-11
5.11934e-11
5.15701e-11
5.19464e-11
5.23226e-11
5.26985e-11
5.30743e-11
5.345e-11
5.38257e-11
5.42015e-11
5.45774e-11
5.49536e-11
5.53301e-11
5.57069e-11
5.60842e-11
5.64619e-11
5.68401e-11
5.72187e-11
5.75979e-11
5.79776e-11
5.83577e-11
5.87384e-11
5.91195e-11
5.95011e-11
5.98832e-11
6.02657e-11
6.06486e-11
6.10319e-11
6.14156e-11
6.17997e-11
6.21842e-11
6.25691e-11
6.29543e-11
6.33398e-11
6.37257e-11
6.4112e-11
6.44985e-11
6.48854e-11
6.52726e-11
6.56601e-11
6.6048e-11
6.64361e-11
6.68245e-11
6.72133e-11
6.76023e-11
6.79917e-11
6.83813e-11
6.87713e-11
6.91615e-11
6.95521e-11
6.99429e-11
7.0334e-11
7.07254e-11
7.11171e-11
7.1509e-11
7.19012e-11
7.22937e-11
7.26864e-11
7.30793e-11
7.34725e-11
7.3866e-11
7.42597e-11
7.46538e-11
7.5048e-11
7.54426e-11
7.58374e-11
7.62325e-11
7.66279e-11
7.70235e-11
7.74194e-11
7.78156e-11
7.82119e-11
7.86086e-11
7.90054e-11
7.94025e-11
7.97997e-11
8.01973e-11
8.0595e-11
8.0993e-11
8.13913e-11
8.17899e-11
8.21889e-11
8.25881e-11
8.29877e-11
8.33877e-11
8.3788e-11
8.41885e-11
8.45893e-11
8.49903e-11
8.53913e-11
8.57923e-11
8.61933e-11
8.65939e-11
8.69943e-11
8.73942e-11
8.77938e-11
8.81927e-11
8.85912e-11
8.89891e-11
8.93865e-11
8.97834e-11
9.01799e-11
9.0576e-11
9.09719e-11
9.13677e-11
9.17636e-11
9.21597e-11
9.25562e-11
9.29533e-11
9.33511e-11
9.375e-11
9.415e-11
9.45513e-11
9.49542e-11
9.53587e-11
9.5765e-11
9.6173e-11
9.65829e-11
9.69946e-11
9.7408e-11
9.78229e-11
9.82394e-11
9.86571e-11
9.90759e-11
9.94956e-11
9.99159e-11
1.00337e-10
1.00758e-10
1.01179e-10
1.016e-10
1.02021e-10
1.02441e-10
1.02862e-10
1.03281e-10
1.03701e-10
1.0412e-10
1.04539e-10
1.04957e-10
1.05375e-10
1.05793e-10
1.0621e-10
1.06628e-10
1.07045e-10
1.07463e-10
1.07881e-10
1.08299e-10
1.08717e-10
1.09135e-10
1.09553e-10
1.09972e-10
1.10392e-10
1.10811e-10
1.11231e-10
1.11651e-10
1.12072e-10
1.12493e-10
1.12914e-10
1.13335e-10
1.13757e-10
1.1418e-10
1.14602e-10
1.15025e-10
1.15448e-10
1.15871e-10
1.16295e-10
1.16719e-10
1.17143e-10
1.17568e-10
1.17992e-10
1.18417e-10
1.18842e-10
1.19267e-10
1.19693e-10
1.20119e-10
1.20545e-10
1.20971e-10
1.21397e-10
1.21824e-10
1.22251e-10
1.22677e-10
1.23105e-10
1.23532e-10
1.2396e-10
1.24387e-10
1.24815e-10
1.25243e-10
1.25671e-10
1.261e-10
1.26529e-10
1.26957e-10
1.27386e-10
1.27815e-10
1.28245e-10
1.28674e-10
1.29104e-10
1.29534e-10
1.29964e-10
1.30394e-10
1.30824e-10
1.31255e-10
1.31686e-10
1.32117e-10
1.32548e-10
1.32979e-10
1.33411e-10
1.33842e-10
1.34274e-10
1.34706e-10
1.35139e-10
1.35571e-10
1.36003e-10
1.36436e-10
1.36869e-10
1.37302e-10
1.37736e-10
1.38169e-10
1.38603e-10
1.39037e-10
1.39472e-10
1.39906e-10
1.40341e-10
1.40776e-10
1.41211e-10
1.41646e-10
1.42082e-10
1.42517e-10
1.42952e-10
1.43387e-10
1.43822e-10
1.44256e-10
1.44691e-10
1.45124e-10
1.45558e-10
1.4599e-10
1.46423e-10
1.46854e-10
1.47285e-10
1.47716e-10
1.48146e-10
1.48576e-10
1.49005e-10
1.49434e-10
1.49863e-10
1.50292e-10
1.5072e-10
1.5115e-10
1.51579e-10
1.52009e-10
1.5244e-10
1.52871e-10
1.53304e-10
1.53737e-10
1.54172e-10
1.54609e-10
1.55047e-10
1.55487e-10
1.55929e-10
1.56372e-10
1.56818e-10
1.57265e-10
1.57713e-10
1.58164e-10
1.58616e-10
1.59069e-10
1.59524e-10
1.5998e-10
1.60437e-10
1.60895e-10
1.61353e-10
1.61811e-10
1.6227e-10
1.62729e-10
1.63189e-10
1.63648e-10
1.64106e-10
1.64565e-10
1.65023e-10
1.65481e-10
1.65939e-10
1.66396e-10
1.66853e-10
1.6731e-10
1.67766e-10
1.68223e-10
1.68679e-10
1.69134e-10
1.6959e-10
1.70046e-10
1.70502e-10
1.70958e-10
1.71414e-10
1.7187e-10
1.72326e-10
1.72783e-10
1.7324e-10
1.73697e-10
1.74155e-10
1.74612e-10
1.75071e-10
1.75529e-10
1.75988e-10
1.76447e-10
1.76906e-10
1.77366e-10
1.77826e-10
1.78287e-10
1.78747e-10
1.79209e-10
1.7967e-10
1.80132e-10
1.80593e-10
1.81056e-10
1.81518e-10
1.81981e-10
1.82444e-10
1.82907e-10
1.83371e-10
1.83834e-10
1.84298e-10
1.84763e-10
1.85227e-10
1.85692e-10
1.86156e-10
1.86621e-10
1.87087e-10
1.87552e-10
1.88018e-10
1.88484e-10
1.8895e-10
1.89416e-10
1.89882e-10
1.90349e-10
1.90816e-10
1.91283e-10
1.9175e-10
1.92217e-10
1.92685e-10
1.93152e-10
1.9362e-10
1.94089e-10
1.94557e-10
1.95025e-10
1.95494e-10
1.95963e-10
1.96432e-10
1.96901e-10
1.97371e-10
1.9784e-10
1.9831e-10
1.9878e-10
1.99251e-10
1.99721e-10
2.00192e-10
2.00663e-10
2.01134e-10
2.01605e-10
2.02077e-10
2.02548e-10
2.0302e-10
2.03492e-10
2.03965e-10
2.04437e-10
2.0491e-10
2.05384e-10
2.05857e-10
2.06331e-10
2.06804e-10
2.07278e-10
2.07753e-10
2.08227e-10
2.08701e-10
2.09176e-10
2.0965e-10
2.10125e-10
2.10599e-10
2.11074e-10
2.11548e-10
2.12022e-10
2.12496e-10
2.12969e-10
2.13442e-10
2.13915e-10
2.14387e-10
2.14859e-10
2.1533e-10
2.15801e-10
2.16272e-10
2.16742e-10
2.17212e-10
2.17681e-10
2.1815e-10
2.18619e-10
2.19088e-10
2.19556e-10
2.20025e-10
2.20494e-10
2.20963e-10
2.21433e-10
2.21904e-10
2.22375e-10
2.22847e-10
2.2332e-10
2.23794e-10
2.2427e-10
2.24747e-10
2.25225e-10
2.25706e-10
2.26188e-10
2.26671e-10
2.27157e-10
2.27644e-10
2.28133e-10
2.28624e-10
2.29117e-10
2.29612e-10
2.30108e-10
2.30606e-10
2.31105e-10
2.31606e-10
2.32108e-10
2.32611e-10
2.33114e-10
2.33619e-10
2.34124e-10
2.3463e-10
2.35136e-10
2.35642e-10
2.36148e-10
2.36655e-10
2.37161e-10
2.37668e-10
2.38174e-10
2.3868e-10
2.39186e-10
2.39692e-10
2.40197e-10
2.40702e-10
2.41207e-10
2.41712e-10
2.42217e-10
2.42722e-10
2.43227e-10
2.43732e-10
2.44237e-10
2.44741e-10
2.45246e-10
2.45752e-10
2.46257e-10
2.46763e-10
2.47268e-10
2.47775e-10
2.48281e-10
2.48788e-10
2.49295e-10
2.49803e-10
2.5031e-10
2.50819e-10
2.51327e-10
2.51836e-10
2.52346e-10
2.52856e-10
2.53366e-10
2.53877e-10
2.54388e-10
2.54899e-10
2.55411e-10
2.55923e-10
2.56436e-10
2.56949e-10
2.57462e-10
2.57976e-10
2.5849e-10
2.59004e-10
2.59519e-10
2.60034e-10
2.60549e-10
2.61065e-10
2.61581e-10
2.62097e-10
2.62614e-10
2.63131e-10
2.63648e-10
2.64165e-10
2.64683e-10
2.65201e-10
2.6572e-10
2.66238e-10
2.66757e-10
2.67276e-10
2.67796e-10
2.68316e-10
2.68836e-10
2.69356e-10
2.69877e-10
2.70398e-10
2.70919e-10
2.7144e-10
2.71962e-10
2.72484e-10
2.73007e-10
2.73529e-10
2.74052e-10
2.74575e-10
2.75099e-10
2.75623e-10
2.76147e-10
2.76671e-10
2.77196e-10
2.77721e-10
2.78247e-10
2.78772e-10
2.79298e-10
2.79825e-10
2.80351e-10
2.80878e-10
2.81406e-10
2.81934e-10
2.82462e-10
2.8299e-10
2.83519e-10
2.84048e-10
2.84577e-10
2.85107e-10
2.85637e-10
2.86167e-10
2.86698e-10
2.87229e-10
2.8776e-10
2.88291e-10
2.88823e-10
2.89354e-10
2.89886e-10
2.90418e-10
2.9095e-10
2.91482e-10
2.92014e-10
2.92546e-10
2.93077e-10
2.93609e-10
2.9414e-10
2.94671e-10
2.95202e-10
2.95733e-10
2.96264e-10
2.96794e-10
2.97324e-10
2.97853e-10
2.98383e-10
2.98912e-10
2.99441e-10
2.9997e-10
3.00499e-10
3.01028e-10
3.01557e-10
3.02086e-10
3.02615e-10
3.03145e-10
3.03675e-10
3.04206e-10
3.04737e-10
3.05269e-10
3.05802e-10
3.06336e-10
3.06872e-10
3.07408e-10
3.07947e-10
3.08486e-10
3.09027e-10
3.0957e-10
3.10115e-10
3.10662e-10
3.1121e-10
3.11761e-10
3.12313e-10
3.12868e-10
3.13424e-10
3.13983e-10
3.14543e-10
3.15106e-10
3.1567e-10
3.16236e-10
3.16804e-10
3.17373e-10
3.17944e-10
3.18516e-10
3.19089e-10
3.19664e-10
3.20239e-10
3.20816e-10
3.21393e-10
3.2197e-10
3.22549e-10
3.23128e-10
3.23707e-10
3.24286e-10
3.24866e-10
3.25446e-10
3.26026e-10
3.26606e-10
3.27187e-10
3.27767e-10
3.28347e-10
3.28928e-10
3.29508e-10
3.30089e-10
3.3067e-10
3.31251e-10
3.31832e-10
3.32413e-10
3.32995e-10
3.33576e-10
3.34158e-10
3.34741e-10
3.35323e-10
3.35907e-10
3.3649e-10
3.37074e-10
3.37659e-10
3.38243e-10
3.38829e-10
3.39415e-10
3.40002e-10
3.40589e-10
3.41177e-10
3.41765e-10
3.42354e-10
3.42944e-10
3.43534e-10
3.44125e-10
3.44716e-10
3.45308e-10
3.45901e-10
3.46494e-10
3.47088e-10
3.47683e-10
3.48278e-10
3.48874e-10
3.4947e-10
3.50067e-10
3.50665e-10
3.51263e-10
3.51862e-10
3.52462e-10
3.53062e-10
3.53662e-10
3.54264e-10
3.54865e-10
3.55468e-10
3.56071e-10
3.56674e-10
3.57278e-10
3.57883e-10
3.58488e-10
3.59094e-10
3.597e-10
3.60307e-10
3.60915e-10
3.61523e-10
3.62132e-10
3.62741e-10
3.63351e-10
3.63961e-10
3.64572e-10
3.65183e-10
3.65796e-10
3.66408e-10
3.67022e-10
3.67635e-10
3.6825e-10
3.68864e-10
3.69481e-10
3.70096e-10
3.70714e-10
3.71331e-10
3.71949e-10
3.72567e-10
3.73187e-10
3.73807e-10
3.74427e-10
3.75049e-10
3.7567e-10
3.76293e-10
3.76916e-10
3.7754e-10
3.78165e-10
3.7879e-10
3.79416e-10
3.80042e-10
3.80669e-10
3.81297e-10
3.81925e-10
3.82555e-10
3.83184e-10
3.83815e-10
3.84445e-10
3.85077e-10
3.85709e-10
3.86341e-10
3.86975e-10
3.87608e-10
3.88243e-10
3.88876e-10
3.89513e-10
3.90145e-10
3.90785e-10
3.91416e-10
3.92058e-10
3.92689e-10
3.93331e-10
3.93963e-10
3.94606e-10
3.95237e-10
3.95881e-10
3.96512e-10
3.97157e-10
3.97788e-10
3.98433e-10
3.99065e-10
3.9971e-10
4.00343e-10
4.00988e-10
4.01622e-10
4.02268e-10
4.02903e-10
4.0355e-10
4.04187e-10
4.04833e-10
4.05473e-10
4.0612e-10
4.06763e-10
4.07412e-10
4.08056e-10
4.08707e-10
4.09355e-10
4.10008e-10
4.10659e-10
4.11315e-10
4.1197e-10
4.12629e-10
4.13289e-10
4.13951e-10
4.14616e-10
4.15282e-10
4.15952e-10
4.16623e-10
4.17297e-10
4.17973e-10
4.18653e-10
4.19334e-10
4.20019e-10
4.20706e-10
4.21397e-10
4.22088e-10
4.22784e-10
4.23481e-10
4.24181e-10
4.24883e-10
4.25588e-10
4.26294e-10
4.27003e-10
4.27713e-10
4.28426e-10
4.29139e-10
4.29856e-10
4.30571e-10
4.31291e-10
4.3201e-10
4.32732e-10
4.33453e-10
4.34177e-10
4.34901e-10
4.35627e-10
4.36353e-10
4.37081e-10
4.37808e-10
4.38538e-10
4.39267e-10
4.39998e-10
4.40729e-10
4.41462e-10
4.42195e-10
4.42929e-10
4.43664e-10
4.44399e-10
4.45136e-10
4.45874e-10
4.46612e-10
4.47352e-10
4.48091e-10
4.48834e-10
4.49576e-10
4.50321e-10
4.51065e-10
4.51812e-10
4.52559e-10
4.53308e-10
4.54058e-10
4.5481e-10
4.55562e-10
4.56317e-10
4.57072e-10
4.57829e-10
4.58587e-10
4.59347e-10
4.60108e-10
4.60871e-10
4.61636e-10
4.62401e-10
4.63168e-10
4.63938e-10
4.64707e-10
4.6548e-10
4.66252e-10
4.67028e-10
4.67804e-10
4.68582e-10
4.69361e-10
4.70143e-10
4.70926e-10
4.71711e-10
4.72496e-10
)
;

boundaryField
{
    inlet
    {
        type            calculated;
        value           uniform 0;
    }
    outlet
    {
        type            calculated;
        value           uniform 5.30286e-10;
    }
    emptyWalls
    {
        type            empty;
        value           nonuniform List<scalar> 0();
    }
}


// ************************************************************************* //
