/*--------------------------------*- C++ -*----------------------------------*\
  =========                 |
  \\      /  F ield         | OpenFOAM: The Open Source CFD Toolbox
   \\    /   O peration     | Website:  https://openfoam.org
    \\  /    A nd           | Version:  9
     \\/     M anipulation  |
\*---------------------------------------------------------------------------*/
FoamFile
{
    format      ascii;
    class       volScalarField;
    location    "26000";
    object      krc;
}
// * * * * * * * * * * * * * * * * * * * * * * * * * * * * * * * * * * * * * //

dimensions      [0 0 0 0 0 0 0];

internalField   nonuniform List<scalar> 
100
(
6.29356e-22
5.42882e-25
9.02389e-26
4.11665e-26
1.00714e-25
6.79512e-26
3.68274e-26
1.60897e-25
1.44826e-24
1.9684e-24
2.7797e-24
2.2801e-25
2.09482e-24
6.17028e-24
9.39308e-25
4.54304e-24
8.40636e-24
9.58886e-25
1.69489e-23
4.77255e-23
5.08367e-23
5.41489e-23
2.60045e-23
1.37339e-23
6.6942e-24
8.85793e-24
3.86723e-23
1.16679e-22
9.59817e-23
1.21201e-22
6.87952e-23
4.38548e-23
2.7984e-23
1.9335e-23
1.19117e-23
4.0106e-23
1.19886e-22
3.37386e-22
5.65385e-22
8.16935e-22
9.45808e-22
9.60344e-22
8.58132e-22
5.83724e-22
4.14832e-22
3.04321e-22
1.48855e-22
1.56135e-22
1.87146e-23
1.22581e-22
6.54199e-22
1.21221e-21
1.44704e-21
1.59806e-21
1.55733e-21
1.39765e-21
1.55235e-21
1.59024e-21
1.54609e-21
1.49934e-21
1.39723e-21
1.19323e-21
1.04282e-21
7.3398e-22
6.0702e-22
5.29799e-22
4.30432e-22
4.56014e-22
3.88544e-22
3.79074e-22
3.11464e-22
2.43691e-22
2.0225e-22
1.42975e-22
1.08887e-22
7.15412e-23
5.77515e-23
3.75133e-23
1.96518e-23
4.22615e-24
1.64981e-23
8.64245e-23
1.90897e-22
2.79827e-22
2.65796e-22
2.5244e-22
2.07488e-22
1.82229e-22
1.20909e-22
1.08952e-22
8.94337e-23
9.78162e-23
9.34376e-23
1.1217e-22
9.49095e-23
3.79652e-21
1.09789e-21
1.08974e-19
2.03083e-18
5.56501e-18
)
;

boundaryField
{
    inlet
    {
        type            calculated;
        value           uniform 6.29356e-22;
    }
    outlet
    {
        type            calculated;
        value           uniform 5.56501e-18;
    }
    emptyWalls
    {
        type            empty;
    }
}


// ************************************************************************* //
