/*--------------------------------*- C++ -*----------------------------------*\
  =========                 |
  \\      /  F ield         | OpenFOAM: The Open Source CFD Toolbox
   \\    /   O peration     | Website:  https://openfoam.org
    \\  /    A nd           | Version:  9
     \\/     M anipulation  |
\*---------------------------------------------------------------------------*/
FoamFile
{
    format      ascii;
    class       volScalarField;
    location    "1900";
    object      Fa;
}
// * * * * * * * * * * * * * * * * * * * * * * * * * * * * * * * * * * * * * //

dimensions      [0 0 0 0 0 0 0];

internalField   nonuniform List<scalar> 
1000
(
0.196473
0.192028
0.162435
0.149783
0.1469
0.145711
0.144942
0.144868
0.144775
0.144672
0.144562
0.144446
0.144325
0.1442
0.144069
0.143932
0.143789
0.143641
0.143487
0.143327
0.143161
0.142988
0.14281
0.142626
0.142439
0.142249
0.14206
0.141872
0.141687
0.141504
0.141326
0.141153
0.140983
0.140819
0.140658
0.140503
0.140349
0.140204
0.140053
0.139916
0.139766
0.139632
0.139483
0.139344
0.1392
0.139051
0.138918
0.138758
0.138633
0.138474
0.138345
0.138202
0.138064
0.137942
0.137811
0.137702
0.137601
0.13751
0.137444
0.137388
0.137351
0.137337
0.137335
0.137351
0.137384
0.137429
0.137484
0.137553
0.137624
0.137695
0.137753
0.13778
0.13774
0.13759
0.137292
0.136857
0.136386
0.13603
0.135829
0.135724
0.135636
0.135524
0.135362
0.135141
0.134852
0.134495
0.134076
0.133599
0.133073
0.132509
0.131921
0.13133
0.130748
0.130191
0.129669
0.129197
0.128782
0.128435
0.128159
0.12796
0.127831
0.127769
0.127752
0.127755
0.127769
0.127871
0.128026
0.128197
0.128381
0.128573
0.128768
0.128963
0.129152
0.129333
0.129503
0.12966
0.129802
0.129928
0.130039
0.130133
0.130213
0.130277
0.130328
0.130367
0.130395
0.130413
0.130424
0.130429
0.13043
0.130429
0.130426
0.130415
0.130402
0.130388
0.130375
0.130362
0.130349
0.130337
0.130326
0.130317
0.130309
0.130302
0.130297
0.130294
0.130291
0.13029
0.130289
0.130289
0.130289
0.13029
0.130291
0.130292
0.130292
0.130292
0.130292
0.130291
0.130288
0.130283
0.130277
0.130269
0.13026
0.13025
0.130238
0.130224
0.13021
0.130194
0.130177
0.130159
0.130139
0.130119
0.130097
0.130075
0.130051
0.130027
0.130002
0.129975
0.129948
0.12992
0.129891
0.129862
0.129832
0.129801
0.12977
0.129739
0.129708
0.129676
0.129645
0.129614
0.129584
0.129554
0.129526
0.129498
0.129473
0.129449
0.129427
0.129408
0.129391
0.129378
0.129368
0.129363
0.129361
0.129361
0.129361
0.129365
0.129381
0.129399
0.129426
0.129455
0.129492
0.129531
0.129578
0.129627
0.129685
0.129744
0.129811
0.12988
0.129957
0.130035
0.130121
0.130208
0.130302
0.130397
0.130498
0.130599
0.130706
0.130813
0.130925
0.131035
0.131151
0.131264
0.131381
0.131495
0.131612
0.131726
0.131842
0.131955
0.13207
0.132181
0.132293
0.132401
0.132511
0.132618
0.132726
0.132831
0.132938
0.133044
0.133153
0.133261
0.133373
0.133486
0.133605
0.133726
0.133855
0.133988
0.134131
0.134279
0.134438
0.134605
0.134784
0.134972
0.135174
0.135384
0.135608
0.13584
0.136086
0.136338
0.136602
0.13687
0.137146
0.137422
0.137699
0.137969
0.138232
0.138478
0.138704
0.138897
0.13905
0.139147
0.139189
0.139193
0.139186
0.139155
0.138928
0.138553
0.13805
0.137428
0.136688
0.135849
0.134929
0.133958
0.132962
0.131977
0.131027
0.130143
0.129338
0.128631
0.128024
0.127524
0.127124
0.126824
0.12661
0.12648
0.126417
0.126406
0.126406
0.126438
0.12655
0.126726
0.126891
0.127145
0.127313
0.12752
0.127745
0.128009
0.128108
0.128338
0.1286
0.128745
0.12865
0.128165
0.124969
0.0583092
0.00098213
3.88174e-08
9.23451e-18
1.45573e-38
2.27708e-82
3.8429e-176
0
0
0
0
0
0
0
0
0
0
0
0
0
0
0
0
0
0
0
0
0
0
0
0
0
0
0
0
0
0
0
0
0
0
0
0
0
0
0
0
0
0
0
0
0
0
0
0
0
0
0
0
0
0
0
0
0
0
0
0
0
0
0
0
0
0
0
0
0
0
0
0
0
0
0
0
0
0
0
0
0
0
0
0
0
0
0
0
0
0
0
0
0
0
0
0
0
0
0
0
0
0
0
0
0
0
0
0
0
0
0
0
0
0
0
0
0
0
0
0
0
0
0
0
0
0
0
0
0
0
0
0
0
0
0
0
0
0
0
0
0
0
0
0
0
0
0
0
0
0
0
0
0
0
0
0
0
0
0
0
0
0
0
0
0
0
0
0
0
0
0
0
0
0
0
0
0
0
0
0
0
0
0
0
0
0
0
0
0
0
0
0
0
0
0
0
0
0
0
0
0
0
0
0
0
0
0
0
0
0
0
0
0
0
0
0
0
0
0
0
0
0
0
0
0
0
0
0
0
0
0
0
0
0
0
0
0
0
0
0
0
0
0
0
0
0
0
0
0
0
0
0
0
0
0
0
0
0
0
0
0
0
0
0
0
0
0
0
0
0
0
0
0
0
0
0
0
0
0
0
0
0
0
0
0
0
0
0
0
0
0
0
0
0
0
0
0
0
0
0
0
0
0
0
0
0
0
0
0
0
0
0
0
0
0
0
0
0
0
0
0
0
0
0
0
0
0
0
0
0
0
0
0
0
0
0
0
0
0
0
0
0
0
0
0
0
0
0
0
0
0
0
0
0
0
0
0
0
0
0
0
0
0
0
0
0
0
0
0
0
0
0
0
0
0
0
0
0
0
0
0
0
0
0
0
0
0
0
0
0
0
0
0
0
0
0
0
0
0
0
0
0
0
0
0
0
0
0
0
0
0
0
0
0
0
0
0
0
0
0
0
0
0
0
0
0
0
0
0
0
0
0
0
0
0
0
0
0
0
0
0
0
0
0
0
0
0
0
0
0
0
0
0
0
0
0
0
0
0
0
0
0
0
0
0
0
0
0
0
0
0
0
0
0
0
0
0
0
0
0
0
0
0
0
0
0
0
0
0
0
0
0
0
0
0
0
0
0
0
0
0
0
0
0
0
0
0
0
0
0
0
0
0
0
0
0
0
0
0
0
0
0
0
0
0
0
0
0
0
0
0
0
0
0
0
0
0
0
0
0
0
0
0
0
0
0
0
0
0
0
0
0
0
0
0
0
0
0
0
0
0
0
0
0
0
0
0
0
0
0
0
0
0
0
0
0
0
0
0
0
0
0
0
0
0
0
0
0
0
0
0
0
0
0
0
0
0
0
0
0
0
0
0
0
0
0
0
0
0
0
0
0
0
0
0
0
0
0
0
0
0
0
0
0
0
0
0
0
0
0
0
0
0
0
0
0
0
0
0
0
0
0
0
0
0
0
0
0
0
0
0
0
0
0
0
0
0
0
0
0
0
0
0
0
0
0
0
0
0
0
0
0
)
;

boundaryField
{
    inlet
    {
        type            calculated;
        value           uniform 0.194831;
    }
    outlet
    {
        type            calculated;
        value           uniform 0;
    }
    emptyWalls
    {
        type            empty;
    }
}


// ************************************************************************* //
