/*--------------------------------*- C++ -*----------------------------------*\
  =========                 |
  \\      /  F ield         | OpenFOAM: The Open Source CFD Toolbox
   \\    /   O peration     | Website:  https://openfoam.org
    \\  /    A nd           | Version:  9
     \\/     M anipulation  |
\*---------------------------------------------------------------------------*/
FoamFile
{
    format      ascii;
    class       volVectorField;
    location    "1900";
    object      Ub;
}
// * * * * * * * * * * * * * * * * * * * * * * * * * * * * * * * * * * * * * //

dimensions      [0 0 0 0 0 0 0];

internalField   nonuniform List<vector> 
1000
(
(1.13633e-05 0 0)
(1.13942e-05 0 0)
(1.15808e-05 0 0)
(1.17654e-05 0 0)
(1.17984e-05 0 0)
(1.18038e-05 0 0)
(1.17914e-05 0 0)
(1.17587e-05 0 0)
(1.17146e-05 0 0)
(1.16663e-05 0 0)
(1.16154e-05 0 0)
(1.15627e-05 0 0)
(1.15085e-05 0 0)
(1.14532e-05 0 0)
(1.1397e-05 0 0)
(1.13399e-05 0 0)
(1.12821e-05 0 0)
(1.12237e-05 0 0)
(1.11646e-05 0 0)
(1.11049e-05 0 0)
(1.10447e-05 0 0)
(1.09839e-05 0 0)
(1.09225e-05 0 0)
(1.08607e-05 0 0)
(1.07982e-05 0 0)
(1.07352e-05 0 0)
(1.06716e-05 0 0)
(1.06074e-05 0 0)
(1.05425e-05 0 0)
(1.0477e-05 0 0)
(1.04107e-05 0 0)
(1.03438e-05 0 0)
(1.02762e-05 0 0)
(1.02079e-05 0 0)
(1.01388e-05 0 0)
(1.0069e-05 0 0)
(9.99841e-06 0 0)
(9.92706e-06 0 0)
(9.85492e-06 0 0)
(9.78198e-06 0 0)
(9.70823e-06 0 0)
(9.63364e-06 0 0)
(9.5582e-06 0 0)
(9.48187e-06 0 0)
(9.40464e-06 0 0)
(9.32644e-06 0 0)
(9.24725e-06 0 0)
(9.16703e-06 0 0)
(9.08569e-06 0 0)
(9.00322e-06 0 0)
(8.91952e-06 0 0)
(8.83454e-06 0 0)
(8.74821e-06 0 0)
(8.6604e-06 0 0)
(8.57106e-06 0 0)
(8.48004e-06 0 0)
(8.38724e-06 0 0)
(8.29258e-06 0 0)
(8.19589e-06 0 0)
(8.09709e-06 0 0)
(7.99606e-06 0 0)
(7.89269e-06 0 0)
(7.78691e-06 0 0)
(7.67869e-06 0 0)
(7.56803e-06 0 0)
(7.45499e-06 0 0)
(7.33957e-06 0 0)
(7.22149e-06 0 0)
(7.09971e-06 0 0)
(6.97141e-06 0 0)
(6.83015e-06 0 0)
(6.66315e-06 0 0)
(6.44809e-06 0 0)
(6.15235e-06 0 0)
(5.74075e-06 0 0)
(5.19918e-06 0 0)
(4.56611e-06 0 0)
(3.93635e-06 0 0)
(3.41203e-06 0 0)
(3.04256e-06 0 0)
(2.81504e-06 0 0)
(2.68768e-06 0 0)
(2.62075e-06 0 0)
(2.58709e-06 0 0)
(2.57088e-06 0 0)
(2.56357e-06 0 0)
(2.56078e-06 0 0)
(2.56028e-06 0 0)
(2.56093e-06 0 0)
(2.56219e-06 0 0)
(2.56371e-06 0 0)
(2.56538e-06 0 0)
(2.5671e-06 0 0)
(2.56875e-06 0 0)
(2.57029e-06 0 0)
(2.5717e-06 0 0)
(2.57294e-06 0 0)
(2.57398e-06 0 0)
(2.5748e-06 0 0)
(2.57541e-06 0 0)
(2.5758e-06 0 0)
(2.576e-06 0 0)
(2.57607e-06 0 0)
(2.57607e-06 0 0)
(2.576e-06 0 0)
(2.57572e-06 0 0)
(2.57525e-06 0 0)
(2.57474e-06 0 0)
(2.57418e-06 0 0)
(2.57361e-06 0 0)
(2.57303e-06 0 0)
(2.57245e-06 0 0)
(2.57188e-06 0 0)
(2.57135e-06 0 0)
(2.57084e-06 0 0)
(2.57037e-06 0 0)
(2.56994e-06 0 0)
(2.56956e-06 0 0)
(2.56923e-06 0 0)
(2.56894e-06 0 0)
(2.56871e-06 0 0)
(2.56851e-06 0 0)
(2.56836e-06 0 0)
(2.56824e-06 0 0)
(2.56815e-06 0 0)
(2.56809e-06 0 0)
(2.56806e-06 0 0)
(2.56805e-06 0 0)
(2.56805e-06 0 0)
(2.56805e-06 0 0)
(2.56806e-06 0 0)
(2.56809e-06 0 0)
(2.56813e-06 0 0)
(2.56816e-06 0 0)
(2.56821e-06 0 0)
(2.56825e-06 0 0)
(2.56829e-06 0 0)
(2.56832e-06 0 0)
(2.56835e-06 0 0)
(2.56838e-06 0 0)
(2.5684e-06 0 0)
(2.56842e-06 0 0)
(2.56844e-06 0 0)
(2.56845e-06 0 0)
(2.56846e-06 0 0)
(2.56847e-06 0 0)
(2.56847e-06 0 0)
(2.56846e-06 0 0)
(2.56846e-06 0 0)
(2.56846e-06 0 0)
(2.56846e-06 0 0)
(2.56846e-06 0 0)
(2.56846e-06 0 0)
(2.56846e-06 0 0)
(2.56846e-06 0 0)
(2.56846e-06 0 0)
(2.56847e-06 0 0)
(2.56848e-06 0 0)
(2.5685e-06 0 0)
(2.56852e-06 0 0)
(2.56855e-06 0 0)
(2.56858e-06 0 0)
(2.56861e-06 0 0)
(2.56865e-06 0 0)
(2.56869e-06 0 0)
(2.56873e-06 0 0)
(2.56878e-06 0 0)
(2.56883e-06 0 0)
(2.56888e-06 0 0)
(2.56894e-06 0 0)
(2.569e-06 0 0)
(2.56906e-06 0 0)
(2.56913e-06 0 0)
(2.56919e-06 0 0)
(2.56926e-06 0 0)
(2.56933e-06 0 0)
(2.56941e-06 0 0)
(2.56948e-06 0 0)
(2.56956e-06 0 0)
(2.56964e-06 0 0)
(2.56972e-06 0 0)
(2.5698e-06 0 0)
(2.56989e-06 0 0)
(2.56997e-06 0 0)
(2.57006e-06 0 0)
(2.57014e-06 0 0)
(2.57023e-06 0 0)
(2.57031e-06 0 0)
(2.57039e-06 0 0)
(2.57047e-06 0 0)
(2.57055e-06 0 0)
(2.57062e-06 0 0)
(2.57069e-06 0 0)
(2.57075e-06 0 0)
(2.57081e-06 0 0)
(2.57086e-06 0 0)
(2.5709e-06 0 0)
(2.57093e-06 0 0)
(2.57095e-06 0 0)
(2.57096e-06 0 0)
(2.57096e-06 0 0)
(2.57096e-06 0 0)
(2.57095e-06 0 0)
(2.57092e-06 0 0)
(2.57087e-06 0 0)
(2.57081e-06 0 0)
(2.57072e-06 0 0)
(2.57063e-06 0 0)
(2.57052e-06 0 0)
(2.57039e-06 0 0)
(2.57025e-06 0 0)
(2.57009e-06 0 0)
(2.56992e-06 0 0)
(2.56973e-06 0 0)
(2.56953e-06 0 0)
(2.56931e-06 0 0)
(2.56909e-06 0 0)
(2.56884e-06 0 0)
(2.56859e-06 0 0)
(2.56832e-06 0 0)
(2.56804e-06 0 0)
(2.56775e-06 0 0)
(2.56745e-06 0 0)
(2.56714e-06 0 0)
(2.56682e-06 0 0)
(2.5665e-06 0 0)
(2.56616e-06 0 0)
(2.56583e-06 0 0)
(2.56548e-06 0 0)
(2.56514e-06 0 0)
(2.5648e-06 0 0)
(2.56445e-06 0 0)
(2.5641e-06 0 0)
(2.56376e-06 0 0)
(2.56341e-06 0 0)
(2.56307e-06 0 0)
(2.56273e-06 0 0)
(2.56239e-06 0 0)
(2.56206e-06 0 0)
(2.56174e-06 0 0)
(2.56141e-06 0 0)
(2.56109e-06 0 0)
(2.56077e-06 0 0)
(2.56045e-06 0 0)
(2.56013e-06 0 0)
(2.55981e-06 0 0)
(2.55949e-06 0 0)
(2.55917e-06 0 0)
(2.55883e-06 0 0)
(2.55849e-06 0 0)
(2.55814e-06 0 0)
(2.55777e-06 0 0)
(2.55739e-06 0 0)
(2.55699e-06 0 0)
(2.55657e-06 0 0)
(2.55612e-06 0 0)
(2.55565e-06 0 0)
(2.55515e-06 0 0)
(2.55462e-06 0 0)
(2.55405e-06 0 0)
(2.55345e-06 0 0)
(2.55282e-06 0 0)
(2.55216e-06 0 0)
(2.55146e-06 0 0)
(2.55073e-06 0 0)
(2.54997e-06 0 0)
(2.54919e-06 0 0)
(2.54838e-06 0 0)
(2.54756e-06 0 0)
(2.54674e-06 0 0)
(2.54592e-06 0 0)
(2.54511e-06 0 0)
(2.54433e-06 0 0)
(2.5436e-06 0 0)
(2.54293e-06 0 0)
(2.54236e-06 0 0)
(2.54191e-06 0 0)
(2.54162e-06 0 0)
(2.54148e-06 0 0)
(2.54144e-06 0 0)
(2.54147e-06 0 0)
(2.54163e-06 0 0)
(2.54228e-06 0 0)
(2.54346e-06 0 0)
(2.54496e-06 0 0)
(2.54683e-06 0 0)
(2.54903e-06 0 0)
(2.55153e-06 0 0)
(2.55427e-06 0 0)
(2.55716e-06 0 0)
(2.56012e-06 0 0)
(2.56306e-06 0 0)
(2.56589e-06 0 0)
(2.56853e-06 0 0)
(2.57093e-06 0 0)
(2.57305e-06 0 0)
(2.57486e-06 0 0)
(2.57637e-06 0 0)
(2.57757e-06 0 0)
(2.57848e-06 0 0)
(2.57912e-06 0 0)
(2.57952e-06 0 0)
(2.57972e-06 0 0)
(2.57979e-06 0 0)
(2.5798e-06 0 0)
(2.57967e-06 0 0)
(2.57932e-06 0 0)
(2.57884e-06 0 0)
(2.57827e-06 0 0)
(2.57764e-06 0 0)
(2.57704e-06 0 0)
(2.57644e-06 0 0)
(2.57575e-06 0 0)
(2.57511e-06 0 0)
(2.57459e-06 0 0)
(2.57397e-06 0 0)
(2.5733e-06 0 0)
(2.57288e-06 0 0)
(2.5732e-06 0 0)
(2.57553e-06 0 0)
(2.59044e-06 0 0)
(2.73771e-06 0 0)
(2.91843e-06 0 0)
(2.96606e-06 0 0)
(2.96724e-06 0 0)
(2.96726e-06 0 0)
(2.96727e-06 0 0)
(2.96727e-06 0 0)
(2.96727e-06 0 0)
(2.96727e-06 0 0)
(2.96727e-06 0 0)
(2.96727e-06 0 0)
(2.96727e-06 0 0)
(2.96727e-06 0 0)
(2.96727e-06 0 0)
(2.96727e-06 0 0)
(2.96727e-06 0 0)
(2.96727e-06 0 0)
(2.96727e-06 0 0)
(2.96727e-06 0 0)
(2.96727e-06 0 0)
(2.96727e-06 0 0)
(2.96727e-06 0 0)
(2.96727e-06 0 0)
(2.96727e-06 0 0)
(2.96727e-06 0 0)
(2.96727e-06 0 0)
(2.96727e-06 0 0)
(2.96727e-06 0 0)
(2.96727e-06 0 0)
(2.96727e-06 0 0)
(2.96727e-06 0 0)
(2.96727e-06 0 0)
(2.96727e-06 0 0)
(2.96727e-06 0 0)
(2.96727e-06 0 0)
(2.96727e-06 0 0)
(2.96727e-06 0 0)
(2.96727e-06 0 0)
(2.96727e-06 0 0)
(2.96727e-06 0 0)
(2.96727e-06 0 0)
(2.96727e-06 0 0)
(2.96727e-06 0 0)
(2.96727e-06 0 0)
(2.96727e-06 0 0)
(2.96727e-06 0 0)
(2.96727e-06 0 0)
(2.96727e-06 0 0)
(2.96727e-06 0 0)
(2.96727e-06 0 0)
(2.96727e-06 0 0)
(2.96727e-06 0 0)
(2.96727e-06 0 0)
(2.96727e-06 0 0)
(2.96727e-06 0 0)
(2.96727e-06 0 0)
(2.96727e-06 0 0)
(2.96727e-06 0 0)
(2.96727e-06 0 0)
(2.96727e-06 0 0)
(2.96727e-06 0 0)
(2.96727e-06 0 0)
(2.96727e-06 0 0)
(2.96727e-06 0 0)
(2.96727e-06 0 0)
(2.96727e-06 0 0)
(2.96727e-06 0 0)
(2.96727e-06 0 0)
(2.96727e-06 0 0)
(2.96727e-06 0 0)
(2.96727e-06 0 0)
(2.96727e-06 0 0)
(2.96727e-06 0 0)
(2.96727e-06 0 0)
(2.96727e-06 0 0)
(2.96727e-06 0 0)
(2.96727e-06 0 0)
(2.96727e-06 0 0)
(2.96727e-06 0 0)
(2.96727e-06 0 0)
(2.96727e-06 0 0)
(2.96727e-06 0 0)
(2.96727e-06 0 0)
(2.96727e-06 0 0)
(2.96727e-06 0 0)
(2.96727e-06 0 0)
(2.96727e-06 0 0)
(2.96727e-06 0 0)
(2.96727e-06 0 0)
(2.96727e-06 0 0)
(2.96727e-06 0 0)
(2.96727e-06 0 0)
(2.96727e-06 0 0)
(2.96727e-06 0 0)
(2.96727e-06 0 0)
(2.96727e-06 0 0)
(2.96727e-06 0 0)
(2.96727e-06 0 0)
(2.96727e-06 0 0)
(2.96727e-06 0 0)
(2.96727e-06 0 0)
(2.96727e-06 0 0)
(2.96727e-06 0 0)
(2.96727e-06 0 0)
(2.96727e-06 0 0)
(2.96727e-06 0 0)
(2.96727e-06 0 0)
(2.96727e-06 0 0)
(2.96727e-06 0 0)
(2.96727e-06 0 0)
(2.96727e-06 0 0)
(2.96727e-06 0 0)
(2.96727e-06 0 0)
(2.96727e-06 0 0)
(2.96727e-06 0 0)
(2.96727e-06 0 0)
(2.96727e-06 0 0)
(2.96727e-06 0 0)
(2.96727e-06 0 0)
(2.96727e-06 0 0)
(2.96727e-06 0 0)
(2.96727e-06 0 0)
(2.96727e-06 0 0)
(2.96727e-06 0 0)
(2.96727e-06 0 0)
(2.96727e-06 0 0)
(2.96727e-06 0 0)
(2.96727e-06 0 0)
(2.96727e-06 0 0)
(2.96727e-06 0 0)
(2.96727e-06 0 0)
(2.96727e-06 0 0)
(2.96727e-06 0 0)
(2.96727e-06 0 0)
(2.96727e-06 0 0)
(2.96727e-06 0 0)
(2.96727e-06 0 0)
(2.96727e-06 0 0)
(2.96727e-06 0 0)
(2.96727e-06 0 0)
(2.96727e-06 0 0)
(2.96727e-06 0 0)
(2.96727e-06 0 0)
(2.96727e-06 0 0)
(2.96727e-06 0 0)
(2.96727e-06 0 0)
(2.96727e-06 0 0)
(2.96727e-06 0 0)
(2.96727e-06 0 0)
(2.96727e-06 0 0)
(2.96727e-06 0 0)
(2.96727e-06 0 0)
(2.96727e-06 0 0)
(2.96727e-06 0 0)
(2.96727e-06 0 0)
(2.96727e-06 0 0)
(2.96727e-06 0 0)
(2.96727e-06 0 0)
(2.96727e-06 0 0)
(2.96727e-06 0 0)
(2.96727e-06 0 0)
(2.96727e-06 0 0)
(2.96727e-06 0 0)
(2.96727e-06 0 0)
(2.96727e-06 0 0)
(2.96727e-06 0 0)
(2.96727e-06 0 0)
(2.96727e-06 0 0)
(2.96727e-06 0 0)
(2.96727e-06 0 0)
(2.96727e-06 0 0)
(2.96727e-06 0 0)
(2.96727e-06 0 0)
(2.96727e-06 0 0)
(2.96727e-06 0 0)
(2.96727e-06 0 0)
(2.96727e-06 0 0)
(2.96727e-06 0 0)
(2.96727e-06 0 0)
(2.96727e-06 0 0)
(2.96727e-06 0 0)
(2.96727e-06 0 0)
(2.96727e-06 0 0)
(2.96727e-06 0 0)
(2.96727e-06 0 0)
(2.96727e-06 0 0)
(2.96727e-06 0 0)
(2.96727e-06 0 0)
(2.96727e-06 0 0)
(2.96727e-06 0 0)
(2.96727e-06 0 0)
(2.96727e-06 0 0)
(2.96727e-06 0 0)
(2.96727e-06 0 0)
(2.96727e-06 0 0)
(2.96727e-06 0 0)
(2.96727e-06 0 0)
(2.96727e-06 0 0)
(2.96727e-06 0 0)
(2.96727e-06 0 0)
(2.96727e-06 0 0)
(2.96727e-06 0 0)
(2.96727e-06 0 0)
(2.96727e-06 0 0)
(2.96727e-06 0 0)
(2.96727e-06 0 0)
(2.96727e-06 0 0)
(2.96727e-06 0 0)
(2.96727e-06 0 0)
(2.96727e-06 0 0)
(2.96727e-06 0 0)
(2.96727e-06 0 0)
(2.96727e-06 0 0)
(2.96727e-06 0 0)
(2.96727e-06 0 0)
(2.96727e-06 0 0)
(2.96727e-06 0 0)
(2.96727e-06 0 0)
(2.96727e-06 0 0)
(2.96727e-06 0 0)
(2.96727e-06 0 0)
(2.96727e-06 0 0)
(2.96727e-06 0 0)
(2.96727e-06 0 0)
(2.96727e-06 0 0)
(2.96727e-06 0 0)
(2.96727e-06 0 0)
(2.96727e-06 0 0)
(2.96727e-06 0 0)
(2.96727e-06 0 0)
(2.96727e-06 0 0)
(2.96727e-06 0 0)
(2.96727e-06 0 0)
(2.96727e-06 0 0)
(2.96727e-06 0 0)
(2.96727e-06 0 0)
(2.96727e-06 0 0)
(2.96727e-06 0 0)
(2.96727e-06 0 0)
(2.96727e-06 0 0)
(2.96727e-06 0 0)
(2.96727e-06 0 0)
(2.96727e-06 0 0)
(2.96727e-06 0 0)
(2.96727e-06 0 0)
(2.96727e-06 0 0)
(2.96727e-06 0 0)
(2.96727e-06 0 0)
(2.96727e-06 0 0)
(2.96727e-06 0 0)
(2.96727e-06 0 0)
(2.96727e-06 0 0)
(2.96727e-06 0 0)
(2.96727e-06 0 0)
(2.96727e-06 0 0)
(2.96727e-06 0 0)
(2.96727e-06 0 0)
(2.96727e-06 0 0)
(2.96727e-06 0 0)
(2.96727e-06 0 0)
(2.96727e-06 0 0)
(2.96727e-06 0 0)
(2.96727e-06 0 0)
(2.96727e-06 0 0)
(2.96727e-06 0 0)
(2.96727e-06 0 0)
(2.96727e-06 0 0)
(2.96727e-06 0 0)
(2.96727e-06 0 0)
(2.96727e-06 0 0)
(2.96727e-06 0 0)
(2.96727e-06 0 0)
(2.96727e-06 0 0)
(2.96727e-06 0 0)
(2.96727e-06 0 0)
(2.96727e-06 0 0)
(2.96727e-06 0 0)
(2.96727e-06 0 0)
(2.96727e-06 0 0)
(2.96727e-06 0 0)
(2.96727e-06 0 0)
(2.96727e-06 0 0)
(2.96727e-06 0 0)
(2.96727e-06 0 0)
(2.96727e-06 0 0)
(2.96727e-06 0 0)
(2.96727e-06 0 0)
(2.96727e-06 0 0)
(2.96727e-06 0 0)
(2.96727e-06 0 0)
(2.96727e-06 0 0)
(2.96727e-06 0 0)
(2.96727e-06 0 0)
(2.96727e-06 0 0)
(2.96727e-06 0 0)
(2.96727e-06 0 0)
(2.96727e-06 0 0)
(2.96727e-06 0 0)
(2.96727e-06 0 0)
(2.96727e-06 0 0)
(2.96727e-06 0 0)
(2.96727e-06 0 0)
(2.96727e-06 0 0)
(2.96727e-06 0 0)
(2.96727e-06 0 0)
(2.96727e-06 0 0)
(2.96727e-06 0 0)
(2.96727e-06 0 0)
(2.96727e-06 0 0)
(2.96727e-06 0 0)
(2.96727e-06 0 0)
(2.96727e-06 0 0)
(2.96727e-06 0 0)
(2.96727e-06 0 0)
(2.96727e-06 0 0)
(2.96727e-06 0 0)
(2.96727e-06 0 0)
(2.96727e-06 0 0)
(2.96727e-06 0 0)
(2.96727e-06 0 0)
(2.96727e-06 0 0)
(2.96727e-06 0 0)
(2.96727e-06 0 0)
(2.96727e-06 0 0)
(2.96727e-06 0 0)
(2.96727e-06 0 0)
(2.96727e-06 0 0)
(2.96727e-06 0 0)
(2.96727e-06 0 0)
(2.96727e-06 0 0)
(2.96727e-06 0 0)
(2.96727e-06 0 0)
(2.96727e-06 0 0)
(2.96727e-06 0 0)
(2.96727e-06 0 0)
(2.96727e-06 0 0)
(2.96727e-06 0 0)
(2.96727e-06 0 0)
(2.96727e-06 0 0)
(2.96727e-06 0 0)
(2.96727e-06 0 0)
(2.96727e-06 0 0)
(2.96727e-06 0 0)
(2.96727e-06 0 0)
(2.96727e-06 0 0)
(2.96727e-06 0 0)
(2.96727e-06 0 0)
(2.96727e-06 0 0)
(2.96727e-06 0 0)
(2.96727e-06 0 0)
(2.96727e-06 0 0)
(2.96727e-06 0 0)
(2.96727e-06 0 0)
(2.96727e-06 0 0)
(2.96727e-06 0 0)
(2.96727e-06 0 0)
(2.96727e-06 0 0)
(2.96727e-06 0 0)
(2.96727e-06 0 0)
(2.96727e-06 0 0)
(2.96727e-06 0 0)
(2.96727e-06 0 0)
(2.96727e-06 0 0)
(2.96727e-06 0 0)
(2.96727e-06 0 0)
(2.96727e-06 0 0)
(2.96727e-06 0 0)
(2.96727e-06 0 0)
(2.96727e-06 0 0)
(2.96727e-06 0 0)
(2.96727e-06 0 0)
(2.96727e-06 0 0)
(2.96727e-06 0 0)
(2.96727e-06 0 0)
(2.96727e-06 0 0)
(2.96727e-06 0 0)
(2.96727e-06 0 0)
(2.96727e-06 0 0)
(2.96727e-06 0 0)
(2.96727e-06 0 0)
(2.96727e-06 0 0)
(2.96727e-06 0 0)
(2.96727e-06 0 0)
(2.96727e-06 0 0)
(2.96727e-06 0 0)
(2.96727e-06 0 0)
(2.96727e-06 0 0)
(2.96727e-06 0 0)
(2.96727e-06 0 0)
(2.96727e-06 0 0)
(2.96727e-06 0 0)
(2.96727e-06 0 0)
(2.96727e-06 0 0)
(2.96727e-06 0 0)
(2.96727e-06 0 0)
(2.96727e-06 0 0)
(2.96727e-06 0 0)
(2.96727e-06 0 0)
(2.96727e-06 0 0)
(2.96727e-06 0 0)
(2.96727e-06 0 0)
(2.96727e-06 0 0)
(2.96727e-06 0 0)
(2.96727e-06 0 0)
(2.96727e-06 0 0)
(2.96727e-06 0 0)
(2.96727e-06 0 0)
(2.96727e-06 0 0)
(2.96727e-06 0 0)
(2.96727e-06 0 0)
(2.96727e-06 0 0)
(2.96727e-06 0 0)
(2.96727e-06 0 0)
(2.96727e-06 0 0)
(2.96727e-06 0 0)
(2.96727e-06 0 0)
(2.96727e-06 0 0)
(2.96727e-06 0 0)
(2.96727e-06 0 0)
(2.96727e-06 0 0)
(2.96727e-06 0 0)
(2.96727e-06 0 0)
(2.96727e-06 0 0)
(2.96727e-06 0 0)
(2.96727e-06 0 0)
(2.96727e-06 0 0)
(2.96727e-06 0 0)
(2.96727e-06 0 0)
(2.96727e-06 0 0)
(2.96727e-06 0 0)
(2.96727e-06 0 0)
(2.96727e-06 0 0)
(2.96727e-06 0 0)
(2.96727e-06 0 0)
(2.96727e-06 0 0)
(2.96727e-06 0 0)
(2.96727e-06 0 0)
(2.96727e-06 0 0)
(2.96727e-06 0 0)
(2.96727e-06 0 0)
(2.96727e-06 0 0)
(2.96727e-06 0 0)
(2.96727e-06 0 0)
(2.96727e-06 0 0)
(2.96727e-06 0 0)
(2.96727e-06 0 0)
(2.96727e-06 0 0)
(2.96727e-06 0 0)
(2.96727e-06 0 0)
(2.96727e-06 0 0)
(2.96727e-06 0 0)
(2.96727e-06 0 0)
(2.96727e-06 0 0)
(2.96727e-06 0 0)
(2.96727e-06 0 0)
(2.96727e-06 0 0)
(2.96727e-06 0 0)
(2.96727e-06 0 0)
(2.96727e-06 0 0)
(2.96727e-06 0 0)
(2.96727e-06 0 0)
(2.96727e-06 0 0)
(2.96727e-06 0 0)
(2.96727e-06 0 0)
(2.96727e-06 0 0)
(2.96727e-06 0 0)
(2.96727e-06 0 0)
(2.96727e-06 0 0)
(2.96727e-06 0 0)
(2.96727e-06 0 0)
(2.96727e-06 0 0)
(2.96727e-06 0 0)
(2.96727e-06 0 0)
(2.96727e-06 0 0)
(2.96727e-06 0 0)
(2.96727e-06 0 0)
(2.96727e-06 0 0)
(2.96727e-06 0 0)
(2.96727e-06 0 0)
(2.96727e-06 0 0)
(2.96727e-06 0 0)
(2.96727e-06 0 0)
(2.96727e-06 0 0)
(2.96727e-06 0 0)
(2.96727e-06 0 0)
(2.96727e-06 0 0)
(2.96727e-06 0 0)
(2.96727e-06 0 0)
(2.96727e-06 0 0)
(2.96727e-06 0 0)
(2.96727e-06 0 0)
(2.96727e-06 0 0)
(2.96727e-06 0 0)
(2.96727e-06 0 0)
(2.96727e-06 0 0)
(2.96727e-06 0 0)
(2.96727e-06 0 0)
(2.96727e-06 0 0)
(2.96727e-06 0 0)
(2.96727e-06 0 0)
(2.96727e-06 0 0)
(2.96727e-06 0 0)
(2.96727e-06 0 0)
(2.96727e-06 0 0)
(2.96727e-06 0 0)
(2.96727e-06 0 0)
(2.96727e-06 0 0)
(2.96727e-06 0 0)
(2.96727e-06 0 0)
(2.96727e-06 0 0)
(2.96727e-06 0 0)
(2.96727e-06 0 0)
(2.96727e-06 0 0)
(2.96727e-06 0 0)
(2.96727e-06 0 0)
(2.96727e-06 0 0)
(2.96727e-06 0 0)
(2.96727e-06 0 0)
(2.96727e-06 0 0)
(2.96727e-06 0 0)
(2.96727e-06 0 0)
(2.96727e-06 0 0)
(2.96727e-06 0 0)
(2.96727e-06 0 0)
(2.96727e-06 0 0)
(2.96727e-06 0 0)
(2.96727e-06 0 0)
(2.96727e-06 0 0)
(2.96727e-06 0 0)
(2.96727e-06 0 0)
(2.96727e-06 0 0)
(2.96727e-06 0 0)
(2.96727e-06 0 0)
(2.96727e-06 0 0)
(2.96727e-06 0 0)
(2.96727e-06 0 0)
(2.96727e-06 0 0)
(2.96727e-06 0 0)
(2.96727e-06 0 0)
(2.96727e-06 0 0)
(2.96727e-06 0 0)
(2.96727e-06 0 0)
(2.96727e-06 0 0)
(2.96727e-06 0 0)
(2.96727e-06 0 0)
(2.96727e-06 0 0)
(2.96727e-06 0 0)
(2.96727e-06 0 0)
(2.96727e-06 0 0)
(2.96727e-06 0 0)
(2.96727e-06 0 0)
(2.96727e-06 0 0)
(2.96727e-06 0 0)
(2.96727e-06 0 0)
(2.96727e-06 0 0)
(2.96727e-06 0 0)
(2.96727e-06 0 0)
(2.96727e-06 0 0)
(2.96727e-06 0 0)
(2.96727e-06 0 0)
(2.96727e-06 0 0)
(2.96727e-06 0 0)
(2.96727e-06 0 0)
(2.96727e-06 0 0)
(2.96727e-06 0 0)
(2.96727e-06 0 0)
(2.96727e-06 0 0)
(2.96727e-06 0 0)
(2.96727e-06 0 0)
(2.96727e-06 0 0)
(2.96727e-06 0 0)
(2.96727e-06 0 0)
(2.96727e-06 0 0)
(2.96727e-06 0 0)
(2.96727e-06 0 0)
(2.96727e-06 0 0)
(2.96727e-06 0 0)
(2.96727e-06 0 0)
(2.96727e-06 0 0)
(2.96727e-06 0 0)
(2.96727e-06 0 0)
(2.96727e-06 0 0)
(2.96727e-06 0 0)
(2.96727e-06 0 0)
(2.96727e-06 0 0)
(2.96727e-06 0 0)
(2.96727e-06 0 0)
(2.96727e-06 0 0)
(2.96727e-06 0 0)
(2.96727e-06 0 0)
(2.96727e-06 0 0)
(2.96727e-06 0 0)
(2.96727e-06 0 0)
(2.96727e-06 0 0)
(2.96727e-06 0 0)
(2.96727e-06 0 0)
(2.96727e-06 0 0)
(2.96727e-06 0 0)
(2.96727e-06 0 0)
(2.96727e-06 0 0)
(2.96727e-06 0 0)
(2.96727e-06 0 0)
(2.96727e-06 0 0)
(2.96727e-06 0 0)
(2.96727e-06 0 0)
(2.96727e-06 0 0)
(2.96727e-06 0 0)
(2.96727e-06 0 0)
(2.96727e-06 0 0)
(2.96727e-06 0 0)
(2.96727e-06 0 0)
(2.96727e-06 0 0)
(2.96727e-06 0 0)
(2.96727e-06 0 0)
(2.96727e-06 0 0)
(2.96727e-06 0 0)
(2.96727e-06 0 0)
(2.96727e-06 0 0)
(2.96727e-06 0 0)
(2.96727e-06 0 0)
(2.96727e-06 0 0)
(2.96727e-06 0 0)
(2.96727e-06 0 0)
(2.96727e-06 0 0)
(2.96727e-06 0 0)
(2.96727e-06 0 0)
(2.96727e-06 0 0)
(2.96727e-06 0 0)
(2.96727e-06 0 0)
(2.96727e-06 0 0)
(2.96727e-06 0 0)
(2.96727e-06 0 0)
(2.96727e-06 0 0)
(2.96727e-06 0 0)
(2.96727e-06 0 0)
(2.96727e-06 0 0)
(2.96727e-06 0 0)
(2.96727e-06 0 0)
(2.96727e-06 0 0)
(2.96727e-06 0 0)
(2.96727e-06 0 0)
(2.96727e-06 0 0)
(2.96727e-06 0 0)
(2.96727e-06 0 0)
(2.96727e-06 0 0)
(2.96727e-06 0 0)
(2.96727e-06 0 0)
(2.96727e-06 0 0)
(2.96727e-06 0 0)
(2.96727e-06 0 0)
(2.96727e-06 0 0)
(2.96727e-06 0 0)
(2.96727e-06 0 0)
(2.96727e-06 0 0)
(2.96727e-06 0 0)
(2.96727e-06 0 0)
(2.96727e-06 0 0)
(2.96727e-06 0 0)
(2.96727e-06 0 0)
(2.96727e-06 0 0)
(2.96727e-06 0 0)
(2.96727e-06 0 0)
(2.96727e-06 0 0)
(2.96727e-06 0 0)
(2.96727e-06 0 0)
(2.96727e-06 0 0)
(2.96727e-06 0 0)
(2.96727e-06 0 0)
(2.96727e-06 0 0)
(2.96727e-06 0 0)
(2.96727e-06 0 0)
(2.96727e-06 0 0)
(2.96727e-06 0 0)
(2.96727e-06 0 0)
(2.96727e-06 0 0)
(2.96727e-06 0 0)
(2.96727e-06 0 0)
(2.96727e-06 0 0)
(2.96727e-06 0 0)
)
;

boundaryField
{
    inlet
    {
        type            fixedValue;
        value           uniform (1.13622e-05 0 0);
    }
    outlet
    {
        type            zeroGradient;
    }
    emptyWalls
    {
        type            empty;
    }
}


// ************************************************************************* //
