/*--------------------------------*- C++ -*----------------------------------*\
  =========                 |
  \\      /  F ield         | OpenFOAM: The Open Source CFD Toolbox
   \\    /   O peration     | Website:  https://openfoam.org
    \\  /    A nd           | Version:  9
     \\/     M anipulation  |
\*---------------------------------------------------------------------------*/
FoamFile
{
    format      ascii;
    class       volVectorField;
    location    "21100";
    object      Ub;
}
// * * * * * * * * * * * * * * * * * * * * * * * * * * * * * * * * * * * * * //

dimensions      [0 0 0 0 0 0 0];

internalField   nonuniform List<vector> 
1000
(
(1.1362e-05 0 0)
(1.13622e-05 0 0)
(1.13622e-05 0 0)
(1.13623e-05 0 0)
(1.13625e-05 0 0)
(1.13627e-05 0 0)
(1.13629e-05 0 0)
(1.13632e-05 0 0)
(1.13634e-05 0 0)
(1.13637e-05 0 0)
(1.13639e-05 0 0)
(1.13643e-05 0 0)
(1.13646e-05 0 0)
(1.1365e-05 0 0)
(1.13654e-05 0 0)
(1.13659e-05 0 0)
(1.13663e-05 0 0)
(1.13668e-05 0 0)
(1.13673e-05 0 0)
(1.13677e-05 0 0)
(1.13682e-05 0 0)
(1.13686e-05 0 0)
(1.13689e-05 0 0)
(1.13692e-05 0 0)
(1.13694e-05 0 0)
(1.13697e-05 0 0)
(1.13705e-05 0 0)
(1.13731e-05 0 0)
(1.13838e-05 0 0)
(1.14538e-05 0 0)
(1.16171e-05 0 0)
(1.17304e-05 0 0)
(1.17411e-05 0 0)
(1.17385e-05 0 0)
(1.17382e-05 0 0)
(1.17437e-05 0 0)
(1.1752e-05 0 0)
(1.17622e-05 0 0)
(1.17736e-05 0 0)
(1.17828e-05 0 0)
(1.17892e-05 0 0)
(1.17934e-05 0 0)
(1.17954e-05 0 0)
(1.17952e-05 0 0)
(1.17943e-05 0 0)
(1.17938e-05 0 0)
(1.17935e-05 0 0)
(1.17936e-05 0 0)
(1.17941e-05 0 0)
(1.17947e-05 0 0)
(1.17954e-05 0 0)
(1.17962e-05 0 0)
(1.17971e-05 0 0)
(1.17979e-05 0 0)
(1.17987e-05 0 0)
(1.17995e-05 0 0)
(1.18002e-05 0 0)
(1.18009e-05 0 0)
(1.18015e-05 0 0)
(1.1802e-05 0 0)
(1.18024e-05 0 0)
(1.18028e-05 0 0)
(1.18031e-05 0 0)
(1.18034e-05 0 0)
(1.18036e-05 0 0)
(1.18037e-05 0 0)
(1.18038e-05 0 0)
(1.18037e-05 0 0)
(1.18036e-05 0 0)
(1.18035e-05 0 0)
(1.18032e-05 0 0)
(1.18029e-05 0 0)
(1.18024e-05 0 0)
(1.18019e-05 0 0)
(1.18012e-05 0 0)
(1.18004e-05 0 0)
(1.17994e-05 0 0)
(1.17982e-05 0 0)
(1.17968e-05 0 0)
(1.1795e-05 0 0)
(1.17929e-05 0 0)
(1.17903e-05 0 0)
(1.17874e-05 0 0)
(1.1784e-05 0 0)
(1.17803e-05 0 0)
(1.17765e-05 0 0)
(1.17725e-05 0 0)
(1.17683e-05 0 0)
(1.17641e-05 0 0)
(1.17597e-05 0 0)
(1.17553e-05 0 0)
(1.17508e-05 0 0)
(1.17463e-05 0 0)
(1.17417e-05 0 0)
(1.17372e-05 0 0)
(1.17326e-05 0 0)
(1.1728e-05 0 0)
(1.17234e-05 0 0)
(1.17188e-05 0 0)
(1.17141e-05 0 0)
(1.17094e-05 0 0)
(1.17047e-05 0 0)
(1.16999e-05 0 0)
(1.16951e-05 0 0)
(1.16902e-05 0 0)
(1.16853e-05 0 0)
(1.16804e-05 0 0)
(1.16755e-05 0 0)
(1.16707e-05 0 0)
(1.16658e-05 0 0)
(1.1661e-05 0 0)
(1.16562e-05 0 0)
(1.16514e-05 0 0)
(1.16465e-05 0 0)
(1.16416e-05 0 0)
(1.16365e-05 0 0)
(1.16311e-05 0 0)
(1.16254e-05 0 0)
(1.16194e-05 0 0)
(1.16131e-05 0 0)
(1.16064e-05 0 0)
(1.15995e-05 0 0)
(1.15923e-05 0 0)
(1.15851e-05 0 0)
(1.15777e-05 0 0)
(1.15703e-05 0 0)
(1.15629e-05 0 0)
(1.15556e-05 0 0)
(1.15485e-05 0 0)
(1.15416e-05 0 0)
(1.15349e-05 0 0)
(1.15287e-05 0 0)
(1.15228e-05 0 0)
(1.15175e-05 0 0)
(1.15126e-05 0 0)
(1.15083e-05 0 0)
(1.15044e-05 0 0)
(1.1501e-05 0 0)
(1.1498e-05 0 0)
(1.14953e-05 0 0)
(1.14927e-05 0 0)
(1.14902e-05 0 0)
(1.14877e-05 0 0)
(1.14851e-05 0 0)
(1.14824e-05 0 0)
(1.14794e-05 0 0)
(1.14762e-05 0 0)
(1.14726e-05 0 0)
(1.14688e-05 0 0)
(1.14647e-05 0 0)
(1.14604e-05 0 0)
(1.14559e-05 0 0)
(1.14511e-05 0 0)
(1.14462e-05 0 0)
(1.14412e-05 0 0)
(1.14361e-05 0 0)
(1.1431e-05 0 0)
(1.14258e-05 0 0)
(1.14206e-05 0 0)
(1.14154e-05 0 0)
(1.14102e-05 0 0)
(1.14051e-05 0 0)
(1.14e-05 0 0)
(1.13949e-05 0 0)
(1.13899e-05 0 0)
(1.13849e-05 0 0)
(1.13799e-05 0 0)
(1.13749e-05 0 0)
(1.137e-05 0 0)
(1.13651e-05 0 0)
(1.13602e-05 0 0)
(1.13553e-05 0 0)
(1.13504e-05 0 0)
(1.13455e-05 0 0)
(1.13406e-05 0 0)
(1.13357e-05 0 0)
(1.13308e-05 0 0)
(1.13259e-05 0 0)
(1.1321e-05 0 0)
(1.1316e-05 0 0)
(1.13111e-05 0 0)
(1.13061e-05 0 0)
(1.13012e-05 0 0)
(1.12962e-05 0 0)
(1.12912e-05 0 0)
(1.12862e-05 0 0)
(1.12811e-05 0 0)
(1.12761e-05 0 0)
(1.1271e-05 0 0)
(1.1266e-05 0 0)
(1.12609e-05 0 0)
(1.12558e-05 0 0)
(1.12507e-05 0 0)
(1.12455e-05 0 0)
(1.12404e-05 0 0)
(1.12352e-05 0 0)
(1.12301e-05 0 0)
(1.12249e-05 0 0)
(1.12196e-05 0 0)
(1.12144e-05 0 0)
(1.12092e-05 0 0)
(1.12039e-05 0 0)
(1.11987e-05 0 0)
(1.11934e-05 0 0)
(1.11881e-05 0 0)
(1.11827e-05 0 0)
(1.11774e-05 0 0)
(1.1172e-05 0 0)
(1.11667e-05 0 0)
(1.11613e-05 0 0)
(1.11559e-05 0 0)
(1.11504e-05 0 0)
(1.1145e-05 0 0)
(1.11395e-05 0 0)
(1.1134e-05 0 0)
(1.11286e-05 0 0)
(1.11231e-05 0 0)
(1.11176e-05 0 0)
(1.11121e-05 0 0)
(1.11065e-05 0 0)
(1.1101e-05 0 0)
(1.10955e-05 0 0)
(1.10899e-05 0 0)
(1.10844e-05 0 0)
(1.10788e-05 0 0)
(1.10732e-05 0 0)
(1.10676e-05 0 0)
(1.1062e-05 0 0)
(1.10564e-05 0 0)
(1.10508e-05 0 0)
(1.10451e-05 0 0)
(1.10395e-05 0 0)
(1.10339e-05 0 0)
(1.10283e-05 0 0)
(1.10226e-05 0 0)
(1.1017e-05 0 0)
(1.10114e-05 0 0)
(1.10057e-05 0 0)
(1.1e-05 0 0)
(1.09943e-05 0 0)
(1.09885e-05 0 0)
(1.09826e-05 0 0)
(1.09767e-05 0 0)
(1.09706e-05 0 0)
(1.09645e-05 0 0)
(1.09582e-05 0 0)
(1.09518e-05 0 0)
(1.09453e-05 0 0)
(1.09387e-05 0 0)
(1.09319e-05 0 0)
(1.0925e-05 0 0)
(1.0918e-05 0 0)
(1.0911e-05 0 0)
(1.09038e-05 0 0)
(1.08966e-05 0 0)
(1.08894e-05 0 0)
(1.08822e-05 0 0)
(1.08751e-05 0 0)
(1.08679e-05 0 0)
(1.08609e-05 0 0)
(1.08541e-05 0 0)
(1.08473e-05 0 0)
(1.08408e-05 0 0)
(1.08344e-05 0 0)
(1.08283e-05 0 0)
(1.08224e-05 0 0)
(1.08167e-05 0 0)
(1.08113e-05 0 0)
(1.08061e-05 0 0)
(1.08012e-05 0 0)
(1.07964e-05 0 0)
(1.07918e-05 0 0)
(1.07873e-05 0 0)
(1.07829e-05 0 0)
(1.07787e-05 0 0)
(1.07744e-05 0 0)
(1.07702e-05 0 0)
(1.07659e-05 0 0)
(1.07616e-05 0 0)
(1.07572e-05 0 0)
(1.07527e-05 0 0)
(1.07481e-05 0 0)
(1.07434e-05 0 0)
(1.07385e-05 0 0)
(1.07336e-05 0 0)
(1.07285e-05 0 0)
(1.07234e-05 0 0)
(1.07181e-05 0 0)
(1.07128e-05 0 0)
(1.07073e-05 0 0)
(1.07018e-05 0 0)
(1.06962e-05 0 0)
(1.06906e-05 0 0)
(1.0685e-05 0 0)
(1.06793e-05 0 0)
(1.06736e-05 0 0)
(1.06679e-05 0 0)
(1.06622e-05 0 0)
(1.06565e-05 0 0)
(1.06508e-05 0 0)
(1.0645e-05 0 0)
(1.06393e-05 0 0)
(1.06337e-05 0 0)
(1.0628e-05 0 0)
(1.06223e-05 0 0)
(1.06166e-05 0 0)
(1.0611e-05 0 0)
(1.06053e-05 0 0)
(1.05997e-05 0 0)
(1.0594e-05 0 0)
(1.05884e-05 0 0)
(1.05828e-05 0 0)
(1.05771e-05 0 0)
(1.05715e-05 0 0)
(1.05658e-05 0 0)
(1.05602e-05 0 0)
(1.05545e-05 0 0)
(1.05489e-05 0 0)
(1.05432e-05 0 0)
(1.05375e-05 0 0)
(1.05318e-05 0 0)
(1.05262e-05 0 0)
(1.05205e-05 0 0)
(1.05147e-05 0 0)
(1.0509e-05 0 0)
(1.05033e-05 0 0)
(1.04975e-05 0 0)
(1.04918e-05 0 0)
(1.0486e-05 0 0)
(1.04802e-05 0 0)
(1.04744e-05 0 0)
(1.04686e-05 0 0)
(1.04628e-05 0 0)
(1.0457e-05 0 0)
(1.04511e-05 0 0)
(1.04453e-05 0 0)
(1.04394e-05 0 0)
(1.04335e-05 0 0)
(1.04276e-05 0 0)
(1.04217e-05 0 0)
(1.04158e-05 0 0)
(1.04099e-05 0 0)
(1.04039e-05 0 0)
(1.0398e-05 0 0)
(1.0392e-05 0 0)
(1.0386e-05 0 0)
(1.038e-05 0 0)
(1.0374e-05 0 0)
(1.0368e-05 0 0)
(1.03619e-05 0 0)
(1.03559e-05 0 0)
(1.03498e-05 0 0)
(1.03437e-05 0 0)
(1.03376e-05 0 0)
(1.03315e-05 0 0)
(1.03254e-05 0 0)
(1.03193e-05 0 0)
(1.03131e-05 0 0)
(1.0307e-05 0 0)
(1.03008e-05 0 0)
(1.02947e-05 0 0)
(1.02885e-05 0 0)
(1.02823e-05 0 0)
(1.02761e-05 0 0)
(1.02699e-05 0 0)
(1.02637e-05 0 0)
(1.02574e-05 0 0)
(1.02512e-05 0 0)
(1.02449e-05 0 0)
(1.02387e-05 0 0)
(1.02324e-05 0 0)
(1.02262e-05 0 0)
(1.02199e-05 0 0)
(1.02136e-05 0 0)
(1.02073e-05 0 0)
(1.02011e-05 0 0)
(1.01948e-05 0 0)
(1.01884e-05 0 0)
(1.01821e-05 0 0)
(1.01758e-05 0 0)
(1.01694e-05 0 0)
(1.01631e-05 0 0)
(1.01567e-05 0 0)
(1.01502e-05 0 0)
(1.01438e-05 0 0)
(1.01373e-05 0 0)
(1.01307e-05 0 0)
(1.01241e-05 0 0)
(1.01174e-05 0 0)
(1.01107e-05 0 0)
(1.01039e-05 0 0)
(1.00971e-05 0 0)
(1.00902e-05 0 0)
(1.00832e-05 0 0)
(1.00761e-05 0 0)
(1.0069e-05 0 0)
(1.00619e-05 0 0)
(1.00546e-05 0 0)
(1.00473e-05 0 0)
(1.004e-05 0 0)
(1.00327e-05 0 0)
(1.00253e-05 0 0)
(1.00179e-05 0 0)
(1.00105e-05 0 0)
(1.00032e-05 0 0)
(9.99582e-06 0 0)
(9.98851e-06 0 0)
(9.98126e-06 0 0)
(9.97408e-06 0 0)
(9.96697e-06 0 0)
(9.95996e-06 0 0)
(9.95304e-06 0 0)
(9.94623e-06 0 0)
(9.93954e-06 0 0)
(9.93297e-06 0 0)
(9.92652e-06 0 0)
(9.9202e-06 0 0)
(9.91399e-06 0 0)
(9.9079e-06 0 0)
(9.90192e-06 0 0)
(9.89604e-06 0 0)
(9.89025e-06 0 0)
(9.88453e-06 0 0)
(9.87888e-06 0 0)
(9.87327e-06 0 0)
(9.8677e-06 0 0)
(9.86215e-06 0 0)
(9.8566e-06 0 0)
(9.85105e-06 0 0)
(9.84547e-06 0 0)
(9.83987e-06 0 0)
(9.83422e-06 0 0)
(9.82853e-06 0 0)
(9.82278e-06 0 0)
(9.81698e-06 0 0)
(9.81111e-06 0 0)
(9.80519e-06 0 0)
(9.7992e-06 0 0)
(9.79315e-06 0 0)
(9.78705e-06 0 0)
(9.78089e-06 0 0)
(9.77467e-06 0 0)
(9.76841e-06 0 0)
(9.76211e-06 0 0)
(9.75576e-06 0 0)
(9.74939e-06 0 0)
(9.74298e-06 0 0)
(9.73654e-06 0 0)
(9.73009e-06 0 0)
(9.72361e-06 0 0)
(9.71712e-06 0 0)
(9.71062e-06 0 0)
(9.70411e-06 0 0)
(9.69759e-06 0 0)
(9.69106e-06 0 0)
(9.68453e-06 0 0)
(9.678e-06 0 0)
(9.67146e-06 0 0)
(9.66493e-06 0 0)
(9.65839e-06 0 0)
(9.65185e-06 0 0)
(9.64531e-06 0 0)
(9.63877e-06 0 0)
(9.63222e-06 0 0)
(9.62568e-06 0 0)
(9.61913e-06 0 0)
(9.61257e-06 0 0)
(9.60602e-06 0 0)
(9.59945e-06 0 0)
(9.59288e-06 0 0)
(9.58631e-06 0 0)
(9.57972e-06 0 0)
(9.57313e-06 0 0)
(9.56654e-06 0 0)
(9.55993e-06 0 0)
(9.55331e-06 0 0)
(9.54669e-06 0 0)
(9.54005e-06 0 0)
(9.5334e-06 0 0)
(9.52675e-06 0 0)
(9.52008e-06 0 0)
(9.5134e-06 0 0)
(9.50671e-06 0 0)
(9.50001e-06 0 0)
(9.49329e-06 0 0)
(9.48657e-06 0 0)
(9.47983e-06 0 0)
(9.47307e-06 0 0)
(9.46631e-06 0 0)
(9.45953e-06 0 0)
(9.45274e-06 0 0)
(9.44594e-06 0 0)
(9.43912e-06 0 0)
(9.43229e-06 0 0)
(9.42545e-06 0 0)
(9.4186e-06 0 0)
(9.41173e-06 0 0)
(9.40484e-06 0 0)
(9.39795e-06 0 0)
(9.39104e-06 0 0)
(9.38411e-06 0 0)
(9.37718e-06 0 0)
(9.37022e-06 0 0)
(9.36326e-06 0 0)
(9.35628e-06 0 0)
(9.34929e-06 0 0)
(9.34228e-06 0 0)
(9.33526e-06 0 0)
(9.32823e-06 0 0)
(9.32118e-06 0 0)
(9.31412e-06 0 0)
(9.30705e-06 0 0)
(9.29996e-06 0 0)
(9.29286e-06 0 0)
(9.28575e-06 0 0)
(9.27863e-06 0 0)
(9.27149e-06 0 0)
(9.26434e-06 0 0)
(9.25718e-06 0 0)
(9.25001e-06 0 0)
(9.24282e-06 0 0)
(9.23562e-06 0 0)
(9.22841e-06 0 0)
(9.22119e-06 0 0)
(9.21396e-06 0 0)
(9.20672e-06 0 0)
(9.19947e-06 0 0)
(9.1922e-06 0 0)
(9.18493e-06 0 0)
(9.17764e-06 0 0)
(9.17035e-06 0 0)
(9.16304e-06 0 0)
(9.15572e-06 0 0)
(9.14838e-06 0 0)
(9.14104e-06 0 0)
(9.13368e-06 0 0)
(9.1263e-06 0 0)
(9.11891e-06 0 0)
(9.1115e-06 0 0)
(9.10407e-06 0 0)
(9.09662e-06 0 0)
(9.08914e-06 0 0)
(9.08164e-06 0 0)
(9.07411e-06 0 0)
(9.06655e-06 0 0)
(9.05896e-06 0 0)
(9.05133e-06 0 0)
(9.04367e-06 0 0)
(9.03596e-06 0 0)
(9.02822e-06 0 0)
(9.02044e-06 0 0)
(9.01261e-06 0 0)
(9.00474e-06 0 0)
(8.99683e-06 0 0)
(8.98888e-06 0 0)
(8.98088e-06 0 0)
(8.97284e-06 0 0)
(8.96477e-06 0 0)
(8.95665e-06 0 0)
(8.94851e-06 0 0)
(8.94033e-06 0 0)
(8.93213e-06 0 0)
(8.92391e-06 0 0)
(8.91567e-06 0 0)
(8.90742e-06 0 0)
(8.89917e-06 0 0)
(8.89091e-06 0 0)
(8.88266e-06 0 0)
(8.87443e-06 0 0)
(8.86621e-06 0 0)
(8.85802e-06 0 0)
(8.84986e-06 0 0)
(8.84174e-06 0 0)
(8.83365e-06 0 0)
(8.82562e-06 0 0)
(8.81763e-06 0 0)
(8.8097e-06 0 0)
(8.80183e-06 0 0)
(8.79402e-06 0 0)
(8.78627e-06 0 0)
(8.77858e-06 0 0)
(8.77095e-06 0 0)
(8.76338e-06 0 0)
(8.75586e-06 0 0)
(8.7484e-06 0 0)
(8.74098e-06 0 0)
(8.73361e-06 0 0)
(8.72628e-06 0 0)
(8.71898e-06 0 0)
(8.7117e-06 0 0)
(8.70444e-06 0 0)
(8.69719e-06 0 0)
(8.68995e-06 0 0)
(8.6827e-06 0 0)
(8.67545e-06 0 0)
(8.66818e-06 0 0)
(8.6609e-06 0 0)
(8.65359e-06 0 0)
(8.64625e-06 0 0)
(8.63887e-06 0 0)
(8.63147e-06 0 0)
(8.62402e-06 0 0)
(8.61654e-06 0 0)
(8.60901e-06 0 0)
(8.60144e-06 0 0)
(8.59384e-06 0 0)
(8.58619e-06 0 0)
(8.5785e-06 0 0)
(8.57077e-06 0 0)
(8.563e-06 0 0)
(8.5552e-06 0 0)
(8.54736e-06 0 0)
(8.5395e-06 0 0)
(8.5316e-06 0 0)
(8.52367e-06 0 0)
(8.51571e-06 0 0)
(8.50773e-06 0 0)
(8.49973e-06 0 0)
(8.4917e-06 0 0)
(8.48366e-06 0 0)
(8.4756e-06 0 0)
(8.46752e-06 0 0)
(8.45942e-06 0 0)
(8.45131e-06 0 0)
(8.44318e-06 0 0)
(8.43504e-06 0 0)
(8.42688e-06 0 0)
(8.41872e-06 0 0)
(8.41054e-06 0 0)
(8.40234e-06 0 0)
(8.39414e-06 0 0)
(8.38592e-06 0 0)
(8.37769e-06 0 0)
(8.36945e-06 0 0)
(8.36119e-06 0 0)
(8.35292e-06 0 0)
(8.34464e-06 0 0)
(8.33634e-06 0 0)
(8.32803e-06 0 0)
(8.3197e-06 0 0)
(8.31136e-06 0 0)
(8.303e-06 0 0)
(8.29462e-06 0 0)
(8.28623e-06 0 0)
(8.27782e-06 0 0)
(8.2694e-06 0 0)
(8.26096e-06 0 0)
(8.25249e-06 0 0)
(8.24401e-06 0 0)
(8.23552e-06 0 0)
(8.227e-06 0 0)
(8.21846e-06 0 0)
(8.20991e-06 0 0)
(8.20133e-06 0 0)
(8.19273e-06 0 0)
(8.18412e-06 0 0)
(8.17548e-06 0 0)
(8.16682e-06 0 0)
(8.15815e-06 0 0)
(8.14945e-06 0 0)
(8.14073e-06 0 0)
(8.13198e-06 0 0)
(8.12322e-06 0 0)
(8.11443e-06 0 0)
(8.10562e-06 0 0)
(8.09679e-06 0 0)
(8.08794e-06 0 0)
(8.07906e-06 0 0)
(8.07016e-06 0 0)
(8.06124e-06 0 0)
(8.05229e-06 0 0)
(8.04332e-06 0 0)
(8.03433e-06 0 0)
(8.02532e-06 0 0)
(8.01628e-06 0 0)
(8.00721e-06 0 0)
(7.99813e-06 0 0)
(7.98902e-06 0 0)
(7.97988e-06 0 0)
(7.97072e-06 0 0)
(7.96154e-06 0 0)
(7.95233e-06 0 0)
(7.9431e-06 0 0)
(7.93384e-06 0 0)
(7.92456e-06 0 0)
(7.91526e-06 0 0)
(7.90593e-06 0 0)
(7.89657e-06 0 0)
(7.8872e-06 0 0)
(7.87779e-06 0 0)
(7.86836e-06 0 0)
(7.85891e-06 0 0)
(7.84943e-06 0 0)
(7.83993e-06 0 0)
(7.8304e-06 0 0)
(7.82084e-06 0 0)
(7.81126e-06 0 0)
(7.80166e-06 0 0)
(7.79203e-06 0 0)
(7.78237e-06 0 0)
(7.77269e-06 0 0)
(7.76298e-06 0 0)
(7.75324e-06 0 0)
(7.74348e-06 0 0)
(7.73369e-06 0 0)
(7.72387e-06 0 0)
(7.71402e-06 0 0)
(7.70415e-06 0 0)
(7.69424e-06 0 0)
(7.6843e-06 0 0)
(7.67433e-06 0 0)
(7.66433e-06 0 0)
(7.6543e-06 0 0)
(7.64423e-06 0 0)
(7.63412e-06 0 0)
(7.62398e-06 0 0)
(7.6138e-06 0 0)
(7.60358e-06 0 0)
(7.59331e-06 0 0)
(7.58301e-06 0 0)
(7.57267e-06 0 0)
(7.56228e-06 0 0)
(7.55185e-06 0 0)
(7.54137e-06 0 0)
(7.53084e-06 0 0)
(7.52027e-06 0 0)
(7.50966e-06 0 0)
(7.49899e-06 0 0)
(7.48828e-06 0 0)
(7.47752e-06 0 0)
(7.46671e-06 0 0)
(7.45586e-06 0 0)
(7.44496e-06 0 0)
(7.43402e-06 0 0)
(7.42303e-06 0 0)
(7.412e-06 0 0)
(7.40093e-06 0 0)
(7.38982e-06 0 0)
(7.37868e-06 0 0)
(7.36749e-06 0 0)
(7.35628e-06 0 0)
(7.34504e-06 0 0)
(7.33376e-06 0 0)
(7.32246e-06 0 0)
(7.31114e-06 0 0)
(7.2998e-06 0 0)
(7.28844e-06 0 0)
(7.27706e-06 0 0)
(7.26567e-06 0 0)
(7.25427e-06 0 0)
(7.24287e-06 0 0)
(7.23145e-06 0 0)
(7.22003e-06 0 0)
(7.20861e-06 0 0)
(7.19719e-06 0 0)
(7.18577e-06 0 0)
(7.17434e-06 0 0)
(7.16292e-06 0 0)
(7.1515e-06 0 0)
(7.14008e-06 0 0)
(7.12866e-06 0 0)
(7.11724e-06 0 0)
(7.10582e-06 0 0)
(7.09439e-06 0 0)
(7.08295e-06 0 0)
(7.07151e-06 0 0)
(7.06006e-06 0 0)
(7.04859e-06 0 0)
(7.0371e-06 0 0)
(7.0256e-06 0 0)
(7.01408e-06 0 0)
(7.00253e-06 0 0)
(6.99095e-06 0 0)
(6.97934e-06 0 0)
(6.96769e-06 0 0)
(6.95601e-06 0 0)
(6.9443e-06 0 0)
(6.93254e-06 0 0)
(6.92074e-06 0 0)
(6.90891e-06 0 0)
(6.89703e-06 0 0)
(6.8851e-06 0 0)
(6.87314e-06 0 0)
(6.86114e-06 0 0)
(6.8491e-06 0 0)
(6.83703e-06 0 0)
(6.82493e-06 0 0)
(6.81279e-06 0 0)
(6.80064e-06 0 0)
(6.78847e-06 0 0)
(6.7763e-06 0 0)
(6.76413e-06 0 0)
(6.75197e-06 0 0)
(6.73983e-06 0 0)
(6.72772e-06 0 0)
(6.71566e-06 0 0)
(6.70367e-06 0 0)
(6.69177e-06 0 0)
(6.67997e-06 0 0)
(6.66829e-06 0 0)
(6.65676e-06 0 0)
(6.6454e-06 0 0)
(6.63425e-06 0 0)
(6.62333e-06 0 0)
(6.61268e-06 0 0)
(6.60232e-06 0 0)
(6.59228e-06 0 0)
(6.58259e-06 0 0)
(6.5733e-06 0 0)
(6.56442e-06 0 0)
(6.55598e-06 0 0)
(6.54801e-06 0 0)
(6.54052e-06 0 0)
(6.53353e-06 0 0)
(6.52704e-06 0 0)
(6.52107e-06 0 0)
(6.51561e-06 0 0)
(6.51066e-06 0 0)
(6.5062e-06 0 0)
(6.50221e-06 0 0)
(6.49868e-06 0 0)
(6.49557e-06 0 0)
(6.49286e-06 0 0)
(6.49052e-06 0 0)
(6.48852e-06 0 0)
(6.48683e-06 0 0)
(6.48539e-06 0 0)
(6.4842e-06 0 0)
(6.48321e-06 0 0)
(6.4824e-06 0 0)
(6.48173e-06 0 0)
(6.48117e-06 0 0)
(6.48065e-06 0 0)
(6.48013e-06 0 0)
(6.47952e-06 0 0)
(6.47865e-06 0 0)
(6.47728e-06 0 0)
(6.47492e-06 0 0)
(6.47076e-06 0 0)
(6.46333e-06 0 0)
(6.45004e-06 0 0)
(6.42635e-06 0 0)
(6.38439e-06 0 0)
(6.31105e-06 0 0)
(6.18576e-06 0 0)
(5.97984e-06 0 0)
(5.66182e-06 0 0)
(5.21452e-06 0 0)
(4.6611e-06 0 0)
(4.07627e-06 0 0)
(3.55568e-06 0 0)
(3.16244e-06 0 0)
(2.90349e-06 0 0)
(2.74924e-06 0 0)
(2.66312e-06 0 0)
(2.61686e-06 0 0)
(2.59253e-06 0 0)
(2.57988e-06 0 0)
(2.57334e-06 0 0)
(2.56998e-06 0 0)
(2.56825e-06 0 0)
(2.56737e-06 0 0)
(2.56691e-06 0 0)
(2.56668e-06 0 0)
(2.56656e-06 0 0)
(2.5665e-06 0 0)
(2.56647e-06 0 0)
(2.56645e-06 0 0)
(2.56644e-06 0 0)
(2.56643e-06 0 0)
(2.56642e-06 0 0)
(2.56642e-06 0 0)
(2.56641e-06 0 0)
(2.5664e-06 0 0)
(2.56639e-06 0 0)
(2.56638e-06 0 0)
(2.56637e-06 0 0)
(2.56635e-06 0 0)
(2.56634e-06 0 0)
(2.56632e-06 0 0)
(2.56631e-06 0 0)
(2.56629e-06 0 0)
(2.56627e-06 0 0)
(2.56625e-06 0 0)
(2.56623e-06 0 0)
(2.56621e-06 0 0)
(2.56618e-06 0 0)
(2.56616e-06 0 0)
(2.56614e-06 0 0)
(2.56611e-06 0 0)
(2.56608e-06 0 0)
(2.56606e-06 0 0)
(2.56603e-06 0 0)
(2.566e-06 0 0)
(2.56597e-06 0 0)
(2.56594e-06 0 0)
(2.5659e-06 0 0)
(2.56587e-06 0 0)
(2.56584e-06 0 0)
(2.5658e-06 0 0)
(2.56576e-06 0 0)
(2.56572e-06 0 0)
(2.56568e-06 0 0)
(2.56564e-06 0 0)
(2.56559e-06 0 0)
(2.56555e-06 0 0)
(2.5655e-06 0 0)
(2.56545e-06 0 0)
(2.56539e-06 0 0)
(2.56534e-06 0 0)
(2.56528e-06 0 0)
(2.56521e-06 0 0)
(2.56515e-06 0 0)
(2.56508e-06 0 0)
(2.56501e-06 0 0)
(2.56494e-06 0 0)
(2.56486e-06 0 0)
(2.56478e-06 0 0)
(2.56469e-06 0 0)
(2.5646e-06 0 0)
(2.56451e-06 0 0)
(2.56442e-06 0 0)
(2.56432e-06 0 0)
(2.56422e-06 0 0)
(2.56411e-06 0 0)
(2.564e-06 0 0)
(2.56389e-06 0 0)
(2.56378e-06 0 0)
(2.56366e-06 0 0)
(2.56354e-06 0 0)
(2.56342e-06 0 0)
(2.5633e-06 0 0)
(2.56318e-06 0 0)
(2.56305e-06 0 0)
(2.56293e-06 0 0)
(2.5628e-06 0 0)
(2.56268e-06 0 0)
(2.56256e-06 0 0)
(2.56244e-06 0 0)
(2.56232e-06 0 0)
(2.5622e-06 0 0)
(2.56208e-06 0 0)
(2.56197e-06 0 0)
(2.56187e-06 0 0)
(2.56177e-06 0 0)
(2.56167e-06 0 0)
(2.56158e-06 0 0)
(2.56149e-06 0 0)
(2.56141e-06 0 0)
(2.56134e-06 0 0)
(2.56128e-06 0 0)
(2.56122e-06 0 0)
(2.56118e-06 0 0)
(2.56114e-06 0 0)
(2.56111e-06 0 0)
(2.56109e-06 0 0)
(2.56107e-06 0 0)
(2.56107e-06 0 0)
(2.56107e-06 0 0)
(2.56108e-06 0 0)
(2.56109e-06 0 0)
(2.56111e-06 0 0)
(2.56115e-06 0 0)
(2.5612e-06 0 0)
(2.56126e-06 0 0)
(2.56132e-06 0 0)
(2.56139e-06 0 0)
(2.56147e-06 0 0)
(2.56155e-06 0 0)
(2.56164e-06 0 0)
(2.56173e-06 0 0)
(2.56182e-06 0 0)
(2.56192e-06 0 0)
(2.56202e-06 0 0)
(2.56212e-06 0 0)
(2.56223e-06 0 0)
(2.56233e-06 0 0)
(2.56244e-06 0 0)
(2.56255e-06 0 0)
(2.56265e-06 0 0)
(2.56276e-06 0 0)
(2.56286e-06 0 0)
(2.56296e-06 0 0)
(2.56306e-06 0 0)
(2.56316e-06 0 0)
(2.56325e-06 0 0)
(2.56335e-06 0 0)
(2.56343e-06 0 0)
(2.56352e-06 0 0)
(2.5636e-06 0 0)
(2.56368e-06 0 0)
(2.56376e-06 0 0)
(2.56383e-06 0 0)
(2.5639e-06 0 0)
(2.56396e-06 0 0)
(2.56403e-06 0 0)
(2.56409e-06 0 0)
(2.56414e-06 0 0)
(2.5642e-06 0 0)
(2.56425e-06 0 0)
)
;

boundaryField
{
    inlet
    {
        type            fixedValue;
        value           uniform (1.13622e-05 0 0);
    }
    outlet
    {
        type            zeroGradient;
    }
    emptyWalls
    {
        type            empty;
    }
}


// ************************************************************************* //
