/*--------------------------------*- C++ -*----------------------------------*\
  =========                 |
  \\      /  F ield         | OpenFOAM: The Open Source CFD Toolbox
   \\    /   O peration     | Website:  https://openfoam.org
    \\  /    A nd           | Version:  9
     \\/     M anipulation  |
\*---------------------------------------------------------------------------*/
FoamFile
{
    format      ascii;
    class       volVectorField;
    location    "6750";
    object      Uc;
}
// * * * * * * * * * * * * * * * * * * * * * * * * * * * * * * * * * * * * * //

dimensions      [0 0 0 0 0 0 0];

internalField   nonuniform List<vector> 
1000
(
(7.71649e-11 0 0)
(4.17881e-10 0 0)
(1.06764e-09 0 0)
(1.9182e-09 0 0)
(2.891e-09 0 0)
(4.0632e-09 0 0)
(6.42867e-09 0 0)
(1.38342e-08 0 0)
(4.55484e-08 0 0)
(1.29134e-07 0 0)
(1.98979e-07 0 0)
(2.15777e-07 0 0)
(2.23073e-07 0 0)
(2.27968e-07 0 0)
(2.31888e-07 0 0)
(2.35263e-07 0 0)
(2.38273e-07 0 0)
(2.41036e-07 0 0)
(2.43672e-07 0 0)
(2.46321e-07 0 0)
(2.4917e-07 0 0)
(2.52553e-07 0 0)
(2.56729e-07 0 0)
(2.61989e-07 0 0)
(2.68842e-07 0 0)
(2.77619e-07 0 0)
(2.88205e-07 0 0)
(3.00143e-07 0 0)
(3.12984e-07 0 0)
(3.26434e-07 0 0)
(3.40313e-07 0 0)
(3.54505e-07 0 0)
(3.68935e-07 0 0)
(3.83557e-07 0 0)
(3.98339e-07 0 0)
(4.13263e-07 0 0)
(4.28318e-07 0 0)
(4.43494e-07 0 0)
(4.58788e-07 0 0)
(4.74193e-07 0 0)
(4.8971e-07 0 0)
(5.05337e-07 0 0)
(5.21078e-07 0 0)
(5.36934e-07 0 0)
(5.5291e-07 0 0)
(5.69007e-07 0 0)
(5.85223e-07 0 0)
(6.01555e-07 0 0)
(6.17994e-07 0 0)
(6.34528e-07 0 0)
(6.51145e-07 0 0)
(6.67832e-07 0 0)
(6.84576e-07 0 0)
(7.01366e-07 0 0)
(7.18194e-07 0 0)
(7.35053e-07 0 0)
(7.5194e-07 0 0)
(7.68855e-07 0 0)
(7.85798e-07 0 0)
(8.02772e-07 0 0)
(8.19783e-07 0 0)
(8.36833e-07 0 0)
(8.53929e-07 0 0)
(8.71072e-07 0 0)
(8.88268e-07 0 0)
(9.05519e-07 0 0)
(9.22827e-07 0 0)
(9.40193e-07 0 0)
(9.57618e-07 0 0)
(9.75101e-07 0 0)
(9.92641e-07 0 0)
(1.01024e-06 0 0)
(1.02789e-06 0 0)
(1.0456e-06 0 0)
(1.06336e-06 0 0)
(1.08117e-06 0 0)
(1.09903e-06 0 0)
(1.11695e-06 0 0)
(1.13491e-06 0 0)
(1.15292e-06 0 0)
(1.17097e-06 0 0)
(1.18908e-06 0 0)
(1.20723e-06 0 0)
(1.22543e-06 0 0)
(1.24367e-06 0 0)
(1.26197e-06 0 0)
(1.2803e-06 0 0)
(1.29869e-06 0 0)
(1.31712e-06 0 0)
(1.33559e-06 0 0)
(1.35411e-06 0 0)
(1.37268e-06 0 0)
(1.3913e-06 0 0)
(1.40996e-06 0 0)
(1.42867e-06 0 0)
(1.44742e-06 0 0)
(1.46622e-06 0 0)
(1.48507e-06 0 0)
(1.50397e-06 0 0)
(1.52291e-06 0 0)
(1.5419e-06 0 0)
(1.56094e-06 0 0)
(1.58003e-06 0 0)
(1.59916e-06 0 0)
(1.61835e-06 0 0)
(1.63758e-06 0 0)
(1.65686e-06 0 0)
(1.67619e-06 0 0)
(1.69556e-06 0 0)
(1.71499e-06 0 0)
(1.73446e-06 0 0)
(1.75398e-06 0 0)
(1.77356e-06 0 0)
(1.79317e-06 0 0)
(1.81284e-06 0 0)
(1.83256e-06 0 0)
(1.85232e-06 0 0)
(1.87214e-06 0 0)
(1.892e-06 0 0)
(1.91191e-06 0 0)
(1.93187e-06 0 0)
(1.95188e-06 0 0)
(1.97194e-06 0 0)
(1.99205e-06 0 0)
(2.01221e-06 0 0)
(2.03242e-06 0 0)
(2.05268e-06 0 0)
(2.07299e-06 0 0)
(2.09336e-06 0 0)
(2.11378e-06 0 0)
(2.13425e-06 0 0)
(2.15478e-06 0 0)
(2.17536e-06 0 0)
(2.196e-06 0 0)
(2.21669e-06 0 0)
(2.23745e-06 0 0)
(2.25826e-06 0 0)
(2.27913e-06 0 0)
(2.30006e-06 0 0)
(2.32105e-06 0 0)
(2.3421e-06 0 0)
(2.36321e-06 0 0)
(2.38439e-06 0 0)
(2.40563e-06 0 0)
(2.42693e-06 0 0)
(2.44829e-06 0 0)
(2.46972e-06 0 0)
(2.49122e-06 0 0)
(2.51278e-06 0 0)
(2.5344e-06 0 0)
(2.5561e-06 0 0)
(2.57786e-06 0 0)
(2.59969e-06 0 0)
(2.6216e-06 0 0)
(2.64357e-06 0 0)
(2.6656e-06 0 0)
(2.68771e-06 0 0)
(2.70989e-06 0 0)
(2.73214e-06 0 0)
(2.75446e-06 0 0)
(2.77686e-06 0 0)
(2.79933e-06 0 0)
(2.82187e-06 0 0)
(2.84448e-06 0 0)
(2.86717e-06 0 0)
(2.88994e-06 0 0)
(2.91278e-06 0 0)
(2.93569e-06 0 0)
(2.95868e-06 0 0)
(2.98175e-06 0 0)
(3.00488e-06 0 0)
(3.02809e-06 0 0)
(3.05136e-06 0 0)
(3.0747e-06 0 0)
(3.0981e-06 0 0)
(3.12157e-06 0 0)
(3.14511e-06 0 0)
(3.16871e-06 0 0)
(3.19238e-06 0 0)
(3.21611e-06 0 0)
(3.23992e-06 0 0)
(3.26379e-06 0 0)
(3.28775e-06 0 0)
(3.31179e-06 0 0)
(3.33592e-06 0 0)
(3.36016e-06 0 0)
(3.3845e-06 0 0)
(3.40895e-06 0 0)
(3.43354e-06 0 0)
(3.45826e-06 0 0)
(3.48313e-06 0 0)
(3.50817e-06 0 0)
(3.53338e-06 0 0)
(3.55877e-06 0 0)
(3.58435e-06 0 0)
(3.61014e-06 0 0)
(3.63613e-06 0 0)
(3.66234e-06 0 0)
(3.68877e-06 0 0)
(3.71541e-06 0 0)
(3.74227e-06 0 0)
(3.76934e-06 0 0)
(3.79661e-06 0 0)
(3.82408e-06 0 0)
(3.85174e-06 0 0)
(3.87957e-06 0 0)
(3.90758e-06 0 0)
(3.93574e-06 0 0)
(3.96405e-06 0 0)
(3.99251e-06 0 0)
(4.0211e-06 0 0)
(4.04982e-06 0 0)
(4.07867e-06 0 0)
(4.10765e-06 0 0)
(4.13675e-06 0 0)
(4.16599e-06 0 0)
(4.19536e-06 0 0)
(4.22487e-06 0 0)
(4.25454e-06 0 0)
(4.28436e-06 0 0)
(4.31435e-06 0 0)
(4.34451e-06 0 0)
(4.37487e-06 0 0)
(4.40542e-06 0 0)
(4.43618e-06 0 0)
(4.46715e-06 0 0)
(4.49836e-06 0 0)
(4.52979e-06 0 0)
(4.56147e-06 0 0)
(4.59341e-06 0 0)
(4.6256e-06 0 0)
(4.65807e-06 0 0)
(4.69082e-06 0 0)
(4.72386e-06 0 0)
(4.75718e-06 0 0)
(4.7908e-06 0 0)
(4.82471e-06 0 0)
(4.85893e-06 0 0)
(4.89345e-06 0 0)
(4.92829e-06 0 0)
(4.96342e-06 0 0)
(4.99886e-06 0 0)
(5.03459e-06 0 0)
(5.07058e-06 0 0)
(5.10683e-06 0 0)
(5.14329e-06 0 0)
(5.17994e-06 0 0)
(5.2167e-06 0 0)
(5.25351e-06 0 0)
(5.29026e-06 0 0)
(5.32683e-06 0 0)
(5.36306e-06 0 0)
(5.39878e-06 0 0)
(5.43378e-06 0 0)
(5.46781e-06 0 0)
(5.50065e-06 0 0)
(5.53205e-06 0 0)
(5.5618e-06 0 0)
(5.58978e-06 0 0)
(5.61603e-06 0 0)
(5.64084e-06 0 0)
(5.66498e-06 0 0)
(5.68996e-06 0 0)
(5.71858e-06 0 0)
(5.75583e-06 0 0)
(5.8103e-06 0 0)
(5.89623e-06 0 0)
(6.03563e-06 0 0)
(6.25864e-06 0 0)
(6.59711e-06 0 0)
(7.06579e-06 0 0)
(7.63581e-06 0 0)
(8.22699e-06 0 0)
(8.74338e-06 0 0)
(9.12692e-06 0 0)
(9.37616e-06 0 0)
(9.52328e-06 0 0)
(9.60495e-06 0 0)
(9.64869e-06 0 0)
(9.67168e-06 0 0)
(9.68365e-06 0 0)
(9.68986e-06 0 0)
(9.6931e-06 0 0)
(9.6948e-06 0 0)
(9.69571e-06 0 0)
(9.69622e-06 0 0)
(9.69651e-06 0 0)
(9.6967e-06 0 0)
(9.69683e-06 0 0)
(9.69692e-06 0 0)
(9.697e-06 0 0)
(9.69707e-06 0 0)
(9.69714e-06 0 0)
(9.6972e-06 0 0)
(9.69725e-06 0 0)
(9.6973e-06 0 0)
(9.69735e-06 0 0)
(9.6974e-06 0 0)
(9.69744e-06 0 0)
(9.69748e-06 0 0)
(9.69751e-06 0 0)
(9.69754e-06 0 0)
(9.69756e-06 0 0)
(9.69758e-06 0 0)
(9.69759e-06 0 0)
(9.69759e-06 0 0)
(9.69759e-06 0 0)
(9.69759e-06 0 0)
(9.69759e-06 0 0)
(9.69757e-06 0 0)
(9.69754e-06 0 0)
(9.69751e-06 0 0)
(9.69747e-06 0 0)
(9.69742e-06 0 0)
(9.69736e-06 0 0)
(9.6973e-06 0 0)
(9.69723e-06 0 0)
(9.69716e-06 0 0)
(9.69707e-06 0 0)
(9.69698e-06 0 0)
(9.69688e-06 0 0)
(9.69678e-06 0 0)
(9.69667e-06 0 0)
(9.69656e-06 0 0)
(9.69644e-06 0 0)
(9.69631e-06 0 0)
(9.69618e-06 0 0)
(9.69605e-06 0 0)
(9.69592e-06 0 0)
(9.69578e-06 0 0)
(9.69564e-06 0 0)
(9.6955e-06 0 0)
(9.69535e-06 0 0)
(9.69521e-06 0 0)
(9.69506e-06 0 0)
(9.69492e-06 0 0)
(9.69477e-06 0 0)
(9.69462e-06 0 0)
(9.69448e-06 0 0)
(9.69433e-06 0 0)
(9.69419e-06 0 0)
(9.69404e-06 0 0)
(9.69389e-06 0 0)
(9.69375e-06 0 0)
(9.6936e-06 0 0)
(9.69345e-06 0 0)
(9.6933e-06 0 0)
(9.69314e-06 0 0)
(9.69298e-06 0 0)
(9.69283e-06 0 0)
(9.69266e-06 0 0)
(9.69249e-06 0 0)
(9.69232e-06 0 0)
(9.69214e-06 0 0)
(9.69195e-06 0 0)
(9.69175e-06 0 0)
(9.69154e-06 0 0)
(9.69132e-06 0 0)
(9.69109e-06 0 0)
(9.69084e-06 0 0)
(9.69057e-06 0 0)
(9.69028e-06 0 0)
(9.68997e-06 0 0)
(9.68964e-06 0 0)
(9.68928e-06 0 0)
(9.68889e-06 0 0)
(9.68847e-06 0 0)
(9.68801e-06 0 0)
(9.68752e-06 0 0)
(9.687e-06 0 0)
(9.68644e-06 0 0)
(9.68584e-06 0 0)
(9.6852e-06 0 0)
(9.68452e-06 0 0)
(9.68381e-06 0 0)
(9.68306e-06 0 0)
(9.68228e-06 0 0)
(9.68147e-06 0 0)
(9.68064e-06 0 0)
(9.67978e-06 0 0)
(9.67892e-06 0 0)
(9.67804e-06 0 0)
(9.67716e-06 0 0)
(9.67629e-06 0 0)
(9.67543e-06 0 0)
(9.67459e-06 0 0)
(9.67379e-06 0 0)
(9.67303e-06 0 0)
(9.67232e-06 0 0)
(9.67168e-06 0 0)
(9.67111e-06 0 0)
(9.67062e-06 0 0)
(9.67022e-06 0 0)
(9.66992e-06 0 0)
(9.66973e-06 0 0)
(9.66963e-06 0 0)
(9.66961e-06 0 0)
(9.66962e-06 0 0)
(9.6697e-06 0 0)
(9.66998e-06 0 0)
(9.67046e-06 0 0)
(9.67104e-06 0 0)
(9.67172e-06 0 0)
(9.67249e-06 0 0)
(9.67334e-06 0 0)
(9.67426e-06 0 0)
(9.67525e-06 0 0)
(9.67627e-06 0 0)
(9.67733e-06 0 0)
(9.67841e-06 0 0)
(9.67949e-06 0 0)
(9.68056e-06 0 0)
(9.68161e-06 0 0)
(9.68263e-06 0 0)
(9.68361e-06 0 0)
(9.68453e-06 0 0)
(9.6854e-06 0 0)
(9.6862e-06 0 0)
(9.68693e-06 0 0)
(9.68759e-06 0 0)
(9.68817e-06 0 0)
(9.68869e-06 0 0)
(9.68913e-06 0 0)
(9.6895e-06 0 0)
(9.68981e-06 0 0)
(9.69006e-06 0 0)
(9.69025e-06 0 0)
(9.69039e-06 0 0)
(9.69048e-06 0 0)
(9.69053e-06 0 0)
(9.69056e-06 0 0)
(9.69056e-06 0 0)
(9.69055e-06 0 0)
(9.69052e-06 0 0)
(9.69044e-06 0 0)
(9.69035e-06 0 0)
(9.69026e-06 0 0)
(9.69017e-06 0 0)
(9.69008e-06 0 0)
(9.68999e-06 0 0)
(9.68992e-06 0 0)
(9.68985e-06 0 0)
(9.6898e-06 0 0)
(9.68976e-06 0 0)
(9.68973e-06 0 0)
(9.68972e-06 0 0)
(9.68971e-06 0 0)
(9.68972e-06 0 0)
(9.68973e-06 0 0)
(9.68977e-06 0 0)
(9.68984e-06 0 0)
(9.68992e-06 0 0)
(9.69001e-06 0 0)
(9.69012e-06 0 0)
(9.69024e-06 0 0)
(9.69037e-06 0 0)
(9.69052e-06 0 0)
(9.69067e-06 0 0)
(9.69083e-06 0 0)
(9.691e-06 0 0)
(9.69118e-06 0 0)
(9.69137e-06 0 0)
(9.69156e-06 0 0)
(9.69176e-06 0 0)
(9.69196e-06 0 0)
(9.69216e-06 0 0)
(9.69237e-06 0 0)
(9.69257e-06 0 0)
(9.69278e-06 0 0)
(9.69299e-06 0 0)
(9.6932e-06 0 0)
(9.69341e-06 0 0)
(9.69362e-06 0 0)
(9.69382e-06 0 0)
(9.69403e-06 0 0)
(9.69423e-06 0 0)
(9.69442e-06 0 0)
(9.69461e-06 0 0)
(9.6948e-06 0 0)
(9.69499e-06 0 0)
(9.69516e-06 0 0)
(9.69534e-06 0 0)
(9.69551e-06 0 0)
(9.69567e-06 0 0)
(9.69583e-06 0 0)
(9.69598e-06 0 0)
(9.69613e-06 0 0)
(9.69627e-06 0 0)
(9.6964e-06 0 0)
(9.69653e-06 0 0)
(9.69665e-06 0 0)
(9.69677e-06 0 0)
(9.69689e-06 0 0)
(9.697e-06 0 0)
(9.6971e-06 0 0)
(9.6972e-06 0 0)
(9.69729e-06 0 0)
(9.69738e-06 0 0)
(9.69747e-06 0 0)
(9.69755e-06 0 0)
(9.69763e-06 0 0)
(9.69771e-06 0 0)
(9.69778e-06 0 0)
(9.69785e-06 0 0)
(9.69792e-06 0 0)
(9.69798e-06 0 0)
(9.69804e-06 0 0)
(9.6981e-06 0 0)
(9.69816e-06 0 0)
(9.69821e-06 0 0)
(9.69826e-06 0 0)
(9.69831e-06 0 0)
(9.69835e-06 0 0)
(9.6984e-06 0 0)
(9.69843e-06 0 0)
(9.69847e-06 0 0)
(9.6985e-06 0 0)
(9.69853e-06 0 0)
(9.69855e-06 0 0)
(9.69857e-06 0 0)
(9.69858e-06 0 0)
(9.69859e-06 0 0)
(9.69859e-06 0 0)
(9.69859e-06 0 0)
(9.69858e-06 0 0)
(9.69857e-06 0 0)
(9.69856e-06 0 0)
(9.69853e-06 0 0)
(9.6985e-06 0 0)
(9.69846e-06 0 0)
(9.69841e-06 0 0)
(9.69836e-06 0 0)
(9.6983e-06 0 0)
(9.69823e-06 0 0)
(9.69816e-06 0 0)
(9.69808e-06 0 0)
(9.698e-06 0 0)
(9.69791e-06 0 0)
(9.69781e-06 0 0)
(9.69771e-06 0 0)
(9.6976e-06 0 0)
(9.69749e-06 0 0)
(9.69737e-06 0 0)
(9.69725e-06 0 0)
(9.69712e-06 0 0)
(9.69698e-06 0 0)
(9.69684e-06 0 0)
(9.69669e-06 0 0)
(9.69654e-06 0 0)
(9.69639e-06 0 0)
(9.69623e-06 0 0)
(9.69606e-06 0 0)
(9.69589e-06 0 0)
(9.69571e-06 0 0)
(9.69553e-06 0 0)
(9.69535e-06 0 0)
(9.69516e-06 0 0)
(9.69496e-06 0 0)
(9.69475e-06 0 0)
(9.69454e-06 0 0)
(9.69433e-06 0 0)
(9.6941e-06 0 0)
(9.69387e-06 0 0)
(9.69363e-06 0 0)
(9.69337e-06 0 0)
(9.69311e-06 0 0)
(9.69283e-06 0 0)
(9.69255e-06 0 0)
(9.69224e-06 0 0)
(9.69192e-06 0 0)
(9.69159e-06 0 0)
(9.69124e-06 0 0)
(9.69086e-06 0 0)
(9.69047e-06 0 0)
(9.69006e-06 0 0)
(9.68962e-06 0 0)
(9.68916e-06 0 0)
(9.68867e-06 0 0)
(9.68816e-06 0 0)
(9.68763e-06 0 0)
(9.68707e-06 0 0)
(9.68648e-06 0 0)
(9.68587e-06 0 0)
(9.68523e-06 0 0)
(9.68457e-06 0 0)
(9.68389e-06 0 0)
(9.68319e-06 0 0)
(9.68247e-06 0 0)
(9.68173e-06 0 0)
(9.68098e-06 0 0)
(9.68023e-06 0 0)
(9.67947e-06 0 0)
(9.67871e-06 0 0)
(9.67796e-06 0 0)
(9.67721e-06 0 0)
(9.67649e-06 0 0)
(9.67578e-06 0 0)
(9.6751e-06 0 0)
(9.67446e-06 0 0)
(9.67385e-06 0 0)
(9.67329e-06 0 0)
(9.67278e-06 0 0)
(9.67233e-06 0 0)
(9.67194e-06 0 0)
(9.67161e-06 0 0)
(9.67136e-06 0 0)
(9.67119e-06 0 0)
(9.6711e-06 0 0)
(9.67107e-06 0 0)
(9.67106e-06 0 0)
(9.67109e-06 0 0)
(9.67124e-06 0 0)
(9.67154e-06 0 0)
(9.67192e-06 0 0)
(9.67238e-06 0 0)
(9.67291e-06 0 0)
(9.67351e-06 0 0)
(9.67416e-06 0 0)
(9.67487e-06 0 0)
(9.67561e-06 0 0)
(9.67639e-06 0 0)
(9.67719e-06 0 0)
(9.67801e-06 0 0)
(9.67883e-06 0 0)
(9.67965e-06 0 0)
(9.68046e-06 0 0)
(9.68126e-06 0 0)
(9.68203e-06 0 0)
(9.68277e-06 0 0)
(9.68347e-06 0 0)
(9.68413e-06 0 0)
(9.68476e-06 0 0)
(9.68533e-06 0 0)
(9.68586e-06 0 0)
(9.68635e-06 0 0)
(9.68678e-06 0 0)
(9.68717e-06 0 0)
(9.68751e-06 0 0)
(9.68781e-06 0 0)
(9.68807e-06 0 0)
(9.68829e-06 0 0)
(9.68847e-06 0 0)
(9.68862e-06 0 0)
(9.68875e-06 0 0)
(9.68885e-06 0 0)
(9.68892e-06 0 0)
(9.68898e-06 0 0)
(9.68902e-06 0 0)
(9.68905e-06 0 0)
(9.68906e-06 0 0)
(9.68908e-06 0 0)
(9.68908e-06 0 0)
(9.68909e-06 0 0)
(9.68909e-06 0 0)
(9.68909e-06 0 0)
(9.68909e-06 0 0)
(9.6891e-06 0 0)
(9.68911e-06 0 0)
(9.68913e-06 0 0)
(9.68916e-06 0 0)
(9.6892e-06 0 0)
(9.68925e-06 0 0)
(9.68931e-06 0 0)
(9.68937e-06 0 0)
(9.68945e-06 0 0)
(9.68954e-06 0 0)
(9.68964e-06 0 0)
(9.68974e-06 0 0)
(9.68986e-06 0 0)
(9.68999e-06 0 0)
(9.69012e-06 0 0)
(9.69026e-06 0 0)
(9.69041e-06 0 0)
(9.69056e-06 0 0)
(9.69073e-06 0 0)
(9.69089e-06 0 0)
(9.69107e-06 0 0)
(9.69125e-06 0 0)
(9.69143e-06 0 0)
(9.69162e-06 0 0)
(9.69181e-06 0 0)
(9.692e-06 0 0)
(9.6922e-06 0 0)
(9.69239e-06 0 0)
(9.69259e-06 0 0)
(9.6928e-06 0 0)
(9.693e-06 0 0)
(9.6932e-06 0 0)
(9.6934e-06 0 0)
(9.69361e-06 0 0)
(9.69381e-06 0 0)
(9.69401e-06 0 0)
(9.6942e-06 0 0)
(9.6944e-06 0 0)
(9.69459e-06 0 0)
(9.69478e-06 0 0)
(9.69496e-06 0 0)
(9.69515e-06 0 0)
(9.69532e-06 0 0)
(9.6955e-06 0 0)
(9.69566e-06 0 0)
(9.69583e-06 0 0)
(9.69598e-06 0 0)
(9.69614e-06 0 0)
(9.69628e-06 0 0)
(9.69642e-06 0 0)
(9.69656e-06 0 0)
(9.69669e-06 0 0)
(9.69681e-06 0 0)
(9.69692e-06 0 0)
(9.69703e-06 0 0)
(9.69714e-06 0 0)
(9.69724e-06 0 0)
(9.69733e-06 0 0)
(9.69741e-06 0 0)
(9.69749e-06 0 0)
(9.69756e-06 0 0)
(9.69763e-06 0 0)
(9.69769e-06 0 0)
(9.69775e-06 0 0)
(9.6978e-06 0 0)
(9.69785e-06 0 0)
(9.69789e-06 0 0)
(9.69793e-06 0 0)
(9.69796e-06 0 0)
(9.69799e-06 0 0)
(9.69801e-06 0 0)
(9.69803e-06 0 0)
(9.69805e-06 0 0)
(9.69807e-06 0 0)
(9.69808e-06 0 0)
(9.69808e-06 0 0)
(9.69809e-06 0 0)
(9.69809e-06 0 0)
(9.69809e-06 0 0)
(9.69808e-06 0 0)
(9.69808e-06 0 0)
(9.69807e-06 0 0)
(9.69805e-06 0 0)
(9.69803e-06 0 0)
(9.69801e-06 0 0)
(9.69799e-06 0 0)
(9.69796e-06 0 0)
(9.69792e-06 0 0)
(9.69789e-06 0 0)
(9.69784e-06 0 0)
(9.69779e-06 0 0)
(9.69774e-06 0 0)
(9.69769e-06 0 0)
(9.69762e-06 0 0)
(9.69755e-06 0 0)
(9.69748e-06 0 0)
(9.6974e-06 0 0)
(9.69731e-06 0 0)
(9.69721e-06 0 0)
(9.69711e-06 0 0)
(9.697e-06 0 0)
(9.69688e-06 0 0)
(9.69676e-06 0 0)
(9.69662e-06 0 0)
(9.69648e-06 0 0)
(9.69633e-06 0 0)
(9.69617e-06 0 0)
(9.696e-06 0 0)
(9.69582e-06 0 0)
(9.69563e-06 0 0)
(9.69544e-06 0 0)
(9.69523e-06 0 0)
(9.69501e-06 0 0)
(9.69479e-06 0 0)
(9.69455e-06 0 0)
(9.6943e-06 0 0)
(9.69404e-06 0 0)
(9.69376e-06 0 0)
(9.69348e-06 0 0)
(9.69318e-06 0 0)
(9.69287e-06 0 0)
(9.69255e-06 0 0)
(9.69221e-06 0 0)
(9.69186e-06 0 0)
(9.69149e-06 0 0)
(9.69111e-06 0 0)
(9.69071e-06 0 0)
(9.69029e-06 0 0)
(9.68986e-06 0 0)
(9.68941e-06 0 0)
(9.68894e-06 0 0)
(9.68846e-06 0 0)
(9.68795e-06 0 0)
(9.68743e-06 0 0)
(9.68689e-06 0 0)
(9.68633e-06 0 0)
(9.68575e-06 0 0)
(9.68516e-06 0 0)
(9.68455e-06 0 0)
(9.68392e-06 0 0)
(9.68329e-06 0 0)
(9.68264e-06 0 0)
(9.68198e-06 0 0)
(9.68131e-06 0 0)
(9.68063e-06 0 0)
(9.67996e-06 0 0)
(9.67928e-06 0 0)
(9.67861e-06 0 0)
(9.67794e-06 0 0)
(9.67728e-06 0 0)
(9.67663e-06 0 0)
(9.67601e-06 0 0)
(9.6754e-06 0 0)
(9.67482e-06 0 0)
(9.67427e-06 0 0)
(9.67375e-06 0 0)
(9.67328e-06 0 0)
(9.67284e-06 0 0)
(9.67246e-06 0 0)
(9.67212e-06 0 0)
(9.67184e-06 0 0)
(9.67161e-06 0 0)
(9.67145e-06 0 0)
(9.67136e-06 0 0)
(9.67132e-06 0 0)
(9.67131e-06 0 0)
(9.67132e-06 0 0)
(9.67141e-06 0 0)
(9.67161e-06 0 0)
(9.67191e-06 0 0)
(9.67227e-06 0 0)
(9.67269e-06 0 0)
(9.67318e-06 0 0)
(9.67371e-06 0 0)
(9.6743e-06 0 0)
(9.67493e-06 0 0)
(9.67559e-06 0 0)
(9.67629e-06 0 0)
(9.67702e-06 0 0)
(9.67776e-06 0 0)
(9.67852e-06 0 0)
(9.67928e-06 0 0)
(9.68004e-06 0 0)
(9.68079e-06 0 0)
(9.68153e-06 0 0)
(9.68226e-06 0 0)
(9.68296e-06 0 0)
(9.68364e-06 0 0)
(9.68429e-06 0 0)
(9.6849e-06 0 0)
(9.68549e-06 0 0)
(9.68604e-06 0 0)
(9.68655e-06 0 0)
(9.68702e-06 0 0)
(9.68746e-06 0 0)
(9.68786e-06 0 0)
(9.68823e-06 0 0)
(9.68857e-06 0 0)
(9.68887e-06 0 0)
(9.68914e-06 0 0)
(9.68938e-06 0 0)
(9.6896e-06 0 0)
(9.6898e-06 0 0)
(9.68997e-06 0 0)
(9.69012e-06 0 0)
(9.69026e-06 0 0)
(9.69039e-06 0 0)
(9.6905e-06 0 0)
(9.6906e-06 0 0)
(9.69069e-06 0 0)
(9.69077e-06 0 0)
(9.69086e-06 0 0)
(9.69093e-06 0 0)
(9.69101e-06 0 0)
(9.69109e-06 0 0)
(9.69116e-06 0 0)
(9.69124e-06 0 0)
(9.69132e-06 0 0)
(9.6914e-06 0 0)
(9.69148e-06 0 0)
(9.69157e-06 0 0)
(9.69166e-06 0 0)
(9.69175e-06 0 0)
(9.69185e-06 0 0)
(9.69196e-06 0 0)
(9.69207e-06 0 0)
(9.69218e-06 0 0)
(9.69229e-06 0 0)
(9.69241e-06 0 0)
(9.69253e-06 0 0)
(9.69265e-06 0 0)
(9.69278e-06 0 0)
(9.69291e-06 0 0)
(9.69305e-06 0 0)
(9.69318e-06 0 0)
(9.69332e-06 0 0)
(9.69346e-06 0 0)
(9.6936e-06 0 0)
(9.69374e-06 0 0)
(9.69388e-06 0 0)
(9.69402e-06 0 0)
(9.69417e-06 0 0)
(9.69431e-06 0 0)
(9.69446e-06 0 0)
(9.6946e-06 0 0)
(9.69475e-06 0 0)
(9.69489e-06 0 0)
(9.69504e-06 0 0)
(9.69518e-06 0 0)
(9.69532e-06 0 0)
(9.69546e-06 0 0)
(9.6956e-06 0 0)
(9.69574e-06 0 0)
(9.69588e-06 0 0)
(9.69602e-06 0 0)
(9.69615e-06 0 0)
(9.69629e-06 0 0)
(9.69642e-06 0 0)
(9.69655e-06 0 0)
(9.69667e-06 0 0)
(9.6968e-06 0 0)
(9.69692e-06 0 0)
(9.69704e-06 0 0)
(9.69715e-06 0 0)
(9.69726e-06 0 0)
(9.69737e-06 0 0)
(9.69748e-06 0 0)
(9.69758e-06 0 0)
(9.69767e-06 0 0)
(9.69776e-06 0 0)
(9.69785e-06 0 0)
(9.69793e-06 0 0)
(9.69801e-06 0 0)
(9.69809e-06 0 0)
(9.69815e-06 0 0)
(9.69822e-06 0 0)
(9.69828e-06 0 0)
(9.69833e-06 0 0)
(9.69838e-06 0 0)
(9.69842e-06 0 0)
(9.69846e-06 0 0)
(9.69849e-06 0 0)
(9.69852e-06 0 0)
(9.69854e-06 0 0)
(9.69856e-06 0 0)
(9.69858e-06 0 0)
(9.69858e-06 0 0)
(9.69859e-06 0 0)
(9.69859e-06 0 0)
(9.69859e-06 0 0)
(9.69858e-06 0 0)
(9.69857e-06 0 0)
(9.69856e-06 0 0)
(9.69854e-06 0 0)
(9.69851e-06 0 0)
(9.69849e-06 0 0)
(9.69846e-06 0 0)
(9.69842e-06 0 0)
(9.69839e-06 0 0)
(9.69835e-06 0 0)
(9.69831e-06 0 0)
(9.69826e-06 0 0)
(9.69821e-06 0 0)
(9.69816e-06 0 0)
(9.6981e-06 0 0)
(9.69805e-06 0 0)
(9.69799e-06 0 0)
(9.69792e-06 0 0)
(9.69786e-06 0 0)
(9.69779e-06 0 0)
(9.69771e-06 0 0)
(9.69763e-06 0 0)
(9.69755e-06 0 0)
(9.69746e-06 0 0)
(9.69737e-06 0 0)
(9.69727e-06 0 0)
(9.69716e-06 0 0)
(9.69705e-06 0 0)
(9.69693e-06 0 0)
(9.6968e-06 0 0)
(9.69666e-06 0 0)
(9.69652e-06 0 0)
(9.69637e-06 0 0)
(9.6962e-06 0 0)
(9.69603e-06 0 0)
(9.69584e-06 0 0)
(9.69564e-06 0 0)
(9.69543e-06 0 0)
(9.69521e-06 0 0)
(9.69497e-06 0 0)
(9.69472e-06 0 0)
(9.69446e-06 0 0)
(9.69418e-06 0 0)
(9.69389e-06 0 0)
(9.69358e-06 0 0)
(9.69325e-06 0 0)
(9.69291e-06 0 0)
(9.69255e-06 0 0)
(9.69217e-06 0 0)
(9.69177e-06 0 0)
(9.69136e-06 0 0)
(9.69092e-06 0 0)
(9.69047e-06 0 0)
(9.69e-06 0 0)
)
;

boundaryField
{
    inlet
    {
        type            fixedValue;
        value           uniform (0 0 0);
    }
    outlet
    {
        type            zeroGradient;
    }
    emptyWalls
    {
        type            empty;
    }
}


// ************************************************************************* //
