/*--------------------------------*- C++ -*----------------------------------*\
  =========                 |
  \\      /  F ield         | OpenFOAM: The Open Source CFD Toolbox
   \\    /   O peration     | Website:  https://openfoam.org
    \\  /    A nd           | Version:  9
     \\/     M anipulation  |
\*---------------------------------------------------------------------------*/
FoamFile
{
    format      ascii;
    class       volScalarField;
    location    "85000";
    object      krc;
}
// * * * * * * * * * * * * * * * * * * * * * * * * * * * * * * * * * * * * * //

dimensions      [0 0 0 0 0 0 0];

internalField   nonuniform List<scalar> 
100
(
4.62896e-22
5.37224e-24
5.52765e-24
7.87028e-24
1.08468e-24
6.22265e-24
9.31411e-25
3.19674e-26
3.7589e-24
1.55522e-24
4.09676e-24
9.78449e-26
1.68123e-24
2.86649e-24
5.14542e-24
3.52256e-24
4.65076e-24
8.01573e-25
4.40324e-24
6.35613e-24
4.48056e-25
6.37911e-24
1.15293e-24
4.83885e-24
3.6862e-24
5.41052e-24
3.50461e-24
5.18789e-24
3.69042e-24
4.4993e-24
2.90998e-24
1.33457e-24
7.38809e-24
6.14534e-24
1.10926e-25
6.69745e-24
9.88633e-25
5.76949e-25
8.1711e-25
1.47789e-24
5.99952e-25
5.27948e-24
1.65268e-23
4.81555e-25
9.14528e-24
2.8012e-24
7.70139e-28
1.6769e-23
3.32939e-29
2.498e-25
4.98289e-24
3.23772e-24
1.67433e-23
5.03593e-25
7.10137e-26
1.11274e-23
7.78823e-25
1.89529e-24
1.05073e-23
7.07441e-24
7.00858e-24
4.49231e-24
1.67675e-24
3.52728e-24
7.87647e-27
7.00193e-24
4.49697e-24
6.3692e-24
4.22164e-24
9.84844e-26
5.389e-24
4.47535e-24
8.09323e-25
1.45829e-24
5.08718e-24
3.90055e-24
1.78433e-23
2.92616e-23
9.00451e-23
7.78082e-23
1.74797e-22
1.39716e-22
2.98138e-22
5.07983e-22
6.57476e-22
9.6545e-22
1.44153e-21
2.07338e-21
2.84614e-21
4.09436e-21
5.57947e-21
7.82377e-21
1.21119e-20
1.4295e-20
3.36179e-21
6.4492e-20
5.38648e-18
2.48986e-17
6.23308e-16
4.00089e-15
)
;

boundaryField
{
    inlet
    {
        type            calculated;
        value           uniform 4.62896e-22;
    }
    outlet
    {
        type            calculated;
        value           uniform 4.00089e-15;
    }
    emptyWalls
    {
        type            empty;
    }
}


// ************************************************************************* //
