/*--------------------------------*- C++ -*----------------------------------*\
  =========                 |
  \\      /  F ield         | OpenFOAM: The Open Source CFD Toolbox
   \\    /   O peration     | Website:  https://openfoam.org
    \\  /    A nd           | Version:  9
     \\/     M anipulation  |
\*---------------------------------------------------------------------------*/
FoamFile
{
    format      ascii;
    class       volScalarField;
    location    "4000";
    object      kra;
}
// * * * * * * * * * * * * * * * * * * * * * * * * * * * * * * * * * * * * * //

dimensions      [0 0 0 0 0 0 0];

internalField   nonuniform List<scalar> 
100
(
4.06136e-05
2.99526e-05
3.24917e-05
3.10414e-05
3.11174e-05
3.07223e-05
3.05337e-05
3.03045e-05
3.01141e-05
2.99302e-05
2.97607e-05
2.96001e-05
2.94484e-05
2.9304e-05
2.91659e-05
2.90335e-05
2.8906e-05
2.87829e-05
2.86635e-05
2.85475e-05
2.84343e-05
2.83236e-05
2.82147e-05
2.81072e-05
2.80005e-05
2.78938e-05
2.77862e-05
2.76764e-05
2.75624e-05
2.74414e-05
2.73083e-05
2.73997e-05
2.7417e-05
2.74602e-05
2.74902e-05
2.7523e-05
2.75527e-05
2.75817e-05
2.76093e-05
2.76359e-05
2.76614e-05
2.76861e-05
2.77098e-05
2.77327e-05
2.77548e-05
2.77762e-05
2.77967e-05
2.78166e-05
2.78357e-05
2.78541e-05
2.78719e-05
2.7889e-05
2.79054e-05
2.79212e-05
2.79365e-05
2.79511e-05
2.79651e-05
2.79786e-05
2.79915e-05
2.80039e-05
2.80158e-05
2.80272e-05
2.8038e-05
2.80483e-05
2.80582e-05
2.80675e-05
2.80764e-05
2.80847e-05
2.80926e-05
2.80999e-05
2.81068e-05
2.81132e-05
2.81191e-05
2.81245e-05
2.81294e-05
2.81339e-05
2.81379e-05
2.81414e-05
2.81444e-05
2.8147e-05
2.81491e-05
2.81507e-05
2.81519e-05
2.81526e-05
2.81528e-05
2.81526e-05
2.81519e-05
2.81508e-05
2.81491e-05
2.8147e-05
2.81444e-05
2.81413e-05
2.81377e-05
2.81335e-05
2.81288e-05
2.81236e-05
2.81178e-05
2.81115e-05
2.81045e-05
7.48178e-05
)
;

boundaryField
{
    inlet
    {
        type            calculated;
        value           uniform 1.21092e-05;
    }
    outlet
    {
        type            calculated;
        value           uniform 8.28026e-06;
    }
    emptyWalls
    {
        type            empty;
    }
}


// ************************************************************************* //
