/*--------------------------------*- C++ -*----------------------------------*\
  =========                 |
  \\      /  F ield         | OpenFOAM: The Open Source CFD Toolbox
   \\    /   O peration     | Website:  https://openfoam.org
    \\  /    A nd           | Version:  9
     \\/     M anipulation  |
\*---------------------------------------------------------------------------*/
FoamFile
{
    format      ascii;
    class       volScalarField;
    location    "4000";
    object      p;
}
// * * * * * * * * * * * * * * * * * * * * * * * * * * * * * * * * * * * * * //

dimensions      [0 0 0 0 0 0 0];

internalField   nonuniform List<scalar> 
100
(
6.09084e+06
6.08284e+06
6.072e+06
6.062e+06
6.05155e+06
6.04113e+06
6.03058e+06
6.01997e+06
6.00929e+06
5.99854e+06
5.98774e+06
5.97688e+06
5.96598e+06
5.95502e+06
5.94402e+06
5.93297e+06
5.92188e+06
5.91075e+06
5.89958e+06
5.88837e+06
5.87713e+06
5.86585e+06
5.85453e+06
5.84319e+06
5.8318e+06
5.82039e+06
5.80894e+06
5.79746e+06
5.78594e+06
5.77439e+06
5.76281e+06
5.75118e+06
5.73961e+06
5.72806e+06
5.71654e+06
5.70505e+06
5.69359e+06
5.68216e+06
5.67075e+06
5.65937e+06
5.64802e+06
5.63668e+06
5.62538e+06
5.6141e+06
5.60284e+06
5.5916e+06
5.58039e+06
5.5692e+06
5.55804e+06
5.5469e+06
5.53578e+06
5.52468e+06
5.51361e+06
5.50256e+06
5.49153e+06
5.48052e+06
5.46954e+06
5.45857e+06
5.44763e+06
5.43671e+06
5.42581e+06
5.41493e+06
5.40408e+06
5.39324e+06
5.38243e+06
5.37164e+06
5.36086e+06
5.35011e+06
5.33938e+06
5.32867e+06
5.31799e+06
5.30732e+06
5.29667e+06
5.28605e+06
5.27544e+06
5.26486e+06
5.25429e+06
5.24375e+06
5.23323e+06
5.22272e+06
5.21224e+06
5.20178e+06
5.19134e+06
5.18092e+06
5.17052e+06
5.16015e+06
5.14979e+06
5.13945e+06
5.12914e+06
5.11884e+06
5.10857e+06
5.09832e+06
5.08809e+06
5.07788e+06
5.06769e+06
5.05752e+06
5.04738e+06
5.03726e+06
5.02716e+06
5.01708e+06
)
;

boundaryField
{
    inlet
    {
        type            darcyGradPressure;
        gradient        uniform 3.93064e+06;
        Mf              Mf;
        phi             phi;
        value           uniform 6.0987e+06;
    }
    outlet
    {
        type            fixedValue;
        value           uniform 5e+06;
    }
    emptyWalls
    {
        type            empty;
    }
}


// ************************************************************************* //
