/*--------------------------------*- C++ -*----------------------------------*\
  =========                 |
  \\      /  F ield         | OpenFOAM: The Open Source CFD Toolbox
   \\    /   O peration     | Website:  https://openfoam.org
    \\  /    A nd           | Version:  9
     \\/     M anipulation  |
\*---------------------------------------------------------------------------*/
FoamFile
{
    format      ascii;
    class       surfaceScalarField;
    location    "4000";
    object      phia;
}
// * * * * * * * * * * * * * * * * * * * * * * * * * * * * * * * * * * * * * //

dimensions      [0 2 0 0 0 0 0];

internalField   nonuniform List<scalar> 
99
(
1.42066e-08
1.42003e-08
1.41932e-08
1.41857e-08
1.41779e-08
1.41697e-08
1.41613e-08
1.41526e-08
1.41437e-08
1.41346e-08
1.41252e-08
1.41157e-08
1.41059e-08
1.4096e-08
1.40859e-08
1.40756e-08
1.40652e-08
1.40545e-08
1.40437e-08
1.40326e-08
1.40214e-08
1.40098e-08
1.39981e-08
1.3986e-08
1.39735e-08
1.39606e-08
1.3947e-08
1.39328e-08
1.39174e-08
1.39006e-08
1.38811e-08
1.38611e-08
1.38426e-08
1.38245e-08
1.38068e-08
1.37894e-08
1.3772e-08
1.37547e-08
1.37374e-08
1.372e-08
1.37025e-08
1.36849e-08
1.36672e-08
1.36494e-08
1.36314e-08
1.36133e-08
1.35951e-08
1.35767e-08
1.35581e-08
1.35394e-08
1.35205e-08
1.35015e-08
1.34822e-08
1.34628e-08
1.34433e-08
1.34236e-08
1.34037e-08
1.33836e-08
1.33634e-08
1.3343e-08
1.33225e-08
1.33018e-08
1.32809e-08
1.32599e-08
1.32387e-08
1.32173e-08
1.31958e-08
1.3174e-08
1.31521e-08
1.313e-08
1.31077e-08
1.30852e-08
1.30624e-08
1.30395e-08
1.30164e-08
1.2993e-08
1.29695e-08
1.29457e-08
1.29217e-08
1.28974e-08
1.2873e-08
1.28483e-08
1.28233e-08
1.27981e-08
1.27727e-08
1.2747e-08
1.2721e-08
1.26947e-08
1.26681e-08
1.26413e-08
1.26141e-08
1.25866e-08
1.25587e-08
1.25304e-08
1.25018e-08
1.24727e-08
1.24431e-08
1.24131e-08
1.23826e-08
)
;

boundaryField
{
    inlet
    {
        type            calculated;
        value           uniform -1.42126e-08;
    }
    outlet
    {
        type            calculated;
        value           uniform 1.23634e-08;
    }
    emptyWalls
    {
        type            empty;
        value           nonuniform List<scalar> 0();
    }
}


// ************************************************************************* //
