/*--------------------------------*- C++ -*----------------------------------*\
  =========                 |
  \\      /  F ield         | OpenFOAM: The Open Source CFD Toolbox
   \\    /   O peration     | Website:  https://openfoam.org
    \\  /    A nd           | Version:  9
     \\/     M anipulation  |
\*---------------------------------------------------------------------------*/
FoamFile
{
    format      ascii;
    class       surfaceScalarField;
    location    "4000";
    object      phib;
}
// * * * * * * * * * * * * * * * * * * * * * * * * * * * * * * * * * * * * * //

dimensions      [0 2 0 0 0 0 0];

internalField   nonuniform List<scalar> 
99
(
6.09091e-09
6.09064e-09
6.09033e-09
6.09002e-09
6.08969e-09
6.08934e-09
6.08898e-09
6.08862e-09
6.08824e-09
6.08785e-09
6.08745e-09
6.08705e-09
6.08664e-09
6.08622e-09
6.08579e-09
6.08536e-09
6.08492e-09
6.08447e-09
6.08402e-09
6.08355e-09
6.08308e-09
6.0826e-09
6.0821e-09
6.0816e-09
6.08108e-09
6.08054e-09
6.07997e-09
6.07937e-09
6.07873e-09
6.07802e-09
6.07752e-09
6.07904e-09
6.07976e-09
6.08058e-09
6.0812e-09
6.0818e-09
6.08237e-09
6.08293e-09
6.08351e-09
6.08409e-09
6.08467e-09
6.08527e-09
6.08588e-09
6.0865e-09
6.08714e-09
6.08779e-09
6.08846e-09
6.08915e-09
6.08987e-09
6.09061e-09
6.09137e-09
6.09216e-09
6.09298e-09
6.09382e-09
6.09468e-09
6.09556e-09
6.09644e-09
6.09734e-09
6.09825e-09
6.09916e-09
6.10008e-09
6.101e-09
6.10192e-09
6.10285e-09
6.10379e-09
6.10475e-09
6.10571e-09
6.10669e-09
6.1077e-09
6.10872e-09
6.10976e-09
6.11083e-09
6.11192e-09
6.11304e-09
6.11418e-09
6.11535e-09
6.11655e-09
6.11776e-09
6.11901e-09
6.12027e-09
6.12155e-09
6.12286e-09
6.12419e-09
6.12553e-09
6.1269e-09
6.12829e-09
6.1297e-09
6.13114e-09
6.1326e-09
6.13409e-09
6.13561e-09
6.13716e-09
6.13875e-09
6.14037e-09
6.14203e-09
6.14374e-09
6.14548e-09
6.14728e-09
6.14912e-09
)
;

boundaryField
{
    inlet
    {
        type            calculated;
        value           uniform -6.09112e-09;
    }
    outlet
    {
        type            calculated;
        value           uniform 6.14903e-09;
    }
    emptyWalls
    {
        type            empty;
        value           nonuniform List<scalar> 0();
    }
}


// ************************************************************************* //
