/*--------------------------------*- C++ -*----------------------------------*\
  =========                 |
  \\      /  F ield         | OpenFOAM: The Open Source CFD Toolbox
   \\    /   O peration     | Website:  https://openfoam.org
    \\  /    A nd           | Version:  9
     \\/     M anipulation  |
\*---------------------------------------------------------------------------*/
FoamFile
{
    format      ascii;
    class       surfaceScalarField;
    location    "4000";
    object      phic;
}
// * * * * * * * * * * * * * * * * * * * * * * * * * * * * * * * * * * * * * //

dimensions      [0 2 0 0 0 0 0];

internalField   nonuniform List<scalar> 
99
(
6.177e-12
1.28157e-11
2.01869e-11
2.79667e-11
3.61448e-11
4.46461e-11
5.34411e-11
6.24999e-11
7.18023e-11
8.13316e-11
9.10752e-11
1.01023e-10
1.11168e-10
1.21505e-10
1.32031e-10
1.42745e-10
1.53649e-10
1.64747e-10
1.76046e-10
1.87557e-10
1.99297e-10
2.11289e-10
2.23564e-10
2.36168e-10
2.49163e-10
2.62638e-10
2.76723e-10
2.9161e-10
3.07598e-10
3.25165e-10
3.45119e-10
3.63575e-10
3.81379e-10
3.98675e-10
4.15704e-10
4.32559e-10
4.49337e-10
4.66092e-10
4.82868e-10
4.99693e-10
5.16591e-10
5.33577e-10
5.50665e-10
5.67865e-10
5.85183e-10
6.02626e-10
6.20198e-10
6.37903e-10
6.55744e-10
6.73724e-10
6.91845e-10
7.1011e-10
7.28518e-10
7.47074e-10
7.65776e-10
7.84629e-10
8.03631e-10
8.22786e-10
8.42094e-10
8.61557e-10
8.81176e-10
9.00953e-10
9.20889e-10
9.40985e-10
9.61243e-10
9.81665e-10
1.00225e-09
1.02301e-09
1.04393e-09
1.06503e-09
1.0863e-09
1.10775e-09
1.12937e-09
1.15118e-09
1.17317e-09
1.19535e-09
1.21772e-09
1.24029e-09
1.26306e-09
1.28603e-09
1.30922e-09
1.33262e-09
1.35623e-09
1.38008e-09
1.40416e-09
1.42848e-09
1.45305e-09
1.47788e-09
1.50298e-09
1.52836e-09
1.55404e-09
1.58002e-09
1.60632e-09
1.63295e-09
1.65995e-09
1.68732e-09
1.7151e-09
1.74331e-09
1.77198e-09
)
;

boundaryField
{
    inlet
    {
        type            calculated;
        value           uniform 0;
    }
    outlet
    {
        type            calculated;
        value           uniform 1.79126e-09;
    }
    emptyWalls
    {
        type            empty;
        value           nonuniform List<scalar> 0();
    }
}


// ************************************************************************* //
