/*--------------------------------*- C++ -*----------------------------------*\
  =========                 |
  \\      /  F ield         | OpenFOAM: The Open Source CFD Toolbox
   \\    /   O peration     | Website:  https://openfoam.org
    \\  /    A nd           | Version:  9
     \\/     M anipulation  |
\*---------------------------------------------------------------------------*/
FoamFile
{
    format      ascii;
    class       volVectorField;
    location    "4000";
    object      Ua;
}
// * * * * * * * * * * * * * * * * * * * * * * * * * * * * * * * * * * * * * //

dimensions      [0 0 0 0 0 0 0];

internalField   nonuniform List<vector> 
100
(
(0 0 8.96433e-06)
(0 0 1.13028e-05)
(0 0 1.12974e-05)
(0 0 1.12916e-05)
(0 0 1.12855e-05)
(0 0 1.12792e-05)
(0 0 1.12726e-05)
(0 0 1.12658e-05)
(0 0 1.12587e-05)
(0 0 1.12516e-05)
(0 0 1.12442e-05)
(0 0 1.12367e-05)
(0 0 1.1229e-05)
(0 0 1.12212e-05)
(0 0 1.12132e-05)
(0 0 1.12051e-05)
(0 0 1.11969e-05)
(0 0 1.11885e-05)
(0 0 1.11799e-05)
(0 0 1.11712e-05)
(0 0 1.11623e-05)
(0 0 1.11533e-05)
(0 0 1.1144e-05)
(0 0 1.11345e-05)
(0 0 1.11247e-05)
(0 0 1.11146e-05)
(0 0 1.11041e-05)
(0 0 1.1093e-05)
(0 0 1.10812e-05)
(0 0 1.10684e-05)
(0 0 1.1054e-05)
(0 0 1.10383e-05)
(0 0 1.1023e-05)
(0 0 1.10084e-05)
(0 0 1.09941e-05)
(0 0 1.09802e-05)
(0 0 1.09663e-05)
(0 0 1.09525e-05)
(0 0 1.09387e-05)
(0 0 1.09249e-05)
(0 0 1.0911e-05)
(0 0 1.08971e-05)
(0 0 1.0883e-05)
(0 0 1.08689e-05)
(0 0 1.08547e-05)
(0 0 1.08403e-05)
(0 0 1.08259e-05)
(0 0 1.08113e-05)
(0 0 1.07966e-05)
(0 0 1.07818e-05)
(0 0 1.07668e-05)
(0 0 1.07517e-05)
(0 0 1.07365e-05)
(0 0 1.07211e-05)
(0 0 1.07056e-05)
(0 0 1.069e-05)
(0 0 1.06742e-05)
(0 0 1.06583e-05)
(0 0 1.06423e-05)
(0 0 1.06261e-05)
(0 0 1.06099e-05)
(0 0 1.05935e-05)
(0 0 1.05769e-05)
(0 0 1.05603e-05)
(0 0 1.05435e-05)
(0 0 1.05265e-05)
(0 0 1.05094e-05)
(0 0 1.04922e-05)
(0 0 1.04748e-05)
(0 0 1.04573e-05)
(0 0 1.04396e-05)
(0 0 1.04218e-05)
(0 0 1.04038e-05)
(0 0 1.03856e-05)
(0 0 1.03673e-05)
(0 0 1.03488e-05)
(0 0 1.03301e-05)
(0 0 1.03113e-05)
(0 0 1.02923e-05)
(0 0 1.02731e-05)
(0 0 1.02537e-05)
(0 0 1.02342e-05)
(0 0 1.02144e-05)
(0 0 1.01944e-05)
(0 0 1.01743e-05)
(0 0 1.01539e-05)
(0 0 1.01334e-05)
(0 0 1.01126e-05)
(0 0 1.00916e-05)
(0 0 1.00703e-05)
(0 0 1.00488e-05)
(0 0 1.0027e-05)
(0 0 1.0005e-05)
(0 0 9.98263e-06)
(0 0 9.95998e-06)
(0 0 9.93701e-06)
(0 0 9.91369e-06)
(0 0 9.89001e-06)
(0 0 9.86593e-06)
(0 0 9.84615e-06)
)
;

boundaryField
{
    inlet
    {
        type            fixedValue;
        value           uniform (0 0 1.131e-05);
    }
    outlet
    {
        type            zeroGradient;
    }
    emptyWalls
    {
        type            empty;
    }
}


// ************************************************************************* //
