/*--------------------------------*- C++ -*----------------------------------*\
  =========                 |
  \\      /  F ield         | OpenFOAM: The Open Source CFD Toolbox
   \\    /   O peration     | Website:  https://openfoam.org
    \\  /    A nd           | Version:  9
     \\/     M anipulation  |
\*---------------------------------------------------------------------------*/
FoamFile
{
    format      ascii;
    class       volVectorField;
    location    "4000";
    object      Ub;
}
// * * * * * * * * * * * * * * * * * * * * * * * * * * * * * * * * * * * * * //

dimensions      [0 0 0 0 0 0 0];

internalField   nonuniform List<vector> 
100
(
(0 0 7.18558e-06)
(0 0 4.84688e-06)
(0 0 4.84665e-06)
(0 0 4.84641e-06)
(0 0 4.84615e-06)
(0 0 4.84588e-06)
(0 0 4.8456e-06)
(0 0 4.84531e-06)
(0 0 4.84502e-06)
(0 0 4.84471e-06)
(0 0 4.8444e-06)
(0 0 4.84408e-06)
(0 0 4.84376e-06)
(0 0 4.84343e-06)
(0 0 4.84309e-06)
(0 0 4.84275e-06)
(0 0 4.8424e-06)
(0 0 4.84205e-06)
(0 0 4.84169e-06)
(0 0 4.84132e-06)
(0 0 4.84095e-06)
(0 0 4.84057e-06)
(0 0 4.84018e-06)
(0 0 4.83978e-06)
(0 0 4.83938e-06)
(0 0 4.83895e-06)
(0 0 4.83851e-06)
(0 0 4.83805e-06)
(0 0 4.83756e-06)
(0 0 4.83702e-06)
(0 0 4.83654e-06)
(0 0 4.83694e-06)
(0 0 4.83783e-06)
(0 0 4.83845e-06)
(0 0 4.83902e-06)
(0 0 4.8395e-06)
(0 0 4.83997e-06)
(0 0 4.84042e-06)
(0 0 4.84087e-06)
(0 0 4.84133e-06)
(0 0 4.8418e-06)
(0 0 4.84227e-06)
(0 0 4.84275e-06)
(0 0 4.84324e-06)
(0 0 4.84374e-06)
(0 0 4.84425e-06)
(0 0 4.84478e-06)
(0 0 4.84532e-06)
(0 0 4.84588e-06)
(0 0 4.84646e-06)
(0 0 4.84705e-06)
(0 0 4.84767e-06)
(0 0 4.84831e-06)
(0 0 4.84897e-06)
(0 0 4.84965e-06)
(0 0 4.85034e-06)
(0 0 4.85104e-06)
(0 0 4.85175e-06)
(0 0 4.85247e-06)
(0 0 4.8532e-06)
(0 0 4.85392e-06)
(0 0 4.85465e-06)
(0 0 4.85539e-06)
(0 0 4.85613e-06)
(0 0 4.85687e-06)
(0 0 4.85762e-06)
(0 0 4.85839e-06)
(0 0 4.85916e-06)
(0 0 4.85995e-06)
(0 0 4.86076e-06)
(0 0 4.86158e-06)
(0 0 4.86242e-06)
(0 0 4.86328e-06)
(0 0 4.86416e-06)
(0 0 4.86506e-06)
(0 0 4.86598e-06)
(0 0 4.86692e-06)
(0 0 4.86788e-06)
(0 0 4.86886e-06)
(0 0 4.86985e-06)
(0 0 4.87087e-06)
(0 0 4.8719e-06)
(0 0 4.87295e-06)
(0 0 4.87401e-06)
(0 0 4.87509e-06)
(0 0 4.87619e-06)
(0 0 4.8773e-06)
(0 0 4.87844e-06)
(0 0 4.87959e-06)
(0 0 4.88076e-06)
(0 0 4.88196e-06)
(0 0 4.88318e-06)
(0 0 4.88443e-06)
(0 0 4.88571e-06)
(0 0 4.88701e-06)
(0 0 4.88835e-06)
(0 0 4.88973e-06)
(0 0 4.89113e-06)
(0 0 4.89258e-06)
(0 0 4.89328e-06)
)
;

boundaryField
{
    inlet
    {
        type            fixedValue;
        value           uniform (0 0 4.84716e-06);
    }
    outlet
    {
        type            zeroGradient;
    }
    emptyWalls
    {
        type            empty;
    }
}


// ************************************************************************* //
