/*--------------------------------*- C++ -*----------------------------------*\
  =========                 |
  \\      /  F ield         | OpenFOAM: The Open Source CFD Toolbox
   \\    /   O peration     | Website:  https://openfoam.org
    \\  /    A nd           | Version:  9
     \\/     M anipulation  |
\*---------------------------------------------------------------------------*/
FoamFile
{
    format      ascii;
    class       volVectorField;
    location    "4000";
    object      Uc;
}
// * * * * * * * * * * * * * * * * * * * * * * * * * * * * * * * * * * * * * //

dimensions      [0 0 0 0 0 0 0];

internalField   nonuniform List<vector> 
100
(
(0 0 7.28714e-09)
(0 0 7.55695e-09)
(0 0 1.31313e-08)
(0 0 1.91597e-08)
(0 0 2.55092e-08)
(0 0 3.21457e-08)
(0 0 3.90276e-08)
(0 0 4.61315e-08)
(0 0 5.34372e-08)
(0 0 6.09301e-08)
(0 0 6.85985e-08)
(0 0 7.64336e-08)
(0 0 8.44284e-08)
(0 0 9.25779e-08)
(0 0 1.00879e-07)
(0 0 1.0933e-07)
(0 0 1.17932e-07)
(0 0 1.26686e-07)
(0 0 1.35597e-07)
(0 0 1.44673e-07)
(0 0 1.53924e-07)
(0 0 1.63367e-07)
(0 0 1.73023e-07)
(0 0 1.82922e-07)
(0 0 1.93107e-07)
(0 0 2.03639e-07)
(0 0 2.14605e-07)
(0 0 2.26133e-07)
(0 0 2.38418e-07)
(0 0 2.51768e-07)
(0 0 2.66697e-07)
(0 0 2.8198e-07)
(0 0 2.96408e-07)
(0 0 3.10374e-07)
(0 0 3.24031e-07)
(0 0 3.37513e-07)
(0 0 3.50895e-07)
(0 0 3.64238e-07)
(0 0 3.77579e-07)
(0 0 3.90949e-07)
(0 0 4.04367e-07)
(0 0 4.17849e-07)
(0 0 4.31407e-07)
(0 0 4.45049e-07)
(0 0 4.58783e-07)
(0 0 4.72614e-07)
(0 0 4.86546e-07)
(0 0 5.00582e-07)
(0 0 5.14726e-07)
(0 0 5.28979e-07)
(0 0 5.43343e-07)
(0 0 5.5782e-07)
(0 0 5.72412e-07)
(0 0 5.87119e-07)
(0 0 6.01944e-07)
(0 0 6.16887e-07)
(0 0 6.31949e-07)
(0 0 6.47131e-07)
(0 0 6.62435e-07)
(0 0 6.77861e-07)
(0 0 6.93412e-07)
(0 0 7.09087e-07)
(0 0 7.24888e-07)
(0 0 7.40816e-07)
(0 0 7.56872e-07)
(0 0 7.73059e-07)
(0 0 7.89376e-07)
(0 0 8.05826e-07)
(0 0 8.2241e-07)
(0 0 8.39129e-07)
(0 0 8.55986e-07)
(0 0 8.72982e-07)
(0 0 8.9012e-07)
(0 0 9.07402e-07)
(0 0 9.24829e-07)
(0 0 9.42405e-07)
(0 0 9.60132e-07)
(0 0 9.78014e-07)
(0 0 9.96053e-07)
(0 0 1.01425e-06)
(0 0 1.03262e-06)
(0 0 1.05115e-06)
(0 0 1.06986e-06)
(0 0 1.08874e-06)
(0 0 1.10781e-06)
(0 0 1.12707e-06)
(0 0 1.14653e-06)
(0 0 1.16618e-06)
(0 0 1.18605e-06)
(0 0 1.20613e-06)
(0 0 1.22645e-06)
(0 0 1.247e-06)
(0 0 1.2678e-06)
(0 0 1.28886e-06)
(0 0 1.3102e-06)
(0 0 1.33184e-06)
(0 0 1.35378e-06)
(0 0 1.37606e-06)
(0 0 1.39869e-06)
(0 0 1.41777e-06)
)
;

boundaryField
{
    inlet
    {
        type            fixedValue;
        value           uniform (0 0 0);
    }
    outlet
    {
        type            zeroGradient;
    }
    emptyWalls
    {
        type            empty;
    }
}


// ************************************************************************* //
