/*--------------------------------*- C++ -*----------------------------------*\
  =========                 |
  \\      /  F ield         | OpenFOAM: The Open Source CFD Toolbox
   \\    /   O peration     | Website:  https://openfoam.org
    \\  /    A nd           | Version:  9
     \\/     M anipulation  |
\*---------------------------------------------------------------------------*/
FoamFile
{
    format      ascii;
    class       volScalarField;
    location    "8950";
    object      p;
}
// * * * * * * * * * * * * * * * * * * * * * * * * * * * * * * * * * * * * * //

dimensions      [0 0 0 0 0 0 0];

internalField   nonuniform List<scalar> 
1000
(
238659
238237
237820
237409
237003
236602
236206
235814
235426
235042
234666
234322
234064
233944
233852
233766
233682
233598
233515
233433
233351
233269
233187
233105
233023
232942
232860
232779
232697
232615
232533
232451
232369
232287
232204
232121
232036
231952
231866
231780
231694
231606
231518
231430
231340
231250
231159
231068
230976
230883
230790
230696
230601
230506
230410
230313
230216
230119
230020
229921
229822
229721
229621
229519
229417
229314
229211
229107
229003
228897
228792
228685
228578
228470
228362
228253
228144
228034
227923
227812
227700
227588
227475
227362
227248
227133
227018
226902
226786
226669
226552
226434
226316
226197
226077
225957
225836
225715
225594
225471
225349
225226
225102
224977
224853
224727
224601
224475
224348
224220
224092
223964
223835
223705
223575
223445
223314
223182
223050
222918
222785
222651
222517
222382
222247
222112
221976
221839
221702
221564
221426
221288
221149
221009
220869
220729
220588
220446
220304
220162
220019
219876
219732
219588
219443
219297
219152
219005
218859
218712
218564
218416
218267
218118
217969
217819
217668
217517
217366
217214
217062
216909
216756
216602
216448
216293
216138
215983
215827
215670
215513
215356
215198
215040
214881
214722
214562
214402
214242
214081
213919
213758
213595
213433
213269
213106
212942
212777
212612
212447
212281
212115
211948
211781
211613
211445
211277
211108
210939
210769
210599
210428
210257
210086
209914
209742
209569
209396
209223
209049
208874
208699
208524
208348
208172
207995
207818
207640
207462
207284
207105
206925
206745
206565
206384
206203
206021
205839
205656
205473
205290
205106
204921
204736
204551
204365
204179
203992
203805
203618
203430
203242
203053
202863
202674
202484
202293
202102
201910
201719
201526
201333
201140
200947
200752
200558
200363
200167
199972
199775
199578
199381
199184
198985
198787
198588
198389
198189
197988
197787
197586
197385
197182
196980
196777
196573
196369
196165
195960
195755
195549
195343
195136
194929
194722
194514
194305
194096
193887
193677
193467
193256
193045
192833
192621
192408
192195
191982
191768
191553
191339
191123
190907
190691
190474
190257
190039
189821
189602
189383
189164
188943
188723
188502
188280
188058
187836
187613
187389
187165
186941
186716
186490
186265
186038
185811
185584
185356
185128
184899
184669
184439
184209
183978
183747
183515
183283
183050
182817
182583
182349
182115
181880
181645
181410
181174
180938
180702
180466
180229
179992
179755
179518
179280
179041
178802
178560
178315
178065
177809
177546
177277
177004
176729
176452
176175
175898
175621
175343
175065
174788
174510
174233
173955
173678
173400
173123
172846
172568
172291
172013
171736
171459
171181
170904
170627
170350
170072
169795
169518
169241
168964
168687
168409
168132
167855
167578
167301
167023
166746
166469
166192
165915
165637
165360
165083
164805
164528
164251
163973
163696
163419
163141
162864
162586
162309
162031
161753
161476
161198
160921
160643
160365
160088
159810
159533
159255
158977
158700
158422
158144
157867
157589
157311
157034
156756
156478
156201
155923
155645
155368
155090
154812
154535
154257
153979
153702
153424
153146
152869
152591
152313
152035
151758
151480
151202
150925
150647
150369
150091
149814
149536
149258
148981
148703
148425
148147
147870
147592
147314
147036
146759
146481
146203
145925
145647
145370
145092
144814
144536
144258
143981
143703
143425
143147
142869
142592
142314
142036
141758
141480
141202
140925
140647
140369
140091
139813
139535
139257
138980
138702
138424
138146
137868
137590
137312
137035
136757
136479
136201
135923
135645
135367
135090
134812
134534
134256
133978
133700
133422
133144
132867
132589
132311
132033
131755
131477
131199
130922
130644
130366
130088
129810
129532
129255
128977
128699
128421
128143
127865
127588
127310
127032
126754
126476
126198
125921
125643
125365
125087
124809
124532
124254
123976
123698
123421
123143
122865
122587
122309
122032
121754
121476
121198
120921
120643
120365
120088
119810
119532
119255
118977
118699
118422
118144
117866
117589
117311
117034
116756
116479
116201
115924
115646
115369
115091
114814
114536
114259
113982
113704
113427
113150
112872
112595
112318
112040
111763
111486
111209
110931
110654
110377
110100
109823
109545
109268
108991
108714
108436
108159
107882
107605
107327
107050
106773
106495
106218
105941
105663
105386
105108
104831
104553
104276
103998
103721
103443
103166
102888
102611
102333
102055
101778
101500
101223
100945
100667
100390
100112
99834.4
99556.7
99279.1
99001.4
98723.8
98446.1
98168.4
97890.8
97613.1
97335.4
97057.8
96780.1
96502.4
96224.7
95947
95669.4
95391.7
95114
94836.3
94558.6
94280.9
94003.2
93725.5
93447.8
93170
92892.3
92614.6
92336.9
92059.1
91781.4
91503.7
91225.9
90948.2
90670.4
90392.7
90114.9
89837.1
89559.4
89281.6
89003.8
88726
88448.2
88170.4
87892.6
87614.8
87337
87059.2
86781.4
86503.6
86225.8
85947.9
85670.1
85392.3
85114.4
84836.6
84558.8
84280.9
84003.1
83725.2
83447.3
83169.5
82891.6
82613.8
82335.9
82058
81780.2
81502.3
81224.4
80946.5
80668.7
80390.8
80112.9
79835
79557.1
79279.2
79001.4
78723.5
78445.6
78167.7
77889.8
77611.9
77334.1
77056.2
76778.3
76500.4
76222.5
75944.6
75666.8
75388.9
75111
74833.2
74555.3
74277.4
73999.6
73721.7
73443.8
73166
72888.1
72610.3
72332.4
72054.6
71776.7
71498.9
71221.1
70943.2
70665.4
70387.6
70109.8
69831.9
69554.1
69276.3
68998.5
68720.7
68442.9
68165.1
67887.3
67609.5
67331.7
67054
66776.2
66498.4
66220.7
65942.9
65665.1
65387.4
65109.6
64831.9
64554.2
64276.4
63998.7
63721
63443.3
63165.6
62887.9
62610.2
62332.6
62054.9
61777.2
61499.6
61222
60944.3
60666.7
60389.1
60111.5
59834
59556.4
59278.9
59001.3
58723.8
58446.3
58168.8
57891.3
57613.8
57336.4
57059
56781.5
56504.1
56226.8
55949.4
55672
55394.7
55117.3
54840
54562.7
54285.4
54008.1
53730.8
53453.6
53176.3
52899
52621.8
52344.5
52067.3
51790
51512.8
51235.5
50958.3
50681
50403.7
50126.5
49849.2
49571.9
49294.6
49017.3
48739.9
48462.6
48185.2
47907.9
47630.5
47353.1
47075.7
46798.2
46520.8
46243.3
45965.8
45688.3
45410.8
45133.3
44855.8
44578.2
44300.7
44023.1
43745.5
43467.9
43190.3
42912.7
42635.1
42357.5
42079.9
41802.3
41524.6
41247
40969.4
40691.7
40414.1
40136.4
39858.8
39581.1
39303.5
39025.8
38748.1
38470.5
38192.8
37915.1
37637.4
37359.8
37082.1
36804.4
36526.7
36249
35971.3
35693.7
35416
35138.3
34860.6
34582.8
34305.1
34027.4
33749.7
33472
33194.3
32916.5
32638.8
32361
32083.3
31805.6
31527.8
31250
30972.3
30694.5
30416.8
30139
29861.2
29583.4
29305.6
29027.9
28750.1
28472.3
28194.5
27916.7
27638.9
27361.1
27083.2
26805.4
26527.6
26249.8
25972
25694.2
25416.3
25138.5
24860.7
24582.8
24305
24027.1
23749.3
23471.5
23193.6
22915.8
22637.9
22360.1
22082.2
21804.4
21526.5
21248.7
20970.8
20693
20415.1
20137.3
19859.4
19581.5
19303.7
19025.8
18748
18470.1
18192.3
17914.4
17636.6
17358.7
17080.9
16803
16525.2
16247.3
15969.5
15691.6
15413.8
15135.9
14858.1
14580.3
14302.4
14024.6
13746.8
13468.9
13191.1
12913.3
12635.5
12357.6
12079.8
11802
11524.2
11246.4
10968.6
10690.8
10413
10135.2
9857.45
9579.66
9301.88
9024.11
8746.34
8468.57
8190.81
7913.06
7635.3
7357.56
7079.82
6802.08
6524.35
6246.63
5968.91
5691.19
5413.49
5135.79
4858.1
4580.41
4302.74
4025.07
3747.41
3469.76
3192.12
2914.48
2636.86
2359.25
2081.65
1804.06
1526.48
1248.91
971.351
693.806
416.274
138.754
)
;

boundaryField
{
    inlet
    {
        type            darcyGradPressure;
        gradient        uniform 116344;
        Mf              Mf;
        phi             phi;
        value           uniform 238872;
    }
    outlet
    {
        type            fixedValue;
        value           uniform 0;
    }
    emptyWalls
    {
        type            empty;
    }
}


// ************************************************************************* //
