/*--------------------------------*- C++ -*----------------------------------*\
  =========                 |
  \\      /  F ield         | OpenFOAM: The Open Source CFD Toolbox
   \\    /   O peration     | Website:  https://openfoam.org
    \\  /    A nd           | Version:  9
     \\/     M anipulation  |
\*---------------------------------------------------------------------------*/
FoamFile
{
    format      ascii;
    class       surfaceScalarField;
    location    "8950";
    object      phia;
}
// * * * * * * * * * * * * * * * * * * * * * * * * * * * * * * * * * * * * * //

dimensions      [0 2 0 0 0 0 0];

internalField   nonuniform List<scalar> 
999
(
2.74824e-10
2.74769e-10
2.7466e-10
2.74558e-10
2.74431e-10
2.74296e-10
2.74155e-10
2.74002e-10
2.73769e-10
2.73272e-10
2.71173e-10
2.61848e-10
2.23282e-10
2.1401e-10
2.11352e-10
2.10016e-10
2.09132e-10
2.08473e-10
2.0794e-10
2.07495e-10
2.07122e-10
2.06804e-10
2.0653e-10
2.06292e-10
2.06077e-10
2.0588e-10
2.05698e-10
2.05518e-10
2.05349e-10
2.05192e-10
2.05047e-10
2.04918e-10
2.04816e-10
2.0476e-10
2.04745e-10
2.04732e-10
2.04718e-10
2.04705e-10
2.04699e-10
2.04704e-10
2.0472e-10
2.04746e-10
2.04776e-10
2.04802e-10
2.04823e-10
2.04847e-10
2.04887e-10
2.04959e-10
2.05076e-10
2.05246e-10
2.05466e-10
2.05728e-10
2.06019e-10
2.06326e-10
2.06636e-10
2.06939e-10
2.07224e-10
2.07482e-10
2.077e-10
2.07866e-10
2.07967e-10
2.07991e-10
2.07928e-10
2.07774e-10
2.07531e-10
2.07208e-10
2.06819e-10
2.06382e-10
2.05919e-10
2.05451e-10
2.04999e-10
2.04579e-10
2.04204e-10
2.03883e-10
2.03618e-10
2.03411e-10
2.03257e-10
2.03149e-10
2.0308e-10
2.03042e-10
2.03026e-10
2.03025e-10
2.0303e-10
2.03036e-10
2.0304e-10
2.03036e-10
2.03024e-10
2.03002e-10
2.0297e-10
2.02929e-10
2.02878e-10
2.0282e-10
2.02755e-10
2.02685e-10
2.0261e-10
2.02533e-10
2.02453e-10
2.02371e-10
2.02288e-10
2.02205e-10
2.02121e-10
2.02037e-10
2.01953e-10
2.0187e-10
2.01786e-10
2.01703e-10
2.01621e-10
2.01539e-10
2.01457e-10
2.01377e-10
2.01298e-10
2.0122e-10
2.01144e-10
2.01069e-10
2.00995e-10
2.00924e-10
2.00854e-10
2.00787e-10
2.00721e-10
2.00657e-10
2.00594e-10
2.00534e-10
2.00475e-10
2.00417e-10
2.00361e-10
2.00306e-10
2.00252e-10
2.00199e-10
2.00148e-10
2.00097e-10
2.00048e-10
1.99999e-10
1.99951e-10
1.99904e-10
1.99857e-10
1.99812e-10
1.99767e-10
1.99722e-10
1.99679e-10
1.99636e-10
1.99593e-10
1.99551e-10
1.9951e-10
1.99469e-10
1.99428e-10
1.99389e-10
1.99349e-10
1.99311e-10
1.99273e-10
1.99236e-10
1.99199e-10
1.99163e-10
1.99128e-10
1.99094e-10
1.9906e-10
1.99027e-10
1.98994e-10
1.98962e-10
1.98931e-10
1.989e-10
1.98869e-10
1.98839e-10
1.98808e-10
1.98777e-10
1.98747e-10
1.98716e-10
1.98686e-10
1.98656e-10
1.98627e-10
1.98598e-10
1.9857e-10
1.98543e-10
1.98518e-10
1.98493e-10
1.98471e-10
1.98449e-10
1.98429e-10
1.98411e-10
1.98396e-10
1.98383e-10
1.98374e-10
1.98369e-10
1.98369e-10
1.98376e-10
1.9839e-10
1.98413e-10
1.98446e-10
1.98489e-10
1.98544e-10
1.9861e-10
1.98687e-10
1.98777e-10
1.98877e-10
1.98988e-10
1.99107e-10
1.99234e-10
1.99366e-10
1.99501e-10
1.99636e-10
1.99769e-10
1.99895e-10
2.00012e-10
2.00116e-10
2.00204e-10
2.00272e-10
2.00317e-10
2.00336e-10
2.00328e-10
2.0029e-10
2.00221e-10
2.00122e-10
1.99994e-10
1.99837e-10
1.99655e-10
1.99451e-10
1.99228e-10
1.98991e-10
1.98745e-10
1.98493e-10
1.98241e-10
1.97991e-10
1.97749e-10
1.97518e-10
1.97299e-10
1.97095e-10
1.96907e-10
1.96736e-10
1.96581e-10
1.96444e-10
1.96322e-10
1.96214e-10
1.9612e-10
1.96038e-10
1.95966e-10
1.95903e-10
1.95846e-10
1.95795e-10
1.95747e-10
1.95703e-10
1.95659e-10
1.95617e-10
1.95574e-10
1.95529e-10
1.95484e-10
1.95436e-10
1.95386e-10
1.95334e-10
1.9528e-10
1.95223e-10
1.95164e-10
1.95102e-10
1.95039e-10
1.94974e-10
1.94907e-10
1.94839e-10
1.94769e-10
1.94699e-10
1.94627e-10
1.94555e-10
1.94482e-10
1.94408e-10
1.94334e-10
1.9426e-10
1.94186e-10
1.94111e-10
1.94037e-10
1.93962e-10
1.93888e-10
1.93813e-10
1.93739e-10
1.93665e-10
1.93591e-10
1.93517e-10
1.93444e-10
1.93371e-10
1.93298e-10
1.93226e-10
1.93154e-10
1.93083e-10
1.93013e-10
1.92943e-10
1.92874e-10
1.92805e-10
1.92737e-10
1.9267e-10
1.92604e-10
1.92538e-10
1.92474e-10
1.9241e-10
1.92347e-10
1.92285e-10
1.92224e-10
1.92164e-10
1.92105e-10
1.92046e-10
1.91988e-10
1.91931e-10
1.91875e-10
1.91819e-10
1.91764e-10
1.9171e-10
1.91656e-10
1.91602e-10
1.91549e-10
1.91496e-10
1.91443e-10
1.91391e-10
1.91339e-10
1.91287e-10
1.91235e-10
1.91184e-10
1.91132e-10
1.91081e-10
1.91029e-10
1.90978e-10
1.90927e-10
1.90876e-10
1.90826e-10
1.90775e-10
1.90725e-10
1.90674e-10
1.90624e-10
1.90574e-10
1.90524e-10
1.90475e-10
1.90426e-10
1.90377e-10
1.90328e-10
1.9028e-10
1.90232e-10
1.90185e-10
1.90138e-10
1.90092e-10
1.90047e-10
1.90003e-10
1.8996e-10
1.8992e-10
1.8988e-10
1.89844e-10
1.89809e-10
1.89778e-10
1.89749e-10
1.89725e-10
1.89703e-10
1.89686e-10
1.89673e-10
1.89662e-10
1.89658e-10
1.89651e-10
1.89652e-10
1.89643e-10
1.89633e-10
1.89603e-10
1.89542e-10
1.89429e-10
1.89215e-10
1.88874e-10
1.88352e-10
1.87688e-10
1.8699e-10
1.86418e-10
1.86073e-10
1.85903e-10
1.85861e-10
1.8587e-10
1.85911e-10
1.85976e-10
1.86044e-10
1.8612e-10
1.86203e-10
1.86291e-10
1.86383e-10
1.8648e-10
1.86579e-10
1.86682e-10
1.86788e-10
1.86894e-10
1.87002e-10
1.87111e-10
1.87219e-10
1.87326e-10
1.87431e-10
1.87533e-10
1.87631e-10
1.87724e-10
1.8781e-10
1.8789e-10
1.87962e-10
1.88025e-10
1.88078e-10
1.88119e-10
1.88147e-10
1.88161e-10
1.88166e-10
1.88167e-10
1.88164e-10
1.88139e-10
1.88093e-10
1.88036e-10
1.8797e-10
1.87893e-10
1.87808e-10
1.87714e-10
1.87614e-10
1.87508e-10
1.87398e-10
1.87284e-10
1.87169e-10
1.87053e-10
1.86938e-10
1.86825e-10
1.86714e-10
1.86608e-10
1.86506e-10
1.8641e-10
1.86319e-10
1.86236e-10
1.86158e-10
1.86088e-10
1.86024e-10
1.85967e-10
1.85916e-10
1.85872e-10
1.85834e-10
1.85801e-10
1.85773e-10
1.85749e-10
1.8573e-10
1.85714e-10
1.85702e-10
1.85692e-10
1.85684e-10
1.85677e-10
1.85672e-10
1.85668e-10
1.85665e-10
1.85661e-10
1.85658e-10
1.85654e-10
1.8565e-10
1.85645e-10
1.8564e-10
1.85634e-10
1.85626e-10
1.85618e-10
1.85609e-10
1.85599e-10
1.85587e-10
1.85575e-10
1.85562e-10
1.85548e-10
1.85533e-10
1.85518e-10
1.85501e-10
1.85485e-10
1.85467e-10
1.85449e-10
1.85431e-10
1.85412e-10
1.85393e-10
1.85374e-10
1.85354e-10
1.85334e-10
1.85314e-10
1.85294e-10
1.85274e-10
1.85254e-10
1.85234e-10
1.85213e-10
1.85193e-10
1.85173e-10
1.85153e-10
1.85133e-10
1.85113e-10
1.85094e-10
1.85074e-10
1.85055e-10
1.85036e-10
1.85017e-10
1.84998e-10
1.8498e-10
1.84962e-10
1.84944e-10
1.84927e-10
1.8491e-10
1.84893e-10
1.84877e-10
1.84861e-10
1.84846e-10
1.84832e-10
1.84818e-10
1.84804e-10
1.84791e-10
1.84779e-10
1.84767e-10
1.84756e-10
1.84745e-10
1.84736e-10
1.84726e-10
1.84718e-10
1.8471e-10
1.84703e-10
1.84697e-10
1.84692e-10
1.84687e-10
1.84683e-10
1.84679e-10
1.84677e-10
1.84675e-10
1.84674e-10
1.84673e-10
1.84673e-10
1.84673e-10
1.84673e-10
1.84675e-10
1.84677e-10
1.8468e-10
1.84684e-10
1.84688e-10
1.84693e-10
1.84698e-10
1.84704e-10
1.8471e-10
1.84717e-10
1.84724e-10
1.84732e-10
1.84739e-10
1.84748e-10
1.84756e-10
1.84765e-10
1.84775e-10
1.84785e-10
1.84795e-10
1.84805e-10
1.84816e-10
1.84827e-10
1.84839e-10
1.8485e-10
1.84862e-10
1.84875e-10
1.84888e-10
1.84901e-10
1.84915e-10
1.84929e-10
1.84943e-10
1.84958e-10
1.84974e-10
1.8499e-10
1.85006e-10
1.85024e-10
1.85042e-10
1.85061e-10
1.85081e-10
1.85101e-10
1.85123e-10
1.85146e-10
1.8517e-10
1.85196e-10
1.85223e-10
1.85251e-10
1.85282e-10
1.85314e-10
1.85348e-10
1.85384e-10
1.85423e-10
1.85464e-10
1.85508e-10
1.85554e-10
1.85604e-10
1.85656e-10
1.85711e-10
1.85769e-10
1.85831e-10
1.85895e-10
1.85963e-10
1.86034e-10
1.86108e-10
1.86185e-10
1.86264e-10
1.86346e-10
1.8643e-10
1.86516e-10
1.86604e-10
1.86694e-10
1.86784e-10
1.86874e-10
1.86964e-10
1.87054e-10
1.87142e-10
1.87229e-10
1.87313e-10
1.87394e-10
1.87471e-10
1.87543e-10
1.87611e-10
1.87673e-10
1.87728e-10
1.87776e-10
1.87817e-10
1.8785e-10
1.87874e-10
1.87889e-10
1.87896e-10
1.87898e-10
1.87897e-10
1.87892e-10
1.87866e-10
1.87829e-10
1.87783e-10
1.87729e-10
1.87667e-10
1.87599e-10
1.87525e-10
1.87446e-10
1.87363e-10
1.87276e-10
1.87187e-10
1.87096e-10
1.87004e-10
1.86912e-10
1.86821e-10
1.86732e-10
1.86645e-10
1.86561e-10
1.8648e-10
1.86403e-10
1.8633e-10
1.86261e-10
1.86197e-10
1.86138e-10
1.86083e-10
1.86033e-10
1.85987e-10
1.85946e-10
1.85908e-10
1.85875e-10
1.85845e-10
1.85818e-10
1.85794e-10
1.85773e-10
1.85754e-10
1.85738e-10
1.85722e-10
1.85709e-10
1.85696e-10
1.85684e-10
1.85672e-10
1.85661e-10
1.8565e-10
1.85639e-10
1.85628e-10
1.85616e-10
1.85604e-10
1.85592e-10
1.85579e-10
1.85565e-10
1.8555e-10
1.85535e-10
1.85519e-10
1.85502e-10
1.85485e-10
1.85467e-10
1.85448e-10
1.85429e-10
1.8541e-10
1.85389e-10
1.85369e-10
1.85348e-10
1.85327e-10
1.85305e-10
1.85283e-10
1.85261e-10
1.85239e-10
1.85217e-10
1.85195e-10
1.85173e-10
1.85151e-10
1.85129e-10
1.85107e-10
1.85085e-10
1.85063e-10
1.85042e-10
1.8502e-10
1.84999e-10
1.84978e-10
1.84958e-10
1.84938e-10
1.84918e-10
1.84898e-10
1.84879e-10
1.8486e-10
1.84842e-10
1.84824e-10
1.84806e-10
1.84789e-10
1.84772e-10
1.84756e-10
1.84741e-10
1.84726e-10
1.84712e-10
1.84698e-10
1.84685e-10
1.84673e-10
1.84661e-10
1.8465e-10
1.8464e-10
1.84631e-10
1.84622e-10
1.84615e-10
1.84608e-10
1.84602e-10
1.84597e-10
1.84593e-10
1.84589e-10
1.84587e-10
1.84586e-10
1.84585e-10
1.84585e-10
1.84585e-10
1.84586e-10
1.84589e-10
1.84593e-10
1.84598e-10
1.84603e-10
1.84609e-10
1.84616e-10
1.84624e-10
1.84633e-10
1.84642e-10
1.84652e-10
1.84663e-10
1.84674e-10
1.84686e-10
1.84698e-10
1.84711e-10
1.84724e-10
1.84738e-10
1.84752e-10
1.84767e-10
1.84782e-10
1.84798e-10
1.84814e-10
1.8483e-10
1.84846e-10
1.84863e-10
1.8488e-10
1.84898e-10
1.84915e-10
1.84934e-10
1.84952e-10
1.84971e-10
1.8499e-10
1.85009e-10
1.85029e-10
1.8505e-10
1.85071e-10
1.85092e-10
1.85114e-10
1.85136e-10
1.8516e-10
1.85184e-10
1.85208e-10
1.85234e-10
1.85261e-10
1.85288e-10
1.85317e-10
1.85347e-10
1.85378e-10
1.85411e-10
1.85445e-10
1.85481e-10
1.85519e-10
1.85558e-10
1.85599e-10
1.85642e-10
1.85687e-10
1.85735e-10
1.85784e-10
1.85836e-10
1.8589e-10
1.85946e-10
1.86004e-10
1.86065e-10
1.86128e-10
1.86193e-10
1.86259e-10
1.86328e-10
1.86398e-10
1.8647e-10
1.86543e-10
1.86617e-10
1.86692e-10
1.86767e-10
1.86843e-10
1.86918e-10
1.86993e-10
1.87067e-10
1.87139e-10
1.87209e-10
1.87278e-10
1.87343e-10
1.87405e-10
1.87464e-10
1.87518e-10
1.87568e-10
1.87613e-10
1.87653e-10
1.87687e-10
1.87715e-10
1.87736e-10
1.8775e-10
1.87758e-10
1.8776e-10
1.8776e-10
1.87758e-10
1.87746e-10
1.87718e-10
1.87685e-10
1.87645e-10
1.87599e-10
1.87548e-10
1.87491e-10
1.87429e-10
1.87363e-10
1.87294e-10
1.87222e-10
1.87147e-10
1.87071e-10
1.86993e-10
1.86916e-10
1.86838e-10
1.86762e-10
1.86686e-10
1.86613e-10
1.86541e-10
1.86472e-10
1.86406e-10
1.86343e-10
1.86284e-10
1.86228e-10
1.86175e-10
1.86126e-10
1.8608e-10
1.86038e-10
1.85999e-10
1.85964e-10
1.85931e-10
1.85901e-10
1.85875e-10
1.8585e-10
1.85828e-10
1.85808e-10
1.85789e-10
1.85772e-10
1.85757e-10
1.85742e-10
1.85728e-10
1.85715e-10
1.85703e-10
1.8569e-10
1.85678e-10
1.85666e-10
1.85654e-10
1.85641e-10
1.85628e-10
1.85615e-10
1.85601e-10
1.85587e-10
1.85572e-10
1.85557e-10
1.85541e-10
1.85524e-10
1.85507e-10
1.85489e-10
1.85471e-10
1.85453e-10
1.85433e-10
1.85414e-10
1.85394e-10
1.85374e-10
1.85354e-10
1.85333e-10
1.85312e-10
1.85292e-10
1.85271e-10
1.8525e-10
1.85229e-10
1.85209e-10
1.85188e-10
1.85168e-10
1.85148e-10
1.85128e-10
1.85109e-10
1.8509e-10
1.85071e-10
1.85053e-10
1.85035e-10
1.85017e-10
1.85e-10
1.84984e-10
1.84968e-10
1.84952e-10
1.84937e-10
1.84922e-10
1.84908e-10
1.84894e-10
1.84881e-10
1.84869e-10
1.84857e-10
1.84845e-10
1.84834e-10
1.84823e-10
1.84813e-10
1.84804e-10
1.84795e-10
1.84786e-10
1.84778e-10
1.84771e-10
1.84764e-10
1.84758e-10
1.84753e-10
1.84747e-10
1.84743e-10
1.84739e-10
1.84736e-10
1.84733e-10
1.84731e-10
1.8473e-10
1.84729e-10
1.84729e-10
1.84729e-10
1.84729e-10
1.8473e-10
1.84732e-10
1.84735e-10
1.84739e-10
1.84743e-10
1.84748e-10
1.84754e-10
1.8476e-10
1.84767e-10
1.84775e-10
1.84783e-10
1.84792e-10
1.84801e-10
1.84811e-10
1.84822e-10
1.84833e-10
1.84844e-10
1.84856e-10
1.84869e-10
1.84882e-10
1.84896e-10
1.8491e-10
1.84924e-10
1.84939e-10
1.84955e-10
1.84971e-10
1.84987e-10
1.85004e-10
1.85022e-10
1.85039e-10
1.85058e-10
1.85077e-10
1.85096e-10
1.85116e-10
1.85136e-10
1.85158e-10
1.8518e-10
1.85202e-10
1.85226e-10
1.85249e-10
1.85275e-10
1.853e-10
1.85328e-10
1.85355e-10
1.85386e-10
1.85415e-10
1.85448e-10
1.8548e-10
1.85513e-10
1.85551e-10
1.85588e-10
1.85627e-10
1.85667e-10
1.85711e-10
1.85754e-10
1.858e-10
1.85848e-10
1.85898e-10
1.85948e-10
1.86001e-10
1.86055e-10
1.86112e-10
1.86168e-10
1.86228e-10
1.86287e-10
1.86349e-10
1.86411e-10
)
;

boundaryField
{
    inlet
    {
        type            calculated;
        value           uniform -2.74882e-10;
    }
    outlet
    {
        type            calculated;
        value           uniform 1.86474e-10;
    }
    emptyWalls
    {
        type            empty;
        value           nonuniform List<scalar> 0();
    }
}


// ************************************************************************* //
