/*--------------------------------*- C++ -*----------------------------------*\
  =========                 |
  \\      /  F ield         | OpenFOAM: The Open Source CFD Toolbox
   \\    /   O peration     | Website:  https://openfoam.org
    \\  /    A nd           | Version:  9
     \\/     M anipulation  |
\*---------------------------------------------------------------------------*/
FoamFile
{
    format      ascii;
    class       volScalarField;
    location    "3550";
    object      krb;
}
// * * * * * * * * * * * * * * * * * * * * * * * * * * * * * * * * * * * * * //

dimensions      [0 0 0 0 0 0 0];

internalField   nonuniform List<scalar> 
1000
(
0.0991863
0.103031
0.107643
0.120026
0.198734
0.446669
0.506261
0.521905
0.527761
0.530113
0.530813
0.530124
0.526173
0.517728
0.507557
0.497057
0.486664
0.476562
0.466824
0.457473
0.448507
0.439914
0.431673
0.423767
0.416174
0.408875
0.401852
0.395087
0.388565
0.382271
0.376192
0.370314
0.364626
0.359117
0.353778
0.348598
0.343569
0.338683
0.333932
0.32931
0.32481
0.320426
0.316153
0.311985
0.307918
0.303946
0.300065
0.296273
0.292563
0.288934
0.285382
0.281903
0.278495
0.275154
0.271879
0.268666
0.265513
0.262419
0.259379
0.256394
0.25346
0.250576
0.24774
0.244951
0.242206
0.239505
0.236845
0.234225
0.231645
0.229102
0.226596
0.224124
0.221687
0.219283
0.21691
0.214569
0.212256
0.209973
0.207718
0.205489
0.203286
0.201108
0.198954
0.196824
0.194716
0.19263
0.190565
0.188521
0.186496
0.18449
0.182502
0.180533
0.17858
0.176645
0.174725
0.172821
0.170932
0.169057
0.167195
0.165346
0.16351
0.161685
0.159872
0.158069
0.156276
0.154491
0.152716
0.150948
0.149188
0.147435
0.145688
0.143947
0.142212
0.140481
0.138755
0.137033
0.135314
0.133599
0.131887
0.130178
0.128471
0.126766
0.125064
0.123364
0.121668
0.119977
0.118295
0.116623
0.114968
0.113336
0.111732
0.110164
0.108635
0.107138
0.105644
0.10409
0.102343
0.10017
0.0971827
0.0928362
0.0865305
0.0779761
0.0677333
0.057368
0.0486466
0.0424495
0.038586
0.03638
0.0351859
0.0345588
0.034235
0.0340695
0.0339853
0.0339426
0.033921
0.03391
0.0339044
0.0339015
0.0338999
0.033899
0.0338985
0.0338982
0.033898
0.0338978
0.0338976
0.0338975
0.0338974
0.0338974
0.0338974
0.0338974
0.0338974
0.0338975
0.0338975
0.0338975
0.0338976
0.0338976
0.0338977
0.0338978
0.0338978
0.0338979
0.0338979
0.033898
0.033898
0.0338981
0.0338981
0.0338982
0.0338982
0.0338983
0.0338983
0.0338984
0.0338984
0.0338984
0.0338985
0.0338985
0.0338985
0.0338985
0.0338985
0.0338985
0.0338985
0.0338986
0.0338986
0.0338986
0.0338987
0.0338987
0.0338987
0.0338987
0.0338987
0.0338987
0.0338987
0.0338987
0.0338987
0.0338987
0.0338987
0.0338987
0.0338987
0.0338987
0.0338988
0.0338988
0.0338988
0.0338988
0.0338988
0.0338989
0.0338989
0.0338989
0.0338989
0.0338989
0.0338989
0.0338989
0.0338989
0.0338989
0.0338989
0.0338989
0.0338989
0.0338989
0.0338988
0.0338988
0.0338988
0.0338988
0.0338987
0.0338987
0.0338986
0.0338986
0.0338986
0.0338985
0.0338985
0.0338984
0.0338984
0.0338983
0.0338983
0.0338982
0.0338981
0.033898
0.033898
0.0338979
0.0338978
0.0338977
0.0338976
0.0338975
0.0338975
0.0338973
0.0338972
0.0338971
0.033897
0.0338969
0.0338968
0.0338967
0.0338965
0.0338964
0.0338963
0.0338961
0.033896
0.0338959
0.0338957
0.0338956
0.0338955
0.0338953
0.0338952
0.0338951
0.033895
0.0338949
0.0338948
0.0338946
0.0338945
0.0338944
0.0338943
0.0338942
0.0338941
0.033894
0.0338939
0.0338939
0.0338938
0.0338937
0.0338936
0.0338936
0.0338935
0.0338934
0.0338934
0.0338933
0.0338932
0.0338932
0.0338931
0.0338931
0.033893
0.0338929
0.0338928
0.0338926
0.0338925
0.0338923
0.0338921
0.0338919
0.0338917
0.0338914
0.0338911
0.0338907
0.0338903
0.0338899
0.0338894
0.0338889
0.0338884
0.0338878
0.0338872
0.0338866
0.0338859
0.0338852
0.0338845
0.0338838
0.0338831
0.0338824
0.0338817
0.033881
0.0338804
0.0338798
0.0338793
0.0338788
0.0338784
0.0338781
0.0338779
0.0338778
0.0338778
0.0338778
0.0338778
0.033878
0.0338784
0.033879
0.0338797
0.0338804
0.0338813
0.0338823
0.0338833
0.0338843
0.0338854
0.0338865
0.0338876
0.0338887
0.0338897
0.0338907
0.0338915
0.0338923
0.0338931
0.0338937
0.0338943
0.0338947
0.0338951
0.0338954
0.0338956
0.0338958
0.0338959
0.0338959
0.033896
0.033896
0.0338959
0.0338958
0.0338957
0.0338955
0.0338954
0.0338952
0.033895
0.0338949
0.0338947
0.0338945
0.0338944
0.0338943
0.0338942
0.0338941
0.033894
0.0338939
0.0338938
0.0338938
0.0338937
0.0338937
0.0338937
0.0338936
0.0338936
0.0338936
0.0338936
0.0338937
0.0338937
0.0338938
0.0338938
0.0338938
0.0338939
0.033894
0.0338941
0.0338942
0.0338943
0.0338944
0.0338945
0.0338946
0.0338948
0.033895
0.0338952
0.0338954
0.0338956
0.0338957
0.0338958
0.033896
0.0338961
0.0338962
0.0338963
0.0338965
0.0338966
0.0338967
0.0338968
0.0338968
0.0338969
0.033897
0.033897
0.033897
0.033897
0.033897
0.033897
0.033897
0.0338971
0.0338971
0.0338971
0.0338971
0.033897
0.033897
0.033897
0.0338969
0.0338969
0.0338969
0.0338968
0.0338968
0.0338967
0.0338967
0.0338966
0.0338965
0.0338965
0.0338964
0.0338963
0.0338963
0.0338962
0.0338961
0.0338961
0.033896
0.0338959
0.0338959
0.0338958
0.0338957
0.0338957
0.0338956
0.0338956
0.0338955
0.0338955
0.0338955
0.0338954
0.0338954
0.0338954
0.0338953
0.0338953
0.0338953
0.0338953
0.0338953
0.0338953
0.0338953
0.0338953
0.0338954
0.0338954
0.0338954
0.0338954
0.0338955
0.0338955
0.0338956
0.0338956
0.0338956
0.0338956
0.0338956
0.0338957
0.0338957
0.0338957
0.0338957
0.0338958
0.0338958
0.0338958
0.0338958
0.0338957
0.0338957
0.0338957
0.0338957
0.0338957
0.0338956
0.0338956
0.0338955
0.0338955
0.0338954
0.0338953
0.0338952
0.0338951
0.0338949
0.0338948
0.0338947
0.0338945
0.0338943
0.0338941
0.0338939
0.0338937
0.0338934
0.0338931
0.0338928
0.0338925
0.0338921
0.0338917
0.0338913
0.0338909
0.0338905
0.03389
0.0338895
0.0338891
0.0338885
0.033888
0.0338874
0.0338869
0.0338864
0.0338858
0.0338853
0.0338848
0.0338843
0.0338838
0.0338833
0.033883
0.0338827
0.0338824
0.0338822
0.0338821
0.033882
0.033882
0.033882
0.0338821
0.0338824
0.0338828
0.0338834
0.033884
0.0338847
0.0338856
0.0338866
0.0338876
0.0338888
0.0338899
0.0338911
0.0338923
0.0338935
0.0338946
0.0338958
0.0338969
0.0338979
0.0338989
0.0338998
0.0339006
0.0339013
0.0339019
0.0339024
0.0339029
0.0339033
0.0339035
0.0339037
0.0339038
0.0339038
0.0339038
0.0339038
0.0339038
0.0339037
0.0339035
0.0339035
0.0339039
0.033906
0.0339204
0.0342155
0.0349909
0.0351529
0.0351562
0.0351562
0.0351562
0.0351562
0.0351562
0.0351562
0.0351563
0.0351563
0.0351563
0.0351563
0.0351563
0.0351563
0.0351563
0.0351563
0.0351563
0.0351563
0.0351563
0.0351563
0.0351563
0.0351563
0.0351563
0.0351563
0.0351563
0.0351563
0.0351563
0.0351563
0.0351563
0.0351563
0.0351563
0.0351563
0.0351563
0.0351563
0.0351563
0.0351562
0.0351563
0.0351563
0.0351563
0.0351563
0.0351562
0.0351563
0.0351563
0.0351563
0.0351562
0.0351563
0.0351563
0.0351563
0.0351563
0.0351563
0.0351563
0.0351563
0.0351563
0.0351563
0.0351562
0.0351562
0.0351563
0.0351563
0.0351563
0.0351563
0.0351563
0.0351563
0.0351562
0.0351563
0.0351563
0.0351563
0.0351563
0.0351563
0.0351563
0.0351563
0.0351563
0.0351563
0.0351563
0.0351563
0.0351563
0.0351563
0.0351563
0.0351563
0.0351563
0.0351563
0.0351563
0.0351563
0.0351563
0.0351563
0.0351563
0.0351563
0.0351563
0.0351563
0.0351563
0.0351563
0.0351563
0.0351563
0.0351563
0.0351563
0.0351563
0.0351563
0.0351563
0.0351563
0.0351563
0.0351562
0.0351563
0.0351563
0.0351563
0.0351562
0.0351563
0.0351563
0.0351563
0.0351563
0.0351563
0.0351563
0.0351563
0.0351563
0.0351563
0.0351563
0.0351563
0.0351563
0.0351563
0.0351563
0.0351563
0.0351563
0.0351563
0.0351563
0.0351563
0.0351563
0.0351563
0.0351562
0.0351562
0.0351562
0.0351562
0.0351562
0.0351562
0.0351562
0.0351562
0.0351563
0.0351563
0.0351563
0.0351563
0.0351563
0.0351563
0.0351563
0.0351563
0.0351563
0.0351563
0.0351563
0.0351563
0.0351563
0.0351563
0.0351563
0.0351563
0.0351563
0.0351563
0.0351563
0.0351563
0.0351563
0.0351563
0.0351562
0.0351562
0.0351563
0.0351563
0.0351563
0.0351563
0.0351563
0.0351563
0.0351563
0.0351563
0.0351563
0.0351563
0.0351563
0.0351563
0.0351563
0.0351562
0.0351562
0.0351563
0.0351563
0.0351563
0.0351563
0.0351562
0.0351563
0.0351563
0.0351563
0.0351563
0.0351563
0.0351563
0.0351563
0.0351563
0.0351563
0.0351563
0.0351563
0.0351563
0.0351563
0.0351563
0.0351563
0.0351563
0.0351563
0.0351562
0.0351562
0.0351563
0.0351563
0.0351563
0.0351563
0.0351563
0.0351563
0.0351563
0.0351563
0.0351562
0.0351562
0.0351562
0.0351562
0.0351562
0.0351562
0.0351562
0.0351562
0.0351562
0.0351562
0.0351562
0.0351562
0.0351563
0.0351562
0.0351562
0.0351562
0.0351562
0.0351562
0.0351562
0.0351562
0.0351562
0.0351562
0.0351563
0.0351563
0.0351563
0.0351563
0.0351563
0.0351563
0.0351563
0.0351563
0.0351563
0.0351563
0.0351563
0.0351563
0.0351563
0.0351563
0.0351563
0.0351563
0.0351563
0.0351563
0.0351563
0.0351563
0.0351563
0.0351563
0.0351563
0.0351563
0.0351563
0.0351563
0.0351563
0.0351563
0.0351563
0.0351563
0.0351563
0.0351563
0.0351563
0.0351563
0.0351563
0.0351563
0.0351563
0.0351563
0.0351563
0.0351563
0.0351563
0.0351563
0.0351563
0.0351563
0.0351563
0.0351563
0.0351563
0.0351563
0.0351563
0.0351563
0.0351563
0.0351563
0.0351563
0.0351563
0.0351563
0.0351563
0.0351563
0.0351563
0.0351563
0.0351563
0.0351563
0.0351563
0.0351563
0.0351563
0.0351563
0.0351563
0.0351562
0.0351563
0.0351563
0.0351563
0.0351563
0.0351563
0.0351563
0.0351563
0.0351562
0.0351562
0.0351562
0.0351562
0.0351562
0.0351562
0.0351562
0.0351563
0.0351562
0.0351563
0.0351563
0.0351562
0.0351563
0.0351563
0.0351562
0.0351563
0.0351562
0.0351563
0.0351563
0.0351563
0.0351562
0.0351562
0.0351562
0.0351562
0.0351562
0.0351562
0.0351562
0.0351563
0.0351563
0.0351563
0.0351563
0.0351563
0.0351563
0.0351563
0.0351563
0.0351562
0.0351562
0.0351563
0.0351563
0.0351562
0.0351562
0.0351562
0.0351562
0.0351563
0.0351562
0.0351562
0.0351563
0.0351563
0.0351563
0.0351563
0.0351562
0.0351563
0.0351563
0.0351563
0.0351563
0.0351563
0.0351563
0.0351563
0.0351563
0.0351563
0.0351563
0.0351562
0.0351562
0.0351563
0.0351563
0.0351563
0.0351563
0.0351563
0.0351563
0.0351563
0.0351563
0.0351563
0.0351563
0.0351563
0.0351563
0.0351563
0.0351563
0.0351563
0.0351563
0.0351563
0.0351563
0.0351563
0.0351563
0.0351563
0.0351563
0.0351563
0.0351563
0.0351563
0.0351563
0.0351563
0.0351563
0.0351563
0.0351563
0.0351563
0.0351563
0.0351563
0.0351563
0.0351563
0.0351563
0.0351563
0.0351563
0.0351563
0.0351563
0.0351563
0.0351562
0.0351562
0.0351562
0.0351562
0.0351562
0.0351562
0.0351562
0.0351562
)
;

boundaryField
{
    inlet
    {
        type            calculated;
        value           uniform 0.0976562;
    }
    outlet
    {
        type            calculated;
        value           uniform 0.0351562;
    }
    emptyWalls
    {
        type            empty;
    }
}


// ************************************************************************* //
