/*--------------------------------*- C++ -*----------------------------------*\
  =========                 |
  \\      /  F ield         | OpenFOAM: The Open Source CFD Toolbox
   \\    /   O peration     | Website:  https://openfoam.org
    \\  /    A nd           | Version:  9
     \\/     M anipulation  |
\*---------------------------------------------------------------------------*/
FoamFile
{
    format      ascii;
    class       volVectorField;
    location    "3550";
    object      Ub;
}
// * * * * * * * * * * * * * * * * * * * * * * * * * * * * * * * * * * * * * //

dimensions      [0 0 0 0 0 0 0];

internalField   nonuniform List<vector> 
1000
(
(1.13615e-05 0 0)
(1.13627e-05 0 0)
(1.1368e-05 0 0)
(1.13882e-05 0 0)
(1.15348e-05 0 0)
(1.17111e-05 0 0)
(1.17689e-05 0 0)
(1.17857e-05 0 0)
(1.17931e-05 0 0)
(1.17967e-05 0 0)
(1.17981e-05 0 0)
(1.17971e-05 0 0)
(1.17899e-05 0 0)
(1.17744e-05 0 0)
(1.17534e-05 0 0)
(1.17301e-05 0 0)
(1.17053e-05 0 0)
(1.16794e-05 0 0)
(1.16527e-05 0 0)
(1.16255e-05 0 0)
(1.15977e-05 0 0)
(1.15695e-05 0 0)
(1.15409e-05 0 0)
(1.15121e-05 0 0)
(1.14829e-05 0 0)
(1.14534e-05 0 0)
(1.14237e-05 0 0)
(1.13937e-05 0 0)
(1.13635e-05 0 0)
(1.1333e-05 0 0)
(1.13024e-05 0 0)
(1.12715e-05 0 0)
(1.12405e-05 0 0)
(1.12092e-05 0 0)
(1.11778e-05 0 0)
(1.11462e-05 0 0)
(1.11144e-05 0 0)
(1.10824e-05 0 0)
(1.10502e-05 0 0)
(1.10179e-05 0 0)
(1.09853e-05 0 0)
(1.09526e-05 0 0)
(1.09196e-05 0 0)
(1.08865e-05 0 0)
(1.08532e-05 0 0)
(1.08197e-05 0 0)
(1.0786e-05 0 0)
(1.07521e-05 0 0)
(1.0718e-05 0 0)
(1.06837e-05 0 0)
(1.06492e-05 0 0)
(1.06145e-05 0 0)
(1.05797e-05 0 0)
(1.05446e-05 0 0)
(1.05094e-05 0 0)
(1.0474e-05 0 0)
(1.04383e-05 0 0)
(1.04025e-05 0 0)
(1.03665e-05 0 0)
(1.03304e-05 0 0)
(1.0294e-05 0 0)
(1.02574e-05 0 0)
(1.02207e-05 0 0)
(1.01838e-05 0 0)
(1.01467e-05 0 0)
(1.01093e-05 0 0)
(1.00718e-05 0 0)
(1.00342e-05 0 0)
(9.99628e-06 0 0)
(9.95821e-06 0 0)
(9.91995e-06 0 0)
(9.8815e-06 0 0)
(9.84286e-06 0 0)
(9.80402e-06 0 0)
(9.76497e-06 0 0)
(9.7257e-06 0 0)
(9.6862e-06 0 0)
(9.64646e-06 0 0)
(9.60648e-06 0 0)
(9.56622e-06 0 0)
(9.5257e-06 0 0)
(9.48488e-06 0 0)
(9.44377e-06 0 0)
(9.40234e-06 0 0)
(9.3606e-06 0 0)
(9.31853e-06 0 0)
(9.27612e-06 0 0)
(9.23336e-06 0 0)
(9.19026e-06 0 0)
(9.14681e-06 0 0)
(9.10301e-06 0 0)
(9.05887e-06 0 0)
(9.01438e-06 0 0)
(8.96955e-06 0 0)
(8.92438e-06 0 0)
(8.87886e-06 0 0)
(8.83298e-06 0 0)
(8.78673e-06 0 0)
(8.74009e-06 0 0)
(8.69303e-06 0 0)
(8.64554e-06 0 0)
(8.59757e-06 0 0)
(8.5491e-06 0 0)
(8.5001e-06 0 0)
(8.45052e-06 0 0)
(8.40036e-06 0 0)
(8.34957e-06 0 0)
(8.29815e-06 0 0)
(8.24607e-06 0 0)
(8.19333e-06 0 0)
(8.13991e-06 0 0)
(8.08581e-06 0 0)
(8.03103e-06 0 0)
(7.97558e-06 0 0)
(7.91946e-06 0 0)
(7.86267e-06 0 0)
(7.80522e-06 0 0)
(7.74712e-06 0 0)
(7.68837e-06 0 0)
(7.629e-06 0 0)
(7.56901e-06 0 0)
(7.50842e-06 0 0)
(7.44723e-06 0 0)
(7.38549e-06 0 0)
(7.32323e-06 0 0)
(7.26053e-06 0 0)
(7.19749e-06 0 0)
(7.13425e-06 0 0)
(7.07099e-06 0 0)
(7.00793e-06 0 0)
(6.94534e-06 0 0)
(6.88346e-06 0 0)
(6.82234e-06 0 0)
(6.76157e-06 0 0)
(6.69979e-06 0 0)
(6.6338e-06 0 0)
(6.55723e-06 0 0)
(6.45847e-06 0 0)
(6.3183e-06 0 0)
(6.10838e-06 0 0)
(5.79502e-06 0 0)
(5.35426e-06 0 0)
(4.79892e-06 0 0)
(4.19648e-06 0 0)
(3.64566e-06 0 0)
(3.22037e-06 0 0)
(2.93638e-06 0 0)
(2.76624e-06 0 0)
(2.67134e-06 0 0)
(2.62062e-06 0 0)
(2.59413e-06 0 0)
(2.58048e-06 0 0)
(2.57346e-06 0 0)
(2.56981e-06 0 0)
(2.5679e-06 0 0)
(2.56686e-06 0 0)
(2.56626e-06 0 0)
(2.56589e-06 0 0)
(2.56564e-06 0 0)
(2.56545e-06 0 0)
(2.56531e-06 0 0)
(2.56519e-06 0 0)
(2.56509e-06 0 0)
(2.56501e-06 0 0)
(2.56495e-06 0 0)
(2.5649e-06 0 0)
(2.56487e-06 0 0)
(2.56485e-06 0 0)
(2.56484e-06 0 0)
(2.56484e-06 0 0)
(2.56484e-06 0 0)
(2.56485e-06 0 0)
(2.56487e-06 0 0)
(2.5649e-06 0 0)
(2.56493e-06 0 0)
(2.56496e-06 0 0)
(2.565e-06 0 0)
(2.56503e-06 0 0)
(2.56507e-06 0 0)
(2.5651e-06 0 0)
(2.56513e-06 0 0)
(2.56516e-06 0 0)
(2.56519e-06 0 0)
(2.56522e-06 0 0)
(2.56525e-06 0 0)
(2.56528e-06 0 0)
(2.56531e-06 0 0)
(2.56533e-06 0 0)
(2.56535e-06 0 0)
(2.56538e-06 0 0)
(2.5654e-06 0 0)
(2.56542e-06 0 0)
(2.56543e-06 0 0)
(2.56545e-06 0 0)
(2.56546e-06 0 0)
(2.56547e-06 0 0)
(2.56549e-06 0 0)
(2.5655e-06 0 0)
(2.56551e-06 0 0)
(2.56551e-06 0 0)
(2.56552e-06 0 0)
(2.56553e-06 0 0)
(2.56554e-06 0 0)
(2.56554e-06 0 0)
(2.56555e-06 0 0)
(2.56555e-06 0 0)
(2.56555e-06 0 0)
(2.56556e-06 0 0)
(2.56556e-06 0 0)
(2.56557e-06 0 0)
(2.56557e-06 0 0)
(2.56558e-06 0 0)
(2.56558e-06 0 0)
(2.56559e-06 0 0)
(2.5656e-06 0 0)
(2.5656e-06 0 0)
(2.56562e-06 0 0)
(2.56563e-06 0 0)
(2.56564e-06 0 0)
(2.56566e-06 0 0)
(2.56567e-06 0 0)
(2.56569e-06 0 0)
(2.56571e-06 0 0)
(2.56573e-06 0 0)
(2.56575e-06 0 0)
(2.56577e-06 0 0)
(2.5658e-06 0 0)
(2.56582e-06 0 0)
(2.56585e-06 0 0)
(2.56588e-06 0 0)
(2.56591e-06 0 0)
(2.56595e-06 0 0)
(2.56598e-06 0 0)
(2.56601e-06 0 0)
(2.56605e-06 0 0)
(2.56609e-06 0 0)
(2.56612e-06 0 0)
(2.56616e-06 0 0)
(2.5662e-06 0 0)
(2.56623e-06 0 0)
(2.56627e-06 0 0)
(2.5663e-06 0 0)
(2.56634e-06 0 0)
(2.56637e-06 0 0)
(2.56641e-06 0 0)
(2.56644e-06 0 0)
(2.56647e-06 0 0)
(2.5665e-06 0 0)
(2.56653e-06 0 0)
(2.56655e-06 0 0)
(2.56657e-06 0 0)
(2.56659e-06 0 0)
(2.56661e-06 0 0)
(2.56662e-06 0 0)
(2.56663e-06 0 0)
(2.56664e-06 0 0)
(2.56665e-06 0 0)
(2.56665e-06 0 0)
(2.56664e-06 0 0)
(2.56664e-06 0 0)
(2.56663e-06 0 0)
(2.56662e-06 0 0)
(2.56661e-06 0 0)
(2.56658e-06 0 0)
(2.56656e-06 0 0)
(2.56653e-06 0 0)
(2.5665e-06 0 0)
(2.56647e-06 0 0)
(2.56643e-06 0 0)
(2.56639e-06 0 0)
(2.56635e-06 0 0)
(2.56631e-06 0 0)
(2.56626e-06 0 0)
(2.56621e-06 0 0)
(2.56616e-06 0 0)
(2.56612e-06 0 0)
(2.56607e-06 0 0)
(2.56602e-06 0 0)
(2.56597e-06 0 0)
(2.56592e-06 0 0)
(2.56587e-06 0 0)
(2.56582e-06 0 0)
(2.56577e-06 0 0)
(2.56573e-06 0 0)
(2.56568e-06 0 0)
(2.56563e-06 0 0)
(2.56559e-06 0 0)
(2.56555e-06 0 0)
(2.56551e-06 0 0)
(2.56547e-06 0 0)
(2.56543e-06 0 0)
(2.56539e-06 0 0)
(2.56535e-06 0 0)
(2.56531e-06 0 0)
(2.56528e-06 0 0)
(2.56524e-06 0 0)
(2.56521e-06 0 0)
(2.56517e-06 0 0)
(2.56513e-06 0 0)
(2.56509e-06 0 0)
(2.56505e-06 0 0)
(2.565e-06 0 0)
(2.56495e-06 0 0)
(2.56488e-06 0 0)
(2.56481e-06 0 0)
(2.56473e-06 0 0)
(2.56464e-06 0 0)
(2.56454e-06 0 0)
(2.56442e-06 0 0)
(2.56428e-06 0 0)
(2.56413e-06 0 0)
(2.56395e-06 0 0)
(2.56376e-06 0 0)
(2.56354e-06 0 0)
(2.5633e-06 0 0)
(2.56304e-06 0 0)
(2.56276e-06 0 0)
(2.56245e-06 0 0)
(2.56213e-06 0 0)
(2.56178e-06 0 0)
(2.56142e-06 0 0)
(2.56104e-06 0 0)
(2.56065e-06 0 0)
(2.56024e-06 0 0)
(2.55983e-06 0 0)
(2.55941e-06 0 0)
(2.55899e-06 0 0)
(2.55857e-06 0 0)
(2.55817e-06 0 0)
(2.55778e-06 0 0)
(2.55741e-06 0 0)
(2.55706e-06 0 0)
(2.55674e-06 0 0)
(2.55646e-06 0 0)
(2.55623e-06 0 0)
(2.55604e-06 0 0)
(2.55591e-06 0 0)
(2.55584e-06 0 0)
(2.55581e-06 0 0)
(2.55581e-06 0 0)
(2.55583e-06 0 0)
(2.55595e-06 0 0)
(2.55618e-06 0 0)
(2.5565e-06 0 0)
(2.55688e-06 0 0)
(2.55732e-06 0 0)
(2.55782e-06 0 0)
(2.55836e-06 0 0)
(2.55893e-06 0 0)
(2.55954e-06 0 0)
(2.56015e-06 0 0)
(2.56077e-06 0 0)
(2.56139e-06 0 0)
(2.56199e-06 0 0)
(2.56256e-06 0 0)
(2.5631e-06 0 0)
(2.56361e-06 0 0)
(2.56407e-06 0 0)
(2.56448e-06 0 0)
(2.56485e-06 0 0)
(2.56516e-06 0 0)
(2.56543e-06 0 0)
(2.56565e-06 0 0)
(2.56582e-06 0 0)
(2.56596e-06 0 0)
(2.56605e-06 0 0)
(2.5661e-06 0 0)
(2.56613e-06 0 0)
(2.56614e-06 0 0)
(2.56614e-06 0 0)
(2.56612e-06 0 0)
(2.56607e-06 0 0)
(2.56599e-06 0 0)
(2.5659e-06 0 0)
(2.56581e-06 0 0)
(2.56572e-06 0 0)
(2.56563e-06 0 0)
(2.56554e-06 0 0)
(2.56546e-06 0 0)
(2.56538e-06 0 0)
(2.56531e-06 0 0)
(2.56524e-06 0 0)
(2.56518e-06 0 0)
(2.56513e-06 0 0)
(2.56509e-06 0 0)
(2.56505e-06 0 0)
(2.56503e-06 0 0)
(2.565e-06 0 0)
(2.56499e-06 0 0)
(2.56498e-06 0 0)
(2.56498e-06 0 0)
(2.56498e-06 0 0)
(2.56498e-06 0 0)
(2.56499e-06 0 0)
(2.56501e-06 0 0)
(2.56503e-06 0 0)
(2.56506e-06 0 0)
(2.56509e-06 0 0)
(2.56512e-06 0 0)
(2.56516e-06 0 0)
(2.5652e-06 0 0)
(2.56523e-06 0 0)
(2.56528e-06 0 0)
(2.56532e-06 0 0)
(2.56536e-06 0 0)
(2.56541e-06 0 0)
(2.56545e-06 0 0)
(2.5655e-06 0 0)
(2.56555e-06 0 0)
(2.5656e-06 0 0)
(2.56566e-06 0 0)
(2.56571e-06 0 0)
(2.56575e-06 0 0)
(2.5658e-06 0 0)
(2.56585e-06 0 0)
(2.56589e-06 0 0)
(2.56593e-06 0 0)
(2.56598e-06 0 0)
(2.56602e-06 0 0)
(2.56606e-06 0 0)
(2.56609e-06 0 0)
(2.56613e-06 0 0)
(2.56617e-06 0 0)
(2.5662e-06 0 0)
(2.56623e-06 0 0)
(2.56625e-06 0 0)
(2.56628e-06 0 0)
(2.5663e-06 0 0)
(2.56632e-06 0 0)
(2.56634e-06 0 0)
(2.56635e-06 0 0)
(2.56637e-06 0 0)
(2.56638e-06 0 0)
(2.56639e-06 0 0)
(2.5664e-06 0 0)
(2.5664e-06 0 0)
(2.5664e-06 0 0)
(2.5664e-06 0 0)
(2.5664e-06 0 0)
(2.56639e-06 0 0)
(2.56638e-06 0 0)
(2.56637e-06 0 0)
(2.56636e-06 0 0)
(2.56634e-06 0 0)
(2.56632e-06 0 0)
(2.5663e-06 0 0)
(2.56627e-06 0 0)
(2.56624e-06 0 0)
(2.56621e-06 0 0)
(2.56618e-06 0 0)
(2.56615e-06 0 0)
(2.56612e-06 0 0)
(2.56609e-06 0 0)
(2.56606e-06 0 0)
(2.56603e-06 0 0)
(2.566e-06 0 0)
(2.56596e-06 0 0)
(2.56593e-06 0 0)
(2.5659e-06 0 0)
(2.56587e-06 0 0)
(2.56585e-06 0 0)
(2.56582e-06 0 0)
(2.5658e-06 0 0)
(2.56578e-06 0 0)
(2.56576e-06 0 0)
(2.56574e-06 0 0)
(2.56573e-06 0 0)
(2.56572e-06 0 0)
(2.56571e-06 0 0)
(2.56571e-06 0 0)
(2.5657e-06 0 0)
(2.5657e-06 0 0)
(2.5657e-06 0 0)
(2.56571e-06 0 0)
(2.56572e-06 0 0)
(2.56573e-06 0 0)
(2.56574e-06 0 0)
(2.56576e-06 0 0)
(2.56578e-06 0 0)
(2.5658e-06 0 0)
(2.56582e-06 0 0)
(2.56584e-06 0 0)
(2.56587e-06 0 0)
(2.56589e-06 0 0)
(2.56591e-06 0 0)
(2.56593e-06 0 0)
(2.56595e-06 0 0)
(2.56597e-06 0 0)
(2.56599e-06 0 0)
(2.56601e-06 0 0)
(2.56602e-06 0 0)
(2.56604e-06 0 0)
(2.56605e-06 0 0)
(2.56606e-06 0 0)
(2.56606e-06 0 0)
(2.56606e-06 0 0)
(2.56606e-06 0 0)
(2.56606e-06 0 0)
(2.56605e-06 0 0)
(2.56604e-06 0 0)
(2.56602e-06 0 0)
(2.566e-06 0 0)
(2.56597e-06 0 0)
(2.56594e-06 0 0)
(2.5659e-06 0 0)
(2.56586e-06 0 0)
(2.56581e-06 0 0)
(2.56575e-06 0 0)
(2.56569e-06 0 0)
(2.56562e-06 0 0)
(2.56554e-06 0 0)
(2.56546e-06 0 0)
(2.56536e-06 0 0)
(2.56526e-06 0 0)
(2.56514e-06 0 0)
(2.56501e-06 0 0)
(2.56487e-06 0 0)
(2.56472e-06 0 0)
(2.56456e-06 0 0)
(2.56438e-06 0 0)
(2.56419e-06 0 0)
(2.56399e-06 0 0)
(2.56378e-06 0 0)
(2.56355e-06 0 0)
(2.56331e-06 0 0)
(2.56305e-06 0 0)
(2.56279e-06 0 0)
(2.56252e-06 0 0)
(2.56223e-06 0 0)
(2.56193e-06 0 0)
(2.56163e-06 0 0)
(2.56132e-06 0 0)
(2.56102e-06 0 0)
(2.56071e-06 0 0)
(2.5604e-06 0 0)
(2.5601e-06 0 0)
(2.5598e-06 0 0)
(2.55952e-06 0 0)
(2.55925e-06 0 0)
(2.55901e-06 0 0)
(2.55879e-06 0 0)
(2.5586e-06 0 0)
(2.55844e-06 0 0)
(2.55833e-06 0 0)
(2.55825e-06 0 0)
(2.55822e-06 0 0)
(2.55821e-06 0 0)
(2.55822e-06 0 0)
(2.55828e-06 0 0)
(2.55844e-06 0 0)
(2.55869e-06 0 0)
(2.559e-06 0 0)
(2.55937e-06 0 0)
(2.5598e-06 0 0)
(2.56029e-06 0 0)
(2.56084e-06 0 0)
(2.56143e-06 0 0)
(2.56205e-06 0 0)
(2.5627e-06 0 0)
(2.56337e-06 0 0)
(2.56405e-06 0 0)
(2.56473e-06 0 0)
(2.5654e-06 0 0)
(2.56605e-06 0 0)
(2.56667e-06 0 0)
(2.56726e-06 0 0)
(2.56781e-06 0 0)
(2.56831e-06 0 0)
(2.56876e-06 0 0)
(2.56916e-06 0 0)
(2.56951e-06 0 0)
(2.56981e-06 0 0)
(2.57006e-06 0 0)
(2.57027e-06 0 0)
(2.57042e-06 0 0)
(2.57053e-06 0 0)
(2.57059e-06 0 0)
(2.57062e-06 0 0)
(2.57063e-06 0 0)
(2.57063e-06 0 0)
(2.57061e-06 0 0)
(2.57054e-06 0 0)
(2.57044e-06 0 0)
(2.5704e-06 0 0)
(2.57077e-06 0 0)
(2.5727e-06 0 0)
(2.58533e-06 0 0)
(2.71931e-06 0 0)
(2.90244e-06 0 0)
(2.96492e-06 0 0)
(2.96723e-06 0 0)
(2.96726e-06 0 0)
(2.96727e-06 0 0)
(2.96727e-06 0 0)
(2.96727e-06 0 0)
(2.96727e-06 0 0)
(2.96727e-06 0 0)
(2.96727e-06 0 0)
(2.96727e-06 0 0)
(2.96727e-06 0 0)
(2.96727e-06 0 0)
(2.96727e-06 0 0)
(2.96727e-06 0 0)
(2.96727e-06 0 0)
(2.96727e-06 0 0)
(2.96727e-06 0 0)
(2.96727e-06 0 0)
(2.96727e-06 0 0)
(2.96727e-06 0 0)
(2.96727e-06 0 0)
(2.96727e-06 0 0)
(2.96727e-06 0 0)
(2.96727e-06 0 0)
(2.96727e-06 0 0)
(2.96727e-06 0 0)
(2.96727e-06 0 0)
(2.96727e-06 0 0)
(2.96727e-06 0 0)
(2.96727e-06 0 0)
(2.96727e-06 0 0)
(2.96727e-06 0 0)
(2.96727e-06 0 0)
(2.96727e-06 0 0)
(2.96727e-06 0 0)
(2.96727e-06 0 0)
(2.96727e-06 0 0)
(2.96727e-06 0 0)
(2.96727e-06 0 0)
(2.96727e-06 0 0)
(2.96727e-06 0 0)
(2.96727e-06 0 0)
(2.96727e-06 0 0)
(2.96727e-06 0 0)
(2.96727e-06 0 0)
(2.96727e-06 0 0)
(2.96727e-06 0 0)
(2.96727e-06 0 0)
(2.96727e-06 0 0)
(2.96727e-06 0 0)
(2.96727e-06 0 0)
(2.96727e-06 0 0)
(2.96727e-06 0 0)
(2.96727e-06 0 0)
(2.96727e-06 0 0)
(2.96727e-06 0 0)
(2.96727e-06 0 0)
(2.96727e-06 0 0)
(2.96727e-06 0 0)
(2.96727e-06 0 0)
(2.96727e-06 0 0)
(2.96727e-06 0 0)
(2.96727e-06 0 0)
(2.96727e-06 0 0)
(2.96727e-06 0 0)
(2.96727e-06 0 0)
(2.96727e-06 0 0)
(2.96727e-06 0 0)
(2.96727e-06 0 0)
(2.96727e-06 0 0)
(2.96727e-06 0 0)
(2.96727e-06 0 0)
(2.96727e-06 0 0)
(2.96727e-06 0 0)
(2.96727e-06 0 0)
(2.96727e-06 0 0)
(2.96727e-06 0 0)
(2.96727e-06 0 0)
(2.96727e-06 0 0)
(2.96727e-06 0 0)
(2.96727e-06 0 0)
(2.96727e-06 0 0)
(2.96727e-06 0 0)
(2.96727e-06 0 0)
(2.96727e-06 0 0)
(2.96727e-06 0 0)
(2.96727e-06 0 0)
(2.96727e-06 0 0)
(2.96727e-06 0 0)
(2.96727e-06 0 0)
(2.96727e-06 0 0)
(2.96727e-06 0 0)
(2.96727e-06 0 0)
(2.96727e-06 0 0)
(2.96727e-06 0 0)
(2.96727e-06 0 0)
(2.96727e-06 0 0)
(2.96727e-06 0 0)
(2.96727e-06 0 0)
(2.96727e-06 0 0)
(2.96727e-06 0 0)
(2.96727e-06 0 0)
(2.96727e-06 0 0)
(2.96727e-06 0 0)
(2.96727e-06 0 0)
(2.96727e-06 0 0)
(2.96727e-06 0 0)
(2.96727e-06 0 0)
(2.96727e-06 0 0)
(2.96727e-06 0 0)
(2.96727e-06 0 0)
(2.96727e-06 0 0)
(2.96727e-06 0 0)
(2.96727e-06 0 0)
(2.96727e-06 0 0)
(2.96727e-06 0 0)
(2.96727e-06 0 0)
(2.96727e-06 0 0)
(2.96727e-06 0 0)
(2.96727e-06 0 0)
(2.96727e-06 0 0)
(2.96727e-06 0 0)
(2.96727e-06 0 0)
(2.96727e-06 0 0)
(2.96727e-06 0 0)
(2.96727e-06 0 0)
(2.96727e-06 0 0)
(2.96727e-06 0 0)
(2.96727e-06 0 0)
(2.96727e-06 0 0)
(2.96727e-06 0 0)
(2.96727e-06 0 0)
(2.96727e-06 0 0)
(2.96727e-06 0 0)
(2.96727e-06 0 0)
(2.96727e-06 0 0)
(2.96727e-06 0 0)
(2.96727e-06 0 0)
(2.96727e-06 0 0)
(2.96727e-06 0 0)
(2.96727e-06 0 0)
(2.96727e-06 0 0)
(2.96727e-06 0 0)
(2.96727e-06 0 0)
(2.96727e-06 0 0)
(2.96727e-06 0 0)
(2.96727e-06 0 0)
(2.96727e-06 0 0)
(2.96727e-06 0 0)
(2.96727e-06 0 0)
(2.96727e-06 0 0)
(2.96727e-06 0 0)
(2.96727e-06 0 0)
(2.96727e-06 0 0)
(2.96727e-06 0 0)
(2.96727e-06 0 0)
(2.96727e-06 0 0)
(2.96727e-06 0 0)
(2.96727e-06 0 0)
(2.96727e-06 0 0)
(2.96727e-06 0 0)
(2.96727e-06 0 0)
(2.96727e-06 0 0)
(2.96727e-06 0 0)
(2.96727e-06 0 0)
(2.96727e-06 0 0)
(2.96727e-06 0 0)
(2.96727e-06 0 0)
(2.96727e-06 0 0)
(2.96727e-06 0 0)
(2.96727e-06 0 0)
(2.96727e-06 0 0)
(2.96727e-06 0 0)
(2.96727e-06 0 0)
(2.96727e-06 0 0)
(2.96727e-06 0 0)
(2.96727e-06 0 0)
(2.96727e-06 0 0)
(2.96727e-06 0 0)
(2.96727e-06 0 0)
(2.96727e-06 0 0)
(2.96727e-06 0 0)
(2.96727e-06 0 0)
(2.96727e-06 0 0)
(2.96727e-06 0 0)
(2.96727e-06 0 0)
(2.96727e-06 0 0)
(2.96727e-06 0 0)
(2.96727e-06 0 0)
(2.96727e-06 0 0)
(2.96727e-06 0 0)
(2.96727e-06 0 0)
(2.96727e-06 0 0)
(2.96727e-06 0 0)
(2.96727e-06 0 0)
(2.96727e-06 0 0)
(2.96727e-06 0 0)
(2.96727e-06 0 0)
(2.96727e-06 0 0)
(2.96727e-06 0 0)
(2.96727e-06 0 0)
(2.96727e-06 0 0)
(2.96727e-06 0 0)
(2.96727e-06 0 0)
(2.96727e-06 0 0)
(2.96727e-06 0 0)
(2.96727e-06 0 0)
(2.96727e-06 0 0)
(2.96727e-06 0 0)
(2.96727e-06 0 0)
(2.96727e-06 0 0)
(2.96727e-06 0 0)
(2.96727e-06 0 0)
(2.96727e-06 0 0)
(2.96727e-06 0 0)
(2.96727e-06 0 0)
(2.96727e-06 0 0)
(2.96727e-06 0 0)
(2.96727e-06 0 0)
(2.96727e-06 0 0)
(2.96727e-06 0 0)
(2.96727e-06 0 0)
(2.96727e-06 0 0)
(2.96727e-06 0 0)
(2.96727e-06 0 0)
(2.96727e-06 0 0)
(2.96727e-06 0 0)
(2.96727e-06 0 0)
(2.96727e-06 0 0)
(2.96727e-06 0 0)
(2.96727e-06 0 0)
(2.96727e-06 0 0)
(2.96727e-06 0 0)
(2.96727e-06 0 0)
(2.96727e-06 0 0)
(2.96727e-06 0 0)
(2.96727e-06 0 0)
(2.96727e-06 0 0)
(2.96727e-06 0 0)
(2.96727e-06 0 0)
(2.96727e-06 0 0)
(2.96727e-06 0 0)
(2.96727e-06 0 0)
(2.96727e-06 0 0)
(2.96727e-06 0 0)
(2.96727e-06 0 0)
(2.96727e-06 0 0)
(2.96727e-06 0 0)
(2.96727e-06 0 0)
(2.96727e-06 0 0)
(2.96727e-06 0 0)
(2.96727e-06 0 0)
(2.96727e-06 0 0)
(2.96727e-06 0 0)
(2.96727e-06 0 0)
(2.96727e-06 0 0)
(2.96727e-06 0 0)
(2.96727e-06 0 0)
(2.96727e-06 0 0)
(2.96727e-06 0 0)
(2.96727e-06 0 0)
(2.96727e-06 0 0)
(2.96727e-06 0 0)
(2.96727e-06 0 0)
(2.96727e-06 0 0)
(2.96727e-06 0 0)
(2.96727e-06 0 0)
(2.96727e-06 0 0)
(2.96727e-06 0 0)
(2.96727e-06 0 0)
(2.96727e-06 0 0)
(2.96727e-06 0 0)
(2.96727e-06 0 0)
(2.96727e-06 0 0)
(2.96727e-06 0 0)
(2.96727e-06 0 0)
(2.96727e-06 0 0)
(2.96727e-06 0 0)
(2.96727e-06 0 0)
(2.96727e-06 0 0)
(2.96727e-06 0 0)
(2.96727e-06 0 0)
(2.96727e-06 0 0)
(2.96727e-06 0 0)
(2.96727e-06 0 0)
(2.96727e-06 0 0)
(2.96727e-06 0 0)
(2.96727e-06 0 0)
(2.96727e-06 0 0)
(2.96727e-06 0 0)
(2.96727e-06 0 0)
(2.96727e-06 0 0)
(2.96727e-06 0 0)
(2.96727e-06 0 0)
(2.96727e-06 0 0)
(2.96727e-06 0 0)
(2.96727e-06 0 0)
(2.96727e-06 0 0)
(2.96727e-06 0 0)
(2.96727e-06 0 0)
(2.96727e-06 0 0)
(2.96727e-06 0 0)
(2.96727e-06 0 0)
(2.96727e-06 0 0)
(2.96727e-06 0 0)
(2.96727e-06 0 0)
(2.96727e-06 0 0)
(2.96727e-06 0 0)
(2.96727e-06 0 0)
(2.96727e-06 0 0)
(2.96727e-06 0 0)
(2.96727e-06 0 0)
(2.96727e-06 0 0)
(2.96727e-06 0 0)
(2.96727e-06 0 0)
(2.96727e-06 0 0)
(2.96727e-06 0 0)
(2.96727e-06 0 0)
(2.96727e-06 0 0)
(2.96727e-06 0 0)
(2.96727e-06 0 0)
(2.96727e-06 0 0)
(2.96727e-06 0 0)
(2.96727e-06 0 0)
(2.96727e-06 0 0)
(2.96727e-06 0 0)
(2.96727e-06 0 0)
(2.96727e-06 0 0)
(2.96727e-06 0 0)
(2.96727e-06 0 0)
(2.96727e-06 0 0)
(2.96727e-06 0 0)
(2.96727e-06 0 0)
(2.96727e-06 0 0)
(2.96727e-06 0 0)
(2.96727e-06 0 0)
(2.96727e-06 0 0)
(2.96727e-06 0 0)
(2.96727e-06 0 0)
(2.96727e-06 0 0)
(2.96727e-06 0 0)
(2.96727e-06 0 0)
(2.96727e-06 0 0)
(2.96727e-06 0 0)
(2.96727e-06 0 0)
(2.96727e-06 0 0)
(2.96727e-06 0 0)
(2.96727e-06 0 0)
(2.96727e-06 0 0)
(2.96727e-06 0 0)
(2.96727e-06 0 0)
(2.96727e-06 0 0)
(2.96727e-06 0 0)
(2.96727e-06 0 0)
(2.96727e-06 0 0)
(2.96727e-06 0 0)
(2.96727e-06 0 0)
(2.96727e-06 0 0)
(2.96727e-06 0 0)
(2.96727e-06 0 0)
(2.96727e-06 0 0)
(2.96727e-06 0 0)
(2.96727e-06 0 0)
(2.96727e-06 0 0)
(2.96727e-06 0 0)
(2.96727e-06 0 0)
(2.96727e-06 0 0)
(2.96727e-06 0 0)
(2.96727e-06 0 0)
(2.96727e-06 0 0)
(2.96727e-06 0 0)
(2.96727e-06 0 0)
(2.96727e-06 0 0)
(2.96727e-06 0 0)
(2.96727e-06 0 0)
(2.96727e-06 0 0)
(2.96727e-06 0 0)
(2.96727e-06 0 0)
(2.96727e-06 0 0)
(2.96727e-06 0 0)
(2.96727e-06 0 0)
(2.96727e-06 0 0)
(2.96727e-06 0 0)
(2.96727e-06 0 0)
(2.96727e-06 0 0)
(2.96727e-06 0 0)
(2.96727e-06 0 0)
(2.96727e-06 0 0)
(2.96727e-06 0 0)
(2.96727e-06 0 0)
(2.96727e-06 0 0)
(2.96727e-06 0 0)
(2.96727e-06 0 0)
(2.96727e-06 0 0)
(2.96727e-06 0 0)
(2.96727e-06 0 0)
(2.96727e-06 0 0)
(2.96727e-06 0 0)
(2.96727e-06 0 0)
(2.96727e-06 0 0)
(2.96727e-06 0 0)
(2.96727e-06 0 0)
(2.96727e-06 0 0)
(2.96727e-06 0 0)
(2.96727e-06 0 0)
(2.96727e-06 0 0)
(2.96727e-06 0 0)
(2.96727e-06 0 0)
(2.96727e-06 0 0)
(2.96727e-06 0 0)
(2.96727e-06 0 0)
)
;

boundaryField
{
    inlet
    {
        type            fixedValue;
        value           uniform (1.13622e-05 0 0);
    }
    outlet
    {
        type            zeroGradient;
    }
    emptyWalls
    {
        type            empty;
    }
}


// ************************************************************************* //
