/*--------------------------------*- C++ -*----------------------------------*\
  =========                 |
  \\      /  F ield         | OpenFOAM: The Open Source CFD Toolbox
   \\    /   O peration     | Website:  https://openfoam.org
    \\  /    A nd           | Version:  9
     \\/     M anipulation  |
\*---------------------------------------------------------------------------*/
FoamFile
{
    format      ascii;
    class       volScalarField;
    location    "3800";
    object      kra;
}
// * * * * * * * * * * * * * * * * * * * * * * * * * * * * * * * * * * * * * //

dimensions      [0 0 0 0 0 0 0];

internalField   nonuniform List<scalar> 
100
(
4.05568e-05
2.98889e-05
3.24177e-05
3.09654e-05
3.10359e-05
3.06378e-05
3.04455e-05
3.02132e-05
3.00198e-05
2.9833e-05
2.96607e-05
2.94975e-05
2.93431e-05
2.9196e-05
2.90553e-05
2.89202e-05
2.879e-05
2.8664e-05
2.85417e-05
2.84225e-05
2.8306e-05
2.81914e-05
2.80782e-05
2.79657e-05
2.78529e-05
2.77386e-05
2.76212e-05
2.7498e-05
2.73649e-05
2.73573e-05
2.74174e-05
2.74484e-05
2.74864e-05
2.75191e-05
2.75513e-05
2.75816e-05
2.76106e-05
2.76384e-05
2.76651e-05
2.76907e-05
2.77153e-05
2.7739e-05
2.77619e-05
2.7784e-05
2.78053e-05
2.78258e-05
2.78456e-05
2.78647e-05
2.7883e-05
2.79007e-05
2.79177e-05
2.7934e-05
2.79496e-05
2.79646e-05
2.7979e-05
2.79927e-05
2.80058e-05
2.80183e-05
2.80302e-05
2.80415e-05
2.80522e-05
2.80624e-05
2.80719e-05
2.80809e-05
2.80894e-05
2.80973e-05
2.81047e-05
2.81116e-05
2.81179e-05
2.81237e-05
2.81291e-05
2.81339e-05
2.81381e-05
2.81419e-05
2.81452e-05
2.81479e-05
2.81501e-05
2.81518e-05
2.8153e-05
2.81537e-05
2.81538e-05
2.81534e-05
2.81524e-05
2.81509e-05
2.81489e-05
2.81463e-05
2.81431e-05
2.81394e-05
2.81351e-05
2.81302e-05
2.81247e-05
2.81186e-05
2.81119e-05
2.81045e-05
2.80964e-05
2.80877e-05
2.80781e-05
2.80678e-05
2.80567e-05
7.56013e-05
)
;

boundaryField
{
    inlet
    {
        type            calculated;
        value           uniform 1.20585e-05;
    }
    outlet
    {
        type            calculated;
        value           uniform 8.13905e-06;
    }
    emptyWalls
    {
        type            empty;
    }
}


// ************************************************************************* //
