/*--------------------------------*- C++ -*----------------------------------*\
  =========                 |
  \\      /  F ield         | OpenFOAM: The Open Source CFD Toolbox
   \\    /   O peration     | Website:  https://openfoam.org
    \\  /    A nd           | Version:  9
     \\/     M anipulation  |
\*---------------------------------------------------------------------------*/
FoamFile
{
    format      ascii;
    class       volScalarField;
    location    "3800";
    object      p;
}
// * * * * * * * * * * * * * * * * * * * * * * * * * * * * * * * * * * * * * //

dimensions      [0 0 0 0 0 0 0];

internalField   nonuniform List<scalar> 
100
(
6.08657e+06
6.07856e+06
6.06769e+06
6.05768e+06
6.0472e+06
6.03675e+06
6.02617e+06
6.01554e+06
6.00482e+06
5.99405e+06
5.98322e+06
5.97233e+06
5.96139e+06
5.9504e+06
5.93936e+06
5.92828e+06
5.91715e+06
5.90598e+06
5.89477e+06
5.88353e+06
5.87225e+06
5.86093e+06
5.84957e+06
5.83818e+06
5.82675e+06
5.81529e+06
5.80379e+06
5.79226e+06
5.78069e+06
5.76908e+06
5.75749e+06
5.74593e+06
5.73441e+06
5.72291e+06
5.71145e+06
5.70001e+06
5.6886e+06
5.67722e+06
5.66587e+06
5.65454e+06
5.64324e+06
5.63196e+06
5.62071e+06
5.60948e+06
5.59828e+06
5.5871e+06
5.57595e+06
5.56482e+06
5.55371e+06
5.54263e+06
5.53157e+06
5.52054e+06
5.50953e+06
5.49854e+06
5.48757e+06
5.47663e+06
5.46571e+06
5.45481e+06
5.44394e+06
5.43309e+06
5.42226e+06
5.41145e+06
5.40066e+06
5.3899e+06
5.37916e+06
5.36844e+06
5.35774e+06
5.34707e+06
5.33641e+06
5.32578e+06
5.31517e+06
5.30458e+06
5.29402e+06
5.28347e+06
5.27295e+06
5.26245e+06
5.25197e+06
5.24151e+06
5.23108e+06
5.22066e+06
5.21027e+06
5.1999e+06
5.18956e+06
5.17923e+06
5.16893e+06
5.15864e+06
5.14839e+06
5.13815e+06
5.12794e+06
5.11774e+06
5.10758e+06
5.09743e+06
5.08731e+06
5.07721e+06
5.06713e+06
5.05708e+06
5.04705e+06
5.03705e+06
5.02707e+06
5.01712e+06
)
;

boundaryField
{
    inlet
    {
        type            darcyGradPressure;
        gradient        uniform 3.94043e+06;
        Mf              Mf;
        phi             phi;
        value           uniform 6.09445e+06;
    }
    outlet
    {
        type            fixedValue;
        value           uniform 5e+06;
    }
    emptyWalls
    {
        type            empty;
    }
}


// ************************************************************************* //
