/*--------------------------------*- C++ -*----------------------------------*\
  =========                 |
  \\      /  F ield         | OpenFOAM: The Open Source CFD Toolbox
   \\    /   O peration     | Website:  https://openfoam.org
    \\  /    A nd           | Version:  9
     \\/     M anipulation  |
\*---------------------------------------------------------------------------*/
FoamFile
{
    format      ascii;
    class       surfaceScalarField;
    location    "3800";
    object      phia;
}
// * * * * * * * * * * * * * * * * * * * * * * * * * * * * * * * * * * * * * //

dimensions      [0 2 0 0 0 0 0];

internalField   nonuniform List<scalar> 
99
(
1.42063e-08
1.41995e-08
1.4192e-08
1.4184e-08
1.41756e-08
1.4167e-08
1.4158e-08
1.41487e-08
1.41392e-08
1.41294e-08
1.41195e-08
1.41093e-08
1.40989e-08
1.40883e-08
1.40775e-08
1.40665e-08
1.40553e-08
1.40438e-08
1.40322e-08
1.40203e-08
1.40081e-08
1.39956e-08
1.39828e-08
1.39695e-08
1.39556e-08
1.39411e-08
1.39255e-08
1.39087e-08
1.38898e-08
1.3868e-08
1.38491e-08
1.383e-08
1.38115e-08
1.37931e-08
1.37748e-08
1.37565e-08
1.37381e-08
1.37197e-08
1.37011e-08
1.36824e-08
1.36635e-08
1.36446e-08
1.36255e-08
1.36063e-08
1.3587e-08
1.35675e-08
1.35479e-08
1.35281e-08
1.35081e-08
1.3488e-08
1.34677e-08
1.34472e-08
1.34265e-08
1.34057e-08
1.33846e-08
1.33634e-08
1.3342e-08
1.33203e-08
1.32985e-08
1.32764e-08
1.32542e-08
1.32317e-08
1.32091e-08
1.31862e-08
1.31631e-08
1.31398e-08
1.31163e-08
1.30926e-08
1.30687e-08
1.30446e-08
1.30203e-08
1.29957e-08
1.29709e-08
1.29458e-08
1.29205e-08
1.2895e-08
1.28692e-08
1.28431e-08
1.28167e-08
1.27901e-08
1.27631e-08
1.27359e-08
1.27083e-08
1.26804e-08
1.26521e-08
1.26235e-08
1.25945e-08
1.25651e-08
1.25353e-08
1.25051e-08
1.24744e-08
1.24432e-08
1.24114e-08
1.23791e-08
1.23462e-08
1.23126e-08
1.22782e-08
1.2243e-08
1.2207e-08
)
;

boundaryField
{
    inlet
    {
        type            calculated;
        value           uniform -1.42126e-08;
    }
    outlet
    {
        type            calculated;
        value           uniform 1.21842e-08;
    }
    emptyWalls
    {
        type            empty;
        value           nonuniform List<scalar> 0();
    }
}


// ************************************************************************* //
