/*--------------------------------*- C++ -*----------------------------------*\
  =========                 |
  \\      /  F ield         | OpenFOAM: The Open Source CFD Toolbox
   \\    /   O peration     | Website:  https://openfoam.org
    \\  /    A nd           | Version:  9
     \\/     M anipulation  |
\*---------------------------------------------------------------------------*/
FoamFile
{
    format      ascii;
    class       surfaceScalarField;
    location    "3800";
    object      phib;
}
// * * * * * * * * * * * * * * * * * * * * * * * * * * * * * * * * * * * * * //

dimensions      [0 2 0 0 0 0 0];

internalField   nonuniform List<scalar> 
99
(
6.0909e-09
6.0906e-09
6.09028e-09
6.08995e-09
6.08959e-09
6.08922e-09
6.08884e-09
6.08845e-09
6.08805e-09
6.08763e-09
6.08721e-09
6.08678e-09
6.08634e-09
6.08589e-09
6.08544e-09
6.08498e-09
6.0845e-09
6.08402e-09
6.08353e-09
6.08303e-09
6.08252e-09
6.082e-09
6.08146e-09
6.08091e-09
6.08033e-09
6.07972e-09
6.07907e-09
6.07836e-09
6.07756e-09
6.07874e-09
6.07911e-09
6.07978e-09
6.08034e-09
6.08096e-09
6.08158e-09
6.08225e-09
6.08296e-09
6.08371e-09
6.08449e-09
6.08529e-09
6.08609e-09
6.0869e-09
6.08769e-09
6.08847e-09
6.08924e-09
6.09e-09
6.09075e-09
6.09151e-09
6.09227e-09
6.09305e-09
6.09384e-09
6.09464e-09
6.09547e-09
6.09631e-09
6.09718e-09
6.09808e-09
6.099e-09
6.09994e-09
6.10092e-09
6.10192e-09
6.10294e-09
6.104e-09
6.10507e-09
6.10616e-09
6.10727e-09
6.1084e-09
6.10954e-09
6.11069e-09
6.11186e-09
6.11304e-09
6.11424e-09
6.11545e-09
6.11667e-09
6.11792e-09
6.11919e-09
6.12048e-09
6.1218e-09
6.12315e-09
6.12453e-09
6.12593e-09
6.12738e-09
6.12885e-09
6.13036e-09
6.13191e-09
6.13349e-09
6.13511e-09
6.13676e-09
6.13846e-09
6.14019e-09
6.14196e-09
6.14378e-09
6.14563e-09
6.14754e-09
6.14949e-09
6.1515e-09
6.15357e-09
6.1557e-09
6.15791e-09
6.16019e-09
)
;

boundaryField
{
    inlet
    {
        type            calculated;
        value           uniform -6.09112e-09;
    }
    outlet
    {
        type            calculated;
        value           uniform 6.16017e-09;
    }
    emptyWalls
    {
        type            empty;
        value           nonuniform List<scalar> 0();
    }
}


// ************************************************************************* //
