/*--------------------------------*- C++ -*----------------------------------*\
  =========                 |
  \\      /  F ield         | OpenFOAM: The Open Source CFD Toolbox
   \\    /   O peration     | Website:  https://openfoam.org
    \\  /    A nd           | Version:  9
     \\/     M anipulation  |
\*---------------------------------------------------------------------------*/
FoamFile
{
    format      ascii;
    class       surfaceScalarField;
    location    "3800";
    object      phic;
}
// * * * * * * * * * * * * * * * * * * * * * * * * * * * * * * * * * * * * * //

dimensions      [0 2 0 0 0 0 0];

internalField   nonuniform List<scalar> 
99
(
6.58091e-12
1.36522e-11
2.15038e-11
2.97912e-11
3.85035e-11
4.75612e-11
5.69334e-11
6.65886e-11
7.65057e-11
8.66677e-11
9.70617e-11
1.07678e-10
1.1851e-10
1.29554e-10
1.40808e-10
1.52274e-10
1.63957e-10
1.75864e-10
1.8801e-10
2.00413e-10
2.13102e-10
2.26115e-10
2.39509e-10
2.53362e-10
2.67788e-10
2.82958e-10
2.9913e-10
3.16716e-10
3.36407e-10
3.56958e-10
3.75566e-10
3.9397e-10
4.11887e-10
4.29668e-10
4.47333e-10
4.6498e-10
4.82647e-10
5.00372e-10
5.18179e-10
5.36087e-10
5.5411e-10
5.72258e-10
5.90541e-10
6.08965e-10
6.27534e-10
6.46254e-10
6.65126e-10
6.84155e-10
7.03343e-10
7.22691e-10
7.42202e-10
7.61877e-10
7.81718e-10
8.01726e-10
8.21904e-10
8.42252e-10
8.62772e-10
8.83466e-10
9.04336e-10
9.25383e-10
9.46609e-10
9.68017e-10
9.89608e-10
1.01138e-09
1.03335e-09
1.0555e-09
1.07785e-09
1.1004e-09
1.12314e-09
1.14609e-09
1.16925e-09
1.19261e-09
1.21619e-09
1.23999e-09
1.26402e-09
1.28827e-09
1.31276e-09
1.3375e-09
1.36248e-09
1.38772e-09
1.41323e-09
1.43901e-09
1.46507e-09
1.49144e-09
1.51811e-09
1.54511e-09
1.57244e-09
1.60014e-09
1.62821e-09
1.65668e-09
1.68557e-09
1.71492e-09
1.74476e-09
1.77512e-09
1.80605e-09
1.83759e-09
1.86982e-09
1.90279e-09
1.93659e-09
)
;

boundaryField
{
    inlet
    {
        type            calculated;
        value           uniform 0;
    }
    outlet
    {
        type            calculated;
        value           uniform 1.95941e-09;
    }
    emptyWalls
    {
        type            empty;
        value           nonuniform List<scalar> 0();
    }
}


// ************************************************************************* //
