/*--------------------------------*- C++ -*----------------------------------*\
  =========                 |
  \\      /  F ield         | OpenFOAM: The Open Source CFD Toolbox
   \\    /   O peration     | Website:  https://openfoam.org
    \\  /    A nd           | Version:  9
     \\/     M anipulation  |
\*---------------------------------------------------------------------------*/
FoamFile
{
    format      ascii;
    class       volVectorField;
    location    "3800";
    object      Ua;
}
// * * * * * * * * * * * * * * * * * * * * * * * * * * * * * * * * * * * * * //

dimensions      [0 0 0 0 0 0 0];

internalField   nonuniform List<vector> 
100
(
(0 0 8.95855e-06)
(0 0 1.13023e-05)
(0 0 1.12966e-05)
(0 0 1.12904e-05)
(0 0 1.12839e-05)
(0 0 1.12772e-05)
(0 0 1.12701e-05)
(0 0 1.12629e-05)
(0 0 1.12554e-05)
(0 0 1.12477e-05)
(0 0 1.12399e-05)
(0 0 1.12319e-05)
(0 0 1.12237e-05)
(0 0 1.12153e-05)
(0 0 1.12068e-05)
(0 0 1.11981e-05)
(0 0 1.11893e-05)
(0 0 1.11803e-05)
(0 0 1.11711e-05)
(0 0 1.11617e-05)
(0 0 1.11521e-05)
(0 0 1.11423e-05)
(0 0 1.11322e-05)
(0 0 1.11218e-05)
(0 0 1.1111e-05)
(0 0 1.10997e-05)
(0 0 1.10878e-05)
(0 0 1.10749e-05)
(0 0 1.10606e-05)
(0 0 1.10445e-05)
(0 0 1.10283e-05)
(0 0 1.10131e-05)
(0 0 1.09982e-05)
(0 0 1.09835e-05)
(0 0 1.09689e-05)
(0 0 1.09544e-05)
(0 0 1.09398e-05)
(0 0 1.09251e-05)
(0 0 1.09104e-05)
(0 0 1.08955e-05)
(0 0 1.08806e-05)
(0 0 1.08656e-05)
(0 0 1.08504e-05)
(0 0 1.08352e-05)
(0 0 1.08199e-05)
(0 0 1.08044e-05)
(0 0 1.07889e-05)
(0 0 1.07732e-05)
(0 0 1.07574e-05)
(0 0 1.07414e-05)
(0 0 1.07253e-05)
(0 0 1.07091e-05)
(0 0 1.06927e-05)
(0 0 1.06762e-05)
(0 0 1.06595e-05)
(0 0 1.06427e-05)
(0 0 1.06257e-05)
(0 0 1.06086e-05)
(0 0 1.05913e-05)
(0 0 1.05738e-05)
(0 0 1.05562e-05)
(0 0 1.05384e-05)
(0 0 1.05205e-05)
(0 0 1.05023e-05)
(0 0 1.04841e-05)
(0 0 1.04656e-05)
(0 0 1.0447e-05)
(0 0 1.04282e-05)
(0 0 1.04093e-05)
(0 0 1.03902e-05)
(0 0 1.03709e-05)
(0 0 1.03514e-05)
(0 0 1.03318e-05)
(0 0 1.03119e-05)
(0 0 1.02919e-05)
(0 0 1.02717e-05)
(0 0 1.02512e-05)
(0 0 1.02306e-05)
(0 0 1.02097e-05)
(0 0 1.01886e-05)
(0 0 1.01673e-05)
(0 0 1.01457e-05)
(0 0 1.01239e-05)
(0 0 1.01018e-05)
(0 0 1.00795e-05)
(0 0 1.00569e-05)
(0 0 1.00339e-05)
(0 0 1.00107e-05)
(0 0 9.98716e-06)
(0 0 9.96327e-06)
(0 0 9.93902e-06)
(0 0 9.91438e-06)
(0 0 9.88934e-06)
(0 0 9.86385e-06)
(0 0 9.83789e-06)
(0 0 9.81141e-06)
(0 0 9.78437e-06)
(0 0 9.7567e-06)
(0 0 9.72835e-06)
(0 0 9.70492e-06)
)
;

boundaryField
{
    inlet
    {
        type            fixedValue;
        value           uniform (0 0 1.131e-05);
    }
    outlet
    {
        type            zeroGradient;
    }
    emptyWalls
    {
        type            empty;
    }
}


// ************************************************************************* //
