/*--------------------------------*- C++ -*----------------------------------*\
  =========                 |
  \\      /  F ield         | OpenFOAM: The Open Source CFD Toolbox
   \\    /   O peration     | Website:  https://openfoam.org
    \\  /    A nd           | Version:  9
     \\/     M anipulation  |
\*---------------------------------------------------------------------------*/
FoamFile
{
    format      ascii;
    class       volVectorField;
    location    "3800";
    object      Ub;
}
// * * * * * * * * * * * * * * * * * * * * * * * * * * * * * * * * * * * * * //

dimensions      [0 0 0 0 0 0 0];

internalField   nonuniform List<vector> 
100
(
(0 0 7.19088e-06)
(0 0 4.84687e-06)
(0 0 4.84662e-06)
(0 0 4.84636e-06)
(0 0 4.84608e-06)
(0 0 4.8458e-06)
(0 0 4.8455e-06)
(0 0 4.84519e-06)
(0 0 4.84487e-06)
(0 0 4.84455e-06)
(0 0 4.84422e-06)
(0 0 4.84388e-06)
(0 0 4.84353e-06)
(0 0 4.84318e-06)
(0 0 4.84282e-06)
(0 0 4.84245e-06)
(0 0 4.84208e-06)
(0 0 4.8417e-06)
(0 0 4.84132e-06)
(0 0 4.84092e-06)
(0 0 4.84052e-06)
(0 0 4.84011e-06)
(0 0 4.83969e-06)
(0 0 4.83925e-06)
(0 0 4.8388e-06)
(0 0 4.83833e-06)
(0 0 4.83783e-06)
(0 0 4.83729e-06)
(0 0 4.83669e-06)
(0 0 4.83684e-06)
(0 0 4.83746e-06)
(0 0 4.83787e-06)
(0 0 4.83836e-06)
(0 0 4.83883e-06)
(0 0 4.83932e-06)
(0 0 4.83984e-06)
(0 0 4.84038e-06)
(0 0 4.84096e-06)
(0 0 4.84157e-06)
(0 0 4.8422e-06)
(0 0 4.84284e-06)
(0 0 4.84348e-06)
(0 0 4.84411e-06)
(0 0 4.84474e-06)
(0 0 4.84536e-06)
(0 0 4.84596e-06)
(0 0 4.84657e-06)
(0 0 4.84717e-06)
(0 0 4.84777e-06)
(0 0 4.84839e-06)
(0 0 4.84901e-06)
(0 0 4.84964e-06)
(0 0 4.85029e-06)
(0 0 4.85096e-06)
(0 0 4.85164e-06)
(0 0 4.85234e-06)
(0 0 4.85306e-06)
(0 0 4.8538e-06)
(0 0 4.85457e-06)
(0 0 4.85535e-06)
(0 0 4.85616e-06)
(0 0 4.85699e-06)
(0 0 4.85783e-06)
(0 0 4.85869e-06)
(0 0 4.85957e-06)
(0 0 4.86046e-06)
(0 0 4.86136e-06)
(0 0 4.86228e-06)
(0 0 4.8632e-06)
(0 0 4.86413e-06)
(0 0 4.86508e-06)
(0 0 4.86604e-06)
(0 0 4.86701e-06)
(0 0 4.86799e-06)
(0 0 4.86899e-06)
(0 0 4.87001e-06)
(0 0 4.87105e-06)
(0 0 4.87211e-06)
(0 0 4.87319e-06)
(0 0 4.8743e-06)
(0 0 4.87544e-06)
(0 0 4.8766e-06)
(0 0 4.87779e-06)
(0 0 4.879e-06)
(0 0 4.88025e-06)
(0 0 4.88152e-06)
(0 0 4.88282e-06)
(0 0 4.88416e-06)
(0 0 4.88552e-06)
(0 0 4.88691e-06)
(0 0 4.88834e-06)
(0 0 4.8898e-06)
(0 0 4.8913e-06)
(0 0 4.89283e-06)
(0 0 4.89441e-06)
(0 0 4.89603e-06)
(0 0 4.8977e-06)
(0 0 4.89943e-06)
(0 0 4.90122e-06)
(0 0 4.90212e-06)
)
;

boundaryField
{
    inlet
    {
        type            fixedValue;
        value           uniform (0 0 4.84716e-06);
    }
    outlet
    {
        type            zeroGradient;
    }
    emptyWalls
    {
        type            empty;
    }
}


// ************************************************************************* //
