/*--------------------------------*- C++ -*----------------------------------*\
  =========                 |
  \\      /  F ield         | OpenFOAM: The Open Source CFD Toolbox
   \\    /   O peration     | Website:  https://openfoam.org
    \\  /    A nd           | Version:  9
     \\/     M anipulation  |
\*---------------------------------------------------------------------------*/
FoamFile
{
    format      ascii;
    class       volVectorField;
    location    "3800";
    object      Uc;
}
// * * * * * * * * * * * * * * * * * * * * * * * * * * * * * * * * * * * * * //

dimensions      [0 0 0 0 0 0 0];

internalField   nonuniform List<vector> 
100
(
(0 0 7.76939e-09)
(0 0 8.05049e-09)
(0 0 1.39881e-08)
(0 0 2.04096e-08)
(0 0 2.71736e-08)
(0 0 3.42441e-08)
(0 0 4.15771e-08)
(0 0 4.91479e-08)
(0 0 5.69354e-08)
(0 0 6.49246e-08)
(0 0 7.31036e-08)
(0 0 8.14634e-08)
(0 0 8.99976e-08)
(0 0 9.87018e-08)
(0 0 1.07574e-07)
(0 0 1.16614e-07)
(0 0 1.25824e-07)
(0 0 1.3521e-07)
(0 0 1.44781e-07)
(0 0 1.54548e-07)
(0 0 1.64532e-07)
(0 0 1.74759e-07)
(0 0 1.85266e-07)
(0 0 1.96107e-07)
(0 0 2.07359e-07)
(0 0 2.19135e-07)
(0 0 2.31605e-07)
(0 0 2.45037e-07)
(0 0 2.59869e-07)
(0 0 2.75881e-07)
(0 0 2.91462e-07)
(0 0 3.06189e-07)
(0 0 3.2064e-07)
(0 0 3.34844e-07)
(0 0 3.48947e-07)
(0 0 3.62998e-07)
(0 0 3.77049e-07)
(0 0 3.91131e-07)
(0 0 4.05269e-07)
(0 0 4.19479e-07)
(0 0 4.33775e-07)
(0 0 4.48167e-07)
(0 0 4.62663e-07)
(0 0 4.77268e-07)
(0 0 4.91987e-07)
(0 0 5.06824e-07)
(0 0 5.21782e-07)
(0 0 5.36862e-07)
(0 0 5.52068e-07)
(0 0 5.67401e-07)
(0 0 5.82862e-07)
(0 0 5.98454e-07)
(0 0 6.14177e-07)
(0 0 6.30032e-07)
(0 0 6.46022e-07)
(0 0 6.62146e-07)
(0 0 6.78408e-07)
(0 0 6.94806e-07)
(0 0 7.11344e-07)
(0 0 7.28022e-07)
(0 0 7.44842e-07)
(0 0 7.61806e-07)
(0 0 7.78914e-07)
(0 0 7.96169e-07)
(0 0 8.13573e-07)
(0 0 8.31128e-07)
(0 0 8.48836e-07)
(0 0 8.66698e-07)
(0 0 8.84719e-07)
(0 0 9.029e-07)
(0 0 9.21244e-07)
(0 0 9.39754e-07)
(0 0 9.58433e-07)
(0 0 9.77285e-07)
(0 0 9.96315e-07)
(0 0 1.01552e-06)
(0 0 1.03492e-06)
(0 0 1.05451e-06)
(0 0 1.07429e-06)
(0 0 1.09427e-06)
(0 0 1.11446e-06)
(0 0 1.13487e-06)
(0 0 1.1555e-06)
(0 0 1.17636e-06)
(0 0 1.19746e-06)
(0 0 1.21882e-06)
(0 0 1.24043e-06)
(0 0 1.26233e-06)
(0 0 1.28452e-06)
(0 0 1.30701e-06)
(0 0 1.32984e-06)
(0 0 1.35301e-06)
(0 0 1.37656e-06)
(0 0 1.40051e-06)
(0 0 1.4249e-06)
(0 0 1.44976e-06)
(0 0 1.47513e-06)
(0 0 1.50107e-06)
(0 0 1.52764e-06)
(0 0 1.55017e-06)
)
;

boundaryField
{
    inlet
    {
        type            fixedValue;
        value           uniform (0 0 0);
    }
    outlet
    {
        type            zeroGradient;
    }
    emptyWalls
    {
        type            empty;
    }
}


// ************************************************************************* //
