/*--------------------------------*- C++ -*----------------------------------*\
  =========                 |
  \\      /  F ield         | OpenFOAM: The Open Source CFD Toolbox
   \\    /   O peration     | Website:  https://openfoam.org
    \\  /    A nd           | Version:  9
     \\/     M anipulation  |
\*---------------------------------------------------------------------------*/
FoamFile
{
    format      ascii;
    class       volScalarField;
    location    "33000";
    object      krc;
}
// * * * * * * * * * * * * * * * * * * * * * * * * * * * * * * * * * * * * * //

dimensions      [0 0 0 0 0 0 0];

internalField   nonuniform List<scalar> 
100
(
2.61659e-26
3.16314e-26
1.94896e-25
8.67362e-26
5.24221e-26
1.05452e-25
3.77063e-26
2.20264e-26
1.45717e-25
1.03423e-25
2.55561e-25
9.47752e-26
4.4266e-27
6.85305e-27
4.86799e-25
1.18368e-25
2.11598e-25
7.44162e-25
2.56089e-24
4.19715e-24
5.76303e-24
1.16327e-23
1.82932e-23
2.5776e-23
4.85874e-23
6.52935e-23
1.09558e-22
1.4278e-22
2.2282e-22
2.923e-22
4.26791e-22
5.42578e-22
6.91176e-22
8.7205e-22
1.09358e-21
1.2641e-21
1.46542e-21
1.63361e-21
1.78984e-21
1.87504e-21
1.88372e-21
1.79282e-21
1.72717e-21
1.67764e-21
1.28387e-21
7.02973e-22
2.67116e-22
6.72511e-24
1.38703e-22
4.19958e-22
1.20964e-21
2.90143e-21
4.90141e-21
7.7698e-21
1.18718e-20
1.73123e-20
2.35123e-20
3.09178e-20
3.89937e-20
4.729e-20
5.54617e-20
6.33307e-20
7.04104e-20
7.67651e-20
8.18511e-20
8.55464e-20
8.87421e-20
8.96313e-20
9.01237e-20
8.85837e-20
8.67073e-20
8.30724e-20
7.90846e-20
7.39168e-20
6.88854e-20
6.30146e-20
5.75115e-20
5.13822e-20
4.58945e-20
4.00051e-20
3.4749e-20
2.94827e-20
2.53812e-20
2.13411e-20
1.78679e-20
1.46555e-20
1.20209e-20
9.68083e-21
7.61829e-21
6.01391e-21
4.49395e-21
3.31607e-21
2.77303e-21
1.04592e-21
4.673e-21
3.13797e-20
4.08814e-19
8.3574e-18
1.05867e-16
5.60796e-16
)
;

boundaryField
{
    inlet
    {
        type            calculated;
        value           uniform 2.61659e-26;
    }
    outlet
    {
        type            calculated;
        value           uniform 5.60796e-16;
    }
    emptyWalls
    {
        type            empty;
    }
}


// ************************************************************************* //
