/*--------------------------------*- C++ -*----------------------------------*\
  =========                 |
  \\      /  F ield         | OpenFOAM: The Open Source CFD Toolbox
   \\    /   O peration     | Website:  https://openfoam.org
    \\  /    A nd           | Version:  9
     \\/     M anipulation  |
\*---------------------------------------------------------------------------*/
FoamFile
{
    format      ascii;
    class       surfaceScalarField;
    location    "33000";
    object      phic;
}
// * * * * * * * * * * * * * * * * * * * * * * * * * * * * * * * * * * * * * //

dimensions      [0 2 0 0 0 0 0];

internalField   nonuniform List<scalar> 
99
(
0
0
-4.1359e-25
0
0
0
4.1359e-25
4.1359e-25
0
-4.1359e-25
0
-4.1359e-25
0
0
0
4.1359e-25
0
0
0
4.1359e-25
0
0
0
0
0
0
0
0
0
0
4.1359e-25
-4.1359e-25
4.1359e-25
0
-4.1359e-25
4.1359e-25
-4.1359e-25
0
4.1359e-25
0
-4.1359e-25
4.1359e-25
0
-4.1359e-25
0
0
0
0
-4.1359e-25
0
-4.1359e-25
0
4.1359e-25
-4.1359e-25
-4.1359e-25
4.1359e-25
0
0
-4.1359e-25
0
4.1359e-25
0
0
-4.1359e-25
-4.1359e-25
4.1359e-25
0
0
4.1359e-25
0
-4.1359e-25
0
0
0
-4.1359e-25
4.1359e-25
0
0
4.1359e-25
-4.1359e-25
0
0
0
0
4.1359e-25
0
0
0
0
-4.1359e-25
0
-4.1359e-25
0
-4.1359e-25
0
4.1359e-25
4.1359e-25
7.44463e-24
9.51258e-23
)
;

boundaryField
{
    inlet
    {
        type            calculated;
        value           uniform 0;
    }
    outlet
    {
        type            calculated;
        value           uniform 1.77017e-22;
    }
    emptyWalls
    {
        type            empty;
        value           nonuniform List<scalar> 0();
    }
}


// ************************************************************************* //
