/*--------------------------------*- C++ -*----------------------------------*\
  =========                 |
  \\      /  F ield         | OpenFOAM: The Open Source CFD Toolbox
   \\    /   O peration     | Website:  https://openfoam.org
    \\  /    A nd           | Version:  9
     \\/     M anipulation  |
\*---------------------------------------------------------------------------*/
FoamFile
{
    format      ascii;
    class       volScalarField;
    location    "49000";
    object      krc;
}
// * * * * * * * * * * * * * * * * * * * * * * * * * * * * * * * * * * * * * //

dimensions      [0 0 0 0 0 0 0];

internalField   nonuniform List<scalar> 
100
(
2.14072e-23
3.51226e-24
2.71981e-24
4.01581e-24
5.3046e-25
3.74218e-24
6.81216e-25
9.50171e-26
2.93494e-24
1.48706e-24
3.20531e-24
9.35707e-26
4.784e-25
1.8361e-24
3.54825e-24
7.48366e-25
1.48094e-24
5.04763e-29
7.59782e-24
1.28502e-23
9.12535e-24
2.44737e-23
2.4355e-23
1.40258e-23
6.86091e-23
4.65056e-23
1.42355e-22
1.12065e-22
2.58861e-22
2.47021e-22
4.90579e-22
5.19045e-22
6.07403e-22
7.93028e-22
1.13315e-21
1.182e-21
1.45884e-21
1.63747e-21
1.89653e-21
2.00598e-21
1.98505e-21
1.75039e-21
1.60063e-21
1.81076e-21
1.22123e-21
7.0738e-22
3.11644e-22
1.66762e-24
1.10183e-22
3.54933e-22
1.2131e-21
2.88218e-21
5.11646e-21
7.50868e-21
1.16071e-20
1.7672e-20
2.31068e-20
3.03899e-20
3.95889e-20
4.78148e-20
5.61687e-20
6.39905e-20
7.08416e-20
7.74626e-20
8.19439e-20
8.47511e-20
8.95975e-20
8.8751e-20
9.09738e-20
8.85286e-20
8.74985e-20
8.37373e-20
7.91349e-20
7.38883e-20
6.89402e-20
6.27078e-20
5.75582e-20
5.13363e-20
4.64508e-20
3.99707e-20
3.52371e-20
2.90648e-20
2.5395e-20
2.15992e-20
1.7872e-20
1.46515e-20
1.20191e-20
9.83302e-21
7.62029e-21
6.12656e-21
4.40344e-21
3.37507e-21
2.77311e-21
1.04439e-21
4.67489e-21
3.13598e-20
4.07347e-19
8.3792e-18
1.06433e-16
5.59707e-16
)
;

boundaryField
{
    inlet
    {
        type            calculated;
        value           uniform 2.14072e-23;
    }
    outlet
    {
        type            calculated;
        value           uniform 5.59707e-16;
    }
    emptyWalls
    {
        type            empty;
    }
}


// ************************************************************************* //
