/*--------------------------------*- C++ -*----------------------------------*\
  =========                 |
  \\      /  F ield         | OpenFOAM: The Open Source CFD Toolbox
   \\    /   O peration     | Website:  https://openfoam.org
    \\  /    A nd           | Version:  9
     \\/     M anipulation  |
\*---------------------------------------------------------------------------*/
FoamFile
{
    format      ascii;
    class       volScalarField;
    location    "5900";
    object      Fa;
}
// * * * * * * * * * * * * * * * * * * * * * * * * * * * * * * * * * * * * * //

dimensions      [0 0 0 0 0 0 0];

internalField   nonuniform List<scalar> 
1000
(
0.194672
0.194744
0.194503
0.194437
0.194208
0.193993
0.192887
0.185322
0.15849
0.15209
0.150434
0.149664
0.149396
0.149536
0.149759
0.149769
0.14962
0.149513
0.14937
0.148974
0.148528
0.147992
0.147528
0.147012
0.146479
0.145969
0.145517
0.145143
0.144861
0.144672
0.144568
0.144534
0.144553
0.144605
0.144674
0.144747
0.144812
0.144863
0.144896
0.144908
0.1449
0.144875
0.144834
0.144782
0.14472
0.144651
0.144578
0.144501
0.144422
0.144341
0.144259
0.144178
0.144096
0.144014
0.143932
0.14385
0.143768
0.143686
0.143604
0.143523
0.143442
0.143362
0.143283
0.143206
0.143129
0.143055
0.142981
0.14291
0.142839
0.142772
0.142705
0.14264
0.142576
0.142513
0.142451
0.14239
0.14233
0.14227
0.14221
0.142151
0.142092
0.142033
0.141975
0.141917
0.141859
0.141802
0.141744
0.141687
0.141631
0.141575
0.141519
0.141464
0.14141
0.141357
0.141305
0.141254
0.141205
0.141156
0.141111
0.141065
0.141024
0.14098
0.140943
0.140902
0.140869
0.140829
0.1408
0.140761
0.140734
0.140697
0.140671
0.140635
0.140608
0.140573
0.140545
0.140512
0.140481
0.140448
0.140414
0.140382
0.140346
0.140312
0.140276
0.140241
0.140205
0.140169
0.140135
0.1401
0.140067
0.140035
0.140004
0.139974
0.139945
0.139917
0.13989
0.139864
0.13984
0.139817
0.139797
0.139781
0.139769
0.139763
0.139764
0.139773
0.139791
0.139819
0.139858
0.139906
0.139964
0.140032
0.140108
0.140191
0.14028
0.140371
0.140463
0.140552
0.140637
0.140714
0.140779
0.140831
0.140865
0.140878
0.140869
0.140834
0.140774
0.140685
0.140571
0.140429
0.140263
0.140075
0.139868
0.139647
0.139415
0.139177
0.138937
0.1387
0.13847
0.138249
0.138042
0.137849
0.137673
0.137514
0.137373
0.137249
0.137141
0.137049
0.136971
0.136904
0.136848
0.136801
0.13676
0.136725
0.136693
0.136663
0.136634
0.136605
0.136575
0.136542
0.136508
0.13647
0.13643
0.136386
0.136338
0.136288
0.136233
0.136176
0.136116
0.136052
0.135986
0.135917
0.135847
0.135774
0.135699
0.135623
0.135546
0.135467
0.135388
0.135308
0.135228
0.135149
0.13507
0.134992
0.134916
0.134842
0.134771
0.134702
0.134636
0.134572
0.134507
0.134439
0.134359
0.134259
0.134117
0.133907
0.133594
0.133152
0.132603
0.132044
0.131606
0.131334
0.131187
0.13111
0.131066
0.131038
0.131018
0.131002
0.130988
0.130976
0.130965
0.130954
0.130945
0.130935
0.130927
0.130919
0.130911
0.130904
0.130897
0.13089
0.130884
0.130878
0.130872
0.130867
0.130862
0.130857
0.130852
0.130847
0.130842
0.130838
0.130833
0.130829
0.130824
0.13082
0.130817
0.130813
0.130809
0.130806
0.130803
0.1308
0.130798
0.130796
0.130794
0.130793
0.130793
0.130792
0.130792
0.130793
0.130794
0.130796
0.130799
0.130803
0.130807
0.130812
0.130818
0.130824
0.130831
0.130839
0.130848
0.130857
0.130867
0.130878
0.130889
0.130901
0.130913
0.130927
0.13094
0.130954
0.130968
0.130983
0.130998
0.131014
0.13103
0.131046
0.131062
0.13108
0.131096
0.131114
0.131132
0.13115
0.131168
0.131188
0.131207
0.131227
0.131247
0.131269
0.13129
0.131313
0.131336
0.131361
0.131387
0.131415
0.131443
0.131474
0.131507
0.131542
0.13158
0.13162
0.131663
0.13171
0.131759
0.131813
0.131869
0.13193
0.131995
0.132063
0.132135
0.132211
0.13229
0.132373
0.132457
0.132544
0.132633
0.132723
0.132813
0.132903
0.132991
0.133078
0.133161
0.13324
0.133313
0.133381
0.13344
0.133492
0.133534
0.133567
0.133588
0.133598
0.133599
0.133599
0.133595
0.133566
0.133519
0.133461
0.133392
0.133314
0.133227
0.133133
0.133034
0.132931
0.132825
0.132717
0.13261
0.132504
0.132401
0.132302
0.132208
0.13212
0.132039
0.131964
0.131897
0.131837
0.131785
0.131741
0.131703
0.131672
0.131648
0.131629
0.131615
0.131607
0.131602
0.131601
0.131601
0.131601
0.131606
0.131614
0.131624
0.131633
0.131643
0.131652
0.131661
0.131669
0.131676
0.131682
0.131687
0.13169
0.131692
0.131692
0.131692
0.131692
0.13169
0.131685
0.131679
0.131672
0.131663
0.131654
0.131643
0.131632
0.131619
0.131606
0.131593
0.131578
0.131563
0.131547
0.131531
0.131515
0.131498
0.13148
0.131462
0.131444
0.131426
0.131407
0.131388
0.131369
0.13135
0.13133
0.131311
0.131292
0.131272
0.131253
0.131233
0.131214
0.131195
0.131177
0.131158
0.13114
0.131122
0.131105
0.131088
0.131071
0.131055
0.13104
0.131025
0.131011
0.130997
0.130984
0.130971
0.130959
0.130948
0.130938
0.130928
0.130919
0.13091
0.130902
0.130895
0.130888
0.130882
0.130877
0.130872
0.130867
0.130863
0.13086
0.130856
0.130854
0.130851
0.130849
0.130848
0.130846
0.130845
0.130844
0.130844
0.130843
0.130843
0.130843
0.130843
0.130843
0.130843
0.130844
0.130844
0.130846
0.130847
0.130848
0.13085
0.130852
0.130855
0.130858
0.130861
0.130864
0.130868
0.130873
0.130878
0.130884
0.13089
0.130897
0.130905
0.130913
0.130922
0.130932
0.130942
0.130954
0.130966
0.130979
0.130993
0.131008
0.131024
0.13104
0.131058
0.131076
0.131095
0.131116
0.131136
0.131159
0.131181
0.131205
0.13123
0.131256
0.131282
0.131311
0.131339
0.13137
0.131401
0.131434
0.131469
0.131505
0.131542
0.131582
0.131623
0.131666
0.131712
0.131759
0.131809
0.131861
0.131915
0.131972
0.132031
0.132093
0.132157
0.132223
0.132291
0.132361
0.132432
0.132505
0.132579
0.132653
0.132728
0.132803
0.132876
0.132949
0.13302
0.133089
0.133154
0.133216
0.133273
0.133326
0.133373
0.133414
0.133448
0.133475
0.133493
0.133503
0.133506
0.133506
0.133505
0.133492
0.13346
0.133419
0.13337
0.133312
0.133248
0.133176
0.133099
0.133018
0.132932
0.132843
0.132753
0.132661
0.13257
0.13248
0.132391
0.132305
0.132223
0.132144
0.13207
0.132001
0.131937
0.131878
0.131824
0.131775
0.131732
0.131694
0.13166
0.131631
0.131606
0.131585
0.131567
0.131553
0.131541
0.131531
0.131524
0.131518
0.131513
0.13151
0.131507
0.131505
0.131504
0.131502
0.1315
0.131498
0.131496
0.131493
0.13149
0.131486
0.131481
0.131476
0.131469
0.131462
0.131455
0.131447
0.131438
0.131428
0.131418
0.131408
0.131397
0.131385
0.131374
0.131362
0.131349
0.131337
0.131324
0.131311
0.131298
0.131285
0.131272
0.131259
0.131245
0.131232
0.131219
0.131205
0.131192
0.131179
0.131165
0.131152
0.131139
0.131125
0.131112
0.131099
0.131086
0.131073
0.13106
0.131047
0.131034
0.131022
0.131009
0.130997
0.130985
0.130973
0.130961
0.13095
0.130938
0.130927
0.130917
0.130906
0.130896
0.130887
0.130877
0.130868
0.13086
0.130852
0.130844
0.130837
0.13083
0.130824
0.130819
0.130813
0.130809
0.130805
0.130801
0.130798
0.130796
0.130794
0.130792
0.130791
0.130791
0.130791
0.130791
0.130791
0.130792
0.130793
0.130795
0.130797
0.1308
0.130803
0.130806
0.13081
0.130814
0.130817
0.130822
0.130826
0.13083
0.130835
0.13084
0.130845
0.13085
0.130855
0.130861
0.130866
0.130872
0.130878
0.130885
0.130891
0.130899
0.130906
0.130914
0.130923
0.130932
0.130942
0.130952
0.130963
0.130976
0.130988
0.131002
0.131017
0.131033
0.13105
0.131068
0.131087
0.131108
0.13113
0.131153
0.131178
0.131205
0.131233
0.131263
0.131294
0.131328
0.131363
0.1314
0.131439
0.131481
0.131524
0.131569
0.131616
0.131666
0.131717
0.13177
0.131826
0.131883
0.131942
0.132003
0.132066
0.13213
0.132195
0.132261
0.132328
0.132396
0.132463
0.132531
0.132598
0.132665
0.13273
0.132794
0.132856
0.132915
0.132971
0.133024
0.133073
0.133118
0.133158
0.133192
0.133221
0.133243
0.133259
0.133268
0.133271
0.133271
0.13327
0.133261
0.133236
0.133203
0.133163
0.133116
0.133063
0.133005
0.132941
0.132873
0.1328
0.132725
0.132647
0.132568
0.132488
0.132408
0.132328
0.13225
0.132173
0.132099
0.132028
0.13196
0.131896
0.131836
0.13178
0.131728
0.131681
0.131638
0.131599
0.131564
0.131533
0.131506
0.131482
0.131462
0.131444
0.13143
0.131418
0.131408
0.1314
0.131393
0.131388
0.131385
0.131382
0.13138
0.131378
0.131377
0.131377
0.131376
0.131376
0.131376
0.131375
0.131374
0.131374
0.131372
0.131371
0.131369
0.131367
0.131364
0.131361
0.131358
0.131355
0.131351
0.131347
0.131343
0.131339
0.131335
0.13133
0.131326
0.131322
0.131317
0.131313
0.131308
0.131304
0.131299
0.131295
0.13129
0.131286
0.131282
0.131277
0.131273
0.131268
0.131264
0.131259
0.131255
0.13125
0.131245
0.13124
0.131235
0.13123
0.131224
0.131219
0.131213
0.131207
0.1312
0.131194
0.131187
0.131179
0.131172
0.131164
0.131156
0.131148
0.131139
0.13113
0.131121
0.131112
0.131103
0.131093
0.131083
0.131073
0.131063
0.131053
0.131043
0.131033
0.131023
0.131013
0.131003
0.130994
0.130985
0.130976
0.130967
0.130958
0.13095
0.130943
0.130936
0.130929
0.130923
0.130917
0.130912
0.130908
0.130905
0.130902
0.1309
0.130898
0.130898
0.130898
0.130898
0.130899
0.130899
0.130903
0.130904
0.130909
0.130911
0.130918
0.130922
0.13093
0.130934
0.130944
0.130951
0.130963
0.130968
0.130982
0.130991
0.131003
0.131011
0.131028
0.131037
0.131049
0.131062
0.13108
0.131087
0.131104
0.131123
0.131138
0.131147
0.131174
0.131192
0.131203
0.131227
0.131262
0.131262
0.131247
0.130941
0.129596
0.123026
0.0154766
3.51646e-05
2.84985e-11
2.03495e-24
2.51915e-52
1.23191e-111
1.66126e-237
0
0
0
0
0
0
0
0
0
0
0
0
0
0
0
0
0
0
0
0
0
0
0
0
0
0
)
;

boundaryField
{
    inlet
    {
        type            calculated;
        value           uniform 0.194831;
    }
    outlet
    {
        type            calculated;
        value           uniform 0;
    }
    emptyWalls
    {
        type            empty;
    }
}


// ************************************************************************* //
