/*--------------------------------*- C++ -*----------------------------------*\
  =========                 |
  \\      /  F ield         | OpenFOAM: The Open Source CFD Toolbox
   \\    /   O peration     | Website:  https://openfoam.org
    \\  /    A nd           | Version:  9
     \\/     M anipulation  |
\*---------------------------------------------------------------------------*/
FoamFile
{
    format      ascii;
    class       volVectorField;
    location    "5900";
    object      Ub;
}
// * * * * * * * * * * * * * * * * * * * * * * * * * * * * * * * * * * * * * //

dimensions      [0 0 0 0 0 0 0];

internalField   nonuniform List<vector> 
1000
(
(1.13625e-05 0 0)
(1.13635e-05 0 0)
(1.13644e-05 0 0)
(1.13655e-05 0 0)
(1.13667e-05 0 0)
(1.13699e-05 0 0)
(1.13815e-05 0 0)
(1.14496e-05 0 0)
(1.16191e-05 0 0)
(1.17459e-05 0 0)
(1.17664e-05 0 0)
(1.17717e-05 0 0)
(1.1771e-05 0 0)
(1.17662e-05 0 0)
(1.17607e-05 0 0)
(1.17573e-05 0 0)
(1.17556e-05 0 0)
(1.17543e-05 0 0)
(1.17536e-05 0 0)
(1.17538e-05 0 0)
(1.17539e-05 0 0)
(1.17525e-05 0 0)
(1.17487e-05 0 0)
(1.1743e-05 0 0)
(1.17361e-05 0 0)
(1.1728e-05 0 0)
(1.17184e-05 0 0)
(1.17074e-05 0 0)
(1.16947e-05 0 0)
(1.16806e-05 0 0)
(1.1665e-05 0 0)
(1.16483e-05 0 0)
(1.16307e-05 0 0)
(1.16124e-05 0 0)
(1.15938e-05 0 0)
(1.1575e-05 0 0)
(1.15561e-05 0 0)
(1.15374e-05 0 0)
(1.15187e-05 0 0)
(1.15002e-05 0 0)
(1.14819e-05 0 0)
(1.14637e-05 0 0)
(1.14456e-05 0 0)
(1.14276e-05 0 0)
(1.14097e-05 0 0)
(1.13917e-05 0 0)
(1.13738e-05 0 0)
(1.13558e-05 0 0)
(1.13377e-05 0 0)
(1.13196e-05 0 0)
(1.13014e-05 0 0)
(1.12832e-05 0 0)
(1.12648e-05 0 0)
(1.12464e-05 0 0)
(1.1228e-05 0 0)
(1.12094e-05 0 0)
(1.11908e-05 0 0)
(1.11721e-05 0 0)
(1.11534e-05 0 0)
(1.11346e-05 0 0)
(1.11157e-05 0 0)
(1.10967e-05 0 0)
(1.10777e-05 0 0)
(1.10585e-05 0 0)
(1.10393e-05 0 0)
(1.102e-05 0 0)
(1.10007e-05 0 0)
(1.09812e-05 0 0)
(1.09617e-05 0 0)
(1.0942e-05 0 0)
(1.09223e-05 0 0)
(1.09025e-05 0 0)
(1.08826e-05 0 0)
(1.08627e-05 0 0)
(1.08427e-05 0 0)
(1.08226e-05 0 0)
(1.08024e-05 0 0)
(1.07822e-05 0 0)
(1.07619e-05 0 0)
(1.07415e-05 0 0)
(1.07211e-05 0 0)
(1.07006e-05 0 0)
(1.06801e-05 0 0)
(1.06594e-05 0 0)
(1.06388e-05 0 0)
(1.0618e-05 0 0)
(1.05972e-05 0 0)
(1.05763e-05 0 0)
(1.05554e-05 0 0)
(1.05343e-05 0 0)
(1.05133e-05 0 0)
(1.04921e-05 0 0)
(1.04709e-05 0 0)
(1.04496e-05 0 0)
(1.04282e-05 0 0)
(1.04067e-05 0 0)
(1.03852e-05 0 0)
(1.03635e-05 0 0)
(1.03418e-05 0 0)
(1.032e-05 0 0)
(1.02981e-05 0 0)
(1.02762e-05 0 0)
(1.02541e-05 0 0)
(1.02319e-05 0 0)
(1.02097e-05 0 0)
(1.01874e-05 0 0)
(1.0165e-05 0 0)
(1.01425e-05 0 0)
(1.012e-05 0 0)
(1.00973e-05 0 0)
(1.00746e-05 0 0)
(1.00518e-05 0 0)
(1.0029e-05 0 0)
(1.00061e-05 0 0)
(9.98305e-06 0 0)
(9.95998e-06 0 0)
(9.93684e-06 0 0)
(9.91363e-06 0 0)
(9.89035e-06 0 0)
(9.867e-06 0 0)
(9.84358e-06 0 0)
(9.82009e-06 0 0)
(9.79653e-06 0 0)
(9.77289e-06 0 0)
(9.74917e-06 0 0)
(9.72536e-06 0 0)
(9.70147e-06 0 0)
(9.67748e-06 0 0)
(9.65339e-06 0 0)
(9.62921e-06 0 0)
(9.60492e-06 0 0)
(9.58054e-06 0 0)
(9.55605e-06 0 0)
(9.53147e-06 0 0)
(9.50678e-06 0 0)
(9.48199e-06 0 0)
(9.45709e-06 0 0)
(9.43207e-06 0 0)
(9.40693e-06 0 0)
(9.38165e-06 0 0)
(9.35622e-06 0 0)
(9.33062e-06 0 0)
(9.30484e-06 0 0)
(9.27887e-06 0 0)
(9.2527e-06 0 0)
(9.22632e-06 0 0)
(9.19972e-06 0 0)
(9.1729e-06 0 0)
(9.14587e-06 0 0)
(9.11863e-06 0 0)
(9.09119e-06 0 0)
(9.06356e-06 0 0)
(9.03577e-06 0 0)
(9.00784e-06 0 0)
(8.97978e-06 0 0)
(8.95164e-06 0 0)
(8.92343e-06 0 0)
(8.89519e-06 0 0)
(8.86695e-06 0 0)
(8.83873e-06 0 0)
(8.81058e-06 0 0)
(8.78252e-06 0 0)
(8.75456e-06 0 0)
(8.72673e-06 0 0)
(8.69904e-06 0 0)
(8.67148e-06 0 0)
(8.64406e-06 0 0)
(8.61676e-06 0 0)
(8.58955e-06 0 0)
(8.56241e-06 0 0)
(8.53529e-06 0 0)
(8.50815e-06 0 0)
(8.48094e-06 0 0)
(8.4536e-06 0 0)
(8.4261e-06 0 0)
(8.39837e-06 0 0)
(8.37038e-06 0 0)
(8.3421e-06 0 0)
(8.31348e-06 0 0)
(8.2845e-06 0 0)
(8.25514e-06 0 0)
(8.2254e-06 0 0)
(8.19526e-06 0 0)
(8.16473e-06 0 0)
(8.13381e-06 0 0)
(8.10252e-06 0 0)
(8.07085e-06 0 0)
(8.03883e-06 0 0)
(8.00646e-06 0 0)
(7.97377e-06 0 0)
(7.94075e-06 0 0)
(7.90743e-06 0 0)
(7.87382e-06 0 0)
(7.83991e-06 0 0)
(7.80572e-06 0 0)
(7.77124e-06 0 0)
(7.73648e-06 0 0)
(7.70144e-06 0 0)
(7.66612e-06 0 0)
(7.63051e-06 0 0)
(7.59461e-06 0 0)
(7.55842e-06 0 0)
(7.52193e-06 0 0)
(7.48512e-06 0 0)
(7.44799e-06 0 0)
(7.41052e-06 0 0)
(7.37273e-06 0 0)
(7.33459e-06 0 0)
(7.29611e-06 0 0)
(7.25728e-06 0 0)
(7.21813e-06 0 0)
(7.17865e-06 0 0)
(7.13886e-06 0 0)
(7.09879e-06 0 0)
(7.0585e-06 0 0)
(7.01805e-06 0 0)
(6.97755e-06 0 0)
(6.9371e-06 0 0)
(6.89687e-06 0 0)
(6.85704e-06 0 0)
(6.81784e-06 0 0)
(6.77953e-06 0 0)
(6.74239e-06 0 0)
(6.70669e-06 0 0)
(6.67262e-06 0 0)
(6.64025e-06 0 0)
(6.60937e-06 0 0)
(6.57928e-06 0 0)
(6.54848e-06 0 0)
(6.51402e-06 0 0)
(6.47057e-06 0 0)
(6.40887e-06 0 0)
(6.31365e-06 0 0)
(6.16159e-06 0 0)
(5.92169e-06 0 0)
(5.56348e-06 0 0)
(5.07779e-06 0 0)
(4.50237e-06 0 0)
(3.92305e-06 0 0)
(3.43187e-06 0 0)
(3.07656e-06 0 0)
(2.85035e-06 0 0)
(2.71872e-06 0 0)
(2.64635e-06 0 0)
(2.60786e-06 0 0)
(2.58776e-06 0 0)
(2.57737e-06 0 0)
(2.57204e-06 0 0)
(2.56933e-06 0 0)
(2.56795e-06 0 0)
(2.56725e-06 0 0)
(2.56691e-06 0 0)
(2.56674e-06 0 0)
(2.56667e-06 0 0)
(2.56665e-06 0 0)
(2.56664e-06 0 0)
(2.56665e-06 0 0)
(2.56667e-06 0 0)
(2.56668e-06 0 0)
(2.5667e-06 0 0)
(2.56672e-06 0 0)
(2.56673e-06 0 0)
(2.56675e-06 0 0)
(2.56676e-06 0 0)
(2.56678e-06 0 0)
(2.56679e-06 0 0)
(2.56681e-06 0 0)
(2.56682e-06 0 0)
(2.56683e-06 0 0)
(2.56684e-06 0 0)
(2.56686e-06 0 0)
(2.56687e-06 0 0)
(2.56688e-06 0 0)
(2.56689e-06 0 0)
(2.56691e-06 0 0)
(2.56692e-06 0 0)
(2.56692e-06 0 0)
(2.56693e-06 0 0)
(2.56694e-06 0 0)
(2.56694e-06 0 0)
(2.56695e-06 0 0)
(2.56695e-06 0 0)
(2.56695e-06 0 0)
(2.56695e-06 0 0)
(2.56695e-06 0 0)
(2.56695e-06 0 0)
(2.56695e-06 0 0)
(2.56694e-06 0 0)
(2.56693e-06 0 0)
(2.56692e-06 0 0)
(2.56691e-06 0 0)
(2.5669e-06 0 0)
(2.56688e-06 0 0)
(2.56686e-06 0 0)
(2.56684e-06 0 0)
(2.56681e-06 0 0)
(2.56679e-06 0 0)
(2.56676e-06 0 0)
(2.56673e-06 0 0)
(2.5667e-06 0 0)
(2.56666e-06 0 0)
(2.56663e-06 0 0)
(2.56659e-06 0 0)
(2.56655e-06 0 0)
(2.56651e-06 0 0)
(2.56647e-06 0 0)
(2.56642e-06 0 0)
(2.56638e-06 0 0)
(2.56633e-06 0 0)
(2.56628e-06 0 0)
(2.56623e-06 0 0)
(2.56618e-06 0 0)
(2.56613e-06 0 0)
(2.56607e-06 0 0)
(2.56602e-06 0 0)
(2.56596e-06 0 0)
(2.5659e-06 0 0)
(2.56584e-06 0 0)
(2.56578e-06 0 0)
(2.56572e-06 0 0)
(2.56566e-06 0 0)
(2.56559e-06 0 0)
(2.56552e-06 0 0)
(2.56545e-06 0 0)
(2.56537e-06 0 0)
(2.5653e-06 0 0)
(2.56522e-06 0 0)
(2.56514e-06 0 0)
(2.56505e-06 0 0)
(2.56496e-06 0 0)
(2.56486e-06 0 0)
(2.56476e-06 0 0)
(2.56465e-06 0 0)
(2.56454e-06 0 0)
(2.56442e-06 0 0)
(2.56429e-06 0 0)
(2.56415e-06 0 0)
(2.564e-06 0 0)
(2.56384e-06 0 0)
(2.56367e-06 0 0)
(2.56349e-06 0 0)
(2.5633e-06 0 0)
(2.5631e-06 0 0)
(2.56289e-06 0 0)
(2.56266e-06 0 0)
(2.56243e-06 0 0)
(2.56218e-06 0 0)
(2.56193e-06 0 0)
(2.56167e-06 0 0)
(2.5614e-06 0 0)
(2.56113e-06 0 0)
(2.56085e-06 0 0)
(2.56058e-06 0 0)
(2.5603e-06 0 0)
(2.56003e-06 0 0)
(2.55977e-06 0 0)
(2.55951e-06 0 0)
(2.55927e-06 0 0)
(2.55905e-06 0 0)
(2.55884e-06 0 0)
(2.55866e-06 0 0)
(2.5585e-06 0 0)
(2.55837e-06 0 0)
(2.55827e-06 0 0)
(2.55821e-06 0 0)
(2.55817e-06 0 0)
(2.55816e-06 0 0)
(2.55816e-06 0 0)
(2.55817e-06 0 0)
(2.55825e-06 0 0)
(2.5584e-06 0 0)
(2.55857e-06 0 0)
(2.55878e-06 0 0)
(2.55901e-06 0 0)
(2.55927e-06 0 0)
(2.55954e-06 0 0)
(2.55984e-06 0 0)
(2.56015e-06 0 0)
(2.56046e-06 0 0)
(2.56078e-06 0 0)
(2.56111e-06 0 0)
(2.56142e-06 0 0)
(2.56173e-06 0 0)
(2.56203e-06 0 0)
(2.56231e-06 0 0)
(2.56257e-06 0 0)
(2.56282e-06 0 0)
(2.56304e-06 0 0)
(2.56324e-06 0 0)
(2.56342e-06 0 0)
(2.56358e-06 0 0)
(2.56372e-06 0 0)
(2.56383e-06 0 0)
(2.56393e-06 0 0)
(2.564e-06 0 0)
(2.56406e-06 0 0)
(2.5641e-06 0 0)
(2.56413e-06 0 0)
(2.56415e-06 0 0)
(2.56415e-06 0 0)
(2.56416e-06 0 0)
(2.56416e-06 0 0)
(2.56415e-06 0 0)
(2.56412e-06 0 0)
(2.5641e-06 0 0)
(2.56407e-06 0 0)
(2.56405e-06 0 0)
(2.56402e-06 0 0)
(2.564e-06 0 0)
(2.56398e-06 0 0)
(2.56396e-06 0 0)
(2.56394e-06 0 0)
(2.56393e-06 0 0)
(2.56392e-06 0 0)
(2.56392e-06 0 0)
(2.56392e-06 0 0)
(2.56392e-06 0 0)
(2.56392e-06 0 0)
(2.56393e-06 0 0)
(2.56395e-06 0 0)
(2.56397e-06 0 0)
(2.56399e-06 0 0)
(2.56402e-06 0 0)
(2.56405e-06 0 0)
(2.56408e-06 0 0)
(2.56412e-06 0 0)
(2.56415e-06 0 0)
(2.56419e-06 0 0)
(2.56424e-06 0 0)
(2.56428e-06 0 0)
(2.56433e-06 0 0)
(2.56437e-06 0 0)
(2.56442e-06 0 0)
(2.56447e-06 0 0)
(2.56452e-06 0 0)
(2.56458e-06 0 0)
(2.56463e-06 0 0)
(2.56469e-06 0 0)
(2.56474e-06 0 0)
(2.5648e-06 0 0)
(2.56485e-06 0 0)
(2.56491e-06 0 0)
(2.56497e-06 0 0)
(2.56502e-06 0 0)
(2.56508e-06 0 0)
(2.56514e-06 0 0)
(2.5652e-06 0 0)
(2.56526e-06 0 0)
(2.56531e-06 0 0)
(2.56537e-06 0 0)
(2.56543e-06 0 0)
(2.56548e-06 0 0)
(2.56554e-06 0 0)
(2.56559e-06 0 0)
(2.56565e-06 0 0)
(2.5657e-06 0 0)
(2.56575e-06 0 0)
(2.5658e-06 0 0)
(2.56585e-06 0 0)
(2.56589e-06 0 0)
(2.56594e-06 0 0)
(2.56598e-06 0 0)
(2.56602e-06 0 0)
(2.56606e-06 0 0)
(2.5661e-06 0 0)
(2.56613e-06 0 0)
(2.56616e-06 0 0)
(2.56619e-06 0 0)
(2.56622e-06 0 0)
(2.56625e-06 0 0)
(2.56627e-06 0 0)
(2.5663e-06 0 0)
(2.56632e-06 0 0)
(2.56633e-06 0 0)
(2.56635e-06 0 0)
(2.56637e-06 0 0)
(2.56638e-06 0 0)
(2.56639e-06 0 0)
(2.5664e-06 0 0)
(2.56641e-06 0 0)
(2.56642e-06 0 0)
(2.56643e-06 0 0)
(2.56643e-06 0 0)
(2.56644e-06 0 0)
(2.56644e-06 0 0)
(2.56644e-06 0 0)
(2.56645e-06 0 0)
(2.56645e-06 0 0)
(2.56645e-06 0 0)
(2.56645e-06 0 0)
(2.56646e-06 0 0)
(2.56646e-06 0 0)
(2.56647e-06 0 0)
(2.56647e-06 0 0)
(2.56648e-06 0 0)
(2.56648e-06 0 0)
(2.56649e-06 0 0)
(2.56649e-06 0 0)
(2.56649e-06 0 0)
(2.56649e-06 0 0)
(2.56649e-06 0 0)
(2.56649e-06 0 0)
(2.56649e-06 0 0)
(2.56649e-06 0 0)
(2.56648e-06 0 0)
(2.56648e-06 0 0)
(2.56647e-06 0 0)
(2.56646e-06 0 0)
(2.56644e-06 0 0)
(2.56643e-06 0 0)
(2.56641e-06 0 0)
(2.56638e-06 0 0)
(2.56636e-06 0 0)
(2.56634e-06 0 0)
(2.56631e-06 0 0)
(2.56628e-06 0 0)
(2.56625e-06 0 0)
(2.56621e-06 0 0)
(2.56617e-06 0 0)
(2.56613e-06 0 0)
(2.56609e-06 0 0)
(2.56604e-06 0 0)
(2.56599e-06 0 0)
(2.56594e-06 0 0)
(2.56589e-06 0 0)
(2.56583e-06 0 0)
(2.56577e-06 0 0)
(2.56571e-06 0 0)
(2.56565e-06 0 0)
(2.56558e-06 0 0)
(2.56551e-06 0 0)
(2.56544e-06 0 0)
(2.56536e-06 0 0)
(2.56528e-06 0 0)
(2.5652e-06 0 0)
(2.56511e-06 0 0)
(2.56503e-06 0 0)
(2.56493e-06 0 0)
(2.56484e-06 0 0)
(2.56474e-06 0 0)
(2.56463e-06 0 0)
(2.56453e-06 0 0)
(2.56441e-06 0 0)
(2.56429e-06 0 0)
(2.56417e-06 0 0)
(2.56404e-06 0 0)
(2.5639e-06 0 0)
(2.56376e-06 0 0)
(2.56361e-06 0 0)
(2.56345e-06 0 0)
(2.56329e-06 0 0)
(2.56311e-06 0 0)
(2.56294e-06 0 0)
(2.56275e-06 0 0)
(2.56256e-06 0 0)
(2.56236e-06 0 0)
(2.56216e-06 0 0)
(2.56194e-06 0 0)
(2.56173e-06 0 0)
(2.56151e-06 0 0)
(2.56129e-06 0 0)
(2.56106e-06 0 0)
(2.56084e-06 0 0)
(2.56062e-06 0 0)
(2.56039e-06 0 0)
(2.56018e-06 0 0)
(2.55996e-06 0 0)
(2.55976e-06 0 0)
(2.55956e-06 0 0)
(2.55937e-06 0 0)
(2.5592e-06 0 0)
(2.55904e-06 0 0)
(2.5589e-06 0 0)
(2.55878e-06 0 0)
(2.55868e-06 0 0)
(2.5586e-06 0 0)
(2.55854e-06 0 0)
(2.55851e-06 0 0)
(2.5585e-06 0 0)
(2.55849e-06 0 0)
(2.5585e-06 0 0)
(2.55854e-06 0 0)
(2.55864e-06 0 0)
(2.55876e-06 0 0)
(2.55891e-06 0 0)
(2.55908e-06 0 0)
(2.55927e-06 0 0)
(2.55949e-06 0 0)
(2.55972e-06 0 0)
(2.55996e-06 0 0)
(2.56022e-06 0 0)
(2.56048e-06 0 0)
(2.56075e-06 0 0)
(2.56102e-06 0 0)
(2.5613e-06 0 0)
(2.56157e-06 0 0)
(2.56183e-06 0 0)
(2.56209e-06 0 0)
(2.56234e-06 0 0)
(2.56257e-06 0 0)
(2.5628e-06 0 0)
(2.563e-06 0 0)
(2.56319e-06 0 0)
(2.56337e-06 0 0)
(2.56353e-06 0 0)
(2.56368e-06 0 0)
(2.56381e-06 0 0)
(2.56392e-06 0 0)
(2.56402e-06 0 0)
(2.56411e-06 0 0)
(2.56419e-06 0 0)
(2.56425e-06 0 0)
(2.56431e-06 0 0)
(2.56435e-06 0 0)
(2.56439e-06 0 0)
(2.56442e-06 0 0)
(2.56444e-06 0 0)
(2.56446e-06 0 0)
(2.56447e-06 0 0)
(2.56448e-06 0 0)
(2.56449e-06 0 0)
(2.5645e-06 0 0)
(2.5645e-06 0 0)
(2.56451e-06 0 0)
(2.56451e-06 0 0)
(2.56452e-06 0 0)
(2.56452e-06 0 0)
(2.56453e-06 0 0)
(2.56454e-06 0 0)
(2.56456e-06 0 0)
(2.56457e-06 0 0)
(2.56459e-06 0 0)
(2.56461e-06 0 0)
(2.56463e-06 0 0)
(2.56465e-06 0 0)
(2.56467e-06 0 0)
(2.5647e-06 0 0)
(2.56473e-06 0 0)
(2.56476e-06 0 0)
(2.56479e-06 0 0)
(2.56482e-06 0 0)
(2.56486e-06 0 0)
(2.56489e-06 0 0)
(2.56493e-06 0 0)
(2.56497e-06 0 0)
(2.565e-06 0 0)
(2.56504e-06 0 0)
(2.56508e-06 0 0)
(2.56512e-06 0 0)
(2.56516e-06 0 0)
(2.5652e-06 0 0)
(2.56524e-06 0 0)
(2.56528e-06 0 0)
(2.56532e-06 0 0)
(2.56536e-06 0 0)
(2.5654e-06 0 0)
(2.56544e-06 0 0)
(2.56548e-06 0 0)
(2.56552e-06 0 0)
(2.56556e-06 0 0)
(2.5656e-06 0 0)
(2.56564e-06 0 0)
(2.56568e-06 0 0)
(2.56572e-06 0 0)
(2.56576e-06 0 0)
(2.56579e-06 0 0)
(2.56583e-06 0 0)
(2.56587e-06 0 0)
(2.56591e-06 0 0)
(2.56594e-06 0 0)
(2.56598e-06 0 0)
(2.56602e-06 0 0)
(2.56606e-06 0 0)
(2.56609e-06 0 0)
(2.56613e-06 0 0)
(2.56616e-06 0 0)
(2.56619e-06 0 0)
(2.56623e-06 0 0)
(2.56626e-06 0 0)
(2.56629e-06 0 0)
(2.56632e-06 0 0)
(2.56635e-06 0 0)
(2.56637e-06 0 0)
(2.5664e-06 0 0)
(2.56643e-06 0 0)
(2.56645e-06 0 0)
(2.56647e-06 0 0)
(2.5665e-06 0 0)
(2.56652e-06 0 0)
(2.56654e-06 0 0)
(2.56655e-06 0 0)
(2.56657e-06 0 0)
(2.56658e-06 0 0)
(2.5666e-06 0 0)
(2.56661e-06 0 0)
(2.56662e-06 0 0)
(2.56663e-06 0 0)
(2.56664e-06 0 0)
(2.56664e-06 0 0)
(2.56665e-06 0 0)
(2.56665e-06 0 0)
(2.56665e-06 0 0)
(2.56665e-06 0 0)
(2.56666e-06 0 0)
(2.56665e-06 0 0)
(2.56665e-06 0 0)
(2.56665e-06 0 0)
(2.56664e-06 0 0)
(2.56663e-06 0 0)
(2.56663e-06 0 0)
(2.56662e-06 0 0)
(2.56661e-06 0 0)
(2.5666e-06 0 0)
(2.56659e-06 0 0)
(2.56657e-06 0 0)
(2.56656e-06 0 0)
(2.56655e-06 0 0)
(2.56654e-06 0 0)
(2.56652e-06 0 0)
(2.56651e-06 0 0)
(2.56649e-06 0 0)
(2.56647e-06 0 0)
(2.56646e-06 0 0)
(2.56644e-06 0 0)
(2.56642e-06 0 0)
(2.5664e-06 0 0)
(2.56638e-06 0 0)
(2.56636e-06 0 0)
(2.56634e-06 0 0)
(2.56631e-06 0 0)
(2.56629e-06 0 0)
(2.56626e-06 0 0)
(2.56623e-06 0 0)
(2.5662e-06 0 0)
(2.56617e-06 0 0)
(2.56614e-06 0 0)
(2.5661e-06 0 0)
(2.56606e-06 0 0)
(2.56602e-06 0 0)
(2.56598e-06 0 0)
(2.56593e-06 0 0)
(2.56587e-06 0 0)
(2.56582e-06 0 0)
(2.56576e-06 0 0)
(2.5657e-06 0 0)
(2.56563e-06 0 0)
(2.56556e-06 0 0)
(2.56549e-06 0 0)
(2.56541e-06 0 0)
(2.56532e-06 0 0)
(2.56523e-06 0 0)
(2.56514e-06 0 0)
(2.56504e-06 0 0)
(2.56493e-06 0 0)
(2.56482e-06 0 0)
(2.5647e-06 0 0)
(2.56458e-06 0 0)
(2.56445e-06 0 0)
(2.56431e-06 0 0)
(2.56417e-06 0 0)
(2.56402e-06 0 0)
(2.56387e-06 0 0)
(2.56371e-06 0 0)
(2.56354e-06 0 0)
(2.56337e-06 0 0)
(2.56319e-06 0 0)
(2.56301e-06 0 0)
(2.56282e-06 0 0)
(2.56263e-06 0 0)
(2.56244e-06 0 0)
(2.56224e-06 0 0)
(2.56204e-06 0 0)
(2.56183e-06 0 0)
(2.56163e-06 0 0)
(2.56143e-06 0 0)
(2.56122e-06 0 0)
(2.56103e-06 0 0)
(2.56083e-06 0 0)
(2.56064e-06 0 0)
(2.56046e-06 0 0)
(2.56028e-06 0 0)
(2.56011e-06 0 0)
(2.55995e-06 0 0)
(2.5598e-06 0 0)
(2.55967e-06 0 0)
(2.55955e-06 0 0)
(2.55945e-06 0 0)
(2.55936e-06 0 0)
(2.5593e-06 0 0)
(2.55925e-06 0 0)
(2.55922e-06 0 0)
(2.55921e-06 0 0)
(2.55921e-06 0 0)
(2.55921e-06 0 0)
(2.55925e-06 0 0)
(2.55932e-06 0 0)
(2.55942e-06 0 0)
(2.55954e-06 0 0)
(2.55968e-06 0 0)
(2.55984e-06 0 0)
(2.56001e-06 0 0)
(2.5602e-06 0 0)
(2.56041e-06 0 0)
(2.56062e-06 0 0)
(2.56085e-06 0 0)
(2.56108e-06 0 0)
(2.56132e-06 0 0)
(2.56156e-06 0 0)
(2.5618e-06 0 0)
(2.56204e-06 0 0)
(2.56227e-06 0 0)
(2.5625e-06 0 0)
(2.56272e-06 0 0)
(2.56293e-06 0 0)
(2.56314e-06 0 0)
(2.56333e-06 0 0)
(2.56351e-06 0 0)
(2.56367e-06 0 0)
(2.56383e-06 0 0)
(2.56397e-06 0 0)
(2.5641e-06 0 0)
(2.56422e-06 0 0)
(2.56433e-06 0 0)
(2.56442e-06 0 0)
(2.5645e-06 0 0)
(2.56457e-06 0 0)
(2.56463e-06 0 0)
(2.56468e-06 0 0)
(2.56473e-06 0 0)
(2.56477e-06 0 0)
(2.5648e-06 0 0)
(2.56482e-06 0 0)
(2.56484e-06 0 0)
(2.56485e-06 0 0)
(2.56486e-06 0 0)
(2.56487e-06 0 0)
(2.56488e-06 0 0)
(2.56489e-06 0 0)
(2.56489e-06 0 0)
(2.56489e-06 0 0)
(2.56489e-06 0 0)
(2.56489e-06 0 0)
(2.56489e-06 0 0)
(2.56489e-06 0 0)
(2.5649e-06 0 0)
(2.5649e-06 0 0)
(2.5649e-06 0 0)
(2.56491e-06 0 0)
(2.56491e-06 0 0)
(2.56492e-06 0 0)
(2.56493e-06 0 0)
(2.56494e-06 0 0)
(2.56494e-06 0 0)
(2.56496e-06 0 0)
(2.56497e-06 0 0)
(2.56498e-06 0 0)
(2.56499e-06 0 0)
(2.56501e-06 0 0)
(2.56502e-06 0 0)
(2.56503e-06 0 0)
(2.56504e-06 0 0)
(2.56505e-06 0 0)
(2.56507e-06 0 0)
(2.56508e-06 0 0)
(2.5651e-06 0 0)
(2.56511e-06 0 0)
(2.56513e-06 0 0)
(2.56514e-06 0 0)
(2.56515e-06 0 0)
(2.56516e-06 0 0)
(2.56518e-06 0 0)
(2.56519e-06 0 0)
(2.5652e-06 0 0)
(2.56522e-06 0 0)
(2.56523e-06 0 0)
(2.56524e-06 0 0)
(2.56526e-06 0 0)
(2.56527e-06 0 0)
(2.56529e-06 0 0)
(2.5653e-06 0 0)
(2.56532e-06 0 0)
(2.56533e-06 0 0)
(2.56535e-06 0 0)
(2.56536e-06 0 0)
(2.56538e-06 0 0)
(2.5654e-06 0 0)
(2.56542e-06 0 0)
(2.56544e-06 0 0)
(2.56546e-06 0 0)
(2.56548e-06 0 0)
(2.56551e-06 0 0)
(2.56553e-06 0 0)
(2.56555e-06 0 0)
(2.56558e-06 0 0)
(2.56561e-06 0 0)
(2.56563e-06 0 0)
(2.56566e-06 0 0)
(2.56569e-06 0 0)
(2.56572e-06 0 0)
(2.56575e-06 0 0)
(2.56578e-06 0 0)
(2.56581e-06 0 0)
(2.56584e-06 0 0)
(2.56587e-06 0 0)
(2.5659e-06 0 0)
(2.56593e-06 0 0)
(2.56596e-06 0 0)
(2.56599e-06 0 0)
(2.56602e-06 0 0)
(2.56605e-06 0 0)
(2.56608e-06 0 0)
(2.56611e-06 0 0)
(2.56613e-06 0 0)
(2.56616e-06 0 0)
(2.56618e-06 0 0)
(2.56621e-06 0 0)
(2.56623e-06 0 0)
(2.56625e-06 0 0)
(2.56627e-06 0 0)
(2.56629e-06 0 0)
(2.5663e-06 0 0)
(2.56631e-06 0 0)
(2.56632e-06 0 0)
(2.56633e-06 0 0)
(2.56634e-06 0 0)
(2.56634e-06 0 0)
(2.56634e-06 0 0)
(2.56634e-06 0 0)
(2.56635e-06 0 0)
(2.56634e-06 0 0)
(2.56634e-06 0 0)
(2.56633e-06 0 0)
(2.56633e-06 0 0)
(2.56632e-06 0 0)
(2.5663e-06 0 0)
(2.56628e-06 0 0)
(2.56627e-06 0 0)
(2.56625e-06 0 0)
(2.56623e-06 0 0)
(2.5662e-06 0 0)
(2.56618e-06 0 0)
(2.56615e-06 0 0)
(2.56612e-06 0 0)
(2.56609e-06 0 0)
(2.56606e-06 0 0)
(2.56603e-06 0 0)
(2.56599e-06 0 0)
(2.56595e-06 0 0)
(2.56592e-06 0 0)
(2.56588e-06 0 0)
(2.56584e-06 0 0)
(2.56579e-06 0 0)
(2.56576e-06 0 0)
(2.56572e-06 0 0)
(2.56566e-06 0 0)
(2.56562e-06 0 0)
(2.56557e-06 0 0)
(2.56551e-06 0 0)
(2.56545e-06 0 0)
(2.56541e-06 0 0)
(2.56534e-06 0 0)
(2.56526e-06 0 0)
(2.56524e-06 0 0)
(2.56531e-06 0 0)
(2.56671e-06 0 0)
(2.57319e-06 0 0)
(2.60423e-06 0 0)
(2.78566e-06 0 0)
(2.95407e-06 0 0)
(2.96709e-06 0 0)
(2.96726e-06 0 0)
(2.96727e-06 0 0)
(2.96727e-06 0 0)
(2.96727e-06 0 0)
(2.96727e-06 0 0)
(2.96727e-06 0 0)
(2.96727e-06 0 0)
(2.96727e-06 0 0)
(2.96727e-06 0 0)
(2.96727e-06 0 0)
(2.96727e-06 0 0)
(2.96727e-06 0 0)
(2.96727e-06 0 0)
(2.96727e-06 0 0)
(2.96727e-06 0 0)
(2.96727e-06 0 0)
(2.96727e-06 0 0)
(2.96727e-06 0 0)
(2.96727e-06 0 0)
(2.96727e-06 0 0)
(2.96727e-06 0 0)
(2.96727e-06 0 0)
(2.96727e-06 0 0)
(2.96727e-06 0 0)
(2.96727e-06 0 0)
(2.96727e-06 0 0)
(2.96727e-06 0 0)
(2.96727e-06 0 0)
(2.96727e-06 0 0)
(2.96727e-06 0 0)
)
;

boundaryField
{
    inlet
    {
        type            fixedValue;
        value           uniform (1.13622e-05 0 0);
    }
    outlet
    {
        type            zeroGradient;
    }
    emptyWalls
    {
        type            empty;
    }
}


// ************************************************************************* //
