/*--------------------------------*- C++ -*----------------------------------*\
  =========                 |
  \\      /  F ield         | OpenFOAM: The Open Source CFD Toolbox
   \\    /   O peration     | Website:  https://openfoam.org
    \\  /    A nd           | Version:  9
     \\/     M anipulation  |
\*---------------------------------------------------------------------------*/
FoamFile
{
    format      ascii;
    class       volVectorField;
    location    "5900";
    object      Uc;
}
// * * * * * * * * * * * * * * * * * * * * * * * * * * * * * * * * * * * * * //

dimensions      [0 0 0 0 0 0 0];

internalField   nonuniform List<vector> 
1000
(
(1.07399e-10 0 0)
(5.59798e-10 0 0)
(1.38037e-09 0 0)
(2.42198e-09 0 0)
(3.80727e-09 0 0)
(6.96707e-09 0 0)
(1.69764e-08 0 0)
(6.21243e-08 0 0)
(1.47793e-07 0 0)
(2.05379e-07 0 0)
(2.18845e-07 0 0)
(2.25623e-07 0 0)
(2.30463e-07 0 0)
(2.34394e-07 0 0)
(2.37788e-07 0 0)
(2.4087e-07 0 0)
(2.43833e-07 0 0)
(2.46904e-07 0 0)
(2.50545e-07 0 0)
(2.55277e-07 0 0)
(2.61564e-07 0 0)
(2.69958e-07 0 0)
(2.80733e-07 0 0)
(2.93569e-07 0 0)
(3.07843e-07 0 0)
(3.23051e-07 0 0)
(3.3889e-07 0 0)
(3.55175e-07 0 0)
(3.71792e-07 0 0)
(3.88665e-07 0 0)
(4.05748e-07 0 0)
(4.23007e-07 0 0)
(4.40424e-07 0 0)
(4.57986e-07 0 0)
(4.75684e-07 0 0)
(4.93513e-07 0 0)
(5.11468e-07 0 0)
(5.29545e-07 0 0)
(5.4774e-07 0 0)
(5.66051e-07 0 0)
(5.84473e-07 0 0)
(6.03002e-07 0 0)
(6.21635e-07 0 0)
(6.40366e-07 0 0)
(6.59191e-07 0 0)
(6.78107e-07 0 0)
(6.97111e-07 0 0)
(7.16199e-07 0 0)
(7.35371e-07 0 0)
(7.54621e-07 0 0)
(7.73949e-07 0 0)
(7.93354e-07 0 0)
(8.12832e-07 0 0)
(8.32383e-07 0 0)
(8.52005e-07 0 0)
(8.71698e-07 0 0)
(8.91462e-07 0 0)
(9.11293e-07 0 0)
(9.31192e-07 0 0)
(9.51158e-07 0 0)
(9.7119e-07 0 0)
(9.91287e-07 0 0)
(1.01145e-06 0 0)
(1.03167e-06 0 0)
(1.05196e-06 0 0)
(1.07231e-06 0 0)
(1.09272e-06 0 0)
(1.1132e-06 0 0)
(1.13373e-06 0 0)
(1.15432e-06 0 0)
(1.17498e-06 0 0)
(1.19569e-06 0 0)
(1.21647e-06 0 0)
(1.2373e-06 0 0)
(1.2582e-06 0 0)
(1.27915e-06 0 0)
(1.30017e-06 0 0)
(1.32124e-06 0 0)
(1.34238e-06 0 0)
(1.36358e-06 0 0)
(1.38483e-06 0 0)
(1.40615e-06 0 0)
(1.42753e-06 0 0)
(1.44897e-06 0 0)
(1.47047e-06 0 0)
(1.49203e-06 0 0)
(1.51366e-06 0 0)
(1.53534e-06 0 0)
(1.55709e-06 0 0)
(1.5789e-06 0 0)
(1.60077e-06 0 0)
(1.6227e-06 0 0)
(1.6447e-06 0 0)
(1.66675e-06 0 0)
(1.68887e-06 0 0)
(1.71105e-06 0 0)
(1.7333e-06 0 0)
(1.7556e-06 0 0)
(1.77797e-06 0 0)
(1.8004e-06 0 0)
(1.82289e-06 0 0)
(1.84545e-06 0 0)
(1.86807e-06 0 0)
(1.89075e-06 0 0)
(1.9135e-06 0 0)
(1.93632e-06 0 0)
(1.9592e-06 0 0)
(1.98215e-06 0 0)
(2.00517e-06 0 0)
(2.02825e-06 0 0)
(2.0514e-06 0 0)
(2.07463e-06 0 0)
(2.09792e-06 0 0)
(2.12129e-06 0 0)
(2.14473e-06 0 0)
(2.16825e-06 0 0)
(2.19184e-06 0 0)
(2.21551e-06 0 0)
(2.23926e-06 0 0)
(2.26308e-06 0 0)
(2.28698e-06 0 0)
(2.31097e-06 0 0)
(2.33503e-06 0 0)
(2.35918e-06 0 0)
(2.3834e-06 0 0)
(2.40771e-06 0 0)
(2.4321e-06 0 0)
(2.45657e-06 0 0)
(2.48112e-06 0 0)
(2.50576e-06 0 0)
(2.53048e-06 0 0)
(2.55528e-06 0 0)
(2.58018e-06 0 0)
(2.60515e-06 0 0)
(2.63022e-06 0 0)
(2.65538e-06 0 0)
(2.68063e-06 0 0)
(2.70596e-06 0 0)
(2.73138e-06 0 0)
(2.75689e-06 0 0)
(2.78249e-06 0 0)
(2.80816e-06 0 0)
(2.83392e-06 0 0)
(2.85976e-06 0 0)
(2.88567e-06 0 0)
(2.91165e-06 0 0)
(2.93772e-06 0 0)
(2.96385e-06 0 0)
(2.99006e-06 0 0)
(3.01635e-06 0 0)
(3.04272e-06 0 0)
(3.06918e-06 0 0)
(3.09573e-06 0 0)
(3.12239e-06 0 0)
(3.14916e-06 0 0)
(3.17605e-06 0 0)
(3.20307e-06 0 0)
(3.23024e-06 0 0)
(3.25756e-06 0 0)
(3.28506e-06 0 0)
(3.31275e-06 0 0)
(3.34063e-06 0 0)
(3.36873e-06 0 0)
(3.39705e-06 0 0)
(3.4256e-06 0 0)
(3.4544e-06 0 0)
(3.48344e-06 0 0)
(3.51273e-06 0 0)
(3.54227e-06 0 0)
(3.57205e-06 0 0)
(3.60207e-06 0 0)
(3.63232e-06 0 0)
(3.66279e-06 0 0)
(3.69347e-06 0 0)
(3.72435e-06 0 0)
(3.7554e-06 0 0)
(3.78663e-06 0 0)
(3.81802e-06 0 0)
(3.84956e-06 0 0)
(3.88126e-06 0 0)
(3.91309e-06 0 0)
(3.94507e-06 0 0)
(3.9772e-06 0 0)
(4.00949e-06 0 0)
(4.04193e-06 0 0)
(4.07453e-06 0 0)
(4.10731e-06 0 0)
(4.14028e-06 0 0)
(4.17344e-06 0 0)
(4.20681e-06 0 0)
(4.24041e-06 0 0)
(4.27423e-06 0 0)
(4.30831e-06 0 0)
(4.34264e-06 0 0)
(4.37724e-06 0 0)
(4.41213e-06 0 0)
(4.44732e-06 0 0)
(4.48282e-06 0 0)
(4.51863e-06 0 0)
(4.55476e-06 0 0)
(4.59124e-06 0 0)
(4.62805e-06 0 0)
(4.66521e-06 0 0)
(4.70274e-06 0 0)
(4.74063e-06 0 0)
(4.77891e-06 0 0)
(4.81756e-06 0 0)
(4.85659e-06 0 0)
(4.896e-06 0 0)
(4.93579e-06 0 0)
(4.97594e-06 0 0)
(5.01645e-06 0 0)
(5.05729e-06 0 0)
(5.09843e-06 0 0)
(5.13982e-06 0 0)
(5.18137e-06 0 0)
(5.223e-06 0 0)
(5.26457e-06 0 0)
(5.30593e-06 0 0)
(5.34688e-06 0 0)
(5.38719e-06 0 0)
(5.42659e-06 0 0)
(5.4648e-06 0 0)
(5.50155e-06 0 0)
(5.53662e-06 0 0)
(5.56996e-06 0 0)
(5.60178e-06 0 0)
(5.63278e-06 0 0)
(5.66451e-06 0 0)
(5.69996e-06 0 0)
(5.74456e-06 0 0)
(5.80775e-06 0 0)
(5.90506e-06 0 0)
(6.0602e-06 0 0)
(6.3046e-06 0 0)
(6.66896e-06 0 0)
(7.16203e-06 0 0)
(7.74488e-06 0 0)
(8.33025e-06 0 0)
(8.82542e-06 0 0)
(9.18301e-06 0 0)
(9.41044e-06 0 0)
(9.54275e-06 0 0)
(9.61554e-06 0 0)
(9.65434e-06 0 0)
(9.67467e-06 0 0)
(9.68525e-06 0 0)
(9.69075e-06 0 0)
(9.69363e-06 0 0)
(9.69516e-06 0 0)
(9.69599e-06 0 0)
(9.69646e-06 0 0)
(9.69675e-06 0 0)
(9.69693e-06 0 0)
(9.69707e-06 0 0)
(9.69717e-06 0 0)
(9.69726e-06 0 0)
(9.69734e-06 0 0)
(9.69741e-06 0 0)
(9.69748e-06 0 0)
(9.69754e-06 0 0)
(9.6976e-06 0 0)
(9.69766e-06 0 0)
(9.69772e-06 0 0)
(9.69777e-06 0 0)
(9.69783e-06 0 0)
(9.69788e-06 0 0)
(9.69793e-06 0 0)
(9.69798e-06 0 0)
(9.69803e-06 0 0)
(9.69808e-06 0 0)
(9.69812e-06 0 0)
(9.69816e-06 0 0)
(9.69821e-06 0 0)
(9.69824e-06 0 0)
(9.69828e-06 0 0)
(9.69832e-06 0 0)
(9.69835e-06 0 0)
(9.69837e-06 0 0)
(9.6984e-06 0 0)
(9.69841e-06 0 0)
(9.69843e-06 0 0)
(9.69843e-06 0 0)
(9.69843e-06 0 0)
(9.69843e-06 0 0)
(9.69843e-06 0 0)
(9.69842e-06 0 0)
(9.69839e-06 0 0)
(9.69836e-06 0 0)
(9.69832e-06 0 0)
(9.69827e-06 0 0)
(9.69821e-06 0 0)
(9.69815e-06 0 0)
(9.69808e-06 0 0)
(9.698e-06 0 0)
(9.69791e-06 0 0)
(9.69782e-06 0 0)
(9.69771e-06 0 0)
(9.6976e-06 0 0)
(9.69748e-06 0 0)
(9.69736e-06 0 0)
(9.69723e-06 0 0)
(9.69709e-06 0 0)
(9.69694e-06 0 0)
(9.69679e-06 0 0)
(9.69664e-06 0 0)
(9.69648e-06 0 0)
(9.69632e-06 0 0)
(9.69615e-06 0 0)
(9.69598e-06 0 0)
(9.6958e-06 0 0)
(9.69563e-06 0 0)
(9.69545e-06 0 0)
(9.69526e-06 0 0)
(9.69508e-06 0 0)
(9.69489e-06 0 0)
(9.69469e-06 0 0)
(9.6945e-06 0 0)
(9.6943e-06 0 0)
(9.69409e-06 0 0)
(9.69388e-06 0 0)
(9.69367e-06 0 0)
(9.69345e-06 0 0)
(9.69322e-06 0 0)
(9.69299e-06 0 0)
(9.69274e-06 0 0)
(9.69249e-06 0 0)
(9.69222e-06 0 0)
(9.69194e-06 0 0)
(9.69164e-06 0 0)
(9.69133e-06 0 0)
(9.691e-06 0 0)
(9.69064e-06 0 0)
(9.69026e-06 0 0)
(9.68985e-06 0 0)
(9.68941e-06 0 0)
(9.68894e-06 0 0)
(9.68844e-06 0 0)
(9.68789e-06 0 0)
(9.68731e-06 0 0)
(9.68668e-06 0 0)
(9.68601e-06 0 0)
(9.68531e-06 0 0)
(9.68455e-06 0 0)
(9.68376e-06 0 0)
(9.68293e-06 0 0)
(9.68206e-06 0 0)
(9.68115e-06 0 0)
(9.68022e-06 0 0)
(9.67926e-06 0 0)
(9.67828e-06 0 0)
(9.67729e-06 0 0)
(9.6763e-06 0 0)
(9.67531e-06 0 0)
(9.67434e-06 0 0)
(9.67339e-06 0 0)
(9.67247e-06 0 0)
(9.6716e-06 0 0)
(9.67079e-06 0 0)
(9.67005e-06 0 0)
(9.66939e-06 0 0)
(9.66882e-06 0 0)
(9.66836e-06 0 0)
(9.66801e-06 0 0)
(9.66778e-06 0 0)
(9.66766e-06 0 0)
(9.66763e-06 0 0)
(9.66763e-06 0 0)
(9.6677e-06 0 0)
(9.66802e-06 0 0)
(9.66856e-06 0 0)
(9.6692e-06 0 0)
(9.66997e-06 0 0)
(9.67083e-06 0 0)
(9.67179e-06 0 0)
(9.67283e-06 0 0)
(9.67393e-06 0 0)
(9.67508e-06 0 0)
(9.67625e-06 0 0)
(9.67744e-06 0 0)
(9.67863e-06 0 0)
(9.6798e-06 0 0)
(9.68094e-06 0 0)
(9.68204e-06 0 0)
(9.68308e-06 0 0)
(9.68406e-06 0 0)
(9.68496e-06 0 0)
(9.68579e-06 0 0)
(9.68653e-06 0 0)
(9.68719e-06 0 0)
(9.68777e-06 0 0)
(9.68827e-06 0 0)
(9.68868e-06 0 0)
(9.68903e-06 0 0)
(9.6893e-06 0 0)
(9.68951e-06 0 0)
(9.68966e-06 0 0)
(9.68975e-06 0 0)
(9.68981e-06 0 0)
(9.68982e-06 0 0)
(9.68983e-06 0 0)
(9.68981e-06 0 0)
(9.68976e-06 0 0)
(9.68966e-06 0 0)
(9.68956e-06 0 0)
(9.68945e-06 0 0)
(9.68934e-06 0 0)
(9.68923e-06 0 0)
(9.68913e-06 0 0)
(9.68904e-06 0 0)
(9.68896e-06 0 0)
(9.6889e-06 0 0)
(9.68884e-06 0 0)
(9.68881e-06 0 0)
(9.68878e-06 0 0)
(9.68877e-06 0 0)
(9.68877e-06 0 0)
(9.68877e-06 0 0)
(9.6888e-06 0 0)
(9.68885e-06 0 0)
(9.68891e-06 0 0)
(9.68899e-06 0 0)
(9.68909e-06 0 0)
(9.68919e-06 0 0)
(9.6893e-06 0 0)
(9.68943e-06 0 0)
(9.68957e-06 0 0)
(9.68971e-06 0 0)
(9.68986e-06 0 0)
(9.69002e-06 0 0)
(9.69019e-06 0 0)
(9.69036e-06 0 0)
(9.69054e-06 0 0)
(9.69073e-06 0 0)
(9.69091e-06 0 0)
(9.69111e-06 0 0)
(9.69131e-06 0 0)
(9.69151e-06 0 0)
(9.69171e-06 0 0)
(9.69192e-06 0 0)
(9.69213e-06 0 0)
(9.69234e-06 0 0)
(9.69256e-06 0 0)
(9.69277e-06 0 0)
(9.69299e-06 0 0)
(9.6932e-06 0 0)
(9.69342e-06 0 0)
(9.69363e-06 0 0)
(9.69385e-06 0 0)
(9.69406e-06 0 0)
(9.69427e-06 0 0)
(9.69448e-06 0 0)
(9.69469e-06 0 0)
(9.69489e-06 0 0)
(9.69509e-06 0 0)
(9.69528e-06 0 0)
(9.69547e-06 0 0)
(9.69565e-06 0 0)
(9.69583e-06 0 0)
(9.696e-06 0 0)
(9.69617e-06 0 0)
(9.69633e-06 0 0)
(9.69648e-06 0 0)
(9.69663e-06 0 0)
(9.69677e-06 0 0)
(9.6969e-06 0 0)
(9.69702e-06 0 0)
(9.69714e-06 0 0)
(9.69725e-06 0 0)
(9.69735e-06 0 0)
(9.69745e-06 0 0)
(9.69754e-06 0 0)
(9.69762e-06 0 0)
(9.6977e-06 0 0)
(9.69777e-06 0 0)
(9.69783e-06 0 0)
(9.69789e-06 0 0)
(9.69794e-06 0 0)
(9.69799e-06 0 0)
(9.69803e-06 0 0)
(9.69807e-06 0 0)
(9.6981e-06 0 0)
(9.69812e-06 0 0)
(9.69815e-06 0 0)
(9.69817e-06 0 0)
(9.69819e-06 0 0)
(9.6982e-06 0 0)
(9.69821e-06 0 0)
(9.69822e-06 0 0)
(9.69822e-06 0 0)
(9.69822e-06 0 0)
(9.69822e-06 0 0)
(9.69821e-06 0 0)
(9.6982e-06 0 0)
(9.69819e-06 0 0)
(9.69818e-06 0 0)
(9.69817e-06 0 0)
(9.69815e-06 0 0)
(9.69813e-06 0 0)
(9.69811e-06 0 0)
(9.69808e-06 0 0)
(9.69805e-06 0 0)
(9.69802e-06 0 0)
(9.69798e-06 0 0)
(9.69794e-06 0 0)
(9.6979e-06 0 0)
(9.69785e-06 0 0)
(9.69779e-06 0 0)
(9.69773e-06 0 0)
(9.69767e-06 0 0)
(9.6976e-06 0 0)
(9.69752e-06 0 0)
(9.69744e-06 0 0)
(9.69735e-06 0 0)
(9.69725e-06 0 0)
(9.69714e-06 0 0)
(9.69702e-06 0 0)
(9.69689e-06 0 0)
(9.69676e-06 0 0)
(9.69662e-06 0 0)
(9.69646e-06 0 0)
(9.6963e-06 0 0)
(9.69613e-06 0 0)
(9.69594e-06 0 0)
(9.69575e-06 0 0)
(9.69555e-06 0 0)
(9.69534e-06 0 0)
(9.69511e-06 0 0)
(9.69488e-06 0 0)
(9.69464e-06 0 0)
(9.69439e-06 0 0)
(9.69413e-06 0 0)
(9.69385e-06 0 0)
(9.69357e-06 0 0)
(9.69327e-06 0 0)
(9.69296e-06 0 0)
(9.69264e-06 0 0)
(9.6923e-06 0 0)
(9.69195e-06 0 0)
(9.69159e-06 0 0)
(9.6912e-06 0 0)
(9.69081e-06 0 0)
(9.69039e-06 0 0)
(9.68995e-06 0 0)
(9.68949e-06 0 0)
(9.68901e-06 0 0)
(9.68851e-06 0 0)
(9.68798e-06 0 0)
(9.68743e-06 0 0)
(9.68685e-06 0 0)
(9.68625e-06 0 0)
(9.68562e-06 0 0)
(9.68496e-06 0 0)
(9.68428e-06 0 0)
(9.68357e-06 0 0)
(9.68284e-06 0 0)
(9.68209e-06 0 0)
(9.68131e-06 0 0)
(9.68052e-06 0 0)
(9.67971e-06 0 0)
(9.67889e-06 0 0)
(9.67807e-06 0 0)
(9.67724e-06 0 0)
(9.67641e-06 0 0)
(9.67559e-06 0 0)
(9.67479e-06 0 0)
(9.674e-06 0 0)
(9.67324e-06 0 0)
(9.67252e-06 0 0)
(9.67183e-06 0 0)
(9.6712e-06 0 0)
(9.67061e-06 0 0)
(9.67009e-06 0 0)
(9.66964e-06 0 0)
(9.66926e-06 0 0)
(9.66897e-06 0 0)
(9.66877e-06 0 0)
(9.66865e-06 0 0)
(9.66861e-06 0 0)
(9.6686e-06 0 0)
(9.66863e-06 0 0)
(9.6688e-06 0 0)
(9.66914e-06 0 0)
(9.66959e-06 0 0)
(9.67014e-06 0 0)
(9.67078e-06 0 0)
(9.67149e-06 0 0)
(9.67228e-06 0 0)
(9.67314e-06 0 0)
(9.67404e-06 0 0)
(9.67499e-06 0 0)
(9.67598e-06 0 0)
(9.67698e-06 0 0)
(9.67799e-06 0 0)
(9.67901e-06 0 0)
(9.68001e-06 0 0)
(9.68099e-06 0 0)
(9.68194e-06 0 0)
(9.68285e-06 0 0)
(9.68372e-06 0 0)
(9.68454e-06 0 0)
(9.68531e-06 0 0)
(9.68603e-06 0 0)
(9.68669e-06 0 0)
(9.68728e-06 0 0)
(9.68782e-06 0 0)
(9.6883e-06 0 0)
(9.68873e-06 0 0)
(9.6891e-06 0 0)
(9.68943e-06 0 0)
(9.68971e-06 0 0)
(9.68994e-06 0 0)
(9.69014e-06 0 0)
(9.6903e-06 0 0)
(9.69043e-06 0 0)
(9.69054e-06 0 0)
(9.69062e-06 0 0)
(9.69069e-06 0 0)
(9.69074e-06 0 0)
(9.69078e-06 0 0)
(9.69081e-06 0 0)
(9.69083e-06 0 0)
(9.69085e-06 0 0)
(9.69087e-06 0 0)
(9.69089e-06 0 0)
(9.69091e-06 0 0)
(9.69094e-06 0 0)
(9.69097e-06 0 0)
(9.691e-06 0 0)
(9.69105e-06 0 0)
(9.6911e-06 0 0)
(9.69116e-06 0 0)
(9.69123e-06 0 0)
(9.69131e-06 0 0)
(9.69139e-06 0 0)
(9.69149e-06 0 0)
(9.69158e-06 0 0)
(9.69169e-06 0 0)
(9.6918e-06 0 0)
(9.69192e-06 0 0)
(9.69204e-06 0 0)
(9.69216e-06 0 0)
(9.69229e-06 0 0)
(9.69243e-06 0 0)
(9.69256e-06 0 0)
(9.6927e-06 0 0)
(9.69284e-06 0 0)
(9.69299e-06 0 0)
(9.69313e-06 0 0)
(9.69328e-06 0 0)
(9.69342e-06 0 0)
(9.69357e-06 0 0)
(9.69372e-06 0 0)
(9.69387e-06 0 0)
(9.69401e-06 0 0)
(9.69416e-06 0 0)
(9.69431e-06 0 0)
(9.69446e-06 0 0)
(9.69461e-06 0 0)
(9.69476e-06 0 0)
(9.69491e-06 0 0)
(9.69505e-06 0 0)
(9.6952e-06 0 0)
(9.69534e-06 0 0)
(9.69549e-06 0 0)
(9.69564e-06 0 0)
(9.69578e-06 0 0)
(9.69592e-06 0 0)
(9.69606e-06 0 0)
(9.6962e-06 0 0)
(9.69634e-06 0 0)
(9.69648e-06 0 0)
(9.69662e-06 0 0)
(9.69675e-06 0 0)
(9.69688e-06 0 0)
(9.69701e-06 0 0)
(9.69713e-06 0 0)
(9.69726e-06 0 0)
(9.69738e-06 0 0)
(9.69749e-06 0 0)
(9.6976e-06 0 0)
(9.69771e-06 0 0)
(9.69782e-06 0 0)
(9.69791e-06 0 0)
(9.69801e-06 0 0)
(9.6981e-06 0 0)
(9.69818e-06 0 0)
(9.69826e-06 0 0)
(9.69833e-06 0 0)
(9.6984e-06 0 0)
(9.69846e-06 0 0)
(9.69852e-06 0 0)
(9.69857e-06 0 0)
(9.69861e-06 0 0)
(9.69865e-06 0 0)
(9.69868e-06 0 0)
(9.69871e-06 0 0)
(9.69873e-06 0 0)
(9.69875e-06 0 0)
(9.69876e-06 0 0)
(9.69876e-06 0 0)
(9.69876e-06 0 0)
(9.69876e-06 0 0)
(9.69876e-06 0 0)
(9.69874e-06 0 0)
(9.69872e-06 0 0)
(9.6987e-06 0 0)
(9.69867e-06 0 0)
(9.69864e-06 0 0)
(9.69861e-06 0 0)
(9.69857e-06 0 0)
(9.69853e-06 0 0)
(9.69849e-06 0 0)
(9.69845e-06 0 0)
(9.6984e-06 0 0)
(9.69835e-06 0 0)
(9.6983e-06 0 0)
(9.69825e-06 0 0)
(9.6982e-06 0 0)
(9.69815e-06 0 0)
(9.69809e-06 0 0)
(9.69803e-06 0 0)
(9.69797e-06 0 0)
(9.69791e-06 0 0)
(9.69784e-06 0 0)
(9.69777e-06 0 0)
(9.6977e-06 0 0)
(9.69763e-06 0 0)
(9.69755e-06 0 0)
(9.69747e-06 0 0)
(9.69738e-06 0 0)
(9.69728e-06 0 0)
(9.69718e-06 0 0)
(9.69707e-06 0 0)
(9.69696e-06 0 0)
(9.69683e-06 0 0)
(9.6967e-06 0 0)
(9.69656e-06 0 0)
(9.69641e-06 0 0)
(9.69624e-06 0 0)
(9.69607e-06 0 0)
(9.69588e-06 0 0)
(9.69568e-06 0 0)
(9.69546e-06 0 0)
(9.69523e-06 0 0)
(9.69499e-06 0 0)
(9.69473e-06 0 0)
(9.69445e-06 0 0)
(9.69416e-06 0 0)
(9.69384e-06 0 0)
(9.69351e-06 0 0)
(9.69316e-06 0 0)
(9.69279e-06 0 0)
(9.6924e-06 0 0)
(9.69199e-06 0 0)
(9.69155e-06 0 0)
(9.69109e-06 0 0)
(9.69061e-06 0 0)
(9.69011e-06 0 0)
(9.68959e-06 0 0)
(9.68904e-06 0 0)
(9.68847e-06 0 0)
(9.68787e-06 0 0)
(9.68726e-06 0 0)
(9.68662e-06 0 0)
(9.68597e-06 0 0)
(9.68529e-06 0 0)
(9.68459e-06 0 0)
(9.68388e-06 0 0)
(9.68316e-06 0 0)
(9.68243e-06 0 0)
(9.68168e-06 0 0)
(9.68093e-06 0 0)
(9.68018e-06 0 0)
(9.67943e-06 0 0)
(9.67868e-06 0 0)
(9.67794e-06 0 0)
(9.67721e-06 0 0)
(9.67651e-06 0 0)
(9.67582e-06 0 0)
(9.67517e-06 0 0)
(9.67454e-06 0 0)
(9.67396e-06 0 0)
(9.67342e-06 0 0)
(9.67292e-06 0 0)
(9.67248e-06 0 0)
(9.6721e-06 0 0)
(9.67178e-06 0 0)
(9.67153e-06 0 0)
(9.67135e-06 0 0)
(9.67125e-06 0 0)
(9.67121e-06 0 0)
(9.67121e-06 0 0)
(9.67122e-06 0 0)
(9.67135e-06 0 0)
(9.67162e-06 0 0)
(9.67198e-06 0 0)
(9.67242e-06 0 0)
(9.67294e-06 0 0)
(9.67353e-06 0 0)
(9.67418e-06 0 0)
(9.67488e-06 0 0)
(9.67564e-06 0 0)
(9.67644e-06 0 0)
(9.67728e-06 0 0)
(9.67814e-06 0 0)
(9.67902e-06 0 0)
(9.67991e-06 0 0)
(9.6808e-06 0 0)
(9.68168e-06 0 0)
(9.68255e-06 0 0)
(9.6834e-06 0 0)
(9.68422e-06 0 0)
(9.68501e-06 0 0)
(9.68576e-06 0 0)
(9.68647e-06 0 0)
(9.68714e-06 0 0)
(9.68776e-06 0 0)
(9.68834e-06 0 0)
(9.68887e-06 0 0)
(9.68934e-06 0 0)
(9.68978e-06 0 0)
(9.69016e-06 0 0)
(9.69051e-06 0 0)
(9.69081e-06 0 0)
(9.69108e-06 0 0)
(9.6913e-06 0 0)
(9.6915e-06 0 0)
(9.69166e-06 0 0)
(9.69179e-06 0 0)
(9.6919e-06 0 0)
(9.69199e-06 0 0)
(9.69207e-06 0 0)
(9.69212e-06 0 0)
(9.69216e-06 0 0)
(9.6922e-06 0 0)
(9.69222e-06 0 0)
(9.69223e-06 0 0)
(9.69224e-06 0 0)
(9.69225e-06 0 0)
(9.69226e-06 0 0)
(9.69226e-06 0 0)
(9.69227e-06 0 0)
(9.69227e-06 0 0)
(9.69228e-06 0 0)
(9.69229e-06 0 0)
(9.6923e-06 0 0)
(9.69232e-06 0 0)
(9.69234e-06 0 0)
(9.69237e-06 0 0)
(9.69239e-06 0 0)
(9.69243e-06 0 0)
(9.69246e-06 0 0)
(9.6925e-06 0 0)
(9.69254e-06 0 0)
(9.69258e-06 0 0)
(9.69262e-06 0 0)
(9.69267e-06 0 0)
(9.69272e-06 0 0)
(9.69277e-06 0 0)
(9.69282e-06 0 0)
(9.69287e-06 0 0)
(9.69292e-06 0 0)
(9.69296e-06 0 0)
(9.69301e-06 0 0)
(9.69306e-06 0 0)
(9.69311e-06 0 0)
(9.69316e-06 0 0)
(9.69321e-06 0 0)
(9.69326e-06 0 0)
(9.69331e-06 0 0)
(9.69336e-06 0 0)
(9.69341e-06 0 0)
(9.69346e-06 0 0)
(9.69351e-06 0 0)
(9.69356e-06 0 0)
(9.69361e-06 0 0)
(9.69366e-06 0 0)
(9.69371e-06 0 0)
(9.69377e-06 0 0)
(9.69382e-06 0 0)
(9.69388e-06 0 0)
(9.69395e-06 0 0)
(9.69401e-06 0 0)
(9.69408e-06 0 0)
(9.69414e-06 0 0)
(9.69421e-06 0 0)
(9.69429e-06 0 0)
(9.69436e-06 0 0)
(9.69444e-06 0 0)
(9.69453e-06 0 0)
(9.69462e-06 0 0)
(9.6947e-06 0 0)
(9.69479e-06 0 0)
(9.69489e-06 0 0)
(9.69499e-06 0 0)
(9.69509e-06 0 0)
(9.69519e-06 0 0)
(9.69529e-06 0 0)
(9.6954e-06 0 0)
(9.69551e-06 0 0)
(9.69562e-06 0 0)
(9.69573e-06 0 0)
(9.69584e-06 0 0)
(9.69595e-06 0 0)
(9.69606e-06 0 0)
(9.69617e-06 0 0)
(9.69628e-06 0 0)
(9.69639e-06 0 0)
(9.69649e-06 0 0)
(9.6966e-06 0 0)
(9.6967e-06 0 0)
(9.69679e-06 0 0)
(9.69689e-06 0 0)
(9.69697e-06 0 0)
(9.69706e-06 0 0)
(9.69714e-06 0 0)
(9.69721e-06 0 0)
(9.69728e-06 0 0)
(9.69734e-06 0 0)
(9.69739e-06 0 0)
(9.69744e-06 0 0)
(9.69748e-06 0 0)
(9.69751e-06 0 0)
(9.69753e-06 0 0)
(9.69755e-06 0 0)
(9.69755e-06 0 0)
(9.69755e-06 0 0)
(9.69755e-06 0 0)
(9.69754e-06 0 0)
(9.69753e-06 0 0)
(9.69751e-06 0 0)
(9.69748e-06 0 0)
(9.69745e-06 0 0)
(9.6974e-06 0 0)
(9.69735e-06 0 0)
(9.69728e-06 0 0)
(9.69721e-06 0 0)
(9.69714e-06 0 0)
(9.69705e-06 0 0)
(9.69695e-06 0 0)
(9.69685e-06 0 0)
(9.69675e-06 0 0)
(9.69664e-06 0 0)
(9.69652e-06 0 0)
(9.69641e-06 0 0)
(9.69628e-06 0 0)
(9.69614e-06 0 0)
(9.69601e-06 0 0)
(9.69588e-06 0 0)
(9.69573e-06 0 0)
(9.69557e-06 0 0)
(9.69543e-06 0 0)
(9.69527e-06 0 0)
(9.69508e-06 0 0)
(9.69492e-06 0 0)
(9.69475e-06 0 0)
(9.69453e-06 0 0)
(9.69432e-06 0 0)
(9.69415e-06 0 0)
(9.69388e-06 0 0)
(9.69362e-06 0 0)
(9.69352e-06 0 0)
(9.69378e-06 0 0)
(9.69896e-06 0 0)
(9.72297e-06 0 0)
(9.83804e-06 0 0)
(1.0497e-05 0 0)
(1.11019e-05 0 0)
(1.11438e-05 0 0)
(1.11437e-05 0 0)
(1.11437e-05 0 0)
(1.11437e-05 0 0)
(1.11437e-05 0 0)
(1.11437e-05 0 0)
(1.11437e-05 0 0)
(1.11437e-05 0 0)
(1.11437e-05 0 0)
(1.11437e-05 0 0)
(1.11437e-05 0 0)
(1.11437e-05 0 0)
(1.11437e-05 0 0)
(1.11437e-05 0 0)
(1.11437e-05 0 0)
(1.11437e-05 0 0)
(1.11437e-05 0 0)
(1.11437e-05 0 0)
(1.11437e-05 0 0)
(1.11437e-05 0 0)
(1.11437e-05 0 0)
(1.11437e-05 0 0)
(1.11437e-05 0 0)
(1.11437e-05 0 0)
(1.11437e-05 0 0)
(1.11437e-05 0 0)
(1.11437e-05 0 0)
(1.11437e-05 0 0)
(1.11437e-05 0 0)
(1.11437e-05 0 0)
(1.11437e-05 0 0)
)
;

boundaryField
{
    inlet
    {
        type            fixedValue;
        value           uniform (0 0 0);
    }
    outlet
    {
        type            zeroGradient;
    }
    emptyWalls
    {
        type            empty;
    }
}


// ************************************************************************* //
