/*--------------------------------*- C++ -*----------------------------------*\
  =========                 |
  \\      /  F ield         | OpenFOAM: The Open Source CFD Toolbox
   \\    /   O peration     | Website:  https://openfoam.org
    \\  /    A nd           | Version:  9
     \\/     M anipulation  |
\*---------------------------------------------------------------------------*/
FoamFile
{
    format      ascii;
    class       volScalarField;
    location    "28750";
    object      krb;
}
// * * * * * * * * * * * * * * * * * * * * * * * * * * * * * * * * * * * * * //

dimensions      [0 0 0 0 0 0 0];

internalField   nonuniform List<scalar> 
1000
(
0.0977803
0.0980995
0.0984435
0.0988515
0.0992198
0.0996152
0.100006
0.100398
0.100802
0.101207
0.101617
0.102037
0.102461
0.102888
0.103328
0.103756
0.104213
0.104636
0.105111
0.105522
0.106002
0.106405
0.106863
0.107263
0.107678
0.10806
0.108427
0.108767
0.109084
0.109368
0.109629
0.109859
0.110067
0.110251
0.110413
0.110578
0.110738
0.111121
0.112265
0.116854
0.144418
0.332093
0.461722
0.489341
0.49939
0.504705
0.508138
0.510585
0.512453
0.514017
0.515441
0.516794
0.518071
0.519251
0.520349
0.521451
0.522463
0.523372
0.524179
0.524893
0.525529
0.526102
0.526608
0.52706
0.527477
0.527865
0.528227
0.528564
0.528872
0.529154
0.529413
0.529648
0.529861
0.530051
0.530221
0.530369
0.530499
0.530608
0.5307
0.530772
0.530829
0.530865
0.530888
0.530891
0.53088
0.53085
0.530804
0.53074
0.53066
0.530562
0.530447
0.530314
0.530165
0.529997
0.529811
0.529606
0.529383
0.529139
0.528874
0.528586
0.528275
0.527938
0.527573
0.527175
0.526742
0.526267
0.525743
0.525158
0.524501
0.523756
0.522908
0.521945
0.520864
0.519672
0.518394
0.517056
0.51568
0.514276
0.512855
0.511423
0.509984
0.508544
0.507104
0.505666
0.504234
0.502806
0.501384
0.499969
0.49856
0.497157
0.495762
0.494372
0.492987
0.491607
0.49023
0.488857
0.487489
0.486126
0.48477
0.483421
0.48208
0.480749
0.479426
0.478113
0.47681
0.475518
0.474237
0.472967
0.471711
0.470467
0.469236
0.468019
0.466814
0.465622
0.46444
0.463269
0.462106
0.460951
0.459802
0.45866
0.457523
0.45639
0.455261
0.454137
0.453017
0.451901
0.450789
0.449681
0.448579
0.447482
0.44639
0.445303
0.444223
0.443148
0.44208
0.441017
0.439961
0.438911
0.437868
0.43683
0.435799
0.434774
0.433754
0.432741
0.431733
0.43073
0.429734
0.428742
0.427757
0.426776
0.425801
0.42483
0.423865
0.422904
0.421949
0.420999
0.420053
0.419112
0.418177
0.417245
0.416319
0.415396
0.414479
0.413566
0.412658
0.411753
0.410854
0.409958
0.409067
0.40818
0.407298
0.406419
0.405546
0.404675
0.40381
0.402947
0.40209
0.401235
0.400386
0.399539
0.398697
0.397858
0.397024
0.396193
0.395366
0.394542
0.393723
0.392907
0.392095
0.391286
0.390482
0.389679
0.388882
0.388087
0.387297
0.386508
0.385724
0.384942
0.384166
0.38339
0.382621
0.381852
0.381089
0.380328
0.379571
0.378817
0.378067
0.377319
0.376575
0.375833
0.375095
0.374357
0.373623
0.37289
0.372161
0.371431
0.370705
0.36998
0.369257
0.368535
0.367816
0.367098
0.366383
0.36567
0.36496
0.364252
0.363548
0.362847
0.362149
0.361455
0.360766
0.36008
0.359399
0.358723
0.358051
0.357384
0.356722
0.356064
0.355412
0.354762
0.354118
0.353477
0.352839
0.352204
0.351573
0.350943
0.350316
0.34969
0.349067
0.348444
0.347825
0.347205
0.346588
0.34597
0.345356
0.344741
0.34413
0.343518
0.34291
0.342301
0.341697
0.341092
0.340491
0.33989
0.339293
0.338696
0.338104
0.33751
0.336922
0.336333
0.33575
0.335165
0.334585
0.334004
0.333429
0.332852
0.332281
0.331708
0.331141
0.330572
0.330009
0.329444
0.328885
0.328323
0.327767
0.32721
0.326657
0.326103
0.325555
0.325004
0.324459
0.323912
0.32337
0.322826
0.322288
0.321747
0.321212
0.320675
0.320143
0.31961
0.319081
0.31855
0.318025
0.317498
0.316975
0.316451
0.315932
0.315411
0.314895
0.314377
0.313864
0.313348
0.312839
0.312326
0.311819
0.31131
0.310806
0.3103
0.309799
0.309295
0.308797
0.308297
0.307801
0.307304
0.306811
0.306316
0.305827
0.305334
0.304848
0.304358
0.303874
0.303387
0.302906
0.302422
0.301943
0.301462
0.300986
0.300508
0.300035
0.299559
0.299089
0.298615
0.298147
0.297676
0.29721
0.296742
0.296277
0.295811
0.295348
0.294883
0.294422
0.293959
0.2935
0.293037
0.292579
0.292119
0.291662
0.291203
0.290749
0.290291
0.289838
0.289383
0.288933
0.28848
0.288032
0.287582
0.287137
0.28669
0.286249
0.285806
0.285368
0.284929
0.284496
0.284061
0.283632
0.283201
0.282776
0.28235
0.281929
0.281506
0.281089
0.280669
0.280255
0.279839
0.279428
0.279015
0.278606
0.278194
0.277787
0.277378
0.276972
0.276564
0.27616
0.275753
0.27535
0.274944
0.274543
0.274138
0.273738
0.273334
0.272935
0.272533
0.272136
0.271735
0.271339
0.27094
0.270546
0.270149
0.269756
0.26936
0.268969
0.268576
0.268187
0.267795
0.267408
0.267018
0.266633
0.266245
0.265861
0.265475
0.265093
0.264709
0.264329
0.263947
0.263568
0.263188
0.262811
0.262432
0.262057
0.26168
0.261307
0.260931
0.260559
0.260185
0.259815
0.259443
0.259074
0.258703
0.258337
0.257967
0.257602
0.257234
0.25687
0.256504
0.256142
0.255777
0.255416
0.255053
0.254693
0.254331
0.253973
0.253613
0.253256
0.252897
0.252542
0.252185
0.251831
0.251475
0.251122
0.250768
0.250417
0.250063
0.249714
0.249362
0.249014
0.248663
0.248316
0.247967
0.247621
0.247273
0.246929
0.246583
0.24624
0.245895
0.245553
0.245209
0.244869
0.244527
0.244188
0.243846
0.243509
0.243169
0.242833
0.242494
0.242159
0.241822
0.241488
0.241152
0.240819
0.240484
0.240153
0.239818
0.239488
0.239155
0.238825
0.238493
0.238164
0.237832
0.237504
0.237174
0.236846
0.236516
0.23619
0.23586
0.235534
0.235206
0.234881
0.234553
0.234229
0.233902
0.233579
0.233253
0.232932
0.232607
0.232287
0.231964
0.231645
0.231324
0.231007
0.230687
0.230372
0.230055
0.229742
0.229426
0.229115
0.228802
0.228493
0.228182
0.227875
0.227566
0.227262
0.226955
0.226652
0.226347
0.226045
0.225742
0.225442
0.22514
0.224841
0.22454
0.224243
0.223943
0.223647
0.223347
0.223052
0.222753
0.222458
0.222161
0.221866
0.221569
0.221275
0.220979
0.220686
0.22039
0.220097
0.219802
0.21951
0.219216
0.218925
0.218631
0.218341
0.218048
0.217759
0.217467
0.217178
0.216887
0.216599
0.216309
0.216022
0.215733
0.215447
0.215158
0.214873
0.214586
0.214302
0.214015
0.213732
0.213446
0.213164
0.212879
0.212598
0.212314
0.212033
0.21175
0.21147
0.211188
0.210909
0.210628
0.21035
0.210069
0.209792
0.209512
0.209236
0.208957
0.208681
0.208403
0.208128
0.207851
0.207576
0.2073
0.207026
0.20675
0.206478
0.206203
0.205931
0.205656
0.205385
0.205111
0.204841
0.204568
0.204298
0.204026
0.203757
0.203486
0.203217
0.202946
0.202679
0.202409
0.202142
0.201872
0.201606
0.201337
0.201072
0.200804
0.200539
0.200272
0.200008
0.199741
0.199477
0.199212
0.198949
0.198684
0.198421
0.198157
0.197895
0.197632
0.197371
0.197107
0.196847
0.196585
0.196325
0.196063
0.195804
0.195543
0.195285
0.195024
0.194766
0.194506
0.194249
0.193989
0.193732
0.193473
0.193217
0.192958
0.192702
0.192444
0.192188
0.19193
0.191675
0.191418
0.191163
0.190906
0.190651
0.190394
0.19014
0.189884
0.18963
0.189374
0.189121
0.188866
0.188613
0.188358
0.188106
0.187852
0.187601
0.187348
0.187097
0.186845
0.186595
0.186343
0.186095
0.185844
0.185597
0.185347
0.1851
0.184852
0.184607
0.184359
0.184115
0.183869
0.183626
0.183381
0.183138
0.182894
0.182653
0.18241
0.18217
0.181928
0.181689
0.181447
0.181209
0.180968
0.18073
0.18049
0.180252
0.180013
0.179776
0.179537
0.1793
0.179062
0.178826
0.178587
0.178351
0.178113
0.177878
0.17764
0.177405
0.177167
0.176932
0.176695
0.176461
0.176224
0.175989
0.175753
0.175519
0.175283
0.175049
0.174814
0.17458
0.174345
0.174112
0.173877
0.173645
0.17341
0.173178
0.172944
0.172713
0.172479
0.172248
0.172015
0.171784
0.171551
0.171321
0.171089
0.170859
0.170627
0.170398
0.170166
0.169937
0.169706
0.169477
0.169247
0.169018
0.168788
0.16856
0.16833
0.168103
0.167873
0.167646
0.167417
0.16719
0.166961
0.166735
0.166506
0.16628
0.166052
0.165827
0.165599
0.165373
0.165146
0.164921
0.164694
0.164469
0.164242
0.164018
0.163791
0.163567
0.163341
0.163117
0.162892
0.162668
0.162443
0.16222
0.161994
0.161772
0.161546
0.161324
0.161099
0.160877
0.160653
0.160431
0.160207
0.159985
0.159761
0.15954
0.159316
0.159096
0.158872
0.158652
0.158428
0.158209
0.157985
0.157766
0.157543
0.157324
0.157101
0.156882
0.156659
0.156441
0.156218
0.156
0.155777
0.15556
0.155336
0.155121
0.154896
0.154682
0.154456
0.154242
0.154017
0.153804
0.153578
0.153365
0.15314
0.152926
0.152701
0.152488
0.152263
0.15205
0.151825
0.151612
0.151387
0.151174
0.15095
0.150737
0.150513
0.1503
0.150075
0.149863
0.149638
0.149427
0.149201
0.148992
0.148764
0.148558
0.148327
0.148126
0.147889
0.147695
0.147452
0.147265
0.147014
0.146836
0.146578
0.146409
0.146141
0.145982
0.145706
0.145556
0.145272
0.145131
0.144839
0.144707
0.144407
0.144284
0.143976
0.14386
0.143547
0.143438
0.14312
0.143015
0.142693
0.142592
0.142268
0.142169
0.141843
0.141747
0.141419
0.141325
0.140995
0.140902
0.140573
0.140479
0.14015
0.140056
0.139728
0.139633
0.139306
0.139211
0.138884
0.138788
0.138461
0.138365
0.138039
0.137942
0.137617
0.137519
0.137195
0.137096
0.136772
0.136673
0.136349
0.13625
0.135927
0.135827
0.135505
0.135404
0.135083
0.13498
0.134661
0.134557
0.134238
0.134134
0.133816
0.133711
0.133393
0.133288
0.132971
0.132864
0.132549
0.132441
0.132126
0.132018
0.131703
0.131595
0.13128
0.131172
0.130857
0.130749
0.130435
0.130325
0.130013
0.129901
0.12959
0.129477
0.129166
0.129054
0.128743
0.128629
0.12832
0.128205
0.127896
0.12778
0.127472
0.127356
0.127048
0.126931
0.126623
0.126506
0.126198
0.126081
0.125773
0.125655
0.125348
0.125229
0.124923
0.124803
0.124497
0.124378
0.0630259
)
;

boundaryField
{
    inlet
    {
        type            calculated;
        value           uniform 0.0976562;
    }
    outlet
    {
        type            calculated;
        value           uniform 0.0630259;
    }
    emptyWalls
    {
        type            empty;
    }
}


// ************************************************************************* //
