/*--------------------------------*- C++ -*----------------------------------*\
  =========                 |
  \\      /  F ield         | OpenFOAM: The Open Source CFD Toolbox
   \\    /   O peration     | Website:  https://openfoam.org
    \\  /    A nd           | Version:  9
     \\/     M anipulation  |
\*---------------------------------------------------------------------------*/
FoamFile
{
    format      ascii;
    class       volScalarField;
    location    "28750";
    object      Sa;
}
// * * * * * * * * * * * * * * * * * * * * * * * * * * * * * * * * * * * * * //

dimensions      [0 0 0 0 0 0 0];

internalField   nonuniform List<scalar> 
1000
(
0.549656
0.548877
0.547952
0.546942
0.545983
0.54499
0.544003
0.543015
0.54201
0.541002
0.539985
0.538955
0.537918
0.536876
0.535816
0.534771
0.533691
0.532655
0.531559
0.530546
0.529457
0.528473
0.527434
0.526484
0.525536
0.524651
0.523811
0.523034
0.522315
0.521667
0.521078
0.520555
0.520086
0.51967
0.519303
0.518943
0.518564
0.517738
0.515167
0.505255
0.452515
0.215369
0.0965682
0.0724551
0.0635052
0.0586781
0.0554884
0.053134
0.0512646
0.0496679
0.0482211
0.0468669
0.0455966
0.0444138
0.0433059
0.0422211
0.0412064
0.0402688
0.0394061
0.0386093
0.0378714
0.0371811
0.0365399
0.0359398
0.0353694
0.0348243
0.0343026
0.0338022
0.0333252
0.0328696
0.0324332
0.0320148
0.0316146
0.0312309
0.0308631
0.0305106
0.030172
0.0298477
0.0295353
0.0292365
0.0289477
0.0286711
0.0284036
0.0281469
0.0278964
0.0276545
0.0274217
0.0271981
0.0269831
0.0267772
0.0265795
0.0263904
0.026209
0.0260358
0.0258698
0.0257117
0.0255606
0.0254168
0.0252798
0.0251499
0.0250267
0.0249104
0.0248005
0.0246971
0.0245998
0.0245085
0.0244229
0.0243432
0.0242696
0.0242028
0.0241438
0.0240937
0.0240528
0.0240201
0.0239923
0.0239646
0.0239363
0.0239078
0.023879
0.0238502
0.0238212
0.023792
0.0237625
0.0237325
0.0237021
0.0236714
0.0236406
0.02361
0.0235796
0.0235496
0.0235204
0.0234923
0.023466
0.023442
0.0234206
0.0234019
0.0233856
0.0233712
0.0233581
0.0233456
0.0233333
0.0233209
0.023308
0.0232945
0.02328
0.0232642
0.0232466
0.0232269
0.0232045
0.0231791
0.0231506
0.0231189
0.0230843
0.0230471
0.0230078
0.0229671
0.0229255
0.0228837
0.0228422
0.0228017
0.0227622
0.0227244
0.0226881
0.0226537
0.0226209
0.0225899
0.0225603
0.0225322
0.0225051
0.022479
0.0224535
0.0224287
0.0224042
0.02238
0.0223558
0.0223317
0.0223075
0.0222833
0.0222589
0.0222345
0.0222099
0.0221854
0.0221606
0.0221359
0.0221111
0.0220865
0.0220617
0.0220371
0.0220124
0.0219881
0.0219636
0.0219395
0.0219152
0.0218914
0.0218674
0.0218439
0.0218202
0.021797
0.0217736
0.0217507
0.0217276
0.0217051
0.0216823
0.0216602
0.0216376
0.0216158
0.0215936
0.0215721
0.0215502
0.021529
0.0215073
0.0214864
0.0214651
0.0214445
0.0214234
0.0214033
0.0213825
0.0213627
0.0213422
0.0213228
0.0213026
0.0212835
0.0212636
0.0212448
0.0212251
0.0212066
0.0211871
0.0211687
0.0211494
0.0211313
0.0211123
0.0210945
0.0210757
0.0210583
0.0210398
0.0210227
0.0210044
0.0209877
0.0209696
0.020953
0.0209351
0.0209186
0.0209006
0.0208841
0.0208661
0.0208495
0.0208315
0.0208151
0.0207975
0.0207815
0.0207646
0.0207496
0.0207339
0.0207202
0.0207061
0.0206941
0.0206818
0.0206715
0.020661
0.0206524
0.0206435
0.0206363
0.0206287
0.0206223
0.0206154
0.0206093
0.0206023
0.0205958
0.0205881
0.0205803
0.0205709
0.0205611
0.0205495
0.0205372
0.0205228
0.0205075
0.0204902
0.020472
0.0204519
0.0204312
0.0204088
0.0203863
0.0203624
0.0203388
0.0203142
0.0202905
0.020266
0.0202429
0.0202191
0.0201971
0.0201745
0.0201539
0.0201327
0.0201136
0.0200937
0.0200761
0.0200573
0.0200409
0.020023
0.0200076
0.0199904
0.0199756
0.0199588
0.0199445
0.0199279
0.0199138
0.0198973
0.0198833
0.0198668
0.0198528
0.0198362
0.0198222
0.0198055
0.0197915
0.0197747
0.0197607
0.0197438
0.0197298
0.019713
0.019699
0.0196822
0.0196683
0.0196515
0.0196377
0.019621
0.0196073
0.0195908
0.0195772
0.0195608
0.0195474
0.0195311
0.0195179
0.0195018
0.0194887
0.0194727
0.0194598
0.019444
0.0194312
0.0194156
0.019403
0.0193876
0.0193752
0.0193599
0.0193476
0.0193325
0.0193205
0.0193055
0.0192937
0.0192789
0.0192672
0.0192526
0.0192411
0.0192267
0.0192154
0.0192011
0.0191899
0.0191758
0.0191648
0.0191508
0.0191399
0.0191261
0.0191153
0.0191017
0.0190911
0.0190776
0.0190672
0.0190538
0.0190435
0.0190303
0.0190202
0.0190071
0.018997
0.018984
0.0189741
0.0189611
0.0189512
0.0189384
0.0189285
0.0189157
0.018906
0.0188933
0.0188837
0.0188713
0.018862
0.01885
0.0188412
0.0188297
0.0188216
0.0188108
0.0188034
0.0187935
0.018787
0.0187779
0.0187724
0.0187642
0.0187596
0.0187523
0.0187484
0.0187419
0.0187386
0.0187325
0.0187296
0.0187237
0.0187208
0.0187148
0.0187115
0.018705
0.018701
0.0186936
0.0186886
0.0186799
0.0186736
0.0186634
0.0186556
0.0186438
0.0186343
0.018621
0.0186099
0.0185951
0.0185826
0.0185666
0.018553
0.018536
0.0185217
0.0185042
0.0184895
0.0184718
0.0184572
0.0184396
0.0184253
0.0184081
0.0183943
0.0183777
0.0183646
0.0183487
0.0183363
0.0183211
0.0183094
0.0182949
0.0182837
0.0182698
0.0182592
0.0182458
0.0182356
0.0182225
0.0182126
0.0181998
0.0181901
0.0181774
0.0181678
0.0181553
0.0181458
0.0181332
0.0181238
0.0181112
0.0181018
0.0180892
0.0180798
0.0180672
0.0180577
0.0180451
0.0180357
0.0180231
0.0180136
0.0180011
0.0179917
0.0179791
0.0179697
0.0179573
0.017948
0.0179356
0.0179263
0.017914
0.0179048
0.0178926
0.0178835
0.0178713
0.0178623
0.0178503
0.0178414
0.0178295
0.0178207
0.0178089
0.0178002
0.0177885
0.0177799
0.0177683
0.0177599
0.0177484
0.0177401
0.0177288
0.0177206
0.0177093
0.0177013
0.0176901
0.0176822
0.0176712
0.0176633
0.0176524
0.0176447
0.0176339
0.0176263
0.0176156
0.0176081
0.0175975
0.0175901
0.0175796
0.0175723
0.0175619
0.0175547
0.0175444
0.0175373
0.0175271
0.0175201
0.01751
0.017503
0.017493
0.0174861
0.0174762
0.0174694
0.0174594
0.0174527
0.0174429
0.0174362
0.0174265
0.0174199
0.0174103
0.0174039
0.0173945
0.0173883
0.0173791
0.0173732
0.0173643
0.0173588
0.0173503
0.0173452
0.0173371
0.0173325
0.017325
0.0173208
0.0173138
0.0173103
0.0173038
0.0173007
0.0172947
0.0172922
0.0172866
0.0172844
0.0172792
0.0172772
0.0172722
0.0172703
0.0172653
0.0172634
0.0172582
0.017256
0.0172505
0.0172478
0.0172418
0.0172385
0.0172317
0.0172277
0.01722
0.0172151
0.0172065
0.0172005
0.0171909
0.017184
0.0171735
0.0171656
0.0171542
0.0171455
0.0171332
0.0171239
0.017111
0.0171011
0.0170879
0.0170777
0.0170642
0.0170538
0.0170403
0.01703
0.0170166
0.0170065
0.0169933
0.0169835
0.0169707
0.0169612
0.0169487
0.0169397
0.0169276
0.0169189
0.0169073
0.016899
0.0168876
0.0168797
0.0168686
0.0168609
0.0168502
0.0168427
0.0168321
0.0168248
0.0168144
0.0168072
0.0167969
0.0167898
0.0167796
0.0167726
0.0167623
0.0167554
0.0167452
0.0167382
0.016728
0.0167211
0.0167109
0.016704
0.0166938
0.0166869
0.0166768
0.0166699
0.0166598
0.0166529
0.0166428
0.016636
0.0166259
0.0166191
0.0166091
0.0166023
0.0165924
0.0165857
0.0165758
0.0165692
0.0165593
0.0165528
0.016543
0.0165365
0.0165268
0.0165204
0.0165108
0.0165045
0.0164949
0.0164887
0.0164792
0.0164731
0.0164637
0.0164576
0.0164483
0.0164423
0.0164331
0.0164272
0.0164181
0.0164123
0.0164032
0.0163975
0.0163885
0.0163829
0.016374
0.0163684
0.0163596
0.0163541
0.0163454
0.01634
0.0163313
0.0163259
0.0163174
0.0163121
0.0163035
0.0162983
0.0162899
0.0162847
0.0162763
0.0162712
0.0162629
0.0162579
0.0162496
0.0162446
0.0162364
0.0162315
0.0162233
0.0162185
0.0162104
0.0162056
0.0161976
0.016193
0.0161851
0.0161806
0.0161729
0.0161686
0.016161
0.0161569
0.0161496
0.0161457
0.0161386
0.016135
0.0161283
0.016125
0.0161185
0.0161156
0.0161094
0.0161068
0.016101
0.0160987
0.0160933
0.0160913
0.0160861
0.0160844
0.0160795
0.016078
0.0160733
0.0160719
0.0160673
0.016066
0.0160613
0.01606
0.0160553
0.0160538
0.0160488
0.0160471
0.0160418
0.0160397
0.0160341
0.0160315
0.0160254
0.0160223
0.0160155
0.0160119
0.0160045
0.0160002
0.0159922
0.0159872
0.0159786
0.015973
0.0159637
0.0159575
0.0159477
0.0159411
0.0159308
0.0159237
0.0159131
0.0159057
0.0158948
0.0158872
0.0158762
0.0158685
0.0158575
0.0158498
0.0158387
0.0158311
0.0158202
0.0158128
0.0158021
0.0157948
0.0157843
0.0157773
0.015767
0.0157602
0.0157502
0.0157436
0.0157338
0.0157275
0.0157179
0.0157118
0.0157024
0.0156964
0.0156872
0.0156814
0.0156723
0.0156666
0.0156576
0.015652
0.0156431
0.0156375
0.0156287
0.0156232
0.0156144
0.015609
0.0156002
0.0155948
0.0155861
0.0155807
0.0155719
0.0155666
0.0155579
0.0155525
0.0155438
0.0155385
0.0155298
0.0155245
0.0155158
0.0155105
0.0155019
0.0154967
0.015488
0.0154828
0.0154742
0.0154691
0.0154605
0.0154554
0.0154469
0.0154418
0.0154333
0.0154283
0.0154199
0.0154149
0.0154066
0.0154016
0.0153933
0.0153885
0.0153802
0.0153754
0.0153672
0.0153625
0.0153544
0.0153497
0.0153416
0.015337
0.015329
0.0153245
0.0153165
0.015312
0.0153041
0.0152997
0.0152918
0.0152875
0.0152797
0.0152754
0.0152677
0.0152634
0.0152557
0.0152516
0.0152439
0.0152398
0.0152322
0.0152281
0.0152206
0.0152166
0.015209
0.0152051
0.0151976
0.0151938
0.0151863
0.0151825
0.0151751
0.0151713
0.015164
0.0151603
0.015153
0.0151493
0.0151421
0.0151386
0.0151315
0.015128
0.015121
0.0151176
0.0151107
0.0151074
0.0151007
0.0150976
0.0150911
0.0150881
0.0150817
0.0150789
0.0150728
0.0150702
0.0150642
0.0150618
0.0150561
0.015054
0.0150485
0.0150465
0.0150413
0.0150395
0.0150345
0.015033
0.0150281
0.0150267
0.015022
0.0150208
0.0150161
0.015015
0.0150104
0.0150092
0.0150046
0.0150035
0.0149988
0.0149977
0.0149929
0.0149917
0.0149867
0.0149854
0.01498
0.0149786
0.0149728
0.0149712
0.0149648
0.0149632
0.0149562
0.0149544
0.014947
0.0149445
0.0149369
0.0149337
0.0149259
0.014922
0.0149139
0.0149093
0.014901
0.0148958
0.0148873
0.0148816
0.0148729
0.0148668
0.014858
0.0148516
0.0148426
0.0148361
0.0148271
0.0148204
0.0148113
0.0148046
0.0147955
0.0147888
0.0147798
0.0147731
0.0147642
0.0147576
0.0147488
0.0147424
0.0147337
0.0147274
0.0147189
0.0147128
0.0147043
0.0146984
0.01469
0.0146843
0.014676
0.0146705
0.0146623
0.014657
0.0146488
0.0146436
0.0146354
0.0146304
0.0146223
0.0146174
0.0146092
0.0146046
0.0145962
0.0145918
0.0145834
0.0145791
0.0145706
0.0145664
0.0145579
0.0145538
0.0145452
0.0145412
0.0145325
0.0145287
0.0145199
0.0145162
0.0145073
0.0145036
0.0144947
0.0144912
0.0144822
0.0144787
0.0144697
0.0144663
0.0144573
0.014454
0.0144449
0.0144417
0.0144326
0.0144294
0.0144203
0.0144172
0.0144081
0.0144051
0.014396
0.0143931
0.0143839
0.0143811
0.014372
0.0143692
0.0143601
0.0143574
0.0143483
0.0143457
0.0143366
0.014334
0.0143249
0.0143225
0.0143134
0.014311
0.0143019
0.0142997
0.0142846
0.251373
)
;

boundaryField
{
    inlet
    {
        type            fixedValue;
        value           uniform 0.55;
    }
    outlet
    {
        type            zeroGradient;
    }
    emptyWalls
    {
        type            empty;
    }
}


// ************************************************************************* //
