/*--------------------------------*- C++ -*----------------------------------*\
  =========                 |
  \\      /  F ield         | OpenFOAM: The Open Source CFD Toolbox
   \\    /   O peration     | Website:  https://openfoam.org
    \\  /    A nd           | Version:  9
     \\/     M anipulation  |
\*---------------------------------------------------------------------------*/
FoamFile
{
    format      ascii;
    class       volScalarField;
    location    "28750";
    object      Sb;
}
// * * * * * * * * * * * * * * * * * * * * * * * * * * * * * * * * * * * * * //

dimensions      [0 0 0 0 0 0 0];

internalField   nonuniform List<scalar> 
1000
(
0.350159
0.350567
0.351006
0.351525
0.351993
0.352495
0.35299
0.353485
0.353994
0.354504
0.35502
0.355546
0.356076
0.356609
0.357158
0.357689
0.358257
0.35878
0.359367
0.359873
0.360464
0.360958
0.36152
0.362008
0.362514
0.36298
0.363427
0.363839
0.364223
0.364567
0.364882
0.36516
0.365411
0.365633
0.365828
0.366026
0.366219
0.366679
0.368047
0.373471
0.40402
0.561019
0.643601
0.659623
0.66534
0.668341
0.67027
0.671641
0.672687
0.67356
0.674354
0.675107
0.675817
0.676473
0.677082
0.677692
0.678253
0.678756
0.679201
0.679596
0.679947
0.680263
0.680542
0.680791
0.681021
0.681235
0.681434
0.681619
0.681789
0.681944
0.682086
0.682216
0.682332
0.682437
0.68253
0.682612
0.682683
0.682743
0.682793
0.682833
0.682864
0.682884
0.682897
0.682898
0.682892
0.682876
0.68285
0.682815
0.682771
0.682717
0.682654
0.682581
0.682499
0.682407
0.682305
0.682192
0.682069
0.681935
0.68179
0.681632
0.68146
0.681275
0.681074
0.680855
0.680616
0.680354
0.680065
0.679742
0.679379
0.678968
0.678499
0.677966
0.677367
0.676706
0.675996
0.675253
0.674487
0.673704
0.672911
0.67211
0.671305
0.670498
0.66969
0.668882
0.668075
0.667271
0.666468
0.665668
0.66487
0.664075
0.663283
0.662493
0.661704
0.660917
0.660131
0.659347
0.658563
0.657782
0.657003
0.656228
0.655456
0.654688
0.653925
0.653166
0.652412
0.651662
0.650919
0.650181
0.64945
0.648725
0.648007
0.647295
0.646591
0.645892
0.645199
0.644511
0.643827
0.643147
0.64247
0.641795
0.641123
0.640453
0.639784
0.639117
0.638452
0.637788
0.637126
0.636466
0.635808
0.635152
0.634499
0.633848
0.6332
0.632555
0.631913
0.631273
0.630637
0.630003
0.629373
0.628745
0.628121
0.627499
0.62688
0.626264
0.625651
0.62504
0.624433
0.623827
0.623225
0.622625
0.622027
0.621432
0.620839
0.620249
0.619661
0.619075
0.618492
0.617911
0.617333
0.616756
0.616182
0.61561
0.61504
0.614473
0.613907
0.613344
0.612783
0.612224
0.611667
0.611112
0.610559
0.610008
0.60946
0.608913
0.608368
0.607825
0.607284
0.606745
0.606208
0.605673
0.60514
0.604608
0.604079
0.603551
0.603025
0.602501
0.601979
0.601458
0.60094
0.600423
0.599908
0.599394
0.598883
0.598373
0.597865
0.597358
0.596854
0.59635
0.595849
0.595348
0.594851
0.594353
0.593859
0.593366
0.592875
0.592385
0.591897
0.59141
0.590926
0.590441
0.58996
0.589478
0.588998
0.588518
0.58804
0.587561
0.587085
0.586608
0.586132
0.585657
0.585183
0.584709
0.584237
0.583765
0.583295
0.582826
0.58236
0.581894
0.581431
0.580969
0.58051
0.580053
0.5796
0.579148
0.578699
0.578253
0.57781
0.577369
0.576931
0.576496
0.576063
0.575631
0.575202
0.574774
0.574349
0.573923
0.5735
0.573077
0.572655
0.572233
0.571813
0.571393
0.570974
0.570554
0.570136
0.569717
0.569301
0.568883
0.568468
0.568052
0.567639
0.567225
0.566813
0.566401
0.565991
0.565581
0.565174
0.564765
0.56436
0.563954
0.563551
0.563147
0.562747
0.562345
0.561947
0.561547
0.561151
0.560753
0.560359
0.559963
0.559571
0.559178
0.558788
0.558396
0.558008
0.557618
0.557232
0.556844
0.556459
0.556073
0.55569
0.555306
0.554925
0.554542
0.554163
0.553782
0.553405
0.553025
0.55265
0.552272
0.551898
0.551522
0.55115
0.550775
0.550405
0.550032
0.549663
0.549292
0.548924
0.548554
0.548188
0.54782
0.547456
0.547089
0.546726
0.546361
0.546
0.545636
0.545277
0.544915
0.544556
0.544196
0.543839
0.54348
0.543124
0.542767
0.542413
0.542057
0.541704
0.541349
0.540998
0.540645
0.540295
0.539943
0.539595
0.539245
0.538898
0.538549
0.538204
0.537856
0.537512
0.537166
0.536823
0.536478
0.536136
0.535792
0.535451
0.535108
0.534768
0.534425
0.534086
0.533744
0.533405
0.533063
0.532725
0.532384
0.532046
0.531706
0.531369
0.531029
0.530693
0.530355
0.53002
0.529682
0.529349
0.529013
0.528681
0.528348
0.528018
0.527687
0.527359
0.52703
0.526705
0.526379
0.526057
0.525733
0.525414
0.525093
0.524776
0.524457
0.524142
0.523826
0.523513
0.523199
0.522888
0.522575
0.522265
0.521953
0.521644
0.521333
0.521025
0.520715
0.520407
0.520097
0.51979
0.519481
0.519174
0.518865
0.518559
0.518251
0.517946
0.517638
0.517333
0.517026
0.516722
0.516415
0.516112
0.515807
0.515504
0.5152
0.514898
0.514595
0.514294
0.513991
0.513692
0.51339
0.513092
0.512791
0.512494
0.512194
0.511898
0.511599
0.511304
0.511006
0.510711
0.510414
0.510121
0.509825
0.509532
0.509237
0.508945
0.508651
0.50836
0.508067
0.507777
0.507484
0.507195
0.506903
0.506615
0.506324
0.506036
0.505746
0.505459
0.50517
0.504884
0.504595
0.50431
0.504022
0.503737
0.50345
0.503166
0.50288
0.502597
0.502311
0.502029
0.501744
0.501462
0.501178
0.500897
0.500614
0.500333
0.500051
0.499771
0.499489
0.49921
0.498929
0.498651
0.49837
0.498093
0.497813
0.497536
0.497257
0.496981
0.496702
0.496427
0.496149
0.495874
0.495597
0.495323
0.495047
0.494773
0.494497
0.494225
0.49395
0.493677
0.493403
0.493131
0.492858
0.492587
0.492313
0.492043
0.49177
0.4915
0.491228
0.490958
0.490686
0.490416
0.490145
0.489875
0.489604
0.489335
0.489063
0.488795
0.488524
0.488255
0.487984
0.487716
0.487445
0.487178
0.486907
0.48664
0.486371
0.486104
0.485835
0.485569
0.485301
0.485036
0.484769
0.484505
0.484239
0.483977
0.483712
0.483451
0.483188
0.482928
0.482666
0.482408
0.482147
0.48189
0.481631
0.481376
0.481118
0.480864
0.480607
0.480354
0.480098
0.479846
0.479591
0.47934
0.479086
0.478834
0.478581
0.47833
0.478077
0.477827
0.477574
0.477324
0.477071
0.476821
0.476569
0.476319
0.476067
0.475818
0.475566
0.475316
0.475065
0.474816
0.474564
0.474315
0.474064
0.473816
0.473565
0.473317
0.473067
0.472819
0.472569
0.472322
0.472072
0.471825
0.471576
0.47133
0.471081
0.470835
0.470587
0.470342
0.470094
0.469849
0.469602
0.469357
0.469111
0.468867
0.46862
0.468376
0.468131
0.467887
0.467642
0.467399
0.467154
0.466911
0.466667
0.466424
0.46618
0.465938
0.465694
0.465453
0.465209
0.464968
0.464725
0.464484
0.464241
0.464001
0.463759
0.463519
0.463276
0.463037
0.462795
0.462555
0.462314
0.462075
0.461834
0.461595
0.461354
0.461116
0.460875
0.460637
0.460397
0.460159
0.459919
0.459681
0.459442
0.459205
0.458965
0.458728
0.458489
0.458253
0.458014
0.457778
0.457539
0.457303
0.457065
0.456829
0.456591
0.456356
0.456118
0.455883
0.455646
0.455411
0.455174
0.45494
0.454703
0.454469
0.454232
0.453998
0.453762
0.453528
0.453292
0.453059
0.452823
0.452589
0.452354
0.45212
0.451885
0.451652
0.451416
0.451183
0.450947
0.450714
0.450479
0.450246
0.45001
0.449777
0.449542
0.449309
0.449074
0.448841
0.448605
0.448372
0.448137
0.447904
0.447669
0.447437
0.447202
0.44697
0.446735
0.446503
0.446269
0.446038
0.445804
0.445573
0.44534
0.44511
0.444877
0.444647
0.444416
0.444186
0.443955
0.443727
0.443497
0.443269
0.443039
0.442813
0.442584
0.442357
0.442129
0.441904
0.441676
0.441451
0.441224
0.441
0.440773
0.440549
0.440323
0.440099
0.439873
0.439649
0.439423
0.4392
0.438974
0.438751
0.438525
0.438302
0.438077
0.437853
0.437628
0.437404
0.437179
0.436956
0.43673
0.436507
0.436281
0.436058
0.435832
0.435609
0.435383
0.43516
0.434934
0.434711
0.434486
0.434263
0.434037
0.433814
0.433589
0.433366
0.433141
0.432918
0.432693
0.43247
0.432245
0.432022
0.431797
0.431575
0.43135
0.431128
0.430903
0.430681
0.430456
0.430234
0.430009
0.429787
0.429563
0.429341
0.429117
0.428895
0.428671
0.428449
0.428224
0.428003
0.427779
0.427557
0.427333
0.427111
0.426887
0.426665
0.426442
0.42622
0.425996
0.425774
0.425551
0.425329
0.425105
0.424884
0.42466
0.424438
0.424215
0.423993
0.423769
0.423548
0.423324
0.423102
0.422879
0.422657
0.422433
0.422212
0.421988
0.421767
0.421543
0.421321
0.421097
0.420876
0.420652
0.420431
0.420207
0.419985
0.419761
0.41954
0.419316
0.419095
0.41887
0.418649
0.418425
0.418204
0.417979
0.417758
0.417533
0.417312
0.417087
0.416867
0.416641
0.416421
0.416195
0.415975
0.415748
0.415529
0.415302
0.415083
0.414854
0.414637
0.414407
0.41419
0.41396
0.413742
0.413512
0.413294
0.413064
0.412846
0.412616
0.412397
0.412167
0.411949
0.411718
0.411499
0.411268
0.411049
0.410818
0.410599
0.410368
0.410148
0.409917
0.409697
0.409465
0.409246
0.409013
0.408796
0.40856
0.408346
0.408106
0.407897
0.407651
0.407448
0.407196
0.407001
0.40674
0.406554
0.406284
0.406107
0.405828
0.405661
0.405372
0.405215
0.404916
0.404769
0.404461
0.404323
0.404007
0.403877
0.403554
0.403432
0.403101
0.402985
0.402649
0.402538
0.402198
0.402091
0.401747
0.401643
0.401296
0.401195
0.400845
0.400745
0.400395
0.400295
0.399944
0.399844
0.399493
0.399393
0.399042
0.39894
0.39859
0.398488
0.398137
0.398034
0.397683
0.39758
0.397229
0.397124
0.396774
0.396668
0.396318
0.396212
0.395861
0.395755
0.395404
0.395297
0.394946
0.394838
0.394488
0.394378
0.394029
0.393917
0.393569
0.393456
0.393108
0.392995
0.392647
0.392532
0.392184
0.392069
0.391722
0.391605
0.391258
0.39114
0.390793
0.390675
0.390328
0.390209
0.389861
0.389742
0.389394
0.389274
0.388926
0.388804
0.388458
0.388334
0.387989
0.387864
0.387518
0.387392
0.387046
0.386919
0.386574
0.386446
0.386101
0.385971
0.385626
0.385495
0.385151
0.385019
0.384673
0.384542
0.384195
0.384064
0.383716
0.383583
0.383236
0.383102
0.382755
0.382619
0.382273
0.382138
0.292001
)
;

boundaryField
{
    inlet
    {
        type            fixedValue;
        value           uniform 0.35;
    }
    outlet
    {
        type            zeroGradient;
    }
    emptyWalls
    {
        type            empty;
    }
}


// ************************************************************************* //
