/*--------------------------------*- C++ -*----------------------------------*\
  =========                 |
  \\      /  F ield         | OpenFOAM: The Open Source CFD Toolbox
   \\    /   O peration     | Website:  https://openfoam.org
    \\  /    A nd           | Version:  9
     \\/     M anipulation  |
\*---------------------------------------------------------------------------*/
FoamFile
{
    format      ascii;
    class       volVectorField;
    location    "3900";
    object      Ub;
}
// * * * * * * * * * * * * * * * * * * * * * * * * * * * * * * * * * * * * * //

dimensions      [0 0 0 0 0 0 0];

internalField   nonuniform List<vector> 
1000
(
(1.13616e-05 0 0)
(1.13639e-05 0 0)
(1.13669e-05 0 0)
(1.1376e-05 0 0)
(1.14286e-05 0 0)
(1.16047e-05 0 0)
(1.17591e-05 0 0)
(1.17882e-05 0 0)
(1.17975e-05 0 0)
(1.18015e-05 0 0)
(1.1803e-05 0 0)
(1.18029e-05 0 0)
(1.18011e-05 0 0)
(1.17951e-05 0 0)
(1.1782e-05 0 0)
(1.17631e-05 0 0)
(1.17414e-05 0 0)
(1.17182e-05 0 0)
(1.16938e-05 0 0)
(1.16686e-05 0 0)
(1.16428e-05 0 0)
(1.16168e-05 0 0)
(1.15906e-05 0 0)
(1.15641e-05 0 0)
(1.15371e-05 0 0)
(1.15095e-05 0 0)
(1.1481e-05 0 0)
(1.14517e-05 0 0)
(1.14215e-05 0 0)
(1.13906e-05 0 0)
(1.13591e-05 0 0)
(1.13271e-05 0 0)
(1.12951e-05 0 0)
(1.1263e-05 0 0)
(1.12311e-05 0 0)
(1.11996e-05 0 0)
(1.11684e-05 0 0)
(1.11378e-05 0 0)
(1.11077e-05 0 0)
(1.10783e-05 0 0)
(1.10498e-05 0 0)
(1.10221e-05 0 0)
(1.09954e-05 0 0)
(1.09695e-05 0 0)
(1.09444e-05 0 0)
(1.09198e-05 0 0)
(1.08955e-05 0 0)
(1.0871e-05 0 0)
(1.08461e-05 0 0)
(1.08206e-05 0 0)
(1.07941e-05 0 0)
(1.07667e-05 0 0)
(1.07383e-05 0 0)
(1.07088e-05 0 0)
(1.06784e-05 0 0)
(1.06472e-05 0 0)
(1.06153e-05 0 0)
(1.05828e-05 0 0)
(1.055e-05 0 0)
(1.05169e-05 0 0)
(1.04836e-05 0 0)
(1.04502e-05 0 0)
(1.04168e-05 0 0)
(1.03833e-05 0 0)
(1.035e-05 0 0)
(1.03166e-05 0 0)
(1.02833e-05 0 0)
(1.02499e-05 0 0)
(1.02165e-05 0 0)
(1.01831e-05 0 0)
(1.01496e-05 0 0)
(1.0116e-05 0 0)
(1.00823e-05 0 0)
(1.00485e-05 0 0)
(1.00145e-05 0 0)
(9.9804e-06 0 0)
(9.9461e-06 0 0)
(9.91162e-06 0 0)
(9.87697e-06 0 0)
(9.84214e-06 0 0)
(9.80712e-06 0 0)
(9.77192e-06 0 0)
(9.73652e-06 0 0)
(9.70092e-06 0 0)
(9.66513e-06 0 0)
(9.62913e-06 0 0)
(9.59292e-06 0 0)
(9.5565e-06 0 0)
(9.51987e-06 0 0)
(9.48302e-06 0 0)
(9.44595e-06 0 0)
(9.40866e-06 0 0)
(9.37113e-06 0 0)
(9.33338e-06 0 0)
(9.29538e-06 0 0)
(9.25715e-06 0 0)
(9.21867e-06 0 0)
(9.17993e-06 0 0)
(9.14094e-06 0 0)
(9.10168e-06 0 0)
(9.06216e-06 0 0)
(9.02236e-06 0 0)
(8.98228e-06 0 0)
(8.94192e-06 0 0)
(8.90125e-06 0 0)
(8.8603e-06 0 0)
(8.81902e-06 0 0)
(8.77742e-06 0 0)
(8.7355e-06 0 0)
(8.69324e-06 0 0)
(8.65064e-06 0 0)
(8.60767e-06 0 0)
(8.56435e-06 0 0)
(8.52063e-06 0 0)
(8.47654e-06 0 0)
(8.43203e-06 0 0)
(8.38711e-06 0 0)
(8.34176e-06 0 0)
(8.29596e-06 0 0)
(8.2497e-06 0 0)
(8.20297e-06 0 0)
(8.15573e-06 0 0)
(8.10799e-06 0 0)
(8.05972e-06 0 0)
(8.0109e-06 0 0)
(7.96151e-06 0 0)
(7.91154e-06 0 0)
(7.86098e-06 0 0)
(7.80978e-06 0 0)
(7.75794e-06 0 0)
(7.70545e-06 0 0)
(7.65227e-06 0 0)
(7.59839e-06 0 0)
(7.54379e-06 0 0)
(7.48845e-06 0 0)
(7.43239e-06 0 0)
(7.3756e-06 0 0)
(7.31812e-06 0 0)
(7.25998e-06 0 0)
(7.20128e-06 0 0)
(7.14212e-06 0 0)
(7.08269e-06 0 0)
(7.02324e-06 0 0)
(6.96403e-06 0 0)
(6.90541e-06 0 0)
(6.84764e-06 0 0)
(6.79077e-06 0 0)
(6.7344e-06 0 0)
(6.67712e-06 0 0)
(6.61577e-06 0 0)
(6.54408e-06 0 0)
(6.4508e-06 0 0)
(6.31726e-06 0 0)
(6.11587e-06 0 0)
(5.81325e-06 0 0)
(5.38428e-06 0 0)
(4.83835e-06 0 0)
(4.23875e-06 0 0)
(3.68303e-06 0 0)
(3.24825e-06 0 0)
(2.95461e-06 0 0)
(2.77712e-06 0 0)
(2.67749e-06 0 0)
(2.62401e-06 0 0)
(2.59602e-06 0 0)
(2.58158e-06 0 0)
(2.57419e-06 0 0)
(2.57043e-06 0 0)
(2.56852e-06 0 0)
(2.56755e-06 0 0)
(2.56704e-06 0 0)
(2.56677e-06 0 0)
(2.56661e-06 0 0)
(2.56651e-06 0 0)
(2.56644e-06 0 0)
(2.56638e-06 0 0)
(2.56631e-06 0 0)
(2.56625e-06 0 0)
(2.56617e-06 0 0)
(2.5661e-06 0 0)
(2.56601e-06 0 0)
(2.56593e-06 0 0)
(2.56583e-06 0 0)
(2.56574e-06 0 0)
(2.56564e-06 0 0)
(2.56553e-06 0 0)
(2.56542e-06 0 0)
(2.56531e-06 0 0)
(2.5652e-06 0 0)
(2.56508e-06 0 0)
(2.56495e-06 0 0)
(2.56482e-06 0 0)
(2.56468e-06 0 0)
(2.56453e-06 0 0)
(2.56437e-06 0 0)
(2.56421e-06 0 0)
(2.56402e-06 0 0)
(2.56383e-06 0 0)
(2.56361e-06 0 0)
(2.56338e-06 0 0)
(2.56313e-06 0 0)
(2.56286e-06 0 0)
(2.56258e-06 0 0)
(2.56227e-06 0 0)
(2.56194e-06 0 0)
(2.5616e-06 0 0)
(2.56124e-06 0 0)
(2.56087e-06 0 0)
(2.56048e-06 0 0)
(2.56009e-06 0 0)
(2.5597e-06 0 0)
(2.55931e-06 0 0)
(2.55892e-06 0 0)
(2.55854e-06 0 0)
(2.55818e-06 0 0)
(2.55784e-06 0 0)
(2.55753e-06 0 0)
(2.55725e-06 0 0)
(2.55701e-06 0 0)
(2.55683e-06 0 0)
(2.55671e-06 0 0)
(2.55664e-06 0 0)
(2.55661e-06 0 0)
(2.55661e-06 0 0)
(2.55664e-06 0 0)
(2.55677e-06 0 0)
(2.55701e-06 0 0)
(2.55733e-06 0 0)
(2.55771e-06 0 0)
(2.55814e-06 0 0)
(2.55863e-06 0 0)
(2.55916e-06 0 0)
(2.55971e-06 0 0)
(2.56029e-06 0 0)
(2.56089e-06 0 0)
(2.56148e-06 0 0)
(2.56206e-06 0 0)
(2.56262e-06 0 0)
(2.56316e-06 0 0)
(2.56366e-06 0 0)
(2.56411e-06 0 0)
(2.56452e-06 0 0)
(2.56488e-06 0 0)
(2.56519e-06 0 0)
(2.56544e-06 0 0)
(2.56565e-06 0 0)
(2.5658e-06 0 0)
(2.56591e-06 0 0)
(2.56598e-06 0 0)
(2.56601e-06 0 0)
(2.56602e-06 0 0)
(2.56601e-06 0 0)
(2.56599e-06 0 0)
(2.56593e-06 0 0)
(2.56583e-06 0 0)
(2.56573e-06 0 0)
(2.56563e-06 0 0)
(2.56552e-06 0 0)
(2.56541e-06 0 0)
(2.56531e-06 0 0)
(2.56521e-06 0 0)
(2.56512e-06 0 0)
(2.56503e-06 0 0)
(2.56496e-06 0 0)
(2.56489e-06 0 0)
(2.56484e-06 0 0)
(2.56479e-06 0 0)
(2.56476e-06 0 0)
(2.56473e-06 0 0)
(2.56471e-06 0 0)
(2.5647e-06 0 0)
(2.56469e-06 0 0)
(2.56468e-06 0 0)
(2.56468e-06 0 0)
(2.56469e-06 0 0)
(2.56471e-06 0 0)
(2.56473e-06 0 0)
(2.56474e-06 0 0)
(2.56477e-06 0 0)
(2.56479e-06 0 0)
(2.56481e-06 0 0)
(2.56483e-06 0 0)
(2.56485e-06 0 0)
(2.56488e-06 0 0)
(2.5649e-06 0 0)
(2.56492e-06 0 0)
(2.56494e-06 0 0)
(2.56496e-06 0 0)
(2.56498e-06 0 0)
(2.56499e-06 0 0)
(2.56501e-06 0 0)
(2.56503e-06 0 0)
(2.56504e-06 0 0)
(2.56505e-06 0 0)
(2.56507e-06 0 0)
(2.56508e-06 0 0)
(2.56509e-06 0 0)
(2.5651e-06 0 0)
(2.56511e-06 0 0)
(2.56511e-06 0 0)
(2.56512e-06 0 0)
(2.56513e-06 0 0)
(2.56513e-06 0 0)
(2.56514e-06 0 0)
(2.56515e-06 0 0)
(2.56515e-06 0 0)
(2.56516e-06 0 0)
(2.56516e-06 0 0)
(2.56517e-06 0 0)
(2.56518e-06 0 0)
(2.56518e-06 0 0)
(2.56519e-06 0 0)
(2.5652e-06 0 0)
(2.56521e-06 0 0)
(2.56522e-06 0 0)
(2.56524e-06 0 0)
(2.56525e-06 0 0)
(2.56527e-06 0 0)
(2.56528e-06 0 0)
(2.5653e-06 0 0)
(2.56532e-06 0 0)
(2.56534e-06 0 0)
(2.56537e-06 0 0)
(2.56539e-06 0 0)
(2.56542e-06 0 0)
(2.56545e-06 0 0)
(2.56548e-06 0 0)
(2.56551e-06 0 0)
(2.56555e-06 0 0)
(2.56558e-06 0 0)
(2.56562e-06 0 0)
(2.56566e-06 0 0)
(2.5657e-06 0 0)
(2.56575e-06 0 0)
(2.56579e-06 0 0)
(2.56583e-06 0 0)
(2.56588e-06 0 0)
(2.56592e-06 0 0)
(2.56596e-06 0 0)
(2.56601e-06 0 0)
(2.56605e-06 0 0)
(2.5661e-06 0 0)
(2.56614e-06 0 0)
(2.56618e-06 0 0)
(2.56622e-06 0 0)
(2.56626e-06 0 0)
(2.5663e-06 0 0)
(2.56633e-06 0 0)
(2.56636e-06 0 0)
(2.5664e-06 0 0)
(2.56643e-06 0 0)
(2.56645e-06 0 0)
(2.56648e-06 0 0)
(2.5665e-06 0 0)
(2.56651e-06 0 0)
(2.56652e-06 0 0)
(2.56653e-06 0 0)
(2.56654e-06 0 0)
(2.56654e-06 0 0)
(2.56654e-06 0 0)
(2.56654e-06 0 0)
(2.56654e-06 0 0)
(2.56653e-06 0 0)
(2.56652e-06 0 0)
(2.5665e-06 0 0)
(2.56648e-06 0 0)
(2.56645e-06 0 0)
(2.56643e-06 0 0)
(2.56639e-06 0 0)
(2.56636e-06 0 0)
(2.56633e-06 0 0)
(2.56629e-06 0 0)
(2.56625e-06 0 0)
(2.56622e-06 0 0)
(2.56618e-06 0 0)
(2.56613e-06 0 0)
(2.56609e-06 0 0)
(2.56605e-06 0 0)
(2.566e-06 0 0)
(2.56596e-06 0 0)
(2.56592e-06 0 0)
(2.56587e-06 0 0)
(2.56583e-06 0 0)
(2.56578e-06 0 0)
(2.56574e-06 0 0)
(2.5657e-06 0 0)
(2.56566e-06 0 0)
(2.56562e-06 0 0)
(2.56558e-06 0 0)
(2.56554e-06 0 0)
(2.5655e-06 0 0)
(2.56546e-06 0 0)
(2.56542e-06 0 0)
(2.56537e-06 0 0)
(2.56533e-06 0 0)
(2.56529e-06 0 0)
(2.56524e-06 0 0)
(2.56519e-06 0 0)
(2.56514e-06 0 0)
(2.56509e-06 0 0)
(2.56502e-06 0 0)
(2.56496e-06 0 0)
(2.56488e-06 0 0)
(2.56479e-06 0 0)
(2.5647e-06 0 0)
(2.56459e-06 0 0)
(2.56447e-06 0 0)
(2.56434e-06 0 0)
(2.5642e-06 0 0)
(2.56404e-06 0 0)
(2.56386e-06 0 0)
(2.56367e-06 0 0)
(2.56346e-06 0 0)
(2.56324e-06 0 0)
(2.56299e-06 0 0)
(2.56274e-06 0 0)
(2.56246e-06 0 0)
(2.56217e-06 0 0)
(2.56186e-06 0 0)
(2.56154e-06 0 0)
(2.56121e-06 0 0)
(2.56088e-06 0 0)
(2.56053e-06 0 0)
(2.56018e-06 0 0)
(2.55983e-06 0 0)
(2.55947e-06 0 0)
(2.55912e-06 0 0)
(2.55878e-06 0 0)
(2.55845e-06 0 0)
(2.55813e-06 0 0)
(2.55784e-06 0 0)
(2.55757e-06 0 0)
(2.55732e-06 0 0)
(2.55711e-06 0 0)
(2.55694e-06 0 0)
(2.55681e-06 0 0)
(2.55673e-06 0 0)
(2.55669e-06 0 0)
(2.55668e-06 0 0)
(2.55667e-06 0 0)
(2.5567e-06 0 0)
(2.55683e-06 0 0)
(2.55706e-06 0 0)
(2.55733e-06 0 0)
(2.55766e-06 0 0)
(2.55803e-06 0 0)
(2.55844e-06 0 0)
(2.55889e-06 0 0)
(2.55936e-06 0 0)
(2.55985e-06 0 0)
(2.56036e-06 0 0)
(2.56087e-06 0 0)
(2.56138e-06 0 0)
(2.56188e-06 0 0)
(2.56236e-06 0 0)
(2.56283e-06 0 0)
(2.56327e-06 0 0)
(2.56367e-06 0 0)
(2.56404e-06 0 0)
(2.56438e-06 0 0)
(2.56467e-06 0 0)
(2.56493e-06 0 0)
(2.56516e-06 0 0)
(2.56534e-06 0 0)
(2.5655e-06 0 0)
(2.56562e-06 0 0)
(2.56571e-06 0 0)
(2.56577e-06 0 0)
(2.56581e-06 0 0)
(2.56583e-06 0 0)
(2.56584e-06 0 0)
(2.56583e-06 0 0)
(2.56582e-06 0 0)
(2.56579e-06 0 0)
(2.56573e-06 0 0)
(2.56568e-06 0 0)
(2.56561e-06 0 0)
(2.56555e-06 0 0)
(2.56549e-06 0 0)
(2.56543e-06 0 0)
(2.56537e-06 0 0)
(2.56532e-06 0 0)
(2.56527e-06 0 0)
(2.56523e-06 0 0)
(2.56519e-06 0 0)
(2.56516e-06 0 0)
(2.56514e-06 0 0)
(2.56512e-06 0 0)
(2.5651e-06 0 0)
(2.56509e-06 0 0)
(2.56509e-06 0 0)
(2.56509e-06 0 0)
(2.56509e-06 0 0)
(2.56509e-06 0 0)
(2.56511e-06 0 0)
(2.56513e-06 0 0)
(2.56515e-06 0 0)
(2.56517e-06 0 0)
(2.5652e-06 0 0)
(2.56523e-06 0 0)
(2.56526e-06 0 0)
(2.5653e-06 0 0)
(2.56534e-06 0 0)
(2.56537e-06 0 0)
(2.56541e-06 0 0)
(2.56545e-06 0 0)
(2.56549e-06 0 0)
(2.56553e-06 0 0)
(2.56557e-06 0 0)
(2.56561e-06 0 0)
(2.56565e-06 0 0)
(2.56569e-06 0 0)
(2.56573e-06 0 0)
(2.56577e-06 0 0)
(2.56581e-06 0 0)
(2.56585e-06 0 0)
(2.56589e-06 0 0)
(2.56592e-06 0 0)
(2.56596e-06 0 0)
(2.56599e-06 0 0)
(2.56602e-06 0 0)
(2.56605e-06 0 0)
(2.56608e-06 0 0)
(2.56611e-06 0 0)
(2.56614e-06 0 0)
(2.56617e-06 0 0)
(2.56619e-06 0 0)
(2.56621e-06 0 0)
(2.56623e-06 0 0)
(2.56625e-06 0 0)
(2.56627e-06 0 0)
(2.56628e-06 0 0)
(2.56629e-06 0 0)
(2.5663e-06 0 0)
(2.5663e-06 0 0)
(2.5663e-06 0 0)
(2.56631e-06 0 0)
(2.56631e-06 0 0)
(2.56631e-06 0 0)
(2.5663e-06 0 0)
(2.5663e-06 0 0)
(2.56628e-06 0 0)
(2.56627e-06 0 0)
(2.56625e-06 0 0)
(2.56624e-06 0 0)
(2.56622e-06 0 0)
(2.5662e-06 0 0)
(2.56618e-06 0 0)
(2.56615e-06 0 0)
(2.56612e-06 0 0)
(2.5661e-06 0 0)
(2.56607e-06 0 0)
(2.56604e-06 0 0)
(2.56602e-06 0 0)
(2.56599e-06 0 0)
(2.56596e-06 0 0)
(2.56593e-06 0 0)
(2.56591e-06 0 0)
(2.56588e-06 0 0)
(2.56586e-06 0 0)
(2.56584e-06 0 0)
(2.56582e-06 0 0)
(2.5658e-06 0 0)
(2.56578e-06 0 0)
(2.56577e-06 0 0)
(2.56575e-06 0 0)
(2.56574e-06 0 0)
(2.56574e-06 0 0)
(2.56573e-06 0 0)
(2.56573e-06 0 0)
(2.56573e-06 0 0)
(2.56573e-06 0 0)
(2.56573e-06 0 0)
(2.56574e-06 0 0)
(2.56575e-06 0 0)
(2.56576e-06 0 0)
(2.56577e-06 0 0)
(2.56579e-06 0 0)
(2.5658e-06 0 0)
(2.56582e-06 0 0)
(2.56584e-06 0 0)
(2.56586e-06 0 0)
(2.56587e-06 0 0)
(2.56589e-06 0 0)
(2.56591e-06 0 0)
(2.56593e-06 0 0)
(2.56595e-06 0 0)
(2.56596e-06 0 0)
(2.56598e-06 0 0)
(2.56599e-06 0 0)
(2.566e-06 0 0)
(2.56601e-06 0 0)
(2.56601e-06 0 0)
(2.56602e-06 0 0)
(2.56602e-06 0 0)
(2.56602e-06 0 0)
(2.56602e-06 0 0)
(2.56601e-06 0 0)
(2.56599e-06 0 0)
(2.56597e-06 0 0)
(2.56595e-06 0 0)
(2.56592e-06 0 0)
(2.56589e-06 0 0)
(2.56585e-06 0 0)
(2.56581e-06 0 0)
(2.56575e-06 0 0)
(2.5657e-06 0 0)
(2.56563e-06 0 0)
(2.56556e-06 0 0)
(2.56548e-06 0 0)
(2.56539e-06 0 0)
(2.5653e-06 0 0)
(2.56519e-06 0 0)
(2.56507e-06 0 0)
(2.56495e-06 0 0)
(2.56481e-06 0 0)
(2.56467e-06 0 0)
(2.56451e-06 0 0)
(2.56434e-06 0 0)
(2.56417e-06 0 0)
(2.56398e-06 0 0)
(2.56378e-06 0 0)
(2.56357e-06 0 0)
(2.56334e-06 0 0)
(2.56311e-06 0 0)
(2.56287e-06 0 0)
(2.56262e-06 0 0)
(2.56236e-06 0 0)
(2.5621e-06 0 0)
(2.56184e-06 0 0)
(2.56156e-06 0 0)
(2.56129e-06 0 0)
(2.56102e-06 0 0)
(2.56075e-06 0 0)
(2.56048e-06 0 0)
(2.56024e-06 0 0)
(2.56001e-06 0 0)
(2.55976e-06 0 0)
(2.55953e-06 0 0)
(2.5594e-06 0 0)
(2.55955e-06 0 0)
(2.56043e-06 0 0)
(2.57181e-06 0 0)
(2.617e-06 0 0)
(2.79581e-06 0 0)
(2.95353e-06 0 0)
(2.9671e-06 0 0)
(2.96726e-06 0 0)
(2.96727e-06 0 0)
(2.96727e-06 0 0)
(2.96727e-06 0 0)
(2.96727e-06 0 0)
(2.96727e-06 0 0)
(2.96727e-06 0 0)
(2.96727e-06 0 0)
(2.96727e-06 0 0)
(2.96727e-06 0 0)
(2.96727e-06 0 0)
(2.96727e-06 0 0)
(2.96727e-06 0 0)
(2.96727e-06 0 0)
(2.96727e-06 0 0)
(2.96727e-06 0 0)
(2.96727e-06 0 0)
(2.96727e-06 0 0)
(2.96727e-06 0 0)
(2.96727e-06 0 0)
(2.96727e-06 0 0)
(2.96727e-06 0 0)
(2.96727e-06 0 0)
(2.96727e-06 0 0)
(2.96727e-06 0 0)
(2.96727e-06 0 0)
(2.96727e-06 0 0)
(2.96727e-06 0 0)
(2.96727e-06 0 0)
(2.96727e-06 0 0)
(2.96727e-06 0 0)
(2.96727e-06 0 0)
(2.96727e-06 0 0)
(2.96727e-06 0 0)
(2.96727e-06 0 0)
(2.96727e-06 0 0)
(2.96727e-06 0 0)
(2.96727e-06 0 0)
(2.96727e-06 0 0)
(2.96727e-06 0 0)
(2.96727e-06 0 0)
(2.96727e-06 0 0)
(2.96727e-06 0 0)
(2.96727e-06 0 0)
(2.96727e-06 0 0)
(2.96727e-06 0 0)
(2.96727e-06 0 0)
(2.96727e-06 0 0)
(2.96727e-06 0 0)
(2.96727e-06 0 0)
(2.96727e-06 0 0)
(2.96727e-06 0 0)
(2.96727e-06 0 0)
(2.96727e-06 0 0)
(2.96727e-06 0 0)
(2.96727e-06 0 0)
(2.96727e-06 0 0)
(2.96727e-06 0 0)
(2.96727e-06 0 0)
(2.96727e-06 0 0)
(2.96727e-06 0 0)
(2.96727e-06 0 0)
(2.96727e-06 0 0)
(2.96727e-06 0 0)
(2.96727e-06 0 0)
(2.96727e-06 0 0)
(2.96727e-06 0 0)
(2.96727e-06 0 0)
(2.96727e-06 0 0)
(2.96727e-06 0 0)
(2.96727e-06 0 0)
(2.96727e-06 0 0)
(2.96727e-06 0 0)
(2.96727e-06 0 0)
(2.96727e-06 0 0)
(2.96727e-06 0 0)
(2.96727e-06 0 0)
(2.96727e-06 0 0)
(2.96727e-06 0 0)
(2.96727e-06 0 0)
(2.96727e-06 0 0)
(2.96727e-06 0 0)
(2.96727e-06 0 0)
(2.96727e-06 0 0)
(2.96727e-06 0 0)
(2.96727e-06 0 0)
(2.96727e-06 0 0)
(2.96727e-06 0 0)
(2.96727e-06 0 0)
(2.96727e-06 0 0)
(2.96727e-06 0 0)
(2.96727e-06 0 0)
(2.96727e-06 0 0)
(2.96727e-06 0 0)
(2.96727e-06 0 0)
(2.96727e-06 0 0)
(2.96727e-06 0 0)
(2.96727e-06 0 0)
(2.96727e-06 0 0)
(2.96727e-06 0 0)
(2.96727e-06 0 0)
(2.96727e-06 0 0)
(2.96727e-06 0 0)
(2.96727e-06 0 0)
(2.96727e-06 0 0)
(2.96727e-06 0 0)
(2.96727e-06 0 0)
(2.96727e-06 0 0)
(2.96727e-06 0 0)
(2.96727e-06 0 0)
(2.96727e-06 0 0)
(2.96727e-06 0 0)
(2.96727e-06 0 0)
(2.96727e-06 0 0)
(2.96727e-06 0 0)
(2.96727e-06 0 0)
(2.96727e-06 0 0)
(2.96727e-06 0 0)
(2.96727e-06 0 0)
(2.96727e-06 0 0)
(2.96727e-06 0 0)
(2.96727e-06 0 0)
(2.96727e-06 0 0)
(2.96727e-06 0 0)
(2.96727e-06 0 0)
(2.96727e-06 0 0)
(2.96727e-06 0 0)
(2.96727e-06 0 0)
(2.96727e-06 0 0)
(2.96727e-06 0 0)
(2.96727e-06 0 0)
(2.96727e-06 0 0)
(2.96727e-06 0 0)
(2.96727e-06 0 0)
(2.96727e-06 0 0)
(2.96727e-06 0 0)
(2.96727e-06 0 0)
(2.96727e-06 0 0)
(2.96727e-06 0 0)
(2.96727e-06 0 0)
(2.96727e-06 0 0)
(2.96727e-06 0 0)
(2.96727e-06 0 0)
(2.96727e-06 0 0)
(2.96727e-06 0 0)
(2.96727e-06 0 0)
(2.96727e-06 0 0)
(2.96727e-06 0 0)
(2.96727e-06 0 0)
(2.96727e-06 0 0)
(2.96727e-06 0 0)
(2.96727e-06 0 0)
(2.96727e-06 0 0)
(2.96727e-06 0 0)
(2.96727e-06 0 0)
(2.96727e-06 0 0)
(2.96727e-06 0 0)
(2.96727e-06 0 0)
(2.96727e-06 0 0)
(2.96727e-06 0 0)
(2.96727e-06 0 0)
(2.96727e-06 0 0)
(2.96727e-06 0 0)
(2.96727e-06 0 0)
(2.96727e-06 0 0)
(2.96727e-06 0 0)
(2.96727e-06 0 0)
(2.96727e-06 0 0)
(2.96727e-06 0 0)
(2.96727e-06 0 0)
(2.96727e-06 0 0)
(2.96727e-06 0 0)
(2.96727e-06 0 0)
(2.96727e-06 0 0)
(2.96727e-06 0 0)
(2.96727e-06 0 0)
(2.96727e-06 0 0)
(2.96727e-06 0 0)
(2.96727e-06 0 0)
(2.96727e-06 0 0)
(2.96727e-06 0 0)
(2.96727e-06 0 0)
(2.96727e-06 0 0)
(2.96727e-06 0 0)
(2.96727e-06 0 0)
(2.96727e-06 0 0)
(2.96727e-06 0 0)
(2.96727e-06 0 0)
(2.96727e-06 0 0)
(2.96727e-06 0 0)
(2.96727e-06 0 0)
(2.96727e-06 0 0)
(2.96727e-06 0 0)
(2.96727e-06 0 0)
(2.96727e-06 0 0)
(2.96727e-06 0 0)
(2.96727e-06 0 0)
(2.96727e-06 0 0)
(2.96727e-06 0 0)
(2.96727e-06 0 0)
(2.96727e-06 0 0)
(2.96727e-06 0 0)
(2.96727e-06 0 0)
(2.96727e-06 0 0)
(2.96727e-06 0 0)
(2.96727e-06 0 0)
(2.96727e-06 0 0)
(2.96727e-06 0 0)
(2.96727e-06 0 0)
(2.96727e-06 0 0)
(2.96727e-06 0 0)
(2.96727e-06 0 0)
(2.96727e-06 0 0)
(2.96727e-06 0 0)
(2.96727e-06 0 0)
(2.96727e-06 0 0)
(2.96727e-06 0 0)
(2.96727e-06 0 0)
(2.96727e-06 0 0)
(2.96727e-06 0 0)
(2.96727e-06 0 0)
(2.96727e-06 0 0)
(2.96727e-06 0 0)
(2.96727e-06 0 0)
(2.96727e-06 0 0)
(2.96727e-06 0 0)
(2.96727e-06 0 0)
(2.96727e-06 0 0)
(2.96727e-06 0 0)
(2.96727e-06 0 0)
(2.96727e-06 0 0)
(2.96727e-06 0 0)
(2.96727e-06 0 0)
(2.96727e-06 0 0)
(2.96727e-06 0 0)
(2.96727e-06 0 0)
(2.96727e-06 0 0)
(2.96727e-06 0 0)
(2.96727e-06 0 0)
(2.96727e-06 0 0)
(2.96727e-06 0 0)
(2.96727e-06 0 0)
(2.96727e-06 0 0)
(2.96727e-06 0 0)
(2.96727e-06 0 0)
(2.96727e-06 0 0)
(2.96727e-06 0 0)
(2.96727e-06 0 0)
(2.96727e-06 0 0)
(2.96727e-06 0 0)
(2.96727e-06 0 0)
(2.96727e-06 0 0)
(2.96727e-06 0 0)
(2.96727e-06 0 0)
(2.96727e-06 0 0)
(2.96727e-06 0 0)
(2.96727e-06 0 0)
(2.96727e-06 0 0)
(2.96727e-06 0 0)
(2.96727e-06 0 0)
(2.96727e-06 0 0)
(2.96727e-06 0 0)
(2.96727e-06 0 0)
(2.96727e-06 0 0)
(2.96727e-06 0 0)
(2.96727e-06 0 0)
(2.96727e-06 0 0)
(2.96727e-06 0 0)
(2.96727e-06 0 0)
(2.96727e-06 0 0)
(2.96727e-06 0 0)
(2.96727e-06 0 0)
(2.96727e-06 0 0)
(2.96727e-06 0 0)
(2.96727e-06 0 0)
(2.96727e-06 0 0)
(2.96727e-06 0 0)
(2.96727e-06 0 0)
(2.96727e-06 0 0)
(2.96727e-06 0 0)
(2.96727e-06 0 0)
(2.96727e-06 0 0)
(2.96727e-06 0 0)
(2.96727e-06 0 0)
(2.96727e-06 0 0)
(2.96727e-06 0 0)
(2.96727e-06 0 0)
(2.96727e-06 0 0)
(2.96727e-06 0 0)
(2.96727e-06 0 0)
(2.96727e-06 0 0)
(2.96727e-06 0 0)
(2.96727e-06 0 0)
(2.96727e-06 0 0)
(2.96727e-06 0 0)
(2.96727e-06 0 0)
(2.96727e-06 0 0)
(2.96727e-06 0 0)
(2.96727e-06 0 0)
(2.96727e-06 0 0)
(2.96727e-06 0 0)
(2.96727e-06 0 0)
(2.96727e-06 0 0)
(2.96727e-06 0 0)
(2.96727e-06 0 0)
(2.96727e-06 0 0)
(2.96727e-06 0 0)
(2.96727e-06 0 0)
(2.96727e-06 0 0)
(2.96727e-06 0 0)
(2.96727e-06 0 0)
(2.96727e-06 0 0)
(2.96727e-06 0 0)
(2.96727e-06 0 0)
(2.96727e-06 0 0)
(2.96727e-06 0 0)
(2.96727e-06 0 0)
(2.96727e-06 0 0)
(2.96727e-06 0 0)
(2.96727e-06 0 0)
(2.96727e-06 0 0)
(2.96727e-06 0 0)
(2.96727e-06 0 0)
(2.96727e-06 0 0)
(2.96727e-06 0 0)
(2.96727e-06 0 0)
(2.96727e-06 0 0)
(2.96727e-06 0 0)
(2.96727e-06 0 0)
(2.96727e-06 0 0)
(2.96727e-06 0 0)
(2.96727e-06 0 0)
(2.96727e-06 0 0)
(2.96727e-06 0 0)
(2.96727e-06 0 0)
(2.96727e-06 0 0)
(2.96727e-06 0 0)
(2.96727e-06 0 0)
(2.96727e-06 0 0)
(2.96727e-06 0 0)
(2.96727e-06 0 0)
(2.96727e-06 0 0)
(2.96727e-06 0 0)
(2.96727e-06 0 0)
(2.96727e-06 0 0)
(2.96727e-06 0 0)
(2.96727e-06 0 0)
(2.96727e-06 0 0)
(2.96727e-06 0 0)
(2.96727e-06 0 0)
(2.96727e-06 0 0)
(2.96727e-06 0 0)
(2.96727e-06 0 0)
)
;

boundaryField
{
    inlet
    {
        type            fixedValue;
        value           uniform (1.13622e-05 0 0);
    }
    outlet
    {
        type            zeroGradient;
    }
    emptyWalls
    {
        type            empty;
    }
}


// ************************************************************************* //
