/*--------------------------------*- C++ -*----------------------------------*\
  =========                 |
  \\      /  F ield         | OpenFOAM: The Open Source CFD Toolbox
   \\    /   O peration     | Website:  https://openfoam.org
    \\  /    A nd           | Version:  9
     \\/     M anipulation  |
\*---------------------------------------------------------------------------*/
FoamFile
{
    format      ascii;
    class       volScalarField;
    location    "2850";
    object      p;
}
// * * * * * * * * * * * * * * * * * * * * * * * * * * * * * * * * * * * * * //

dimensions      [0 0 0 0 0 0 0];

internalField   nonuniform List<scalar> 
1000
(
281857
281452
281080
280789
280657
280568
280485
280403
280321
280239
280157
280073
279987
279899
279809
279717
279623
279527
279429
279329
279227
279123
279017
278910
278800
278689
278576
278461
278345
278226
278106
277985
277861
277736
277610
277482
277352
277220
277087
276953
276817
276679
276540
276399
276257
276113
275968
275821
275673
275523
275372
275219
275065
274910
274753
274594
274434
274273
274110
273946
273780
273613
273445
273275
273104
272932
272758
272582
272405
272227
272048
271867
271684
271501
271316
271129
270941
270752
270562
270370
270176
269982
269786
269588
269389
269189
268987
268784
268580
268374
268167
267958
267748
267536
267323
267109
266893
266676
266457
266237
266015
265792
265567
265341
265113
264884
264654
264422
264188
263953
263715
263475
263230
262979
262721
262456
262186
261912
261636
261359
261082
260805
260527
260250
259973
259696
259418
259141
258864
258587
258310
258033
257756
257479
257203
256926
256649
256373
256096
255819
255543
255266
254989
254713
254436
254159
253882
253605
253328
253051
252774
252497
252219
251942
251664
251387
251109
250831
250553
250275
249998
249720
249442
249164
248886
248608
248330
248052
247774
247496
247218
246940
246662
246385
246107
245829
245551
245273
244996
244718
244440
244162
243885
243607
243329
243052
242774
242496
242218
241941
241663
241385
241108
240830
240552
240274
239997
239719
239441
239163
238886
238608
238330
238052
237775
237497
237219
236941
236664
236386
236108
235830
235552
235275
234997
234719
234441
234163
233885
233608
233330
233052
232774
232496
232218
231941
231663
231385
231107
230829
230551
230273
229996
229718
229440
229162
228884
228606
228328
228051
227773
227495
227217
226939
226661
226383
226105
225828
225550
225272
224994
224716
224438
224160
223883
223605
223327
223049
222771
222494
222216
221938
221660
221382
221105
220827
220549
220271
219993
219716
219438
219160
218882
218604
218327
218049
217771
217493
217215
216938
216660
216382
216104
215826
215549
215271
214993
214715
214437
214159
213882
213604
213326
213048
212770
212492
212215
211937
211659
211381
211103
210825
210547
210270
209992
209714
209436
209158
208880
208603
208325
208047
207769
207491
207214
206936
206658
206380
206103
205825
205547
205269
204992
204714
204436
204159
203881
203604
203326
203049
202771
202494
202216
201939
201662
201384
201107
200830
200553
200276
199998
199721
199444
199167
198890
198613
198336
198060
197783
197506
197229
196952
196675
196398
196121
195844
195566
195289
195012
194734
194457
194179
193901
193624
193346
193068
192790
192512
192233
191955
191677
191399
191120
190842
190564
190285
190007
189728
189450
189172
188893
188615
188337
188058
187780
187502
187224
186945
186667
186389
186111
185833
185555
185276
184998
184720
184442
184164
183886
183608
183330
183052
182774
182496
182218
181940
181662
181384
181106
180828
180550
180272
179994
179716
179438
179160
178882
178604
178326
178048
177770
177491
177213
176935
176657
176379
176101
175823
175545
175267
174989
174711
174433
174155
173877
173599
173321
173043
172765
172486
172208
171930
171652
171374
171096
170818
170540
170262
169983
169705
169427
169149
168871
168593
168314
168036
167758
167480
167202
166923
166645
166367
166089
165810
165532
165254
164976
164697
164419
164141
163863
163584
163306
163028
162748
162465
162158
161848
161538
161228
160918
160609
160299
159989
159679
159370
159060
158750
158440
158131
157821
157511
157201
156892
156582
156272
155962
155653
155343
155033
154723
154413
154104
153794
153484
153174
152865
152555
152245
151935
151626
151316
151006
150696
150387
150077
149767
149457
149148
148838
148528
148218
147909
147599
147289
146979
146670
146360
146050
145740
145431
145121
144811
144501
144192
143882
143572
143262
142953
142643
142333
142023
141713
141404
141094
140784
140474
140165
139855
139545
139235
138926
138616
138306
137996
137687
137377
137067
136757
136448
136138
135828
135518
135209
134899
134589
134279
133970
133660
133350
133040
132731
132421
132111
131801
131492
131182
130872
130562
130252
129943
129633
129323
129013
128704
128394
128084
127774
127465
127155
126845
126535
126226
125916
125606
125296
124987
124677
124367
124057
123748
123438
123128
122818
122509
122199
121889
121579
121270
120960
120650
120340
120031
119721
119411
119101
118792
118482
118172
117862
117552
117243
116933
116623
116313
116004
115694
115384
115074
114765
114455
114145
113835
113526
113216
112906
112596
112287
111977
111667
111357
111048
110738
110428
110118
109809
109499
109189
108879
108570
108260
107950
107640
107331
107021
106711
106401
106092
105782
105472
105162
104852
104543
104233
103923
103613
103304
102994
102684
102374
102065
101755
101445
101135
100826
100516
100206
99896.4
99586.6
99276.9
98967.1
98657.4
98347.6
98037.8
97728.1
97418.3
97108.6
96798.8
96489.1
96179.3
95869.6
95559.8
95250
94940.3
94630.5
94320.8
94011
93701.3
93391.5
93081.7
92772
92462.2
92152.5
91842.7
91533
91223.2
90913.5
90603.7
90293.9
89984.2
89674.4
89364.7
89054.9
88745.2
88435.4
88125.6
87815.9
87506.1
87196.4
86886.6
86576.9
86267.1
85957.4
85647.6
85337.8
85028.1
84718.3
84408.6
84098.8
83789.1
83479.3
83169.5
82859.8
82550
82240.3
81930.5
81620.8
81311
81001.3
80691.5
80381.7
80072
79762.2
79452.5
79142.7
78833
78523.2
78213.4
77903.7
77593.9
77284.2
76974.4
76664.7
76354.9
76045.2
75735.4
75425.6
75115.9
74806.1
74496.4
74186.6
73876.9
73567.1
73257.3
72947.6
72637.8
72328.1
72018.3
71708.6
71398.8
71089.1
70779.3
70469.5
70159.8
69850
69540.3
69230.5
68920.8
68611
68301.2
67991.5
67681.7
67372
67062.2
66752.5
66442.7
66133
65823.2
65513.4
65203.7
64893.9
64584.2
64274.4
63964.7
63654.9
63345.1
63035.4
62725.6
62415.9
62106.1
61796.4
61486.6
61176.9
60867.1
60557.3
60247.6
59937.8
59628.1
59318.3
59008.6
58698.8
58389
58079.3
57769.5
57459.8
57150
56840.3
56530.5
56220.8
55911
55601.2
55291.5
54981.7
54672
54362.2
54052.5
53742.7
53432.9
53123.2
52813.4
52503.7
52193.9
51884.2
51574.4
51264.7
50954.9
50645.1
50335.4
50025.6
49715.9
49406.1
49096.4
48786.6
48476.9
48167.1
47857.3
47547.6
47237.8
46928.1
46618.3
46308.6
45998.8
45689
45379.3
45069.5
44759.8
44450
44140.3
43830.5
43520.8
43211
42901.2
42591.5
42281.7
41972
41662.2
41352.5
41042.7
40732.9
40423.2
40113.4
39803.7
39493.9
39184.2
38874.4
38564.7
38254.9
37945.1
37635.4
37325.6
37015.9
36706.1
36396.4
36086.6
35776.8
35467.1
35157.3
34847.6
34537.8
34228.1
33918.3
33608.6
33298.8
32989
32679.3
32369.5
32059.8
31750
31440.3
31130.5
30820.7
30511
30201.2
29891.5
29581.7
29272
28962.2
28652.5
28342.7
28032.9
27723.2
27413.4
27103.7
26793.9
26484.2
26174.4
25864.6
25554.9
25245.1
24935.4
24625.6
24315.9
24006.1
23696.4
23386.6
23076.8
22767.1
22457.3
22147.6
21837.8
21528.1
21218.3
20908.5
20598.8
20289
19979.3
19669.5
19359.8
19050
18740.3
18430.5
18120.7
17811
17501.2
17191.5
16881.7
16572
16262.2
15952.4
15642.7
15332.9
15023.2
14713.4
14403.7
14093.9
13784.2
13474.4
13164.6
12854.9
12545.1
12235.4
11925.6
11615.9
11306.1
10996.3
10686.6
10376.8
10067.1
9757.32
9447.57
9137.81
8828.05
8518.3
8208.54
7898.78
7589.03
7279.27
6969.52
6659.76
6350
6040.25
5730.49
5420.73
5110.98
4801.22
4491.47
4181.71
3871.95
3562.2
3252.44
2942.68
2632.93
2323.17
2013.42
1703.66
1393.9
1084.15
774.391
464.634
154.878
)
;

boundaryField
{
    inlet
    {
        type            darcyGradPressure;
        gradient        uniform 116344;
        Mf              Mf;
        phi             phi;
        value           uniform 282070;
    }
    outlet
    {
        type            fixedValue;
        value           uniform 0;
    }
    emptyWalls
    {
        type            empty;
    }
}


// ************************************************************************* //
