/*--------------------------------*- C++ -*----------------------------------*\
  =========                 |
  \\      /  F ield         | OpenFOAM: The Open Source CFD Toolbox
   \\    /   O peration     | Website:  https://openfoam.org
    \\  /    A nd           | Version:  9
     \\/     M anipulation  |
\*---------------------------------------------------------------------------*/
FoamFile
{
    format      ascii;
    class       volScalarField;
    location    "9150";
    object      Fa;
}
// * * * * * * * * * * * * * * * * * * * * * * * * * * * * * * * * * * * * * //

dimensions      [0 0 0 0 0 0 0];

internalField   nonuniform List<scalar> 
1000
(
0.194793
0.194778
0.194723
0.194636
0.194599
0.194331
0.194466
0.193958
0.194318
0.193687
0.193803
0.19192
0.178321
0.155441
0.151604
0.150128
0.149247
0.148616
0.148116
0.147687
0.147337
0.147014
0.146743
0.146521
0.14628
0.146116
0.145899
0.14578
0.145589
0.145441
0.145299
0.145176
0.145056
0.144963
0.14489
0.144864
0.144837
0.144809
0.14478
0.144749
0.144718
0.144687
0.144657
0.144626
0.144597
0.144569
0.144541
0.144514
0.144488
0.144463
0.144438
0.144415
0.144393
0.144372
0.144352
0.144333
0.144314
0.144297
0.14428
0.144264
0.144249
0.144233
0.144219
0.144204
0.144189
0.144174
0.144158
0.144141
0.144123
0.144105
0.144086
0.144072
0.14406
0.144054
0.144049
0.14405
0.144049
0.144051
0.144052
0.144056
0.144064
0.144081
0.14411
0.144156
0.14422
0.144304
0.14441
0.144534
0.144675
0.14483
0.144995
0.145166
0.145337
0.145505
0.145662
0.145804
0.145922
0.146012
0.146066
0.146081
0.146052
0.145977
0.145858
0.145697
0.145499
0.14527
0.145019
0.144756
0.144488
0.144225
0.143975
0.143743
0.143534
0.14335
0.143194
0.143064
0.142959
0.142877
0.142815
0.14277
0.142738
0.142715
0.142698
0.142686
0.142674
0.142662
0.142648
0.142631
0.142609
0.142583
0.142553
0.142519
0.14248
0.142438
0.142393
0.142345
0.142294
0.142242
0.142189
0.142134
0.142079
0.142022
0.141966
0.141909
0.141852
0.141795
0.141738
0.141682
0.141626
0.14157
0.141514
0.141459
0.141405
0.141351
0.141299
0.141247
0.141196
0.141146
0.141097
0.141049
0.141003
0.140957
0.140913
0.140869
0.140826
0.140785
0.140744
0.140704
0.140665
0.140627
0.14059
0.140553
0.140517
0.140481
0.140446
0.140412
0.140378
0.140344
0.140312
0.140279
0.140247
0.140216
0.140184
0.140154
0.140123
0.140093
0.140063
0.140034
0.140005
0.139976
0.139948
0.13992
0.139893
0.139866
0.139839
0.139813
0.139787
0.139762
0.139737
0.139712
0.139688
0.139664
0.13964
0.139617
0.139594
0.139571
0.139548
0.139526
0.139503
0.139481
0.139459
0.139436
0.139415
0.139393
0.139372
0.139351
0.139331
0.139311
0.139292
0.139274
0.139257
0.13924
0.139225
0.139211
0.139199
0.139188
0.13918
0.139175
0.139173
0.139174
0.13918
0.139191
0.139207
0.139229
0.139256
0.13929
0.139331
0.139378
0.139432
0.139491
0.139556
0.139626
0.1397
0.139777
0.139855
0.139934
0.140012
0.140087
0.140158
0.140223
0.140279
0.140326
0.140361
0.140383
0.140391
0.140383
0.140358
0.140316
0.140258
0.140182
0.140091
0.139984
0.139864
0.139731
0.139589
0.13944
0.139285
0.139127
0.138968
0.13881
0.138656
0.138507
0.138364
0.138229
0.138103
0.137985
0.137876
0.137777
0.137686
0.137604
0.13753
0.137464
0.137402
0.13735
0.137298
0.137256
0.13721
0.137175
0.137132
0.137102
0.13706
0.137032
0.136989
0.13696
0.136917
0.136884
0.136842
0.136803
0.136762
0.136717
0.136676
0.136627
0.136585
0.136534
0.136488
0.136437
0.136387
0.136337
0.136283
0.136234
0.136179
0.136127
0.136074
0.136019
0.135967
0.135911
0.135858
0.135803
0.135748
0.135695
0.135639
0.135586
0.135531
0.135477
0.135424
0.135369
0.135316
0.135262
0.135208
0.135156
0.135103
0.135051
0.134999
0.134947
0.134898
0.134846
0.134797
0.134748
0.134699
0.134653
0.134605
0.13456
0.134516
0.134472
0.134431
0.13439
0.134352
0.134316
0.134281
0.13425
0.13422
0.134194
0.134169
0.134147
0.134129
0.134111
0.134097
0.134081
0.134066
0.134048
0.134019
0.133977
0.133902
0.133779
0.133574
0.133253
0.132803
0.132263
0.131756
0.13139
0.131183
0.131082
0.131036
0.131018
0.131009
0.13101
0.131011
0.131015
0.131021
0.131025
0.131031
0.131037
0.131043
0.131049
0.131056
0.131063
0.13107
0.131077
0.131084
0.131092
0.131099
0.131107
0.131116
0.131124
0.131133
0.131142
0.131151
0.131161
0.131171
0.131182
0.131193
0.131204
0.131216
0.131229
0.131243
0.131257
0.131272
0.131288
0.131305
0.131324
0.131343
0.131364
0.131387
0.131412
0.131438
0.131467
0.131497
0.13153
0.131566
0.131603
0.131644
0.131687
0.131733
0.131782
0.131834
0.131889
0.131946
0.132006
0.132069
0.132134
0.132201
0.132269
0.13234
0.132411
0.132483
0.132555
0.132627
0.132698
0.132769
0.132836
0.132902
0.132964
0.133023
0.133077
0.133126
0.133169
0.133205
0.133235
0.133257
0.133271
0.133277
0.133278
0.133278
0.133275
0.133254
0.133222
0.133183
0.133136
0.133084
0.133026
0.132964
0.132897
0.132826
0.132753
0.132678
0.132602
0.132526
0.132451
0.132377
0.132304
0.132234
0.132167
0.132103
0.132044
0.131988
0.131936
0.131888
0.131845
0.131806
0.131771
0.13174
0.131713
0.131689
0.131668
0.131651
0.131636
0.131623
0.131612
0.131604
0.131596
0.13159
0.131585
0.13158
0.131576
0.131572
0.131568
0.131564
0.13156
0.131555
0.131551
0.131545
0.131539
0.131533
0.131526
0.131518
0.13151
0.131501
0.131492
0.131482
0.131471
0.13146
0.131449
0.131437
0.131425
0.131412
0.131399
0.131386
0.131373
0.131359
0.131345
0.131332
0.131318
0.131303
0.131289
0.131275
0.131261
0.131247
0.131233
0.131219
0.131204
0.13119
0.131177
0.131163
0.131149
0.131136
0.131122
0.131109
0.131096
0.131083
0.131071
0.131059
0.131047
0.131035
0.131024
0.131012
0.131002
0.130991
0.130981
0.130972
0.130962
0.130953
0.130945
0.130937
0.13093
0.130922
0.130916
0.13091
0.130904
0.130899
0.130894
0.13089
0.130887
0.130884
0.130881
0.130879
0.130877
0.130876
0.130876
0.130875
0.130875
0.130875
0.130876
0.130877
0.130879
0.130882
0.130884
0.130887
0.130891
0.130895
0.130899
0.130903
0.130908
0.130913
0.130919
0.130924
0.13093
0.130937
0.130943
0.13095
0.130957
0.130964
0.130972
0.130979
0.130988
0.130996
0.131004
0.131013
0.131022
0.131031
0.131041
0.131051
0.131061
0.131072
0.131083
0.131094
0.131106
0.131119
0.131132
0.131145
0.131159
0.131174
0.13119
0.131206
0.131223
0.131241
0.131261
0.131281
0.131303
0.131326
0.13135
0.131376
0.131403
0.131432
0.131463
0.131495
0.13153
0.131566
0.131604
0.131645
0.131687
0.131732
0.131778
0.131827
0.131877
0.131929
0.131984
0.132039
0.132096
0.132155
0.132214
0.132274
0.132335
0.132396
0.132457
0.132517
0.132577
0.132635
0.132692
0.132747
0.1328
0.132849
0.132896
0.132938
0.132977
0.133011
0.133041
0.133065
0.133084
0.133098
0.133105
0.133107
0.133107
0.133106
0.133099
0.133078
0.133051
0.133019
0.132981
0.132939
0.132893
0.132843
0.13279
0.132734
0.132676
0.132617
0.132556
0.132495
0.132434
0.132374
0.132315
0.132257
0.132201
0.132147
0.132095
0.132046
0.132
0.131956
0.131916
0.131878
0.131844
0.131812
0.131783
0.131757
0.131733
0.131711
0.131691
0.131674
0.131658
0.131644
0.131631
0.131619
0.131608
0.131597
0.131588
0.131578
0.131569
0.131561
0.131552
0.131543
0.131534
0.131525
0.131515
0.131505
0.131495
0.131484
0.131473
0.131461
0.131449
0.131437
0.131424
0.131411
0.131397
0.131383
0.131369
0.131355
0.13134
0.131325
0.13131
0.131295
0.131279
0.131264
0.131248
0.131233
0.131217
0.131202
0.131186
0.131171
0.131156
0.13114
0.131125
0.13111
0.131096
0.131081
0.131067
0.131053
0.131039
0.131025
0.131012
0.130999
0.130986
0.130974
0.130961
0.13095
0.130938
0.130927
0.130917
0.130906
0.130897
0.130887
0.130879
0.13087
0.130863
0.130855
0.130849
0.130843
0.130837
0.130832
0.130828
0.130824
0.130821
0.130818
0.130816
0.130815
0.130815
0.130814
0.130814
0.130815
0.130816
0.130819
0.130821
0.130825
0.130829
0.130834
0.130839
0.130845
0.130851
0.130858
0.130865
0.130873
0.130881
0.130889
0.130898
0.130907
0.130917
0.130926
0.130936
0.130947
0.130958
0.130969
0.13098
0.130992
0.131003
0.131015
0.131028
0.13104
0.131053
0.131066
0.131079
0.131093
0.131106
0.131121
0.131135
0.13115
0.131165
0.131181
0.131196
0.131213
0.13123
0.131248
0.131266
0.131285
0.131304
0.131325
0.131346
0.131368
0.131392
0.131416
0.131441
0.131468
0.131495
0.131524
0.131554
0.131586
0.131619
0.131654
0.131689
0.131727
0.131766
0.131806
0.131848
0.131891
0.131935
0.131981
0.132028
0.132076
0.132125
0.132175
0.132225
0.132276
0.132328
0.132379
0.13243
0.132481
0.132531
0.132581
0.132629
0.132675
0.13272
0.132763
0.132804
0.132842
0.132876
0.132908
0.132936
0.132961
0.132982
0.132998
0.13301
0.133018
0.133021
0.133021
0.133021
0.133018
0.133004
0.132985
0.132961
0.132933
0.132901
0.132865
0.132826
0.132784
0.132739
0.132692
0.132644
0.132593
0.132542
0.13249
0.132438
0.132386
0.132335
0.132284
0.132235
0.132187
0.13214
0.132096
0.132053
0.132013
0.131974
0.131938
0.131905
0.131873
0.131844
0.131817
0.131792
0.131769
0.131748
0.131728
0.131711
0.131694
0.131679
0.131666
0.131653
0.131641
0.13163
0.131619
0.131609
0.131599
0.13159
0.13158
0.131571
0.131561
0.131552
0.131542
0.131532
0.131522
0.131511
0.1315
0.131489
0.131477
0.131466
0.131453
0.131441
0.131428
0.131415
0.131401
0.131387
0.131373
0.131359
0.131345
0.131331
0.131316
0.131302
0.131287
0.131273
0.131258
0.131244
0.13123
0.131216
0.131202
0.131188
0.131175
0.131162
0.131149
0.131136
0.131123
0.131111
0.131099
0.131088
0.131077
0.131066
0.131055
0.131045
0.131035
0.131026
0.131017
0.131008
0.131
0.130992
0.130984
0.130977
0.13097
0.130964
0.130957
0.130952
0.130946
0.130942
0.130937
0.130933
0.130929
0.130926
0.130923
0.13092
0.130918
0.130917
0.130916
0.130915
0.130915
0.130915
0.130916
0.130917
0.130917
0.13092
0.130921
0.130925
0.130926
0.130932
0.130934
0.130941
0.130943
0.130962
)
;

boundaryField
{
    inlet
    {
        type            calculated;
        value           uniform 0.194831;
    }
    outlet
    {
        type            calculated;
        value           uniform 0.130953;
    }
    emptyWalls
    {
        type            empty;
    }
}


// ************************************************************************* //
