/*--------------------------------*- C++ -*----------------------------------*\
  =========                 |
  \\      /  F ield         | OpenFOAM: The Open Source CFD Toolbox
   \\    /   O peration     | Website:  https://openfoam.org
    \\  /    A nd           | Version:  9
     \\/     M anipulation  |
\*---------------------------------------------------------------------------*/
FoamFile
{
    format      ascii;
    class       volScalarField;
    location    "9150";
    object      krc;
}
// * * * * * * * * * * * * * * * * * * * * * * * * * * * * * * * * * * * * * //

dimensions      [0 0 0 0 0 0 0];

internalField   nonuniform List<scalar> 
1000
(
6.53726e-07
7.04652e-06
2.31819e-05
4.67991e-05
7.70003e-05
0.000112128
0.000149726
0.00018725
0.00022441
0.000273166
0.0004089
0.0010449
0.00835367
0.0349777
0.0436741
0.046852
0.0486256
0.0498701
0.0508537
0.0516757
0.0523902
0.0530176
0.0535836
0.0540997
0.054586
0.0550522
0.0555132
0.0559768
0.056476
0.0570053
0.0575716
0.0582015
0.0589348
0.0598204
0.0608977
0.0621692
0.0635945
0.0651205
0.0667089
0.0683358
0.069986
0.0716497
0.0733203
0.0749934
0.0766659
0.0783357
0.0800012
0.0816612
0.0833151
0.0849621
0.0866019
0.0882342
0.0898586
0.0914751
0.0930834
0.0946836
0.0962755
0.0978592
0.0994346
0.101002
0.102561
0.104112
0.105655
0.107189
0.108716
0.110235
0.111746
0.113249
0.114745
0.116233
0.117714
0.119187
0.120653
0.122111
0.123563
0.125007
0.126444
0.127874
0.129298
0.130714
0.132124
0.133528
0.134925
0.136315
0.137699
0.139077
0.140448
0.141814
0.143173
0.144526
0.145873
0.147214
0.14855
0.14988
0.151205
0.152524
0.153838
0.155146
0.15645
0.157748
0.159042
0.160331
0.161615
0.162895
0.16417
0.165441
0.166707
0.167968
0.169225
0.170478
0.171726
0.172969
0.174209
0.175443
0.176674
0.1779
0.179122
0.18034
0.181554
0.182763
0.183969
0.185171
0.186369
0.187563
0.188754
0.189941
0.191124
0.192304
0.193481
0.194654
0.195824
0.196991
0.198154
0.199314
0.200471
0.201625
0.202776
0.203924
0.205069
0.20621
0.20735
0.208486
0.209619
0.21075
0.211877
0.213002
0.214125
0.215245
0.216362
0.217477
0.218589
0.219699
0.220806
0.221911
0.223013
0.224114
0.225211
0.226307
0.227401
0.228492
0.229581
0.230668
0.231753
0.232836
0.233917
0.234996
0.236073
0.237148
0.238221
0.239292
0.240362
0.24143
0.242496
0.24356
0.244623
0.245684
0.246743
0.247801
0.248858
0.249912
0.250966
0.252018
0.253068
0.254117
0.255165
0.256211
0.257257
0.2583
0.259343
0.260385
0.261425
0.262464
0.263502
0.264539
0.265575
0.26661
0.267644
0.268676
0.269708
0.27074
0.27177
0.272799
0.273828
0.274856
0.275883
0.276909
0.277935
0.27896
0.279984
0.281008
0.282031
0.283053
0.284076
0.285097
0.286118
0.287139
0.28816
0.28918
0.290199
0.291219
0.292238
0.293257
0.294275
0.295294
0.296312
0.29733
0.298348
0.299366
0.300384
0.301402
0.30242
0.303437
0.304455
0.305473
0.306491
0.307509
0.308527
0.309545
0.310563
0.311582
0.312601
0.31362
0.31464
0.31566
0.31668
0.317701
0.318723
0.319745
0.320768
0.321792
0.322817
0.323843
0.324869
0.325898
0.326927
0.327957
0.328989
0.330023
0.331058
0.332094
0.333132
0.334172
0.335213
0.336256
0.337301
0.338347
0.339395
0.340445
0.341496
0.342549
0.343604
0.34466
0.345718
0.346778
0.34784
0.348903
0.349968
0.351035
0.352104
0.353175
0.354248
0.355324
0.356402
0.357482
0.358564
0.359649
0.360737
0.361827
0.36292
0.364016
0.365115
0.366217
0.367322
0.36843
0.369542
0.370657
0.371776
0.372898
0.374024
0.375154
0.376288
0.377426
0.378567
0.379713
0.380864
0.382018
0.383177
0.384341
0.38551
0.386684
0.387862
0.389045
0.390234
0.391428
0.392627
0.393832
0.395043
0.39626
0.397483
0.398711
0.399946
0.401187
0.402434
0.403688
0.404948
0.406216
0.40749
0.40877
0.410057
0.411351
0.412651
0.413957
0.415269
0.416586
0.417909
0.419235
0.420563
0.421893
0.423223
0.42455
0.425872
0.427184
0.428484
0.429765
0.431023
0.432252
0.433444
0.434593
0.435691
0.436731
0.437706
0.438611
0.439443
0.440201
0.440888
0.441512
0.44209
0.442656
0.443263
0.444009
0.44506
0.446703
0.449426
0.454028
0.461727
0.47414
0.492826
0.518129
0.547753
0.576876
0.600762
0.617451
0.627778
0.633673
0.636879
0.638576
0.639461
0.639919
0.640155
0.640276
0.640338
0.640369
0.640385
0.640393
0.640397
0.640399
0.640399
0.640399
0.640399
0.640399
0.640398
0.640397
0.640397
0.640396
0.640395
0.640394
0.640394
0.640393
0.640392
0.640391
0.64039
0.640389
0.640388
0.640387
0.640386
0.640385
0.640383
0.640382
0.64038
0.640379
0.640377
0.640375
0.640373
0.640371
0.640369
0.640367
0.640364
0.640361
0.640358
0.640355
0.640352
0.640348
0.640344
0.64034
0.640336
0.640331
0.640326
0.640321
0.640316
0.640311
0.640305
0.640299
0.640294
0.640288
0.640282
0.640276
0.64027
0.640264
0.640259
0.640253
0.640248
0.640243
0.640239
0.640235
0.640231
0.640228
0.640225
0.640223
0.640222
0.640221
0.640221
0.640222
0.640222
0.640223
0.640225
0.640229
0.640232
0.640237
0.640242
0.640247
0.640253
0.640259
0.640266
0.640272
0.640279
0.640286
0.640293
0.6403
0.640307
0.640313
0.64032
0.640326
0.640331
0.640337
0.640342
0.640347
0.640351
0.640355
0.640358
0.640362
0.640365
0.640367
0.640369
0.640371
0.640373
0.640375
0.640376
0.640377
0.640378
0.640378
0.640379
0.64038
0.64038
0.640381
0.640381
0.640381
0.640382
0.640382
0.640383
0.640383
0.640384
0.640384
0.640385
0.640385
0.640386
0.640386
0.640387
0.640388
0.640389
0.640389
0.64039
0.640391
0.640392
0.640393
0.640394
0.640395
0.640396
0.640397
0.640398
0.640399
0.6404
0.640401
0.640402
0.640403
0.640404
0.640405
0.640407
0.640408
0.640409
0.64041
0.640411
0.640412
0.640413
0.640414
0.640415
0.640416
0.640417
0.640418
0.640419
0.64042
0.640421
0.640422
0.640423
0.640424
0.640424
0.640425
0.640426
0.640427
0.640428
0.640428
0.640429
0.64043
0.640431
0.640431
0.640432
0.640432
0.640433
0.640433
0.640434
0.640434
0.640434
0.640435
0.640435
0.640435
0.640435
0.640436
0.640436
0.640436
0.640436
0.640436
0.640436
0.640436
0.640436
0.640436
0.640435
0.640435
0.640435
0.640435
0.640434
0.640434
0.640434
0.640433
0.640433
0.640432
0.640432
0.640431
0.640431
0.64043
0.64043
0.640429
0.640429
0.640428
0.640428
0.640427
0.640427
0.640426
0.640425
0.640425
0.640424
0.640423
0.640423
0.640422
0.640421
0.64042
0.640419
0.640418
0.640417
0.640416
0.640415
0.640413
0.640412
0.64041
0.640409
0.640407
0.640405
0.640403
0.640401
0.640399
0.640396
0.640394
0.640391
0.640389
0.640386
0.640383
0.64038
0.640377
0.640374
0.64037
0.640367
0.640363
0.640359
0.640355
0.640351
0.640347
0.640343
0.640338
0.640333
0.640329
0.640324
0.640319
0.640314
0.640309
0.640303
0.640298
0.640293
0.640288
0.640284
0.640279
0.640274
0.64027
0.640266
0.640262
0.640258
0.640255
0.640252
0.64025
0.640248
0.640246
0.640245
0.640245
0.640245
0.640245
0.640245
0.640246
0.640247
0.64025
0.640252
0.640256
0.640259
0.640263
0.640268
0.640272
0.640277
0.640282
0.640287
0.640292
0.640297
0.640303
0.640308
0.640313
0.640318
0.640323
0.640327
0.640332
0.640336
0.64034
0.640344
0.640347
0.64035
0.640353
0.640356
0.640358
0.640361
0.640363
0.640365
0.640367
0.640368
0.640369
0.640371
0.640372
0.640373
0.640374
0.640375
0.640376
0.640376
0.640377
0.640378
0.640379
0.640379
0.64038
0.640381
0.640382
0.640383
0.640384
0.640384
0.640385
0.640386
0.640387
0.640388
0.64039
0.640391
0.640392
0.640393
0.640394
0.640395
0.640397
0.640398
0.640399
0.640401
0.640402
0.640403
0.640404
0.640406
0.640407
0.640408
0.64041
0.640411
0.640412
0.640413
0.640415
0.640416
0.640417
0.640418
0.64042
0.640421
0.640422
0.640423
0.640424
0.640425
0.640426
0.640428
0.640429
0.64043
0.640431
0.640432
0.640432
0.640433
0.640434
0.640435
0.640436
0.640436
0.640437
0.640438
0.640438
0.640439
0.640439
0.64044
0.64044
0.64044
0.640441
0.640441
0.640441
0.640441
0.640441
0.640441
0.640441
0.640441
0.640441
0.640441
0.64044
0.64044
0.64044
0.640439
0.640439
0.640439
0.640438
0.640437
0.640437
0.640436
0.640436
0.640435
0.640434
0.640433
0.640433
0.640432
0.640431
0.64043
0.640429
0.640428
0.640427
0.640426
0.640425
0.640424
0.640423
0.640422
0.640421
0.64042
0.640419
0.640418
0.640416
0.640415
0.640414
0.640413
0.640411
0.64041
0.640408
0.640407
0.640405
0.640404
0.640402
0.6404
0.640399
0.640397
0.640395
0.640393
0.640391
0.640389
0.640387
0.640384
0.640382
0.640379
0.640377
0.640374
0.640371
0.640368
0.640365
0.640362
0.640359
0.640355
0.640352
0.640348
0.640344
0.64034
0.640336
0.640332
0.640328
0.640324
0.64032
0.640316
0.640311
0.640307
0.640303
0.640298
0.640294
0.64029
0.640286
0.640282
0.640278
0.640275
0.640271
0.640268
0.640265
0.640262
0.64026
0.640258
0.640256
0.640255
0.640254
0.640253
0.640253
0.640253
0.640253
0.640253
0.640255
0.640256
0.640258
0.640261
0.640263
0.640266
0.64027
0.640273
0.640277
0.640281
0.640285
0.640289
0.640294
0.640298
0.640303
0.640307
0.640311
0.640316
0.64032
0.640324
0.640328
0.640332
0.640335
0.640339
0.640342
0.640345
0.640348
0.640351
0.640353
0.640355
0.640358
0.640359
0.640361
0.640363
0.640364
0.640366
0.640367
0.640368
0.640369
0.64037
0.640371
0.640372
0.640373
0.640374
0.640375
0.640376
0.640376
0.640377
0.640378
0.640379
0.64038
0.64038
0.640381
0.640382
0.640383
0.640384
0.640385
0.640386
0.640387
0.640389
0.64039
0.640391
0.640392
0.640393
0.640394
0.640396
0.640397
0.640398
0.640399
0.6404
0.640402
0.640403
0.640404
0.640405
0.640407
0.640408
0.640409
0.64041
0.640411
0.640412
0.640413
0.640414
0.640415
0.640416
0.640417
0.640418
0.640419
0.64042
0.640421
0.640422
0.640423
0.640423
0.640424
0.640425
0.640426
0.640426
0.640427
0.640427
0.640428
0.640428
0.640429
0.640429
0.64043
0.64043
0.640431
0.640431
0.640431
0.640431
0.640432
0.640432
0.640432
0.640432
0.640432
0.640432
0.640432
0.640432
0.640432
0.640432
0.640432
0.640432
0.640431
0.640431
0.640431
0.64043
0.64043
0.64043
0.640428
)
;

boundaryField
{
    inlet
    {
        type            calculated;
        value           uniform 3.08149e-33;
    }
    outlet
    {
        type            calculated;
        value           uniform 0.640428;
    }
    emptyWalls
    {
        type            empty;
    }
}


// ************************************************************************* //
