/*--------------------------------*- C++ -*----------------------------------*\
  =========                 |
  \\      /  F ield         | OpenFOAM: The Open Source CFD Toolbox
   \\    /   O peration     | Website:  https://openfoam.org
    \\  /    A nd           | Version:  9
     \\/     M anipulation  |
\*---------------------------------------------------------------------------*/
FoamFile
{
    format      ascii;
    class       volVectorField;
    location    "9150";
    object      Ub;
}
// * * * * * * * * * * * * * * * * * * * * * * * * * * * * * * * * * * * * * //

dimensions      [0 0 0 0 0 0 0];

internalField   nonuniform List<vector> 
1000
(
(1.1362e-05 0 0)
(1.13624e-05 0 0)
(1.13628e-05 0 0)
(1.13632e-05 0 0)
(1.13641e-05 0 0)
(1.13649e-05 0 0)
(1.13659e-05 0 0)
(1.1367e-05 0 0)
(1.13677e-05 0 0)
(1.13691e-05 0 0)
(1.13733e-05 0 0)
(1.13921e-05 0 0)
(1.15295e-05 0 0)
(1.16975e-05 0 0)
(1.17556e-05 0 0)
(1.17728e-05 0 0)
(1.17814e-05 0 0)
(1.1787e-05 0 0)
(1.17912e-05 0 0)
(1.17946e-05 0 0)
(1.17973e-05 0 0)
(1.17994e-05 0 0)
(1.18011e-05 0 0)
(1.18025e-05 0 0)
(1.18036e-05 0 0)
(1.18044e-05 0 0)
(1.1805e-05 0 0)
(1.18053e-05 0 0)
(1.18052e-05 0 0)
(1.18048e-05 0 0)
(1.18039e-05 0 0)
(1.18024e-05 0 0)
(1.18001e-05 0 0)
(1.17965e-05 0 0)
(1.17913e-05 0 0)
(1.17844e-05 0 0)
(1.17764e-05 0 0)
(1.17677e-05 0 0)
(1.17585e-05 0 0)
(1.1749e-05 0 0)
(1.17392e-05 0 0)
(1.17292e-05 0 0)
(1.1719e-05 0 0)
(1.17087e-05 0 0)
(1.16983e-05 0 0)
(1.16877e-05 0 0)
(1.16771e-05 0 0)
(1.16664e-05 0 0)
(1.16555e-05 0 0)
(1.16446e-05 0 0)
(1.16337e-05 0 0)
(1.16226e-05 0 0)
(1.16115e-05 0 0)
(1.16003e-05 0 0)
(1.1589e-05 0 0)
(1.15777e-05 0 0)
(1.15663e-05 0 0)
(1.15549e-05 0 0)
(1.15434e-05 0 0)
(1.15318e-05 0 0)
(1.15202e-05 0 0)
(1.15085e-05 0 0)
(1.14969e-05 0 0)
(1.14851e-05 0 0)
(1.14733e-05 0 0)
(1.14615e-05 0 0)
(1.14497e-05 0 0)
(1.14378e-05 0 0)
(1.1426e-05 0 0)
(1.1414e-05 0 0)
(1.14021e-05 0 0)
(1.13901e-05 0 0)
(1.13779e-05 0 0)
(1.13657e-05 0 0)
(1.13535e-05 0 0)
(1.13411e-05 0 0)
(1.13287e-05 0 0)
(1.13163e-05 0 0)
(1.13038e-05 0 0)
(1.12913e-05 0 0)
(1.12787e-05 0 0)
(1.12659e-05 0 0)
(1.12529e-05 0 0)
(1.12397e-05 0 0)
(1.12262e-05 0 0)
(1.12125e-05 0 0)
(1.11984e-05 0 0)
(1.11841e-05 0 0)
(1.11695e-05 0 0)
(1.11547e-05 0 0)
(1.11397e-05 0 0)
(1.11247e-05 0 0)
(1.11096e-05 0 0)
(1.10946e-05 0 0)
(1.10796e-05 0 0)
(1.10649e-05 0 0)
(1.10504e-05 0 0)
(1.10363e-05 0 0)
(1.10226e-05 0 0)
(1.10095e-05 0 0)
(1.09969e-05 0 0)
(1.09848e-05 0 0)
(1.09733e-05 0 0)
(1.09623e-05 0 0)
(1.09517e-05 0 0)
(1.09416e-05 0 0)
(1.09316e-05 0 0)
(1.09218e-05 0 0)
(1.09121e-05 0 0)
(1.09022e-05 0 0)
(1.08922e-05 0 0)
(1.08819e-05 0 0)
(1.08712e-05 0 0)
(1.08602e-05 0 0)
(1.08489e-05 0 0)
(1.08372e-05 0 0)
(1.08251e-05 0 0)
(1.08127e-05 0 0)
(1.08e-05 0 0)
(1.07871e-05 0 0)
(1.07739e-05 0 0)
(1.07607e-05 0 0)
(1.07473e-05 0 0)
(1.07338e-05 0 0)
(1.07203e-05 0 0)
(1.07068e-05 0 0)
(1.06933e-05 0 0)
(1.06798e-05 0 0)
(1.06664e-05 0 0)
(1.06529e-05 0 0)
(1.06395e-05 0 0)
(1.06262e-05 0 0)
(1.06128e-05 0 0)
(1.05995e-05 0 0)
(1.05862e-05 0 0)
(1.05728e-05 0 0)
(1.05595e-05 0 0)
(1.05462e-05 0 0)
(1.05329e-05 0 0)
(1.05196e-05 0 0)
(1.05062e-05 0 0)
(1.04929e-05 0 0)
(1.04795e-05 0 0)
(1.04661e-05 0 0)
(1.04526e-05 0 0)
(1.04392e-05 0 0)
(1.04257e-05 0 0)
(1.04122e-05 0 0)
(1.03986e-05 0 0)
(1.0385e-05 0 0)
(1.03714e-05 0 0)
(1.03578e-05 0 0)
(1.03441e-05 0 0)
(1.03304e-05 0 0)
(1.03166e-05 0 0)
(1.03028e-05 0 0)
(1.0289e-05 0 0)
(1.02751e-05 0 0)
(1.02612e-05 0 0)
(1.02472e-05 0 0)
(1.02332e-05 0 0)
(1.02192e-05 0 0)
(1.02051e-05 0 0)
(1.01909e-05 0 0)
(1.01768e-05 0 0)
(1.01626e-05 0 0)
(1.01483e-05 0 0)
(1.0134e-05 0 0)
(1.01197e-05 0 0)
(1.01053e-05 0 0)
(1.00909e-05 0 0)
(1.00765e-05 0 0)
(1.0062e-05 0 0)
(1.00475e-05 0 0)
(1.00329e-05 0 0)
(1.00183e-05 0 0)
(1.00037e-05 0 0)
(9.98902e-06 0 0)
(9.97431e-06 0 0)
(9.95957e-06 0 0)
(9.94479e-06 0 0)
(9.92997e-06 0 0)
(9.91512e-06 0 0)
(9.90023e-06 0 0)
(9.88531e-06 0 0)
(9.87034e-06 0 0)
(9.85535e-06 0 0)
(9.84031e-06 0 0)
(9.82524e-06 0 0)
(9.81013e-06 0 0)
(9.79498e-06 0 0)
(9.77979e-06 0 0)
(9.76457e-06 0 0)
(9.7493e-06 0 0)
(9.734e-06 0 0)
(9.71866e-06 0 0)
(9.70328e-06 0 0)
(9.68785e-06 0 0)
(9.67239e-06 0 0)
(9.65689e-06 0 0)
(9.64135e-06 0 0)
(9.62577e-06 0 0)
(9.61015e-06 0 0)
(9.59448e-06 0 0)
(9.57878e-06 0 0)
(9.56304e-06 0 0)
(9.54726e-06 0 0)
(9.53145e-06 0 0)
(9.51559e-06 0 0)
(9.49969e-06 0 0)
(9.48376e-06 0 0)
(9.46778e-06 0 0)
(9.45176e-06 0 0)
(9.43569e-06 0 0)
(9.41959e-06 0 0)
(9.40344e-06 0 0)
(9.38724e-06 0 0)
(9.37099e-06 0 0)
(9.35469e-06 0 0)
(9.33835e-06 0 0)
(9.32195e-06 0 0)
(9.3055e-06 0 0)
(9.28899e-06 0 0)
(9.27243e-06 0 0)
(9.2558e-06 0 0)
(9.23911e-06 0 0)
(9.22235e-06 0 0)
(9.20551e-06 0 0)
(9.1886e-06 0 0)
(9.17159e-06 0 0)
(9.1545e-06 0 0)
(9.1373e-06 0 0)
(9.12e-06 0 0)
(9.10259e-06 0 0)
(9.08507e-06 0 0)
(9.06743e-06 0 0)
(9.04967e-06 0 0)
(9.0318e-06 0 0)
(9.01381e-06 0 0)
(8.9957e-06 0 0)
(8.97749e-06 0 0)
(8.95917e-06 0 0)
(8.94077e-06 0 0)
(8.92228e-06 0 0)
(8.90373e-06 0 0)
(8.88512e-06 0 0)
(8.86647e-06 0 0)
(8.84781e-06 0 0)
(8.82913e-06 0 0)
(8.81048e-06 0 0)
(8.79185e-06 0 0)
(8.77328e-06 0 0)
(8.75478e-06 0 0)
(8.73636e-06 0 0)
(8.71804e-06 0 0)
(8.69982e-06 0 0)
(8.68172e-06 0 0)
(8.66374e-06 0 0)
(8.64587e-06 0 0)
(8.62812e-06 0 0)
(8.61047e-06 0 0)
(8.59291e-06 0 0)
(8.57542e-06 0 0)
(8.55799e-06 0 0)
(8.54058e-06 0 0)
(8.52318e-06 0 0)
(8.50577e-06 0 0)
(8.48831e-06 0 0)
(8.47078e-06 0 0)
(8.45316e-06 0 0)
(8.43542e-06 0 0)
(8.41756e-06 0 0)
(8.39955e-06 0 0)
(8.38138e-06 0 0)
(8.36304e-06 0 0)
(8.34453e-06 0 0)
(8.32584e-06 0 0)
(8.30698e-06 0 0)
(8.28794e-06 0 0)
(8.26872e-06 0 0)
(8.24934e-06 0 0)
(8.2298e-06 0 0)
(8.2101e-06 0 0)
(8.19025e-06 0 0)
(8.17026e-06 0 0)
(8.15014e-06 0 0)
(8.12989e-06 0 0)
(8.10953e-06 0 0)
(8.08904e-06 0 0)
(8.06845e-06 0 0)
(8.04776e-06 0 0)
(8.02696e-06 0 0)
(8.00606e-06 0 0)
(7.98506e-06 0 0)
(7.96397e-06 0 0)
(7.94278e-06 0 0)
(7.92149e-06 0 0)
(7.9001e-06 0 0)
(7.87861e-06 0 0)
(7.85702e-06 0 0)
(7.83532e-06 0 0)
(7.81352e-06 0 0)
(7.79161e-06 0 0)
(7.76959e-06 0 0)
(7.74745e-06 0 0)
(7.72519e-06 0 0)
(7.70282e-06 0 0)
(7.68031e-06 0 0)
(7.65768e-06 0 0)
(7.63491e-06 0 0)
(7.61201e-06 0 0)
(7.58898e-06 0 0)
(7.5658e-06 0 0)
(7.54248e-06 0 0)
(7.51901e-06 0 0)
(7.4954e-06 0 0)
(7.47162e-06 0 0)
(7.44769e-06 0 0)
(7.4236e-06 0 0)
(7.39935e-06 0 0)
(7.37494e-06 0 0)
(7.35035e-06 0 0)
(7.3256e-06 0 0)
(7.30068e-06 0 0)
(7.27558e-06 0 0)
(7.2503e-06 0 0)
(7.22484e-06 0 0)
(7.19921e-06 0 0)
(7.1734e-06 0 0)
(7.14742e-06 0 0)
(7.12127e-06 0 0)
(7.09494e-06 0 0)
(7.06846e-06 0 0)
(7.04182e-06 0 0)
(7.01504e-06 0 0)
(6.98815e-06 0 0)
(6.96116e-06 0 0)
(6.9341e-06 0 0)
(6.90701e-06 0 0)
(6.87994e-06 0 0)
(6.85294e-06 0 0)
(6.82608e-06 0 0)
(6.79947e-06 0 0)
(6.77319e-06 0 0)
(6.74736e-06 0 0)
(6.72211e-06 0 0)
(6.69758e-06 0 0)
(6.67391e-06 0 0)
(6.65128e-06 0 0)
(6.62982e-06 0 0)
(6.60967e-06 0 0)
(6.59094e-06 0 0)
(6.5737e-06 0 0)
(6.55796e-06 0 0)
(6.54366e-06 0 0)
(6.53061e-06 0 0)
(6.51841e-06 0 0)
(6.50636e-06 0 0)
(6.49322e-06 0 0)
(6.47682e-06 0 0)
(6.45344e-06 0 0)
(6.41666e-06 0 0)
(6.35573e-06 0 0)
(6.25328e-06 0 0)
(6.08375e-06 0 0)
(5.81536e-06 0 0)
(5.42177e-06 0 0)
(4.90598e-06 0 0)
(4.32196e-06 0 0)
(3.76292e-06 0 0)
(3.31147e-06 0 0)
(2.99786e-06 0 0)
(2.80393e-06 0 0)
(2.69311e-06 0 0)
(2.63277e-06 0 0)
(2.6008e-06 0 0)
(2.58411e-06 0 0)
(2.57545e-06 0 0)
(2.57098e-06 0 0)
(2.56868e-06 0 0)
(2.56748e-06 0 0)
(2.56686e-06 0 0)
(2.56653e-06 0 0)
(2.56635e-06 0 0)
(2.56625e-06 0 0)
(2.56618e-06 0 0)
(2.56614e-06 0 0)
(2.56611e-06 0 0)
(2.56608e-06 0 0)
(2.56606e-06 0 0)
(2.56603e-06 0 0)
(2.56601e-06 0 0)
(2.56599e-06 0 0)
(2.56596e-06 0 0)
(2.56593e-06 0 0)
(2.56591e-06 0 0)
(2.56588e-06 0 0)
(2.56585e-06 0 0)
(2.56582e-06 0 0)
(2.56579e-06 0 0)
(2.56575e-06 0 0)
(2.56572e-06 0 0)
(2.56568e-06 0 0)
(2.56564e-06 0 0)
(2.5656e-06 0 0)
(2.56556e-06 0 0)
(2.56552e-06 0 0)
(2.56547e-06 0 0)
(2.56542e-06 0 0)
(2.56536e-06 0 0)
(2.5653e-06 0 0)
(2.56524e-06 0 0)
(2.56517e-06 0 0)
(2.5651e-06 0 0)
(2.56502e-06 0 0)
(2.56493e-06 0 0)
(2.56484e-06 0 0)
(2.56474e-06 0 0)
(2.56463e-06 0 0)
(2.56452e-06 0 0)
(2.5644e-06 0 0)
(2.56427e-06 0 0)
(2.56413e-06 0 0)
(2.56398e-06 0 0)
(2.56383e-06 0 0)
(2.56366e-06 0 0)
(2.56349e-06 0 0)
(2.56331e-06 0 0)
(2.56312e-06 0 0)
(2.56292e-06 0 0)
(2.56272e-06 0 0)
(2.56251e-06 0 0)
(2.5623e-06 0 0)
(2.56208e-06 0 0)
(2.56186e-06 0 0)
(2.56164e-06 0 0)
(2.56142e-06 0 0)
(2.5612e-06 0 0)
(2.56098e-06 0 0)
(2.56077e-06 0 0)
(2.56057e-06 0 0)
(2.56038e-06 0 0)
(2.5602e-06 0 0)
(2.56003e-06 0 0)
(2.55987e-06 0 0)
(2.55974e-06 0 0)
(2.55962e-06 0 0)
(2.55952e-06 0 0)
(2.55945e-06 0 0)
(2.5594e-06 0 0)
(2.55937e-06 0 0)
(2.55935e-06 0 0)
(2.55934e-06 0 0)
(2.55935e-06 0 0)
(2.5594e-06 0 0)
(2.55949e-06 0 0)
(2.5596e-06 0 0)
(2.55973e-06 0 0)
(2.55987e-06 0 0)
(2.56004e-06 0 0)
(2.56022e-06 0 0)
(2.56041e-06 0 0)
(2.56061e-06 0 0)
(2.56082e-06 0 0)
(2.56104e-06 0 0)
(2.56126e-06 0 0)
(2.56148e-06 0 0)
(2.5617e-06 0 0)
(2.56191e-06 0 0)
(2.56212e-06 0 0)
(2.56232e-06 0 0)
(2.56252e-06 0 0)
(2.5627e-06 0 0)
(2.56288e-06 0 0)
(2.56304e-06 0 0)
(2.56319e-06 0 0)
(2.56333e-06 0 0)
(2.56345e-06 0 0)
(2.56356e-06 0 0)
(2.56366e-06 0 0)
(2.56375e-06 0 0)
(2.56383e-06 0 0)
(2.5639e-06 0 0)
(2.56396e-06 0 0)
(2.56401e-06 0 0)
(2.56405e-06 0 0)
(2.56408e-06 0 0)
(2.56411e-06 0 0)
(2.56414e-06 0 0)
(2.56416e-06 0 0)
(2.56418e-06 0 0)
(2.56419e-06 0 0)
(2.5642e-06 0 0)
(2.56421e-06 0 0)
(2.56422e-06 0 0)
(2.56423e-06 0 0)
(2.56425e-06 0 0)
(2.56426e-06 0 0)
(2.56427e-06 0 0)
(2.56428e-06 0 0)
(2.5643e-06 0 0)
(2.56432e-06 0 0)
(2.56434e-06 0 0)
(2.56436e-06 0 0)
(2.56438e-06 0 0)
(2.56441e-06 0 0)
(2.56444e-06 0 0)
(2.56446e-06 0 0)
(2.5645e-06 0 0)
(2.56453e-06 0 0)
(2.56456e-06 0 0)
(2.5646e-06 0 0)
(2.56463e-06 0 0)
(2.56467e-06 0 0)
(2.56471e-06 0 0)
(2.56475e-06 0 0)
(2.56479e-06 0 0)
(2.56484e-06 0 0)
(2.56488e-06 0 0)
(2.56492e-06 0 0)
(2.56497e-06 0 0)
(2.56501e-06 0 0)
(2.56505e-06 0 0)
(2.5651e-06 0 0)
(2.56514e-06 0 0)
(2.56519e-06 0 0)
(2.56524e-06 0 0)
(2.56528e-06 0 0)
(2.56532e-06 0 0)
(2.56537e-06 0 0)
(2.56541e-06 0 0)
(2.56546e-06 0 0)
(2.5655e-06 0 0)
(2.56554e-06 0 0)
(2.56559e-06 0 0)
(2.56563e-06 0 0)
(2.56567e-06 0 0)
(2.56571e-06 0 0)
(2.56575e-06 0 0)
(2.56579e-06 0 0)
(2.56583e-06 0 0)
(2.56587e-06 0 0)
(2.5659e-06 0 0)
(2.56594e-06 0 0)
(2.56597e-06 0 0)
(2.56601e-06 0 0)
(2.56604e-06 0 0)
(2.56607e-06 0 0)
(2.5661e-06 0 0)
(2.56613e-06 0 0)
(2.56615e-06 0 0)
(2.56618e-06 0 0)
(2.5662e-06 0 0)
(2.56623e-06 0 0)
(2.56625e-06 0 0)
(2.56627e-06 0 0)
(2.56629e-06 0 0)
(2.5663e-06 0 0)
(2.56632e-06 0 0)
(2.56633e-06 0 0)
(2.56634e-06 0 0)
(2.56636e-06 0 0)
(2.56636e-06 0 0)
(2.56637e-06 0 0)
(2.56638e-06 0 0)
(2.56638e-06 0 0)
(2.56639e-06 0 0)
(2.56639e-06 0 0)
(2.56639e-06 0 0)
(2.56639e-06 0 0)
(2.56639e-06 0 0)
(2.56639e-06 0 0)
(2.56638e-06 0 0)
(2.56638e-06 0 0)
(2.56637e-06 0 0)
(2.56636e-06 0 0)
(2.56635e-06 0 0)
(2.56634e-06 0 0)
(2.56633e-06 0 0)
(2.56632e-06 0 0)
(2.5663e-06 0 0)
(2.56629e-06 0 0)
(2.56627e-06 0 0)
(2.56625e-06 0 0)
(2.56624e-06 0 0)
(2.56622e-06 0 0)
(2.5662e-06 0 0)
(2.56618e-06 0 0)
(2.56616e-06 0 0)
(2.56613e-06 0 0)
(2.56611e-06 0 0)
(2.56609e-06 0 0)
(2.56606e-06 0 0)
(2.56604e-06 0 0)
(2.56601e-06 0 0)
(2.56598e-06 0 0)
(2.56596e-06 0 0)
(2.56593e-06 0 0)
(2.5659e-06 0 0)
(2.56587e-06 0 0)
(2.56583e-06 0 0)
(2.5658e-06 0 0)
(2.56577e-06 0 0)
(2.56573e-06 0 0)
(2.5657e-06 0 0)
(2.56566e-06 0 0)
(2.56562e-06 0 0)
(2.56559e-06 0 0)
(2.56555e-06 0 0)
(2.56551e-06 0 0)
(2.56547e-06 0 0)
(2.56543e-06 0 0)
(2.56538e-06 0 0)
(2.56533e-06 0 0)
(2.56528e-06 0 0)
(2.56523e-06 0 0)
(2.56518e-06 0 0)
(2.56512e-06 0 0)
(2.56506e-06 0 0)
(2.56499e-06 0 0)
(2.56492e-06 0 0)
(2.56484e-06 0 0)
(2.56476e-06 0 0)
(2.56467e-06 0 0)
(2.56458e-06 0 0)
(2.56448e-06 0 0)
(2.56437e-06 0 0)
(2.56426e-06 0 0)
(2.56414e-06 0 0)
(2.56401e-06 0 0)
(2.56388e-06 0 0)
(2.56374e-06 0 0)
(2.56359e-06 0 0)
(2.56344e-06 0 0)
(2.56329e-06 0 0)
(2.56312e-06 0 0)
(2.56296e-06 0 0)
(2.56278e-06 0 0)
(2.56261e-06 0 0)
(2.56243e-06 0 0)
(2.56225e-06 0 0)
(2.56206e-06 0 0)
(2.56188e-06 0 0)
(2.56169e-06 0 0)
(2.56151e-06 0 0)
(2.56133e-06 0 0)
(2.56116e-06 0 0)
(2.56098e-06 0 0)
(2.56082e-06 0 0)
(2.56066e-06 0 0)
(2.56051e-06 0 0)
(2.56037e-06 0 0)
(2.56024e-06 0 0)
(2.56012e-06 0 0)
(2.56002e-06 0 0)
(2.55993e-06 0 0)
(2.55986e-06 0 0)
(2.5598e-06 0 0)
(2.55976e-06 0 0)
(2.55973e-06 0 0)
(2.55972e-06 0 0)
(2.55972e-06 0 0)
(2.55972e-06 0 0)
(2.55975e-06 0 0)
(2.55981e-06 0 0)
(2.55989e-06 0 0)
(2.55999e-06 0 0)
(2.5601e-06 0 0)
(2.56022e-06 0 0)
(2.56036e-06 0 0)
(2.56051e-06 0 0)
(2.56066e-06 0 0)
(2.56083e-06 0 0)
(2.561e-06 0 0)
(2.56118e-06 0 0)
(2.56136e-06 0 0)
(2.56154e-06 0 0)
(2.56172e-06 0 0)
(2.5619e-06 0 0)
(2.56208e-06 0 0)
(2.56225e-06 0 0)
(2.56242e-06 0 0)
(2.56258e-06 0 0)
(2.56273e-06 0 0)
(2.56288e-06 0 0)
(2.56302e-06 0 0)
(2.56315e-06 0 0)
(2.56327e-06 0 0)
(2.56338e-06 0 0)
(2.56348e-06 0 0)
(2.56358e-06 0 0)
(2.56367e-06 0 0)
(2.56374e-06 0 0)
(2.56381e-06 0 0)
(2.56388e-06 0 0)
(2.56394e-06 0 0)
(2.56399e-06 0 0)
(2.56404e-06 0 0)
(2.56408e-06 0 0)
(2.56412e-06 0 0)
(2.56415e-06 0 0)
(2.56419e-06 0 0)
(2.56422e-06 0 0)
(2.56425e-06 0 0)
(2.56427e-06 0 0)
(2.5643e-06 0 0)
(2.56433e-06 0 0)
(2.56435e-06 0 0)
(2.56438e-06 0 0)
(2.56441e-06 0 0)
(2.56443e-06 0 0)
(2.56446e-06 0 0)
(2.56449e-06 0 0)
(2.56452e-06 0 0)
(2.56456e-06 0 0)
(2.56459e-06 0 0)
(2.56462e-06 0 0)
(2.56466e-06 0 0)
(2.5647e-06 0 0)
(2.56474e-06 0 0)
(2.56478e-06 0 0)
(2.56482e-06 0 0)
(2.56486e-06 0 0)
(2.5649e-06 0 0)
(2.56494e-06 0 0)
(2.56499e-06 0 0)
(2.56503e-06 0 0)
(2.56508e-06 0 0)
(2.56513e-06 0 0)
(2.56517e-06 0 0)
(2.56522e-06 0 0)
(2.56527e-06 0 0)
(2.56531e-06 0 0)
(2.56536e-06 0 0)
(2.56541e-06 0 0)
(2.56545e-06 0 0)
(2.5655e-06 0 0)
(2.56554e-06 0 0)
(2.56559e-06 0 0)
(2.56564e-06 0 0)
(2.56568e-06 0 0)
(2.56572e-06 0 0)
(2.56577e-06 0 0)
(2.56581e-06 0 0)
(2.56585e-06 0 0)
(2.5659e-06 0 0)
(2.56594e-06 0 0)
(2.56598e-06 0 0)
(2.56602e-06 0 0)
(2.56605e-06 0 0)
(2.56609e-06 0 0)
(2.56613e-06 0 0)
(2.56616e-06 0 0)
(2.5662e-06 0 0)
(2.56623e-06 0 0)
(2.56626e-06 0 0)
(2.56629e-06 0 0)
(2.56632e-06 0 0)
(2.56635e-06 0 0)
(2.56638e-06 0 0)
(2.5664e-06 0 0)
(2.56643e-06 0 0)
(2.56645e-06 0 0)
(2.56647e-06 0 0)
(2.56649e-06 0 0)
(2.5665e-06 0 0)
(2.56652e-06 0 0)
(2.56653e-06 0 0)
(2.56654e-06 0 0)
(2.56655e-06 0 0)
(2.56656e-06 0 0)
(2.56656e-06 0 0)
(2.56657e-06 0 0)
(2.56657e-06 0 0)
(2.56657e-06 0 0)
(2.56657e-06 0 0)
(2.56657e-06 0 0)
(2.56657e-06 0 0)
(2.56656e-06 0 0)
(2.56655e-06 0 0)
(2.56654e-06 0 0)
(2.56653e-06 0 0)
(2.56651e-06 0 0)
(2.56649e-06 0 0)
(2.56648e-06 0 0)
(2.56646e-06 0 0)
(2.56644e-06 0 0)
(2.56642e-06 0 0)
(2.56639e-06 0 0)
(2.56637e-06 0 0)
(2.56634e-06 0 0)
(2.56632e-06 0 0)
(2.56629e-06 0 0)
(2.56626e-06 0 0)
(2.56623e-06 0 0)
(2.5662e-06 0 0)
(2.56617e-06 0 0)
(2.56613e-06 0 0)
(2.5661e-06 0 0)
(2.56607e-06 0 0)
(2.56603e-06 0 0)
(2.566e-06 0 0)
(2.56596e-06 0 0)
(2.56592e-06 0 0)
(2.56589e-06 0 0)
(2.56585e-06 0 0)
(2.56581e-06 0 0)
(2.56577e-06 0 0)
(2.56573e-06 0 0)
(2.56569e-06 0 0)
(2.56565e-06 0 0)
(2.56561e-06 0 0)
(2.56556e-06 0 0)
(2.56552e-06 0 0)
(2.56547e-06 0 0)
(2.56543e-06 0 0)
(2.56538e-06 0 0)
(2.56533e-06 0 0)
(2.56528e-06 0 0)
(2.56522e-06 0 0)
(2.56517e-06 0 0)
(2.56511e-06 0 0)
(2.56505e-06 0 0)
(2.56499e-06 0 0)
(2.56492e-06 0 0)
(2.56486e-06 0 0)
(2.56478e-06 0 0)
(2.56471e-06 0 0)
(2.56463e-06 0 0)
(2.56455e-06 0 0)
(2.56446e-06 0 0)
(2.56437e-06 0 0)
(2.56428e-06 0 0)
(2.56418e-06 0 0)
(2.56408e-06 0 0)
(2.56397e-06 0 0)
(2.56386e-06 0 0)
(2.56374e-06 0 0)
(2.56362e-06 0 0)
(2.5635e-06 0 0)
(2.56337e-06 0 0)
(2.56323e-06 0 0)
(2.56309e-06 0 0)
(2.56295e-06 0 0)
(2.56281e-06 0 0)
(2.56266e-06 0 0)
(2.56251e-06 0 0)
(2.56236e-06 0 0)
(2.56221e-06 0 0)
(2.56205e-06 0 0)
(2.5619e-06 0 0)
(2.56174e-06 0 0)
(2.56159e-06 0 0)
(2.56144e-06 0 0)
(2.56129e-06 0 0)
(2.56115e-06 0 0)
(2.561e-06 0 0)
(2.56087e-06 0 0)
(2.56074e-06 0 0)
(2.56062e-06 0 0)
(2.5605e-06 0 0)
(2.5604e-06 0 0)
(2.5603e-06 0 0)
(2.56022e-06 0 0)
(2.56015e-06 0 0)
(2.56008e-06 0 0)
(2.56003e-06 0 0)
(2.56e-06 0 0)
(2.55997e-06 0 0)
(2.55996e-06 0 0)
(2.55996e-06 0 0)
(2.55996e-06 0 0)
(2.55997e-06 0 0)
(2.56001e-06 0 0)
(2.56007e-06 0 0)
(2.56014e-06 0 0)
(2.56023e-06 0 0)
(2.56032e-06 0 0)
(2.56043e-06 0 0)
(2.56055e-06 0 0)
(2.56067e-06 0 0)
(2.56081e-06 0 0)
(2.56095e-06 0 0)
(2.56109e-06 0 0)
(2.56124e-06 0 0)
(2.56139e-06 0 0)
(2.56155e-06 0 0)
(2.56171e-06 0 0)
(2.56186e-06 0 0)
(2.56202e-06 0 0)
(2.56217e-06 0 0)
(2.56232e-06 0 0)
(2.56246e-06 0 0)
(2.5626e-06 0 0)
(2.56273e-06 0 0)
(2.56286e-06 0 0)
(2.56298e-06 0 0)
(2.5631e-06 0 0)
(2.5632e-06 0 0)
(2.5633e-06 0 0)
(2.5634e-06 0 0)
(2.56349e-06 0 0)
(2.56357e-06 0 0)
(2.56364e-06 0 0)
(2.56371e-06 0 0)
(2.56378e-06 0 0)
(2.56383e-06 0 0)
(2.56389e-06 0 0)
(2.56394e-06 0 0)
(2.56398e-06 0 0)
(2.56402e-06 0 0)
(2.56406e-06 0 0)
(2.5641e-06 0 0)
(2.56413e-06 0 0)
(2.56416e-06 0 0)
(2.56419e-06 0 0)
(2.56422e-06 0 0)
(2.56425e-06 0 0)
(2.56428e-06 0 0)
(2.56431e-06 0 0)
(2.56434e-06 0 0)
(2.56437e-06 0 0)
(2.5644e-06 0 0)
(2.56443e-06 0 0)
(2.56446e-06 0 0)
(2.56449e-06 0 0)
(2.56452e-06 0 0)
(2.56455e-06 0 0)
(2.56459e-06 0 0)
(2.56462e-06 0 0)
(2.56466e-06 0 0)
(2.5647e-06 0 0)
(2.56474e-06 0 0)
(2.56478e-06 0 0)
(2.56482e-06 0 0)
(2.56486e-06 0 0)
(2.5649e-06 0 0)
(2.56494e-06 0 0)
(2.56498e-06 0 0)
(2.56503e-06 0 0)
(2.56507e-06 0 0)
(2.56511e-06 0 0)
(2.56516e-06 0 0)
(2.5652e-06 0 0)
(2.56524e-06 0 0)
(2.56529e-06 0 0)
(2.56533e-06 0 0)
(2.56537e-06 0 0)
(2.56541e-06 0 0)
(2.56546e-06 0 0)
(2.5655e-06 0 0)
(2.56554e-06 0 0)
(2.56557e-06 0 0)
(2.56561e-06 0 0)
(2.56565e-06 0 0)
(2.56568e-06 0 0)
(2.56572e-06 0 0)
(2.56576e-06 0 0)
(2.56579e-06 0 0)
(2.56582e-06 0 0)
(2.56585e-06 0 0)
(2.56588e-06 0 0)
(2.56591e-06 0 0)
(2.56594e-06 0 0)
(2.56597e-06 0 0)
(2.56599e-06 0 0)
(2.56602e-06 0 0)
(2.56604e-06 0 0)
(2.56607e-06 0 0)
(2.56609e-06 0 0)
(2.56611e-06 0 0)
(2.56613e-06 0 0)
(2.56615e-06 0 0)
(2.56617e-06 0 0)
(2.56618e-06 0 0)
(2.5662e-06 0 0)
(2.56621e-06 0 0)
(2.56622e-06 0 0)
(2.56623e-06 0 0)
(2.56624e-06 0 0)
(2.56625e-06 0 0)
(2.56626e-06 0 0)
(2.56627e-06 0 0)
(2.56627e-06 0 0)
(2.56627e-06 0 0)
(2.56627e-06 0 0)
(2.56628e-06 0 0)
(2.56628e-06 0 0)
(2.56627e-06 0 0)
(2.56627e-06 0 0)
(2.56627e-06 0 0)
(2.56626e-06 0 0)
(2.56626e-06 0 0)
(2.56625e-06 0 0)
(2.56624e-06 0 0)
(2.56623e-06 0 0)
(2.56622e-06 0 0)
(2.5662e-06 0 0)
(2.56619e-06 0 0)
(2.56617e-06 0 0)
)
;

boundaryField
{
    inlet
    {
        type            fixedValue;
        value           uniform (1.13622e-05 0 0);
    }
    outlet
    {
        type            zeroGradient;
    }
    emptyWalls
    {
        type            empty;
    }
}


// ************************************************************************* //
