/*--------------------------------*- C++ -*----------------------------------*\
  =========                 |
  \\      /  F ield         | OpenFOAM: The Open Source CFD Toolbox
   \\    /   O peration     | Website:  https://openfoam.org
    \\  /    A nd           | Version:  9
     \\/     M anipulation  |
\*---------------------------------------------------------------------------*/
FoamFile
{
    format      ascii;
    class       volScalarField;
    location    "2400";
    object      krb;
}
// * * * * * * * * * * * * * * * * * * * * * * * * * * * * * * * * * * * * * //

dimensions      [0 0 0 0 0 0 0];

internalField   nonuniform List<scalar> 
1000
(
0.101267
0.109791
0.146165
0.379703
0.506008
0.525564
0.530366
0.530409
0.524011
0.509622
0.494344
0.479395
0.46513
0.451641
0.438921
0.426931
0.415616
0.404924
0.394803
0.385206
0.376091
0.367416
0.359149
0.351257
0.343713
0.336492
0.32957
0.322927
0.316544
0.310403
0.30449
0.298792
0.293291
0.287976
0.282833
0.277846
0.273004
0.268295
0.263709
0.259236
0.25487
0.250605
0.246436
0.242358
0.238369
0.234466
0.230645
0.226904
0.223239
0.219649
0.216129
0.212677
0.20929
0.205965
0.202699
0.199489
0.196333
0.193227
0.190169
0.187156
0.184187
0.181259
0.178369
0.175516
0.172697
0.169911
0.167155
0.164428
0.161726
0.15905
0.156397
0.153765
0.151153
0.148559
0.14598
0.143416
0.140864
0.138323
0.135791
0.133269
0.130754
0.128248
0.125751
0.123266
0.120797
0.118348
0.115923
0.113518
0.111111
0.108642
0.105977
0.10286
0.0988647
0.0933934
0.085854
0.0761275
0.0651267
0.054686
0.0464535
0.0409308
0.0376422
0.0358297
0.0348759
0.0343875
0.0341414
0.0340188
0.0339583
0.0339286
0.0339141
0.0339071
0.0339038
0.0339023
0.0339015
0.0339012
0.033901
0.0339009
0.0339009
0.0339009
0.0339008
0.0339007
0.0339006
0.0339005
0.0339005
0.0339004
0.0339003
0.0339002
0.0339001
0.0339
0.0338999
0.0338998
0.0338998
0.0338997
0.0338997
0.0338996
0.0338995
0.0338994
0.0338993
0.0338993
0.0338993
0.0338993
0.0338992
0.0338991
0.0338991
0.0338991
0.0338991
0.0338992
0.0338992
0.0338993
0.0338993
0.0338993
0.0338993
0.0338994
0.0338995
0.0338996
0.0338997
0.0338997
0.0338998
0.0338998
0.0338999
0.0339
0.0339001
0.0339002
0.0339003
0.0339003
0.0339004
0.0339004
0.0339004
0.0339004
0.0339004
0.0339005
0.0339005
0.0339005
0.0339005
0.0339004
0.0339003
0.0339003
0.0339002
0.0339002
0.0339001
0.0339
0.0338999
0.0338998
0.0338997
0.0338995
0.0338994
0.0338992
0.033899
0.0338988
0.0338986
0.0338983
0.0338981
0.0338978
0.0338974
0.0338971
0.0338966
0.0338961
0.0338956
0.0338951
0.0338944
0.0338938
0.033893
0.0338923
0.0338914
0.0338906
0.0338897
0.0338888
0.0338878
0.0338868
0.0338858
0.0338847
0.0338836
0.0338826
0.0338816
0.0338806
0.0338797
0.0338788
0.0338781
0.0338775
0.033877
0.0338767
0.0338765
0.0338764
0.0338763
0.0338764
0.0338771
0.033878
0.0338791
0.0338805
0.0338821
0.0338839
0.0338859
0.033888
0.0338901
0.0338923
0.0338945
0.0338966
0.0338985
0.0339003
0.033902
0.0339034
0.0339046
0.0339056
0.0339063
0.0339069
0.0339072
0.0339074
0.0339075
0.0339075
0.0339075
0.0339072
0.0339067
0.0339062
0.0339056
0.0339049
0.0339043
0.0339037
0.0339031
0.0339025
0.033902
0.0339014
0.033901
0.0339006
0.0339002
0.0338998
0.0338995
0.0338993
0.033899
0.0338989
0.0338987
0.0338986
0.0338986
0.0338986
0.0338985
0.0338985
0.0338985
0.0338985
0.0338986
0.0338986
0.0338987
0.0338987
0.0338988
0.0338989
0.033899
0.033899
0.033899
0.0338991
0.0338991
0.0338992
0.0338992
0.0338993
0.0338993
0.0338994
0.0338994
0.0338994
0.0338994
0.0338994
0.0338995
0.0338995
0.0338996
0.0338997
0.0338997
0.0338998
0.0338998
0.0338999
0.0338999
0.0339
0.0339
0.0339001
0.0339002
0.0339003
0.0339005
0.0339006
0.0339007
0.0339008
0.0339009
0.033901
0.0339011
0.0339013
0.0339014
0.0339015
0.0339017
0.0339018
0.033902
0.0339021
0.0339023
0.0339024
0.0339026
0.0339027
0.0339029
0.033903
0.0339032
0.0339033
0.0339034
0.0339035
0.0339036
0.0339037
0.0339038
0.0339038
0.0339039
0.0339039
0.0339039
0.0339039
0.0339038
0.0339038
0.0339038
0.0339037
0.0339036
0.0339033
0.0339033
0.033903
0.0339029
0.0339025
0.0339024
0.0339019
0.0339018
0.0339013
0.0339012
0.0339007
0.0339005
0.0338999
0.0338996
0.0338991
0.0338988
0.0338982
0.033898
0.0338974
0.0338971
0.0338966
0.0338962
0.0338957
0.0338954
0.0338948
0.0338945
0.0338939
0.0338935
0.0338928
0.0338924
0.0338917
0.0338914
0.0338907
0.0338903
0.0338897
0.0338893
0.0338885
0.033888
0.0338874
0.0338869
0.033886
0.0338856
0.0338849
0.0338842
0.0338835
0.0338832
0.0338823
0.0338815
0.033881
0.0338804
0.0338789
0.0338786
0.0338786
0.0338841
0.0339068
0.034308
0.0350412
0.0351545
0.0351562
0.0351562
0.0351562
0.0351562
0.0351562
0.0351562
0.0351563
0.0351562
0.0351563
0.0351563
0.0351563
0.0351562
0.0351562
0.0351562
0.0351562
0.0351562
0.0351562
0.0351562
0.0351562
0.0351562
0.0351562
0.0351563
0.0351563
0.0351563
0.0351563
0.0351562
0.0351562
0.0351562
0.0351562
0.0351562
0.0351562
0.0351562
0.0351562
0.0351562
0.0351563
0.0351563
0.0351563
0.0351562
0.0351562
0.0351562
0.0351562
0.0351563
0.0351563
0.0351563
0.0351563
0.0351563
0.0351563
0.0351563
0.0351563
0.0351563
0.0351563
0.0351563
0.0351562
0.0351562
0.0351562
0.0351562
0.0351562
0.0351562
0.0351562
0.0351562
0.0351562
0.0351562
0.0351562
0.0351562
0.0351563
0.0351563
0.0351563
0.0351563
0.0351562
0.0351562
0.0351563
0.0351563
0.0351563
0.0351563
0.0351563
0.0351563
0.0351563
0.0351563
0.0351563
0.0351563
0.0351563
0.0351563
0.0351563
0.0351563
0.0351563
0.0351563
0.0351563
0.0351562
0.0351562
0.0351563
0.0351563
0.0351563
0.0351563
0.0351563
0.0351563
0.0351563
0.0351563
0.0351563
0.0351563
0.0351563
0.0351563
0.0351563
0.0351563
0.0351563
0.0351563
0.0351562
0.0351563
0.0351562
0.0351562
0.0351563
0.0351563
0.0351563
0.0351563
0.0351563
0.0351563
0.0351563
0.0351563
0.0351563
0.0351563
0.0351563
0.0351563
0.0351563
0.0351563
0.0351563
0.0351563
0.0351562
0.0351563
0.0351562
0.0351563
0.0351562
0.0351563
0.0351563
0.0351563
0.0351563
0.0351563
0.0351563
0.0351563
0.0351563
0.0351563
0.0351563
0.0351563
0.0351563
0.0351563
0.0351563
0.0351563
0.0351563
0.0351563
0.0351563
0.0351563
0.0351563
0.0351562
0.0351563
0.0351563
0.0351563
0.0351563
0.0351563
0.0351563
0.0351563
0.0351563
0.0351563
0.0351563
0.0351563
0.0351563
0.0351563
0.0351563
0.0351563
0.0351563
0.0351563
0.0351563
0.0351563
0.0351563
0.0351563
0.0351563
0.0351563
0.0351563
0.0351563
0.0351562
0.0351562
0.0351562
0.0351562
0.0351562
0.0351562
0.0351562
0.0351563
0.0351563
0.0351562
0.0351562
0.0351563
0.0351563
0.0351563
0.0351563
0.0351563
0.0351563
0.0351563
0.0351563
0.0351563
0.0351563
0.0351562
0.0351562
0.0351562
0.0351562
0.0351563
0.0351563
0.0351562
0.0351563
0.0351562
0.0351563
0.0351563
0.0351563
0.0351563
0.0351563
0.0351563
0.0351563
0.0351563
0.0351563
0.0351563
0.0351563
0.0351563
0.0351563
0.0351563
0.0351563
0.0351563
0.0351563
0.0351563
0.0351563
0.0351563
0.0351563
0.0351562
0.0351563
0.0351562
0.0351562
0.0351562
0.0351562
0.0351563
0.0351563
0.0351563
0.0351562
0.0351563
0.0351562
0.0351563
0.0351562
0.0351562
0.0351563
0.0351563
0.0351563
0.0351562
0.0351563
0.0351563
0.0351563
0.0351563
0.0351563
0.0351563
0.0351563
0.0351563
0.0351563
0.0351563
0.0351563
0.0351563
0.0351563
0.0351563
0.0351563
0.0351563
0.0351563
0.0351563
0.0351563
0.0351563
0.0351563
0.0351563
0.0351563
0.0351563
0.0351563
0.0351563
0.0351563
0.0351563
0.0351563
0.0351563
0.0351563
0.0351563
0.0351563
0.0351563
0.0351563
0.0351563
0.0351562
0.0351563
0.0351563
0.0351563
0.0351563
0.0351563
0.0351563
0.0351563
0.0351563
0.0351563
0.0351563
0.0351563
0.0351563
0.0351563
0.0351563
0.0351563
0.0351563
0.0351563
0.0351563
0.0351563
0.0351563
0.0351563
0.0351562
0.0351563
0.0351562
0.0351562
0.0351562
0.0351562
0.0351562
0.0351562
0.0351562
0.0351563
0.0351562
0.0351562
0.0351562
0.0351562
0.0351562
0.0351562
0.0351562
0.0351563
0.0351563
0.0351563
0.0351563
0.0351563
0.0351563
0.0351563
0.0351563
0.0351563
0.0351562
0.0351563
0.0351563
0.0351563
0.0351563
0.0351563
0.0351563
0.0351562
0.0351563
0.0351563
0.0351562
0.0351562
0.0351562
0.0351562
0.0351562
0.0351562
0.0351562
0.0351562
0.0351562
0.0351563
0.0351563
0.0351563
0.0351563
0.0351563
0.0351563
0.0351562
0.0351562
0.0351562
0.0351562
0.0351563
0.0351563
0.0351563
0.0351563
0.0351562
0.0351563
0.0351563
0.0351563
0.0351563
0.0351563
0.0351563
0.0351563
0.0351563
0.0351563
0.0351563
0.0351563
0.0351563
0.0351563
0.0351563
0.0351563
0.0351563
0.0351563
0.0351563
0.0351563
0.0351563
0.0351563
0.0351563
0.0351563
0.0351562
0.0351562
0.0351562
0.0351562
0.0351562
0.0351562
0.0351562
0.0351563
0.0351562
0.0351563
0.0351563
0.0351562
0.0351562
0.0351562
0.0351563
0.0351562
0.0351562
0.0351563
0.0351562
0.0351563
0.0351563
0.0351563
0.0351562
0.0351562
0.0351563
0.0351563
0.0351562
0.0351563
0.0351563
0.0351562
0.0351563
0.0351563
0.0351563
0.0351563
0.0351562
0.0351562
0.0351562
0.0351562
0.0351563
0.0351562
0.0351563
0.0351562
0.0351562
0.0351563
0.0351563
0.0351563
0.0351563
0.0351563
0.0351562
0.0351562
0.0351562
0.0351562
0.0351562
0.0351562
0.0351562
0.0351562
0.0351562
0.0351562
0.0351562
0.0351562
0.0351562
0.0351562
0.0351563
0.0351562
0.0351563
0.0351563
0.0351563
0.0351563
0.0351563
0.0351563
0.0351563
0.0351562
0.0351562
0.0351562
0.0351562
0.0351562
0.0351562
0.0351562
0.0351563
0.0351563
0.0351563
0.0351563
0.0351563
0.0351563
0.0351563
0.0351563
0.0351563
0.0351563
0.0351563
0.0351563
0.0351563
0.0351563
0.0351563
0.0351562
0.0351562
0.0351562
0.0351562
0.0351562
0.0351562
0.0351562
0.0351562
0.0351562
0.0351562
0.0351562
0.0351562
0.0351562
0.0351563
0.0351562
0.0351563
0.0351562
0.0351562
0.0351562
0.0351562
0.0351563
0.0351563
0.0351562
0.0351562
0.0351562
0.0351562
0.0351563
0.0351563
0.0351563
0.0351563
0.0351563
0.0351563
0.0351563
0.0351563
0.0351563
0.0351562
0.0351562
0.0351562
0.0351563
0.0351563
0.0351563
0.0351563
0.0351563
0.0351563
0.0351563
0.0351563
0.0351563
0.0351563
0.0351562
0.0351562
0.0351562
0.0351562
0.0351562
0.0351562
0.0351563
0.0351563
0.0351563
0.0351563
0.0351563
0.0351563
0.0351563
0.0351563
0.0351563
0.0351562
0.0351562
0.0351563
0.0351563
0.0351563
0.0351563
0.0351563
0.0351563
0.0351563
0.0351563
0.0351563
0.0351563
0.0351563
0.0351563
0.0351563
0.0351563
0.0351563
0.0351563
0.0351563
0.0351563
0.0351563
0.0351563
0.0351563
0.0351563
0.0351563
0.0351563
0.0351563
0.0351563
0.0351563
0.0351563
0.0351563
0.0351563
0.0351563
0.0351563
0.0351563
0.0351563
0.0351563
0.0351563
0.0351563
0.0351563
0.0351563
0.0351563
0.0351563
0.0351562
0.0351562
0.0351562
0.0351562
0.0351562
0.0351562
0.0351562
0.0351562
0.0351562
)
;

boundaryField
{
    inlet
    {
        type            calculated;
        value           uniform 0.0976562;
    }
    outlet
    {
        type            calculated;
        value           uniform 0.0351562;
    }
    emptyWalls
    {
        type            empty;
    }
}


// ************************************************************************* //
