/*--------------------------------*- C++ -*----------------------------------*\
  =========                 |
  \\      /  F ield         | OpenFOAM: The Open Source CFD Toolbox
   \\    /   O peration     | Website:  https://openfoam.org
    \\  /    A nd           | Version:  9
     \\/     M anipulation  |
\*---------------------------------------------------------------------------*/
FoamFile
{
    format      ascii;
    class       surfaceScalarField;
    location    "1050";
    object      phic;
}
// * * * * * * * * * * * * * * * * * * * * * * * * * * * * * * * * * * * * * //

dimensions      [0 2 0 0 0 0 0];

internalField   nonuniform List<scalar> 
999
(
5.65021e-12
2.16389e-11
2.55848e-11
3.1196e-11
3.94829e-11
4.88319e-11
5.88072e-11
6.92014e-11
7.99085e-11
9.08718e-11
1.02061e-10
1.1346e-10
1.25058e-10
1.36856e-10
1.48853e-10
1.61052e-10
1.73453e-10
1.86062e-10
1.98889e-10
2.11935e-10
2.25215e-10
2.3873e-10
2.52503e-10
2.6654e-10
2.80859e-10
2.95484e-10
3.10424e-10
3.2572e-10
3.41396e-10
3.57493e-10
3.74069e-10
3.91164e-10
4.08854e-10
4.27237e-10
4.46479e-10
4.66985e-10
4.89649e-10
5.16278e-10
5.50097e-10
5.95534e-10
6.56023e-10
7.29311e-10
8.04474e-10
8.67486e-10
9.11239e-10
9.37739e-10
9.52747e-10
9.61264e-10
9.66398e-10
9.69797e-10
9.72262e-10
9.7417e-10
9.75673e-10
9.76822e-10
9.77638e-10
9.7816e-10
9.78432e-10
9.78525e-10
9.78538e-10
9.78512e-10
9.78229e-10
9.77818e-10
9.77355e-10
9.76859e-10
9.76338e-10
9.75804e-10
9.75265e-10
9.74733e-10
9.74215e-10
9.7372e-10
9.73254e-10
9.72824e-10
9.72434e-10
9.72084e-10
9.71777e-10
9.71512e-10
9.71288e-10
9.71103e-10
9.70954e-10
9.70836e-10
9.70744e-10
9.70676e-10
9.70625e-10
9.70588e-10
9.70562e-10
9.70543e-10
9.7053e-10
9.7052e-10
9.7051e-10
9.705e-10
9.70487e-10
9.70472e-10
9.70455e-10
9.70436e-10
9.70413e-10
9.70387e-10
9.70359e-10
9.70327e-10
9.70293e-10
9.70257e-10
9.70219e-10
9.70181e-10
9.70143e-10
9.70105e-10
9.70067e-10
9.7003e-10
9.69995e-10
9.69964e-10
9.69936e-10
9.69914e-10
9.69899e-10
9.6989e-10
9.69887e-10
9.69886e-10
9.69887e-10
9.69897e-10
9.69933e-10
9.6998e-10
9.7004e-10
9.70113e-10
9.70201e-10
9.70304e-10
9.70423e-10
9.70559e-10
9.70711e-10
9.7088e-10
9.71065e-10
9.71265e-10
9.71481e-10
9.7171e-10
9.71952e-10
9.72206e-10
9.7247e-10
9.72744e-10
9.73025e-10
9.73312e-10
9.73605e-10
9.73901e-10
9.74199e-10
9.74498e-10
9.74798e-10
9.75097e-10
9.75395e-10
9.75691e-10
9.75984e-10
9.76274e-10
9.7656e-10
9.76841e-10
9.77117e-10
9.77388e-10
9.77652e-10
9.7791e-10
9.7816e-10
9.78402e-10
9.78636e-10
9.7886e-10
9.79074e-10
9.79277e-10
9.79469e-10
9.79649e-10
9.79814e-10
9.79965e-10
9.801e-10
9.80217e-10
9.80316e-10
9.80395e-10
9.80454e-10
9.80493e-10
9.80513e-10
9.8052e-10
9.80522e-10
9.80519e-10
9.80489e-10
9.8046e-10
9.80366e-10
9.80269e-10
9.80197e-10
9.80043e-10
9.79853e-10
9.79739e-10
9.79583e-10
9.79223e-10
9.79107e-10
9.79099e-10
9.81841e-10
9.92662e-10
1.08329e-09
1.11398e-09
1.11438e-09
1.11437e-09
1.11437e-09
1.11437e-09
1.11437e-09
1.11437e-09
1.11437e-09
1.11437e-09
1.11437e-09
1.11437e-09
1.11437e-09
1.11437e-09
1.11437e-09
1.11437e-09
1.11437e-09
1.11437e-09
1.11437e-09
1.11437e-09
1.11437e-09
1.11437e-09
1.11437e-09
1.11437e-09
1.11437e-09
1.11437e-09
1.11437e-09
1.11437e-09
1.11437e-09
1.11437e-09
1.11437e-09
1.11437e-09
1.11437e-09
1.11437e-09
1.11437e-09
1.11437e-09
1.11437e-09
1.11437e-09
1.11437e-09
1.11437e-09
1.11437e-09
1.11437e-09
1.11437e-09
1.11437e-09
1.11437e-09
1.11437e-09
1.11437e-09
1.11437e-09
1.11437e-09
1.11437e-09
1.11437e-09
1.11437e-09
1.11437e-09
1.11437e-09
1.11437e-09
1.11437e-09
1.11437e-09
1.11437e-09
1.11437e-09
1.11437e-09
1.11437e-09
1.11437e-09
1.11437e-09
1.11437e-09
1.11437e-09
1.11437e-09
1.11437e-09
1.11437e-09
1.11437e-09
1.11437e-09
1.11437e-09
1.11437e-09
1.11437e-09
1.11437e-09
1.11437e-09
1.11437e-09
1.11437e-09
1.11437e-09
1.11437e-09
1.11437e-09
1.11437e-09
1.11437e-09
1.11437e-09
1.11437e-09
1.11437e-09
1.11437e-09
1.11437e-09
1.11437e-09
1.11437e-09
1.11437e-09
1.11437e-09
1.11437e-09
1.11437e-09
1.11437e-09
1.11437e-09
1.11437e-09
1.11437e-09
1.11437e-09
1.11437e-09
1.11437e-09
1.11437e-09
1.11437e-09
1.11437e-09
1.11437e-09
1.11437e-09
1.11437e-09
1.11437e-09
1.11437e-09
1.11437e-09
1.11437e-09
1.11437e-09
1.11437e-09
1.11437e-09
1.11437e-09
1.11437e-09
1.11437e-09
1.11437e-09
1.11437e-09
1.11437e-09
1.11437e-09
1.11437e-09
1.11437e-09
1.11437e-09
1.11437e-09
1.11437e-09
1.11437e-09
1.11437e-09
1.11437e-09
1.11437e-09
1.11437e-09
1.11437e-09
1.11437e-09
1.11437e-09
1.11437e-09
1.11437e-09
1.11437e-09
1.11437e-09
1.11437e-09
1.11437e-09
1.11437e-09
1.11437e-09
1.11437e-09
1.11437e-09
1.11437e-09
1.11437e-09
1.11437e-09
1.11437e-09
1.11437e-09
1.11437e-09
1.11437e-09
1.11437e-09
1.11437e-09
1.11437e-09
1.11437e-09
1.11437e-09
1.11437e-09
1.11437e-09
1.11437e-09
1.11437e-09
1.11437e-09
1.11437e-09
1.11437e-09
1.11437e-09
1.11437e-09
1.11437e-09
1.11437e-09
1.11437e-09
1.11437e-09
1.11437e-09
1.11437e-09
1.11437e-09
1.11437e-09
1.11437e-09
1.11437e-09
1.11437e-09
1.11437e-09
1.11437e-09
1.11437e-09
1.11437e-09
1.11437e-09
1.11437e-09
1.11437e-09
1.11437e-09
1.11437e-09
1.11437e-09
1.11437e-09
1.11437e-09
1.11437e-09
1.11437e-09
1.11437e-09
1.11437e-09
1.11437e-09
1.11437e-09
1.11437e-09
1.11437e-09
1.11437e-09
1.11437e-09
1.11437e-09
1.11437e-09
1.11437e-09
1.11437e-09
1.11437e-09
1.11437e-09
1.11437e-09
1.11437e-09
1.11437e-09
1.11437e-09
1.11437e-09
1.11437e-09
1.11437e-09
1.11437e-09
1.11437e-09
1.11437e-09
1.11437e-09
1.11437e-09
1.11437e-09
1.11437e-09
1.11437e-09
1.11437e-09
1.11437e-09
1.11437e-09
1.11437e-09
1.11437e-09
1.11437e-09
1.11437e-09
1.11437e-09
1.11437e-09
1.11437e-09
1.11437e-09
1.11437e-09
1.11437e-09
1.11437e-09
1.11437e-09
1.11437e-09
1.11437e-09
1.11437e-09
1.11437e-09
1.11437e-09
1.11437e-09
1.11437e-09
1.11437e-09
1.11437e-09
1.11437e-09
1.11437e-09
1.11437e-09
1.11437e-09
1.11437e-09
1.11437e-09
1.11437e-09
1.11437e-09
1.11437e-09
1.11437e-09
1.11437e-09
1.11437e-09
1.11437e-09
1.11437e-09
1.11437e-09
1.11437e-09
1.11437e-09
1.11437e-09
1.11437e-09
1.11437e-09
1.11437e-09
1.11437e-09
1.11437e-09
1.11437e-09
1.11437e-09
1.11437e-09
1.11437e-09
1.11437e-09
1.11437e-09
1.11437e-09
1.11437e-09
1.11437e-09
1.11437e-09
1.11437e-09
1.11437e-09
1.11437e-09
1.11437e-09
1.11437e-09
1.11437e-09
1.11437e-09
1.11437e-09
1.11437e-09
1.11437e-09
1.11437e-09
1.11437e-09
1.11437e-09
1.11437e-09
1.11437e-09
1.11437e-09
1.11437e-09
1.11437e-09
1.11437e-09
1.11437e-09
1.11437e-09
1.11437e-09
1.11437e-09
1.11437e-09
1.11437e-09
1.11437e-09
1.11437e-09
1.11437e-09
1.11437e-09
1.11437e-09
1.11437e-09
1.11437e-09
1.11437e-09
1.11437e-09
1.11437e-09
1.11437e-09
1.11437e-09
1.11437e-09
1.11437e-09
1.11437e-09
1.11437e-09
1.11437e-09
1.11437e-09
1.11437e-09
1.11437e-09
1.11437e-09
1.11437e-09
1.11437e-09
1.11437e-09
1.11437e-09
1.11437e-09
1.11437e-09
1.11437e-09
1.11437e-09
1.11437e-09
1.11437e-09
1.11437e-09
1.11437e-09
1.11437e-09
1.11437e-09
1.11437e-09
1.11437e-09
1.11437e-09
1.11437e-09
1.11437e-09
1.11437e-09
1.11437e-09
1.11437e-09
1.11437e-09
1.11437e-09
1.11437e-09
1.11437e-09
1.11437e-09
1.11437e-09
1.11437e-09
1.11437e-09
1.11437e-09
1.11437e-09
1.11437e-09
1.11437e-09
1.11437e-09
1.11437e-09
1.11437e-09
1.11437e-09
1.11437e-09
1.11437e-09
1.11437e-09
1.11437e-09
1.11437e-09
1.11437e-09
1.11437e-09
1.11437e-09
1.11437e-09
1.11437e-09
1.11437e-09
1.11437e-09
1.11437e-09
1.11437e-09
1.11437e-09
1.11437e-09
1.11437e-09
1.11437e-09
1.11437e-09
1.11437e-09
1.11437e-09
1.11437e-09
1.11437e-09
1.11437e-09
1.11437e-09
1.11437e-09
1.11437e-09
1.11437e-09
1.11437e-09
1.11437e-09
1.11437e-09
1.11437e-09
1.11437e-09
1.11437e-09
1.11437e-09
1.11437e-09
1.11437e-09
1.11437e-09
1.11437e-09
1.11437e-09
1.11437e-09
1.11437e-09
1.11437e-09
1.11437e-09
1.11437e-09
1.11437e-09
1.11437e-09
1.11437e-09
1.11437e-09
1.11437e-09
1.11437e-09
1.11437e-09
1.11437e-09
1.11437e-09
1.11437e-09
1.11437e-09
1.11437e-09
1.11437e-09
1.11437e-09
1.11437e-09
1.11437e-09
1.11437e-09
1.11437e-09
1.11437e-09
1.11437e-09
1.11437e-09
1.11437e-09
1.11437e-09
1.11437e-09
1.11437e-09
1.11437e-09
1.11437e-09
1.11437e-09
1.11437e-09
1.11437e-09
1.11437e-09
1.11437e-09
1.11437e-09
1.11437e-09
1.11437e-09
1.11437e-09
1.11437e-09
1.11437e-09
1.11437e-09
1.11437e-09
1.11437e-09
1.11437e-09
1.11437e-09
1.11437e-09
1.11437e-09
1.11437e-09
1.11437e-09
1.11437e-09
1.11437e-09
1.11437e-09
1.11437e-09
1.11437e-09
1.11437e-09
1.11437e-09
1.11437e-09
1.11437e-09
1.11437e-09
1.11437e-09
1.11437e-09
1.11437e-09
1.11437e-09
1.11437e-09
1.11437e-09
1.11437e-09
1.11437e-09
1.11437e-09
1.11437e-09
1.11437e-09
1.11437e-09
1.11437e-09
1.11437e-09
1.11437e-09
1.11437e-09
1.11437e-09
1.11437e-09
1.11437e-09
1.11437e-09
1.11437e-09
1.11437e-09
1.11437e-09
1.11437e-09
1.11437e-09
1.11437e-09
1.11437e-09
1.11437e-09
1.11437e-09
1.11437e-09
1.11437e-09
1.11437e-09
1.11437e-09
1.11437e-09
1.11437e-09
1.11437e-09
1.11437e-09
1.11437e-09
1.11437e-09
1.11437e-09
1.11437e-09
1.11437e-09
1.11437e-09
1.11437e-09
1.11437e-09
1.11437e-09
1.11437e-09
1.11437e-09
1.11437e-09
1.11437e-09
1.11437e-09
1.11437e-09
1.11437e-09
1.11437e-09
1.11437e-09
1.11437e-09
1.11437e-09
1.11437e-09
1.11437e-09
1.11437e-09
1.11437e-09
1.11437e-09
1.11437e-09
1.11437e-09
1.11437e-09
1.11437e-09
1.11437e-09
1.11437e-09
1.11437e-09
1.11437e-09
1.11437e-09
1.11437e-09
1.11437e-09
1.11437e-09
1.11437e-09
1.11437e-09
1.11437e-09
1.11437e-09
1.11437e-09
1.11437e-09
1.11437e-09
1.11437e-09
1.11437e-09
1.11437e-09
1.11437e-09
1.11437e-09
1.11437e-09
1.11437e-09
1.11437e-09
1.11437e-09
1.11437e-09
1.11437e-09
1.11437e-09
1.11437e-09
1.11437e-09
1.11437e-09
1.11437e-09
1.11437e-09
1.11437e-09
1.11437e-09
1.11437e-09
1.11437e-09
1.11437e-09
1.11437e-09
1.11437e-09
1.11437e-09
1.11437e-09
1.11437e-09
1.11437e-09
1.11437e-09
1.11437e-09
1.11437e-09
1.11437e-09
1.11437e-09
1.11437e-09
1.11437e-09
1.11437e-09
1.11437e-09
1.11437e-09
1.11437e-09
1.11437e-09
1.11437e-09
1.11437e-09
1.11437e-09
1.11437e-09
1.11437e-09
1.11437e-09
1.11437e-09
1.11437e-09
1.11437e-09
1.11437e-09
1.11437e-09
1.11437e-09
1.11437e-09
1.11437e-09
1.11437e-09
1.11437e-09
1.11437e-09
1.11437e-09
1.11437e-09
1.11437e-09
1.11437e-09
1.11437e-09
1.11437e-09
1.11437e-09
1.11437e-09
1.11437e-09
1.11437e-09
1.11437e-09
1.11437e-09
1.11437e-09
1.11437e-09
1.11437e-09
1.11437e-09
1.11437e-09
1.11437e-09
1.11437e-09
1.11437e-09
1.11437e-09
1.11437e-09
1.11437e-09
1.11437e-09
1.11437e-09
1.11437e-09
1.11437e-09
1.11437e-09
1.11437e-09
1.11437e-09
1.11437e-09
1.11437e-09
1.11437e-09
1.11437e-09
1.11437e-09
1.11437e-09
1.11437e-09
1.11437e-09
1.11437e-09
1.11437e-09
1.11437e-09
1.11437e-09
1.11437e-09
1.11437e-09
1.11437e-09
1.11437e-09
1.11437e-09
1.11437e-09
1.11437e-09
1.11437e-09
1.11437e-09
1.11437e-09
1.11437e-09
1.11437e-09
1.11437e-09
1.11437e-09
1.11437e-09
1.11437e-09
1.11437e-09
1.11437e-09
1.11437e-09
1.11437e-09
1.11437e-09
1.11437e-09
1.11437e-09
1.11437e-09
1.11437e-09
1.11437e-09
1.11437e-09
1.11437e-09
1.11437e-09
1.11437e-09
1.11437e-09
1.11437e-09
1.11437e-09
1.11437e-09
1.11437e-09
1.11437e-09
1.11437e-09
1.11437e-09
1.11437e-09
1.11437e-09
1.11437e-09
1.11437e-09
1.11437e-09
1.11437e-09
1.11437e-09
1.11437e-09
1.11437e-09
1.11437e-09
1.11437e-09
1.11437e-09
1.11437e-09
1.11437e-09
1.11437e-09
1.11437e-09
1.11437e-09
1.11437e-09
1.11437e-09
1.11437e-09
1.11437e-09
1.11437e-09
1.11437e-09
1.11437e-09
1.11437e-09
1.11437e-09
1.11437e-09
1.11437e-09
1.11437e-09
1.11437e-09
1.11437e-09
1.11437e-09
1.11437e-09
1.11437e-09
1.11437e-09
1.11437e-09
1.11437e-09
1.11437e-09
1.11437e-09
1.11437e-09
1.11437e-09
1.11437e-09
1.11437e-09
1.11437e-09
1.11437e-09
1.11437e-09
1.11437e-09
1.11437e-09
1.11437e-09
1.11437e-09
1.11437e-09
1.11437e-09
1.11437e-09
1.11437e-09
1.11437e-09
1.11437e-09
1.11437e-09
1.11437e-09
1.11437e-09
1.11437e-09
1.11437e-09
1.11437e-09
1.11437e-09
1.11437e-09
1.11437e-09
1.11437e-09
1.11437e-09
1.11437e-09
1.11437e-09
1.11437e-09
1.11437e-09
1.11437e-09
1.11437e-09
1.11437e-09
1.11437e-09
1.11437e-09
1.11437e-09
1.11437e-09
1.11437e-09
1.11437e-09
1.11437e-09
1.11437e-09
1.11437e-09
1.11437e-09
1.11437e-09
1.11437e-09
1.11437e-09
1.11437e-09
1.11437e-09
1.11437e-09
1.11437e-09
1.11437e-09
1.11437e-09
1.11437e-09
1.11437e-09
1.11437e-09
1.11437e-09
1.11437e-09
1.11437e-09
1.11437e-09
1.11437e-09
1.11437e-09
1.11437e-09
1.11437e-09
1.11437e-09
1.11437e-09
1.11437e-09
1.11437e-09
1.11437e-09
1.11437e-09
1.11437e-09
1.11437e-09
1.11437e-09
1.11437e-09
1.11437e-09
1.11437e-09
1.11437e-09
1.11437e-09
1.11437e-09
1.11437e-09
1.11437e-09
1.11437e-09
1.11437e-09
1.11437e-09
1.11437e-09
1.11437e-09
1.11437e-09
1.11437e-09
1.11437e-09
1.11437e-09
1.11437e-09
1.11437e-09
1.11437e-09
1.11437e-09
)
;

boundaryField
{
    inlet
    {
        type            calculated;
        value           uniform 0;
    }
    outlet
    {
        type            calculated;
        value           uniform 1.11437e-09;
    }
    emptyWalls
    {
        type            empty;
        value           nonuniform List<scalar> 0();
    }
}


// ************************************************************************* //
