/*--------------------------------*- C++ -*----------------------------------*\
  =========                 |
  \\      /  F ield         | OpenFOAM: The Open Source CFD Toolbox
   \\    /   O peration     | Website:  https://openfoam.org
    \\  /    A nd           | Version:  9
     \\/     M anipulation  |
\*---------------------------------------------------------------------------*/
FoamFile
{
    format      ascii;
    class       volScalarField;
    location    "25050";
    object      Fb;
}
// * * * * * * * * * * * * * * * * * * * * * * * * * * * * * * * * * * * * * //

dimensions      [0 0 0 0 0 0 0];

internalField   nonuniform List<scalar> 
1000
(
0.80525
0.805144
0.80525
0.805164
0.805236
0.805206
0.805229
0.805246
0.805253
0.805271
0.80529
0.805297
0.80532
0.805339
0.805353
0.805396
0.805394
0.805469
0.805431
0.80555
0.805477
0.805611
0.805551
0.805645
0.805626
0.805672
0.805676
0.805703
0.805712
0.805734
0.805747
0.805772
0.805814
0.805981
0.806832
0.813051
0.830325
0.832875
0.833767
0.834237
0.834554
0.834798
0.835002
0.835178
0.835335
0.835477
0.835605
0.835722
0.83583
0.835928
0.836019
0.836101
0.836177
0.836245
0.836305
0.836362
0.836411
0.836452
0.836494
0.83653
0.836562
0.836589
0.836611
0.83663
0.836635
0.836646
0.836641
0.836645
0.836632
0.836639
0.836631
0.836642
0.836632
0.836626
0.83661
0.836588
0.836557
0.836518
0.836475
0.836431
0.83639
0.836354
0.836324
0.836296
0.836268
0.836233
0.836186
0.83612
0.836029
0.835907
0.835751
0.835558
0.835326
0.835015
0.834648
0.834309
0.833934
0.833559
0.833194
0.832825
0.832457
0.832095
0.831751
0.831436
0.831162
0.830936
0.830758
0.830624
0.830527
0.830457
0.830401
0.83035
0.830293
0.830222
0.830131
0.830017
0.829876
0.829708
0.829514
0.829297
0.829059
0.828804
0.828535
0.828256
0.827971
0.827682
0.827391
0.827102
0.826814
0.82653
0.826249
0.825971
0.825697
0.825426
0.825158
0.824891
0.824627
0.824363
0.8241
0.823838
0.823575
0.823313
0.823049
0.822786
0.822521
0.822256
0.821989
0.821722
0.821454
0.821184
0.820914
0.820642
0.820369
0.820095
0.81982
0.819544
0.819266
0.818987
0.818707
0.818425
0.818142
0.817858
0.817573
0.817286
0.816999
0.81671
0.81642
0.816129
0.815837
0.815543
0.815248
0.814952
0.814653
0.814354
0.814053
0.81375
0.813447
0.813142
0.812837
0.812531
0.812225
0.811919
0.811612
0.811304
0.810996
0.810687
0.810376
0.810064
0.809751
0.809436
0.80912
0.808802
0.808484
0.808165
0.807846
0.807527
0.807209
0.806893
0.806578
0.806263
0.805948
0.805632
0.805313
0.804989
0.804659
0.804321
0.803972
0.803613
0.803241
0.802858
0.802462
0.802054
0.801636
0.801207
0.800771
0.800329
0.799883
0.799435
0.798988
0.798545
0.798109
0.797683
0.797269
0.796871
0.79649
0.79613
0.79579
0.795473
0.795177
0.794903
0.794647
0.79441
0.794186
0.793974
0.79377
0.793571
0.793373
0.793173
0.792969
0.792758
0.792539
0.79231
0.792071
0.791822
0.791562
0.791292
0.791013
0.790725
0.79043
0.790129
0.789823
0.789513
0.7892
0.788884
0.788567
0.78825
0.787932
0.787615
0.787298
0.786982
0.786667
0.786353
0.786041
0.785729
0.785418
0.785107
0.784797
0.784488
0.784179
0.783871
0.783562
0.783253
0.782945
0.782636
0.782326
0.782016
0.781706
0.781395
0.781084
0.780771
0.780458
0.780145
0.77983
0.779515
0.779199
0.778882
0.778564
0.778246
0.777926
0.777606
0.777285
0.776963
0.77664
0.776317
0.775992
0.775666
0.77534
0.775013
0.774684
0.774355
0.774025
0.773694
0.773362
0.773029
0.772695
0.77236
0.772024
0.771688
0.771351
0.771013
0.770674
0.770335
0.769995
0.769655
0.769314
0.768972
0.76863
0.768287
0.767943
0.767599
0.767253
0.766907
0.766561
0.766214
0.765866
0.765519
0.765171
0.764822
0.764474
0.764125
0.763777
0.763428
0.763078
0.762727
0.762375
0.762021
0.761664
0.761305
0.760942
0.760574
0.760202
0.759825
0.759442
0.759053
0.758658
0.758257
0.75785
0.757436
0.757017
0.756593
0.756165
0.755733
0.755298
0.754862
0.754425
0.753989
0.753555
0.753124
0.752698
0.752279
0.751866
0.751463
0.751068
0.750684
0.750311
0.74995
0.7496
0.749261
0.748934
0.748617
0.74831
0.748012
0.74772
0.747435
0.747155
0.746877
0.746602
0.746327
0.746051
0.745773
0.745492
0.745208
0.744919
0.744626
0.744327
0.744023
0.743714
0.7434
0.743081
0.742757
0.742429
0.742098
0.741763
0.741425
0.741084
0.740742
0.740398
0.740052
0.739705
0.739358
0.73901
0.738662
0.738314
0.737966
0.737618
0.73727
0.736922
0.736575
0.736228
0.735881
0.735534
0.735187
0.734841
0.734494
0.734147
0.733801
0.733454
0.733107
0.732759
0.732412
0.732063
0.731715
0.731366
0.731017
0.730667
0.730316
0.729965
0.729614
0.729261
0.728908
0.728554
0.7282
0.727845
0.727489
0.727133
0.726776
0.726418
0.726059
0.725699
0.725339
0.724978
0.724616
0.724254
0.72389
0.723526
0.723161
0.722796
0.722429
0.722062
0.721694
0.721325
0.720955
0.720585
0.720214
0.719843
0.71947
0.719097
0.718724
0.718349
0.717974
0.717599
0.717222
0.716846
0.716468
0.71609
0.715712
0.715333
0.714953
0.714573
0.714192
0.713811
0.713429
0.713047
0.712665
0.712282
0.711899
0.711515
0.71113
0.710744
0.710358
0.709971
0.709582
0.709192
0.7088
0.708406
0.70801
0.707612
0.707211
0.706807
0.7064
0.705989
0.705575
0.705158
0.704736
0.704312
0.703883
0.703451
0.703016
0.702577
0.702136
0.701692
0.701246
0.700799
0.70035
0.699901
0.699452
0.699003
0.698556
0.698111
0.697669
0.697229
0.696794
0.696363
0.695938
0.695517
0.695103
0.694695
0.694293
0.693898
0.693509
0.693127
0.692751
0.692381
0.692016
0.691657
0.691302
0.690951
0.690603
0.690257
0.689914
0.689572
0.68923
0.688888
0.688545
0.688201
0.687856
0.687508
0.687158
0.686805
0.68645
0.686092
0.68573
0.685366
0.684999
0.684628
0.684256
0.68388
0.683502
0.683122
0.68274
0.682356
0.681971
0.681584
0.681196
0.680806
0.680416
0.680025
0.679633
0.679241
0.678848
0.678455
0.678062
0.677668
0.677275
0.676881
0.676486
0.676092
0.675697
0.675302
0.674907
0.674512
0.674116
0.673721
0.673324
0.672928
0.672531
0.672134
0.671736
0.671338
0.670939
0.67054
0.67014
0.66974
0.669338
0.668937
0.668535
0.668132
0.667728
0.667323
0.666918
0.666513
0.666106
0.665699
0.665291
0.664882
0.664472
0.664062
0.663651
0.663239
0.662826
0.662412
0.661998
0.661582
0.661166
0.660749
0.660332
0.659913
0.659494
0.659074
0.658653
0.658231
0.657809
0.657386
0.656962
0.656537
0.656111
0.655685
0.655258
0.654831
0.654402
0.653973
0.653543
0.653113
0.652682
0.65225
0.651817
0.651384
0.65095
0.650516
0.650081
0.649645
0.649209
0.648772
0.648334
0.647895
0.647456
0.647016
0.646575
0.646133
0.64569
0.645245
0.6448
0.644353
0.643905
0.643455
0.643004
0.64255
0.642095
0.641638
0.641178
0.640717
0.640253
0.639786
0.639317
0.638846
0.638372
0.637896
0.637418
0.636937
0.636454
0.635968
0.635481
0.634992
0.634502
0.63401
0.633517
0.633024
0.63253
0.632035
0.631541
0.631048
0.630555
0.630063
0.629573
0.629085
0.628599
0.628115
0.627634
0.627156
0.626682
0.62621
0.625742
0.625278
0.624817
0.62436
0.623907
0.623457
0.62301
0.622567
0.622126
0.621688
0.621253
0.62082
0.620388
0.619958
0.619529
0.6191
0.618672
0.618244
0.617815
0.617386
0.616956
0.616525
0.616092
0.615658
0.615222
0.614784
0.614344
0.613902
0.613458
0.613012
0.612564
0.612113
0.611661
0.611206
0.61075
0.610292
0.609832
0.609371
0.608908
0.608443
0.607977
0.60751
0.607042
0.606572
0.606101
0.60563
0.605157
0.604684
0.60421
0.603735
0.603259
0.602783
0.602306
0.601828
0.601349
0.60087
0.60039
0.59991
0.599429
0.598947
0.598464
0.597981
0.597497
0.597012
0.596526
0.59604
0.595552
0.595064
0.594575
0.594085
0.593595
0.593103
0.59261
0.592117
0.591622
0.591127
0.59063
0.590133
0.589634
0.589135
0.588634
0.588132
0.58763
0.587126
0.586621
0.586115
0.585608
0.5851
0.58459
0.58408
0.583568
0.583056
0.582542
0.582027
0.581511
0.580994
0.580475
0.579956
0.579435
0.578913
0.57839
0.577866
0.577341
0.576815
0.576287
0.575759
0.575229
0.574698
0.574166
0.573633
0.573099
0.572563
0.572027
0.571489
0.57095
0.57041
0.569869
0.569327
0.568783
0.568239
0.567693
0.567146
0.566598
0.566049
0.565498
0.564946
0.564393
0.563838
0.563283
0.562725
0.562166
0.561606
0.561043
0.56048
0.559914
0.559347
0.558777
0.558206
0.557633
0.557058
0.556481
0.555901
0.555319
0.554735
0.554149
0.553561
0.55297
0.552377
0.551781
0.551184
0.550583
0.549981
0.549377
0.54877
0.548162
0.547552
0.546939
0.546326
0.54571
0.545093
0.544474
0.543856
0.543234
0.542614
0.541991
0.54137
0.540746
0.540124
0.5395
0.538879
0.538254
0.537635
0.537011
0.536393
0.53577
0.535155
0.534533
0.53392
0.5333
0.532689
0.532072
0.531463
0.530847
0.53024
0.529626
0.52902
0.528407
0.527803
0.52719
0.526586
0.525973
0.525368
0.524755
0.524148
0.523534
0.522925
0.522308
0.521696
0.521077
0.52046
0.519838
0.519217
0.51859
0.517964
0.517333
0.516701
0.516066
0.515429
0.514788
0.514145
0.5135
0.512851
0.5122
0.511546
0.510889
0.51023
0.509568
0.508903
0.508236
0.507566
0.506894
0.506219
0.505541
0.504862
0.504179
0.503495
0.502808
0.502119
0.501427
0.500733
0.500037
0.499339
0.498639
0.497936
0.497231
0.496524
0.495815
0.495104
0.494391
0.493675
0.492958
0.492238
0.491516
0.490793
0.490067
0.48934
0.488611
0.487879
0.487147
0.486412
0.485676
0.484939
0.4842
0.48346
0.482719
0.481978
0.481236
0.480493
0.479751
0.479009
0.478268
0.477528
0.47679
0.476054
0.475321
0.474592
0.473867
0.473148
0.472435
0.471729
0.471032
0.470345
0.469668
0.469005
0.468355
0.467721
0.467104
0.466507
0.465929
0.465374
0.46484
0.464333
0.463849
0.463395
0.462966
0.462567
0.462194
0.461851
0.461534
0.461247
0.460985
0.460752
0.460539
0.460354
0.460184
0.460043
0.459909
0.459808
0.459702
0.459633
0.459551
0.459503
0.459442
0.459411
0.459364
0.459345
0.459309
0.459297
0.459264
0.459252
0.459213
0.459196
0.459115
0.45908
0.458849
0.458749
0.458167
0.457821
0.0132439
)
;

boundaryField
{
    inlet
    {
        type            calculated;
        value           uniform 0.805169;
    }
    outlet
    {
        type            calculated;
        value           uniform 0.0205804;
    }
    emptyWalls
    {
        type            empty;
    }
}


// ************************************************************************* //
