/*--------------------------------*- C++ -*----------------------------------*\
  =========                 |
  \\      /  F ield         | OpenFOAM: The Open Source CFD Toolbox
   \\    /   O peration     | Website:  https://openfoam.org
    \\  /    A nd           | Version:  9
     \\/     M anipulation  |
\*---------------------------------------------------------------------------*/
FoamFile
{
    format      ascii;
    class       surfaceScalarField;
    location    "25050";
    object      phib;
}
// * * * * * * * * * * * * * * * * * * * * * * * * * * * * * * * * * * * * * //

dimensions      [0 2 0 0 0 0 0];

internalField   nonuniform List<scalar> 
999
(
1.13621e-09
1.13621e-09
1.13623e-09
1.13622e-09
1.13625e-09
1.13624e-09
1.13627e-09
1.13629e-09
1.1363e-09
1.13633e-09
1.13635e-09
1.13637e-09
1.1364e-09
1.13642e-09
1.13646e-09
1.13649e-09
1.13654e-09
1.13657e-09
1.13663e-09
1.13666e-09
1.1367e-09
1.13676e-09
1.13678e-09
1.13683e-09
1.13685e-09
1.13689e-09
1.13691e-09
1.13693e-09
1.13696e-09
1.13698e-09
1.13701e-09
1.13705e-09
1.1372e-09
1.13777e-09
1.14049e-09
1.16429e-09
1.1736e-09
1.17591e-09
1.17686e-09
1.17742e-09
1.17781e-09
1.17813e-09
1.1784e-09
1.17863e-09
1.17884e-09
1.17903e-09
1.17921e-09
1.17936e-09
1.17951e-09
1.17964e-09
1.17976e-09
1.17988e-09
1.17998e-09
1.18007e-09
1.18015e-09
1.18023e-09
1.18029e-09
1.18035e-09
1.1804e-09
1.18045e-09
1.18049e-09
1.18053e-09
1.18056e-09
1.18057e-09
1.18058e-09
1.18059e-09
1.18059e-09
1.18058e-09
1.18058e-09
1.18058e-09
1.18058e-09
1.18058e-09
1.18057e-09
1.18055e-09
1.18052e-09
1.18049e-09
1.18044e-09
1.18038e-09
1.18032e-09
1.18026e-09
1.18021e-09
1.18016e-09
1.18012e-09
1.18008e-09
1.18003e-09
1.17998e-09
1.1799e-09
1.17978e-09
1.17963e-09
1.17944e-09
1.17919e-09
1.17889e-09
1.17854e-09
1.17803e-09
1.17753e-09
1.17702e-09
1.17649e-09
1.17598e-09
1.17546e-09
1.17494e-09
1.17443e-09
1.17393e-09
1.17346e-09
1.17305e-09
1.17269e-09
1.17241e-09
1.17219e-09
1.17203e-09
1.17191e-09
1.17182e-09
1.17174e-09
1.17167e-09
1.17158e-09
1.17146e-09
1.17132e-09
1.17114e-09
1.17092e-09
1.17066e-09
1.17037e-09
1.17005e-09
1.16971e-09
1.16934e-09
1.16895e-09
1.16855e-09
1.16815e-09
1.16774e-09
1.16733e-09
1.16692e-09
1.16652e-09
1.16612e-09
1.16572e-09
1.16534e-09
1.16495e-09
1.16457e-09
1.16419e-09
1.16382e-09
1.16345e-09
1.16307e-09
1.1627e-09
1.16233e-09
1.16196e-09
1.16159e-09
1.16122e-09
1.16085e-09
1.16047e-09
1.1601e-09
1.15972e-09
1.15934e-09
1.15896e-09
1.15858e-09
1.1582e-09
1.15782e-09
1.15743e-09
1.15704e-09
1.15665e-09
1.15626e-09
1.15587e-09
1.15547e-09
1.15508e-09
1.15468e-09
1.15428e-09
1.15388e-09
1.15347e-09
1.15307e-09
1.15266e-09
1.15226e-09
1.15185e-09
1.15143e-09
1.15102e-09
1.1506e-09
1.15019e-09
1.14977e-09
1.14935e-09
1.14892e-09
1.1485e-09
1.14807e-09
1.14764e-09
1.14721e-09
1.14678e-09
1.14635e-09
1.14592e-09
1.14548e-09
1.14505e-09
1.14461e-09
1.14418e-09
1.14374e-09
1.1433e-09
1.14286e-09
1.14242e-09
1.14197e-09
1.14152e-09
1.14108e-09
1.14063e-09
1.14018e-09
1.13973e-09
1.13928e-09
1.13883e-09
1.13838e-09
1.13794e-09
1.1375e-09
1.13705e-09
1.1366e-09
1.13615e-09
1.13569e-09
1.13522e-09
1.13473e-09
1.13423e-09
1.13372e-09
1.13318e-09
1.13263e-09
1.13207e-09
1.13148e-09
1.13089e-09
1.13028e-09
1.12966e-09
1.12903e-09
1.1284e-09
1.12777e-09
1.12714e-09
1.12652e-09
1.12591e-09
1.12532e-09
1.12475e-09
1.1242e-09
1.12367e-09
1.12318e-09
1.12272e-09
1.12228e-09
1.12188e-09
1.12151e-09
1.12116e-09
1.12083e-09
1.12053e-09
1.12023e-09
1.11995e-09
1.11967e-09
1.11939e-09
1.1191e-09
1.11881e-09
1.11851e-09
1.11819e-09
1.11786e-09
1.11752e-09
1.11716e-09
1.11678e-09
1.1164e-09
1.116e-09
1.11558e-09
1.11516e-09
1.11474e-09
1.1143e-09
1.11386e-09
1.11342e-09
1.11297e-09
1.11252e-09
1.11208e-09
1.11163e-09
1.11118e-09
1.11073e-09
1.11029e-09
1.10985e-09
1.1094e-09
1.10896e-09
1.10852e-09
1.10808e-09
1.10765e-09
1.10721e-09
1.10677e-09
1.10634e-09
1.1059e-09
1.10547e-09
1.10503e-09
1.1046e-09
1.10416e-09
1.10372e-09
1.10328e-09
1.10285e-09
1.10241e-09
1.10197e-09
1.10153e-09
1.10108e-09
1.10064e-09
1.1002e-09
1.09975e-09
1.0993e-09
1.09886e-09
1.09841e-09
1.09796e-09
1.09751e-09
1.09705e-09
1.0966e-09
1.09615e-09
1.09569e-09
1.09523e-09
1.09477e-09
1.09431e-09
1.09385e-09
1.09339e-09
1.09292e-09
1.09246e-09
1.09199e-09
1.09153e-09
1.09106e-09
1.09059e-09
1.09011e-09
1.08964e-09
1.08917e-09
1.08869e-09
1.08821e-09
1.08774e-09
1.08726e-09
1.08678e-09
1.0863e-09
1.08582e-09
1.08534e-09
1.08486e-09
1.08437e-09
1.08389e-09
1.0834e-09
1.08291e-09
1.08243e-09
1.08194e-09
1.08145e-09
1.08096e-09
1.08047e-09
1.07998e-09
1.07949e-09
1.079e-09
1.0785e-09
1.07801e-09
1.07752e-09
1.07703e-09
1.07653e-09
1.07604e-09
1.07554e-09
1.07504e-09
1.07453e-09
1.07402e-09
1.07351e-09
1.07298e-09
1.07246e-09
1.07192e-09
1.07137e-09
1.07082e-09
1.07026e-09
1.06969e-09
1.06911e-09
1.06852e-09
1.06793e-09
1.06733e-09
1.06672e-09
1.06611e-09
1.06549e-09
1.06488e-09
1.06426e-09
1.06365e-09
1.06304e-09
1.06243e-09
1.06184e-09
1.06125e-09
1.06067e-09
1.06011e-09
1.05956e-09
1.05903e-09
1.05851e-09
1.05801e-09
1.05752e-09
1.05705e-09
1.0566e-09
1.05616e-09
1.05573e-09
1.05531e-09
1.05491e-09
1.05451e-09
1.05411e-09
1.05372e-09
1.05334e-09
1.05295e-09
1.05256e-09
1.05216e-09
1.05176e-09
1.05136e-09
1.05095e-09
1.05053e-09
1.05011e-09
1.04967e-09
1.04923e-09
1.04879e-09
1.04833e-09
1.04787e-09
1.04741e-09
1.04694e-09
1.04646e-09
1.04598e-09
1.0455e-09
1.04502e-09
1.04453e-09
1.04404e-09
1.04355e-09
1.04306e-09
1.04257e-09
1.04208e-09
1.04159e-09
1.0411e-09
1.04061e-09
1.04012e-09
1.03963e-09
1.03914e-09
1.03865e-09
1.03816e-09
1.03767e-09
1.03718e-09
1.03669e-09
1.0362e-09
1.03571e-09
1.03522e-09
1.03473e-09
1.03424e-09
1.03375e-09
1.03326e-09
1.03277e-09
1.03228e-09
1.03178e-09
1.03129e-09
1.0308e-09
1.0303e-09
1.02981e-09
1.02931e-09
1.02881e-09
1.02831e-09
1.02781e-09
1.02731e-09
1.02681e-09
1.02631e-09
1.02581e-09
1.0253e-09
1.02479e-09
1.02429e-09
1.02378e-09
1.02327e-09
1.02276e-09
1.02225e-09
1.02174e-09
1.02123e-09
1.02071e-09
1.0202e-09
1.01968e-09
1.01916e-09
1.01864e-09
1.01812e-09
1.0176e-09
1.01708e-09
1.01656e-09
1.01603e-09
1.01551e-09
1.01498e-09
1.01445e-09
1.01393e-09
1.0134e-09
1.01287e-09
1.01234e-09
1.01181e-09
1.01127e-09
1.01074e-09
1.01021e-09
1.00967e-09
1.00914e-09
1.0086e-09
1.00807e-09
1.00753e-09
1.00699e-09
1.00645e-09
1.00591e-09
1.00537e-09
1.00483e-09
1.00429e-09
1.00375e-09
1.0032e-09
1.00266e-09
1.00211e-09
1.00157e-09
1.00102e-09
1.00046e-09
9.9991e-10
9.99353e-10
9.98792e-10
9.98228e-10
9.9766e-10
9.97088e-10
9.96511e-10
9.95929e-10
9.95343e-10
9.94751e-10
9.94154e-10
9.93552e-10
9.92945e-10
9.92333e-10
9.91716e-10
9.91096e-10
9.90471e-10
9.89843e-10
9.89213e-10
9.88581e-10
9.87947e-10
9.87313e-10
9.8668e-10
9.86048e-10
9.85419e-10
9.84792e-10
9.8417e-10
9.83553e-10
9.82942e-10
9.82338e-10
9.81741e-10
9.81152e-10
9.80572e-10
9.80001e-10
9.79438e-10
9.78885e-10
9.78341e-10
9.77806e-10
9.7728e-10
9.76762e-10
9.76251e-10
9.75747e-10
9.75249e-10
9.74755e-10
9.74266e-10
9.7378e-10
9.73296e-10
9.72813e-10
9.72331e-10
9.71848e-10
9.71364e-10
9.70877e-10
9.70388e-10
9.69896e-10
9.694e-10
9.689e-10
9.68397e-10
9.67889e-10
9.67377e-10
9.66861e-10
9.6634e-10
9.65816e-10
9.65288e-10
9.64757e-10
9.64222e-10
9.63684e-10
9.63144e-10
9.62601e-10
9.62056e-10
9.61509e-10
9.60961e-10
9.60411e-10
9.59859e-10
9.59307e-10
9.58754e-10
9.582e-10
9.57646e-10
9.57091e-10
9.56536e-10
9.5598e-10
9.55424e-10
9.54868e-10
9.54312e-10
9.53755e-10
9.53198e-10
9.52641e-10
9.52083e-10
9.51525e-10
9.50967e-10
9.50408e-10
9.49849e-10
9.49289e-10
9.48728e-10
9.48167e-10
9.47606e-10
9.47044e-10
9.4648e-10
9.45917e-10
9.45352e-10
9.44787e-10
9.4422e-10
9.43653e-10
9.43085e-10
9.42516e-10
9.41946e-10
9.41375e-10
9.40802e-10
9.40229e-10
9.39655e-10
9.3908e-10
9.38503e-10
9.37926e-10
9.37347e-10
9.36768e-10
9.36187e-10
9.35605e-10
9.35022e-10
9.34437e-10
9.33852e-10
9.33265e-10
9.32678e-10
9.32089e-10
9.31499e-10
9.30908e-10
9.30316e-10
9.29722e-10
9.29128e-10
9.28532e-10
9.27936e-10
9.27338e-10
9.26739e-10
9.26139e-10
9.25538e-10
9.24936e-10
9.24333e-10
9.23729e-10
9.23124e-10
9.22518e-10
9.21911e-10
9.21303e-10
9.20695e-10
9.20085e-10
9.19474e-10
9.18862e-10
9.1825e-10
9.17636e-10
9.17022e-10
9.16407e-10
9.1579e-10
9.15173e-10
9.14555e-10
9.13935e-10
9.13315e-10
9.12693e-10
9.1207e-10
9.11445e-10
9.10819e-10
9.10192e-10
9.09562e-10
9.08931e-10
9.08297e-10
9.07661e-10
9.07023e-10
9.06382e-10
9.05738e-10
9.05091e-10
9.04441e-10
9.03788e-10
9.03131e-10
9.02472e-10
9.01808e-10
9.01142e-10
9.00471e-10
8.99798e-10
8.99121e-10
8.98441e-10
8.97757e-10
8.97071e-10
8.96383e-10
8.95692e-10
8.94999e-10
8.94304e-10
8.93608e-10
8.92911e-10
8.92214e-10
8.91516e-10
8.9082e-10
8.90124e-10
8.89429e-10
8.88737e-10
8.88046e-10
8.87359e-10
8.86675e-10
8.85994e-10
8.85318e-10
8.84645e-10
8.83978e-10
8.83315e-10
8.82657e-10
8.82005e-10
8.81357e-10
8.80715e-10
8.80077e-10
8.79445e-10
8.78817e-10
8.78193e-10
8.77574e-10
8.76958e-10
8.76345e-10
8.75734e-10
8.75126e-10
8.7452e-10
8.73915e-10
8.73311e-10
8.72706e-10
8.72102e-10
8.71497e-10
8.7089e-10
8.70283e-10
8.69673e-10
8.69061e-10
8.68447e-10
8.67831e-10
8.67211e-10
8.66589e-10
8.65964e-10
8.65336e-10
8.64705e-10
8.64071e-10
8.63434e-10
8.62794e-10
8.62151e-10
8.61506e-10
8.60859e-10
8.60209e-10
8.59556e-10
8.58902e-10
8.58245e-10
8.57587e-10
8.56927e-10
8.56265e-10
8.55602e-10
8.54937e-10
8.54271e-10
8.53604e-10
8.52935e-10
8.52266e-10
8.51595e-10
8.50923e-10
8.5025e-10
8.49577e-10
8.48902e-10
8.48226e-10
8.4755e-10
8.46872e-10
8.46193e-10
8.45514e-10
8.44833e-10
8.44152e-10
8.43469e-10
8.42785e-10
8.42101e-10
8.41415e-10
8.40728e-10
8.4004e-10
8.3935e-10
8.3866e-10
8.37968e-10
8.37275e-10
8.3658e-10
8.35884e-10
8.35187e-10
8.34489e-10
8.33789e-10
8.33088e-10
8.32385e-10
8.31681e-10
8.30975e-10
8.30268e-10
8.29559e-10
8.28849e-10
8.28137e-10
8.27424e-10
8.26709e-10
8.25993e-10
8.25275e-10
8.24555e-10
8.23834e-10
8.23112e-10
8.22388e-10
8.21662e-10
8.20934e-10
8.20205e-10
8.19475e-10
8.18742e-10
8.18008e-10
8.17273e-10
8.16536e-10
8.15797e-10
8.15057e-10
8.14315e-10
8.13571e-10
8.12826e-10
8.12079e-10
8.11331e-10
8.10581e-10
8.0983e-10
8.09076e-10
8.08322e-10
8.07565e-10
8.06807e-10
8.06048e-10
8.05287e-10
8.04524e-10
8.0376e-10
8.02994e-10
8.02226e-10
8.01457e-10
8.00686e-10
7.99914e-10
7.99139e-10
7.98363e-10
7.97585e-10
7.96806e-10
7.96024e-10
7.9524e-10
7.94455e-10
7.93667e-10
7.92877e-10
7.92085e-10
7.91291e-10
7.90494e-10
7.89694e-10
7.88893e-10
7.88088e-10
7.87281e-10
7.8647e-10
7.85657e-10
7.84841e-10
7.84022e-10
7.83199e-10
7.82374e-10
7.81545e-10
7.80713e-10
7.79877e-10
7.79039e-10
7.78197e-10
7.77352e-10
7.76504e-10
7.75652e-10
7.74798e-10
7.73941e-10
7.73081e-10
7.72218e-10
7.71353e-10
7.70486e-10
7.69616e-10
7.68744e-10
7.67871e-10
7.66996e-10
7.6612e-10
7.65243e-10
7.64365e-10
7.63487e-10
7.62608e-10
7.61729e-10
7.6085e-10
7.59972e-10
7.59094e-10
7.58217e-10
7.5734e-10
7.56465e-10
7.55591e-10
7.54719e-10
7.53847e-10
7.52977e-10
7.52109e-10
7.51242e-10
7.50377e-10
7.49513e-10
7.4865e-10
7.47789e-10
7.46928e-10
7.46068e-10
7.45209e-10
7.4435e-10
7.43492e-10
7.42633e-10
7.41774e-10
7.40915e-10
7.40054e-10
7.39193e-10
7.38329e-10
7.37465e-10
7.36597e-10
7.35728e-10
7.34857e-10
7.33982e-10
7.33105e-10
7.32225e-10
7.31341e-10
7.30454e-10
7.29563e-10
7.28669e-10
7.27771e-10
7.2687e-10
7.25964e-10
7.25055e-10
7.24142e-10
7.23225e-10
7.22304e-10
7.21379e-10
7.20451e-10
7.19518e-10
7.18582e-10
7.17643e-10
7.16699e-10
7.15752e-10
7.14802e-10
7.13847e-10
7.1289e-10
7.11929e-10
7.10965e-10
7.09997e-10
7.09026e-10
7.08052e-10
7.07075e-10
7.06094e-10
7.0511e-10
7.04124e-10
7.03134e-10
7.0214e-10
7.01144e-10
7.00145e-10
6.99143e-10
6.98138e-10
6.9713e-10
6.96119e-10
6.95105e-10
6.94088e-10
6.93068e-10
6.92046e-10
6.91021e-10
6.89993e-10
6.88963e-10
6.8793e-10
6.86895e-10
6.85857e-10
6.84818e-10
6.83776e-10
6.82733e-10
6.81688e-10
6.80642e-10
6.79596e-10
6.78548e-10
6.77501e-10
6.76454e-10
6.75407e-10
6.74362e-10
6.73319e-10
6.72279e-10
6.71243e-10
6.70212e-10
6.69186e-10
6.68167e-10
6.67156e-10
6.66155e-10
6.65165e-10
6.64188e-10
6.63226e-10
6.62281e-10
6.61355e-10
6.60449e-10
6.59566e-10
6.58709e-10
6.5788e-10
6.5708e-10
6.56312e-10
6.55578e-10
6.54879e-10
6.54217e-10
6.53593e-10
6.53009e-10
6.52465e-10
6.5196e-10
6.51495e-10
6.51069e-10
6.50681e-10
6.50332e-10
6.50016e-10
6.49736e-10
6.49485e-10
6.49266e-10
6.49073e-10
6.48907e-10
6.48761e-10
6.48637e-10
6.4853e-10
6.48438e-10
6.48361e-10
6.48297e-10
6.48242e-10
6.48196e-10
6.48156e-10
6.48122e-10
6.4809e-10
6.48059e-10
6.48027e-10
6.47983e-10
6.47933e-10
6.47832e-10
6.47706e-10
6.47411e-10
6.47033e-10
6.46213e-10
6.45041e-10
)
;

boundaryField
{
    inlet
    {
        type            calculated;
        value           uniform -1.13622e-09;
    }
    outlet
    {
        type            calculated;
        value           uniform 2.90409e-11;
    }
    emptyWalls
    {
        type            empty;
        value           nonuniform List<scalar> 0();
    }
}


// ************************************************************************* //
