/*--------------------------------*- C++ -*----------------------------------*\
  =========                 |
  \\      /  F ield         | OpenFOAM: The Open Source CFD Toolbox
   \\    /   O peration     | Website:  https://openfoam.org
    \\  /    A nd           | Version:  9
     \\/     M anipulation  |
\*---------------------------------------------------------------------------*/
FoamFile
{
    format      ascii;
    class       volVectorField;
    location    "25050";
    object      Ub;
}
// * * * * * * * * * * * * * * * * * * * * * * * * * * * * * * * * * * * * * //

dimensions      [0 0 0 0 0 0 0];

internalField   nonuniform List<vector> 
1000
(
(1.13619e-05 0 0)
(1.13621e-05 0 0)
(1.13622e-05 0 0)
(1.13622e-05 0 0)
(1.13623e-05 0 0)
(1.13624e-05 0 0)
(1.13626e-05 0 0)
(1.13628e-05 0 0)
(1.1363e-05 0 0)
(1.13632e-05 0 0)
(1.13634e-05 0 0)
(1.13636e-05 0 0)
(1.13639e-05 0 0)
(1.13641e-05 0 0)
(1.13644e-05 0 0)
(1.13648e-05 0 0)
(1.13652e-05 0 0)
(1.13656e-05 0 0)
(1.1366e-05 0 0)
(1.13664e-05 0 0)
(1.13668e-05 0 0)
(1.13673e-05 0 0)
(1.13677e-05 0 0)
(1.13681e-05 0 0)
(1.13684e-05 0 0)
(1.13687e-05 0 0)
(1.1369e-05 0 0)
(1.13692e-05 0 0)
(1.13694e-05 0 0)
(1.13697e-05 0 0)
(1.13699e-05 0 0)
(1.13703e-05 0 0)
(1.13713e-05 0 0)
(1.13749e-05 0 0)
(1.13913e-05 0 0)
(1.15239e-05 0 0)
(1.16894e-05 0 0)
(1.17476e-05 0 0)
(1.17639e-05 0 0)
(1.17714e-05 0 0)
(1.17761e-05 0 0)
(1.17797e-05 0 0)
(1.17826e-05 0 0)
(1.17851e-05 0 0)
(1.17874e-05 0 0)
(1.17894e-05 0 0)
(1.17912e-05 0 0)
(1.17928e-05 0 0)
(1.17944e-05 0 0)
(1.17958e-05 0 0)
(1.1797e-05 0 0)
(1.17982e-05 0 0)
(1.17993e-05 0 0)
(1.18002e-05 0 0)
(1.18011e-05 0 0)
(1.18019e-05 0 0)
(1.18026e-05 0 0)
(1.18032e-05 0 0)
(1.18037e-05 0 0)
(1.18043e-05 0 0)
(1.18047e-05 0 0)
(1.18051e-05 0 0)
(1.18054e-05 0 0)
(1.18056e-05 0 0)
(1.18058e-05 0 0)
(1.18059e-05 0 0)
(1.18059e-05 0 0)
(1.18058e-05 0 0)
(1.18058e-05 0 0)
(1.18058e-05 0 0)
(1.18058e-05 0 0)
(1.18058e-05 0 0)
(1.18057e-05 0 0)
(1.18056e-05 0 0)
(1.18054e-05 0 0)
(1.18051e-05 0 0)
(1.18046e-05 0 0)
(1.18041e-05 0 0)
(1.18035e-05 0 0)
(1.18029e-05 0 0)
(1.18023e-05 0 0)
(1.18018e-05 0 0)
(1.18014e-05 0 0)
(1.1801e-05 0 0)
(1.18006e-05 0 0)
(1.18e-05 0 0)
(1.17994e-05 0 0)
(1.17984e-05 0 0)
(1.17971e-05 0 0)
(1.17954e-05 0 0)
(1.17932e-05 0 0)
(1.17904e-05 0 0)
(1.17872e-05 0 0)
(1.17829e-05 0 0)
(1.17778e-05 0 0)
(1.17728e-05 0 0)
(1.17675e-05 0 0)
(1.17623e-05 0 0)
(1.17572e-05 0 0)
(1.1752e-05 0 0)
(1.17468e-05 0 0)
(1.17418e-05 0 0)
(1.17369e-05 0 0)
(1.17325e-05 0 0)
(1.17287e-05 0 0)
(1.17255e-05 0 0)
(1.1723e-05 0 0)
(1.17211e-05 0 0)
(1.17197e-05 0 0)
(1.17186e-05 0 0)
(1.17178e-05 0 0)
(1.17171e-05 0 0)
(1.17162e-05 0 0)
(1.17152e-05 0 0)
(1.17139e-05 0 0)
(1.17123e-05 0 0)
(1.17103e-05 0 0)
(1.17079e-05 0 0)
(1.17052e-05 0 0)
(1.17021e-05 0 0)
(1.16988e-05 0 0)
(1.16952e-05 0 0)
(1.16914e-05 0 0)
(1.16875e-05 0 0)
(1.16835e-05 0 0)
(1.16794e-05 0 0)
(1.16753e-05 0 0)
(1.16712e-05 0 0)
(1.16672e-05 0 0)
(1.16632e-05 0 0)
(1.16592e-05 0 0)
(1.16553e-05 0 0)
(1.16514e-05 0 0)
(1.16476e-05 0 0)
(1.16438e-05 0 0)
(1.16401e-05 0 0)
(1.16363e-05 0 0)
(1.16326e-05 0 0)
(1.16289e-05 0 0)
(1.16252e-05 0 0)
(1.16215e-05 0 0)
(1.16178e-05 0 0)
(1.16141e-05 0 0)
(1.16103e-05 0 0)
(1.16066e-05 0 0)
(1.16029e-05 0 0)
(1.15991e-05 0 0)
(1.15953e-05 0 0)
(1.15915e-05 0 0)
(1.15877e-05 0 0)
(1.15839e-05 0 0)
(1.15801e-05 0 0)
(1.15762e-05 0 0)
(1.15724e-05 0 0)
(1.15685e-05 0 0)
(1.15646e-05 0 0)
(1.15607e-05 0 0)
(1.15567e-05 0 0)
(1.15528e-05 0 0)
(1.15488e-05 0 0)
(1.15448e-05 0 0)
(1.15408e-05 0 0)
(1.15368e-05 0 0)
(1.15327e-05 0 0)
(1.15287e-05 0 0)
(1.15246e-05 0 0)
(1.15205e-05 0 0)
(1.15164e-05 0 0)
(1.15123e-05 0 0)
(1.15081e-05 0 0)
(1.1504e-05 0 0)
(1.14998e-05 0 0)
(1.14956e-05 0 0)
(1.14913e-05 0 0)
(1.14871e-05 0 0)
(1.14828e-05 0 0)
(1.14785e-05 0 0)
(1.14743e-05 0 0)
(1.14699e-05 0 0)
(1.14656e-05 0 0)
(1.14613e-05 0 0)
(1.1457e-05 0 0)
(1.14527e-05 0 0)
(1.14483e-05 0 0)
(1.1444e-05 0 0)
(1.14396e-05 0 0)
(1.14352e-05 0 0)
(1.14308e-05 0 0)
(1.14264e-05 0 0)
(1.14219e-05 0 0)
(1.14175e-05 0 0)
(1.1413e-05 0 0)
(1.14085e-05 0 0)
(1.1404e-05 0 0)
(1.13995e-05 0 0)
(1.1395e-05 0 0)
(1.13905e-05 0 0)
(1.13861e-05 0 0)
(1.13816e-05 0 0)
(1.13772e-05 0 0)
(1.13727e-05 0 0)
(1.13683e-05 0 0)
(1.13638e-05 0 0)
(1.13592e-05 0 0)
(1.13545e-05 0 0)
(1.13497e-05 0 0)
(1.13448e-05 0 0)
(1.13397e-05 0 0)
(1.13345e-05 0 0)
(1.13291e-05 0 0)
(1.13235e-05 0 0)
(1.13177e-05 0 0)
(1.13118e-05 0 0)
(1.13058e-05 0 0)
(1.12997e-05 0 0)
(1.12934e-05 0 0)
(1.12871e-05 0 0)
(1.12808e-05 0 0)
(1.12745e-05 0 0)
(1.12683e-05 0 0)
(1.12622e-05 0 0)
(1.12561e-05 0 0)
(1.12503e-05 0 0)
(1.12447e-05 0 0)
(1.12393e-05 0 0)
(1.12343e-05 0 0)
(1.12295e-05 0 0)
(1.1225e-05 0 0)
(1.12208e-05 0 0)
(1.12169e-05 0 0)
(1.12133e-05 0 0)
(1.121e-05 0 0)
(1.12068e-05 0 0)
(1.12038e-05 0 0)
(1.12009e-05 0 0)
(1.11981e-05 0 0)
(1.11953e-05 0 0)
(1.11925e-05 0 0)
(1.11896e-05 0 0)
(1.11866e-05 0 0)
(1.11835e-05 0 0)
(1.11803e-05 0 0)
(1.11769e-05 0 0)
(1.11734e-05 0 0)
(1.11697e-05 0 0)
(1.11659e-05 0 0)
(1.1162e-05 0 0)
(1.11579e-05 0 0)
(1.11537e-05 0 0)
(1.11495e-05 0 0)
(1.11452e-05 0 0)
(1.11408e-05 0 0)
(1.11364e-05 0 0)
(1.11319e-05 0 0)
(1.11275e-05 0 0)
(1.1123e-05 0 0)
(1.11185e-05 0 0)
(1.1114e-05 0 0)
(1.11096e-05 0 0)
(1.11051e-05 0 0)
(1.11007e-05 0 0)
(1.10962e-05 0 0)
(1.10918e-05 0 0)
(1.10874e-05 0 0)
(1.1083e-05 0 0)
(1.10787e-05 0 0)
(1.10743e-05 0 0)
(1.10699e-05 0 0)
(1.10656e-05 0 0)
(1.10612e-05 0 0)
(1.10568e-05 0 0)
(1.10525e-05 0 0)
(1.10481e-05 0 0)
(1.10438e-05 0 0)
(1.10394e-05 0 0)
(1.1035e-05 0 0)
(1.10307e-05 0 0)
(1.10263e-05 0 0)
(1.10219e-05 0 0)
(1.10175e-05 0 0)
(1.1013e-05 0 0)
(1.10086e-05 0 0)
(1.10042e-05 0 0)
(1.09997e-05 0 0)
(1.09953e-05 0 0)
(1.09908e-05 0 0)
(1.09863e-05 0 0)
(1.09818e-05 0 0)
(1.09773e-05 0 0)
(1.09728e-05 0 0)
(1.09683e-05 0 0)
(1.09637e-05 0 0)
(1.09592e-05 0 0)
(1.09546e-05 0 0)
(1.095e-05 0 0)
(1.09454e-05 0 0)
(1.09408e-05 0 0)
(1.09362e-05 0 0)
(1.09316e-05 0 0)
(1.09269e-05 0 0)
(1.09223e-05 0 0)
(1.09176e-05 0 0)
(1.09129e-05 0 0)
(1.09082e-05 0 0)
(1.09035e-05 0 0)
(1.08988e-05 0 0)
(1.0894e-05 0 0)
(1.08893e-05 0 0)
(1.08845e-05 0 0)
(1.08798e-05 0 0)
(1.0875e-05 0 0)
(1.08702e-05 0 0)
(1.08654e-05 0 0)
(1.08606e-05 0 0)
(1.08558e-05 0 0)
(1.0851e-05 0 0)
(1.08461e-05 0 0)
(1.08413e-05 0 0)
(1.08364e-05 0 0)
(1.08316e-05 0 0)
(1.08267e-05 0 0)
(1.08218e-05 0 0)
(1.08169e-05 0 0)
(1.0812e-05 0 0)
(1.08071e-05 0 0)
(1.08022e-05 0 0)
(1.07973e-05 0 0)
(1.07924e-05 0 0)
(1.07875e-05 0 0)
(1.07826e-05 0 0)
(1.07777e-05 0 0)
(1.07727e-05 0 0)
(1.07678e-05 0 0)
(1.07628e-05 0 0)
(1.07579e-05 0 0)
(1.07529e-05 0 0)
(1.07478e-05 0 0)
(1.07428e-05 0 0)
(1.07376e-05 0 0)
(1.07324e-05 0 0)
(1.07272e-05 0 0)
(1.07219e-05 0 0)
(1.07165e-05 0 0)
(1.0711e-05 0 0)
(1.07054e-05 0 0)
(1.06997e-05 0 0)
(1.0694e-05 0 0)
(1.06882e-05 0 0)
(1.06823e-05 0 0)
(1.06763e-05 0 0)
(1.06702e-05 0 0)
(1.06641e-05 0 0)
(1.0658e-05 0 0)
(1.06519e-05 0 0)
(1.06457e-05 0 0)
(1.06395e-05 0 0)
(1.06334e-05 0 0)
(1.06274e-05 0 0)
(1.06213e-05 0 0)
(1.06154e-05 0 0)
(1.06096e-05 0 0)
(1.06039e-05 0 0)
(1.05984e-05 0 0)
(1.05929e-05 0 0)
(1.05877e-05 0 0)
(1.05826e-05 0 0)
(1.05776e-05 0 0)
(1.05729e-05 0 0)
(1.05682e-05 0 0)
(1.05638e-05 0 0)
(1.05594e-05 0 0)
(1.05552e-05 0 0)
(1.05511e-05 0 0)
(1.05471e-05 0 0)
(1.05431e-05 0 0)
(1.05392e-05 0 0)
(1.05353e-05 0 0)
(1.05314e-05 0 0)
(1.05275e-05 0 0)
(1.05236e-05 0 0)
(1.05196e-05 0 0)
(1.05156e-05 0 0)
(1.05115e-05 0 0)
(1.05074e-05 0 0)
(1.05032e-05 0 0)
(1.04989e-05 0 0)
(1.04945e-05 0 0)
(1.04901e-05 0 0)
(1.04856e-05 0 0)
(1.0481e-05 0 0)
(1.04764e-05 0 0)
(1.04717e-05 0 0)
(1.0467e-05 0 0)
(1.04622e-05 0 0)
(1.04574e-05 0 0)
(1.04526e-05 0 0)
(1.04477e-05 0 0)
(1.04429e-05 0 0)
(1.0438e-05 0 0)
(1.04331e-05 0 0)
(1.04282e-05 0 0)
(1.04233e-05 0 0)
(1.04184e-05 0 0)
(1.04134e-05 0 0)
(1.04085e-05 0 0)
(1.04036e-05 0 0)
(1.03987e-05 0 0)
(1.03938e-05 0 0)
(1.03889e-05 0 0)
(1.0384e-05 0 0)
(1.03791e-05 0 0)
(1.03742e-05 0 0)
(1.03693e-05 0 0)
(1.03644e-05 0 0)
(1.03596e-05 0 0)
(1.03547e-05 0 0)
(1.03498e-05 0 0)
(1.03449e-05 0 0)
(1.034e-05 0 0)
(1.03351e-05 0 0)
(1.03301e-05 0 0)
(1.03252e-05 0 0)
(1.03203e-05 0 0)
(1.03154e-05 0 0)
(1.03104e-05 0 0)
(1.03055e-05 0 0)
(1.03005e-05 0 0)
(1.02956e-05 0 0)
(1.02906e-05 0 0)
(1.02856e-05 0 0)
(1.02806e-05 0 0)
(1.02756e-05 0 0)
(1.02706e-05 0 0)
(1.02656e-05 0 0)
(1.02606e-05 0 0)
(1.02555e-05 0 0)
(1.02505e-05 0 0)
(1.02454e-05 0 0)
(1.02403e-05 0 0)
(1.02353e-05 0 0)
(1.02302e-05 0 0)
(1.02251e-05 0 0)
(1.02199e-05 0 0)
(1.02148e-05 0 0)
(1.02097e-05 0 0)
(1.02045e-05 0 0)
(1.01994e-05 0 0)
(1.01942e-05 0 0)
(1.0189e-05 0 0)
(1.01838e-05 0 0)
(1.01786e-05 0 0)
(1.01734e-05 0 0)
(1.01682e-05 0 0)
(1.01629e-05 0 0)
(1.01577e-05 0 0)
(1.01524e-05 0 0)
(1.01472e-05 0 0)
(1.01419e-05 0 0)
(1.01366e-05 0 0)
(1.01313e-05 0 0)
(1.0126e-05 0 0)
(1.01207e-05 0 0)
(1.01154e-05 0 0)
(1.01101e-05 0 0)
(1.01047e-05 0 0)
(1.00994e-05 0 0)
(1.00941e-05 0 0)
(1.00887e-05 0 0)
(1.00833e-05 0 0)
(1.0078e-05 0 0)
(1.00726e-05 0 0)
(1.00672e-05 0 0)
(1.00618e-05 0 0)
(1.00564e-05 0 0)
(1.0051e-05 0 0)
(1.00456e-05 0 0)
(1.00402e-05 0 0)
(1.00348e-05 0 0)
(1.00293e-05 0 0)
(1.00239e-05 0 0)
(1.00184e-05 0 0)
(1.00129e-05 0 0)
(1.00074e-05 0 0)
(1.00019e-05 0 0)
(9.99631e-06 0 0)
(9.99072e-06 0 0)
(9.9851e-06 0 0)
(9.97944e-06 0 0)
(9.97374e-06 0 0)
(9.96799e-06 0 0)
(9.9622e-06 0 0)
(9.95636e-06 0 0)
(9.95047e-06 0 0)
(9.94452e-06 0 0)
(9.93853e-06 0 0)
(9.93248e-06 0 0)
(9.92639e-06 0 0)
(9.92025e-06 0 0)
(9.91406e-06 0 0)
(9.90783e-06 0 0)
(9.90157e-06 0 0)
(9.89528e-06 0 0)
(9.88897e-06 0 0)
(9.88264e-06 0 0)
(9.8763e-06 0 0)
(9.86997e-06 0 0)
(9.86364e-06 0 0)
(9.85733e-06 0 0)
(9.85106e-06 0 0)
(9.84481e-06 0 0)
(9.83862e-06 0 0)
(9.83248e-06 0 0)
(9.8264e-06 0 0)
(9.8204e-06 0 0)
(9.81447e-06 0 0)
(9.80862e-06 0 0)
(9.80286e-06 0 0)
(9.7972e-06 0 0)
(9.79162e-06 0 0)
(9.78613e-06 0 0)
(9.78074e-06 0 0)
(9.77543e-06 0 0)
(9.77021e-06 0 0)
(9.76506e-06 0 0)
(9.75999e-06 0 0)
(9.75498e-06 0 0)
(9.75002e-06 0 0)
(9.74511e-06 0 0)
(9.74023e-06 0 0)
(9.73538e-06 0 0)
(9.73055e-06 0 0)
(9.72572e-06 0 0)
(9.72089e-06 0 0)
(9.71606e-06 0 0)
(9.7112e-06 0 0)
(9.70633e-06 0 0)
(9.70142e-06 0 0)
(9.69648e-06 0 0)
(9.6915e-06 0 0)
(9.68649e-06 0 0)
(9.68143e-06 0 0)
(9.67633e-06 0 0)
(9.67119e-06 0 0)
(9.66601e-06 0 0)
(9.66078e-06 0 0)
(9.65552e-06 0 0)
(9.65022e-06 0 0)
(9.64489e-06 0 0)
(9.63953e-06 0 0)
(9.63414e-06 0 0)
(9.62872e-06 0 0)
(9.62329e-06 0 0)
(9.61783e-06 0 0)
(9.61235e-06 0 0)
(9.60686e-06 0 0)
(9.60135e-06 0 0)
(9.59583e-06 0 0)
(9.59031e-06 0 0)
(9.58477e-06 0 0)
(9.57923e-06 0 0)
(9.57368e-06 0 0)
(9.56813e-06 0 0)
(9.56258e-06 0 0)
(9.55702e-06 0 0)
(9.55146e-06 0 0)
(9.5459e-06 0 0)
(9.54033e-06 0 0)
(9.53476e-06 0 0)
(9.52919e-06 0 0)
(9.52362e-06 0 0)
(9.51804e-06 0 0)
(9.51246e-06 0 0)
(9.50687e-06 0 0)
(9.50128e-06 0 0)
(9.49569e-06 0 0)
(9.49009e-06 0 0)
(9.48448e-06 0 0)
(9.47887e-06 0 0)
(9.47325e-06 0 0)
(9.46762e-06 0 0)
(9.46199e-06 0 0)
(9.45634e-06 0 0)
(9.45069e-06 0 0)
(9.44503e-06 0 0)
(9.43937e-06 0 0)
(9.43369e-06 0 0)
(9.428e-06 0 0)
(9.42231e-06 0 0)
(9.4166e-06 0 0)
(9.41088e-06 0 0)
(9.40516e-06 0 0)
(9.39942e-06 0 0)
(9.39367e-06 0 0)
(9.38792e-06 0 0)
(9.38215e-06 0 0)
(9.37637e-06 0 0)
(9.37057e-06 0 0)
(9.36477e-06 0 0)
(9.35896e-06 0 0)
(9.35313e-06 0 0)
(9.34729e-06 0 0)
(9.34145e-06 0 0)
(9.33559e-06 0 0)
(9.32972e-06 0 0)
(9.32383e-06 0 0)
(9.31794e-06 0 0)
(9.31203e-06 0 0)
(9.30612e-06 0 0)
(9.30019e-06 0 0)
(9.29425e-06 0 0)
(9.2883e-06 0 0)
(9.28234e-06 0 0)
(9.27637e-06 0 0)
(9.27038e-06 0 0)
(9.26439e-06 0 0)
(9.25839e-06 0 0)
(9.25237e-06 0 0)
(9.24635e-06 0 0)
(9.24031e-06 0 0)
(9.23427e-06 0 0)
(9.22821e-06 0 0)
(9.22215e-06 0 0)
(9.21607e-06 0 0)
(9.20999e-06 0 0)
(9.2039e-06 0 0)
(9.19779e-06 0 0)
(9.19168e-06 0 0)
(9.18556e-06 0 0)
(9.17943e-06 0 0)
(9.17329e-06 0 0)
(9.16714e-06 0 0)
(9.16098e-06 0 0)
(9.15482e-06 0 0)
(9.14864e-06 0 0)
(9.14245e-06 0 0)
(9.13625e-06 0 0)
(9.13004e-06 0 0)
(9.12381e-06 0 0)
(9.11758e-06 0 0)
(9.11132e-06 0 0)
(9.10506e-06 0 0)
(9.09877e-06 0 0)
(9.09246e-06 0 0)
(9.08614e-06 0 0)
(9.07979e-06 0 0)
(9.07342e-06 0 0)
(9.06702e-06 0 0)
(9.0606e-06 0 0)
(9.05414e-06 0 0)
(9.04766e-06 0 0)
(9.04114e-06 0 0)
(9.0346e-06 0 0)
(9.02802e-06 0 0)
(9.0214e-06 0 0)
(9.01475e-06 0 0)
(9.00807e-06 0 0)
(9.00135e-06 0 0)
(8.99459e-06 0 0)
(8.98781e-06 0 0)
(8.98099e-06 0 0)
(8.97414e-06 0 0)
(8.96727e-06 0 0)
(8.96037e-06 0 0)
(8.95345e-06 0 0)
(8.94651e-06 0 0)
(8.93956e-06 0 0)
(8.9326e-06 0 0)
(8.92562e-06 0 0)
(8.91865e-06 0 0)
(8.91168e-06 0 0)
(8.90472e-06 0 0)
(8.89776e-06 0 0)
(8.89083e-06 0 0)
(8.88391e-06 0 0)
(8.87703e-06 0 0)
(8.87017e-06 0 0)
(8.86334e-06 0 0)
(8.85656e-06 0 0)
(8.84982e-06 0 0)
(8.84312e-06 0 0)
(8.83646e-06 0 0)
(8.82986e-06 0 0)
(8.82331e-06 0 0)
(8.81681e-06 0 0)
(8.81036e-06 0 0)
(8.80396e-06 0 0)
(8.79761e-06 0 0)
(8.79131e-06 0 0)
(8.78505e-06 0 0)
(8.77883e-06 0 0)
(8.77266e-06 0 0)
(8.76651e-06 0 0)
(8.76039e-06 0 0)
(8.7543e-06 0 0)
(8.74823e-06 0 0)
(8.74217e-06 0 0)
(8.73613e-06 0 0)
(8.73008e-06 0 0)
(8.72404e-06 0 0)
(8.71799e-06 0 0)
(8.71194e-06 0 0)
(8.70587e-06 0 0)
(8.69978e-06 0 0)
(8.69367e-06 0 0)
(8.68754e-06 0 0)
(8.68139e-06 0 0)
(8.67521e-06 0 0)
(8.669e-06 0 0)
(8.66277e-06 0 0)
(8.6565e-06 0 0)
(8.6502e-06 0 0)
(8.64388e-06 0 0)
(8.63752e-06 0 0)
(8.63114e-06 0 0)
(8.62473e-06 0 0)
(8.61829e-06 0 0)
(8.61183e-06 0 0)
(8.60534e-06 0 0)
(8.59882e-06 0 0)
(8.59229e-06 0 0)
(8.58574e-06 0 0)
(8.57916e-06 0 0)
(8.57257e-06 0 0)
(8.56596e-06 0 0)
(8.55934e-06 0 0)
(8.5527e-06 0 0)
(8.54604e-06 0 0)
(8.53938e-06 0 0)
(8.5327e-06 0 0)
(8.52601e-06 0 0)
(8.5193e-06 0 0)
(8.51259e-06 0 0)
(8.50587e-06 0 0)
(8.49914e-06 0 0)
(8.49239e-06 0 0)
(8.48564e-06 0 0)
(8.47888e-06 0 0)
(8.47211e-06 0 0)
(8.46533e-06 0 0)
(8.45854e-06 0 0)
(8.45174e-06 0 0)
(8.44493e-06 0 0)
(8.4381e-06 0 0)
(8.43127e-06 0 0)
(8.42443e-06 0 0)
(8.41758e-06 0 0)
(8.41071e-06 0 0)
(8.40384e-06 0 0)
(8.39695e-06 0 0)
(8.39005e-06 0 0)
(8.38314e-06 0 0)
(8.37621e-06 0 0)
(8.36927e-06 0 0)
(8.36232e-06 0 0)
(8.35536e-06 0 0)
(8.34838e-06 0 0)
(8.34139e-06 0 0)
(8.33438e-06 0 0)
(8.32736e-06 0 0)
(8.32033e-06 0 0)
(8.31328e-06 0 0)
(8.30621e-06 0 0)
(8.29913e-06 0 0)
(8.29204e-06 0 0)
(8.28493e-06 0 0)
(8.27781e-06 0 0)
(8.27067e-06 0 0)
(8.26351e-06 0 0)
(8.25634e-06 0 0)
(8.24915e-06 0 0)
(8.24195e-06 0 0)
(8.23473e-06 0 0)
(8.2275e-06 0 0)
(8.22025e-06 0 0)
(8.21298e-06 0 0)
(8.2057e-06 0 0)
(8.1984e-06 0 0)
(8.19108e-06 0 0)
(8.18375e-06 0 0)
(8.17641e-06 0 0)
(8.16904e-06 0 0)
(8.16167e-06 0 0)
(8.15427e-06 0 0)
(8.14686e-06 0 0)
(8.13943e-06 0 0)
(8.13199e-06 0 0)
(8.12453e-06 0 0)
(8.11705e-06 0 0)
(8.10956e-06 0 0)
(8.10205e-06 0 0)
(8.09453e-06 0 0)
(8.08699e-06 0 0)
(8.07944e-06 0 0)
(8.07186e-06 0 0)
(8.06428e-06 0 0)
(8.05667e-06 0 0)
(8.04906e-06 0 0)
(8.04142e-06 0 0)
(8.03377e-06 0 0)
(8.0261e-06 0 0)
(8.01842e-06 0 0)
(8.01072e-06 0 0)
(8.003e-06 0 0)
(7.99526e-06 0 0)
(7.98751e-06 0 0)
(7.97974e-06 0 0)
(7.97195e-06 0 0)
(7.96415e-06 0 0)
(7.95632e-06 0 0)
(7.94848e-06 0 0)
(7.94061e-06 0 0)
(7.93272e-06 0 0)
(7.92481e-06 0 0)
(7.91688e-06 0 0)
(7.90892e-06 0 0)
(7.90094e-06 0 0)
(7.89294e-06 0 0)
(7.8849e-06 0 0)
(7.87684e-06 0 0)
(7.86875e-06 0 0)
(7.86064e-06 0 0)
(7.85249e-06 0 0)
(7.84431e-06 0 0)
(7.8361e-06 0 0)
(7.82786e-06 0 0)
(7.81959e-06 0 0)
(7.81129e-06 0 0)
(7.80295e-06 0 0)
(7.79458e-06 0 0)
(7.78618e-06 0 0)
(7.77774e-06 0 0)
(7.76928e-06 0 0)
(7.76078e-06 0 0)
(7.75225e-06 0 0)
(7.74369e-06 0 0)
(7.73511e-06 0 0)
(7.72649e-06 0 0)
(7.71786e-06 0 0)
(7.70919e-06 0 0)
(7.70051e-06 0 0)
(7.6918e-06 0 0)
(7.68308e-06 0 0)
(7.67434e-06 0 0)
(7.66558e-06 0 0)
(7.65682e-06 0 0)
(7.64804e-06 0 0)
(7.63926e-06 0 0)
(7.63047e-06 0 0)
(7.62169e-06 0 0)
(7.6129e-06 0 0)
(7.60411e-06 0 0)
(7.59533e-06 0 0)
(7.58655e-06 0 0)
(7.57779e-06 0 0)
(7.56903e-06 0 0)
(7.56028e-06 0 0)
(7.55155e-06 0 0)
(7.54283e-06 0 0)
(7.53412e-06 0 0)
(7.52543e-06 0 0)
(7.51676e-06 0 0)
(7.5081e-06 0 0)
(7.49945e-06 0 0)
(7.49081e-06 0 0)
(7.48219e-06 0 0)
(7.47358e-06 0 0)
(7.46498e-06 0 0)
(7.45639e-06 0 0)
(7.4478e-06 0 0)
(7.43921e-06 0 0)
(7.43063e-06 0 0)
(7.42204e-06 0 0)
(7.41345e-06 0 0)
(7.40485e-06 0 0)
(7.39623e-06 0 0)
(7.38761e-06 0 0)
(7.37897e-06 0 0)
(7.37031e-06 0 0)
(7.36163e-06 0 0)
(7.35293e-06 0 0)
(7.3442e-06 0 0)
(7.33544e-06 0 0)
(7.32665e-06 0 0)
(7.31783e-06 0 0)
(7.30898e-06 0 0)
(7.30009e-06 0 0)
(7.29116e-06 0 0)
(7.2822e-06 0 0)
(7.27321e-06 0 0)
(7.26417e-06 0 0)
(7.2551e-06 0 0)
(7.24599e-06 0 0)
(7.23683e-06 0 0)
(7.22764e-06 0 0)
(7.21842e-06 0 0)
(7.20915e-06 0 0)
(7.19985e-06 0 0)
(7.1905e-06 0 0)
(7.18113e-06 0 0)
(7.17171e-06 0 0)
(7.16226e-06 0 0)
(7.15277e-06 0 0)
(7.14324e-06 0 0)
(7.13369e-06 0 0)
(7.1241e-06 0 0)
(7.11447e-06 0 0)
(7.10481e-06 0 0)
(7.09512e-06 0 0)
(7.08539e-06 0 0)
(7.07563e-06 0 0)
(7.06584e-06 0 0)
(7.05602e-06 0 0)
(7.04617e-06 0 0)
(7.03629e-06 0 0)
(7.02637e-06 0 0)
(7.01642e-06 0 0)
(7.00645e-06 0 0)
(6.99644e-06 0 0)
(6.98641e-06 0 0)
(6.97634e-06 0 0)
(6.96624e-06 0 0)
(6.95612e-06 0 0)
(6.94596e-06 0 0)
(6.93578e-06 0 0)
(6.92557e-06 0 0)
(6.91534e-06 0 0)
(6.90507e-06 0 0)
(6.89478e-06 0 0)
(6.88446e-06 0 0)
(6.87412e-06 0 0)
(6.86376e-06 0 0)
(6.85337e-06 0 0)
(6.84297e-06 0 0)
(6.83255e-06 0 0)
(6.82211e-06 0 0)
(6.81165e-06 0 0)
(6.80119e-06 0 0)
(6.79072e-06 0 0)
(6.78025e-06 0 0)
(6.76977e-06 0 0)
(6.75931e-06 0 0)
(6.74885e-06 0 0)
(6.73841e-06 0 0)
(6.72799e-06 0 0)
(6.71761e-06 0 0)
(6.70727e-06 0 0)
(6.69699e-06 0 0)
(6.68676e-06 0 0)
(6.67661e-06 0 0)
(6.66655e-06 0 0)
(6.6566e-06 0 0)
(6.64677e-06 0 0)
(6.63707e-06 0 0)
(6.62754e-06 0 0)
(6.61818e-06 0 0)
(6.60902e-06 0 0)
(6.60008e-06 0 0)
(6.59138e-06 0 0)
(6.58295e-06 0 0)
(6.5748e-06 0 0)
(6.56696e-06 0 0)
(6.55945e-06 0 0)
(6.55228e-06 0 0)
(6.54548e-06 0 0)
(6.53905e-06 0 0)
(6.53301e-06 0 0)
(6.52737e-06 0 0)
(6.52212e-06 0 0)
(6.51727e-06 0 0)
(6.51282e-06 0 0)
(6.50875e-06 0 0)
(6.50506e-06 0 0)
(6.50174e-06 0 0)
(6.49876e-06 0 0)
(6.49611e-06 0 0)
(6.49376e-06 0 0)
(6.49169e-06 0 0)
(6.4899e-06 0 0)
(6.48834e-06 0 0)
(6.48699e-06 0 0)
(6.48583e-06 0 0)
(6.48484e-06 0 0)
(6.484e-06 0 0)
(6.48329e-06 0 0)
(6.48269e-06 0 0)
(6.48219e-06 0 0)
(6.48176e-06 0 0)
(6.48139e-06 0 0)
(6.48106e-06 0 0)
(6.48075e-06 0 0)
(6.48043e-06 0 0)
(6.48005e-06 0 0)
(6.47958e-06 0 0)
(6.47882e-06 0 0)
(6.47769e-06 0 0)
(6.47559e-06 0 0)
(6.47222e-06 0 0)
(6.46623e-06 0 0)
(6.45627e-06 0 0)
(3.37041e-06 0 0)
)
;

boundaryField
{
    inlet
    {
        type            fixedValue;
        value           uniform (1.13622e-05 0 0);
    }
    outlet
    {
        type            zeroGradient;
    }
    emptyWalls
    {
        type            empty;
    }
}


// ************************************************************************* //
