/*--------------------------------*- C++ -*----------------------------------*\
  =========                 |
  \\      /  F ield         | OpenFOAM: The Open Source CFD Toolbox
   \\    /   O peration     | Website:  https://openfoam.org
    \\  /    A nd           | Version:  9
     \\/     M anipulation  |
\*---------------------------------------------------------------------------*/
FoamFile
{
    format      ascii;
    class       surfaceScalarField;
    location    "6650";
    object      phia;
}
// * * * * * * * * * * * * * * * * * * * * * * * * * * * * * * * * * * * * * //

dimensions      [0 2 0 0 0 0 0];

internalField   nonuniform List<scalar> 
999
(
2.74935e-10
2.74799e-10
2.74653e-10
2.74422e-10
2.74179e-10
2.73821e-10
2.72917e-10
2.6986e-10
2.53075e-10
2.18903e-10
2.12924e-10
2.10925e-10
2.09889e-10
2.09233e-10
2.08763e-10
2.08411e-10
2.0823e-10
2.08247e-10
2.08551e-10
2.08894e-10
2.09087e-10
2.09246e-10
2.09333e-10
2.09385e-10
2.09448e-10
2.09494e-10
2.0942e-10
2.09204e-10
2.08845e-10
2.08356e-10
2.07767e-10
2.07118e-10
2.06457e-10
2.05825e-10
2.0526e-10
2.04785e-10
2.04413e-10
2.04146e-10
2.03976e-10
2.0389e-10
2.03869e-10
2.03896e-10
2.03951e-10
2.04018e-10
2.04084e-10
2.0414e-10
2.04177e-10
2.04192e-10
2.04184e-10
2.04154e-10
2.04105e-10
2.04038e-10
2.03959e-10
2.03869e-10
2.03771e-10
2.03668e-10
2.03562e-10
2.03454e-10
2.03345e-10
2.03235e-10
2.03127e-10
2.03019e-10
2.02913e-10
2.02807e-10
2.02703e-10
2.02601e-10
2.02499e-10
2.02399e-10
2.023e-10
2.02202e-10
2.02105e-10
2.02009e-10
2.01914e-10
2.01819e-10
2.01726e-10
2.01632e-10
2.0154e-10
2.01447e-10
2.01356e-10
2.01264e-10
2.01173e-10
2.01082e-10
2.00992e-10
2.00902e-10
2.00812e-10
2.00723e-10
2.00635e-10
2.00547e-10
2.00461e-10
2.00376e-10
2.00292e-10
2.00211e-10
2.00131e-10
2.00054e-10
1.9998e-10
1.99908e-10
1.99838e-10
1.99772e-10
1.99708e-10
1.99647e-10
1.99589e-10
1.99533e-10
1.9948e-10
1.9943e-10
1.99382e-10
1.99337e-10
1.99293e-10
1.99251e-10
1.9921e-10
1.9917e-10
1.99132e-10
1.99093e-10
1.99055e-10
1.99018e-10
1.9898e-10
1.98943e-10
1.98905e-10
1.98868e-10
1.9883e-10
1.98792e-10
1.98754e-10
1.98716e-10
1.98678e-10
1.98639e-10
1.98601e-10
1.98562e-10
1.98523e-10
1.98483e-10
1.98444e-10
1.98404e-10
1.98365e-10
1.98326e-10
1.98288e-10
1.98251e-10
1.98216e-10
1.98182e-10
1.9815e-10
1.9812e-10
1.98092e-10
1.98065e-10
1.9804e-10
1.98016e-10
1.97994e-10
1.97975e-10
1.9796e-10
1.97948e-10
1.97943e-10
1.97944e-10
1.97954e-10
1.97974e-10
1.98005e-10
1.98049e-10
1.98106e-10
1.98176e-10
1.98259e-10
1.98355e-10
1.98463e-10
1.98581e-10
1.98708e-10
1.9884e-10
1.98975e-10
1.99109e-10
1.9924e-10
1.99362e-10
1.99473e-10
1.99566e-10
1.99638e-10
1.99686e-10
1.99704e-10
1.99691e-10
1.99643e-10
1.99559e-10
1.99437e-10
1.9928e-10
1.99087e-10
1.98864e-10
1.9861e-10
1.98335e-10
1.9804e-10
1.97733e-10
1.97421e-10
1.97107e-10
1.96799e-10
1.965e-10
1.96216e-10
1.95949e-10
1.95703e-10
1.95479e-10
1.95278e-10
1.951e-10
1.94943e-10
1.94808e-10
1.94692e-10
1.94593e-10
1.94509e-10
1.94438e-10
1.94377e-10
1.94325e-10
1.94278e-10
1.94235e-10
1.94194e-10
1.94154e-10
1.94113e-10
1.9407e-10
1.94024e-10
1.93975e-10
1.93921e-10
1.93864e-10
1.93801e-10
1.93735e-10
1.93664e-10
1.93589e-10
1.9351e-10
1.93427e-10
1.93341e-10
1.93252e-10
1.93159e-10
1.93065e-10
1.92968e-10
1.9287e-10
1.9277e-10
1.92668e-10
1.92565e-10
1.92461e-10
1.92357e-10
1.92252e-10
1.92146e-10
1.9204e-10
1.91934e-10
1.91828e-10
1.91721e-10
1.91615e-10
1.91509e-10
1.91404e-10
1.91299e-10
1.91194e-10
1.9109e-10
1.90986e-10
1.90884e-10
1.90782e-10
1.90681e-10
1.90581e-10
1.90482e-10
1.90384e-10
1.90287e-10
1.90193e-10
1.901e-10
1.90009e-10
1.8992e-10
1.89834e-10
1.89752e-10
1.89673e-10
1.89599e-10
1.89528e-10
1.89462e-10
1.894e-10
1.89341e-10
1.89283e-10
1.89223e-10
1.89152e-10
1.8906e-10
1.88926e-10
1.88721e-10
1.88401e-10
1.87922e-10
1.87272e-10
1.86516e-10
1.85809e-10
1.85289e-10
1.84981e-10
1.84823e-10
1.84745e-10
1.84706e-10
1.84687e-10
1.84675e-10
1.84669e-10
1.84666e-10
1.84664e-10
1.84665e-10
1.84666e-10
1.84668e-10
1.84671e-10
1.84675e-10
1.8468e-10
1.84686e-10
1.84693e-10
1.84701e-10
1.84709e-10
1.84719e-10
1.8473e-10
1.84742e-10
1.84754e-10
1.84767e-10
1.84781e-10
1.84796e-10
1.84811e-10
1.84827e-10
1.84844e-10
1.84861e-10
1.84878e-10
1.84896e-10
1.84914e-10
1.84932e-10
1.84951e-10
1.84969e-10
1.84988e-10
1.85007e-10
1.85026e-10
1.85044e-10
1.85063e-10
1.85082e-10
1.85101e-10
1.85119e-10
1.85138e-10
1.85157e-10
1.85176e-10
1.85196e-10
1.85215e-10
1.85235e-10
1.85255e-10
1.85276e-10
1.85297e-10
1.85319e-10
1.85342e-10
1.85365e-10
1.85389e-10
1.85415e-10
1.85442e-10
1.8547e-10
1.855e-10
1.85531e-10
1.85566e-10
1.85602e-10
1.85641e-10
1.85684e-10
1.8573e-10
1.85779e-10
1.85833e-10
1.85891e-10
1.85953e-10
1.8602e-10
1.86093e-10
1.8617e-10
1.86252e-10
1.8634e-10
1.86433e-10
1.8653e-10
1.86632e-10
1.86738e-10
1.86848e-10
1.86961e-10
1.87076e-10
1.87192e-10
1.87309e-10
1.87426e-10
1.8754e-10
1.87653e-10
1.87761e-10
1.87863e-10
1.87959e-10
1.88046e-10
1.88124e-10
1.88191e-10
1.88246e-10
1.88287e-10
1.88313e-10
1.88326e-10
1.88329e-10
1.88329e-10
1.88321e-10
1.88279e-10
1.88217e-10
1.8814e-10
1.88049e-10
1.87945e-10
1.87831e-10
1.87707e-10
1.87576e-10
1.87439e-10
1.87297e-10
1.87154e-10
1.8701e-10
1.86867e-10
1.86728e-10
1.86594e-10
1.86465e-10
1.86344e-10
1.86231e-10
1.86127e-10
1.86033e-10
1.85948e-10
1.85873e-10
1.85809e-10
1.85753e-10
1.85707e-10
1.8567e-10
1.85641e-10
1.85619e-10
1.85605e-10
1.85596e-10
1.85592e-10
1.85591e-10
1.85591e-10
1.85593e-10
1.85604e-10
1.85616e-10
1.8563e-10
1.85643e-10
1.85657e-10
1.8567e-10
1.85682e-10
1.85692e-10
1.85701e-10
1.85709e-10
1.85714e-10
1.85718e-10
1.85719e-10
1.85719e-10
1.85719e-10
1.85718e-10
1.85712e-10
1.85703e-10
1.85692e-10
1.8568e-10
1.85666e-10
1.8565e-10
1.85632e-10
1.85613e-10
1.85593e-10
1.85572e-10
1.8555e-10
1.85527e-10
1.85503e-10
1.85478e-10
1.85452e-10
1.85427e-10
1.854e-10
1.85374e-10
1.85347e-10
1.8532e-10
1.85293e-10
1.85266e-10
1.85239e-10
1.85213e-10
1.85186e-10
1.8516e-10
1.85135e-10
1.8511e-10
1.85085e-10
1.85061e-10
1.85038e-10
1.85015e-10
1.84993e-10
1.84971e-10
1.8495e-10
1.8493e-10
1.84911e-10
1.84892e-10
1.84875e-10
1.84857e-10
1.84841e-10
1.84825e-10
1.8481e-10
1.84796e-10
1.84782e-10
1.84769e-10
1.84757e-10
1.84745e-10
1.84734e-10
1.84723e-10
1.84713e-10
1.84703e-10
1.84693e-10
1.84684e-10
1.84676e-10
1.84668e-10
1.8466e-10
1.84652e-10
1.84645e-10
1.84638e-10
1.84631e-10
1.84625e-10
1.84619e-10
1.84614e-10
1.84609e-10
1.84604e-10
1.84599e-10
1.84595e-10
1.84592e-10
1.84589e-10
1.84586e-10
1.84584e-10
1.84583e-10
1.84582e-10
1.84582e-10
1.84582e-10
1.84582e-10
1.84583e-10
1.84586e-10
1.84589e-10
1.84593e-10
1.84598e-10
1.84604e-10
1.84611e-10
1.84618e-10
1.84627e-10
1.84636e-10
1.84646e-10
1.84657e-10
1.84669e-10
1.84682e-10
1.84695e-10
1.84709e-10
1.84725e-10
1.8474e-10
1.84757e-10
1.84774e-10
1.84792e-10
1.84811e-10
1.8483e-10
1.8485e-10
1.84871e-10
1.84892e-10
1.84914e-10
1.84937e-10
1.8496e-10
1.84983e-10
1.85008e-10
1.85033e-10
1.85059e-10
1.85086e-10
1.85113e-10
1.85142e-10
1.85171e-10
1.85202e-10
1.85233e-10
1.85267e-10
1.85301e-10
1.85337e-10
1.85375e-10
1.85415e-10
1.85457e-10
1.85502e-10
1.85548e-10
1.85598e-10
1.8565e-10
1.85705e-10
1.85763e-10
1.85825e-10
1.8589e-10
1.85958e-10
1.86029e-10
1.86104e-10
1.86183e-10
1.86264e-10
1.86349e-10
1.86437e-10
1.86528e-10
1.86621e-10
1.86717e-10
1.86814e-10
1.86912e-10
1.87012e-10
1.87111e-10
1.8721e-10
1.87307e-10
1.87403e-10
1.87496e-10
1.87586e-10
1.87671e-10
1.87751e-10
1.87826e-10
1.87893e-10
1.87953e-10
1.88005e-10
1.88048e-10
1.88081e-10
1.88104e-10
1.88117e-10
1.88121e-10
1.88121e-10
1.88118e-10
1.88101e-10
1.88058e-10
1.88007e-10
1.87945e-10
1.87874e-10
1.87795e-10
1.87707e-10
1.87614e-10
1.87515e-10
1.87411e-10
1.87305e-10
1.87197e-10
1.87088e-10
1.86979e-10
1.86873e-10
1.86768e-10
1.86668e-10
1.86571e-10
1.8648e-10
1.86393e-10
1.86313e-10
1.86239e-10
1.86172e-10
1.8611e-10
1.86056e-10
1.86007e-10
1.85965e-10
1.85928e-10
1.85896e-10
1.8587e-10
1.85848e-10
1.85831e-10
1.85817e-10
1.85807e-10
1.85799e-10
1.85793e-10
1.8579e-10
1.85788e-10
1.85787e-10
1.85787e-10
1.85787e-10
1.85787e-10
1.85788e-10
1.85789e-10
1.85789e-10
1.85789e-10
1.85789e-10
1.85788e-10
1.85784e-10
1.8578e-10
1.85774e-10
1.85766e-10
1.85758e-10
1.85748e-10
1.85737e-10
1.85724e-10
1.8571e-10
1.85695e-10
1.85679e-10
1.85662e-10
1.85644e-10
1.85625e-10
1.85605e-10
1.85584e-10
1.85562e-10
1.8554e-10
1.85517e-10
1.85494e-10
1.8547e-10
1.85445e-10
1.85421e-10
1.85395e-10
1.8537e-10
1.85344e-10
1.85319e-10
1.85293e-10
1.85267e-10
1.85241e-10
1.85215e-10
1.85189e-10
1.85164e-10
1.85139e-10
1.85114e-10
1.85089e-10
1.85065e-10
1.85041e-10
1.85018e-10
1.84995e-10
1.84973e-10
1.84952e-10
1.84931e-10
1.84911e-10
1.84892e-10
1.84873e-10
1.84855e-10
1.84838e-10
1.84822e-10
1.84806e-10
1.84791e-10
1.84777e-10
1.84764e-10
1.84752e-10
1.8474e-10
1.8473e-10
1.8472e-10
1.8471e-10
1.84702e-10
1.84694e-10
1.84687e-10
1.8468e-10
1.84674e-10
1.84669e-10
1.84664e-10
1.8466e-10
1.84656e-10
1.84653e-10
1.8465e-10
1.84648e-10
1.84646e-10
1.84644e-10
1.84643e-10
1.84643e-10
1.84642e-10
1.84642e-10
1.84642e-10
1.84643e-10
1.84644e-10
1.84646e-10
1.84648e-10
1.8465e-10
1.84653e-10
1.84657e-10
1.84661e-10
1.84665e-10
1.84671e-10
1.84676e-10
1.84683e-10
1.8469e-10
1.84698e-10
1.84707e-10
1.84716e-10
1.84726e-10
1.84737e-10
1.84749e-10
1.84762e-10
1.84776e-10
1.84791e-10
1.84807e-10
1.84824e-10
1.84842e-10
1.84861e-10
1.84881e-10
1.84903e-10
1.84925e-10
1.84949e-10
1.84974e-10
1.85e-10
1.85028e-10
1.85057e-10
1.85087e-10
1.85118e-10
1.85151e-10
1.85186e-10
1.85222e-10
1.85259e-10
1.85299e-10
1.8534e-10
1.85382e-10
1.85427e-10
1.85473e-10
1.85522e-10
1.85572e-10
1.85625e-10
1.8568e-10
1.85737e-10
1.85796e-10
1.85858e-10
1.85922e-10
1.85989e-10
1.86058e-10
1.8613e-10
1.86203e-10
1.86279e-10
1.86357e-10
1.86438e-10
1.8652e-10
1.86603e-10
1.86689e-10
1.86775e-10
1.86862e-10
1.8695e-10
1.87038e-10
1.87125e-10
1.87212e-10
1.87298e-10
1.87382e-10
1.87464e-10
1.87544e-10
1.8762e-10
1.87692e-10
1.8776e-10
1.87822e-10
1.87879e-10
1.8793e-10
1.87974e-10
1.88012e-10
1.88041e-10
1.88062e-10
1.88075e-10
1.8808e-10
1.8808e-10
1.8808e-10
1.88072e-10
1.88041e-10
1.88002e-10
1.87954e-10
1.87898e-10
1.87834e-10
1.87763e-10
1.87685e-10
1.87602e-10
1.87514e-10
1.87422e-10
1.87327e-10
1.87229e-10
1.8713e-10
1.8703e-10
1.86931e-10
1.86832e-10
1.86736e-10
1.86641e-10
1.8655e-10
1.86463e-10
1.86379e-10
1.863e-10
1.86225e-10
1.86155e-10
1.8609e-10
1.8603e-10
1.85974e-10
1.85924e-10
1.85878e-10
1.85836e-10
1.85799e-10
1.85765e-10
1.85735e-10
1.85709e-10
1.85685e-10
1.85665e-10
1.85646e-10
1.8563e-10
1.85616e-10
1.85603e-10
1.85591e-10
1.8558e-10
1.8557e-10
1.85561e-10
1.85552e-10
1.85543e-10
1.85534e-10
1.85525e-10
1.85516e-10
1.85506e-10
1.85496e-10
1.85486e-10
1.85475e-10
1.85463e-10
1.85451e-10
1.85439e-10
1.85426e-10
1.85412e-10
1.85398e-10
1.85383e-10
1.85368e-10
1.85353e-10
1.85337e-10
1.8532e-10
1.85303e-10
1.85286e-10
1.85269e-10
1.85252e-10
1.85234e-10
1.85216e-10
1.85198e-10
1.8518e-10
1.85161e-10
1.85143e-10
1.85125e-10
1.85106e-10
1.85088e-10
1.85069e-10
1.85051e-10
1.85033e-10
1.85014e-10
1.84996e-10
1.84978e-10
1.8496e-10
1.84942e-10
1.84925e-10
1.84907e-10
1.8489e-10
1.84873e-10
1.84856e-10
1.8484e-10
1.84824e-10
1.84808e-10
1.84792e-10
1.84777e-10
1.84762e-10
1.84748e-10
1.84734e-10
1.84721e-10
1.84708e-10
1.84696e-10
1.84684e-10
1.84673e-10
1.84662e-10
1.84652e-10
1.84642e-10
1.84633e-10
1.84625e-10
1.84618e-10
1.84611e-10
1.84605e-10
1.84599e-10
1.84594e-10
1.8459e-10
1.84586e-10
1.84583e-10
1.84581e-10
1.84579e-10
1.84578e-10
1.84577e-10
1.84577e-10
1.84577e-10
1.84577e-10
1.84578e-10
1.84581e-10
1.84583e-10
1.84586e-10
1.8459e-10
1.84594e-10
1.84598e-10
1.84602e-10
1.84607e-10
1.84613e-10
1.84619e-10
1.84625e-10
1.84631e-10
1.84638e-10
1.84645e-10
1.84653e-10
1.84661e-10
1.84669e-10
1.84678e-10
1.84688e-10
1.84698e-10
1.84708e-10
1.84719e-10
1.84731e-10
1.84744e-10
1.84757e-10
1.84771e-10
1.84786e-10
1.84802e-10
1.84819e-10
1.84837e-10
1.84857e-10
1.84877e-10
1.84899e-10
1.84922e-10
1.84947e-10
1.84973e-10
1.85001e-10
1.85031e-10
1.85062e-10
1.85096e-10
1.85131e-10
1.85168e-10
1.85207e-10
1.85249e-10
1.85292e-10
1.85338e-10
1.85386e-10
1.85436e-10
1.85489e-10
1.85544e-10
1.85602e-10
1.85661e-10
1.85723e-10
1.85787e-10
1.85854e-10
1.85923e-10
1.85993e-10
1.86066e-10
1.86141e-10
1.86217e-10
1.86295e-10
1.86374e-10
1.86454e-10
1.86535e-10
1.86617e-10
1.86698e-10
1.8678e-10
1.86862e-10
1.86943e-10
1.87023e-10
1.871e-10
1.87177e-10
1.8725e-10
1.87323e-10
1.87389e-10
1.87455e-10
1.87513e-10
1.8757e-10
1.87619e-10
1.87665e-10
)
;

boundaryField
{
    inlet
    {
        type            calculated;
        value           uniform -2.74882e-10;
    }
    outlet
    {
        type            calculated;
        value           uniform 1.87701e-10;
    }
    emptyWalls
    {
        type            empty;
        value           nonuniform List<scalar> 0();
    }
}


// ************************************************************************* //
