/*--------------------------------*- C++ -*----------------------------------*\
  =========                 |
  \\      /  F ield         | OpenFOAM: The Open Source CFD Toolbox
   \\    /   O peration     | Website:  https://openfoam.org
    \\  /    A nd           | Version:  9
     \\/     M anipulation  |
\*---------------------------------------------------------------------------*/
FoamFile
{
    format      ascii;
    class       surfaceScalarField;
    location    "6650";
    object      phib;
}
// * * * * * * * * * * * * * * * * * * * * * * * * * * * * * * * * * * * * * //

dimensions      [0 2 0 0 0 0 0];

internalField   nonuniform List<scalar> 
999
(
1.13615e-09
1.13623e-09
1.1363e-09
1.13643e-09
1.13657e-09
1.13678e-09
1.13728e-09
1.13896e-09
1.14912e-09
1.17293e-09
1.17687e-09
1.17804e-09
1.17855e-09
1.17879e-09
1.17891e-09
1.17895e-09
1.17885e-09
1.17857e-09
1.17801e-09
1.1774e-09
1.17688e-09
1.17633e-09
1.17574e-09
1.17502e-09
1.17409e-09
1.17299e-09
1.17186e-09
1.17077e-09
1.16976e-09
1.16884e-09
1.16797e-09
1.16714e-09
1.16629e-09
1.1654e-09
1.16443e-09
1.16335e-09
1.16216e-09
1.16085e-09
1.15944e-09
1.15794e-09
1.15636e-09
1.15473e-09
1.15306e-09
1.15138e-09
1.14968e-09
1.14799e-09
1.14631e-09
1.14464e-09
1.14299e-09
1.14135e-09
1.13972e-09
1.13811e-09
1.1365e-09
1.13489e-09
1.13328e-09
1.13168e-09
1.13007e-09
1.12845e-09
1.12683e-09
1.12521e-09
1.12358e-09
1.12194e-09
1.1203e-09
1.11865e-09
1.11699e-09
1.11533e-09
1.11366e-09
1.11198e-09
1.1103e-09
1.10861e-09
1.10691e-09
1.10521e-09
1.10351e-09
1.1018e-09
1.10008e-09
1.09835e-09
1.09663e-09
1.09489e-09
1.09315e-09
1.09141e-09
1.08966e-09
1.0879e-09
1.08614e-09
1.08438e-09
1.08261e-09
1.08083e-09
1.07905e-09
1.07726e-09
1.07547e-09
1.07367e-09
1.07187e-09
1.07005e-09
1.06824e-09
1.06641e-09
1.06458e-09
1.06274e-09
1.06089e-09
1.05904e-09
1.05718e-09
1.05531e-09
1.05343e-09
1.05155e-09
1.04966e-09
1.04776e-09
1.04585e-09
1.04394e-09
1.04202e-09
1.0401e-09
1.03816e-09
1.03623e-09
1.03428e-09
1.03233e-09
1.03038e-09
1.02842e-09
1.02646e-09
1.02449e-09
1.02251e-09
1.02053e-09
1.01854e-09
1.01655e-09
1.01456e-09
1.01255e-09
1.01055e-09
1.00853e-09
1.00652e-09
1.00449e-09
1.00246e-09
1.00043e-09
9.98391e-10
9.96346e-10
9.94294e-10
9.92236e-10
9.90172e-10
9.881e-10
9.86021e-10
9.83935e-10
9.81841e-10
9.79739e-10
9.7763e-10
9.75513e-10
9.73389e-10
9.71256e-10
9.69115e-10
9.66966e-10
9.64807e-10
9.62638e-10
9.60458e-10
9.58265e-10
9.56058e-10
9.53836e-10
9.51598e-10
9.49343e-10
9.4707e-10
9.44779e-10
9.42471e-10
9.40145e-10
9.37802e-10
9.35444e-10
9.33072e-10
9.30688e-10
9.28294e-10
9.25894e-10
9.23489e-10
9.21083e-10
9.18678e-10
9.1628e-10
9.1389e-10
9.11511e-10
9.09146e-10
9.06798e-10
9.04469e-10
9.02158e-10
8.99866e-10
8.97593e-10
8.95337e-10
8.93095e-10
8.90865e-10
8.88642e-10
8.86421e-10
8.84199e-10
8.8197e-10
8.79729e-10
8.77472e-10
8.75197e-10
8.72897e-10
8.70571e-10
8.68218e-10
8.65835e-10
8.63423e-10
8.60981e-10
8.58509e-10
8.56008e-10
8.5348e-10
8.50926e-10
8.48346e-10
8.45744e-10
8.4312e-10
8.40476e-10
8.37814e-10
8.35134e-10
8.32437e-10
8.29725e-10
8.26998e-10
8.24256e-10
8.215e-10
8.18731e-10
8.15947e-10
8.13148e-10
8.10336e-10
8.07508e-10
8.04665e-10
8.01806e-10
7.98931e-10
7.96039e-10
7.93129e-10
7.90201e-10
7.87253e-10
7.84285e-10
7.81297e-10
7.78287e-10
7.75255e-10
7.72201e-10
7.69123e-10
7.66021e-10
7.62894e-10
7.59743e-10
7.56565e-10
7.53359e-10
7.50127e-10
7.46865e-10
7.43576e-10
7.40257e-10
7.36908e-10
7.33529e-10
7.3012e-10
7.26681e-10
7.2321e-10
7.19709e-10
7.1618e-10
7.12623e-10
7.09041e-10
7.05437e-10
7.01817e-10
6.98185e-10
6.94549e-10
6.90921e-10
6.87314e-10
6.83745e-10
6.80232e-10
6.76797e-10
6.73463e-10
6.70257e-10
6.672e-10
6.64312e-10
6.616e-10
6.59053e-10
6.56625e-10
6.54213e-10
6.5162e-10
6.48487e-10
6.44182e-10
6.37629e-10
6.27076e-10
6.09896e-10
5.82738e-10
5.42663e-10
4.89751e-10
4.2974e-10
3.72846e-10
3.27822e-10
2.97292e-10
2.78808e-10
2.68404e-10
2.62793e-10
2.59839e-10
2.58303e-10
2.57511e-10
2.57103e-10
2.56894e-10
2.56786e-10
2.56731e-10
2.56702e-10
2.56686e-10
2.56678e-10
2.56673e-10
2.56669e-10
2.56667e-10
2.56664e-10
2.56662e-10
2.5666e-10
2.56657e-10
2.56655e-10
2.56652e-10
2.56649e-10
2.56645e-10
2.56642e-10
2.56639e-10
2.56635e-10
2.56632e-10
2.56628e-10
2.56624e-10
2.56621e-10
2.56617e-10
2.56613e-10
2.56609e-10
2.56605e-10
2.56601e-10
2.56597e-10
2.56593e-10
2.56589e-10
2.56585e-10
2.56581e-10
2.56577e-10
2.56573e-10
2.56569e-10
2.56565e-10
2.56561e-10
2.56556e-10
2.56552e-10
2.56548e-10
2.56544e-10
2.56539e-10
2.56534e-10
2.5653e-10
2.56525e-10
2.56519e-10
2.56514e-10
2.56508e-10
2.56502e-10
2.56496e-10
2.56489e-10
2.56482e-10
2.56474e-10
2.56466e-10
2.56456e-10
2.56447e-10
2.56436e-10
2.56424e-10
2.56412e-10
2.56398e-10
2.56383e-10
2.56368e-10
2.56351e-10
2.56333e-10
2.56314e-10
2.56293e-10
2.56272e-10
2.5625e-10
2.56226e-10
2.56202e-10
2.56178e-10
2.56152e-10
2.56127e-10
2.56101e-10
2.56076e-10
2.5605e-10
2.56026e-10
2.56002e-10
2.55979e-10
2.55958e-10
2.55938e-10
2.55921e-10
2.55906e-10
2.55893e-10
2.55884e-10
2.55877e-10
2.55874e-10
2.55872e-10
2.55871e-10
2.55872e-10
2.5588e-10
2.55892e-10
2.55908e-10
2.55927e-10
2.55948e-10
2.55972e-10
2.55997e-10
2.56024e-10
2.56053e-10
2.56082e-10
2.56112e-10
2.56142e-10
2.56172e-10
2.56201e-10
2.56229e-10
2.56256e-10
2.56281e-10
2.56305e-10
2.56327e-10
2.56346e-10
2.56364e-10
2.56379e-10
2.56393e-10
2.56404e-10
2.56414e-10
2.56421e-10
2.56427e-10
2.56432e-10
2.56435e-10
2.56437e-10
2.56437e-10
2.56437e-10
2.56437e-10
2.56436e-10
2.56434e-10
2.56431e-10
2.56429e-10
2.56426e-10
2.56423e-10
2.5642e-10
2.56418e-10
2.56415e-10
2.56414e-10
2.56412e-10
2.56411e-10
2.5641e-10
2.5641e-10
2.5641e-10
2.5641e-10
2.56411e-10
2.56412e-10
2.56414e-10
2.56417e-10
2.5642e-10
2.56423e-10
2.56426e-10
2.5643e-10
2.56435e-10
2.56439e-10
2.56444e-10
2.56449e-10
2.56454e-10
2.56459e-10
2.56465e-10
2.5647e-10
2.56476e-10
2.56482e-10
2.56488e-10
2.56494e-10
2.565e-10
2.56506e-10
2.56512e-10
2.56518e-10
2.56523e-10
2.56529e-10
2.56535e-10
2.5654e-10
2.56546e-10
2.56551e-10
2.56557e-10
2.56562e-10
2.56567e-10
2.56572e-10
2.56576e-10
2.56581e-10
2.56585e-10
2.56589e-10
2.56593e-10
2.56597e-10
2.56601e-10
2.56604e-10
2.56608e-10
2.56611e-10
2.56614e-10
2.56617e-10
2.5662e-10
2.56622e-10
2.56625e-10
2.56627e-10
2.56629e-10
2.56632e-10
2.56634e-10
2.56636e-10
2.56638e-10
2.56639e-10
2.56641e-10
2.56643e-10
2.56644e-10
2.56646e-10
2.56647e-10
2.56649e-10
2.5665e-10
2.56651e-10
2.56652e-10
2.56654e-10
2.56655e-10
2.56655e-10
2.56656e-10
2.56657e-10
2.56658e-10
2.56658e-10
2.56658e-10
2.56659e-10
2.56659e-10
2.56659e-10
2.56659e-10
2.56658e-10
2.56658e-10
2.56657e-10
2.56657e-10
2.56655e-10
2.56654e-10
2.56653e-10
2.56651e-10
2.56649e-10
2.56647e-10
2.56645e-10
2.56643e-10
2.56641e-10
2.56638e-10
2.56635e-10
2.56632e-10
2.56629e-10
2.56626e-10
2.56622e-10
2.56619e-10
2.56615e-10
2.56612e-10
2.56608e-10
2.56605e-10
2.56601e-10
2.56597e-10
2.56593e-10
2.56589e-10
2.56585e-10
2.56581e-10
2.56576e-10
2.56571e-10
2.56567e-10
2.56562e-10
2.56557e-10
2.56551e-10
2.56546e-10
2.5654e-10
2.56534e-10
2.56527e-10
2.5652e-10
2.56513e-10
2.56505e-10
2.56497e-10
2.56488e-10
2.56479e-10
2.5647e-10
2.5646e-10
2.56449e-10
2.56438e-10
2.56426e-10
2.56414e-10
2.564e-10
2.56387e-10
2.56372e-10
2.56357e-10
2.56341e-10
2.56324e-10
2.56306e-10
2.56288e-10
2.56269e-10
2.56249e-10
2.5623e-10
2.56209e-10
2.56188e-10
2.56167e-10
2.56146e-10
2.56125e-10
2.56104e-10
2.56083e-10
2.56062e-10
2.56043e-10
2.56023e-10
2.56005e-10
2.55988e-10
2.55972e-10
2.55958e-10
2.55945e-10
2.55934e-10
2.55925e-10
2.55917e-10
2.55912e-10
2.5591e-10
2.55909e-10
2.55909e-10
2.55909e-10
2.55912e-10
2.55922e-10
2.55933e-10
2.55946e-10
2.55961e-10
2.55977e-10
2.55996e-10
2.56016e-10
2.56037e-10
2.56059e-10
2.56081e-10
2.56104e-10
2.56127e-10
2.5615e-10
2.56173e-10
2.56195e-10
2.56216e-10
2.56237e-10
2.56256e-10
2.56274e-10
2.56291e-10
2.56307e-10
2.56321e-10
2.56334e-10
2.56346e-10
2.56356e-10
2.56365e-10
2.56373e-10
2.56379e-10
2.56385e-10
2.5639e-10
2.56393e-10
2.56396e-10
2.56398e-10
2.564e-10
2.56401e-10
2.56402e-10
2.56402e-10
2.56402e-10
2.56402e-10
2.56402e-10
2.56402e-10
2.56402e-10
2.56402e-10
2.56402e-10
2.56402e-10
2.56402e-10
2.56402e-10
2.56403e-10
2.56404e-10
2.56405e-10
2.56407e-10
2.56409e-10
2.56411e-10
2.56413e-10
2.56416e-10
2.56419e-10
2.56422e-10
2.56426e-10
2.56429e-10
2.56433e-10
2.56437e-10
2.56442e-10
2.56446e-10
2.56451e-10
2.56455e-10
2.5646e-10
2.56465e-10
2.5647e-10
2.56475e-10
2.56481e-10
2.56486e-10
2.56492e-10
2.56497e-10
2.56503e-10
2.56508e-10
2.56514e-10
2.56519e-10
2.56525e-10
2.5653e-10
2.56535e-10
2.56541e-10
2.56546e-10
2.56551e-10
2.56556e-10
2.56562e-10
2.56566e-10
2.56571e-10
2.56576e-10
2.56581e-10
2.56585e-10
2.56589e-10
2.56593e-10
2.56597e-10
2.56601e-10
2.56605e-10
2.56608e-10
2.56612e-10
2.56615e-10
2.56618e-10
2.5662e-10
2.56623e-10
2.56625e-10
2.56628e-10
2.5663e-10
2.56632e-10
2.56634e-10
2.56635e-10
2.56637e-10
2.56638e-10
2.56639e-10
2.56641e-10
2.56642e-10
2.56642e-10
2.56643e-10
2.56644e-10
2.56644e-10
2.56645e-10
2.56645e-10
2.56646e-10
2.56646e-10
2.56646e-10
2.56646e-10
2.56646e-10
2.56646e-10
2.56646e-10
2.56645e-10
2.56645e-10
2.56644e-10
2.56644e-10
2.56643e-10
2.56643e-10
2.56642e-10
2.56641e-10
2.5664e-10
2.56639e-10
2.56637e-10
2.56636e-10
2.56634e-10
2.56633e-10
2.56631e-10
2.56629e-10
2.56627e-10
2.56624e-10
2.56622e-10
2.56619e-10
2.56616e-10
2.56613e-10
2.56609e-10
2.56606e-10
2.56602e-10
2.56598e-10
2.56593e-10
2.56588e-10
2.56583e-10
2.56578e-10
2.56573e-10
2.56567e-10
2.56561e-10
2.56554e-10
2.56548e-10
2.56541e-10
2.56533e-10
2.56526e-10
2.56518e-10
2.56509e-10
2.56501e-10
2.56492e-10
2.56482e-10
2.56472e-10
2.56462e-10
2.56451e-10
2.5644e-10
2.56428e-10
2.56416e-10
2.56403e-10
2.5639e-10
2.56376e-10
2.56362e-10
2.56347e-10
2.56332e-10
2.56316e-10
2.563e-10
2.56283e-10
2.56266e-10
2.56249e-10
2.56231e-10
2.56213e-10
2.56194e-10
2.56176e-10
2.56157e-10
2.56138e-10
2.56119e-10
2.56101e-10
2.56083e-10
2.56065e-10
2.56047e-10
2.5603e-10
2.56014e-10
2.55999e-10
2.55984e-10
2.55971e-10
2.55959e-10
2.55948e-10
2.55939e-10
2.55931e-10
2.55925e-10
2.5592e-10
2.55917e-10
2.55916e-10
2.55916e-10
2.55916e-10
2.55918e-10
2.55925e-10
2.55933e-10
2.55943e-10
2.55955e-10
2.55969e-10
2.55984e-10
2.56e-10
2.56018e-10
2.56037e-10
2.56056e-10
2.56076e-10
2.56097e-10
2.56118e-10
2.56139e-10
2.5616e-10
2.56181e-10
2.56202e-10
2.56222e-10
2.56242e-10
2.5626e-10
2.56278e-10
2.56295e-10
2.56311e-10
2.56326e-10
2.56339e-10
2.56352e-10
2.56364e-10
2.56375e-10
2.56384e-10
2.56393e-10
2.56401e-10
2.56408e-10
2.56415e-10
2.5642e-10
2.56425e-10
2.5643e-10
2.56434e-10
2.56437e-10
2.5644e-10
2.56443e-10
2.56445e-10
2.56448e-10
2.5645e-10
2.56452e-10
2.56454e-10
2.56456e-10
2.56457e-10
2.56459e-10
2.56461e-10
2.56463e-10
2.56465e-10
2.56468e-10
2.5647e-10
2.56472e-10
2.56475e-10
2.56478e-10
2.5648e-10
2.56483e-10
2.56486e-10
2.5649e-10
2.56493e-10
2.56496e-10
2.56499e-10
2.56503e-10
2.56506e-10
2.5651e-10
2.56514e-10
2.56518e-10
2.56521e-10
2.56525e-10
2.56529e-10
2.56533e-10
2.56537e-10
2.5654e-10
2.56544e-10
2.56548e-10
2.56552e-10
2.56556e-10
2.5656e-10
2.56564e-10
2.56568e-10
2.56572e-10
2.56576e-10
2.56579e-10
2.56583e-10
2.56587e-10
2.56591e-10
2.56595e-10
2.56598e-10
2.56602e-10
2.56605e-10
2.56609e-10
2.56612e-10
2.56615e-10
2.56619e-10
2.56622e-10
2.56625e-10
2.56628e-10
2.5663e-10
2.56633e-10
2.56636e-10
2.56638e-10
2.56641e-10
2.56643e-10
2.56645e-10
2.56647e-10
2.56649e-10
2.56651e-10
2.56652e-10
2.56654e-10
2.56655e-10
2.56656e-10
2.56657e-10
2.56658e-10
2.56659e-10
2.5666e-10
2.5666e-10
2.56661e-10
2.56661e-10
2.56661e-10
2.56661e-10
2.56661e-10
2.56661e-10
2.56661e-10
2.5666e-10
2.5666e-10
2.56659e-10
2.56659e-10
2.56658e-10
2.56657e-10
2.56656e-10
2.56655e-10
2.56654e-10
2.56653e-10
2.56651e-10
2.5665e-10
2.56649e-10
2.56647e-10
2.56646e-10
2.56644e-10
2.56642e-10
2.5664e-10
2.56639e-10
2.56637e-10
2.56634e-10
2.56632e-10
2.5663e-10
2.56627e-10
2.56624e-10
2.56621e-10
2.56618e-10
2.56615e-10
2.56611e-10
2.56607e-10
2.56603e-10
2.56599e-10
2.56594e-10
2.56589e-10
2.56584e-10
2.56579e-10
2.56573e-10
2.56566e-10
2.5656e-10
2.56553e-10
2.56545e-10
2.56537e-10
2.56529e-10
2.5652e-10
2.5651e-10
2.56501e-10
2.5649e-10
2.5648e-10
2.56468e-10
2.56457e-10
2.56445e-10
2.56432e-10
2.56419e-10
2.56405e-10
2.5639e-10
2.56376e-10
2.56361e-10
2.56345e-10
2.56329e-10
2.56313e-10
2.56297e-10
2.5628e-10
2.56263e-10
2.56245e-10
2.56228e-10
2.5621e-10
2.56193e-10
2.56176e-10
2.56159e-10
2.56141e-10
2.56125e-10
2.56108e-10
2.56093e-10
2.56077e-10
2.56064e-10
2.56049e-10
2.56037e-10
2.56025e-10
2.56015e-10
2.56005e-10
)
;

boundaryField
{
    inlet
    {
        type            calculated;
        value           uniform -1.13622e-09;
    }
    outlet
    {
        type            calculated;
        value           uniform 2.55997e-10;
    }
    emptyWalls
    {
        type            empty;
        value           nonuniform List<scalar> 0();
    }
}


// ************************************************************************* //
