/*--------------------------------*- C++ -*----------------------------------*\
  =========                 |
  \\      /  F ield         | OpenFOAM: The Open Source CFD Toolbox
   \\    /   O peration     | Website:  https://openfoam.org
    \\  /    A nd           | Version:  9
     \\/     M anipulation  |
\*---------------------------------------------------------------------------*/
FoamFile
{
    format      ascii;
    class       volScalarField;
    location    "1600";
    object      Fa;
}
// * * * * * * * * * * * * * * * * * * * * * * * * * * * * * * * * * * * * * //

dimensions      [0 0 0 0 0 0 0];

internalField   nonuniform List<scalar> 
100
(
0.69909
0.698374
0.697348
0.69618
0.693972
0.692903
0.691932
0.691528
0.690081
0.689432
0.687492
0.686364
0.683021
0.681235
0.679641
0.677539
0.675343
0.673197
0.671018
0.66877
0.666539
0.664319
0.662014
0.659703
0.657329
0.654869
0.652344
0.649833
0.647335
0.644811
0.642288
0.63969
0.637033
0.634405
0.631822
0.629243
0.626684
0.624156
0.621685
0.619296
0.617025
0.614906
0.612896
0.610874
0.608612
0.605598
0.600445
0.590305
0.566555
0.470217
0.0730456
0.000167007
3.07365e-10
2.06954e-22
1.2135e-31
1.28632e-31
1.21357e-31
1.21369e-31
1.28667e-31
1.32401e-31
1.28684e-31
1.32409e-31
1.28686e-31
1.21399e-31
1.21397e-31
1.43895e-31
1.32372e-31
1.34998e-31
1.33997e-32
1.48036e-33
1.51858e-33
1.60474e-33
1.51755e-33
1.64924e-33
1.60473e-33
1.64924e-33
1.51755e-33
1.51755e-33
1.51755e-33
1.60473e-33
1.39137e-33
1.64924e-33
1.51755e-33
1.51755e-33
1.60473e-33
1.35053e-33
1.64924e-33
1.51755e-33
1.60473e-33
1.64924e-33
1.60473e-33
1.64924e-33
1.51755e-33
1.60473e-33
1.64924e-33
1.39137e-33
1.60473e-33
1.64924e-33
1.60473e-33
1.64924e-33
)
;

boundaryField
{
    inlet
    {
        type            calculated;
        value           uniform 0.395798;
    }
    outlet
    {
        type            calculated;
        value           uniform 5.9205e-34;
    }
    emptyWalls
    {
        type            empty;
    }
}


// ************************************************************************* //
