/*--------------------------------*- C++ -*----------------------------------*\
  =========                 |
  \\      /  F ield         | OpenFOAM: The Open Source CFD Toolbox
   \\    /   O peration     | Website:  https://openfoam.org
    \\  /    A nd           | Version:  9
     \\/     M anipulation  |
\*---------------------------------------------------------------------------*/
FoamFile
{
    format      ascii;
    class       volScalarField;
    location    "1600";
    object      kra;
}
// * * * * * * * * * * * * * * * * * * * * * * * * * * * * * * * * * * * * * //

dimensions      [0 0 0 0 0 0 0];

internalField   nonuniform List<scalar> 
100
(
3.94614e-05
2.89688e-05
3.11656e-05
2.97775e-05
2.95075e-05
2.9072e-05
2.8886e-05
2.86597e-05
2.84313e-05
2.821e-05
2.79489e-05
2.76605e-05
2.72658e-05
2.74818e-05
2.75313e-05
2.76182e-05
2.76537e-05
2.77056e-05
2.7754e-05
2.78e-05
2.78444e-05
2.78867e-05
2.79249e-05
2.79604e-05
2.7992e-05
2.8019e-05
2.80421e-05
2.80633e-05
2.80828e-05
2.80997e-05
2.81143e-05
2.81245e-05
2.81309e-05
2.81356e-05
2.81392e-05
2.81401e-05
2.81388e-05
2.81356e-05
2.81304e-05
2.81239e-05
2.81169e-05
2.81102e-05
2.81031e-05
2.80933e-05
2.80787e-05
2.80551e-05
2.80071e-05
2.79043e-05
2.76143e-05
2.59085e-05
9.68601e-06
3.78937e-08
7.12233e-14
4.79588e-26
2.81217e-35
2.98093e-35
2.81232e-35
2.81259e-35
2.98169e-35
3.06819e-35
2.98205e-35
3.06837e-35
2.9821e-35
2.81323e-35
2.81319e-35
3.33455e-35
3.06757e-35
3.13669e-35
4.91947e-36
1.15574e-36
1.21226e-36
1.28136e-36
1.21174e-36
1.31689e-36
1.28135e-36
1.31689e-36
1.21174e-36
1.21174e-36
1.21174e-36
1.28135e-36
1.11099e-36
1.31689e-36
1.21174e-36
1.21174e-36
1.28135e-36
1.07838e-36
1.31689e-36
1.21174e-36
1.28135e-36
1.31689e-36
1.28135e-36
1.31689e-36
1.21174e-36
1.28135e-36
1.31689e-36
1.11099e-36
1.28135e-36
1.31689e-36
1.28135e-36
1.31689e-36
)
;

boundaryField
{
    inlet
    {
        type            calculated;
        value           uniform 1.11267e-05;
    }
    outlet
    {
        type            calculated;
        value           uniform 4.72742e-37;
    }
    emptyWalls
    {
        type            empty;
    }
}


// ************************************************************************* //
