/*--------------------------------*- C++ -*----------------------------------*\
  =========                 |
  \\      /  F ield         | OpenFOAM: The Open Source CFD Toolbox
   \\    /   O peration     | Website:  https://openfoam.org
    \\  /    A nd           | Version:  9
     \\/     M anipulation  |
\*---------------------------------------------------------------------------*/
FoamFile
{
    format      ascii;
    class       volScalarField;
    location    "1600";
    object      p;
}
// * * * * * * * * * * * * * * * * * * * * * * * * * * * * * * * * * * * * * //

dimensions      [0 0 0 0 0 0 0];

internalField   nonuniform List<scalar> 
100
(
5.58642e+06
5.5782e+06
5.567e+06
5.55661e+06
5.54572e+06
5.53474e+06
5.52364e+06
5.51248e+06
5.50124e+06
5.48993e+06
5.47854e+06
5.46707e+06
5.45549e+06
5.44387e+06
5.43238e+06
5.42095e+06
5.40958e+06
5.39827e+06
5.38701e+06
5.37581e+06
5.36467e+06
5.35357e+06
5.34254e+06
5.33155e+06
5.32062e+06
5.30974e+06
5.29891e+06
5.28813e+06
5.2774e+06
5.26672e+06
5.25609e+06
5.2455e+06
5.23496e+06
5.22447e+06
5.21402e+06
5.20361e+06
5.19324e+06
5.18292e+06
5.17264e+06
5.16239e+06
5.15218e+06
5.14201e+06
5.13186e+06
5.12175e+06
5.11167e+06
5.10162e+06
5.09163e+06
5.08174e+06
5.07204e+06
5.06279e+06
5.05524e+06
5.05265e+06
5.05063e+06
5.04862e+06
5.04662e+06
5.04462e+06
5.04261e+06
5.04061e+06
5.0386e+06
5.0366e+06
5.0346e+06
5.03259e+06
5.03059e+06
5.02858e+06
5.02658e+06
5.02457e+06
5.02257e+06
5.02057e+06
5.01857e+06
5.01775e+06
5.01716e+06
5.01658e+06
5.016e+06
5.01541e+06
5.01483e+06
5.01425e+06
5.01367e+06
5.01309e+06
5.01251e+06
5.01192e+06
5.01134e+06
5.01076e+06
5.01018e+06
5.0096e+06
5.00902e+06
5.00843e+06
5.00785e+06
5.00727e+06
5.00669e+06
5.00611e+06
5.00553e+06
5.00494e+06
5.00436e+06
5.00378e+06
5.0032e+06
5.00262e+06
5.00204e+06
5.00145e+06
5.00087e+06
5.00029e+06
)
;

boundaryField
{
    inlet
    {
        type            darcyGradPressure;
        gradient        uniform 4.13019e+06;
        Mf              Mf;
        phi             phi;
        value           uniform 5.59468e+06;
    }
    outlet
    {
        type            fixedValue;
        value           uniform 5e+06;
    }
    emptyWalls
    {
        type            empty;
    }
}


// ************************************************************************* //
