/*--------------------------------*- C++ -*----------------------------------*\
  =========                 |
  \\      /  F ield         | OpenFOAM: The Open Source CFD Toolbox
   \\    /   O peration     | Website:  https://openfoam.org
    \\  /    A nd           | Version:  9
     \\/     M anipulation  |
\*---------------------------------------------------------------------------*/
FoamFile
{
    format      ascii;
    class       surfaceScalarField;
    location    "1600";
    object      phia;
}
// * * * * * * * * * * * * * * * * * * * * * * * * * * * * * * * * * * * * * //

dimensions      [0 2 0 0 0 0 0];

internalField   nonuniform List<scalar> 
99
(
1.41941e-08
1.41751e-08
1.41536e-08
1.41127e-08
1.40622e-08
1.40587e-08
1.40447e-08
1.4026e-08
1.40047e-08
1.39784e-08
1.39447e-08
1.3902e-08
1.38521e-08
1.38154e-08
1.37798e-08
1.37342e-08
1.36901e-08
1.36462e-08
1.36013e-08
1.35558e-08
1.35106e-08
1.34647e-08
1.34178e-08
1.33703e-08
1.33212e-08
1.32706e-08
1.32195e-08
1.31686e-08
1.31176e-08
1.30664e-08
1.30144e-08
1.29611e-08
1.29074e-08
1.28545e-08
1.28021e-08
1.27501e-08
1.26984e-08
1.26476e-08
1.25982e-08
1.25509e-08
1.25064e-08
1.24645e-08
1.24235e-08
1.238e-08
1.23264e-08
1.22435e-08
1.20882e-08
1.17849e-08
1.10492e-08
7.99588e-09
5.49182e-10
1.67761e-12
3.12012e-18
2.10095e-30
2.46385e-39
2.61171e-39
2.464e-39
2.46449e-39
2.65033e-39
2.68823e-39
2.61276e-39
2.6884e-39
2.53883e-39
2.46483e-39
2.46482e-39
2.92161e-39
2.6876e-39
2.73376e-39
1.09637e-40
2.97224e-41
3.17077e-41
3.25823e-41
3.0812e-41
3.34858e-41
3.25821e-41
3.34858e-41
3.0812e-41
3.0812e-41
3.0812e-41
3.25821e-41
2.825e-41
3.34858e-41
3.0812e-41
3.0812e-41
3.25821e-41
2.74209e-41
3.34858e-41
3.0812e-41
3.30339e-41
3.34858e-41
3.25821e-41
3.34858e-41
3.0812e-41
3.30339e-41
3.34858e-41
2.825e-41
3.30339e-41
3.34858e-41
3.25821e-41
)
;

boundaryField
{
    inlet
    {
        type            calculated;
        value           uniform -1.42126e-08;
    }
    outlet
    {
        type            calculated;
        value           uniform 1.20208e-41;
    }
    emptyWalls
    {
        type            empty;
        value           nonuniform List<scalar> 0();
    }
}


// ************************************************************************* //
