/*--------------------------------*- C++ -*----------------------------------*\
  =========                 |
  \\      /  F ield         | OpenFOAM: The Open Source CFD Toolbox
   \\    /   O peration     | Website:  https://openfoam.org
    \\  /    A nd           | Version:  9
     \\/     M anipulation  |
\*---------------------------------------------------------------------------*/
FoamFile
{
    format      ascii;
    class       surfaceScalarField;
    location    "1600";
    object      phib;
}
// * * * * * * * * * * * * * * * * * * * * * * * * * * * * * * * * * * * * * //

dimensions      [0 2 0 0 0 0 0];

internalField   nonuniform List<scalar> 
99
(
6.09044e-09
6.08963e-09
6.08869e-09
6.10617e-09
6.13151e-09
6.10989e-09
6.09886e-09
6.09258e-09
6.08773e-09
6.08454e-09
6.08182e-09
6.07868e-09
6.0806e-09
6.07784e-09
6.07353e-09
6.07913e-09
6.08246e-09
6.08498e-09
6.08776e-09
6.09023e-09
6.09158e-09
6.09285e-09
6.09424e-09
6.09557e-09
6.09774e-09
6.10078e-09
6.10373e-09
6.10583e-09
6.10757e-09
6.10914e-09
6.11118e-09
6.11444e-09
6.11794e-09
6.12078e-09
6.1234e-09
6.12621e-09
6.12939e-09
6.13275e-09
6.1361e-09
6.13919e-09
6.14153e-09
6.14316e-09
6.14492e-09
6.14757e-09
6.15099e-09
6.15585e-09
6.16494e-09
6.18409e-09
6.23833e-09
6.63765e-09
8.97668e-09
9.14868e-09
9.14643e-09
9.14855e-09
9.14929e-09
9.14931e-09
9.14872e-09
9.14819e-09
9.14772e-09
9.14739e-09
9.14722e-09
9.14717e-09
9.14717e-09
9.14724e-09
9.1473e-09
9.14737e-09
9.14989e-09
9.51657e-09
1.9311e-08
2.00847e-08
2.00941e-08
2.00942e-08
2.00942e-08
2.00942e-08
2.00942e-08
2.00942e-08
2.00942e-08
2.00942e-08
2.00942e-08
2.00942e-08
2.00942e-08
2.00942e-08
2.00942e-08
2.00942e-08
2.00942e-08
2.00942e-08
2.00942e-08
2.00942e-08
2.00942e-08
2.00942e-08
2.00942e-08
2.00942e-08
2.00942e-08
2.00942e-08
2.00942e-08
2.00942e-08
2.00942e-08
2.00942e-08
2.00942e-08
)
;

boundaryField
{
    inlet
    {
        type            calculated;
        value           uniform -6.09112e-09;
    }
    outlet
    {
        type            calculated;
        value           uniform 2.00942e-08;
    }
    emptyWalls
    {
        type            empty;
        value           nonuniform List<scalar> 0();
    }
}


// ************************************************************************* //
