/*--------------------------------*- C++ -*----------------------------------*\
  =========                 |
  \\      /  F ield         | OpenFOAM: The Open Source CFD Toolbox
   \\    /   O peration     | Website:  https://openfoam.org
    \\  /    A nd           | Version:  9
     \\/     M anipulation  |
\*---------------------------------------------------------------------------*/
FoamFile
{
    format      ascii;
    class       surfaceScalarField;
    location    "1600";
    object      phic;
}
// * * * * * * * * * * * * * * * * * * * * * * * * * * * * * * * * * * * * * //

dimensions      [0 2 0 0 0 0 0];

internalField   nonuniform List<scalar> 
99
(
1.91589e-11
3.9047e-11
6.14476e-11
8.48607e-11
1.10005e-10
1.3516e-10
1.60158e-10
1.85198e-10
2.11348e-10
2.4078e-10
2.77238e-10
3.23079e-10
3.71057e-10
4.105e-10
4.5038e-10
4.90377e-10
5.31136e-10
5.72526e-10
6.14692e-10
6.57684e-10
7.01521e-10
7.46186e-10
7.91656e-10
8.37882e-10
8.84799e-10
9.32364e-10
9.80538e-10
1.02929e-09
1.07853e-09
1.12819e-09
1.17814e-09
1.22823e-09
1.27838e-09
1.32844e-09
1.37822e-09
1.42747e-09
1.47599e-09
1.52343e-09
1.56941e-09
1.61362e-09
1.65583e-09
1.69612e-09
1.73529e-09
1.77614e-09
1.82632e-09
1.90441e-09
2.05055e-09
2.33475e-09
3.01621e-09
5.67021e-09
1.07779e-08
1.11534e-08
1.11573e-08
1.11552e-08
1.11544e-08
1.11544e-08
1.1155e-08
1.11555e-08
1.1156e-08
1.11563e-08
1.11565e-08
1.11566e-08
1.11566e-08
1.11565e-08
1.11564e-08
1.11564e-08
1.11538e-08
1.07872e-08
9.9269e-10
2.19086e-10
2.09592e-10
2.09491e-10
2.0949e-10
2.0949e-10
2.0949e-10
2.0949e-10
2.0949e-10
2.0949e-10
2.0949e-10
2.0949e-10
2.0949e-10
2.0949e-10
2.0949e-10
2.0949e-10
2.0949e-10
2.0949e-10
2.0949e-10
2.0949e-10
2.0949e-10
2.0949e-10
2.0949e-10
2.0949e-10
2.0949e-10
2.0949e-10
2.0949e-10
2.0949e-10
2.0949e-10
2.0949e-10
2.0949e-10
)
;

boundaryField
{
    inlet
    {
        type            calculated;
        value           uniform 0;
    }
    outlet
    {
        type            calculated;
        value           uniform 2.0949e-10;
    }
    emptyWalls
    {
        type            empty;
        value           nonuniform List<scalar> 0();
    }
}


// ************************************************************************* //
