/*--------------------------------*- C++ -*----------------------------------*\
  =========                 |
  \\      /  F ield         | OpenFOAM: The Open Source CFD Toolbox
   \\    /   O peration     | Website:  https://openfoam.org
    \\  /    A nd           | Version:  9
     \\/     M anipulation  |
\*---------------------------------------------------------------------------*/
FoamFile
{
    format      ascii;
    class       volVectorField;
    location    "1600";
    object      Ua;
}
// * * * * * * * * * * * * * * * * * * * * * * * * * * * * * * * * * * * * * //

dimensions      [0 0 0 0 0 0 0];

internalField   nonuniform List<vector> 
100
(
(0 0 8.84516e-06)
(0 0 1.12877e-05)
(0 0 1.12716e-05)
(0 0 1.12468e-05)
(0 0 1.12104e-05)
(0 0 1.1189e-05)
(0 0 1.1182e-05)
(0 0 1.1169e-05)
(0 0 1.1153e-05)
(0 0 1.11341e-05)
(0 0 1.11102e-05)
(0 0 1.10798e-05)
(0 0 1.1043e-05)
(0 0 1.10085e-05)
(0 0 1.09798e-05)
(0 0 1.09475e-05)
(0 0 1.09118e-05)
(0 0 1.08768e-05)
(0 0 1.08414e-05)
(0 0 1.08055e-05)
(0 0 1.07694e-05)
(0 0 1.07331e-05)
(0 0 1.06962e-05)
(0 0 1.06587e-05)
(0 0 1.06202e-05)
(0 0 1.05805e-05)
(0 0 1.05401e-05)
(0 0 1.04995e-05)
(0 0 1.0459e-05)
(0 0 1.04183e-05)
(0 0 1.03772e-05)
(0 0 1.03353e-05)
(0 0 1.02927e-05)
(0 0 1.02503e-05)
(0 0 1.02084e-05)
(0 0 1.01669e-05)
(0 0 1.01256e-05)
(0 0 1.00848e-05)
(0 0 1.0045e-05)
(0 0 1.00065e-05)
(0 0 9.96998e-06)
(0 0 9.93558e-06)
(0 0 9.90261e-06)
(0 0 9.86902e-06)
(0 0 9.83039e-06)
(0 0 9.77605e-06)
(0 0 9.68128e-06)
(0 0 9.49882e-06)
(0 0 9.0854e-06)
(0 0 7.5778e-06)
(0 0 3.39997e-06)
(0 0 2.1918e-07)
(0 0 6.675e-10)
(0 0 1.24146e-15)
(0 0 8.35942e-28)
(0 0 2.0195e-36)
(0 0 2.01956e-36)
(0 0 1.96098e-36)
(0 0 2.03512e-36)
(0 0 2.12414e-36)
(0 0 2.1092e-36)
(0 0 2.10927e-36)
(0 0 2.07985e-36)
(0 0 1.9909e-36)
(0 0 1.96145e-36)
(0 0 2.14319e-36)
(0 0 2.23183e-36)
(0 0 2.15709e-36)
(0 0 1.13135e-36)
(0 0 5.54494e-38)
(0 0 2.44423e-38)
(0 0 2.55802e-38)
(0 0 2.52238e-38)
(0 0 2.55833e-38)
(0 0 2.62876e-38)
(0 0 2.62876e-38)
(0 0 2.55833e-38)
(0 0 2.45194e-38)
(0 0 2.45194e-38)
(0 0 2.52237e-38)
(0 0 2.42043e-38)
(0 0 2.45639e-38)
(0 0 2.55833e-38)
(0 0 2.45194e-38)
(0 0 2.52237e-38)
(0 0 2.38744e-38)
(0 0 2.4234e-38)
(0 0 2.55833e-38)
(0 0 2.54035e-38)
(0 0 2.64673e-38)
(0 0 2.62876e-38)
(0 0 2.62876e-38)
(0 0 2.55833e-38)
(0 0 2.54035e-38)
(0 0 2.64673e-38)
(0 0 2.45639e-38)
(0 0 2.43841e-38)
(0 0 2.64673e-38)
(0 0 2.62876e-38)
(0 0 1.77469e-38)
)
;

boundaryField
{
    inlet
    {
        type            fixedValue;
        value           uniform (0 0 1.131e-05);
    }
    outlet
    {
        type            zeroGradient;
    }
    emptyWalls
    {
        type            empty;
    }
}


// ************************************************************************* //
