/*--------------------------------*- C++ -*----------------------------------*\
  =========                 |
  \\      /  F ield         | OpenFOAM: The Open Source CFD Toolbox
   \\    /   O peration     | Website:  https://openfoam.org
    \\  /    A nd           | Version:  9
     \\/     M anipulation  |
\*---------------------------------------------------------------------------*/
FoamFile
{
    format      ascii;
    class       volVectorField;
    location    "1600";
    object      Ub;
}
// * * * * * * * * * * * * * * * * * * * * * * * * * * * * * * * * * * * * * //

dimensions      [0 0 0 0 0 0 0];

internalField   nonuniform List<vector> 
100
(
(0 0 7.28911e-06)
(0 0 4.84629e-06)
(0 0 4.8456e-06)
(0 0 4.85218e-06)
(0 0 4.86922e-06)
(0 0 4.8707e-06)
(0 0 4.85771e-06)
(0 0 4.85082e-06)
(0 0 4.84639e-06)
(0 0 4.84319e-06)
(0 0 4.84084e-06)
(0 0 4.83851e-06)
(0 0 4.83803e-06)
(0 0 4.83769e-06)
(0 0 4.83487e-06)
(0 0 4.83539e-06)
(0 0 4.83894e-06)
(0 0 4.84127e-06)
(0 0 4.84338e-06)
(0 0 4.84547e-06)
(0 0 4.84699e-06)
(0 0 4.84803e-06)
(0 0 4.84909e-06)
(0 0 4.85017e-06)
(0 0 4.85156e-06)
(0 0 4.85364e-06)
(0 0 4.85602e-06)
(0 0 4.85803e-06)
(0 0 4.85956e-06)
(0 0 4.86088e-06)
(0 0 4.86231e-06)
(0 0 4.86442e-06)
(0 0 4.86711e-06)
(0 0 4.86963e-06)
(0 0 4.87181e-06)
(0 0 4.87397e-06)
(0 0 4.87635e-06)
(0 0 4.87895e-06)
(0 0 4.88162e-06)
(0 0 4.88418e-06)
(0 0 4.88634e-06)
(0 0 4.88793e-06)
(0 0 4.88927e-06)
(0 0 4.89103e-06)
(0 0 4.89344e-06)
(0 0 4.89674e-06)
(0 0 4.90229e-06)
(0 0 4.91352e-06)
(0 0 4.94272e-06)
(0 0 5.12319e-06)
(0 0 6.21274e-06)
(0 0 7.21185e-06)
(0 0 7.27939e-06)
(0 0 7.27934e-06)
(0 0 7.28048e-06)
(0 0 7.28078e-06)
(0 0 7.28056e-06)
(0 0 7.28011e-06)
(0 0 7.27971e-06)
(0 0 7.27939e-06)
(0 0 7.27919e-06)
(0 0 7.27911e-06)
(0 0 7.27909e-06)
(0 0 7.27912e-06)
(0 0 7.27917e-06)
(0 0 7.27922e-06)
(0 0 7.28025e-06)
(0 0 7.42715e-06)
(0 0 1.14701e-05)
(0 0 1.5675e-05)
(0 0 1.59866e-05)
(0 0 1.59905e-05)
(0 0 1.59905e-05)
(0 0 1.59905e-05)
(0 0 1.59905e-05)
(0 0 1.59905e-05)
(0 0 1.59905e-05)
(0 0 1.59905e-05)
(0 0 1.59905e-05)
(0 0 1.59905e-05)
(0 0 1.59905e-05)
(0 0 1.59905e-05)
(0 0 1.59905e-05)
(0 0 1.59905e-05)
(0 0 1.59905e-05)
(0 0 1.59905e-05)
(0 0 1.59905e-05)
(0 0 1.59905e-05)
(0 0 1.59905e-05)
(0 0 1.59905e-05)
(0 0 1.59905e-05)
(0 0 1.59905e-05)
(0 0 1.59905e-05)
(0 0 1.59905e-05)
(0 0 1.59905e-05)
(0 0 1.59905e-05)
(0 0 1.59905e-05)
(0 0 1.59905e-05)
(0 0 1.59905e-05)
(0 0 1.59905e-05)
)
;

boundaryField
{
    inlet
    {
        type            fixedValue;
        value           uniform (0 0 4.84716e-06);
    }
    outlet
    {
        type            zeroGradient;
    }
    emptyWalls
    {
        type            empty;
    }
}


// ************************************************************************* //
