/*--------------------------------*- C++ -*----------------------------------*\
  =========                 |
  \\      /  F ield         | OpenFOAM: The Open Source CFD Toolbox
   \\    /   O peration     | Website:  https://openfoam.org
    \\  /    A nd           | Version:  9
     \\/     M anipulation  |
\*---------------------------------------------------------------------------*/
FoamFile
{
    format      ascii;
    class       volVectorField;
    location    "1600";
    object      Uc;
}
// * * * * * * * * * * * * * * * * * * * * * * * * * * * * * * * * * * * * * //

dimensions      [0 0 0 0 0 0 0];

internalField   nonuniform List<vector> 
100
(
(0 0 2.29295e-08)
(0 0 2.31594e-08)
(0 0 3.99856e-08)
(0 0 5.82142e-08)
(0 0 7.75345e-08)
(0 0 9.7548e-08)
(0 0 1.17503e-07)
(0 0 1.37413e-07)
(0 0 1.57781e-07)
(0 0 1.79896e-07)
(0 0 2.06113e-07)
(0 0 2.38859e-07)
(0 0 2.76188e-07)
(0 0 3.10972e-07)
(0 0 3.42533e-07)
(0 0 3.74315e-07)
(0 0 4.06447e-07)
(0 0 4.39133e-07)
(0 0 4.72379e-07)
(0 0 5.06262e-07)
(0 0 5.4081e-07)
(0 0 5.76024e-07)
(0 0 6.11888e-07)
(0 0 6.48373e-07)
(0 0 6.85433e-07)
(0 0 7.23026e-07)
(0 0 7.6112e-07)
(0 0 7.99684e-07)
(0 0 8.38673e-07)
(0 0 8.78026e-07)
(0 0 9.17659e-07)
(0 0 9.57463e-07)
(0 0 9.97348e-07)
(0 0 1.03722e-06)
(0 0 1.07695e-06)
(0 0 1.11635e-06)
(0 0 1.15525e-06)
(0 0 1.19343e-06)
(0 0 1.2306e-06)
(0 0 1.26649e-06)
(0 0 1.30087e-06)
(0 0 1.3337e-06)
(0 0 1.36532e-06)
(0 0 1.39716e-06)
(0 0 1.43337e-06)
(0 0 1.48441e-06)
(0 0 1.57363e-06)
(0 0 1.74486e-06)
(0 0 2.12908e-06)
(0 0 3.45622e-06)
(0 0 6.54448e-06)
(0 0 8.72617e-06)
(0 0 8.87714e-06)
(0 0 8.87786e-06)
(0 0 8.87672e-06)
(0 0 8.87642e-06)
(0 0 8.87664e-06)
(0 0 8.87709e-06)
(0 0 8.87749e-06)
(0 0 8.87781e-06)
(0 0 8.87801e-06)
(0 0 8.87809e-06)
(0 0 8.87811e-06)
(0 0 8.87808e-06)
(0 0 8.87803e-06)
(0 0 8.87798e-06)
(0 0 8.87695e-06)
(0 0 8.73005e-06)
(0 0 4.68706e-06)
(0 0 4.8215e-07)
(0 0 1.70566e-07)
(0 0 1.66748e-07)
(0 0 1.66707e-07)
(0 0 1.66707e-07)
(0 0 1.66707e-07)
(0 0 1.66707e-07)
(0 0 1.66707e-07)
(0 0 1.66707e-07)
(0 0 1.66707e-07)
(0 0 1.66707e-07)
(0 0 1.66707e-07)
(0 0 1.66707e-07)
(0 0 1.66707e-07)
(0 0 1.66707e-07)
(0 0 1.66707e-07)
(0 0 1.66707e-07)
(0 0 1.66707e-07)
(0 0 1.66707e-07)
(0 0 1.66707e-07)
(0 0 1.66707e-07)
(0 0 1.66707e-07)
(0 0 1.66707e-07)
(0 0 1.66707e-07)
(0 0 1.66707e-07)
(0 0 1.66707e-07)
(0 0 1.66707e-07)
(0 0 1.66707e-07)
(0 0 1.66707e-07)
(0 0 1.66707e-07)
(0 0 1.66707e-07)
)
;

boundaryField
{
    inlet
    {
        type            fixedValue;
        value           uniform (0 0 0);
    }
    outlet
    {
        type            zeroGradient;
    }
    emptyWalls
    {
        type            empty;
    }
}


// ************************************************************************* //
