/*--------------------------------*- C++ -*----------------------------------*\
  =========                 |
  \\      /  F ield         | OpenFOAM: The Open Source CFD Toolbox
   \\    /   O peration     | Website:  https://openfoam.org
    \\  /    A nd           | Version:  9
     \\/     M anipulation  |
\*---------------------------------------------------------------------------*/
FoamFile
{
    format      ascii;
    class       volScalarField;
    location    "9800";
    object      krb;
}
// * * * * * * * * * * * * * * * * * * * * * * * * * * * * * * * * * * * * * //

dimensions      [0 0 0 0 0 0 0];

internalField   nonuniform List<scalar> 
1000
(
0.0981086
0.0991655
0.100437
0.101686
0.1029
0.104102
0.105248
0.106268
0.107266
0.108009
0.109296
0.11207
0.123249
0.207951
0.430176
0.487749
0.505019
0.513283
0.518351
0.52184
0.524392
0.526296
0.527726
0.528798
0.529592
0.530167
0.530566
0.530812
0.53092
0.530888
0.530711
0.53036
0.52982
0.529042
0.527943
0.526386
0.524211
0.521322
0.517846
0.514067
0.510138
0.506141
0.502125
0.498123
0.494153
0.490228
0.486356
0.482539
0.478782
0.475086
0.47145
0.467875
0.46436
0.460903
0.457505
0.454163
0.450877
0.447645
0.444466
0.441339
0.438262
0.435234
0.432254
0.42932
0.42643
0.423583
0.420779
0.418016
0.415294
0.412611
0.409968
0.407361
0.404791
0.402255
0.399751
0.397279
0.394838
0.392426
0.390043
0.387689
0.385363
0.383066
0.380798
0.378558
0.376346
0.374163
0.372008
0.369883
0.367787
0.36572
0.363682
0.361674
0.359694
0.357741
0.355816
0.353916
0.35204
0.350187
0.348354
0.346541
0.344746
0.342967
0.341205
0.339458
0.337725
0.336007
0.334303
0.332613
0.330938
0.329278
0.327632
0.326001
0.324384
0.322783
0.321197
0.319625
0.318068
0.316526
0.314999
0.313485
0.311986
0.3105
0.309028
0.307569
0.306123
0.304689
0.303268
0.301859
0.300462
0.299077
0.297703
0.296341
0.294989
0.293648
0.292318
0.290999
0.28969
0.28839
0.287102
0.285822
0.284553
0.283293
0.282042
0.2808
0.279568
0.278345
0.27713
0.275924
0.274726
0.273537
0.272357
0.271184
0.270019
0.268863
0.267714
0.266573
0.26544
0.264314
0.263196
0.262085
0.260981
0.259885
0.258796
0.257713
0.256638
0.255569
0.254507
0.253451
0.252402
0.25136
0.250324
0.249294
0.24827
0.247252
0.246241
0.245235
0.244235
0.243241
0.242253
0.24127
0.240293
0.239321
0.238355
0.237394
0.236439
0.235488
0.234543
0.233603
0.232668
0.231738
0.230812
0.229892
0.228976
0.228066
0.227159
0.226258
0.225361
0.224469
0.223581
0.222697
0.221818
0.220943
0.220073
0.219206
0.218344
0.217485
0.216631
0.215781
0.214935
0.214092
0.213253
0.212418
0.211587
0.210759
0.209934
0.209113
0.208296
0.207481
0.20667
0.205862
0.205057
0.204255
0.203455
0.202659
0.201866
0.201075
0.200287
0.199503
0.198721
0.197942
0.197166
0.196393
0.195624
0.194857
0.194094
0.193334
0.192578
0.191825
0.191076
0.190331
0.189589
0.188851
0.188116
0.187385
0.186658
0.185934
0.185213
0.184496
0.183782
0.183071
0.182362
0.181656
0.180953
0.180251
0.179552
0.178855
0.178159
0.177466
0.176773
0.176083
0.175394
0.174706
0.17402
0.173335
0.172652
0.17197
0.17129
0.170611
0.169934
0.169258
0.168584
0.167911
0.16724
0.166571
0.165903
0.165237
0.164573
0.16391
0.163249
0.162589
0.161931
0.161275
0.16062
0.159966
0.159314
0.158663
0.158014
0.157366
0.156719
0.156074
0.15543
0.154787
0.154145
0.153504
0.152865
0.152227
0.151589
0.150953
0.150317
0.149683
0.149049
0.148417
0.147785
0.147154
0.146524
0.145894
0.145266
0.144637
0.14401
0.143383
0.142757
0.142132
0.141507
0.140882
0.140258
0.139635
0.139011
0.138389
0.137766
0.137144
0.136522
0.1359
0.135279
0.134658
0.134037
0.133416
0.132795
0.132174
0.131553
0.130932
0.130311
0.12969
0.129069
0.128447
0.127826
0.127204
0.126581
0.125959
0.125336
0.124713
0.124089
0.123465
0.12284
0.122215
0.121589
0.120963
0.120336
0.119708
0.11908
0.118451
0.117821
0.117191
0.116561
0.115929
0.115298
0.114666
0.114034
0.113403
0.112771
0.112141
0.111512
0.110884
0.110259
0.109637
0.10902
0.108408
0.107804
0.107208
0.106624
0.106053
0.105498
0.104962
0.104447
0.103957
0.103494
0.10306
0.102659
0.102291
0.101957
0.101656
0.101385
0.101141
0.100914
0.100692
0.100449
0.100144
0.0997053
0.099012
0.0978592
0.0959211
0.0927212
0.0876833
0.0803826
0.0710267
0.0608253
0.0515632
0.0445191
0.0398867
0.0371376
0.0356082
0.0347881
0.0343573
0.0341334
0.0340175
0.0339577
0.0339267
0.0339106
0.0339021
0.0338977
0.0338952
0.0338937
0.0338927
0.0338921
0.0338915
0.0338911
0.0338907
0.0338903
0.03389
0.0338896
0.0338893
0.0338891
0.0338888
0.0338886
0.0338884
0.0338883
0.0338882
0.0338881
0.0338881
0.0338881
0.0338881
0.0338882
0.0338884
0.0338886
0.0338888
0.033889
0.0338893
0.0338897
0.03389
0.0338904
0.0338907
0.0338911
0.0338916
0.033892
0.0338924
0.0338928
0.0338932
0.0338936
0.0338939
0.0338943
0.0338946
0.0338949
0.0338952
0.0338954
0.0338956
0.0338958
0.033896
0.0338961
0.0338963
0.0338963
0.0338964
0.0338964
0.0338965
0.0338965
0.0338965
0.0338964
0.0338964
0.0338963
0.0338963
0.0338962
0.0338961
0.033896
0.0338959
0.0338958
0.0338958
0.0338957
0.0338956
0.0338955
0.0338954
0.0338953
0.0338952
0.0338951
0.033895
0.0338949
0.0338949
0.0338948
0.0338947
0.0338947
0.0338946
0.0338946
0.0338945
0.0338945
0.0338945
0.0338944
0.0338944
0.0338944
0.0338943
0.0338943
0.0338943
0.0338943
0.0338943
0.0338943
0.0338943
0.0338943
0.0338943
0.0338943
0.0338943
0.0338943
0.0338944
0.0338944
0.0338944
0.0338944
0.0338944
0.0338944
0.0338945
0.0338945
0.0338945
0.0338946
0.0338946
0.0338946
0.0338946
0.0338947
0.0338947
0.0338947
0.0338947
0.0338948
0.0338948
0.0338948
0.0338948
0.0338949
0.0338949
0.0338949
0.033895
0.033895
0.033895
0.033895
0.0338951
0.0338951
0.0338951
0.0338951
0.0338951
0.0338952
0.0338952
0.0338952
0.0338952
0.0338953
0.0338953
0.0338953
0.0338953
0.0338953
0.0338954
0.0338954
0.0338954
0.0338954
0.0338954
0.0338954
0.0338954
0.0338954
0.0338954
0.0338954
0.0338954
0.0338955
0.0338955
0.0338954
0.0338954
0.0338954
0.0338954
0.0338954
0.0338954
0.0338954
0.0338953
0.0338953
0.0338953
0.0338953
0.0338952
0.0338952
0.0338952
0.0338951
0.0338951
0.0338951
0.033895
0.033895
0.0338949
0.0338949
0.0338948
0.0338947
0.0338947
0.0338946
0.0338945
0.0338944
0.0338944
0.0338943
0.0338942
0.0338941
0.033894
0.0338939
0.0338937
0.0338936
0.0338935
0.0338933
0.0338932
0.033893
0.0338928
0.0338926
0.0338924
0.0338922
0.033892
0.0338918
0.0338915
0.0338913
0.033891
0.0338907
0.0338904
0.0338901
0.0338898
0.0338895
0.0338892
0.0338888
0.0338885
0.0338882
0.0338878
0.0338875
0.0338872
0.0338868
0.0338865
0.0338862
0.0338859
0.0338856
0.0338853
0.0338851
0.0338849
0.0338847
0.0338846
0.0338845
0.0338844
0.0338844
0.0338844
0.0338844
0.0338845
0.0338846
0.0338847
0.0338849
0.0338851
0.0338854
0.0338857
0.033886
0.0338863
0.0338866
0.0338869
0.0338873
0.0338876
0.033888
0.0338883
0.0338887
0.033889
0.0338893
0.0338896
0.0338899
0.0338902
0.0338905
0.0338908
0.033891
0.0338913
0.0338915
0.0338917
0.0338919
0.033892
0.0338922
0.0338923
0.0338924
0.0338925
0.0338926
0.0338927
0.0338928
0.0338928
0.0338929
0.0338929
0.033893
0.033893
0.0338931
0.0338931
0.0338931
0.0338931
0.0338932
0.0338932
0.0338932
0.0338932
0.0338933
0.0338933
0.0338933
0.0338934
0.0338934
0.0338934
0.0338935
0.0338935
0.0338935
0.0338936
0.0338936
0.0338937
0.0338937
0.0338938
0.0338938
0.0338939
0.0338939
0.033894
0.0338941
0.0338941
0.0338942
0.0338942
0.0338943
0.0338944
0.0338944
0.0338945
0.0338946
0.0338946
0.0338947
0.0338947
0.0338948
0.0338948
0.0338949
0.033895
0.033895
0.0338951
0.0338951
0.0338952
0.0338953
0.0338953
0.0338954
0.0338954
0.0338955
0.0338955
0.0338956
0.0338956
0.0338957
0.0338957
0.0338958
0.0338958
0.0338959
0.0338959
0.033896
0.033896
0.033896
0.0338961
0.0338961
0.0338961
0.0338961
0.0338962
0.0338962
0.0338962
0.0338962
0.0338962
0.0338962
0.0338962
0.0338963
0.0338963
0.0338963
0.0338963
0.0338963
0.0338963
0.0338963
0.0338963
0.0338962
0.0338962
0.0338962
0.0338962
0.0338962
0.0338962
0.0338961
0.0338961
0.0338961
0.0338961
0.033896
0.033896
0.033896
0.0338959
0.0338959
0.0338959
0.0338958
0.0338958
0.0338957
0.0338957
0.0338957
0.0338956
0.0338956
0.0338955
0.0338954
0.0338954
0.0338953
0.0338953
0.0338952
0.0338952
0.0338951
0.033895
0.0338949
0.0338949
0.0338948
0.0338947
0.0338946
0.0338945
0.0338944
0.0338943
0.0338942
0.0338941
0.033894
0.0338938
0.0338937
0.0338935
0.0338934
0.0338932
0.0338931
0.0338929
0.0338927
0.0338925
0.0338923
0.0338921
0.0338919
0.0338916
0.0338914
0.0338911
0.0338909
0.0338906
0.0338904
0.0338901
0.0338898
0.0338895
0.0338893
0.033889
0.0338887
0.0338884
0.0338881
0.0338879
0.0338876
0.0338874
0.0338871
0.0338869
0.0338867
0.0338865
0.0338863
0.0338861
0.033886
0.0338858
0.0338857
0.0338856
0.0338856
0.0338855
0.0338855
0.0338855
0.0338855
0.0338855
0.0338856
0.0338856
0.0338858
0.0338859
0.033886
0.0338862
0.0338864
0.0338866
0.0338868
0.0338871
0.0338873
0.0338876
0.0338878
0.0338881
0.0338884
0.0338886
0.0338889
0.0338891
0.0338894
0.0338896
0.0338899
0.0338901
0.0338903
0.0338905
0.0338907
0.0338909
0.0338911
0.0338913
0.0338914
0.0338916
0.0338917
0.0338918
0.033892
0.0338921
0.0338922
0.0338923
0.0338924
0.0338924
0.0338925
0.0338926
0.0338926
0.0338927
0.0338928
0.0338928
0.0338929
0.033893
0.033893
0.0338931
0.0338931
0.0338932
0.0338932
0.0338933
0.0338933
0.0338934
0.0338935
0.0338935
0.0338936
0.0338937
0.0338937
0.0338938
0.0338939
0.033894
0.033894
0.0338941
0.0338942
0.0338943
0.0338943
0.0338944
0.0338945
0.0338946
0.0338947
0.0338947
0.0338948
0.0338949
0.033895
0.033895
0.0338951
0.0338952
0.0338953
0.0338954
0.0338954
0.0338955
0.0338956
0.0338956
0.0338957
0.0338958
0.0338958
0.0338959
0.033896
0.033896
0.0338961
0.0338961
0.0338962
0.0338962
0.0338963
0.0338963
0.0338964
0.0338964
0.0338965
0.0338965
0.0338965
0.0338966
0.0338966
0.0338966
0.0338966
0.0338967
0.0338967
0.0338967
0.0338967
0.0338967
0.0338967
0.0338967
0.0338967
0.0338967
0.0338967
0.0338967
0.0338967
0.0338966
0.0338966
0.0338966
0.0338966
0.0338965
0.0338965
0.0338965
0.0338965
0.0338964
0.0338964
0.0338963
0.0338963
0.0338962
0.0338962
0.0338961
0.0338961
0.033896
0.033896
0.0338959
0.0338959
0.0338958
0.0338958
0.0338957
0.0338956
0.0338955
0.0338955
0.0338954
0.0338954
0.0338953
0.0338952
0.0338951
0.0338951
0.0338949
0.0338949
0.0338947
)
;

boundaryField
{
    inlet
    {
        type            calculated;
        value           uniform 0.0976562;
    }
    outlet
    {
        type            calculated;
        value           uniform 0.0338947;
    }
    emptyWalls
    {
        type            empty;
    }
}


// ************************************************************************* //
