/*--------------------------------*- C++ -*----------------------------------*\
  =========                 |
  \\      /  F ield         | OpenFOAM: The Open Source CFD Toolbox
   \\    /   O peration     | Website:  https://openfoam.org
    \\  /    A nd           | Version:  9
     \\/     M anipulation  |
\*---------------------------------------------------------------------------*/
FoamFile
{
    format      ascii;
    class       volVectorField;
    location    "9800";
    object      Ub;
}
// * * * * * * * * * * * * * * * * * * * * * * * * * * * * * * * * * * * * * //

dimensions      [0 0 0 0 0 0 0];

internalField   nonuniform List<vector> 
1000
(
(1.1362e-05 0 0)
(1.13622e-05 0 0)
(1.13624e-05 0 0)
(1.13628e-05 0 0)
(1.13633e-05 0 0)
(1.13641e-05 0 0)
(1.13649e-05 0 0)
(1.1366e-05 0 0)
(1.13669e-05 0 0)
(1.13679e-05 0 0)
(1.13697e-05 0 0)
(1.13746e-05 0 0)
(1.13958e-05 0 0)
(1.15384e-05 0 0)
(1.17067e-05 0 0)
(1.17609e-05 0 0)
(1.1777e-05 0 0)
(1.1785e-05 0 0)
(1.17902e-05 0 0)
(1.1794e-05 0 0)
(1.17969e-05 0 0)
(1.17993e-05 0 0)
(1.18012e-05 0 0)
(1.18027e-05 0 0)
(1.18039e-05 0 0)
(1.18048e-05 0 0)
(1.18055e-05 0 0)
(1.1806e-05 0 0)
(1.18063e-05 0 0)
(1.18063e-05 0 0)
(1.18061e-05 0 0)
(1.18056e-05 0 0)
(1.18048e-05 0 0)
(1.18035e-05 0 0)
(1.18016e-05 0 0)
(1.17987e-05 0 0)
(1.17946e-05 0 0)
(1.17889e-05 0 0)
(1.17819e-05 0 0)
(1.1774e-05 0 0)
(1.17656e-05 0 0)
(1.17568e-05 0 0)
(1.17477e-05 0 0)
(1.17383e-05 0 0)
(1.17288e-05 0 0)
(1.17191e-05 0 0)
(1.17094e-05 0 0)
(1.16995e-05 0 0)
(1.16895e-05 0 0)
(1.16794e-05 0 0)
(1.16692e-05 0 0)
(1.1659e-05 0 0)
(1.16487e-05 0 0)
(1.16383e-05 0 0)
(1.16279e-05 0 0)
(1.16174e-05 0 0)
(1.16069e-05 0 0)
(1.15964e-05 0 0)
(1.15858e-05 0 0)
(1.15752e-05 0 0)
(1.15646e-05 0 0)
(1.15539e-05 0 0)
(1.15432e-05 0 0)
(1.15324e-05 0 0)
(1.15216e-05 0 0)
(1.15106e-05 0 0)
(1.14995e-05 0 0)
(1.14883e-05 0 0)
(1.14771e-05 0 0)
(1.14659e-05 0 0)
(1.14547e-05 0 0)
(1.14433e-05 0 0)
(1.14319e-05 0 0)
(1.14202e-05 0 0)
(1.14083e-05 0 0)
(1.13961e-05 0 0)
(1.13835e-05 0 0)
(1.13706e-05 0 0)
(1.13573e-05 0 0)
(1.13438e-05 0 0)
(1.133e-05 0 0)
(1.13161e-05 0 0)
(1.13021e-05 0 0)
(1.1288e-05 0 0)
(1.1274e-05 0 0)
(1.12602e-05 0 0)
(1.12465e-05 0 0)
(1.12332e-05 0 0)
(1.12204e-05 0 0)
(1.1208e-05 0 0)
(1.11962e-05 0 0)
(1.1185e-05 0 0)
(1.11744e-05 0 0)
(1.11644e-05 0 0)
(1.1155e-05 0 0)
(1.1146e-05 0 0)
(1.11374e-05 0 0)
(1.1129e-05 0 0)
(1.11206e-05 0 0)
(1.11122e-05 0 0)
(1.11036e-05 0 0)
(1.10948e-05 0 0)
(1.10856e-05 0 0)
(1.1076e-05 0 0)
(1.1066e-05 0 0)
(1.10556e-05 0 0)
(1.10448e-05 0 0)
(1.10337e-05 0 0)
(1.10222e-05 0 0)
(1.10105e-05 0 0)
(1.09985e-05 0 0)
(1.09864e-05 0 0)
(1.09742e-05 0 0)
(1.0962e-05 0 0)
(1.09497e-05 0 0)
(1.09374e-05 0 0)
(1.09251e-05 0 0)
(1.09128e-05 0 0)
(1.09006e-05 0 0)
(1.08884e-05 0 0)
(1.08763e-05 0 0)
(1.08642e-05 0 0)
(1.08522e-05 0 0)
(1.08401e-05 0 0)
(1.08282e-05 0 0)
(1.08162e-05 0 0)
(1.08042e-05 0 0)
(1.07922e-05 0 0)
(1.07803e-05 0 0)
(1.07683e-05 0 0)
(1.07563e-05 0 0)
(1.07443e-05 0 0)
(1.07323e-05 0 0)
(1.07203e-05 0 0)
(1.07082e-05 0 0)
(1.06961e-05 0 0)
(1.0684e-05 0 0)
(1.06719e-05 0 0)
(1.06597e-05 0 0)
(1.06475e-05 0 0)
(1.06353e-05 0 0)
(1.0623e-05 0 0)
(1.06107e-05 0 0)
(1.05984e-05 0 0)
(1.0586e-05 0 0)
(1.05736e-05 0 0)
(1.05612e-05 0 0)
(1.05487e-05 0 0)
(1.05362e-05 0 0)
(1.05237e-05 0 0)
(1.05111e-05 0 0)
(1.04984e-05 0 0)
(1.04858e-05 0 0)
(1.04731e-05 0 0)
(1.04604e-05 0 0)
(1.04476e-05 0 0)
(1.04348e-05 0 0)
(1.0422e-05 0 0)
(1.04091e-05 0 0)
(1.03962e-05 0 0)
(1.03833e-05 0 0)
(1.03704e-05 0 0)
(1.03574e-05 0 0)
(1.03444e-05 0 0)
(1.03314e-05 0 0)
(1.03184e-05 0 0)
(1.03053e-05 0 0)
(1.02922e-05 0 0)
(1.0279e-05 0 0)
(1.02659e-05 0 0)
(1.02527e-05 0 0)
(1.02395e-05 0 0)
(1.02262e-05 0 0)
(1.02129e-05 0 0)
(1.01996e-05 0 0)
(1.01863e-05 0 0)
(1.01729e-05 0 0)
(1.01595e-05 0 0)
(1.01461e-05 0 0)
(1.01326e-05 0 0)
(1.01191e-05 0 0)
(1.01056e-05 0 0)
(1.0092e-05 0 0)
(1.00784e-05 0 0)
(1.00648e-05 0 0)
(1.00511e-05 0 0)
(1.00374e-05 0 0)
(1.00237e-05 0 0)
(1.00099e-05 0 0)
(9.9961e-06 0 0)
(9.98227e-06 0 0)
(9.96842e-06 0 0)
(9.95453e-06 0 0)
(9.94061e-06 0 0)
(9.92667e-06 0 0)
(9.9127e-06 0 0)
(9.8987e-06 0 0)
(9.88467e-06 0 0)
(9.87061e-06 0 0)
(9.85651e-06 0 0)
(9.84239e-06 0 0)
(9.82823e-06 0 0)
(9.81403e-06 0 0)
(9.7998e-06 0 0)
(9.78554e-06 0 0)
(9.77123e-06 0 0)
(9.75689e-06 0 0)
(9.74251e-06 0 0)
(9.72808e-06 0 0)
(9.71361e-06 0 0)
(9.69909e-06 0 0)
(9.68452e-06 0 0)
(9.66989e-06 0 0)
(9.65519e-06 0 0)
(9.64043e-06 0 0)
(9.62558e-06 0 0)
(9.61065e-06 0 0)
(9.59563e-06 0 0)
(9.58051e-06 0 0)
(9.56527e-06 0 0)
(9.54993e-06 0 0)
(9.53448e-06 0 0)
(9.5189e-06 0 0)
(9.50322e-06 0 0)
(9.48741e-06 0 0)
(9.4715e-06 0 0)
(9.45549e-06 0 0)
(9.43939e-06 0 0)
(9.4232e-06 0 0)
(9.40695e-06 0 0)
(9.39065e-06 0 0)
(9.37432e-06 0 0)
(9.35798e-06 0 0)
(9.34165e-06 0 0)
(9.32535e-06 0 0)
(9.30911e-06 0 0)
(9.29295e-06 0 0)
(9.27688e-06 0 0)
(9.26094e-06 0 0)
(9.24514e-06 0 0)
(9.22948e-06 0 0)
(9.21399e-06 0 0)
(9.19867e-06 0 0)
(9.18352e-06 0 0)
(9.16854e-06 0 0)
(9.15371e-06 0 0)
(9.13903e-06 0 0)
(9.12447e-06 0 0)
(9.11001e-06 0 0)
(9.09563e-06 0 0)
(9.08129e-06 0 0)
(9.06696e-06 0 0)
(9.05263e-06 0 0)
(9.03825e-06 0 0)
(9.02381e-06 0 0)
(9.00928e-06 0 0)
(8.99463e-06 0 0)
(8.97986e-06 0 0)
(8.96494e-06 0 0)
(8.94988e-06 0 0)
(8.93466e-06 0 0)
(8.91928e-06 0 0)
(8.90375e-06 0 0)
(8.88806e-06 0 0)
(8.87223e-06 0 0)
(8.85625e-06 0 0)
(8.84015e-06 0 0)
(8.82393e-06 0 0)
(8.80759e-06 0 0)
(8.79116e-06 0 0)
(8.77463e-06 0 0)
(8.75801e-06 0 0)
(8.74132e-06 0 0)
(8.72457e-06 0 0)
(8.70775e-06 0 0)
(8.69087e-06 0 0)
(8.67394e-06 0 0)
(8.65696e-06 0 0)
(8.63993e-06 0 0)
(8.62286e-06 0 0)
(8.60575e-06 0 0)
(8.58859e-06 0 0)
(8.57138e-06 0 0)
(8.55413e-06 0 0)
(8.53684e-06 0 0)
(8.5195e-06 0 0)
(8.50211e-06 0 0)
(8.48466e-06 0 0)
(8.46717e-06 0 0)
(8.44962e-06 0 0)
(8.43201e-06 0 0)
(8.41435e-06 0 0)
(8.39662e-06 0 0)
(8.37883e-06 0 0)
(8.36098e-06 0 0)
(8.34305e-06 0 0)
(8.32506e-06 0 0)
(8.307e-06 0 0)
(8.28887e-06 0 0)
(8.27066e-06 0 0)
(8.25237e-06 0 0)
(8.23401e-06 0 0)
(8.21557e-06 0 0)
(8.19705e-06 0 0)
(8.17844e-06 0 0)
(8.15975e-06 0 0)
(8.14097e-06 0 0)
(8.12211e-06 0 0)
(8.10316e-06 0 0)
(8.08411e-06 0 0)
(8.06498e-06 0 0)
(8.04576e-06 0 0)
(8.02644e-06 0 0)
(8.00702e-06 0 0)
(7.98751e-06 0 0)
(7.9679e-06 0 0)
(7.94819e-06 0 0)
(7.92837e-06 0 0)
(7.90846e-06 0 0)
(7.88843e-06 0 0)
(7.86831e-06 0 0)
(7.84808e-06 0 0)
(7.82774e-06 0 0)
(7.80729e-06 0 0)
(7.78673e-06 0 0)
(7.76606e-06 0 0)
(7.74527e-06 0 0)
(7.72437e-06 0 0)
(7.70335e-06 0 0)
(7.68221e-06 0 0)
(7.66095e-06 0 0)
(7.63957e-06 0 0)
(7.61806e-06 0 0)
(7.59643e-06 0 0)
(7.57467e-06 0 0)
(7.55278e-06 0 0)
(7.53076e-06 0 0)
(7.5086e-06 0 0)
(7.4863e-06 0 0)
(7.46387e-06 0 0)
(7.4413e-06 0 0)
(7.41858e-06 0 0)
(7.39573e-06 0 0)
(7.37272e-06 0 0)
(7.34957e-06 0 0)
(7.32626e-06 0 0)
(7.3028e-06 0 0)
(7.27919e-06 0 0)
(7.25542e-06 0 0)
(7.2315e-06 0 0)
(7.20742e-06 0 0)
(7.18319e-06 0 0)
(7.1588e-06 0 0)
(7.13425e-06 0 0)
(7.10955e-06 0 0)
(7.08471e-06 0 0)
(7.05972e-06 0 0)
(7.03461e-06 0 0)
(7.00937e-06 0 0)
(6.98401e-06 0 0)
(6.95857e-06 0 0)
(6.93306e-06 0 0)
(6.90751e-06 0 0)
(6.88196e-06 0 0)
(6.85647e-06 0 0)
(6.83107e-06 0 0)
(6.80584e-06 0 0)
(6.78086e-06 0 0)
(6.75621e-06 0 0)
(6.73201e-06 0 0)
(6.70838e-06 0 0)
(6.68544e-06 0 0)
(6.66331e-06 0 0)
(6.64214e-06 0 0)
(6.62205e-06 0 0)
(6.60317e-06 0 0)
(6.58561e-06 0 0)
(6.56943e-06 0 0)
(6.55468e-06 0 0)
(6.54131e-06 0 0)
(6.52925e-06 0 0)
(6.51826e-06 0 0)
(6.50797e-06 0 0)
(6.49772e-06 0 0)
(6.48633e-06 0 0)
(6.47181e-06 0 0)
(6.45068e-06 0 0)
(6.41703e-06 0 0)
(6.3608e-06 0 0)
(6.26573e-06 0 0)
(6.10744e-06 0 0)
(5.85466e-06 0 0)
(5.47924e-06 0 0)
(4.97854e-06 0 0)
(4.39924e-06 0 0)
(3.83152e-06 0 0)
(3.36258e-06 0 0)
(3.03062e-06 0 0)
(2.82245e-06 0 0)
(2.70238e-06 0 0)
(2.63659e-06 0 0)
(2.60155e-06 0 0)
(2.58316e-06 0 0)
(2.57354e-06 0 0)
(2.56848e-06 0 0)
(2.56577e-06 0 0)
(2.56428e-06 0 0)
(2.56341e-06 0 0)
(2.56287e-06 0 0)
(2.56248e-06 0 0)
(2.56217e-06 0 0)
(2.5619e-06 0 0)
(2.56166e-06 0 0)
(2.56143e-06 0 0)
(2.56121e-06 0 0)
(2.561e-06 0 0)
(2.5608e-06 0 0)
(2.5606e-06 0 0)
(2.56042e-06 0 0)
(2.56025e-06 0 0)
(2.56009e-06 0 0)
(2.55995e-06 0 0)
(2.55983e-06 0 0)
(2.55972e-06 0 0)
(2.55964e-06 0 0)
(2.55959e-06 0 0)
(2.55956e-06 0 0)
(2.55955e-06 0 0)
(2.55955e-06 0 0)
(2.55956e-06 0 0)
(2.55961e-06 0 0)
(2.55969e-06 0 0)
(2.5598e-06 0 0)
(2.55993e-06 0 0)
(2.56008e-06 0 0)
(2.56025e-06 0 0)
(2.56043e-06 0 0)
(2.56063e-06 0 0)
(2.56083e-06 0 0)
(2.56105e-06 0 0)
(2.56128e-06 0 0)
(2.5615e-06 0 0)
(2.56174e-06 0 0)
(2.56197e-06 0 0)
(2.5622e-06 0 0)
(2.56242e-06 0 0)
(2.56264e-06 0 0)
(2.56285e-06 0 0)
(2.56305e-06 0 0)
(2.56324e-06 0 0)
(2.56342e-06 0 0)
(2.56358e-06 0 0)
(2.56374e-06 0 0)
(2.56388e-06 0 0)
(2.564e-06 0 0)
(2.56412e-06 0 0)
(2.56422e-06 0 0)
(2.56431e-06 0 0)
(2.56439e-06 0 0)
(2.56446e-06 0 0)
(2.56452e-06 0 0)
(2.56456e-06 0 0)
(2.56461e-06 0 0)
(2.56464e-06 0 0)
(2.56467e-06 0 0)
(2.56469e-06 0 0)
(2.56471e-06 0 0)
(2.56472e-06 0 0)
(2.56473e-06 0 0)
(2.56474e-06 0 0)
(2.56475e-06 0 0)
(2.56475e-06 0 0)
(2.56476e-06 0 0)
(2.56476e-06 0 0)
(2.56477e-06 0 0)
(2.56477e-06 0 0)
(2.56478e-06 0 0)
(2.56479e-06 0 0)
(2.5648e-06 0 0)
(2.56481e-06 0 0)
(2.56482e-06 0 0)
(2.56484e-06 0 0)
(2.56485e-06 0 0)
(2.56487e-06 0 0)
(2.56489e-06 0 0)
(2.56491e-06 0 0)
(2.56493e-06 0 0)
(2.56495e-06 0 0)
(2.56498e-06 0 0)
(2.56501e-06 0 0)
(2.56503e-06 0 0)
(2.56506e-06 0 0)
(2.56509e-06 0 0)
(2.56512e-06 0 0)
(2.56515e-06 0 0)
(2.56518e-06 0 0)
(2.56521e-06 0 0)
(2.56525e-06 0 0)
(2.56528e-06 0 0)
(2.56531e-06 0 0)
(2.56534e-06 0 0)
(2.56538e-06 0 0)
(2.56541e-06 0 0)
(2.56544e-06 0 0)
(2.56548e-06 0 0)
(2.56551e-06 0 0)
(2.56554e-06 0 0)
(2.56557e-06 0 0)
(2.56561e-06 0 0)
(2.56564e-06 0 0)
(2.56567e-06 0 0)
(2.5657e-06 0 0)
(2.56572e-06 0 0)
(2.56575e-06 0 0)
(2.56578e-06 0 0)
(2.56581e-06 0 0)
(2.56583e-06 0 0)
(2.56586e-06 0 0)
(2.56588e-06 0 0)
(2.5659e-06 0 0)
(2.56592e-06 0 0)
(2.56594e-06 0 0)
(2.56596e-06 0 0)
(2.56598e-06 0 0)
(2.566e-06 0 0)
(2.56601e-06 0 0)
(2.56603e-06 0 0)
(2.56604e-06 0 0)
(2.56605e-06 0 0)
(2.56606e-06 0 0)
(2.56607e-06 0 0)
(2.56608e-06 0 0)
(2.56609e-06 0 0)
(2.56609e-06 0 0)
(2.5661e-06 0 0)
(2.5661e-06 0 0)
(2.56611e-06 0 0)
(2.56611e-06 0 0)
(2.56611e-06 0 0)
(2.56611e-06 0 0)
(2.56611e-06 0 0)
(2.56611e-06 0 0)
(2.56611e-06 0 0)
(2.56611e-06 0 0)
(2.56611e-06 0 0)
(2.5661e-06 0 0)
(2.5661e-06 0 0)
(2.56609e-06 0 0)
(2.56609e-06 0 0)
(2.56608e-06 0 0)
(2.56607e-06 0 0)
(2.56607e-06 0 0)
(2.56606e-06 0 0)
(2.56605e-06 0 0)
(2.56604e-06 0 0)
(2.56603e-06 0 0)
(2.56602e-06 0 0)
(2.56601e-06 0 0)
(2.566e-06 0 0)
(2.56598e-06 0 0)
(2.56597e-06 0 0)
(2.56596e-06 0 0)
(2.56594e-06 0 0)
(2.56593e-06 0 0)
(2.56591e-06 0 0)
(2.5659e-06 0 0)
(2.56588e-06 0 0)
(2.56586e-06 0 0)
(2.56585e-06 0 0)
(2.56583e-06 0 0)
(2.56581e-06 0 0)
(2.56579e-06 0 0)
(2.56577e-06 0 0)
(2.56574e-06 0 0)
(2.56572e-06 0 0)
(2.5657e-06 0 0)
(2.56567e-06 0 0)
(2.56565e-06 0 0)
(2.56562e-06 0 0)
(2.56559e-06 0 0)
(2.56556e-06 0 0)
(2.56553e-06 0 0)
(2.5655e-06 0 0)
(2.56547e-06 0 0)
(2.56543e-06 0 0)
(2.5654e-06 0 0)
(2.56536e-06 0 0)
(2.56532e-06 0 0)
(2.56527e-06 0 0)
(2.56523e-06 0 0)
(2.56518e-06 0 0)
(2.56513e-06 0 0)
(2.56507e-06 0 0)
(2.56501e-06 0 0)
(2.56495e-06 0 0)
(2.56488e-06 0 0)
(2.56481e-06 0 0)
(2.56473e-06 0 0)
(2.56465e-06 0 0)
(2.56456e-06 0 0)
(2.56447e-06 0 0)
(2.56437e-06 0 0)
(2.56427e-06 0 0)
(2.56416e-06 0 0)
(2.56404e-06 0 0)
(2.56392e-06 0 0)
(2.56379e-06 0 0)
(2.56366e-06 0 0)
(2.56351e-06 0 0)
(2.56337e-06 0 0)
(2.56321e-06 0 0)
(2.56305e-06 0 0)
(2.56289e-06 0 0)
(2.56272e-06 0 0)
(2.56254e-06 0 0)
(2.56237e-06 0 0)
(2.56219e-06 0 0)
(2.56201e-06 0 0)
(2.56183e-06 0 0)
(2.56164e-06 0 0)
(2.56146e-06 0 0)
(2.56128e-06 0 0)
(2.56111e-06 0 0)
(2.56094e-06 0 0)
(2.56077e-06 0 0)
(2.56061e-06 0 0)
(2.56046e-06 0 0)
(2.56032e-06 0 0)
(2.56019e-06 0 0)
(2.56008e-06 0 0)
(2.55998e-06 0 0)
(2.55989e-06 0 0)
(2.55982e-06 0 0)
(2.55976e-06 0 0)
(2.55973e-06 0 0)
(2.55971e-06 0 0)
(2.5597e-06 0 0)
(2.55971e-06 0 0)
(2.55972e-06 0 0)
(2.55975e-06 0 0)
(2.55982e-06 0 0)
(2.5599e-06 0 0)
(2.56e-06 0 0)
(2.56012e-06 0 0)
(2.56025e-06 0 0)
(2.56039e-06 0 0)
(2.56054e-06 0 0)
(2.56071e-06 0 0)
(2.56088e-06 0 0)
(2.56105e-06 0 0)
(2.56123e-06 0 0)
(2.56141e-06 0 0)
(2.5616e-06 0 0)
(2.56178e-06 0 0)
(2.56196e-06 0 0)
(2.56214e-06 0 0)
(2.56231e-06 0 0)
(2.56248e-06 0 0)
(2.56264e-06 0 0)
(2.5628e-06 0 0)
(2.56294e-06 0 0)
(2.56308e-06 0 0)
(2.56321e-06 0 0)
(2.56333e-06 0 0)
(2.56345e-06 0 0)
(2.56355e-06 0 0)
(2.56364e-06 0 0)
(2.56373e-06 0 0)
(2.56381e-06 0 0)
(2.56388e-06 0 0)
(2.56394e-06 0 0)
(2.564e-06 0 0)
(2.56405e-06 0 0)
(2.5641e-06 0 0)
(2.56414e-06 0 0)
(2.56417e-06 0 0)
(2.56421e-06 0 0)
(2.56424e-06 0 0)
(2.56427e-06 0 0)
(2.56429e-06 0 0)
(2.56431e-06 0 0)
(2.56434e-06 0 0)
(2.56436e-06 0 0)
(2.56438e-06 0 0)
(2.5644e-06 0 0)
(2.56442e-06 0 0)
(2.56444e-06 0 0)
(2.56447e-06 0 0)
(2.56449e-06 0 0)
(2.56451e-06 0 0)
(2.56454e-06 0 0)
(2.56457e-06 0 0)
(2.56459e-06 0 0)
(2.56462e-06 0 0)
(2.56465e-06 0 0)
(2.56468e-06 0 0)
(2.56471e-06 0 0)
(2.56474e-06 0 0)
(2.56478e-06 0 0)
(2.56481e-06 0 0)
(2.56485e-06 0 0)
(2.56489e-06 0 0)
(2.56492e-06 0 0)
(2.56496e-06 0 0)
(2.565e-06 0 0)
(2.56504e-06 0 0)
(2.56508e-06 0 0)
(2.56511e-06 0 0)
(2.56515e-06 0 0)
(2.56519e-06 0 0)
(2.56524e-06 0 0)
(2.56528e-06 0 0)
(2.56532e-06 0 0)
(2.56536e-06 0 0)
(2.5654e-06 0 0)
(2.56544e-06 0 0)
(2.56548e-06 0 0)
(2.56551e-06 0 0)
(2.56555e-06 0 0)
(2.56559e-06 0 0)
(2.56563e-06 0 0)
(2.56567e-06 0 0)
(2.56571e-06 0 0)
(2.56574e-06 0 0)
(2.56578e-06 0 0)
(2.56581e-06 0 0)
(2.56585e-06 0 0)
(2.56588e-06 0 0)
(2.56591e-06 0 0)
(2.56595e-06 0 0)
(2.56598e-06 0 0)
(2.56601e-06 0 0)
(2.56604e-06 0 0)
(2.56606e-06 0 0)
(2.56609e-06 0 0)
(2.56612e-06 0 0)
(2.56614e-06 0 0)
(2.56616e-06 0 0)
(2.56618e-06 0 0)
(2.56621e-06 0 0)
(2.56622e-06 0 0)
(2.56624e-06 0 0)
(2.56626e-06 0 0)
(2.56627e-06 0 0)
(2.56629e-06 0 0)
(2.5663e-06 0 0)
(2.56631e-06 0 0)
(2.56632e-06 0 0)
(2.56633e-06 0 0)
(2.56633e-06 0 0)
(2.56634e-06 0 0)
(2.56634e-06 0 0)
(2.56635e-06 0 0)
(2.56635e-06 0 0)
(2.56635e-06 0 0)
(2.56635e-06 0 0)
(2.56635e-06 0 0)
(2.56635e-06 0 0)
(2.56634e-06 0 0)
(2.56633e-06 0 0)
(2.56633e-06 0 0)
(2.56632e-06 0 0)
(2.56631e-06 0 0)
(2.5663e-06 0 0)
(2.56629e-06 0 0)
(2.56627e-06 0 0)
(2.56626e-06 0 0)
(2.56625e-06 0 0)
(2.56623e-06 0 0)
(2.56622e-06 0 0)
(2.5662e-06 0 0)
(2.56618e-06 0 0)
(2.56616e-06 0 0)
(2.56614e-06 0 0)
(2.56612e-06 0 0)
(2.5661e-06 0 0)
(2.56608e-06 0 0)
(2.56605e-06 0 0)
(2.56603e-06 0 0)
(2.566e-06 0 0)
(2.56598e-06 0 0)
(2.56595e-06 0 0)
(2.56592e-06 0 0)
(2.56589e-06 0 0)
(2.56586e-06 0 0)
(2.56583e-06 0 0)
(2.5658e-06 0 0)
(2.56577e-06 0 0)
(2.56573e-06 0 0)
(2.56569e-06 0 0)
(2.56566e-06 0 0)
(2.56562e-06 0 0)
(2.56557e-06 0 0)
(2.56553e-06 0 0)
(2.56548e-06 0 0)
(2.56543e-06 0 0)
(2.56538e-06 0 0)
(2.56533e-06 0 0)
(2.56527e-06 0 0)
(2.56521e-06 0 0)
(2.56515e-06 0 0)
(2.56508e-06 0 0)
(2.56501e-06 0 0)
(2.56494e-06 0 0)
(2.56486e-06 0 0)
(2.56478e-06 0 0)
(2.5647e-06 0 0)
(2.5646e-06 0 0)
(2.56451e-06 0 0)
(2.56441e-06 0 0)
(2.56431e-06 0 0)
(2.5642e-06 0 0)
(2.56408e-06 0 0)
(2.56396e-06 0 0)
(2.56384e-06 0 0)
(2.56371e-06 0 0)
(2.56358e-06 0 0)
(2.56344e-06 0 0)
(2.5633e-06 0 0)
(2.56315e-06 0 0)
(2.56301e-06 0 0)
(2.56285e-06 0 0)
(2.5627e-06 0 0)
(2.56254e-06 0 0)
(2.56239e-06 0 0)
(2.56223e-06 0 0)
(2.56207e-06 0 0)
(2.56191e-06 0 0)
(2.56176e-06 0 0)
(2.5616e-06 0 0)
(2.56145e-06 0 0)
(2.56131e-06 0 0)
(2.56116e-06 0 0)
(2.56103e-06 0 0)
(2.5609e-06 0 0)
(2.56077e-06 0 0)
(2.56066e-06 0 0)
(2.56055e-06 0 0)
(2.56046e-06 0 0)
(2.56037e-06 0 0)
(2.5603e-06 0 0)
(2.56024e-06 0 0)
(2.56019e-06 0 0)
(2.56015e-06 0 0)
(2.56013e-06 0 0)
(2.56012e-06 0 0)
(2.56011e-06 0 0)
(2.56012e-06 0 0)
(2.56013e-06 0 0)
(2.56016e-06 0 0)
(2.56022e-06 0 0)
(2.56029e-06 0 0)
(2.56037e-06 0 0)
(2.56047e-06 0 0)
(2.56057e-06 0 0)
(2.56068e-06 0 0)
(2.56081e-06 0 0)
(2.56094e-06 0 0)
(2.56107e-06 0 0)
(2.56122e-06 0 0)
(2.56136e-06 0 0)
(2.56151e-06 0 0)
(2.56166e-06 0 0)
(2.56181e-06 0 0)
(2.56196e-06 0 0)
(2.56211e-06 0 0)
(2.56226e-06 0 0)
(2.5624e-06 0 0)
(2.56254e-06 0 0)
(2.56268e-06 0 0)
(2.56281e-06 0 0)
(2.56293e-06 0 0)
(2.56305e-06 0 0)
(2.56316e-06 0 0)
(2.56327e-06 0 0)
(2.56337e-06 0 0)
(2.56346e-06 0 0)
(2.56355e-06 0 0)
(2.56363e-06 0 0)
(2.56371e-06 0 0)
(2.56378e-06 0 0)
(2.56385e-06 0 0)
(2.56391e-06 0 0)
(2.56397e-06 0 0)
(2.56402e-06 0 0)
(2.56407e-06 0 0)
(2.56412e-06 0 0)
(2.56416e-06 0 0)
(2.5642e-06 0 0)
(2.56424e-06 0 0)
(2.56428e-06 0 0)
(2.56431e-06 0 0)
(2.56435e-06 0 0)
(2.56438e-06 0 0)
(2.56442e-06 0 0)
(2.56445e-06 0 0)
(2.56448e-06 0 0)
(2.56452e-06 0 0)
(2.56455e-06 0 0)
(2.56459e-06 0 0)
(2.56462e-06 0 0)
(2.56466e-06 0 0)
(2.56469e-06 0 0)
(2.56473e-06 0 0)
(2.56477e-06 0 0)
(2.56481e-06 0 0)
(2.56485e-06 0 0)
(2.56489e-06 0 0)
(2.56493e-06 0 0)
(2.56497e-06 0 0)
(2.56501e-06 0 0)
(2.56506e-06 0 0)
(2.5651e-06 0 0)
(2.56514e-06 0 0)
(2.56519e-06 0 0)
(2.56523e-06 0 0)
(2.56528e-06 0 0)
(2.56532e-06 0 0)
(2.56537e-06 0 0)
(2.56541e-06 0 0)
(2.56546e-06 0 0)
(2.5655e-06 0 0)
(2.56554e-06 0 0)
(2.56559e-06 0 0)
(2.56563e-06 0 0)
(2.56568e-06 0 0)
(2.56572e-06 0 0)
(2.56576e-06 0 0)
(2.5658e-06 0 0)
(2.56584e-06 0 0)
(2.56588e-06 0 0)
(2.56592e-06 0 0)
(2.56596e-06 0 0)
(2.566e-06 0 0)
(2.56604e-06 0 0)
(2.56608e-06 0 0)
(2.56611e-06 0 0)
(2.56614e-06 0 0)
(2.56618e-06 0 0)
(2.56621e-06 0 0)
(2.56624e-06 0 0)
(2.56627e-06 0 0)
(2.5663e-06 0 0)
(2.56632e-06 0 0)
(2.56635e-06 0 0)
(2.56637e-06 0 0)
(2.56639e-06 0 0)
(2.56641e-06 0 0)
(2.56643e-06 0 0)
(2.56645e-06 0 0)
(2.56647e-06 0 0)
(2.56648e-06 0 0)
(2.56649e-06 0 0)
(2.5665e-06 0 0)
(2.56651e-06 0 0)
(2.56652e-06 0 0)
(2.56652e-06 0 0)
(2.56653e-06 0 0)
(2.56653e-06 0 0)
(2.56653e-06 0 0)
(2.56653e-06 0 0)
(2.56653e-06 0 0)
(2.56652e-06 0 0)
(2.56652e-06 0 0)
(2.56651e-06 0 0)
(2.5665e-06 0 0)
(2.56649e-06 0 0)
(2.56647e-06 0 0)
(2.56646e-06 0 0)
(2.56644e-06 0 0)
(2.56643e-06 0 0)
(2.56641e-06 0 0)
(2.56639e-06 0 0)
(2.56637e-06 0 0)
(2.56634e-06 0 0)
(2.56632e-06 0 0)
(2.56629e-06 0 0)
(2.56627e-06 0 0)
(2.56624e-06 0 0)
(2.56621e-06 0 0)
(2.56618e-06 0 0)
(2.56615e-06 0 0)
(2.56612e-06 0 0)
(2.56609e-06 0 0)
(2.56606e-06 0 0)
(2.56602e-06 0 0)
(2.56599e-06 0 0)
(2.56595e-06 0 0)
(2.56591e-06 0 0)
(2.56588e-06 0 0)
(2.56584e-06 0 0)
(2.5658e-06 0 0)
(2.56576e-06 0 0)
(2.56572e-06 0 0)
(2.56568e-06 0 0)
(2.56563e-06 0 0)
(2.56559e-06 0 0)
(2.56554e-06 0 0)
(2.56549e-06 0 0)
(2.56544e-06 0 0)
)
;

boundaryField
{
    inlet
    {
        type            fixedValue;
        value           uniform (1.13622e-05 0 0);
    }
    outlet
    {
        type            zeroGradient;
    }
    emptyWalls
    {
        type            empty;
    }
}


// ************************************************************************* //
