/*--------------------------------*- C++ -*----------------------------------*\
  =========                 |
  \\      /  F ield         | OpenFOAM: The Open Source CFD Toolbox
   \\    /   O peration     | Website:  https://openfoam.org
    \\  /    A nd           | Version:  9
     \\/     M anipulation  |
\*---------------------------------------------------------------------------*/
FoamFile
{
    format      ascii;
    class       volScalarField;
    location    "1800";
    object      kra;
}
// * * * * * * * * * * * * * * * * * * * * * * * * * * * * * * * * * * * * * //

dimensions      [0 0 0 0 0 0 0];

internalField   nonuniform List<scalar> 
100
(
3.96276e-05
2.88653e-05
3.12147e-05
2.97277e-05
2.97002e-05
2.92436e-05
2.89807e-05
2.86853e-05
2.84256e-05
2.81708e-05
2.79243e-05
2.76765e-05
2.74188e-05
2.73738e-05
2.75e-05
2.75518e-05
2.76224e-05
2.76786e-05
2.77337e-05
2.77834e-05
2.78297e-05
2.78722e-05
2.79114e-05
2.79474e-05
2.79803e-05
2.80103e-05
2.80375e-05
2.80621e-05
2.80841e-05
2.81036e-05
2.81206e-05
2.81352e-05
2.81474e-05
2.81571e-05
2.81644e-05
2.81693e-05
2.81716e-05
2.81714e-05
2.81686e-05
2.81631e-05
2.81548e-05
2.81435e-05
2.8129e-05
2.8111e-05
2.80893e-05
2.80633e-05
2.80323e-05
2.79955e-05
2.79514e-05
2.78981e-05
2.78321e-05
2.77479e-05
2.76358e-05
2.7476e-05
2.72251e-05
2.67674e-05
2.57073e-05
2.22524e-05
1.0627e-05
7.506e-07
3.86182e-10
1.70919e-17
6.41714e-33
2.79186e-35
2.79172e-35
3.30897e-35
3.04461e-35
3.21937e-35
2.7912e-35
2.79107e-35
3.04405e-35
3.2187e-35
3.04302e-35
3.29979e-35
3.14398e-35
2.65549e-35
7.04017e-36
1.51235e-36
1.21996e-36
1.28157e-36
1.11099e-36
1.31689e-36
1.21174e-36
1.21174e-36
1.28135e-36
1.07838e-36
1.31689e-36
1.21174e-36
1.28135e-36
1.31689e-36
1.28135e-36
1.31689e-36
1.21174e-36
1.28135e-36
1.31689e-36
1.11099e-36
1.28135e-36
1.31689e-36
1.28135e-36
1.31689e-36
)
;

boundaryField
{
    inlet
    {
        type            calculated;
        value           uniform 1.12626e-05;
    }
    outlet
    {
        type            calculated;
        value           uniform 4.72742e-37;
    }
    emptyWalls
    {
        type            empty;
    }
}


// ************************************************************************* //
