/*--------------------------------*- C++ -*----------------------------------*\
  =========                 |
  \\      /  F ield         | OpenFOAM: The Open Source CFD Toolbox
   \\    /   O peration     | Website:  https://openfoam.org
    \\  /    A nd           | Version:  9
     \\/     M anipulation  |
\*---------------------------------------------------------------------------*/
FoamFile
{
    format      ascii;
    class       volScalarField;
    location    "1800";
    object      p;
}
// * * * * * * * * * * * * * * * * * * * * * * * * * * * * * * * * * * * * * //

dimensions      [0 0 0 0 0 0 0];

internalField   nonuniform List<scalar> 
100
(
5.6566e+06
5.64841e+06
5.63717e+06
5.62679e+06
5.61591e+06
5.60504e+06
5.59401e+06
5.5829e+06
5.5717e+06
5.56041e+06
5.54905e+06
5.53761e+06
5.52609e+06
5.51449e+06
5.50291e+06
5.49142e+06
5.47997e+06
5.46859e+06
5.45727e+06
5.446e+06
5.43478e+06
5.42362e+06
5.4125e+06
5.40144e+06
5.39043e+06
5.37947e+06
5.36856e+06
5.3577e+06
5.34688e+06
5.33612e+06
5.3254e+06
5.31473e+06
5.30411e+06
5.29353e+06
5.283e+06
5.27253e+06
5.2621e+06
5.25171e+06
5.24138e+06
5.2311e+06
5.22086e+06
5.21068e+06
5.20055e+06
5.19047e+06
5.18045e+06
5.17049e+06
5.16058e+06
5.15074e+06
5.14096e+06
5.13125e+06
5.12163e+06
5.11209e+06
5.10266e+06
5.09335e+06
5.08422e+06
5.07531e+06
5.06678e+06
5.05892e+06
5.05255e+06
5.04881e+06
5.04659e+06
5.04458e+06
5.04258e+06
5.04058e+06
5.03857e+06
5.03657e+06
5.03457e+06
5.03256e+06
5.03056e+06
5.02856e+06
5.02655e+06
5.02455e+06
5.02255e+06
5.02055e+06
5.01854e+06
5.01654e+06
5.01458e+06
5.01317e+06
5.01251e+06
5.01192e+06
5.01134e+06
5.01076e+06
5.01018e+06
5.0096e+06
5.00902e+06
5.00843e+06
5.00785e+06
5.00727e+06
5.00669e+06
5.00611e+06
5.00553e+06
5.00494e+06
5.00436e+06
5.00378e+06
5.0032e+06
5.00262e+06
5.00204e+06
5.00145e+06
5.00087e+06
5.00029e+06
)
;

boundaryField
{
    inlet
    {
        type            darcyGradPressure;
        gradient        uniform 4.10139e+06;
        Mf              Mf;
        phi             phi;
        value           uniform 5.6648e+06;
    }
    outlet
    {
        type            fixedValue;
        value           uniform 5e+06;
    }
    emptyWalls
    {
        type            empty;
    }
}


// ************************************************************************* //
