/*--------------------------------*- C++ -*----------------------------------*\
  =========                 |
  \\      /  F ield         | OpenFOAM: The Open Source CFD Toolbox
   \\    /   O peration     | Website:  https://openfoam.org
    \\  /    A nd           | Version:  9
     \\/     M anipulation  |
\*---------------------------------------------------------------------------*/
FoamFile
{
    format      ascii;
    class       surfaceScalarField;
    location    "1800";
    object      phia;
}
// * * * * * * * * * * * * * * * * * * * * * * * * * * * * * * * * * * * * * //

dimensions      [0 2 0 0 0 0 0];

internalField   nonuniform List<scalar> 
99
(
1.41966e-08
1.41796e-08
1.41606e-08
1.41405e-08
1.41192e-08
1.40969e-08
1.40735e-08
1.40491e-08
1.40235e-08
1.39965e-08
1.39676e-08
1.39363e-08
1.3901e-08
1.38589e-08
1.38213e-08
1.37824e-08
1.37437e-08
1.37044e-08
1.36645e-08
1.36238e-08
1.35823e-08
1.354e-08
1.34968e-08
1.34526e-08
1.34076e-08
1.33616e-08
1.33147e-08
1.32668e-08
1.3218e-08
1.31682e-08
1.31173e-08
1.30653e-08
1.30121e-08
1.29577e-08
1.29019e-08
1.28448e-08
1.27861e-08
1.27257e-08
1.26635e-08
1.25993e-08
1.25329e-08
1.24639e-08
1.2392e-08
1.23168e-08
1.22376e-08
1.21536e-08
1.20638e-08
1.19667e-08
1.18601e-08
1.17408e-08
1.1604e-08
1.14418e-08
1.12408e-08
1.09762e-08
1.05975e-08
9.98756e-09
8.82796e-09
6.2005e-09
1.73822e-09
7.27569e-11
3.38885e-14
1.49667e-21
5.61924e-37
2.44471e-39
2.44458e-39
2.8975e-39
2.666e-39
2.81902e-39
2.44409e-39
2.44397e-39
2.66547e-39
2.81839e-39
2.66451e-39
2.88884e-39
2.74785e-39
2.27514e-39
4.36136e-40
4.36004e-41
3.11406e-41
3.25907e-41
2.82502e-41
3.34858e-41
3.0812e-41
3.0812e-41
3.25821e-41
2.74209e-41
3.34858e-41
3.0812e-41
3.25821e-41
3.34858e-41
3.25821e-41
3.34858e-41
3.0812e-41
3.25821e-41
3.34858e-41
2.825e-41
3.25821e-41
3.34858e-41
3.25821e-41
)
;

boundaryField
{
    inlet
    {
        type            calculated;
        value           uniform -1.42126e-08;
    }
    outlet
    {
        type            calculated;
        value           uniform 1.20208e-41;
    }
    emptyWalls
    {
        type            empty;
        value           nonuniform List<scalar> 0();
    }
}


// ************************************************************************* //
