/*--------------------------------*- C++ -*----------------------------------*\
  =========                 |
  \\      /  F ield         | OpenFOAM: The Open Source CFD Toolbox
   \\    /   O peration     | Website:  https://openfoam.org
    \\  /    A nd           | Version:  9
     \\/     M anipulation  |
\*---------------------------------------------------------------------------*/
FoamFile
{
    format      ascii;
    class       surfaceScalarField;
    location    "1800";
    object      phib;
}
// * * * * * * * * * * * * * * * * * * * * * * * * * * * * * * * * * * * * * //

dimensions      [0 2 0 0 0 0 0];

internalField   nonuniform List<scalar> 
99
(
6.09054e-09
6.0898e-09
6.08898e-09
6.08812e-09
6.08721e-09
6.08626e-09
6.08527e-09
6.08424e-09
6.08316e-09
6.08202e-09
6.0808e-09
6.07948e-09
6.07799e-09
6.08027e-09
6.08106e-09
6.08248e-09
6.08371e-09
6.0851e-09
6.08652e-09
6.08805e-09
6.08968e-09
6.09143e-09
6.09331e-09
6.0953e-09
6.0974e-09
6.09958e-09
6.10183e-09
6.10413e-09
6.10648e-09
6.10887e-09
6.11132e-09
6.11383e-09
6.11642e-09
6.11911e-09
6.12191e-09
6.12483e-09
6.12789e-09
6.13111e-09
6.13451e-09
6.1381e-09
6.14192e-09
6.14599e-09
6.15035e-09
6.15503e-09
6.16009e-09
6.16561e-09
6.17168e-09
6.17844e-09
6.18608e-09
6.19492e-09
6.20545e-09
6.21849e-09
6.23557e-09
6.25971e-09
6.29778e-09
6.36868e-09
6.54042e-09
7.11723e-09
8.54247e-09
9.1617e-09
9.18869e-09
9.18847e-09
9.18868e-09
9.18899e-09
9.18927e-09
9.18953e-09
9.18979e-09
9.19004e-09
9.19029e-09
9.19054e-09
9.1908e-09
9.19118e-09
9.19265e-09
9.20476e-09
9.32029e-09
1.04172e-08
1.67859e-08
1.99676e-08
2.00911e-08
2.00942e-08
2.00942e-08
2.00942e-08
2.00942e-08
2.00942e-08
2.00942e-08
2.00942e-08
2.00942e-08
2.00942e-08
2.00942e-08
2.00942e-08
2.00942e-08
2.00942e-08
2.00942e-08
2.00942e-08
2.00942e-08
2.00942e-08
2.00942e-08
2.00942e-08
2.00942e-08
)
;

boundaryField
{
    inlet
    {
        type            calculated;
        value           uniform -6.09112e-09;
    }
    outlet
    {
        type            calculated;
        value           uniform 2.00942e-08;
    }
    emptyWalls
    {
        type            empty;
        value           nonuniform List<scalar> 0();
    }
}


// ************************************************************************* //
