/*--------------------------------*- C++ -*----------------------------------*\
  =========                 |
  \\      /  F ield         | OpenFOAM: The Open Source CFD Toolbox
   \\    /   O peration     | Website:  https://openfoam.org
    \\  /    A nd           | Version:  9
     \\/     M anipulation  |
\*---------------------------------------------------------------------------*/
FoamFile
{
    format      ascii;
    class       surfaceScalarField;
    location    "1800";
    object      phic;
}
// * * * * * * * * * * * * * * * * * * * * * * * * * * * * * * * * * * * * * //

dimensions      [0 2 0 0 0 0 0];

internalField   nonuniform List<scalar> 
99
(
1.65622e-11
3.43361e-11
5.41252e-11
7.51121e-11
9.73083e-11
1.20579e-10
1.44926e-10
1.70386e-10
1.97082e-10
2.25244e-10
2.55291e-10
2.87984e-10
3.24779e-10
3.64537e-10
4.01399e-10
4.38904e-10
4.7631e-10
5.14281e-10
5.52762e-10
5.91907e-10
6.31741e-10
6.72316e-10
7.13657e-10
7.55793e-10
7.98748e-10
8.42546e-10
8.87213e-10
9.32775e-10
9.79263e-10
1.02671e-09
1.07516e-09
1.12464e-09
1.17522e-09
1.22694e-09
1.27988e-09
1.33413e-09
1.38976e-09
1.4469e-09
1.50569e-09
1.5663e-09
1.62893e-09
1.69384e-09
1.76136e-09
1.83192e-09
1.90605e-09
1.98449e-09
2.06822e-09
2.1586e-09
2.25758e-09
2.36802e-09
2.49429e-09
2.64341e-09
2.82732e-09
3.0678e-09
3.40847e-09
3.94749e-09
4.93536e-09
6.98601e-09
1.00231e-08
1.10693e-08
1.1115e-08
1.11153e-08
1.11151e-08
1.11147e-08
1.11145e-08
1.11142e-08
1.11139e-08
1.11137e-08
1.11134e-08
1.11132e-08
1.11129e-08
1.11126e-08
1.11111e-08
1.1099e-08
1.09834e-08
9.88654e-09
3.5178e-09
3.36134e-10
2.1268e-10
2.09569e-10
2.09492e-10
2.0949e-10
2.0949e-10
2.0949e-10
2.0949e-10
2.0949e-10
2.0949e-10
2.0949e-10
2.0949e-10
2.0949e-10
2.0949e-10
2.0949e-10
2.0949e-10
2.0949e-10
2.0949e-10
2.0949e-10
2.0949e-10
2.0949e-10
2.0949e-10
)
;

boundaryField
{
    inlet
    {
        type            calculated;
        value           uniform 0;
    }
    outlet
    {
        type            calculated;
        value           uniform 2.0949e-10;
    }
    emptyWalls
    {
        type            empty;
        value           nonuniform List<scalar> 0();
    }
}


// ************************************************************************* //
