/*--------------------------------*- C++ -*----------------------------------*\
  =========                 |
  \\      /  F ield         | OpenFOAM: The Open Source CFD Toolbox
   \\    /   O peration     | Website:  https://openfoam.org
    \\  /    A nd           | Version:  9
     \\/     M anipulation  |
\*---------------------------------------------------------------------------*/
FoamFile
{
    format      ascii;
    class       volVectorField;
    location    "1800";
    object      Ua;
}
// * * * * * * * * * * * * * * * * * * * * * * * * * * * * * * * * * * * * * //

dimensions      [0 0 0 0 0 0 0];

internalField   nonuniform List<vector> 
100
(
(0 0 8.86263e-06)
(0 0 1.12905e-05)
(0 0 1.12762e-05)
(0 0 1.12607e-05)
(0 0 1.12442e-05)
(0 0 1.12268e-05)
(0 0 1.12087e-05)
(0 0 1.11896e-05)
(0 0 1.11697e-05)
(0 0 1.11488e-05)
(0 0 1.11266e-05)
(0 0 1.11026e-05)
(0 0 1.10761e-05)
(0 0 1.10453e-05)
(0 0 1.10136e-05)
(0 0 1.09831e-05)
(0 0 1.09523e-05)
(0 0 1.09212e-05)
(0 0 1.08897e-05)
(0 0 1.08576e-05)
(0 0 1.0825e-05)
(0 0 1.07916e-05)
(0 0 1.07576e-05)
(0 0 1.07228e-05)
(0 0 1.06873e-05)
(0 0 1.06511e-05)
(0 0 1.06142e-05)
(0 0 1.05765e-05)
(0 0 1.0538e-05)
(0 0 1.04987e-05)
(0 0 1.04586e-05)
(0 0 1.04177e-05)
(0 0 1.03759e-05)
(0 0 1.0333e-05)
(0 0 1.02892e-05)
(0 0 1.02443e-05)
(0 0 1.01982e-05)
(0 0 1.01508e-05)
(0 0 1.01021e-05)
(0 0 1.00518e-05)
(0 0 9.9998e-06)
(0 0 9.94591e-06)
(0 0 9.88986e-06)
(0 0 9.83133e-06)
(0 0 9.76988e-06)
(0 0 9.70496e-06)
(0 0 9.63582e-06)
(0 0 9.56144e-06)
(0 0 9.48037e-06)
(0 0 9.39049e-06)
(0 0 9.2886e-06)
(0 0 9.16965e-06)
(0 0 9.02515e-06)
(0 0 8.83989e-06)
(0 0 8.58391e-06)
(0 0 8.19053e-06)
(0 0 7.48646e-06)
(0 0 5.97963e-06)
(0 0 3.15872e-06)
(0 0 7.20564e-07)
(0 0 2.89625e-08)
(0 0 1.34838e-11)
(0 0 5.95507e-19)
(0 0 2.24555e-34)
(0 0 1.94539e-36)
(0 0 2.12554e-36)
(0 0 2.21365e-36)
(0 0 2.18242e-36)
(0 0 2.09413e-36)
(0 0 1.9449e-36)
(0 0 2.03298e-36)
(0 0 2.18196e-36)
(0 0 2.18158e-36)
(0 0 2.20961e-36)
(0 0 2.24277e-36)
(0 0 1.99858e-36)
(0 0 1.07878e-36)
(0 0 1.90881e-37)
(0 0 2.97385e-38)
(0 0 2.53579e-38)
(0 0 2.42078e-38)
(0 0 2.4564e-38)
(0 0 2.55833e-38)
(0 0 2.45194e-38)
(0 0 2.52237e-38)
(0 0 2.38744e-38)
(0 0 2.4234e-38)
(0 0 2.55833e-38)
(0 0 2.52237e-38)
(0 0 2.62876e-38)
(0 0 2.62876e-38)
(0 0 2.62876e-38)
(0 0 2.55833e-38)
(0 0 2.52237e-38)
(0 0 2.62876e-38)
(0 0 2.45639e-38)
(0 0 2.42043e-38)
(0 0 2.62876e-38)
(0 0 2.62876e-38)
(0 0 1.77469e-38)
)
;

boundaryField
{
    inlet
    {
        type            fixedValue;
        value           uniform (0 0 1.131e-05);
    }
    outlet
    {
        type            zeroGradient;
    }
    emptyWalls
    {
        type            empty;
    }
}


// ************************************************************************* //
