/*--------------------------------*- C++ -*----------------------------------*\
  =========                 |
  \\      /  F ield         | OpenFOAM: The Open Source CFD Toolbox
   \\    /   O peration     | Website:  https://openfoam.org
    \\  /    A nd           | Version:  9
     \\/     M anipulation  |
\*---------------------------------------------------------------------------*/
FoamFile
{
    format      ascii;
    class       volVectorField;
    location    "1800";
    object      Ub;
}
// * * * * * * * * * * * * * * * * * * * * * * * * * * * * * * * * * * * * * //

dimensions      [0 0 0 0 0 0 0];

internalField   nonuniform List<vector> 
100
(
(0 0 7.27479e-06)
(0 0 4.8464e-06)
(0 0 4.84578e-06)
(0 0 4.84511e-06)
(0 0 4.84441e-06)
(0 0 4.84367e-06)
(0 0 4.8429e-06)
(0 0 4.84209e-06)
(0 0 4.84125e-06)
(0 0 4.84037e-06)
(0 0 4.83943e-06)
(0 0 4.83842e-06)
(0 0 4.8373e-06)
(0 0 4.83761e-06)
(0 0 4.83884e-06)
(0 0 4.83972e-06)
(0 0 4.84078e-06)
(0 0 4.84182e-06)
(0 0 4.84293e-06)
(0 0 4.84411e-06)
(0 0 4.84536e-06)
(0 0 4.84671e-06)
(0 0 4.84816e-06)
(0 0 4.84969e-06)
(0 0 4.85132e-06)
(0 0 4.85302e-06)
(0 0 4.85479e-06)
(0 0 4.8566e-06)
(0 0 4.85845e-06)
(0 0 4.86033e-06)
(0 0 4.86226e-06)
(0 0 4.86423e-06)
(0 0 4.86626e-06)
(0 0 4.86836e-06)
(0 0 4.87055e-06)
(0 0 4.87282e-06)
(0 0 4.8752e-06)
(0 0 4.8777e-06)
(0 0 4.88033e-06)
(0 0 4.88312e-06)
(0 0 4.88607e-06)
(0 0 4.8892e-06)
(0 0 4.89256e-06)
(0 0 4.89615e-06)
(0 0 4.90003e-06)
(0 0 4.90424e-06)
(0 0 4.90885e-06)
(0 0 4.91395e-06)
(0 0 4.91968e-06)
(0 0 4.92624e-06)
(0 0 4.93395e-06)
(0 0 4.94333e-06)
(0 0 4.95532e-06)
(0 0 4.97171e-06)
(0 0 4.99646e-06)
(0 0 5.03983e-06)
(0 0 5.13637e-06)
(0 0 5.4342e-06)
(0 0 6.23079e-06)
(0 0 7.04426e-06)
(0 0 7.30139e-06)
(0 0 7.31204e-06)
(0 0 7.31204e-06)
(0 0 7.31224e-06)
(0 0 7.31248e-06)
(0 0 7.31269e-06)
(0 0 7.3129e-06)
(0 0 7.3131e-06)
(0 0 7.3133e-06)
(0 0 7.3135e-06)
(0 0 7.3137e-06)
(0 0 7.31396e-06)
(0 0 7.31469e-06)
(0 0 7.3201e-06)
(0 0 7.37089e-06)
(0 0 7.8533e-06)
(0 0 1.08238e-05)
(0 0 1.46238e-05)
(0 0 1.59388e-05)
(0 0 1.59892e-05)
(0 0 1.59905e-05)
(0 0 1.59905e-05)
(0 0 1.59905e-05)
(0 0 1.59905e-05)
(0 0 1.59905e-05)
(0 0 1.59905e-05)
(0 0 1.59905e-05)
(0 0 1.59905e-05)
(0 0 1.59905e-05)
(0 0 1.59905e-05)
(0 0 1.59905e-05)
(0 0 1.59905e-05)
(0 0 1.59905e-05)
(0 0 1.59905e-05)
(0 0 1.59905e-05)
(0 0 1.59905e-05)
(0 0 1.59905e-05)
(0 0 1.59905e-05)
(0 0 1.59905e-05)
(0 0 1.59905e-05)
)
;

boundaryField
{
    inlet
    {
        type            fixedValue;
        value           uniform (0 0 4.84716e-06);
    }
    outlet
    {
        type            zeroGradient;
    }
    emptyWalls
    {
        type            empty;
    }
}


// ************************************************************************* //
