/*--------------------------------*- C++ -*----------------------------------*\
  =========                 |
  \\      /  F ield         | OpenFOAM: The Open Source CFD Toolbox
   \\    /   O peration     | Website:  https://openfoam.org
    \\  /    A nd           | Version:  9
     \\/     M anipulation  |
\*---------------------------------------------------------------------------*/
FoamFile
{
    format      ascii;
    class       volVectorField;
    location    "1800";
    object      Uc;
}
// * * * * * * * * * * * * * * * * * * * * * * * * * * * * * * * * * * * * * //

dimensions      [0 0 0 0 0 0 0];

internalField   nonuniform List<vector> 
100
(
(0 0 1.97826e-08)
(0 0 2.02518e-08)
(0 0 3.51976e-08)
(0 0 5.14219e-08)
(0 0 6.86039e-08)
(0 0 8.66946e-08)
(0 0 1.05641e-07)
(0 0 1.25459e-07)
(0 0 1.46211e-07)
(0 0 1.68038e-07)
(0 0 1.91199e-07)
(0 0 2.16162e-07)
(0 0 2.43811e-07)
(0 0 2.7427e-07)
(0 0 3.04757e-07)
(0 0 3.34346e-07)
(0 0 3.64152e-07)
(0 0 3.94144e-07)
(0 0 4.24563e-07)
(0 0 4.55449e-07)
(0 0 4.86874e-07)
(0 0 5.18868e-07)
(0 0 5.51461e-07)
(0 0 5.84676e-07)
(0 0 6.18532e-07)
(0 0 6.5305e-07)
(0 0 6.88249e-07)
(0 0 7.2415e-07)
(0 0 7.60776e-07)
(0 0 7.98152e-07)
(0 0 8.36306e-07)
(0 0 8.75271e-07)
(0 0 9.15084e-07)
(0 0 9.55789e-07)
(0 0 9.97435e-07)
(0 0 1.04008e-06)
(0 0 1.0838e-06)
(0 0 1.12867e-06)
(0 0 1.1748e-06)
(0 0 1.22231e-06)
(0 0 1.27134e-06)
(0 0 1.32209e-06)
(0 0 1.37478e-06)
(0 0 1.42972e-06)
(0 0 1.48729e-06)
(0 0 1.548e-06)
(0 0 1.61252e-06)
(0 0 1.6818e-06)
(0 0 1.75715e-06)
(0 0 1.84047e-06)
(0 0 1.93465e-06)
(0 0 2.04423e-06)
(0 0 2.17674e-06)
(0 0 2.34559e-06)
(0 0 2.57682e-06)
(0 0 2.92684e-06)
(0 0 3.53437e-06)
(0 0 4.74336e-06)
(0 0 6.76769e-06)
(0 0 8.39237e-06)
(0 0 8.82685e-06)
(0 0 8.84515e-06)
(0 0 8.84516e-06)
(0 0 8.84496e-06)
(0 0 8.84472e-06)
(0 0 8.84451e-06)
(0 0 8.8443e-06)
(0 0 8.8441e-06)
(0 0 8.8439e-06)
(0 0 8.8437e-06)
(0 0 8.8435e-06)
(0 0 8.84324e-06)
(0 0 8.84251e-06)
(0 0 8.8371e-06)
(0 0 8.78631e-06)
(0 0 8.3039e-06)
(0 0 5.33342e-06)
(0 0 1.53343e-06)
(0 0 2.18366e-07)
(0 0 1.68008e-07)
(0 0 1.66739e-07)
(0 0 1.66707e-07)
(0 0 1.66707e-07)
(0 0 1.66707e-07)
(0 0 1.66707e-07)
(0 0 1.66707e-07)
(0 0 1.66707e-07)
(0 0 1.66707e-07)
(0 0 1.66707e-07)
(0 0 1.66707e-07)
(0 0 1.66707e-07)
(0 0 1.66707e-07)
(0 0 1.66707e-07)
(0 0 1.66707e-07)
(0 0 1.66707e-07)
(0 0 1.66707e-07)
(0 0 1.66707e-07)
(0 0 1.66707e-07)
(0 0 1.66707e-07)
(0 0 1.66707e-07)
)
;

boundaryField
{
    inlet
    {
        type            fixedValue;
        value           uniform (0 0 0);
    }
    outlet
    {
        type            zeroGradient;
    }
    emptyWalls
    {
        type            empty;
    }
}


// ************************************************************************* //
