/*--------------------------------*- C++ -*----------------------------------*\
  =========                 |
  \\      /  F ield         | OpenFOAM: The Open Source CFD Toolbox
   \\    /   O peration     | Website:  https://openfoam.org
    \\  /    A nd           | Version:  9
     \\/     M anipulation  |
\*---------------------------------------------------------------------------*/
FoamFile
{
    format      ascii;
    class       volScalarField;
    location    "3400";
    object      kra;
}
// * * * * * * * * * * * * * * * * * * * * * * * * * * * * * * * * * * * * * //

dimensions      [0 0 0 0 0 0 0];

internalField   nonuniform List<scalar> 
100
(
4.04307e-05
2.99914e-05
3.23939e-05
3.10375e-05
3.09372e-05
3.05745e-05
3.04081e-05
3.01822e-05
2.99781e-05
2.97842e-05
2.95971e-05
2.94284e-05
2.92626e-05
2.91131e-05
2.89671e-05
2.88329e-05
2.86994e-05
2.85778e-05
2.8455e-05
2.83424e-05
2.82282e-05
2.81224e-05
2.801e-05
2.78967e-05
2.7756e-05
2.7596e-05
2.73577e-05
2.73647e-05
2.7417e-05
2.74481e-05
2.74871e-05
2.75224e-05
2.75553e-05
2.75865e-05
2.76165e-05
2.76453e-05
2.76729e-05
2.76998e-05
2.77258e-05
2.77505e-05
2.77744e-05
2.77973e-05
2.78193e-05
2.7841e-05
2.78621e-05
2.78817e-05
2.79003e-05
2.79177e-05
2.79343e-05
2.795e-05
2.79657e-05
2.7981e-05
2.79952e-05
2.80085e-05
2.80208e-05
2.8032e-05
2.8043e-05
2.80537e-05
2.80639e-05
2.80727e-05
2.8081e-05
2.80885e-05
2.80955e-05
2.81028e-05
2.81098e-05
2.81156e-05
2.81201e-05
2.8124e-05
2.81275e-05
2.81307e-05
2.81342e-05
2.8137e-05
2.81388e-05
2.81393e-05
2.814e-05
2.81398e-05
2.81397e-05
2.81382e-05
2.81373e-05
2.81343e-05
2.81318e-05
2.8128e-05
2.81254e-05
2.81215e-05
2.81176e-05
2.81131e-05
2.81086e-05
2.81035e-05
2.8099e-05
2.80949e-05
2.80901e-05
2.80858e-05
2.80804e-05
2.80756e-05
2.80716e-05
2.80637e-05
2.80641e-05
2.80513e-05
2.80639e-05
7.55249e-05
)
;

boundaryField
{
    inlet
    {
        type            calculated;
        value           uniform 1.1947e-05;
    }
    outlet
    {
        type            calculated;
        value           uniform 8.15466e-06;
    }
    emptyWalls
    {
        type            empty;
    }
}


// ************************************************************************* //
