/*--------------------------------*- C++ -*----------------------------------*\
  =========                 |
  \\      /  F ield         | OpenFOAM: The Open Source CFD Toolbox
   \\    /   O peration     | Website:  https://openfoam.org
    \\  /    A nd           | Version:  9
     \\/     M anipulation  |
\*---------------------------------------------------------------------------*/
FoamFile
{
    format      ascii;
    class       volScalarField;
    location    "3400";
    object      p;
}
// * * * * * * * * * * * * * * * * * * * * * * * * * * * * * * * * * * * * * //

dimensions      [0 0 0 0 0 0 0];

internalField   nonuniform List<scalar> 
100
(
6.08107e+06
6.07303e+06
6.06221e+06
6.05219e+06
6.04172e+06
6.03123e+06
6.02061e+06
6.00993e+06
5.99918e+06
5.98836e+06
5.97749e+06
5.96655e+06
5.95556e+06
5.94452e+06
5.93344e+06
5.92231e+06
5.91114e+06
5.89992e+06
5.88867e+06
5.87738e+06
5.86606e+06
5.8547e+06
5.84331e+06
5.83188e+06
5.82041e+06
5.8089e+06
5.79732e+06
5.78572e+06
5.77414e+06
5.76261e+06
5.75111e+06
5.73964e+06
5.7282e+06
5.71679e+06
5.70541e+06
5.69405e+06
5.68273e+06
5.67143e+06
5.66016e+06
5.64892e+06
5.63771e+06
5.62652e+06
5.61536e+06
5.60422e+06
5.59311e+06
5.58203e+06
5.57097e+06
5.55993e+06
5.54893e+06
5.53794e+06
5.52698e+06
5.51605e+06
5.50514e+06
5.49426e+06
5.4834e+06
5.47256e+06
5.46175e+06
5.45096e+06
5.44019e+06
5.42945e+06
5.41873e+06
5.40804e+06
5.39736e+06
5.38671e+06
5.37609e+06
5.36549e+06
5.3549e+06
5.34435e+06
5.33381e+06
5.3233e+06
5.31281e+06
5.30234e+06
5.29189e+06
5.28146e+06
5.27106e+06
5.26068e+06
5.25031e+06
5.23997e+06
5.22966e+06
5.21936e+06
5.20908e+06
5.19882e+06
5.18858e+06
5.17837e+06
5.16817e+06
5.15799e+06
5.14783e+06
5.13768e+06
5.12755e+06
5.11744e+06
5.10735e+06
5.09727e+06
5.08721e+06
5.07716e+06
5.06712e+06
5.05709e+06
5.04708e+06
5.03708e+06
5.02708e+06
5.01712e+06
)
;

boundaryField
{
    inlet
    {
        type            darcyGradPressure;
        gradient        uniform 3.96218e+06;
        Mf              Mf;
        phi             phi;
        value           uniform 6.089e+06;
    }
    outlet
    {
        type            fixedValue;
        value           uniform 5e+06;
    }
    emptyWalls
    {
        type            empty;
    }
}


// ************************************************************************* //
