/*--------------------------------*- C++ -*----------------------------------*\
  =========                 |
  \\      /  F ield         | OpenFOAM: The Open Source CFD Toolbox
   \\    /   O peration     | Website:  https://openfoam.org
    \\  /    A nd           | Version:  9
     \\/     M anipulation  |
\*---------------------------------------------------------------------------*/
FoamFile
{
    format      ascii;
    class       surfaceScalarField;
    location    "3400";
    object      phia;
}
// * * * * * * * * * * * * * * * * * * * * * * * * * * * * * * * * * * * * * //

dimensions      [0 2 0 0 0 0 0];

internalField   nonuniform List<scalar> 
99
(
1.42053e-08
1.41978e-08
1.41894e-08
1.41739e-08
1.41525e-08
1.41508e-08
1.4146e-08
1.41374e-08
1.41292e-08
1.41179e-08
1.41075e-08
1.40965e-08
1.40849e-08
1.4074e-08
1.40626e-08
1.40507e-08
1.4039e-08
1.40271e-08
1.40151e-08
1.40031e-08
1.39912e-08
1.39787e-08
1.39652e-08
1.39493e-08
1.39292e-08
1.3904e-08
1.38772e-08
1.38527e-08
1.38318e-08
1.38115e-08
1.37924e-08
1.37731e-08
1.37533e-08
1.37333e-08
1.37133e-08
1.36931e-08
1.36729e-08
1.36527e-08
1.36323e-08
1.36116e-08
1.35907e-08
1.35696e-08
1.35484e-08
1.35274e-08
1.35061e-08
1.34843e-08
1.3462e-08
1.34394e-08
1.34166e-08
1.33938e-08
1.33711e-08
1.33483e-08
1.33251e-08
1.33016e-08
1.32776e-08
1.32535e-08
1.32294e-08
1.32055e-08
1.31811e-08
1.31563e-08
1.31314e-08
1.31063e-08
1.30813e-08
1.30567e-08
1.30318e-08
1.30063e-08
1.29804e-08
1.29545e-08
1.29286e-08
1.29029e-08
1.28774e-08
1.28516e-08
1.28253e-08
1.2799e-08
1.27727e-08
1.27465e-08
1.27202e-08
1.26939e-08
1.26675e-08
1.26408e-08
1.26144e-08
1.25884e-08
1.2563e-08
1.25375e-08
1.25125e-08
1.24879e-08
1.24638e-08
1.24405e-08
1.24183e-08
1.23968e-08
1.2376e-08
1.23562e-08
1.23372e-08
1.23189e-08
1.23027e-08
1.22856e-08
1.22714e-08
1.22565e-08
1.22295e-08
)
;

boundaryField
{
    inlet
    {
        type            calculated;
        value           uniform -1.42126e-08;
    }
    outlet
    {
        type            calculated;
        value           uniform 1.22061e-08;
    }
    emptyWalls
    {
        type            empty;
        value           nonuniform List<scalar> 0();
    }
}


// ************************************************************************* //
