/*--------------------------------*- C++ -*----------------------------------*\
  =========                 |
  \\      /  F ield         | OpenFOAM: The Open Source CFD Toolbox
   \\    /   O peration     | Website:  https://openfoam.org
    \\  /    A nd           | Version:  9
     \\/     M anipulation  |
\*---------------------------------------------------------------------------*/
FoamFile
{
    format      ascii;
    class       surfaceScalarField;
    location    "3400";
    object      phib;
}
// * * * * * * * * * * * * * * * * * * * * * * * * * * * * * * * * * * * * * //

dimensions      [0 2 0 0 0 0 0];

internalField   nonuniform List<scalar> 
99
(
6.09086e-09
6.09054e-09
6.09018e-09
6.09641e-09
6.10794e-09
6.09963e-09
6.09401e-09
6.0918e-09
6.08882e-09
6.08864e-09
6.08737e-09
6.08658e-09
6.08631e-09
6.08524e-09
6.08454e-09
6.08436e-09
6.08387e-09
6.08348e-09
6.08318e-09
6.08263e-09
6.08193e-09
6.08127e-09
6.08061e-09
6.07992e-09
6.07907e-09
6.07789e-09
6.07671e-09
6.07766e-09
6.07865e-09
6.07956e-09
6.07975e-09
6.08033e-09
6.08136e-09
6.0824e-09
6.08337e-09
6.08439e-09
6.08525e-09
6.08591e-09
6.08666e-09
6.08748e-09
6.0883e-09
6.08914e-09
6.08979e-09
6.09012e-09
6.09061e-09
6.09143e-09
6.09246e-09
6.09367e-09
6.09496e-09
6.09603e-09
6.09672e-09
6.09744e-09
6.09834e-09
6.09945e-09
6.10085e-09
6.10224e-09
6.10333e-09
6.10421e-09
6.10537e-09
6.10674e-09
6.1081e-09
6.10955e-09
6.11068e-09
6.11135e-09
6.11212e-09
6.11342e-09
6.11497e-09
6.11644e-09
6.11785e-09
6.11886e-09
6.11963e-09
6.12061e-09
6.12207e-09
6.12356e-09
6.12489e-09
6.12617e-09
6.1275e-09
6.12893e-09
6.13043e-09
6.13241e-09
6.13428e-09
6.13584e-09
6.13713e-09
6.13873e-09
6.14027e-09
6.1418e-09
6.14338e-09
6.14481e-09
6.14572e-09
6.1467e-09
6.14767e-09
6.14873e-09
6.14989e-09
6.15117e-09
6.15213e-09
6.15299e-09
6.15369e-09
6.1546e-09
6.15677e-09
)
;

boundaryField
{
    inlet
    {
        type            calculated;
        value           uniform -6.09112e-09;
    }
    outlet
    {
        type            calculated;
        value           uniform 6.15686e-09;
    }
    emptyWalls
    {
        type            empty;
        value           nonuniform List<scalar> 0();
    }
}


// ************************************************************************* //
