/*--------------------------------*- C++ -*----------------------------------*\
  =========                 |
  \\      /  F ield         | OpenFOAM: The Open Source CFD Toolbox
   \\    /   O peration     | Website:  https://openfoam.org
    \\  /    A nd           | Version:  9
     \\/     M anipulation  |
\*---------------------------------------------------------------------------*/
FoamFile
{
    format      ascii;
    class       surfaceScalarField;
    location    "3400";
    object      phic;
}
// * * * * * * * * * * * * * * * * * * * * * * * * * * * * * * * * * * * * * //

dimensions      [0 2 0 0 0 0 0];

internalField   nonuniform List<scalar> 
99
(
7.54977e-12
1.54003e-11
2.4151e-11
3.34556e-11
4.32711e-11
5.33186e-11
6.37503e-11
7.45671e-11
8.57425e-11
9.71906e-11
1.08848e-10
1.20649e-10
1.32547e-10
1.44523e-10
1.56563e-10
1.68674e-10
1.80865e-10
1.93136e-10
2.05503e-10
2.17983e-10
2.30647e-10
2.43745e-10
2.57915e-10
2.74494e-10
2.95421e-10
3.21898e-10
3.49805e-10
3.73396e-10
3.93332e-10
4.12689e-10
4.31556e-10
4.50331e-10
4.6912e-10
4.88002e-10
5.07022e-10
5.262e-10
5.45546e-10
5.65076e-10
5.84783e-10
6.04679e-10
6.2477e-10
6.45038e-10
6.65504e-10
6.86173e-10
7.07016e-10
7.2804e-10
7.49248e-10
7.70634e-10
7.92199e-10
8.13941e-10
8.35873e-10
8.57979e-10
8.80245e-10
9.02681e-10
9.25277e-10
9.48037e-10
9.70964e-10
9.94057e-10
1.0173e-09
1.04069e-09
1.06423e-09
1.08791e-09
1.11173e-09
1.1357e-09
1.1598e-09
1.18401e-09
1.20833e-09
1.23276e-09
1.2573e-09
1.28194e-09
1.30668e-09
1.33149e-09
1.35633e-09
1.38122e-09
1.40614e-09
1.4311e-09
1.45602e-09
1.48095e-09
1.50576e-09
1.5305e-09
1.55507e-09
1.57946e-09
1.60362e-09
1.62746e-09
1.65095e-09
1.67399e-09
1.69652e-09
1.71846e-09
1.73975e-09
1.76028e-09
1.78002e-09
1.79877e-09
1.81668e-09
1.8337e-09
1.84891e-09
1.8651e-09
1.87868e-09
1.89266e-09
1.91748e-09
)
;

boundaryField
{
    inlet
    {
        type            calculated;
        value           uniform 0;
    }
    outlet
    {
        type            calculated;
        value           uniform 1.94082e-09;
    }
    emptyWalls
    {
        type            empty;
        value           nonuniform List<scalar> 0();
    }
}


// ************************************************************************* //
