/*--------------------------------*- C++ -*----------------------------------*\
  =========                 |
  \\      /  F ield         | OpenFOAM: The Open Source CFD Toolbox
   \\    /   O peration     | Website:  https://openfoam.org
    \\  /    A nd           | Version:  9
     \\/     M anipulation  |
\*---------------------------------------------------------------------------*/
FoamFile
{
    format      ascii;
    class       volVectorField;
    location    "3400";
    object      Ua;
}
// * * * * * * * * * * * * * * * * * * * * * * * * * * * * * * * * * * * * * //

dimensions      [0 0 0 0 0 0 0];

internalField   nonuniform List<vector> 
100
(
(0 0 8.94569e-06)
(0 0 1.13012e-05)
(0 0 1.12949e-05)
(0 0 1.12854e-05)
(0 0 1.12707e-05)
(0 0 1.12615e-05)
(0 0 1.12589e-05)
(0 0 1.12536e-05)
(0 0 1.12469e-05)
(0 0 1.12392e-05)
(0 0 1.12305e-05)
(0 0 1.1222e-05)
(0 0 1.1213e-05)
(0 0 1.12041e-05)
(0 0 1.11952e-05)
(0 0 1.11859e-05)
(0 0 1.11765e-05)
(0 0 1.11672e-05)
(0 0 1.11576e-05)
(0 0 1.11481e-05)
(0 0 1.11386e-05)
(0 0 1.11289e-05)
(0 0 1.11185e-05)
(0 0 1.11068e-05)
(0 0 1.10925e-05)
(0 0 1.10745e-05)
(0 0 1.10538e-05)
(0 0 1.10334e-05)
(0 0 1.10153e-05)
(0 0 1.09989e-05)
(0 0 1.09833e-05)
(0 0 1.0968e-05)
(0 0 1.09524e-05)
(0 0 1.09366e-05)
(0 0 1.09207e-05)
(0 0 1.09047e-05)
(0 0 1.08886e-05)
(0 0 1.08725e-05)
(0 0 1.08564e-05)
(0 0 1.084e-05)
(0 0 1.08234e-05)
(0 0 1.08067e-05)
(0 0 1.07899e-05)
(0 0 1.07732e-05)
(0 0 1.07563e-05)
(0 0 1.07391e-05)
(0 0 1.07216e-05)
(0 0 1.07038e-05)
(0 0 1.06857e-05)
(0 0 1.06675e-05)
(0 0 1.06494e-05)
(0 0 1.06313e-05)
(0 0 1.0613e-05)
(0 0 1.05944e-05)
(0 0 1.05755e-05)
(0 0 1.05564e-05)
(0 0 1.05372e-05)
(0 0 1.05181e-05)
(0 0 1.04989e-05)
(0 0 1.04793e-05)
(0 0 1.04595e-05)
(0 0 1.04396e-05)
(0 0 1.04197e-05)
(0 0 1.04e-05)
(0 0 1.03803e-05)
(0 0 1.03602e-05)
(0 0 1.03398e-05)
(0 0 1.03192e-05)
(0 0 1.02986e-05)
(0 0 1.0278e-05)
(0 0 1.02577e-05)
(0 0 1.02373e-05)
(0 0 1.02165e-05)
(0 0 1.01956e-05)
(0 0 1.01746e-05)
(0 0 1.01538e-05)
(0 0 1.01329e-05)
(0 0 1.01119e-05)
(0 0 1.0091e-05)
(0 0 1.00699e-05)
(0 0 1.00487e-05)
(0 0 1.00279e-05)
(0 0 1.00074e-05)
(0 0 9.98718e-06)
(0 0 9.9671e-06)
(0 0 9.94737e-06)
(0 0 9.928e-06)
(0 0 9.90911e-06)
(0 0 9.89097e-06)
(0 0 9.87358e-06)
(0 0 9.85678e-06)
(0 0 9.84066e-06)
(0 0 9.82519e-06)
(0 0 9.81032e-06)
(0 0 9.79661e-06)
(0 0 9.78339e-06)
(0 0 9.77092e-06)
(0 0 9.75932e-06)
(0 0 9.74265e-06)
(0 0 9.72259e-06)
)
;

boundaryField
{
    inlet
    {
        type            fixedValue;
        value           uniform (0 0 1.131e-05);
    }
    outlet
    {
        type            zeroGradient;
    }
    emptyWalls
    {
        type            empty;
    }
}


// ************************************************************************* //
