/*--------------------------------*- C++ -*----------------------------------*\
  =========                 |
  \\      /  F ield         | OpenFOAM: The Open Source CFD Toolbox
   \\    /   O peration     | Website:  https://openfoam.org
    \\  /    A nd           | Version:  9
     \\/     M anipulation  |
\*---------------------------------------------------------------------------*/
FoamFile
{
    format      ascii;
    class       volVectorField;
    location    "3400";
    object      Ub;
}
// * * * * * * * * * * * * * * * * * * * * * * * * * * * * * * * * * * * * * //

dimensions      [0 0 0 0 0 0 0];

internalField   nonuniform List<vector> 
100
(
(0 0 7.20258e-06)
(0 0 4.84683e-06)
(0 0 4.84656e-06)
(0 0 4.84889e-06)
(0 0 4.85596e-06)
(0 0 4.85724e-06)
(0 0 4.8517e-06)
(0 0 4.84858e-06)
(0 0 4.84651e-06)
(0 0 4.84526e-06)
(0 0 4.84468e-06)
(0 0 4.84386e-06)
(0 0 4.84344e-06)
(0 0 4.84291e-06)
(0 0 4.8422e-06)
(0 0 4.84185e-06)
(0 0 4.84158e-06)
(0 0 4.84123e-06)
(0 0 4.84096e-06)
(0 0 4.84062e-06)
(0 0 4.84012e-06)
(0 0 4.83958e-06)
(0 0 4.83906e-06)
(0 0 4.83852e-06)
(0 0 4.83791e-06)
(0 0 4.8371e-06)
(0 0 4.83616e-06)
(0 0 4.83607e-06)
(0 0 4.83684e-06)
(0 0 4.8376e-06)
(0 0 4.83804e-06)
(0 0 4.83834e-06)
(0 0 4.83898e-06)
(0 0 4.83981e-06)
(0 0 4.8406e-06)
(0 0 4.8414e-06)
(0 0 4.84214e-06)
(0 0 4.84275e-06)
(0 0 4.84331e-06)
(0 0 4.84394e-06)
(0 0 4.84459e-06)
(0 0 4.84525e-06)
(0 0 4.84584e-06)
(0 0 4.84623e-06)
(0 0 4.84656e-06)
(0 0 4.84708e-06)
(0 0 4.84781e-06)
(0 0 4.84871e-06)
(0 0 4.8497e-06)
(0 0 4.85064e-06)
(0 0 4.85134e-06)
(0 0 4.8519e-06)
(0 0 4.85255e-06)
(0 0 4.85335e-06)
(0 0 4.85435e-06)
(0 0 4.85546e-06)
(0 0 4.85644e-06)
(0 0 4.85722e-06)
(0 0 4.85804e-06)
(0 0 4.85904e-06)
(0 0 4.86013e-06)
(0 0 4.86125e-06)
(0 0 4.86228e-06)
(0 0 4.86299e-06)
(0 0 4.86356e-06)
(0 0 4.86439e-06)
(0 0 4.86552e-06)
(0 0 4.86672e-06)
(0 0 4.86787e-06)
(0 0 4.86883e-06)
(0 0 4.86954e-06)
(0 0 4.87024e-06)
(0 0 4.87121e-06)
(0 0 4.87238e-06)
(0 0 4.8735e-06)
(0 0 4.87454e-06)
(0 0 4.87558e-06)
(0 0 4.87668e-06)
(0 0 4.87784e-06)
(0 0 4.87923e-06)
(0 0 4.88076e-06)
(0 0 4.88213e-06)
(0 0 4.88326e-06)
(0 0 4.88441e-06)
(0 0 4.88566e-06)
(0 0 4.88688e-06)
(0 0 4.88812e-06)
(0 0 4.88931e-06)
(0 0 4.89025e-06)
(0 0 4.891e-06)
(0 0 4.89178e-06)
(0 0 4.89258e-06)
(0 0 4.89347e-06)
(0 0 4.89444e-06)
(0 0 4.89533e-06)
(0 0 4.89605e-06)
(0 0 4.89667e-06)
(0 0 4.89731e-06)
(0 0 4.89854e-06)
(0 0 4.89944e-06)
)
;

boundaryField
{
    inlet
    {
        type            fixedValue;
        value           uniform (0 0 4.84716e-06);
    }
    outlet
    {
        type            zeroGradient;
    }
    emptyWalls
    {
        type            empty;
    }
}


// ************************************************************************* //
