/*--------------------------------*- C++ -*----------------------------------*\
  =========                 |
  \\      /  F ield         | OpenFOAM: The Open Source CFD Toolbox
   \\    /   O peration     | Website:  https://openfoam.org
    \\  /    A nd           | Version:  9
     \\/     M anipulation  |
\*---------------------------------------------------------------------------*/
FoamFile
{
    format      ascii;
    class       volVectorField;
    location    "3400";
    object      Uc;
}
// * * * * * * * * * * * * * * * * * * * * * * * * * * * * * * * * * * * * * //

dimensions      [0 0 0 0 0 0 0];

internalField   nonuniform List<vector> 
100
(
(0 0 8.92777e-09)
(0 0 9.13154e-09)
(0 0 1.57369e-08)
(0 0 2.29209e-08)
(0 0 3.05286e-08)
(0 0 3.84318e-08)
(0 0 4.65802e-08)
(0 0 5.50347e-08)
(0 0 6.37852e-08)
(0 0 7.27868e-08)
(0 0 8.198e-08)
(0 0 9.13137e-08)
(0 0 1.00743e-07)
(0 0 1.10243e-07)
(0 0 1.19798e-07)
(0 0 1.29408e-07)
(0 0 1.39077e-07)
(0 0 1.4881e-07)
(0 0 1.58613e-07)
(0 0 1.685e-07)
(0 0 1.78504e-07)
(0 0 1.88755e-07)
(0 0 1.99604e-07)
(0 0 2.11839e-07)
(0 0 2.26762e-07)
(0 0 2.45623e-07)
(0 0 2.67262e-07)
(0 0 2.87753e-07)
(0 0 3.05071e-07)
(0 0 3.20706e-07)
(0 0 3.35914e-07)
(0 0 3.50892e-07)
(0 0 3.65838e-07)
(0 0 3.80827e-07)
(0 0 3.95908e-07)
(0 0 4.11106e-07)
(0 0 4.26434e-07)
(0 0 4.41902e-07)
(0 0 4.57515e-07)
(0 0 4.73272e-07)
(0 0 4.89182e-07)
(0 0 5.05241e-07)
(0 0 5.21448e-07)
(0 0 5.37815e-07)
(0 0 5.54332e-07)
(0 0 5.7099e-07)
(0 0 5.87794e-07)
(0 0 6.04742e-07)
(0 0 6.21831e-07)
(0 0 6.39063e-07)
(0 0 6.5644e-07)
(0 0 6.73962e-07)
(0 0 6.91618e-07)
(0 0 7.09404e-07)
(0 0 7.27322e-07)
(0 0 7.45368e-07)
(0 0 7.63546e-07)
(0 0 7.81857e-07)
(0 0 8.00295e-07)
(0 0 8.18852e-07)
(0 0 8.37523e-07)
(0 0 8.56309e-07)
(0 0 8.75207e-07)
(0 0 8.94224e-07)
(0 0 9.13353e-07)
(0 0 9.32575e-07)
(0 0 9.51883e-07)
(0 0 9.7128e-07)
(0 0 9.90765e-07)
(0 0 1.01033e-06)
(0 0 1.02998e-06)
(0 0 1.04969e-06)
(0 0 1.06945e-06)
(0 0 1.08924e-06)
(0 0 1.10906e-06)
(0 0 1.1289e-06)
(0 0 1.14875e-06)
(0 0 1.16858e-06)
(0 0 1.18838e-06)
(0 0 1.20809e-06)
(0 0 1.22771e-06)
(0 0 1.24719e-06)
(0 0 1.26651e-06)
(0 0 1.28561e-06)
(0 0 1.30444e-06)
(0 0 1.32295e-06)
(0 0 1.34108e-06)
(0 0 1.35877e-06)
(0 0 1.37598e-06)
(0 0 1.39262e-06)
(0 0 1.40864e-06)
(0 0 1.42396e-06)
(0 0 1.43854e-06)
(0 0 1.45244e-06)
(0 0 1.46526e-06)
(0 0 1.47776e-06)
(0 0 1.4896e-06)
(0 0 1.50057e-06)
(0 0 1.51601e-06)
(0 0 1.53517e-06)
)
;

boundaryField
{
    inlet
    {
        type            fixedValue;
        value           uniform (0 0 0);
    }
    outlet
    {
        type            zeroGradient;
    }
    emptyWalls
    {
        type            empty;
    }
}


// ************************************************************************* //
