/*--------------------------------*- C++ -*----------------------------------*\
  =========                 |
  \\      /  F ield         | OpenFOAM: The Open Source CFD Toolbox
   \\    /   O peration     | Website:  https://openfoam.org
    \\  /    A nd           | Version:  9
     \\/     M anipulation  |
\*---------------------------------------------------------------------------*/
FoamFile
{
    format      ascii;
    class       volScalarField;
    location    "4800";
    object      kra;
}
// * * * * * * * * * * * * * * * * * * * * * * * * * * * * * * * * * * * * * //

dimensions      [0 0 0 0 0 0 0];

internalField   nonuniform List<scalar> 
100
(
4.08092e-05
3.01725e-05
3.27472e-05
3.13032e-05
3.13981e-05
3.10133e-05
3.08371e-05
3.06181e-05
3.04379e-05
3.02634e-05
3.0103e-05
2.99513e-05
2.98082e-05
2.96721e-05
2.95424e-05
2.94182e-05
2.9299e-05
2.91842e-05
2.90734e-05
2.89661e-05
2.88621e-05
2.8761e-05
2.86624e-05
2.85662e-05
2.8472e-05
2.83796e-05
2.82888e-05
2.81991e-05
2.81104e-05
2.80223e-05
2.79343e-05
2.78459e-05
2.77564e-05
2.76648e-05
2.75698e-05
2.74693e-05
2.73602e-05
2.73494e-05
2.74008e-05
2.74259e-05
2.74577e-05
2.74849e-05
2.75119e-05
2.75373e-05
2.75619e-05
2.75854e-05
2.76082e-05
2.76302e-05
2.76514e-05
2.7672e-05
2.7692e-05
2.77115e-05
2.77303e-05
2.77487e-05
2.77665e-05
2.77839e-05
2.78007e-05
2.7817e-05
2.78329e-05
2.78483e-05
2.78633e-05
2.78778e-05
2.78918e-05
2.79054e-05
2.79186e-05
2.79314e-05
2.79437e-05
2.79556e-05
2.79671e-05
2.79782e-05
2.79889e-05
2.79993e-05
2.80092e-05
2.80188e-05
2.80281e-05
2.8037e-05
2.80455e-05
2.80537e-05
2.80615e-05
2.8069e-05
2.80762e-05
2.8083e-05
2.80895e-05
2.80957e-05
2.81015e-05
2.8107e-05
2.81122e-05
2.8117e-05
2.81215e-05
2.81257e-05
2.81295e-05
2.8133e-05
2.81362e-05
2.8139e-05
2.81416e-05
2.81438e-05
2.81457e-05
2.81473e-05
2.81485e-05
7.21033e-05
)
;

boundaryField
{
    inlet
    {
        type            calculated;
        value           uniform 1.22851e-05;
    }
    outlet
    {
        type            calculated;
        value           uniform 8.70622e-06;
    }
    emptyWalls
    {
        type            empty;
    }
}


// ************************************************************************* //
