/*--------------------------------*- C++ -*----------------------------------*\
  =========                 |
  \\      /  F ield         | OpenFOAM: The Open Source CFD Toolbox
   \\    /   O peration     | Website:  https://openfoam.org
    \\  /    A nd           | Version:  9
     \\/     M anipulation  |
\*---------------------------------------------------------------------------*/
FoamFile
{
    format      ascii;
    class       volScalarField;
    location    "4800";
    object      p;
}
// * * * * * * * * * * * * * * * * * * * * * * * * * * * * * * * * * * * * * //

dimensions      [0 0 0 0 0 0 0];

internalField   nonuniform List<scalar> 
100
(
6.10279e+06
6.09482e+06
6.08405e+06
6.07414e+06
6.06377e+06
6.05343e+06
6.04298e+06
6.03246e+06
6.02188e+06
6.01124e+06
6.00055e+06
5.9898e+06
5.979e+06
5.96816e+06
5.95728e+06
5.94635e+06
5.93539e+06
5.92438e+06
5.91334e+06
5.90226e+06
5.89115e+06
5.88001e+06
5.86883e+06
5.85763e+06
5.84639e+06
5.83512e+06
5.82382e+06
5.8125e+06
5.80115e+06
5.78976e+06
5.77836e+06
5.76692e+06
5.75546e+06
5.74397e+06
5.73245e+06
5.7209e+06
5.70932e+06
5.69771e+06
5.68611e+06
5.67455e+06
5.663e+06
5.65149e+06
5.63999e+06
5.62852e+06
5.61708e+06
5.60565e+06
5.59425e+06
5.58287e+06
5.57151e+06
5.56017e+06
5.54885e+06
5.53755e+06
5.52627e+06
5.51501e+06
5.50377e+06
5.49255e+06
5.48135e+06
5.47017e+06
5.45901e+06
5.44787e+06
5.43674e+06
5.42564e+06
5.41455e+06
5.40349e+06
5.39244e+06
5.38141e+06
5.37039e+06
5.3594e+06
5.34842e+06
5.33746e+06
5.32652e+06
5.3156e+06
5.3047e+06
5.29381e+06
5.28294e+06
5.27209e+06
5.26126e+06
5.25044e+06
5.23964e+06
5.22886e+06
5.2181e+06
5.20735e+06
5.19662e+06
5.18591e+06
5.17522e+06
5.16454e+06
5.15388e+06
5.14324e+06
5.13261e+06
5.122e+06
5.11141e+06
5.10084e+06
5.09028e+06
5.07974e+06
5.06922e+06
5.05871e+06
5.04822e+06
5.03775e+06
5.02729e+06
5.01686e+06
)
;

boundaryField
{
    inlet
    {
        type            darcyGradPressure;
        gradient        uniform 3.897e+06;
        Mf              Mf;
        phi             phi;
        value           uniform 6.11058e+06;
    }
    outlet
    {
        type            fixedValue;
        value           uniform 5e+06;
    }
    emptyWalls
    {
        type            empty;
    }
}


// ************************************************************************* //
