/*--------------------------------*- C++ -*----------------------------------*\
  =========                 |
  \\      /  F ield         | OpenFOAM: The Open Source CFD Toolbox
   \\    /   O peration     | Website:  https://openfoam.org
    \\  /    A nd           | Version:  9
     \\/     M anipulation  |
\*---------------------------------------------------------------------------*/
FoamFile
{
    format      ascii;
    class       surfaceScalarField;
    location    "4800";
    object      phia;
}
// * * * * * * * * * * * * * * * * * * * * * * * * * * * * * * * * * * * * * //

dimensions      [0 2 0 0 0 0 0];

internalField   nonuniform List<scalar> 
99
(
1.42079e-08
1.42028e-08
1.41971e-08
1.41912e-08
1.41849e-08
1.41784e-08
1.41716e-08
1.41647e-08
1.41576e-08
1.41503e-08
1.41428e-08
1.41353e-08
1.41275e-08
1.41197e-08
1.41117e-08
1.41035e-08
1.40953e-08
1.40869e-08
1.40784e-08
1.40698e-08
1.4061e-08
1.40522e-08
1.40432e-08
1.4034e-08
1.40248e-08
1.40153e-08
1.40057e-08
1.39959e-08
1.39859e-08
1.39756e-08
1.39651e-08
1.39541e-08
1.39427e-08
1.39307e-08
1.39179e-08
1.3904e-08
1.38884e-08
1.38705e-08
1.3855e-08
1.38395e-08
1.38246e-08
1.38098e-08
1.37953e-08
1.37808e-08
1.37663e-08
1.37518e-08
1.37372e-08
1.37227e-08
1.3708e-08
1.36933e-08
1.36786e-08
1.36637e-08
1.36489e-08
1.36339e-08
1.36189e-08
1.36038e-08
1.35886e-08
1.35733e-08
1.35579e-08
1.35424e-08
1.35268e-08
1.35111e-08
1.34952e-08
1.34793e-08
1.34632e-08
1.34471e-08
1.34307e-08
1.34143e-08
1.33978e-08
1.33811e-08
1.33643e-08
1.33475e-08
1.33304e-08
1.33133e-08
1.32961e-08
1.32787e-08
1.32612e-08
1.32437e-08
1.3226e-08
1.32081e-08
1.31902e-08
1.31722e-08
1.3154e-08
1.31357e-08
1.31172e-08
1.30987e-08
1.308e-08
1.30611e-08
1.30421e-08
1.3023e-08
1.30038e-08
1.29844e-08
1.29648e-08
1.29451e-08
1.29253e-08
1.29053e-08
1.28851e-08
1.28648e-08
1.28444e-08
)
;

boundaryField
{
    inlet
    {
        type            calculated;
        value           uniform -1.42126e-08;
    }
    outlet
    {
        type            calculated;
        value           uniform 1.28315e-08;
    }
    emptyWalls
    {
        type            empty;
        value           nonuniform List<scalar> 0();
    }
}


// ************************************************************************* //
