/*--------------------------------*- C++ -*----------------------------------*\
  =========                 |
  \\      /  F ield         | OpenFOAM: The Open Source CFD Toolbox
   \\    /   O peration     | Website:  https://openfoam.org
    \\  /    A nd           | Version:  9
     \\/     M anipulation  |
\*---------------------------------------------------------------------------*/
FoamFile
{
    format      ascii;
    class       surfaceScalarField;
    location    "4800";
    object      phib;
}
// * * * * * * * * * * * * * * * * * * * * * * * * * * * * * * * * * * * * * //

dimensions      [0 2 0 0 0 0 0];

internalField   nonuniform List<scalar> 
99
(
6.09095e-09
6.09074e-09
6.09049e-09
6.09024e-09
6.08998e-09
6.0897e-09
6.08942e-09
6.08912e-09
6.08882e-09
6.08852e-09
6.0882e-09
6.08788e-09
6.08755e-09
6.08722e-09
6.08688e-09
6.08654e-09
6.08619e-09
6.08584e-09
6.08548e-09
6.08512e-09
6.08475e-09
6.08438e-09
6.084e-09
6.08361e-09
6.08323e-09
6.08283e-09
6.08243e-09
6.08202e-09
6.0816e-09
6.08117e-09
6.08073e-09
6.08028e-09
6.0798e-09
6.0793e-09
6.07876e-09
6.07818e-09
6.07752e-09
6.07849e-09
6.07879e-09
6.07933e-09
6.07977e-09
6.08025e-09
6.08073e-09
6.08124e-09
6.08178e-09
6.08235e-09
6.08294e-09
6.08355e-09
6.08417e-09
6.08479e-09
6.0854e-09
6.08599e-09
6.08658e-09
6.08715e-09
6.08771e-09
6.08827e-09
6.08883e-09
6.08939e-09
6.08996e-09
6.09054e-09
6.09113e-09
6.09173e-09
6.09235e-09
6.09298e-09
6.09363e-09
6.09429e-09
6.09498e-09
6.09568e-09
6.0964e-09
6.09713e-09
6.09788e-09
6.09864e-09
6.09941e-09
6.10019e-09
6.10097e-09
6.10176e-09
6.10256e-09
6.10336e-09
6.10417e-09
6.10498e-09
6.1058e-09
6.10662e-09
6.10746e-09
6.10831e-09
6.10917e-09
6.11004e-09
6.11092e-09
6.11183e-09
6.11275e-09
6.11368e-09
6.11463e-09
6.1156e-09
6.11659e-09
6.11759e-09
6.11861e-09
6.11965e-09
6.12069e-09
6.12176e-09
6.12284e-09
)
;

boundaryField
{
    inlet
    {
        type            calculated;
        value           uniform -6.09112e-09;
    }
    outlet
    {
        type            calculated;
        value           uniform 6.12263e-09;
    }
    emptyWalls
    {
        type            empty;
        value           nonuniform List<scalar> 0();
    }
}


// ************************************************************************* //
