/*--------------------------------*- C++ -*----------------------------------*\
  =========                 |
  \\      /  F ield         | OpenFOAM: The Open Source CFD Toolbox
   \\    /   O peration     | Website:  https://openfoam.org
    \\  /    A nd           | Version:  9
     \\/     M anipulation  |
\*---------------------------------------------------------------------------*/
FoamFile
{
    format      ascii;
    class       surfaceScalarField;
    location    "4800";
    object      phic;
}
// * * * * * * * * * * * * * * * * * * * * * * * * * * * * * * * * * * * * * //

dimensions      [0 2 0 0 0 0 0];

internalField   nonuniform List<scalar> 
99
(
4.93166e-12
1.02362e-11
1.61263e-11
2.23421e-11
2.88752e-11
3.56644e-11
4.26857e-11
4.99142e-11
5.73328e-11
6.49273e-11
7.26862e-11
8.06003e-11
8.86619e-11
9.68649e-11
1.05204e-10
1.13676e-10
1.22277e-10
1.31005e-10
1.39861e-10
1.48843e-10
1.57954e-10
1.67195e-10
1.76571e-10
1.86089e-10
1.95757e-10
2.05586e-10
2.15592e-10
2.25796e-10
2.36225e-10
2.46917e-10
2.57923e-10
2.69314e-10
2.8119e-10
2.93694e-10
3.07042e-10
3.21566e-10
3.37801e-10
3.54751e-10
3.69977e-10
3.84934e-10
3.99391e-10
4.13648e-10
4.27731e-10
4.41727e-10
4.55674e-10
4.69609e-10
4.83555e-10
4.97532e-10
5.11555e-10
5.25634e-10
5.39778e-10
5.53994e-10
5.68288e-10
5.82664e-10
5.97125e-10
6.11675e-10
6.26315e-10
6.41047e-10
6.55874e-10
6.70796e-10
6.85815e-10
7.00931e-10
7.16146e-10
7.31461e-10
7.46876e-10
7.62392e-10
7.78009e-10
7.93729e-10
8.09552e-10
8.25479e-10
8.4151e-10
8.57647e-10
8.73889e-10
8.90237e-10
9.06693e-10
9.23258e-10
9.39931e-10
9.56714e-10
9.73607e-10
9.90612e-10
1.00773e-09
1.02496e-09
1.04231e-09
1.05977e-09
1.07734e-09
1.09504e-09
1.11285e-09
1.13079e-09
1.14885e-09
1.16703e-09
1.18533e-09
1.20377e-09
1.22233e-09
1.24102e-09
1.25985e-09
1.27881e-09
1.29791e-09
1.31715e-09
1.33654e-09
)
;

boundaryField
{
    inlet
    {
        type            calculated;
        value           uniform 0;
    }
    outlet
    {
        type            calculated;
        value           uniform 1.34959e-09;
    }
    emptyWalls
    {
        type            empty;
        value           nonuniform List<scalar> 0();
    }
}


// ************************************************************************* //
