/*--------------------------------*- C++ -*----------------------------------*\
  =========                 |
  \\      /  F ield         | OpenFOAM: The Open Source CFD Toolbox
   \\    /   O peration     | Website:  https://openfoam.org
    \\  /    A nd           | Version:  9
     \\/     M anipulation  |
\*---------------------------------------------------------------------------*/
FoamFile
{
    format      ascii;
    class       volVectorField;
    location    "4800";
    object      Ua;
}
// * * * * * * * * * * * * * * * * * * * * * * * * * * * * * * * * * * * * * //

dimensions      [0 0 0 0 0 0 0];

internalField   nonuniform List<vector> 
100
(
(0 0 8.98418e-06)
(0 0 1.13042e-05)
(0 0 1.13e-05)
(0 0 1.12953e-05)
(0 0 1.12905e-05)
(0 0 1.12854e-05)
(0 0 1.12801e-05)
(0 0 1.12747e-05)
(0 0 1.12691e-05)
(0 0 1.12633e-05)
(0 0 1.12575e-05)
(0 0 1.12515e-05)
(0 0 1.12454e-05)
(0 0 1.12392e-05)
(0 0 1.12329e-05)
(0 0 1.12265e-05)
(0 0 1.12199e-05)
(0 0 1.12133e-05)
(0 0 1.12066e-05)
(0 0 1.11998e-05)
(0 0 1.11929e-05)
(0 0 1.11859e-05)
(0 0 1.11788e-05)
(0 0 1.11716e-05)
(0 0 1.11642e-05)
(0 0 1.11568e-05)
(0 0 1.11492e-05)
(0 0 1.11415e-05)
(0 0 1.11336e-05)
(0 0 1.11255e-05)
(0 0 1.11173e-05)
(0 0 1.11087e-05)
(0 0 1.10998e-05)
(0 0 1.10905e-05)
(0 0 1.10806e-05)
(0 0 1.107e-05)
(0 0 1.10582e-05)
(0 0 1.10449e-05)
(0 0 1.10316e-05)
(0 0 1.10193e-05)
(0 0 1.10072e-05)
(0 0 1.09954e-05)
(0 0 1.09837e-05)
(0 0 1.09722e-05)
(0 0 1.09606e-05)
(0 0 1.09491e-05)
(0 0 1.09375e-05)
(0 0 1.09259e-05)
(0 0 1.09143e-05)
(0 0 1.09026e-05)
(0 0 1.08909e-05)
(0 0 1.08792e-05)
(0 0 1.08673e-05)
(0 0 1.08555e-05)
(0 0 1.08436e-05)
(0 0 1.08316e-05)
(0 0 1.08195e-05)
(0 0 1.08074e-05)
(0 0 1.07952e-05)
(0 0 1.07829e-05)
(0 0 1.07705e-05)
(0 0 1.0758e-05)
(0 0 1.07455e-05)
(0 0 1.07328e-05)
(0 0 1.07201e-05)
(0 0 1.07073e-05)
(0 0 1.06943e-05)
(0 0 1.06813e-05)
(0 0 1.06682e-05)
(0 0 1.0655e-05)
(0 0 1.06417e-05)
(0 0 1.06283e-05)
(0 0 1.06148e-05)
(0 0 1.06012e-05)
(0 0 1.05875e-05)
(0 0 1.05738e-05)
(0 0 1.05599e-05)
(0 0 1.0546e-05)
(0 0 1.05319e-05)
(0 0 1.05178e-05)
(0 0 1.05036e-05)
(0 0 1.04892e-05)
(0 0 1.04748e-05)
(0 0 1.04603e-05)
(0 0 1.04457e-05)
(0 0 1.0431e-05)
(0 0 1.04161e-05)
(0 0 1.04012e-05)
(0 0 1.03862e-05)
(0 0 1.0371e-05)
(0 0 1.03557e-05)
(0 0 1.03404e-05)
(0 0 1.03249e-05)
(0 0 1.03092e-05)
(0 0 1.02935e-05)
(0 0 1.02777e-05)
(0 0 1.02617e-05)
(0 0 1.02456e-05)
(0 0 1.02294e-05)
(0 0 1.02161e-05)
)
;

boundaryField
{
    inlet
    {
        type            fixedValue;
        value           uniform (0 0 1.131e-05);
    }
    outlet
    {
        type            zeroGradient;
    }
    emptyWalls
    {
        type            empty;
    }
}


// ************************************************************************* //
