/*--------------------------------*- C++ -*----------------------------------*\
  =========                 |
  \\      /  F ield         | OpenFOAM: The Open Source CFD Toolbox
   \\    /   O peration     | Website:  https://openfoam.org
    \\  /    A nd           | Version:  9
     \\/     M anipulation  |
\*---------------------------------------------------------------------------*/
FoamFile
{
    format      ascii;
    class       volVectorField;
    location    "4800";
    object      Ub;
}
// * * * * * * * * * * * * * * * * * * * * * * * * * * * * * * * * * * * * * //

dimensions      [0 0 0 0 0 0 0];

internalField   nonuniform List<vector> 
100
(
(0 0 7.16722e-06)
(0 0 4.84694e-06)
(0 0 4.84676e-06)
(0 0 4.84656e-06)
(0 0 4.84636e-06)
(0 0 4.84614e-06)
(0 0 4.84592e-06)
(0 0 4.84569e-06)
(0 0 4.84545e-06)
(0 0 4.84521e-06)
(0 0 4.84496e-06)
(0 0 4.84471e-06)
(0 0 4.84445e-06)
(0 0 4.84419e-06)
(0 0 4.84392e-06)
(0 0 4.84365e-06)
(0 0 4.84338e-06)
(0 0 4.8431e-06)
(0 0 4.84281e-06)
(0 0 4.84253e-06)
(0 0 4.84224e-06)
(0 0 4.84194e-06)
(0 0 4.84164e-06)
(0 0 4.84134e-06)
(0 0 4.84103e-06)
(0 0 4.84072e-06)
(0 0 4.8404e-06)
(0 0 4.84008e-06)
(0 0 4.83975e-06)
(0 0 4.83941e-06)
(0 0 4.83907e-06)
(0 0 4.83871e-06)
(0 0 4.83834e-06)
(0 0 4.83795e-06)
(0 0 4.83754e-06)
(0 0 4.83709e-06)
(0 0 4.8366e-06)
(0 0 4.83672e-06)
(0 0 4.83723e-06)
(0 0 4.83756e-06)
(0 0 4.83795e-06)
(0 0 4.83832e-06)
(0 0 4.8387e-06)
(0 0 4.8391e-06)
(0 0 4.83951e-06)
(0 0 4.83995e-06)
(0 0 4.84042e-06)
(0 0 4.84089e-06)
(0 0 4.84138e-06)
(0 0 4.84188e-06)
(0 0 4.84236e-06)
(0 0 4.84284e-06)
(0 0 4.84331e-06)
(0 0 4.84377e-06)
(0 0 4.84422e-06)
(0 0 4.84467e-06)
(0 0 4.84511e-06)
(0 0 4.84556e-06)
(0 0 4.84601e-06)
(0 0 4.84647e-06)
(0 0 4.84693e-06)
(0 0 4.84741e-06)
(0 0 4.84789e-06)
(0 0 4.84839e-06)
(0 0 4.8489e-06)
(0 0 4.84942e-06)
(0 0 4.84996e-06)
(0 0 4.85051e-06)
(0 0 4.85107e-06)
(0 0 4.85165e-06)
(0 0 4.85224e-06)
(0 0 4.85284e-06)
(0 0 4.85345e-06)
(0 0 4.85406e-06)
(0 0 4.85469e-06)
(0 0 4.85531e-06)
(0 0 4.85595e-06)
(0 0 4.85658e-06)
(0 0 4.85722e-06)
(0 0 4.85787e-06)
(0 0 4.85851e-06)
(0 0 4.85917e-06)
(0 0 4.85983e-06)
(0 0 4.8605e-06)
(0 0 4.86118e-06)
(0 0 4.86187e-06)
(0 0 4.86257e-06)
(0 0 4.86328e-06)
(0 0 4.864e-06)
(0 0 4.86474e-06)
(0 0 4.86549e-06)
(0 0 4.86626e-06)
(0 0 4.86704e-06)
(0 0 4.86783e-06)
(0 0 4.86863e-06)
(0 0 4.86945e-06)
(0 0 4.87028e-06)
(0 0 4.87112e-06)
(0 0 4.87197e-06)
(0 0 4.87231e-06)
)
;

boundaryField
{
    inlet
    {
        type            fixedValue;
        value           uniform (0 0 4.84716e-06);
    }
    outlet
    {
        type            zeroGradient;
    }
    emptyWalls
    {
        type            empty;
    }
}


// ************************************************************************* //
