/*--------------------------------*- C++ -*----------------------------------*\
  =========                 |
  \\      /  F ield         | OpenFOAM: The Open Source CFD Toolbox
   \\    /   O peration     | Website:  https://openfoam.org
    \\  /    A nd           | Version:  9
     \\/     M anipulation  |
\*---------------------------------------------------------------------------*/
FoamFile
{
    format      ascii;
    class       volVectorField;
    location    "4800";
    object      Uc;
}
// * * * * * * * * * * * * * * * * * * * * * * * * * * * * * * * * * * * * * //

dimensions      [0 0 0 0 0 0 0];

internalField   nonuniform List<vector> 
100
(
(0 0 5.80308e-09)
(0 0 6.0351e-09)
(0 0 1.04893e-08)
(0 0 1.53061e-08)
(0 0 2.03787e-08)
(0 0 2.56795e-08)
(0 0 3.11745e-08)
(0 0 3.68443e-08)
(0 0 4.26722e-08)
(0 0 4.86458e-08)
(0 0 5.47547e-08)
(0 0 6.09908e-08)
(0 0 6.73473e-08)
(0 0 7.38188e-08)
(0 0 8.04007e-08)
(0 0 8.70895e-08)
(0 0 9.38825e-08)
(0 0 1.00778e-07)
(0 0 1.07774e-07)
(0 0 1.14872e-07)
(0 0 1.2207e-07)
(0 0 1.29372e-07)
(0 0 1.3678e-07)
(0 0 1.44298e-07)
(0 0 1.51932e-07)
(0 0 1.59689e-07)
(0 0 1.67581e-07)
(0 0 1.75622e-07)
(0 0 1.83832e-07)
(0 0 1.92236e-07)
(0 0 2.0087e-07)
(0 0 2.09781e-07)
(0 0 2.19039e-07)
(0 0 2.28739e-07)
(0 0 2.39026e-07)
(0 0 2.50115e-07)
(0 0 2.62354e-07)
(0 0 2.75557e-07)
(0 0 2.8836e-07)
(0 0 3.0037e-07)
(0 0 3.12073e-07)
(0 0 3.23498e-07)
(0 0 3.34774e-07)
(0 0 3.45946e-07)
(0 0 3.57065e-07)
(0 0 3.68158e-07)
(0 0 3.79252e-07)
(0 0 3.90362e-07)
(0 0 4.01503e-07)
(0 0 4.12684e-07)
(0 0 4.23914e-07)
(0 0 4.35198e-07)
(0 0 4.46542e-07)
(0 0 4.5795e-07)
(0 0 4.69423e-07)
(0 0 4.80966e-07)
(0 0 4.9258e-07)
(0 0 5.04267e-07)
(0 0 5.16029e-07)
(0 0 5.27865e-07)
(0 0 5.39778e-07)
(0 0 5.51769e-07)
(0 0 5.63837e-07)
(0 0 5.75985e-07)
(0 0 5.88211e-07)
(0 0 6.00518e-07)
(0 0 6.12906e-07)
(0 0 6.25375e-07)
(0 0 6.37925e-07)
(0 0 6.50558e-07)
(0 0 6.63274e-07)
(0 0 6.76073e-07)
(0 0 6.88956e-07)
(0 0 7.01923e-07)
(0 0 7.14976e-07)
(0 0 7.28114e-07)
(0 0 7.41339e-07)
(0 0 7.54651e-07)
(0 0 7.6805e-07)
(0 0 7.81538e-07)
(0 0 7.95115e-07)
(0 0 8.08782e-07)
(0 0 8.22539e-07)
(0 0 8.36388e-07)
(0 0 8.50329e-07)
(0 0 8.64364e-07)
(0 0 8.78493e-07)
(0 0 8.92717e-07)
(0 0 9.07038e-07)
(0 0 9.21457e-07)
(0 0 9.35975e-07)
(0 0 9.50593e-07)
(0 0 9.65313e-07)
(0 0 9.80136e-07)
(0 0 9.95065e-07)
(0 0 1.0101e-06)
(0 0 1.02525e-06)
(0 0 1.0405e-06)
(0 0 1.05587e-06)
(0 0 1.06877e-06)
)
;

boundaryField
{
    inlet
    {
        type            fixedValue;
        value           uniform (0 0 0);
    }
    outlet
    {
        type            zeroGradient;
    }
    emptyWalls
    {
        type            empty;
    }
}


// ************************************************************************* //
