/*--------------------------------*- C++ -*----------------------------------*\
  =========                 |
  \      /  F ield         | OpenFOAM: The Open Source CFD Toolbox
   \    /   O peration     | Website:  https://openfoam.org
    \  /    A nd           | Version:  9
     \/     M anipulation  |
\*---------------------------------------------------------------------------*/
FoamFile
{
    format      ascii;
    class       volScalarField;
    location    "0";
    object      K;
}
// * * * * * * * * * * * * * * * * * * * * * * * * * * * * * * * * * * * * * //

dimensions      [0 0 0 0 0 0 0];

internalField   nonuniform List<scalar> 
13200
(
5.111522501525e-13
2.7727985144354e-13
4.3434395740670006e-13
2.8966208724233e-13
2.8902838379140005e-13
3.0500953409597004e-13
1.9746874586516002e-13
1.6921925071062002e-11
1.9865700151836e-11
1.2377439351552001e-11
1.8373422776071e-13
3.5798461607007e-13
4.9961718931443e-13
4.2358382874379e-13
4.5471415301103003e-13
5.2188040250049e-13
4.2932742627280006e-13
3.0563386177555e-13
2.7519083089443e-13
3.9870447927409005e-13
7.398183323769701e-13
7.2883052050875e-13
3.6847047874791003e-13
3.4594316488677003e-13
3.5099325141287004e-13
5.023445518539801e-13
2.5918421796872e-13
2.5812722311442003e-13
5.434723104578901e-13
3.1725764701829e-13
3.5009199305531e-13
4.5283791312540006e-13
3.889567365323201e-13
4.2448814656358006e-13
2.6806001397494005e-13
6.136649602468001e-13
3.6167294582683004e-13
1.7994641613531004e-13
3.3933571339327004e-13
1.3649919039174003e-13
1.6515973910073002e-13
1.5201698020696002e-13
1.0704505665722002e-13
2.1917908461856002e-11
3.2174054872388005e-13
2.6326366542927003e-13
2.2606040732781003e-13
3.308196509299e-13
2.2296985701386002e-13
5.1203179619746e-13
4.3849910188436003e-13
3.2111227335110005e-13
3.1334854251932003e-13
3.5835540315388006e-13
2.0538969357863002e-13
1.8914375175267004e-13
3.7082409343375005e-13
4.8461861984734e-13
3.0213887029326e-13
3.9634504174078005e-13
3.4856995994205006e-13
2.4660005766275003e-13
4.6850699828251e-13
2.5677503950109e-13
2.9883228246894005e-13
3.2603297423257004e-13
3.315430657088e-13
5.5973068751743e-13
3.9515974685748003e-13
3.4220923927355003e-13
1.3969820357636e-13
1.6890511302423002e-13
2.3730926040888e-13
5.731625162457701e-13
3.4445458847338e-13
2.2280010620626e-13
2.3846889528638e-13
1.6413057548349e-13
2.4546401025212e-13
1.7752934228128e-13
1.5893679292491003e-13
1.8986460053099002e-13
2.3465048903868003e-13
2.5290945831965004e-13
5.9790507814609e-13
5.753917785958101e-13
7.029102630345401e-13
7.021969148733001e-13
3.3048666300848003e-13
2.8767886487098003e-13
6.327535372537501e-13
6.525568441145601e-13
5.112632790237501e-13
5.4133275943582e-13
3.4769219035903e-13
2.9404373061734003e-13
6.650483323226601e-13
3.034631239772e-13
2.6680139069045e-13
3.6492012086849e-13
3.2989243648955e-13
2.2316023451843e-13
2.2515490520006002e-13
2.6383331755803e-13
4.0173640634402006e-13
5.433865468231201e-13
8.133687913094701e-13
1.0424012194629002e-12
7.2272393259e-13
3.7769002013952004e-13
3.4535653767725003e-13
5.033843742428601e-13
3.871943875955101e-13
5.4598857010357e-13
6.1637515032093e-13
5.4227724503392e-13
7.312693066753801e-13
7.943033083077401e-13
4.680690017219701e-13
1.1000977425042e-12
4.6884393389713e-13
1.0120839226102e-12
4.913022618196001e-13
7.4925509558691e-13
4.9912994528122e-13
6.2286318409513e-13
2.589834777695e-13
3.2936137306182006e-13
3.9444866861983006e-13
4.0128972485844003e-13
4.997003869486201e-13
4.714227644800301e-13
6.4444058428002e-13
7.479520607539201e-13
2.6505088483324e-13
2.8618555122575e-13
3.2630497029405e-13
3.3966781308372e-13
3.7407294624502005e-13
4.836138332356101e-13
5.9285824846688e-13
5.202888899869101e-13
5.8608321739704e-13
5.3962834289672e-13
4.2130561499807004e-13
3.6622493216342005e-13
4.1091045057150003e-13
8.834202123741501e-13
4.8512816834713e-13
3.0950506841980003e-13
7.784078229456101e-13
6.691090282405101e-13
7.7537441549073e-13
5.217840787864101e-13
7.610181357072802e-13
6.9445884404732e-13
7.0071238484544e-13
7.753239837101e-13
3.2210946065342e-13
4.2640682415111007e-13
2.7093798101007e-13
2.4339166870678e-13
5.0630014044038e-13
6.6196774993404e-13
6.463054745477001e-13
5.1666559847562e-13
1.2099344104078e-12
6.759700203297801e-13
4.4352204801971e-13
6.865875385758401e-13
9.115539414256e-13
1.0363750657931e-12
3.8103174243332e-13
9.7737363276454e-13
8.0589659762051e-13
5.090135873614001e-13
6.564312089133701e-13
2.9164244753611e-13
5.3909165400618e-13
6.219107044183e-13
3.3190664825252005e-13
4.881877292694601e-13
3.0316813260283e-13
5.9882133773781e-13
4.7856394409417e-13
5.231580734046701e-13
3.3931676446591005e-13
4.2551809971946e-13
9.121554711769502e-13
4.1278106499432006e-13
3.4744022884054007e-13
4.3039034266690003e-13
4.2607028330581e-13
5.704461085548501e-13
5.7672007866528e-13
4.6231701534491e-13
4.1470961181485003e-13
4.4371647190981003e-13
1.0027032166437e-12
1.3616097177683001e-12
4.6602340579806e-13
3.7435491023183004e-13
6.616922009486801e-13
4.611538275435301e-13
4.561846687280301e-13
5.9366505826463e-13
2.7793743843833e-13
3.3955777113577003e-13
3.8840840194684e-13
3.7184851981915e-13
6.101394728345401e-13
6.623094227805001e-13
5.818397432840301e-13
7.864562811494401e-13
4.0457173829259004e-13
5.394532627033001e-13
1.3867575103756e-13
2.0315845738199004e-13
4.7841866898441e-13
2.1649771270479e-13
2.8649919545049e-13
1.4662946460459001e-13
2.0058090979938001e-13
3.6501565504393004e-13
4.988976235364e-13
3.2823282626827e-13
2.9935999035745003e-13
4.0682182472426e-13
1.8504841482699e-11
1.8602675189428004e-11
1.8424239456788e-11
1.6060864099511e-11
5.835128743545201e-13
4.0717514326566e-13
3.3012633731165e-13
3.3267467196458e-13
3.6320751286600006e-13
3.9043346986611e-13
8.272996084582901e-13
4.5827013635326e-13
5.443227422655e-13
3.1029381752116e-13
2.7073240488668e-13
3.4640622929913e-13
2.2430072308391e-13
2.9027072284144003e-13
4.4887660038386003e-13
1.8277365531282002e-13
4.6785937921305e-13
9.544084210351901e-13
1.7152815777097e-11
1.7777518487531e-11
4.0834760814606003e-13
3.0488281314425e-13
4.2585908171961e-13
6.761993813047e-13
5.3609298625146e-13
4.1763850409226e-13
2.6671059374685004e-11
4.6226174764011e-13
2.6507230106885005e-13
2.8671799634610006e-13
2.3749578891258004e-11
2.5424782500678e-11
3.0527126615513e-11
2.4107299110576e-13
5.0167462831794e-13
2.8710368597174e-13
2.7081560252087e-13
4.6202340566316e-13
4.4698516187941005e-13
3.2047491828396e-13
4.1455841516529003e-13
1.7466430394138003e-13
2.0355766785684e-13
3.7935821659351005e-13
2.5113625322654004e-13
3.2183095089816e-13
3.9178871294167e-13
4.763710005215701e-13
3.3078767461498e-13
3.147959642311e-13
3.1274227553613005e-13
1.9347032480754002e-13
2.1607669122501e-13
2.9791602287722e-13
5.602956024143501e-13
2.6128389728947e-13
3.0194651894209003e-13
4.213925629408001e-13
2.5055683055711005e-13
2.0400267157281002e-13
4.6933522431587e-13
7.8462139335008e-13
4.4657006193943e-13
2.6237740830587e-13
3.7728232212429e-13
1.9833427759926002e-13
3.2825621635048005e-13
7.772354567575401e-13
3.6116704894325004e-13
2.1305157392585002e-13
3.4147931080087003e-13
4.6202804420267e-13
3.2265059069881e-13
3.3871335956029e-13
4.4816660776184e-13
4.7066905115582e-13
3.3271355674260003e-13
2.5756082783255004e-13
4.7317238210627e-13
4.3287502076698003e-13
5.520218296211301e-13
5.6437120087403e-13
3.2005350203486e-13
3.5355816637724e-13
2.3623608001246e-13
4.0279053912075e-13
5.4158472095431e-13
2.5678490873409e-13
1.722625273985e-13
1.9236358901892002e-13
2.9250491980798004e-13
2.2083484583897004e-13
2.3491202371318e-13
3.7166505077768007e-13
2.3267397774577003e-13
5.157334494187699e-13
8.886708417148101e-13
4.3386796429911004e-13
4.4778999783056e-13
5.518381631950001e-13
2.6914799822086004e-13
2.1197760399079004e-13
3.8833911993118007e-13
5.2861753571561e-13
4.1837869656726007e-13
5.4783707744447e-13
6.710515893719e-13
3.2421417328300006e-13
2.8464526003144e-13
5.4486485923419e-13
4.6937470124787e-13
3.7630586021127003e-13
2.5778012218981e-13
2.7447925919513e-13
1.8857123754634002e-13
2.7257301684118e-13
3.0178199882798003e-13
3.3338051950874004e-13
4.3603130017271006e-13
4.939460319556401e-13
6.8880791861618e-13
5.361678937299301e-13
2.8255920025223e-13
3.1865207094886003e-13
4.4655555416692004e-13
1.7700380562403002e-13
2.3644570252138e-13
3.1648380045876e-13
5.076026818117201e-13
7.065173690037101e-13
3.3107585621858003e-13
5.948278512966901e-13
5.4531154071977e-13
6.2543777090784e-13
5.083641918300001e-13
3.9018950242635e-13
6.310950126481001e-13
5.0091637514655e-13
3.8483159452298004e-13
3.7891854226336003e-13
9.038364972965901e-13
6.0804097782175e-13
4.0243356896314004e-13
3.2098269032181003e-13
4.582305607289301e-13
4.8214568613453e-13
4.8504052955809e-13
4.992153141466701e-13
6.937883283573e-13
7.168152227929e-13
9.624445426977702e-13
6.2594840502326e-13
3.6461447072248003e-13
3.879791890036701e-13
4.732684097433601e-13
5.5618733679344e-13
1.0342571283913e-12
6.8123624305858e-13
3.6934765617695e-13
3.4923919263178e-13
9.695608518447501e-13
7.3581329893324e-13
9.5418537636939e-13
6.532418675770901e-13
6.719604470388701e-13
2.2144249451478004e-13
4.8219365060691e-13
6.307172184088601e-13
3.672583395508501e-13
6.136927914838601e-13
4.895447488069601e-13
5.3286189805959e-13
1.8415475577884e-13
3.4668266651546e-13
3.1603465166493e-13
2.2788345204757e-13
4.9769920257321e-13
3.9620855024839e-13
2.5514908336434e-13
4.352154106806e-13
7.8026698905815e-13
2.8137341190728005e-13
5.1895249714638e-13
4.3112737698734005e-13
6.755347871544801e-13
6.330363894715301e-13
5.1448173459738e-13
4.810423058851301e-13
4.1185246886135e-13
2.5595628793141006e-13
5.975566942211901e-13
4.799850149538401e-13
4.3329485793880003e-13
3.9600859958781005e-13
4.1314237761445003e-13
3.6160484811913004e-13
6.911636058409501e-13
5.894431977718901e-13
8.035207771604201e-13
3.7027753531021003e-13
7.598913653756701e-13
4.577027541480901e-13
4.4554978063189e-13
3.179126680125e-13
2.7734933084386e-13
2.3564728157168e-13
1.7868956931276001e-13
3.0142058751552e-13
3.9260016127893e-13
2.5557553292227006e-13
2.7189845476563005e-13
2.6303588353163005e-13
3.9775811852172005e-13
6.475292594397001e-13
3.6292367372492005e-13
2.1534656536767e-13
4.5327512014730003e-13
1.9959072965249e-11
2.8225236579826e-11
2.3095880374270004e-11
2.0691587176975e-11
5.500448248665701e-13
6.9847394410871e-13
9.284584571696501e-13
1.0934182456098e-12
6.835048836482901e-13
3.7284027904332004e-13
7.736012103976201e-13
3.9867802972965006e-13
5.216611081432301e-13
6.2262503950284e-13
3.326291748004501e-11
3.1790181185620003e-11
3.3992569614201e-13
1.0373047475417002e-11
7.6383678865208e-12
1.0638490366185001e-11
1.1962388757737e-11
1.5171478429250003e-11
2.1964451764684e-11
1.5038421429944e-11
2.0715835882456e-11
6.804389077245101e-13
6.939036996910701e-13
5.1817440681666e-13
2.3162004235370005e-11
2.0303321681522002e-11
2.119644779109e-11
2.5853778320722002e-11
3.1576216214180004e-11
3.2566534530332005e-11
2.7952579279735003e-11
3.1132534975432e-11
2.5071611997773e-11
3.3660242931392e-13
5.678632315864201e-13
4.7026174790991e-13
3.629252528022e-13
3.9999981610534e-13
5.818695483676901e-13
4.5145049635026007e-13
4.0067457556555e-13
1.6741406930259004e-13
3.4530432943468003e-13
2.7113408266978e-13
4.7829204672502e-13
7.8671199297647e-13
3.7181486573462005e-13
9.7125076061134e-13
1.0102117291101e-12
4.1315570107900003e-13
3.910295715393101e-13
5.065097629493001e-13
2.7577597771900004e-13
3.5555036975062005e-13
2.5425078577668e-13
3.0047837184101003e-13
4.7815654215593e-13
3.2562271021676e-13
3.730945104854e-13
5.0149244227676e-13
3.8894518952971005e-13
3.0181614637416003e-13
2.343439506617e-13
4.1999478347101003e-13
4.6354761000768e-13
4.5152402213611e-13
4.870763549413301e-13
4.3305681203884005e-13
3.0284481652975005e-13
3.0797050138063006e-13
4.0800919214649e-13
4.2326505251789007e-13
3.4430260228518004e-13
2.4999872543096006e-13
6.4243071497957e-13
4.649989794126601e-13
4.6020213740534e-13
4.2054736182668003e-13
3.4948789730338005e-13
4.4140884784975003e-13
3.5602636285821e-13
3.5181585198342e-13
3.5332791717135e-13
3.0904841900889004e-13
4.4223302749758003e-13
4.5399952184950004e-13
7.685636577974301e-13
2.3608971928707003e-13
2.2369435740839003e-13
3.4538683622256e-13
3.1679853029913e-13
3.3215643853975006e-13
4.1857124530309003e-13
3.3139394159817003e-13
3.9722004793856e-13
7.713010869546401e-13
6.7886140952179e-13
4.887490912425001e-13
3.3437770681106e-13
3.8444393105074e-13
2.5773827664189e-13
3.5070467503995e-13
5.375490928882801e-13
4.4962567516856006e-13
5.406433935107701e-13
3.1899946795046006e-13
1.3279112216898e-13
2.9951197654565e-13
4.161766733003e-13
5.6296651294114e-13
4.3971518877462e-13
3.9819749677488e-13
3.1820499469396005e-13
3.5412239042785003e-13
1.7944584863755e-13
2.3192361996078e-13
4.625563442451601e-13
4.2540401138598005e-13
3.1216324763602006e-13
4.856876551659e-13
5.7237278022111e-13
5.994896821965701e-13
6.682592872792101e-13
3.8861920876372005e-13
5.376078148246301e-13
2.5652228844396006e-13
1.8369593513667e-13
4.0925281419682007e-13
5.531750494971801e-13
2.3449731854252e-13
2.9476270424139004e-13
4.0634287084677e-13
4.407481027004e-13
2.8629944217457004e-13
3.6209574376855003e-13
4.591271805469801e-13
4.3622631621679007e-13
4.0492900452719004e-13
5.704618006353201e-13
4.3746786572819006e-13
8.388599345328401e-13
5.6886416919728e-13
4.0060243147232006e-13
7.3474979038516e-13
5.0288341197578e-13
7.589253648496301e-13
4.690337192477201e-13
4.571238249403101e-13
6.4934036238753e-13
3.0323988192674003e-13
3.6704851965727005e-13
4.6651282106253e-13
4.960677196659801e-13
5.0383944457649e-13
4.867213586303201e-13
1.9683859533811003e-12
7.3383501117839e-13
5.0011716465821e-13
6.402281982509601e-13
6.1886219703693e-13
4.0871267107473003e-13
5.2852367930978e-13
4.2406199308264003e-13
5.3640978863076e-13
3.2331903384990003e-13
5.9829185338736e-13
5.76116476375e-13
7.892738484786101e-13
5.2998294410116e-13
4.4845646713505003e-13
3.5985414487726e-13
4.995578752241e-13
4.4244393300679003e-13
2.7424535837303e-13
3.1921214992161004e-13
4.5199142901099005e-13
1.1567964860892001e-12
3.1456235948599005e-13
2.0178189676315003e-13
3.563205646939401e-13
2.6021861227945e-13
6.666212906782001e-13
2.3807313904308e-13
6.293374996354601e-13
7.5201305274876e-13
1.0334133089698002e-12
4.749058141903901e-13
2.5997513830134e-13
2.4075826126539e-13
4.0192984331082e-13
3.2192322822671005e-13
3.4629391742759e-13
2.6746450445572e-13
2.1626568703696e-13
2.7768942461304e-13
3.9284501694966007e-13
7.555602524736201e-13
1.4295100408083e-12
4.9280070746599e-13
9.272907295210901e-13
5.630413217272802e-13
7.360858871487001e-13
9.774105436959601e-13
4.738216789453401e-13
3.9531785197014005e-13
2.3344367922744e-13
3.5977913870646e-13
2.5314168137214003e-13
1.4308068580245002e-13
1.6388641065907e-13
2.6971074188652e-13
2.5014232277111e-13
5.5955935763255e-13
6.041048316243601e-13
5.8370236362812e-13
7.554886018420401e-13
1.6055850529147e-11
2.0301653781145e-11
2.1603800383165002e-11
1.9116990528757004e-11
2.5179976176113e-11
1.8304525660498e-11
8.878650188403601e-13
6.618725118355901e-13
6.743824555094e-13
6.2638028265934e-13
1.9232046047071e-11
2.0439911866242003e-11
2.1826272633451e-11
2.5455140261386002e-11
2.6415732447742002e-11
2.1707989875946e-11
1.6659758765650004e-11
1.1089218237295002e-11
1.4315302728034e-11
1.2905384101654001e-11
1.7902472846544e-11
1.4152470252767002e-11
1.4174962234774002e-11
1.5419768593064e-11
1.0670338381076e-11
6.727821593784501e-13
2.2315322736300002e-11
3.3592727508439005e-11
2.5850185919910002e-11
2.8620094722923004e-11
2.2706400963158e-11
2.4849396347545005e-11
2.1279073009766002e-11
5.572417656471601e-13
2.8609692551341002e-11
2.573145904692e-11
2.2769189023504e-11
2.0958658491188002e-11
5.134890871422401e-13
6.7069511267594e-13
1.2078214076225e-12
6.665833928234801e-13
5.4439439289708e-13
4.7211775586789e-13
7.011266952467801e-13
5.076088007361801e-13
3.6071414984088e-13
1.5803622541366002e-13
5.8925104380538e-13
5.0679577332164e-13
2.6270210607157e-13
5.8515185787883e-13
4.8377983373467e-13
2.1590921034100002e-13
2.3832973910108e-13
3.0842724948387005e-13
4.1466579242033e-13
2.9607245015282007e-13
3.1728389917807e-13
3.7198145838766e-13
4.2018516097558003e-13
5.664176850289101e-13
2.9493225766433004e-13
6.563007376531101e-13
1.0461840964718e-12
3.285220934875e-13
3.1433033381816e-13
2.6752786493158e-13
4.8421250090939e-13
4.1067556282610004e-13
5.0012762604519e-13
5.759038930961801e-13
5.826093460733701e-13
7.3101339746369e-13
2.1351503310753003e-13
2.8992431276314e-13
2.6957138831656e-13
4.2180657726515004e-13
4.627046788171501e-13
3.2617992711194e-13
3.4016778842750003e-13
2.4716556471365004e-13
4.2994405595064004e-13
5.5075185671869e-13
7.577903043623002e-13
5.330866204950001e-13
4.0184832344624e-13
4.3051666884930006e-13
3.5136048557280004e-13
3.2121767675954003e-13
4.3123959016655004e-13
4.2090137121439e-13
2.9057015537066004e-13
3.7030664954756007e-13
3.2477632479468003e-13
7.242063900789301e-13
6.101242742157201e-13
4.7272313462011e-13
9.551892747501501e-13
6.896050565655901e-13
4.7891805217421e-13
2.318953939544e-13
2.1222857858598003e-13
2.8310487014480005e-13
3.8911957887682006e-13
4.5403959093548007e-13
6.486582010025701e-13
3.4621002894709e-13
4.1136907382901004e-13
1.6006010902497e-13
2.7820074957477004e-13
1.3613768038695e-13
4.2801166012924e-13
7.9383560535587e-13
5.0822582518334e-13
3.6438698490183004e-13
4.043799790954e-13
5.5952698654831e-13
4.5071958095428004e-13
3.6973443141822005e-13
3.6090334303749004e-13
4.4142720462313003e-13
5.764205474437301e-13
9.7206605794947e-13
4.8686554812445e-13
3.9558165656823004e-13
2.9645883062477e-13
3.3226973733459e-13
3.6037208222510003e-13
2.5509914504536005e-13
4.393205181469501e-13
4.825246646817301e-13
6.7934125163025e-13
4.7080060803171e-13
9.3736228179759e-13
4.4390339518283005e-13
4.1126189395863005e-13
6.6624675328585e-13
5.6915916057165e-13
8.5043022853272e-13
5.8448153957347e-13
5.0543826032249e-13
6.886942250520201e-13
1.1507436854903002e-12
6.134977754397801e-13
6.588879570840602e-13
3.4923258024567005e-13
7.445939555333401e-13
5.6550320189913e-13
5.2694953664628e-13
3.5593576329927006e-13
3.7460479921139005e-13
5.1171528989515e-13
3.8745375103875e-13
6.9270399572759e-13
5.847282703984701e-13
4.601175580785301e-13
5.3696138006313e-13
8.559024221542301e-13
5.916854875094901e-13
6.0606900637602e-13
5.8617954111112e-13
4.96205296774e-13
5.298490186093501e-13
2.5997020368484004e-13
2.331547080852e-13
1.9495919729792002e-13
3.0499561847744e-13
5.0535328622636e-13
1.8119971003398003e-13
6.794493197316001e-13
5.628908159240301e-13
1.0205704760669e-12
1.2629479823906001e-12
4.722264161232201e-13
3.5634326392984004e-13
3.1811696113560004e-13
5.502632309928601e-13
2.5469421041537e-13
2.5309371689976e-13
4.265640410328e-13
3.2009811096802005e-13
1.9277059618784001e-13
1.8474523198923e-13
3.5779986402831e-13
2.5101130873676e-13
3.7339719986151e-13
7.325226992663801e-13
6.533621735273601e-13
4.1262621672855003e-13
3.4311375447800004e-13
2.1929721933757003e-13
3.2462502945279004e-13
4.786453652664201e-13
3.3955609336616006e-13
4.6128656872738e-13
1.7604777302332e-13
2.2873171262392003e-13
2.9680149039453004e-13
3.019945821068e-13
2.6400050236505e-13
4.589238743471801e-13
3.2332821223659005e-13
2.8082112962860004e-13
1.6354375088931e-13
3.3022631264194e-13
5.762210902448001e-13
6.6014944244612e-13
5.0175012795039e-13
6.4447117890232e-13
3.3721432175992e-13
3.0453018544916003e-13
2.8268592120395003e-13
3.7906766637399e-13
3.5022591854712005e-13
3.7522932427563e-13
3.8036023982000003e-13
6.2893226892848e-13
6.234116173729401e-13
7.988757239566401e-13
7.3333355544966e-13
1.7738495540249002e-11
1.8053748449968004e-11
2.3206928983986004e-11
1.8579196284121002e-11
1.5193240088015e-11
9.173001049551901e-13
4.5482231980471e-13
7.1216178074107e-13
4.607643876093501e-13
3.0225848539722e-11
2.0922902260029003e-11
1.565961069343e-11
2.0227624664412005e-11
1.4450323704707002e-11
1.2066943412139001e-11
1.2173580474704002e-11
1.1039812856897001e-11
8.454211980158999e-12
8.1333257122436e-12
6.6260599323215e-12
7.247490992016e-12
8.0599795464342e-12
9.8406408450757e-12
1.0156871795785e-11
1.3299699436936002e-11
2.3040691623334003e-11
1.6826292203292e-11
2.3854459230349e-11
2.5268157772968003e-11
2.5702384286502004e-11
2.7260440100212e-11
2.8637247449877003e-13
3.2893847642777e-13
2.0078915061568002e-13
3.0713270219126003e-13
3.8838372886434005e-11
3.0550319313063005e-11
4.2204649831938003e-13
5.2965528556556e-13
8.964181896198102e-13
1.1998608842847e-12
8.224605261337301e-13
7.5271801206195e-13
5.8912767839288e-13
6.5177016755213e-13
8.1503846814841e-13
2.5367313956919e-13
4.065225895797001e-13
2.3167748128976e-13
5.3642883625045e-13
4.911970557958201e-13
3.6157158880392003e-13
3.3596655463173004e-13
2.6641471414151e-13
3.5057104562513003e-13
3.5992747327845e-13
3.5376867711713e-13
1.6247876195628e-13
3.8014045200109004e-13
4.5385799704828005e-13
5.048230123372701e-13
3.7169712578493006e-13
4.924648574670001e-13
5.8234869962984e-13
4.0110003820018006e-13
3.0152510269299006e-13
3.9616769162377005e-13
9.6372241098661e-13
6.7167256151226e-13
1.1574616723934002e-12
6.8164384238148e-13
5.3261121954139e-13
2.9291617074709e-13
2.5142907336965003e-13
6.2917495336795e-13
5.2299838921473e-13
4.335477076882601e-13
5.964883497489401e-13
3.7508878639771007e-13
4.997971054320201e-13
3.8617173767205004e-13
3.2865858497989004e-13
4.1575535574353003e-13
6.603701184960001e-13
3.0456788591922006e-13
2.9013985681186e-13
4.959217537099101e-13
3.5001432219160006e-13
5.7532338481112e-13
2.9996941549520004e-13
4.854295747229501e-13
6.658389565782901e-13
3.2834424990884006e-13
2.2621229482368005e-13
3.1179630955308e-13
3.5387792952644007e-13
3.7054785360208005e-13
3.1284570509797007e-13
2.8473181320485005e-13
4.820236037223201e-13
2.5762981377122e-13
3.5139660696558005e-13
3.6644629905961005e-13
5.232844982794e-13
4.4731578118491006e-13
3.7708434531031005e-13
5.127224451228e-13
3.8172091097371e-13
1.8532189127342003e-13
2.0961500830292002e-13
2.6248083786771e-13
4.4729051594843004e-13
8.4270301386304e-13
9.205663276165402e-13
4.783789946677501e-13
4.1338476597693004e-13
3.7849317832106003e-13
2.047026962695e-13
3.6103045875853e-13
1.5401895412101e-13
6.4424754208254004e-12
3.0408962288804003e-13
7.043780153663e-13
6.7790804161399e-13
5.3620302819941e-13
5.1151760915816e-13
3.4415722848309003e-13
3.0443504604304e-13
3.3571350749761005e-13
4.4862049378751004e-13
5.8326120891302e-13
3.377172578736e-13
2.2688271182137004e-13
1.5796635124402e-13
4.076812375339e-13
3.9933749187871006e-13
6.490289880863801e-13
7.486958061528001e-13
5.8403604239585e-13
7.470478416264601e-13
1.0536215504606e-12
8.630073816832601e-13
6.8286614688853e-13
4.996119586209401e-13
8.9409289963268e-13
5.223636988405e-13
3.7607245285082e-13
3.249622611444e-13
5.0665997267556e-13
4.8761264906255e-13
3.4981575322364007e-13
4.6456927300784e-13
7.108444355202301e-13
1.2666992778539e-12
8.4436528877723e-13
6.073170695812001e-13
8.201808320030601e-13
1.6123474513663e-12
7.278264247433301e-13
6.8177224110281e-13
9.294551510103201e-13
4.0581684072787e-13
2.7578268879744e-13
1.8406307060427002e-13
1.3577498607420001e-13
2.9637869245281005e-13
7.044505542288501e-13
5.099709029624001e-13
7.3857046655645e-13
5.260984139923601e-13
4.873537790809601e-13
4.7642745253433e-13
9.0340136281362e-13
4.7606090922071e-13
4.8807620693656e-13
3.8687807867786004e-13
3.9098950245333005e-13
3.5196694994065006e-13
2.3626095047962005e-13
1.8709795844410002e-13
6.869310865765701e-14
2.2086504569195e-13
1.9644747763432e-13
1.3703913612917002e-13
4.0777341617012004e-13
6.789172693805702e-13
3.6967284740430003e-13
6.793991840279601e-13
4.3880475203037e-13
5.891981447165001e-13
4.224544924116e-13
3.2524629767014e-13
2.1839171720982002e-13
2.1300104345289002e-13
3.5801678976965e-13
4.978246405246401e-13
2.7649889903625e-13
4.0262651246829004e-13
4.1113448216060004e-13
2.5334084249408007e-13
2.643059551264e-13
3.9255318372985006e-13
3.5928567705646e-13
1.6747456770088e-13
4.7642528130307e-13
5.5820993740446e-13
4.4736858158146005e-13
4.9338388044396e-13
3.5638037224592003e-13
3.1249130094094007e-13
3.4296611075232e-13
4.2695881035280003e-13
7.711108081424001e-13
3.0600257632043e-13
4.666242447031e-13
4.769439094972201e-13
7.155220571929101e-13
5.6466846217199e-13
5.3121610476451e-13
5.8456296074572e-13
4.1880702127946006e-13
2.8703440395608004e-11
2.3567155988486e-11
2.6721530632247e-11
3.279111879648e-11
2.9987891462859e-11
3.3214883923034007e-11
4.305254524666701e-11
3.7482498179962006e-11
2.7635855854299004e-11
2.4616827871900005e-11
2.079901377818e-11
1.3694458887703001e-11
2.0309746552205e-11
2.4561500951702e-11
1.3184308364700002e-11
1.6106598125233e-11
1.1984061593405001e-11
1.0385867609084e-11
1.1964520512065e-11
1.1222048244242e-11
1.2614014735795002e-11
1.3021377197103001e-11
1.9069026056377e-11
2.0118984147548005e-11
1.8944959928334e-11
1.9478944649032002e-11
1.6986459985649e-11
1.7910999863856e-11
1.9802428499073004e-11
2.0985058689463002e-11
5.282828700245801e-13
2.4327748168097e-13
5.179560993827001e-13
3.4860154148765e-13
2.2046080190827001e-13
2.8972554641052003e-13
6.092839090257701e-13
6.4917623704274e-13
4.2988464316798003e-13
9.033335611829101e-13
9.6865663271729e-13
3.9064141460542e-13
3.695850112306e-13
6.721993811698001e-13
4.2299769499592004e-13
3.2172209325817005e-13
6.268767050792401e-13
3.9192155281785e-13
4.3404788041670004e-13
2.0988562267178003e-13
3.2482014418920004e-13
2.9191286452031004e-13
3.1857538700845e-13
2.3883928760087e-13
3.3117010739373007e-13
2.5699522208932e-13
3.6820894407341005e-13
6.282526735441e-13
4.0526801268074004e-13
4.871441565720401e-13
2.1665226489357002e-13
2.3862423701380003e-13
4.0521067243701004e-13
5.070703353837001e-13
2.2716753788575003e-13
2.0368833650176e-13
3.8084363485234006e-13
1.9046701851331e-12
6.081247676099201e-13
6.2768035672243e-13
6.2505484466744e-13
6.7214283046471e-13
4.0209416604027005e-13
6.145324658275e-13
4.2171321432097003e-13
1.6609326985020002e-13
3.5271464303273e-13
3.7935081466876e-13
7.157513194755e-13
6.3564107744489e-13
4.617006817440601e-13
1.3001145269453002e-12
3.8382424191067e-13
2.1075904979228003e-13
1.8964066763422e-13
3.5679685387852004e-13
1.3776778160156e-12
7.188961505709501e-13
7.021274354729801e-13
4.665196308333e-13
5.3908504162007e-13
2.5445132859124e-13
2.9244017763950003e-13
5.740480825228601e-13
3.4938012527902e-13
3.9262147882221005e-13
4.1712036935976005e-13
3.8275165366823e-13
5.8912846793152e-13
2.2946420709718003e-13
2.2153556138197003e-13
3.9723544394204e-13
6.834924484147101e-13
6.000760133291001e-13
4.5418565558388e-13
4.5251844605319004e-13
2.9825443887679003e-13
3.6361698734317006e-13
3.7021910945085005e-13
3.2452831096939004e-13
3.3960761076242e-13
1.7580469381453e-13
3.2655851088982e-13
3.5162192155497003e-13
2.2770402939163004e-13
2.6860706556013006e-13
2.5794760307382e-13
2.4071246802427003e-13
5.742447763365501e-12
4.696422561545e-12
3.2724363304468e-13
5.7714277791467e-13
4.1855683622291005e-13
2.8266401150669e-13
2.0088794163801003e-13
3.9307112107769003e-13
2.7812495386533004e-13
6.426608654931301e-13
5.866286899049501e-13
4.2178713487614e-13
3.0873901855434e-13
9.286813044507902e-14
1.9869776145065e-13
2.4894735603947007e-13
3.1337153783221004e-13
4.7565409943645e-13
4.5269599355486004e-13
3.0611488819197004e-13
3.4539522507061004e-13
4.1435935273568005e-13
4.5155135991152004e-13
6.173617775439401e-13
5.323555077143601e-13
6.209914840566801e-13
2.5300538726441005e-13
3.5240336742391004e-13
3.5234109256368004e-13
2.6356546657441004e-13
9.729935684668101e-13
7.050998510679201e-13
4.1001817321597005e-13
5.391669562539701e-13
5.465026584505401e-13
8.176420705061401e-13
4.849032485270601e-13
3.8799221639123003e-13
5.4511839982996e-13
6.017642443260801e-13
4.5088844353091005e-13
7.6427794336718e-13
6.4130996488009e-13
2.1497567959153002e-13
1.8758697893925002e-13
3.9267131844886005e-13
2.1553644941059002e-13
2.7914000447938003e-13
4.2554889172642e-13
6.635912387625401e-13
5.4693009493177e-13
4.4756557147214007e-13
4.8543608841673e-13
4.0596408968423004e-13
1.894458489748e-13
2.6661525695607e-13
2.3513980561082005e-13
5.921201285308101e-13
2.6716852615805005e-13
2.1279556602183003e-13
1.1821229118138e-13
2.3876576181502e-13
1.4147259297743003e-13
1.4042349350953e-13
1.0934241671496001e-13
3.3139571806011005e-13
6.840165046870101e-13
3.2484383034840004e-13
1.0118855510269e-12
4.8205735649918e-13
2.5585927337102e-13
1.8095386743995002e-13
3.2568261646107005e-13
1.9273457348739e-13
2.5124066971168004e-13
2.3645951944758e-13
2.3414863854063e-13
3.4044402825917003e-13
4.3078807275680005e-13
4.5300578877873e-13
3.1243761231342005e-13
2.7782354748951e-13
2.9135071300863e-13
3.6514869230477003e-13
2.2160148785841001e-13
3.2809791385316004e-13
2.8693877108831e-13
2.0201895573981004e-13
2.6996842756015e-13
1.3863153687372e-13
3.2309885126167005e-13
5.3550408911835e-13
3.245191325827e-13
2.5468424249004e-13
5.2646298345938e-13
4.2195570137578003e-13
4.9549086299713e-13
6.543725856019001e-13
4.6716172313228e-13
4.300174830441601e-13
6.344186742455101e-13
4.5798718544315e-13
4.023273760160601e-13
2.3840583088751002e-11
3.2112796543157006e-11
4.1350901962040005e-11
4.1887936275735004e-11
4.9987290114146006e-11
3.3245103514480006e-11
2.8218989355337002e-11
3.5136620972794e-11
3.9086880173374e-11
3.2458930282933e-11
1.6642536954065004e-11
1.7147032406559002e-11
1.6645063477713e-11
1.9114888382128e-11
1.6737380283195004e-11
1.3117266664931e-11
1.3077237055883002e-11
9.265512278924e-12
1.6347831787452002e-11
1.9260726038169e-11
1.7933403022766e-11
2.2419117459761004e-11
2.6759773910122e-11
1.8082744256522002e-11
1.6998145157521e-11
2.3303144136503004e-11
1.5665640794793e-11
3.1781525868279e-13
5.313975999593801e-13
6.278619506096301e-13
3.3998925400253005e-13
3.9711059814459007e-13
4.5259424176263004e-13
4.979145492372701e-13
3.5054795161991e-13
6.022481328200701e-13
4.626811900426101e-12