/*--------------------------------*- C++ -*----------------------------------*\
  =========                 |
  \\      /  F ield         | OpenFOAM: The Open Source CFD Toolbox
   \\    /   O peration     | Website:  https://openfoam.org
    \\  /    A nd           | Version:  9
     \\/     M anipulation  |
\*---------------------------------------------------------------------------*/
FoamFile
{
    format      ascii;
    class       volScalarField;
    location    "10950";
    object      Fb;
}
// * * * * * * * * * * * * * * * * * * * * * * * * * * * * * * * * * * * * * //

dimensions      [0 0 0 0 0 0 0];

internalField   nonuniform List<scalar> 
1000
(
0.805006
0.805459
0.805032
0.805437
0.805173
0.805414
0.805336
0.805464
0.805457
0.805543
0.805563
0.805639
0.805736
0.80611
0.808469
0.825293
0.832968
0.83445
0.835053
0.835395
0.83563
0.835794
0.835938
0.836033
0.83614
0.836201
0.836257
0.836293
0.836286
0.836272
0.836235
0.836209
0.836125
0.836079
0.835999
0.835882
0.835704
0.835422
0.835065
0.834616
0.834074
0.833476
0.832806
0.832102
0.831385
0.83067
0.829974
0.829317
0.828717
0.828183
0.82772
0.827321
0.826974
0.826662
0.826364
0.826061
0.825735
0.825372
0.824963
0.824502
0.823989
0.823427
0.822821
0.822177
0.821506
0.820813
0.820107
0.819395
0.818681
0.81797
0.817264
0.816565
0.815873
0.815188
0.814508
0.813834
0.813164
0.812497
0.811831
0.811166
0.810501
0.809835
0.809168
0.808499
0.807828
0.807155
0.806479
0.8058
0.805119
0.804435
0.803747
0.803057
0.802364
0.801669
0.80097
0.80027
0.799567
0.798861
0.798154
0.797444
0.796733
0.79602
0.795305
0.794588
0.79387
0.79315
0.792428
0.791704
0.790978
0.790251
0.789521
0.78879
0.788056
0.787321
0.786583
0.785844
0.785102
0.784359
0.783613
0.782866
0.782116
0.781364
0.78061
0.779855
0.779097
0.778337
0.777575
0.776812
0.776046
0.775278
0.774509
0.773738
0.772965
0.77219
0.771413
0.770635
0.769855
0.769074
0.768292
0.767509
0.766725
0.76594
0.765154
0.764367
0.763578
0.762789
0.761997
0.761204
0.760409
0.759611
0.758812
0.758011
0.757208
0.756403
0.755596
0.754787
0.753974
0.753158
0.752337
0.75151
0.750676
0.749833
0.748981
0.748119
0.747247
0.746363
0.745468
0.744563
0.743647
0.742723
0.741791
0.740853
0.739911
0.738967
0.738024
0.737085
0.736152
0.735229
0.734318
0.733422
0.732543
0.731684
0.730846
0.730029
0.729234
0.728461
0.727706
0.726969
0.726246
0.725535
0.724831
0.724131
0.723432
0.722729
0.722019
0.721301
0.720572
0.71983
0.719074
0.718305
0.717521
0.716723
0.715913
0.715091
0.714258
0.713416
0.712565
0.711708
0.710845
0.709978
0.709108
0.708236
0.707361
0.706486
0.705611
0.704735
0.703859
0.702984
0.702109
0.701234
0.70036
0.699486
0.698611
0.697737
0.696862
0.695986
0.695109
0.694231
0.693353
0.692472
0.69159
0.690707
0.689822
0.688935
0.688046
0.687154
0.686261
0.685366
0.684468
0.683568
0.682666
0.681762
0.680855
0.679946
0.679035
0.678122
0.677206
0.676288
0.675367
0.674444
0.673519
0.672591
0.671661
0.670729
0.669794
0.668857
0.667918
0.666976
0.666032
0.665086
0.664137
0.663185
0.662232
0.661275
0.660317
0.659356
0.658392
0.657426
0.656458
0.655487
0.654513
0.653537
0.652559
0.651577
0.650594
0.649607
0.648618
0.647626
0.646632
0.645634
0.644635
0.643632
0.642626
0.641618
0.640607
0.639593
0.638577
0.637557
0.636535
0.63551
0.634482
0.633452
0.632418
0.631382
0.630343
0.629302
0.628257
0.627209
0.626159
0.625105
0.624049
0.62299
0.621927
0.620862
0.619793
0.618721
0.617645
0.616566
0.615484
0.614398
0.613308
0.612215
0.611117
0.610015
0.608908
0.607797
0.60668
0.605558
0.604431
0.603298
0.602158
0.601012
0.59986
0.598701
0.597534
0.596361
0.59518
0.593993
0.592797
0.591596
0.590387
0.589173
0.58795
0.586726
0.585491
0.584258
0.583014
0.581773
0.580523
0.579278
0.578025
0.576779
0.575526
0.57428
0.573032
0.571787
0.570546
0.569306
0.568072
0.566838
0.565611
0.564384
0.563162
0.561941
0.560721
0.559503
0.558284
0.557065
0.555843
0.554618
0.55339
0.552155
0.550915
0.549666
0.54841
0.547146
0.545871
0.544587
0.543292
0.541987
0.540671
0.539343
0.538005
0.536655
0.535294
0.533922
0.53254
0.531148
0.529745
0.528332
0.526909
0.525477
0.524035
0.522584
0.521123
0.519654
0.518176
0.51669
0.515194
0.51369
0.512177
0.510656
0.509126
0.507588
0.506041
0.504486
0.502922
0.50135
0.49977
0.498183
0.496588
0.494987
0.49338
0.491767
0.490151
0.488532
0.486912
0.485295
0.483682
0.482078
0.480485
0.478909
0.477355
0.475828
0.474338
0.47289
0.471492
0.470152
0.468876
0.467675
0.466552
0.465515
0.464566
0.463706
0.462936
0.462249
0.46164
0.461091
0.460582
0.460069
0.459488
0.458723
0.457579
0.455717
0.452551
0.447098
0.437799
0.422424
0.398445
0.364458
0.322611
0.279617
0.243297
0.217539
0.201512
0.192348
0.187363
0.184724
0.183347
0.182634
0.182267
0.182078
0.181981
0.181931
0.181906
0.181892
0.181886
0.181882
0.18188
0.181879
0.181878
0.181878
0.181877
0.181877
0.181876
0.181876
0.181875
0.181875
0.181874
0.181873
0.181872
0.181871
0.18187
0.181869
0.181868
0.181867
0.181866
0.181865
0.181863
0.181862
0.181861
0.181859
0.181858
0.181857
0.181855
0.181853
0.181852
0.18185
0.181848
0.181846
0.181844
0.181842
0.18184
0.181838
0.181836
0.181833
0.181831
0.181828
0.181825
0.181822
0.181818
0.181815
0.181811
0.181807
0.181803
0.181798
0.181793
0.181788
0.181782
0.181776
0.181769
0.181763
0.181755
0.181747
0.181739
0.18173
0.18172
0.18171
0.1817
0.181689
0.181677
0.181665
0.181653
0.18164
0.181626
0.181613
0.181599
0.181585
0.18157
0.181556
0.181541
0.181527
0.181513
0.181499
0.181485
0.181472
0.181459
0.181447
0.181435
0.181425
0.181415
0.181407
0.1814
0.181394
0.181389
0.181385
0.181383
0.181383
0.181382
0.181382
0.181384
0.181389
0.181395
0.181402
0.181411
0.18142
0.181431
0.181442
0.181454
0.181467
0.18148
0.181493
0.181507
0.181521
0.181535
0.181548
0.181562
0.181575
0.181588
0.1816
0.181612
0.181623
0.181633
0.181643
0.181653
0.181661
0.181669
0.181677
0.181683
0.18169
0.181695
0.1817
0.181705
0.181709
0.181713
0.181716
0.18172
0.181723
0.181725
0.181728
0.18173
0.181733
0.181735
0.181737
0.181739
0.181741
0.181743
0.181746
0.181748
0.18175
0.181752
0.181755
0.181757
0.18176
0.181762
0.181765
0.181768
0.18177
0.181773
0.181776
0.181779
0.181782
0.181785
0.181788
0.181791
0.181794
0.181797
0.1818
0.181803
0.181806
0.181809
0.181812
0.181814
0.181817
0.18182
0.181822
0.181825
0.181827
0.18183
0.181832
0.181834
0.181837
0.181839
0.181841
0.181843
0.181844
0.181846
0.181848
0.181849
0.181851
0.181852
0.181853
0.181855
0.181856
0.181857
0.181858
0.181858
0.181859
0.18186
0.181861
0.181861
0.181861
0.181862
0.181862
0.181862
0.181862
0.181862
0.181862
0.181862
0.181862
0.181862
0.181862
0.181861
0.181861
0.18186
0.18186
0.181859
0.181858
0.181858
0.181857
0.181856
0.181855
0.181855
0.181854
0.181853
0.181852
0.181852
0.181851
0.18185
0.181849
0.181848
0.181848
0.181847
0.181846
0.181845
0.181844
0.181843
0.181842
0.18184
0.181839
0.181838
0.181836
0.181835
0.181833
0.181831
0.181829
0.181828
0.181825
0.181823
0.181821
0.181819
0.181816
0.181813
0.181811
0.181808
0.181805
0.181801
0.181798
0.181794
0.18179
0.181786
0.181782
0.181777
0.181772
0.181767
0.181762
0.181756
0.18175
0.181743
0.181737
0.18173
0.181722
0.181714
0.181706
0.181697
0.181688
0.181679
0.181669
0.181659
0.181649
0.181638
0.181627
0.181616
0.181605
0.181593
0.181582
0.18157
0.181559
0.181547
0.181536
0.181525
0.181514
0.181503
0.181493
0.181484
0.181474
0.181466
0.181458
0.181451
0.181445
0.181439
0.181435
0.181431
0.181429
0.181427
0.181427
0.181427
0.181427
0.181428
0.181431
0.181436
0.181441
0.181448
0.181455
0.181463
0.181472
0.181481
0.181491
0.181502
0.181513
0.181524
0.181535
0.181546
0.181558
0.181569
0.18158
0.181592
0.181602
0.181613
0.181623
0.181633
0.181642
0.181651
0.181659
0.181667
0.181674
0.181681
0.181688
0.181694
0.181699
0.181704
0.181709
0.181713
0.181717
0.181721
0.181724
0.181728
0.18173
0.181733
0.181736
0.181738
0.18174
0.181743
0.181745
0.181747
0.181749
0.181751
0.181753
0.181755
0.181757
0.181759
0.181761
0.181763
0.181765
0.181767
0.181769
0.181771
0.181774
0.181776
0.181778
0.181781
0.181783
0.181785
0.181788
0.18179
0.181793
0.181795
0.181798
0.1818
0.181803
0.181805
0.181807
0.18181
0.181812
0.181815
0.181817
0.181819
0.181821
0.181823
0.181825
0.181828
0.181829
0.181831
0.181833
0.181835
0.181837
0.181838
0.18184
0.181841
0.181842
0.181844
0.181845
0.181846
0.181847
0.181848
0.181849
0.181849
0.18185
0.181851
0.181851
0.181852
0.181852
0.181852
0.181853
0.181853
0.181853
0.181853
0.181853
0.181853
0.181853
0.181852
0.181852
0.181852
0.181852
0.181851
0.181851
0.18185
0.18185
0.181849
0.181849
0.181848
0.181847
0.181847
0.181846
0.181845
0.181844
0.181843
0.181842
0.181841
0.18184
0.181839
0.181838
0.181837
0.181836
0.181834
0.181833
0.181832
0.18183
0.181829
0.181827
0.181825
0.181824
0.181822
0.18182
0.181818
0.181816
0.181813
0.181811
0.181808
0.181806
0.181803
0.1818
0.181797
0.181794
0.18179
0.181787
0.181783
0.181779
0.181775
0.18177
0.181765
0.18176
0.181755
0.18175
0.181744
0.181738
0.181732
0.181725
0.181718
0.181711
0.181703
0.181695
0.181687
0.181679
0.18167
0.181662
0.181652
0.181643
0.181634
0.181624
0.181614
0.181604
0.181594
0.181584
0.181574
0.181564
0.181554
0.181545
0.181535
0.181526
0.181517
0.181508
0.1815
0.181492
0.181484
0.181477
0.181471
0.181465
0.18146
0.181456
0.181452
0.181449
0.181447
0.181446
0.181446
0.181446
0.181446
0.181446
0.181449
0.181452
0.181457
0.181461
0.181468
0.181474
0.181482
0.181488
0.181497
0.181504
0.181514
0.181522
0.181532
0.181541
0.181551
0.181559
0.18157
0.181578
0.181589
0.181597
0.181606
0.181614
0.181623
0.181631
0.181639
0.181646
0.181653
0.181659
0.181665
0.181672
0.181676
0.181683
)
;

boundaryField
{
    inlet
    {
        type            calculated;
        value           uniform 0.805169;
    }
    outlet
    {
        type            calculated;
        value           uniform 0.181684;
    }
    emptyWalls
    {
        type            empty;
    }
}


// ************************************************************************* //
