/*--------------------------------*- C++ -*----------------------------------*\
  =========                 |
  \\      /  F ield         | OpenFOAM: The Open Source CFD Toolbox
   \\    /   O peration     | Website:  https://openfoam.org
    \\  /    A nd           | Version:  9
     \\/     M anipulation  |
\*---------------------------------------------------------------------------*/
FoamFile
{
    format      ascii;
    class       volScalarField;
    location    "10950";
    object      Sa;
}
// * * * * * * * * * * * * * * * * * * * * * * * * * * * * * * * * * * * * * //

dimensions      [0 0 0 0 0 0 0];

internalField   nonuniform List<scalar> 
1000
(
0.549065
0.546493
0.54386
0.540885
0.538332
0.535556
0.533052
0.530587
0.528409
0.526433
0.524725
0.52297
0.519889
0.510301
0.470107
0.258342
0.0996783
0.0681638
0.056615
0.0502206
0.045867
0.0425921
0.0399754
0.0378335
0.0360334
0.0345155
0.0332122
0.0320849
0.0310955
0.0302159
0.0294252
0.0287056
0.0280523
0.0274285
0.0268508
0.0263292
0.0258613
0.0254463
0.0250779
0.0247609
0.0245087
0.0243379
0.0242519
0.0242009
0.0241446
0.0240831
0.0240167
0.0239449
0.0238668
0.0237821
0.0236908
0.0235939
0.0234925
0.0233886
0.0232839
0.0231804
0.0230797
0.0229831
0.0228914
0.0228051
0.0227243
0.0226486
0.0225775
0.0225104
0.0224464
0.022385
0.0223253
0.0222667
0.0222089
0.0221514
0.0220939
0.0220364
0.0219788
0.0219211
0.0218634
0.0218057
0.0217482
0.0216909
0.0216339
0.0215773
0.0215212
0.0214655
0.0214105
0.021356
0.0213021
0.0212488
0.0211961
0.021144
0.0210926
0.0210418
0.0209916
0.020942
0.020893
0.0208446
0.0207967
0.0207493
0.0207025
0.0206562
0.0206103
0.0205649
0.02052
0.0204755
0.0204314
0.0203877
0.0203445
0.0203017
0.0202592
0.0202172
0.0201756
0.0201343
0.0200935
0.020053
0.020013
0.0199733
0.0199341
0.0198951
0.0198566
0.0198184
0.0197806
0.0197431
0.0197061
0.0196693
0.0196329
0.0195968
0.0195611
0.0195257
0.0194907
0.0194559
0.0194215
0.0193874
0.0193535
0.01932
0.0192868
0.0192538
0.0192212
0.0191887
0.0191566
0.0191246
0.0190929
0.0190614
0.0190301
0.018999
0.018968
0.0189373
0.0189067
0.0188764
0.0188463
0.0188165
0.0187869
0.0187576
0.0187285
0.0186997
0.0186711
0.0186427
0.0186146
0.0185867
0.0185592
0.0185321
0.0185054
0.0184793
0.0184538
0.0184291
0.0184051
0.0183821
0.01836
0.0183388
0.0183185
0.0182992
0.0182807
0.018263
0.0182459
0.0182294
0.0182132
0.0181971
0.0181811
0.0181647
0.0181479
0.0181303
0.0181118
0.0180921
0.0180711
0.0180485
0.0180242
0.0179983
0.0179706
0.0179413
0.0179104
0.0178782
0.0178448
0.0178105
0.0177757
0.0177405
0.0177053
0.0176704
0.017636
0.0176023
0.0175695
0.0175377
0.017507
0.0174774
0.017449
0.0174216
0.0173952
0.0173698
0.0173453
0.0173214
0.0172982
0.0172756
0.0172533
0.0172314
0.0172097
0.0171882
0.0171668
0.0171454
0.017124
0.0171027
0.0170812
0.0170598
0.0170382
0.0170166
0.0169949
0.0169732
0.0169515
0.0169297
0.0169079
0.0168862
0.0168644
0.0168427
0.016821
0.0167994
0.0167779
0.0167564
0.016735
0.0167137
0.0166925
0.0166714
0.0166504
0.0166295
0.0166087
0.0165881
0.0165675
0.0165471
0.0165267
0.0165065
0.0164864
0.0164663
0.0164464
0.0164266
0.0164069
0.0163873
0.0163678
0.0163484
0.0163291
0.0163099
0.0162908
0.0162718
0.0162529
0.0162341
0.0162153
0.0161967
0.0161781
0.0161597
0.0161413
0.016123
0.0161048
0.0160866
0.0160686
0.0160506
0.0160327
0.0160149
0.0159972
0.0159796
0.015962
0.0159445
0.0159271
0.0159098
0.0158926
0.0158754
0.0158583
0.0158413
0.0158244
0.0158076
0.0157908
0.0157741
0.0157575
0.0157409
0.0157244
0.015708
0.0156917
0.0156754
0.0156592
0.015643
0.0156269
0.0156109
0.0155949
0.0155789
0.0155631
0.0155472
0.0155314
0.0155157
0.0155
0.0154843
0.0154688
0.0154532
0.0154378
0.0154224
0.015407
0.0153917
0.0153765
0.0153614
0.0153464
0.0153315
0.0153166
0.015302
0.0152874
0.015273
0.0152588
0.0152448
0.015231
0.0152175
0.0152042
0.0151912
0.0151785
0.015166
0.015154
0.0151422
0.0151308
0.0151196
0.0151089
0.0150983
0.0150882
0.0150781
0.0150685
0.0150587
0.0150495
0.0150399
0.0150308
0.0150211
0.0150119
0.0150019
0.0149923
0.0149818
0.0149714
0.0149602
0.0149487
0.0149365
0.0149237
0.0149103
0.0148961
0.0148814
0.0148658
0.0148496
0.0148327
0.0148151
0.014797
0.0147783
0.0147592
0.0147396
0.0147198
0.0146998
0.0146795
0.0146593
0.014639
0.0146188
0.0145988
0.014579
0.0145596
0.0145403
0.0145215
0.014503
0.0144849
0.0144671
0.0144497
0.0144327
0.014416
0.0143996
0.0143836
0.0143678
0.0143522
0.0143369
0.0143217
0.0143067
0.0142917
0.0142769
0.0142622
0.0142475
0.0142328
0.0142181
0.0142035
0.0141888
0.0141741
0.0141594
0.0141446
0.0141298
0.0141149
0.0141
0.0140851
0.0140701
0.014055
0.01404
0.0140249
0.0140099
0.0139948
0.0139797
0.0139647
0.0139497
0.0139348
0.01392
0.0139053
0.0138908
0.0138764
0.0138623
0.0138484
0.0138349
0.0138218
0.0138091
0.0137968
0.0137852
0.0137741
0.0137637
0.013754
0.013745
0.0137369
0.0137294
0.0137227
0.0137167
0.0137113
0.0137065
0.013702
0.0136975
0.0136925
0.0136862
0.013677
0.0136624
0.0136382
0.0135975
0.0135302
0.0134246
0.0132724
0.0130811
0.0128825
0.012719
0.0126122
0.012554
0.0125254
0.0125118
0.0125052
0.0125019
0.0125002
0.0124994
0.0124989
0.0124986
0.0124984
0.0124983
0.0124983
0.0124983
0.0124983
0.0124983
0.0124983
0.0124984
0.0124984
0.0124985
0.0124986
0.0124987
0.0124988
0.012499
0.0124991
0.0124993
0.0124995
0.0124997
0.0124999
0.0125001
0.0125004
0.0125006
0.0125009
0.0125012
0.0125015
0.0125018
0.0125021
0.0125024
0.0125028
0.0125031
0.0125035
0.0125039
0.0125043
0.0125047
0.0125051
0.0125056
0.012506
0.0125065
0.012507
0.0125075
0.012508
0.0125085
0.0125091
0.0125097
0.0125103
0.012511
0.0125117
0.0125124
0.0125132
0.012514
0.0125148
0.0125158
0.0125168
0.0125178
0.012519
0.0125202
0.0125216
0.012523
0.0125245
0.0125261
0.0125279
0.0125297
0.0125317
0.0125338
0.0125361
0.0125385
0.012541
0.0125436
0.0125464
0.0125493
0.0125523
0.0125554
0.0125586
0.0125619
0.0125653
0.0125687
0.0125722
0.0125757
0.0125793
0.0125828
0.0125862
0.0125897
0.012593
0.0125962
0.0125993
0.0126023
0.012605
0.0126076
0.0126099
0.0126119
0.0126137
0.0126151
0.0126162
0.012617
0.0126174
0.0126176
0.0126176
0.0126175
0.012617
0.0126157
0.0126142
0.0126123
0.0126101
0.0126076
0.0126049
0.0126021
0.012599
0.0125958
0.0125924
0.012589
0.0125855
0.012582
0.0125785
0.012575
0.0125716
0.0125682
0.012565
0.0125619
0.0125589
0.0125561
0.0125534
0.0125509
0.0125486
0.0125464
0.0125444
0.0125426
0.0125409
0.0125393
0.0125379
0.0125367
0.0125355
0.0125345
0.0125335
0.0125327
0.0125319
0.0125312
0.0125306
0.01253
0.0125294
0.0125289
0.0125283
0.0125278
0.0125273
0.0125268
0.0125263
0.0125258
0.0125253
0.0125248
0.0125242
0.0125237
0.0125231
0.0125225
0.0125218
0.0125212
0.0125205
0.0125198
0.0125192
0.0125185
0.0125177
0.012517
0.0125163
0.0125155
0.0125148
0.012514
0.0125133
0.0125125
0.0125118
0.0125111
0.0125103
0.0125096
0.0125089
0.0125082
0.0125075
0.0125069
0.0125062
0.0125056
0.012505
0.0125044
0.0125038
0.0125032
0.0125027
0.0125022
0.0125017
0.0125013
0.0125008
0.0125004
0.0125
0.0124996
0.0124993
0.0124989
0.0124986
0.0124984
0.0124981
0.0124978
0.0124976
0.0124974
0.0124973
0.0124971
0.012497
0.0124968
0.0124967
0.0124966
0.0124966
0.0124965
0.0124965
0.0124965
0.0124965
0.0124965
0.0124965
0.0124965
0.0124966
0.0124967
0.0124968
0.0124969
0.012497
0.0124972
0.0124973
0.0124975
0.0124976
0.0124978
0.012498
0.0124982
0.0124985
0.0124987
0.012499
0.0124992
0.0124995
0.0124998
0.0125001
0.0125004
0.0125007
0.0125011
0.0125014
0.0125018
0.0125022
0.0125025
0.0125029
0.0125033
0.0125038
0.0125042
0.0125046
0.0125051
0.0125056
0.0125061
0.0125066
0.0125071
0.0125077
0.0125083
0.0125089
0.0125095
0.0125102
0.0125109
0.0125116
0.0125124
0.0125132
0.012514
0.0125149
0.0125159
0.0125169
0.012518
0.0125191
0.0125203
0.0125216
0.012523
0.0125244
0.0125259
0.0125276
0.0125293
0.0125311
0.0125329
0.0125349
0.012537
0.0125392
0.0125415
0.0125438
0.0125463
0.0125488
0.0125514
0.0125541
0.0125568
0.0125596
0.0125625
0.0125654
0.0125683
0.0125712
0.0125741
0.012577
0.0125798
0.0125826
0.0125854
0.012588
0.0125906
0.012593
0.0125953
0.0125974
0.0125994
0.0126012
0.0126028
0.0126041
0.0126052
0.0126061
0.0126068
0.0126071
0.0126073
0.0126073
0.0126072
0.0126069
0.0126061
0.0126049
0.0126035
0.0126019
0.0126
0.012598
0.0125957
0.0125933
0.0125908
0.0125881
0.0125854
0.0125825
0.0125797
0.0125768
0.0125739
0.012571
0.0125681
0.0125653
0.0125626
0.0125599
0.0125573
0.0125549
0.0125525
0.0125503
0.0125482
0.0125462
0.0125443
0.0125425
0.0125409
0.0125394
0.012538
0.0125367
0.0125355
0.0125344
0.0125334
0.0125325
0.0125316
0.0125308
0.0125301
0.0125294
0.0125288
0.0125282
0.0125276
0.012527
0.0125265
0.012526
0.0125255
0.012525
0.0125245
0.012524
0.0125235
0.012523
0.0125225
0.0125219
0.0125214
0.0125209
0.0125203
0.0125197
0.0125192
0.0125186
0.012518
0.0125174
0.0125168
0.0125162
0.0125156
0.0125149
0.0125143
0.0125137
0.0125131
0.0125124
0.0125118
0.0125112
0.0125106
0.01251
0.0125094
0.0125088
0.0125082
0.0125077
0.0125071
0.0125066
0.012506
0.0125055
0.012505
0.0125045
0.0125041
0.0125036
0.0125032
0.0125028
0.0125024
0.0125021
0.0125017
0.0125014
0.0125011
0.0125008
0.0125005
0.0125003
0.0125001
0.0124999
0.0124997
0.0124995
0.0124994
0.0124993
0.0124992
0.0124991
0.012499
0.012499
0.012499
0.012499
0.012499
0.012499
0.012499
0.012499
0.0124991
0.0124992
0.0124993
0.0124994
0.0124995
0.0124997
0.0124998
0.0125
0.0125001
0.0125003
0.0125005
0.0125007
0.0125009
0.0125012
0.0125014
0.0125017
0.0125019
0.0125022
0.0125025
0.0125028
0.0125031
0.0125034
0.0125038
0.0125041
0.0125045
0.0125049
0.0125052
0.0125056
0.0125061
0.0125065
0.012507
0.0125074
0.0125079
0.0125085
0.012509
0.0125096
0.0125102
0.0125108
0.0125115
0.0125122
0.0125129
0.0125137
0.0125145
0.0125153
0.0125162
0.0125172
0.0125182
0.0125193
0.0125204
0.0125216
0.0125228
0.0125241
0.0125255
0.012527
0.0125285
0.0125301
0.0125318
0.0125335
0.0125354
0.0125373
0.0125392
0.0125413
0.0125434
0.0125456
0.0125478
0.0125501
0.0125525
0.0125549
0.0125573
0.0125598
0.0125623
0.0125649
0.0125674
0.0125699
0.0125725
0.012575
0.0125774
0.0125799
0.0125822
0.0125845
0.0125867
0.0125888
0.0125908
0.0125927
0.0125945
0.0125961
0.0125975
0.0125988
0.0125999
0.0126008
0.0126015
0.012602
0.0126023
0.0126024
0.0126024
0.0126024
0.0126022
0.0126016
0.0126009
0.0125995
0.0125985
0.0125968
0.0125954
0.0125934
0.0125918
0.0125895
0.0125876
0.0125851
0.0125832
0.0125805
0.0125785
0.0125758
0.0125737
0.012571
0.0125689
0.0125663
0.0125642
0.0125618
0.0125598
0.0125575
0.0125557
0.0125536
0.0125518
0.01255
0.0125483
0.0125468
0.0125452
0.012544
0.0125424
)
;

boundaryField
{
    inlet
    {
        type            fixedValue;
        value           uniform 0.55;
    }
    outlet
    {
        type            zeroGradient;
    }
    emptyWalls
    {
        type            empty;
    }
}


// ************************************************************************* //
