/*--------------------------------*- C++ -*----------------------------------*\
  =========                 |
  \\      /  F ield         | OpenFOAM: The Open Source CFD Toolbox
   \\    /   O peration     | Website:  https://openfoam.org
    \\  /    A nd           | Version:  9
     \\/     M anipulation  |
\*---------------------------------------------------------------------------*/
FoamFile
{
    format      ascii;
    class       volScalarField;
    location    "10950";
    object      Sb;
}
// * * * * * * * * * * * * * * * * * * * * * * * * * * * * * * * * * * * * * //

dimensions      [0 0 0 0 0 0 0];

internalField   nonuniform List<scalar> 
1000
(
0.350409
0.35181
0.353008
0.354614
0.355833
0.357311
0.35857
0.359872
0.360995
0.362043
0.362938
0.363875
0.365518
0.370708
0.393552
0.531242
0.641521
0.662417
0.669633
0.673428
0.675885
0.677639
0.678963
0.679977
0.680771
0.681383
0.681857
0.682217
0.682483
0.682673
0.682794
0.682855
0.682852
0.682791
0.682658
0.682449
0.682153
0.681748
0.681207
0.680478
0.679492
0.678194
0.676578
0.674745
0.672801
0.670796
0.668762
0.666721
0.664685
0.662665
0.660664
0.658687
0.656733
0.654804
0.652898
0.651013
0.649149
0.647304
0.645477
0.643667
0.641875
0.6401
0.638342
0.636602
0.634879
0.633176
0.63149
0.629824
0.628176
0.626546
0.624936
0.623343
0.621769
0.620212
0.618672
0.617149
0.615642
0.61415
0.612675
0.611214
0.609767
0.608335
0.606917
0.605513
0.604121
0.602743
0.601378
0.600024
0.598684
0.597355
0.596037
0.594731
0.593437
0.592154
0.590881
0.589619
0.588368
0.587126
0.585895
0.584674
0.583463
0.582261
0.581069
0.579886
0.578712
0.577547
0.576391
0.575243
0.574104
0.572973
0.571851
0.570736
0.56963
0.568531
0.56744
0.566356
0.56528
0.564211
0.563149
0.562094
0.561046
0.560005
0.558971
0.557943
0.556922
0.555907
0.554899
0.553897
0.552901
0.551911
0.550927
0.549948
0.548976
0.548009
0.547048
0.546092
0.545142
0.544197
0.543258
0.542324
0.541395
0.540471
0.539552
0.538639
0.53773
0.536826
0.535926
0.535032
0.534142
0.533256
0.532375
0.531498
0.530626
0.529758
0.528894
0.528034
0.527179
0.526327
0.525479
0.524635
0.523794
0.522956
0.522122
0.521291
0.520463
0.519639
0.518817
0.517998
0.517182
0.516369
0.515558
0.514752
0.513948
0.513148
0.512351
0.511557
0.510768
0.509983
0.509201
0.508424
0.507651
0.506883
0.50612
0.505361
0.504606
0.503856
0.50311
0.502369
0.501631
0.500896
0.500165
0.499437
0.498712
0.497989
0.497269
0.49655
0.495834
0.495118
0.494405
0.493693
0.492982
0.492273
0.491566
0.49086
0.490155
0.489453
0.488752
0.488053
0.487356
0.486661
0.485967
0.485276
0.484587
0.4839
0.483215
0.482532
0.481851
0.481172
0.480495
0.479821
0.479148
0.478477
0.477808
0.477141
0.476476
0.475813
0.475151
0.474491
0.473833
0.473177
0.472522
0.471869
0.471217
0.470567
0.469918
0.469271
0.468626
0.467982
0.467339
0.466698
0.466058
0.46542
0.464783
0.464147
0.463512
0.462879
0.462247
0.461617
0.460987
0.460359
0.459732
0.459106
0.458482
0.457858
0.457236
0.456615
0.455995
0.455376
0.454758
0.454141
0.453525
0.45291
0.452297
0.451684
0.451072
0.450461
0.449851
0.449242
0.448633
0.448026
0.44742
0.446814
0.446209
0.445605
0.445002
0.444399
0.443798
0.443197
0.442596
0.441997
0.441398
0.4408
0.440202
0.439605
0.439009
0.438413
0.437818
0.437224
0.43663
0.436037
0.435444
0.434851
0.434259
0.433668
0.433077
0.432486
0.431896
0.431307
0.430717
0.430128
0.42954
0.428952
0.428364
0.427776
0.427189
0.426602
0.426015
0.425428
0.424842
0.424255
0.423669
0.423083
0.422497
0.421912
0.421326
0.42074
0.420154
0.419568
0.418982
0.418396
0.41781
0.417223
0.416636
0.416049
0.415462
0.414874
0.414286
0.413698
0.413109
0.41252
0.41193
0.411341
0.41075
0.41016
0.409568
0.408977
0.408385
0.407793
0.407201
0.406608
0.406015
0.405422
0.404829
0.404236
0.403642
0.403048
0.402454
0.40186
0.401266
0.400671
0.400077
0.399482
0.398887
0.398291
0.397695
0.397098
0.396501
0.395903
0.395304
0.394705
0.394105
0.393503
0.3929
0.392297
0.391691
0.391085
0.390477
0.389867
0.389256
0.388643
0.388029
0.387413
0.386795
0.386175
0.385553
0.38493
0.384305
0.383678
0.383049
0.382418
0.381785
0.38115
0.380513
0.379874
0.379233
0.37859
0.377945
0.377298
0.376649
0.375997
0.375343
0.374688
0.374029
0.373369
0.372707
0.372042
0.371376
0.370707
0.370036
0.369364
0.36869
0.368015
0.367339
0.366662
0.365986
0.365309
0.364634
0.363961
0.363292
0.362628
0.36197
0.36132
0.360681
0.360054
0.359443
0.358851
0.358281
0.357734
0.357215
0.356727
0.356272
0.355851
0.355467
0.355119
0.354807
0.35453
0.354283
0.354062
0.353856
0.353649
0.353415
0.353108
0.35265
0.351906
0.350646
0.348487
0.344835
0.338867
0.329709
0.316954
0.301437
0.285465
0.271728
0.261723
0.255338
0.251618
0.249571
0.248479
0.247908
0.247611
0.247458
0.24738
0.247339
0.247318
0.247308
0.247302
0.247299
0.247298
0.247297
0.247297
0.247296
0.247296
0.247296
0.247296
0.247296
0.247296
0.247296
0.247296
0.247296
0.247296
0.247296
0.247296
0.247296
0.247296
0.247296
0.247296
0.247296
0.247296
0.247295
0.247295
0.247295
0.247295
0.247295
0.247295
0.247295
0.247295
0.247295
0.247295
0.247295
0.247295
0.247294
0.247294
0.247294
0.247294
0.247294
0.247294
0.247293
0.247293
0.247293
0.247293
0.247292
0.247292
0.247292
0.247291
0.247291
0.247291
0.24729
0.24729
0.247289
0.247289
0.247288
0.247288
0.247287
0.247286
0.247286
0.247285
0.247284
0.247284
0.247283
0.247282
0.247281
0.24728
0.247279
0.247278
0.247277
0.247276
0.247275
0.247274
0.247274
0.247273
0.247272
0.247271
0.24727
0.247269
0.247268
0.247267
0.247266
0.247265
0.247264
0.247264
0.247263
0.247262
0.247262
0.247261
0.247261
0.247261
0.24726
0.24726
0.24726
0.24726
0.24726
0.24726
0.247261
0.247261
0.247261
0.247262
0.247262
0.247263
0.247263
0.247264
0.247265
0.247265
0.247266
0.247267
0.247268
0.247268
0.247269
0.24727
0.24727
0.247271
0.247272
0.247272
0.247273
0.247274
0.247274
0.247275
0.247275
0.247275
0.247276
0.247276
0.247277
0.247277
0.247277
0.247277
0.247278
0.247278
0.247278
0.247278
0.247279
0.247279
0.247279
0.247279
0.247279
0.24728
0.24728
0.24728
0.24728
0.24728
0.24728
0.247281
0.247281
0.247281
0.247281
0.247281
0.247282
0.247282
0.247282
0.247282
0.247282
0.247282
0.247283
0.247283
0.247283
0.247283
0.247283
0.247284
0.247284
0.247284
0.247284
0.247284
0.247284
0.247285
0.247285
0.247285
0.247285
0.247285
0.247285
0.247285
0.247286
0.247286
0.247286
0.247286
0.247286
0.247286
0.247286
0.247286
0.247286
0.247287
0.247287
0.247287
0.247287
0.247287
0.247287
0.247287
0.247287
0.247287
0.247287
0.247287
0.247287
0.247287
0.247287
0.247287
0.247287
0.247287
0.247287
0.247287
0.247287
0.247287
0.247287
0.247287
0.247287
0.247287
0.247287
0.247287
0.247287
0.247286
0.247286
0.247286
0.247286
0.247286
0.247286
0.247286
0.247286
0.247286
0.247286
0.247286
0.247286
0.247286
0.247286
0.247286
0.247286
0.247286
0.247287
0.247287
0.247287
0.247287
0.247287
0.247287
0.247287
0.247287
0.247287
0.247287
0.247287
0.247287
0.247287
0.247287
0.247287
0.247287
0.247287
0.247287
0.247286
0.247286
0.247286
0.247286
0.247286
0.247286
0.247285
0.247285
0.247285
0.247285
0.247284
0.247284
0.247284
0.247284
0.247283
0.247283
0.247283
0.247282
0.247282
0.247281
0.247281
0.247281
0.24728
0.24728
0.247279
0.247279
0.247278
0.247278
0.247277
0.247276
0.247276
0.247275
0.247275
0.247274
0.247273
0.247273
0.247272
0.247271
0.247271
0.24727
0.247269
0.247269
0.247268
0.247268
0.247267
0.247267
0.247266
0.247266
0.247265
0.247265
0.247265
0.247264
0.247264
0.247264
0.247264
0.247264
0.247264
0.247264
0.247264
0.247264
0.247264
0.247265
0.247265
0.247265
0.247266
0.247266
0.247267
0.247267
0.247268
0.247268
0.247269
0.247269
0.24727
0.247271
0.247271
0.247272
0.247272
0.247273
0.247274
0.247274
0.247275
0.247275
0.247276
0.247276
0.247277
0.247277
0.247277
0.247278
0.247278
0.247278
0.247279
0.247279
0.247279
0.247279
0.24728
0.24728
0.24728
0.24728
0.24728
0.24728
0.24728
0.247281
0.247281
0.247281
0.247281
0.247281
0.247281
0.247281
0.247281
0.247282
0.247282
0.247282
0.247282
0.247282
0.247282
0.247282
0.247282
0.247282
0.247283
0.247283
0.247283
0.247283
0.247283
0.247283
0.247283
0.247283
0.247284
0.247284
0.247284
0.247284
0.247284
0.247284
0.247284
0.247285
0.247285
0.247285
0.247285
0.247285
0.247285
0.247285
0.247285
0.247286
0.247286
0.247286
0.247286
0.247286
0.247286
0.247286
0.247286
0.247286
0.247286
0.247286
0.247286
0.247286
0.247286
0.247286
0.247287
0.247287
0.247287
0.247287
0.247287
0.247287
0.247287
0.247287
0.247287
0.247287
0.247287
0.247287
0.247287
0.247287
0.247287
0.247287
0.247287
0.247287
0.247287
0.247287
0.247287
0.247287
0.247287
0.247287
0.247287
0.247287
0.247287
0.247287
0.247286
0.247286
0.247286
0.247286
0.247286
0.247286
0.247286
0.247286
0.247286
0.247286
0.247286
0.247286
0.247286
0.247286
0.247286
0.247286
0.247286
0.247286
0.247286
0.247286
0.247286
0.247285
0.247285
0.247285
0.247285
0.247285
0.247285
0.247284
0.247284
0.247284
0.247284
0.247284
0.247283
0.247283
0.247283
0.247283
0.247282
0.247282
0.247282
0.247282
0.247281
0.247281
0.247281
0.24728
0.24728
0.247279
0.247279
0.247279
0.247278
0.247278
0.247277
0.247277
0.247276
0.247276
0.247275
0.247275
0.247274
0.247274
0.247273
0.247272
0.247272
0.247271
0.247271
0.24727
0.24727
0.247269
0.247269
0.247268
0.247268
0.247267
0.247267
0.247267
0.247266
0.247266
0.247266
0.247266
0.247265
0.247265
0.247265
0.247265
0.247265
0.247265
0.247265
0.247265
0.247265
0.247265
0.247266
0.247266
0.247266
0.247266
0.247267
0.247267
0.247268
0.247268
0.247269
0.247269
0.24727
0.24727
0.247271
0.247271
0.247272
0.247272
0.247273
0.247273
0.247274
0.247274
0.247275
0.247275
0.247275
0.247276
0.247276
0.247276
0.247277
0.247277
0.247277
0.247278
)
;

boundaryField
{
    inlet
    {
        type            fixedValue;
        value           uniform 0.35;
    }
    outlet
    {
        type            zeroGradient;
    }
    emptyWalls
    {
        type            empty;
    }
}


// ************************************************************************* //
