/*--------------------------------*- C++ -*----------------------------------*\
  =========                 |
  \\      /  F ield         | OpenFOAM: The Open Source CFD Toolbox
   \\    /   O peration     | Website:  https://openfoam.org
    \\  /    A nd           | Version:  9
     \\/     M anipulation  |
\*---------------------------------------------------------------------------*/
FoamFile
{
    format      ascii;
    class       volScalarField;
    location    "2200";
    object      kra;
}
// * * * * * * * * * * * * * * * * * * * * * * * * * * * * * * * * * * * * * //

dimensions      [0 0 0 0 0 0 0];

internalField   nonuniform List<scalar> 
100
(
3.98973e-05
2.91592e-05
3.15627e-05
3.00869e-05
3.00899e-05
2.96526e-05
2.94132e-05
2.91401e-05
2.89049e-05
2.86773e-05
2.8463e-05
2.8256e-05
2.80545e-05
2.78548e-05
2.76525e-05
2.74409e-05
2.73331e-05
2.74686e-05
2.75026e-05
2.75681e-05
2.7616e-05
2.76656e-05
2.77101e-05
2.77524e-05
2.77919e-05
2.78289e-05
2.78636e-05
2.7896e-05
2.79262e-05
2.79543e-05
2.79805e-05
2.80047e-05
2.8027e-05
2.80475e-05
2.80663e-05
2.80834e-05
2.80989e-05
2.81127e-05
2.81249e-05
2.81356e-05
2.81446e-05
2.8152e-05
2.81578e-05
2.8162e-05
2.81646e-05
2.81656e-05
2.81648e-05
2.81623e-05
2.81581e-05
2.8152e-05
2.81441e-05
2.81342e-05
2.81222e-05
2.81079e-05
2.80913e-05
2.80721e-05
2.80499e-05
2.80244e-05
2.79951e-05
2.79611e-05
2.79214e-05
2.78744e-05
2.78176e-05
2.77469e-05
2.76555e-05
2.75307e-05
2.73462e-05
2.70401e-05
2.64332e-05
2.48381e-05
1.90751e-05
5.66768e-06
9.18811e-08
2.68322e-12
4.31622e-22
3.31274e-35
3.04815e-35
3.04807e-35
3.04799e-35
3.223e-35
2.7944e-35
3.3122e-35
3.04764e-35
3.04755e-35
3.22253e-35
2.71198e-35
3.3117e-35
3.04716e-35
3.22206e-35
3.31079e-35
3.21633e-35
3.25594e-35
2.59751e-35
9.9024e-36
1.84887e-36
1.12387e-36
1.28172e-36
1.3169e-36
1.28135e-36
1.31689e-36
)
;

boundaryField
{
    inlet
    {
        type            calculated;
        value           uniform 1.14874e-05;
    }
    outlet
    {
        type            calculated;
        value           uniform 4.72742e-37;
    }
    emptyWalls
    {
        type            empty;
    }
}


// ************************************************************************* //
