/*--------------------------------*- C++ -*----------------------------------*\
  =========                 |
  \\      /  F ield         | OpenFOAM: The Open Source CFD Toolbox
   \\    /   O peration     | Website:  https://openfoam.org
    \\  /    A nd           | Version:  9
     \\/     M anipulation  |
\*---------------------------------------------------------------------------*/
FoamFile
{
    format      ascii;
    class       volScalarField;
    location    "2200";
    object      p;
}
// * * * * * * * * * * * * * * * * * * * * * * * * * * * * * * * * * * * * * //

dimensions      [0 0 0 0 0 0 0];

internalField   nonuniform List<scalar> 
100
(
5.78972e+06
5.78158e+06
5.77045e+06
5.76018e+06
5.74942e+06
5.73867e+06
5.72777e+06
5.7168e+06
5.70575e+06
5.69461e+06
5.68341e+06
5.67214e+06
5.6608e+06
5.6494e+06
5.63794e+06
5.62641e+06
5.61482e+06
5.60322e+06
5.5917e+06
5.58022e+06
5.56879e+06
5.55741e+06
5.54607e+06
5.53478e+06
5.52354e+06
5.51233e+06
5.50117e+06
5.49006e+06
5.47898e+06
5.46795e+06
5.45695e+06
5.446e+06
5.43508e+06
5.42421e+06
5.41337e+06
5.40258e+06
5.39182e+06
5.3811e+06
5.37043e+06
5.35979e+06
5.34918e+06
5.33862e+06
5.3281e+06
5.31761e+06
5.30717e+06
5.29676e+06
5.28639e+06
5.27606e+06
5.26577e+06
5.25552e+06
5.24531e+06
5.23515e+06
5.22502e+06
5.21494e+06
5.2049e+06
5.19491e+06
5.18496e+06
5.17506e+06
5.16521e+06
5.15541e+06
5.14567e+06
5.136e+06
5.12638e+06
5.11685e+06
5.1074e+06
5.09806e+06
5.08885e+06
5.07982e+06
5.07106e+06
5.06274e+06
5.05533e+06
5.0499e+06
5.047e+06
5.04493e+06
5.04293e+06
5.04092e+06
5.03892e+06
5.03692e+06
5.03491e+06
5.03291e+06
5.03091e+06
5.0289e+06
5.0269e+06
5.0249e+06
5.02289e+06
5.02089e+06
5.01889e+06
5.01688e+06
5.01488e+06
5.01288e+06
5.01088e+06
5.00887e+06
5.00687e+06
5.0049e+06
5.00333e+06
5.00262e+06
5.00204e+06
5.00145e+06
5.00087e+06
5.00029e+06
)
;

boundaryField
{
    inlet
    {
        type            darcyGradPressure;
        gradient        uniform 4.05459e+06;
        Mf              Mf;
        phi             phi;
        value           uniform 5.79783e+06;
    }
    outlet
    {
        type            fixedValue;
        value           uniform 5e+06;
    }
    emptyWalls
    {
        type            empty;
    }
}


// ************************************************************************* //
