/*--------------------------------*- C++ -*----------------------------------*\
  =========                 |
  \\      /  F ield         | OpenFOAM: The Open Source CFD Toolbox
   \\    /   O peration     | Website:  https://openfoam.org
    \\  /    A nd           | Version:  9
     \\/     M anipulation  |
\*---------------------------------------------------------------------------*/
FoamFile
{
    format      ascii;
    class       surfaceScalarField;
    location    "2200";
    object      phia;
}
// * * * * * * * * * * * * * * * * * * * * * * * * * * * * * * * * * * * * * //

dimensions      [0 2 0 0 0 0 0];

internalField   nonuniform List<scalar> 
99
(
1.42001e-08
1.41868e-08
1.41721e-08
1.41564e-08
1.41399e-08
1.41227e-08
1.41048e-08
1.40862e-08
1.4067e-08
1.4047e-08
1.40263e-08
1.40047e-08
1.39821e-08
1.3958e-08
1.39319e-08
1.39029e-08
1.38675e-08
1.38363e-08
1.38043e-08
1.37729e-08
1.37411e-08
1.37091e-08
1.36768e-08
1.36439e-08
1.36106e-08
1.35768e-08
1.35425e-08
1.35075e-08
1.3472e-08
1.34358e-08
1.33991e-08
1.33617e-08
1.33237e-08
1.32851e-08
1.32459e-08
1.3206e-08
1.31655e-08
1.31243e-08
1.30825e-08
1.30399e-08
1.29965e-08
1.29523e-08
1.29073e-08
1.28614e-08
1.28145e-08
1.27667e-08
1.27177e-08
1.26676e-08
1.26163e-08
1.25635e-08
1.25093e-08
1.24533e-08
1.23955e-08
1.23356e-08
1.22733e-08
1.22081e-08
1.21396e-08
1.20671e-08
1.19896e-08
1.19061e-08
1.18147e-08
1.17129e-08
1.15971e-08
1.14614e-08
1.12961e-08
1.10845e-08
1.07942e-08
1.03568e-08
9.60373e-09
8.05058e-09
4.53167e-09
7.17564e-10
8.31933e-12
2.35021e-16
3.77984e-26
2.90106e-39
2.66934e-39
2.66927e-39
2.66919e-39
2.82244e-39
2.4471e-39
2.90055e-39
2.66887e-39
2.66878e-39
2.822e-39
2.3749e-39
2.90008e-39
2.66841e-39
2.82156e-39
2.89921e-39
2.81615e-39
2.84746e-39
2.24124e-39
6.80864e-40
5.69327e-41
2.87662e-41
3.25969e-41
3.34862e-41
3.25821e-41
)
;

boundaryField
{
    inlet
    {
        type            calculated;
        value           uniform -1.42126e-08;
    }
    outlet
    {
        type            calculated;
        value           uniform 1.20208e-41;
    }
    emptyWalls
    {
        type            empty;
        value           nonuniform List<scalar> 0();
    }
}


// ************************************************************************* //
