/*--------------------------------*- C++ -*----------------------------------*\
  =========                 |
  \\      /  F ield         | OpenFOAM: The Open Source CFD Toolbox
   \\    /   O peration     | Website:  https://openfoam.org
    \\  /    A nd           | Version:  9
     \\/     M anipulation  |
\*---------------------------------------------------------------------------*/
FoamFile
{
    format      ascii;
    class       surfaceScalarField;
    location    "2200";
    object      phib;
}
// * * * * * * * * * * * * * * * * * * * * * * * * * * * * * * * * * * * * * //

dimensions      [0 2 0 0 0 0 0];

internalField   nonuniform List<scalar> 
99
(
6.09067e-09
6.09009e-09
6.08946e-09
6.08879e-09
6.08809e-09
6.08736e-09
6.0866e-09
6.08581e-09
6.08499e-09
6.08415e-09
6.08328e-09
6.08237e-09
6.08142e-09
6.0804e-09
6.07931e-09
6.07808e-09
6.07998e-09
6.08063e-09
6.08178e-09
6.08275e-09
6.08383e-09
6.0849e-09
6.08603e-09
6.0872e-09
6.08842e-09
6.0897e-09
6.09105e-09
6.09248e-09
6.09399e-09
6.09557e-09
6.09724e-09
6.09898e-09
6.10077e-09
6.10261e-09
6.1045e-09
6.10641e-09
6.10836e-09
6.11034e-09
6.11236e-09
6.11443e-09
6.11655e-09
6.11873e-09
6.12098e-09
6.12331e-09
6.12573e-09
6.12825e-09
6.13088e-09
6.13363e-09
6.13651e-09
6.13953e-09
6.1427e-09
6.14604e-09
6.14956e-09
6.15329e-09
6.15725e-09
6.16146e-09
6.16598e-09
6.17086e-09
6.17618e-09
6.18204e-09
6.18862e-09
6.19615e-09
6.20499e-09
6.21577e-09
6.22951e-09
6.24817e-09
6.27583e-09
6.32237e-09
6.41754e-09
6.68136e-09
7.59225e-09
8.91056e-09
9.17875e-09
9.18261e-09
9.18307e-09
9.18328e-09
9.18342e-09
9.18356e-09
9.18371e-09
9.18386e-09
9.18401e-09
9.18417e-09
9.18433e-09
9.18449e-09
9.18465e-09
9.18482e-09
9.185e-09
9.18519e-09
9.18546e-09
9.18651e-09
9.19522e-09
9.27826e-09
1.00725e-08
1.55666e-08
1.98792e-08
2.00888e-08
2.00941e-08
2.00942e-08
2.00942e-08
)
;

boundaryField
{
    inlet
    {
        type            calculated;
        value           uniform -6.09112e-09;
    }
    outlet
    {
        type            calculated;
        value           uniform 2.00942e-08;
    }
    emptyWalls
    {
        type            empty;
        value           nonuniform List<scalar> 0();
    }
}


// ************************************************************************* //
