/*--------------------------------*- C++ -*----------------------------------*\
  =========                 |
  \\      /  F ield         | OpenFOAM: The Open Source CFD Toolbox
   \\    /   O peration     | Website:  https://openfoam.org
    \\  /    A nd           | Version:  9
     \\/     M anipulation  |
\*---------------------------------------------------------------------------*/
FoamFile
{
    format      ascii;
    class       surfaceScalarField;
    location    "2200";
    object      phic;
}
// * * * * * * * * * * * * * * * * * * * * * * * * * * * * * * * * * * * * * //

dimensions      [0 2 0 0 0 0 0];

internalField   nonuniform List<scalar> 
99
(
1.29247e-11
2.67927e-11
4.221e-11
5.85213e-11
7.57185e-11
9.36699e-11
1.1234e-10
1.31701e-10
1.5176e-10
1.72547e-10
1.94132e-10
2.16636e-10
2.40265e-10
2.65357e-10
2.925e-10
3.22751e-10
3.56211e-10
3.86791e-10
4.17634e-10
4.48088e-10
4.78784e-10
5.09685e-10
5.40944e-10
5.72588e-10
6.04668e-10
6.37206e-10
6.70225e-10
7.0374e-10
7.37766e-10
7.72315e-10
8.07399e-10
8.4303e-10
8.79219e-10
9.15981e-10
9.53329e-10
9.91278e-10
1.02985e-09
1.06905e-09
1.10891e-09
1.14945e-09
1.1907e-09
1.23269e-09
1.27545e-09
1.31903e-09
1.36346e-09
1.4088e-09
1.45511e-09
1.50247e-09
1.55096e-09
1.60068e-09
1.65176e-09
1.70435e-09
1.75863e-09
1.81482e-09
1.87322e-09
1.93418e-09
1.99818e-09
2.06582e-09
2.13792e-09
2.2156e-09
2.30042e-09
2.39464e-09
2.50162e-09
2.62659e-09
2.77811e-09
2.9711e-09
3.23368e-09
3.62456e-09
4.28247e-09
5.5718e-09
8.17982e-09
1.06756e-08
1.11167e-08
1.11211e-08
1.11207e-08
1.11205e-08
1.11203e-08
1.11202e-08
1.112e-08
1.11199e-08
1.11197e-08
1.11196e-08
1.11194e-08
1.11192e-08
1.11191e-08
1.11189e-08
1.11187e-08
1.11185e-08
1.11183e-08
1.11172e-08
1.11085e-08
1.10255e-08
1.02312e-08
4.73711e-09
4.24536e-10
2.14958e-10
2.09626e-10
2.09493e-10
2.0949e-10
)
;

boundaryField
{
    inlet
    {
        type            calculated;
        value           uniform 0;
    }
    outlet
    {
        type            calculated;
        value           uniform 2.0949e-10;
    }
    emptyWalls
    {
        type            empty;
        value           nonuniform List<scalar> 0();
    }
}


// ************************************************************************* //
