/*--------------------------------*- C++ -*----------------------------------*\
  =========                 |
  \\      /  F ield         | OpenFOAM: The Open Source CFD Toolbox
   \\    /   O peration     | Website:  https://openfoam.org
    \\  /    A nd           | Version:  9
     \\/     M anipulation  |
\*---------------------------------------------------------------------------*/
FoamFile
{
    format      ascii;
    class       volVectorField;
    location    "2200";
    object      Ua;
}
// * * * * * * * * * * * * * * * * * * * * * * * * * * * * * * * * * * * * * //

dimensions      [0 0 0 0 0 0 0];

internalField   nonuniform List<vector> 
100
(
(0 0 8.89076e-06)
(0 0 1.12948e-05)
(0 0 1.12837e-05)
(0 0 1.12715e-05)
(0 0 1.12588e-05)
(0 0 1.12453e-05)
(0 0 1.12314e-05)
(0 0 1.12169e-05)
(0 0 1.12018e-05)
(0 0 1.11862e-05)
(0 0 1.117e-05)
(0 0 1.11532e-05)
(0 0 1.11356e-05)
(0 0 1.1117e-05)
(0 0 1.1097e-05)
(0 0 1.10751e-05)
(0 0 1.10495e-05)
(0 0 1.1023e-05)
(0 0 1.09979e-05)
(0 0 1.09726e-05)
(0 0 1.09475e-05)
(0 0 1.09221e-05)
(0 0 1.08965e-05)
(0 0 1.08706e-05)
(0 0 1.08443e-05)
(0 0 1.08176e-05)
(0 0 1.07904e-05)
(0 0 1.07628e-05)
(0 0 1.07348e-05)
(0 0 1.07063e-05)
(0 0 1.06773e-05)
(0 0 1.06478e-05)
(0 0 1.06178e-05)
(0 0 1.05873e-05)
(0 0 1.05564e-05)
(0 0 1.05249e-05)
(0 0 1.04929e-05)
(0 0 1.04604e-05)
(0 0 1.04274e-05)
(0 0 1.03937e-05)
(0 0 1.03595e-05)
(0 0 1.03247e-05)
(0 0 1.02892e-05)
(0 0 1.0253e-05)
(0 0 1.02161e-05)
(0 0 1.01785e-05)
(0 0 1.01399e-05)
(0 0 1.01005e-05)
(0 0 1.00601e-05)
(0 0 1.00187e-05)
(0 0 9.97615e-06)
(0 0 9.93231e-06)
(0 0 9.88706e-06)
(0 0 9.84022e-06)
(0 0 9.79157e-06)
(0 0 9.74082e-06)
(0 0 9.68763e-06)
(0 0 9.63151e-06)
(0 0 9.57186e-06)
(0 0 9.50781e-06)
(0 0 9.4382e-06)
(0 0 9.36135e-06)
(0 0 9.27478e-06)
(0 0 9.17469e-06)
(0 0 9.05492e-06)
(0 0 8.90495e-06)
(0 0 8.70526e-06)
(0 0 8.41573e-06)
(0 0 7.94205e-06)
(0 0 7.02443e-06)
(0 0 5.00632e-06)
(0 0 2.0886e-06)
(0 0 2.8882e-07)
(0 0 3.31025e-09)
(0 0 9.3512e-14)
(0 0 1.50395e-23)
(0 0 2.21639e-36)
(0 0 2.12417e-36)
(0 0 2.1241e-36)
(0 0 2.18505e-36)
(0 0 2.09669e-36)
(0 0 2.12776e-36)
(0 0 2.216e-36)
(0 0 2.12378e-36)
(0 0 2.18471e-36)
(0 0 2.06778e-36)
(0 0 2.09885e-36)
(0 0 2.21563e-36)
(0 0 2.18439e-36)
(0 0 2.27622e-36)
(0 0 2.27407e-36)
(0 0 2.25348e-36)
(0 0 2.02473e-36)
(0 0 1.16267e-36)
(0 0 2.9356e-37)
(0 0 3.40985e-38)
(0 0 2.44156e-38)
(0 0 2.62936e-38)
(0 0 2.62877e-38)
(0 0 1.77469e-38)
)
;

boundaryField
{
    inlet
    {
        type            fixedValue;
        value           uniform (0 0 1.131e-05);
    }
    outlet
    {
        type            zeroGradient;
    }
    emptyWalls
    {
        type            empty;
    }
}


// ************************************************************************* //
