/*--------------------------------*- C++ -*----------------------------------*\
  =========                 |
  \\      /  F ield         | OpenFOAM: The Open Source CFD Toolbox
   \\    /   O peration     | Website:  https://openfoam.org
    \\  /    A nd           | Version:  9
     \\/     M anipulation  |
\*---------------------------------------------------------------------------*/
FoamFile
{
    format      ascii;
    class       volVectorField;
    location    "2200";
    object      Ub;
}
// * * * * * * * * * * * * * * * * * * * * * * * * * * * * * * * * * * * * * //

dimensions      [0 0 0 0 0 0 0];

internalField   nonuniform List<vector> 
100
(
(0 0 7.25105e-06)
(0 0 4.84657e-06)
(0 0 4.84609e-06)
(0 0 4.84557e-06)
(0 0 4.84503e-06)
(0 0 4.84446e-06)
(0 0 4.84386e-06)
(0 0 4.84325e-06)
(0 0 4.84261e-06)
(0 0 4.84195e-06)
(0 0 4.84127e-06)
(0 0 4.84056e-06)
(0 0 4.83982e-06)
(0 0 4.83903e-06)
(0 0 4.8382e-06)
(0 0 4.83727e-06)
(0 0 4.83754e-06)
(0 0 4.83855e-06)
(0 0 4.83927e-06)
(0 0 4.84011e-06)
(0 0 4.84093e-06)
(0 0 4.84178e-06)
(0 0 4.84266e-06)
(0 0 4.84357e-06)
(0 0 4.84453e-06)
(0 0 4.84552e-06)
(0 0 4.84657e-06)
(0 0 4.84767e-06)
(0 0 4.84884e-06)
(0 0 4.85007e-06)
(0 0 4.85137e-06)
(0 0 4.85272e-06)
(0 0 4.85412e-06)
(0 0 4.85557e-06)
(0 0 4.85705e-06)
(0 0 4.85857e-06)
(0 0 4.8601e-06)
(0 0 4.86167e-06)
(0 0 4.86326e-06)
(0 0 4.86489e-06)
(0 0 4.86655e-06)
(0 0 4.86826e-06)
(0 0 4.87002e-06)
(0 0 4.87185e-06)
(0 0 4.87374e-06)
(0 0 4.8757e-06)
(0 0 4.87775e-06)
(0 0 4.87989e-06)
(0 0 4.88213e-06)
(0 0 4.88448e-06)
(0 0 4.88694e-06)
(0 0 4.88953e-06)
(0 0 4.89227e-06)
(0 0 4.89515e-06)
(0 0 4.89821e-06)
(0 0 4.90146e-06)
(0 0 4.90494e-06)
(0 0 4.90867e-06)
(0 0 4.91273e-06)
(0 0 4.91718e-06)
(0 0 4.92213e-06)
(0 0 4.92774e-06)
(0 0 4.93426e-06)
(0 0 4.94206e-06)
(0 0 4.95182e-06)
(0 0 4.96471e-06)
(0 0 4.98314e-06)
(0 0 5.01266e-06)
(0 0 5.06905e-06)
(0 0 5.21188e-06)
(0 0 5.67929e-06)
(0 0 6.56626e-06)
(0 0 7.19751e-06)
(0 0 7.30575e-06)
(0 0 7.30747e-06)
(0 0 7.30774e-06)
(0 0 7.30788e-06)
(0 0 7.30799e-06)
(0 0 7.3081e-06)
(0 0 7.30822e-06)
(0 0 7.30835e-06)
(0 0 7.30847e-06)
(0 0 7.30859e-06)
(0 0 7.30872e-06)
(0 0 7.30885e-06)
(0 0 7.30898e-06)
(0 0 7.30912e-06)
(0 0 7.30927e-06)
(0 0 7.30945e-06)
(0 0 7.30998e-06)
(0 0 7.31386e-06)
(0 0 7.35037e-06)
(0 0 7.69944e-06)
(0 0 1.02015e-05)
(0 0 1.41034e-05)
(0 0 1.59028e-05)
(0 0 1.59883e-05)
(0 0 1.59904e-05)
(0 0 1.59905e-05)
(0 0 1.59905e-05)
)
;

boundaryField
{
    inlet
    {
        type            fixedValue;
        value           uniform (0 0 4.84716e-06);
    }
    outlet
    {
        type            zeroGradient;
    }
    emptyWalls
    {
        type            empty;
    }
}


// ************************************************************************* //
