/*--------------------------------*- C++ -*----------------------------------*\
  =========                 |
  \\      /  F ield         | OpenFOAM: The Open Source CFD Toolbox
   \\    /   O peration     | Website:  https://openfoam.org
    \\  /    A nd           | Version:  9
     \\/     M anipulation  |
\*---------------------------------------------------------------------------*/
FoamFile
{
    format      ascii;
    class       volVectorField;
    location    "2200";
    object      Uc;
}
// * * * * * * * * * * * * * * * * * * * * * * * * * * * * * * * * * * * * * //

dimensions      [0 0 0 0 0 0 0];

internalField   nonuniform List<vector> 
100
(
(0 0 1.53871e-08)
(0 0 1.58031e-08)
(0 0 2.74553e-08)
(0 0 4.00797e-08)
(0 0 5.34123e-08)
(0 0 6.73975e-08)
(0 0 8.19686e-08)
(0 0 9.71008e-08)
(0 0 1.12786e-07)
(0 0 1.29037e-07)
(0 0 1.45897e-07)
(0 0 1.63439e-07)
(0 0 1.81795e-07)
(0 0 2.01181e-07)
(0 0 2.21964e-07)
(0 0 2.44801e-07)
(0 0 2.7015e-07)
(0 0 2.95631e-07)
(0 0 3.20071e-07)
(0 0 3.4446e-07)
(0 0 3.68791e-07)
(0 0 3.93299e-07)
(0 0 4.18032e-07)
(0 0 4.4306e-07)
(0 0 4.68415e-07)
(0 0 4.94126e-07)
(0 0 5.2021e-07)
(0 0 5.46683e-07)
(0 0 5.73557e-07)
(0 0 6.00842e-07)
(0 0 6.28548e-07)
(0 0 6.56685e-07)
(0 0 6.85261e-07)
(0 0 7.14288e-07)
(0 0 7.43775e-07)
(0 0 7.73734e-07)
(0 0 8.04179e-07)
(0 0 8.35123e-07)
(0 0 8.66583e-07)
(0 0 8.98575e-07)
(0 0 9.3112e-07)
(0 0 9.64239e-07)
(0 0 9.9796e-07)
(0 0 1.03231e-06)
(0 0 1.06733e-06)
(0 0 1.10304e-06)
(0 0 1.13951e-06)
(0 0 1.17678e-06)
(0 0 1.21492e-06)
(0 0 1.254e-06)
(0 0 1.2941e-06)
(0 0 1.33535e-06)
(0 0 1.37787e-06)
(0 0 1.42183e-06)
(0 0 1.46742e-06)
(0 0 1.51492e-06)
(0 0 1.56464e-06)
(0 0 1.61701e-06)
(0 0 1.67261e-06)
(0 0 1.73221e-06)
(0 0 1.79687e-06)
(0 0 1.86811e-06)
(0 0 1.94816e-06)
(0 0 2.04045e-06)
(0 0 2.15046e-06)
(0 0 2.28754e-06)
(0 0 2.4688e-06)
(0 0 2.7288e-06)
(0 0 3.1461e-06)
(0 0 3.92089e-06)
(0 0 5.4716e-06)
(0 0 7.50234e-06)
(0 0 8.67087e-06)
(0 0 8.84814e-06)
(0 0 8.84973e-06)
(0 0 8.84946e-06)
(0 0 8.84932e-06)
(0 0 8.84921e-06)
(0 0 8.8491e-06)
(0 0 8.84898e-06)
(0 0 8.84885e-06)
(0 0 8.84873e-06)
(0 0 8.84861e-06)
(0 0 8.84848e-06)
(0 0 8.84835e-06)
(0 0 8.84822e-06)
(0 0 8.84808e-06)
(0 0 8.84793e-06)
(0 0 8.84775e-06)
(0 0 8.84722e-06)
(0 0 8.84334e-06)
(0 0 8.80683e-06)
(0 0 8.45776e-06)
(0 0 5.9557e-06)
(0 0 2.05375e-06)
(0 0 2.54447e-07)
(0 0 1.68937e-07)
(0 0 1.66762e-07)
(0 0 1.66708e-07)
(0 0 1.66707e-07)
)
;

boundaryField
{
    inlet
    {
        type            fixedValue;
        value           uniform (0 0 0);
    }
    outlet
    {
        type            zeroGradient;
    }
    emptyWalls
    {
        type            empty;
    }
}


// ************************************************************************* //
