/*--------------------------------*- C++ -*----------------------------------*\
  =========                 |
  \\      /  F ield         | OpenFOAM: The Open Source CFD Toolbox
   \\    /   O peration     | Website:  https://openfoam.org
    \\  /    A nd           | Version:  9
     \\/     M anipulation  |
\*---------------------------------------------------------------------------*/
FoamFile
{
    format      ascii;
    class       volScalarField;
    location    "28600";
    object      Fa;
}
// * * * * * * * * * * * * * * * * * * * * * * * * * * * * * * * * * * * * * //

dimensions      [0 0 0 0 0 0 0];

internalField   nonuniform List<scalar> 
1000
(
0.194822
0.194763
0.194827
0.194747
0.194821
0.194729
0.194791
0.194713
0.194731
0.194691
0.194666
0.194646
0.194613
0.194583
0.194553
0.194514
0.194476
0.194441
0.194388
0.194364
0.194284
0.194282
0.194166
0.194193
0.19406
0.194088
0.193984
0.193981
0.19392
0.193893
0.193852
0.193825
0.193792
0.19377
0.193742
0.193722
0.193687
0.193622
0.193382
0.192267
0.183174
0.160617
0.155333
0.152625
0.150798
0.149755
0.149305
0.14918
0.149161
0.149133
0.149056
0.148933
0.148779
0.148612
0.148441
0.148272
0.148109
0.147952
0.147801
0.14766
0.147522
0.147392
0.147268
0.147149
0.147037
0.146928
0.146827
0.146726
0.146635
0.146543
0.146463
0.146379
0.146309
0.14623
0.146168
0.146092
0.146033
0.145965
0.145911
0.145853
0.145809
0.145758
0.145724
0.145686
0.145652
0.145617
0.145579
0.14554
0.145501
0.145464
0.145431
0.145402
0.145378
0.14536
0.145348
0.145341
0.145336
0.145332
0.145324
0.145311
0.145293
0.145269
0.145242
0.145215
0.145191
0.145176
0.145174
0.145196
0.14523
0.14529
0.145386
0.145521
0.14569
0.145896
0.146113
0.146327
0.146523
0.146702
0.146863
0.147011
0.147145
0.147261
0.147349
0.147403
0.147415
0.147382
0.147302
0.147182
0.147026
0.146845
0.146646
0.146441
0.146238
0.146043
0.145863
0.145702
0.145563
0.145445
0.14535
0.145276
0.14522
0.14518
0.145153
0.145136
0.145126
0.145121
0.145117
0.145114
0.14511
0.145104
0.145094
0.145081
0.145065
0.145046
0.145024
0.144999
0.144972
0.144943
0.144912
0.144881
0.144849
0.144817
0.144784
0.144752
0.144719
0.144687
0.144655
0.144624
0.144593
0.144564
0.144534
0.144506
0.144477
0.144451
0.144424
0.144399
0.144374
0.144351
0.144328
0.144307
0.144285
0.144265
0.144244
0.144226
0.144207
0.144189
0.144172
0.144156
0.144141
0.144128
0.144114
0.144104
0.144093
0.144084
0.144075
0.144069
0.144061
0.144055
0.144048
0.144043
0.144036
0.144031
0.144025
0.144022
0.144018
0.144016
0.144015
0.144016
0.144017
0.14402
0.144023
0.144028
0.14403
0.144035
0.144036
0.144039
0.144036
0.144036
0.144031
0.144029
0.144024
0.144025
0.144026
0.144037
0.144051
0.14408
0.144114
0.144165
0.144223
0.144298
0.14438
0.144478
0.144581
0.144698
0.144815
0.144944
0.145068
0.1452
0.145321
0.145444
0.14555
0.145654
0.145734
0.145807
0.145852
0.145886
0.145888
0.145878
0.145837
0.145785
0.145704
0.145618
0.145506
0.145396
0.145267
0.145146
0.145011
0.144892
0.144762
0.144654
0.144539
0.144449
0.144352
0.144281
0.144203
0.144152
0.144091
0.144057
0.14401
0.143988
0.143952
0.143938
0.143908
0.143899
0.143872
0.143864
0.143837
0.143829
0.143801
0.143791
0.143762
0.143748
0.143717
0.143701
0.143669
0.14365
0.143616
0.143596
0.143561
0.143539
0.143505
0.143481
0.143447
0.143423
0.14339
0.143366
0.143333
0.143309
0.143278
0.143255
0.143225
0.143202
0.143173
0.143152
0.143124
0.143104
0.143077
0.143059
0.143033
0.143016
0.142991
0.142976
0.142951
0.142938
0.142914
0.142904
0.14288
0.142872
0.14285
0.142844
0.142822
0.142818
0.142797
0.142796
0.142774
0.142775
0.142754
0.142757
0.142736
0.142741
0.14272
0.142727
0.142706
0.142716
0.142695
0.142707
0.142686
0.1427
0.142681
0.142696
0.142677
0.142694
0.142674
0.142692
0.142672
0.142689
0.142669
0.142686
0.142665
0.142683
0.142663
0.142683
0.142665
0.142689
0.142676
0.142706
0.142701
0.14274
0.142745
0.142796
0.142813
0.142876
0.142906
0.142983
0.143026
0.143115
0.14317
0.14327
0.143334
0.143441
0.14351
0.14362
0.143689
0.143797
0.143861
0.143961
0.144014
0.1441
0.144137
0.144204
0.144219
0.144263
0.144254
0.144273
0.144239
0.144233
0.144175
0.144146
0.144066
0.144018
0.143922
0.143861
0.143754
0.143685
0.143574
0.143503
0.143392
0.143325
0.14322
0.14316
0.143063
0.143012
0.142925
0.142884
0.142808
0.142777
0.14271
0.142688
0.142629
0.142615
0.142562
0.142553
0.142505
0.1425
0.142455
0.142453
0.142409
0.142408
0.142365
0.142364
0.14232
0.142319
0.142275
0.142272
0.142227
0.142224
0.142178
0.142174
0.142127
0.142122
0.142074
0.142069
0.142021
0.142016
0.141968
0.141962
0.141914
0.141909
0.141862
0.141857
0.14181
0.141806
0.14176
0.141756
0.141711
0.141708
0.141664
0.141662
0.141619
0.141619
0.141576
0.141577
0.141535
0.141537
0.141497
0.1415
0.141461
0.141465
0.141427
0.141433
0.141396
0.141403
0.141367
0.141375
0.14134
0.14135
0.141316
0.141326
0.141294
0.141305
0.141274
0.141287
0.141256
0.14127
0.14124
0.141255
0.141226
0.141242
0.141214
0.141231
0.141204
0.141222
0.141196
0.141214
0.141188
0.141207
0.141182
0.141201
0.141176
0.141196
0.141172
0.141192
0.141169
0.141191
0.141169
0.141193
0.141173
0.1412
0.141184
0.141215
0.141203
0.14124
0.141234
0.141277
0.141279
0.141329
0.141339
0.141397
0.141415
0.141481
0.141507
0.141581
0.141613
0.141694
0.141733
0.141818
0.14186
0.141949
0.141992
0.14208
0.142122
0.142208
0.142245
0.142324
0.142353
0.142423
0.142441
0.142499
0.142504
0.142548
0.142538
0.142566
0.14254
0.142551
0.142509
0.142505
0.142448
0.142429
0.142359
0.142329
0.142248
0.142208
0.14212
0.142075
0.141982
0.141934
0.14184
0.141793
0.1417
0.141655
0.141566
0.141526
0.141442
0.141407
0.141328
0.141299
0.141227
0.141204
0.141137
0.14112
0.141059
0.141046
0.140989
0.14098
0.140927
0.140921
0.14087
0.140867
0.140818
0.140816
0.140768
0.140767
0.140719
0.140719
0.140671
0.140671
0.140623
0.140623
0.140575
0.140574
0.140526
0.140525
0.140476
0.140475
0.140426
0.140425
0.140376
0.140375
0.140326
0.140325
0.140277
0.140276
0.140228
0.140227
0.14018
0.14018
0.140133
0.140134
0.140087
0.140089
0.140043
0.140046
0.140001
0.140004
0.13996
0.139965
0.139921
0.139927
0.139884
0.139891
0.139849
0.139857
0.139817
0.139825
0.139786
0.139795
0.139757
0.139767
0.13973
0.139741
0.139704
0.139717
0.139681
0.139694
0.13966
0.139674
0.13964
0.139655
0.139622
0.139638
0.139605
0.139622
0.139591
0.139608
0.139577
0.139595
0.139565
0.139584
0.139554
0.139574
0.139544
0.139564
0.139536
0.139557
0.139529
0.13955
0.139523
0.139546
0.139521
0.139545
0.139521
0.139548
0.139526
0.139555
0.139536
0.139568
0.139553
0.13959
0.139578
0.139619
0.139613
0.139659
0.139658
0.139709
0.139713
0.13977
0.139779
0.139841
0.139855
0.139922
0.139941
0.140011
0.140033
0.140107
0.140131
0.140206
0.14023
0.140305
0.140329
0.140402
0.140423
0.140492
0.140508
0.140572
0.140581
0.140638
0.140639
0.140687
0.140679
0.140716
0.140698
0.140725
0.140695
0.140711
0.140671
0.140676
0.140625
0.14062
0.140559
0.140545
0.140477
0.140456
0.14038
0.140353
0.140273
0.140243
0.14016
0.140128
0.140044
0.140012
0.139928
0.139897
0.139816
0.139787
0.139708
0.139683
0.139608
0.139586
0.139514
0.139496
0.139429
0.139415
0.13935
0.13934
0.139279
0.139272
0.139213
0.139209
0.139153
0.13915
0.139096
0.139096
0.139043
0.139044
0.138992
0.138993
0.138942
0.138944
0.138894
0.138896
0.138846
0.138848
0.138798
0.138801
0.13875
0.138753
0.138703
0.138705
0.138655
0.138657
0.138607
0.13861
0.13856
0.138563
0.138513
0.138516
0.138466
0.13847
0.138421
0.138425
0.138376
0.13838
0.138332
0.138337
0.138289
0.138295
0.138247
0.138254
0.138207
0.138215
0.138169
0.138177
0.138132
0.13814
0.138096
0.138106
0.138062
0.138073
0.13803
0.138041
0.137999
0.138011
0.13797
0.137983
0.137943
0.137957
0.137917
0.137931
0.137893
0.137908
0.13787
0.137886
0.137848
0.137865
0.137829
0.137846
0.13781
0.137828
0.137793
0.137812
0.137777
0.137796
0.137762
0.137782
0.137748
0.137769
0.137736
0.137758
0.137725
0.137748
0.137716
0.13774
0.137709
0.137734
0.137705
0.137731
0.137704
0.137732
0.137706
0.137736
0.137713
0.137746
0.137725
0.137761
0.137743
0.137782
0.137767
0.13781
0.137799
0.137845
0.137838
0.137888
0.137884
0.137938
0.137938
0.137996
0.137999
0.13806
0.138066
0.138129
0.138138
0.138203
0.138213
0.138278
0.138288
0.138354
0.138364
0.138429
0.138437
0.138502
0.138506
0.13857
0.138568
0.13863
0.13862
0.13868
0.138661
0.138718
0.138688
0.138743
0.1387
0.138753
0.138698
0.138747
0.13868
0.138727
0.138648
0.13869
0.138596
0.138632
0.138532
0.138564
0.138458
0.138486
0.138375
0.138399
0.138284
0.138306
0.138187
0.138209
0.138087
0.13811
0.137987
0.13801
0.137887
0.137912
0.137791
0.137817
0.137698
0.137726
0.137609
0.13764
0.137525
0.137558
0.137447
0.137481
0.137373
0.13741
0.137304
0.137342
0.13724
0.137279
0.137179
0.137219
0.137121
0.137161
0.137065
0.137106
0.137012
0.137053
0.13696
0.137002
0.136909
0.136951
0.136859
0.136901
0.13681
0.136852
0.136761
0.136803
0.136713
0.136754
0.136664
0.136705
0.136616
0.136657
0.136568
0.13661
0.136521
0.136563
0.136474
0.136516
0.136427
0.13647
0.136382
0.136424
0.136337
0.13638
0.136293
0.136337
0.13625
0.136294
0.136209
0.136253
0.136168
0.136213
0.136129
0.136174
0.136091
0.136137
0.136055
0.136101
0.13602
0.136067
0.135986
0.136034
0.135954
0.136002
0.135923
0.135972
0.135894
0.135943
0.135866
0.135916
0.135839
0.13589
0.135814
0.135865
0.135789
0.135842
0.135766
0.13582
0.135745
0.1358
0.135724
0.13578
0.135705
0.135762
0.135686
0.135746
0.135669
0.135731
0.135653
0.135717
0.135639
0.135705
0.135626
0.135695
0.135615
0.135687
0.135607
0.135682
0.135601
0.135679
0.135598
0.135679
0.135599
0.135683
0.135509
0.987235
)
;

boundaryField
{
    inlet
    {
        type            calculated;
        value           uniform 0.194831;
    }
    outlet
    {
        type            calculated;
        value           uniform 0.0374241;
    }
    emptyWalls
    {
        type            empty;
    }
}


// ************************************************************************* //
