/*--------------------------------*- C++ -*----------------------------------*\
  =========                 |
  \\      /  F ield         | OpenFOAM: The Open Source CFD Toolbox
   \\    /   O peration     | Website:  https://openfoam.org
    \\  /    A nd           | Version:  9
     \\/     M anipulation  |
\*---------------------------------------------------------------------------*/
FoamFile
{
    format      ascii;
    class       volScalarField;
    location    "72000";
    object      krc;
}
// * * * * * * * * * * * * * * * * * * * * * * * * * * * * * * * * * * * * * //

dimensions      [0 0 0 0 0 0 0];

internalField   nonuniform List<scalar> 
100
(
2.35527e-23
1.14385e-24
1.5562e-24
1.59622e-24
2.27861e-25
1.11548e-24
2.27711e-25
1.93407e-26
7.62422e-25
3.76254e-25
1.10308e-24
7.2619e-27
2.39856e-25
8.29076e-25
9.39764e-25
1.17853e-24
1.02153e-24
1.32887e-25
1.18895e-24
1.47293e-24
1.5596e-25
1.30391e-24
3.06706e-25
1.14637e-24
7.74534e-25
1.25578e-24
6.36866e-25
1.61232e-24
5.83407e-25
1.44788e-24
4.28824e-25
5.44039e-25
2.05119e-24
1.91349e-24
1.54383e-27
2.84976e-24
1.07115e-24
8.72372e-25
1.22787e-26
1.20363e-26
7.59934e-26
3.27739e-24
7.2247e-24
1.36749e-25
5.38426e-24
2.84261e-24
1.26229e-24
9.88321e-24
1.05319e-24
6.44532e-25
4.18044e-24
3.75282e-24
8.55174e-24
2.79679e-25
4.23187e-25
5.02258e-24
2.91681e-26
7.47755e-27
4.00009e-24
2.47321e-24
2.1823e-24
1.2549e-24
5.03481e-25
7.99606e-25
3.41655e-26
2.1488e-24
6.80569e-25
1.94293e-24
7.68053e-25
6.8197e-26
1.40736e-24
1.42436e-24
5.69341e-25
1.68816e-24
4.71293e-24
6.28665e-24
1.74116e-23
2.97563e-23
7.00734e-23
7.86136e-23
1.48468e-22
1.63922e-22
2.96113e-22
4.73721e-22
6.54999e-22
9.67354e-22
1.44183e-21
2.01786e-21
2.8455e-21
4.01667e-21
5.65576e-21
7.74421e-21
1.21118e-20
1.4438e-20
3.35071e-21
6.43955e-20
5.38491e-18
2.48372e-17
6.14524e-16
4.02833e-15
)
;

boundaryField
{
    inlet
    {
        type            calculated;
        value           uniform 2.35527e-23;
    }
    outlet
    {
        type            calculated;
        value           uniform 4.02833e-15;
    }
    emptyWalls
    {
        type            empty;
    }
}


// ************************************************************************* //
