/*--------------------------------*- C++ -*----------------------------------*\
  =========                 |
  \\      /  F ield         | OpenFOAM: The Open Source CFD Toolbox
   \\    /   O peration     | Website:  https://openfoam.org
    \\  /    A nd           | Version:  9
     \\/     M anipulation  |
\*---------------------------------------------------------------------------*/
FoamFile
{
    format      ascii;
    class       surfaceScalarField;
    location    "3200";
    object      phib;
}
// * * * * * * * * * * * * * * * * * * * * * * * * * * * * * * * * * * * * * //

dimensions      [0 2 0 0 0 0 0];

internalField   nonuniform List<scalar> 
999
(
1.13668e-09
1.1368e-09
1.13843e-09
1.14698e-09
1.17395e-09
1.17849e-09
1.17982e-09
1.18039e-09
1.18062e-09
1.18062e-09
1.18017e-09
1.17845e-09
1.17608e-09
1.1734e-09
1.17052e-09
1.16752e-09
1.16442e-09
1.16124e-09
1.15799e-09
1.15469e-09
1.15133e-09
1.14795e-09
1.14454e-09
1.14113e-09
1.1377e-09
1.13426e-09
1.13077e-09
1.12721e-09
1.12359e-09
1.11989e-09
1.11611e-09
1.11225e-09
1.10833e-09
1.10435e-09
1.10034e-09
1.09632e-09
1.09228e-09
1.08826e-09
1.08426e-09
1.08029e-09
1.07637e-09
1.0725e-09
1.0687e-09
1.06498e-09
1.06134e-09
1.05779e-09
1.05432e-09
1.05091e-09
1.04756e-09
1.04423e-09
1.04089e-09
1.03753e-09
1.0341e-09
1.03059e-09
1.02699e-09
1.02327e-09
1.01945e-09
1.0155e-09
1.01145e-09
1.00731e-09
1.00309e-09
9.98791e-10
9.94442e-10
9.90051e-10
9.85628e-10
9.81183e-10
9.76722e-10
9.72249e-10
9.67766e-10
9.63273e-10
9.5877e-10
9.54254e-10
9.49723e-10
9.45174e-10
9.40603e-10
9.36008e-10
9.31385e-10
9.26732e-10
9.22046e-10
9.17326e-10
9.12568e-10
9.07771e-10
9.02933e-10
8.98052e-10
8.93128e-10
8.88159e-10
8.83143e-10
8.78078e-10
8.72964e-10
8.67798e-10
8.62579e-10
8.57307e-10
8.51978e-10
8.46593e-10
8.41146e-10
8.35638e-10
8.30065e-10
8.24425e-10
8.18715e-10
8.12932e-10
8.07074e-10
8.01137e-10
7.95117e-10
7.89014e-10
7.82822e-10
7.76539e-10
7.70163e-10
7.6369e-10
7.57118e-10
7.50447e-10
7.43676e-10
7.3681e-10
7.29854e-10
7.22822e-10
7.15734e-10
7.08614e-10
7.01491e-10
6.94389e-10
6.87306e-10
6.80181e-10
6.72827e-10
6.64812e-10
6.55283e-10
6.42716e-10
6.24658e-10
5.97733e-10
5.58522e-10
5.06e-10
4.44671e-10
3.84555e-10
3.35586e-10
3.01741e-10
2.81075e-10
2.69446e-10
2.63217e-10
2.59974e-10
2.58315e-10
2.57475e-10
2.57054e-10
2.56845e-10
2.56742e-10
2.56694e-10
2.56673e-10
2.56665e-10
2.56663e-10
2.56664e-10
2.56667e-10
2.56671e-10
2.56674e-10
2.56678e-10
2.56681e-10
2.56684e-10
2.56687e-10
2.5669e-10
2.56692e-10
2.56694e-10
2.56695e-10
2.56696e-10
2.56697e-10
2.56697e-10
2.56697e-10
2.56697e-10
2.56696e-10
2.56694e-10
2.56692e-10
2.5669e-10
2.56687e-10
2.56684e-10
2.5668e-10
2.56676e-10
2.56672e-10
2.56668e-10
2.56664e-10
2.56659e-10
2.56654e-10
2.56649e-10
2.56644e-10
2.56639e-10
2.56634e-10
2.56629e-10
2.56624e-10
2.56619e-10
2.56614e-10
2.5661e-10
2.56605e-10
2.566e-10
2.56596e-10
2.56592e-10
2.56588e-10
2.56584e-10
2.5658e-10
2.56576e-10
2.56572e-10
2.56569e-10
2.56566e-10
2.56562e-10
2.56559e-10
2.56556e-10
2.56553e-10
2.5655e-10
2.56547e-10
2.56544e-10
2.5654e-10
2.56536e-10
2.56531e-10
2.56525e-10
2.56518e-10
2.5651e-10
2.565e-10
2.56488e-10
2.56474e-10
2.56458e-10
2.56439e-10
2.56418e-10
2.56394e-10
2.56366e-10
2.56336e-10
2.56303e-10
2.56267e-10
2.56228e-10
2.56186e-10
2.56142e-10
2.56096e-10
2.56048e-10
2.55998e-10
2.55948e-10
2.55896e-10
2.55845e-10
2.55795e-10
2.55746e-10
2.55699e-10
2.55654e-10
2.55614e-10
2.55578e-10
2.55547e-10
2.55522e-10
2.55505e-10
2.55495e-10
2.55491e-10
2.5549e-10
2.5549e-10
2.55501e-10
2.55536e-10
2.55576e-10
2.55625e-10
2.55682e-10
2.55745e-10
2.55814e-10
2.55886e-10
2.55962e-10
2.56038e-10
2.56114e-10
2.56188e-10
2.56259e-10
2.56325e-10
2.56387e-10
2.56442e-10
2.56491e-10
2.56534e-10
2.56569e-10
2.56598e-10
2.56621e-10
2.56637e-10
2.56648e-10
2.56654e-10
2.56657e-10
2.56657e-10
2.56656e-10
2.56652e-10
2.5664e-10
2.56628e-10
2.56614e-10
2.56601e-10
2.56587e-10
2.56574e-10
2.56561e-10
2.56549e-10
2.56537e-10
2.56527e-10
2.56518e-10
2.5651e-10
2.56503e-10
2.56497e-10
2.56492e-10
2.56488e-10
2.56486e-10
2.56484e-10
2.56483e-10
2.56483e-10
2.56483e-10
2.56483e-10
2.56484e-10
2.56487e-10
2.56489e-10
2.56492e-10
2.56496e-10
2.56499e-10
2.56503e-10
2.56507e-10
2.56512e-10
2.56516e-10
2.5652e-10
2.56525e-10
2.56529e-10
2.56534e-10
2.56539e-10
2.56544e-10
2.56548e-10
2.56553e-10
2.56558e-10
2.56563e-10
2.56567e-10
2.56572e-10
2.56576e-10
2.56581e-10
2.56585e-10
2.56589e-10
2.56593e-10
2.56597e-10
2.56601e-10
2.56605e-10
2.56608e-10
2.56611e-10
2.56615e-10
2.56618e-10
2.56621e-10
2.56624e-10
2.56626e-10
2.56629e-10
2.56631e-10
2.56633e-10
2.56635e-10
2.56636e-10
2.56637e-10
2.56638e-10
2.56639e-10
2.56639e-10
2.56639e-10
2.56639e-10
2.56639e-10
2.56639e-10
2.56637e-10
2.56636e-10
2.56634e-10
2.56632e-10
2.56629e-10
2.56627e-10
2.56624e-10
2.56621e-10
2.56618e-10
2.56614e-10
2.56611e-10
2.56607e-10
2.56603e-10
2.566e-10
2.56596e-10
2.56593e-10
2.56589e-10
2.56586e-10
2.56582e-10
2.56579e-10
2.56577e-10
2.56574e-10
2.56572e-10
2.5657e-10
2.56568e-10
2.56566e-10
2.56565e-10
2.56564e-10
2.56564e-10
2.56564e-10
2.56564e-10
2.56564e-10
2.56564e-10
2.56565e-10
2.56567e-10
2.56568e-10
2.5657e-10
2.56573e-10
2.56575e-10
2.56577e-10
2.5658e-10
2.56583e-10
2.56586e-10
2.56589e-10
2.56591e-10
2.56594e-10
2.56596e-10
2.56599e-10
2.56601e-10
2.56603e-10
2.56605e-10
2.56607e-10
2.56609e-10
2.5661e-10
2.56611e-10
2.56611e-10
2.56612e-10
2.56613e-10
2.56613e-10
2.56612e-10
2.5661e-10
2.56608e-10
2.56606e-10
2.56603e-10
2.56599e-10
2.56595e-10
2.56591e-10
2.56585e-10
2.56579e-10
2.56572e-10
2.56564e-10
2.56555e-10
2.56545e-10
2.56534e-10
2.56522e-10
2.56508e-10
2.56493e-10
2.56477e-10
2.5646e-10
2.56441e-10
2.56421e-10
2.56399e-10
2.56375e-10
2.56349e-10
2.56322e-10
2.56294e-10
2.56264e-10
2.56232e-10
2.562e-10
2.56166e-10
2.56132e-10
2.56096e-10
2.56061e-10
2.56025e-10
2.55989e-10
2.55954e-10
2.5592e-10
2.55887e-10
2.55857e-10
2.55829e-10
2.55804e-10
2.55783e-10
2.55766e-10
2.55755e-10
2.55749e-10
2.55747e-10
2.55746e-10
2.55748e-10
2.5576e-10
2.55788e-10
2.55822e-10
2.55865e-10
2.55915e-10
2.55972e-10
2.56035e-10
2.56104e-10
2.56178e-10
2.56255e-10
2.56335e-10
2.56415e-10
2.56495e-10
2.56573e-10
2.56648e-10
2.5672e-10
2.56786e-10
2.56847e-10
2.56902e-10
2.56951e-10
2.56993e-10
2.57029e-10
2.57058e-10
2.57081e-10
2.57098e-10
2.57109e-10
2.57116e-10
2.57118e-10
2.57118e-10
2.57118e-10
2.57114e-10
2.571e-10
2.57086e-10
2.57069e-10
2.57052e-10
2.57034e-10
2.57016e-10
2.56998e-10
2.5698e-10
2.56963e-10
2.56946e-10
2.5693e-10
2.56915e-10
2.56901e-10
2.56888e-10
2.56876e-10
2.56866e-10
2.56856e-10
2.56848e-10
2.5684e-10
2.56834e-10
2.56828e-10
2.56824e-10
2.5682e-10
2.56817e-10
2.56814e-10
2.56812e-10
2.56811e-10
2.5681e-10
2.56809e-10
2.56809e-10
2.56809e-10
2.56809e-10
2.56809e-10
2.5681e-10
2.56811e-10
2.56812e-10
2.56813e-10
2.56814e-10
2.56815e-10
2.56816e-10
2.56818e-10
2.5682e-10
2.56822e-10
2.56824e-10
2.56826e-10
2.56828e-10
2.56833e-10
2.56845e-10
2.56995e-10
2.57556e-10
2.60748e-10
2.89375e-10
2.96594e-10
2.96723e-10
2.96726e-10
2.96727e-10
2.96727e-10
2.96727e-10
2.96727e-10
2.96727e-10
2.96727e-10
2.96727e-10
2.96727e-10
2.96727e-10
2.96727e-10
2.96727e-10
2.96727e-10
2.96727e-10
2.96727e-10
2.96727e-10
2.96727e-10
2.96727e-10
2.96727e-10
2.96727e-10
2.96727e-10
2.96727e-10
2.96727e-10
2.96727e-10
2.96727e-10
2.96727e-10
2.96727e-10
2.96727e-10
2.96727e-10
2.96727e-10
2.96727e-10
2.96727e-10
2.96727e-10
2.96727e-10
2.96727e-10
2.96727e-10
2.96727e-10
2.96727e-10
2.96727e-10
2.96727e-10
2.96727e-10
2.96727e-10
2.96727e-10
2.96727e-10
2.96727e-10
2.96727e-10
2.96727e-10
2.96727e-10
2.96727e-10
2.96727e-10
2.96727e-10
2.96727e-10
2.96727e-10
2.96727e-10
2.96727e-10
2.96727e-10
2.96727e-10
2.96727e-10
2.96727e-10
2.96727e-10
2.96727e-10
2.96727e-10
2.96727e-10
2.96727e-10
2.96727e-10
2.96727e-10
2.96727e-10
2.96727e-10
2.96727e-10
2.96727e-10
2.96727e-10
2.96727e-10
2.96727e-10
2.96727e-10
2.96727e-10
2.96727e-10
2.96727e-10
2.96727e-10
2.96727e-10
2.96727e-10
2.96727e-10
2.96727e-10
2.96727e-10
2.96727e-10
2.96727e-10
2.96727e-10
2.96727e-10
2.96727e-10
2.96727e-10
2.96727e-10
2.96727e-10
2.96727e-10
2.96727e-10
2.96727e-10
2.96727e-10
2.96727e-10
2.96727e-10
2.96727e-10
2.96727e-10
2.96727e-10
2.96727e-10
2.96727e-10
2.96727e-10
2.96727e-10
2.96727e-10
2.96727e-10
2.96727e-10
2.96727e-10
2.96727e-10
2.96727e-10
2.96727e-10
2.96727e-10
2.96727e-10
2.96727e-10
2.96727e-10
2.96727e-10
2.96727e-10
2.96727e-10
2.96727e-10
2.96727e-10
2.96727e-10
2.96727e-10
2.96727e-10
2.96727e-10
2.96727e-10
2.96727e-10
2.96727e-10
2.96727e-10
2.96727e-10
2.96727e-10
2.96727e-10
2.96727e-10
2.96727e-10
2.96727e-10
2.96727e-10
2.96727e-10
2.96727e-10
2.96727e-10
2.96727e-10
2.96727e-10
2.96727e-10
2.96727e-10
2.96727e-10
2.96727e-10
2.96727e-10
2.96727e-10
2.96727e-10
2.96727e-10
2.96727e-10
2.96727e-10
2.96727e-10
2.96727e-10
2.96727e-10
2.96727e-10
2.96727e-10
2.96727e-10
2.96727e-10
2.96727e-10
2.96727e-10
2.96727e-10
2.96727e-10
2.96727e-10
2.96727e-10
2.96727e-10
2.96727e-10
2.96727e-10
2.96727e-10
2.96727e-10
2.96727e-10
2.96727e-10
2.96727e-10
2.96727e-10
2.96727e-10
2.96727e-10
2.96727e-10
2.96727e-10
2.96727e-10
2.96727e-10
2.96727e-10
2.96727e-10
2.96727e-10
2.96727e-10
2.96727e-10
2.96727e-10
2.96727e-10
2.96727e-10
2.96727e-10
2.96727e-10
2.96727e-10
2.96727e-10
2.96727e-10
2.96727e-10
2.96727e-10
2.96727e-10
2.96727e-10
2.96727e-10
2.96727e-10
2.96727e-10
2.96727e-10
2.96727e-10
2.96727e-10
2.96727e-10
2.96727e-10
2.96727e-10
2.96727e-10
2.96727e-10
2.96727e-10
2.96727e-10
2.96727e-10
2.96727e-10
2.96727e-10
2.96727e-10
2.96727e-10
2.96727e-10
2.96727e-10
2.96727e-10
2.96727e-10
2.96727e-10
2.96727e-10
2.96727e-10
2.96727e-10
2.96727e-10
2.96727e-10
2.96727e-10
2.96727e-10
2.96727e-10
2.96727e-10
2.96727e-10
2.96727e-10
2.96727e-10
2.96727e-10
2.96727e-10
2.96727e-10
2.96727e-10
2.96727e-10
2.96727e-10
2.96727e-10
2.96727e-10
2.96727e-10
2.96727e-10
2.96727e-10
2.96727e-10
2.96727e-10
2.96727e-10
2.96727e-10
2.96727e-10
2.96727e-10
2.96727e-10
2.96727e-10
2.96727e-10
2.96727e-10
2.96727e-10
2.96727e-10
2.96727e-10
2.96727e-10
2.96727e-10
2.96727e-10
2.96727e-10
2.96727e-10
2.96727e-10
2.96727e-10
2.96727e-10
2.96727e-10
2.96727e-10
2.96727e-10
2.96727e-10
2.96727e-10
2.96727e-10
2.96727e-10
2.96727e-10
2.96727e-10
2.96727e-10
2.96727e-10
2.96727e-10
2.96727e-10
2.96727e-10
2.96727e-10
2.96727e-10
2.96727e-10
2.96727e-10
2.96727e-10
2.96727e-10
2.96727e-10
2.96727e-10
2.96727e-10
2.96727e-10
2.96727e-10
2.96727e-10
2.96727e-10
2.96727e-10
2.96727e-10
2.96727e-10
2.96727e-10
2.96727e-10
2.96727e-10
2.96727e-10
2.96727e-10
2.96727e-10
2.96727e-10
2.96727e-10
2.96727e-10
2.96727e-10
2.96727e-10
2.96727e-10
2.96727e-10
2.96727e-10
2.96727e-10
2.96727e-10
2.96727e-10
2.96727e-10
2.96727e-10
2.96727e-10
2.96727e-10
2.96727e-10
2.96727e-10
2.96727e-10
2.96727e-10
2.96727e-10
2.96727e-10
2.96727e-10
2.96727e-10
2.96727e-10
2.96727e-10
2.96727e-10
2.96727e-10
2.96727e-10
2.96727e-10
2.96727e-10
2.96727e-10
2.96727e-10
2.96727e-10
2.96727e-10
2.96727e-10
2.96727e-10
2.96727e-10
2.96727e-10
2.96727e-10
2.96727e-10
2.96727e-10
2.96727e-10
2.96727e-10
2.96727e-10
2.96727e-10
2.96727e-10
2.96727e-10
2.96727e-10
2.96727e-10
2.96727e-10
2.96727e-10
2.96727e-10
2.96727e-10
2.96727e-10
2.96727e-10
2.96727e-10
2.96727e-10
2.96727e-10
2.96727e-10
2.96727e-10
2.96727e-10
2.96727e-10
2.96727e-10
2.96727e-10
2.96727e-10
2.96727e-10
2.96727e-10
2.96727e-10
2.96727e-10
2.96727e-10
2.96727e-10
2.96727e-10
2.96727e-10
2.96727e-10
2.96727e-10
2.96727e-10
2.96727e-10
2.96727e-10
2.96727e-10
2.96727e-10
2.96727e-10
2.96727e-10
2.96727e-10
2.96727e-10
2.96727e-10
2.96727e-10
2.96727e-10
2.96727e-10
2.96727e-10
2.96727e-10
2.96727e-10
2.96727e-10
2.96727e-10
2.96727e-10
2.96727e-10
2.96727e-10
2.96727e-10
2.96727e-10
2.96727e-10
2.96727e-10
2.96727e-10
2.96727e-10
2.96727e-10
2.96727e-10
2.96727e-10
2.96727e-10
2.96727e-10
2.96727e-10
2.96727e-10
2.96727e-10
2.96727e-10
2.96727e-10
2.96727e-10
2.96727e-10
2.96727e-10
2.96727e-10
2.96727e-10
2.96727e-10
2.96727e-10
2.96727e-10
2.96727e-10
2.96727e-10
2.96727e-10
2.96727e-10
2.96727e-10
2.96727e-10
2.96727e-10
2.96727e-10
2.96727e-10
2.96727e-10
2.96727e-10
2.96727e-10
2.96727e-10
2.96727e-10
2.96727e-10
2.96727e-10
2.96727e-10
2.96727e-10
2.96727e-10
2.96727e-10
2.96727e-10
2.96727e-10
2.96727e-10
2.96727e-10
2.96727e-10
2.96727e-10
2.96727e-10
2.96727e-10
2.96727e-10
2.96727e-10
2.96727e-10
2.96727e-10
2.96727e-10
2.96727e-10
2.96727e-10
2.96727e-10
2.96727e-10
2.96727e-10
2.96727e-10
2.96727e-10
2.96727e-10
2.96727e-10
2.96727e-10
2.96727e-10
2.96727e-10
2.96727e-10
2.96727e-10
)
;

boundaryField
{
    inlet
    {
        type            calculated;
        value           uniform -1.13622e-09;
    }
    outlet
    {
        type            calculated;
        value           uniform 2.96727e-10;
    }
    emptyWalls
    {
        type            empty;
        value           nonuniform List<scalar> 0();
    }
}


// ************************************************************************* //
