/*--------------------------------*- C++ -*----------------------------------*\
  =========                 |
  \\      /  F ield         | OpenFOAM: The Open Source CFD Toolbox
   \\    /   O peration     | Website:  https://openfoam.org
    \\  /    A nd           | Version:  9
     \\/     M anipulation  |
\*---------------------------------------------------------------------------*/
FoamFile
{
    format      ascii;
    class       volVectorField;
    location    "3200";
    object      Ua;
}
// * * * * * * * * * * * * * * * * * * * * * * * * * * * * * * * * * * * * * //

dimensions      [0 0 0 0 0 0 0];

internalField   nonuniform List<vector> 
1000
(
(2.74616e-06 0 0)
(2.74041e-06 0 0)
(2.72305e-06 0 0)
(2.63643e-06 0 0)
(2.37086e-06 0 0)
(2.14195e-06 0 0)
(2.09447e-06 0 0)
(2.07557e-06 0 0)
(2.06457e-06 0 0)
(2.05671e-06 0 0)
(2.04937e-06 0 0)
(2.04432e-06 0 0)
(2.04279e-06 0 0)
(2.04217e-06 0 0)
(2.04166e-06 0 0)
(2.04128e-06 0 0)
(2.041e-06 0 0)
(2.04081e-06 0 0)
(2.04071e-06 0 0)
(2.04073e-06 0 0)
(2.04083e-06 0 0)
(2.04093e-06 0 0)
(2.0409e-06 0 0)
(2.04065e-06 0 0)
(2.04018e-06 0 0)
(2.03958e-06 0 0)
(2.03905e-06 0 0)
(2.03877e-06 0 0)
(2.03892e-06 0 0)
(2.03961e-06 0 0)
(2.04092e-06 0 0)
(2.0428e-06 0 0)
(2.04521e-06 0 0)
(2.04801e-06 0 0)
(2.05107e-06 0 0)
(2.05421e-06 0 0)
(2.05728e-06 0 0)
(2.06013e-06 0 0)
(2.0626e-06 0 0)
(2.06456e-06 0 0)
(2.06589e-06 0 0)
(2.06645e-06 0 0)
(2.06611e-06 0 0)
(2.06475e-06 0 0)
(2.06228e-06 0 0)
(2.05864e-06 0 0)
(2.05384e-06 0 0)
(2.04796e-06 0 0)
(2.04117e-06 0 0)
(2.03368e-06 0 0)
(2.02579e-06 0 0)
(2.01781e-06 0 0)
(2.01004e-06 0 0)
(2.00277e-06 0 0)
(1.99623e-06 0 0)
(1.99059e-06 0 0)
(1.98594e-06 0 0)
(1.9823e-06 0 0)
(1.97963e-06 0 0)
(1.97783e-06 0 0)
(1.97678e-06 0 0)
(1.97633e-06 0 0)
(1.9763e-06 0 0)
(1.97655e-06 0 0)
(1.97693e-06 0 0)
(1.97733e-06 0 0)
(1.97764e-06 0 0)
(1.9778e-06 0 0)
(1.97776e-06 0 0)
(1.97751e-06 0 0)
(1.97702e-06 0 0)
(1.97632e-06 0 0)
(1.97541e-06 0 0)
(1.97433e-06 0 0)
(1.97309e-06 0 0)
(1.97173e-06 0 0)
(1.97027e-06 0 0)
(1.96873e-06 0 0)
(1.96715e-06 0 0)
(1.96552e-06 0 0)
(1.96388e-06 0 0)
(1.96222e-06 0 0)
(1.96057e-06 0 0)
(1.95892e-06 0 0)
(1.95728e-06 0 0)
(1.95565e-06 0 0)
(1.95404e-06 0 0)
(1.95244e-06 0 0)
(1.95086e-06 0 0)
(1.94928e-06 0 0)
(1.94771e-06 0 0)
(1.94615e-06 0 0)
(1.94459e-06 0 0)
(1.94304e-06 0 0)
(1.9415e-06 0 0)
(1.93995e-06 0 0)
(1.93841e-06 0 0)
(1.93687e-06 0 0)
(1.93533e-06 0 0)
(1.9338e-06 0 0)
(1.93227e-06 0 0)
(1.93074e-06 0 0)
(1.92921e-06 0 0)
(1.92768e-06 0 0)
(1.92615e-06 0 0)
(1.92462e-06 0 0)
(1.92309e-06 0 0)
(1.92155e-06 0 0)
(1.92001e-06 0 0)
(1.91846e-06 0 0)
(1.91691e-06 0 0)
(1.91535e-06 0 0)
(1.91378e-06 0 0)
(1.91221e-06 0 0)
(1.91064e-06 0 0)
(1.90906e-06 0 0)
(1.9075e-06 0 0)
(1.90595e-06 0 0)
(1.90441e-06 0 0)
(1.90288e-06 0 0)
(1.90133e-06 0 0)
(1.8997e-06 0 0)
(1.89787e-06 0 0)
(1.89561e-06 0 0)
(1.89259e-06 0 0)
(1.88836e-06 0 0)
(1.88254e-06 0 0)
(1.87524e-06 0 0)
(1.86739e-06 0 0)
(1.86053e-06 0 0)
(1.8557e-06 0 0)
(1.85287e-06 0 0)
(1.85136e-06 0 0)
(1.85053e-06 0 0)
(1.85003e-06 0 0)
(1.84968e-06 0 0)
(1.84939e-06 0 0)
(1.84913e-06 0 0)
(1.84889e-06 0 0)
(1.84865e-06 0 0)
(1.84842e-06 0 0)
(1.84819e-06 0 0)
(1.84797e-06 0 0)
(1.84775e-06 0 0)
(1.84753e-06 0 0)
(1.84732e-06 0 0)
(1.84711e-06 0 0)
(1.84691e-06 0 0)
(1.84673e-06 0 0)
(1.84655e-06 0 0)
(1.84638e-06 0 0)
(1.84622e-06 0 0)
(1.84608e-06 0 0)
(1.84595e-06 0 0)
(1.84583e-06 0 0)
(1.84573e-06 0 0)
(1.84565e-06 0 0)
(1.8456e-06 0 0)
(1.84556e-06 0 0)
(1.84555e-06 0 0)
(1.84554e-06 0 0)
(1.84554e-06 0 0)
(1.84556e-06 0 0)
(1.84563e-06 0 0)
(1.84571e-06 0 0)
(1.84582e-06 0 0)
(1.84594e-06 0 0)
(1.84608e-06 0 0)
(1.84624e-06 0 0)
(1.84641e-06 0 0)
(1.8466e-06 0 0)
(1.84679e-06 0 0)
(1.847e-06 0 0)
(1.84722e-06 0 0)
(1.84744e-06 0 0)
(1.84767e-06 0 0)
(1.8479e-06 0 0)
(1.84814e-06 0 0)
(1.84838e-06 0 0)
(1.84861e-06 0 0)
(1.84885e-06 0 0)
(1.84908e-06 0 0)
(1.84931e-06 0 0)
(1.84953e-06 0 0)
(1.84975e-06 0 0)
(1.84997e-06 0 0)
(1.85018e-06 0 0)
(1.85038e-06 0 0)
(1.85058e-06 0 0)
(1.85077e-06 0 0)
(1.85096e-06 0 0)
(1.85114e-06 0 0)
(1.85131e-06 0 0)
(1.85148e-06 0 0)
(1.85164e-06 0 0)
(1.85179e-06 0 0)
(1.85194e-06 0 0)
(1.85209e-06 0 0)
(1.85223e-06 0 0)
(1.85237e-06 0 0)
(1.85252e-06 0 0)
(1.85267e-06 0 0)
(1.85284e-06 0 0)
(1.85302e-06 0 0)
(1.85323e-06 0 0)
(1.85348e-06 0 0)
(1.85378e-06 0 0)
(1.85413e-06 0 0)
(1.85455e-06 0 0)
(1.85506e-06 0 0)
(1.85565e-06 0 0)
(1.85634e-06 0 0)
(1.85715e-06 0 0)
(1.85808e-06 0 0)
(1.85914e-06 0 0)
(1.86033e-06 0 0)
(1.86166e-06 0 0)
(1.86313e-06 0 0)
(1.86474e-06 0 0)
(1.86647e-06 0 0)
(1.86834e-06 0 0)
(1.87033e-06 0 0)
(1.87242e-06 0 0)
(1.8746e-06 0 0)
(1.87686e-06 0 0)
(1.87918e-06 0 0)
(1.88154e-06 0 0)
(1.8839e-06 0 0)
(1.88625e-06 0 0)
(1.88855e-06 0 0)
(1.89077e-06 0 0)
(1.89288e-06 0 0)
(1.89483e-06 0 0)
(1.8966e-06 0 0)
(1.89813e-06 0 0)
(1.89939e-06 0 0)
(1.90034e-06 0 0)
(1.90094e-06 0 0)
(1.90122e-06 0 0)
(1.90129e-06 0 0)
(1.90126e-06 0 0)
(1.90094e-06 0 0)
(1.89983e-06 0 0)
(1.89804e-06 0 0)
(1.8959e-06 0 0)
(1.89338e-06 0 0)
(1.89053e-06 0 0)
(1.88739e-06 0 0)
(1.88403e-06 0 0)
(1.88052e-06 0 0)
(1.87692e-06 0 0)
(1.87331e-06 0 0)
(1.86975e-06 0 0)
(1.86631e-06 0 0)
(1.86305e-06 0 0)
(1.86001e-06 0 0)
(1.85724e-06 0 0)
(1.85476e-06 0 0)
(1.85259e-06 0 0)
(1.85073e-06 0 0)
(1.84919e-06 0 0)
(1.84796e-06 0 0)
(1.84702e-06 0 0)
(1.84635e-06 0 0)
(1.84593e-06 0 0)
(1.84573e-06 0 0)
(1.84566e-06 0 0)
(1.84566e-06 0 0)
(1.84576e-06 0 0)
(1.84612e-06 0 0)
(1.84668e-06 0 0)
(1.84728e-06 0 0)
(1.8479e-06 0 0)
(1.84854e-06 0 0)
(1.84917e-06 0 0)
(1.84978e-06 0 0)
(1.85037e-06 0 0)
(1.85092e-06 0 0)
(1.85143e-06 0 0)
(1.85188e-06 0 0)
(1.85229e-06 0 0)
(1.85264e-06 0 0)
(1.85295e-06 0 0)
(1.8532e-06 0 0)
(1.8534e-06 0 0)
(1.85355e-06 0 0)
(1.85366e-06 0 0)
(1.85372e-06 0 0)
(1.85376e-06 0 0)
(1.85377e-06 0 0)
(1.85377e-06 0 0)
(1.85374e-06 0 0)
(1.85367e-06 0 0)
(1.85355e-06 0 0)
(1.85343e-06 0 0)
(1.85328e-06 0 0)
(1.85313e-06 0 0)
(1.85296e-06 0 0)
(1.85278e-06 0 0)
(1.8526e-06 0 0)
(1.85241e-06 0 0)
(1.85221e-06 0 0)
(1.85201e-06 0 0)
(1.85181e-06 0 0)
(1.8516e-06 0 0)
(1.85139e-06 0 0)
(1.85118e-06 0 0)
(1.85096e-06 0 0)
(1.85075e-06 0 0)
(1.85054e-06 0 0)
(1.85033e-06 0 0)
(1.85013e-06 0 0)
(1.84992e-06 0 0)
(1.84972e-06 0 0)
(1.84952e-06 0 0)
(1.84933e-06 0 0)
(1.84914e-06 0 0)
(1.84895e-06 0 0)
(1.84877e-06 0 0)
(1.8486e-06 0 0)
(1.84843e-06 0 0)
(1.84826e-06 0 0)
(1.84811e-06 0 0)
(1.84795e-06 0 0)
(1.84781e-06 0 0)
(1.84767e-06 0 0)
(1.84754e-06 0 0)
(1.84742e-06 0 0)
(1.84731e-06 0 0)
(1.8472e-06 0 0)
(1.84711e-06 0 0)
(1.84702e-06 0 0)
(1.84695e-06 0 0)
(1.84689e-06 0 0)
(1.84684e-06 0 0)
(1.84681e-06 0 0)
(1.84679e-06 0 0)
(1.84678e-06 0 0)
(1.84677e-06 0 0)
(1.84678e-06 0 0)
(1.84679e-06 0 0)
(1.84684e-06 0 0)
(1.8469e-06 0 0)
(1.84698e-06 0 0)
(1.84707e-06 0 0)
(1.84718e-06 0 0)
(1.8473e-06 0 0)
(1.84743e-06 0 0)
(1.84757e-06 0 0)
(1.84771e-06 0 0)
(1.84787e-06 0 0)
(1.84803e-06 0 0)
(1.8482e-06 0 0)
(1.84836e-06 0 0)
(1.84853e-06 0 0)
(1.8487e-06 0 0)
(1.84887e-06 0 0)
(1.84903e-06 0 0)
(1.84919e-06 0 0)
(1.84935e-06 0 0)
(1.84949e-06 0 0)
(1.84963e-06 0 0)
(1.84975e-06 0 0)
(1.84987e-06 0 0)
(1.84997e-06 0 0)
(1.85006e-06 0 0)
(1.85013e-06 0 0)
(1.85019e-06 0 0)
(1.85023e-06 0 0)
(1.85025e-06 0 0)
(1.85027e-06 0 0)
(1.85027e-06 0 0)
(1.85027e-06 0 0)
(1.85025e-06 0 0)
(1.8502e-06 0 0)
(1.85013e-06 0 0)
(1.85005e-06 0 0)
(1.84995e-06 0 0)
(1.84985e-06 0 0)
(1.84973e-06 0 0)
(1.84961e-06 0 0)
(1.84948e-06 0 0)
(1.84934e-06 0 0)
(1.84921e-06 0 0)
(1.84907e-06 0 0)
(1.84894e-06 0 0)
(1.84881e-06 0 0)
(1.84869e-06 0 0)
(1.84857e-06 0 0)
(1.84846e-06 0 0)
(1.84837e-06 0 0)
(1.84828e-06 0 0)
(1.84821e-06 0 0)
(1.84815e-06 0 0)
(1.84811e-06 0 0)
(1.84809e-06 0 0)
(1.84808e-06 0 0)
(1.84808e-06 0 0)
(1.84808e-06 0 0)
(1.8481e-06 0 0)
(1.84816e-06 0 0)
(1.84824e-06 0 0)
(1.84835e-06 0 0)
(1.84847e-06 0 0)
(1.84862e-06 0 0)
(1.84879e-06 0 0)
(1.84899e-06 0 0)
(1.84921e-06 0 0)
(1.84947e-06 0 0)
(1.84975e-06 0 0)
(1.85007e-06 0 0)
(1.85042e-06 0 0)
(1.85082e-06 0 0)
(1.85126e-06 0 0)
(1.85175e-06 0 0)
(1.85229e-06 0 0)
(1.85288e-06 0 0)
(1.85354e-06 0 0)
(1.85425e-06 0 0)
(1.85504e-06 0 0)
(1.85589e-06 0 0)
(1.85681e-06 0 0)
(1.85781e-06 0 0)
(1.85888e-06 0 0)
(1.86003e-06 0 0)
(1.86126e-06 0 0)
(1.86255e-06 0 0)
(1.86392e-06 0 0)
(1.86536e-06 0 0)
(1.86686e-06 0 0)
(1.86841e-06 0 0)
(1.87001e-06 0 0)
(1.87165e-06 0 0)
(1.87332e-06 0 0)
(1.875e-06 0 0)
(1.87667e-06 0 0)
(1.87833e-06 0 0)
(1.87995e-06 0 0)
(1.88151e-06 0 0)
(1.88299e-06 0 0)
(1.88436e-06 0 0)
(1.8856e-06 0 0)
(1.88668e-06 0 0)
(1.88757e-06 0 0)
(1.88823e-06 0 0)
(1.88864e-06 0 0)
(1.88882e-06 0 0)
(1.88886e-06 0 0)
(1.88881e-06 0 0)
(1.88849e-06 0 0)
(1.88756e-06 0 0)
(1.88609e-06 0 0)
(1.88428e-06 0 0)
(1.88211e-06 0 0)
(1.87958e-06 0 0)
(1.87674e-06 0 0)
(1.87361e-06 0 0)
(1.87024e-06 0 0)
(1.86669e-06 0 0)
(1.863e-06 0 0)
(1.85924e-06 0 0)
(1.85547e-06 0 0)
(1.85176e-06 0 0)
(1.84815e-06 0 0)
(1.84469e-06 0 0)
(1.84145e-06 0 0)
(1.83844e-06 0 0)
(1.8357e-06 0 0)
(1.83326e-06 0 0)
(1.83112e-06 0 0)
(1.82928e-06 0 0)
(1.82775e-06 0 0)
(1.82652e-06 0 0)
(1.82558e-06 0 0)
(1.82491e-06 0 0)
(1.82449e-06 0 0)
(1.82428e-06 0 0)
(1.82422e-06 0 0)
(1.82421e-06 0 0)
(1.82433e-06 0 0)
(1.82476e-06 0 0)
(1.82541e-06 0 0)
(1.82613e-06 0 0)
(1.8269e-06 0 0)
(1.82772e-06 0 0)
(1.82856e-06 0 0)
(1.82941e-06 0 0)
(1.83026e-06 0 0)
(1.83109e-06 0 0)
(1.8319e-06 0 0)
(1.83267e-06 0 0)
(1.83339e-06 0 0)
(1.83408e-06 0 0)
(1.83471e-06 0 0)
(1.83529e-06 0 0)
(1.83582e-06 0 0)
(1.8363e-06 0 0)
(1.83672e-06 0 0)
(1.8371e-06 0 0)
(1.83742e-06 0 0)
(1.83771e-06 0 0)
(1.83795e-06 0 0)
(1.83815e-06 0 0)
(1.83831e-06 0 0)
(1.83844e-06 0 0)
(1.83855e-06 0 0)
(1.83863e-06 0 0)
(1.83868e-06 0 0)
(1.83872e-06 0 0)
(1.83874e-06 0 0)
(1.83874e-06 0 0)
(1.83875e-06 0 0)
(1.83874e-06 0 0)
(1.83873e-06 0 0)
(1.8387e-06 0 0)
(1.83867e-06 0 0)
(1.83862e-06 0 0)
(1.83857e-06 0 0)
(1.83851e-06 0 0)
(1.83844e-06 0 0)
(1.83837e-06 0 0)
(1.83829e-06 0 0)
(1.8382e-06 0 0)
(1.83811e-06 0 0)
(1.83801e-06 0 0)
(1.8379e-06 0 0)
(1.83774e-06 0 0)
(1.83733e-06 0 0)
(1.83353e-06 0 0)
(1.81685e-06 0 0)
(1.72858e-06 0 0)
(9.89949e-07 0 0)
(1.64768e-07 0 0)
(1.56671e-09 0 0)
(2.07836e-14 0 0)
(5.59725e-25 0 0)
(9.82024e-48 0 0)
(1.73432e-95 0 0)
(1.51015e-196 0 0)
(0 0 0)
(0 0 0)
(0 0 0)
(0 0 0)
(0 0 0)
(0 0 0)
(0 0 0)
(0 0 0)
(0 0 0)
(0 0 0)
(0 0 0)
(0 0 0)
(0 0 0)
(0 0 0)
(0 0 0)
(0 0 0)
(0 0 0)
(0 0 0)
(0 0 0)
(0 0 0)
(0 0 0)
(0 0 0)
(0 0 0)
(0 0 0)
(0 0 0)
(0 0 0)
(0 0 0)
(0 0 0)
(0 0 0)
(0 0 0)
(0 0 0)
(0 0 0)
(0 0 0)
(0 0 0)
(0 0 0)
(0 0 0)
(0 0 0)
(0 0 0)
(0 0 0)
(0 0 0)
(0 0 0)
(0 0 0)
(0 0 0)
(0 0 0)
(0 0 0)
(0 0 0)
(0 0 0)
(0 0 0)
(0 0 0)
(0 0 0)
(0 0 0)
(0 0 0)
(0 0 0)
(0 0 0)
(0 0 0)
(0 0 0)
(0 0 0)
(0 0 0)
(0 0 0)
(0 0 0)
(0 0 0)
(0 0 0)
(0 0 0)
(0 0 0)
(0 0 0)
(0 0 0)
(0 0 0)
(0 0 0)
(0 0 0)
(0 0 0)
(0 0 0)
(0 0 0)
(0 0 0)
(0 0 0)
(0 0 0)
(0 0 0)
(0 0 0)
(0 0 0)
(0 0 0)
(0 0 0)
(0 0 0)
(0 0 0)
(0 0 0)
(0 0 0)
(0 0 0)
(0 0 0)
(0 0 0)
(0 0 0)
(0 0 0)
(0 0 0)
(0 0 0)
(0 0 0)
(0 0 0)
(0 0 0)
(0 0 0)
(0 0 0)
(0 0 0)
(0 0 0)
(0 0 0)
(0 0 0)
(0 0 0)
(0 0 0)
(0 0 0)
(0 0 0)
(0 0 0)
(0 0 0)
(0 0 0)
(0 0 0)
(0 0 0)
(0 0 0)
(0 0 0)
(0 0 0)
(0 0 0)
(0 0 0)
(0 0 0)
(0 0 0)
(0 0 0)
(0 0 0)
(0 0 0)
(0 0 0)
(0 0 0)
(0 0 0)
(0 0 0)
(0 0 0)
(0 0 0)
(0 0 0)
(0 0 0)
(0 0 0)
(0 0 0)
(0 0 0)
(0 0 0)
(0 0 0)
(0 0 0)
(0 0 0)
(0 0 0)
(0 0 0)
(0 0 0)
(0 0 0)
(0 0 0)
(0 0 0)
(0 0 0)
(0 0 0)
(0 0 0)
(0 0 0)
(0 0 0)
(0 0 0)
(0 0 0)
(0 0 0)
(0 0 0)
(0 0 0)
(0 0 0)
(0 0 0)
(0 0 0)
(0 0 0)
(0 0 0)
(0 0 0)
(0 0 0)
(0 0 0)
(0 0 0)
(0 0 0)
(0 0 0)
(0 0 0)
(0 0 0)
(0 0 0)
(0 0 0)
(0 0 0)
(0 0 0)
(0 0 0)
(0 0 0)
(0 0 0)
(0 0 0)
(0 0 0)
(0 0 0)
(0 0 0)
(0 0 0)
(0 0 0)
(0 0 0)
(0 0 0)
(0 0 0)
(0 0 0)
(0 0 0)
(0 0 0)
(0 0 0)
(0 0 0)
(0 0 0)
(0 0 0)
(0 0 0)
(0 0 0)
(0 0 0)
(0 0 0)
(0 0 0)
(0 0 0)
(0 0 0)
(0 0 0)
(0 0 0)
(0 0 0)
(0 0 0)
(0 0 0)
(0 0 0)
(0 0 0)
(0 0 0)
(0 0 0)
(0 0 0)
(0 0 0)
(0 0 0)
(0 0 0)
(0 0 0)
(0 0 0)
(0 0 0)
(0 0 0)
(0 0 0)
(0 0 0)
(0 0 0)
(0 0 0)
(0 0 0)
(0 0 0)
(0 0 0)
(0 0 0)
(0 0 0)
(0 0 0)
(0 0 0)
(0 0 0)
(0 0 0)
(0 0 0)
(0 0 0)
(0 0 0)
(0 0 0)
(0 0 0)
(0 0 0)
(0 0 0)
(0 0 0)
(0 0 0)
(0 0 0)
(0 0 0)
(0 0 0)
(0 0 0)
(0 0 0)
(0 0 0)
(0 0 0)
(0 0 0)
(0 0 0)
(0 0 0)
(0 0 0)
(0 0 0)
(0 0 0)
(0 0 0)
(0 0 0)
(0 0 0)
(0 0 0)
(0 0 0)
(0 0 0)
(0 0 0)
(0 0 0)
(0 0 0)
(0 0 0)
(0 0 0)
(0 0 0)
(0 0 0)
(0 0 0)
(0 0 0)
(0 0 0)
(0 0 0)
(0 0 0)
(0 0 0)
(0 0 0)
(0 0 0)
(0 0 0)
(0 0 0)
(0 0 0)
(0 0 0)
(0 0 0)
(0 0 0)
(0 0 0)
(0 0 0)
(0 0 0)
(0 0 0)
(0 0 0)
(0 0 0)
(0 0 0)
(0 0 0)
(0 0 0)
(0 0 0)
(0 0 0)
(0 0 0)
(0 0 0)
(0 0 0)
(0 0 0)
(0 0 0)
(0 0 0)
(0 0 0)
(0 0 0)
(0 0 0)
(0 0 0)
(0 0 0)
(0 0 0)
(0 0 0)
(0 0 0)
(0 0 0)
(0 0 0)
(0 0 0)
(0 0 0)
(0 0 0)
(0 0 0)
(0 0 0)
(0 0 0)
(0 0 0)
(0 0 0)
(0 0 0)
(0 0 0)
(0 0 0)
(0 0 0)
(0 0 0)
(0 0 0)
(0 0 0)
(0 0 0)
(0 0 0)
(0 0 0)
(0 0 0)
(0 0 0)
(0 0 0)
(0 0 0)
(0 0 0)
(0 0 0)
(0 0 0)
(0 0 0)
(0 0 0)
(0 0 0)
(0 0 0)
(0 0 0)
(0 0 0)
(0 0 0)
(0 0 0)
(0 0 0)
(0 0 0)
(0 0 0)
(0 0 0)
(0 0 0)
(0 0 0)
(0 0 0)
(0 0 0)
(0 0 0)
(0 0 0)
(0 0 0)
(0 0 0)
(0 0 0)
(0 0 0)
(0 0 0)
(0 0 0)
(0 0 0)
(0 0 0)
(0 0 0)
(0 0 0)
(0 0 0)
(0 0 0)
(0 0 0)
(0 0 0)
(0 0 0)
(0 0 0)
(0 0 0)
(0 0 0)
(0 0 0)
(0 0 0)
(0 0 0)
(0 0 0)
(0 0 0)
(0 0 0)
(0 0 0)
(0 0 0)
(0 0 0)
(0 0 0)
(0 0 0)
(0 0 0)
(0 0 0)
(0 0 0)
(0 0 0)
(0 0 0)
(0 0 0)
(0 0 0)
(0 0 0)
(0 0 0)
(0 0 0)
(0 0 0)
(0 0 0)
(0 0 0)
(0 0 0)
(0 0 0)
(0 0 0)
(0 0 0)
(0 0 0)
(0 0 0)
(0 0 0)
(0 0 0)
(0 0 0)
(0 0 0)
(0 0 0)
(0 0 0)
(0 0 0)
(0 0 0)
(0 0 0)
(0 0 0)
(0 0 0)
(0 0 0)
(0 0 0)
(0 0 0)
(0 0 0)
(0 0 0)
(0 0 0)
(0 0 0)
(0 0 0)
(0 0 0)
(0 0 0)
(0 0 0)
(0 0 0)
(0 0 0)
(0 0 0)
(0 0 0)
(0 0 0)
(0 0 0)
(0 0 0)
(0 0 0)
(0 0 0)
(0 0 0)
(0 0 0)
(0 0 0)
(0 0 0)
(0 0 0)
(0 0 0)
(0 0 0)
(0 0 0)
(0 0 0)
(0 0 0)
(0 0 0)
(0 0 0)
(0 0 0)
(0 0 0)
(0 0 0)
(0 0 0)
(0 0 0)
(0 0 0)
(0 0 0)
(0 0 0)
(0 0 0)
(0 0 0)
(0 0 0)
(0 0 0)
(0 0 0)
(0 0 0)
(0 0 0)
(0 0 0)
(0 0 0)
(0 0 0)
(0 0 0)
(0 0 0)
(0 0 0)
(0 0 0)
(0 0 0)
(0 0 0)
(0 0 0)
(0 0 0)
(0 0 0)
(0 0 0)
)
;

boundaryField
{
    inlet
    {
        type            fixedValue;
        value           uniform (2.74882e-06 0 0);
    }
    outlet
    {
        type            zeroGradient;
    }
    emptyWalls
    {
        type            empty;
    }
}


// ************************************************************************* //
