/*--------------------------------*- C++ -*----------------------------------*\
  =========                 |
  \\      /  F ield         | OpenFOAM: The Open Source CFD Toolbox
   \\    /   O peration     | Website:  https://openfoam.org
    \\  /    A nd           | Version:  9
     \\/     M anipulation  |
\*---------------------------------------------------------------------------*/
FoamFile
{
    format      ascii;
    class       volScalarField;
    location    "27600";
    object      Fa;
}
// * * * * * * * * * * * * * * * * * * * * * * * * * * * * * * * * * * * * * //

dimensions      [0 0 0 0 0 0 0];

internalField   nonuniform List<scalar> 
1000
(
0.194796
0.194798
0.194801
0.19479
0.19478
0.194779
0.194737
0.194757
0.194682
0.194725
0.19462
0.194677
0.194557
0.194602
0.194505
0.194506
0.194448
0.19441
0.194364
0.194316
0.194259
0.194212
0.194157
0.194106
0.194062
0.194006
0.193978
0.193906
0.193917
0.193815
0.193867
0.193755
0.193805
0.19372
0.193734
0.193666
0.193567
0.193105
0.190359
0.168833
0.153838
0.151163
0.15017
0.149638
0.149283
0.149013
0.148792
0.148605
0.148449
0.148317
0.148195
0.148072
0.147944
0.147819
0.147711
0.147632
0.14758
0.14754
0.147488
0.147403
0.147287
0.147165
0.147054
0.146967
0.146978
0.147093
0.147293
0.147559
0.147859
0.148154
0.14841
0.148601
0.148718
0.148764
0.148761
0.148735
0.148706
0.148641
0.14837
0.148045
0.147692
0.14733
0.14701
0.146709
0.146453
0.146244
0.14608
0.145955
0.145864
0.145801
0.145761
0.145737
0.145724
0.145716
0.145708
0.145698
0.145684
0.145664
0.145638
0.145607
0.145572
0.145534
0.145494
0.145452
0.14541
0.145368
0.145328
0.14529
0.145254
0.145221
0.145188
0.145155
0.145123
0.145091
0.145059
0.145028
0.144998
0.144968
0.144939
0.144911
0.144884
0.144857
0.144832
0.144808
0.144785
0.144763
0.144741
0.144721
0.144702
0.144683
0.144664
0.144646
0.144629
0.144613
0.144598
0.144584
0.144571
0.14456
0.144551
0.144544
0.144537
0.144532
0.144527
0.144522
0.144518
0.144513
0.144508
0.144502
0.144497
0.144492
0.144489
0.144487
0.144488
0.144491
0.144495
0.144502
0.144508
0.144515
0.144521
0.144526
0.144529
0.14453
0.144528
0.144524
0.144518
0.144511
0.144507
0.144508
0.144518
0.144539
0.144576
0.14463
0.144701
0.14479
0.144896
0.145016
0.145148
0.145289
0.145437
0.145588
0.14574
0.145889
0.146031
0.146163
0.146281
0.14638
0.146457
0.146508
0.146532
0.146528
0.146494
0.146432
0.146344
0.146234
0.146106
0.145964
0.145813
0.145658
0.145504
0.145355
0.145213
0.145083
0.144965
0.14486
0.144769
0.144692
0.144627
0.144575
0.144532
0.144498
0.144471
0.14445
0.144433
0.144418
0.144405
0.144392
0.144379
0.144365
0.144349
0.144332
0.144313
0.144292
0.144269
0.144245
0.144219
0.144192
0.144164
0.144134
0.144104
0.144074
0.144043
0.144012
0.143981
0.14395
0.143919
0.143889
0.143859
0.143829
0.1438
0.143771
0.143743
0.143716
0.143689
0.143663
0.143638
0.143613
0.143589
0.143566
0.143544
0.143522
0.143501
0.14348
0.14346
0.143442
0.143423
0.143406
0.143389
0.143374
0.143359
0.143345
0.143332
0.14332
0.143308
0.143298
0.143288
0.143279
0.14327
0.143263
0.143254
0.143248
0.14324
0.143235
0.143227
0.143224
0.143218
0.143216
0.143211
0.143211
0.143208
0.14321
0.143207
0.14321
0.143208
0.143211
0.143209
0.14321
0.143207
0.143208
0.143204
0.143204
0.143201
0.143203
0.143203
0.143211
0.143218
0.143234
0.143252
0.143281
0.143313
0.143357
0.143406
0.143466
0.143532
0.143608
0.143689
0.143779
0.143873
0.143973
0.144075
0.144179
0.144282
0.144383
0.14448
0.144571
0.144654
0.144727
0.144789
0.144838
0.144872
0.144892
0.144895
0.144883
0.144855
0.144812
0.144756
0.144686
0.144606
0.144516
0.144419
0.144318
0.144213
0.144108
0.144003
0.143901
0.143803
0.143709
0.143621
0.14354
0.143465
0.143397
0.143336
0.143281
0.143232
0.143188
0.143149
0.143115
0.143084
0.143056
0.14303
0.143006
0.142984
0.142962
0.142941
0.14292
0.142899
0.142878
0.142855
0.142833
0.14281
0.142786
0.142761
0.142736
0.14271
0.142684
0.142656
0.142629
0.142601
0.142574
0.142546
0.142518
0.14249
0.142462
0.142434
0.142407
0.14238
0.142353
0.142326
0.142301
0.142275
0.142251
0.142225
0.142202
0.142178
0.142156
0.142132
0.142112
0.14209
0.14207
0.142049
0.14203
0.142011
0.141994
0.141975
0.141959
0.141942
0.141928
0.141912
0.141899
0.141884
0.141872
0.141859
0.141848
0.141836
0.141826
0.141815
0.141806
0.141796
0.141789
0.141779
0.141773
0.141764
0.141759
0.141751
0.141748
0.14174
0.141738
0.141731
0.14173
0.141724
0.141723
0.141717
0.141717
0.141711
0.141712
0.141706
0.141707
0.141701
0.141703
0.141698
0.141702
0.141698
0.141704
0.141703
0.141714
0.141717
0.141733
0.141743
0.141766
0.141783
0.141815
0.141841
0.141883
0.141918
0.14197
0.142015
0.142076
0.14213
0.1422
0.142261
0.142337
0.142403
0.142483
0.14255
0.142631
0.142696
0.142773
0.142832
0.142903
0.142951
0.14301
0.143045
0.14309
0.143107
0.143135
0.143134
0.143143
0.143121
0.143112
0.143071
0.143044
0.142986
0.142944
0.142871
0.142817
0.142734
0.142672
0.142582
0.142517
0.142425
0.142359
0.142269
0.142206
0.14212
0.142063
0.141983
0.141932
0.141861
0.141817
0.141753
0.141716
0.14166
0.141629
0.141581
0.141554
0.141512
0.141489
0.141452
0.141432
0.141398
0.14138
0.141349
0.141331
0.141302
0.141284
0.141256
0.141237
0.141209
0.14119
0.141162
0.141142
0.141114
0.141094
0.141065
0.141044
0.141015
0.140994
0.140964
0.140943
0.140913
0.140892
0.140861
0.140841
0.14081
0.140791
0.140759
0.140742
0.14071
0.140694
0.140661
0.140647
0.140614
0.140602
0.140568
0.140558
0.140524
0.140516
0.140482
0.140476
0.140442
0.140438
0.140403
0.140403
0.140367
0.140369
0.140333
0.140337
0.140301
0.140307
0.140271
0.140279
0.140243
0.140253
0.140217
0.140229
0.140194
0.140206
0.140172
0.140186
0.140151
0.140167
0.140133
0.140149
0.140116
0.140133
0.140101
0.140119
0.140088
0.140106
0.140075
0.140095
0.140064
0.140084
0.140054
0.140075
0.140046
0.140067
0.140038
0.14006
0.140032
0.140055
0.140029
0.140054
0.140029
0.140056
0.140034
0.140064
0.140046
0.14008
0.140066
0.140104
0.140095
0.140139
0.140135
0.140185
0.140187
0.140244
0.140252
0.140315
0.14033
0.140398
0.140419
0.140492
0.140517
0.140595
0.140623
0.140704
0.140733
0.140814
0.140844
0.140923
0.14095
0.141026
0.141048
0.141118
0.141132
0.141194
0.1412
0.141252
0.141247
0.141287
0.14127
0.141298
0.141268
0.141283
0.14124
0.141243
0.141188
0.141179
0.141114
0.141095
0.14102
0.140993
0.140912
0.140879
0.140793
0.140757
0.140668
0.140631
0.140542
0.140505
0.140418
0.140384
0.140299
0.140269
0.140188
0.140161
0.140085
0.140063
0.139991
0.139974
0.139907
0.139894
0.139831
0.139822
0.139762
0.139756
0.139699
0.139696
0.139641
0.13964
0.139587
0.139587
0.139535
0.139536
0.139485
0.139487
0.139436
0.139438
0.139387
0.139389
0.139338
0.13934
0.139289
0.139291
0.13924
0.139242
0.13919
0.139192
0.139141
0.139143
0.139091
0.139093
0.139042
0.139044
0.138993
0.138995
0.138945
0.138948
0.138897
0.138901
0.138851
0.138855
0.138806
0.13881
0.138762
0.138767
0.138719
0.138726
0.138678
0.138686
0.138639
0.138647
0.138602
0.138611
0.138566
0.138576
0.138532
0.138543
0.1385
0.138512
0.13847
0.138482
0.138441
0.138455
0.138414
0.138429
0.138389
0.138404
0.138366
0.138382
0.138344
0.138361
0.138323
0.138341
0.138304
0.138323
0.138287
0.138306
0.138271
0.138291
0.138256
0.138277
0.138243
0.138264
0.13823
0.138252
0.138219
0.138242
0.13821
0.138234
0.138203
0.138227
0.138198
0.138224
0.138195
0.138223
0.138197
0.138227
0.138203
0.138236
0.138214
0.13825
0.138232
0.138271
0.138257
0.1383
0.138289
0.138336
0.13833
0.138382
0.138379
0.138435
0.138437
0.138497
0.138503
0.138566
0.138575
0.138642
0.138654
0.138723
0.138736
0.138806
0.13882
0.138891
0.138904
0.138973
0.138985
0.139051
0.13906
0.139122
0.139126
0.139183
0.139181
0.139232
0.139223
0.139266
0.139249
0.139284
0.139258
0.139284
0.139249
0.139266
0.139222
0.139231
0.139178
0.139179
0.139118
0.139111
0.139044
0.13903
0.138957
0.138939
0.138861
0.138839
0.138759
0.138735
0.138653
0.138628
0.138545
0.138521
0.138439
0.138415
0.138335
0.138314
0.138236
0.138218
0.138142
0.138127
0.138054
0.138042
0.137972
0.137963
0.137896
0.13789
0.137826
0.137821
0.13776
0.137758
0.137698
0.137698
0.13764
0.137641
0.137584
0.137587
0.137531
0.137535
0.137479
0.137484
0.137428
0.137433
0.137378
0.137384
0.137329
0.137335
0.137279
0.137286
0.13723
0.137237
0.137181
0.137188
0.137133
0.13714
0.137084
0.137092
0.137036
0.137044
0.136989
0.136997
0.136942
0.13695
0.136896
0.136905
0.136851
0.13686
0.136807
0.136817
0.136764
0.136774
0.136722
0.136733
0.136681
0.136693
0.136642
0.136655
0.136604
0.136618
0.136568
0.136583
0.136533
0.136549
0.1365
0.136516
0.136468
0.136485
0.136438
0.136456
0.136409
0.136428
0.136382
0.136401
0.136356
0.136376
0.136332
0.136352
0.136308
0.13633
0.136286
0.136309
0.136265
0.136289
0.136246
0.136271
0.136227
0.136254
0.136209
0.136238
0.136193
0.136223
0.136178
0.13621
0.136164
0.136199
0.136152
0.136189
0.136141
0.136181
0.136133
0.136176
0.136127
0.136173
0.136125
0.136174
0.136126
0.136179
0.136131
0.136188
0.136141
0.136202
0.136155
0.136221
0.136176
0.136246
0.136202
0.136277
0.136234
0.136314
0.136272
0.136357
0.136316
0.136405
0.136365
0.136457
0.136419
0.136514
0.136476
0.136574
0.136536
0.136635
0.136596
0.136698
0.136657
0.136759
0.136716
0.136819
0.136772
0.136875
0.136824
0.136925
0.136869
0.136969
0.136906
0.137004
0.136933
0.137028
0.136948
0.137042
0.136953
0.137043
0.136945
0.137033
0.136925
0.13701
0.13689
0.136968
0.13684
0.136914
0.13678
0.136849
0.13671
0.136775
0.136631
0.136693
0.136544
0.136604
0.136453
0.136512
0.136358
0.136417
0.136261
0.136322
0.136165
0.136227
0.136069
0.136133
0.135976
0.136043
0.135885
0.135955
0.135687
0.984265
)
;

boundaryField
{
    inlet
    {
        type            calculated;
        value           uniform 0.194831;
    }
    outlet
    {
        type            calculated;
        value           uniform 0.0305023;
    }
    emptyWalls
    {
        type            empty;
    }
}


// ************************************************************************* //
