/*--------------------------------*- C++ -*----------------------------------*\
  =========                 |
  \\      /  F ield         | OpenFOAM: The Open Source CFD Toolbox
   \\    /   O peration     | Website:  https://openfoam.org
    \\  /    A nd           | Version:  9
     \\/     M anipulation  |
\*---------------------------------------------------------------------------*/
FoamFile
{
    format      ascii;
    class       volScalarField;
    location    "27600";
    object      kra;
}
// * * * * * * * * * * * * * * * * * * * * * * * * * * * * * * * * * * * * * //

dimensions      [0 0 0 0 0 0 0];

internalField   nonuniform List<scalar> 
1000
(
0.000236611
0.00023733
0.00023828
0.000239236
0.000240196
0.000241166
0.000242124
0.000243121
0.000244081
0.000245111
0.000246079
0.00024714
0.000248122
0.000249199
0.000250212
0.000251283
0.000252328
0.000253385
0.000254435
0.000255475
0.000256496
0.000257499
0.000258467
0.000259399
0.000260287
0.000261113
0.000261893
0.000262583
0.000263252
0.00026379
0.000264352
0.000264761
0.00026521
0.000265543
0.000265945
0.000266521
0.000268226
0.000274438
0.000303417
0.000510889
0.0008139
0.000877022
0.000894725
0.0009027
0.000907439
0.000910751
0.000913297
0.000915402
0.000917239
0.000918882
0.000920324
0.000921532
0.000922512
0.000923346
0.000924151
0.000925024
0.000925962
0.000926876
0.000927614
0.000928033
0.000928156
0.000928158
0.000928163
0.00092827
0.000928997
0.000930409
0.000932357
0.000934731
0.000937303
0.000939805
0.00094199
0.000943684
0.000944809
0.000945405
0.000945609
0.000945623
0.00094558
0.000945242
0.000943412
0.000941166
0.000938684
0.000936114
0.000933811
0.000931608
0.000929697
0.000928085
0.000926764
0.000925693
0.000924833
0.00092414
0.000923574
0.000923092
0.000922652
0.000922214
0.000921744
0.000921216
0.000920613
0.000919927
0.000919149
0.000918282
0.000917317
0.000916255
0.000915083
0.000913793
0.000912361
0.000910773
0.000909005
0.000907056
0.000904925
0.000902648
0.000900259
0.000897797
0.000895289
0.000892752
0.000890201
0.000887643
0.000885087
0.000882537
0.000879996
0.000877469
0.000874958
0.000872465
0.000869991
0.000867537
0.000865104
0.000862692
0.000860302
0.000857932
0.000855583
0.000853253
0.000850942
0.000848651
0.000846379
0.000844129
0.0008419
0.000839696
0.000837517
0.000835363
0.000833235
0.000831131
0.00082905
0.000826989
0.000824946
0.000822918
0.000820904
0.000818902
0.000816913
0.000814936
0.000812973
0.000811027
0.000809102
0.000807202
0.000805327
0.000803479
0.000801656
0.000799853
0.000798067
0.000796293
0.000794526
0.000792763
0.000791001
0.000789236
0.000787467
0.000785693
0.00078392
0.000782157
0.000780417
0.00077872
0.000777087
0.000775537
0.000774087
0.000772749
0.000771526
0.000770417
0.000769414
0.000768505
0.000767674
0.000766907
0.000766184
0.000765489
0.000764803
0.000764105
0.000763374
0.000762587
0.000761722
0.000760756
0.000759668
0.00075844
0.000757058
0.000755517
0.000753816
0.000751963
0.00074997
0.000747859
0.000745653
0.00074338
0.000741069
0.000738746
0.000736439
0.000734171
0.000731959
0.000729819
0.00072776
0.000725787
0.000723902
0.000722103
0.000720385
0.000718741
0.000717162
0.00071564
0.000714165
0.000712728
0.00071132
0.000709935
0.000708564
0.000707203
0.000705847
0.000704492
0.000703137
0.00070178
0.000700419
0.000699055
0.000697688
0.000696318
0.000694947
0.000693576
0.000692204
0.000690835
0.000689468
0.000688106
0.000686747
0.000685394
0.000684048
0.000682708
0.000681375
0.00068005
0.000678733
0.000677425
0.000676125
0.000674835
0.000673553
0.000672281
0.000671018
0.000669765
0.000668521
0.000667287
0.000666062
0.000664846
0.000663639
0.000662441
0.000661251
0.000660072
0.0006589
0.000657739
0.000656584
0.000655441
0.000654305
0.000653182
0.000652064
0.000650961
0.000649861
0.000648777
0.000647695
0.000646629
0.000645563
0.000644513
0.000643462
0.000642427
0.000641388
0.000640368
0.000639341
0.000638336
0.000637322
0.000636333
0.000635333
0.00063436
0.000633376
0.00063242
0.000631452
0.000630512
0.000629556
0.00062863
0.000627684
0.000626765
0.000625825
0.00062491
0.000623972
0.000623059
0.000622125
0.000621218
0.000620296
0.000619405
0.000618507
0.000617647
0.000616791
0.000615981
0.000615184
0.00061444
0.00061372
0.000613054
0.000612419
0.000611838
0.000611289
0.00061079
0.000610321
0.000609893
0.000609488
0.000609112
0.000608747
0.000608395
0.00060804
0.00060768
0.0006073
0.000606896
0.000606455
0.000605971
0.000605433
0.000604838
0.000604177
0.000603449
0.000602649
0.000601778
0.000600836
0.000599828
0.000598758
0.000597634
0.000596461
0.000595251
0.000594012
0.000592754
0.000591487
0.000590219
0.000588959
0.000587715
0.000586492
0.000585297
0.00058413
0.000582998
0.000581898
0.000580834
0.000579802
0.000578804
0.000577835
0.000576895
0.00057598
0.000575087
0.000574213
0.000573356
0.000572511
0.000571679
0.000570854
0.000570037
0.000569223
0.000568414
0.000567605
0.0005668
0.000565992
0.000565188
0.00056438
0.000563574
0.000562765
0.000561959
0.000561149
0.000560344
0.000559534
0.00055873
0.000557923
0.000557122
0.000556318
0.000555521
0.000554722
0.000553931
0.000553138
0.000552354
0.000551568
0.000550792
0.000550014
0.000549246
0.000548476
0.000547718
0.000546957
0.000546207
0.000545456
0.000544715
0.000543973
0.000543242
0.000542509
0.000541788
0.000541065
0.000540353
0.000539639
0.000538938
0.000538233
0.000537542
0.000536847
0.000536165
0.00053548
0.000534808
0.000534132
0.000533469
0.000532803
0.000532149
0.000531491
0.000530846
0.000530195
0.000529559
0.000528916
0.000528288
0.000527653
0.000527033
0.000526405
0.000525794
0.000525173
0.000524571
0.000523956
0.000523362
0.000522754
0.000522168
0.000521565
0.000520986
0.000520388
0.000519815
0.00051922
0.000518652
0.00051806
0.000517498
0.00051691
0.000516355
0.000515773
0.000515227
0.000514654
0.000514123
0.000513564
0.000513053
0.000512515
0.00051203
0.00051152
0.000511067
0.00051059
0.000510175
0.000509737
0.000509364
0.000508966
0.000508636
0.000508279
0.00050799
0.000507671
0.000507418
0.000507129
0.000506905
0.000506636
0.000506429
0.000506169
0.000505966
0.000505698
0.000505484
0.000505194
0.000504952
0.000504623
0.000504339
0.000503957
0.000503617
0.00050317
0.000502764
0.000502244
0.000501767
0.000501171
0.000500623
0.000499953
0.000499339
0.000498604
0.000497934
0.000497145
0.000496432
0.000495605
0.000494866
0.000494018
0.000493268
0.000492415
0.000491668
0.000490825
0.000490093
0.000489271
0.000488562
0.000487769
0.000487089
0.00048633
0.00048568
0.000484957
0.000484336
0.000483645
0.00048305
0.000482391
0.000481818
0.000481185
0.000480629
0.000480018
0.000479474
0.00047888
0.000478344
0.000477764
0.000477233
0.000476662
0.000476133
0.000475568
0.000475041
0.00047448
0.000473952
0.000473393
0.000472865
0.000472308
0.00047178
0.000471223
0.000470696
0.00047014
0.000469615
0.000469059
0.000468536
0.000467981
0.000467462
0.000466907
0.000466394
0.00046584
0.000465333
0.000464779
0.000464279
0.000463727
0.000463235
0.000462683
0.0004622
0.000461649
0.000461176
0.000460625
0.000460162
0.000459612
0.000459159
0.00045861
0.000458168
0.000457619
0.000457188
0.00045664
0.00045622
0.000455673
0.000455263
0.000454718
0.000454318
0.000453775
0.000453385
0.000452843
0.000452462
0.000451923
0.00045155
0.000451014
0.000450649
0.000450117
0.000449758
0.00044923
0.000448878
0.000448353
0.000448007
0.000447486
0.000447145
0.000446629
0.000446293
0.000445782
0.00044545
0.000444943
0.000444616
0.000444113
0.000443789
0.00044329
0.00044297
0.000442475
0.000442159
0.000441667
0.000441355
0.000440867
0.000440559
0.000440077
0.000439775
0.000439299
0.000439004
0.000438536
0.000438251
0.000437794
0.000437521
0.000437077
0.000436819
0.000436392
0.000436152
0.000435743
0.000435523
0.000435136
0.000434938
0.000434574
0.000434399
0.000434058
0.000433906
0.000433587
0.000433457
0.000433159
0.000433047
0.000432766
0.00043267
0.000432401
0.000432314
0.000432051
0.000431967
0.000431705
0.000431617
0.000431346
0.000431246
0.000430959
0.00043084
0.00043053
0.000430383
0.000430043
0.000429863
0.000429486
0.000429268
0.000428851
0.000428591
0.000428133
0.00042783
0.000427329
0.000426986
0.000426445
0.000426064
0.000425488
0.000425075
0.00042447
0.000424031
0.000423405
0.000422948
0.000422308
0.000421841
0.000421196
0.000420727
0.000420083
0.000419618
0.000418981
0.000418526
0.000417901
0.000417459
0.000416849
0.000416423
0.00041583
0.000415421
0.000414845
0.000414454
0.000413894
0.000413518
0.000412974
0.000412612
0.000412081
0.000411732
0.000411212
0.000410873
0.000410362
0.000410031
0.000409527
0.000409202
0.000408704
0.000408383
0.000407889
0.000407571
0.000407079
0.000406763
0.000406274
0.000405959
0.000405471
0.000405158
0.00040467
0.000404358
0.000403871
0.00040356
0.000403074
0.000402764
0.00040228
0.00040197
0.000401488
0.00040118
0.000400699
0.000400393
0.000399915
0.000399611
0.000399135
0.000398834
0.00039836
0.000398062
0.000397592
0.000397297
0.00039683
0.000396538
0.000396074
0.000395786
0.000395326
0.000395041
0.000394585
0.000394304
0.000393852
0.000393575
0.000393127
0.000392854
0.00039241
0.000392141
0.0003917
0.000391435
0.000390999
0.000390738
0.000390306
0.000390048
0.00038962
0.000389366
0.000388942
0.000388692
0.000388271
0.000388025
0.000387608
0.000387366
0.000386952
0.000386713
0.000386303
0.000386067
0.000385661
0.000385428
0.000385025
0.000384795
0.000384395
0.000384168
0.000383771
0.000383547
0.000383153
0.000382932
0.00038254
0.000382323
0.000381934
0.00038172
0.000381335
0.000381124
0.000380743
0.000380537
0.00038016
0.000379959
0.000379588
0.000379393
0.000379029
0.000378842
0.000378486
0.000378307
0.000377961
0.000377792
0.000377456
0.000377298
0.000376975
0.00037683
0.000376519
0.000376387
0.00037609
0.000375972
0.000375689
0.000375584
0.000375314
0.000375222
0.000374965
0.000374884
0.000374638
0.000374567
0.000374329
0.000374265
0.000374033
0.000373974
0.000373744
0.000373685
0.000373454
0.000373392
0.000373155
0.000373086
0.00037284
0.000372759
0.000372499
0.000372403
0.000372126
0.000372011
0.000371713
0.000371576
0.000371254
0.000371092
0.000370746
0.000370558
0.000370185
0.000369971
0.000369572
0.000369332
0.000368909
0.000368645
0.000368198
0.000367913
0.000367447
0.000367145
0.000366663
0.000366346
0.000365852
0.000365525
0.000365024
0.000364692
0.000364187
0.000363853
0.000363348
0.000363017
0.000362515
0.000362188
0.000361693
0.000361373
0.000360886
0.000360575
0.000360096
0.000359795
0.000359326
0.000359034
0.000358575
0.000358293
0.000357844
0.000357571
0.00035713
0.000356865
0.000356432
0.000356174
0.000355748
0.000355496
0.000355075
0.000354829
0.000354413
0.000354171
0.000353758
0.000353519
0.000353109
0.000352873
0.000352464
0.000352231
0.000351823
0.000351592
0.000351186
0.000350956
0.00035055
0.000350322
0.000349916
0.00034969
0.000349285
0.00034906
0.000348655
0.000348432
0.000348028
0.000347806
0.000347404
0.000347183
0.000346782
0.000346563
0.000346164
0.000345946
0.000345549
0.000345333
0.000344938
0.000344724
0.000344331
0.000344119
0.000343728
0.000343519
0.000343131
0.000342924
0.000342538
0.000342334
0.000341951
0.000341749
0.000341368
0.000341169
0.000340791
0.000340594
0.00034022
0.000340025
0.000339653
0.000339462
0.000339093
0.000338903
0.000338537
0.00033835
0.000337987
0.000337802
0.000337443
0.000337258
0.000336903
0.00033672
0.000336367
0.000336187
0.000335836
0.000335659
0.00033531
0.000335136
0.000334787
0.000334618
0.000334268
0.000334103
0.000333754
0.000333593
0.000333244
0.000333087
0.000332737
0.000332586
0.000332235
0.00033209
0.000331737
0.000331599
0.000331244
0.000331113
0.000330757
0.000330634
0.000330277
0.000330162
0.000329806
0.000329697
0.000329344
0.000329242
0.000328893
0.000328797
0.000328455
0.000328364
0.00032803
0.000327944
0.000327621
0.000327539
0.000327227
0.000327149
0.000326849
0.000326776
0.000326489
0.000326419
0.000326144
0.000326078
0.000325815
0.000325752
0.0003255
0.00032544
0.000325197
0.000325139
0.000324904
0.000324846
0.000324616
0.000324559
0.000324331
0.000324274
0.000324045
0.000323988
0.000323755
0.000323697
0.000323457
0.000323396
0.000323146
0.000323082
0.000322818
0.000322749
0.000322467
0.000322393
0.00032209
0.000322011
0.000321684
0.000321598
0.000321247
0.000321155
0.000320779
0.000320681
0.000320279
0.000320174
0.00031974
0.000319617
0.000319161
0.000319028
0.000318556
0.000318411
0.000317926
0.00031777
0.000317273
0.00031711
0.000316602
0.000316435
0.000315917
0.00031575
0.000315225
0.000315059
0.00031453
0.000314368
0.000313835
0.000313678
0.000313144
0.000312994
0.000312459
0.000312318
0.000311783
0.000311651
0.000310828
0.0694521
)
;

boundaryField
{
    inlet
    {
        type            calculated;
        value           uniform 0.000236304;
    }
    outlet
    {
        type            calculated;
        value           uniform 3.49324e-05;
    }
    emptyWalls
    {
        type            empty;
    }
}


// ************************************************************************* //
