/*--------------------------------*- C++ -*----------------------------------*\
  =========                 |
  \\      /  F ield         | OpenFOAM: The Open Source CFD Toolbox
   \\    /   O peration     | Website:  https://openfoam.org
    \\  /    A nd           | Version:  9
     \\/     M anipulation  |
\*---------------------------------------------------------------------------*/
FoamFile
{
    format      ascii;
    class       volScalarField;
    location    "27600";
    object      krb;
}
// * * * * * * * * * * * * * * * * * * * * * * * * * * * * * * * * * * * * * //

dimensions      [0 0 0 0 0 0 0];

internalField   nonuniform List<scalar> 
1000
(
0.0978052
0.0981009
0.0984916
0.0988927
0.0992954
0.0996964
0.100118
0.100517
0.100961
0.101358
0.101824
0.102224
0.102707
0.103121
0.103602
0.104043
0.104511
0.104972
0.105435
0.105895
0.106354
0.106799
0.107235
0.107654
0.108049
0.108428
0.108769
0.109102
0.109371
0.109663
0.109858
0.110105
0.110255
0.110452
0.110608
0.110893
0.111666
0.114561
0.128736
0.248654
0.440274
0.483848
0.49726
0.503682
0.507661
0.510537
0.512806
0.514697
0.516321
0.517748
0.51902
0.52017
0.521214
0.522168
0.523034
0.523822
0.524536
0.52519
0.525792
0.526353
0.526876
0.527357
0.527796
0.528193
0.528532
0.528816
0.529052
0.529247
0.529409
0.529549
0.529676
0.529796
0.529911
0.53002
0.53012
0.530205
0.530272
0.530328
0.530407
0.530478
0.530535
0.530576
0.530589
0.530579
0.530543
0.530479
0.530388
0.530271
0.530129
0.529964
0.529774
0.529562
0.529328
0.529071
0.528792
0.52849
0.528162
0.527808
0.527424
0.527007
0.526549
0.526045
0.525483
0.524852
0.524135
0.523316
0.522379
0.521315
0.520129
0.518838
0.517474
0.516062
0.514617
0.513151
0.511672
0.510185
0.508694
0.507203
0.505713
0.504226
0.502745
0.501269
0.499799
0.498337
0.496882
0.495435
0.493996
0.492565
0.491143
0.48973
0.488326
0.48693
0.485543
0.484165
0.482795
0.481434
0.480082
0.478739
0.477403
0.476077
0.474758
0.473449
0.472147
0.470854
0.469569
0.468293
0.467025
0.465765
0.464513
0.463269
0.462032
0.460803
0.459582
0.458368
0.457161
0.455962
0.454769
0.453585
0.452407
0.451237
0.450074
0.448919
0.447771
0.446631
0.445497
0.44437
0.44325
0.442135
0.441026
0.439922
0.438822
0.437726
0.436634
0.435546
0.434461
0.433381
0.432306
0.431235
0.430169
0.429109
0.428055
0.427007
0.425966
0.424932
0.423905
0.422887
0.421877
0.420875
0.419883
0.4189
0.417926
0.416961
0.416005
0.415056
0.414115
0.41318
0.412252
0.411329
0.41041
0.409496
0.408585
0.407678
0.406774
0.405872
0.404973
0.404078
0.403184
0.402294
0.401407
0.400524
0.399643
0.398767
0.397894
0.397025
0.39616
0.395299
0.394443
0.39359
0.392742
0.391898
0.391058
0.390223
0.389391
0.388564
0.387741
0.386921
0.386106
0.385295
0.384487
0.383683
0.382883
0.382086
0.381293
0.380504
0.379718
0.378935
0.378156
0.37738
0.376608
0.375839
0.375073
0.374311
0.373552
0.372796
0.372043
0.371294
0.370547
0.369804
0.369063
0.368326
0.367592
0.366861
0.366132
0.365407
0.364685
0.363965
0.363249
0.362535
0.361824
0.361116
0.360411
0.359708
0.359008
0.358311
0.357617
0.356925
0.356236
0.35555
0.354867
0.354185
0.353507
0.352831
0.352159
0.351488
0.35082
0.350154
0.349491
0.34883
0.348173
0.347517
0.346864
0.346212
0.345564
0.344918
0.344275
0.343634
0.342995
0.342359
0.341725
0.341094
0.340465
0.339837
0.339213
0.33859
0.337969
0.337349
0.336731
0.336115
0.3355
0.334887
0.334275
0.333664
0.333054
0.332446
0.331839
0.331234
0.33063
0.330028
0.329428
0.328829
0.328233
0.327639
0.327047
0.326458
0.325872
0.325289
0.324709
0.324132
0.323559
0.322989
0.322423
0.32186
0.3213
0.320744
0.320191
0.319642
0.319095
0.318551
0.318009
0.317469
0.316932
0.316396
0.315863
0.31533
0.314799
0.314269
0.31374
0.313213
0.312686
0.31216
0.311635
0.311112
0.310589
0.310068
0.309547
0.309028
0.30851
0.307994
0.307479
0.306965
0.306452
0.305942
0.305432
0.304924
0.304418
0.303913
0.30341
0.302909
0.302409
0.30191
0.301413
0.300918
0.300424
0.299932
0.299441
0.298952
0.298464
0.297977
0.297492
0.297008
0.296526
0.296045
0.295566
0.295088
0.294611
0.294135
0.293661
0.293188
0.292717
0.292247
0.291778
0.29131
0.290844
0.290378
0.289914
0.289452
0.28899
0.28853
0.288071
0.287613
0.287156
0.286701
0.286247
0.285793
0.285341
0.284891
0.284441
0.283992
0.283545
0.283099
0.282654
0.28221
0.281767
0.281326
0.280885
0.280446
0.280007
0.27957
0.279134
0.278699
0.278265
0.277832
0.2774
0.27697
0.27654
0.276111
0.275684
0.275257
0.274832
0.274408
0.273984
0.273562
0.273141
0.272721
0.272302
0.271883
0.271467
0.27105
0.270636
0.270221
0.269808
0.269396
0.268985
0.268574
0.268164
0.267755
0.267347
0.266939
0.266533
0.266126
0.26572
0.265315
0.264911
0.264506
0.264103
0.2637
0.263298
0.262896
0.262496
0.262095
0.261696
0.261297
0.2609
0.260502
0.260107
0.259712
0.259319
0.258926
0.258536
0.258146
0.257759
0.257372
0.256988
0.256603
0.256223
0.255842
0.255464
0.255086
0.254712
0.254337
0.253966
0.253594
0.253225
0.252856
0.25249
0.252123
0.251759
0.251394
0.251031
0.250668
0.250307
0.249944
0.249585
0.249224
0.248865
0.248505
0.248147
0.247788
0.247431
0.247073
0.246717
0.24636
0.246005
0.245649
0.245295
0.244941
0.244588
0.244234
0.243883
0.243531
0.24318
0.242829
0.24248
0.242131
0.241783
0.241435
0.241089
0.240743
0.240398
0.240053
0.239709
0.239366
0.239024
0.238681
0.238341
0.238
0.237661
0.237321
0.236983
0.236645
0.236308
0.235972
0.235636
0.235301
0.234967
0.234632
0.2343
0.233967
0.233635
0.233303
0.232973
0.232642
0.232313
0.231984
0.231656
0.231327
0.231001
0.230674
0.230349
0.230022
0.229698
0.229373
0.22905
0.228726
0.228404
0.228081
0.227761
0.227438
0.227119
0.226798
0.22648
0.22616
0.225843
0.225524
0.225208
0.22489
0.224575
0.224258
0.223945
0.223629
0.223316
0.223001
0.22269
0.222376
0.222066
0.221753
0.221444
0.221132
0.220823
0.220513
0.220205
0.219895
0.219589
0.219281
0.218975
0.218668
0.218364
0.218057
0.217754
0.217448
0.217145
0.21684
0.216539
0.216235
0.215935
0.215631
0.215332
0.215029
0.21473
0.214428
0.21413
0.213829
0.213531
0.213231
0.212934
0.212633
0.212337
0.212038
0.211742
0.211443
0.211147
0.210849
0.210554
0.210257
0.209963
0.209666
0.209373
0.209077
0.208785
0.20849
0.208199
0.207906
0.207616
0.207324
0.207035
0.206744
0.206457
0.206168
0.205882
0.205595
0.205311
0.205025
0.204742
0.204458
0.204177
0.203894
0.203615
0.203334
0.203057
0.202777
0.202501
0.202222
0.201947
0.20167
0.201396
0.201119
0.200846
0.200571
0.200299
0.200024
0.199752
0.199478
0.199207
0.198933
0.198663
0.19839
0.19812
0.197847
0.197578
0.197306
0.197037
0.196765
0.196497
0.196225
0.195957
0.195687
0.195419
0.195149
0.194883
0.194613
0.194347
0.194078
0.193813
0.193544
0.19328
0.193012
0.192748
0.192481
0.192218
0.191952
0.191689
0.191423
0.191161
0.190897
0.190635
0.190371
0.19011
0.189847
0.189587
0.189324
0.189065
0.188803
0.188544
0.188283
0.188025
0.187764
0.187506
0.187246
0.186989
0.18673
0.186473
0.186214
0.185959
0.1857
0.185445
0.185187
0.184933
0.184676
0.184422
0.184165
0.183912
0.183655
0.183403
0.183147
0.182895
0.18264
0.182388
0.182133
0.181882
0.181628
0.181377
0.181124
0.180874
0.180621
0.180371
0.180119
0.17987
0.179618
0.179369
0.179118
0.17887
0.178619
0.178371
0.178121
0.177874
0.177624
0.177377
0.177128
0.176882
0.176633
0.176387
0.176139
0.175894
0.175646
0.175401
0.175154
0.17491
0.174663
0.174419
0.174173
0.173929
0.173683
0.17344
0.173195
0.172952
0.172707
0.172465
0.17222
0.171978
0.171734
0.171493
0.171249
0.171007
0.170764
0.170523
0.170279
0.170039
0.169796
0.169555
0.169312
0.169072
0.16883
0.16859
0.168347
0.168108
0.167866
0.167626
0.167385
0.167146
0.166904
0.166665
0.166424
0.166186
0.165945
0.165708
0.165468
0.16523
0.164991
0.164754
0.164515
0.164279
0.164041
0.163805
0.163568
0.163333
0.163096
0.162862
0.162626
0.162393
0.162158
0.161925
0.161691
0.161459
0.161226
0.160995
0.160762
0.160532
0.1603
0.16007
0.159839
0.15961
0.159379
0.159151
0.15892
0.158692
0.158462
0.158235
0.158005
0.157778
0.157549
0.157322
0.157093
0.156866
0.156637
0.156411
0.156182
0.155956
0.155727
0.155501
0.155272
0.155046
0.154818
0.154592
0.154364
0.154139
0.153911
0.153685
0.153457
0.153232
0.153004
0.152779
0.152552
0.152327
0.1521
0.151875
0.151648
0.151424
0.151197
0.150973
0.150746
0.150522
0.150296
0.150072
0.149846
0.149622
0.149396
0.149173
0.148947
0.148724
0.148499
0.148276
0.148051
0.147828
0.147603
0.14738
0.147155
0.146933
0.146708
0.146486
0.146262
0.14604
0.145815
0.145594
0.145369
0.145148
0.144924
0.144702
0.144478
0.144257
0.144033
0.143812
0.143588
0.143367
0.143144
0.142923
0.142699
0.142479
0.142255
0.142035
0.141811
0.141591
0.141367
0.141147
0.140924
0.140704
0.14048
0.140261
0.140036
0.139818
0.139593
0.139376
0.13915
0.138933
0.138707
0.138491
0.138264
0.138048
0.137822
0.137606
0.137379
0.137163
0.136937
0.136721
0.136494
0.136279
0.136052
0.135837
0.13561
0.135395
0.135168
0.134953
0.134726
0.134511
0.134284
0.134069
0.133842
0.133627
0.133399
0.133185
0.132956
0.132744
0.132512
0.132304
0.132067
0.131864
0.131621
0.131425
0.131175
0.130985
0.130728
0.130546
0.130281
0.130107
0.129833
0.129667
0.129385
0.129227
0.128936
0.128787
0.128488
0.128346
0.128039
0.127904
0.127591
0.127462
0.127143
0.127019
0.126695
0.126575
0.126247
0.12613
0.1258
0.125685
0.125353
0.12524
0.124905
0.124794
0.124458
0.124348
0.124012
0.123901
0.123566
0.123454
0.12312
0.123008
0.122673
0.122561
0.122227
0.122115
0.121781
0.121668
0.121335
0.121221
0.120889
0.120774
0.120442
0.120328
0.119996
0.119881
0.119549
0.119434
0.119102
0.118986
0.118655
0.118538
0.118208
0.118089
0.11776
0.11764
0.117311
0.11719
0.116862
0.116739
0.116412
0.116288
0.115961
0.115836
0.11551
0.115385
0.0644522
)
;

boundaryField
{
    inlet
    {
        type            calculated;
        value           uniform 0.0976562;
    }
    outlet
    {
        type            calculated;
        value           uniform 0.0644522;
    }
    emptyWalls
    {
        type            empty;
    }
}


// ************************************************************************* //
