/*--------------------------------*- C++ -*----------------------------------*\
  =========                 |
  \\      /  F ield         | OpenFOAM: The Open Source CFD Toolbox
   \\    /   O peration     | Website:  https://openfoam.org
    \\  /    A nd           | Version:  9
     \\/     M anipulation  |
\*---------------------------------------------------------------------------*/
FoamFile
{
    format      ascii;
    class       surfaceScalarField;
    location    "13850";
    object      phic;
}
// * * * * * * * * * * * * * * * * * * * * * * * * * * * * * * * * * * * * * //

dimensions      [0 2 0 0 0 0 0];

internalField   nonuniform List<scalar> 
999
(
2.96148e-15
1.30985e-14
3.13963e-14
5.71544e-14
9.00707e-14
1.29794e-13
1.7577e-13
2.26972e-13
2.82039e-13
3.39053e-13
3.95946e-13
4.50621e-13
5.01463e-13
5.48067e-13
5.94274e-13
6.63393e-13
8.68081e-13
1.6039e-12
4.94972e-12
1.73049e-11
2.04738e-11
2.14228e-11
2.18914e-11
2.22055e-11
2.24531e-11
2.26657e-11
2.2857e-11
2.3034e-11
2.32002e-11
2.33579e-11
2.35086e-11
2.36534e-11
2.37933e-11
2.39295e-11
2.40628e-11
2.41944e-11
2.43251e-11
2.44561e-11
2.4588e-11
2.4722e-11
2.48592e-11
2.50054e-11
2.51572e-11
2.53148e-11
2.54796e-11
2.5653e-11
2.5838e-11
2.60389e-11
2.62624e-11
2.65178e-11
2.68176e-11
2.71751e-11
2.75999e-11
2.80927e-11
2.86425e-11
2.92342e-11
2.98552e-11
3.04972e-11
3.11543e-11
3.1823e-11
3.25008e-11
3.31863e-11
3.38784e-11
3.45766e-11
3.52803e-11
3.59889e-11
3.67023e-11
3.74202e-11
3.81427e-11
3.887e-11
3.96023e-11
4.03397e-11
4.10824e-11
4.18302e-11
4.25828e-11
4.33399e-11
4.41009e-11
4.48652e-11
4.56322e-11
4.64013e-11
4.71721e-11
4.7944e-11
4.87168e-11
4.94903e-11
5.02645e-11
5.10393e-11
5.18149e-11
5.25915e-11
5.33691e-11
5.41479e-11
5.49283e-11
5.57102e-11
5.64939e-11
5.72795e-11
5.8067e-11
5.88564e-11
5.96479e-11
6.04412e-11
6.12365e-11
6.20336e-11
6.28326e-11
6.36334e-11
6.44359e-11
6.52401e-11
6.6046e-11
6.68534e-11
6.76624e-11
6.8473e-11
6.9285e-11
7.00985e-11
7.09135e-11
7.17299e-11
7.25478e-11
7.3367e-11
7.41876e-11
7.50096e-11
7.58329e-11
7.66576e-11
7.74836e-11
7.83109e-11
7.91395e-11
7.99694e-11
8.08005e-11
8.16329e-11
8.24666e-11
8.33014e-11
8.41375e-11
8.49749e-11
8.58134e-11
8.66531e-11
8.7494e-11
8.8336e-11
8.91792e-11
9.00236e-11
9.08691e-11
9.17158e-11
9.25636e-11
9.34125e-11
9.42625e-11
9.51137e-11
9.59659e-11
9.68193e-11
9.76737e-11
9.85292e-11
9.93858e-11
1.00244e-10
1.01102e-10
1.01962e-10
1.02823e-10
1.03685e-10
1.04548e-10
1.05412e-10
1.06277e-10
1.07143e-10
1.0801e-10
1.08878e-10
1.09747e-10
1.10618e-10
1.11489e-10
1.12362e-10
1.13235e-10
1.1411e-10
1.14986e-10
1.15862e-10
1.1674e-10
1.17619e-10
1.18499e-10
1.1938e-10
1.20262e-10
1.21145e-10
1.22028e-10
1.22913e-10
1.23799e-10
1.24686e-10
1.25574e-10
1.26463e-10
1.27353e-10
1.28243e-10
1.29135e-10
1.30026e-10
1.30919e-10
1.31811e-10
1.32704e-10
1.33596e-10
1.34488e-10
1.3538e-10
1.36272e-10
1.37163e-10
1.38054e-10
1.38944e-10
1.39834e-10
1.40725e-10
1.41615e-10
1.42506e-10
1.43397e-10
1.4429e-10
1.45185e-10
1.46081e-10
1.46979e-10
1.47881e-10
1.48786e-10
1.49694e-10
1.50607e-10
1.51523e-10
1.52445e-10
1.53371e-10
1.54301e-10
1.55236e-10
1.56174e-10
1.57117e-10
1.58063e-10
1.59012e-10
1.59963e-10
1.60916e-10
1.6187e-10
1.62825e-10
1.6378e-10
1.64735e-10
1.6569e-10
1.66645e-10
1.67599e-10
1.68552e-10
1.69505e-10
1.70457e-10
1.71409e-10
1.7236e-10
1.73311e-10
1.74263e-10
1.75214e-10
1.76166e-10
1.77119e-10
1.78072e-10
1.79027e-10
1.79982e-10
1.80939e-10
1.81897e-10
1.82856e-10
1.83817e-10
1.84779e-10
1.85742e-10
1.86708e-10
1.87674e-10
1.88642e-10
1.89612e-10
1.90583e-10
1.91555e-10
1.92529e-10
1.93505e-10
1.94481e-10
1.95459e-10
1.96439e-10
1.97419e-10
1.98401e-10
1.99385e-10
2.00369e-10
2.01355e-10
2.02343e-10
2.03331e-10
2.04321e-10
2.05312e-10
2.06304e-10
2.07298e-10
2.08293e-10
2.09289e-10
2.10286e-10
2.11285e-10
2.12285e-10
2.13286e-10
2.14289e-10
2.15293e-10
2.16298e-10
2.17304e-10
2.18312e-10
2.19321e-10
2.20331e-10
2.21343e-10
2.22356e-10
2.2337e-10
2.24386e-10
2.25403e-10
2.26421e-10
2.2744e-10
2.28461e-10
2.29483e-10
2.30507e-10
2.31532e-10
2.32558e-10
2.33585e-10
2.34614e-10
2.35644e-10
2.36676e-10
2.37709e-10
2.38743e-10
2.39779e-10
2.40816e-10
2.41855e-10
2.42894e-10
2.43936e-10
2.44978e-10
2.46022e-10
2.47068e-10
2.48115e-10
2.49163e-10
2.50213e-10
2.51265e-10
2.52318e-10
2.53372e-10
2.54428e-10
2.55486e-10
2.56545e-10
2.57605e-10
2.58667e-10
2.59731e-10
2.60796e-10
2.61863e-10
2.62932e-10
2.64002e-10
2.65074e-10
2.66147e-10
2.67222e-10
2.68298e-10
2.69377e-10
2.70456e-10
2.71538e-10
2.7262e-10
2.73705e-10
2.74791e-10
2.75878e-10
2.76966e-10
2.78056e-10
2.79147e-10
2.80239e-10
2.81332e-10
2.82426e-10
2.83521e-10
2.84616e-10
2.85712e-10
2.86808e-10
2.87905e-10
2.89002e-10
2.901e-10
2.91198e-10
2.92296e-10
2.93394e-10
2.94494e-10
2.95594e-10
2.96694e-10
2.97796e-10
2.989e-10
3.00004e-10
3.01111e-10
3.0222e-10
3.03332e-10
3.04446e-10
3.05564e-10
3.06686e-10
3.07812e-10
3.08942e-10
3.10077e-10
3.11218e-10
3.12363e-10
3.13515e-10
3.14673e-10
3.15836e-10
3.17006e-10
3.18181e-10
3.19363e-10
3.2055e-10
3.21742e-10
3.2294e-10
3.24143e-10
3.2535e-10
3.26561e-10
3.27776e-10
3.28994e-10
3.30214e-10
3.31437e-10
3.32662e-10
3.33889e-10
3.35117e-10
3.36346e-10
3.37577e-10
3.38808e-10
3.4004e-10
3.41273e-10
3.42507e-10
3.43741e-10
3.44977e-10
3.46214e-10
3.47452e-10
3.48692e-10
3.49933e-10
3.51176e-10
3.5242e-10
3.53667e-10
3.54916e-10
3.56168e-10
3.57422e-10
3.58678e-10
3.59938e-10
3.612e-10
3.62466e-10
3.63734e-10
3.65006e-10
3.66281e-10
3.6756e-10
3.68841e-10
3.70126e-10
3.71415e-10
3.72707e-10
3.74003e-10
3.75302e-10
3.76604e-10
3.77911e-10
3.7922e-10
3.80534e-10
3.81851e-10
3.83171e-10
3.84495e-10
3.85823e-10
3.87155e-10
3.8849e-10
3.89829e-10
3.91172e-10
3.92519e-10
3.93869e-10
3.95223e-10
3.96582e-10
3.97944e-10
3.9931e-10
4.00679e-10
4.02053e-10
4.03431e-10
4.04813e-10
4.06199e-10
4.07589e-10
4.08983e-10
4.10382e-10
4.11784e-10
4.13192e-10
4.14603e-10
4.16019e-10
4.17439e-10
4.18864e-10
4.20293e-10
4.21727e-10
4.23165e-10
4.24608e-10
4.26055e-10
4.27508e-10
4.28965e-10
4.30427e-10
4.31894e-10
4.33365e-10
4.34842e-10
4.36324e-10
4.37811e-10
4.39304e-10
4.40801e-10
4.42304e-10
4.43812e-10
4.45325e-10
4.46844e-10
4.48369e-10
4.49899e-10
4.51435e-10
4.52976e-10
4.54524e-10
4.56077e-10
4.57636e-10
4.59202e-10
4.60774e-10
4.62351e-10
4.63936e-10
4.65526e-10
4.67124e-10
4.68727e-10
4.70338e-10
4.71955e-10
4.73579e-10
4.7521e-10
4.76848e-10
4.78494e-10
4.80146e-10
4.81806e-10
4.83474e-10
4.85148e-10
4.86831e-10
4.88521e-10
4.90219e-10
4.91925e-10
4.93639e-10
4.95361e-10
4.9709e-10
4.98828e-10
5.00574e-10
5.02327e-10
5.0409e-10
5.0586e-10
5.07638e-10
5.09424e-10
5.11217e-10
5.13019e-10
5.14828e-10
5.16644e-10
5.18467e-10
5.20297e-10
5.22133e-10
5.23975e-10
5.25822e-10
5.27673e-10
5.29528e-10
5.31385e-10
5.33244e-10
5.35102e-10
5.36958e-10
5.3881e-10
5.40656e-10
5.42492e-10
5.44316e-10
5.46124e-10
5.4791e-10
5.49671e-10
5.514e-10
5.53093e-10
5.54743e-10
5.56344e-10
5.57887e-10
5.59366e-10
5.60774e-10
5.62106e-10
5.63357e-10
5.6452e-10
5.65594e-10
5.66574e-10
5.67462e-10
5.68257e-10
5.68964e-10
5.69587e-10
5.70131e-10
5.70605e-10
5.71018e-10
5.71388e-10
5.71735e-10
5.72093e-10
5.72514e-10
5.73087e-10
5.73965e-10
5.75413e-10
5.77901e-10
5.82231e-10
5.89749e-10
6.02579e-10
6.23725e-10
6.56559e-10
7.03e-10
7.60528e-10
8.20799e-10
8.73376e-10
9.12035e-10
9.36856e-10
9.51377e-10
9.5941e-10
9.63722e-10
9.66008e-10
9.67221e-10
9.67872e-10
9.68232e-10
9.68439e-10
9.68566e-10
9.68652e-10
9.68713e-10
9.68762e-10
9.68802e-10
9.68836e-10
9.68867e-10
9.68894e-10
9.68919e-10
9.68941e-10
9.6896e-10
9.68978e-10
9.68995e-10
9.6901e-10
9.69023e-10
9.69035e-10
9.69047e-10
9.69057e-10
9.69067e-10
9.69077e-10
9.69086e-10
9.69095e-10
9.69104e-10
9.69112e-10
9.69121e-10
9.6913e-10
9.69139e-10
9.69148e-10
9.69157e-10
9.69167e-10
9.69177e-10
9.69187e-10
9.69197e-10
9.69208e-10
9.69219e-10
9.69231e-10
9.69242e-10
9.69254e-10
9.69266e-10
9.69279e-10
9.69291e-10
9.69304e-10
9.69317e-10
9.6933e-10
9.69343e-10
9.69356e-10
9.69369e-10
9.69382e-10
9.69395e-10
9.69408e-10
9.69421e-10
9.69434e-10
9.69446e-10
9.69459e-10
9.69471e-10
9.69484e-10
9.69496e-10
9.69507e-10
9.69519e-10
9.69531e-10
9.69542e-10
9.69553e-10
9.69563e-10
9.69574e-10
9.69584e-10
9.69594e-10
9.69603e-10
9.69612e-10
9.69621e-10
9.6963e-10
9.69638e-10
9.69646e-10
9.69654e-10
9.69661e-10
9.69668e-10
9.69674e-10
9.6968e-10
9.69686e-10
9.69692e-10
9.69696e-10
9.69701e-10
9.69705e-10
9.69709e-10
9.69712e-10
9.69715e-10
9.69718e-10
9.6972e-10
9.69722e-10
9.69723e-10
9.69724e-10
9.69724e-10
9.69724e-10
9.69725e-10
9.69725e-10
9.69723e-10
9.69722e-10
9.6972e-10
9.69717e-10
9.69715e-10
9.69712e-10
9.69708e-10
9.69704e-10
9.697e-10
9.69696e-10
9.69691e-10
9.69686e-10
9.6968e-10
9.69675e-10
9.69668e-10
9.69662e-10
9.69655e-10
9.69648e-10
9.69641e-10
9.69634e-10
9.69626e-10
9.69618e-10
9.69609e-10
9.69601e-10
9.69592e-10
9.69582e-10
9.69572e-10
9.69562e-10
9.69552e-10
9.69541e-10
9.6953e-10
9.69518e-10
9.69505e-10
9.69492e-10
9.69479e-10
9.69465e-10
9.6945e-10
9.69434e-10
9.69417e-10
9.69399e-10
9.6938e-10
9.6936e-10
9.69339e-10
9.69317e-10
9.69293e-10
9.69267e-10
9.69241e-10
9.69212e-10
9.69182e-10
9.6915e-10
9.69116e-10
9.69081e-10
9.69043e-10
9.69004e-10
9.68962e-10
9.68919e-10
9.68874e-10
9.68827e-10
9.68779e-10
9.68728e-10
9.68676e-10
9.68623e-10
9.68568e-10
9.68512e-10
9.68456e-10
9.68398e-10
9.6834e-10
9.68282e-10
9.68223e-10
9.68165e-10
9.68108e-10
9.68051e-10
9.67996e-10
9.67942e-10
9.6789e-10
9.6784e-10
9.67793e-10
9.67748e-10
9.67707e-10
9.67669e-10
9.67636e-10
9.67606e-10
9.6758e-10
9.6756e-10
9.67544e-10
9.67532e-10
9.67526e-10
9.67524e-10
9.67524e-10
9.67525e-10
9.67532e-10
9.67552e-10
9.67575e-10
9.67602e-10
9.67634e-10
9.6767e-10
9.67709e-10
9.67752e-10
9.67798e-10
9.67846e-10
9.67897e-10
9.67949e-10
9.68003e-10
9.68057e-10
9.68113e-10
9.68168e-10
9.68223e-10
9.68278e-10
9.68332e-10
9.68385e-10
9.68436e-10
9.68486e-10
9.68534e-10
9.6858e-10
9.68624e-10
9.68666e-10
9.68705e-10
9.68743e-10
9.68778e-10
9.68811e-10
9.68841e-10
9.6887e-10
9.68897e-10
9.68921e-10
9.68945e-10
9.68966e-10
9.68986e-10
9.69004e-10
9.69022e-10
9.69038e-10
9.69053e-10
9.69068e-10
9.69081e-10
9.69094e-10
9.69107e-10
9.69119e-10
9.69131e-10
9.69143e-10
9.69154e-10
9.69166e-10
9.69177e-10
9.69188e-10
9.692e-10
9.69211e-10
9.69222e-10
9.69234e-10
9.69245e-10
9.69257e-10
9.69269e-10
9.6928e-10
9.69292e-10
9.69304e-10
9.69316e-10
9.69328e-10
9.6934e-10
9.69352e-10
9.69363e-10
9.69375e-10
9.69387e-10
9.69399e-10
9.6941e-10
9.69422e-10
9.69433e-10
9.69444e-10
9.69455e-10
9.69466e-10
9.69476e-10
9.69486e-10
9.69496e-10
9.69506e-10
9.69516e-10
9.69525e-10
9.69534e-10
9.69543e-10
9.69552e-10
9.6956e-10
9.69568e-10
9.69576e-10
9.69583e-10
9.6959e-10
9.69597e-10
9.69604e-10
9.6961e-10
9.69616e-10
9.69622e-10
9.69627e-10
9.69632e-10
9.69637e-10
9.69641e-10
9.69645e-10
9.69649e-10
9.69653e-10
9.69656e-10
9.69659e-10
9.69661e-10
9.69663e-10
9.69665e-10
9.69667e-10
9.69668e-10
9.69669e-10
9.69669e-10
9.69669e-10
9.69669e-10
9.69669e-10
9.69669e-10
9.69668e-10
9.69666e-10
9.69665e-10
9.69663e-10
9.6966e-10
9.69658e-10
9.69655e-10
9.69651e-10
9.69648e-10
9.69644e-10
9.6964e-10
9.69635e-10
9.69631e-10
9.69625e-10
9.6962e-10
9.69615e-10
9.69609e-10
9.69603e-10
9.69596e-10
9.6959e-10
9.69583e-10
9.69576e-10
9.69568e-10
9.69561e-10
9.69553e-10
9.69544e-10
9.69536e-10
9.69527e-10
9.69517e-10
9.69507e-10
9.69497e-10
9.69486e-10
9.69475e-10
9.69463e-10
9.69451e-10
9.69438e-10
9.69424e-10
9.6941e-10
9.69394e-10
9.69378e-10
9.69361e-10
9.69343e-10
9.69324e-10
9.69304e-10
9.69282e-10
9.6926e-10
9.69236e-10
9.69211e-10
9.69184e-10
9.69156e-10
9.69127e-10
9.69096e-10
9.69064e-10
9.6903e-10
9.68995e-10
9.68958e-10
9.68919e-10
9.6888e-10
9.68838e-10
9.68796e-10
9.68752e-10
9.68707e-10
9.68661e-10
9.68614e-10
9.68566e-10
9.68517e-10
9.68468e-10
9.68418e-10
9.68368e-10
9.68318e-10
9.68269e-10
9.68219e-10
9.68171e-10
9.68123e-10
9.68077e-10
9.68031e-10
9.67988e-10
9.67946e-10
9.67907e-10
9.67869e-10
9.67835e-10
9.67803e-10
9.67774e-10
9.67748e-10
9.67726e-10
9.67707e-10
9.67692e-10
9.67681e-10
9.67674e-10
9.67671e-10
9.6767e-10
9.6767e-10
9.67674e-10
9.6768e-10
9.67697e-10
9.67718e-10
9.67742e-10
9.67769e-10
9.67799e-10
9.67832e-10
9.67868e-10
9.67907e-10
9.67947e-10
9.67989e-10
9.68033e-10
9.68078e-10
9.68125e-10
9.68171e-10
9.68219e-10
9.68266e-10
9.68313e-10
9.6836e-10
9.68406e-10
9.68451e-10
9.68495e-10
9.68538e-10
9.6858e-10
9.6862e-10
9.68659e-10
9.68696e-10
9.68731e-10
9.68765e-10
9.68797e-10
9.68828e-10
9.68857e-10
9.68884e-10
9.6891e-10
9.68934e-10
9.68958e-10
9.68979e-10
9.69e-10
)
;

boundaryField
{
    inlet
    {
        type            calculated;
        value           uniform 0;
    }
    outlet
    {
        type            calculated;
        value           uniform 9.69019e-10;
    }
    emptyWalls
    {
        type            empty;
        value           nonuniform List<scalar> 0();
    }
}


// ************************************************************************* //
