/*--------------------------------*- C++ -*----------------------------------*\
  =========                 |
  \\      /  F ield         | OpenFOAM: The Open Source CFD Toolbox
   \\    /   O peration     | Website:  https://openfoam.org
    \\  /    A nd           | Version:  9
     \\/     M anipulation  |
\*---------------------------------------------------------------------------*/
FoamFile
{
    format      ascii;
    class       volScalarField;
    location    "13850";
    object      Sa;
}
// * * * * * * * * * * * * * * * * * * * * * * * * * * * * * * * * * * * * * //

dimensions      [0 0 0 0 0 0 0];

internalField   nonuniform List<scalar> 
1000
(
0.549235
0.547413
0.545323
0.543005
0.54102
0.538724
0.536711
0.534506
0.532488
0.530469
0.528611
0.526884
0.525359
0.52401
0.522833
0.521599
0.51938
0.512311
0.483947
0.315136
0.114779
0.0739824
0.0608077
0.0540315
0.0495767
0.0462536
0.0435932
0.0413793
0.0394893
0.0378554
0.0364274
0.0351696
0.0340563
0.0330608
0.0321678
0.0313578
0.0306224
0.0299446
0.029326
0.0287474
0.0282164
0.0277095
0.0272287
0.0267847
0.0263751
0.0259987
0.0256541
0.0253391
0.0250508
0.0247888
0.0245548
0.0243554
0.0242011
0.0240988
0.0240369
0.0239826
0.0239273
0.0238731
0.023822
0.0237747
0.0237311
0.0236899
0.02365
0.0236101
0.0235697
0.0235286
0.0234863
0.0234427
0.0233971
0.0233485
0.0232963
0.0232395
0.0231779
0.0231115
0.0230407
0.0229664
0.0228898
0.022812
0.0227345
0.0226583
0.0225844
0.0225136
0.0224464
0.0223829
0.0223231
0.0222669
0.0222138
0.0221634
0.0221152
0.0220688
0.0220236
0.0219793
0.0219355
0.021892
0.0218486
0.0218052
0.0217616
0.021718
0.0216743
0.0216305
0.0215867
0.021543
0.0214994
0.021456
0.0214127
0.0213698
0.021327
0.0212846
0.0212425
0.0212008
0.0211593
0.0211182
0.0210774
0.021037
0.0209969
0.0209572
0.0209178
0.0208787
0.0208399
0.0208015
0.0207635
0.0207257
0.0206883
0.0206513
0.0206145
0.0205781
0.020542
0.0205062
0.0204708
0.0204356
0.0204008
0.0203663
0.0203321
0.0202981
0.0202645
0.0202312
0.0201981
0.0201654
0.0201329
0.0201007
0.0200688
0.0200372
0.0200058
0.0199747
0.0199438
0.0199133
0.0198829
0.0198529
0.0198231
0.0197935
0.0197642
0.0197352
0.0197064
0.0196778
0.0196495
0.0196213
0.0195934
0.0195657
0.0195382
0.0195108
0.0194836
0.0194565
0.0194296
0.0194029
0.0193764
0.01935
0.0193238
0.0192979
0.0192721
0.0192466
0.0192212
0.0191961
0.0191711
0.0191463
0.0191216
0.0190971
0.0190728
0.0190488
0.0190251
0.0190018
0.0189789
0.0189566
0.018935
0.0189142
0.0188942
0.018875
0.0188567
0.0188393
0.0188228
0.0188072
0.0187922
0.018778
0.0187643
0.0187509
0.0187378
0.0187247
0.0187114
0.0186977
0.0186833
0.0186682
0.018652
0.0186345
0.0186156
0.0185952
0.0185732
0.0185496
0.0185243
0.0184975
0.0184693
0.0184399
0.0184095
0.0183783
0.0183467
0.0183148
0.0182831
0.0182516
0.0182206
0.0181903
0.0181608
0.0181322
0.0181046
0.018078
0.0180523
0.0180277
0.0180039
0.0179809
0.0179587
0.0179371
0.017916
0.0178954
0.0178751
0.0178552
0.0178354
0.0178158
0.0177963
0.0177769
0.0177574
0.017738
0.0177185
0.0176991
0.0176796
0.01766
0.0176404
0.0176208
0.0176012
0.0175816
0.017562
0.0175424
0.0175229
0.0175033
0.0174838
0.0174644
0.017445
0.0174257
0.0174064
0.0173873
0.0173682
0.0173491
0.0173302
0.0173113
0.0172926
0.0172739
0.0172553
0.0172368
0.0172183
0.0172
0.0171817
0.0171636
0.0171455
0.0171275
0.0171096
0.0170918
0.0170741
0.0170564
0.0170389
0.0170214
0.0170041
0.0169868
0.0169696
0.0169525
0.0169355
0.0169186
0.0169017
0.016885
0.0168683
0.0168518
0.0168353
0.0168189
0.0168026
0.0167864
0.0167702
0.0167542
0.0167382
0.0167224
0.0167066
0.0166909
0.0166752
0.0166597
0.0166442
0.0166289
0.0166136
0.0165984
0.0165832
0.0165681
0.0165531
0.0165382
0.0165233
0.0165085
0.0164937
0.016479
0.0164644
0.0164498
0.0164353
0.0164208
0.0164064
0.0163921
0.0163778
0.0163635
0.0163493
0.0163352
0.0163212
0.0163072
0.0162933
0.0162794
0.0162656
0.016252
0.0162384
0.0162249
0.0162116
0.0161984
0.0161854
0.0161726
0.01616
0.0161476
0.0161355
0.0161237
0.0161122
0.016101
0.0160902
0.0160797
0.0160696
0.0160599
0.0160505
0.0160414
0.0160326
0.0160242
0.0160159
0.0160079
0.016
0.0159923
0.0159846
0.0159768
0.0159689
0.015961
0.0159526
0.0159441
0.015935
0.0159256
0.0159154
0.0159049
0.0158935
0.0158816
0.0158689
0.0158555
0.0158413
0.0158264
0.0158109
0.0157946
0.0157778
0.0157604
0.0157427
0.0157245
0.015706
0.0156874
0.0156686
0.0156498
0.0156311
0.0156125
0.0155942
0.015576
0.0155582
0.0155408
0.0155237
0.015507
0.0154907
0.0154748
0.0154593
0.0154441
0.0154293
0.0154148
0.0154006
0.0153867
0.015373
0.0153595
0.0153462
0.0153331
0.0153201
0.0153071
0.0152943
0.0152815
0.0152688
0.0152561
0.0152435
0.0152308
0.0152181
0.0152055
0.0151928
0.0151801
0.0151674
0.0151547
0.0151419
0.0151292
0.0151164
0.0151037
0.0150909
0.0150781
0.0150653
0.0150526
0.0150398
0.015027
0.0150143
0.0150015
0.0149888
0.0149761
0.0149634
0.0149507
0.0149381
0.0149254
0.0149128
0.0149002
0.0148877
0.0148751
0.0148626
0.0148501
0.0148376
0.0148252
0.0148128
0.0148004
0.014788
0.0147757
0.0147634
0.0147511
0.0147389
0.0147267
0.0147145
0.0147024
0.0146902
0.0146782
0.0146661
0.0146541
0.0146421
0.0146301
0.0146182
0.0146063
0.0145945
0.0145826
0.0145708
0.0145591
0.0145474
0.0145357
0.014524
0.0145124
0.0145008
0.0144892
0.0144777
0.0144662
0.0144548
0.0144433
0.0144319
0.0144206
0.0144092
0.0143979
0.0143866
0.0143754
0.0143641
0.0143529
0.0143417
0.0143306
0.0143194
0.0143083
0.0142972
0.0142861
0.014275
0.014264
0.0142529
0.0142419
0.0142309
0.0142199
0.0142089
0.014198
0.014187
0.0141761
0.0141652
0.0141543
0.0141435
0.0141326
0.0141218
0.0141111
0.0141003
0.0140897
0.014079
0.0140685
0.014058
0.0140476
0.0140372
0.014027
0.0140169
0.0140069
0.013997
0.0139873
0.0139777
0.0139683
0.0139591
0.0139501
0.0139412
0.0139326
0.0139242
0.013916
0.0139081
0.0139004
0.013893
0.0138859
0.0138791
0.0138726
0.0138663
0.0138605
0.0138549
0.0138498
0.013845
0.0138406
0.0138365
0.0138329
0.0138296
0.0138267
0.0138242
0.0138219
0.01382
0.0138184
0.0138169
0.0138156
0.0138143
0.0138132
0.0138119
0.0138105
0.0138088
0.0138065
0.0138033
0.0137987
0.0137916
0.0137802
0.0137615
0.0137303
0.0136787
0.0135957
0.0134697
0.0132971
0.0130943
0.0129005
0.0127538
0.0126638
0.0126157
0.012591
0.0125776
0.0125696
0.0125643
0.0125602
0.0125569
0.012554
0.0125514
0.012549
0.0125467
0.0125447
0.0125428
0.012541
0.0125394
0.012538
0.0125366
0.0125354
0.0125343
0.0125333
0.0125324
0.0125315
0.0125308
0.0125301
0.0125295
0.0125289
0.0125283
0.0125278
0.0125274
0.0125269
0.0125265
0.0125261
0.0125256
0.0125252
0.0125248
0.0125244
0.0125239
0.0125235
0.012523
0.0125226
0.0125221
0.0125216
0.0125211
0.0125205
0.01252
0.0125195
0.0125189
0.0125183
0.0125178
0.0125172
0.0125166
0.012516
0.0125154
0.0125148
0.0125142
0.0125136
0.012513
0.0125124
0.0125118
0.0125112
0.0125106
0.0125101
0.0125095
0.0125089
0.0125084
0.0125078
0.0125073
0.0125068
0.0125062
0.0125057
0.0125052
0.0125047
0.0125043
0.0125038
0.0125034
0.0125029
0.0125025
0.0125021
0.0125017
0.0125014
0.012501
0.0125007
0.0125003
0.0125
0.0124997
0.0124995
0.0124992
0.012499
0.0124987
0.0124985
0.0124983
0.0124982
0.012498
0.0124979
0.0124978
0.0124977
0.0124976
0.0124975
0.0124975
0.0124975
0.0124975
0.0124975
0.0124975
0.0124975
0.0124976
0.0124977
0.0124978
0.012498
0.0124981
0.0124983
0.0124984
0.0124986
0.0124988
0.0124991
0.0124993
0.0124996
0.0124998
0.0125001
0.0125004
0.0125007
0.0125011
0.0125014
0.0125018
0.0125021
0.0125025
0.0125029
0.0125033
0.0125038
0.0125042
0.0125046
0.0125051
0.0125056
0.0125061
0.0125066
0.0125072
0.0125078
0.0125084
0.012509
0.0125097
0.0125104
0.0125111
0.0125119
0.0125127
0.0125136
0.0125145
0.0125155
0.0125166
0.0125177
0.0125189
0.0125201
0.0125215
0.0125229
0.0125244
0.012526
0.0125277
0.0125294
0.0125313
0.0125332
0.0125353
0.0125374
0.0125397
0.012542
0.0125444
0.0125469
0.0125494
0.012552
0.0125547
0.0125574
0.0125602
0.012563
0.0125658
0.0125687
0.0125715
0.0125743
0.0125771
0.0125798
0.0125825
0.012585
0.0125875
0.0125899
0.0125921
0.0125942
0.0125961
0.0125978
0.0125993
0.0126007
0.0126018
0.0126027
0.0126034
0.0126038
0.012604
0.012604
0.0126039
0.0126038
0.0126032
0.0126022
0.0126009
0.0125995
0.0125979
0.012596
0.012594
0.0125919
0.0125896
0.0125872
0.0125847
0.0125822
0.0125796
0.0125769
0.0125742
0.0125715
0.0125689
0.0125663
0.0125637
0.0125612
0.0125587
0.0125563
0.0125541
0.0125519
0.0125498
0.0125478
0.0125459
0.0125442
0.0125425
0.0125409
0.0125395
0.0125381
0.0125368
0.0125357
0.0125346
0.0125335
0.0125326
0.0125317
0.0125308
0.01253
0.0125293
0.0125286
0.0125279
0.0125273
0.0125267
0.0125261
0.0125255
0.0125249
0.0125244
0.0125238
0.0125232
0.0125227
0.0125221
0.0125216
0.012521
0.0125205
0.0125199
0.0125194
0.0125188
0.0125182
0.0125177
0.0125171
0.0125165
0.012516
0.0125154
0.0125148
0.0125142
0.0125137
0.0125131
0.0125126
0.012512
0.0125115
0.0125109
0.0125104
0.0125099
0.0125094
0.0125089
0.0125084
0.0125079
0.0125074
0.012507
0.0125065
0.0125061
0.0125057
0.0125053
0.0125049
0.0125045
0.0125041
0.0125038
0.0125035
0.0125031
0.0125028
0.0125025
0.0125022
0.012502
0.0125017
0.0125015
0.0125013
0.0125011
0.0125009
0.0125007
0.0125006
0.0125004
0.0125003
0.0125002
0.0125001
0.0125
0.0124999
0.0124999
0.0124999
0.0124999
0.0124999
0.0124999
0.0124999
0.0124999
0.0125
0.0125001
0.0125002
0.0125003
0.0125004
0.0125005
0.0125007
0.0125009
0.012501
0.0125012
0.0125015
0.0125017
0.0125019
0.0125022
0.0125024
0.0125027
0.012503
0.0125033
0.0125036
0.0125039
0.0125043
0.0125046
0.012505
0.0125054
0.0125058
0.0125062
0.0125066
0.0125071
0.0125075
0.012508
0.0125085
0.0125091
0.0125096
0.0125102
0.0125108
0.0125115
0.0125122
0.0125129
0.0125137
0.0125145
0.0125153
0.0125162
0.0125172
0.0125182
0.0125192
0.0125204
0.0125216
0.0125228
0.0125241
0.0125255
0.012527
0.0125285
0.0125301
0.0125318
0.0125336
0.0125354
0.0125373
0.0125393
0.0125413
0.0125434
0.0125455
0.0125478
0.01255
0.0125523
0.0125547
0.0125571
0.0125595
0.0125619
0.0125643
0.0125667
0.0125691
0.0125715
0.0125738
0.0125761
0.0125783
0.0125805
0.0125826
0.0125845
0.0125864
0.0125881
0.0125898
0.0125912
0.0125925
0.0125937
0.0125947
0.0125955
0.0125962
0.0125966
0.0125969
0.0125969
0.0125969
0.0125968
0.0125966
0.012596
0.0125953
0.0125939
0.012593
0.0125913
0.0125901
0.0125881
0.0125866
0.0125844
0.0125827
0.0125803
0.0125784
0.0125759
0.012574
0.0125714
0.0125694
0.0125668
0.0125648
0.0125622
0.0125603
0.0125579
0.012556
0.0125537
0.012552
0.0125498
0.0125482
0.0125462
0.0125447
0.0125429
0.0125416
0.0125399
0.0125387
0.0125373
0.0125362
0.0125349
0.0125339
0.0125328
0.0125319
)
;

boundaryField
{
    inlet
    {
        type            fixedValue;
        value           uniform 0.55;
    }
    outlet
    {
        type            zeroGradient;
    }
    emptyWalls
    {
        type            empty;
    }
}


// ************************************************************************* //
