/*--------------------------------*- C++ -*----------------------------------*\
  =========                 |
  \\      /  F ield         | OpenFOAM: The Open Source CFD Toolbox
   \\    /   O peration     | Website:  https://openfoam.org
    \\  /    A nd           | Version:  9
     \\/     M anipulation  |
\*---------------------------------------------------------------------------*/
FoamFile
{
    format      ascii;
    class       volVectorField;
    location    "13850";
    object      Ub;
}
// * * * * * * * * * * * * * * * * * * * * * * * * * * * * * * * * * * * * * //

dimensions      [0 0 0 0 0 0 0];

internalField   nonuniform List<vector> 
1000
(
(1.13621e-05 0 0)
(1.13624e-05 0 0)
(1.13625e-05 0 0)
(1.13628e-05 0 0)
(1.13629e-05 0 0)
(1.13634e-05 0 0)
(1.13637e-05 0 0)
(1.13642e-05 0 0)
(1.13649e-05 0 0)
(1.13655e-05 0 0)
(1.13662e-05 0 0)
(1.13669e-05 0 0)
(1.13675e-05 0 0)
(1.13681e-05 0 0)
(1.13685e-05 0 0)
(1.1369e-05 0 0)
(1.13705e-05 0 0)
(1.1376e-05 0 0)
(1.1403e-05 0 0)
(1.15557e-05 0 0)
(1.17211e-05 0 0)
(1.17657e-05 0 0)
(1.17789e-05 0 0)
(1.17854e-05 0 0)
(1.17896e-05 0 0)
(1.17928e-05 0 0)
(1.17953e-05 0 0)
(1.17973e-05 0 0)
(1.1799e-05 0 0)
(1.18004e-05 0 0)
(1.18015e-05 0 0)
(1.18025e-05 0 0)
(1.18032e-05 0 0)
(1.18038e-05 0 0)
(1.18043e-05 0 0)
(1.18045e-05 0 0)
(1.18047e-05 0 0)
(1.18048e-05 0 0)
(1.18047e-05 0 0)
(1.18046e-05 0 0)
(1.18045e-05 0 0)
(1.18042e-05 0 0)
(1.18039e-05 0 0)
(1.18034e-05 0 0)
(1.18028e-05 0 0)
(1.1802e-05 0 0)
(1.1801e-05 0 0)
(1.17997e-05 0 0)
(1.1798e-05 0 0)
(1.17961e-05 0 0)
(1.17936e-05 0 0)
(1.17906e-05 0 0)
(1.17869e-05 0 0)
(1.17823e-05 0 0)
(1.1777e-05 0 0)
(1.17709e-05 0 0)
(1.17643e-05 0 0)
(1.1757e-05 0 0)
(1.1749e-05 0 0)
(1.17403e-05 0 0)
(1.17309e-05 0 0)
(1.1721e-05 0 0)
(1.17109e-05 0 0)
(1.17008e-05 0 0)
(1.16907e-05 0 0)
(1.16808e-05 0 0)
(1.16711e-05 0 0)
(1.16616e-05 0 0)
(1.16525e-05 0 0)
(1.16439e-05 0 0)
(1.16359e-05 0 0)
(1.16287e-05 0 0)
(1.16222e-05 0 0)
(1.16166e-05 0 0)
(1.16117e-05 0 0)
(1.16074e-05 0 0)
(1.16036e-05 0 0)
(1.16e-05 0 0)
(1.15964e-05 0 0)
(1.15927e-05 0 0)
(1.15887e-05 0 0)
(1.15844e-05 0 0)
(1.15795e-05 0 0)
(1.15742e-05 0 0)
(1.15683e-05 0 0)
(1.15619e-05 0 0)
(1.15551e-05 0 0)
(1.15479e-05 0 0)
(1.15405e-05 0 0)
(1.15328e-05 0 0)
(1.15249e-05 0 0)
(1.1517e-05 0 0)
(1.15091e-05 0 0)
(1.15011e-05 0 0)
(1.14932e-05 0 0)
(1.14853e-05 0 0)
(1.14775e-05 0 0)
(1.14698e-05 0 0)
(1.14621e-05 0 0)
(1.14544e-05 0 0)
(1.14469e-05 0 0)
(1.14393e-05 0 0)
(1.14318e-05 0 0)
(1.14243e-05 0 0)
(1.14168e-05 0 0)
(1.14093e-05 0 0)
(1.14018e-05 0 0)
(1.13943e-05 0 0)
(1.13868e-05 0 0)
(1.13793e-05 0 0)
(1.13718e-05 0 0)
(1.13642e-05 0 0)
(1.13566e-05 0 0)
(1.13491e-05 0 0)
(1.13415e-05 0 0)
(1.13338e-05 0 0)
(1.13262e-05 0 0)
(1.13185e-05 0 0)
(1.13109e-05 0 0)
(1.13032e-05 0 0)
(1.12954e-05 0 0)
(1.12877e-05 0 0)
(1.12799e-05 0 0)
(1.12721e-05 0 0)
(1.12643e-05 0 0)
(1.12565e-05 0 0)
(1.12486e-05 0 0)
(1.12407e-05 0 0)
(1.12328e-05 0 0)
(1.12249e-05 0 0)
(1.12169e-05 0 0)
(1.1209e-05 0 0)
(1.1201e-05 0 0)
(1.11929e-05 0 0)
(1.11849e-05 0 0)
(1.11768e-05 0 0)
(1.11687e-05 0 0)
(1.11606e-05 0 0)
(1.11525e-05 0 0)
(1.11443e-05 0 0)
(1.11361e-05 0 0)
(1.11279e-05 0 0)
(1.11197e-05 0 0)
(1.11115e-05 0 0)
(1.11032e-05 0 0)
(1.10949e-05 0 0)
(1.10866e-05 0 0)
(1.10782e-05 0 0)
(1.10699e-05 0 0)
(1.10615e-05 0 0)
(1.10531e-05 0 0)
(1.10447e-05 0 0)
(1.10362e-05 0 0)
(1.10277e-05 0 0)
(1.10192e-05 0 0)
(1.10107e-05 0 0)
(1.10022e-05 0 0)
(1.09937e-05 0 0)
(1.09851e-05 0 0)
(1.09765e-05 0 0)
(1.0968e-05 0 0)
(1.09594e-05 0 0)
(1.09508e-05 0 0)
(1.09422e-05 0 0)
(1.09335e-05 0 0)
(1.09249e-05 0 0)
(1.09162e-05 0 0)
(1.09076e-05 0 0)
(1.08989e-05 0 0)
(1.08901e-05 0 0)
(1.08814e-05 0 0)
(1.08726e-05 0 0)
(1.08639e-05 0 0)
(1.08551e-05 0 0)
(1.08463e-05 0 0)
(1.08374e-05 0 0)
(1.08286e-05 0 0)
(1.08197e-05 0 0)
(1.08108e-05 0 0)
(1.08018e-05 0 0)
(1.07928e-05 0 0)
(1.07836e-05 0 0)
(1.07744e-05 0 0)
(1.0765e-05 0 0)
(1.07555e-05 0 0)
(1.07459e-05 0 0)
(1.07361e-05 0 0)
(1.07262e-05 0 0)
(1.07162e-05 0 0)
(1.0706e-05 0 0)
(1.06957e-05 0 0)
(1.06852e-05 0 0)
(1.06747e-05 0 0)
(1.06642e-05 0 0)
(1.06536e-05 0 0)
(1.0643e-05 0 0)
(1.06325e-05 0 0)
(1.0622e-05 0 0)
(1.06116e-05 0 0)
(1.06014e-05 0 0)
(1.05914e-05 0 0)
(1.05816e-05 0 0)
(1.05721e-05 0 0)
(1.05628e-05 0 0)
(1.05539e-05 0 0)
(1.05452e-05 0 0)
(1.05368e-05 0 0)
(1.05287e-05 0 0)
(1.05208e-05 0 0)
(1.05131e-05 0 0)
(1.05056e-05 0 0)
(1.04983e-05 0 0)
(1.04911e-05 0 0)
(1.04838e-05 0 0)
(1.04766e-05 0 0)
(1.04694e-05 0 0)
(1.0462e-05 0 0)
(1.04546e-05 0 0)
(1.0447e-05 0 0)
(1.04393e-05 0 0)
(1.04314e-05 0 0)
(1.04233e-05 0 0)
(1.0415e-05 0 0)
(1.04066e-05 0 0)
(1.03981e-05 0 0)
(1.03894e-05 0 0)
(1.03806e-05 0 0)
(1.03716e-05 0 0)
(1.03626e-05 0 0)
(1.03535e-05 0 0)
(1.03444e-05 0 0)
(1.03352e-05 0 0)
(1.03259e-05 0 0)
(1.03167e-05 0 0)
(1.03074e-05 0 0)
(1.02981e-05 0 0)
(1.02888e-05 0 0)
(1.02795e-05 0 0)
(1.02703e-05 0 0)
(1.0261e-05 0 0)
(1.02517e-05 0 0)
(1.02425e-05 0 0)
(1.02332e-05 0 0)
(1.02239e-05 0 0)
(1.02147e-05 0 0)
(1.02054e-05 0 0)
(1.01962e-05 0 0)
(1.01869e-05 0 0)
(1.01777e-05 0 0)
(1.01684e-05 0 0)
(1.01592e-05 0 0)
(1.01499e-05 0 0)
(1.01406e-05 0 0)
(1.01313e-05 0 0)
(1.0122e-05 0 0)
(1.01126e-05 0 0)
(1.01033e-05 0 0)
(1.00939e-05 0 0)
(1.00846e-05 0 0)
(1.00752e-05 0 0)
(1.00658e-05 0 0)
(1.00563e-05 0 0)
(1.00469e-05 0 0)
(1.00374e-05 0 0)
(1.0028e-05 0 0)
(1.00185e-05 0 0)
(1.00089e-05 0 0)
(9.99942e-06 0 0)
(9.98987e-06 0 0)
(9.9803e-06 0 0)
(9.97071e-06 0 0)
(9.96111e-06 0 0)
(9.95148e-06 0 0)
(9.94184e-06 0 0)
(9.93218e-06 0 0)
(9.92249e-06 0 0)
(9.91279e-06 0 0)
(9.90307e-06 0 0)
(9.89333e-06 0 0)
(9.88356e-06 0 0)
(9.87378e-06 0 0)
(9.86398e-06 0 0)
(9.85416e-06 0 0)
(9.84431e-06 0 0)
(9.83445e-06 0 0)
(9.82456e-06 0 0)
(9.81466e-06 0 0)
(9.80473e-06 0 0)
(9.79479e-06 0 0)
(9.78482e-06 0 0)
(9.77483e-06 0 0)
(9.76482e-06 0 0)
(9.75479e-06 0 0)
(9.74473e-06 0 0)
(9.73466e-06 0 0)
(9.72456e-06 0 0)
(9.71444e-06 0 0)
(9.70431e-06 0 0)
(9.69415e-06 0 0)
(9.68396e-06 0 0)
(9.67376e-06 0 0)
(9.66354e-06 0 0)
(9.6533e-06 0 0)
(9.64303e-06 0 0)
(9.63275e-06 0 0)
(9.62245e-06 0 0)
(9.61212e-06 0 0)
(9.60178e-06 0 0)
(9.59142e-06 0 0)
(9.58104e-06 0 0)
(9.57065e-06 0 0)
(9.56023e-06 0 0)
(9.5498e-06 0 0)
(9.53934e-06 0 0)
(9.52887e-06 0 0)
(9.51838e-06 0 0)
(9.50786e-06 0 0)
(9.49733e-06 0 0)
(9.48678e-06 0 0)
(9.47621e-06 0 0)
(9.46561e-06 0 0)
(9.455e-06 0 0)
(9.44436e-06 0 0)
(9.4337e-06 0 0)
(9.42302e-06 0 0)
(9.4123e-06 0 0)
(9.40156e-06 0 0)
(9.39079e-06 0 0)
(9.37999e-06 0 0)
(9.36914e-06 0 0)
(9.35826e-06 0 0)
(9.34733e-06 0 0)
(9.33635e-06 0 0)
(9.32532e-06 0 0)
(9.31423e-06 0 0)
(9.30307e-06 0 0)
(9.29185e-06 0 0)
(9.28057e-06 0 0)
(9.2692e-06 0 0)
(9.25777e-06 0 0)
(9.24626e-06 0 0)
(9.23468e-06 0 0)
(9.22302e-06 0 0)
(9.21129e-06 0 0)
(9.1995e-06 0 0)
(9.18764e-06 0 0)
(9.17573e-06 0 0)
(9.16376e-06 0 0)
(9.15176e-06 0 0)
(9.13973e-06 0 0)
(9.12767e-06 0 0)
(9.11561e-06 0 0)
(9.10355e-06 0 0)
(9.0915e-06 0 0)
(9.07949e-06 0 0)
(9.06752e-06 0 0)
(9.0556e-06 0 0)
(9.04374e-06 0 0)
(9.03197e-06 0 0)
(9.02028e-06 0 0)
(9.00869e-06 0 0)
(8.9972e-06 0 0)
(8.98582e-06 0 0)
(8.97454e-06 0 0)
(8.96338e-06 0 0)
(8.95232e-06 0 0)
(8.94136e-06 0 0)
(8.93049e-06 0 0)
(8.91971e-06 0 0)
(8.90899e-06 0 0)
(8.89834e-06 0 0)
(8.88773e-06 0 0)
(8.87715e-06 0 0)
(8.86658e-06 0 0)
(8.856e-06 0 0)
(8.84541e-06 0 0)
(8.83479e-06 0 0)
(8.82412e-06 0 0)
(8.81339e-06 0 0)
(8.8026e-06 0 0)
(8.79174e-06 0 0)
(8.78079e-06 0 0)
(8.76976e-06 0 0)
(8.75864e-06 0 0)
(8.74743e-06 0 0)
(8.73613e-06 0 0)
(8.72475e-06 0 0)
(8.71328e-06 0 0)
(8.70172e-06 0 0)
(8.69009e-06 0 0)
(8.67838e-06 0 0)
(8.66661e-06 0 0)
(8.65476e-06 0 0)
(8.64286e-06 0 0)
(8.63091e-06 0 0)
(8.6189e-06 0 0)
(8.60685e-06 0 0)
(8.59475e-06 0 0)
(8.58261e-06 0 0)
(8.57044e-06 0 0)
(8.55824e-06 0 0)
(8.546e-06 0 0)
(8.53373e-06 0 0)
(8.52143e-06 0 0)
(8.50911e-06 0 0)
(8.49676e-06 0 0)
(8.48438e-06 0 0)
(8.47198e-06 0 0)
(8.45955e-06 0 0)
(8.44709e-06 0 0)
(8.43461e-06 0 0)
(8.4221e-06 0 0)
(8.40956e-06 0 0)
(8.39699e-06 0 0)
(8.38439e-06 0 0)
(8.37176e-06 0 0)
(8.3591e-06 0 0)
(8.34641e-06 0 0)
(8.33368e-06 0 0)
(8.32092e-06 0 0)
(8.30813e-06 0 0)
(8.2953e-06 0 0)
(8.28243e-06 0 0)
(8.26953e-06 0 0)
(8.25659e-06 0 0)
(8.24361e-06 0 0)
(8.23059e-06 0 0)
(8.21754e-06 0 0)
(8.20444e-06 0 0)
(8.1913e-06 0 0)
(8.17813e-06 0 0)
(8.16491e-06 0 0)
(8.15165e-06 0 0)
(8.13834e-06 0 0)
(8.125e-06 0 0)
(8.11161e-06 0 0)
(8.09818e-06 0 0)
(8.0847e-06 0 0)
(8.07118e-06 0 0)
(8.05761e-06 0 0)
(8.04399e-06 0 0)
(8.03033e-06 0 0)
(8.01662e-06 0 0)
(8.00286e-06 0 0)
(7.98905e-06 0 0)
(7.9752e-06 0 0)
(7.96129e-06 0 0)
(7.94733e-06 0 0)
(7.93333e-06 0 0)
(7.91927e-06 0 0)
(7.90516e-06 0 0)
(7.89099e-06 0 0)
(7.87677e-06 0 0)
(7.8625e-06 0 0)
(7.84817e-06 0 0)
(7.83379e-06 0 0)
(7.81935e-06 0 0)
(7.80485e-06 0 0)
(7.7903e-06 0 0)
(7.77569e-06 0 0)
(7.76102e-06 0 0)
(7.74629e-06 0 0)
(7.7315e-06 0 0)
(7.71665e-06 0 0)
(7.70174e-06 0 0)
(7.68676e-06 0 0)
(7.67173e-06 0 0)
(7.65663e-06 0 0)
(7.64146e-06 0 0)
(7.62623e-06 0 0)
(7.61094e-06 0 0)
(7.59558e-06 0 0)
(7.58015e-06 0 0)
(7.56466e-06 0 0)
(7.54909e-06 0 0)
(7.53346e-06 0 0)
(7.51776e-06 0 0)
(7.50198e-06 0 0)
(7.48614e-06 0 0)
(7.47023e-06 0 0)
(7.45424e-06 0 0)
(7.43818e-06 0 0)
(7.42204e-06 0 0)
(7.40583e-06 0 0)
(7.38954e-06 0 0)
(7.37318e-06 0 0)
(7.35674e-06 0 0)
(7.34022e-06 0 0)
(7.32362e-06 0 0)
(7.30694e-06 0 0)
(7.29018e-06 0 0)
(7.27333e-06 0 0)
(7.2564e-06 0 0)
(7.23939e-06 0 0)
(7.2223e-06 0 0)
(7.20511e-06 0 0)
(7.18784e-06 0 0)
(7.17048e-06 0 0)
(7.15303e-06 0 0)
(7.13548e-06 0 0)
(7.11785e-06 0 0)
(7.10013e-06 0 0)
(7.08231e-06 0 0)
(7.0644e-06 0 0)
(7.04639e-06 0 0)
(7.02829e-06 0 0)
(7.01009e-06 0 0)
(6.99181e-06 0 0)
(6.97344e-06 0 0)
(6.95499e-06 0 0)
(6.93645e-06 0 0)
(6.91784e-06 0 0)
(6.89916e-06 0 0)
(6.88043e-06 0 0)
(6.86165e-06 0 0)
(6.84284e-06 0 0)
(6.82403e-06 0 0)
(6.80522e-06 0 0)
(6.78646e-06 0 0)
(6.76776e-06 0 0)
(6.74917e-06 0 0)
(6.73073e-06 0 0)
(6.71249e-06 0 0)
(6.6945e-06 0 0)
(6.67681e-06 0 0)
(6.6595e-06 0 0)
(6.64264e-06 0 0)
(6.62629e-06 0 0)
(6.61053e-06 0 0)
(6.59544e-06 0 0)
(6.58108e-06 0 0)
(6.56752e-06 0 0)
(6.55481e-06 0 0)
(6.54301e-06 0 0)
(6.53214e-06 0 0)
(6.52224e-06 0 0)
(6.5133e-06 0 0)
(6.50531e-06 0 0)
(6.49823e-06 0 0)
(6.49204e-06 0 0)
(6.48665e-06 0 0)
(6.48199e-06 0 0)
(6.47793e-06 0 0)
(6.47429e-06 0 0)
(6.4708e-06 0 0)
(6.46705e-06 0 0)
(6.46233e-06 0 0)
(6.45547e-06 0 0)
(6.4444e-06 0 0)
(6.42552e-06 0 0)
(6.39258e-06 0 0)
(6.33502e-06 0 0)
(6.23578e-06 0 0)
(6.06963e-06 0 0)
(5.80507e-06 0 0)
(5.41571e-06 0 0)
(4.9039e-06 0 0)
(4.3226e-06 0 0)
(3.76441e-06 0 0)
(3.31228e-06 0 0)
(2.99739e-06 0 0)
(2.80232e-06 0 0)
(2.69074e-06 0 0)
(2.62999e-06 0 0)
(2.59786e-06 0 0)
(2.58114e-06 0 0)
(2.57256e-06 0 0)
(2.56819e-06 0 0)
(2.566e-06 0 0)
(2.56494e-06 0 0)
(2.56444e-06 0 0)
(2.56424e-06 0 0)
(2.56418e-06 0 0)
(2.5642e-06 0 0)
(2.56424e-06 0 0)
(2.56431e-06 0 0)
(2.56437e-06 0 0)
(2.56443e-06 0 0)
(2.56449e-06 0 0)
(2.56454e-06 0 0)
(2.5646e-06 0 0)
(2.56464e-06 0 0)
(2.56468e-06 0 0)
(2.56472e-06 0 0)
(2.56476e-06 0 0)
(2.56479e-06 0 0)
(2.56482e-06 0 0)
(2.56485e-06 0 0)
(2.56487e-06 0 0)
(2.5649e-06 0 0)
(2.56492e-06 0 0)
(2.56495e-06 0 0)
(2.56497e-06 0 0)
(2.56499e-06 0 0)
(2.56502e-06 0 0)
(2.56504e-06 0 0)
(2.56506e-06 0 0)
(2.56509e-06 0 0)
(2.56511e-06 0 0)
(2.56514e-06 0 0)
(2.56516e-06 0 0)
(2.56519e-06 0 0)
(2.56522e-06 0 0)
(2.56524e-06 0 0)
(2.56527e-06 0 0)
(2.5653e-06 0 0)
(2.56532e-06 0 0)
(2.56535e-06 0 0)
(2.56538e-06 0 0)
(2.56541e-06 0 0)
(2.56543e-06 0 0)
(2.56546e-06 0 0)
(2.56549e-06 0 0)
(2.56551e-06 0 0)
(2.56554e-06 0 0)
(2.56557e-06 0 0)
(2.56559e-06 0 0)
(2.56562e-06 0 0)
(2.56564e-06 0 0)
(2.56567e-06 0 0)
(2.56569e-06 0 0)
(2.56572e-06 0 0)
(2.56574e-06 0 0)
(2.56576e-06 0 0)
(2.56578e-06 0 0)
(2.56581e-06 0 0)
(2.56583e-06 0 0)
(2.56585e-06 0 0)
(2.56587e-06 0 0)
(2.56589e-06 0 0)
(2.5659e-06 0 0)
(2.56592e-06 0 0)
(2.56594e-06 0 0)
(2.56596e-06 0 0)
(2.56597e-06 0 0)
(2.56599e-06 0 0)
(2.566e-06 0 0)
(2.56602e-06 0 0)
(2.56603e-06 0 0)
(2.56604e-06 0 0)
(2.56606e-06 0 0)
(2.56607e-06 0 0)
(2.56608e-06 0 0)
(2.56609e-06 0 0)
(2.5661e-06 0 0)
(2.56611e-06 0 0)
(2.56612e-06 0 0)
(2.56613e-06 0 0)
(2.56613e-06 0 0)
(2.56614e-06 0 0)
(2.56614e-06 0 0)
(2.56615e-06 0 0)
(2.56615e-06 0 0)
(2.56615e-06 0 0)
(2.56616e-06 0 0)
(2.56616e-06 0 0)
(2.56616e-06 0 0)
(2.56616e-06 0 0)
(2.56616e-06 0 0)
(2.56616e-06 0 0)
(2.56615e-06 0 0)
(2.56615e-06 0 0)
(2.56615e-06 0 0)
(2.56614e-06 0 0)
(2.56614e-06 0 0)
(2.56613e-06 0 0)
(2.56612e-06 0 0)
(2.56611e-06 0 0)
(2.5661e-06 0 0)
(2.56609e-06 0 0)
(2.56608e-06 0 0)
(2.56607e-06 0 0)
(2.56606e-06 0 0)
(2.56605e-06 0 0)
(2.56603e-06 0 0)
(2.56602e-06 0 0)
(2.566e-06 0 0)
(2.56599e-06 0 0)
(2.56597e-06 0 0)
(2.56596e-06 0 0)
(2.56594e-06 0 0)
(2.56592e-06 0 0)
(2.5659e-06 0 0)
(2.56588e-06 0 0)
(2.56586e-06 0 0)
(2.56584e-06 0 0)
(2.56582e-06 0 0)
(2.5658e-06 0 0)
(2.56578e-06 0 0)
(2.56575e-06 0 0)
(2.56573e-06 0 0)
(2.5657e-06 0 0)
(2.56568e-06 0 0)
(2.56565e-06 0 0)
(2.56562e-06 0 0)
(2.56559e-06 0 0)
(2.56556e-06 0 0)
(2.56553e-06 0 0)
(2.56549e-06 0 0)
(2.56546e-06 0 0)
(2.56542e-06 0 0)
(2.56538e-06 0 0)
(2.56533e-06 0 0)
(2.56529e-06 0 0)
(2.56524e-06 0 0)
(2.56519e-06 0 0)
(2.56513e-06 0 0)
(2.56507e-06 0 0)
(2.56501e-06 0 0)
(2.56494e-06 0 0)
(2.56486e-06 0 0)
(2.56479e-06 0 0)
(2.56471e-06 0 0)
(2.56462e-06 0 0)
(2.56453e-06 0 0)
(2.56443e-06 0 0)
(2.56433e-06 0 0)
(2.56422e-06 0 0)
(2.56411e-06 0 0)
(2.56399e-06 0 0)
(2.56387e-06 0 0)
(2.56374e-06 0 0)
(2.56361e-06 0 0)
(2.56347e-06 0 0)
(2.56333e-06 0 0)
(2.56318e-06 0 0)
(2.56303e-06 0 0)
(2.56288e-06 0 0)
(2.56273e-06 0 0)
(2.56257e-06 0 0)
(2.56242e-06 0 0)
(2.56226e-06 0 0)
(2.5621e-06 0 0)
(2.56195e-06 0 0)
(2.56179e-06 0 0)
(2.56164e-06 0 0)
(2.56149e-06 0 0)
(2.56135e-06 0 0)
(2.56121e-06 0 0)
(2.56108e-06 0 0)
(2.56096e-06 0 0)
(2.56084e-06 0 0)
(2.56073e-06 0 0)
(2.56064e-06 0 0)
(2.56055e-06 0 0)
(2.56048e-06 0 0)
(2.56041e-06 0 0)
(2.56036e-06 0 0)
(2.56033e-06 0 0)
(2.5603e-06 0 0)
(2.56029e-06 0 0)
(2.56029e-06 0 0)
(2.56029e-06 0 0)
(2.5603e-06 0 0)
(2.56034e-06 0 0)
(2.56039e-06 0 0)
(2.56046e-06 0 0)
(2.56054e-06 0 0)
(2.56063e-06 0 0)
(2.56073e-06 0 0)
(2.56084e-06 0 0)
(2.56096e-06 0 0)
(2.56109e-06 0 0)
(2.56122e-06 0 0)
(2.56135e-06 0 0)
(2.56149e-06 0 0)
(2.56164e-06 0 0)
(2.56178e-06 0 0)
(2.56193e-06 0 0)
(2.56208e-06 0 0)
(2.56222e-06 0 0)
(2.56237e-06 0 0)
(2.56251e-06 0 0)
(2.56265e-06 0 0)
(2.56278e-06 0 0)
(2.56291e-06 0 0)
(2.56304e-06 0 0)
(2.56316e-06 0 0)
(2.56327e-06 0 0)
(2.56338e-06 0 0)
(2.56349e-06 0 0)
(2.56359e-06 0 0)
(2.56369e-06 0 0)
(2.56378e-06 0 0)
(2.56386e-06 0 0)
(2.56394e-06 0 0)
(2.56402e-06 0 0)
(2.56409e-06 0 0)
(2.56416e-06 0 0)
(2.56422e-06 0 0)
(2.56428e-06 0 0)
(2.56433e-06 0 0)
(2.56439e-06 0 0)
(2.56443e-06 0 0)
(2.56448e-06 0 0)
(2.56452e-06 0 0)
(2.56457e-06 0 0)
(2.56461e-06 0 0)
(2.56464e-06 0 0)
(2.56468e-06 0 0)
(2.56471e-06 0 0)
(2.56475e-06 0 0)
(2.56478e-06 0 0)
(2.56481e-06 0 0)
(2.56484e-06 0 0)
(2.56487e-06 0 0)
(2.5649e-06 0 0)
(2.56494e-06 0 0)
(2.56497e-06 0 0)
(2.565e-06 0 0)
(2.56503e-06 0 0)
(2.56506e-06 0 0)
(2.56509e-06 0 0)
(2.56512e-06 0 0)
(2.56515e-06 0 0)
(2.56518e-06 0 0)
(2.56521e-06 0 0)
(2.56524e-06 0 0)
(2.56527e-06 0 0)
(2.5653e-06 0 0)
(2.56533e-06 0 0)
(2.56536e-06 0 0)
(2.56539e-06 0 0)
(2.56542e-06 0 0)
(2.56545e-06 0 0)
(2.56548e-06 0 0)
(2.5655e-06 0 0)
(2.56553e-06 0 0)
(2.56556e-06 0 0)
(2.56559e-06 0 0)
(2.56561e-06 0 0)
(2.56564e-06 0 0)
(2.56567e-06 0 0)
(2.56569e-06 0 0)
(2.56571e-06 0 0)
(2.56574e-06 0 0)
(2.56576e-06 0 0)
(2.56578e-06 0 0)
(2.5658e-06 0 0)
(2.56583e-06 0 0)
(2.56585e-06 0 0)
(2.56587e-06 0 0)
(2.56588e-06 0 0)
(2.5659e-06 0 0)
(2.56592e-06 0 0)
(2.56593e-06 0 0)
(2.56595e-06 0 0)
(2.56596e-06 0 0)
(2.56598e-06 0 0)
(2.56599e-06 0 0)
(2.566e-06 0 0)
(2.56601e-06 0 0)
(2.56603e-06 0 0)
(2.56604e-06 0 0)
(2.56604e-06 0 0)
(2.56605e-06 0 0)
(2.56606e-06 0 0)
(2.56607e-06 0 0)
(2.56607e-06 0 0)
(2.56607e-06 0 0)
(2.56608e-06 0 0)
(2.56608e-06 0 0)
(2.56608e-06 0 0)
(2.56608e-06 0 0)
(2.56608e-06 0 0)
(2.56608e-06 0 0)
(2.56608e-06 0 0)
(2.56608e-06 0 0)
(2.56608e-06 0 0)
(2.56607e-06 0 0)
(2.56607e-06 0 0)
(2.56606e-06 0 0)
(2.56606e-06 0 0)
(2.56605e-06 0 0)
(2.56604e-06 0 0)
(2.56603e-06 0 0)
(2.56602e-06 0 0)
(2.56601e-06 0 0)
(2.566e-06 0 0)
(2.56599e-06 0 0)
(2.56597e-06 0 0)
(2.56596e-06 0 0)
(2.56595e-06 0 0)
(2.56593e-06 0 0)
(2.56592e-06 0 0)
(2.5659e-06 0 0)
(2.56589e-06 0 0)
(2.56587e-06 0 0)
(2.56585e-06 0 0)
(2.56583e-06 0 0)
(2.56581e-06 0 0)
(2.56579e-06 0 0)
(2.56577e-06 0 0)
(2.56575e-06 0 0)
(2.56572e-06 0 0)
(2.5657e-06 0 0)
(2.56568e-06 0 0)
(2.56565e-06 0 0)
(2.56562e-06 0 0)
(2.56559e-06 0 0)
(2.56557e-06 0 0)
(2.56553e-06 0 0)
(2.5655e-06 0 0)
(2.56547e-06 0 0)
(2.56543e-06 0 0)
(2.56539e-06 0 0)
(2.56535e-06 0 0)
(2.56531e-06 0 0)
(2.56527e-06 0 0)
(2.56522e-06 0 0)
(2.56517e-06 0 0)
(2.56512e-06 0 0)
(2.56506e-06 0 0)
(2.565e-06 0 0)
(2.56494e-06 0 0)
(2.56487e-06 0 0)
(2.5648e-06 0 0)
(2.56473e-06 0 0)
(2.56465e-06 0 0)
(2.56457e-06 0 0)
(2.56449e-06 0 0)
(2.5644e-06 0 0)
(2.56431e-06 0 0)
(2.56421e-06 0 0)
(2.56411e-06 0 0)
(2.564e-06 0 0)
(2.56389e-06 0 0)
(2.56378e-06 0 0)
(2.56366e-06 0 0)
(2.56354e-06 0 0)
(2.56342e-06 0 0)
(2.56329e-06 0 0)
(2.56317e-06 0 0)
(2.56304e-06 0 0)
(2.5629e-06 0 0)
(2.56277e-06 0 0)
(2.56264e-06 0 0)
(2.5625e-06 0 0)
(2.56237e-06 0 0)
(2.56223e-06 0 0)
(2.5621e-06 0 0)
(2.56197e-06 0 0)
(2.56184e-06 0 0)
(2.56172e-06 0 0)
(2.5616e-06 0 0)
(2.56149e-06 0 0)
(2.56138e-06 0 0)
(2.56127e-06 0 0)
(2.56118e-06 0 0)
(2.56109e-06 0 0)
(2.561e-06 0 0)
(2.56093e-06 0 0)
(2.56086e-06 0 0)
(2.56081e-06 0 0)
(2.56076e-06 0 0)
(2.56073e-06 0 0)
(2.5607e-06 0 0)
(2.56069e-06 0 0)
(2.56068e-06 0 0)
(2.56068e-06 0 0)
(2.56069e-06 0 0)
(2.5607e-06 0 0)
(2.56073e-06 0 0)
(2.56078e-06 0 0)
(2.56084e-06 0 0)
(2.56091e-06 0 0)
(2.56099e-06 0 0)
(2.56107e-06 0 0)
(2.56116e-06 0 0)
(2.56126e-06 0 0)
(2.56137e-06 0 0)
(2.56148e-06 0 0)
(2.5616e-06 0 0)
(2.56172e-06 0 0)
(2.56184e-06 0 0)
(2.56196e-06 0 0)
(2.56209e-06 0 0)
(2.56222e-06 0 0)
(2.56235e-06 0 0)
(2.56247e-06 0 0)
(2.5626e-06 0 0)
(2.56272e-06 0 0)
(2.56285e-06 0 0)
(2.56296e-06 0 0)
(2.56308e-06 0 0)
(2.56319e-06 0 0)
(2.5633e-06 0 0)
(2.5634e-06 0 0)
(2.5635e-06 0 0)
(2.5636e-06 0 0)
(2.56369e-06 0 0)
(2.56378e-06 0 0)
(2.56386e-06 0 0)
(2.56394e-06 0 0)
(2.56401e-06 0 0)
(2.56408e-06 0 0)
(2.56415e-06 0 0)
(2.56421e-06 0 0)
(2.56427e-06 0 0)
(2.56432e-06 0 0)
)
;

boundaryField
{
    inlet
    {
        type            fixedValue;
        value           uniform (1.13622e-05 0 0);
    }
    outlet
    {
        type            zeroGradient;
    }
    emptyWalls
    {
        type            empty;
    }
}


// ************************************************************************* //
