/*--------------------------------*- C++ -*----------------------------------*\
  =========                 |
  \\      /  F ield         | OpenFOAM: The Open Source CFD Toolbox
   \\    /   O peration     | Website:  https://openfoam.org
    \\  /    A nd           | Version:  9
     \\/     M anipulation  |
\*---------------------------------------------------------------------------*/
FoamFile
{
    format      ascii;
    class       volScalarField;
    location    "7900";
    object      kra;
}
// * * * * * * * * * * * * * * * * * * * * * * * * * * * * * * * * * * * * * //

dimensions      [0 0 0 0 0 0 0];

internalField   nonuniform List<scalar> 
1000
(
0.000237806
0.000240828
0.000244977
0.000248167
0.000251793
0.000254572
0.000257423
0.00026008
0.000265488
0.000282188
0.000371164
0.000758481
0.000897758
0.000921304
0.000925244
0.00092513
0.000925175
0.000925859
0.000926761
0.000928097
0.000929336
0.00092968
0.000929529
0.000929341
0.000928379
0.000926729
0.000924498
0.000921368
0.000917284
0.000911779
0.00090517
0.000897616
0.00088966
0.000881543
0.000873404
0.000865325
0.000857352
0.000849512
0.00084182
0.000834284
0.000826906
0.000819687
0.000812623
0.000805711
0.000798948
0.00079233
0.000785854
0.000779518
0.000773319
0.000767254
0.000761318
0.000755508
0.000749821
0.000744253
0.000738801
0.000733462
0.000728234
0.000723113
0.000718098
0.000713185
0.000708372
0.000703655
0.000699032
0.000694497
0.000690048
0.000685681
0.000681393
0.000677178
0.000673034
0.000668958
0.000664946
0.000660998
0.00065711
0.000653282
0.000649512
0.0006458
0.000642144
0.000638543
0.000634997
0.000631505
0.000628066
0.000624678
0.000621341
0.000618053
0.000614814
0.000611621
0.000608474
0.000605372
0.000602314
0.000599299
0.000596325
0.00059339
0.000590492
0.00058763
0.000584802
0.000582006
0.000579245
0.000576519
0.00057383
0.00057118
0.000568571
0.000566003
0.000563476
0.000560986
0.000558536
0.000556117
0.000553736
0.000551383
0.000549076
0.0005468
0.000544585
0.000542408
0.000540312
0.000538263
0.000536311
0.00053441
0.000532614
0.000530866
0.000529217
0.000527608
0.000526081
0.00052458
0.000523132
0.00052169
0.000520265
0.000518822
0.000517353
0.000515837
0.000514255
0.000512595
0.000510835
0.000508971
0.000506991
0.000504893
0.000502681
0.00050036
0.000497946
0.000495454
0.000492907
0.000490327
0.000487738
0.000485165
0.000482628
0.000480148
0.000477739
0.000475412
0.000473176
0.000471034
0.000468986
0.000467028
0.000465157
0.000463362
0.000461638
0.000459974
0.00045836
0.000456789
0.00045525
0.000453736
0.000452241
0.000450758
0.000449283
0.000447812
0.000446343
0.000444873
0.000443401
0.000441928
0.000440453
0.000438976
0.0004375
0.000436023
0.000434549
0.000433077
0.000431609
0.000430146
0.000428689
0.000427239
0.000425795
0.00042436
0.000422932
0.000421514
0.000420104
0.000418703
0.000417311
0.000415928
0.000414554
0.000413189
0.000411833
0.000410486
0.000409147
0.000407816
0.000406494
0.00040518
0.000403874
0.000402577
0.000401287
0.000400005
0.000398731
0.000397465
0.000396206
0.000394956
0.000393713
0.000392479
0.000391252
0.000390033
0.000388822
0.00038762
0.000386425
0.000385239
0.000384061
0.000382892
0.000381731
0.000380578
0.000379433
0.000378297
0.000377169
0.000376049
0.000374938
0.000373834
0.000372739
0.000371651
0.00037057
0.000369498
0.000368433
0.000367375
0.000366324
0.00036528
0.000364243
0.000363213
0.000362189
0.00036117
0.000360159
0.000359153
0.000358152
0.000357158
0.000356168
0.000355184
0.000354205
0.000353231
0.000352261
0.000351297
0.000350337
0.000349381
0.00034843
0.000347483
0.00034654
0.000345601
0.000344666
0.000343734
0.000342807
0.000341883
0.000340962
0.000340046
0.000339132
0.000338222
0.000337316
0.000336414
0.000335515
0.000334619
0.000333728
0.00033284
0.000331956
0.000331077
0.000330201
0.00032933
0.000328463
0.000327602
0.000326744
0.000325893
0.000325046
0.000324205
0.000323371
0.000322543
0.000321723
0.000320911
0.000320109
0.000319315
0.000318533
0.000317761
0.000317001
0.000316255
0.00031552
0.000314801
0.000314094
0.000313401
0.000312722
0.000312055
0.000311403
0.000310762
0.000310134
0.000309515
0.000308908
0.000308309
0.000307718
0.000307136
0.000306561
0.000305995
0.000305435
0.000304886
0.000304345
0.000303816
0.0003033
0.000302797
0.00030231
0.000301837
0.000301379
0.000300928
0.000300478
0.00030001
0.000299495
0.000298882
0.000298076
0.000296926
0.000295179
0.000292459
0.000288284
0.000282242
0.000274424
0.00026587
0.000258324
0.000253017
0.000249912
0.000248266
0.000247391
0.000246888
0.000246565
0.000246336
0.000246159
0.000246016
0.000245896
0.000245795
0.000245709
0.000245637
0.000245577
0.000245529
0.00024549
0.00024546
0.000245438
0.000245423
0.000245413
0.000245409
0.000245407
0.000245407
0.000245407
0.00024541
0.000245414
0.000245416
0.000245417
0.000245418
0.000245417
0.000245416
0.000245411
0.000245402
0.000245391
0.000245378
0.000245362
0.000245344
0.000245324
0.000245302
0.000245277
0.000245251
0.000245223
0.000245194
0.000245163
0.000245131
0.000245098
0.000245064
0.00024503
0.000244995
0.000244959
0.000244924
0.000244888
0.000244852
0.000244816
0.00024478
0.000244745
0.000244709
0.000244674
0.000244639
0.000244605
0.000244571
0.000244537
0.000244503
0.00024447
0.000244438
0.000244405
0.000244373
0.000244342
0.00024431
0.00024428
0.000244249
0.00024422
0.00024419
0.000244161
0.000244133
0.000244105
0.000244077
0.000244051
0.000244024
0.000243999
0.000243974
0.00024395
0.000243927
0.000243905
0.000243884
0.000243863
0.000243844
0.000243826
0.000243809
0.000243794
0.000243779
0.000243767
0.000243755
0.000243745
0.000243737
0.00024373
0.000243725
0.000243721
0.000243719
0.000243719
0.000243719
0.000243719
0.000243722
0.000243728
0.000243735
0.000243744
0.000243753
0.000243765
0.000243777
0.000243792
0.000243807
0.000243823
0.00024384
0.000243859
0.000243878
0.000243898
0.000243919
0.000243941
0.000243963
0.000243987
0.00024401
0.000244034
0.000244059
0.000244084
0.000244109
0.000244135
0.000244161
0.000244188
0.000244214
0.000244241
0.000244268
0.000244295
0.000244323
0.000244351
0.000244378
0.000244407
0.000244435
0.000244465
0.000244494
0.000244524
0.000244555
0.000244586
0.000244617
0.00024465
0.000244683
0.000244718
0.000244753
0.00024479
0.000244828
0.000244868
0.000244909
0.000244953
0.000244998
0.000245046
0.000245096
0.000245149
0.000245205
0.000245266
0.000245329
0.000245397
0.000245468
0.000245544
0.000245625
0.000245711
0.000245801
0.000245898
0.000245999
0.000246106
0.000246218
0.000246336
0.000246458
0.000246586
0.000246718
0.000246854
0.000246994
0.000247137
0.000247282
0.000247429
0.000247576
0.000247724
0.000247869
0.000248013
0.000248152
0.000248287
0.000248416
0.000248537
0.000248649
0.000248752
0.000248842
0.000248921
0.000248986
0.000249037
0.000249071
0.00024909
0.000249094
0.000249095
0.000249091
0.000249064
0.000249002
0.000248924
0.00024883
0.000248723
0.000248602
0.00024847
0.000248328
0.000248178
0.000248021
0.000247859
0.000247695
0.000247529
0.000247364
0.000247202
0.000247043
0.000246889
0.000246741
0.0002466
0.000246468
0.000246344
0.000246229
0.000246124
0.000246029
0.000245943
0.000245866
0.000245798
0.000245739
0.000245688
0.000245644
0.000245607
0.000245577
0.000245551
0.000245531
0.000245514
0.000245501
0.000245491
0.000245483
0.000245477
0.000245472
0.000245468
0.000245463
0.000245459
0.000245454
0.000245448
0.00024544
0.000245432
0.000245421
0.000245409
0.000245395
0.000245379
0.000245362
0.000245342
0.000245321
0.000245298
0.000245273
0.000245247
0.000245219
0.00024519
0.00024516
0.000245128
0.000245096
0.000245063
0.00024503
0.000244996
0.000244961
0.000244927
0.000244892
0.000244857
0.000244822
0.000244788
0.000244753
0.000244719
0.000244686
0.000244653
0.00024462
0.000244589
0.000244558
0.000244527
0.000244497
0.000244469
0.00024444
0.000244413
0.000244387
0.000244361
0.000244336
0.000244312
0.000244289
0.000244266
0.000244245
0.000244224
0.000244204
0.000244185
0.000244166
0.000244149
0.000244132
0.000244115
0.0002441
0.000244085
0.000244071
0.000244058
0.000244045
0.000244033
0.000244022
0.000244012
0.000244002
0.000243993
0.000243985
0.000243978
0.000243972
0.000243967
0.000243962
0.000243958
0.000243956
0.000243954
0.000243954
0.000243954
0.000243954
0.000243955
0.000243958
0.000243962
0.000243968
0.000243975
0.000243983
0.000243992
0.000244002
0.000244013
0.000244025
0.000244039
0.000244053
0.000244068
0.000244084
0.000244102
0.000244119
0.000244139
0.000244158
0.000244179
0.0002442
0.000244222
0.000244244
0.000244268
0.000244291
0.000244316
0.00024434
0.000244366
0.000244391
0.000244418
0.000244445
0.000244472
0.0002445
0.000244528
0.000244557
0.000244586
0.000244616
0.000244647
0.000244678
0.00024471
0.000244743
0.000244778
0.000244813
0.00024485
0.000244888
0.000244928
0.000244969
0.000245013
0.000245058
0.000245106
0.000245156
0.000245209
0.000245265
0.000245324
0.000245386
0.000245451
0.00024552
0.000245593
0.00024567
0.00024575
0.000245834
0.000245923
0.000246015
0.000246111
0.000246211
0.000246314
0.000246421
0.000246531
0.000246644
0.000246759
0.000246876
0.000246994
0.000247113
0.000247233
0.000247352
0.000247471
0.000247587
0.0002477
0.00024781
0.000247916
0.000248017
0.000248112
0.000248199
0.000248279
0.000248351
0.000248413
0.000248465
0.000248507
0.000248536
0.000248554
0.00024856
0.000248561
0.00024856
0.000248549
0.000248509
0.000248455
0.000248389
0.000248313
0.000248226
0.000248129
0.000248024
0.000247912
0.000247793
0.000247669
0.000247541
0.000247411
0.00024728
0.000247148
0.000247017
0.000246888
0.000246763
0.000246641
0.000246524
0.000246412
0.000246307
0.000246207
0.000246114
0.000246029
0.00024595
0.000245878
0.000245813
0.000245754
0.000245702
0.000245656
0.000245616
0.000245581
0.000245551
0.000245525
0.000245503
0.000245485
0.00024547
0.000245457
0.000245446
0.000245437
0.00024543
0.000245423
0.000245416
0.00024541
0.000245403
0.000245396
0.000245389
0.00024538
0.000245371
0.000245359
0.000245347
0.000245333
0.000245318
0.000245301
0.000245282
0.000245262
0.00024524
0.000245216
0.000245192
0.000245165
0.000245138
0.000245109
0.000245079
0.000245048
0.000245016
0.000244984
0.00024495
0.000244917
0.000244882
0.000244848
0.000244813
0.000244778
0.000244743
0.000244708
0.000244673
0.000244639
0.000244605
0.000244571
0.000244538
0.000244505
0.000244473
0.000244441
0.00024441
0.00024438
0.000244351
0.000244323
0.000244295
0.000244268
0.000244242
0.000244217
0.000244193
0.000244169
0.000244147
0.000244125
0.000244104
0.000244084
0.000244064
0.000244046
0.000244028
0.000244011
0.000243995
0.000243979
0.000243965
0.000243951
0.000243937
0.000243925
0.000243913
0.000243902
0.000243891
0.000243881
0.000243872
0.000243864
0.000243856
0.000243849
0.000243843
0.000243837
0.000243833
0.000243829
0.000243826
0.000243823
0.000243822
0.000243822
0.000243822
0.000243822
0.000243823
0.000243825
0.00024383
0.000243835
0.000243841
0.000243848
0.000243857
0.000243866
0.000243877
0.000243888
0.000243901
0.000243915
0.00024393
0.000243946
0.000243963
0.000243981
0.000244
0.000244021
0.000244042
0.000244065
0.000244089
0.000244113
0.000244139
0.000244166
0.000244195
0.000244224
0.000244255
0.000244286
0.000244319
0.000244354
0.000244389
0.000244426
0.000244465
0.000244504
0.000244546
0.000244589
0.000244634
0.000244681
0.00024473
0.00024478
0.000244833
0.000244888
0.000244946
0.000245005
0.000245068
0.000245133
0.000245201
0.000245272
0.000245346
0.000245422
0.000245502
0.000245585
0.000245671
0.00024576
0.000245851
0.000245946
0.000246043
0.000246143
0.000246246
0.00024635
0.000246457
0.000246565
0.000246675
0.000246786
0.000246898
0.000247009
0.000247121
0.000247231
0.000247341
0.000247448
0.000247553
0.000247655
0.000247754
0.000247848
0.000247938
0.000248022
0.000248101
0.000248172
0.000248237
0.000248293
0.000248342
0.000248382
0.000248413
0.000248434
0.000248446
0.000248449
0.000248449
0.000248447
0.000248433
0.000248395
0.000248353
0.000248295
0.000248237
0.000248161
0.000248089
0.000247998
0.000247914
0.000247811
0.000247719
0.000247608
0.000247511
0.000247396
0.000247297
0.000247181
0.000247082
0.000246969
0.000246874
0.000246766
0.000246677
0.000246576
0.000246496
0.000246403
0.000246332
0.000246249
0.000246187
0.000246114
0.000246062
0.000245999
0.000245956
0.000245903
0.000245867
0.000245824
0.000245794
0.00024576
0.000245735
0.000245708
0.000245686
0.000245665
0.000245646
0.000245629
0.000245612
0.000245597
0.000245582
0.000245568
0.000245553
0.00024554
0.000245525
0.00024551
0.000245495
0.000245478
0.000245462
0.000245443
0.000245426
0.000245404
0.000245386
0.00024536
0.000245342
0.000245311
0.000245293
)
;

boundaryField
{
    inlet
    {
        type            calculated;
        value           uniform 0.000236304;
    }
    outlet
    {
        type            calculated;
        value           uniform 0.000245275;
    }
    emptyWalls
    {
        type            empty;
    }
}


// ************************************************************************* //
