/*--------------------------------*- C++ -*----------------------------------*\
  =========                 |
  \\      /  F ield         | OpenFOAM: The Open Source CFD Toolbox
   \\    /   O peration     | Website:  https://openfoam.org
    \\  /    A nd           | Version:  9
     \\/     M anipulation  |
\*---------------------------------------------------------------------------*/
FoamFile
{
    format      ascii;
    class       volVectorField;
    location    "7900";
    object      Ua;
}
// * * * * * * * * * * * * * * * * * * * * * * * * * * * * * * * * * * * * * //

dimensions      [0 0 0 0 0 0 0];

internalField   nonuniform List<vector> 
1000
(
(2.74844e-06 0 0)
(2.74756e-06 0 0)
(2.74707e-06 0 0)
(2.74558e-06 0 0)
(2.74415e-06 0 0)
(2.74241e-06 0 0)
(2.74045e-06 0 0)
(2.738e-06 0 0)
(2.73074e-06 0 0)
(2.70549e-06 0 0)
(2.57229e-06 0 0)
(2.33954e-06 0 0)
(2.1931e-06 0 0)
(2.14897e-06 0 0)
(2.11941e-06 0 0)
(2.0983e-06 0 0)
(2.08429e-06 0 0)
(2.07616e-06 0 0)
(2.07193e-06 0 0)
(2.06992e-06 0 0)
(2.06896e-06 0 0)
(2.06791e-06 0 0)
(2.06663e-06 0 0)
(2.06531e-06 0 0)
(2.06372e-06 0 0)
(2.0617e-06 0 0)
(2.05946e-06 0 0)
(2.05719e-06 0 0)
(2.05512e-06 0 0)
(2.05351e-06 0 0)
(2.05246e-06 0 0)
(2.05165e-06 0 0)
(2.05082e-06 0 0)
(2.04999e-06 0 0)
(2.04915e-06 0 0)
(2.04831e-06 0 0)
(2.04747e-06 0 0)
(2.04664e-06 0 0)
(2.04581e-06 0 0)
(2.04498e-06 0 0)
(2.04415e-06 0 0)
(2.04333e-06 0 0)
(2.04251e-06 0 0)
(2.04169e-06 0 0)
(2.04086e-06 0 0)
(2.04004e-06 0 0)
(2.03922e-06 0 0)
(2.03841e-06 0 0)
(2.03761e-06 0 0)
(2.03682e-06 0 0)
(2.03604e-06 0 0)
(2.03528e-06 0 0)
(2.03454e-06 0 0)
(2.03381e-06 0 0)
(2.0331e-06 0 0)
(2.03242e-06 0 0)
(2.03175e-06 0 0)
(2.03111e-06 0 0)
(2.03049e-06 0 0)
(2.0299e-06 0 0)
(2.02934e-06 0 0)
(2.02881e-06 0 0)
(2.0283e-06 0 0)
(2.02781e-06 0 0)
(2.02734e-06 0 0)
(2.02689e-06 0 0)
(2.02645e-06 0 0)
(2.02601e-06 0 0)
(2.02558e-06 0 0)
(2.02515e-06 0 0)
(2.02472e-06 0 0)
(2.02429e-06 0 0)
(2.02386e-06 0 0)
(2.02342e-06 0 0)
(2.02298e-06 0 0)
(2.02254e-06 0 0)
(2.02211e-06 0 0)
(2.02167e-06 0 0)
(2.02125e-06 0 0)
(2.02083e-06 0 0)
(2.02041e-06 0 0)
(2.02001e-06 0 0)
(2.01961e-06 0 0)
(2.01922e-06 0 0)
(2.01884e-06 0 0)
(2.01847e-06 0 0)
(2.0181e-06 0 0)
(2.01775e-06 0 0)
(2.0174e-06 0 0)
(2.01706e-06 0 0)
(2.01672e-06 0 0)
(2.01639e-06 0 0)
(2.01606e-06 0 0)
(2.01572e-06 0 0)
(2.01538e-06 0 0)
(2.01504e-06 0 0)
(2.01469e-06 0 0)
(2.01435e-06 0 0)
(2.01402e-06 0 0)
(2.01372e-06 0 0)
(2.01344e-06 0 0)
(2.0132e-06 0 0)
(2.01299e-06 0 0)
(2.01281e-06 0 0)
(2.01265e-06 0 0)
(2.01252e-06 0 0)
(2.01241e-06 0 0)
(2.01233e-06 0 0)
(2.01228e-06 0 0)
(2.01229e-06 0 0)
(2.01237e-06 0 0)
(2.01256e-06 0 0)
(2.01287e-06 0 0)
(2.01333e-06 0 0)
(2.01396e-06 0 0)
(2.01477e-06 0 0)
(2.01578e-06 0 0)
(2.01697e-06 0 0)
(2.01834e-06 0 0)
(2.01987e-06 0 0)
(2.02154e-06 0 0)
(2.0233e-06 0 0)
(2.02514e-06 0 0)
(2.02699e-06 0 0)
(2.0288e-06 0 0)
(2.03052e-06 0 0)
(2.03209e-06 0 0)
(2.03344e-06 0 0)
(2.03451e-06 0 0)
(2.03524e-06 0 0)
(2.03558e-06 0 0)
(2.03549e-06 0 0)
(2.03493e-06 0 0)
(2.03389e-06 0 0)
(2.03238e-06 0 0)
(2.03042e-06 0 0)
(2.02806e-06 0 0)
(2.02534e-06 0 0)
(2.02235e-06 0 0)
(2.01917e-06 0 0)
(2.01587e-06 0 0)
(2.01255e-06 0 0)
(2.00929e-06 0 0)
(2.00616e-06 0 0)
(2.00322e-06 0 0)
(2.00051e-06 0 0)
(1.99807e-06 0 0)
(1.99591e-06 0 0)
(1.99404e-06 0 0)
(1.99245e-06 0 0)
(1.99113e-06 0 0)
(1.99004e-06 0 0)
(1.98917e-06 0 0)
(1.98848e-06 0 0)
(1.98793e-06 0 0)
(1.9875e-06 0 0)
(1.98715e-06 0 0)
(1.98685e-06 0 0)
(1.98658e-06 0 0)
(1.98632e-06 0 0)
(1.98604e-06 0 0)
(1.98574e-06 0 0)
(1.9854e-06 0 0)
(1.98502e-06 0 0)
(1.98459e-06 0 0)
(1.98411e-06 0 0)
(1.98358e-06 0 0)
(1.98301e-06 0 0)
(1.98239e-06 0 0)
(1.98173e-06 0 0)
(1.98104e-06 0 0)
(1.98032e-06 0 0)
(1.97957e-06 0 0)
(1.97881e-06 0 0)
(1.97802e-06 0 0)
(1.97723e-06 0 0)
(1.97642e-06 0 0)
(1.97561e-06 0 0)
(1.97479e-06 0 0)
(1.97397e-06 0 0)
(1.97315e-06 0 0)
(1.97232e-06 0 0)
(1.9715e-06 0 0)
(1.97068e-06 0 0)
(1.96986e-06 0 0)
(1.96904e-06 0 0)
(1.96822e-06 0 0)
(1.9674e-06 0 0)
(1.96658e-06 0 0)
(1.96577e-06 0 0)
(1.96496e-06 0 0)
(1.96415e-06 0 0)
(1.96333e-06 0 0)
(1.96253e-06 0 0)
(1.96172e-06 0 0)
(1.96091e-06 0 0)
(1.96011e-06 0 0)
(1.9593e-06 0 0)
(1.9585e-06 0 0)
(1.95771e-06 0 0)
(1.95691e-06 0 0)
(1.95612e-06 0 0)
(1.95534e-06 0 0)
(1.95456e-06 0 0)
(1.95378e-06 0 0)
(1.95302e-06 0 0)
(1.95226e-06 0 0)
(1.95151e-06 0 0)
(1.95077e-06 0 0)
(1.95003e-06 0 0)
(1.94931e-06 0 0)
(1.9486e-06 0 0)
(1.9479e-06 0 0)
(1.9472e-06 0 0)
(1.94652e-06 0 0)
(1.94586e-06 0 0)
(1.9452e-06 0 0)
(1.94455e-06 0 0)
(1.94392e-06 0 0)
(1.9433e-06 0 0)
(1.94268e-06 0 0)
(1.94208e-06 0 0)
(1.94149e-06 0 0)
(1.94091e-06 0 0)
(1.94034e-06 0 0)
(1.93978e-06 0 0)
(1.93923e-06 0 0)
(1.93869e-06 0 0)
(1.93815e-06 0 0)
(1.93763e-06 0 0)
(1.93711e-06 0 0)
(1.93659e-06 0 0)
(1.93609e-06 0 0)
(1.93559e-06 0 0)
(1.93509e-06 0 0)
(1.9346e-06 0 0)
(1.93411e-06 0 0)
(1.93363e-06 0 0)
(1.93315e-06 0 0)
(1.93268e-06 0 0)
(1.93221e-06 0 0)
(1.93174e-06 0 0)
(1.93127e-06 0 0)
(1.93081e-06 0 0)
(1.93035e-06 0 0)
(1.92989e-06 0 0)
(1.92944e-06 0 0)
(1.92899e-06 0 0)
(1.92853e-06 0 0)
(1.92808e-06 0 0)
(1.92763e-06 0 0)
(1.92719e-06 0 0)
(1.92674e-06 0 0)
(1.9263e-06 0 0)
(1.92586e-06 0 0)
(1.92542e-06 0 0)
(1.92499e-06 0 0)
(1.92456e-06 0 0)
(1.92413e-06 0 0)
(1.92371e-06 0 0)
(1.9233e-06 0 0)
(1.9229e-06 0 0)
(1.9225e-06 0 0)
(1.92212e-06 0 0)
(1.92174e-06 0 0)
(1.92138e-06 0 0)
(1.92103e-06 0 0)
(1.92069e-06 0 0)
(1.92038e-06 0 0)
(1.92008e-06 0 0)
(1.9198e-06 0 0)
(1.91955e-06 0 0)
(1.91933e-06 0 0)
(1.91915e-06 0 0)
(1.919e-06 0 0)
(1.9189e-06 0 0)
(1.91884e-06 0 0)
(1.91883e-06 0 0)
(1.91888e-06 0 0)
(1.91899e-06 0 0)
(1.91916e-06 0 0)
(1.91939e-06 0 0)
(1.91969e-06 0 0)
(1.92006e-06 0 0)
(1.92049e-06 0 0)
(1.92098e-06 0 0)
(1.92153e-06 0 0)
(1.92213e-06 0 0)
(1.92278e-06 0 0)
(1.92347e-06 0 0)
(1.92418e-06 0 0)
(1.92492e-06 0 0)
(1.92566e-06 0 0)
(1.92639e-06 0 0)
(1.9271e-06 0 0)
(1.92778e-06 0 0)
(1.92841e-06 0 0)
(1.92898e-06 0 0)
(1.92947e-06 0 0)
(1.92987e-06 0 0)
(1.93017e-06 0 0)
(1.93035e-06 0 0)
(1.93042e-06 0 0)
(1.93034e-06 0 0)
(1.93013e-06 0 0)
(1.92976e-06 0 0)
(1.92923e-06 0 0)
(1.92852e-06 0 0)
(1.92762e-06 0 0)
(1.92647e-06 0 0)
(1.92502e-06 0 0)
(1.92313e-06 0 0)
(1.9206e-06 0 0)
(1.91712e-06 0 0)
(1.91229e-06 0 0)
(1.90578e-06 0 0)
(1.89769e-06 0 0)
(1.88893e-06 0 0)
(1.88098e-06 0 0)
(1.87493e-06 0 0)
(1.87086e-06 0 0)
(1.86817e-06 0 0)
(1.86627e-06 0 0)
(1.86479e-06 0 0)
(1.86355e-06 0 0)
(1.86247e-06 0 0)
(1.86152e-06 0 0)
(1.86068e-06 0 0)
(1.85994e-06 0 0)
(1.85929e-06 0 0)
(1.85873e-06 0 0)
(1.85826e-06 0 0)
(1.85786e-06 0 0)
(1.85754e-06 0 0)
(1.85728e-06 0 0)
(1.85708e-06 0 0)
(1.85693e-06 0 0)
(1.85683e-06 0 0)
(1.85676e-06 0 0)
(1.85673e-06 0 0)
(1.85672e-06 0 0)
(1.85671e-06 0 0)
(1.85672e-06 0 0)
(1.85673e-06 0 0)
(1.85676e-06 0 0)
(1.85677e-06 0 0)
(1.85678e-06 0 0)
(1.85678e-06 0 0)
(1.85678e-06 0 0)
(1.85677e-06 0 0)
(1.85673e-06 0 0)
(1.85668e-06 0 0)
(1.8566e-06 0 0)
(1.85651e-06 0 0)
(1.85641e-06 0 0)
(1.85629e-06 0 0)
(1.85616e-06 0 0)
(1.85601e-06 0 0)
(1.85584e-06 0 0)
(1.85567e-06 0 0)
(1.85548e-06 0 0)
(1.85529e-06 0 0)
(1.85508e-06 0 0)
(1.85487e-06 0 0)
(1.85465e-06 0 0)
(1.85442e-06 0 0)
(1.85419e-06 0 0)
(1.85396e-06 0 0)
(1.85372e-06 0 0)
(1.85349e-06 0 0)
(1.85325e-06 0 0)
(1.85301e-06 0 0)
(1.85277e-06 0 0)
(1.85253e-06 0 0)
(1.85229e-06 0 0)
(1.85206e-06 0 0)
(1.85182e-06 0 0)
(1.85159e-06 0 0)
(1.85136e-06 0 0)
(1.85113e-06 0 0)
(1.8509e-06 0 0)
(1.85068e-06 0 0)
(1.85046e-06 0 0)
(1.85024e-06 0 0)
(1.85002e-06 0 0)
(1.84981e-06 0 0)
(1.8496e-06 0 0)
(1.84939e-06 0 0)
(1.84918e-06 0 0)
(1.84898e-06 0 0)
(1.84878e-06 0 0)
(1.84859e-06 0 0)
(1.84839e-06 0 0)
(1.8482e-06 0 0)
(1.84802e-06 0 0)
(1.84783e-06 0 0)
(1.84765e-06 0 0)
(1.84748e-06 0 0)
(1.84731e-06 0 0)
(1.84714e-06 0 0)
(1.84698e-06 0 0)
(1.84683e-06 0 0)
(1.84668e-06 0 0)
(1.84654e-06 0 0)
(1.8464e-06 0 0)
(1.84628e-06 0 0)
(1.84616e-06 0 0)
(1.84604e-06 0 0)
(1.84594e-06 0 0)
(1.84584e-06 0 0)
(1.84576e-06 0 0)
(1.84568e-06 0 0)
(1.84562e-06 0 0)
(1.84556e-06 0 0)
(1.84551e-06 0 0)
(1.84548e-06 0 0)
(1.84546e-06 0 0)
(1.84544e-06 0 0)
(1.84544e-06 0 0)
(1.84544e-06 0 0)
(1.84544e-06 0 0)
(1.84546e-06 0 0)
(1.8455e-06 0 0)
(1.84555e-06 0 0)
(1.84561e-06 0 0)
(1.84567e-06 0 0)
(1.84575e-06 0 0)
(1.84584e-06 0 0)
(1.84593e-06 0 0)
(1.84603e-06 0 0)
(1.84614e-06 0 0)
(1.84625e-06 0 0)
(1.84638e-06 0 0)
(1.84651e-06 0 0)
(1.84664e-06 0 0)
(1.84678e-06 0 0)
(1.84693e-06 0 0)
(1.84708e-06 0 0)
(1.84723e-06 0 0)
(1.84739e-06 0 0)
(1.84755e-06 0 0)
(1.84771e-06 0 0)
(1.84788e-06 0 0)
(1.84805e-06 0 0)
(1.84822e-06 0 0)
(1.8484e-06 0 0)
(1.84857e-06 0 0)
(1.84875e-06 0 0)
(1.84893e-06 0 0)
(1.84911e-06 0 0)
(1.84929e-06 0 0)
(1.84948e-06 0 0)
(1.84966e-06 0 0)
(1.84985e-06 0 0)
(1.85004e-06 0 0)
(1.85023e-06 0 0)
(1.85043e-06 0 0)
(1.85062e-06 0 0)
(1.85082e-06 0 0)
(1.85103e-06 0 0)
(1.85124e-06 0 0)
(1.85145e-06 0 0)
(1.85167e-06 0 0)
(1.85189e-06 0 0)
(1.85212e-06 0 0)
(1.85236e-06 0 0)
(1.8526e-06 0 0)
(1.85286e-06 0 0)
(1.85312e-06 0 0)
(1.8534e-06 0 0)
(1.85369e-06 0 0)
(1.85399e-06 0 0)
(1.85431e-06 0 0)
(1.85465e-06 0 0)
(1.855e-06 0 0)
(1.85538e-06 0 0)
(1.85578e-06 0 0)
(1.8562e-06 0 0)
(1.85665e-06 0 0)
(1.85713e-06 0 0)
(1.85764e-06 0 0)
(1.85818e-06 0 0)
(1.85875e-06 0 0)
(1.85936e-06 0 0)
(1.86e-06 0 0)
(1.86068e-06 0 0)
(1.86139e-06 0 0)
(1.86214e-06 0 0)
(1.86292e-06 0 0)
(1.86374e-06 0 0)
(1.86459e-06 0 0)
(1.86547e-06 0 0)
(1.86638e-06 0 0)
(1.86731e-06 0 0)
(1.86826e-06 0 0)
(1.86923e-06 0 0)
(1.8702e-06 0 0)
(1.87118e-06 0 0)
(1.87216e-06 0 0)
(1.87313e-06 0 0)
(1.87408e-06 0 0)
(1.87501e-06 0 0)
(1.87591e-06 0 0)
(1.87676e-06 0 0)
(1.87756e-06 0 0)
(1.87831e-06 0 0)
(1.87899e-06 0 0)
(1.87959e-06 0 0)
(1.88011e-06 0 0)
(1.88055e-06 0 0)
(1.88088e-06 0 0)
(1.88111e-06 0 0)
(1.88124e-06 0 0)
(1.88128e-06 0 0)
(1.88129e-06 0 0)
(1.88125e-06 0 0)
(1.88105e-06 0 0)
(1.88065e-06 0 0)
(1.88013e-06 0 0)
(1.87951e-06 0 0)
(1.87879e-06 0 0)
(1.87799e-06 0 0)
(1.87712e-06 0 0)
(1.87618e-06 0 0)
(1.87518e-06 0 0)
(1.87414e-06 0 0)
(1.87306e-06 0 0)
(1.87197e-06 0 0)
(1.87087e-06 0 0)
(1.86978e-06 0 0)
(1.86869e-06 0 0)
(1.86764e-06 0 0)
(1.86661e-06 0 0)
(1.86563e-06 0 0)
(1.86469e-06 0 0)
(1.86381e-06 0 0)
(1.86299e-06 0 0)
(1.86222e-06 0 0)
(1.86152e-06 0 0)
(1.86088e-06 0 0)
(1.86031e-06 0 0)
(1.8598e-06 0 0)
(1.85934e-06 0 0)
(1.85895e-06 0 0)
(1.85861e-06 0 0)
(1.85831e-06 0 0)
(1.85807e-06 0 0)
(1.85786e-06 0 0)
(1.85769e-06 0 0)
(1.85755e-06 0 0)
(1.85744e-06 0 0)
(1.85735e-06 0 0)
(1.85729e-06 0 0)
(1.85723e-06 0 0)
(1.85719e-06 0 0)
(1.85715e-06 0 0)
(1.85712e-06 0 0)
(1.85709e-06 0 0)
(1.85706e-06 0 0)
(1.85703e-06 0 0)
(1.85699e-06 0 0)
(1.85694e-06 0 0)
(1.85688e-06 0 0)
(1.85681e-06 0 0)
(1.85673e-06 0 0)
(1.85664e-06 0 0)
(1.85653e-06 0 0)
(1.85641e-06 0 0)
(1.85628e-06 0 0)
(1.85614e-06 0 0)
(1.85599e-06 0 0)
(1.85582e-06 0 0)
(1.85564e-06 0 0)
(1.85546e-06 0 0)
(1.85527e-06 0 0)
(1.85506e-06 0 0)
(1.85486e-06 0 0)
(1.85464e-06 0 0)
(1.85442e-06 0 0)
(1.8542e-06 0 0)
(1.85397e-06 0 0)
(1.85374e-06 0 0)
(1.85351e-06 0 0)
(1.85328e-06 0 0)
(1.85304e-06 0 0)
(1.85281e-06 0 0)
(1.85258e-06 0 0)
(1.85235e-06 0 0)
(1.85213e-06 0 0)
(1.8519e-06 0 0)
(1.85168e-06 0 0)
(1.85147e-06 0 0)
(1.85125e-06 0 0)
(1.85105e-06 0 0)
(1.85084e-06 0 0)
(1.85064e-06 0 0)
(1.85045e-06 0 0)
(1.85026e-06 0 0)
(1.85008e-06 0 0)
(1.8499e-06 0 0)
(1.84973e-06 0 0)
(1.84957e-06 0 0)
(1.84941e-06 0 0)
(1.84925e-06 0 0)
(1.8491e-06 0 0)
(1.84896e-06 0 0)
(1.84882e-06 0 0)
(1.84868e-06 0 0)
(1.84856e-06 0 0)
(1.84843e-06 0 0)
(1.84831e-06 0 0)
(1.8482e-06 0 0)
(1.84809e-06 0 0)
(1.84799e-06 0 0)
(1.84789e-06 0 0)
(1.8478e-06 0 0)
(1.84771e-06 0 0)
(1.84762e-06 0 0)
(1.84754e-06 0 0)
(1.84747e-06 0 0)
(1.8474e-06 0 0)
(1.84734e-06 0 0)
(1.84728e-06 0 0)
(1.84722e-06 0 0)
(1.84718e-06 0 0)
(1.84713e-06 0 0)
(1.8471e-06 0 0)
(1.84707e-06 0 0)
(1.84704e-06 0 0)
(1.84703e-06 0 0)
(1.84702e-06 0 0)
(1.84701e-06 0 0)
(1.84701e-06 0 0)
(1.84701e-06 0 0)
(1.84702e-06 0 0)
(1.84704e-06 0 0)
(1.84707e-06 0 0)
(1.84711e-06 0 0)
(1.84715e-06 0 0)
(1.84721e-06 0 0)
(1.84727e-06 0 0)
(1.84733e-06 0 0)
(1.84741e-06 0 0)
(1.84749e-06 0 0)
(1.84758e-06 0 0)
(1.84767e-06 0 0)
(1.84778e-06 0 0)
(1.84788e-06 0 0)
(1.848e-06 0 0)
(1.84812e-06 0 0)
(1.84825e-06 0 0)
(1.84838e-06 0 0)
(1.84851e-06 0 0)
(1.84866e-06 0 0)
(1.8488e-06 0 0)
(1.84895e-06 0 0)
(1.84911e-06 0 0)
(1.84927e-06 0 0)
(1.84943e-06 0 0)
(1.8496e-06 0 0)
(1.84976e-06 0 0)
(1.84994e-06 0 0)
(1.85011e-06 0 0)
(1.85029e-06 0 0)
(1.85047e-06 0 0)
(1.85066e-06 0 0)
(1.85085e-06 0 0)
(1.85104e-06 0 0)
(1.85124e-06 0 0)
(1.85144e-06 0 0)
(1.85164e-06 0 0)
(1.85185e-06 0 0)
(1.85207e-06 0 0)
(1.85229e-06 0 0)
(1.85252e-06 0 0)
(1.85275e-06 0 0)
(1.853e-06 0 0)
(1.85326e-06 0 0)
(1.85352e-06 0 0)
(1.8538e-06 0 0)
(1.85409e-06 0 0)
(1.85439e-06 0 0)
(1.85471e-06 0 0)
(1.85505e-06 0 0)
(1.8554e-06 0 0)
(1.85577e-06 0 0)
(1.85617e-06 0 0)
(1.85658e-06 0 0)
(1.85702e-06 0 0)
(1.85748e-06 0 0)
(1.85797e-06 0 0)
(1.85848e-06 0 0)
(1.85901e-06 0 0)
(1.85958e-06 0 0)
(1.86017e-06 0 0)
(1.86078e-06 0 0)
(1.86142e-06 0 0)
(1.86209e-06 0 0)
(1.86278e-06 0 0)
(1.86349e-06 0 0)
(1.86422e-06 0 0)
(1.86497e-06 0 0)
(1.86574e-06 0 0)
(1.86652e-06 0 0)
(1.86731e-06 0 0)
(1.8681e-06 0 0)
(1.8689e-06 0 0)
(1.86969e-06 0 0)
(1.87048e-06 0 0)
(1.87125e-06 0 0)
(1.872e-06 0 0)
(1.87274e-06 0 0)
(1.87344e-06 0 0)
(1.87411e-06 0 0)
(1.87474e-06 0 0)
(1.87532e-06 0 0)
(1.87585e-06 0 0)
(1.87632e-06 0 0)
(1.87674e-06 0 0)
(1.87708e-06 0 0)
(1.87736e-06 0 0)
(1.87755e-06 0 0)
(1.87767e-06 0 0)
(1.87773e-06 0 0)
(1.87774e-06 0 0)
(1.87773e-06 0 0)
(1.87762e-06 0 0)
(1.87737e-06 0 0)
(1.87702e-06 0 0)
(1.87658e-06 0 0)
(1.87607e-06 0 0)
(1.87549e-06 0 0)
(1.87485e-06 0 0)
(1.87415e-06 0 0)
(1.87341e-06 0 0)
(1.87262e-06 0 0)
(1.87179e-06 0 0)
(1.87095e-06 0 0)
(1.87008e-06 0 0)
(1.86921e-06 0 0)
(1.86833e-06 0 0)
(1.86746e-06 0 0)
(1.8666e-06 0 0)
(1.86577e-06 0 0)
(1.86496e-06 0 0)
(1.86418e-06 0 0)
(1.86344e-06 0 0)
(1.86273e-06 0 0)
(1.86207e-06 0 0)
(1.86145e-06 0 0)
(1.86088e-06 0 0)
(1.86035e-06 0 0)
(1.85987e-06 0 0)
(1.85944e-06 0 0)
(1.85905e-06 0 0)
(1.8587e-06 0 0)
(1.85839e-06 0 0)
(1.85812e-06 0 0)
(1.85789e-06 0 0)
(1.85769e-06 0 0)
(1.85751e-06 0 0)
(1.85737e-06 0 0)
(1.85724e-06 0 0)
(1.85714e-06 0 0)
(1.85706e-06 0 0)
(1.85698e-06 0 0)
(1.85692e-06 0 0)
(1.85687e-06 0 0)
(1.85682e-06 0 0)
(1.85678e-06 0 0)
(1.85674e-06 0 0)
(1.85669e-06 0 0)
(1.85665e-06 0 0)
(1.8566e-06 0 0)
(1.85654e-06 0 0)
(1.85647e-06 0 0)
(1.8564e-06 0 0)
(1.85632e-06 0 0)
(1.85622e-06 0 0)
(1.85612e-06 0 0)
(1.85601e-06 0 0)
(1.85588e-06 0 0)
(1.85574e-06 0 0)
(1.8556e-06 0 0)
(1.85544e-06 0 0)
(1.85528e-06 0 0)
(1.8551e-06 0 0)
(1.85492e-06 0 0)
(1.85473e-06 0 0)
(1.85453e-06 0 0)
(1.85432e-06 0 0)
(1.85411e-06 0 0)
(1.85389e-06 0 0)
(1.85367e-06 0 0)
(1.85344e-06 0 0)
(1.85321e-06 0 0)
(1.85298e-06 0 0)
(1.85275e-06 0 0)
(1.85252e-06 0 0)
(1.85228e-06 0 0)
(1.85205e-06 0 0)
(1.85182e-06 0 0)
(1.85159e-06 0 0)
(1.85136e-06 0 0)
(1.85113e-06 0 0)
(1.85091e-06 0 0)
(1.85069e-06 0 0)
(1.85048e-06 0 0)
(1.85027e-06 0 0)
(1.85006e-06 0 0)
(1.84986e-06 0 0)
(1.84967e-06 0 0)
(1.84948e-06 0 0)
(1.84929e-06 0 0)
(1.84911e-06 0 0)
(1.84894e-06 0 0)
(1.84877e-06 0 0)
(1.84861e-06 0 0)
(1.84845e-06 0 0)
(1.8483e-06 0 0)
(1.84815e-06 0 0)
(1.84801e-06 0 0)
(1.84788e-06 0 0)
(1.84775e-06 0 0)
(1.84763e-06 0 0)
(1.84751e-06 0 0)
(1.8474e-06 0 0)
(1.84729e-06 0 0)
(1.84718e-06 0 0)
(1.84708e-06 0 0)
(1.84699e-06 0 0)
(1.8469e-06 0 0)
(1.84682e-06 0 0)
(1.84674e-06 0 0)
(1.84666e-06 0 0)
(1.84659e-06 0 0)
(1.84653e-06 0 0)
(1.84647e-06 0 0)
(1.84641e-06 0 0)
(1.84636e-06 0 0)
(1.84631e-06 0 0)
(1.84627e-06 0 0)
(1.84623e-06 0 0)
(1.8462e-06 0 0)
(1.84618e-06 0 0)
(1.84616e-06 0 0)
(1.84614e-06 0 0)
(1.84613e-06 0 0)
(1.84613e-06 0 0)
(1.84613e-06 0 0)
(1.84613e-06 0 0)
(1.84614e-06 0 0)
(1.84616e-06 0 0)
(1.84618e-06 0 0)
(1.84622e-06 0 0)
(1.84626e-06 0 0)
(1.84631e-06 0 0)
(1.84636e-06 0 0)
(1.84643e-06 0 0)
(1.8465e-06 0 0)
(1.84657e-06 0 0)
(1.84666e-06 0 0)
(1.84675e-06 0 0)
(1.84685e-06 0 0)
(1.84696e-06 0 0)
(1.84707e-06 0 0)
(1.84719e-06 0 0)
(1.84732e-06 0 0)
(1.84746e-06 0 0)
(1.8476e-06 0 0)
(1.84775e-06 0 0)
(1.84791e-06 0 0)
(1.84808e-06 0 0)
(1.84825e-06 0 0)
(1.84843e-06 0 0)
(1.84862e-06 0 0)
(1.84882e-06 0 0)
(1.84902e-06 0 0)
(1.84924e-06 0 0)
(1.84946e-06 0 0)
(1.84969e-06 0 0)
(1.84992e-06 0 0)
(1.85017e-06 0 0)
(1.85043e-06 0 0)
(1.85069e-06 0 0)
(1.85097e-06 0 0)
(1.85126e-06 0 0)
(1.85156e-06 0 0)
(1.85187e-06 0 0)
(1.8522e-06 0 0)
(1.85254e-06 0 0)
(1.85289e-06 0 0)
(1.85326e-06 0 0)
(1.85364e-06 0 0)
(1.85404e-06 0 0)
(1.85446e-06 0 0)
(1.8549e-06 0 0)
(1.85535e-06 0 0)
(1.85582e-06 0 0)
(1.85632e-06 0 0)
(1.85683e-06 0 0)
(1.85736e-06 0 0)
(1.85791e-06 0 0)
(1.85848e-06 0 0)
(1.85908e-06 0 0)
(1.85969e-06 0 0)
(1.86032e-06 0 0)
(1.86097e-06 0 0)
(1.86164e-06 0 0)
(1.86232e-06 0 0)
(1.86302e-06 0 0)
(1.86373e-06 0 0)
(1.86445e-06 0 0)
(1.86518e-06 0 0)
(1.86592e-06 0 0)
(1.86666e-06 0 0)
(1.8674e-06 0 0)
(1.86815e-06 0 0)
(1.86888e-06 0 0)
(1.86961e-06 0 0)
(1.87033e-06 0 0)
(1.87103e-06 0 0)
(1.8717e-06 0 0)
(1.87236e-06 0 0)
(1.87299e-06 0 0)
(1.87358e-06 0 0)
(1.87414e-06 0 0)
(1.87466e-06 0 0)
(1.87514e-06 0 0)
(1.87557e-06 0 0)
(1.87594e-06 0 0)
(1.87627e-06 0 0)
(1.87653e-06 0 0)
(1.87674e-06 0 0)
(1.87688e-06 0 0)
(1.87696e-06 0 0)
(1.87699e-06 0 0)
(1.877e-06 0 0)
(1.87698e-06 0 0)
(1.87686e-06 0 0)
(1.87663e-06 0 0)
(1.87633e-06 0 0)
(1.87597e-06 0 0)
(1.87555e-06 0 0)
(1.87508e-06 0 0)
(1.87457e-06 0 0)
(1.874e-06 0 0)
(1.8734e-06 0 0)
(1.87277e-06 0 0)
(1.8721e-06 0 0)
(1.87142e-06 0 0)
(1.87072e-06 0 0)
(1.87001e-06 0 0)
(1.86929e-06 0 0)
(1.86858e-06 0 0)
(1.86787e-06 0 0)
(1.86717e-06 0 0)
(1.86648e-06 0 0)
(1.86581e-06 0 0)
(1.86517e-06 0 0)
(1.86455e-06 0 0)
(1.86396e-06 0 0)
(1.8634e-06 0 0)
(1.86287e-06 0 0)
(1.86237e-06 0 0)
(1.8619e-06 0 0)
(1.86147e-06 0 0)
(1.86107e-06 0 0)
(1.8607e-06 0 0)
(1.86037e-06 0 0)
(1.86006e-06 0 0)
(1.85978e-06 0 0)
(1.85952e-06 0 0)
(1.8593e-06 0 0)
(1.85909e-06 0 0)
(1.8589e-06 0 0)
(1.85873e-06 0 0)
(1.85858e-06 0 0)
(1.85844e-06 0 0)
(1.85832e-06 0 0)
(1.8582e-06 0 0)
(1.85809e-06 0 0)
(1.85799e-06 0 0)
(1.85789e-06 0 0)
(1.85779e-06 0 0)
(1.8577e-06 0 0)
(1.8576e-06 0 0)
(1.8575e-06 0 0)
(1.8574e-06 0 0)
(1.8573e-06 0 0)
(1.85719e-06 0 0)
(1.85708e-06 0 0)
(1.85696e-06 0 0)
(1.85684e-06 0 0)
(1.8567e-06 0 0)
(1.85656e-06 0 0)
(1.85642e-06 0 0)
(1.85626e-06 0 0)
(1.8561e-06 0 0)
(1.85593e-06 0 0)
)
;

boundaryField
{
    inlet
    {
        type            fixedValue;
        value           uniform (2.74882e-06 0 0);
    }
    outlet
    {
        type            zeroGradient;
    }
    emptyWalls
    {
        type            empty;
    }
}


// ************************************************************************* //
