/*--------------------------------*- C++ -*----------------------------------*\
  =========                 |
  \\      /  F ield         | OpenFOAM: The Open Source CFD Toolbox
   \\    /   O peration     | Website:  https://openfoam.org
    \\  /    A nd           | Version:  9
     \\/     M anipulation  |
\*---------------------------------------------------------------------------*/
FoamFile
{
    format      ascii;
    class       volScalarField;
    location    "16000";
    object      Sb;
}
// * * * * * * * * * * * * * * * * * * * * * * * * * * * * * * * * * * * * * //

dimensions      [0 0 0 0 0 0 0];

internalField   nonuniform List<scalar> 
1000
(
0.350348
0.351032
0.352022
0.35288
0.35391
0.354727
0.3558
0.356627
0.357676
0.358548
0.359521
0.360397
0.361263
0.362051
0.362775
0.363409
0.363975
0.364468
0.365007
0.365985
0.369165
0.382085
0.470051
0.623924
0.656273
0.665537
0.669885
0.67257
0.674485
0.675968
0.677164
0.678155
0.678987
0.679692
0.68029
0.680799
0.68123
0.681597
0.681904
0.682163
0.682375
0.68255
0.682685
0.68279
0.682861
0.682905
0.682916
0.682902
0.682856
0.68278
0.682672
0.682532
0.682359
0.682151
0.681903
0.681609
0.68126
0.680842
0.680332
0.679704
0.678925
0.677975
0.676856
0.675611
0.674292
0.672926
0.671533
0.670124
0.668706
0.667285
0.665864
0.664444
0.663028
0.661616
0.660211
0.658814
0.657428
0.656052
0.654688
0.653337
0.651997
0.650671
0.649358
0.64806
0.646776
0.645508
0.644255
0.643017
0.641794
0.640585
0.639388
0.638203
0.637028
0.635862
0.634704
0.633553
0.63241
0.631273
0.630142
0.629017
0.627899
0.626787
0.625683
0.624585
0.623495
0.622412
0.621338
0.620271
0.619212
0.618161
0.617118
0.616082
0.615055
0.614035
0.613023
0.612018
0.61102
0.610029
0.609045
0.608068
0.607097
0.606133
0.605175
0.604224
0.603278
0.602339
0.601406
0.600478
0.599556
0.59864
0.59773
0.596825
0.595926
0.595032
0.594143
0.593259
0.592381
0.591508
0.59064
0.589776
0.588918
0.588065
0.587216
0.586372
0.585533
0.584698
0.583868
0.583042
0.582221
0.581404
0.580591
0.579783
0.578978
0.578178
0.577383
0.576591
0.575803
0.575019
0.574239
0.573463
0.572691
0.571923
0.571158
0.570397
0.569639
0.568886
0.568135
0.567389
0.566646
0.565906
0.56517
0.564437
0.563708
0.562982
0.562259
0.56154
0.560823
0.56011
0.559401
0.558694
0.55799
0.55729
0.556592
0.555897
0.555206
0.554517
0.553831
0.553148
0.552469
0.551791
0.551117
0.550445
0.549776
0.549108
0.548444
0.547781
0.54712
0.546461
0.545805
0.54515
0.544496
0.543845
0.543195
0.542548
0.541902
0.541259
0.540618
0.539979
0.539343
0.538709
0.538079
0.537451
0.536827
0.536206
0.535588
0.534974
0.534364
0.533757
0.533155
0.532555
0.53196
0.531367
0.530778
0.530191
0.529607
0.529026
0.528446
0.527869
0.527293
0.526718
0.526145
0.525573
0.525003
0.524433
0.523864
0.523297
0.52273
0.522165
0.521601
0.521038
0.520476
0.519916
0.519357
0.5188
0.518244
0.51769
0.517137
0.516586
0.516037
0.51549
0.514944
0.514399
0.513857
0.513316
0.512777
0.512239
0.511703
0.511168
0.510635
0.510104
0.509574
0.509046
0.508519
0.507994
0.50747
0.506947
0.506426
0.505906
0.505388
0.504871
0.504355
0.503841
0.503327
0.502816
0.502305
0.501796
0.501288
0.500781
0.500275
0.499771
0.499268
0.498766
0.498265
0.497765
0.497267
0.49677
0.496274
0.495779
0.495285
0.494792
0.4943
0.49381
0.49332
0.492832
0.492344
0.491858
0.491373
0.490888
0.490405
0.489923
0.489442
0.488962
0.488482
0.488004
0.487527
0.487051
0.486575
0.486101
0.485628
0.485155
0.484684
0.484213
0.483743
0.483275
0.482807
0.48234
0.481874
0.481409
0.480944
0.480481
0.480019
0.479557
0.479096
0.478636
0.478177
0.477719
0.477261
0.476805
0.476349
0.475894
0.475439
0.474986
0.474533
0.474081
0.47363
0.47318
0.47273
0.472281
0.471832
0.471385
0.470937
0.470491
0.470045
0.469599
0.469154
0.468709
0.468265
0.467822
0.467378
0.466935
0.466493
0.46605
0.465609
0.465167
0.464727
0.464286
0.463846
0.463407
0.462968
0.46253
0.462093
0.461657
0.461221
0.460786
0.460352
0.45992
0.459488
0.459057
0.458628
0.458199
0.457772
0.457346
0.456921
0.456498
0.456075
0.455654
0.455233
0.454814
0.454395
0.453977
0.45356
0.453144
0.452728
0.452312
0.451897
0.451483
0.451069
0.450655
0.450241
0.449827
0.449414
0.449
0.448587
0.448174
0.447761
0.447348
0.446935
0.446523
0.44611
0.445698
0.445286
0.444874
0.444463
0.444052
0.443641
0.44323
0.44282
0.44241
0.442
0.441591
0.441182
0.440773
0.440365
0.439957
0.439549
0.439141
0.438734
0.438328
0.437921
0.437515
0.437109
0.436704
0.436299
0.435894
0.435489
0.435085
0.43468
0.434276
0.433873
0.433469
0.433066
0.432663
0.43226
0.431857
0.431455
0.431052
0.43065
0.430248
0.429846
0.429445
0.429043
0.428642
0.42824
0.427839
0.427438
0.427037
0.426636
0.426236
0.425835
0.425434
0.425034
0.424633
0.424233
0.423833
0.423433
0.423032
0.422632
0.422232
0.421832
0.421432
0.421032
0.420632
0.420232
0.419832
0.419432
0.419032
0.418632
0.418232
0.417832
0.417432
0.417031
0.416631
0.416231
0.415831
0.41543
0.41503
0.414629
0.414228
0.413828
0.413427
0.413026
0.412625
0.412224
0.411822
0.411421
0.411019
0.410618
0.410216
0.409814
0.409412
0.409009
0.408607
0.408204
0.407801
0.407398
0.406994
0.406591
0.406187
0.405783
0.405378
0.404974
0.404569
0.404164
0.403758
0.403352
0.402946
0.402539
0.402133
0.401725
0.401317
0.400909
0.400501
0.400092
0.399682
0.399272
0.398862
0.398451
0.398039
0.397627
0.397215
0.396802
0.396388
0.395974
0.395559
0.395144
0.394728
0.394311
0.393895
0.393477
0.393059
0.392641
0.392222
0.391802
0.391382
0.390962
0.390541
0.39012
0.389698
0.389276
0.388853
0.38843
0.388006
0.387582
0.387158
0.386733
0.386308
0.385882
0.385456
0.385029
0.384602
0.384174
0.383745
0.383316
0.382886
0.382455
0.382024
0.381592
0.381158
0.380724
0.380289
0.379853
0.379416
0.378978
0.378539
0.378099
0.377657
0.377215
0.376771
0.376326
0.37588
0.375432
0.374983
0.374533
0.374082
0.373629
0.373175
0.37272
0.372264
0.371806
0.371347
0.370887
0.370425
0.369962
0.369499
0.369034
0.368568
0.3681
0.367632
0.367163
0.366693
0.366222
0.365751
0.36528
0.364808
0.364336
0.363864
0.363393
0.362923
0.362454
0.361987
0.361523
0.361062
0.360604
0.360151
0.359704
0.359264
0.358833
0.35841
0.357998
0.357598
0.357212
0.356841
0.356487
0.356151
0.355834
0.355537
0.355261
0.355006
0.354774
0.354563
0.354374
0.354206
0.354058
0.353928
0.353816
0.35372
0.353638
0.353567
0.353506
0.353449
0.353393
0.353328
0.353242
0.35311
0.352892
0.352514
0.351851
0.350685
0.348651
0.345177
0.33946
0.330615
0.318168
0.302824
0.286785
0.272775
0.262435
0.25577
0.251862
0.249703
0.248549
0.247944
0.24763
0.247468
0.247385
0.247342
0.24732
0.247308
0.247302
0.247299
0.247298
0.247297
0.247297
0.247296
0.247296
0.247296
0.247296
0.247296
0.247296
0.247296
0.247296
0.247296
0.247296
0.247296
0.247296
0.247296
0.247295
0.247295
0.247295
0.247295
0.247295
0.247295
0.247295
0.247294
0.247294
0.247294
0.247294
0.247294
0.247293
0.247293
0.247293
0.247292
0.247292
0.247292
0.247291
0.247291
0.247291
0.24729
0.24729
0.247289
0.247289
0.247288
0.247288
0.247287
0.247286
0.247286
0.247285
0.247285
0.247284
0.247283
0.247283
0.247282
0.247281
0.24728
0.24728
0.247279
0.247278
0.247277
0.247277
0.247276
0.247275
0.247274
0.247273
0.247273
0.247272
0.247271
0.24727
0.24727
0.247269
0.247268
0.247268
0.247267
0.247267
0.247266
0.247266
0.247265
0.247265
0.247264
0.247264
0.247264
0.247264
0.247264
0.247263
0.247263
0.247263
0.247263
0.247264
0.247264
0.247264
0.247264
0.247265
0.247265
0.247265
0.247266
0.247266
0.247267
0.247267
0.247268
0.247268
0.247269
0.247269
0.24727
0.247271
0.247271
0.247272
0.247272
0.247273
0.247273
0.247274
0.247274
0.247275
0.247275
0.247276
0.247276
0.247277
0.247277
0.247277
0.247278
0.247278
0.247278
0.247279
0.247279
0.247279
0.247279
0.24728
0.24728
0.24728
0.24728
0.24728
0.247281
0.247281
0.247281
0.247281
0.247281
0.247281
0.247282
0.247282
0.247282
0.247282
0.247282
0.247282
0.247282
0.247282
0.247283
0.247283
0.247283
0.247283
0.247283
0.247283
0.247283
0.247283
0.247283
0.247284
0.247284
0.247284
0.247284
0.247284
0.247284
0.247284
0.247284
0.247284
0.247284
0.247285
0.247285
0.247285
0.247285
0.247285
0.247285
0.247285
0.247285
0.247285
0.247285
0.247285
0.247286
0.247286
0.247286
0.247286
0.247286
0.247286
0.247286
0.247286
0.247286
0.247286
0.247286
0.247286
0.247286
0.247286
0.247286
0.247286
0.247286
0.247286
0.247286
0.247286
0.247286
0.247286
0.247286
0.247286
0.247286
0.247286
0.247286
0.247286
0.247286
0.247286
0.247286
0.247286
0.247286
0.247286
0.247287
0.247287
0.247287
0.247287
0.247287
0.247287
0.247287
0.247287
0.247287
0.247287
0.247287
0.247287
0.247287
0.247287
0.247287
0.247287
0.247287
0.247287
0.247287
0.247287
0.247287
0.247287
0.247287
0.247287
0.247287
0.247286
0.247286
0.247286
0.247286
0.247286
0.247286
0.247285
0.247285
0.247285
0.247285
0.247284
0.247284
0.247284
0.247284
0.247283
0.247283
0.247283
0.247282
0.247282
0.247282
0.247281
0.247281
0.24728
0.24728
0.24728
0.247279
0.247279
0.247278
0.247278
0.247277
0.247277
0.247276
0.247276
0.247275
0.247275
0.247274
0.247274
0.247273
0.247273
0.247272
0.247272
0.247271
0.247271
0.24727
0.24727
0.247269
0.247269
0.247268
0.247268
0.247268
0.247267
0.247267
0.247267
0.247267
0.247267
0.247266
0.247266
0.247266
0.247266
0.247266
0.247266
0.247266
0.247267
0.247267
0.247267
0.247267
0.247268
0.247268
0.247268
0.247269
0.247269
0.247269
0.24727
0.24727
0.247271
0.247271
0.247272
0.247272
0.247273
0.247273
0.247274
0.247274
0.247275
0.247275
0.247275
0.247276
0.247276
0.247276
0.247277
0.247277
0.247278
0.247278
0.247278
0.247278
0.247279
0.247279
0.247279
0.247279
0.24728
0.24728
0.24728
0.24728
0.24728
0.24728
0.247281
0.247281
0.247281
0.247281
)
;

boundaryField
{
    inlet
    {
        type            fixedValue;
        value           uniform 0.35;
    }
    outlet
    {
        type            zeroGradient;
    }
    emptyWalls
    {
        type            empty;
    }
}


// ************************************************************************* //
