/*--------------------------------*- C++ -*----------------------------------*\
  =========                 |
  \\      /  F ield         | OpenFOAM: The Open Source CFD Toolbox
   \\    /   O peration     | Website:  https://openfoam.org
    \\  /    A nd           | Version:  9
     \\/     M anipulation  |
\*---------------------------------------------------------------------------*/
FoamFile
{
    format      ascii;
    class       volVectorField;
    location    "16000";
    object      Ua;
}
// * * * * * * * * * * * * * * * * * * * * * * * * * * * * * * * * * * * * * //

dimensions      [0 0 0 0 0 0 0];

internalField   nonuniform List<vector> 
1000
(
(2.74909e-06 0 0)
(2.74873e-06 0 0)
(2.74855e-06 0 0)
(2.74819e-06 0 0)
(2.74769e-06 0 0)
(2.7472e-06 0 0)
(2.74646e-06 0 0)
(2.74585e-06 0 0)
(2.74502e-06 0 0)
(2.74413e-06 0 0)
(2.74317e-06 0 0)
(2.742e-06 0 0)
(2.74088e-06 0 0)
(2.73972e-06 0 0)
(2.73866e-06 0 0)
(2.7377e-06 0 0)
(2.73684e-06 0 0)
(2.73602e-06 0 0)
(2.73497e-06 0 0)
(2.73252e-06 0 0)
(2.72396e-06 0 0)
(2.68561e-06 0 0)
(2.46594e-06 0 0)
(2.21888e-06 0 0)
(2.14434e-06 0 0)
(2.12196e-06 0 0)
(2.11089e-06 0 0)
(2.10355e-06 0 0)
(2.0979e-06 0 0)
(2.09318e-06 0 0)
(2.0891e-06 0 0)
(2.08549e-06 0 0)
(2.08221e-06 0 0)
(2.07926e-06 0 0)
(2.07657e-06 0 0)
(2.0741e-06 0 0)
(2.07185e-06 0 0)
(2.06977e-06 0 0)
(2.06787e-06 0 0)
(2.06612e-06 0 0)
(2.0645e-06 0 0)
(2.06297e-06 0 0)
(2.06156e-06 0 0)
(2.06026e-06 0 0)
(2.05906e-06 0 0)
(2.05796e-06 0 0)
(2.05694e-06 0 0)
(2.05598e-06 0 0)
(2.05508e-06 0 0)
(2.05422e-06 0 0)
(2.05341e-06 0 0)
(2.05266e-06 0 0)
(2.05192e-06 0 0)
(2.0512e-06 0 0)
(2.05052e-06 0 0)
(2.04989e-06 0 0)
(2.04931e-06 0 0)
(2.04883e-06 0 0)
(2.04846e-06 0 0)
(2.04822e-06 0 0)
(2.04811e-06 0 0)
(2.04813e-06 0 0)
(2.04823e-06 0 0)
(2.04834e-06 0 0)
(2.04841e-06 0 0)
(2.04845e-06 0 0)
(2.04848e-06 0 0)
(2.04854e-06 0 0)
(2.04871e-06 0 0)
(2.0491e-06 0 0)
(2.04985e-06 0 0)
(2.0511e-06 0 0)
(2.0529e-06 0 0)
(2.05521e-06 0 0)
(2.0579e-06 0 0)
(2.06081e-06 0 0)
(2.0638e-06 0 0)
(2.06676e-06 0 0)
(2.0696e-06 0 0)
(2.07227e-06 0 0)
(2.07472e-06 0 0)
(2.07686e-06 0 0)
(2.0786e-06 0 0)
(2.0798e-06 0 0)
(2.08035e-06 0 0)
(2.08017e-06 0 0)
(2.07922e-06 0 0)
(2.07751e-06 0 0)
(2.07512e-06 0 0)
(2.07215e-06 0 0)
(2.06875e-06 0 0)
(2.06511e-06 0 0)
(2.0614e-06 0 0)
(2.05777e-06 0 0)
(2.05436e-06 0 0)
(2.05127e-06 0 0)
(2.04859e-06 0 0)
(2.04634e-06 0 0)
(2.04454e-06 0 0)
(2.04316e-06 0 0)
(2.04218e-06 0 0)
(2.04152e-06 0 0)
(2.04114e-06 0 0)
(2.04097e-06 0 0)
(2.04094e-06 0 0)
(2.04101e-06 0 0)
(2.04111e-06 0 0)
(2.04121e-06 0 0)
(2.04128e-06 0 0)
(2.04131e-06 0 0)
(2.04126e-06 0 0)
(2.04114e-06 0 0)
(2.04095e-06 0 0)
(2.04069e-06 0 0)
(2.04037e-06 0 0)
(2.03998e-06 0 0)
(2.03955e-06 0 0)
(2.03908e-06 0 0)
(2.03857e-06 0 0)
(2.03804e-06 0 0)
(2.03749e-06 0 0)
(2.03692e-06 0 0)
(2.03635e-06 0 0)
(2.03576e-06 0 0)
(2.03518e-06 0 0)
(2.0346e-06 0 0)
(2.03402e-06 0 0)
(2.03345e-06 0 0)
(2.03288e-06 0 0)
(2.03232e-06 0 0)
(2.03176e-06 0 0)
(2.03121e-06 0 0)
(2.03068e-06 0 0)
(2.03015e-06 0 0)
(2.02963e-06 0 0)
(2.02912e-06 0 0)
(2.02862e-06 0 0)
(2.02814e-06 0 0)
(2.02766e-06 0 0)
(2.02719e-06 0 0)
(2.02674e-06 0 0)
(2.02629e-06 0 0)
(2.02586e-06 0 0)
(2.02544e-06 0 0)
(2.02503e-06 0 0)
(2.02463e-06 0 0)
(2.02425e-06 0 0)
(2.02387e-06 0 0)
(2.02351e-06 0 0)
(2.02316e-06 0 0)
(2.02283e-06 0 0)
(2.0225e-06 0 0)
(2.02219e-06 0 0)
(2.02188e-06 0 0)
(2.02159e-06 0 0)
(2.02132e-06 0 0)
(2.02105e-06 0 0)
(2.0208e-06 0 0)
(2.02056e-06 0 0)
(2.02033e-06 0 0)
(2.02011e-06 0 0)
(2.01991e-06 0 0)
(2.01972e-06 0 0)
(2.01955e-06 0 0)
(2.01938e-06 0 0)
(2.01923e-06 0 0)
(2.01909e-06 0 0)
(2.01896e-06 0 0)
(2.01884e-06 0 0)
(2.01872e-06 0 0)
(2.0186e-06 0 0)
(2.01849e-06 0 0)
(2.01838e-06 0 0)
(2.01827e-06 0 0)
(2.01816e-06 0 0)
(2.01805e-06 0 0)
(2.01795e-06 0 0)
(2.01786e-06 0 0)
(2.01777e-06 0 0)
(2.0177e-06 0 0)
(2.01763e-06 0 0)
(2.01757e-06 0 0)
(2.01752e-06 0 0)
(2.01748e-06 0 0)
(2.01743e-06 0 0)
(2.01738e-06 0 0)
(2.01732e-06 0 0)
(2.01727e-06 0 0)
(2.01722e-06 0 0)
(2.01718e-06 0 0)
(2.01717e-06 0 0)
(2.01719e-06 0 0)
(2.01728e-06 0 0)
(2.01744e-06 0 0)
(2.01769e-06 0 0)
(2.01806e-06 0 0)
(2.01855e-06 0 0)
(2.01918e-06 0 0)
(2.01995e-06 0 0)
(2.02087e-06 0 0)
(2.02194e-06 0 0)
(2.02315e-06 0 0)
(2.02449e-06 0 0)
(2.02594e-06 0 0)
(2.02749e-06 0 0)
(2.0291e-06 0 0)
(2.03076e-06 0 0)
(2.03241e-06 0 0)
(2.03404e-06 0 0)
(2.03559e-06 0 0)
(2.03703e-06 0 0)
(2.03832e-06 0 0)
(2.03941e-06 0 0)
(2.04027e-06 0 0)
(2.04087e-06 0 0)
(2.04117e-06 0 0)
(2.04117e-06 0 0)
(2.04084e-06 0 0)
(2.0402e-06 0 0)
(2.03924e-06 0 0)
(2.03799e-06 0 0)
(2.03648e-06 0 0)
(2.03475e-06 0 0)
(2.03284e-06 0 0)
(2.0308e-06 0 0)
(2.02867e-06 0 0)
(2.0265e-06 0 0)
(2.02435e-06 0 0)
(2.02224e-06 0 0)
(2.02023e-06 0 0)
(2.01833e-06 0 0)
(2.01656e-06 0 0)
(2.01496e-06 0 0)
(2.01351e-06 0 0)
(2.01223e-06 0 0)
(2.01111e-06 0 0)
(2.01014e-06 0 0)
(2.00931e-06 0 0)
(2.00861e-06 0 0)
(2.00802e-06 0 0)
(2.00753e-06 0 0)
(2.00711e-06 0 0)
(2.00676e-06 0 0)
(2.00645e-06 0 0)
(2.00617e-06 0 0)
(2.00592e-06 0 0)
(2.00567e-06 0 0)
(2.00543e-06 0 0)
(2.00518e-06 0 0)
(2.00491e-06 0 0)
(2.00463e-06 0 0)
(2.00433e-06 0 0)
(2.00401e-06 0 0)
(2.00366e-06 0 0)
(2.0033e-06 0 0)
(2.00291e-06 0 0)
(2.0025e-06 0 0)
(2.00207e-06 0 0)
(2.00163e-06 0 0)
(2.00117e-06 0 0)
(2.0007e-06 0 0)
(2.00021e-06 0 0)
(1.99972e-06 0 0)
(1.99923e-06 0 0)
(1.99873e-06 0 0)
(1.99822e-06 0 0)
(1.99771e-06 0 0)
(1.99721e-06 0 0)
(1.9967e-06 0 0)
(1.9962e-06 0 0)
(1.9957e-06 0 0)
(1.9952e-06 0 0)
(1.9947e-06 0 0)
(1.99422e-06 0 0)
(1.99373e-06 0 0)
(1.99325e-06 0 0)
(1.99278e-06 0 0)
(1.99232e-06 0 0)
(1.99186e-06 0 0)
(1.99141e-06 0 0)
(1.99096e-06 0 0)
(1.99053e-06 0 0)
(1.9901e-06 0 0)
(1.98968e-06 0 0)
(1.98926e-06 0 0)
(1.98886e-06 0 0)
(1.98846e-06 0 0)
(1.98807e-06 0 0)
(1.98769e-06 0 0)
(1.98732e-06 0 0)
(1.98695e-06 0 0)
(1.98659e-06 0 0)
(1.98625e-06 0 0)
(1.98591e-06 0 0)
(1.98558e-06 0 0)
(1.98525e-06 0 0)
(1.98494e-06 0 0)
(1.98463e-06 0 0)
(1.98433e-06 0 0)
(1.98405e-06 0 0)
(1.98377e-06 0 0)
(1.98349e-06 0 0)
(1.98323e-06 0 0)
(1.98297e-06 0 0)
(1.98273e-06 0 0)
(1.98249e-06 0 0)
(1.98226e-06 0 0)
(1.98204e-06 0 0)
(1.98182e-06 0 0)
(1.98161e-06 0 0)
(1.98141e-06 0 0)
(1.98122e-06 0 0)
(1.98103e-06 0 0)
(1.98084e-06 0 0)
(1.98067e-06 0 0)
(1.98049e-06 0 0)
(1.98032e-06 0 0)
(1.98016e-06 0 0)
(1.97999e-06 0 0)
(1.97984e-06 0 0)
(1.97968e-06 0 0)
(1.97953e-06 0 0)
(1.97939e-06 0 0)
(1.97924e-06 0 0)
(1.9791e-06 0 0)
(1.97897e-06 0 0)
(1.97883e-06 0 0)
(1.9787e-06 0 0)
(1.97858e-06 0 0)
(1.97846e-06 0 0)
(1.97834e-06 0 0)
(1.97822e-06 0 0)
(1.97812e-06 0 0)
(1.97802e-06 0 0)
(1.97793e-06 0 0)
(1.97785e-06 0 0)
(1.97779e-06 0 0)
(1.97775e-06 0 0)
(1.97773e-06 0 0)
(1.97775e-06 0 0)
(1.9778e-06 0 0)
(1.9779e-06 0 0)
(1.97804e-06 0 0)
(1.97824e-06 0 0)
(1.9785e-06 0 0)
(1.97882e-06 0 0)
(1.97921e-06 0 0)
(1.97967e-06 0 0)
(1.9802e-06 0 0)
(1.98081e-06 0 0)
(1.98149e-06 0 0)
(1.98224e-06 0 0)
(1.98305e-06 0 0)
(1.98393e-06 0 0)
(1.98486e-06 0 0)
(1.98583e-06 0 0)
(1.98684e-06 0 0)
(1.98787e-06 0 0)
(1.9889e-06 0 0)
(1.98993e-06 0 0)
(1.99094e-06 0 0)
(1.9919e-06 0 0)
(1.99281e-06 0 0)
(1.99364e-06 0 0)
(1.99439e-06 0 0)
(1.99502e-06 0 0)
(1.99554e-06 0 0)
(1.99592e-06 0 0)
(1.99615e-06 0 0)
(1.99623e-06 0 0)
(1.99614e-06 0 0)
(1.99589e-06 0 0)
(1.99547e-06 0 0)
(1.99489e-06 0 0)
(1.99415e-06 0 0)
(1.99326e-06 0 0)
(1.99224e-06 0 0)
(1.99109e-06 0 0)
(1.98984e-06 0 0)
(1.9885e-06 0 0)
(1.98709e-06 0 0)
(1.98564e-06 0 0)
(1.98415e-06 0 0)
(1.98266e-06 0 0)
(1.98117e-06 0 0)
(1.97971e-06 0 0)
(1.97829e-06 0 0)
(1.97691e-06 0 0)
(1.9756e-06 0 0)
(1.97435e-06 0 0)
(1.97318e-06 0 0)
(1.97209e-06 0 0)
(1.97107e-06 0 0)
(1.97014e-06 0 0)
(1.96927e-06 0 0)
(1.96849e-06 0 0)
(1.96777e-06 0 0)
(1.96711e-06 0 0)
(1.96651e-06 0 0)
(1.96596e-06 0 0)
(1.96546e-06 0 0)
(1.965e-06 0 0)
(1.96456e-06 0 0)
(1.96416e-06 0 0)
(1.96377e-06 0 0)
(1.9634e-06 0 0)
(1.96304e-06 0 0)
(1.96269e-06 0 0)
(1.96234e-06 0 0)
(1.96199e-06 0 0)
(1.96164e-06 0 0)
(1.96128e-06 0 0)
(1.96092e-06 0 0)
(1.96055e-06 0 0)
(1.96017e-06 0 0)
(1.95978e-06 0 0)
(1.95938e-06 0 0)
(1.95897e-06 0 0)
(1.95856e-06 0 0)
(1.95813e-06 0 0)
(1.9577e-06 0 0)
(1.95726e-06 0 0)
(1.95681e-06 0 0)
(1.95635e-06 0 0)
(1.9559e-06 0 0)
(1.95543e-06 0 0)
(1.95497e-06 0 0)
(1.9545e-06 0 0)
(1.95402e-06 0 0)
(1.95355e-06 0 0)
(1.95308e-06 0 0)
(1.95261e-06 0 0)
(1.95213e-06 0 0)
(1.95166e-06 0 0)
(1.95119e-06 0 0)
(1.95073e-06 0 0)
(1.95026e-06 0 0)
(1.9498e-06 0 0)
(1.94934e-06 0 0)
(1.94889e-06 0 0)
(1.94844e-06 0 0)
(1.94799e-06 0 0)
(1.94755e-06 0 0)
(1.94711e-06 0 0)
(1.94668e-06 0 0)
(1.94626e-06 0 0)
(1.94583e-06 0 0)
(1.94542e-06 0 0)
(1.94501e-06 0 0)
(1.9446e-06 0 0)
(1.94421e-06 0 0)
(1.94381e-06 0 0)
(1.94343e-06 0 0)
(1.94305e-06 0 0)
(1.94267e-06 0 0)
(1.9423e-06 0 0)
(1.94194e-06 0 0)
(1.94158e-06 0 0)
(1.94123e-06 0 0)
(1.94089e-06 0 0)
(1.94055e-06 0 0)
(1.94022e-06 0 0)
(1.9399e-06 0 0)
(1.93958e-06 0 0)
(1.93927e-06 0 0)
(1.93896e-06 0 0)
(1.93866e-06 0 0)
(1.93837e-06 0 0)
(1.93808e-06 0 0)
(1.9378e-06 0 0)
(1.93753e-06 0 0)
(1.93726e-06 0 0)
(1.937e-06 0 0)
(1.93674e-06 0 0)
(1.93648e-06 0 0)
(1.93624e-06 0 0)
(1.936e-06 0 0)
(1.93576e-06 0 0)
(1.93553e-06 0 0)
(1.9353e-06 0 0)
(1.93507e-06 0 0)
(1.93485e-06 0 0)
(1.93464e-06 0 0)
(1.93443e-06 0 0)
(1.93422e-06 0 0)
(1.93402e-06 0 0)
(1.93382e-06 0 0)
(1.93362e-06 0 0)
(1.93342e-06 0 0)
(1.93323e-06 0 0)
(1.93305e-06 0 0)
(1.93287e-06 0 0)
(1.93269e-06 0 0)
(1.93251e-06 0 0)
(1.93234e-06 0 0)
(1.93218e-06 0 0)
(1.93201e-06 0 0)
(1.93186e-06 0 0)
(1.93171e-06 0 0)
(1.93157e-06 0 0)
(1.93144e-06 0 0)
(1.93133e-06 0 0)
(1.93122e-06 0 0)
(1.93113e-06 0 0)
(1.93105e-06 0 0)
(1.93099e-06 0 0)
(1.93096e-06 0 0)
(1.93094e-06 0 0)
(1.93096e-06 0 0)
(1.931e-06 0 0)
(1.93107e-06 0 0)
(1.93117e-06 0 0)
(1.93131e-06 0 0)
(1.93148e-06 0 0)
(1.9317e-06 0 0)
(1.93195e-06 0 0)
(1.93225e-06 0 0)
(1.93259e-06 0 0)
(1.93296e-06 0 0)
(1.93338e-06 0 0)
(1.93384e-06 0 0)
(1.93434e-06 0 0)
(1.93487e-06 0 0)
(1.93543e-06 0 0)
(1.93603e-06 0 0)
(1.93664e-06 0 0)
(1.93728e-06 0 0)
(1.93793e-06 0 0)
(1.93859e-06 0 0)
(1.93925e-06 0 0)
(1.9399e-06 0 0)
(1.94054e-06 0 0)
(1.94116e-06 0 0)
(1.94175e-06 0 0)
(1.9423e-06 0 0)
(1.9428e-06 0 0)
(1.94325e-06 0 0)
(1.94364e-06 0 0)
(1.94396e-06 0 0)
(1.94421e-06 0 0)
(1.94438e-06 0 0)
(1.94445e-06 0 0)
(1.94444e-06 0 0)
(1.94433e-06 0 0)
(1.94413e-06 0 0)
(1.94382e-06 0 0)
(1.94342e-06 0 0)
(1.94292e-06 0 0)
(1.94233e-06 0 0)
(1.94165e-06 0 0)
(1.94088e-06 0 0)
(1.94003e-06 0 0)
(1.93911e-06 0 0)
(1.93813e-06 0 0)
(1.93709e-06 0 0)
(1.936e-06 0 0)
(1.93488e-06 0 0)
(1.93372e-06 0 0)
(1.93255e-06 0 0)
(1.93136e-06 0 0)
(1.93018e-06 0 0)
(1.92899e-06 0 0)
(1.92783e-06 0 0)
(1.92668e-06 0 0)
(1.92556e-06 0 0)
(1.92446e-06 0 0)
(1.9234e-06 0 0)
(1.92238e-06 0 0)
(1.9214e-06 0 0)
(1.92046e-06 0 0)
(1.91957e-06 0 0)
(1.91871e-06 0 0)
(1.9179e-06 0 0)
(1.91712e-06 0 0)
(1.91639e-06 0 0)
(1.91569e-06 0 0)
(1.91502e-06 0 0)
(1.91439e-06 0 0)
(1.91378e-06 0 0)
(1.9132e-06 0 0)
(1.91265e-06 0 0)
(1.91211e-06 0 0)
(1.91159e-06 0 0)
(1.91109e-06 0 0)
(1.9106e-06 0 0)
(1.91012e-06 0 0)
(1.90965e-06 0 0)
(1.90918e-06 0 0)
(1.90872e-06 0 0)
(1.90826e-06 0 0)
(1.9078e-06 0 0)
(1.90734e-06 0 0)
(1.90688e-06 0 0)
(1.90642e-06 0 0)
(1.90596e-06 0 0)
(1.90549e-06 0 0)
(1.90503e-06 0 0)
(1.90456e-06 0 0)
(1.90408e-06 0 0)
(1.90361e-06 0 0)
(1.90314e-06 0 0)
(1.90266e-06 0 0)
(1.90218e-06 0 0)
(1.90171e-06 0 0)
(1.90124e-06 0 0)
(1.90077e-06 0 0)
(1.9003e-06 0 0)
(1.89984e-06 0 0)
(1.89938e-06 0 0)
(1.89894e-06 0 0)
(1.8985e-06 0 0)
(1.89808e-06 0 0)
(1.89766e-06 0 0)
(1.89726e-06 0 0)
(1.89688e-06 0 0)
(1.89651e-06 0 0)
(1.89615e-06 0 0)
(1.89582e-06 0 0)
(1.8955e-06 0 0)
(1.89519e-06 0 0)
(1.89491e-06 0 0)
(1.89464e-06 0 0)
(1.89439e-06 0 0)
(1.89416e-06 0 0)
(1.89394e-06 0 0)
(1.89374e-06 0 0)
(1.89355e-06 0 0)
(1.89337e-06 0 0)
(1.89321e-06 0 0)
(1.89305e-06 0 0)
(1.89289e-06 0 0)
(1.89274e-06 0 0)
(1.89257e-06 0 0)
(1.89237e-06 0 0)
(1.89212e-06 0 0)
(1.89175e-06 0 0)
(1.89118e-06 0 0)
(1.89026e-06 0 0)
(1.88873e-06 0 0)
(1.88625e-06 0 0)
(1.88238e-06 0 0)
(1.87685e-06 0 0)
(1.86992e-06 0 0)
(1.86267e-06 0 0)
(1.85655e-06 0 0)
(1.85242e-06 0 0)
(1.85008e-06 0 0)
(1.84891e-06 0 0)
(1.84834e-06 0 0)
(1.84806e-06 0 0)
(1.84792e-06 0 0)
(1.84785e-06 0 0)
(1.84782e-06 0 0)
(1.8478e-06 0 0)
(1.8478e-06 0 0)
(1.84781e-06 0 0)
(1.84782e-06 0 0)
(1.84784e-06 0 0)
(1.84786e-06 0 0)
(1.84789e-06 0 0)
(1.84792e-06 0 0)
(1.84795e-06 0 0)
(1.84799e-06 0 0)
(1.84804e-06 0 0)
(1.84808e-06 0 0)
(1.84813e-06 0 0)
(1.84819e-06 0 0)
(1.84825e-06 0 0)
(1.84831e-06 0 0)
(1.84837e-06 0 0)
(1.84844e-06 0 0)
(1.84851e-06 0 0)
(1.84859e-06 0 0)
(1.84866e-06 0 0)
(1.84875e-06 0 0)
(1.84883e-06 0 0)
(1.84892e-06 0 0)
(1.84901e-06 0 0)
(1.8491e-06 0 0)
(1.8492e-06 0 0)
(1.84931e-06 0 0)
(1.84941e-06 0 0)
(1.84953e-06 0 0)
(1.84964e-06 0 0)
(1.84977e-06 0 0)
(1.84989e-06 0 0)
(1.85003e-06 0 0)
(1.85017e-06 0 0)
(1.85032e-06 0 0)
(1.85048e-06 0 0)
(1.85064e-06 0 0)
(1.85082e-06 0 0)
(1.85101e-06 0 0)
(1.85121e-06 0 0)
(1.85142e-06 0 0)
(1.85164e-06 0 0)
(1.85189e-06 0 0)
(1.85214e-06 0 0)
(1.85242e-06 0 0)
(1.85271e-06 0 0)
(1.85302e-06 0 0)
(1.85335e-06 0 0)
(1.8537e-06 0 0)
(1.85407e-06 0 0)
(1.85446e-06 0 0)
(1.85488e-06 0 0)
(1.85532e-06 0 0)
(1.85578e-06 0 0)
(1.85626e-06 0 0)
(1.85677e-06 0 0)
(1.85731e-06 0 0)
(1.85786e-06 0 0)
(1.85844e-06 0 0)
(1.85904e-06 0 0)
(1.85967e-06 0 0)
(1.86031e-06 0 0)
(1.86096e-06 0 0)
(1.86164e-06 0 0)
(1.86232e-06 0 0)
(1.86302e-06 0 0)
(1.86373e-06 0 0)
(1.86444e-06 0 0)
(1.86515e-06 0 0)
(1.86586e-06 0 0)
(1.86657e-06 0 0)
(1.86727e-06 0 0)
(1.86796e-06 0 0)
(1.86863e-06 0 0)
(1.86929e-06 0 0)
(1.86992e-06 0 0)
(1.87052e-06 0 0)
(1.8711e-06 0 0)
(1.87163e-06 0 0)
(1.87213e-06 0 0)
(1.87258e-06 0 0)
(1.87299e-06 0 0)
(1.87335e-06 0 0)
(1.87365e-06 0 0)
(1.8739e-06 0 0)
(1.87409e-06 0 0)
(1.87422e-06 0 0)
(1.87429e-06 0 0)
(1.87431e-06 0 0)
(1.87431e-06 0 0)
(1.87429e-06 0 0)
(1.87418e-06 0 0)
(1.87396e-06 0 0)
(1.87368e-06 0 0)
(1.87335e-06 0 0)
(1.87297e-06 0 0)
(1.87254e-06 0 0)
(1.87208e-06 0 0)
(1.87157e-06 0 0)
(1.87103e-06 0 0)
(1.87046e-06 0 0)
(1.86986e-06 0 0)
(1.86924e-06 0 0)
(1.86861e-06 0 0)
(1.86796e-06 0 0)
(1.8673e-06 0 0)
(1.86664e-06 0 0)
(1.86598e-06 0 0)
(1.86533e-06 0 0)
(1.86468e-06 0 0)
(1.86405e-06 0 0)
(1.86343e-06 0 0)
(1.86283e-06 0 0)
(1.86224e-06 0 0)
(1.86168e-06 0 0)
(1.86114e-06 0 0)
(1.86063e-06 0 0)
(1.86014e-06 0 0)
(1.85967e-06 0 0)
(1.85923e-06 0 0)
(1.85882e-06 0 0)
(1.85843e-06 0 0)
(1.85806e-06 0 0)
(1.85772e-06 0 0)
(1.8574e-06 0 0)
(1.8571e-06 0 0)
(1.85683e-06 0 0)
(1.85657e-06 0 0)
(1.85633e-06 0 0)
(1.8561e-06 0 0)
(1.8559e-06 0 0)
(1.8557e-06 0 0)
(1.85551e-06 0 0)
(1.85534e-06 0 0)
(1.85518e-06 0 0)
(1.85502e-06 0 0)
(1.85487e-06 0 0)
(1.85473e-06 0 0)
(1.85459e-06 0 0)
(1.85445e-06 0 0)
(1.85432e-06 0 0)
(1.85419e-06 0 0)
(1.85406e-06 0 0)
(1.85394e-06 0 0)
(1.85381e-06 0 0)
(1.85369e-06 0 0)
(1.85356e-06 0 0)
(1.85343e-06 0 0)
(1.85331e-06 0 0)
(1.85318e-06 0 0)
(1.85305e-06 0 0)
(1.85292e-06 0 0)
(1.85279e-06 0 0)
(1.85266e-06 0 0)
(1.85253e-06 0 0)
(1.8524e-06 0 0)
(1.85227e-06 0 0)
(1.85213e-06 0 0)
(1.852e-06 0 0)
(1.85187e-06 0 0)
(1.85173e-06 0 0)
(1.8516e-06 0 0)
(1.85147e-06 0 0)
(1.85134e-06 0 0)
(1.85121e-06 0 0)
(1.85108e-06 0 0)
(1.85095e-06 0 0)
(1.85082e-06 0 0)
(1.8507e-06 0 0)
(1.85057e-06 0 0)
(1.85045e-06 0 0)
(1.85033e-06 0 0)
(1.85022e-06 0 0)
(1.8501e-06 0 0)
(1.84999e-06 0 0)
(1.84988e-06 0 0)
(1.84977e-06 0 0)
(1.84967e-06 0 0)
(1.84957e-06 0 0)
(1.84947e-06 0 0)
(1.84938e-06 0 0)
(1.84929e-06 0 0)
(1.8492e-06 0 0)
(1.84912e-06 0 0)
(1.84904e-06 0 0)
(1.84896e-06 0 0)
(1.84888e-06 0 0)
(1.84882e-06 0 0)
(1.84875e-06 0 0)
(1.84869e-06 0 0)
(1.84863e-06 0 0)
(1.84858e-06 0 0)
(1.84853e-06 0 0)
(1.84848e-06 0 0)
(1.84844e-06 0 0)
(1.8484e-06 0 0)
(1.84837e-06 0 0)
(1.84834e-06 0 0)
(1.84831e-06 0 0)
(1.84829e-06 0 0)
(1.84827e-06 0 0)
(1.84826e-06 0 0)
(1.84825e-06 0 0)
(1.84824e-06 0 0)
(1.84824e-06 0 0)
(1.84824e-06 0 0)
(1.84824e-06 0 0)
(1.84825e-06 0 0)
(1.84826e-06 0 0)
(1.84828e-06 0 0)
(1.8483e-06 0 0)
(1.84833e-06 0 0)
(1.84836e-06 0 0)
(1.84839e-06 0 0)
(1.84843e-06 0 0)
(1.84847e-06 0 0)
(1.84851e-06 0 0)
(1.84856e-06 0 0)
(1.84861e-06 0 0)
(1.84867e-06 0 0)
(1.84872e-06 0 0)
(1.84878e-06 0 0)
(1.84885e-06 0 0)
(1.84892e-06 0 0)
(1.84899e-06 0 0)
(1.84906e-06 0 0)
(1.84914e-06 0 0)
(1.84922e-06 0 0)
(1.84931e-06 0 0)
(1.8494e-06 0 0)
(1.8495e-06 0 0)
(1.8496e-06 0 0)
(1.8497e-06 0 0)
(1.84981e-06 0 0)
(1.84993e-06 0 0)
(1.85005e-06 0 0)
(1.85017e-06 0 0)
(1.85031e-06 0 0)
(1.85045e-06 0 0)
(1.8506e-06 0 0)
(1.85076e-06 0 0)
(1.85092e-06 0 0)
(1.8511e-06 0 0)
(1.85129e-06 0 0)
(1.85148e-06 0 0)
(1.85169e-06 0 0)
(1.85191e-06 0 0)
(1.85215e-06 0 0)
(1.8524e-06 0 0)
(1.85266e-06 0 0)
(1.85294e-06 0 0)
(1.85324e-06 0 0)
(1.85355e-06 0 0)
(1.85388e-06 0 0)
(1.85423e-06 0 0)
(1.85459e-06 0 0)
(1.85498e-06 0 0)
(1.85538e-06 0 0)
(1.8558e-06 0 0)
(1.85624e-06 0 0)
(1.8567e-06 0 0)
(1.85718e-06 0 0)
(1.85767e-06 0 0)
(1.85819e-06 0 0)
(1.85872e-06 0 0)
(1.85926e-06 0 0)
(1.85983e-06 0 0)
(1.8604e-06 0 0)
(1.86099e-06 0 0)
(1.86159e-06 0 0)
(1.8622e-06 0 0)
(1.86281e-06 0 0)
(1.86343e-06 0 0)
(1.86405e-06 0 0)
(1.86468e-06 0 0)
(1.8653e-06 0 0)
(1.86592e-06 0 0)
(1.86653e-06 0 0)
(1.86712e-06 0 0)
(1.86771e-06 0 0)
(1.86828e-06 0 0)
(1.86883e-06 0 0)
(1.86936e-06 0 0)
(1.86987e-06 0 0)
(1.87034e-06 0 0)
(1.87079e-06 0 0)
(1.8712e-06 0 0)
(1.87158e-06 0 0)
(1.87191e-06 0 0)
(1.87221e-06 0 0)
(1.87247e-06 0 0)
(1.87268e-06 0 0)
(1.87284e-06 0 0)
(1.87296e-06 0 0)
(1.87302e-06 0 0)
(1.87305e-06 0 0)
(1.87306e-06 0 0)
(1.87304e-06 0 0)
(1.87298e-06 0 0)
(1.87283e-06 0 0)
(1.87262e-06 0 0)
(1.87236e-06 0 0)
(1.87206e-06 0 0)
(1.87172e-06 0 0)
(1.87134e-06 0 0)
(1.87093e-06 0 0)
(1.87049e-06 0 0)
(1.87002e-06 0 0)
(1.86952e-06 0 0)
(1.869e-06 0 0)
(1.86847e-06 0 0)
(1.86792e-06 0 0)
(1.86736e-06 0 0)
(1.86679e-06 0 0)
(1.86622e-06 0 0)
(1.86565e-06 0 0)
(1.86508e-06 0 0)
(1.86451e-06 0 0)
(1.86396e-06 0 0)
(1.86341e-06 0 0)
(1.86287e-06 0 0)
(1.86235e-06 0 0)
(1.86185e-06 0 0)
(1.86136e-06 0 0)
(1.86089e-06 0 0)
(1.86044e-06 0 0)
(1.86e-06 0 0)
(1.85959e-06 0 0)
(1.8592e-06 0 0)
(1.85882e-06 0 0)
(1.85847e-06 0 0)
(1.85814e-06 0 0)
(1.85782e-06 0 0)
(1.85752e-06 0 0)
(1.85724e-06 0 0)
(1.85697e-06 0 0)
(1.85672e-06 0 0)
(1.85649e-06 0 0)
(1.85627e-06 0 0)
(1.85606e-06 0 0)
(1.85586e-06 0 0)
(1.85567e-06 0 0)
(1.85549e-06 0 0)
(1.85532e-06 0 0)
(1.85515e-06 0 0)
(1.855e-06 0 0)
)
;

boundaryField
{
    inlet
    {
        type            fixedValue;
        value           uniform (2.74882e-06 0 0);
    }
    outlet
    {
        type            zeroGradient;
    }
    emptyWalls
    {
        type            empty;
    }
}


// ************************************************************************* //
