/*--------------------------------*- C++ -*----------------------------------*\
  =========                 |
  \\      /  F ield         | OpenFOAM: The Open Source CFD Toolbox
   \\    /   O peration     | Website:  https://openfoam.org
    \\  /    A nd           | Version:  9
     \\/     M anipulation  |
\*---------------------------------------------------------------------------*/
FoamFile
{
    format      ascii;
    class       volScalarField;
    location    "29650";
    object      Sb;
}
// * * * * * * * * * * * * * * * * * * * * * * * * * * * * * * * * * * * * * //

dimensions      [0 0 0 0 0 0 0];

internalField   nonuniform List<scalar> 
1000
(
0.350182
0.350529
0.350987
0.351463
0.35193
0.352406
0.352888
0.353368
0.353856
0.354355
0.354844
0.355368
0.355856
0.356405
0.356889
0.357457
0.357944
0.358515
0.359021
0.359576
0.360101
0.360633
0.361154
0.361666
0.36216
0.36264
0.363094
0.363523
0.363923
0.364287
0.36463
0.364918
0.365214
0.365424
0.365682
0.365834
0.36605
0.366211
0.366546
0.367472
0.370959
0.387728
0.502438
0.63159
0.656518
0.664004
0.667549
0.669733
0.671301
0.672536
0.673562
0.674445
0.675223
0.675921
0.676554
0.677129
0.677652
0.678126
0.678559
0.67896
0.679333
0.679684
0.680011
0.680313
0.680587
0.680826
0.681032
0.681208
0.681358
0.681489
0.681608
0.68172
0.681829
0.681936
0.682041
0.682141
0.682231
0.682313
0.682395
0.682488
0.682576
0.682653
0.68272
0.682772
0.68281
0.682835
0.682845
0.682842
0.682827
0.6828
0.682763
0.682714
0.682657
0.68259
0.682515
0.682431
0.68234
0.682238
0.682129
0.68201
0.681882
0.681743
0.681593
0.681431
0.681256
0.681067
0.680863
0.680641
0.680398
0.680131
0.679836
0.679505
0.679132
0.678708
0.678228
0.677684
0.677078
0.676418
0.675717
0.674989
0.674242
0.673481
0.672712
0.671936
0.671157
0.670375
0.669594
0.668811
0.66803
0.66725
0.666473
0.665697
0.664924
0.664153
0.663387
0.662621
0.66186
0.661101
0.660347
0.659594
0.658846
0.6581
0.657359
0.65662
0.655887
0.655154
0.654428
0.653703
0.652983
0.652264
0.651551
0.650839
0.650132
0.649426
0.648726
0.648027
0.647334
0.646641
0.645955
0.645269
0.644589
0.643911
0.643238
0.642566
0.641899
0.641232
0.640571
0.639908
0.63925
0.638591
0.637936
0.637279
0.636627
0.635973
0.635324
0.634675
0.63403
0.633386
0.632747
0.632108
0.631475
0.630843
0.630218
0.629595
0.628978
0.628364
0.627758
0.627153
0.626557
0.625962
0.625375
0.62479
0.624211
0.623633
0.62306
0.622487
0.621919
0.621351
0.620786
0.620221
0.619659
0.619095
0.618536
0.617974
0.617417
0.616858
0.616303
0.615747
0.615195
0.614642
0.614094
0.613545
0.613001
0.612456
0.611915
0.611375
0.610839
0.610302
0.60977
0.609238
0.60871
0.608182
0.607659
0.607134
0.606615
0.606094
0.605579
0.605062
0.60455
0.604037
0.603528
0.603019
0.602514
0.602008
0.601506
0.601004
0.600506
0.600006
0.599511
0.599015
0.598524
0.598031
0.597542
0.597053
0.596567
0.596081
0.595598
0.595115
0.594635
0.594155
0.593679
0.593201
0.592728
0.592253
0.591783
0.591311
0.590843
0.590374
0.589909
0.589443
0.588981
0.588518
0.588058
0.587598
0.587141
0.586683
0.586229
0.585774
0.585323
0.58487
0.584421
0.583971
0.583525
0.583078
0.582634
0.582189
0.581748
0.581305
0.580867
0.580427
0.579991
0.579553
0.57912
0.578685
0.578254
0.577822
0.577393
0.576963
0.576537
0.576109
0.575684
0.575258
0.574835
0.57441
0.573988
0.573564
0.573143
0.57272
0.5723
0.571878
0.571459
0.571038
0.570621
0.570201
0.569786
0.569368
0.568955
0.56854
0.568129
0.567717
0.567309
0.566901
0.566497
0.566093
0.565693
0.565293
0.564898
0.564503
0.564112
0.56372
0.563333
0.562946
0.562563
0.562178
0.561798
0.561416
0.561038
0.560658
0.560282
0.559904
0.559528
0.559151
0.558777
0.558401
0.558027
0.557652
0.557279
0.556904
0.556533
0.556159
0.555788
0.555416
0.555047
0.554675
0.554307
0.553937
0.553571
0.553203
0.552838
0.552471
0.552108
0.551743
0.551382
0.551019
0.550659
0.550298
0.54994
0.54958
0.549223
0.548865
0.548511
0.548154
0.547801
0.547446
0.547094
0.546741
0.546391
0.546039
0.54569
0.54534
0.544992
0.544643
0.544297
0.54395
0.543605
0.543259
0.542916
0.542571
0.542229
0.541886
0.541545
0.541203
0.540864
0.540523
0.540185
0.539845
0.539509
0.53917
0.538835
0.538498
0.538164
0.537828
0.537495
0.53716
0.536829
0.536495
0.536165
0.535833
0.535504
0.535172
0.534844
0.534515
0.534188
0.533859
0.533533
0.533206
0.532881
0.532555
0.532232
0.531907
0.531584
0.53126
0.530939
0.530616
0.530296
0.529975
0.529656
0.529335
0.529018
0.528698
0.528382
0.528063
0.527748
0.527431
0.527116
0.5268
0.526486
0.526171
0.525858
0.525543
0.525231
0.524917
0.524605
0.524291
0.52398
0.523666
0.523356
0.523042
0.522732
0.522419
0.522109
0.521797
0.521488
0.521177
0.520868
0.520558
0.52025
0.519941
0.519635
0.519327
0.519022
0.518716
0.518414
0.518109
0.517809
0.517506
0.517208
0.516908
0.516612
0.516314
0.51602
0.515725
0.515433
0.515139
0.514849
0.514557
0.514269
0.513979
0.513692
0.513403
0.513117
0.512829
0.512544
0.512257
0.511972
0.511685
0.511402
0.511115
0.510832
0.510546
0.510262
0.509977
0.509694
0.509409
0.509126
0.508842
0.50856
0.508275
0.507994
0.50771
0.50743
0.507147
0.506867
0.506584
0.506305
0.506024
0.505745
0.505464
0.505187
0.504907
0.50463
0.504351
0.504074
0.503796
0.503521
0.503243
0.502969
0.502692
0.502418
0.502142
0.501869
0.501594
0.501322
0.501047
0.500776
0.500502
0.500231
0.499958
0.499688
0.499416
0.499146
0.498875
0.498606
0.498335
0.498067
0.497796
0.497529
0.497259
0.496992
0.496723
0.496457
0.496188
0.495922
0.495654
0.495389
0.495122
0.494858
0.494591
0.494327
0.494061
0.493798
0.493532
0.49327
0.493005
0.492743
0.492478
0.492217
0.491953
0.491692
0.491429
0.491168
0.490906
0.490646
0.490384
0.490125
0.489863
0.489604
0.489344
0.489085
0.488825
0.488567
0.488308
0.488051
0.487791
0.487535
0.487276
0.48702
0.486762
0.486507
0.486249
0.485994
0.485737
0.485483
0.485226
0.484972
0.484716
0.484462
0.484206
0.483952
0.483697
0.483444
0.483188
0.482935
0.48268
0.482427
0.482172
0.481919
0.481664
0.481412
0.481157
0.480904
0.48065
0.480398
0.480143
0.479892
0.479638
0.479387
0.479133
0.478882
0.47863
0.47838
0.478128
0.477879
0.477628
0.477379
0.477129
0.476882
0.476633
0.476387
0.47614
0.475895
0.475648
0.475405
0.47516
0.474917
0.474673
0.474432
0.474189
0.473949
0.473707
0.473468
0.473227
0.472988
0.472748
0.47251
0.47227
0.472033
0.471794
0.471557
0.471318
0.471081
0.470842
0.470606
0.470367
0.470131
0.469892
0.469656
0.469418
0.469182
0.468944
0.468708
0.46847
0.468234
0.467997
0.467761
0.467524
0.467288
0.467051
0.466816
0.466579
0.466345
0.466108
0.465874
0.465637
0.465404
0.465168
0.464934
0.464699
0.464466
0.46423
0.463998
0.463763
0.46353
0.463296
0.463064
0.46283
0.462598
0.462364
0.462133
0.461899
0.461669
0.461435
0.461205
0.460972
0.460742
0.460509
0.460279
0.460047
0.459817
0.459586
0.459356
0.459125
0.458895
0.458664
0.458435
0.458204
0.457976
0.457745
0.457517
0.457286
0.457058
0.456828
0.4566
0.45637
0.456143
0.455913
0.455686
0.455456
0.455229
0.455
0.454773
0.454544
0.454318
0.454089
0.453863
0.453634
0.453408
0.45318
0.452954
0.452726
0.4525
0.452273
0.452047
0.45182
0.451595
0.451367
0.451142
0.450915
0.450691
0.450464
0.450239
0.450013
0.449789
0.449562
0.449338
0.449112
0.448888
0.448662
0.448439
0.448213
0.447989
0.447764
0.44754
0.447315
0.447091
0.446866
0.446643
0.446418
0.446194
0.445969
0.445746
0.445521
0.445298
0.445072
0.444849
0.444624
0.444401
0.444176
0.443953
0.443727
0.443504
0.443279
0.443056
0.442831
0.442608
0.442383
0.44216
0.441935
0.441712
0.441487
0.441265
0.44104
0.440818
0.440594
0.440372
0.440149
0.439928
0.439704
0.439484
0.439261
0.439041
0.438819
0.438599
0.438377
0.438159
0.437938
0.437719
0.437499
0.437282
0.437062
0.436845
0.436626
0.436409
0.436191
0.435975
0.435756
0.435541
0.435323
0.435108
0.43489
0.434675
0.434458
0.434243
0.434026
0.433811
0.433594
0.433379
0.433162
0.432947
0.43273
0.432515
0.432298
0.432084
0.431866
0.431652
0.431434
0.43122
0.431002
0.430787
0.430569
0.430355
0.430137
0.429923
0.429705
0.429491
0.429272
0.429059
0.42884
0.428627
0.428408
0.428195
0.427976
0.427763
0.427543
0.427331
0.427111
0.4269
0.426679
0.426469
0.426247
0.426038
0.425815
0.425607
0.425384
0.425176
0.424952
0.424744
0.424521
0.424313
0.42409
0.423882
0.423659
0.423451
0.423228
0.42302
0.422797
0.422589
0.422366
0.422158
0.421935
0.421727
0.421504
0.421297
0.421072
0.420866
0.42064
0.420437
0.420208
0.420008
0.419774
0.419579
0.419339
0.419152
0.418904
0.418725
0.418468
0.418298
0.418032
0.417871
0.417596
0.417445
0.41716
0.417018
0.416723
0.416591
0.416287
0.416163
0.415851
0.415735
0.415416
0.415306
0.414981
0.414876
0.414546
0.414446
0.414112
0.414015
0.413678
0.413583
0.413244
0.413152
0.412811
0.412719
0.412377
0.412286
0.411944
0.411852
0.411511
0.411418
0.411078
0.410984
0.410644
0.410549
0.410209
0.410115
0.409775
0.409679
0.40934
0.409244
0.408905
0.408808
0.408469
0.408371
0.408032
0.407934
0.407595
0.407497
0.407158
0.407058
0.406721
0.406619
0.406283
0.40618
0.405845
0.40574
0.405406
0.405301
0.404966
0.40486
0.404526
0.404419
0.404086
0.403979
0.403646
0.403538
0.403205
0.403097
0.402764
0.402656
0.402323
0.402215
0.401883
0.401773
0.401443
0.401332
0.401003
0.400891
0.400562
0.40045
0.400122
0.40001
0.399682
0.399569
0.399243
0.399129
0.398803
0.398689
0.398363
0.398249
0.397923
0.39781
0.397483
0.397369
0.397043
0.396928
0.396603
0.396487
0.396163
0.396045
0.395721
0.395603
0.395279
0.39516
0.394837
0.394716
0.394393
0.394272
0.393949
0.393827
0.393504
0.393381
0.393058
0.392935
0.392611
0.392489
0.392163
0.39204
0.391715
0.39159
0.391267
0.39114
0.390817
0.390689
0.390366
0.390237
0.389914
0.389785
0.389462
0.389334
0.292247
)
;

boundaryField
{
    inlet
    {
        type            fixedValue;
        value           uniform 0.35;
    }
    outlet
    {
        type            zeroGradient;
    }
    emptyWalls
    {
        type            empty;
    }
}


// ************************************************************************* //
