/*--------------------------------*- C++ -*----------------------------------*\
  =========                 |
  \\      /  F ield         | OpenFOAM: The Open Source CFD Toolbox
   \\    /   O peration     | Website:  https://openfoam.org
    \\  /    A nd           | Version:  9
     \\/     M anipulation  |
\*---------------------------------------------------------------------------*/
FoamFile
{
    format      ascii;
    class       volScalarField;
    location    "20250";
    object      p;
}
// * * * * * * * * * * * * * * * * * * * * * * * * * * * * * * * * * * * * * //

dimensions      [0 0 0 0 0 0 0];

internalField   nonuniform List<scalar> 
1000
(
189878
189452
189029
188609
188190
187775
187361
186950
186541
186135
185731
185329
184930
184533
184138
183745
183355
182966
182580
182195
181811
181429
181048
180667
180288
179911
179537
179180
178876
178731
178634
178545
178459
178373
178289
178204
178121
178037
177954
177871
177788
177705
177623
177541
177458
177376
177294
177212
177130
177048
176967
176885
176803
176721
176640
176558
176477
176395
176313
176232
176150
176068
175987
175905
175823
175742
175660
175578
175496
175415
175333
175251
175169
175086
175004
174922
174839
174757
174674
174591
174507
174424
174340
174256
174171
174086
174001
173916
173830
173744
173658
173572
173485
173397
173310
173222
173134
173046
172957
172868
172779
172689
172600
172510
172419
172329
172238
172146
172055
171963
171871
171778
171685
171592
171499
171405
171311
171216
171122
171027
170932
170836
170740
170644
170548
170451
170354
170257
170159
170061
169963
169865
169766
169667
169568
169468
169369
169269
169168
169068
168967
168866
168764
168662
168560
168458
168356
168253
168150
168046
167943
167839
167735
167630
167525
167420
167315
167210
167104
166998
166892
166785
166678
166571
166464
166356
166248
166140
166032
165923
165814
165705
165596
165486
165376
165266
165155
165045
164934
164823
164711
164599
164487
164375
164263
164150
164037
163924
163810
163697
163583
163469
163354
163239
163124
163009
162894
162778
162662
162546
162430
162313
162196
162079
161962
161844
161726
161608
161490
161371
161252
161133
161014
160895
160775
160655
160535
160414
160293
160173
160051
159930
159809
159687
159565
159443
159320
159197
159075
158951
158828
158705
158581
158457
158332
158208
158083
157958
157833
157708
157582
157456
157330
157204
157077
156950
156823
156696
156568
156440
156312
156184
156055
155927
155798
155668
155539
155409
155279
155149
155019
154888
154757
154626
154495
154364
154232
154100
153968
153835
153703
153570
153437
153304
153170
153036
152902
152768
152634
152499
152364
152229
152094
151959
151823
151687
151551
151414
151278
151141
151004
150867
150729
150591
150454
150315
150177
150039
149900
149761
149622
149482
149342
149203
149062
148922
148782
148641
148500
148359
148217
148076
147934
147792
147650
147507
147365
147222
147079
146936
146792
146648
146504
146360
146216
146071
145927
145782
145636
145491
145345
145200
145054
144907
144761
144614
144467
144320
144173
144026
143878
143730
143582
143434
143285
143137
142988
142838
142689
142540
142390
142240
142090
141939
141789
141638
141487
141336
141185
141033
140881
140729
140577
140425
140272
140120
139967
139814
139660
139507
139353
139199
139045
138891
138737
138582
138427
138272
138117
137961
137806
137650
137494
137338
137181
137025
136868
136711
136554
136396
136238
136081
135922
135764
135606
135447
135288
135129
134969
134810
134650
134490
134330
134169
134009
133848
133687
133526
133364
133202
133041
132879
132716
132554
132391
132228
132065
131902
131739
131575
131411
131247
131083
130918
130754
130589
130424
130258
130093
129927
129762
129595
129429
129263
129096
128929
128762
128595
128427
128260
128092
127924
127756
127587
127419
127250
127081
126911
126742
126572
126403
126232
126062
125892
125721
125550
125379
125208
125037
124865
124693
124521
124349
124177
124004
123831
123658
123485
123312
123138
122964
122790
122616
122442
122267
122092
121917
121742
121567
121391
121216
121040
120864
120687
120511
120334
120157
119980
119803
119625
119448
119270
119092
118914
118735
118557
118378
118199
118019
117840
117660
117481
117301
117121
116940
116760
116579
116398
116217
116035
115854
115672
115490
115308
115126
114944
114761
114578
114395
114212
114028
113845
113661
113477
113293
113109
112924
112740
112555
112370
112185
111999
111814
111628
111442
111256
111069
110883
110696
110509
110322
110135
109948
109760
109572
109384
109196
109008
108819
108630
108441
108252
108063
107873
107683
107493
107303
107113
106922
106731
106540
106349
106158
105966
105774
105582
105390
105198
105005
104812
104619
104426
104232
104039
103845
103651
103457
103262
103067
102873
102678
102482
102287
102091
101896
101700
101503
101307
101110
100914
100717
100519
100322
100124
99926.5
99728.6
99530.4
99332
99133.4
98934.6
98735.7
98536.5
98337.1
98137.5
97937.8
97737.8
97537.6
97337.3
97136.7
96936
96735
96533.8
96332.5
96130.9
95929.2
95727.2
95525
95322.7
95120.1
94917.4
94714.4
94511.3
94307.9
94104.4
93900.6
93696.7
93492.5
93288.2
93083.6
92878.9
92673.9
92468.8
92263.4
92057.9
91852.1
91646.2
91440
91233.7
91027.1
90820.4
90613.5
90406.3
90199
89991.4
89783.7
89575.7
89367.6
89159.2
88950.7
88741.9
88533
88323.8
88114.5
87904.9
87695.2
87485.2
87275.1
87064.7
86854.2
86643.4
86432.4
86221.3
86009.9
85798.4
85586.6
85374.6
85162.5
84950.1
84737.5
84524.7
84311.8
84098.6
83885.2
83671.6
83457.8
83243.8
83029.6
82815.2
82600.6
82385.8
82170.8
81955.6
81740.2
81524.6
81308.7
81092.7
80876.5
80660.1
80443.4
80226.6
80009.6
79792.3
79574.9
79357.3
79139.4
78921.4
78703.2
78484.7
78266.1
78047.2
77828.2
77609
77389.5
77169.9
76950.1
76730
76509.8
76289.3
76068.7
75847.8
75626.8
75405.5
75184.1
74962.4
74740.6
74518.5
74296.2
74073.7
73851
73628.1
73405
73181.6
72958.1
72734.3
72510.3
72286.1
72061.7
71837
71612.1
71387
71161.7
70936.1
70710.4
70484.3
70258.1
70031.6
69804.9
69578
69350.8
69123.4
68895.8
68667.9
68439.8
68211.5
67982.9
67754.1
67525
67295.8
67066.2
66836.5
66606.5
66376.3
66145.9
65915.2
65684.3
65453.2
65221.8
64990.2
64758.4
64526.3
64294
64061.5
63828.8
63595.9
63362.7
63129.3
62895.7
62661.9
62427.9
62193.6
61959.2
61724.6
61489.8
61254.8
61019.6
60784.2
60548.7
60313
60077.2
59841.3
59605.2
59368.9
59132.6
58896.2
58659.6
58423
58186.3
57949.6
57712.7
57475.8
57238.9
57001.9
56764.9
56527.9
56290.8
56053.7
55816.6
55579.5
55342.4
55105.2
54868
54630.9
54393.7
54156.4
53919.1
53681.7
53444.1
53206.2
52967.8
52728.4
52487.3
52243.6
51995.9
51742.5
51482.5
51216.1
50944.7
50670.1
50393.9
50116.8
49839.4
49561.7
49284
49006.2
48728.4
48450.6
48172.8
47894.9
47617.1
47339.3
47061.4
46783.6
46505.8
46227.9
45950.1
45672.2
45394.4
45116.6
44838.7
44560.9
44283.1
44005.2
43727.4
43449.6
43171.7
42893.9
42616.1
42338.3
42060.4
41782.6
41504.8
41227
40949.1
40671.3
40393.5
40115.7
39837.9
39560
39282.2
39004.4
38726.6
38448.8
38171
37893.2
37615.4
37337.6
37059.8
36782
36504.2
36226.4
35948.7
35670.9
35393.1
35115.4
34837.6
34559.8
34282.1
34004.3
33726.6
33448.8
33171.1
32893.4
32615.7
32338
32060.3
31782.6
31504.9
31227.2
30949.6
30671.9
30394.3
30116.6
29839
29561.4
29283.8
29006.2
28728.6
28451
28173.5
27896
27618.4
27340.9
27063.4
26785.9
26508.4
26230.9
25953.5
25676
25398.6
25121.1
24843.7
24566.3
24288.9
24011.5
23734.1
23456.7
23179.3
22902
22624.6
22347.2
22069.9
21792.5
21515.1
21237.7
20960.4
20683
20405.6
20128.2
19850.9
19573.5
19296.1
19018.7
18741.3
18463.8
18186.4
17909
17631.5
17354.1
17076.6
16799.1
16521.6
16244.2
15966.6
15689.1
15411.6
15134.1
14856.5
14579
14301.4
14023.8
13746.2
13468.7
13191.1
12913.5
12635.8
12358.2
12080.6
11803
11525.3
11247.7
10970
10692.4
10414.7
10137
9859.37
9581.69
9304.01
9026.33
8748.65
8470.96
8193.26
7915.57
7637.87
7360.16
7082.46
6804.75
6527.04
6249.32
5971.61
5693.89
5416.16
5138.44
4860.71
4582.98
4305.24
4027.51
3749.77
3472.02
3194.28
2916.53
2638.78
2361.02
2083.27
1805.51
1527.74
1249.98
972.211
694.44
416.666
138.89
)
;

boundaryField
{
    inlet
    {
        type            darcyGradPressure;
        gradient        uniform 116344;
        Mf              Mf;
        phi             phi;
        value           uniform 190091;
    }
    outlet
    {
        type            fixedValue;
        value           uniform 0;
    }
    emptyWalls
    {
        type            empty;
    }
}


// ************************************************************************* //
