/*--------------------------------*- C++ -*----------------------------------*\
  =========                 |
  \\      /  F ield         | OpenFOAM: The Open Source CFD Toolbox
   \\    /   O peration     | Website:  https://openfoam.org
    \\  /    A nd           | Version:  9
     \\/     M anipulation  |
\*---------------------------------------------------------------------------*/
FoamFile
{
    format      ascii;
    class       volScalarField;
    location    "9200";
    object      kra;
}
// * * * * * * * * * * * * * * * * * * * * * * * * * * * * * * * * * * * * * //

dimensions      [0 0 0 0 0 0 0];

internalField   nonuniform List<scalar> 
1000
(
0.000237446
0.000240178
0.000243444
0.000246493
0.000249589
0.000252278
0.000255123
0.000257183
0.000259556
0.000261731
0.000267659
0.000286913
0.000406251
0.00077408
0.000881827
0.000908873
0.000919608
0.00092484
0.000927939
0.000929493
0.000930464
0.000930624
0.000930454
0.000930245
0.000929281
0.000928921
0.000927437
0.000926822
0.000925099
0.000923463
0.000921461
0.000919177
0.000916255
0.000912656
0.000907988
0.000902453
0.000896142
0.000889461
0.000882613
0.000875716
0.000868838
0.00086202
0.000855288
0.000848655
0.000842129
0.000835715
0.000829416
0.000823232
0.000817165
0.000811213
0.000805376
0.000799653
0.000794042
0.00078854
0.000783145
0.000777854
0.000772664
0.000767574
0.000762578
0.00075768
0.000752868
0.000748151
0.000743513
0.000738967
0.000734494
0.000730108
0.00072579
0.000721555
0.000717382
0.000713287
0.000709251
0.000705286
0.000701378
0.000697532
0.000693739
0.000689998
0.000686306
0.000682663
0.000679074
0.000675542
0.000672072
0.000668666
0.000665326
0.000662046
0.000658823
0.00065565
0.000652523
0.000649442
0.000646412
0.000643444
0.000640549
0.000637744
0.000635042
0.000632454
0.000629986
0.00062764
0.000625411
0.000623293
0.000621273
0.000619335
0.000617463
0.000615635
0.00061383
0.000612024
0.000610191
0.000608303
0.000606335
0.000604259
0.000602052
0.000599696
0.000597178
0.000594494
0.000591648
0.000588653
0.000585532
0.000582313
0.00057903
0.00057572
0.000572419
0.000569161
0.000565977
0.000562891
0.00055992
0.000557077
0.000554366
0.000551785
0.000549331
0.000546993
0.000544759
0.000542617
0.000540551
0.000538549
0.000536597
0.000534682
0.000532795
0.000530928
0.000529072
0.000527223
0.000525378
0.000523533
0.000521687
0.000519841
0.000517995
0.00051615
0.000514307
0.000512467
0.000510633
0.000508805
0.000506985
0.000505173
0.000503372
0.000501582
0.000499804
0.000498037
0.000496284
0.000494543
0.000492815
0.000491101
0.0004894
0.000487713
0.00048604
0.000484381
0.000482737
0.000481106
0.000479491
0.000477889
0.000476303
0.000474731
0.000473174
0.000471632
0.000470104
0.000468591
0.000467092
0.000465607
0.000464136
0.000462678
0.000461234
0.000459802
0.000458383
0.000456977
0.000455582
0.0004542
0.000452828
0.000451468
0.000450119
0.000448781
0.000447453
0.000446136
0.000444828
0.000443531
0.000442243
0.000440965
0.000439696
0.000438436
0.000437185
0.000435943
0.00043471
0.000433486
0.00043227
0.000431062
0.000429863
0.000428672
0.000427489
0.000426315
0.000425149
0.00042399
0.00042284
0.000421697
0.000420563
0.000419436
0.000418316
0.000417204
0.0004161
0.000415002
0.000413912
0.000412828
0.00041175
0.000410679
0.000409614
0.000408555
0.000407503
0.000406456
0.000405415
0.00040438
0.000403351
0.000402328
0.000401313
0.000400303
0.000399301
0.000398305
0.000397317
0.000396335
0.000395362
0.000394396
0.000393439
0.000392491
0.000391552
0.000390625
0.000389709
0.000388807
0.000387918
0.000387046
0.000386191
0.000385354
0.000384537
0.000383741
0.000382967
0.000382215
0.000381485
0.000380777
0.00038009
0.000379424
0.000378777
0.000378146
0.00037753
0.000376924
0.000376326
0.000375732
0.000375137
0.000374537
0.000373927
0.000373302
0.000372657
0.000371988
0.000371288
0.000370555
0.000369784
0.000368974
0.000368118
0.000367223
0.000366275
0.000365295
0.000364258
0.000363201
0.000362085
0.000360966
0.000359791
0.000358631
0.000357421
0.000356242
0.000355024
0.000353848
0.000352651
0.000351495
0.000350339
0.000349217
0.000348118
0.00034704
0.000346002
0.000344976
0.000343995
0.000343025
0.000342091
0.000341176
0.000340281
0.000339412
0.000338551
0.000337715
0.000336883
0.000336066
0.000335258
0.000334453
0.00033366
0.000332864
0.000332075
0.000331285
0.000330496
0.000329709
0.000328918
0.000328128
0.000327337
0.000326542
0.00032575
0.000324952
0.000324155
0.000323357
0.000322556
0.000321757
0.000320954
0.000320153
0.000319352
0.000318548
0.000317748
0.000316945
0.000316145
0.000315345
0.000314544
0.000313747
0.000312948
0.000312153
0.000311359
0.000310566
0.000309777
0.000308987
0.000308202
0.00030742
0.00030664
0.000305866
0.000305095
0.000304332
0.000303574
0.000302823
0.000302085
0.000301354
0.00030064
0.000299941
0.000299259
0.000298602
0.000297965
0.00029736
0.000296783
0.000296242
0.00029574
0.000295272
0.00029485
0.000294462
0.000294117
0.000293803
0.000293513
0.000293234
0.000292932
0.000292571
0.000292062
0.000291281
0.000290004
0.000287891
0.00028449
0.000279329
0.000272311
0.000264164
0.00025651
0.000250833
0.000247434
0.000245691
0.000244854
0.000244463
0.000244276
0.000244186
0.000244146
0.000244126
0.000244123
0.000244124
0.000244128
0.000244134
0.000244142
0.000244151
0.00024416
0.000244169
0.000244179
0.000244189
0.0002442
0.000244211
0.000244223
0.000244234
0.000244247
0.000244259
0.000244272
0.000244285
0.000244299
0.000244313
0.000244328
0.000244343
0.000244359
0.000244374
0.000244391
0.000244407
0.000244425
0.000244442
0.000244461
0.00024448
0.0002445
0.00024452
0.000244542
0.000244564
0.000244587
0.000244611
0.000244637
0.000244663
0.000244692
0.000244722
0.000244754
0.000244788
0.000244824
0.000244863
0.000244904
0.000244949
0.000244997
0.000245048
0.000245103
0.000245163
0.000245227
0.000245296
0.00024537
0.000245449
0.000245534
0.000245624
0.00024572
0.000245822
0.00024593
0.000246043
0.000246163
0.000246288
0.000246418
0.000246553
0.000246692
0.000246835
0.000246982
0.00024713
0.00024728
0.000247431
0.000247581
0.00024773
0.000247877
0.000248019
0.000248157
0.000248288
0.000248412
0.000248526
0.00024863
0.000248722
0.000248801
0.000248866
0.000248916
0.000248949
0.000248967
0.000248971
0.000248971
0.000248967
0.000248936
0.000248874
0.000248797
0.000248705
0.0002486
0.000248483
0.000248355
0.000248219
0.000248074
0.000247924
0.000247769
0.000247612
0.000247454
0.000247296
0.000247141
0.000246988
0.000246841
0.000246699
0.000246564
0.000246436
0.000246317
0.000246205
0.000246103
0.000246009
0.000245924
0.000245847
0.000245779
0.000245718
0.000245665
0.000245618
0.000245579
0.000245544
0.000245515
0.00024549
0.000245469
0.000245452
0.000245437
0.000245424
0.000245413
0.000245403
0.000245394
0.000245385
0.000245376
0.000245367
0.000245357
0.000245347
0.000245335
0.000245323
0.000245309
0.000245295
0.000245279
0.000245262
0.000245243
0.000245224
0.000245203
0.000245181
0.000245159
0.000245135
0.00024511
0.000245085
0.000245058
0.000245031
0.000245004
0.000244976
0.000244947
0.000244918
0.000244889
0.00024486
0.00024483
0.000244801
0.000244771
0.000244741
0.000244711
0.000244681
0.000244651
0.000244622
0.000244592
0.000244563
0.000244534
0.000244505
0.000244477
0.000244448
0.00024442
0.000244393
0.000244366
0.00024434
0.000244314
0.000244288
0.000244263
0.000244239
0.000244216
0.000244193
0.000244171
0.000244149
0.000244129
0.000244109
0.00024409
0.000244072
0.000244055
0.000244039
0.000244024
0.00024401
0.000243997
0.000243985
0.000243974
0.000243964
0.000243955
0.000243947
0.000243941
0.000243935
0.00024393
0.000243926
0.000243924
0.000243922
0.000243921
0.000243921
0.000243921
0.000243922
0.000243925
0.000243929
0.000243933
0.000243939
0.000243945
0.000243952
0.00024396
0.000243969
0.000243978
0.000243988
0.000243999
0.00024401
0.000244022
0.000244034
0.000244047
0.000244061
0.000244075
0.00024409
0.000244105
0.000244121
0.000244137
0.000244154
0.000244171
0.000244189
0.000244207
0.000244226
0.000244246
0.000244266
0.000244287
0.000244309
0.000244331
0.000244354
0.000244378
0.000244404
0.000244429
0.000244457
0.000244485
0.000244515
0.000244546
0.000244579
0.000244613
0.00024465
0.000244688
0.000244728
0.000244771
0.000244817
0.000244864
0.000244916
0.000244969
0.000245027
0.000245087
0.000245152
0.00024522
0.000245292
0.000245368
0.000245448
0.000245532
0.000245621
0.000245714
0.000245811
0.000245912
0.000246017
0.000246126
0.000246239
0.000246355
0.000246474
0.000246596
0.00024672
0.000246846
0.000246973
0.000247101
0.000247228
0.000247355
0.00024748
0.000247602
0.000247722
0.000247838
0.000247949
0.000248053
0.000248152
0.000248243
0.000248326
0.000248399
0.000248464
0.000248517
0.00024856
0.000248591
0.00024861
0.000248617
0.000248617
0.000248616
0.000248607
0.000248568
0.000248516
0.000248452
0.000248377
0.000248293
0.000248199
0.000248097
0.000247988
0.000247874
0.000247754
0.000247631
0.000247505
0.000247378
0.000247251
0.000247125
0.000247
0.000246878
0.00024676
0.000246645
0.000246536
0.000246431
0.000246332
0.000246239
0.000246152
0.000246071
0.000245996
0.000245927
0.000245864
0.000245806
0.000245754
0.000245706
0.000245663
0.000245624
0.000245588
0.000245556
0.000245527
0.000245501
0.000245476
0.000245453
0.000245432
0.000245411
0.000245392
0.000245372
0.000245353
0.000245334
0.000245315
0.000245295
0.000245275
0.000245254
0.000245232
0.000245209
0.000245186
0.000245161
0.000245136
0.00024511
0.000245083
0.000245056
0.000245027
0.000244998
0.000244968
0.000244938
0.000244907
0.000244876
0.000244844
0.000244812
0.00024478
0.000244747
0.000244715
0.000244682
0.000244649
0.000244616
0.000244584
0.000244551
0.000244519
0.000244487
0.000244455
0.000244424
0.000244393
0.000244362
0.000244332
0.000244302
0.000244273
0.000244244
0.000244215
0.000244188
0.000244161
0.000244134
0.000244109
0.000244084
0.000244059
0.000244036
0.000244013
0.000243992
0.000243971
0.000243951
0.000243933
0.000243915
0.000243898
0.000243883
0.000243869
0.000243856
0.000243844
0.000243833
0.000243824
0.000243815
0.000243808
0.000243803
0.000243799
0.000243796
0.000243794
0.000243794
0.000243794
0.000243794
0.000243796
0.000243801
0.000243807
0.000243814
0.000243823
0.000243832
0.000243843
0.000243855
0.000243867
0.000243882
0.000243896
0.000243912
0.000243929
0.000243946
0.000243964
0.000243984
0.000244003
0.000244024
0.000244045
0.000244067
0.000244089
0.000244113
0.000244136
0.00024416
0.000244185
0.00024421
0.000244236
0.000244262
0.000244289
0.000244316
0.000244344
0.000244373
0.000244402
0.000244432
0.000244462
0.000244493
0.000244525
0.000244558
0.000244592
0.000244627
0.000244662
0.0002447
0.000244738
0.000244778
0.000244819
0.000244862
0.000244907
0.000244954
0.000245002
0.000245053
0.000245106
0.000245162
0.00024522
0.00024528
0.000245344
0.00024541
0.000245479
0.000245551
0.000245626
0.000245705
0.000245786
0.00024587
0.000245957
0.000246048
0.000246141
0.000246236
0.000246334
0.000246435
0.000246537
0.000246642
0.000246747
0.000246854
0.000246962
0.000247069
0.000247177
0.000247284
0.000247389
0.000247493
0.000247594
0.000247693
0.000247787
0.000247878
0.000247964
0.000248045
0.000248119
0.000248187
0.000248248
0.000248302
0.000248347
0.000248384
0.000248411
0.000248429
0.000248438
0.000248439
0.000248439
0.000248436
0.000248415
0.000248376
0.000248328
0.000248272
0.000248207
0.000248135
0.000248055
0.000247969
0.000247878
0.000247781
0.00024768
0.000247576
0.00024747
0.000247362
0.000247253
0.000247144
0.000247036
0.00024693
0.000246826
0.000246724
0.000246626
0.000246531
0.00024644
0.000246354
0.000246272
0.000246195
0.000246122
0.000246054
0.000245991
0.000245932
0.000245878
0.000245828
0.000245782
0.000245739
0.0002457
0.000245664
0.000245632
0.000245601
0.000245573
0.000245547
0.000245522
0.000245499
0.000245476
0.000245455
0.000245434
0.000245414
0.000245393
0.000245373
0.000245353
0.000245332
0.000245311
0.000245289
0.000245267
0.000245244
0.00024522
0.000245196
0.000245171
0.000245145
0.000245119
0.000245092
0.000245064
0.000245036
0.000245007
0.000244978
0.000244948
0.000244918
0.000244888
0.000244858
0.000244827
0.000244797
0.000244766
0.000244736
0.000244706
0.000244676
0.000244646
0.000244617
0.000244588
0.000244559
0.000244531
0.000244504
0.000244477
0.000244451
0.000244425
0.0002444
0.000244375
0.000244352
0.000244329
0.000244306
0.000244285
0.000244264
0.000244244
0.000244224
0.000244206
0.000244188
0.000244171
0.000244155
0.000244139
0.000244124
0.000244111
0.000244097
0.000244085
0.000244074
0.000244063
0.000244053
0.000244045
0.000244037
0.000244029
0.000244023
0.000244018
0.000244013
0.00024401
0.000244007
0.000244024
)
;

boundaryField
{
    inlet
    {
        type            calculated;
        value           uniform 0.000236304;
    }
    outlet
    {
        type            calculated;
        value           uniform 0.000244006;
    }
    emptyWalls
    {
        type            empty;
    }
}


// ************************************************************************* //
