/*--------------------------------*- C++ -*----------------------------------*\
  =========                 |
  \\      /  F ield         | OpenFOAM: The Open Source CFD Toolbox
   \\    /   O peration     | Website:  https://openfoam.org
    \\  /    A nd           | Version:  9
     \\/     M anipulation  |
\*---------------------------------------------------------------------------*/
FoamFile
{
    format      ascii;
    class       volScalarField;
    location    "9200";
    object      krb;
}
// * * * * * * * * * * * * * * * * * * * * * * * * * * * * * * * * * * * * * //

dimensions      [0 0 0 0 0 0 0];

internalField   nonuniform List<scalar> 
1000
(
0.0981483
0.0992946
0.100654
0.102018
0.103229
0.104614
0.105586
0.106856
0.107568
0.108891
0.111296
0.120441
0.180447
0.415872
0.484626
0.504151
0.51313
0.518497
0.522128
0.524733
0.526642
0.528047
0.529078
0.529811
0.530339
0.530659
0.530846
0.530849
0.530709
0.530365
0.529802
0.528954
0.527718
0.525917
0.523379
0.52006
0.516212
0.512118
0.507905
0.503648
0.499392
0.495164
0.490982
0.486857
0.482794
0.478798
0.474869
0.471009
0.467217
0.463492
0.459833
0.456238
0.452708
0.449239
0.44583
0.442481
0.439188
0.435951
0.432768
0.429638
0.426559
0.423529
0.420548
0.417614
0.414726
0.411882
0.409082
0.406324
0.403607
0.40093
0.398292
0.395692
0.393129
0.390602
0.38811
0.385653
0.38323
0.380839
0.37848
0.376153
0.373855
0.371587
0.369347
0.367135
0.36495
0.362793
0.360661
0.358556
0.356475
0.354419
0.352386
0.350376
0.348387
0.346419
0.344471
0.342544
0.340635
0.338746
0.336876
0.335025
0.333193
0.331379
0.329585
0.32781
0.326054
0.324318
0.322601
0.320905
0.319228
0.317572
0.315936
0.31432
0.312723
0.311144
0.309584
0.308042
0.306515
0.305003
0.303506
0.302022
0.30055
0.299089
0.29764
0.296201
0.294772
0.293353
0.291944
0.290544
0.289155
0.287775
0.286406
0.285047
0.283698
0.28236
0.281032
0.279714
0.278407
0.27711
0.275823
0.274547
0.27328
0.272023
0.270776
0.269539
0.268311
0.267092
0.265882
0.26468
0.263488
0.262304
0.261128
0.259961
0.258802
0.257651
0.256507
0.255371
0.254243
0.253123
0.252009
0.250903
0.249804
0.248712
0.247627
0.246549
0.245478
0.244413
0.243355
0.242303
0.241258
0.240219
0.239186
0.238159
0.237138
0.236123
0.235114
0.234111
0.233113
0.232121
0.231135
0.230154
0.229178
0.228208
0.227244
0.226284
0.225329
0.22438
0.223436
0.222496
0.221562
0.220632
0.219707
0.218787
0.217872
0.216961
0.216055
0.215153
0.214256
0.213363
0.212474
0.211589
0.210709
0.209833
0.208961
0.208093
0.207229
0.206369
0.205513
0.204661
0.203813
0.202968
0.202127
0.20129
0.200456
0.199626
0.198799
0.197976
0.197157
0.19634
0.195528
0.194718
0.193912
0.193109
0.192309
0.191512
0.190718
0.189928
0.18914
0.188355
0.187574
0.186795
0.186019
0.185245
0.184475
0.183707
0.182942
0.18218
0.18142
0.180662
0.179907
0.179155
0.178404
0.177656
0.17691
0.176167
0.175425
0.174686
0.173948
0.173213
0.172479
0.171748
0.171018
0.17029
0.169564
0.16884
0.168117
0.167397
0.166678
0.165962
0.165247
0.164534
0.163824
0.163115
0.162409
0.161705
0.161003
0.160303
0.159606
0.15891
0.158217
0.157527
0.156838
0.156152
0.155467
0.154785
0.154104
0.153425
0.152749
0.152073
0.151399
0.150726
0.150054
0.149383
0.148713
0.148044
0.147375
0.146707
0.14604
0.145373
0.144707
0.144041
0.143375
0.14271
0.142045
0.14138
0.140716
0.140052
0.139388
0.138725
0.138062
0.137399
0.136736
0.136074
0.135412
0.13475
0.134089
0.133427
0.132766
0.132105
0.131443
0.130782
0.130121
0.12946
0.128798
0.128137
0.127475
0.126813
0.126151
0.125489
0.124826
0.124162
0.123498
0.122834
0.122169
0.121503
0.120837
0.12017
0.119503
0.118834
0.118166
0.117496
0.116826
0.116156
0.115485
0.114814
0.114143
0.113472
0.112802
0.112133
0.111466
0.110801
0.110139
0.109481
0.10883
0.108185
0.107551
0.106928
0.106319
0.105727
0.105155
0.104607
0.104085
0.103593
0.103133
0.102708
0.102319
0.101965
0.101646
0.101357
0.101089
0.100828
0.100547
0.100203
0.0997181
0.0989632
0.0977205
0.0956447
0.0922404
0.0869307
0.079338
0.0697858
0.0595981
0.0505594
0.0438232
0.0394601
0.0368969
0.0354794
0.0347222
0.0343253
0.0341192
0.0340128
0.0339581
0.0339299
0.0339155
0.033908
0.0339042
0.0339022
0.0339011
0.0339006
0.0339003
0.0339001
0.0339001
0.0339
0.0339
0.0338999
0.0338999
0.0338999
0.0338998
0.0338998
0.0338998
0.0338997
0.0338997
0.0338996
0.0338996
0.0338996
0.0338995
0.0338995
0.0338994
0.0338994
0.0338993
0.0338993
0.0338993
0.0338992
0.0338992
0.0338991
0.033899
0.033899
0.0338989
0.0338988
0.0338988
0.0338987
0.0338986
0.0338985
0.0338985
0.0338984
0.0338983
0.0338981
0.033898
0.0338979
0.0338977
0.0338975
0.0338973
0.0338971
0.0338969
0.0338967
0.0338964
0.0338962
0.0338959
0.0338955
0.0338952
0.0338948
0.0338945
0.0338941
0.0338937
0.0338932
0.0338928
0.0338923
0.0338919
0.0338914
0.0338909
0.0338904
0.0338899
0.0338894
0.0338889
0.0338885
0.033888
0.0338875
0.0338871
0.0338867
0.0338863
0.033886
0.0338857
0.0338854
0.0338851
0.0338849
0.0338848
0.0338847
0.0338846
0.0338845
0.0338844
0.0338845
0.0338846
0.0338847
0.0338849
0.0338851
0.0338853
0.0338856
0.0338859
0.0338862
0.0338865
0.0338868
0.0338871
0.0338875
0.0338878
0.0338881
0.0338884
0.0338887
0.033889
0.0338893
0.0338896
0.0338898
0.03389
0.0338902
0.0338904
0.0338906
0.0338907
0.0338909
0.033891
0.0338911
0.0338912
0.0338913
0.0338913
0.0338914
0.0338914
0.0338915
0.0338915
0.0338916
0.0338916
0.0338916
0.0338917
0.0338917
0.0338917
0.0338918
0.0338918
0.0338919
0.0338919
0.033892
0.033892
0.0338921
0.0338921
0.0338922
0.0338923
0.0338924
0.0338924
0.0338925
0.0338926
0.0338927
0.0338928
0.0338929
0.033893
0.0338931
0.0338932
0.0338933
0.0338934
0.0338935
0.0338936
0.0338937
0.0338938
0.0338939
0.033894
0.0338941
0.0338942
0.0338943
0.0338944
0.0338945
0.0338946
0.0338947
0.0338948
0.0338949
0.033895
0.033895
0.0338951
0.0338952
0.0338953
0.0338953
0.0338954
0.0338955
0.0338956
0.0338956
0.0338957
0.0338957
0.0338958
0.0338958
0.0338959
0.0338959
0.033896
0.033896
0.0338961
0.0338961
0.0338961
0.0338962
0.0338962
0.0338962
0.0338963
0.0338963
0.0338963
0.0338963
0.0338963
0.0338963
0.0338964
0.0338964
0.0338964
0.0338964
0.0338964
0.0338964
0.0338963
0.0338963
0.0338963
0.0338963
0.0338963
0.0338963
0.0338962
0.0338962
0.0338961
0.0338961
0.0338961
0.033896
0.033896
0.0338959
0.0338959
0.0338958
0.0338958
0.0338957
0.0338956
0.0338955
0.0338955
0.0338954
0.0338954
0.0338953
0.0338953
0.0338953
0.0338953
0.0338953
0.0338953
0.0338953
0.0338953
0.0338953
0.0338953
0.0338953
0.0338953
0.0338954
0.0338954
0.0338954
0.0338954
0.0338954
0.0338954
0.0338954
0.0338953
0.0338953
0.0338952
0.0338952
0.0338951
0.033895
0.0338949
0.0338947
0.0338946
0.0338944
0.0338943
0.0338941
0.0338939
0.0338937
0.0338935
0.0338933
0.0338931
0.0338929
0.0338926
0.0338923
0.0338921
0.0338918
0.0338915
0.0338912
0.0338909
0.0338906
0.0338902
0.0338899
0.0338896
0.0338892
0.0338889
0.0338886
0.0338882
0.0338879
0.0338876
0.0338873
0.033887
0.0338867
0.0338864
0.0338862
0.0338859
0.0338857
0.0338855
0.0338853
0.0338852
0.0338851
0.033885
0.0338849
0.0338849
0.0338849
0.0338849
0.0338849
0.033885
0.0338851
0.0338852
0.0338854
0.0338856
0.0338858
0.0338861
0.0338863
0.0338866
0.0338869
0.0338872
0.0338875
0.0338878
0.0338881
0.0338884
0.0338887
0.033889
0.0338893
0.0338896
0.0338898
0.0338901
0.0338903
0.0338905
0.0338908
0.033891
0.0338911
0.0338913
0.0338915
0.0338916
0.0338917
0.0338918
0.0338919
0.033892
0.0338921
0.0338922
0.0338923
0.0338923
0.0338924
0.0338925
0.0338925
0.0338926
0.0338926
0.0338927
0.0338927
0.0338928
0.0338928
0.0338929
0.0338929
0.033893
0.033893
0.0338931
0.0338931
0.0338932
0.0338933
0.0338933
0.0338934
0.0338935
0.0338936
0.0338936
0.0338937
0.0338938
0.0338939
0.033894
0.033894
0.0338941
0.0338942
0.0338943
0.0338944
0.0338945
0.0338945
0.0338946
0.0338947
0.0338948
0.0338949
0.0338949
0.033895
0.0338951
0.0338952
0.0338953
0.0338953
0.0338954
0.0338955
0.0338956
0.0338956
0.0338957
0.0338958
0.0338958
0.0338959
0.033896
0.033896
0.0338961
0.0338962
0.0338962
0.0338963
0.0338963
0.0338963
0.0338964
0.0338964
0.0338965
0.0338965
0.0338965
0.0338966
0.0338966
0.0338966
0.0338966
0.0338967
0.0338967
0.0338967
0.0338967
0.0338967
0.0338967
0.0338967
0.0338967
0.0338967
0.0338966
0.0338966
0.0338966
0.0338966
0.0338965
0.0338965
0.0338965
0.0338964
0.0338964
0.0338963
0.0338963
0.0338963
0.0338962
0.0338962
0.0338961
0.0338961
0.033896
0.033896
0.0338959
0.0338959
0.0338959
0.0338958
0.0338958
0.0338957
0.0338957
0.0338956
0.0338956
0.0338955
0.0338955
0.0338954
0.0338954
0.0338953
0.0338953
0.0338952
0.0338952
0.0338951
0.033895
0.033895
0.0338949
0.0338948
0.0338947
0.0338947
0.0338946
0.0338945
0.0338944
0.0338943
0.0338941
0.033894
0.0338939
0.0338938
0.0338936
0.0338935
0.0338933
0.0338931
0.033893
0.0338928
0.0338926
0.0338924
0.0338922
0.033892
0.0338918
0.0338915
0.0338913
0.0338911
0.0338908
0.0338906
0.0338903
0.03389
0.0338898
0.0338895
0.0338892
0.0338889
0.0338887
0.0338884
0.0338881
0.0338878
0.0338876
0.0338873
0.0338871
0.0338868
0.0338866
0.0338864
0.0338862
0.033886
0.0338858
0.0338857
0.0338855
0.0338854
0.0338853
0.0338853
0.0338852
0.0338852
0.0338852
0.0338852
0.0338852
0.0338852
0.0338853
0.0338855
0.0338856
0.0338858
0.033886
0.0338861
0.0338864
0.0338866
0.0338868
0.0338871
0.0338873
0.0338876
0.0338879
0.0338881
0.0338884
0.0338887
0.0338889
0.0338892
0.0338895
0.0338897
0.0338899
0.0338902
0.0338904
0.0338906
0.0338908
0.033891
0.0338911
0.0338913
0.0338914
0.0338916
0.0338917
0.0338918
0.0338919
0.033892
0.0338921
0.0338922
0.0338923
0.0338923
0.0338924
0.0338925
0.0338925
0.0338926
0.0338926
0.0338927
0.0338927
0.0338928
0.0338928
0.0338929
0.0338929
0.033893
0.033893
0.0338931
0.0338931
0.0338932
0.0338933
0.0338933
0.0338934
0.0338934
0.0338935
0.0338936
0.0338937
0.0338937
0.0338938
0.0338939
0.033894
0.033894
0.0338941
0.0338942
0.0338943
0.0338943
0.0338944
0.0338945
0.0338946
0.0338946
0.0338947
0.0338948
0.0338949
0.0338949
0.033895
0.0338951
0.0338951
0.0338952
0.0338953
0.0338953
0.0338954
0.0338954
0.0338955
0.0338956
0.0338956
0.0338957
0.0338957
0.0338958
0.0338958
0.0338959
0.0338959
0.0338959
0.033896
0.033896
0.033896
0.0338961
0.0338961
0.0338961
0.0338962
0.0338962
0.0338962
0.0338962
0.0338962
0.0338962
0.0338963
0.0338963
0.0338963
0.0338962
)
;

boundaryField
{
    inlet
    {
        type            calculated;
        value           uniform 0.0976562;
    }
    outlet
    {
        type            calculated;
        value           uniform 0.0338962;
    }
    emptyWalls
    {
        type            empty;
    }
}


// ************************************************************************* //
