/*--------------------------------*- C++ -*----------------------------------*\
  =========                 |
  \\      /  F ield         | OpenFOAM: The Open Source CFD Toolbox
   \\    /   O peration     | Website:  https://openfoam.org
    \\  /    A nd           | Version:  9
     \\/     M anipulation  |
\*---------------------------------------------------------------------------*/
FoamFile
{
    format      ascii;
    class       volScalarField;
    location    "9200";
    object      Sb;
}
// * * * * * * * * * * * * * * * * * * * * * * * * * * * * * * * * * * * * * //

dimensions      [0 0 0 0 0 0 0];

internalField   nonuniform List<scalar> 
1000
(
0.350629
0.352088
0.353809
0.355522
0.357034
0.358753
0.359952
0.361511
0.362381
0.363989
0.366888
0.377637
0.439831
0.615905
0.656921
0.668029
0.673065
0.676054
0.678068
0.679507
0.680561
0.681335
0.681902
0.682305
0.682595
0.682771
0.682873
0.682875
0.682798
0.682609
0.6823
0.681834
0.681153
0.680161
0.678759
0.676921
0.674783
0.672499
0.67014
0.667745
0.665341
0.662943
0.660561
0.658201
0.655867
0.653562
0.651286
0.649041
0.646826
0.644642
0.642488
0.640363
0.638269
0.636202
0.634164
0.632154
0.63017
0.628213
0.626281
0.624374
0.622492
0.620633
0.618797
0.616985
0.615194
0.613424
0.611676
0.609948
0.60824
0.606552
0.604883
0.603232
0.6016
0.599985
0.598388
0.596808
0.595245
0.593697
0.592166
0.59065
0.589149
0.587663
0.586191
0.584733
0.583289
0.581858
0.580441
0.579036
0.577644
0.576265
0.574897
0.57354
0.572194
0.570859
0.569533
0.568218
0.566912
0.565615
0.564328
0.563051
0.561783
0.560525
0.559276
0.558038
0.556809
0.555591
0.554384
0.553188
0.552003
0.550828
0.549666
0.548514
0.547373
0.546243
0.545123
0.544012
0.54291
0.541817
0.540731
0.539652
0.538579
0.537512
0.536451
0.535395
0.534343
0.533296
0.532254
0.531217
0.530185
0.529157
0.528135
0.527118
0.526107
0.5251
0.524099
0.523104
0.522114
0.52113
0.520151
0.519178
0.51821
0.517247
0.516289
0.515337
0.51439
0.513447
0.51251
0.511577
0.510649
0.509725
0.508806
0.507891
0.506981
0.506074
0.505172
0.504274
0.50338
0.50249
0.501604
0.500722
0.499843
0.498969
0.498097
0.49723
0.496366
0.495505
0.494648
0.493794
0.492944
0.492097
0.491253
0.490412
0.489574
0.48874
0.487908
0.48708
0.486254
0.485432
0.484612
0.483795
0.482981
0.482169
0.481361
0.480554
0.479751
0.47895
0.478152
0.477356
0.476563
0.475772
0.474984
0.474198
0.473414
0.472633
0.471853
0.471077
0.470302
0.469529
0.468759
0.467991
0.467225
0.46646
0.465698
0.464938
0.46418
0.463423
0.462669
0.461916
0.461165
0.460416
0.459668
0.458923
0.458179
0.457436
0.456695
0.455956
0.455219
0.454483
0.453748
0.453015
0.452283
0.451553
0.450824
0.450097
0.44937
0.448645
0.447922
0.447199
0.446478
0.445758
0.445039
0.444321
0.443604
0.442889
0.442174
0.44146
0.440747
0.440035
0.439324
0.438613
0.437903
0.437194
0.436486
0.435778
0.43507
0.434363
0.433657
0.432951
0.432245
0.43154
0.430834
0.43013
0.429425
0.428721
0.428017
0.427313
0.42661
0.425907
0.425205
0.424503
0.423801
0.4231
0.4224
0.4217
0.421001
0.420303
0.419605
0.418909
0.418212
0.417517
0.416822
0.416128
0.415435
0.414742
0.414049
0.413356
0.412665
0.411972
0.41128
0.410587
0.409894
0.409201
0.408507
0.407812
0.407116
0.406419
0.405721
0.405023
0.404323
0.403622
0.402919
0.402216
0.401511
0.400804
0.400097
0.399388
0.398678
0.397966
0.397253
0.396539
0.395823
0.395106
0.394387
0.393667
0.392945
0.392221
0.391496
0.39077
0.390041
0.389311
0.388578
0.387844
0.387108
0.38637
0.385629
0.384887
0.384142
0.383395
0.382645
0.381893
0.381138
0.380381
0.379621
0.378858
0.378093
0.377325
0.376553
0.375779
0.375002
0.374222
0.373439
0.372653
0.371865
0.371074
0.37028
0.369485
0.368688
0.36789
0.367092
0.366294
0.365497
0.364704
0.363915
0.363133
0.362359
0.361599
0.360853
0.360126
0.359421
0.358744
0.358098
0.357487
0.356915
0.356385
0.355899
0.355456
0.355056
0.354693
0.354356
0.354027
0.353673
0.353238
0.352625
0.351666
0.35008
0.347409
0.342964
0.335866
0.32533
0.311333
0.295303
0.279889
0.267478
0.258922
0.253672
0.25069
0.249072
0.248217
0.247771
0.247541
0.247422
0.247361
0.247329
0.247313
0.247305
0.2473
0.247298
0.247297
0.247296
0.247296
0.247296
0.247296
0.247296
0.247295
0.247295
0.247295
0.247295
0.247295
0.247295
0.247295
0.247295
0.247295
0.247295
0.247295
0.247295
0.247294
0.247294
0.247294
0.247294
0.247294
0.247294
0.247294
0.247294
0.247294
0.247294
0.247293
0.247293
0.247293
0.247293
0.247293
0.247293
0.247292
0.247292
0.247292
0.247292
0.247292
0.247291
0.247291
0.247291
0.24729
0.24729
0.247289
0.247289
0.247288
0.247288
0.247287
0.247287
0.247286
0.247285
0.247284
0.247284
0.247283
0.247282
0.247281
0.24728
0.247279
0.247278
0.247277
0.247276
0.247275
0.247274
0.247273
0.247272
0.247271
0.24727
0.247269
0.247268
0.247267
0.247266
0.247265
0.247264
0.247264
0.247263
0.247263
0.247263
0.247262
0.247262
0.247262
0.247262
0.247262
0.247262
0.247262
0.247263
0.247263
0.247264
0.247264
0.247265
0.247266
0.247266
0.247267
0.247268
0.247268
0.247269
0.24727
0.24727
0.247271
0.247272
0.247272
0.247273
0.247273
0.247274
0.247274
0.247275
0.247275
0.247276
0.247276
0.247276
0.247276
0.247276
0.247277
0.247277
0.247277
0.247277
0.247277
0.247277
0.247277
0.247277
0.247277
0.247278
0.247278
0.247278
0.247278
0.247278
0.247278
0.247278
0.247278
0.247278
0.247278
0.247279
0.247279
0.247279
0.247279
0.247279
0.247279
0.24728
0.24728
0.24728
0.24728
0.24728
0.247281
0.247281
0.247281
0.247281
0.247282
0.247282
0.247282
0.247282
0.247282
0.247283
0.247283
0.247283
0.247283
0.247284
0.247284
0.247284
0.247284
0.247284
0.247284
0.247285
0.247285
0.247285
0.247285
0.247285
0.247286
0.247286
0.247286
0.247286
0.247286
0.247286
0.247286
0.247286
0.247287
0.247287
0.247287
0.247287
0.247287
0.247287
0.247287
0.247287
0.247287
0.247287
0.247287
0.247287
0.247288
0.247288
0.247288
0.247288
0.247288
0.247288
0.247288
0.247288
0.247288
0.247288
0.247288
0.247288
0.247288
0.247288
0.247288
0.247288
0.247287
0.247287
0.247287
0.247287
0.247287
0.247287
0.247287
0.247287
0.247287
0.247287
0.247287
0.247286
0.247286
0.247286
0.247286
0.247286
0.247286
0.247286
0.247285
0.247285
0.247285
0.247285
0.247285
0.247285
0.247285
0.247285
0.247285
0.247285
0.247285
0.247286
0.247286
0.247286
0.247286
0.247286
0.247286
0.247286
0.247286
0.247285
0.247285
0.247285
0.247285
0.247285
0.247285
0.247284
0.247284
0.247284
0.247284
0.247283
0.247283
0.247282
0.247282
0.247282
0.247281
0.247281
0.24728
0.24728
0.247279
0.247278
0.247278
0.247277
0.247276
0.247276
0.247275
0.247274
0.247274
0.247273
0.247272
0.247272
0.247271
0.24727
0.247269
0.247269
0.247268
0.247267
0.247267
0.247266
0.247266
0.247265
0.247265
0.247264
0.247264
0.247263
0.247263
0.247263
0.247263
0.247263
0.247263
0.247263
0.247263
0.247263
0.247263
0.247264
0.247264
0.247264
0.247265
0.247265
0.247266
0.247267
0.247267
0.247268
0.247268
0.247269
0.24727
0.24727
0.247271
0.247272
0.247272
0.247273
0.247273
0.247274
0.247275
0.247275
0.247276
0.247276
0.247276
0.247277
0.247277
0.247277
0.247278
0.247278
0.247278
0.247278
0.247278
0.247279
0.247279
0.247279
0.247279
0.247279
0.247279
0.247279
0.24728
0.24728
0.24728
0.24728
0.24728
0.24728
0.24728
0.24728
0.24728
0.247281
0.247281
0.247281
0.247281
0.247281
0.247281
0.247281
0.247282
0.247282
0.247282
0.247282
0.247282
0.247282
0.247283
0.247283
0.247283
0.247283
0.247283
0.247284
0.247284
0.247284
0.247284
0.247284
0.247284
0.247285
0.247285
0.247285
0.247285
0.247285
0.247286
0.247286
0.247286
0.247286
0.247286
0.247286
0.247286
0.247287
0.247287
0.247287
0.247287
0.247287
0.247287
0.247287
0.247287
0.247288
0.247288
0.247288
0.247288
0.247288
0.247288
0.247288
0.247288
0.247288
0.247288
0.247288
0.247288
0.247288
0.247288
0.247288
0.247288
0.247288
0.247288
0.247288
0.247288
0.247288
0.247288
0.247288
0.247288
0.247288
0.247288
0.247288
0.247288
0.247288
0.247288
0.247288
0.247287
0.247287
0.247287
0.247287
0.247287
0.247287
0.247287
0.247287
0.247287
0.247287
0.247287
0.247286
0.247286
0.247286
0.247286
0.247286
0.247286
0.247286
0.247286
0.247286
0.247285
0.247285
0.247285
0.247285
0.247285
0.247285
0.247285
0.247285
0.247284
0.247284
0.247284
0.247284
0.247284
0.247283
0.247283
0.247283
0.247283
0.247282
0.247282
0.247282
0.247281
0.247281
0.247281
0.24728
0.24728
0.24728
0.247279
0.247279
0.247278
0.247278
0.247277
0.247277
0.247276
0.247276
0.247275
0.247275
0.247274
0.247273
0.247273
0.247272
0.247272
0.247271
0.24727
0.24727
0.247269
0.247269
0.247268
0.247268
0.247267
0.247267
0.247266
0.247266
0.247265
0.247265
0.247264
0.247264
0.247264
0.247264
0.247264
0.247264
0.247263
0.247263
0.247263
0.247263
0.247264
0.247264
0.247264
0.247264
0.247265
0.247265
0.247266
0.247266
0.247266
0.247267
0.247268
0.247268
0.247269
0.247269
0.24727
0.24727
0.247271
0.247272
0.247272
0.247273
0.247273
0.247274
0.247274
0.247275
0.247275
0.247276
0.247276
0.247276
0.247277
0.247277
0.247277
0.247278
0.247278
0.247278
0.247278
0.247278
0.247279
0.247279
0.247279
0.247279
0.247279
0.247279
0.247279
0.24728
0.24728
0.24728
0.24728
0.24728
0.24728
0.24728
0.24728
0.24728
0.247281
0.247281
0.247281
0.247281
0.247281
0.247281
0.247281
0.247282
0.247282
0.247282
0.247282
0.247282
0.247282
0.247283
0.247283
0.247283
0.247283
0.247283
0.247283
0.247283
0.247284
0.247284
0.247284
0.247284
0.247284
0.247284
0.247285
0.247285
0.247285
0.247285
0.247285
0.247285
0.247285
0.247286
0.247286
0.247286
0.247286
0.247286
0.247286
0.247286
0.247286
0.247287
0.247287
0.247287
0.247287
0.247287
0.247287
0.247287
0.247287
0.247287
0.247287
0.247287
0.247287
0.247287
0.247287
0.247287
0.247287
0.247287
0.247287
0.247288
0.247287
)
;

boundaryField
{
    inlet
    {
        type            fixedValue;
        value           uniform 0.35;
    }
    outlet
    {
        type            zeroGradient;
    }
    emptyWalls
    {
        type            empty;
    }
}


// ************************************************************************* //
