/*--------------------------------*- C++ -*----------------------------------*\
  =========                 |
  \\      /  F ield         | OpenFOAM: The Open Source CFD Toolbox
   \\    /   O peration     | Website:  https://openfoam.org
    \\  /    A nd           | Version:  9
     \\/     M anipulation  |
\*---------------------------------------------------------------------------*/
FoamFile
{
    format      ascii;
    class       volScalarField;
    location    "18200";
    object      Sa;
}
// * * * * * * * * * * * * * * * * * * * * * * * * * * * * * * * * * * * * * //

dimensions      [0 0 0 0 0 0 0];

internalField   nonuniform List<scalar> 
1000
(
0.549412
0.548156
0.546561
0.544902
0.543362
0.541666
0.540143
0.538406
0.53686
0.535147
0.533563
0.531928
0.530368
0.528846
0.527412
0.526065
0.524842
0.523736
0.522766
0.521907
0.521144
0.520345
0.5189
0.514475
0.497442
0.400624
0.145098
0.0830025
0.0661556
0.0585166
0.0538452
0.0504675
0.0478016
0.0455762
0.0436668
0.0419865
0.0404966
0.0391567
0.0379495
0.036851
0.0358536
0.0349381
0.0341014
0.0333273
0.0326165
0.0319529
0.0313397
0.0307646
0.0302295
0.0297258
0.0292541
0.0288089
0.0283897
0.0279928
0.0276098
0.0272475
0.0269067
0.0265871
0.0262877
0.026008
0.0257469
0.0255039
0.0252778
0.0250682
0.0248739
0.0246947
0.0245304
0.0243827
0.0242544
0.0241505
0.0240737
0.0240211
0.0239783
0.0239339
0.0238881
0.0238413
0.0237942
0.023747
0.0236999
0.0236533
0.023607
0.0235611
0.0235153
0.0234697
0.0234241
0.0233786
0.0233333
0.0232882
0.0232434
0.0231991
0.0231561
0.0231149
0.0230763
0.0230407
0.0230082
0.0229785
0.0229513
0.0229258
0.0229014
0.0228776
0.022854
0.0228303
0.0228059
0.0227806
0.0227536
0.0227246
0.0226928
0.0226578
0.0226193
0.022577
0.0225311
0.0224819
0.02243
0.0223761
0.022321
0.0222656
0.0222105
0.0221566
0.0221044
0.0220543
0.0220065
0.0219612
0.0219183
0.0218777
0.0218393
0.0218026
0.0217675
0.0217337
0.0217007
0.0216685
0.0216366
0.0216051
0.0215736
0.0215421
0.0215105
0.0214788
0.021447
0.021415
0.0213829
0.0213508
0.0213186
0.0212864
0.0212542
0.021222
0.02119
0.0211581
0.0211264
0.0210948
0.0210634
0.0210322
0.0210012
0.0209704
0.0209398
0.0209095
0.0208794
0.0208495
0.0208198
0.0207903
0.0207611
0.0207321
0.0207033
0.0206747
0.0206464
0.0206183
0.0205903
0.0205626
0.0205351
0.0205079
0.0204808
0.020454
0.0204273
0.0204009
0.0203746
0.0203486
0.0203227
0.0202971
0.0202717
0.0202464
0.0202213
0.0201965
0.0201718
0.0201473
0.020123
0.0200989
0.020075
0.0200513
0.0200278
0.0200045
0.0199814
0.0199584
0.0199356
0.0199129
0.0198904
0.019868
0.0198457
0.0198236
0.0198015
0.0197796
0.0197579
0.0197362
0.0197148
0.0196934
0.0196723
0.0196512
0.0196303
0.0196095
0.0195887
0.0195681
0.0195475
0.0195269
0.0195065
0.0194861
0.0194659
0.0194459
0.0194263
0.019407
0.0193882
0.0193699
0.0193523
0.0193354
0.0193194
0.0193041
0.0192897
0.0192761
0.0192633
0.0192513
0.01924
0.0192292
0.0192189
0.0192089
0.019199
0.0191892
0.0191791
0.0191686
0.0191575
0.0191456
0.0191328
0.0191188
0.0191035
0.0190868
0.0190686
0.019049
0.0190279
0.0190054
0.0189817
0.0189568
0.018931
0.0189045
0.0188775
0.0188502
0.0188228
0.0187956
0.0187688
0.0187425
0.0187168
0.0186918
0.0186676
0.0186442
0.0186217
0.0185999
0.0185789
0.0185587
0.0185391
0.0185201
0.0185015
0.0184834
0.0184657
0.0184482
0.0184309
0.0184138
0.0183968
0.0183799
0.018363
0.0183461
0.0183292
0.0183122
0.0182952
0.0182782
0.0182611
0.018244
0.0182269
0.0182097
0.0181925
0.0181753
0.0181582
0.018141
0.0181238
0.0181067
0.0180896
0.0180726
0.0180556
0.0180386
0.0180218
0.018005
0.0179882
0.0179716
0.017955
0.0179385
0.017922
0.0179057
0.0178894
0.0178732
0.0178571
0.0178411
0.0178251
0.0178093
0.0177935
0.0177778
0.0177622
0.0177467
0.0177313
0.0177159
0.0177007
0.0176855
0.0176704
0.0176554
0.0176404
0.0176256
0.0176108
0.0175961
0.0175815
0.017567
0.0175525
0.0175382
0.0175239
0.0175097
0.0174956
0.0174816
0.0174676
0.0174538
0.01744
0.0174263
0.0174127
0.0173991
0.0173856
0.0173722
0.0173588
0.0173455
0.0173323
0.0173191
0.017306
0.017293
0.01728
0.017267
0.0172542
0.0172414
0.0172286
0.0172159
0.0172032
0.0171906
0.017178
0.0171655
0.0171531
0.0171406
0.0171283
0.017116
0.0171038
0.0170917
0.0170797
0.0170678
0.0170561
0.0170446
0.0170334
0.0170223
0.0170116
0.0170011
0.016991
0.0169813
0.0169719
0.0169628
0.0169542
0.0169459
0.016938
0.0169304
0.0169232
0.0169163
0.0169096
0.0169031
0.0168967
0.0168905
0.0168843
0.016878
0.0168716
0.0168649
0.016858
0.0168508
0.0168431
0.0168349
0.0168261
0.0168167
0.0168066
0.0167959
0.0167844
0.0167722
0.0167592
0.0167456
0.0167313
0.0167164
0.0167009
0.016685
0.0166686
0.016652
0.0166351
0.016618
0.0166009
0.0165839
0.0165669
0.01655
0.0165334
0.0165171
0.0165011
0.0164854
0.0164701
0.0164552
0.0164406
0.0164264
0.0164125
0.016399
0.0163857
0.0163728
0.0163601
0.0163477
0.0163355
0.0163234
0.0163115
0.0162998
0.0162881
0.0162765
0.0162649
0.0162535
0.016242
0.0162305
0.0162191
0.0162076
0.0161962
0.0161847
0.0161732
0.0161617
0.0161501
0.0161386
0.016127
0.0161155
0.0161039
0.0160923
0.0160807
0.0160691
0.0160575
0.0160459
0.0160343
0.0160227
0.0160112
0.0159997
0.0159882
0.0159767
0.0159653
0.0159538
0.0159425
0.0159311
0.0159198
0.0159085
0.0158973
0.0158861
0.015875
0.0158639
0.0158528
0.0158418
0.0158308
0.0158199
0.015809
0.0157981
0.0157873
0.0157766
0.0157659
0.0157552
0.0157446
0.0157341
0.0157235
0.0157131
0.0157027
0.0156923
0.015682
0.0156717
0.0156615
0.0156513
0.0156412
0.0156311
0.0156211
0.0156111
0.0156011
0.0155913
0.0155814
0.0155716
0.0155619
0.0155521
0.0155425
0.0155329
0.0155233
0.0155137
0.0155042
0.0154948
0.0154853
0.0154759
0.0154666
0.0154573
0.015448
0.0154387
0.0154295
0.0154203
0.0154112
0.0154021
0.015393
0.0153839
0.0153749
0.0153659
0.0153569
0.015348
0.0153391
0.0153303
0.0153215
0.0153128
0.0153042
0.0152956
0.0152871
0.0152788
0.0152705
0.0152623
0.0152543
0.0152464
0.0152387
0.0152311
0.0152237
0.0152165
0.0152094
0.0152026
0.015196
0.0151895
0.0151833
0.0151772
0.0151713
0.0151656
0.01516
0.0151546
0.0151493
0.0151441
0.015139
0.0151339
0.0151289
0.0151238
0.0151187
0.0151136
0.0151083
0.0151028
0.0150972
0.0150913
0.0150852
0.0150789
0.0150722
0.0150651
0.0150577
0.0150499
0.0150417
0.0150332
0.0150242
0.0150147
0.0150049
0.0149947
0.0149842
0.0149732
0.014962
0.0149504
0.0149386
0.0149266
0.0149144
0.0149021
0.0148896
0.0148771
0.0148645
0.0148519
0.0148394
0.014827
0.0148146
0.0148024
0.0147903
0.0147784
0.0147667
0.0147551
0.0147437
0.0147325
0.0147214
0.0147106
0.0146999
0.0146894
0.014679
0.0146688
0.0146587
0.0146488
0.0146389
0.0146292
0.0146195
0.0146099
0.0146004
0.0145909
0.0145815
0.0145721
0.0145627
0.0145534
0.014544
0.0145347
0.0145253
0.014516
0.0145067
0.0144973
0.0144879
0.0144785
0.0144692
0.0144597
0.0144503
0.0144409
0.0144315
0.014422
0.0144125
0.0144031
0.0143936
0.0143841
0.0143747
0.0143652
0.0143557
0.0143463
0.0143368
0.0143273
0.0143179
0.0143085
0.014299
0.0142896
0.0142802
0.0142709
0.0142615
0.0142521
0.0142428
0.0142335
0.0142242
0.0142149
0.0142057
0.0141964
0.0141872
0.014178
0.0141689
0.0141597
0.0141506
0.0141415
0.0141324
0.0141233
0.0141143
0.0141053
0.0140963
0.0140874
0.0140784
0.0140695
0.0140606
0.0140517
0.0140429
0.0140341
0.0140253
0.0140165
0.0140078
0.0139991
0.0139903
0.0139817
0.013973
0.0139644
0.0139558
0.0139473
0.0139387
0.0139303
0.0139217
0.0139134
0.0139049
0.0138966
0.0138883
0.01388
0.0138718
0.0138636
0.0138556
0.0138475
0.0138396
0.0138318
0.013824
0.0138164
0.013809
0.0138016
0.0137945
0.0137875
0.0137807
0.0137743
0.013768
0.013762
0.0137564
0.013751
0.013746
0.0137414
0.0137371
0.0137333
0.0137299
0.0137268
0.0137243
0.0137221
0.0137202
0.013719
0.013718
0.0137173
0.0137172
0.0137174
0.0137176
0.0137186
0.0137192
0.0137205
0.0137221
0.0137233
0.0137254
0.0137264
0.0137284
0.0137285
0.013728
0.0137256
0.0137188
0.0137047
0.013678
0.0136305
0.013551
0.013428
0.0132589
0.0130615
0.012876
0.0127392
0.0126583
0.012618
0.0125995
0.0125922
0.0125892
0.0125893
0.0125896
0.0125907
0.0125919
0.012593
0.0125941
0.012595
0.0125957
0.0125962
0.0125965
0.0125966
0.0125965
0.0125964
0.0125959
0.0125951
0.0125942
0.0125931
0.0125918
0.0125904
0.0125888
0.0125871
0.0125852
0.0125832
0.0125812
0.012579
0.0125768
0.0125745
0.0125722
0.0125699
0.0125676
0.0125652
0.0125629
0.0125607
0.0125585
0.0125563
0.0125542
0.0125522
0.0125502
0.0125483
0.0125465
0.0125448
0.0125432
0.0125417
0.0125402
0.0125389
0.0125376
0.0125364
0.0125353
0.0125342
0.0125332
0.0125323
0.0125314
0.0125306
0.0125299
0.0125292
0.0125285
0.0125279
0.0125272
0.0125267
0.0125261
0.0125255
0.012525
0.0125245
0.012524
0.0125235
0.012523
0.0125225
0.012522
0.0125215
0.012521
0.0125205
0.01252
0.0125194
0.0125189
0.0125184
0.0125179
0.0125173
0.0125168
0.0125162
0.0125157
0.0125152
0.0125146
0.0125141
0.0125135
0.012513
0.0125124
0.0125119
0.0125113
0.0125108
0.0125103
0.0125098
0.0125092
0.0125087
0.0125082
0.0125077
0.0125073
0.0125068
0.0125063
0.0125059
0.0125054
0.012505
0.0125046
0.0125042
0.0125038
0.0125035
0.0125031
0.0125028
0.0125024
0.0125021
0.0125018
0.0125016
0.0125013
0.012501
0.0125008
0.0125006
0.0125004
0.0125002
0.0125001
0.0124999
0.0124998
0.0124997
0.0124996
0.0124995
0.0124995
0.0124994
0.0124994
0.0124994
0.0124994
0.0124994
0.0124994
0.0124994
0.0124995
0.0124996
0.0124997
0.0124998
0.0124999
0.0125
0.0125002
0.0125003
0.0125005
0.0125007
0.0125009
0.0125011
0.0125013
0.0125016
0.0125018
0.0125021
0.0125024
0.0125027
0.012503
0.0125033
0.0125036
0.012504
0.0125044
0.0125048
0.0125052
0.0125056
0.0125061
0.0125065
0.012507
0.0125076
0.0125081
0.0125087
0.0125094
0.01251
0.0125107
0.0125115
0.0125123
0.0125131
0.012514
0.0125149
0.012516
0.012517
0.0125181
0.0125193
0.0125206
0.0125219
0.0125233
0.0125247
0.0125262
0.0125278
0.0125295
0.0125312
0.012533
0.0125348
0.0125368
0.0125387
0.0125408
0.0125429
0.012545
0.0125472
0.0125494
0.0125516
0.0125539
0.0125562
0.0125584
0.0125607
0.012563
0.0125652
0.0125675
0.0125696
0.0125718
0.0125738
0.0125758
0.0125777
0.0125795
0.0125812
0.0125828
0.0125843
0.0125856
0.0125868
0.0125878
0.0125887
0.0125895
0.01259
0.0125904
0.0125906
0.0125907
0.0125907
0.0125906
0.0125905
0.0125899
0.0125893
0.0125881
0.0125873
0.0125858
0.0125848
0.012583
0.0125817
0.0125798
0.0125784
0.0125762
0.0125747
0.0125724
0.0125708
0.0125685
0.0125668
0.0125645
0.0125628
0.0125605
0.0125588
0.0125566
0.012555
0.0125529
0.0125514
0.0125494
0.012548
0.0125461
0.0125449
0.012543
0.012542
0.0125403
0.0125393
0.0125378
0.012537
0.0125356
0.0125348
0.0125336
0.0125329
0.0125319
0.0125312
)
;

boundaryField
{
    inlet
    {
        type            fixedValue;
        value           uniform 0.55;
    }
    outlet
    {
        type            zeroGradient;
    }
    emptyWalls
    {
        type            empty;
    }
}


// ************************************************************************* //
