/*--------------------------------*- C++ -*----------------------------------*\
  =========                 |
  \\      /  F ield         | OpenFOAM: The Open Source CFD Toolbox
   \\    /   O peration     | Website:  https://openfoam.org
    \\  /    A nd           | Version:  9
     \\/     M anipulation  |
\*---------------------------------------------------------------------------*/
FoamFile
{
    format      ascii;
    class       surfaceScalarField;
    location    "10100";
    object      phia;
}
// * * * * * * * * * * * * * * * * * * * * * * * * * * * * * * * * * * * * * //

dimensions      [0 2 0 0 0 0 0];

internalField   nonuniform List<scalar> 
999
(
2.74931e-10
2.74808e-10
2.74788e-10
2.74657e-10
2.74515e-10
2.74425e-10
2.74204e-10
2.74121e-10
2.73934e-10
2.73824e-10
2.73573e-10
2.72751e-10
2.69755e-10
2.51896e-10
2.19264e-10
2.13842e-10
2.12225e-10
2.11516e-10
2.11298e-10
2.11502e-10
2.11906e-10
2.1216e-10
2.12073e-10
2.11759e-10
2.1144e-10
2.1108e-10
2.10377e-10
2.09544e-10
2.08623e-10
2.07745e-10
2.06961e-10
2.06275e-10
2.05732e-10
2.05332e-10
2.05057e-10
2.04886e-10
2.04802e-10
2.04793e-10
2.04848e-10
2.04932e-10
2.0501e-10
2.05073e-10
2.05115e-10
2.05135e-10
2.05132e-10
2.05109e-10
2.05069e-10
2.05015e-10
2.04952e-10
2.04881e-10
2.04805e-10
2.04726e-10
2.04645e-10
2.04563e-10
2.04481e-10
2.044e-10
2.04321e-10
2.04242e-10
2.04166e-10
2.04091e-10
2.04018e-10
2.03946e-10
2.03877e-10
2.03809e-10
2.03743e-10
2.03678e-10
2.03614e-10
2.03552e-10
2.03491e-10
2.03432e-10
2.03373e-10
2.03316e-10
2.0326e-10
2.03205e-10
2.03151e-10
2.03099e-10
2.03047e-10
2.02997e-10
2.02947e-10
2.02899e-10
2.02851e-10
2.02804e-10
2.02758e-10
2.02712e-10
2.02667e-10
2.02624e-10
2.02581e-10
2.02539e-10
2.02497e-10
2.02457e-10
2.02418e-10
2.0238e-10
2.02342e-10
2.02306e-10
2.0227e-10
2.02236e-10
2.02203e-10
2.02171e-10
2.0214e-10
2.0211e-10
2.02081e-10
2.02052e-10
2.02025e-10
2.01999e-10
2.01974e-10
2.01949e-10
2.01925e-10
2.01901e-10
2.01877e-10
2.01853e-10
2.01829e-10
2.01804e-10
2.01778e-10
2.01751e-10
2.01724e-10
2.01698e-10
2.01673e-10
2.01649e-10
2.01628e-10
2.01608e-10
2.01591e-10
2.01575e-10
2.01561e-10
2.01549e-10
2.01538e-10
2.0153e-10
2.01526e-10
2.01527e-10
2.01537e-10
2.01557e-10
2.0159e-10
2.01639e-10
2.01705e-10
2.01789e-10
2.01892e-10
2.02014e-10
2.02153e-10
2.02309e-10
2.02479e-10
2.0266e-10
2.02849e-10
2.03041e-10
2.03231e-10
2.03414e-10
2.03585e-10
2.03738e-10
2.03867e-10
2.03966e-10
2.0403e-10
2.04055e-10
2.04037e-10
2.03976e-10
2.03871e-10
2.03724e-10
2.03537e-10
2.03315e-10
2.03065e-10
2.02793e-10
2.02506e-10
2.02213e-10
2.0192e-10
2.01635e-10
2.01363e-10
2.01109e-10
2.00876e-10
2.00667e-10
2.00483e-10
2.00323e-10
2.00188e-10
2.00075e-10
1.99982e-10
1.99906e-10
1.99846e-10
1.99798e-10
1.99759e-10
1.99727e-10
1.997e-10
1.99675e-10
1.9965e-10
1.99625e-10
1.99597e-10
1.99566e-10
1.99532e-10
1.99494e-10
1.99452e-10
1.99406e-10
1.99356e-10
1.99302e-10
1.99245e-10
1.99184e-10
1.99121e-10
1.99056e-10
1.98988e-10
1.98919e-10
1.98849e-10
1.98778e-10
1.98705e-10
1.98633e-10
1.9856e-10
1.98487e-10
1.98414e-10
1.98341e-10
1.98269e-10
1.98197e-10
1.98126e-10
1.98055e-10
1.97986e-10
1.97917e-10
1.9785e-10
1.97784e-10
1.97719e-10
1.97655e-10
1.97592e-10
1.97531e-10
1.97471e-10
1.97412e-10
1.97354e-10
1.97298e-10
1.97242e-10
1.97188e-10
1.97134e-10
1.97082e-10
1.9703e-10
1.96979e-10
1.96929e-10
1.96879e-10
1.9683e-10
1.96781e-10
1.96733e-10
1.96685e-10
1.96637e-10
1.9659e-10
1.96544e-10
1.96498e-10
1.96452e-10
1.96407e-10
1.96362e-10
1.96317e-10
1.96274e-10
1.9623e-10
1.96187e-10
1.96145e-10
1.96103e-10
1.96062e-10
1.96022e-10
1.95982e-10
1.95943e-10
1.95905e-10
1.95867e-10
1.9583e-10
1.95793e-10
1.95758e-10
1.95723e-10
1.95688e-10
1.95654e-10
1.95621e-10
1.95588e-10
1.95556e-10
1.95524e-10
1.95492e-10
1.95461e-10
1.9543e-10
1.954e-10
1.95369e-10
1.95339e-10
1.9531e-10
1.9528e-10
1.95251e-10
1.95222e-10
1.95194e-10
1.95166e-10
1.95139e-10
1.95112e-10
1.95087e-10
1.95062e-10
1.95038e-10
1.95015e-10
1.94994e-10
1.94974e-10
1.94956e-10
1.94941e-10
1.94928e-10
1.94919e-10
1.94913e-10
1.94911e-10
1.94915e-10
1.94923e-10
1.94937e-10
1.94958e-10
1.94985e-10
1.95019e-10
1.95061e-10
1.9511e-10
1.95167e-10
1.95231e-10
1.95301e-10
1.95379e-10
1.95462e-10
1.95551e-10
1.95644e-10
1.95739e-10
1.95837e-10
1.95934e-10
1.9603e-10
1.96123e-10
1.96211e-10
1.96292e-10
1.96364e-10
1.96426e-10
1.96475e-10
1.96511e-10
1.9653e-10
1.96533e-10
1.96518e-10
1.96485e-10
1.96431e-10
1.96359e-10
1.96269e-10
1.96159e-10
1.96034e-10
1.95892e-10
1.95736e-10
1.95568e-10
1.9539e-10
1.95205e-10
1.95015e-10
1.94822e-10
1.94627e-10
1.94435e-10
1.94246e-10
1.94061e-10
1.93884e-10
1.93713e-10
1.93552e-10
1.934e-10
1.93257e-10
1.93124e-10
1.93e-10
1.92886e-10
1.9278e-10
1.92683e-10
1.92593e-10
1.92509e-10
1.92432e-10
1.9236e-10
1.92292e-10
1.92228e-10
1.92167e-10
1.92108e-10
1.9205e-10
1.91993e-10
1.91937e-10
1.91881e-10
1.91824e-10
1.91767e-10
1.91709e-10
1.91649e-10
1.91588e-10
1.91526e-10
1.91463e-10
1.91398e-10
1.91332e-10
1.91264e-10
1.91195e-10
1.91125e-10
1.91054e-10
1.90982e-10
1.90909e-10
1.90835e-10
1.90761e-10
1.90686e-10
1.90611e-10
1.90535e-10
1.9046e-10
1.90385e-10
1.9031e-10
1.90236e-10
1.90162e-10
1.9009e-10
1.90019e-10
1.89949e-10
1.89881e-10
1.89815e-10
1.89752e-10
1.8969e-10
1.89633e-10
1.89577e-10
1.89526e-10
1.89478e-10
1.89433e-10
1.89392e-10
1.89354e-10
1.89319e-10
1.89287e-10
1.89256e-10
1.89226e-10
1.89192e-10
1.89152e-10
1.89096e-10
1.89011e-10
1.88876e-10
1.88656e-10
1.88308e-10
1.87792e-10
1.87112e-10
1.86359e-10
1.85694e-10
1.85234e-10
1.84974e-10
1.84843e-10
1.84781e-10
1.8475e-10
1.84735e-10
1.84727e-10
1.84723e-10
1.84721e-10
1.84721e-10
1.84721e-10
1.84722e-10
1.84724e-10
1.84726e-10
1.84728e-10
1.84731e-10
1.84734e-10
1.84737e-10
1.84741e-10
1.84745e-10
1.8475e-10
1.84754e-10
1.8476e-10
1.84765e-10
1.84771e-10
1.84777e-10
1.84784e-10
1.84791e-10
1.84798e-10
1.84805e-10
1.84813e-10
1.84821e-10
1.8483e-10
1.84838e-10
1.84847e-10
1.84857e-10
1.84866e-10
1.84876e-10
1.84886e-10
1.84897e-10
1.84907e-10
1.84918e-10
1.84929e-10
1.84941e-10
1.84953e-10
1.84965e-10
1.84977e-10
1.8499e-10
1.85003e-10
1.85017e-10
1.85031e-10
1.85045e-10
1.8506e-10
1.85075e-10
1.85091e-10
1.85108e-10
1.85126e-10
1.85145e-10
1.85164e-10
1.85185e-10
1.85207e-10
1.8523e-10
1.85255e-10
1.85281e-10
1.8531e-10
1.8534e-10
1.85373e-10
1.85408e-10
1.85445e-10
1.85485e-10
1.85528e-10
1.85575e-10
1.85624e-10
1.85677e-10
1.85733e-10
1.85793e-10
1.85856e-10
1.85923e-10
1.85993e-10
1.86067e-10
1.86144e-10
1.86224e-10
1.86308e-10
1.86394e-10
1.86482e-10
1.86573e-10
1.86665e-10
1.86759e-10
1.86853e-10
1.86947e-10
1.87041e-10
1.87134e-10
1.87225e-10
1.87313e-10
1.87398e-10
1.8748e-10
1.87556e-10
1.87627e-10
1.87692e-10
1.87749e-10
1.87799e-10
1.8784e-10
1.87873e-10
1.87896e-10
1.87909e-10
1.87914e-10
1.87915e-10
1.87913e-10
1.87904e-10
1.87867e-10
1.87823e-10
1.87771e-10
1.8771e-10
1.87641e-10
1.87566e-10
1.87485e-10
1.87399e-10
1.87308e-10
1.87214e-10
1.87118e-10
1.8702e-10
1.86922e-10
1.86824e-10
1.86728e-10
1.86633e-10
1.86541e-10
1.86452e-10
1.86368e-10
1.86287e-10
1.86211e-10
1.86139e-10
1.86073e-10
1.86011e-10
1.85955e-10
1.85903e-10
1.85856e-10
1.85814e-10
1.85776e-10
1.85743e-10
1.85713e-10
1.85686e-10
1.85663e-10
1.85642e-10
1.85624e-10
1.85608e-10
1.85594e-10
1.85582e-10
1.8557e-10
1.8556e-10
1.8555e-10
1.85541e-10
1.85532e-10
1.85523e-10
1.85515e-10
1.85506e-10
1.85496e-10
1.85487e-10
1.85476e-10
1.85466e-10
1.85455e-10
1.85443e-10
1.85431e-10
1.85418e-10
1.85404e-10
1.8539e-10
1.85376e-10
1.85361e-10
1.85346e-10
1.8533e-10
1.85314e-10
1.85297e-10
1.8528e-10
1.85263e-10
1.85246e-10
1.85228e-10
1.85211e-10
1.85193e-10
1.85176e-10
1.85158e-10
1.85141e-10
1.85123e-10
1.85106e-10
1.85089e-10
1.85072e-10
1.85056e-10
1.85039e-10
1.85023e-10
1.85008e-10
1.84993e-10
1.84978e-10
1.84963e-10
1.84949e-10
1.84936e-10
1.84923e-10
1.84911e-10
1.84899e-10
1.84887e-10
1.84877e-10
1.84866e-10
1.84857e-10
1.84848e-10
1.84839e-10
1.84831e-10
1.84824e-10
1.84818e-10
1.84812e-10
1.84806e-10
1.84802e-10
1.84797e-10
1.84794e-10
1.84791e-10
1.84788e-10
1.84786e-10
1.84785e-10
1.84784e-10
1.84783e-10
1.84783e-10
1.84783e-10
1.84783e-10
1.84784e-10
1.84786e-10
1.84788e-10
1.8479e-10
1.84793e-10
1.84796e-10
1.848e-10
1.84803e-10
1.84807e-10
1.84812e-10
1.84816e-10
1.84821e-10
1.84826e-10
1.84832e-10
1.84837e-10
1.84843e-10
1.8485e-10
1.84856e-10
1.84863e-10
1.8487e-10
1.84877e-10
1.84885e-10
1.84892e-10
1.849e-10
1.84909e-10
1.84917e-10
1.84926e-10
1.84936e-10
1.84945e-10
1.84955e-10
1.84965e-10
1.84976e-10
1.84986e-10
1.84998e-10
1.85009e-10
1.85022e-10
1.85034e-10
1.85047e-10
1.85061e-10
1.85075e-10
1.8509e-10
1.85106e-10
1.85123e-10
1.8514e-10
1.85158e-10
1.85178e-10
1.85198e-10
1.8522e-10
1.85242e-10
1.85267e-10
1.85293e-10
1.8532e-10
1.85349e-10
1.8538e-10
1.85413e-10
1.85448e-10
1.85486e-10
1.85525e-10
1.85567e-10
1.85611e-10
1.85658e-10
1.85707e-10
1.85759e-10
1.85814e-10
1.85871e-10
1.85931e-10
1.85994e-10
1.86059e-10
1.86126e-10
1.86196e-10
1.86268e-10
1.86341e-10
1.86416e-10
1.86493e-10
1.86571e-10
1.8665e-10
1.86729e-10
1.86808e-10
1.86887e-10
1.86965e-10
1.87042e-10
1.87117e-10
1.8719e-10
1.8726e-10
1.87327e-10
1.8739e-10
1.87449e-10
1.87504e-10
1.87553e-10
1.87597e-10
1.87634e-10
1.87666e-10
1.87691e-10
1.87708e-10
1.87718e-10
1.87722e-10
1.87723e-10
1.87722e-10
1.87716e-10
1.87689e-10
1.87657e-10
1.87618e-10
1.87572e-10
1.87521e-10
1.87464e-10
1.87402e-10
1.87336e-10
1.87266e-10
1.87193e-10
1.87118e-10
1.87041e-10
1.86963e-10
1.86885e-10
1.86807e-10
1.86729e-10
1.86653e-10
1.86579e-10
1.86507e-10
1.86437e-10
1.86371e-10
1.86307e-10
1.86247e-10
1.8619e-10
1.86136e-10
1.86087e-10
1.8604e-10
1.85997e-10
1.85958e-10
1.85922e-10
1.85888e-10
1.85858e-10
1.8583e-10
1.85805e-10
1.85782e-10
1.85761e-10
1.85742e-10
1.85724e-10
1.85708e-10
1.85693e-10
1.85678e-10
1.85665e-10
1.85652e-10
1.8564e-10
1.85627e-10
1.85615e-10
1.85603e-10
1.85591e-10
1.85579e-10
1.85566e-10
1.85553e-10
1.8554e-10
1.85527e-10
1.85513e-10
1.85498e-10
1.85483e-10
1.85468e-10
1.85453e-10
1.85436e-10
1.8542e-10
1.85403e-10
1.85386e-10
1.85369e-10
1.85351e-10
1.85333e-10
1.85314e-10
1.85296e-10
1.85277e-10
1.85259e-10
1.8524e-10
1.85221e-10
1.85202e-10
1.85183e-10
1.85164e-10
1.85145e-10
1.85126e-10
1.85107e-10
1.85089e-10
1.8507e-10
1.85052e-10
1.85034e-10
1.85017e-10
1.84999e-10
1.84982e-10
1.84965e-10
1.84949e-10
1.84933e-10
1.84917e-10
1.84902e-10
1.84887e-10
1.84873e-10
1.84859e-10
1.84845e-10
1.84832e-10
1.8482e-10
1.84808e-10
1.84797e-10
1.84787e-10
1.84777e-10
1.84767e-10
1.84759e-10
1.8475e-10
1.84743e-10
1.84736e-10
1.8473e-10
1.84724e-10
1.84719e-10
1.84715e-10
1.84711e-10
1.84708e-10
1.84706e-10
1.84704e-10
1.84703e-10
1.84702e-10
1.84702e-10
1.84702e-10
1.84702e-10
1.84704e-10
1.84706e-10
1.84709e-10
1.84712e-10
1.84716e-10
1.84721e-10
1.84726e-10
1.84731e-10
1.84737e-10
1.84743e-10
1.8475e-10
1.84758e-10
1.84765e-10
1.84773e-10
1.84782e-10
1.84791e-10
1.848e-10
1.8481e-10
1.8482e-10
1.84831e-10
1.84842e-10
1.84854e-10
1.84866e-10
1.84878e-10
1.84891e-10
1.84905e-10
1.84919e-10
1.84933e-10
1.84948e-10
1.84964e-10
1.84981e-10
1.84998e-10
1.85016e-10
1.85034e-10
1.85054e-10
1.85075e-10
1.85096e-10
1.85119e-10
1.85143e-10
1.85168e-10
1.85194e-10
1.85221e-10
1.8525e-10
1.85281e-10
1.85313e-10
1.85347e-10
1.85382e-10
1.8542e-10
1.85459e-10
1.855e-10
1.85543e-10
1.85588e-10
1.85635e-10
1.85684e-10
1.85735e-10
1.85788e-10
1.85843e-10
1.859e-10
1.85959e-10
1.8602e-10
1.86083e-10
1.86147e-10
1.86213e-10
1.86279e-10
1.86347e-10
1.86416e-10
1.86486e-10
1.86556e-10
1.86626e-10
1.86696e-10
1.86766e-10
1.86835e-10
1.86902e-10
1.86969e-10
1.87033e-10
1.87096e-10
1.87156e-10
1.87213e-10
1.87267e-10
1.87317e-10
1.87364e-10
1.87406e-10
1.87444e-10
1.87477e-10
1.87504e-10
1.87527e-10
1.87544e-10
1.87555e-10
1.8756e-10
1.87562e-10
1.87562e-10
1.87559e-10
1.87545e-10
1.87522e-10
1.87494e-10
1.8746e-10
1.87421e-10
1.87378e-10
1.8733e-10
1.87279e-10
1.87224e-10
1.87166e-10
1.87105e-10
1.87043e-10
1.86979e-10
1.86914e-10
1.86848e-10
1.86782e-10
1.86716e-10
1.86651e-10
1.86587e-10
1.86524e-10
1.86463e-10
1.86404e-10
1.86347e-10
1.86291e-10
1.86239e-10
1.86189e-10
1.86141e-10
1.86096e-10
1.86054e-10
1.86013e-10
1.85976e-10
1.8594e-10
1.85907e-10
1.85876e-10
1.85847e-10
1.8582e-10
1.85794e-10
1.8577e-10
1.85747e-10
1.85726e-10
1.85705e-10
1.85686e-10
1.85666e-10
1.85648e-10
1.8563e-10
1.85613e-10
1.85595e-10
1.85578e-10
1.85561e-10
1.85544e-10
1.85527e-10
1.8551e-10
1.85492e-10
1.85474e-10
1.85456e-10
1.85438e-10
1.8542e-10
1.85401e-10
1.85382e-10
1.85363e-10
1.85343e-10
1.85323e-10
1.85303e-10
1.85283e-10
1.85263e-10
)
;

boundaryField
{
    inlet
    {
        type            calculated;
        value           uniform -2.74882e-10;
    }
    outlet
    {
        type            calculated;
        value           uniform 1.85242e-10;
    }
    emptyWalls
    {
        type            empty;
        value           nonuniform List<scalar> 0();
    }
}


// ************************************************************************* //
