/*--------------------------------*- C++ -*----------------------------------*\
  =========                 |
  \\      /  F ield         | OpenFOAM: The Open Source CFD Toolbox
   \\    /   O peration     | Website:  https://openfoam.org
    \\  /    A nd           | Version:  9
     \\/     M anipulation  |
\*---------------------------------------------------------------------------*/
FoamFile
{
    format      ascii;
    class       volScalarField;
    location    "10100";
    object      Sa;
}
// * * * * * * * * * * * * * * * * * * * * * * * * * * * * * * * * * * * * * //

dimensions      [0 0 0 0 0 0 0];

internalField   nonuniform List<scalar> 
1000
(
0.548809
0.54637
0.543024
0.540275
0.537079
0.534499
0.531611
0.529313
0.527041
0.525184
0.523112
0.519095
0.506142
0.445402
0.197076
0.0876364
0.0639446
0.054056
0.0482228
0.0441978
0.0411562
0.0387421
0.0367324
0.0350331
0.0335866
0.0323545
0.0312656
0.0302728
0.0293794
0.0285554
0.0278126
0.027105
0.0264702
0.0259056
0.025404
0.0249616
0.0245847
0.0242946
0.0241142
0.0240264
0.0239556
0.0238803
0.0238019
0.0237213
0.0236391
0.0235559
0.0234722
0.0233883
0.0233046
0.0232214
0.023139
0.0230573
0.0229767
0.022897
0.0228185
0.0227411
0.0226648
0.0225896
0.0225156
0.0224426
0.0223708
0.0223
0.0222303
0.0221616
0.0220939
0.0220272
0.0219614
0.0218966
0.0218326
0.0217695
0.0217072
0.0216459
0.0215852
0.0215254
0.0214663
0.0214082
0.0213505
0.0212938
0.0212376
0.0211823
0.0211274
0.0210735
0.0210199
0.0209672
0.0209148
0.0208633
0.0208122
0.0207619
0.0207119
0.0206627
0.0206139
0.0205657
0.020518
0.0204709
0.0204243
0.0203782
0.0203326
0.0202875
0.0202429
0.0201987
0.0201551
0.0201119
0.0200691
0.0200268
0.0199849
0.0199434
0.0199024
0.0198617
0.0198214
0.0197815
0.0197418
0.0197025
0.0196634
0.0196247
0.0195862
0.0195481
0.0195103
0.0194729
0.0194359
0.0193993
0.0193631
0.0193274
0.0192919
0.0192569
0.0192222
0.0191879
0.019154
0.0191206
0.0190878
0.0190558
0.0190247
0.0189945
0.0189655
0.0189376
0.0189109
0.0188855
0.0188612
0.018838
0.0188159
0.0187945
0.0187739
0.0187537
0.0187337
0.0187137
0.0186934
0.0186725
0.0186506
0.0186275
0.0186029
0.0185766
0.0185484
0.0185181
0.0184857
0.0184513
0.018415
0.018377
0.0183376
0.0182971
0.0182558
0.0182142
0.0181727
0.0181316
0.0180912
0.0180518
0.0180136
0.0179767
0.0179412
0.0179072
0.0178746
0.0178433
0.0178132
0.0177843
0.0177563
0.0177291
0.0177027
0.0176767
0.0176512
0.017626
0.017601
0.0175761
0.0175513
0.0175265
0.0175016
0.0174767
0.0174517
0.0174266
0.0174014
0.0173762
0.017351
0.0173257
0.0173003
0.017275
0.0172497
0.0172244
0.0171992
0.017174
0.0171489
0.0171239
0.017099
0.0170741
0.0170494
0.0170248
0.0170004
0.016976
0.0169518
0.0169277
0.0169038
0.01688
0.0168564
0.0168329
0.0168096
0.0167864
0.0167634
0.0167406
0.0167179
0.0166953
0.0166729
0.0166507
0.0166286
0.0166066
0.0165848
0.0165631
0.0165415
0.0165201
0.0164988
0.0164775
0.0164564
0.0164354
0.0164145
0.0163937
0.016373
0.0163524
0.0163319
0.0163115
0.0162912
0.016271
0.0162509
0.0162309
0.0162109
0.0161911
0.0161714
0.0161517
0.0161322
0.0161127
0.0160934
0.0160741
0.016055
0.0160359
0.016017
0.0159981
0.0159793
0.0159606
0.0159421
0.0159236
0.0159052
0.0158869
0.0158686
0.0158505
0.0158324
0.0158144
0.0157965
0.0157787
0.0157609
0.0157432
0.0157255
0.015708
0.0156905
0.015673
0.0156557
0.0156384
0.0156211
0.015604
0.0155869
0.0155699
0.015553
0.0155362
0.0155195
0.0155029
0.0154864
0.01547
0.0154538
0.0154377
0.0154218
0.0154061
0.0153907
0.0153754
0.0153604
0.0153457
0.0153314
0.0153173
0.0153036
0.0152902
0.0152772
0.0152646
0.0152523
0.0152404
0.0152288
0.0152176
0.0152065
0.0151958
0.0151852
0.0151747
0.0151643
0.0151538
0.0151435
0.0151327
0.015122
0.0151106
0.0150992
0.015087
0.0150746
0.0150612
0.0150474
0.0150327
0.0150173
0.0150012
0.0149841
0.0149664
0.0149478
0.0149285
0.0149086
0.014888
0.0148669
0.0148453
0.0148235
0.0148014
0.0147791
0.0147568
0.0147345
0.0147124
0.0146905
0.0146689
0.0146476
0.0146267
0.0146062
0.0145861
0.0145664
0.0145472
0.0145284
0.0145101
0.014492
0.0144744
0.0144571
0.01444
0.0144232
0.0144066
0.0143902
0.014374
0.0143578
0.0143418
0.0143258
0.0143099
0.014294
0.0142781
0.0142621
0.0142462
0.0142302
0.0142142
0.0141981
0.014182
0.0141658
0.0141496
0.0141333
0.014117
0.0141006
0.0140843
0.0140679
0.0140515
0.014035
0.0140186
0.0140022
0.0139859
0.0139696
0.0139533
0.0139372
0.0139212
0.0139053
0.0138896
0.0138742
0.0138591
0.0138442
0.0138298
0.0138158
0.0138024
0.0137895
0.0137773
0.0137659
0.0137551
0.0137453
0.0137361
0.0137279
0.0137205
0.0137138
0.0137079
0.0137022
0.0136968
0.0136908
0.0136834
0.0136729
0.0136565
0.0136296
0.0135846
0.0135111
0.0133972
0.0132366
0.0130409
0.0128458
0.012692
0.0125954
0.0125441
0.0125192
0.0125074
0.0125016
0.0124988
0.0124974
0.0124967
0.0124963
0.0124962
0.0124961
0.0124961
0.0124962
0.0124962
0.0124963
0.0124964
0.0124966
0.0124967
0.0124968
0.012497
0.0124972
0.0124974
0.0124976
0.0124978
0.012498
0.0124983
0.0124985
0.0124988
0.0124991
0.0124994
0.0124997
0.0125
0.0125003
0.0125007
0.012501
0.0125014
0.0125017
0.0125021
0.0125025
0.0125029
0.0125033
0.0125038
0.0125042
0.0125047
0.0125051
0.0125056
0.0125061
0.0125066
0.0125071
0.0125076
0.0125081
0.0125087
0.0125093
0.0125099
0.0125105
0.0125112
0.0125119
0.0125126
0.0125134
0.0125142
0.012515
0.012516
0.0125169
0.012518
0.0125191
0.0125203
0.0125216
0.012523
0.0125245
0.0125261
0.0125278
0.0125296
0.0125316
0.0125336
0.0125358
0.0125382
0.0125407
0.0125433
0.0125461
0.0125489
0.012552
0.0125551
0.0125583
0.0125617
0.0125651
0.0125686
0.0125721
0.0125757
0.0125793
0.0125829
0.0125865
0.01259
0.0125934
0.0125967
0.0125999
0.0126029
0.0126057
0.0126083
0.0126107
0.0126127
0.0126144
0.0126159
0.0126169
0.0126176
0.0126179
0.012618
0.012618
0.0126178
0.0126169
0.0126154
0.0126136
0.0126114
0.0126089
0.0126062
0.0126032
0.0126
0.0125966
0.0125931
0.0125895
0.0125858
0.012582
0.0125783
0.0125746
0.0125709
0.0125673
0.0125639
0.0125606
0.0125574
0.0125544
0.0125516
0.0125489
0.0125465
0.0125442
0.0125422
0.0125403
0.0125386
0.0125371
0.0125357
0.0125345
0.0125334
0.0125325
0.0125316
0.0125309
0.0125302
0.0125297
0.0125292
0.0125287
0.0125283
0.0125279
0.0125275
0.0125272
0.0125269
0.0125265
0.0125262
0.0125258
0.0125255
0.0125251
0.0125247
0.0125243
0.0125238
0.0125234
0.0125229
0.0125224
0.0125219
0.0125213
0.0125208
0.0125202
0.0125196
0.012519
0.0125184
0.0125177
0.0125171
0.0125164
0.0125157
0.0125151
0.0125144
0.0125137
0.0125131
0.0125124
0.0125117
0.0125111
0.0125104
0.0125098
0.0125091
0.0125085
0.0125079
0.0125073
0.0125067
0.0125061
0.0125055
0.012505
0.0125045
0.012504
0.0125035
0.012503
0.0125026
0.0125021
0.0125017
0.0125014
0.012501
0.0125007
0.0125004
0.0125001
0.0124998
0.0124996
0.0124993
0.0124992
0.012499
0.0124988
0.0124987
0.0124986
0.0124985
0.0124984
0.0124984
0.0124984
0.0124984
0.0124984
0.0124984
0.0124984
0.0124984
0.0124985
0.0124986
0.0124987
0.0124988
0.0124989
0.0124991
0.0124992
0.0124994
0.0124995
0.0124997
0.0124999
0.0125001
0.0125003
0.0125005
0.0125008
0.012501
0.0125013
0.0125015
0.0125018
0.0125021
0.0125024
0.0125027
0.012503
0.0125033
0.0125037
0.012504
0.0125044
0.0125047
0.0125051
0.0125055
0.0125059
0.0125064
0.0125068
0.0125073
0.0125077
0.0125082
0.0125087
0.0125093
0.0125098
0.0125104
0.012511
0.0125117
0.0125124
0.0125131
0.0125139
0.0125147
0.0125155
0.0125164
0.0125174
0.0125184
0.0125195
0.0125206
0.0125218
0.0125231
0.0125245
0.012526
0.0125276
0.0125292
0.0125309
0.0125328
0.0125347
0.0125368
0.0125389
0.0125411
0.0125435
0.0125459
0.0125485
0.0125511
0.0125538
0.0125565
0.0125594
0.0125623
0.0125653
0.0125682
0.0125713
0.0125743
0.0125773
0.0125803
0.0125833
0.0125862
0.012589
0.0125917
0.0125944
0.0125968
0.0125992
0.0126013
0.0126033
0.0126051
0.0126067
0.012608
0.0126091
0.0126099
0.0126104
0.0126106
0.0126107
0.0126107
0.0126106
0.01261
0.0126089
0.0126075
0.0126059
0.012604
0.0126019
0.0125997
0.0125972
0.0125946
0.0125919
0.0125891
0.0125862
0.0125832
0.0125802
0.0125772
0.0125743
0.0125713
0.0125685
0.0125657
0.012563
0.0125603
0.0125579
0.0125555
0.0125532
0.0125511
0.0125492
0.0125473
0.0125456
0.0125441
0.0125426
0.0125413
0.0125401
0.0125389
0.0125379
0.012537
0.0125362
0.0125354
0.0125347
0.0125341
0.0125335
0.0125329
0.0125324
0.0125319
0.0125314
0.0125309
0.0125304
0.01253
0.0125295
0.0125291
0.0125286
0.0125281
0.0125276
0.0125271
0.0125266
0.012526
0.0125255
0.0125249
0.0125243
0.0125237
0.0125231
0.0125224
0.0125218
0.0125211
0.0125204
0.0125197
0.0125191
0.0125183
0.0125176
0.0125169
0.0125162
0.0125155
0.0125148
0.012514
0.0125133
0.0125126
0.0125119
0.0125111
0.0125104
0.0125097
0.012509
0.0125083
0.0125076
0.012507
0.0125063
0.0125057
0.012505
0.0125044
0.0125038
0.0125032
0.0125026
0.0125021
0.0125015
0.012501
0.0125005
0.0125
0.0124996
0.0124991
0.0124987
0.0124983
0.0124979
0.0124976
0.0124973
0.012497
0.0124967
0.0124964
0.0124962
0.012496
0.0124958
0.0124957
0.0124955
0.0124954
0.0124954
0.0124953
0.0124953
0.0124953
0.0124953
0.0124953
0.0124953
0.0124954
0.0124955
0.0124956
0.0124957
0.0124959
0.0124961
0.0124963
0.0124965
0.0124967
0.012497
0.0124972
0.0124975
0.0124978
0.0124981
0.0124985
0.0124988
0.0124992
0.0124996
0.0125
0.0125004
0.0125008
0.0125013
0.0125018
0.0125022
0.0125028
0.0125033
0.0125038
0.0125044
0.012505
0.0125056
0.0125063
0.0125069
0.0125076
0.0125084
0.0125091
0.0125099
0.0125108
0.0125117
0.0125126
0.0125136
0.0125146
0.0125157
0.0125168
0.012518
0.0125193
0.0125206
0.012522
0.0125235
0.012525
0.0125266
0.0125283
0.01253
0.0125319
0.0125338
0.0125358
0.0125379
0.01254
0.0125422
0.0125445
0.0125469
0.0125493
0.0125518
0.0125543
0.0125569
0.0125595
0.0125622
0.0125648
0.0125675
0.0125702
0.0125729
0.0125755
0.0125781
0.0125807
0.0125832
0.0125856
0.0125879
0.0125902
0.0125923
0.0125943
0.0125961
0.0125978
0.0125994
0.0126007
0.0126019
0.0126028
0.0126036
0.0126041
0.0126044
0.0126046
0.0126045
0.0126045
0.0126043
0.0126035
0.0126025
0.0126014
0.0126
0.0125984
0.0125967
0.0125948
0.0125927
0.0125906
0.0125883
0.012586
0.0125835
0.0125811
0.0125786
0.0125761
0.0125735
0.0125711
0.0125686
0.0125662
0.0125638
0.0125615
0.0125592
0.0125572
0.012555
0.0125532
0.0125511
0.0125496
0.0125477
0.0125463
0.0125446
0.0125435
0.0125419
0.0125409
0.0125395
0.0125387
0.0125374
0.0125368
0.0125355
0.012535
0.0125339
0.0125334
0.0125324
0.012532
0.012531
0.0125306
0.0125297
0.0125292
0.0125284
0.0125279
0.0125271
0.0125266
0.0125258
0.0125252
0.0125244
0.0125238
0.012523
0.0125224
0.0125216
0.012521
0.0125201
0.0125195
0.0125186
0.0125179
0.0125171
0.0125164
)
;

boundaryField
{
    inlet
    {
        type            fixedValue;
        value           uniform 0.55;
    }
    outlet
    {
        type            zeroGradient;
    }
    emptyWalls
    {
        type            empty;
    }
}


// ************************************************************************* //
