/*--------------------------------*- C++ -*----------------------------------*\
  =========                 |
  \\      /  F ield         | OpenFOAM: The Open Source CFD Toolbox
   \\    /   O peration     | Website:  https://openfoam.org
    \\  /    A nd           | Version:  9
     \\/     M anipulation  |
\*---------------------------------------------------------------------------*/
FoamFile
{
    format      ascii;
    class       volScalarField;
    location    "29750";
    object      Fa;
}
// * * * * * * * * * * * * * * * * * * * * * * * * * * * * * * * * * * * * * //

dimensions      [0 0 0 0 0 0 0];

internalField   nonuniform List<scalar> 
1000
(
0.194804
0.194789
0.19479
0.194786
0.194775
0.194767
0.194763
0.194731
0.194745
0.194684
0.194717
0.194629
0.194676
0.194568
0.194608
0.194512
0.194516
0.194456
0.194424
0.194384
0.19434
0.194292
0.194249
0.194197
0.194151
0.194105
0.194051
0.194017
0.193949
0.193944
0.193852
0.193885
0.193782
0.193826
0.193742
0.193762
0.193714
0.193707
0.193663
0.193571
0.193192
0.191102
0.173488
0.154764
0.151607
0.150482
0.149888
0.149495
0.149195
0.148949
0.148737
0.148551
0.148384
0.14823
0.148087
0.147953
0.14783
0.147721
0.147628
0.147546
0.147468
0.147385
0.147297
0.147205
0.147117
0.147044
0.146995
0.146968
0.146951
0.146919
0.146862
0.146791
0.146721
0.146638
0.14656
0.146501
0.146458
0.146445
0.146581
0.146789
0.147033
0.147297
0.147559
0.147798
0.147996
0.148143
0.148234
0.148276
0.148289
0.148294
0.148293
0.148235
0.148022
0.147762
0.147468
0.147172
0.146877
0.146609
0.146364
0.146159
0.145983
0.145848
0.145736
0.145661
0.145601
0.145569
0.145542
0.145536
0.145525
0.145527
0.145517
0.145516
0.145499
0.145492
0.145467
0.145454
0.145423
0.145408
0.145372
0.145353
0.145313
0.145291
0.145247
0.145225
0.14518
0.145158
0.145114
0.145093
0.145049
0.14503
0.144986
0.144968
0.144926
0.14491
0.144869
0.144856
0.144816
0.144805
0.144767
0.144758
0.144722
0.144714
0.14468
0.144674
0.144641
0.144636
0.144604
0.1446
0.14457
0.144568
0.144541
0.144542
0.144517
0.144522
0.144501
0.144508
0.144488
0.144497
0.144478
0.144487
0.144468
0.144476
0.144457
0.144466
0.144448
0.144459
0.144444
0.144459
0.144448
0.144467
0.144458
0.14448
0.144472
0.144492
0.144483
0.1445
0.144487
0.1445
0.144482
0.144491
0.14447
0.14448
0.144466
0.144488
0.144491
0.144537
0.144568
0.144646
0.14471
0.14482
0.144914
0.145051
0.145168
0.145323
0.145453
0.145615
0.145746
0.145902
0.146021
0.146159
0.146252
0.146356
0.146408
0.146466
0.146468
0.146472
0.14642
0.146372
0.146271
0.146179
0.146041
0.145922
0.145763
0.145633
0.145472
0.145347
0.145198
0.14509
0.144962
0.144878
0.144775
0.144715
0.144636
0.144599
0.14454
0.144521
0.144477
0.144469
0.144434
0.144433
0.144402
0.144403
0.144373
0.144374
0.144342
0.14434
0.144305
0.1443
0.144262
0.144254
0.144213
0.144202
0.144159
0.144147
0.144101
0.144088
0.144042
0.144029
0.143982
0.143969
0.143923
0.14391
0.143864
0.143852
0.143808
0.143797
0.143753
0.143743
0.143701
0.143693
0.143652
0.143645
0.143606
0.1436
0.143561
0.143557
0.14352
0.143517
0.143481
0.14348
0.143446
0.143446
0.143413
0.143415
0.143384
0.143388
0.143359
0.143365
0.143337
0.143344
0.143318
0.143326
0.143301
0.14331
0.143286
0.143296
0.143273
0.143285
0.143263
0.143276
0.143256
0.143271
0.143252
0.143269
0.143252
0.143269
0.143253
0.143271
0.143255
0.143273
0.143255
0.143272
0.143253
0.14327
0.143251
0.143268
0.143251
0.143271
0.143259
0.143286
0.143283
0.14332
0.143329
0.14338
0.143404
0.143471
0.14351
0.143594
0.143649
0.143747
0.143817
0.143927
0.144006
0.144125
0.144209
0.144329
0.144411
0.144526
0.144599
0.144701
0.144758
0.144841
0.144875
0.144932
0.144938
0.144966
0.144942
0.14494
0.144886
0.144855
0.144775
0.144721
0.14462
0.144548
0.144435
0.144354
0.144234
0.144152
0.144034
0.143956
0.143845
0.143777
0.143677
0.14362
0.143532
0.143488
0.143412
0.14338
0.143316
0.143294
0.143239
0.143225
0.143177
0.143169
0.143125
0.143121
0.14308
0.143077
0.143037
0.143035
0.142995
0.142992
0.142952
0.142948
0.142906
0.142901
0.142858
0.142852
0.142808
0.142801
0.142756
0.142748
0.142702
0.142695
0.142649
0.142641
0.142595
0.142587
0.142542
0.142535
0.14249
0.142483
0.142439
0.142434
0.14239
0.142386
0.142343
0.14234
0.142298
0.142296
0.142256
0.142254
0.142215
0.142215
0.142177
0.142178
0.142141
0.142143
0.142108
0.142112
0.142077
0.142082
0.142049
0.142056
0.142024
0.142032
0.142001
0.14201
0.14198
0.14199
0.141961
0.141972
0.141945
0.141957
0.14193
0.141944
0.141918
0.141933
0.141908
0.141924
0.141901
0.141917
0.141894
0.141912
0.141889
0.141907
0.141885
0.141903
0.141881
0.141899
0.141878
0.141897
0.141876
0.141896
0.141877
0.1419
0.141884
0.141911
0.141899
0.141932
0.141926
0.141966
0.141968
0.142016
0.142027
0.142085
0.142106
0.142172
0.142203
0.142279
0.142319
0.142403
0.14245
0.142541
0.142592
0.142686
0.14274
0.142834
0.142885
0.142976
0.143022
0.143105
0.143141
0.143213
0.143236
0.143293
0.1433
0.14334
0.143329
0.14335
0.14332
0.143323
0.143274
0.143259
0.143194
0.143163
0.143084
0.143042
0.142952
0.142902
0.142807
0.142752
0.142654
0.142599
0.142502
0.14245
0.142358
0.14231
0.142223
0.142183
0.142103
0.142069
0.141997
0.14197
0.141904
0.141884
0.141825
0.141811
0.141756
0.141746
0.141696
0.141689
0.141642
0.141638
0.141592
0.14159
0.141545
0.141543
0.141499
0.141497
0.141453
0.141451
0.141406
0.141404
0.141359
0.141356
0.14131
0.141307
0.141261
0.141258
0.141211
0.141208
0.141162
0.141158
0.141112
0.141108
0.141062
0.141059
0.141013
0.141011
0.140966
0.140964
0.140919
0.140918
0.140874
0.140874
0.14083
0.140831
0.140788
0.14079
0.140748
0.140751
0.14071
0.140714
0.140674
0.140679
0.14064
0.140646
0.140609
0.140616
0.140579
0.140587
0.140551
0.14056
0.140526
0.140536
0.140502
0.140513
0.140481
0.140493
0.140461
0.140474
0.140443
0.140458
0.140427
0.140443
0.140413
0.140429
0.140401
0.140418
0.14039
0.140408
0.14038
0.140399
0.140372
0.140391
0.140364
0.140384
0.140358
0.140379
0.140354
0.140376
0.140352
0.140376
0.140354
0.140379
0.14036
0.140389
0.140373
0.140405
0.140394
0.140431
0.140424
0.140466
0.140465
0.140514
0.140519
0.140573
0.140585
0.140646
0.140663
0.14073
0.140753
0.140825
0.140853
0.140929
0.14096
0.141039
0.141072
0.141151
0.141183
0.141262
0.141291
0.141366
0.141391
0.141459
0.141477
0.141538
0.141547
0.141597
0.141596
0.141635
0.141621
0.141648
0.141622
0.141636
0.141597
0.141599
0.141548
0.141538
0.141477
0.141457
0.141386
0.141359
0.141282
0.141249
0.141166
0.14113
0.141045
0.141008
0.140922
0.140886
0.140802
0.140767
0.140686
0.140655
0.140578
0.140551
0.140478
0.140455
0.140387
0.140368
0.140304
0.14029
0.140229
0.140219
0.140162
0.140154
0.1401
0.140095
0.140044
0.140041
0.13999
0.139989
0.139939
0.139939
0.13989
0.13989
0.139842
0.139842
0.139794
0.139795
0.139746
0.139747
0.139698
0.139699
0.13965
0.139651
0.139602
0.139603
0.139554
0.139554
0.139506
0.139507
0.139458
0.139459
0.139411
0.139413
0.139365
0.139367
0.13932
0.139322
0.139275
0.139278
0.139232
0.139236
0.139191
0.139196
0.139151
0.139157
0.139113
0.139119
0.139076
0.139084
0.139041
0.13905
0.139008
0.139018
0.138977
0.138987
0.138948
0.138959
0.13892
0.138933
0.138894
0.138908
0.138871
0.138885
0.138848
0.138863
0.138828
0.138844
0.138809
0.138826
0.138792
0.138809
0.138776
0.138794
0.138762
0.138781
0.138749
0.138768
0.138737
0.138757
0.138727
0.138748
0.138718
0.13874
0.138711
0.138734
0.138706
0.138729
0.138703
0.138728
0.138703
0.13873
0.138707
0.138736
0.138716
0.138748
0.13873
0.138765
0.138751
0.13879
0.138779
0.138822
0.138815
0.138862
0.13886
0.138912
0.138913
0.138969
0.138975
0.139035
0.139045
0.139109
0.139122
0.139188
0.139204
0.139272
0.139289
0.139358
0.139375
0.139444
0.13946
0.139528
0.139542
0.139609
0.139616
0.139682
0.139681
0.139743
0.139732
0.139792
0.139769
0.139825
0.13979
0.13984
0.139795
0.139838
0.139782
0.139818
0.139751
0.139781
0.139703
0.139726
0.13964
0.139657
0.139563
0.139576
0.139476
0.139484
0.13938
0.139386
0.139278
0.139283
0.139174
0.139179
0.139069
0.139075
0.138966
0.138974
0.138866
0.138878
0.138771
0.138786
0.138681
0.1387
0.138597
0.138619
0.138519
0.138545
0.138447
0.138475
0.13838
0.13841
0.138317
0.13835
0.138258
0.138292
0.138202
0.138238
0.138149
0.138185
0.138098
0.138134
0.138048
0.138085
0.137998
0.138036
0.13795
0.137988
0.137902
0.13794
0.137854
0.137892
0.137807
0.137845
0.13776
0.137798
0.137713
0.137752
0.137667
0.137706
0.137621
0.13766
0.137576
0.137616
0.137531
0.137572
0.137488
0.13753
0.137445
0.137489
0.137403
0.137449
0.137363
0.13741
0.137324
0.137373
0.137287
0.137337
0.137252
0.137302
0.137218
0.137268
0.137185
0.137236
0.137155
0.137206
0.137125
0.137177
0.137097
0.13715
0.137071
0.137124
0.137046
0.1371
0.137023
0.137077
0.137001
0.137056
0.13698
0.137036
0.136961
0.137017
0.136943
0.137
0.136926
0.136984
0.136911
0.136969
0.136897
0.136956
0.136884
0.136943
0.136873
0.136933
0.136863
0.136924
0.136855
0.136917
0.136849
0.136913
0.136847
0.136911
0.136847
0.136913
0.136851
0.136919
0.136859
0.136929
0.136871
0.136944
0.136889
0.136965
0.136913
0.136991
0.136943
0.137024
0.136978
0.137063
0.13702
0.137107
0.137068
0.137158
0.137121
0.137213
0.137179
0.137273
0.137241
0.137337
0.137305
0.137402
0.13737
0.137467
0.137435
0.137532
0.137499
0.137595
0.13756
0.137654
0.137616
0.137708
0.137665
0.137756
0.137706
0.137795
0.137737
0.137824
0.137757
0.13784
0.137764
0.137845
0.137758
0.137835
0.137737
0.137812
0.137702
0.137774
0.137653
0.137721
0.137593
0.137658
0.137525
0.137587
0.137448
0.137508
0.137364
0.137423
0.137276
0.137334
0.137184
0.137242
0.137091
0.13715
0.136998
0.137059
0.136807
0.989843
)
;

boundaryField
{
    inlet
    {
        type            calculated;
        value           uniform 0.194831;
    }
    outlet
    {
        type            calculated;
        value           uniform 0.0471136;
    }
    emptyWalls
    {
        type            empty;
    }
}


// ************************************************************************* //
