/*--------------------------------*- C++ -*----------------------------------*\
  =========                 |
  \\      /  F ield         | OpenFOAM: The Open Source CFD Toolbox
   \\    /   O peration     | Website:  https://openfoam.org
    \\  /    A nd           | Version:  9
     \\/     M anipulation  |
\*---------------------------------------------------------------------------*/
FoamFile
{
    format      ascii;
    class       volScalarField;
    location    "29750";
    object      krb;
}
// * * * * * * * * * * * * * * * * * * * * * * * * * * * * * * * * * * * * * //

dimensions      [0 0 0 0 0 0 0];

internalField   nonuniform List<scalar> 
1000
(
0.0977904
0.0980702
0.0984296
0.0987964
0.0991683
0.0995405
0.0999139
0.100303
0.100675
0.101084
0.101455
0.101885
0.102259
0.102706
0.103091
0.103541
0.103949
0.104387
0.104815
0.105247
0.105679
0.106109
0.106532
0.106951
0.107355
0.107746
0.108123
0.108472
0.108813
0.109103
0.109407
0.109629
0.109891
0.110061
0.110269
0.110412
0.110573
0.110718
0.110955
0.111603
0.114008
0.125158
0.219069
0.428572
0.480555
0.495633
0.502498
0.506626
0.50955
0.511837
0.513731
0.515361
0.516793
0.518074
0.519231
0.520283
0.521244
0.522124
0.52293
0.523671
0.524355
0.524989
0.525575
0.52612
0.526622
0.527082
0.527501
0.527882
0.52823
0.528553
0.528854
0.529133
0.529388
0.529622
0.529833
0.530019
0.530182
0.53032
0.530408
0.530464
0.530497
0.53051
0.530509
0.530498
0.53048
0.530459
0.530433
0.530402
0.530361
0.530307
0.530238
0.530165
0.530105
0.530037
0.52996
0.529866
0.529755
0.529622
0.529467
0.529288
0.529085
0.528855
0.528601
0.52832
0.528014
0.527678
0.527314
0.526917
0.526487
0.526013
0.525494
0.524915
0.524269
0.523537
0.522711
0.521773
0.520727
0.519576
0.518345
0.517055
0.515732
0.514381
0.513016
0.511636
0.510255
0.508866
0.507481
0.506094
0.504714
0.503333
0.501962
0.500592
0.499232
0.497875
0.496528
0.495185
0.493852
0.492523
0.491205
0.489891
0.488588
0.487289
0.486002
0.484718
0.483446
0.482177
0.48092
0.479667
0.478425
0.477186
0.475959
0.474735
0.473522
0.472312
0.471113
0.469917
0.468732
0.46755
0.46638
0.465212
0.464055
0.462901
0.461758
0.460618
0.459488
0.45836
0.457243
0.456128
0.455023
0.45392
0.452827
0.451736
0.450656
0.449578
0.44851
0.447444
0.446388
0.445335
0.444292
0.443251
0.442219
0.441189
0.440168
0.439148
0.438136
0.437123
0.436117
0.435111
0.434112
0.433112
0.432119
0.431125
0.43014
0.429154
0.428177
0.427201
0.426234
0.425268
0.424313
0.42336
0.422417
0.421478
0.42055
0.419627
0.418715
0.417807
0.416912
0.41602
0.415139
0.414262
0.413395
0.412529
0.411673
0.410818
0.40997
0.409122
0.408281
0.407439
0.406603
0.405766
0.404935
0.404102
0.403276
0.402448
0.401626
0.400804
0.399988
0.399172
0.398362
0.397552
0.396749
0.395946
0.395151
0.394355
0.393567
0.392778
0.391997
0.391216
0.390443
0.389669
0.388902
0.388135
0.387375
0.386615
0.385862
0.385108
0.384362
0.383615
0.382874
0.382133
0.381399
0.380665
0.379937
0.379208
0.378486
0.377763
0.377046
0.376329
0.375619
0.374907
0.374202
0.373496
0.372797
0.372096
0.371402
0.370707
0.370018
0.369328
0.368645
0.367961
0.367282
0.366603
0.36593
0.365255
0.364587
0.363918
0.363255
0.36259
0.361932
0.361272
0.360619
0.359964
0.359315
0.358665
0.358021
0.357376
0.356737
0.356096
0.355461
0.354825
0.354195
0.353563
0.352937
0.35231
0.351689
0.351066
0.350449
0.34983
0.349217
0.348603
0.347995
0.347385
0.346782
0.346176
0.345577
0.344976
0.34438
0.343783
0.343191
0.342597
0.342008
0.341417
0.340831
0.340243
0.339659
0.339073
0.338492
0.337908
0.337329
0.336747
0.336171
0.335592
0.335018
0.334442
0.333871
0.333299
0.332733
0.332165
0.331603
0.33104
0.330483
0.329926
0.329375
0.328824
0.32828
0.327735
0.327197
0.326659
0.326128
0.325596
0.325071
0.324545
0.324025
0.323504
0.322989
0.322472
0.32196
0.321447
0.320938
0.320427
0.319921
0.319412
0.318908
0.318402
0.317899
0.317394
0.316894
0.316391
0.315892
0.315391
0.314894
0.314395
0.313901
0.313404
0.312913
0.312419
0.311929
0.311438
0.310952
0.310463
0.309979
0.309494
0.309013
0.30853
0.308052
0.307573
0.307098
0.30662
0.306148
0.305674
0.305204
0.304733
0.304266
0.303797
0.303333
0.302867
0.302405
0.301941
0.301482
0.301021
0.300565
0.300106
0.299652
0.299195
0.298743
0.298289
0.29784
0.297388
0.296941
0.296492
0.296047
0.2956
0.295158
0.294713
0.294273
0.29383
0.293392
0.292952
0.292516
0.292078
0.291644
0.291208
0.290776
0.290342
0.289913
0.289481
0.289054
0.288624
0.288199
0.287771
0.287348
0.286923
0.286502
0.286078
0.285659
0.285238
0.284821
0.284401
0.283986
0.283569
0.283156
0.28274
0.282329
0.281916
0.281506
0.281095
0.280688
0.280278
0.279873
0.279466
0.279062
0.278657
0.278255
0.277851
0.277452
0.27705
0.276652
0.276251
0.275855
0.275456
0.275061
0.274663
0.274269
0.273872
0.27348
0.273084
0.272692
0.272298
0.271907
0.271513
0.271124
0.270731
0.270343
0.269952
0.269565
0.269175
0.26879
0.268402
0.268018
0.267633
0.267251
0.266868
0.266489
0.266108
0.265732
0.265355
0.264982
0.264607
0.264237
0.263865
0.263499
0.26313
0.262767
0.262401
0.262041
0.261678
0.26132
0.26096
0.260604
0.260246
0.259893
0.259537
0.259185
0.25883
0.25848
0.258126
0.257777
0.257425
0.257076
0.256725
0.256378
0.256028
0.255681
0.255331
0.254986
0.254637
0.254293
0.253945
0.253601
0.253255
0.252912
0.252567
0.252225
0.251881
0.251541
0.251198
0.250859
0.250518
0.25018
0.24984
0.249504
0.249165
0.24883
0.248493
0.248159
0.247823
0.247491
0.247156
0.246825
0.246492
0.246163
0.24583
0.245502
0.245171
0.244844
0.244515
0.244189
0.243861
0.243536
0.243209
0.242886
0.24256
0.242238
0.241913
0.241592
0.241269
0.240949
0.240627
0.240308
0.239987
0.239669
0.239349
0.239033
0.238714
0.238398
0.23808
0.237766
0.237449
0.237136
0.23682
0.236508
0.236193
0.235882
0.235569
0.235259
0.234946
0.234637
0.234326
0.234018
0.233707
0.2334
0.233091
0.232785
0.232476
0.232172
0.231864
0.23156
0.231254
0.230951
0.230646
0.230344
0.230039
0.229739
0.229435
0.229135
0.228833
0.228534
0.228233
0.227935
0.227635
0.227338
0.227038
0.226742
0.226444
0.226148
0.225851
0.225556
0.225259
0.224966
0.22467
0.224377
0.224081
0.223789
0.223494
0.223203
0.222908
0.222617
0.222323
0.222033
0.221739
0.221449
0.221157
0.220867
0.220575
0.220286
0.219995
0.219707
0.219416
0.219129
0.218839
0.218553
0.218264
0.217979
0.217691
0.217407
0.217121
0.216838
0.216553
0.216272
0.215989
0.215709
0.215428
0.21515
0.21487
0.214593
0.214315
0.21404
0.213764
0.213491
0.213216
0.212944
0.212671
0.2124
0.212128
0.211859
0.211588
0.21132
0.21105
0.210783
0.210514
0.210248
0.209979
0.209714
0.209446
0.209181
0.208914
0.208649
0.208382
0.208119
0.207852
0.207589
0.207323
0.20706
0.206795
0.206532
0.206267
0.206006
0.205741
0.20548
0.205216
0.204955
0.204692
0.204432
0.20417
0.20391
0.203649
0.20339
0.203129
0.20287
0.20261
0.202353
0.202093
0.201836
0.201577
0.201321
0.201063
0.200807
0.20055
0.200295
0.200038
0.199784
0.199528
0.199274
0.199019
0.198766
0.198511
0.198259
0.198005
0.197753
0.1975
0.197249
0.196996
0.196746
0.196493
0.196243
0.195992
0.195743
0.195491
0.195243
0.194992
0.194744
0.194494
0.194247
0.193997
0.193751
0.193502
0.193255
0.193007
0.192761
0.192513
0.192268
0.192021
0.191776
0.19153
0.191286
0.191039
0.190796
0.19055
0.190307
0.190062
0.18982
0.189575
0.189333
0.189089
0.188848
0.188604
0.188363
0.18812
0.18788
0.187638
0.187398
0.187156
0.186916
0.186675
0.186436
0.186195
0.185957
0.185716
0.185479
0.185239
0.185001
0.184762
0.184525
0.184286
0.184049
0.183811
0.183575
0.183337
0.183101
0.182863
0.182628
0.18239
0.182155
0.181918
0.181684
0.181447
0.181212
0.180976
0.180742
0.180505
0.180271
0.180035
0.179802
0.179566
0.179333
0.179097
0.178864
0.178629
0.178397
0.178162
0.17793
0.177696
0.177464
0.17723
0.176999
0.176766
0.176535
0.176302
0.176073
0.17584
0.175611
0.17538
0.175152
0.174921
0.174694
0.174464
0.174238
0.174008
0.173784
0.173555
0.173331
0.173103
0.17288
0.172652
0.172431
0.172204
0.171983
0.171757
0.171537
0.171311
0.171092
0.170867
0.170649
0.170424
0.170206
0.169982
0.169765
0.16954
0.169324
0.1691
0.168884
0.168659
0.168444
0.168219
0.168006
0.16778
0.167567
0.167341
0.167129
0.166903
0.166692
0.166465
0.166254
0.166028
0.165817
0.165591
0.16538
0.165155
0.164944
0.164719
0.164509
0.164284
0.164074
0.163849
0.16364
0.163415
0.163206
0.162981
0.162773
0.162548
0.16234
0.162115
0.16191
0.161682
0.16148
0.161249
0.161051
0.160816
0.160625
0.160382
0.160199
0.159948
0.159774
0.159515
0.15935
0.159082
0.158927
0.15865
0.158505
0.158218
0.158083
0.157787
0.157661
0.157356
0.157239
0.156927
0.156817
0.156499
0.156395
0.156072
0.155972
0.155646
0.15555
0.15522
0.155128
0.154796
0.154705
0.154372
0.154283
0.153949
0.153861
0.153528
0.153439
0.153106
0.153017
0.152685
0.152595
0.152265
0.152174
0.151845
0.151754
0.151425
0.151334
0.151005
0.150914
0.150586
0.150494
0.150168
0.150075
0.149749
0.149657
0.149331
0.149238
0.148913
0.14882
0.148496
0.148401
0.14808
0.147984
0.147664
0.147566
0.147247
0.147149
0.146831
0.146732
0.146415
0.146316
0.146
0.145899
0.145584
0.145483
0.145168
0.145068
0.144753
0.144652
0.144337
0.144236
0.143922
0.14382
0.143508
0.143404
0.143093
0.142987
0.142678
0.142572
0.142263
0.142156
0.141848
0.141741
0.141433
0.141325
0.141019
0.14091
0.140604
0.140495
0.140189
0.14008
0.139775
0.139666
0.13936
0.139252
0.138947
0.138837
0.138535
0.138423
0.138122
0.13801
0.13771
0.137598
0.137298
0.137186
0.136887
0.136775
0.136477
0.136364
0.136067
0.135954
0.135658
0.135545
0.135248
0.135137
0.13484
0.134729
0.134433
0.134321
0.134026
0.133913
0.133619
0.133506
0.133212
0.133098
0.132806
0.132691
0.1324
0.132284
0.131993
0.131877
0.131587
0.131472
0.0633322
)
;

boundaryField
{
    inlet
    {
        type            calculated;
        value           uniform 0.0976562;
    }
    outlet
    {
        type            calculated;
        value           uniform 0.0633322;
    }
    emptyWalls
    {
        type            empty;
    }
}


// ************************************************************************* //
