/*--------------------------------*- C++ -*----------------------------------*\
  =========                 |
  \\      /  F ield         | OpenFOAM: The Open Source CFD Toolbox
   \\    /   O peration     | Website:  https://openfoam.org
    \\  /    A nd           | Version:  9
     \\/     M anipulation  |
\*---------------------------------------------------------------------------*/
FoamFile
{
    format      ascii;
    class       volScalarField;
    location    "29750";
    object      krc;
}
// * * * * * * * * * * * * * * * * * * * * * * * * * * * * * * * * * * * * * //

dimensions      [0 0 0 0 0 0 0];

internalField   nonuniform List<scalar> 
1000
(
4.97067e-08
4.48567e-07
1.57444e-06
3.40743e-06
5.94025e-06
9.1731e-06
1.31152e-05
1.77766e-05
2.3171e-05
2.93121e-05
3.62155e-05
4.38945e-05
5.23616e-05
6.16254e-05
7.1692e-05
8.25596e-05
9.42205e-05
0.000106655
0.000119832
0.000133703
0.0001482
0.000163232
0.000178685
0.000194415
0.000210256
0.000226023
0.000241517
0.000256542
0.000270915
0.000284485
0.000297131
0.000308789
0.000319422
0.000329056
0.000337731
0.000345556
0.000352766
0.000360235
0.000371762
0.000404702
0.000535353
0.00128811
0.0109818
0.0355089
0.0426673
0.0450994
0.0463183
0.0471011
0.0476855
0.0481638
0.0485774
0.048948
0.0492872
0.0496029
0.0498992
0.0501799
0.050447
0.0507026
0.0509477
0.0511837
0.0514111
0.0516312
0.0518438
0.0520503
0.0522506
0.0524455
0.052635
0.05282
0.0530004
0.053177
0.0533495
0.0535189
0.0536848
0.053848
0.0540083
0.0541664
0.0543222
0.0544761
0.054628
0.0547784
0.0549272
0.0550749
0.0552215
0.0553675
0.0555128
0.0556581
0.0558033
0.0559502
0.0560976
0.0562453
0.0563934
0.0565421
0.0566914
0.0568415
0.0569925
0.0571445
0.0572978
0.0574525
0.0576089
0.0577672
0.0579278
0.0580909
0.0582571
0.0584268
0.0586006
0.0587793
0.0589637
0.0591552
0.0593552
0.0595659
0.05979
0.0600309
0.0602926
0.0605797
0.0608966
0.0612469
0.0616317
0.0620492
0.0624945
0.0629614
0.0634442
0.0639388
0.0644422
0.0649522
0.0654672
0.0659859
0.0665075
0.0670313
0.0675567
0.0680832
0.0686106
0.0691385
0.0696668
0.0701952
0.0707236
0.0712519
0.07178
0.0723077
0.0728351
0.073362
0.0738884
0.0744142
0.0749395
0.0754641
0.075988
0.0765113
0.0770338
0.0775556
0.0780767
0.078597
0.0791165
0.0796352
0.0801531
0.0806702
0.0811865
0.0817019
0.0822165
0.0827303
0.0832432
0.0837553
0.0842666
0.0847769
0.0852865
0.0857951
0.086303
0.0868099
0.087316
0.0878212
0.0883256
0.0888291
0.0893317
0.0898335
0.0903344
0.0908344
0.0913336
0.0918319
0.0923294
0.092826
0.0933218
0.0938167
0.0943108
0.094804
0.0952964
0.0957879
0.0962786
0.0967683
0.0972572
0.0977452
0.0982324
0.0987186
0.0992041
0.0996886
0.100172
0.100655
0.101137
0.101618
0.102099
0.102578
0.103057
0.103535
0.104012
0.104488
0.104964
0.105439
0.105913
0.106387
0.10686
0.107332
0.107803
0.108274
0.108743
0.109213
0.109681
0.110149
0.110616
0.111082
0.111547
0.112012
0.112475
0.112938
0.113401
0.113862
0.114323
0.114783
0.115242
0.1157
0.116158
0.116615
0.117071
0.117527
0.117981
0.118435
0.118889
0.119341
0.119793
0.120245
0.120695
0.121145
0.121594
0.122042
0.12249
0.122937
0.123384
0.123829
0.124274
0.124719
0.125163
0.125606
0.126048
0.12649
0.126931
0.127371
0.127811
0.12825
0.128688
0.129126
0.129563
0.13
0.130436
0.130871
0.131305
0.131739
0.132173
0.132605
0.133037
0.133469
0.133899
0.13433
0.134759
0.135188
0.135617
0.136044
0.136471
0.136898
0.137324
0.137749
0.138174
0.138598
0.139022
0.139444
0.139867
0.140289
0.14071
0.14113
0.14155
0.14197
0.142389
0.142807
0.143225
0.143642
0.144059
0.144475
0.14489
0.145305
0.14572
0.146133
0.146547
0.146959
0.147372
0.147783
0.148195
0.148605
0.149015
0.149425
0.149834
0.150242
0.15065
0.151058
0.151465
0.151871
0.152277
0.152682
0.153087
0.153491
0.153895
0.154298
0.1547
0.155102
0.155504
0.155905
0.156305
0.156705
0.157104
0.157503
0.157901
0.158299
0.158697
0.159093
0.15949
0.159886
0.160282
0.160677
0.161071
0.161466
0.16186
0.162253
0.162647
0.163039
0.163432
0.163824
0.164216
0.164607
0.164998
0.165388
0.165778
0.166168
0.166557
0.166946
0.167335
0.167722
0.16811
0.168497
0.168884
0.16927
0.169655
0.17004
0.170425
0.170809
0.171193
0.171577
0.17196
0.172342
0.172724
0.173106
0.173487
0.173868
0.174249
0.174628
0.175008
0.175387
0.175766
0.176144
0.176523
0.1769
0.177277
0.177654
0.178031
0.178407
0.178783
0.179158
0.179533
0.179907
0.180282
0.180655
0.181029
0.181402
0.181775
0.182147
0.182519
0.18289
0.183262
0.183632
0.184003
0.184373
0.184743
0.185112
0.185481
0.18585
0.186218
0.186586
0.186954
0.187321
0.187688
0.188055
0.188421
0.188787
0.189152
0.189517
0.189882
0.190247
0.190611
0.190975
0.191338
0.191701
0.192064
0.192427
0.192789
0.193151
0.193512
0.193873
0.194234
0.194595
0.194955
0.195315
0.195674
0.196033
0.196392
0.196751
0.197109
0.197467
0.197825
0.198182
0.198539
0.198896
0.199252
0.199608
0.199964
0.200319
0.200675
0.20103
0.201384
0.201738
0.202093
0.202446
0.2028
0.203153
0.203506
0.203858
0.20421
0.204562
0.204914
0.205265
0.205616
0.205966
0.206317
0.206667
0.207017
0.207366
0.207715
0.208064
0.208412
0.20876
0.209108
0.209455
0.209803
0.210149
0.210496
0.210842
0.211189
0.211534
0.21188
0.212225
0.212571
0.212916
0.213261
0.213605
0.21395
0.214294
0.214638
0.214982
0.215326
0.215669
0.216013
0.216356
0.216699
0.217042
0.217385
0.217727
0.21807
0.218412
0.218754
0.219096
0.219438
0.219779
0.22012
0.220461
0.220802
0.221142
0.221482
0.221822
0.222162
0.222501
0.22284
0.223179
0.223518
0.223856
0.224194
0.224532
0.22487
0.225207
0.225545
0.225881
0.226218
0.226554
0.226891
0.227227
0.227563
0.227898
0.228234
0.228569
0.228904
0.229239
0.229574
0.229908
0.230243
0.230576
0.230911
0.231244
0.231578
0.231911
0.232244
0.232577
0.23291
0.233242
0.233575
0.233907
0.234239
0.234571
0.234903
0.235234
0.235565
0.235896
0.236227
0.236558
0.236888
0.237218
0.237549
0.237879
0.238209
0.238538
0.238868
0.239197
0.239526
0.239855
0.240184
0.240512
0.240841
0.241169
0.241497
0.241825
0.242153
0.24248
0.242808
0.243134
0.243462
0.243788
0.244115
0.244442
0.244768
0.245094
0.245421
0.245746
0.246072
0.246398
0.246723
0.247048
0.247374
0.247699
0.248024
0.248348
0.248673
0.248997
0.249322
0.249645
0.24997
0.250293
0.250617
0.25094
0.251264
0.251587
0.25191
0.252233
0.252556
0.252878
0.253201
0.253523
0.253846
0.254168
0.25449
0.254811
0.255133
0.255454
0.255776
0.256097
0.256418
0.256739
0.25706
0.25738
0.2577
0.25802
0.258341
0.25866
0.25898
0.259299
0.259619
0.259938
0.260257
0.260576
0.260895
0.261213
0.261532
0.26185
0.262169
0.262487
0.262806
0.263123
0.263442
0.26376
0.264078
0.264396
0.264714
0.265032
0.26535
0.265667
0.265986
0.266303
0.266622
0.266939
0.267258
0.267575
0.267893
0.268211
0.268529
0.268846
0.269165
0.269482
0.2698
0.270117
0.270435
0.270752
0.27107
0.271387
0.271705
0.272021
0.272339
0.272655
0.272973
0.273289
0.273606
0.273922
0.274239
0.274555
0.274871
0.275187
0.275504
0.275819
0.276135
0.276451
0.276767
0.277082
0.277398
0.277713
0.278029
0.278343
0.278659
0.278974
0.27929
0.279604
0.27992
0.280234
0.280549
0.280864
0.281179
0.281493
0.281808
0.282122
0.282438
0.282751
0.283067
0.28338
0.283695
0.284009
0.284324
0.284638
0.284952
0.285266
0.285581
0.285894
0.286209
0.286522
0.286837
0.28715
0.287465
0.287778
0.288092
0.288405
0.28872
0.289033
0.289347
0.28966
0.289974
0.290287
0.290601
0.290914
0.291228
0.291541
0.291855
0.292168
0.292482
0.292794
0.293108
0.293421
0.293735
0.294047
0.294361
0.294673
0.294987
0.2953
0.295614
0.295926
0.29624
0.296552
0.296866
0.297178
0.297492
0.297804
0.298118
0.29843
0.298744
0.299056
0.299369
0.299682
0.299995
0.300307
0.300621
0.300933
0.301247
0.301559
0.301873
0.302185
0.302498
0.30281
0.303124
0.303436
0.30375
0.304062
0.304376
0.304688
0.305001
0.305313
0.305627
0.305939
0.306253
0.306565
0.306878
0.30719
0.307504
0.307816
0.308129
0.308441
0.308754
0.309066
0.30938
0.309691
0.310005
0.310317
0.31063
0.310942
0.311255
0.311567
0.31188
0.312192
0.312506
0.312818
0.313131
0.313443
0.313757
0.314069
0.314383
0.314695
0.315009
0.315322
0.315636
0.315949
0.316264
0.316577
0.316892
0.317205
0.31752
0.317833
0.318149
0.318463
0.318779
0.319093
0.319409
0.319723
0.32004
0.320355
0.320671
0.320986
0.321303
0.321619
0.321935
0.322251
0.322568
0.322884
0.323201
0.323518
0.323835
0.324152
0.324468
0.324786
0.325102
0.325421
0.325736
0.326056
0.32637
0.326692
0.327004
0.327327
0.327639
0.327963
0.328275
0.328599
0.328911
0.329234
0.329547
0.32987
0.330184
0.330507
0.33082
0.331144
0.331457
0.331782
0.332095
0.33242
0.332733
0.333058
0.333372
0.333697
0.33401
0.334338
0.334648
0.33498
0.335286
0.335623
0.335923
0.336268
0.336559
0.336915
0.337194
0.337563
0.33783
0.338212
0.338466
0.338862
0.339102
0.339513
0.339738
0.340165
0.340375
0.340816
0.341014
0.341468
0.341653
0.342119
0.342294
0.342771
0.342937
0.343422
0.343581
0.344073
0.344226
0.344723
0.344873
0.345374
0.34552
0.346025
0.346169
0.346677
0.34682
0.347328
0.347472
0.347979
0.348124
0.348631
0.348777
0.349284
0.349431
0.349938
0.350086
0.350593
0.350741
0.351248
0.351398
0.351904
0.352055
0.352561
0.352713
0.353219
0.353371
0.353878
0.354031
0.354537
0.354691
0.355196
0.355353
0.355857
0.356016
0.356518
0.35668
0.357181
0.357344
0.357845
0.358008
0.35851
0.358675
0.359175
0.359342
0.359841
0.360009
0.360509
0.360677
0.361178
0.361346
0.361847
0.362016
0.362517
0.362688
0.363188
0.363361
0.363859
0.364035
0.364532
0.364709
0.365206
0.365384
0.365881
0.36606
0.366556
0.366738
0.367233
0.367416
0.367912
0.368095
0.368592
0.368775
0.369273
0.369457
0.369956
0.37014
0.370639
0.370826
0.371323
0.371513
0.372009
0.372201
0.372698
0.372891
0.373387
0.373582
0.374079
0.374276
0.374772
0.374971
0.375467
0.375668
0.376165
0.376366
0.376865
0.377066
0.377567
0.377768
0.37827
0.378474
0.378974
0.379181
0.37968
0.379889
0.380389
0.3806
0.3811
0.381312
0.381812
0.382026
0.382526
0.382742
0.383242
0.383466
0.188763
)
;

boundaryField
{
    inlet
    {
        type            calculated;
        value           uniform 3.08149e-33;
    }
    outlet
    {
        type            calculated;
        value           uniform 0.188763;
    }
    emptyWalls
    {
        type            empty;
    }
}


// ************************************************************************* //
