/*--------------------------------*- C++ -*----------------------------------*\
  =========                 |
  \\      /  F ield         | OpenFOAM: The Open Source CFD Toolbox
   \\    /   O peration     | Website:  https://openfoam.org
    \\  /    A nd           | Version:  9
     \\/     M anipulation  |
\*---------------------------------------------------------------------------*/
FoamFile
{
    format      ascii;
    class       surfaceScalarField;
    location    "29750";
    object      phic;
}
// * * * * * * * * * * * * * * * * * * * * * * * * * * * * * * * * * * * * * //

dimensions      [0 2 0 0 0 0 0];

internalField   nonuniform List<scalar> 
999
(
5.76714e-16
2.33955e-15
5.74016e-15
1.07303e-14
1.7284e-14
2.53942e-14
3.50631e-14
4.63008e-14
5.91157e-14
7.35246e-14
8.95342e-14
1.07157e-13
1.26391e-13
1.4723e-13
1.69663e-13
1.93646e-13
2.19149e-13
2.46075e-13
2.7434e-13
3.03794e-13
3.34261e-13
3.65519e-13
3.97295e-13
4.29273e-13
4.61104e-13
4.92402e-13
5.22801e-13
5.51923e-13
5.79491e-13
6.05218e-13
6.29003e-13
6.50723e-13
6.70412e-13
6.88161e-13
7.04087e-13
7.18595e-13
7.32701e-13
7.50934e-13
7.93419e-13
9.47735e-13
1.52598e-12
4.32593e-12
1.67535e-11
2.02053e-11
2.11609e-11
2.15711e-11
2.18117e-11
2.19833e-11
2.2121e-11
2.22396e-11
2.23464e-11
2.24452e-11
2.25381e-11
2.26266e-11
2.27116e-11
2.27937e-11
2.28733e-11
2.29507e-11
2.30261e-11
2.30999e-11
2.31724e-11
2.32436e-11
2.33138e-11
2.3383e-11
2.3451e-11
2.35179e-11
2.35836e-11
2.36483e-11
2.37124e-11
2.37763e-11
2.38401e-11
2.39035e-11
2.39666e-11
2.40298e-11
2.40924e-11
2.41546e-11
2.42165e-11
2.42769e-11
2.43338e-11
2.43905e-11
2.44468e-11
2.4503e-11
2.45597e-11
2.46175e-11
2.46766e-11
2.47374e-11
2.48002e-11
2.4865e-11
2.49311e-11
2.49981e-11
2.50664e-11
2.51387e-11
2.52137e-11
2.52908e-11
2.53695e-11
2.54495e-11
2.55307e-11
2.5613e-11
2.56962e-11
2.57806e-11
2.58662e-11
2.59534e-11
2.60425e-11
2.61338e-11
2.62278e-11
2.63251e-11
2.64265e-11
2.65328e-11
2.66452e-11
2.67653e-11
2.68948e-11
2.70362e-11
2.7192e-11
2.73651e-11
2.7558e-11
2.77723e-11
2.80078e-11
2.82627e-11
2.85334e-11
2.88162e-11
2.91083e-11
2.94076e-11
2.97126e-11
3.00222e-11
3.03355e-11
3.0652e-11
3.09712e-11
3.12926e-11
3.16161e-11
3.19413e-11
3.22681e-11
3.25963e-11
3.29259e-11
3.32567e-11
3.35885e-11
3.39215e-11
3.42554e-11
3.45902e-11
3.49259e-11
3.52624e-11
3.55998e-11
3.59379e-11
3.62768e-11
3.66163e-11
3.69566e-11
3.72976e-11
3.76393e-11
3.79815e-11
3.83244e-11
3.86679e-11
3.90119e-11
3.93565e-11
3.97017e-11
4.00473e-11
4.03935e-11
4.07403e-11
4.10875e-11
4.14353e-11
4.17836e-11
4.21325e-11
4.24818e-11
4.28317e-11
4.31821e-11
4.3533e-11
4.38843e-11
4.42361e-11
4.45883e-11
4.49408e-11
4.52938e-11
4.56471e-11
4.60009e-11
4.63551e-11
4.67098e-11
4.70649e-11
4.74206e-11
4.77767e-11
4.81334e-11
4.84906e-11
4.88484e-11
4.92066e-11
4.95652e-11
4.99241e-11
5.02832e-11
5.06423e-11
5.10012e-11
5.13598e-11
5.17181e-11
5.20761e-11
5.24336e-11
5.27907e-11
5.31475e-11
5.35041e-11
5.38605e-11
5.42169e-11
5.45734e-11
5.49302e-11
5.52874e-11
5.56451e-11
5.60036e-11
5.6363e-11
5.67235e-11
5.70854e-11
5.74488e-11
5.78137e-11
5.81804e-11
5.85489e-11
5.89191e-11
5.9291e-11
5.96644e-11
6.00392e-11
6.04153e-11
6.07923e-11
6.117e-11
6.15482e-11
6.19267e-11
6.23053e-11
6.26838e-11
6.30622e-11
6.34403e-11
6.38181e-11
6.41956e-11
6.45728e-11
6.49496e-11
6.53263e-11
6.57028e-11
6.60791e-11
6.64555e-11
6.68319e-11
6.72084e-11
6.75852e-11
6.79622e-11
6.83394e-11
6.87171e-11
6.9095e-11
6.94734e-11
6.98522e-11
7.02314e-11
7.0611e-11
7.0991e-11
7.13714e-11
7.17522e-11
7.21334e-11
7.25149e-11
7.28969e-11
7.32791e-11
7.36617e-11
7.40446e-11
7.44279e-11
7.48114e-11
7.51953e-11
7.55794e-11
7.59638e-11
7.63485e-11
7.67334e-11
7.71186e-11
7.75041e-11
7.78898e-11
7.82757e-11
7.86619e-11
7.90484e-11
7.94351e-11
7.9822e-11
8.02092e-11
8.05966e-11
8.09843e-11
8.13722e-11
8.17603e-11
8.21487e-11
8.25373e-11
8.29261e-11
8.33151e-11
8.37043e-11
8.40937e-11
8.44834e-11
8.48732e-11
8.52633e-11
8.56535e-11
8.6044e-11
8.64347e-11
8.68255e-11
8.72166e-11
8.7608e-11
8.79995e-11
8.83913e-11
8.87832e-11
8.91754e-11
8.95678e-11
8.99604e-11
9.03532e-11
9.07462e-11
9.11394e-11
9.15327e-11
9.19263e-11
9.232e-11
9.27139e-11
9.31081e-11
9.35024e-11
9.3897e-11
9.42919e-11
9.46871e-11
9.50825e-11
9.54783e-11
9.58743e-11
9.62706e-11
9.6667e-11
9.70637e-11
9.74604e-11
9.78572e-11
9.82539e-11
9.86504e-11
9.90468e-11
9.94427e-11
9.98383e-11
1.00233e-10
1.00628e-10
1.01022e-10
1.01416e-10
1.01809e-10
1.02201e-10
1.02593e-10
1.02985e-10
1.03376e-10
1.03767e-10
1.04158e-10
1.04549e-10
1.04941e-10
1.05332e-10
1.05725e-10
1.06118e-10
1.06512e-10
1.06907e-10
1.07303e-10
1.07701e-10
1.08101e-10
1.08502e-10
1.08905e-10
1.09309e-10
1.09716e-10
1.10124e-10
1.10533e-10
1.10945e-10
1.11357e-10
1.11771e-10
1.12185e-10
1.12601e-10
1.13017e-10
1.13433e-10
1.1385e-10
1.14266e-10
1.14683e-10
1.15099e-10
1.15516e-10
1.15931e-10
1.16347e-10
1.16762e-10
1.17177e-10
1.17591e-10
1.18005e-10
1.18419e-10
1.18832e-10
1.19245e-10
1.19659e-10
1.20072e-10
1.20485e-10
1.20898e-10
1.21311e-10
1.21725e-10
1.22138e-10
1.22552e-10
1.22966e-10
1.2338e-10
1.23795e-10
1.2421e-10
1.24625e-10
1.25041e-10
1.25456e-10
1.25873e-10
1.26289e-10
1.26706e-10
1.27123e-10
1.2754e-10
1.27958e-10
1.28376e-10
1.28794e-10
1.29213e-10
1.29631e-10
1.3005e-10
1.30469e-10
1.30889e-10
1.31308e-10
1.31728e-10
1.32148e-10
1.32568e-10
1.32988e-10
1.33409e-10
1.3383e-10
1.34251e-10
1.34672e-10
1.35093e-10
1.35515e-10
1.35936e-10
1.36358e-10
1.3678e-10
1.37202e-10
1.37625e-10
1.38047e-10
1.3847e-10
1.38893e-10
1.39316e-10
1.39739e-10
1.40162e-10
1.40585e-10
1.41009e-10
1.41433e-10
1.41857e-10
1.42281e-10
1.42705e-10
1.43129e-10
1.43554e-10
1.43979e-10
1.44404e-10
1.44829e-10
1.45254e-10
1.45679e-10
1.46105e-10
1.46531e-10
1.46956e-10
1.47382e-10
1.47809e-10
1.48235e-10
1.48662e-10
1.49088e-10
1.49515e-10
1.49942e-10
1.5037e-10
1.50797e-10
1.51225e-10
1.51653e-10
1.52081e-10
1.52509e-10
1.52938e-10
1.53367e-10
1.53796e-10
1.54224e-10
1.54654e-10
1.55083e-10
1.55512e-10
1.5594e-10
1.56369e-10
1.56798e-10
1.57226e-10
1.57654e-10
1.58081e-10
1.58508e-10
1.58935e-10
1.59361e-10
1.59786e-10
1.60211e-10
1.60635e-10
1.61059e-10
1.61483e-10
1.61906e-10
1.62329e-10
1.62751e-10
1.63174e-10
1.63597e-10
1.64019e-10
1.64442e-10
1.64866e-10
1.6529e-10
1.65715e-10
1.66141e-10
1.66568e-10
1.66996e-10
1.67425e-10
1.67856e-10
1.68288e-10
1.68723e-10
1.69158e-10
1.69596e-10
1.70035e-10
1.70476e-10
1.70919e-10
1.71364e-10
1.71809e-10
1.72257e-10
1.72705e-10
1.73155e-10
1.73605e-10
1.74057e-10
1.74509e-10
1.74962e-10
1.75415e-10
1.75868e-10
1.76321e-10
1.76774e-10
1.77227e-10
1.7768e-10
1.78133e-10
1.78585e-10
1.79037e-10
1.79489e-10
1.79941e-10
1.80392e-10
1.80843e-10
1.81294e-10
1.81744e-10
1.82194e-10
1.82645e-10
1.83095e-10
1.83545e-10
1.83995e-10
1.84445e-10
1.84896e-10
1.85346e-10
1.85797e-10
1.86248e-10
1.86699e-10
1.87151e-10
1.87602e-10
1.88054e-10
1.88507e-10
1.88959e-10
1.89412e-10
1.89865e-10
1.90319e-10
1.90773e-10
1.91227e-10
1.91681e-10
1.92136e-10
1.92591e-10
1.93047e-10
1.93502e-10
1.93958e-10
1.94415e-10
1.94871e-10
1.95328e-10
1.95785e-10
1.96242e-10
1.96699e-10
1.97157e-10
1.97615e-10
1.98073e-10
1.98532e-10
1.9899e-10
1.99449e-10
1.99908e-10
2.00367e-10
2.00827e-10
2.01286e-10
2.01746e-10
2.02206e-10
2.02666e-10
2.03126e-10
2.03587e-10
2.04048e-10
2.04509e-10
2.0497e-10
2.05431e-10
2.05892e-10
2.06354e-10
2.06816e-10
2.07278e-10
2.0774e-10
2.08202e-10
2.08665e-10
2.09128e-10
2.09591e-10
2.10054e-10
2.10517e-10
2.10981e-10
2.11444e-10
2.11908e-10
2.12372e-10
2.12837e-10
2.13301e-10
2.13766e-10
2.14231e-10
2.14696e-10
2.15161e-10
2.15627e-10
2.16092e-10
2.16558e-10
2.17025e-10
2.17491e-10
2.17958e-10
2.18425e-10
2.18892e-10
2.19359e-10
2.19827e-10
2.20294e-10
2.20762e-10
2.2123e-10
2.21698e-10
2.22166e-10
2.22634e-10
2.23102e-10
2.2357e-10
2.24038e-10
2.24506e-10
2.24974e-10
2.25441e-10
2.25908e-10
2.26374e-10
2.26841e-10
2.27306e-10
2.27772e-10
2.28237e-10
2.28702e-10
2.29166e-10
2.29629e-10
2.30093e-10
2.30556e-10
2.31019e-10
2.31481e-10
2.31944e-10
2.32406e-10
2.32869e-10
2.33332e-10
2.33795e-10
2.34258e-10
2.34722e-10
2.35187e-10
2.35652e-10
2.36118e-10
2.36586e-10
2.37054e-10
2.37524e-10
2.37995e-10
2.38468e-10
2.38942e-10
2.39418e-10
2.39896e-10
2.40376e-10
2.40857e-10
2.4134e-10
2.41825e-10
2.42312e-10
2.428e-10
2.4329e-10
2.43781e-10
2.44274e-10
2.44769e-10
2.45264e-10
2.4576e-10
2.46258e-10
2.46756e-10
2.47255e-10
2.47754e-10
2.48254e-10
2.48754e-10
2.49255e-10
2.49755e-10
2.50256e-10
2.50756e-10
2.51257e-10
2.51757e-10
2.52257e-10
2.52757e-10
2.53257e-10
2.53757e-10
2.54257e-10
2.54756e-10
2.55255e-10
2.55755e-10
2.56254e-10
2.56753e-10
2.57253e-10
2.57752e-10
2.58251e-10
2.58751e-10
2.59251e-10
2.59751e-10
2.60251e-10
2.60751e-10
2.61252e-10
2.61753e-10
2.62255e-10
2.62756e-10
2.63258e-10
2.63761e-10
2.64264e-10
2.64767e-10
2.65271e-10
2.65775e-10
2.66279e-10
2.66784e-10
2.67289e-10
2.67795e-10
2.68301e-10
2.68807e-10
2.69314e-10
2.69821e-10
2.70329e-10
2.70836e-10
2.71345e-10
2.71853e-10
2.72362e-10
2.72871e-10
2.73381e-10
2.73891e-10
2.74401e-10
2.74912e-10
2.75422e-10
2.75934e-10
2.76445e-10
2.76957e-10
2.77469e-10
2.77981e-10
2.78494e-10
2.79007e-10
2.7952e-10
2.80034e-10
2.80547e-10
2.81061e-10
2.81576e-10
2.8209e-10
2.82605e-10
2.83121e-10
2.83636e-10
2.84152e-10
2.84668e-10
2.85184e-10
2.85701e-10
2.86218e-10
2.86735e-10
2.87253e-10
2.87771e-10
2.88289e-10
2.88807e-10
2.89326e-10
2.89845e-10
2.90364e-10
2.90884e-10
2.91404e-10
2.91924e-10
2.92445e-10
2.92966e-10
2.93487e-10
2.94008e-10
2.9453e-10
2.95053e-10
2.95575e-10
2.96098e-10
2.96621e-10
2.97145e-10
2.97669e-10
2.98193e-10
2.98717e-10
2.99242e-10
2.99767e-10
3.00292e-10
3.00818e-10
3.01344e-10
3.01869e-10
3.02395e-10
3.02922e-10
3.03448e-10
3.03974e-10
3.045e-10
3.05026e-10
3.05552e-10
3.06078e-10
3.06604e-10
3.0713e-10
3.07655e-10
3.08181e-10
3.08706e-10
3.09231e-10
3.09755e-10
3.1028e-10
3.10804e-10
3.11328e-10
3.11852e-10
3.12375e-10
3.12899e-10
3.13422e-10
3.13946e-10
3.1447e-10
3.14994e-10
3.15518e-10
3.16043e-10
3.16568e-10
3.17093e-10
3.17619e-10
3.18146e-10
3.18674e-10
3.19202e-10
3.19733e-10
3.20264e-10
3.20797e-10
3.21331e-10
3.21867e-10
3.22404e-10
3.22943e-10
3.23484e-10
3.24027e-10
3.24572e-10
3.25118e-10
3.25667e-10
3.26217e-10
3.2677e-10
3.27324e-10
3.27881e-10
3.28439e-10
3.28999e-10
3.29561e-10
3.30124e-10
3.30689e-10
3.31255e-10
3.31823e-10
3.32392e-10
3.32962e-10
3.33533e-10
3.34105e-10
3.34678e-10
3.35251e-10
3.35825e-10
3.364e-10
3.36974e-10
3.3755e-10
3.38125e-10
3.38701e-10
3.39277e-10
3.39854e-10
3.40429e-10
3.41006e-10
3.41582e-10
3.42159e-10
3.42736e-10
3.43313e-10
3.4389e-10
3.44467e-10
3.45045e-10
3.45622e-10
3.46201e-10
3.46779e-10
3.47357e-10
3.47936e-10
3.48515e-10
3.49095e-10
3.49675e-10
3.50255e-10
3.50836e-10
3.51418e-10
3.52e-10
3.52582e-10
3.53165e-10
3.5375e-10
3.54333e-10
3.54919e-10
3.55503e-10
3.56091e-10
3.56675e-10
3.57265e-10
3.5785e-10
3.58443e-10
3.59027e-10
3.59622e-10
3.60207e-10
3.60804e-10
3.6139e-10
3.61989e-10
3.62575e-10
3.63175e-10
3.63763e-10
3.64365e-10
3.64953e-10
3.65556e-10
3.66146e-10
3.6675e-10
3.67342e-10
3.67946e-10
3.68539e-10
3.69144e-10
3.6974e-10
3.70345e-10
3.70942e-10
3.71548e-10
3.72147e-10
3.72753e-10
3.73354e-10
3.73961e-10
3.74564e-10
3.75171e-10
3.75775e-10
3.76383e-10
3.76989e-10
3.77598e-10
3.78206e-10
3.78815e-10
3.79425e-10
3.80035e-10
3.80646e-10
3.81257e-10
3.81869e-10
3.82481e-10
3.83095e-10
3.83709e-10
3.84323e-10
3.84938e-10
3.85555e-10
3.86171e-10
3.86788e-10
3.87405e-10
3.88024e-10
3.88643e-10
3.89263e-10
3.89883e-10
3.90504e-10
3.91126e-10
3.91749e-10
3.92371e-10
3.92996e-10
3.9362e-10
3.94246e-10
3.94871e-10
3.95498e-10
3.96124e-10
3.96753e-10
3.9738e-10
3.9801e-10
3.98639e-10
3.99269e-10
3.999e-10
4.00531e-10
4.01162e-10
4.01795e-10
4.02427e-10
4.0306e-10
4.03694e-10
4.04327e-10
4.04962e-10
4.05596e-10
4.06231e-10
4.06866e-10
4.07501e-10
4.08137e-10
4.08772e-10
4.09409e-10
4.10044e-10
4.10681e-10
4.11317e-10
4.11954e-10
4.12592e-10
4.13229e-10
4.13867e-10
4.14506e-10
4.15144e-10
4.15784e-10
4.16424e-10
4.17065e-10
4.17706e-10
4.18348e-10
4.18992e-10
4.19636e-10
4.20281e-10
4.20928e-10
4.21575e-10
4.22224e-10
4.22874e-10
4.23527e-10
4.24179e-10
4.24835e-10
4.25491e-10
4.2615e-10
4.26811e-10
4.27474e-10
4.28139e-10
4.28807e-10
4.29477e-10
4.30149e-10
4.30824e-10
4.31501e-10
4.32182e-10
4.32864e-10
4.3355e-10
4.34238e-10
4.3493e-10
4.35623e-10
4.36321e-10
4.3702e-10
4.3772e-10
4.38424e-10
4.39128e-10
4.39837e-10
4.40546e-10
4.41258e-10
4.41971e-10
4.42687e-10
4.43403e-10
4.44123e-10
4.44842e-10
4.45564e-10
4.46286e-10
4.47011e-10
4.47735e-10
4.48463e-10
4.49189e-10
)
;

boundaryField
{
    inlet
    {
        type            calculated;
        value           uniform 0;
    }
    outlet
    {
        type            calculated;
        value           uniform 5.02181e-10;
    }
    emptyWalls
    {
        type            empty;
        value           nonuniform List<scalar> 0();
    }
}


// ************************************************************************* //
