/*--------------------------------*- C++ -*----------------------------------*\
  =========                 |
  \\      /  F ield         | OpenFOAM: The Open Source CFD Toolbox
   \\    /   O peration     | Website:  https://openfoam.org
    \\  /    A nd           | Version:  9
     \\/     M anipulation  |
\*---------------------------------------------------------------------------*/
FoamFile
{
    format      ascii;
    class       volVectorField;
    location    "15550";
    object      Ua;
}
// * * * * * * * * * * * * * * * * * * * * * * * * * * * * * * * * * * * * * //

dimensions      [0 0 0 0 0 0 0];

internalField   nonuniform List<vector> 
1000
(
(2.74916e-06 0 0)
(2.74872e-06 0 0)
(2.74836e-06 0 0)
(2.74803e-06 0 0)
(2.74749e-06 0 0)
(2.74696e-06 0 0)
(2.74628e-06 0 0)
(2.74546e-06 0 0)
(2.74456e-06 0 0)
(2.74358e-06 0 0)
(2.74257e-06 0 0)
(2.74151e-06 0 0)
(2.74051e-06 0 0)
(2.73938e-06 0 0)
(2.73837e-06 0 0)
(2.73736e-06 0 0)
(2.73636e-06 0 0)
(2.7355e-06 0 0)
(2.73375e-06 0 0)
(2.72836e-06 0 0)
(2.70694e-06 0 0)
(2.58079e-06 0 0)
(2.34244e-06 0 0)
(2.19594e-06 0 0)
(2.17116e-06 0 0)
(2.15441e-06 0 0)
(2.13663e-06 0 0)
(2.11956e-06 0 0)
(2.10501e-06 0 0)
(2.09442e-06 0 0)
(2.08713e-06 0 0)
(2.08364e-06 0 0)
(2.08283e-06 0 0)
(2.08219e-06 0 0)
(2.08146e-06 0 0)
(2.08055e-06 0 0)
(2.0793e-06 0 0)
(2.07767e-06 0 0)
(2.07587e-06 0 0)
(2.07408e-06 0 0)
(2.07224e-06 0 0)
(2.07031e-06 0 0)
(2.06841e-06 0 0)
(2.06657e-06 0 0)
(2.06479e-06 0 0)
(2.06306e-06 0 0)
(2.06138e-06 0 0)
(2.05975e-06 0 0)
(2.05819e-06 0 0)
(2.0567e-06 0 0)
(2.05529e-06 0 0)
(2.05395e-06 0 0)
(2.05268e-06 0 0)
(2.05148e-06 0 0)
(2.05035e-06 0 0)
(2.04928e-06 0 0)
(2.04828e-06 0 0)
(2.04737e-06 0 0)
(2.04656e-06 0 0)
(2.04589e-06 0 0)
(2.04537e-06 0 0)
(2.04494e-06 0 0)
(2.04454e-06 0 0)
(2.04415e-06 0 0)
(2.04376e-06 0 0)
(2.04339e-06 0 0)
(2.04302e-06 0 0)
(2.04267e-06 0 0)
(2.04233e-06 0 0)
(2.04201e-06 0 0)
(2.0417e-06 0 0)
(2.0414e-06 0 0)
(2.04113e-06 0 0)
(2.04086e-06 0 0)
(2.04061e-06 0 0)
(2.04038e-06 0 0)
(2.04016e-06 0 0)
(2.03995e-06 0 0)
(2.03976e-06 0 0)
(2.03959e-06 0 0)
(2.03943e-06 0 0)
(2.03929e-06 0 0)
(2.03917e-06 0 0)
(2.03906e-06 0 0)
(2.03897e-06 0 0)
(2.0389e-06 0 0)
(2.03884e-06 0 0)
(2.03879e-06 0 0)
(2.03874e-06 0 0)
(2.03868e-06 0 0)
(2.03862e-06 0 0)
(2.03854e-06 0 0)
(2.03845e-06 0 0)
(2.03837e-06 0 0)
(2.03828e-06 0 0)
(2.03821e-06 0 0)
(2.03816e-06 0 0)
(2.03813e-06 0 0)
(2.03812e-06 0 0)
(2.03815e-06 0 0)
(2.03819e-06 0 0)
(2.03824e-06 0 0)
(2.03828e-06 0 0)
(2.0383e-06 0 0)
(2.03829e-06 0 0)
(2.03825e-06 0 0)
(2.03821e-06 0 0)
(2.03822e-06 0 0)
(2.03831e-06 0 0)
(2.03856e-06 0 0)
(2.03901e-06 0 0)
(2.03971e-06 0 0)
(2.04069e-06 0 0)
(2.04196e-06 0 0)
(2.04349e-06 0 0)
(2.04527e-06 0 0)
(2.04726e-06 0 0)
(2.04941e-06 0 0)
(2.05167e-06 0 0)
(2.054e-06 0 0)
(2.05632e-06 0 0)
(2.05859e-06 0 0)
(2.06071e-06 0 0)
(2.06263e-06 0 0)
(2.06425e-06 0 0)
(2.06551e-06 0 0)
(2.06633e-06 0 0)
(2.06666e-06 0 0)
(2.06645e-06 0 0)
(2.06571e-06 0 0)
(2.06443e-06 0 0)
(2.06266e-06 0 0)
(2.06045e-06 0 0)
(2.0579e-06 0 0)
(2.05509e-06 0 0)
(2.05213e-06 0 0)
(2.04912e-06 0 0)
(2.04616e-06 0 0)
(2.04333e-06 0 0)
(2.0407e-06 0 0)
(2.03832e-06 0 0)
(2.03622e-06 0 0)
(2.03442e-06 0 0)
(2.03292e-06 0 0)
(2.0317e-06 0 0)
(2.03074e-06 0 0)
(2.03001e-06 0 0)
(2.02948e-06 0 0)
(2.0291e-06 0 0)
(2.02884e-06 0 0)
(2.02867e-06 0 0)
(2.02856e-06 0 0)
(2.02847e-06 0 0)
(2.02839e-06 0 0)
(2.02829e-06 0 0)
(2.02817e-06 0 0)
(2.02801e-06 0 0)
(2.02781e-06 0 0)
(2.02757e-06 0 0)
(2.02728e-06 0 0)
(2.02695e-06 0 0)
(2.02658e-06 0 0)
(2.02618e-06 0 0)
(2.02574e-06 0 0)
(2.02527e-06 0 0)
(2.02478e-06 0 0)
(2.02427e-06 0 0)
(2.02375e-06 0 0)
(2.02322e-06 0 0)
(2.02268e-06 0 0)
(2.02213e-06 0 0)
(2.02158e-06 0 0)
(2.02103e-06 0 0)
(2.02048e-06 0 0)
(2.01993e-06 0 0)
(2.01939e-06 0 0)
(2.01886e-06 0 0)
(2.01833e-06 0 0)
(2.0178e-06 0 0)
(2.01728e-06 0 0)
(2.01677e-06 0 0)
(2.01627e-06 0 0)
(2.01578e-06 0 0)
(2.01529e-06 0 0)
(2.01482e-06 0 0)
(2.01435e-06 0 0)
(2.01389e-06 0 0)
(2.01344e-06 0 0)
(2.013e-06 0 0)
(2.01257e-06 0 0)
(2.01215e-06 0 0)
(2.01174e-06 0 0)
(2.01133e-06 0 0)
(2.01094e-06 0 0)
(2.01056e-06 0 0)
(2.01019e-06 0 0)
(2.00983e-06 0 0)
(2.00948e-06 0 0)
(2.00914e-06 0 0)
(2.0088e-06 0 0)
(2.00848e-06 0 0)
(2.00817e-06 0 0)
(2.00787e-06 0 0)
(2.00758e-06 0 0)
(2.0073e-06 0 0)
(2.00703e-06 0 0)
(2.00677e-06 0 0)
(2.00651e-06 0 0)
(2.00627e-06 0 0)
(2.00604e-06 0 0)
(2.00582e-06 0 0)
(2.00561e-06 0 0)
(2.00541e-06 0 0)
(2.00522e-06 0 0)
(2.00504e-06 0 0)
(2.00486e-06 0 0)
(2.00469e-06 0 0)
(2.00453e-06 0 0)
(2.00437e-06 0 0)
(2.00422e-06 0 0)
(2.00407e-06 0 0)
(2.00392e-06 0 0)
(2.00378e-06 0 0)
(2.00363e-06 0 0)
(2.00349e-06 0 0)
(2.00336e-06 0 0)
(2.00323e-06 0 0)
(2.0031e-06 0 0)
(2.00298e-06 0 0)
(2.00286e-06 0 0)
(2.00275e-06 0 0)
(2.00265e-06 0 0)
(2.00255e-06 0 0)
(2.00245e-06 0 0)
(2.00235e-06 0 0)
(2.00226e-06 0 0)
(2.00217e-06 0 0)
(2.00209e-06 0 0)
(2.00202e-06 0 0)
(2.00198e-06 0 0)
(2.00196e-06 0 0)
(2.00197e-06 0 0)
(2.00203e-06 0 0)
(2.00215e-06 0 0)
(2.00234e-06 0 0)
(2.00261e-06 0 0)
(2.00297e-06 0 0)
(2.00343e-06 0 0)
(2.004e-06 0 0)
(2.00467e-06 0 0)
(2.00546e-06 0 0)
(2.00636e-06 0 0)
(2.00736e-06 0 0)
(2.00846e-06 0 0)
(2.00966e-06 0 0)
(2.01093e-06 0 0)
(2.01225e-06 0 0)
(2.01362e-06 0 0)
(2.015e-06 0 0)
(2.01637e-06 0 0)
(2.01771e-06 0 0)
(2.01898e-06 0 0)
(2.02015e-06 0 0)
(2.02121e-06 0 0)
(2.02211e-06 0 0)
(2.02283e-06 0 0)
(2.02336e-06 0 0)
(2.02366e-06 0 0)
(2.02373e-06 0 0)
(2.02355e-06 0 0)
(2.02312e-06 0 0)
(2.02245e-06 0 0)
(2.02154e-06 0 0)
(2.02042e-06 0 0)
(2.01909e-06 0 0)
(2.0176e-06 0 0)
(2.01596e-06 0 0)
(2.01421e-06 0 0)
(2.01239e-06 0 0)
(2.01053e-06 0 0)
(2.00866e-06 0 0)
(2.00681e-06 0 0)
(2.00501e-06 0 0)
(2.00329e-06 0 0)
(2.00165e-06 0 0)
(2.00013e-06 0 0)
(1.99871e-06 0 0)
(1.99742e-06 0 0)
(1.99626e-06 0 0)
(1.99521e-06 0 0)
(1.99428e-06 0 0)
(1.99346e-06 0 0)
(1.99274e-06 0 0)
(1.99211e-06 0 0)
(1.99156e-06 0 0)
(1.99108e-06 0 0)
(1.99065e-06 0 0)
(1.99027e-06 0 0)
(1.98992e-06 0 0)
(1.9896e-06 0 0)
(1.9893e-06 0 0)
(1.989e-06 0 0)
(1.98871e-06 0 0)
(1.98841e-06 0 0)
(1.98811e-06 0 0)
(1.9878e-06 0 0)
(1.98747e-06 0 0)
(1.98713e-06 0 0)
(1.98678e-06 0 0)
(1.9864e-06 0 0)
(1.98602e-06 0 0)
(1.98561e-06 0 0)
(1.98519e-06 0 0)
(1.98476e-06 0 0)
(1.98432e-06 0 0)
(1.98387e-06 0 0)
(1.9834e-06 0 0)
(1.98293e-06 0 0)
(1.98245e-06 0 0)
(1.98197e-06 0 0)
(1.98148e-06 0 0)
(1.98099e-06 0 0)
(1.9805e-06 0 0)
(1.98e-06 0 0)
(1.97951e-06 0 0)
(1.97901e-06 0 0)
(1.97852e-06 0 0)
(1.97803e-06 0 0)
(1.97755e-06 0 0)
(1.97706e-06 0 0)
(1.97658e-06 0 0)
(1.97611e-06 0 0)
(1.97563e-06 0 0)
(1.97517e-06 0 0)
(1.97471e-06 0 0)
(1.97425e-06 0 0)
(1.9738e-06 0 0)
(1.97336e-06 0 0)
(1.97292e-06 0 0)
(1.97249e-06 0 0)
(1.97206e-06 0 0)
(1.97164e-06 0 0)
(1.97123e-06 0 0)
(1.97083e-06 0 0)
(1.97043e-06 0 0)
(1.97004e-06 0 0)
(1.96966e-06 0 0)
(1.96928e-06 0 0)
(1.96891e-06 0 0)
(1.96855e-06 0 0)
(1.9682e-06 0 0)
(1.96785e-06 0 0)
(1.96751e-06 0 0)
(1.96718e-06 0 0)
(1.96685e-06 0 0)
(1.96653e-06 0 0)
(1.96622e-06 0 0)
(1.96592e-06 0 0)
(1.96563e-06 0 0)
(1.96534e-06 0 0)
(1.96506e-06 0 0)
(1.96479e-06 0 0)
(1.96452e-06 0 0)
(1.96426e-06 0 0)
(1.96401e-06 0 0)
(1.96377e-06 0 0)
(1.96353e-06 0 0)
(1.9633e-06 0 0)
(1.96307e-06 0 0)
(1.96285e-06 0 0)
(1.96263e-06 0 0)
(1.96242e-06 0 0)
(1.96222e-06 0 0)
(1.96202e-06 0 0)
(1.96182e-06 0 0)
(1.96163e-06 0 0)
(1.96144e-06 0 0)
(1.96126e-06 0 0)
(1.96108e-06 0 0)
(1.96091e-06 0 0)
(1.96073e-06 0 0)
(1.96056e-06 0 0)
(1.9604e-06 0 0)
(1.96024e-06 0 0)
(1.96008e-06 0 0)
(1.95993e-06 0 0)
(1.95978e-06 0 0)
(1.95964e-06 0 0)
(1.9595e-06 0 0)
(1.95937e-06 0 0)
(1.95924e-06 0 0)
(1.95913e-06 0 0)
(1.95902e-06 0 0)
(1.95893e-06 0 0)
(1.95885e-06 0 0)
(1.95879e-06 0 0)
(1.95876e-06 0 0)
(1.95874e-06 0 0)
(1.95876e-06 0 0)
(1.95881e-06 0 0)
(1.9589e-06 0 0)
(1.95903e-06 0 0)
(1.9592e-06 0 0)
(1.95943e-06 0 0)
(1.9597e-06 0 0)
(1.96003e-06 0 0)
(1.96042e-06 0 0)
(1.96087e-06 0 0)
(1.96137e-06 0 0)
(1.96193e-06 0 0)
(1.96255e-06 0 0)
(1.96322e-06 0 0)
(1.96394e-06 0 0)
(1.96471e-06 0 0)
(1.96551e-06 0 0)
(1.96635e-06 0 0)
(1.96721e-06 0 0)
(1.96809e-06 0 0)
(1.96896e-06 0 0)
(1.96983e-06 0 0)
(1.97069e-06 0 0)
(1.97151e-06 0 0)
(1.97228e-06 0 0)
(1.973e-06 0 0)
(1.97365e-06 0 0)
(1.97422e-06 0 0)
(1.97469e-06 0 0)
(1.97506e-06 0 0)
(1.97532e-06 0 0)
(1.97545e-06 0 0)
(1.97546e-06 0 0)
(1.97534e-06 0 0)
(1.97508e-06 0 0)
(1.97468e-06 0 0)
(1.97415e-06 0 0)
(1.97349e-06 0 0)
(1.97271e-06 0 0)
(1.97181e-06 0 0)
(1.9708e-06 0 0)
(1.96971e-06 0 0)
(1.96853e-06 0 0)
(1.96728e-06 0 0)
(1.96599e-06 0 0)
(1.96465e-06 0 0)
(1.96329e-06 0 0)
(1.96193e-06 0 0)
(1.96056e-06 0 0)
(1.95921e-06 0 0)
(1.95789e-06 0 0)
(1.95661e-06 0 0)
(1.95537e-06 0 0)
(1.95418e-06 0 0)
(1.95305e-06 0 0)
(1.95198e-06 0 0)
(1.95097e-06 0 0)
(1.95001e-06 0 0)
(1.94912e-06 0 0)
(1.94829e-06 0 0)
(1.94752e-06 0 0)
(1.9468e-06 0 0)
(1.94613e-06 0 0)
(1.94551e-06 0 0)
(1.94492e-06 0 0)
(1.94438e-06 0 0)
(1.94386e-06 0 0)
(1.94337e-06 0 0)
(1.94291e-06 0 0)
(1.94246e-06 0 0)
(1.94203e-06 0 0)
(1.94161e-06 0 0)
(1.94119e-06 0 0)
(1.94079e-06 0 0)
(1.94038e-06 0 0)
(1.93998e-06 0 0)
(1.93957e-06 0 0)
(1.93916e-06 0 0)
(1.93874e-06 0 0)
(1.93832e-06 0 0)
(1.9379e-06 0 0)
(1.93746e-06 0 0)
(1.93703e-06 0 0)
(1.93658e-06 0 0)
(1.93613e-06 0 0)
(1.93567e-06 0 0)
(1.9352e-06 0 0)
(1.93473e-06 0 0)
(1.93426e-06 0 0)
(1.93378e-06 0 0)
(1.9333e-06 0 0)
(1.93281e-06 0 0)
(1.93232e-06 0 0)
(1.93183e-06 0 0)
(1.93134e-06 0 0)
(1.93085e-06 0 0)
(1.93035e-06 0 0)
(1.92986e-06 0 0)
(1.92937e-06 0 0)
(1.92887e-06 0 0)
(1.92838e-06 0 0)
(1.9279e-06 0 0)
(1.92741e-06 0 0)
(1.92693e-06 0 0)
(1.92645e-06 0 0)
(1.92597e-06 0 0)
(1.9255e-06 0 0)
(1.92503e-06 0 0)
(1.92456e-06 0 0)
(1.9241e-06 0 0)
(1.92365e-06 0 0)
(1.92319e-06 0 0)
(1.92275e-06 0 0)
(1.9223e-06 0 0)
(1.92187e-06 0 0)
(1.92143e-06 0 0)
(1.92101e-06 0 0)
(1.92059e-06 0 0)
(1.92017e-06 0 0)
(1.91976e-06 0 0)
(1.91935e-06 0 0)
(1.91895e-06 0 0)
(1.91856e-06 0 0)
(1.91817e-06 0 0)
(1.91778e-06 0 0)
(1.91741e-06 0 0)
(1.91703e-06 0 0)
(1.91667e-06 0 0)
(1.91631e-06 0 0)
(1.91595e-06 0 0)
(1.9156e-06 0 0)
(1.91526e-06 0 0)
(1.91492e-06 0 0)
(1.91459e-06 0 0)
(1.91426e-06 0 0)
(1.91394e-06 0 0)
(1.91362e-06 0 0)
(1.91331e-06 0 0)
(1.913e-06 0 0)
(1.9127e-06 0 0)
(1.91241e-06 0 0)
(1.91211e-06 0 0)
(1.91183e-06 0 0)
(1.91155e-06 0 0)
(1.91127e-06 0 0)
(1.91099e-06 0 0)
(1.91072e-06 0 0)
(1.91046e-06 0 0)
(1.9102e-06 0 0)
(1.90994e-06 0 0)
(1.90968e-06 0 0)
(1.90943e-06 0 0)
(1.90918e-06 0 0)
(1.90894e-06 0 0)
(1.90869e-06 0 0)
(1.90846e-06 0 0)
(1.90822e-06 0 0)
(1.90799e-06 0 0)
(1.90776e-06 0 0)
(1.90753e-06 0 0)
(1.90731e-06 0 0)
(1.90709e-06 0 0)
(1.90687e-06 0 0)
(1.90666e-06 0 0)
(1.90646e-06 0 0)
(1.90626e-06 0 0)
(1.90606e-06 0 0)
(1.90587e-06 0 0)
(1.90569e-06 0 0)
(1.90552e-06 0 0)
(1.90536e-06 0 0)
(1.90522e-06 0 0)
(1.90508e-06 0 0)
(1.90496e-06 0 0)
(1.90486e-06 0 0)
(1.90477e-06 0 0)
(1.9047e-06 0 0)
(1.90466e-06 0 0)
(1.90464e-06 0 0)
(1.90464e-06 0 0)
(1.90468e-06 0 0)
(1.90474e-06 0 0)
(1.90483e-06 0 0)
(1.90496e-06 0 0)
(1.90512e-06 0 0)
(1.90531e-06 0 0)
(1.90554e-06 0 0)
(1.90581e-06 0 0)
(1.90612e-06 0 0)
(1.90646e-06 0 0)
(1.90684e-06 0 0)
(1.90726e-06 0 0)
(1.90771e-06 0 0)
(1.9082e-06 0 0)
(1.90872e-06 0 0)
(1.90927e-06 0 0)
(1.90985e-06 0 0)
(1.91045e-06 0 0)
(1.91108e-06 0 0)
(1.91172e-06 0 0)
(1.91237e-06 0 0)
(1.91303e-06 0 0)
(1.9137e-06 0 0)
(1.91436e-06 0 0)
(1.91501e-06 0 0)
(1.91564e-06 0 0)
(1.91625e-06 0 0)
(1.91683e-06 0 0)
(1.91737e-06 0 0)
(1.91787e-06 0 0)
(1.91832e-06 0 0)
(1.91871e-06 0 0)
(1.91903e-06 0 0)
(1.9193e-06 0 0)
(1.9195e-06 0 0)
(1.91957e-06 0 0)
(1.91956e-06 0 0)
(1.91943e-06 0 0)
(1.91915e-06 0 0)
(1.91868e-06 0 0)
(1.9179e-06 0 0)
(1.91666e-06 0 0)
(1.91472e-06 0 0)
(1.9117e-06 0 0)
(1.90719e-06 0 0)
(1.90095e-06 0 0)
(1.89333e-06 0 0)
(1.88549e-06 0 0)
(1.87888e-06 0 0)
(1.87425e-06 0 0)
(1.87137e-06 0 0)
(1.86956e-06 0 0)
(1.86831e-06 0 0)
(1.86733e-06 0 0)
(1.86647e-06 0 0)
(1.86568e-06 0 0)
(1.86494e-06 0 0)
(1.86422e-06 0 0)
(1.86353e-06 0 0)
(1.86287e-06 0 0)
(1.86223e-06 0 0)
(1.86162e-06 0 0)
(1.86104e-06 0 0)
(1.86049e-06 0 0)
(1.85998e-06 0 0)
(1.85949e-06 0 0)
(1.85903e-06 0 0)
(1.85861e-06 0 0)
(1.85821e-06 0 0)
(1.85785e-06 0 0)
(1.85751e-06 0 0)
(1.8572e-06 0 0)
(1.85691e-06 0 0)
(1.85664e-06 0 0)
(1.8564e-06 0 0)
(1.85618e-06 0 0)
(1.85597e-06 0 0)
(1.85578e-06 0 0)
(1.8556e-06 0 0)
(1.85544e-06 0 0)
(1.85528e-06 0 0)
(1.85514e-06 0 0)
(1.855e-06 0 0)
(1.85487e-06 0 0)
(1.85474e-06 0 0)
(1.85462e-06 0 0)
(1.8545e-06 0 0)
(1.85438e-06 0 0)
(1.85427e-06 0 0)
(1.85415e-06 0 0)
(1.85403e-06 0 0)
(1.85392e-06 0 0)
(1.8538e-06 0 0)
(1.85368e-06 0 0)
(1.85356e-06 0 0)
(1.85344e-06 0 0)
(1.85331e-06 0 0)
(1.85319e-06 0 0)
(1.85306e-06 0 0)
(1.85293e-06 0 0)
(1.8528e-06 0 0)
(1.85266e-06 0 0)
(1.85253e-06 0 0)
(1.8524e-06 0 0)
(1.85226e-06 0 0)
(1.85213e-06 0 0)
(1.85199e-06 0 0)
(1.85185e-06 0 0)
(1.85172e-06 0 0)
(1.85158e-06 0 0)
(1.85144e-06 0 0)
(1.85131e-06 0 0)
(1.85118e-06 0 0)
(1.85104e-06 0 0)
(1.85091e-06 0 0)
(1.85078e-06 0 0)
(1.85065e-06 0 0)
(1.85053e-06 0 0)
(1.8504e-06 0 0)
(1.85028e-06 0 0)
(1.85016e-06 0 0)
(1.85005e-06 0 0)
(1.84993e-06 0 0)
(1.84982e-06 0 0)
(1.84971e-06 0 0)
(1.84961e-06 0 0)
(1.84951e-06 0 0)
(1.84941e-06 0 0)
(1.84931e-06 0 0)
(1.84922e-06 0 0)
(1.84913e-06 0 0)
(1.84905e-06 0 0)
(1.84896e-06 0 0)
(1.84889e-06 0 0)
(1.84881e-06 0 0)
(1.84874e-06 0 0)
(1.84868e-06 0 0)
(1.84861e-06 0 0)
(1.84855e-06 0 0)
(1.8485e-06 0 0)
(1.84845e-06 0 0)
(1.8484e-06 0 0)
(1.84836e-06 0 0)
(1.84832e-06 0 0)
(1.84829e-06 0 0)
(1.84826e-06 0 0)
(1.84823e-06 0 0)
(1.84821e-06 0 0)
(1.84819e-06 0 0)
(1.84818e-06 0 0)
(1.84817e-06 0 0)
(1.84817e-06 0 0)
(1.84817e-06 0 0)
(1.84817e-06 0 0)
(1.84817e-06 0 0)
(1.84818e-06 0 0)
(1.84819e-06 0 0)
(1.84821e-06 0 0)
(1.84824e-06 0 0)
(1.84826e-06 0 0)
(1.84829e-06 0 0)
(1.84833e-06 0 0)
(1.84837e-06 0 0)
(1.84841e-06 0 0)
(1.84845e-06 0 0)
(1.8485e-06 0 0)
(1.84855e-06 0 0)
(1.84861e-06 0 0)
(1.84867e-06 0 0)
(1.84873e-06 0 0)
(1.84879e-06 0 0)
(1.84886e-06 0 0)
(1.84893e-06 0 0)
(1.84901e-06 0 0)
(1.84908e-06 0 0)
(1.84916e-06 0 0)
(1.84925e-06 0 0)
(1.84934e-06 0 0)
(1.84943e-06 0 0)
(1.84953e-06 0 0)
(1.84963e-06 0 0)
(1.84973e-06 0 0)
(1.84984e-06 0 0)
(1.84995e-06 0 0)
(1.85007e-06 0 0)
(1.8502e-06 0 0)
(1.85033e-06 0 0)
(1.85047e-06 0 0)
(1.85062e-06 0 0)
(1.85078e-06 0 0)
(1.85094e-06 0 0)
(1.85112e-06 0 0)
(1.8513e-06 0 0)
(1.8515e-06 0 0)
(1.85171e-06 0 0)
(1.85193e-06 0 0)
(1.85217e-06 0 0)
(1.85242e-06 0 0)
(1.85269e-06 0 0)
(1.85298e-06 0 0)
(1.85328e-06 0 0)
(1.8536e-06 0 0)
(1.85394e-06 0 0)
(1.85431e-06 0 0)
(1.85469e-06 0 0)
(1.85509e-06 0 0)
(1.85552e-06 0 0)
(1.85596e-06 0 0)
(1.85643e-06 0 0)
(1.85692e-06 0 0)
(1.85743e-06 0 0)
(1.85797e-06 0 0)
(1.85852e-06 0 0)
(1.85909e-06 0 0)
(1.85969e-06 0 0)
(1.8603e-06 0 0)
(1.86092e-06 0 0)
(1.86156e-06 0 0)
(1.86222e-06 0 0)
(1.86288e-06 0 0)
(1.86355e-06 0 0)
(1.86423e-06 0 0)
(1.86491e-06 0 0)
(1.86559e-06 0 0)
(1.86626e-06 0 0)
(1.86693e-06 0 0)
(1.86759e-06 0 0)
(1.86824e-06 0 0)
(1.86887e-06 0 0)
(1.86947e-06 0 0)
(1.87006e-06 0 0)
(1.87062e-06 0 0)
(1.87114e-06 0 0)
(1.87163e-06 0 0)
(1.87208e-06 0 0)
(1.87249e-06 0 0)
(1.87286e-06 0 0)
(1.87317e-06 0 0)
(1.87344e-06 0 0)
(1.87366e-06 0 0)
(1.87382e-06 0 0)
(1.87393e-06 0 0)
(1.87398e-06 0 0)
(1.874e-06 0 0)
(1.874e-06 0 0)
(1.87398e-06 0 0)
(1.87385e-06 0 0)
(1.87362e-06 0 0)
(1.87336e-06 0 0)
(1.87304e-06 0 0)
(1.87267e-06 0 0)
(1.87226e-06 0 0)
(1.87181e-06 0 0)
(1.87133e-06 0 0)
(1.87081e-06 0 0)
(1.87027e-06 0 0)
(1.8697e-06 0 0)
(1.8691e-06 0 0)
(1.8685e-06 0 0)
(1.86788e-06 0 0)
(1.86725e-06 0 0)
(1.86663e-06 0 0)
(1.866e-06 0 0)
(1.86537e-06 0 0)
(1.86475e-06 0 0)
(1.86415e-06 0 0)
(1.86355e-06 0 0)
(1.86297e-06 0 0)
(1.86241e-06 0 0)
(1.86187e-06 0 0)
(1.86135e-06 0 0)
(1.86085e-06 0 0)
(1.86037e-06 0 0)
(1.85992e-06 0 0)
(1.85949e-06 0 0)
(1.85909e-06 0 0)
(1.8587e-06 0 0)
(1.85834e-06 0 0)
(1.85801e-06 0 0)
(1.85769e-06 0 0)
(1.8574e-06 0 0)
(1.85712e-06 0 0)
(1.85686e-06 0 0)
(1.85662e-06 0 0)
(1.85639e-06 0 0)
(1.85618e-06 0 0)
(1.85599e-06 0 0)
(1.8558e-06 0 0)
(1.85562e-06 0 0)
(1.85546e-06 0 0)
(1.8553e-06 0 0)
(1.85515e-06 0 0)
(1.855e-06 0 0)
(1.85486e-06 0 0)
(1.85473e-06 0 0)
(1.8546e-06 0 0)
(1.85447e-06 0 0)
(1.85434e-06 0 0)
(1.85422e-06 0 0)
(1.85409e-06 0 0)
(1.85397e-06 0 0)
(1.85385e-06 0 0)
(1.85372e-06 0 0)
(1.8536e-06 0 0)
(1.85347e-06 0 0)
(1.85335e-06 0 0)
(1.85322e-06 0 0)
(1.8531e-06 0 0)
(1.85297e-06 0 0)
(1.85284e-06 0 0)
(1.85271e-06 0 0)
(1.85258e-06 0 0)
(1.85245e-06 0 0)
(1.85232e-06 0 0)
(1.85219e-06 0 0)
(1.85206e-06 0 0)
(1.85193e-06 0 0)
(1.8518e-06 0 0)
(1.85167e-06 0 0)
(1.85154e-06 0 0)
(1.85141e-06 0 0)
(1.85128e-06 0 0)
(1.85115e-06 0 0)
(1.85102e-06 0 0)
(1.8509e-06 0 0)
(1.85077e-06 0 0)
(1.85065e-06 0 0)
(1.85053e-06 0 0)
(1.85041e-06 0 0)
(1.85029e-06 0 0)
(1.85017e-06 0 0)
(1.85006e-06 0 0)
(1.84995e-06 0 0)
(1.84984e-06 0 0)
(1.84973e-06 0 0)
(1.84963e-06 0 0)
(1.84953e-06 0 0)
(1.84943e-06 0 0)
(1.84934e-06 0 0)
(1.84925e-06 0 0)
(1.84916e-06 0 0)
(1.84908e-06 0 0)
(1.84899e-06 0 0)
(1.84892e-06 0 0)
(1.84884e-06 0 0)
(1.84877e-06 0 0)
(1.84871e-06 0 0)
(1.84864e-06 0 0)
(1.84858e-06 0 0)
(1.84853e-06 0 0)
(1.84848e-06 0 0)
(1.84843e-06 0 0)
(1.84839e-06 0 0)
(1.84835e-06 0 0)
(1.84832e-06 0 0)
(1.84829e-06 0 0)
(1.84826e-06 0 0)
(1.84824e-06 0 0)
(1.84822e-06 0 0)
(1.84821e-06 0 0)
(1.8482e-06 0 0)
(1.84819e-06 0 0)
(1.84819e-06 0 0)
(1.84819e-06 0 0)
(1.84819e-06 0 0)
(1.8482e-06 0 0)
(1.84822e-06 0 0)
(1.84824e-06 0 0)
(1.84826e-06 0 0)
(1.84829e-06 0 0)
(1.84832e-06 0 0)
(1.84836e-06 0 0)
(1.8484e-06 0 0)
(1.84844e-06 0 0)
(1.84849e-06 0 0)
(1.84854e-06 0 0)
(1.84859e-06 0 0)
(1.84865e-06 0 0)
(1.84872e-06 0 0)
(1.84878e-06 0 0)
(1.84886e-06 0 0)
(1.84893e-06 0 0)
(1.84901e-06 0 0)
(1.8491e-06 0 0)
(1.84919e-06 0 0)
(1.84928e-06 0 0)
(1.84938e-06 0 0)
(1.84949e-06 0 0)
(1.8496e-06 0 0)
(1.84972e-06 0 0)
(1.84984e-06 0 0)
(1.84997e-06 0 0)
(1.85011e-06 0 0)
(1.85026e-06 0 0)
(1.85041e-06 0 0)
(1.85058e-06 0 0)
(1.85075e-06 0 0)
(1.85094e-06 0 0)
(1.85113e-06 0 0)
(1.85134e-06 0 0)
(1.85156e-06 0 0)
(1.8518e-06 0 0)
(1.85204e-06 0 0)
(1.8523e-06 0 0)
(1.85258e-06 0 0)
(1.85287e-06 0 0)
(1.85318e-06 0 0)
(1.8535e-06 0 0)
(1.85384e-06 0 0)
(1.8542e-06 0 0)
(1.85457e-06 0 0)
(1.85497e-06 0 0)
(1.85538e-06 0 0)
(1.85581e-06 0 0)
(1.85625e-06 0 0)
(1.85672e-06 0 0)
(1.8572e-06 0 0)
(1.8577e-06 0 0)
(1.85821e-06 0 0)
(1.85874e-06 0 0)
(1.85928e-06 0 0)
(1.85984e-06 0 0)
)
;

boundaryField
{
    inlet
    {
        type            fixedValue;
        value           uniform (2.74882e-06 0 0);
    }
    outlet
    {
        type            zeroGradient;
    }
    emptyWalls
    {
        type            empty;
    }
}


// ************************************************************************* //
