/*--------------------------------*- C++ -*----------------------------------*\
  =========                 |
  \\      /  F ield         | OpenFOAM: The Open Source CFD Toolbox
   \\    /   O peration     | Website:  https://openfoam.org
    \\  /    A nd           | Version:  9
     \\/     M anipulation  |
\*---------------------------------------------------------------------------*/
FoamFile
{
    format      ascii;
    class       volScalarField;
    location    "22650";
    object      Fa;
}
// * * * * * * * * * * * * * * * * * * * * * * * * * * * * * * * * * * * * * //

dimensions      [0 0 0 0 0 0 0];

internalField   nonuniform List<scalar> 
1000
(
0.194812
0.19477
0.194822
0.194737
0.194823
0.194686
0.19479
0.194633
0.194706
0.194592
0.1946
0.194541
0.194501
0.194454
0.194404
0.194343
0.194294
0.194231
0.194177
0.19412
0.194051
0.194021
0.193919
0.19395
0.193808
0.193892
0.193746
0.193814
0.193687
0.193582
0.192941
0.188657
0.163253
0.15298
0.15091
0.150074
0.149587
0.149241
0.148992
0.148818
0.148677
0.148521
0.148337
0.148166
0.148082
0.148149
0.148379
0.148727
0.149107
0.14943
0.149631
0.149693
0.149644
0.149541
0.149432
0.14928
0.148873
0.148394
0.147917
0.147479
0.147097
0.146787
0.146537
0.146364
0.146233
0.146166
0.146114
0.146083
0.146067
0.146057
0.146045
0.146025
0.145996
0.145957
0.145909
0.145857
0.145799
0.145739
0.145677
0.145616
0.145554
0.145494
0.145435
0.145379
0.145324
0.145274
0.145225
0.145183
0.145144
0.145111
0.145078
0.145046
0.145014
0.144983
0.144952
0.144922
0.144893
0.144865
0.144838
0.144812
0.144786
0.144762
0.144739
0.144717
0.144696
0.144676
0.144657
0.144639
0.144622
0.144606
0.14459
0.144576
0.144562
0.14455
0.144539
0.14453
0.144523
0.144517
0.144513
0.144509
0.144506
0.144503
0.144499
0.144495
0.144491
0.144486
0.14448
0.144475
0.144472
0.144469
0.144469
0.14447
0.144473
0.144477
0.144482
0.144486
0.14449
0.144492
0.144492
0.14449
0.144485
0.144479
0.144474
0.144472
0.144477
0.144494
0.144525
0.144573
0.14464
0.144726
0.144829
0.144949
0.145082
0.145226
0.145377
0.145534
0.145691
0.145847
0.145995
0.146134
0.146257
0.14636
0.146439
0.146491
0.146512
0.146502
0.146459
0.146385
0.146284
0.146157
0.146011
0.14585
0.145681
0.145509
0.145339
0.145175
0.145022
0.144882
0.144757
0.144648
0.144555
0.144478
0.144415
0.144364
0.144325
0.144295
0.144272
0.144254
0.14424
0.144229
0.144218
0.144206
0.144194
0.14418
0.144164
0.144146
0.144126
0.144103
0.144079
0.144052
0.144024
0.143994
0.143963
0.143931
0.143899
0.143865
0.143832
0.143798
0.143765
0.143731
0.143698
0.143665
0.143633
0.143601
0.14357
0.143539
0.143508
0.143479
0.14345
0.143421
0.143394
0.143367
0.14334
0.143315
0.14329
0.143266
0.143243
0.14322
0.143198
0.143177
0.143157
0.143137
0.143119
0.1431
0.143083
0.143067
0.143051
0.143036
0.143022
0.143009
0.142997
0.142986
0.142976
0.142966
0.142957
0.142948
0.14294
0.142933
0.142925
0.142918
0.142911
0.142905
0.142899
0.142893
0.142888
0.142883
0.142879
0.142875
0.142872
0.142869
0.142866
0.142864
0.142861
0.142858
0.142855
0.142852
0.142848
0.142844
0.142841
0.142838
0.142837
0.142838
0.142843
0.142851
0.142865
0.142884
0.14291
0.142944
0.142985
0.143035
0.143093
0.143159
0.143234
0.143316
0.143404
0.143498
0.143596
0.143698
0.1438
0.143902
0.144002
0.144097
0.144186
0.144267
0.144337
0.144395
0.14444
0.14447
0.144483
0.144481
0.144461
0.144426
0.144375
0.144309
0.144231
0.144141
0.144042
0.143936
0.143826
0.143712
0.143598
0.143486
0.143377
0.143272
0.143173
0.14308
0.142994
0.142916
0.142846
0.142782
0.142726
0.142675
0.142631
0.142592
0.142558
0.142527
0.1425
0.142475
0.142452
0.14243
0.142409
0.142388
0.142368
0.142347
0.142326
0.142304
0.142281
0.142257
0.142233
0.142208
0.142182
0.142155
0.142127
0.142099
0.142071
0.142042
0.142012
0.141983
0.141953
0.141923
0.141894
0.141864
0.141834
0.141805
0.141776
0.141747
0.141719
0.141691
0.141663
0.141636
0.141609
0.141583
0.141557
0.141532
0.141507
0.141483
0.141459
0.141436
0.141413
0.141391
0.14137
0.141349
0.141328
0.141308
0.141289
0.14127
0.141252
0.141235
0.141218
0.141202
0.141187
0.141172
0.141158
0.141144
0.141131
0.141118
0.141107
0.141095
0.141084
0.141074
0.141064
0.141054
0.141045
0.141036
0.141028
0.141019
0.141012
0.141005
0.140998
0.140991
0.140985
0.140978
0.140973
0.140967
0.140961
0.140956
0.140951
0.140946
0.140941
0.140936
0.140932
0.140928
0.140925
0.140923
0.140922
0.140922
0.140925
0.14093
0.140937
0.140947
0.140961
0.140978
0.140999
0.141025
0.141055
0.14109
0.141129
0.141173
0.141222
0.141276
0.141333
0.141395
0.141459
0.141527
0.141596
0.141667
0.141738
0.141809
0.141878
0.141945
0.142009
0.142068
0.142123
0.142171
0.142211
0.142245
0.142269
0.142285
0.142291
0.142287
0.142274
0.142251
0.142219
0.142178
0.142128
0.142071
0.142007
0.141937
0.141863
0.141784
0.141703
0.14162
0.141537
0.141453
0.141371
0.141291
0.141213
0.141138
0.141066
0.140998
0.140935
0.140875
0.140819
0.140767
0.140719
0.140674
0.140633
0.140595
0.14056
0.140527
0.140496
0.140467
0.140439
0.140413
0.140387
0.140362
0.140338
0.140314
0.14029
0.140266
0.140242
0.140218
0.140193
0.140168
0.140143
0.140118
0.140091
0.140065
0.140038
0.140011
0.139984
0.139956
0.139929
0.139901
0.139873
0.139845
0.139817
0.139789
0.139761
0.139733
0.139705
0.139678
0.139651
0.139624
0.139597
0.13957
0.139544
0.139519
0.139493
0.139468
0.139444
0.139419
0.139396
0.139372
0.13935
0.139327
0.139305
0.139284
0.139263
0.139242
0.139222
0.139203
0.139184
0.139165
0.139148
0.13913
0.139113
0.139097
0.139081
0.139066
0.139051
0.139037
0.139023
0.13901
0.138997
0.138985
0.138973
0.138961
0.13895
0.138939
0.138929
0.138919
0.13891
0.1389
0.138892
0.138883
0.138875
0.138867
0.138859
0.138852
0.138845
0.138838
0.138831
0.138825
0.138818
0.138813
0.138807
0.138802
0.138797
0.138793
0.13879
0.138788
0.138786
0.138785
0.138786
0.138788
0.138792
0.138798
0.138805
0.138815
0.138827
0.138841
0.138858
0.138878
0.138901
0.138926
0.138955
0.138986
0.13902
0.139057
0.139097
0.139139
0.139184
0.13923
0.139278
0.139328
0.139379
0.13943
0.139481
0.139531
0.139581
0.139629
0.139675
0.139719
0.13976
0.139797
0.13983
0.139858
0.139882
0.1399
0.139913
0.139919
0.13992
0.139914
0.139902
0.139884
0.139859
0.139829
0.139793
0.139751
0.139705
0.139654
0.139599
0.139541
0.13948
0.139416
0.139351
0.139284
0.139217
0.13915
0.139082
0.139016
0.138951
0.138887
0.138825
0.138765
0.138708
0.138652
0.138599
0.138548
0.1385
0.138454
0.13841
0.138369
0.138329
0.138292
0.138256
0.138222
0.138189
0.138158
0.138127
0.138098
0.138069
0.138042
0.138014
0.137987
0.137961
0.137934
0.137908
0.137882
0.137856
0.13783
0.137803
0.137777
0.137751
0.137724
0.137697
0.13767
0.137643
0.137616
0.137589
0.137562
0.137534
0.137507
0.13748
0.137452
0.137425
0.137398
0.137371
0.137344
0.137317
0.13729
0.137264
0.137238
0.137212
0.137186
0.13716
0.137135
0.13711
0.137086
0.137062
0.137038
0.137015
0.136991
0.136969
0.136946
0.136925
0.136903
0.136882
0.136861
0.136841
0.136821
0.136802
0.136783
0.136764
0.136746
0.136729
0.136712
0.136695
0.136678
0.136662
0.136647
0.136632
0.136617
0.136603
0.136589
0.136575
0.136562
0.136549
0.136536
0.136524
0.136512
0.136501
0.13649
0.136479
0.136468
0.136458
0.136448
0.136438
0.136428
0.136419
0.13641
0.136401
0.136392
0.136384
0.136376
0.136368
0.136361
0.136354
0.136348
0.136342
0.136336
0.136331
0.136327
0.136324
0.136321
0.13632
0.136319
0.13632
0.136322
0.136325
0.13633
0.136336
0.136343
0.136353
0.136364
0.136377
0.136392
0.136409
0.136427
0.136448
0.13647
0.136495
0.136521
0.136549
0.136578
0.136609
0.136641
0.136675
0.136708
0.136744
0.136779
0.136815
0.13685
0.136886
0.13692
0.136954
0.136987
0.137018
0.137047
0.137074
0.137099
0.137121
0.13714
0.137156
0.137168
0.137177
0.137181
0.137182
0.137178
0.137171
0.137159
0.137143
0.137122
0.137098
0.137069
0.137036
0.137
0.136961
0.136918
0.136872
0.136823
0.136773
0.13672
0.136665
0.136609
0.136553
0.136495
0.136437
0.136379
0.136321
0.136263
0.136206
0.13615
0.136095
0.136041
0.135988
0.135937
0.135887
0.135839
0.135792
0.135747
0.135703
0.135661
0.13562
0.135581
0.135542
0.135505
0.13547
0.135435
0.135401
0.135368
0.135336
0.135305
0.135274
0.135243
0.135214
0.135184
0.135155
0.135126
0.135098
0.13507
0.135041
0.135013
0.134985
0.134957
0.134929
0.134901
0.134873
0.134845
0.134818
0.13479
0.134762
0.134735
0.134707
0.13468
0.134653
0.134626
0.134599
0.134573
0.134547
0.134521
0.134496
0.134471
0.134447
0.134423
0.1344
0.134378
0.134356
0.134336
0.134316
0.134297
0.134278
0.134261
0.134245
0.134229
0.134215
0.134201
0.134188
0.134177
0.134166
0.134156
0.134146
0.134138
0.134131
0.134123
0.134118
0.134111
0.134107
0.134103
0.134098
0.134096
0.134091
0.134091
0.134088
0.134086
0.134086
0.134082
0.134082
0.134079
0.134075
0.134069
0.134055
0.134034
0.133991
0.133917
0.13379
0.133575
0.133246
0.132784
0.132243
0.131745
0.131394
0.1312
0.131104
0.131063
0.131046
0.131038
0.13104
0.131041
0.131046
0.131052
0.131057
0.131064
0.13107
0.131078
0.131085
0.131094
0.131102
0.131112
0.131121
0.131132
0.131142
0.131154
0.131167
0.13118
0.131194
0.131209
0.131224
0.131241
0.131259
0.131278
0.131297
0.131318
0.13134
0.131364
0.131388
0.131414
0.131441
0.131469
0.131498
0.131529
0.13156
0.131593
0.131627
0.131662
0.131697
0.131734
0.131771
0.131809
0.131848
0.131887
0.131926
0.131966
0.132006
0.132045
0.132085
0.132124
0.132162
0.1322
0.132237
0.132273
0.132308
0.132342
0.132374
0.132404
0.132433
0.132459
0.132484
0.132506
0.132526
0.132543
0.132558
0.132569
0.132578
0.132584
0.132587
0.132588
0.132588
0.132585
0.132583
0.132572
0.132567
0.132544
0.132537
0.132506
0.132497
0.132461
0.132449
0.13241
)
;

boundaryField
{
    inlet
    {
        type            calculated;
        value           uniform 0.194831;
    }
    outlet
    {
        type            calculated;
        value           uniform 0.132402;
    }
    emptyWalls
    {
        type            empty;
    }
}


// ************************************************************************* //
