/*--------------------------------*- C++ -*----------------------------------*\
  =========                 |
  \\      /  F ield         | OpenFOAM: The Open Source CFD Toolbox
   \\    /   O peration     | Website:  https://openfoam.org
    \\  /    A nd           | Version:  9
     \\/     M anipulation  |
\*---------------------------------------------------------------------------*/
FoamFile
{
    format      ascii;
    class       surfaceScalarField;
    location    "22650";
    object      phib;
}
// * * * * * * * * * * * * * * * * * * * * * * * * * * * * * * * * * * * * * //

dimensions      [0 2 0 0 0 0 0];

internalField   nonuniform List<scalar> 
999
(
1.13623e-09
1.13622e-09
1.13624e-09
1.13623e-09
1.13625e-09
1.13626e-09
1.13628e-09
1.13632e-09
1.13633e-09
1.13637e-09
1.13638e-09
1.13642e-09
1.13645e-09
1.13648e-09
1.13653e-09
1.13656e-09
1.1366e-09
1.13665e-09
1.13669e-09
1.13674e-09
1.13677e-09
1.13683e-09
1.13685e-09
1.1369e-09
1.13692e-09
1.13694e-09
1.13697e-09
1.13698e-09
1.13708e-09
1.13736e-09
1.1385e-09
1.14576e-09
1.17113e-09
1.17607e-09
1.17736e-09
1.17793e-09
1.17828e-09
1.17852e-09
1.17867e-09
1.17876e-09
1.17884e-09
1.17896e-09
1.1791e-09
1.17918e-09
1.17909e-09
1.17879e-09
1.17829e-09
1.17769e-09
1.17711e-09
1.17666e-09
1.17639e-09
1.1763e-09
1.17632e-09
1.17638e-09
1.17646e-09
1.17674e-09
1.17733e-09
1.17792e-09
1.17847e-09
1.17897e-09
1.17937e-09
1.17968e-09
1.17989e-09
1.18002e-09
1.18007e-09
1.18008e-09
1.18005e-09
1.17999e-09
1.17992e-09
1.17984e-09
1.17977e-09
1.17971e-09
1.17966e-09
1.17962e-09
1.17959e-09
1.17956e-09
1.17954e-09
1.17951e-09
1.17947e-09
1.17943e-09
1.17939e-09
1.17933e-09
1.17925e-09
1.17916e-09
1.17904e-09
1.17889e-09
1.17871e-09
1.17848e-09
1.17822e-09
1.17793e-09
1.17761e-09
1.17728e-09
1.17694e-09
1.17658e-09
1.17622e-09
1.17585e-09
1.17547e-09
1.17509e-09
1.17471e-09
1.17432e-09
1.17392e-09
1.17352e-09
1.17312e-09
1.17272e-09
1.17231e-09
1.1719e-09
1.17148e-09
1.17106e-09
1.17064e-09
1.17022e-09
1.1698e-09
1.16937e-09
1.16894e-09
1.1685e-09
1.16807e-09
1.16763e-09
1.16718e-09
1.16674e-09
1.16629e-09
1.16584e-09
1.16539e-09
1.16493e-09
1.16448e-09
1.16403e-09
1.16357e-09
1.16312e-09
1.16266e-09
1.16221e-09
1.16175e-09
1.16128e-09
1.16082e-09
1.16035e-09
1.15988e-09
1.1594e-09
1.15893e-09
1.15846e-09
1.15798e-09
1.15751e-09
1.15704e-09
1.15657e-09
1.15611e-09
1.15564e-09
1.15517e-09
1.1547e-09
1.1542e-09
1.1537e-09
1.15316e-09
1.15261e-09
1.15203e-09
1.15142e-09
1.15079e-09
1.15014e-09
1.14947e-09
1.14879e-09
1.1481e-09
1.1474e-09
1.1467e-09
1.14601e-09
1.14534e-09
1.14467e-09
1.14404e-09
1.14343e-09
1.14285e-09
1.14232e-09
1.14182e-09
1.14137e-09
1.14096e-09
1.14059e-09
1.14026e-09
1.13995e-09
1.13967e-09
1.1394e-09
1.13914e-09
1.13888e-09
1.13861e-09
1.13833e-09
1.13803e-09
1.13772e-09
1.13738e-09
1.13702e-09
1.13664e-09
1.13624e-09
1.13582e-09
1.13538e-09
1.13493e-09
1.13446e-09
1.13399e-09
1.13351e-09
1.13303e-09
1.13254e-09
1.13206e-09
1.13157e-09
1.13108e-09
1.1306e-09
1.13012e-09
1.12964e-09
1.12917e-09
1.12869e-09
1.12822e-09
1.12775e-09
1.12729e-09
1.12682e-09
1.12635e-09
1.12589e-09
1.12542e-09
1.12496e-09
1.1245e-09
1.12403e-09
1.12356e-09
1.1231e-09
1.12263e-09
1.12216e-09
1.12169e-09
1.12122e-09
1.12075e-09
1.12028e-09
1.11981e-09
1.11933e-09
1.11885e-09
1.11838e-09
1.1179e-09
1.11741e-09
1.11693e-09
1.11645e-09
1.11596e-09
1.11548e-09
1.11499e-09
1.1145e-09
1.11401e-09
1.11352e-09
1.11302e-09
1.11253e-09
1.11203e-09
1.11153e-09
1.11103e-09
1.11053e-09
1.11003e-09
1.10953e-09
1.10902e-09
1.10851e-09
1.108e-09
1.10749e-09
1.10698e-09
1.10647e-09
1.10595e-09
1.10544e-09
1.10492e-09
1.1044e-09
1.10388e-09
1.10337e-09
1.10285e-09
1.10233e-09
1.1018e-09
1.10128e-09
1.10076e-09
1.10023e-09
1.09971e-09
1.09918e-09
1.09865e-09
1.09812e-09
1.09759e-09
1.09707e-09
1.09654e-09
1.09601e-09
1.09548e-09
1.09495e-09
1.09442e-09
1.09388e-09
1.09335e-09
1.09282e-09
1.09228e-09
1.09174e-09
1.0912e-09
1.09064e-09
1.09008e-09
1.08952e-09
1.08894e-09
1.08835e-09
1.08775e-09
1.08714e-09
1.08652e-09
1.08589e-09
1.08525e-09
1.08459e-09
1.08393e-09
1.08327e-09
1.0826e-09
1.08192e-09
1.08125e-09
1.08057e-09
1.0799e-09
1.07924e-09
1.07858e-09
1.07794e-09
1.07731e-09
1.0767e-09
1.07611e-09
1.07553e-09
1.07498e-09
1.07445e-09
1.07393e-09
1.07344e-09
1.07297e-09
1.07251e-09
1.07207e-09
1.07164e-09
1.07123e-09
1.07081e-09
1.07041e-09
1.07e-09
1.06959e-09
1.06918e-09
1.06877e-09
1.06835e-09
1.06792e-09
1.06748e-09
1.06703e-09
1.06657e-09
1.0661e-09
1.06562e-09
1.06513e-09
1.06463e-09
1.06413e-09
1.06362e-09
1.0631e-09
1.06258e-09
1.06205e-09
1.06152e-09
1.06099e-09
1.06046e-09
1.05993e-09
1.05939e-09
1.05886e-09
1.05832e-09
1.05779e-09
1.05725e-09
1.05672e-09
1.05619e-09
1.05566e-09
1.05512e-09
1.05459e-09
1.05406e-09
1.05353e-09
1.053e-09
1.05247e-09
1.05194e-09
1.05141e-09
1.05088e-09
1.05035e-09
1.04982e-09
1.04929e-09
1.04876e-09
1.04822e-09
1.04769e-09
1.04716e-09
1.04662e-09
1.04609e-09
1.04555e-09
1.04501e-09
1.04447e-09
1.04393e-09
1.04339e-09
1.04285e-09
1.04231e-09
1.04176e-09
1.04122e-09
1.04067e-09
1.04012e-09
1.03958e-09
1.03903e-09
1.03848e-09
1.03792e-09
1.03737e-09
1.03682e-09
1.03626e-09
1.0357e-09
1.03515e-09
1.03459e-09
1.03403e-09
1.03346e-09
1.0329e-09
1.03234e-09
1.03177e-09
1.03121e-09
1.03064e-09
1.03007e-09
1.0295e-09
1.02893e-09
1.02836e-09
1.02778e-09
1.02721e-09
1.02663e-09
1.02606e-09
1.02548e-09
1.0249e-09
1.02433e-09
1.02375e-09
1.02317e-09
1.02258e-09
1.022e-09
1.02142e-09
1.02084e-09
1.02025e-09
1.01967e-09
1.01908e-09
1.01849e-09
1.01791e-09
1.01732e-09
1.01673e-09
1.01614e-09
1.01555e-09
1.01496e-09
1.01437e-09
1.01377e-09
1.01318e-09
1.01258e-09
1.01198e-09
1.01137e-09
1.01076e-09
1.01015e-09
1.00953e-09
1.00891e-09
1.00828e-09
1.00764e-09
1.007e-09
1.00635e-09
1.0057e-09
1.00504e-09
1.00438e-09
1.00371e-09
1.00303e-09
1.00235e-09
1.00166e-09
1.00098e-09
1.00028e-09
9.99593e-10
9.989e-10
9.98208e-10
9.97519e-10
9.96832e-10
9.96149e-10
9.95472e-10
9.94801e-10
9.94138e-10
9.93483e-10
9.92838e-10
9.92202e-10
9.91578e-10
9.90964e-10
9.90361e-10
9.8977e-10
9.89189e-10
9.88619e-10
9.88059e-10
9.87508e-10
9.86965e-10
9.86428e-10
9.85898e-10
9.85372e-10
9.84849e-10
9.84329e-10
9.83809e-10
9.83289e-10
9.82767e-10
9.82243e-10
9.81716e-10
9.81185e-10
9.8065e-10
9.80109e-10
9.79564e-10
9.79013e-10
9.78457e-10
9.77895e-10
9.77328e-10
9.76757e-10
9.7618e-10
9.756e-10
9.75015e-10
9.74427e-10
9.73835e-10
9.73241e-10
9.72644e-10
9.72044e-10
9.71443e-10
9.70841e-10
9.70237e-10
9.69632e-10
9.69026e-10
9.6842e-10
9.67813e-10
9.67206e-10
9.66598e-10
9.65991e-10
9.65383e-10
9.64775e-10
9.64166e-10
9.63558e-10
9.62949e-10
9.6234e-10
9.61731e-10
9.61122e-10
9.60512e-10
9.59902e-10
9.59291e-10
9.5868e-10
9.58068e-10
9.57455e-10
9.56842e-10
9.56228e-10
9.55613e-10
9.54998e-10
9.54381e-10
9.53764e-10
9.53146e-10
9.52526e-10
9.51906e-10
9.51285e-10
9.50662e-10
9.50039e-10
9.49414e-10
9.48789e-10
9.48162e-10
9.47534e-10
9.46905e-10
9.46274e-10
9.45643e-10
9.4501e-10
9.44376e-10
9.43741e-10
9.43104e-10
9.42466e-10
9.41828e-10
9.41187e-10
9.40546e-10
9.39903e-10
9.39259e-10
9.38614e-10
9.37967e-10
9.37319e-10
9.3667e-10
9.36019e-10
9.35368e-10
9.34715e-10
9.34061e-10
9.33405e-10
9.32749e-10
9.32091e-10
9.31432e-10
9.30772e-10
9.30111e-10
9.29448e-10
9.28785e-10
9.2812e-10
9.27455e-10
9.26788e-10
9.2612e-10
9.25451e-10
9.24781e-10
9.2411e-10
9.23438e-10
9.22765e-10
9.22091e-10
9.21416e-10
9.2074e-10
9.20063e-10
9.19385e-10
9.18706e-10
9.18025e-10
9.17343e-10
9.1666e-10
9.15975e-10
9.15288e-10
9.14599e-10
9.13909e-10
9.13216e-10
9.12521e-10
9.11823e-10
9.11122e-10
9.10418e-10
9.09711e-10
9.09001e-10
9.08287e-10
9.07569e-10
9.06847e-10
9.06122e-10
9.05392e-10
9.04659e-10
9.03922e-10
9.0318e-10
9.02435e-10
9.01686e-10
9.00934e-10
9.00179e-10
8.99422e-10
8.98661e-10
8.97899e-10
8.97135e-10
8.9637e-10
8.95605e-10
8.94839e-10
8.94074e-10
8.93311e-10
8.92549e-10
8.91789e-10
8.91032e-10
8.90278e-10
8.89528e-10
8.88783e-10
8.88042e-10
8.87307e-10
8.86577e-10
8.85853e-10
8.85134e-10
8.84421e-10
8.83715e-10
8.83014e-10
8.82318e-10
8.81628e-10
8.80943e-10
8.80262e-10
8.79586e-10
8.78913e-10
8.78243e-10
8.77576e-10
8.7691e-10
8.76245e-10
8.75581e-10
8.74917e-10
8.74252e-10
8.73587e-10
8.72919e-10
8.72249e-10
8.71577e-10
8.70902e-10
8.70224e-10
8.69543e-10
8.68858e-10
8.6817e-10
8.67478e-10
8.66782e-10
8.66083e-10
8.6538e-10
8.64673e-10
8.63964e-10
8.63251e-10
8.62535e-10
8.61816e-10
8.61094e-10
8.6037e-10
8.59644e-10
8.58915e-10
8.58184e-10
8.57452e-10
8.56717e-10
8.55981e-10
8.55243e-10
8.54504e-10
8.53764e-10
8.53022e-10
8.52279e-10
8.51535e-10
8.50789e-10
8.50043e-10
8.49296e-10
8.48547e-10
8.47798e-10
8.47047e-10
8.46295e-10
8.45542e-10
8.44788e-10
8.44033e-10
8.43277e-10
8.4252e-10
8.41761e-10
8.41001e-10
8.40239e-10
8.39477e-10
8.38713e-10
8.37947e-10
8.3718e-10
8.36412e-10
8.35642e-10
8.3487e-10
8.34097e-10
8.33322e-10
8.32546e-10
8.31768e-10
8.30988e-10
8.30207e-10
8.29424e-10
8.28639e-10
8.27852e-10
8.27064e-10
8.26274e-10
8.25482e-10
8.24688e-10
8.23892e-10
8.23095e-10
8.22295e-10
8.21494e-10
8.20691e-10
8.19886e-10
8.19079e-10
8.1827e-10
8.17459e-10
8.16646e-10
8.15832e-10
8.15015e-10
8.14197e-10
8.13376e-10
8.12553e-10
8.11729e-10
8.10902e-10
8.10074e-10
8.09243e-10
8.08411e-10
8.07577e-10
8.0674e-10
8.05902e-10
8.05062e-10
8.04219e-10
8.03375e-10
8.02529e-10
8.01681e-10
8.00831e-10
7.99978e-10
7.99124e-10
7.98268e-10
7.9741e-10
7.9655e-10
7.95688e-10
7.94824e-10
7.93958e-10
7.93089e-10
7.92219e-10
7.91347e-10
7.90472e-10
7.89595e-10
7.88716e-10
7.87835e-10
7.86951e-10
7.86065e-10
7.85176e-10
7.84285e-10
7.83391e-10
7.82494e-10
7.81594e-10
7.80691e-10
7.79785e-10
7.78876e-10
7.77964e-10
7.77048e-10
7.76128e-10
7.75205e-10
7.74279e-10
7.73348e-10
7.72414e-10
7.71476e-10
7.70534e-10
7.69588e-10
7.68638e-10
7.67684e-10
7.66726e-10
7.65765e-10
7.64799e-10
7.63831e-10
7.62858e-10
7.61883e-10
7.60904e-10
7.59922e-10
7.58937e-10
7.57949e-10
7.5696e-10
7.55968e-10
7.54974e-10
7.53978e-10
7.52981e-10
7.51983e-10
7.50984e-10
7.49984e-10
7.48984e-10
7.47984e-10
7.46984e-10
7.45984e-10
7.44985e-10
7.43986e-10
7.42989e-10
7.41992e-10
7.40996e-10
7.40001e-10
7.39007e-10
7.38015e-10
7.37023e-10
7.36032e-10
7.35042e-10
7.34052e-10
7.33063e-10
7.32074e-10
7.31085e-10
7.30096e-10
7.29106e-10
7.28115e-10
7.27123e-10
7.2613e-10
7.25134e-10
7.24136e-10
7.23136e-10
7.22132e-10
7.21126e-10
7.20116e-10
7.19102e-10
7.18085e-10
7.17063e-10
7.16038e-10
7.15007e-10
7.13972e-10
7.12932e-10
7.11888e-10
7.10838e-10
7.09784e-10
7.08725e-10
7.0766e-10
7.06591e-10
7.05517e-10
7.04438e-10
7.03354e-10
7.02266e-10
7.01173e-10
7.00076e-10
6.98974e-10
6.97867e-10
6.96757e-10
6.95642e-10
6.94524e-10
6.93402e-10
6.92276e-10
6.91146e-10
6.90013e-10
6.88878e-10
6.87739e-10
6.86598e-10
6.85454e-10
6.84308e-10
6.8316e-10
6.82011e-10
6.8086e-10
6.79709e-10
6.78558e-10
6.77408e-10
6.76258e-10
6.7511e-10
6.73966e-10
6.72825e-10
6.71688e-10
6.70558e-10
6.69436e-10
6.68322e-10
6.67219e-10
6.66129e-10
6.65053e-10
6.63994e-10
6.62955e-10
6.61937e-10
6.60943e-10
6.59976e-10
6.59038e-10
6.58133e-10
6.57263e-10
6.5643e-10
6.55637e-10
6.54885e-10
6.54177e-10
6.53513e-10
6.52896e-10
6.52324e-10
6.51799e-10
6.51319e-10
6.50883e-10
6.50491e-10
6.50141e-10
6.4983e-10
6.49557e-10
6.49317e-10
6.49109e-10
6.4893e-10
6.48777e-10
6.48648e-10
6.48539e-10
6.48447e-10
6.48371e-10
6.48307e-10
6.48254e-10
6.4821e-10
6.4817e-10
6.48132e-10
6.48087e-10
6.48028e-10
6.4794e-10
6.47795e-10
6.47545e-10
6.47101e-10
6.46311e-10
6.44899e-10
6.42384e-10
6.37934e-10
6.30156e-10
6.16866e-10
5.95017e-10
5.61302e-10
5.141e-10
4.56453e-10
3.97068e-10
3.46151e-10
3.09279e-10
2.85886e-10
2.72321e-10
2.64876e-10
2.60913e-10
2.58839e-10
2.57763e-10
2.57207e-10
2.56919e-10
2.5677e-10
2.56693e-10
2.56652e-10
2.56629e-10
2.56616e-10
2.56608e-10
2.56602e-10
2.56598e-10
2.56594e-10
2.5659e-10
2.56586e-10
2.56582e-10
2.56577e-10
2.56573e-10
2.56568e-10
2.56563e-10
2.56557e-10
2.56551e-10
2.56545e-10
2.56538e-10
2.56532e-10
2.56524e-10
2.56517e-10
2.56509e-10
2.565e-10
2.56492e-10
2.56483e-10
2.56473e-10
2.56463e-10
2.56453e-10
2.56443e-10
2.56432e-10
2.56421e-10
2.56409e-10
2.56397e-10
2.56385e-10
2.56373e-10
2.56361e-10
2.56349e-10
2.56336e-10
2.56323e-10
2.56311e-10
2.56298e-10
2.56285e-10
2.56273e-10
2.56261e-10
2.56249e-10
2.56237e-10
2.56225e-10
2.56214e-10
2.56203e-10
2.56193e-10
2.56183e-10
2.56174e-10
2.56165e-10
2.56157e-10
2.56149e-10
2.56143e-10
2.56137e-10
2.56132e-10
2.56127e-10
2.56124e-10
2.56121e-10
2.5612e-10
2.56119e-10
2.56119e-10
2.56118e-10
2.56119e-10
2.56121e-10
2.56124e-10
2.56127e-10
2.56132e-10
2.56137e-10
2.56143e-10
2.5615e-10
2.56157e-10
2.56165e-10
)
;

boundaryField
{
    inlet
    {
        type            calculated;
        value           uniform -1.13622e-09;
    }
    outlet
    {
        type            calculated;
        value           uniform 2.56173e-10;
    }
    emptyWalls
    {
        type            empty;
        value           nonuniform List<scalar> 0();
    }
}


// ************************************************************************* //
