/*--------------------------------*- C++ -*----------------------------------*\
  =========                 |
  \\      /  F ield         | OpenFOAM: The Open Source CFD Toolbox
   \\    /   O peration     | Website:  https://openfoam.org
    \\  /    A nd           | Version:  9
     \\/     M anipulation  |
\*---------------------------------------------------------------------------*/
FoamFile
{
    format      ascii;
    class       volScalarField;
    location    "11000";
    object      Sb;
}
// * * * * * * * * * * * * * * * * * * * * * * * * * * * * * * * * * * * * * //

dimensions      [0 0 0 0 0 0 0];

internalField   nonuniform List<scalar> 
1000
(
0.350392
0.351786
0.353023
0.354559
0.355838
0.357256
0.358544
0.359828
0.360964
0.362005
0.362903
0.363814
0.365343
0.370084
0.390128
0.516986
0.638449
0.661591
0.669255
0.673195
0.675724
0.677519
0.678869
0.679907
0.680712
0.681339
0.681822
0.682193
0.682471
0.682674
0.682804
0.682879
0.682886
0.682839
0.682718
0.682527
0.682253
0.681883
0.681389
0.680724
0.67982
0.678613
0.677079
0.6753
0.673387
0.671399
0.66937
0.667322
0.66527
0.663226
0.661196
0.659183
0.657191
0.655221
0.653276
0.651357
0.649466
0.647602
0.645767
0.643959
0.642177
0.640421
0.638688
0.636975
0.635283
0.633608
0.63195
0.630307
0.628679
0.627065
0.625466
0.623881
0.622311
0.620755
0.619214
0.617689
0.616179
0.614684
0.613204
0.61174
0.610291
0.608857
0.607437
0.606032
0.60464
0.603262
0.601897
0.600545
0.599205
0.597877
0.596562
0.595258
0.593965
0.592684
0.591413
0.590153
0.588904
0.587665
0.586435
0.585216
0.584007
0.582807
0.581616
0.580434
0.579262
0.578098
0.576944
0.575798
0.57466
0.57353
0.572409
0.571296
0.570191
0.569093
0.568004
0.566921
0.565847
0.564779
0.563719
0.562666
0.561619
0.56058
0.559547
0.558521
0.557501
0.556488
0.555481
0.55448
0.553486
0.552497
0.551515
0.550538
0.549567
0.548601
0.547642
0.546687
0.545739
0.544795
0.543857
0.542924
0.541996
0.541074
0.540156
0.539243
0.538335
0.537432
0.536534
0.53564
0.534751
0.533866
0.532986
0.532111
0.53124
0.530373
0.529511
0.528653
0.527798
0.526948
0.526102
0.52526
0.524422
0.523588
0.522757
0.521931
0.521107
0.520288
0.519472
0.51866
0.51785
0.517044
0.516242
0.515442
0.514645
0.513851
0.513059
0.51227
0.511484
0.5107
0.509919
0.509141
0.508365
0.507591
0.506821
0.506053
0.505288
0.504527
0.503769
0.503014
0.502262
0.501514
0.500771
0.500031
0.499295
0.498563
0.497835
0.497111
0.496392
0.495676
0.494963
0.494254
0.493549
0.492846
0.492146
0.491448
0.490752
0.490058
0.489366
0.488676
0.487987
0.487299
0.486613
0.485928
0.485244
0.484562
0.483881
0.483201
0.482522
0.481846
0.48117
0.480497
0.479824
0.479154
0.478486
0.477819
0.477154
0.47649
0.475829
0.475169
0.474512
0.473855
0.473201
0.472549
0.471898
0.471249
0.470601
0.469955
0.469311
0.468668
0.468027
0.467387
0.466749
0.466112
0.465476
0.464842
0.46421
0.463578
0.462948
0.462319
0.461692
0.461065
0.46044
0.459816
0.459193
0.458572
0.457951
0.457332
0.456714
0.456097
0.455481
0.454866
0.454252
0.453639
0.453027
0.452416
0.451806
0.451196
0.450588
0.449981
0.449375
0.448769
0.448165
0.447561
0.446958
0.446356
0.445755
0.445155
0.444555
0.443956
0.443358
0.44276
0.442163
0.441567
0.440972
0.440377
0.439783
0.43919
0.438597
0.438004
0.437412
0.436821
0.436231
0.43564
0.435051
0.434462
0.433873
0.433285
0.432697
0.432109
0.431522
0.430936
0.430349
0.429763
0.429178
0.428593
0.428008
0.427423
0.426838
0.426254
0.42567
0.425087
0.424503
0.42392
0.423337
0.422754
0.422171
0.421588
0.421005
0.420423
0.41984
0.419257
0.418675
0.418092
0.417509
0.416927
0.416344
0.415761
0.415177
0.414594
0.41401
0.413427
0.412842
0.412258
0.411673
0.411087
0.410502
0.409915
0.409328
0.408741
0.408153
0.407565
0.406975
0.406386
0.405795
0.405204
0.404613
0.404021
0.403428
0.402834
0.40224
0.401645
0.40105
0.400454
0.399858
0.399261
0.398664
0.398066
0.397467
0.396868
0.396269
0.395669
0.395068
0.394467
0.393865
0.393263
0.39266
0.392057
0.391452
0.390847
0.39024
0.389633
0.389025
0.388415
0.387805
0.387192
0.386579
0.385963
0.385346
0.384728
0.384107
0.383485
0.382861
0.382234
0.381606
0.380975
0.380343
0.379708
0.379071
0.378431
0.37779
0.377146
0.3765
0.375851
0.3752
0.374547
0.373892
0.373234
0.372574
0.371912
0.371248
0.370582
0.369913
0.369243
0.368572
0.3679
0.367226
0.366552
0.365878
0.365204
0.364532
0.363862
0.363196
0.362535
0.361881
0.361235
0.360599
0.359977
0.35937
0.358782
0.358216
0.357675
0.357161
0.356677
0.356226
0.35581
0.355431
0.355087
0.35478
0.354506
0.354263
0.354045
0.353842
0.353638
0.353406
0.353102
0.352648
0.351911
0.35066
0.348515
0.344886
0.338952
0.329837
0.317124
0.30163
0.285647
0.271872
0.26182
0.255396
0.251651
0.249588
0.248488
0.247912
0.247613
0.247459
0.24738
0.247339
0.247318
0.247307
0.247302
0.247299
0.247298
0.247297
0.247297
0.247296
0.247296
0.247296
0.247296
0.247296
0.247296
0.247296
0.247296
0.247296
0.247296
0.247296
0.247296
0.247296
0.247296
0.247296
0.247296
0.247296
0.247296
0.247296
0.247296
0.247296
0.247296
0.247296
0.247296
0.247296
0.247296
0.247296
0.247296
0.247296
0.247296
0.247295
0.247295
0.247295
0.247295
0.247295
0.247295
0.247295
0.247295
0.247294
0.247294
0.247294
0.247294
0.247294
0.247293
0.247293
0.247293
0.247292
0.247292
0.247292
0.247291
0.247291
0.247291
0.24729
0.24729
0.247289
0.247289
0.247288
0.247288
0.247287
0.247287
0.247286
0.247286
0.247285
0.247285
0.247284
0.247283
0.247283
0.247282
0.247281
0.24728
0.24728
0.247279
0.247278
0.247277
0.247276
0.247276
0.247275
0.247274
0.247273
0.247272
0.247271
0.24727
0.247269
0.247268
0.247268
0.247267
0.247266
0.247265
0.247264
0.247264
0.247263
0.247262
0.247262
0.247261
0.247261
0.24726
0.24726
0.24726
0.24726
0.24726
0.24726
0.24726
0.24726
0.24726
0.24726
0.24726
0.247261
0.247261
0.247262
0.247262
0.247263
0.247264
0.247265
0.247265
0.247266
0.247267
0.247268
0.247268
0.247269
0.24727
0.247271
0.247271
0.247272
0.247273
0.247273
0.247274
0.247274
0.247275
0.247276
0.247276
0.247276
0.247277
0.247277
0.247278
0.247278
0.247278
0.247278
0.247279
0.247279
0.247279
0.247279
0.24728
0.24728
0.24728
0.24728
0.24728
0.24728
0.247281
0.247281
0.247281
0.247281
0.247281
0.247281
0.247281
0.247282
0.247282
0.247282
0.247282
0.247282
0.247282
0.247283
0.247283
0.247283
0.247283
0.247283
0.247283
0.247283
0.247284
0.247284
0.247284
0.247284
0.247284
0.247284
0.247285
0.247285
0.247285
0.247285
0.247285
0.247285
0.247285
0.247285
0.247286
0.247286
0.247286
0.247286
0.247286
0.247286
0.247286
0.247286
0.247286
0.247286
0.247287
0.247287
0.247287
0.247287
0.247287
0.247287
0.247287
0.247287
0.247287
0.247287
0.247287
0.247287
0.247287
0.247287
0.247286
0.247286
0.247286
0.247286
0.247286
0.247286
0.247286
0.247286
0.247286
0.247286
0.247286
0.247287
0.247287
0.247287
0.247287
0.247287
0.247287
0.247287
0.247287
0.247288
0.247288
0.247288
0.247288
0.247288
0.247288
0.247288
0.247288
0.247288
0.247288
0.247288
0.247288
0.247288
0.247288
0.247288
0.247288
0.247288
0.247288
0.247288
0.247287
0.247287
0.247287
0.247287
0.247287
0.247287
0.247287
0.247286
0.247286
0.247286
0.247286
0.247286
0.247285
0.247285
0.247285
0.247285
0.247285
0.247284
0.247284
0.247284
0.247284
0.247283
0.247283
0.247283
0.247283
0.247282
0.247282
0.247281
0.247281
0.247281
0.24728
0.24728
0.247279
0.247279
0.247278
0.247278
0.247277
0.247277
0.247276
0.247276
0.247275
0.247274
0.247274
0.247273
0.247272
0.247272
0.247271
0.247271
0.24727
0.247269
0.247269
0.247268
0.247268
0.247267
0.247267
0.247266
0.247266
0.247265
0.247265
0.247265
0.247264
0.247264
0.247264
0.247264
0.247264
0.247264
0.247264
0.247264
0.247264
0.247264
0.247264
0.247265
0.247265
0.247265
0.247266
0.247266
0.247267
0.247268
0.247268
0.247269
0.247269
0.24727
0.247271
0.247271
0.247272
0.247272
0.247273
0.247273
0.247274
0.247275
0.247275
0.247276
0.247276
0.247276
0.247277
0.247277
0.247278
0.247278
0.247278
0.247279
0.247279
0.247279
0.247279
0.247279
0.24728
0.24728
0.24728
0.24728
0.24728
0.24728
0.247281
0.247281
0.247281
0.247281
0.247281
0.247281
0.247281
0.247281
0.247282
0.247282
0.247282
0.247282
0.247282
0.247282
0.247282
0.247282
0.247282
0.247283
0.247283
0.247283
0.247283
0.247283
0.247283
0.247283
0.247283
0.247284
0.247284
0.247284
0.247284
0.247284
0.247284
0.247284
0.247285
0.247285
0.247285
0.247285
0.247285
0.247285
0.247285
0.247285
0.247285
0.247286
0.247286
0.247286
0.247286
0.247286
0.247286
0.247286
0.247286
0.247286
0.247286
0.247286
0.247286
0.247286
0.247286
0.247286
0.247286
0.247286
0.247286
0.247287
0.247287
0.247287
0.247287
0.247287
0.247287
0.247287
0.247287
0.247287
0.247287
0.247287
0.247287
0.247287
0.247287
0.247287
0.247287
0.247287
0.247287
0.247287
0.247287
0.247287
0.247287
0.247287
0.247287
0.247287
0.247287
0.247287
0.247287
0.247287
0.247287
0.247287
0.247287
0.247287
0.247287
0.247286
0.247286
0.247286
0.247286
0.247286
0.247286
0.247286
0.247286
0.247286
0.247285
0.247285
0.247285
0.247285
0.247285
0.247285
0.247285
0.247284
0.247284
0.247284
0.247284
0.247284
0.247283
0.247283
0.247283
0.247283
0.247283
0.247282
0.247282
0.247282
0.247281
0.247281
0.247281
0.24728
0.24728
0.24728
0.247279
0.247279
0.247279
0.247278
0.247278
0.247277
0.247277
0.247276
0.247276
0.247275
0.247275
0.247274
0.247274
0.247273
0.247273
0.247272
0.247271
0.247271
0.24727
0.24727
0.247269
0.247269
0.247268
0.247268
0.247268
0.247267
0.247267
0.247266
0.247266
0.247266
0.247266
0.247265
0.247265
0.247265
0.247265
0.247265
0.247265
0.247265
0.247265
0.247265
0.247265
0.247266
0.247266
0.247266
0.247267
0.247267
0.247267
0.247268
0.247268
0.247268
0.247269
0.247269
0.24727
0.24727
0.247271
0.247271
0.247272
)
;

boundaryField
{
    inlet
    {
        type            fixedValue;
        value           uniform 0.35;
    }
    outlet
    {
        type            zeroGradient;
    }
    emptyWalls
    {
        type            empty;
    }
}


// ************************************************************************* //
