/*--------------------------------*- C++ -*----------------------------------*\
  =========                 |
  \\      /  F ield         | OpenFOAM: The Open Source CFD Toolbox
   \\    /   O peration     | Website:  https://openfoam.org
    \\  /    A nd           | Version:  9
     \\/     M anipulation  |
\*---------------------------------------------------------------------------*/
FoamFile
{
    format      ascii;
    class       volScalarField;
    location    "36000";
    object      krc;
}
// * * * * * * * * * * * * * * * * * * * * * * * * * * * * * * * * * * * * * //

dimensions      [0 0 0 0 0 0 0];

internalField   nonuniform List<scalar> 
100
(
1.13196e-24
2.71191e-25
4.40416e-25
4.9704e-25
1.21084e-25
3.46436e-25
1.28741e-25
4.24829e-26
4.32946e-25
1.93236e-25
5.12433e-25
9.95714e-26
2.10928e-30
2.52845e-26
9.31563e-25
1.07954e-26
3.57506e-26
5.65321e-25
3.33563e-24
5.44014e-24
6.52548e-24
1.37496e-23
1.96922e-23
2.45343e-23
5.285e-23
6.17981e-23
1.15713e-22
1.36482e-22
2.30318e-22
2.81698e-22
4.36004e-22
5.38253e-22
6.74808e-22
8.55213e-22
1.09939e-21
1.24818e-21
1.46619e-21
1.6345e-21
1.80874e-21
1.89121e-21
1.89781e-21
1.78426e-21
1.7026e-21
1.70365e-21
1.27237e-21
7.02952e-22
2.76859e-22
5.60581e-24
1.34439e-22
4.09509e-22
1.20946e-21
2.89618e-21
4.93652e-21
7.71419e-21
1.18225e-20
1.73933e-20
2.34437e-20
3.08186e-20
3.90919e-20
4.73814e-20
5.55882e-20
6.34448e-20
7.0478e-20
7.68883e-20
8.18659e-20
8.53973e-20
8.89098e-20
8.94645e-20
9.02748e-20
8.85772e-20
8.68553e-20
8.3199e-20
7.90979e-20
7.39099e-20
6.89061e-20
6.29626e-20
5.75217e-20
5.13821e-20
4.59953e-20
4.00006e-20
3.48483e-20
2.94019e-20
2.53855e-20
2.13783e-20
1.78697e-20
1.46554e-20
1.20214e-20
9.71304e-21
7.61854e-21
6.03191e-21
4.47615e-21
3.32482e-21
2.77311e-21
1.04526e-21
4.67304e-21
3.13744e-20
4.08528e-19
8.3615e-18
1.05972e-16
5.60591e-16
)
;

boundaryField
{
    inlet
    {
        type            calculated;
        value           uniform 1.13196e-24;
    }
    outlet
    {
        type            calculated;
        value           uniform 5.60591e-16;
    }
    emptyWalls
    {
        type            empty;
    }
}


// ************************************************************************* //
