/*--------------------------------*- C++ -*----------------------------------*\
  =========                 |
  \\      /  F ield         | OpenFOAM: The Open Source CFD Toolbox
   \\    /   O peration     | Website:  https://openfoam.org
    \\  /    A nd           | Version:  9
     \\/     M anipulation  |
\*---------------------------------------------------------------------------*/
FoamFile
{
    format      ascii;
    class       volScalarField;
    location    "29350";
    object      Fb;
}
// * * * * * * * * * * * * * * * * * * * * * * * * * * * * * * * * * * * * * //

dimensions      [0 0 0 0 0 0 0];

internalField   nonuniform List<scalar> 
1000
(
0.805224
0.805165
0.805236
0.805164
0.80525
0.80518
0.805253
0.805212
0.805245
0.805246
0.805252
0.805271
0.805283
0.805297
0.80532
0.805334
0.805353
0.805383
0.80539
0.805441
0.805426
0.805504
0.805459
0.80556
0.805507
0.805598
0.805574
0.80563
0.805638
0.805668
0.805683
0.805706
0.805718
0.805736
0.805746
0.805759
0.805767
0.805777
0.805816
0.8059
0.806439
0.811194
0.828532
0.831708
0.831779
0.831396
0.831644
0.832354
0.833033
0.833935
0.834668
0.835147
0.835443
0.835574
0.835494
0.835435
0.835408
0.835415
0.835453
0.835511
0.835582
0.835663
0.835742
0.835826
0.835902
0.83598
0.836047
0.836119
0.836177
0.836242
0.836291
0.836349
0.83639
0.83644
0.836477
0.836519
0.836548
0.836584
0.836606
0.836633
0.836649
0.836669
0.836681
0.836696
0.836706
0.836713
0.836719
0.83672
0.836717
0.836709
0.836696
0.836677
0.836655
0.83663
0.836605
0.83658
0.836554
0.836528
0.836498
0.836466
0.836428
0.836385
0.836335
0.836277
0.836211
0.836138
0.836063
0.835976
0.835896
0.835805
0.835715
0.835613
0.83551
0.835384
0.835243
0.835072
0.834883
0.834664
0.83443
0.83416
0.833865
0.833523
0.833155
0.832747
0.832333
0.831904
0.831492
0.831077
0.830685
0.830291
0.829922
0.829556
0.829224
0.828907
0.828638
0.828394
0.828204
0.828039
0.827924
0.827824
0.827759
0.827693
0.827646
0.827584
0.827525
0.82744
0.82735
0.827228
0.827097
0.826935
0.826765
0.826567
0.826364
0.826139
0.825913
0.825672
0.825434
0.825186
0.824943
0.824695
0.824454
0.824209
0.823973
0.823733
0.823502
0.823267
0.82304
0.822809
0.822585
0.822356
0.822135
0.821906
0.821686
0.821457
0.821237
0.821007
0.820787
0.820554
0.820333
0.820098
0.819877
0.819639
0.819416
0.819176
0.818952
0.818708
0.818483
0.818236
0.818009
0.81776
0.817532
0.81728
0.81705
0.816796
0.816565
0.816308
0.816076
0.815816
0.815583
0.81532
0.815084
0.814818
0.814579
0.81431
0.814069
0.813798
0.813555
0.813281
0.813037
0.812763
0.812518
0.812242
0.811996
0.811718
0.81147
0.811191
0.81094
0.810658
0.810405
0.810119
0.809864
0.809576
0.809319
0.809031
0.808773
0.808486
0.80823
0.807944
0.807691
0.807407
0.807155
0.806871
0.806615
0.806325
0.806061
0.805759
0.805479
0.805158
0.804859
0.804517
0.804195
0.80383
0.803486
0.803102
0.80274
0.80234
0.801967
0.801558
0.801181
0.800773
0.8004
0.800003
0.799646
0.79927
0.798939
0.798592
0.798295
0.797986
0.797727
0.797457
0.797237
0.797003
0.796817
0.796613
0.796452
0.796266
0.796119
0.795941
0.795796
0.795616
0.795464
0.795272
0.795106
0.794899
0.794715
0.79449
0.794289
0.794047
0.79383
0.793573
0.793343
0.793075
0.792836
0.79256
0.792315
0.792035
0.791787
0.791506
0.791257
0.790975
0.790727
0.790447
0.7902
0.789921
0.789676
0.789398
0.789155
0.788878
0.788636
0.78836
0.788119
0.787844
0.787602
0.787327
0.787085
0.786809
0.786567
0.78629
0.786047
0.785769
0.785525
0.785246
0.785
0.78472
0.784473
0.784191
0.783943
0.78366
0.78341
0.783125
0.782874
0.782588
0.782335
0.782047
0.781792
0.781503
0.781247
0.780956
0.780698
0.780405
0.780145
0.77985
0.779589
0.779293
0.77903
0.778732
0.778467
0.778168
0.777902
0.777601
0.777334
0.777032
0.776763
0.77646
0.77619
0.775885
0.775613
0.775307
0.775034
0.774725
0.774451
0.774142
0.773866
0.773556
0.77328
0.772969
0.772693
0.772382
0.772106
0.771795
0.771519
0.771207
0.770929
0.770615
0.770334
0.770015
0.769729
0.769404
0.76911
0.768777
0.768473
0.768129
0.767814
0.767458
0.767131
0.766763
0.766425
0.766045
0.765697
0.765308
0.764951
0.764557
0.764196
0.763799
0.763438
0.763044
0.762688
0.762302
0.761956
0.761582
0.761251
0.760894
0.760582
0.760244
0.759954
0.759638
0.75937
0.759076
0.758828
0.758554
0.758325
0.758066
0.757851
0.757604
0.757397
0.757156
0.756952
0.756713
0.756508
0.756265
0.756055
0.755805
0.755588
0.75533
0.755103
0.754836
0.7546
0.754324
0.754079
0.753794
0.753542
0.753251
0.752993
0.752696
0.752433
0.752132
0.751866
0.751563
0.751295
0.75099
0.750721
0.750416
0.750147
0.749842
0.749573
0.749268
0.748999
0.748695
0.748427
0.748122
0.747854
0.74755
0.747282
0.746978
0.746711
0.746406
0.746138
0.745833
0.745565
0.74526
0.744991
0.744684
0.744414
0.744107
0.743836
0.743528
0.743256
0.742947
0.742674
0.742363
0.742089
0.741777
0.741502
0.741189
0.740912
0.740598
0.74032
0.740004
0.739724
0.739407
0.739126
0.738807
0.738525
0.738205
0.737921
0.7376
0.737314
0.736992
0.736705
0.736381
0.736093
0.735768
0.735479
0.735152
0.734862
0.734534
0.734242
0.733913
0.73362
0.73329
0.732996
0.732664
0.732369
0.732036
0.73174
0.731407
0.73111
0.730775
0.730478
0.730142
0.729844
0.729508
0.729209
0.728871
0.728571
0.728232
0.72793
0.727589
0.727284
0.726939
0.726631
0.726282
0.725969
0.725615
0.725297
0.724937
0.724611
0.724245
0.723912
0.723538
0.723199
0.722818
0.722471
0.722083
0.72173
0.721336
0.720978
0.72058
0.720219
0.719819
0.719457
0.719057
0.718696
0.718298
0.717941
0.717549
0.717199
0.716814
0.716473
0.716099
0.715768
0.715406
0.715088
0.714739
0.714434
0.714098
0.713806
0.713482
0.713203
0.712891
0.712622
0.712319
0.712059
0.711763
0.711508
0.711216
0.710964
0.710674
0.710423
0.710132
0.709879
0.709586
0.709329
0.709032
0.708771
0.708468
0.708202
0.707894
0.707622
0.707309
0.707032
0.706714
0.706432
0.706109
0.705823
0.705497
0.705208
0.704878
0.704586
0.704255
0.703961
0.703627
0.703332
0.702998
0.702702
0.702366
0.70207
0.701734
0.701437
0.701101
0.700803
0.700467
0.700169
0.699833
0.699535
0.699198
0.6989
0.698563
0.698264
0.697926
0.697627
0.697289
0.696989
0.69665
0.69635
0.69601
0.695708
0.695368
0.695065
0.694724
0.69442
0.694077
0.693773
0.693429
0.693123
0.692778
0.692471
0.692125
0.691817
0.691469
0.69116
0.69081
0.6905
0.690149
0.689837
0.689486
0.689172
0.688819
0.688505
0.68815
0.687834
0.687479
0.687162
0.686805
0.686486
0.686128
0.685808
0.685449
0.685128
0.684767
0.684445
0.684083
0.68376
0.683397
0.683072
0.682708
0.682382
0.682017
0.68169
0.681324
0.680997
0.680629
0.680301
0.679932
0.679602
0.679233
0.678902
0.678531
0.678199
0.677827
0.677493
0.677118
0.676782
0.676406
0.676067
0.675688
0.675346
0.674964
0.674619
0.674232
0.673883
0.673492
0.673139
0.672743
0.672385
0.671985
0.671622
0.671216
0.670849
0.670439
0.670067
0.669653
0.669278
0.66886
0.668482
0.668062
0.667682
0.667261
0.66688
0.666459
0.666078
0.665659
0.665281
0.664864
0.664489
0.664077
0.663707
0.663301
0.662937
0.662537
0.662181
0.661789
0.66144
0.661056
0.660716
0.66034
0.660008
0.659639
0.659315
0.658954
0.658636
0.658281
0.657969
0.657619
0.657311
0.656965
0.65666
0.656315
0.656012
0.655668
0.655364
0.655019
0.654714
0.654368
0.65406
0.653712
0.653401
0.653049
0.652735
0.65238
0.652062
0.651703
0.651382
0.651019
0.650695
0.650329
0.650001
0.649632
0.649302
0.64893
0.648597
0.648223
0.647888
0.647512
0.647175
0.646798
0.64646
0.646081
0.645741
0.645361
0.645021
0.64464
0.644299
0.643917
0.643575
0.643192
0.64285
0.642466
0.642123
0.641739
0.641394
0.64101
0.640665
0.640279
0.639933
0.639547
0.6392
0.638812
0.638464
0.638076
0.637727
0.637337
0.636987
0.636596
0.636245
0.635853
0.6355
0.635107
0.634753
0.634359
0.634003
0.633608
0.633251
0.632854
0.632496
0.632097
0.631738
0.631338
0.630977
0.630576
0.630213
0.629811
0.629447
0.629043
0.628678
0.628272
0.627906
0.627498
0.627131
0.626722
0.626353
0.625943
0.625573
0.625161
0.624789
0.624376
0.624004
0.623589
0.623215
0.622799
0.622424
0.622007
0.62163
0.621212
0.620834
0.620414
0.620035
0.619613
0.619234
0.61881
0.618429
0.618004
0.617622
0.617194
0.616811
0.616381
0.615996
0.615564
0.615177
0.614743
0.614354
0.613916
0.613525
0.613083
0.612691
0.612244
0.61185
0.611399
0.611003
0.610546
0.610148
0.609687
0.609286
0.608821
0.608416
0.607948
0.607539
0.607068
0.606655
0.606182
0.605767
0.60529
0.604874
0.604395
0.603978
0.603498
0.603079
0.602599
0.60218
0.6017
0.601282
0.6008
0.600387
0.599902
0.599498
0.599008
0.598615
0.598118
0.597742
0.597233
0.596879
0.596354
0.596026
0.595484
0.59518
0.594622
0.594343
0.593772
0.593517
0.592932
0.592701
0.5921
0.591892
0.591276
0.591087
0.590456
0.590285
0.58964
0.589484
0.588826
0.588682
0.588013
0.587878
0.587199
0.58707
0.586383
0.586258
0.585564
0.585441
0.584739
0.584618
0.583911
0.583788
0.583077
0.582951
0.582237
0.582107
0.581392
0.581258
0.580541
0.580404
0.579684
0.579544
0.578821
0.578678
0.577954
0.577808
0.577083
0.576934
0.576207
0.576057
0.575327
0.575175
0.574444
0.57429
0.573558
0.573401
0.572669
0.572509
0.571778
0.571613
0.570883
0.570714
0.569985
0.569814
0.569083
0.568909
0.568178
0.568002
0.567271
0.567091
0.566359
0.566177
0.565444
0.565261
0.564525
0.56434
0.563602
0.563416
0.562677
0.562487
0.561748
0.561554
0.560816
0.560617
0.559879
0.559677
0.558937
0.558733
0.557991
0.557784
0.557042
0.556831
0.556088
0.555875
0.555129
0.554915
0.554166
0.55395
0.553197
0.552982
0.552225
0.552009
0.551249
0.55103
0.55027
0.550046
0.549286
0.54906
0.548296
0.548069
0.547302
0.547072
0.546305
0.546072
0.545302
0.545067
0.544295
0.544057
0.543283
0.543044
0.542265
0.542027
0.541242
0.541004
0.540216
0.539974
0.539186
0.538997
0.00665697
)
;

boundaryField
{
    inlet
    {
        type            calculated;
        value           uniform 0.805169;
    }
    outlet
    {
        type            calculated;
        value           uniform 0.590958;
    }
    emptyWalls
    {
        type            empty;
    }
}


// ************************************************************************* //
