/*--------------------------------*- C++ -*----------------------------------*\
  =========                 |
  \\      /  F ield         | OpenFOAM: The Open Source CFD Toolbox
   \\    /   O peration     | Website:  https://openfoam.org
    \\  /    A nd           | Version:  9
     \\/     M anipulation  |
\*---------------------------------------------------------------------------*/
FoamFile
{
    format      ascii;
    class       surfaceScalarField;
    location    "2200";
    object      phia;
}
// * * * * * * * * * * * * * * * * * * * * * * * * * * * * * * * * * * * * * //

dimensions      [0 2 0 0 0 0 0];

internalField   nonuniform List<scalar> 
999
(
2.74187e-10
2.69325e-10
2.378e-10
2.10482e-10
2.05591e-10
2.04118e-10
2.03325e-10
2.03218e-10
2.03685e-10
2.0405e-10
2.04282e-10
2.04386e-10
2.0438e-10
2.04295e-10
2.04154e-10
2.03978e-10
2.03778e-10
2.03568e-10
2.03349e-10
2.0313e-10
2.02911e-10
2.02694e-10
2.02481e-10
2.02266e-10
2.02055e-10
2.01838e-10
2.01623e-10
2.01405e-10
2.01184e-10
2.00964e-10
2.0074e-10
2.00519e-10
2.00294e-10
2.00069e-10
1.99845e-10
1.99618e-10
1.99395e-10
1.9917e-10
1.98947e-10
1.98725e-10
1.98503e-10
1.98282e-10
1.98061e-10
1.9784e-10
1.97623e-10
1.97407e-10
1.97194e-10
1.96984e-10
1.96775e-10
1.96567e-10
1.96358e-10
1.96147e-10
1.95934e-10
1.95719e-10
1.95502e-10
1.95286e-10
1.9507e-10
1.94857e-10
1.94648e-10
1.94443e-10
1.94244e-10
1.94049e-10
1.93857e-10
1.93671e-10
1.93485e-10
1.93302e-10
1.93119e-10
1.92935e-10
1.92752e-10
1.92566e-10
1.92378e-10
1.92189e-10
1.91997e-10
1.91803e-10
1.91606e-10
1.91408e-10
1.91208e-10
1.91007e-10
1.90805e-10
1.906e-10
1.90389e-10
1.90164e-10
1.89908e-10
1.89591e-10
1.89167e-10
1.88588e-10
1.87838e-10
1.86992e-10
1.86223e-10
1.85678e-10
1.85366e-10
1.85206e-10
1.85123e-10
1.85074e-10
1.8504e-10
1.85011e-10
1.84985e-10
1.84958e-10
1.84933e-10
1.84907e-10
1.84882e-10
1.84857e-10
1.84834e-10
1.84812e-10
1.84792e-10
1.84773e-10
1.84757e-10
1.84744e-10
1.84733e-10
1.84726e-10
1.84723e-10
1.84721e-10
1.84721e-10
1.84722e-10
1.84727e-10
1.84736e-10
1.84747e-10
1.8476e-10
1.84774e-10
1.8479e-10
1.84806e-10
1.84824e-10
1.84843e-10
1.84863e-10
1.84885e-10
1.84907e-10
1.84931e-10
1.84956e-10
1.84983e-10
1.85013e-10
1.85046e-10
1.85083e-10
1.85125e-10
1.85173e-10
1.85228e-10
1.85291e-10
1.85364e-10
1.85447e-10
1.85542e-10
1.8565e-10
1.85772e-10
1.85909e-10
1.8606e-10
1.86228e-10
1.8641e-10
1.86609e-10
1.86822e-10
1.87049e-10
1.8729e-10
1.87542e-10
1.87804e-10
1.88074e-10
1.88349e-10
1.88628e-10
1.88905e-10
1.89178e-10
1.89441e-10
1.89689e-10
1.89916e-10
1.90116e-10
1.90279e-10
1.90398e-10
1.90467e-10
1.90492e-10
1.90496e-10
1.90484e-10
1.90424e-10
1.90184e-10
1.89873e-10
1.89487e-10
1.89028e-10
1.88502e-10
1.87919e-10
1.8729e-10
1.86629e-10
1.85953e-10
1.85276e-10
1.84617e-10
1.83988e-10
1.83405e-10
1.82877e-10
1.82413e-10
1.82018e-10
1.81693e-10
1.8144e-10
1.81256e-10
1.81137e-10
1.81078e-10
1.81059e-10
1.81058e-10
1.81075e-10
1.81179e-10
1.81333e-10
1.81509e-10
1.81699e-10
1.81897e-10
1.82098e-10
1.82299e-10
1.82495e-10
1.82684e-10
1.82862e-10
1.83028e-10
1.83181e-10
1.8332e-10
1.83443e-10
1.83552e-10
1.83646e-10
1.83726e-10
1.83792e-10
1.83846e-10
1.83888e-10
1.83921e-10
1.83944e-10
1.8396e-10
1.83969e-10
1.83973e-10
1.83974e-10
1.83973e-10
1.8397e-10
1.83959e-10
1.83948e-10
1.83937e-10
1.83925e-10
1.83914e-10
1.83904e-10
1.83895e-10
1.83887e-10
1.8388e-10
1.83874e-10
1.83869e-10
1.83865e-10
1.83862e-10
1.83859e-10
1.83857e-10
1.83855e-10
1.83853e-10
1.83851e-10
1.83848e-10
1.83845e-10
1.8384e-10
1.83835e-10
1.83827e-10
1.83819e-10
1.83809e-10
1.83797e-10
1.83783e-10
1.83768e-10
1.83751e-10
1.83732e-10
1.83711e-10
1.83689e-10
1.83665e-10
1.83639e-10
1.83612e-10
1.83583e-10
1.83553e-10
1.83521e-10
1.83488e-10
1.83453e-10
1.83418e-10
1.83381e-10
1.83343e-10
1.83304e-10
1.83264e-10
1.83223e-10
1.83182e-10
1.8314e-10
1.83098e-10
1.83056e-10
1.83014e-10
1.82972e-10
1.82931e-10
1.82891e-10
1.82852e-10
1.82815e-10
1.8278e-10
1.82746e-10
1.82716e-10
1.82688e-10
1.82664e-10
1.82643e-10
1.82627e-10
1.82615e-10
1.82609e-10
1.82606e-10
1.82606e-10
1.82607e-10
1.82612e-10
1.82634e-10
1.8266e-10
1.82694e-10
1.82733e-10
1.8278e-10
1.82832e-10
1.82892e-10
1.82959e-10
1.83032e-10
1.83111e-10
1.83198e-10
1.8329e-10
1.83388e-10
1.83493e-10
1.83603e-10
1.83719e-10
1.83839e-10
1.83965e-10
1.84095e-10
1.8423e-10
1.84368e-10
1.8451e-10
1.84655e-10
1.84802e-10
1.84952e-10
1.85104e-10
1.85257e-10
1.85411e-10
1.85566e-10
1.85721e-10
1.85876e-10
1.86031e-10
1.86186e-10
1.8634e-10
1.86494e-10
1.86647e-10
1.86799e-10
1.86951e-10
1.87103e-10
1.87255e-10
1.87407e-10
1.8756e-10
1.87715e-10
1.87872e-10
1.88032e-10
1.88195e-10
1.88363e-10
1.88536e-10
1.88715e-10
1.88901e-10
1.89095e-10
1.89297e-10
1.89509e-10
1.89732e-10
1.89965e-10
1.90209e-10
1.90465e-10
1.90732e-10
1.91011e-10
1.91302e-10
1.91602e-10
1.91913e-10
1.92232e-10
1.92557e-10
1.92887e-10
1.93217e-10
1.93545e-10
1.93867e-10
1.94179e-10
1.94476e-10
1.94748e-10
1.94981e-10
1.95156e-10
1.95259e-10
1.95294e-10
1.95301e-10
1.95253e-10
1.95154e-10
1.94522e-10
1.92347e-10
1.80462e-10
5.7236e-11
1.484e-12
1.58503e-16
2.68909e-25
2.73158e-44
1.78073e-84
5.72633e-171
0
0
0
0
0
0
0
0
0
0
0
0
0
0
0
0
0
0
0
0
0
0
0
0
0
0
0
0
0
0
0
0
0
0
0
0
0
0
0
0
0
0
0
0
0
0
0
0
0
0
0
0
0
0
0
0
0
0
0
0
0
0
0
0
0
0
0
0
0
0
0
0
0
0
0
0
0
0
0
0
0
0
0
0
0
0
0
0
0
0
0
0
0
0
0
0
0
0
0
0
0
0
0
0
0
0
0
0
0
0
0
0
0
0
0
0
0
0
0
0
0
0
0
0
0
0
0
0
0
0
0
0
0
0
0
0
0
0
0
0
0
0
0
0
0
0
0
0
0
0
0
0
0
0
0
0
0
0
0
0
0
0
0
0
0
0
0
0
0
0
0
0
0
0
0
0
0
0
0
0
0
0
0
0
0
0
0
0
0
0
0
0
0
0
0
0
0
0
0
0
0
0
0
0
0
0
0
0
0
0
0
0
0
0
0
0
0
0
0
0
0
0
0
0
0
0
0
0
0
0
0
0
0
0
0
0
0
0
0
0
0
0
0
0
0
0
0
0
0
0
0
0
0
0
0
0
0
0
0
0
0
0
0
0
0
0
0
0
0
0
0
0
0
0
0
0
0
0
0
0
0
0
0
0
0
0
0
0
0
0
0
0
0
0
0
0
0
0
0
0
0
0
0
0
0
0
0
0
0
0
0
0
0
0
0
0
0
0
0
0
0
0
0
0
0
0
0
0
0
0
0
0
0
0
0
0
0
0
0
0
0
0
0
0
0
0
0
0
0
0
0
0
0
0
0
0
0
0
0
0
0
0
0
0
0
0
0
0
0
0
0
0
0
0
0
0
0
0
0
0
0
0
0
0
0
0
0
0
0
0
0
0
0
0
0
0
0
0
0
0
0
0
0
0
0
0
0
0
0
0
0
0
0
0
0
0
0
0
0
0
0
0
0
0
0
0
0
0
0
0
0
0
0
0
0
0
0
0
0
0
0
0
0
0
0
0
0
0
0
0
0
0
0
0
0
0
0
0
0
0
0
0
0
0
0
0
0
0
0
0
0
0
0
0
0
0
0
0
0
0
0
0
0
0
0
0
0
0
0
0
0
0
0
0
0
0
0
0
0
0
0
0
0
0
0
0
0
0
0
0
0
0
0
0
0
0
0
0
0
0
0
0
0
0
0
0
0
0
0
0
0
0
0
0
0
0
0
0
0
0
0
0
0
0
0
0
0
0
0
0
0
0
0
0
0
0
0
0
0
0
0
0
0
0
0
0
0
0
0
0
0
0
0
0
0
0
0
0
0
0
0
0
0
0
0
0
0
0
0
0
0
0
0
0
0
0
0
0
0
0
0
0
0
0
0
0
0
0
0
0
0
0
0
0
0
0
0
0
0
0
0
0
0
)
;

boundaryField
{
    inlet
    {
        type            calculated;
        value           uniform -2.74882e-10;
    }
    outlet
    {
        type            calculated;
        value           uniform 0;
    }
    emptyWalls
    {
        type            empty;
        value           nonuniform List<scalar> 0();
    }
}


// ************************************************************************* //
