/*--------------------------------*- C++ -*----------------------------------*\
  =========                 |
  \\      /  F ield         | OpenFOAM: The Open Source CFD Toolbox
   \\    /   O peration     | Website:  https://openfoam.org
    \\  /    A nd           | Version:  9
     \\/     M anipulation  |
\*---------------------------------------------------------------------------*/
FoamFile
{
    format      ascii;
    class       volVectorField;
    location    "2200";
    object      Ua;
}
// * * * * * * * * * * * * * * * * * * * * * * * * * * * * * * * * * * * * * //

dimensions      [0 0 0 0 0 0 0];

internalField   nonuniform List<vector> 
1000
(
(2.74557e-06 0 0)
(2.71756e-06 0 0)
(2.53562e-06 0 0)
(2.24141e-06 0 0)
(2.08036e-06 0 0)
(2.04854e-06 0 0)
(2.03722e-06 0 0)
(2.03271e-06 0 0)
(2.03451e-06 0 0)
(2.03867e-06 0 0)
(2.04166e-06 0 0)
(2.04334e-06 0 0)
(2.04383e-06 0 0)
(2.04338e-06 0 0)
(2.04224e-06 0 0)
(2.04066e-06 0 0)
(2.03878e-06 0 0)
(2.03673e-06 0 0)
(2.03459e-06 0 0)
(2.0324e-06 0 0)
(2.03021e-06 0 0)
(2.02803e-06 0 0)
(2.02588e-06 0 0)
(2.02373e-06 0 0)
(2.0216e-06 0 0)
(2.01946e-06 0 0)
(2.01731e-06 0 0)
(2.01514e-06 0 0)
(2.01294e-06 0 0)
(2.01074e-06 0 0)
(2.00852e-06 0 0)
(2.00629e-06 0 0)
(2.00406e-06 0 0)
(2.00181e-06 0 0)
(1.99957e-06 0 0)
(1.99731e-06 0 0)
(1.99506e-06 0 0)
(1.99282e-06 0 0)
(1.99058e-06 0 0)
(1.98836e-06 0 0)
(1.98614e-06 0 0)
(1.98392e-06 0 0)
(1.98171e-06 0 0)
(1.97951e-06 0 0)
(1.97732e-06 0 0)
(1.97515e-06 0 0)
(1.97301e-06 0 0)
(1.97089e-06 0 0)
(1.96879e-06 0 0)
(1.96671e-06 0 0)
(1.96462e-06 0 0)
(1.96252e-06 0 0)
(1.9604e-06 0 0)
(1.95827e-06 0 0)
(1.95611e-06 0 0)
(1.95394e-06 0 0)
(1.95178e-06 0 0)
(1.94964e-06 0 0)
(1.94753e-06 0 0)
(1.94546e-06 0 0)
(1.94343e-06 0 0)
(1.94146e-06 0 0)
(1.93953e-06 0 0)
(1.93764e-06 0 0)
(1.93578e-06 0 0)
(1.93394e-06 0 0)
(1.9321e-06 0 0)
(1.93027e-06 0 0)
(1.92844e-06 0 0)
(1.92659e-06 0 0)
(1.92472e-06 0 0)
(1.92284e-06 0 0)
(1.92093e-06 0 0)
(1.919e-06 0 0)
(1.91705e-06 0 0)
(1.91507e-06 0 0)
(1.91308e-06 0 0)
(1.91108e-06 0 0)
(1.90906e-06 0 0)
(1.90702e-06 0 0)
(1.90494e-06 0 0)
(1.90277e-06 0 0)
(1.90036e-06 0 0)
(1.8975e-06 0 0)
(1.89379e-06 0 0)
(1.88878e-06 0 0)
(1.88213e-06 0 0)
(1.87415e-06 0 0)
(1.86608e-06 0 0)
(1.85951e-06 0 0)
(1.85522e-06 0 0)
(1.85286e-06 0 0)
(1.85165e-06 0 0)
(1.85099e-06 0 0)
(1.85057e-06 0 0)
(1.85026e-06 0 0)
(1.84998e-06 0 0)
(1.84972e-06 0 0)
(1.84946e-06 0 0)
(1.8492e-06 0 0)
(1.84895e-06 0 0)
(1.84869e-06 0 0)
(1.84845e-06 0 0)
(1.84823e-06 0 0)
(1.84802e-06 0 0)
(1.84782e-06 0 0)
(1.84765e-06 0 0)
(1.8475e-06 0 0)
(1.84738e-06 0 0)
(1.8473e-06 0 0)
(1.84724e-06 0 0)
(1.84722e-06 0 0)
(1.84721e-06 0 0)
(1.84722e-06 0 0)
(1.84725e-06 0 0)
(1.84732e-06 0 0)
(1.84742e-06 0 0)
(1.84754e-06 0 0)
(1.84767e-06 0 0)
(1.84782e-06 0 0)
(1.84798e-06 0 0)
(1.84815e-06 0 0)
(1.84834e-06 0 0)
(1.84853e-06 0 0)
(1.84874e-06 0 0)
(1.84896e-06 0 0)
(1.84919e-06 0 0)
(1.84943e-06 0 0)
(1.8497e-06 0 0)
(1.84998e-06 0 0)
(1.8503e-06 0 0)
(1.85065e-06 0 0)
(1.85104e-06 0 0)
(1.85149e-06 0 0)
(1.85201e-06 0 0)
(1.8526e-06 0 0)
(1.85327e-06 0 0)
(1.85405e-06 0 0)
(1.85494e-06 0 0)
(1.85596e-06 0 0)
(1.85711e-06 0 0)
(1.8584e-06 0 0)
(1.85984e-06 0 0)
(1.86144e-06 0 0)
(1.86319e-06 0 0)
(1.8651e-06 0 0)
(1.86715e-06 0 0)
(1.86936e-06 0 0)
(1.8717e-06 0 0)
(1.87416e-06 0 0)
(1.87673e-06 0 0)
(1.87939e-06 0 0)
(1.88212e-06 0 0)
(1.88488e-06 0 0)
(1.88766e-06 0 0)
(1.89041e-06 0 0)
(1.89309e-06 0 0)
(1.89565e-06 0 0)
(1.89803e-06 0 0)
(1.90016e-06 0 0)
(1.90197e-06 0 0)
(1.90338e-06 0 0)
(1.90433e-06 0 0)
(1.9048e-06 0 0)
(1.90494e-06 0 0)
(1.9049e-06 0 0)
(1.90454e-06 0 0)
(1.90304e-06 0 0)
(1.90028e-06 0 0)
(1.8968e-06 0 0)
(1.89257e-06 0 0)
(1.88765e-06 0 0)
(1.8821e-06 0 0)
(1.87604e-06 0 0)
(1.8696e-06 0 0)
(1.86291e-06 0 0)
(1.85615e-06 0 0)
(1.84946e-06 0 0)
(1.84302e-06 0 0)
(1.83697e-06 0 0)
(1.83141e-06 0 0)
(1.82645e-06 0 0)
(1.82216e-06 0 0)
(1.81856e-06 0 0)
(1.81567e-06 0 0)
(1.81348e-06 0 0)
(1.81196e-06 0 0)
(1.81107e-06 0 0)
(1.81068e-06 0 0)
(1.81059e-06 0 0)
(1.81067e-06 0 0)
(1.81127e-06 0 0)
(1.81256e-06 0 0)
(1.81421e-06 0 0)
(1.81604e-06 0 0)
(1.81798e-06 0 0)
(1.81998e-06 0 0)
(1.82199e-06 0 0)
(1.82397e-06 0 0)
(1.82589e-06 0 0)
(1.82773e-06 0 0)
(1.82945e-06 0 0)
(1.83105e-06 0 0)
(1.8325e-06 0 0)
(1.83382e-06 0 0)
(1.83498e-06 0 0)
(1.83599e-06 0 0)
(1.83686e-06 0 0)
(1.83759e-06 0 0)
(1.83819e-06 0 0)
(1.83867e-06 0 0)
(1.83904e-06 0 0)
(1.83932e-06 0 0)
(1.83952e-06 0 0)
(1.83964e-06 0 0)
(1.83971e-06 0 0)
(1.83973e-06 0 0)
(1.83973e-06 0 0)
(1.83972e-06 0 0)
(1.83965e-06 0 0)
(1.83954e-06 0 0)
(1.83942e-06 0 0)
(1.83931e-06 0 0)
(1.8392e-06 0 0)
(1.83909e-06 0 0)
(1.83899e-06 0 0)
(1.83891e-06 0 0)
(1.83883e-06 0 0)
(1.83877e-06 0 0)
(1.83871e-06 0 0)
(1.83867e-06 0 0)
(1.83863e-06 0 0)
(1.83861e-06 0 0)
(1.83858e-06 0 0)
(1.83856e-06 0 0)
(1.83854e-06 0 0)
(1.83852e-06 0 0)
(1.8385e-06 0 0)
(1.83847e-06 0 0)
(1.83843e-06 0 0)
(1.83837e-06 0 0)
(1.83831e-06 0 0)
(1.83823e-06 0 0)
(1.83814e-06 0 0)
(1.83803e-06 0 0)
(1.8379e-06 0 0)
(1.83776e-06 0 0)
(1.83759e-06 0 0)
(1.83741e-06 0 0)
(1.83721e-06 0 0)
(1.837e-06 0 0)
(1.83677e-06 0 0)
(1.83652e-06 0 0)
(1.83625e-06 0 0)
(1.83597e-06 0 0)
(1.83568e-06 0 0)
(1.83537e-06 0 0)
(1.83504e-06 0 0)
(1.83471e-06 0 0)
(1.83436e-06 0 0)
(1.83399e-06 0 0)
(1.83362e-06 0 0)
(1.83323e-06 0 0)
(1.83284e-06 0 0)
(1.83244e-06 0 0)
(1.83203e-06 0 0)
(1.83161e-06 0 0)
(1.83119e-06 0 0)
(1.83077e-06 0 0)
(1.83035e-06 0 0)
(1.82993e-06 0 0)
(1.82952e-06 0 0)
(1.82911e-06 0 0)
(1.82872e-06 0 0)
(1.82834e-06 0 0)
(1.82797e-06 0 0)
(1.82763e-06 0 0)
(1.82731e-06 0 0)
(1.82702e-06 0 0)
(1.82676e-06 0 0)
(1.82654e-06 0 0)
(1.82635e-06 0 0)
(1.82621e-06 0 0)
(1.82612e-06 0 0)
(1.82608e-06 0 0)
(1.82606e-06 0 0)
(1.82606e-06 0 0)
(1.8261e-06 0 0)
(1.82623e-06 0 0)
(1.82647e-06 0 0)
(1.82677e-06 0 0)
(1.82713e-06 0 0)
(1.82756e-06 0 0)
(1.82806e-06 0 0)
(1.82862e-06 0 0)
(1.82926e-06 0 0)
(1.82995e-06 0 0)
(1.83072e-06 0 0)
(1.83154e-06 0 0)
(1.83244e-06 0 0)
(1.83339e-06 0 0)
(1.83441e-06 0 0)
(1.83548e-06 0 0)
(1.83661e-06 0 0)
(1.83779e-06 0 0)
(1.83902e-06 0 0)
(1.8403e-06 0 0)
(1.84163e-06 0 0)
(1.84299e-06 0 0)
(1.84439e-06 0 0)
(1.84582e-06 0 0)
(1.84729e-06 0 0)
(1.84877e-06 0 0)
(1.85028e-06 0 0)
(1.8518e-06 0 0)
(1.85334e-06 0 0)
(1.85488e-06 0 0)
(1.85643e-06 0 0)
(1.85799e-06 0 0)
(1.85954e-06 0 0)
(1.86109e-06 0 0)
(1.86263e-06 0 0)
(1.86417e-06 0 0)
(1.8657e-06 0 0)
(1.86723e-06 0 0)
(1.86875e-06 0 0)
(1.87027e-06 0 0)
(1.87179e-06 0 0)
(1.87331e-06 0 0)
(1.87484e-06 0 0)
(1.87638e-06 0 0)
(1.87794e-06 0 0)
(1.87952e-06 0 0)
(1.88113e-06 0 0)
(1.88279e-06 0 0)
(1.88449e-06 0 0)
(1.88625e-06 0 0)
(1.88808e-06 0 0)
(1.88998e-06 0 0)
(1.89196e-06 0 0)
(1.89403e-06 0 0)
(1.89621e-06 0 0)
(1.89848e-06 0 0)
(1.90087e-06 0 0)
(1.90337e-06 0 0)
(1.90599e-06 0 0)
(1.90872e-06 0 0)
(1.91157e-06 0 0)
(1.91452e-06 0 0)
(1.91758e-06 0 0)
(1.92072e-06 0 0)
(1.92394e-06 0 0)
(1.92722e-06 0 0)
(1.93052e-06 0 0)
(1.93381e-06 0 0)
(1.93706e-06 0 0)
(1.94023e-06 0 0)
(1.94327e-06 0 0)
(1.94612e-06 0 0)
(1.94865e-06 0 0)
(1.95069e-06 0 0)
(1.95208e-06 0 0)
(1.95276e-06 0 0)
(1.95297e-06 0 0)
(1.95277e-06 0 0)
(1.95203e-06 0 0)
(1.94838e-06 0 0)
(1.93435e-06 0 0)
(1.86405e-06 0 0)
(1.18849e-06 0 0)
(2.936e-07 0 0)
(7.42077e-09 0 0)
(7.92513e-13 0 0)
(1.34455e-21 0 0)
(1.36579e-40 0 0)
(8.90366e-81 0 0)
(2.86317e-167 0 0)
(0 0 0)
(0 0 0)
(0 0 0)
(0 0 0)
(0 0 0)
(0 0 0)
(0 0 0)
(0 0 0)
(0 0 0)
(0 0 0)
(0 0 0)
(0 0 0)
(0 0 0)
(0 0 0)
(0 0 0)
(0 0 0)
(0 0 0)
(0 0 0)
(0 0 0)
(0 0 0)
(0 0 0)
(0 0 0)
(0 0 0)
(0 0 0)
(0 0 0)
(0 0 0)
(0 0 0)
(0 0 0)
(0 0 0)
(0 0 0)
(0 0 0)
(0 0 0)
(0 0 0)
(0 0 0)
(0 0 0)
(0 0 0)
(0 0 0)
(0 0 0)
(0 0 0)
(0 0 0)
(0 0 0)
(0 0 0)
(0 0 0)
(0 0 0)
(0 0 0)
(0 0 0)
(0 0 0)
(0 0 0)
(0 0 0)
(0 0 0)
(0 0 0)
(0 0 0)
(0 0 0)
(0 0 0)
(0 0 0)
(0 0 0)
(0 0 0)
(0 0 0)
(0 0 0)
(0 0 0)
(0 0 0)
(0 0 0)
(0 0 0)
(0 0 0)
(0 0 0)
(0 0 0)
(0 0 0)
(0 0 0)
(0 0 0)
(0 0 0)
(0 0 0)
(0 0 0)
(0 0 0)
(0 0 0)
(0 0 0)
(0 0 0)
(0 0 0)
(0 0 0)
(0 0 0)
(0 0 0)
(0 0 0)
(0 0 0)
(0 0 0)
(0 0 0)
(0 0 0)
(0 0 0)
(0 0 0)
(0 0 0)
(0 0 0)
(0 0 0)
(0 0 0)
(0 0 0)
(0 0 0)
(0 0 0)
(0 0 0)
(0 0 0)
(0 0 0)
(0 0 0)
(0 0 0)
(0 0 0)
(0 0 0)
(0 0 0)
(0 0 0)
(0 0 0)
(0 0 0)
(0 0 0)
(0 0 0)
(0 0 0)
(0 0 0)
(0 0 0)
(0 0 0)
(0 0 0)
(0 0 0)
(0 0 0)
(0 0 0)
(0 0 0)
(0 0 0)
(0 0 0)
(0 0 0)
(0 0 0)
(0 0 0)
(0 0 0)
(0 0 0)
(0 0 0)
(0 0 0)
(0 0 0)
(0 0 0)
(0 0 0)
(0 0 0)
(0 0 0)
(0 0 0)
(0 0 0)
(0 0 0)
(0 0 0)
(0 0 0)
(0 0 0)
(0 0 0)
(0 0 0)
(0 0 0)
(0 0 0)
(0 0 0)
(0 0 0)
(0 0 0)
(0 0 0)
(0 0 0)
(0 0 0)
(0 0 0)
(0 0 0)
(0 0 0)
(0 0 0)
(0 0 0)
(0 0 0)
(0 0 0)
(0 0 0)
(0 0 0)
(0 0 0)
(0 0 0)
(0 0 0)
(0 0 0)
(0 0 0)
(0 0 0)
(0 0 0)
(0 0 0)
(0 0 0)
(0 0 0)
(0 0 0)
(0 0 0)
(0 0 0)
(0 0 0)
(0 0 0)
(0 0 0)
(0 0 0)
(0 0 0)
(0 0 0)
(0 0 0)
(0 0 0)
(0 0 0)
(0 0 0)
(0 0 0)
(0 0 0)
(0 0 0)
(0 0 0)
(0 0 0)
(0 0 0)
(0 0 0)
(0 0 0)
(0 0 0)
(0 0 0)
(0 0 0)
(0 0 0)
(0 0 0)
(0 0 0)
(0 0 0)
(0 0 0)
(0 0 0)
(0 0 0)
(0 0 0)
(0 0 0)
(0 0 0)
(0 0 0)
(0 0 0)
(0 0 0)
(0 0 0)
(0 0 0)
(0 0 0)
(0 0 0)
(0 0 0)
(0 0 0)
(0 0 0)
(0 0 0)
(0 0 0)
(0 0 0)
(0 0 0)
(0 0 0)
(0 0 0)
(0 0 0)
(0 0 0)
(0 0 0)
(0 0 0)
(0 0 0)
(0 0 0)
(0 0 0)
(0 0 0)
(0 0 0)
(0 0 0)
(0 0 0)
(0 0 0)
(0 0 0)
(0 0 0)
(0 0 0)
(0 0 0)
(0 0 0)
(0 0 0)
(0 0 0)
(0 0 0)
(0 0 0)
(0 0 0)
(0 0 0)
(0 0 0)
(0 0 0)
(0 0 0)
(0 0 0)
(0 0 0)
(0 0 0)
(0 0 0)
(0 0 0)
(0 0 0)
(0 0 0)
(0 0 0)
(0 0 0)
(0 0 0)
(0 0 0)
(0 0 0)
(0 0 0)
(0 0 0)
(0 0 0)
(0 0 0)
(0 0 0)
(0 0 0)
(0 0 0)
(0 0 0)
(0 0 0)
(0 0 0)
(0 0 0)
(0 0 0)
(0 0 0)
(0 0 0)
(0 0 0)
(0 0 0)
(0 0 0)
(0 0 0)
(0 0 0)
(0 0 0)
(0 0 0)
(0 0 0)
(0 0 0)
(0 0 0)
(0 0 0)
(0 0 0)
(0 0 0)
(0 0 0)
(0 0 0)
(0 0 0)
(0 0 0)
(0 0 0)
(0 0 0)
(0 0 0)
(0 0 0)
(0 0 0)
(0 0 0)
(0 0 0)
(0 0 0)
(0 0 0)
(0 0 0)
(0 0 0)
(0 0 0)
(0 0 0)
(0 0 0)
(0 0 0)
(0 0 0)
(0 0 0)
(0 0 0)
(0 0 0)
(0 0 0)
(0 0 0)
(0 0 0)
(0 0 0)
(0 0 0)
(0 0 0)
(0 0 0)
(0 0 0)
(0 0 0)
(0 0 0)
(0 0 0)
(0 0 0)
(0 0 0)
(0 0 0)
(0 0 0)
(0 0 0)
(0 0 0)
(0 0 0)
(0 0 0)
(0 0 0)
(0 0 0)
(0 0 0)
(0 0 0)
(0 0 0)
(0 0 0)
(0 0 0)
(0 0 0)
(0 0 0)
(0 0 0)
(0 0 0)
(0 0 0)
(0 0 0)
(0 0 0)
(0 0 0)
(0 0 0)
(0 0 0)
(0 0 0)
(0 0 0)
(0 0 0)
(0 0 0)
(0 0 0)
(0 0 0)
(0 0 0)
(0 0 0)
(0 0 0)
(0 0 0)
(0 0 0)
(0 0 0)
(0 0 0)
(0 0 0)
(0 0 0)
(0 0 0)
(0 0 0)
(0 0 0)
(0 0 0)
(0 0 0)
(0 0 0)
(0 0 0)
(0 0 0)
(0 0 0)
(0 0 0)
(0 0 0)
(0 0 0)
(0 0 0)
(0 0 0)
(0 0 0)
(0 0 0)
(0 0 0)
(0 0 0)
(0 0 0)
(0 0 0)
(0 0 0)
(0 0 0)
(0 0 0)
(0 0 0)
(0 0 0)
(0 0 0)
(0 0 0)
(0 0 0)
(0 0 0)
(0 0 0)
(0 0 0)
(0 0 0)
(0 0 0)
(0 0 0)
(0 0 0)
(0 0 0)
(0 0 0)
(0 0 0)
(0 0 0)
(0 0 0)
(0 0 0)
(0 0 0)
(0 0 0)
(0 0 0)
(0 0 0)
(0 0 0)
(0 0 0)
(0 0 0)
(0 0 0)
(0 0 0)
(0 0 0)
(0 0 0)
(0 0 0)
(0 0 0)
(0 0 0)
(0 0 0)
(0 0 0)
(0 0 0)
(0 0 0)
(0 0 0)
(0 0 0)
(0 0 0)
(0 0 0)
(0 0 0)
(0 0 0)
(0 0 0)
(0 0 0)
(0 0 0)
(0 0 0)
(0 0 0)
(0 0 0)
(0 0 0)
(0 0 0)
(0 0 0)
(0 0 0)
(0 0 0)
(0 0 0)
(0 0 0)
(0 0 0)
(0 0 0)
(0 0 0)
(0 0 0)
(0 0 0)
(0 0 0)
(0 0 0)
(0 0 0)
(0 0 0)
(0 0 0)
(0 0 0)
(0 0 0)
(0 0 0)
(0 0 0)
(0 0 0)
(0 0 0)
(0 0 0)
(0 0 0)
(0 0 0)
(0 0 0)
(0 0 0)
(0 0 0)
(0 0 0)
(0 0 0)
(0 0 0)
(0 0 0)
(0 0 0)
(0 0 0)
(0 0 0)
(0 0 0)
(0 0 0)
(0 0 0)
(0 0 0)
(0 0 0)
(0 0 0)
(0 0 0)
(0 0 0)
(0 0 0)
(0 0 0)
(0 0 0)
(0 0 0)
(0 0 0)
(0 0 0)
(0 0 0)
(0 0 0)
(0 0 0)
(0 0 0)
(0 0 0)
(0 0 0)
(0 0 0)
(0 0 0)
(0 0 0)
(0 0 0)
(0 0 0)
(0 0 0)
(0 0 0)
(0 0 0)
(0 0 0)
(0 0 0)
(0 0 0)
(0 0 0)
(0 0 0)
(0 0 0)
(0 0 0)
(0 0 0)
(0 0 0)
(0 0 0)
(0 0 0)
(0 0 0)
(0 0 0)
(0 0 0)
(0 0 0)
(0 0 0)
(0 0 0)
(0 0 0)
(0 0 0)
(0 0 0)
(0 0 0)
(0 0 0)
(0 0 0)
(0 0 0)
(0 0 0)
(0 0 0)
(0 0 0)
(0 0 0)
(0 0 0)
(0 0 0)
(0 0 0)
(0 0 0)
(0 0 0)
(0 0 0)
(0 0 0)
(0 0 0)
(0 0 0)
(0 0 0)
(0 0 0)
(0 0 0)
(0 0 0)
(0 0 0)
(0 0 0)
(0 0 0)
(0 0 0)
(0 0 0)
(0 0 0)
(0 0 0)
(0 0 0)
(0 0 0)
(0 0 0)
(0 0 0)
(0 0 0)
(0 0 0)
(0 0 0)
(0 0 0)
(0 0 0)
(0 0 0)
(0 0 0)
(0 0 0)
(0 0 0)
(0 0 0)
(0 0 0)
(0 0 0)
(0 0 0)
(0 0 0)
(0 0 0)
(0 0 0)
(0 0 0)
(0 0 0)
(0 0 0)
(0 0 0)
(0 0 0)
(0 0 0)
(0 0 0)
(0 0 0)
(0 0 0)
(0 0 0)
(0 0 0)
(0 0 0)
(0 0 0)
(0 0 0)
(0 0 0)
(0 0 0)
(0 0 0)
(0 0 0)
(0 0 0)
(0 0 0)
(0 0 0)
(0 0 0)
(0 0 0)
(0 0 0)
(0 0 0)
(0 0 0)
(0 0 0)
(0 0 0)
(0 0 0)
(0 0 0)
(0 0 0)
(0 0 0)
(0 0 0)
(0 0 0)
(0 0 0)
(0 0 0)
(0 0 0)
(0 0 0)
(0 0 0)
(0 0 0)
(0 0 0)
(0 0 0)
(0 0 0)
(0 0 0)
(0 0 0)
(0 0 0)
(0 0 0)
(0 0 0)
(0 0 0)
(0 0 0)
(0 0 0)
(0 0 0)
(0 0 0)
(0 0 0)
(0 0 0)
(0 0 0)
(0 0 0)
(0 0 0)
(0 0 0)
(0 0 0)
(0 0 0)
(0 0 0)
(0 0 0)
(0 0 0)
(0 0 0)
(0 0 0)
)
;

boundaryField
{
    inlet
    {
        type            fixedValue;
        value           uniform (2.74882e-06 0 0);
    }
    outlet
    {
        type            zeroGradient;
    }
    emptyWalls
    {
        type            empty;
    }
}


// ************************************************************************* //
