/*--------------------------------*- C++ -*----------------------------------*\
  =========                 |
  \\      /  F ield         | OpenFOAM: The Open Source CFD Toolbox
   \\    /   O peration     | Website:  https://openfoam.org
    \\  /    A nd           | Version:  9
     \\/     M anipulation  |
\*---------------------------------------------------------------------------*/
FoamFile
{
    format      ascii;
    class       volScalarField;
    location    "4200";
    object      Fshear;
}
// * * * * * * * * * * * * * * * * * * * * * * * * * * * * * * * * * * * * * //

dimensions      [0 0 0 0 0 0 0];

internalField   nonuniform List<scalar> 
100
(
0.298694
0.404672
0.354559
0.363605
0.3538
0.351699
0.347646
0.344829
0.342007
0.339529
0.337213
0.335075
0.333075
0.331199
0.329429
0.327754
0.326162
0.324643
0.323191
0.321797
0.320456
0.319162
0.317909
0.316692
0.315505
0.314342
0.313197
0.312062
0.310927
0.309779
0.308599
0.307359
0.306604
0.3073
0.308535
0.309489
0.310494
0.311438
0.312373
0.313286
0.314186
0.315075
0.315955
0.316826
0.317691
0.31855
0.319404
0.320253
0.321098
0.321939
0.322777
0.323613
0.324445
0.325276
0.326104
0.326931
0.327757
0.328581
0.329405
0.330228
0.331051
0.331873
0.332696
0.333518
0.334342
0.335165
0.33599
0.336816
0.337642
0.33847
0.3393
0.340131
0.340963
0.341798
0.342635
0.343474
0.344315
0.345158
0.346005
0.346854
0.347707
0.348563
0.349422
0.350286
0.351153
0.352024
0.3529
0.353781
0.354667
0.355559
0.356456
0.357359
0.358268
0.359184
0.360108
0.361039
0.361978
0.362926
0.363883
0.130805
)
;

boundaryField
{
    inlet
    {
        type            calculated;
        value           uniform 2.78312e-12;
    }
    outlet
    {
        type            calculated;
        value           uniform 2.78312e-12;
    }
    emptyWalls
    {
        type            empty;
    }
}


// ************************************************************************* //
