/*--------------------------------*- C++ -*----------------------------------*\
  =========                 |
  \\      /  F ield         | OpenFOAM: The Open Source CFD Toolbox
   \\    /   O peration     | Website:  https://openfoam.org
    \\  /    A nd           | Version:  9
     \\/     M anipulation  |
\*---------------------------------------------------------------------------*/
FoamFile
{
    format      ascii;
    class       volScalarField;
    location    "4200";
    object      kra;
}
// * * * * * * * * * * * * * * * * * * * * * * * * * * * * * * * * * * * * * //

dimensions      [0 0 0 0 0 0 0];

internalField   nonuniform List<scalar> 
100
(
4.06669e-05
3.00124e-05
3.25613e-05
3.11127e-05
3.11938e-05
3.08016e-05
3.06165e-05
3.039e-05
3.02024e-05
3.00212e-05
2.98542e-05
2.96962e-05
2.95469e-05
2.94048e-05
2.92691e-05
2.91391e-05
2.9014e-05
2.88933e-05
2.87765e-05
2.86631e-05
2.85528e-05
2.8445e-05
2.83395e-05
2.82358e-05
2.81334e-05
2.80319e-05
2.79307e-05
2.78289e-05
2.77255e-05
2.76192e-05
2.75078e-05
2.73879e-05
2.73321e-05
2.74076e-05
2.7429e-05
2.74675e-05
2.7497e-05
2.75276e-05
2.75558e-05
2.75833e-05
2.76095e-05
2.76348e-05
2.76592e-05
2.76826e-05
2.77052e-05
2.7727e-05
2.77481e-05
2.77685e-05
2.77881e-05
2.78071e-05
2.78255e-05
2.78433e-05
2.78605e-05
2.78772e-05
2.78933e-05
2.79088e-05
2.79238e-05
2.79383e-05
2.79522e-05
2.79657e-05
2.79786e-05
2.7991e-05
2.80028e-05
2.80142e-05
2.80251e-05
2.80355e-05
2.80455e-05
2.80549e-05
2.80639e-05
2.80724e-05
2.80805e-05
2.80881e-05
2.80952e-05
2.8102e-05
2.81083e-05
2.81141e-05
2.81196e-05
2.81246e-05
2.81292e-05
2.81334e-05
2.81372e-05
2.81406e-05
2.81435e-05
2.8146e-05
2.81481e-05
2.81498e-05
2.8151e-05
2.81519e-05
2.81523e-05
2.81522e-05
2.81518e-05
2.81508e-05
2.81495e-05
2.81477e-05
2.81455e-05
2.81428e-05
2.81397e-05
2.81361e-05
2.8132e-05
7.40853e-05
)
;

boundaryField
{
    inlet
    {
        type            calculated;
        value           uniform 1.21568e-05;
    }
    outlet
    {
        type            calculated;
        value           uniform 8.40288e-06;
    }
    emptyWalls
    {
        type            empty;
    }
}


// ************************************************************************* //
