/*--------------------------------*- C++ -*----------------------------------*\
  =========                 |
  \\      /  F ield         | OpenFOAM: The Open Source CFD Toolbox
   \\    /   O peration     | Website:  https://openfoam.org
    \\  /    A nd           | Version:  9
     \\/     M anipulation  |
\*---------------------------------------------------------------------------*/
FoamFile
{
    format      ascii;
    class       volScalarField;
    location    "4200";
    object      p;
}
// * * * * * * * * * * * * * * * * * * * * * * * * * * * * * * * * * * * * * //

dimensions      [0 0 0 0 0 0 0];

internalField   nonuniform List<scalar> 
100
(
6.09449e+06
6.0865e+06
6.07568e+06
6.06571e+06
6.05528e+06
6.04488e+06
6.03436e+06
6.02377e+06
6.01312e+06
6.0024e+06
5.99163e+06
5.9808e+06
5.96993e+06
5.959e+06
5.94803e+06
5.93702e+06
5.92596e+06
5.91486e+06
5.90373e+06
5.89256e+06
5.88135e+06
5.87011e+06
5.85883e+06
5.84752e+06
5.83618e+06
5.82481e+06
5.8134e+06
5.80197e+06
5.7905e+06
5.779e+06
5.76746e+06
5.7559e+06
5.74429e+06
5.73268e+06
5.72112e+06
5.70958e+06
5.69807e+06
5.68659e+06
5.67513e+06
5.6637e+06
5.65229e+06
5.64091e+06
5.62956e+06
5.61822e+06
5.60691e+06
5.59562e+06
5.58436e+06
5.57312e+06
5.5619e+06
5.5507e+06
5.53953e+06
5.52838e+06
5.51725e+06
5.50614e+06
5.49505e+06
5.48398e+06
5.47294e+06
5.46191e+06
5.45091e+06
5.43993e+06
5.42896e+06
5.41802e+06
5.4071e+06
5.3962e+06
5.38532e+06
5.37446e+06
5.36362e+06
5.3528e+06
5.342e+06
5.33122e+06
5.32046e+06
5.30972e+06
5.299e+06
5.2883e+06
5.27762e+06
5.26696e+06
5.25632e+06
5.2457e+06
5.2351e+06
5.22452e+06
5.21396e+06
5.20342e+06
5.19289e+06
5.18239e+06
5.17191e+06
5.16144e+06
5.151e+06
5.14057e+06
5.13017e+06
5.11978e+06
5.10942e+06
5.09907e+06
5.08875e+06
5.07844e+06
5.06815e+06
5.05789e+06
5.04764e+06
5.03742e+06
5.02721e+06
5.01703e+06
)
;

boundaryField
{
    inlet
    {
        type            darcyGradPressure;
        gradient        uniform 3.92146e+06;
        Mf              Mf;
        phi             phi;
        value           uniform 6.10234e+06;
    }
    outlet
    {
        type            fixedValue;
        value           uniform 5e+06;
    }
    emptyWalls
    {
        type            empty;
    }
}


// ************************************************************************* //
