/*--------------------------------*- C++ -*----------------------------------*\
  =========                 |
  \\      /  F ield         | OpenFOAM: The Open Source CFD Toolbox
   \\    /   O peration     | Website:  https://openfoam.org
    \\  /    A nd           | Version:  9
     \\/     M anipulation  |
\*---------------------------------------------------------------------------*/
FoamFile
{
    format      ascii;
    class       surfaceScalarField;
    location    "4200";
    object      phia;
}
// * * * * * * * * * * * * * * * * * * * * * * * * * * * * * * * * * * * * * //

dimensions      [0 2 0 0 0 0 0];

internalField   nonuniform List<scalar> 
99
(
1.4207e-08
1.4201e-08
1.41943e-08
1.41873e-08
1.41799e-08
1.41722e-08
1.41643e-08
1.41561e-08
1.41477e-08
1.41391e-08
1.41303e-08
1.41214e-08
1.41122e-08
1.41029e-08
1.40934e-08
1.40838e-08
1.4074e-08
1.4064e-08
1.40538e-08
1.40435e-08
1.4033e-08
1.40223e-08
1.40114e-08
1.40003e-08
1.39888e-08
1.39771e-08
1.3965e-08
1.39523e-08
1.39391e-08
1.3925e-08
1.39097e-08
1.38928e-08
1.38725e-08
1.3855e-08
1.38374e-08
1.38205e-08
1.38038e-08
1.37873e-08
1.37708e-08
1.37543e-08
1.37377e-08
1.37211e-08
1.37044e-08
1.36877e-08
1.36707e-08
1.36537e-08
1.36365e-08
1.36193e-08
1.36018e-08
1.35843e-08
1.35666e-08
1.35489e-08
1.3531e-08
1.35129e-08
1.34948e-08
1.34765e-08
1.34581e-08
1.34395e-08
1.34208e-08
1.34019e-08
1.33829e-08
1.33638e-08
1.33444e-08
1.33249e-08
1.33053e-08
1.32855e-08
1.32655e-08
1.32454e-08
1.3225e-08
1.32046e-08
1.31839e-08
1.31631e-08
1.31421e-08
1.3121e-08
1.30996e-08
1.30781e-08
1.30565e-08
1.30346e-08
1.30126e-08
1.29904e-08
1.2968e-08
1.29454e-08
1.29226e-08
1.28996e-08
1.28764e-08
1.2853e-08
1.28294e-08
1.28056e-08
1.27815e-08
1.27571e-08
1.27326e-08
1.27077e-08
1.26826e-08
1.26573e-08
1.26316e-08
1.26057e-08
1.25794e-08
1.25529e-08
1.2526e-08
)
;

boundaryField
{
    inlet
    {
        type            calculated;
        value           uniform -1.42126e-08;
    }
    outlet
    {
        type            calculated;
        value           uniform 1.25091e-08;
    }
    emptyWalls
    {
        type            empty;
        value           nonuniform List<scalar> 0();
    }
}


// ************************************************************************* //
