/*--------------------------------*- C++ -*----------------------------------*\
  =========                 |
  \\      /  F ield         | OpenFOAM: The Open Source CFD Toolbox
   \\    /   O peration     | Website:  https://openfoam.org
    \\  /    A nd           | Version:  9
     \\/     M anipulation  |
\*---------------------------------------------------------------------------*/
FoamFile
{
    format      ascii;
    class       surfaceScalarField;
    location    "4200";
    object      phib;
}
// * * * * * * * * * * * * * * * * * * * * * * * * * * * * * * * * * * * * * //

dimensions      [0 2 0 0 0 0 0];

internalField   nonuniform List<scalar> 
99
(
6.09092e-09
6.09067e-09
6.09038e-09
6.09008e-09
6.08977e-09
6.08945e-09
6.08911e-09
6.08876e-09
6.08841e-09
6.08804e-09
6.08767e-09
6.08729e-09
6.08691e-09
6.08651e-09
6.08611e-09
6.0857e-09
6.08529e-09
6.08487e-09
6.08444e-09
6.08401e-09
6.08357e-09
6.08312e-09
6.08266e-09
6.0822e-09
6.08172e-09
6.08123e-09
6.08072e-09
6.08019e-09
6.07964e-09
6.07905e-09
6.07841e-09
6.07769e-09
6.07878e-09
6.07912e-09
6.07974e-09
6.08023e-09
6.08077e-09
6.08129e-09
6.08183e-09
6.08237e-09
6.08294e-09
6.08352e-09
6.08413e-09
6.08477e-09
6.08543e-09
6.08613e-09
6.08685e-09
6.08758e-09
6.08833e-09
6.08907e-09
6.08982e-09
6.09056e-09
6.09129e-09
6.09202e-09
6.09275e-09
6.09348e-09
6.09421e-09
6.09495e-09
6.0957e-09
6.09646e-09
6.09724e-09
6.09803e-09
6.09885e-09
6.09968e-09
6.10054e-09
6.10142e-09
6.10232e-09
6.10324e-09
6.10418e-09
6.10514e-09
6.10612e-09
6.10712e-09
6.10813e-09
6.10916e-09
6.1102e-09
6.11125e-09
6.11231e-09
6.11338e-09
6.11447e-09
6.11557e-09
6.11668e-09
6.1178e-09
6.11895e-09
6.12011e-09
6.1213e-09
6.1225e-09
6.12373e-09
6.12499e-09
6.12627e-09
6.12757e-09
6.12891e-09
6.13027e-09
6.13166e-09
6.13308e-09
6.13452e-09
6.13599e-09
6.1375e-09
6.13903e-09
6.14059e-09
)
;

boundaryField
{
    inlet
    {
        type            calculated;
        value           uniform -6.09112e-09;
    }
    outlet
    {
        type            calculated;
        value           uniform 6.14045e-09;
    }
    emptyWalls
    {
        type            empty;
        value           nonuniform List<scalar> 0();
    }
}


// ************************************************************************* //
