/*--------------------------------*- C++ -*----------------------------------*\
  =========                 |
  \\      /  F ield         | OpenFOAM: The Open Source CFD Toolbox
   \\    /   O peration     | Website:  https://openfoam.org
    \\  /    A nd           | Version:  9
     \\/     M anipulation  |
\*---------------------------------------------------------------------------*/
FoamFile
{
    format      ascii;
    class       surfaceScalarField;
    location    "4200";
    object      phic;
}
// * * * * * * * * * * * * * * * * * * * * * * * * * * * * * * * * * * * * * //

dimensions      [0 2 0 0 0 0 0];

internalField   nonuniform List<scalar> 
99
(
5.81583e-12
1.20676e-11
1.90093e-11
2.63354e-11
3.40361e-11
4.20403e-11
5.03201e-11
5.88469e-11
6.76013e-11
7.65672e-11
8.57323e-11
9.50866e-11
1.04622e-10
1.14334e-10
1.24218e-10
1.34271e-10
1.44494e-10
1.54887e-10
1.65455e-10
1.76204e-10
1.87143e-10
1.98286e-10
2.09653e-10
2.2127e-10
2.33173e-10
2.45413e-10
2.58059e-10
2.71213e-10
2.85021e-10
2.99703e-10
3.15601e-10
3.33274e-10
3.52465e-10
3.69639e-10
3.86577e-10
4.02956e-10
4.19154e-10
4.35186e-10
4.51158e-10
4.67107e-10
4.83074e-10
4.99085e-10
5.1516e-10
5.31312e-10
5.47555e-10
5.63896e-10
5.80343e-10
5.96902e-10
6.13575e-10
6.30369e-10
6.47284e-10
6.64325e-10
6.81492e-10
6.98788e-10
7.16214e-10
7.33772e-10
7.51462e-10
7.69287e-10
7.87247e-10
8.05342e-10
8.23575e-10
8.41947e-10
8.60457e-10
8.79108e-10
8.97901e-10
9.16836e-10
9.35915e-10
9.5514e-10
9.74511e-10
9.9403e-10
1.0137e-09
1.03352e-09
1.0535e-09
1.07363e-09
1.09391e-09
1.11436e-09
1.13497e-09
1.15574e-09
1.17668e-09
1.19779e-09
1.21907e-09
1.24053e-09
1.26217e-09
1.28399e-09
1.306e-09
1.3282e-09
1.3506e-09
1.3732e-09
1.396e-09
1.41902e-09
1.44226e-09
1.46573e-09
1.48943e-09
1.51338e-09
1.53758e-09
1.56205e-09
1.58679e-09
1.61183e-09
1.63716e-09
)
;

boundaryField
{
    inlet
    {
        type            calculated;
        value           uniform 0;
    }
    outlet
    {
        type            calculated;
        value           uniform 1.65418e-09;
    }
    emptyWalls
    {
        type            empty;
        value           nonuniform List<scalar> 0();
    }
}


// ************************************************************************* //
