/*--------------------------------*- C++ -*----------------------------------*\
  =========                 |
  \\      /  F ield         | OpenFOAM: The Open Source CFD Toolbox
   \\    /   O peration     | Website:  https://openfoam.org
    \\  /    A nd           | Version:  9
     \\/     M anipulation  |
\*---------------------------------------------------------------------------*/
FoamFile
{
    format      ascii;
    class       volVectorField;
    location    "4200";
    object      Ua;
}
// * * * * * * * * * * * * * * * * * * * * * * * * * * * * * * * * * * * * * //

dimensions      [0 0 0 0 0 0 0];

internalField   nonuniform List<vector> 
100
(
(0 0 8.96975e-06)
(0 0 1.13032e-05)
(0 0 1.12982e-05)
(0 0 1.12927e-05)
(0 0 1.1287e-05)
(0 0 1.1281e-05)
(0 0 1.12748e-05)
(0 0 1.12683e-05)
(0 0 1.12617e-05)
(0 0 1.1255e-05)
(0 0 1.12481e-05)
(0 0 1.1241e-05)
(0 0 1.12338e-05)
(0 0 1.12264e-05)
(0 0 1.1219e-05)
(0 0 1.12113e-05)
(0 0 1.12036e-05)
(0 0 1.11957e-05)
(0 0 1.11877e-05)
(0 0 1.11796e-05)
(0 0 1.11713e-05)
(0 0 1.11629e-05)
(0 0 1.11543e-05)
(0 0 1.11455e-05)
(0 0 1.11365e-05)
(0 0 1.11273e-05)
(0 0 1.11178e-05)
(0 0 1.11079e-05)
(0 0 1.10976e-05)
(0 0 1.10868e-05)
(0 0 1.10751e-05)
(0 0 1.10623e-05)
(0 0 1.10474e-05)
(0 0 1.10324e-05)
(0 0 1.10185e-05)
(0 0 1.10048e-05)
(0 0 1.09914e-05)
(0 0 1.09781e-05)
(0 0 1.0965e-05)
(0 0 1.09519e-05)
(0 0 1.09387e-05)
(0 0 1.09255e-05)
(0 0 1.09123e-05)
(0 0 1.0899e-05)
(0 0 1.08856e-05)
(0 0 1.08721e-05)
(0 0 1.08584e-05)
(0 0 1.08447e-05)
(0 0 1.08309e-05)
(0 0 1.0817e-05)
(0 0 1.0803e-05)
(0 0 1.07889e-05)
(0 0 1.07747e-05)
(0 0 1.07604e-05)
(0 0 1.0746e-05)
(0 0 1.07315e-05)
(0 0 1.07169e-05)
(0 0 1.07022e-05)
(0 0 1.06874e-05)
(0 0 1.06724e-05)
(0 0 1.06574e-05)
(0 0 1.06422e-05)
(0 0 1.06269e-05)
(0 0 1.06114e-05)
(0 0 1.05958e-05)
(0 0 1.05801e-05)
(0 0 1.05643e-05)
(0 0 1.05483e-05)
(0 0 1.05322e-05)
(0 0 1.0516e-05)
(0 0 1.04996e-05)
(0 0 1.04831e-05)
(0 0 1.04665e-05)
(0 0 1.04497e-05)
(0 0 1.04328e-05)
(0 0 1.04158e-05)
(0 0 1.03986e-05)
(0 0 1.03813e-05)
(0 0 1.03639e-05)
(0 0 1.03463e-05)
(0 0 1.03285e-05)
(0 0 1.03106e-05)
(0 0 1.02926e-05)
(0 0 1.02743e-05)
(0 0 1.0256e-05)
(0 0 1.02374e-05)
(0 0 1.02187e-05)
(0 0 1.01998e-05)
(0 0 1.01808e-05)
(0 0 1.01615e-05)
(0 0 1.0142e-05)
(0 0 1.01224e-05)
(0 0 1.01025e-05)
(0 0 1.00824e-05)
(0 0 1.00621e-05)
(0 0 1.00416e-05)
(0 0 1.00208e-05)
(0 0 9.99984e-06)
(0 0 9.97856e-06)
(0 0 9.96114e-06)
)
;

boundaryField
{
    inlet
    {
        type            fixedValue;
        value           uniform (0 0 1.131e-05);
    }
    outlet
    {
        type            zeroGradient;
    }
    emptyWalls
    {
        type            empty;
    }
}


// ************************************************************************* //
