/*--------------------------------*- C++ -*----------------------------------*\
  =========                 |
  \\      /  F ield         | OpenFOAM: The Open Source CFD Toolbox
   \\    /   O peration     | Website:  https://openfoam.org
    \\  /    A nd           | Version:  9
     \\/     M anipulation  |
\*---------------------------------------------------------------------------*/
FoamFile
{
    format      ascii;
    class       volVectorField;
    location    "4200";
    object      Ub;
}
// * * * * * * * * * * * * * * * * * * * * * * * * * * * * * * * * * * * * * //

dimensions      [0 0 0 0 0 0 0];

internalField   nonuniform List<vector> 
100
(
(0 0 7.18059e-06)
(0 0 4.8469e-06)
(0 0 4.84668e-06)
(0 0 4.84645e-06)
(0 0 4.84621e-06)
(0 0 4.84596e-06)
(0 0 4.84569e-06)
(0 0 4.84542e-06)
(0 0 4.84514e-06)
(0 0 4.84486e-06)
(0 0 4.84456e-06)
(0 0 4.84426e-06)
(0 0 4.84396e-06)
(0 0 4.84365e-06)
(0 0 4.84333e-06)
(0 0 4.84301e-06)
(0 0 4.84269e-06)
(0 0 4.84235e-06)
(0 0 4.84202e-06)
(0 0 4.84167e-06)
(0 0 4.84133e-06)
(0 0 4.84097e-06)
(0 0 4.84061e-06)
(0 0 4.84025e-06)
(0 0 4.83987e-06)
(0 0 4.83948e-06)
(0 0 4.83909e-06)
(0 0 4.83867e-06)
(0 0 4.83824e-06)
(0 0 4.83779e-06)
(0 0 4.8373e-06)
(0 0 4.83676e-06)
(0 0 4.83691e-06)
(0 0 4.83748e-06)
(0 0 4.83786e-06)
(0 0 4.8383e-06)
(0 0 4.83871e-06)
(0 0 4.83913e-06)
(0 0 4.83955e-06)
(0 0 4.83998e-06)
(0 0 4.84042e-06)
(0 0 4.84088e-06)
(0 0 4.84135e-06)
(0 0 4.84185e-06)
(0 0 4.84237e-06)
(0 0 4.84291e-06)
(0 0 4.84347e-06)
(0 0 4.84405e-06)
(0 0 4.84464e-06)
(0 0 4.84523e-06)
(0 0 4.84583e-06)
(0 0 4.84642e-06)
(0 0 4.847e-06)
(0 0 4.84759e-06)
(0 0 4.84817e-06)
(0 0 4.84874e-06)
(0 0 4.84933e-06)
(0 0 4.84991e-06)
(0 0 4.8505e-06)
(0 0 4.85111e-06)
(0 0 4.85172e-06)
(0 0 4.85234e-06)
(0 0 4.85298e-06)
(0 0 4.85364e-06)
(0 0 4.85431e-06)
(0 0 4.855e-06)
(0 0 4.85571e-06)
(0 0 4.85644e-06)
(0 0 4.85718e-06)
(0 0 4.85794e-06)
(0 0 4.85871e-06)
(0 0 4.8595e-06)
(0 0 4.8603e-06)
(0 0 4.86111e-06)
(0 0 4.86193e-06)
(0 0 4.86276e-06)
(0 0 4.8636e-06)
(0 0 4.86445e-06)
(0 0 4.86531e-06)
(0 0 4.86618e-06)
(0 0 4.86706e-06)
(0 0 4.86795e-06)
(0 0 4.86885e-06)
(0 0 4.86977e-06)
(0 0 4.8707e-06)
(0 0 4.87165e-06)
(0 0 4.87262e-06)
(0 0 4.87361e-06)
(0 0 4.87462e-06)
(0 0 4.87565e-06)
(0 0 4.8767e-06)
(0 0 4.87777e-06)
(0 0 4.87887e-06)
(0 0 4.87998e-06)
(0 0 4.88112e-06)
(0 0 4.88228e-06)
(0 0 4.88347e-06)
(0 0 4.88468e-06)
(0 0 4.88591e-06)
(0 0 4.88647e-06)
)
;

boundaryField
{
    inlet
    {
        type            fixedValue;
        value           uniform (0 0 4.84716e-06);
    }
    outlet
    {
        type            zeroGradient;
    }
    emptyWalls
    {
        type            empty;
    }
}


// ************************************************************************* //
