/*--------------------------------*- C++ -*----------------------------------*\
  =========                 |
  \\      /  F ield         | OpenFOAM: The Open Source CFD Toolbox
   \\    /   O peration     | Website:  https://openfoam.org
    \\  /    A nd           | Version:  9
     \\/     M anipulation  |
\*---------------------------------------------------------------------------*/
FoamFile
{
    format      ascii;
    class       volVectorField;
    location    "4200";
    object      Uc;
}
// * * * * * * * * * * * * * * * * * * * * * * * * * * * * * * * * * * * * * //

dimensions      [0 0 0 0 0 0 0];

internalField   nonuniform List<vector> 
100
(
(0 0 6.85628e-09)
(0 0 7.1156e-09)
(0 0 1.23651e-08)
(0 0 1.80421e-08)
(0 0 2.40211e-08)
(0 0 3.02698e-08)
(0 0 3.6749e-08)
(0 0 4.34362e-08)
(0 0 5.03121e-08)
(0 0 5.73628e-08)
(0 0 6.45769e-08)
(0 0 7.19455e-08)
(0 0 7.94617e-08)
(0 0 8.71201e-08)
(0 0 9.49168e-08)
(0 0 1.02849e-07)
(0 0 1.10917e-07)
(0 0 1.1912e-07)
(0 0 1.2746e-07)
(0 0 1.35941e-07)
(0 0 1.44571e-07)
(0 0 1.53357e-07)
(0 0 1.62314e-07)
(0 0 1.71459e-07)
(0 0 1.80817e-07)
(0 0 1.90423e-07)
(0 0 2.00325e-07)
(0 0 2.1059e-07)
(0 0 2.21318e-07)
(0 0 2.32654e-07)
(0 0 2.44822e-07)
(0 0 2.58179e-07)
(0 0 2.72847e-07)
(0 0 2.87316e-07)
(0 0 3.00889e-07)
(0 0 3.14145e-07)
(0 0 3.27107e-07)
(0 0 3.39931e-07)
(0 0 3.52665e-07)
(0 0 3.65366e-07)
(0 0 3.78065e-07)
(0 0 3.90789e-07)
(0 0 4.03555e-07)
(0 0 4.16378e-07)
(0 0 4.29268e-07)
(0 0 4.42232e-07)
(0 0 4.55278e-07)
(0 0 4.68411e-07)
(0 0 4.81634e-07)
(0 0 4.9495e-07)
(0 0 5.08362e-07)
(0 0 5.21873e-07)
(0 0 5.35483e-07)
(0 0 5.49196e-07)
(0 0 5.63011e-07)
(0 0 5.76931e-07)
(0 0 5.90956e-07)
(0 0 6.05087e-07)
(0 0 6.19325e-07)
(0 0 6.33671e-07)
(0 0 6.48126e-07)
(0 0 6.6269e-07)
(0 0 6.77365e-07)
(0 0 6.92151e-07)
(0 0 7.07049e-07)
(0 0 7.22061e-07)
(0 0 7.37186e-07)
(0 0 7.52427e-07)
(0 0 7.67783e-07)
(0 0 7.83258e-07)
(0 0 7.9885e-07)
(0 0 8.14563e-07)
(0 0 8.30397e-07)
(0 0 8.46354e-07)
(0 0 8.62436e-07)
(0 0 8.78643e-07)
(0 0 8.94979e-07)
(0 0 9.11444e-07)
(0 0 9.28041e-07)
(0 0 9.44772e-07)
(0 0 9.61639e-07)
(0 0 9.78646e-07)
(0 0 9.95793e-07)
(0 0 1.01309e-06)
(0 0 1.03052e-06)
(0 0 1.04812e-06)
(0 0 1.06586e-06)
(0 0 1.08376e-06)
(0 0 1.10183e-06)
(0 0 1.12006e-06)
(0 0 1.13847e-06)
(0 0 1.15705e-06)
(0 0 1.17582e-06)
(0 0 1.19478e-06)
(0 0 1.21394e-06)
(0 0 1.2333e-06)
(0 0 1.25288e-06)
(0 0 1.27269e-06)
(0 0 1.29273e-06)
(0 0 1.30958e-06)
)
;

boundaryField
{
    inlet
    {
        type            fixedValue;
        value           uniform (0 0 0);
    }
    outlet
    {
        type            zeroGradient;
    }
    emptyWalls
    {
        type            empty;
    }
}


// ************************************************************************* //
