/*--------------------------------*- C++ -*----------------------------------*\
  =========                 |
  \\      /  F ield         | OpenFOAM: The Open Source CFD Toolbox
   \\    /   O peration     | Website:  https://openfoam.org
    \\  /    A nd           | Version:  9
     \\/     M anipulation  |
\*---------------------------------------------------------------------------*/
FoamFile
{
    format      ascii;
    class       volScalarField;
    location    "19300";
    object      p;
}
// * * * * * * * * * * * * * * * * * * * * * * * * * * * * * * * * * * * * * //

dimensions      [0 0 0 0 0 0 0];

internalField   nonuniform List<scalar> 
1000
(
194001
193576
193153
192733
192315
191900
191487
191077
190669
190264
189861
189460
189063
188667
188274
187883
187494
187107
186721
186337
185955
185573
185193
184814
184437
184068
183723
183466
183345
183253
183165
183079
182994
182910
182826
182742
182659
182576
182493
182411
182328
182246
182163
182081
181999
181917
181835
181754
181672
181590
181508
181427
181345
181264
181182
181101
181019
180938
180856
180775
180693
180612
180530
180449
180367
180285
180204
180122
180040
179958
179876
179794
179711
179629
179546
179463
179380
179296
179212
179128
179044
178959
178874
178788
178703
178617
178530
178444
178357
178269
178182
178094
178006
177917
177828
177739
177649
177559
177469
177378
177288
177196
177105
177013
176921
176829
176736
176643
176549
176456
176362
176268
176173
176078
175983
175887
175792
175695
175599
175502
175405
175308
175210
175112
175014
174916
174817
174718
174619
174519
174419
174319
174218
174117
174016
173915
173813
173711
173609
173506
173404
173301
173197
173093
172990
172885
172781
172676
172571
172466
172360
172254
172148
172042
171935
171828
171721
171613
171505
171397
171289
171180
171071
170962
170853
170743
170633
170523
170413
170302
170191
170080
169968
169857
169745
169632
169520
169407
169294
169181
169068
168954
168840
168726
168611
168497
168382
168266
168151
168035
167919
167803
167686
167569
167452
167335
167217
167099
166981
166862
166744
166625
166505
166386
166266
166146
166026
165905
165785
165664
165542
165421
165299
165177
165055
164933
164810
164687
164564
164440
164316
164193
164068
163944
163819
163694
163569
163444
163318
163192
163066
162939
162813
162686
162559
162431
162304
162176
162048
161920
161791
161662
161533
161404
161274
161145
161015
160884
160754
160623
160492
160361
160230
160098
159966
159834
159702
159569
159436
159303
159170
159036
158902
158768
158634
158500
158365
158230
158095
157960
157824
157688
157552
157416
157279
157143
157006
156868
156731
156593
156455
156317
156179
156040
155902
155763
155623
155484
155344
155204
155064
154924
154783
154643
154502
154360
154219
154077
153935
153793
153651
153508
153365
153222
153079
152936
152792
152648
152504
152360
152215
152071
151926
151781
151635
151490
151344
151198
151052
150906
150759
150612
150465
150318
150171
150023
149875
149727
149579
149431
149282
149133
148984
148834
148685
148535
148385
148234
148084
147933
147782
147631
147480
147328
147176
147024
146872
146719
146566
146413
146260
146107
145953
145799
145645
145491
145336
145181
145026
144871
144716
144560
144404
144248
144092
143936
143779
143622
143465
143308
143150
142993
142835
142677
142518
142360
142201
142042
141883
141723
141564
141404
141244
141083
140923
140762
140601
140440
140279
140117
139955
139793
139631
139469
139306
139143
138980
138817
138654
138490
138326
138162
137998
137833
137669
137504
137339
137173
137008
136842
136676
136510
136343
136177
136010
135843
135676
135508
135341
135173
135005
134837
134668
134500
134331
134162
133992
133823
133653
133483
133313
133143
132973
132802
132631
132460
132289
132117
131945
131773
131601
131429
131256
131084
130911
130738
130564
130391
130217
130043
129869
129694
129520
129345
129170
128995
128820
128644
128468
128292
128116
127940
127763
127586
127409
127232
127055
126878
126700
126522
126344
126166
125987
125808
125630
125451
125271
125092
124912
124732
124552
124372
124192
124011
123830
123649
123468
123287
123105
122923
122741
122559
122377
122194
122011
121828
121645
121461
121277
121093
120909
120725
120540
120355
120170
119985
119800
119614
119428
119242
119056
118869
118683
118496
118309
118121
117934
117746
117558
117370
117182
116993
116804
116615
116426
116237
116047
115857
115667
115477
115287
115096
114905
114714
114523
114332
114140
113948
113756
113564
113371
113179
112986
112793
112600
112406
112212
112018
111824
111630
111435
111241
111046
110851
110655
110460
110264
110068
109872
109675
109479
109282
109085
108888
108690
108493
108295
108097
107899
107700
107502
107303
107104
106904
106705
106505
106305
106105
105905
105704
105504
105303
105102
104900
104699
104497
104295
104093
103890
103688
103485
103282
103079
102875
102672
102468
102264
102060
101855
101651
101446
101241
101035
100830
100624
100418
100212
100006
99799.5
99592.8
99385.8
99178.7
98971.4
98763.8
98556
98348.1
98139.9
97931.5
97722.9
97514.1
97305.1
97095.9
96886.4
96676.8
96467
96256.9
96046.7
95836.2
95625.5
95414.7
95203.6
94992.3
94780.8
94569.1
94357.2
94145.1
93932.8
93720.3
93507.6
93294.7
93081.6
92868.2
92654.7
92441
92227.1
92012.9
91798.6
91584
91369.3
91154.3
90939.2
90723.8
90508.2
90292.5
90076.5
89860.3
89643.9
89427.2
89210.4
88993.3
88776.1
88558.6
88340.9
88123
87904.8
87686.4
87467.8
87249
87029.9
86810.7
86591.1
86371.4
86151.4
85931.2
85710.8
85490.1
85269.2
85048
84826.7
84605.1
84383.2
84161.1
83938.8
83716.2
83493.4
83270.4
83047.1
82823.6
82599.9
82375.9
82151.7
81927.3
81702.6
81477.7
81252.6
81027.2
80801.6
80575.7
80349.6
80123.3
79896.7
79669.9
79442.9
79215.6
78988.1
78760.4
78532.4
78304.2
78075.7
77847.1
77618.1
77389
77159.6
76929.9
76700
76469.9
76239.6
76009
75778.1
75547
75315.7
75084.2
74852.4
74620.4
74388.1
74155.6
73922.9
73689.9
73456.7
73223.3
72989.7
72755.8
72521.7
72287.4
72052.9
71818.2
71583.3
71348.2
71112.9
70877.5
70641.9
70406.1
70170.1
69934.1
69697.9
69461.5
69225.1
68988.5
68751.9
68515.2
68278.4
68041.5
67804.6
67567.6
67330.6
67093.5
66856.5
66619.3
66382.2
66145.1
65907.9
65670.7
65433.5
65196.3
64959
64721.7
64484.4
64246.9
64009.3
63771.3
63532.6
63292.9
63051.4
62807
62558.1
62303.4
62042
61774.4
61502.2
61227.2
60950.7
60673.5
60396
60118.4
59840.6
59562.8
59285
59007.2
58729.4
58451.5
58173.7
57895.9
57618.1
57340.3
57062.4
56784.6
56506.8
56229
55951.2
55673.4
55395.6
55117.8
54840
54562.2
54284.4
54006.6
53728.8
53451.1
53173.3
52895.5
52617.8
52340
52062.2
51784.5
51506.7
51229
50951.3
50673.6
50395.8
50118.1
49840.4
49562.7
49285.1
49007.4
48729.7
48452.1
48174.4
47896.8
47619.2
47341.6
47064
46786.4
46508.8
46231.3
45953.7
45676.2
45398.7
45121.1
44843.6
44566.2
44288.7
44011.2
43733.8
43456.3
43178.9
42901.5
42624.1
42346.7
42069.3
41791.9
41514.5
41237.2
40959.8
40682.5
40405.1
40127.7
39850.4
39573
39295.7
39018.3
38741
38463.6
38186.3
37908.9
37631.5
37354.1
37076.8
36799.4
36522
36244.5
35967.1
35689.7
35412.2
35134.8
34857.3
34579.9
34302.4
34024.9
33747.4
33469.9
33192.3
32914.8
32637.2
32359.7
32082.1
31804.5
31527
31249.4
30971.8
30694.2
30416.5
30138.9
29861.3
29583.7
29306
29028.4
28750.7
28473
28195.4
27917.7
27640
27362.4
27084.7
26807
26529.3
26251.6
25973.9
25696.2
25418.5
25140.8
24863.1
24585.4
24307.7
24030
23752.3
23474.6
23196.8
22919.1
22641.4
22363.7
22085.9
21808.2
21530.4
21252.7
20975
20697.2
20419.5
20141.7
19863.9
19586.2
19308.4
19030.6
18752.9
18475.1
18197.3
17919.6
17641.8
17364
17086.2
16808.4
16530.6
16252.8
15975
15697.2
15419.4
15141.6
14863.8
14586
14308.2
14030.4
13752.6
13474.8
13196.9
12919.1
12641.3
12363.5
12085.6
11807.8
11530
11252.2
10974.3
10696.5
10418.7
10140.8
9862.99
9585.15
9307.32
9029.48
8751.64
8473.81
8195.97
7918.13
7640.29
7362.45
7084.61
6806.78
6528.94
6251.1
5973.26
5695.43
5417.59
5139.75
4861.92
4584.08
4306.25
4028.42
3750.59
3472.75
3194.93
2917.1
2639.27
2361.45
2083.62
1805.8
1527.98
1250.16
972.344
694.529
416.716
138.904
)
;

boundaryField
{
    inlet
    {
        type            darcyGradPressure;
        gradient        uniform 116344;
        Mf              Mf;
        phi             phi;
        value           uniform 194215;
    }
    outlet
    {
        type            fixedValue;
        value           uniform 0;
    }
    emptyWalls
    {
        type            empty;
    }
}


// ************************************************************************* //
