/*--------------------------------*- C++ -*----------------------------------*\
  =========                 |
  \\      /  F ield         | OpenFOAM: The Open Source CFD Toolbox
   \\    /   O peration     | Website:  https://openfoam.org
    \\  /    A nd           | Version:  9
     \\/     M anipulation  |
\*---------------------------------------------------------------------------*/
FoamFile
{
    format      ascii;
    class       volScalarField;
    location    "1250";
    object      kra;
}
// * * * * * * * * * * * * * * * * * * * * * * * * * * * * * * * * * * * * * //

dimensions      [0 0 0 0 0 0 0];

internalField   nonuniform List<scalar> 
1000
(
0.000270721
0.000549167
0.000906963
0.000913215
0.00088941
0.000843544
0.000800601
0.000762017
0.000727534
0.000696675
0.000668937
0.000643837
0.000621048
0.000600129
0.00058102
0.000563177
0.000546857
0.000531361
0.000517152
0.000503578
0.000490944
0.000479024
0.000467653
0.000457091
0.0004469
0.000437342
0.000428261
0.000419499
0.00041128
0.000403298
0.000395669
0.000388409
0.0003813
0.000374557
0.000368006
0.000361625
0.00035555
0.000349549
0.00034378
0.000338188
0.000332658
0.000327379
0.000322104
0.000316918
0.000311639
0.000305886
0.000299356
0.000291204
0.000281373
0.000270447
0.000260637
0.00025384
0.000250157
0.000248632
0.000248
0.000247967
0.000248005
0.000248145
0.000248334
0.000248522
0.000248729
0.000248925
0.000249128
0.000249328
0.000249535
0.00024974
0.000249963
0.000250186
0.000250434
0.000250691
0.00025098
0.000251287
0.000251635
0.000252009
0.000252434
0.000252893
0.000253411
0.000253968
0.000254589
0.000255254
0.000255985
0.000256757
0.000257589
0.00025845
0.000259355
0.000260274
0.000261218
0.000262154
0.000263087
0.000263973
0.000264807
0.000265528
0.00026611
0.000266483
0.00026665
0.000266665
0.000266641
0.000266526
0.000265691
0.000264262
0.000262338
0.000259961
0.000257154
0.000254027
0.00025068
0.000247281
0.000243956
0.000240861
0.000238079
0.000235699
0.000233733
0.000232206
0.000231077
0.000230332
0.000229906
0.000229757
0.000229743
0.000229762
0.000230024
0.000230652
0.000231371
0.000232145
0.000232952
0.000233775
0.000234597
0.000235407
0.000236192
0.000236943
0.000237651
0.000238311
0.000238917
0.000239468
0.000239961
0.000240397
0.000240776
0.000241103
0.00024138
0.000241612
0.000241803
0.00024196
0.000242086
0.000242187
0.000242269
0.000242335
0.00024239
0.000242437
0.000242478
0.000242518
0.000242557
0.000242597
0.000242639
0.000242685
0.000242733
0.000242786
0.000242841
0.0002429
0.000242961
0.000243025
0.00024309
0.000243156
0.00024322
0.000243283
0.000243343
0.000243398
0.000243448
0.00024349
0.000243521
0.000243542
0.000243551
0.000243552
0.000243551
0.000243544
0.000243496
0.000243445
0.000243325
0.000243236
0.000243062
0.000242926
0.000242691
0.000242505
0.000242204
0.000241966
0.000241599
0.000241308
0.000240876
0.000240536
0.000240043
0.000239661
0.000239114
0.000238698
0.000238103
0.000237665
0.000237031
0.000236581
0.000235917
0.000235463
0.000234783
0.000234332
0.000233638
0.000233204
0.000232512
0.000232082
0.000231401
0.000231004
0.000230328
0.000229941
0.000229304
0.000228962
0.000228313
0.000228001
0.000227442
0.000227146
0.000226541
0.000226378
0.000225826
0.000225013
0.000219834
0.000138346
4.74867e-06
9.53343e-10
5.89712e-18
1.17019e-35
4.41399e-73
2.69416e-153
2.02567e-322
0
0
0
0
0
0
0
0
0
0
0
0
0
0
0
0
0
0
0
0
0
0
0
0
0
0
0
0
0
0
0
0
0
0
0
0
0
0
0
0
0
0
0
0
0
0
0
0
0
0
0
0
0
0
0
0
0
0
0
0
0
0
0
0
0
0
0
0
0
0
0
0
0
0
0
0
0
0
0
0
0
0
0
0
0
0
0
0
0
0
0
0
0
0
0
0
0
0
0
0
0
0
0
0
0
0
0
0
0
0
0
0
0
0
0
0
0
0
0
0
0
0
0
0
0
0
0
0
0
0
0
0
0
0
0
0
0
0
0
0
0
0
0
0
0
0
0
0
0
0
0
0
0
0
0
0
0
0
0
0
0
0
0
0
0
0
0
0
0
0
0
0
0
0
0
0
0
0
0
0
0
0
0
0
0
0
0
0
0
0
0
0
0
0
0
0
0
0
0
0
0
0
0
0
0
0
0
0
0
0
0
0
0
0
0
0
0
0
0
0
0
0
0
0
0
0
0
0
0
0
0
0
0
0
0
0
0
0
0
0
0
0
0
0
0
0
0
0
0
0
0
0
0
0
0
0
0
0
0
0
0
0
0
0
0
0
0
0
0
0
0
0
0
0
0
0
0
0
0
0
0
0
0
0
0
0
0
0
0
0
0
0
0
0
0
0
0
0
0
0
0
0
0
0
0
0
0
0
0
0
0
0
0
0
0
0
0
0
0
0
0
0
0
0
0
0
0
0
0
0
0
0
0
0
0
0
0
0
0
0
0
0
0
0
0
0
0
0
0
0
0
0
0
0
0
0
0
0
0
0
0
0
0
0
0
0
0
0
0
0
0
0
0
0
0
0
0
0
0
0
0
0
0
0
0
0
0
0
0
0
0
0
0
0
0
0
0
0
0
0
0
0
0
0
0
0
0
0
0
0
0
0
0
0
0
0
0
0
0
0
0
0
0
0
0
0
0
0
0
0
0
0
0
0
0
0
0
0
0
0
0
0
0
0
0
0
0
0
0
0
0
0
0
0
0
0
0
0
0
0
0
0
0
0
0
0
0
0
0
0
0
0
0
0
0
0
0
0
0
0
0
0
0
0
0
0
0
0
0
0
0
0
0
0
0
0
0
0
0
0
0
0
0
0
0
0
0
0
0
0
0
0
0
0
0
0
0
0
0
0
0
0
0
0
0
0
0
0
0
0
0
0
0
0
0
0
0
0
0
0
0
0
0
0
0
0
0
0
0
0
0
0
0
0
0
0
0
0
0
0
0
0
0
0
0
0
0
0
0
0
0
0
0
0
0
0
0
0
0
0
0
0
0
0
0
0
0
0
0
0
0
0
0
0
0
0
0
0
0
0
0
0
0
0
0
0
0
0
0
0
0
0
0
0
0
0
0
0
0
0
0
0
0
0
0
0
0
0
0
0
0
0
0
0
0
0
0
0
0
0
0
0
0
0
0
0
0
0
0
0
0
0
0
0
0
0
0
0
0
0
0
0
0
0
0
0
0
0
0
0
0
0
0
0
0
0
0
0
0
0
0
0
0
0
0
0
0
0
0
0
0
0
0
0
0
0
0
0
0
0
0
0
0
0
0
0
0
0
0
0
0
0
0
0
0
0
0
0
0
0
0
0
0
0
0
0
0
0
0
0
0
0
0
0
0
0
0
0
0
0
0
0
0
0
0
0
0
0
0
0
0
0
0
0
0
0
0
0
0
0
0
0
0
0
0
0
0
0
0
0
0
0
0
0
0
)
;

boundaryField
{
    inlet
    {
        type            calculated;
        value           uniform 0.000236304;
    }
    outlet
    {
        type            calculated;
        value           uniform 0;
    }
    emptyWalls
    {
        type            empty;
    }
}


// ************************************************************************* //
