/*--------------------------------*- C++ -*----------------------------------*\
  =========                 |
  \\      /  F ield         | OpenFOAM: The Open Source CFD Toolbox
   \\    /   O peration     | Website:  https://openfoam.org
    \\  /    A nd           | Version:  9
     \\/     M anipulation  |
\*---------------------------------------------------------------------------*/
FoamFile
{
    format      ascii;
    class       volScalarField;
    location    "4400";
    object      kra;
}
// * * * * * * * * * * * * * * * * * * * * * * * * * * * * * * * * * * * * * //

dimensions      [0 0 0 0 0 0 0];

internalField   nonuniform List<scalar> 
100
(
4.0717e-05
3.00687e-05
3.26268e-05
3.11798e-05
3.12658e-05
3.08763e-05
3.06943e-05
3.04705e-05
3.02855e-05
3.01067e-05
2.99421e-05
2.97863e-05
2.96392e-05
2.94993e-05
2.93658e-05
2.92379e-05
2.9115e-05
2.89964e-05
2.88819e-05
2.87708e-05
2.86628e-05
2.85576e-05
2.84548e-05
2.83541e-05
2.8255e-05
2.81573e-05
2.80605e-05
2.79641e-05
2.78674e-05
2.77697e-05
2.76698e-05
2.75662e-05
2.74563e-05
2.73365e-05
2.73733e-05
2.74088e-05
2.74425e-05
2.74732e-05
2.75029e-05
2.75308e-05
2.75577e-05
2.75835e-05
2.76084e-05
2.76324e-05
2.76557e-05
2.76782e-05
2.77e-05
2.77211e-05
2.77415e-05
2.77612e-05
2.77804e-05
2.77989e-05
2.78169e-05
2.78342e-05
2.7851e-05
2.78673e-05
2.7883e-05
2.78981e-05
2.79127e-05
2.79269e-05
2.79405e-05
2.79536e-05
2.79663e-05
2.79784e-05
2.79901e-05
2.80014e-05
2.80122e-05
2.80226e-05
2.80326e-05
2.80422e-05
2.80513e-05
2.806e-05
2.80684e-05
2.80763e-05
2.80838e-05
2.80909e-05
2.80976e-05
2.81039e-05
2.81098e-05
2.81153e-05
2.81205e-05
2.81252e-05
2.81295e-05
2.81334e-05
2.8137e-05
2.81401e-05
2.81429e-05
2.81452e-05
2.81472e-05
2.81489e-05
2.81501e-05
2.81509e-05
2.81514e-05
2.81515e-05
2.81512e-05
2.81505e-05
2.81495e-05
2.8148e-05
2.81462e-05
7.33924e-05
)
;

boundaryField
{
    inlet
    {
        type            calculated;
        value           uniform 1.22019e-05;
    }
    outlet
    {
        type            calculated;
        value           uniform 8.51289e-06;
    }
    emptyWalls
    {
        type            empty;
    }
}


// ************************************************************************* //
