/*--------------------------------*- C++ -*----------------------------------*\
  =========                 |
  \\      /  F ield         | OpenFOAM: The Open Source CFD Toolbox
   \\    /   O peration     | Website:  https://openfoam.org
    \\  /    A nd           | Version:  9
     \\/     M anipulation  |
\*---------------------------------------------------------------------------*/
FoamFile
{
    format      ascii;
    class       volScalarField;
    location    "4400";
    object      p;
}
// * * * * * * * * * * * * * * * * * * * * * * * * * * * * * * * * * * * * * //

dimensions      [0 0 0 0 0 0 0];

internalField   nonuniform List<scalar> 
100
(
6.09766e+06
6.08967e+06
6.07887e+06
6.06892e+06
6.05851e+06
6.04813e+06
6.03763e+06
6.02708e+06
6.01645e+06
6.00576e+06
5.99501e+06
5.98421e+06
5.97337e+06
5.96247e+06
5.95153e+06
5.94055e+06
5.92952e+06
5.91846e+06
5.90736e+06
5.89622e+06
5.88505e+06
5.87384e+06
5.8626e+06
5.85133e+06
5.84002e+06
5.82868e+06
5.81732e+06
5.80592e+06
5.7945e+06
5.78304e+06
5.77155e+06
5.76004e+06
5.74849e+06
5.7369e+06
5.72529e+06
5.7137e+06
5.70214e+06
5.69061e+06
5.67911e+06
5.66763e+06
5.65617e+06
5.64475e+06
5.63334e+06
5.62196e+06
5.6106e+06
5.59927e+06
5.58795e+06
5.57666e+06
5.56539e+06
5.55414e+06
5.54292e+06
5.53171e+06
5.52053e+06
5.50937e+06
5.49822e+06
5.4871e+06
5.476e+06
5.46492e+06
5.45386e+06
5.44282e+06
5.4318e+06
5.4208e+06
5.40982e+06
5.39886e+06
5.38792e+06
5.377e+06
5.3661e+06
5.35521e+06
5.34435e+06
5.33351e+06
5.32268e+06
5.31188e+06
5.30109e+06
5.29032e+06
5.27957e+06
5.26884e+06
5.25813e+06
5.24744e+06
5.23677e+06
5.22612e+06
5.21548e+06
5.20486e+06
5.19427e+06
5.18369e+06
5.17313e+06
5.16259e+06
5.15206e+06
5.14156e+06
5.13107e+06
5.12061e+06
5.11016e+06
5.09973e+06
5.08932e+06
5.07893e+06
5.06855e+06
5.0582e+06
5.04786e+06
5.03755e+06
5.02725e+06
5.01697e+06
)
;

boundaryField
{
    inlet
    {
        type            darcyGradPressure;
        gradient        uniform 3.91283e+06;
        Mf              Mf;
        phi             phi;
        value           uniform 6.10548e+06;
    }
    outlet
    {
        type            fixedValue;
        value           uniform 5e+06;
    }
    emptyWalls
    {
        type            empty;
    }
}


// ************************************************************************* //
