/*--------------------------------*- C++ -*----------------------------------*\
  =========                 |
  \\      /  F ield         | OpenFOAM: The Open Source CFD Toolbox
   \\    /   O peration     | Website:  https://openfoam.org
    \\  /    A nd           | Version:  9
     \\/     M anipulation  |
\*---------------------------------------------------------------------------*/
FoamFile
{
    format      ascii;
    class       surfaceScalarField;
    location    "4400";
    object      phia;
}
// * * * * * * * * * * * * * * * * * * * * * * * * * * * * * * * * * * * * * //

dimensions      [0 2 0 0 0 0 0];

internalField   nonuniform List<scalar> 
99
(
1.42073e-08
1.42017e-08
1.41954e-08
1.41887e-08
1.41817e-08
1.41745e-08
1.4167e-08
1.41593e-08
1.41513e-08
1.41432e-08
1.41349e-08
1.41265e-08
1.41178e-08
1.41091e-08
1.41001e-08
1.4091e-08
1.40818e-08
1.40724e-08
1.40629e-08
1.40532e-08
1.40434e-08
1.40334e-08
1.40232e-08
1.40128e-08
1.40023e-08
1.39914e-08
1.39803e-08
1.39689e-08
1.3957e-08
1.39447e-08
1.39316e-08
1.39177e-08
1.39024e-08
1.38852e-08
1.38664e-08
1.38497e-08
1.38331e-08
1.38169e-08
1.38007e-08
1.37848e-08
1.37688e-08
1.37529e-08
1.37371e-08
1.37212e-08
1.37053e-08
1.36893e-08
1.36733e-08
1.36571e-08
1.36409e-08
1.36246e-08
1.36081e-08
1.35915e-08
1.35748e-08
1.3558e-08
1.35411e-08
1.3524e-08
1.35067e-08
1.34894e-08
1.34719e-08
1.34542e-08
1.34364e-08
1.34185e-08
1.34004e-08
1.33822e-08
1.33639e-08
1.33454e-08
1.33268e-08
1.33081e-08
1.32892e-08
1.32702e-08
1.3251e-08
1.32317e-08
1.32123e-08
1.31927e-08
1.3173e-08
1.31531e-08
1.31331e-08
1.31129e-08
1.30925e-08
1.3072e-08
1.30513e-08
1.30305e-08
1.30095e-08
1.29883e-08
1.29669e-08
1.29453e-08
1.29236e-08
1.29017e-08
1.28796e-08
1.28573e-08
1.28348e-08
1.28121e-08
1.27892e-08
1.27662e-08
1.27429e-08
1.27193e-08
1.26956e-08
1.26716e-08
1.26474e-08
)
;

boundaryField
{
    inlet
    {
        type            calculated;
        value           uniform -1.42126e-08;
    }
    outlet
    {
        type            calculated;
        value           uniform 1.26322e-08;
    }
    emptyWalls
    {
        type            empty;
        value           nonuniform List<scalar> 0();
    }
}


// ************************************************************************* //
