/*--------------------------------*- C++ -*----------------------------------*\
  =========                 |
  \\      /  F ield         | OpenFOAM: The Open Source CFD Toolbox
   \\    /   O peration     | Website:  https://openfoam.org
    \\  /    A nd           | Version:  9
     \\/     M anipulation  |
\*---------------------------------------------------------------------------*/
FoamFile
{
    format      ascii;
    class       surfaceScalarField;
    location    "4400";
    object      phib;
}
// * * * * * * * * * * * * * * * * * * * * * * * * * * * * * * * * * * * * * //

dimensions      [0 2 0 0 0 0 0];

internalField   nonuniform List<scalar> 
99
(
6.09093e-09
6.09069e-09
6.09042e-09
6.09014e-09
6.08985e-09
6.08954e-09
6.08922e-09
6.0889e-09
6.08856e-09
6.08822e-09
6.08787e-09
6.08751e-09
6.08714e-09
6.08677e-09
6.08639e-09
6.08601e-09
6.08562e-09
6.08523e-09
6.08483e-09
6.08442e-09
6.08401e-09
6.08359e-09
6.08316e-09
6.08273e-09
6.08228e-09
6.08183e-09
6.08137e-09
6.08089e-09
6.08039e-09
6.07988e-09
6.07933e-09
6.07875e-09
6.0781e-09
6.07738e-09
6.07842e-09
6.07878e-09
6.07943e-09
6.08003e-09
6.08071e-09
6.0814e-09
6.0821e-09
6.08277e-09
6.08341e-09
6.08403e-09
6.08462e-09
6.08519e-09
6.08576e-09
6.08633e-09
6.0869e-09
6.08747e-09
6.08806e-09
6.08866e-09
6.08927e-09
6.0899e-09
6.09054e-09
6.0912e-09
6.09188e-09
6.09259e-09
6.09331e-09
6.09405e-09
6.09482e-09
6.0956e-09
6.0964e-09
6.09722e-09
6.09804e-09
6.09888e-09
6.09972e-09
6.10057e-09
6.10142e-09
6.10227e-09
6.10314e-09
6.10401e-09
6.10488e-09
6.10577e-09
6.10666e-09
6.10757e-09
6.1085e-09
6.10944e-09
6.1104e-09
6.11138e-09
6.11237e-09
6.11339e-09
6.11443e-09
6.11549e-09
6.11657e-09
6.11767e-09
6.11879e-09
6.11993e-09
6.12109e-09
6.12226e-09
6.12345e-09
6.12465e-09
6.12588e-09
6.12712e-09
6.12837e-09
6.12965e-09
6.13095e-09
6.13227e-09
6.13361e-09
)
;

boundaryField
{
    inlet
    {
        type            calculated;
        value           uniform -6.09112e-09;
    }
    outlet
    {
        type            calculated;
        value           uniform 6.13342e-09;
    }
    emptyWalls
    {
        type            empty;
        value           nonuniform List<scalar> 0();
    }
}


// ************************************************************************* //
