/*--------------------------------*- C++ -*----------------------------------*\
  =========                 |
  \\      /  F ield         | OpenFOAM: The Open Source CFD Toolbox
   \\    /   O peration     | Website:  https://openfoam.org
    \\  /    A nd           | Version:  9
     \\/     M anipulation  |
\*---------------------------------------------------------------------------*/
FoamFile
{
    format      ascii;
    class       surfaceScalarField;
    location    "4400";
    object      phic;
}
// * * * * * * * * * * * * * * * * * * * * * * * * * * * * * * * * * * * * * //

dimensions      [0 2 0 0 0 0 0];

internalField   nonuniform List<scalar> 
99
(
5.49113e-12
1.13951e-11
1.79506e-11
2.48689e-11
3.21407e-11
3.96984e-11
4.75156e-11
5.5565e-11
6.3828e-11
7.22891e-11
8.09363e-11
8.97597e-11
9.87515e-11
1.07906e-10
1.17218e-10
1.26685e-10
1.36305e-10
1.46079e-10
1.56007e-10
1.66093e-10
1.76342e-10
1.86763e-10
1.97367e-10
2.08171e-10
2.19196e-10
2.30473e-10
2.42041e-10
2.53958e-10
2.66303e-10
2.7919e-10
2.92783e-10
3.07335e-10
3.23242e-10
3.41157e-10
3.58898e-10
3.7523e-10
3.9125e-10
4.06853e-10
4.22276e-10
4.37566e-10
4.528e-10
4.68015e-10
4.83247e-10
4.98517e-10
5.13845e-10
5.29243e-10
5.44721e-10
5.60288e-10
5.7595e-10
5.91712e-10
6.07578e-10
6.23551e-10
6.39635e-10
6.5583e-10
6.7214e-10
6.88565e-10
7.05108e-10
7.21769e-10
7.38549e-10
7.5545e-10
7.72472e-10
7.89617e-10
8.06885e-10
8.24278e-10
8.41796e-10
8.59441e-10
8.77213e-10
8.95113e-10
9.13143e-10
9.31303e-10
9.49595e-10
9.6802e-10
9.86579e-10
1.00527e-09
1.0241e-09
1.04307e-09
1.06218e-09
1.08143e-09
1.10082e-09
1.12036e-09
1.14004e-09
1.15987e-09
1.17985e-09
1.19999e-09
1.22028e-09
1.24073e-09
1.26134e-09
1.28212e-09
1.30307e-09
1.32418e-09
1.34548e-09
1.36695e-09
1.38861e-09
1.41046e-09
1.43251e-09
1.45475e-09
1.47721e-09
1.49988e-09
1.52277e-09
)
;

boundaryField
{
    inlet
    {
        type            calculated;
        value           uniform 0;
    }
    outlet
    {
        type            calculated;
        value           uniform 1.53815e-09;
    }
    emptyWalls
    {
        type            empty;
        value           nonuniform List<scalar> 0();
    }
}


// ************************************************************************* //
