/*--------------------------------*- C++ -*----------------------------------*\
  =========                 |
  \\      /  F ield         | OpenFOAM: The Open Source CFD Toolbox
   \\    /   O peration     | Website:  https://openfoam.org
    \\  /    A nd           | Version:  9
     \\/     M anipulation  |
\*---------------------------------------------------------------------------*/
FoamFile
{
    format      ascii;
    class       volVectorField;
    location    "4400";
    object      Ua;
}
// * * * * * * * * * * * * * * * * * * * * * * * * * * * * * * * * * * * * * //

dimensions      [0 0 0 0 0 0 0];

internalField   nonuniform List<vector> 
100
(
(0 0 8.97484e-06)
(0 0 1.13036e-05)
(0 0 1.12988e-05)
(0 0 1.12937e-05)
(0 0 1.12883e-05)
(0 0 1.12826e-05)
(0 0 1.12767e-05)
(0 0 1.12707e-05)
(0 0 1.12644e-05)
(0 0 1.12581e-05)
(0 0 1.12515e-05)
(0 0 1.12449e-05)
(0 0 1.12381e-05)
(0 0 1.12311e-05)
(0 0 1.12241e-05)
(0 0 1.12169e-05)
(0 0 1.12096e-05)
(0 0 1.12022e-05)
(0 0 1.11947e-05)
(0 0 1.11871e-05)
(0 0 1.11793e-05)
(0 0 1.11714e-05)
(0 0 1.11634e-05)
(0 0 1.11552e-05)
(0 0 1.11469e-05)
(0 0 1.11383e-05)
(0 0 1.11296e-05)
(0 0 1.11206e-05)
(0 0 1.11114e-05)
(0 0 1.11017e-05)
(0 0 1.10916e-05)
(0 0 1.10809e-05)
(0 0 1.10692e-05)
(0 0 1.10563e-05)
(0 0 1.1042e-05)
(0 0 1.10279e-05)
(0 0 1.10146e-05)
(0 0 1.10015e-05)
(0 0 1.09887e-05)
(0 0 1.09759e-05)
(0 0 1.09632e-05)
(0 0 1.09506e-05)
(0 0 1.09379e-05)
(0 0 1.09253e-05)
(0 0 1.09126e-05)
(0 0 1.09e-05)
(0 0 1.08872e-05)
(0 0 1.08744e-05)
(0 0 1.08615e-05)
(0 0 1.08486e-05)
(0 0 1.08355e-05)
(0 0 1.08224e-05)
(0 0 1.08091e-05)
(0 0 1.07958e-05)
(0 0 1.07824e-05)
(0 0 1.07688e-05)
(0 0 1.07552e-05)
(0 0 1.07414e-05)
(0 0 1.07275e-05)
(0 0 1.07136e-05)
(0 0 1.06995e-05)
(0 0 1.06853e-05)
(0 0 1.06709e-05)
(0 0 1.06565e-05)
(0 0 1.0642e-05)
(0 0 1.06273e-05)
(0 0 1.06125e-05)
(0 0 1.05977e-05)
(0 0 1.05827e-05)
(0 0 1.05676e-05)
(0 0 1.05524e-05)
(0 0 1.05371e-05)
(0 0 1.05217e-05)
(0 0 1.05062e-05)
(0 0 1.04906e-05)
(0 0 1.04748e-05)
(0 0 1.04589e-05)
(0 0 1.04429e-05)
(0 0 1.04268e-05)
(0 0 1.04105e-05)
(0 0 1.03941e-05)
(0 0 1.03776e-05)
(0 0 1.0361e-05)
(0 0 1.03442e-05)
(0 0 1.03272e-05)
(0 0 1.03101e-05)
(0 0 1.02929e-05)
(0 0 1.02756e-05)
(0 0 1.0258e-05)
(0 0 1.02404e-05)
(0 0 1.02226e-05)
(0 0 1.02046e-05)
(0 0 1.01865e-05)
(0 0 1.01682e-05)
(0 0 1.01497e-05)
(0 0 1.01311e-05)
(0 0 1.01123e-05)
(0 0 1.00933e-05)
(0 0 1.00741e-05)
(0 0 1.00584e-05)
)
;

boundaryField
{
    inlet
    {
        type            fixedValue;
        value           uniform (0 0 1.131e-05);
    }
    outlet
    {
        type            zeroGradient;
    }
    emptyWalls
    {
        type            empty;
    }
}


// ************************************************************************* //
