/*--------------------------------*- C++ -*----------------------------------*\
  =========                 |
  \\      /  F ield         | OpenFOAM: The Open Source CFD Toolbox
   \\    /   O peration     | Website:  https://openfoam.org
    \\  /    A nd           | Version:  9
     \\/     M anipulation  |
\*---------------------------------------------------------------------------*/
FoamFile
{
    format      ascii;
    class       volVectorField;
    location    "4400";
    object      Ub;
}
// * * * * * * * * * * * * * * * * * * * * * * * * * * * * * * * * * * * * * //

dimensions      [0 0 0 0 0 0 0];

internalField   nonuniform List<vector> 
100
(
(0 0 7.17589e-06)
(0 0 4.84691e-06)
(0 0 4.84671e-06)
(0 0 4.84649e-06)
(0 0 4.84626e-06)
(0 0 4.84602e-06)
(0 0 4.84578e-06)
(0 0 4.84552e-06)
(0 0 4.84526e-06)
(0 0 4.84499e-06)
(0 0 4.84471e-06)
(0 0 4.84443e-06)
(0 0 4.84414e-06)
(0 0 4.84385e-06)
(0 0 4.84355e-06)
(0 0 4.84325e-06)
(0 0 4.84294e-06)
(0 0 4.84263e-06)
(0 0 4.84231e-06)
(0 0 4.84199e-06)
(0 0 4.84166e-06)
(0 0 4.84133e-06)
(0 0 4.84099e-06)
(0 0 4.84065e-06)
(0 0 4.8403e-06)
(0 0 4.83995e-06)
(0 0 4.83958e-06)
(0 0 4.83921e-06)
(0 0 4.83882e-06)
(0 0 4.83842e-06)
(0 0 4.83799e-06)
(0 0 4.83754e-06)
(0 0 4.83706e-06)
(0 0 4.83651e-06)
(0 0 4.83664e-06)
(0 0 4.83719e-06)
(0 0 4.8376e-06)
(0 0 4.8381e-06)
(0 0 4.83861e-06)
(0 0 4.83915e-06)
(0 0 4.8397e-06)
(0 0 4.84025e-06)
(0 0 4.84077e-06)
(0 0 4.84127e-06)
(0 0 4.84175e-06)
(0 0 4.84221e-06)
(0 0 4.84267e-06)
(0 0 4.84312e-06)
(0 0 4.84357e-06)
(0 0 4.84403e-06)
(0 0 4.84449e-06)
(0 0 4.84496e-06)
(0 0 4.84545e-06)
(0 0 4.84594e-06)
(0 0 4.84644e-06)
(0 0 4.84696e-06)
(0 0 4.8475e-06)
(0 0 4.84805e-06)
(0 0 4.84861e-06)
(0 0 4.8492e-06)
(0 0 4.8498e-06)
(0 0 4.85041e-06)
(0 0 4.85104e-06)
(0 0 4.85169e-06)
(0 0 4.85234e-06)
(0 0 4.853e-06)
(0 0 4.85367e-06)
(0 0 4.85434e-06)
(0 0 4.85502e-06)
(0 0 4.8557e-06)
(0 0 4.85638e-06)
(0 0 4.85707e-06)
(0 0 4.85776e-06)
(0 0 4.85846e-06)
(0 0 4.85917e-06)
(0 0 4.85989e-06)
(0 0 4.86062e-06)
(0 0 4.86136e-06)
(0 0 4.86212e-06)
(0 0 4.86289e-06)
(0 0 4.86368e-06)
(0 0 4.86448e-06)
(0 0 4.8653e-06)
(0 0 4.86613e-06)
(0 0 4.86698e-06)
(0 0 4.86785e-06)
(0 0 4.86874e-06)
(0 0 4.86963e-06)
(0 0 4.87055e-06)
(0 0 4.87147e-06)
(0 0 4.87241e-06)
(0 0 4.87336e-06)
(0 0 4.87433e-06)
(0 0 4.87531e-06)
(0 0 4.8763e-06)
(0 0 4.87731e-06)
(0 0 4.87834e-06)
(0 0 4.87938e-06)
(0 0 4.88044e-06)
(0 0 4.88089e-06)
)
;

boundaryField
{
    inlet
    {
        type            fixedValue;
        value           uniform (0 0 4.84716e-06);
    }
    outlet
    {
        type            zeroGradient;
    }
    emptyWalls
    {
        type            empty;
    }
}


// ************************************************************************* //
