/*--------------------------------*- C++ -*----------------------------------*\
  =========                 |
  \\      /  F ield         | OpenFOAM: The Open Source CFD Toolbox
   \\    /   O peration     | Website:  https://openfoam.org
    \\  /    A nd           | Version:  9
     \\/     M anipulation  |
\*---------------------------------------------------------------------------*/
FoamFile
{
    format      ascii;
    class       volVectorField;
    location    "4400";
    object      Uc;
}
// * * * * * * * * * * * * * * * * * * * * * * * * * * * * * * * * * * * * * //

dimensions      [0 0 0 0 0 0 0];

internalField   nonuniform List<vector> 
100
(
(0 0 6.46924e-09)
(0 0 6.71882e-09)
(0 0 1.16763e-08)
(0 0 1.70373e-08)
(0 0 2.26834e-08)
(0 0 2.85839e-08)
(0 0 3.47014e-08)
(0 0 4.10145e-08)
(0 0 4.7505e-08)
(0 0 5.41593e-08)
(0 0 6.09665e-08)
(0 0 6.79177e-08)
(0 0 7.50062e-08)
(0 0 8.22264e-08)
(0 0 8.9574e-08)
(0 0 9.7046e-08)
(0 0 1.04641e-07)
(0 0 1.12357e-07)
(0 0 1.20196e-07)
(0 0 1.28159e-07)
(0 0 1.3625e-07)
(0 0 1.44475e-07)
(0 0 1.5284e-07)
(0 0 1.61359e-07)
(0 0 1.70044e-07)
(0 0 1.78918e-07)
(0 0 1.88007e-07)
(0 0 1.97352e-07)
(0 0 2.07006e-07)
(0 0 2.17045e-07)
(0 0 2.27581e-07)
(0 0 2.38779e-07)
(0 0 2.50899e-07)
(0 0 2.64356e-07)
(0 0 2.78543e-07)
(0 0 2.921e-07)
(0 0 3.04973e-07)
(0 0 3.17555e-07)
(0 0 3.299e-07)
(0 0 3.42121e-07)
(0 0 3.54266e-07)
(0 0 3.66381e-07)
(0 0 3.78495e-07)
(0 0 3.90632e-07)
(0 0 4.02806e-07)
(0 0 4.15031e-07)
(0 0 4.27317e-07)
(0 0 4.39669e-07)
(0 0 4.52095e-07)
(0 0 4.64598e-07)
(0 0 4.77182e-07)
(0 0 4.89851e-07)
(0 0 5.02606e-07)
(0 0 5.15449e-07)
(0 0 5.28383e-07)
(0 0 5.41407e-07)
(0 0 5.54525e-07)
(0 0 5.67736e-07)
(0 0 5.81042e-07)
(0 0 5.94443e-07)
(0 0 6.07941e-07)
(0 0 6.21535e-07)
(0 0 6.35228e-07)
(0 0 6.49019e-07)
(0 0 6.6291e-07)
(0 0 6.76901e-07)
(0 0 6.90993e-07)
(0 0 7.05186e-07)
(0 0 7.19482e-07)
(0 0 7.33882e-07)
(0 0 7.48386e-07)
(0 0 7.62995e-07)
(0 0 7.7771e-07)
(0 0 7.92532e-07)
(0 0 8.07463e-07)
(0 0 8.22502e-07)
(0 0 8.37653e-07)
(0 0 8.52914e-07)
(0 0 8.68289e-07)
(0 0 8.83778e-07)
(0 0 8.99383e-07)
(0 0 9.15105e-07)
(0 0 9.30946e-07)
(0 0 9.46909e-07)
(0 0 9.62995e-07)
(0 0 9.79205e-07)
(0 0 9.95544e-07)
(0 0 1.01201e-06)
(0 0 1.02861e-06)
(0 0 1.04535e-06)
(0 0 1.06222e-06)
(0 0 1.07924e-06)
(0 0 1.0964e-06)
(0 0 1.11372e-06)
(0 0 1.13118e-06)
(0 0 1.1488e-06)
(0 0 1.16659e-06)
(0 0 1.18455e-06)
(0 0 1.20268e-06)
(0 0 1.2179e-06)
)
;

boundaryField
{
    inlet
    {
        type            fixedValue;
        value           uniform (0 0 0);
    }
    outlet
    {
        type            zeroGradient;
    }
    emptyWalls
    {
        type            empty;
    }
}


// ************************************************************************* //
