/*--------------------------------*- C++ -*----------------------------------*\
  =========                 |
  \\      /  F ield         | OpenFOAM: The Open Source CFD Toolbox
   \\    /   O peration     | Website:  https://openfoam.org
    \\  /    A nd           | Version:  9
     \\/     M anipulation  |
\*---------------------------------------------------------------------------*/
FoamFile
{
    format      ascii;
    class       volScalarField;
    location    "96000";
    object      krc;
}
// * * * * * * * * * * * * * * * * * * * * * * * * * * * * * * * * * * * * * //

dimensions      [0 0 0 0 0 0 0];

internalField   nonuniform List<scalar> 
100
(
5.9278e-23
7.39429e-25
1.46969e-24
1.5986e-24
1.70029e-25
1.21148e-24
2.60586e-25
2.17818e-27
1.17359e-24
6.68704e-25
1.83951e-24
5.86544e-28
1.41552e-25
1.16538e-25
5.29431e-25
2.37011e-24
1.8538e-24
3.94159e-24
1.29984e-25
8.33935e-26
1.24069e-24
3.88537e-24
1.01883e-24
6.8394e-25
3.84247e-24
4.9848e-25
5.01589e-25
2.25267e-24
3.56468e-28
1.08717e-23
7.91903e-25
1.8018e-24
4.33334e-24
7.05813e-24
1.6033e-25
2.1037e-24
7.53196e-27
2.09221e-26
2.86193e-25
3.2811e-25
1.02566e-25
1.39083e-24
4.09295e-24
1.5049e-25
1.12329e-24
2.79595e-25
4.26667e-25
9.59809e-25
1.34565e-24
1.00022e-24
3.14494e-25
4.18502e-25
2.64065e-24
4.6428e-25
4.08206e-25
1.09107e-24
5.98858e-25
5.99344e-25
1.54779e-24
1.11564e-24
2.02899e-24
9.72619e-25
3.43669e-25
9.68288e-25
2.90075e-26
1.27078e-24
1.24384e-24
1.75615e-24
1.27095e-24
8.99562e-26
1.38288e-24
1.0405e-24
4.82315e-26
1.61043e-26
6.16384e-26
3.44314e-25
2.04704e-26
1.06815e-26
1.47236e-24
8.15054e-31
1.50743e-24
1.24402e-24
6.5066e-27
8.88282e-25
2.93292e-26
9.49445e-28
6.08613e-26
1.01678e-24
9.09045e-27
9.96768e-25
1.0896e-24
8.92579e-25
2.92486e-26
3.80504e-25
8.01643e-27
2.05828e-26
2.67281e-25
8.22228e-25
1.70308e-24
1.41333e-24
)
;

boundaryField
{
    inlet
    {
        type            calculated;
        value           uniform 5.9278e-23;
    }
    outlet
    {
        type            calculated;
        value           uniform 1.41333e-24;
    }
    emptyWalls
    {
        type            empty;
    }
}


// ************************************************************************* //
