/*--------------------------------*- C++ -*----------------------------------*\
  =========                 |
  \\      /  F ield         | OpenFOAM: The Open Source CFD Toolbox
   \\    /   O peration     | Website:  https://openfoam.org
    \\  /    A nd           | Version:  9
     \\/     M anipulation  |
\*---------------------------------------------------------------------------*/
FoamFile
{
    format      ascii;
    class       volScalarField;
    location    "200";
    object      Fa;
}
// * * * * * * * * * * * * * * * * * * * * * * * * * * * * * * * * * * * * * //

dimensions      [0 0 0 0 0 0 0];

internalField   nonuniform List<scalar> 
100
(
0.687004
0.669308
0.646295
0.616019
0.571591
0.494411
0.319711
0.0363866
7.09412e-06
8.43034e-15
4.74303e-33
1.51764e-33
1.51756e-33
1.51755e-33
1.43282e-33
1.69436e-33
1.39137e-33
1.51755e-33
1.35053e-33
1.47488e-33
1.35053e-33
1.51755e-33
1.39137e-33
1.39137e-33
1.39137e-33
1.51755e-33
1.35053e-33
1.51755e-33
1.39137e-33
1.69436e-33
1.39137e-33
1.51755e-33
1.51755e-33
1.47488e-33
1.39137e-33
1.47488e-33
1.51755e-33
1.39137e-33
1.39137e-33
1.47488e-33
1.51755e-33
1.51755e-33
1.51755e-33
1.51755e-33
1.51755e-33
1.39137e-33
1.51755e-33
1.51755e-33
1.39137e-33
1.51755e-33
1.47488e-33
1.39137e-33
1.39137e-33
1.51755e-33
1.39137e-33
1.47488e-33
1.39137e-33
1.39137e-33
1.47488e-33
1.51755e-33
1.47488e-33
1.51755e-33
1.47488e-33
1.39137e-33
1.39137e-33
1.64924e-33
1.51755e-33
1.60473e-33
1.39137e-33
1.39137e-33
1.51755e-33
1.60473e-33
1.51755e-33
1.64924e-33
1.60473e-33
1.64924e-33
1.51755e-33
1.51755e-33
1.51755e-33
1.60473e-33
1.39137e-33
1.64924e-33
1.51755e-33
1.51755e-33
1.60473e-33
1.35053e-33
1.64924e-33
1.51755e-33
1.60473e-33
1.64924e-33
1.60473e-33
1.64924e-33
1.51755e-33
1.60473e-33
1.64924e-33
1.39137e-33
1.60473e-33
1.64924e-33
1.60473e-33
1.64924e-33
)
;

boundaryField
{
    inlet
    {
        type            calculated;
        value           uniform 0.339918;
    }
    outlet
    {
        type            calculated;
        value           uniform 5.9205e-34;
    }
    emptyWalls
    {
        type            empty;
    }
}


// ************************************************************************* //
