/*--------------------------------*- C++ -*----------------------------------*\
  =========                 |
  \\      /  F ield         | OpenFOAM: The Open Source CFD Toolbox
   \\    /   O peration     | Website:  https://openfoam.org
    \\  /    A nd           | Version:  9
     \\/     M anipulation  |
\*---------------------------------------------------------------------------*/
FoamFile
{
    format      ascii;
    class       volScalarField;
    location    "200";
    object      Nca;
}
// * * * * * * * * * * * * * * * * * * * * * * * * * * * * * * * * * * * * * //

dimensions      [0 0 0 0 0 0 0];

internalField   nonuniform List<scalar> 
100
(
0.000299875
0.00022374
0.000234597
0.000214916
0.000206067
0.000187484
0.00015696
9.99661e-05
4.23565e-05
1.6652e-05
1.24596e-05
1.22686e-05
1.22637e-05
1.22636e-05
1.22636e-05
1.22636e-05
1.22636e-05
1.22636e-05
1.22636e-05
1.22636e-05
1.22636e-05
1.22636e-05
1.22636e-05
1.22636e-05
1.22636e-05
1.22636e-05
1.22636e-05
1.22636e-05
1.22636e-05
1.22636e-05
1.22636e-05
1.22636e-05
1.22636e-05
1.22636e-05
1.22636e-05
1.22636e-05
1.22636e-05
1.22636e-05
1.22636e-05
1.22636e-05
1.22636e-05
1.22636e-05
1.22636e-05
1.22636e-05
1.22636e-05
1.22636e-05
1.22636e-05
1.22636e-05
1.22636e-05
1.22636e-05
1.22636e-05
1.22636e-05
1.22636e-05
1.22636e-05
1.22636e-05
1.22636e-05
1.22636e-05
1.22636e-05
1.22636e-05
1.22636e-05
1.22636e-05
1.22636e-05
1.22636e-05
1.22636e-05
1.22636e-05
1.22636e-05
1.22636e-05
1.22636e-05
1.22636e-05
1.22636e-05
1.22636e-05
1.22636e-05
1.22636e-05
1.22636e-05
1.22636e-05
1.22636e-05
1.22636e-05
1.22636e-05
1.22636e-05
1.22636e-05
1.22636e-05
1.22636e-05
1.22636e-05
1.22636e-05
1.22636e-05
1.22636e-05
1.22636e-05
1.22636e-05
1.22636e-05
1.22636e-05
1.22636e-05
1.22636e-05
1.22636e-05
1.22636e-05
1.22636e-05
1.22636e-05
1.22636e-05
1.22636e-05
1.22636e-05
1.22636e-05
)
;

boundaryField
{
    inlet
    {
        type            calculated;
        value           uniform 0.000406839;
    }
    outlet
    {
        type            calculated;
        value           uniform 1.22636e-05;
    }
    emptyWalls
    {
        type            empty;
    }
}


// ************************************************************************* //
