/*--------------------------------*- C++ -*----------------------------------*\
  =========                 |
  \\      /  F ield         | OpenFOAM: The Open Source CFD Toolbox
   \\    /   O peration     | Website:  https://openfoam.org
    \\  /    A nd           | Version:  9
     \\/     M anipulation  |
\*---------------------------------------------------------------------------*/
FoamFile
{
    format      ascii;
    class       surfaceScalarField;
    location    "200";
    object      phia;
}
// * * * * * * * * * * * * * * * * * * * * * * * * * * * * * * * * * * * * * //

dimensions      [0 2 0 0 0 0 0];

internalField   nonuniform List<scalar> 
99
(
1.39487e-08
1.35895e-08
1.31222e-08
1.25075e-08
1.16054e-08
1.00384e-08
6.49132e-09
7.38785e-10
1.44037e-13
1.71167e-22
9.63013e-41
3.08137e-41
3.0812e-41
3.0812e-41
2.90916e-41
3.44019e-41
2.825e-41
3.0812e-41
2.74209e-41
2.99456e-41
2.74209e-41
3.0812e-41
2.825e-41
2.825e-41
2.825e-41
3.0812e-41
2.74209e-41
3.0812e-41
2.825e-41
3.44019e-41
2.825e-41
3.0812e-41
3.0812e-41
2.99456e-41
2.825e-41
2.99456e-41
3.0812e-41
2.825e-41
2.825e-41
2.99456e-41
3.0812e-41
3.0812e-41
3.0812e-41
3.0812e-41
3.0812e-41
2.825e-41
3.0812e-41
3.0812e-41
2.825e-41
3.0812e-41
2.99456e-41
2.825e-41
2.825e-41
3.0812e-41
2.825e-41
2.99456e-41
2.825e-41
2.825e-41
2.99456e-41
3.0812e-41
2.99456e-41
3.0812e-41
2.99456e-41
2.825e-41
2.825e-41
3.34858e-41
3.0812e-41
3.25821e-41
2.825e-41
2.825e-41
3.0812e-41
3.25821e-41
3.0812e-41
3.34858e-41
3.25821e-41
3.34858e-41
3.0812e-41
3.0812e-41
3.0812e-41
3.25821e-41
2.825e-41
3.34858e-41
3.0812e-41
3.0812e-41
3.25821e-41
2.74209e-41
3.34858e-41
3.0812e-41
3.25821e-41
3.34858e-41
3.25821e-41
3.34858e-41
3.0812e-41
3.25821e-41
3.34858e-41
2.825e-41
3.25821e-41
3.34858e-41
3.25821e-41
)
;

boundaryField
{
    inlet
    {
        type            calculated;
        value           uniform -1.42126e-08;
    }
    outlet
    {
        type            calculated;
        value           uniform 1.20208e-41;
    }
    emptyWalls
    {
        type            empty;
        value           nonuniform List<scalar> 0();
    }
}


// ************************************************************************* //
