/*--------------------------------*- C++ -*----------------------------------*\
  =========                 |
  \\      /  F ield         | OpenFOAM: The Open Source CFD Toolbox
   \\    /   O peration     | Website:  https://openfoam.org
    \\  /    A nd           | Version:  9
     \\/     M anipulation  |
\*---------------------------------------------------------------------------*/
FoamFile
{
    format      ascii;
    class       surfaceScalarField;
    location    "200";
    object      phib;
}
// * * * * * * * * * * * * * * * * * * * * * * * * * * * * * * * * * * * * * //

dimensions      [0 2 0 0 0 0 0];

internalField   nonuniform List<scalar> 
99
(
6.08942e-09
6.11637e-09
6.14185e-09
6.18282e-09
6.25994e-09
6.4583e-09
7.34467e-09
1.18291e-08
1.91389e-08
2.00677e-08
2.00936e-08
2.00942e-08
2.00942e-08
2.00942e-08
2.00942e-08
2.00942e-08
2.00942e-08
2.00942e-08
2.00942e-08
2.00942e-08
2.00942e-08
2.00942e-08
2.00942e-08
2.00942e-08
2.00942e-08
2.00942e-08
2.00942e-08
2.00942e-08
2.00942e-08
2.00942e-08
2.00942e-08
2.00942e-08
2.00942e-08
2.00942e-08
2.00942e-08
2.00942e-08
2.00942e-08
2.00942e-08
2.00942e-08
2.00942e-08
2.00942e-08
2.00942e-08
2.00942e-08
2.00942e-08
2.00942e-08
2.00942e-08
2.00942e-08
2.00942e-08
2.00942e-08
2.00942e-08
2.00942e-08
2.00942e-08
2.00942e-08
2.00942e-08
2.00942e-08
2.00942e-08
2.00942e-08
2.00942e-08
2.00942e-08
2.00942e-08
2.00942e-08
2.00942e-08
2.00942e-08
2.00942e-08
2.00942e-08
2.00942e-08
2.00942e-08
2.00942e-08
2.00942e-08
2.00942e-08
2.00942e-08
2.00942e-08
2.00942e-08
2.00942e-08
2.00942e-08
2.00942e-08
2.00942e-08
2.00942e-08
2.00942e-08
2.00942e-08
2.00942e-08
2.00942e-08
2.00942e-08
2.00942e-08
2.00942e-08
2.00942e-08
2.00942e-08
2.00942e-08
2.00942e-08
2.00942e-08
2.00942e-08
2.00942e-08
2.00942e-08
2.00942e-08
2.00942e-08
2.00942e-08
2.00942e-08
2.00942e-08
2.00942e-08
)
;

boundaryField
{
    inlet
    {
        type            calculated;
        value           uniform -6.09112e-09;
    }
    outlet
    {
        type            calculated;
        value           uniform 2.00942e-08;
    }
    emptyWalls
    {
        type            empty;
        value           nonuniform List<scalar> 0();
    }
}


// ************************************************************************* //
