/*--------------------------------*- C++ -*----------------------------------*\
  =========                 |
  \\      /  F ield         | OpenFOAM: The Open Source CFD Toolbox
   \\    /   O peration     | Website:  https://openfoam.org
    \\  /    A nd           | Version:  9
     \\/     M anipulation  |
\*---------------------------------------------------------------------------*/
FoamFile
{
    format      ascii;
    class       surfaceScalarField;
    location    "200";
    object      phic;
}
// * * * * * * * * * * * * * * * * * * * * * * * * * * * * * * * * * * * * * //

dimensions      [0 2 0 0 0 0 0];

internalField   nonuniform List<scalar> 
99
(
2.65576e-10
5.97912e-10
1.03968e-09
1.61342e-09
2.43837e-09
3.80705e-09
6.46774e-09
7.73589e-09
1.16474e-09
2.36031e-10
2.10153e-10
2.09506e-10
2.0949e-10
2.0949e-10
2.0949e-10
2.0949e-10
2.0949e-10
2.0949e-10
2.0949e-10
2.0949e-10
2.0949e-10
2.0949e-10
2.0949e-10
2.0949e-10
2.0949e-10
2.0949e-10
2.0949e-10
2.0949e-10
2.0949e-10
2.0949e-10
2.0949e-10
2.0949e-10
2.0949e-10
2.0949e-10
2.0949e-10
2.0949e-10
2.0949e-10
2.0949e-10
2.0949e-10
2.0949e-10
2.0949e-10
2.0949e-10
2.0949e-10
2.0949e-10
2.0949e-10
2.0949e-10
2.0949e-10
2.0949e-10
2.0949e-10
2.0949e-10
2.0949e-10
2.0949e-10
2.0949e-10
2.0949e-10
2.0949e-10
2.0949e-10
2.0949e-10
2.0949e-10
2.0949e-10
2.0949e-10
2.0949e-10
2.0949e-10
2.0949e-10
2.0949e-10
2.0949e-10
2.0949e-10
2.0949e-10
2.0949e-10
2.0949e-10
2.0949e-10
2.0949e-10
2.0949e-10
2.0949e-10
2.0949e-10
2.0949e-10
2.0949e-10
2.0949e-10
2.0949e-10
2.0949e-10
2.0949e-10
2.0949e-10
2.0949e-10
2.0949e-10
2.0949e-10
2.0949e-10
2.0949e-10
2.0949e-10
2.0949e-10
2.0949e-10
2.0949e-10
2.0949e-10
2.0949e-10
2.0949e-10
2.0949e-10
2.0949e-10
2.0949e-10
2.0949e-10
2.0949e-10
2.0949e-10
)
;

boundaryField
{
    inlet
    {
        type            calculated;
        value           uniform 0;
    }
    outlet
    {
        type            calculated;
        value           uniform 2.0949e-10;
    }
    emptyWalls
    {
        type            empty;
        value           nonuniform List<scalar> 0();
    }
}


// ************************************************************************* //
