/*--------------------------------*- C++ -*----------------------------------*\
  =========                 |
  \\      /  F ield         | OpenFOAM: The Open Source CFD Toolbox
   \\    /   O peration     | Website:  https://openfoam.org
    \\  /    A nd           | Version:  9
     \\/     M anipulation  |
\*---------------------------------------------------------------------------*/
FoamFile
{
    format      ascii;
    class       volVectorField;
    location    "200";
    object      Ua;
}
// * * * * * * * * * * * * * * * * * * * * * * * * * * * * * * * * * * * * * //

dimensions      [0 0 0 0 0 0 0];

internalField   nonuniform List<vector> 
100
(
(0 0 8.29609e-06)
(0 0 1.09571e-05)
(0 0 1.06282e-05)
(0 0 1.01977e-05)
(0 0 9.59423e-06)
(0 0 8.6118e-06)
(0 0 6.57696e-06)
(0 0 2.87677e-06)
(0 0 2.9401e-07)
(0 0 5.73105e-11)
(0 0 6.81053e-20)
(0 0 5.05774e-38)
(0 0 2.45201e-38)
(0 0 2.45194e-38)
(0 0 2.38349e-38)
(0 0 2.52633e-38)
(0 0 2.49284e-38)
(0 0 2.35e-38)
(0 0 2.31701e-38)
(0 0 2.28254e-38)
(0 0 2.28254e-38)
(0 0 2.31701e-38)
(0 0 2.35e-38)
(0 0 2.24807e-38)
(0 0 2.24807e-38)
(0 0 2.35e-38)
(0 0 2.31701e-38)
(0 0 2.31701e-38)
(0 0 2.35e-38)
(0 0 2.49284e-38)
(0 0 2.49284e-38)
(0 0 2.35e-38)
(0 0 2.45194e-38)
(0 0 2.41747e-38)
(0 0 2.31553e-38)
(0 0 2.31553e-38)
(0 0 2.41747e-38)
(0 0 2.35e-38)
(0 0 2.24807e-38)
(0 0 2.31553e-38)
(0 0 2.41747e-38)
(0 0 2.45194e-38)
(0 0 2.45194e-38)
(0 0 2.45194e-38)
(0 0 2.45194e-38)
(0 0 2.35e-38)
(0 0 2.35e-38)
(0 0 2.45194e-38)
(0 0 2.35e-38)
(0 0 2.35e-38)
(0 0 2.41747e-38)
(0 0 2.31553e-38)
(0 0 2.24807e-38)
(0 0 2.35e-38)
(0 0 2.35e-38)
(0 0 2.31553e-38)
(0 0 2.31553e-38)
(0 0 2.24807e-38)
(0 0 2.31553e-38)
(0 0 2.41747e-38)
(0 0 2.41747e-38)
(0 0 2.41747e-38)
(0 0 2.41747e-38)
(0 0 2.31553e-38)
(0 0 2.24807e-38)
(0 0 2.45639e-38)
(0 0 2.55833e-38)
(0 0 2.52237e-38)
(0 0 2.42043e-38)
(0 0 2.24807e-38)
(0 0 2.35e-38)
(0 0 2.52237e-38)
(0 0 2.52237e-38)
(0 0 2.55833e-38)
(0 0 2.62876e-38)
(0 0 2.62876e-38)
(0 0 2.55833e-38)
(0 0 2.45194e-38)
(0 0 2.45194e-38)
(0 0 2.52237e-38)
(0 0 2.42043e-38)
(0 0 2.45639e-38)
(0 0 2.55833e-38)
(0 0 2.45194e-38)
(0 0 2.52237e-38)
(0 0 2.38744e-38)
(0 0 2.4234e-38)
(0 0 2.55833e-38)
(0 0 2.52237e-38)
(0 0 2.62876e-38)
(0 0 2.62876e-38)
(0 0 2.62876e-38)
(0 0 2.55833e-38)
(0 0 2.52237e-38)
(0 0 2.62876e-38)
(0 0 2.45639e-38)
(0 0 2.42043e-38)
(0 0 2.62876e-38)
(0 0 2.62876e-38)
(0 0 1.77469e-38)
)
;

boundaryField
{
    inlet
    {
        type            fixedValue;
        value           uniform (0 0 1.131e-05);
    }
    outlet
    {
        type            zeroGradient;
    }
    emptyWalls
    {
        type            empty;
    }
}


// ************************************************************************* //
