/*--------------------------------*- C++ -*----------------------------------*\
  =========                 |
  \\      /  F ield         | OpenFOAM: The Open Source CFD Toolbox
   \\    /   O peration     | Website:  https://openfoam.org
    \\  /    A nd           | Version:  9
     \\/     M anipulation  |
\*---------------------------------------------------------------------------*/
FoamFile
{
    format      ascii;
    class       volVectorField;
    location    "4150";
    object      Ua;
}
// * * * * * * * * * * * * * * * * * * * * * * * * * * * * * * * * * * * * * //

dimensions      [0 0 0 0 0 0 0];

internalField   nonuniform List<vector> 
1000
(
(2.7482e-06 0 0)
(2.74717e-06 0 0)
(2.74324e-06 0 0)
(2.73049e-06 0 0)
(2.68492e-06 0 0)
(2.44806e-06 0 0)
(2.19193e-06 0 0)
(2.1191e-06 0 0)
(2.09377e-06 0 0)
(2.07969e-06 0 0)
(2.07026e-06 0 0)
(2.06331e-06 0 0)
(2.05748e-06 0 0)
(2.0516e-06 0 0)
(2.04636e-06 0 0)
(2.0436e-06 0 0)
(2.04247e-06 0 0)
(2.04147e-06 0 0)
(2.04049e-06 0 0)
(2.03951e-06 0 0)
(2.03854e-06 0 0)
(2.03758e-06 0 0)
(2.03663e-06 0 0)
(2.03569e-06 0 0)
(2.03476e-06 0 0)
(2.03385e-06 0 0)
(2.03294e-06 0 0)
(2.03203e-06 0 0)
(2.03114e-06 0 0)
(2.03024e-06 0 0)
(2.02934e-06 0 0)
(2.02843e-06 0 0)
(2.0275e-06 0 0)
(2.02657e-06 0 0)
(2.02562e-06 0 0)
(2.02466e-06 0 0)
(2.02369e-06 0 0)
(2.0227e-06 0 0)
(2.02171e-06 0 0)
(2.02071e-06 0 0)
(2.01971e-06 0 0)
(2.01872e-06 0 0)
(2.01774e-06 0 0)
(2.01679e-06 0 0)
(2.01586e-06 0 0)
(2.01497e-06 0 0)
(2.01412e-06 0 0)
(2.01331e-06 0 0)
(2.01254e-06 0 0)
(2.01182e-06 0 0)
(2.01113e-06 0 0)
(2.01049e-06 0 0)
(2.00989e-06 0 0)
(2.00932e-06 0 0)
(2.00878e-06 0 0)
(2.00827e-06 0 0)
(2.00777e-06 0 0)
(2.00729e-06 0 0)
(2.00683e-06 0 0)
(2.00639e-06 0 0)
(2.00598e-06 0 0)
(2.00561e-06 0 0)
(2.00527e-06 0 0)
(2.00496e-06 0 0)
(2.00465e-06 0 0)
(2.00435e-06 0 0)
(2.00402e-06 0 0)
(2.00366e-06 0 0)
(2.00327e-06 0 0)
(2.00287e-06 0 0)
(2.00247e-06 0 0)
(2.00212e-06 0 0)
(2.00186e-06 0 0)
(2.00173e-06 0 0)
(2.0018e-06 0 0)
(2.00209e-06 0 0)
(2.00264e-06 0 0)
(2.00346e-06 0 0)
(2.00454e-06 0 0)
(2.00586e-06 0 0)
(2.0074e-06 0 0)
(2.0091e-06 0 0)
(2.01092e-06 0 0)
(2.01279e-06 0 0)
(2.01466e-06 0 0)
(2.01645e-06 0 0)
(2.01811e-06 0 0)
(2.01955e-06 0 0)
(2.02072e-06 0 0)
(2.02153e-06 0 0)
(2.02191e-06 0 0)
(2.0218e-06 0 0)
(2.02113e-06 0 0)
(2.01984e-06 0 0)
(2.0179e-06 0 0)
(2.01531e-06 0 0)
(2.01208e-06 0 0)
(2.00826e-06 0 0)
(2.00393e-06 0 0)
(1.99919e-06 0 0)
(1.99416e-06 0 0)
(1.98898e-06 0 0)
(1.98379e-06 0 0)
(1.97871e-06 0 0)
(1.97386e-06 0 0)
(1.96935e-06 0 0)
(1.96523e-06 0 0)
(1.96158e-06 0 0)
(1.9584e-06 0 0)
(1.95569e-06 0 0)
(1.95344e-06 0 0)
(1.95162e-06 0 0)
(1.95016e-06 0 0)
(1.94903e-06 0 0)
(1.94815e-06 0 0)
(1.94747e-06 0 0)
(1.94694e-06 0 0)
(1.94651e-06 0 0)
(1.94611e-06 0 0)
(1.94572e-06 0 0)
(1.94531e-06 0 0)
(1.94485e-06 0 0)
(1.94431e-06 0 0)
(1.9437e-06 0 0)
(1.943e-06 0 0)
(1.94221e-06 0 0)
(1.94133e-06 0 0)
(1.94036e-06 0 0)
(1.93932e-06 0 0)
(1.93821e-06 0 0)
(1.93704e-06 0 0)
(1.93582e-06 0 0)
(1.93455e-06 0 0)
(1.93325e-06 0 0)
(1.93191e-06 0 0)
(1.93055e-06 0 0)
(1.92917e-06 0 0)
(1.92777e-06 0 0)
(1.92636e-06 0 0)
(1.92494e-06 0 0)
(1.92351e-06 0 0)
(1.92208e-06 0 0)
(1.92064e-06 0 0)
(1.91919e-06 0 0)
(1.91775e-06 0 0)
(1.9163e-06 0 0)
(1.91485e-06 0 0)
(1.9134e-06 0 0)
(1.91196e-06 0 0)
(1.91052e-06 0 0)
(1.90909e-06 0 0)
(1.90768e-06 0 0)
(1.90628e-06 0 0)
(1.90491e-06 0 0)
(1.90356e-06 0 0)
(1.90226e-06 0 0)
(1.90098e-06 0 0)
(1.89973e-06 0 0)
(1.89848e-06 0 0)
(1.89716e-06 0 0)
(1.89566e-06 0 0)
(1.89378e-06 0 0)
(1.89119e-06 0 0)
(1.88748e-06 0 0)
(1.88223e-06 0 0)
(1.87541e-06 0 0)
(1.86774e-06 0 0)
(1.86066e-06 0 0)
(1.8554e-06 0 0)
(1.85217e-06 0 0)
(1.85042e-06 0 0)
(1.84949e-06 0 0)
(1.84895e-06 0 0)
(1.84859e-06 0 0)
(1.84832e-06 0 0)
(1.84809e-06 0 0)
(1.84788e-06 0 0)
(1.84768e-06 0 0)
(1.84749e-06 0 0)
(1.8473e-06 0 0)
(1.84712e-06 0 0)
(1.84695e-06 0 0)
(1.84677e-06 0 0)
(1.84661e-06 0 0)
(1.84644e-06 0 0)
(1.84629e-06 0 0)
(1.84614e-06 0 0)
(1.84599e-06 0 0)
(1.84586e-06 0 0)
(1.84573e-06 0 0)
(1.84561e-06 0 0)
(1.84551e-06 0 0)
(1.84541e-06 0 0)
(1.84532e-06 0 0)
(1.84524e-06 0 0)
(1.84517e-06 0 0)
(1.84512e-06 0 0)
(1.84507e-06 0 0)
(1.84504e-06 0 0)
(1.84502e-06 0 0)
(1.845e-06 0 0)
(1.845e-06 0 0)
(1.845e-06 0 0)
(1.84501e-06 0 0)
(1.84503e-06 0 0)
(1.84507e-06 0 0)
(1.84511e-06 0 0)
(1.84517e-06 0 0)
(1.84522e-06 0 0)
(1.84529e-06 0 0)
(1.84536e-06 0 0)
(1.84544e-06 0 0)
(1.84552e-06 0 0)
(1.84561e-06 0 0)
(1.8457e-06 0 0)
(1.84579e-06 0 0)
(1.84589e-06 0 0)
(1.84598e-06 0 0)
(1.84608e-06 0 0)
(1.84617e-06 0 0)
(1.84627e-06 0 0)
(1.84636e-06 0 0)
(1.84644e-06 0 0)
(1.84652e-06 0 0)
(1.8466e-06 0 0)
(1.84667e-06 0 0)
(1.84674e-06 0 0)
(1.8468e-06 0 0)
(1.84685e-06 0 0)
(1.8469e-06 0 0)
(1.84695e-06 0 0)
(1.84699e-06 0 0)
(1.84704e-06 0 0)
(1.84708e-06 0 0)
(1.84713e-06 0 0)
(1.84717e-06 0 0)
(1.84723e-06 0 0)
(1.84729e-06 0 0)
(1.84737e-06 0 0)
(1.84746e-06 0 0)
(1.84757e-06 0 0)
(1.84769e-06 0 0)
(1.84783e-06 0 0)
(1.848e-06 0 0)
(1.84819e-06 0 0)
(1.84841e-06 0 0)
(1.84865e-06 0 0)
(1.84891e-06 0 0)
(1.84921e-06 0 0)
(1.84952e-06 0 0)
(1.84987e-06 0 0)
(1.85024e-06 0 0)
(1.85063e-06 0 0)
(1.85104e-06 0 0)
(1.85148e-06 0 0)
(1.85194e-06 0 0)
(1.85242e-06 0 0)
(1.85293e-06 0 0)
(1.85345e-06 0 0)
(1.85401e-06 0 0)
(1.85459e-06 0 0)
(1.8552e-06 0 0)
(1.85585e-06 0 0)
(1.85654e-06 0 0)
(1.85727e-06 0 0)
(1.85806e-06 0 0)
(1.85889e-06 0 0)
(1.85978e-06 0 0)
(1.86074e-06 0 0)
(1.86176e-06 0 0)
(1.86286e-06 0 0)
(1.86402e-06 0 0)
(1.86526e-06 0 0)
(1.86656e-06 0 0)
(1.86794e-06 0 0)
(1.86938e-06 0 0)
(1.87088e-06 0 0)
(1.87244e-06 0 0)
(1.87403e-06 0 0)
(1.87566e-06 0 0)
(1.87731e-06 0 0)
(1.87895e-06 0 0)
(1.88059e-06 0 0)
(1.88219e-06 0 0)
(1.88374e-06 0 0)
(1.88521e-06 0 0)
(1.88658e-06 0 0)
(1.88783e-06 0 0)
(1.88894e-06 0 0)
(1.88987e-06 0 0)
(1.89061e-06 0 0)
(1.89112e-06 0 0)
(1.89142e-06 0 0)
(1.89153e-06 0 0)
(1.89155e-06 0 0)
(1.89147e-06 0 0)
(1.89102e-06 0 0)
(1.89009e-06 0 0)
(1.88887e-06 0 0)
(1.8874e-06 0 0)
(1.88569e-06 0 0)
(1.88378e-06 0 0)
(1.8817e-06 0 0)
(1.87947e-06 0 0)
(1.87714e-06 0 0)
(1.87475e-06 0 0)
(1.87234e-06 0 0)
(1.86994e-06 0 0)
(1.86759e-06 0 0)
(1.86533e-06 0 0)
(1.86319e-06 0 0)
(1.86119e-06 0 0)
(1.85936e-06 0 0)
(1.8577e-06 0 0)
(1.85624e-06 0 0)
(1.85496e-06 0 0)
(1.85388e-06 0 0)
(1.85299e-06 0 0)
(1.85228e-06 0 0)
(1.85173e-06 0 0)
(1.85134e-06 0 0)
(1.8511e-06 0 0)
(1.85097e-06 0 0)
(1.85093e-06 0 0)
(1.85093e-06 0 0)
(1.85098e-06 0 0)
(1.85116e-06 0 0)
(1.85146e-06 0 0)
(1.85178e-06 0 0)
(1.85211e-06 0 0)
(1.85245e-06 0 0)
(1.85278e-06 0 0)
(1.85309e-06 0 0)
(1.85339e-06 0 0)
(1.85366e-06 0 0)
(1.8539e-06 0 0)
(1.85411e-06 0 0)
(1.85429e-06 0 0)
(1.85444e-06 0 0)
(1.85455e-06 0 0)
(1.85463e-06 0 0)
(1.85468e-06 0 0)
(1.85471e-06 0 0)
(1.85472e-06 0 0)
(1.85472e-06 0 0)
(1.8547e-06 0 0)
(1.85465e-06 0 0)
(1.85457e-06 0 0)
(1.85448e-06 0 0)
(1.85438e-06 0 0)
(1.85427e-06 0 0)
(1.85416e-06 0 0)
(1.85404e-06 0 0)
(1.85393e-06 0 0)
(1.85381e-06 0 0)
(1.8537e-06 0 0)
(1.85358e-06 0 0)
(1.85347e-06 0 0)
(1.85337e-06 0 0)
(1.85327e-06 0 0)
(1.85317e-06 0 0)
(1.85308e-06 0 0)
(1.85299e-06 0 0)
(1.85291e-06 0 0)
(1.85283e-06 0 0)
(1.85276e-06 0 0)
(1.8527e-06 0 0)
(1.85263e-06 0 0)
(1.85258e-06 0 0)
(1.85253e-06 0 0)
(1.85248e-06 0 0)
(1.85243e-06 0 0)
(1.85239e-06 0 0)
(1.85235e-06 0 0)
(1.85231e-06 0 0)
(1.85228e-06 0 0)
(1.85224e-06 0 0)
(1.85221e-06 0 0)
(1.85217e-06 0 0)
(1.85213e-06 0 0)
(1.8521e-06 0 0)
(1.85206e-06 0 0)
(1.85202e-06 0 0)
(1.85197e-06 0 0)
(1.85192e-06 0 0)
(1.85187e-06 0 0)
(1.85181e-06 0 0)
(1.85175e-06 0 0)
(1.85168e-06 0 0)
(1.8516e-06 0 0)
(1.85152e-06 0 0)
(1.85143e-06 0 0)
(1.85133e-06 0 0)
(1.85123e-06 0 0)
(1.85112e-06 0 0)
(1.851e-06 0 0)
(1.85087e-06 0 0)
(1.85073e-06 0 0)
(1.85059e-06 0 0)
(1.85044e-06 0 0)
(1.85029e-06 0 0)
(1.85013e-06 0 0)
(1.84996e-06 0 0)
(1.84979e-06 0 0)
(1.84961e-06 0 0)
(1.84943e-06 0 0)
(1.84924e-06 0 0)
(1.84906e-06 0 0)
(1.84887e-06 0 0)
(1.84868e-06 0 0)
(1.84849e-06 0 0)
(1.8483e-06 0 0)
(1.84812e-06 0 0)
(1.84793e-06 0 0)
(1.84776e-06 0 0)
(1.84758e-06 0 0)
(1.84742e-06 0 0)
(1.84726e-06 0 0)
(1.84711e-06 0 0)
(1.84696e-06 0 0)
(1.84683e-06 0 0)
(1.84671e-06 0 0)
(1.8466e-06 0 0)
(1.84651e-06 0 0)
(1.84642e-06 0 0)
(1.84635e-06 0 0)
(1.8463e-06 0 0)
(1.84626e-06 0 0)
(1.84623e-06 0 0)
(1.84622e-06 0 0)
(1.84622e-06 0 0)
(1.84622e-06 0 0)
(1.84623e-06 0 0)
(1.84628e-06 0 0)
(1.84634e-06 0 0)
(1.84642e-06 0 0)
(1.84651e-06 0 0)
(1.84662e-06 0 0)
(1.84673e-06 0 0)
(1.84686e-06 0 0)
(1.847e-06 0 0)
(1.84715e-06 0 0)
(1.84731e-06 0 0)
(1.84747e-06 0 0)
(1.84765e-06 0 0)
(1.84782e-06 0 0)
(1.84801e-06 0 0)
(1.8482e-06 0 0)
(1.84839e-06 0 0)
(1.84858e-06 0 0)
(1.84878e-06 0 0)
(1.84898e-06 0 0)
(1.84918e-06 0 0)
(1.84937e-06 0 0)
(1.84957e-06 0 0)
(1.84977e-06 0 0)
(1.84996e-06 0 0)
(1.85016e-06 0 0)
(1.85035e-06 0 0)
(1.85054e-06 0 0)
(1.85074e-06 0 0)
(1.85093e-06 0 0)
(1.85113e-06 0 0)
(1.85133e-06 0 0)
(1.85153e-06 0 0)
(1.85175e-06 0 0)
(1.85197e-06 0 0)
(1.85221e-06 0 0)
(1.85246e-06 0 0)
(1.85273e-06 0 0)
(1.85302e-06 0 0)
(1.85335e-06 0 0)
(1.8537e-06 0 0)
(1.85409e-06 0 0)
(1.85452e-06 0 0)
(1.85499e-06 0 0)
(1.85552e-06 0 0)
(1.8561e-06 0 0)
(1.85673e-06 0 0)
(1.85743e-06 0 0)
(1.85819e-06 0 0)
(1.85902e-06 0 0)
(1.85991e-06 0 0)
(1.86088e-06 0 0)
(1.86192e-06 0 0)
(1.86302e-06 0 0)
(1.8642e-06 0 0)
(1.86544e-06 0 0)
(1.86674e-06 0 0)
(1.8681e-06 0 0)
(1.86951e-06 0 0)
(1.87096e-06 0 0)
(1.87245e-06 0 0)
(1.87397e-06 0 0)
(1.8755e-06 0 0)
(1.87704e-06 0 0)
(1.87856e-06 0 0)
(1.88007e-06 0 0)
(1.88153e-06 0 0)
(1.88295e-06 0 0)
(1.88429e-06 0 0)
(1.88555e-06 0 0)
(1.8867e-06 0 0)
(1.88774e-06 0 0)
(1.88864e-06 0 0)
(1.88938e-06 0 0)
(1.88994e-06 0 0)
(1.89032e-06 0 0)
(1.89051e-06 0 0)
(1.89057e-06 0 0)
(1.89056e-06 0 0)
(1.89046e-06 0 0)
(1.88998e-06 0 0)
(1.88912e-06 0 0)
(1.88804e-06 0 0)
(1.88675e-06 0 0)
(1.88528e-06 0 0)
(1.88363e-06 0 0)
(1.88183e-06 0 0)
(1.87991e-06 0 0)
(1.87789e-06 0 0)
(1.87579e-06 0 0)
(1.87366e-06 0 0)
(1.87152e-06 0 0)
(1.8694e-06 0 0)
(1.86732e-06 0 0)
(1.86531e-06 0 0)
(1.86339e-06 0 0)
(1.86158e-06 0 0)
(1.85989e-06 0 0)
(1.85834e-06 0 0)
(1.85693e-06 0 0)
(1.85567e-06 0 0)
(1.85456e-06 0 0)
(1.85359e-06 0 0)
(1.85277e-06 0 0)
(1.85208e-06 0 0)
(1.85152e-06 0 0)
(1.85108e-06 0 0)
(1.85075e-06 0 0)
(1.85052e-06 0 0)
(1.85038e-06 0 0)
(1.85031e-06 0 0)
(1.85029e-06 0 0)
(1.85029e-06 0 0)
(1.85033e-06 0 0)
(1.85046e-06 0 0)
(1.85065e-06 0 0)
(1.85085e-06 0 0)
(1.85106e-06 0 0)
(1.85128e-06 0 0)
(1.85148e-06 0 0)
(1.85169e-06 0 0)
(1.85188e-06 0 0)
(1.85205e-06 0 0)
(1.8522e-06 0 0)
(1.85234e-06 0 0)
(1.85246e-06 0 0)
(1.85255e-06 0 0)
(1.85262e-06 0 0)
(1.85266e-06 0 0)
(1.85269e-06 0 0)
(1.8527e-06 0 0)
(1.8527e-06 0 0)
(1.85269e-06 0 0)
(1.85265e-06 0 0)
(1.85258e-06 0 0)
(1.85248e-06 0 0)
(1.85238e-06 0 0)
(1.85226e-06 0 0)
(1.85213e-06 0 0)
(1.85199e-06 0 0)
(1.85184e-06 0 0)
(1.85168e-06 0 0)
(1.85151e-06 0 0)
(1.85134e-06 0 0)
(1.85116e-06 0 0)
(1.85099e-06 0 0)
(1.8508e-06 0 0)
(1.85062e-06 0 0)
(1.85044e-06 0 0)
(1.85025e-06 0 0)
(1.85007e-06 0 0)
(1.84988e-06 0 0)
(1.8497e-06 0 0)
(1.84953e-06 0 0)
(1.84935e-06 0 0)
(1.84918e-06 0 0)
(1.84901e-06 0 0)
(1.84885e-06 0 0)
(1.84869e-06 0 0)
(1.84854e-06 0 0)
(1.8484e-06 0 0)
(1.84826e-06 0 0)
(1.84813e-06 0 0)
(1.848e-06 0 0)
(1.84789e-06 0 0)
(1.84778e-06 0 0)
(1.84768e-06 0 0)
(1.8476e-06 0 0)
(1.84752e-06 0 0)
(1.84745e-06 0 0)
(1.84739e-06 0 0)
(1.84734e-06 0 0)
(1.8473e-06 0 0)
(1.84727e-06 0 0)
(1.84726e-06 0 0)
(1.84725e-06 0 0)
(1.84725e-06 0 0)
(1.84725e-06 0 0)
(1.84727e-06 0 0)
(1.84731e-06 0 0)
(1.84735e-06 0 0)
(1.84741e-06 0 0)
(1.84748e-06 0 0)
(1.84756e-06 0 0)
(1.84764e-06 0 0)
(1.84773e-06 0 0)
(1.84783e-06 0 0)
(1.84794e-06 0 0)
(1.84805e-06 0 0)
(1.84816e-06 0 0)
(1.84828e-06 0 0)
(1.8484e-06 0 0)
(1.84852e-06 0 0)
(1.84863e-06 0 0)
(1.84875e-06 0 0)
(1.84887e-06 0 0)
(1.84898e-06 0 0)
(1.84909e-06 0 0)
(1.84919e-06 0 0)
(1.84928e-06 0 0)
(1.84937e-06 0 0)
(1.84945e-06 0 0)
(1.84953e-06 0 0)
(1.84959e-06 0 0)
(1.84965e-06 0 0)
(1.84969e-06 0 0)
(1.84972e-06 0 0)
(1.84975e-06 0 0)
(1.84976e-06 0 0)
(1.84976e-06 0 0)
(1.84977e-06 0 0)
(1.84976e-06 0 0)
(1.84975e-06 0 0)
(1.84971e-06 0 0)
(1.84967e-06 0 0)
(1.84961e-06 0 0)
(1.84956e-06 0 0)
(1.84949e-06 0 0)
(1.84942e-06 0 0)
(1.84935e-06 0 0)
(1.84927e-06 0 0)
(1.8492e-06 0 0)
(1.84912e-06 0 0)
(1.84905e-06 0 0)
(1.84898e-06 0 0)
(1.84891e-06 0 0)
(1.84885e-06 0 0)
(1.84879e-06 0 0)
(1.84875e-06 0 0)
(1.84871e-06 0 0)
(1.84869e-06 0 0)
(1.84868e-06 0 0)
(1.84868e-06 0 0)
(1.84868e-06 0 0)
(1.84869e-06 0 0)
(1.84871e-06 0 0)
(1.84877e-06 0 0)
(1.84884e-06 0 0)
(1.84891e-06 0 0)
(1.84902e-06 0 0)
(1.84918e-06 0 0)
(1.84931e-06 0 0)
(1.8495e-06 0 0)
(1.84976e-06 0 0)
(1.84998e-06 0 0)
(1.85024e-06 0 0)
(1.85062e-06 0 0)
(1.85094e-06 0 0)
(1.85079e-06 0 0)
(1.84936e-06 0 0)
(1.8285e-06 0 0)
(1.74327e-06 0 0)
(1.0768e-06 0 0)
(2.42458e-07 0 0)
(4.51178e-09 0 0)
(2.72204e-13 0 0)
(1.24947e-22 0 0)
(1.09646e-42 0 0)
(2.00072e-85 0 0)
(1.3278e-176 0 0)
(0 0 0)
(0 0 0)
(0 0 0)
(0 0 0)
(0 0 0)
(0 0 0)
(0 0 0)
(0 0 0)
(0 0 0)
(0 0 0)
(0 0 0)
(0 0 0)
(0 0 0)
(0 0 0)
(0 0 0)
(0 0 0)
(0 0 0)
(0 0 0)
(0 0 0)
(0 0 0)
(0 0 0)
(0 0 0)
(0 0 0)
(0 0 0)
(0 0 0)
(0 0 0)
(0 0 0)
(0 0 0)
(0 0 0)
(0 0 0)
(0 0 0)
(0 0 0)
(0 0 0)
(0 0 0)
(0 0 0)
(0 0 0)
(0 0 0)
(0 0 0)
(0 0 0)
(0 0 0)
(0 0 0)
(0 0 0)
(0 0 0)
(0 0 0)
(0 0 0)
(0 0 0)
(0 0 0)
(0 0 0)
(0 0 0)
(0 0 0)
(0 0 0)
(0 0 0)
(0 0 0)
(0 0 0)
(0 0 0)
(0 0 0)
(0 0 0)
(0 0 0)
(0 0 0)
(0 0 0)
(0 0 0)
(0 0 0)
(0 0 0)
(0 0 0)
(0 0 0)
(0 0 0)
(0 0 0)
(0 0 0)
(0 0 0)
(0 0 0)
(0 0 0)
(0 0 0)
(0 0 0)
(0 0 0)
(0 0 0)
(0 0 0)
(0 0 0)
(0 0 0)
(0 0 0)
(0 0 0)
(0 0 0)
(0 0 0)
(0 0 0)
(0 0 0)
(0 0 0)
(0 0 0)
(0 0 0)
(0 0 0)
(0 0 0)
(0 0 0)
(0 0 0)
(0 0 0)
(0 0 0)
(0 0 0)
(0 0 0)
(0 0 0)
(0 0 0)
(0 0 0)
(0 0 0)
(0 0 0)
(0 0 0)
(0 0 0)
(0 0 0)
(0 0 0)
(0 0 0)
(0 0 0)
(0 0 0)
(0 0 0)
(0 0 0)
(0 0 0)
(0 0 0)
(0 0 0)
(0 0 0)
(0 0 0)
(0 0 0)
(0 0 0)
(0 0 0)
(0 0 0)
(0 0 0)
(0 0 0)
(0 0 0)
(0 0 0)
(0 0 0)
(0 0 0)
(0 0 0)
(0 0 0)
(0 0 0)
(0 0 0)
(0 0 0)
(0 0 0)
(0 0 0)
(0 0 0)
(0 0 0)
(0 0 0)
(0 0 0)
(0 0 0)
(0 0 0)
(0 0 0)
(0 0 0)
(0 0 0)
(0 0 0)
(0 0 0)
(0 0 0)
(0 0 0)
(0 0 0)
(0 0 0)
(0 0 0)
(0 0 0)
(0 0 0)
(0 0 0)
(0 0 0)
(0 0 0)
(0 0 0)
(0 0 0)
(0 0 0)
(0 0 0)
(0 0 0)
(0 0 0)
(0 0 0)
(0 0 0)
(0 0 0)
(0 0 0)
(0 0 0)
(0 0 0)
(0 0 0)
(0 0 0)
(0 0 0)
(0 0 0)
(0 0 0)
(0 0 0)
(0 0 0)
(0 0 0)
(0 0 0)
(0 0 0)
(0 0 0)
(0 0 0)
(0 0 0)
(0 0 0)
(0 0 0)
(0 0 0)
(0 0 0)
(0 0 0)
(0 0 0)
(0 0 0)
(0 0 0)
(0 0 0)
(0 0 0)
(0 0 0)
(0 0 0)
(0 0 0)
(0 0 0)
(0 0 0)
(0 0 0)
(0 0 0)
(0 0 0)
(0 0 0)
(0 0 0)
(0 0 0)
(0 0 0)
(0 0 0)
(0 0 0)
(0 0 0)
(0 0 0)
(0 0 0)
(0 0 0)
(0 0 0)
(0 0 0)
(0 0 0)
(0 0 0)
(0 0 0)
(0 0 0)
(0 0 0)
(0 0 0)
(0 0 0)
(0 0 0)
(0 0 0)
(0 0 0)
(0 0 0)
(0 0 0)
(0 0 0)
(0 0 0)
(0 0 0)
(0 0 0)
(0 0 0)
(0 0 0)
(0 0 0)
(0 0 0)
(0 0 0)
(0 0 0)
(0 0 0)
(0 0 0)
(0 0 0)
(0 0 0)
(0 0 0)
(0 0 0)
(0 0 0)
(0 0 0)
(0 0 0)
(0 0 0)
(0 0 0)
(0 0 0)
(0 0 0)
(0 0 0)
(0 0 0)
(0 0 0)
(0 0 0)
(0 0 0)
(0 0 0)
(0 0 0)
(0 0 0)
(0 0 0)
(0 0 0)
(0 0 0)
(0 0 0)
(0 0 0)
(0 0 0)
(0 0 0)
(0 0 0)
(0 0 0)
(0 0 0)
(0 0 0)
(0 0 0)
(0 0 0)
(0 0 0)
(0 0 0)
(0 0 0)
(0 0 0)
(0 0 0)
(0 0 0)
(0 0 0)
(0 0 0)
(0 0 0)
(0 0 0)
(0 0 0)
(0 0 0)
(0 0 0)
(0 0 0)
(0 0 0)
(0 0 0)
(0 0 0)
(0 0 0)
(0 0 0)
(0 0 0)
(0 0 0)
(0 0 0)
(0 0 0)
(0 0 0)
(0 0 0)
(0 0 0)
(0 0 0)
(0 0 0)
(0 0 0)
(0 0 0)
(0 0 0)
(0 0 0)
(0 0 0)
(0 0 0)
(0 0 0)
(0 0 0)
(0 0 0)
(0 0 0)
(0 0 0)
(0 0 0)
(0 0 0)
(0 0 0)
(0 0 0)
(0 0 0)
(0 0 0)
)
;

boundaryField
{
    inlet
    {
        type            fixedValue;
        value           uniform (2.74882e-06 0 0);
    }
    outlet
    {
        type            zeroGradient;
    }
    emptyWalls
    {
        type            empty;
    }
}


// ************************************************************************* //
