/*--------------------------------*- C++ -*----------------------------------*\
  =========                 |
  \\      /  F ield         | OpenFOAM: The Open Source CFD Toolbox
   \\    /   O peration     | Website:  https://openfoam.org
    \\  /    A nd           | Version:  9
     \\/     M anipulation  |
\*---------------------------------------------------------------------------*/
FoamFile
{
    format      ascii;
    class       volScalarField;
    location    "5000";
    object      kra;
}
// * * * * * * * * * * * * * * * * * * * * * * * * * * * * * * * * * * * * * //

dimensions      [0 0 0 0 0 0 0];

internalField   nonuniform List<scalar> 
100
(
4.08516e-05
3.04457e-05
3.29278e-05
3.15953e-05
3.15706e-05
3.12454e-05
3.10761e-05
3.08584e-05
3.0666e-05
3.04899e-05
3.03226e-05
3.01676e-05
3.00182e-05
2.98803e-05
2.97451e-05
2.96206e-05
2.94986e-05
2.93852e-05
2.92731e-05
2.91692e-05
2.90654e-05
2.8969e-05
2.88727e-05
2.87825e-05
2.86927e-05
2.86062e-05
2.85235e-05
2.84396e-05
2.83625e-05
2.82831e-05
2.82089e-05
2.81333e-05
2.80628e-05
2.79895e-05
2.79194e-05
2.78412e-05
2.77555e-05
2.76417e-05
2.75078e-05
2.73222e-05
2.73732e-05
2.73931e-05
2.74241e-05
2.74501e-05
2.74752e-05
2.75002e-05
2.75231e-05
2.75464e-05
2.75684e-05
2.75902e-05
2.76106e-05
2.76307e-05
2.765e-05
2.76694e-05
2.76884e-05
2.77063e-05
2.77237e-05
2.77405e-05
2.77567e-05
2.77741e-05
2.77891e-05
2.78055e-05
2.78191e-05
2.78338e-05
2.78495e-05
2.78581e-05
2.78837e-05
2.78816e-05
2.79154e-05
2.79044e-05
2.79381e-05
2.79269e-05
2.79606e-05
2.79486e-05
2.79818e-05
2.79696e-05
2.80016e-05
2.7989e-05
2.80201e-05
2.80069e-05
2.80367e-05
2.80235e-05
2.80528e-05
2.80389e-05
2.8067e-05
2.80528e-05
2.80798e-05
2.8065e-05
2.80912e-05
2.80761e-05
2.81015e-05
2.80862e-05
2.81108e-05
2.80952e-05
2.8119e-05
2.81032e-05
2.81264e-05
2.81104e-05
2.8135e-05
7.11394e-05
)
;

boundaryField
{
    inlet
    {
        type            calculated;
        value           uniform 1.23236e-05;
    }
    outlet
    {
        type            calculated;
        value           uniform 8.8422e-06;
    }
    emptyWalls
    {
        type            empty;
    }
}


// ************************************************************************* //
