/*--------------------------------*- C++ -*----------------------------------*\
  =========                 |
  \\      /  F ield         | OpenFOAM: The Open Source CFD Toolbox
   \\    /   O peration     | Website:  https://openfoam.org
    \\  /    A nd           | Version:  9
     \\/     M anipulation  |
\*---------------------------------------------------------------------------*/
FoamFile
{
    format      ascii;
    class       volScalarField;
    location    "5000";
    object      p;
}
// * * * * * * * * * * * * * * * * * * * * * * * * * * * * * * * * * * * * * //

dimensions      [0 0 0 0 0 0 0];

internalField   nonuniform List<scalar> 
100
(
6.10526e+06
6.09731e+06
6.08664e+06
6.07677e+06
6.0665e+06
6.05621e+06
6.04581e+06
6.03534e+06
6.0248e+06
6.01421e+06
6.00356e+06
5.99286e+06
5.98211e+06
5.97132e+06
5.96048e+06
5.9496e+06
5.93868e+06
5.92772e+06
5.91673e+06
5.9057e+06
5.89464e+06
5.88355e+06
5.87242e+06
5.86127e+06
5.85009e+06
5.83888e+06
5.82764e+06
5.81638e+06
5.80509e+06
5.79378e+06
5.78244e+06
5.77108e+06
5.7597e+06
5.74829e+06
5.73687e+06
5.72542e+06
5.71394e+06
5.70243e+06
5.69089e+06
5.6793e+06
5.66768e+06
5.65611e+06
5.64455e+06
5.63303e+06
5.62152e+06
5.61004e+06
5.59858e+06
5.58713e+06
5.57571e+06
5.56431e+06
5.55293e+06
5.54157e+06
5.53022e+06
5.5189e+06
5.50759e+06
5.49631e+06
5.48504e+06
5.47379e+06
5.46256e+06
5.45134e+06
5.44015e+06
5.42897e+06
5.41781e+06
5.40667e+06
5.39555e+06
5.38444e+06
5.37335e+06
5.36228e+06
5.35123e+06
5.34019e+06
5.32917e+06
5.31817e+06
5.30718e+06
5.29622e+06
5.28526e+06
5.27433e+06
5.26341e+06
5.25251e+06
5.24162e+06
5.23075e+06
5.2199e+06
5.20906e+06
5.19824e+06
5.18744e+06
5.17665e+06
5.16588e+06
5.15512e+06
5.14439e+06
5.13366e+06
5.12296e+06
5.11226e+06
5.10159e+06
5.09093e+06
5.08029e+06
5.06966e+06
5.05905e+06
5.04845e+06
5.03787e+06
5.0273e+06
5.01676e+06
)
;

boundaryField
{
    inlet
    {
        type            darcyGradPressure;
        gradient        uniform 3.88972e+06;
        Mf              Mf;
        phi             phi;
        value           uniform 6.11304e+06;
    }
    outlet
    {
        type            fixedValue;
        value           uniform 5e+06;
    }
    emptyWalls
    {
        type            empty;
    }
}


// ************************************************************************* //
