/*--------------------------------*- C++ -*----------------------------------*\
  =========                 |
  \\      /  F ield         | OpenFOAM: The Open Source CFD Toolbox
   \\    /   O peration     | Website:  https://openfoam.org
    \\  /    A nd           | Version:  9
     \\/     M anipulation  |
\*---------------------------------------------------------------------------*/
FoamFile
{
    format      ascii;
    class       surfaceScalarField;
    location    "5000";
    object      phia;
}
// * * * * * * * * * * * * * * * * * * * * * * * * * * * * * * * * * * * * * //

dimensions      [0 2 0 0 0 0 0];

internalField   nonuniform List<scalar> 
99
(
1.42081e-08
1.42034e-08
1.41982e-08
1.41911e-08
1.41823e-08
1.41779e-08
1.41729e-08
1.4167e-08
1.41604e-08
1.41543e-08
1.41476e-08
1.41404e-08
1.41334e-08
1.41258e-08
1.41181e-08
1.41108e-08
1.41033e-08
1.40955e-08
1.40879e-08
1.408e-08
1.40719e-08
1.40641e-08
1.4056e-08
1.40484e-08
1.40395e-08
1.40322e-08
1.40234e-08
1.40155e-08
1.40077e-08
1.39993e-08
1.3991e-08
1.39827e-08
1.39741e-08
1.39654e-08
1.39562e-08
1.39458e-08
1.39328e-08
1.39157e-08
1.38948e-08
1.38741e-08
1.38565e-08
1.38415e-08
1.38267e-08
1.38129e-08
1.37996e-08
1.37865e-08
1.37733e-08
1.37604e-08
1.37473e-08
1.37341e-08
1.37206e-08
1.3707e-08
1.36935e-08
1.36802e-08
1.36666e-08
1.36526e-08
1.36385e-08
1.36242e-08
1.36104e-08
1.35964e-08
1.35822e-08
1.35677e-08
1.35531e-08
1.35383e-08
1.3524e-08
1.35082e-08
1.34944e-08
1.34797e-08
1.34638e-08
1.34483e-08
1.34335e-08
1.34184e-08
1.34025e-08
1.33868e-08
1.33716e-08
1.33564e-08
1.33406e-08
1.33247e-08
1.33087e-08
1.32928e-08
1.32768e-08
1.32606e-08
1.32443e-08
1.3228e-08
1.32115e-08
1.31949e-08
1.3178e-08
1.31611e-08
1.31441e-08
1.31271e-08
1.311e-08
1.30929e-08
1.30756e-08
1.30583e-08
1.3041e-08
1.30237e-08
1.30063e-08
1.29888e-08
1.29713e-08
)
;

boundaryField
{
    inlet
    {
        type            calculated;
        value           uniform -1.42126e-08;
    }
    outlet
    {
        type            calculated;
        value           uniform 1.29603e-08;
    }
    emptyWalls
    {
        type            empty;
        value           nonuniform List<scalar> 0();
    }
}


// ************************************************************************* //
