/*--------------------------------*- C++ -*----------------------------------*\
  =========                 |
  \\      /  F ield         | OpenFOAM: The Open Source CFD Toolbox
   \\    /   O peration     | Website:  https://openfoam.org
    \\  /    A nd           | Version:  9
     \\/     M anipulation  |
\*---------------------------------------------------------------------------*/
FoamFile
{
    format      ascii;
    class       surfaceScalarField;
    location    "5000";
    object      phib;
}
// * * * * * * * * * * * * * * * * * * * * * * * * * * * * * * * * * * * * * //

dimensions      [0 2 0 0 0 0 0];

internalField   nonuniform List<scalar> 
99
(
6.09096e-09
6.09076e-09
6.09054e-09
6.09192e-09
6.09456e-09
6.09268e-09
6.09118e-09
6.0903e-09
6.08999e-09
6.08901e-09
6.0885e-09
6.08832e-09
6.08775e-09
6.0876e-09
6.08753e-09
6.08694e-09
6.08648e-09
6.08619e-09
6.08577e-09
6.08547e-09
6.08535e-09
6.08489e-09
6.08475e-09
6.084e-09
6.08444e-09
6.08334e-09
6.08357e-09
6.08291e-09
6.08217e-09
6.08196e-09
6.08156e-09
6.08114e-09
6.08101e-09
6.08077e-09
6.08036e-09
6.07984e-09
6.07919e-09
6.0785e-09
6.07755e-09
6.07667e-09
6.07781e-09
6.07833e-09
6.07957e-09
6.08025e-09
6.08068e-09
6.08108e-09
6.08153e-09
6.0817e-09
6.08196e-09
6.08233e-09
6.08295e-09
6.08356e-09
6.08402e-09
6.08418e-09
6.08456e-09
6.08519e-09
6.08587e-09
6.0867e-09
6.08696e-09
6.08728e-09
6.08773e-09
6.08846e-09
6.0891e-09
6.08975e-09
6.09043e-09
6.09114e-09
6.09166e-09
6.09225e-09
6.09293e-09
6.09365e-09
6.09443e-09
6.09519e-09
6.09586e-09
6.09644e-09
6.09686e-09
6.0973e-09
6.09785e-09
6.09846e-09
6.09913e-09
6.0998e-09
6.10044e-09
6.10107e-09
6.1017e-09
6.10237e-09
6.10315e-09
6.10398e-09
6.10491e-09
6.10585e-09
6.10677e-09
6.10769e-09
6.10859e-09
6.10949e-09
6.1104e-09
6.11129e-09
6.11215e-09
6.11297e-09
6.11373e-09
6.11448e-09
6.11522e-09
)
;

boundaryField
{
    inlet
    {
        type            calculated;
        value           uniform -6.09112e-09;
    }
    outlet
    {
        type            calculated;
        value           uniform 6.11491e-09;
    }
    emptyWalls
    {
        type            empty;
        value           nonuniform List<scalar> 0();
    }
}


// ************************************************************************* //
