/*--------------------------------*- C++ -*----------------------------------*\
  =========                 |
  \\      /  F ield         | OpenFOAM: The Open Source CFD Toolbox
   \\    /   O peration     | Website:  https://openfoam.org
    \\  /    A nd           | Version:  9
     \\/     M anipulation  |
\*---------------------------------------------------------------------------*/
FoamFile
{
    format      ascii;
    class       surfaceScalarField;
    location    "5000";
    object      phic;
}
// * * * * * * * * * * * * * * * * * * * * * * * * * * * * * * * * * * * * * //

dimensions      [0 2 0 0 0 0 0];

internalField   nonuniform List<scalar> 
99
(
4.68918e-12
9.57009e-12
1.49964e-11
2.07465e-11
2.68367e-11
3.31668e-11
3.97009e-11
4.64192e-11
5.33128e-11
6.03861e-11
6.76323e-11
7.50409e-11
8.25995e-11
9.02843e-11
9.80823e-11
1.0598e-10
1.13957e-10
1.21999e-10
1.30103e-10
1.3826e-10
1.46465e-10
1.5472e-10
1.63023e-10
1.71377e-10
1.7977e-10
1.88231e-10
1.96729e-10
2.05284e-10
2.13883e-10
2.22508e-10
2.31165e-10
2.3985e-10
2.48599e-10
2.57578e-10
2.67162e-10
2.78124e-10
2.91781e-10
3.09545e-10
3.31375e-10
3.52915e-10
3.69458e-10
3.83948e-10
3.97508e-10
4.10572e-10
4.23428e-10
4.36188e-10
4.48921e-10
4.6167e-10
4.74457e-10
4.87299e-10
5.00205e-10
5.13191e-10
5.26247e-10
5.39396e-10
5.52619e-10
5.65927e-10
5.79331e-10
5.92794e-10
6.06385e-10
6.20031e-10
6.33796e-10
6.47623e-10
6.615e-10
6.75683e-10
6.89302e-10
7.04437e-10
7.17623e-10
7.31747e-10
7.47047e-10
7.61778e-10
7.75791e-10
7.90196e-10
8.05395e-10
8.20514e-10
8.35248e-10
8.50034e-10
8.65247e-10
8.80583e-10
8.95882e-10
9.11131e-10
9.26503e-10
9.42022e-10
9.57723e-10
9.73402e-10
9.89077e-10
1.00484e-09
1.02079e-09
1.0368e-09
1.05284e-09
1.06891e-09
1.0851e-09
1.10136e-09
1.11773e-09
1.13412e-09
1.15059e-09
1.1671e-09
1.18374e-09
1.20042e-09
1.21719e-09
)
;

boundaryField
{
    inlet
    {
        type            calculated;
        value           uniform 0;
    }
    outlet
    {
        type            calculated;
        value           uniform 1.22848e-09;
    }
    emptyWalls
    {
        type            empty;
        value           nonuniform List<scalar> 0();
    }
}


// ************************************************************************* //
