/*--------------------------------*- C++ -*----------------------------------*\
  =========                 |
  \\      /  F ield         | OpenFOAM: The Open Source CFD Toolbox
   \\    /   O peration     | Website:  https://openfoam.org
    \\  /    A nd           | Version:  9
     \\/     M anipulation  |
\*---------------------------------------------------------------------------*/
FoamFile
{
    format      ascii;
    class       volVectorField;
    location    "5000";
    object      Ua;
}
// * * * * * * * * * * * * * * * * * * * * * * * * * * * * * * * * * * * * * //

dimensions      [0 0 0 0 0 0 0];

internalField   nonuniform List<vector> 
100
(
(0 0 8.98847e-06)
(0 0 1.13046e-05)
(0 0 1.13006e-05)
(0 0 1.12957e-05)
(0 0 1.12894e-05)
(0 0 1.12842e-05)
(0 0 1.12804e-05)
(0 0 1.12761e-05)
(0 0 1.12711e-05)
(0 0 1.12661e-05)
(0 0 1.1261e-05)
(0 0 1.12554e-05)
(0 0 1.12498e-05)
(0 0 1.1244e-05)
(0 0 1.12379e-05)
(0 0 1.12319e-05)
(0 0 1.1226e-05)
(0 0 1.122e-05)
(0 0 1.12138e-05)
(0 0 1.12076e-05)
(0 0 1.12013e-05)
(0 0 1.1195e-05)
(0 0 1.11886e-05)
(0 0 1.11824e-05)
(0 0 1.11758e-05)
(0 0 1.11694e-05)
(0 0 1.1163e-05)
(0 0 1.11564e-05)
(0 0 1.11501e-05)
(0 0 1.11436e-05)
(0 0 1.1137e-05)
(0 0 1.11304e-05)
(0 0 1.11237e-05)
(0 0 1.11168e-05)
(0 0 1.11097e-05)
(0 0 1.11018e-05)
(0 0 1.10925e-05)
(0 0 1.10805e-05)
(0 0 1.10654e-05)
(0 0 1.10489e-05)
(0 0 1.10337e-05)
(0 0 1.10207e-05)
(0 0 1.10088e-05)
(0 0 1.09974e-05)
(0 0 1.09867e-05)
(0 0 1.09762e-05)
(0 0 1.09657e-05)
(0 0 1.09553e-05)
(0 0 1.0945e-05)
(0 0 1.09345e-05)
(0 0 1.09239e-05)
(0 0 1.09131e-05)
(0 0 1.09023e-05)
(0 0 1.08916e-05)
(0 0 1.08809e-05)
(0 0 1.087e-05)
(0 0 1.08588e-05)
(0 0 1.08475e-05)
(0 0 1.08363e-05)
(0 0 1.08252e-05)
(0 0 1.0814e-05)
(0 0 1.08026e-05)
(0 0 1.0791e-05)
(0 0 1.07793e-05)
(0 0 1.07677e-05)
(0 0 1.07558e-05)
(0 0 1.0744e-05)
(0 0 1.07327e-05)
(0 0 1.07205e-05)
(0 0 1.0708e-05)
(0 0 1.06959e-05)
(0 0 1.0684e-05)
(0 0 1.06717e-05)
(0 0 1.06591e-05)
(0 0 1.06468e-05)
(0 0 1.06347e-05)
(0 0 1.06224e-05)
(0 0 1.06098e-05)
(0 0 1.05971e-05)
(0 0 1.05844e-05)
(0 0 1.05717e-05)
(0 0 1.05589e-05)
(0 0 1.0546e-05)
(0 0 1.0533e-05)
(0 0 1.05199e-05)
(0 0 1.05068e-05)
(0 0 1.04935e-05)
(0 0 1.048e-05)
(0 0 1.04665e-05)
(0 0 1.0453e-05)
(0 0 1.04394e-05)
(0 0 1.04258e-05)
(0 0 1.04121e-05)
(0 0 1.03984e-05)
(0 0 1.03846e-05)
(0 0 1.03708e-05)
(0 0 1.0357e-05)
(0 0 1.03431e-05)
(0 0 1.03292e-05)
(0 0 1.03179e-05)
)
;

boundaryField
{
    inlet
    {
        type            fixedValue;
        value           uniform (0 0 1.131e-05);
    }
    outlet
    {
        type            zeroGradient;
    }
    emptyWalls
    {
        type            empty;
    }
}


// ************************************************************************* //
