/*--------------------------------*- C++ -*----------------------------------*\
  =========                 |
  \\      /  F ield         | OpenFOAM: The Open Source CFD Toolbox
   \\    /   O peration     | Website:  https://openfoam.org
    \\  /    A nd           | Version:  9
     \\/     M anipulation  |
\*---------------------------------------------------------------------------*/
FoamFile
{
    format      ascii;
    class       volVectorField;
    location    "5000";
    object      Ub;
}
// * * * * * * * * * * * * * * * * * * * * * * * * * * * * * * * * * * * * * //

dimensions      [0 0 0 0 0 0 0];

internalField   nonuniform List<vector> 
100
(
(0 0 7.16321e-06)
(0 0 4.84695e-06)
(0 0 4.84679e-06)
(0 0 4.84725e-06)
(0 0 4.84885e-06)
(0 0 4.84915e-06)
(0 0 4.8478e-06)
(0 0 4.84686e-06)
(0 0 4.84638e-06)
(0 0 4.84587e-06)
(0 0 4.84528e-06)
(0 0 4.845e-06)
(0 0 4.8447e-06)
(0 0 4.84442e-06)
(0 0 4.84433e-06)
(0 0 4.84407e-06)
(0 0 4.84365e-06)
(0 0 4.84335e-06)
(0 0 4.84307e-06)
(0 0 4.84278e-06)
(0 0 4.84262e-06)
(0 0 4.84239e-06)
(0 0 4.84215e-06)
(0 0 4.84179e-06)
(0 0 4.84167e-06)
(0 0 4.84141e-06)
(0 0 4.84106e-06)
(0 0 4.84089e-06)
(0 0 4.84033e-06)
(0 0 4.83995e-06)
(0 0 4.83971e-06)
(0 0 4.83938e-06)
(0 0 4.83917e-06)
(0 0 4.83902e-06)
(0 0 4.83876e-06)
(0 0 4.83839e-06)
(0 0 4.83792e-06)
(0 0 4.83739e-06)
(0 0 4.83674e-06)
(0 0 4.83601e-06)
(0 0 4.83611e-06)
(0 0 4.83677e-06)
(0 0 4.83748e-06)
(0 0 4.83824e-06)
(0 0 4.83868e-06)
(0 0 4.83901e-06)
(0 0 4.83935e-06)
(0 0 4.8396e-06)
(0 0 4.83977e-06)
(0 0 4.84002e-06)
(0 0 4.84041e-06)
(0 0 4.8409e-06)
(0 0 4.84133e-06)
(0 0 4.84157e-06)
(0 0 4.84179e-06)
(0 0 4.84219e-06)
(0 0 4.84271e-06)
(0 0 4.84331e-06)
(0 0 4.84374e-06)
(0 0 4.84398e-06)
(0 0 4.84428e-06)
(0 0 4.84475e-06)
(0 0 4.8453e-06)
(0 0 4.84581e-06)
(0 0 4.84634e-06)
(0 0 4.84689e-06)
(0 0 4.84738e-06)
(0 0 4.84782e-06)
(0 0 4.84833e-06)
(0 0 4.84889e-06)
(0 0 4.84948e-06)
(0 0 4.85009e-06)
(0 0 4.85067e-06)
(0 0 4.85116e-06)
(0 0 4.85156e-06)
(0 0 4.8519e-06)
(0 0 4.8523e-06)
(0 0 4.85276e-06)
(0 0 4.85327e-06)
(0 0 4.8538e-06)
(0 0 4.85432e-06)
(0 0 4.85482e-06)
(0 0 4.85533e-06)
(0 0 4.85584e-06)
(0 0 4.85642e-06)
(0 0 4.85706e-06)
(0 0 4.85776e-06)
(0 0 4.85851e-06)
(0 0 4.85925e-06)
(0 0 4.85998e-06)
(0 0 4.8607e-06)
(0 0 4.86142e-06)
(0 0 4.86214e-06)
(0 0 4.86285e-06)
(0 0 4.86355e-06)
(0 0 4.86422e-06)
(0 0 4.86485e-06)
(0 0 4.86545e-06)
(0 0 4.86604e-06)
(0 0 4.86621e-06)
)
;

boundaryField
{
    inlet
    {
        type            fixedValue;
        value           uniform (0 0 4.84716e-06);
    }
    outlet
    {
        type            zeroGradient;
    }
    emptyWalls
    {
        type            empty;
    }
}


// ************************************************************************* //
