/*--------------------------------*- C++ -*----------------------------------*\
  =========                 |
  \\      /  F ield         | OpenFOAM: The Open Source CFD Toolbox
   \\    /   O peration     | Website:  https://openfoam.org
    \\  /    A nd           | Version:  9
     \\/     M anipulation  |
\*---------------------------------------------------------------------------*/
FoamFile
{
    format      ascii;
    class       volVectorField;
    location    "5000";
    object      Uc;
}
// * * * * * * * * * * * * * * * * * * * * * * * * * * * * * * * * * * * * * //

dimensions      [0 0 0 0 0 0 0];

internalField   nonuniform List<vector> 
100
(
(0 0 5.51466e-09)
(0 0 5.67358e-09)
(0 0 9.7747e-09)
(0 0 1.42217e-08)
(0 0 1.89328e-08)
(0 0 2.38746e-08)
(0 0 2.89931e-08)
(0 0 3.42661e-08)
(0 0 3.96821e-08)
(0 0 4.52394e-08)
(0 0 5.09369e-08)
(0 0 5.67679e-08)
(0 0 6.27231e-08)
(0 0 6.87883e-08)
(0 0 7.49487e-08)
(0 0 8.1194e-08)
(0 0 8.75103e-08)
(0 0 9.3884e-08)
(0 0 1.00308e-07)
(0 0 1.06778e-07)
(0 0 1.13289e-07)
(0 0 1.19838e-07)
(0 0 1.26426e-07)
(0 0 1.33053e-07)
(0 0 1.39717e-07)
(0 0 1.46423e-07)
(0 0 1.5317e-07)
(0 0 1.59956e-07)
(0 0 1.66781e-07)
(0 0 1.73634e-07)
(0 0 1.80511e-07)
(0 0 1.87411e-07)
(0 0 1.94348e-07)
(0 0 2.01402e-07)
(0 0 2.08788e-07)
(0 0 2.16963e-07)
(0 0 2.26758e-07)
(0 0 2.3926e-07)
(0 0 2.55014e-07)
(0 0 2.7227e-07)
(0 0 2.87423e-07)
(0 0 2.99771e-07)
(0 0 3.10932e-07)
(0 0 3.21525e-07)
(0 0 3.31838e-07)
(0 0 3.42031e-07)
(0 0 3.52174e-07)
(0 0 3.62312e-07)
(0 0 3.72473e-07)
(0 0 3.8267e-07)
(0 0 3.92915e-07)
(0 0 4.03218e-07)
(0 0 4.13579e-07)
(0 0 4.24006e-07)
(0 0 4.34499e-07)
(0 0 4.45055e-07)
(0 0 4.55684e-07)
(0 0 4.66374e-07)
(0 0 4.77138e-07)
(0 0 4.87975e-07)
(0 0 4.98882e-07)
(0 0 5.0986e-07)
(0 0 5.20884e-07)
(0 0 5.32048e-07)
(0 0 5.4311e-07)
(0 0 5.54551e-07)
(0 0 5.6582e-07)
(0 0 5.76686e-07)
(0 0 5.88394e-07)
(0 0 6.00343e-07)
(0 0 6.11779e-07)
(0 0 6.23086e-07)
(0 0 6.34866e-07)
(0 0 6.46929e-07)
(0 0 6.58807e-07)
(0 0 6.70553e-07)
(0 0 6.82489e-07)
(0 0 6.94644e-07)
(0 0 7.06833e-07)
(0 0 7.18988e-07)
(0 0 7.31171e-07)
(0 0 7.43462e-07)
(0 0 7.55884e-07)
(0 0 7.6837e-07)
(0 0 7.80846e-07)
(0 0 7.93353e-07)
(0 0 8.05973e-07)
(0 0 8.18689e-07)
(0 0 8.31438e-07)
(0 0 8.44215e-07)
(0 0 8.57052e-07)
(0 0 8.69963e-07)
(0 0 8.82947e-07)
(0 0 8.95984e-07)
(0 0 9.09059e-07)
(0 0 9.2218e-07)
(0 0 9.3537e-07)
(0 0 9.48625e-07)
(0 0 9.61933e-07)
(0 0 9.73099e-07)
)
;

boundaryField
{
    inlet
    {
        type            fixedValue;
        value           uniform (0 0 0);
    }
    outlet
    {
        type            zeroGradient;
    }
    emptyWalls
    {
        type            empty;
    }
}


// ************************************************************************* //
