/*--------------------------------*- C++ -*----------------------------------*\
  =========                 |
  \\      /  F ield         | OpenFOAM: The Open Source CFD Toolbox
   \\    /   O peration     | Website:  https://openfoam.org
    \\  /    A nd           | Version:  9
     \\/     M anipulation  |
\*---------------------------------------------------------------------------*/
FoamFile
{
    format      ascii;
    class       volScalarField;
    location    "19200";
    object      Sa;
}
// * * * * * * * * * * * * * * * * * * * * * * * * * * * * * * * * * * * * * //

dimensions      [0 0 0 0 0 0 0];

internalField   nonuniform List<scalar> 
1000
(
0.549391
0.548326
0.54672
0.545248
0.543705
0.542193
0.540662
0.539123
0.537566
0.536014
0.53445
0.532904
0.531379
0.529887
0.528466
0.527079
0.525849
0.524616
0.523642
0.522617
0.52188
0.521084
0.520442
0.519448
0.516949
0.508023
0.465504
0.24679
0.100926
0.0720685
0.0617022
0.0560878
0.0523102
0.0494323
0.0470934
0.0451016
0.0433646
0.0418151
0.0404308
0.0391863
0.0380776
0.0370832
0.0361919
0.0353758
0.0346209
0.0339071
0.0332313
0.032588
0.031984
0.0314166
0.030881
0.0303512
0.0298388
0.0293499
0.0288926
0.0284575
0.0280525
0.0276672
0.0273069
0.0269733
0.0266638
0.0263766
0.02611
0.0258623
0.0256317
0.025417
0.0252167
0.0250298
0.0248553
0.0246932
0.0245434
0.0244078
0.0242892
0.0241919
0.0241182
0.0240656
0.0240215
0.023976
0.0239291
0.0238815
0.0238333
0.023785
0.0237366
0.0236884
0.0236403
0.0235924
0.0235449
0.0234977
0.0234509
0.0234045
0.0233585
0.0233128
0.0232676
0.0232228
0.0231784
0.0231344
0.0230908
0.0230477
0.0230049
0.0229626
0.0229207
0.0228792
0.0228381
0.0227973
0.022757
0.0227171
0.0226776
0.0226384
0.0225997
0.0225613
0.0225233
0.0224856
0.0224483
0.0224115
0.022375
0.0223389
0.0223031
0.0222678
0.0222328
0.0221982
0.0221638
0.0221297
0.0220959
0.0220622
0.0220288
0.0219955
0.0219625
0.0219298
0.0218973
0.0218651
0.0218333
0.0218017
0.0217705
0.0217395
0.0217088
0.0216783
0.0216479
0.0216176
0.0215873
0.021557
0.0215269
0.021497
0.0214675
0.0214388
0.021411
0.0213845
0.0213594
0.0213357
0.0213137
0.0212931
0.0212741
0.0212563
0.0212397
0.0212241
0.0212091
0.0211945
0.02118
0.0211654
0.0211502
0.0211341
0.0211168
0.0210978
0.021077
0.021054
0.0210286
0.0210009
0.0209708
0.0209384
0.020904
0.020868
0.0208306
0.0207924
0.0207538
0.0207152
0.0206771
0.0206396
0.0206033
0.0205681
0.0205344
0.0205021
0.0204712
0.0204417
0.0204135
0.0203865
0.0203605
0.0203353
0.0203109
0.020287
0.0202636
0.0202404
0.0202174
0.0201946
0.0201717
0.0201489
0.020126
0.020103
0.0200799
0.0200568
0.0200335
0.0200102
0.0199869
0.0199635
0.0199401
0.0199168
0.0198934
0.0198701
0.0198469
0.0198237
0.0198006
0.0197777
0.0197548
0.019732
0.0197094
0.0196868
0.0196644
0.0196422
0.01962
0.019598
0.0195762
0.0195544
0.0195328
0.0195114
0.01949
0.0194688
0.0194478
0.0194269
0.0194061
0.0193854
0.0193649
0.0193445
0.0193243
0.0193042
0.0192842
0.0192643
0.0192446
0.019225
0.0192055
0.0191862
0.019167
0.019148
0.019129
0.0191102
0.0190916
0.0190731
0.0190547
0.0190364
0.0190183
0.0190003
0.0189824
0.0189647
0.018947
0.0189295
0.018912
0.0188947
0.0188774
0.0188602
0.0188432
0.0188262
0.0188093
0.0187925
0.0187758
0.0187591
0.0187426
0.0187262
0.0187098
0.0186935
0.0186773
0.0186611
0.018645
0.0186289
0.0186129
0.0185969
0.0185811
0.0185653
0.0185498
0.0185344
0.0185193
0.0185045
0.0184901
0.0184761
0.0184626
0.0184496
0.0184372
0.0184254
0.0184141
0.0184035
0.0183935
0.018384
0.018375
0.0183665
0.0183584
0.0183505
0.0183429
0.0183354
0.0183278
0.0183201
0.0183121
0.0183036
0.0182946
0.0182849
0.0182745
0.0182631
0.0182507
0.0182373
0.0182229
0.0182073
0.0181907
0.018173
0.0181544
0.0181349
0.0181148
0.018094
0.0180727
0.0180511
0.0180294
0.0180076
0.0179859
0.0179645
0.0179434
0.0179227
0.0179025
0.0178829
0.0178638
0.0178452
0.0178272
0.0178098
0.0177929
0.0177764
0.0177604
0.0177448
0.0177296
0.0177146
0.0176999
0.0176853
0.017671
0.0176567
0.0176426
0.0176285
0.0176144
0.0176004
0.0175864
0.0175723
0.0175582
0.0175441
0.01753
0.0175158
0.0175017
0.0174874
0.0174732
0.017459
0.0174448
0.0174305
0.0174163
0.0174021
0.0173879
0.0173737
0.0173596
0.0173455
0.0173315
0.0173175
0.0173035
0.0172896
0.0172758
0.017262
0.0172482
0.0172345
0.0172209
0.0172074
0.0171939
0.0171805
0.0171671
0.0171539
0.0171406
0.0171275
0.0171144
0.0171014
0.0170885
0.0170756
0.0170628
0.01705
0.0170374
0.0170248
0.0170122
0.0169998
0.0169874
0.016975
0.0169628
0.0169506
0.0169385
0.0169264
0.0169144
0.0169025
0.0168906
0.0168788
0.0168671
0.0168555
0.0168439
0.0168323
0.0168209
0.0168094
0.0167981
0.0167868
0.0167755
0.0167643
0.0167532
0.0167421
0.016731
0.01672
0.0167091
0.0166982
0.0166873
0.0166765
0.0166657
0.016655
0.0166442
0.0166336
0.0166229
0.0166123
0.0166018
0.0165913
0.0165808
0.0165704
0.01656
0.0165497
0.0165395
0.0165294
0.0165194
0.0165095
0.0164998
0.0164903
0.0164809
0.0164718
0.0164629
0.0164543
0.0164459
0.0164378
0.01643
0.0164225
0.0164153
0.0164083
0.0164017
0.0163953
0.0163892
0.0163833
0.0163776
0.0163721
0.0163666
0.0163613
0.016356
0.0163506
0.0163452
0.0163396
0.0163339
0.0163278
0.0163215
0.0163148
0.0163077
0.0163002
0.0162921
0.0162835
0.0162744
0.0162647
0.0162544
0.0162436
0.0162321
0.0162202
0.0162077
0.0161947
0.0161814
0.0161676
0.0161536
0.0161393
0.0161248
0.0161102
0.0160956
0.0160809
0.0160663
0.0160518
0.0160374
0.0160232
0.0160093
0.0159956
0.0159821
0.0159689
0.015956
0.0159434
0.0159311
0.015919
0.0159071
0.0158955
0.0158841
0.0158729
0.0158619
0.015851
0.0158403
0.0158297
0.0158193
0.0158088
0.0157985
0.0157882
0.015778
0.0157678
0.0157576
0.0157474
0.0157372
0.0157271
0.0157169
0.0157067
0.0156965
0.0156863
0.0156761
0.0156659
0.0156557
0.0156455
0.0156352
0.015625
0.0156148
0.0156046
0.0155943
0.0155841
0.0155739
0.0155637
0.0155536
0.0155434
0.0155333
0.0155232
0.0155131
0.0155031
0.015493
0.015483
0.0154731
0.0154632
0.0154533
0.0154434
0.0154336
0.0154238
0.015414
0.0154043
0.0153946
0.0153849
0.0153753
0.0153658
0.0153562
0.0153467
0.0153373
0.0153278
0.0153185
0.0153091
0.0152998
0.0152905
0.0152813
0.0152721
0.015263
0.0152538
0.0152448
0.0152357
0.0152267
0.0152178
0.0152088
0.0152
0.0151911
0.0151823
0.0151735
0.0151648
0.0151561
0.0151474
0.0151387
0.0151301
0.0151215
0.015113
0.0151045
0.015096
0.0150875
0.0150791
0.0150707
0.0150623
0.015054
0.0150456
0.0150373
0.0150291
0.0150208
0.0150126
0.0150044
0.0149962
0.0149881
0.0149799
0.0149719
0.0149638
0.0149558
0.0149479
0.01494
0.0149321
0.0149243
0.0149166
0.014909
0.0149014
0.014894
0.0148867
0.0148794
0.0148723
0.0148654
0.0148585
0.0148518
0.0148453
0.0148389
0.0148327
0.0148266
0.0148207
0.014815
0.0148094
0.0148039
0.0147986
0.0147934
0.0147884
0.0147834
0.0147785
0.0147737
0.0147689
0.0147642
0.0147594
0.0147547
0.0147498
0.0147449
0.0147399
0.0147347
0.0147294
0.0147239
0.0147181
0.0147122
0.0147059
0.0146994
0.0146926
0.0146854
0.0146779
0.0146701
0.014662
0.0146535
0.0146447
0.0146355
0.014626
0.0146162
0.0146062
0.0145958
0.0145853
0.0145745
0.0145635
0.0145524
0.0145411
0.0145298
0.0145184
0.014507
0.0144956
0.0144841
0.0144728
0.0144615
0.0144503
0.0144391
0.0144282
0.0144172
0.0144065
0.0143959
0.0143855
0.0143751
0.014365
0.0143549
0.0143451
0.0143353
0.0143257
0.0143161
0.0143067
0.0142974
0.0142881
0.014279
0.0142698
0.0142608
0.0142518
0.0142429
0.014234
0.0142251
0.0142162
0.0142073
0.0141985
0.0141897
0.0141808
0.014172
0.0141631
0.0141543
0.0141454
0.0141365
0.0141277
0.0141188
0.0141099
0.0141009
0.014092
0.0140831
0.0140741
0.0140652
0.0140562
0.0140472
0.0140383
0.0140293
0.0140203
0.0140114
0.0140024
0.0139934
0.0139845
0.0139756
0.0139666
0.0139577
0.0139488
0.01394
0.0139311
0.0139223
0.0139135
0.0139048
0.0138961
0.0138874
0.0138787
0.0138702
0.0138617
0.0138532
0.0138448
0.0138365
0.0138283
0.0138202
0.0138122
0.0138043
0.0137966
0.0137891
0.0137817
0.0137745
0.0137675
0.0137608
0.0137543
0.013748
0.0137421
0.0137365
0.0137311
0.0137262
0.0137215
0.0137172
0.0137133
0.0137097
0.0137065
0.0137036
0.013701
0.0136988
0.0136969
0.0136952
0.0136938
0.0136926
0.0136917
0.0136909
0.0136903
0.0136899
0.0136895
0.0136893
0.013689
0.0136889
0.0136884
0.0136878
0.0136867
0.0136841
0.01368
0.0136716
0.0136572
0.0136315
0.0135868
0.0135134
0.0133982
0.0132368
0.0130411
0.0128477
0.0126975
0.0126037
0.012555
0.0125315
0.0125208
0.0125162
0.012514
0.0125138
0.0125139
0.0125145
0.0125153
0.0125163
0.0125174
0.0125186
0.0125199
0.0125212
0.0125227
0.0125242
0.0125258
0.0125274
0.0125292
0.012531
0.0125329
0.0125349
0.0125369
0.0125391
0.0125413
0.0125435
0.0125458
0.0125482
0.0125505
0.012553
0.0125554
0.0125579
0.0125603
0.0125628
0.0125652
0.0125676
0.01257
0.0125723
0.0125746
0.0125768
0.0125789
0.0125809
0.0125828
0.0125845
0.0125862
0.0125877
0.012589
0.0125902
0.0125912
0.0125921
0.0125927
0.0125931
0.0125934
0.0125934
0.0125934
0.0125934
0.0125931
0.0125924
0.0125915
0.0125905
0.0125894
0.0125881
0.0125866
0.0125851
0.0125834
0.0125816
0.0125798
0.0125778
0.0125758
0.0125738
0.0125717
0.0125696
0.0125675
0.0125654
0.0125633
0.0125612
0.0125592
0.0125572
0.0125552
0.0125533
0.0125515
0.0125497
0.012548
0.0125464
0.0125448
0.0125433
0.0125419
0.0125406
0.0125393
0.0125381
0.012537
0.0125359
0.0125349
0.012534
0.0125331
0.0125322
0.0125314
0.0125307
0.0125299
0.0125293
0.0125286
0.012528
0.0125273
0.0125267
0.0125262
0.0125256
0.012525
0.0125245
0.0125239
0.0125234
0.0125228
0.0125223
0.0125218
0.0125212
0.0125207
0.0125201
0.0125196
0.012519
0.0125185
0.0125179
0.0125173
0.0125168
0.0125162
0.0125157
0.0125151
0.0125145
0.012514
0.0125134
0.0125128
0.0125123
0.0125117
0.0125112
0.0125106
0.0125101
0.0125096
0.012509
0.0125085
0.012508
0.0125075
0.012507
0.0125066
0.0125061
0.0125057
0.0125052
0.0125048
0.0125044
0.012504
0.0125036
0.0125033
0.0125029
0.0125026
0.0125023
0.012502
0.0125017
0.0125014
0.0125012
0.012501
0.0125007
0.0125005
0.0125004
0.0125002
0.0125001
0.0124999
0.0124998
0.0124997
0.0124997
0.0124996
0.0124996
0.0124995
0.0124995
0.0124995
0.0124995
0.0124996
0.0124996
0.0124997
0.0124998
0.0124999
0.0125
0.0125001
0.0125003
0.0125005
0.0125006
0.0125009
0.012501
0.0125013
0.0125015
0.0125018
0.012502
0.0125024
0.0125025
0.012503
0.0125032
0.0125037
0.0125039
0.0125045
0.0125046
0.0125053
0.0125055
0.0125062
0.0125064
0.0125072
0.0125074
0.0125083
0.0125086
0.0125096
0.0125099
0.012511
0.0125113
0.0125125
0.0125128
0.0125142
0.0125146
0.0125161
0.0125165
0.0125182
0.0125187
0.0125206
0.0125211
0.0125232
0.0125237
0.012526
0.0125266
0.0125291
0.0125298
0.0125332
)
;

boundaryField
{
    inlet
    {
        type            fixedValue;
        value           uniform 0.55;
    }
    outlet
    {
        type            zeroGradient;
    }
    emptyWalls
    {
        type            empty;
    }
}


// ************************************************************************* //
