/*--------------------------------*- C++ -*----------------------------------*\
  =========                 |
  \\      /  F ield         | OpenFOAM: The Open Source CFD Toolbox
   \\    /   O peration     | Website:  https://openfoam.org
    \\  /    A nd           | Version:  9
     \\/     M anipulation  |
\*---------------------------------------------------------------------------*/
FoamFile
{
    format      ascii;
    class       volVectorField;
    location    "19200";
    object      Ua;
}
// * * * * * * * * * * * * * * * * * * * * * * * * * * * * * * * * * * * * * //

dimensions      [0 0 0 0 0 0 0];

internalField   nonuniform List<vector> 
1000
(
(2.74901e-06 0 0)
(2.74885e-06 0 0)
(2.7487e-06 0 0)
(2.74847e-06 0 0)
(2.74821e-06 0 0)
(2.74778e-06 0 0)
(2.74736e-06 0 0)
(2.7468e-06 0 0)
(2.74615e-06 0 0)
(2.74544e-06 0 0)
(2.74464e-06 0 0)
(2.74382e-06 0 0)
(2.74297e-06 0 0)
(2.74214e-06 0 0)
(2.74124e-06 0 0)
(2.74037e-06 0 0)
(2.73944e-06 0 0)
(2.7385e-06 0 0)
(2.73769e-06 0 0)
(2.73682e-06 0 0)
(2.73616e-06 0 0)
(2.73549e-06 0 0)
(2.73479e-06 0 0)
(2.73364e-06 0 0)
(2.72993e-06 0 0)
(2.71636e-06 0 0)
(2.64285e-06 0 0)
(2.39727e-06 0 0)
(2.17855e-06 0 0)
(2.13261e-06 0 0)
(2.11779e-06 0 0)
(2.10995e-06 0 0)
(2.10463e-06 0 0)
(2.10073e-06 0 0)
(2.09779e-06 0 0)
(2.09534e-06 0 0)
(2.09293e-06 0 0)
(2.09046e-06 0 0)
(2.08837e-06 0 0)
(2.08742e-06 0 0)
(2.08825e-06 0 0)
(2.09105e-06 0 0)
(2.0953e-06 0 0)
(2.10004e-06 0 0)
(2.10416e-06 0 0)
(2.10685e-06 0 0)
(2.10787e-06 0 0)
(2.10755e-06 0 0)
(2.10657e-06 0 0)
(2.10536e-06 0 0)
(2.10323e-06 0 0)
(2.09869e-06 0 0)
(2.09234e-06 0 0)
(2.08583e-06 0 0)
(2.07954e-06 0 0)
(2.07375e-06 0 0)
(2.06878e-06 0 0)
(2.06469e-06 0 0)
(2.06148e-06 0 0)
(2.05916e-06 0 0)
(2.05755e-06 0 0)
(2.05653e-06 0 0)
(2.05594e-06 0 0)
(2.05567e-06 0 0)
(2.05558e-06 0 0)
(2.05557e-06 0 0)
(2.05553e-06 0 0)
(2.05542e-06 0 0)
(2.05521e-06 0 0)
(2.05488e-06 0 0)
(2.05446e-06 0 0)
(2.05396e-06 0 0)
(2.05341e-06 0 0)
(2.05286e-06 0 0)
(2.05232e-06 0 0)
(2.05182e-06 0 0)
(2.05132e-06 0 0)
(2.05079e-06 0 0)
(2.05025e-06 0 0)
(2.0497e-06 0 0)
(2.04915e-06 0 0)
(2.04859e-06 0 0)
(2.04804e-06 0 0)
(2.0475e-06 0 0)
(2.04696e-06 0 0)
(2.04643e-06 0 0)
(2.04592e-06 0 0)
(2.04541e-06 0 0)
(2.04492e-06 0 0)
(2.04443e-06 0 0)
(2.04396e-06 0 0)
(2.0435e-06 0 0)
(2.04306e-06 0 0)
(2.04262e-06 0 0)
(2.0422e-06 0 0)
(2.04179e-06 0 0)
(2.04139e-06 0 0)
(2.041e-06 0 0)
(2.04063e-06 0 0)
(2.04027e-06 0 0)
(2.03992e-06 0 0)
(2.03958e-06 0 0)
(2.03926e-06 0 0)
(2.03895e-06 0 0)
(2.03866e-06 0 0)
(2.03837e-06 0 0)
(2.03811e-06 0 0)
(2.03785e-06 0 0)
(2.03761e-06 0 0)
(2.03738e-06 0 0)
(2.03716e-06 0 0)
(2.03695e-06 0 0)
(2.03677e-06 0 0)
(2.0366e-06 0 0)
(2.03644e-06 0 0)
(2.03631e-06 0 0)
(2.0362e-06 0 0)
(2.0361e-06 0 0)
(2.03602e-06 0 0)
(2.03595e-06 0 0)
(2.03589e-06 0 0)
(2.03584e-06 0 0)
(2.03578e-06 0 0)
(2.03571e-06 0 0)
(2.03564e-06 0 0)
(2.03556e-06 0 0)
(2.03549e-06 0 0)
(2.03542e-06 0 0)
(2.03536e-06 0 0)
(2.03531e-06 0 0)
(2.03528e-06 0 0)
(2.03526e-06 0 0)
(2.03526e-06 0 0)
(2.03526e-06 0 0)
(2.03528e-06 0 0)
(2.03529e-06 0 0)
(2.03528e-06 0 0)
(2.03526e-06 0 0)
(2.0352e-06 0 0)
(2.03512e-06 0 0)
(2.03503e-06 0 0)
(2.03496e-06 0 0)
(2.03493e-06 0 0)
(2.03499e-06 0 0)
(2.03518e-06 0 0)
(2.03554e-06 0 0)
(2.03611e-06 0 0)
(2.03691e-06 0 0)
(2.03794e-06 0 0)
(2.0392e-06 0 0)
(2.04069e-06 0 0)
(2.04237e-06 0 0)
(2.04422e-06 0 0)
(2.04621e-06 0 0)
(2.04829e-06 0 0)
(2.05042e-06 0 0)
(2.05254e-06 0 0)
(2.05462e-06 0 0)
(2.05657e-06 0 0)
(2.05835e-06 0 0)
(2.05989e-06 0 0)
(2.06113e-06 0 0)
(2.06202e-06 0 0)
(2.06251e-06 0 0)
(2.06258e-06 0 0)
(2.06221e-06 0 0)
(2.0614e-06 0 0)
(2.06017e-06 0 0)
(2.05858e-06 0 0)
(2.05666e-06 0 0)
(2.05449e-06 0 0)
(2.05214e-06 0 0)
(2.04969e-06 0 0)
(2.04722e-06 0 0)
(2.04479e-06 0 0)
(2.04246e-06 0 0)
(2.04028e-06 0 0)
(2.03829e-06 0 0)
(2.03652e-06 0 0)
(2.03497e-06 0 0)
(2.03365e-06 0 0)
(2.03255e-06 0 0)
(2.03165e-06 0 0)
(2.03093e-06 0 0)
(2.03038e-06 0 0)
(2.02995e-06 0 0)
(2.02963e-06 0 0)
(2.02938e-06 0 0)
(2.02919e-06 0 0)
(2.02904e-06 0 0)
(2.02889e-06 0 0)
(2.02875e-06 0 0)
(2.02859e-06 0 0)
(2.02841e-06 0 0)
(2.0282e-06 0 0)
(2.02796e-06 0 0)
(2.02769e-06 0 0)
(2.02738e-06 0 0)
(2.02703e-06 0 0)
(2.02666e-06 0 0)
(2.02626e-06 0 0)
(2.02583e-06 0 0)
(2.02539e-06 0 0)
(2.02492e-06 0 0)
(2.02445e-06 0 0)
(2.02396e-06 0 0)
(2.02346e-06 0 0)
(2.02296e-06 0 0)
(2.02246e-06 0 0)
(2.02195e-06 0 0)
(2.02145e-06 0 0)
(2.02095e-06 0 0)
(2.02046e-06 0 0)
(2.01996e-06 0 0)
(2.01948e-06 0 0)
(2.019e-06 0 0)
(2.01853e-06 0 0)
(2.01806e-06 0 0)
(2.01761e-06 0 0)
(2.01716e-06 0 0)
(2.01672e-06 0 0)
(2.01629e-06 0 0)
(2.01586e-06 0 0)
(2.01545e-06 0 0)
(2.01504e-06 0 0)
(2.01465e-06 0 0)
(2.01426e-06 0 0)
(2.01388e-06 0 0)
(2.01352e-06 0 0)
(2.01316e-06 0 0)
(2.01281e-06 0 0)
(2.01247e-06 0 0)
(2.01214e-06 0 0)
(2.01182e-06 0 0)
(2.01151e-06 0 0)
(2.01121e-06 0 0)
(2.01092e-06 0 0)
(2.01064e-06 0 0)
(2.01037e-06 0 0)
(2.01012e-06 0 0)
(2.00987e-06 0 0)
(2.00963e-06 0 0)
(2.00941e-06 0 0)
(2.0092e-06 0 0)
(2.009e-06 0 0)
(2.00881e-06 0 0)
(2.00863e-06 0 0)
(2.00846e-06 0 0)
(2.00831e-06 0 0)
(2.00816e-06 0 0)
(2.00802e-06 0 0)
(2.00788e-06 0 0)
(2.00776e-06 0 0)
(2.00763e-06 0 0)
(2.00752e-06 0 0)
(2.00741e-06 0 0)
(2.0073e-06 0 0)
(2.0072e-06 0 0)
(2.0071e-06 0 0)
(2.00701e-06 0 0)
(2.00693e-06 0 0)
(2.00685e-06 0 0)
(2.00677e-06 0 0)
(2.00671e-06 0 0)
(2.00664e-06 0 0)
(2.00658e-06 0 0)
(2.00651e-06 0 0)
(2.00645e-06 0 0)
(2.00638e-06 0 0)
(2.00631e-06 0 0)
(2.00625e-06 0 0)
(2.00618e-06 0 0)
(2.00613e-06 0 0)
(2.00608e-06 0 0)
(2.00606e-06 0 0)
(2.00607e-06 0 0)
(2.00612e-06 0 0)
(2.00621e-06 0 0)
(2.00637e-06 0 0)
(2.0066e-06 0 0)
(2.00691e-06 0 0)
(2.00732e-06 0 0)
(2.00782e-06 0 0)
(2.00843e-06 0 0)
(2.00914e-06 0 0)
(2.00996e-06 0 0)
(2.01088e-06 0 0)
(2.01191e-06 0 0)
(2.01303e-06 0 0)
(2.01422e-06 0 0)
(2.01549e-06 0 0)
(2.0168e-06 0 0)
(2.01815e-06 0 0)
(2.0195e-06 0 0)
(2.02085e-06 0 0)
(2.02215e-06 0 0)
(2.02339e-06 0 0)
(2.02454e-06 0 0)
(2.02557e-06 0 0)
(2.02646e-06 0 0)
(2.02719e-06 0 0)
(2.02773e-06 0 0)
(2.02808e-06 0 0)
(2.02821e-06 0 0)
(2.02812e-06 0 0)
(2.02781e-06 0 0)
(2.02728e-06 0 0)
(2.02654e-06 0 0)
(2.0256e-06 0 0)
(2.02448e-06 0 0)
(2.02321e-06 0 0)
(2.02181e-06 0 0)
(2.0203e-06 0 0)
(2.01873e-06 0 0)
(2.01711e-06 0 0)
(2.01547e-06 0 0)
(2.01385e-06 0 0)
(2.01226e-06 0 0)
(2.01073e-06 0 0)
(2.00926e-06 0 0)
(2.00789e-06 0 0)
(2.00661e-06 0 0)
(2.00542e-06 0 0)
(2.00435e-06 0 0)
(2.00337e-06 0 0)
(2.00249e-06 0 0)
(2.00171e-06 0 0)
(2.00101e-06 0 0)
(2.0004e-06 0 0)
(1.99985e-06 0 0)
(1.99936e-06 0 0)
(1.99893e-06 0 0)
(1.99853e-06 0 0)
(1.99817e-06 0 0)
(1.99783e-06 0 0)
(1.99751e-06 0 0)
(1.9972e-06 0 0)
(1.99689e-06 0 0)
(1.99658e-06 0 0)
(1.99627e-06 0 0)
(1.99595e-06 0 0)
(1.99562e-06 0 0)
(1.99528e-06 0 0)
(1.99493e-06 0 0)
(1.99456e-06 0 0)
(1.99418e-06 0 0)
(1.99379e-06 0 0)
(1.99339e-06 0 0)
(1.99297e-06 0 0)
(1.99255e-06 0 0)
(1.99211e-06 0 0)
(1.99168e-06 0 0)
(1.99123e-06 0 0)
(1.99078e-06 0 0)
(1.99033e-06 0 0)
(1.98987e-06 0 0)
(1.98942e-06 0 0)
(1.98896e-06 0 0)
(1.98851e-06 0 0)
(1.98806e-06 0 0)
(1.98761e-06 0 0)
(1.98717e-06 0 0)
(1.98673e-06 0 0)
(1.98629e-06 0 0)
(1.98586e-06 0 0)
(1.98543e-06 0 0)
(1.98502e-06 0 0)
(1.9846e-06 0 0)
(1.9842e-06 0 0)
(1.9838e-06 0 0)
(1.98341e-06 0 0)
(1.98302e-06 0 0)
(1.98264e-06 0 0)
(1.98227e-06 0 0)
(1.98191e-06 0 0)
(1.98155e-06 0 0)
(1.98121e-06 0 0)
(1.98086e-06 0 0)
(1.98053e-06 0 0)
(1.98021e-06 0 0)
(1.97989e-06 0 0)
(1.97958e-06 0 0)
(1.97928e-06 0 0)
(1.97899e-06 0 0)
(1.9787e-06 0 0)
(1.97842e-06 0 0)
(1.97816e-06 0 0)
(1.9779e-06 0 0)
(1.97764e-06 0 0)
(1.9774e-06 0 0)
(1.97716e-06 0 0)
(1.97694e-06 0 0)
(1.97672e-06 0 0)
(1.9765e-06 0 0)
(1.9763e-06 0 0)
(1.97611e-06 0 0)
(1.97592e-06 0 0)
(1.97574e-06 0 0)
(1.97556e-06 0 0)
(1.97539e-06 0 0)
(1.97523e-06 0 0)
(1.97508e-06 0 0)
(1.97493e-06 0 0)
(1.97478e-06 0 0)
(1.97464e-06 0 0)
(1.97451e-06 0 0)
(1.97438e-06 0 0)
(1.97426e-06 0 0)
(1.97414e-06 0 0)
(1.97402e-06 0 0)
(1.97391e-06 0 0)
(1.97381e-06 0 0)
(1.9737e-06 0 0)
(1.9736e-06 0 0)
(1.9735e-06 0 0)
(1.97341e-06 0 0)
(1.97331e-06 0 0)
(1.97322e-06 0 0)
(1.97314e-06 0 0)
(1.97305e-06 0 0)
(1.97297e-06 0 0)
(1.9729e-06 0 0)
(1.97284e-06 0 0)
(1.97278e-06 0 0)
(1.97274e-06 0 0)
(1.97272e-06 0 0)
(1.97271e-06 0 0)
(1.97273e-06 0 0)
(1.97278e-06 0 0)
(1.97286e-06 0 0)
(1.97297e-06 0 0)
(1.97313e-06 0 0)
(1.97333e-06 0 0)
(1.97358e-06 0 0)
(1.97389e-06 0 0)
(1.97424e-06 0 0)
(1.97466e-06 0 0)
(1.97513e-06 0 0)
(1.97567e-06 0 0)
(1.97626e-06 0 0)
(1.97691e-06 0 0)
(1.97761e-06 0 0)
(1.97836e-06 0 0)
(1.97916e-06 0 0)
(1.98e-06 0 0)
(1.98086e-06 0 0)
(1.98175e-06 0 0)
(1.98265e-06 0 0)
(1.98355e-06 0 0)
(1.98445e-06 0 0)
(1.98532e-06 0 0)
(1.98616e-06 0 0)
(1.98696e-06 0 0)
(1.9877e-06 0 0)
(1.98837e-06 0 0)
(1.98895e-06 0 0)
(1.98945e-06 0 0)
(1.98984e-06 0 0)
(1.99013e-06 0 0)
(1.99029e-06 0 0)
(1.99033e-06 0 0)
(1.99024e-06 0 0)
(1.99003e-06 0 0)
(1.98969e-06 0 0)
(1.98922e-06 0 0)
(1.98862e-06 0 0)
(1.98792e-06 0 0)
(1.98711e-06 0 0)
(1.9862e-06 0 0)
(1.98521e-06 0 0)
(1.98414e-06 0 0)
(1.98302e-06 0 0)
(1.98185e-06 0 0)
(1.98065e-06 0 0)
(1.97943e-06 0 0)
(1.97821e-06 0 0)
(1.97699e-06 0 0)
(1.97579e-06 0 0)
(1.97462e-06 0 0)
(1.97349e-06 0 0)
(1.97239e-06 0 0)
(1.97135e-06 0 0)
(1.97036e-06 0 0)
(1.96942e-06 0 0)
(1.96854e-06 0 0)
(1.96771e-06 0 0)
(1.96694e-06 0 0)
(1.96622e-06 0 0)
(1.96555e-06 0 0)
(1.96493e-06 0 0)
(1.96435e-06 0 0)
(1.96381e-06 0 0)
(1.96331e-06 0 0)
(1.96284e-06 0 0)
(1.9624e-06 0 0)
(1.96198e-06 0 0)
(1.96157e-06 0 0)
(1.96119e-06 0 0)
(1.96081e-06 0 0)
(1.96044e-06 0 0)
(1.96008e-06 0 0)
(1.95972e-06 0 0)
(1.95937e-06 0 0)
(1.95901e-06 0 0)
(1.95865e-06 0 0)
(1.95829e-06 0 0)
(1.95792e-06 0 0)
(1.95755e-06 0 0)
(1.95717e-06 0 0)
(1.95679e-06 0 0)
(1.9564e-06 0 0)
(1.95601e-06 0 0)
(1.95561e-06 0 0)
(1.9552e-06 0 0)
(1.9548e-06 0 0)
(1.95439e-06 0 0)
(1.95397e-06 0 0)
(1.95356e-06 0 0)
(1.95314e-06 0 0)
(1.95272e-06 0 0)
(1.9523e-06 0 0)
(1.95188e-06 0 0)
(1.95146e-06 0 0)
(1.95104e-06 0 0)
(1.95062e-06 0 0)
(1.95021e-06 0 0)
(1.94979e-06 0 0)
(1.94938e-06 0 0)
(1.94898e-06 0 0)
(1.94857e-06 0 0)
(1.94817e-06 0 0)
(1.94778e-06 0 0)
(1.94738e-06 0 0)
(1.947e-06 0 0)
(1.94662e-06 0 0)
(1.94624e-06 0 0)
(1.94587e-06 0 0)
(1.9455e-06 0 0)
(1.94514e-06 0 0)
(1.94478e-06 0 0)
(1.94443e-06 0 0)
(1.94408e-06 0 0)
(1.94374e-06 0 0)
(1.94341e-06 0 0)
(1.94308e-06 0 0)
(1.94275e-06 0 0)
(1.94244e-06 0 0)
(1.94213e-06 0 0)
(1.94182e-06 0 0)
(1.94152e-06 0 0)
(1.94123e-06 0 0)
(1.94094e-06 0 0)
(1.94066e-06 0 0)
(1.94038e-06 0 0)
(1.94011e-06 0 0)
(1.93985e-06 0 0)
(1.93959e-06 0 0)
(1.93934e-06 0 0)
(1.93909e-06 0 0)
(1.93885e-06 0 0)
(1.93862e-06 0 0)
(1.93839e-06 0 0)
(1.93817e-06 0 0)
(1.93795e-06 0 0)
(1.93774e-06 0 0)
(1.93753e-06 0 0)
(1.93733e-06 0 0)
(1.93714e-06 0 0)
(1.93694e-06 0 0)
(1.93676e-06 0 0)
(1.93658e-06 0 0)
(1.9364e-06 0 0)
(1.93622e-06 0 0)
(1.93605e-06 0 0)
(1.93589e-06 0 0)
(1.93573e-06 0 0)
(1.93557e-06 0 0)
(1.93542e-06 0 0)
(1.93526e-06 0 0)
(1.93512e-06 0 0)
(1.93497e-06 0 0)
(1.93483e-06 0 0)
(1.9347e-06 0 0)
(1.93457e-06 0 0)
(1.93444e-06 0 0)
(1.93432e-06 0 0)
(1.9342e-06 0 0)
(1.93409e-06 0 0)
(1.93399e-06 0 0)
(1.9339e-06 0 0)
(1.93381e-06 0 0)
(1.93374e-06 0 0)
(1.93368e-06 0 0)
(1.93364e-06 0 0)
(1.93361e-06 0 0)
(1.9336e-06 0 0)
(1.93361e-06 0 0)
(1.93364e-06 0 0)
(1.9337e-06 0 0)
(1.93379e-06 0 0)
(1.9339e-06 0 0)
(1.93405e-06 0 0)
(1.93422e-06 0 0)
(1.93443e-06 0 0)
(1.93467e-06 0 0)
(1.93495e-06 0 0)
(1.93527e-06 0 0)
(1.93562e-06 0 0)
(1.936e-06 0 0)
(1.93642e-06 0 0)
(1.93688e-06 0 0)
(1.93736e-06 0 0)
(1.93787e-06 0 0)
(1.93841e-06 0 0)
(1.93897e-06 0 0)
(1.93955e-06 0 0)
(1.94014e-06 0 0)
(1.94074e-06 0 0)
(1.94135e-06 0 0)
(1.94196e-06 0 0)
(1.94255e-06 0 0)
(1.94314e-06 0 0)
(1.9437e-06 0 0)
(1.94424e-06 0 0)
(1.94475e-06 0 0)
(1.94522e-06 0 0)
(1.94564e-06 0 0)
(1.94601e-06 0 0)
(1.94632e-06 0 0)
(1.94657e-06 0 0)
(1.94676e-06 0 0)
(1.94687e-06 0 0)
(1.9469e-06 0 0)
(1.94686e-06 0 0)
(1.94674e-06 0 0)
(1.94654e-06 0 0)
(1.94626e-06 0 0)
(1.94589e-06 0 0)
(1.94545e-06 0 0)
(1.94493e-06 0 0)
(1.94434e-06 0 0)
(1.94368e-06 0 0)
(1.94296e-06 0 0)
(1.94218e-06 0 0)
(1.94135e-06 0 0)
(1.94047e-06 0 0)
(1.93956e-06 0 0)
(1.93862e-06 0 0)
(1.93765e-06 0 0)
(1.93667e-06 0 0)
(1.93567e-06 0 0)
(1.93468e-06 0 0)
(1.93369e-06 0 0)
(1.9327e-06 0 0)
(1.93174e-06 0 0)
(1.93079e-06 0 0)
(1.92986e-06 0 0)
(1.92896e-06 0 0)
(1.92809e-06 0 0)
(1.92724e-06 0 0)
(1.92643e-06 0 0)
(1.92566e-06 0 0)
(1.92491e-06 0 0)
(1.9242e-06 0 0)
(1.92352e-06 0 0)
(1.92287e-06 0 0)
(1.92226e-06 0 0)
(1.92167e-06 0 0)
(1.9211e-06 0 0)
(1.92056e-06 0 0)
(1.92004e-06 0 0)
(1.91954e-06 0 0)
(1.91906e-06 0 0)
(1.9186e-06 0 0)
(1.91815e-06 0 0)
(1.91771e-06 0 0)
(1.91728e-06 0 0)
(1.91685e-06 0 0)
(1.91644e-06 0 0)
(1.91603e-06 0 0)
(1.91562e-06 0 0)
(1.91521e-06 0 0)
(1.9148e-06 0 0)
(1.9144e-06 0 0)
(1.91399e-06 0 0)
(1.91358e-06 0 0)
(1.91317e-06 0 0)
(1.91276e-06 0 0)
(1.91234e-06 0 0)
(1.91192e-06 0 0)
(1.9115e-06 0 0)
(1.91107e-06 0 0)
(1.91065e-06 0 0)
(1.91022e-06 0 0)
(1.90978e-06 0 0)
(1.90935e-06 0 0)
(1.90891e-06 0 0)
(1.90847e-06 0 0)
(1.90803e-06 0 0)
(1.90759e-06 0 0)
(1.90714e-06 0 0)
(1.9067e-06 0 0)
(1.90626e-06 0 0)
(1.90581e-06 0 0)
(1.90537e-06 0 0)
(1.90493e-06 0 0)
(1.90449e-06 0 0)
(1.90405e-06 0 0)
(1.90361e-06 0 0)
(1.90318e-06 0 0)
(1.90275e-06 0 0)
(1.90232e-06 0 0)
(1.90189e-06 0 0)
(1.90147e-06 0 0)
(1.90105e-06 0 0)
(1.90063e-06 0 0)
(1.90023e-06 0 0)
(1.89982e-06 0 0)
(1.89942e-06 0 0)
(1.89902e-06 0 0)
(1.89863e-06 0 0)
(1.89825e-06 0 0)
(1.89787e-06 0 0)
(1.8975e-06 0 0)
(1.89714e-06 0 0)
(1.89679e-06 0 0)
(1.89644e-06 0 0)
(1.8961e-06 0 0)
(1.89578e-06 0 0)
(1.89546e-06 0 0)
(1.89515e-06 0 0)
(1.89486e-06 0 0)
(1.89458e-06 0 0)
(1.89431e-06 0 0)
(1.89405e-06 0 0)
(1.89381e-06 0 0)
(1.89358e-06 0 0)
(1.89337e-06 0 0)
(1.89318e-06 0 0)
(1.893e-06 0 0)
(1.89284e-06 0 0)
(1.8927e-06 0 0)
(1.89257e-06 0 0)
(1.89246e-06 0 0)
(1.89236e-06 0 0)
(1.89228e-06 0 0)
(1.89222e-06 0 0)
(1.89217e-06 0 0)
(1.89214e-06 0 0)
(1.89211e-06 0 0)
(1.8921e-06 0 0)
(1.89211e-06 0 0)
(1.89212e-06 0 0)
(1.89214e-06 0 0)
(1.89217e-06 0 0)
(1.89221e-06 0 0)
(1.89226e-06 0 0)
(1.89231e-06 0 0)
(1.89236e-06 0 0)
(1.8924e-06 0 0)
(1.89246e-06 0 0)
(1.89248e-06 0 0)
(1.89246e-06 0 0)
(1.89238e-06 0 0)
(1.89215e-06 0 0)
(1.89168e-06 0 0)
(1.89079e-06 0 0)
(1.88919e-06 0 0)
(1.88651e-06 0 0)
(1.88232e-06 0 0)
(1.87647e-06 0 0)
(1.86947e-06 0 0)
(1.86261e-06 0 0)
(1.85727e-06 0 0)
(1.85394e-06 0 0)
(1.85224e-06 0 0)
(1.85149e-06 0 0)
(1.85124e-06 0 0)
(1.85123e-06 0 0)
(1.85133e-06 0 0)
(1.85151e-06 0 0)
(1.85173e-06 0 0)
(1.85196e-06 0 0)
(1.85222e-06 0 0)
(1.8525e-06 0 0)
(1.8528e-06 0 0)
(1.85311e-06 0 0)
(1.85345e-06 0 0)
(1.8538e-06 0 0)
(1.85418e-06 0 0)
(1.85457e-06 0 0)
(1.85499e-06 0 0)
(1.85543e-06 0 0)
(1.85588e-06 0 0)
(1.85636e-06 0 0)
(1.85686e-06 0 0)
(1.85737e-06 0 0)
(1.85791e-06 0 0)
(1.85847e-06 0 0)
(1.85904e-06 0 0)
(1.85963e-06 0 0)
(1.86023e-06 0 0)
(1.86084e-06 0 0)
(1.86146e-06 0 0)
(1.8621e-06 0 0)
(1.86273e-06 0 0)
(1.86338e-06 0 0)
(1.86402e-06 0 0)
(1.86466e-06 0 0)
(1.8653e-06 0 0)
(1.86593e-06 0 0)
(1.86655e-06 0 0)
(1.86716e-06 0 0)
(1.86775e-06 0 0)
(1.86832e-06 0 0)
(1.86887e-06 0 0)
(1.8694e-06 0 0)
(1.86989e-06 0 0)
(1.87036e-06 0 0)
(1.87079e-06 0 0)
(1.87118e-06 0 0)
(1.87153e-06 0 0)
(1.87185e-06 0 0)
(1.87211e-06 0 0)
(1.87233e-06 0 0)
(1.87249e-06 0 0)
(1.87261e-06 0 0)
(1.87267e-06 0 0)
(1.87269e-06 0 0)
(1.8727e-06 0 0)
(1.87268e-06 0 0)
(1.87259e-06 0 0)
(1.87242e-06 0 0)
(1.8722e-06 0 0)
(1.87193e-06 0 0)
(1.87163e-06 0 0)
(1.87129e-06 0 0)
(1.87091e-06 0 0)
(1.8705e-06 0 0)
(1.87007e-06 0 0)
(1.8696e-06 0 0)
(1.86912e-06 0 0)
(1.86861e-06 0 0)
(1.86809e-06 0 0)
(1.86755e-06 0 0)
(1.86701e-06 0 0)
(1.86646e-06 0 0)
(1.8659e-06 0 0)
(1.86535e-06 0 0)
(1.8648e-06 0 0)
(1.86426e-06 0 0)
(1.86372e-06 0 0)
(1.8632e-06 0 0)
(1.86269e-06 0 0)
(1.86219e-06 0 0)
(1.86171e-06 0 0)
(1.86125e-06 0 0)
(1.86081e-06 0 0)
(1.86038e-06 0 0)
(1.85997e-06 0 0)
(1.85959e-06 0 0)
(1.85922e-06 0 0)
(1.85887e-06 0 0)
(1.85854e-06 0 0)
(1.85823e-06 0 0)
(1.85793e-06 0 0)
(1.85765e-06 0 0)
(1.85739e-06 0 0)
(1.85714e-06 0 0)
(1.85691e-06 0 0)
(1.85668e-06 0 0)
(1.85647e-06 0 0)
(1.85628e-06 0 0)
(1.85609e-06 0 0)
(1.8559e-06 0 0)
(1.85573e-06 0 0)
(1.85556e-06 0 0)
(1.8554e-06 0 0)
(1.85525e-06 0 0)
(1.85509e-06 0 0)
(1.85495e-06 0 0)
(1.8548e-06 0 0)
(1.85465e-06 0 0)
(1.85451e-06 0 0)
(1.85437e-06 0 0)
(1.85423e-06 0 0)
(1.85409e-06 0 0)
(1.85394e-06 0 0)
(1.8538e-06 0 0)
(1.85366e-06 0 0)
(1.85352e-06 0 0)
(1.85337e-06 0 0)
(1.85323e-06 0 0)
(1.85308e-06 0 0)
(1.85294e-06 0 0)
(1.85279e-06 0 0)
(1.85264e-06 0 0)
(1.8525e-06 0 0)
(1.85235e-06 0 0)
(1.8522e-06 0 0)
(1.85205e-06 0 0)
(1.85191e-06 0 0)
(1.85176e-06 0 0)
(1.85161e-06 0 0)
(1.85147e-06 0 0)
(1.85132e-06 0 0)
(1.85118e-06 0 0)
(1.85104e-06 0 0)
(1.8509e-06 0 0)
(1.85076e-06 0 0)
(1.85062e-06 0 0)
(1.85049e-06 0 0)
(1.85036e-06 0 0)
(1.85023e-06 0 0)
(1.8501e-06 0 0)
(1.84998e-06 0 0)
(1.84986e-06 0 0)
(1.84974e-06 0 0)
(1.84963e-06 0 0)
(1.84952e-06 0 0)
(1.84941e-06 0 0)
(1.84931e-06 0 0)
(1.84921e-06 0 0)
(1.84912e-06 0 0)
(1.84902e-06 0 0)
(1.84894e-06 0 0)
(1.84886e-06 0 0)
(1.84878e-06 0 0)
(1.8487e-06 0 0)
(1.84863e-06 0 0)
(1.84857e-06 0 0)
(1.84851e-06 0 0)
(1.84845e-06 0 0)
(1.8484e-06 0 0)
(1.84835e-06 0 0)
(1.84831e-06 0 0)
(1.84827e-06 0 0)
(1.84824e-06 0 0)
(1.84821e-06 0 0)
(1.84819e-06 0 0)
(1.84817e-06 0 0)
(1.84815e-06 0 0)
(1.84814e-06 0 0)
(1.84814e-06 0 0)
(1.84814e-06 0 0)
(1.84814e-06 0 0)
(1.84814e-06 0 0)
(1.84814e-06 0 0)
(1.84816e-06 0 0)
(1.84818e-06 0 0)
(1.8482e-06 0 0)
(1.84823e-06 0 0)
(1.84826e-06 0 0)
(1.8483e-06 0 0)
(1.84834e-06 0 0)
(1.84838e-06 0 0)
(1.84843e-06 0 0)
(1.84848e-06 0 0)
(1.84853e-06 0 0)
(1.84859e-06 0 0)
(1.84866e-06 0 0)
(1.84872e-06 0 0)
(1.84879e-06 0 0)
(1.84887e-06 0 0)
(1.84894e-06 0 0)
(1.84902e-06 0 0)
(1.84911e-06 0 0)
(1.8492e-06 0 0)
(1.84929e-06 0 0)
(1.84939e-06 0 0)
(1.8495e-06 0 0)
(1.84961e-06 0 0)
(1.84972e-06 0 0)
(1.84984e-06 0 0)
(1.84997e-06 0 0)
(1.8501e-06 0 0)
(1.85024e-06 0 0)
(1.85039e-06 0 0)
(1.85055e-06 0 0)
(1.85071e-06 0 0)
(1.85088e-06 0 0)
(1.85106e-06 0 0)
(1.85126e-06 0 0)
(1.85146e-06 0 0)
(1.85168e-06 0 0)
(1.8519e-06 0 0)
(1.85214e-06 0 0)
(1.85239e-06 0 0)
(1.85266e-06 0 0)
(1.85294e-06 0 0)
(1.85323e-06 0 0)
(1.85354e-06 0 0)
(1.85387e-06 0 0)
(1.85421e-06 0 0)
(1.85456e-06 0 0)
(1.85494e-06 0 0)
(1.85533e-06 0 0)
(1.85573e-06 0 0)
(1.85615e-06 0 0)
(1.85659e-06 0 0)
)
;

boundaryField
{
    inlet
    {
        type            fixedValue;
        value           uniform (2.74882e-06 0 0);
    }
    outlet
    {
        type            zeroGradient;
    }
    emptyWalls
    {
        type            empty;
    }
}


// ************************************************************************* //
