/*--------------------------------*- C++ -*----------------------------------*\
  =========                 |
  \\      /  F ield         | OpenFOAM: The Open Source CFD Toolbox
   \\    /   O peration     | Website:  https://openfoam.org
    \\  /    A nd           | Version:  9
     \\/     M anipulation  |
\*---------------------------------------------------------------------------*/
FoamFile
{
    format      ascii;
    class       volScalarField;
    location    "30000";
    object      krc;
}
// * * * * * * * * * * * * * * * * * * * * * * * * * * * * * * * * * * * * * //

dimensions      [0 0 0 0 0 0 0];

internalField   nonuniform List<scalar> 
100
(
9.54607e-22
8.75161e-25
1.47943e-25
1.34494e-25
1.07656e-25
3.09059e-25
8.20022e-27
1.62728e-25
1.6851e-24
2.93709e-24
3.4225e-24
2.88465e-25
2.3146e-24
7.22259e-24
1.05287e-24
5.39483e-24
1.00562e-23
9.99277e-25
1.79463e-23
4.69316e-23
4.85097e-23
5.70343e-23
2.45919e-23
1.31975e-23
7.49775e-24
8.62444e-24
3.65512e-23
1.20063e-22
9.25292e-23
1.2382e-22
6.72942e-23
4.48692e-23
2.81362e-23
2.00147e-23
1.14939e-23
4.22988e-23
1.17525e-22
3.34672e-22
5.54651e-22
8.09655e-22
9.41496e-22
9.63134e-22
8.67702e-22
5.77082e-22
4.12929e-22
3.05884e-22
1.46694e-22
1.5998e-22
1.67285e-23
1.26439e-22
6.52638e-22
1.20772e-21
1.42961e-21
1.60125e-21
1.56813e-21
1.3809e-21
1.55414e-21
1.60246e-21
1.53674e-21
1.48864e-21
1.38888e-21
1.18348e-21
1.0458e-21
7.25848e-22
6.08413e-22
5.31444e-22
4.27356e-22
4.61269e-22
3.85912e-22
3.76239e-22
3.07327e-22
2.39989e-22
2.035e-22
1.43778e-22
1.09508e-22
7.10057e-23
5.76991e-23
3.71153e-23
1.87092e-23
4.2052e-24
1.69346e-23
8.5413e-23
1.90862e-22
2.83942e-22
2.65474e-22
2.54189e-22
2.06894e-22
1.84905e-22
1.20856e-22
1.10946e-22
8.93699e-23
1.00214e-22
9.32889e-23
1.13208e-22
9.48758e-23
3.79936e-21
1.08968e-21
1.09052e-19
2.03041e-18
5.5646e-18
)
;

boundaryField
{
    inlet
    {
        type            calculated;
        value           uniform 9.54607e-22;
    }
    outlet
    {
        type            calculated;
        value           uniform 5.5646e-18;
    }
    emptyWalls
    {
        type            empty;
    }
}


// ************************************************************************* //
