/*--------------------------------*- C++ -*----------------------------------*\
  =========                 |
  \\      /  F ield         | OpenFOAM: The Open Source CFD Toolbox
   \\    /   O peration     | Website:  https://openfoam.org
    \\  /    A nd           | Version:  9
     \\/     M anipulation  |
\*---------------------------------------------------------------------------*/
FoamFile
{
    format      ascii;
    class       volScalarField;
    location    "14000";
    object      Fa;
}
// * * * * * * * * * * * * * * * * * * * * * * * * * * * * * * * * * * * * * //

dimensions      [0 0 0 0 0 0 0];

internalField   nonuniform List<scalar> 
1000
(
0.194945
0.194647
0.194859
0.194663
0.194723
0.194626
0.194586
0.194505
0.194444
0.194349
0.194282
0.194188
0.194115
0.19403
0.193949
0.193913
0.193698
0.193518
0.191773
0.178715
0.155711
0.151931
0.150547
0.149777
0.14923
0.148797
0.148437
0.148111
0.147832
0.147569
0.147338
0.147123
0.146927
0.146744
0.146587
0.146423
0.146288
0.146149
0.146026
0.145908
0.145796
0.145701
0.145594
0.145497
0.14541
0.145325
0.145251
0.145178
0.145114
0.145052
0.145
0.144949
0.144912
0.144884
0.144873
0.144869
0.144864
0.14486
0.144856
0.144853
0.144849
0.144845
0.144841
0.144836
0.144828
0.14482
0.144811
0.144802
0.144796
0.144792
0.144792
0.144794
0.144799
0.144806
0.144813
0.144819
0.144822
0.144823
0.144824
0.144831
0.14485
0.14489
0.144954
0.145048
0.145168
0.145313
0.145478
0.145656
0.145843
0.146034
0.146222
0.146404
0.146573
0.146723
0.146846
0.146936
0.146986
0.146991
0.146948
0.146855
0.146718
0.146539
0.146328
0.146093
0.145845
0.145593
0.145348
0.145116
0.144905
0.144719
0.14456
0.144429
0.144325
0.144246
0.144188
0.14415
0.144125
0.144112
0.144105
0.144103
0.144102
0.144101
0.144098
0.144091
0.144081
0.144066
0.144047
0.144024
0.143997
0.143967
0.143934
0.143899
0.143862
0.143823
0.143783
0.143743
0.143701
0.14366
0.143618
0.143576
0.143534
0.143492
0.143451
0.14341
0.143369
0.143328
0.143288
0.143249
0.143209
0.143171
0.143133
0.143096
0.143059
0.143023
0.142988
0.142953
0.142919
0.142886
0.142853
0.142822
0.142791
0.142761
0.142731
0.142702
0.142674
0.142647
0.142621
0.142595
0.14257
0.142546
0.142522
0.1425
0.142478
0.142457
0.142436
0.142417
0.142398
0.14238
0.142362
0.142346
0.14233
0.142315
0.1423
0.142287
0.142274
0.142261
0.142249
0.142237
0.142225
0.142214
0.142202
0.142191
0.14218
0.142169
0.142158
0.142148
0.142138
0.142129
0.14212
0.142112
0.142104
0.142097
0.14209
0.142084
0.142078
0.142073
0.142068
0.142065
0.142064
0.142066
0.142071
0.142081
0.142096
0.142118
0.142146
0.142183
0.142229
0.142283
0.142346
0.142418
0.142498
0.142586
0.142681
0.142781
0.142886
0.142992
0.143099
0.143203
0.143304
0.143397
0.143482
0.143554
0.143613
0.143655
0.14368
0.143686
0.143671
0.143636
0.14358
0.143505
0.143413
0.143303
0.14318
0.143046
0.142904
0.142756
0.142606
0.142456
0.142309
0.142167
0.142032
0.141906
0.141789
0.141683
0.141587
0.141501
0.141425
0.141359
0.141301
0.141251
0.141207
0.141169
0.141136
0.141107
0.141081
0.141056
0.141033
0.141011
0.140988
0.140966
0.140942
0.140919
0.140893
0.140867
0.140839
0.14081
0.14078
0.140749
0.140717
0.140684
0.14065
0.140616
0.14058
0.140545
0.140509
0.140473
0.140436
0.1404
0.140364
0.140327
0.140291
0.140255
0.140219
0.140183
0.140148
0.140112
0.140077
0.140043
0.140008
0.139974
0.139941
0.139907
0.139875
0.139842
0.13981
0.139778
0.139747
0.139716
0.139686
0.139655
0.139626
0.139597
0.139568
0.13954
0.139512
0.139485
0.139457
0.139432
0.139405
0.13938
0.139354
0.139331
0.139306
0.139284
0.13926
0.139238
0.139215
0.139195
0.139173
0.139153
0.139133
0.139114
0.139095
0.139076
0.139058
0.139041
0.139024
0.139007
0.13899
0.138974
0.138958
0.138943
0.138927
0.138912
0.138898
0.138883
0.138869
0.138855
0.138841
0.138827
0.138814
0.1388
0.138788
0.138775
0.138763
0.138751
0.138739
0.138728
0.138717
0.138707
0.138698
0.13869
0.138683
0.138677
0.138673
0.138671
0.138671
0.138673
0.138679
0.138687
0.138699
0.138715
0.138734
0.138758
0.138786
0.138818
0.138855
0.138896
0.138942
0.138991
0.139045
0.139101
0.139161
0.139222
0.139285
0.139349
0.139413
0.139476
0.139538
0.139596
0.13965
0.1397
0.139744
0.139781
0.13981
0.139831
0.139843
0.139845
0.139836
0.139817
0.139788
0.139748
0.139698
0.139638
0.139568
0.139491
0.139405
0.139314
0.139217
0.139115
0.139011
0.138905
0.138798
0.138692
0.138587
0.138484
0.138384
0.138288
0.138196
0.138109
0.138027
0.137949
0.137877
0.137809
0.137747
0.137688
0.137635
0.137585
0.137538
0.137495
0.137455
0.137417
0.137381
0.137347
0.137315
0.137283
0.137252
0.137222
0.137192
0.137162
0.137133
0.137103
0.137073
0.137042
0.137011
0.13698
0.136948
0.136916
0.136883
0.13685
0.136816
0.136782
0.136747
0.136713
0.136678
0.136642
0.136607
0.136571
0.136535
0.136499
0.136463
0.136427
0.13639
0.136354
0.136318
0.136282
0.136245
0.136209
0.136173
0.136137
0.136101
0.136066
0.13603
0.135995
0.13596
0.135925
0.13589
0.135855
0.135821
0.135786
0.135752
0.135718
0.135685
0.135652
0.135618
0.135586
0.135553
0.135521
0.135489
0.135457
0.135426
0.135395
0.135364
0.135334
0.135304
0.135274
0.135245
0.135216
0.135187
0.135159
0.135131
0.135104
0.135076
0.13505
0.135023
0.134997
0.134971
0.134946
0.13492
0.134897
0.13487
0.134848
0.134823
0.134801
0.134777
0.134754
0.134732
0.134709
0.134688
0.134665
0.134644
0.134624
0.134602
0.134583
0.134563
0.134543
0.134526
0.134506
0.13449
0.134473
0.134456
0.134443
0.134428
0.134415
0.134406
0.134395
0.134387
0.134382
0.134376
0.134375
0.134377
0.134377
0.134383
0.134392
0.1344
0.134414
0.134432
0.134448
0.13447
0.134496
0.134523
0.13455
0.13458
0.134608
0.134635
0.134654
0.134659
0.134636
0.134564
0.134414
0.134151
0.133758
0.133274
0.132817
0.132493
0.132342
0.13228
0.132303
0.132321
0.132383
0.132431
0.132483
0.132538
0.132591
0.132643
0.132692
0.132739
0.132782
0.132822
0.132858
0.13289
0.132917
0.132939
0.132956
0.132966
0.13297
0.13297
0.13297
0.132965
0.132949
0.132927
0.132901
0.13287
0.132836
0.132797
0.132755
0.132709
0.132661
0.13261
0.132558
0.132504
0.132449
0.132393
0.132337
0.132282
0.132228
0.132174
0.132122
0.132071
0.132023
0.131976
0.131932
0.13189
0.131851
0.131814
0.131779
0.131747
0.131718
0.13169
0.131665
0.131642
0.131621
0.131602
0.131585
0.131569
0.131554
0.131541
0.131528
0.131517
0.131506
0.131496
0.131487
0.131478
0.131469
0.131461
0.131453
0.131444
0.131436
0.131428
0.131419
0.131411
0.131402
0.131393
0.131384
0.131375
0.131366
0.131356
0.131346
0.131336
0.131326
0.131315
0.131305
0.131294
0.131283
0.131272
0.131261
0.13125
0.131239
0.131228
0.131217
0.131207
0.131196
0.131185
0.131174
0.131164
0.131153
0.131143
0.131133
0.131122
0.131113
0.131103
0.131094
0.131084
0.131075
0.131066
0.131058
0.131049
0.131041
0.131033
0.131026
0.131019
0.131011
0.131005
0.130998
0.130992
0.130986
0.130981
0.130975
0.13097
0.130966
0.130961
0.130957
0.130953
0.13095
0.130947
0.130944
0.130942
0.13094
0.130939
0.130937
0.130936
0.130936
0.130936
0.130936
0.130936
0.130936
0.130937
0.130939
0.13094
0.130943
0.130945
0.130948
0.130951
0.130954
0.130958
0.130962
0.130966
0.130971
0.130975
0.130981
0.130986
0.130992
0.130997
0.131004
0.13101
0.131017
0.131023
0.131031
0.131038
0.131046
0.131054
0.131062
0.131071
0.13108
0.131089
0.131099
0.131109
0.131119
0.13113
0.131142
0.131154
0.131167
0.13118
0.131195
0.13121
0.131226
0.131243
0.131261
0.13128
0.1313
0.131321
0.131344
0.131368
0.131393
0.13142
0.131449
0.131479
0.131511
0.131544
0.131579
0.131615
0.131653
0.131693
0.131734
0.131777
0.131821
0.131867
0.131914
0.131962
0.132011
0.13206
0.13211
0.132161
0.132212
0.132263
0.132314
0.132364
0.132413
0.132461
0.132509
0.132554
0.132598
0.132639
0.132678
0.132714
0.132748
0.132778
0.132804
0.132827
0.132846
0.132861
0.132872
0.132879
0.132881
0.132882
0.132881
0.132878
0.132864
0.132846
0.132824
0.132798
0.132768
0.132735
0.132699
0.132661
0.13262
0.132577
0.132533
0.132487
0.13244
0.132393
0.132345
0.132297
0.132249
0.132202
0.132156
0.13211
0.132066
0.132023
0.131982
0.131943
0.131905
0.131869
0.131834
0.131802
0.131771
0.131743
0.131716
0.13169
0.131667
0.131644
0.131624
0.131604
0.131586
0.131569
0.131553
0.131538
0.131524
0.13151
0.131497
0.131485
0.131473
0.131462
0.131451
0.13144
0.131429
0.131418
0.131408
0.131398
0.131387
0.131377
0.131366
0.131356
0.131346
0.131335
0.131325
0.131314
0.131304
0.131293
0.131283
0.131272
0.131262
0.131251
0.131241
0.13123
0.13122
0.13121
0.1312
0.13119
0.13118
0.13117
0.131161
0.131152
0.131142
0.131134
0.131125
0.131116
0.131108
0.1311
0.131092
0.131084
0.131077
0.13107
0.131063
0.131056
0.13105
0.131044
0.131038
0.131032
0.131027
0.131022
0.131017
0.131012
0.131008
0.131004
0.131001
0.130997
0.130994
0.130991
0.130989
0.130986
0.130985
0.130983
0.130982
0.130981
0.13098
0.130979
0.130979
0.130979
0.130979
0.13098
0.130981
0.130982
0.130983
0.130985
0.130987
0.13099
0.130992
0.130995
0.130999
0.131002
0.131006
0.13101
0.131014
0.131018
0.131023
0.131028
0.131033
0.131038
0.131044
0.13105
0.131056
0.131063
0.131069
0.131076
0.131083
0.131091
0.131099
0.131107
0.131115
0.131124
0.131134
0.131143
0.131154
0.131164
0.131176
0.131187
0.1312
0.131213
0.131227
0.131242
0.131257
0.131273
0.131291
0.131309
0.131328
0.131348
0.13137
0.131392
0.131416
0.131441
0.131467
0.131495
0.131524
0.131554
0.131585
0.131618
0.131652
0.131687
0.131723
0.131761
0.1318
0.131839
0.13188
0.131921
0.131963
0.132006
0.132049
0.132093
0.132136
0.13218
0.132224
0.132267
0.132309
0.132351
0.132392
0.132432
0.13247
0.132507
0.132541
0.132574
0.132605
0.132633
0.132659
0.132682
0.132703
0.132718
0.132736
0.13274
0.132759
)
;

boundaryField
{
    inlet
    {
        type            calculated;
        value           uniform 0.194831;
    }
    outlet
    {
        type            calculated;
        value           uniform 0.132751;
    }
    emptyWalls
    {
        type            empty;
    }
}


// ************************************************************************* //
