/*--------------------------------*- C++ -*----------------------------------*\
  =========                 |
  \\      /  F ield         | OpenFOAM: The Open Source CFD Toolbox
   \\    /   O peration     | Website:  https://openfoam.org
    \\  /    A nd           | Version:  9
     \\/     M anipulation  |
\*---------------------------------------------------------------------------*/
FoamFile
{
    format      ascii;
    class       volScalarField;
    location    "27200";
    object      Fa;
}
// * * * * * * * * * * * * * * * * * * * * * * * * * * * * * * * * * * * * * //

dimensions      [0 0 0 0 0 0 0];

internalField   nonuniform List<scalar> 
1000
(
0.194835
0.19475
0.194836
0.194738
0.194812
0.194734
0.194765
0.194728
0.19471
0.194691
0.194656
0.194624
0.194596
0.194554
0.194522
0.194486
0.194432
0.19441
0.194328
0.194331
0.194214
0.194247
0.194107
0.194139
0.194018
0.194016
0.193943
0.193916
0.193872
0.193846
0.193809
0.193787
0.193759
0.193736
0.193705
0.193636
0.193381
0.192186
0.183556
0.160503
0.153434
0.150826
0.149836
0.149559
0.149508
0.14946
0.149353
0.149194
0.149008
0.148812
0.148618
0.14843
0.148252
0.148082
0.147919
0.147765
0.14762
0.147479
0.147349
0.147222
0.147103
0.146987
0.14688
0.146775
0.146681
0.146582
0.1465
0.146411
0.146339
0.146256
0.146192
0.146114
0.146053
0.145983
0.145929
0.145868
0.145823
0.145771
0.145736
0.145696
0.14566
0.145621
0.145581
0.14554
0.145499
0.145462
0.145427
0.145397
0.145373
0.145356
0.145344
0.145337
0.145331
0.145324
0.145313
0.145297
0.145274
0.145248
0.145219
0.145195
0.145171
0.145166
0.145179
0.145202
0.145254
0.145339
0.145459
0.14562
0.145817
0.146034
0.14625
0.146454
0.146641
0.14681
0.146965
0.147106
0.14723
0.147328
0.147393
0.147417
0.147395
0.147327
0.147215
0.147064
0.146885
0.146686
0.146477
0.146269
0.146067
0.14588
0.145711
0.145564
0.14544
0.145339
0.14526
0.145201
0.145159
0.145131
0.145113
0.145104
0.145099
0.145097
0.145096
0.145093
0.145088
0.14508
0.145068
0.145053
0.145034
0.145012
0.144987
0.14496
0.144931
0.1449
0.144868
0.144836
0.144802
0.144769
0.144735
0.144702
0.144669
0.144636
0.144603
0.144572
0.14454
0.14451
0.14448
0.144451
0.144423
0.144395
0.144368
0.144343
0.144318
0.144294
0.144271
0.144249
0.144227
0.144206
0.144186
0.144167
0.144149
0.144131
0.144114
0.144098
0.144083
0.144069
0.144057
0.144045
0.144035
0.144026
0.144018
0.14401
0.144003
0.143997
0.14399
0.143984
0.143978
0.143972
0.143967
0.143963
0.143959
0.143957
0.143955
0.143955
0.143956
0.143959
0.143962
0.143965
0.143969
0.143972
0.143974
0.143975
0.143974
0.143972
0.143969
0.143965
0.143962
0.143962
0.143966
0.143976
0.143993
0.14402
0.144058
0.144108
0.144169
0.144243
0.144329
0.144425
0.144531
0.144646
0.144767
0.144893
0.145021
0.145149
0.145273
0.145392
0.145502
0.1456
0.145684
0.14575
0.145797
0.145823
0.145828
0.14581
0.14577
0.14571
0.145632
0.145536
0.145428
0.145309
0.145183
0.145054
0.144924
0.144796
0.144673
0.144556
0.144448
0.144349
0.14426
0.144181
0.144111
0.144051
0.144
0.143956
0.143919
0.143887
0.14386
0.143837
0.143816
0.143797
0.143779
0.143761
0.143744
0.143725
0.143706
0.143686
0.143665
0.143642
0.143619
0.143594
0.143568
0.143541
0.143514
0.143485
0.143456
0.143427
0.143398
0.143368
0.143338
0.143309
0.143279
0.14325
0.143221
0.143192
0.143164
0.143137
0.14311
0.143083
0.143057
0.143032
0.143007
0.142983
0.14296
0.142937
0.142915
0.142893
0.142872
0.142852
0.142832
0.142814
0.142795
0.142778
0.142761
0.142745
0.14273
0.142716
0.142702
0.142689
0.142677
0.142666
0.142655
0.142644
0.142635
0.142626
0.142617
0.142608
0.142601
0.142593
0.142586
0.14258
0.142574
0.14257
0.142565
0.142561
0.142557
0.142555
0.142552
0.142551
0.142548
0.142547
0.142545
0.142544
0.142542
0.142541
0.142538
0.142537
0.142534
0.142534
0.142533
0.142536
0.142538
0.142547
0.142555
0.142571
0.142588
0.142615
0.142643
0.142681
0.142721
0.142773
0.142826
0.142891
0.142957
0.143033
0.143109
0.143195
0.143278
0.143368
0.143454
0.143545
0.143629
0.143715
0.143791
0.143866
0.143929
0.143987
0.144031
0.144068
0.144089
0.144102
0.144098
0.144086
0.144057
0.14402
0.143969
0.14391
0.14384
0.143764
0.14368
0.143594
0.143503
0.143411
0.143318
0.143227
0.143137
0.143051
0.142969
0.142891
0.142818
0.14275
0.142688
0.14263
0.142578
0.14253
0.142487
0.142447
0.142412
0.142379
0.142349
0.142322
0.142296
0.142271
0.142248
0.142225
0.142203
0.142181
0.142159
0.142136
0.142114
0.142091
0.142068
0.142044
0.14202
0.141995
0.14197
0.141944
0.141918
0.141892
0.141866
0.141839
0.141812
0.141786
0.141759
0.141732
0.141706
0.14168
0.141653
0.141628
0.141602
0.141577
0.141552
0.141528
0.141503
0.14148
0.141456
0.141434
0.141412
0.14139
0.141369
0.141349
0.141328
0.141309
0.14129
0.141272
0.141253
0.141237
0.14122
0.141204
0.141188
0.141174
0.141159
0.141146
0.141132
0.14112
0.141107
0.141096
0.141084
0.141074
0.141063
0.141054
0.141044
0.141036
0.141026
0.141019
0.141011
0.141005
0.140997
0.140992
0.140985
0.14098
0.140974
0.14097
0.140965
0.140961
0.140956
0.140953
0.140948
0.140946
0.140942
0.14094
0.140937
0.140936
0.140934
0.140936
0.140936
0.14094
0.140943
0.140951
0.140959
0.140972
0.140985
0.141005
0.141024
0.141051
0.141078
0.141113
0.141147
0.141191
0.141233
0.141285
0.141333
0.141392
0.141447
0.141512
0.14157
0.141639
0.141699
0.141768
0.141828
0.141896
0.141951
0.142014
0.142063
0.142118
0.142157
0.142201
0.142227
0.142258
0.142269
0.142285
0.142281
0.142281
0.14226
0.142245
0.142209
0.142179
0.142128
0.142086
0.142024
0.141972
0.1419
0.141842
0.141765
0.141702
0.141623
0.14156
0.141481
0.14142
0.141343
0.141287
0.141213
0.141163
0.141095
0.141051
0.140988
0.14095
0.140893
0.140862
0.140809
0.140784
0.140735
0.140715
0.140669
0.140653
0.14061
0.140597
0.140556
0.140545
0.140505
0.140495
0.140456
0.140446
0.140408
0.140398
0.14036
0.140349
0.140312
0.1403
0.140263
0.14025
0.140213
0.140199
0.140164
0.140148
0.140113
0.140097
0.140063
0.140045
0.140012
0.139994
0.139962
0.139943
0.139912
0.139893
0.139864
0.139844
0.139816
0.139797
0.139769
0.139751
0.139724
0.139706
0.139681
0.139663
0.139639
0.139623
0.139599
0.139584
0.13956
0.139547
0.139524
0.139512
0.139489
0.139479
0.139456
0.139448
0.139426
0.139419
0.139397
0.139392
0.13937
0.139367
0.139344
0.139344
0.139321
0.139323
0.139299
0.139303
0.139278
0.139286
0.13926
0.139269
0.139243
0.139254
0.139227
0.139241
0.139213
0.139229
0.1392
0.139217
0.139188
0.139207
0.139178
0.139198
0.139169
0.139191
0.139162
0.139186
0.139158
0.139183
0.139157
0.139184
0.139159
0.13919
0.139168
0.139201
0.139182
0.139219
0.139205
0.139246
0.139236
0.139282
0.139277
0.139328
0.139328
0.139385
0.13939
0.139452
0.139462
0.139528
0.139543
0.139614
0.139632
0.139706
0.139726
0.139802
0.139823
0.139899
0.13992
0.139995
0.140014
0.140086
0.140101
0.140168
0.140177
0.140237
0.140239
0.140291
0.140284
0.140327
0.140309
0.140342
0.140313
0.140335
0.140296
0.140307
0.140257
0.140258
0.140198
0.140189
0.140121
0.140104
0.140028
0.140005
0.139924
0.139897
0.139812
0.139782
0.139695
0.139664
0.139577
0.139547
0.139462
0.139433
0.13935
0.139324
0.139244
0.139222
0.139146
0.139127
0.139055
0.13904
0.138971
0.138961
0.138895
0.138888
0.138825
0.138821
0.138761
0.138759
0.138701
0.138701
0.138645
0.138646
0.138591
0.138594
0.13854
0.138543
0.138489
0.138493
0.13844
0.138444
0.138391
0.138395
0.138342
0.138345
0.138292
0.138296
0.138243
0.138247
0.138194
0.138198
0.138145
0.138149
0.138096
0.138101
0.138048
0.138053
0.138
0.138005
0.137953
0.137959
0.137907
0.137913
0.137862
0.137868
0.137818
0.137825
0.137775
0.137783
0.137734
0.137743
0.137694
0.137704
0.137656
0.137667
0.13762
0.137631
0.137585
0.137597
0.137551
0.137564
0.13752
0.137534
0.13749
0.137505
0.137462
0.137477
0.137435
0.137451
0.13741
0.137427
0.137386
0.137404
0.137364
0.137382
0.137343
0.137362
0.137324
0.137344
0.137305
0.137326
0.137288
0.13731
0.137273
0.137295
0.137258
0.137281
0.137245
0.137268
0.137233
0.137257
0.137223
0.137247
0.137214
0.13724
0.137208
0.137235
0.137204
0.137233
0.137204
0.137235
0.137207
0.137241
0.137216
0.137251
0.137229
0.137268
0.137249
0.137291
0.137275
0.137321
0.137308
0.137357
0.137349
0.137401
0.137396
0.137453
0.137451
0.13751
0.137511
0.137574
0.137577
0.137642
0.137647
0.137713
0.13772
0.137786
0.137792
0.137859
0.137864
0.13793
0.137934
0.137999
0.137999
0.138061
0.138053
0.138111
0.138098
0.138151
0.138132
0.138178
0.138152
0.138192
0.138158
0.138191
0.138148
0.138175
0.138123
0.138143
0.138083
0.138097
0.138029
0.138037
0.137961
0.137965
0.137882
0.137883
0.137794
0.137793
0.137699
0.137697
0.1376
0.137597
0.137498
0.137497
0.137395
0.137396
0.137294
0.137298
0.137195
0.137203
0.137101
0.137112
0.137011
0.137026
0.136927
0.136945
0.136847
0.136868
0.136773
0.136797
0.136703
0.136729
0.136637
0.136666
0.136575
0.136606
0.136515
0.136549
0.136459
0.136494
0.136404
0.13644
0.136351
0.136388
0.136299
0.136337
0.136247
0.136287
0.136196
0.136237
0.136146
0.136187
0.136096
0.136137
0.136046
0.136088
0.135996
0.136039
0.135947
0.13599
0.135898
0.135942
0.135849
0.135894
0.1358
0.135847
0.135752
0.135801
0.135704
0.135756
0.135657
0.135712
0.135613
0.135667
0.135569
0.135623
0.135527
0.135581
0.135485
0.13554
0.135445
0.1355
0.135407
0.135461
0.135369
0.135424
0.135333
0.135388
0.135298
0.135354
0.135264
0.135321
0.135232
0.135289
0.135201
0.135259
0.135171
0.13523
0.135142
0.135203
0.135114
0.135177
0.135087
0.135152
0.135062
0.135129
0.135037
0.135106
0.135014
0.135085
0.134991
0.135065
0.13497
0.135046
0.13495
0.135028
0.134932
0.135011
0.134914
0.134996
0.134899
0.134982
0.134885
0.134971
0.134874
0.134961
0.134757
0.98112
)
;

boundaryField
{
    inlet
    {
        type            calculated;
        value           uniform 0.194831;
    }
    outlet
    {
        type            calculated;
        value           uniform 0.0253858;
    }
    emptyWalls
    {
        type            empty;
    }
}


// ************************************************************************* //
