/*--------------------------------*- C++ -*----------------------------------*\
  =========                 |
  \\      /  F ield         | OpenFOAM: The Open Source CFD Toolbox
   \\    /   O peration     | Website:  https://openfoam.org
    \\  /    A nd           | Version:  9
     \\/     M anipulation  |
\*---------------------------------------------------------------------------*/
FoamFile
{
    format      ascii;
    class       surfaceScalarField;
    location    "27200";
    object      phia;
}
// * * * * * * * * * * * * * * * * * * * * * * * * * * * * * * * * * * * * * //

dimensions      [0 2 0 0 0 0 0];

internalField   nonuniform List<scalar> 
999
(
2.74872e-10
2.74873e-10
2.74864e-10
2.74847e-10
2.74844e-10
2.74812e-10
2.74807e-10
2.74768e-10
2.74742e-10
2.74703e-10
2.74656e-10
2.74614e-10
2.74565e-10
2.74512e-10
2.74464e-10
2.74401e-10
2.74347e-10
2.74274e-10
2.74218e-10
2.74138e-10
2.74079e-10
2.74003e-10
2.73927e-10
2.73864e-10
2.73778e-10
2.73725e-10
2.73654e-10
2.73604e-10
2.73554e-10
2.7351e-10
2.73468e-10
2.73433e-10
2.73397e-10
2.73359e-10
2.73288e-10
2.73058e-10
2.7219e-10
2.68333e-10
2.47751e-10
2.21031e-10
2.14633e-10
2.12126e-10
2.11238e-10
2.11007e-10
2.10937e-10
2.10827e-10
2.1064e-10
2.10396e-10
2.10126e-10
2.09851e-10
2.09582e-10
2.09324e-10
2.09078e-10
2.08843e-10
2.0862e-10
2.08409e-10
2.08207e-10
2.08016e-10
2.07835e-10
2.07661e-10
2.07496e-10
2.07338e-10
2.07188e-10
2.07048e-10
2.06911e-10
2.06784e-10
2.06663e-10
2.0655e-10
2.0644e-10
2.06337e-10
2.06236e-10
2.06138e-10
2.06046e-10
2.05958e-10
2.05877e-10
2.05803e-10
2.05735e-10
2.05673e-10
2.05618e-10
2.05566e-10
2.05513e-10
2.05458e-10
2.054e-10
2.05343e-10
2.05288e-10
2.05237e-10
2.05191e-10
2.05153e-10
2.05124e-10
2.05103e-10
2.0509e-10
2.0508e-10
2.05071e-10
2.05059e-10
2.05039e-10
2.05012e-10
2.04978e-10
2.04939e-10
2.04902e-10
2.04868e-10
2.04847e-10
2.04853e-10
2.04878e-10
2.04931e-10
2.05028e-10
2.05173e-10
2.05371e-10
2.05624e-10
2.05915e-10
2.06221e-10
2.06518e-10
2.06793e-10
2.07044e-10
2.07273e-10
2.07482e-10
2.07669e-10
2.07825e-10
2.07941e-10
2.08004e-10
2.08005e-10
2.07941e-10
2.07814e-10
2.07629e-10
2.07396e-10
2.07129e-10
2.06842e-10
2.06547e-10
2.06258e-10
2.05983e-10
2.05732e-10
2.0551e-10
2.05318e-10
2.0516e-10
2.05033e-10
2.04935e-10
2.04863e-10
2.04814e-10
2.04782e-10
2.04763e-10
2.04753e-10
2.04748e-10
2.04746e-10
2.04743e-10
2.04737e-10
2.04728e-10
2.04714e-10
2.04695e-10
2.04671e-10
2.04642e-10
2.04609e-10
2.04572e-10
2.04533e-10
2.04491e-10
2.04446e-10
2.04401e-10
2.04354e-10
2.04307e-10
2.0426e-10
2.04212e-10
2.04165e-10
2.04119e-10
2.04073e-10
2.04028e-10
2.03983e-10
2.03939e-10
2.03897e-10
2.03855e-10
2.03815e-10
2.03775e-10
2.03737e-10
2.037e-10
2.03664e-10
2.0363e-10
2.03597e-10
2.03565e-10
2.03534e-10
2.03504e-10
2.03476e-10
2.03448e-10
2.03421e-10
2.03395e-10
2.03371e-10
2.03348e-10
2.03326e-10
2.03306e-10
2.03287e-10
2.0327e-10
2.03255e-10
2.03241e-10
2.03229e-10
2.03218e-10
2.03208e-10
2.03198e-10
2.03189e-10
2.0318e-10
2.03172e-10
2.03163e-10
2.03156e-10
2.03149e-10
2.03143e-10
2.03139e-10
2.03136e-10
2.03135e-10
2.03136e-10
2.03138e-10
2.03142e-10
2.03147e-10
2.03152e-10
2.03156e-10
2.0316e-10
2.03162e-10
2.03162e-10
2.0316e-10
2.03156e-10
2.03151e-10
2.03147e-10
2.03145e-10
2.03147e-10
2.03157e-10
2.03176e-10
2.03208e-10
2.03254e-10
2.03316e-10
2.03394e-10
2.03489e-10
2.03602e-10
2.0373e-10
2.03873e-10
2.04029e-10
2.04195e-10
2.0437e-10
2.04549e-10
2.04729e-10
2.04907e-10
2.05079e-10
2.0524e-10
2.05387e-10
2.05515e-10
2.05621e-10
2.05701e-10
2.05753e-10
2.05774e-10
2.05765e-10
2.05724e-10
2.05654e-10
2.05556e-10
2.05434e-10
2.0529e-10
2.0513e-10
2.04957e-10
2.04777e-10
2.04594e-10
2.04412e-10
2.04234e-10
2.04065e-10
2.03907e-10
2.03761e-10
2.03628e-10
2.03509e-10
2.03404e-10
2.03313e-10
2.03234e-10
2.03167e-10
2.0311e-10
2.03062e-10
2.0302e-10
2.02985e-10
2.02954e-10
2.02925e-10
2.02899e-10
2.02874e-10
2.02849e-10
2.02824e-10
2.02797e-10
2.0277e-10
2.02741e-10
2.0271e-10
2.02677e-10
2.02643e-10
2.02607e-10
2.0257e-10
2.02532e-10
2.02492e-10
2.02452e-10
2.02411e-10
2.02369e-10
2.02328e-10
2.02286e-10
2.02244e-10
2.02202e-10
2.02161e-10
2.0212e-10
2.02079e-10
2.02039e-10
2.02e-10
2.01961e-10
2.01923e-10
2.01886e-10
2.0185e-10
2.01815e-10
2.0178e-10
2.01747e-10
2.01714e-10
2.01682e-10
2.01652e-10
2.01622e-10
2.01593e-10
2.01565e-10
2.01538e-10
2.01511e-10
2.01486e-10
2.01462e-10
2.01439e-10
2.01417e-10
2.01397e-10
2.01377e-10
2.01358e-10
2.0134e-10
2.01324e-10
2.01308e-10
2.01293e-10
2.01279e-10
2.01265e-10
2.01253e-10
2.01241e-10
2.01229e-10
2.01219e-10
2.01209e-10
2.01199e-10
2.01191e-10
2.01183e-10
2.01177e-10
2.01171e-10
2.01165e-10
2.01161e-10
2.01157e-10
2.01154e-10
2.01152e-10
2.01149e-10
2.01147e-10
2.01145e-10
2.01142e-10
2.0114e-10
2.01137e-10
2.01134e-10
2.01131e-10
2.0113e-10
2.01129e-10
2.0113e-10
2.01134e-10
2.01142e-10
2.01154e-10
2.01171e-10
2.01195e-10
2.01225e-10
2.01263e-10
2.0131e-10
2.01366e-10
2.01431e-10
2.01505e-10
2.01588e-10
2.0168e-10
2.0178e-10
2.01887e-10
2.02001e-10
2.0212e-10
2.02243e-10
2.02368e-10
2.02493e-10
2.02616e-10
2.02736e-10
2.0285e-10
2.02957e-10
2.03053e-10
2.03139e-10
2.03211e-10
2.03268e-10
2.03309e-10
2.03333e-10
2.0334e-10
2.03328e-10
2.03299e-10
2.03253e-10
2.0319e-10
2.03113e-10
2.03022e-10
2.02919e-10
2.02806e-10
2.02686e-10
2.02561e-10
2.02432e-10
2.02301e-10
2.02172e-10
2.02044e-10
2.0192e-10
2.01802e-10
2.01689e-10
2.01582e-10
2.01483e-10
2.01391e-10
2.01306e-10
2.01228e-10
2.01158e-10
2.01094e-10
2.01035e-10
2.00982e-10
2.00934e-10
2.0089e-10
2.00849e-10
2.00812e-10
2.00776e-10
2.00742e-10
2.0071e-10
2.00678e-10
2.00647e-10
2.00616e-10
2.00584e-10
2.00553e-10
2.00521e-10
2.00488e-10
2.00455e-10
2.00421e-10
2.00387e-10
2.00351e-10
2.00316e-10
2.00279e-10
2.00243e-10
2.00205e-10
2.00168e-10
2.0013e-10
2.00093e-10
2.00055e-10
2.00017e-10
1.9998e-10
1.99942e-10
1.99905e-10
1.99869e-10
1.99832e-10
1.99797e-10
1.99761e-10
1.99727e-10
1.99692e-10
1.99659e-10
1.99626e-10
1.99594e-10
1.99562e-10
1.99531e-10
1.99501e-10
1.99471e-10
1.99443e-10
1.99415e-10
1.99388e-10
1.99361e-10
1.99336e-10
1.99311e-10
1.99287e-10
1.99264e-10
1.99242e-10
1.9922e-10
1.992e-10
1.9918e-10
1.99161e-10
1.99142e-10
1.99125e-10
1.99108e-10
1.99092e-10
1.99076e-10
1.99061e-10
1.99047e-10
1.99034e-10
1.99021e-10
1.99009e-10
1.98997e-10
1.98986e-10
1.98976e-10
1.98966e-10
1.98957e-10
1.98948e-10
1.9894e-10
1.98933e-10
1.98926e-10
1.98919e-10
1.98913e-10
1.98907e-10
1.98901e-10
1.98896e-10
1.98891e-10
1.98886e-10
1.98882e-10
1.98878e-10
1.98875e-10
1.98874e-10
1.98873e-10
1.98874e-10
1.98877e-10
1.98882e-10
1.9889e-10
1.98901e-10
1.98916e-10
1.98935e-10
1.98958e-10
1.98985e-10
1.99018e-10
1.99056e-10
1.991e-10
1.99149e-10
1.99204e-10
1.99264e-10
1.9933e-10
1.99401e-10
1.99477e-10
1.99557e-10
1.99641e-10
1.99728e-10
1.99818e-10
1.99909e-10
2e-10
2.00092e-10
2.00181e-10
2.00268e-10
2.00352e-10
2.00431e-10
2.00504e-10
2.0057e-10
2.00628e-10
2.00678e-10
2.00718e-10
2.00748e-10
2.00767e-10
2.00775e-10
2.00772e-10
2.00758e-10
2.00733e-10
2.00696e-10
2.00649e-10
2.00593e-10
2.00527e-10
2.00454e-10
2.00373e-10
2.00286e-10
2.00194e-10
2.00098e-10
2e-10
1.999e-10
1.998e-10
1.99699e-10
1.99601e-10
1.99504e-10
1.99409e-10
1.99318e-10
1.99231e-10
1.99147e-10
1.99068e-10
1.98992e-10
1.98921e-10
1.98854e-10
1.98792e-10
1.98733e-10
1.98678e-10
1.98626e-10
1.98577e-10
1.98531e-10
1.98487e-10
1.98446e-10
1.98406e-10
1.98368e-10
1.98331e-10
1.98295e-10
1.9826e-10
1.98225e-10
1.98191e-10
1.98157e-10
1.98123e-10
1.98089e-10
1.98054e-10
1.9802e-10
1.97986e-10
1.97951e-10
1.97916e-10
1.97881e-10
1.97845e-10
1.9781e-10
1.97774e-10
1.97738e-10
1.97702e-10
1.97666e-10
1.9763e-10
1.97594e-10
1.97558e-10
1.97523e-10
1.97487e-10
1.97452e-10
1.97417e-10
1.97382e-10
1.97348e-10
1.97314e-10
1.97281e-10
1.97248e-10
1.97215e-10
1.97183e-10
1.97152e-10
1.97121e-10
1.97091e-10
1.97062e-10
1.97033e-10
1.97004e-10
1.96977e-10
1.9695e-10
1.96924e-10
1.96898e-10
1.96873e-10
1.96849e-10
1.96826e-10
1.96803e-10
1.96781e-10
1.96759e-10
1.96739e-10
1.96718e-10
1.96699e-10
1.9668e-10
1.96663e-10
1.96645e-10
1.96629e-10
1.96612e-10
1.96597e-10
1.96582e-10
1.96568e-10
1.96553e-10
1.96541e-10
1.96528e-10
1.96516e-10
1.96504e-10
1.96494e-10
1.96483e-10
1.96473e-10
1.96463e-10
1.96454e-10
1.96445e-10
1.96437e-10
1.96429e-10
1.96422e-10
1.96415e-10
1.96408e-10
1.96402e-10
1.96397e-10
1.96392e-10
1.96388e-10
1.96385e-10
1.96383e-10
1.96383e-10
1.96383e-10
1.96385e-10
1.96389e-10
1.96395e-10
1.96403e-10
1.96413e-10
1.96426e-10
1.96442e-10
1.96461e-10
1.96483e-10
1.96509e-10
1.96537e-10
1.9657e-10
1.96606e-10
1.96646e-10
1.9669e-10
1.96737e-10
1.96788e-10
1.96842e-10
1.96899e-10
1.96959e-10
1.97022e-10
1.97086e-10
1.97153e-10
1.97221e-10
1.97289e-10
1.97358e-10
1.97427e-10
1.97495e-10
1.97561e-10
1.97625e-10
1.97686e-10
1.97744e-10
1.97797e-10
1.97846e-10
1.9789e-10
1.97928e-10
1.97959e-10
1.97985e-10
1.98002e-10
1.98013e-10
1.98016e-10
1.98012e-10
1.97999e-10
1.97979e-10
1.97952e-10
1.97917e-10
1.97876e-10
1.97827e-10
1.97773e-10
1.97713e-10
1.97648e-10
1.97578e-10
1.97504e-10
1.97428e-10
1.97349e-10
1.97267e-10
1.97185e-10
1.97102e-10
1.97019e-10
1.96936e-10
1.96855e-10
1.96774e-10
1.96695e-10
1.96619e-10
1.96544e-10
1.96472e-10
1.96403e-10
1.96336e-10
1.96271e-10
1.9621e-10
1.96151e-10
1.96095e-10
1.96041e-10
1.9599e-10
1.9594e-10
1.95893e-10
1.95848e-10
1.95804e-10
1.95762e-10
1.95721e-10
1.95681e-10
1.95643e-10
1.95605e-10
1.95568e-10
1.95532e-10
1.95496e-10
1.9546e-10
1.95425e-10
1.9539e-10
1.95355e-10
1.9532e-10
1.95286e-10
1.95251e-10
1.95217e-10
1.95182e-10
1.95147e-10
1.95113e-10
1.95078e-10
1.95043e-10
1.95009e-10
1.94974e-10
1.9494e-10
1.94905e-10
1.94871e-10
1.94837e-10
1.94803e-10
1.94769e-10
1.94736e-10
1.94702e-10
1.94669e-10
1.94637e-10
1.94605e-10
1.94573e-10
1.94541e-10
1.9451e-10
1.9448e-10
1.9445e-10
1.9442e-10
1.94391e-10
1.94363e-10
1.94335e-10
1.94307e-10
1.9428e-10
1.94254e-10
1.94228e-10
1.94203e-10
1.94178e-10
1.94154e-10
1.94131e-10
1.94108e-10
1.94086e-10
1.94064e-10
1.94043e-10
1.94022e-10
1.94002e-10
1.93983e-10
1.93964e-10
1.93946e-10
1.93928e-10
1.93911e-10
1.93894e-10
1.93878e-10
1.93862e-10
1.93847e-10
1.93833e-10
1.93818e-10
1.93805e-10
1.93791e-10
1.93779e-10
1.93766e-10
1.93754e-10
1.93743e-10
1.93732e-10
1.93721e-10
1.93711e-10
1.93701e-10
1.93692e-10
1.93683e-10
1.93674e-10
1.93666e-10
1.93659e-10
1.93652e-10
1.93646e-10
1.93641e-10
1.93637e-10
1.93633e-10
1.9363e-10
1.93629e-10
1.93629e-10
1.9363e-10
1.93633e-10
1.93637e-10
1.93643e-10
1.9365e-10
1.9366e-10
1.93672e-10
1.93685e-10
1.93702e-10
1.9372e-10
1.93741e-10
1.93764e-10
1.9379e-10
1.93819e-10
1.9385e-10
1.93884e-10
1.9392e-10
1.93958e-10
1.93999e-10
1.94042e-10
1.94086e-10
1.94133e-10
1.94181e-10
1.94231e-10
1.94281e-10
1.94332e-10
1.94383e-10
1.94434e-10
1.94486e-10
1.94537e-10
1.94587e-10
1.94637e-10
1.94685e-10
1.94732e-10
1.94774e-10
1.94812e-10
1.94848e-10
1.94879e-10
1.94908e-10
1.94931e-10
1.94951e-10
1.94965e-10
1.94975e-10
1.94979e-10
1.94978e-10
1.94972e-10
1.9496e-10
1.94942e-10
1.9492e-10
1.94892e-10
1.94859e-10
1.9482e-10
1.94778e-10
1.9473e-10
1.9468e-10
1.94624e-10
1.94566e-10
1.94504e-10
1.9444e-10
1.94373e-10
1.94306e-10
1.94235e-10
1.94165e-10
1.94093e-10
1.94022e-10
1.9395e-10
1.93879e-10
1.93808e-10
1.93738e-10
1.93669e-10
1.93602e-10
1.93535e-10
1.93471e-10
1.93408e-10
1.93347e-10
1.93287e-10
1.9323e-10
1.93174e-10
1.9312e-10
1.93067e-10
1.93017e-10
1.92967e-10
1.9292e-10
1.92874e-10
1.92829e-10
1.92785e-10
1.92743e-10
1.92701e-10
1.9266e-10
1.9262e-10
1.92582e-10
1.92543e-10
1.92505e-10
1.92468e-10
1.92431e-10
1.92394e-10
1.92358e-10
1.92322e-10
1.92286e-10
1.92251e-10
1.92215e-10
1.9218e-10
1.92145e-10
1.92109e-10
1.92074e-10
1.92039e-10
1.92004e-10
1.91969e-10
1.91934e-10
1.919e-10
1.91865e-10
1.91831e-10
1.91796e-10
1.91762e-10
1.91728e-10
1.91694e-10
1.91661e-10
1.91627e-10
1.91594e-10
1.91561e-10
1.91529e-10
1.91496e-10
1.91464e-10
1.91433e-10
1.91401e-10
1.91371e-10
1.9134e-10
1.9131e-10
1.9128e-10
1.91251e-10
1.91222e-10
1.91194e-10
1.91165e-10
1.91138e-10
1.91111e-10
1.91084e-10
1.91058e-10
1.91033e-10
1.91007e-10
1.90983e-10
1.90958e-10
1.90935e-10
1.90911e-10
1.90889e-10
1.90866e-10
1.90844e-10
1.90823e-10
1.90802e-10
1.90782e-10
1.90761e-10
1.90742e-10
1.90722e-10
1.90704e-10
1.90685e-10
1.90668e-10
1.9065e-10
1.90633e-10
1.90616e-10
1.906e-10
1.90583e-10
1.90568e-10
1.90552e-10
1.90538e-10
1.90523e-10
1.9051e-10
1.90496e-10
1.90483e-10
1.9047e-10
1.90458e-10
1.90446e-10
1.90435e-10
1.90424e-10
1.90415e-10
1.90405e-10
1.90397e-10
1.90389e-10
1.90382e-10
1.90376e-10
1.90371e-10
)
;

boundaryField
{
    inlet
    {
        type            calculated;
        value           uniform -2.74882e-10;
    }
    outlet
    {
        type            calculated;
        value           uniform 3.58219e-11;
    }
    emptyWalls
    {
        type            empty;
        value           nonuniform List<scalar> 0();
    }
}


// ************************************************************************* //
