/*--------------------------------*- C++ -*----------------------------------*\
  =========                 |
  \\      /  F ield         | OpenFOAM: The Open Source CFD Toolbox
   \\    /   O peration     | Website:  https://openfoam.org
    \\  /    A nd           | Version:  9
     \\/     M anipulation  |
\*---------------------------------------------------------------------------*/
FoamFile
{
    format      ascii;
    class       volVectorField;
    location    "15950";
    object      Uc;
}
// * * * * * * * * * * * * * * * * * * * * * * * * * * * * * * * * * * * * * //

dimensions      [0 0 0 0 0 0 0];

internalField   nonuniform List<vector> 
1000
(
(1.08758e-11 0 0)
(5.81454e-11 0 0)
(1.6165e-10 0 0)
(3.24228e-10 0 0)
(5.42752e-10 0 0)
(8.15827e-10 0 0)
(1.14204e-09 0 0)
(1.51894e-09 0 0)
(1.94211e-09 0 0)
(2.40485e-09 0 0)
(2.89733e-09 0 0)
(3.40714e-09 0 0)
(3.9197e-09 0 0)
(4.41973e-09 0 0)
(4.89347e-09 0 0)
(5.33059e-09 0 0)
(5.72889e-09 0 0)
(6.11079e-09 0 0)
(6.60753e-09 0 0)
(7.84654e-09 0 0)
(1.21757e-08 0 0)
(3.10343e-08 0 0)
(1.08572e-07 0 0)
(1.87201e-07 0 0)
(2.08595e-07 0 0)
(2.15732e-07 0 0)
(2.19527e-07 0 0)
(2.22178e-07 0 0)
(2.24314e-07 0 0)
(2.26171e-07 0 0)
(2.27855e-07 0 0)
(2.29421e-07 0 0)
(2.30897e-07 0 0)
(2.32305e-07 0 0)
(2.33654e-07 0 0)
(2.34954e-07 0 0)
(2.36213e-07 0 0)
(2.37437e-07 0 0)
(2.38631e-07 0 0)
(2.39803e-07 0 0)
(2.40959e-07 0 0)
(2.42104e-07 0 0)
(2.43244e-07 0 0)
(2.44386e-07 0 0)
(2.45535e-07 0 0)
(2.46697e-07 0 0)
(2.47879e-07 0 0)
(2.49105e-07 0 0)
(2.50381e-07 0 0)
(2.51697e-07 0 0)
(2.53053e-07 0 0)
(2.54456e-07 0 0)
(2.55916e-07 0 0)
(2.57446e-07 0 0)
(2.59067e-07 0 0)
(2.60808e-07 0 0)
(2.62713e-07 0 0)
(2.64841e-07 0 0)
(2.67271e-07 0 0)
(2.70099e-07 0 0)
(2.73415e-07 0 0)
(2.7727e-07 0 0)
(2.81647e-07 0 0)
(2.86458e-07 0 0)
(2.91588e-07 0 0)
(2.96948e-07 0 0)
(3.02475e-07 0 0)
(3.08132e-07 0 0)
(3.13893e-07 0 0)
(3.19739e-07 0 0)
(3.25658e-07 0 0)
(3.31638e-07 0 0)
(3.37673e-07 0 0)
(3.43759e-07 0 0)
(3.49892e-07 0 0)
(3.56074e-07 0 0)
(3.62304e-07 0 0)
(3.68583e-07 0 0)
(3.7491e-07 0 0)
(3.81284e-07 0 0)
(3.87702e-07 0 0)
(3.94159e-07 0 0)
(4.0065e-07 0 0)
(4.0717e-07 0 0)
(4.13713e-07 0 0)
(4.20273e-07 0 0)
(4.26848e-07 0 0)
(4.33432e-07 0 0)
(4.40025e-07 0 0)
(4.46624e-07 0 0)
(4.53229e-07 0 0)
(4.59839e-07 0 0)
(4.66457e-07 0 0)
(4.73083e-07 0 0)
(4.79718e-07 0 0)
(4.86364e-07 0 0)
(4.93022e-07 0 0)
(4.99694e-07 0 0)
(5.06382e-07 0 0)
(5.13085e-07 0 0)
(5.19804e-07 0 0)
(5.2654e-07 0 0)
(5.33292e-07 0 0)
(5.40062e-07 0 0)
(5.46847e-07 0 0)
(5.53649e-07 0 0)
(5.60466e-07 0 0)
(5.67298e-07 0 0)
(5.74145e-07 0 0)
(5.81007e-07 0 0)
(5.87882e-07 0 0)
(5.94771e-07 0 0)
(6.01673e-07 0 0)
(6.08588e-07 0 0)
(6.15515e-07 0 0)
(6.22455e-07 0 0)
(6.29407e-07 0 0)
(6.36371e-07 0 0)
(6.43347e-07 0 0)
(6.50334e-07 0 0)
(6.57332e-07 0 0)
(6.64342e-07 0 0)
(6.71363e-07 0 0)
(6.78396e-07 0 0)
(6.85438e-07 0 0)
(6.92492e-07 0 0)
(6.99556e-07 0 0)
(7.06631e-07 0 0)
(7.13716e-07 0 0)
(7.20811e-07 0 0)
(7.27917e-07 0 0)
(7.35032e-07 0 0)
(7.42158e-07 0 0)
(7.49293e-07 0 0)
(7.56439e-07 0 0)
(7.63593e-07 0 0)
(7.70758e-07 0 0)
(7.77932e-07 0 0)
(7.85115e-07 0 0)
(7.92308e-07 0 0)
(7.99509e-07 0 0)
(8.0672e-07 0 0)
(8.13941e-07 0 0)
(8.2117e-07 0 0)
(8.28408e-07 0 0)
(8.35655e-07 0 0)
(8.42911e-07 0 0)
(8.50175e-07 0 0)
(8.57449e-07 0 0)
(8.6473e-07 0 0)
(8.72021e-07 0 0)
(8.79319e-07 0 0)
(8.86626e-07 0 0)
(8.93941e-07 0 0)
(9.01265e-07 0 0)
(9.08597e-07 0 0)
(9.15937e-07 0 0)
(9.23285e-07 0 0)
(9.30641e-07 0 0)
(9.38006e-07 0 0)
(9.45379e-07 0 0)
(9.52761e-07 0 0)
(9.60152e-07 0 0)
(9.67551e-07 0 0)
(9.74958e-07 0 0)
(9.82375e-07 0 0)
(9.89799e-07 0 0)
(9.97231e-07 0 0)
(1.00467e-06 0 0)
(1.01212e-06 0 0)
(1.01958e-06 0 0)
(1.02704e-06 0 0)
(1.03451e-06 0 0)
(1.04199e-06 0 0)
(1.04948e-06 0 0)
(1.05697e-06 0 0)
(1.06448e-06 0 0)
(1.07199e-06 0 0)
(1.07951e-06 0 0)
(1.08704e-06 0 0)
(1.09458e-06 0 0)
(1.10212e-06 0 0)
(1.10966e-06 0 0)
(1.11721e-06 0 0)
(1.12476e-06 0 0)
(1.13231e-06 0 0)
(1.13985e-06 0 0)
(1.14739e-06 0 0)
(1.15493e-06 0 0)
(1.16247e-06 0 0)
(1.16999e-06 0 0)
(1.17752e-06 0 0)
(1.18504e-06 0 0)
(1.19255e-06 0 0)
(1.20007e-06 0 0)
(1.20759e-06 0 0)
(1.21511e-06 0 0)
(1.22263e-06 0 0)
(1.23017e-06 0 0)
(1.23771e-06 0 0)
(1.24528e-06 0 0)
(1.25286e-06 0 0)
(1.26047e-06 0 0)
(1.2681e-06 0 0)
(1.27577e-06 0 0)
(1.28347e-06 0 0)
(1.2912e-06 0 0)
(1.29898e-06 0 0)
(1.30678e-06 0 0)
(1.31463e-06 0 0)
(1.32251e-06 0 0)
(1.33042e-06 0 0)
(1.33836e-06 0 0)
(1.34633e-06 0 0)
(1.35432e-06 0 0)
(1.36232e-06 0 0)
(1.37034e-06 0 0)
(1.37836e-06 0 0)
(1.38639e-06 0 0)
(1.39442e-06 0 0)
(1.40244e-06 0 0)
(1.41046e-06 0 0)
(1.41847e-06 0 0)
(1.42648e-06 0 0)
(1.43448e-06 0 0)
(1.44248e-06 0 0)
(1.45047e-06 0 0)
(1.45845e-06 0 0)
(1.46643e-06 0 0)
(1.47441e-06 0 0)
(1.48239e-06 0 0)
(1.49037e-06 0 0)
(1.49836e-06 0 0)
(1.50635e-06 0 0)
(1.51434e-06 0 0)
(1.52234e-06 0 0)
(1.53035e-06 0 0)
(1.53837e-06 0 0)
(1.5464e-06 0 0)
(1.55444e-06 0 0)
(1.56249e-06 0 0)
(1.57055e-06 0 0)
(1.57862e-06 0 0)
(1.58671e-06 0 0)
(1.5948e-06 0 0)
(1.6029e-06 0 0)
(1.61102e-06 0 0)
(1.61915e-06 0 0)
(1.62728e-06 0 0)
(1.63543e-06 0 0)
(1.64359e-06 0 0)
(1.65175e-06 0 0)
(1.65993e-06 0 0)
(1.66812e-06 0 0)
(1.67631e-06 0 0)
(1.68452e-06 0 0)
(1.69273e-06 0 0)
(1.70095e-06 0 0)
(1.70918e-06 0 0)
(1.71742e-06 0 0)
(1.72567e-06 0 0)
(1.73393e-06 0 0)
(1.74219e-06 0 0)
(1.75047e-06 0 0)
(1.75875e-06 0 0)
(1.76704e-06 0 0)
(1.77534e-06 0 0)
(1.78365e-06 0 0)
(1.79196e-06 0 0)
(1.80029e-06 0 0)
(1.80862e-06 0 0)
(1.81696e-06 0 0)
(1.82531e-06 0 0)
(1.83367e-06 0 0)
(1.84203e-06 0 0)
(1.85041e-06 0 0)
(1.85879e-06 0 0)
(1.86718e-06 0 0)
(1.87558e-06 0 0)
(1.88398e-06 0 0)
(1.8924e-06 0 0)
(1.90082e-06 0 0)
(1.90925e-06 0 0)
(1.91769e-06 0 0)
(1.92614e-06 0 0)
(1.9346e-06 0 0)
(1.94306e-06 0 0)
(1.95153e-06 0 0)
(1.96002e-06 0 0)
(1.96851e-06 0 0)
(1.977e-06 0 0)
(1.98551e-06 0 0)
(1.99403e-06 0 0)
(2.00255e-06 0 0)
(2.01108e-06 0 0)
(2.01962e-06 0 0)
(2.02817e-06 0 0)
(2.03673e-06 0 0)
(2.04529e-06 0 0)
(2.05387e-06 0 0)
(2.06245e-06 0 0)
(2.07104e-06 0 0)
(2.07965e-06 0 0)
(2.08826e-06 0 0)
(2.09688e-06 0 0)
(2.1055e-06 0 0)
(2.11414e-06 0 0)
(2.12279e-06 0 0)
(2.13145e-06 0 0)
(2.14011e-06 0 0)
(2.14879e-06 0 0)
(2.15748e-06 0 0)
(2.16617e-06 0 0)
(2.17487e-06 0 0)
(2.18359e-06 0 0)
(2.19231e-06 0 0)
(2.20105e-06 0 0)
(2.20979e-06 0 0)
(2.21854e-06 0 0)
(2.2273e-06 0 0)
(2.23608e-06 0 0)
(2.24486e-06 0 0)
(2.25365e-06 0 0)
(2.26245e-06 0 0)
(2.27126e-06 0 0)
(2.28007e-06 0 0)
(2.2889e-06 0 0)
(2.29772e-06 0 0)
(2.30656e-06 0 0)
(2.3154e-06 0 0)
(2.32424e-06 0 0)
(2.33308e-06 0 0)
(2.34193e-06 0 0)
(2.35078e-06 0 0)
(2.35962e-06 0 0)
(2.36847e-06 0 0)
(2.37731e-06 0 0)
(2.38615e-06 0 0)
(2.39499e-06 0 0)
(2.40382e-06 0 0)
(2.41265e-06 0 0)
(2.42149e-06 0 0)
(2.43032e-06 0 0)
(2.43915e-06 0 0)
(2.44799e-06 0 0)
(2.45683e-06 0 0)
(2.46567e-06 0 0)
(2.47453e-06 0 0)
(2.4834e-06 0 0)
(2.49228e-06 0 0)
(2.50119e-06 0 0)
(2.51011e-06 0 0)
(2.51906e-06 0 0)
(2.52804e-06 0 0)
(2.53705e-06 0 0)
(2.5461e-06 0 0)
(2.55518e-06 0 0)
(2.5643e-06 0 0)
(2.57346e-06 0 0)
(2.58267e-06 0 0)
(2.59192e-06 0 0)
(2.60121e-06 0 0)
(2.61054e-06 0 0)
(2.61992e-06 0 0)
(2.62934e-06 0 0)
(2.63879e-06 0 0)
(2.64828e-06 0 0)
(2.6578e-06 0 0)
(2.66735e-06 0 0)
(2.67693e-06 0 0)
(2.68653e-06 0 0)
(2.69614e-06 0 0)
(2.70577e-06 0 0)
(2.71541e-06 0 0)
(2.72505e-06 0 0)
(2.73471e-06 0 0)
(2.74436e-06 0 0)
(2.75402e-06 0 0)
(2.76368e-06 0 0)
(2.77333e-06 0 0)
(2.78299e-06 0 0)
(2.79264e-06 0 0)
(2.8023e-06 0 0)
(2.81195e-06 0 0)
(2.82161e-06 0 0)
(2.83127e-06 0 0)
(2.84093e-06 0 0)
(2.85059e-06 0 0)
(2.86026e-06 0 0)
(2.86994e-06 0 0)
(2.87962e-06 0 0)
(2.88932e-06 0 0)
(2.89902e-06 0 0)
(2.90874e-06 0 0)
(2.91846e-06 0 0)
(2.92821e-06 0 0)
(2.93796e-06 0 0)
(2.94773e-06 0 0)
(2.95752e-06 0 0)
(2.96733e-06 0 0)
(2.97715e-06 0 0)
(2.98699e-06 0 0)
(2.99684e-06 0 0)
(3.00671e-06 0 0)
(3.01661e-06 0 0)
(3.02652e-06 0 0)
(3.03644e-06 0 0)
(3.04639e-06 0 0)
(3.05635e-06 0 0)
(3.06633e-06 0 0)
(3.07633e-06 0 0)
(3.08635e-06 0 0)
(3.09638e-06 0 0)
(3.10644e-06 0 0)
(3.11651e-06 0 0)
(3.12659e-06 0 0)
(3.1367e-06 0 0)
(3.14682e-06 0 0)
(3.15696e-06 0 0)
(3.16712e-06 0 0)
(3.17729e-06 0 0)
(3.18749e-06 0 0)
(3.1977e-06 0 0)
(3.20792e-06 0 0)
(3.21817e-06 0 0)
(3.22843e-06 0 0)
(3.23871e-06 0 0)
(3.249e-06 0 0)
(3.25932e-06 0 0)
(3.26965e-06 0 0)
(3.27999e-06 0 0)
(3.29036e-06 0 0)
(3.30074e-06 0 0)
(3.31114e-06 0 0)
(3.32156e-06 0 0)
(3.332e-06 0 0)
(3.34245e-06 0 0)
(3.35293e-06 0 0)
(3.36342e-06 0 0)
(3.37392e-06 0 0)
(3.38445e-06 0 0)
(3.395e-06 0 0)
(3.40556e-06 0 0)
(3.41614e-06 0 0)
(3.42674e-06 0 0)
(3.43736e-06 0 0)
(3.448e-06 0 0)
(3.45866e-06 0 0)
(3.46933e-06 0 0)
(3.48003e-06 0 0)
(3.49074e-06 0 0)
(3.50148e-06 0 0)
(3.51223e-06 0 0)
(3.52301e-06 0 0)
(3.5338e-06 0 0)
(3.54462e-06 0 0)
(3.55545e-06 0 0)
(3.5663e-06 0 0)
(3.57718e-06 0 0)
(3.58807e-06 0 0)
(3.59899e-06 0 0)
(3.60993e-06 0 0)
(3.62089e-06 0 0)
(3.63187e-06 0 0)
(3.64287e-06 0 0)
(3.6539e-06 0 0)
(3.66494e-06 0 0)
(3.67601e-06 0 0)
(3.6871e-06 0 0)
(3.69822e-06 0 0)
(3.70935e-06 0 0)
(3.72051e-06 0 0)
(3.7317e-06 0 0)
(3.7429e-06 0 0)
(3.75413e-06 0 0)
(3.76539e-06 0 0)
(3.77667e-06 0 0)
(3.78797e-06 0 0)
(3.7993e-06 0 0)
(3.81065e-06 0 0)
(3.82203e-06 0 0)
(3.83343e-06 0 0)
(3.84486e-06 0 0)
(3.85631e-06 0 0)
(3.86779e-06 0 0)
(3.8793e-06 0 0)
(3.89082e-06 0 0)
(3.90238e-06 0 0)
(3.91396e-06 0 0)
(3.92556e-06 0 0)
(3.93719e-06 0 0)
(3.94884e-06 0 0)
(3.96052e-06 0 0)
(3.97222e-06 0 0)
(3.98394e-06 0 0)
(3.99568e-06 0 0)
(4.00745e-06 0 0)
(4.01923e-06 0 0)
(4.03104e-06 0 0)
(4.04286e-06 0 0)
(4.05471e-06 0 0)
(4.06657e-06 0 0)
(4.07845e-06 0 0)
(4.09035e-06 0 0)
(4.10227e-06 0 0)
(4.11421e-06 0 0)
(4.12616e-06 0 0)
(4.13814e-06 0 0)
(4.15013e-06 0 0)
(4.16215e-06 0 0)
(4.17418e-06 0 0)
(4.18624e-06 0 0)
(4.19833e-06 0 0)
(4.21044e-06 0 0)
(4.22257e-06 0 0)
(4.23474e-06 0 0)
(4.24694e-06 0 0)
(4.25918e-06 0 0)
(4.27145e-06 0 0)
(4.28377e-06 0 0)
(4.29613e-06 0 0)
(4.30853e-06 0 0)
(4.32099e-06 0 0)
(4.3335e-06 0 0)
(4.34607e-06 0 0)
(4.35869e-06 0 0)
(4.37138e-06 0 0)
(4.38414e-06 0 0)
(4.39696e-06 0 0)
(4.40985e-06 0 0)
(4.42282e-06 0 0)
(4.43586e-06 0 0)
(4.44897e-06 0 0)
(4.46216e-06 0 0)
(4.47543e-06 0 0)
(4.48877e-06 0 0)
(4.50219e-06 0 0)
(4.51568e-06 0 0)
(4.52925e-06 0 0)
(4.54289e-06 0 0)
(4.5566e-06 0 0)
(4.57038e-06 0 0)
(4.58423e-06 0 0)
(4.59814e-06 0 0)
(4.6121e-06 0 0)
(4.62613e-06 0 0)
(4.64021e-06 0 0)
(4.65435e-06 0 0)
(4.66853e-06 0 0)
(4.68277e-06 0 0)
(4.69705e-06 0 0)
(4.71137e-06 0 0)
(4.72574e-06 0 0)
(4.74016e-06 0 0)
(4.75461e-06 0 0)
(4.76911e-06 0 0)
(4.78365e-06 0 0)
(4.79823e-06 0 0)
(4.81286e-06 0 0)
(4.82753e-06 0 0)
(4.84224e-06 0 0)
(4.857e-06 0 0)
(4.8718e-06 0 0)
(4.88666e-06 0 0)
(4.90156e-06 0 0)
(4.91652e-06 0 0)
(4.93153e-06 0 0)
(4.94659e-06 0 0)
(4.96171e-06 0 0)
(4.97688e-06 0 0)
(4.99212e-06 0 0)
(5.00742e-06 0 0)
(5.02278e-06 0 0)
(5.0382e-06 0 0)
(5.05368e-06 0 0)
(5.06923e-06 0 0)
(5.08485e-06 0 0)
(5.10053e-06 0 0)
(5.11628e-06 0 0)
(5.1321e-06 0 0)
(5.14798e-06 0 0)
(5.16393e-06 0 0)
(5.17995e-06 0 0)
(5.19603e-06 0 0)
(5.21217e-06 0 0)
(5.22837e-06 0 0)
(5.24464e-06 0 0)
(5.26096e-06 0 0)
(5.27734e-06 0 0)
(5.29376e-06 0 0)
(5.31022e-06 0 0)
(5.32672e-06 0 0)
(5.34325e-06 0 0)
(5.3598e-06 0 0)
(5.37636e-06 0 0)
(5.39291e-06 0 0)
(5.40945e-06 0 0)
(5.42594e-06 0 0)
(5.44236e-06 0 0)
(5.45871e-06 0 0)
(5.47495e-06 0 0)
(5.49104e-06 0 0)
(5.50696e-06 0 0)
(5.52265e-06 0 0)
(5.53808e-06 0 0)
(5.55319e-06 0 0)
(5.56795e-06 0 0)
(5.5823e-06 0 0)
(5.59618e-06 0 0)
(5.60953e-06 0 0)
(5.62231e-06 0 0)
(5.63446e-06 0 0)
(5.64593e-06 0 0)
(5.6567e-06 0 0)
(5.66673e-06 0 0)
(5.67598e-06 0 0)
(5.68445e-06 0 0)
(5.69215e-06 0 0)
(5.69906e-06 0 0)
(5.70523e-06 0 0)
(5.71069e-06 0 0)
(5.71546e-06 0 0)
(5.7196e-06 0 0)
(5.72316e-06 0 0)
(5.72622e-06 0 0)
(5.72886e-06 0 0)
(5.73118e-06 0 0)
(5.73332e-06 0 0)
(5.73548e-06 0 0)
(5.73798e-06 0 0)
(5.74136e-06 0 0)
(5.74654e-06 0 0)
(5.75515e-06 0 0)
(5.77003e-06 0 0)
(5.79612e-06 0 0)
(5.84195e-06 0 0)
(5.92162e-06 0 0)
(6.05702e-06 0 0)
(6.27803e-06 0 0)
(6.61589e-06 0 0)
(7.08432e-06 0 0)
(7.65317e-06 0 0)
(8.24155e-06 0 0)
(8.75408e-06 0 0)
(9.13389e-06 0 0)
(9.38035e-06 0 0)
(9.52572e-06 0 0)
(9.60638e-06 0 0)
(9.64955e-06 0 0)
(9.67219e-06 0 0)
(9.68394e-06 0 0)
(9.68999e-06 0 0)
(9.69308e-06 0 0)
(9.69465e-06 0 0)
(9.69543e-06 0 0)
(9.6958e-06 0 0)
(9.69597e-06 0 0)
(9.69602e-06 0 0)
(9.69602e-06 0 0)
(9.69599e-06 0 0)
(9.69594e-06 0 0)
(9.69588e-06 0 0)
(9.69582e-06 0 0)
(9.69574e-06 0 0)
(9.69567e-06 0 0)
(9.69559e-06 0 0)
(9.69551e-06 0 0)
(9.69542e-06 0 0)
(9.69534e-06 0 0)
(9.69524e-06 0 0)
(9.69515e-06 0 0)
(9.69505e-06 0 0)
(9.69494e-06 0 0)
(9.69483e-06 0 0)
(9.69471e-06 0 0)
(9.69459e-06 0 0)
(9.69446e-06 0 0)
(9.69432e-06 0 0)
(9.69417e-06 0 0)
(9.69402e-06 0 0)
(9.69385e-06 0 0)
(9.69367e-06 0 0)
(9.69349e-06 0 0)
(9.69329e-06 0 0)
(9.69307e-06 0 0)
(9.69285e-06 0 0)
(9.6926e-06 0 0)
(9.69235e-06 0 0)
(9.69207e-06 0 0)
(9.69178e-06 0 0)
(9.69148e-06 0 0)
(9.69115e-06 0 0)
(9.69081e-06 0 0)
(9.69045e-06 0 0)
(9.69007e-06 0 0)
(9.68967e-06 0 0)
(9.68925e-06 0 0)
(9.68882e-06 0 0)
(9.68836e-06 0 0)
(9.68789e-06 0 0)
(9.6874e-06 0 0)
(9.6869e-06 0 0)
(9.68639e-06 0 0)
(9.68586e-06 0 0)
(9.68532e-06 0 0)
(9.68477e-06 0 0)
(9.68422e-06 0 0)
(9.68366e-06 0 0)
(9.6831e-06 0 0)
(9.68254e-06 0 0)
(9.68199e-06 0 0)
(9.68144e-06 0 0)
(9.6809e-06 0 0)
(9.68038e-06 0 0)
(9.67987e-06 0 0)
(9.67938e-06 0 0)
(9.67891e-06 0 0)
(9.67847e-06 0 0)
(9.67805e-06 0 0)
(9.67767e-06 0 0)
(9.67732e-06 0 0)
(9.67701e-06 0 0)
(9.67675e-06 0 0)
(9.67652e-06 0 0)
(9.67634e-06 0 0)
(9.67621e-06 0 0)
(9.67613e-06 0 0)
(9.67609e-06 0 0)
(9.67608e-06 0 0)
(9.67609e-06 0 0)
(9.67612e-06 0 0)
(9.67624e-06 0 0)
(9.67644e-06 0 0)
(9.67668e-06 0 0)
(9.67696e-06 0 0)
(9.67728e-06 0 0)
(9.67763e-06 0 0)
(9.67801e-06 0 0)
(9.67843e-06 0 0)
(9.67887e-06 0 0)
(9.67934e-06 0 0)
(9.67982e-06 0 0)
(9.68032e-06 0 0)
(9.68083e-06 0 0)
(9.68135e-06 0 0)
(9.68188e-06 0 0)
(9.6824e-06 0 0)
(9.68293e-06 0 0)
(9.68345e-06 0 0)
(9.68396e-06 0 0)
(9.68446e-06 0 0)
(9.68495e-06 0 0)
(9.68543e-06 0 0)
(9.68588e-06 0 0)
(9.68632e-06 0 0)
(9.68674e-06 0 0)
(9.68715e-06 0 0)
(9.68753e-06 0 0)
(9.68789e-06 0 0)
(9.68823e-06 0 0)
(9.68855e-06 0 0)
(9.68885e-06 0 0)
(9.68913e-06 0 0)
(9.68939e-06 0 0)
(9.68963e-06 0 0)
(9.68986e-06 0 0)
(9.69007e-06 0 0)
(9.69026e-06 0 0)
(9.69044e-06 0 0)
(9.69061e-06 0 0)
(9.69077e-06 0 0)
(9.69092e-06 0 0)
(9.69106e-06 0 0)
(9.69119e-06 0 0)
(9.69131e-06 0 0)
(9.69143e-06 0 0)
(9.69154e-06 0 0)
(9.69165e-06 0 0)
(9.69175e-06 0 0)
(9.69185e-06 0 0)
(9.69195e-06 0 0)
(9.69205e-06 0 0)
(9.69215e-06 0 0)
(9.69225e-06 0 0)
(9.69234e-06 0 0)
(9.69244e-06 0 0)
(9.69253e-06 0 0)
(9.69263e-06 0 0)
(9.69273e-06 0 0)
(9.69283e-06 0 0)
(9.69293e-06 0 0)
(9.69303e-06 0 0)
(9.69313e-06 0 0)
(9.69323e-06 0 0)
(9.69333e-06 0 0)
(9.69344e-06 0 0)
(9.69354e-06 0 0)
(9.69364e-06 0 0)
(9.69375e-06 0 0)
(9.69385e-06 0 0)
(9.69396e-06 0 0)
(9.69406e-06 0 0)
(9.69416e-06 0 0)
(9.69427e-06 0 0)
(9.69437e-06 0 0)
(9.69447e-06 0 0)
(9.69457e-06 0 0)
(9.69467e-06 0 0)
(9.69477e-06 0 0)
(9.69487e-06 0 0)
(9.69496e-06 0 0)
(9.69506e-06 0 0)
(9.69515e-06 0 0)
(9.69524e-06 0 0)
(9.69533e-06 0 0)
(9.69541e-06 0 0)
(9.6955e-06 0 0)
(9.69558e-06 0 0)
(9.69566e-06 0 0)
(9.69573e-06 0 0)
(9.69581e-06 0 0)
(9.69588e-06 0 0)
(9.69595e-06 0 0)
(9.69601e-06 0 0)
(9.69607e-06 0 0)
(9.69614e-06 0 0)
(9.69619e-06 0 0)
(9.69625e-06 0 0)
(9.6963e-06 0 0)
(9.69635e-06 0 0)
(9.69639e-06 0 0)
(9.69644e-06 0 0)
(9.69647e-06 0 0)
(9.69651e-06 0 0)
(9.69654e-06 0 0)
(9.69657e-06 0 0)
(9.6966e-06 0 0)
(9.69662e-06 0 0)
(9.69664e-06 0 0)
(9.69666e-06 0 0)
(9.69668e-06 0 0)
(9.69669e-06 0 0)
(9.69669e-06 0 0)
(9.6967e-06 0 0)
(9.6967e-06 0 0)
(9.69671e-06 0 0)
(9.69671e-06 0 0)
(9.6967e-06 0 0)
(9.69669e-06 0 0)
(9.69668e-06 0 0)
(9.69666e-06 0 0)
(9.69664e-06 0 0)
(9.69662e-06 0 0)
(9.69659e-06 0 0)
(9.69656e-06 0 0)
(9.69653e-06 0 0)
(9.6965e-06 0 0)
(9.69646e-06 0 0)
(9.69641e-06 0 0)
(9.69637e-06 0 0)
(9.69632e-06 0 0)
(9.69627e-06 0 0)
(9.69621e-06 0 0)
(9.69615e-06 0 0)
(9.69609e-06 0 0)
(9.69602e-06 0 0)
(9.69596e-06 0 0)
(9.69589e-06 0 0)
(9.69581e-06 0 0)
(9.69573e-06 0 0)
(9.69565e-06 0 0)
(9.69557e-06 0 0)
(9.69548e-06 0 0)
(9.69539e-06 0 0)
(9.6953e-06 0 0)
(9.6952e-06 0 0)
(9.6951e-06 0 0)
(9.69499e-06 0 0)
(9.69487e-06 0 0)
(9.69475e-06 0 0)
(9.69463e-06 0 0)
(9.69449e-06 0 0)
(9.69435e-06 0 0)
(9.69421e-06 0 0)
(9.69405e-06 0 0)
(9.69388e-06 0 0)
(9.69371e-06 0 0)
(9.69352e-06 0 0)
(9.69332e-06 0 0)
(9.69312e-06 0 0)
(9.6929e-06 0 0)
(9.69266e-06 0 0)
(9.69241e-06 0 0)
(9.69215e-06 0 0)
(9.69188e-06 0 0)
(9.69159e-06 0 0)
(9.69129e-06 0 0)
(9.69097e-06 0 0)
(9.69063e-06 0 0)
(9.69028e-06 0 0)
(9.68992e-06 0 0)
(9.68954e-06 0 0)
(9.68915e-06 0 0)
(9.68874e-06 0 0)
(9.68832e-06 0 0)
(9.68788e-06 0 0)
(9.68743e-06 0 0)
(9.68698e-06 0 0)
(9.68651e-06 0 0)
(9.68603e-06 0 0)
(9.68555e-06 0 0)
(9.68506e-06 0 0)
(9.68457e-06 0 0)
(9.68408e-06 0 0)
(9.68358e-06 0 0)
(9.68309e-06 0 0)
(9.6826e-06 0 0)
(9.68212e-06 0 0)
(9.68165e-06 0 0)
(9.68118e-06 0 0)
(9.68073e-06 0 0)
(9.6803e-06 0 0)
(9.67988e-06 0 0)
(9.67949e-06 0 0)
(9.67912e-06 0 0)
(9.67877e-06 0 0)
(9.67845e-06 0 0)
(9.67816e-06 0 0)
(9.6779e-06 0 0)
(9.67767e-06 0 0)
(9.67747e-06 0 0)
(9.67732e-06 0 0)
(9.6772e-06 0 0)
(9.67712e-06 0 0)
(9.67707e-06 0 0)
(9.67706e-06 0 0)
(9.67705e-06 0 0)
(9.67707e-06 0 0)
(9.67714e-06 0 0)
(9.67728e-06 0 0)
(9.67747e-06 0 0)
(9.67768e-06 0 0)
(9.67793e-06 0 0)
(9.67821e-06 0 0)
(9.67852e-06 0 0)
(9.67886e-06 0 0)
(9.67922e-06 0 0)
(9.6796e-06 0 0)
(9.68e-06 0 0)
(9.68042e-06 0 0)
(9.68085e-06 0 0)
(9.68129e-06 0 0)
(9.68174e-06 0 0)
(9.68219e-06 0 0)
(9.68265e-06 0 0)
(9.6831e-06 0 0)
(9.68355e-06 0 0)
(9.684e-06 0 0)
(9.68444e-06 0 0)
(9.68487e-06 0 0)
(9.68529e-06 0 0)
(9.6857e-06 0 0)
(9.6861e-06 0 0)
(9.68648e-06 0 0)
(9.68685e-06 0 0)
(9.6872e-06 0 0)
(9.68754e-06 0 0)
(9.68786e-06 0 0)
(9.68817e-06 0 0)
(9.68846e-06 0 0)
(9.68873e-06 0 0)
(9.68899e-06 0 0)
(9.68923e-06 0 0)
(9.68946e-06 0 0)
(9.68968e-06 0 0)
(9.68989e-06 0 0)
(9.69008e-06 0 0)
(9.69026e-06 0 0)
(9.69043e-06 0 0)
(9.69059e-06 0 0)
(9.69074e-06 0 0)
(9.69089e-06 0 0)
(9.69103e-06 0 0)
(9.69116e-06 0 0)
(9.69128e-06 0 0)
(9.69141e-06 0 0)
(9.69152e-06 0 0)
(9.69164e-06 0 0)
(9.69175e-06 0 0)
(9.69185e-06 0 0)
(9.69196e-06 0 0)
(9.69206e-06 0 0)
(9.69217e-06 0 0)
(9.69227e-06 0 0)
(9.69237e-06 0 0)
(9.69247e-06 0 0)
(9.69257e-06 0 0)
(9.69267e-06 0 0)
(9.69277e-06 0 0)
(9.69287e-06 0 0)
)
;

boundaryField
{
    inlet
    {
        type            fixedValue;
        value           uniform (0 0 0);
    }
    outlet
    {
        type            zeroGradient;
    }
    emptyWalls
    {
        type            empty;
    }
}


// ************************************************************************* //
