/*--------------------------------*- C++ -*----------------------------------*\
  =========                 |
  \\      /  F ield         | OpenFOAM: The Open Source CFD Toolbox
   \\    /   O peration     | Website:  https://openfoam.org
    \\  /    A nd           | Version:  9
     \\/     M anipulation  |
\*---------------------------------------------------------------------------*/
FoamFile
{
    format      ascii;
    class       surfaceScalarField;
    location    "14350";
    object      phic;
}
// * * * * * * * * * * * * * * * * * * * * * * * * * * * * * * * * * * * * * //

dimensions      [0 2 0 0 0 0 0];

internalField   nonuniform List<scalar> 
999
(
2.73972e-15
1.2065e-14
2.89979e-14
5.29005e-14
8.35243e-14
1.206e-13
1.63706e-13
2.12046e-13
2.64537e-13
3.19555e-13
3.75279e-13
4.29756e-13
4.81121e-13
5.2837e-13
5.71836e-13
6.18442e-13
7.04913e-13
1.00174e-12
2.0566e-12
7.50058e-12
1.85767e-11
2.08187e-11
2.15618e-11
2.19655e-11
2.22504e-11
2.24804e-11
2.26804e-11
2.28615e-11
2.30299e-11
2.31887e-11
2.33395e-11
2.34825e-11
2.3618e-11
2.37467e-11
2.38703e-11
2.39909e-11
2.41111e-11
2.42324e-11
2.43557e-11
2.44808e-11
2.46076e-11
2.47377e-11
2.48762e-11
2.5025e-11
2.51804e-11
2.53427e-11
2.55121e-11
2.56901e-11
2.58789e-11
2.60826e-11
2.63074e-11
2.65623e-11
2.6859e-11
2.72099e-11
2.76241e-11
2.81018e-11
2.86332e-11
2.92042e-11
2.98037e-11
3.04241e-11
3.10605e-11
3.17094e-11
3.23685e-11
3.30359e-11
3.37105e-11
3.43912e-11
3.50772e-11
3.5768e-11
3.64632e-11
3.71623e-11
3.7865e-11
3.85711e-11
3.92803e-11
3.99926e-11
4.07077e-11
4.14255e-11
4.21459e-11
4.28688e-11
4.35942e-11
4.43219e-11
4.50518e-11
4.5784e-11
4.65182e-11
4.72546e-11
4.7993e-11
4.87334e-11
4.94757e-11
5.022e-11
5.09661e-11
5.1714e-11
5.24637e-11
5.32152e-11
5.39684e-11
5.47232e-11
5.54798e-11
5.62379e-11
5.69977e-11
5.77591e-11
5.8522e-11
5.92865e-11
6.00524e-11
6.08199e-11
6.15888e-11
6.23591e-11
6.31309e-11
6.39041e-11
6.46787e-11
6.54546e-11
6.6232e-11
6.70106e-11
6.77906e-11
6.85719e-11
6.93545e-11
7.01384e-11
7.09235e-11
7.17098e-11
7.24974e-11
7.32862e-11
7.40763e-11
7.48676e-11
7.566e-11
7.64538e-11
7.72487e-11
7.80449e-11
7.88423e-11
7.96409e-11
8.04407e-11
8.12417e-11
8.20438e-11
8.2847e-11
8.36512e-11
8.44565e-11
8.52628e-11
8.60701e-11
8.68786e-11
8.76882e-11
8.84989e-11
8.93107e-11
9.01236e-11
9.09374e-11
9.17521e-11
9.25675e-11
9.33833e-11
9.41993e-11
9.50154e-11
9.58314e-11
9.66472e-11
9.74627e-11
9.82779e-11
9.90928e-11
9.99074e-11
1.00722e-10
1.01537e-10
1.02351e-10
1.03167e-10
1.03983e-10
1.04801e-10
1.0562e-10
1.06441e-10
1.07264e-10
1.0809e-10
1.0892e-10
1.09753e-10
1.1059e-10
1.11432e-10
1.12277e-10
1.13127e-10
1.1398e-10
1.14837e-10
1.15697e-10
1.1656e-10
1.17425e-10
1.18292e-10
1.1916e-10
1.20029e-10
1.20898e-10
1.21767e-10
1.22636e-10
1.23504e-10
1.24371e-10
1.25238e-10
1.26104e-10
1.2697e-10
1.27835e-10
1.287e-10
1.29565e-10
1.30431e-10
1.31296e-10
1.32162e-10
1.33029e-10
1.33897e-10
1.34765e-10
1.35635e-10
1.36506e-10
1.37378e-10
1.38252e-10
1.39126e-10
1.40002e-10
1.4088e-10
1.41758e-10
1.42638e-10
1.43519e-10
1.44402e-10
1.45285e-10
1.4617e-10
1.47056e-10
1.47943e-10
1.48832e-10
1.49721e-10
1.50612e-10
1.51503e-10
1.52396e-10
1.5329e-10
1.54184e-10
1.5508e-10
1.55977e-10
1.56875e-10
1.57774e-10
1.58674e-10
1.59575e-10
1.60477e-10
1.6138e-10
1.62284e-10
1.63189e-10
1.64095e-10
1.65002e-10
1.6591e-10
1.66819e-10
1.67729e-10
1.68641e-10
1.69553e-10
1.70466e-10
1.7138e-10
1.72295e-10
1.73211e-10
1.74128e-10
1.75046e-10
1.75965e-10
1.76885e-10
1.77806e-10
1.78728e-10
1.79651e-10
1.80575e-10
1.815e-10
1.82426e-10
1.83353e-10
1.84281e-10
1.8521e-10
1.8614e-10
1.87072e-10
1.88004e-10
1.88937e-10
1.89871e-10
1.90806e-10
1.91742e-10
1.9268e-10
1.93618e-10
1.94557e-10
1.95498e-10
1.96439e-10
1.97382e-10
1.98326e-10
1.99271e-10
2.00217e-10
2.01164e-10
2.02112e-10
2.03061e-10
2.04012e-10
2.04963e-10
2.05916e-10
2.0687e-10
2.07825e-10
2.08781e-10
2.09738e-10
2.10697e-10
2.11656e-10
2.12617e-10
2.13579e-10
2.14541e-10
2.15505e-10
2.1647e-10
2.17436e-10
2.18403e-10
2.19371e-10
2.20339e-10
2.21308e-10
2.22277e-10
2.23247e-10
2.24217e-10
2.25187e-10
2.26157e-10
2.27127e-10
2.28097e-10
2.29066e-10
2.30036e-10
2.31005e-10
2.31975e-10
2.32944e-10
2.33913e-10
2.34883e-10
2.35853e-10
2.36824e-10
2.37796e-10
2.38769e-10
2.39744e-10
2.40721e-10
2.41701e-10
2.42683e-10
2.43669e-10
2.44658e-10
2.45651e-10
2.46648e-10
2.4765e-10
2.48657e-10
2.49668e-10
2.50685e-10
2.51706e-10
2.52733e-10
2.53764e-10
2.548e-10
2.5584e-10
2.56883e-10
2.57931e-10
2.58981e-10
2.60034e-10
2.6109e-10
2.62147e-10
2.63205e-10
2.64265e-10
2.65325e-10
2.66386e-10
2.67447e-10
2.68508e-10
2.69569e-10
2.70629e-10
2.7169e-10
2.72751e-10
2.73812e-10
2.74873e-10
2.75934e-10
2.76995e-10
2.78058e-10
2.79121e-10
2.80184e-10
2.81249e-10
2.82315e-10
2.83382e-10
2.84451e-10
2.85522e-10
2.86594e-10
2.87668e-10
2.88743e-10
2.89821e-10
2.909e-10
2.91982e-10
2.93066e-10
2.94151e-10
2.95239e-10
2.96329e-10
2.97421e-10
2.98515e-10
2.99612e-10
3.0071e-10
3.0181e-10
3.02913e-10
3.04017e-10
3.05124e-10
3.06233e-10
3.07344e-10
3.08457e-10
3.09572e-10
3.10689e-10
3.11808e-10
3.12929e-10
3.14052e-10
3.15177e-10
3.16305e-10
3.17434e-10
3.18566e-10
3.19699e-10
3.20835e-10
3.21973e-10
3.23113e-10
3.24255e-10
3.25399e-10
3.26545e-10
3.27694e-10
3.28845e-10
3.29998e-10
3.31153e-10
3.3231e-10
3.3347e-10
3.34632e-10
3.35796e-10
3.36962e-10
3.38131e-10
3.39302e-10
3.40475e-10
3.41651e-10
3.42829e-10
3.44009e-10
3.45192e-10
3.46377e-10
3.47565e-10
3.48755e-10
3.49947e-10
3.51142e-10
3.52339e-10
3.53539e-10
3.54742e-10
3.55947e-10
3.57154e-10
3.58364e-10
3.59577e-10
3.60792e-10
3.6201e-10
3.63231e-10
3.64454e-10
3.6568e-10
3.66909e-10
3.68141e-10
3.69375e-10
3.70613e-10
3.71853e-10
3.73096e-10
3.74342e-10
3.75591e-10
3.76843e-10
3.78098e-10
3.79356e-10
3.80617e-10
3.81882e-10
3.83149e-10
3.8442e-10
3.85694e-10
3.86971e-10
3.88251e-10
3.89535e-10
3.90821e-10
3.92112e-10
3.93405e-10
3.94702e-10
3.96002e-10
3.97306e-10
3.98612e-10
3.99923e-10
4.01236e-10
4.02552e-10
4.03872e-10
4.05195e-10
4.0652e-10
4.07849e-10
4.09181e-10
4.10516e-10
4.11853e-10
4.13194e-10
4.14537e-10
4.15883e-10
4.17232e-10
4.18583e-10
4.19937e-10
4.21294e-10
4.22653e-10
4.24016e-10
4.25381e-10
4.26749e-10
4.28121e-10
4.29496e-10
4.30874e-10
4.32257e-10
4.33643e-10
4.35034e-10
4.36429e-10
4.3783e-10
4.39236e-10
4.40647e-10
4.42065e-10
4.43489e-10
4.4492e-10
4.46358e-10
4.47804e-10
4.49258e-10
4.5072e-10
4.52191e-10
4.53671e-10
4.5516e-10
4.56659e-10
4.58167e-10
4.59685e-10
4.61213e-10
4.62751e-10
4.64298e-10
4.65855e-10
4.67422e-10
4.68997e-10
4.70582e-10
4.72176e-10
4.73779e-10
4.75389e-10
4.77008e-10
4.78635e-10
4.80268e-10
4.81909e-10
4.83557e-10
4.85211e-10
4.86872e-10
4.8854e-10
4.90213e-10
4.91892e-10
4.93578e-10
4.95269e-10
4.96966e-10
4.9867e-10
5.0038e-10
5.02096e-10
5.03818e-10
5.05547e-10
5.07282e-10
5.09024e-10
5.10772e-10
5.12528e-10
5.1429e-10
5.1606e-10
5.17836e-10
5.19618e-10
5.21407e-10
5.23203e-10
5.25005e-10
5.26813e-10
5.28626e-10
5.30444e-10
5.32265e-10
5.34088e-10
5.35913e-10
5.37737e-10
5.3956e-10
5.41378e-10
5.43188e-10
5.44988e-10
5.46775e-10
5.48543e-10
5.50289e-10
5.52008e-10
5.53693e-10
5.55338e-10
5.56937e-10
5.58484e-10
5.59972e-10
5.61394e-10
5.62744e-10
5.64016e-10
5.65205e-10
5.66307e-10
5.6732e-10
5.68243e-10
5.69075e-10
5.69819e-10
5.70476e-10
5.71052e-10
5.71554e-10
5.7199e-10
5.72369e-10
5.72707e-10
5.73022e-10
5.73345e-10
5.73726e-10
5.74249e-10
5.75059e-10
5.76405e-10
5.78729e-10
5.82788e-10
5.89863e-10
6.01989e-10
6.22091e-10
6.53571e-10
6.98639e-10
7.55373e-10
8.15949e-10
8.69811e-10
9.10063e-10
9.36202e-10
9.51589e-10
9.60112e-10
9.64671e-10
9.67064e-10
9.6831e-10
9.68955e-10
9.69288e-10
9.69461e-10
9.69552e-10
9.69599e-10
9.69625e-10
9.69639e-10
9.69647e-10
9.69652e-10
9.69654e-10
9.69656e-10
9.69656e-10
9.69657e-10
9.69657e-10
9.69656e-10
9.69655e-10
9.69654e-10
9.69652e-10
9.6965e-10
9.69648e-10
9.69645e-10
9.69642e-10
9.69639e-10
9.69635e-10
9.69631e-10
9.69627e-10
9.69623e-10
9.69618e-10
9.69613e-10
9.69608e-10
9.69602e-10
9.69597e-10
9.69591e-10
9.69585e-10
9.69578e-10
9.69572e-10
9.69565e-10
9.69558e-10
9.6955e-10
9.69543e-10
9.69535e-10
9.69527e-10
9.69518e-10
9.69509e-10
9.69499e-10
9.69489e-10
9.69478e-10
9.69467e-10
9.69455e-10
9.69442e-10
9.69429e-10
9.69414e-10
9.69398e-10
9.69382e-10
9.69364e-10
9.69344e-10
9.69324e-10
9.69301e-10
9.69277e-10
9.69252e-10
9.69225e-10
9.69195e-10
9.69164e-10
9.69131e-10
9.69096e-10
9.69059e-10
9.69019e-10
9.68978e-10
9.68934e-10
9.68888e-10
9.68841e-10
9.68791e-10
9.6874e-10
9.68687e-10
9.68632e-10
9.68576e-10
9.68518e-10
9.6846e-10
9.68401e-10
9.68341e-10
9.68281e-10
9.68221e-10
9.68162e-10
9.68103e-10
9.68045e-10
9.67989e-10
9.67935e-10
9.67882e-10
9.67832e-10
9.67785e-10
9.67742e-10
9.67702e-10
9.67666e-10
9.67634e-10
9.67607e-10
9.67584e-10
9.67567e-10
9.67555e-10
9.67548e-10
9.67546e-10
9.67545e-10
9.67546e-10
9.67552e-10
9.67573e-10
9.67596e-10
9.67625e-10
9.67657e-10
9.67694e-10
9.67734e-10
9.67778e-10
9.67825e-10
9.67874e-10
9.67926e-10
9.67979e-10
9.68034e-10
9.68089e-10
9.68145e-10
9.68201e-10
9.68257e-10
9.68312e-10
9.68366e-10
9.68419e-10
9.6847e-10
9.6852e-10
9.68568e-10
9.68613e-10
9.68657e-10
9.68698e-10
9.68737e-10
9.68773e-10
9.68807e-10
9.68839e-10
9.68869e-10
9.68896e-10
9.68922e-10
9.68946e-10
9.68967e-10
9.68987e-10
9.69006e-10
9.69023e-10
9.69039e-10
9.69054e-10
9.69068e-10
9.69081e-10
9.69093e-10
9.69105e-10
9.69116e-10
9.69127e-10
9.69137e-10
9.69147e-10
9.69158e-10
9.69168e-10
9.69177e-10
9.69187e-10
9.69198e-10
9.69208e-10
9.69218e-10
9.69228e-10
9.69239e-10
9.6925e-10
9.69261e-10
9.69272e-10
9.69283e-10
9.69294e-10
9.69306e-10
9.69317e-10
9.69329e-10
9.69341e-10
9.69353e-10
9.69365e-10
9.69377e-10
9.69389e-10
9.69401e-10
9.69413e-10
9.69424e-10
9.69436e-10
9.69448e-10
9.6946e-10
9.69471e-10
9.69482e-10
9.69493e-10
9.69504e-10
9.69515e-10
9.69526e-10
9.69536e-10
9.69547e-10
9.69557e-10
9.69566e-10
9.69576e-10
9.69585e-10
9.69594e-10
9.69603e-10
9.69611e-10
9.69619e-10
9.69627e-10
9.69635e-10
9.69642e-10
9.69649e-10
9.69656e-10
9.69662e-10
9.69668e-10
9.69674e-10
9.6968e-10
9.69685e-10
9.69689e-10
9.69693e-10
9.69697e-10
9.69701e-10
9.69704e-10
9.69706e-10
9.69709e-10
9.6971e-10
9.69712e-10
9.69712e-10
9.69713e-10
9.69713e-10
9.69712e-10
9.69712e-10
9.69711e-10
9.6971e-10
9.69707e-10
9.69705e-10
9.69702e-10
9.69699e-10
9.69695e-10
9.69692e-10
9.69687e-10
9.69683e-10
9.69678e-10
9.69673e-10
9.69668e-10
9.69663e-10
9.69657e-10
9.69651e-10
9.69645e-10
9.69638e-10
9.69631e-10
9.69624e-10
9.69617e-10
9.69609e-10
9.69601e-10
9.69593e-10
9.69584e-10
9.69575e-10
9.69566e-10
9.69556e-10
9.69546e-10
9.69536e-10
9.69525e-10
9.69513e-10
9.69501e-10
9.69488e-10
9.69475e-10
9.69461e-10
9.69446e-10
9.69431e-10
9.69414e-10
9.69397e-10
9.69379e-10
9.69359e-10
9.69339e-10
9.69317e-10
9.69294e-10
9.69269e-10
9.69244e-10
9.69217e-10
9.69188e-10
9.69158e-10
9.69126e-10
9.69093e-10
9.69058e-10
9.69022e-10
9.68984e-10
9.68944e-10
9.68903e-10
9.6886e-10
9.68816e-10
9.6877e-10
9.68723e-10
9.68675e-10
9.68626e-10
9.68576e-10
9.68524e-10
9.68473e-10
9.6842e-10
9.68368e-10
9.68315e-10
9.68263e-10
9.6821e-10
9.68159e-10
9.68108e-10
9.68058e-10
9.6801e-10
9.67964e-10
9.67919e-10
9.67876e-10
9.67836e-10
9.67799e-10
9.67765e-10
9.67733e-10
9.67705e-10
9.67681e-10
9.67661e-10
9.67644e-10
9.67631e-10
9.67623e-10
9.67619e-10
9.67618e-10
9.67618e-10
9.6762e-10
9.67629e-10
9.67646e-10
9.67666e-10
9.6769e-10
9.67718e-10
9.6775e-10
9.67784e-10
9.67821e-10
9.67861e-10
9.67903e-10
9.67948e-10
9.67993e-10
9.6804e-10
9.68089e-10
9.68137e-10
9.68186e-10
9.68236e-10
9.68284e-10
9.68333e-10
9.68381e-10
9.68427e-10
9.68473e-10
9.68518e-10
9.68561e-10
9.68602e-10
9.68642e-10
9.6868e-10
9.68717e-10
9.68751e-10
9.68784e-10
9.68816e-10
9.68845e-10
9.68873e-10
9.68899e-10
9.68924e-10
9.68948e-10
9.6897e-10
9.6899e-10
9.6901e-10
9.69028e-10
9.69046e-10
9.69063e-10
9.69078e-10
9.69094e-10
9.69108e-10
9.69122e-10
9.69136e-10
9.69149e-10
9.69162e-10
9.69174e-10
9.69187e-10
9.69199e-10
9.69211e-10
9.69223e-10
9.69235e-10
9.69247e-10
9.69258e-10
9.6927e-10
9.69282e-10
9.69293e-10
9.69305e-10
9.69317e-10
9.69328e-10
9.6934e-10
9.69351e-10
9.69363e-10
9.69374e-10
9.69386e-10
9.69397e-10
9.69408e-10
9.69419e-10
9.6943e-10
9.69441e-10
9.69451e-10
9.69462e-10
9.69472e-10
9.69482e-10
9.69492e-10
9.69502e-10
9.69511e-10
9.6952e-10
9.69529e-10
9.69538e-10
9.69546e-10
9.69555e-10
9.69563e-10
9.6957e-10
9.69578e-10
9.69585e-10
9.69592e-10
9.69598e-10
9.69605e-10
9.69611e-10
9.69616e-10
9.69622e-10
9.69627e-10
9.69631e-10
9.69636e-10
9.6964e-10
9.69644e-10
9.69647e-10
9.6965e-10
9.69653e-10
)
;

boundaryField
{
    inlet
    {
        type            calculated;
        value           uniform 0;
    }
    outlet
    {
        type            calculated;
        value           uniform 9.69655e-10;
    }
    emptyWalls
    {
        type            empty;
        value           nonuniform List<scalar> 0();
    }
}


// ************************************************************************* //
