/*--------------------------------*- C++ -*----------------------------------*\
  =========                 |
  \\      /  F ield         | OpenFOAM: The Open Source CFD Toolbox
   \\    /   O peration     | Website:  https://openfoam.org
    \\  /    A nd           | Version:  9
     \\/     M anipulation  |
\*---------------------------------------------------------------------------*/
FoamFile
{
    format      ascii;
    class       volVectorField;
    location    "21350";
    object      Uc;
}
// * * * * * * * * * * * * * * * * * * * * * * * * * * * * * * * * * * * * * //

dimensions      [0 0 0 0 0 0 0];

internalField   nonuniform List<vector> 
1000
(
(5.80874e-12 0 0)
(3.01689e-11 0 0)
(8.39798e-11 0 0)
(1.7027e-10 0 0)
(2.87779e-10 0 0)
(4.36073e-10 0 0)
(6.15076e-10 0 0)
(8.24763e-10 0 0)
(1.06499e-09 0 0)
(1.3354e-09 0 0)
(1.63514e-09 0 0)
(1.96278e-09 0 0)
(2.31613e-09 0 0)
(2.69193e-09 0 0)
(3.08583e-09 0 0)
(3.49221e-09 0 0)
(3.90437e-09 0 0)
(4.31461e-09 0 0)
(4.71515e-09 0 0)
(5.0984e-09 0 0)
(5.45789e-09 0 0)
(5.78917e-09 0 0)
(6.08946e-09 0 0)
(6.3596e-09 0 0)
(6.60736e-09 0 0)
(6.86966e-09 0 0)
(7.31931e-09 0 0)
(8.72861e-09 0 0)
(1.38698e-08 0 0)
(3.84871e-08 0 0)
(1.18685e-07 0 0)
(1.91865e-07 0 0)
(2.09452e-07 0 0)
(2.15416e-07 0 0)
(2.18604e-07 0 0)
(2.20809e-07 0 0)
(2.22564e-07 0 0)
(2.24076e-07 0 0)
(2.25439e-07 0 0)
(2.26702e-07 0 0)
(2.27894e-07 0 0)
(2.2903e-07 0 0)
(2.30118e-07 0 0)
(2.31167e-07 0 0)
(2.32182e-07 0 0)
(2.33171e-07 0 0)
(2.34138e-07 0 0)
(2.35088e-07 0 0)
(2.3602e-07 0 0)
(2.36932e-07 0 0)
(2.37821e-07 0 0)
(2.38683e-07 0 0)
(2.39517e-07 0 0)
(2.40329e-07 0 0)
(2.41124e-07 0 0)
(2.41912e-07 0 0)
(2.42703e-07 0 0)
(2.43507e-07 0 0)
(2.44328e-07 0 0)
(2.45167e-07 0 0)
(2.46024e-07 0 0)
(2.46893e-07 0 0)
(2.47783e-07 0 0)
(2.48716e-07 0 0)
(2.49698e-07 0 0)
(2.50717e-07 0 0)
(2.51766e-07 0 0)
(2.5284e-07 0 0)
(2.53937e-07 0 0)
(2.55055e-07 0 0)
(2.56197e-07 0 0)
(2.57366e-07 0 0)
(2.58566e-07 0 0)
(2.59807e-07 0 0)
(2.61098e-07 0 0)
(2.62456e-07 0 0)
(2.63901e-07 0 0)
(2.65462e-07 0 0)
(2.67177e-07 0 0)
(2.69092e-07 0 0)
(2.71262e-07 0 0)
(2.73741e-07 0 0)
(2.76566e-07 0 0)
(2.79742e-07 0 0)
(2.83236e-07 0 0)
(2.86986e-07 0 0)
(2.90928e-07 0 0)
(2.95014e-07 0 0)
(2.99211e-07 0 0)
(3.03493e-07 0 0)
(3.07844e-07 0 0)
(3.12251e-07 0 0)
(3.16705e-07 0 0)
(3.21199e-07 0 0)
(3.25727e-07 0 0)
(3.30285e-07 0 0)
(3.34869e-07 0 0)
(3.39478e-07 0 0)
(3.44108e-07 0 0)
(3.48758e-07 0 0)
(3.53428e-07 0 0)
(3.58114e-07 0 0)
(3.62818e-07 0 0)
(3.67536e-07 0 0)
(3.7227e-07 0 0)
(3.77018e-07 0 0)
(3.81779e-07 0 0)
(3.86554e-07 0 0)
(3.91341e-07 0 0)
(3.9614e-07 0 0)
(4.00951e-07 0 0)
(4.05774e-07 0 0)
(4.10608e-07 0 0)
(4.15453e-07 0 0)
(4.20308e-07 0 0)
(4.25174e-07 0 0)
(4.3005e-07 0 0)
(4.34936e-07 0 0)
(4.39832e-07 0 0)
(4.44737e-07 0 0)
(4.49652e-07 0 0)
(4.54575e-07 0 0)
(4.59508e-07 0 0)
(4.6445e-07 0 0)
(4.69401e-07 0 0)
(4.7436e-07 0 0)
(4.79327e-07 0 0)
(4.84303e-07 0 0)
(4.89286e-07 0 0)
(4.94278e-07 0 0)
(4.99277e-07 0 0)
(5.04284e-07 0 0)
(5.09298e-07 0 0)
(5.14321e-07 0 0)
(5.19351e-07 0 0)
(5.24388e-07 0 0)
(5.29434e-07 0 0)
(5.34488e-07 0 0)
(5.39549e-07 0 0)
(5.44618e-07 0 0)
(5.49694e-07 0 0)
(5.54777e-07 0 0)
(5.59867e-07 0 0)
(5.64964e-07 0 0)
(5.70067e-07 0 0)
(5.75177e-07 0 0)
(5.80294e-07 0 0)
(5.85416e-07 0 0)
(5.90546e-07 0 0)
(5.95682e-07 0 0)
(6.00825e-07 0 0)
(6.05976e-07 0 0)
(6.11135e-07 0 0)
(6.16301e-07 0 0)
(6.21474e-07 0 0)
(6.26653e-07 0 0)
(6.31838e-07 0 0)
(6.37026e-07 0 0)
(6.42216e-07 0 0)
(6.47406e-07 0 0)
(6.52595e-07 0 0)
(6.57781e-07 0 0)
(6.62964e-07 0 0)
(6.68143e-07 0 0)
(6.73317e-07 0 0)
(6.78488e-07 0 0)
(6.83656e-07 0 0)
(6.88823e-07 0 0)
(6.93989e-07 0 0)
(6.99156e-07 0 0)
(7.04326e-07 0 0)
(7.09501e-07 0 0)
(7.14683e-07 0 0)
(7.19875e-07 0 0)
(7.2508e-07 0 0)
(7.30301e-07 0 0)
(7.35539e-07 0 0)
(7.40798e-07 0 0)
(7.4608e-07 0 0)
(7.51387e-07 0 0)
(7.56718e-07 0 0)
(7.62075e-07 0 0)
(7.67457e-07 0 0)
(7.72862e-07 0 0)
(7.78288e-07 0 0)
(7.83732e-07 0 0)
(7.89191e-07 0 0)
(7.94661e-07 0 0)
(8.00141e-07 0 0)
(8.05625e-07 0 0)
(8.11111e-07 0 0)
(8.16598e-07 0 0)
(8.22082e-07 0 0)
(8.27563e-07 0 0)
(8.33039e-07 0 0)
(8.38511e-07 0 0)
(8.43977e-07 0 0)
(8.4944e-07 0 0)
(8.54899e-07 0 0)
(8.60356e-07 0 0)
(8.65811e-07 0 0)
(8.71267e-07 0 0)
(8.76723e-07 0 0)
(8.82181e-07 0 0)
(8.87642e-07 0 0)
(8.93107e-07 0 0)
(8.98577e-07 0 0)
(9.04053e-07 0 0)
(9.09534e-07 0 0)
(9.15022e-07 0 0)
(9.20516e-07 0 0)
(9.26017e-07 0 0)
(9.31525e-07 0 0)
(9.3704e-07 0 0)
(9.42561e-07 0 0)
(9.48089e-07 0 0)
(9.53623e-07 0 0)
(9.59163e-07 0 0)
(9.64709e-07 0 0)
(9.70262e-07 0 0)
(9.75819e-07 0 0)
(9.81383e-07 0 0)
(9.86951e-07 0 0)
(9.92525e-07 0 0)
(9.98104e-07 0 0)
(1.00369e-06 0 0)
(1.00928e-06 0 0)
(1.01487e-06 0 0)
(1.02047e-06 0 0)
(1.02607e-06 0 0)
(1.03168e-06 0 0)
(1.03729e-06 0 0)
(1.04291e-06 0 0)
(1.04853e-06 0 0)
(1.05415e-06 0 0)
(1.05978e-06 0 0)
(1.06542e-06 0 0)
(1.07106e-06 0 0)
(1.0767e-06 0 0)
(1.08234e-06 0 0)
(1.088e-06 0 0)
(1.09365e-06 0 0)
(1.09931e-06 0 0)
(1.10497e-06 0 0)
(1.11064e-06 0 0)
(1.11631e-06 0 0)
(1.12199e-06 0 0)
(1.12767e-06 0 0)
(1.13335e-06 0 0)
(1.13904e-06 0 0)
(1.14473e-06 0 0)
(1.15042e-06 0 0)
(1.15612e-06 0 0)
(1.16183e-06 0 0)
(1.16753e-06 0 0)
(1.17324e-06 0 0)
(1.17896e-06 0 0)
(1.18468e-06 0 0)
(1.1904e-06 0 0)
(1.19612e-06 0 0)
(1.20185e-06 0 0)
(1.20758e-06 0 0)
(1.21332e-06 0 0)
(1.21906e-06 0 0)
(1.22481e-06 0 0)
(1.23055e-06 0 0)
(1.23631e-06 0 0)
(1.24206e-06 0 0)
(1.24783e-06 0 0)
(1.25359e-06 0 0)
(1.25936e-06 0 0)
(1.26513e-06 0 0)
(1.27091e-06 0 0)
(1.27669e-06 0 0)
(1.28247e-06 0 0)
(1.28826e-06 0 0)
(1.29406e-06 0 0)
(1.29985e-06 0 0)
(1.30565e-06 0 0)
(1.31146e-06 0 0)
(1.31727e-06 0 0)
(1.32309e-06 0 0)
(1.3289e-06 0 0)
(1.33473e-06 0 0)
(1.34056e-06 0 0)
(1.34639e-06 0 0)
(1.35223e-06 0 0)
(1.35806e-06 0 0)
(1.3639e-06 0 0)
(1.36975e-06 0 0)
(1.37559e-06 0 0)
(1.38143e-06 0 0)
(1.38727e-06 0 0)
(1.3931e-06 0 0)
(1.39894e-06 0 0)
(1.40476e-06 0 0)
(1.41058e-06 0 0)
(1.4164e-06 0 0)
(1.42221e-06 0 0)
(1.42801e-06 0 0)
(1.43381e-06 0 0)
(1.43961e-06 0 0)
(1.44539e-06 0 0)
(1.45118e-06 0 0)
(1.45696e-06 0 0)
(1.46275e-06 0 0)
(1.46853e-06 0 0)
(1.47432e-06 0 0)
(1.48012e-06 0 0)
(1.48592e-06 0 0)
(1.49174e-06 0 0)
(1.49756e-06 0 0)
(1.50341e-06 0 0)
(1.50927e-06 0 0)
(1.51516e-06 0 0)
(1.52107e-06 0 0)
(1.527e-06 0 0)
(1.53296e-06 0 0)
(1.53894e-06 0 0)
(1.54495e-06 0 0)
(1.55099e-06 0 0)
(1.55705e-06 0 0)
(1.56314e-06 0 0)
(1.56924e-06 0 0)
(1.57537e-06 0 0)
(1.58151e-06 0 0)
(1.58767e-06 0 0)
(1.59384e-06 0 0)
(1.60002e-06 0 0)
(1.60621e-06 0 0)
(1.61239e-06 0 0)
(1.61858e-06 0 0)
(1.62477e-06 0 0)
(1.63096e-06 0 0)
(1.63714e-06 0 0)
(1.64332e-06 0 0)
(1.6495e-06 0 0)
(1.65567e-06 0 0)
(1.66183e-06 0 0)
(1.66799e-06 0 0)
(1.67415e-06 0 0)
(1.6803e-06 0 0)
(1.68645e-06 0 0)
(1.6926e-06 0 0)
(1.69874e-06 0 0)
(1.70489e-06 0 0)
(1.71104e-06 0 0)
(1.71719e-06 0 0)
(1.72335e-06 0 0)
(1.7295e-06 0 0)
(1.73566e-06 0 0)
(1.74183e-06 0 0)
(1.748e-06 0 0)
(1.75418e-06 0 0)
(1.76036e-06 0 0)
(1.76655e-06 0 0)
(1.77275e-06 0 0)
(1.77895e-06 0 0)
(1.78516e-06 0 0)
(1.79137e-06 0 0)
(1.79759e-06 0 0)
(1.80382e-06 0 0)
(1.81005e-06 0 0)
(1.81629e-06 0 0)
(1.82254e-06 0 0)
(1.82879e-06 0 0)
(1.83505e-06 0 0)
(1.84131e-06 0 0)
(1.84758e-06 0 0)
(1.85385e-06 0 0)
(1.86013e-06 0 0)
(1.86642e-06 0 0)
(1.87271e-06 0 0)
(1.879e-06 0 0)
(1.8853e-06 0 0)
(1.8916e-06 0 0)
(1.89791e-06 0 0)
(1.90423e-06 0 0)
(1.91055e-06 0 0)
(1.91687e-06 0 0)
(1.9232e-06 0 0)
(1.92953e-06 0 0)
(1.93586e-06 0 0)
(1.94221e-06 0 0)
(1.94855e-06 0 0)
(1.9549e-06 0 0)
(1.96126e-06 0 0)
(1.96761e-06 0 0)
(1.97398e-06 0 0)
(1.98035e-06 0 0)
(1.98672e-06 0 0)
(1.99309e-06 0 0)
(1.99947e-06 0 0)
(2.00586e-06 0 0)
(2.01225e-06 0 0)
(2.01864e-06 0 0)
(2.02504e-06 0 0)
(2.03144e-06 0 0)
(2.03785e-06 0 0)
(2.04426e-06 0 0)
(2.05068e-06 0 0)
(2.05709e-06 0 0)
(2.06352e-06 0 0)
(2.06995e-06 0 0)
(2.07638e-06 0 0)
(2.08281e-06 0 0)
(2.08925e-06 0 0)
(2.0957e-06 0 0)
(2.10215e-06 0 0)
(2.1086e-06 0 0)
(2.11506e-06 0 0)
(2.12153e-06 0 0)
(2.12799e-06 0 0)
(2.13447e-06 0 0)
(2.14094e-06 0 0)
(2.14743e-06 0 0)
(2.15391e-06 0 0)
(2.1604e-06 0 0)
(2.1669e-06 0 0)
(2.1734e-06 0 0)
(2.17991e-06 0 0)
(2.18642e-06 0 0)
(2.19294e-06 0 0)
(2.19946e-06 0 0)
(2.20599e-06 0 0)
(2.21252e-06 0 0)
(2.21906e-06 0 0)
(2.2256e-06 0 0)
(2.23215e-06 0 0)
(2.23871e-06 0 0)
(2.24527e-06 0 0)
(2.25183e-06 0 0)
(2.2584e-06 0 0)
(2.26498e-06 0 0)
(2.27155e-06 0 0)
(2.27814e-06 0 0)
(2.28472e-06 0 0)
(2.29131e-06 0 0)
(2.2979e-06 0 0)
(2.30449e-06 0 0)
(2.31108e-06 0 0)
(2.31767e-06 0 0)
(2.32426e-06 0 0)
(2.33084e-06 0 0)
(2.33743e-06 0 0)
(2.34401e-06 0 0)
(2.35059e-06 0 0)
(2.35716e-06 0 0)
(2.36373e-06 0 0)
(2.37029e-06 0 0)
(2.37686e-06 0 0)
(2.38341e-06 0 0)
(2.38997e-06 0 0)
(2.39652e-06 0 0)
(2.40307e-06 0 0)
(2.40962e-06 0 0)
(2.41617e-06 0 0)
(2.42272e-06 0 0)
(2.42928e-06 0 0)
(2.43584e-06 0 0)
(2.44241e-06 0 0)
(2.44899e-06 0 0)
(2.45558e-06 0 0)
(2.46219e-06 0 0)
(2.46881e-06 0 0)
(2.47546e-06 0 0)
(2.48212e-06 0 0)
(2.4888e-06 0 0)
(2.49551e-06 0 0)
(2.50225e-06 0 0)
(2.50901e-06 0 0)
(2.5158e-06 0 0)
(2.52261e-06 0 0)
(2.52946e-06 0 0)
(2.53634e-06 0 0)
(2.54324e-06 0 0)
(2.55017e-06 0 0)
(2.55713e-06 0 0)
(2.56411e-06 0 0)
(2.57111e-06 0 0)
(2.57813e-06 0 0)
(2.58518e-06 0 0)
(2.59224e-06 0 0)
(2.59931e-06 0 0)
(2.6064e-06 0 0)
(2.61349e-06 0 0)
(2.6206e-06 0 0)
(2.6277e-06 0 0)
(2.63482e-06 0 0)
(2.64193e-06 0 0)
(2.64905e-06 0 0)
(2.65616e-06 0 0)
(2.66328e-06 0 0)
(2.67039e-06 0 0)
(2.6775e-06 0 0)
(2.68461e-06 0 0)
(2.69172e-06 0 0)
(2.69883e-06 0 0)
(2.70593e-06 0 0)
(2.71304e-06 0 0)
(2.72014e-06 0 0)
(2.72725e-06 0 0)
(2.73435e-06 0 0)
(2.74146e-06 0 0)
(2.74857e-06 0 0)
(2.75569e-06 0 0)
(2.76281e-06 0 0)
(2.76993e-06 0 0)
(2.77706e-06 0 0)
(2.7842e-06 0 0)
(2.79134e-06 0 0)
(2.79849e-06 0 0)
(2.80565e-06 0 0)
(2.81282e-06 0 0)
(2.81999e-06 0 0)
(2.82717e-06 0 0)
(2.83437e-06 0 0)
(2.84157e-06 0 0)
(2.84878e-06 0 0)
(2.85599e-06 0 0)
(2.86322e-06 0 0)
(2.87046e-06 0 0)
(2.87771e-06 0 0)
(2.88496e-06 0 0)
(2.89223e-06 0 0)
(2.8995e-06 0 0)
(2.90678e-06 0 0)
(2.91407e-06 0 0)
(2.92137e-06 0 0)
(2.92868e-06 0 0)
(2.936e-06 0 0)
(2.94332e-06 0 0)
(2.95066e-06 0 0)
(2.958e-06 0 0)
(2.96535e-06 0 0)
(2.97271e-06 0 0)
(2.98007e-06 0 0)
(2.98745e-06 0 0)
(2.99483e-06 0 0)
(3.00222e-06 0 0)
(3.00962e-06 0 0)
(3.01703e-06 0 0)
(3.02444e-06 0 0)
(3.03187e-06 0 0)
(3.0393e-06 0 0)
(3.04674e-06 0 0)
(3.05418e-06 0 0)
(3.06164e-06 0 0)
(3.0691e-06 0 0)
(3.07657e-06 0 0)
(3.08405e-06 0 0)
(3.09153e-06 0 0)
(3.09903e-06 0 0)
(3.10653e-06 0 0)
(3.11404e-06 0 0)
(3.12156e-06 0 0)
(3.12908e-06 0 0)
(3.13662e-06 0 0)
(3.14416e-06 0 0)
(3.15171e-06 0 0)
(3.15926e-06 0 0)
(3.16683e-06 0 0)
(3.1744e-06 0 0)
(3.18199e-06 0 0)
(3.18958e-06 0 0)
(3.19717e-06 0 0)
(3.20478e-06 0 0)
(3.2124e-06 0 0)
(3.22002e-06 0 0)
(3.22765e-06 0 0)
(3.23529e-06 0 0)
(3.24294e-06 0 0)
(3.2506e-06 0 0)
(3.25827e-06 0 0)
(3.26594e-06 0 0)
(3.27363e-06 0 0)
(3.28132e-06 0 0)
(3.28902e-06 0 0)
(3.29674e-06 0 0)
(3.30446e-06 0 0)
(3.31219e-06 0 0)
(3.31993e-06 0 0)
(3.32768e-06 0 0)
(3.33544e-06 0 0)
(3.34321e-06 0 0)
(3.35098e-06 0 0)
(3.35877e-06 0 0)
(3.36657e-06 0 0)
(3.37438e-06 0 0)
(3.3822e-06 0 0)
(3.39003e-06 0 0)
(3.39786e-06 0 0)
(3.40571e-06 0 0)
(3.41357e-06 0 0)
(3.42144e-06 0 0)
(3.42931e-06 0 0)
(3.4372e-06 0 0)
(3.44509e-06 0 0)
(3.45299e-06 0 0)
(3.4609e-06 0 0)
(3.46882e-06 0 0)
(3.47674e-06 0 0)
(3.48467e-06 0 0)
(3.49261e-06 0 0)
(3.50055e-06 0 0)
(3.5085e-06 0 0)
(3.51645e-06 0 0)
(3.5244e-06 0 0)
(3.53236e-06 0 0)
(3.54032e-06 0 0)
(3.54828e-06 0 0)
(3.55625e-06 0 0)
(3.56422e-06 0 0)
(3.57218e-06 0 0)
(3.58016e-06 0 0)
(3.58813e-06 0 0)
(3.59611e-06 0 0)
(3.60409e-06 0 0)
(3.61207e-06 0 0)
(3.62006e-06 0 0)
(3.62805e-06 0 0)
(3.63605e-06 0 0)
(3.64406e-06 0 0)
(3.65207e-06 0 0)
(3.6601e-06 0 0)
(3.66814e-06 0 0)
(3.67619e-06 0 0)
(3.68426e-06 0 0)
(3.69234e-06 0 0)
(3.70044e-06 0 0)
(3.70857e-06 0 0)
(3.71672e-06 0 0)
(3.72489e-06 0 0)
(3.73309e-06 0 0)
(3.74132e-06 0 0)
(3.74957e-06 0 0)
(3.75786e-06 0 0)
(3.76618e-06 0 0)
(3.77454e-06 0 0)
(3.78293e-06 0 0)
(3.79136e-06 0 0)
(3.79982e-06 0 0)
(3.80832e-06 0 0)
(3.81686e-06 0 0)
(3.82543e-06 0 0)
(3.83404e-06 0 0)
(3.84269e-06 0 0)
(3.85137e-06 0 0)
(3.86008e-06 0 0)
(3.86882e-06 0 0)
(3.87759e-06 0 0)
(3.8864e-06 0 0)
(3.89522e-06 0 0)
(3.90408e-06 0 0)
(3.91295e-06 0 0)
(3.92185e-06 0 0)
(3.93076e-06 0 0)
(3.9397e-06 0 0)
(3.94864e-06 0 0)
(3.95761e-06 0 0)
(3.96658e-06 0 0)
(3.97557e-06 0 0)
(3.98457e-06 0 0)
(3.99358e-06 0 0)
(4.00259e-06 0 0)
(4.01162e-06 0 0)
(4.02066e-06 0 0)
(4.0297e-06 0 0)
(4.03875e-06 0 0)
(4.04782e-06 0 0)
(4.05689e-06 0 0)
(4.06597e-06 0 0)
(4.07506e-06 0 0)
(4.08416e-06 0 0)
(4.09328e-06 0 0)
(4.1024e-06 0 0)
(4.11154e-06 0 0)
(4.12069e-06 0 0)
(4.12986e-06 0 0)
(4.13904e-06 0 0)
(4.14824e-06 0 0)
(4.15745e-06 0 0)
(4.16668e-06 0 0)
(4.17592e-06 0 0)
(4.18519e-06 0 0)
(4.19447e-06 0 0)
(4.20378e-06 0 0)
(4.2131e-06 0 0)
(4.22244e-06 0 0)
(4.2318e-06 0 0)
(4.24119e-06 0 0)
(4.25059e-06 0 0)
(4.26001e-06 0 0)
(4.26946e-06 0 0)
(4.27893e-06 0 0)
(4.28842e-06 0 0)
(4.29793e-06 0 0)
(4.30746e-06 0 0)
(4.31702e-06 0 0)
(4.3266e-06 0 0)
(4.3362e-06 0 0)
(4.34582e-06 0 0)
(4.35547e-06 0 0)
(4.36514e-06 0 0)
(4.37483e-06 0 0)
(4.38454e-06 0 0)
(4.39428e-06 0 0)
(4.40404e-06 0 0)
(4.41383e-06 0 0)
(4.42363e-06 0 0)
(4.43346e-06 0 0)
(4.44331e-06 0 0)
(4.45319e-06 0 0)
(4.46309e-06 0 0)
(4.47301e-06 0 0)
(4.48296e-06 0 0)
(4.49293e-06 0 0)
(4.50292e-06 0 0)
(4.51294e-06 0 0)
(4.52298e-06 0 0)
(4.53305e-06 0 0)
(4.54314e-06 0 0)
(4.55326e-06 0 0)
(4.5634e-06 0 0)
(4.57356e-06 0 0)
(4.58375e-06 0 0)
(4.59397e-06 0 0)
(4.60421e-06 0 0)
(4.61448e-06 0 0)
(4.62477e-06 0 0)
(4.63509e-06 0 0)
(4.64544e-06 0 0)
(4.65581e-06 0 0)
(4.66621e-06 0 0)
(4.67663e-06 0 0)
(4.68709e-06 0 0)
(4.69757e-06 0 0)
(4.70808e-06 0 0)
(4.71862e-06 0 0)
(4.72918e-06 0 0)
(4.73977e-06 0 0)
(4.7504e-06 0 0)
(4.76105e-06 0 0)
(4.77173e-06 0 0)
(4.78244e-06 0 0)
(4.79318e-06 0 0)
(4.80395e-06 0 0)
(4.81476e-06 0 0)
(4.82559e-06 0 0)
(4.83645e-06 0 0)
(4.84735e-06 0 0)
(4.85827e-06 0 0)
(4.86924e-06 0 0)
(4.88023e-06 0 0)
(4.89125e-06 0 0)
(4.90231e-06 0 0)
(4.9134e-06 0 0)
(4.92453e-06 0 0)
(4.93569e-06 0 0)
(4.94688e-06 0 0)
(4.95811e-06 0 0)
(4.96938e-06 0 0)
(4.98067e-06 0 0)
(4.99201e-06 0 0)
(5.00338e-06 0 0)
(5.01478e-06 0 0)
(5.02623e-06 0 0)
(5.03771e-06 0 0)
(5.04922e-06 0 0)
(5.06077e-06 0 0)
(5.07236e-06 0 0)
(5.08398e-06 0 0)
(5.09564e-06 0 0)
(5.10734e-06 0 0)
(5.11907e-06 0 0)
(5.13084e-06 0 0)
(5.14264e-06 0 0)
(5.15447e-06 0 0)
(5.16634e-06 0 0)
(5.17825e-06 0 0)
(5.19018e-06 0 0)
(5.20215e-06 0 0)
(5.21415e-06 0 0)
(5.22618e-06 0 0)
(5.23824e-06 0 0)
(5.25033e-06 0 0)
(5.26244e-06 0 0)
(5.27458e-06 0 0)
(5.28675e-06 0 0)
(5.29893e-06 0 0)
(5.31114e-06 0 0)
(5.32336e-06 0 0)
(5.3356e-06 0 0)
(5.34785e-06 0 0)
(5.36012e-06 0 0)
(5.37239e-06 0 0)
(5.38466e-06 0 0)
(5.39693e-06 0 0)
(5.4092e-06 0 0)
(5.42145e-06 0 0)
(5.43368e-06 0 0)
(5.44588e-06 0 0)
(5.45806e-06 0 0)
(5.47018e-06 0 0)
(5.48225e-06 0 0)
(5.49424e-06 0 0)
(5.50615e-06 0 0)
(5.51795e-06 0 0)
(5.52964e-06 0 0)
(5.54119e-06 0 0)
(5.55258e-06 0 0)
(5.56378e-06 0 0)
(5.57476e-06 0 0)
(5.5855e-06 0 0)
(5.59599e-06 0 0)
(5.60617e-06 0 0)
(5.61603e-06 0 0)
(5.62553e-06 0 0)
(5.63465e-06 0 0)
(5.64336e-06 0 0)
(5.65164e-06 0 0)
(5.65947e-06 0 0)
(5.66683e-06 0 0)
(5.67371e-06 0 0)
(5.68011e-06 0 0)
(5.686e-06 0 0)
(5.69142e-06 0 0)
(5.69636e-06 0 0)
(5.70084e-06 0 0)
(5.70487e-06 0 0)
(5.70848e-06 0 0)
(5.71168e-06 0 0)
(5.71452e-06 0 0)
(5.71701e-06 0 0)
(5.7192e-06 0 0)
(5.72112e-06 0 0)
(5.72278e-06 0 0)
(5.72422e-06 0 0)
(5.72547e-06 0 0)
(5.72656e-06 0 0)
(5.72753e-06 0 0)
(5.7284e-06 0 0)
(5.72922e-06 0 0)
(5.73005e-06 0 0)
(5.73096e-06 0 0)
(5.73212e-06 0 0)
(5.7338e-06 0 0)
(5.73644e-06 0 0)
(5.74085e-06 0 0)
(5.74846e-06 0 0)
(5.76184e-06 0 0)
(5.78546e-06 0 0)
(5.82711e-06 0 0)
(5.89975e-06 0 0)
(6.02381e-06 0 0)
(6.22794e-06 0 0)
(6.54407e-06 0 0)
(6.99071e-06 0 0)
(7.54662e-06 0 0)
(8.13828e-06 0 0)
(8.66886e-06 0 0)
(9.07241e-06 0 0)
(9.33965e-06 0 0)
(9.49953e-06 0 0)
(9.58908e-06 0 0)
(9.63734e-06 0 0)
(9.66283e-06 0 0)
(9.67615e-06 0 0)
(9.68312e-06 0 0)
(9.68677e-06 0 0)
(9.68872e-06 0 0)
(9.68979e-06 0 0)
(9.6904e-06 0 0)
(9.69077e-06 0 0)
(9.69103e-06 0 0)
(9.69122e-06 0 0)
(9.69137e-06 0 0)
(9.69151e-06 0 0)
(9.69164e-06 0 0)
(9.69177e-06 0 0)
(9.69189e-06 0 0)
(9.69201e-06 0 0)
(9.69213e-06 0 0)
(9.69225e-06 0 0)
(9.69237e-06 0 0)
(9.69249e-06 0 0)
(9.69262e-06 0 0)
(9.69274e-06 0 0)
(9.69286e-06 0 0)
(9.69298e-06 0 0)
(9.69311e-06 0 0)
(9.69323e-06 0 0)
(9.69335e-06 0 0)
(9.69348e-06 0 0)
(9.6936e-06 0 0)
(9.69372e-06 0 0)
(9.69385e-06 0 0)
(9.69397e-06 0 0)
(9.69409e-06 0 0)
(9.69421e-06 0 0)
(9.69433e-06 0 0)
(9.69445e-06 0 0)
(9.69456e-06 0 0)
(9.69468e-06 0 0)
(9.69479e-06 0 0)
(9.6949e-06 0 0)
(9.69501e-06 0 0)
(9.69512e-06 0 0)
(9.69522e-06 0 0)
(9.69532e-06 0 0)
(9.69542e-06 0 0)
(9.69552e-06 0 0)
(9.69561e-06 0 0)
(9.6957e-06 0 0)
(9.69579e-06 0 0)
(9.69587e-06 0 0)
(9.69595e-06 0 0)
(9.69603e-06 0 0)
(9.69611e-06 0 0)
(9.69618e-06 0 0)
(9.69625e-06 0 0)
(9.69631e-06 0 0)
(9.69637e-06 0 0)
(9.69643e-06 0 0)
(9.69648e-06 0 0)
(9.69653e-06 0 0)
(9.69658e-06 0 0)
(9.69662e-06 0 0)
(9.69666e-06 0 0)
(9.6967e-06 0 0)
(9.69673e-06 0 0)
(9.69676e-06 0 0)
(9.69678e-06 0 0)
(9.6968e-06 0 0)
(9.69682e-06 0 0)
(9.69683e-06 0 0)
(9.69684e-06 0 0)
(9.69685e-06 0 0)
(9.69685e-06 0 0)
(9.69686e-06 0 0)
(9.69686e-06 0 0)
(9.69685e-06 0 0)
(9.69684e-06 0 0)
(9.69683e-06 0 0)
(9.69681e-06 0 0)
(9.69679e-06 0 0)
(9.69677e-06 0 0)
(9.69674e-06 0 0)
(9.69671e-06 0 0)
(9.69668e-06 0 0)
(9.69664e-06 0 0)
(9.69661e-06 0 0)
(9.69656e-06 0 0)
(9.69652e-06 0 0)
(9.69647e-06 0 0)
(9.69642e-06 0 0)
(9.69637e-06 0 0)
(9.69632e-06 0 0)
(9.69626e-06 0 0)
(9.6962e-06 0 0)
(9.69613e-06 0 0)
(9.69606e-06 0 0)
(9.69599e-06 0 0)
(9.69591e-06 0 0)
(9.69583e-06 0 0)
(9.69575e-06 0 0)
(9.69566e-06 0 0)
(9.69557e-06 0 0)
(9.69547e-06 0 0)
(9.69537e-06 0 0)
(9.69526e-06 0 0)
(9.69515e-06 0 0)
(9.69503e-06 0 0)
(9.6949e-06 0 0)
(9.69477e-06 0 0)
(9.69462e-06 0 0)
(9.69448e-06 0 0)
(9.69432e-06 0 0)
(9.69415e-06 0 0)
(9.69397e-06 0 0)
(9.69378e-06 0 0)
(9.69359e-06 0 0)
(9.69338e-06 0 0)
(9.69316e-06 0 0)
(9.69292e-06 0 0)
(9.69268e-06 0 0)
(9.69243e-06 0 0)
(9.69216e-06 0 0)
(9.69188e-06 0 0)
(9.69158e-06 0 0)
(9.69127e-06 0 0)
(9.69095e-06 0 0)
(9.69062e-06 0 0)
(9.69028e-06 0 0)
(9.68992e-06 0 0)
(9.68955e-06 0 0)
(9.68917e-06 0 0)
(9.68878e-06 0 0)
(9.68839e-06 0 0)
(9.68798e-06 0 0)
)
;

boundaryField
{
    inlet
    {
        type            fixedValue;
        value           uniform (0 0 0);
    }
    outlet
    {
        type            zeroGradient;
    }
    emptyWalls
    {
        type            empty;
    }
}


// ************************************************************************* //
