/*--------------------------------*- C++ -*----------------------------------*\
  =========                 |
  \\      /  F ield         | OpenFOAM: The Open Source CFD Toolbox
   \\    /   O peration     | Website:  https://openfoam.org
    \\  /    A nd           | Version:  9
     \\/     M anipulation  |
\*---------------------------------------------------------------------------*/
FoamFile
{
    format      ascii;
    class       volScalarField;
    location    "5600";
    object      Fa;
}
// * * * * * * * * * * * * * * * * * * * * * * * * * * * * * * * * * * * * * //

dimensions      [0 0 0 0 0 0 0];

internalField   nonuniform List<scalar> 
1000
(
0.194357
0.195389
0.194059
0.194986
0.193765
0.19402
0.191677
0.174006
0.154082
0.150488
0.148995
0.148034
0.147397
0.146864
0.146483
0.146167
0.14589
0.145679
0.145341
0.145092
0.144897
0.144855
0.144808
0.144757
0.144703
0.144648
0.144592
0.144537
0.144481
0.144426
0.144371
0.144316
0.144261
0.144207
0.144153
0.1441
0.144049
0.144001
0.143955
0.143912
0.143871
0.143834
0.143799
0.143766
0.143736
0.143707
0.14368
0.143653
0.143628
0.143602
0.143577
0.143551
0.143525
0.143498
0.14347
0.143441
0.14341
0.143379
0.143346
0.143312
0.143278
0.143242
0.143206
0.143171
0.143138
0.143107
0.14308
0.143056
0.143036
0.143017
0.142999
0.142981
0.142962
0.142944
0.142928
0.142918
0.142917
0.142929
0.142956
0.143002
0.143068
0.143152
0.143256
0.143375
0.143507
0.143648
0.143794
0.143939
0.144078
0.144205
0.144314
0.144399
0.144453
0.144472
0.144451
0.144385
0.144275
0.144119
0.14392
0.143683
0.143414
0.14312
0.142811
0.142495
0.142182
0.14188
0.141597
0.141338
0.141107
0.140906
0.140737
0.140598
0.140488
0.140404
0.140342
0.140299
0.140271
0.140253
0.140243
0.140238
0.140234
0.140229
0.140221
0.14021
0.140193
0.140172
0.140143
0.14011
0.14007
0.140027
0.139976
0.139923
0.139864
0.139804
0.139738
0.139672
0.139601
0.13953
0.139456
0.13938
0.139304
0.139226
0.139147
0.139066
0.138986
0.138904
0.138822
0.13874
0.138657
0.138574
0.13849
0.138407
0.138324
0.138242
0.138159
0.138077
0.137996
0.137915
0.137835
0.137756
0.137677
0.1376
0.137523
0.137447
0.137371
0.137297
0.137224
0.137151
0.137079
0.137007
0.136938
0.136867
0.1368
0.136729
0.136664
0.136592
0.136531
0.136456
0.1364
0.136322
0.136268
0.136189
0.136135
0.136058
0.136
0.135928
0.135862
0.135799
0.135725
0.135667
0.135591
0.135531
0.135459
0.135392
0.135329
0.135255
0.135195
0.135123
0.135059
0.134995
0.134925
0.134866
0.134797
0.134736
0.134676
0.134611
0.134556
0.134495
0.134441
0.134391
0.134336
0.134294
0.134249
0.134209
0.134177
0.134139
0.134111
0.134072
0.134026
0.13396
0.133845
0.133669
0.133377
0.132963
0.132444
0.131921
0.131534
0.131301
0.131198
0.131154
0.131144
0.13115
0.131157
0.131178
0.131193
0.13121
0.131229
0.13125
0.13127
0.131292
0.131313
0.131336
0.13136
0.131384
0.13141
0.131438
0.131467
0.131498
0.131531
0.131567
0.131605
0.131647
0.131692
0.131741
0.131794
0.131852
0.131914
0.131981
0.132052
0.132129
0.13221
0.132295
0.132385
0.132478
0.132574
0.132674
0.132774
0.132876
0.132978
0.133078
0.133177
0.133272
0.133363
0.133448
0.133525
0.133593
0.133651
0.133697
0.13373
0.133748
0.133754
0.133754
0.133752
0.133735
0.133685
0.13362
0.133543
0.133455
0.133356
0.133249
0.133134
0.133014
0.132891
0.132765
0.13264
0.132517
0.132398
0.132283
0.132175
0.132075
0.131983
0.1319
0.131826
0.131762
0.131707
0.131661
0.131625
0.131596
0.131575
0.131561
0.131553
0.13155
0.13155
0.131551
0.131555
0.131568
0.131582
0.131596
0.131611
0.131626
0.131641
0.131655
0.131667
0.131678
0.131688
0.131696
0.131702
0.131707
0.13171
0.131711
0.131711
0.131711
0.13171
0.131705
0.131698
0.13169
0.131682
0.131672
0.131661
0.131649
0.131636
0.131623
0.131609
0.131594
0.131578
0.131563
0.131546
0.131529
0.131512
0.131494
0.131476
0.131458
0.131439
0.13142
0.131401
0.131382
0.131362
0.131343
0.131323
0.131303
0.131283
0.131264
0.131244
0.131224
0.131205
0.131185
0.131166
0.131147
0.131129
0.131111
0.131093
0.131076
0.131059
0.131043
0.131027
0.131012
0.130998
0.130984
0.130971
0.130959
0.130947
0.130936
0.130926
0.130916
0.130907
0.130899
0.130892
0.130885
0.130879
0.130873
0.130868
0.130864
0.13086
0.130856
0.130853
0.13085
0.130848
0.130846
0.130845
0.130844
0.130843
0.130842
0.130841
0.130841
0.130841
0.130841
0.130841
0.130841
0.130841
0.130841
0.130842
0.130843
0.130844
0.130845
0.130846
0.130848
0.130849
0.130852
0.130854
0.130857
0.13086
0.130864
0.130868
0.130873
0.130879
0.130885
0.130891
0.130899
0.130907
0.130916
0.130926
0.130937
0.130948
0.13096
0.130974
0.130988
0.131003
0.131019
0.131036
0.131054
0.131072
0.131092
0.131113
0.131134
0.131156
0.13118
0.131204
0.131229
0.131255
0.131282
0.13131
0.131339
0.131369
0.1314
0.131433
0.131467
0.131503
0.13154
0.131579
0.13162
0.131663
0.131709
0.131756
0.131807
0.131859
0.131915
0.131973
0.132035
0.132098
0.132165
0.132235
0.132307
0.132381
0.132458
0.132536
0.132616
0.132697
0.132779
0.13286
0.132942
0.133021
0.1331
0.133175
0.133247
0.133315
0.133378
0.133435
0.133486
0.13353
0.133565
0.133592
0.133609
0.133617
0.133618
0.133617
0.133613
0.133585
0.133543
0.133491
0.133429
0.133358
0.133279
0.133194
0.133102
0.133006
0.132906
0.132803
0.1327
0.132597
0.132495
0.132396
0.1323
0.132209
0.132122
0.132041
0.131966
0.131897
0.131834
0.131778
0.131728
0.131684
0.131646
0.131614
0.131586
0.131564
0.131546
0.131532
0.131521
0.131513
0.131507
0.131503
0.131501
0.1315
0.1315
0.1315
0.1315
0.131502
0.131502
0.131503
0.131503
0.131503
0.131503
0.131501
0.131498
0.131494
0.131489
0.131483
0.131476
0.131468
0.13146
0.131451
0.131441
0.131431
0.13142
0.131408
0.131397
0.131385
0.131372
0.131359
0.131347
0.131334
0.13132
0.131307
0.131294
0.131281
0.131267
0.131254
0.13124
0.131227
0.131213
0.1312
0.131186
0.131173
0.13116
0.131146
0.131133
0.13112
0.131106
0.131093
0.13108
0.131067
0.131054
0.131041
0.131028
0.131016
0.131003
0.130991
0.130978
0.130966
0.130954
0.130943
0.130931
0.13092
0.130909
0.130899
0.130889
0.130879
0.130869
0.13086
0.130852
0.130844
0.130836
0.130829
0.130822
0.130816
0.13081
0.130805
0.130801
0.130797
0.130794
0.130791
0.130789
0.130787
0.130786
0.130785
0.130785
0.130785
0.130785
0.130786
0.130787
0.130789
0.130792
0.130794
0.130797
0.130801
0.130804
0.130808
0.130812
0.130817
0.130821
0.130825
0.13083
0.130835
0.13084
0.130845
0.13085
0.130855
0.13086
0.130866
0.130871
0.130877
0.130883
0.13089
0.130897
0.130904
0.130911
0.13092
0.130928
0.130938
0.130948
0.130958
0.13097
0.130982
0.130996
0.13101
0.131026
0.131042
0.13106
0.131079
0.1311
0.131122
0.131145
0.13117
0.131196
0.131225
0.131255
0.131286
0.13132
0.131356
0.131393
0.131433
0.131475
0.131519
0.131565
0.131614
0.131664
0.131718
0.131773
0.131831
0.13189
0.131952
0.132016
0.132082
0.132149
0.132219
0.132289
0.132361
0.132433
0.132506
0.132578
0.132651
0.132723
0.132793
0.132862
0.132929
0.132993
0.133054
0.13311
0.133163
0.13321
0.133252
0.133288
0.133317
0.133339
0.133354
0.13336
0.133361
0.133361
0.133358
0.133339
0.133305
0.133264
0.133215
0.133158
0.133095
0.133026
0.132951
0.132872
0.132789
0.132703
0.132615
0.132526
0.132437
0.132349
0.132262
0.132178
0.132097
0.132019
0.131945
0.131876
0.131811
0.131751
0.131697
0.131647
0.131602
0.131563
0.131528
0.131497
0.131471
0.131449
0.13143
0.131415
0.131402
0.131393
0.131385
0.13138
0.131376
0.131374
0.131372
0.131372
0.131372
0.131372
0.131373
0.131374
0.131375
0.131376
0.131377
0.131378
0.131378
0.131378
0.131378
0.131377
0.131375
0.131373
0.13137
0.131367
0.131364
0.13136
0.131356
0.131352
0.131348
0.131343
0.131339
0.131334
0.131329
0.131324
0.13132
0.131315
0.13131
0.131306
0.131301
0.131297
0.131292
0.131288
0.131284
0.131279
0.131275
0.131271
0.131267
0.131262
0.131258
0.131254
0.131249
0.131245
0.13124
0.131235
0.13123
0.131225
0.131219
0.131213
0.131207
0.131201
0.131194
0.131187
0.13118
0.131172
0.131165
0.131156
0.131148
0.131139
0.13113
0.131121
0.131111
0.131101
0.131091
0.131081
0.131071
0.13106
0.13105
0.131039
0.131029
0.131019
0.131008
0.130998
0.130988
0.130978
0.130969
0.13096
0.130951
0.130942
0.130934
0.130927
0.13092
0.130914
0.130908
0.130903
0.130899
0.130895
0.130892
0.13089
0.130889
0.130888
0.130888
0.130888
0.130888
0.13089
0.130892
0.130897
0.130901
0.130906
0.130911
0.130918
0.130925
0.130933
0.130941
0.13095
0.130959
0.130969
0.130979
0.13099
0.131
0.131012
0.131024
0.131037
0.131049
0.131062
0.131076
0.13109
0.131104
0.13112
0.131135
0.131152
0.131168
0.131187
0.131205
0.131225
0.131245
0.131268
0.131291
0.131316
0.131341
0.13137
0.131398
0.13143
0.131463
0.131499
0.131535
0.131576
0.131616
0.131663
0.131707
0.131758
0.131807
0.131864
0.131916
0.131978
0.132035
0.132101
0.132161
0.132231
0.132293
0.132367
0.132432
0.132505
0.132568
0.132648
0.132711
0.132778
0.132844
0.132926
0.132967
0.133025
0.133102
0.133162
0.133154
0.13309
0.131954
0.128121
0.064563
0.00123316
6.88544e-08
2.67901e-17
1.61362e-37
1.26854e-80
1.30849e-172
0
0
0
0
0
0
0
0
0
0
0
0
0
0
0
0
0
0
0
0
0
0
0
0
0
0
0
0
0
0
0
0
0
0
0
0
0
0
0
0
0
0
0
0
0
0
0
0
0
0
0
0
0
0
0
0
0
0
0
0
0
0
0
0
0
0
0
0
0
0
0
0
0
0
0
)
;

boundaryField
{
    inlet
    {
        type            calculated;
        value           uniform 0.194831;
    }
    outlet
    {
        type            calculated;
        value           uniform 0;
    }
    emptyWalls
    {
        type            empty;
    }
}


// ************************************************************************* //
