/*--------------------------------*- C++ -*----------------------------------*\
  =========                 |
  \\      /  F ield         | OpenFOAM: The Open Source CFD Toolbox
   \\    /   O peration     | Website:  https://openfoam.org
    \\  /    A nd           | Version:  9
     \\/     M anipulation  |
\*---------------------------------------------------------------------------*/
FoamFile
{
    format      ascii;
    class       surfaceScalarField;
    location    "5600";
    object      phia;
}
// * * * * * * * * * * * * * * * * * * * * * * * * * * * * * * * * * * * * * //

dimensions      [0 2 0 0 0 0 0];

internalField   nonuniform List<scalar> 
999
(
2.74993e-10
2.74763e-10
2.74495e-10
2.74274e-10
2.73605e-10
2.72062e-10
2.65547e-10
2.2677e-10
2.14745e-10
2.11284e-10
2.09564e-10
2.0844e-10
2.07615e-10
2.06989e-10
2.0649e-10
2.0606e-10
2.05691e-10
2.05296e-10
2.04915e-10
2.04602e-10
2.04435e-10
2.04372e-10
2.04303e-10
2.04229e-10
2.04152e-10
2.04074e-10
2.03995e-10
2.03917e-10
2.03839e-10
2.03761e-10
2.03683e-10
2.03606e-10
2.03529e-10
2.03452e-10
2.03377e-10
2.03304e-10
2.03234e-10
2.03167e-10
2.03104e-10
2.03045e-10
2.0299e-10
2.02939e-10
2.02892e-10
2.02847e-10
2.02806e-10
2.02766e-10
2.02728e-10
2.02691e-10
2.02655e-10
2.02619e-10
2.02583e-10
2.02547e-10
2.02509e-10
2.0247e-10
2.0243e-10
2.02388e-10
2.02344e-10
2.02299e-10
2.02252e-10
2.02204e-10
2.02154e-10
2.02104e-10
2.02054e-10
2.02005e-10
2.0196e-10
2.01919e-10
2.01883e-10
2.01852e-10
2.01824e-10
2.01799e-10
2.01773e-10
2.01747e-10
2.01721e-10
2.01697e-10
2.01679e-10
2.01671e-10
2.01678e-10
2.01706e-10
2.01758e-10
2.01836e-10
2.01942e-10
2.02075e-10
2.02232e-10
2.02409e-10
2.02602e-10
2.02805e-10
2.0301e-10
2.03211e-10
2.03398e-10
2.03565e-10
2.03701e-10
2.038e-10
2.03851e-10
2.03849e-10
2.03788e-10
2.03664e-10
2.03477e-10
2.03227e-10
2.02919e-10
2.02562e-10
2.02164e-10
2.01739e-10
2.01298e-10
2.00854e-10
2.0042e-10
2.00007e-10
1.99625e-10
1.99279e-10
1.98975e-10
1.98714e-10
1.98496e-10
1.98321e-10
1.98184e-10
1.98081e-10
1.98007e-10
1.97956e-10
1.97924e-10
1.97905e-10
1.97894e-10
1.97887e-10
1.9788e-10
1.97872e-10
1.97858e-10
1.97838e-10
1.97811e-10
1.97776e-10
1.97733e-10
1.97681e-10
1.97622e-10
1.97556e-10
1.97483e-10
1.97404e-10
1.9732e-10
1.97231e-10
1.97138e-10
1.97041e-10
1.96941e-10
1.96838e-10
1.96733e-10
1.96626e-10
1.96517e-10
1.96406e-10
1.96293e-10
1.9618e-10
1.96065e-10
1.9595e-10
1.95834e-10
1.95717e-10
1.956e-10
1.95483e-10
1.95365e-10
1.95248e-10
1.95131e-10
1.95015e-10
1.94899e-10
1.94784e-10
1.9467e-10
1.94556e-10
1.94444e-10
1.94332e-10
1.94222e-10
1.94113e-10
1.94005e-10
1.93898e-10
1.93792e-10
1.93688e-10
1.93585e-10
1.93483e-10
1.93382e-10
1.93282e-10
1.93183e-10
1.93086e-10
1.92988e-10
1.92892e-10
1.92796e-10
1.92702e-10
1.92606e-10
1.92513e-10
1.92419e-10
1.92326e-10
1.92232e-10
1.92138e-10
1.92046e-10
1.9195e-10
1.91859e-10
1.91762e-10
1.9167e-10
1.91574e-10
1.9148e-10
1.91386e-10
1.9129e-10
1.91197e-10
1.91099e-10
1.91007e-10
1.9091e-10
1.90816e-10
1.90723e-10
1.90627e-10
1.90537e-10
1.90442e-10
1.90351e-10
1.90261e-10
1.90169e-10
1.90084e-10
1.89995e-10
1.89911e-10
1.8983e-10
1.89748e-10
1.89674e-10
1.896e-10
1.89533e-10
1.89471e-10
1.89411e-10
1.8936e-10
1.8931e-10
1.89263e-10
1.89216e-10
1.89156e-10
1.89077e-10
1.8895e-10
1.88745e-10
1.88416e-10
1.8792e-10
1.87263e-10
1.86527e-10
1.85883e-10
1.85444e-10
1.85206e-10
1.85103e-10
1.85064e-10
1.85061e-10
1.85071e-10
1.85091e-10
1.85114e-10
1.85138e-10
1.85164e-10
1.85192e-10
1.85221e-10
1.8525e-10
1.85281e-10
1.85312e-10
1.85345e-10
1.85379e-10
1.85415e-10
1.85452e-10
1.85492e-10
1.85534e-10
1.8558e-10
1.85628e-10
1.85681e-10
1.85737e-10
1.85799e-10
1.85865e-10
1.85937e-10
1.86016e-10
1.861e-10
1.86191e-10
1.86289e-10
1.86393e-10
1.86504e-10
1.86622e-10
1.86745e-10
1.86874e-10
1.87008e-10
1.87146e-10
1.87287e-10
1.8743e-10
1.87573e-10
1.87716e-10
1.87856e-10
1.87993e-10
1.88124e-10
1.88248e-10
1.88362e-10
1.88465e-10
1.88554e-10
1.88628e-10
1.88683e-10
1.88719e-10
1.88736e-10
1.8874e-10
1.88741e-10
1.88731e-10
1.88678e-10
1.88597e-10
1.88497e-10
1.8838e-10
1.88248e-10
1.88103e-10
1.87946e-10
1.87781e-10
1.87609e-10
1.87434e-10
1.87257e-10
1.87082e-10
1.86911e-10
1.86746e-10
1.86589e-10
1.86442e-10
1.86306e-10
1.86182e-10
1.86071e-10
1.85974e-10
1.8589e-10
1.85819e-10
1.85761e-10
1.85715e-10
1.8568e-10
1.85656e-10
1.8564e-10
1.85633e-10
1.85631e-10
1.85631e-10
1.85633e-10
1.85647e-10
1.85665e-10
1.85685e-10
1.85706e-10
1.85728e-10
1.85748e-10
1.85768e-10
1.85787e-10
1.85803e-10
1.85818e-10
1.8583e-10
1.85841e-10
1.85848e-10
1.85854e-10
1.85856e-10
1.85857e-10
1.85857e-10
1.85857e-10
1.85852e-10
1.85844e-10
1.85834e-10
1.85822e-10
1.85809e-10
1.85794e-10
1.85778e-10
1.85761e-10
1.85742e-10
1.85723e-10
1.85702e-10
1.85681e-10
1.85659e-10
1.85636e-10
1.85613e-10
1.85589e-10
1.85564e-10
1.85539e-10
1.85513e-10
1.85487e-10
1.85461e-10
1.85434e-10
1.85407e-10
1.85379e-10
1.85352e-10
1.85324e-10
1.85296e-10
1.85268e-10
1.8524e-10
1.85212e-10
1.85184e-10
1.85157e-10
1.85129e-10
1.85102e-10
1.85075e-10
1.85049e-10
1.85023e-10
1.84998e-10
1.84973e-10
1.84949e-10
1.84926e-10
1.84904e-10
1.84882e-10
1.84861e-10
1.84842e-10
1.84823e-10
1.84805e-10
1.84788e-10
1.84772e-10
1.84757e-10
1.84743e-10
1.8473e-10
1.84718e-10
1.84707e-10
1.84697e-10
1.84687e-10
1.84679e-10
1.84671e-10
1.84665e-10
1.84659e-10
1.84653e-10
1.84649e-10
1.84645e-10
1.84642e-10
1.84639e-10
1.84636e-10
1.84634e-10
1.84633e-10
1.84631e-10
1.84631e-10
1.8463e-10
1.84629e-10
1.84629e-10
1.84629e-10
1.84629e-10
1.84629e-10
1.8463e-10
1.84631e-10
1.84632e-10
1.84633e-10
1.84634e-10
1.84636e-10
1.84638e-10
1.84641e-10
1.84643e-10
1.84647e-10
1.8465e-10
1.84655e-10
1.8466e-10
1.84665e-10
1.84672e-10
1.84679e-10
1.84687e-10
1.84696e-10
1.84706e-10
1.84717e-10
1.84729e-10
1.84743e-10
1.84757e-10
1.84773e-10
1.84789e-10
1.84808e-10
1.84827e-10
1.84848e-10
1.8487e-10
1.84893e-10
1.84917e-10
1.84943e-10
1.8497e-10
1.84999e-10
1.85028e-10
1.85059e-10
1.85091e-10
1.85125e-10
1.85159e-10
1.85195e-10
1.85233e-10
1.85271e-10
1.85312e-10
1.85353e-10
1.85397e-10
1.85442e-10
1.85489e-10
1.85538e-10
1.8559e-10
1.85644e-10
1.857e-10
1.85759e-10
1.85822e-10
1.85888e-10
1.85957e-10
1.86029e-10
1.86106e-10
1.86186e-10
1.86271e-10
1.86359e-10
1.86451e-10
1.86547e-10
1.86647e-10
1.86751e-10
1.86857e-10
1.86966e-10
1.87078e-10
1.87192e-10
1.87306e-10
1.87422e-10
1.87536e-10
1.8765e-10
1.87762e-10
1.8787e-10
1.87974e-10
1.88073e-10
1.88165e-10
1.8825e-10
1.88327e-10
1.88393e-10
1.88449e-10
1.88493e-10
1.88524e-10
1.88541e-10
1.88547e-10
1.88548e-10
1.88545e-10
1.8853e-10
1.88473e-10
1.88406e-10
1.88325e-10
1.88232e-10
1.88126e-10
1.8801e-10
1.87885e-10
1.87752e-10
1.87614e-10
1.87471e-10
1.87326e-10
1.8718e-10
1.87036e-10
1.86894e-10
1.86757e-10
1.86624e-10
1.86499e-10
1.8638e-10
1.8627e-10
1.86168e-10
1.86075e-10
1.85991e-10
1.85916e-10
1.8585e-10
1.85792e-10
1.85743e-10
1.85701e-10
1.85666e-10
1.85637e-10
1.85614e-10
1.85597e-10
1.85583e-10
1.85573e-10
1.85567e-10
1.85563e-10
1.85561e-10
1.8556e-10
1.8556e-10
1.8556e-10
1.85561e-10
1.85562e-10
1.85563e-10
1.85564e-10
1.85564e-10
1.85564e-10
1.85563e-10
1.85559e-10
1.85554e-10
1.85547e-10
1.8554e-10
1.85531e-10
1.8552e-10
1.85509e-10
1.85497e-10
1.85483e-10
1.85469e-10
1.85454e-10
1.85438e-10
1.85422e-10
1.85405e-10
1.85388e-10
1.8537e-10
1.85352e-10
1.85334e-10
1.85316e-10
1.85297e-10
1.85278e-10
1.85259e-10
1.8524e-10
1.85221e-10
1.85202e-10
1.85183e-10
1.85164e-10
1.85146e-10
1.85127e-10
1.85108e-10
1.85089e-10
1.8507e-10
1.85051e-10
1.85032e-10
1.85014e-10
1.84995e-10
1.84976e-10
1.84958e-10
1.8494e-10
1.84921e-10
1.84903e-10
1.84885e-10
1.84867e-10
1.8485e-10
1.84832e-10
1.84815e-10
1.84798e-10
1.84782e-10
1.84765e-10
1.84749e-10
1.84734e-10
1.84719e-10
1.84704e-10
1.8469e-10
1.84676e-10
1.84663e-10
1.84651e-10
1.84639e-10
1.84628e-10
1.84618e-10
1.84608e-10
1.84599e-10
1.84591e-10
1.84583e-10
1.84576e-10
1.8457e-10
1.84565e-10
1.84561e-10
1.84557e-10
1.84554e-10
1.84552e-10
1.84551e-10
1.84551e-10
1.8455e-10
1.8455e-10
1.84551e-10
1.84553e-10
1.84555e-10
1.84558e-10
1.84562e-10
1.84566e-10
1.84571e-10
1.84576e-10
1.84581e-10
1.84586e-10
1.84592e-10
1.84598e-10
1.84605e-10
1.84611e-10
1.84618e-10
1.84624e-10
1.84631e-10
1.84638e-10
1.84646e-10
1.84653e-10
1.84661e-10
1.84669e-10
1.84677e-10
1.84685e-10
1.84694e-10
1.84704e-10
1.84713e-10
1.84724e-10
1.84735e-10
1.84747e-10
1.8476e-10
1.84773e-10
1.84788e-10
1.84804e-10
1.8482e-10
1.84839e-10
1.84858e-10
1.84879e-10
1.84902e-10
1.84926e-10
1.84952e-10
1.8498e-10
1.8501e-10
1.85042e-10
1.85076e-10
1.85113e-10
1.85151e-10
1.85192e-10
1.85236e-10
1.85282e-10
1.85331e-10
1.85383e-10
1.85437e-10
1.85495e-10
1.85555e-10
1.85619e-10
1.85686e-10
1.85756e-10
1.85829e-10
1.85906e-10
1.85985e-10
1.86068e-10
1.86154e-10
1.86243e-10
1.86334e-10
1.86429e-10
1.86525e-10
1.86623e-10
1.86724e-10
1.86825e-10
1.86927e-10
1.8703e-10
1.87133e-10
1.87235e-10
1.87335e-10
1.87433e-10
1.87529e-10
1.87621e-10
1.87709e-10
1.87792e-10
1.87869e-10
1.87939e-10
1.88002e-10
1.88057e-10
1.88103e-10
1.88139e-10
1.88165e-10
1.8818e-10
1.88185e-10
1.88186e-10
1.88184e-10
1.88174e-10
1.88131e-10
1.88078e-10
1.88014e-10
1.8794e-10
1.87855e-10
1.87762e-10
1.8766e-10
1.87551e-10
1.87437e-10
1.87317e-10
1.87195e-10
1.8707e-10
1.86945e-10
1.8682e-10
1.86696e-10
1.86576e-10
1.86459e-10
1.86347e-10
1.8624e-10
1.86139e-10
1.86044e-10
1.85956e-10
1.85876e-10
1.85802e-10
1.85736e-10
1.85676e-10
1.85623e-10
1.85577e-10
1.85537e-10
1.85503e-10
1.85474e-10
1.8545e-10
1.85431e-10
1.85415e-10
1.85403e-10
1.85394e-10
1.85387e-10
1.85383e-10
1.8538e-10
1.85379e-10
1.85379e-10
1.85379e-10
1.85379e-10
1.85381e-10
1.85383e-10
1.85385e-10
1.85386e-10
1.85387e-10
1.85387e-10
1.85387e-10
1.85387e-10
1.85387e-10
1.85385e-10
1.85382e-10
1.85378e-10
1.85374e-10
1.8537e-10
1.85365e-10
1.8536e-10
1.85354e-10
1.85348e-10
1.85342e-10
1.85335e-10
1.85329e-10
1.85322e-10
1.85315e-10
1.85309e-10
1.85302e-10
1.85295e-10
1.85289e-10
1.85282e-10
1.85276e-10
1.8527e-10
1.85264e-10
1.85257e-10
1.85251e-10
1.85245e-10
1.85239e-10
1.85233e-10
1.85227e-10
1.85221e-10
1.85215e-10
1.85209e-10
1.85203e-10
1.85196e-10
1.85189e-10
1.85182e-10
1.85175e-10
1.85167e-10
1.85159e-10
1.85151e-10
1.85142e-10
1.85133e-10
1.85123e-10
1.85113e-10
1.85103e-10
1.85092e-10
1.85081e-10
1.85069e-10
1.85057e-10
1.85044e-10
1.85031e-10
1.85018e-10
1.85004e-10
1.8499e-10
1.84976e-10
1.84961e-10
1.84947e-10
1.84932e-10
1.84917e-10
1.84902e-10
1.84888e-10
1.84873e-10
1.84858e-10
1.84844e-10
1.8483e-10
1.84817e-10
1.84803e-10
1.84791e-10
1.84779e-10
1.84767e-10
1.84756e-10
1.84746e-10
1.84737e-10
1.84729e-10
1.84721e-10
1.84714e-10
1.84709e-10
1.84704e-10
1.847e-10
1.84698e-10
1.84696e-10
1.84696e-10
1.84696e-10
1.84696e-10
1.84697e-10
1.84701e-10
1.84705e-10
1.84711e-10
1.84718e-10
1.84725e-10
1.84734e-10
1.84744e-10
1.84754e-10
1.84765e-10
1.84777e-10
1.8479e-10
1.84803e-10
1.84817e-10
1.84832e-10
1.84847e-10
1.84863e-10
1.8488e-10
1.84897e-10
1.84914e-10
1.84933e-10
1.84952e-10
1.84971e-10
1.84991e-10
1.85012e-10
1.85034e-10
1.85056e-10
1.8508e-10
1.85105e-10
1.8513e-10
1.85158e-10
1.85186e-10
1.85216e-10
1.85248e-10
1.85282e-10
1.85318e-10
1.85356e-10
1.85396e-10
1.85439e-10
1.85484e-10
1.85533e-10
1.85584e-10
1.85638e-10
1.85696e-10
1.85756e-10
1.8582e-10
1.85888e-10
1.85959e-10
1.86033e-10
1.8611e-10
1.86191e-10
1.86274e-10
1.86361e-10
1.8645e-10
1.86542e-10
1.86635e-10
1.8673e-10
1.86828e-10
1.86926e-10
1.87022e-10
1.87123e-10
1.87224e-10
1.87315e-10
1.87409e-10
1.87514e-10
1.87601e-10
1.87671e-10
1.87766e-10
1.87863e-10
1.87905e-10
1.87871e-10
1.87624e-10
1.83501e-10
1.69846e-10
4.74707e-11
8.69395e-13
4.85796e-17
1.89017e-26
1.13849e-46
8.95019e-90
9.23208e-182
0
0
0
0
0
0
0
0
0
0
0
0
0
0
0
0
0
0
0
0
0
0
0
0
0
0
0
0
0
0
0
0
0
0
0
0
0
0
0
0
0
0
0
0
0
0
0
0
0
0
0
0
0
0
0
0
0
0
0
0
0
0
0
0
0
0
0
0
0
0
0
0
0
0
)
;

boundaryField
{
    inlet
    {
        type            calculated;
        value           uniform -2.74882e-10;
    }
    outlet
    {
        type            calculated;
        value           uniform 0;
    }
    emptyWalls
    {
        type            empty;
        value           nonuniform List<scalar> 0();
    }
}


// ************************************************************************* //
