/*--------------------------------*- C++ -*----------------------------------*\
  =========                 |
  \\      /  F ield         | OpenFOAM: The Open Source CFD Toolbox
   \\    /   O peration     | Website:  https://openfoam.org
    \\  /    A nd           | Version:  9
     \\/     M anipulation  |
\*---------------------------------------------------------------------------*/
FoamFile
{
    format      ascii;
    class       volScalarField;
    location    "7150";
    object      krb;
}
// * * * * * * * * * * * * * * * * * * * * * * * * * * * * * * * * * * * * * //

dimensions      [0 0 0 0 0 0 0];

internalField   nonuniform List<scalar> 
1000
(
0.0984612
0.0997132
0.101847
0.103157
0.104972
0.106126
0.107701
0.110358
0.11927
0.172216
0.410228
0.487283
0.507785
0.516805
0.52196
0.525253
0.52743
0.528888
0.529835
0.530406
0.530729
0.530762
0.530547
0.529929
0.528784
0.526842
0.523783
0.519522
0.514542
0.509269
0.503881
0.498477
0.493113
0.487824
0.482627
0.477532
0.472544
0.467665
0.462893
0.458227
0.453666
0.449206
0.444844
0.440577
0.436402
0.432317
0.428317
0.4244
0.420563
0.416804
0.413119
0.409506
0.405963
0.402488
0.399077
0.395729
0.392443
0.389215
0.386044
0.382928
0.379867
0.376856
0.373897
0.370986
0.368123
0.365306
0.362533
0.359804
0.357117
0.354471
0.351864
0.349297
0.346767
0.344274
0.341817
0.339394
0.337005
0.334649
0.332325
0.330033
0.32777
0.325538
0.323334
0.321159
0.319012
0.316891
0.314797
0.312729
0.310685
0.308666
0.306671
0.304699
0.30275
0.300823
0.298917
0.297033
0.295169
0.293326
0.291503
0.289699
0.287914
0.286148
0.284399
0.282668
0.280953
0.279255
0.277573
0.275906
0.274254
0.272617
0.270995
0.269387
0.267795
0.266216
0.264653
0.263103
0.261569
0.260049
0.258545
0.257055
0.25558
0.254121
0.252676
0.251247
0.249832
0.248432
0.247046
0.245673
0.244313
0.242966
0.24163
0.240305
0.23899
0.237684
0.236388
0.2351
0.23382
0.232548
0.231284
0.230027
0.228778
0.227536
0.226302
0.225075
0.223856
0.222644
0.22144
0.220244
0.219056
0.217875
0.216702
0.215537
0.21438
0.21323
0.212087
0.210952
0.209824
0.208703
0.207589
0.206482
0.205382
0.204288
0.2032
0.202119
0.201044
0.199975
0.198913
0.197855
0.196804
0.195758
0.194718
0.193683
0.192653
0.191629
0.190609
0.189595
0.188586
0.187581
0.186581
0.185586
0.184596
0.18361
0.182629
0.181652
0.180679
0.17971
0.178746
0.177785
0.176829
0.175877
0.174928
0.173983
0.173042
0.172104
0.17117
0.170239
0.169312
0.168388
0.167467
0.16655
0.165635
0.164724
0.163815
0.162909
0.162007
0.161106
0.160209
0.159314
0.158422
0.157532
0.156644
0.155759
0.154876
0.153995
0.153116
0.152239
0.151364
0.150491
0.149619
0.14875
0.147882
0.147015
0.14615
0.145287
0.144425
0.143564
0.142704
0.141846
0.140988
0.140132
0.139276
0.138422
0.137568
0.136714
0.135862
0.135009
0.134157
0.133306
0.132455
0.131603
0.130753
0.129902
0.129051
0.128199
0.127348
0.126496
0.125643
0.12479
0.123937
0.123083
0.122228
0.121373
0.120517
0.11966
0.118802
0.117944
0.117086
0.116227
0.115369
0.114512
0.113656
0.112803
0.111953
0.111108
0.110271
0.109444
0.108629
0.10783
0.107051
0.106297
0.105572
0.104882
0.104231
0.103621
0.103055
0.10253
0.102041
0.101569
0.101086
0.100536
0.09982
0.0987737
0.0971251
0.0944592
0.0902226
0.083873
0.0752766
0.0652048
0.0553112
0.0472197
0.0415878
0.0381155
0.0361385
0.0350652
0.0344975
0.0342016
0.0340485
0.0339695
0.0339289
0.0339081
0.0338974
0.033892
0.0338894
0.0338882
0.0338877
0.0338876
0.0338878
0.0338882
0.0338886
0.0338891
0.0338896
0.0338901
0.0338907
0.0338912
0.0338918
0.0338923
0.0338929
0.0338934
0.0338939
0.0338944
0.0338948
0.0338952
0.0338955
0.0338958
0.0338961
0.0338963
0.0338965
0.0338967
0.0338968
0.0338969
0.0338969
0.033897
0.033897
0.033897
0.033897
0.033897
0.033897
0.033897
0.0338969
0.0338969
0.0338969
0.0338968
0.0338968
0.0338968
0.0338967
0.0338967
0.0338967
0.0338967
0.0338967
0.0338968
0.0338968
0.0338968
0.0338968
0.0338969
0.0338969
0.0338969
0.0338969
0.033897
0.033897
0.033897
0.0338971
0.0338971
0.0338971
0.0338972
0.0338972
0.0338972
0.0338972
0.0338972
0.0338972
0.0338972
0.0338972
0.0338972
0.0338971
0.0338971
0.0338971
0.0338971
0.033897
0.033897
0.033897
0.0338969
0.0338969
0.0338968
0.0338968
0.0338967
0.0338967
0.0338966
0.0338966
0.0338965
0.0338964
0.0338964
0.0338963
0.0338963
0.0338962
0.0338962
0.0338962
0.0338961
0.033896
0.033896
0.0338959
0.0338959
0.0338959
0.0338958
0.0338958
0.0338958
0.0338957
0.0338957
0.0338957
0.0338956
0.0338956
0.0338956
0.0338956
0.0338955
0.0338955
0.0338955
0.0338955
0.0338955
0.0338954
0.0338954
0.0338954
0.0338954
0.0338954
0.0338953
0.0338953
0.0338953
0.0338953
0.0338953
0.0338952
0.0338952
0.0338952
0.0338952
0.0338951
0.0338951
0.0338951
0.033895
0.033895
0.033895
0.033895
0.0338949
0.0338949
0.0338949
0.0338948
0.0338948
0.0338947
0.0338947
0.0338947
0.0338946
0.0338946
0.0338946
0.0338945
0.0338945
0.0338945
0.0338944
0.0338944
0.0338943
0.0338943
0.0338943
0.0338942
0.0338942
0.0338942
0.0338941
0.033894
0.033894
0.0338939
0.0338939
0.0338938
0.0338938
0.0338937
0.0338936
0.0338935
0.0338934
0.0338933
0.0338932
0.0338931
0.033893
0.0338929
0.0338927
0.0338926
0.0338924
0.0338922
0.033892
0.0338918
0.0338916
0.0338913
0.0338911
0.0338908
0.0338905
0.0338902
0.0338899
0.0338896
0.0338892
0.0338889
0.0338885
0.0338882
0.0338878
0.0338875
0.0338871
0.0338867
0.0338864
0.033886
0.0338857
0.0338853
0.033885
0.0338848
0.0338845
0.0338843
0.0338841
0.0338839
0.0338838
0.0338837
0.0338837
0.0338837
0.0338837
0.0338837
0.0338838
0.033884
0.0338842
0.0338844
0.0338847
0.033885
0.0338853
0.0338857
0.033886
0.0338864
0.0338869
0.0338873
0.0338877
0.0338881
0.0338885
0.0338889
0.0338892
0.0338896
0.0338899
0.0338902
0.0338905
0.0338908
0.0338911
0.0338914
0.0338916
0.0338919
0.0338921
0.0338923
0.0338925
0.0338926
0.0338927
0.0338929
0.033893
0.0338931
0.0338932
0.0338933
0.0338933
0.0338934
0.0338934
0.0338935
0.0338935
0.0338935
0.0338935
0.0338935
0.0338935
0.0338935
0.0338935
0.0338935
0.0338935
0.0338935
0.0338935
0.0338935
0.0338935
0.0338935
0.0338935
0.0338936
0.0338936
0.0338937
0.0338937
0.0338938
0.0338938
0.0338939
0.0338939
0.033894
0.0338941
0.0338941
0.0338942
0.0338943
0.0338944
0.0338944
0.0338945
0.0338946
0.0338947
0.0338948
0.0338948
0.0338949
0.033895
0.0338951
0.0338952
0.0338952
0.0338953
0.0338954
0.0338954
0.0338955
0.0338956
0.0338956
0.0338957
0.0338958
0.0338958
0.0338958
0.0338959
0.0338959
0.033896
0.033896
0.0338961
0.0338961
0.0338962
0.0338962
0.0338962
0.0338963
0.0338963
0.0338963
0.0338963
0.0338964
0.0338964
0.0338964
0.0338965
0.0338965
0.0338965
0.0338965
0.0338965
0.0338965
0.0338965
0.0338965
0.0338966
0.0338966
0.0338966
0.0338966
0.0338966
0.0338966
0.0338966
0.0338966
0.0338966
0.0338966
0.0338966
0.0338966
0.0338966
0.0338966
0.0338966
0.0338966
0.0338966
0.0338965
0.0338965
0.0338965
0.0338965
0.0338964
0.0338964
0.0338963
0.0338963
0.0338963
0.0338962
0.0338962
0.0338961
0.0338961
0.033896
0.033896
0.0338959
0.0338958
0.0338958
0.0338957
0.0338956
0.0338956
0.0338955
0.0338954
0.0338953
0.0338952
0.0338951
0.033895
0.033895
0.0338949
0.0338948
0.0338947
0.0338945
0.0338944
0.0338943
0.0338942
0.033894
0.0338939
0.0338938
0.0338936
0.0338934
0.0338933
0.0338931
0.0338929
0.0338927
0.0338925
0.0338923
0.0338921
0.0338919
0.0338916
0.0338914
0.0338911
0.0338908
0.0338906
0.0338903
0.03389
0.0338897
0.0338893
0.033889
0.0338887
0.0338884
0.0338881
0.0338877
0.0338874
0.0338871
0.0338868
0.0338865
0.0338862
0.0338859
0.0338856
0.0338853
0.0338851
0.0338849
0.0338847
0.0338846
0.0338844
0.0338843
0.0338842
0.0338842
0.0338842
0.0338842
0.0338842
0.0338842
0.0338843
0.0338845
0.0338846
0.0338848
0.0338851
0.0338853
0.0338856
0.0338859
0.0338863
0.0338866
0.0338869
0.0338873
0.0338876
0.033888
0.0338883
0.0338887
0.033889
0.0338893
0.0338897
0.03389
0.0338902
0.0338905
0.0338908
0.033891
0.0338912
0.0338914
0.0338916
0.0338917
0.0338918
0.033892
0.0338921
0.0338922
0.0338922
0.0338923
0.0338924
0.0338924
0.0338925
0.0338925
0.0338925
0.0338925
0.0338925
0.0338925
0.0338926
0.0338926
0.0338926
0.0338926
0.0338926
0.0338926
0.0338926
0.0338926
0.0338926
0.0338927
0.0338927
0.0338927
0.0338928
0.0338928
0.0338929
0.0338929
0.033893
0.033893
0.0338931
0.0338931
0.0338932
0.0338933
0.0338933
0.0338934
0.0338935
0.0338936
0.0338937
0.0338938
0.0338938
0.0338939
0.033894
0.0338941
0.0338942
0.0338943
0.0338944
0.0338945
0.0338946
0.0338947
0.0338947
0.0338948
0.0338949
0.033895
0.0338951
0.0338952
0.0338953
0.0338953
0.0338954
0.0338955
0.0338955
0.0338956
0.0338957
0.0338958
0.0338958
0.0338959
0.033896
0.033896
0.033896
0.0338961
0.0338961
0.0338962
0.0338962
0.0338963
0.0338963
0.0338963
0.0338964
0.0338964
0.0338964
0.0338964
0.0338965
0.0338965
0.0338965
0.0338965
0.0338965
0.0338965
0.0338965
0.0338966
0.0338966
0.0338966
0.0338966
0.0338966
0.0338966
0.0338966
0.0338966
0.0338965
0.0338965
0.0338965
0.0338965
0.0338965
0.0338965
0.0338965
0.0338965
0.0338964
0.0338964
0.0338964
0.0338963
0.0338963
0.0338963
0.0338962
0.0338962
0.0338961
0.0338961
0.033896
0.033896
0.033896
0.0338959
0.0338958
0.0338957
0.0338957
0.0338956
0.0338955
0.0338954
0.0338953
0.0338952
0.0338952
0.033895
0.0338949
0.0338948
0.0338947
0.0338945
0.0338944
0.0338943
0.0338942
0.033894
0.0338939
0.0338937
0.0338935
0.0338933
0.0338931
0.0338929
0.0338928
0.0338926
0.0338924
0.0338921
0.0338919
0.0338917
0.0338914
0.0338912
0.0338909
0.0338907
0.0338904
0.0338901
0.0338898
0.0338895
0.0338892
0.0338889
0.0338887
0.0338884
0.0338881
0.0338878
0.0338874
0.0338872
0.0338869
0.0338866
0.0338864
0.0338861
0.0338858
0.0338856
0.0338854
0.0338852
0.033885
0.0338849
0.0338847
0.0338846
0.0338845
0.0338844
0.0338844
0.0338844
0.0338844
0.0338844
0.0338844
0.0338845
0.0338846
0.0338848
0.033885
0.0338852
0.0338854
0.0338856
0.0338859
0.0338862
0.0338865
0.0338868
0.0338871
0.0338874
0.0338877
0.0338881
0.0338884
0.0338887
0.033889
0.0338894
0.0338897
0.03389
0.0338903
0.0338906
0.0338908
0.0338911
0.0338913
0.0338915
0.0338917
0.0338919
0.0338921
0.0338922
0.0338924
0.0338925
0.0338926
0.0338928
0.0338928
0.0338929
0.033893
0.0338931
0.0338931
0.0338932
0.0338932
0.0338933
0.0338933
0.0338934
0.0338934
0.0338935
0.0338935
0.0338935
0.0338936
0.0338936
0.0338936
0.0338937
0.0338937
0.0338937
0.0338938
0.0338938
0.0338939
0.0338939
0.033894
0.0338941
0.0338941
)
;

boundaryField
{
    inlet
    {
        type            calculated;
        value           uniform 0.0976562;
    }
    outlet
    {
        type            calculated;
        value           uniform 0.0338941;
    }
    emptyWalls
    {
        type            empty;
    }
}


// ************************************************************************* //
