/*--------------------------------*- C++ -*----------------------------------*\
  =========                 |
  \\      /  F ield         | OpenFOAM: The Open Source CFD Toolbox
   \\    /   O peration     | Website:  https://openfoam.org
    \\  /    A nd           | Version:  9
     \\/     M anipulation  |
\*---------------------------------------------------------------------------*/
FoamFile
{
    format      ascii;
    class       volScalarField;
    location    "7150";
    object      Sa;
}
// * * * * * * * * * * * * * * * * * * * * * * * * * * * * * * * * * * * * * //

dimensions      [0 0 0 0 0 0 0];

internalField   nonuniform List<scalar> 
1000
(
0.548106
0.544482
0.539621
0.536022
0.53201
0.529036
0.525541
0.519385
0.500174
0.405642
0.141754
0.0743635
0.0559208
0.0472438
0.041887
0.0381463
0.0353746
0.0332501
0.0315744
0.0302177
0.0290443
0.0280278
0.02705
0.0261457
0.0253512
0.0247001
0.02426
0.0240633
0.0239521
0.0238353
0.0237157
0.0235953
0.0234755
0.0233569
0.02324
0.023125
0.023012
0.022901
0.0227921
0.0226853
0.0225805
0.0224777
0.0223769
0.0222779
0.0221808
0.0220856
0.0219921
0.0219004
0.0218104
0.0217221
0.0216354
0.0215504
0.0214669
0.0213851
0.0213046
0.0212256
0.0211479
0.0210718
0.0209967
0.0209232
0.0208506
0.0207794
0.0207092
0.0206403
0.0205722
0.0205054
0.0204394
0.0203745
0.0203104
0.0202474
0.0201851
0.0201237
0.0200632
0.0200034
0.0199444
0.0198862
0.0198287
0.0197719
0.0197159
0.0196605
0.0196059
0.0195519
0.0194986
0.0194459
0.0193938
0.0193422
0.0192912
0.0192408
0.0191909
0.0191416
0.019093
0.019045
0.0189978
0.0189513
0.0189054
0.0188601
0.0188155
0.0187714
0.0187278
0.0186848
0.0186424
0.0186009
0.0185602
0.0185206
0.0184821
0.018445
0.0184092
0.0183748
0.0183418
0.01831
0.0182795
0.0182501
0.0182214
0.0181934
0.0181658
0.0181382
0.0181103
0.0180819
0.0180525
0.0180219
0.0179897
0.0179557
0.0179196
0.0178812
0.0178406
0.0177978
0.017753
0.0177063
0.0176581
0.0176089
0.017559
0.017509
0.0174594
0.0174104
0.0173626
0.0173161
0.0172713
0.0172281
0.0171868
0.0171473
0.0171095
0.0170732
0.0170385
0.017005
0.0169725
0.016941
0.0169102
0.0168799
0.01685
0.0168203
0.0167908
0.0167614
0.0167319
0.0167024
0.0166727
0.016643
0.0166131
0.0165831
0.0165531
0.0165229
0.0164927
0.0164625
0.0164323
0.0164021
0.016372
0.0163419
0.016312
0.0162821
0.0162523
0.0162227
0.0161933
0.0161639
0.0161348
0.0161057
0.0160769
0.0160482
0.0160197
0.0159913
0.015963
0.015935
0.0159071
0.0158793
0.0158517
0.0158242
0.0157968
0.0157696
0.0157426
0.0157156
0.0156888
0.0156621
0.0156355
0.0156091
0.0155828
0.0155566
0.0155305
0.0155045
0.0154786
0.0154529
0.0154273
0.0154018
0.0153764
0.0153512
0.0153261
0.0153011
0.0152763
0.0152516
0.015227
0.0152026
0.0151783
0.0151542
0.0151302
0.0151064
0.0150827
0.0150591
0.0150357
0.0150125
0.0149894
0.0149664
0.0149435
0.0149208
0.0148982
0.0148757
0.0148533
0.0148311
0.0148089
0.0147868
0.0147648
0.0147429
0.0147211
0.0146993
0.0146776
0.0146559
0.0146343
0.0146128
0.0145912
0.0145698
0.0145483
0.0145269
0.0145056
0.0144842
0.0144629
0.0144416
0.0144203
0.0143991
0.0143779
0.0143566
0.0143354
0.0143142
0.0142931
0.014272
0.0142509
0.0142298
0.0142088
0.0141878
0.0141668
0.0141459
0.0141251
0.0141043
0.0140837
0.0140631
0.0140427
0.0140224
0.0140023
0.0139825
0.013963
0.0139439
0.0139253
0.0139072
0.0138899
0.0138734
0.0138578
0.0138433
0.01383
0.0138181
0.0138075
0.0137982
0.01379
0.0137826
0.0137751
0.0137663
0.0137537
0.0137334
0.0136988
0.0136403
0.0135457
0.0134052
0.0132226
0.0130253
0.0128566
0.0127436
0.0126824
0.012654
0.0126425
0.0126384
0.0126384
0.0126389
0.0126402
0.0126415
0.0126422
0.0126424
0.0126423
0.0126418
0.0126401
0.0126379
0.0126352
0.0126318
0.012628
0.0126236
0.0126188
0.0126137
0.0126083
0.0126027
0.0125969
0.0125911
0.0125854
0.0125797
0.0125742
0.0125689
0.0125639
0.0125593
0.012555
0.012551
0.0125475
0.0125444
0.0125416
0.0125393
0.0125373
0.0125357
0.0125344
0.0125334
0.0125327
0.0125323
0.012532
0.012532
0.0125319
0.012532
0.0125322
0.0125325
0.0125329
0.0125333
0.0125337
0.012534
0.0125343
0.0125346
0.0125347
0.0125348
0.0125349
0.0125349
0.0125348
0.0125347
0.0125345
0.0125341
0.0125337
0.0125332
0.0125326
0.012532
0.0125313
0.0125306
0.0125298
0.012529
0.0125282
0.0125273
0.0125264
0.0125255
0.0125245
0.0125235
0.0125226
0.0125216
0.0125206
0.0125196
0.0125187
0.0125177
0.0125167
0.0125158
0.0125149
0.0125139
0.012513
0.0125122
0.0125113
0.0125105
0.0125097
0.0125089
0.0125081
0.0125074
0.0125067
0.012506
0.0125053
0.0125047
0.012504
0.0125034
0.0125029
0.0125023
0.0125018
0.0125013
0.0125008
0.0125003
0.0124999
0.0124995
0.0124991
0.0124987
0.0124983
0.0124979
0.0124976
0.0124972
0.0124969
0.0124966
0.0124963
0.012496
0.0124958
0.0124956
0.0124953
0.0124951
0.012495
0.0124948
0.0124947
0.0124946
0.0124945
0.0124944
0.0124944
0.0124944
0.0124944
0.0124944
0.0124945
0.0124946
0.0124947
0.0124949
0.0124951
0.0124954
0.0124956
0.0124959
0.0124963
0.0124967
0.0124971
0.0124975
0.012498
0.0124984
0.0124989
0.0124995
0.0125
0.0125006
0.0125012
0.0125018
0.0125024
0.0125031
0.0125037
0.0125044
0.0125051
0.0125057
0.0125064
0.0125071
0.0125078
0.0125085
0.0125093
0.01251
0.0125107
0.0125114
0.0125122
0.0125129
0.0125137
0.0125145
0.0125153
0.0125161
0.0125169
0.0125178
0.0125186
0.0125196
0.0125205
0.0125215
0.0125226
0.0125237
0.0125248
0.012526
0.0125274
0.0125287
0.0125302
0.0125318
0.0125335
0.0125353
0.0125372
0.0125393
0.0125415
0.0125438
0.0125463
0.0125489
0.0125517
0.0125546
0.0125576
0.0125608
0.0125641
0.0125675
0.0125711
0.0125747
0.0125784
0.0125821
0.0125858
0.0125896
0.0125933
0.0125969
0.0126005
0.0126039
0.0126072
0.0126102
0.0126131
0.0126156
0.0126179
0.0126198
0.0126214
0.0126226
0.0126233
0.0126237
0.0126237
0.0126236
0.0126234
0.0126223
0.0126204
0.0126182
0.0126155
0.0126125
0.0126091
0.0126055
0.0126016
0.0125975
0.0125932
0.0125888
0.0125844
0.01258
0.0125756
0.0125714
0.0125672
0.0125632
0.0125594
0.0125559
0.0125526
0.0125495
0.0125467
0.0125442
0.0125419
0.0125399
0.0125382
0.0125368
0.0125355
0.0125345
0.0125337
0.012533
0.0125326
0.0125322
0.012532
0.0125319
0.0125319
0.0125319
0.0125319
0.012532
0.0125322
0.0125324
0.0125325
0.0125327
0.0125328
0.0125329
0.0125329
0.0125329
0.0125329
0.0125329
0.0125327
0.0125325
0.0125322
0.0125318
0.0125314
0.0125309
0.0125303
0.0125297
0.0125291
0.0125284
0.0125276
0.0125269
0.0125261
0.0125252
0.0125243
0.0125234
0.0125225
0.0125216
0.0125206
0.0125197
0.0125187
0.0125177
0.0125168
0.0125158
0.0125148
0.0125139
0.0125129
0.012512
0.0125111
0.0125101
0.0125093
0.0125084
0.0125075
0.0125067
0.0125059
0.0125051
0.0125044
0.0125036
0.0125029
0.0125023
0.0125016
0.012501
0.0125004
0.0124998
0.0124992
0.0124987
0.0124982
0.0124977
0.0124972
0.0124968
0.0124964
0.0124959
0.0124956
0.0124952
0.0124948
0.0124945
0.0124942
0.0124938
0.0124936
0.0124933
0.012493
0.0124928
0.0124925
0.0124923
0.0124921
0.0124919
0.0124918
0.0124916
0.0124915
0.0124914
0.0124913
0.0124912
0.0124912
0.0124911
0.0124911
0.0124911
0.0124911
0.0124912
0.0124913
0.0124914
0.0124916
0.0124917
0.0124919
0.0124922
0.0124925
0.0124928
0.0124931
0.0124935
0.0124939
0.0124943
0.0124947
0.0124952
0.0124957
0.0124963
0.0124968
0.0124974
0.0124981
0.0124987
0.0124994
0.0125001
0.0125009
0.0125016
0.0125024
0.0125032
0.0125041
0.0125049
0.0125058
0.0125068
0.0125077
0.0125087
0.0125097
0.0125108
0.0125119
0.0125131
0.0125143
0.0125155
0.0125168
0.0125182
0.0125196
0.0125211
0.0125226
0.0125243
0.012526
0.0125278
0.0125296
0.0125316
0.0125337
0.0125359
0.0125381
0.0125405
0.012543
0.0125456
0.0125483
0.012551
0.0125539
0.0125569
0.0125599
0.0125631
0.0125663
0.0125695
0.0125728
0.0125761
0.0125794
0.0125828
0.0125861
0.0125893
0.0125925
0.0125956
0.0125986
0.0126015
0.0126042
0.0126068
0.0126091
0.0126113
0.0126132
0.0126148
0.0126161
0.0126172
0.0126179
0.0126183
0.0126184
0.0126184
0.0126183
0.0126179
0.0126167
0.0126151
0.0126133
0.0126112
0.0126088
0.0126061
0.0126033
0.0126003
0.0125971
0.0125938
0.0125904
0.0125869
0.0125835
0.01258
0.0125766
0.0125733
0.0125701
0.0125669
0.0125639
0.0125611
0.0125584
0.012556
0.0125536
0.0125515
0.0125496
0.0125478
0.0125462
0.0125448
0.0125435
0.0125424
0.0125415
0.0125407
0.01254
0.0125394
0.0125389
0.0125384
0.0125381
0.0125378
0.0125376
0.0125373
0.0125372
0.012537
0.0125369
0.0125367
0.0125365
0.0125364
0.0125362
0.012536
0.0125357
0.0125354
0.0125351
0.0125348
0.0125344
0.0125339
0.0125335
0.012533
0.0125324
0.0125318
0.0125312
0.0125305
0.0125298
0.0125291
0.0125284
0.0125276
0.0125268
0.0125259
0.0125251
0.0125242
0.0125233
0.0125224
0.0125215
0.0125205
0.0125196
0.0125186
0.0125177
0.0125167
0.0125158
0.0125148
0.0125139
0.012513
0.012512
0.0125111
0.0125102
0.0125093
0.0125084
0.0125076
0.0125067
0.0125059
0.0125051
0.0125044
0.0125036
0.0125029
0.0125022
0.0125015
0.0125009
0.0125003
0.0124997
0.0124991
0.0124986
0.0124981
0.0124976
0.0124972
0.0124968
0.0124964
0.012496
0.0124957
0.0124954
0.0124951
0.0124948
0.0124946
0.0124944
0.0124942
0.012494
0.0124939
0.0124937
0.0124936
0.0124935
0.0124934
0.0124934
0.0124933
0.0124933
0.0124933
0.0124933
0.0124933
0.0124933
0.0124934
0.0124935
0.0124936
0.0124937
0.0124938
0.012494
0.0124942
0.0124944
0.0124946
0.0124948
0.0124951
0.0124954
0.0124957
0.0124961
0.0124965
0.0124969
0.0124974
0.0124979
0.0124984
0.012499
0.0124996
0.0125002
0.0125009
0.0125016
0.0125024
0.0125032
0.012504
0.0125049
0.0125058
0.0125068
0.0125078
0.0125089
0.0125101
0.0125112
0.0125125
0.0125138
0.0125151
0.0125165
0.012518
0.0125196
0.0125212
0.0125228
0.0125246
0.0125264
0.0125283
0.0125302
0.0125323
0.0125344
0.0125366
0.0125388
0.0125412
0.0125436
0.0125461
0.0125487
0.0125513
0.012554
0.0125568
0.0125596
0.0125625
0.0125655
0.0125684
0.0125715
0.0125745
0.0125775
0.0125806
0.0125836
0.0125866
0.0125895
0.0125924
0.0125953
0.012598
0.0126006
0.0126032
0.0126055
0.0126078
0.0126098
0.0126117
0.0126133
0.0126148
0.012616
0.0126169
0.0126176
0.012618
0.0126182
0.0126182
0.0126181
0.0126179
0.012617
0.0126158
0.0126143
0.0126126
0.0126105
0.0126084
0.0126058
0.0126033
0.0126003
0.0125975
0.0125943
0.0125913
0.0125879
0.0125848
0.0125813
0.0125782
0.0125747
0.0125717
0.0125683
0.0125655
0.0125623
0.0125597
0.0125567
0.0125544
0.0125517
0.0125497
0.0125473
0.0125455
0.0125434
0.0125419
0.0125401
0.0125389
0.0125373
0.0125364
0.012535
0.0125342
0.0125331
0.0125325
0.0125315
0.012531
0.0125302
0.0125298
0.0125291
0.0125287
0.012528
0.0125278
0.0125271
0.0125269
0.0125262
0.012526
0.0125253
0.0125251
0.0125244
0.0125242
0.0125235
0.0125232
0.0125225
0.0125222
0.0125214
0.0125211
0.0125202
0.0125199
)
;

boundaryField
{
    inlet
    {
        type            fixedValue;
        value           uniform 0.55;
    }
    outlet
    {
        type            zeroGradient;
    }
    emptyWalls
    {
        type            empty;
    }
}


// ************************************************************************* //
