/*--------------------------------*- C++ -*----------------------------------*\
  =========                 |
  \\      /  F ield         | OpenFOAM: The Open Source CFD Toolbox
   \\    /   O peration     | Website:  https://openfoam.org
    \\  /    A nd           | Version:  9
     \\/     M anipulation  |
\*---------------------------------------------------------------------------*/
FoamFile
{
    format      ascii;
    class       volScalarField;
    location    "2950";
    object      kra;
}
// * * * * * * * * * * * * * * * * * * * * * * * * * * * * * * * * * * * * * //

dimensions      [0 0 0 0 0 0 0];

internalField   nonuniform List<scalar> 
1000
(
0.00024161
0.000253929
0.000277392
0.000386597
0.000819748
0.000923148
0.000928464
0.000925806
0.000919865
0.000916518
0.000901677
0.00088447
0.000866323
0.000848575
0.000831381
0.000814701
0.000798473
0.000782671
0.000767321
0.000752464
0.000738153
0.000724422
0.00071128
0.000698717
0.000686702
0.000675203
0.000664189
0.000653632
0.000643508
0.00063379
0.000624461
0.000615485
0.00060685
0.000598514
0.00059048
0.000582697
0.000575188
0.00056789
0.000560845
0.000553983
0.000547354
0.000540887
0.000534633
0.000528532
0.000522615
0.000516848
0.000511236
0.000505771
0.000500438
0.00049524
0.000490161
0.000485201
0.000480353
0.000475609
0.000470968
0.000466424
0.00046197
0.000457607
0.000453326
0.000449128
0.000445006
0.000440961
0.000436985
0.000433081
0.000429241
0.000425467
0.000421753
0.000418101
0.000414502
0.000410966
0.000407474
0.00040405
0.000400654
0.000397344
0.000394035
0.000390841
0.000387609
0.000384527
0.000381373
0.000378389
0.000375326
0.000372411
0.000369461
0.000366585
0.00036376
0.000360916
0.000358199
0.000355413
0.000352758
0.000350071
0.000347438
0.000344863
0.000342258
0.000339759
0.000337226
0.000334752
0.000332315
0.000329862
0.000327489
0.000325098
0.000322743
0.000320431
0.000318106
0.000315842
0.000313594
0.000311369
0.000309212
0.000307081
0.000305006
0.000302991
0.000300974
0.000298917
0.000296678
0.000293979
0.000290457
0.000285576
0.000278903
0.000270618
0.000261896
0.000254557
0.000249704
0.000247059
0.000245788
0.000245214
0.000244948
0.00024484
0.000244791
0.000244781
0.000244783
0.000244793
0.000244805
0.00024482
0.000244836
0.000244857
0.000244878
0.000244909
0.000244942
0.000244989
0.000245044
0.000245116
0.000245203
0.000245311
0.000245438
0.000245591
0.000245766
0.000245969
0.000246195
0.000246451
0.000246729
0.000247035
0.000247361
0.000247712
0.000248079
0.000248464
0.000248859
0.000249264
0.000249672
0.000250081
0.000250484
0.000250878
0.000251253
0.000251607
0.000251927
0.000252208
0.000252437
0.000252609
0.000252711
0.00025275
0.000252753
0.000252744
0.00025269
0.000252453
0.000252124
0.000251723
0.000251253
0.000250728
0.000250152
0.000249541
0.000248905
0.000248261
0.000247619
0.000246995
0.0002464
0.000245846
0.000245341
0.000244893
0.000244503
0.000244177
0.000243912
0.000243708
0.000243559
0.000243464
0.000243415
0.000243403
0.000243403
0.000243411
0.000243477
0.000243584
0.000243704
0.00024383
0.000243958
0.000244087
0.000244211
0.00024433
0.000244442
0.000244544
0.000244637
0.000244719
0.00024479
0.000244851
0.000244901
0.000244942
0.000244973
0.000244996
0.000245011
0.00024502
0.000245022
0.000245022
0.000245021
0.000245014
0.000244997
0.000244978
0.000244956
0.000244933
0.000244908
0.000244881
0.000244854
0.000244825
0.000244795
0.000244765
0.000244734
0.000244703
0.000244671
0.000244638
0.000244606
0.000244573
0.000244541
0.000244508
0.000244475
0.000244443
0.000244411
0.00024438
0.000244349
0.000244319
0.000244289
0.00024426
0.000244232
0.000244205
0.000244178
0.000244153
0.000244128
0.000244105
0.000244082
0.00024406
0.00024404
0.00024402
0.000244001
0.000243983
0.000243967
0.000243952
0.000243938
0.000243926
0.000243916
0.000243908
0.000243901
0.000243898
0.000243896
0.000243896
0.000243896
0.000243897
0.000243904
0.000243914
0.000243927
0.000243942
0.00024396
0.000243979
0.000244001
0.000244024
0.000244048
0.000244074
0.000244101
0.000244128
0.000244156
0.000244184
0.000244212
0.000244239
0.000244266
0.000244292
0.000244317
0.000244341
0.000244364
0.000244384
0.000244403
0.00024442
0.000244434
0.000244446
0.000244455
0.000244462
0.000244466
0.000244467
0.000244467
0.000244467
0.000244464
0.000244455
0.000244443
0.000244428
0.000244412
0.000244393
0.000244373
0.000244351
0.000244329
0.000244306
0.000244282
0.000244258
0.000244235
0.000244213
0.000244191
0.000244171
0.000244153
0.000244136
0.000244122
0.000244109
0.0002441
0.000244092
0.000244088
0.000244086
0.000244086
0.000244087
0.000244089
0.000244097
0.00024411
0.000244124
0.000244144
0.000244164
0.000244189
0.000244216
0.000244249
0.000244283
0.000244323
0.000244366
0.000244417
0.000244471
0.000244533
0.0002446
0.000244677
0.000244761
0.000244855
0.000244958
0.000245073
0.000245198
0.000245336
0.000245485
0.000245649
0.000245824
0.000246014
0.000246216
0.000246432
0.00024666
0.0002469
0.000247151
0.000247413
0.000247681
0.000247958
0.000248238
0.000248521
0.000248802
0.00024908
0.00024935
0.000249609
0.000249851
0.000250075
0.000250271
0.000250439
0.000250566
0.000250652
0.00025069
0.000250698
0.000250694
0.000250675
0.000250545
0.000250309
0.000250008
0.00024964
0.000249211
0.000248723
0.000248186
0.000247604
0.000246992
0.000246356
0.000245712
0.000245068
0.000244438
0.000243829
0.000243254
0.000242718
0.00024223
0.000241792
0.000241409
0.00024108
0.000240808
0.000240589
0.000240423
0.000240305
0.000240235
0.000240205
0.000240201
0.000240202
0.000240222
0.000240315
0.000240434
0.000240567
0.00024071
0.00024086
0.000241014
0.000241169
0.000241321
0.00024147
0.000241613
0.000241749
0.000241877
0.000241996
0.000242105
0.000242204
0.000242293
0.000242373
0.000242443
0.000242504
0.000242556
0.0002426
0.000242636
0.000242666
0.000242689
0.000242708
0.000242722
0.000242731
0.000242737
0.000242741
0.000242742
0.000242742
0.000242742
0.000242739
0.000242734
0.000242727
0.000242721
0.000242713
0.000242707
0.000242697
0.000242691
0.000242679
0.000242672
0.000242658
0.00024265
0.000242634
0.000242624
0.000242604
0.000242592
0.000242568
0.000242554
0.000242525
0.000242508
0.000242475
0.000242455
0.000242416
0.000242393
0.000242348
0.000242323
0.000242273
0.000242244
0.000242189
0.000242158
0.000242097
0.000242064
0.000242
0.000241964
0.000241896
0.00024186
0.000241789
0.00024175
0.000241678
0.000241644
0.000241567
0.000241531
0.000241462
0.00024143
0.000241353
0.000241328
0.000241264
0.000241208
0.000240712
0.000238653
0.000228126
5.013e-05
2.39117e-07
7.89837e-13
1.46063e-24
1.59542e-49
2.32414e-102
2.84079e-214
0
0
0
0
0
0
0
0
0
0
0
0
0
0
0
0
0
0
0
0
0
0
0
0
0
0
0
0
0
0
0
0
0
0
0
0
0
0
0
0
0
0
0
0
0
0
0
0
0
0
0
0
0
0
0
0
0
0
0
0
0
0
0
0
0
0
0
0
0
0
0
0
0
0
0
0
0
0
0
0
0
0
0
0
0
0
0
0
0
0
0
0
0
0
0
0
0
0
0
0
0
0
0
0
0
0
0
0
0
0
0
0
0
0
0
0
0
0
0
0
0
0
0
0
0
0
0
0
0
0
0
0
0
0
0
0
0
0
0
0
0
0
0
0
0
0
0
0
0
0
0
0
0
0
0
0
0
0
0
0
0
0
0
0
0
0
0
0
0
0
0
0
0
0
0
0
0
0
0
0
0
0
0
0
0
0
0
0
0
0
0
0
0
0
0
0
0
0
0
0
0
0
0
0
0
0
0
0
0
0
0
0
0
0
0
0
0
0
0
0
0
0
0
0
0
0
0
0
0
0
0
0
0
0
0
0
0
0
0
0
0
0
0
0
0
0
0
0
0
0
0
0
0
0
0
0
0
0
0
0
0
0
0
0
0
0
0
0
0
0
0
0
0
0
0
0
0
0
0
0
0
0
0
0
0
0
0
0
0
0
0
0
0
0
0
0
0
0
0
0
0
0
0
0
0
0
0
0
0
0
0
0
0
0
0
0
0
0
0
0
0
0
0
0
0
0
0
0
0
0
0
0
0
0
0
0
0
0
0
0
0
0
0
0
0
0
0
0
0
0
0
0
0
0
0
0
0
0
0
0
0
0
0
0
0
0
0
0
0
0
0
0
0
0
0
0
0
0
0
0
0
0
0
0
0
0
0
0
0
0
0
0
0
0
0
0
0
0
0
0
0
0
0
0
0
0
0
0
0
0
0
0
0
0
0
0
0
0
0
0
0
0
0
0
0
0
0
0
0
0
0
0
0
0
0
0
0
0
0
0
0
0
0
0
0
0
0
0
0
0
0
0
0
0
0
0
0
0
0
0
0
0
0
0
0
0
0
0
0
0
0
0
0
0
0
0
0
0
0
0
0
0
0
0
0
0
0
0
0
0
0
0
0
0
0
0
0
0
0
0
0
0
)
;

boundaryField
{
    inlet
    {
        type            calculated;
        value           uniform 0.000236304;
    }
    outlet
    {
        type            calculated;
        value           uniform 0;
    }
    emptyWalls
    {
        type            empty;
    }
}


// ************************************************************************* //
