/*--------------------------------*- C++ -*----------------------------------*\
  =========                 |
  \\      /  F ield         | OpenFOAM: The Open Source CFD Toolbox
   \\    /   O peration     | Website:  https://openfoam.org
    \\  /    A nd           | Version:  9
     \\/     M anipulation  |
\*---------------------------------------------------------------------------*/
FoamFile
{
    format      ascii;
    class       volScalarField;
    location    "19150";
    object      krb;
}
// * * * * * * * * * * * * * * * * * * * * * * * * * * * * * * * * * * * * * //

dimensions      [0 0 0 0 0 0 0];

internalField   nonuniform List<scalar> 
1000
(
0.0979085
0.0982821
0.0989577
0.0994962
0.100144
0.100728
0.101357
0.101981
0.10262
0.10326
0.103912
0.104554
0.105198
0.105827
0.106437
0.107029
0.107563
0.108101
0.108513
0.108984
0.109271
0.109662
0.109911
0.110407
0.111607
0.116134
0.141212
0.320311
0.460987
0.491004
0.50197
0.507868
0.511782
0.514725
0.517071
0.518992
0.520562
0.521863
0.522964
0.523941
0.524834
0.525665
0.526422
0.527098
0.527692
0.528259
0.5288
0.52928
0.529691
0.530034
0.530311
0.530525
0.530683
0.530787
0.530844
0.530855
0.530831
0.530765
0.530662
0.530521
0.530344
0.530131
0.529878
0.529584
0.529246
0.52886
0.528419
0.527915
0.527336
0.526664
0.525872
0.524927
0.523794
0.522438
0.520851
0.519061
0.517132
0.51512
0.513057
0.510962
0.508851
0.506733
0.504616
0.502504
0.500401
0.49831
0.496232
0.494168
0.492121
0.490089
0.488075
0.486078
0.484098
0.482136
0.480191
0.478263
0.476353
0.47446
0.472584
0.470725
0.468883
0.467058
0.465249
0.463456
0.461679
0.459918
0.458172
0.456441
0.454726
0.453026
0.45134
0.449669
0.448012
0.44637
0.444742
0.443127
0.441526
0.439939
0.438365
0.436804
0.435256
0.43372
0.432197
0.430686
0.429187
0.4277
0.426224
0.42476
0.423308
0.421868
0.420439
0.419022
0.417615
0.416219
0.414832
0.413455
0.412086
0.410725
0.409372
0.408027
0.406689
0.405359
0.404037
0.402722
0.401416
0.400118
0.398829
0.397549
0.396278
0.395018
0.393768
0.392529
0.391302
0.390086
0.388882
0.38769
0.38651
0.385342
0.384185
0.38304
0.381904
0.380777
0.37966
0.378549
0.377446
0.37635
0.375258
0.374173
0.373092
0.372016
0.370944
0.369877
0.368815
0.367757
0.366705
0.365657
0.364615
0.363579
0.362548
0.361523
0.360504
0.35949
0.358483
0.357482
0.356487
0.355497
0.354514
0.353537
0.352565
0.351599
0.350639
0.349684
0.348735
0.347791
0.346852
0.345919
0.344991
0.344068
0.343149
0.342236
0.341328
0.340424
0.339525
0.338631
0.337741
0.336856
0.335976
0.3351
0.334228
0.333361
0.332498
0.33164
0.330785
0.329935
0.32909
0.328248
0.32741
0.326577
0.325747
0.324922
0.3241
0.323282
0.322469
0.321659
0.320852
0.32005
0.319251
0.318456
0.317665
0.316877
0.316093
0.315313
0.314536
0.313762
0.312992
0.312225
0.311462
0.310702
0.309946
0.309192
0.308442
0.307696
0.306953
0.306212
0.305476
0.304742
0.304011
0.303284
0.30256
0.301838
0.30112
0.300405
0.299693
0.298984
0.298278
0.297575
0.296874
0.296177
0.295482
0.294791
0.294102
0.293416
0.292733
0.292053
0.291375
0.2907
0.290027
0.289356
0.288688
0.288022
0.287358
0.286696
0.286036
0.285377
0.284721
0.284066
0.283414
0.282763
0.282114
0.281467
0.280823
0.28018
0.27954
0.278902
0.278267
0.277634
0.277005
0.276378
0.275754
0.275134
0.274517
0.273904
0.273294
0.272688
0.272085
0.271486
0.270891
0.270299
0.26971
0.269124
0.268541
0.26796
0.267382
0.266807
0.266233
0.265662
0.265092
0.264524
0.263958
0.263392
0.262829
0.262266
0.261705
0.261145
0.260586
0.260028
0.259472
0.258917
0.258364
0.257812
0.257262
0.256713
0.256166
0.25562
0.255076
0.254534
0.253993
0.253454
0.252917
0.252382
0.251848
0.251317
0.250787
0.250258
0.249732
0.249207
0.248683
0.248162
0.247642
0.247124
0.246607
0.246092
0.245579
0.245067
0.244556
0.244047
0.24354
0.243034
0.24253
0.242027
0.241525
0.241025
0.240527
0.24003
0.239534
0.23904
0.238547
0.238055
0.237565
0.237076
0.236589
0.236102
0.235617
0.235134
0.234652
0.234171
0.233691
0.233213
0.232736
0.23226
0.231785
0.231312
0.23084
0.230369
0.2299
0.229431
0.228964
0.228498
0.228033
0.22757
0.227107
0.226646
0.226186
0.225727
0.225269
0.224813
0.224357
0.223903
0.22345
0.222998
0.222547
0.222097
0.221648
0.221201
0.220754
0.220309
0.219864
0.219421
0.218979
0.218538
0.218098
0.217659
0.217221
0.216784
0.216348
0.215913
0.215479
0.215047
0.214615
0.214184
0.213754
0.213326
0.212898
0.212471
0.212045
0.21162
0.211196
0.210772
0.21035
0.209928
0.209507
0.209086
0.208667
0.208248
0.20783
0.207412
0.206995
0.206579
0.206164
0.205749
0.205335
0.204921
0.204508
0.204096
0.203685
0.203275
0.202865
0.202457
0.202049
0.201642
0.201236
0.200832
0.200428
0.200026
0.199625
0.199225
0.198827
0.19843
0.198034
0.19764
0.197246
0.196855
0.196464
0.196075
0.195687
0.195301
0.194915
0.194531
0.194148
0.193765
0.193384
0.193004
0.192624
0.192245
0.191867
0.191489
0.191112
0.190735
0.190359
0.189984
0.189608
0.189234
0.18886
0.188486
0.188113
0.18774
0.187367
0.186995
0.186624
0.186253
0.185882
0.185512
0.185143
0.184774
0.184406
0.184038
0.183671
0.183304
0.182938
0.182573
0.182208
0.181844
0.18148
0.181117
0.180755
0.180393
0.180032
0.179671
0.179311
0.178952
0.178593
0.178235
0.177877
0.17752
0.177164
0.176808
0.176452
0.176098
0.175743
0.17539
0.175036
0.174684
0.174331
0.17398
0.173628
0.173278
0.172927
0.172578
0.172229
0.17188
0.171531
0.171184
0.170836
0.170489
0.170143
0.169797
0.169451
0.169106
0.168762
0.168417
0.168074
0.16773
0.167387
0.167045
0.166703
0.166361
0.16602
0.165679
0.165338
0.164998
0.164658
0.164319
0.16398
0.163642
0.163304
0.162966
0.162628
0.162291
0.161955
0.161619
0.161283
0.160947
0.160612
0.160277
0.159942
0.159608
0.159274
0.158941
0.158608
0.158275
0.157942
0.15761
0.157278
0.156947
0.156616
0.156285
0.155954
0.155624
0.155294
0.154964
0.154635
0.154306
0.153977
0.153649
0.15332
0.152992
0.152664
0.152337
0.15201
0.151683
0.151356
0.151029
0.150703
0.150377
0.150051
0.149725
0.1494
0.149074
0.148749
0.148424
0.148098
0.147774
0.147449
0.147124
0.1468
0.146475
0.146151
0.145826
0.145502
0.145178
0.144854
0.144531
0.144207
0.143883
0.14356
0.143237
0.142914
0.142591
0.142268
0.141946
0.141624
0.141302
0.14098
0.140658
0.140337
0.140016
0.139696
0.139375
0.139056
0.138736
0.138417
0.138098
0.137779
0.137461
0.137142
0.136825
0.136507
0.13619
0.135873
0.135556
0.13524
0.134923
0.134607
0.134291
0.133975
0.133659
0.133343
0.133027
0.132711
0.132395
0.13208
0.131764
0.131447
0.131131
0.130815
0.130499
0.130182
0.129866
0.129549
0.129232
0.128915
0.128597
0.12828
0.127962
0.127645
0.127327
0.127008
0.12669
0.126372
0.126053
0.125734
0.125415
0.125096
0.124777
0.124458
0.124138
0.123818
0.123498
0.123178
0.122858
0.122537
0.122216
0.121896
0.121574
0.121253
0.120931
0.12061
0.120288
0.119966
0.119643
0.11932
0.118997
0.118674
0.118351
0.118027
0.117703
0.117379
0.117054
0.116729
0.116404
0.116078
0.115753
0.115427
0.1151
0.114774
0.114447
0.114119
0.113792
0.113464
0.113136
0.112808
0.11248
0.112151
0.111822
0.111493
0.111164
0.110835
0.110505
0.110176
0.109847
0.109518
0.10919
0.108861
0.108534
0.108207
0.107881
0.107555
0.107231
0.106909
0.106588
0.10627
0.105954
0.105641
0.105332
0.105026
0.104725
0.10443
0.10414
0.103857
0.103582
0.103315
0.103056
0.102808
0.10257
0.102344
0.102129
0.101928
0.101739
0.101563
0.101402
0.101253
0.101119
0.100997
0.100888
0.100792
0.100707
0.100632
0.100568
0.100513
0.100466
0.100426
0.100392
0.100364
0.10034
0.100318
0.100298
0.100275
0.100247
0.100206
0.100139
0.100026
0.0998264
0.0994739
0.0988497
0.0977549
0.0958676
0.0927165
0.0877288
0.0804756
0.0711553
0.0609626
0.0516819
0.0446051
0.0399417
0.0371705
0.0356271
0.0347994
0.0343643
0.0341381
0.0340211
0.0339608
0.0339296
0.0339135
0.0339051
0.0339007
0.0338984
0.0338971
0.0338962
0.0338957
0.0338953
0.033895
0.0338947
0.0338944
0.0338942
0.0338939
0.0338937
0.0338934
0.0338931
0.0338929
0.0338926
0.0338924
0.0338921
0.0338919
0.0338916
0.0338914
0.0338912
0.0338909
0.0338907
0.0338905
0.0338903
0.0338902
0.03389
0.0338899
0.0338898
0.0338897
0.0338895
0.0338894
0.0338894
0.0338893
0.0338893
0.0338893
0.0338893
0.0338893
0.0338893
0.0338894
0.0338894
0.0338895
0.0338895
0.0338896
0.0338897
0.0338898
0.0338899
0.03389
0.0338901
0.0338902
0.0338903
0.0338904
0.0338905
0.0338906
0.0338907
0.0338908
0.0338909
0.033891
0.0338911
0.0338912
0.0338912
0.0338913
0.0338914
0.0338915
0.0338915
0.0338916
0.0338916
0.0338917
0.0338917
0.0338918
0.0338918
0.0338919
0.0338919
0.033892
0.033892
0.0338921
0.0338921
0.0338921
0.0338922
0.0338922
0.0338923
0.0338923
0.0338924
0.0338924
0.0338925
0.0338925
0.0338926
0.0338926
0.0338927
0.0338927
0.0338928
0.0338929
0.0338929
0.033893
0.0338931
0.0338931
0.0338932
0.0338933
0.0338934
0.0338935
0.0338935
0.0338936
0.0338937
0.0338938
0.0338939
0.033894
0.033894
0.0338941
0.0338942
0.0338943
0.0338944
0.0338945
0.0338945
0.0338946
0.0338947
0.0338948
0.0338949
0.0338949
0.033895
0.0338951
0.0338951
0.0338952
0.0338953
0.0338953
0.0338954
0.0338954
0.0338955
0.0338955
0.0338956
0.0338956
0.0338957
0.0338957
0.0338957
0.0338958
0.0338958
0.0338958
0.0338958
0.0338958
0.0338959
0.0338959
0.0338959
0.0338959
0.0338959
0.0338959
0.0338959
0.0338959
0.0338959
0.0338959
0.0338959
0.0338959
0.0338959
0.0338959
0.0338959
0.0338958
0.0338958
0.0338958
0.0338958
0.0338958
0.0338958
0.0338957
0.0338957
0.0338957
0.0338957
0.0338956
0.0338956
0.0338955
0.0338955
0.0338955
0.0338954
0.0338954
0.0338953
0.0338953
0.0338952
0.0338952
0.0338951
0.033895
0.0338949
0.0338949
0.0338948
0.0338947
0.0338946
0.0338945
0.0338944
0.0338943
0.0338942
0.0338941
0.033894
0.0338939
0.0338938
0.0338937
0.0338937
0.0338936
0.0338935
0.0338934
0.0338933
0.0338933
0.0338932
0.0338931
0.033893
0.033893
0.0338928
0.0338928
0.0338926
0.0338926
0.0338923
0.0338923
0.0338921
0.033892
0.0338917
0.0338917
0.0338914
0.0338913
0.033891
0.0338909
0.0338905
)
;

boundaryField
{
    inlet
    {
        type            calculated;
        value           uniform 0.0976562;
    }
    outlet
    {
        type            calculated;
        value           uniform 0.0338905;
    }
    emptyWalls
    {
        type            empty;
    }
}


// ************************************************************************* //
