/*--------------------------------*- C++ -*----------------------------------*\
  =========                 |
  \\      /  F ield         | OpenFOAM: The Open Source CFD Toolbox
   \\    /   O peration     | Website:  https://openfoam.org
    \\  /    A nd           | Version:  9
     \\/     M anipulation  |
\*---------------------------------------------------------------------------*/
FoamFile
{
    format      ascii;
    class       surfaceScalarField;
    location    "19150";
    object      phia;
}
// * * * * * * * * * * * * * * * * * * * * * * * * * * * * * * * * * * * * * //

dimensions      [0 2 0 0 0 0 0];

internalField   nonuniform List<scalar> 
999
(
2.74892e-10
2.74886e-10
2.74848e-10
2.7485e-10
2.74786e-10
2.74767e-10
2.74702e-10
2.74643e-10
2.74576e-10
2.745e-10
2.74423e-10
2.74346e-10
2.7426e-10
2.74176e-10
2.74075e-10
2.73992e-10
2.73875e-10
2.7381e-10
2.73704e-10
2.73644e-10
2.73578e-10
2.73501e-10
2.73444e-10
2.7325e-10
2.72642e-10
2.70251e-10
2.55777e-10
2.20641e-10
2.14188e-10
2.12299e-10
2.11422e-10
2.10902e-10
2.10507e-10
2.10172e-10
2.0997e-10
2.10018e-10
2.10355e-10
2.10884e-10
2.1142e-10
2.11783e-10
2.11888e-10
2.1177e-10
2.11544e-10
2.11306e-10
2.10969e-10
2.10228e-10
2.09428e-10
2.08664e-10
2.07988e-10
2.07424e-10
2.06981e-10
2.06653e-10
2.0643e-10
2.0629e-10
2.06217e-10
2.06171e-10
2.06146e-10
2.06134e-10
2.06118e-10
2.06089e-10
2.06043e-10
2.05982e-10
2.05908e-10
2.05825e-10
2.05735e-10
2.05641e-10
2.05546e-10
2.05451e-10
2.05357e-10
2.05266e-10
2.05179e-10
2.05096e-10
2.05022e-10
2.04955e-10
2.04898e-10
2.04847e-10
2.04796e-10
2.04746e-10
2.04696e-10
2.04647e-10
2.046e-10
2.04553e-10
2.04508e-10
2.04463e-10
2.0442e-10
2.04378e-10
2.04337e-10
2.04297e-10
2.04259e-10
2.04221e-10
2.04185e-10
2.04151e-10
2.04117e-10
2.04085e-10
2.04055e-10
2.04026e-10
2.03998e-10
2.03971e-10
2.03946e-10
2.03922e-10
2.039e-10
2.03878e-10
2.03858e-10
2.0384e-10
2.03824e-10
2.03809e-10
2.03796e-10
2.03786e-10
2.03777e-10
2.0377e-10
2.03764e-10
2.03759e-10
2.03754e-10
2.03749e-10
2.03743e-10
2.03736e-10
2.03729e-10
2.03721e-10
2.03714e-10
2.03709e-10
2.03705e-10
2.03702e-10
2.03701e-10
2.03702e-10
2.03704e-10
2.03706e-10
2.03708e-10
2.03708e-10
2.03705e-10
2.03699e-10
2.03691e-10
2.03681e-10
2.03673e-10
2.03672e-10
2.03682e-10
2.03708e-10
2.03754e-10
2.03824e-10
2.0392e-10
2.04041e-10
2.04186e-10
2.04354e-10
2.04541e-10
2.04744e-10
2.04958e-10
2.05178e-10
2.05399e-10
2.05617e-10
2.05824e-10
2.06014e-10
2.06181e-10
2.06318e-10
2.06419e-10
2.06479e-10
2.06494e-10
2.06462e-10
2.06383e-10
2.0626e-10
2.06097e-10
2.05899e-10
2.05674e-10
2.0543e-10
2.05174e-10
2.04916e-10
2.04663e-10
2.04422e-10
2.04197e-10
2.03994e-10
2.03813e-10
2.03657e-10
2.03525e-10
2.03416e-10
2.03329e-10
2.03261e-10
2.03209e-10
2.0317e-10
2.03142e-10
2.03121e-10
2.03106e-10
2.03093e-10
2.03081e-10
2.03068e-10
2.03053e-10
2.03036e-10
2.03015e-10
2.02991e-10
2.02963e-10
2.02931e-10
2.02895e-10
2.02857e-10
2.02815e-10
2.02772e-10
2.02726e-10
2.02678e-10
2.02629e-10
2.0258e-10
2.02529e-10
2.02479e-10
2.02428e-10
2.02377e-10
2.02326e-10
2.02276e-10
2.02226e-10
2.02177e-10
2.02128e-10
2.0208e-10
2.02033e-10
2.01987e-10
2.01941e-10
2.01897e-10
2.01853e-10
2.0181e-10
2.01768e-10
2.01726e-10
2.01686e-10
2.01647e-10
2.01608e-10
2.01571e-10
2.01534e-10
2.01499e-10
2.01465e-10
2.01431e-10
2.01399e-10
2.01367e-10
2.01337e-10
2.01307e-10
2.01279e-10
2.01251e-10
2.01225e-10
2.012e-10
2.01176e-10
2.01153e-10
2.01131e-10
2.01111e-10
2.01092e-10
2.01074e-10
2.01057e-10
2.01041e-10
2.01026e-10
2.01012e-10
2.00998e-10
2.00986e-10
2.00973e-10
2.00962e-10
2.00951e-10
2.0094e-10
2.0093e-10
2.0092e-10
2.00911e-10
2.00902e-10
2.00894e-10
2.00887e-10
2.0088e-10
2.00874e-10
2.00868e-10
2.00862e-10
2.00856e-10
2.00849e-10
2.00843e-10
2.00836e-10
2.0083e-10
2.00824e-10
2.00819e-10
2.00816e-10
2.00815e-10
2.00818e-10
2.00827e-10
2.00841e-10
2.00863e-10
2.00893e-10
2.00933e-10
2.00982e-10
2.01043e-10
2.01115e-10
2.01198e-10
2.01292e-10
2.01397e-10
2.01511e-10
2.01634e-10
2.01764e-10
2.019e-10
2.02039e-10
2.02179e-10
2.02317e-10
2.02452e-10
2.0258e-10
2.02698e-10
2.02804e-10
2.02895e-10
2.02969e-10
2.03023e-10
2.03056e-10
2.03067e-10
2.03055e-10
2.03019e-10
2.02961e-10
2.0288e-10
2.0278e-10
2.02661e-10
2.02526e-10
2.02379e-10
2.02222e-10
2.02058e-10
2.01891e-10
2.01723e-10
2.01557e-10
2.01395e-10
2.0124e-10
2.01094e-10
2.00956e-10
2.00829e-10
2.00713e-10
2.00608e-10
2.00513e-10
2.00429e-10
2.00354e-10
2.00288e-10
2.0023e-10
2.00178e-10
2.00133e-10
2.00092e-10
2.00055e-10
2.00021e-10
1.99988e-10
1.99958e-10
1.99928e-10
1.99898e-10
1.99867e-10
1.99836e-10
1.99804e-10
1.99771e-10
1.99736e-10
1.997e-10
1.99663e-10
1.99624e-10
1.99584e-10
1.99543e-10
1.99501e-10
1.99457e-10
1.99414e-10
1.99369e-10
1.99324e-10
1.99278e-10
1.99233e-10
1.99187e-10
1.99141e-10
1.99095e-10
1.9905e-10
1.99004e-10
1.9896e-10
1.98915e-10
1.98871e-10
1.98828e-10
1.98785e-10
1.98742e-10
1.98701e-10
1.9866e-10
1.98619e-10
1.98579e-10
1.98541e-10
1.98502e-10
1.98465e-10
1.98428e-10
1.98392e-10
1.98357e-10
1.98323e-10
1.98289e-10
1.98256e-10
1.98224e-10
1.98193e-10
1.98163e-10
1.98133e-10
1.98104e-10
1.98076e-10
1.98049e-10
1.98023e-10
1.97997e-10
1.97973e-10
1.97949e-10
1.97926e-10
1.97904e-10
1.97883e-10
1.97862e-10
1.97842e-10
1.97824e-10
1.97805e-10
1.97788e-10
1.97771e-10
1.97755e-10
1.97739e-10
1.97724e-10
1.9771e-10
1.97696e-10
1.97683e-10
1.9767e-10
1.97658e-10
1.97646e-10
1.97634e-10
1.97623e-10
1.97613e-10
1.97602e-10
1.97592e-10
1.97583e-10
1.97573e-10
1.97564e-10
1.97555e-10
1.97546e-10
1.97538e-10
1.9753e-10
1.97523e-10
1.97516e-10
1.97511e-10
1.97506e-10
1.97503e-10
1.97503e-10
1.97504e-10
1.97508e-10
1.97516e-10
1.97527e-10
1.97543e-10
1.97563e-10
1.97588e-10
1.97618e-10
1.97655e-10
1.97697e-10
1.97745e-10
1.978e-10
1.9786e-10
1.97927e-10
1.97999e-10
1.98076e-10
1.98158e-10
1.98244e-10
1.98333e-10
1.98424e-10
1.98517e-10
1.9861e-10
1.98701e-10
1.98791e-10
1.98877e-10
1.98959e-10
1.99034e-10
1.99102e-10
1.99161e-10
1.9921e-10
1.99249e-10
1.99276e-10
1.99291e-10
1.99293e-10
1.99281e-10
1.99256e-10
1.99218e-10
1.99167e-10
1.99103e-10
1.99028e-10
1.98942e-10
1.98847e-10
1.98743e-10
1.98632e-10
1.98516e-10
1.98395e-10
1.98272e-10
1.98147e-10
1.98022e-10
1.97899e-10
1.97778e-10
1.9766e-10
1.97546e-10
1.97437e-10
1.97333e-10
1.97235e-10
1.97143e-10
1.97056e-10
1.96976e-10
1.969e-10
1.96831e-10
1.96766e-10
1.96706e-10
1.9665e-10
1.96599e-10
1.9655e-10
1.96505e-10
1.96462e-10
1.96422e-10
1.96383e-10
1.96345e-10
1.96308e-10
1.96273e-10
1.96237e-10
1.96202e-10
1.96166e-10
1.9613e-10
1.96095e-10
1.96058e-10
1.96021e-10
1.95984e-10
1.95946e-10
1.95907e-10
1.95868e-10
1.95828e-10
1.95788e-10
1.95747e-10
1.95706e-10
1.95665e-10
1.95623e-10
1.95581e-10
1.95539e-10
1.95497e-10
1.95455e-10
1.95413e-10
1.95371e-10
1.95329e-10
1.95287e-10
1.95246e-10
1.95204e-10
1.95163e-10
1.95123e-10
1.95083e-10
1.95043e-10
1.95003e-10
1.94964e-10
1.94926e-10
1.94888e-10
1.94851e-10
1.94814e-10
1.94777e-10
1.94741e-10
1.94706e-10
1.94671e-10
1.94637e-10
1.94603e-10
1.9457e-10
1.94538e-10
1.94506e-10
1.94475e-10
1.94444e-10
1.94414e-10
1.94384e-10
1.94356e-10
1.94327e-10
1.943e-10
1.94273e-10
1.94246e-10
1.9422e-10
1.94195e-10
1.94171e-10
1.94147e-10
1.94123e-10
1.941e-10
1.94078e-10
1.94056e-10
1.94035e-10
1.94015e-10
1.93994e-10
1.93975e-10
1.93956e-10
1.93937e-10
1.93919e-10
1.93901e-10
1.93884e-10
1.93867e-10
1.93851e-10
1.93835e-10
1.93819e-10
1.93804e-10
1.93789e-10
1.93774e-10
1.9376e-10
1.93746e-10
1.93733e-10
1.9372e-10
1.93707e-10
1.93695e-10
1.93684e-10
1.93673e-10
1.93663e-10
1.93653e-10
1.93645e-10
1.93637e-10
1.93632e-10
1.93627e-10
1.93624e-10
1.93623e-10
1.93624e-10
1.93627e-10
1.93633e-10
1.93642e-10
1.93653e-10
1.93668e-10
1.93686e-10
1.93707e-10
1.93732e-10
1.9376e-10
1.93793e-10
1.93828e-10
1.93868e-10
1.93911e-10
1.93957e-10
1.94007e-10
1.9406e-10
1.94115e-10
1.94173e-10
1.94232e-10
1.94293e-10
1.94355e-10
1.94418e-10
1.9448e-10
1.94542e-10
1.94602e-10
1.9466e-10
1.94715e-10
1.94767e-10
1.94815e-10
1.94858e-10
1.94895e-10
1.94927e-10
1.94952e-10
1.9497e-10
1.94981e-10
1.94984e-10
1.94979e-10
1.94965e-10
1.94943e-10
1.94913e-10
1.94874e-10
1.94828e-10
1.94773e-10
1.94712e-10
1.94643e-10
1.94568e-10
1.94488e-10
1.94402e-10
1.94312e-10
1.94218e-10
1.94122e-10
1.94023e-10
1.93923e-10
1.93822e-10
1.93722e-10
1.93621e-10
1.93523e-10
1.93425e-10
1.9333e-10
1.93238e-10
1.93148e-10
1.93062e-10
1.92978e-10
1.92899e-10
1.92822e-10
1.92749e-10
1.92679e-10
1.92613e-10
1.92549e-10
1.92489e-10
1.92432e-10
1.92377e-10
1.92324e-10
1.92274e-10
1.92225e-10
1.92179e-10
1.92133e-10
1.92089e-10
1.92047e-10
1.92004e-10
1.91963e-10
1.91922e-10
1.91882e-10
1.91841e-10
1.91801e-10
1.91761e-10
1.91721e-10
1.91681e-10
1.9164e-10
1.91599e-10
1.91558e-10
1.91517e-10
1.91475e-10
1.91433e-10
1.91391e-10
1.91348e-10
1.91305e-10
1.91262e-10
1.91219e-10
1.91175e-10
1.91131e-10
1.91087e-10
1.91043e-10
1.90999e-10
1.90955e-10
1.90911e-10
1.90867e-10
1.90823e-10
1.90779e-10
1.90735e-10
1.90691e-10
1.90648e-10
1.90605e-10
1.90562e-10
1.90519e-10
1.90477e-10
1.90435e-10
1.90393e-10
1.90352e-10
1.90311e-10
1.9027e-10
1.9023e-10
1.9019e-10
1.90151e-10
1.90112e-10
1.90074e-10
1.90036e-10
1.89999e-10
1.89962e-10
1.89926e-10
1.8989e-10
1.89855e-10
1.89821e-10
1.89787e-10
1.89754e-10
1.89721e-10
1.89689e-10
1.89659e-10
1.89629e-10
1.89599e-10
1.89571e-10
1.89544e-10
1.89517e-10
1.89492e-10
1.89468e-10
1.89444e-10
1.89423e-10
1.89402e-10
1.89383e-10
1.89366e-10
1.8935e-10
1.89335e-10
1.89322e-10
1.8931e-10
1.893e-10
1.89293e-10
1.89286e-10
1.89281e-10
1.89277e-10
1.89275e-10
1.89275e-10
1.89276e-10
1.89277e-10
1.89281e-10
1.89286e-10
1.89291e-10
1.89298e-10
1.89305e-10
1.89313e-10
1.89323e-10
1.89334e-10
1.89344e-10
1.89355e-10
1.89366e-10
1.89377e-10
1.89383e-10
1.8939e-10
1.89381e-10
1.89359e-10
1.89305e-10
1.89197e-10
1.89006e-10
1.8868e-10
1.8819e-10
1.87534e-10
1.86816e-10
1.86195e-10
1.85781e-10
1.85569e-10
1.85478e-10
1.8546e-10
1.85469e-10
1.85496e-10
1.85536e-10
1.85576e-10
1.85621e-10
1.85669e-10
1.8572e-10
1.85773e-10
1.85829e-10
1.85886e-10
1.85945e-10
1.86005e-10
1.86066e-10
1.86129e-10
1.86192e-10
1.86257e-10
1.86321e-10
1.86386e-10
1.86451e-10
1.86516e-10
1.8658e-10
1.86643e-10
1.86705e-10
1.86765e-10
1.86824e-10
1.8688e-10
1.86934e-10
1.86985e-10
1.87033e-10
1.87077e-10
1.87118e-10
1.87155e-10
1.87187e-10
1.87216e-10
1.87239e-10
1.87257e-10
1.8727e-10
1.87277e-10
1.8728e-10
1.8728e-10
1.87279e-10
1.87275e-10
1.87256e-10
1.87234e-10
1.87208e-10
1.87178e-10
1.87145e-10
1.87107e-10
1.87067e-10
1.87023e-10
1.86977e-10
1.86928e-10
1.86877e-10
1.86824e-10
1.8677e-10
1.86715e-10
1.8666e-10
1.86604e-10
1.86548e-10
1.86492e-10
1.86437e-10
1.86383e-10
1.8633e-10
1.86278e-10
1.86228e-10
1.86179e-10
1.86133e-10
1.86087e-10
1.86044e-10
1.86003e-10
1.85964e-10
1.85927e-10
1.85891e-10
1.85858e-10
1.85826e-10
1.85796e-10
1.85768e-10
1.85742e-10
1.85717e-10
1.85693e-10
1.85671e-10
1.8565e-10
1.8563e-10
1.85611e-10
1.85593e-10
1.85576e-10
1.85559e-10
1.85543e-10
1.85528e-10
1.85512e-10
1.85498e-10
1.85483e-10
1.85469e-10
1.85454e-10
1.8544e-10
1.85426e-10
1.85412e-10
1.85398e-10
1.85384e-10
1.8537e-10
1.85356e-10
1.85341e-10
1.85327e-10
1.85312e-10
1.85298e-10
1.85283e-10
1.85268e-10
1.85254e-10
1.85239e-10
1.85224e-10
1.85209e-10
1.85194e-10
1.8518e-10
1.85165e-10
1.8515e-10
1.85136e-10
1.85121e-10
1.85107e-10
1.85093e-10
1.85079e-10
1.85065e-10
1.85052e-10
1.85039e-10
1.85026e-10
1.85013e-10
1.85e-10
1.84988e-10
1.84976e-10
1.84965e-10
1.84954e-10
1.84943e-10
1.84933e-10
1.84923e-10
1.84913e-10
1.84904e-10
1.84895e-10
1.84887e-10
1.84879e-10
1.84871e-10
1.84864e-10
1.84858e-10
1.84852e-10
1.84846e-10
1.84841e-10
1.84836e-10
1.84831e-10
1.84827e-10
1.84824e-10
1.84821e-10
1.84818e-10
1.84816e-10
1.84815e-10
1.84814e-10
1.84813e-10
1.84813e-10
1.84813e-10
1.84813e-10
1.84813e-10
1.84815e-10
1.84816e-10
1.84819e-10
1.84821e-10
1.84825e-10
1.84828e-10
1.84832e-10
1.84836e-10
1.84841e-10
1.84846e-10
1.84851e-10
1.84857e-10
1.84863e-10
1.8487e-10
1.84876e-10
1.84884e-10
1.84891e-10
1.84899e-10
1.84908e-10
1.84917e-10
1.84926e-10
1.84936e-10
1.84946e-10
1.84957e-10
1.84968e-10
1.8498e-10
1.84992e-10
1.85005e-10
1.85019e-10
1.85033e-10
1.85049e-10
1.85065e-10
1.85082e-10
1.851e-10
1.85118e-10
1.85138e-10
1.85159e-10
1.85182e-10
1.85205e-10
1.8523e-10
1.85256e-10
1.85284e-10
1.85312e-10
1.85343e-10
1.85374e-10
1.85409e-10
1.85443e-10
1.85481e-10
1.85519e-10
1.8556e-10
1.85601e-10
1.85645e-10
1.8569e-10
1.85737e-10
1.85784e-10
1.85835e-10
1.85885e-10
1.85938e-10
1.8599e-10
1.86045e-10
1.861e-10
1.86156e-10
1.86212e-10
1.86269e-10
1.86326e-10
1.86383e-10
)
;

boundaryField
{
    inlet
    {
        type            calculated;
        value           uniform -2.74882e-10;
    }
    outlet
    {
        type            calculated;
        value           uniform 1.86439e-10;
    }
    emptyWalls
    {
        type            empty;
        value           nonuniform List<scalar> 0();
    }
}


// ************************************************************************* //
