/*--------------------------------*- C++ -*----------------------------------*\
  =========                 |
  \\      /  F ield         | OpenFOAM: The Open Source CFD Toolbox
   \\    /   O peration     | Website:  https://openfoam.org
    \\  /    A nd           | Version:  9
     \\/     M anipulation  |
\*---------------------------------------------------------------------------*/
FoamFile
{
    format      ascii;
    class       volScalarField;
    location    "24100";
    object      krc;
}
// * * * * * * * * * * * * * * * * * * * * * * * * * * * * * * * * * * * * * //

dimensions      [0 0 0 0 0 0 0];

internalField   nonuniform List<scalar> 
1000
(
7.74814e-08
7.07866e-07
2.51144e-06
5.42065e-06
9.41935e-06
1.45114e-05
2.07147e-05
2.80471e-05
3.65315e-05
4.61863e-05
5.7026e-05
6.90521e-05
8.22546e-05
9.66011e-05
0.000112033
0.000128458
0.000145743
0.000163706
0.000182119
0.000200711
0.000219175
0.000237199
0.00025448
0.000270764
0.000285853
0.000299638
0.000312077
0.000323252
0.000333434
0.000343792
0.000359558
0.000405273
0.00059065
0.00182827
0.0167876
0.0379801
0.0435472
0.045646
0.0467966
0.0475835
0.0481946
0.0487081
0.0491581
0.0495653
0.0499392
0.0502882
0.0506157
0.0509261
0.0512207
0.0515024
0.0517717
0.0520308
0.0522796
0.0525199
0.0527516
0.0529764
0.0531942
0.0534062
0.0536127
0.0538146
0.054012
0.0542059
0.0543964
0.0545843
0.0547696
0.054953
0.0551345
0.0553149
0.0554945
0.0556737
0.0558534
0.0560357
0.0562187
0.0564026
0.0565871
0.0567727
0.0569595
0.057148
0.0573385
0.0575315
0.0577276
0.0579273
0.0581314
0.0583409
0.0585571
0.0587815
0.0590163
0.0592645
0.0595302
0.0598185
0.0601356
0.0604888
0.0608845
0.0613271
0.0618167
0.0623481
0.0629122
0.0635004
0.0641057
0.0647237
0.0653508
0.0659847
0.0666236
0.067266
0.0679112
0.0685582
0.0692065
0.0698556
0.0705051
0.0711548
0.0718044
0.0724537
0.0731026
0.0737509
0.0743985
0.0750453
0.0756913
0.0763363
0.0769804
0.0776234
0.0782653
0.0789061
0.0795458
0.0801843
0.0808217
0.0814578
0.0820927
0.0827264
0.0833588
0.08399
0.0846199
0.0852485
0.0858759
0.0865019
0.0871268
0.0877502
0.0883725
0.0889934
0.089613
0.0902313
0.0908483
0.0914641
0.0920785
0.0926916
0.0933035
0.093914
0.0945233
0.0951313
0.095738
0.0963434
0.0969476
0.0975505
0.0981522
0.0987526
0.0993517
0.0999496
0.100546
0.101142
0.101736
0.102329
0.10292
0.10351
0.104099
0.104687
0.105274
0.105859
0.106443
0.107026
0.107607
0.108188
0.108767
0.109345
0.109922
0.110498
0.111072
0.111646
0.112218
0.11279
0.11336
0.113929
0.114498
0.115065
0.115631
0.116196
0.11676
0.117323
0.117885
0.118446
0.119006
0.119565
0.120122
0.120679
0.121234
0.121788
0.122342
0.122894
0.123445
0.123995
0.124544
0.125091
0.125638
0.126184
0.126729
0.127273
0.127815
0.128357
0.128898
0.129438
0.129977
0.130514
0.131051
0.131587
0.132122
0.132656
0.133189
0.133722
0.134253
0.134783
0.135312
0.135841
0.136368
0.136895
0.137421
0.137945
0.138469
0.138992
0.139514
0.140036
0.140556
0.141075
0.141594
0.142112
0.142629
0.143145
0.14366
0.144174
0.144687
0.1452
0.145712
0.146223
0.146733
0.147242
0.14775
0.148258
0.148765
0.149271
0.149776
0.15028
0.150784
0.151286
0.151788
0.152289
0.15279
0.153289
0.153788
0.154286
0.154784
0.15528
0.155776
0.156271
0.156765
0.157259
0.157752
0.158244
0.158735
0.159225
0.159715
0.160204
0.160693
0.16118
0.161667
0.162154
0.162639
0.163124
0.163608
0.164092
0.164575
0.165057
0.165538
0.166019
0.166499
0.166978
0.167457
0.167935
0.168412
0.168889
0.169365
0.16984
0.170315
0.170789
0.171262
0.171735
0.172207
0.172678
0.173149
0.173618
0.174088
0.174556
0.175024
0.175491
0.175958
0.176424
0.176889
0.177354
0.177818
0.178282
0.178745
0.179207
0.179669
0.180131
0.180592
0.181052
0.181513
0.181972
0.182431
0.18289
0.183348
0.183806
0.184263
0.18472
0.185177
0.185633
0.186088
0.186543
0.186997
0.187451
0.187904
0.188357
0.188809
0.18926
0.189711
0.190162
0.190612
0.191061
0.19151
0.191958
0.192405
0.192853
0.193299
0.193745
0.194191
0.194636
0.195081
0.195525
0.195968
0.196411
0.196854
0.197296
0.197738
0.198179
0.19862
0.19906
0.1995
0.19994
0.200379
0.200817
0.201255
0.201693
0.20213
0.202567
0.203004
0.203439
0.203875
0.20431
0.204745
0.205179
0.205613
0.206046
0.206479
0.206911
0.207343
0.207775
0.208206
0.208637
0.209068
0.209498
0.209927
0.210356
0.210785
0.211214
0.211642
0.212069
0.212496
0.212923
0.21335
0.213776
0.214201
0.214627
0.215051
0.215476
0.2159
0.216324
0.216747
0.21717
0.217593
0.218015
0.218437
0.218859
0.21928
0.2197
0.220121
0.220541
0.220961
0.22138
0.221799
0.222218
0.222636
0.223054
0.223472
0.223889
0.224306
0.224723
0.225139
0.225555
0.225971
0.226386
0.226801
0.227216
0.227631
0.228045
0.228458
0.228872
0.229285
0.229698
0.23011
0.230523
0.230935
0.231346
0.231757
0.232168
0.232579
0.232989
0.233399
0.233809
0.234218
0.234627
0.235036
0.235444
0.235852
0.23626
0.236667
0.237074
0.237481
0.237887
0.238293
0.238699
0.239104
0.239509
0.239914
0.240319
0.240723
0.241127
0.241531
0.241935
0.242338
0.242742
0.243145
0.243548
0.243951
0.244353
0.244756
0.245158
0.245561
0.245963
0.246365
0.246767
0.247169
0.24757
0.247972
0.248373
0.248775
0.249176
0.249577
0.249978
0.250378
0.250778
0.251179
0.251579
0.251978
0.252378
0.252777
0.253176
0.253575
0.253973
0.254372
0.25477
0.255167
0.255565
0.255962
0.256359
0.256756
0.257153
0.25755
0.257946
0.258342
0.258738
0.259133
0.259529
0.259924
0.26032
0.260715
0.261109
0.261504
0.261899
0.262293
0.262687
0.263081
0.263475
0.263869
0.264262
0.264656
0.265049
0.265442
0.265835
0.266228
0.266621
0.267014
0.267406
0.267798
0.268191
0.268583
0.268975
0.269366
0.269758
0.27015
0.270541
0.270932
0.271323
0.271714
0.272105
0.272496
0.272887
0.273277
0.273668
0.274058
0.274448
0.274838
0.275228
0.275618
0.276007
0.276397
0.276787
0.277176
0.277565
0.277954
0.278343
0.278732
0.279121
0.27951
0.279899
0.280287
0.280676
0.281064
0.281453
0.281841
0.282229
0.282617
0.283005
0.283393
0.283781
0.284168
0.284556
0.284944
0.285331
0.285719
0.286106
0.286493
0.286881
0.287268
0.287655
0.288042
0.288429
0.288816
0.289203
0.28959
0.289977
0.290364
0.29075
0.291137
0.291524
0.29191
0.292297
0.292683
0.29307
0.293456
0.293842
0.294229
0.294615
0.295001
0.295387
0.295773
0.296159
0.296545
0.296931
0.297317
0.297703
0.298088
0.298474
0.298859
0.299245
0.29963
0.300016
0.300401
0.300786
0.301171
0.301557
0.301942
0.302327
0.302712
0.303097
0.303483
0.303868
0.304253
0.304638
0.305024
0.305409
0.305795
0.306181
0.306567
0.306953
0.307339
0.307725
0.308111
0.308498
0.308885
0.309271
0.309658
0.310046
0.310433
0.310821
0.311208
0.311596
0.311984
0.312372
0.31276
0.313149
0.313537
0.313926
0.314315
0.314703
0.315092
0.315481
0.31587
0.316259
0.316648
0.317037
0.317427
0.317816
0.318205
0.318595
0.318984
0.319373
0.319763
0.320153
0.320542
0.320932
0.321322
0.321712
0.322102
0.322492
0.322882
0.323272
0.323663
0.324053
0.324444
0.324834
0.325225
0.325616
0.326007
0.326398
0.32679
0.327181
0.327573
0.327965
0.328357
0.328749
0.329141
0.329534
0.329926
0.330319
0.330712
0.331105
0.331499
0.331892
0.332286
0.33268
0.333074
0.333468
0.333862
0.334257
0.334651
0.335046
0.335441
0.335837
0.336232
0.336628
0.337024
0.33742
0.337816
0.338213
0.33861
0.339006
0.339404
0.339801
0.340199
0.340596
0.340994
0.341393
0.341791
0.34219
0.342589
0.342988
0.343388
0.343787
0.344187
0.344587
0.344988
0.345388
0.345789
0.346191
0.346592
0.346994
0.347396
0.347798
0.348201
0.348604
0.349007
0.34941
0.349814
0.350218
0.350622
0.351027
0.351432
0.351837
0.352242
0.352648
0.353055
0.353461
0.353868
0.354275
0.354683
0.35509
0.355499
0.355907
0.356316
0.356725
0.357135
0.357545
0.357955
0.358366
0.358777
0.359188
0.3596
0.360012
0.360424
0.360837
0.36125
0.361664
0.362078
0.362492
0.362907
0.363322
0.363738
0.364153
0.36457
0.364986
0.365403
0.365821
0.366238
0.366656
0.367075
0.367494
0.367913
0.368333
0.368754
0.369174
0.369596
0.370017
0.370439
0.370862
0.371285
0.371709
0.372133
0.372557
0.372983
0.373408
0.373835
0.374262
0.374689
0.375118
0.375547
0.375976
0.376406
0.376837
0.377269
0.377701
0.378134
0.378568
0.379002
0.379438
0.379874
0.38031
0.380748
0.381186
0.381625
0.382065
0.382506
0.382947
0.383389
0.383832
0.384276
0.384721
0.385166
0.385612
0.386059
0.386506
0.386955
0.387404
0.387853
0.388304
0.388755
0.389207
0.38966
0.390114
0.390568
0.391024
0.391479
0.391936
0.392394
0.392852
0.393311
0.393771
0.394232
0.394694
0.395156
0.39562
0.396084
0.396549
0.397015
0.397482
0.39795
0.398419
0.398889
0.39936
0.399832
0.400304
0.400778
0.401253
0.401729
0.402206
0.402683
0.403162
0.403642
0.404123
0.404606
0.405089
0.405573
0.406059
0.406545
0.407033
0.407522
0.408012
0.408504
0.408996
0.40949
0.409985
0.410481
0.410978
0.411476
0.411976
0.412477
0.412979
0.413483
0.413987
0.414493
0.415001
0.415509
0.416019
0.41653
0.417042
0.417556
0.418071
0.418587
0.419104
0.419623
0.420143
0.420664
0.421186
0.421709
0.422234
0.422759
0.423286
0.423814
0.424342
0.424872
0.425402
0.425933
0.426464
0.426997
0.427529
0.428062
0.428594
0.429127
0.429659
0.430191
0.430721
0.431251
0.431778
0.432304
0.432826
0.433346
0.433862
0.434374
0.434881
0.435381
0.435875
0.436361
0.436838
0.437306
0.437763
0.438207
0.438639
0.439056
0.439457
0.439843
0.440211
0.44056
0.44089
0.4412
0.441491
0.44176
0.44201
0.442239
0.442448
0.442636
0.442807
0.442959
0.443094
0.443213
0.443318
0.443408
0.443486
0.443552
0.443609
0.443657
0.443697
0.44373
0.443758
0.443779
0.443798
0.443813
0.443827
0.443839
0.443852
0.443868
0.443893
0.443934
0.444005
0.444131
0.444356
0.444759
0.445482
0.446773
0.449059
0.453052
0.459862
0.471028
0.488186
0.51207
0.541044
0.570698
0.595995
0.614258
0.625828
0.632532
0.636211
0.638167
0.639189
0.639719
0.639991
0.640131
0.640202
0.640238
0.640256
0.640265
0.640269
0.640271
0.640273
0.640273
0.640274
0.640275
0.640276
0.640276
0.640279
0.640279
0.640282
0.640283
0.640286
0.640287
0.640291
)
;

boundaryField
{
    inlet
    {
        type            calculated;
        value           uniform 3.08149e-33;
    }
    outlet
    {
        type            calculated;
        value           uniform 0.640291;
    }
    emptyWalls
    {
        type            empty;
    }
}


// ************************************************************************* //
