/*--------------------------------*- C++ -*----------------------------------*\
  =========                 |
  \\      /  F ield         | OpenFOAM: The Open Source CFD Toolbox
   \\    /   O peration     | Website:  https://openfoam.org
    \\  /    A nd           | Version:  9
     \\/     M anipulation  |
\*---------------------------------------------------------------------------*/
FoamFile
{
    format      ascii;
    class       surfaceScalarField;
    location    "24100";
    object      phia;
}
// * * * * * * * * * * * * * * * * * * * * * * * * * * * * * * * * * * * * * //

dimensions      [0 2 0 0 0 0 0];

internalField   nonuniform List<scalar> 
999
(
2.74871e-10
2.74879e-10
2.7486e-10
2.74858e-10
2.74824e-10
2.74805e-10
2.74766e-10
2.74723e-10
2.74694e-10
2.7463e-10
2.74602e-10
2.74535e-10
2.74485e-10
2.74421e-10
2.74351e-10
2.74282e-10
2.74208e-10
2.74128e-10
2.74051e-10
2.73966e-10
2.7389e-10
2.73801e-10
2.73744e-10
2.73662e-10
2.73621e-10
2.73563e-10
2.73512e-10
2.73482e-10
2.73421e-10
2.7338e-10
2.73243e-10
2.7278e-10
2.71008e-10
2.61066e-10
2.23177e-10
2.14625e-10
2.12353e-10
2.11355e-10
2.10763e-10
2.1035e-10
2.10029e-10
2.09751e-10
2.09492e-10
2.09248e-10
2.09036e-10
2.08872e-10
2.0875e-10
2.08643e-10
2.08516e-10
2.08347e-10
2.0815e-10
2.07968e-10
2.07862e-10
2.07885e-10
2.08063e-10
2.08384e-10
2.08802e-10
2.09251e-10
2.0966e-10
2.09974e-10
2.10165e-10
2.10236e-10
2.10221e-10
2.10167e-10
2.10104e-10
2.09975e-10
2.0955e-10
2.0902e-10
2.08475e-10
2.07928e-10
2.07423e-10
2.06983e-10
2.06604e-10
2.06303e-10
2.06072e-10
2.05903e-10
2.05785e-10
2.05707e-10
2.05661e-10
2.05636e-10
2.05624e-10
2.05615e-10
2.05604e-10
2.05586e-10
2.05559e-10
2.05523e-10
2.05479e-10
2.05428e-10
2.05372e-10
2.05312e-10
2.05251e-10
2.0519e-10
2.05131e-10
2.05076e-10
2.05024e-10
2.04975e-10
2.04925e-10
2.04875e-10
2.04825e-10
2.04775e-10
2.04727e-10
2.04679e-10
2.04633e-10
2.04587e-10
2.04543e-10
2.04499e-10
2.04457e-10
2.04415e-10
2.04375e-10
2.04337e-10
2.04299e-10
2.04263e-10
2.04228e-10
2.04195e-10
2.04164e-10
2.04134e-10
2.04105e-10
2.04078e-10
2.04052e-10
2.04027e-10
2.04003e-10
2.0398e-10
2.03959e-10
2.03938e-10
2.0392e-10
2.03903e-10
2.03888e-10
2.03876e-10
2.03866e-10
2.03857e-10
2.0385e-10
2.03844e-10
2.03839e-10
2.03833e-10
2.03827e-10
2.03821e-10
2.03814e-10
2.03807e-10
2.038e-10
2.03794e-10
2.03789e-10
2.03787e-10
2.03788e-10
2.03791e-10
2.03796e-10
2.03803e-10
2.0381e-10
2.03816e-10
2.03822e-10
2.03826e-10
2.03827e-10
2.03824e-10
2.03818e-10
2.0381e-10
2.03802e-10
2.03799e-10
2.03804e-10
2.03821e-10
2.03857e-10
2.03913e-10
2.03993e-10
2.04098e-10
2.04226e-10
2.04377e-10
2.04547e-10
2.04734e-10
2.04934e-10
2.05143e-10
2.05357e-10
2.0557e-10
2.05778e-10
2.05975e-10
2.06156e-10
2.06314e-10
2.06445e-10
2.06542e-10
2.06601e-10
2.0662e-10
2.06596e-10
2.06531e-10
2.06426e-10
2.06284e-10
2.06112e-10
2.05914e-10
2.05699e-10
2.05473e-10
2.05244e-10
2.05018e-10
2.048e-10
2.04596e-10
2.04409e-10
2.04241e-10
2.04093e-10
2.03967e-10
2.0386e-10
2.03772e-10
2.03701e-10
2.03644e-10
2.036e-10
2.03565e-10
2.03538e-10
2.03516e-10
2.03498e-10
2.03481e-10
2.03464e-10
2.03446e-10
2.03427e-10
2.03405e-10
2.0338e-10
2.03353e-10
2.03323e-10
2.0329e-10
2.03255e-10
2.03217e-10
2.03177e-10
2.03136e-10
2.03093e-10
2.0305e-10
2.03005e-10
2.0296e-10
2.02915e-10
2.0287e-10
2.02825e-10
2.0278e-10
2.02735e-10
2.02691e-10
2.02648e-10
2.02605e-10
2.02562e-10
2.02521e-10
2.0248e-10
2.0244e-10
2.02401e-10
2.02363e-10
2.02326e-10
2.0229e-10
2.02255e-10
2.02221e-10
2.02188e-10
2.02156e-10
2.02125e-10
2.02094e-10
2.02065e-10
2.02037e-10
2.0201e-10
2.01984e-10
2.01959e-10
2.01935e-10
2.01912e-10
2.01891e-10
2.01871e-10
2.01852e-10
2.01834e-10
2.01817e-10
2.01802e-10
2.01787e-10
2.01774e-10
2.01761e-10
2.01749e-10
2.01737e-10
2.01726e-10
2.01715e-10
2.01705e-10
2.01696e-10
2.01686e-10
2.01678e-10
2.0167e-10
2.01664e-10
2.01658e-10
2.01652e-10
2.01648e-10
2.01644e-10
2.01641e-10
2.01638e-10
2.01635e-10
2.01632e-10
2.01628e-10
2.01624e-10
2.01619e-10
2.01615e-10
2.0161e-10
2.01607e-10
2.01605e-10
2.01607e-10
2.01612e-10
2.01622e-10
2.01639e-10
2.01663e-10
2.01697e-10
2.0174e-10
2.01794e-10
2.01858e-10
2.01935e-10
2.02022e-10
2.02121e-10
2.02231e-10
2.02349e-10
2.02477e-10
2.0261e-10
2.02749e-10
2.02891e-10
2.03033e-10
2.03173e-10
2.03309e-10
2.03438e-10
2.03556e-10
2.03662e-10
2.03753e-10
2.03826e-10
2.03881e-10
2.03914e-10
2.03926e-10
2.03916e-10
2.03883e-10
2.03829e-10
2.03754e-10
2.03661e-10
2.0355e-10
2.03426e-10
2.03291e-10
2.03147e-10
2.02997e-10
2.02845e-10
2.02692e-10
2.02542e-10
2.02396e-10
2.02257e-10
2.02126e-10
2.02003e-10
2.0189e-10
2.01786e-10
2.01692e-10
2.01608e-10
2.01532e-10
2.01465e-10
2.01406e-10
2.01353e-10
2.01306e-10
2.01264e-10
2.01226e-10
2.01191e-10
2.01159e-10
2.01128e-10
2.01098e-10
2.01068e-10
2.01039e-10
2.01009e-10
2.00978e-10
2.00947e-10
2.00914e-10
2.00881e-10
2.00846e-10
2.0081e-10
2.00773e-10
2.00736e-10
2.00697e-10
2.00657e-10
2.00617e-10
2.00576e-10
2.00535e-10
2.00494e-10
2.00452e-10
2.00411e-10
2.00369e-10
2.00328e-10
2.00286e-10
2.00246e-10
2.00205e-10
2.00165e-10
2.00125e-10
2.00086e-10
2.00048e-10
2.0001e-10
1.99973e-10
1.99937e-10
1.99901e-10
1.99866e-10
1.99832e-10
1.99799e-10
1.99766e-10
1.99735e-10
1.99704e-10
1.99674e-10
1.99645e-10
1.99617e-10
1.99589e-10
1.99563e-10
1.99538e-10
1.99513e-10
1.9949e-10
1.99467e-10
1.99445e-10
1.99424e-10
1.99405e-10
1.99386e-10
1.99367e-10
1.9935e-10
1.99334e-10
1.99318e-10
1.99303e-10
1.99289e-10
1.99275e-10
1.99262e-10
1.9925e-10
1.99238e-10
1.99227e-10
1.99216e-10
1.99206e-10
1.99197e-10
1.99188e-10
1.99179e-10
1.99171e-10
1.99164e-10
1.99157e-10
1.9915e-10
1.99144e-10
1.99137e-10
1.99131e-10
1.99126e-10
1.9912e-10
1.99115e-10
1.9911e-10
1.99106e-10
1.99103e-10
1.99101e-10
1.991e-10
1.99101e-10
1.99105e-10
1.99112e-10
1.99121e-10
1.99135e-10
1.99153e-10
1.99177e-10
1.99205e-10
1.9924e-10
1.9928e-10
1.99327e-10
1.9938e-10
1.9944e-10
1.99507e-10
1.9958e-10
1.99659e-10
1.99743e-10
1.99832e-10
1.99925e-10
2.00022e-10
2.00121e-10
2.00221e-10
2.00321e-10
2.0042e-10
2.00516e-10
2.00608e-10
2.00696e-10
2.00776e-10
2.00849e-10
2.00912e-10
2.00966e-10
2.01008e-10
2.01038e-10
2.01055e-10
2.0106e-10
2.0105e-10
2.01028e-10
2.00992e-10
2.00944e-10
2.00884e-10
2.00812e-10
2.00731e-10
2.0064e-10
2.00543e-10
2.00439e-10
2.0033e-10
2.00218e-10
2.00105e-10
1.9999e-10
1.99877e-10
1.99765e-10
1.99656e-10
1.9955e-10
1.99449e-10
1.99352e-10
1.9926e-10
1.99174e-10
1.99093e-10
1.99017e-10
1.98947e-10
1.98881e-10
1.9882e-10
1.98764e-10
1.98711e-10
1.98662e-10
1.98616e-10
1.98573e-10
1.98532e-10
1.98493e-10
1.98456e-10
1.9842e-10
1.98384e-10
1.98349e-10
1.98315e-10
1.9828e-10
1.98246e-10
1.98212e-10
1.98177e-10
1.98142e-10
1.98106e-10
1.9807e-10
1.98034e-10
1.97997e-10
1.9796e-10
1.97922e-10
1.97885e-10
1.97846e-10
1.97808e-10
1.9777e-10
1.97731e-10
1.97693e-10
1.97654e-10
1.97616e-10
1.97578e-10
1.9754e-10
1.97502e-10
1.97465e-10
1.97428e-10
1.97391e-10
1.97355e-10
1.97319e-10
1.97284e-10
1.97249e-10
1.97215e-10
1.97182e-10
1.97149e-10
1.97117e-10
1.97085e-10
1.97054e-10
1.97024e-10
1.96995e-10
1.96966e-10
1.96938e-10
1.9691e-10
1.96884e-10
1.96858e-10
1.96833e-10
1.96808e-10
1.96785e-10
1.96762e-10
1.96739e-10
1.96718e-10
1.96697e-10
1.96677e-10
1.96658e-10
1.96639e-10
1.96621e-10
1.96603e-10
1.96587e-10
1.9657e-10
1.96555e-10
1.9654e-10
1.96525e-10
1.96511e-10
1.96498e-10
1.96485e-10
1.96473e-10
1.96461e-10
1.96449e-10
1.96438e-10
1.96428e-10
1.96417e-10
1.96407e-10
1.96398e-10
1.96388e-10
1.96379e-10
1.96371e-10
1.96362e-10
1.96354e-10
1.96347e-10
1.9634e-10
1.96333e-10
1.96328e-10
1.96323e-10
1.96319e-10
1.96316e-10
1.96314e-10
1.96315e-10
1.96316e-10
1.9632e-10
1.96327e-10
1.96335e-10
1.96347e-10
1.96362e-10
1.9638e-10
1.96402e-10
1.96427e-10
1.96456e-10
1.9649e-10
1.96527e-10
1.96569e-10
1.96614e-10
1.96664e-10
1.96718e-10
1.96775e-10
1.96836e-10
1.969e-10
1.96966e-10
1.97035e-10
1.97106e-10
1.97178e-10
1.9725e-10
1.97323e-10
1.97394e-10
1.97464e-10
1.97532e-10
1.97597e-10
1.97658e-10
1.97715e-10
1.97766e-10
1.97812e-10
1.97851e-10
1.97883e-10
1.97908e-10
1.97924e-10
1.97932e-10
1.97932e-10
1.97923e-10
1.97905e-10
1.97879e-10
1.97844e-10
1.97801e-10
1.9775e-10
1.97692e-10
1.97627e-10
1.97556e-10
1.9748e-10
1.974e-10
1.97315e-10
1.97228e-10
1.97138e-10
1.97046e-10
1.96954e-10
1.96862e-10
1.96771e-10
1.9668e-10
1.96592e-10
1.96505e-10
1.96421e-10
1.9634e-10
1.96261e-10
1.96186e-10
1.96114e-10
1.96045e-10
1.9598e-10
1.95918e-10
1.95859e-10
1.95802e-10
1.95749e-10
1.95698e-10
1.95649e-10
1.95603e-10
1.95559e-10
1.95516e-10
1.95474e-10
1.95434e-10
1.95396e-10
1.95358e-10
1.9532e-10
1.95284e-10
1.95247e-10
1.95211e-10
1.95176e-10
1.9514e-10
1.95104e-10
1.95069e-10
1.95033e-10
1.94997e-10
1.94961e-10
1.94925e-10
1.94889e-10
1.94853e-10
1.94817e-10
1.9478e-10
1.94744e-10
1.94707e-10
1.9467e-10
1.94634e-10
1.94597e-10
1.94561e-10
1.94525e-10
1.94488e-10
1.94452e-10
1.94417e-10
1.94381e-10
1.94346e-10
1.94311e-10
1.94276e-10
1.94242e-10
1.94208e-10
1.94175e-10
1.94142e-10
1.94109e-10
1.94077e-10
1.94045e-10
1.94014e-10
1.93984e-10
1.93954e-10
1.93924e-10
1.93895e-10
1.93867e-10
1.93839e-10
1.93812e-10
1.93785e-10
1.93759e-10
1.93733e-10
1.93708e-10
1.93684e-10
1.9366e-10
1.93637e-10
1.93614e-10
1.93592e-10
1.9357e-10
1.93549e-10
1.93529e-10
1.93509e-10
1.9349e-10
1.93471e-10
1.93453e-10
1.93435e-10
1.93418e-10
1.93401e-10
1.93384e-10
1.93368e-10
1.93353e-10
1.93338e-10
1.93323e-10
1.93309e-10
1.93295e-10
1.93282e-10
1.93268e-10
1.93256e-10
1.93243e-10
1.93231e-10
1.9322e-10
1.93208e-10
1.93198e-10
1.93187e-10
1.93178e-10
1.93168e-10
1.9316e-10
1.93152e-10
1.93145e-10
1.93139e-10
1.93133e-10
1.93129e-10
1.93126e-10
1.93125e-10
1.93125e-10
1.93126e-10
1.9313e-10
1.93135e-10
1.93142e-10
1.93152e-10
1.93163e-10
1.93178e-10
1.93194e-10
1.93214e-10
1.93236e-10
1.9326e-10
1.93288e-10
1.93318e-10
1.93352e-10
1.93387e-10
1.93426e-10
1.93467e-10
1.9351e-10
1.93555e-10
1.93603e-10
1.93652e-10
1.93702e-10
1.93754e-10
1.93807e-10
1.9386e-10
1.93913e-10
1.93965e-10
1.94017e-10
1.94068e-10
1.94117e-10
1.94164e-10
1.94209e-10
1.94251e-10
1.94289e-10
1.94324e-10
1.94354e-10
1.9438e-10
1.94401e-10
1.94417e-10
1.94428e-10
1.94433e-10
1.94432e-10
1.94425e-10
1.94412e-10
1.94393e-10
1.94369e-10
1.94338e-10
1.94302e-10
1.9426e-10
1.94213e-10
1.94161e-10
1.94105e-10
1.94044e-10
1.9398e-10
1.93912e-10
1.93841e-10
1.93768e-10
1.93693e-10
1.93617e-10
1.93539e-10
1.93461e-10
1.93383e-10
1.93305e-10
1.93227e-10
1.9315e-10
1.93074e-10
1.93e-10
1.92927e-10
1.92856e-10
1.92787e-10
1.92719e-10
1.92654e-10
1.92591e-10
1.9253e-10
1.92471e-10
1.92414e-10
1.92359e-10
1.92306e-10
1.92254e-10
1.92204e-10
1.92156e-10
1.92109e-10
1.92064e-10
1.9202e-10
1.91976e-10
1.91934e-10
1.91893e-10
1.91852e-10
1.91812e-10
1.91772e-10
1.91733e-10
1.91694e-10
1.91656e-10
1.91617e-10
1.91579e-10
1.91541e-10
1.91503e-10
1.91465e-10
1.91427e-10
1.91389e-10
1.91351e-10
1.91313e-10
1.91275e-10
1.91237e-10
1.91199e-10
1.91161e-10
1.91123e-10
1.91085e-10
1.91046e-10
1.91008e-10
1.90971e-10
1.90933e-10
1.90895e-10
1.90857e-10
1.9082e-10
1.90783e-10
1.90746e-10
1.90709e-10
1.90672e-10
1.90636e-10
1.906e-10
1.90564e-10
1.90529e-10
1.90494e-10
1.9046e-10
1.90425e-10
1.90391e-10
1.90358e-10
1.90325e-10
1.90292e-10
1.9026e-10
1.90229e-10
1.90197e-10
1.90167e-10
1.90136e-10
1.90107e-10
1.90077e-10
1.90049e-10
1.9002e-10
1.89993e-10
1.89965e-10
1.89939e-10
1.89913e-10
1.89887e-10
1.89862e-10
1.89837e-10
1.89813e-10
1.8979e-10
1.89767e-10
1.89744e-10
1.89722e-10
1.89701e-10
1.8968e-10
1.8966e-10
1.8964e-10
1.89622e-10
1.89603e-10
1.89586e-10
1.89569e-10
1.89552e-10
1.89537e-10
1.89522e-10
1.89508e-10
1.89495e-10
1.89483e-10
1.89472e-10
1.89461e-10
1.89453e-10
1.89444e-10
1.89437e-10
1.89432e-10
1.89428e-10
1.89425e-10
1.89424e-10
1.89423e-10
1.89426e-10
1.89429e-10
1.89433e-10
1.89441e-10
1.8945e-10
1.89459e-10
1.89472e-10
1.89486e-10
1.89501e-10
1.8952e-10
1.89541e-10
1.89563e-10
1.89586e-10
1.89613e-10
1.89638e-10
1.89672e-10
1.89702e-10
1.89738e-10
1.89775e-10
1.89813e-10
1.89856e-10
1.89897e-10
1.89944e-10
1.89989e-10
1.90039e-10
1.90088e-10
1.90138e-10
1.9019e-10
1.90236e-10
1.90279e-10
1.90316e-10
1.90336e-10
1.90325e-10
1.90262e-10
1.90112e-10
1.89834e-10
1.89386e-10
1.88771e-10
1.88078e-10
1.8747e-10
1.87063e-10
1.86855e-10
1.86775e-10
1.86762e-10
1.86779e-10
1.86809e-10
1.86844e-10
1.86879e-10
1.86913e-10
1.86946e-10
1.86976e-10
1.87002e-10
1.87026e-10
1.87046e-10
1.87063e-10
1.87076e-10
1.87084e-10
1.87087e-10
1.87088e-10
1.87087e-10
1.87084e-10
1.87074e-10
1.87063e-10
1.87045e-10
1.87025e-10
1.87e-10
1.86974e-10
1.86945e-10
1.86914e-10
)
;

boundaryField
{
    inlet
    {
        type            calculated;
        value           uniform -2.74882e-10;
    }
    outlet
    {
        type            calculated;
        value           uniform 1.86878e-10;
    }
    emptyWalls
    {
        type            empty;
        value           nonuniform List<scalar> 0();
    }
}


// ************************************************************************* //
