/*--------------------------------*- C++ -*----------------------------------*\
  =========                 |
  \\      /  F ield         | OpenFOAM: The Open Source CFD Toolbox
   \\    /   O peration     | Website:  https://openfoam.org
    \\  /    A nd           | Version:  9
     \\/     M anipulation  |
\*---------------------------------------------------------------------------*/
FoamFile
{
    format      ascii;
    class       volScalarField;
    location    "2800";
    object      kra;
}
// * * * * * * * * * * * * * * * * * * * * * * * * * * * * * * * * * * * * * //

dimensions      [0 0 0 0 0 0 0];

internalField   nonuniform List<scalar> 
100
(
4.0201e-05
2.9746e-05
3.21028e-05
3.07352e-05
3.05971e-05
3.02151e-05
3.00443e-05
2.98097e-05
2.96016e-05
2.93951e-05
2.9209e-05
2.9028e-05
2.88649e-05
2.87038e-05
2.85584e-05
2.84124e-05
2.82789e-05
2.81406e-05
2.8007e-05
2.78504e-05
2.7673e-05
2.74228e-05
2.73457e-05
2.74317e-05
2.74572e-05
2.75055e-05
2.75453e-05
2.75841e-05
2.76208e-05
2.76561e-05
2.76902e-05
2.77221e-05
2.77516e-05
2.77797e-05
2.78067e-05
2.78321e-05
2.78566e-05
2.78805e-05
2.79031e-05
2.79243e-05
2.79442e-05
2.79633e-05
2.79814e-05
2.79987e-05
2.80153e-05
2.80301e-05
2.80436e-05
2.80562e-05
2.80678e-05
2.80789e-05
2.80894e-05
2.80989e-05
2.81065e-05
2.81128e-05
2.81185e-05
2.81234e-05
2.81283e-05
2.81324e-05
2.81355e-05
2.8137e-05
2.81378e-05
2.81384e-05
2.81383e-05
2.81378e-05
2.81367e-05
2.81346e-05
2.81316e-05
2.81279e-05
2.81242e-05
2.81205e-05
2.81164e-05
2.8111e-05
2.81051e-05
2.80993e-05
2.80934e-05
2.80881e-05
2.80833e-05
2.80782e-05
2.80716e-05
2.80643e-05
2.80571e-05
2.80476e-05
2.80316e-05
2.79994e-05
2.79327e-05
2.77664e-05
2.71028e-05
1.97105e-05
7.50029e-07
6.13461e-11
8.14334e-20
3.33297e-35
3.06701e-35
3.24302e-35
3.33279e-35
2.81165e-35
3.2428e-35
3.33277e-35
3.24295e-35
3.33311e-35
)
;

boundaryField
{
    inlet
    {
        type            calculated;
        value           uniform 1.17467e-05;
    }
    outlet
    {
        type            calculated;
        value           uniform 4.72862e-37;
    }
    emptyWalls
    {
        type            empty;
    }
}


// ************************************************************************* //
