/*--------------------------------*- C++ -*----------------------------------*\
  =========                 |
  \\      /  F ield         | OpenFOAM: The Open Source CFD Toolbox
   \\    /   O peration     | Website:  https://openfoam.org
    \\  /    A nd           | Version:  9
     \\/     M anipulation  |
\*---------------------------------------------------------------------------*/
FoamFile
{
    format      ascii;
    class       volScalarField;
    location    "2800";
    object      p;
}
// * * * * * * * * * * * * * * * * * * * * * * * * * * * * * * * * * * * * * //

dimensions      [0 0 0 0 0 0 0];

internalField   nonuniform List<scalar> 
100
(
5.95628e+06
5.94819e+06
5.93728e+06
5.92717e+06
5.91661e+06
5.90599e+06
5.89526e+06
5.88447e+06
5.8736e+06
5.86266e+06
5.85166e+06
5.8406e+06
5.82948e+06
5.81831e+06
5.8071e+06
5.79583e+06
5.78453e+06
5.77318e+06
5.76179e+06
5.75036e+06
5.73887e+06
5.72732e+06
5.71572e+06
5.70413e+06
5.69261e+06
5.68112e+06
5.66966e+06
5.65825e+06
5.64687e+06
5.63552e+06
5.62421e+06
5.61293e+06
5.60169e+06
5.59047e+06
5.57929e+06
5.56815e+06
5.55703e+06
5.54594e+06
5.53489e+06
5.52387e+06
5.51287e+06
5.50191e+06
5.49098e+06
5.48007e+06
5.4692e+06
5.45835e+06
5.44754e+06
5.43675e+06
5.42599e+06
5.41526e+06
5.40456e+06
5.39388e+06
5.38324e+06
5.37262e+06
5.36203e+06
5.35146e+06
5.34093e+06
5.33042e+06
5.31994e+06
5.30948e+06
5.29905e+06
5.28864e+06
5.27827e+06
5.26791e+06
5.25758e+06
5.24728e+06
5.237e+06
5.22675e+06
5.21652e+06
5.20631e+06
5.19612e+06
5.18596e+06
5.17581e+06
5.16569e+06
5.15558e+06
5.14549e+06
5.13542e+06
5.12537e+06
5.11533e+06
5.1053e+06
5.09529e+06
5.0853e+06
5.07532e+06
5.06538e+06
5.0555e+06
5.04575e+06
5.03626e+06
5.02763e+06
5.02315e+06
5.02104e+06
5.01904e+06
5.01703e+06
5.01503e+06
5.01303e+06
5.01102e+06
5.00902e+06
5.00701e+06
5.00501e+06
5.00301e+06
5.001e+06
)
;

boundaryField
{
    inlet
    {
        type            darcyGradPressure;
        gradient        uniform 4.00192e+06;
        Mf              Mf;
        phi             phi;
        value           uniform 5.96428e+06;
    }
    outlet
    {
        type            fixedValue;
        value           uniform 5e+06;
    }
    emptyWalls
    {
        type            empty;
    }
}


// ************************************************************************* //
