/*--------------------------------*- C++ -*----------------------------------*\
  =========                 |
  \\      /  F ield         | OpenFOAM: The Open Source CFD Toolbox
   \\    /   O peration     | Website:  https://openfoam.org
    \\  /    A nd           | Version:  9
     \\/     M anipulation  |
\*---------------------------------------------------------------------------*/
FoamFile
{
    format      ascii;
    class       surfaceScalarField;
    location    "2800";
    object      phia;
}
// * * * * * * * * * * * * * * * * * * * * * * * * * * * * * * * * * * * * * //

dimensions      [0 2 0 0 0 0 0];

internalField   nonuniform List<scalar> 
99
(
1.42034e-08
1.41938e-08
1.41831e-08
1.41626e-08
1.41341e-08
1.41333e-08
1.41264e-08
1.41172e-08
1.4106e-08
1.40932e-08
1.40801e-08
1.40666e-08
1.40526e-08
1.40386e-08
1.40245e-08
1.401e-08
1.39951e-08
1.39793e-08
1.39621e-08
1.39396e-08
1.39141e-08
1.38824e-08
1.38529e-08
1.38284e-08
1.38045e-08
1.37808e-08
1.37568e-08
1.3733e-08
1.3709e-08
1.36852e-08
1.3661e-08
1.36359e-08
1.36102e-08
1.35844e-08
1.35583e-08
1.35319e-08
1.35055e-08
1.34791e-08
1.34523e-08
1.3425e-08
1.33975e-08
1.33699e-08
1.33421e-08
1.33143e-08
1.32861e-08
1.32572e-08
1.3228e-08
1.31986e-08
1.31691e-08
1.31396e-08
1.311e-08
1.30798e-08
1.30489e-08
1.30178e-08
1.29866e-08
1.29556e-08
1.29247e-08
1.28936e-08
1.2862e-08
1.28302e-08
1.27985e-08
1.2767e-08
1.27357e-08
1.27045e-08
1.26733e-08
1.26421e-08
1.26111e-08
1.25806e-08
1.25509e-08
1.2522e-08
1.24934e-08
1.24653e-08
1.24382e-08
1.24123e-08
1.23878e-08
1.2365e-08
1.23435e-08
1.23226e-08
1.23019e-08
1.22813e-08
1.22586e-08
1.22278e-08
1.21762e-08
1.20774e-08
1.18828e-08
1.14407e-08
9.98235e-09
2.41147e-09
3.45377e-11
2.68845e-15
3.56713e-24
2.80362e-39
2.68712e-39
2.88064e-39
2.91995e-39
2.46336e-39
2.88052e-39
2.91993e-39
2.84125e-39
)
;

boundaryField
{
    inlet
    {
        type            calculated;
        value           uniform -1.42126e-08;
    }
    outlet
    {
        type            calculated;
        value           uniform 4.14291e-41;
    }
    emptyWalls
    {
        type            empty;
        value           nonuniform List<scalar> 0();
    }
}


// ************************************************************************* //
