/*--------------------------------*- C++ -*----------------------------------*\
  =========                 |
  \\      /  F ield         | OpenFOAM: The Open Source CFD Toolbox
   \\    /   O peration     | Website:  https://openfoam.org
    \\  /    A nd           | Version:  9
     \\/     M anipulation  |
\*---------------------------------------------------------------------------*/
FoamFile
{
    format      ascii;
    class       surfaceScalarField;
    location    "2800";
    object      phib;
}
// * * * * * * * * * * * * * * * * * * * * * * * * * * * * * * * * * * * * * //

dimensions      [0 2 0 0 0 0 0];

internalField   nonuniform List<scalar> 
99
(
6.09079e-09
6.09038e-09
6.08992e-09
6.09862e-09
6.11469e-09
6.1027e-09
6.09628e-09
6.09167e-09
6.08875e-09
6.08716e-09
6.08581e-09
6.0848e-09
6.08423e-09
6.08358e-09
6.08287e-09
6.08238e-09
6.08197e-09
6.08159e-09
6.08046e-09
6.08067e-09
6.07752e-09
6.07725e-09
6.07794e-09
6.07867e-09
6.07926e-09
6.08023e-09
6.08136e-09
6.08228e-09
6.08309e-09
6.0836e-09
6.08416e-09
6.08537e-09
6.08692e-09
6.08829e-09
6.08972e-09
6.09119e-09
6.09226e-09
6.09312e-09
6.09418e-09
6.09541e-09
6.09655e-09
6.09757e-09
6.09854e-09
6.09927e-09
6.10016e-09
6.10152e-09
6.10291e-09
6.10428e-09
6.10558e-09
6.10663e-09
6.10761e-09
6.10898e-09
6.11089e-09
6.11284e-09
6.11469e-09
6.11627e-09
6.11756e-09
6.11895e-09
6.12071e-09
6.12274e-09
6.12455e-09
6.12618e-09
6.12769e-09
6.1291e-09
6.13065e-09
6.13243e-09
6.13435e-09
6.1361e-09
6.13752e-09
6.13874e-09
6.14027e-09
6.14218e-09
6.14398e-09
6.14566e-09
6.14708e-09
6.14805e-09
6.14886e-09
6.15023e-09
6.15224e-09
6.154e-09
6.15546e-09
6.15733e-09
6.16052e-09
6.16662e-09
6.17914e-09
6.20996e-09
6.34381e-09
8.23508e-09
9.12786e-09
9.15125e-09
9.15114e-09
9.14977e-09
9.14962e-09
9.15007e-09
9.15025e-09
9.15029e-09
9.15029e-09
9.15021e-09
9.14987e-09
)
;

boundaryField
{
    inlet
    {
        type            calculated;
        value           uniform -6.09112e-09;
    }
    outlet
    {
        type            calculated;
        value           uniform 9.1497e-09;
    }
    emptyWalls
    {
        type            empty;
        value           nonuniform List<scalar> 0();
    }
}


// ************************************************************************* //
