/*--------------------------------*- C++ -*----------------------------------*\
  =========                 |
  \\      /  F ield         | OpenFOAM: The Open Source CFD Toolbox
   \\    /   O peration     | Website:  https://openfoam.org
    \\  /    A nd           | Version:  9
     \\/     M anipulation  |
\*---------------------------------------------------------------------------*/
FoamFile
{
    format      ascii;
    class       surfaceScalarField;
    location    "2800";
    object      phic;
}
// * * * * * * * * * * * * * * * * * * * * * * * * * * * * * * * * * * * * * //

dimensions      [0 2 0 0 0 0 0];

internalField   nonuniform List<scalar> 
99
(
9.59529e-12
1.95679e-11
3.07168e-11
4.25303e-11
5.49783e-11
6.77212e-11
8.10432e-11
9.48583e-11
1.09009e-10
1.23353e-10
1.37807e-10
1.5233e-10
1.66913e-10
1.81587e-10
1.96381e-10
2.11354e-10
2.26684e-10
2.42879e-10
2.6113e-10
2.83474e-10
3.12069e-10
3.44049e-10
3.72917e-10
3.96624e-10
4.1995e-10
4.42759e-10
4.65572e-10
4.88502e-10
5.11623e-10
5.34978e-10
5.58592e-10
5.82466e-10
6.06601e-10
6.31016e-10
6.55713e-10
6.80685e-10
7.05942e-10
7.31474e-10
7.57273e-10
7.83333e-10
8.09656e-10
8.36238e-10
8.63074e-10
8.90167e-10
9.17487e-10
9.4504e-10
9.72829e-10
1.00083e-09
1.02906e-09
1.05751e-09
1.08616e-09
1.11499e-09
1.14397e-09
1.17313e-09
1.20244e-09
1.2319e-09
1.26151e-09
1.29121e-09
1.32099e-09
1.35081e-09
1.38067e-09
1.41054e-09
1.44037e-09
1.47014e-09
1.49977e-09
1.52918e-09
1.55829e-09
1.58703e-09
1.61532e-09
1.64304e-09
1.67006e-09
1.69625e-09
1.72151e-09
1.74573e-09
1.76881e-09
1.79071e-09
1.81137e-09
1.83087e-09
1.84956e-09
1.86841e-09
1.88968e-09
1.9186e-09
1.96701e-09
2.05968e-09
2.24177e-09
2.65304e-09
3.97758e-09
9.65718e-09
1.11413e-08
1.11525e-08
1.11526e-08
1.1154e-08
1.11541e-08
1.11537e-08
1.11535e-08
1.11534e-08
1.11534e-08
1.11535e-08
1.11539e-08
)
;

boundaryField
{
    inlet
    {
        type            calculated;
        value           uniform 0;
    }
    outlet
    {
        type            calculated;
        value           uniform 1.1154e-08;
    }
    emptyWalls
    {
        type            empty;
        value           nonuniform List<scalar> 0();
    }
}


// ************************************************************************* //
