/*--------------------------------*- C++ -*----------------------------------*\
  =========                 |
  \\      /  F ield         | OpenFOAM: The Open Source CFD Toolbox
   \\    /   O peration     | Website:  https://openfoam.org
    \\  /    A nd           | Version:  9
     \\/     M anipulation  |
\*---------------------------------------------------------------------------*/
FoamFile
{
    format      ascii;
    class       volScalarField;
    location    "2800";
    object      Sb;
}
// * * * * * * * * * * * * * * * * * * * * * * * * * * * * * * * * * * * * * //

dimensions      [0 0 0 0 0 0 0];

internalField   nonuniform List<scalar> 
100
(
0.256278
0.248322
0.25025
0.249183
0.249147
0.248893
0.248698
0.248529
0.248326
0.2482
0.248029
0.247927
0.247778
0.247698
0.247562
0.247494
0.24737
0.24731
0.247189
0.24711
0.24698
0.246802
0.246812
0.24692
0.246987
0.247072
0.247154
0.247233
0.247311
0.247387
0.24746
0.247535
0.247612
0.247689
0.247764
0.24784
0.247914
0.247986
0.248058
0.24813
0.248203
0.248274
0.248345
0.248416
0.248484
0.248555
0.248628
0.248699
0.248771
0.248841
0.24891
0.248979
0.249051
0.249125
0.249197
0.249269
0.249339
0.249408
0.249477
0.24955
0.249621
0.24969
0.249759
0.249827
0.249894
0.249961
0.250029
0.250096
0.25016
0.250222
0.250281
0.250342
0.250402
0.250458
0.250512
0.250561
0.250606
0.250648
0.250694
0.250739
0.250781
0.250831
0.250903
0.251032
0.251287
0.251857
0.253737
0.27294
0.330591
0.337547
0.337607
0.337595
0.337592
0.337595
0.337597
0.337598
0.337598
0.337597
0.337596
0.337593
)
;

boundaryField
{
    inlet
    {
        type            zeroGradient;
    }
    outlet
    {
        type            zeroGradient;
    }
    emptyWalls
    {
        type            empty;
    }
}


// ************************************************************************* //
