/*--------------------------------*- C++ -*----------------------------------*\
  =========                 |
  \\      /  F ield         | OpenFOAM: The Open Source CFD Toolbox
   \\    /   O peration     | Website:  https://openfoam.org
    \\  /    A nd           | Version:  9
     \\/     M anipulation  |
\*---------------------------------------------------------------------------*/
FoamFile
{
    format      ascii;
    class       volVectorField;
    location    "2800";
    object      Ua;
}
// * * * * * * * * * * * * * * * * * * * * * * * * * * * * * * * * * * * * * //

dimensions      [0 0 0 0 0 0 0];

internalField   nonuniform List<vector> 
100
(
(0 0 8.92215e-06)
(0 0 1.12989e-05)
(0 0 1.12908e-05)
(0 0 1.12784e-05)
(0 0 1.12589e-05)
(0 0 1.12472e-05)
(0 0 1.12442e-05)
(0 0 1.12378e-05)
(0 0 1.12296e-05)
(0 0 1.12201e-05)
(0 0 1.12098e-05)
(0 0 1.11992e-05)
(0 0 1.11883e-05)
(0 0 1.11771e-05)
(0 0 1.11659e-05)
(0 0 1.11546e-05)
(0 0 1.11429e-05)
(0 0 1.11306e-05)
(0 0 1.11175e-05)
(0 0 1.11017e-05)
(0 0 1.10827e-05)
(0 0 1.10599e-05)
(0 0 1.10355e-05)
(0 0 1.1014e-05)
(0 0 1.09948e-05)
(0 0 1.09758e-05)
(0 0 1.09568e-05)
(0 0 1.09378e-05)
(0 0 1.09188e-05)
(0 0 1.08998e-05)
(0 0 1.08807e-05)
(0 0 1.08611e-05)
(0 0 1.08409e-05)
(0 0 1.08204e-05)
(0 0 1.07998e-05)
(0 0 1.07788e-05)
(0 0 1.07578e-05)
(0 0 1.07369e-05)
(0 0 1.07157e-05)
(0 0 1.06941e-05)
(0 0 1.06723e-05)
(0 0 1.06504e-05)
(0 0 1.06284e-05)
(0 0 1.06063e-05)
(0 0 1.0584e-05)
(0 0 1.05612e-05)
(0 0 1.05381e-05)
(0 0 1.05148e-05)
(0 0 1.04914e-05)
(0 0 1.04679e-05)
(0 0 1.04444e-05)
(0 0 1.04206e-05)
(0 0 1.03963e-05)
(0 0 1.03716e-05)
(0 0 1.03468e-05)
(0 0 1.03221e-05)
(0 0 1.02974e-05)
(0 0 1.02728e-05)
(0 0 1.02478e-05)
(0 0 1.02226e-05)
(0 0 1.01973e-05)
(0 0 1.01722e-05)
(0 0 1.01472e-05)
(0 0 1.01223e-05)
(0 0 1.00975e-05)
(0 0 1.00727e-05)
(0 0 1.00479e-05)
(0 0 1.00235e-05)
(0 0 9.99951e-06)
(0 0 9.97617e-06)
(0 0 9.95329e-06)
(0 0 9.93076e-06)
(0 0 9.90881e-06)
(0 0 9.88774e-06)
(0 0 9.86768e-06)
(0 0 9.84884e-06)
(0 0 9.83119e-06)
(0 0 9.81434e-06)
(0 0 9.79781e-06)
(0 0 9.78137e-06)
(0 0 9.76413e-06)
(0 0 9.74283e-06)
(0 0 9.71005e-06)
(0 0 9.65022e-06)
(0 0 9.53349e-06)
(0 0 9.28015e-06)
(0 0 8.52397e-06)
(0 0 4.93134e-06)
(0 0 9.73236e-07)
(0 0 1.37432e-08)
(0 0 1.0697e-12)
(0 0 1.41932e-21)
(0 0 2.18469e-36)
(0 0 2.21534e-36)
(0 0 2.30798e-36)
(0 0 2.14195e-36)
(0 0 2.12626e-36)
(0 0 2.30793e-36)
(0 0 2.2923e-36)
(0 0 1.14698e-36)
)
;

boundaryField
{
    inlet
    {
        type            fixedValue;
        value           uniform (0 0 1.131e-05);
    }
    outlet
    {
        type            zeroGradient;
    }
    emptyWalls
    {
        type            empty;
    }
}


// ************************************************************************* //
