/*--------------------------------*- C++ -*----------------------------------*\
  =========                 |
  \\      /  F ield         | OpenFOAM: The Open Source CFD Toolbox
   \\    /   O peration     | Website:  https://openfoam.org
    \\  /    A nd           | Version:  9
     \\/     M anipulation  |
\*---------------------------------------------------------------------------*/
FoamFile
{
    format      ascii;
    class       volVectorField;
    location    "2800";
    object      Ub;
}
// * * * * * * * * * * * * * * * * * * * * * * * * * * * * * * * * * * * * * //

dimensions      [0 0 0 0 0 0 0];

internalField   nonuniform List<vector> 
100
(
(0 0 7.22367e-06)
(0 0 4.84673e-06)
(0 0 4.84639e-06)
(0 0 4.84966e-06)
(0 0 4.85952e-06)
(0 0 4.86115e-06)
(0 0 4.85382e-06)
(0 0 4.84943e-06)
(0 0 4.84644e-06)
(0 0 4.84464e-06)
(0 0 4.84347e-06)
(0 0 4.84253e-06)
(0 0 4.8419e-06)
(0 0 4.84141e-06)
(0 0 4.84088e-06)
(0 0 4.8404e-06)
(0 0 4.84004e-06)
(0 0 4.83972e-06)
(0 0 4.83912e-06)
(0 0 4.83876e-06)
(0 0 4.83759e-06)
(0 0 4.83623e-06)
(0 0 4.83639e-06)
(0 0 4.83696e-06)
(0 0 4.83749e-06)
(0 0 4.83811e-06)
(0 0 4.83894e-06)
(0 0 4.83976e-06)
(0 0 4.84045e-06)
(0 0 4.84097e-06)
(0 0 4.8414e-06)
(0 0 4.8421e-06)
(0 0 4.8432e-06)
(0 0 4.84436e-06)
(0 0 4.84548e-06)
(0 0 4.84663e-06)
(0 0 4.84764e-06)
(0 0 4.84841e-06)
(0 0 4.84917e-06)
(0 0 4.85008e-06)
(0 0 4.85103e-06)
(0 0 4.85189e-06)
(0 0 4.85268e-06)
(0 0 4.85335e-06)
(0 0 4.854e-06)
(0 0 4.85489e-06)
(0 0 4.85599e-06)
(0 0 4.85709e-06)
(0 0 4.85815e-06)
(0 0 4.85909e-06)
(0 0 4.85989e-06)
(0 0 4.86083e-06)
(0 0 4.86213e-06)
(0 0 4.86367e-06)
(0 0 4.86518e-06)
(0 0 4.86654e-06)
(0 0 4.86769e-06)
(0 0 4.86875e-06)
(0 0 4.87e-06)
(0 0 4.87151e-06)
(0 0 4.87304e-06)
(0 0 4.87441e-06)
(0 0 4.87566e-06)
(0 0 4.87682e-06)
(0 0 4.878e-06)
(0 0 4.87933e-06)
(0 0 4.88079e-06)
(0 0 4.88226e-06)
(0 0 4.88352e-06)
(0 0 4.88457e-06)
(0 0 4.88566e-06)
(0 0 4.88704e-06)
(0 0 4.88851e-06)
(0 0 4.88989e-06)
(0 0 4.89113e-06)
(0 0 4.89208e-06)
(0 0 4.89279e-06)
(0 0 4.89366e-06)
(0 0 4.895e-06)
(0 0 4.8965e-06)
(0 0 4.89778e-06)
(0 0 4.8991e-06)
(0 0 4.90112e-06)
(0 0 4.90481e-06)
(0 0 4.91222e-06)
(0 0 4.92946e-06)
(0 0 4.99499e-06)
(0 0 5.80076e-06)
(0 0 6.9085e-06)
(0 0 7.27303e-06)
(0 0 7.28229e-06)
(0 0 7.2817e-06)
(0 0 7.28109e-06)
(0 0 7.28121e-06)
(0 0 7.28146e-06)
(0 0 7.28155e-06)
(0 0 7.28157e-06)
(0 0 7.28154e-06)
(0 0 7.28137e-06)
(0 0 7.28117e-06)
)
;

boundaryField
{
    inlet
    {
        type            fixedValue;
        value           uniform (0 0 4.84716e-06);
    }
    outlet
    {
        type            zeroGradient;
    }
    emptyWalls
    {
        type            empty;
    }
}


// ************************************************************************* //
