/*--------------------------------*- C++ -*----------------------------------*\
  =========                 |
  \\      /  F ield         | OpenFOAM: The Open Source CFD Toolbox
   \\    /   O peration     | Website:  https://openfoam.org
    \\  /    A nd           | Version:  9
     \\/     M anipulation  |
\*---------------------------------------------------------------------------*/
FoamFile
{
    format      ascii;
    class       volVectorField;
    location    "2800";
    object      Uc;
}
// * * * * * * * * * * * * * * * * * * * * * * * * * * * * * * * * * * * * * //

dimensions      [0 0 0 0 0 0 0];

internalField   nonuniform List<vector> 
100
(
(0 0 1.138e-08)
(0 0 1.16037e-08)
(0 0 2.00077e-08)
(0 0 2.91441e-08)
(0 0 3.87974e-08)
(0 0 4.88206e-08)
(0 0 5.91915e-08)
(0 0 6.9989e-08)
(0 0 8.11163e-08)
(0 0 9.24541e-08)
(0 0 1.03912e-07)
(0 0 1.15442e-07)
(0 0 1.27023e-07)
(0 0 1.38664e-07)
(0 0 1.50389e-07)
(0 0 1.62233e-07)
(0 0 1.7429e-07)
(0 0 1.86833e-07)
(0 0 2.00539e-07)
(0 0 2.16691e-07)
(0 0 2.36959e-07)
(0 0 2.61061e-07)
(0 0 2.85272e-07)
(0 0 3.06191e-07)
(0 0 3.24905e-07)
(0 0 3.43261e-07)
(0 0 3.61413e-07)
(0 0 3.79614e-07)
(0 0 3.97937e-07)
(0 0 4.1643e-07)
(0 0 4.35118e-07)
(0 0 4.54013e-07)
(0 0 4.73115e-07)
(0 0 4.92432e-07)
(0 0 5.11973e-07)
(0 0 5.31736e-07)
(0 0 5.51721e-07)
(0 0 5.7193e-07)
(0 0 5.92354e-07)
(0 0 6.12988e-07)
(0 0 6.3383e-07)
(0 0 6.54881e-07)
(0 0 6.76135e-07)
(0 0 6.97592e-07)
(0 0 7.19243e-07)
(0 0 7.41076e-07)
(0 0 7.63096e-07)
(0 0 7.85294e-07)
(0 0 8.07668e-07)
(0 0 8.3022e-07)
(0 0 8.52938e-07)
(0 0 8.75807e-07)
(0 0 8.98811e-07)
(0 0 9.21946e-07)
(0 0 9.45209e-07)
(0 0 9.68595e-07)
(0 0 9.921e-07)
(0 0 1.0157e-06)
(0 0 1.03936e-06)
(0 0 1.06307e-06)
(0 0 1.08682e-06)
(0 0 1.11059e-06)
(0 0 1.13434e-06)
(0 0 1.15806e-06)
(0 0 1.18169e-06)
(0 0 1.20518e-06)
(0 0 1.22846e-06)
(0 0 1.25148e-06)
(0 0 1.27417e-06)
(0 0 1.29646e-06)
(0 0 1.31824e-06)
(0 0 1.33941e-06)
(0 0 1.35988e-06)
(0 0 1.37957e-06)
(0 0 1.39839e-06)
(0 0 1.41629e-06)
(0 0 1.43322e-06)
(0 0 1.4492e-06)
(0 0 1.4644e-06)
(0 0 1.47933e-06)
(0 0 1.49529e-06)
(0 0 1.51526e-06)
(0 0 1.54603e-06)
(0 0 1.60217e-06)
(0 0 1.71149e-06)
(0 0 1.94758e-06)
(0 0 2.63824e-06)
(0 0 5.4251e-06)
(0 0 8.27547e-06)
(0 0 8.87043e-06)
(0 0 8.87491e-06)
(0 0 8.8755e-06)
(0 0 8.87611e-06)
(0 0 8.87599e-06)
(0 0 8.87574e-06)
(0 0 8.87565e-06)
(0 0 8.87563e-06)
(0 0 8.87566e-06)
(0 0 8.87583e-06)
(0 0 8.87603e-06)
)
;

boundaryField
{
    inlet
    {
        type            fixedValue;
        value           uniform (0 0 0);
    }
    outlet
    {
        type            zeroGradient;
    }
    emptyWalls
    {
        type            empty;
    }
}


// ************************************************************************* //
