/*--------------------------------*- C++ -*----------------------------------*\
  =========                 |
  \\      /  F ield         | OpenFOAM: The Open Source CFD Toolbox
   \\    /   O peration     | Website:  https://openfoam.org
    \\  /    A nd           | Version:  9
     \\/     M anipulation  |
\*---------------------------------------------------------------------------*/
FoamFile
{
    format      ascii;
    class       volScalarField;
    location    "70000";
    object      krc;
}
// * * * * * * * * * * * * * * * * * * * * * * * * * * * * * * * * * * * * * //

dimensions      [0 0 0 0 0 0 0];

internalField   nonuniform List<scalar> 
100
(
1.01951e-23
7.54764e-25
1.00714e-24
1.1724e-24
1.44222e-25
6.30866e-25
1.39374e-25
6.36803e-27
5.43576e-25
2.94654e-25
8.21658e-25
3.25283e-27
1.78881e-25
5.73614e-25
6.73206e-25
7.75916e-25
5.8978e-25
7.21479e-26
8.54863e-25
1.11399e-24
1.60708e-25
8.6345e-25
2.31019e-25
7.37e-25
5.24871e-25
8.89911e-25
4.63211e-25
1.16799e-24
3.85362e-25
1.08583e-24
2.43019e-25
4.44804e-25
1.70739e-24
1.44807e-24
1.81373e-26
2.19484e-24
8.92134e-25
8.19809e-25
7.80852e-26
7.57771e-26
1.46437e-25
3.17558e-24
6.22265e-24
2.85521e-25
4.83747e-24
3.02793e-24
1.60655e-24
8.97796e-24
1.48438e-24
1.04226e-24
4.1133e-24
3.74765e-24
7.4009e-24
4.91301e-25
6.05437e-25
4.49431e-24
1.522e-25
5.50952e-27
3.30702e-24
1.99936e-24
1.71149e-24
9.15419e-25
3.64597e-25
5.62491e-25
3.96516e-26
1.62651e-24
4.09511e-25
1.51437e-24
4.45223e-25
6.93086e-26
1.02741e-24
1.10737e-24
5.9898e-25
1.74037e-24
4.65279e-24
6.67797e-24
1.72664e-23
2.99639e-23
6.7472e-23
7.88448e-23
1.44557e-22
1.67709e-22
2.96116e-22
4.69272e-22
6.55035e-22
9.67364e-22
1.4408e-21
2.00903e-21
2.84482e-21
4.00742e-21
5.6657e-21
7.73014e-21
1.21115e-20
1.44579e-20
3.34977e-21
6.43843e-20
5.38471e-18
2.4828e-17
6.13189e-16
4.03262e-15
)
;

boundaryField
{
    inlet
    {
        type            calculated;
        value           uniform 1.01951e-23;
    }
    outlet
    {
        type            calculated;
        value           uniform 4.03262e-15;
    }
    emptyWalls
    {
        type            empty;
    }
}


// ************************************************************************* //
