/*--------------------------------*- C++ -*----------------------------------*\
  =========                 |
  \\      /  F ield         | OpenFOAM: The Open Source CFD Toolbox
   \\    /   O peration     | Website:  https://openfoam.org
    \\  /    A nd           | Version:  9
     \\/     M anipulation  |
\*---------------------------------------------------------------------------*/
FoamFile
{
    format      ascii;
    class       volScalarField;
    location    "5000";
    object      kra;
}
// * * * * * * * * * * * * * * * * * * * * * * * * * * * * * * * * * * * * * //

dimensions      [0 0 0 0 0 0 0];

internalField   nonuniform List<scalar> 
100
(
4.08516e-05
3.02205e-05
3.28028e-05
3.13602e-05
3.14591e-05
3.10766e-05
3.0903e-05
3.06861e-05
3.0508e-05
3.03356e-05
3.01771e-05
3.00272e-05
2.98858e-05
2.97515e-05
2.96234e-05
2.95009e-05
2.93834e-05
2.92702e-05
2.9161e-05
2.90554e-05
2.8953e-05
2.88535e-05
2.87567e-05
2.86623e-05
2.857e-05
2.84796e-05
2.83909e-05
2.83036e-05
2.82176e-05
2.81324e-05
2.80479e-05
2.79636e-05
2.78791e-05
2.77938e-05
2.77071e-05
2.76177e-05
2.75242e-05
2.74243e-05
2.73141e-05
2.73849e-05
2.74015e-05
2.74368e-05
2.74622e-05
2.74896e-05
2.75147e-05
2.75392e-05
2.75627e-05
2.75854e-05
2.76074e-05
2.76287e-05
2.76493e-05
2.76693e-05
2.76887e-05
2.77076e-05
2.77259e-05
2.77437e-05
2.77609e-05
2.77777e-05
2.7794e-05
2.78098e-05
2.78252e-05
2.78401e-05
2.78546e-05
2.78687e-05
2.78823e-05
2.78955e-05
2.79084e-05
2.79209e-05
2.7933e-05
2.79447e-05
2.79561e-05
2.79671e-05
2.79778e-05
2.79882e-05
2.79982e-05
2.80078e-05
2.80171e-05
2.80261e-05
2.80348e-05
2.80431e-05
2.8051e-05
2.80587e-05
2.8066e-05
2.8073e-05
2.80796e-05
2.8086e-05
2.8092e-05
2.80977e-05
2.81031e-05
2.81083e-05
2.81131e-05
2.81176e-05
2.81218e-05
2.81257e-05
2.81293e-05
2.81327e-05
2.81357e-05
2.81385e-05
2.81409e-05
7.15015e-05
)
;

boundaryField
{
    inlet
    {
        type            calculated;
        value           uniform 1.23236e-05;
    }
    outlet
    {
        type            calculated;
        value           uniform 8.79275e-06;
    }
    emptyWalls
    {
        type            empty;
    }
}


// ************************************************************************* //
