/*--------------------------------*- C++ -*----------------------------------*\
  =========                 |
  \\      /  F ield         | OpenFOAM: The Open Source CFD Toolbox
   \\    /   O peration     | Website:  https://openfoam.org
    \\  /    A nd           | Version:  9
     \\/     M anipulation  |
\*---------------------------------------------------------------------------*/
FoamFile
{
    format      ascii;
    class       volScalarField;
    location    "5000";
    object      p;
}
// * * * * * * * * * * * * * * * * * * * * * * * * * * * * * * * * * * * * * //

dimensions      [0 0 0 0 0 0 0];

internalField   nonuniform List<scalar> 
100
(
6.10487e+06
6.09691e+06
6.08616e+06
6.07626e+06
6.06591e+06
6.05559e+06
6.04515e+06
6.03466e+06
6.0241e+06
6.01349e+06
6.00281e+06
5.99209e+06
5.98132e+06
5.9705e+06
5.95964e+06
5.94874e+06
5.9378e+06
5.92683e+06
5.91581e+06
5.90476e+06
5.89368e+06
5.88257e+06
5.87142e+06
5.86024e+06
5.84904e+06
5.8378e+06
5.82654e+06
5.81524e+06
5.80392e+06
5.79257e+06
5.7812e+06
5.7698e+06
5.75837e+06
5.74692e+06
5.73544e+06
5.72394e+06
5.7124e+06
5.70084e+06
5.68925e+06
5.67763e+06
5.66605e+06
5.65448e+06
5.64295e+06
5.63144e+06
5.61995e+06
5.60848e+06
5.59704e+06
5.58562e+06
5.57421e+06
5.56283e+06
5.55147e+06
5.54013e+06
5.52881e+06
5.51751e+06
5.50622e+06
5.49496e+06
5.48371e+06
5.47249e+06
5.46128e+06
5.45009e+06
5.43892e+06
5.42777e+06
5.41664e+06
5.40552e+06
5.39442e+06
5.38334e+06
5.37228e+06
5.36124e+06
5.35021e+06
5.3392e+06
5.32821e+06
5.31724e+06
5.30628e+06
5.29534e+06
5.28442e+06
5.27351e+06
5.26262e+06
5.25175e+06
5.2409e+06
5.23006e+06
5.21924e+06
5.20844e+06
5.19765e+06
5.18688e+06
5.17612e+06
5.16539e+06
5.15467e+06
5.14396e+06
5.13327e+06
5.1226e+06
5.11195e+06
5.10131e+06
5.09069e+06
5.08008e+06
5.0695e+06
5.05892e+06
5.04837e+06
5.03783e+06
5.0273e+06
5.0168e+06
)
;

boundaryField
{
    inlet
    {
        type            darcyGradPressure;
        gradient        uniform 3.88972e+06;
        Mf              Mf;
        phi             phi;
        value           uniform 6.11265e+06;
    }
    outlet
    {
        type            fixedValue;
        value           uniform 5e+06;
    }
    emptyWalls
    {
        type            empty;
    }
}


// ************************************************************************* //
