/*--------------------------------*- C++ -*----------------------------------*\
  =========                 |
  \\      /  F ield         | OpenFOAM: The Open Source CFD Toolbox
   \\    /   O peration     | Website:  https://openfoam.org
    \\  /    A nd           | Version:  9
     \\/     M anipulation  |
\*---------------------------------------------------------------------------*/
FoamFile
{
    format      ascii;
    class       surfaceScalarField;
    location    "5000";
    object      phia;
}
// * * * * * * * * * * * * * * * * * * * * * * * * * * * * * * * * * * * * * //

dimensions      [0 2 0 0 0 0 0];

internalField   nonuniform List<scalar> 
99
(
1.42081e-08
1.42032e-08
1.41979e-08
1.41922e-08
1.41862e-08
1.418e-08
1.41736e-08
1.4167e-08
1.41603e-08
1.41534e-08
1.41463e-08
1.41391e-08
1.41317e-08
1.41242e-08
1.41166e-08
1.41089e-08
1.41011e-08
1.40931e-08
1.40851e-08
1.40769e-08
1.40686e-08
1.40602e-08
1.40517e-08
1.40431e-08
1.40343e-08
1.40254e-08
1.40164e-08
1.40072e-08
1.39979e-08
1.39883e-08
1.39786e-08
1.39685e-08
1.39582e-08
1.39475e-08
1.39362e-08
1.39243e-08
1.39116e-08
1.38975e-08
1.38815e-08
1.38649e-08
1.38496e-08
1.38347e-08
1.38203e-08
1.38062e-08
1.37922e-08
1.37783e-08
1.37645e-08
1.37507e-08
1.37368e-08
1.3723e-08
1.3709e-08
1.36951e-08
1.3681e-08
1.36669e-08
1.36527e-08
1.36384e-08
1.36241e-08
1.36096e-08
1.3595e-08
1.35803e-08
1.35655e-08
1.35507e-08
1.35357e-08
1.35206e-08
1.35054e-08
1.34901e-08
1.34747e-08
1.34593e-08
1.34437e-08
1.3428e-08
1.34123e-08
1.33964e-08
1.33805e-08
1.33644e-08
1.33482e-08
1.3332e-08
1.33156e-08
1.32991e-08
1.32826e-08
1.32659e-08
1.3249e-08
1.32321e-08
1.32151e-08
1.31979e-08
1.31806e-08
1.31632e-08
1.31457e-08
1.3128e-08
1.31103e-08
1.30924e-08
1.30744e-08
1.30563e-08
1.30381e-08
1.30197e-08
1.30012e-08
1.29826e-08
1.29639e-08
1.2945e-08
1.2926e-08
)
;

boundaryField
{
    inlet
    {
        type            calculated;
        value           uniform -1.42126e-08;
    }
    outlet
    {
        type            calculated;
        value           uniform 1.29141e-08;
    }
    emptyWalls
    {
        type            empty;
        value           nonuniform List<scalar> 0();
    }
}


// ************************************************************************* //
