/*--------------------------------*- C++ -*----------------------------------*\
  =========                 |
  \\      /  F ield         | OpenFOAM: The Open Source CFD Toolbox
   \\    /   O peration     | Website:  https://openfoam.org
    \\  /    A nd           | Version:  9
     \\/     M anipulation  |
\*---------------------------------------------------------------------------*/
FoamFile
{
    format      ascii;
    class       surfaceScalarField;
    location    "5000";
    object      phib;
}
// * * * * * * * * * * * * * * * * * * * * * * * * * * * * * * * * * * * * * //

dimensions      [0 2 0 0 0 0 0];

internalField   nonuniform List<scalar> 
99
(
6.09096e-09
6.09075e-09
6.09053e-09
6.09029e-09
6.09003e-09
6.08977e-09
6.0895e-09
6.08922e-09
6.08894e-09
6.08864e-09
6.08835e-09
6.08804e-09
6.08773e-09
6.08741e-09
6.08709e-09
6.08677e-09
6.08644e-09
6.0861e-09
6.08576e-09
6.08542e-09
6.08507e-09
6.08471e-09
6.08436e-09
6.08399e-09
6.08363e-09
6.08326e-09
6.08288e-09
6.08249e-09
6.0821e-09
6.0817e-09
6.0813e-09
6.08088e-09
6.08045e-09
6.08e-09
6.07953e-09
6.07903e-09
6.0785e-09
6.0779e-09
6.07737e-09
6.07855e-09
6.07915e-09
6.07988e-09
6.08044e-09
6.08096e-09
6.08142e-09
6.08188e-09
6.08233e-09
6.08278e-09
6.08323e-09
6.08369e-09
6.08415e-09
6.08462e-09
6.0851e-09
6.08559e-09
6.08609e-09
6.08661e-09
6.08713e-09
6.08768e-09
6.08824e-09
6.08883e-09
6.08943e-09
6.09004e-09
6.09067e-09
6.09132e-09
6.09197e-09
6.09263e-09
6.09329e-09
6.09396e-09
6.09462e-09
6.09529e-09
6.09595e-09
6.09662e-09
6.09729e-09
6.09796e-09
6.09864e-09
6.09933e-09
6.10003e-09
6.10073e-09
6.10145e-09
6.10219e-09
6.10294e-09
6.1037e-09
6.10448e-09
6.10527e-09
6.10608e-09
6.10691e-09
6.10774e-09
6.10859e-09
6.10945e-09
6.11032e-09
6.1112e-09
6.11209e-09
6.11299e-09
6.1139e-09
6.11481e-09
6.11574e-09
6.11667e-09
6.11762e-09
6.11857e-09
)
;

boundaryField
{
    inlet
    {
        type            calculated;
        value           uniform -6.09112e-09;
    }
    outlet
    {
        type            calculated;
        value           uniform 6.11834e-09;
    }
    emptyWalls
    {
        type            empty;
        value           nonuniform List<scalar> 0();
    }
}


// ************************************************************************* //
