/*--------------------------------*- C++ -*----------------------------------*\
  =========                 |
  \\      /  F ield         | OpenFOAM: The Open Source CFD Toolbox
   \\    /   O peration     | Website:  https://openfoam.org
    \\  /    A nd           | Version:  9
     \\/     M anipulation  |
\*---------------------------------------------------------------------------*/
FoamFile
{
    format      ascii;
    class       surfaceScalarField;
    location    "5000";
    object      phic;
}
// * * * * * * * * * * * * * * * * * * * * * * * * * * * * * * * * * * * * * //

dimensions      [0 2 0 0 0 0 0];

internalField   nonuniform List<scalar> 
99
(
4.68918e-12
9.73385e-12
1.53355e-11
2.12469e-11
2.74599e-11
3.39163e-11
4.0593e-11
4.74663e-11
5.45198e-11
6.17398e-11
6.91152e-11
7.66371e-11
8.42979e-11
9.20915e-11
1.00013e-10
1.08058e-10
1.16223e-10
1.24507e-10
1.32907e-10
1.41423e-10
1.50055e-10
1.58804e-10
1.67674e-10
1.76667e-10
1.85789e-10
1.95047e-10
2.04452e-10
2.14016e-10
2.23757e-10
2.33698e-10
2.4387e-10
2.54315e-10
2.6509e-10
2.76273e-10
2.87978e-10
3.00367e-10
3.13685e-10
3.28317e-10
3.44889e-10
3.60285e-10
3.74943e-10
3.89121e-10
4.02976e-10
4.16617e-10
4.30122e-10
4.43545e-10
4.56928e-10
4.703e-10
4.83682e-10
4.97093e-10
5.10544e-10
5.24046e-10
5.37608e-10
5.51234e-10
5.64931e-10
5.78702e-10
5.9255e-10
6.06479e-10
6.2049e-10
6.34585e-10
6.48765e-10
6.63033e-10
6.77389e-10
6.91834e-10
7.0637e-10
7.20997e-10
7.35715e-10
7.50526e-10
7.6543e-10
7.80428e-10
7.95521e-10
8.10708e-10
8.25991e-10
8.4137e-10
8.56846e-10
8.72418e-10
8.88089e-10
9.03857e-10
9.19725e-10
9.35692e-10
9.5176e-10
9.67928e-10
9.84198e-10
1.00057e-09
1.01705e-09
1.03363e-09
1.05031e-09
1.0671e-09
1.084e-09
1.10101e-09
1.11813e-09
1.13535e-09
1.15269e-09
1.17015e-09
1.18772e-09
1.2054e-09
1.2232e-09
1.24113e-09
1.25917e-09
)
;

boundaryField
{
    inlet
    {
        type            calculated;
        value           uniform 0;
    }
    outlet
    {
        type            calculated;
        value           uniform 1.27134e-09;
    }
    emptyWalls
    {
        type            empty;
        value           nonuniform List<scalar> 0();
    }
}


// ************************************************************************* //
