/*--------------------------------*- C++ -*----------------------------------*\
  =========                 |
  \\      /  F ield         | OpenFOAM: The Open Source CFD Toolbox
   \\    /   O peration     | Website:  https://openfoam.org
    \\  /    A nd           | Version:  9
     \\/     M anipulation  |
\*---------------------------------------------------------------------------*/
FoamFile
{
    format      ascii;
    class       volVectorField;
    location    "5000";
    object      Ua;
}
// * * * * * * * * * * * * * * * * * * * * * * * * * * * * * * * * * * * * * //

dimensions      [0 0 0 0 0 0 0];

internalField   nonuniform List<vector> 
100
(
(0 0 8.98847e-06)
(0 0 1.13045e-05)
(0 0 1.13004e-05)
(0 0 1.12961e-05)
(0 0 1.12914e-05)
(0 0 1.12866e-05)
(0 0 1.12816e-05)
(0 0 1.12764e-05)
(0 0 1.12711e-05)
(0 0 1.12656e-05)
(0 0 1.12601e-05)
(0 0 1.12544e-05)
(0 0 1.12486e-05)
(0 0 1.12427e-05)
(0 0 1.12367e-05)
(0 0 1.12306e-05)
(0 0 1.12244e-05)
(0 0 1.12181e-05)
(0 0 1.12117e-05)
(0 0 1.12053e-05)
(0 0 1.11987e-05)
(0 0 1.11921e-05)
(0 0 1.11854e-05)
(0 0 1.11786e-05)
(0 0 1.11716e-05)
(0 0 1.11646e-05)
(0 0 1.11575e-05)
(0 0 1.11503e-05)
(0 0 1.11429e-05)
(0 0 1.11354e-05)
(0 0 1.11277e-05)
(0 0 1.11198e-05)
(0 0 1.11117e-05)
(0 0 1.11033e-05)
(0 0 1.10946e-05)
(0 0 1.10854e-05)
(0 0 1.10756e-05)
(0 0 1.10649e-05)
(0 0 1.10529e-05)
(0 0 1.10399e-05)
(0 0 1.10273e-05)
(0 0 1.10153e-05)
(0 0 1.10036e-05)
(0 0 1.09922e-05)
(0 0 1.0981e-05)
(0 0 1.097e-05)
(0 0 1.09589e-05)
(0 0 1.09479e-05)
(0 0 1.09369e-05)
(0 0 1.09259e-05)
(0 0 1.09148e-05)
(0 0 1.09037e-05)
(0 0 1.08926e-05)
(0 0 1.08814e-05)
(0 0 1.08701e-05)
(0 0 1.08588e-05)
(0 0 1.08474e-05)
(0 0 1.08359e-05)
(0 0 1.08244e-05)
(0 0 1.08127e-05)
(0 0 1.0801e-05)
(0 0 1.07892e-05)
(0 0 1.07773e-05)
(0 0 1.07653e-05)
(0 0 1.07533e-05)
(0 0 1.07412e-05)
(0 0 1.0729e-05)
(0 0 1.07167e-05)
(0 0 1.07043e-05)
(0 0 1.06919e-05)
(0 0 1.06794e-05)
(0 0 1.06668e-05)
(0 0 1.06542e-05)
(0 0 1.06414e-05)
(0 0 1.06286e-05)
(0 0 1.06157e-05)
(0 0 1.06027e-05)
(0 0 1.05897e-05)
(0 0 1.05765e-05)
(0 0 1.05633e-05)
(0 0 1.05499e-05)
(0 0 1.05365e-05)
(0 0 1.0523e-05)
(0 0 1.05094e-05)
(0 0 1.04957e-05)
(0 0 1.04819e-05)
(0 0 1.0468e-05)
(0 0 1.0454e-05)
(0 0 1.04399e-05)
(0 0 1.04257e-05)
(0 0 1.04114e-05)
(0 0 1.03971e-05)
(0 0 1.03826e-05)
(0 0 1.0368e-05)
(0 0 1.03534e-05)
(0 0 1.03386e-05)
(0 0 1.03238e-05)
(0 0 1.03088e-05)
(0 0 1.02937e-05)
(0 0 1.02814e-05)
)
;

boundaryField
{
    inlet
    {
        type            fixedValue;
        value           uniform (0 0 1.131e-05);
    }
    outlet
    {
        type            zeroGradient;
    }
    emptyWalls
    {
        type            empty;
    }
}


// ************************************************************************* //
