/*--------------------------------*- C++ -*----------------------------------*\
  =========                 |
  \\      /  F ield         | OpenFOAM: The Open Source CFD Toolbox
   \\    /   O peration     | Website:  https://openfoam.org
    \\  /    A nd           | Version:  9
     \\/     M anipulation  |
\*---------------------------------------------------------------------------*/
FoamFile
{
    format      ascii;
    class       volVectorField;
    location    "5000";
    object      Ub;
}
// * * * * * * * * * * * * * * * * * * * * * * * * * * * * * * * * * * * * * //

dimensions      [0 0 0 0 0 0 0];

internalField   nonuniform List<vector> 
100
(
(0 0 7.16321e-06)
(0 0 4.84695e-06)
(0 0 4.84678e-06)
(0 0 4.84659e-06)
(0 0 4.8464e-06)
(0 0 4.84619e-06)
(0 0 4.84598e-06)
(0 0 4.84576e-06)
(0 0 4.84554e-06)
(0 0 4.84531e-06)
(0 0 4.84507e-06)
(0 0 4.84483e-06)
(0 0 4.84458e-06)
(0 0 4.84434e-06)
(0 0 4.84408e-06)
(0 0 4.84382e-06)
(0 0 4.84356e-06)
(0 0 4.8433e-06)
(0 0 4.84303e-06)
(0 0 4.84276e-06)
(0 0 4.84248e-06)
(0 0 4.8422e-06)
(0 0 4.84192e-06)
(0 0 4.84163e-06)
(0 0 4.84134e-06)
(0 0 4.84105e-06)
(0 0 4.84075e-06)
(0 0 4.84045e-06)
(0 0 4.84014e-06)
(0 0 4.83982e-06)
(0 0 4.8395e-06)
(0 0 4.83917e-06)
(0 0 4.83884e-06)
(0 0 4.83849e-06)
(0 0 4.83812e-06)
(0 0 4.83774e-06)
(0 0 4.83733e-06)
(0 0 4.83688e-06)
(0 0 4.83643e-06)
(0 0 4.83669e-06)
(0 0 4.8374e-06)
(0 0 4.83793e-06)
(0 0 4.83844e-06)
(0 0 4.83887e-06)
(0 0 4.83926e-06)
(0 0 4.83962e-06)
(0 0 4.83998e-06)
(0 0 4.84034e-06)
(0 0 4.8407e-06)
(0 0 4.84106e-06)
(0 0 4.84143e-06)
(0 0 4.8418e-06)
(0 0 4.84218e-06)
(0 0 4.84257e-06)
(0 0 4.84296e-06)
(0 0 4.84336e-06)
(0 0 4.84378e-06)
(0 0 4.8442e-06)
(0 0 4.84465e-06)
(0 0 4.8451e-06)
(0 0 4.84557e-06)
(0 0 4.84606e-06)
(0 0 4.84655e-06)
(0 0 4.84706e-06)
(0 0 4.84758e-06)
(0 0 4.8481e-06)
(0 0 4.84862e-06)
(0 0 4.84915e-06)
(0 0 4.84968e-06)
(0 0 4.85021e-06)
(0 0 4.85074e-06)
(0 0 4.85127e-06)
(0 0 4.8518e-06)
(0 0 4.85234e-06)
(0 0 4.85288e-06)
(0 0 4.85342e-06)
(0 0 4.85397e-06)
(0 0 4.85453e-06)
(0 0 4.8551e-06)
(0 0 4.85568e-06)
(0 0 4.85627e-06)
(0 0 4.85687e-06)
(0 0 4.85748e-06)
(0 0 4.85811e-06)
(0 0 4.85875e-06)
(0 0 4.85939e-06)
(0 0 4.86005e-06)
(0 0 4.86073e-06)
(0 0 4.86141e-06)
(0 0 4.86209e-06)
(0 0 4.86279e-06)
(0 0 4.86349e-06)
(0 0 4.86421e-06)
(0 0 4.86492e-06)
(0 0 4.86565e-06)
(0 0 4.86638e-06)
(0 0 4.86712e-06)
(0 0 4.86787e-06)
(0 0 4.86863e-06)
(0 0 4.86891e-06)
)
;

boundaryField
{
    inlet
    {
        type            fixedValue;
        value           uniform (0 0 4.84716e-06);
    }
    outlet
    {
        type            zeroGradient;
    }
    emptyWalls
    {
        type            empty;
    }
}


// ************************************************************************* //
