/*--------------------------------*- C++ -*----------------------------------*\
  =========                 |
  \\      /  F ield         | OpenFOAM: The Open Source CFD Toolbox
   \\    /   O peration     | Website:  https://openfoam.org
    \\  /    A nd           | Version:  9
     \\/     M anipulation  |
\*---------------------------------------------------------------------------*/
FoamFile
{
    format      ascii;
    class       volVectorField;
    location    "5000";
    object      Uc;
}
// * * * * * * * * * * * * * * * * * * * * * * * * * * * * * * * * * * * * * //

dimensions      [0 0 0 0 0 0 0];

internalField   nonuniform List<vector> 
100
(
(0 0 5.51466e-09)
(0 0 5.73874e-09)
(0 0 9.97478e-09)
(0 0 1.45557e-08)
(0 0 1.93799e-08)
(0 0 2.44208e-08)
(0 0 2.96463e-08)
(0 0 3.50377e-08)
(0 0 4.0579e-08)
(0 0 4.62582e-08)
(0 0 5.20655e-08)
(0 0 5.7993e-08)
(0 0 6.4034e-08)
(0 0 7.01831e-08)
(0 0 7.64359e-08)
(0 0 8.27886e-08)
(0 0 8.92385e-08)
(0 0 9.57833e-08)
(0 0 1.02422e-07)
(0 0 1.09152e-07)
(0 0 1.15975e-07)
(0 0 1.22891e-07)
(0 0 1.29902e-07)
(0 0 1.37009e-07)
(0 0 1.44217e-07)
(0 0 1.5153e-07)
(0 0 1.58956e-07)
(0 0 1.66503e-07)
(0 0 1.74184e-07)
(0 0 1.82015e-07)
(0 0 1.90018e-07)
(0 0 1.98222e-07)
(0 0 2.06665e-07)
(0 0 2.15402e-07)
(0 0 2.24508e-07)
(0 0 2.34095e-07)
(0 0 2.44324e-07)
(0 0 2.55444e-07)
(0 0 2.6786e-07)
(0 0 2.8058e-07)
(0 0 2.92538e-07)
(0 0 3.04011e-07)
(0 0 3.15165e-07)
(0 0 3.26106e-07)
(0 0 3.36907e-07)
(0 0 3.47621e-07)
(0 0 3.58287e-07)
(0 0 3.68932e-07)
(0 0 3.79577e-07)
(0 0 3.90238e-07)
(0 0 4.00926e-07)
(0 0 4.1165e-07)
(0 0 4.22419e-07)
(0 0 4.33236e-07)
(0 0 4.44108e-07)
(0 0 4.55037e-07)
(0 0 4.66026e-07)
(0 0 4.77078e-07)
(0 0 4.88195e-07)
(0 0 4.99378e-07)
(0 0 5.10629e-07)
(0 0 5.21948e-07)
(0 0 5.33337e-07)
(0 0 5.44797e-07)
(0 0 5.56328e-07)
(0 0 5.67931e-07)
(0 0 5.79607e-07)
(0 0 5.91357e-07)
(0 0 6.0318e-07)
(0 0 6.15078e-07)
(0 0 6.2705e-07)
(0 0 6.39098e-07)
(0 0 6.51222e-07)
(0 0 6.63422e-07)
(0 0 6.75699e-07)
(0 0 6.88052e-07)
(0 0 7.00483e-07)
(0 0 7.12993e-07)
(0 0 7.2558e-07)
(0 0 7.38247e-07)
(0 0 7.50993e-07)
(0 0 7.63819e-07)
(0 0 7.76726e-07)
(0 0 7.89714e-07)
(0 0 8.02784e-07)
(0 0 8.15937e-07)
(0 0 8.29173e-07)
(0 0 8.42493e-07)
(0 0 8.55898e-07)
(0 0 8.69388e-07)
(0 0 8.82966e-07)
(0 0 8.96631e-07)
(0 0 9.10385e-07)
(0 0 9.24229e-07)
(0 0 9.38164e-07)
(0 0 9.5219e-07)
(0 0 9.66311e-07)
(0 0 9.80526e-07)
(0 0 9.94837e-07)
(0 0 1.00686e-06)
)
;

boundaryField
{
    inlet
    {
        type            fixedValue;
        value           uniform (0 0 0);
    }
    outlet
    {
        type            zeroGradient;
    }
    emptyWalls
    {
        type            empty;
    }
}


// ************************************************************************* //
