/*--------------------------------*- C++ -*----------------------------------*\
  =========                 |
  \\      /  F ield         | OpenFOAM: The Open Source CFD Toolbox
   \\    /   O peration     | Website:  https://openfoam.org
    \\  /    A nd           | Version:  9
     \\/     M anipulation  |
\*---------------------------------------------------------------------------*/
FoamFile
{
    format      ascii;
    class       volScalarField;
    location    "2600";
    object      kra;
}
// * * * * * * * * * * * * * * * * * * * * * * * * * * * * * * * * * * * * * //

dimensions      [0 0 0 0 0 0 0];

internalField   nonuniform List<scalar> 
100
(
4.011e-05
2.93928e-05
3.18376e-05
3.03698e-05
3.03954e-05
2.99717e-05
2.97487e-05
2.94901e-05
2.92702e-05
2.90581e-05
2.88603e-05
2.86714e-05
2.84907e-05
2.8316e-05
2.81456e-05
2.79776e-05
2.78097e-05
2.76384e-05
2.74589e-05
2.73018e-05
2.74459e-05
2.74663e-05
2.75284e-05
2.75696e-05
2.76148e-05
2.76549e-05
2.76937e-05
2.773e-05
2.77645e-05
2.77971e-05
2.7828e-05
2.78573e-05
2.78849e-05
2.79109e-05
2.79355e-05
2.79586e-05
2.79803e-05
2.80006e-05
2.80195e-05
2.80372e-05
2.80536e-05
2.80688e-05
2.80827e-05
2.80955e-05
2.81072e-05
2.81177e-05
2.8127e-05
2.81353e-05
2.81424e-05
2.81484e-05
2.81532e-05
2.8157e-05
2.81595e-05
2.81609e-05
2.81612e-05
2.81602e-05
2.81581e-05
2.81547e-05
2.815e-05
2.8144e-05
2.81367e-05
2.81281e-05
2.81179e-05
2.81062e-05
2.80929e-05
2.80779e-05
2.8061e-05
2.80419e-05
2.80205e-05
2.79964e-05
2.79691e-05
2.7938e-05
2.79023e-05
2.78606e-05
2.7811e-05
2.77505e-05
2.76741e-05
2.75732e-05
2.7431e-05
2.72111e-05
2.68213e-05
2.59661e-05
2.33721e-05
1.39879e-05
1.85363e-06
3.68641e-09
2.17521e-15
1.5055e-28
3.22565e-35
3.31504e-35
3.22551e-35
3.31491e-35
3.05016e-35
3.22532e-35
3.31471e-35
2.79637e-35
3.22512e-35
3.3145e-35
3.22498e-35
3.31435e-35
)
;

boundaryField
{
    inlet
    {
        type            calculated;
        value           uniform 1.16682e-05;
    }
    outlet
    {
        type            calculated;
        value           uniform 4.72862e-37;
    }
    emptyWalls
    {
        type            empty;
    }
}


// ************************************************************************* //
