/*--------------------------------*- C++ -*----------------------------------*\
  =========                 |
  \\      /  F ield         | OpenFOAM: The Open Source CFD Toolbox
   \\    /   O peration     | Website:  https://openfoam.org
    \\  /    A nd           | Version:  9
     \\/     M anipulation  |
\*---------------------------------------------------------------------------*/
FoamFile
{
    format      ascii;
    class       volScalarField;
    location    "2600";
    object      krc;
}
// * * * * * * * * * * * * * * * * * * * * * * * * * * * * * * * * * * * * * //

dimensions      [0 0 0 0 0 0 0];

internalField   nonuniform List<scalar> 
100
(
7.42393e-06
1.12875e-05
1.92741e-05
2.55022e-05
3.30359e-05
4.03072e-05
4.79839e-05
5.57561e-05
6.37405e-05
7.18861e-05
8.02179e-05
8.87402e-05
9.7477e-05
0.000106461
0.000115744
0.000125408
0.000135581
0.000146475
0.000158453
0.000172169
0.000186469
0.000200084
0.000213812
0.000227504
0.000241337
0.000255314
0.000269485
0.000283863
0.00029847
0.000313315
0.00032841
0.000343762
0.000359378
0.000375266
0.000391431
0.000407879
0.000424615
0.000441646
0.000458977
0.000476615
0.000494568
0.000512841
0.000531442
0.000550381
0.000569666
0.000589307
0.000609314
0.0006297
0.000650477
0.000671659
0.000693263
0.000715306
0.000737807
0.00076079
0.000784278
0.000808301
0.000832891
0.000858085
0.000883926
0.000910465
0.000937761
0.000965882
0.000994913
0.00102495
0.00105613
0.00108858
0.0011225
0.00115813
0.00119576
0.00123579
0.00127874
0.00132532
0.0013765
0.0014337
0.00149896
0.00157549
0.00166843
0.0017866
0.00194644
0.00218184
0.00257348
0.00335645
0.00542626
0.012519
0.0264734
0.0315472
0.0317555
0.031756
0.0317558
0.0317555
0.0317553
0.031755
0.0317548
0.0317545
0.0317542
0.0317539
0.0317537
0.0317534
0.0317531
0.0317528
)
;

boundaryField
{
    inlet
    {
        type            calculated;
        value           uniform 7.42393e-06;
    }
    outlet
    {
        type            calculated;
        value           uniform 0.0317528;
    }
    emptyWalls
    {
        type            empty;
    }
}


// ************************************************************************* //
