/*--------------------------------*- C++ -*----------------------------------*\
  =========                 |
  \\      /  F ield         | OpenFOAM: The Open Source CFD Toolbox
   \\    /   O peration     | Website:  https://openfoam.org
    \\  /    A nd           | Version:  9
     \\/     M anipulation  |
\*---------------------------------------------------------------------------*/
FoamFile
{
    format      ascii;
    class       volScalarField;
    location    "2600";
    object      p;
}
// * * * * * * * * * * * * * * * * * * * * * * * * * * * * * * * * * * * * * //

dimensions      [0 0 0 0 0 0 0];

internalField   nonuniform List<scalar> 
100
(
5.90658e+06
5.89848e+06
5.88744e+06
5.87725e+06
5.86658e+06
5.85593e+06
5.84514e+06
5.83428e+06
5.82333e+06
5.81232e+06
5.80123e+06
5.79009e+06
5.77888e+06
5.76762e+06
5.7563e+06
5.74493e+06
5.73351e+06
5.72203e+06
5.7105e+06
5.69892e+06
5.6873e+06
5.67575e+06
5.66425e+06
5.65278e+06
5.64136e+06
5.62998e+06
5.61864e+06
5.60734e+06
5.59607e+06
5.58484e+06
5.57365e+06
5.56249e+06
5.55137e+06
5.54028e+06
5.52923e+06
5.51821e+06
5.50723e+06
5.49628e+06
5.48536e+06
5.47448e+06
5.46363e+06
5.45282e+06
5.44203e+06
5.43128e+06
5.42057e+06
5.40988e+06
5.39923e+06
5.38861e+06
5.37802e+06
5.36746e+06
5.35694e+06
5.34645e+06
5.33599e+06
5.32557e+06
5.31517e+06
5.30481e+06
5.29449e+06
5.28419e+06
5.27393e+06
5.26371e+06
5.25351e+06
5.24336e+06
5.23323e+06
5.22315e+06
5.21309e+06
5.20308e+06
5.1931e+06
5.18317e+06
5.17327e+06
5.16341e+06
5.1536e+06
5.14384e+06
5.13412e+06
5.12445e+06
5.11485e+06
5.10531e+06
5.09584e+06
5.08647e+06
5.0772e+06
5.06808e+06
5.05916e+06
5.05057e+06
5.04254e+06
5.03576e+06
5.03144e+06
5.02906e+06
5.02704e+06
5.02504e+06
5.02304e+06
5.02103e+06
5.01903e+06
5.01703e+06
5.01502e+06
5.01302e+06
5.01102e+06
5.00901e+06
5.00701e+06
5.00501e+06
5.003e+06
5.001e+06
)
;

boundaryField
{
    inlet
    {
        type            darcyGradPressure;
        gradient        uniform 4.01771e+06;
        Mf              Mf;
        phi             phi;
        value           uniform 5.91462e+06;
    }
    outlet
    {
        type            fixedValue;
        value           uniform 5e+06;
    }
    emptyWalls
    {
        type            empty;
    }
}


// ************************************************************************* //
