/*--------------------------------*- C++ -*----------------------------------*\
  =========                 |
  \\      /  F ield         | OpenFOAM: The Open Source CFD Toolbox
   \\    /   O peration     | Website:  https://openfoam.org
    \\  /    A nd           | Version:  9
     \\/     M anipulation  |
\*---------------------------------------------------------------------------*/
FoamFile
{
    format      ascii;
    class       surfaceScalarField;
    location    "2600";
    object      phia;
}
// * * * * * * * * * * * * * * * * * * * * * * * * * * * * * * * * * * * * * //

dimensions      [0 2 0 0 0 0 0];

internalField   nonuniform List<scalar> 
99
(
1.42025e-08
1.41916e-08
1.41796e-08
1.41669e-08
1.41535e-08
1.41396e-08
1.41251e-08
1.41102e-08
1.40948e-08
1.40789e-08
1.40626e-08
1.40457e-08
1.40284e-08
1.40104e-08
1.39918e-08
1.39722e-08
1.39515e-08
1.39292e-08
1.39046e-08
1.3874e-08
1.38471e-08
1.38197e-08
1.37931e-08
1.37663e-08
1.37395e-08
1.37125e-08
1.36853e-08
1.36578e-08
1.36299e-08
1.36018e-08
1.35732e-08
1.35443e-08
1.3515e-08
1.34853e-08
1.34551e-08
1.34246e-08
1.33936e-08
1.33621e-08
1.33303e-08
1.32979e-08
1.32652e-08
1.3232e-08
1.31983e-08
1.31642e-08
1.31297e-08
1.30946e-08
1.30591e-08
1.3023e-08
1.29865e-08
1.29493e-08
1.29116e-08
1.28733e-08
1.28344e-08
1.27948e-08
1.27544e-08
1.27133e-08
1.26715e-08
1.26287e-08
1.25851e-08
1.25405e-08
1.24948e-08
1.24479e-08
1.23998e-08
1.23502e-08
1.2299e-08
1.2246e-08
1.21909e-08
1.21334e-08
1.20729e-08
1.20091e-08
1.1941e-08
1.18677e-08
1.17878e-08
1.16992e-08
1.1599e-08
1.14829e-08
1.13436e-08
1.11693e-08
1.09384e-08
1.06078e-08
1.00811e-08
9.10556e-09
6.93701e-09
2.6403e-09
1.92655e-10
3.24972e-13
1.90501e-19
1.31848e-32
2.82494e-39
2.90323e-39
2.82481e-39
2.9031e-39
2.67124e-39
2.82463e-39
2.90291e-39
2.44897e-39
2.82444e-39
2.90271e-39
2.82431e-39
)
;

boundaryField
{
    inlet
    {
        type            calculated;
        value           uniform -1.42126e-08;
    }
    outlet
    {
        type            calculated;
        value           uniform 4.14113e-41;
    }
    emptyWalls
    {
        type            empty;
        value           nonuniform List<scalar> 0();
    }
}


// ************************************************************************* //
