/*--------------------------------*- C++ -*----------------------------------*\
  =========                 |
  \\      /  F ield         | OpenFOAM: The Open Source CFD Toolbox
   \\    /   O peration     | Website:  https://openfoam.org
    \\  /    A nd           | Version:  9
     \\/     M anipulation  |
\*---------------------------------------------------------------------------*/
FoamFile
{
    format      ascii;
    class       surfaceScalarField;
    location    "2600";
    object      phib;
}
// * * * * * * * * * * * * * * * * * * * * * * * * * * * * * * * * * * * * * //

dimensions      [0 2 0 0 0 0 0];

internalField   nonuniform List<scalar> 
99
(
6.09076e-09
6.09029e-09
6.08977e-09
6.08923e-09
6.08866e-09
6.08807e-09
6.08746e-09
6.08682e-09
6.08617e-09
6.0855e-09
6.08481e-09
6.0841e-09
6.08337e-09
6.08261e-09
6.08183e-09
6.08101e-09
6.08014e-09
6.0792e-09
6.07817e-09
6.0798e-09
6.08035e-09
6.08132e-09
6.08213e-09
6.08303e-09
6.08391e-09
6.08482e-09
6.08576e-09
6.08672e-09
6.08771e-09
6.08873e-09
6.08979e-09
6.09088e-09
6.09203e-09
6.09323e-09
6.09448e-09
6.09579e-09
6.09715e-09
6.09858e-09
6.10005e-09
6.10157e-09
6.10313e-09
6.10472e-09
6.10634e-09
6.10798e-09
6.10965e-09
6.11134e-09
6.11307e-09
6.11482e-09
6.11661e-09
6.11845e-09
6.12033e-09
6.12227e-09
6.12427e-09
6.12634e-09
6.12849e-09
6.13071e-09
6.13302e-09
6.13542e-09
6.13791e-09
6.1405e-09
6.1432e-09
6.14602e-09
6.14895e-09
6.15202e-09
6.15523e-09
6.15861e-09
6.16217e-09
6.16594e-09
6.16996e-09
6.17428e-09
6.17897e-09
6.18413e-09
6.18988e-09
6.19641e-09
6.20402e-09
6.21315e-09
6.22454e-09
6.23953e-09
6.2607e-09
6.29373e-09
6.35352e-09
6.49014e-09
6.9245e-09
8.21128e-09
9.10513e-09
9.17936e-09
9.17941e-09
9.1793e-09
9.17935e-09
9.17947e-09
9.17959e-09
9.17969e-09
9.1798e-09
9.17991e-09
9.18002e-09
9.18014e-09
9.18026e-09
9.18038e-09
9.1805e-09
)
;

boundaryField
{
    inlet
    {
        type            calculated;
        value           uniform -6.09112e-09;
    }
    outlet
    {
        type            calculated;
        value           uniform 9.18062e-09;
    }
    emptyWalls
    {
        type            empty;
        value           nonuniform List<scalar> 0();
    }
}


// ************************************************************************* //
