/*--------------------------------*- C++ -*----------------------------------*\
  =========                 |
  \\      /  F ield         | OpenFOAM: The Open Source CFD Toolbox
   \\    /   O peration     | Website:  https://openfoam.org
    \\  /    A nd           | Version:  9
     \\/     M anipulation  |
\*---------------------------------------------------------------------------*/
FoamFile
{
    format      ascii;
    class       surfaceScalarField;
    location    "2600";
    object      phic;
}
// * * * * * * * * * * * * * * * * * * * * * * * * * * * * * * * * * * * * * //

dimensions      [0 2 0 0 0 0 0];

internalField   nonuniform List<scalar> 
99
(
1.05149e-11
2.17997e-11
3.43366e-11
4.75849e-11
6.15323e-11
7.60621e-11
9.11342e-11
1.06711e-10
1.22774e-10
1.39318e-10
1.56349e-10
1.7389e-10
1.91985e-10
2.10702e-10
2.30155e-10
2.50519e-10
2.72073e-10
2.95283e-10
3.2095e-10
3.49964e-10
3.76312e-10
4.02691e-10
4.28522e-10
4.54397e-10
4.80301e-10
5.06385e-10
5.32681e-10
5.59241e-10
5.86089e-10
6.13248e-10
6.40731e-10
6.68553e-10
6.96721e-10
7.25244e-10
7.54131e-10
7.83386e-10
8.13017e-10
8.43029e-10
8.73431e-10
9.04228e-10
9.35428e-10
9.67039e-10
9.9907e-10
1.03153e-09
1.06443e-09
1.09778e-09
1.13159e-09
1.16588e-09
1.20066e-09
1.23596e-09
1.27178e-09
1.30815e-09
1.34509e-09
1.38264e-09
1.42082e-09
1.45968e-09
1.49924e-09
1.53957e-09
1.58072e-09
1.62275e-09
1.66574e-09
1.70979e-09
1.755e-09
1.80151e-09
1.84948e-09
1.89911e-09
1.95066e-09
2.00443e-09
2.06083e-09
2.12038e-09
2.18376e-09
2.25191e-09
2.3261e-09
2.40814e-09
2.50068e-09
2.6077e-09
2.73556e-09
2.89486e-09
3.10466e-09
3.40222e-09
3.8691e-09
4.70804e-09
6.44223e-09
9.45216e-09
1.10059e-08
1.11241e-08
1.11243e-08
1.11244e-08
1.11244e-08
1.11243e-08
1.11242e-08
1.1124e-08
1.11239e-08
1.11238e-08
1.11237e-08
1.11236e-08
1.11235e-08
1.11234e-08
1.11232e-08
)
;

boundaryField
{
    inlet
    {
        type            calculated;
        value           uniform 0;
    }
    outlet
    {
        type            calculated;
        value           uniform 1.11231e-08;
    }
    emptyWalls
    {
        type            empty;
        value           nonuniform List<scalar> 0();
    }
}


// ************************************************************************* //
