/*--------------------------------*- C++ -*----------------------------------*\
  =========                 |
  \\      /  F ield         | OpenFOAM: The Open Source CFD Toolbox
   \\    /   O peration     | Website:  https://openfoam.org
    \\  /    A nd           | Version:  9
     \\/     M anipulation  |
\*---------------------------------------------------------------------------*/
FoamFile
{
    format      ascii;
    class       volVectorField;
    location    "2600";
    object      Ua;
}
// * * * * * * * * * * * * * * * * * * * * * * * * * * * * * * * * * * * * * //

dimensions      [0 0 0 0 0 0 0];

internalField   nonuniform List<vector> 
100
(
(0 0 8.91277e-06)
(0 0 1.12977e-05)
(0 0 1.12886e-05)
(0 0 1.12787e-05)
(0 0 1.12684e-05)
(0 0 1.12575e-05)
(0 0 1.12462e-05)
(0 0 1.12345e-05)
(0 0 1.12224e-05)
(0 0 1.121e-05)
(0 0 1.11971e-05)
(0 0 1.11839e-05)
(0 0 1.11703e-05)
(0 0 1.11563e-05)
(0 0 1.11417e-05)
(0 0 1.11265e-05)
(0 0 1.11105e-05)
(0 0 1.10934e-05)
(0 0 1.10747e-05)
(0 0 1.10528e-05)
(0 0 1.10299e-05)
(0 0 1.10083e-05)
(0 0 1.09868e-05)
(0 0 1.09655e-05)
(0 0 1.09442e-05)
(0 0 1.09228e-05)
(0 0 1.09013e-05)
(0 0 1.08795e-05)
(0 0 1.08574e-05)
(0 0 1.08351e-05)
(0 0 1.08126e-05)
(0 0 1.07897e-05)
(0 0 1.07665e-05)
(0 0 1.07431e-05)
(0 0 1.07192e-05)
(0 0 1.06951e-05)
(0 0 1.06706e-05)
(0 0 1.06458e-05)
(0 0 1.06206e-05)
(0 0 1.0595e-05)
(0 0 1.05691e-05)
(0 0 1.05429e-05)
(0 0 1.05163e-05)
(0 0 1.04893e-05)
(0 0 1.0462e-05)
(0 0 1.04343e-05)
(0 0 1.04062e-05)
(0 0 1.03777e-05)
(0 0 1.03489e-05)
(0 0 1.03195e-05)
(0 0 1.02898e-05)
(0 0 1.02595e-05)
(0 0 1.02288e-05)
(0 0 1.01975e-05)
(0 0 1.01657e-05)
(0 0 1.01333e-05)
(0 0 1.01003e-05)
(0 0 1.00666e-05)
(0 0 1.00323e-05)
(0 0 9.99716e-06)
(0 0 9.96122e-06)
(0 0 9.9244e-06)
(0 0 9.88659e-06)
(0 0 9.84771e-06)
(0 0 9.80762e-06)
(0 0 9.76616e-06)
(0 0 9.72314e-06)
(0 0 9.67832e-06)
(0 0 9.63139e-06)
(0 0 9.58193e-06)
(0 0 9.52943e-06)
(0 0 9.47318e-06)
(0 0 9.4122e-06)
(0 0 9.34515e-06)
(0 0 9.27007e-06)
(0 0 9.18401e-06)
(0 0 9.08239e-06)
(0 0 8.95763e-06)
(0 0 8.79638e-06)
(0 0 8.57294e-06)
(0 0 8.23185e-06)
(0 0 7.63414e-06)
(0 0 6.38314e-06)
(0 0 3.81069e-06)
(0 0 1.1272e-06)
(0 0 7.67843e-08)
(0 0 1.29302e-10)
(0 0 7.57978e-17)
(0 0 5.24607e-30)
(0 0 2.27917e-36)
(0 0 2.27911e-36)
(0 0 2.27906e-36)
(0 0 2.21796e-36)
(0 0 2.18674e-36)
(0 0 2.27892e-36)
(0 0 2.12945e-36)
(0 0 2.09822e-36)
(0 0 2.27876e-36)
(0 0 2.27871e-36)
(0 0 1.14023e-36)
)
;

boundaryField
{
    inlet
    {
        type            fixedValue;
        value           uniform (0 0 1.131e-05);
    }
    outlet
    {
        type            zeroGradient;
    }
    emptyWalls
    {
        type            empty;
    }
}


// ************************************************************************* //
