/*--------------------------------*- C++ -*----------------------------------*\
  =========                 |
  \\      /  F ield         | OpenFOAM: The Open Source CFD Toolbox
   \\    /   O peration     | Website:  https://openfoam.org
    \\  /    A nd           | Version:  9
     \\/     M anipulation  |
\*---------------------------------------------------------------------------*/
FoamFile
{
    format      ascii;
    class       volVectorField;
    location    "2600";
    object      Ub;
}
// * * * * * * * * * * * * * * * * * * * * * * * * * * * * * * * * * * * * * //

dimensions      [0 0 0 0 0 0 0];

internalField   nonuniform List<vector> 
100
(
(0 0 7.23195e-06)
(0 0 4.84668e-06)
(0 0 4.84629e-06)
(0 0 4.84587e-06)
(0 0 4.84543e-06)
(0 0 4.84497e-06)
(0 0 4.84449e-06)
(0 0 4.84399e-06)
(0 0 4.84348e-06)
(0 0 4.84295e-06)
(0 0 4.84241e-06)
(0 0 4.84185e-06)
(0 0 4.84128e-06)
(0 0 4.84069e-06)
(0 0 4.84008e-06)
(0 0 4.83944e-06)
(0 0 4.83877e-06)
(0 0 4.83805e-06)
(0 0 4.83726e-06)
(0 0 4.8375e-06)
(0 0 4.83837e-06)
(0 0 4.83898e-06)
(0 0 4.83969e-06)
(0 0 4.84036e-06)
(0 0 4.84107e-06)
(0 0 4.84178e-06)
(0 0 4.84252e-06)
(0 0 4.84327e-06)
(0 0 4.84405e-06)
(0 0 4.84485e-06)
(0 0 4.84568e-06)
(0 0 4.84653e-06)
(0 0 4.84743e-06)
(0 0 4.84836e-06)
(0 0 4.84933e-06)
(0 0 4.85035e-06)
(0 0 4.85142e-06)
(0 0 4.85253e-06)
(0 0 4.85368e-06)
(0 0 4.85487e-06)
(0 0 4.85609e-06)
(0 0 4.85735e-06)
(0 0 4.85863e-06)
(0 0 4.85992e-06)
(0 0 4.86124e-06)
(0 0 4.86258e-06)
(0 0 4.86394e-06)
(0 0 4.86532e-06)
(0 0 4.86673e-06)
(0 0 4.86817e-06)
(0 0 4.86965e-06)
(0 0 4.87118e-06)
(0 0 4.87275e-06)
(0 0 4.87437e-06)
(0 0 4.87604e-06)
(0 0 4.87778e-06)
(0 0 4.87958e-06)
(0 0 4.88145e-06)
(0 0 4.8834e-06)
(0 0 4.88542e-06)
(0 0 4.88753e-06)
(0 0 4.88972e-06)
(0 0 4.89201e-06)
(0 0 4.8944e-06)
(0 0 4.8969e-06)
(0 0 4.89952e-06)
(0 0 4.90228e-06)
(0 0 4.9052e-06)
(0 0 4.9083e-06)
(0 0 4.91162e-06)
(0 0 4.91521e-06)
(0 0 4.91912e-06)
(0 0 4.92346e-06)
(0 0 4.92835e-06)
(0 0 4.93398e-06)
(0 0 4.94063e-06)
(0 0 4.9488e-06)
(0 0 4.9593e-06)
(0 0 4.97368e-06)
(0 0 4.99525e-06)
(0 0 5.03218e-06)
(0 0 5.11033e-06)
(0 0 5.33751e-06)
(0 0 6.02233e-06)
(0 0 6.88998e-06)
(0 0 7.27517e-06)
(0 0 7.30472e-06)
(0 0 7.3047e-06)
(0 0 7.30468e-06)
(0 0 7.30474e-06)
(0 0 7.30484e-06)
(0 0 7.30493e-06)
(0 0 7.30501e-06)
(0 0 7.30509e-06)
(0 0 7.30518e-06)
(0 0 7.30527e-06)
(0 0 7.30537e-06)
(0 0 7.30546e-06)
(0 0 7.30556e-06)
(0 0 7.30566e-06)
)
;

boundaryField
{
    inlet
    {
        type            fixedValue;
        value           uniform (0 0 4.84716e-06);
    }
    outlet
    {
        type            zeroGradient;
    }
    emptyWalls
    {
        type            empty;
    }
}


// ************************************************************************* //
