/*--------------------------------*- C++ -*----------------------------------*\
  =========                 |
  \\      /  F ield         | OpenFOAM: The Open Source CFD Toolbox
   \\    /   O peration     | Website:  https://openfoam.org
    \\  /    A nd           | Version:  9
     \\/     M anipulation  |
\*---------------------------------------------------------------------------*/
FoamFile
{
    format      ascii;
    class       volVectorField;
    location    "2600";
    object      Uc;
}
// * * * * * * * * * * * * * * * * * * * * * * * * * * * * * * * * * * * * * //

dimensions      [0 0 0 0 0 0 0];

internalField   nonuniform List<vector> 
100
(
(0 0 1.2485e-08)
(0 0 1.28576e-08)
(0 0 2.23359e-08)
(0 0 3.25956e-08)
(0 0 4.34164e-08)
(0 0 5.47471e-08)
(0 0 6.65253e-08)
(0 0 7.87201e-08)
(0 0 9.13093e-08)
(0 0 1.04283e-07)
(0 0 1.17642e-07)
(0 0 1.31398e-07)
(0 0 1.45577e-07)
(0 0 1.60224e-07)
(0 0 1.75412e-07)
(0 0 1.91254e-07)
(0 0 2.07933e-07)
(0 0 2.25744e-07)
(0 0 2.45191e-07)
(0 0 2.66948e-07)
(0 0 2.88976e-07)
(0 0 3.09956e-07)
(0 0 3.30729e-07)
(0 0 3.51302e-07)
(0 0 3.71905e-07)
(0 0 3.9259e-07)
(0 0 4.13431e-07)
(0 0 4.34462e-07)
(0 0 4.55712e-07)
(0 0 4.77201e-07)
(0 0 4.98942e-07)
(0 0 5.20947e-07)
(0 0 5.43225e-07)
(0 0 5.65782e-07)
(0 0 5.88625e-07)
(0 0 6.11758e-07)
(0 0 6.35188e-07)
(0 0 6.5892e-07)
(0 0 6.82958e-07)
(0 0 7.07308e-07)
(0 0 7.31976e-07)
(0 0 7.56968e-07)
(0 0 7.8229e-07)
(0 0 8.0795e-07)
(0 0 8.33955e-07)
(0 0 8.60315e-07)
(0 0 8.87038e-07)
(0 0 9.14136e-07)
(0 0 9.41619e-07)
(0 0 9.695e-07)
(0 0 9.97795e-07)
(0 0 1.02652e-06)
(0 0 1.05569e-06)
(0 0 1.08533e-06)
(0 0 1.11546e-06)
(0 0 1.14612e-06)
(0 0 1.17732e-06)
(0 0 1.20911e-06)
(0 0 1.24152e-06)
(0 0 1.27462e-06)
(0 0 1.30845e-06)
(0 0 1.34308e-06)
(0 0 1.37859e-06)
(0 0 1.41509e-06)
(0 0 1.45268e-06)
(0 0 1.49152e-06)
(0 0 1.53178e-06)
(0 0 1.57368e-06)
(0 0 1.61752e-06)
(0 0 1.66365e-06)
(0 0 1.71256e-06)
(0 0 1.7649e-06)
(0 0 1.82153e-06)
(0 0 1.8837e-06)
(0 0 1.95316e-06)
(0 0 2.03256e-06)
(0 0 2.12601e-06)
(0 0 2.24027e-06)
(0 0 2.38713e-06)
(0 0 2.58901e-06)
(0 0 2.89317e-06)
(0 0 3.41273e-06)
(0 0 4.43655e-06)
(0 0 6.32418e-06)
(0 0 8.14002e-06)
(0 0 8.80525e-06)
(0 0 8.85235e-06)
(0 0 8.8525e-06)
(0 0 8.85252e-06)
(0 0 8.85246e-06)
(0 0 8.85236e-06)
(0 0 8.85227e-06)
(0 0 8.85219e-06)
(0 0 8.85211e-06)
(0 0 8.85202e-06)
(0 0 8.85193e-06)
(0 0 8.85183e-06)
(0 0 8.85174e-06)
(0 0 8.85164e-06)
(0 0 8.85154e-06)
)
;

boundaryField
{
    inlet
    {
        type            fixedValue;
        value           uniform (0 0 0);
    }
    outlet
    {
        type            zeroGradient;
    }
    emptyWalls
    {
        type            empty;
    }
}


// ************************************************************************* //
