/*--------------------------------*- C++ -*----------------------------------*\
  =========                 |
  \\      /  F ield         | OpenFOAM: The Open Source CFD Toolbox
   \\    /   O peration     | Website:  https://openfoam.org
    \\  /    A nd           | Version:  9
     \\/     M anipulation  |
\*---------------------------------------------------------------------------*/
FoamFile
{
    format      ascii;
    class       volScalarField;
    location    "2800";
    object      krc;
}
// * * * * * * * * * * * * * * * * * * * * * * * * * * * * * * * * * * * * * //

dimensions      [0 0 0 0 0 0 0];

internalField   nonuniform List<scalar> 
1000
(
1.57321e-05
0.000165674
0.000924028
0.0102954
0.0399635
0.0486713
0.0521769
0.0543239
0.0560961
0.0585688
0.062577
0.0673419
0.0724608
0.0777083
0.0829817
0.0882293
0.0934253
0.0985569
0.103616
0.1086
0.113509
0.118342
0.123101
0.127788
0.132405
0.136955
0.141439
0.14586
0.150221
0.154524
0.158772
0.162967
0.167111
0.171207
0.175256
0.179262
0.183224
0.187146
0.191029
0.194875
0.198686
0.202463
0.206208
0.209922
0.213606
0.217263
0.220893
0.224498
0.228079
0.231638
0.235174
0.238691
0.242188
0.245667
0.24913
0.252576
0.256008
0.259426
0.262832
0.266226
0.26961
0.272984
0.27635
0.279708
0.28306
0.286406
0.289748
0.293087
0.296424
0.29976
0.303096
0.306432
0.309772
0.313115
0.316462
0.319816
0.323177
0.326547
0.329928
0.33332
0.336726
0.340147
0.343583
0.347038
0.350513
0.354009
0.35753
0.361077
0.364653
0.368259
0.371897
0.375571
0.379282
0.383032
0.386822
0.390653
0.394525
0.398437
0.402382
0.406355
0.410345
0.414339
0.41833
0.422325
0.426371
0.430601
0.435302
0.441026
0.448731
0.459881
0.476291
0.499345
0.528443
0.559855
0.588091
0.6093
0.623046
0.631055
0.635426
0.637715
0.638883
0.63947
0.639761
0.639903
0.639975
0.64001
0.640027
0.640039
0.640054
0.64007
0.640086
0.640106
0.640129
0.640153
0.64018
0.640208
0.640237
0.640265
0.640293
0.64032
0.640345
0.640368
0.640388
0.640405
0.640419
0.640431
0.640439
0.640445
0.640448
0.640449
0.640449
0.640449
0.640446
0.640442
0.640436
0.64043
0.640424
0.640418
0.640412
0.640406
0.6404
0.640395
0.640391
0.640386
0.640383
0.64038
0.640377
0.640375
0.640374
0.640373
0.640372
0.640372
0.640371
0.640371
0.640371
0.640371
0.640372
0.640373
0.640374
0.640375
0.640376
0.640377
0.640378
0.640379
0.64038
0.640381
0.640382
0.640384
0.640385
0.640387
0.640388
0.640389
0.64039
0.640392
0.640393
0.640395
0.640396
0.640398
0.640399
0.640401
0.640402
0.640404
0.640405
0.640407
0.640408
0.640409
0.640411
0.640412
0.640414
0.640415
0.640416
0.640418
0.640419
0.640421
0.640422
0.640423
0.640424
0.640425
0.640426
0.640427
0.640428
0.640429
0.64043
0.640431
0.640431
0.640432
0.640432
0.640433
0.640433
0.640433
0.640433
0.640432
0.640432
0.640431
0.640431
0.64043
0.64043
0.640429
0.640428
0.640427
0.640426
0.640426
0.640425
0.640424
0.640423
0.640422
0.640421
0.640421
0.64042
0.640419
0.640419
0.640418
0.640418
0.640417
0.640417
0.640417
0.640417
0.640417
0.640418
0.640418
0.640418
0.640418
0.640419
0.64042
0.640421
0.640422
0.640423
0.640423
0.640424
0.640425
0.640426
0.640428
0.640428
0.640429
0.64043
0.640431
0.640432
0.640432
0.640433
0.640433
0.640433
0.640434
0.640433
0.640433
0.640433
0.640433
0.640433
0.640432
0.640431
0.640431
0.64043
0.640429
0.640427
0.640426
0.640424
0.640423
0.640421
0.640419
0.640417
0.640415
0.640412
0.640409
0.640406
0.640402
0.640398
0.640394
0.640389
0.640384
0.640378
0.640372
0.640365
0.640357
0.640349
0.64034
0.640331
0.640321
0.640311
0.6403
0.640289
0.640277
0.640265
0.640253
0.640241
0.640229
0.640217
0.640205
0.640194
0.640184
0.640175
0.640167
0.64016
0.640156
0.640153
0.640152
0.640152
0.640152
0.640154
0.640162
0.640174
0.640188
0.640206
0.640226
0.640248
0.640273
0.640299
0.640327
0.640355
0.640383
0.640411
0.640438
0.640463
0.640487
0.640509
0.640528
0.640545
0.64056
0.640572
0.640581
0.640589
0.640594
0.640596
0.640598
0.640598
0.640598
0.640596
0.640591
0.640586
0.64058
0.640573
0.640566
0.640559
0.640552
0.640545
0.640538
0.640532
0.640526
0.64052
0.640515
0.64051
0.640505
0.640501
0.640497
0.640494
0.640491
0.640488
0.640486
0.640484
0.640483
0.640482
0.640481
0.64048
0.64048
0.640479
0.640479
0.640479
0.640479
0.640479
0.640479
0.64048
0.64048
0.64048
0.640481
0.640481
0.640482
0.640482
0.640482
0.640483
0.640483
0.640483
0.640484
0.640485
0.640486
0.640487
0.640487
0.640488
0.640489
0.64049
0.640491
0.640492
0.640493
0.640495
0.640496
0.640498
0.640499
0.640501
0.640503
0.640504
0.640506
0.640508
0.64051
0.640513
0.640515
0.640517
0.640519
0.640522
0.640524
0.640526
0.640529
0.640531
0.640533
0.640536
0.640538
0.64054
0.640542
0.640544
0.640546
0.640547
0.640549
0.64055
0.640551
0.640552
0.640553
0.640553
0.640553
0.640553
0.640553
0.640553
0.640553
0.640551
0.640551
0.64055
0.640545
0.640545
0.640545
0.640565
0.640655
0.641112
0.652181
0.659693
0.660157
0.660156
0.660156
0.660156
0.660156
0.660156
0.660156
0.660156
0.660156
0.660156
0.660156
0.660156
0.660156
0.660156
0.660156
0.660156
0.660156
0.660156
0.660156
0.660156
0.660156
0.660156
0.660156
0.660156
0.660156
0.660156
0.660156
0.660156
0.660156
0.660156
0.660156
0.660156
0.660156
0.660156
0.660156
0.660156
0.660156
0.660156
0.660156
0.660156
0.660156
0.660156
0.660156
0.660156
0.660156
0.660156
0.660156
0.660156
0.660156
0.660156
0.660156
0.660156
0.660156
0.660156
0.660156
0.660156
0.660156
0.660156
0.660156
0.660156
0.660156
0.660156
0.660156
0.660156
0.660156
0.660156
0.660156
0.660156
0.660156
0.660156
0.660156
0.660156
0.660156
0.660156
0.660156
0.660156
0.660156
0.660156
0.660156
0.660156
0.660156
0.660156
0.660156
0.660156
0.660156
0.660156
0.660156
0.660156
0.660156
0.660156
0.660156
0.660156
0.660156
0.660156
0.660156
0.660156
0.660156
0.660156
0.660156
0.660156
0.660156
0.660156
0.660156
0.660156
0.660156
0.660156
0.660156
0.660156
0.660156
0.660156
0.660156
0.660156
0.660156
0.660156
0.660156
0.660156
0.660156
0.660156
0.660156
0.660156
0.660156
0.660156
0.660156
0.660156
0.660156
0.660156
0.660156
0.660156
0.660156
0.660156
0.660156
0.660156
0.660156
0.660156
0.660156
0.660156
0.660156
0.660156
0.660156
0.660156
0.660156
0.660156
0.660156
0.660156
0.660156
0.660156
0.660156
0.660156
0.660156
0.660156
0.660156
0.660156
0.660156
0.660156
0.660156
0.660156
0.660156
0.660156
0.660156
0.660156
0.660156
0.660156
0.660156
0.660156
0.660156
0.660156
0.660156
0.660156
0.660156
0.660156
0.660156
0.660156
0.660156
0.660156
0.660156
0.660156
0.660156
0.660156
0.660156
0.660156
0.660156
0.660156
0.660156
0.660156
0.660156
0.660156
0.660156
0.660156
0.660156
0.660156
0.660156
0.660156
0.660156
0.660156
0.660156
0.660156
0.660156
0.660156
0.660156
0.660156
0.660156
0.660156
0.660156
0.660156
0.660156
0.660156
0.660156
0.660156
0.660156
0.660156
0.660156
0.660156
0.660156
0.660156
0.660156
0.660156
0.660156
0.660156
0.660156
0.660156
0.660156
0.660156
0.660156
0.660156
0.660156
0.660156
0.660156
0.660156
0.660156
0.660156
0.660156
0.660156
0.660156
0.660156
0.660156
0.660156
0.660156
0.660156
0.660156
0.660156
0.660156
0.660156
0.660156
0.660156
0.660156
0.660156
0.660156
0.660156
0.660156
0.660156
0.660156
0.660156
0.660156
0.660156
0.660156
0.660156
0.660156
0.660156
0.660156
0.660156
0.660156
0.660156
0.660156
0.660156
0.660156
0.660156
0.660156
0.660156
0.660156
0.660156
0.660156
0.660156
0.660156
0.660156
0.660156
0.660156
0.660156
0.660156
0.660156
0.660156
0.660156
0.660156
0.660156
0.660156
0.660156
0.660156
0.660156
0.660156
0.660156
0.660156
0.660156
0.660156
0.660156
0.660156
0.660156
0.660156
0.660156
0.660156
0.660156
0.660156
0.660156
0.660156
0.660156
0.660156
0.660156
0.660156
0.660156
0.660156
0.660156
0.660156
0.660156
0.660156
0.660156
0.660156
0.660156
0.660156
0.660156
0.660156
0.660156
0.660156
0.660156
0.660156
0.660156
0.660156
0.660156
0.660156
0.660156
0.660156
0.660156
0.660156
0.660156
0.660156
0.660156
0.660156
0.660156
0.660156
0.660156
0.660156
0.660156
0.660156
0.660156
0.660156
0.660156
0.660156
0.660156
0.660156
0.660156
0.660156
0.660156
0.660156
0.660156
0.660156
0.660156
0.660156
0.660156
0.660156
0.660156
0.660156
0.660156
0.660156
0.660156
0.660156
0.660156
0.660156
0.660156
0.660156
0.660156
0.660156
0.660156
0.660156
0.660156
0.660156
0.660156
0.660156
0.660156
0.660156
0.660156
0.660156
0.660156
0.660156
0.660156
0.660156
0.660156
0.660156
0.660156
0.660156
0.660156
0.660156
0.660156
0.660156
0.660156
0.660156
0.660156
0.660156
0.660156
0.660156
0.660156
0.660156
0.660156
0.660156
0.660156
0.660156
0.660156
0.660156
0.660156
0.660156
0.660156
0.660156
0.660156
0.660156
0.660156
0.660156
0.660156
0.660156
0.660156
0.660156
0.660156
0.660156
0.660156
0.660156
0.660156
0.660156
0.660156
0.660156
0.660156
0.660156
0.660156
0.660156
0.660156
0.660156
0.660156
0.660156
0.660156
0.660156
0.660156
0.660156
0.660156
0.660156
0.660156
0.660156
0.660156
0.660156
0.660156
0.660156
0.660156
0.660156
0.660156
0.660156
0.660156
0.660156
0.660156
0.660156
0.660156
0.660156
0.660156
0.660156
0.660156
0.660156
0.660156
0.660156
0.660156
0.660156
0.660156
0.660156
0.660156
0.660156
0.660156
0.660156
0.660156
0.660156
0.660156
0.660156
0.660156
0.660156
0.660156
0.660156
0.660156
0.660156
0.660156
0.660156
0.660156
0.660156
0.660156
0.660156
0.660156
0.660156
0.660156
0.660156
0.660156
0.660156
0.660156
0.660156
0.660156
0.660156
0.660156
0.660156
0.660156
0.660156
0.660156
0.660156
0.660156
0.660156
0.660156
0.660156
0.660156
0.660156
0.660156
0.660156
0.660156
0.660156
0.660156
0.660156
0.660156
0.660156
0.660156
0.660156
0.660156
0.660156
0.660156
0.660156
0.660156
0.660156
0.660156
0.660156
0.660156
0.660156
0.660156
0.660156
0.660156
0.660156
0.660156
)
;

boundaryField
{
    inlet
    {
        type            calculated;
        value           uniform 3.08149e-33;
    }
    outlet
    {
        type            calculated;
        value           uniform 0.660156;
    }
    emptyWalls
    {
        type            empty;
    }
}


// ************************************************************************* //
