/*--------------------------------*- C++ -*----------------------------------*\
  =========                 |
  \\      /  F ield         | OpenFOAM: The Open Source CFD Toolbox
   \\    /   O peration     | Website:  https://openfoam.org
    \\  /    A nd           | Version:  9
     \\/     M anipulation  |
\*---------------------------------------------------------------------------*/
FoamFile
{
    format      ascii;
    class       volScalarField;
    location    "25300";
    object      Fb;
}
// * * * * * * * * * * * * * * * * * * * * * * * * * * * * * * * * * * * * * //

dimensions      [0 0 0 0 0 0 0];

internalField   nonuniform List<scalar> 
1000
(
0.805201
0.805215
0.805207
0.805212
0.80522
0.805217
0.805228
0.805245
0.805237
0.805282
0.805251
0.805331
0.80527
0.805391
0.805311
0.805436
0.80538
0.80546
0.805454
0.805494
0.805515
0.805549
0.805572
0.805605
0.805627
0.805654
0.805676
0.805697
0.805725
0.805719
0.805779
0.805723
0.805838
0.805842
0.806299
0.809932
0.827678
0.832826
0.833875
0.834284
0.834449
0.834284
0.833773
0.83315
0.832716
0.832611
0.832769
0.833028
0.833312
0.833883
0.834533
0.835075
0.835484
0.835763
0.835932
0.836027
0.836066
0.836008
0.835955
0.835919
0.835914
0.835934
0.835956
0.835977
0.836022
0.836057
0.836113
0.836149
0.836202
0.836236
0.836283
0.836312
0.836352
0.836374
0.836404
0.836426
0.836445
0.83646
0.836472
0.836479
0.836483
0.836482
0.836478
0.836469
0.836456
0.836437
0.836414
0.836385
0.836351
0.836311
0.836264
0.83621
0.836148
0.836075
0.83599
0.83589
0.83577
0.835629
0.835462
0.835271
0.835059
0.834833
0.834596
0.834352
0.834102
0.833849
0.833593
0.833335
0.833075
0.832813
0.832548
0.832281
0.83201
0.831735
0.831456
0.831172
0.830886
0.830598
0.830311
0.830025
0.829741
0.82946
0.829181
0.828903
0.828626
0.828349
0.828068
0.82778
0.82748
0.827161
0.826819
0.826452
0.82606
0.825645
0.825213
0.824767
0.824312
0.823854
0.823395
0.822938
0.822489
0.82205
0.821626
0.821222
0.820843
0.820493
0.820176
0.819895
0.819648
0.819436
0.819253
0.819096
0.818958
0.818832
0.818712
0.818591
0.818463
0.818325
0.818172
0.818002
0.817814
0.817608
0.817383
0.817143
0.816888
0.816621
0.816343
0.816057
0.815766
0.815471
0.815174
0.814876
0.814579
0.814283
0.813988
0.813696
0.813406
0.813118
0.812832
0.812548
0.812266
0.811985
0.811704
0.811425
0.811146
0.810868
0.810589
0.81031
0.810031
0.809751
0.809471
0.80919
0.808908
0.808626
0.808343
0.808058
0.807773
0.807487
0.8072
0.806912
0.806623
0.806333
0.806042
0.80575
0.805457
0.805162
0.804867
0.804571
0.804273
0.803975
0.803676
0.803375
0.803074
0.802771
0.802468
0.802163
0.801857
0.801549
0.801241
0.800931
0.80062
0.800308
0.799996
0.799682
0.799368
0.799053
0.798738
0.798422
0.798106
0.797789
0.797471
0.797152
0.796832
0.796512
0.79619
0.795867
0.795543
0.795218
0.794892
0.794566
0.79424
0.793915
0.793589
0.793264
0.79294
0.792615
0.79229
0.791965
0.791637
0.791306
0.79097
0.790629
0.790282
0.789927
0.789564
0.789192
0.78881
0.788419
0.788019
0.787609
0.787192
0.786768
0.786338
0.785903
0.785466
0.785028
0.784591
0.784157
0.783729
0.783309
0.782899
0.782501
0.782117
0.781748
0.781395
0.78106
0.780741
0.78044
0.780155
0.779885
0.779628
0.779382
0.779145
0.778914
0.778687
0.778462
0.778236
0.778008
0.777775
0.777536
0.777291
0.777038
0.776777
0.776508
0.776232
0.775947
0.775656
0.775358
0.775055
0.774747
0.774434
0.774119
0.7738
0.77348
0.773158
0.772835
0.772512
0.772188
0.771865
0.771542
0.77122
0.770898
0.770577
0.770257
0.769937
0.769618
0.769299
0.76898
0.768662
0.768344
0.768026
0.767709
0.767391
0.767072
0.766754
0.766435
0.766116
0.765797
0.765476
0.765156
0.764834
0.764512
0.76419
0.763866
0.763542
0.763218
0.762892
0.762566
0.762239
0.761911
0.761582
0.761252
0.760922
0.760591
0.760259
0.759926
0.759593
0.759258
0.758923
0.758587
0.758249
0.757912
0.757573
0.757233
0.756892
0.756551
0.756209
0.755866
0.755522
0.755178
0.754833
0.754487
0.754141
0.753794
0.753446
0.753098
0.752749
0.7524
0.752049
0.751699
0.751347
0.750995
0.750642
0.750289
0.749935
0.749581
0.749227
0.748872
0.748517
0.748161
0.747806
0.747449
0.747093
0.746736
0.746377
0.746018
0.745657
0.745294
0.744928
0.74456
0.744189
0.743814
0.743435
0.743052
0.742664
0.742271
0.741873
0.74147
0.741062
0.740649
0.740232
0.73981
0.739384
0.738955
0.738524
0.738091
0.737656
0.737222
0.736789
0.736358
0.73593
0.735507
0.735088
0.734675
0.734269
0.733872
0.733482
0.733101
0.73273
0.732368
0.732015
0.731672
0.731338
0.731011
0.730693
0.73038
0.730074
0.729772
0.729474
0.729179
0.728885
0.728591
0.728296
0.728001
0.727703
0.727402
0.727098
0.72679
0.726478
0.726162
0.725841
0.725517
0.725188
0.724856
0.724519
0.72418
0.723838
0.723492
0.723145
0.722795
0.722444
0.722091
0.721737
0.721382
0.721026
0.720669
0.720313
0.719956
0.719599
0.719241
0.718884
0.718527
0.71817
0.717813
0.717456
0.717099
0.716742
0.716385
0.716028
0.715671
0.715314
0.714957
0.714599
0.714241
0.713883
0.713524
0.713165
0.712805
0.712445
0.712085
0.711724
0.711362
0.711
0.710637
0.710274
0.70991
0.709545
0.709179
0.708813
0.708446
0.708079
0.70771
0.707341
0.706972
0.706601
0.70623
0.705858
0.705485
0.705112
0.704737
0.704362
0.703986
0.70361
0.703232
0.702854
0.702475
0.702096
0.701715
0.701334
0.700953
0.70057
0.700187
0.699804
0.699419
0.699034
0.698649
0.698262
0.697875
0.697488
0.6971
0.696711
0.696322
0.695932
0.695542
0.695151
0.694759
0.694368
0.693975
0.693582
0.693189
0.692795
0.6924
0.692005
0.691609
0.691212
0.690814
0.690415
0.690015
0.689613
0.68921
0.688805
0.688398
0.687989
0.687577
0.687163
0.686746
0.686326
0.685903
0.685478
0.685049
0.684617
0.684181
0.683743
0.683302
0.682858
0.682412
0.681963
0.681512
0.68106
0.680606
0.680152
0.679697
0.679242
0.678788
0.678335
0.677884
0.677435
0.676989
0.676545
0.676106
0.67567
0.675239
0.674813
0.674392
0.673976
0.673565
0.67316
0.67276
0.672365
0.671976
0.671591
0.671211
0.670834
0.670461
0.670092
0.669725
0.66936
0.668996
0.668634
0.668272
0.66791
0.667547
0.667184
0.666819
0.666452
0.666084
0.665713
0.66534
0.664965
0.664587
0.664206
0.663823
0.663438
0.66305
0.662659
0.662267
0.661872
0.661476
0.661078
0.660678
0.660276
0.659874
0.65947
0.659065
0.658659
0.658253
0.657845
0.657437
0.657029
0.65662
0.65621
0.655801
0.65539
0.65498
0.654569
0.654158
0.653746
0.653335
0.652923
0.65251
0.652097
0.651684
0.65127
0.650856
0.650442
0.650027
0.649611
0.649195
0.648779
0.648362
0.647944
0.647526
0.647107
0.646687
0.646267
0.645845
0.645424
0.645001
0.644578
0.644154
0.643729
0.643303
0.642877
0.642449
0.642021
0.641592
0.641163
0.640732
0.640301
0.639869
0.639436
0.639002
0.638567
0.638131
0.637695
0.637257
0.636819
0.63638
0.63594
0.6355
0.635058
0.634616
0.634173
0.633729
0.633284
0.632839
0.632392
0.631945
0.631497
0.631049
0.630599
0.630149
0.629698
0.629246
0.628794
0.628341
0.627887
0.627432
0.626977
0.626521
0.626064
0.625606
0.625148
0.624688
0.624228
0.623767
0.623305
0.622842
0.622378
0.621913
0.621447
0.620979
0.62051
0.620039
0.619567
0.619093
0.618618
0.61814
0.617661
0.61718
0.616696
0.616211
0.615723
0.615233
0.614741
0.614246
0.613749
0.61325
0.612749
0.612246
0.611741
0.611234
0.610725
0.610215
0.609704
0.609191
0.608677
0.608163
0.607648
0.607133
0.606618
0.606104
0.60559
0.605077
0.604565
0.604054
0.603546
0.603038
0.602534
0.602031
0.601531
0.601034
0.600539
0.600047
0.599558
0.599072
0.598588
0.598108
0.59763
0.597154
0.596681
0.596211
0.595742
0.595275
0.594809
0.594345
0.593881
0.593418
0.592955
0.592493
0.59203
0.591566
0.591102
0.590637
0.590171
0.589703
0.589234
0.588763
0.58829
0.587815
0.587339
0.58686
0.58638
0.585897
0.585413
0.584926
0.584438
0.583947
0.583455
0.58296
0.582465
0.581967
0.581469
0.580967
0.580466
0.579961
0.579459
0.57895
0.578446
0.577935
0.577428
0.576915
0.576406
0.57589
0.57538
0.574862
0.574351
0.573831
0.573317
0.572795
0.57228
0.571756
0.571239
0.570713
0.570194
0.569666
0.569145
0.568615
0.568092
0.567561
0.567035
0.566502
0.565974
0.565438
0.564908
0.564371
0.563837
0.563298
0.562761
0.562221
0.561681
0.561138
0.560596
0.560051
0.559506
0.558958
0.55841
0.55786
0.557309
0.556757
0.556203
0.555648
0.555091
0.554533
0.553974
0.553413
0.552851
0.552288
0.551723
0.551156
0.550589
0.550019
0.549449
0.548876
0.548303
0.547728
0.547151
0.546573
0.545994
0.545413
0.544831
0.544247
0.543661
0.543075
0.542486
0.541897
0.541305
0.540713
0.540118
0.539523
0.538925
0.538326
0.537726
0.537124
0.53652
0.535915
0.535309
0.5347
0.53409
0.533478
0.532865
0.532249
0.531632
0.531013
0.530392
0.52977
0.529145
0.528518
0.527889
0.527258
0.526624
0.525988
0.52535
0.52471
0.524067
0.523422
0.522774
0.522123
0.52147
0.520814
0.520156
0.519495
0.518831
0.518165
0.517496
0.516824
0.51615
0.515473
0.514794
0.514112
0.513428
0.512741
0.512053
0.511361
0.51067
0.509974
0.509278
0.508579
0.50788
0.507178
0.506476
0.505771
0.505068
0.504361
0.503655
0.502947
0.50224
0.501531
0.500823
0.500114
0.499406
0.498696
0.497987
0.497277
0.496569
0.495859
0.495151
0.494441
0.493733
0.493023
0.492315
0.491605
0.490896
0.490186
0.489477
0.488766
0.488055
0.487343
0.486632
0.485918
0.485205
0.48449
0.483776
0.483059
0.482343
0.481624
0.480907
0.480187
0.47947
0.47875
0.478032
0.477313
0.476597
0.47588
0.475169
0.474456
0.473751
0.473046
0.47235
0.471657
0.470974
0.470297
0.469633
0.468975
0.468336
0.467704
0.467097
0.466495
0.465928
0.465361
0.46484
0.464315
0.463843
0.463369
0.462949
0.462529
0.462163
0.461798
0.461489
0.461179
0.460925
0.460668
0.460466
0.460257
0.460101
0.459936
0.459822
0.459693
0.459613
0.459514
0.459462
0.459388
0.459357
0.459302
0.459287
0.459249
0.459243
0.459214
0.459215
0.0136565
)
;

boundaryField
{
    inlet
    {
        type            calculated;
        value           uniform 0.805169;
    }
    outlet
    {
        type            calculated;
        value           uniform 0.519081;
    }
    emptyWalls
    {
        type            empty;
    }
}


// ************************************************************************* //
