/*--------------------------------*- C++ -*----------------------------------*\
  =========                 |
  \\      /  F ield         | OpenFOAM: The Open Source CFD Toolbox
   \\    /   O peration     | Website:  https://openfoam.org
    \\  /    A nd           | Version:  9
     \\/     M anipulation  |
\*---------------------------------------------------------------------------*/
FoamFile
{
    format      ascii;
    class       volScalarField;
    location    "4200";
    object      krc;
}
// * * * * * * * * * * * * * * * * * * * * * * * * * * * * * * * * * * * * * //

dimensions      [0 0 0 0 0 0 0];

internalField   nonuniform List<scalar> 
1000
(
4.60989e-06
4.5777e-05
0.000120156
0.000296708
0.00110311
0.0106903
0.0382779
0.046655
0.050038
0.0520682
0.0535096
0.0546381
0.0556546
0.0568526
0.058659
0.061064
0.0640045
0.0672865
0.0707391
0.07427
0.0778296
0.0813907
0.0849377
0.0884614
0.091956
0.0954183
0.0988466
0.10224
0.105598
0.10892
0.112206
0.115458
0.118675
0.121859
0.125009
0.128126
0.131213
0.134268
0.137293
0.140289
0.143257
0.146196
0.149109
0.151996
0.154857
0.157694
0.160506
0.163296
0.166062
0.168807
0.171531
0.174233
0.176916
0.179579
0.182224
0.18485
0.187458
0.190049
0.192622
0.19518
0.197722
0.200249
0.20276
0.205258
0.207741
0.210211
0.212668
0.215112
0.217544
0.219964
0.222373
0.22477
0.227157
0.229533
0.2319
0.234256
0.236604
0.238943
0.241273
0.243595
0.245909
0.248215
0.250515
0.252807
0.255093
0.257372
0.259645
0.261912
0.264173
0.26643
0.268681
0.270928
0.27317
0.275408
0.277643
0.279874
0.282103
0.284329
0.286552
0.288774
0.290995
0.293214
0.295434
0.297653
0.299872
0.302092
0.304314
0.306537
0.308762
0.310989
0.313219
0.315452
0.317687
0.319927
0.32217
0.324417
0.326668
0.328923
0.331183
0.333448
0.335719
0.337995
0.340278
0.342568
0.344864
0.347169
0.349483
0.351806
0.354139
0.356482
0.358837
0.361204
0.363585
0.365978
0.368387
0.37081
0.37325
0.375707
0.378181
0.380673
0.383185
0.385717
0.388271
0.390846
0.393444
0.396065
0.398708
0.401374
0.404062
0.406769
0.409494
0.41223
0.414971
0.417708
0.420427
0.423112
0.425749
0.428326
0.430837
0.433302
0.43578
0.438408
0.44146
0.445429
0.45115
0.459905
0.473383
0.49317
0.519492
0.54979
0.579032
0.602571
0.618738
0.628601
0.634166
0.637163
0.638736
0.639549
0.639966
0.64018
0.640289
0.640345
0.640373
0.640388
0.640396
0.640401
0.640404
0.640406
0.640408
0.640409
0.64041
0.640411
0.640412
0.640414
0.640415
0.640416
0.640417
0.640418
0.640419
0.64042
0.640421
0.640421
0.640422
0.640423
0.640424
0.640425
0.640425
0.640426
0.640426
0.640427
0.640427
0.640427
0.640427
0.640428
0.640428
0.640428
0.640428
0.640428
0.640428
0.640428
0.640427
0.640427
0.640427
0.640426
0.640426
0.640425
0.640425
0.640424
0.640424
0.640423
0.640423
0.640422
0.640421
0.640421
0.64042
0.64042
0.640419
0.640419
0.640418
0.640418
0.640418
0.640417
0.640417
0.640417
0.640416
0.640416
0.640416
0.640416
0.640416
0.640416
0.640415
0.640415
0.640415
0.640415
0.640414
0.640414
0.640413
0.640413
0.640412
0.640411
0.64041
0.640409
0.640408
0.640407
0.640405
0.640403
0.640402
0.6404
0.640398
0.640395
0.640393
0.640391
0.640388
0.640385
0.640382
0.640379
0.640376
0.640372
0.640368
0.640364
0.64036
0.640355
0.640349
0.640344
0.640338
0.640331
0.640324
0.640317
0.640309
0.640301
0.640293
0.640284
0.640275
0.640266
0.640256
0.640247
0.640238
0.640228
0.640219
0.640211
0.640203
0.640196
0.640189
0.640184
0.640179
0.640176
0.640174
0.640174
0.640174
0.640174
0.640176
0.640181
0.640187
0.640196
0.640205
0.640216
0.640228
0.640241
0.640255
0.640269
0.640283
0.640297
0.640311
0.640324
0.640337
0.640349
0.64036
0.64037
0.640379
0.640387
0.640394
0.640399
0.640404
0.640407
0.64041
0.640411
0.640412
0.640413
0.640413
0.640413
0.640412
0.64041
0.640408
0.640406
0.640404
0.640402
0.6404
0.640398
0.640397
0.640395
0.640394
0.640392
0.640391
0.64039
0.64039
0.640389
0.640389
0.640389
0.640389
0.640389
0.640389
0.640389
0.64039
0.64039
0.640391
0.640391
0.640392
0.640393
0.640393
0.640394
0.640395
0.640395
0.640396
0.640396
0.640397
0.640397
0.640398
0.640399
0.640399
0.6404
0.6404
0.6404
0.640401
0.640401
0.640401
0.640402
0.640402
0.640402
0.640402
0.640403
0.640403
0.640403
0.640403
0.640404
0.640404
0.640404
0.640404
0.640405
0.640405
0.640405
0.640406
0.640406
0.640407
0.640407
0.640408
0.640408
0.640409
0.64041
0.64041
0.640411
0.640412
0.640413
0.640414
0.640415
0.640416
0.640417
0.640418
0.640419
0.64042
0.640421
0.640423
0.640424
0.640425
0.640426
0.640427
0.640428
0.640429
0.64043
0.640431
0.640432
0.640433
0.640433
0.640434
0.640434
0.640435
0.640435
0.640435
0.640436
0.640436
0.640436
0.640436
0.640436
0.640436
0.640436
0.640436
0.640435
0.640435
0.640435
0.640434
0.640434
0.640434
0.640433
0.640433
0.640432
0.640431
0.64043
0.640429
0.640428
0.640427
0.640427
0.640426
0.640425
0.640424
0.640423
0.640421
0.64042
0.640419
0.640418
0.640417
0.640416
0.640415
0.640414
0.640413
0.640412
0.640411
0.640409
0.640408
0.640407
0.640406
0.640405
0.640403
0.640402
0.6404
0.640399
0.640397
0.640395
0.640393
0.640391
0.640388
0.640386
0.640383
0.640379
0.640375
0.640371
0.640367
0.640362
0.640357
0.640351
0.640345
0.640338
0.640332
0.640324
0.640317
0.640309
0.6403
0.640292
0.640283
0.640274
0.640265
0.640256
0.640247
0.640238
0.64023
0.640221
0.640213
0.640206
0.640199
0.640193
0.640187
0.640183
0.640179
0.640177
0.640176
0.640175
0.640175
0.640175
0.640177
0.640182
0.640188
0.640195
0.640204
0.640213
0.640224
0.640235
0.640247
0.640259
0.640271
0.640284
0.640296
0.640309
0.640321
0.640332
0.640343
0.640353
0.640363
0.640372
0.640379
0.640386
0.640392
0.640397
0.640402
0.640405
0.640408
0.640411
0.640412
0.640413
0.640414
0.640414
0.640414
0.640414
0.640414
0.640413
0.640412
0.64041
0.640409
0.640408
0.640407
0.640406
0.640405
0.640404
0.640403
0.640402
0.640401
0.640401
0.640401
0.640401
0.640401
0.6404
0.6404
0.640401
0.640401
0.640401
0.640402
0.640403
0.640404
0.640404
0.640405
0.640406
0.640407
0.640408
0.640409
0.64041
0.640411
0.640413
0.640414
0.640415
0.640416
0.640417
0.640418
0.640419
0.64042
0.640421
0.640422
0.640423
0.640424
0.640425
0.640426
0.640427
0.640428
0.640429
0.640429
0.64043
0.64043
0.640431
0.640431
0.640432
0.640432
0.640433
0.640433
0.640433
0.640433
0.640433
0.640433
0.640433
0.640433
0.640433
0.640433
0.640432
0.640432
0.640431
0.640431
0.64043
0.640429
0.640429
0.640428
0.640427
0.640427
0.640426
0.640425
0.640424
0.640423
0.640422
0.640422
0.640421
0.64042
0.64042
0.640419
0.640419
0.640418
0.640418
0.640417
0.640417
0.640417
0.640417
0.640417
0.640416
0.640416
0.640416
0.640417
0.640417
0.640417
0.640417
0.640418
0.640418
0.640419
0.640419
0.64042
0.64042
0.640421
0.640421
0.640422
0.640422
0.640422
0.640423
0.640423
0.640423
0.640423
0.640423
0.640423
0.640424
0.640424
0.640424
0.640423
0.640423
0.640423
0.640422
0.64042
0.64042
0.640421
0.640426
0.640494
0.640792
0.645921
0.657952
0.66014
0.660157
0.660156
0.660156
0.660156
0.660156
0.660156
0.660156
0.660156
0.660156
0.660156
0.660156
0.660156
0.660156
0.660156
0.660156
0.660156
0.660156
0.660156
0.660156
0.660156
0.660156
0.660156
0.660156
0.660156
0.660156
0.660156
0.660156
0.660156
0.660156
0.660156
0.660156
0.660156
0.660156
0.660156
0.660156
0.660156
0.660156
0.660156
0.660156
0.660156
0.660156
0.660156
0.660156
0.660156
0.660156
0.660156
0.660156
0.660156
0.660156
0.660156
0.660156
0.660156
0.660156
0.660156
0.660156
0.660156
0.660156
0.660156
0.660156
0.660156
0.660156
0.660156
0.660156
0.660156
0.660156
0.660156
0.660156
0.660156
0.660156
0.660156
0.660156
0.660156
0.660156
0.660156
0.660156
0.660156
0.660156
0.660156
0.660156
0.660156
0.660156
0.660156
0.660156
0.660156
0.660156
0.660156
0.660156
0.660156
0.660156
0.660156
0.660156
0.660156
0.660156
0.660156
0.660156
0.660156
0.660156
0.660156
0.660156
0.660156
0.660156
0.660156
0.660156
0.660156
0.660156
0.660156
0.660156
0.660156
0.660156
0.660156
0.660156
0.660156
0.660156
0.660156
0.660156
0.660156
0.660156
0.660156
0.660156
0.660156
0.660156
0.660156
0.660156
0.660156
0.660156
0.660156
0.660156
0.660156
0.660156
0.660156
0.660156
0.660156
0.660156
0.660156
0.660156
0.660156
0.660156
0.660156
0.660156
0.660156
0.660156
0.660156
0.660156
0.660156
0.660156
0.660156
0.660156
0.660156
0.660156
0.660156
0.660156
0.660156
0.660156
0.660156
0.660156
0.660156
0.660156
0.660156
0.660156
0.660156
0.660156
0.660156
0.660156
0.660156
0.660156
0.660156
0.660156
0.660156
0.660156
0.660156
0.660156
0.660156
0.660156
0.660156
0.660156
0.660156
0.660156
0.660156
0.660156
0.660156
0.660156
0.660156
0.660156
0.660156
0.660156
0.660156
0.660156
0.660156
0.660156
0.660156
0.660156
0.660156
0.660156
0.660156
0.660156
0.660156
0.660156
0.660156
0.660156
0.660156
0.660156
0.660156
0.660156
0.660156
0.660156
0.660156
0.660156
0.660156
0.660156
0.660156
0.660156
0.660156
0.660156
0.660156
0.660156
0.660156
0.660156
0.660156
0.660156
0.660156
0.660156
0.660156
0.660156
0.660156
0.660156
0.660156
0.660156
0.660156
0.660156
0.660156
0.660156
0.660156
0.660156
0.660156
0.660156
0.660156
0.660156
0.660156
0.660156
0.660156
0.660156
0.660156
0.660156
0.660156
0.660156
0.660156
0.660156
0.660156
0.660156
0.660156
0.660156
0.660156
0.660156
0.660156
0.660156
0.660156
0.660156
0.660156
0.660156
0.660156
0.660156
0.660156
0.660156
0.660156
0.660156
0.660156
0.660156
0.660156
0.660156
0.660156
0.660156
0.660156
0.660156
0.660156
0.660156
0.660156
0.660156
0.660156
0.660156
0.660156
0.660156
0.660156
0.660156
0.660156
0.660156
0.660156
0.660156
0.660156
0.660156
0.660156
0.660156
0.660156
0.660156
0.660156
0.660156
0.660156
0.660156
0.660156
0.660156
0.660156
0.660156
0.660156
0.660156
0.660156
0.660156
)
;

boundaryField
{
    inlet
    {
        type            calculated;
        value           uniform 3.08149e-33;
    }
    outlet
    {
        type            calculated;
        value           uniform 0.660156;
    }
    emptyWalls
    {
        type            empty;
    }
}


// ************************************************************************* //
