/*--------------------------------*- C++ -*----------------------------------*\
  =========                 |
  \\      /  F ield         | OpenFOAM: The Open Source CFD Toolbox
   \\    /   O peration     | Website:  https://openfoam.org
    \\  /    A nd           | Version:  9
     \\/     M anipulation  |
\*---------------------------------------------------------------------------*/
FoamFile
{
    format      ascii;
    class       surfaceScalarField;
    location    "4200";
    object      phic;
}
// * * * * * * * * * * * * * * * * * * * * * * * * * * * * * * * * * * * * * //

dimensions      [0 2 0 0 0 0 0];

internalField   nonuniform List<scalar> 
999
(
5.21128e-14
1.82426e-13
4.42436e-13
1.27566e-12
4.15427e-12
1.71715e-11
2.09419e-11
2.22538e-11
2.30259e-11
2.36056e-11
2.40864e-11
2.45269e-11
2.50105e-11
2.57455e-11
2.68862e-11
2.84255e-11
3.02889e-11
3.23535e-11
3.45448e-11
3.68222e-11
3.91626e-11
4.15522e-11
4.39823e-11
4.64467e-11
4.89411e-11
5.14627e-11
5.4009e-11
5.65782e-11
5.91685e-11
6.17787e-11
6.44079e-11
6.70551e-11
6.97195e-11
7.24003e-11
7.50968e-11
7.78086e-11
8.05353e-11
8.32765e-11
8.60316e-11
8.88004e-11
9.15827e-11
9.43783e-11
9.71871e-11
1.00009e-10
1.02843e-10
1.0569e-10
1.08549e-10
1.11421e-10
1.14306e-10
1.17202e-10
1.2011e-10
1.23031e-10
1.25963e-10
1.28907e-10
1.31863e-10
1.34831e-10
1.3781e-10
1.408e-10
1.43803e-10
1.46817e-10
1.49843e-10
1.5288e-10
1.55929e-10
1.5899e-10
1.62063e-10
1.65148e-10
1.68246e-10
1.71355e-10
1.74477e-10
1.77611e-10
1.80758e-10
1.83917e-10
1.87088e-10
1.90273e-10
1.9347e-10
1.96681e-10
1.99906e-10
2.03144e-10
2.06397e-10
2.09664e-10
2.12945e-10
2.1624e-10
2.19549e-10
2.2287e-10
2.26204e-10
2.29551e-10
2.32909e-10
2.36278e-10
2.3966e-10
2.43053e-10
2.46458e-10
2.49876e-10
2.53307e-10
2.56753e-10
2.60215e-10
2.63693e-10
2.6719e-10
2.70706e-10
2.74244e-10
2.77804e-10
2.8139e-10
2.85003e-10
2.88645e-10
2.92317e-10
2.96023e-10
2.99762e-10
3.03538e-10
3.07349e-10
3.11197e-10
3.15082e-10
3.19001e-10
3.22955e-10
3.26942e-10
3.30959e-10
3.35004e-10
3.39077e-10
3.43173e-10
3.47294e-10
3.51436e-10
3.55601e-10
3.59788e-10
3.63998e-10
3.68231e-10
3.7249e-10
3.76776e-10
3.8109e-10
3.85436e-10
3.89815e-10
3.9423e-10
3.98684e-10
4.03177e-10
4.07714e-10
4.12296e-10
4.16925e-10
4.21604e-10
4.26334e-10
4.31117e-10
4.35955e-10
4.40849e-10
4.45801e-10
4.50814e-10
4.55888e-10
4.61027e-10
4.6623e-10
4.71498e-10
4.76831e-10
4.8223e-10
4.87693e-10
4.93217e-10
4.98797e-10
5.04423e-10
5.10085e-10
5.15763e-10
5.21434e-10
5.27066e-10
5.32628e-10
5.38088e-10
5.43429e-10
5.48663e-10
5.53871e-10
5.59262e-10
5.65267e-10
5.72701e-10
5.82977e-10
5.98358e-10
6.22033e-10
6.57502e-10
7.06542e-10
7.66077e-10
8.27128e-10
8.79205e-10
9.16693e-10
9.40325e-10
9.5394e-10
9.61366e-10
9.65295e-10
9.6734e-10
9.68398e-10
9.68945e-10
9.69231e-10
9.69383e-10
9.69468e-10
9.69517e-10
9.6955e-10
9.69573e-10
9.69592e-10
9.69609e-10
9.69625e-10
9.69641e-10
9.69656e-10
9.6967e-10
9.69685e-10
9.69699e-10
9.69714e-10
9.69728e-10
9.69742e-10
9.69755e-10
9.69768e-10
9.6978e-10
9.69792e-10
9.69804e-10
9.69815e-10
9.69826e-10
9.69835e-10
9.69844e-10
9.69853e-10
9.6986e-10
9.69867e-10
9.69873e-10
9.69878e-10
9.69882e-10
9.69885e-10
9.69887e-10
9.69889e-10
9.69889e-10
9.6989e-10
9.6989e-10
9.69889e-10
9.69887e-10
9.69884e-10
9.69881e-10
9.69876e-10
9.69871e-10
9.69866e-10
9.6986e-10
9.69854e-10
9.69848e-10
9.69841e-10
9.69834e-10
9.69827e-10
9.69819e-10
9.69812e-10
9.69804e-10
9.69797e-10
9.6979e-10
9.69783e-10
9.69777e-10
9.69771e-10
9.69765e-10
9.69759e-10
9.69754e-10
9.6975e-10
9.69745e-10
9.69741e-10
9.69738e-10
9.69734e-10
9.69731e-10
9.69728e-10
9.69724e-10
9.6972e-10
9.69715e-10
9.6971e-10
9.69704e-10
9.69697e-10
9.69688e-10
9.69678e-10
9.69667e-10
9.69654e-10
9.69639e-10
9.69622e-10
9.69603e-10
9.69582e-10
9.6956e-10
9.69535e-10
9.69508e-10
9.6948e-10
9.69449e-10
9.69417e-10
9.69383e-10
9.69347e-10
9.6931e-10
9.69271e-10
9.69229e-10
9.69186e-10
9.6914e-10
9.69092e-10
9.6904e-10
9.68985e-10
9.68927e-10
9.68865e-10
9.68798e-10
9.68727e-10
9.6865e-10
9.68569e-10
9.68482e-10
9.6839e-10
9.68292e-10
9.68189e-10
9.68081e-10
9.67968e-10
9.67851e-10
9.6773e-10
9.67606e-10
9.6748e-10
9.67354e-10
9.67227e-10
9.67103e-10
9.66981e-10
9.66864e-10
9.66753e-10
9.66651e-10
9.66559e-10
9.66478e-10
9.66411e-10
9.66359e-10
9.66325e-10
9.66308e-10
9.66304e-10
9.66304e-10
9.66312e-10
9.66358e-10
9.66436e-10
9.66535e-10
9.66652e-10
9.66787e-10
9.66937e-10
9.671e-10
9.67272e-10
9.67452e-10
9.67636e-10
9.67822e-10
9.68005e-10
9.68184e-10
9.68356e-10
9.68518e-10
9.6867e-10
9.68808e-10
9.68934e-10
9.69044e-10
9.69141e-10
9.69222e-10
9.69289e-10
9.69343e-10
9.69384e-10
9.69414e-10
9.69433e-10
9.69442e-10
9.69445e-10
9.69445e-10
9.69443e-10
9.69428e-10
9.69407e-10
9.69383e-10
9.69359e-10
9.69334e-10
9.69309e-10
9.69285e-10
9.69263e-10
9.69243e-10
9.69225e-10
9.69209e-10
9.69195e-10
9.69184e-10
9.69176e-10
9.6917e-10
9.69166e-10
9.69164e-10
9.69163e-10
9.69163e-10
9.69164e-10
9.69168e-10
9.69174e-10
9.69181e-10
9.69189e-10
9.69197e-10
9.69205e-10
9.69214e-10
9.69223e-10
9.69232e-10
9.69241e-10
9.69249e-10
9.69258e-10
9.69266e-10
9.69273e-10
9.69281e-10
9.69288e-10
9.69295e-10
9.69301e-10
9.69307e-10
9.69313e-10
9.69318e-10
9.69322e-10
9.69327e-10
9.69331e-10
9.69335e-10
9.69339e-10
9.69342e-10
9.69345e-10
9.69348e-10
9.69351e-10
9.69354e-10
9.69357e-10
9.6936e-10
9.69363e-10
9.69366e-10
9.69369e-10
9.69372e-10
9.69376e-10
9.6938e-10
9.69385e-10
9.69389e-10
9.69395e-10
9.694e-10
9.69407e-10
9.69413e-10
9.69421e-10
9.69429e-10
9.69437e-10
9.69446e-10
9.69456e-10
9.69466e-10
9.69477e-10
9.69489e-10
9.69501e-10
9.69513e-10
9.69526e-10
9.6954e-10
9.69554e-10
9.69568e-10
9.69582e-10
9.69597e-10
9.69611e-10
9.69626e-10
9.69641e-10
9.69656e-10
9.6967e-10
9.69684e-10
9.69698e-10
9.69712e-10
9.69725e-10
9.69737e-10
9.69748e-10
9.69759e-10
9.69769e-10
9.69779e-10
9.69787e-10
9.69795e-10
9.69802e-10
9.69807e-10
9.69812e-10
9.69815e-10
9.69818e-10
9.69819e-10
9.69819e-10
9.69819e-10
9.69818e-10
9.69817e-10
9.69812e-10
9.69807e-10
9.69801e-10
9.69794e-10
9.69786e-10
9.69777e-10
9.69766e-10
9.69755e-10
9.69743e-10
9.69731e-10
9.69718e-10
9.69705e-10
9.69691e-10
9.69677e-10
9.69662e-10
9.69647e-10
9.69632e-10
9.69617e-10
9.69601e-10
9.69586e-10
9.69571e-10
9.69555e-10
9.6954e-10
9.69525e-10
9.6951e-10
9.69495e-10
9.6948e-10
9.69464e-10
9.69449e-10
9.69433e-10
9.69417e-10
9.69401e-10
9.69384e-10
9.69366e-10
9.69346e-10
9.69326e-10
9.69303e-10
9.69279e-10
9.69253e-10
9.69224e-10
9.69192e-10
9.69156e-10
9.69117e-10
9.69075e-10
9.69028e-10
9.68976e-10
9.68919e-10
9.68858e-10
9.68791e-10
9.68719e-10
9.68642e-10
9.68559e-10
9.68472e-10
9.68379e-10
9.68281e-10
9.68178e-10
9.68071e-10
9.6796e-10
9.67847e-10
9.67731e-10
9.67613e-10
9.67494e-10
9.67376e-10
9.67258e-10
9.67143e-10
9.67031e-10
9.66923e-10
9.66821e-10
9.66726e-10
9.6664e-10
9.66563e-10
9.66498e-10
9.66444e-10
9.66405e-10
9.6638e-10
9.66369e-10
9.66367e-10
9.66368e-10
9.66378e-10
9.66427e-10
9.66498e-10
9.66585e-10
9.66687e-10
9.66804e-10
9.66934e-10
9.67074e-10
9.67224e-10
9.67381e-10
9.67543e-10
9.67708e-10
9.67873e-10
9.68036e-10
9.68195e-10
9.68349e-10
9.68496e-10
9.68635e-10
9.68763e-10
9.68882e-10
9.68989e-10
9.69085e-10
9.6917e-10
9.69244e-10
9.69307e-10
9.69359e-10
9.69402e-10
9.69436e-10
9.69461e-10
9.69479e-10
9.6949e-10
9.69495e-10
9.69497e-10
9.69497e-10
9.69496e-10
9.69485e-10
9.69471e-10
9.69456e-10
9.69441e-10
9.69425e-10
9.69409e-10
9.69394e-10
9.6938e-10
9.69367e-10
9.69356e-10
9.69346e-10
9.69337e-10
9.69331e-10
9.69326e-10
9.69323e-10
9.69321e-10
9.69321e-10
9.6932e-10
9.69321e-10
9.69325e-10
9.69331e-10
9.69338e-10
9.69347e-10
9.69356e-10
9.69367e-10
9.69378e-10
9.6939e-10
9.69402e-10
9.69415e-10
9.69428e-10
9.69442e-10
9.69456e-10
9.69471e-10
9.69485e-10
9.69499e-10
9.69514e-10
9.69528e-10
9.69542e-10
9.69556e-10
9.6957e-10
9.69584e-10
9.69597e-10
9.6961e-10
9.69623e-10
9.69635e-10
9.69647e-10
9.69658e-10
9.69669e-10
9.69679e-10
9.69689e-10
9.69698e-10
9.69706e-10
9.69713e-10
9.6972e-10
9.69726e-10
9.69731e-10
9.69736e-10
9.69739e-10
9.69742e-10
9.69744e-10
9.69745e-10
9.69745e-10
9.69745e-10
9.69745e-10
9.69743e-10
9.6974e-10
9.69736e-10
9.69731e-10
9.69725e-10
9.69719e-10
9.69712e-10
9.69705e-10
9.69697e-10
9.69688e-10
9.6968e-10
9.69671e-10
9.69662e-10
9.69652e-10
9.69643e-10
9.69633e-10
9.69624e-10
9.69615e-10
9.69607e-10
9.69598e-10
9.6959e-10
9.69583e-10
9.69576e-10
9.6957e-10
9.69564e-10
9.69559e-10
9.69555e-10
9.69552e-10
9.6955e-10
9.69548e-10
9.69547e-10
9.69547e-10
9.69547e-10
9.69547e-10
9.69549e-10
9.69552e-10
9.69556e-10
9.6956e-10
9.69565e-10
9.6957e-10
9.69575e-10
9.69581e-10
9.69587e-10
9.69593e-10
9.69598e-10
9.69604e-10
9.6961e-10
9.69615e-10
9.69619e-10
9.69623e-10
9.69626e-10
9.69628e-10
9.6963e-10
9.6963e-10
9.6963e-10
9.6963e-10
9.69629e-10
9.69627e-10
9.69622e-10
9.69616e-10
9.6961e-10
9.69598e-10
9.69585e-10
9.6958e-10
9.69624e-10
9.69795e-10
9.72323e-10
9.82235e-10
1.07272e-09
1.11346e-09
1.11438e-09
1.11437e-09
1.11437e-09
1.11437e-09
1.11437e-09
1.11437e-09
1.11437e-09
1.11437e-09
1.11437e-09
1.11437e-09
1.11437e-09
1.11437e-09
1.11437e-09
1.11437e-09
1.11437e-09
1.11437e-09
1.11437e-09
1.11437e-09
1.11437e-09
1.11437e-09
1.11437e-09
1.11437e-09
1.11437e-09
1.11437e-09
1.11437e-09
1.11437e-09
1.11437e-09
1.11437e-09
1.11437e-09
1.11437e-09
1.11437e-09
1.11437e-09
1.11437e-09
1.11437e-09
1.11437e-09
1.11437e-09
1.11437e-09
1.11437e-09
1.11437e-09
1.11437e-09
1.11437e-09
1.11437e-09
1.11437e-09
1.11437e-09
1.11437e-09
1.11437e-09
1.11437e-09
1.11437e-09
1.11437e-09
1.11437e-09
1.11437e-09
1.11437e-09
1.11437e-09
1.11437e-09
1.11437e-09
1.11437e-09
1.11437e-09
1.11437e-09
1.11437e-09
1.11437e-09
1.11437e-09
1.11437e-09
1.11437e-09
1.11437e-09
1.11437e-09
1.11437e-09
1.11437e-09
1.11437e-09
1.11437e-09
1.11437e-09
1.11437e-09
1.11437e-09
1.11437e-09
1.11437e-09
1.11437e-09
1.11437e-09
1.11437e-09
1.11437e-09
1.11437e-09
1.11437e-09
1.11437e-09
1.11437e-09
1.11437e-09
1.11437e-09
1.11437e-09
1.11437e-09
1.11437e-09
1.11437e-09
1.11437e-09
1.11437e-09
1.11437e-09
1.11437e-09
1.11437e-09
1.11437e-09
1.11437e-09
1.11437e-09
1.11437e-09
1.11437e-09
1.11437e-09
1.11437e-09
1.11437e-09
1.11437e-09
1.11437e-09
1.11437e-09
1.11437e-09
1.11437e-09
1.11437e-09
1.11437e-09
1.11437e-09
1.11437e-09
1.11437e-09
1.11437e-09
1.11437e-09
1.11437e-09
1.11437e-09
1.11437e-09
1.11437e-09
1.11437e-09
1.11437e-09
1.11437e-09
1.11437e-09
1.11437e-09
1.11437e-09
1.11437e-09
1.11437e-09
1.11437e-09
1.11437e-09
1.11437e-09
1.11437e-09
1.11437e-09
1.11437e-09
1.11437e-09
1.11437e-09
1.11437e-09
1.11437e-09
1.11437e-09
1.11437e-09
1.11437e-09
1.11437e-09
1.11437e-09
1.11437e-09
1.11437e-09
1.11437e-09
1.11437e-09
1.11437e-09
1.11437e-09
1.11437e-09
1.11437e-09
1.11437e-09
1.11437e-09
1.11437e-09
1.11437e-09
1.11437e-09
1.11437e-09
1.11437e-09
1.11437e-09
1.11437e-09
1.11437e-09
1.11437e-09
1.11437e-09
1.11437e-09
1.11437e-09
1.11437e-09
1.11437e-09
1.11437e-09
1.11437e-09
1.11437e-09
1.11437e-09
1.11437e-09
1.11437e-09
1.11437e-09
1.11437e-09
1.11437e-09
1.11437e-09
1.11437e-09
1.11437e-09
1.11437e-09
1.11437e-09
1.11437e-09
1.11437e-09
1.11437e-09
1.11437e-09
1.11437e-09
1.11437e-09
1.11437e-09
1.11437e-09
1.11437e-09
1.11437e-09
1.11437e-09
1.11437e-09
1.11437e-09
1.11437e-09
1.11437e-09
1.11437e-09
1.11437e-09
1.11437e-09
1.11437e-09
1.11437e-09
1.11437e-09
1.11437e-09
1.11437e-09
1.11437e-09
1.11437e-09
1.11437e-09
1.11437e-09
1.11437e-09
1.11437e-09
1.11437e-09
1.11437e-09
1.11437e-09
1.11437e-09
1.11437e-09
1.11437e-09
1.11437e-09
1.11437e-09
1.11437e-09
1.11437e-09
1.11437e-09
1.11437e-09
1.11437e-09
1.11437e-09
1.11437e-09
1.11437e-09
1.11437e-09
1.11437e-09
1.11437e-09
1.11437e-09
1.11437e-09
1.11437e-09
1.11437e-09
1.11437e-09
1.11437e-09
1.11437e-09
1.11437e-09
1.11437e-09
1.11437e-09
1.11437e-09
1.11437e-09
1.11437e-09
1.11437e-09
1.11437e-09
1.11437e-09
1.11437e-09
1.11437e-09
1.11437e-09
1.11437e-09
1.11437e-09
1.11437e-09
1.11437e-09
1.11437e-09
1.11437e-09
1.11437e-09
1.11437e-09
1.11437e-09
1.11437e-09
1.11437e-09
1.11437e-09
1.11437e-09
1.11437e-09
1.11437e-09
1.11437e-09
1.11437e-09
1.11437e-09
1.11437e-09
1.11437e-09
1.11437e-09
1.11437e-09
1.11437e-09
1.11437e-09
1.11437e-09
1.11437e-09
1.11437e-09
1.11437e-09
1.11437e-09
1.11437e-09
1.11437e-09
1.11437e-09
1.11437e-09
1.11437e-09
1.11437e-09
1.11437e-09
1.11437e-09
1.11437e-09
1.11437e-09
1.11437e-09
1.11437e-09
1.11437e-09
1.11437e-09
1.11437e-09
1.11437e-09
1.11437e-09
1.11437e-09
1.11437e-09
1.11437e-09
1.11437e-09
1.11437e-09
1.11437e-09
1.11437e-09
1.11437e-09
1.11437e-09
1.11437e-09
1.11437e-09
1.11437e-09
1.11437e-09
1.11437e-09
)
;

boundaryField
{
    inlet
    {
        type            calculated;
        value           uniform 0;
    }
    outlet
    {
        type            calculated;
        value           uniform 1.11437e-09;
    }
    emptyWalls
    {
        type            empty;
        value           nonuniform List<scalar> 0();
    }
}


// ************************************************************************* //
