/*--------------------------------*- C++ -*----------------------------------*\
  =========                 |
  \\      /  F ield         | OpenFOAM: The Open Source CFD Toolbox
   \\    /   O peration     | Website:  https://openfoam.org
    \\  /    A nd           | Version:  9
     \\/     M anipulation  |
\*---------------------------------------------------------------------------*/
FoamFile
{
    format      ascii;
    class       volScalarField;
    location    "4200";
    object      Sa;
}
// * * * * * * * * * * * * * * * * * * * * * * * * * * * * * * * * * * * * * //

dimensions      [0 0 0 0 0 0 0];

internalField   nonuniform List<scalar> 
1000
(
0.546158
0.539415
0.532035
0.52183
0.493371
0.345271
0.107058
0.0592036
0.0443881
0.0372344
0.0330448
0.0303644
0.0283951
0.026638
0.0249576
0.0241359
0.0239213
0.0237271
0.0235284
0.0233307
0.0231368
0.0229479
0.0227647
0.0225873
0.0224156
0.0222495
0.0220888
0.0219332
0.0217822
0.0216359
0.0214937
0.0213558
0.0212215
0.0210911
0.020964
0.0208404
0.0207197
0.0206022
0.0204874
0.0203752
0.0202658
0.0201585
0.0200538
0.0199511
0.0198506
0.019752
0.0196554
0.0195607
0.0194678
0.0193766
0.0192872
0.0191994
0.0191133
0.0190289
0.018946
0.0188647
0.018785
0.0187068
0.0186301
0.0185548
0.0184809
0.0184084
0.0183371
0.0182671
0.0181983
0.0181306
0.018064
0.0179984
0.0179339
0.0178703
0.0178078
0.0177462
0.0176857
0.017626
0.0175672
0.0175092
0.0174518
0.017395
0.0173389
0.0172833
0.0172283
0.0171741
0.0171207
0.0170685
0.0170174
0.0169677
0.0169195
0.016873
0.016828
0.0167847
0.0167429
0.0167025
0.0166632
0.0166249
0.0165874
0.0165503
0.0165134
0.0164765
0.0164392
0.0164012
0.0163623
0.0163221
0.0162803
0.0162367
0.016191
0.0161431
0.0160928
0.0160403
0.0159854
0.0159287
0.0158702
0.0158106
0.0157502
0.0156896
0.0156292
0.0155698
0.0155115
0.0154549
0.0154003
0.0153476
0.0152972
0.015249
0.0152028
0.0151586
0.0151162
0.0150753
0.0150358
0.0149973
0.0149597
0.0149228
0.0148863
0.01485
0.014814
0.0147779
0.0147417
0.0147054
0.014669
0.0146323
0.0145954
0.0145583
0.014521
0.0144835
0.0144459
0.0144081
0.0143703
0.0143324
0.0142944
0.0142565
0.0142187
0.0141809
0.0141433
0.014106
0.0140691
0.0140327
0.0139969
0.013962
0.0139282
0.0138955
0.013864
0.0138334
0.0138031
0.0137713
0.0137352
0.0136892
0.013625
0.0135308
0.0133948
0.013214
0.0130071
0.0128152
0.0126749
0.012592
0.0125495
0.012529
0.0125189
0.0125137
0.0125108
0.012509
0.0125077
0.0125068
0.0125059
0.0125052
0.0125044
0.0125037
0.012503
0.0125022
0.0125015
0.0125008
0.0125001
0.0124994
0.0124986
0.0124979
0.0124972
0.0124965
0.0124958
0.0124952
0.0124945
0.0124939
0.0124932
0.0124926
0.0124921
0.0124915
0.012491
0.0124905
0.0124901
0.0124896
0.0124892
0.0124889
0.0124886
0.0124883
0.0124881
0.0124879
0.0124878
0.0124877
0.0124876
0.0124876
0.0124876
0.0124876
0.0124877
0.0124878
0.012488
0.0124882
0.0124884
0.0124886
0.0124889
0.0124892
0.0124895
0.0124898
0.0124902
0.0124905
0.0124909
0.0124912
0.0124916
0.0124919
0.0124923
0.0124926
0.012493
0.0124933
0.0124936
0.0124938
0.0124941
0.0124943
0.0124946
0.0124947
0.012495
0.0124951
0.0124953
0.0124955
0.0124957
0.0124958
0.0124961
0.0124963
0.0124966
0.012497
0.0124974
0.0124978
0.0124984
0.012499
0.0124998
0.0125005
0.0125015
0.0125025
0.0125036
0.0125047
0.0125061
0.0125074
0.0125089
0.0125104
0.0125121
0.0125138
0.0125157
0.0125176
0.0125196
0.0125217
0.0125239
0.0125262
0.0125287
0.0125313
0.0125341
0.0125371
0.0125403
0.0125436
0.0125473
0.0125511
0.0125552
0.0125596
0.0125643
0.0125691
0.0125743
0.0125797
0.0125853
0.0125911
0.0125971
0.0126031
0.0126093
0.0126155
0.0126216
0.0126276
0.0126334
0.0126389
0.0126441
0.0126488
0.012653
0.0126566
0.0126595
0.0126616
0.0126629
0.0126633
0.0126633
0.0126631
0.0126623
0.012659
0.0126548
0.0126495
0.0126434
0.0126365
0.012629
0.0126208
0.0126123
0.0126034
0.0125945
0.0125855
0.0125767
0.0125682
0.01256
0.0125524
0.0125453
0.0125389
0.0125332
0.0125281
0.0125238
0.0125202
0.0125172
0.0125149
0.0125132
0.012512
0.0125114
0.0125111
0.012511
0.0125111
0.0125114
0.0125123
0.0125134
0.0125146
0.0125158
0.012517
0.0125181
0.0125192
0.0125203
0.0125212
0.012522
0.0125227
0.0125233
0.0125238
0.0125241
0.0125243
0.0125245
0.0125245
0.0125245
0.0125245
0.0125244
0.0125241
0.0125238
0.0125234
0.0125231
0.0125226
0.0125222
0.0125218
0.0125214
0.0125209
0.0125205
0.0125201
0.0125197
0.0125193
0.0125189
0.0125186
0.0125182
0.0125179
0.0125176
0.0125173
0.0125171
0.0125168
0.0125166
0.0125164
0.0125162
0.012516
0.0125159
0.0125157
0.0125156
0.0125154
0.0125153
0.0125151
0.012515
0.0125149
0.0125147
0.0125146
0.0125144
0.0125142
0.012514
0.0125138
0.0125136
0.0125134
0.0125131
0.0125128
0.0125125
0.0125122
0.0125118
0.0125114
0.012511
0.0125105
0.0125101
0.0125095
0.012509
0.0125085
0.0125079
0.0125073
0.0125066
0.012506
0.0125053
0.0125046
0.0125039
0.0125032
0.0125025
0.0125018
0.012501
0.0125003
0.0124996
0.0124989
0.0124983
0.0124976
0.012497
0.0124963
0.0124958
0.0124952
0.0124947
0.0124943
0.0124938
0.0124935
0.0124931
0.0124929
0.0124926
0.0124925
0.0124924
0.0124923
0.0124923
0.0124923
0.0124923
0.0124925
0.0124927
0.012493
0.0124933
0.0124937
0.0124941
0.0124946
0.0124951
0.0124957
0.0124963
0.0124969
0.0124975
0.0124982
0.0124989
0.0124996
0.0125004
0.0125011
0.0125018
0.0125026
0.0125033
0.0125041
0.0125048
0.0125056
0.0125063
0.0125071
0.0125078
0.0125086
0.0125093
0.0125101
0.0125108
0.0125116
0.0125124
0.0125132
0.0125141
0.012515
0.012516
0.012517
0.0125181
0.0125194
0.0125207
0.0125222
0.0125238
0.0125256
0.0125276
0.0125298
0.0125322
0.0125348
0.0125377
0.0125408
0.0125442
0.0125478
0.0125517
0.0125559
0.0125602
0.0125649
0.0125697
0.0125748
0.0125801
0.0125856
0.0125911
0.0125968
0.0126025
0.0126083
0.012614
0.0126197
0.0126252
0.0126305
0.0126356
0.0126404
0.0126448
0.0126487
0.0126522
0.0126551
0.0126573
0.0126589
0.0126597
0.01266
0.0126599
0.0126597
0.0126585
0.0126555
0.0126517
0.0126471
0.0126418
0.0126359
0.0126293
0.0126222
0.0126148
0.0126071
0.0125991
0.0125911
0.0125832
0.0125753
0.0125677
0.0125604
0.0125535
0.012547
0.012541
0.0125355
0.0125305
0.0125261
0.0125223
0.012519
0.0125162
0.0125139
0.012512
0.0125106
0.0125095
0.0125088
0.0125084
0.0125083
0.0125083
0.0125083
0.0125085
0.0125092
0.0125099
0.0125106
0.0125114
0.0125122
0.0125129
0.0125136
0.0125143
0.0125149
0.0125154
0.0125158
0.0125162
0.0125165
0.0125167
0.0125168
0.0125168
0.0125168
0.0125168
0.0125167
0.0125165
0.0125162
0.0125158
0.0125153
0.0125149
0.0125143
0.0125138
0.0125132
0.0125126
0.0125119
0.0125112
0.0125106
0.0125099
0.0125092
0.0125085
0.0125078
0.0125071
0.0125064
0.0125057
0.012505
0.0125044
0.0125037
0.0125031
0.0125024
0.0125018
0.0125013
0.0125007
0.0125002
0.0124997
0.0124992
0.0124987
0.0124983
0.0124979
0.0124976
0.0124973
0.012497
0.0124968
0.0124966
0.0124964
0.0124963
0.0124963
0.0124962
0.0124962
0.0124962
0.0124963
0.0124964
0.0124966
0.0124968
0.012497
0.0124973
0.0124976
0.012498
0.0124983
0.0124987
0.0124991
0.0124996
0.0125
0.0125004
0.0125009
0.0125013
0.0125018
0.0125022
0.0125026
0.012503
0.0125034
0.0125038
0.0125041
0.0125045
0.0125047
0.012505
0.0125052
0.0125054
0.0125055
0.0125056
0.0125057
0.0125057
0.0125057
0.0125057
0.0125056
0.0125055
0.0125054
0.0125052
0.012505
0.0125047
0.0125045
0.0125042
0.0125039
0.0125037
0.0125034
0.0125031
0.0125028
0.0125026
0.0125023
0.0125021
0.012502
0.0125018
0.0125018
0.0125017
0.0125017
0.0125017
0.0125018
0.0125018
0.0125019
0.0125024
0.0125025
0.0125029
0.0125037
0.0125041
0.0125026
0.0124983
0.012409
0.0121399
0.00904823
0.00154774
2.15904e-05
1.60108e-09
2.04998e-18
1.85288e-37
5.70215e-78
1.18707e-164
0
0
0
0
0
0
0
0
0
0
0
0
0
0
0
0
0
0
0
0
0
0
0
0
0
0
0
0
0
0
0
0
0
0
0
0
0
0
0
0
0
0
0
0
0
0
0
0
0
0
0
0
0
0
0
0
0
0
0
0
0
0
0
0
0
0
0
0
0
0
0
0
0
0
0
0
0
0
0
0
0
0
0
0
0
0
0
0
0
0
0
0
0
0
0
0
0
0
0
0
0
0
0
0
0
0
0
0
0
0
0
0
0
0
0
0
0
0
0
0
0
0
0
0
0
0
0
0
0
0
0
0
0
0
0
0
0
0
0
0
0
0
0
0
0
0
0
0
0
0
0
0
0
0
0
0
0
0
0
0
0
0
0
0
0
0
0
0
0
0
0
0
0
0
0
0
0
0
0
0
0
0
0
0
0
0
0
0
0
0
0
0
0
0
0
0
0
0
0
0
0
0
0
0
0
0
0
0
0
0
0
0
0
0
0
0
0
0
0
0
0
0
0
0
0
0
0
0
0
0
0
0
0
0
0
0
0
0
0
0
0
0
0
0
0
0
0
0
0
0
0
0
0
0
0
0
0
0
0
0
0
0
0
0
0
0
0
0
0
0
0
0
0
0
0
0
0
0
0
0
0
0
0
0
0
0
0
0
0
0
0
0
0
0
0
0
0
0
0
0
)
;

boundaryField
{
    inlet
    {
        type            fixedValue;
        value           uniform 0.55;
    }
    outlet
    {
        type            zeroGradient;
    }
    emptyWalls
    {
        type            empty;
    }
}


// ************************************************************************* //
