/*--------------------------------*- C++ -*----------------------------------*\
  =========                 |
  \\      /  F ield         | OpenFOAM: The Open Source CFD Toolbox
   \\    /   O peration     | Website:  https://openfoam.org
    \\  /    A nd           | Version:  9
     \\/     M anipulation  |
\*---------------------------------------------------------------------------*/
FoamFile
{
    format      ascii;
    class       volScalarField;
    location    "15750";
    object      Sa;
}
// * * * * * * * * * * * * * * * * * * * * * * * * * * * * * * * * * * * * * //

dimensions      [0 0 0 0 0 0 0];

internalField   nonuniform List<scalar> 
1000
(
0.549306
0.547836
0.545923
0.544034
0.54216
0.540281
0.538385
0.536508
0.534599
0.532798
0.530915
0.529295
0.52755
0.526183
0.524734
0.52364
0.522549
0.52164
0.520457
0.517738
0.508381
0.465138
0.244994
0.0995589
0.0706315
0.0600279
0.0541864
0.0502073
0.047174
0.044707
0.042629
0.0408306
0.0392535
0.0378527
0.03661
0.0355035
0.034525
0.0336528
0.0328738
0.0321623
0.0315056
0.0308864
0.0303023
0.0297488
0.0292322
0.0287469
0.0282837
0.027819
0.0273708
0.0269466
0.0265494
0.0261811
0.0258417
0.0255316
0.0252491
0.0249934
0.0247627
0.0245576
0.0243801
0.0242365
0.0241319
0.0240654
0.0240188
0.0239714
0.0239217
0.0238702
0.0238172
0.023763
0.023708
0.0236524
0.0235964
0.0235402
0.023484
0.023428
0.0233721
0.0233166
0.0232615
0.0232068
0.0231526
0.0230989
0.0230457
0.022993
0.0229408
0.0228892
0.0228381
0.0227875
0.0227375
0.0226879
0.0226389
0.0225905
0.0225425
0.022495
0.022448
0.0224015
0.0223556
0.02231
0.022265
0.0222204
0.0221763
0.0221327
0.0220895
0.0220468
0.0220045
0.0219626
0.0219212
0.0218802
0.0218396
0.0217995
0.0217597
0.0217203
0.0216814
0.0216428
0.0216046
0.0215668
0.0215294
0.0214924
0.0214557
0.0214194
0.0213835
0.021348
0.0213128
0.0212779
0.0212433
0.021209
0.0211749
0.0211411
0.0211075
0.0210741
0.021041
0.0210081
0.0209755
0.0209431
0.0209112
0.0208795
0.0208481
0.0208171
0.0207863
0.0207557
0.0207253
0.0206949
0.0206647
0.0206347
0.020605
0.0205757
0.0205469
0.020519
0.020492
0.0204661
0.0204414
0.0204181
0.0203961
0.0203754
0.0203558
0.0203375
0.02032
0.0203035
0.0202873
0.0202717
0.0202559
0.02024
0.0202234
0.020206
0.0201873
0.0201672
0.0201452
0.0201212
0.020095
0.0200667
0.0200362
0.0200036
0.0199692
0.0199333
0.0198961
0.0198582
0.0198198
0.0197814
0.0197433
0.0197059
0.0196695
0.0196342
0.0196002
0.0195675
0.0195362
0.0195063
0.0194776
0.0194502
0.0194237
0.0193982
0.0193734
0.0193493
0.0193256
0.0193023
0.0192793
0.0192565
0.0192337
0.0192111
0.0191884
0.0191656
0.0191429
0.01912
0.0190971
0.0190741
0.0190511
0.019028
0.019005
0.0189819
0.0189588
0.0189357
0.0189127
0.0188897
0.0188668
0.018844
0.0188212
0.0187986
0.018776
0.0187536
0.0187312
0.018709
0.0186869
0.0186649
0.018643
0.0186213
0.0185997
0.0185782
0.0185569
0.0185356
0.0185145
0.0184936
0.0184727
0.018452
0.0184314
0.018411
0.0183906
0.0183704
0.0183503
0.0183304
0.0183106
0.0182909
0.0182713
0.0182518
0.0182325
0.0182133
0.0181942
0.0181753
0.0181564
0.0181377
0.0181191
0.0181006
0.0180822
0.018064
0.0180458
0.0180278
0.0180099
0.0179921
0.0179744
0.0179569
0.0179394
0.017922
0.0179047
0.0178876
0.0178705
0.0178534
0.0178365
0.0178196
0.0178029
0.0177862
0.0177695
0.017753
0.0177365
0.0177201
0.0177038
0.0176876
0.0176715
0.0176554
0.0176394
0.0176235
0.0176076
0.0175918
0.0175761
0.0175605
0.0175451
0.0175297
0.0175145
0.0174995
0.0174848
0.0174703
0.0174561
0.0174423
0.0174288
0.0174158
0.0174032
0.0173911
0.0173796
0.0173685
0.0173578
0.0173477
0.017338
0.0173288
0.0173199
0.0173113
0.0173029
0.0172947
0.0172865
0.0172783
0.0172699
0.0172613
0.0172523
0.0172428
0.0172328
0.017222
0.0172105
0.0171982
0.0171849
0.0171707
0.0171556
0.0171395
0.0171225
0.0171046
0.0170859
0.0170665
0.0170465
0.017026
0.0170052
0.0169841
0.0169629
0.0169417
0.0169207
0.0168998
0.0168793
0.0168592
0.0168395
0.0168203
0.0168017
0.0167835
0.0167659
0.0167487
0.0167321
0.0167159
0.0167001
0.0166847
0.0166697
0.0166549
0.0166404
0.0166262
0.016612
0.0165981
0.0165842
0.0165704
0.0165567
0.016543
0.0165293
0.0165156
0.016502
0.0164883
0.0164745
0.0164608
0.016447
0.0164332
0.0164194
0.0164056
0.0163917
0.0163779
0.0163639
0.0163501
0.0163362
0.0163224
0.0163084
0.0162947
0.0162808
0.0162671
0.0162532
0.0162396
0.0162258
0.0162122
0.0161985
0.016185
0.0161714
0.016158
0.0161445
0.0161312
0.0161178
0.0161045
0.0160913
0.0160781
0.016065
0.0160519
0.0160389
0.0160259
0.0160131
0.0160002
0.0159874
0.0159747
0.015962
0.0159494
0.0159368
0.0159243
0.0159119
0.0158995
0.0158872
0.0158749
0.0158627
0.0158505
0.0158384
0.0158264
0.0158144
0.0158024
0.0157905
0.0157787
0.0157669
0.0157552
0.0157436
0.0157319
0.0157204
0.0157089
0.0156974
0.015686
0.0156746
0.0156633
0.015652
0.0156408
0.0156296
0.0156185
0.0156073
0.0155963
0.0155852
0.0155742
0.0155633
0.0155523
0.0155415
0.0155306
0.0155198
0.015509
0.0154983
0.0154876
0.0154769
0.0154663
0.0154557
0.0154452
0.0154347
0.0154243
0.015414
0.0154037
0.0153935
0.0153835
0.0153735
0.0153637
0.015354
0.0153444
0.015335
0.0153258
0.0153168
0.015308
0.0152994
0.0152911
0.015283
0.0152751
0.0152674
0.01526
0.0152528
0.0152458
0.015239
0.0152324
0.015226
0.0152197
0.0152135
0.0152074
0.0152013
0.0151953
0.0151892
0.015183
0.0151767
0.0151703
0.0151636
0.0151566
0.0151494
0.0151418
0.0151339
0.0151255
0.0151167
0.0151074
0.0150976
0.0150874
0.0150766
0.0150654
0.0150536
0.0150414
0.0150288
0.0150158
0.0150024
0.0149886
0.0149746
0.0149604
0.014946
0.0149315
0.0149169
0.0149022
0.0148876
0.0148731
0.0148587
0.0148444
0.0148303
0.0148163
0.0148026
0.0147891
0.0147758
0.0147628
0.01475
0.0147375
0.0147251
0.014713
0.0147011
0.0146894
0.0146778
0.0146664
0.0146551
0.014644
0.014633
0.014622
0.0146112
0.0146004
0.0145897
0.014579
0.0145683
0.0145576
0.014547
0.0145364
0.0145257
0.0145151
0.0145044
0.0144938
0.0144831
0.0144724
0.0144617
0.014451
0.0144402
0.0144295
0.0144187
0.0144079
0.0143971
0.0143863
0.0143755
0.0143647
0.0143538
0.014343
0.0143322
0.0143214
0.0143105
0.0142997
0.0142889
0.0142781
0.0142673
0.0142565
0.0142458
0.014235
0.0142243
0.0142135
0.0142029
0.0141921
0.0141815
0.0141708
0.0141602
0.0141496
0.014139
0.0141284
0.0141179
0.0141073
0.0140968
0.0140863
0.0140758
0.0140654
0.014055
0.0140446
0.0140342
0.0140239
0.0140136
0.0140033
0.013993
0.0139828
0.0139726
0.0139624
0.0139523
0.0139422
0.0139321
0.0139222
0.0139122
0.0139023
0.0138925
0.0138827
0.013873
0.0138634
0.0138538
0.0138444
0.0138351
0.0138259
0.0138169
0.0138081
0.0137995
0.0137911
0.0137829
0.013775
0.0137674
0.0137602
0.0137532
0.0137468
0.0137406
0.0137349
0.0137297
0.0137249
0.0137205
0.0137167
0.0137132
0.0137103
0.0137077
0.0137056
0.0137037
0.0137024
0.0137011
0.0137004
0.0136996
0.0136993
0.0136986
0.0136983
0.0136972
0.0136954
0.0136922
0.0136853
0.0136738
0.0136515
0.013614
0.0135492
0.0134467
0.0132977
0.0131084
0.0129117
0.0127478
0.0126418
0.0125841
0.012557
0.0125455
0.0125403
0.0125401
0.0125404
0.0125418
0.0125439
0.0125463
0.0125488
0.0125514
0.0125541
0.0125569
0.0125597
0.0125626
0.0125655
0.0125683
0.0125712
0.012574
0.0125768
0.0125796
0.0125822
0.0125848
0.0125872
0.0125895
0.0125917
0.0125937
0.0125955
0.0125972
0.0125986
0.0125998
0.0126008
0.0126015
0.0126019
0.0126021
0.0126021
0.0126021
0.0126018
0.0126011
0.0126001
0.0125988
0.0125974
0.0125957
0.0125939
0.0125919
0.0125898
0.0125875
0.0125852
0.0125827
0.0125801
0.0125775
0.0125748
0.0125721
0.0125695
0.0125668
0.0125642
0.0125616
0.0125591
0.0125566
0.0125543
0.012552
0.0125498
0.0125477
0.0125458
0.0125439
0.0125422
0.0125405
0.012539
0.0125375
0.0125362
0.012535
0.0125338
0.0125328
0.0125318
0.0125309
0.01253
0.0125292
0.0125285
0.0125278
0.0125272
0.0125266
0.012526
0.0125255
0.012525
0.0125245
0.012524
0.0125235
0.012523
0.0125225
0.0125221
0.0125216
0.0125212
0.0125207
0.0125202
0.0125197
0.0125193
0.0125188
0.0125183
0.0125178
0.0125173
0.0125168
0.0125163
0.0125158
0.0125153
0.0125148
0.0125142
0.0125137
0.0125132
0.0125127
0.0125122
0.0125117
0.0125112
0.0125107
0.0125102
0.0125097
0.0125092
0.0125087
0.0125082
0.0125078
0.0125073
0.0125069
0.0125065
0.012506
0.0125056
0.0125052
0.0125048
0.0125045
0.0125041
0.0125038
0.0125034
0.0125031
0.0125028
0.0125025
0.0125022
0.0125019
0.0125017
0.0125015
0.0125012
0.012501
0.0125008
0.0125007
0.0125005
0.0125004
0.0125002
0.0125001
0.0125
0.0124999
0.0124999
0.0124998
0.0124998
0.0124998
0.0124998
0.0124998
0.0124998
0.0124998
0.0124999
0.0124999
0.0125
0.0125001
0.0125003
0.0125004
0.0125005
0.0125007
0.0125009
0.012501
0.0125012
0.0125015
0.0125017
0.0125019
0.0125022
0.0125024
0.0125027
0.012503
0.0125033
0.0125036
0.0125039
0.0125043
0.0125046
0.012505
0.0125054
0.0125058
0.0125062
0.0125067
0.0125072
0.0125077
0.0125082
0.0125087
0.0125093
0.0125099
0.0125106
0.0125113
0.012512
0.0125128
0.0125136
0.0125145
0.0125155
0.0125165
0.0125175
0.0125186
0.0125198
0.0125211
0.0125224
0.0125238
0.0125253
0.0125268
0.0125285
0.0125302
0.0125319
0.0125338
0.0125358
0.0125378
0.0125399
0.012542
0.0125442
0.0125465
0.0125488
0.0125512
0.0125536
0.0125561
0.0125586
0.0125611
0.0125636
0.0125661
0.0125685
0.012571
0.0125734
0.0125758
0.012578
0.0125803
0.0125824
0.0125844
0.0125863
0.0125881
0.0125897
0.0125912
0.0125925
0.0125937
0.0125947
0.0125955
0.0125961
0.0125965
0.0125967
0.0125967
0.0125967
0.0125967
0.0125963
0.0125955
0.0125946
0.0125934
0.0125921
0.0125907
0.0125891
0.0125874
0.0125855
0.0125835
0.0125815
0.0125793
0.0125771
0.0125749
0.0125726
0.0125703
0.012568
0.0125657
0.0125634
0.0125612
0.012559
0.0125568
0.0125547
0.0125527
0.0125507
0.0125489
0.0125471
0.0125453
0.0125437
0.0125421
0.0125407
0.0125393
0.012538
0.0125367
0.0125356
0.0125345
0.0125335
0.0125325
0.0125316
0.0125307
0.01253
0.0125292
0.0125285
0.0125278
0.0125272
0.0125266
0.012526
0.0125254
0.0125249
0.0125244
0.0125238
0.0125233
0.0125228
0.0125224
0.0125219
0.0125214
0.0125209
0.0125204
0.0125199
0.0125195
0.012519
0.0125185
0.012518
0.0125175
0.012517
0.0125165
0.012516
0.0125155
0.012515
0.0125145
0.012514
0.0125135
0.012513
0.0125125
0.012512
0.0125116
0.0125111
0.0125106
0.0125101
0.0125096
0.0125092
0.0125087
0.0125082
0.0125078
0.0125074
0.0125069
0.0125065
0.0125061
0.0125057
0.0125053
0.0125049
0.0125046
0.0125042
0.0125039
0.0125035
0.0125032
0.0125029
0.0125026
0.0125023
0.0125021
0.0125018
0.0125016
0.0125013
0.0125011
0.0125009
0.0125008
0.0125006
0.0125005
0.0125003
0.0125002
0.0125001
0.0125
0.0125
0.0124999
0.0124999
0.0124999
0.0124999
0.0124999
0.0125004
)
;

boundaryField
{
    inlet
    {
        type            fixedValue;
        value           uniform 0.55;
    }
    outlet
    {
        type            zeroGradient;
    }
    emptyWalls
    {
        type            empty;
    }
}


// ************************************************************************* //
