/*--------------------------------*- C++ -*----------------------------------*\
  =========                 |
  \\      /  F ield         | OpenFOAM: The Open Source CFD Toolbox
   \\    /   O peration     | Website:  https://openfoam.org
    \\  /    A nd           | Version:  9
     \\/     M anipulation  |
\*---------------------------------------------------------------------------*/
FoamFile
{
    format      ascii;
    class       volScalarField;
    location    "20750";
    object      kra;
}
// * * * * * * * * * * * * * * * * * * * * * * * * * * * * * * * * * * * * * //

dimensions      [0 0 0 0 0 0 0];

internalField   nonuniform List<scalar> 
1000
(
0.000236712
0.000237742
0.000239036
0.000240355
0.000241667
0.00024298
0.000244307
0.00024565
0.000246996
0.000248364
0.000249735
0.000251105
0.00025249
0.00025383
0.000255205
0.000256455
0.000257773
0.000258876
0.000260051
0.000260989
0.000261941
0.000262714
0.00026344
0.000264053
0.000264651
0.000265388
0.00026716
0.000273356
0.000300534
0.000494467
0.00081031
0.000878129
0.000896902
0.00090533
0.000910313
0.000913775
0.000916391
0.000918484
0.000920194
0.000921628
0.000922837
0.00092389
0.00092481
0.000925613
0.000926305
0.000926859
0.000927249
0.000927532
0.000927729
0.000927834
0.000927944
0.000928164
0.000928382
0.000928442
0.000928434
0.000928392
0.000928196
0.000927883
0.000927544
0.000927306
0.000927193
0.000927176
0.0009273
0.000928248
0.0009296
0.000931071
0.000932574
0.000933964
0.000935059
0.000935702
0.0009359
0.000935898
0.000935845
0.00093565
0.000934951
0.00093362
0.000931602
0.000928933
0.000925655
0.000921865
0.000917655
0.000913168
0.000908549
0.000903946
0.000899464
0.000895167
0.000891089
0.000887239
0.000883609
0.000880179
0.000876919
0.000873798
0.00087078
0.000867833
0.000864929
0.000862045
0.000859163
0.000856274
0.000853369
0.00085045
0.000847515
0.00084457
0.000841617
0.000838666
0.000835717
0.00083278
0.000829854
0.000826948
0.00082406
0.000821196
0.000818355
0.00081554
0.000812751
0.000809989
0.000807253
0.000804545
0.000801863
0.000799209
0.000796581
0.00079398
0.000791405
0.000788856
0.000786332
0.000783834
0.000781361
0.000778913
0.00077649
0.000774091
0.000771718
0.000769369
0.000767044
0.000764744
0.000762467
0.000760214
0.000757983
0.000755775
0.000753589
0.000751425
0.000749283
0.000747163
0.000745065
0.000742989
0.000740936
0.000738905
0.000736897
0.000734912
0.000732948
0.000731006
0.000729083
0.000727178
0.000725289
0.000723415
0.000721554
0.000719706
0.00071787
0.000716049
0.000714241
0.00071245
0.000710674
0.000708915
0.000707174
0.000705451
0.000703746
0.000702056
0.000700379
0.000698713
0.000697054
0.000695399
0.000693748
0.0006921
0.000690459
0.00068883
0.000687223
0.000685647
0.000684115
0.000682638
0.000681226
0.000679887
0.000678627
0.000677449
0.000676352
0.000675333
0.000674387
0.000673506
0.00067268
0.000671897
0.000671145
0.000670407
0.000669668
0.000668909
0.000668114
0.000667262
0.000666336
0.000665319
0.000664196
0.000662956
0.000661591
0.000660098
0.00065848
0.000656744
0.0006549
0.000652966
0.00065096
0.000648903
0.000646817
0.000644723
0.000642643
0.000640593
0.00063859
0.000636644
0.000634765
0.000632958
0.000631225
0.000629564
0.000627974
0.000626449
0.000624983
0.000623569
0.0006222
0.000620868
0.000619567
0.000618289
0.000617029
0.000615781
0.000614542
0.000613307
0.000612073
0.00061084
0.000609606
0.000608369
0.000607129
0.000605888
0.000604644
0.000603399
0.000602153
0.000600908
0.000599664
0.000598422
0.000597182
0.000595947
0.000594715
0.000593489
0.000592268
0.000591053
0.000589845
0.000588643
0.000587448
0.00058626
0.00058508
0.000583908
0.000582743
0.000581585
0.000580436
0.000579294
0.000578161
0.000577035
0.000575918
0.000574808
0.000573706
0.000572612
0.000571527
0.000570448
0.000569378
0.000568316
0.000567261
0.000566214
0.000565175
0.000564144
0.00056312
0.000562104
0.000561095
0.000560095
0.000559102
0.000558118
0.000557141
0.000556171
0.00055521
0.000554256
0.000553309
0.00055237
0.000551437
0.000550511
0.000549591
0.000548678
0.00054777
0.000546867
0.00054597
0.000545079
0.000544192
0.000543311
0.000542435
0.000541565
0.000540699
0.000539839
0.000538983
0.000538133
0.000537286
0.000536445
0.000535605
0.00053477
0.000533937
0.000533108
0.00053228
0.000531458
0.000530639
0.000529827
0.000529022
0.000528227
0.000527443
0.000526674
0.000525922
0.00052519
0.00052448
0.000523796
0.000523138
0.000522509
0.00052191
0.000521341
0.000520803
0.000520296
0.000519816
0.000519364
0.000518935
0.000518526
0.000518134
0.000517752
0.000517378
0.000517003
0.000516623
0.00051623
0.000515819
0.000515383
0.000514916
0.000514412
0.000513866
0.000513272
0.000512629
0.000511934
0.000511184
0.000510381
0.000509526
0.000508621
0.00050767
0.000506678
0.000505651
0.000504595
0.000503518
0.000502425
0.000501325
0.000500223
0.000499127
0.000498042
0.000496973
0.000495924
0.000494898
0.000493897
0.000492924
0.000491978
0.00049106
0.000490169
0.000489304
0.000488463
0.000487645
0.000486847
0.000486067
0.000485304
0.000484553
0.000483815
0.000483086
0.000482365
0.00048165
0.000480939
0.000480231
0.000479526
0.000478822
0.000478119
0.000477415
0.000476711
0.000476007
0.000475303
0.000474597
0.000473891
0.000473185
0.000472479
0.000471772
0.000471067
0.000470361
0.000469657
0.000468954
0.000468252
0.000467553
0.000466855
0.000466159
0.000465466
0.000464775
0.000464088
0.000463403
0.000462721
0.000462042
0.000461367
0.000460695
0.000460026
0.000459361
0.000458699
0.000458041
0.000457387
0.000456736
0.000456089
0.000455445
0.000454806
0.000454169
0.000453537
0.000452908
0.000452283
0.000451662
0.000451044
0.00045043
0.00044982
0.000449214
0.000448611
0.000448012
0.000447417
0.000446826
0.000446238
0.000445654
0.000445074
0.000444497
0.000443924
0.000443354
0.000442788
0.000442225
0.000441666
0.000441109
0.000440556
0.000440006
0.000439459
0.000438914
0.000438373
0.000437834
0.000437298
0.000436764
0.000436233
0.000435705
0.000435179
0.000434655
0.000434133
0.000433613
0.000433096
0.00043258
0.000432066
0.000431555
0.000431045
0.000430537
0.000430032
0.00042953
0.000429031
0.000428535
0.000428044
0.000427557
0.000427076
0.000426602
0.000426135
0.000425677
0.000425228
0.000424789
0.000424362
0.000423946
0.000423544
0.000423155
0.000422779
0.000422418
0.000422072
0.000421739
0.000421421
0.000421116
0.000420824
0.000420543
0.000420272
0.00042001
0.000419755
0.000419505
0.000419258
0.000419011
0.000418763
0.00041851
0.000418249
0.00041798
0.000417697
0.0004174
0.000417086
0.000416752
0.000416396
0.000416018
0.000415614
0.000415185
0.000414729
0.000414247
0.000413738
0.000413203
0.000412644
0.000412061
0.000411457
0.000410833
0.000410192
0.000409537
0.00040887
0.000408194
0.000407512
0.000406827
0.000406142
0.000405459
0.00040478
0.000404107
0.000403442
0.000402787
0.000402142
0.000401509
0.000400889
0.00040028
0.000399685
0.000399101
0.00039853
0.000397971
0.000397422
0.000396884
0.000396355
0.000395835
0.000395323
0.000394818
0.000394319
0.000393825
0.000393336
0.00039285
0.000392368
0.000391888
0.00039141
0.000390933
0.000390458
0.000389983
0.000389509
0.000389035
0.000388561
0.000388087
0.000387613
0.000387138
0.000386664
0.00038619
0.000385716
0.000385241
0.000384768
0.000384294
0.000383821
0.000383348
0.000382876
0.000382405
0.000381934
0.000381465
0.000380997
0.000380529
0.000380064
0.0003796
0.000379137
0.000378676
0.000378216
0.000377758
0.000377302
0.000376848
0.000376396
0.000375945
0.000375497
0.00037505
0.000374606
0.000374163
0.000373723
0.000373285
0.000372848
0.000372414
0.000371982
0.000371553
0.000371125
0.000370699
0.000370276
0.000369855
0.000369436
0.000369019
0.000368605
0.000368192
0.000367782
0.000367373
0.000366968
0.000366563
0.000366162
0.000365762
0.000365364
0.000364968
0.000364575
0.000364183
0.000363793
0.000363405
0.000363018
0.000362634
0.000362251
0.00036187
0.000361491
0.000361113
0.000360737
0.000360362
0.000359989
0.000359617
0.000359247
0.000358878
0.00035851
0.000358144
0.000357779
0.000357416
0.000357053
0.000356693
0.000356334
0.000355976
0.00035562
0.000355267
0.000354915
0.000354566
0.00035422
0.000353876
0.000353536
0.000353199
0.000352866
0.000352538
0.000352215
0.000351896
0.000351583
0.000351276
0.000350976
0.000350681
0.000350394
0.000350114
0.000349841
0.000349575
0.000349317
0.000349066
0.000348823
0.000348586
0.000348356
0.000348132
0.000347914
0.000347701
0.000347493
0.000347289
0.000347087
0.000346887
0.000346688
0.000346489
0.000346289
0.000346086
0.000345879
0.000345668
0.000345451
0.000345226
0.000344993
0.000344751
0.000344498
0.000344233
0.000343956
0.000343666
0.000343362
0.000343044
0.000342711
0.000342363
0.000342001
0.000341624
0.000341233
0.000340828
0.000340409
0.000339979
0.000339537
0.000339085
0.000338623
0.000338154
0.000337677
0.000337196
0.00033671
0.000336221
0.000335731
0.00033524
0.00033475
0.000334262
0.000333777
0.000333295
0.000332817
0.000332344
0.000331876
0.000331414
0.000330958
0.000330509
0.000330065
0.000329628
0.000329197
0.000328771
0.000328351
0.000327937
0.000327528
0.000327124
0.000326724
0.000326328
0.000325935
0.000325546
0.00032516
0.000324777
0.000324395
0.000324016
0.000323638
0.000323262
0.000322886
0.000322512
0.000322138
0.000321764
0.000321391
0.000321019
0.000320646
0.000320274
0.000319901
0.000319529
0.000319157
0.000318784
0.000318412
0.000318039
0.000317667
0.000317295
0.000316923
0.00031655
0.000316179
0.000315807
0.000315436
0.000315065
0.000314695
0.000314325
0.000313956
0.000313587
0.000313219
0.000312852
0.000312485
0.000312119
0.000311755
0.00031139
0.000311027
0.000310665
0.000310304
0.000309943
0.000309584
0.000309225
0.000308868
0.000308512
0.000308156
0.000307803
0.000307449
0.000307098
0.000306747
0.000306398
0.000306049
0.000305703
0.000305356
0.000305013
0.000304668
0.000304328
0.000303986
0.000303648
0.00030331
0.000302973
0.000302639
0.000302305
0.000301974
0.000301645
0.000301316
0.000300991
0.000300666
0.000300345
0.000300026
0.000299708
0.000299395
0.000299084
0.000298776
0.000298473
0.000298173
0.000297877
0.000297588
0.000297302
0.000297023
0.000296751
0.000296484
0.000296227
0.000295979
0.000295737
0.000295509
0.00029529
0.00029508
0.000294886
0.000294702
0.00029453
0.000294376
0.000294231
0.0002941
0.000293988
0.000293884
0.000293796
0.000293725
0.000293661
0.000293612
0.00029358
0.00029355
0.000293538
0.000293539
0.000293543
0.000293564
0.000293581
0.000293608
0.000293658
0.000293686
0.000293757
0.00029379
0.00029387
0.000293904
0.000293969
0.000293989
0.000293975
0.00029391
0.000293708
0.000293278
0.00029245
0.000290947
0.00028836
0.000284211
0.000278143
0.000270455
0.000262379
0.00025568
0.000251266
0.000248906
0.000247764
0.000247302
0.000247092
0.000247066
0.000247076
0.000247122
0.000247184
0.00024725
0.000247317
0.000247381
0.000247442
0.000247498
0.000247549
0.000247594
0.000247633
0.000247667
0.000247693
0.000247712
0.000247722
0.000247725
0.000247725
0.000247724
0.000247712
0.000247687
0.000247658
0.000247622
0.000247582
0.000247536
0.000247484
0.000247428
0.000247368
0.000247304
0.000247236
0.000247165
0.000247091
0.000247016
0.000246939
0.000246861
0.000246782
0.000246703
0.000246624
0.000246546
0.000246469
0.000246393
0.000246318
0.000246246
0.000246175
0.000246107
0.000246041
0.000245978
0.000245917
0.000245858
0.000245803
0.00024575
0.000245699
0.000245651
0.000245606
0.000245562
0.000245522
0.000245483
0.000245446
0.000245411
0.000245378
0.000245347
0.000245317
0.000245288
0.000245261
0.000245234
0.000245209
0.000245184
0.000245161
0.000245137
0.000245115
0.000245092
0.00024507
0.000245049
0.000245027
0.000245006
0.000244985
0.000244964
0.000244943
0.000244922
0.000244901
0.00024488
0.000244859
0.000244838
0.000244817
0.000244796
0.000244775
0.000244754
0.000244733
0.000244712
0.000244691
0.00024467
0.00024465
0.000244629
0.000244609
0.000244589
0.000244569
0.000244549
0.00024453
0.000244511
0.000244492
0.000244474
0.000244456
0.000244438
0.000244421
0.000244404
0.000244387
0.000244371
0.000244356
0.000244341
0.000244326
0.000244312
0.000244299
0.000244286
0.000244273
0.000244261
0.00024425
0.00024424
0.000244229
0.00024422
0.000244211
0.000244202
0.000244195
0.000244188
0.000244181
0.000244175
0.00024417
0.000244165
0.000244161
0.000244157
0.000244155
0.000244152
0.000244151
0.00024415
0.00024415
0.00024415
0.00024415
0.000244151
0.000244152
0.000244155
0.000244156
0.000244161
0.000244163
0.00024417
0.000244172
0.000244181
0.000244183
0.000244194
0.000244197
0.00024421
0.000244213
0.000244227
0.000244231
0.000244247
0.000244252
0.00024427
0.000244274
0.000244295
0.0002443
0.000244343
)
;

boundaryField
{
    inlet
    {
        type            calculated;
        value           uniform 0.000236304;
    }
    outlet
    {
        type            calculated;
        value           uniform 0.000244325;
    }
    emptyWalls
    {
        type            empty;
    }
}


// ************************************************************************* //
