/*--------------------------------*- C++ -*----------------------------------*\
  =========                 |
  \\      /  F ield         | OpenFOAM: The Open Source CFD Toolbox
   \\    /   O peration     | Website:  https://openfoam.org
    \\  /    A nd           | Version:  9
     \\/     M anipulation  |
\*---------------------------------------------------------------------------*/
FoamFile
{
    format      ascii;
    class       volScalarField;
    location    "25150";
    object      krb;
}
// * * * * * * * * * * * * * * * * * * * * * * * * * * * * * * * * * * * * * //

dimensions      [0 0 0 0 0 0 0];

internalField   nonuniform List<scalar> 
1000
(
0.0978385
0.0981348
0.0985928
0.099027
0.0994727
0.0999263
0.100378
0.100838
0.101309
0.10178
0.102262
0.102753
0.103239
0.103749
0.104231
0.104761
0.105228
0.105774
0.106221
0.106749
0.107182
0.107655
0.108065
0.108468
0.108828
0.109162
0.109456
0.109722
0.109953
0.110161
0.110354
0.110585
0.11107
0.112709
0.119382
0.165206
0.384771
0.471064
0.492785
0.50179
0.506784
0.510108
0.512608
0.514652
0.516403
0.517946
0.51932
0.520555
0.521668
0.522675
0.523587
0.524416
0.525168
0.525852
0.526473
0.527037
0.527548
0.528012
0.528428
0.528808
0.529145
0.52945
0.529719
0.529959
0.530167
0.53035
0.530503
0.530634
0.530738
0.530821
0.530879
0.530917
0.530932
0.530925
0.530897
0.530846
0.530773
0.530678
0.530559
0.530418
0.530254
0.530068
0.529858
0.529625
0.529366
0.52908
0.528767
0.528423
0.528045
0.527629
0.52717
0.52666
0.52609
0.525446
0.524711
0.523865
0.522889
0.521768
0.520503
0.51911
0.517625
0.516081
0.514498
0.512887
0.511259
0.509619
0.507971
0.506317
0.504661
0.503004
0.501352
0.499707
0.49807
0.496445
0.49483
0.493228
0.491638
0.490061
0.488498
0.486951
0.485421
0.483908
0.482412
0.480933
0.479471
0.478024
0.476591
0.47517
0.47376
0.47236
0.470968
0.469584
0.468206
0.466835
0.465471
0.464112
0.46276
0.461415
0.460076
0.458745
0.457422
0.456107
0.4548
0.453501
0.452211
0.450931
0.449659
0.448395
0.447141
0.445896
0.444659
0.44343
0.44221
0.440998
0.439795
0.438599
0.437411
0.43623
0.435057
0.433891
0.432733
0.431582
0.430438
0.429301
0.428171
0.427047
0.425931
0.424821
0.423717
0.42262
0.42153
0.420446
0.419368
0.418296
0.417231
0.416172
0.415118
0.414071
0.413029
0.411994
0.410964
0.40994
0.408921
0.407908
0.406901
0.405899
0.404903
0.403912
0.402926
0.401945
0.40097
0.4
0.399034
0.398074
0.397119
0.396169
0.395224
0.394284
0.393349
0.392418
0.391493
0.390572
0.389656
0.388744
0.387837
0.386935
0.386036
0.385143
0.384254
0.383369
0.382488
0.381612
0.38074
0.379872
0.379009
0.37815
0.377295
0.376445
0.375599
0.374757
0.373918
0.373083
0.372252
0.371423
0.370598
0.369775
0.368955
0.368137
0.367322
0.36651
0.3657
0.364892
0.364087
0.363285
0.362486
0.36169
0.360898
0.360109
0.359324
0.358544
0.357768
0.356997
0.356231
0.35547
0.354715
0.353965
0.353221
0.352482
0.351749
0.351021
0.350299
0.349581
0.348867
0.348157
0.347451
0.346748
0.346048
0.345351
0.344656
0.343964
0.343273
0.342584
0.341897
0.341211
0.340528
0.339846
0.339166
0.338488
0.337812
0.337137
0.336466
0.335796
0.335129
0.334464
0.333802
0.333142
0.332485
0.33183
0.331178
0.330529
0.329882
0.329238
0.328596
0.327957
0.32732
0.326686
0.326054
0.325425
0.324798
0.324174
0.323552
0.322932
0.322314
0.321699
0.321086
0.320475
0.319866
0.31926
0.318656
0.318053
0.317453
0.316855
0.316259
0.315665
0.315073
0.314484
0.313896
0.31331
0.312726
0.312144
0.311564
0.310986
0.31041
0.309836
0.309263
0.308693
0.308124
0.307558
0.306993
0.30643
0.305869
0.305309
0.304751
0.304196
0.303642
0.303089
0.302539
0.30199
0.301443
0.300897
0.300354
0.299812
0.299272
0.298733
0.298197
0.297661
0.297128
0.296596
0.296066
0.295537
0.29501
0.294485
0.293961
0.293439
0.292919
0.2924
0.291883
0.291367
0.290853
0.29034
0.289829
0.28932
0.288812
0.288306
0.287801
0.287297
0.286795
0.286294
0.285794
0.285295
0.284798
0.284301
0.283805
0.283311
0.282817
0.282325
0.281833
0.281342
0.280852
0.280363
0.279875
0.279388
0.278902
0.278417
0.277934
0.277452
0.276971
0.276492
0.276015
0.27554
0.275066
0.274594
0.274125
0.273657
0.273192
0.272729
0.272269
0.27181
0.271354
0.270901
0.270449
0.269999
0.269552
0.269106
0.268662
0.26822
0.267779
0.26734
0.266902
0.266465
0.266029
0.265594
0.26516
0.264727
0.264294
0.263863
0.263432
0.263002
0.262572
0.262143
0.261715
0.261288
0.260861
0.260435
0.26001
0.259586
0.259163
0.25874
0.258319
0.257898
0.257479
0.257061
0.256643
0.256227
0.255811
0.255397
0.254984
0.254572
0.25416
0.25375
0.253341
0.252933
0.252526
0.25212
0.251715
0.251311
0.250908
0.250506
0.250104
0.249704
0.249305
0.248907
0.248509
0.248113
0.247717
0.247323
0.246929
0.246536
0.246144
0.245753
0.245362
0.244973
0.244585
0.244197
0.24381
0.243424
0.243039
0.242654
0.242271
0.241888
0.241506
0.241125
0.240745
0.240365
0.239987
0.239609
0.239232
0.238855
0.23848
0.238105
0.237731
0.237358
0.236985
0.236614
0.236243
0.235872
0.235503
0.235134
0.234767
0.234399
0.234033
0.233667
0.233302
0.232938
0.232575
0.232212
0.23185
0.231489
0.231128
0.230768
0.230409
0.230051
0.229693
0.229336
0.22898
0.228625
0.22827
0.227916
0.227562
0.22721
0.226857
0.226506
0.226155
0.225805
0.225456
0.225107
0.224758
0.22441
0.224063
0.223716
0.22337
0.223024
0.222678
0.222333
0.221989
0.221645
0.221301
0.220958
0.220615
0.220272
0.21993
0.219588
0.219247
0.218907
0.218567
0.218227
0.217888
0.21755
0.217212
0.216875
0.216539
0.216204
0.215869
0.215536
0.215203
0.214871
0.214541
0.214211
0.213882
0.213555
0.213228
0.212903
0.212579
0.212255
0.211933
0.211612
0.211292
0.210972
0.210654
0.210336
0.210019
0.209703
0.209388
0.209073
0.208759
0.208446
0.208133
0.20782
0.207508
0.207197
0.206885
0.206574
0.206264
0.205954
0.205644
0.205334
0.205025
0.204716
0.204407
0.204099
0.203791
0.203484
0.203177
0.20287
0.202563
0.202258
0.201952
0.201647
0.201342
0.201038
0.200734
0.200431
0.200128
0.199826
0.199524
0.199223
0.198922
0.198621
0.198321
0.198022
0.197723
0.197424
0.197126
0.196828
0.196531
0.196234
0.195938
0.195642
0.195347
0.195052
0.194757
0.194463
0.194169
0.193876
0.193583
0.193291
0.192999
0.192707
0.192416
0.192125
0.191835
0.191545
0.191255
0.190966
0.190677
0.190388
0.1901
0.189812
0.189525
0.189238
0.188951
0.188665
0.188379
0.188094
0.187809
0.187524
0.187239
0.186955
0.186672
0.186388
0.186105
0.185823
0.18554
0.185258
0.184977
0.184695
0.184414
0.184134
0.183854
0.183574
0.183294
0.183015
0.182736
0.182458
0.182179
0.181901
0.181624
0.181347
0.18107
0.180793
0.180517
0.180241
0.179966
0.17969
0.179415
0.179141
0.178867
0.178593
0.178319
0.178045
0.177772
0.1775
0.177227
0.176955
0.176683
0.176411
0.17614
0.175869
0.175598
0.175327
0.175057
0.174786
0.174516
0.174247
0.173977
0.173707
0.173438
0.173169
0.1729
0.172631
0.172363
0.172094
0.171826
0.171558
0.17129
0.171023
0.170755
0.170488
0.170221
0.169954
0.169688
0.169422
0.169156
0.16889
0.168625
0.16836
0.168096
0.167832
0.167568
0.167305
0.167042
0.166779
0.166517
0.166256
0.165995
0.165735
0.165475
0.165215
0.164956
0.164698
0.16444
0.164182
0.163925
0.163668
0.163412
0.163156
0.162901
0.162646
0.162391
0.162137
0.161883
0.161629
0.161375
0.161122
0.160869
0.160616
0.160364
0.160111
0.159859
0.159607
0.159354
0.159103
0.158851
0.158599
0.158347
0.158096
0.157845
0.157593
0.157342
0.157091
0.15684
0.156589
0.156339
0.156088
0.155837
0.155587
0.155337
0.155087
0.154837
0.154587
0.154338
0.154088
0.153839
0.15359
0.153341
0.153092
0.152843
0.152595
0.152346
0.152098
0.15185
0.151602
0.151354
0.151107
0.150859
0.150612
0.150365
0.150118
0.149871
0.149624
0.149378
0.149131
0.148885
0.148638
0.148392
0.148146
0.1479
0.147655
0.147409
0.147163
0.146918
0.146673
0.146427
0.146182
0.145937
0.145692
0.145448
0.145203
0.144958
0.144714
0.144469
0.144225
0.14398
0.143736
0.143492
0.143248
0.143004
0.14276
0.142516
0.142272
0.142029
0.141785
0.141541
0.141298
0.141054
0.140811
0.140568
0.140324
0.140081
0.139838
0.139595
0.139352
0.139109
0.138866
0.138623
0.13838
0.138137
0.137894
0.137651
0.137408
0.137166
0.136923
0.13668
0.136438
0.136195
0.135952
0.13571
0.135467
0.135225
0.134982
0.13474
0.134497
0.134255
0.134012
0.13377
0.133527
0.133284
0.133042
0.132799
0.132556
0.132314
0.132071
0.131828
0.131585
0.131343
0.1311
0.130857
0.130613
0.13037
0.130127
0.129884
0.12964
0.129397
0.129153
0.12891
0.128666
0.128422
0.128178
0.127934
0.12769
0.127446
0.127201
0.126957
0.126712
0.126468
0.126223
0.125978
0.125734
0.125489
0.125244
0.124999
0.124754
0.124509
0.124264
0.124019
0.123774
0.123528
0.123283
0.123038
0.122793
0.122547
0.122302
0.122057
0.121812
0.121567
0.121321
0.121076
0.120831
0.120585
0.12034
0.120095
0.119849
0.119604
0.119358
0.119113
0.118867
0.118621
0.118375
0.118129
0.117883
0.117637
0.11739
0.117144
0.116897
0.11665
0.116403
0.116156
0.115908
0.115661
0.115413
0.115165
0.114916
0.114667
0.114419
0.11417
0.11392
0.113671
0.113421
0.113171
0.11292
0.11267
0.112419
0.112168
0.111917
0.111666
0.111414
0.111163
0.110911
0.110659
0.110407
0.110155
0.109903
0.10965
0.109398
0.109146
0.108894
0.108642
0.10839
0.108138
0.107887
0.107636
0.107385
0.107135
0.106885
0.106637
0.106389
0.106142
0.105896
0.105652
0.105409
0.105169
0.10493
0.104694
0.10446
0.104229
0.104002
0.103778
0.103559
0.103344
0.103134
0.10293
0.102732
0.10254
0.102355
0.102178
0.102008
0.101847
0.101694
0.101551
0.101415
0.10129
0.101172
0.101066
0.100966
0.100878
0.100794
0.100725
0.100656
0.100601
0.100547
0.100505
0.100463
0.100433
0.100401
0.10038
0.100355
0.100341
0.100323
0.100315
0.100301
0.100297
0.100286
0.100283
0.100273
0.100271
0.100258
0.100254
0.100231
0.100214
0.0628248
)
;

boundaryField
{
    inlet
    {
        type            calculated;
        value           uniform 0.0976562;
    }
    outlet
    {
        type            calculated;
        value           uniform 0.0628248;
    }
    emptyWalls
    {
        type            empty;
    }
}


// ************************************************************************* //
