/*--------------------------------*- C++ -*----------------------------------*\
  =========                 |
  \\      /  F ield         | OpenFOAM: The Open Source CFD Toolbox
   \\    /   O peration     | Website:  https://openfoam.org
    \\  /    A nd           | Version:  9
     \\/     M anipulation  |
\*---------------------------------------------------------------------------*/
FoamFile
{
    format      ascii;
    class       volVectorField;
    location    "25150";
    object      Ua;
}
// * * * * * * * * * * * * * * * * * * * * * * * * * * * * * * * * * * * * * //

dimensions      [0 0 0 0 0 0 0];

internalField   nonuniform List<vector> 
1000
(
(2.74898e-06 0 0)
(2.74879e-06 0 0)
(2.74874e-06 0 0)
(2.74861e-06 0 0)
(2.74849e-06 0 0)
(2.74825e-06 0 0)
(2.74802e-06 0 0)
(2.74772e-06 0 0)
(2.74734e-06 0 0)
(2.74694e-06 0 0)
(2.74646e-06 0 0)
(2.74596e-06 0 0)
(2.74542e-06 0 0)
(2.74488e-06 0 0)
(2.74428e-06 0 0)
(2.74366e-06 0 0)
(2.74299e-06 0 0)
(2.74222e-06 0 0)
(2.74151e-06 0 0)
(2.74068e-06 0 0)
(2.73992e-06 0 0)
(2.73915e-06 0 0)
(2.73837e-06 0 0)
(2.73766e-06 0 0)
(2.73696e-06 0 0)
(2.73632e-06 0 0)
(2.73576e-06 0 0)
(2.73527e-06 0 0)
(2.73484e-06 0 0)
(2.73446e-06 0 0)
(2.73407e-06 0 0)
(2.73347e-06 0 0)
(2.732e-06 0 0)
(2.72648e-06 0 0)
(2.70324e-06 0 0)
(2.57423e-06 0 0)
(2.34283e-06 0 0)
(2.1912e-06 0 0)
(2.14509e-06 0 0)
(2.12154e-06 0 0)
(2.1105e-06 0 0)
(2.10643e-06 0 0)
(2.10524e-06 0 0)
(2.10451e-06 0 0)
(2.10327e-06 0 0)
(2.1014e-06 0 0)
(2.09909e-06 0 0)
(2.09655e-06 0 0)
(2.09395e-06 0 0)
(2.09141e-06 0 0)
(2.08894e-06 0 0)
(2.08659e-06 0 0)
(2.08435e-06 0 0)
(2.08221e-06 0 0)
(2.08018e-06 0 0)
(2.07825e-06 0 0)
(2.07642e-06 0 0)
(2.07467e-06 0 0)
(2.07301e-06 0 0)
(2.07142e-06 0 0)
(2.06991e-06 0 0)
(2.06847e-06 0 0)
(2.06709e-06 0 0)
(2.06579e-06 0 0)
(2.06455e-06 0 0)
(2.06337e-06 0 0)
(2.06225e-06 0 0)
(2.0612e-06 0 0)
(2.06019e-06 0 0)
(2.05924e-06 0 0)
(2.05832e-06 0 0)
(2.05743e-06 0 0)
(2.05658e-06 0 0)
(2.05577e-06 0 0)
(2.055e-06 0 0)
(2.05428e-06 0 0)
(2.05361e-06 0 0)
(2.053e-06 0 0)
(2.05246e-06 0 0)
(2.05197e-06 0 0)
(2.05151e-06 0 0)
(2.05105e-06 0 0)
(2.0506e-06 0 0)
(2.05014e-06 0 0)
(2.04968e-06 0 0)
(2.04924e-06 0 0)
(2.04882e-06 0 0)
(2.04844e-06 0 0)
(2.04812e-06 0 0)
(2.04787e-06 0 0)
(2.04771e-06 0 0)
(2.04762e-06 0 0)
(2.04759e-06 0 0)
(2.04758e-06 0 0)
(2.04758e-06 0 0)
(2.04757e-06 0 0)
(2.04752e-06 0 0)
(2.04743e-06 0 0)
(2.04732e-06 0 0)
(2.0472e-06 0 0)
(2.0471e-06 0 0)
(2.04706e-06 0 0)
(2.04712e-06 0 0)
(2.04732e-06 0 0)
(2.04774e-06 0 0)
(2.04846e-06 0 0)
(2.0496e-06 0 0)
(2.05123e-06 0 0)
(2.05333e-06 0 0)
(2.05581e-06 0 0)
(2.05852e-06 0 0)
(2.06131e-06 0 0)
(2.06407e-06 0 0)
(2.06671e-06 0 0)
(2.0692e-06 0 0)
(2.07153e-06 0 0)
(2.07365e-06 0 0)
(2.0755e-06 0 0)
(2.07701e-06 0 0)
(2.07807e-06 0 0)
(2.07859e-06 0 0)
(2.07853e-06 0 0)
(2.07784e-06 0 0)
(2.07654e-06 0 0)
(2.07471e-06 0 0)
(2.07242e-06 0 0)
(2.0698e-06 0 0)
(2.06697e-06 0 0)
(2.06406e-06 0 0)
(2.06119e-06 0 0)
(2.05845e-06 0 0)
(2.05592e-06 0 0)
(2.05367e-06 0 0)
(2.05172e-06 0 0)
(2.05009e-06 0 0)
(2.04877e-06 0 0)
(2.04774e-06 0 0)
(2.04697e-06 0 0)
(2.04643e-06 0 0)
(2.04606e-06 0 0)
(2.04584e-06 0 0)
(2.04571e-06 0 0)
(2.04564e-06 0 0)
(2.04559e-06 0 0)
(2.04555e-06 0 0)
(2.04549e-06 0 0)
(2.04539e-06 0 0)
(2.04526e-06 0 0)
(2.04507e-06 0 0)
(2.04484e-06 0 0)
(2.04456e-06 0 0)
(2.04423e-06 0 0)
(2.04387e-06 0 0)
(2.04348e-06 0 0)
(2.04306e-06 0 0)
(2.04262e-06 0 0)
(2.04216e-06 0 0)
(2.04169e-06 0 0)
(2.04122e-06 0 0)
(2.04074e-06 0 0)
(2.04026e-06 0 0)
(2.03978e-06 0 0)
(2.0393e-06 0 0)
(2.03883e-06 0 0)
(2.03836e-06 0 0)
(2.03791e-06 0 0)
(2.03746e-06 0 0)
(2.03701e-06 0 0)
(2.03658e-06 0 0)
(2.03616e-06 0 0)
(2.03575e-06 0 0)
(2.03534e-06 0 0)
(2.03495e-06 0 0)
(2.03457e-06 0 0)
(2.03421e-06 0 0)
(2.03385e-06 0 0)
(2.03351e-06 0 0)
(2.03318e-06 0 0)
(2.03286e-06 0 0)
(2.03255e-06 0 0)
(2.03225e-06 0 0)
(2.03197e-06 0 0)
(2.03169e-06 0 0)
(2.03143e-06 0 0)
(2.03117e-06 0 0)
(2.03093e-06 0 0)
(2.0307e-06 0 0)
(2.03049e-06 0 0)
(2.03029e-06 0 0)
(2.0301e-06 0 0)
(2.02993e-06 0 0)
(2.02978e-06 0 0)
(2.02964e-06 0 0)
(2.02952e-06 0 0)
(2.0294e-06 0 0)
(2.02929e-06 0 0)
(2.02919e-06 0 0)
(2.02909e-06 0 0)
(2.029e-06 0 0)
(2.02891e-06 0 0)
(2.02882e-06 0 0)
(2.02874e-06 0 0)
(2.02866e-06 0 0)
(2.02859e-06 0 0)
(2.02854e-06 0 0)
(2.02849e-06 0 0)
(2.02846e-06 0 0)
(2.02845e-06 0 0)
(2.02845e-06 0 0)
(2.02846e-06 0 0)
(2.02848e-06 0 0)
(2.02851e-06 0 0)
(2.02853e-06 0 0)
(2.02854e-06 0 0)
(2.02854e-06 0 0)
(2.02853e-06 0 0)
(2.0285e-06 0 0)
(2.02846e-06 0 0)
(2.02841e-06 0 0)
(2.02838e-06 0 0)
(2.02838e-06 0 0)
(2.02844e-06 0 0)
(2.02856e-06 0 0)
(2.02878e-06 0 0)
(2.02912e-06 0 0)
(2.02959e-06 0 0)
(2.0302e-06 0 0)
(2.03097e-06 0 0)
(2.03191e-06 0 0)
(2.033e-06 0 0)
(2.03424e-06 0 0)
(2.03562e-06 0 0)
(2.03712e-06 0 0)
(2.03872e-06 0 0)
(2.0404e-06 0 0)
(2.04213e-06 0 0)
(2.04387e-06 0 0)
(2.0456e-06 0 0)
(2.04726e-06 0 0)
(2.04882e-06 0 0)
(2.05025e-06 0 0)
(2.05151e-06 0 0)
(2.05255e-06 0 0)
(2.05335e-06 0 0)
(2.05388e-06 0 0)
(2.05412e-06 0 0)
(2.05406e-06 0 0)
(2.05371e-06 0 0)
(2.05306e-06 0 0)
(2.05214e-06 0 0)
(2.05098e-06 0 0)
(2.0496e-06 0 0)
(2.04805e-06 0 0)
(2.04637e-06 0 0)
(2.0446e-06 0 0)
(2.04278e-06 0 0)
(2.04097e-06 0 0)
(2.03918e-06 0 0)
(2.03747e-06 0 0)
(2.03585e-06 0 0)
(2.03434e-06 0 0)
(2.03296e-06 0 0)
(2.03171e-06 0 0)
(2.0306e-06 0 0)
(2.02962e-06 0 0)
(2.02877e-06 0 0)
(2.02804e-06 0 0)
(2.02741e-06 0 0)
(2.02688e-06 0 0)
(2.02642e-06 0 0)
(2.02603e-06 0 0)
(2.02569e-06 0 0)
(2.02539e-06 0 0)
(2.02511e-06 0 0)
(2.02485e-06 0 0)
(2.02459e-06 0 0)
(2.02434e-06 0 0)
(2.02408e-06 0 0)
(2.0238e-06 0 0)
(2.02352e-06 0 0)
(2.02322e-06 0 0)
(2.0229e-06 0 0)
(2.02257e-06 0 0)
(2.02222e-06 0 0)
(2.02186e-06 0 0)
(2.02148e-06 0 0)
(2.02109e-06 0 0)
(2.02069e-06 0 0)
(2.02028e-06 0 0)
(2.01987e-06 0 0)
(2.01945e-06 0 0)
(2.01902e-06 0 0)
(2.0186e-06 0 0)
(2.01817e-06 0 0)
(2.01775e-06 0 0)
(2.01733e-06 0 0)
(2.01691e-06 0 0)
(2.0165e-06 0 0)
(2.01609e-06 0 0)
(2.01569e-06 0 0)
(2.01529e-06 0 0)
(2.0149e-06 0 0)
(2.01452e-06 0 0)
(2.01415e-06 0 0)
(2.01378e-06 0 0)
(2.01343e-06 0 0)
(2.01308e-06 0 0)
(2.01274e-06 0 0)
(2.01241e-06 0 0)
(2.01209e-06 0 0)
(2.01177e-06 0 0)
(2.01147e-06 0 0)
(2.01118e-06 0 0)
(2.01089e-06 0 0)
(2.01061e-06 0 0)
(2.01035e-06 0 0)
(2.01009e-06 0 0)
(2.00985e-06 0 0)
(2.00961e-06 0 0)
(2.00939e-06 0 0)
(2.00917e-06 0 0)
(2.00897e-06 0 0)
(2.00878e-06 0 0)
(2.00859e-06 0 0)
(2.00842e-06 0 0)
(2.00826e-06 0 0)
(2.0081e-06 0 0)
(2.00795e-06 0 0)
(2.00781e-06 0 0)
(2.00768e-06 0 0)
(2.00755e-06 0 0)
(2.00744e-06 0 0)
(2.00732e-06 0 0)
(2.00722e-06 0 0)
(2.00712e-06 0 0)
(2.00702e-06 0 0)
(2.00693e-06 0 0)
(2.00685e-06 0 0)
(2.00678e-06 0 0)
(2.00671e-06 0 0)
(2.00665e-06 0 0)
(2.0066e-06 0 0)
(2.00655e-06 0 0)
(2.00651e-06 0 0)
(2.00647e-06 0 0)
(2.00643e-06 0 0)
(2.0064e-06 0 0)
(2.00636e-06 0 0)
(2.00632e-06 0 0)
(2.00629e-06 0 0)
(2.00625e-06 0 0)
(2.00622e-06 0 0)
(2.00619e-06 0 0)
(2.00618e-06 0 0)
(2.00618e-06 0 0)
(2.0062e-06 0 0)
(2.00625e-06 0 0)
(2.00634e-06 0 0)
(2.00648e-06 0 0)
(2.00667e-06 0 0)
(2.00691e-06 0 0)
(2.00723e-06 0 0)
(2.00762e-06 0 0)
(2.00809e-06 0 0)
(2.00865e-06 0 0)
(2.00929e-06 0 0)
(2.01002e-06 0 0)
(2.01083e-06 0 0)
(2.01172e-06 0 0)
(2.01269e-06 0 0)
(2.01373e-06 0 0)
(2.01482e-06 0 0)
(2.01596e-06 0 0)
(2.01713e-06 0 0)
(2.01832e-06 0 0)
(2.01952e-06 0 0)
(2.02069e-06 0 0)
(2.02183e-06 0 0)
(2.02292e-06 0 0)
(2.02394e-06 0 0)
(2.02486e-06 0 0)
(2.02567e-06 0 0)
(2.02636e-06 0 0)
(2.02691e-06 0 0)
(2.0273e-06 0 0)
(2.02753e-06 0 0)
(2.0276e-06 0 0)
(2.02749e-06 0 0)
(2.02722e-06 0 0)
(2.02678e-06 0 0)
(2.02618e-06 0 0)
(2.02543e-06 0 0)
(2.02455e-06 0 0)
(2.02355e-06 0 0)
(2.02245e-06 0 0)
(2.02128e-06 0 0)
(2.02004e-06 0 0)
(2.01877e-06 0 0)
(2.01747e-06 0 0)
(2.01618e-06 0 0)
(2.0149e-06 0 0)
(2.01365e-06 0 0)
(2.01244e-06 0 0)
(2.01129e-06 0 0)
(2.0102e-06 0 0)
(2.00917e-06 0 0)
(2.00821e-06 0 0)
(2.00733e-06 0 0)
(2.00651e-06 0 0)
(2.00577e-06 0 0)
(2.00509e-06 0 0)
(2.00447e-06 0 0)
(2.0039e-06 0 0)
(2.00339e-06 0 0)
(2.00292e-06 0 0)
(2.00248e-06 0 0)
(2.00208e-06 0 0)
(2.00171e-06 0 0)
(2.00135e-06 0 0)
(2.00101e-06 0 0)
(2.00068e-06 0 0)
(2.00036e-06 0 0)
(2.00005e-06 0 0)
(1.99973e-06 0 0)
(1.99941e-06 0 0)
(1.99909e-06 0 0)
(1.99876e-06 0 0)
(1.99843e-06 0 0)
(1.99809e-06 0 0)
(1.99774e-06 0 0)
(1.99739e-06 0 0)
(1.99703e-06 0 0)
(1.99666e-06 0 0)
(1.99629e-06 0 0)
(1.99592e-06 0 0)
(1.99554e-06 0 0)
(1.99515e-06 0 0)
(1.99477e-06 0 0)
(1.99438e-06 0 0)
(1.99399e-06 0 0)
(1.99361e-06 0 0)
(1.99322e-06 0 0)
(1.99284e-06 0 0)
(1.99245e-06 0 0)
(1.99207e-06 0 0)
(1.9917e-06 0 0)
(1.99132e-06 0 0)
(1.99096e-06 0 0)
(1.99059e-06 0 0)
(1.99024e-06 0 0)
(1.98989e-06 0 0)
(1.98954e-06 0 0)
(1.9892e-06 0 0)
(1.98887e-06 0 0)
(1.98854e-06 0 0)
(1.98822e-06 0 0)
(1.98791e-06 0 0)
(1.9876e-06 0 0)
(1.98731e-06 0 0)
(1.98702e-06 0 0)
(1.98673e-06 0 0)
(1.98646e-06 0 0)
(1.98619e-06 0 0)
(1.98593e-06 0 0)
(1.98568e-06 0 0)
(1.98544e-06 0 0)
(1.98521e-06 0 0)
(1.98498e-06 0 0)
(1.98476e-06 0 0)
(1.98455e-06 0 0)
(1.98435e-06 0 0)
(1.98416e-06 0 0)
(1.98397e-06 0 0)
(1.98379e-06 0 0)
(1.98362e-06 0 0)
(1.98345e-06 0 0)
(1.98329e-06 0 0)
(1.98314e-06 0 0)
(1.983e-06 0 0)
(1.98286e-06 0 0)
(1.98272e-06 0 0)
(1.9826e-06 0 0)
(1.98247e-06 0 0)
(1.98236e-06 0 0)
(1.98225e-06 0 0)
(1.98214e-06 0 0)
(1.98204e-06 0 0)
(1.98194e-06 0 0)
(1.98185e-06 0 0)
(1.98177e-06 0 0)
(1.98168e-06 0 0)
(1.9816e-06 0 0)
(1.98152e-06 0 0)
(1.98145e-06 0 0)
(1.98138e-06 0 0)
(1.98131e-06 0 0)
(1.98125e-06 0 0)
(1.98119e-06 0 0)
(1.98114e-06 0 0)
(1.98109e-06 0 0)
(1.98105e-06 0 0)
(1.98102e-06 0 0)
(1.981e-06 0 0)
(1.981e-06 0 0)
(1.98102e-06 0 0)
(1.98106e-06 0 0)
(1.98112e-06 0 0)
(1.98122e-06 0 0)
(1.98134e-06 0 0)
(1.98151e-06 0 0)
(1.98171e-06 0 0)
(1.98196e-06 0 0)
(1.98226e-06 0 0)
(1.9826e-06 0 0)
(1.983e-06 0 0)
(1.98345e-06 0 0)
(1.98395e-06 0 0)
(1.9845e-06 0 0)
(1.98511e-06 0 0)
(1.98576e-06 0 0)
(1.98646e-06 0 0)
(1.9872e-06 0 0)
(1.98798e-06 0 0)
(1.98879e-06 0 0)
(1.98963e-06 0 0)
(1.99048e-06 0 0)
(1.99134e-06 0 0)
(1.9922e-06 0 0)
(1.99306e-06 0 0)
(1.99389e-06 0 0)
(1.9947e-06 0 0)
(1.99546e-06 0 0)
(1.99618e-06 0 0)
(1.99684e-06 0 0)
(1.99742e-06 0 0)
(1.99794e-06 0 0)
(1.99836e-06 0 0)
(1.9987e-06 0 0)
(1.99893e-06 0 0)
(1.99907e-06 0 0)
(1.9991e-06 0 0)
(1.99902e-06 0 0)
(1.99883e-06 0 0)
(1.99854e-06 0 0)
(1.99814e-06 0 0)
(1.99765e-06 0 0)
(1.99706e-06 0 0)
(1.99639e-06 0 0)
(1.99564e-06 0 0)
(1.99483e-06 0 0)
(1.99396e-06 0 0)
(1.99304e-06 0 0)
(1.99209e-06 0 0)
(1.99111e-06 0 0)
(1.99011e-06 0 0)
(1.98911e-06 0 0)
(1.98811e-06 0 0)
(1.98713e-06 0 0)
(1.98616e-06 0 0)
(1.98521e-06 0 0)
(1.9843e-06 0 0)
(1.98342e-06 0 0)
(1.98258e-06 0 0)
(1.98178e-06 0 0)
(1.98102e-06 0 0)
(1.9803e-06 0 0)
(1.97962e-06 0 0)
(1.97898e-06 0 0)
(1.97838e-06 0 0)
(1.97781e-06 0 0)
(1.97728e-06 0 0)
(1.97678e-06 0 0)
(1.9763e-06 0 0)
(1.97586e-06 0 0)
(1.97543e-06 0 0)
(1.97502e-06 0 0)
(1.97462e-06 0 0)
(1.97424e-06 0 0)
(1.97387e-06 0 0)
(1.97351e-06 0 0)
(1.97316e-06 0 0)
(1.97281e-06 0 0)
(1.97246e-06 0 0)
(1.97211e-06 0 0)
(1.97176e-06 0 0)
(1.97142e-06 0 0)
(1.97107e-06 0 0)
(1.97072e-06 0 0)
(1.97036e-06 0 0)
(1.97001e-06 0 0)
(1.96965e-06 0 0)
(1.96928e-06 0 0)
(1.96892e-06 0 0)
(1.96855e-06 0 0)
(1.96818e-06 0 0)
(1.96782e-06 0 0)
(1.96744e-06 0 0)
(1.96707e-06 0 0)
(1.9667e-06 0 0)
(1.96633e-06 0 0)
(1.96596e-06 0 0)
(1.96559e-06 0 0)
(1.96522e-06 0 0)
(1.96486e-06 0 0)
(1.9645e-06 0 0)
(1.96414e-06 0 0)
(1.96378e-06 0 0)
(1.96343e-06 0 0)
(1.96308e-06 0 0)
(1.96274e-06 0 0)
(1.9624e-06 0 0)
(1.96207e-06 0 0)
(1.96174e-06 0 0)
(1.96142e-06 0 0)
(1.9611e-06 0 0)
(1.96079e-06 0 0)
(1.96049e-06 0 0)
(1.96019e-06 0 0)
(1.9599e-06 0 0)
(1.95961e-06 0 0)
(1.95933e-06 0 0)
(1.95906e-06 0 0)
(1.9588e-06 0 0)
(1.95854e-06 0 0)
(1.95829e-06 0 0)
(1.95804e-06 0 0)
(1.95781e-06 0 0)
(1.95758e-06 0 0)
(1.95735e-06 0 0)
(1.95714e-06 0 0)
(1.95693e-06 0 0)
(1.95672e-06 0 0)
(1.95653e-06 0 0)
(1.95634e-06 0 0)
(1.95615e-06 0 0)
(1.95597e-06 0 0)
(1.9558e-06 0 0)
(1.95564e-06 0 0)
(1.95548e-06 0 0)
(1.95532e-06 0 0)
(1.95517e-06 0 0)
(1.95503e-06 0 0)
(1.95489e-06 0 0)
(1.95476e-06 0 0)
(1.95463e-06 0 0)
(1.95451e-06 0 0)
(1.95439e-06 0 0)
(1.95427e-06 0 0)
(1.95416e-06 0 0)
(1.95405e-06 0 0)
(1.95395e-06 0 0)
(1.95385e-06 0 0)
(1.95376e-06 0 0)
(1.95367e-06 0 0)
(1.95358e-06 0 0)
(1.9535e-06 0 0)
(1.95342e-06 0 0)
(1.95335e-06 0 0)
(1.95328e-06 0 0)
(1.95322e-06 0 0)
(1.95317e-06 0 0)
(1.95312e-06 0 0)
(1.95309e-06 0 0)
(1.95306e-06 0 0)
(1.95305e-06 0 0)
(1.95306e-06 0 0)
(1.95308e-06 0 0)
(1.95312e-06 0 0)
(1.95317e-06 0 0)
(1.95325e-06 0 0)
(1.95336e-06 0 0)
(1.95349e-06 0 0)
(1.95365e-06 0 0)
(1.95383e-06 0 0)
(1.95405e-06 0 0)
(1.9543e-06 0 0)
(1.95459e-06 0 0)
(1.9549e-06 0 0)
(1.95526e-06 0 0)
(1.95564e-06 0 0)
(1.95606e-06 0 0)
(1.95652e-06 0 0)
(1.957e-06 0 0)
(1.95752e-06 0 0)
(1.95807e-06 0 0)
(1.95864e-06 0 0)
(1.95923e-06 0 0)
(1.95984e-06 0 0)
(1.96047e-06 0 0)
(1.9611e-06 0 0)
(1.96175e-06 0 0)
(1.96239e-06 0 0)
(1.96303e-06 0 0)
(1.96366e-06 0 0)
(1.96427e-06 0 0)
(1.96486e-06 0 0)
(1.96542e-06 0 0)
(1.96596e-06 0 0)
(1.96645e-06 0 0)
(1.96689e-06 0 0)
(1.96729e-06 0 0)
(1.96763e-06 0 0)
(1.96792e-06 0 0)
(1.96814e-06 0 0)
(1.96829e-06 0 0)
(1.96838e-06 0 0)
(1.96839e-06 0 0)
(1.96833e-06 0 0)
(1.9682e-06 0 0)
(1.968e-06 0 0)
(1.96772e-06 0 0)
(1.96738e-06 0 0)
(1.96697e-06 0 0)
(1.96649e-06 0 0)
(1.96596e-06 0 0)
(1.96536e-06 0 0)
(1.96472e-06 0 0)
(1.96404e-06 0 0)
(1.96331e-06 0 0)
(1.96256e-06 0 0)
(1.96177e-06 0 0)
(1.96097e-06 0 0)
(1.96015e-06 0 0)
(1.95932e-06 0 0)
(1.95849e-06 0 0)
(1.95766e-06 0 0)
(1.95683e-06 0 0)
(1.95602e-06 0 0)
(1.95522e-06 0 0)
(1.95443e-06 0 0)
(1.95367e-06 0 0)
(1.95293e-06 0 0)
(1.95221e-06 0 0)
(1.95152e-06 0 0)
(1.95085e-06 0 0)
(1.95021e-06 0 0)
(1.9496e-06 0 0)
(1.94901e-06 0 0)
(1.94844e-06 0 0)
(1.9479e-06 0 0)
(1.94738e-06 0 0)
(1.94688e-06 0 0)
(1.94639e-06 0 0)
(1.94593e-06 0 0)
(1.94548e-06 0 0)
(1.94505e-06 0 0)
(1.94463e-06 0 0)
(1.94422e-06 0 0)
(1.94382e-06 0 0)
(1.94343e-06 0 0)
(1.94305e-06 0 0)
(1.94267e-06 0 0)
(1.9423e-06 0 0)
(1.94193e-06 0 0)
(1.94157e-06 0 0)
(1.9412e-06 0 0)
(1.94084e-06 0 0)
(1.94048e-06 0 0)
(1.94012e-06 0 0)
(1.93975e-06 0 0)
(1.93939e-06 0 0)
(1.93903e-06 0 0)
(1.93867e-06 0 0)
(1.93831e-06 0 0)
(1.93795e-06 0 0)
(1.93759e-06 0 0)
(1.93722e-06 0 0)
(1.93686e-06 0 0)
(1.9365e-06 0 0)
(1.93614e-06 0 0)
(1.93578e-06 0 0)
(1.93542e-06 0 0)
(1.93507e-06 0 0)
(1.93471e-06 0 0)
(1.93436e-06 0 0)
(1.93401e-06 0 0)
(1.93366e-06 0 0)
(1.93331e-06 0 0)
(1.93297e-06 0 0)
(1.93264e-06 0 0)
(1.9323e-06 0 0)
(1.93197e-06 0 0)
(1.93164e-06 0 0)
(1.93132e-06 0 0)
(1.931e-06 0 0)
(1.93069e-06 0 0)
(1.93038e-06 0 0)
(1.93008e-06 0 0)
(1.92978e-06 0 0)
(1.92949e-06 0 0)
(1.9292e-06 0 0)
(1.92892e-06 0 0)
(1.92864e-06 0 0)
(1.92837e-06 0 0)
(1.9281e-06 0 0)
(1.92784e-06 0 0)
(1.92758e-06 0 0)
(1.92734e-06 0 0)
(1.92709e-06 0 0)
(1.92685e-06 0 0)
(1.92662e-06 0 0)
(1.92639e-06 0 0)
(1.92617e-06 0 0)
(1.92596e-06 0 0)
(1.92574e-06 0 0)
(1.92554e-06 0 0)
(1.92534e-06 0 0)
(1.92514e-06 0 0)
(1.92495e-06 0 0)
(1.92477e-06 0 0)
(1.92459e-06 0 0)
(1.92441e-06 0 0)
(1.92424e-06 0 0)
(1.92407e-06 0 0)
(1.92391e-06 0 0)
(1.92375e-06 0 0)
(1.9236e-06 0 0)
(1.92345e-06 0 0)
(1.9233e-06 0 0)
(1.92316e-06 0 0)
(1.92302e-06 0 0)
(1.92289e-06 0 0)
(1.92275e-06 0 0)
(1.92263e-06 0 0)
(1.9225e-06 0 0)
(1.92238e-06 0 0)
(1.92227e-06 0 0)
(1.92216e-06 0 0)
(1.92205e-06 0 0)
(1.92195e-06 0 0)
(1.92185e-06 0 0)
(1.92176e-06 0 0)
(1.92168e-06 0 0)
(1.9216e-06 0 0)
(1.92153e-06 0 0)
(1.92147e-06 0 0)
(1.92141e-06 0 0)
(1.92137e-06 0 0)
(1.92134e-06 0 0)
(1.92132e-06 0 0)
(1.92132e-06 0 0)
(1.92133e-06 0 0)
(1.92135e-06 0 0)
(1.9214e-06 0 0)
(1.92146e-06 0 0)
(1.92154e-06 0 0)
(1.92163e-06 0 0)
(1.92175e-06 0 0)
(1.9219e-06 0 0)
(1.92206e-06 0 0)
(1.92224e-06 0 0)
(1.92245e-06 0 0)
(1.92269e-06 0 0)
(1.92294e-06 0 0)
(1.92322e-06 0 0)
(1.92353e-06 0 0)
(1.92385e-06 0 0)
(1.9242e-06 0 0)
(1.92457e-06 0 0)
(1.92495e-06 0 0)
(1.92536e-06 0 0)
(1.92578e-06 0 0)
(1.92621e-06 0 0)
(1.92666e-06 0 0)
(1.92711e-06 0 0)
(1.92757e-06 0 0)
(1.92804e-06 0 0)
(1.9285e-06 0 0)
(1.92896e-06 0 0)
(1.92942e-06 0 0)
(1.92986e-06 0 0)
(1.9303e-06 0 0)
(1.93071e-06 0 0)
(1.93111e-06 0 0)
(1.93148e-06 0 0)
(1.93182e-06 0 0)
(1.93214e-06 0 0)
(1.93241e-06 0 0)
(1.93266e-06 0 0)
(1.93286e-06 0 0)
(1.93302e-06 0 0)
(1.93313e-06 0 0)
(1.9332e-06 0 0)
(1.93322e-06 0 0)
(1.93319e-06 0 0)
(1.93311e-06 0 0)
(1.93297e-06 0 0)
(1.93279e-06 0 0)
(1.93255e-06 0 0)
(1.93226e-06 0 0)
(1.93193e-06 0 0)
(1.93154e-06 0 0)
(1.93111e-06 0 0)
(1.93064e-06 0 0)
(1.93013e-06 0 0)
(1.92957e-06 0 0)
(1.92899e-06 0 0)
(1.92837e-06 0 0)
(1.92772e-06 0 0)
(1.92705e-06 0 0)
(1.92636e-06 0 0)
(1.92565e-06 0 0)
(1.92493e-06 0 0)
(1.9242e-06 0 0)
(1.92347e-06 0 0)
(1.92273e-06 0 0)
(1.92199e-06 0 0)
(1.92126e-06 0 0)
(1.92053e-06 0 0)
(1.91981e-06 0 0)
(1.91909e-06 0 0)
(1.9184e-06 0 0)
(1.91771e-06 0 0)
(1.91704e-06 0 0)
(1.91638e-06 0 0)
(1.91574e-06 0 0)
(1.91512e-06 0 0)
(1.91452e-06 0 0)
(1.91393e-06 0 0)
(1.91336e-06 0 0)
(1.9128e-06 0 0)
(1.91226e-06 0 0)
(1.91174e-06 0 0)
(1.91123e-06 0 0)
(1.91074e-06 0 0)
(1.91025e-06 0 0)
(1.90979e-06 0 0)
(1.90933e-06 0 0)
(1.90888e-06 0 0)
(1.90844e-06 0 0)
(1.90801e-06 0 0)
(1.90759e-06 0 0)
(1.90717e-06 0 0)
(1.90676e-06 0 0)
(1.90636e-06 0 0)
(1.90596e-06 0 0)
(1.90557e-06 0 0)
(1.90518e-06 0 0)
(1.90479e-06 0 0)
(1.9044e-06 0 0)
(1.90402e-06 0 0)
(1.90364e-06 0 0)
(1.90326e-06 0 0)
(1.90288e-06 0 0)
(1.9025e-06 0 0)
(1.90213e-06 0 0)
(1.90176e-06 0 0)
(1.90139e-06 0 0)
(1.90102e-06 0 0)
(1.90065e-06 0 0)
(1.90029e-06 0 0)
(1.89993e-06 0 0)
(1.89957e-06 0 0)
(1.89922e-06 0 0)
(1.89886e-06 0 0)
(1.89852e-06 0 0)
(1.89818e-06 0 0)
(1.89784e-06 0 0)
(1.89751e-06 0 0)
(1.89719e-06 0 0)
(1.89687e-06 0 0)
(1.89656e-06 0 0)
(1.89626e-06 0 0)
(1.89597e-06 0 0)
(1.89569e-06 0 0)
(1.89541e-06 0 0)
(1.89515e-06 0 0)
(1.8949e-06 0 0)
(1.89466e-06 0 0)
(1.89443e-06 0 0)
(1.89421e-06 0 0)
(1.89401e-06 0 0)
(1.89381e-06 0 0)
(1.89363e-06 0 0)
(1.89346e-06 0 0)
(1.8933e-06 0 0)
(1.89316e-06 0 0)
(1.89302e-06 0 0)
(1.8929e-06 0 0)
(1.89278e-06 0 0)
(1.89268e-06 0 0)
(1.89258e-06 0 0)
(1.89249e-06 0 0)
(1.89242e-06 0 0)
(1.89235e-06 0 0)
(1.89229e-06 0 0)
(1.89223e-06 0 0)
(1.89219e-06 0 0)
(1.89215e-06 0 0)
(1.89211e-06 0 0)
(1.89209e-06 0 0)
(1.89206e-06 0 0)
(1.89205e-06 0 0)
(1.89204e-06 0 0)
(1.89203e-06 0 0)
(1.89202e-06 0 0)
(1.89202e-06 0 0)
(1.89202e-06 0 0)
(1.892e-06 0 0)
(1.08751e-06 0 0)
)
;

boundaryField
{
    inlet
    {
        type            fixedValue;
        value           uniform (2.74882e-06 0 0);
    }
    outlet
    {
        type            zeroGradient;
    }
    emptyWalls
    {
        type            empty;
    }
}


// ************************************************************************* //
