/*--------------------------------*- C++ -*----------------------------------*\
  =========                 |
  \\      /  F ield         | OpenFOAM: The Open Source CFD Toolbox
   \\    /   O peration     | Website:  https://openfoam.org
    \\  /    A nd           | Version:  9
     \\/     M anipulation  |
\*---------------------------------------------------------------------------*/
FoamFile
{
    format      ascii;
    class       volScalarField;
    location    "26000";
    object      kra;
}
// * * * * * * * * * * * * * * * * * * * * * * * * * * * * * * * * * * * * * //

dimensions      [0 0 0 0 0 0 0];

internalField   nonuniform List<scalar> 
1000
(
0.000236641
0.000237407
0.000238416
0.00023944
0.000240464
0.00024149
0.000242529
0.000243574
0.000244623
0.000245699
0.000246759
0.00024787
0.000248937
0.000250084
0.000251148
0.000252314
0.000253377
0.000254523
0.000255587
0.000256676
0.000257714
0.000258723
0.000259682
0.000260586
0.000261424
0.000262196
0.000262894
0.000263524
0.000264083
0.000264573
0.000265023
0.000265401
0.000265883
0.00026665
0.000269315
0.000279167
0.000333231
0.000644565
0.000847553
0.000887266
0.000901092
0.000908102
0.000913318
0.000919227
0.000926224
0.000933036
0.000938126
0.000940881
0.000941779
0.000941829
0.000941515
0.000939122
0.000935832
0.000933062
0.000931014
0.000929725
0.000929099
0.000928947
0.000929023
0.00092967
0.000930438
0.000931019
0.000931331
0.000931407
0.000931401
0.000931363
0.00093112
0.000930862
0.000930428
0.000930067
0.000929565
0.000929138
0.00092859
0.000928124
0.000927543
0.000927038
0.000926457
0.000925871
0.000925278
0.000924668
0.000924045
0.000923404
0.000922754
0.000922081
0.000921394
0.000920689
0.000919972
0.000919231
0.000918477
0.000917698
0.000916894
0.000916053
0.000915179
0.000914255
0.000913278
0.000912224
0.000911084
0.00090983
0.000908442
0.000906891
0.000905163
0.000903248
0.000901163
0.000898937
0.000896613
0.000894223
0.000891787
0.000889317
0.000886825
0.000884317
0.000881803
0.000879292
0.000876791
0.00087431
0.000871855
0.000869431
0.000867041
0.000864685
0.000862358
0.000860052
0.000857753
0.000855453
0.000853144
0.00085083
0.000848512
0.000846197
0.000843888
0.000841593
0.000839326
0.000837114
0.000834989
0.00083299
0.000831147
0.00082948
0.000827989
0.000826661
0.000825467
0.000824374
0.00082335
0.000822365
0.000821393
0.000820414
0.000819404
0.000818341
0.000817195
0.000815938
0.000814537
0.000812962
0.000811192
0.000809211
0.000807016
0.000804617
0.000802035
0.0007993
0.00079645
0.000793528
0.000790574
0.000787631
0.000784734
0.000781913
0.000779191
0.000776584
0.000774099
0.000771738
0.000769499
0.000767373
0.000765349
0.000763414
0.000761554
0.000759754
0.000758002
0.000756284
0.00075459
0.000752911
0.00075124
0.000749571
0.000747901
0.000746227
0.000744548
0.000742864
0.000741176
0.000739484
0.000737791
0.000736098
0.000734406
0.000732718
0.000731034
0.000729357
0.000727687
0.000726025
0.000724373
0.000722731
0.000721099
0.000719478
0.000717868
0.00071627
0.000714684
0.00071311
0.000711547
0.000709997
0.000708459
0.000706934
0.000705421
0.000703921
0.000702433
0.000700956
0.000699493
0.00069804
0.0006966
0.00069517
0.000693753
0.000692346
0.00069095
0.000689566
0.000688193
0.000686832
0.000685483
0.000684145
0.00068282
0.000681507
0.000680206
0.000678916
0.000677637
0.000676367
0.000675108
0.000673857
0.000672614
0.000671379
0.000670152
0.000668932
0.000667721
0.000666517
0.000665323
0.000664137
0.000662963
0.000661798
0.000660643
0.000659499
0.000658365
0.000657238
0.00065612
0.000655006
0.000653897
0.00065279
0.000651685
0.00065058
0.000649477
0.000648377
0.000647283
0.0006462
0.000645132
0.000644087
0.000643068
0.000642084
0.00064114
0.00064024
0.00063939
0.000638592
0.000637846
0.000637154
0.000636514
0.000635923
0.000635377
0.000634869
0.000634393
0.000633941
0.000633504
0.00063307
0.000632631
0.000632173
0.000631685
0.000631156
0.000630575
0.000629931
0.000629215
0.000628421
0.000627542
0.000626577
0.000625526
0.00062439
0.000623175
0.000621888
0.000620539
0.000619139
0.0006177
0.000616234
0.000614754
0.000613273
0.000611801
0.000610349
0.000608924
0.000607533
0.000606182
0.000604872
0.000603606
0.000602384
0.000601204
0.000600065
0.000598964
0.000597896
0.000596859
0.000595849
0.00059486
0.00059389
0.000592935
0.000591992
0.000591058
0.000590129
0.000589205
0.000588284
0.000587363
0.000586443
0.000585522
0.000584601
0.000583678
0.000582755
0.00058183
0.000580905
0.00057998
0.000579056
0.000578132
0.00057721
0.000576289
0.00057537
0.000574454
0.000573541
0.000572632
0.000571726
0.000570825
0.000569927
0.000569035
0.000568147
0.000567264
0.000566386
0.000565513
0.000564645
0.000563783
0.000562927
0.000562076
0.00056123
0.00056039
0.000559555
0.000558726
0.000557902
0.000557084
0.000556271
0.000555465
0.000554663
0.000553868
0.000553078
0.000552294
0.000551515
0.000550743
0.000549976
0.000549214
0.000548458
0.000547707
0.000546962
0.000546221
0.000545486
0.000544755
0.000544029
0.000543307
0.000542589
0.000541877
0.000541168
0.000540464
0.000539764
0.000539069
0.000538378
0.000537692
0.00053701
0.000536332
0.000535658
0.000534989
0.000534322
0.000533659
0.000532999
0.000532341
0.000531686
0.000531033
0.000530383
0.000529735
0.000529091
0.000528451
0.000527816
0.000527188
0.000526568
0.000525957
0.000525359
0.000524774
0.000524205
0.000523653
0.000523121
0.00052261
0.000522122
0.000521657
0.000521216
0.0005208
0.000520408
0.00052004
0.000519693
0.000519368
0.00051906
0.000518768
0.000518488
0.000518217
0.000517951
0.000517685
0.000517415
0.000517136
0.000516843
0.000516532
0.000516197
0.000515835
0.000515441
0.000515012
0.000514545
0.000514037
0.000513487
0.000512895
0.000512259
0.000511582
0.000510865
0.000510112
0.000509324
0.000508507
0.000507664
0.000506801
0.000505922
0.000505033
0.000504138
0.000503242
0.000502349
0.000501465
0.00050059
0.00049973
0.000498884
0.000498058
0.000497249
0.00049646
0.00049569
0.00049494
0.000494209
0.000493496
0.000492799
0.000492117
0.00049145
0.000490795
0.000490151
0.000489517
0.000488891
0.000488272
0.000487658
0.00048705
0.000486444
0.000485842
0.000485242
0.000484643
0.000484045
0.000483447
0.00048285
0.000482254
0.000481657
0.00048106
0.000480464
0.000479867
0.000479272
0.000478676
0.000478081
0.000477487
0.000476894
0.000476302
0.000475712
0.000475123
0.000474536
0.000473952
0.000473369
0.000472788
0.00047221
0.000471634
0.000471061
0.000470491
0.000469924
0.000469359
0.000468797
0.000468239
0.000467683
0.000467131
0.000466582
0.000466036
0.000465493
0.000464954
0.000464417
0.000463885
0.000463355
0.000462829
0.000462306
0.000461786
0.00046127
0.000460757
0.000460247
0.000459741
0.000459238
0.000458738
0.000458241
0.000457747
0.000457256
0.000456768
0.000456283
0.000455801
0.000455322
0.000454845
0.000454371
0.0004539
0.000453431
0.000452965
0.000452502
0.000452041
0.000451582
0.000451126
0.000450672
0.000450221
0.000449771
0.000449323
0.000448878
0.000448434
0.000447992
0.000447552
0.000447114
0.000446678
0.000446245
0.000445814
0.000445385
0.00044496
0.000444539
0.000444121
0.000443709
0.000443302
0.000442902
0.000442508
0.000442123
0.000441747
0.00044138
0.000441023
0.000440678
0.000440344
0.000440022
0.000439713
0.000439417
0.000439133
0.000438862
0.000438604
0.000438357
0.000438122
0.000437897
0.000437681
0.000437474
0.000437272
0.000437075
0.000436881
0.000436689
0.000436494
0.000436297
0.000436094
0.000435884
0.000435664
0.000435431
0.000435184
0.000434922
0.00043464
0.00043434
0.000434018
0.000433674
0.000433307
0.000432917
0.000432503
0.000432066
0.000431605
0.000431123
0.00043062
0.000430097
0.000429556
0.000429
0.00042843
0.000427849
0.000427259
0.000426662
0.00042606
0.000425456
0.000424851
0.000424249
0.00042365
0.000423057
0.000422469
0.00042189
0.000421318
0.000420756
0.000420203
0.000419662
0.000419128
0.000418607
0.000418092
0.000417591
0.000417094
0.00041661
0.000416129
0.000415661
0.000415192
0.000414738
0.00041428
0.000413836
0.000413386
0.00041295
0.000412505
0.000412077
0.000411635
0.000411211
0.000410771
0.000410351
0.000409912
0.000409495
0.000409056
0.000408641
0.000408202
0.000407788
0.000407349
0.000406937
0.000406497
0.000406087
0.000405648
0.000405239
0.000404801
0.000404393
0.000403958
0.000403551
0.000403118
0.000402713
0.000402283
0.00040188
0.000401454
0.000401052
0.00040063
0.00040023
0.000399813
0.000399415
0.000399003
0.000398607
0.0003982
0.000397807
0.000397405
0.000397014
0.000396618
0.00039623
0.000395839
0.000395454
0.000395068
0.000394687
0.000394306
0.000393928
0.000393551
0.000393178
0.000392806
0.000392436
0.000392068
0.000391703
0.000391339
0.000390978
0.000390618
0.00039026
0.000389904
0.000389551
0.000389198
0.000388848
0.0003885
0.000388153
0.000387808
0.000387465
0.000387123
0.000386784
0.000386445
0.000386108
0.000385773
0.000385439
0.000385106
0.000384775
0.000384445
0.000384117
0.00038379
0.000383465
0.000383141
0.000382819
0.000382498
0.00038218
0.000381863
0.000381549
0.000381236
0.000380927
0.00038062
0.000380318
0.000380018
0.000379723
0.000379431
0.000379145
0.000378864
0.000378588
0.000378318
0.000378055
0.000377797
0.000377547
0.000377304
0.000377068
0.000376839
0.000376618
0.000376404
0.000376198
0.000375998
0.000375806
0.000375619
0.00037544
0.000375264
0.000375096
0.000374929
0.000374769
0.000374607
0.000374452
0.000374292
0.000374137
0.000373975
0.000373816
0.000373647
0.00037348
0.0003733
0.000373119
0.000372924
0.000372726
0.00037251
0.000372291
0.000372052
0.000371808
0.000371544
0.000371273
0.000370981
0.000370682
0.000370362
0.000370035
0.000369687
0.000369334
0.00036896
0.000368582
0.000368185
0.000367786
0.00036737
0.000366954
0.000366524
0.000366095
0.000365654
0.000365218
0.000364772
0.000364332
0.000363885
0.000363446
0.000363002
0.000362567
0.000362129
0.000361701
0.000361271
0.000360853
0.000360433
0.000360025
0.000359615
0.000359218
0.00035882
0.000358434
0.000358045
0.00035767
0.00035729
0.000356925
0.000356554
0.000356197
0.000355832
0.000355484
0.000355124
0.000354782
0.000354427
0.00035409
0.000353738
0.000353406
0.000353055
0.000352727
0.000352377
0.000352052
0.000351703
0.000351381
0.000351032
0.000350711
0.000350362
0.000350043
0.000349694
0.000349377
0.000349027
0.000348712
0.000348363
0.000348049
0.0003477
0.000347388
0.000347039
0.000346729
0.00034638
0.000346073
0.000345725
0.00034542
0.000345073
0.00034477
0.000344425
0.000344125
0.00034378
0.000343483
0.000343141
0.000342846
0.000342506
0.000342214
0.000341875
0.000341588
0.000341251
0.000340966
0.000340631
0.000340351
0.000340017
0.00033974
0.000339409
0.000339136
0.000338806
0.000338537
0.000338209
0.000337944
0.000337617
0.000337357
0.00033703
0.000336776
0.000336449
0.0003362
0.000335874
0.000335629
0.000335303
0.000335064
0.000334737
0.000334503
0.000334176
0.000333948
0.000333619
0.000333396
0.000333067
0.000332849
0.000332519
0.000332306
0.000331976
0.000331767
0.000331438
0.000331231
0.000330904
0.000330699
0.000330376
0.00033017
0.000329852
0.000329646
0.000329334
0.000329127
0.000328822
0.000328613
0.000328317
0.000328107
0.00032782
0.000327609
0.000327331
0.000327121
0.000326853
0.000326645
0.000326387
0.000326181
0.000325934
0.000325731
0.000325496
0.000325298
0.000325073
0.000324881
0.000324668
0.000324482
0.000324279
0.0003241
0.000323907
0.000323736
0.000323551
0.000323388
0.000323211
0.000323056
0.000322884
0.000322735
0.000322568
0.000322425
0.00032226
0.00032212
0.000321956
0.000321817
0.000321651
0.000321513
0.000321341
0.000321201
0.000321021
0.000320876
0.000320687
0.000320535
0.000320333
0.000320172
0.000319954
0.000319784
0.000319547
0.000319365
0.000319108
0.000318914
0.000318634
0.000318428
0.000318125
0.000317907
0.000317579
0.000317349
0.000316998
0.000316758
0.000316384
0.000316134
0.000315739
0.000315481
0.000315068
0.000314804
0.000314375
0.000314106
0.000313665
0.000313394
0.000312943
0.000312672
0.000312215
0.000311945
0.000311484
0.000311217
0.000310754
0.000310493
0.00031003
0.000309776
0.000309314
0.000309068
0.000308607
0.000308372
0.000307913
0.000307686
0.000307231
0.000307014
0.000306561
0.000306353
0.000305902
0.000305705
0.000305255
0.000305067
0.000304619
0.000304439
0.000303992
0.00030382
0.000303373
0.000303209
0.000302762
0.000302606
0.000302158
0.000302008
0.00030156
0.000301417
0.000300968
0.000300831
0.000300384
0.00030025
0.000299806
0.000299676
0.000299236
0.000299109
0.000298675
0.000298551
0.000298125
0.000298004
0.000297588
0.00029747
0.000297066
0.000296953
0.000296562
0.000296455
0.00029608
0.000295981
0.000295624
0.000295534
0.000295197
0.000295119
0.000294614
0.0441859
)
;

boundaryField
{
    inlet
    {
        type            calculated;
        value           uniform 0.000236304;
    }
    outlet
    {
        type            calculated;
        value           uniform 2.21532e-05;
    }
    emptyWalls
    {
        type            empty;
    }
}


// ************************************************************************* //
