/*--------------------------------*- C++ -*----------------------------------*\
  =========                 |
  \\      /  F ield         | OpenFOAM: The Open Source CFD Toolbox
   \\    /   O peration     | Website:  https://openfoam.org
    \\  /    A nd           | Version:  9
     \\/     M anipulation  |
\*---------------------------------------------------------------------------*/
FoamFile
{
    format      ascii;
    class       volScalarField;
    location    "26000";
    object      krb;
}
// * * * * * * * * * * * * * * * * * * * * * * * * * * * * * * * * * * * * * //

dimensions      [0 0 0 0 0 0 0];

internalField   nonuniform List<scalar> 
1000
(
0.0978088
0.0981261
0.0985527
0.0989778
0.0994088
0.0998452
0.100281
0.100725
0.10118
0.101627
0.102104
0.102552
0.103053
0.103497
0.104023
0.104467
0.104999
0.105455
0.105964
0.106429
0.1069
0.107349
0.107779
0.108184
0.108564
0.10891
0.109228
0.109511
0.109764
0.109994
0.110185
0.110391
0.110564
0.110979
0.11214
0.116782
0.14435
0.332036
0.462054
0.489823
0.499993
0.505422
0.508965
0.511518
0.513471
0.515089
0.516539
0.517905
0.519191
0.520378
0.521462
0.522529
0.523535
0.524436
0.525232
0.525933
0.526549
0.527093
0.527578
0.527998
0.528373
0.528715
0.52903
0.529319
0.529579
0.529809
0.530018
0.530201
0.530362
0.530498
0.530614
0.530704
0.530777
0.530825
0.530856
0.530863
0.530852
0.530819
0.530766
0.530691
0.530596
0.53048
0.530342
0.530183
0.530002
0.529799
0.529572
0.529321
0.529045
0.528742
0.528411
0.528048
0.527651
0.527215
0.526733
0.526197
0.525595
0.524912
0.524129
0.523228
0.522193
0.521017
0.519711
0.518302
0.516827
0.515308
0.513761
0.512194
0.510617
0.509035
0.507451
0.505868
0.504289
0.502714
0.501146
0.499584
0.49803
0.496485
0.494947
0.49342
0.491901
0.490393
0.488896
0.487409
0.485932
0.484465
0.483009
0.481563
0.480126
0.478698
0.477279
0.475867
0.474461
0.473061
0.471667
0.470278
0.468897
0.467523
0.466156
0.464799
0.46345
0.462111
0.460782
0.459463
0.458155
0.456858
0.455574
0.454302
0.453043
0.451798
0.450565
0.449346
0.448139
0.446944
0.44576
0.444585
0.443418
0.442259
0.441107
0.439961
0.43882
0.437683
0.436551
0.435424
0.434301
0.433182
0.432069
0.43096
0.429856
0.428758
0.427665
0.426578
0.425498
0.424423
0.423355
0.422293
0.421238
0.420188
0.419146
0.418109
0.417079
0.416055
0.415036
0.414024
0.413017
0.412017
0.411021
0.410032
0.409047
0.408069
0.407095
0.406127
0.405163
0.404205
0.403252
0.402304
0.401361
0.400422
0.399489
0.39856
0.397636
0.396717
0.395802
0.394892
0.393986
0.393085
0.392188
0.391296
0.390408
0.389524
0.388645
0.38777
0.386899
0.386033
0.38517
0.384312
0.383457
0.382607
0.38176
0.380918
0.380079
0.379245
0.378414
0.377587
0.376763
0.375944
0.375128
0.374316
0.373508
0.372703
0.371903
0.371105
0.370311
0.369521
0.368734
0.367951
0.367171
0.366394
0.365621
0.364851
0.364085
0.363322
0.362562
0.361805
0.361052
0.360303
0.359556
0.358813
0.358073
0.357336
0.356602
0.355871
0.355142
0.354416
0.353691
0.352969
0.352249
0.351531
0.350815
0.350101
0.349389
0.348678
0.347969
0.347263
0.346559
0.345857
0.345158
0.344461
0.343768
0.343077
0.34239
0.341707
0.341028
0.340353
0.339682
0.339015
0.338353
0.337696
0.337043
0.336394
0.33575
0.335109
0.334473
0.33384
0.333211
0.332584
0.331961
0.33134
0.330721
0.330104
0.329489
0.328875
0.328263
0.327653
0.327044
0.326436
0.325829
0.325224
0.324621
0.324019
0.323418
0.322819
0.322222
0.321627
0.321034
0.320442
0.319852
0.319265
0.318679
0.318096
0.317514
0.316935
0.316358
0.315783
0.315209
0.314638
0.314069
0.313502
0.312937
0.312374
0.311813
0.311253
0.310696
0.310141
0.309587
0.309035
0.308485
0.307937
0.30739
0.306846
0.306303
0.305761
0.305222
0.304684
0.304148
0.303613
0.303081
0.302549
0.30202
0.301492
0.300965
0.300441
0.299918
0.299396
0.298876
0.298358
0.297841
0.297325
0.296811
0.296299
0.295788
0.295279
0.294771
0.294264
0.29376
0.293256
0.292754
0.292253
0.291754
0.291257
0.29076
0.290266
0.289772
0.28928
0.28879
0.2883
0.287812
0.287326
0.286841
0.286357
0.285875
0.285394
0.284914
0.284436
0.283959
0.283483
0.283009
0.282536
0.282064
0.281593
0.281124
0.280657
0.28019
0.279725
0.279261
0.278798
0.278337
0.277876
0.277417
0.276959
0.276501
0.276045
0.27559
0.275135
0.274681
0.274228
0.273776
0.273325
0.272874
0.272424
0.271975
0.271527
0.271079
0.270633
0.270187
0.269742
0.269298
0.268855
0.268414
0.267973
0.267534
0.267097
0.266661
0.266226
0.265793
0.265362
0.264933
0.264506
0.264081
0.263658
0.263236
0.262817
0.262399
0.261984
0.26157
0.261158
0.260747
0.260338
0.259931
0.259525
0.25912
0.258716
0.258314
0.257912
0.257511
0.257111
0.256712
0.256313
0.255915
0.255517
0.255121
0.254724
0.254329
0.253934
0.253539
0.253146
0.252752
0.25236
0.251968
0.251577
0.251187
0.250797
0.250408
0.25002
0.249633
0.249247
0.248862
0.248477
0.248093
0.24771
0.247329
0.246948
0.246567
0.246188
0.24581
0.245432
0.245055
0.24468
0.244304
0.24393
0.243557
0.243185
0.242813
0.242442
0.242072
0.241703
0.241334
0.240966
0.240599
0.240233
0.239868
0.239503
0.239139
0.238776
0.238414
0.238052
0.237691
0.237331
0.236971
0.236612
0.236254
0.235897
0.23554
0.235184
0.234829
0.234474
0.23412
0.233767
0.233414
0.233063
0.232711
0.232361
0.232011
0.231662
0.231313
0.230965
0.230618
0.230271
0.229925
0.22958
0.229235
0.228891
0.228548
0.228205
0.227863
0.227522
0.227181
0.226841
0.226501
0.226162
0.225824
0.225486
0.225149
0.224813
0.224477
0.224142
0.223807
0.223473
0.22314
0.222807
0.222475
0.222144
0.221813
0.221482
0.221153
0.220823
0.220495
0.220166
0.219839
0.219512
0.219185
0.218859
0.218533
0.218208
0.217883
0.217558
0.217234
0.21691
0.216587
0.216264
0.215941
0.215619
0.215297
0.214975
0.214654
0.214333
0.214013
0.213692
0.213373
0.213054
0.212735
0.212417
0.2121
0.211783
0.211467
0.211151
0.210837
0.210523
0.210209
0.209897
0.209586
0.209275
0.208965
0.208657
0.208349
0.208042
0.207736
0.207431
0.207127
0.206824
0.206522
0.206221
0.20592
0.20562
0.205321
0.205023
0.204725
0.204428
0.204132
0.203836
0.20354
0.203245
0.202951
0.202657
0.202363
0.202069
0.201776
0.201483
0.20119
0.200898
0.200606
0.200314
0.200023
0.199732
0.199441
0.19915
0.19886
0.19857
0.19828
0.197991
0.197702
0.197413
0.197125
0.196837
0.19655
0.196263
0.195976
0.19569
0.195404
0.195118
0.194833
0.194548
0.194264
0.19398
0.193697
0.193414
0.193132
0.192849
0.192567
0.192286
0.192005
0.191724
0.191444
0.191164
0.190885
0.190605
0.190327
0.190048
0.189771
0.189493
0.189216
0.188939
0.188662
0.188386
0.18811
0.187834
0.187559
0.187284
0.18701
0.186736
0.186462
0.186189
0.185915
0.185643
0.18537
0.185098
0.184826
0.184554
0.184283
0.184012
0.183742
0.183471
0.183201
0.182932
0.182662
0.182393
0.182125
0.181856
0.181588
0.18132
0.181053
0.180785
0.180518
0.180252
0.179986
0.179719
0.179454
0.179188
0.178923
0.178658
0.178394
0.178129
0.177865
0.177602
0.177338
0.177075
0.176812
0.17655
0.176287
0.176025
0.175764
0.175502
0.175241
0.17498
0.174719
0.174459
0.174199
0.173939
0.173679
0.17342
0.173161
0.172902
0.172643
0.172384
0.172126
0.171868
0.17161
0.171352
0.171094
0.170837
0.170579
0.170322
0.170065
0.169808
0.169551
0.169295
0.169038
0.168782
0.168526
0.16827
0.168014
0.167759
0.167503
0.167248
0.166993
0.166738
0.166484
0.166229
0.165975
0.165722
0.165468
0.165215
0.164962
0.16471
0.164458
0.164206
0.163955
0.163704
0.163454
0.163204
0.162954
0.162705
0.162456
0.162208
0.16196
0.161713
0.161466
0.161219
0.160973
0.160728
0.160482
0.160237
0.159993
0.159748
0.159504
0.159261
0.159017
0.158774
0.158531
0.158288
0.158045
0.157803
0.157561
0.157318
0.157076
0.156834
0.156593
0.156351
0.156109
0.155868
0.155626
0.155385
0.155144
0.154903
0.154662
0.154421
0.15418
0.153939
0.153698
0.153458
0.153217
0.152977
0.152737
0.152496
0.152256
0.152016
0.151777
0.151537
0.151298
0.151058
0.150819
0.15058
0.150341
0.150102
0.149863
0.149624
0.149386
0.149147
0.148909
0.148671
0.148433
0.148195
0.147957
0.147719
0.147482
0.147244
0.147007
0.14677
0.146533
0.146296
0.146059
0.145822
0.145585
0.145348
0.145112
0.144875
0.144639
0.144403
0.144167
0.14393
0.143695
0.143458
0.143223
0.142986
0.142751
0.142515
0.14228
0.142044
0.141809
0.141573
0.141338
0.141102
0.140867
0.140631
0.140397
0.140161
0.139926
0.139691
0.139456
0.139221
0.138986
0.138751
0.138516
0.138281
0.138047
0.137811
0.137577
0.137342
0.137108
0.136873
0.136639
0.136403
0.136169
0.135934
0.1357
0.135465
0.135231
0.134996
0.134762
0.134527
0.134293
0.134058
0.133824
0.133589
0.133355
0.13312
0.132886
0.132651
0.132417
0.132181
0.131947
0.131712
0.131478
0.131243
0.131008
0.130773
0.130539
0.130303
0.130069
0.129833
0.129598
0.129363
0.129128
0.128892
0.128657
0.128421
0.128186
0.12795
0.127714
0.127478
0.127242
0.127006
0.12677
0.126533
0.126297
0.12606
0.125823
0.125586
0.12535
0.125113
0.124876
0.124638
0.124401
0.124164
0.123926
0.123689
0.123451
0.123214
0.122976
0.122738
0.122501
0.122263
0.122025
0.121787
0.121549
0.121311
0.121073
0.120835
0.120597
0.120359
0.120121
0.119882
0.119645
0.119406
0.119169
0.118929
0.118692
0.118453
0.118215
0.117976
0.117738
0.117498
0.117261
0.117021
0.116783
0.116543
0.116305
0.116064
0.115826
0.115584
0.115347
0.115104
0.114867
0.114623
0.114386
0.11414
0.113904
0.113658
0.113422
0.113175
0.112938
0.112691
0.112453
0.112206
0.111968
0.11172
0.111482
0.111233
0.110995
0.110746
0.110508
0.110258
0.11002
0.10977
0.109532
0.109282
0.109043
0.108794
0.108555
0.108307
0.108068
0.10782
0.107581
0.107334
0.107097
0.106849
0.106616
0.106366
0.106138
0.105887
0.105664
0.105413
0.105198
0.104944
0.104739
0.104483
0.10429
0.104034
0.103854
0.103597
0.103432
0.103178
0.10303
0.102777
0.102649
0.102401
0.102293
0.102053
0.101967
0.0664197
)
;

boundaryField
{
    inlet
    {
        type            calculated;
        value           uniform 0.0976562;
    }
    outlet
    {
        type            calculated;
        value           uniform 0.0664197;
    }
    emptyWalls
    {
        type            empty;
    }
}


// ************************************************************************* //
