/*--------------------------------*- C++ -*----------------------------------*\
  =========                 |
  \\      /  F ield         | OpenFOAM: The Open Source CFD Toolbox
   \\    /   O peration     | Website:  https://openfoam.org
    \\  /    A nd           | Version:  9
     \\/     M anipulation  |
\*---------------------------------------------------------------------------*/
FoamFile
{
    format      ascii;
    class       volVectorField;
    location    "26000";
    object      Ub;
}
// * * * * * * * * * * * * * * * * * * * * * * * * * * * * * * * * * * * * * //

dimensions      [0 0 0 0 0 0 0];

internalField   nonuniform List<vector> 
1000
(
(1.13619e-05 0 0)
(1.13621e-05 0 0)
(1.13622e-05 0 0)
(1.13623e-05 0 0)
(1.13624e-05 0 0)
(1.13625e-05 0 0)
(1.13626e-05 0 0)
(1.13628e-05 0 0)
(1.13629e-05 0 0)
(1.13631e-05 0 0)
(1.13633e-05 0 0)
(1.13636e-05 0 0)
(1.13638e-05 0 0)
(1.1364e-05 0 0)
(1.13643e-05 0 0)
(1.13646e-05 0 0)
(1.1365e-05 0 0)
(1.13654e-05 0 0)
(1.13658e-05 0 0)
(1.13662e-05 0 0)
(1.13666e-05 0 0)
(1.1367e-05 0 0)
(1.13674e-05 0 0)
(1.13677e-05 0 0)
(1.13681e-05 0 0)
(1.13684e-05 0 0)
(1.13687e-05 0 0)
(1.13689e-05 0 0)
(1.13692e-05 0 0)
(1.13694e-05 0 0)
(1.13697e-05 0 0)
(1.13699e-05 0 0)
(1.13702e-05 0 0)
(1.13708e-05 0 0)
(1.13729e-05 0 0)
(1.13816e-05 0 0)
(1.14366e-05 0 0)
(1.16024e-05 0 0)
(1.17401e-05 0 0)
(1.17651e-05 0 0)
(1.17726e-05 0 0)
(1.17759e-05 0 0)
(1.17762e-05 0 0)
(1.17725e-05 0 0)
(1.17656e-05 0 0)
(1.1758e-05 0 0)
(1.17528e-05 0 0)
(1.17512e-05 0 0)
(1.17526e-05 0 0)
(1.17554e-05 0 0)
(1.17593e-05 0 0)
(1.17663e-05 0 0)
(1.17751e-05 0 0)
(1.17826e-05 0 0)
(1.17884e-05 0 0)
(1.17926e-05 0 0)
(1.17952e-05 0 0)
(1.17969e-05 0 0)
(1.17977e-05 0 0)
(1.17974e-05 0 0)
(1.17966e-05 0 0)
(1.17961e-05 0 0)
(1.17959e-05 0 0)
(1.1796e-05 0 0)
(1.17963e-05 0 0)
(1.17965e-05 0 0)
(1.1797e-05 0 0)
(1.17976e-05 0 0)
(1.17982e-05 0 0)
(1.17989e-05 0 0)
(1.17995e-05 0 0)
(1.18001e-05 0 0)
(1.18006e-05 0 0)
(1.18012e-05 0 0)
(1.18016e-05 0 0)
(1.18021e-05 0 0)
(1.18025e-05 0 0)
(1.18028e-05 0 0)
(1.18031e-05 0 0)
(1.18033e-05 0 0)
(1.18035e-05 0 0)
(1.18036e-05 0 0)
(1.18037e-05 0 0)
(1.18037e-05 0 0)
(1.18037e-05 0 0)
(1.18036e-05 0 0)
(1.18034e-05 0 0)
(1.18032e-05 0 0)
(1.18029e-05 0 0)
(1.18025e-05 0 0)
(1.18021e-05 0 0)
(1.18016e-05 0 0)
(1.1801e-05 0 0)
(1.18003e-05 0 0)
(1.17995e-05 0 0)
(1.17986e-05 0 0)
(1.17975e-05 0 0)
(1.17963e-05 0 0)
(1.17948e-05 0 0)
(1.17931e-05 0 0)
(1.1791e-05 0 0)
(1.17886e-05 0 0)
(1.17859e-05 0 0)
(1.1783e-05 0 0)
(1.17798e-05 0 0)
(1.17765e-05 0 0)
(1.17732e-05 0 0)
(1.17697e-05 0 0)
(1.17663e-05 0 0)
(1.17628e-05 0 0)
(1.17592e-05 0 0)
(1.17556e-05 0 0)
(1.1752e-05 0 0)
(1.17483e-05 0 0)
(1.17446e-05 0 0)
(1.17409e-05 0 0)
(1.1737e-05 0 0)
(1.17332e-05 0 0)
(1.17292e-05 0 0)
(1.17253e-05 0 0)
(1.17213e-05 0 0)
(1.17174e-05 0 0)
(1.17135e-05 0 0)
(1.17097e-05 0 0)
(1.17059e-05 0 0)
(1.1702e-05 0 0)
(1.16983e-05 0 0)
(1.16945e-05 0 0)
(1.16906e-05 0 0)
(1.16867e-05 0 0)
(1.16826e-05 0 0)
(1.16783e-05 0 0)
(1.16736e-05 0 0)
(1.16686e-05 0 0)
(1.16633e-05 0 0)
(1.16577e-05 0 0)
(1.16518e-05 0 0)
(1.16456e-05 0 0)
(1.16394e-05 0 0)
(1.16331e-05 0 0)
(1.16267e-05 0 0)
(1.16204e-05 0 0)
(1.16142e-05 0 0)
(1.16081e-05 0 0)
(1.16022e-05 0 0)
(1.15966e-05 0 0)
(1.15913e-05 0 0)
(1.15864e-05 0 0)
(1.1582e-05 0 0)
(1.1578e-05 0 0)
(1.15745e-05 0 0)
(1.15715e-05 0 0)
(1.1569e-05 0 0)
(1.15667e-05 0 0)
(1.15648e-05 0 0)
(1.15631e-05 0 0)
(1.15615e-05 0 0)
(1.15598e-05 0 0)
(1.15582e-05 0 0)
(1.15564e-05 0 0)
(1.15543e-05 0 0)
(1.15521e-05 0 0)
(1.15496e-05 0 0)
(1.15469e-05 0 0)
(1.15439e-05 0 0)
(1.15407e-05 0 0)
(1.15373e-05 0 0)
(1.15337e-05 0 0)
(1.153e-05 0 0)
(1.15261e-05 0 0)
(1.15221e-05 0 0)
(1.15181e-05 0 0)
(1.15141e-05 0 0)
(1.151e-05 0 0)
(1.15059e-05 0 0)
(1.15019e-05 0 0)
(1.14978e-05 0 0)
(1.14938e-05 0 0)
(1.14899e-05 0 0)
(1.14859e-05 0 0)
(1.1482e-05 0 0)
(1.14781e-05 0 0)
(1.14742e-05 0 0)
(1.14704e-05 0 0)
(1.14665e-05 0 0)
(1.14627e-05 0 0)
(1.14589e-05 0 0)
(1.14551e-05 0 0)
(1.14513e-05 0 0)
(1.14475e-05 0 0)
(1.14436e-05 0 0)
(1.14398e-05 0 0)
(1.1436e-05 0 0)
(1.14321e-05 0 0)
(1.14283e-05 0 0)
(1.14244e-05 0 0)
(1.14205e-05 0 0)
(1.14167e-05 0 0)
(1.14128e-05 0 0)
(1.14088e-05 0 0)
(1.14049e-05 0 0)
(1.1401e-05 0 0)
(1.1397e-05 0 0)
(1.13931e-05 0 0)
(1.13891e-05 0 0)
(1.13851e-05 0 0)
(1.13811e-05 0 0)
(1.1377e-05 0 0)
(1.1373e-05 0 0)
(1.13689e-05 0 0)
(1.13649e-05 0 0)
(1.13608e-05 0 0)
(1.13567e-05 0 0)
(1.13526e-05 0 0)
(1.13485e-05 0 0)
(1.13443e-05 0 0)
(1.13402e-05 0 0)
(1.1336e-05 0 0)
(1.13318e-05 0 0)
(1.13276e-05 0 0)
(1.13234e-05 0 0)
(1.13191e-05 0 0)
(1.13149e-05 0 0)
(1.13106e-05 0 0)
(1.13063e-05 0 0)
(1.1302e-05 0 0)
(1.12978e-05 0 0)
(1.12934e-05 0 0)
(1.12891e-05 0 0)
(1.12848e-05 0 0)
(1.12805e-05 0 0)
(1.12762e-05 0 0)
(1.12718e-05 0 0)
(1.12674e-05 0 0)
(1.12631e-05 0 0)
(1.12587e-05 0 0)
(1.12543e-05 0 0)
(1.12499e-05 0 0)
(1.12454e-05 0 0)
(1.1241e-05 0 0)
(1.12365e-05 0 0)
(1.12321e-05 0 0)
(1.12276e-05 0 0)
(1.12231e-05 0 0)
(1.12187e-05 0 0)
(1.12143e-05 0 0)
(1.12098e-05 0 0)
(1.12054e-05 0 0)
(1.1201e-05 0 0)
(1.11965e-05 0 0)
(1.1192e-05 0 0)
(1.11875e-05 0 0)
(1.11829e-05 0 0)
(1.11782e-05 0 0)
(1.11734e-05 0 0)
(1.11685e-05 0 0)
(1.11635e-05 0 0)
(1.11584e-05 0 0)
(1.11531e-05 0 0)
(1.11477e-05 0 0)
(1.11422e-05 0 0)
(1.11365e-05 0 0)
(1.11307e-05 0 0)
(1.11249e-05 0 0)
(1.11189e-05 0 0)
(1.11129e-05 0 0)
(1.11069e-05 0 0)
(1.11009e-05 0 0)
(1.10948e-05 0 0)
(1.10889e-05 0 0)
(1.1083e-05 0 0)
(1.10773e-05 0 0)
(1.10716e-05 0 0)
(1.10662e-05 0 0)
(1.1061e-05 0 0)
(1.10559e-05 0 0)
(1.10511e-05 0 0)
(1.10466e-05 0 0)
(1.10423e-05 0 0)
(1.10382e-05 0 0)
(1.10344e-05 0 0)
(1.10307e-05 0 0)
(1.10272e-05 0 0)
(1.10239e-05 0 0)
(1.10207e-05 0 0)
(1.10176e-05 0 0)
(1.10145e-05 0 0)
(1.10115e-05 0 0)
(1.10084e-05 0 0)
(1.10053e-05 0 0)
(1.10021e-05 0 0)
(1.09989e-05 0 0)
(1.09955e-05 0 0)
(1.09921e-05 0 0)
(1.09885e-05 0 0)
(1.09848e-05 0 0)
(1.0981e-05 0 0)
(1.09771e-05 0 0)
(1.09732e-05 0 0)
(1.09691e-05 0 0)
(1.09649e-05 0 0)
(1.09607e-05 0 0)
(1.09565e-05 0 0)
(1.09521e-05 0 0)
(1.09478e-05 0 0)
(1.09434e-05 0 0)
(1.0939e-05 0 0)
(1.09346e-05 0 0)
(1.09302e-05 0 0)
(1.09258e-05 0 0)
(1.09214e-05 0 0)
(1.0917e-05 0 0)
(1.09126e-05 0 0)
(1.09082e-05 0 0)
(1.09038e-05 0 0)
(1.08994e-05 0 0)
(1.08951e-05 0 0)
(1.08907e-05 0 0)
(1.08864e-05 0 0)
(1.0882e-05 0 0)
(1.08777e-05 0 0)
(1.08734e-05 0 0)
(1.0869e-05 0 0)
(1.08647e-05 0 0)
(1.08604e-05 0 0)
(1.0856e-05 0 0)
(1.08517e-05 0 0)
(1.08473e-05 0 0)
(1.0843e-05 0 0)
(1.08386e-05 0 0)
(1.08343e-05 0 0)
(1.08299e-05 0 0)
(1.08255e-05 0 0)
(1.08211e-05 0 0)
(1.08167e-05 0 0)
(1.08123e-05 0 0)
(1.08079e-05 0 0)
(1.08035e-05 0 0)
(1.0799e-05 0 0)
(1.07946e-05 0 0)
(1.07901e-05 0 0)
(1.07856e-05 0 0)
(1.07812e-05 0 0)
(1.07767e-05 0 0)
(1.07722e-05 0 0)
(1.07676e-05 0 0)
(1.07631e-05 0 0)
(1.07586e-05 0 0)
(1.0754e-05 0 0)
(1.07494e-05 0 0)
(1.07449e-05 0 0)
(1.07403e-05 0 0)
(1.07357e-05 0 0)
(1.07311e-05 0 0)
(1.07264e-05 0 0)
(1.07218e-05 0 0)
(1.07171e-05 0 0)
(1.07125e-05 0 0)
(1.07078e-05 0 0)
(1.07031e-05 0 0)
(1.06984e-05 0 0)
(1.06937e-05 0 0)
(1.0689e-05 0 0)
(1.06843e-05 0 0)
(1.06796e-05 0 0)
(1.06748e-05 0 0)
(1.06701e-05 0 0)
(1.06653e-05 0 0)
(1.06606e-05 0 0)
(1.06558e-05 0 0)
(1.0651e-05 0 0)
(1.06462e-05 0 0)
(1.06414e-05 0 0)
(1.06366e-05 0 0)
(1.06318e-05 0 0)
(1.0627e-05 0 0)
(1.06221e-05 0 0)
(1.06173e-05 0 0)
(1.06124e-05 0 0)
(1.06076e-05 0 0)
(1.06027e-05 0 0)
(1.05979e-05 0 0)
(1.0593e-05 0 0)
(1.05881e-05 0 0)
(1.05833e-05 0 0)
(1.05784e-05 0 0)
(1.05735e-05 0 0)
(1.05685e-05 0 0)
(1.05636e-05 0 0)
(1.05586e-05 0 0)
(1.05536e-05 0 0)
(1.05485e-05 0 0)
(1.05434e-05 0 0)
(1.05382e-05 0 0)
(1.05329e-05 0 0)
(1.05276e-05 0 0)
(1.05222e-05 0 0)
(1.05168e-05 0 0)
(1.05113e-05 0 0)
(1.05057e-05 0 0)
(1.05e-05 0 0)
(1.04943e-05 0 0)
(1.04885e-05 0 0)
(1.04826e-05 0 0)
(1.04767e-05 0 0)
(1.04708e-05 0 0)
(1.04648e-05 0 0)
(1.04589e-05 0 0)
(1.04529e-05 0 0)
(1.04469e-05 0 0)
(1.0441e-05 0 0)
(1.04351e-05 0 0)
(1.04293e-05 0 0)
(1.04236e-05 0 0)
(1.04179e-05 0 0)
(1.04123e-05 0 0)
(1.04069e-05 0 0)
(1.04015e-05 0 0)
(1.03963e-05 0 0)
(1.03912e-05 0 0)
(1.03863e-05 0 0)
(1.03815e-05 0 0)
(1.03768e-05 0 0)
(1.03723e-05 0 0)
(1.03678e-05 0 0)
(1.03635e-05 0 0)
(1.03592e-05 0 0)
(1.03551e-05 0 0)
(1.0351e-05 0 0)
(1.0347e-05 0 0)
(1.0343e-05 0 0)
(1.0339e-05 0 0)
(1.0335e-05 0 0)
(1.0331e-05 0 0)
(1.0327e-05 0 0)
(1.0323e-05 0 0)
(1.0319e-05 0 0)
(1.03148e-05 0 0)
(1.03107e-05 0 0)
(1.03064e-05 0 0)
(1.03022e-05 0 0)
(1.02978e-05 0 0)
(1.02934e-05 0 0)
(1.0289e-05 0 0)
(1.02845e-05 0 0)
(1.02799e-05 0 0)
(1.02753e-05 0 0)
(1.02707e-05 0 0)
(1.0266e-05 0 0)
(1.02613e-05 0 0)
(1.02565e-05 0 0)
(1.02517e-05 0 0)
(1.02469e-05 0 0)
(1.02421e-05 0 0)
(1.02373e-05 0 0)
(1.02325e-05 0 0)
(1.02276e-05 0 0)
(1.02228e-05 0 0)
(1.02179e-05 0 0)
(1.02131e-05 0 0)
(1.02082e-05 0 0)
(1.02034e-05 0 0)
(1.01985e-05 0 0)
(1.01937e-05 0 0)
(1.01888e-05 0 0)
(1.0184e-05 0 0)
(1.01791e-05 0 0)
(1.01743e-05 0 0)
(1.01694e-05 0 0)
(1.01646e-05 0 0)
(1.01597e-05 0 0)
(1.01549e-05 0 0)
(1.015e-05 0 0)
(1.01452e-05 0 0)
(1.01403e-05 0 0)
(1.01354e-05 0 0)
(1.01306e-05 0 0)
(1.01257e-05 0 0)
(1.01208e-05 0 0)
(1.01159e-05 0 0)
(1.0111e-05 0 0)
(1.01061e-05 0 0)
(1.01012e-05 0 0)
(1.00963e-05 0 0)
(1.00913e-05 0 0)
(1.00864e-05 0 0)
(1.00814e-05 0 0)
(1.00765e-05 0 0)
(1.00715e-05 0 0)
(1.00665e-05 0 0)
(1.00615e-05 0 0)
(1.00565e-05 0 0)
(1.00515e-05 0 0)
(1.00465e-05 0 0)
(1.00415e-05 0 0)
(1.00364e-05 0 0)
(1.00314e-05 0 0)
(1.00263e-05 0 0)
(1.00212e-05 0 0)
(1.00161e-05 0 0)
(1.0011e-05 0 0)
(1.00059e-05 0 0)
(1.00008e-05 0 0)
(9.99569e-06 0 0)
(9.99056e-06 0 0)
(9.98541e-06 0 0)
(9.98025e-06 0 0)
(9.97509e-06 0 0)
(9.96991e-06 0 0)
(9.96472e-06 0 0)
(9.95953e-06 0 0)
(9.95432e-06 0 0)
(9.94911e-06 0 0)
(9.94388e-06 0 0)
(9.93865e-06 0 0)
(9.93341e-06 0 0)
(9.92816e-06 0 0)
(9.9229e-06 0 0)
(9.91763e-06 0 0)
(9.91235e-06 0 0)
(9.90707e-06 0 0)
(9.90178e-06 0 0)
(9.89648e-06 0 0)
(9.89117e-06 0 0)
(9.88585e-06 0 0)
(9.88053e-06 0 0)
(9.8752e-06 0 0)
(9.86987e-06 0 0)
(9.86453e-06 0 0)
(9.85918e-06 0 0)
(9.85382e-06 0 0)
(9.84845e-06 0 0)
(9.84308e-06 0 0)
(9.8377e-06 0 0)
(9.8323e-06 0 0)
(9.82689e-06 0 0)
(9.82147e-06 0 0)
(9.81602e-06 0 0)
(9.81056e-06 0 0)
(9.80508e-06 0 0)
(9.79957e-06 0 0)
(9.79404e-06 0 0)
(9.78847e-06 0 0)
(9.78287e-06 0 0)
(9.77724e-06 0 0)
(9.77157e-06 0 0)
(9.76585e-06 0 0)
(9.7601e-06 0 0)
(9.7543e-06 0 0)
(9.74846e-06 0 0)
(9.74257e-06 0 0)
(9.73664e-06 0 0)
(9.73067e-06 0 0)
(9.72466e-06 0 0)
(9.71861e-06 0 0)
(9.71252e-06 0 0)
(9.7064e-06 0 0)
(9.70025e-06 0 0)
(9.69407e-06 0 0)
(9.68788e-06 0 0)
(9.68168e-06 0 0)
(9.67548e-06 0 0)
(9.66927e-06 0 0)
(9.66308e-06 0 0)
(9.6569e-06 0 0)
(9.65075e-06 0 0)
(9.64462e-06 0 0)
(9.63854e-06 0 0)
(9.6325e-06 0 0)
(9.62652e-06 0 0)
(9.62059e-06 0 0)
(9.61473e-06 0 0)
(9.60894e-06 0 0)
(9.60322e-06 0 0)
(9.59757e-06 0 0)
(9.59201e-06 0 0)
(9.58652e-06 0 0)
(9.58111e-06 0 0)
(9.57577e-06 0 0)
(9.5705e-06 0 0)
(9.56531e-06 0 0)
(9.56018e-06 0 0)
(9.5551e-06 0 0)
(9.55008e-06 0 0)
(9.54511e-06 0 0)
(9.54017e-06 0 0)
(9.53526e-06 0 0)
(9.53037e-06 0 0)
(9.5255e-06 0 0)
(9.52063e-06 0 0)
(9.51576e-06 0 0)
(9.51089e-06 0 0)
(9.506e-06 0 0)
(9.50109e-06 0 0)
(9.49616e-06 0 0)
(9.4912e-06 0 0)
(9.48621e-06 0 0)
(9.48119e-06 0 0)
(9.47614e-06 0 0)
(9.47105e-06 0 0)
(9.46592e-06 0 0)
(9.46076e-06 0 0)
(9.45556e-06 0 0)
(9.45033e-06 0 0)
(9.44507e-06 0 0)
(9.43977e-06 0 0)
(9.43445e-06 0 0)
(9.4291e-06 0 0)
(9.42372e-06 0 0)
(9.41833e-06 0 0)
(9.41291e-06 0 0)
(9.40747e-06 0 0)
(9.40202e-06 0 0)
(9.39655e-06 0 0)
(9.39108e-06 0 0)
(9.38559e-06 0 0)
(9.38009e-06 0 0)
(9.37458e-06 0 0)
(9.36906e-06 0 0)
(9.36354e-06 0 0)
(9.35801e-06 0 0)
(9.35248e-06 0 0)
(9.34695e-06 0 0)
(9.3414e-06 0 0)
(9.33586e-06 0 0)
(9.33031e-06 0 0)
(9.32476e-06 0 0)
(9.3192e-06 0 0)
(9.31364e-06 0 0)
(9.30807e-06 0 0)
(9.3025e-06 0 0)
(9.29693e-06 0 0)
(9.29135e-06 0 0)
(9.28576e-06 0 0)
(9.28017e-06 0 0)
(9.27457e-06 0 0)
(9.26897e-06 0 0)
(9.26335e-06 0 0)
(9.25774e-06 0 0)
(9.25211e-06 0 0)
(9.24647e-06 0 0)
(9.24083e-06 0 0)
(9.23518e-06 0 0)
(9.22952e-06 0 0)
(9.22385e-06 0 0)
(9.21817e-06 0 0)
(9.21248e-06 0 0)
(9.20679e-06 0 0)
(9.20108e-06 0 0)
(9.19536e-06 0 0)
(9.18963e-06 0 0)
(9.18389e-06 0 0)
(9.17814e-06 0 0)
(9.17238e-06 0 0)
(9.16661e-06 0 0)
(9.16083e-06 0 0)
(9.15504e-06 0 0)
(9.14924e-06 0 0)
(9.14342e-06 0 0)
(9.1376e-06 0 0)
(9.13176e-06 0 0)
(9.12591e-06 0 0)
(9.12006e-06 0 0)
(9.11419e-06 0 0)
(9.10831e-06 0 0)
(9.10241e-06 0 0)
(9.09651e-06 0 0)
(9.0906e-06 0 0)
(9.08467e-06 0 0)
(9.07874e-06 0 0)
(9.07279e-06 0 0)
(9.06684e-06 0 0)
(9.06087e-06 0 0)
(9.05489e-06 0 0)
(9.0489e-06 0 0)
(9.0429e-06 0 0)
(9.0369e-06 0 0)
(9.03088e-06 0 0)
(9.02485e-06 0 0)
(9.01881e-06 0 0)
(9.01276e-06 0 0)
(9.0067e-06 0 0)
(9.00063e-06 0 0)
(8.99456e-06 0 0)
(8.98847e-06 0 0)
(8.98237e-06 0 0)
(8.97627e-06 0 0)
(8.97015e-06 0 0)
(8.96403e-06 0 0)
(8.95789e-06 0 0)
(8.95175e-06 0 0)
(8.94559e-06 0 0)
(8.93942e-06 0 0)
(8.93325e-06 0 0)
(8.92706e-06 0 0)
(8.92086e-06 0 0)
(8.91464e-06 0 0)
(8.90841e-06 0 0)
(8.90217e-06 0 0)
(8.8959e-06 0 0)
(8.88963e-06 0 0)
(8.88333e-06 0 0)
(8.87701e-06 0 0)
(8.87067e-06 0 0)
(8.8643e-06 0 0)
(8.85792e-06 0 0)
(8.8515e-06 0 0)
(8.84506e-06 0 0)
(8.83859e-06 0 0)
(8.83209e-06 0 0)
(8.82556e-06 0 0)
(8.81901e-06 0 0)
(8.81242e-06 0 0)
(8.80579e-06 0 0)
(8.79914e-06 0 0)
(8.79246e-06 0 0)
(8.78574e-06 0 0)
(8.779e-06 0 0)
(8.77222e-06 0 0)
(8.76543e-06 0 0)
(8.7586e-06 0 0)
(8.75175e-06 0 0)
(8.74489e-06 0 0)
(8.738e-06 0 0)
(8.7311e-06 0 0)
(8.72419e-06 0 0)
(8.71727e-06 0 0)
(8.71035e-06 0 0)
(8.70342e-06 0 0)
(8.6965e-06 0 0)
(8.68959e-06 0 0)
(8.68269e-06 0 0)
(8.6758e-06 0 0)
(8.66893e-06 0 0)
(8.66209e-06 0 0)
(8.65527e-06 0 0)
(8.64848e-06 0 0)
(8.64172e-06 0 0)
(8.635e-06 0 0)
(8.62832e-06 0 0)
(8.62167e-06 0 0)
(8.61507e-06 0 0)
(8.60851e-06 0 0)
(8.60199e-06 0 0)
(8.59552e-06 0 0)
(8.58909e-06 0 0)
(8.5827e-06 0 0)
(8.57634e-06 0 0)
(8.57003e-06 0 0)
(8.56375e-06 0 0)
(8.5575e-06 0 0)
(8.55128e-06 0 0)
(8.54509e-06 0 0)
(8.53891e-06 0 0)
(8.53276e-06 0 0)
(8.52661e-06 0 0)
(8.52047e-06 0 0)
(8.51434e-06 0 0)
(8.50821e-06 0 0)
(8.50208e-06 0 0)
(8.49594e-06 0 0)
(8.48979e-06 0 0)
(8.48362e-06 0 0)
(8.47744e-06 0 0)
(8.47124e-06 0 0)
(8.46501e-06 0 0)
(8.45877e-06 0 0)
(8.4525e-06 0 0)
(8.4462e-06 0 0)
(8.43988e-06 0 0)
(8.43353e-06 0 0)
(8.42716e-06 0 0)
(8.42075e-06 0 0)
(8.41432e-06 0 0)
(8.40787e-06 0 0)
(8.40139e-06 0 0)
(8.39488e-06 0 0)
(8.38835e-06 0 0)
(8.3818e-06 0 0)
(8.37522e-06 0 0)
(8.36863e-06 0 0)
(8.36201e-06 0 0)
(8.35537e-06 0 0)
(8.34872e-06 0 0)
(8.34205e-06 0 0)
(8.33536e-06 0 0)
(8.32866e-06 0 0)
(8.32195e-06 0 0)
(8.31521e-06 0 0)
(8.30847e-06 0 0)
(8.30172e-06 0 0)
(8.29495e-06 0 0)
(8.28817e-06 0 0)
(8.28138e-06 0 0)
(8.27457e-06 0 0)
(8.26776e-06 0 0)
(8.26093e-06 0 0)
(8.2541e-06 0 0)
(8.24725e-06 0 0)
(8.2404e-06 0 0)
(8.23353e-06 0 0)
(8.22665e-06 0 0)
(8.21976e-06 0 0)
(8.21286e-06 0 0)
(8.20594e-06 0 0)
(8.19902e-06 0 0)
(8.19208e-06 0 0)
(8.18513e-06 0 0)
(8.17817e-06 0 0)
(8.1712e-06 0 0)
(8.16421e-06 0 0)
(8.15721e-06 0 0)
(8.1502e-06 0 0)
(8.14317e-06 0 0)
(8.13613e-06 0 0)
(8.12907e-06 0 0)
(8.122e-06 0 0)
(8.11491e-06 0 0)
(8.10781e-06 0 0)
(8.1007e-06 0 0)
(8.09357e-06 0 0)
(8.08642e-06 0 0)
(8.07926e-06 0 0)
(8.07208e-06 0 0)
(8.06489e-06 0 0)
(8.05768e-06 0 0)
(8.05046e-06 0 0)
(8.04321e-06 0 0)
(8.03596e-06 0 0)
(8.02868e-06 0 0)
(8.02139e-06 0 0)
(8.01408e-06 0 0)
(8.00675e-06 0 0)
(7.99941e-06 0 0)
(7.99205e-06 0 0)
(7.98468e-06 0 0)
(7.97728e-06 0 0)
(7.96987e-06 0 0)
(7.96244e-06 0 0)
(7.955e-06 0 0)
(7.94754e-06 0 0)
(7.94006e-06 0 0)
(7.93256e-06 0 0)
(7.92504e-06 0 0)
(7.91751e-06 0 0)
(7.90996e-06 0 0)
(7.90239e-06 0 0)
(7.89481e-06 0 0)
(7.88721e-06 0 0)
(7.87959e-06 0 0)
(7.87195e-06 0 0)
(7.8643e-06 0 0)
(7.85662e-06 0 0)
(7.84894e-06 0 0)
(7.84123e-06 0 0)
(7.8335e-06 0 0)
(7.82576e-06 0 0)
(7.818e-06 0 0)
(7.81022e-06 0 0)
(7.80243e-06 0 0)
(7.79461e-06 0 0)
(7.78678e-06 0 0)
(7.77893e-06 0 0)
(7.77106e-06 0 0)
(7.76317e-06 0 0)
(7.75526e-06 0 0)
(7.74733e-06 0 0)
(7.73939e-06 0 0)
(7.73142e-06 0 0)
(7.72343e-06 0 0)
(7.71541e-06 0 0)
(7.70738e-06 0 0)
(7.69932e-06 0 0)
(7.69124e-06 0 0)
(7.68313e-06 0 0)
(7.675e-06 0 0)
(7.66684e-06 0 0)
(7.65866e-06 0 0)
(7.65044e-06 0 0)
(7.6422e-06 0 0)
(7.63393e-06 0 0)
(7.62563e-06 0 0)
(7.6173e-06 0 0)
(7.60894e-06 0 0)
(7.60055e-06 0 0)
(7.59213e-06 0 0)
(7.58367e-06 0 0)
(7.57518e-06 0 0)
(7.56666e-06 0 0)
(7.5581e-06 0 0)
(7.54951e-06 0 0)
(7.54089e-06 0 0)
(7.53224e-06 0 0)
(7.52355e-06 0 0)
(7.51484e-06 0 0)
(7.50609e-06 0 0)
(7.49731e-06 0 0)
(7.48851e-06 0 0)
(7.47968e-06 0 0)
(7.47082e-06 0 0)
(7.46194e-06 0 0)
(7.45303e-06 0 0)
(7.4441e-06 0 0)
(7.43516e-06 0 0)
(7.42619e-06 0 0)
(7.41721e-06 0 0)
(7.40822e-06 0 0)
(7.39921e-06 0 0)
(7.39019e-06 0 0)
(7.38117e-06 0 0)
(7.37213e-06 0 0)
(7.3631e-06 0 0)
(7.35406e-06 0 0)
(7.34502e-06 0 0)
(7.33598e-06 0 0)
(7.32694e-06 0 0)
(7.31791e-06 0 0)
(7.30888e-06 0 0)
(7.29986e-06 0 0)
(7.29084e-06 0 0)
(7.28183e-06 0 0)
(7.27282e-06 0 0)
(7.26383e-06 0 0)
(7.25484e-06 0 0)
(7.24585e-06 0 0)
(7.23687e-06 0 0)
(7.2279e-06 0 0)
(7.21893e-06 0 0)
(7.20997e-06 0 0)
(7.201e-06 0 0)
(7.19203e-06 0 0)
(7.18306e-06 0 0)
(7.17409e-06 0 0)
(7.16511e-06 0 0)
(7.15612e-06 0 0)
(7.14711e-06 0 0)
(7.1381e-06 0 0)
(7.12906e-06 0 0)
(7.12001e-06 0 0)
(7.11094e-06 0 0)
(7.10184e-06 0 0)
(7.09272e-06 0 0)
(7.08358e-06 0 0)
(7.0744e-06 0 0)
(7.06519e-06 0 0)
(7.05595e-06 0 0)
(7.04668e-06 0 0)
(7.03737e-06 0 0)
(7.02803e-06 0 0)
(7.01866e-06 0 0)
(7.00924e-06 0 0)
(6.99979e-06 0 0)
(6.9903e-06 0 0)
(6.98077e-06 0 0)
(6.9712e-06 0 0)
(6.9616e-06 0 0)
(6.95196e-06 0 0)
(6.94229e-06 0 0)
(6.93258e-06 0 0)
(6.92283e-06 0 0)
(6.91305e-06 0 0)
(6.90324e-06 0 0)
(6.89339e-06 0 0)
(6.88352e-06 0 0)
(6.87362e-06 0 0)
(6.86368e-06 0 0)
(6.85373e-06 0 0)
(6.84374e-06 0 0)
(6.83374e-06 0 0)
(6.82372e-06 0 0)
(6.81369e-06 0 0)
(6.80363e-06 0 0)
(6.79357e-06 0 0)
(6.7835e-06 0 0)
(6.77342e-06 0 0)
(6.76336e-06 0 0)
(6.75329e-06 0 0)
(6.74323e-06 0 0)
(6.73319e-06 0 0)
(6.72318e-06 0 0)
(6.71319e-06 0 0)
(6.70325e-06 0 0)
(6.69336e-06 0 0)
(6.68352e-06 0 0)
(6.67376e-06 0 0)
(6.66408e-06 0 0)
(6.65449e-06 0 0)
(6.64502e-06 0 0)
(6.63567e-06 0 0)
(6.62647e-06 0 0)
(6.61743e-06 0 0)
(6.60858e-06 0 0)
(6.59992e-06 0 0)
(6.59148e-06 0 0)
(6.58329e-06 0 0)
(6.57536e-06 0 0)
(6.56772e-06 0 0)
(6.56038e-06 0 0)
(6.55335e-06 0 0)
(7.01628e-06 0 0)
)
;

boundaryField
{
    inlet
    {
        type            fixedValue;
        value           uniform (1.13622e-05 0 0);
    }
    outlet
    {
        type            zeroGradient;
    }
    emptyWalls
    {
        type            empty;
    }
}


// ************************************************************************* //
