/*--------------------------------*- C++ -*----------------------------------*\
  =========                 |
  \\      /  F ield         | OpenFOAM: The Open Source CFD Toolbox
   \\    /   O peration     | Website:  https://openfoam.org
    \\  /    A nd           | Version:  9
     \\/     M anipulation  |
\*---------------------------------------------------------------------------*/
FoamFile
{
    format      ascii;
    class       volScalarField;
    location    "5550";
    object      Sb;
}
// * * * * * * * * * * * * * * * * * * * * * * * * * * * * * * * * * * * * * //

dimensions      [0 0 0 0 0 0 0];

internalField   nonuniform List<scalar> 
1000
(
0.351308
0.353661
0.356962
0.358761
0.361923
0.366439
0.383116
0.486876
0.63677
0.665706
0.674316
0.678303
0.680485
0.681738
0.682437
0.682803
0.682914
0.682792
0.682246
0.681012
0.678773
0.675557
0.671896
0.668062
0.664175
0.660298
0.656465
0.652694
0.648995
0.645371
0.641824
0.638353
0.634957
0.631635
0.628383
0.625199
0.622083
0.619029
0.616037
0.613104
0.610227
0.607405
0.604636
0.601918
0.599248
0.596625
0.594047
0.591513
0.589022
0.586571
0.584159
0.581784
0.579447
0.577144
0.574875
0.572639
0.570435
0.568261
0.566117
0.564001
0.561913
0.559852
0.557818
0.555809
0.553825
0.551865
0.549927
0.54801
0.546115
0.544239
0.542383
0.540546
0.538726
0.536925
0.535142
0.533376
0.531628
0.529898
0.528185
0.526489
0.524811
0.52315
0.521507
0.519881
0.518272
0.516681
0.515106
0.513548
0.512005
0.510477
0.508962
0.507461
0.505972
0.504494
0.503026
0.501567
0.500117
0.498676
0.497242
0.495816
0.494397
0.492986
0.491583
0.490187
0.488798
0.487417
0.486044
0.484679
0.483321
0.481972
0.480629
0.479295
0.477968
0.476648
0.475336
0.47403
0.472732
0.47144
0.470154
0.468875
0.467602
0.466335
0.465073
0.463817
0.462566
0.461321
0.46008
0.458845
0.457614
0.456388
0.455166
0.453948
0.452735
0.451525
0.450319
0.449117
0.447919
0.446724
0.445532
0.444343
0.443158
0.441975
0.440795
0.439617
0.438443
0.43727
0.436099
0.434931
0.433764
0.4326
0.431436
0.430275
0.429115
0.427956
0.426798
0.425641
0.424484
0.423329
0.422174
0.42102
0.419866
0.418712
0.417557
0.416403
0.415249
0.414094
0.412938
0.411782
0.410624
0.409466
0.408306
0.407145
0.405982
0.404817
0.40365
0.40248
0.401309
0.400134
0.398957
0.397777
0.396594
0.395407
0.394216
0.393022
0.391823
0.39062
0.389412
0.388199
0.386981
0.385758
0.384529
0.383294
0.382053
0.380807
0.379553
0.378294
0.377027
0.375756
0.374479
0.373197
0.371912
0.370625
0.369338
0.368055
0.366779
0.365517
0.364274
0.363058
0.361876
0.360738
0.359648
0.358612
0.357626
0.356671
0.35571
0.354661
0.35338
0.351612
0.348935
0.344701
0.338042
0.328093
0.314598
0.298669
0.282813
0.269623
0.260288
0.254459
0.251114
0.249291
0.248326
0.247823
0.247563
0.24743
0.247361
0.247325
0.247307
0.247298
0.247293
0.247289
0.247288
0.247286
0.247285
0.247284
0.247284
0.247283
0.247282
0.247281
0.24728
0.247279
0.247277
0.247276
0.247275
0.247274
0.247273
0.247271
0.24727
0.247269
0.247268
0.247267
0.247266
0.247266
0.247265
0.247264
0.247264
0.247264
0.247264
0.247264
0.247264
0.247264
0.247265
0.247266
0.247267
0.247268
0.247269
0.24727
0.247271
0.247273
0.247274
0.247276
0.247277
0.247279
0.24728
0.247281
0.247283
0.247284
0.247285
0.247286
0.247287
0.247287
0.247288
0.247288
0.247289
0.247289
0.247289
0.247289
0.247289
0.247289
0.247289
0.247289
0.247289
0.247289
0.247288
0.247288
0.247288
0.247287
0.247287
0.247287
0.247286
0.247286
0.247285
0.247285
0.247285
0.247285
0.247284
0.247284
0.247284
0.247284
0.247283
0.247283
0.247283
0.247283
0.247283
0.247282
0.247282
0.247282
0.247282
0.247282
0.247282
0.247282
0.247282
0.247282
0.247282
0.247282
0.247282
0.247282
0.247282
0.247282
0.247282
0.247282
0.247282
0.247282
0.247282
0.247282
0.247282
0.247282
0.247282
0.247282
0.247282
0.247282
0.247283
0.247283
0.247283
0.247283
0.247283
0.247283
0.247283
0.247283
0.247284
0.247284
0.247284
0.247284
0.247284
0.247284
0.247284
0.247285
0.247285
0.247285
0.247285
0.247285
0.247285
0.247285
0.247285
0.247285
0.247286
0.247286
0.247286
0.247286
0.247286
0.247286
0.247286
0.247286
0.247286
0.247286
0.247286
0.247286
0.247286
0.247287
0.247287
0.247287
0.247287
0.247287
0.247287
0.247287
0.247287
0.247287
0.247287
0.247287
0.247287
0.247287
0.247287
0.247287
0.247288
0.247288
0.247288
0.247288
0.247288
0.247288
0.247288
0.247288
0.247288
0.247288
0.247288
0.247287
0.247287
0.247287
0.247287
0.247287
0.247287
0.247287
0.247287
0.247287
0.247286
0.247286
0.247286
0.247286
0.247286
0.247285
0.247285
0.247285
0.247285
0.247284
0.247284
0.247284
0.247283
0.247283
0.247283
0.247282
0.247282
0.247282
0.247281
0.247281
0.24728
0.24728
0.24728
0.247279
0.247279
0.247278
0.247278
0.247277
0.247276
0.247276
0.247275
0.247274
0.247273
0.247273
0.247272
0.247271
0.24727
0.247269
0.247268
0.247267
0.247266
0.247265
0.247264
0.247263
0.247262
0.247261
0.24726
0.247259
0.247259
0.247258
0.247257
0.247257
0.247256
0.247256
0.247255
0.247255
0.247255
0.247256
0.247256
0.247256
0.247257
0.247257
0.247258
0.247259
0.24726
0.247261
0.247262
0.247264
0.247265
0.247266
0.247268
0.247269
0.24727
0.247271
0.247273
0.247274
0.247275
0.247276
0.247277
0.247277
0.247278
0.247279
0.247279
0.24728
0.24728
0.247281
0.247281
0.247281
0.247281
0.247282
0.247282
0.247282
0.247282
0.247282
0.247282
0.247282
0.247282
0.247282
0.247282
0.247282
0.247282
0.247282
0.247281
0.247281
0.247281
0.247281
0.247281
0.247281
0.247281
0.247281
0.247281
0.247282
0.247282
0.247282
0.247282
0.247282
0.247282
0.247282
0.247282
0.247282
0.247282
0.247282
0.247283
0.247283
0.247283
0.247283
0.247283
0.247283
0.247283
0.247284
0.247284
0.247284
0.247284
0.247284
0.247284
0.247284
0.247284
0.247285
0.247285
0.247285
0.247285
0.247285
0.247285
0.247285
0.247285
0.247286
0.247286
0.247286
0.247286
0.247286
0.247286
0.247286
0.247287
0.247287
0.247287
0.247287
0.247287
0.247287
0.247287
0.247287
0.247288
0.247288
0.247288
0.247288
0.247288
0.247288
0.247288
0.247288
0.247288
0.247288
0.247288
0.247288
0.247289
0.247289
0.247289
0.247289
0.247289
0.247289
0.247289
0.247289
0.247289
0.247289
0.247289
0.247289
0.247289
0.247289
0.247289
0.247289
0.247289
0.247289
0.247288
0.247288
0.247288
0.247288
0.247288
0.247288
0.247288
0.247288
0.247288
0.247288
0.247288
0.247288
0.247288
0.247288
0.247288
0.247288
0.247288
0.247287
0.247287
0.247287
0.247287
0.247287
0.247287
0.247287
0.247287
0.247287
0.247286
0.247286
0.247286
0.247286
0.247286
0.247286
0.247285
0.247285
0.247285
0.247285
0.247284
0.247284
0.247284
0.247283
0.247283
0.247283
0.247282
0.247282
0.247281
0.247281
0.24728
0.24728
0.247279
0.247278
0.247278
0.247277
0.247277
0.247276
0.247275
0.247274
0.247274
0.247273
0.247272
0.247271
0.24727
0.247269
0.247269
0.247268
0.247267
0.247266
0.247265
0.247265
0.247264
0.247263
0.247263
0.247262
0.247261
0.247261
0.247261
0.24726
0.24726
0.24726
0.24726
0.24726
0.24726
0.24726
0.24726
0.24726
0.247261
0.247261
0.247262
0.247262
0.247263
0.247264
0.247265
0.247266
0.247267
0.247268
0.247269
0.24727
0.247271
0.247272
0.247273
0.247274
0.247275
0.247276
0.247276
0.247277
0.247278
0.247279
0.247279
0.24728
0.24728
0.247281
0.247281
0.247281
0.247282
0.247282
0.247282
0.247282
0.247282
0.247282
0.247282
0.247282
0.247282
0.247282
0.247282
0.247282
0.247282
0.247282
0.247282
0.247282
0.247282
0.247282
0.247282
0.247282
0.247282
0.247282
0.247282
0.247282
0.247282
0.247282
0.247282
0.247282
0.247282
0.247282
0.247282
0.247282
0.247283
0.247283
0.247283
0.247283
0.247283
0.247283
0.247283
0.247283
0.247283
0.247283
0.247283
0.247283
0.247283
0.247283
0.247283
0.247283
0.247283
0.247283
0.247283
0.247284
0.247284
0.247284
0.247284
0.247284
0.247284
0.247284
0.247284
0.247284
0.247284
0.247284
0.247284
0.247284
0.247284
0.247284
0.247284
0.247285
0.247285
0.247285
0.247285
0.247285
0.247285
0.247285
0.247285
0.247285
0.247285
0.247286
0.247286
0.247286
0.247286
0.247286
0.247286
0.247286
0.247286
0.247287
0.247287
0.247287
0.247287
0.247287
0.247287
0.247287
0.247287
0.247287
0.247287
0.247288
0.247288
0.247288
0.247288
0.247288
0.247288
0.247288
0.247288
0.247288
0.247288
0.247288
0.247288
0.247288
0.247288
0.247288
0.247288
0.247288
0.247288
0.247287
0.247287
0.247287
0.247287
0.247287
0.247287
0.247287
0.247287
0.247287
0.247287
0.247286
0.247286
0.247286
0.247286
0.247286
0.247286
0.247286
0.247285
0.247285
0.247285
0.247285
0.247285
0.247284
0.247284
0.247284
0.247284
0.247283
0.247283
0.247283
0.247283
0.247282
0.247282
0.247282
0.247281
0.247281
0.24728
0.24728
0.247279
0.247279
0.247278
0.247278
0.247277
0.247277
0.247276
0.247275
0.247275
0.247274
0.247273
0.247272
0.247272
0.247271
0.24727
0.247269
0.247268
0.247268
0.247267
0.247266
0.247265
0.247265
0.247264
0.247263
0.247263
0.247262
0.247261
0.247261
0.247261
0.24726
0.24726
0.24726
0.247261
0.247262
0.247291
0.247373
0.248342
0.249794
0.249997
0.25
0.25
0.25
0.25
0.25
0.25
0.25
0.25
0.25
0.25
0.25
0.25
0.25
0.25
0.25
0.25
0.25
0.25
0.25
0.25
0.25
0.25
0.25
0.25
0.25
0.25
0.25
0.25
0.25
0.25
0.25
0.25
0.25
0.25
0.25
0.25
0.25
0.25
0.25
0.25
0.25
0.25
0.25
0.25
0.25
0.25
0.25
0.25
0.25
0.25
0.25
0.25
0.25
0.25
0.25
0.25
0.25
0.25
0.25
0.25
0.25
0.25
0.25
0.25
0.25
0.25
0.25
0.25
0.25
0.25
0.25
0.25
0.25
0.25
0.25
0.25
0.25
0.25
0.25
0.25
0.25
0.25
0.25
0.25
0.25
0.25
0.25
)
;

boundaryField
{
    inlet
    {
        type            fixedValue;
        value           uniform 0.35;
    }
    outlet
    {
        type            zeroGradient;
    }
    emptyWalls
    {
        type            empty;
    }
}


// ************************************************************************* //
