/*--------------------------------*- C++ -*----------------------------------*\
  =========                 |
  \\      /  F ield         | OpenFOAM: The Open Source CFD Toolbox
   \\    /   O peration     | Website:  https://openfoam.org
    \\  /    A nd           | Version:  9
     \\/     M anipulation  |
\*---------------------------------------------------------------------------*/
FoamFile
{
    format      ascii;
    class       surfaceScalarField;
    location    "26900";
    object      phib;
}
// * * * * * * * * * * * * * * * * * * * * * * * * * * * * * * * * * * * * * //

dimensions      [0 2 0 0 0 0 0];

internalField   nonuniform List<scalar> 
999
(
1.13622e-09
1.13622e-09
1.13623e-09
1.13623e-09
1.13625e-09
1.13625e-09
1.13627e-09
1.13627e-09
1.1363e-09
1.13631e-09
1.13633e-09
1.13635e-09
1.13637e-09
1.13641e-09
1.13642e-09
1.13647e-09
1.1365e-09
1.13653e-09
1.13657e-09
1.13661e-09
1.13664e-09
1.13668e-09
1.13671e-09
1.13676e-09
1.13678e-09
1.13683e-09
1.13685e-09
1.13689e-09
1.13691e-09
1.13694e-09
1.13697e-09
1.13698e-09
1.13702e-09
1.13703e-09
1.13709e-09
1.13731e-09
1.13817e-09
1.14317e-09
1.16917e-09
1.17568e-09
1.17731e-09
1.17798e-09
1.17836e-09
1.17863e-09
1.17883e-09
1.17899e-09
1.17911e-09
1.1792e-09
1.17929e-09
1.17939e-09
1.17949e-09
1.17958e-09
1.17963e-09
1.17965e-09
1.17965e-09
1.17964e-09
1.17967e-09
1.17974e-09
1.17984e-09
1.17993e-09
1.18e-09
1.17995e-09
1.17977e-09
1.17946e-09
1.17905e-09
1.17857e-09
1.17808e-09
1.17764e-09
1.17728e-09
1.17703e-09
1.17688e-09
1.1768e-09
1.17677e-09
1.17674e-09
1.17675e-09
1.17702e-09
1.17741e-09
1.17783e-09
1.17826e-09
1.17865e-09
1.179e-09
1.1793e-09
1.17952e-09
1.17969e-09
1.17979e-09
1.17984e-09
1.17985e-09
1.17983e-09
1.17978e-09
1.17971e-09
1.17963e-09
1.17955e-09
1.17946e-09
1.17938e-09
1.17931e-09
1.17924e-09
1.17917e-09
1.17909e-09
1.17902e-09
1.17893e-09
1.17884e-09
1.17872e-09
1.17859e-09
1.17843e-09
1.17824e-09
1.17802e-09
1.17778e-09
1.17752e-09
1.17725e-09
1.17697e-09
1.17669e-09
1.17639e-09
1.17609e-09
1.17579e-09
1.17548e-09
1.17516e-09
1.17485e-09
1.17453e-09
1.1742e-09
1.17388e-09
1.17355e-09
1.17321e-09
1.17288e-09
1.17254e-09
1.1722e-09
1.17186e-09
1.17151e-09
1.17117e-09
1.17082e-09
1.17047e-09
1.17011e-09
1.16976e-09
1.1694e-09
1.16904e-09
1.16868e-09
1.16831e-09
1.16794e-09
1.16757e-09
1.1672e-09
1.16682e-09
1.16644e-09
1.16607e-09
1.16569e-09
1.16531e-09
1.16493e-09
1.16455e-09
1.16417e-09
1.16379e-09
1.1634e-09
1.16301e-09
1.16262e-09
1.16223e-09
1.16183e-09
1.16143e-09
1.16103e-09
1.16063e-09
1.16023e-09
1.15983e-09
1.15943e-09
1.15904e-09
1.15865e-09
1.15826e-09
1.15787e-09
1.15748e-09
1.15708e-09
1.15668e-09
1.15626e-09
1.15581e-09
1.15535e-09
1.15486e-09
1.15435e-09
1.15381e-09
1.15325e-09
1.15268e-09
1.15209e-09
1.15149e-09
1.15088e-09
1.15027e-09
1.14966e-09
1.14906e-09
1.14847e-09
1.1479e-09
1.14736e-09
1.14684e-09
1.14635e-09
1.1459e-09
1.14549e-09
1.14512e-09
1.14479e-09
1.14449e-09
1.14422e-09
1.14398e-09
1.14377e-09
1.14356e-09
1.14336e-09
1.14316e-09
1.14296e-09
1.14274e-09
1.14251e-09
1.14227e-09
1.14201e-09
1.14172e-09
1.14142e-09
1.1411e-09
1.14076e-09
1.14041e-09
1.14004e-09
1.13967e-09
1.13928e-09
1.13889e-09
1.1385e-09
1.1381e-09
1.1377e-09
1.1373e-09
1.1369e-09
1.1365e-09
1.13611e-09
1.13571e-09
1.13532e-09
1.13493e-09
1.13454e-09
1.13416e-09
1.13377e-09
1.13339e-09
1.13301e-09
1.13263e-09
1.13224e-09
1.13186e-09
1.13148e-09
1.1311e-09
1.13072e-09
1.13034e-09
1.12995e-09
1.12957e-09
1.12918e-09
1.1288e-09
1.12841e-09
1.12802e-09
1.12763e-09
1.12724e-09
1.12685e-09
1.12645e-09
1.12606e-09
1.12566e-09
1.12526e-09
1.12487e-09
1.12447e-09
1.12406e-09
1.12366e-09
1.12326e-09
1.12285e-09
1.12245e-09
1.12204e-09
1.12163e-09
1.12122e-09
1.12081e-09
1.12039e-09
1.11998e-09
1.11956e-09
1.11914e-09
1.11872e-09
1.1183e-09
1.11788e-09
1.11746e-09
1.11703e-09
1.11661e-09
1.11618e-09
1.11576e-09
1.11533e-09
1.1149e-09
1.11447e-09
1.11404e-09
1.11361e-09
1.11318e-09
1.11274e-09
1.11231e-09
1.11187e-09
1.11143e-09
1.11099e-09
1.11055e-09
1.11011e-09
1.10967e-09
1.10923e-09
1.1088e-09
1.10836e-09
1.10792e-09
1.10748e-09
1.10704e-09
1.1066e-09
1.10616e-09
1.10571e-09
1.10526e-09
1.1048e-09
1.10434e-09
1.10387e-09
1.10338e-09
1.10289e-09
1.10239e-09
1.10188e-09
1.10135e-09
1.10082e-09
1.10027e-09
1.09972e-09
1.09915e-09
1.09858e-09
1.098e-09
1.09742e-09
1.09684e-09
1.09626e-09
1.09568e-09
1.09511e-09
1.09455e-09
1.09399e-09
1.09345e-09
1.09293e-09
1.09242e-09
1.09193e-09
1.09146e-09
1.09101e-09
1.09058e-09
1.09017e-09
1.08978e-09
1.08941e-09
1.08905e-09
1.08871e-09
1.08837e-09
1.08805e-09
1.08773e-09
1.08741e-09
1.0871e-09
1.08678e-09
1.08646e-09
1.08613e-09
1.0858e-09
1.08545e-09
1.0851e-09
1.08474e-09
1.08437e-09
1.08399e-09
1.08361e-09
1.08321e-09
1.08281e-09
1.0824e-09
1.08199e-09
1.08157e-09
1.08114e-09
1.08072e-09
1.08029e-09
1.07986e-09
1.07942e-09
1.07899e-09
1.07856e-09
1.07812e-09
1.07769e-09
1.07726e-09
1.07682e-09
1.07639e-09
1.07596e-09
1.07553e-09
1.0751e-09
1.07467e-09
1.07424e-09
1.07381e-09
1.07338e-09
1.07295e-09
1.07252e-09
1.0721e-09
1.07167e-09
1.07124e-09
1.07081e-09
1.07038e-09
1.06995e-09
1.06951e-09
1.06908e-09
1.06865e-09
1.06821e-09
1.06778e-09
1.06734e-09
1.06691e-09
1.06647e-09
1.06603e-09
1.06559e-09
1.06515e-09
1.06471e-09
1.06427e-09
1.06382e-09
1.06338e-09
1.06293e-09
1.06249e-09
1.06204e-09
1.06159e-09
1.06114e-09
1.06069e-09
1.06024e-09
1.05978e-09
1.05933e-09
1.05887e-09
1.05842e-09
1.05796e-09
1.0575e-09
1.05704e-09
1.05658e-09
1.05612e-09
1.05566e-09
1.05519e-09
1.05473e-09
1.05427e-09
1.0538e-09
1.05333e-09
1.05287e-09
1.0524e-09
1.05193e-09
1.05146e-09
1.05099e-09
1.05051e-09
1.05004e-09
1.04957e-09
1.04909e-09
1.04862e-09
1.04814e-09
1.04767e-09
1.04719e-09
1.04671e-09
1.04624e-09
1.04576e-09
1.04528e-09
1.0448e-09
1.04432e-09
1.04384e-09
1.04335e-09
1.04287e-09
1.04238e-09
1.04188e-09
1.04139e-09
1.04089e-09
1.04038e-09
1.03987e-09
1.03936e-09
1.03883e-09
1.03831e-09
1.03777e-09
1.03723e-09
1.03669e-09
1.03613e-09
1.03557e-09
1.03501e-09
1.03444e-09
1.03387e-09
1.03329e-09
1.03271e-09
1.03213e-09
1.03155e-09
1.03097e-09
1.0304e-09
1.02982e-09
1.02925e-09
1.02869e-09
1.02813e-09
1.02758e-09
1.02704e-09
1.02651e-09
1.02599e-09
1.02548e-09
1.02498e-09
1.0245e-09
1.02402e-09
1.02356e-09
1.02311e-09
1.02267e-09
1.02223e-09
1.02181e-09
1.02139e-09
1.02098e-09
1.02057e-09
1.02017e-09
1.01977e-09
1.01937e-09
1.01897e-09
1.01857e-09
1.01817e-09
1.01776e-09
1.01735e-09
1.01694e-09
1.01652e-09
1.01609e-09
1.01567e-09
1.01523e-09
1.01479e-09
1.01435e-09
1.0139e-09
1.01345e-09
1.013e-09
1.01254e-09
1.01207e-09
1.01161e-09
1.01114e-09
1.01067e-09
1.0102e-09
1.00973e-09
1.00925e-09
1.00878e-09
1.0083e-09
1.00782e-09
1.00735e-09
1.00687e-09
1.00639e-09
1.00591e-09
1.00543e-09
1.00496e-09
1.00448e-09
1.004e-09
1.00352e-09
1.00304e-09
1.00257e-09
1.00209e-09
1.00161e-09
1.00113e-09
1.00065e-09
1.00017e-09
9.99691e-10
9.9921e-10
9.98729e-10
9.98248e-10
9.97766e-10
9.97283e-10
9.96799e-10
9.96315e-10
9.9583e-10
9.95344e-10
9.94857e-10
9.9437e-10
9.93881e-10
9.93392e-10
9.92902e-10
9.92411e-10
9.91919e-10
9.91426e-10
9.90932e-10
9.90437e-10
9.89941e-10
9.89444e-10
9.88946e-10
9.88447e-10
9.87947e-10
9.87445e-10
9.86943e-10
9.8644e-10
9.85936e-10
9.85431e-10
9.84925e-10
9.84418e-10
9.8391e-10
9.83401e-10
9.82891e-10
9.8238e-10
9.81868e-10
9.81355e-10
9.80842e-10
9.80327e-10
9.79811e-10
9.79295e-10
9.78778e-10
9.7826e-10
9.77741e-10
9.77221e-10
9.767e-10
9.76179e-10
9.75657e-10
9.75134e-10
9.7461e-10
9.74085e-10
9.7356e-10
9.73034e-10
9.72508e-10
9.7198e-10
9.71452e-10
9.70923e-10
9.70393e-10
9.69861e-10
9.69329e-10
9.68795e-10
9.6826e-10
9.67723e-10
9.67184e-10
9.66642e-10
9.66099e-10
9.65552e-10
9.65003e-10
9.64451e-10
9.63896e-10
9.63337e-10
9.62774e-10
9.62207e-10
9.61637e-10
9.61063e-10
9.60484e-10
9.59902e-10
9.59316e-10
9.58726e-10
9.58132e-10
9.57535e-10
9.56936e-10
9.56333e-10
9.55729e-10
9.55122e-10
9.54515e-10
9.53907e-10
9.53298e-10
9.52691e-10
9.52084e-10
9.51479e-10
9.50877e-10
9.50277e-10
9.49682e-10
9.4909e-10
9.48504e-10
9.47923e-10
9.47348e-10
9.46778e-10
9.46216e-10
9.4566e-10
9.45111e-10
9.44568e-10
9.44033e-10
9.43505e-10
9.42983e-10
9.42466e-10
9.41956e-10
9.41451e-10
9.40951e-10
9.40454e-10
9.39962e-10
9.39472e-10
9.38984e-10
9.38498e-10
9.38012e-10
9.37527e-10
9.37041e-10
9.36554e-10
9.36066e-10
9.35577e-10
9.35084e-10
9.3459e-10
9.34092e-10
9.33592e-10
9.33089e-10
9.32582e-10
9.32073e-10
9.3156e-10
9.31044e-10
9.30525e-10
9.30003e-10
9.29479e-10
9.28952e-10
9.28423e-10
9.27891e-10
9.27357e-10
9.26822e-10
9.26285e-10
9.25746e-10
9.25206e-10
9.24664e-10
9.24122e-10
9.23578e-10
9.23034e-10
9.22489e-10
9.21944e-10
9.21397e-10
9.2085e-10
9.20303e-10
9.19755e-10
9.19206e-10
9.18657e-10
9.18108e-10
9.17558e-10
9.17008e-10
9.16457e-10
9.15905e-10
9.15353e-10
9.14801e-10
9.14248e-10
9.13694e-10
9.13139e-10
9.12584e-10
9.12028e-10
9.11472e-10
9.10914e-10
9.10356e-10
9.09796e-10
9.09236e-10
9.08675e-10
9.08114e-10
9.0755e-10
9.06987e-10
9.06422e-10
9.05857e-10
9.05289e-10
9.04722e-10
9.04153e-10
9.03583e-10
9.03012e-10
9.0244e-10
9.01867e-10
9.01293e-10
9.00717e-10
9.00141e-10
8.99564e-10
8.98985e-10
8.98405e-10
8.97825e-10
8.97243e-10
8.9666e-10
8.96076e-10
8.95491e-10
8.94905e-10
8.94317e-10
8.93729e-10
8.9314e-10
8.92549e-10
8.91958e-10
8.91365e-10
8.90771e-10
8.90177e-10
8.89581e-10
8.88984e-10
8.88386e-10
8.87788e-10
8.87188e-10
8.86587e-10
8.85986e-10
8.85383e-10
8.84779e-10
8.84175e-10
8.83569e-10
8.82963e-10
8.82355e-10
8.81747e-10
8.81137e-10
8.80526e-10
8.79914e-10
8.79301e-10
8.78687e-10
8.78071e-10
8.77454e-10
8.76836e-10
8.76216e-10
8.75594e-10
8.74971e-10
8.74345e-10
8.73718e-10
8.73089e-10
8.72457e-10
8.71823e-10
8.71186e-10
8.70547e-10
8.69905e-10
8.6926e-10
8.68613e-10
8.67963e-10
8.67309e-10
8.66653e-10
8.65994e-10
8.65332e-10
8.64668e-10
8.64e-10
8.6333e-10
8.62658e-10
8.61983e-10
8.61306e-10
8.60628e-10
8.59947e-10
8.59266e-10
8.58583e-10
8.57899e-10
8.57215e-10
8.56531e-10
8.55847e-10
8.55163e-10
8.54481e-10
8.538e-10
8.5312e-10
8.52442e-10
8.51766e-10
8.51093e-10
8.50423e-10
8.49756e-10
8.49092e-10
8.48431e-10
8.47774e-10
8.47121e-10
8.46472e-10
8.45826e-10
8.45184e-10
8.44546e-10
8.43911e-10
8.4328e-10
8.42652e-10
8.42027e-10
8.41404e-10
8.40784e-10
8.40166e-10
8.3955e-10
8.38935e-10
8.38321e-10
8.37708e-10
8.37095e-10
8.36482e-10
8.35869e-10
8.35255e-10
8.34639e-10
8.34023e-10
8.33405e-10
8.32785e-10
8.32163e-10
8.31539e-10
8.30913e-10
8.30284e-10
8.29653e-10
8.29019e-10
8.28383e-10
8.27744e-10
8.27103e-10
8.26459e-10
8.25813e-10
8.25164e-10
8.24513e-10
8.2386e-10
8.23204e-10
8.22547e-10
8.21887e-10
8.21226e-10
8.20563e-10
8.19898e-10
8.19231e-10
8.18563e-10
8.17893e-10
8.17222e-10
8.16549e-10
8.15875e-10
8.152e-10
8.14523e-10
8.13846e-10
8.13166e-10
8.12486e-10
8.11805e-10
8.11122e-10
8.10439e-10
8.09754e-10
8.09068e-10
8.08381e-10
8.07692e-10
8.07003e-10
8.06312e-10
8.0562e-10
8.04926e-10
8.04232e-10
8.03536e-10
8.02839e-10
8.0214e-10
8.0144e-10
8.00739e-10
8.00036e-10
7.99332e-10
7.98626e-10
7.97919e-10
7.97211e-10
7.965e-10
7.95789e-10
7.95075e-10
7.94361e-10
7.93644e-10
7.92926e-10
7.92207e-10
7.91485e-10
7.90763e-10
7.90038e-10
7.89312e-10
7.88584e-10
7.87854e-10
7.87123e-10
7.8639e-10
7.85655e-10
7.84918e-10
7.8418e-10
7.8344e-10
7.82698e-10
7.81955e-10
7.8121e-10
7.80462e-10
7.79714e-10
7.78963e-10
7.7821e-10
7.77456e-10
7.767e-10
7.75942e-10
7.75183e-10
7.74421e-10
7.73658e-10
7.72893e-10
7.72126e-10
7.71358e-10
7.70587e-10
7.69815e-10
7.69041e-10
7.68265e-10
7.67487e-10
7.66707e-10
7.65926e-10
7.65142e-10
7.64357e-10
7.63569e-10
7.62781e-10
7.61989e-10
7.61196e-10
7.604e-10
7.59603e-10
7.58803e-10
7.58001e-10
7.57197e-10
7.5639e-10
7.55581e-10
7.54769e-10
7.53955e-10
7.53139e-10
7.52319e-10
7.51498e-10
7.50673e-10
7.49845e-10
7.49014e-10
7.48181e-10
7.47344e-10
7.46504e-10
7.45661e-10
7.44815e-10
7.43965e-10
7.43112e-10
7.42257e-10
7.41397e-10
7.40534e-10
7.39669e-10
7.38799e-10
7.37928e-10
7.37051e-10
7.36175e-10
7.3529e-10
7.3441e-10
7.33519e-10
7.32634e-10
7.31737e-10
7.30848e-10
7.29945e-10
7.29053e-10
7.28146e-10
7.2725e-10
7.26338e-10
7.2544e-10
7.24525e-10
7.23623e-10
7.22706e-10
7.21802e-10
7.20883e-10
7.19979e-10
7.19059e-10
7.18153e-10
7.17234e-10
7.16327e-10
7.15409e-10
7.14501e-10
7.13584e-10
7.12676e-10
7.11761e-10
7.10853e-10
7.09939e-10
7.0903e-10
7.08117e-10
7.07209e-10
7.06296e-10
7.05386e-10
7.04475e-10
7.03566e-10
7.02655e-10
7.01743e-10
7.00831e-10
6.99918e-10
6.99003e-10
6.98087e-10
6.97168e-10
6.96248e-10
6.95327e-10
6.94402e-10
6.93476e-10
6.92547e-10
6.91616e-10
6.90682e-10
6.89745e-10
6.88805e-10
6.87864e-10
6.86918e-10
6.85971e-10
)
;

boundaryField
{
    inlet
    {
        type            calculated;
        value           uniform -1.13622e-09;
    }
    outlet
    {
        type            calculated;
        value           uniform 7.66163e-10;
    }
    emptyWalls
    {
        type            empty;
        value           nonuniform List<scalar> 0();
    }
}


// ************************************************************************* //
