/*--------------------------------*- C++ -*----------------------------------*\
  =========                 |
  \\      /  F ield         | OpenFOAM: The Open Source CFD Toolbox
   \\    /   O peration     | Website:  https://openfoam.org
    \\  /    A nd           | Version:  9
     \\/     M anipulation  |
\*---------------------------------------------------------------------------*/
FoamFile
{
    format      ascii;
    class       volVectorField;
    location    "26900";
    object      Ua;
}
// * * * * * * * * * * * * * * * * * * * * * * * * * * * * * * * * * * * * * //

dimensions      [0 0 0 0 0 0 0];

internalField   nonuniform List<vector> 
1000
(
(2.74905e-06 0 0)
(2.7488e-06 0 0)
(2.74869e-06 0 0)
(2.74857e-06 0 0)
(2.74839e-06 0 0)
(2.74821e-06 0 0)
(2.748e-06 0 0)
(2.74777e-06 0 0)
(2.7475e-06 0 0)
(2.74716e-06 0 0)
(2.74682e-06 0 0)
(2.74637e-06 0 0)
(2.74596e-06 0 0)
(2.74545e-06 0 0)
(2.74491e-06 0 0)
(2.74434e-06 0 0)
(2.74366e-06 0 0)
(2.743e-06 0 0)
(2.74228e-06 0 0)
(2.74157e-06 0 0)
(2.74088e-06 0 0)
(2.74017e-06 0 0)
(2.73948e-06 0 0)
(2.73878e-06 0 0)
(2.7381e-06 0 0)
(2.73742e-06 0 0)
(2.73681e-06 0 0)
(2.73622e-06 0 0)
(2.73566e-06 0 0)
(2.73519e-06 0 0)
(2.73468e-06 0 0)
(2.7343e-06 0 0)
(2.73391e-06 0 0)
(2.73348e-06 0 0)
(2.73272e-06 0 0)
(2.7301e-06 0 0)
(2.72018e-06 0 0)
(2.66909e-06 0 0)
(2.43512e-06 0 0)
(2.19716e-06 0 0)
(2.13764e-06 0 0)
(2.12007e-06 0 0)
(2.1117e-06 0 0)
(2.10641e-06 0 0)
(2.10251e-06 0 0)
(2.09939e-06 0 0)
(2.09682e-06 0 0)
(2.09465e-06 0 0)
(2.09271e-06 0 0)
(2.09082e-06 0 0)
(2.08893e-06 0 0)
(2.0871e-06 0 0)
(2.0855e-06 0 0)
(2.08427e-06 0 0)
(2.08339e-06 0 0)
(2.08266e-06 0 0)
(2.08178e-06 0 0)
(2.08053e-06 0 0)
(2.07891e-06 0 0)
(2.07718e-06 0 0)
(2.07561e-06 0 0)
(2.07481e-06 0 0)
(2.07528e-06 0 0)
(2.07704e-06 0 0)
(2.07999e-06 0 0)
(2.08381e-06 0 0)
(2.088e-06 0 0)
(2.09202e-06 0 0)
(2.0954e-06 0 0)
(2.09782e-06 0 0)
(2.09921e-06 0 0)
(2.09968e-06 0 0)
(2.09956e-06 0 0)
(2.0992e-06 0 0)
(2.09858e-06 0 0)
(2.09646e-06 0 0)
(2.09244e-06 0 0)
(2.08764e-06 0 0)
(2.08259e-06 0 0)
(2.07767e-06 0 0)
(2.07315e-06 0 0)
(2.06912e-06 0 0)
(2.06571e-06 0 0)
(2.06296e-06 0 0)
(2.06083e-06 0 0)
(2.05924e-06 0 0)
(2.0581e-06 0 0)
(2.05733e-06 0 0)
(2.05685e-06 0 0)
(2.05657e-06 0 0)
(2.05641e-06 0 0)
(2.0563e-06 0 0)
(2.05618e-06 0 0)
(2.056e-06 0 0)
(2.05576e-06 0 0)
(2.05543e-06 0 0)
(2.05503e-06 0 0)
(2.05456e-06 0 0)
(2.05403e-06 0 0)
(2.05347e-06 0 0)
(2.05288e-06 0 0)
(2.05228e-06 0 0)
(2.05168e-06 0 0)
(2.0511e-06 0 0)
(2.05054e-06 0 0)
(2.05002e-06 0 0)
(2.04953e-06 0 0)
(2.04905e-06 0 0)
(2.04857e-06 0 0)
(2.04809e-06 0 0)
(2.04762e-06 0 0)
(2.04716e-06 0 0)
(2.04671e-06 0 0)
(2.04627e-06 0 0)
(2.04583e-06 0 0)
(2.04541e-06 0 0)
(2.045e-06 0 0)
(2.0446e-06 0 0)
(2.04421e-06 0 0)
(2.04384e-06 0 0)
(2.04348e-06 0 0)
(2.04314e-06 0 0)
(2.04281e-06 0 0)
(2.0425e-06 0 0)
(2.0422e-06 0 0)
(2.04191e-06 0 0)
(2.04164e-06 0 0)
(2.04137e-06 0 0)
(2.04112e-06 0 0)
(2.04087e-06 0 0)
(2.04063e-06 0 0)
(2.04041e-06 0 0)
(2.0402e-06 0 0)
(2.04001e-06 0 0)
(2.03985e-06 0 0)
(2.0397e-06 0 0)
(2.03958e-06 0 0)
(2.03947e-06 0 0)
(2.03939e-06 0 0)
(2.03932e-06 0 0)
(2.03925e-06 0 0)
(2.03919e-06 0 0)
(2.03913e-06 0 0)
(2.03906e-06 0 0)
(2.03899e-06 0 0)
(2.03892e-06 0 0)
(2.03885e-06 0 0)
(2.0388e-06 0 0)
(2.03876e-06 0 0)
(2.03874e-06 0 0)
(2.03875e-06 0 0)
(2.03879e-06 0 0)
(2.03886e-06 0 0)
(2.03895e-06 0 0)
(2.03904e-06 0 0)
(2.03914e-06 0 0)
(2.03922e-06 0 0)
(2.03929e-06 0 0)
(2.03933e-06 0 0)
(2.03934e-06 0 0)
(2.03931e-06 0 0)
(2.03925e-06 0 0)
(2.03917e-06 0 0)
(2.0391e-06 0 0)
(2.03906e-06 0 0)
(2.03911e-06 0 0)
(2.03928e-06 0 0)
(2.03964e-06 0 0)
(2.0402e-06 0 0)
(2.04101e-06 0 0)
(2.04206e-06 0 0)
(2.04335e-06 0 0)
(2.04487e-06 0 0)
(2.04658e-06 0 0)
(2.04846e-06 0 0)
(2.05047e-06 0 0)
(2.05256e-06 0 0)
(2.05469e-06 0 0)
(2.05682e-06 0 0)
(2.05889e-06 0 0)
(2.06087e-06 0 0)
(2.06268e-06 0 0)
(2.06428e-06 0 0)
(2.0656e-06 0 0)
(2.06661e-06 0 0)
(2.06725e-06 0 0)
(2.06749e-06 0 0)
(2.06733e-06 0 0)
(2.06676e-06 0 0)
(2.06581e-06 0 0)
(2.06449e-06 0 0)
(2.06287e-06 0 0)
(2.06101e-06 0 0)
(2.05896e-06 0 0)
(2.05681e-06 0 0)
(2.05461e-06 0 0)
(2.05243e-06 0 0)
(2.05033e-06 0 0)
(2.04835e-06 0 0)
(2.04652e-06 0 0)
(2.04487e-06 0 0)
(2.04342e-06 0 0)
(2.04216e-06 0 0)
(2.04109e-06 0 0)
(2.0402e-06 0 0)
(2.03947e-06 0 0)
(2.03889e-06 0 0)
(2.03842e-06 0 0)
(2.03805e-06 0 0)
(2.03775e-06 0 0)
(2.03751e-06 0 0)
(2.0373e-06 0 0)
(2.0371e-06 0 0)
(2.03692e-06 0 0)
(2.03672e-06 0 0)
(2.03651e-06 0 0)
(2.03628e-06 0 0)
(2.03603e-06 0 0)
(2.03575e-06 0 0)
(2.03545e-06 0 0)
(2.03512e-06 0 0)
(2.03476e-06 0 0)
(2.03439e-06 0 0)
(2.034e-06 0 0)
(2.03359e-06 0 0)
(2.03317e-06 0 0)
(2.03274e-06 0 0)
(2.03231e-06 0 0)
(2.03187e-06 0 0)
(2.03143e-06 0 0)
(2.03099e-06 0 0)
(2.03055e-06 0 0)
(2.03011e-06 0 0)
(2.02968e-06 0 0)
(2.02926e-06 0 0)
(2.02884e-06 0 0)
(2.02843e-06 0 0)
(2.02802e-06 0 0)
(2.02763e-06 0 0)
(2.02724e-06 0 0)
(2.02687e-06 0 0)
(2.0265e-06 0 0)
(2.02615e-06 0 0)
(2.0258e-06 0 0)
(2.02547e-06 0 0)
(2.02515e-06 0 0)
(2.02483e-06 0 0)
(2.02453e-06 0 0)
(2.02423e-06 0 0)
(2.02395e-06 0 0)
(2.02367e-06 0 0)
(2.02341e-06 0 0)
(2.02315e-06 0 0)
(2.02291e-06 0 0)
(2.02268e-06 0 0)
(2.02246e-06 0 0)
(2.02225e-06 0 0)
(2.02206e-06 0 0)
(2.02187e-06 0 0)
(2.0217e-06 0 0)
(2.02154e-06 0 0)
(2.0214e-06 0 0)
(2.02126e-06 0 0)
(2.02113e-06 0 0)
(2.021e-06 0 0)
(2.02089e-06 0 0)
(2.02078e-06 0 0)
(2.02067e-06 0 0)
(2.02057e-06 0 0)
(2.02048e-06 0 0)
(2.0204e-06 0 0)
(2.02032e-06 0 0)
(2.02025e-06 0 0)
(2.02019e-06 0 0)
(2.02015e-06 0 0)
(2.02011e-06 0 0)
(2.02008e-06 0 0)
(2.02007e-06 0 0)
(2.02006e-06 0 0)
(2.02005e-06 0 0)
(2.02005e-06 0 0)
(2.02005e-06 0 0)
(2.02004e-06 0 0)
(2.02003e-06 0 0)
(2.02001e-06 0 0)
(2.01998e-06 0 0)
(2.01995e-06 0 0)
(2.01992e-06 0 0)
(2.0199e-06 0 0)
(2.01989e-06 0 0)
(2.01991e-06 0 0)
(2.01997e-06 0 0)
(2.02008e-06 0 0)
(2.02026e-06 0 0)
(2.02052e-06 0 0)
(2.02087e-06 0 0)
(2.02132e-06 0 0)
(2.02188e-06 0 0)
(2.02255e-06 0 0)
(2.02334e-06 0 0)
(2.02425e-06 0 0)
(2.02526e-06 0 0)
(2.02639e-06 0 0)
(2.02761e-06 0 0)
(2.02891e-06 0 0)
(2.03028e-06 0 0)
(2.0317e-06 0 0)
(2.03314e-06 0 0)
(2.03459e-06 0 0)
(2.03601e-06 0 0)
(2.03739e-06 0 0)
(2.03868e-06 0 0)
(2.03987e-06 0 0)
(2.04093e-06 0 0)
(2.04184e-06 0 0)
(2.04257e-06 0 0)
(2.0431e-06 0 0)
(2.04342e-06 0 0)
(2.04353e-06 0 0)
(2.04341e-06 0 0)
(2.04307e-06 0 0)
(2.04252e-06 0 0)
(2.04177e-06 0 0)
(2.04083e-06 0 0)
(2.03973e-06 0 0)
(2.0385e-06 0 0)
(2.03716e-06 0 0)
(2.03574e-06 0 0)
(2.03428e-06 0 0)
(2.03279e-06 0 0)
(2.0313e-06 0 0)
(2.02985e-06 0 0)
(2.02844e-06 0 0)
(2.0271e-06 0 0)
(2.02583e-06 0 0)
(2.02465e-06 0 0)
(2.02357e-06 0 0)
(2.02258e-06 0 0)
(2.02169e-06 0 0)
(2.02088e-06 0 0)
(2.02017e-06 0 0)
(2.01953e-06 0 0)
(2.01896e-06 0 0)
(2.01846e-06 0 0)
(2.01801e-06 0 0)
(2.01761e-06 0 0)
(2.01724e-06 0 0)
(2.0169e-06 0 0)
(2.01658e-06 0 0)
(2.01628e-06 0 0)
(2.01599e-06 0 0)
(2.0157e-06 0 0)
(2.0154e-06 0 0)
(2.01511e-06 0 0)
(2.01481e-06 0 0)
(2.0145e-06 0 0)
(2.01418e-06 0 0)
(2.01385e-06 0 0)
(2.01351e-06 0 0)
(2.01316e-06 0 0)
(2.01281e-06 0 0)
(2.01244e-06 0 0)
(2.01207e-06 0 0)
(2.01169e-06 0 0)
(2.0113e-06 0 0)
(2.01092e-06 0 0)
(2.01053e-06 0 0)
(2.01013e-06 0 0)
(2.00974e-06 0 0)
(2.00935e-06 0 0)
(2.00896e-06 0 0)
(2.00857e-06 0 0)
(2.00819e-06 0 0)
(2.00781e-06 0 0)
(2.00743e-06 0 0)
(2.00706e-06 0 0)
(2.0067e-06 0 0)
(2.00634e-06 0 0)
(2.00599e-06 0 0)
(2.00565e-06 0 0)
(2.00531e-06 0 0)
(2.00498e-06 0 0)
(2.00466e-06 0 0)
(2.00435e-06 0 0)
(2.00404e-06 0 0)
(2.00374e-06 0 0)
(2.00345e-06 0 0)
(2.00317e-06 0 0)
(2.00289e-06 0 0)
(2.00263e-06 0 0)
(2.00237e-06 0 0)
(2.00213e-06 0 0)
(2.00189e-06 0 0)
(2.00166e-06 0 0)
(2.00144e-06 0 0)
(2.00123e-06 0 0)
(2.00102e-06 0 0)
(2.00083e-06 0 0)
(2.00064e-06 0 0)
(2.00046e-06 0 0)
(2.00029e-06 0 0)
(2.00013e-06 0 0)
(1.99998e-06 0 0)
(1.99983e-06 0 0)
(1.99969e-06 0 0)
(1.99955e-06 0 0)
(1.99943e-06 0 0)
(1.9993e-06 0 0)
(1.99919e-06 0 0)
(1.99908e-06 0 0)
(1.99898e-06 0 0)
(1.99889e-06 0 0)
(1.9988e-06 0 0)
(1.99872e-06 0 0)
(1.99864e-06 0 0)
(1.99857e-06 0 0)
(1.99851e-06 0 0)
(1.99845e-06 0 0)
(1.99839e-06 0 0)
(1.99834e-06 0 0)
(1.99829e-06 0 0)
(1.99825e-06 0 0)
(1.9982e-06 0 0)
(1.99816e-06 0 0)
(1.99812e-06 0 0)
(1.99808e-06 0 0)
(1.99805e-06 0 0)
(1.99803e-06 0 0)
(1.99802e-06 0 0)
(1.99802e-06 0 0)
(1.99805e-06 0 0)
(1.9981e-06 0 0)
(1.99818e-06 0 0)
(1.99829e-06 0 0)
(1.99845e-06 0 0)
(1.99866e-06 0 0)
(1.99891e-06 0 0)
(1.99923e-06 0 0)
(1.9996e-06 0 0)
(2.00005e-06 0 0)
(2.00055e-06 0 0)
(2.00113e-06 0 0)
(2.00178e-06 0 0)
(2.00249e-06 0 0)
(2.00327e-06 0 0)
(2.00411e-06 0 0)
(2.005e-06 0 0)
(2.00594e-06 0 0)
(2.00692e-06 0 0)
(2.00793e-06 0 0)
(2.00896e-06 0 0)
(2.01e-06 0 0)
(2.01103e-06 0 0)
(2.01205e-06 0 0)
(2.01303e-06 0 0)
(2.01396e-06 0 0)
(2.01484e-06 0 0)
(2.01564e-06 0 0)
(2.01635e-06 0 0)
(2.01697e-06 0 0)
(2.01747e-06 0 0)
(2.01786e-06 0 0)
(2.01811e-06 0 0)
(2.01824e-06 0 0)
(2.01823e-06 0 0)
(2.01809e-06 0 0)
(2.01781e-06 0 0)
(2.0174e-06 0 0)
(2.01687e-06 0 0)
(2.01622e-06 0 0)
(2.01546e-06 0 0)
(2.01462e-06 0 0)
(2.01369e-06 0 0)
(2.0127e-06 0 0)
(2.01165e-06 0 0)
(2.01057e-06 0 0)
(2.00947e-06 0 0)
(2.00836e-06 0 0)
(2.00724e-06 0 0)
(2.00615e-06 0 0)
(2.00508e-06 0 0)
(2.00404e-06 0 0)
(2.00304e-06 0 0)
(2.00209e-06 0 0)
(2.00119e-06 0 0)
(2.00034e-06 0 0)
(1.99954e-06 0 0)
(1.9988e-06 0 0)
(1.9981e-06 0 0)
(1.99746e-06 0 0)
(1.99686e-06 0 0)
(1.99631e-06 0 0)
(1.99579e-06 0 0)
(1.99531e-06 0 0)
(1.99486e-06 0 0)
(1.99444e-06 0 0)
(1.99404e-06 0 0)
(1.99366e-06 0 0)
(1.9933e-06 0 0)
(1.99295e-06 0 0)
(1.9926e-06 0 0)
(1.99226e-06 0 0)
(1.99193e-06 0 0)
(1.99159e-06 0 0)
(1.99126e-06 0 0)
(1.99093e-06 0 0)
(1.99059e-06 0 0)
(1.99025e-06 0 0)
(1.9899e-06 0 0)
(1.98956e-06 0 0)
(1.9892e-06 0 0)
(1.98885e-06 0 0)
(1.98849e-06 0 0)
(1.98813e-06 0 0)
(1.98776e-06 0 0)
(1.98739e-06 0 0)
(1.98702e-06 0 0)
(1.98665e-06 0 0)
(1.98628e-06 0 0)
(1.98591e-06 0 0)
(1.98554e-06 0 0)
(1.98518e-06 0 0)
(1.98481e-06 0 0)
(1.98445e-06 0 0)
(1.98409e-06 0 0)
(1.98373e-06 0 0)
(1.98338e-06 0 0)
(1.98303e-06 0 0)
(1.98269e-06 0 0)
(1.98235e-06 0 0)
(1.98202e-06 0 0)
(1.98169e-06 0 0)
(1.98137e-06 0 0)
(1.98105e-06 0 0)
(1.98074e-06 0 0)
(1.98044e-06 0 0)
(1.98015e-06 0 0)
(1.97986e-06 0 0)
(1.97958e-06 0 0)
(1.97931e-06 0 0)
(1.97904e-06 0 0)
(1.97878e-06 0 0)
(1.97853e-06 0 0)
(1.97829e-06 0 0)
(1.97805e-06 0 0)
(1.97782e-06 0 0)
(1.9776e-06 0 0)
(1.97739e-06 0 0)
(1.97718e-06 0 0)
(1.97698e-06 0 0)
(1.97679e-06 0 0)
(1.9766e-06 0 0)
(1.97642e-06 0 0)
(1.97625e-06 0 0)
(1.97609e-06 0 0)
(1.97593e-06 0 0)
(1.97578e-06 0 0)
(1.97563e-06 0 0)
(1.97549e-06 0 0)
(1.97536e-06 0 0)
(1.97524e-06 0 0)
(1.97511e-06 0 0)
(1.975e-06 0 0)
(1.97489e-06 0 0)
(1.97479e-06 0 0)
(1.97469e-06 0 0)
(1.97459e-06 0 0)
(1.97451e-06 0 0)
(1.97442e-06 0 0)
(1.97434e-06 0 0)
(1.97426e-06 0 0)
(1.97419e-06 0 0)
(1.97412e-06 0 0)
(1.97406e-06 0 0)
(1.974e-06 0 0)
(1.97395e-06 0 0)
(1.9739e-06 0 0)
(1.97386e-06 0 0)
(1.97382e-06 0 0)
(1.9738e-06 0 0)
(1.97378e-06 0 0)
(1.97378e-06 0 0)
(1.97379e-06 0 0)
(1.97382e-06 0 0)
(1.97388e-06 0 0)
(1.97395e-06 0 0)
(1.97405e-06 0 0)
(1.97417e-06 0 0)
(1.97433e-06 0 0)
(1.97453e-06 0 0)
(1.97475e-06 0 0)
(1.97502e-06 0 0)
(1.97533e-06 0 0)
(1.97568e-06 0 0)
(1.97607e-06 0 0)
(1.97651e-06 0 0)
(1.97699e-06 0 0)
(1.97751e-06 0 0)
(1.97808e-06 0 0)
(1.97868e-06 0 0)
(1.97932e-06 0 0)
(1.98e-06 0 0)
(1.9807e-06 0 0)
(1.98143e-06 0 0)
(1.98218e-06 0 0)
(1.98295e-06 0 0)
(1.98372e-06 0 0)
(1.98449e-06 0 0)
(1.98525e-06 0 0)
(1.986e-06 0 0)
(1.98673e-06 0 0)
(1.98742e-06 0 0)
(1.98808e-06 0 0)
(1.9887e-06 0 0)
(1.98926e-06 0 0)
(1.98975e-06 0 0)
(1.99019e-06 0 0)
(1.99054e-06 0 0)
(1.99082e-06 0 0)
(1.99102e-06 0 0)
(1.99113e-06 0 0)
(1.99115e-06 0 0)
(1.99109e-06 0 0)
(1.99093e-06 0 0)
(1.99068e-06 0 0)
(1.99035e-06 0 0)
(1.98994e-06 0 0)
(1.98944e-06 0 0)
(1.98887e-06 0 0)
(1.98824e-06 0 0)
(1.98754e-06 0 0)
(1.9868e-06 0 0)
(1.986e-06 0 0)
(1.98517e-06 0 0)
(1.98431e-06 0 0)
(1.98343e-06 0 0)
(1.98254e-06 0 0)
(1.98164e-06 0 0)
(1.98074e-06 0 0)
(1.97985e-06 0 0)
(1.97898e-06 0 0)
(1.97812e-06 0 0)
(1.97728e-06 0 0)
(1.97647e-06 0 0)
(1.97569e-06 0 0)
(1.97494e-06 0 0)
(1.97422e-06 0 0)
(1.97353e-06 0 0)
(1.97288e-06 0 0)
(1.97226e-06 0 0)
(1.97167e-06 0 0)
(1.97111e-06 0 0)
(1.97057e-06 0 0)
(1.97007e-06 0 0)
(1.96958e-06 0 0)
(1.96912e-06 0 0)
(1.96868e-06 0 0)
(1.96826e-06 0 0)
(1.96785e-06 0 0)
(1.96746e-06 0 0)
(1.96708e-06 0 0)
(1.9667e-06 0 0)
(1.96634e-06 0 0)
(1.96598e-06 0 0)
(1.96563e-06 0 0)
(1.96527e-06 0 0)
(1.96493e-06 0 0)
(1.96458e-06 0 0)
(1.96423e-06 0 0)
(1.96389e-06 0 0)
(1.96354e-06 0 0)
(1.9632e-06 0 0)
(1.96285e-06 0 0)
(1.9625e-06 0 0)
(1.96215e-06 0 0)
(1.9618e-06 0 0)
(1.96145e-06 0 0)
(1.9611e-06 0 0)
(1.96075e-06 0 0)
(1.9604e-06 0 0)
(1.96005e-06 0 0)
(1.9597e-06 0 0)
(1.95935e-06 0 0)
(1.959e-06 0 0)
(1.95865e-06 0 0)
(1.95831e-06 0 0)
(1.95797e-06 0 0)
(1.95763e-06 0 0)
(1.9573e-06 0 0)
(1.95697e-06 0 0)
(1.95664e-06 0 0)
(1.95632e-06 0 0)
(1.956e-06 0 0)
(1.95568e-06 0 0)
(1.95538e-06 0 0)
(1.95507e-06 0 0)
(1.95477e-06 0 0)
(1.95448e-06 0 0)
(1.95419e-06 0 0)
(1.95391e-06 0 0)
(1.95364e-06 0 0)
(1.95337e-06 0 0)
(1.9531e-06 0 0)
(1.95285e-06 0 0)
(1.95259e-06 0 0)
(1.95235e-06 0 0)
(1.95211e-06 0 0)
(1.95188e-06 0 0)
(1.95165e-06 0 0)
(1.95143e-06 0 0)
(1.95122e-06 0 0)
(1.95101e-06 0 0)
(1.95081e-06 0 0)
(1.95061e-06 0 0)
(1.95042e-06 0 0)
(1.95024e-06 0 0)
(1.95006e-06 0 0)
(1.94989e-06 0 0)
(1.94973e-06 0 0)
(1.94957e-06 0 0)
(1.94941e-06 0 0)
(1.94926e-06 0 0)
(1.94912e-06 0 0)
(1.94898e-06 0 0)
(1.94884e-06 0 0)
(1.94871e-06 0 0)
(1.94859e-06 0 0)
(1.94847e-06 0 0)
(1.94835e-06 0 0)
(1.94824e-06 0 0)
(1.94814e-06 0 0)
(1.94803e-06 0 0)
(1.94793e-06 0 0)
(1.94784e-06 0 0)
(1.94775e-06 0 0)
(1.94766e-06 0 0)
(1.94758e-06 0 0)
(1.94751e-06 0 0)
(1.94743e-06 0 0)
(1.94737e-06 0 0)
(1.94731e-06 0 0)
(1.94726e-06 0 0)
(1.94721e-06 0 0)
(1.94718e-06 0 0)
(1.94715e-06 0 0)
(1.94714e-06 0 0)
(1.94714e-06 0 0)
(1.94715e-06 0 0)
(1.94718e-06 0 0)
(1.94722e-06 0 0)
(1.94729e-06 0 0)
(1.94737e-06 0 0)
(1.94747e-06 0 0)
(1.9476e-06 0 0)
(1.94775e-06 0 0)
(1.94793e-06 0 0)
(1.94813e-06 0 0)
(1.94836e-06 0 0)
(1.94862e-06 0 0)
(1.94891e-06 0 0)
(1.94923e-06 0 0)
(1.94958e-06 0 0)
(1.94996e-06 0 0)
(1.95036e-06 0 0)
(1.9508e-06 0 0)
(1.95126e-06 0 0)
(1.95174e-06 0 0)
(1.95225e-06 0 0)
(1.95277e-06 0 0)
(1.95332e-06 0 0)
(1.95388e-06 0 0)
(1.95445e-06 0 0)
(1.95502e-06 0 0)
(1.9556e-06 0 0)
(1.95618e-06 0 0)
(1.95675e-06 0 0)
(1.95732e-06 0 0)
(1.95787e-06 0 0)
(1.9584e-06 0 0)
(1.9589e-06 0 0)
(1.95938e-06 0 0)
(1.95982e-06 0 0)
(1.96023e-06 0 0)
(1.96059e-06 0 0)
(1.96091e-06 0 0)
(1.96118e-06 0 0)
(1.96139e-06 0 0)
(1.96155e-06 0 0)
(1.96165e-06 0 0)
(1.96169e-06 0 0)
(1.96166e-06 0 0)
(1.96158e-06 0 0)
(1.96143e-06 0 0)
(1.96122e-06 0 0)
(1.96095e-06 0 0)
(1.96062e-06 0 0)
(1.96023e-06 0 0)
(1.95979e-06 0 0)
(1.9593e-06 0 0)
(1.95876e-06 0 0)
(1.95818e-06 0 0)
(1.95756e-06 0 0)
(1.9569e-06 0 0)
(1.95622e-06 0 0)
(1.95551e-06 0 0)
(1.95478e-06 0 0)
(1.95404e-06 0 0)
(1.95329e-06 0 0)
(1.95253e-06 0 0)
(1.95177e-06 0 0)
(1.95101e-06 0 0)
(1.95026e-06 0 0)
(1.94952e-06 0 0)
(1.94879e-06 0 0)
(1.94808e-06 0 0)
(1.94738e-06 0 0)
(1.9467e-06 0 0)
(1.94604e-06 0 0)
(1.9454e-06 0 0)
(1.94478e-06 0 0)
(1.94419e-06 0 0)
(1.94361e-06 0 0)
(1.94305e-06 0 0)
(1.94252e-06 0 0)
(1.942e-06 0 0)
(1.94151e-06 0 0)
(1.94103e-06 0 0)
(1.94056e-06 0 0)
(1.94011e-06 0 0)
(1.93968e-06 0 0)
(1.93926e-06 0 0)
(1.93885e-06 0 0)
(1.93845e-06 0 0)
(1.93806e-06 0 0)
(1.93767e-06 0 0)
(1.9373e-06 0 0)
(1.93693e-06 0 0)
(1.93656e-06 0 0)
(1.9362e-06 0 0)
(1.93584e-06 0 0)
(1.93549e-06 0 0)
(1.93513e-06 0 0)
(1.93478e-06 0 0)
(1.93443e-06 0 0)
(1.93408e-06 0 0)
(1.93373e-06 0 0)
(1.93338e-06 0 0)
(1.93303e-06 0 0)
(1.93269e-06 0 0)
(1.93234e-06 0 0)
(1.93199e-06 0 0)
(1.93164e-06 0 0)
(1.9313e-06 0 0)
(1.93095e-06 0 0)
(1.93061e-06 0 0)
(1.93027e-06 0 0)
(1.92992e-06 0 0)
(1.92958e-06 0 0)
(1.92925e-06 0 0)
(1.92891e-06 0 0)
(1.92857e-06 0 0)
(1.92824e-06 0 0)
(1.92791e-06 0 0)
(1.92759e-06 0 0)
(1.92726e-06 0 0)
(1.92694e-06 0 0)
(1.92663e-06 0 0)
(1.92632e-06 0 0)
(1.92601e-06 0 0)
(1.9257e-06 0 0)
(1.9254e-06 0 0)
(1.92511e-06 0 0)
(1.92482e-06 0 0)
(1.92453e-06 0 0)
(1.92425e-06 0 0)
(1.92397e-06 0 0)
(1.9237e-06 0 0)
(1.92343e-06 0 0)
(1.92317e-06 0 0)
(1.92291e-06 0 0)
(1.92266e-06 0 0)
(1.92241e-06 0 0)
(1.92217e-06 0 0)
(1.92193e-06 0 0)
(1.9217e-06 0 0)
(1.92148e-06 0 0)
(1.92126e-06 0 0)
(1.92104e-06 0 0)
(1.92083e-06 0 0)
(1.92062e-06 0 0)
(1.92042e-06 0 0)
(1.92023e-06 0 0)
(1.92003e-06 0 0)
(1.91985e-06 0 0)
(1.91967e-06 0 0)
(1.91949e-06 0 0)
(1.91932e-06 0 0)
(1.91915e-06 0 0)
(1.91898e-06 0 0)
(1.91882e-06 0 0)
(1.91867e-06 0 0)
(1.91851e-06 0 0)
(1.91837e-06 0 0)
(1.91822e-06 0 0)
(1.91808e-06 0 0)
(1.91795e-06 0 0)
(1.91782e-06 0 0)
(1.91769e-06 0 0)
(1.91756e-06 0 0)
(1.91745e-06 0 0)
(1.91733e-06 0 0)
(1.91722e-06 0 0)
(1.91712e-06 0 0)
(1.91702e-06 0 0)
(1.91692e-06 0 0)
(1.91684e-06 0 0)
(1.91676e-06 0 0)
(1.91668e-06 0 0)
(1.91662e-06 0 0)
(1.91656e-06 0 0)
(1.91651e-06 0 0)
(1.91648e-06 0 0)
(1.91645e-06 0 0)
(1.91644e-06 0 0)
(1.91644e-06 0 0)
(1.91645e-06 0 0)
(1.91648e-06 0 0)
(1.91652e-06 0 0)
(1.91658e-06 0 0)
(1.91666e-06 0 0)
(1.91675e-06 0 0)
(1.91687e-06 0 0)
(1.917e-06 0 0)
(1.91716e-06 0 0)
(1.91733e-06 0 0)
(1.91753e-06 0 0)
(1.91774e-06 0 0)
(1.91798e-06 0 0)
(1.91823e-06 0 0)
(1.91851e-06 0 0)
(1.91881e-06 0 0)
(1.91913e-06 0 0)
(1.91946e-06 0 0)
(1.91981e-06 0 0)
(1.92018e-06 0 0)
(1.92056e-06 0 0)
(1.92095e-06 0 0)
(1.92135e-06 0 0)
(1.92176e-06 0 0)
(1.92218e-06 0 0)
(1.92259e-06 0 0)
(1.92301e-06 0 0)
(1.92343e-06 0 0)
(1.92384e-06 0 0)
(1.92425e-06 0 0)
(1.92465e-06 0 0)
(1.92504e-06 0 0)
(1.92542e-06 0 0)
(1.92579e-06 0 0)
(1.92613e-06 0 0)
(1.92645e-06 0 0)
(1.92674e-06 0 0)
(1.92701e-06 0 0)
(1.92724e-06 0 0)
(1.92744e-06 0 0)
(1.9276e-06 0 0)
(1.92772e-06 0 0)
(1.9278e-06 0 0)
(1.92784e-06 0 0)
(1.92784e-06 0 0)
(1.92779e-06 0 0)
(1.92769e-06 0 0)
(1.92755e-06 0 0)
(1.92737e-06 0 0)
(1.92714e-06 0 0)
(1.92687e-06 0 0)
(1.92656e-06 0 0)
(1.92621e-06 0 0)
(1.92581e-06 0 0)
(1.92535e-06 0 0)
(1.92486e-06 0 0)
(1.92434e-06 0 0)
(1.92379e-06 0 0)
(1.92321e-06 0 0)
(1.92261e-06 0 0)
(1.92199e-06 0 0)
(1.92135e-06 0 0)
(1.92069e-06 0 0)
(1.92003e-06 0 0)
(1.91936e-06 0 0)
(1.91868e-06 0 0)
(1.91799e-06 0 0)
(1.91731e-06 0 0)
(1.91663e-06 0 0)
(1.91595e-06 0 0)
(1.91527e-06 0 0)
(1.91461e-06 0 0)
(1.91395e-06 0 0)
(1.91331e-06 0 0)
(1.15025e-06 0 0)
)
;

boundaryField
{
    inlet
    {
        type            fixedValue;
        value           uniform (2.74882e-06 0 0);
    }
    outlet
    {
        type            zeroGradient;
    }
    emptyWalls
    {
        type            empty;
    }
}


// ************************************************************************* //
