/*--------------------------------*- C++ -*----------------------------------*\
  =========                 |
  \\      /  F ield         | OpenFOAM: The Open Source CFD Toolbox
   \\    /   O peration     | Website:  https://openfoam.org
    \\  /    A nd           | Version:  9
     \\/     M anipulation  |
\*---------------------------------------------------------------------------*/
FoamFile
{
    format      ascii;
    class       volScalarField;
    location    "21300";
    object      krb;
}
// * * * * * * * * * * * * * * * * * * * * * * * * * * * * * * * * * * * * * //

dimensions      [0 0 0 0 0 0 0];

internalField   nonuniform List<scalar> 
1000
(
0.0978288
0.098279
0.0987507
0.0993466
0.099823
0.100412
0.100925
0.101498
0.102056
0.10263
0.10321
0.103799
0.104383
0.104974
0.105553
0.106122
0.106679
0.1072
0.107716
0.108152
0.108618
0.108944
0.109345
0.109585
0.109902
0.110129
0.110531
0.11154
0.115294
0.134755
0.288409
0.453041
0.488279
0.500239
0.506392
0.510394
0.513354
0.515719
0.517678
0.519349
0.520793
0.522069
0.523205
0.524221
0.525117
0.525897
0.526558
0.527114
0.52758
0.52798
0.528334
0.528659
0.528964
0.529247
0.529503
0.529724
0.52991
0.530087
0.530271
0.530433
0.530557
0.53065
0.530703
0.53071
0.53068
0.530604
0.530487
0.530331
0.530137
0.529906
0.529637
0.529332
0.528988
0.528603
0.528175
0.527695
0.527155
0.526542
0.525836
0.525012
0.524042
0.522897
0.52156
0.520034
0.518358
0.516586
0.514754
0.512882
0.510988
0.509081
0.50717
0.505258
0.503351
0.50145
0.499559
0.497679
0.49581
0.493953
0.49211
0.490281
0.488465
0.486664
0.484877
0.483104
0.481345
0.479601
0.477871
0.476155
0.474453
0.472765
0.471091
0.46943
0.467783
0.46615
0.464529
0.462922
0.461328
0.459746
0.458177
0.45662
0.455076
0.453543
0.452023
0.450514
0.449017
0.447532
0.446058
0.444595
0.443144
0.441704
0.440274
0.438856
0.437448
0.436051
0.434663
0.433286
0.431919
0.430561
0.429213
0.427875
0.426547
0.425227
0.423918
0.422618
0.421327
0.420046
0.418774
0.41751
0.416254
0.415006
0.413764
0.41253
0.411301
0.410079
0.408862
0.407652
0.406447
0.405249
0.404057
0.402871
0.401693
0.400522
0.399359
0.398204
0.397057
0.395919
0.394791
0.393672
0.392564
0.391466
0.390379
0.389301
0.388234
0.387177
0.386129
0.38509
0.384059
0.383035
0.382018
0.381006
0.38
0.378999
0.378002
0.377009
0.37602
0.375035
0.374054
0.373076
0.372102
0.371133
0.370167
0.369206
0.36825
0.367298
0.366351
0.365409
0.364472
0.36354
0.362613
0.361691
0.360775
0.359863
0.358957
0.358055
0.357159
0.356267
0.35538
0.354498
0.35362
0.352747
0.351879
0.351014
0.350155
0.349299
0.348448
0.347601
0.346758
0.34592
0.345085
0.344254
0.343428
0.342605
0.341786
0.340971
0.34016
0.339353
0.338549
0.337749
0.336953
0.33616
0.335371
0.334586
0.333804
0.333026
0.332251
0.331479
0.330711
0.329947
0.329186
0.328428
0.327673
0.326922
0.326174
0.325429
0.324687
0.323949
0.323213
0.322481
0.321752
0.321025
0.320302
0.319582
0.318865
0.318151
0.31744
0.316731
0.316026
0.315324
0.314624
0.313928
0.313234
0.312543
0.311854
0.311169
0.310486
0.309806
0.309129
0.308454
0.307782
0.307113
0.306446
0.305782
0.305121
0.304462
0.303806
0.303153
0.302502
0.301853
0.301206
0.300562
0.29992
0.29928
0.298642
0.298006
0.297371
0.296739
0.296108
0.295478
0.29485
0.294224
0.2936
0.292977
0.292356
0.291737
0.291119
0.290504
0.289891
0.28928
0.288672
0.288067
0.287464
0.286864
0.286267
0.285673
0.285082
0.284495
0.283911
0.283331
0.282754
0.282181
0.28161
0.281043
0.280479
0.279918
0.279359
0.278803
0.278249
0.277697
0.277147
0.276599
0.276052
0.275507
0.274963
0.274421
0.273879
0.273339
0.2728
0.272262
0.271725
0.271189
0.270655
0.270122
0.26959
0.26906
0.268531
0.268003
0.267477
0.266952
0.266429
0.265908
0.265388
0.26487
0.264353
0.263838
0.263325
0.262813
0.262303
0.261795
0.261288
0.260783
0.260279
0.259777
0.259276
0.258777
0.25828
0.257784
0.257289
0.256796
0.256304
0.255814
0.255325
0.254838
0.254352
0.253867
0.253384
0.252902
0.252422
0.251942
0.251464
0.250988
0.250512
0.250038
0.249566
0.249094
0.248624
0.248155
0.247687
0.247221
0.246756
0.246292
0.245829
0.245367
0.244907
0.244448
0.24399
0.243533
0.243078
0.242623
0.24217
0.241718
0.241267
0.240817
0.240368
0.239921
0.239474
0.239029
0.238584
0.238141
0.237699
0.237258
0.236818
0.23638
0.235942
0.235505
0.23507
0.234635
0.234202
0.23377
0.233338
0.232908
0.232479
0.232051
0.231623
0.231197
0.230772
0.230348
0.229925
0.229503
0.229082
0.228662
0.228243
0.227825
0.227408
0.226992
0.226576
0.226162
0.225748
0.225336
0.224924
0.224513
0.224102
0.223693
0.223284
0.222876
0.222468
0.222061
0.221655
0.221249
0.220844
0.22044
0.220036
0.219633
0.21923
0.218829
0.218428
0.218028
0.217628
0.21723
0.216832
0.216435
0.21604
0.215645
0.215252
0.21486
0.214469
0.214079
0.213691
0.213304
0.212918
0.212534
0.212151
0.21177
0.21139
0.211011
0.210633
0.210257
0.209882
0.209509
0.209136
0.208765
0.208394
0.208025
0.207656
0.207288
0.206921
0.206554
0.206188
0.205823
0.205458
0.205094
0.20473
0.204366
0.204003
0.203641
0.203279
0.202917
0.202556
0.202196
0.201835
0.201476
0.201117
0.200758
0.2004
0.200043
0.199686
0.199329
0.198974
0.198619
0.198264
0.19791
0.197557
0.197204
0.196852
0.196501
0.19615
0.1958
0.195451
0.195102
0.194754
0.194407
0.19406
0.193714
0.193368
0.193023
0.192678
0.192335
0.191991
0.191649
0.191307
0.190965
0.190624
0.190284
0.189944
0.189605
0.189266
0.188928
0.18859
0.188253
0.187916
0.18758
0.187245
0.186909
0.186575
0.186241
0.185907
0.185574
0.185242
0.18491
0.184578
0.184247
0.183916
0.183586
0.183257
0.182928
0.182599
0.182271
0.181943
0.181615
0.181289
0.180962
0.180636
0.180311
0.179986
0.179661
0.179337
0.179013
0.17869
0.178367
0.178045
0.177723
0.177401
0.17708
0.176759
0.176439
0.176119
0.1758
0.175481
0.175162
0.174844
0.174526
0.174209
0.173892
0.173575
0.173259
0.172943
0.172628
0.172313
0.171998
0.171684
0.17137
0.171057
0.170744
0.170431
0.170119
0.169807
0.169495
0.169184
0.168873
0.168562
0.168252
0.167942
0.167632
0.167323
0.167013
0.166705
0.166396
0.166087
0.165779
0.165471
0.165163
0.164856
0.164548
0.164241
0.163934
0.163628
0.163321
0.163015
0.162709
0.162403
0.162097
0.161792
0.161487
0.161183
0.160878
0.160574
0.160271
0.159967
0.159665
0.159362
0.15906
0.158759
0.158458
0.158157
0.157857
0.157557
0.157258
0.15696
0.156662
0.156364
0.156068
0.155771
0.155475
0.15518
0.154885
0.154591
0.154297
0.154003
0.15371
0.153417
0.153125
0.152833
0.152541
0.152249
0.151958
0.151667
0.151376
0.151085
0.150795
0.150504
0.150214
0.149924
0.149634
0.149344
0.149054
0.148764
0.148474
0.148184
0.147895
0.147605
0.147316
0.147026
0.146737
0.146448
0.146159
0.14587
0.145581
0.145292
0.145004
0.144715
0.144427
0.144138
0.14385
0.143562
0.143274
0.142986
0.142699
0.142411
0.142124
0.141836
0.141549
0.141262
0.140975
0.140688
0.140401
0.140114
0.139828
0.139541
0.139255
0.138968
0.138682
0.138396
0.13811
0.137824
0.137538
0.137252
0.136966
0.13668
0.136394
0.136109
0.135823
0.135537
0.135251
0.134966
0.13468
0.134395
0.134109
0.133823
0.133538
0.133252
0.132966
0.132681
0.132395
0.13211
0.131824
0.131538
0.131252
0.130967
0.130681
0.130395
0.130109
0.129823
0.129537
0.129251
0.128965
0.128678
0.128392
0.128106
0.127819
0.127533
0.127246
0.126959
0.126672
0.126385
0.126098
0.125811
0.125524
0.125236
0.124949
0.124661
0.124373
0.124085
0.123797
0.123509
0.12322
0.122932
0.122643
0.122354
0.122065
0.121776
0.121486
0.121197
0.120907
0.120617
0.120327
0.120036
0.119746
0.119455
0.119164
0.118872
0.118581
0.118289
0.117997
0.117705
0.117412
0.117119
0.116826
0.116533
0.116239
0.115945
0.115651
0.115357
0.115062
0.114767
0.114472
0.114176
0.11388
0.113584
0.113288
0.112991
0.112694
0.112397
0.112099
0.111801
0.111504
0.111206
0.110907
0.110609
0.110311
0.110012
0.109714
0.109416
0.109118
0.10882
0.108523
0.108226
0.107929
0.107634
0.107339
0.107045
0.106752
0.106461
0.106172
0.105884
0.105599
0.105317
0.105038
0.104762
0.10449
0.104222
0.10396
0.103703
0.103453
0.10321
0.102974
0.102746
0.102527
0.102318
0.102119
0.10193
0.101752
0.101586
0.101431
0.101288
0.101156
0.101036
0.100928
0.10083
0.100743
0.100666
0.100598
0.100539
0.100488
0.100445
0.100408
0.100376
0.10035
0.100328
0.10031
0.100295
0.100282
0.100271
0.100259
0.100246
0.100227
0.100199
0.10015
0.100066
0.0999157
0.0996488
0.0991741
0.0983352
0.0968732
0.0943881
0.09034
0.0841853
0.0757581
0.065772
0.055846
0.0476361
0.0418686
0.0382885
0.036241
0.0351261
0.0345355
0.0342272
0.0340676
0.0339853
0.033943
0.0339212
0.0339101
0.0339044
0.0339014
0.0339
0.0338992
0.0338988
0.0338987
0.0338986
0.0338986
0.0338986
0.0338986
0.0338986
0.0338986
0.0338986
0.0338986
0.0338986
0.0338985
0.0338985
0.0338985
0.0338984
0.0338984
0.0338984
0.0338983
0.0338983
0.0338982
0.0338981
0.0338981
0.033898
0.0338979
0.0338978
0.0338978
0.0338977
0.0338976
0.0338975
0.0338974
0.0338973
0.0338973
0.0338972
0.0338971
0.033897
0.0338969
0.0338968
0.0338967
0.0338966
0.0338965
0.0338965
0.0338964
0.0338963
0.0338962
0.0338961
0.033896
0.033896
0.0338959
0.0338958
0.0338957
0.0338957
0.0338956
0.0338955
0.0338955
0.0338954
0.0338953
0.0338953
0.0338952
0.0338952
0.0338951
0.0338951
0.033895
0.0338949
0.0338949
0.0338948
0.0338948
0.0338947
0.0338947
0.0338947
0.0338946
0.0338946
0.0338945
0.0338945
0.0338945
0.0338944
0.0338944
0.0338944
0.0338943
0.0338943
0.0338942
0.0338942
0.0338942
0.0338941
0.0338941
0.0338941
0.033894
0.033894
0.0338939
0.0338939
0.0338938
0.0338938
0.0338937
0.0338937
0.0338936
0.0338935
0.0338934
0.0338934
0.0338933
0.0338932
0.0338931
0.033893
0.0338929
0.0338928
0.0338926
0.0338925
0.0338924
0.0338922
0.0338921
0.0338919
0.0338918
0.0338916
0.0338914
0.0338913
0.0338911
0.0338909
0.0338907
0.0338906
0.0338903
0.0338902
0.0338899
0.0338898
0.0338895
0.0338894
0.0338891
0.033889
0.0338887
)
;

boundaryField
{
    inlet
    {
        type            calculated;
        value           uniform 0.0976562;
    }
    outlet
    {
        type            calculated;
        value           uniform 0.0338887;
    }
    emptyWalls
    {
        type            empty;
    }
}


// ************************************************************************* //
