/*--------------------------------*- C++ -*----------------------------------*\
  =========                 |
  \\      /  F ield         | OpenFOAM: The Open Source CFD Toolbox
   \\    /   O peration     | Website:  https://openfoam.org
    \\  /    A nd           | Version:  9
     \\/     M anipulation  |
\*---------------------------------------------------------------------------*/
FoamFile
{
    format      ascii;
    class       volScalarField;
    location    "99000";
    object      krc;
}
// * * * * * * * * * * * * * * * * * * * * * * * * * * * * * * * * * * * * * //

dimensions      [0 0 0 0 0 0 0];

internalField   nonuniform List<scalar> 
100
(
2.45427e-22
2.41674e-24
3.03257e-24
3.32188e-24
2.67849e-25
2.61316e-24
3.83707e-25
1.09427e-26
2.10461e-24
1.27326e-24
3.22191e-24
6.87907e-27
6.4063e-25
7.923e-26
1.55698e-24
4.12254e-24
3.76743e-24
4.83851e-24
6.80331e-26
7.73981e-25
1.64579e-24
6.39697e-24
1.36925e-24
7.3802e-26
6.03568e-24
1.60874e-24
1.47102e-24
4.04639e-24
1.82083e-25
1.42816e-23
1.70029e-25
2.47074e-24
7.2657e-24
9.75235e-24
3.48363e-26
4.18751e-24
2.78428e-26
3.70688e-26
6.8602e-25
1.34766e-24
6.5364e-25
2.10506e-24
6.72064e-24
9.88165e-25
1.70452e-24
2.01326e-25
1.31919e-24
2.32225e-24
2.45989e-24
2.42872e-24
4.28104e-25
4.47215e-25
5.35879e-24
1.54057e-24
1.26759e-24
2.42529e-24
1.32986e-24
1.89032e-24
3.09164e-24
2.5074e-24
4.00072e-24
2.14811e-24
7.773e-25
2.17766e-24
5.61902e-26
2.80541e-24
3.05339e-24
3.3886e-24
3.28905e-24
1.25217e-25
3.13987e-24
2.34215e-24
8.69676e-26
1.64247e-26
1.13028e-25
8.12292e-25
6.89783e-26
1.11739e-26
3.25837e-24
3.59439e-28
3.35688e-24
2.79936e-24
2.83692e-26
2.1974e-24
6.26168e-26
3.33147e-28
1.0581e-25
2.30648e-24
2.98424e-26
2.30577e-24
2.27748e-24
2.20346e-24
5.96664e-26
8.01151e-25
2.22835e-26
1.2824e-26
9.61502e-25
2.16725e-24
3.70129e-24
2.90436e-24
)
;

boundaryField
{
    inlet
    {
        type            calculated;
        value           uniform 2.45427e-22;
    }
    outlet
    {
        type            calculated;
        value           uniform 2.90436e-24;
    }
    emptyWalls
    {
        type            empty;
    }
}


// ************************************************************************* //
