/*--------------------------------*- C++ -*----------------------------------*\
  =========                 |
  \\      /  F ield         | OpenFOAM: The Open Source CFD Toolbox
   \\    /   O peration     | Website:  https://openfoam.org
    \\  /    A nd           | Version:  9
     \\/     M anipulation  |
\*---------------------------------------------------------------------------*/
FoamFile
{
    format      ascii;
    class       surfaceScalarField;
    location    "23750";
    object      phia;
}
// * * * * * * * * * * * * * * * * * * * * * * * * * * * * * * * * * * * * * //

dimensions      [0 2 0 0 0 0 0];

internalField   nonuniform List<scalar> 
999
(
2.74861e-10
2.74874e-10
2.7486e-10
2.74847e-10
2.74833e-10
2.74803e-10
2.74774e-10
2.74742e-10
2.74693e-10
2.74654e-10
2.7459e-10
2.7454e-10
2.74461e-10
2.74408e-10
2.74325e-10
2.7426e-10
2.7419e-10
2.74102e-10
2.74041e-10
2.73942e-10
2.73875e-10
2.73791e-10
2.73721e-10
2.73654e-10
2.73593e-10
2.73535e-10
2.73485e-10
2.7344e-10
2.73395e-10
2.7332e-10
2.73096e-10
2.72159e-10
2.68164e-10
2.4714e-10
2.19555e-10
2.13652e-10
2.11766e-10
2.11232e-10
2.11078e-10
2.10934e-10
2.10717e-10
2.10439e-10
2.10135e-10
2.09828e-10
2.09529e-10
2.09246e-10
2.08978e-10
2.08722e-10
2.08484e-10
2.08256e-10
2.0804e-10
2.07837e-10
2.07643e-10
2.07461e-10
2.07287e-10
2.07122e-10
2.06964e-10
2.06815e-10
2.06674e-10
2.06539e-10
2.06411e-10
2.06291e-10
2.06177e-10
2.0607e-10
2.05969e-10
2.05872e-10
2.05779e-10
2.05689e-10
2.05605e-10
2.05524e-10
2.05448e-10
2.05377e-10
2.05312e-10
2.05254e-10
2.05202e-10
2.05155e-10
2.05109e-10
2.05064e-10
2.05018e-10
2.04974e-10
2.04928e-10
2.04884e-10
2.04845e-10
2.0481e-10
2.04781e-10
2.04762e-10
2.04751e-10
2.04746e-10
2.04745e-10
2.04748e-10
2.04751e-10
2.04752e-10
2.0475e-10
2.04744e-10
2.04735e-10
2.04726e-10
2.04721e-10
2.04725e-10
2.04743e-10
2.0478e-10
2.04849e-10
2.04961e-10
2.05122e-10
2.05332e-10
2.0558e-10
2.05851e-10
2.06131e-10
2.06406e-10
2.06672e-10
2.06923e-10
2.07158e-10
2.07372e-10
2.07559e-10
2.0771e-10
2.07815e-10
2.07864e-10
2.07853e-10
2.07777e-10
2.07639e-10
2.07446e-10
2.07207e-10
2.06934e-10
2.06641e-10
2.06341e-10
2.06045e-10
2.05764e-10
2.05507e-10
2.05278e-10
2.05081e-10
2.04917e-10
2.04786e-10
2.04685e-10
2.04611e-10
2.0456e-10
2.04527e-10
2.04507e-10
2.04497e-10
2.04493e-10
2.04491e-10
2.04489e-10
2.04484e-10
2.04476e-10
2.04463e-10
2.04445e-10
2.04422e-10
2.04394e-10
2.04361e-10
2.04325e-10
2.04285e-10
2.04242e-10
2.04198e-10
2.04151e-10
2.04104e-10
2.04056e-10
2.04007e-10
2.03959e-10
2.03911e-10
2.03863e-10
2.03815e-10
2.03768e-10
2.03722e-10
2.03677e-10
2.03632e-10
2.03589e-10
2.03546e-10
2.03504e-10
2.03463e-10
2.03423e-10
2.03385e-10
2.03347e-10
2.03311e-10
2.03275e-10
2.03241e-10
2.03209e-10
2.03177e-10
2.03146e-10
2.03117e-10
2.03089e-10
2.03061e-10
2.03035e-10
2.0301e-10
2.02986e-10
2.02964e-10
2.02942e-10
2.02923e-10
2.02905e-10
2.02888e-10
2.02873e-10
2.02859e-10
2.02847e-10
2.02836e-10
2.02825e-10
2.02815e-10
2.02806e-10
2.02796e-10
2.02787e-10
2.02778e-10
2.0277e-10
2.02762e-10
2.02754e-10
2.02748e-10
2.02742e-10
2.02738e-10
2.02735e-10
2.02733e-10
2.02733e-10
2.02733e-10
2.02733e-10
2.02733e-10
2.02732e-10
2.0273e-10
2.02726e-10
2.02721e-10
2.02716e-10
2.0271e-10
2.02707e-10
2.02706e-10
2.02712e-10
2.02725e-10
2.02748e-10
2.02783e-10
2.02831e-10
2.02894e-10
2.02973e-10
2.03068e-10
2.03179e-10
2.03304e-10
2.03443e-10
2.03594e-10
2.03755e-10
2.03922e-10
2.04095e-10
2.04268e-10
2.04438e-10
2.04602e-10
2.04756e-10
2.04895e-10
2.05016e-10
2.05115e-10
2.05189e-10
2.05235e-10
2.05253e-10
2.0524e-10
2.05198e-10
2.05127e-10
2.05028e-10
2.04905e-10
2.04762e-10
2.04601e-10
2.04429e-10
2.04248e-10
2.04064e-10
2.0388e-10
2.03701e-10
2.03529e-10
2.03367e-10
2.03217e-10
2.0308e-10
2.02957e-10
2.02847e-10
2.02751e-10
2.02669e-10
2.02597e-10
2.02537e-10
2.02485e-10
2.02442e-10
2.02404e-10
2.02371e-10
2.02342e-10
2.02315e-10
2.0229e-10
2.02265e-10
2.0224e-10
2.02214e-10
2.02187e-10
2.02158e-10
2.02128e-10
2.02096e-10
2.02062e-10
2.02026e-10
2.01989e-10
2.01951e-10
2.01911e-10
2.0187e-10
2.01828e-10
2.01785e-10
2.01742e-10
2.01698e-10
2.01654e-10
2.01611e-10
2.01567e-10
2.01523e-10
2.0148e-10
2.01437e-10
2.01395e-10
2.01353e-10
2.01311e-10
2.01271e-10
2.01231e-10
2.01192e-10
2.01153e-10
2.01116e-10
2.01079e-10
2.01043e-10
2.01008e-10
2.00974e-10
2.00941e-10
2.00909e-10
2.00878e-10
2.00847e-10
2.00818e-10
2.00789e-10
2.00762e-10
2.00735e-10
2.0071e-10
2.00686e-10
2.00662e-10
2.0064e-10
2.00619e-10
2.00599e-10
2.0058e-10
2.00562e-10
2.00544e-10
2.00528e-10
2.00513e-10
2.00499e-10
2.00485e-10
2.00472e-10
2.00459e-10
2.00447e-10
2.00436e-10
2.00426e-10
2.00415e-10
2.00406e-10
2.00397e-10
2.00389e-10
2.00381e-10
2.00374e-10
2.00368e-10
2.00362e-10
2.00357e-10
2.00351e-10
2.00347e-10
2.00342e-10
2.00337e-10
2.00332e-10
2.00327e-10
2.00323e-10
2.00319e-10
2.00315e-10
2.00313e-10
2.00312e-10
2.00313e-10
2.00317e-10
2.00325e-10
2.00337e-10
2.00354e-10
2.00377e-10
2.00406e-10
2.00443e-10
2.00487e-10
2.0054e-10
2.00601e-10
2.00671e-10
2.00749e-10
2.00835e-10
2.00929e-10
2.0103e-10
2.01137e-10
2.01249e-10
2.01364e-10
2.01482e-10
2.01601e-10
2.01718e-10
2.01832e-10
2.01942e-10
2.02046e-10
2.0214e-10
2.02225e-10
2.02297e-10
2.02356e-10
2.02401e-10
2.02429e-10
2.02441e-10
2.02436e-10
2.02414e-10
2.02375e-10
2.0232e-10
2.0225e-10
2.02166e-10
2.02069e-10
2.01962e-10
2.01846e-10
2.01723e-10
2.01596e-10
2.01465e-10
2.01334e-10
2.01203e-10
2.01075e-10
2.0095e-10
2.00831e-10
2.00717e-10
2.0061e-10
2.00509e-10
2.00416e-10
2.0033e-10
2.00251e-10
2.00178e-10
2.00112e-10
2.00052e-10
1.99997e-10
1.99946e-10
1.999e-10
1.99857e-10
1.99818e-10
1.9978e-10
1.99744e-10
1.9971e-10
1.99676e-10
1.99643e-10
1.99611e-10
1.99578e-10
1.99545e-10
1.99511e-10
1.99477e-10
1.99442e-10
1.99407e-10
1.99371e-10
1.99334e-10
1.99296e-10
1.99258e-10
1.9922e-10
1.99181e-10
1.99141e-10
1.99102e-10
1.99062e-10
1.99022e-10
1.98982e-10
1.98942e-10
1.98902e-10
1.98862e-10
1.98823e-10
1.98784e-10
1.98745e-10
1.98707e-10
1.9867e-10
1.98632e-10
1.98596e-10
1.9856e-10
1.98524e-10
1.9849e-10
1.98456e-10
1.98422e-10
1.9839e-10
1.98358e-10
1.98326e-10
1.98296e-10
1.98266e-10
1.98237e-10
1.98209e-10
1.98182e-10
1.98155e-10
1.98129e-10
1.98104e-10
1.9808e-10
1.98057e-10
1.98035e-10
1.98013e-10
1.97992e-10
1.97972e-10
1.97953e-10
1.97934e-10
1.97916e-10
1.97899e-10
1.97883e-10
1.97867e-10
1.97852e-10
1.97837e-10
1.97823e-10
1.9781e-10
1.97797e-10
1.97785e-10
1.97773e-10
1.97762e-10
1.97751e-10
1.9774e-10
1.97731e-10
1.97721e-10
1.97712e-10
1.97703e-10
1.97694e-10
1.97686e-10
1.97678e-10
1.97671e-10
1.97663e-10
1.97656e-10
1.97649e-10
1.97643e-10
1.97638e-10
1.97633e-10
1.97629e-10
1.97627e-10
1.97625e-10
1.97626e-10
1.97629e-10
1.97634e-10
1.97642e-10
1.97653e-10
1.97667e-10
1.97686e-10
1.97708e-10
1.97736e-10
1.97767e-10
1.97804e-10
1.97846e-10
1.97893e-10
1.97945e-10
1.98002e-10
1.98064e-10
1.98131e-10
1.98202e-10
1.98277e-10
1.98355e-10
1.98435e-10
1.98518e-10
1.98602e-10
1.98686e-10
1.9877e-10
1.98852e-10
1.98931e-10
1.99008e-10
1.99079e-10
1.99146e-10
1.99206e-10
1.99258e-10
1.99303e-10
1.99339e-10
1.99365e-10
1.99381e-10
1.99387e-10
1.99383e-10
1.99368e-10
1.99342e-10
1.99305e-10
1.99259e-10
1.99203e-10
1.99138e-10
1.99066e-10
1.98986e-10
1.98899e-10
1.98808e-10
1.98712e-10
1.98613e-10
1.98512e-10
1.9841e-10
1.98308e-10
1.98206e-10
1.98106e-10
1.98008e-10
1.97913e-10
1.97821e-10
1.97732e-10
1.97648e-10
1.97567e-10
1.97491e-10
1.97418e-10
1.9735e-10
1.97286e-10
1.97226e-10
1.97169e-10
1.97116e-10
1.97065e-10
1.97018e-10
1.96973e-10
1.9693e-10
1.96889e-10
1.96849e-10
1.96811e-10
1.96773e-10
1.96737e-10
1.96701e-10
1.96666e-10
1.96631e-10
1.96596e-10
1.96561e-10
1.96526e-10
1.96491e-10
1.96455e-10
1.9642e-10
1.96384e-10
1.96348e-10
1.96311e-10
1.96275e-10
1.96238e-10
1.96201e-10
1.96164e-10
1.96126e-10
1.96089e-10
1.96052e-10
1.96014e-10
1.95977e-10
1.9594e-10
1.95903e-10
1.95866e-10
1.9583e-10
1.95793e-10
1.95758e-10
1.95722e-10
1.95687e-10
1.95652e-10
1.95617e-10
1.95584e-10
1.9555e-10
1.95517e-10
1.95485e-10
1.95453e-10
1.95421e-10
1.95391e-10
1.9536e-10
1.95331e-10
1.95302e-10
1.95273e-10
1.95245e-10
1.95218e-10
1.95192e-10
1.95166e-10
1.9514e-10
1.95116e-10
1.95092e-10
1.95068e-10
1.95046e-10
1.95024e-10
1.95002e-10
1.94981e-10
1.94961e-10
1.94941e-10
1.94922e-10
1.94904e-10
1.94886e-10
1.94869e-10
1.94852e-10
1.94835e-10
1.9482e-10
1.94804e-10
1.94789e-10
1.94775e-10
1.94761e-10
1.94748e-10
1.94734e-10
1.94722e-10
1.94709e-10
1.94697e-10
1.94686e-10
1.94675e-10
1.94664e-10
1.94653e-10
1.94643e-10
1.94633e-10
1.94624e-10
1.94615e-10
1.94607e-10
1.946e-10
1.94593e-10
1.94587e-10
1.94582e-10
1.94579e-10
1.94576e-10
1.94575e-10
1.94576e-10
1.94578e-10
1.94582e-10
1.94589e-10
1.94598e-10
1.94609e-10
1.94624e-10
1.94641e-10
1.94661e-10
1.94684e-10
1.94711e-10
1.94741e-10
1.94774e-10
1.9481e-10
1.9485e-10
1.94893e-10
1.9494e-10
1.94989e-10
1.95041e-10
1.95095e-10
1.95152e-10
1.9521e-10
1.9527e-10
1.95331e-10
1.95392e-10
1.95454e-10
1.95515e-10
1.95576e-10
1.95635e-10
1.95691e-10
1.95746e-10
1.95797e-10
1.95844e-10
1.95887e-10
1.95925e-10
1.95958e-10
1.95986e-10
1.96007e-10
1.96022e-10
1.9603e-10
1.96031e-10
1.96025e-10
1.96012e-10
1.95992e-10
1.95964e-10
1.9593e-10
1.95889e-10
1.95842e-10
1.95789e-10
1.9573e-10
1.95666e-10
1.95598e-10
1.95526e-10
1.9545e-10
1.95371e-10
1.9529e-10
1.95208e-10
1.95124e-10
1.9504e-10
1.94956e-10
1.94872e-10
1.94789e-10
1.94707e-10
1.94628e-10
1.94549e-10
1.94473e-10
1.944e-10
1.94329e-10
1.9426e-10
1.94194e-10
1.94131e-10
1.9407e-10
1.94011e-10
1.93955e-10
1.93901e-10
1.9385e-10
1.938e-10
1.93753e-10
1.93707e-10
1.93662e-10
1.93619e-10
1.93577e-10
1.93536e-10
1.93497e-10
1.93457e-10
1.93419e-10
1.93381e-10
1.93343e-10
1.93306e-10
1.93269e-10
1.93232e-10
1.93196e-10
1.93159e-10
1.93122e-10
1.93085e-10
1.93048e-10
1.93011e-10
1.92974e-10
1.92937e-10
1.929e-10
1.92863e-10
1.92825e-10
1.92788e-10
1.92751e-10
1.92713e-10
1.92676e-10
1.92639e-10
1.92601e-10
1.92564e-10
1.92527e-10
1.9249e-10
1.92454e-10
1.92417e-10
1.92381e-10
1.92345e-10
1.92309e-10
1.92274e-10
1.92239e-10
1.92205e-10
1.9217e-10
1.92137e-10
1.92103e-10
1.9207e-10
1.92038e-10
1.92006e-10
1.91974e-10
1.91943e-10
1.91913e-10
1.91882e-10
1.91853e-10
1.91824e-10
1.91795e-10
1.91767e-10
1.9174e-10
1.91713e-10
1.91687e-10
1.91661e-10
1.91636e-10
1.91611e-10
1.91587e-10
1.91563e-10
1.9154e-10
1.91517e-10
1.91495e-10
1.91474e-10
1.91453e-10
1.91432e-10
1.91412e-10
1.91392e-10
1.91373e-10
1.91354e-10
1.91336e-10
1.91318e-10
1.91301e-10
1.91284e-10
1.91267e-10
1.91251e-10
1.91235e-10
1.91219e-10
1.91204e-10
1.91189e-10
1.91175e-10
1.91161e-10
1.91148e-10
1.91135e-10
1.91122e-10
1.9111e-10
1.91098e-10
1.91087e-10
1.91077e-10
1.91067e-10
1.91058e-10
1.9105e-10
1.91043e-10
1.91037e-10
1.91031e-10
1.91027e-10
1.91025e-10
1.91023e-10
1.91024e-10
1.91025e-10
1.91029e-10
1.91034e-10
1.91041e-10
1.9105e-10
1.91061e-10
1.91074e-10
1.9109e-10
1.91107e-10
1.91127e-10
1.91149e-10
1.91173e-10
1.912e-10
1.91228e-10
1.91259e-10
1.91292e-10
1.91327e-10
1.91363e-10
1.91401e-10
1.9144e-10
1.91481e-10
1.91523e-10
1.91565e-10
1.91608e-10
1.91651e-10
1.91694e-10
1.91736e-10
1.91778e-10
1.91819e-10
1.91858e-10
1.91895e-10
1.91931e-10
1.91964e-10
1.91995e-10
1.92022e-10
1.92046e-10
1.92066e-10
1.92083e-10
1.92095e-10
1.92103e-10
1.92107e-10
1.92106e-10
1.921e-10
1.92089e-10
1.92073e-10
1.92052e-10
1.92027e-10
1.91997e-10
1.91962e-10
1.91922e-10
1.91879e-10
1.91831e-10
1.9178e-10
1.91725e-10
1.91668e-10
1.91607e-10
1.91545e-10
1.9148e-10
1.91414e-10
1.91347e-10
1.91279e-10
1.91211e-10
1.91143e-10
1.91075e-10
1.91008e-10
1.90942e-10
1.90877e-10
1.90814e-10
1.90753e-10
1.90694e-10
1.90637e-10
1.90582e-10
1.9053e-10
1.9048e-10
1.90432e-10
1.90387e-10
1.90344e-10
1.90304e-10
1.90265e-10
1.90229e-10
1.90195e-10
1.90163e-10
1.90132e-10
1.90103e-10
1.90076e-10
1.9005e-10
1.90026e-10
1.90002e-10
1.8998e-10
1.89958e-10
1.89937e-10
1.89917e-10
1.89897e-10
1.89877e-10
1.89856e-10
1.89834e-10
1.8981e-10
1.89779e-10
1.89739e-10
1.8968e-10
1.8959e-10
1.89445e-10
1.89213e-10
1.88848e-10
1.88314e-10
1.87616e-10
1.86853e-10
1.86187e-10
1.85727e-10
1.85464e-10
1.85326e-10
1.85253e-10
1.85211e-10
1.85183e-10
1.85161e-10
1.85144e-10
1.85128e-10
1.85113e-10
1.85098e-10
1.85085e-10
1.85071e-10
1.85058e-10
1.85045e-10
1.85032e-10
1.85019e-10
1.85007e-10
1.84995e-10
1.84983e-10
1.84972e-10
1.84961e-10
1.8495e-10
1.8494e-10
1.8493e-10
1.8492e-10
1.84911e-10
1.84902e-10
1.84893e-10
1.84885e-10
1.84878e-10
1.8487e-10
1.84863e-10
1.84857e-10
1.84851e-10
1.84845e-10
1.8484e-10
1.84835e-10
1.84831e-10
1.84827e-10
1.84824e-10
1.8482e-10
1.84818e-10
)
;

boundaryField
{
    inlet
    {
        type            calculated;
        value           uniform -2.74882e-10;
    }
    outlet
    {
        type            calculated;
        value           uniform 1.84816e-10;
    }
    emptyWalls
    {
        type            empty;
        value           nonuniform List<scalar> 0();
    }
}


// ************************************************************************* //
