/*--------------------------------*- C++ -*----------------------------------*\
  =========                 |
  \\      /  F ield         | OpenFOAM: The Open Source CFD Toolbox
   \\    /   O peration     | Website:  https://openfoam.org
    \\  /    A nd           | Version:  9
     \\/     M anipulation  |
\*---------------------------------------------------------------------------*/
FoamFile
{
    format      ascii;
    class       volVectorField;
    location    "23750";
    object      Uc;
}
// * * * * * * * * * * * * * * * * * * * * * * * * * * * * * * * * * * * * * //

dimensions      [0 0 0 0 0 0 0];

internalField   nonuniform List<vector> 
1000
(
(4.63269e-12 0 0)
(2.38329e-11 0 0)
(6.62784e-11 0 0)
(1.34713e-10 0 0)
(2.28249e-10 0 0)
(3.46573e-10 0 0)
(4.8965e-10 0 0)
(6.57543e-10 0 0)
(8.50315e-10 0 0)
(1.06798e-09 0 0)
(1.31035e-09 0 0)
(1.577e-09 0 0)
(1.86715e-09 0 0)
(2.17956e-09 0 0)
(2.51236e-09 0 0)
(2.86296e-09 0 0)
(3.22798e-09 0 0)
(3.60295e-09 0 0)
(3.98283e-09 0 0)
(4.36162e-09 0 0)
(4.73315e-09 0 0)
(5.0914e-09 0 0)
(5.43081e-09 0 0)
(5.7471e-09 0 0)
(6.03731e-09 0 0)
(6.30014e-09 0 0)
(6.53629e-09 0 0)
(6.75025e-09 0 0)
(6.96033e-09 0 0)
(7.24829e-09 0 0)
(7.98349e-09 0 0)
(1.06102e-08 0 0)
(2.14521e-08 0 0)
(7.92922e-08 0 0)
(1.62836e-07 0 0)
(2.03776e-07 0 0)
(2.12824e-07 0 0)
(2.16852e-07 0 0)
(2.19306e-07 0 0)
(2.21117e-07 0 0)
(2.22617e-07 0 0)
(2.23945e-07 0 0)
(2.25162e-07 0 0)
(2.26302e-07 0 0)
(2.27385e-07 0 0)
(2.28421e-07 0 0)
(2.2942e-07 0 0)
(2.30388e-07 0 0)
(2.31329e-07 0 0)
(2.32245e-07 0 0)
(2.33141e-07 0 0)
(2.34018e-07 0 0)
(2.34877e-07 0 0)
(2.35722e-07 0 0)
(2.36553e-07 0 0)
(2.37372e-07 0 0)
(2.38181e-07 0 0)
(2.38981e-07 0 0)
(2.39774e-07 0 0)
(2.40561e-07 0 0)
(2.41344e-07 0 0)
(2.42124e-07 0 0)
(2.42902e-07 0 0)
(2.4368e-07 0 0)
(2.4446e-07 0 0)
(2.45242e-07 0 0)
(2.46029e-07 0 0)
(2.46822e-07 0 0)
(2.47623e-07 0 0)
(2.48438e-07 0 0)
(2.49273e-07 0 0)
(2.50124e-07 0 0)
(2.50988e-07 0 0)
(2.51867e-07 0 0)
(2.52762e-07 0 0)
(2.53674e-07 0 0)
(2.54606e-07 0 0)
(2.5556e-07 0 0)
(2.56539e-07 0 0)
(2.57547e-07 0 0)
(2.58586e-07 0 0)
(2.59663e-07 0 0)
(2.60783e-07 0 0)
(2.61954e-07 0 0)
(2.63187e-07 0 0)
(2.64496e-07 0 0)
(2.65901e-07 0 0)
(2.67432e-07 0 0)
(2.69121e-07 0 0)
(2.71011e-07 0 0)
(2.73147e-07 0 0)
(2.75564e-07 0 0)
(2.78282e-07 0 0)
(2.8129e-07 0 0)
(2.84547e-07 0 0)
(2.87999e-07 0 0)
(2.91595e-07 0 0)
(2.95301e-07 0 0)
(2.99091e-07 0 0)
(3.02945e-07 0 0)
(3.06848e-07 0 0)
(3.10789e-07 0 0)
(3.14758e-07 0 0)
(3.18749e-07 0 0)
(3.22759e-07 0 0)
(3.26786e-07 0 0)
(3.3083e-07 0 0)
(3.34893e-07 0 0)
(3.38974e-07 0 0)
(3.43073e-07 0 0)
(3.47189e-07 0 0)
(3.51323e-07 0 0)
(3.55475e-07 0 0)
(3.59646e-07 0 0)
(3.63838e-07 0 0)
(3.68052e-07 0 0)
(3.72292e-07 0 0)
(3.76557e-07 0 0)
(3.80848e-07 0 0)
(3.85164e-07 0 0)
(3.89504e-07 0 0)
(3.93864e-07 0 0)
(3.98242e-07 0 0)
(4.02634e-07 0 0)
(4.07037e-07 0 0)
(4.11449e-07 0 0)
(4.15865e-07 0 0)
(4.20285e-07 0 0)
(4.24706e-07 0 0)
(4.29128e-07 0 0)
(4.3355e-07 0 0)
(4.37973e-07 0 0)
(4.42396e-07 0 0)
(4.4682e-07 0 0)
(4.51246e-07 0 0)
(4.55676e-07 0 0)
(4.60109e-07 0 0)
(4.64548e-07 0 0)
(4.68993e-07 0 0)
(4.73444e-07 0 0)
(4.77903e-07 0 0)
(4.8237e-07 0 0)
(4.86845e-07 0 0)
(4.91328e-07 0 0)
(4.9582e-07 0 0)
(5.0032e-07 0 0)
(5.04828e-07 0 0)
(5.09344e-07 0 0)
(5.13867e-07 0 0)
(5.18399e-07 0 0)
(5.22937e-07 0 0)
(5.27483e-07 0 0)
(5.32035e-07 0 0)
(5.36595e-07 0 0)
(5.4116e-07 0 0)
(5.45733e-07 0 0)
(5.50311e-07 0 0)
(5.54895e-07 0 0)
(5.59486e-07 0 0)
(5.64082e-07 0 0)
(5.68684e-07 0 0)
(5.73291e-07 0 0)
(5.77905e-07 0 0)
(5.82523e-07 0 0)
(5.87148e-07 0 0)
(5.91777e-07 0 0)
(5.96412e-07 0 0)
(6.01053e-07 0 0)
(6.05698e-07 0 0)
(6.10349e-07 0 0)
(6.15005e-07 0 0)
(6.19665e-07 0 0)
(6.24331e-07 0 0)
(6.29002e-07 0 0)
(6.33677e-07 0 0)
(6.38358e-07 0 0)
(6.43043e-07 0 0)
(6.47733e-07 0 0)
(6.52428e-07 0 0)
(6.57127e-07 0 0)
(6.61832e-07 0 0)
(6.6654e-07 0 0)
(6.71254e-07 0 0)
(6.75971e-07 0 0)
(6.80693e-07 0 0)
(6.8542e-07 0 0)
(6.9015e-07 0 0)
(6.94885e-07 0 0)
(6.99624e-07 0 0)
(7.04367e-07 0 0)
(7.09114e-07 0 0)
(7.13866e-07 0 0)
(7.18622e-07 0 0)
(7.23382e-07 0 0)
(7.28147e-07 0 0)
(7.32917e-07 0 0)
(7.37691e-07 0 0)
(7.42469e-07 0 0)
(7.47252e-07 0 0)
(7.52039e-07 0 0)
(7.5683e-07 0 0)
(7.61625e-07 0 0)
(7.66424e-07 0 0)
(7.71226e-07 0 0)
(7.76033e-07 0 0)
(7.80843e-07 0 0)
(7.85657e-07 0 0)
(7.90475e-07 0 0)
(7.95298e-07 0 0)
(8.00125e-07 0 0)
(8.04957e-07 0 0)
(8.09794e-07 0 0)
(8.14635e-07 0 0)
(8.19482e-07 0 0)
(8.24333e-07 0 0)
(8.29187e-07 0 0)
(8.34045e-07 0 0)
(8.38904e-07 0 0)
(8.43763e-07 0 0)
(8.48622e-07 0 0)
(8.53479e-07 0 0)
(8.58332e-07 0 0)
(8.63182e-07 0 0)
(8.68027e-07 0 0)
(8.72866e-07 0 0)
(8.777e-07 0 0)
(8.82529e-07 0 0)
(8.87353e-07 0 0)
(8.92173e-07 0 0)
(8.96989e-07 0 0)
(9.01803e-07 0 0)
(9.06617e-07 0 0)
(9.11432e-07 0 0)
(9.1625e-07 0 0)
(9.21074e-07 0 0)
(9.25905e-07 0 0)
(9.30747e-07 0 0)
(9.35601e-07 0 0)
(9.40471e-07 0 0)
(9.45358e-07 0 0)
(9.50264e-07 0 0)
(9.55191e-07 0 0)
(9.6014e-07 0 0)
(9.65111e-07 0 0)
(9.70105e-07 0 0)
(9.75121e-07 0 0)
(9.80157e-07 0 0)
(9.85213e-07 0 0)
(9.90284e-07 0 0)
(9.95371e-07 0 0)
(1.00047e-06 0 0)
(1.00557e-06 0 0)
(1.01069e-06 0 0)
(1.0158e-06 0 0)
(1.02092e-06 0 0)
(1.02604e-06 0 0)
(1.03115e-06 0 0)
(1.03626e-06 0 0)
(1.04136e-06 0 0)
(1.04647e-06 0 0)
(1.05156e-06 0 0)
(1.05665e-06 0 0)
(1.06174e-06 0 0)
(1.06682e-06 0 0)
(1.0719e-06 0 0)
(1.07698e-06 0 0)
(1.08206e-06 0 0)
(1.08714e-06 0 0)
(1.09222e-06 0 0)
(1.0973e-06 0 0)
(1.10239e-06 0 0)
(1.10747e-06 0 0)
(1.11256e-06 0 0)
(1.11766e-06 0 0)
(1.12276e-06 0 0)
(1.12786e-06 0 0)
(1.13297e-06 0 0)
(1.13808e-06 0 0)
(1.1432e-06 0 0)
(1.14833e-06 0 0)
(1.15346e-06 0 0)
(1.15859e-06 0 0)
(1.16373e-06 0 0)
(1.16888e-06 0 0)
(1.17403e-06 0 0)
(1.17918e-06 0 0)
(1.18434e-06 0 0)
(1.1895e-06 0 0)
(1.19467e-06 0 0)
(1.19984e-06 0 0)
(1.20501e-06 0 0)
(1.21019e-06 0 0)
(1.21537e-06 0 0)
(1.22056e-06 0 0)
(1.22574e-06 0 0)
(1.23094e-06 0 0)
(1.23613e-06 0 0)
(1.24133e-06 0 0)
(1.24653e-06 0 0)
(1.25174e-06 0 0)
(1.25695e-06 0 0)
(1.26216e-06 0 0)
(1.26738e-06 0 0)
(1.27259e-06 0 0)
(1.27782e-06 0 0)
(1.28304e-06 0 0)
(1.28827e-06 0 0)
(1.2935e-06 0 0)
(1.29873e-06 0 0)
(1.30397e-06 0 0)
(1.30921e-06 0 0)
(1.31445e-06 0 0)
(1.3197e-06 0 0)
(1.32495e-06 0 0)
(1.3302e-06 0 0)
(1.33545e-06 0 0)
(1.34071e-06 0 0)
(1.34597e-06 0 0)
(1.35123e-06 0 0)
(1.3565e-06 0 0)
(1.36177e-06 0 0)
(1.36704e-06 0 0)
(1.37231e-06 0 0)
(1.37759e-06 0 0)
(1.38287e-06 0 0)
(1.38815e-06 0 0)
(1.39344e-06 0 0)
(1.39872e-06 0 0)
(1.40402e-06 0 0)
(1.40931e-06 0 0)
(1.41461e-06 0 0)
(1.41991e-06 0 0)
(1.42521e-06 0 0)
(1.43052e-06 0 0)
(1.43583e-06 0 0)
(1.44115e-06 0 0)
(1.44646e-06 0 0)
(1.45178e-06 0 0)
(1.4571e-06 0 0)
(1.46243e-06 0 0)
(1.46776e-06 0 0)
(1.47309e-06 0 0)
(1.47843e-06 0 0)
(1.48377e-06 0 0)
(1.48911e-06 0 0)
(1.49446e-06 0 0)
(1.49981e-06 0 0)
(1.50516e-06 0 0)
(1.51052e-06 0 0)
(1.51588e-06 0 0)
(1.52124e-06 0 0)
(1.5266e-06 0 0)
(1.53197e-06 0 0)
(1.53734e-06 0 0)
(1.54271e-06 0 0)
(1.54808e-06 0 0)
(1.55344e-06 0 0)
(1.55881e-06 0 0)
(1.56417e-06 0 0)
(1.56953e-06 0 0)
(1.57488e-06 0 0)
(1.58023e-06 0 0)
(1.58557e-06 0 0)
(1.59091e-06 0 0)
(1.59624e-06 0 0)
(1.60157e-06 0 0)
(1.60689e-06 0 0)
(1.61221e-06 0 0)
(1.61752e-06 0 0)
(1.62283e-06 0 0)
(1.62813e-06 0 0)
(1.63344e-06 0 0)
(1.63875e-06 0 0)
(1.64406e-06 0 0)
(1.64937e-06 0 0)
(1.6547e-06 0 0)
(1.66003e-06 0 0)
(1.66537e-06 0 0)
(1.67073e-06 0 0)
(1.6761e-06 0 0)
(1.68149e-06 0 0)
(1.6869e-06 0 0)
(1.69232e-06 0 0)
(1.69777e-06 0 0)
(1.70325e-06 0 0)
(1.70874e-06 0 0)
(1.71426e-06 0 0)
(1.71981e-06 0 0)
(1.72537e-06 0 0)
(1.73095e-06 0 0)
(1.73656e-06 0 0)
(1.74218e-06 0 0)
(1.74782e-06 0 0)
(1.75348e-06 0 0)
(1.75914e-06 0 0)
(1.76481e-06 0 0)
(1.77049e-06 0 0)
(1.77618e-06 0 0)
(1.78187e-06 0 0)
(1.78756e-06 0 0)
(1.79325e-06 0 0)
(1.79894e-06 0 0)
(1.80462e-06 0 0)
(1.81031e-06 0 0)
(1.81599e-06 0 0)
(1.82166e-06 0 0)
(1.82733e-06 0 0)
(1.833e-06 0 0)
(1.83866e-06 0 0)
(1.84432e-06 0 0)
(1.84998e-06 0 0)
(1.85564e-06 0 0)
(1.8613e-06 0 0)
(1.86695e-06 0 0)
(1.87261e-06 0 0)
(1.87826e-06 0 0)
(1.88392e-06 0 0)
(1.88958e-06 0 0)
(1.89524e-06 0 0)
(1.90091e-06 0 0)
(1.90658e-06 0 0)
(1.91226e-06 0 0)
(1.91794e-06 0 0)
(1.92362e-06 0 0)
(1.92931e-06 0 0)
(1.935e-06 0 0)
(1.9407e-06 0 0)
(1.94641e-06 0 0)
(1.95212e-06 0 0)
(1.95784e-06 0 0)
(1.96356e-06 0 0)
(1.96928e-06 0 0)
(1.97501e-06 0 0)
(1.98075e-06 0 0)
(1.98649e-06 0 0)
(1.99224e-06 0 0)
(1.99799e-06 0 0)
(2.00374e-06 0 0)
(2.0095e-06 0 0)
(2.01526e-06 0 0)
(2.02103e-06 0 0)
(2.0268e-06 0 0)
(2.03258e-06 0 0)
(2.03836e-06 0 0)
(2.04415e-06 0 0)
(2.04993e-06 0 0)
(2.05573e-06 0 0)
(2.06152e-06 0 0)
(2.06732e-06 0 0)
(2.07313e-06 0 0)
(2.07893e-06 0 0)
(2.08475e-06 0 0)
(2.09056e-06 0 0)
(2.09638e-06 0 0)
(2.1022e-06 0 0)
(2.10803e-06 0 0)
(2.11386e-06 0 0)
(2.11969e-06 0 0)
(2.12553e-06 0 0)
(2.13137e-06 0 0)
(2.13721e-06 0 0)
(2.14306e-06 0 0)
(2.14891e-06 0 0)
(2.15476e-06 0 0)
(2.16062e-06 0 0)
(2.16648e-06 0 0)
(2.17234e-06 0 0)
(2.17821e-06 0 0)
(2.18408e-06 0 0)
(2.18996e-06 0 0)
(2.19583e-06 0 0)
(2.20172e-06 0 0)
(2.2076e-06 0 0)
(2.21349e-06 0 0)
(2.21938e-06 0 0)
(2.22528e-06 0 0)
(2.23118e-06 0 0)
(2.23708e-06 0 0)
(2.24299e-06 0 0)
(2.2489e-06 0 0)
(2.25482e-06 0 0)
(2.26074e-06 0 0)
(2.26666e-06 0 0)
(2.27259e-06 0 0)
(2.27852e-06 0 0)
(2.28446e-06 0 0)
(2.2904e-06 0 0)
(2.29634e-06 0 0)
(2.30229e-06 0 0)
(2.30824e-06 0 0)
(2.3142e-06 0 0)
(2.32016e-06 0 0)
(2.32612e-06 0 0)
(2.33209e-06 0 0)
(2.33807e-06 0 0)
(2.34404e-06 0 0)
(2.35003e-06 0 0)
(2.35601e-06 0 0)
(2.36201e-06 0 0)
(2.368e-06 0 0)
(2.374e-06 0 0)
(2.38e-06 0 0)
(2.38601e-06 0 0)
(2.39201e-06 0 0)
(2.39802e-06 0 0)
(2.40403e-06 0 0)
(2.41004e-06 0 0)
(2.41605e-06 0 0)
(2.42206e-06 0 0)
(2.42807e-06 0 0)
(2.43408e-06 0 0)
(2.44008e-06 0 0)
(2.44608e-06 0 0)
(2.45208e-06 0 0)
(2.45807e-06 0 0)
(2.46406e-06 0 0)
(2.47005e-06 0 0)
(2.47603e-06 0 0)
(2.48201e-06 0 0)
(2.48799e-06 0 0)
(2.49396e-06 0 0)
(2.49993e-06 0 0)
(2.5059e-06 0 0)
(2.51186e-06 0 0)
(2.51783e-06 0 0)
(2.5238e-06 0 0)
(2.52977e-06 0 0)
(2.53575e-06 0 0)
(2.54174e-06 0 0)
(2.54773e-06 0 0)
(2.55373e-06 0 0)
(2.55974e-06 0 0)
(2.56577e-06 0 0)
(2.57181e-06 0 0)
(2.57787e-06 0 0)
(2.58394e-06 0 0)
(2.59004e-06 0 0)
(2.59616e-06 0 0)
(2.6023e-06 0 0)
(2.60846e-06 0 0)
(2.61465e-06 0 0)
(2.62086e-06 0 0)
(2.6271e-06 0 0)
(2.63337e-06 0 0)
(2.63965e-06 0 0)
(2.64596e-06 0 0)
(2.6523e-06 0 0)
(2.65865e-06 0 0)
(2.66503e-06 0 0)
(2.67143e-06 0 0)
(2.67784e-06 0 0)
(2.68427e-06 0 0)
(2.69071e-06 0 0)
(2.69716e-06 0 0)
(2.70362e-06 0 0)
(2.71009e-06 0 0)
(2.71657e-06 0 0)
(2.72305e-06 0 0)
(2.72954e-06 0 0)
(2.73602e-06 0 0)
(2.74251e-06 0 0)
(2.749e-06 0 0)
(2.75549e-06 0 0)
(2.76198e-06 0 0)
(2.76847e-06 0 0)
(2.77495e-06 0 0)
(2.78144e-06 0 0)
(2.78792e-06 0 0)
(2.7944e-06 0 0)
(2.80088e-06 0 0)
(2.80737e-06 0 0)
(2.81385e-06 0 0)
(2.82033e-06 0 0)
(2.82682e-06 0 0)
(2.8333e-06 0 0)
(2.83979e-06 0 0)
(2.84629e-06 0 0)
(2.85278e-06 0 0)
(2.85928e-06 0 0)
(2.86579e-06 0 0)
(2.8723e-06 0 0)
(2.87882e-06 0 0)
(2.88534e-06 0 0)
(2.89187e-06 0 0)
(2.89841e-06 0 0)
(2.90495e-06 0 0)
(2.9115e-06 0 0)
(2.91806e-06 0 0)
(2.92462e-06 0 0)
(2.93119e-06 0 0)
(2.93777e-06 0 0)
(2.94436e-06 0 0)
(2.95095e-06 0 0)
(2.95755e-06 0 0)
(2.96416e-06 0 0)
(2.97078e-06 0 0)
(2.9774e-06 0 0)
(2.98403e-06 0 0)
(2.99067e-06 0 0)
(2.99732e-06 0 0)
(3.00397e-06 0 0)
(3.01063e-06 0 0)
(3.0173e-06 0 0)
(3.02397e-06 0 0)
(3.03065e-06 0 0)
(3.03734e-06 0 0)
(3.04403e-06 0 0)
(3.05073e-06 0 0)
(3.05744e-06 0 0)
(3.06415e-06 0 0)
(3.07087e-06 0 0)
(3.0776e-06 0 0)
(3.08433e-06 0 0)
(3.09107e-06 0 0)
(3.09782e-06 0 0)
(3.10457e-06 0 0)
(3.11133e-06 0 0)
(3.11809e-06 0 0)
(3.12487e-06 0 0)
(3.13164e-06 0 0)
(3.13843e-06 0 0)
(3.14522e-06 0 0)
(3.15202e-06 0 0)
(3.15882e-06 0 0)
(3.16563e-06 0 0)
(3.17245e-06 0 0)
(3.17927e-06 0 0)
(3.1861e-06 0 0)
(3.19294e-06 0 0)
(3.19978e-06 0 0)
(3.20663e-06 0 0)
(3.21348e-06 0 0)
(3.22035e-06 0 0)
(3.22722e-06 0 0)
(3.23409e-06 0 0)
(3.24097e-06 0 0)
(3.24786e-06 0 0)
(3.25476e-06 0 0)
(3.26166e-06 0 0)
(3.26857e-06 0 0)
(3.27549e-06 0 0)
(3.28241e-06 0 0)
(3.28934e-06 0 0)
(3.29628e-06 0 0)
(3.30322e-06 0 0)
(3.31018e-06 0 0)
(3.31714e-06 0 0)
(3.3241e-06 0 0)
(3.33108e-06 0 0)
(3.33806e-06 0 0)
(3.34505e-06 0 0)
(3.35205e-06 0 0)
(3.35905e-06 0 0)
(3.36606e-06 0 0)
(3.37308e-06 0 0)
(3.38011e-06 0 0)
(3.38715e-06 0 0)
(3.39419e-06 0 0)
(3.40125e-06 0 0)
(3.40831e-06 0 0)
(3.41537e-06 0 0)
(3.42245e-06 0 0)
(3.42953e-06 0 0)
(3.43662e-06 0 0)
(3.44371e-06 0 0)
(3.45081e-06 0 0)
(3.45792e-06 0 0)
(3.46504e-06 0 0)
(3.47216e-06 0 0)
(3.47928e-06 0 0)
(3.48641e-06 0 0)
(3.49354e-06 0 0)
(3.50068e-06 0 0)
(3.50782e-06 0 0)
(3.51496e-06 0 0)
(3.5221e-06 0 0)
(3.52925e-06 0 0)
(3.53639e-06 0 0)
(3.54354e-06 0 0)
(3.55069e-06 0 0)
(3.55784e-06 0 0)
(3.565e-06 0 0)
(3.57215e-06 0 0)
(3.5793e-06 0 0)
(3.58645e-06 0 0)
(3.59361e-06 0 0)
(3.60077e-06 0 0)
(3.60793e-06 0 0)
(3.61509e-06 0 0)
(3.62226e-06 0 0)
(3.62943e-06 0 0)
(3.63661e-06 0 0)
(3.6438e-06 0 0)
(3.651e-06 0 0)
(3.6582e-06 0 0)
(3.66542e-06 0 0)
(3.67265e-06 0 0)
(3.67989e-06 0 0)
(3.68715e-06 0 0)
(3.69443e-06 0 0)
(3.70172e-06 0 0)
(3.70904e-06 0 0)
(3.71638e-06 0 0)
(3.72374e-06 0 0)
(3.73113e-06 0 0)
(3.73854e-06 0 0)
(3.74598e-06 0 0)
(3.75345e-06 0 0)
(3.76095e-06 0 0)
(3.76848e-06 0 0)
(3.77604e-06 0 0)
(3.78363e-06 0 0)
(3.79126e-06 0 0)
(3.79891e-06 0 0)
(3.80659e-06 0 0)
(3.8143e-06 0 0)
(3.82205e-06 0 0)
(3.82982e-06 0 0)
(3.83761e-06 0 0)
(3.84544e-06 0 0)
(3.85328e-06 0 0)
(3.86116e-06 0 0)
(3.86905e-06 0 0)
(3.87696e-06 0 0)
(3.88489e-06 0 0)
(3.89284e-06 0 0)
(3.90081e-06 0 0)
(3.90879e-06 0 0)
(3.91678e-06 0 0)
(3.92478e-06 0 0)
(3.9328e-06 0 0)
(3.94082e-06 0 0)
(3.94885e-06 0 0)
(3.95689e-06 0 0)
(3.96494e-06 0 0)
(3.973e-06 0 0)
(3.98106e-06 0 0)
(3.98913e-06 0 0)
(3.9972e-06 0 0)
(4.00529e-06 0 0)
(4.01338e-06 0 0)
(4.02147e-06 0 0)
(4.02958e-06 0 0)
(4.03769e-06 0 0)
(4.04581e-06 0 0)
(4.05394e-06 0 0)
(4.06208e-06 0 0)
(4.07022e-06 0 0)
(4.07838e-06 0 0)
(4.08655e-06 0 0)
(4.09473e-06 0 0)
(4.10293e-06 0 0)
(4.11113e-06 0 0)
(4.11935e-06 0 0)
(4.12758e-06 0 0)
(4.13583e-06 0 0)
(4.14409e-06 0 0)
(4.15236e-06 0 0)
(4.16065e-06 0 0)
(4.16896e-06 0 0)
(4.17728e-06 0 0)
(4.18561e-06 0 0)
(4.19396e-06 0 0)
(4.20233e-06 0 0)
(4.21072e-06 0 0)
(4.21912e-06 0 0)
(4.22754e-06 0 0)
(4.23597e-06 0 0)
(4.24442e-06 0 0)
(4.25289e-06 0 0)
(4.26137e-06 0 0)
(4.26988e-06 0 0)
(4.2784e-06 0 0)
(4.28693e-06 0 0)
(4.29549e-06 0 0)
(4.30406e-06 0 0)
(4.31264e-06 0 0)
(4.32125e-06 0 0)
(4.32987e-06 0 0)
(4.33851e-06 0 0)
(4.34716e-06 0 0)
(4.35584e-06 0 0)
(4.36453e-06 0 0)
(4.37324e-06 0 0)
(4.38197e-06 0 0)
(4.39071e-06 0 0)
(4.39947e-06 0 0)
(4.40825e-06 0 0)
(4.41704e-06 0 0)
(4.42586e-06 0 0)
(4.43469e-06 0 0)
(4.44354e-06 0 0)
(4.45241e-06 0 0)
(4.4613e-06 0 0)
(4.4702e-06 0 0)
(4.47912e-06 0 0)
(4.48806e-06 0 0)
(4.49702e-06 0 0)
(4.506e-06 0 0)
(4.515e-06 0 0)
(4.52401e-06 0 0)
(4.53305e-06 0 0)
(4.5421e-06 0 0)
(4.55118e-06 0 0)
(4.56027e-06 0 0)
(4.56938e-06 0 0)
(4.57851e-06 0 0)
(4.58766e-06 0 0)
(4.59684e-06 0 0)
(4.60603e-06 0 0)
(4.61524e-06 0 0)
(4.62447e-06 0 0)
(4.63373e-06 0 0)
(4.643e-06 0 0)
(4.6523e-06 0 0)
(4.66162e-06 0 0)
(4.67096e-06 0 0)
(4.68032e-06 0 0)
(4.6897e-06 0 0)
(4.69911e-06 0 0)
(4.70853e-06 0 0)
(4.71798e-06 0 0)
(4.72746e-06 0 0)
(4.73695e-06 0 0)
(4.74647e-06 0 0)
(4.75602e-06 0 0)
(4.76558e-06 0 0)
(4.77517e-06 0 0)
(4.78479e-06 0 0)
(4.79443e-06 0 0)
(4.80409e-06 0 0)
(4.81378e-06 0 0)
(4.8235e-06 0 0)
(4.83323e-06 0 0)
(4.843e-06 0 0)
(4.85279e-06 0 0)
(4.8626e-06 0 0)
(4.87244e-06 0 0)
(4.88231e-06 0 0)
(4.8922e-06 0 0)
(4.90211e-06 0 0)
(4.91205e-06 0 0)
(4.92202e-06 0 0)
(4.93201e-06 0 0)
(4.94202e-06 0 0)
(4.95206e-06 0 0)
(4.96212e-06 0 0)
(4.97221e-06 0 0)
(4.98232e-06 0 0)
(4.99246e-06 0 0)
(5.00262e-06 0 0)
(5.0128e-06 0 0)
(5.02301e-06 0 0)
(5.03324e-06 0 0)
(5.04349e-06 0 0)
(5.05376e-06 0 0)
(5.06406e-06 0 0)
(5.07438e-06 0 0)
(5.08472e-06 0 0)
(5.09509e-06 0 0)
(5.10548e-06 0 0)
(5.11589e-06 0 0)
(5.12632e-06 0 0)
(5.13678e-06 0 0)
(5.14726e-06 0 0)
(5.15777e-06 0 0)
(5.1683e-06 0 0)
(5.17886e-06 0 0)
(5.18944e-06 0 0)
(5.20005e-06 0 0)
(5.21069e-06 0 0)
(5.22136e-06 0 0)
(5.23205e-06 0 0)
(5.24278e-06 0 0)
(5.25354e-06 0 0)
(5.26432e-06 0 0)
(5.27514e-06 0 0)
(5.28599e-06 0 0)
(5.29688e-06 0 0)
(5.30779e-06 0 0)
(5.31874e-06 0 0)
(5.32973e-06 0 0)
(5.34074e-06 0 0)
(5.35179e-06 0 0)
(5.36287e-06 0 0)
(5.37398e-06 0 0)
(5.38512e-06 0 0)
(5.39628e-06 0 0)
(5.40747e-06 0 0)
(5.41867e-06 0 0)
(5.42989e-06 0 0)
(5.44111e-06 0 0)
(5.45234e-06 0 0)
(5.46357e-06 0 0)
(5.47478e-06 0 0)
(5.48597e-06 0 0)
(5.49713e-06 0 0)
(5.50823e-06 0 0)
(5.51928e-06 0 0)
(5.53025e-06 0 0)
(5.54112e-06 0 0)
(5.55188e-06 0 0)
(5.56251e-06 0 0)
(5.57298e-06 0 0)
(5.58326e-06 0 0)
(5.59335e-06 0 0)
(5.6032e-06 0 0)
(5.6128e-06 0 0)
(5.62212e-06 0 0)
(5.63112e-06 0 0)
(5.63978e-06 0 0)
(5.64809e-06 0 0)
(5.65602e-06 0 0)
(5.66354e-06 0 0)
(5.67065e-06 0 0)
(5.67733e-06 0 0)
(5.68356e-06 0 0)
(5.68935e-06 0 0)
(5.6947e-06 0 0)
(5.69961e-06 0 0)
(5.70409e-06 0 0)
(5.70814e-06 0 0)
(5.71178e-06 0 0)
(5.71505e-06 0 0)
(5.71794e-06 0 0)
(5.72051e-06 0 0)
(5.72276e-06 0 0)
(5.72472e-06 0 0)
(5.72642e-06 0 0)
(5.72788e-06 0 0)
(5.72913e-06 0 0)
(5.73021e-06 0 0)
(5.73112e-06 0 0)
(5.7319e-06 0 0)
(5.73256e-06 0 0)
(5.73311e-06 0 0)
(5.73359e-06 0 0)
(5.73402e-06 0 0)
(5.73444e-06 0 0)
(5.73487e-06 0 0)
(5.73539e-06 0 0)
(5.7361e-06 0 0)
(5.73719e-06 0 0)
(5.739e-06 0 0)
(5.74213e-06 0 0)
(5.74765e-06 0 0)
(5.75745e-06 0 0)
(5.77489e-06 0 0)
(5.80582e-06 0 0)
(5.86025e-06 0 0)
(5.95451e-06 0 0)
(6.11311e-06 0 0)
(6.36753e-06 0 0)
(6.74618e-06 0 0)
(7.25166e-06 0 0)
(7.83685e-06 0 0)
(8.41064e-06 0 0)
(8.88487e-06 0 0)
(9.22082e-06 0 0)
(9.43162e-06 0 0)
(9.55327e-06 0 0)
(9.61993e-06 0 0)
(9.65542e-06 0 0)
(9.67404e-06 0 0)
(9.68374e-06 0 0)
(9.6888e-06 0 0)
(9.69146e-06 0 0)
(9.69288e-06 0 0)
(9.69367e-06 0 0)
(9.69412e-06 0 0)
(9.69441e-06 0 0)
(9.6946e-06 0 0)
(9.69475e-06 0 0)
(9.69488e-06 0 0)
(9.69499e-06 0 0)
(9.6951e-06 0 0)
(9.6952e-06 0 0)
(9.69529e-06 0 0)
(9.69538e-06 0 0)
(9.69547e-06 0 0)
(9.69556e-06 0 0)
(9.69565e-06 0 0)
(9.69573e-06 0 0)
(9.69581e-06 0 0)
(9.69588e-06 0 0)
(9.69596e-06 0 0)
(9.69603e-06 0 0)
(9.69609e-06 0 0)
(9.69616e-06 0 0)
(9.69622e-06 0 0)
(9.69628e-06 0 0)
(9.69633e-06 0 0)
(9.69638e-06 0 0)
(9.69643e-06 0 0)
(9.69648e-06 0 0)
(9.69652e-06 0 0)
(9.69655e-06 0 0)
(9.69659e-06 0 0)
(9.69662e-06 0 0)
(9.69665e-06 0 0)
)
;

boundaryField
{
    inlet
    {
        type            fixedValue;
        value           uniform (0 0 0);
    }
    outlet
    {
        type            zeroGradient;
    }
    emptyWalls
    {
        type            empty;
    }
}


// ************************************************************************* //
