/*--------------------------------*- C++ -*----------------------------------*\
  =========                 |
  \\      /  F ield         | OpenFOAM: The Open Source CFD Toolbox
   \\    /   O peration     | Website:  https://openfoam.org
    \\  /    A nd           | Version:  9
     \\/     M anipulation  |
\*---------------------------------------------------------------------------*/
FoamFile
{
    format      ascii;
    class       volScalarField;
    location    "18450";
    object      Fa;
}
// * * * * * * * * * * * * * * * * * * * * * * * * * * * * * * * * * * * * * //

dimensions      [0 0 0 0 0 0 0];

internalField   nonuniform List<scalar> 
1000
(
0.194891
0.194701
0.194844
0.194719
0.194758
0.194706
0.194675
0.194635
0.194595
0.194537
0.194491
0.194422
0.194356
0.194285
0.194198
0.194162
0.194029
0.194081
0.19388
0.194002
0.193793
0.19389
0.19372
0.193611
0.192843
0.187429
0.161182
0.152738
0.150851
0.150062
0.149629
0.149314
0.149059
0.148927
0.149012
0.149319
0.149737
0.1501
0.150283
0.150258
0.150095
0.149901
0.149698
0.149295
0.148705
0.148125
0.147599
0.147154
0.1468
0.146534
0.146347
0.146232
0.146165
0.14614
0.146113
0.146105
0.146097
0.146079
0.14605
0.146007
0.145957
0.145897
0.145833
0.145765
0.145696
0.145626
0.145558
0.14549
0.145426
0.145365
0.145311
0.145263
0.145223
0.145185
0.145147
0.14511
0.145073
0.145037
0.145002
0.144967
0.144932
0.144899
0.144866
0.144835
0.144804
0.144774
0.144745
0.144716
0.144689
0.144662
0.144637
0.144612
0.144589
0.144566
0.144545
0.144524
0.144505
0.144486
0.144469
0.144452
0.144437
0.144422
0.144408
0.144396
0.144385
0.144376
0.144368
0.144361
0.144356
0.144351
0.144347
0.144343
0.144339
0.144335
0.14433
0.144324
0.144319
0.144314
0.14431
0.144307
0.144305
0.144304
0.144305
0.144307
0.144309
0.14431
0.14431
0.144309
0.144304
0.144299
0.144292
0.144288
0.14429
0.1443
0.144322
0.14436
0.144415
0.144488
0.144579
0.144687
0.14481
0.144946
0.145093
0.145247
0.145404
0.145562
0.145716
0.145861
0.145993
0.146106
0.146198
0.146262
0.146296
0.146297
0.146265
0.146199
0.146102
0.145977
0.145828
0.145661
0.145482
0.145296
0.14511
0.144928
0.144757
0.144598
0.144455
0.144328
0.14422
0.144129
0.144054
0.143994
0.143948
0.143913
0.143887
0.143868
0.143854
0.143843
0.143833
0.143824
0.143814
0.143802
0.143789
0.143773
0.143754
0.143732
0.143708
0.143682
0.143653
0.143622
0.14359
0.143557
0.143522
0.143486
0.14345
0.143414
0.143377
0.143341
0.143304
0.143268
0.143232
0.143196
0.143161
0.143126
0.143092
0.143059
0.143026
0.142994
0.142962
0.142931
0.1429
0.142871
0.142842
0.142813
0.142786
0.142759
0.142733
0.142707
0.142682
0.142658
0.142635
0.142612
0.14259
0.142569
0.142549
0.142529
0.14251
0.142491
0.142473
0.142456
0.14244
0.142425
0.142411
0.142397
0.142384
0.142372
0.14236
0.14235
0.14234
0.14233
0.142321
0.142312
0.142304
0.142296
0.142288
0.142281
0.142274
0.142267
0.142261
0.142255
0.142249
0.142244
0.14224
0.142235
0.142231
0.142226
0.142222
0.142217
0.142213
0.142208
0.142204
0.1422
0.142197
0.142195
0.142196
0.142199
0.142207
0.142218
0.142236
0.142259
0.142289
0.142326
0.142371
0.142424
0.142485
0.142553
0.142629
0.142711
0.142799
0.142891
0.142987
0.143084
0.143182
0.143279
0.143372
0.143459
0.143539
0.14361
0.14367
0.143717
0.143749
0.143767
0.143768
0.143753
0.143722
0.143674
0.143611
0.143534
0.143444
0.143344
0.143235
0.14312
0.143001
0.142879
0.142758
0.142639
0.142523
0.142413
0.142308
0.142211
0.142121
0.142039
0.141965
0.141899
0.14184
0.141787
0.141741
0.141701
0.141665
0.141633
0.141605
0.141579
0.141556
0.141534
0.141512
0.141492
0.141471
0.14145
0.141428
0.141406
0.141383
0.141359
0.141334
0.141308
0.141281
0.141253
0.141224
0.141195
0.141165
0.141134
0.141103
0.141072
0.14104
0.141008
0.140976
0.140943
0.140911
0.140879
0.140847
0.140815
0.140784
0.140753
0.140722
0.140691
0.140661
0.140632
0.140602
0.140573
0.140545
0.140517
0.140489
0.140462
0.140436
0.14041
0.140384
0.140359
0.140334
0.14031
0.140287
0.140264
0.140241
0.140219
0.140197
0.140176
0.140156
0.140136
0.140116
0.140097
0.140079
0.140061
0.140044
0.140027
0.140011
0.139995
0.13998
0.139966
0.139951
0.139938
0.139925
0.139912
0.1399
0.139888
0.139876
0.139865
0.139854
0.139844
0.139834
0.139824
0.139814
0.139805
0.139796
0.139788
0.13978
0.139771
0.139764
0.139756
0.139748
0.139741
0.139734
0.139728
0.139722
0.139716
0.139711
0.139707
0.139705
0.139704
0.139704
0.139706
0.139711
0.139718
0.139729
0.139742
0.139759
0.13978
0.139804
0.139833
0.139866
0.139904
0.139945
0.139991
0.140041
0.140094
0.14015
0.14021
0.140271
0.140334
0.140399
0.140463
0.140527
0.140589
0.140649
0.140706
0.140758
0.140806
0.140847
0.140882
0.14091
0.140929
0.14094
0.140942
0.140934
0.140917
0.140891
0.140856
0.140811
0.140759
0.140698
0.140631
0.140558
0.14048
0.140397
0.140311
0.140224
0.140135
0.140045
0.139957
0.13987
0.139785
0.139703
0.139624
0.139549
0.139478
0.139411
0.139348
0.139289
0.139234
0.139184
0.139137
0.139093
0.139053
0.139015
0.13898
0.138948
0.138917
0.138888
0.13886
0.138833
0.138807
0.138781
0.138756
0.138731
0.138706
0.138681
0.138656
0.13863
0.138604
0.138578
0.138551
0.138523
0.138496
0.138467
0.138439
0.138409
0.13838
0.13835
0.13832
0.138289
0.138259
0.138228
0.138197
0.138166
0.138135
0.138105
0.138074
0.138043
0.138012
0.137982
0.137952
0.137921
0.137892
0.137862
0.137833
0.137804
0.137775
0.137747
0.137719
0.137691
0.137664
0.137637
0.13761
0.137584
0.137559
0.137533
0.137508
0.137484
0.13746
0.137436
0.137413
0.13739
0.137368
0.137346
0.137324
0.137303
0.137283
0.137263
0.137243
0.137224
0.137205
0.137187
0.137169
0.137152
0.137135
0.137118
0.137102
0.137087
0.137071
0.137057
0.137042
0.137028
0.137014
0.137001
0.136988
0.136975
0.136963
0.136951
0.136939
0.136927
0.136916
0.136905
0.136895
0.136884
0.136874
0.136864
0.136855
0.136846
0.136837
0.136829
0.136821
0.136813
0.136807
0.136801
0.136795
0.136791
0.136788
0.136786
0.136785
0.136786
0.136788
0.136792
0.136798
0.136806
0.136816
0.136828
0.136843
0.13686
0.13688
0.136902
0.136926
0.136953
0.136983
0.137015
0.137049
0.137085
0.137124
0.137163
0.137204
0.137246
0.137289
0.137331
0.137375
0.137417
0.137459
0.137499
0.137538
0.137574
0.137607
0.137637
0.137663
0.137686
0.137704
0.137717
0.137725
0.137727
0.137724
0.137715
0.137701
0.13768
0.137654
0.137622
0.137584
0.137541
0.137494
0.137441
0.137384
0.137324
0.13726
0.137194
0.137125
0.137054
0.136983
0.13691
0.136837
0.136765
0.136693
0.136622
0.136552
0.136485
0.136418
0.136354
0.136292
0.136233
0.136176
0.136121
0.136068
0.136018
0.13597
0.135925
0.135881
0.135839
0.135799
0.135761
0.135724
0.135688
0.135653
0.13562
0.135587
0.135555
0.135524
0.135493
0.135462
0.135431
0.135401
0.135371
0.135341
0.13531
0.13528
0.135249
0.135218
0.135188
0.135156
0.135125
0.135093
0.135062
0.13503
0.134998
0.134965
0.134933
0.134901
0.134868
0.134836
0.134803
0.134772
0.134739
0.134707
0.134675
0.134644
0.134613
0.134581
0.134552
0.134521
0.134493
0.134464
0.134435
0.134409
0.134381
0.134357
0.134332
0.134309
0.134287
0.134264
0.134246
0.134225
0.134209
0.134192
0.134176
0.134164
0.134149
0.134139
0.134128
0.134118
0.134111
0.134102
0.134097
0.13409
0.134085
0.134081
0.134076
0.134075
0.134071
0.134068
0.134065
0.134059
0.134053
0.13404
0.134017
0.133978
0.133906
0.133785
0.13358
0.133262
0.132812
0.132273
0.131766
0.131399
0.131192
0.13109
0.131044
0.131026
0.131018
0.131019
0.13102
0.131025
0.13103
0.131035
0.131041
0.131048
0.131055
0.131061
0.131069
0.131077
0.131085
0.131093
0.131102
0.131111
0.131121
0.131131
0.131142
0.131153
0.131165
0.131177
0.131191
0.131205
0.13122
0.131236
0.131253
0.131271
0.13129
0.131311
0.131332
0.131355
0.131379
0.131405
0.131432
0.13146
0.13149
0.131521
0.131554
0.131588
0.131624
0.131661
0.131699
0.131739
0.13178
0.131822
0.131865
0.131908
0.131953
0.131998
0.132044
0.132089
0.132135
0.132181
0.132226
0.13227
0.132314
0.132357
0.132399
0.132439
0.132478
0.132514
0.132548
0.13258
0.13261
0.132636
0.13266
0.13268
0.132697
0.132711
0.13272
0.132726
0.132729
0.132729
0.132729
0.132726
0.132715
0.1327
0.132682
0.132661
0.132637
0.13261
0.132581
0.132549
0.132515
0.13248
0.132443
0.132405
0.132366
0.132326
0.132285
0.132244
0.132203
0.132163
0.132122
0.132083
0.132044
0.132006
0.131969
0.131933
0.131898
0.131865
0.131833
0.131803
0.131774
0.131747
0.131721
0.131696
0.131673
0.131652
0.131631
0.131612
0.131594
0.131577
0.131561
0.131545
0.131531
0.131518
0.131505
0.131492
0.131481
0.131469
0.131459
0.131448
0.131438
0.131428
0.131418
0.131408
0.131399
0.131389
0.131379
0.13137
0.13136
0.131351
0.131341
0.131331
0.131322
0.131312
0.131302
0.131292
0.131282
0.131272
0.131262
0.131252
0.131242
0.131232
0.131222
0.131212
0.131202
0.131192
0.131183
0.131173
0.131163
0.131154
0.131145
0.131135
0.131126
0.131118
0.131109
0.131101
0.131092
0.131084
0.131076
0.131069
0.131062
0.131055
0.131048
0.131041
0.131035
0.131029
0.131023
0.131018
0.131013
0.131008
0.131003
0.130999
0.130995
0.130991
0.130988
0.130985
0.130982
0.13098
0.130978
0.130976
0.130974
0.130973
0.130972
0.130972
0.130971
0.130971
0.130971
0.130971
0.130972
0.130973
0.130975
0.130976
0.130978
0.13098
0.130983
0.130985
0.130988
0.130991
0.130995
0.130998
0.131003
0.131007
0.131011
0.131016
0.131021
0.131026
0.131031
0.131037
0.131043
0.131049
0.131056
0.131063
0.13107
0.131079
0.131086
0.131096
0.131103
0.131115
0.131122
0.131137
0.131142
0.131162
0.131167
0.131188
0.131194
0.131218
0.131224
0.131251
0.131258
0.131288
0.131296
0.131329
0.131338
0.131375
0.131385
0.131425
0.131436
0.13148
0.131492
0.13154
0.131553
0.131605
0.131618
0.131673
0.131688
0.131746
0.131761
0.131838
)
;

boundaryField
{
    inlet
    {
        type            calculated;
        value           uniform 0.194831;
    }
    outlet
    {
        type            calculated;
        value           uniform 0.13183;
    }
    emptyWalls
    {
        type            empty;
    }
}


// ************************************************************************* //
