/*--------------------------------*- C++ -*----------------------------------*\
  =========                 |
  \\      /  F ield         | OpenFOAM: The Open Source CFD Toolbox
   \\    /   O peration     | Website:  https://openfoam.org
    \\  /    A nd           | Version:  9
     \\/     M anipulation  |
\*---------------------------------------------------------------------------*/
FoamFile
{
    format      ascii;
    class       volVectorField;
    location    "11450";
    object      Ub;
}
// * * * * * * * * * * * * * * * * * * * * * * * * * * * * * * * * * * * * * //

dimensions      [0 0 0 0 0 0 0];

internalField   nonuniform List<vector> 
1000
(
(1.13619e-05 0 0)
(1.13623e-05 0 0)
(1.13625e-05 0 0)
(1.13629e-05 0 0)
(1.13633e-05 0 0)
(1.13638e-05 0 0)
(1.13643e-05 0 0)
(1.13648e-05 0 0)
(1.13656e-05 0 0)
(1.13662e-05 0 0)
(1.13671e-05 0 0)
(1.1368e-05 0 0)
(1.1369e-05 0 0)
(1.13722e-05 0 0)
(1.13833e-05 0 0)
(1.14521e-05 0 0)
(1.16178e-05 0 0)
(1.17371e-05 0 0)
(1.17519e-05 0 0)
(1.17508e-05 0 0)
(1.17464e-05 0 0)
(1.17451e-05 0 0)
(1.17486e-05 0 0)
(1.17541e-05 0 0)
(1.17605e-05 0 0)
(1.17694e-05 0 0)
(1.17795e-05 0 0)
(1.17882e-05 0 0)
(1.1795e-05 0 0)
(1.17998e-05 0 0)
(1.18026e-05 0 0)
(1.18038e-05 0 0)
(1.18038e-05 0 0)
(1.1803e-05 0 0)
(1.18018e-05 0 0)
(1.18002e-05 0 0)
(1.17986e-05 0 0)
(1.1797e-05 0 0)
(1.17955e-05 0 0)
(1.17938e-05 0 0)
(1.1792e-05 0 0)
(1.17897e-05 0 0)
(1.17866e-05 0 0)
(1.17825e-05 0 0)
(1.17773e-05 0 0)
(1.17713e-05 0 0)
(1.17648e-05 0 0)
(1.17579e-05 0 0)
(1.17508e-05 0 0)
(1.17434e-05 0 0)
(1.17359e-05 0 0)
(1.17282e-05 0 0)
(1.17204e-05 0 0)
(1.17126e-05 0 0)
(1.17046e-05 0 0)
(1.16965e-05 0 0)
(1.16884e-05 0 0)
(1.16802e-05 0 0)
(1.1672e-05 0 0)
(1.16637e-05 0 0)
(1.16553e-05 0 0)
(1.16469e-05 0 0)
(1.16385e-05 0 0)
(1.163e-05 0 0)
(1.16214e-05 0 0)
(1.16128e-05 0 0)
(1.16042e-05 0 0)
(1.15955e-05 0 0)
(1.15868e-05 0 0)
(1.1578e-05 0 0)
(1.15692e-05 0 0)
(1.15604e-05 0 0)
(1.15515e-05 0 0)
(1.15426e-05 0 0)
(1.15336e-05 0 0)
(1.15246e-05 0 0)
(1.15156e-05 0 0)
(1.15065e-05 0 0)
(1.14974e-05 0 0)
(1.14882e-05 0 0)
(1.1479e-05 0 0)
(1.14698e-05 0 0)
(1.14605e-05 0 0)
(1.14512e-05 0 0)
(1.14418e-05 0 0)
(1.14324e-05 0 0)
(1.1423e-05 0 0)
(1.14135e-05 0 0)
(1.1404e-05 0 0)
(1.13945e-05 0 0)
(1.13849e-05 0 0)
(1.13753e-05 0 0)
(1.13657e-05 0 0)
(1.1356e-05 0 0)
(1.13463e-05 0 0)
(1.13366e-05 0 0)
(1.13268e-05 0 0)
(1.1317e-05 0 0)
(1.13072e-05 0 0)
(1.12974e-05 0 0)
(1.12875e-05 0 0)
(1.12776e-05 0 0)
(1.12677e-05 0 0)
(1.12578e-05 0 0)
(1.12479e-05 0 0)
(1.1238e-05 0 0)
(1.12281e-05 0 0)
(1.12181e-05 0 0)
(1.12081e-05 0 0)
(1.11981e-05 0 0)
(1.1188e-05 0 0)
(1.11779e-05 0 0)
(1.11677e-05 0 0)
(1.11575e-05 0 0)
(1.11473e-05 0 0)
(1.11371e-05 0 0)
(1.11269e-05 0 0)
(1.11166e-05 0 0)
(1.11062e-05 0 0)
(1.10958e-05 0 0)
(1.10852e-05 0 0)
(1.10745e-05 0 0)
(1.10637e-05 0 0)
(1.10526e-05 0 0)
(1.10413e-05 0 0)
(1.10298e-05 0 0)
(1.10181e-05 0 0)
(1.10063e-05 0 0)
(1.09942e-05 0 0)
(1.0982e-05 0 0)
(1.09696e-05 0 0)
(1.09572e-05 0 0)
(1.09447e-05 0 0)
(1.09323e-05 0 0)
(1.092e-05 0 0)
(1.09077e-05 0 0)
(1.08957e-05 0 0)
(1.0884e-05 0 0)
(1.08725e-05 0 0)
(1.08614e-05 0 0)
(1.08507e-05 0 0)
(1.08405e-05 0 0)
(1.08306e-05 0 0)
(1.08212e-05 0 0)
(1.08122e-05 0 0)
(1.08035e-05 0 0)
(1.07951e-05 0 0)
(1.07868e-05 0 0)
(1.07788e-05 0 0)
(1.07707e-05 0 0)
(1.07627e-05 0 0)
(1.07545e-05 0 0)
(1.07462e-05 0 0)
(1.07377e-05 0 0)
(1.0729e-05 0 0)
(1.072e-05 0 0)
(1.07107e-05 0 0)
(1.07012e-05 0 0)
(1.06914e-05 0 0)
(1.06814e-05 0 0)
(1.06712e-05 0 0)
(1.06608e-05 0 0)
(1.06502e-05 0 0)
(1.06396e-05 0 0)
(1.06288e-05 0 0)
(1.0618e-05 0 0)
(1.06071e-05 0 0)
(1.05962e-05 0 0)
(1.05853e-05 0 0)
(1.05744e-05 0 0)
(1.05634e-05 0 0)
(1.05526e-05 0 0)
(1.05417e-05 0 0)
(1.05309e-05 0 0)
(1.052e-05 0 0)
(1.05092e-05 0 0)
(1.04985e-05 0 0)
(1.04877e-05 0 0)
(1.04769e-05 0 0)
(1.04662e-05 0 0)
(1.04554e-05 0 0)
(1.04447e-05 0 0)
(1.04339e-05 0 0)
(1.04232e-05 0 0)
(1.04124e-05 0 0)
(1.04016e-05 0 0)
(1.03908e-05 0 0)
(1.03799e-05 0 0)
(1.0369e-05 0 0)
(1.03582e-05 0 0)
(1.03472e-05 0 0)
(1.03363e-05 0 0)
(1.03253e-05 0 0)
(1.03143e-05 0 0)
(1.03033e-05 0 0)
(1.02923e-05 0 0)
(1.02812e-05 0 0)
(1.02701e-05 0 0)
(1.0259e-05 0 0)
(1.02478e-05 0 0)
(1.02367e-05 0 0)
(1.02255e-05 0 0)
(1.02142e-05 0 0)
(1.0203e-05 0 0)
(1.01917e-05 0 0)
(1.01804e-05 0 0)
(1.01691e-05 0 0)
(1.01578e-05 0 0)
(1.01464e-05 0 0)
(1.0135e-05 0 0)
(1.01236e-05 0 0)
(1.01122e-05 0 0)
(1.01007e-05 0 0)
(1.00892e-05 0 0)
(1.00777e-05 0 0)
(1.00662e-05 0 0)
(1.00546e-05 0 0)
(1.0043e-05 0 0)
(1.00314e-05 0 0)
(1.00198e-05 0 0)
(1.00081e-05 0 0)
(9.99645e-06 0 0)
(9.98474e-06 0 0)
(9.973e-06 0 0)
(9.96123e-06 0 0)
(9.94943e-06 0 0)
(9.93761e-06 0 0)
(9.92576e-06 0 0)
(9.91388e-06 0 0)
(9.90198e-06 0 0)
(9.89005e-06 0 0)
(9.87809e-06 0 0)
(9.8661e-06 0 0)
(9.85408e-06 0 0)
(9.84204e-06 0 0)
(9.82997e-06 0 0)
(9.81787e-06 0 0)
(9.80575e-06 0 0)
(9.7936e-06 0 0)
(9.78142e-06 0 0)
(9.76922e-06 0 0)
(9.757e-06 0 0)
(9.74474e-06 0 0)
(9.73247e-06 0 0)
(9.72017e-06 0 0)
(9.70785e-06 0 0)
(9.6955e-06 0 0)
(9.68313e-06 0 0)
(9.67074e-06 0 0)
(9.65832e-06 0 0)
(9.64588e-06 0 0)
(9.63342e-06 0 0)
(9.62093e-06 0 0)
(9.60842e-06 0 0)
(9.59588e-06 0 0)
(9.58331e-06 0 0)
(9.57072e-06 0 0)
(9.5581e-06 0 0)
(9.54544e-06 0 0)
(9.53276e-06 0 0)
(9.52005e-06 0 0)
(9.5073e-06 0 0)
(9.49452e-06 0 0)
(9.4817e-06 0 0)
(9.46883e-06 0 0)
(9.45592e-06 0 0)
(9.44295e-06 0 0)
(9.42993e-06 0 0)
(9.41684e-06 0 0)
(9.40368e-06 0 0)
(9.39045e-06 0 0)
(9.37713e-06 0 0)
(9.36373e-06 0 0)
(9.35025e-06 0 0)
(9.33666e-06 0 0)
(9.32299e-06 0 0)
(9.30922e-06 0 0)
(9.29536e-06 0 0)
(9.2814e-06 0 0)
(9.26736e-06 0 0)
(9.25324e-06 0 0)
(9.23904e-06 0 0)
(9.22478e-06 0 0)
(9.21047e-06 0 0)
(9.19612e-06 0 0)
(9.18174e-06 0 0)
(9.16735e-06 0 0)
(9.15296e-06 0 0)
(9.1386e-06 0 0)
(9.12427e-06 0 0)
(9.11e-06 0 0)
(9.09581e-06 0 0)
(9.0817e-06 0 0)
(9.06769e-06 0 0)
(9.0538e-06 0 0)
(9.04003e-06 0 0)
(9.02638e-06 0 0)
(9.01288e-06 0 0)
(8.9995e-06 0 0)
(8.98625e-06 0 0)
(8.97312e-06 0 0)
(8.9601e-06 0 0)
(8.94718e-06 0 0)
(8.93434e-06 0 0)
(8.92156e-06 0 0)
(8.90882e-06 0 0)
(8.89609e-06 0 0)
(8.88336e-06 0 0)
(8.87061e-06 0 0)
(8.85781e-06 0 0)
(8.84496e-06 0 0)
(8.83202e-06 0 0)
(8.81899e-06 0 0)
(8.80586e-06 0 0)
(8.79261e-06 0 0)
(8.77925e-06 0 0)
(8.76576e-06 0 0)
(8.75215e-06 0 0)
(8.73842e-06 0 0)
(8.72457e-06 0 0)
(8.71061e-06 0 0)
(8.69653e-06 0 0)
(8.68235e-06 0 0)
(8.66808e-06 0 0)
(8.65371e-06 0 0)
(8.63926e-06 0 0)
(8.62473e-06 0 0)
(8.61013e-06 0 0)
(8.59547e-06 0 0)
(8.58075e-06 0 0)
(8.56597e-06 0 0)
(8.55115e-06 0 0)
(8.53628e-06 0 0)
(8.52136e-06 0 0)
(8.50641e-06 0 0)
(8.49142e-06 0 0)
(8.47639e-06 0 0)
(8.46132e-06 0 0)
(8.44622e-06 0 0)
(8.43108e-06 0 0)
(8.4159e-06 0 0)
(8.40069e-06 0 0)
(8.38543e-06 0 0)
(8.37014e-06 0 0)
(8.3548e-06 0 0)
(8.33942e-06 0 0)
(8.32399e-06 0 0)
(8.30852e-06 0 0)
(8.29299e-06 0 0)
(8.27742e-06 0 0)
(8.26179e-06 0 0)
(8.24612e-06 0 0)
(8.23038e-06 0 0)
(8.21459e-06 0 0)
(8.19875e-06 0 0)
(8.18284e-06 0 0)
(8.16687e-06 0 0)
(8.15084e-06 0 0)
(8.13475e-06 0 0)
(8.1186e-06 0 0)
(8.10239e-06 0 0)
(8.0861e-06 0 0)
(8.06976e-06 0 0)
(8.05334e-06 0 0)
(8.03686e-06 0 0)
(8.0203e-06 0 0)
(8.00368e-06 0 0)
(7.98699e-06 0 0)
(7.97022e-06 0 0)
(7.95338e-06 0 0)
(7.93647e-06 0 0)
(7.91948e-06 0 0)
(7.90242e-06 0 0)
(7.88529e-06 0 0)
(7.86807e-06 0 0)
(7.85078e-06 0 0)
(7.83341e-06 0 0)
(7.81596e-06 0 0)
(7.79843e-06 0 0)
(7.78082e-06 0 0)
(7.76312e-06 0 0)
(7.74534e-06 0 0)
(7.72748e-06 0 0)
(7.70952e-06 0 0)
(7.69149e-06 0 0)
(7.67336e-06 0 0)
(7.65515e-06 0 0)
(7.63684e-06 0 0)
(7.61844e-06 0 0)
(7.59994e-06 0 0)
(7.58135e-06 0 0)
(7.56267e-06 0 0)
(7.54389e-06 0 0)
(7.525e-06 0 0)
(7.50602e-06 0 0)
(7.48694e-06 0 0)
(7.46775e-06 0 0)
(7.44846e-06 0 0)
(7.42906e-06 0 0)
(7.40955e-06 0 0)
(7.38993e-06 0 0)
(7.37021e-06 0 0)
(7.35037e-06 0 0)
(7.33042e-06 0 0)
(7.31035e-06 0 0)
(7.29017e-06 0 0)
(7.26987e-06 0 0)
(7.24945e-06 0 0)
(7.22891e-06 0 0)
(7.20825e-06 0 0)
(7.18748e-06 0 0)
(7.16658e-06 0 0)
(7.14557e-06 0 0)
(7.12443e-06 0 0)
(7.10317e-06 0 0)
(7.0818e-06 0 0)
(7.06032e-06 0 0)
(7.03873e-06 0 0)
(7.01704e-06 0 0)
(6.99525e-06 0 0)
(6.97336e-06 0 0)
(6.95139e-06 0 0)
(6.92936e-06 0 0)
(6.90728e-06 0 0)
(6.88518e-06 0 0)
(6.86307e-06 0 0)
(6.841e-06 0 0)
(6.81898e-06 0 0)
(6.79708e-06 0 0)
(6.77533e-06 0 0)
(6.75382e-06 0 0)
(6.7326e-06 0 0)
(6.71176e-06 0 0)
(6.69137e-06 0 0)
(6.67153e-06 0 0)
(6.65235e-06 0 0)
(6.63391e-06 0 0)
(6.61633e-06 0 0)
(6.5997e-06 0 0)
(6.5841e-06 0 0)
(6.5696e-06 0 0)
(6.55624e-06 0 0)
(6.54406e-06 0 0)
(6.53307e-06 0 0)
(6.52323e-06 0 0)
(6.51446e-06 0 0)
(6.50663e-06 0 0)
(6.4995e-06 0 0)
(6.49274e-06 0 0)
(6.48578e-06 0 0)
(6.47767e-06 0 0)
(6.46677e-06 0 0)
(6.45028e-06 0 0)
(6.42332e-06 0 0)
(6.3776e-06 0 0)
(6.29938e-06 0 0)
(6.16738e-06 0 0)
(5.95231e-06 0 0)
(5.62308e-06 0 0)
(5.16492e-06 0 0)
(4.6054e-06 0 0)
(4.02274e-06 0 0)
(3.51168e-06 0 0)
(3.13064e-06 0 0)
(2.88219e-06 0 0)
(2.73512e-06 0 0)
(2.65327e-06 0 0)
(2.60931e-06 0 0)
(2.58612e-06 0 0)
(2.57398e-06 0 0)
(2.56762e-06 0 0)
(2.56427e-06 0 0)
(2.56246e-06 0 0)
(2.56146e-06 0 0)
(2.56089e-06 0 0)
(2.56054e-06 0 0)
(2.56031e-06 0 0)
(2.56016e-06 0 0)
(2.56005e-06 0 0)
(2.55997e-06 0 0)
(2.55993e-06 0 0)
(2.55992e-06 0 0)
(2.55991e-06 0 0)
(2.55992e-06 0 0)
(2.55995e-06 0 0)
(2.56002e-06 0 0)
(2.5601e-06 0 0)
(2.56021e-06 0 0)
(2.56033e-06 0 0)
(2.56046e-06 0 0)
(2.56061e-06 0 0)
(2.56077e-06 0 0)
(2.56095e-06 0 0)
(2.56113e-06 0 0)
(2.56132e-06 0 0)
(2.56151e-06 0 0)
(2.56171e-06 0 0)
(2.56191e-06 0 0)
(2.56211e-06 0 0)
(2.5623e-06 0 0)
(2.5625e-06 0 0)
(2.56269e-06 0 0)
(2.56287e-06 0 0)
(2.56304e-06 0 0)
(2.56321e-06 0 0)
(2.56336e-06 0 0)
(2.56351e-06 0 0)
(2.56365e-06 0 0)
(2.56377e-06 0 0)
(2.56389e-06 0 0)
(2.56399e-06 0 0)
(2.56409e-06 0 0)
(2.56417e-06 0 0)
(2.56425e-06 0 0)
(2.56432e-06 0 0)
(2.56438e-06 0 0)
(2.56443e-06 0 0)
(2.56448e-06 0 0)
(2.56452e-06 0 0)
(2.56455e-06 0 0)
(2.56458e-06 0 0)
(2.5646e-06 0 0)
(2.56462e-06 0 0)
(2.56464e-06 0 0)
(2.56466e-06 0 0)
(2.56467e-06 0 0)
(2.56469e-06 0 0)
(2.5647e-06 0 0)
(2.56471e-06 0 0)
(2.56473e-06 0 0)
(2.56474e-06 0 0)
(2.56475e-06 0 0)
(2.56477e-06 0 0)
(2.56478e-06 0 0)
(2.5648e-06 0 0)
(2.56482e-06 0 0)
(2.56484e-06 0 0)
(2.56486e-06 0 0)
(2.56488e-06 0 0)
(2.5649e-06 0 0)
(2.56493e-06 0 0)
(2.56495e-06 0 0)
(2.56498e-06 0 0)
(2.56501e-06 0 0)
(2.56504e-06 0 0)
(2.56507e-06 0 0)
(2.5651e-06 0 0)
(2.56513e-06 0 0)
(2.56516e-06 0 0)
(2.56519e-06 0 0)
(2.56522e-06 0 0)
(2.56526e-06 0 0)
(2.56529e-06 0 0)
(2.56532e-06 0 0)
(2.56535e-06 0 0)
(2.56539e-06 0 0)
(2.56542e-06 0 0)
(2.56545e-06 0 0)
(2.56548e-06 0 0)
(2.56551e-06 0 0)
(2.56554e-06 0 0)
(2.56557e-06 0 0)
(2.5656e-06 0 0)
(2.56563e-06 0 0)
(2.56565e-06 0 0)
(2.56568e-06 0 0)
(2.5657e-06 0 0)
(2.56573e-06 0 0)
(2.56575e-06 0 0)
(2.56577e-06 0 0)
(2.5658e-06 0 0)
(2.56582e-06 0 0)
(2.56584e-06 0 0)
(2.56586e-06 0 0)
(2.56587e-06 0 0)
(2.56589e-06 0 0)
(2.56591e-06 0 0)
(2.56592e-06 0 0)
(2.56594e-06 0 0)
(2.56595e-06 0 0)
(2.56596e-06 0 0)
(2.56598e-06 0 0)
(2.56599e-06 0 0)
(2.566e-06 0 0)
(2.56601e-06 0 0)
(2.56602e-06 0 0)
(2.56603e-06 0 0)
(2.56604e-06 0 0)
(2.56605e-06 0 0)
(2.56605e-06 0 0)
(2.56606e-06 0 0)
(2.56607e-06 0 0)
(2.56607e-06 0 0)
(2.56608e-06 0 0)
(2.56608e-06 0 0)
(2.56608e-06 0 0)
(2.56608e-06 0 0)
(2.56609e-06 0 0)
(2.56609e-06 0 0)
(2.56609e-06 0 0)
(2.56609e-06 0 0)
(2.56609e-06 0 0)
(2.56609e-06 0 0)
(2.56609e-06 0 0)
(2.56608e-06 0 0)
(2.56608e-06 0 0)
(2.56608e-06 0 0)
(2.56607e-06 0 0)
(2.56606e-06 0 0)
(2.56606e-06 0 0)
(2.56605e-06 0 0)
(2.56604e-06 0 0)
(2.56603e-06 0 0)
(2.56602e-06 0 0)
(2.56601e-06 0 0)
(2.566e-06 0 0)
(2.56599e-06 0 0)
(2.56597e-06 0 0)
(2.56596e-06 0 0)
(2.56595e-06 0 0)
(2.56593e-06 0 0)
(2.56591e-06 0 0)
(2.5659e-06 0 0)
(2.56588e-06 0 0)
(2.56586e-06 0 0)
(2.56584e-06 0 0)
(2.56582e-06 0 0)
(2.5658e-06 0 0)
(2.56577e-06 0 0)
(2.56575e-06 0 0)
(2.56573e-06 0 0)
(2.5657e-06 0 0)
(2.56567e-06 0 0)
(2.56565e-06 0 0)
(2.56562e-06 0 0)
(2.56558e-06 0 0)
(2.56555e-06 0 0)
(2.56552e-06 0 0)
(2.56548e-06 0 0)
(2.56544e-06 0 0)
(2.5654e-06 0 0)
(2.56536e-06 0 0)
(2.56531e-06 0 0)
(2.56526e-06 0 0)
(2.56521e-06 0 0)
(2.56515e-06 0 0)
(2.56509e-06 0 0)
(2.56503e-06 0 0)
(2.56496e-06 0 0)
(2.56489e-06 0 0)
(2.56481e-06 0 0)
(2.56473e-06 0 0)
(2.56464e-06 0 0)
(2.56455e-06 0 0)
(2.56445e-06 0 0)
(2.56435e-06 0 0)
(2.56424e-06 0 0)
(2.56412e-06 0 0)
(2.564e-06 0 0)
(2.56387e-06 0 0)
(2.56374e-06 0 0)
(2.5636e-06 0 0)
(2.56345e-06 0 0)
(2.56331e-06 0 0)
(2.56315e-06 0 0)
(2.56299e-06 0 0)
(2.56283e-06 0 0)
(2.56266e-06 0 0)
(2.56249e-06 0 0)
(2.56232e-06 0 0)
(2.56215e-06 0 0)
(2.56197e-06 0 0)
(2.5618e-06 0 0)
(2.56163e-06 0 0)
(2.56146e-06 0 0)
(2.56129e-06 0 0)
(2.56113e-06 0 0)
(2.56097e-06 0 0)
(2.56082e-06 0 0)
(2.56067e-06 0 0)
(2.56054e-06 0 0)
(2.56041e-06 0 0)
(2.56029e-06 0 0)
(2.56019e-06 0 0)
(2.5601e-06 0 0)
(2.56002e-06 0 0)
(2.55996e-06 0 0)
(2.55991e-06 0 0)
(2.55988e-06 0 0)
(2.55986e-06 0 0)
(2.55985e-06 0 0)
(2.55986e-06 0 0)
(2.55987e-06 0 0)
(2.5599e-06 0 0)
(2.55996e-06 0 0)
(2.56004e-06 0 0)
(2.56014e-06 0 0)
(2.56024e-06 0 0)
(2.56037e-06 0 0)
(2.5605e-06 0 0)
(2.56064e-06 0 0)
(2.56079e-06 0 0)
(2.56095e-06 0 0)
(2.56111e-06 0 0)
(2.56128e-06 0 0)
(2.56145e-06 0 0)
(2.56163e-06 0 0)
(2.5618e-06 0 0)
(2.56197e-06 0 0)
(2.56214e-06 0 0)
(2.56231e-06 0 0)
(2.56247e-06 0 0)
(2.56263e-06 0 0)
(2.56278e-06 0 0)
(2.56293e-06 0 0)
(2.56307e-06 0 0)
(2.5632e-06 0 0)
(2.56332e-06 0 0)
(2.56344e-06 0 0)
(2.56355e-06 0 0)
(2.56365e-06 0 0)
(2.56375e-06 0 0)
(2.56384e-06 0 0)
(2.56392e-06 0 0)
(2.56399e-06 0 0)
(2.56406e-06 0 0)
(2.56413e-06 0 0)
(2.56419e-06 0 0)
(2.56424e-06 0 0)
(2.56429e-06 0 0)
(2.56434e-06 0 0)
(2.56438e-06 0 0)
(2.56442e-06 0 0)
(2.56446e-06 0 0)
(2.5645e-06 0 0)
(2.56453e-06 0 0)
(2.56456e-06 0 0)
(2.5646e-06 0 0)
(2.56463e-06 0 0)
(2.56466e-06 0 0)
(2.56469e-06 0 0)
(2.56473e-06 0 0)
(2.56476e-06 0 0)
(2.56479e-06 0 0)
(2.56482e-06 0 0)
(2.56486e-06 0 0)
(2.56489e-06 0 0)
(2.56493e-06 0 0)
(2.56496e-06 0 0)
(2.565e-06 0 0)
(2.56503e-06 0 0)
(2.56507e-06 0 0)
(2.56511e-06 0 0)
(2.56514e-06 0 0)
(2.56518e-06 0 0)
(2.56522e-06 0 0)
(2.56526e-06 0 0)
(2.5653e-06 0 0)
(2.56534e-06 0 0)
(2.56538e-06 0 0)
(2.56542e-06 0 0)
(2.56545e-06 0 0)
(2.56549e-06 0 0)
(2.56553e-06 0 0)
(2.56557e-06 0 0)
(2.5656e-06 0 0)
(2.56564e-06 0 0)
(2.56567e-06 0 0)
(2.56571e-06 0 0)
(2.56574e-06 0 0)
(2.56577e-06 0 0)
(2.56581e-06 0 0)
(2.56584e-06 0 0)
(2.56587e-06 0 0)
(2.56589e-06 0 0)
(2.56592e-06 0 0)
(2.56595e-06 0 0)
(2.56597e-06 0 0)
(2.566e-06 0 0)
(2.56602e-06 0 0)
(2.56604e-06 0 0)
(2.56606e-06 0 0)
(2.56608e-06 0 0)
(2.5661e-06 0 0)
(2.56612e-06 0 0)
(2.56613e-06 0 0)
(2.56615e-06 0 0)
(2.56616e-06 0 0)
(2.56617e-06 0 0)
(2.56618e-06 0 0)
(2.56619e-06 0 0)
(2.5662e-06 0 0)
(2.56621e-06 0 0)
(2.56622e-06 0 0)
(2.56623e-06 0 0)
(2.56623e-06 0 0)
(2.56624e-06 0 0)
(2.56624e-06 0 0)
(2.56624e-06 0 0)
(2.56624e-06 0 0)
(2.56624e-06 0 0)
(2.56624e-06 0 0)
(2.56624e-06 0 0)
(2.56624e-06 0 0)
(2.56624e-06 0 0)
(2.56624e-06 0 0)
(2.56623e-06 0 0)
(2.56623e-06 0 0)
(2.56622e-06 0 0)
(2.56621e-06 0 0)
(2.5662e-06 0 0)
(2.5662e-06 0 0)
(2.56619e-06 0 0)
(2.56618e-06 0 0)
(2.56617e-06 0 0)
(2.56616e-06 0 0)
(2.56614e-06 0 0)
(2.56613e-06 0 0)
(2.56612e-06 0 0)
(2.5661e-06 0 0)
(2.56609e-06 0 0)
(2.56607e-06 0 0)
(2.56606e-06 0 0)
(2.56604e-06 0 0)
(2.56602e-06 0 0)
(2.566e-06 0 0)
(2.56598e-06 0 0)
(2.56597e-06 0 0)
(2.56594e-06 0 0)
(2.56592e-06 0 0)
(2.5659e-06 0 0)
(2.56588e-06 0 0)
(2.56585e-06 0 0)
(2.56583e-06 0 0)
(2.56581e-06 0 0)
(2.56578e-06 0 0)
(2.56575e-06 0 0)
(2.56572e-06 0 0)
(2.56569e-06 0 0)
(2.56566e-06 0 0)
(2.56563e-06 0 0)
(2.5656e-06 0 0)
(2.56556e-06 0 0)
(2.56552e-06 0 0)
(2.56549e-06 0 0)
(2.56545e-06 0 0)
(2.5654e-06 0 0)
(2.56536e-06 0 0)
(2.56531e-06 0 0)
(2.56526e-06 0 0)
(2.56521e-06 0 0)
(2.56515e-06 0 0)
(2.56509e-06 0 0)
(2.56503e-06 0 0)
(2.56497e-06 0 0)
(2.5649e-06 0 0)
(2.56482e-06 0 0)
(2.56475e-06 0 0)
(2.56467e-06 0 0)
(2.56458e-06 0 0)
(2.56449e-06 0 0)
(2.5644e-06 0 0)
(2.5643e-06 0 0)
(2.5642e-06 0 0)
(2.56409e-06 0 0)
(2.56398e-06 0 0)
(2.56386e-06 0 0)
(2.56374e-06 0 0)
(2.56362e-06 0 0)
(2.56349e-06 0 0)
(2.56336e-06 0 0)
(2.56322e-06 0 0)
(2.56308e-06 0 0)
(2.56294e-06 0 0)
(2.5628e-06 0 0)
(2.56266e-06 0 0)
(2.56251e-06 0 0)
(2.56236e-06 0 0)
(2.56222e-06 0 0)
(2.56207e-06 0 0)
(2.56193e-06 0 0)
(2.56178e-06 0 0)
(2.56164e-06 0 0)
(2.56151e-06 0 0)
(2.56137e-06 0 0)
(2.56125e-06 0 0)
(2.56113e-06 0 0)
(2.56101e-06 0 0)
(2.56091e-06 0 0)
(2.56081e-06 0 0)
(2.56072e-06 0 0)
(2.56064e-06 0 0)
(2.56056e-06 0 0)
(2.5605e-06 0 0)
(2.56046e-06 0 0)
(2.56042e-06 0 0)
(2.56039e-06 0 0)
(2.56038e-06 0 0)
(2.56038e-06 0 0)
(2.56038e-06 0 0)
(2.56039e-06 0 0)
(2.56041e-06 0 0)
(2.56046e-06 0 0)
(2.56052e-06 0 0)
(2.56059e-06 0 0)
(2.56067e-06 0 0)
(2.56076e-06 0 0)
(2.56086e-06 0 0)
(2.56097e-06 0 0)
(2.56109e-06 0 0)
(2.56122e-06 0 0)
(2.56134e-06 0 0)
(2.56148e-06 0 0)
(2.56162e-06 0 0)
(2.56176e-06 0 0)
(2.5619e-06 0 0)
(2.56204e-06 0 0)
(2.56219e-06 0 0)
(2.56233e-06 0 0)
(2.56247e-06 0 0)
(2.56261e-06 0 0)
(2.56274e-06 0 0)
(2.56287e-06 0 0)
(2.563e-06 0 0)
(2.56312e-06 0 0)
(2.56324e-06 0 0)
(2.56335e-06 0 0)
(2.56346e-06 0 0)
(2.56356e-06 0 0)
(2.56365e-06 0 0)
(2.56374e-06 0 0)
(2.56383e-06 0 0)
(2.56391e-06 0 0)
(2.56398e-06 0 0)
(2.56405e-06 0 0)
(2.56411e-06 0 0)
(2.56417e-06 0 0)
(2.56423e-06 0 0)
(2.56428e-06 0 0)
(2.56433e-06 0 0)
(2.56438e-06 0 0)
(2.56442e-06 0 0)
(2.56446e-06 0 0)
(2.5645e-06 0 0)
(2.56454e-06 0 0)
(2.56457e-06 0 0)
(2.56461e-06 0 0)
(2.56464e-06 0 0)
(2.56467e-06 0 0)
(2.5647e-06 0 0)
(2.56474e-06 0 0)
(2.56477e-06 0 0)
(2.5648e-06 0 0)
(2.56483e-06 0 0)
(2.56486e-06 0 0)
(2.56489e-06 0 0)
(2.56492e-06 0 0)
(2.56495e-06 0 0)
(2.56498e-06 0 0)
(2.56501e-06 0 0)
(2.56504e-06 0 0)
(2.56508e-06 0 0)
(2.56511e-06 0 0)
(2.56514e-06 0 0)
(2.56517e-06 0 0)
(2.56521e-06 0 0)
(2.56524e-06 0 0)
(2.56527e-06 0 0)
(2.56531e-06 0 0)
(2.56534e-06 0 0)
(2.56538e-06 0 0)
(2.56541e-06 0 0)
(2.56544e-06 0 0)
(2.56547e-06 0 0)
(2.56551e-06 0 0)
(2.56554e-06 0 0)
(2.56557e-06 0 0)
(2.5656e-06 0 0)
(2.56563e-06 0 0)
(2.56566e-06 0 0)
(2.56569e-06 0 0)
(2.56572e-06 0 0)
(2.56575e-06 0 0)
(2.56577e-06 0 0)
(2.5658e-06 0 0)
(2.56583e-06 0 0)
(2.56585e-06 0 0)
(2.56587e-06 0 0)
(2.5659e-06 0 0)
(2.56592e-06 0 0)
(2.56594e-06 0 0)
(2.56596e-06 0 0)
(2.56598e-06 0 0)
(2.56599e-06 0 0)
(2.56601e-06 0 0)
(2.56602e-06 0 0)
(2.56604e-06 0 0)
(2.56605e-06 0 0)
(2.56606e-06 0 0)
(2.56607e-06 0 0)
)
;

boundaryField
{
    inlet
    {
        type            fixedValue;
        value           uniform (1.13622e-05 0 0);
    }
    outlet
    {
        type            zeroGradient;
    }
    emptyWalls
    {
        type            empty;
    }
}


// ************************************************************************* //
