/*--------------------------------*- C++ -*----------------------------------*\
  =========                 |
  \\      /  F ield         | OpenFOAM: The Open Source CFD Toolbox
   \\    /   O peration     | Website:  https://openfoam.org
    \\  /    A nd           | Version:  9
     \\/     M anipulation  |
\*---------------------------------------------------------------------------*/
FoamFile
{
    format      ascii;
    class       volVectorField;
    location    "77000";
    object      Uc;
}
// * * * * * * * * * * * * * * * * * * * * * * * * * * * * * * * * * * * * * //

dimensions      [0 0 0 0 0 0 0];

internalField   nonuniform List<vector> 
100
(
(6.77626e-21 0 0)
(0 0 0)
(-3.38813e-21 0 0)
(0 0 0)
(0 0 0)
(0 0 0)
(3.38813e-21 0 0)
(-3.38813e-21 0 0)
(3.38813e-21 0 0)
(0 0 0)
(3.38813e-21 0 0)
(0 0 0)
(-3.38813e-21 0 0)
(-3.38813e-21 0 0)
(-3.38813e-21 0 0)
(0 0 0)
(0 0 0)
(0 0 0)
(0 0 0)
(3.38813e-21 0 0)
(0 0 0)
(0 0 0)
(6.77626e-21 0 0)
(3.38813e-21 0 0)
(3.38813e-21 0 0)
(3.38813e-21 0 0)
(3.38813e-21 0 0)
(0 0 0)
(3.38813e-21 0 0)
(3.38813e-21 0 0)
(0 0 0)
(0 0 0)
(3.38813e-21 0 0)
(0 0 0)
(0 0 0)
(0 0 0)
(-3.38813e-21 0 0)
(0 0 0)
(-3.38813e-21 0 0)
(0 0 0)
(3.38813e-21 0 0)
(3.38813e-21 0 0)
(3.38813e-21 0 0)
(3.38813e-21 0 0)
(3.38813e-21 0 0)
(3.38813e-21 0 0)
(0 0 0)
(-3.38813e-21 0 0)
(0 0 0)
(3.38813e-21 0 0)
(-3.38813e-21 0 0)
(-3.38813e-21 0 0)
(-3.38813e-21 0 0)
(0 0 0)
(0 0 0)
(3.38813e-21 0 0)
(0 0 0)
(0 0 0)
(0 0 0)
(0 0 0)
(3.38813e-21 0 0)
(0 0 0)
(0 0 0)
(0 0 0)
(-3.38813e-21 0 0)
(3.38813e-21 0 0)
(0 0 0)
(0 0 0)
(3.38813e-21 0 0)
(0 0 0)
(-3.38813e-21 0 0)
(3.38813e-21 0 0)
(-3.38813e-21 0 0)
(-3.38813e-21 0 0)
(0 0 0)
(0 0 0)
(0 0 0)
(0 0 0)
(6.77626e-21 0 0)
(0 0 0)
(3.38813e-21 0 0)
(3.38813e-21 0 0)
(0 0 0)
(-3.38813e-21 0 0)
(-3.38813e-21 0 0)
(3.38813e-21 0 0)
(-3.38813e-21 0 0)
(3.38813e-21 0 0)
(0 0 0)
(0 0 0)
(0 0 0)
(-3.38813e-21 0 0)
(0 0 0)
(0 0 0)
(0 0 0)
(-3.38813e-21 0 0)
(3.04932e-20 0 0)
(1.6263e-19 0 0)
(3.87602e-18 0 0)
(1.19364e-17 0 0)
)
;

boundaryField
{
    inlet
    {
        type            fixedValue;
        value           uniform (0 0 0);
    }
    outlet
    {
        type            zeroGradient;
    }
    emptyWalls
    {
        type            empty;
    }
}


// ************************************************************************* //
