/*--------------------------------*- C++ -*----------------------------------*\
  =========                 |
  \\      /  F ield         | OpenFOAM: The Open Source CFD Toolbox
   \\    /   O peration     | Website:  https://openfoam.org
    \\  /    A nd           | Version:  9
     \\/     M anipulation  |
\*---------------------------------------------------------------------------*/
FoamFile
{
    format      ascii;
    class       volScalarField;
    location    "24950";
    object      Fb;
}
// * * * * * * * * * * * * * * * * * * * * * * * * * * * * * * * * * * * * * //

dimensions      [0 0 0 0 0 0 0];

internalField   nonuniform List<scalar> 
1000
(
0.805231
0.805154
0.805249
0.805151
0.805267
0.805175
0.805269
0.805224
0.805262
0.805268
0.805276
0.805298
0.805319
0.805335
0.805368
0.80539
0.805415
0.805453
0.805465
0.805527
0.805505
0.805609
0.80554
0.805668
0.805592
0.805694
0.805659
0.805716
0.805713
0.805745
0.805751
0.805779
0.805826
0.806032
0.807177
0.817731
0.831343
0.833542
0.834315
0.834726
0.835001
0.83521
0.835381
0.835527
0.835653
0.835764
0.835862
0.835948
0.836026
0.836097
0.836161
0.836218
0.836267
0.836305
0.836333
0.836356
0.836378
0.836401
0.836425
0.836453
0.836482
0.836502
0.836505
0.836483
0.83646
0.836448
0.836437
0.836422
0.836418
0.836428
0.836444
0.836449
0.836433
0.836403
0.836344
0.836267
0.836089
0.835822
0.835535
0.835236
0.83494
0.834662
0.834419
0.834222
0.834066
0.833929
0.833786
0.833644
0.833539
0.833521
0.833563
0.833653
0.833773
0.833906
0.834033
0.834138
0.834207
0.834232
0.834207
0.834137
0.834025
0.833876
0.833694
0.833483
0.833249
0.832997
0.832731
0.832456
0.832177
0.831896
0.831616
0.831338
0.831064
0.830793
0.830527
0.830264
0.830004
0.829747
0.829492
0.829238
0.828984
0.828732
0.828479
0.828226
0.827972
0.827717
0.827462
0.827206
0.826948
0.826689
0.826429
0.826168
0.825906
0.825642
0.825377
0.825111
0.824843
0.824574
0.824304
0.824032
0.823759
0.823484
0.823208
0.822931
0.822652
0.822371
0.82209
0.821808
0.821524
0.821239
0.820953
0.820665
0.820376
0.820085
0.819793
0.819499
0.819203
0.818906
0.818607
0.818307
0.818006
0.817705
0.817403
0.817101
0.816799
0.816497
0.816193
0.815889
0.815583
0.815276
0.814967
0.814656
0.814344
0.81403
0.813715
0.8134
0.813084
0.812769
0.812455
0.812142
0.811831
0.811521
0.811211
0.8109
0.810586
0.810267
0.80994
0.809603
0.809255
0.808894
0.808519
0.80813
0.807727
0.807312
0.806886
0.80645
0.806006
0.805557
0.805105
0.804653
0.804204
0.803761
0.803328
0.802908
0.802504
0.802119
0.801756
0.801416
0.801099
0.800808
0.800539
0.800292
0.800064
0.799852
0.799653
0.799462
0.799276
0.799091
0.798903
0.798709
0.798507
0.798296
0.798073
0.797839
0.797593
0.797335
0.797066
0.796788
0.796501
0.796206
0.795905
0.795599
0.795289
0.794976
0.794662
0.794347
0.794031
0.793716
0.793401
0.793088
0.792776
0.792465
0.792155
0.791846
0.791538
0.791231
0.790925
0.79062
0.790315
0.79001
0.789705
0.789401
0.789096
0.788791
0.788485
0.788179
0.787873
0.787566
0.787258
0.78695
0.786641
0.786331
0.78602
0.785709
0.785397
0.785083
0.784769
0.784454
0.784139
0.783822
0.783504
0.783186
0.782866
0.782546
0.782225
0.781903
0.78158
0.781256
0.780931
0.780605
0.780278
0.77995
0.779621
0.779291
0.77896
0.778628
0.778295
0.777962
0.777627
0.777292
0.776957
0.776621
0.776284
0.775946
0.775608
0.775269
0.77493
0.77459
0.774249
0.773907
0.773565
0.773221
0.772878
0.772533
0.772188
0.771843
0.771498
0.771152
0.770807
0.770461
0.770115
0.769769
0.769422
0.769074
0.768725
0.768374
0.76802
0.767663
0.767301
0.766935
0.766564
0.766187
0.765803
0.765413
0.765017
0.764613
0.764203
0.763787
0.763364
0.762937
0.762505
0.76207
0.761632
0.761194
0.760755
0.760319
0.759886
0.759457
0.759035
0.75862
0.758215
0.757819
0.757435
0.757062
0.756702
0.756354
0.756019
0.755696
0.755385
0.755084
0.754792
0.754508
0.754231
0.753959
0.75369
0.753422
0.753155
0.752887
0.752616
0.752342
0.752063
0.75178
0.751491
0.751196
0.750896
0.75059
0.750279
0.749962
0.749641
0.749315
0.748986
0.748652
0.748316
0.747978
0.747638
0.747296
0.746953
0.746609
0.746264
0.745919
0.745574
0.745229
0.744884
0.74454
0.744196
0.743852
0.743508
0.743165
0.742822
0.742479
0.742136
0.741793
0.74145
0.741108
0.740765
0.740422
0.740079
0.739735
0.739391
0.739047
0.738702
0.738357
0.738011
0.737665
0.737318
0.73697
0.736622
0.736273
0.735924
0.735573
0.735222
0.734871
0.734518
0.734165
0.733811
0.733457
0.733101
0.732745
0.732388
0.732031
0.731672
0.731313
0.730953
0.730592
0.73023
0.729867
0.729504
0.72914
0.728775
0.728409
0.728043
0.727676
0.727308
0.72694
0.726571
0.726201
0.72583
0.725459
0.725088
0.724715
0.724342
0.723969
0.723595
0.72322
0.722845
0.722469
0.722092
0.721716
0.721338
0.720961
0.720583
0.720204
0.719825
0.719446
0.719066
0.718685
0.718304
0.717921
0.717538
0.717154
0.716768
0.71638
0.71599
0.715598
0.715204
0.714806
0.714406
0.714002
0.713594
0.713183
0.712768
0.712349
0.711927
0.7115
0.711069
0.710635
0.710198
0.709758
0.709315
0.70887
0.708424
0.707976
0.707528
0.707081
0.706634
0.70619
0.705747
0.705308
0.704873
0.704442
0.704016
0.703597
0.703183
0.702776
0.702376
0.701982
0.701596
0.701217
0.700844
0.700479
0.700119
0.699765
0.699415
0.699071
0.698729
0.698391
0.698055
0.69772
0.697386
0.697052
0.696717
0.696381
0.696043
0.695703
0.69536
0.695014
0.694666
0.694314
0.693959
0.693601
0.69324
0.692875
0.692508
0.692138
0.691766
0.691391
0.691014
0.690635
0.690255
0.689873
0.68949
0.689106
0.688721
0.688335
0.687949
0.687562
0.687175
0.686787
0.686399
0.686011
0.685623
0.685235
0.684846
0.684458
0.684069
0.68368
0.683291
0.682902
0.682512
0.682122
0.681732
0.681342
0.680951
0.68056
0.680168
0.679776
0.679383
0.67899
0.678597
0.678202
0.677808
0.677412
0.677016
0.676619
0.676222
0.675823
0.675424
0.675025
0.674624
0.674223
0.673821
0.673419
0.673015
0.672611
0.672206
0.6718
0.671394
0.670986
0.670578
0.670169
0.669759
0.669349
0.668937
0.668525
0.668112
0.667698
0.667284
0.666869
0.666452
0.666036
0.665618
0.6652
0.664781
0.664361
0.66394
0.663519
0.663097
0.662675
0.662251
0.661827
0.661403
0.660978
0.660552
0.660125
0.659698
0.65927
0.658842
0.658413
0.657983
0.657553
0.657122
0.656691
0.656258
0.655825
0.655391
0.654955
0.654519
0.654082
0.653643
0.653203
0.652761
0.652318
0.651873
0.651426
0.650976
0.650525
0.650071
0.649615
0.649157
0.648696
0.648232
0.647766
0.647298
0.646826
0.646353
0.645877
0.645399
0.644918
0.644436
0.643952
0.643467
0.642981
0.642494
0.642006
0.641518
0.641031
0.640544
0.640058
0.639573
0.63909
0.638609
0.63813
0.637654
0.637181
0.636711
0.636245
0.635783
0.635324
0.634869
0.634419
0.633972
0.633529
0.63309
0.632654
0.632222
0.631793
0.631367
0.630944
0.630522
0.630103
0.629684
0.629267
0.628851
0.628435
0.628018
0.627601
0.627184
0.626765
0.626345
0.625924
0.6255
0.625075
0.624648
0.624219
0.623787
0.623354
0.622918
0.62248
0.62204
0.621598
0.621154
0.620708
0.62026
0.61981
0.619359
0.618907
0.618453
0.617998
0.617541
0.617084
0.616625
0.616166
0.615705
0.615244
0.614782
0.614319
0.613856
0.613392
0.612927
0.612462
0.611996
0.61153
0.611063
0.610595
0.610127
0.609658
0.609188
0.608718
0.608247
0.607775
0.607303
0.60683
0.606356
0.605882
0.605406
0.60493
0.604453
0.603976
0.603497
0.603017
0.602537
0.602056
0.601573
0.60109
0.600606
0.600121
0.599635
0.599148
0.59866
0.59817
0.59768
0.597189
0.596697
0.596204
0.59571
0.595214
0.594718
0.594221
0.593722
0.593223
0.592722
0.59222
0.591718
0.591214
0.590709
0.590203
0.589696
0.589188
0.588679
0.588169
0.587658
0.587145
0.586632
0.586118
0.585602
0.585086
0.584568
0.58405
0.58353
0.58301
0.582488
0.581966
0.581442
0.580917
0.580392
0.579865
0.579337
0.578808
0.578278
0.577747
0.577215
0.576681
0.576146
0.57561
0.575073
0.574535
0.573995
0.573453
0.57291
0.572366
0.571819
0.571272
0.570722
0.57017
0.569617
0.569061
0.568504
0.567944
0.567382
0.566818
0.566252
0.565684
0.565113
0.56454
0.563965
0.563388
0.562808
0.562226
0.561642
0.561057
0.560469
0.559879
0.559288
0.558696
0.558101
0.557506
0.55691
0.556312
0.555714
0.555116
0.554517
0.553917
0.553318
0.552719
0.552121
0.551523
0.550925
0.550329
0.549733
0.549139
0.548546
0.547954
0.547363
0.546774
0.546187
0.545601
0.545016
0.544433
0.543851
0.54327
0.54269
0.542112
0.541534
0.540956
0.540379
0.539802
0.539226
0.538649
0.538071
0.537493
0.536914
0.536334
0.535753
0.535171
0.534587
0.534001
0.533413
0.532823
0.532231
0.531637
0.53104
0.530441
0.52984
0.529236
0.52863
0.52802
0.52741
0.526795
0.526179
0.525559
0.524939
0.524314
0.523689
0.523059
0.52243
0.521795
0.521162
0.520522
0.519885
0.519241
0.518599
0.51795
0.517305
0.516652
0.516004
0.515346
0.514694
0.514032
0.513376
0.51271
0.51205
0.51138
0.510716
0.510042
0.509374
0.508696
0.508024
0.507342
0.506666
0.50598
0.505299
0.50461
0.503924
0.50323
0.50254
0.501843
0.501147
0.500446
0.499746
0.499041
0.498335
0.497626
0.496915
0.496202
0.495487
0.494769
0.49405
0.493327
0.492603
0.491877
0.491148
0.490417
0.489685
0.48895
0.488213
0.487474
0.486734
0.485992
0.485248
0.484503
0.483757
0.483009
0.482261
0.481512
0.480762
0.480013
0.479264
0.478515
0.477768
0.477022
0.476278
0.475537
0.4748
0.474068
0.47334
0.472618
0.471904
0.471198
0.470502
0.469818
0.469145
0.468486
0.467843
0.467217
0.466609
0.466022
0.465457
0.464915
0.464397
0.463904
0.46344
0.463001
0.462592
0.462211
0.461859
0.461532
0.461236
0.460965
0.460722
0.460502
0.460307
0.460131
0.459978
0.459841
0.459722
0.459618
0.459529
0.45945
0.45938
0.459321
0.45927
0.459221
0.459187
0.459143
0.459116
0.459075
0.459052
0.459003
0.458975
0.458892
0.458847
0.458642
0.458542
0.457938
0.457654
0.455748
0.454956
0.449898
0.447118
0.0229507
)
;

boundaryField
{
    inlet
    {
        type            calculated;
        value           uniform 0.805169;
    }
    outlet
    {
        type            calculated;
        value           uniform 0.479933;
    }
    emptyWalls
    {
        type            empty;
    }
}


// ************************************************************************* //
