/*--------------------------------*- C++ -*----------------------------------*\
  =========                 |
  \\      /  F ield         | OpenFOAM: The Open Source CFD Toolbox
   \\    /   O peration     | Website:  https://openfoam.org
    \\  /    A nd           | Version:  9
     \\/     M anipulation  |
\*---------------------------------------------------------------------------*/
FoamFile
{
    format      ascii;
    class       volScalarField;
    location    "24950";
    object      Sa;
}
// * * * * * * * * * * * * * * * * * * * * * * * * * * * * * * * * * * * * * //

dimensions      [0 0 0 0 0 0 0];

internalField   nonuniform List<scalar> 
1000
(
0.549559
0.548743
0.547557
0.546471
0.545269
0.544177
0.542979
0.54185
0.540666
0.539491
0.538305
0.537104
0.535896
0.534686
0.533466
0.532255
0.531051
0.529857
0.528701
0.527551
0.526492
0.525416
0.524501
0.523547
0.522784
0.521999
0.521369
0.520761
0.520254
0.519782
0.519339
0.518733
0.517235
0.511907
0.489318
0.347214
0.126729
0.0799297
0.0662014
0.0597516
0.0557627
0.0528631
0.0505561
0.0486115
0.046921
0.0454147
0.0440568
0.0428166
0.0416787
0.0406259
0.0396507
0.0387419
0.0378956
0.037104
0.0363641
0.0356692
0.035016
0.0343996
0.0338183
0.0332675
0.0327466
0.0322532
0.0317875
0.0313475
0.0309292
0.0305287
0.0301471
0.0297828
0.0294339
0.0290983
0.0287768
0.0284692
0.0281768
0.0278942
0.0276251
0.0273698
0.0271355
0.0269219
0.0267207
0.0265309
0.0263506
0.0261779
0.0260111
0.0258487
0.0256911
0.0255404
0.0253987
0.025265
0.0251355
0.0250053
0.0248766
0.0247504
0.0246282
0.024512
0.0244044
0.0243079
0.0242253
0.0241579
0.0241039
0.0240576
0.0240133
0.0239708
0.0239303
0.0238915
0.0238543
0.0238183
0.0237833
0.023749
0.0237149
0.023681
0.0236469
0.0236126
0.023578
0.0235432
0.023508
0.0234726
0.023437
0.0234013
0.0233656
0.0233298
0.0232941
0.0232586
0.0232231
0.0231879
0.0231528
0.0231179
0.0230833
0.0230489
0.0230148
0.0229809
0.0229473
0.022914
0.0228809
0.022848
0.0228154
0.0227831
0.0227511
0.0227193
0.0226877
0.0226565
0.0226255
0.0225948
0.0225643
0.0225341
0.0225041
0.0224744
0.022445
0.0224157
0.0223867
0.0223579
0.0223294
0.0223011
0.0222731
0.0222453
0.0222178
0.0221906
0.0221636
0.0221369
0.0221104
0.0220841
0.022058
0.0220321
0.0220063
0.0219806
0.0219551
0.0219297
0.0219045
0.0218794
0.0218546
0.0218301
0.0218057
0.0217816
0.0217578
0.0217342
0.0217107
0.0216874
0.0216643
0.0216411
0.021618
0.0215948
0.0215716
0.0215484
0.0215253
0.0215023
0.0214797
0.0214576
0.0214363
0.0214159
0.0213965
0.0213784
0.0213616
0.021346
0.0213317
0.0213185
0.0213064
0.0212952
0.0212847
0.0212748
0.0212651
0.0212555
0.0212456
0.0212353
0.0212242
0.0212121
0.0211986
0.0211836
0.0211667
0.021148
0.0211273
0.0211045
0.0210799
0.0210534
0.0210254
0.0209961
0.0209658
0.0209349
0.0209036
0.0208723
0.0208413
0.0208109
0.0207812
0.0207524
0.0207247
0.020698
0.0206724
0.0206478
0.0206242
0.0206015
0.0205796
0.0205584
0.0205378
0.0205177
0.0204979
0.0204784
0.0204592
0.02044
0.020421
0.0204019
0.0203829
0.0203638
0.0203447
0.0203255
0.0203063
0.020287
0.0202677
0.0202483
0.020229
0.0202096
0.0201903
0.0201709
0.0201516
0.0201324
0.0201132
0.0200941
0.020075
0.0200561
0.0200372
0.0200184
0.0199997
0.0199811
0.0199626
0.0199443
0.019926
0.0199078
0.0198898
0.0198718
0.019854
0.0198363
0.0198187
0.0198012
0.0197838
0.0197666
0.0197494
0.0197324
0.0197155
0.0196986
0.0196819
0.0196653
0.0196489
0.0196325
0.0196163
0.0196001
0.0195841
0.0195682
0.0195525
0.0195368
0.0195212
0.0195057
0.0194904
0.0194751
0.0194599
0.0194447
0.0194297
0.0194147
0.0193998
0.019385
0.0193703
0.0193557
0.0193412
0.0193267
0.0193124
0.0192981
0.0192839
0.0192698
0.0192557
0.0192417
0.0192278
0.0192139
0.0192
0.0191861
0.0191723
0.0191585
0.0191448
0.0191312
0.0191178
0.0191045
0.0190915
0.0190788
0.0190664
0.0190545
0.019043
0.019032
0.0190215
0.0190116
0.0190022
0.0189935
0.0189853
0.0189776
0.0189704
0.0189637
0.0189573
0.0189512
0.0189453
0.0189395
0.0189337
0.0189278
0.0189216
0.0189151
0.0189081
0.0189004
0.0188921
0.0188829
0.0188728
0.0188618
0.0188498
0.0188368
0.0188228
0.0188079
0.018792
0.0187753
0.0187579
0.0187398
0.0187212
0.0187023
0.0186831
0.0186637
0.0186444
0.0186252
0.0186062
0.0185875
0.0185691
0.0185512
0.0185337
0.0185167
0.0185001
0.0184841
0.0184685
0.0184533
0.0184385
0.0184241
0.0184101
0.0183963
0.0183827
0.0183694
0.0183563
0.0183432
0.0183303
0.0183175
0.0183047
0.018292
0.0182793
0.0182666
0.0182539
0.0182411
0.0182284
0.0182156
0.0182029
0.0181901
0.0181773
0.0181645
0.0181517
0.0181389
0.0181261
0.0181133
0.0181006
0.0180878
0.0180751
0.0180624
0.0180498
0.0180372
0.0180246
0.0180121
0.0179996
0.0179872
0.0179749
0.0179626
0.0179503
0.0179381
0.017926
0.0179139
0.0179019
0.01789
0.0178781
0.0178663
0.0178545
0.0178428
0.0178312
0.0178197
0.0178082
0.0177968
0.0177854
0.0177741
0.0177629
0.0177518
0.0177407
0.0177297
0.0177188
0.0177079
0.0176971
0.0176863
0.0176756
0.017665
0.0176544
0.0176439
0.0176335
0.017623
0.0176127
0.0176024
0.0175922
0.017582
0.0175718
0.0175617
0.0175517
0.0175417
0.0175317
0.0175218
0.0175119
0.0175021
0.0174923
0.0174825
0.0174728
0.0174631
0.0174535
0.0174438
0.0174343
0.0174247
0.0174152
0.0174058
0.0173965
0.0173873
0.0173782
0.0173692
0.0173604
0.0173518
0.0173433
0.0173351
0.0173272
0.0173195
0.0173121
0.0173049
0.0172981
0.0172916
0.0172854
0.0172796
0.017274
0.0172687
0.0172636
0.0172588
0.0172542
0.0172498
0.0172454
0.0172412
0.0172369
0.0172327
0.0172283
0.0172238
0.0172191
0.0172142
0.0172089
0.0172033
0.0171972
0.0171907
0.0171837
0.0171761
0.017168
0.0171594
0.0171501
0.0171403
0.0171299
0.017119
0.0171077
0.0170958
0.0170836
0.0170709
0.017058
0.0170449
0.0170316
0.0170181
0.0170046
0.0169911
0.0169776
0.0169643
0.016951
0.0169379
0.0169251
0.0169124
0.0169
0.0168878
0.0168758
0.0168641
0.0168527
0.0168415
0.0168305
0.0168197
0.0168091
0.0167987
0.0167884
0.0167783
0.0167683
0.0167583
0.0167485
0.0167388
0.0167291
0.0167195
0.0167099
0.0167003
0.0166908
0.0166812
0.0166717
0.0166622
0.0166527
0.0166431
0.0166336
0.0166241
0.0166145
0.016605
0.0165955
0.016586
0.0165764
0.0165669
0.0165574
0.0165479
0.0165384
0.016529
0.0165195
0.0165101
0.0165007
0.0164914
0.016482
0.0164727
0.0164634
0.0164542
0.016445
0.0164358
0.0164267
0.0164176
0.0164086
0.0163996
0.0163906
0.0163817
0.0163728
0.016364
0.0163552
0.0163465
0.0163378
0.0163292
0.0163206
0.016312
0.0163035
0.0162951
0.0162867
0.0162783
0.01627
0.0162617
0.0162535
0.0162453
0.0162372
0.0162291
0.016221
0.016213
0.016205
0.0161971
0.0161892
0.0161813
0.0161735
0.0161657
0.016158
0.0161503
0.0161426
0.016135
0.0161274
0.0161198
0.0161122
0.0161047
0.0160972
0.0160897
0.0160823
0.0160749
0.0160675
0.0160602
0.0160529
0.0160456
0.0160383
0.0160311
0.016024
0.0160169
0.0160099
0.0160029
0.0159961
0.0159893
0.0159826
0.015976
0.0159696
0.0159633
0.0159571
0.0159511
0.0159452
0.0159396
0.0159341
0.0159287
0.0159236
0.0159186
0.0159138
0.0159092
0.0159048
0.0159006
0.0158965
0.0158925
0.0158887
0.015885
0.0158813
0.0158777
0.0158742
0.0158707
0.0158672
0.0158636
0.0158599
0.0158562
0.0158523
0.0158482
0.015844
0.0158395
0.0158348
0.0158298
0.0158245
0.0158188
0.0158129
0.0158066
0.0158
0.015793
0.0157856
0.0157779
0.0157698
0.0157614
0.0157527
0.0157437
0.0157345
0.015725
0.0157152
0.0157053
0.0156953
0.0156851
0.0156748
0.0156645
0.0156541
0.0156438
0.0156334
0.0156232
0.0156129
0.0156028
0.0155928
0.0155829
0.0155731
0.0155635
0.015554
0.0155446
0.0155354
0.0155263
0.0155174
0.0155085
0.0154998
0.0154913
0.0154828
0.0154744
0.0154661
0.0154579
0.0154498
0.0154417
0.0154337
0.0154258
0.0154179
0.01541
0.0154022
0.0153943
0.0153865
0.0153788
0.015371
0.0153632
0.0153555
0.0153477
0.01534
0.0153323
0.0153245
0.0153168
0.0153091
0.0153014
0.0152936
0.0152859
0.0152782
0.0152706
0.0152629
0.0152552
0.0152476
0.0152399
0.0152323
0.0152247
0.0152171
0.0152096
0.015202
0.0151945
0.015187
0.0151795
0.0151721
0.0151647
0.0151573
0.0151499
0.0151426
0.0151353
0.015128
0.0151208
0.0151136
0.0151064
0.0150993
0.0150921
0.0150851
0.015078
0.015071
0.015064
0.015057
0.0150501
0.0150432
0.0150364
0.0150295
0.0150227
0.015016
0.0150092
0.0150025
0.0149958
0.0149892
0.0149826
0.014976
0.0149694
0.0149628
0.0149563
0.0149498
0.0149434
0.0149369
0.0149305
0.0149241
0.0149177
0.0149114
0.014905
0.0148987
0.0148924
0.0148862
0.0148799
0.0148737
0.0148675
0.0148613
0.0148551
0.014849
0.0148429
0.0148368
0.0148308
0.0148248
0.0148189
0.014813
0.0148071
0.0148013
0.0147956
0.0147899
0.0147843
0.0147788
0.0147734
0.014768
0.0147628
0.0147576
0.0147526
0.0147476
0.0147428
0.0147381
0.0147335
0.014729
0.0147246
0.0147203
0.0147162
0.0147121
0.0147082
0.0147044
0.0147006
0.0146969
0.0146933
0.0146898
0.0146863
0.0146828
0.0146794
0.0146759
0.0146725
0.014669
0.0146655
0.0146619
0.0146582
0.0146545
0.0146506
0.0146466
0.0146424
0.0146381
0.0146336
0.014629
0.0146241
0.014619
0.0146137
0.0146081
0.0146024
0.0145964
0.0145901
0.0145836
0.0145769
0.0145699
0.0145628
0.0145554
0.0145478
0.01454
0.0145321
0.014524
0.0145157
0.0145073
0.0144988
0.0144903
0.0144816
0.0144729
0.0144642
0.0144554
0.0144467
0.0144379
0.0144292
0.0144205
0.0144119
0.0144033
0.0143948
0.0143863
0.014378
0.0143696
0.0143614
0.0143533
0.0143453
0.0143373
0.0143294
0.0143216
0.0143139
0.0143061
0.0142987
0.014291
0.0142837
0.0142761
0.0142689
0.0142614
0.0142543
0.0142469
0.0142399
0.0142325
0.0142256
0.0142181
0.0142113
0.0142039
0.0141971
0.0141897
0.014183
0.0141755
0.0141688
0.0141614
0.0141547
0.0141473
0.0141406
0.0141331
0.0141265
0.014119
0.0141124
0.0141049
0.0140982
0.0140909
0.0140842
0.0140768
0.0140701
0.0140628
0.014056
0.0140488
0.014042
0.0140349
0.014028
0.014021
0.014014
0.0140071
0.0140002
0.0139933
0.0139864
0.0139795
0.0139726
0.0139658
0.013959
0.0139522
0.0139454
0.0139386
0.0139319
0.0139252
0.0139185
0.0139118
0.0139052
0.0138986
0.013892
0.0138854
0.0138789
0.0138724
0.013866
0.0138596
0.0138532
0.0138469
0.0138406
0.0138343
0.0138281
0.013822
0.0138159
0.0138099
0.013804
0.0137981
0.0137924
0.0137867
0.0137811
0.0137756
0.0137703
0.0137651
0.01376
0.0137551
0.0137504
0.0137458
0.0137414
0.0137372
0.0137332
0.0137294
0.013726
0.0137226
0.0137196
0.0137168
0.0137142
0.0137119
0.0137099
0.0137081
0.0137065
0.0137053
0.0137041
0.0137033
0.0137027
0.0137022
0.013702
0.013702
0.0137021
0.0137023
0.0137027
0.0137035
0.013704
0.0137052
0.0137057
0.0137073
0.013708
0.0137098
0.0137109
0.0137126
0.013714
0.0137157
0.0137172
0.0137188
0.0137199
0.0137205
0.0137193
0.013718
0.013713
0.0136976
0.0136845
0.0135542
0.145141
)
;

boundaryField
{
    inlet
    {
        type            fixedValue;
        value           uniform 0.55;
    }
    outlet
    {
        type            zeroGradient;
    }
    emptyWalls
    {
        type            empty;
    }
}


// ************************************************************************* //
