/*--------------------------------*- C++ -*----------------------------------*\
  =========                 |
  \\      /  F ield         | OpenFOAM: The Open Source CFD Toolbox
   \\    /   O peration     | Website:  https://openfoam.org
    \\  /    A nd           | Version:  9
     \\/     M anipulation  |
\*---------------------------------------------------------------------------*/
FoamFile
{
    format      ascii;
    class       volVectorField;
    location    "23400";
    object      Ub;
}
// * * * * * * * * * * * * * * * * * * * * * * * * * * * * * * * * * * * * * //

dimensions      [0 0 0 0 0 0 0];

internalField   nonuniform List<vector> 
1000
(
(1.13619e-05 0 0)
(1.13622e-05 0 0)
(1.13622e-05 0 0)
(1.13623e-05 0 0)
(1.13625e-05 0 0)
(1.13625e-05 0 0)
(1.13627e-05 0 0)
(1.13628e-05 0 0)
(1.1363e-05 0 0)
(1.13632e-05 0 0)
(1.13634e-05 0 0)
(1.13638e-05 0 0)
(1.13641e-05 0 0)
(1.13645e-05 0 0)
(1.13649e-05 0 0)
(1.13653e-05 0 0)
(1.13657e-05 0 0)
(1.13662e-05 0 0)
(1.13666e-05 0 0)
(1.1367e-05 0 0)
(1.13674e-05 0 0)
(1.13678e-05 0 0)
(1.13681e-05 0 0)
(1.13685e-05 0 0)
(1.13688e-05 0 0)
(1.13691e-05 0 0)
(1.13694e-05 0 0)
(1.13697e-05 0 0)
(1.137e-05 0 0)
(1.13705e-05 0 0)
(1.13721e-05 0 0)
(1.13784e-05 0 0)
(1.14134e-05 0 0)
(1.15731e-05 0 0)
(1.17313e-05 0 0)
(1.17671e-05 0 0)
(1.17774e-05 0 0)
(1.17821e-05 0 0)
(1.1785e-05 0 0)
(1.1787e-05 0 0)
(1.17887e-05 0 0)
(1.17902e-05 0 0)
(1.17915e-05 0 0)
(1.17926e-05 0 0)
(1.17932e-05 0 0)
(1.17934e-05 0 0)
(1.17937e-05 0 0)
(1.17943e-05 0 0)
(1.17953e-05 0 0)
(1.17963e-05 0 0)
(1.17969e-05 0 0)
(1.17964e-05 0 0)
(1.17945e-05 0 0)
(1.17911e-05 0 0)
(1.17866e-05 0 0)
(1.17814e-05 0 0)
(1.17764e-05 0 0)
(1.17722e-05 0 0)
(1.17692e-05 0 0)
(1.17674e-05 0 0)
(1.17666e-05 0 0)
(1.17663e-05 0 0)
(1.17662e-05 0 0)
(1.17668e-05 0 0)
(1.17694e-05 0 0)
(1.17738e-05 0 0)
(1.17784e-05 0 0)
(1.17831e-05 0 0)
(1.17875e-05 0 0)
(1.17912e-05 0 0)
(1.17942e-05 0 0)
(1.17965e-05 0 0)
(1.17981e-05 0 0)
(1.1799e-05 0 0)
(1.17993e-05 0 0)
(1.17992e-05 0 0)
(1.17987e-05 0 0)
(1.1798e-05 0 0)
(1.17971e-05 0 0)
(1.17961e-05 0 0)
(1.17951e-05 0 0)
(1.17942e-05 0 0)
(1.17932e-05 0 0)
(1.17923e-05 0 0)
(1.17913e-05 0 0)
(1.17904e-05 0 0)
(1.17893e-05 0 0)
(1.17881e-05 0 0)
(1.17867e-05 0 0)
(1.1785e-05 0 0)
(1.1783e-05 0 0)
(1.17807e-05 0 0)
(1.1778e-05 0 0)
(1.17751e-05 0 0)
(1.17721e-05 0 0)
(1.17689e-05 0 0)
(1.17656e-05 0 0)
(1.17622e-05 0 0)
(1.17587e-05 0 0)
(1.17552e-05 0 0)
(1.17516e-05 0 0)
(1.1748e-05 0 0)
(1.17443e-05 0 0)
(1.17406e-05 0 0)
(1.17369e-05 0 0)
(1.17331e-05 0 0)
(1.17293e-05 0 0)
(1.17255e-05 0 0)
(1.17217e-05 0 0)
(1.17178e-05 0 0)
(1.17139e-05 0 0)
(1.17099e-05 0 0)
(1.1706e-05 0 0)
(1.1702e-05 0 0)
(1.16979e-05 0 0)
(1.16939e-05 0 0)
(1.16898e-05 0 0)
(1.16857e-05 0 0)
(1.16816e-05 0 0)
(1.16775e-05 0 0)
(1.16733e-05 0 0)
(1.16692e-05 0 0)
(1.1665e-05 0 0)
(1.16607e-05 0 0)
(1.16565e-05 0 0)
(1.16522e-05 0 0)
(1.16479e-05 0 0)
(1.16435e-05 0 0)
(1.16392e-05 0 0)
(1.16348e-05 0 0)
(1.16304e-05 0 0)
(1.16259e-05 0 0)
(1.16215e-05 0 0)
(1.16171e-05 0 0)
(1.16127e-05 0 0)
(1.16082e-05 0 0)
(1.16038e-05 0 0)
(1.15994e-05 0 0)
(1.15949e-05 0 0)
(1.15904e-05 0 0)
(1.15859e-05 0 0)
(1.15813e-05 0 0)
(1.15768e-05 0 0)
(1.15722e-05 0 0)
(1.15675e-05 0 0)
(1.15629e-05 0 0)
(1.15583e-05 0 0)
(1.15537e-05 0 0)
(1.15491e-05 0 0)
(1.15445e-05 0 0)
(1.15399e-05 0 0)
(1.15354e-05 0 0)
(1.15309e-05 0 0)
(1.15263e-05 0 0)
(1.15217e-05 0 0)
(1.15169e-05 0 0)
(1.1512e-05 0 0)
(1.15069e-05 0 0)
(1.15016e-05 0 0)
(1.1496e-05 0 0)
(1.14902e-05 0 0)
(1.14842e-05 0 0)
(1.14779e-05 0 0)
(1.14715e-05 0 0)
(1.1465e-05 0 0)
(1.14583e-05 0 0)
(1.14516e-05 0 0)
(1.14448e-05 0 0)
(1.14381e-05 0 0)
(1.14314e-05 0 0)
(1.14249e-05 0 0)
(1.14186e-05 0 0)
(1.14125e-05 0 0)
(1.14067e-05 0 0)
(1.14012e-05 0 0)
(1.13961e-05 0 0)
(1.13914e-05 0 0)
(1.13871e-05 0 0)
(1.13832e-05 0 0)
(1.13797e-05 0 0)
(1.13765e-05 0 0)
(1.13735e-05 0 0)
(1.13707e-05 0 0)
(1.13681e-05 0 0)
(1.13655e-05 0 0)
(1.13628e-05 0 0)
(1.13602e-05 0 0)
(1.13574e-05 0 0)
(1.13544e-05 0 0)
(1.13513e-05 0 0)
(1.1348e-05 0 0)
(1.13445e-05 0 0)
(1.13407e-05 0 0)
(1.13368e-05 0 0)
(1.13327e-05 0 0)
(1.13285e-05 0 0)
(1.13241e-05 0 0)
(1.13196e-05 0 0)
(1.1315e-05 0 0)
(1.13104e-05 0 0)
(1.13057e-05 0 0)
(1.1301e-05 0 0)
(1.12963e-05 0 0)
(1.12915e-05 0 0)
(1.12868e-05 0 0)
(1.12821e-05 0 0)
(1.12775e-05 0 0)
(1.12728e-05 0 0)
(1.12682e-05 0 0)
(1.12636e-05 0 0)
(1.1259e-05 0 0)
(1.12544e-05 0 0)
(1.12499e-05 0 0)
(1.12454e-05 0 0)
(1.12408e-05 0 0)
(1.12363e-05 0 0)
(1.12318e-05 0 0)
(1.12273e-05 0 0)
(1.12228e-05 0 0)
(1.12183e-05 0 0)
(1.12138e-05 0 0)
(1.12092e-05 0 0)
(1.12047e-05 0 0)
(1.12002e-05 0 0)
(1.11956e-05 0 0)
(1.1191e-05 0 0)
(1.11865e-05 0 0)
(1.11819e-05 0 0)
(1.11773e-05 0 0)
(1.11727e-05 0 0)
(1.11681e-05 0 0)
(1.11634e-05 0 0)
(1.11588e-05 0 0)
(1.11541e-05 0 0)
(1.11495e-05 0 0)
(1.11448e-05 0 0)
(1.11401e-05 0 0)
(1.11354e-05 0 0)
(1.11306e-05 0 0)
(1.11259e-05 0 0)
(1.11211e-05 0 0)
(1.11164e-05 0 0)
(1.11116e-05 0 0)
(1.11068e-05 0 0)
(1.1102e-05 0 0)
(1.10971e-05 0 0)
(1.10923e-05 0 0)
(1.10874e-05 0 0)
(1.10826e-05 0 0)
(1.10777e-05 0 0)
(1.10728e-05 0 0)
(1.10678e-05 0 0)
(1.10629e-05 0 0)
(1.1058e-05 0 0)
(1.1053e-05 0 0)
(1.1048e-05 0 0)
(1.1043e-05 0 0)
(1.1038e-05 0 0)
(1.1033e-05 0 0)
(1.1028e-05 0 0)
(1.1023e-05 0 0)
(1.10179e-05 0 0)
(1.10129e-05 0 0)
(1.10079e-05 0 0)
(1.10028e-05 0 0)
(1.09977e-05 0 0)
(1.09926e-05 0 0)
(1.09875e-05 0 0)
(1.09824e-05 0 0)
(1.09773e-05 0 0)
(1.09722e-05 0 0)
(1.09671e-05 0 0)
(1.09619e-05 0 0)
(1.09568e-05 0 0)
(1.09516e-05 0 0)
(1.09465e-05 0 0)
(1.09414e-05 0 0)
(1.09362e-05 0 0)
(1.09311e-05 0 0)
(1.09259e-05 0 0)
(1.09207e-05 0 0)
(1.09155e-05 0 0)
(1.09103e-05 0 0)
(1.09051e-05 0 0)
(1.08997e-05 0 0)
(1.08944e-05 0 0)
(1.08889e-05 0 0)
(1.08834e-05 0 0)
(1.08778e-05 0 0)
(1.0872e-05 0 0)
(1.08662e-05 0 0)
(1.08603e-05 0 0)
(1.08542e-05 0 0)
(1.08481e-05 0 0)
(1.08419e-05 0 0)
(1.08355e-05 0 0)
(1.08291e-05 0 0)
(1.08226e-05 0 0)
(1.08161e-05 0 0)
(1.08096e-05 0 0)
(1.0803e-05 0 0)
(1.07964e-05 0 0)
(1.07899e-05 0 0)
(1.07835e-05 0 0)
(1.07771e-05 0 0)
(1.07709e-05 0 0)
(1.07647e-05 0 0)
(1.07588e-05 0 0)
(1.0753e-05 0 0)
(1.07474e-05 0 0)
(1.0742e-05 0 0)
(1.07367e-05 0 0)
(1.07317e-05 0 0)
(1.07269e-05 0 0)
(1.07223e-05 0 0)
(1.07178e-05 0 0)
(1.07135e-05 0 0)
(1.07093e-05 0 0)
(1.07052e-05 0 0)
(1.07012e-05 0 0)
(1.06972e-05 0 0)
(1.06932e-05 0 0)
(1.06893e-05 0 0)
(1.06853e-05 0 0)
(1.06813e-05 0 0)
(1.06772e-05 0 0)
(1.06731e-05 0 0)
(1.06688e-05 0 0)
(1.06645e-05 0 0)
(1.06601e-05 0 0)
(1.06556e-05 0 0)
(1.0651e-05 0 0)
(1.06463e-05 0 0)
(1.06416e-05 0 0)
(1.06367e-05 0 0)
(1.06318e-05 0 0)
(1.06269e-05 0 0)
(1.06218e-05 0 0)
(1.06168e-05 0 0)
(1.06117e-05 0 0)
(1.06066e-05 0 0)
(1.06014e-05 0 0)
(1.05963e-05 0 0)
(1.05911e-05 0 0)
(1.0586e-05 0 0)
(1.05808e-05 0 0)
(1.05756e-05 0 0)
(1.05705e-05 0 0)
(1.05653e-05 0 0)
(1.05602e-05 0 0)
(1.0555e-05 0 0)
(1.05499e-05 0 0)
(1.05448e-05 0 0)
(1.05396e-05 0 0)
(1.05345e-05 0 0)
(1.05294e-05 0 0)
(1.05243e-05 0 0)
(1.05192e-05 0 0)
(1.0514e-05 0 0)
(1.05089e-05 0 0)
(1.05038e-05 0 0)
(1.04987e-05 0 0)
(1.04935e-05 0 0)
(1.04884e-05 0 0)
(1.04833e-05 0 0)
(1.04781e-05 0 0)
(1.04729e-05 0 0)
(1.04678e-05 0 0)
(1.04626e-05 0 0)
(1.04574e-05 0 0)
(1.04522e-05 0 0)
(1.0447e-05 0 0)
(1.04418e-05 0 0)
(1.04366e-05 0 0)
(1.04313e-05 0 0)
(1.04261e-05 0 0)
(1.04208e-05 0 0)
(1.04156e-05 0 0)
(1.04103e-05 0 0)
(1.0405e-05 0 0)
(1.03997e-05 0 0)
(1.03944e-05 0 0)
(1.03891e-05 0 0)
(1.03837e-05 0 0)
(1.03784e-05 0 0)
(1.0373e-05 0 0)
(1.03676e-05 0 0)
(1.03622e-05 0 0)
(1.03568e-05 0 0)
(1.03514e-05 0 0)
(1.0346e-05 0 0)
(1.03406e-05 0 0)
(1.03351e-05 0 0)
(1.03297e-05 0 0)
(1.03242e-05 0 0)
(1.03187e-05 0 0)
(1.03132e-05 0 0)
(1.03077e-05 0 0)
(1.03022e-05 0 0)
(1.02967e-05 0 0)
(1.02912e-05 0 0)
(1.02856e-05 0 0)
(1.02801e-05 0 0)
(1.02745e-05 0 0)
(1.02689e-05 0 0)
(1.02633e-05 0 0)
(1.02578e-05 0 0)
(1.02522e-05 0 0)
(1.02465e-05 0 0)
(1.02409e-05 0 0)
(1.02353e-05 0 0)
(1.02297e-05 0 0)
(1.0224e-05 0 0)
(1.02184e-05 0 0)
(1.02127e-05 0 0)
(1.02071e-05 0 0)
(1.02014e-05 0 0)
(1.01957e-05 0 0)
(1.01901e-05 0 0)
(1.01844e-05 0 0)
(1.01787e-05 0 0)
(1.0173e-05 0 0)
(1.01673e-05 0 0)
(1.01616e-05 0 0)
(1.01558e-05 0 0)
(1.01501e-05 0 0)
(1.01443e-05 0 0)
(1.01385e-05 0 0)
(1.01327e-05 0 0)
(1.01268e-05 0 0)
(1.01209e-05 0 0)
(1.0115e-05 0 0)
(1.0109e-05 0 0)
(1.0103e-05 0 0)
(1.00969e-05 0 0)
(1.00907e-05 0 0)
(1.00845e-05 0 0)
(1.00782e-05 0 0)
(1.00719e-05 0 0)
(1.00655e-05 0 0)
(1.00591e-05 0 0)
(1.00526e-05 0 0)
(1.00461e-05 0 0)
(1.00395e-05 0 0)
(1.00328e-05 0 0)
(1.00262e-05 0 0)
(1.00195e-05 0 0)
(1.00128e-05 0 0)
(1.00061e-05 0 0)
(9.99939e-06 0 0)
(9.99271e-06 0 0)
(9.98607e-06 0 0)
(9.97946e-06 0 0)
(9.97291e-06 0 0)
(9.96642e-06 0 0)
(9.96e-06 0 0)
(9.95367e-06 0 0)
(9.94742e-06 0 0)
(9.94128e-06 0 0)
(9.93524e-06 0 0)
(9.9293e-06 0 0)
(9.92348e-06 0 0)
(9.91776e-06 0 0)
(9.91215e-06 0 0)
(9.90664e-06 0 0)
(9.90122e-06 0 0)
(9.8959e-06 0 0)
(9.89066e-06 0 0)
(9.88548e-06 0 0)
(9.88037e-06 0 0)
(9.8753e-06 0 0)
(9.87026e-06 0 0)
(9.86525e-06 0 0)
(9.86025e-06 0 0)
(9.85525e-06 0 0)
(9.85023e-06 0 0)
(9.8452e-06 0 0)
(9.84014e-06 0 0)
(9.83504e-06 0 0)
(9.8299e-06 0 0)
(9.82472e-06 0 0)
(9.81948e-06 0 0)
(9.8142e-06 0 0)
(9.80887e-06 0 0)
(9.80348e-06 0 0)
(9.79804e-06 0 0)
(9.79256e-06 0 0)
(9.78703e-06 0 0)
(9.78146e-06 0 0)
(9.77585e-06 0 0)
(9.7702e-06 0 0)
(9.76452e-06 0 0)
(9.75881e-06 0 0)
(9.75307e-06 0 0)
(9.74731e-06 0 0)
(9.74154e-06 0 0)
(9.73575e-06 0 0)
(9.72994e-06 0 0)
(9.72412e-06 0 0)
(9.7183e-06 0 0)
(9.71247e-06 0 0)
(9.70663e-06 0 0)
(9.70079e-06 0 0)
(9.69494e-06 0 0)
(9.68909e-06 0 0)
(9.68324e-06 0 0)
(9.67739e-06 0 0)
(9.67153e-06 0 0)
(9.66568e-06 0 0)
(9.65982e-06 0 0)
(9.65396e-06 0 0)
(9.64809e-06 0 0)
(9.64222e-06 0 0)
(9.63635e-06 0 0)
(9.63048e-06 0 0)
(9.62459e-06 0 0)
(9.61871e-06 0 0)
(9.61282e-06 0 0)
(9.60692e-06 0 0)
(9.60102e-06 0 0)
(9.5951e-06 0 0)
(9.58918e-06 0 0)
(9.58326e-06 0 0)
(9.57732e-06 0 0)
(9.57138e-06 0 0)
(9.56542e-06 0 0)
(9.55946e-06 0 0)
(9.55349e-06 0 0)
(9.5475e-06 0 0)
(9.54151e-06 0 0)
(9.53551e-06 0 0)
(9.52949e-06 0 0)
(9.52347e-06 0 0)
(9.51743e-06 0 0)
(9.51139e-06 0 0)
(9.50533e-06 0 0)
(9.49926e-06 0 0)
(9.49318e-06 0 0)
(9.48709e-06 0 0)
(9.48099e-06 0 0)
(9.47487e-06 0 0)
(9.46875e-06 0 0)
(9.46261e-06 0 0)
(9.45646e-06 0 0)
(9.4503e-06 0 0)
(9.44412e-06 0 0)
(9.43794e-06 0 0)
(9.43174e-06 0 0)
(9.42553e-06 0 0)
(9.41931e-06 0 0)
(9.41308e-06 0 0)
(9.40683e-06 0 0)
(9.40057e-06 0 0)
(9.39431e-06 0 0)
(9.38803e-06 0 0)
(9.38174e-06 0 0)
(9.37543e-06 0 0)
(9.36912e-06 0 0)
(9.3628e-06 0 0)
(9.35646e-06 0 0)
(9.35012e-06 0 0)
(9.34376e-06 0 0)
(9.33739e-06 0 0)
(9.33102e-06 0 0)
(9.32463e-06 0 0)
(9.31823e-06 0 0)
(9.31182e-06 0 0)
(9.30541e-06 0 0)
(9.29898e-06 0 0)
(9.29255e-06 0 0)
(9.2861e-06 0 0)
(9.27965e-06 0 0)
(9.27318e-06 0 0)
(9.26671e-06 0 0)
(9.26023e-06 0 0)
(9.25373e-06 0 0)
(9.24723e-06 0 0)
(9.24072e-06 0 0)
(9.23419e-06 0 0)
(9.22765e-06 0 0)
(9.2211e-06 0 0)
(9.21454e-06 0 0)
(9.20796e-06 0 0)
(9.20136e-06 0 0)
(9.19474e-06 0 0)
(9.1881e-06 0 0)
(9.18144e-06 0 0)
(9.17475e-06 0 0)
(9.16804e-06 0 0)
(9.1613e-06 0 0)
(9.15453e-06 0 0)
(9.14772e-06 0 0)
(9.14088e-06 0 0)
(9.13401e-06 0 0)
(9.12709e-06 0 0)
(9.12014e-06 0 0)
(9.11315e-06 0 0)
(9.10613e-06 0 0)
(9.09906e-06 0 0)
(9.09195e-06 0 0)
(9.08481e-06 0 0)
(9.07763e-06 0 0)
(9.07042e-06 0 0)
(9.06317e-06 0 0)
(9.0559e-06 0 0)
(9.0486e-06 0 0)
(9.04128e-06 0 0)
(9.03395e-06 0 0)
(9.0266e-06 0 0)
(9.01924e-06 0 0)
(9.01189e-06 0 0)
(9.00453e-06 0 0)
(8.99719e-06 0 0)
(8.98985e-06 0 0)
(8.98254e-06 0 0)
(8.97526e-06 0 0)
(8.968e-06 0 0)
(8.96078e-06 0 0)
(8.9536e-06 0 0)
(8.94647e-06 0 0)
(8.93939e-06 0 0)
(8.93236e-06 0 0)
(8.92538e-06 0 0)
(8.91846e-06 0 0)
(8.9116e-06 0 0)
(8.9048e-06 0 0)
(8.89805e-06 0 0)
(8.89137e-06 0 0)
(8.88473e-06 0 0)
(8.87815e-06 0 0)
(8.87162e-06 0 0)
(8.86513e-06 0 0)
(8.85868e-06 0 0)
(8.85226e-06 0 0)
(8.84587e-06 0 0)
(8.8395e-06 0 0)
(8.83315e-06 0 0)
(8.82681e-06 0 0)
(8.82048e-06 0 0)
(8.81414e-06 0 0)
(8.80779e-06 0 0)
(8.80143e-06 0 0)
(8.79506e-06 0 0)
(8.78866e-06 0 0)
(8.78225e-06 0 0)
(8.7758e-06 0 0)
(8.76932e-06 0 0)
(8.76281e-06 0 0)
(8.75627e-06 0 0)
(8.7497e-06 0 0)
(8.74309e-06 0 0)
(8.73644e-06 0 0)
(8.72976e-06 0 0)
(8.72305e-06 0 0)
(8.7163e-06 0 0)
(8.70953e-06 0 0)
(8.70272e-06 0 0)
(8.69589e-06 0 0)
(8.68903e-06 0 0)
(8.68214e-06 0 0)
(8.67523e-06 0 0)
(8.6683e-06 0 0)
(8.66135e-06 0 0)
(8.65438e-06 0 0)
(8.64739e-06 0 0)
(8.64038e-06 0 0)
(8.63336e-06 0 0)
(8.62633e-06 0 0)
(8.61929e-06 0 0)
(8.61223e-06 0 0)
(8.60516e-06 0 0)
(8.59808e-06 0 0)
(8.59099e-06 0 0)
(8.58389e-06 0 0)
(8.57678e-06 0 0)
(8.56966e-06 0 0)
(8.56253e-06 0 0)
(8.55539e-06 0 0)
(8.54825e-06 0 0)
(8.54109e-06 0 0)
(8.53392e-06 0 0)
(8.52675e-06 0 0)
(8.51956e-06 0 0)
(8.51236e-06 0 0)
(8.50515e-06 0 0)
(8.49793e-06 0 0)
(8.4907e-06 0 0)
(8.48346e-06 0 0)
(8.47621e-06 0 0)
(8.46894e-06 0 0)
(8.46166e-06 0 0)
(8.45437e-06 0 0)
(8.44706e-06 0 0)
(8.43974e-06 0 0)
(8.43241e-06 0 0)
(8.42506e-06 0 0)
(8.4177e-06 0 0)
(8.41032e-06 0 0)
(8.40293e-06 0 0)
(8.39553e-06 0 0)
(8.3881e-06 0 0)
(8.38067e-06 0 0)
(8.37321e-06 0 0)
(8.36575e-06 0 0)
(8.35826e-06 0 0)
(8.35076e-06 0 0)
(8.34324e-06 0 0)
(8.33571e-06 0 0)
(8.32816e-06 0 0)
(8.32059e-06 0 0)
(8.31301e-06 0 0)
(8.30541e-06 0 0)
(8.29779e-06 0 0)
(8.29015e-06 0 0)
(8.2825e-06 0 0)
(8.27483e-06 0 0)
(8.26714e-06 0 0)
(8.25944e-06 0 0)
(8.25171e-06 0 0)
(8.24397e-06 0 0)
(8.23622e-06 0 0)
(8.22844e-06 0 0)
(8.22065e-06 0 0)
(8.21284e-06 0 0)
(8.20501e-06 0 0)
(8.19716e-06 0 0)
(8.1893e-06 0 0)
(8.18142e-06 0 0)
(8.17352e-06 0 0)
(8.1656e-06 0 0)
(8.15767e-06 0 0)
(8.14972e-06 0 0)
(8.14175e-06 0 0)
(8.13376e-06 0 0)
(8.12576e-06 0 0)
(8.11774e-06 0 0)
(8.1097e-06 0 0)
(8.10164e-06 0 0)
(8.09356e-06 0 0)
(8.08547e-06 0 0)
(8.07736e-06 0 0)
(8.06924e-06 0 0)
(8.06109e-06 0 0)
(8.05293e-06 0 0)
(8.04474e-06 0 0)
(8.03654e-06 0 0)
(8.02832e-06 0 0)
(8.02008e-06 0 0)
(8.01183e-06 0 0)
(8.00355e-06 0 0)
(7.99525e-06 0 0)
(7.98692e-06 0 0)
(7.97858e-06 0 0)
(7.97021e-06 0 0)
(7.96182e-06 0 0)
(7.95341e-06 0 0)
(7.94496e-06 0 0)
(7.93649e-06 0 0)
(7.928e-06 0 0)
(7.91947e-06 0 0)
(7.91092e-06 0 0)
(7.90233e-06 0 0)
(7.89371e-06 0 0)
(7.88506e-06 0 0)
(7.87638e-06 0 0)
(7.86766e-06 0 0)
(7.8589e-06 0 0)
(7.85011e-06 0 0)
(7.84129e-06 0 0)
(7.83243e-06 0 0)
(7.82353e-06 0 0)
(7.81459e-06 0 0)
(7.80563e-06 0 0)
(7.79662e-06 0 0)
(7.78758e-06 0 0)
(7.77851e-06 0 0)
(7.76941e-06 0 0)
(7.76027e-06 0 0)
(7.75111e-06 0 0)
(7.74192e-06 0 0)
(7.7327e-06 0 0)
(7.72346e-06 0 0)
(7.71419e-06 0 0)
(7.70491e-06 0 0)
(7.69561e-06 0 0)
(7.6863e-06 0 0)
(7.67697e-06 0 0)
(7.66764e-06 0 0)
(7.6583e-06 0 0)
(7.64896e-06 0 0)
(7.63961e-06 0 0)
(7.63027e-06 0 0)
(7.62093e-06 0 0)
(7.6116e-06 0 0)
(7.60228e-06 0 0)
(7.59297e-06 0 0)
(7.58367e-06 0 0)
(7.57438e-06 0 0)
(7.56511e-06 0 0)
(7.55585e-06 0 0)
(7.54661e-06 0 0)
(7.53739e-06 0 0)
(7.52818e-06 0 0)
(7.51899e-06 0 0)
(7.50981e-06 0 0)
(7.50064e-06 0 0)
(7.49149e-06 0 0)
(7.48234e-06 0 0)
(7.4732e-06 0 0)
(7.46407e-06 0 0)
(7.45494e-06 0 0)
(7.4458e-06 0 0)
(7.43666e-06 0 0)
(7.42752e-06 0 0)
(7.41836e-06 0 0)
(7.40919e-06 0 0)
(7.4e-06 0 0)
(7.39079e-06 0 0)
(7.38156e-06 0 0)
(7.3723e-06 0 0)
(7.36302e-06 0 0)
(7.3537e-06 0 0)
(7.34435e-06 0 0)
(7.33496e-06 0 0)
(7.32554e-06 0 0)
(7.31607e-06 0 0)
(7.30657e-06 0 0)
(7.29702e-06 0 0)
(7.28743e-06 0 0)
(7.2778e-06 0 0)
(7.26813e-06 0 0)
(7.25841e-06 0 0)
(7.24865e-06 0 0)
(7.23884e-06 0 0)
(7.22899e-06 0 0)
(7.2191e-06 0 0)
(7.20916e-06 0 0)
(7.19919e-06 0 0)
(7.18917e-06 0 0)
(7.1791e-06 0 0)
(7.169e-06 0 0)
(7.15886e-06 0 0)
(7.14868e-06 0 0)
(7.13846e-06 0 0)
(7.1282e-06 0 0)
(7.1179e-06 0 0)
(7.10757e-06 0 0)
(7.09719e-06 0 0)
(7.08678e-06 0 0)
(7.07634e-06 0 0)
(7.06586e-06 0 0)
(7.05535e-06 0 0)
(7.0448e-06 0 0)
(7.03421e-06 0 0)
(7.02359e-06 0 0)
(7.01294e-06 0 0)
(7.00225e-06 0 0)
(6.99153e-06 0 0)
(6.98078e-06 0 0)
(6.96999e-06 0 0)
(6.95917e-06 0 0)
(6.94832e-06 0 0)
(6.93744e-06 0 0)
(6.92653e-06 0 0)
(6.91558e-06 0 0)
(6.90461e-06 0 0)
(6.89361e-06 0 0)
(6.88259e-06 0 0)
(6.87153e-06 0 0)
(6.86046e-06 0 0)
(6.84936e-06 0 0)
(6.83824e-06 0 0)
(6.82711e-06 0 0)
(6.81596e-06 0 0)
(6.8048e-06 0 0)
(6.79363e-06 0 0)
(6.78246e-06 0 0)
(6.7713e-06 0 0)
(6.76015e-06 0 0)
(6.74901e-06 0 0)
(6.7379e-06 0 0)
(6.72682e-06 0 0)
(6.71578e-06 0 0)
(6.7048e-06 0 0)
(6.69389e-06 0 0)
(6.68306e-06 0 0)
(6.67234e-06 0 0)
(6.66172e-06 0 0)
(6.65124e-06 0 0)
(6.64091e-06 0 0)
(6.63076e-06 0 0)
(6.62082e-06 0 0)
(6.6111e-06 0 0)
(6.60162e-06 0 0)
(6.59242e-06 0 0)
(6.58352e-06 0 0)
(6.57494e-06 0 0)
(6.56671e-06 0 0)
(6.55885e-06 0 0)
(6.55139e-06 0 0)
(6.54433e-06 0 0)
(6.53768e-06 0 0)
(6.53147e-06 0 0)
(6.5257e-06 0 0)
(6.52037e-06 0 0)
(6.51548e-06 0 0)
(6.51102e-06 0 0)
(6.50697e-06 0 0)
(6.50333e-06 0 0)
(6.50007e-06 0 0)
(6.49719e-06 0 0)
(6.49464e-06 0 0)
(6.49241e-06 0 0)
(6.49047e-06 0 0)
(6.4888e-06 0 0)
(6.48735e-06 0 0)
(6.48612e-06 0 0)
(6.48509e-06 0 0)
(6.48421e-06 0 0)
(6.48347e-06 0 0)
(6.48285e-06 0 0)
(6.48232e-06 0 0)
(6.48186e-06 0 0)
(6.48146e-06 0 0)
(6.48109e-06 0 0)
(6.48069e-06 0 0)
(6.48019e-06 0 0)
(6.47949e-06 0 0)
(6.47839e-06 0 0)
(6.47654e-06 0 0)
(6.47334e-06 0 0)
(6.46768e-06 0 0)
(6.4576e-06 0 0)
(6.43967e-06 0 0)
(6.40783e-06 0 0)
(6.35185e-06 0 0)
(6.25508e-06 0 0)
(6.09269e-06 0 0)
(5.8333e-06 0 0)
(5.44971e-06 0 0)
(4.94213e-06 0 0)
(4.36084e-06 0 0)
(3.79763e-06 0 0)
(3.33749e-06 0 0)
(3.01472e-06 0 0)
(2.81369e-06 0 0)
(2.69825e-06 0 0)
(2.63519e-06 0 0)
(2.60169e-06 0 0)
(2.58416e-06 0 0)
(2.57505e-06 0 0)
(2.57031e-06 0 0)
(2.56784e-06 0 0)
(2.56653e-06 0 0)
(2.56582e-06 0 0)
(2.56541e-06 0 0)
(2.56516e-06 0 0)
(2.56498e-06 0 0)
(2.56484e-06 0 0)
(2.56472e-06 0 0)
(2.56461e-06 0 0)
(2.5645e-06 0 0)
(2.56439e-06 0 0)
(2.56428e-06 0 0)
(2.56417e-06 0 0)
(2.56405e-06 0 0)
(2.56393e-06 0 0)
(2.56381e-06 0 0)
(2.56369e-06 0 0)
(2.56357e-06 0 0)
(2.56344e-06 0 0)
(2.56331e-06 0 0)
(2.56319e-06 0 0)
(2.56306e-06 0 0)
(2.56294e-06 0 0)
(2.56281e-06 0 0)
(2.56269e-06 0 0)
(2.56257e-06 0 0)
(2.56246e-06 0 0)
(2.56234e-06 0 0)
(2.56223e-06 0 0)
(2.56213e-06 0 0)
(2.56202e-06 0 0)
(2.56193e-06 0 0)
(2.56184e-06 0 0)
(2.56175e-06 0 0)
(2.56167e-06 0 0)
(2.5616e-06 0 0)
(2.56154e-06 0 0)
(2.56148e-06 0 0)
(2.56143e-06 0 0)
(2.5614e-06 0 0)
(2.56136e-06 0 0)
(2.56134e-06 0 0)
(2.56133e-06 0 0)
(2.56132e-06 0 0)
(2.56132e-06 0 0)
(2.56132e-06 0 0)
(2.56133e-06 0 0)
(2.56135e-06 0 0)
)
;

boundaryField
{
    inlet
    {
        type            fixedValue;
        value           uniform (1.13622e-05 0 0);
    }
    outlet
    {
        type            zeroGradient;
    }
    emptyWalls
    {
        type            empty;
    }
}


// ************************************************************************* //
