/*--------------------------------*- C++ -*----------------------------------*\
  =========                 |
  \\      /  F ield         | OpenFOAM: The Open Source CFD Toolbox
   \\    /   O peration     | Website:  https://openfoam.org
    \\  /    A nd           | Version:  9
     \\/     M anipulation  |
\*---------------------------------------------------------------------------*/
FoamFile
{
    format      ascii;
    class       volScalarField;
    location    "10550";
    object      Fa;
}
// * * * * * * * * * * * * * * * * * * * * * * * * * * * * * * * * * * * * * //

dimensions      [0 0 0 0 0 0 0];

internalField   nonuniform List<scalar> 
1000
(
0.194787
0.194798
0.194718
0.194675
0.194581
0.1945
0.194429
0.194281
0.19432
0.194004
0.194238
0.193722
0.193744
0.191941
0.179211
0.155701
0.151818
0.150328
0.149481
0.148858
0.148379
0.147957
0.147616
0.147301
0.147039
0.146797
0.146587
0.146414
0.146223
0.146087
0.145911
0.145804
0.145648
0.145513
0.145393
0.145273
0.145168
0.145064
0.144978
0.144905
0.144863
0.144839
0.144815
0.14479
0.144766
0.144743
0.14472
0.144698
0.144677
0.144657
0.144638
0.144619
0.144602
0.144586
0.14457
0.144556
0.144542
0.144529
0.144517
0.144506
0.144496
0.144486
0.144475
0.144465
0.144455
0.144443
0.144431
0.144418
0.144403
0.144387
0.144371
0.144356
0.144343
0.144333
0.144327
0.144325
0.144325
0.144325
0.144325
0.144323
0.144323
0.144327
0.14434
0.144365
0.144408
0.144472
0.144558
0.144665
0.144792
0.144937
0.145097
0.145266
0.14544
0.145615
0.145785
0.145944
0.146086
0.146204
0.146291
0.146341
0.14635
0.146314
0.146232
0.146106
0.145938
0.145735
0.145504
0.145254
0.144994
0.144734
0.144481
0.144244
0.144028
0.143836
0.143672
0.143534
0.143423
0.143337
0.143272
0.143226
0.143195
0.143175
0.143164
0.143157
0.143152
0.143148
0.143141
0.143132
0.143119
0.143101
0.143078
0.143051
0.14302
0.142985
0.142946
0.142904
0.142859
0.142813
0.142765
0.142716
0.142666
0.142615
0.142565
0.142515
0.142464
0.142415
0.142365
0.142317
0.142269
0.142222
0.142175
0.142129
0.142084
0.14204
0.141996
0.141954
0.141911
0.14187
0.141829
0.141789
0.14175
0.141711
0.141673
0.141635
0.141598
0.141562
0.141526
0.14149
0.141455
0.141421
0.141387
0.141354
0.141321
0.141288
0.141256
0.141225
0.141194
0.141163
0.141133
0.141103
0.141074
0.141046
0.141017
0.14099
0.140963
0.140936
0.14091
0.140884
0.140859
0.140835
0.140811
0.140788
0.140765
0.140742
0.140721
0.140699
0.140679
0.140658
0.140639
0.140618
0.140599
0.140579
0.14056
0.14054
0.140522
0.140501
0.140483
0.140463
0.140445
0.140426
0.140407
0.140389
0.140372
0.140355
0.140338
0.140322
0.140307
0.140293
0.14028
0.140268
0.140258
0.14025
0.140245
0.140243
0.140245
0.140251
0.140262
0.140279
0.140303
0.140333
0.14037
0.140415
0.140468
0.140527
0.140594
0.140667
0.140746
0.14083
0.140918
0.141008
0.141099
0.14119
0.141277
0.14136
0.141437
0.141505
0.141562
0.141607
0.141638
0.141653
0.141652
0.141633
0.141595
0.14154
0.141467
0.141378
0.141273
0.141154
0.141024
0.140885
0.140739
0.140588
0.140436
0.140284
0.140135
0.13999
0.139852
0.139721
0.139599
0.139486
0.139382
0.139288
0.139203
0.139127
0.139059
0.138999
0.138946
0.138898
0.138856
0.138818
0.138783
0.138751
0.138721
0.138691
0.138662
0.138634
0.138604
0.138574
0.138543
0.138511
0.138477
0.138442
0.138406
0.138367
0.138328
0.138287
0.138245
0.138201
0.138157
0.138111
0.138065
0.138018
0.13797
0.137922
0.137873
0.137825
0.137776
0.137727
0.137678
0.137629
0.137581
0.137533
0.137485
0.137437
0.13739
0.137343
0.137297
0.137252
0.137207
0.137162
0.137119
0.137075
0.137033
0.136991
0.13695
0.136909
0.136869
0.136829
0.13679
0.136751
0.136713
0.136675
0.136637
0.1366
0.136564
0.136527
0.136491
0.136455
0.13642
0.136385
0.136349
0.136315
0.13628
0.136246
0.136212
0.136178
0.136144
0.136111
0.136078
0.136045
0.136013
0.13598
0.135948
0.135917
0.135885
0.135854
0.135823
0.135793
0.135763
0.135733
0.135703
0.135674
0.135645
0.135616
0.135588
0.13556
0.135532
0.135504
0.135476
0.135449
0.135422
0.135395
0.135369
0.135342
0.135316
0.135289
0.135263
0.135237
0.135212
0.135186
0.135161
0.135136
0.135111
0.135087
0.135062
0.135039
0.135016
0.134993
0.134971
0.13495
0.134931
0.134912
0.134894
0.134879
0.134865
0.134853
0.134844
0.134837
0.134834
0.134834
0.134838
0.134845
0.134858
0.134874
0.134897
0.134923
0.134956
0.134995
0.135036
0.135086
0.135138
0.135195
0.135257
0.13532
0.135384
0.135446
0.135501
0.135543
0.13556
0.13553
0.135428
0.135217
0.134871
0.134411
0.133934
0.13357
0.133365
0.133278
0.133254
0.133257
0.133268
0.133279
0.133287
0.133288
0.133282
0.133269
0.133249
0.133221
0.133186
0.133144
0.133096
0.133042
0.132983
0.13292
0.132852
0.132782
0.132709
0.132635
0.132561
0.132486
0.132413
0.13234
0.13227
0.132202
0.132137
0.132075
0.132016
0.131962
0.131911
0.131864
0.131821
0.131782
0.131747
0.131715
0.131686
0.131661
0.131638
0.131619
0.131601
0.131586
0.131572
0.13156
0.13155
0.13154
0.131532
0.131524
0.131516
0.131509
0.131502
0.131495
0.131487
0.13148
0.131472
0.131463
0.131455
0.131445
0.131436
0.131425
0.131415
0.131403
0.131392
0.13138
0.131367
0.131354
0.131341
0.131327
0.131313
0.131299
0.131285
0.131271
0.131256
0.131242
0.131227
0.131213
0.131199
0.131184
0.13117
0.131157
0.131143
0.13113
0.131117
0.131104
0.131092
0.13108
0.131068
0.131057
0.131046
0.131035
0.131025
0.131016
0.131006
0.130998
0.130989
0.130982
0.130974
0.130967
0.130961
0.130955
0.130949
0.130944
0.130939
0.130935
0.13093
0.130927
0.130924
0.130921
0.130918
0.130916
0.130914
0.130913
0.130912
0.130911
0.13091
0.13091
0.13091
0.13091
0.13091
0.130911
0.130913
0.130914
0.130916
0.130918
0.13092
0.130923
0.130925
0.130929
0.130932
0.130935
0.130939
0.130943
0.130947
0.130952
0.130956
0.130961
0.130966
0.130972
0.130977
0.130983
0.130989
0.130995
0.131002
0.131008
0.131015
0.131022
0.131029
0.131037
0.131045
0.131053
0.131061
0.131069
0.131078
0.131087
0.131096
0.131105
0.131115
0.131125
0.131136
0.131147
0.131158
0.13117
0.131182
0.131196
0.13121
0.131224
0.13124
0.131256
0.131274
0.131292
0.131312
0.131333
0.131355
0.131379
0.131405
0.131432
0.131461
0.131491
0.131524
0.131559
0.131595
0.131634
0.131674
0.131717
0.131762
0.131809
0.131858
0.131908
0.131961
0.132015
0.13207
0.132127
0.132185
0.132244
0.132303
0.132362
0.132421
0.13248
0.132538
0.132595
0.132651
0.132704
0.132755
0.132804
0.132849
0.13289
0.132928
0.132961
0.13299
0.133014
0.133032
0.133045
0.133052
0.133055
0.133055
0.133053
0.133046
0.133026
0.133
0.132968
0.132932
0.132892
0.132847
0.132798
0.132746
0.132692
0.132635
0.132576
0.132517
0.132457
0.132396
0.132336
0.132277
0.132219
0.132162
0.132107
0.132054
0.132004
0.131956
0.131911
0.131869
0.131829
0.131792
0.131758
0.131727
0.131698
0.131672
0.131648
0.131626
0.131606
0.131589
0.131572
0.131558
0.131545
0.131532
0.131521
0.131511
0.131501
0.131492
0.131484
0.131475
0.131467
0.131459
0.131451
0.131443
0.131435
0.131426
0.131418
0.131409
0.1314
0.13139
0.131381
0.131371
0.131361
0.13135
0.131339
0.131328
0.131317
0.131306
0.131294
0.131283
0.131271
0.131259
0.131247
0.131235
0.131223
0.131211
0.131199
0.131188
0.131176
0.131164
0.131153
0.131142
0.131131
0.13112
0.131109
0.131099
0.131089
0.131079
0.131069
0.13106
0.131051
0.131043
0.131035
0.131027
0.13102
0.131013
0.131006
0.131
0.130995
0.130989
0.130984
0.13098
0.130976
0.130972
0.130969
0.130966
0.130963
0.130961
0.130959
0.130958
0.130957
0.130956
0.130956
0.130956
0.130956
0.130956
0.130956
0.130957
0.130959
0.13096
0.130962
0.130964
0.130967
0.130969
0.130972
0.130975
0.130978
0.130982
0.130986
0.130989
0.130993
0.130998
0.131002
0.131007
0.131012
0.131017
0.131022
0.131028
0.131033
0.131039
0.131045
0.131051
0.131058
0.131065
0.131072
0.131079
0.131086
0.131094
0.131102
0.131111
0.13112
0.131129
0.131138
0.131148
0.131159
0.13117
0.131181
0.131193
0.131206
0.13122
0.131234
0.131249
0.131265
0.131281
0.131299
0.131318
0.131338
0.131359
0.131381
0.131405
0.131429
0.131456
0.131484
0.131513
0.131544
0.131576
0.13161
0.131645
0.131683
0.131721
0.131761
0.131803
0.131846
0.131891
0.131937
0.131984
0.132032
0.132081
0.132131
0.132181
0.132232
0.132283
0.132334
0.132384
0.132434
0.132484
0.132532
0.132579
0.132624
0.132667
0.132709
0.132747
0.132783
0.132816
0.132846
0.132873
0.132895
0.132914
0.132928
0.132939
0.132944
0.132946
0.132946
0.132946
0.132941
0.132925
0.132905
0.132882
0.132854
0.132823
0.132788
0.13275
0.13271
0.132667
0.132623
0.132576
0.132529
0.13248
0.132431
0.132382
0.132333
0.132285
0.132237
0.13219
0.132145
0.132101
0.132059
0.132018
0.131979
0.131943
0.131908
0.131875
0.131844
0.131816
0.131789
0.131764
0.13174
0.131719
0.131699
0.131681
0.131663
0.131647
0.131633
0.131619
0.131606
0.131593
0.131582
0.131571
0.13156
0.13155
0.13154
0.13153
0.13152
0.13151
0.1315
0.13149
0.13148
0.13147
0.131459
0.131449
0.131438
0.131427
0.131416
0.131404
0.131393
0.131381
0.131369
0.131357
0.131344
0.131332
0.131319
0.131306
0.131293
0.13128
0.131267
0.131254
0.131241
0.131228
0.131215
0.131202
0.131189
0.131176
0.131163
0.13115
0.131138
0.131126
0.131113
0.131101
0.13109
0.131078
0.131067
0.131056
0.131045
0.131035
0.131025
0.131015
0.131005
0.130996
0.130987
0.130979
0.130971
0.130964
0.130956
0.13095
0.130943
0.130937
0.130932
0.130927
0.130922
0.130918
0.130914
0.130911
0.130908
0.130906
0.130904
0.130902
0.130901
0.1309
0.1309
0.1309
0.1309
0.130901
0.130902
0.130903
0.130906
0.130907
0.130911
0.130912
0.130918
0.13092
0.130926
0.130929
0.130936
0.130939
0.130947
0.13095
0.130959
0.130962
0.130972
0.130976
0.130987
0.130991
0.131003
0.131007
0.131021
0.131025
0.13104
0.131045
0.131061
0.131066
0.131094
)
;

boundaryField
{
    inlet
    {
        type            calculated;
        value           uniform 0.194831;
    }
    outlet
    {
        type            calculated;
        value           uniform 0.131086;
    }
    emptyWalls
    {
        type            empty;
    }
}


// ************************************************************************* //
