/*--------------------------------*- C++ -*----------------------------------*\
  =========                 |
  \\      /  F ield         | OpenFOAM: The Open Source CFD Toolbox
   \\    /   O peration     | Website:  https://openfoam.org
    \\  /    A nd           | Version:  9
     \\/     M anipulation  |
\*---------------------------------------------------------------------------*/
FoamFile
{
    format      ascii;
    class       surfaceScalarField;
    location    "26050";
    object      phib;
}
// * * * * * * * * * * * * * * * * * * * * * * * * * * * * * * * * * * * * * //

dimensions      [0 2 0 0 0 0 0];

internalField   nonuniform List<scalar> 
999
(
1.13621e-09
1.13621e-09
1.13622e-09
1.13623e-09
1.13624e-09
1.13626e-09
1.13626e-09
1.13629e-09
1.1363e-09
1.13633e-09
1.13634e-09
1.13638e-09
1.13639e-09
1.13642e-09
1.13645e-09
1.13647e-09
1.13652e-09
1.13655e-09
1.1366e-09
1.13664e-09
1.13668e-09
1.13672e-09
1.13675e-09
1.13679e-09
1.13682e-09
1.13685e-09
1.13689e-09
1.1369e-09
1.13694e-09
1.13694e-09
1.13698e-09
1.13699e-09
1.13703e-09
1.13712e-09
1.13741e-09
1.13865e-09
1.14688e-09
1.17156e-09
1.17606e-09
1.17726e-09
1.17776e-09
1.178e-09
1.17817e-09
1.17836e-09
1.17853e-09
1.17851e-09
1.1782e-09
1.17761e-09
1.17689e-09
1.17625e-09
1.17584e-09
1.17569e-09
1.17576e-09
1.17593e-09
1.17612e-09
1.17653e-09
1.1773e-09
1.178e-09
1.17862e-09
1.17911e-09
1.17947e-09
1.17971e-09
1.17985e-09
1.17992e-09
1.17994e-09
1.1799e-09
1.17983e-09
1.1798e-09
1.17978e-09
1.17976e-09
1.17976e-09
1.17978e-09
1.1798e-09
1.17984e-09
1.17988e-09
1.17992e-09
1.17996e-09
1.18e-09
1.18003e-09
1.18006e-09
1.18009e-09
1.18011e-09
1.18012e-09
1.18013e-09
1.18014e-09
1.18014e-09
1.18013e-09
1.18012e-09
1.1801e-09
1.18007e-09
1.18004e-09
1.18e-09
1.17995e-09
1.17989e-09
1.17982e-09
1.17973e-09
1.17963e-09
1.17951e-09
1.17937e-09
1.17919e-09
1.17899e-09
1.17876e-09
1.1785e-09
1.17821e-09
1.17791e-09
1.1776e-09
1.17727e-09
1.17694e-09
1.1766e-09
1.17625e-09
1.17589e-09
1.17553e-09
1.17517e-09
1.1748e-09
1.17443e-09
1.17406e-09
1.17369e-09
1.17332e-09
1.17295e-09
1.17258e-09
1.1722e-09
1.17182e-09
1.17144e-09
1.17105e-09
1.17066e-09
1.17026e-09
1.16986e-09
1.16946e-09
1.16906e-09
1.16866e-09
1.16827e-09
1.16788e-09
1.16749e-09
1.1671e-09
1.16672e-09
1.16633e-09
1.16594e-09
1.16554e-09
1.16512e-09
1.16468e-09
1.16421e-09
1.16371e-09
1.16318e-09
1.16262e-09
1.16203e-09
1.16142e-09
1.16081e-09
1.16018e-09
1.15955e-09
1.15892e-09
1.15829e-09
1.15768e-09
1.15709e-09
1.15652e-09
1.15599e-09
1.15549e-09
1.15503e-09
1.15461e-09
1.15425e-09
1.15393e-09
1.15365e-09
1.15341e-09
1.15319e-09
1.153e-09
1.15282e-09
1.15265e-09
1.15247e-09
1.15229e-09
1.15208e-09
1.15186e-09
1.15162e-09
1.15135e-09
1.15106e-09
1.15074e-09
1.15041e-09
1.15005e-09
1.14968e-09
1.1493e-09
1.14891e-09
1.14851e-09
1.1481e-09
1.1477e-09
1.14729e-09
1.14688e-09
1.14647e-09
1.14607e-09
1.14567e-09
1.14527e-09
1.14487e-09
1.14447e-09
1.14408e-09
1.14369e-09
1.14331e-09
1.14292e-09
1.14253e-09
1.14215e-09
1.14176e-09
1.14138e-09
1.14099e-09
1.14061e-09
1.14022e-09
1.13983e-09
1.13945e-09
1.13906e-09
1.13867e-09
1.13828e-09
1.13789e-09
1.13749e-09
1.1371e-09
1.1367e-09
1.1363e-09
1.1359e-09
1.1355e-09
1.1351e-09
1.1347e-09
1.1343e-09
1.13389e-09
1.13348e-09
1.13307e-09
1.13266e-09
1.13225e-09
1.13184e-09
1.13143e-09
1.13101e-09
1.1306e-09
1.13018e-09
1.12976e-09
1.12934e-09
1.12891e-09
1.12849e-09
1.12806e-09
1.12763e-09
1.1272e-09
1.12677e-09
1.12634e-09
1.12591e-09
1.12548e-09
1.12505e-09
1.12461e-09
1.12418e-09
1.12374e-09
1.1233e-09
1.12286e-09
1.12243e-09
1.12198e-09
1.12154e-09
1.1211e-09
1.12065e-09
1.12021e-09
1.11976e-09
1.11931e-09
1.11886e-09
1.11842e-09
1.11797e-09
1.11752e-09
1.11708e-09
1.11663e-09
1.11619e-09
1.11574e-09
1.11529e-09
1.11483e-09
1.11437e-09
1.1139e-09
1.11342e-09
1.11293e-09
1.11243e-09
1.11192e-09
1.11139e-09
1.11085e-09
1.1103e-09
1.10974e-09
1.10917e-09
1.10858e-09
1.10799e-09
1.10739e-09
1.10679e-09
1.10619e-09
1.10559e-09
1.105e-09
1.10441e-09
1.10383e-09
1.10326e-09
1.10271e-09
1.10218e-09
1.10167e-09
1.10118e-09
1.10072e-09
1.10028e-09
1.09986e-09
1.09946e-09
1.09908e-09
1.09872e-09
1.09838e-09
1.09805e-09
1.09773e-09
1.09741e-09
1.0971e-09
1.09679e-09
1.09647e-09
1.09616e-09
1.09583e-09
1.09549e-09
1.09515e-09
1.09479e-09
1.09443e-09
1.09405e-09
1.09367e-09
1.09327e-09
1.09287e-09
1.09245e-09
1.09203e-09
1.09161e-09
1.09118e-09
1.09074e-09
1.09031e-09
1.08987e-09
1.08943e-09
1.08898e-09
1.08854e-09
1.0881e-09
1.08765e-09
1.08721e-09
1.08677e-09
1.08633e-09
1.08589e-09
1.08545e-09
1.08501e-09
1.08458e-09
1.08414e-09
1.0837e-09
1.08327e-09
1.08283e-09
1.0824e-09
1.08196e-09
1.08153e-09
1.08109e-09
1.08065e-09
1.08022e-09
1.07978e-09
1.07934e-09
1.0789e-09
1.07846e-09
1.07802e-09
1.07758e-09
1.07714e-09
1.07669e-09
1.07625e-09
1.0758e-09
1.07536e-09
1.07491e-09
1.07446e-09
1.07401e-09
1.07356e-09
1.07311e-09
1.07265e-09
1.0722e-09
1.07174e-09
1.07129e-09
1.07083e-09
1.07037e-09
1.06991e-09
1.06945e-09
1.06899e-09
1.06852e-09
1.06806e-09
1.06759e-09
1.06713e-09
1.06666e-09
1.06619e-09
1.06572e-09
1.06525e-09
1.06477e-09
1.0643e-09
1.06383e-09
1.06335e-09
1.06288e-09
1.0624e-09
1.06192e-09
1.06144e-09
1.06096e-09
1.06048e-09
1.06e-09
1.05952e-09
1.05904e-09
1.05855e-09
1.05807e-09
1.05758e-09
1.0571e-09
1.05661e-09
1.05612e-09
1.05563e-09
1.05515e-09
1.05466e-09
1.05417e-09
1.05368e-09
1.05319e-09
1.05269e-09
1.0522e-09
1.0517e-09
1.0512e-09
1.0507e-09
1.05019e-09
1.04967e-09
1.04915e-09
1.04863e-09
1.04809e-09
1.04755e-09
1.04701e-09
1.04645e-09
1.04589e-09
1.04533e-09
1.04476e-09
1.04418e-09
1.04359e-09
1.043e-09
1.04241e-09
1.04182e-09
1.04122e-09
1.04062e-09
1.04003e-09
1.03943e-09
1.03885e-09
1.03826e-09
1.03768e-09
1.03712e-09
1.03656e-09
1.03601e-09
1.03547e-09
1.03494e-09
1.03443e-09
1.03393e-09
1.03344e-09
1.03297e-09
1.0325e-09
1.03205e-09
1.03161e-09
1.03118e-09
1.03076e-09
1.03035e-09
1.02994e-09
1.02953e-09
1.02913e-09
1.02872e-09
1.02832e-09
1.02792e-09
1.02751e-09
1.0271e-09
1.02669e-09
1.02627e-09
1.02585e-09
1.02542e-09
1.02498e-09
1.02454e-09
1.0241e-09
1.02365e-09
1.02319e-09
1.02273e-09
1.02226e-09
1.02179e-09
1.02132e-09
1.02085e-09
1.02037e-09
1.01989e-09
1.0194e-09
1.01892e-09
1.01844e-09
1.01795e-09
1.01746e-09
1.01698e-09
1.01649e-09
1.016e-09
1.01551e-09
1.01502e-09
1.01454e-09
1.01405e-09
1.01356e-09
1.01307e-09
1.01259e-09
1.0121e-09
1.01161e-09
1.01112e-09
1.01064e-09
1.01015e-09
1.00966e-09
1.00917e-09
1.00868e-09
1.00819e-09
1.0077e-09
1.00721e-09
1.00672e-09
1.00622e-09
1.00573e-09
1.00524e-09
1.00474e-09
1.00425e-09
1.00375e-09
1.00325e-09
1.00275e-09
1.00225e-09
1.00175e-09
1.00125e-09
1.00075e-09
1.00025e-09
9.99742e-10
9.99236e-10
9.9873e-10
9.98222e-10
9.97714e-10
9.97204e-10
9.96693e-10
9.96182e-10
9.95669e-10
9.95155e-10
9.9464e-10
9.94124e-10
9.93607e-10
9.9309e-10
9.92571e-10
9.92051e-10
9.9153e-10
9.91008e-10
9.90485e-10
9.89961e-10
9.89437e-10
9.88911e-10
9.88385e-10
9.87857e-10
9.87329e-10
9.868e-10
9.8627e-10
9.85739e-10
9.85208e-10
9.84675e-10
9.84142e-10
9.83608e-10
9.83074e-10
9.82538e-10
9.82002e-10
9.81466e-10
9.80928e-10
9.8039e-10
9.79851e-10
9.79311e-10
9.7877e-10
9.78229e-10
9.77686e-10
9.77141e-10
9.76595e-10
9.76048e-10
9.75498e-10
9.74946e-10
9.74392e-10
9.73834e-10
9.73274e-10
9.72711e-10
9.72143e-10
9.71573e-10
9.70998e-10
9.70419e-10
9.69836e-10
9.69249e-10
9.68657e-10
9.68061e-10
9.67461e-10
9.66857e-10
9.66249e-10
9.65638e-10
9.65023e-10
9.64406e-10
9.63787e-10
9.63166e-10
9.62544e-10
9.61922e-10
9.613e-10
9.60679e-10
9.60059e-10
9.59442e-10
9.58827e-10
9.58217e-10
9.57611e-10
9.5701e-10
9.56415e-10
9.55825e-10
9.55243e-10
9.54667e-10
9.54099e-10
9.53538e-10
9.52985e-10
9.52439e-10
9.51901e-10
9.51369e-10
9.50845e-10
9.50326e-10
9.49813e-10
9.49306e-10
9.48802e-10
9.48303e-10
9.47806e-10
9.47312e-10
9.46819e-10
9.46327e-10
9.45835e-10
9.45342e-10
9.44848e-10
9.44352e-10
9.43855e-10
9.43354e-10
9.42851e-10
9.42344e-10
9.41835e-10
9.41322e-10
9.40805e-10
9.40285e-10
9.39761e-10
9.39235e-10
9.38705e-10
9.38171e-10
9.37635e-10
9.37097e-10
9.36556e-10
9.36012e-10
9.35467e-10
9.34919e-10
9.3437e-10
9.3382e-10
9.33268e-10
9.32715e-10
9.32161e-10
9.31606e-10
9.3105e-10
9.30494e-10
9.29937e-10
9.29379e-10
9.28821e-10
9.28263e-10
9.27703e-10
9.27144e-10
9.26584e-10
9.26024e-10
9.25463e-10
9.24902e-10
9.2434e-10
9.23778e-10
9.23215e-10
9.22652e-10
9.22088e-10
9.21524e-10
9.20959e-10
9.20393e-10
9.19826e-10
9.19259e-10
9.18691e-10
9.18122e-10
9.17552e-10
9.16981e-10
9.16409e-10
9.15837e-10
9.15263e-10
9.14689e-10
9.14113e-10
9.13537e-10
9.12959e-10
9.12381e-10
9.11801e-10
9.1122e-10
9.10639e-10
9.10056e-10
9.09472e-10
9.08887e-10
9.083e-10
9.07713e-10
9.07125e-10
9.06535e-10
9.05944e-10
9.05353e-10
9.0476e-10
9.04166e-10
9.0357e-10
9.02974e-10
9.02377e-10
9.01778e-10
9.01179e-10
9.00578e-10
8.99977e-10
8.99374e-10
8.9877e-10
8.98165e-10
8.97559e-10
8.96952e-10
8.96344e-10
8.95735e-10
8.95125e-10
8.94514e-10
8.93902e-10
8.93289e-10
8.92675e-10
8.9206e-10
8.91444e-10
8.90827e-10
8.9021e-10
8.89591e-10
8.88971e-10
8.8835e-10
8.87728e-10
8.87105e-10
8.86481e-10
8.85855e-10
8.85228e-10
8.846e-10
8.8397e-10
8.83339e-10
8.82705e-10
8.82071e-10
8.81434e-10
8.80795e-10
8.80153e-10
8.7951e-10
8.78864e-10
8.78215e-10
8.77563e-10
8.76909e-10
8.76252e-10
8.75592e-10
8.74928e-10
8.74262e-10
8.73593e-10
8.7292e-10
8.72244e-10
8.71566e-10
8.70885e-10
8.702e-10
8.69514e-10
8.68825e-10
8.68133e-10
8.6744e-10
8.66745e-10
8.66049e-10
8.65352e-10
8.64654e-10
8.63955e-10
8.63257e-10
8.62559e-10
8.61862e-10
8.61166e-10
8.60472e-10
8.59779e-10
8.59089e-10
8.58401e-10
8.57716e-10
8.57034e-10
8.56356e-10
8.55682e-10
8.55011e-10
8.54344e-10
8.53681e-10
8.53023e-10
8.52368e-10
8.51718e-10
8.51071e-10
8.50428e-10
8.49789e-10
8.49153e-10
8.48519e-10
8.47889e-10
8.47261e-10
8.46634e-10
8.4601e-10
8.45386e-10
8.44763e-10
8.44141e-10
8.43518e-10
8.42895e-10
8.42271e-10
8.41646e-10
8.4102e-10
8.40392e-10
8.39762e-10
8.3913e-10
8.38495e-10
8.37859e-10
8.37219e-10
8.36578e-10
8.35933e-10
8.35286e-10
8.34636e-10
8.33983e-10
8.33328e-10
8.3267e-10
8.3201e-10
8.31347e-10
8.30682e-10
8.30015e-10
8.29345e-10
8.28674e-10
8.28e-10
8.27325e-10
8.26648e-10
8.25969e-10
8.25289e-10
8.24607e-10
8.23924e-10
8.2324e-10
8.22554e-10
8.21867e-10
8.21178e-10
8.20489e-10
8.19798e-10
8.19106e-10
8.18413e-10
8.17719e-10
8.17023e-10
8.16327e-10
8.15629e-10
8.1493e-10
8.1423e-10
8.13529e-10
8.12826e-10
8.12123e-10
8.11418e-10
8.10712e-10
8.10004e-10
8.09295e-10
8.08585e-10
8.07873e-10
8.0716e-10
8.06446e-10
8.05729e-10
8.05012e-10
8.04293e-10
8.03573e-10
8.0285e-10
8.02127e-10
8.01401e-10
8.00675e-10
7.99946e-10
7.99216e-10
7.98484e-10
7.97751e-10
7.97015e-10
7.96279e-10
7.9554e-10
7.948e-10
7.94058e-10
7.93314e-10
7.92568e-10
7.91821e-10
7.91072e-10
7.90321e-10
7.89568e-10
7.88814e-10
7.88057e-10
7.87299e-10
7.86539e-10
7.85777e-10
7.85014e-10
7.84248e-10
7.83482e-10
7.82712e-10
7.81942e-10
7.81168e-10
7.80394e-10
7.79617e-10
7.7884e-10
7.78059e-10
7.77278e-10
7.76493e-10
7.75708e-10
7.7492e-10
7.74131e-10
7.7334e-10
7.72547e-10
7.71752e-10
7.70955e-10
7.70156e-10
7.69355e-10
7.68552e-10
7.67747e-10
7.6694e-10
7.66131e-10
7.6532e-10
7.64507e-10
7.63691e-10
7.62873e-10
7.62053e-10
7.6123e-10
7.60405e-10
7.59578e-10
7.58747e-10
7.57914e-10
7.57079e-10
7.5624e-10
7.55399e-10
7.54554e-10
7.53707e-10
7.52856e-10
7.52002e-10
7.51145e-10
7.50284e-10
7.4942e-10
7.48553e-10
7.47683e-10
7.46809e-10
7.45931e-10
7.45051e-10
7.44167e-10
7.4328e-10
7.42389e-10
7.41495e-10
7.40598e-10
7.39699e-10
7.38795e-10
7.3789e-10
7.36981e-10
7.36071e-10
7.35158e-10
7.34243e-10
7.33325e-10
7.32406e-10
7.31485e-10
7.30563e-10
7.29639e-10
7.28714e-10
7.27788e-10
7.26862e-10
7.25934e-10
7.25007e-10
7.24079e-10
7.23151e-10
7.22223e-10
7.21296e-10
7.20368e-10
7.19441e-10
7.18513e-10
7.17587e-10
7.1666e-10
7.15735e-10
7.14809e-10
7.13885e-10
7.12959e-10
7.12036e-10
7.1111e-10
7.10187e-10
7.09261e-10
7.08336e-10
7.0741e-10
7.06483e-10
7.05556e-10
7.04627e-10
7.03696e-10
7.02765e-10
7.01831e-10
7.00896e-10
6.99957e-10
6.99017e-10
6.98073e-10
6.97128e-10
6.96179e-10
6.95228e-10
6.94272e-10
6.93315e-10
6.92353e-10
6.91388e-10
6.9042e-10
6.89449e-10
6.88475e-10
6.87497e-10
6.86516e-10
6.85532e-10
6.84545e-10
6.83556e-10
6.82563e-10
6.8157e-10
6.80572e-10
6.79576e-10
6.78573e-10
6.77576e-10
6.76572e-10
6.75575e-10
6.74569e-10
6.73576e-10
6.72571e-10
6.71583e-10
6.70583e-10
6.69603e-10
6.68613e-10
6.67644e-10
6.66668e-10
6.65716e-10
6.64759e-10
6.6383e-10
6.62897e-10
6.61998e-10
6.61099e-10
6.60235e-10
6.59376e-10
6.58556e-10
6.57748e-10
6.56981e-10
6.56229e-10
)
;

boundaryField
{
    inlet
    {
        type            calculated;
        value           uniform -1.13622e-09;
    }
    outlet
    {
        type            calculated;
        value           uniform 7.4472e-10;
    }
    emptyWalls
    {
        type            empty;
        value           nonuniform List<scalar> 0();
    }
}


// ************************************************************************* //
