/*--------------------------------*- C++ -*----------------------------------*\
  =========                 |
  \\      /  F ield         | OpenFOAM: The Open Source CFD Toolbox
   \\    /   O peration     | Website:  https://openfoam.org
    \\  /    A nd           | Version:  9
     \\/     M anipulation  |
\*---------------------------------------------------------------------------*/
FoamFile
{
    format      ascii;
    class       volScalarField;
    location    "11200";
    object      Fb;
}
// * * * * * * * * * * * * * * * * * * * * * * * * * * * * * * * * * * * * * //

dimensions      [0 0 0 0 0 0 0];

internalField   nonuniform List<scalar> 
1000
(
0.805155
0.805199
0.805181
0.805242
0.805264
0.805334
0.805383
0.805441
0.805494
0.805522
0.805628
0.805536
0.805842
0.80575
0.806888
0.816058
0.83116
0.833602
0.834491
0.835
0.835347
0.835613
0.835832
0.836006
0.836161
0.836278
0.836388
0.836476
0.836535
0.836599
0.836643
0.836674
0.836701
0.836695
0.836704
0.83668
0.836646
0.836585
0.836506
0.836388
0.836229
0.835995
0.835683
0.835271
0.834798
0.834287
0.833747
0.833188
0.832612
0.832025
0.831428
0.830822
0.830209
0.829589
0.828965
0.828335
0.827702
0.827066
0.826428
0.825787
0.825144
0.824499
0.823852
0.823202
0.822548
0.821888
0.821221
0.820548
0.819869
0.819187
0.818503
0.81782
0.817135
0.816446
0.815747
0.815033
0.814297
0.813537
0.81275
0.811938
0.811102
0.810248
0.809379
0.8085
0.807617
0.806734
0.805858
0.804995
0.804151
0.803333
0.802549
0.801804
0.801102
0.800447
0.799837
0.79927
0.79874
0.79824
0.79776
0.79729
0.796822
0.796344
0.79585
0.795333
0.794789
0.794216
0.793613
0.792982
0.792324
0.791643
0.790943
0.790226
0.789497
0.78876
0.788018
0.787273
0.786527
0.785783
0.785041
0.784302
0.783566
0.782835
0.782106
0.781381
0.780658
0.779937
0.779217
0.778499
0.77778
0.777062
0.776344
0.775624
0.774903
0.774181
0.773458
0.772732
0.772005
0.771275
0.770544
0.76981
0.769074
0.768336
0.767596
0.766854
0.766111
0.765365
0.764617
0.763868
0.763117
0.762364
0.76161
0.760854
0.760096
0.759337
0.758577
0.757814
0.757051
0.756285
0.755518
0.75475
0.753979
0.753207
0.752434
0.751658
0.750881
0.750102
0.749321
0.748539
0.747754
0.746968
0.74618
0.74539
0.744598
0.743805
0.743009
0.742212
0.741413
0.740612
0.739809
0.739004
0.738198
0.73739
0.73658
0.735768
0.734955
0.734139
0.733323
0.732505
0.731685
0.730864
0.730042
0.729218
0.728394
0.727568
0.726741
0.725912
0.725082
0.724251
0.723418
0.722583
0.721746
0.720908
0.720068
0.719227
0.718383
0.717538
0.71669
0.71584
0.714987
0.714131
0.713271
0.712407
0.711537
0.710663
0.709781
0.708894
0.707998
0.707095
0.706184
0.705264
0.704337
0.703401
0.702458
0.701507
0.700551
0.69959
0.698625
0.697657
0.696689
0.695721
0.694756
0.693796
0.692842
0.691897
0.690961
0.690037
0.689126
0.688228
0.687345
0.686477
0.685623
0.684783
0.683956
0.68314
0.682334
0.681535
0.680742
0.679951
0.679161
0.67837
0.677574
0.676774
0.675965
0.675149
0.674323
0.673487
0.67264
0.671783
0.670916
0.670039
0.669152
0.668257
0.667353
0.666443
0.665525
0.664603
0.663675
0.662744
0.661808
0.660871
0.65993
0.658989
0.658043
0.6571
0.656151
0.655207
0.654256
0.653309
0.652356
0.651408
0.650453
0.649501
0.648545
0.64759
0.646631
0.645672
0.644711
0.643747
0.642782
0.641814
0.640845
0.639872
0.638897
0.63792
0.636939
0.635957
0.634971
0.633983
0.632991
0.631997
0.631
0.63
0.628997
0.62799
0.626981
0.625969
0.624953
0.623935
0.622913
0.621888
0.62086
0.619829
0.618794
0.617757
0.616716
0.615671
0.614624
0.613573
0.612519
0.611461
0.6104
0.609335
0.608268
0.607196
0.606121
0.605043
0.603961
0.602875
0.601786
0.600693
0.599596
0.598495
0.597391
0.596283
0.595171
0.594055
0.592935
0.591811
0.590683
0.589551
0.588415
0.587274
0.58613
0.584981
0.583828
0.58267
0.581508
0.580341
0.579171
0.577995
0.576815
0.575631
0.574442
0.573248
0.572049
0.570846
0.569638
0.568426
0.567208
0.565985
0.564757
0.563524
0.562286
0.561042
0.559793
0.558538
0.557278
0.556012
0.554741
0.553463
0.55218
0.55089
0.549593
0.54829
0.54698
0.545663
0.544339
0.543007
0.541668
0.540321
0.538965
0.537601
0.536228
0.534846
0.533455
0.532055
0.530645
0.529226
0.527797
0.526357
0.524908
0.523449
0.52198
0.520501
0.519013
0.517515
0.516008
0.514491
0.512966
0.511433
0.509891
0.508342
0.506787
0.505225
0.503656
0.502083
0.500504
0.498921
0.497336
0.495747
0.494157
0.492567
0.490975
0.489386
0.487798
0.486216
0.48464
0.483072
0.481516
0.479973
0.478449
0.476946
0.475472
0.47403
0.472628
0.471271
0.469967
0.468722
0.467543
0.466438
0.46541
0.464465
0.463603
0.462827
0.462135
0.461522
0.460979
0.460492
0.460036
0.459572
0.459038
0.458323
0.457239
0.455455
0.452404
0.447134
0.438124
0.423184
0.399779
0.366384
0.324882
0.281766
0.244939
0.218587
0.202086
0.192615
0.187451
0.184714
0.183286
0.182547
0.182167
0.181972
0.181872
0.181822
0.181797
0.181786
0.181781
0.181779
0.18178
0.181781
0.181783
0.181786
0.181788
0.181791
0.181794
0.181797
0.1818
0.181802
0.181805
0.181808
0.181811
0.181814
0.181817
0.18182
0.181823
0.181826
0.181828
0.181831
0.181834
0.181836
0.181839
0.181841
0.181843
0.181846
0.181848
0.18185
0.181852
0.181854
0.181855
0.181857
0.181859
0.18186
0.181862
0.181863
0.181864
0.181865
0.181866
0.181867
0.181868
0.181869
0.181869
0.18187
0.18187
0.181871
0.181871
0.181871
0.181871
0.181871
0.181871
0.181871
0.181871
0.18187
0.18187
0.18187
0.181869
0.181869
0.181868
0.181867
0.181867
0.181866
0.181865
0.181864
0.181863
0.181862
0.181861
0.18186
0.181859
0.181858
0.181857
0.181855
0.181854
0.181853
0.181851
0.18185
0.181848
0.181847
0.181845
0.181844
0.181842
0.18184
0.181839
0.181837
0.181835
0.181833
0.181831
0.18183
0.181828
0.181826
0.181824
0.181822
0.181819
0.181817
0.181815
0.181813
0.181811
0.181808
0.181806
0.181803
0.1818
0.181797
0.181794
0.181791
0.181787
0.181784
0.18178
0.181776
0.181771
0.181767
0.181762
0.181756
0.181751
0.181745
0.181738
0.181731
0.181724
0.181716
0.181708
0.1817
0.18169
0.181681
0.181671
0.18166
0.18165
0.181638
0.181627
0.181615
0.181603
0.18159
0.181578
0.181565
0.181552
0.181539
0.181526
0.181514
0.181501
0.181489
0.181477
0.181466
0.181455
0.181445
0.181436
0.181428
0.18142
0.181414
0.181408
0.181404
0.181401
0.181399
0.181398
0.181398
0.181399
0.181399
0.181403
0.181409
0.181415
0.181422
0.181431
0.18144
0.18145
0.181461
0.181473
0.181485
0.181497
0.18151
0.181522
0.181535
0.181548
0.181561
0.181573
0.181586
0.181597
0.181609
0.18162
0.18163
0.18164
0.181649
0.181658
0.181666
0.181674
0.181681
0.181687
0.181693
0.181699
0.181704
0.181708
0.181712
0.181716
0.18172
0.181723
0.181726
0.181729
0.181731
0.181733
0.181736
0.181738
0.18174
0.181742
0.181744
0.181746
0.181748
0.181751
0.181753
0.181755
0.181757
0.181759
0.181761
0.181764
0.181766
0.181769
0.181771
0.181774
0.181777
0.18178
0.181783
0.181786
0.181789
0.181792
0.181795
0.181798
0.181802
0.181805
0.181808
0.181811
0.181814
0.181818
0.181821
0.181824
0.181826
0.181829
0.181832
0.181834
0.181837
0.181839
0.181841
0.181844
0.181846
0.181847
0.181849
0.181851
0.181852
0.181854
0.181855
0.181856
0.181858
0.181859
0.18186
0.181861
0.181861
0.181862
0.181863
0.181863
0.181864
0.181864
0.181864
0.181865
0.181865
0.181865
0.181865
0.181865
0.181865
0.181865
0.181865
0.181864
0.181864
0.181864
0.181863
0.181863
0.181862
0.181862
0.181861
0.18186
0.18186
0.181859
0.181858
0.181857
0.181856
0.181855
0.181854
0.181853
0.181852
0.181851
0.181849
0.181848
0.181847
0.181845
0.181844
0.181843
0.181841
0.18184
0.181838
0.181836
0.181835
0.181833
0.181831
0.181829
0.181827
0.181825
0.181823
0.181821
0.181818
0.181816
0.181814
0.181811
0.181808
0.181805
0.181802
0.181799
0.181796
0.181793
0.181789
0.181785
0.181781
0.181776
0.181772
0.181767
0.181762
0.181756
0.181751
0.181745
0.181738
0.181732
0.181725
0.181717
0.18171
0.181702
0.181693
0.181684
0.181675
0.181666
0.181656
0.181646
0.181636
0.181626
0.181615
0.181605
0.181594
0.181583
0.181572
0.181561
0.181551
0.18154
0.18153
0.181519
0.181509
0.1815
0.181491
0.181482
0.181474
0.181467
0.18146
0.181454
0.181449
0.181445
0.181441
0.181439
0.181437
0.181436
0.181436
0.181436
0.181437
0.181439
0.181443
0.181448
0.181454
0.18146
0.181467
0.181475
0.181484
0.181493
0.181503
0.181512
0.181523
0.181533
0.181544
0.181555
0.181565
0.181576
0.181587
0.181597
0.181607
0.181617
0.181627
0.181636
0.181644
0.181653
0.181661
0.181668
0.181675
0.181682
0.181688
0.181694
0.181699
0.181704
0.181709
0.181713
0.181717
0.181721
0.181724
0.181728
0.181731
0.181733
0.181736
0.181738
0.181741
0.181743
0.181745
0.181747
0.18175
0.181752
0.181754
0.181756
0.181758
0.18176
0.181762
0.181764
0.181767
0.181769
0.181771
0.181774
0.181776
0.181778
0.181781
0.181783
0.181786
0.181788
0.181791
0.181793
0.181796
0.181798
0.181801
0.181803
0.181806
0.181808
0.181811
0.181813
0.181815
0.181818
0.18182
0.181822
0.181824
0.181826
0.181828
0.18183
0.181832
0.181834
0.181836
0.181837
0.181839
0.18184
0.181842
0.181843
0.181844
0.181845
0.181847
0.181848
0.181848
0.181849
0.18185
0.181851
0.181851
0.181852
0.181852
0.181853
0.181853
0.181853
0.181853
0.181853
0.181853
0.181853
0.181853
0.181853
0.181853
0.181853
0.181853
0.181852
0.181852
0.181851
0.181851
0.18185
0.181849
0.181849
0.181848
0.181847
0.181846
0.181846
0.181845
0.181844
0.181843
0.181842
0.18184
0.18184
0.181838
0.181837
0.181835
0.181835
0.181833
0.181832
0.18183
0.181829
0.181826
0.181826
0.181823
0.181822
0.181819
0.181818
0.181815
0.181814
0.181811
0.18181
0.181805
0.181804
0.1818
0.181799
0.181794
0.181793
0.181787
0.181786
0.18178
0.181778
0.181771
0.181769
0.181762
0.18176
0.181752
0.181749
0.18174
0.181738
0.181728
0.181725
0.181711
)
;

boundaryField
{
    inlet
    {
        type            calculated;
        value           uniform 0.805169;
    }
    outlet
    {
        type            calculated;
        value           uniform 0.181713;
    }
    emptyWalls
    {
        type            empty;
    }
}


// ************************************************************************* //
