/*--------------------------------*- C++ -*----------------------------------*\
  =========                 |
  \\      /  F ield         | OpenFOAM: The Open Source CFD Toolbox
   \\    /   O peration     | Website:  https://openfoam.org
    \\  /    A nd           | Version:  9
     \\/     M anipulation  |
\*---------------------------------------------------------------------------*/
FoamFile
{
    format      ascii;
    class       volScalarField;
    location    "29250";
    object      Sa;
}
// * * * * * * * * * * * * * * * * * * * * * * * * * * * * * * * * * * * * * //

dimensions      [0 0 0 0 0 0 0];

internalField   nonuniform List<scalar> 
1000
(
0.549638
0.548929
0.547961
0.547028
0.546034
0.545109
0.544098
0.543167
0.542144
0.541186
0.540164
0.539166
0.538147
0.537119
0.536089
0.53505
0.534003
0.532959
0.531913
0.53087
0.529844
0.528815
0.527832
0.526834
0.525927
0.524987
0.524181
0.523344
0.522641
0.521943
0.521345
0.520788
0.520301
0.519862
0.519477
0.519125
0.518787
0.51834
0.517288
0.513585
0.498732
0.411883
0.157108
0.0868653
0.0692899
0.0619683
0.057793
0.0548889
0.0526189
0.0507192
0.0490683
0.0475967
0.0462663
0.0450477
0.0439244
0.0428808
0.0419085
0.0409976
0.0401435
0.0393391
0.0385816
0.0378655
0.0371896
0.0365484
0.0359417
0.0353653
0.0348179
0.034297
0.0338017
0.033329
0.0328786
0.0324477
0.0320367
0.0316424
0.031266
0.0309043
0.0305591
0.0302271
0.0299096
0.0296037
0.029311
0.0290275
0.0287558
0.0284916
0.0282387
0.0279925
0.0277542
0.0275249
0.0273048
0.0270936
0.0268912
0.0266971
0.0265107
0.0263316
0.0261591
0.0259933
0.0258339
0.0256811
0.0255353
0.0253967
0.0252659
0.0251432
0.0250288
0.0249229
0.0248255
0.0247359
0.0246569
0.0245892
0.0245291
0.0244746
0.024421
0.0243721
0.0243311
0.0242959
0.0242679
0.0242469
0.024228
0.0242065
0.0241798
0.0241485
0.0241117
0.024071
0.0240262
0.0239793
0.0239302
0.0238811
0.0238316
0.0237839
0.023737
0.0236929
0.0236502
0.0236105
0.0235724
0.0235371
0.0235029
0.0234711
0.0234399
0.0234106
0.0233811
0.0233531
0.0233244
0.0232969
0.0232683
0.0232407
0.0232118
0.0231839
0.0231547
0.0231265
0.0230969
0.0230685
0.0230389
0.0230104
0.0229808
0.0229524
0.0229229
0.0228948
0.0228656
0.0228377
0.0228088
0.0227813
0.0227527
0.0227255
0.0226974
0.0226706
0.0226428
0.0226164
0.0225891
0.022563
0.0225362
0.0225105
0.0224841
0.0224587
0.0224328
0.0224078
0.0223823
0.0223576
0.0223324
0.0223081
0.0222833
0.0222593
0.0222349
0.0222113
0.0221873
0.0221642
0.0221407
0.022118
0.0220948
0.0220726
0.0220498
0.0220279
0.0220054
0.0219838
0.0219614
0.0219401
0.0219179
0.021897
0.021875
0.0218545
0.0218328
0.0218128
0.0217915
0.0217719
0.021751
0.0217319
0.0217111
0.0216923
0.0216716
0.0216529
0.0216322
0.0216135
0.0215925
0.0215738
0.0215527
0.0215342
0.0215135
0.0214956
0.0214759
0.0214594
0.0214413
0.0214268
0.0214108
0.0213985
0.0213848
0.0213748
0.0213632
0.0213551
0.0213451
0.0213384
0.0213295
0.0213235
0.0213148
0.0213085
0.0212991
0.0212917
0.0212806
0.021271
0.0212574
0.0212448
0.0212278
0.0212117
0.0211911
0.0211715
0.0211476
0.0211249
0.0210982
0.0210733
0.0210449
0.0210188
0.0209898
0.0209637
0.0209351
0.0209098
0.0208825
0.0208587
0.020833
0.0208109
0.020787
0.0207667
0.0207444
0.0207257
0.0207049
0.0206874
0.0206676
0.020651
0.020632
0.0206159
0.0205973
0.0205816
0.0205631
0.0205475
0.020529
0.0205134
0.0204949
0.0204791
0.0204606
0.0204448
0.0204261
0.0204103
0.0203916
0.0203757
0.020357
0.0203412
0.0203226
0.0203068
0.0202882
0.0202726
0.0202541
0.0202386
0.0202203
0.0202049
0.0201868
0.0201716
0.0201537
0.0201387
0.020121
0.0201061
0.0200886
0.020074
0.0200566
0.0200422
0.020025
0.0200108
0.0199938
0.0199798
0.019963
0.0199491
0.0199326
0.0199189
0.0199026
0.0198891
0.019873
0.0198598
0.0198438
0.0198308
0.0198151
0.0198023
0.0197867
0.0197741
0.0197587
0.0197462
0.019731
0.0197187
0.0197036
0.0196915
0.0196766
0.0196646
0.0196499
0.0196381
0.0196236
0.019612
0.0195977
0.0195863
0.019572
0.0195607
0.0195466
0.0195354
0.0195214
0.0195102
0.0194961
0.019485
0.019471
0.01946
0.0194462
0.0194353
0.0194218
0.0194114
0.0193983
0.0193885
0.0193762
0.0193671
0.0193557
0.0193477
0.0193373
0.0193303
0.019321
0.0193152
0.019307
0.0193022
0.0192949
0.0192909
0.0192843
0.0192808
0.0192746
0.0192713
0.019265
0.0192614
0.0192547
0.0192504
0.0192426
0.0192372
0.0192281
0.0192211
0.0192103
0.0192016
0.0191889
0.0191782
0.0191637
0.0191511
0.0191348
0.0191207
0.0191029
0.0190875
0.0190688
0.0190526
0.0190333
0.0190168
0.0189974
0.018981
0.0189619
0.018946
0.0189275
0.0189123
0.0188946
0.0188802
0.0188634
0.0188499
0.0188338
0.0188211
0.0188058
0.0187938
0.0187792
0.0187677
0.0187535
0.0187425
0.0187287
0.0187179
0.0187043
0.0186937
0.0186803
0.0186698
0.0186564
0.0186459
0.0186325
0.0186221
0.0186087
0.0185982
0.0185848
0.0185743
0.0185608
0.0185504
0.0185369
0.0185264
0.018513
0.0185025
0.0184891
0.0184787
0.0184654
0.018455
0.0184417
0.0184315
0.0184183
0.0184081
0.018395
0.0183849
0.0183719
0.018362
0.0183491
0.0183392
0.0183264
0.0183167
0.018304
0.0182944
0.0182819
0.0182724
0.01826
0.0182506
0.0182384
0.0182291
0.018217
0.0182079
0.0181959
0.0181869
0.018175
0.0181662
0.0181544
0.0181457
0.0181341
0.0181255
0.0181139
0.0181055
0.0180941
0.0180857
0.0180744
0.0180662
0.018055
0.0180469
0.0180358
0.0180278
0.0180169
0.018009
0.0179981
0.0179903
0.0179796
0.0179719
0.0179612
0.0179536
0.0179429
0.0179354
0.0179248
0.0179173
0.0179069
0.0178995
0.0178891
0.0178818
0.0178715
0.0178644
0.0178544
0.0178475
0.0178377
0.0178312
0.0178218
0.0178157
0.0178067
0.0178011
0.0177927
0.0177877
0.0177799
0.0177755
0.0177684
0.0177646
0.0177581
0.0177549
0.0177489
0.0177462
0.0177407
0.0177384
0.0177332
0.0177311
0.017726
0.0177239
0.0177187
0.0177164
0.0177109
0.0177081
0.017702
0.0176986
0.0176918
0.0176875
0.0176797
0.0176745
0.0176656
0.0176592
0.0176492
0.0176417
0.0176306
0.017622
0.0176098
0.0176003
0.0175872
0.0175769
0.0175631
0.0175522
0.017538
0.0175268
0.0175124
0.017501
0.0174866
0.0174753
0.0174611
0.0174501
0.0174361
0.0174255
0.017412
0.0174018
0.0173887
0.017379
0.0173664
0.0173571
0.0173449
0.0173361
0.0173243
0.0173158
0.0173043
0.0172961
0.0172849
0.0172769
0.0172659
0.0172581
0.0172472
0.0172395
0.0172287
0.0172211
0.0172103
0.0172028
0.0171921
0.0171845
0.0171738
0.0171662
0.0171556
0.017148
0.0171373
0.0171298
0.0171191
0.0171116
0.0171009
0.0170934
0.0170828
0.0170753
0.0170647
0.0170573
0.0170467
0.0170393
0.0170288
0.0170215
0.017011
0.0170038
0.0169934
0.0169862
0.0169759
0.0169688
0.0169586
0.0169515
0.0169414
0.0169345
0.0169244
0.0169176
0.0169076
0.0169008
0.0168909
0.0168843
0.0168745
0.0168679
0.0168583
0.0168518
0.0168422
0.0168358
0.0168263
0.01682
0.0168106
0.0168044
0.0167951
0.016789
0.0167797
0.0167737
0.0167645
0.0167586
0.0167495
0.0167437
0.0167347
0.0167289
0.01672
0.0167143
0.0167055
0.0166999
0.0166911
0.0166855
0.0166768
0.0166713
0.0166627
0.0166573
0.0166487
0.0166433
0.0166348
0.0166295
0.0166211
0.0166159
0.0166075
0.0166025
0.0165943
0.0165893
0.0165813
0.0165765
0.0165687
0.0165642
0.0165566
0.0165523
0.0165451
0.0165411
0.0165342
0.0165306
0.016524
0.0165208
0.0165146
0.0165118
0.016506
0.0165036
0.0164982
0.0164961
0.016491
0.0164892
0.0164843
0.0164827
0.0164781
0.0164766
0.016472
0.0164706
0.016466
0.0164645
0.0164596
0.0164579
0.0164528
0.0164507
0.0164452
0.0164427
0.0164366
0.0164335
0.0164268
0.016423
0.0164157
0.0164112
0.0164031
0.0163978
0.016389
0.0163831
0.0163735
0.0163669
0.0163568
0.0163496
0.0163389
0.0163312
0.0163201
0.0163121
0.0163007
0.0162924
0.0162808
0.0162725
0.0162609
0.0162525
0.0162409
0.0162327
0.0162213
0.0162132
0.016202
0.0161942
0.0161833
0.0161757
0.016165
0.0161578
0.0161473
0.0161404
0.0161302
0.0161234
0.0161135
0.016107
0.0160973
0.0160909
0.0160814
0.0160752
0.0160658
0.0160597
0.0160504
0.0160445
0.0160352
0.0160294
0.0160202
0.0160144
0.0160052
0.0159994
0.0159903
0.0159846
0.0159755
0.0159697
0.0159606
0.0159549
0.0159459
0.0159402
0.0159311
0.0159254
0.0159164
0.0159107
0.0159017
0.0158961
0.0158872
0.0158816
0.0158726
0.0158671
0.0158582
0.0158527
0.0158439
0.0158384
0.0158296
0.0158242
0.0158155
0.0158102
0.0158015
0.0157962
0.0157876
0.0157824
0.0157739
0.0157687
0.0157603
0.0157552
0.0157468
0.0157418
0.0157334
0.0157285
0.0157202
0.0157154
0.0157072
0.0157024
0.0156942
0.0156895
0.0156814
0.0156768
0.0156688
0.0156642
0.0156562
0.0156517
0.0156438
0.0156393
0.0156315
0.0156271
0.0156193
0.015615
0.0156073
0.015603
0.0155953
0.0155911
0.0155835
0.0155793
0.0155717
0.0155676
0.0155601
0.015556
0.0155486
0.0155446
0.0155372
0.0155332
0.0155259
0.015522
0.0155148
0.0155111
0.0155039
0.0155003
0.0154933
0.0154898
0.0154829
0.0154796
0.0154729
0.0154697
0.0154633
0.0154603
0.0154541
0.0154513
0.0154453
0.0154428
0.0154371
0.0154348
0.0154293
0.0154273
0.0154221
0.0154203
0.0154153
0.0154138
0.015409
0.0154077
0.015403
0.0154018
0.0153973
0.0153961
0.0153916
0.0153905
0.015386
0.0153849
0.0153803
0.0153791
0.0153743
0.0153731
0.015368
0.0153666
0.015361
0.0153595
0.0153533
0.0153517
0.0153449
0.015343
0.0153355
0.0153334
0.0153251
0.0153229
0.0153138
0.0153114
0.0153015
0.0152989
0.0152882
0.0152853
0.0152738
0.0152707
0.0152588
0.0152556
0.0152434
0.0152399
0.0152275
0.0152238
0.0152113
0.0152075
0.0151949
0.015191
0.0151786
0.0151746
0.0151623
0.0151583
0.0151462
0.0151421
0.0151305
0.0151263
0.015115
0.0151108
0.0150999
0.0150956
0.0150851
0.0150807
0.0150707
0.0150662
0.0150565
0.015052
0.0150427
0.015038
0.0150291
0.0150243
0.0150157
0.0150108
0.0150025
0.0149975
0.0149894
0.0149843
0.0149764
0.0149713
0.0149634
0.0149583
0.0149506
0.0149454
0.0149377
0.0149326
0.0149249
0.0149198
0.0149122
0.014907
0.0148994
0.0148943
0.0148867
0.0148816
0.0148741
0.014869
0.0148615
0.0148564
0.0148489
0.0148439
0.0148364
0.0148314
0.0148239
0.014819
0.0148115
0.0148066
0.0147992
0.0147944
0.014787
0.0147822
0.0147749
0.0147701
0.0147628
0.0147581
0.0147508
0.0147462
0.0147389
0.0147344
0.0147271
0.0147227
0.0147155
0.0147111
0.0147039
0.0146995
0.0146924
0.0146881
0.014681
0.0146768
0.0146697
0.0146656
0.0146585
0.0146544
0.0146474
0.0146434
0.0146364
0.0146324
0.0146255
0.0146216
0.0146146
0.0146108
0.0146039
0.0146001
0.0145932
0.0145894
0.0145826
0.0145789
0.0145721
0.0145685
0.0145617
0.0145581
0.0145514
0.0145478
0.0145412
0.0145377
0.0145311
0.0145277
0.0145212
0.0145178
0.0145114
0.0145081
0.0145017
0.0144986
0.0144923
0.0144893
0.0144831
0.0144803
0.0144742
0.0144716
0.0144656
0.0144631
0.0144573
0.014455
0.0144493
0.0144473
0.0144416
0.0144398
0.0144343
0.0144327
0.0144273
0.014426
0.0144153
0.258743
)
;

boundaryField
{
    inlet
    {
        type            fixedValue;
        value           uniform 0.55;
    }
    outlet
    {
        type            zeroGradient;
    }
    emptyWalls
    {
        type            empty;
    }
}


// ************************************************************************* //
