/*--------------------------------*- C++ -*----------------------------------*\
  =========                 |
  \\      /  F ield         | OpenFOAM: The Open Source CFD Toolbox
   \\    /   O peration     | Website:  https://openfoam.org
    \\  /    A nd           | Version:  9
     \\/     M anipulation  |
\*---------------------------------------------------------------------------*/
FoamFile
{
    format      ascii;
    class       volScalarField;
    location    "68000";
    object      krc;
}
// * * * * * * * * * * * * * * * * * * * * * * * * * * * * * * * * * * * * * //

dimensions      [0 0 0 0 0 0 0];

internalField   nonuniform List<scalar> 
100
(
5.39082e-24
5.2886e-25
5.78023e-25
8.25363e-25
1.22289e-25
3.84972e-25
1.05045e-25
5.33609e-27
2.685e-25
1.4167e-25
3.99426e-25
1.06911e-27
1.65591e-25
4.16676e-25
3.95565e-25
4.06702e-25
3.3489e-25
3.93707e-26
4.85048e-25
6.49457e-25
1.29644e-25
5.19086e-25
1.70353e-25
4.48161e-25
3.37986e-25
5.93403e-25
2.58506e-25
7.17186e-25
2.40703e-25
8.12009e-25
1.40314e-25
3.64881e-25
1.28729e-24
1.059e-24
4.40835e-26
1.74534e-24
8.30792e-25
8.01573e-25
2.34352e-25
2.9773e-25
3.52283e-25
2.98329e-24
5.08824e-24
5.84727e-25
4.49897e-24
3.32074e-24
2.07578e-24
7.90688e-24
2.04356e-24
1.43544e-24
3.91576e-24
3.74795e-24
6.31819e-24
8.37101e-25
9.35203e-25
3.92882e-24
3.21667e-25
7.74284e-26
2.65393e-24
1.58453e-24
1.27893e-24
6.92015e-25
2.24575e-25
3.37713e-25
4.04686e-26
1.15986e-24
2.0529e-25
1.14318e-24
2.46671e-25
5.68996e-26
7.02635e-25
7.83959e-25
5.68039e-25
1.78141e-24
4.69046e-24
7.21078e-24
1.73147e-23
3.00801e-23
6.50641e-23
7.91086e-23
1.40568e-22
1.71409e-22
2.95727e-22
4.63372e-22
6.55228e-22
9.67579e-22
1.44075e-21
1.99911e-21
2.84342e-21
3.99627e-21
5.67872e-21
7.7195e-21
1.21118e-20
1.446e-20
3.9427e-21
6.30048e-20
5.8101e-18
2.4589e-17
6.29203e-16
4.11972e-15
)
;

boundaryField
{
    inlet
    {
        type            calculated;
        value           uniform 5.39082e-24;
    }
    outlet
    {
        type            calculated;
        value           uniform 4.11972e-15;
    }
    emptyWalls
    {
        type            empty;
    }
}


// ************************************************************************* //
