/*--------------------------------*- C++ -*----------------------------------*\
  =========                 |
  \\      /  F ield         | OpenFOAM: The Open Source CFD Toolbox
   \\    /   O peration     | Website:  https://openfoam.org
    \\  /    A nd           | Version:  9
     \\/     M anipulation  |
\*---------------------------------------------------------------------------*/
FoamFile
{
    format      ascii;
    class       volScalarField;
    location    "27000";
    object      Sa;
}
// * * * * * * * * * * * * * * * * * * * * * * * * * * * * * * * * * * * * * //

dimensions      [0 0 0 0 0 0 0];

internalField   nonuniform List<scalar> 
1000
(
0.54961
0.54882
0.547795
0.546728
0.545705
0.544617
0.543601
0.542487
0.541465
0.540336
0.539286
0.538158
0.537064
0.535942
0.534818
0.533694
0.532568
0.531441
0.53033
0.529226
0.528147
0.527104
0.526089
0.525147
0.524221
0.523418
0.522603
0.521952
0.521273
0.520751
0.520223
0.519798
0.519387
0.518997
0.518424
0.516934
0.511555
0.488331
0.341757
0.125283
0.0798235
0.066435
0.0601573
0.0562814
0.053476
0.0512412
0.0493614
0.047721
0.0462601
0.0449363
0.0437265
0.0426103
0.0415767
0.0406144
0.0397175
0.0388777
0.038091
0.0373501
0.0366522
0.0359924
0.0353692
0.0347787
0.0342213
0.0336946
0.0331978
0.0327251
0.032274
0.0318409
0.0314282
0.0310328
0.0306529
0.0302895
0.0299438
0.0296146
0.0293012
0.0290069
0.0287396
0.0284875
0.0282484
0.0280168
0.0277929
0.0275753
0.0273625
0.0271536
0.026949
0.0267502
0.0265593
0.026377
0.0262007
0.0260206
0.0258404
0.0256639
0.0254929
0.0253286
0.0251726
0.0250256
0.0248883
0.0247609
0.0246435
0.0245358
0.0244377
0.0243493
0.0242708
0.0242031
0.0241471
0.0241027
0.0240685
0.0240397
0.0240107
0.0239805
0.0239492
0.0239171
0.0238842
0.0238506
0.0238166
0.0237821
0.0237474
0.0237125
0.0236776
0.0236426
0.0236076
0.0235727
0.023538
0.0235034
0.023469
0.0234348
0.0234008
0.0233671
0.0233336
0.0233003
0.0232673
0.0232345
0.023202
0.0231697
0.0231377
0.023106
0.0230745
0.0230433
0.0230123
0.0229816
0.0229512
0.022921
0.0228911
0.0228614
0.0228319
0.0228026
0.0227736
0.0227448
0.0227163
0.022688
0.0226599
0.0226322
0.0226047
0.0225775
0.0225506
0.0225239
0.0224974
0.0224712
0.0224451
0.0224191
0.0223933
0.0223676
0.022342
0.0223166
0.0222914
0.0222665
0.0222418
0.0222173
0.0221932
0.0221693
0.0221456
0.0221222
0.0220988
0.0220756
0.0220524
0.0220292
0.022006
0.0219827
0.0219593
0.0219359
0.0219126
0.0218896
0.021867
0.0218452
0.0218243
0.0218045
0.0217861
0.021769
0.0217533
0.021739
0.0217259
0.021714
0.021703
0.0216928
0.0216832
0.0216738
0.0216646
0.0216552
0.0216452
0.0216345
0.0216227
0.0216095
0.0215947
0.021578
0.0215593
0.0215385
0.0215155
0.0214906
0.0214638
0.0214353
0.0214055
0.0213747
0.0213433
0.0213116
0.0212799
0.0212485
0.0212178
0.0211878
0.0211589
0.021131
0.0211042
0.0210785
0.0210539
0.0210303
0.0210076
0.0209857
0.0209645
0.0209439
0.0209237
0.0209039
0.0208843
0.0208649
0.0208456
0.0208264
0.0208071
0.0207879
0.0207686
0.0207492
0.0207298
0.0207103
0.0206908
0.0206713
0.0206517
0.0206321
0.0206126
0.020593
0.0205735
0.020554
0.0205346
0.0205152
0.020496
0.0204768
0.0204577
0.0204387
0.0204198
0.020401
0.0203823
0.0203637
0.0203452
0.0203269
0.0203086
0.0202905
0.0202725
0.0202546
0.0202369
0.0202192
0.0202017
0.0201843
0.0201669
0.0201497
0.0201327
0.0201157
0.0200988
0.0200821
0.0200655
0.020049
0.0200326
0.0200164
0.0200002
0.0199842
0.0199683
0.0199525
0.0199368
0.0199212
0.0199057
0.0198902
0.0198749
0.0198596
0.0198445
0.0198294
0.0198144
0.0197995
0.0197847
0.01977
0.0197554
0.0197409
0.0197265
0.0197122
0.0196979
0.0196838
0.0196696
0.0196555
0.0196415
0.0196274
0.0196134
0.0195994
0.0195854
0.0195715
0.0195577
0.0195441
0.0195307
0.0195176
0.0195048
0.0194924
0.0194804
0.019469
0.0194582
0.0194479
0.0194382
0.0194292
0.0194208
0.019413
0.0194057
0.0193989
0.0193926
0.0193866
0.0193809
0.0193753
0.0193698
0.0193642
0.0193583
0.0193521
0.0193454
0.0193381
0.0193301
0.0193212
0.0193114
0.0193006
0.0192888
0.0192759
0.0192619
0.0192469
0.0192309
0.0192141
0.0191964
0.019178
0.0191592
0.0191398
0.0191203
0.0191006
0.0190809
0.0190613
0.0190419
0.0190228
0.0190042
0.0189859
0.0189682
0.0189509
0.0189341
0.0189179
0.0189021
0.0188867
0.0188718
0.0188572
0.018843
0.0188291
0.0188154
0.0188019
0.0187886
0.0187754
0.0187623
0.0187493
0.0187363
0.0187234
0.0187105
0.0186976
0.0186847
0.0186718
0.0186588
0.0186459
0.0186329
0.01862
0.0186069
0.018594
0.018581
0.018568
0.018555
0.0185421
0.0185291
0.0185163
0.0185034
0.0184907
0.0184777
0.0184651
0.0184523
0.0184398
0.0184271
0.0184147
0.0184021
0.0183899
0.0183773
0.0183653
0.0183529
0.0183409
0.0183286
0.0183168
0.0183047
0.018293
0.018281
0.0182694
0.0182576
0.0182462
0.0182344
0.0182232
0.0182116
0.0182004
0.018189
0.018178
0.0181667
0.0181558
0.0181447
0.0181339
0.0181229
0.0181122
0.0181014
0.0180908
0.0180801
0.0180696
0.018059
0.0180486
0.0180382
0.0180279
0.0180176
0.0180074
0.0179972
0.0179871
0.017977
0.017967
0.017957
0.0179471
0.0179372
0.0179273
0.0179175
0.0179077
0.017898
0.0178882
0.0178786
0.0178689
0.0178594
0.0178499
0.0178405
0.0178312
0.0178221
0.0178131
0.0178043
0.0177957
0.0177873
0.0177793
0.0177714
0.0177639
0.0177567
0.0177499
0.0177433
0.0177372
0.0177313
0.0177258
0.0177206
0.0177156
0.017711
0.0177065
0.0177022
0.0176981
0.017694
0.01769
0.017686
0.0176818
0.0176775
0.017673
0.0176681
0.017663
0.0176574
0.0176514
0.0176448
0.0176377
0.0176301
0.0176218
0.0176129
0.0176035
0.0175934
0.0175827
0.0175715
0.0175598
0.0175475
0.0175349
0.0175219
0.0175086
0.0174951
0.0174815
0.0174676
0.0174539
0.0174401
0.0174264
0.0174128
0.0173994
0.0173861
0.0173732
0.0173603
0.0173479
0.0173356
0.0173236
0.0173118
0.0173004
0.0172891
0.0172781
0.0172672
0.0172567
0.0172461
0.0172359
0.0172256
0.0172156
0.0172056
0.0171957
0.0171858
0.0171761
0.0171663
0.0171567
0.0171469
0.0171373
0.0171276
0.017118
0.0171083
0.0170987
0.0170889
0.0170794
0.0170696
0.01706
0.0170503
0.0170407
0.017031
0.0170215
0.0170117
0.0170023
0.0169925
0.0169831
0.0169734
0.0169641
0.0169544
0.0169451
0.0169355
0.0169263
0.0169168
0.0169077
0.0168982
0.0168891
0.0168797
0.0168708
0.0168614
0.0168527
0.0168434
0.0168347
0.0168254
0.0168169
0.0168077
0.0167993
0.0167902
0.0167819
0.0167729
0.0167647
0.0167558
0.0167476
0.0167388
0.0167308
0.0167221
0.0167142
0.0167055
0.0166977
0.0166891
0.0166814
0.0166729
0.0166653
0.0166569
0.0166494
0.016641
0.0166336
0.0166253
0.016618
0.0166097
0.0166026
0.0165943
0.0165872
0.016579
0.0165721
0.0165639
0.016557
0.0165489
0.0165421
0.016534
0.0165273
0.0165192
0.0165127
0.0165046
0.0164982
0.0164902
0.016484
0.016476
0.01647
0.0164622
0.0164564
0.0164488
0.0164433
0.016436
0.0164308
0.0164237
0.0164189
0.0164121
0.0164077
0.0164013
0.0163973
0.0163914
0.0163877
0.0163822
0.0163788
0.0163738
0.0163707
0.0163661
0.0163633
0.0163589
0.0163563
0.0163521
0.0163495
0.0163455
0.0163428
0.0163388
0.0163359
0.0163318
0.0163286
0.0163242
0.0163204
0.0163156
0.0163113
0.016306
0.016301
0.016295
0.0162893
0.0162826
0.0162761
0.0162686
0.0162613
0.0162531
0.0162451
0.0162362
0.0162275
0.0162179
0.0162087
0.0161986
0.0161889
0.0161784
0.0161684
0.0161577
0.0161476
0.0161367
0.0161266
0.0161156
0.0161057
0.0160948
0.016085
0.0160743
0.0160649
0.0160543
0.0160453
0.0160349
0.0160262
0.016016
0.0160078
0.0159978
0.01599
0.0159801
0.0159726
0.0159629
0.0159558
0.0159461
0.0159393
0.0159297
0.0159231
0.0159136
0.0159071
0.0158976
0.0158914
0.0158818
0.0158757
0.0158662
0.0158601
0.0158506
0.0158446
0.015835
0.0158291
0.0158195
0.0158136
0.015804
0.0157981
0.0157886
0.0157827
0.0157732
0.0157673
0.0157578
0.0157519
0.0157424
0.0157366
0.0157272
0.0157213
0.0157119
0.0157062
0.0156968
0.0156911
0.0156818
0.0156761
0.0156669
0.0156613
0.0156521
0.0156465
0.0156374
0.0156319
0.0156228
0.0156174
0.0156084
0.0156031
0.0155941
0.0155889
0.01558
0.0155748
0.015566
0.0155608
0.0155521
0.015547
0.0155384
0.0155334
0.0155248
0.0155199
0.0155113
0.0155065
0.015498
0.0154932
0.0154848
0.0154801
0.0154717
0.0154671
0.0154588
0.0154542
0.0154459
0.0154414
0.0154332
0.0154287
0.0154206
0.0154162
0.0154081
0.0154037
0.0153957
0.0153914
0.0153834
0.0153791
0.0153712
0.015367
0.0153591
0.0153549
0.0153471
0.015343
0.0153353
0.0153313
0.0153237
0.0153197
0.0153122
0.0153084
0.0153011
0.0152974
0.0152902
0.0152867
0.0152797
0.0152764
0.0152696
0.0152665
0.0152599
0.0152571
0.0152508
0.0152482
0.0152421
0.0152398
0.0152339
0.0152319
0.0152263
0.0152245
0.0152191
0.0152175
0.0152123
0.0152109
0.0152059
0.0152046
0.0151996
0.0151984
0.0151935
0.0151922
0.0151873
0.015186
0.0151809
0.0151795
0.0151742
0.0151726
0.015167
0.015165
0.0151592
0.0151568
0.0151505
0.0151478
0.015141
0.0151378
0.0151305
0.0151268
0.015119
0.0151148
0.0151065
0.0151018
0.015093
0.0150878
0.0150786
0.0150729
0.0150633
0.0150573
0.0150473
0.015041
0.0150308
0.0150243
0.0150139
0.0150073
0.0149968
0.0149901
0.0149796
0.0149729
0.0149625
0.0149558
0.0149455
0.014939
0.0149287
0.0149224
0.0149123
0.0149061
0.0148962
0.0148903
0.0148805
0.0148747
0.0148652
0.0148596
0.0148502
0.0148447
0.0148355
0.0148302
0.0148211
0.0148159
0.0148069
0.0148018
0.0147929
0.014788
0.014779
0.0147742
0.0147653
0.0147605
0.0147517
0.014747
0.0147382
0.0147334
0.0147247
0.01472
0.0147112
0.0147065
0.0146978
0.0146931
0.0146843
0.0146797
0.014671
0.0146663
0.0146576
0.014653
0.0146442
0.0146396
0.0146309
0.0146264
0.0146177
0.0146131
0.0146045
0.0145999
0.0145913
0.0145868
0.0145782
0.0145738
0.0145652
0.0145608
0.0145523
0.0145479
0.0145394
0.0145351
0.0145266
0.0145223
0.0145139
0.0145097
0.0145014
0.0144971
0.0144889
0.0144847
0.0144764
0.0144723
0.0144641
0.01446
0.0144519
0.0144479
0.0144398
0.0144358
0.0144277
0.0144238
0.0144157
0.014412
0.0144039
0.0144002
0.0143921
0.0143885
0.0143803
0.0143769
0.0143687
0.0143653
0.0143571
0.0143539
0.0143456
0.0143425
0.0143341
0.0143312
0.0143228
0.0143199
0.0143115
0.0143088
0.0143002
0.0142977
0.0142891
0.0142867
0.0142781
0.0142758
0.0142672
0.014265
0.0142565
0.0142543
0.0142459
0.0142438
0.0142355
0.0142334
0.0142253
0.0142233
0.0142153
0.0142133
0.0142057
0.0142037
0.0141963
0.0141943
0.0141872
0.0141853
0.0141784
0.0141766
0.01417
0.0141682
0.0141618
0.0141602
0.014154
0.0141524
0.0141465
0.0141449
0.0141392
0.0141377
0.0141321
0.0141307
0.0141251
0.0141237
0.0141182
0.0141168
0.0141113
0.0141099
0.0141044
0.014103
0.0140973
0.0140958
0.0140899
0.0140884
0.0140823
0.0140807
0.0140742
0.0140725
0.0140656
0.0140638
0.0140564
0.0140545
0.0140466
0.0140445
0.0140361
0.0140338
0.0140183
0.216038
)
;

boundaryField
{
    inlet
    {
        type            fixedValue;
        value           uniform 0.55;
    }
    outlet
    {
        type            zeroGradient;
    }
    emptyWalls
    {
        type            empty;
    }
}


// ************************************************************************* //
