/*--------------------------------*- C++ -*----------------------------------*\
  =========                 |
  \\      /  F ield         | OpenFOAM: The Open Source CFD Toolbox
   \\    /   O peration     | Website:  https://openfoam.org
    \\  /    A nd           | Version:  9
     \\/     M anipulation  |
\*---------------------------------------------------------------------------*/
FoamFile
{
    format      ascii;
    class       volVectorField;
    location    "26500";
    object      Ub;
}
// * * * * * * * * * * * * * * * * * * * * * * * * * * * * * * * * * * * * * //

dimensions      [0 0 0 0 0 0 0];

internalField   nonuniform List<vector> 
1000
(
(1.13619e-05 0 0)
(1.13621e-05 0 0)
(1.13622e-05 0 0)
(1.13622e-05 0 0)
(1.13623e-05 0 0)
(1.13624e-05 0 0)
(1.13625e-05 0 0)
(1.13627e-05 0 0)
(1.13629e-05 0 0)
(1.13631e-05 0 0)
(1.13632e-05 0 0)
(1.13634e-05 0 0)
(1.13637e-05 0 0)
(1.13639e-05 0 0)
(1.13642e-05 0 0)
(1.13645e-05 0 0)
(1.13649e-05 0 0)
(1.13652e-05 0 0)
(1.13656e-05 0 0)
(1.1366e-05 0 0)
(1.13664e-05 0 0)
(1.13669e-05 0 0)
(1.13672e-05 0 0)
(1.13676e-05 0 0)
(1.13679e-05 0 0)
(1.13682e-05 0 0)
(1.13686e-05 0 0)
(1.13688e-05 0 0)
(1.13691e-05 0 0)
(1.13694e-05 0 0)
(1.13696e-05 0 0)
(1.13699e-05 0 0)
(1.13701e-05 0 0)
(1.13704e-05 0 0)
(1.13712e-05 0 0)
(1.13743e-05 0 0)
(1.13878e-05 0 0)
(1.14564e-05 0 0)
(1.16171e-05 0 0)
(1.17427e-05 0 0)
(1.17712e-05 0 0)
(1.17782e-05 0 0)
(1.17788e-05 0 0)
(1.17785e-05 0 0)
(1.17789e-05 0 0)
(1.17802e-05 0 0)
(1.17819e-05 0 0)
(1.17839e-05 0 0)
(1.17858e-05 0 0)
(1.17877e-05 0 0)
(1.17894e-05 0 0)
(1.17911e-05 0 0)
(1.17926e-05 0 0)
(1.17941e-05 0 0)
(1.17954e-05 0 0)
(1.17966e-05 0 0)
(1.17978e-05 0 0)
(1.17988e-05 0 0)
(1.17998e-05 0 0)
(1.18007e-05 0 0)
(1.18016e-05 0 0)
(1.18024e-05 0 0)
(1.18031e-05 0 0)
(1.18037e-05 0 0)
(1.18042e-05 0 0)
(1.18047e-05 0 0)
(1.18052e-05 0 0)
(1.18056e-05 0 0)
(1.18059e-05 0 0)
(1.18062e-05 0 0)
(1.18065e-05 0 0)
(1.18067e-05 0 0)
(1.18068e-05 0 0)
(1.18069e-05 0 0)
(1.18069e-05 0 0)
(1.18069e-05 0 0)
(1.18067e-05 0 0)
(1.18065e-05 0 0)
(1.18063e-05 0 0)
(1.18061e-05 0 0)
(1.18059e-05 0 0)
(1.18057e-05 0 0)
(1.18055e-05 0 0)
(1.18052e-05 0 0)
(1.18049e-05 0 0)
(1.18045e-05 0 0)
(1.18039e-05 0 0)
(1.18033e-05 0 0)
(1.18026e-05 0 0)
(1.18018e-05 0 0)
(1.18009e-05 0 0)
(1.18001e-05 0 0)
(1.17992e-05 0 0)
(1.17984e-05 0 0)
(1.17976e-05 0 0)
(1.17968e-05 0 0)
(1.1796e-05 0 0)
(1.1795e-05 0 0)
(1.17938e-05 0 0)
(1.17922e-05 0 0)
(1.17902e-05 0 0)
(1.17877e-05 0 0)
(1.17846e-05 0 0)
(1.17808e-05 0 0)
(1.17762e-05 0 0)
(1.17709e-05 0 0)
(1.17651e-05 0 0)
(1.17589e-05 0 0)
(1.17526e-05 0 0)
(1.17465e-05 0 0)
(1.17405e-05 0 0)
(1.17347e-05 0 0)
(1.17291e-05 0 0)
(1.17237e-05 0 0)
(1.17185e-05 0 0)
(1.17137e-05 0 0)
(1.17093e-05 0 0)
(1.17056e-05 0 0)
(1.17024e-05 0 0)
(1.16999e-05 0 0)
(1.1698e-05 0 0)
(1.16965e-05 0 0)
(1.16953e-05 0 0)
(1.16944e-05 0 0)
(1.16935e-05 0 0)
(1.16926e-05 0 0)
(1.16916e-05 0 0)
(1.16903e-05 0 0)
(1.16888e-05 0 0)
(1.16869e-05 0 0)
(1.16847e-05 0 0)
(1.16822e-05 0 0)
(1.16794e-05 0 0)
(1.16763e-05 0 0)
(1.16729e-05 0 0)
(1.16694e-05 0 0)
(1.16658e-05 0 0)
(1.1662e-05 0 0)
(1.16582e-05 0 0)
(1.16543e-05 0 0)
(1.16504e-05 0 0)
(1.16466e-05 0 0)
(1.16428e-05 0 0)
(1.1639e-05 0 0)
(1.16353e-05 0 0)
(1.16316e-05 0 0)
(1.16279e-05 0 0)
(1.16243e-05 0 0)
(1.16207e-05 0 0)
(1.16171e-05 0 0)
(1.16136e-05 0 0)
(1.161e-05 0 0)
(1.16065e-05 0 0)
(1.1603e-05 0 0)
(1.15995e-05 0 0)
(1.15959e-05 0 0)
(1.15924e-05 0 0)
(1.15889e-05 0 0)
(1.15853e-05 0 0)
(1.15818e-05 0 0)
(1.15782e-05 0 0)
(1.15746e-05 0 0)
(1.1571e-05 0 0)
(1.15674e-05 0 0)
(1.15637e-05 0 0)
(1.15601e-05 0 0)
(1.15564e-05 0 0)
(1.15527e-05 0 0)
(1.1549e-05 0 0)
(1.15453e-05 0 0)
(1.15416e-05 0 0)
(1.15378e-05 0 0)
(1.1534e-05 0 0)
(1.15303e-05 0 0)
(1.15265e-05 0 0)
(1.15226e-05 0 0)
(1.15188e-05 0 0)
(1.1515e-05 0 0)
(1.15111e-05 0 0)
(1.15072e-05 0 0)
(1.15033e-05 0 0)
(1.14994e-05 0 0)
(1.14955e-05 0 0)
(1.14915e-05 0 0)
(1.14876e-05 0 0)
(1.14836e-05 0 0)
(1.14796e-05 0 0)
(1.14755e-05 0 0)
(1.14715e-05 0 0)
(1.14674e-05 0 0)
(1.14634e-05 0 0)
(1.14593e-05 0 0)
(1.14552e-05 0 0)
(1.14511e-05 0 0)
(1.1447e-05 0 0)
(1.14429e-05 0 0)
(1.14388e-05 0 0)
(1.14347e-05 0 0)
(1.14305e-05 0 0)
(1.14264e-05 0 0)
(1.14222e-05 0 0)
(1.1418e-05 0 0)
(1.14138e-05 0 0)
(1.14095e-05 0 0)
(1.14053e-05 0 0)
(1.1401e-05 0 0)
(1.13968e-05 0 0)
(1.13925e-05 0 0)
(1.13882e-05 0 0)
(1.1384e-05 0 0)
(1.13798e-05 0 0)
(1.13756e-05 0 0)
(1.13714e-05 0 0)
(1.13672e-05 0 0)
(1.13629e-05 0 0)
(1.13587e-05 0 0)
(1.13544e-05 0 0)
(1.135e-05 0 0)
(1.13455e-05 0 0)
(1.13408e-05 0 0)
(1.1336e-05 0 0)
(1.13311e-05 0 0)
(1.1326e-05 0 0)
(1.13207e-05 0 0)
(1.13153e-05 0 0)
(1.13097e-05 0 0)
(1.1304e-05 0 0)
(1.12981e-05 0 0)
(1.12922e-05 0 0)
(1.12863e-05 0 0)
(1.12802e-05 0 0)
(1.12742e-05 0 0)
(1.12683e-05 0 0)
(1.12624e-05 0 0)
(1.12566e-05 0 0)
(1.1251e-05 0 0)
(1.12455e-05 0 0)
(1.12403e-05 0 0)
(1.12354e-05 0 0)
(1.12307e-05 0 0)
(1.12263e-05 0 0)
(1.12223e-05 0 0)
(1.12184e-05 0 0)
(1.12149e-05 0 0)
(1.12116e-05 0 0)
(1.12085e-05 0 0)
(1.12056e-05 0 0)
(1.12028e-05 0 0)
(1.12002e-05 0 0)
(1.11975e-05 0 0)
(1.11949e-05 0 0)
(1.11922e-05 0 0)
(1.11895e-05 0 0)
(1.11866e-05 0 0)
(1.11837e-05 0 0)
(1.11806e-05 0 0)
(1.11774e-05 0 0)
(1.1174e-05 0 0)
(1.11705e-05 0 0)
(1.11669e-05 0 0)
(1.11632e-05 0 0)
(1.11594e-05 0 0)
(1.11554e-05 0 0)
(1.11514e-05 0 0)
(1.11474e-05 0 0)
(1.11432e-05 0 0)
(1.11391e-05 0 0)
(1.11349e-05 0 0)
(1.11307e-05 0 0)
(1.11265e-05 0 0)
(1.11223e-05 0 0)
(1.1118e-05 0 0)
(1.11138e-05 0 0)
(1.11097e-05 0 0)
(1.11055e-05 0 0)
(1.11013e-05 0 0)
(1.10971e-05 0 0)
(1.1093e-05 0 0)
(1.10889e-05 0 0)
(1.10847e-05 0 0)
(1.10806e-05 0 0)
(1.10765e-05 0 0)
(1.10724e-05 0 0)
(1.10683e-05 0 0)
(1.10642e-05 0 0)
(1.10601e-05 0 0)
(1.1056e-05 0 0)
(1.10519e-05 0 0)
(1.10478e-05 0 0)
(1.10436e-05 0 0)
(1.10395e-05 0 0)
(1.10354e-05 0 0)
(1.10312e-05 0 0)
(1.10271e-05 0 0)
(1.10229e-05 0 0)
(1.10187e-05 0 0)
(1.10146e-05 0 0)
(1.10104e-05 0 0)
(1.10062e-05 0 0)
(1.1002e-05 0 0)
(1.09977e-05 0 0)
(1.09935e-05 0 0)
(1.09892e-05 0 0)
(1.0985e-05 0 0)
(1.09807e-05 0 0)
(1.09764e-05 0 0)
(1.09721e-05 0 0)
(1.09678e-05 0 0)
(1.09635e-05 0 0)
(1.09592e-05 0 0)
(1.09548e-05 0 0)
(1.09505e-05 0 0)
(1.09461e-05 0 0)
(1.09417e-05 0 0)
(1.09373e-05 0 0)
(1.09329e-05 0 0)
(1.09285e-05 0 0)
(1.09241e-05 0 0)
(1.09196e-05 0 0)
(1.09152e-05 0 0)
(1.09107e-05 0 0)
(1.09063e-05 0 0)
(1.09018e-05 0 0)
(1.08973e-05 0 0)
(1.08928e-05 0 0)
(1.08883e-05 0 0)
(1.08838e-05 0 0)
(1.08792e-05 0 0)
(1.08747e-05 0 0)
(1.08702e-05 0 0)
(1.08656e-05 0 0)
(1.0861e-05 0 0)
(1.08565e-05 0 0)
(1.08519e-05 0 0)
(1.08473e-05 0 0)
(1.08427e-05 0 0)
(1.08381e-05 0 0)
(1.08334e-05 0 0)
(1.08288e-05 0 0)
(1.08242e-05 0 0)
(1.08196e-05 0 0)
(1.08149e-05 0 0)
(1.08103e-05 0 0)
(1.08057e-05 0 0)
(1.0801e-05 0 0)
(1.07964e-05 0 0)
(1.07917e-05 0 0)
(1.0787e-05 0 0)
(1.07823e-05 0 0)
(1.07776e-05 0 0)
(1.07728e-05 0 0)
(1.0768e-05 0 0)
(1.07631e-05 0 0)
(1.07581e-05 0 0)
(1.07531e-05 0 0)
(1.07479e-05 0 0)
(1.07427e-05 0 0)
(1.07375e-05 0 0)
(1.07321e-05 0 0)
(1.07266e-05 0 0)
(1.07211e-05 0 0)
(1.07155e-05 0 0)
(1.07098e-05 0 0)
(1.0704e-05 0 0)
(1.06982e-05 0 0)
(1.06924e-05 0 0)
(1.06866e-05 0 0)
(1.06807e-05 0 0)
(1.06749e-05 0 0)
(1.0669e-05 0 0)
(1.06633e-05 0 0)
(1.06576e-05 0 0)
(1.06519e-05 0 0)
(1.06464e-05 0 0)
(1.0641e-05 0 0)
(1.06357e-05 0 0)
(1.06306e-05 0 0)
(1.06256e-05 0 0)
(1.06207e-05 0 0)
(1.06161e-05 0 0)
(1.06115e-05 0 0)
(1.06072e-05 0 0)
(1.0603e-05 0 0)
(1.05989e-05 0 0)
(1.05949e-05 0 0)
(1.0591e-05 0 0)
(1.05873e-05 0 0)
(1.05835e-05 0 0)
(1.05799e-05 0 0)
(1.05762e-05 0 0)
(1.05726e-05 0 0)
(1.0569e-05 0 0)
(1.05653e-05 0 0)
(1.05617e-05 0 0)
(1.05579e-05 0 0)
(1.05542e-05 0 0)
(1.05503e-05 0 0)
(1.05464e-05 0 0)
(1.05424e-05 0 0)
(1.05384e-05 0 0)
(1.05342e-05 0 0)
(1.05301e-05 0 0)
(1.05258e-05 0 0)
(1.05215e-05 0 0)
(1.05172e-05 0 0)
(1.05128e-05 0 0)
(1.05083e-05 0 0)
(1.05038e-05 0 0)
(1.04993e-05 0 0)
(1.04948e-05 0 0)
(1.04902e-05 0 0)
(1.04857e-05 0 0)
(1.04811e-05 0 0)
(1.04765e-05 0 0)
(1.04719e-05 0 0)
(1.04673e-05 0 0)
(1.04627e-05 0 0)
(1.04582e-05 0 0)
(1.04536e-05 0 0)
(1.0449e-05 0 0)
(1.04444e-05 0 0)
(1.04398e-05 0 0)
(1.04352e-05 0 0)
(1.04307e-05 0 0)
(1.04261e-05 0 0)
(1.04215e-05 0 0)
(1.04169e-05 0 0)
(1.04124e-05 0 0)
(1.04078e-05 0 0)
(1.04032e-05 0 0)
(1.03986e-05 0 0)
(1.0394e-05 0 0)
(1.03895e-05 0 0)
(1.03849e-05 0 0)
(1.03803e-05 0 0)
(1.03757e-05 0 0)
(1.03711e-05 0 0)
(1.03664e-05 0 0)
(1.03618e-05 0 0)
(1.03572e-05 0 0)
(1.03525e-05 0 0)
(1.03479e-05 0 0)
(1.03432e-05 0 0)
(1.03386e-05 0 0)
(1.03339e-05 0 0)
(1.03292e-05 0 0)
(1.03245e-05 0 0)
(1.03198e-05 0 0)
(1.03151e-05 0 0)
(1.03104e-05 0 0)
(1.03056e-05 0 0)
(1.03009e-05 0 0)
(1.02961e-05 0 0)
(1.02913e-05 0 0)
(1.02866e-05 0 0)
(1.02818e-05 0 0)
(1.0277e-05 0 0)
(1.02722e-05 0 0)
(1.02673e-05 0 0)
(1.02625e-05 0 0)
(1.02577e-05 0 0)
(1.02528e-05 0 0)
(1.02479e-05 0 0)
(1.02431e-05 0 0)
(1.02382e-05 0 0)
(1.02333e-05 0 0)
(1.02284e-05 0 0)
(1.02235e-05 0 0)
(1.02186e-05 0 0)
(1.02136e-05 0 0)
(1.02087e-05 0 0)
(1.02037e-05 0 0)
(1.01988e-05 0 0)
(1.01938e-05 0 0)
(1.01888e-05 0 0)
(1.01839e-05 0 0)
(1.01789e-05 0 0)
(1.01739e-05 0 0)
(1.01689e-05 0 0)
(1.01638e-05 0 0)
(1.01588e-05 0 0)
(1.01538e-05 0 0)
(1.01487e-05 0 0)
(1.01437e-05 0 0)
(1.01387e-05 0 0)
(1.01336e-05 0 0)
(1.01285e-05 0 0)
(1.01235e-05 0 0)
(1.01184e-05 0 0)
(1.01133e-05 0 0)
(1.01082e-05 0 0)
(1.01031e-05 0 0)
(1.0098e-05 0 0)
(1.00928e-05 0 0)
(1.00877e-05 0 0)
(1.00825e-05 0 0)
(1.00773e-05 0 0)
(1.0072e-05 0 0)
(1.00667e-05 0 0)
(1.00614e-05 0 0)
(1.00561e-05 0 0)
(1.00507e-05 0 0)
(1.00452e-05 0 0)
(1.00397e-05 0 0)
(1.00342e-05 0 0)
(1.00286e-05 0 0)
(1.0023e-05 0 0)
(1.00173e-05 0 0)
(1.00115e-05 0 0)
(1.00057e-05 0 0)
(9.99989e-06 0 0)
(9.99402e-06 0 0)
(9.98811e-06 0 0)
(9.98218e-06 0 0)
(9.97622e-06 0 0)
(9.97025e-06 0 0)
(9.96427e-06 0 0)
(9.95829e-06 0 0)
(9.95233e-06 0 0)
(9.94638e-06 0 0)
(9.94046e-06 0 0)
(9.93458e-06 0 0)
(9.92875e-06 0 0)
(9.92297e-06 0 0)
(9.91725e-06 0 0)
(9.91161e-06 0 0)
(9.90604e-06 0 0)
(9.90056e-06 0 0)
(9.89516e-06 0 0)
(9.88985e-06 0 0)
(9.88464e-06 0 0)
(9.87952e-06 0 0)
(9.87448e-06 0 0)
(9.86954e-06 0 0)
(9.86468e-06 0 0)
(9.85989e-06 0 0)
(9.85518e-06 0 0)
(9.85054e-06 0 0)
(9.84595e-06 0 0)
(9.8414e-06 0 0)
(9.83689e-06 0 0)
(9.83242e-06 0 0)
(9.82795e-06 0 0)
(9.8235e-06 0 0)
(9.81905e-06 0 0)
(9.81459e-06 0 0)
(9.81012e-06 0 0)
(9.80563e-06 0 0)
(9.80111e-06 0 0)
(9.79655e-06 0 0)
(9.79197e-06 0 0)
(9.78734e-06 0 0)
(9.78268e-06 0 0)
(9.77797e-06 0 0)
(9.77323e-06 0 0)
(9.76844e-06 0 0)
(9.76362e-06 0 0)
(9.75876e-06 0 0)
(9.75386e-06 0 0)
(9.74894e-06 0 0)
(9.74398e-06 0 0)
(9.73899e-06 0 0)
(9.73398e-06 0 0)
(9.72894e-06 0 0)
(9.72389e-06 0 0)
(9.71882e-06 0 0)
(9.71373e-06 0 0)
(9.70863e-06 0 0)
(9.70352e-06 0 0)
(9.6984e-06 0 0)
(9.69327e-06 0 0)
(9.68813e-06 0 0)
(9.68299e-06 0 0)
(9.67785e-06 0 0)
(9.6727e-06 0 0)
(9.66755e-06 0 0)
(9.6624e-06 0 0)
(9.65724e-06 0 0)
(9.65208e-06 0 0)
(9.64692e-06 0 0)
(9.64176e-06 0 0)
(9.63659e-06 0 0)
(9.63142e-06 0 0)
(9.62625e-06 0 0)
(9.62107e-06 0 0)
(9.61589e-06 0 0)
(9.6107e-06 0 0)
(9.60551e-06 0 0)
(9.60031e-06 0 0)
(9.59511e-06 0 0)
(9.5899e-06 0 0)
(9.58469e-06 0 0)
(9.57947e-06 0 0)
(9.57424e-06 0 0)
(9.569e-06 0 0)
(9.56376e-06 0 0)
(9.5585e-06 0 0)
(9.55324e-06 0 0)
(9.54797e-06 0 0)
(9.54269e-06 0 0)
(9.5374e-06 0 0)
(9.5321e-06 0 0)
(9.5268e-06 0 0)
(9.52148e-06 0 0)
(9.51615e-06 0 0)
(9.51081e-06 0 0)
(9.50547e-06 0 0)
(9.50011e-06 0 0)
(9.49474e-06 0 0)
(9.48936e-06 0 0)
(9.48398e-06 0 0)
(9.47858e-06 0 0)
(9.47317e-06 0 0)
(9.46775e-06 0 0)
(9.46232e-06 0 0)
(9.45688e-06 0 0)
(9.45143e-06 0 0)
(9.44596e-06 0 0)
(9.44049e-06 0 0)
(9.43501e-06 0 0)
(9.42952e-06 0 0)
(9.42402e-06 0 0)
(9.41851e-06 0 0)
(9.41298e-06 0 0)
(9.40745e-06 0 0)
(9.40191e-06 0 0)
(9.39636e-06 0 0)
(9.3908e-06 0 0)
(9.38523e-06 0 0)
(9.37965e-06 0 0)
(9.37406e-06 0 0)
(9.36847e-06 0 0)
(9.36286e-06 0 0)
(9.35725e-06 0 0)
(9.35162e-06 0 0)
(9.34599e-06 0 0)
(9.34035e-06 0 0)
(9.3347e-06 0 0)
(9.32904e-06 0 0)
(9.32338e-06 0 0)
(9.31771e-06 0 0)
(9.31202e-06 0 0)
(9.30633e-06 0 0)
(9.30063e-06 0 0)
(9.29493e-06 0 0)
(9.28921e-06 0 0)
(9.28348e-06 0 0)
(9.27774e-06 0 0)
(9.27199e-06 0 0)
(9.26622e-06 0 0)
(9.26044e-06 0 0)
(9.25465e-06 0 0)
(9.24883e-06 0 0)
(9.243e-06 0 0)
(9.23715e-06 0 0)
(9.23128e-06 0 0)
(9.22538e-06 0 0)
(9.21945e-06 0 0)
(9.2135e-06 0 0)
(9.20752e-06 0 0)
(9.20152e-06 0 0)
(9.19547e-06 0 0)
(9.1894e-06 0 0)
(9.1833e-06 0 0)
(9.17716e-06 0 0)
(9.17098e-06 0 0)
(9.16478e-06 0 0)
(9.15853e-06 0 0)
(9.15226e-06 0 0)
(9.14596e-06 0 0)
(9.13963e-06 0 0)
(9.13327e-06 0 0)
(9.12688e-06 0 0)
(9.12047e-06 0 0)
(9.11405e-06 0 0)
(9.10761e-06 0 0)
(9.10116e-06 0 0)
(9.0947e-06 0 0)
(9.08824e-06 0 0)
(9.08178e-06 0 0)
(9.07532e-06 0 0)
(9.06888e-06 0 0)
(9.06246e-06 0 0)
(9.05605e-06 0 0)
(9.04968e-06 0 0)
(9.04333e-06 0 0)
(9.03702e-06 0 0)
(9.03074e-06 0 0)
(9.02451e-06 0 0)
(9.01833e-06 0 0)
(9.01219e-06 0 0)
(9.0061e-06 0 0)
(9.00007e-06 0 0)
(8.99409e-06 0 0)
(8.98816e-06 0 0)
(8.98228e-06 0 0)
(8.97646e-06 0 0)
(8.97069e-06 0 0)
(8.96496e-06 0 0)
(8.95928e-06 0 0)
(8.95364e-06 0 0)
(8.94804e-06 0 0)
(8.94246e-06 0 0)
(8.93692e-06 0 0)
(8.9314e-06 0 0)
(8.9259e-06 0 0)
(8.92041e-06 0 0)
(8.91493e-06 0 0)
(8.90946e-06 0 0)
(8.90398e-06 0 0)
(8.89849e-06 0 0)
(8.893e-06 0 0)
(8.88749e-06 0 0)
(8.88197e-06 0 0)
(8.87642e-06 0 0)
(8.87086e-06 0 0)
(8.86527e-06 0 0)
(8.85965e-06 0 0)
(8.85401e-06 0 0)
(8.84834e-06 0 0)
(8.84264e-06 0 0)
(8.83691e-06 0 0)
(8.83116e-06 0 0)
(8.82538e-06 0 0)
(8.81957e-06 0 0)
(8.81374e-06 0 0)
(8.80788e-06 0 0)
(8.802e-06 0 0)
(8.7961e-06 0 0)
(8.79017e-06 0 0)
(8.78423e-06 0 0)
(8.77827e-06 0 0)
(8.7723e-06 0 0)
(8.7663e-06 0 0)
(8.7603e-06 0 0)
(8.75428e-06 0 0)
(8.74825e-06 0 0)
(8.7422e-06 0 0)
(8.73615e-06 0 0)
(8.73009e-06 0 0)
(8.72401e-06 0 0)
(8.71793e-06 0 0)
(8.71184e-06 0 0)
(8.70575e-06 0 0)
(8.69964e-06 0 0)
(8.69353e-06 0 0)
(8.68741e-06 0 0)
(8.68128e-06 0 0)
(8.67515e-06 0 0)
(8.669e-06 0 0)
(8.66285e-06 0 0)
(8.65669e-06 0 0)
(8.65053e-06 0 0)
(8.64435e-06 0 0)
(8.63817e-06 0 0)
(8.63198e-06 0 0)
(8.62578e-06 0 0)
(8.61957e-06 0 0)
(8.61335e-06 0 0)
(8.60712e-06 0 0)
(8.60089e-06 0 0)
(8.59464e-06 0 0)
(8.58838e-06 0 0)
(8.58211e-06 0 0)
(8.57583e-06 0 0)
(8.56954e-06 0 0)
(8.56323e-06 0 0)
(8.55692e-06 0 0)
(8.5506e-06 0 0)
(8.54426e-06 0 0)
(8.53791e-06 0 0)
(8.53155e-06 0 0)
(8.52517e-06 0 0)
(8.51879e-06 0 0)
(8.51239e-06 0 0)
(8.50598e-06 0 0)
(8.49955e-06 0 0)
(8.49312e-06 0 0)
(8.48667e-06 0 0)
(8.4802e-06 0 0)
(8.47373e-06 0 0)
(8.46724e-06 0 0)
(8.46074e-06 0 0)
(8.45422e-06 0 0)
(8.44769e-06 0 0)
(8.44115e-06 0 0)
(8.4346e-06 0 0)
(8.42803e-06 0 0)
(8.42145e-06 0 0)
(8.41486e-06 0 0)
(8.40825e-06 0 0)
(8.40163e-06 0 0)
(8.395e-06 0 0)
(8.38835e-06 0 0)
(8.38169e-06 0 0)
(8.37502e-06 0 0)
(8.36834e-06 0 0)
(8.36164e-06 0 0)
(8.35493e-06 0 0)
(8.3482e-06 0 0)
(8.34147e-06 0 0)
(8.33472e-06 0 0)
(8.32796e-06 0 0)
(8.32118e-06 0 0)
(8.3144e-06 0 0)
(8.3076e-06 0 0)
(8.30078e-06 0 0)
(8.29396e-06 0 0)
(8.28712e-06 0 0)
(8.28027e-06 0 0)
(8.2734e-06 0 0)
(8.26652e-06 0 0)
(8.25963e-06 0 0)
(8.25272e-06 0 0)
(8.2458e-06 0 0)
(8.23887e-06 0 0)
(8.23192e-06 0 0)
(8.22495e-06 0 0)
(8.21797e-06 0 0)
(8.21096e-06 0 0)
(8.20395e-06 0 0)
(8.19691e-06 0 0)
(8.18985e-06 0 0)
(8.18277e-06 0 0)
(8.17567e-06 0 0)
(8.16855e-06 0 0)
(8.1614e-06 0 0)
(8.15423e-06 0 0)
(8.14703e-06 0 0)
(8.13981e-06 0 0)
(8.13256e-06 0 0)
(8.12529e-06 0 0)
(8.11799e-06 0 0)
(8.11065e-06 0 0)
(8.10329e-06 0 0)
(8.09591e-06 0 0)
(8.08849e-06 0 0)
(8.08104e-06 0 0)
(8.07357e-06 0 0)
(8.06607e-06 0 0)
(8.05854e-06 0 0)
(8.05098e-06 0 0)
(8.0434e-06 0 0)
(8.03579e-06 0 0)
(8.02816e-06 0 0)
(8.02051e-06 0 0)
(8.01284e-06 0 0)
(8.00516e-06 0 0)
(7.99746e-06 0 0)
(7.98974e-06 0 0)
(7.98202e-06 0 0)
(7.97428e-06 0 0)
(7.96654e-06 0 0)
(7.95879e-06 0 0)
(7.95104e-06 0 0)
(7.94328e-06 0 0)
(7.93554e-06 0 0)
(7.92781e-06 0 0)
(7.92008e-06 0 0)
(7.91237e-06 0 0)
(7.90467e-06 0 0)
(7.89698e-06 0 0)
(7.88931e-06 0 0)
(7.88166e-06 0 0)
(7.87403e-06 0 0)
(7.86642e-06 0 0)
(7.85884e-06 0 0)
(7.85127e-06 0 0)
(7.84373e-06 0 0)
(7.83621e-06 0 0)
(7.82871e-06 0 0)
(7.82124e-06 0 0)
(7.81379e-06 0 0)
(7.80635e-06 0 0)
(7.79893e-06 0 0)
(7.79153e-06 0 0)
(7.78415e-06 0 0)
(7.77677e-06 0 0)
(7.7694e-06 0 0)
(7.76204e-06 0 0)
(7.75469e-06 0 0)
(7.74733e-06 0 0)
(7.73997e-06 0 0)
(7.73261e-06 0 0)
(7.72524e-06 0 0)
(7.71786e-06 0 0)
(7.71046e-06 0 0)
(7.70306e-06 0 0)
(7.69563e-06 0 0)
(7.68818e-06 0 0)
(7.68072e-06 0 0)
(7.67323e-06 0 0)
(7.66571e-06 0 0)
(7.65817e-06 0 0)
(7.6506e-06 0 0)
(7.64301e-06 0 0)
(7.63539e-06 0 0)
(7.62773e-06 0 0)
(7.62005e-06 0 0)
(7.61234e-06 0 0)
(7.6046e-06 0 0)
(7.59683e-06 0 0)
(7.58903e-06 0 0)
(7.5812e-06 0 0)
(7.57335e-06 0 0)
(7.56546e-06 0 0)
(7.55755e-06 0 0)
(7.54961e-06 0 0)
(7.54165e-06 0 0)
(7.53366e-06 0 0)
(7.52564e-06 0 0)
(7.5176e-06 0 0)
(7.50954e-06 0 0)
(7.50145e-06 0 0)
(7.49333e-06 0 0)
(7.4852e-06 0 0)
(7.47704e-06 0 0)
(7.46886e-06 0 0)
(7.46065e-06 0 0)
(7.45243e-06 0 0)
(7.44418e-06 0 0)
(7.43591e-06 0 0)
(7.42762e-06 0 0)
(7.41931e-06 0 0)
(7.41098e-06 0 0)
(7.40262e-06 0 0)
(7.39425e-06 0 0)
(7.38585e-06 0 0)
(7.37743e-06 0 0)
(7.36899e-06 0 0)
(7.36052e-06 0 0)
(7.35203e-06 0 0)
(7.34352e-06 0 0)
(7.33499e-06 0 0)
(7.32643e-06 0 0)
(7.31786e-06 0 0)
(7.30925e-06 0 0)
(7.30062e-06 0 0)
(7.29197e-06 0 0)
(7.28329e-06 0 0)
(7.27459e-06 0 0)
(7.26587e-06 0 0)
(7.25711e-06 0 0)
(7.24834e-06 0 0)
(7.23953e-06 0 0)
(7.2307e-06 0 0)
(7.22184e-06 0 0)
(7.21296e-06 0 0)
(7.20404e-06 0 0)
(7.19511e-06 0 0)
(7.18614e-06 0 0)
(7.17714e-06 0 0)
(7.16812e-06 0 0)
(7.15907e-06 0 0)
(7.14999e-06 0 0)
(7.14088e-06 0 0)
(7.13174e-06 0 0)
(7.12258e-06 0 0)
(7.11338e-06 0 0)
(7.10416e-06 0 0)
(7.0949e-06 0 0)
(7.08562e-06 0 0)
(7.0763e-06 0 0)
(7.06696e-06 0 0)
(7.05758e-06 0 0)
(7.04818e-06 0 0)
(7.03875e-06 0 0)
(7.02929e-06 0 0)
(7.01979e-06 0 0)
(7.01027e-06 0 0)
(7.00072e-06 0 0)
(6.99114e-06 0 0)
(6.98153e-06 0 0)
(6.97189e-06 0 0)
(6.96222e-06 0 0)
(6.95252e-06 0 0)
(6.94279e-06 0 0)
(6.93304e-06 0 0)
(6.92326e-06 0 0)
(6.91345e-06 0 0)
(6.90362e-06 0 0)
(6.89376e-06 0 0)
(6.88388e-06 0 0)
(6.87397e-06 0 0)
(6.86404e-06 0 0)
(6.85409e-06 0 0)
(6.84412e-06 0 0)
(6.83413e-06 0 0)
(6.82412e-06 0 0)
(6.8141e-06 0 0)
(6.80406e-06 0 0)
(6.79402e-06 0 0)
(6.78397e-06 0 0)
(6.77391e-06 0 0)
(6.76386e-06 0 0)
(6.75381e-06 0 0)
(6.74377e-06 0 0)
(6.73374e-06 0 0)
(6.72374e-06 0 0)
(7.13603e-06 0 0)
)
;

boundaryField
{
    inlet
    {
        type            fixedValue;
        value           uniform (1.13622e-05 0 0);
    }
    outlet
    {
        type            zeroGradient;
    }
    emptyWalls
    {
        type            empty;
    }
}


// ************************************************************************* //
