/*--------------------------------*- C++ -*----------------------------------*\
  =========                 |
  \\      /  F ield         | OpenFOAM: The Open Source CFD Toolbox
   \\    /   O peration     | Website:  https://openfoam.org
    \\  /    A nd           | Version:  9
     \\/     M anipulation  |
\*---------------------------------------------------------------------------*/
FoamFile
{
    format      ascii;
    class       volScalarField;
    location    "9850";
    object      krb;
}
// * * * * * * * * * * * * * * * * * * * * * * * * * * * * * * * * * * * * * //

dimensions      [0 0 0 0 0 0 0];

internalField   nonuniform List<scalar> 
1000
(
0.0981062
0.0991597
0.100425
0.101666
0.102882
0.104057
0.10523
0.106192
0.107257
0.107934
0.109211
0.111723
0.121702
0.192943
0.422201
0.485542
0.504024
0.512666
0.517904
0.521496
0.524117
0.526076
0.527548
0.528657
0.529481
0.530075
0.530502
0.530763
0.530898
0.530884
0.530736
0.530416
0.529913
0.529186
0.528159
0.526708
0.524672
0.521936
0.518571
0.514855
0.510969
0.507001
0.503007
0.499021
0.495063
0.491148
0.487282
0.483472
0.479721
0.476029
0.472397
0.468825
0.465312
0.461858
0.458462
0.455122
0.451837
0.448606
0.445427
0.4423
0.439223
0.436195
0.433214
0.430279
0.42739
0.424545
0.421742
0.418982
0.416262
0.413582
0.41094
0.408336
0.405768
0.403236
0.400738
0.398273
0.395842
0.393443
0.391075
0.388739
0.386432
0.384154
0.381903
0.379679
0.37748
0.375305
0.373155
0.371028
0.368924
0.366843
0.364785
0.36275
0.360738
0.358749
0.356784
0.354842
0.352924
0.35103
0.34916
0.347314
0.345492
0.343695
0.341921
0.34017
0.338441
0.336733
0.335044
0.333374
0.33172
0.330083
0.32846
0.326851
0.325255
0.323671
0.3221
0.32054
0.318993
0.317457
0.315933
0.31442
0.312921
0.311433
0.309958
0.308495
0.307045
0.305607
0.304182
0.302768
0.301368
0.299979
0.298602
0.297236
0.295883
0.29454
0.293208
0.291887
0.290577
0.289277
0.287988
0.286708
0.285438
0.284178
0.282927
0.281686
0.280454
0.279231
0.278016
0.276811
0.275614
0.274425
0.273245
0.272073
0.27091
0.269754
0.268606
0.267465
0.266333
0.265208
0.26409
0.262979
0.261876
0.26078
0.259691
0.258609
0.257533
0.256465
0.255403
0.254347
0.253298
0.252256
0.25122
0.25019
0.249167
0.248149
0.247138
0.246132
0.245132
0.244139
0.24315
0.242168
0.241191
0.24022
0.239254
0.238293
0.237338
0.236388
0.235443
0.234503
0.233569
0.232639
0.231714
0.230794
0.229879
0.228968
0.228062
0.227161
0.226264
0.225372
0.224484
0.223601
0.222722
0.221847
0.220977
0.220111
0.219249
0.218391
0.217537
0.216687
0.215841
0.214999
0.214161
0.213327
0.212496
0.211669
0.210846
0.210027
0.209211
0.208399
0.20759
0.206784
0.205982
0.205183
0.204388
0.203595
0.202806
0.20202
0.201237
0.200457
0.199679
0.198905
0.198133
0.197364
0.196597
0.195833
0.195072
0.194313
0.193556
0.192802
0.192051
0.191302
0.190556
0.189812
0.189071
0.188332
0.187597
0.186864
0.186134
0.185407
0.184683
0.183963
0.183245
0.182531
0.181819
0.181111
0.180407
0.179705
0.179006
0.178311
0.177618
0.176928
0.176241
0.175557
0.174874
0.174194
0.173516
0.17284
0.172166
0.171493
0.170822
0.170152
0.169484
0.168817
0.168151
0.167487
0.166823
0.166161
0.1655
0.16484
0.164181
0.163524
0.162868
0.162213
0.161559
0.160907
0.160256
0.159606
0.158958
0.158311
0.157665
0.15702
0.156377
0.155735
0.155094
0.154455
0.153816
0.153179
0.152543
0.151908
0.151274
0.150641
0.150009
0.149379
0.148749
0.14812
0.147491
0.146864
0.146237
0.145612
0.144986
0.144362
0.143738
0.143115
0.142493
0.141871
0.14125
0.140629
0.140008
0.139389
0.138769
0.13815
0.137531
0.136912
0.136294
0.135676
0.135058
0.13444
0.133822
0.133205
0.132587
0.13197
0.131352
0.130735
0.130117
0.129499
0.128881
0.128263
0.127645
0.127026
0.126407
0.125788
0.125168
0.124548
0.123928
0.123307
0.122685
0.122063
0.12144
0.120817
0.120193
0.119568
0.118943
0.118318
0.117691
0.117064
0.116437
0.115809
0.11518
0.114552
0.113923
0.113295
0.112667
0.11204
0.111414
0.110789
0.110168
0.109549
0.108936
0.108328
0.107728
0.107136
0.106556
0.105989
0.105438
0.104907
0.104397
0.103911
0.103453
0.103024
0.102627
0.102263
0.101934
0.101636
0.10137
0.101129
0.100906
0.100687
0.100447
0.100145
0.0997105
0.0990222
0.0978779
0.095952
0.0927703
0.087757
0.0804818
0.0711441
0.0609414
0.0516592
0.0445865
0.0399289
0.0371626
0.0356227
0.034797
0.0343632
0.0341377
0.0340212
0.0339611
0.0339301
0.033914
0.0339057
0.0339014
0.033899
0.0338976
0.0338968
0.0338963
0.0338958
0.0338955
0.0338951
0.0338948
0.0338945
0.0338941
0.0338938
0.0338934
0.033893
0.0338926
0.0338923
0.0338919
0.0338915
0.0338911
0.0338908
0.0338904
0.0338901
0.0338898
0.0338895
0.0338892
0.0338889
0.0338887
0.0338885
0.0338884
0.0338883
0.0338882
0.0338882
0.0338882
0.0338882
0.0338883
0.0338884
0.0338886
0.0338888
0.033889
0.0338893
0.0338896
0.0338899
0.0338903
0.0338906
0.033891
0.0338913
0.0338917
0.0338921
0.0338924
0.0338928
0.0338931
0.0338934
0.0338937
0.0338939
0.0338942
0.0338944
0.0338946
0.0338947
0.0338949
0.033895
0.0338951
0.0338951
0.0338952
0.0338952
0.0338952
0.0338952
0.0338951
0.0338951
0.033895
0.033895
0.0338949
0.0338948
0.0338947
0.0338946
0.0338945
0.0338945
0.0338944
0.0338943
0.0338942
0.0338941
0.033894
0.033894
0.0338939
0.0338938
0.0338938
0.0338937
0.0338937
0.0338936
0.0338936
0.0338936
0.0338935
0.0338935
0.0338935
0.0338935
0.0338935
0.0338935
0.0338935
0.0338935
0.0338935
0.0338935
0.0338936
0.0338936
0.0338936
0.0338936
0.0338937
0.0338937
0.0338938
0.0338938
0.0338939
0.0338939
0.0338939
0.033894
0.033894
0.0338941
0.0338941
0.0338942
0.0338942
0.0338943
0.0338944
0.0338944
0.0338945
0.0338945
0.0338946
0.0338946
0.0338947
0.0338947
0.0338948
0.0338948
0.0338949
0.0338949
0.033895
0.033895
0.0338951
0.0338951
0.0338952
0.0338952
0.0338953
0.0338953
0.0338953
0.0338954
0.0338954
0.0338955
0.0338955
0.0338955
0.0338956
0.0338956
0.0338956
0.0338956
0.0338956
0.0338957
0.0338957
0.0338957
0.0338957
0.0338957
0.0338957
0.0338957
0.0338957
0.0338957
0.0338957
0.0338957
0.0338957
0.0338957
0.0338957
0.0338957
0.0338957
0.0338957
0.0338956
0.0338956
0.0338956
0.0338956
0.0338955
0.0338955
0.0338955
0.0338954
0.0338954
0.0338954
0.0338953
0.0338953
0.0338952
0.0338952
0.0338952
0.0338951
0.0338951
0.033895
0.0338949
0.0338949
0.0338948
0.0338948
0.0338947
0.0338946
0.0338946
0.0338945
0.0338944
0.0338943
0.0338942
0.0338942
0.0338941
0.0338939
0.0338938
0.0338937
0.0338936
0.0338934
0.0338933
0.0338931
0.0338929
0.0338927
0.0338925
0.0338923
0.0338921
0.0338919
0.0338916
0.0338914
0.0338911
0.0338908
0.0338905
0.0338902
0.0338899
0.0338896
0.0338893
0.0338889
0.0338886
0.0338883
0.033888
0.0338877
0.0338875
0.0338872
0.0338869
0.0338867
0.0338865
0.0338862
0.0338861
0.0338859
0.0338858
0.0338856
0.0338855
0.0338855
0.0338854
0.0338854
0.0338854
0.0338854
0.0338854
0.0338854
0.0338855
0.0338855
0.0338856
0.0338858
0.0338859
0.0338861
0.0338863
0.0338866
0.0338868
0.0338871
0.0338873
0.0338876
0.0338879
0.0338882
0.0338885
0.0338888
0.0338891
0.0338894
0.0338897
0.0338899
0.0338902
0.0338905
0.0338907
0.0338909
0.0338911
0.0338913
0.0338915
0.0338917
0.0338919
0.033892
0.0338921
0.0338922
0.0338923
0.0338924
0.0338925
0.0338926
0.0338927
0.0338927
0.0338928
0.0338928
0.0338929
0.0338929
0.0338929
0.033893
0.033893
0.033893
0.033893
0.0338931
0.0338931
0.0338931
0.0338932
0.0338932
0.0338932
0.0338933
0.0338933
0.0338933
0.0338934
0.0338934
0.0338935
0.0338935
0.0338936
0.0338936
0.0338937
0.0338938
0.0338938
0.0338939
0.0338939
0.033894
0.033894
0.0338941
0.0338942
0.0338942
0.0338943
0.0338944
0.0338944
0.0338945
0.0338946
0.0338946
0.0338947
0.0338947
0.0338948
0.0338949
0.0338949
0.033895
0.0338951
0.0338951
0.0338952
0.0338953
0.0338953
0.0338954
0.0338955
0.0338955
0.0338956
0.0338956
0.0338957
0.0338957
0.0338958
0.0338958
0.0338959
0.0338959
0.0338959
0.033896
0.033896
0.0338961
0.0338961
0.0338961
0.0338962
0.0338962
0.0338962
0.0338962
0.0338962
0.0338963
0.0338963
0.0338963
0.0338963
0.0338963
0.0338963
0.0338963
0.0338963
0.0338963
0.0338963
0.0338963
0.0338963
0.0338962
0.0338962
0.0338962
0.0338962
0.0338962
0.0338962
0.0338961
0.0338961
0.0338961
0.033896
0.033896
0.033896
0.0338959
0.0338959
0.0338959
0.0338958
0.0338958
0.0338958
0.0338957
0.0338957
0.0338956
0.0338956
0.0338955
0.0338955
0.0338954
0.0338954
0.0338953
0.0338952
0.0338952
0.0338951
0.033895
0.033895
0.0338949
0.0338948
0.0338947
0.0338946
0.0338945
0.0338944
0.0338943
0.0338942
0.0338941
0.0338939
0.0338938
0.0338937
0.0338935
0.0338934
0.0338932
0.033893
0.0338928
0.0338927
0.0338925
0.0338923
0.033892
0.0338918
0.0338916
0.0338914
0.0338911
0.0338909
0.0338907
0.0338904
0.0338902
0.0338899
0.0338897
0.0338894
0.0338891
0.0338889
0.0338886
0.0338884
0.0338881
0.0338879
0.0338877
0.0338874
0.0338872
0.033887
0.0338868
0.0338866
0.0338864
0.0338863
0.0338861
0.033886
0.0338859
0.0338858
0.0338858
0.0338857
0.0338857
0.0338857
0.0338857
0.0338857
0.0338858
0.0338859
0.033886
0.0338861
0.0338862
0.0338864
0.0338866
0.0338868
0.033887
0.0338872
0.0338875
0.0338877
0.033888
0.0338882
0.0338885
0.0338887
0.033889
0.0338892
0.0338894
0.0338897
0.0338899
0.0338901
0.0338904
0.0338906
0.0338908
0.0338909
0.0338911
0.0338913
0.0338914
0.0338916
0.0338917
0.0338918
0.033892
0.0338921
0.0338922
0.0338923
0.0338923
0.0338924
0.0338925
0.0338926
0.0338926
0.0338927
0.0338928
0.0338928
0.0338929
0.033893
0.033893
0.0338931
0.0338931
0.0338932
0.0338933
0.0338933
0.0338934
0.0338935
0.0338935
0.0338936
0.0338937
0.0338937
0.0338938
0.0338939
0.0338939
0.033894
0.0338941
0.0338942
0.0338942
0.0338943
0.0338944
0.0338945
0.0338946
0.0338946
0.0338947
0.0338948
0.0338949
0.033895
0.033895
0.0338951
0.0338952
0.0338953
0.0338953
0.0338954
0.0338955
0.0338955
0.0338956
0.0338957
0.0338958
0.0338958
0.0338959
0.033896
0.033896
0.0338961
0.0338961
0.0338962
0.0338962
0.0338963
0.0338963
0.0338964
0.0338964
0.0338964
0.0338965
0.0338965
0.0338965
0.0338966
0.0338966
0.0338966
0.0338966
0.0338966
0.0338967
0.0338967
0.0338967
0.0338967
0.0338967
0.0338967
0.0338967
0.0338967
0.0338967
0.0338967
0.0338966
0.0338966
0.0338966
0.0338966
0.0338965
0.0338965
0.0338965
0.0338965
0.0338964
0.0338964
0.0338963
0.0338963
0.0338962
0.0338962
0.0338961
0.0338961
0.033896
0.033896
0.0338959
0.0338959
0.0338958
)
;

boundaryField
{
    inlet
    {
        type            calculated;
        value           uniform 0.0976562;
    }
    outlet
    {
        type            calculated;
        value           uniform 0.0338958;
    }
    emptyWalls
    {
        type            empty;
    }
}


// ************************************************************************* //
