/*--------------------------------*- C++ -*----------------------------------*\
  =========                 |
  \\      /  F ield         | OpenFOAM: The Open Source CFD Toolbox
   \\    /   O peration     | Website:  https://openfoam.org
    \\  /    A nd           | Version:  9
     \\/     M anipulation  |
\*---------------------------------------------------------------------------*/
FoamFile
{
    format      ascii;
    class       surfaceScalarField;
    location    "9850";
    object      phia;
}
// * * * * * * * * * * * * * * * * * * * * * * * * * * * * * * * * * * * * * //

dimensions      [0 2 0 0 0 0 0];

internalField   nonuniform List<scalar> 
999
(
2.74868e-10
2.74828e-10
2.74763e-10
2.74659e-10
2.74568e-10
2.74388e-10
2.74296e-10
2.7405e-10
2.73952e-10
2.73721e-10
2.73347e-10
2.72045e-10
2.66647e-10
2.2988e-10
2.16574e-10
2.12973e-10
2.11332e-10
2.10287e-10
2.095e-10
2.08861e-10
2.08322e-10
2.07859e-10
2.07456e-10
2.07105e-10
2.06796e-10
2.06512e-10
2.06258e-10
2.06017e-10
2.05798e-10
2.05585e-10
2.05378e-10
2.05187e-10
2.05008e-10
2.04843e-10
2.04691e-10
2.0456e-10
2.04462e-10
2.04405e-10
2.0437e-10
2.04333e-10
2.04295e-10
2.04256e-10
2.04218e-10
2.0418e-10
2.04144e-10
2.04108e-10
2.04073e-10
2.04039e-10
2.04007e-10
2.03975e-10
2.03944e-10
2.03915e-10
2.03887e-10
2.0386e-10
2.03834e-10
2.0381e-10
2.03786e-10
2.03764e-10
2.03743e-10
2.03722e-10
2.03702e-10
2.03683e-10
2.03663e-10
2.03643e-10
2.03623e-10
2.03602e-10
2.03578e-10
2.03553e-10
2.03527e-10
2.035e-10
2.03475e-10
2.03453e-10
2.03437e-10
2.03426e-10
2.0342e-10
2.03417e-10
2.03416e-10
2.03415e-10
2.03415e-10
2.03417e-10
2.03427e-10
2.0345e-10
2.03492e-10
2.03559e-10
2.03654e-10
2.03779e-10
2.03934e-10
2.04116e-10
2.04322e-10
2.04548e-10
2.04787e-10
2.05033e-10
2.05279e-10
2.05517e-10
2.0574e-10
2.05937e-10
2.061e-10
2.0622e-10
2.06288e-10
2.06299e-10
2.06247e-10
2.06131e-10
2.05952e-10
2.05716e-10
2.05431e-10
2.05107e-10
2.04755e-10
2.0439e-10
2.04023e-10
2.03666e-10
2.0333e-10
2.03022e-10
2.02749e-10
2.02512e-10
2.02313e-10
2.02152e-10
2.02025e-10
2.01929e-10
2.01859e-10
2.01811e-10
2.01779e-10
2.01759e-10
2.01747e-10
2.01738e-10
2.0173e-10
2.0172e-10
2.01706e-10
2.01687e-10
2.01662e-10
2.0163e-10
2.01591e-10
2.01547e-10
2.01496e-10
2.0144e-10
2.0138e-10
2.01316e-10
2.01248e-10
2.01178e-10
2.01105e-10
2.01032e-10
2.00956e-10
2.0088e-10
2.00804e-10
2.00727e-10
2.0065e-10
2.00573e-10
2.00497e-10
2.00421e-10
2.00346e-10
2.00271e-10
2.00198e-10
2.00125e-10
2.00054e-10
1.99984e-10
1.99915e-10
1.99848e-10
1.99783e-10
1.99719e-10
1.99656e-10
1.99595e-10
1.99536e-10
1.99478e-10
1.99422e-10
1.99367e-10
1.99313e-10
1.9926e-10
1.99208e-10
1.99157e-10
1.99107e-10
1.99057e-10
1.99008e-10
1.98959e-10
1.98911e-10
1.98863e-10
1.98815e-10
1.98768e-10
1.98722e-10
1.98676e-10
1.9863e-10
1.98585e-10
1.9854e-10
1.98496e-10
1.98452e-10
1.98409e-10
1.98367e-10
1.98326e-10
1.98285e-10
1.98245e-10
1.98205e-10
1.98167e-10
1.98129e-10
1.98092e-10
1.98056e-10
1.98021e-10
1.97987e-10
1.97953e-10
1.9792e-10
1.97888e-10
1.97856e-10
1.97826e-10
1.97795e-10
1.97765e-10
1.97736e-10
1.97706e-10
1.97677e-10
1.97649e-10
1.9762e-10
1.97591e-10
1.97563e-10
1.97535e-10
1.97508e-10
1.97481e-10
1.97455e-10
1.97429e-10
1.97405e-10
1.97381e-10
1.97358e-10
1.97337e-10
1.97316e-10
1.97297e-10
1.97281e-10
1.97266e-10
1.97254e-10
1.97246e-10
1.97242e-10
1.97242e-10
1.97249e-10
1.97261e-10
1.97281e-10
1.97309e-10
1.97346e-10
1.97392e-10
1.97448e-10
1.97514e-10
1.97589e-10
1.97674e-10
1.97768e-10
1.97871e-10
1.9798e-10
1.98096e-10
1.98216e-10
1.98338e-10
1.9846e-10
1.98581e-10
1.98697e-10
1.98805e-10
1.98904e-10
1.98991e-10
1.99062e-10
1.99116e-10
1.99149e-10
1.99161e-10
1.9915e-10
1.99114e-10
1.99053e-10
1.98967e-10
1.98857e-10
1.98724e-10
1.9857e-10
1.98397e-10
1.98208e-10
1.98007e-10
1.97795e-10
1.97578e-10
1.97358e-10
1.97138e-10
1.96922e-10
1.96712e-10
1.96509e-10
1.96317e-10
1.96137e-10
1.95969e-10
1.95814e-10
1.95672e-10
1.95542e-10
1.95426e-10
1.9532e-10
1.95226e-10
1.95141e-10
1.95064e-10
1.94995e-10
1.94932e-10
1.94874e-10
1.9482e-10
1.94768e-10
1.94718e-10
1.9467e-10
1.94622e-10
1.94573e-10
1.94524e-10
1.94473e-10
1.94422e-10
1.94368e-10
1.94313e-10
1.94256e-10
1.94197e-10
1.94136e-10
1.94073e-10
1.94009e-10
1.93943e-10
1.93875e-10
1.93807e-10
1.93737e-10
1.93666e-10
1.93594e-10
1.93522e-10
1.93449e-10
1.93375e-10
1.93302e-10
1.93228e-10
1.93154e-10
1.9308e-10
1.93006e-10
1.92933e-10
1.92859e-10
1.92786e-10
1.92714e-10
1.92642e-10
1.92571e-10
1.925e-10
1.9243e-10
1.92361e-10
1.92292e-10
1.92224e-10
1.92157e-10
1.92091e-10
1.92026e-10
1.91961e-10
1.91898e-10
1.91835e-10
1.91772e-10
1.91711e-10
1.91651e-10
1.91591e-10
1.91531e-10
1.91473e-10
1.91415e-10
1.91358e-10
1.91301e-10
1.91245e-10
1.9119e-10
1.91135e-10
1.91081e-10
1.91027e-10
1.90973e-10
1.9092e-10
1.90867e-10
1.90815e-10
1.90763e-10
1.90712e-10
1.90661e-10
1.9061e-10
1.90559e-10
1.90509e-10
1.90459e-10
1.90409e-10
1.9036e-10
1.90311e-10
1.90263e-10
1.90215e-10
1.90167e-10
1.9012e-10
1.90073e-10
1.90027e-10
1.89981e-10
1.89937e-10
1.89891e-10
1.8985e-10
1.89806e-10
1.89766e-10
1.89725e-10
1.89688e-10
1.89652e-10
1.89617e-10
1.89587e-10
1.89555e-10
1.89531e-10
1.89505e-10
1.89486e-10
1.89469e-10
1.89453e-10
1.89444e-10
1.89432e-10
1.89429e-10
1.89422e-10
1.89416e-10
1.8941e-10
1.8939e-10
1.89361e-10
1.89296e-10
1.89181e-10
1.88981e-10
1.88645e-10
1.88147e-10
1.87481e-10
1.86754e-10
1.86125e-10
1.85701e-10
1.85481e-10
1.85381e-10
1.85351e-10
1.85353e-10
1.85368e-10
1.85398e-10
1.8543e-10
1.85467e-10
1.85508e-10
1.85553e-10
1.85602e-10
1.85654e-10
1.8571e-10
1.8577e-10
1.85834e-10
1.85902e-10
1.85974e-10
1.8605e-10
1.8613e-10
1.86214e-10
1.86301e-10
1.86392e-10
1.86485e-10
1.86582e-10
1.8668e-10
1.8678e-10
1.86881e-10
1.86983e-10
1.87084e-10
1.87184e-10
1.87283e-10
1.87378e-10
1.87471e-10
1.87559e-10
1.87642e-10
1.8772e-10
1.87791e-10
1.87853e-10
1.87907e-10
1.87952e-10
1.87985e-10
1.88007e-10
1.88018e-10
1.88021e-10
1.88021e-10
1.88017e-10
1.8799e-10
1.87948e-10
1.87895e-10
1.87833e-10
1.87762e-10
1.87684e-10
1.87598e-10
1.87506e-10
1.87409e-10
1.87308e-10
1.87204e-10
1.87098e-10
1.86991e-10
1.86884e-10
1.86778e-10
1.86675e-10
1.86574e-10
1.86477e-10
1.86385e-10
1.86297e-10
1.86215e-10
1.86138e-10
1.86066e-10
1.86001e-10
1.85941e-10
1.85887e-10
1.85839e-10
1.85795e-10
1.85757e-10
1.85723e-10
1.85694e-10
1.85668e-10
1.85646e-10
1.85627e-10
1.85611e-10
1.85597e-10
1.85585e-10
1.85575e-10
1.85566e-10
1.85558e-10
1.8555e-10
1.85543e-10
1.85536e-10
1.85529e-10
1.85522e-10
1.85515e-10
1.85507e-10
1.85499e-10
1.8549e-10
1.8548e-10
1.8547e-10
1.85459e-10
1.85447e-10
1.85435e-10
1.85421e-10
1.85408e-10
1.85393e-10
1.85378e-10
1.85363e-10
1.85347e-10
1.85331e-10
1.85314e-10
1.85297e-10
1.8528e-10
1.85262e-10
1.85244e-10
1.85226e-10
1.85209e-10
1.85191e-10
1.85173e-10
1.85155e-10
1.85137e-10
1.85119e-10
1.85102e-10
1.85084e-10
1.85067e-10
1.8505e-10
1.85034e-10
1.85018e-10
1.85002e-10
1.84986e-10
1.84971e-10
1.84957e-10
1.84943e-10
1.84929e-10
1.84916e-10
1.84903e-10
1.84891e-10
1.8488e-10
1.84869e-10
1.84859e-10
1.84849e-10
1.8484e-10
1.84832e-10
1.84824e-10
1.84817e-10
1.84811e-10
1.84805e-10
1.848e-10
1.84795e-10
1.84791e-10
1.84787e-10
1.84785e-10
1.84782e-10
1.84781e-10
1.84779e-10
1.84779e-10
1.84778e-10
1.84778e-10
1.84778e-10
1.84779e-10
1.8478e-10
1.84782e-10
1.84785e-10
1.84787e-10
1.8479e-10
1.84793e-10
1.84797e-10
1.84801e-10
1.84805e-10
1.84809e-10
1.84814e-10
1.84819e-10
1.84824e-10
1.8483e-10
1.84836e-10
1.84842e-10
1.84848e-10
1.84854e-10
1.84861e-10
1.84868e-10
1.84876e-10
1.84883e-10
1.84891e-10
1.84899e-10
1.84907e-10
1.84916e-10
1.84925e-10
1.84934e-10
1.84943e-10
1.84953e-10
1.84963e-10
1.84974e-10
1.84984e-10
1.84996e-10
1.85007e-10
1.85019e-10
1.85031e-10
1.85044e-10
1.85058e-10
1.85072e-10
1.85086e-10
1.85102e-10
1.85118e-10
1.85134e-10
1.85152e-10
1.85171e-10
1.8519e-10
1.85211e-10
1.85234e-10
1.85257e-10
1.85282e-10
1.85309e-10
1.85337e-10
1.85367e-10
1.854e-10
1.85434e-10
1.85471e-10
1.8551e-10
1.85551e-10
1.85596e-10
1.85643e-10
1.85692e-10
1.85745e-10
1.858e-10
1.85858e-10
1.8592e-10
1.85984e-10
1.86051e-10
1.8612e-10
1.86192e-10
1.86267e-10
1.86344e-10
1.86423e-10
1.86504e-10
1.86586e-10
1.86669e-10
1.86753e-10
1.86837e-10
1.86921e-10
1.87004e-10
1.87086e-10
1.87166e-10
1.87244e-10
1.87319e-10
1.8739e-10
1.87458e-10
1.87521e-10
1.87578e-10
1.87631e-10
1.87676e-10
1.87716e-10
1.87748e-10
1.87772e-10
1.87789e-10
1.87798e-10
1.878e-10
1.87801e-10
1.87798e-10
1.87783e-10
1.87752e-10
1.87713e-10
1.87668e-10
1.87615e-10
1.87556e-10
1.87492e-10
1.87422e-10
1.87348e-10
1.87271e-10
1.8719e-10
1.87108e-10
1.87024e-10
1.8694e-10
1.86855e-10
1.86772e-10
1.8669e-10
1.8661e-10
1.86532e-10
1.86457e-10
1.86385e-10
1.86317e-10
1.86253e-10
1.86192e-10
1.86136e-10
1.86084e-10
1.86035e-10
1.85991e-10
1.8595e-10
1.85913e-10
1.85879e-10
1.85849e-10
1.85822e-10
1.85797e-10
1.85775e-10
1.85755e-10
1.85737e-10
1.8572e-10
1.85706e-10
1.85692e-10
1.85679e-10
1.85667e-10
1.85656e-10
1.85645e-10
1.85634e-10
1.85623e-10
1.85612e-10
1.85601e-10
1.8559e-10
1.85579e-10
1.85567e-10
1.85554e-10
1.85541e-10
1.85528e-10
1.85514e-10
1.855e-10
1.85485e-10
1.8547e-10
1.85454e-10
1.85437e-10
1.85421e-10
1.85404e-10
1.85386e-10
1.85368e-10
1.8535e-10
1.85332e-10
1.85313e-10
1.85294e-10
1.85275e-10
1.85256e-10
1.85237e-10
1.85218e-10
1.85198e-10
1.85179e-10
1.8516e-10
1.85141e-10
1.85122e-10
1.85103e-10
1.85084e-10
1.85066e-10
1.85047e-10
1.85029e-10
1.85011e-10
1.84993e-10
1.84976e-10
1.84959e-10
1.84943e-10
1.84926e-10
1.84911e-10
1.84895e-10
1.8488e-10
1.84866e-10
1.84852e-10
1.84838e-10
1.84825e-10
1.84813e-10
1.84801e-10
1.8479e-10
1.84779e-10
1.84769e-10
1.8476e-10
1.84751e-10
1.84743e-10
1.84735e-10
1.84729e-10
1.84722e-10
1.84717e-10
1.84712e-10
1.84708e-10
1.84704e-10
1.84701e-10
1.84699e-10
1.84697e-10
1.84696e-10
1.84696e-10
1.84696e-10
1.84696e-10
1.84696e-10
1.84698e-10
1.84701e-10
1.84704e-10
1.84708e-10
1.84712e-10
1.84716e-10
1.84721e-10
1.84727e-10
1.84733e-10
1.8474e-10
1.84747e-10
1.84754e-10
1.84762e-10
1.8477e-10
1.84779e-10
1.84788e-10
1.84797e-10
1.84807e-10
1.84818e-10
1.84828e-10
1.84839e-10
1.84851e-10
1.84863e-10
1.84875e-10
1.84888e-10
1.84902e-10
1.84915e-10
1.8493e-10
1.84945e-10
1.8496e-10
1.84976e-10
1.84993e-10
1.85011e-10
1.85029e-10
1.85049e-10
1.85069e-10
1.8509e-10
1.85112e-10
1.85135e-10
1.8516e-10
1.85185e-10
1.85212e-10
1.85241e-10
1.85271e-10
1.85303e-10
1.85336e-10
1.85371e-10
1.85409e-10
1.85448e-10
1.85489e-10
1.85532e-10
1.85577e-10
1.85624e-10
1.85674e-10
1.85726e-10
1.8578e-10
1.85836e-10
1.85895e-10
1.85955e-10
1.86018e-10
1.86082e-10
1.86149e-10
1.86217e-10
1.86286e-10
1.86357e-10
1.86429e-10
1.86502e-10
1.86575e-10
1.86649e-10
1.86723e-10
1.86796e-10
1.86868e-10
1.8694e-10
1.8701e-10
1.87078e-10
1.87144e-10
1.87207e-10
1.87267e-10
1.87324e-10
1.87377e-10
1.87425e-10
1.87469e-10
1.87508e-10
1.87542e-10
1.8757e-10
1.87592e-10
1.87608e-10
1.87618e-10
1.87622e-10
1.87623e-10
1.87623e-10
1.87618e-10
1.87597e-10
1.8757e-10
1.87537e-10
1.87498e-10
1.87454e-10
1.87405e-10
1.87352e-10
1.87294e-10
1.87234e-10
1.8717e-10
1.87104e-10
1.87036e-10
1.86967e-10
1.86897e-10
1.86827e-10
1.86757e-10
1.86687e-10
1.86619e-10
1.86552e-10
1.86487e-10
1.86424e-10
1.86363e-10
1.86305e-10
1.8625e-10
1.86197e-10
1.86148e-10
1.86101e-10
1.86057e-10
1.86015e-10
1.85977e-10
1.85941e-10
1.85907e-10
1.85876e-10
1.85847e-10
1.85821e-10
1.85795e-10
1.85772e-10
1.8575e-10
1.85729e-10
1.8571e-10
1.85691e-10
1.85673e-10
1.85656e-10
1.85639e-10
1.85622e-10
1.85606e-10
1.8559e-10
1.85574e-10
1.85558e-10
1.85541e-10
1.85525e-10
1.85508e-10
1.85491e-10
1.85473e-10
1.85456e-10
1.85437e-10
1.85419e-10
1.854e-10
1.85381e-10
1.85362e-10
1.85342e-10
1.85322e-10
1.85302e-10
1.85281e-10
1.85261e-10
1.8524e-10
1.85219e-10
1.85198e-10
1.85177e-10
1.85156e-10
1.85135e-10
1.85114e-10
1.85093e-10
1.85072e-10
1.85052e-10
1.85031e-10
1.85011e-10
1.84991e-10
1.84971e-10
1.84951e-10
1.84932e-10
1.84913e-10
1.84895e-10
1.84877e-10
1.84859e-10
1.84842e-10
1.84825e-10
1.84808e-10
1.84793e-10
1.84777e-10
1.84763e-10
1.84748e-10
1.84735e-10
1.84722e-10
1.8471e-10
1.84698e-10
1.84687e-10
1.84677e-10
1.84668e-10
1.84659e-10
1.84651e-10
1.84644e-10
1.84638e-10
1.84632e-10
1.84628e-10
1.84624e-10
1.84621e-10
1.84618e-10
1.84617e-10
1.84617e-10
1.84617e-10
1.84617e-10
1.84618e-10
1.8462e-10
1.84623e-10
1.84626e-10
1.84631e-10
1.84636e-10
1.84643e-10
1.84649e-10
1.84657e-10
1.84666e-10
1.84675e-10
1.84685e-10
1.84696e-10
1.84706e-10
1.84718e-10
1.8473e-10
1.84742e-10
1.84755e-10
1.84768e-10
1.84782e-10
1.84796e-10
1.84811e-10
1.84826e-10
1.84842e-10
)
;

boundaryField
{
    inlet
    {
        type            calculated;
        value           uniform -2.74882e-10;
    }
    outlet
    {
        type            calculated;
        value           uniform 1.84858e-10;
    }
    emptyWalls
    {
        type            empty;
        value           nonuniform List<scalar> 0();
    }
}


// ************************************************************************* //
