/*--------------------------------*- C++ -*----------------------------------*\
  =========                 |
  \\      /  F ield         | OpenFOAM: The Open Source CFD Toolbox
   \\    /   O peration     | Website:  https://openfoam.org
    \\  /    A nd           | Version:  9
     \\/     M anipulation  |
\*---------------------------------------------------------------------------*/
FoamFile
{
    format      ascii;
    class       surfaceScalarField;
    location    "9850";
    object      phic;
}
// * * * * * * * * * * * * * * * * * * * * * * * * * * * * * * * * * * * * * //

dimensions      [0 2 0 0 0 0 0];

internalField   nonuniform List<scalar> 
999
(
6.35276e-15
2.89554e-14
6.69099e-14
1.18089e-13
1.80339e-13
2.50308e-13
3.23722e-13
3.96027e-13
4.65928e-13
5.46089e-13
7.20196e-13
1.3253e-12
3.66885e-12
1.62413e-11
2.02351e-11
2.14299e-11
2.20133e-11
2.24061e-11
2.27183e-11
2.2988e-11
2.32312e-11
2.3455e-11
2.3664e-11
2.38612e-11
2.40499e-11
2.42336e-11
2.44158e-11
2.45998e-11
2.47885e-11
2.49888e-11
2.52109e-11
2.54495e-11
2.57124e-11
2.60126e-11
2.637e-11
2.68099e-11
2.73565e-11
2.80181e-11
2.87788e-11
2.96107e-11
3.04916e-11
3.14073e-11
3.23487e-11
3.331e-11
3.42869e-11
3.52767e-11
3.62775e-11
3.72876e-11
3.83061e-11
3.93321e-11
4.03649e-11
4.14041e-11
4.24491e-11
4.34997e-11
4.45556e-11
4.56164e-11
4.6682e-11
4.77522e-11
4.88267e-11
4.99055e-11
5.09884e-11
5.20753e-11
5.3166e-11
5.42606e-11
5.53589e-11
5.64608e-11
5.75663e-11
5.86754e-11
5.97878e-11
6.09036e-11
6.20225e-11
6.31444e-11
6.42693e-11
6.5397e-11
6.65274e-11
6.76606e-11
6.87967e-11
6.99356e-11
7.10773e-11
7.22216e-11
7.33682e-11
7.45169e-11
7.56672e-11
7.68189e-11
7.79716e-11
7.91253e-11
8.02797e-11
8.14349e-11
8.2591e-11
8.37482e-11
8.49067e-11
8.60669e-11
8.7229e-11
8.83935e-11
8.95608e-11
9.07315e-11
9.19063e-11
9.30856e-11
9.42702e-11
9.54605e-11
9.66568e-11
9.78596e-11
9.90687e-11
1.00284e-10
1.01505e-10
1.02732e-10
1.03963e-10
1.05198e-10
1.06435e-10
1.07675e-10
1.08916e-10
1.10157e-10
1.11399e-10
1.12641e-10
1.13882e-10
1.15123e-10
1.16364e-10
1.17605e-10
1.18846e-10
1.20087e-10
1.2133e-10
1.22573e-10
1.23819e-10
1.25066e-10
1.26315e-10
1.27566e-10
1.2882e-10
1.30076e-10
1.31335e-10
1.32596e-10
1.33861e-10
1.35128e-10
1.36397e-10
1.3767e-10
1.38945e-10
1.40222e-10
1.41502e-10
1.42785e-10
1.4407e-10
1.45357e-10
1.46647e-10
1.47939e-10
1.49233e-10
1.50529e-10
1.51828e-10
1.53129e-10
1.54433e-10
1.55738e-10
1.57046e-10
1.58356e-10
1.59668e-10
1.60983e-10
1.62299e-10
1.63618e-10
1.64939e-10
1.66262e-10
1.67587e-10
1.68914e-10
1.70244e-10
1.71575e-10
1.72909e-10
1.74245e-10
1.75583e-10
1.76923e-10
1.78266e-10
1.79611e-10
1.80958e-10
1.82307e-10
1.83659e-10
1.85013e-10
1.86369e-10
1.87728e-10
1.89089e-10
1.90452e-10
1.91818e-10
1.93186e-10
1.94557e-10
1.9593e-10
1.97305e-10
1.98683e-10
2.00063e-10
2.01446e-10
2.02832e-10
2.04219e-10
2.0561e-10
2.07002e-10
2.08397e-10
2.09795e-10
2.11195e-10
2.12598e-10
2.14003e-10
2.15411e-10
2.16821e-10
2.18234e-10
2.1965e-10
2.21068e-10
2.22488e-10
2.23912e-10
2.25338e-10
2.26766e-10
2.28197e-10
2.29632e-10
2.31068e-10
2.32508e-10
2.3395e-10
2.35396e-10
2.36844e-10
2.38295e-10
2.39749e-10
2.41206e-10
2.42665e-10
2.44128e-10
2.45594e-10
2.47062e-10
2.48533e-10
2.50008e-10
2.51485e-10
2.52965e-10
2.54448e-10
2.55934e-10
2.57422e-10
2.58914e-10
2.60408e-10
2.61905e-10
2.63404e-10
2.64905e-10
2.66409e-10
2.67915e-10
2.69423e-10
2.70933e-10
2.72444e-10
2.73957e-10
2.75471e-10
2.76987e-10
2.78504e-10
2.80023e-10
2.81543e-10
2.83065e-10
2.84589e-10
2.86115e-10
2.87643e-10
2.89174e-10
2.90709e-10
2.92248e-10
2.93791e-10
2.95339e-10
2.96892e-10
2.98452e-10
3.00019e-10
3.01593e-10
3.03176e-10
3.04767e-10
3.06367e-10
3.07976e-10
3.09595e-10
3.11224e-10
3.12863e-10
3.14511e-10
3.16169e-10
3.17836e-10
3.19511e-10
3.21194e-10
3.22884e-10
3.24581e-10
3.26283e-10
3.27991e-10
3.29704e-10
3.3142e-10
3.3314e-10
3.34862e-10
3.36588e-10
3.38316e-10
3.40046e-10
3.41779e-10
3.43514e-10
3.45252e-10
3.46992e-10
3.48735e-10
3.50482e-10
3.52232e-10
3.53986e-10
3.55744e-10
3.57507e-10
3.59274e-10
3.61047e-10
3.62826e-10
3.6461e-10
3.664e-10
3.68196e-10
3.69999e-10
3.71809e-10
3.73625e-10
3.75448e-10
3.77279e-10
3.79116e-10
3.80961e-10
3.82813e-10
3.84673e-10
3.8654e-10
3.88415e-10
3.90298e-10
3.92188e-10
3.94087e-10
3.95993e-10
3.97907e-10
3.99829e-10
4.0176e-10
4.03698e-10
4.05645e-10
4.076e-10
4.09563e-10
4.11535e-10
4.13516e-10
4.15505e-10
4.17503e-10
4.19509e-10
4.21525e-10
4.2355e-10
4.25585e-10
4.27629e-10
4.29682e-10
4.31745e-10
4.33818e-10
4.35901e-10
4.37994e-10
4.40097e-10
4.4221e-10
4.44335e-10
4.4647e-10
4.48616e-10
4.50773e-10
4.52942e-10
4.55122e-10
4.57313e-10
4.59517e-10
4.61733e-10
4.63961e-10
4.66202e-10
4.68456e-10
4.70723e-10
4.73003e-10
4.75296e-10
4.77603e-10
4.79924e-10
4.82259e-10
4.84609e-10
4.86973e-10
4.89352e-10
4.91746e-10
4.94155e-10
4.96579e-10
4.99018e-10
5.01472e-10
5.03942e-10
5.06427e-10
5.08927e-10
5.11441e-10
5.13969e-10
5.1651e-10
5.19064e-10
5.21628e-10
5.24203e-10
5.26785e-10
5.29371e-10
5.31958e-10
5.34541e-10
5.37117e-10
5.39677e-10
5.42216e-10
5.44723e-10
5.47191e-10
5.49604e-10
5.51953e-10
5.54225e-10
5.56403e-10
5.5848e-10
5.60435e-10
5.62263e-10
5.6395e-10
5.65493e-10
5.66892e-10
5.68151e-10
5.69288e-10
5.70326e-10
5.7132e-10
5.72353e-10
5.73574e-10
5.75243e-10
5.77799e-10
5.82005e-10
5.89131e-10
6.012e-10
6.2113e-10
6.52327e-10
6.97084e-10
7.53616e-10
8.14234e-10
8.68371e-10
9.08972e-10
9.35403e-10
9.50975e-10
9.59595e-10
9.64195e-10
9.66591e-10
9.67823e-10
9.68442e-10
9.68744e-10
9.68881e-10
9.68931e-10
9.68935e-10
9.68914e-10
9.68879e-10
9.68835e-10
9.68784e-10
9.68729e-10
9.6867e-10
9.68607e-10
9.68542e-10
9.68473e-10
9.68402e-10
9.68328e-10
9.68252e-10
9.68175e-10
9.68096e-10
9.68017e-10
9.67937e-10
9.67857e-10
9.67778e-10
9.67701e-10
9.67625e-10
9.67552e-10
9.67483e-10
9.67417e-10
9.67356e-10
9.673e-10
9.67251e-10
9.67208e-10
9.67174e-10
9.67147e-10
9.6713e-10
9.67121e-10
9.67119e-10
9.67119e-10
9.67122e-10
9.67143e-10
9.67177e-10
9.67218e-10
9.67267e-10
9.67323e-10
9.67385e-10
9.67452e-10
9.67525e-10
9.67601e-10
9.67681e-10
9.67763e-10
9.67847e-10
9.67932e-10
9.68016e-10
9.681e-10
9.68181e-10
9.68261e-10
9.68338e-10
9.68411e-10
9.68481e-10
9.68546e-10
9.68608e-10
9.68664e-10
9.68717e-10
9.68764e-10
9.68808e-10
9.68847e-10
9.68882e-10
9.68913e-10
9.6894e-10
9.68964e-10
9.68985e-10
9.69003e-10
9.69019e-10
9.69033e-10
9.69045e-10
9.69055e-10
9.69064e-10
9.69072e-10
9.69079e-10
9.69086e-10
9.69093e-10
9.69099e-10
9.69105e-10
9.69111e-10
9.69118e-10
9.69125e-10
9.69132e-10
9.6914e-10
9.69149e-10
9.69157e-10
9.69167e-10
9.69177e-10
9.69187e-10
9.69198e-10
9.69209e-10
9.69221e-10
9.69234e-10
9.69246e-10
9.69259e-10
9.69273e-10
9.69286e-10
9.693e-10
9.69314e-10
9.69328e-10
9.69342e-10
9.69357e-10
9.69371e-10
9.69386e-10
9.694e-10
9.69414e-10
9.69429e-10
9.69443e-10
9.69457e-10
9.69471e-10
9.69484e-10
9.69498e-10
9.69511e-10
9.69524e-10
9.69536e-10
9.69548e-10
9.6956e-10
9.69572e-10
9.69583e-10
9.69593e-10
9.69604e-10
9.69613e-10
9.69623e-10
9.69632e-10
9.6964e-10
9.69648e-10
9.69656e-10
9.69662e-10
9.69669e-10
9.69675e-10
9.6968e-10
9.69685e-10
9.6969e-10
9.69694e-10
9.69697e-10
9.697e-10
9.69702e-10
9.69704e-10
9.69706e-10
9.69707e-10
9.69708e-10
9.69708e-10
9.69708e-10
9.69708e-10
9.69708e-10
9.69707e-10
9.69706e-10
9.69704e-10
9.69702e-10
9.697e-10
9.69697e-10
9.69694e-10
9.69691e-10
9.69688e-10
9.69685e-10
9.69681e-10
9.69677e-10
9.69673e-10
9.69669e-10
9.69664e-10
9.6966e-10
9.69655e-10
9.6965e-10
9.69645e-10
9.69639e-10
9.69633e-10
9.69628e-10
9.69622e-10
9.69615e-10
9.69609e-10
9.69602e-10
9.69596e-10
9.69589e-10
9.69581e-10
9.69574e-10
9.69566e-10
9.69558e-10
9.6955e-10
9.69542e-10
9.69533e-10
9.69524e-10
9.69514e-10
9.69505e-10
9.69495e-10
9.69484e-10
9.69473e-10
9.69462e-10
9.6945e-10
9.69437e-10
9.69424e-10
9.6941e-10
9.69395e-10
9.6938e-10
9.69363e-10
9.69346e-10
9.69327e-10
9.69308e-10
9.69287e-10
9.69264e-10
9.6924e-10
9.69215e-10
9.69188e-10
9.69159e-10
9.69129e-10
9.69096e-10
9.69061e-10
9.69025e-10
9.68986e-10
9.68945e-10
9.68901e-10
9.68855e-10
9.68807e-10
9.68757e-10
9.68704e-10
9.6865e-10
9.68593e-10
9.68535e-10
9.68474e-10
9.68412e-10
9.68349e-10
9.68284e-10
9.68219e-10
9.68153e-10
9.68086e-10
9.6802e-10
9.67954e-10
9.6789e-10
9.67826e-10
9.67764e-10
9.67705e-10
9.67648e-10
9.67594e-10
9.67544e-10
9.67498e-10
9.67456e-10
9.6742e-10
9.67388e-10
9.67362e-10
9.67343e-10
9.67329e-10
9.67322e-10
9.67319e-10
9.67319e-10
9.67321e-10
9.67332e-10
9.67357e-10
9.67387e-10
9.67423e-10
9.67464e-10
9.67511e-10
9.67561e-10
9.67616e-10
9.67675e-10
9.67736e-10
9.67799e-10
9.67864e-10
9.6793e-10
9.67997e-10
9.68063e-10
9.68129e-10
9.68194e-10
9.68257e-10
9.68319e-10
9.68378e-10
9.68434e-10
9.68488e-10
9.68539e-10
9.68587e-10
9.68631e-10
9.68673e-10
9.68711e-10
9.68746e-10
9.68778e-10
9.68808e-10
9.68834e-10
9.68858e-10
9.6888e-10
9.68899e-10
9.68917e-10
9.68933e-10
9.68947e-10
9.6896e-10
9.68972e-10
9.68983e-10
9.68993e-10
9.69002e-10
9.69011e-10
9.6902e-10
9.69029e-10
9.69037e-10
9.69046e-10
9.69055e-10
9.69063e-10
9.69073e-10
9.69082e-10
9.69092e-10
9.69102e-10
9.69113e-10
9.69124e-10
9.69135e-10
9.69147e-10
9.69159e-10
9.69172e-10
9.69185e-10
9.69198e-10
9.69211e-10
9.69225e-10
9.69239e-10
9.69254e-10
9.69268e-10
9.69283e-10
9.69298e-10
9.69313e-10
9.69328e-10
9.69343e-10
9.69358e-10
9.69374e-10
9.69389e-10
9.69404e-10
9.69419e-10
9.69434e-10
9.69449e-10
9.69464e-10
9.69479e-10
9.69493e-10
9.69507e-10
9.69522e-10
9.69535e-10
9.69549e-10
9.69562e-10
9.69575e-10
9.69588e-10
9.69601e-10
9.69613e-10
9.69625e-10
9.69636e-10
9.69647e-10
9.69658e-10
9.69668e-10
9.69678e-10
9.69687e-10
9.69696e-10
9.69704e-10
9.69712e-10
9.69719e-10
9.69726e-10
9.69732e-10
9.69738e-10
9.69744e-10
9.69749e-10
9.69753e-10
9.69757e-10
9.6976e-10
9.69763e-10
9.69765e-10
9.69767e-10
9.69768e-10
9.69769e-10
9.69769e-10
9.69769e-10
9.69769e-10
9.69769e-10
9.69767e-10
9.69765e-10
9.69763e-10
9.6976e-10
9.69757e-10
9.69753e-10
9.69749e-10
9.69745e-10
9.6974e-10
9.69735e-10
9.69729e-10
9.69723e-10
9.69717e-10
9.69711e-10
9.69704e-10
9.69697e-10
9.69689e-10
9.69681e-10
9.69673e-10
9.69665e-10
9.69656e-10
9.69647e-10
9.69638e-10
9.69628e-10
9.69618e-10
9.69607e-10
9.69596e-10
9.69585e-10
9.69573e-10
9.69561e-10
9.69548e-10
9.69535e-10
9.69521e-10
9.69507e-10
9.69491e-10
9.69476e-10
9.69459e-10
9.69442e-10
9.69423e-10
9.69404e-10
9.69384e-10
9.69362e-10
9.6934e-10
9.69316e-10
9.69291e-10
9.69265e-10
9.69237e-10
9.69208e-10
9.69178e-10
9.69145e-10
9.69111e-10
9.69076e-10
9.69039e-10
9.68999e-10
9.68959e-10
9.68916e-10
9.68872e-10
9.68826e-10
9.68778e-10
9.68729e-10
9.68678e-10
9.68626e-10
9.68572e-10
9.68517e-10
9.68461e-10
9.68405e-10
9.68347e-10
9.68289e-10
9.68231e-10
9.68173e-10
9.68115e-10
9.68058e-10
9.68001e-10
9.67946e-10
9.67892e-10
9.6784e-10
9.6779e-10
9.67743e-10
9.67698e-10
9.67656e-10
9.67618e-10
9.67583e-10
9.67552e-10
9.67526e-10
9.67504e-10
9.67486e-10
9.67473e-10
9.67466e-10
9.67462e-10
9.67462e-10
9.67462e-10
9.67465e-10
9.67482e-10
9.67503e-10
9.6753e-10
9.6756e-10
9.67595e-10
9.67634e-10
9.67676e-10
9.67721e-10
9.67769e-10
9.67819e-10
9.67871e-10
9.67924e-10
9.67979e-10
9.68034e-10
9.6809e-10
9.68145e-10
9.68199e-10
9.68253e-10
9.68306e-10
9.68357e-10
9.68407e-10
9.68455e-10
9.685e-10
9.68544e-10
9.68586e-10
9.68625e-10
9.68662e-10
9.68697e-10
9.68729e-10
9.6876e-10
9.68788e-10
9.68814e-10
9.68839e-10
9.68861e-10
9.68883e-10
9.68903e-10
9.68921e-10
9.68938e-10
9.68955e-10
9.6897e-10
9.68985e-10
9.68999e-10
9.69013e-10
9.69026e-10
9.69039e-10
9.69052e-10
9.69064e-10
9.69077e-10
9.6909e-10
9.69103e-10
9.69116e-10
9.69129e-10
9.69143e-10
9.69156e-10
9.6917e-10
9.69185e-10
9.69199e-10
9.69214e-10
9.69229e-10
9.69244e-10
9.6926e-10
9.69276e-10
9.69291e-10
9.69308e-10
9.69324e-10
9.6934e-10
9.69356e-10
9.69373e-10
9.6939e-10
9.69406e-10
9.69423e-10
9.69439e-10
9.69456e-10
9.69472e-10
9.69488e-10
9.69504e-10
9.6952e-10
9.69536e-10
9.69552e-10
9.69567e-10
9.69582e-10
9.69597e-10
9.69612e-10
9.69626e-10
9.6964e-10
9.69654e-10
9.69667e-10
9.6968e-10
9.69692e-10
9.69704e-10
9.69716e-10
9.69727e-10
9.69738e-10
9.69748e-10
9.69758e-10
9.69767e-10
9.69775e-10
9.69783e-10
9.69791e-10
9.69797e-10
9.69804e-10
9.69809e-10
9.69814e-10
9.69819e-10
9.69822e-10
9.69825e-10
9.69828e-10
9.6983e-10
9.6983e-10
9.69831e-10
9.69831e-10
9.69831e-10
9.6983e-10
9.69828e-10
9.69826e-10
9.69824e-10
9.6982e-10
9.69816e-10
9.6981e-10
9.69805e-10
9.69799e-10
9.69792e-10
9.69785e-10
9.69777e-10
9.69769e-10
9.6976e-10
9.69751e-10
9.69742e-10
9.69732e-10
9.69722e-10
9.69712e-10
9.69701e-10
9.6969e-10
9.69677e-10
9.69666e-10
9.69654e-10
)
;

boundaryField
{
    inlet
    {
        type            calculated;
        value           uniform 0;
    }
    outlet
    {
        type            calculated;
        value           uniform 9.69641e-10;
    }
    emptyWalls
    {
        type            empty;
        value           nonuniform List<scalar> 0();
    }
}


// ************************************************************************* //
