/*--------------------------------*- C++ -*----------------------------------*\
  =========                 |
  \\      /  F ield         | OpenFOAM: The Open Source CFD Toolbox
   \\    /   O peration     | Website:  https://openfoam.org
    \\  /    A nd           | Version:  9
     \\/     M anipulation  |
\*---------------------------------------------------------------------------*/
FoamFile
{
    format      ascii;
    class       volScalarField;
    location    "7300";
    object      krb;
}
// * * * * * * * * * * * * * * * * * * * * * * * * * * * * * * * * * * * * * //

dimensions      [0 0 0 0 0 0 0];

internalField   nonuniform List<scalar> 
1000
(
0.0984461
0.0997705
0.101643
0.103156
0.104719
0.10604
0.107404
0.109589
0.116288
0.151149
0.361927
0.478046
0.504027
0.514567
0.520339
0.523891
0.526227
0.527827
0.52893
0.529638
0.530052
0.530272
0.530244
0.529932
0.529189
0.527828
0.525552
0.52209
0.517592
0.512595
0.507379
0.502082
0.496784
0.491532
0.486355
0.48127
0.476285
0.471406
0.466634
0.461968
0.457407
0.452948
0.448589
0.444324
0.440153
0.436071
0.432074
0.42816
0.424326
0.420569
0.416887
0.413276
0.409734
0.40626
0.402851
0.399505
0.396219
0.392992
0.389822
0.386708
0.383647
0.380638
0.377679
0.374769
0.371907
0.36909
0.366318
0.36359
0.360903
0.358258
0.355652
0.353085
0.350556
0.348063
0.345606
0.343183
0.340794
0.338438
0.336114
0.33382
0.331558
0.329325
0.32712
0.324944
0.322795
0.320674
0.318578
0.316508
0.314463
0.312442
0.310445
0.308472
0.306521
0.304593
0.302686
0.300801
0.298936
0.297093
0.295269
0.293465
0.29168
0.289913
0.288166
0.286436
0.284724
0.283029
0.281351
0.27969
0.278045
0.276416
0.274803
0.273205
0.271622
0.270054
0.268501
0.266961
0.265436
0.263925
0.262427
0.260942
0.25947
0.25801
0.256563
0.255128
0.253705
0.252294
0.250895
0.249506
0.248129
0.246763
0.245407
0.244062
0.242727
0.241402
0.240087
0.238781
0.237485
0.236197
0.234918
0.233648
0.232386
0.231132
0.229887
0.22865
0.227421
0.2262
0.224988
0.223784
0.222588
0.221401
0.220222
0.219052
0.21789
0.216738
0.215594
0.214459
0.213333
0.212216
0.211107
0.210007
0.208915
0.20783
0.206754
0.205684
0.204621
0.203564
0.202513
0.201467
0.200427
0.199392
0.198361
0.197335
0.196312
0.195295
0.194281
0.193272
0.192266
0.191265
0.190268
0.189276
0.188287
0.187303
0.186324
0.185348
0.184377
0.183411
0.182448
0.18149
0.180537
0.179587
0.178642
0.177701
0.176763
0.17583
0.174901
0.173975
0.173053
0.172135
0.17122
0.170308
0.1694
0.168495
0.167593
0.166695
0.165799
0.164906
0.164016
0.163129
0.162245
0.161364
0.160485
0.159608
0.158734
0.157862
0.156993
0.156126
0.155261
0.154398
0.153537
0.152678
0.151821
0.150966
0.150113
0.149261
0.148412
0.147563
0.146716
0.145871
0.145026
0.144183
0.143342
0.142501
0.141662
0.140823
0.139986
0.139149
0.138313
0.137478
0.136643
0.135809
0.134975
0.134142
0.133308
0.132475
0.131642
0.13081
0.129977
0.129144
0.12831
0.127477
0.126643
0.125808
0.124973
0.124138
0.123301
0.122465
0.121627
0.120789
0.119949
0.119109
0.118269
0.117428
0.116587
0.115746
0.114905
0.114065
0.113227
0.112392
0.111561
0.110735
0.109918
0.109111
0.108317
0.10754
0.106783
0.106052
0.105352
0.104686
0.104059
0.103473
0.102931
0.10243
0.101963
0.101513
0.101051
0.100521
0.0998284
0.0988091
0.0971961
0.0945784
0.0904062
0.0841308
0.0755975
0.065546
0.0556145
0.0474473
0.041738
0.0382075
0.036194
0.0350998
0.034521
0.0342192
0.0340631
0.0339827
0.0339412
0.0339198
0.0339088
0.0339032
0.0339002
0.0338985
0.0338975
0.0338969
0.0338965
0.0338962
0.0338959
0.0338956
0.0338953
0.033895
0.0338947
0.0338943
0.033894
0.0338936
0.0338932
0.0338928
0.0338924
0.033892
0.0338915
0.0338911
0.0338906
0.0338902
0.0338898
0.0338893
0.0338889
0.0338885
0.0338881
0.0338878
0.0338875
0.0338872
0.033887
0.0338868
0.0338867
0.0338867
0.0338866
0.0338866
0.0338867
0.0338868
0.033887
0.0338873
0.0338876
0.0338879
0.0338884
0.0338888
0.0338893
0.0338898
0.0338903
0.0338908
0.0338913
0.0338918
0.0338923
0.0338928
0.0338933
0.0338937
0.0338941
0.0338945
0.0338948
0.0338951
0.0338953
0.0338955
0.0338957
0.0338958
0.0338959
0.0338959
0.0338959
0.0338959
0.0338959
0.0338958
0.0338957
0.0338956
0.0338955
0.0338954
0.0338953
0.0338951
0.033895
0.0338948
0.0338947
0.0338945
0.0338944
0.0338943
0.0338941
0.033894
0.0338939
0.0338938
0.0338937
0.0338936
0.0338935
0.0338934
0.0338934
0.0338933
0.0338933
0.0338933
0.0338932
0.0338932
0.0338932
0.0338932
0.0338932
0.0338932
0.0338932
0.0338932
0.0338932
0.0338933
0.0338933
0.0338933
0.0338934
0.0338934
0.0338935
0.0338935
0.0338936
0.0338936
0.0338937
0.0338937
0.0338938
0.0338938
0.0338939
0.0338939
0.033894
0.033894
0.0338941
0.0338941
0.0338942
0.0338943
0.0338943
0.0338944
0.0338944
0.0338945
0.0338945
0.0338946
0.0338946
0.0338947
0.0338948
0.0338948
0.0338949
0.0338949
0.033895
0.0338951
0.0338951
0.0338952
0.0338952
0.0338953
0.0338953
0.0338954
0.0338954
0.0338955
0.0338955
0.0338956
0.0338956
0.0338957
0.0338957
0.0338958
0.0338958
0.0338959
0.0338959
0.0338959
0.033896
0.033896
0.033896
0.033896
0.0338961
0.0338961
0.0338961
0.0338961
0.0338961
0.0338961
0.0338961
0.0338961
0.033896
0.033896
0.033896
0.033896
0.0338959
0.0338959
0.0338958
0.0338958
0.0338957
0.0338957
0.0338956
0.0338956
0.0338955
0.0338955
0.0338954
0.0338953
0.0338953
0.0338952
0.0338951
0.0338951
0.033895
0.0338949
0.0338949
0.0338948
0.0338947
0.0338946
0.0338946
0.0338945
0.0338944
0.0338943
0.0338942
0.0338941
0.0338941
0.033894
0.0338939
0.0338938
0.0338937
0.0338935
0.0338934
0.0338933
0.0338932
0.033893
0.0338929
0.0338927
0.0338925
0.0338924
0.0338922
0.033892
0.0338917
0.0338915
0.0338912
0.033891
0.0338907
0.0338904
0.0338901
0.0338898
0.0338894
0.0338891
0.0338887
0.0338884
0.033888
0.0338876
0.0338873
0.0338869
0.0338865
0.0338862
0.0338859
0.0338856
0.0338854
0.0338852
0.0338849
0.0338848
0.0338846
0.0338845
0.0338844
0.0338843
0.0338843
0.0338843
0.0338844
0.0338845
0.0338846
0.0338847
0.0338849
0.0338851
0.0338853
0.0338856
0.0338859
0.0338862
0.0338866
0.0338869
0.0338873
0.0338877
0.0338881
0.0338885
0.0338889
0.0338893
0.0338896
0.03389
0.0338904
0.0338907
0.033891
0.0338913
0.0338916
0.0338918
0.033892
0.0338922
0.0338924
0.0338925
0.0338927
0.0338928
0.0338929
0.0338929
0.033893
0.033893
0.033893
0.033893
0.0338931
0.0338931
0.033893
0.033893
0.033893
0.033893
0.033893
0.033893
0.0338929
0.0338929
0.0338929
0.0338929
0.0338929
0.0338929
0.0338929
0.0338929
0.0338929
0.0338929
0.0338929
0.033893
0.033893
0.0338931
0.0338931
0.0338932
0.0338932
0.0338933
0.0338933
0.0338934
0.0338935
0.0338935
0.0338936
0.0338937
0.0338938
0.0338939
0.033894
0.033894
0.0338941
0.0338942
0.0338943
0.0338944
0.0338944
0.0338945
0.0338946
0.0338947
0.0338948
0.0338949
0.033895
0.033895
0.0338951
0.0338952
0.0338952
0.0338953
0.0338954
0.0338954
0.0338955
0.0338956
0.0338957
0.0338957
0.0338958
0.0338958
0.0338959
0.0338959
0.033896
0.033896
0.0338961
0.0338961
0.0338961
0.0338962
0.0338962
0.0338963
0.0338963
0.0338963
0.0338964
0.0338964
0.0338964
0.0338965
0.0338965
0.0338965
0.0338965
0.0338966
0.0338966
0.0338966
0.0338966
0.0338966
0.0338966
0.0338966
0.0338967
0.0338967
0.0338967
0.0338967
0.0338967
0.0338967
0.0338967
0.0338967
0.0338966
0.0338966
0.0338966
0.0338966
0.0338966
0.0338965
0.0338965
0.0338965
0.0338964
0.0338964
0.0338964
0.0338963
0.0338963
0.0338962
0.0338962
0.0338961
0.033896
0.033896
0.0338959
0.0338959
0.0338958
0.0338957
0.0338956
0.0338955
0.0338955
0.0338954
0.0338953
0.0338952
0.0338951
0.033895
0.0338949
0.0338948
0.0338947
0.0338946
0.0338945
0.0338943
0.0338942
0.0338941
0.0338939
0.0338938
0.0338936
0.0338935
0.0338933
0.0338931
0.0338929
0.0338927
0.0338925
0.0338923
0.0338921
0.0338919
0.0338916
0.0338914
0.0338912
0.0338909
0.0338906
0.0338904
0.0338901
0.0338898
0.0338895
0.0338892
0.0338889
0.0338886
0.0338883
0.033888
0.0338877
0.0338874
0.0338872
0.0338869
0.0338866
0.0338864
0.0338861
0.0338859
0.0338857
0.0338855
0.0338853
0.0338852
0.033885
0.0338849
0.0338848
0.0338848
0.0338848
0.0338848
0.0338848
0.0338848
0.0338848
0.033885
0.0338851
0.0338853
0.0338855
0.0338857
0.0338859
0.0338862
0.0338865
0.0338868
0.033887
0.0338873
0.0338877
0.033888
0.0338883
0.0338886
0.0338889
0.0338892
0.0338895
0.0338898
0.03389
0.0338903
0.0338905
0.0338907
0.0338909
0.0338911
0.0338912
0.0338914
0.0338915
0.0338916
0.0338917
0.0338918
0.0338919
0.033892
0.033892
0.0338921
0.0338921
0.0338922
0.0338922
0.0338922
0.0338923
0.0338923
0.0338923
0.0338923
0.0338923
0.0338923
0.0338924
0.0338924
0.0338924
0.0338925
0.0338925
0.0338925
0.0338925
0.0338926
0.0338926
0.0338927
0.0338927
0.0338928
0.0338928
0.0338929
0.033893
0.033893
0.0338931
0.0338932
0.0338932
0.0338933
0.0338934
0.0338935
0.0338936
0.0338937
0.0338938
0.0338938
0.0338939
0.033894
0.0338941
0.0338942
0.0338943
0.0338944
0.0338945
0.0338946
0.0338947
0.0338948
0.0338949
0.0338949
0.033895
0.0338951
0.0338952
0.0338953
0.0338953
0.0338954
0.0338955
0.0338956
0.0338956
0.0338957
0.0338958
0.0338958
0.0338959
0.0338959
0.033896
0.033896
0.0338961
0.0338961
0.0338962
0.0338962
0.0338962
0.0338963
0.0338963
0.0338963
0.0338964
0.0338964
0.0338964
0.0338964
0.0338965
0.0338965
0.0338965
0.0338965
0.0338965
0.0338965
0.0338966
0.0338966
0.0338966
0.0338965
0.0338965
0.0338965
0.0338965
0.0338965
0.0338965
0.0338965
0.0338965
0.0338965
0.0338965
0.0338965
0.0338964
0.0338964
0.0338964
0.0338964
0.0338964
0.0338964
0.0338963
0.0338963
0.0338962
0.0338962
0.0338961
0.0338961
0.0338961
0.033896
0.0338959
0.0338959
0.0338958
0.0338957
0.0338957
0.0338956
0.0338955
0.0338954
0.0338953
0.0338952
0.0338951
0.033895
0.0338949
0.0338948
0.0338946
0.0338945
0.0338944
0.0338942
0.0338941
0.0338939
0.0338938
0.0338936
0.0338934
0.0338933
0.0338931
0.0338929
0.0338927
0.0338925
0.0338923
0.033892
0.0338918
0.0338916
0.0338914
0.0338911
0.0338909
0.0338906
0.0338903
0.0338901
0.0338898
0.0338895
0.0338892
0.033889
0.0338887
0.0338884
0.0338881
0.0338878
0.0338876
0.0338873
0.033887
0.0338868
0.0338865
0.0338863
0.0338861
0.0338859
0.0338857
0.0338855
0.0338853
0.0338852
0.0338851
0.0338849
0.0338849
0.0338848
0.0338848
0.0338848
0.0338848
0.0338848
0.0338848
0.0338849
0.033885
0.0338851
0.0338853
0.0338855
0.0338857
0.033886
0.0338861
0.0338865
0.0338867
0.033887
0.0338872
0.0338877
0.0338878
0.0338883
0.0338884
0.0338889
0.033889
0.0338895
)
;

boundaryField
{
    inlet
    {
        type            calculated;
        value           uniform 0.0976562;
    }
    outlet
    {
        type            calculated;
        value           uniform 0.0338895;
    }
    emptyWalls
    {
        type            empty;
    }
}


// ************************************************************************* //
