/*--------------------------------*- C++ -*----------------------------------*\
  =========                 |
  \\      /  F ield         | OpenFOAM: The Open Source CFD Toolbox
   \\    /   O peration     | Website:  https://openfoam.org
    \\  /    A nd           | Version:  9
     \\/     M anipulation  |
\*---------------------------------------------------------------------------*/
FoamFile
{
    format      ascii;
    class       volVectorField;
    location    "7300";
    object      Ub;
}
// * * * * * * * * * * * * * * * * * * * * * * * * * * * * * * * * * * * * * //

dimensions      [0 0 0 0 0 0 0];

internalField   nonuniform List<vector> 
1000
(
(1.13625e-05 0 0)
(1.13627e-05 0 0)
(1.13629e-05 0 0)
(1.13635e-05 0 0)
(1.13642e-05 0 0)
(1.13653e-05 0 0)
(1.13668e-05 0 0)
(1.13703e-05 0 0)
(1.13819e-05 0 0)
(1.14491e-05 0 0)
(1.16179e-05 0 0)
(1.17446e-05 0 0)
(1.17646e-05 0 0)
(1.17691e-05 0 0)
(1.1768e-05 0 0)
(1.17632e-05 0 0)
(1.17582e-05 0 0)
(1.17557e-05 0 0)
(1.17555e-05 0 0)
(1.17561e-05 0 0)
(1.17571e-05 0 0)
(1.176e-05 0 0)
(1.1765e-05 0 0)
(1.17704e-05 0 0)
(1.17757e-05 0 0)
(1.17797e-05 0 0)
(1.17812e-05 0 0)
(1.17794e-05 0 0)
(1.17741e-05 0 0)
(1.17663e-05 0 0)
(1.17565e-05 0 0)
(1.17452e-05 0 0)
(1.17327e-05 0 0)
(1.17193e-05 0 0)
(1.17053e-05 0 0)
(1.1691e-05 0 0)
(1.16765e-05 0 0)
(1.1662e-05 0 0)
(1.16477e-05 0 0)
(1.16334e-05 0 0)
(1.16193e-05 0 0)
(1.16053e-05 0 0)
(1.15914e-05 0 0)
(1.15776e-05 0 0)
(1.15638e-05 0 0)
(1.15501e-05 0 0)
(1.15363e-05 0 0)
(1.15224e-05 0 0)
(1.15086e-05 0 0)
(1.14946e-05 0 0)
(1.14806e-05 0 0)
(1.14665e-05 0 0)
(1.14524e-05 0 0)
(1.14381e-05 0 0)
(1.14238e-05 0 0)
(1.14095e-05 0 0)
(1.13951e-05 0 0)
(1.13806e-05 0 0)
(1.1366e-05 0 0)
(1.13514e-05 0 0)
(1.13368e-05 0 0)
(1.13221e-05 0 0)
(1.13073e-05 0 0)
(1.12925e-05 0 0)
(1.12777e-05 0 0)
(1.12628e-05 0 0)
(1.12478e-05 0 0)
(1.12328e-05 0 0)
(1.12178e-05 0 0)
(1.12027e-05 0 0)
(1.11876e-05 0 0)
(1.11724e-05 0 0)
(1.11571e-05 0 0)
(1.11418e-05 0 0)
(1.11265e-05 0 0)
(1.11111e-05 0 0)
(1.10956e-05 0 0)
(1.10801e-05 0 0)
(1.10645e-05 0 0)
(1.10489e-05 0 0)
(1.10332e-05 0 0)
(1.10175e-05 0 0)
(1.10017e-05 0 0)
(1.09858e-05 0 0)
(1.09698e-05 0 0)
(1.09539e-05 0 0)
(1.09378e-05 0 0)
(1.09217e-05 0 0)
(1.09055e-05 0 0)
(1.08893e-05 0 0)
(1.0873e-05 0 0)
(1.08567e-05 0 0)
(1.08403e-05 0 0)
(1.08239e-05 0 0)
(1.08074e-05 0 0)
(1.07909e-05 0 0)
(1.07743e-05 0 0)
(1.07577e-05 0 0)
(1.0741e-05 0 0)
(1.07243e-05 0 0)
(1.07075e-05 0 0)
(1.06907e-05 0 0)
(1.06738e-05 0 0)
(1.06569e-05 0 0)
(1.064e-05 0 0)
(1.0623e-05 0 0)
(1.0606e-05 0 0)
(1.05889e-05 0 0)
(1.05718e-05 0 0)
(1.05547e-05 0 0)
(1.05374e-05 0 0)
(1.05202e-05 0 0)
(1.05029e-05 0 0)
(1.04856e-05 0 0)
(1.04682e-05 0 0)
(1.04508e-05 0 0)
(1.04333e-05 0 0)
(1.04158e-05 0 0)
(1.03983e-05 0 0)
(1.03807e-05 0 0)
(1.03631e-05 0 0)
(1.03453e-05 0 0)
(1.03276e-05 0 0)
(1.03097e-05 0 0)
(1.02918e-05 0 0)
(1.02739e-05 0 0)
(1.02559e-05 0 0)
(1.02378e-05 0 0)
(1.02196e-05 0 0)
(1.02014e-05 0 0)
(1.01831e-05 0 0)
(1.01648e-05 0 0)
(1.01463e-05 0 0)
(1.01277e-05 0 0)
(1.0109e-05 0 0)
(1.00902e-05 0 0)
(1.00712e-05 0 0)
(1.00521e-05 0 0)
(1.00328e-05 0 0)
(1.00133e-05 0 0)
(9.99364e-06 0 0)
(9.97381e-06 0 0)
(9.95382e-06 0 0)
(9.93368e-06 0 0)
(9.91342e-06 0 0)
(9.89306e-06 0 0)
(9.87262e-06 0 0)
(9.85215e-06 0 0)
(9.83167e-06 0 0)
(9.81123e-06 0 0)
(9.79086e-06 0 0)
(9.77061e-06 0 0)
(9.75052e-06 0 0)
(9.73062e-06 0 0)
(9.71095e-06 0 0)
(9.69153e-06 0 0)
(9.67239e-06 0 0)
(9.65352e-06 0 0)
(9.63493e-06 0 0)
(9.61661e-06 0 0)
(9.59853e-06 0 0)
(9.58065e-06 0 0)
(9.56293e-06 0 0)
(9.54532e-06 0 0)
(9.52777e-06 0 0)
(9.5102e-06 0 0)
(9.49258e-06 0 0)
(9.47485e-06 0 0)
(9.45695e-06 0 0)
(9.43886e-06 0 0)
(9.42055e-06 0 0)
(9.40198e-06 0 0)
(9.38315e-06 0 0)
(9.36406e-06 0 0)
(9.3447e-06 0 0)
(9.32508e-06 0 0)
(9.30523e-06 0 0)
(9.28515e-06 0 0)
(9.26486e-06 0 0)
(9.24439e-06 0 0)
(9.22375e-06 0 0)
(9.20297e-06 0 0)
(9.18207e-06 0 0)
(9.16106e-06 0 0)
(9.13996e-06 0 0)
(9.11878e-06 0 0)
(9.09754e-06 0 0)
(9.07624e-06 0 0)
(9.05489e-06 0 0)
(9.03349e-06 0 0)
(9.01204e-06 0 0)
(8.99055e-06 0 0)
(8.96901e-06 0 0)
(8.94743e-06 0 0)
(8.92579e-06 0 0)
(8.9041e-06 0 0)
(8.88235e-06 0 0)
(8.86054e-06 0 0)
(8.83866e-06 0 0)
(8.81671e-06 0 0)
(8.79468e-06 0 0)
(8.77258e-06 0 0)
(8.75038e-06 0 0)
(8.7281e-06 0 0)
(8.70573e-06 0 0)
(8.68327e-06 0 0)
(8.6607e-06 0 0)
(8.63804e-06 0 0)
(8.61527e-06 0 0)
(8.59239e-06 0 0)
(8.56941e-06 0 0)
(8.54631e-06 0 0)
(8.5231e-06 0 0)
(8.49978e-06 0 0)
(8.47634e-06 0 0)
(8.45278e-06 0 0)
(8.4291e-06 0 0)
(8.4053e-06 0 0)
(8.38138e-06 0 0)
(8.35733e-06 0 0)
(8.33314e-06 0 0)
(8.30883e-06 0 0)
(8.28439e-06 0 0)
(8.25981e-06 0 0)
(8.23509e-06 0 0)
(8.21023e-06 0 0)
(8.18524e-06 0 0)
(8.16009e-06 0 0)
(8.1348e-06 0 0)
(8.10935e-06 0 0)
(8.08376e-06 0 0)
(8.05801e-06 0 0)
(8.0321e-06 0 0)
(8.00603e-06 0 0)
(7.97979e-06 0 0)
(7.95338e-06 0 0)
(7.9268e-06 0 0)
(7.90004e-06 0 0)
(7.8731e-06 0 0)
(7.84597e-06 0 0)
(7.81866e-06 0 0)
(7.79114e-06 0 0)
(7.76343e-06 0 0)
(7.73552e-06 0 0)
(7.7074e-06 0 0)
(7.67907e-06 0 0)
(7.65052e-06 0 0)
(7.62175e-06 0 0)
(7.59275e-06 0 0)
(7.56352e-06 0 0)
(7.53406e-06 0 0)
(7.50435e-06 0 0)
(7.4744e-06 0 0)
(7.4442e-06 0 0)
(7.41376e-06 0 0)
(7.38306e-06 0 0)
(7.35209e-06 0 0)
(7.32087e-06 0 0)
(7.28937e-06 0 0)
(7.25762e-06 0 0)
(7.2256e-06 0 0)
(7.19333e-06 0 0)
(7.16081e-06 0 0)
(7.12805e-06 0 0)
(7.09507e-06 0 0)
(7.06187e-06 0 0)
(7.02851e-06 0 0)
(6.99501e-06 0 0)
(6.96145e-06 0 0)
(6.92787e-06 0 0)
(6.89438e-06 0 0)
(6.86108e-06 0 0)
(6.8281e-06 0 0)
(6.79561e-06 0 0)
(6.76377e-06 0 0)
(6.73282e-06 0 0)
(6.70296e-06 0 0)
(6.6744e-06 0 0)
(6.64735e-06 0 0)
(6.62193e-06 0 0)
(6.59824e-06 0 0)
(6.57618e-06 0 0)
(6.55541e-06 0 0)
(6.53519e-06 0 0)
(6.51405e-06 0 0)
(6.48936e-06 0 0)
(6.45648e-06 0 0)
(6.40743e-06 0 0)
(6.329e-06 0 0)
(6.20051e-06 0 0)
(5.99308e-06 0 0)
(5.67482e-06 0 0)
(5.2277e-06 0 0)
(4.67378e-06 0 0)
(4.08702e-06 0 0)
(3.5634e-06 0 0)
(3.16703e-06 0 0)
(2.90566e-06 0 0)
(2.74985e-06 0 0)
(2.66284e-06 0 0)
(2.61608e-06 0 0)
(2.59148e-06 0 0)
(2.57867e-06 0 0)
(2.57202e-06 0 0)
(2.56856e-06 0 0)
(2.56674e-06 0 0)
(2.56577e-06 0 0)
(2.56523e-06 0 0)
(2.56491e-06 0 0)
(2.56469e-06 0 0)
(2.56452e-06 0 0)
(2.56437e-06 0 0)
(2.56424e-06 0 0)
(2.5641e-06 0 0)
(2.56396e-06 0 0)
(2.56381e-06 0 0)
(2.56364e-06 0 0)
(2.56347e-06 0 0)
(2.56329e-06 0 0)
(2.5631e-06 0 0)
(2.5629e-06 0 0)
(2.56268e-06 0 0)
(2.56246e-06 0 0)
(2.56223e-06 0 0)
(2.56199e-06 0 0)
(2.56175e-06 0 0)
(2.5615e-06 0 0)
(2.56124e-06 0 0)
(2.56099e-06 0 0)
(2.56074e-06 0 0)
(2.56049e-06 0 0)
(2.56024e-06 0 0)
(2.56001e-06 0 0)
(2.55978e-06 0 0)
(2.55957e-06 0 0)
(2.55937e-06 0 0)
(2.5592e-06 0 0)
(2.55904e-06 0 0)
(2.55892e-06 0 0)
(2.55882e-06 0 0)
(2.55875e-06 0 0)
(2.55872e-06 0 0)
(2.55871e-06 0 0)
(2.55871e-06 0 0)
(2.55872e-06 0 0)
(2.55879e-06 0 0)
(2.55891e-06 0 0)
(2.55907e-06 0 0)
(2.55925e-06 0 0)
(2.55946e-06 0 0)
(2.55969e-06 0 0)
(2.55994e-06 0 0)
(2.56021e-06 0 0)
(2.56049e-06 0 0)
(2.56079e-06 0 0)
(2.56108e-06 0 0)
(2.56138e-06 0 0)
(2.56168e-06 0 0)
(2.56197e-06 0 0)
(2.56226e-06 0 0)
(2.56253e-06 0 0)
(2.56279e-06 0 0)
(2.56303e-06 0 0)
(2.56325e-06 0 0)
(2.56346e-06 0 0)
(2.56365e-06 0 0)
(2.56381e-06 0 0)
(2.56395e-06 0 0)
(2.56408e-06 0 0)
(2.56418e-06 0 0)
(2.56427e-06 0 0)
(2.56434e-06 0 0)
(2.56439e-06 0 0)
(2.56443e-06 0 0)
(2.56445e-06 0 0)
(2.56447e-06 0 0)
(2.56447e-06 0 0)
(2.56447e-06 0 0)
(2.56447e-06 0 0)
(2.56446e-06 0 0)
(2.56444e-06 0 0)
(2.56442e-06 0 0)
(2.5644e-06 0 0)
(2.56437e-06 0 0)
(2.56435e-06 0 0)
(2.56433e-06 0 0)
(2.56431e-06 0 0)
(2.5643e-06 0 0)
(2.56429e-06 0 0)
(2.56428e-06 0 0)
(2.56427e-06 0 0)
(2.56426e-06 0 0)
(2.56426e-06 0 0)
(2.56427e-06 0 0)
(2.56428e-06 0 0)
(2.5643e-06 0 0)
(2.56432e-06 0 0)
(2.56434e-06 0 0)
(2.56437e-06 0 0)
(2.5644e-06 0 0)
(2.56443e-06 0 0)
(2.56446e-06 0 0)
(2.5645e-06 0 0)
(2.56454e-06 0 0)
(2.56458e-06 0 0)
(2.56463e-06 0 0)
(2.56467e-06 0 0)
(2.56472e-06 0 0)
(2.56476e-06 0 0)
(2.56481e-06 0 0)
(2.56486e-06 0 0)
(2.56491e-06 0 0)
(2.56496e-06 0 0)
(2.56501e-06 0 0)
(2.56506e-06 0 0)
(2.56511e-06 0 0)
(2.56515e-06 0 0)
(2.5652e-06 0 0)
(2.56525e-06 0 0)
(2.5653e-06 0 0)
(2.56534e-06 0 0)
(2.56539e-06 0 0)
(2.56543e-06 0 0)
(2.56547e-06 0 0)
(2.56551e-06 0 0)
(2.56555e-06 0 0)
(2.56559e-06 0 0)
(2.56563e-06 0 0)
(2.56567e-06 0 0)
(2.5657e-06 0 0)
(2.56574e-06 0 0)
(2.56577e-06 0 0)
(2.56581e-06 0 0)
(2.56584e-06 0 0)
(2.56587e-06 0 0)
(2.5659e-06 0 0)
(2.56593e-06 0 0)
(2.56595e-06 0 0)
(2.56598e-06 0 0)
(2.56601e-06 0 0)
(2.56603e-06 0 0)
(2.56606e-06 0 0)
(2.56608e-06 0 0)
(2.5661e-06 0 0)
(2.56612e-06 0 0)
(2.56614e-06 0 0)
(2.56616e-06 0 0)
(2.56618e-06 0 0)
(2.5662e-06 0 0)
(2.56622e-06 0 0)
(2.56623e-06 0 0)
(2.56625e-06 0 0)
(2.56626e-06 0 0)
(2.56628e-06 0 0)
(2.56629e-06 0 0)
(2.5663e-06 0 0)
(2.56631e-06 0 0)
(2.56632e-06 0 0)
(2.56633e-06 0 0)
(2.56634e-06 0 0)
(2.56634e-06 0 0)
(2.56634e-06 0 0)
(2.56635e-06 0 0)
(2.56635e-06 0 0)
(2.56635e-06 0 0)
(2.56635e-06 0 0)
(2.56634e-06 0 0)
(2.56633e-06 0 0)
(2.56632e-06 0 0)
(2.56631e-06 0 0)
(2.5663e-06 0 0)
(2.56629e-06 0 0)
(2.56627e-06 0 0)
(2.56625e-06 0 0)
(2.56624e-06 0 0)
(2.56621e-06 0 0)
(2.56619e-06 0 0)
(2.56617e-06 0 0)
(2.56614e-06 0 0)
(2.56611e-06 0 0)
(2.56608e-06 0 0)
(2.56605e-06 0 0)
(2.56602e-06 0 0)
(2.56599e-06 0 0)
(2.56596e-06 0 0)
(2.56592e-06 0 0)
(2.56589e-06 0 0)
(2.56585e-06 0 0)
(2.56582e-06 0 0)
(2.56578e-06 0 0)
(2.56574e-06 0 0)
(2.5657e-06 0 0)
(2.56567e-06 0 0)
(2.56563e-06 0 0)
(2.56559e-06 0 0)
(2.56555e-06 0 0)
(2.56551e-06 0 0)
(2.56547e-06 0 0)
(2.56543e-06 0 0)
(2.56538e-06 0 0)
(2.56534e-06 0 0)
(2.5653e-06 0 0)
(2.56525e-06 0 0)
(2.56521e-06 0 0)
(2.56516e-06 0 0)
(2.56511e-06 0 0)
(2.56506e-06 0 0)
(2.56501e-06 0 0)
(2.56496e-06 0 0)
(2.5649e-06 0 0)
(2.56485e-06 0 0)
(2.56479e-06 0 0)
(2.56472e-06 0 0)
(2.56465e-06 0 0)
(2.56458e-06 0 0)
(2.5645e-06 0 0)
(2.56442e-06 0 0)
(2.56434e-06 0 0)
(2.56424e-06 0 0)
(2.56414e-06 0 0)
(2.56404e-06 0 0)
(2.56393e-06 0 0)
(2.56381e-06 0 0)
(2.56368e-06 0 0)
(2.56355e-06 0 0)
(2.56341e-06 0 0)
(2.56326e-06 0 0)
(2.5631e-06 0 0)
(2.56294e-06 0 0)
(2.56277e-06 0 0)
(2.56259e-06 0 0)
(2.56241e-06 0 0)
(2.56222e-06 0 0)
(2.56203e-06 0 0)
(2.56183e-06 0 0)
(2.56163e-06 0 0)
(2.56143e-06 0 0)
(2.56123e-06 0 0)
(2.56103e-06 0 0)
(2.56084e-06 0 0)
(2.56065e-06 0 0)
(2.56047e-06 0 0)
(2.5603e-06 0 0)
(2.56013e-06 0 0)
(2.55998e-06 0 0)
(2.55984e-06 0 0)
(2.55972e-06 0 0)
(2.55961e-06 0 0)
(2.55952e-06 0 0)
(2.55945e-06 0 0)
(2.5594e-06 0 0)
(2.55938e-06 0 0)
(2.55937e-06 0 0)
(2.55937e-06 0 0)
(2.55938e-06 0 0)
(2.55942e-06 0 0)
(2.55949e-06 0 0)
(2.55959e-06 0 0)
(2.55971e-06 0 0)
(2.55986e-06 0 0)
(2.56002e-06 0 0)
(2.5602e-06 0 0)
(2.56039e-06 0 0)
(2.5606e-06 0 0)
(2.56081e-06 0 0)
(2.56104e-06 0 0)
(2.56126e-06 0 0)
(2.56149e-06 0 0)
(2.56172e-06 0 0)
(2.56195e-06 0 0)
(2.56218e-06 0 0)
(2.56239e-06 0 0)
(2.5626e-06 0 0)
(2.5628e-06 0 0)
(2.56299e-06 0 0)
(2.56316e-06 0 0)
(2.56332e-06 0 0)
(2.56347e-06 0 0)
(2.56361e-06 0 0)
(2.56373e-06 0 0)
(2.56383e-06 0 0)
(2.56393e-06 0 0)
(2.56401e-06 0 0)
(2.56408e-06 0 0)
(2.56414e-06 0 0)
(2.56418e-06 0 0)
(2.56422e-06 0 0)
(2.56425e-06 0 0)
(2.56427e-06 0 0)
(2.56429e-06 0 0)
(2.5643e-06 0 0)
(2.56431e-06 0 0)
(2.56431e-06 0 0)
(2.56431e-06 0 0)
(2.56431e-06 0 0)
(2.5643e-06 0 0)
(2.5643e-06 0 0)
(2.56429e-06 0 0)
(2.56429e-06 0 0)
(2.56428e-06 0 0)
(2.56428e-06 0 0)
(2.56428e-06 0 0)
(2.56428e-06 0 0)
(2.56428e-06 0 0)
(2.56429e-06 0 0)
(2.5643e-06 0 0)
(2.56431e-06 0 0)
(2.56433e-06 0 0)
(2.56435e-06 0 0)
(2.56437e-06 0 0)
(2.5644e-06 0 0)
(2.56443e-06 0 0)
(2.56446e-06 0 0)
(2.5645e-06 0 0)
(2.56453e-06 0 0)
(2.56457e-06 0 0)
(2.56461e-06 0 0)
(2.56466e-06 0 0)
(2.5647e-06 0 0)
(2.56475e-06 0 0)
(2.5648e-06 0 0)
(2.56485e-06 0 0)
(2.5649e-06 0 0)
(2.56495e-06 0 0)
(2.565e-06 0 0)
(2.56505e-06 0 0)
(2.56511e-06 0 0)
(2.56516e-06 0 0)
(2.56521e-06 0 0)
(2.56526e-06 0 0)
(2.56531e-06 0 0)
(2.56536e-06 0 0)
(2.56542e-06 0 0)
(2.56547e-06 0 0)
(2.56552e-06 0 0)
(2.56556e-06 0 0)
(2.56561e-06 0 0)
(2.56566e-06 0 0)
(2.5657e-06 0 0)
(2.56575e-06 0 0)
(2.56579e-06 0 0)
(2.56583e-06 0 0)
(2.56587e-06 0 0)
(2.56591e-06 0 0)
(2.56594e-06 0 0)
(2.56598e-06 0 0)
(2.56602e-06 0 0)
(2.56605e-06 0 0)
(2.56608e-06 0 0)
(2.56611e-06 0 0)
(2.56614e-06 0 0)
(2.56617e-06 0 0)
(2.5662e-06 0 0)
(2.56622e-06 0 0)
(2.56625e-06 0 0)
(2.56627e-06 0 0)
(2.56629e-06 0 0)
(2.56631e-06 0 0)
(2.56634e-06 0 0)
(2.56636e-06 0 0)
(2.56637e-06 0 0)
(2.56639e-06 0 0)
(2.56641e-06 0 0)
(2.56643e-06 0 0)
(2.56644e-06 0 0)
(2.56646e-06 0 0)
(2.56647e-06 0 0)
(2.56648e-06 0 0)
(2.5665e-06 0 0)
(2.56651e-06 0 0)
(2.56652e-06 0 0)
(2.56652e-06 0 0)
(2.56653e-06 0 0)
(2.56654e-06 0 0)
(2.56654e-06 0 0)
(2.56655e-06 0 0)
(2.56655e-06 0 0)
(2.56656e-06 0 0)
(2.56656e-06 0 0)
(2.56656e-06 0 0)
(2.56656e-06 0 0)
(2.56656e-06 0 0)
(2.56655e-06 0 0)
(2.56655e-06 0 0)
(2.56654e-06 0 0)
(2.56653e-06 0 0)
(2.56652e-06 0 0)
(2.5665e-06 0 0)
(2.56649e-06 0 0)
(2.56647e-06 0 0)
(2.56646e-06 0 0)
(2.56644e-06 0 0)
(2.56642e-06 0 0)
(2.5664e-06 0 0)
(2.56637e-06 0 0)
(2.56635e-06 0 0)
(2.56632e-06 0 0)
(2.56629e-06 0 0)
(2.56626e-06 0 0)
(2.56623e-06 0 0)
(2.56619e-06 0 0)
(2.56616e-06 0 0)
(2.56612e-06 0 0)
(2.56609e-06 0 0)
(2.56605e-06 0 0)
(2.566e-06 0 0)
(2.56596e-06 0 0)
(2.56592e-06 0 0)
(2.56587e-06 0 0)
(2.56582e-06 0 0)
(2.56577e-06 0 0)
(2.56572e-06 0 0)
(2.56567e-06 0 0)
(2.56562e-06 0 0)
(2.56556e-06 0 0)
(2.5655e-06 0 0)
(2.56544e-06 0 0)
(2.56538e-06 0 0)
(2.56531e-06 0 0)
(2.56524e-06 0 0)
(2.56517e-06 0 0)
(2.5651e-06 0 0)
(2.56502e-06 0 0)
(2.56494e-06 0 0)
(2.56485e-06 0 0)
(2.56476e-06 0 0)
(2.56467e-06 0 0)
(2.56457e-06 0 0)
(2.56447e-06 0 0)
(2.56436e-06 0 0)
(2.56425e-06 0 0)
(2.56413e-06 0 0)
(2.56401e-06 0 0)
(2.56388e-06 0 0)
(2.56375e-06 0 0)
(2.56361e-06 0 0)
(2.56347e-06 0 0)
(2.56332e-06 0 0)
(2.56316e-06 0 0)
(2.56301e-06 0 0)
(2.56284e-06 0 0)
(2.56268e-06 0 0)
(2.56251e-06 0 0)
(2.56233e-06 0 0)
(2.56216e-06 0 0)
(2.56198e-06 0 0)
(2.5618e-06 0 0)
(2.56163e-06 0 0)
(2.56145e-06 0 0)
(2.56128e-06 0 0)
(2.5611e-06 0 0)
(2.56094e-06 0 0)
(2.56077e-06 0 0)
(2.56062e-06 0 0)
(2.56047e-06 0 0)
(2.56033e-06 0 0)
(2.5602e-06 0 0)
(2.56008e-06 0 0)
(2.55997e-06 0 0)
(2.55987e-06 0 0)
(2.55979e-06 0 0)
(2.55973e-06 0 0)
(2.55967e-06 0 0)
(2.55964e-06 0 0)
(2.55962e-06 0 0)
(2.55962e-06 0 0)
(2.55962e-06 0 0)
(2.55963e-06 0 0)
(2.55966e-06 0 0)
(2.55973e-06 0 0)
(2.55981e-06 0 0)
(2.55991e-06 0 0)
(2.56003e-06 0 0)
(2.56015e-06 0 0)
(2.56029e-06 0 0)
(2.56044e-06 0 0)
(2.5606e-06 0 0)
(2.56077e-06 0 0)
(2.56095e-06 0 0)
(2.56112e-06 0 0)
(2.56131e-06 0 0)
(2.56149e-06 0 0)
(2.56167e-06 0 0)
(2.56185e-06 0 0)
(2.56203e-06 0 0)
(2.5622e-06 0 0)
(2.56236e-06 0 0)
(2.56252e-06 0 0)
(2.56267e-06 0 0)
(2.56281e-06 0 0)
(2.56295e-06 0 0)
(2.56307e-06 0 0)
(2.56319e-06 0 0)
(2.56329e-06 0 0)
(2.56339e-06 0 0)
(2.56348e-06 0 0)
(2.56356e-06 0 0)
(2.56363e-06 0 0)
(2.56369e-06 0 0)
(2.56374e-06 0 0)
(2.56379e-06 0 0)
(2.56383e-06 0 0)
(2.56387e-06 0 0)
(2.5639e-06 0 0)
(2.56392e-06 0 0)
(2.56395e-06 0 0)
(2.56397e-06 0 0)
(2.56398e-06 0 0)
(2.564e-06 0 0)
(2.56401e-06 0 0)
(2.56402e-06 0 0)
(2.56403e-06 0 0)
(2.56404e-06 0 0)
(2.56406e-06 0 0)
(2.56407e-06 0 0)
(2.56408e-06 0 0)
(2.5641e-06 0 0)
(2.56411e-06 0 0)
(2.56413e-06 0 0)
(2.56415e-06 0 0)
(2.56417e-06 0 0)
(2.56419e-06 0 0)
(2.56421e-06 0 0)
(2.56424e-06 0 0)
(2.56427e-06 0 0)
(2.5643e-06 0 0)
(2.56434e-06 0 0)
(2.56437e-06 0 0)
(2.56441e-06 0 0)
(2.56444e-06 0 0)
(2.56448e-06 0 0)
(2.56453e-06 0 0)
(2.56457e-06 0 0)
(2.56461e-06 0 0)
(2.56466e-06 0 0)
(2.56471e-06 0 0)
(2.56476e-06 0 0)
(2.56481e-06 0 0)
(2.56486e-06 0 0)
(2.56491e-06 0 0)
(2.56496e-06 0 0)
(2.56501e-06 0 0)
(2.56506e-06 0 0)
(2.56511e-06 0 0)
(2.56517e-06 0 0)
(2.56522e-06 0 0)
(2.56527e-06 0 0)
(2.56532e-06 0 0)
(2.56537e-06 0 0)
(2.56542e-06 0 0)
(2.56547e-06 0 0)
(2.56552e-06 0 0)
(2.56557e-06 0 0)
(2.56562e-06 0 0)
(2.56567e-06 0 0)
(2.56571e-06 0 0)
(2.56576e-06 0 0)
(2.5658e-06 0 0)
(2.56584e-06 0 0)
(2.56588e-06 0 0)
(2.56592e-06 0 0)
(2.56596e-06 0 0)
(2.566e-06 0 0)
(2.56603e-06 0 0)
(2.56606e-06 0 0)
(2.5661e-06 0 0)
(2.56613e-06 0 0)
(2.56615e-06 0 0)
(2.56618e-06 0 0)
(2.56621e-06 0 0)
(2.56623e-06 0 0)
(2.56625e-06 0 0)
(2.56628e-06 0 0)
(2.5663e-06 0 0)
(2.56631e-06 0 0)
(2.56633e-06 0 0)
(2.56635e-06 0 0)
(2.56636e-06 0 0)
(2.56638e-06 0 0)
(2.56639e-06 0 0)
(2.5664e-06 0 0)
(2.56641e-06 0 0)
(2.56641e-06 0 0)
(2.56642e-06 0 0)
(2.56643e-06 0 0)
(2.56644e-06 0 0)
(2.56644e-06 0 0)
(2.56644e-06 0 0)
(2.56644e-06 0 0)
(2.56644e-06 0 0)
(2.56644e-06 0 0)
(2.56644e-06 0 0)
(2.56644e-06 0 0)
(2.56644e-06 0 0)
(2.56644e-06 0 0)
(2.56644e-06 0 0)
(2.56643e-06 0 0)
(2.56642e-06 0 0)
(2.56641e-06 0 0)
(2.5664e-06 0 0)
(2.56639e-06 0 0)
(2.56638e-06 0 0)
(2.56637e-06 0 0)
(2.56635e-06 0 0)
(2.56634e-06 0 0)
(2.56632e-06 0 0)
(2.5663e-06 0 0)
(2.56628e-06 0 0)
(2.56626e-06 0 0)
(2.56623e-06 0 0)
(2.56621e-06 0 0)
(2.56618e-06 0 0)
(2.56615e-06 0 0)
(2.56612e-06 0 0)
(2.56608e-06 0 0)
(2.56604e-06 0 0)
(2.56601e-06 0 0)
(2.56597e-06 0 0)
(2.56592e-06 0 0)
(2.56588e-06 0 0)
(2.56583e-06 0 0)
(2.56578e-06 0 0)
(2.56572e-06 0 0)
(2.56567e-06 0 0)
(2.56561e-06 0 0)
(2.56555e-06 0 0)
(2.56549e-06 0 0)
(2.56542e-06 0 0)
(2.56535e-06 0 0)
(2.56527e-06 0 0)
(2.5652e-06 0 0)
(2.56512e-06 0 0)
(2.56504e-06 0 0)
(2.56495e-06 0 0)
(2.56486e-06 0 0)
(2.56476e-06 0 0)
(2.56467e-06 0 0)
(2.56456e-06 0 0)
(2.56446e-06 0 0)
(2.56435e-06 0 0)
(2.56423e-06 0 0)
(2.56411e-06 0 0)
(2.56399e-06 0 0)
(2.56387e-06 0 0)
(2.56374e-06 0 0)
(2.5636e-06 0 0)
(2.56346e-06 0 0)
(2.56332e-06 0 0)
(2.56318e-06 0 0)
(2.56303e-06 0 0)
(2.56287e-06 0 0)
(2.56272e-06 0 0)
(2.56256e-06 0 0)
(2.5624e-06 0 0)
(2.56224e-06 0 0)
(2.56208e-06 0 0)
(2.56191e-06 0 0)
(2.56175e-06 0 0)
(2.56158e-06 0 0)
(2.56142e-06 0 0)
(2.56126e-06 0 0)
(2.5611e-06 0 0)
(2.56095e-06 0 0)
(2.5608e-06 0 0)
(2.56066e-06 0 0)
(2.56052e-06 0 0)
(2.56038e-06 0 0)
(2.56026e-06 0 0)
(2.56015e-06 0 0)
(2.56004e-06 0 0)
(2.55994e-06 0 0)
(2.55986e-06 0 0)
(2.55978e-06 0 0)
(2.55972e-06 0 0)
(2.55967e-06 0 0)
(2.55964e-06 0 0)
(2.55962e-06 0 0)
(2.55962e-06 0 0)
(2.55962e-06 0 0)
(2.55962e-06 0 0)
(2.55964e-06 0 0)
(2.55969e-06 0 0)
(2.55976e-06 0 0)
(2.55984e-06 0 0)
(2.55994e-06 0 0)
(2.56004e-06 0 0)
(2.56017e-06 0 0)
(2.5603e-06 0 0)
(2.56044e-06 0 0)
(2.56059e-06 0 0)
(2.56075e-06 0 0)
(2.56091e-06 0 0)
(2.56108e-06 0 0)
(2.56125e-06 0 0)
(2.56143e-06 0 0)
(2.5616e-06 0 0)
(2.56178e-06 0 0)
(2.56195e-06 0 0)
(2.56212e-06 0 0)
(2.56229e-06 0 0)
)
;

boundaryField
{
    inlet
    {
        type            fixedValue;
        value           uniform (1.13622e-05 0 0);
    }
    outlet
    {
        type            zeroGradient;
    }
    emptyWalls
    {
        type            empty;
    }
}


// ************************************************************************* //
