/*--------------------------------*- C++ -*----------------------------------*\
  =========                 |
  \\      /  F ield         | OpenFOAM: The Open Source CFD Toolbox
   \\    /   O peration     | Website:  https://openfoam.org
    \\  /    A nd           | Version:  9
     \\/     M anipulation  |
\*---------------------------------------------------------------------------*/
FoamFile
{
    format      ascii;
    class       volScalarField;
    location    "13300";
    object      krc;
}
// * * * * * * * * * * * * * * * * * * * * * * * * * * * * * * * * * * * * * //

dimensions      [0 0 0 0 0 0 0];

internalField   nonuniform List<scalar> 
1000
(
2.80263e-07
2.79157e-06
9.76427e-06
2.05103e-05
3.49476e-05
5.30209e-05
7.45527e-05
9.91596e-05
0.000126183
0.000154677
0.000183502
0.000211477
0.000237651
0.000261771
0.000286143
0.000325163
0.000451705
0.00107366
0.00841492
0.0345594
0.0430116
0.0459873
0.0475788
0.0486666
0.0495165
0.0502287
0.0508515
0.0514091
0.0519164
0.0523825
0.0528141
0.0532176
0.0535972
0.0539585
0.0543047
0.0546403
0.0549674
0.05529
0.0556097
0.0559318
0.0562667
0.056608
0.0569555
0.057312
0.057682
0.058072
0.0584922
0.0589578
0.0594887
0.0601084
0.0608369
0.0616807
0.062626
0.063646
0.0647162
0.0658198
0.0669456
0.0680861
0.0692364
0.0703928
0.0715527
0.0727144
0.0738764
0.0750377
0.0761977
0.0773555
0.0785109
0.0796635
0.080813
0.0819591
0.0831017
0.0842407
0.0853759
0.0865074
0.0876349
0.0887585
0.0898781
0.0909937
0.0921053
0.0932127
0.0943161
0.0954154
0.0965105
0.0976015
0.0986885
0.0997714
0.10085
0.101925
0.102996
0.104063
0.105126
0.106185
0.10724
0.108292
0.10934
0.110384
0.111424
0.112461
0.113494
0.114524
0.115551
0.116573
0.117593
0.118609
0.119621
0.12063
0.121635
0.122637
0.123635
0.12463
0.125622
0.12661
0.127595
0.128576
0.129555
0.130529
0.131501
0.13247
0.133435
0.134398
0.135357
0.136313
0.137266
0.138217
0.139164
0.140109
0.14105
0.141989
0.142925
0.143858
0.144789
0.145716
0.146641
0.147563
0.148483
0.1494
0.150314
0.151226
0.152135
0.153041
0.153945
0.154847
0.155746
0.156642
0.157536
0.158428
0.159317
0.160204
0.161089
0.161971
0.162851
0.163729
0.164604
0.165477
0.166348
0.167217
0.168083
0.168948
0.16981
0.17067
0.171528
0.172384
0.173238
0.17409
0.174939
0.175787
0.176633
0.177477
0.178319
0.179159
0.179997
0.180833
0.181667
0.182499
0.18333
0.184159
0.184986
0.185811
0.186634
0.187456
0.188275
0.189094
0.18991
0.190725
0.191538
0.192349
0.193159
0.193967
0.194774
0.195578
0.196382
0.197184
0.197984
0.198783
0.19958
0.200375
0.20117
0.201962
0.202754
0.203543
0.204332
0.205119
0.205904
0.206688
0.207471
0.208252
0.209032
0.209811
0.210588
0.211364
0.212139
0.212913
0.213685
0.214455
0.215225
0.215993
0.21676
0.217525
0.218289
0.219052
0.219814
0.220574
0.221333
0.222091
0.222848
0.223604
0.224358
0.225112
0.225864
0.226616
0.227366
0.228116
0.228864
0.229612
0.230359
0.231105
0.231851
0.232595
0.233339
0.234082
0.234825
0.235567
0.236308
0.237048
0.237787
0.238526
0.239264
0.240001
0.240737
0.241473
0.242207
0.242941
0.243674
0.244405
0.245136
0.245866
0.246596
0.247324
0.248052
0.248778
0.249504
0.250229
0.250954
0.251677
0.2524
0.253123
0.253844
0.254565
0.255285
0.256005
0.256724
0.257443
0.25816
0.258878
0.259595
0.260311
0.261026
0.261742
0.262456
0.26317
0.263884
0.264597
0.26531
0.266022
0.266734
0.267445
0.268156
0.268866
0.269576
0.270286
0.270995
0.271704
0.272412
0.27312
0.273827
0.274535
0.275242
0.275948
0.276654
0.27736
0.278066
0.278771
0.279476
0.28018
0.280885
0.281589
0.282292
0.282996
0.283699
0.284402
0.285105
0.285808
0.28651
0.287213
0.287915
0.288617
0.289318
0.29002
0.290721
0.291423
0.292124
0.292825
0.293526
0.294227
0.294928
0.295628
0.296329
0.297029
0.29773
0.298431
0.299131
0.299831
0.300532
0.301232
0.301933
0.302633
0.303334
0.304034
0.304735
0.305436
0.306137
0.306838
0.307539
0.30824
0.308941
0.309643
0.310344
0.311046
0.311748
0.31245
0.313152
0.313855
0.314557
0.31526
0.315964
0.316667
0.317371
0.318075
0.318779
0.319484
0.320189
0.320894
0.3216
0.322306
0.323012
0.323719
0.324426
0.325134
0.325841
0.32655
0.327258
0.327967
0.328677
0.329387
0.330097
0.330808
0.331519
0.33223
0.332942
0.333655
0.334368
0.335081
0.335795
0.33651
0.337225
0.337941
0.338658
0.339375
0.340092
0.340811
0.34153
0.34225
0.342971
0.343693
0.344416
0.34514
0.345865
0.346591
0.347317
0.348046
0.348775
0.349506
0.350237
0.35097
0.351705
0.35244
0.353177
0.353916
0.354655
0.355396
0.356139
0.356882
0.357627
0.358374
0.359121
0.35987
0.36062
0.361372
0.362124
0.362878
0.363634
0.36439
0.365148
0.365908
0.366669
0.367431
0.368194
0.368959
0.369726
0.370494
0.371264
0.372035
0.372808
0.373582
0.374359
0.375137
0.375917
0.376698
0.377482
0.378268
0.379055
0.379845
0.380636
0.38143
0.382226
0.383024
0.383824
0.384627
0.385432
0.386239
0.387048
0.38786
0.388675
0.389492
0.390311
0.391133
0.391958
0.392786
0.393616
0.394449
0.395285
0.396124
0.396965
0.39781
0.398658
0.399508
0.400362
0.401219
0.402079
0.402943
0.403809
0.404679
0.405553
0.40643
0.40731
0.408194
0.409081
0.409972
0.410866
0.411764
0.412666
0.413571
0.41448
0.415392
0.416307
0.417226
0.418147
0.419072
0.42
0.42093
0.421863
0.422797
0.423732
0.424668
0.425604
0.426539
0.427471
0.4284
0.429324
0.430241
0.43115
0.432047
0.43293
0.433796
0.434641
0.435464
0.436259
0.437023
0.437753
0.438445
0.439096
0.439703
0.440264
0.440778
0.441244
0.441664
0.442036
0.442363
0.442649
0.442898
0.443117
0.443313
0.4435
0.443699
0.443941
0.444286
0.444831
0.44575
0.447342
0.450117
0.454909
0.46298
0.475966
0.495358
0.521266
0.551069
0.579794
0.602918
0.618833
0.62858
0.634108
0.637104
0.638687
0.639511
0.639937
0.640157
0.640269
0.640326
0.640355
0.640368
0.640375
0.640377
0.640378
0.640377
0.640375
0.640373
0.640371
0.640369
0.640366
0.640363
0.64036
0.640357
0.640354
0.64035
0.640346
0.640343
0.640338
0.640334
0.64033
0.640325
0.64032
0.640316
0.640311
0.640306
0.640301
0.640296
0.640291
0.640286
0.640281
0.640276
0.640271
0.640267
0.640262
0.640258
0.640255
0.640251
0.640248
0.640245
0.640243
0.640241
0.640239
0.640239
0.640238
0.640238
0.640239
0.640239
0.64024
0.640242
0.640244
0.640247
0.64025
0.640254
0.640258
0.640262
0.640267
0.640272
0.640277
0.640282
0.640287
0.640293
0.640298
0.640303
0.640309
0.640314
0.640319
0.640324
0.640329
0.640334
0.640338
0.640342
0.640347
0.64035
0.640354
0.640357
0.64036
0.640363
0.640366
0.640369
0.640371
0.640373
0.640375
0.640377
0.640378
0.64038
0.640381
0.640383
0.640384
0.640385
0.640386
0.640387
0.640388
0.640389
0.64039
0.640391
0.640392
0.640393
0.640394
0.640394
0.640395
0.640396
0.640397
0.640398
0.640399
0.6404
0.640401
0.640401
0.640402
0.640403
0.640404
0.640405
0.640406
0.640407
0.640408
0.640408
0.640409
0.64041
0.640411
0.640412
0.640413
0.640413
0.640414
0.640415
0.640415
0.640416
0.640417
0.640417
0.640418
0.640419
0.640419
0.64042
0.64042
0.640421
0.640421
0.640422
0.640422
0.640423
0.640423
0.640424
0.640424
0.640424
0.640425
0.640425
0.640425
0.640426
0.640426
0.640426
0.640426
0.640427
0.640427
0.640427
0.640427
0.640427
0.640427
0.640427
0.640428
0.640428
0.640428
0.640428
0.640428
0.640428
0.640428
0.640428
0.640427
0.640427
0.640427
0.640427
0.640427
0.640427
0.640426
0.640426
0.640426
0.640426
0.640425
0.640425
0.640425
0.640424
0.640424
0.640423
0.640423
0.640422
0.640422
0.640421
0.640421
0.64042
0.64042
0.640419
0.640419
0.640418
0.640418
0.640417
0.640416
0.640416
0.640415
0.640414
0.640414
0.640413
0.640412
0.640411
0.64041
0.64041
0.640409
0.640408
0.640407
0.640405
0.640404
0.640403
0.640401
0.6404
0.640398
0.640396
0.640394
0.640392
0.640389
0.640387
0.640384
0.640381
0.640378
0.640375
0.640372
0.640368
0.640364
0.640361
0.640357
0.640353
0.640349
0.640345
0.64034
0.640336
0.640332
0.640327
0.640323
0.640319
0.640314
0.64031
0.640306
0.640302
0.640298
0.640294
0.64029
0.640287
0.640283
0.64028
0.640277
0.640274
0.640272
0.64027
0.640268
0.640267
0.640266
0.640265
0.640264
0.640264
0.640264
0.640265
0.640265
0.640266
0.640268
0.64027
0.640273
0.640275
0.640278
0.640281
0.640285
0.640288
0.640292
0.640296
0.6403
0.640304
0.640308
0.640312
0.640316
0.64032
0.640325
0.640329
0.640332
0.640336
0.64034
0.640343
0.640347
0.64035
0.640353
0.640356
0.640359
0.640361
0.640364
0.640366
0.640368
0.64037
0.640372
0.640374
0.640375
0.640377
0.640378
0.64038
0.640381
0.640382
0.640383
0.640384
0.640385
0.640386
0.640387
0.640388
0.640389
0.64039
0.640391
0.640392
0.640393
0.640393
0.640394
0.640395
0.640396
0.640397
0.640398
0.640399
0.6404
0.6404
0.640401
0.640402
0.640403
0.640404
0.640405
0.640406
0.640407
0.640408
0.640409
0.640409
0.64041
0.640411
0.640412
0.640413
0.640414
0.640414
0.640415
0.640416
0.640417
0.640417
0.640418
0.640419
0.640419
0.64042
0.640421
0.640421
0.640422
0.640422
0.640423
0.640423
0.640424
0.640424
0.640425
0.640425
0.640425
0.640426
0.640426
0.640426
0.640427
0.640427
0.640427
0.640427
0.640428
0.640428
0.640428
0.640428
0.640428
0.640428
0.640428
0.640428
0.640428
0.640428
0.640428
0.640428
0.640428
0.640428
0.640428
0.640428
0.640428
0.640428
0.640427
0.640427
0.640427
0.640427
0.640426
0.640426
0.640426
0.640425
0.640425
0.640425
0.640424
0.640424
0.640423
0.640423
0.640423
0.640422
0.640421
0.640421
0.64042
0.64042
0.640419
0.640419
0.640418
0.640417
0.640416
0.640416
0.640415
0.640414
0.640413
0.640412
0.640411
0.64041
0.640408
0.640407
0.640406
0.640404
0.640402
0.640401
0.640399
0.640397
0.640395
0.640393
0.640391
0.640389
0.640386
0.640384
0.640381
0.640378
0.640375
0.640372
0.640369
0.640366
0.640362
0.640359
0.640356
0.640352
0.640348
0.640345
0.640341
0.640337
0.640333
0.640329
0.640326
0.640321
0.640318
0.640314
0.640311
0.640306
0.640304
0.640299
0.640298
0.640293
0.640292
0.640286
)
;

boundaryField
{
    inlet
    {
        type            calculated;
        value           uniform 3.08149e-33;
    }
    outlet
    {
        type            calculated;
        value           uniform 0.640286;
    }
    emptyWalls
    {
        type            empty;
    }
}


// ************************************************************************* //
