/*--------------------------------*- C++ -*----------------------------------*\
  =========                 |
  \\      /  F ield         | OpenFOAM: The Open Source CFD Toolbox
   \\    /   O peration     | Website:  https://openfoam.org
    \\  /    A nd           | Version:  9
     \\/     M anipulation  |
\*---------------------------------------------------------------------------*/
FoamFile
{
    format      ascii;
    class       volVectorField;
    location    "13300";
    object      Uc;
}
// * * * * * * * * * * * * * * * * * * * * * * * * * * * * * * * * * * * * * //

dimensions      [0 0 0 0 0 0 0];

internalField   nonuniform List<vector> 
1000
(
(1.61909e-11 0 0)
(8.81448e-11 0 0)
(2.43866e-10 0 0)
(4.84051e-10 0 0)
(8.02858e-10 0 0)
(1.1961e-09 0 0)
(1.65747e-09 0 0)
(2.17662e-09 0 0)
(2.73821e-09 0 0)
(3.32227e-09 0 0)
(3.90601e-09 0 0)
(4.4674e-09 0 0)
(4.99068e-09 0 0)
(5.48144e-09 0 0)
(6.03205e-09 0 0)
(7.14204e-09 0 0)
(1.08098e-08 0 0)
(2.54819e-08 0 0)
(9.98817e-08 0 0)
(1.82059e-07 0 0)
(2.07327e-07 0 0)
(2.15657e-07 0 0)
(2.20004e-07 0 0)
(2.23025e-07 0 0)
(2.25462e-07 0 0)
(2.27583e-07 0 0)
(2.2951e-07 0 0)
(2.313e-07 0 0)
(2.32988e-07 0 0)
(2.34591e-07 0 0)
(2.36126e-07 0 0)
(2.37604e-07 0 0)
(2.39037e-07 0 0)
(2.40437e-07 0 0)
(2.41816e-07 0 0)
(2.43185e-07 0 0)
(2.44554e-07 0 0)
(2.45934e-07 0 0)
(2.47336e-07 0 0)
(2.48786e-07 0 0)
(2.50314e-07 0 0)
(2.51915e-07 0 0)
(2.53583e-07 0 0)
(2.55334e-07 0 0)
(2.57194e-07 0 0)
(2.59203e-07 0 0)
(2.61421e-07 0 0)
(2.63939e-07 0 0)
(2.66876e-07 0 0)
(2.70372e-07 0 0)
(2.74545e-07 0 0)
(2.79436e-07 0 0)
(2.84972e-07 0 0)
(2.91006e-07 0 0)
(2.97398e-07 0 0)
(3.04047e-07 0 0)
(3.10889e-07 0 0)
(3.17877e-07 0 0)
(3.24983e-07 0 0)
(3.32183e-07 0 0)
(3.39462e-07 0 0)
(3.4681e-07 0 0)
(3.54217e-07 0 0)
(3.61678e-07 0 0)
(3.69186e-07 0 0)
(3.76737e-07 0 0)
(3.84328e-07 0 0)
(3.91956e-07 0 0)
(3.99617e-07 0 0)
(4.07311e-07 0 0)
(4.15035e-07 0 0)
(4.22788e-07 0 0)
(4.3057e-07 0 0)
(4.38379e-07 0 0)
(4.46215e-07 0 0)
(4.54079e-07 0 0)
(4.61967e-07 0 0)
(4.69879e-07 0 0)
(4.7781e-07 0 0)
(4.85757e-07 0 0)
(4.93717e-07 0 0)
(5.01686e-07 0 0)
(5.09664e-07 0 0)
(5.17649e-07 0 0)
(5.25643e-07 0 0)
(5.33648e-07 0 0)
(5.41664e-07 0 0)
(5.49694e-07 0 0)
(5.57741e-07 0 0)
(5.65805e-07 0 0)
(5.7389e-07 0 0)
(5.82e-07 0 0)
(5.90137e-07 0 0)
(5.98307e-07 0 0)
(6.06512e-07 0 0)
(6.14757e-07 0 0)
(6.23046e-07 0 0)
(6.31378e-07 0 0)
(6.39756e-07 0 0)
(6.48177e-07 0 0)
(6.56639e-07 0 0)
(6.65136e-07 0 0)
(6.73665e-07 0 0)
(6.82218e-07 0 0)
(6.90789e-07 0 0)
(6.99373e-07 0 0)
(7.07965e-07 0 0)
(7.16561e-07 0 0)
(7.25158e-07 0 0)
(7.33754e-07 0 0)
(7.42349e-07 0 0)
(7.50941e-07 0 0)
(7.59534e-07 0 0)
(7.68128e-07 0 0)
(7.76724e-07 0 0)
(7.85326e-07 0 0)
(7.93936e-07 0 0)
(8.02555e-07 0 0)
(8.11186e-07 0 0)
(8.1983e-07 0 0)
(8.28488e-07 0 0)
(8.37162e-07 0 0)
(8.45851e-07 0 0)
(8.54558e-07 0 0)
(8.63281e-07 0 0)
(8.7202e-07 0 0)
(8.80776e-07 0 0)
(8.89548e-07 0 0)
(8.98335e-07 0 0)
(9.07138e-07 0 0)
(9.15955e-07 0 0)
(9.24787e-07 0 0)
(9.33634e-07 0 0)
(9.42493e-07 0 0)
(9.51367e-07 0 0)
(9.60253e-07 0 0)
(9.69153e-07 0 0)
(9.78065e-07 0 0)
(9.8699e-07 0 0)
(9.95928e-07 0 0)
(1.00488e-06 0 0)
(1.01384e-06 0 0)
(1.02282e-06 0 0)
(1.0318e-06 0 0)
(1.0408e-06 0 0)
(1.04981e-06 0 0)
(1.05884e-06 0 0)
(1.06787e-06 0 0)
(1.07692e-06 0 0)
(1.08598e-06 0 0)
(1.09505e-06 0 0)
(1.10413e-06 0 0)
(1.11323e-06 0 0)
(1.12234e-06 0 0)
(1.13145e-06 0 0)
(1.14058e-06 0 0)
(1.14972e-06 0 0)
(1.15888e-06 0 0)
(1.16804e-06 0 0)
(1.17722e-06 0 0)
(1.18641e-06 0 0)
(1.1956e-06 0 0)
(1.20481e-06 0 0)
(1.21404e-06 0 0)
(1.22327e-06 0 0)
(1.23251e-06 0 0)
(1.24177e-06 0 0)
(1.25103e-06 0 0)
(1.26031e-06 0 0)
(1.2696e-06 0 0)
(1.2789e-06 0 0)
(1.28821e-06 0 0)
(1.29753e-06 0 0)
(1.30686e-06 0 0)
(1.3162e-06 0 0)
(1.32556e-06 0 0)
(1.33492e-06 0 0)
(1.3443e-06 0 0)
(1.35369e-06 0 0)
(1.36308e-06 0 0)
(1.37249e-06 0 0)
(1.38191e-06 0 0)
(1.39134e-06 0 0)
(1.40078e-06 0 0)
(1.41024e-06 0 0)
(1.4197e-06 0 0)
(1.42917e-06 0 0)
(1.43866e-06 0 0)
(1.44816e-06 0 0)
(1.45767e-06 0 0)
(1.46719e-06 0 0)
(1.47672e-06 0 0)
(1.48627e-06 0 0)
(1.49582e-06 0 0)
(1.50539e-06 0 0)
(1.51497e-06 0 0)
(1.52456e-06 0 0)
(1.53416e-06 0 0)
(1.54377e-06 0 0)
(1.5534e-06 0 0)
(1.56303e-06 0 0)
(1.57268e-06 0 0)
(1.58234e-06 0 0)
(1.592e-06 0 0)
(1.60168e-06 0 0)
(1.61137e-06 0 0)
(1.62107e-06 0 0)
(1.63078e-06 0 0)
(1.6405e-06 0 0)
(1.65023e-06 0 0)
(1.65996e-06 0 0)
(1.6697e-06 0 0)
(1.67944e-06 0 0)
(1.68918e-06 0 0)
(1.69892e-06 0 0)
(1.70866e-06 0 0)
(1.7184e-06 0 0)
(1.72813e-06 0 0)
(1.73786e-06 0 0)
(1.74759e-06 0 0)
(1.75732e-06 0 0)
(1.76704e-06 0 0)
(1.77676e-06 0 0)
(1.78649e-06 0 0)
(1.79622e-06 0 0)
(1.80596e-06 0 0)
(1.8157e-06 0 0)
(1.82546e-06 0 0)
(1.83524e-06 0 0)
(1.84504e-06 0 0)
(1.85487e-06 0 0)
(1.86473e-06 0 0)
(1.87463e-06 0 0)
(1.88456e-06 0 0)
(1.89454e-06 0 0)
(1.90456e-06 0 0)
(1.91464e-06 0 0)
(1.92476e-06 0 0)
(1.93494e-06 0 0)
(1.94516e-06 0 0)
(1.95543e-06 0 0)
(1.96575e-06 0 0)
(1.97611e-06 0 0)
(1.9865e-06 0 0)
(1.99693e-06 0 0)
(2.00738e-06 0 0)
(2.01786e-06 0 0)
(2.02835e-06 0 0)
(2.03885e-06 0 0)
(2.04936e-06 0 0)
(2.05988e-06 0 0)
(2.07039e-06 0 0)
(2.0809e-06 0 0)
(2.09141e-06 0 0)
(2.10191e-06 0 0)
(2.11241e-06 0 0)
(2.12291e-06 0 0)
(2.1334e-06 0 0)
(2.14389e-06 0 0)
(2.15438e-06 0 0)
(2.16487e-06 0 0)
(2.17536e-06 0 0)
(2.18586e-06 0 0)
(2.19636e-06 0 0)
(2.20687e-06 0 0)
(2.2174e-06 0 0)
(2.22793e-06 0 0)
(2.23848e-06 0 0)
(2.24904e-06 0 0)
(2.25962e-06 0 0)
(2.27022e-06 0 0)
(2.28083e-06 0 0)
(2.29146e-06 0 0)
(2.30211e-06 0 0)
(2.31278e-06 0 0)
(2.32347e-06 0 0)
(2.33417e-06 0 0)
(2.34489e-06 0 0)
(2.35564e-06 0 0)
(2.3664e-06 0 0)
(2.37717e-06 0 0)
(2.38797e-06 0 0)
(2.39878e-06 0 0)
(2.40962e-06 0 0)
(2.42047e-06 0 0)
(2.43133e-06 0 0)
(2.44222e-06 0 0)
(2.45312e-06 0 0)
(2.46404e-06 0 0)
(2.47497e-06 0 0)
(2.48593e-06 0 0)
(2.4969e-06 0 0)
(2.50789e-06 0 0)
(2.51889e-06 0 0)
(2.52992e-06 0 0)
(2.54096e-06 0 0)
(2.55202e-06 0 0)
(2.56309e-06 0 0)
(2.57418e-06 0 0)
(2.58529e-06 0 0)
(2.59642e-06 0 0)
(2.60757e-06 0 0)
(2.61873e-06 0 0)
(2.62991e-06 0 0)
(2.64111e-06 0 0)
(2.65233e-06 0 0)
(2.66357e-06 0 0)
(2.67482e-06 0 0)
(2.68609e-06 0 0)
(2.69738e-06 0 0)
(2.70869e-06 0 0)
(2.72002e-06 0 0)
(2.73136e-06 0 0)
(2.74273e-06 0 0)
(2.75411e-06 0 0)
(2.76551e-06 0 0)
(2.77693e-06 0 0)
(2.78837e-06 0 0)
(2.79982e-06 0 0)
(2.8113e-06 0 0)
(2.8228e-06 0 0)
(2.83431e-06 0 0)
(2.84584e-06 0 0)
(2.85739e-06 0 0)
(2.86897e-06 0 0)
(2.88056e-06 0 0)
(2.89217e-06 0 0)
(2.9038e-06 0 0)
(2.91545e-06 0 0)
(2.92712e-06 0 0)
(2.93881e-06 0 0)
(2.95052e-06 0 0)
(2.96225e-06 0 0)
(2.974e-06 0 0)
(2.98577e-06 0 0)
(2.99756e-06 0 0)
(3.00937e-06 0 0)
(3.0212e-06 0 0)
(3.03306e-06 0 0)
(3.04493e-06 0 0)
(3.05683e-06 0 0)
(3.06875e-06 0 0)
(3.08069e-06 0 0)
(3.09265e-06 0 0)
(3.10464e-06 0 0)
(3.11665e-06 0 0)
(3.12868e-06 0 0)
(3.14074e-06 0 0)
(3.15281e-06 0 0)
(3.16492e-06 0 0)
(3.17704e-06 0 0)
(3.18919e-06 0 0)
(3.20136e-06 0 0)
(3.21356e-06 0 0)
(3.22578e-06 0 0)
(3.23803e-06 0 0)
(3.2503e-06 0 0)
(3.2626e-06 0 0)
(3.27492e-06 0 0)
(3.28726e-06 0 0)
(3.29963e-06 0 0)
(3.31202e-06 0 0)
(3.32444e-06 0 0)
(3.33688e-06 0 0)
(3.34934e-06 0 0)
(3.36183e-06 0 0)
(3.37434e-06 0 0)
(3.38686e-06 0 0)
(3.39941e-06 0 0)
(3.41198e-06 0 0)
(3.42457e-06 0 0)
(3.43717e-06 0 0)
(3.4498e-06 0 0)
(3.46243e-06 0 0)
(3.47509e-06 0 0)
(3.48775e-06 0 0)
(3.50044e-06 0 0)
(3.51313e-06 0 0)
(3.52584e-06 0 0)
(3.53856e-06 0 0)
(3.5513e-06 0 0)
(3.56405e-06 0 0)
(3.57682e-06 0 0)
(3.58961e-06 0 0)
(3.60242e-06 0 0)
(3.61524e-06 0 0)
(3.6281e-06 0 0)
(3.64098e-06 0 0)
(3.65388e-06 0 0)
(3.66683e-06 0 0)
(3.67981e-06 0 0)
(3.69283e-06 0 0)
(3.70589e-06 0 0)
(3.719e-06 0 0)
(3.73217e-06 0 0)
(3.74539e-06 0 0)
(3.75868e-06 0 0)
(3.77203e-06 0 0)
(3.78544e-06 0 0)
(3.79893e-06 0 0)
(3.8125e-06 0 0)
(3.82614e-06 0 0)
(3.83986e-06 0 0)
(3.85365e-06 0 0)
(3.86753e-06 0 0)
(3.88149e-06 0 0)
(3.89552e-06 0 0)
(3.90963e-06 0 0)
(3.92381e-06 0 0)
(3.93807e-06 0 0)
(3.95239e-06 0 0)
(3.96678e-06 0 0)
(3.98122e-06 0 0)
(3.99572e-06 0 0)
(4.01028e-06 0 0)
(4.02488e-06 0 0)
(4.03952e-06 0 0)
(4.05421e-06 0 0)
(4.06893e-06 0 0)
(4.08369e-06 0 0)
(4.09848e-06 0 0)
(4.1133e-06 0 0)
(4.12815e-06 0 0)
(4.14303e-06 0 0)
(4.15794e-06 0 0)
(4.17288e-06 0 0)
(4.18786e-06 0 0)
(4.20286e-06 0 0)
(4.2179e-06 0 0)
(4.23297e-06 0 0)
(4.24807e-06 0 0)
(4.26322e-06 0 0)
(4.2784e-06 0 0)
(4.29363e-06 0 0)
(4.3089e-06 0 0)
(4.32422e-06 0 0)
(4.33958e-06 0 0)
(4.355e-06 0 0)
(4.37047e-06 0 0)
(4.386e-06 0 0)
(4.40158e-06 0 0)
(4.41722e-06 0 0)
(4.43292e-06 0 0)
(4.44868e-06 0 0)
(4.4645e-06 0 0)
(4.48039e-06 0 0)
(4.49634e-06 0 0)
(4.51236e-06 0 0)
(4.52845e-06 0 0)
(4.54461e-06 0 0)
(4.56083e-06 0 0)
(4.57712e-06 0 0)
(4.59349e-06 0 0)
(4.60992e-06 0 0)
(4.62643e-06 0 0)
(4.64301e-06 0 0)
(4.65967e-06 0 0)
(4.6764e-06 0 0)
(4.69321e-06 0 0)
(4.71009e-06 0 0)
(4.72705e-06 0 0)
(4.74408e-06 0 0)
(4.7612e-06 0 0)
(4.77839e-06 0 0)
(4.79567e-06 0 0)
(4.81303e-06 0 0)
(4.83047e-06 0 0)
(4.84799e-06 0 0)
(4.86559e-06 0 0)
(4.88328e-06 0 0)
(4.90106e-06 0 0)
(4.91892e-06 0 0)
(4.93687e-06 0 0)
(4.9549e-06 0 0)
(4.97303e-06 0 0)
(4.99124e-06 0 0)
(5.00954e-06 0 0)
(5.02794e-06 0 0)
(5.04642e-06 0 0)
(5.06499e-06 0 0)
(5.08366e-06 0 0)
(5.10241e-06 0 0)
(5.12126e-06 0 0)
(5.14018e-06 0 0)
(5.1592e-06 0 0)
(5.1783e-06 0 0)
(5.19748e-06 0 0)
(5.21675e-06 0 0)
(5.23608e-06 0 0)
(5.25549e-06 0 0)
(5.27495e-06 0 0)
(5.29446e-06 0 0)
(5.31401e-06 0 0)
(5.33359e-06 0 0)
(5.35319e-06 0 0)
(5.37277e-06 0 0)
(5.39232e-06 0 0)
(5.41181e-06 0 0)
(5.4312e-06 0 0)
(5.45046e-06 0 0)
(5.46954e-06 0 0)
(5.4884e-06 0 0)
(5.50697e-06 0 0)
(5.5252e-06 0 0)
(5.543e-06 0 0)
(5.56031e-06 0 0)
(5.57706e-06 0 0)
(5.59317e-06 0 0)
(5.60856e-06 0 0)
(5.62315e-06 0 0)
(5.63689e-06 0 0)
(5.64969e-06 0 0)
(5.66154e-06 0 0)
(5.6724e-06 0 0)
(5.68226e-06 0 0)
(5.69111e-06 0 0)
(5.69898e-06 0 0)
(5.70591e-06 0 0)
(5.71196e-06 0 0)
(5.71724e-06 0 0)
(5.72189e-06 0 0)
(5.72609e-06 0 0)
(5.73014e-06 0 0)
(5.73448e-06 0 0)
(5.73989e-06 0 0)
(5.74768e-06 0 0)
(5.76012e-06 0 0)
(5.78116e-06 0 0)
(5.81761e-06 0 0)
(5.88094e-06 0 0)
(5.98952e-06 0 0)
(6.17008e-06 0 0)
(6.45485e-06 0 0)
(6.86817e-06 0 0)
(7.4014e-06 0 0)
(7.99349e-06 0 0)
(8.54842e-06 0 0)
(8.98783e-06 0 0)
(9.28821e-06 0 0)
(9.47185e-06 0 0)
(9.576e-06 0 0)
(9.63243e-06 0 0)
(9.6622e-06 0 0)
(9.67765e-06 0 0)
(9.68557e-06 0 0)
(9.68959e-06 0 0)
(9.69158e-06 0 0)
(9.69251e-06 0 0)
(9.69289e-06 0 0)
(9.69299e-06 0 0)
(9.69294e-06 0 0)
(9.6928e-06 0 0)
(9.69261e-06 0 0)
(9.69238e-06 0 0)
(9.69212e-06 0 0)
(9.69184e-06 0 0)
(9.69153e-06 0 0)
(9.69121e-06 0 0)
(9.69086e-06 0 0)
(9.69049e-06 0 0)
(9.69009e-06 0 0)
(9.68968e-06 0 0)
(9.68924e-06 0 0)
(9.68877e-06 0 0)
(9.68828e-06 0 0)
(9.68777e-06 0 0)
(9.68724e-06 0 0)
(9.68668e-06 0 0)
(9.68611e-06 0 0)
(9.68551e-06 0 0)
(9.6849e-06 0 0)
(9.68427e-06 0 0)
(9.68363e-06 0 0)
(9.68298e-06 0 0)
(9.68232e-06 0 0)
(9.68166e-06 0 0)
(9.681e-06 0 0)
(9.68034e-06 0 0)
(9.67969e-06 0 0)
(9.67905e-06 0 0)
(9.67843e-06 0 0)
(9.67782e-06 0 0)
(9.67725e-06 0 0)
(9.6767e-06 0 0)
(9.67618e-06 0 0)
(9.6757e-06 0 0)
(9.67527e-06 0 0)
(9.67488e-06 0 0)
(9.67454e-06 0 0)
(9.67426e-06 0 0)
(9.67404e-06 0 0)
(9.67388e-06 0 0)
(9.67379e-06 0 0)
(9.67375e-06 0 0)
(9.67374e-06 0 0)
(9.67376e-06 0 0)
(9.67383e-06 0 0)
(9.67401e-06 0 0)
(9.67428e-06 0 0)
(9.6746e-06 0 0)
(9.67498e-06 0 0)
(9.6754e-06 0 0)
(9.67586e-06 0 0)
(9.67636e-06 0 0)
(9.6769e-06 0 0)
(9.67747e-06 0 0)
(9.67807e-06 0 0)
(9.67868e-06 0 0)
(9.67931e-06 0 0)
(9.67995e-06 0 0)
(9.6806e-06 0 0)
(9.68124e-06 0 0)
(9.68188e-06 0 0)
(9.68252e-06 0 0)
(9.68313e-06 0 0)
(9.68373e-06 0 0)
(9.68432e-06 0 0)
(9.68487e-06 0 0)
(9.68541e-06 0 0)
(9.68592e-06 0 0)
(9.6864e-06 0 0)
(9.68685e-06 0 0)
(9.68727e-06 0 0)
(9.68767e-06 0 0)
(9.68804e-06 0 0)
(9.68838e-06 0 0)
(9.68869e-06 0 0)
(9.68898e-06 0 0)
(9.68925e-06 0 0)
(9.68949e-06 0 0)
(9.68971e-06 0 0)
(9.68991e-06 0 0)
(9.6901e-06 0 0)
(9.69027e-06 0 0)
(9.69043e-06 0 0)
(9.69058e-06 0 0)
(9.69071e-06 0 0)
(9.69084e-06 0 0)
(9.69096e-06 0 0)
(9.69108e-06 0 0)
(9.69119e-06 0 0)
(9.69129e-06 0 0)
(9.6914e-06 0 0)
(9.6915e-06 0 0)
(9.69161e-06 0 0)
(9.69171e-06 0 0)
(9.69181e-06 0 0)
(9.69192e-06 0 0)
(9.69202e-06 0 0)
(9.69213e-06 0 0)
(9.69224e-06 0 0)
(9.69235e-06 0 0)
(9.69246e-06 0 0)
(9.69258e-06 0 0)
(9.69269e-06 0 0)
(9.69281e-06 0 0)
(9.69293e-06 0 0)
(9.69305e-06 0 0)
(9.69317e-06 0 0)
(9.69329e-06 0 0)
(9.69341e-06 0 0)
(9.69353e-06 0 0)
(9.69365e-06 0 0)
(9.69377e-06 0 0)
(9.69389e-06 0 0)
(9.69401e-06 0 0)
(9.69413e-06 0 0)
(9.69424e-06 0 0)
(9.69436e-06 0 0)
(9.69447e-06 0 0)
(9.69458e-06 0 0)
(9.69469e-06 0 0)
(9.6948e-06 0 0)
(9.6949e-06 0 0)
(9.695e-06 0 0)
(9.6951e-06 0 0)
(9.6952e-06 0 0)
(9.69529e-06 0 0)
(9.69538e-06 0 0)
(9.69547e-06 0 0)
(9.69556e-06 0 0)
(9.69564e-06 0 0)
(9.69572e-06 0 0)
(9.6958e-06 0 0)
(9.69587e-06 0 0)
(9.69594e-06 0 0)
(9.69601e-06 0 0)
(9.69608e-06 0 0)
(9.69614e-06 0 0)
(9.6962e-06 0 0)
(9.69626e-06 0 0)
(9.69631e-06 0 0)
(9.69637e-06 0 0)
(9.69642e-06 0 0)
(9.69646e-06 0 0)
(9.6965e-06 0 0)
(9.69654e-06 0 0)
(9.69658e-06 0 0)
(9.69661e-06 0 0)
(9.69664e-06 0 0)
(9.69667e-06 0 0)
(9.69669e-06 0 0)
(9.69671e-06 0 0)
(9.69673e-06 0 0)
(9.69674e-06 0 0)
(9.69676e-06 0 0)
(9.69676e-06 0 0)
(9.69677e-06 0 0)
(9.69677e-06 0 0)
(9.69677e-06 0 0)
(9.69677e-06 0 0)
(9.69676e-06 0 0)
(9.69675e-06 0 0)
(9.69673e-06 0 0)
(9.69671e-06 0 0)
(9.69669e-06 0 0)
(9.69667e-06 0 0)
(9.69664e-06 0 0)
(9.69661e-06 0 0)
(9.69657e-06 0 0)
(9.69653e-06 0 0)
(9.69649e-06 0 0)
(9.69645e-06 0 0)
(9.69641e-06 0 0)
(9.69636e-06 0 0)
(9.69631e-06 0 0)
(9.69625e-06 0 0)
(9.6962e-06 0 0)
(9.69614e-06 0 0)
(9.69608e-06 0 0)
(9.69601e-06 0 0)
(9.69595e-06 0 0)
(9.69588e-06 0 0)
(9.69581e-06 0 0)
(9.69574e-06 0 0)
(9.69566e-06 0 0)
(9.69558e-06 0 0)
(9.6955e-06 0 0)
(9.69542e-06 0 0)
(9.69533e-06 0 0)
(9.69525e-06 0 0)
(9.69515e-06 0 0)
(9.69506e-06 0 0)
(9.69496e-06 0 0)
(9.69486e-06 0 0)
(9.69475e-06 0 0)
(9.69463e-06 0 0)
(9.69452e-06 0 0)
(9.69439e-06 0 0)
(9.69426e-06 0 0)
(9.69412e-06 0 0)
(9.69398e-06 0 0)
(9.69382e-06 0 0)
(9.69365e-06 0 0)
(9.69348e-06 0 0)
(9.69329e-06 0 0)
(9.69309e-06 0 0)
(9.69288e-06 0 0)
(9.69265e-06 0 0)
(9.69241e-06 0 0)
(9.69215e-06 0 0)
(9.69188e-06 0 0)
(9.69159e-06 0 0)
(9.69128e-06 0 0)
(9.69095e-06 0 0)
(9.69061e-06 0 0)
(9.69024e-06 0 0)
(9.68986e-06 0 0)
(9.68946e-06 0 0)
(9.68904e-06 0 0)
(9.68861e-06 0 0)
(9.68815e-06 0 0)
(9.68768e-06 0 0)
(9.6872e-06 0 0)
(9.6867e-06 0 0)
(9.68618e-06 0 0)
(9.68566e-06 0 0)
(9.68512e-06 0 0)
(9.68458e-06 0 0)
(9.68403e-06 0 0)
(9.68347e-06 0 0)
(9.68292e-06 0 0)
(9.68236e-06 0 0)
(9.68181e-06 0 0)
(9.68126e-06 0 0)
(9.68072e-06 0 0)
(9.68019e-06 0 0)
(9.67968e-06 0 0)
(9.67918e-06 0 0)
(9.67871e-06 0 0)
(9.67826e-06 0 0)
(9.67784e-06 0 0)
(9.67745e-06 0 0)
(9.67709e-06 0 0)
(9.67677e-06 0 0)
(9.67648e-06 0 0)
(9.67624e-06 0 0)
(9.67604e-06 0 0)
(9.67588e-06 0 0)
(9.67577e-06 0 0)
(9.67571e-06 0 0)
(9.67569e-06 0 0)
(9.67568e-06 0 0)
(9.6757e-06 0 0)
(9.67578e-06 0 0)
(9.67593e-06 0 0)
(9.67615e-06 0 0)
(9.67641e-06 0 0)
(9.67671e-06 0 0)
(9.67705e-06 0 0)
(9.67742e-06 0 0)
(9.67783e-06 0 0)
(9.67827e-06 0 0)
(9.67873e-06 0 0)
(9.67921e-06 0 0)
(9.67972e-06 0 0)
(9.68023e-06 0 0)
(9.68076e-06 0 0)
(9.68129e-06 0 0)
(9.68183e-06 0 0)
(9.68236e-06 0 0)
(9.68289e-06 0 0)
(9.68342e-06 0 0)
(9.68393e-06 0 0)
(9.68443e-06 0 0)
(9.68492e-06 0 0)
(9.68539e-06 0 0)
(9.68585e-06 0 0)
(9.68628e-06 0 0)
(9.6867e-06 0 0)
(9.68709e-06 0 0)
(9.68747e-06 0 0)
(9.68782e-06 0 0)
(9.68815e-06 0 0)
(9.68846e-06 0 0)
(9.68875e-06 0 0)
(9.68903e-06 0 0)
(9.68928e-06 0 0)
(9.68952e-06 0 0)
(9.68974e-06 0 0)
(9.68995e-06 0 0)
(9.69014e-06 0 0)
(9.69032e-06 0 0)
(9.69049e-06 0 0)
(9.69065e-06 0 0)
(9.6908e-06 0 0)
(9.69094e-06 0 0)
(9.69108e-06 0 0)
(9.69121e-06 0 0)
(9.69133e-06 0 0)
(9.69145e-06 0 0)
(9.69157e-06 0 0)
(9.69169e-06 0 0)
(9.6918e-06 0 0)
(9.69192e-06 0 0)
(9.69203e-06 0 0)
(9.69214e-06 0 0)
(9.69225e-06 0 0)
(9.69237e-06 0 0)
(9.69248e-06 0 0)
(9.69259e-06 0 0)
(9.69271e-06 0 0)
(9.69282e-06 0 0)
(9.69294e-06 0 0)
(9.69305e-06 0 0)
(9.69317e-06 0 0)
(9.69329e-06 0 0)
(9.69341e-06 0 0)
(9.69352e-06 0 0)
(9.69364e-06 0 0)
(9.69376e-06 0 0)
(9.69388e-06 0 0)
(9.694e-06 0 0)
(9.69411e-06 0 0)
(9.69423e-06 0 0)
(9.69434e-06 0 0)
(9.69446e-06 0 0)
(9.69457e-06 0 0)
(9.69468e-06 0 0)
(9.69478e-06 0 0)
(9.69489e-06 0 0)
(9.69499e-06 0 0)
(9.6951e-06 0 0)
(9.6952e-06 0 0)
(9.69529e-06 0 0)
(9.69539e-06 0 0)
(9.69548e-06 0 0)
(9.69557e-06 0 0)
(9.69565e-06 0 0)
(9.69574e-06 0 0)
(9.69582e-06 0 0)
(9.6959e-06 0 0)
(9.69597e-06 0 0)
(9.69604e-06 0 0)
(9.69611e-06 0 0)
(9.69618e-06 0 0)
(9.69624e-06 0 0)
(9.6963e-06 0 0)
(9.69636e-06 0 0)
(9.69641e-06 0 0)
(9.69646e-06 0 0)
(9.69651e-06 0 0)
(9.69655e-06 0 0)
(9.69659e-06 0 0)
(9.69663e-06 0 0)
(9.69667e-06 0 0)
(9.6967e-06 0 0)
(9.69673e-06 0 0)
(9.69675e-06 0 0)
(9.69678e-06 0 0)
(9.6968e-06 0 0)
(9.69681e-06 0 0)
(9.69683e-06 0 0)
(9.69684e-06 0 0)
(9.69684e-06 0 0)
(9.69685e-06 0 0)
(9.69685e-06 0 0)
(9.69685e-06 0 0)
(9.69685e-06 0 0)
(9.69685e-06 0 0)
(9.69684e-06 0 0)
(9.69683e-06 0 0)
(9.69681e-06 0 0)
(9.69679e-06 0 0)
(9.69677e-06 0 0)
(9.69675e-06 0 0)
(9.69672e-06 0 0)
(9.69669e-06 0 0)
(9.69666e-06 0 0)
(9.69663e-06 0 0)
(9.69659e-06 0 0)
(9.69655e-06 0 0)
(9.69651e-06 0 0)
(9.69646e-06 0 0)
(9.69642e-06 0 0)
(9.69637e-06 0 0)
(9.69631e-06 0 0)
(9.69626e-06 0 0)
(9.6962e-06 0 0)
(9.69614e-06 0 0)
(9.69607e-06 0 0)
(9.69601e-06 0 0)
(9.69594e-06 0 0)
(9.69586e-06 0 0)
(9.69579e-06 0 0)
(9.69571e-06 0 0)
(9.69562e-06 0 0)
(9.69554e-06 0 0)
(9.69544e-06 0 0)
(9.69535e-06 0 0)
(9.69524e-06 0 0)
(9.69513e-06 0 0)
(9.69502e-06 0 0)
(9.6949e-06 0 0)
(9.69477e-06 0 0)
(9.69464e-06 0 0)
(9.6945e-06 0 0)
(9.69434e-06 0 0)
(9.69418e-06 0 0)
(9.69401e-06 0 0)
(9.69383e-06 0 0)
(9.69364e-06 0 0)
(9.69344e-06 0 0)
(9.69323e-06 0 0)
(9.693e-06 0 0)
(9.69276e-06 0 0)
(9.69251e-06 0 0)
(9.69225e-06 0 0)
(9.69197e-06 0 0)
(9.69167e-06 0 0)
(9.69136e-06 0 0)
(9.69104e-06 0 0)
(9.6907e-06 0 0)
(9.69034e-06 0 0)
(9.68998e-06 0 0)
(9.68959e-06 0 0)
(9.68919e-06 0 0)
(9.68878e-06 0 0)
(9.68836e-06 0 0)
(9.68792e-06 0 0)
(9.68747e-06 0 0)
(9.68701e-06 0 0)
(9.68654e-06 0 0)
(9.68606e-06 0 0)
(9.68557e-06 0 0)
(9.68508e-06 0 0)
(9.68459e-06 0 0)
(9.68409e-06 0 0)
(9.68359e-06 0 0)
(9.68309e-06 0 0)
(9.6826e-06 0 0)
(9.68211e-06 0 0)
(9.68163e-06 0 0)
(9.68116e-06 0 0)
(9.6807e-06 0 0)
(9.68025e-06 0 0)
(9.67982e-06 0 0)
(9.67941e-06 0 0)
(9.67903e-06 0 0)
(9.67867e-06 0 0)
)
;

boundaryField
{
    inlet
    {
        type            fixedValue;
        value           uniform (0 0 0);
    }
    outlet
    {
        type            zeroGradient;
    }
    emptyWalls
    {
        type            empty;
    }
}


// ************************************************************************* //
