/*--------------------------------*- C++ -*----------------------------------*\
  =========                 |
  \\      /  F ield         | OpenFOAM: The Open Source CFD Toolbox
   \\    /   O peration     | Website:  https://openfoam.org
    \\  /    A nd           | Version:  9
     \\/     M anipulation  |
\*---------------------------------------------------------------------------*/
FoamFile
{
    format      ascii;
    class       surfaceScalarField;
    location    "15350";
    object      phic;
}
// * * * * * * * * * * * * * * * * * * * * * * * * * * * * * * * * * * * * * //

dimensions      [0 2 0 0 0 0 0];

internalField   nonuniform List<scalar> 
999
(
2.36432e-15
1.03267e-14
2.49292e-14
4.565e-14
7.23024e-14
1.04724e-13
1.42693e-13
1.85722e-13
2.33131e-13
2.83828e-13
3.36459e-13
3.89392e-13
4.40956e-13
4.89624e-13
5.34327e-13
5.74983e-13
6.14741e-13
6.71397e-13
8.30735e-13
1.40886e-12
3.88006e-12
1.63883e-11
2.01805e-11
2.12704e-11
2.17701e-11
2.20875e-11
2.23299e-11
2.25343e-11
2.27165e-11
2.28841e-11
2.30411e-11
2.319e-11
2.33323e-11
2.34691e-11
2.36011e-11
2.37292e-11
2.3854e-11
2.39762e-11
2.40967e-11
2.4216e-11
2.43348e-11
2.44538e-11
2.45735e-11
2.46947e-11
2.4818e-11
2.49472e-11
2.50814e-11
2.52198e-11
2.5363e-11
2.55118e-11
2.56675e-11
2.58319e-11
2.60078e-11
2.61993e-11
2.64125e-11
2.66557e-11
2.69392e-11
2.72736e-11
2.76663e-11
2.81168e-11
2.8616e-11
2.91512e-11
2.97122e-11
3.02923e-11
3.08868e-11
3.14925e-11
3.21072e-11
3.27293e-11
3.33578e-11
3.39917e-11
3.46304e-11
3.52734e-11
3.59203e-11
3.65706e-11
3.72238e-11
3.78794e-11
3.85369e-11
3.91958e-11
3.9856e-11
4.05175e-11
4.11802e-11
4.18443e-11
4.25101e-11
4.31777e-11
4.38471e-11
4.45186e-11
4.51923e-11
4.58684e-11
4.65473e-11
4.72292e-11
4.79145e-11
4.86035e-11
4.92964e-11
4.99933e-11
5.06941e-11
5.13985e-11
5.21063e-11
5.28169e-11
5.35298e-11
5.42446e-11
5.49607e-11
5.56776e-11
5.63951e-11
5.71128e-11
5.78306e-11
5.85484e-11
5.92663e-11
5.99843e-11
6.07025e-11
6.14211e-11
6.21403e-11
6.28603e-11
6.35812e-11
6.43032e-11
6.50264e-11
6.57509e-11
6.64768e-11
6.72041e-11
6.79329e-11
6.86631e-11
6.93948e-11
7.01279e-11
7.08625e-11
7.15984e-11
7.23356e-11
7.30741e-11
7.38139e-11
7.45549e-11
7.52971e-11
7.60405e-11
7.6785e-11
7.75306e-11
7.82774e-11
7.90252e-11
7.97741e-11
8.05241e-11
8.12751e-11
8.20271e-11
8.27802e-11
8.35342e-11
8.42893e-11
8.50454e-11
8.58024e-11
8.65604e-11
8.73194e-11
8.80794e-11
8.88403e-11
8.96021e-11
9.03649e-11
9.11286e-11
9.18933e-11
9.26588e-11
9.34253e-11
9.41927e-11
9.4961e-11
9.57302e-11
9.65003e-11
9.72712e-11
9.80431e-11
9.88158e-11
9.95894e-11
1.00364e-10
1.01139e-10
1.01915e-10
1.02692e-10
1.0347e-10
1.04249e-10
1.05029e-10
1.05809e-10
1.0659e-10
1.07372e-10
1.08155e-10
1.08939e-10
1.09724e-10
1.10509e-10
1.11295e-10
1.12082e-10
1.1287e-10
1.13659e-10
1.14449e-10
1.15239e-10
1.16031e-10
1.16823e-10
1.17616e-10
1.1841e-10
1.19205e-10
1.20001e-10
1.20797e-10
1.21594e-10
1.22392e-10
1.23191e-10
1.23991e-10
1.24792e-10
1.25593e-10
1.26395e-10
1.27198e-10
1.28002e-10
1.28807e-10
1.29613e-10
1.30419e-10
1.31225e-10
1.32032e-10
1.32839e-10
1.33645e-10
1.34452e-10
1.35259e-10
1.36065e-10
1.3687e-10
1.37676e-10
1.3848e-10
1.39285e-10
1.40088e-10
1.40892e-10
1.41695e-10
1.42499e-10
1.43303e-10
1.44108e-10
1.44913e-10
1.4572e-10
1.46529e-10
1.47339e-10
1.48153e-10
1.48969e-10
1.49788e-10
1.50611e-10
1.51437e-10
1.52268e-10
1.53102e-10
1.53941e-10
1.54783e-10
1.55629e-10
1.56478e-10
1.5733e-10
1.58185e-10
1.59042e-10
1.59901e-10
1.60761e-10
1.61621e-10
1.62482e-10
1.63343e-10
1.64204e-10
1.65064e-10
1.65924e-10
1.66783e-10
1.67642e-10
1.685e-10
1.69357e-10
1.70214e-10
1.71071e-10
1.71927e-10
1.72784e-10
1.7364e-10
1.74498e-10
1.75355e-10
1.76213e-10
1.77072e-10
1.77932e-10
1.78793e-10
1.79654e-10
1.80517e-10
1.81381e-10
1.82247e-10
1.83113e-10
1.83981e-10
1.8485e-10
1.8572e-10
1.86592e-10
1.87464e-10
1.88338e-10
1.89213e-10
1.9009e-10
1.90967e-10
1.91846e-10
1.92725e-10
1.93606e-10
1.94488e-10
1.95371e-10
1.96255e-10
1.9714e-10
1.98026e-10
1.98913e-10
1.99802e-10
2.00691e-10
2.01581e-10
2.02472e-10
2.03364e-10
2.04258e-10
2.05152e-10
2.06047e-10
2.06944e-10
2.07841e-10
2.08739e-10
2.09639e-10
2.10539e-10
2.1144e-10
2.12342e-10
2.13246e-10
2.1415e-10
2.15055e-10
2.15962e-10
2.16869e-10
2.17777e-10
2.18687e-10
2.19597e-10
2.20508e-10
2.21421e-10
2.22334e-10
2.23249e-10
2.24164e-10
2.25081e-10
2.25998e-10
2.26917e-10
2.27836e-10
2.28757e-10
2.29679e-10
2.30601e-10
2.31525e-10
2.3245e-10
2.33376e-10
2.34303e-10
2.35231e-10
2.3616e-10
2.3709e-10
2.38022e-10
2.38954e-10
2.39888e-10
2.40822e-10
2.41758e-10
2.42695e-10
2.43634e-10
2.44573e-10
2.45513e-10
2.46455e-10
2.47398e-10
2.48342e-10
2.49287e-10
2.50234e-10
2.51181e-10
2.5213e-10
2.5308e-10
2.54032e-10
2.54984e-10
2.55938e-10
2.56893e-10
2.57849e-10
2.58806e-10
2.59764e-10
2.60724e-10
2.61684e-10
2.62645e-10
2.63607e-10
2.6457e-10
2.65534e-10
2.66498e-10
2.67462e-10
2.68427e-10
2.69392e-10
2.70357e-10
2.71323e-10
2.72288e-10
2.73254e-10
2.74219e-10
2.75185e-10
2.7615e-10
2.77116e-10
2.78082e-10
2.79048e-10
2.80015e-10
2.80983e-10
2.81951e-10
2.82921e-10
2.83892e-10
2.84865e-10
2.85839e-10
2.86817e-10
2.87797e-10
2.8878e-10
2.89766e-10
2.90756e-10
2.91751e-10
2.92749e-10
2.93752e-10
2.9476e-10
2.95772e-10
2.9679e-10
2.97812e-10
2.98839e-10
2.99871e-10
3.00908e-10
3.01949e-10
3.02995e-10
3.04044e-10
3.05097e-10
3.06152e-10
3.07211e-10
3.08272e-10
3.09335e-10
3.104e-10
3.11466e-10
3.12534e-10
3.13602e-10
3.14671e-10
3.1574e-10
3.1681e-10
3.17881e-10
3.18951e-10
3.20022e-10
3.21094e-10
3.22166e-10
3.23238e-10
3.24311e-10
3.25385e-10
3.2646e-10
3.27536e-10
3.28613e-10
3.29691e-10
3.30771e-10
3.31852e-10
3.32935e-10
3.3402e-10
3.35107e-10
3.36196e-10
3.37287e-10
3.3838e-10
3.39475e-10
3.40572e-10
3.41672e-10
3.42775e-10
3.43879e-10
3.44986e-10
3.46096e-10
3.47208e-10
3.48322e-10
3.49439e-10
3.50558e-10
3.5168e-10
3.52805e-10
3.53931e-10
3.55061e-10
3.56192e-10
3.57327e-10
3.58463e-10
3.59603e-10
3.60744e-10
3.61888e-10
3.63035e-10
3.64184e-10
3.65336e-10
3.6649e-10
3.67647e-10
3.68806e-10
3.69968e-10
3.71132e-10
3.72299e-10
3.73468e-10
3.7464e-10
3.75815e-10
3.76992e-10
3.78172e-10
3.79355e-10
3.8054e-10
3.81728e-10
3.82919e-10
3.84112e-10
3.85308e-10
3.86507e-10
3.87709e-10
3.88913e-10
3.90121e-10
3.91331e-10
3.92544e-10
3.9376e-10
3.94979e-10
3.96201e-10
3.97426e-10
3.98654e-10
3.99885e-10
4.01119e-10
4.02356e-10
4.03597e-10
4.0484e-10
4.06087e-10
4.07336e-10
4.0859e-10
4.09846e-10
4.11106e-10
4.12369e-10
4.13635e-10
4.14905e-10
4.16178e-10
4.17455e-10
4.18736e-10
4.2002e-10
4.21307e-10
4.22599e-10
4.23894e-10
4.25192e-10
4.26495e-10
4.27801e-10
4.29111e-10
4.30426e-10
4.31744e-10
4.33066e-10
4.34393e-10
4.35723e-10
4.37057e-10
4.38396e-10
4.39739e-10
4.41086e-10
4.42438e-10
4.43793e-10
4.45154e-10
4.46518e-10
4.47887e-10
4.49261e-10
4.50638e-10
4.52021e-10
4.53407e-10
4.54799e-10
4.56194e-10
4.57594e-10
4.58999e-10
4.60408e-10
4.61821e-10
4.63238e-10
4.6466e-10
4.66086e-10
4.67517e-10
4.68951e-10
4.7039e-10
4.71834e-10
4.73281e-10
4.74733e-10
4.7619e-10
4.7765e-10
4.79116e-10
4.80585e-10
4.8206e-10
4.8354e-10
4.85025e-10
4.86515e-10
4.8801e-10
4.89511e-10
4.91018e-10
4.92531e-10
4.94051e-10
4.95578e-10
4.97111e-10
4.98652e-10
5.00201e-10
5.01758e-10
5.03323e-10
5.04897e-10
5.06481e-10
5.08074e-10
5.09676e-10
5.11288e-10
5.1291e-10
5.14542e-10
5.16185e-10
5.17838e-10
5.19501e-10
5.21174e-10
5.22857e-10
5.24549e-10
5.2625e-10
5.2796e-10
5.29677e-10
5.31401e-10
5.33131e-10
5.34864e-10
5.366e-10
5.38337e-10
5.40074e-10
5.41807e-10
5.43534e-10
5.45252e-10
5.46957e-10
5.48645e-10
5.50312e-10
5.51955e-10
5.53568e-10
5.55144e-10
5.56678e-10
5.58165e-10
5.59598e-10
5.60972e-10
5.62281e-10
5.63519e-10
5.64683e-10
5.65767e-10
5.6677e-10
5.67689e-10
5.68526e-10
5.69279e-10
5.69951e-10
5.70544e-10
5.71064e-10
5.71515e-10
5.71905e-10
5.72241e-10
5.72533e-10
5.72792e-10
5.73037e-10
5.73294e-10
5.73607e-10
5.7405e-10
5.74749e-10
5.75923e-10
5.77963e-10
5.81542e-10
5.87806e-10
5.98604e-10
6.16673e-10
6.45395e-10
6.8746e-10
7.42099e-10
8.02712e-10
8.58812e-10
9.0226e-10
9.31249e-10
9.48626e-10
9.58356e-10
9.63595e-10
9.66357e-10
9.678e-10
9.6855e-10
9.68942e-10
9.69149e-10
9.69261e-10
9.69324e-10
9.69361e-10
9.69386e-10
9.69403e-10
9.69418e-10
9.6943e-10
9.69441e-10
9.69451e-10
9.69462e-10
9.69471e-10
9.69481e-10
9.6949e-10
9.695e-10
9.69509e-10
9.69517e-10
9.69526e-10
9.69534e-10
9.69542e-10
9.6955e-10
9.69557e-10
9.69564e-10
9.69571e-10
9.69578e-10
9.69584e-10
9.69591e-10
9.69596e-10
9.69602e-10
9.69607e-10
9.69612e-10
9.69617e-10
9.69622e-10
9.69626e-10
9.6963e-10
9.69634e-10
9.69637e-10
9.6964e-10
9.69643e-10
9.69646e-10
9.69648e-10
9.6965e-10
9.69651e-10
9.69652e-10
9.69653e-10
9.69654e-10
9.69655e-10
9.69655e-10
9.69655e-10
9.69655e-10
9.69654e-10
9.69653e-10
9.69651e-10
9.6965e-10
9.69648e-10
9.69645e-10
9.69643e-10
9.6964e-10
9.69637e-10
9.69634e-10
9.6963e-10
9.69626e-10
9.69622e-10
9.69618e-10
9.69613e-10
9.69608e-10
9.69603e-10
9.69597e-10
9.69592e-10
9.69586e-10
9.69579e-10
9.69573e-10
9.69566e-10
9.69558e-10
9.69551e-10
9.69543e-10
9.69534e-10
9.69525e-10
9.69516e-10
9.69506e-10
9.69496e-10
9.69485e-10
9.69473e-10
9.6946e-10
9.69447e-10
9.69433e-10
9.69418e-10
9.69402e-10
9.69385e-10
9.69366e-10
9.69346e-10
9.69325e-10
9.69303e-10
9.69279e-10
9.69254e-10
9.69227e-10
9.69198e-10
9.69167e-10
9.69135e-10
9.69101e-10
9.69065e-10
9.69027e-10
9.68988e-10
9.68946e-10
9.68903e-10
9.68857e-10
9.6881e-10
9.68762e-10
9.68712e-10
9.68661e-10
9.68608e-10
9.68554e-10
9.685e-10
9.68445e-10
9.68389e-10
9.68333e-10
9.68277e-10
9.68221e-10
9.68166e-10
9.68112e-10
9.68059e-10
9.68007e-10
9.67958e-10
9.6791e-10
9.67865e-10
9.67822e-10
9.67783e-10
9.67746e-10
9.67714e-10
9.67685e-10
9.67661e-10
9.6764e-10
9.67625e-10
9.67614e-10
9.67607e-10
9.67605e-10
9.67604e-10
9.67605e-10
9.6761e-10
9.67628e-10
9.67649e-10
9.67674e-10
9.67703e-10
9.67735e-10
9.67772e-10
9.67811e-10
9.67853e-10
9.67898e-10
9.67944e-10
9.67993e-10
9.68043e-10
9.68094e-10
9.68145e-10
9.68197e-10
9.68249e-10
9.683e-10
9.68351e-10
9.68401e-10
9.6845e-10
9.68498e-10
9.68544e-10
9.68588e-10
9.68631e-10
9.68672e-10
9.6871e-10
9.68747e-10
9.68782e-10
9.68815e-10
9.68845e-10
9.68874e-10
9.68901e-10
9.68926e-10
9.68949e-10
9.68971e-10
9.68991e-10
9.6901e-10
9.69028e-10
9.69044e-10
9.69059e-10
9.69073e-10
9.69087e-10
9.691e-10
9.69112e-10
9.69123e-10
9.69134e-10
9.69145e-10
9.69155e-10
9.69165e-10
9.69175e-10
9.69184e-10
9.69194e-10
9.69204e-10
9.69213e-10
9.69223e-10
9.69233e-10
9.69243e-10
9.69252e-10
9.69262e-10
9.69272e-10
9.69282e-10
9.69293e-10
9.69303e-10
9.69313e-10
9.69323e-10
9.69334e-10
9.69344e-10
9.69354e-10
9.69364e-10
9.69375e-10
9.69385e-10
9.69395e-10
9.69405e-10
9.69415e-10
9.69424e-10
9.69434e-10
9.69444e-10
9.69453e-10
9.69463e-10
9.69472e-10
9.69481e-10
9.6949e-10
9.69499e-10
9.69508e-10
9.69517e-10
9.69525e-10
9.69534e-10
9.69542e-10
9.6955e-10
9.69558e-10
9.69566e-10
9.69573e-10
9.69581e-10
9.69588e-10
9.69595e-10
9.69601e-10
9.69608e-10
9.69614e-10
9.6962e-10
9.69625e-10
9.69631e-10
9.69635e-10
9.6964e-10
9.69645e-10
9.69649e-10
9.69652e-10
9.69656e-10
9.69659e-10
9.69661e-10
9.69664e-10
9.69666e-10
9.69668e-10
9.69669e-10
9.6967e-10
9.69671e-10
9.69671e-10
9.69671e-10
9.69671e-10
9.69671e-10
9.6967e-10
9.69669e-10
9.69667e-10
9.69665e-10
9.69663e-10
9.69661e-10
9.69658e-10
9.69655e-10
9.69651e-10
9.69647e-10
9.69643e-10
9.69639e-10
9.69634e-10
9.69629e-10
9.69624e-10
9.69618e-10
9.69612e-10
9.69606e-10
9.69599e-10
9.69592e-10
9.69585e-10
9.69577e-10
9.69569e-10
9.6956e-10
9.69551e-10
9.69541e-10
9.69531e-10
9.6952e-10
9.69509e-10
9.69497e-10
9.69484e-10
9.6947e-10
9.69456e-10
9.6944e-10
9.69424e-10
9.69407e-10
9.69388e-10
9.69369e-10
9.69348e-10
9.69326e-10
9.69303e-10
9.69279e-10
9.69253e-10
9.69226e-10
9.69197e-10
9.69167e-10
9.69135e-10
9.69102e-10
9.69068e-10
9.69032e-10
9.68994e-10
9.68955e-10
9.68915e-10
9.68873e-10
9.6883e-10
9.68786e-10
9.6874e-10
9.68694e-10
9.68647e-10
9.68599e-10
9.6855e-10
9.68501e-10
9.68452e-10
9.68403e-10
9.68353e-10
9.68304e-10
9.68256e-10
9.68208e-10
9.68161e-10
9.68115e-10
9.68071e-10
9.68029e-10
9.67988e-10
9.67949e-10
9.67913e-10
9.6788e-10
9.67849e-10
9.67821e-10
9.67796e-10
9.67774e-10
9.67756e-10
9.67741e-10
9.67731e-10
9.67724e-10
9.67721e-10
9.6772e-10
9.67721e-10
9.67723e-10
9.6773e-10
9.67741e-10
9.67762e-10
9.67785e-10
9.67811e-10
9.67839e-10
9.67871e-10
9.67904e-10
9.6794e-10
9.67978e-10
9.68018e-10
9.68059e-10
9.68102e-10
9.68145e-10
9.68189e-10
9.68233e-10
9.68279e-10
9.68323e-10
9.68368e-10
9.68411e-10
9.68454e-10
9.68496e-10
9.68538e-10
9.68577e-10
9.68617e-10
)
;

boundaryField
{
    inlet
    {
        type            calculated;
        value           uniform 0;
    }
    outlet
    {
        type            calculated;
        value           uniform 9.68653e-10;
    }
    emptyWalls
    {
        type            empty;
        value           nonuniform List<scalar> 0();
    }
}


// ************************************************************************* //
