/*--------------------------------*- C++ -*----------------------------------*\
  =========                 |
  \\      /  F ield         | OpenFOAM: The Open Source CFD Toolbox
   \\    /   O peration     | Website:  https://openfoam.org
    \\  /    A nd           | Version:  9
     \\/     M anipulation  |
\*---------------------------------------------------------------------------*/
FoamFile
{
    format      ascii;
    class       volScalarField;
    location    "15350";
    object      Sb;
}
// * * * * * * * * * * * * * * * * * * * * * * * * * * * * * * * * * * * * * //

dimensions      [0 0 0 0 0 0 0];

internalField   nonuniform List<scalar> 
1000
(
0.350318
0.351165
0.352029
0.353141
0.353973
0.355074
0.355963
0.357017
0.357969
0.358969
0.35991
0.36083
0.361673
0.362449
0.363134
0.363741
0.364273
0.364826
0.365783
0.36874
0.380563
0.459285
0.620397
0.655542
0.665373
0.669905
0.672676
0.67464
0.676149
0.677363
0.67836
0.679195
0.679895
0.680488
0.680986
0.681405
0.681758
0.682051
0.682292
0.68249
0.682645
0.682765
0.682848
0.682901
0.682921
0.68291
0.682866
0.682789
0.682677
0.68253
0.682347
0.682122
0.681854
0.681532
0.681145
0.680674
0.680091
0.679364
0.678462
0.677374
0.676127
0.67478
0.673375
0.671933
0.670471
0.668998
0.667521
0.666046
0.664575
0.66311
0.661655
0.66021
0.658775
0.657351
0.655939
0.654537
0.653145
0.651762
0.650388
0.649023
0.647668
0.646323
0.644989
0.643666
0.642354
0.641054
0.639767
0.638491
0.637229
0.63598
0.634744
0.633523
0.632316
0.631123
0.629944
0.628778
0.627626
0.626484
0.625353
0.624232
0.623119
0.622013
0.620915
0.619822
0.618736
0.617655
0.61658
0.615511
0.614447
0.61339
0.61234
0.611295
0.610258
0.609228
0.608205
0.607189
0.60618
0.605178
0.604184
0.603196
0.602216
0.601242
0.600275
0.599315
0.598361
0.597413
0.596472
0.595536
0.594607
0.593683
0.592765
0.591853
0.590947
0.590046
0.58915
0.58826
0.587374
0.586494
0.58562
0.58475
0.583885
0.583025
0.58217
0.581319
0.580473
0.579632
0.578796
0.577964
0.577136
0.576313
0.575494
0.57468
0.57387
0.573064
0.572262
0.571464
0.57067
0.56988
0.569095
0.568313
0.567535
0.56676
0.56599
0.565223
0.56446
0.5637
0.562945
0.562192
0.561443
0.560698
0.559956
0.559218
0.558482
0.557751
0.557022
0.556297
0.555575
0.554856
0.55414
0.553428
0.552718
0.552012
0.551308
0.550608
0.549911
0.549216
0.548525
0.547836
0.547151
0.546468
0.545788
0.54511
0.544436
0.543764
0.543094
0.542428
0.541764
0.541102
0.540443
0.539787
0.539133
0.538481
0.537831
0.537184
0.536538
0.535894
0.535252
0.534612
0.533974
0.533337
0.532701
0.532068
0.531436
0.530806
0.530178
0.529552
0.528928
0.528307
0.527687
0.527071
0.526457
0.525845
0.525237
0.524632
0.524031
0.523432
0.522837
0.522245
0.521657
0.521072
0.52049
0.519911
0.519335
0.518761
0.51819
0.51762
0.517053
0.516487
0.515923
0.51536
0.514799
0.514238
0.513679
0.51312
0.512563
0.512006
0.51145
0.510896
0.510342
0.50979
0.509238
0.508688
0.50814
0.507592
0.507046
0.506501
0.505958
0.505417
0.504876
0.504338
0.5038
0.503265
0.502731
0.502198
0.501667
0.501137
0.500609
0.500082
0.499557
0.499033
0.49851
0.497989
0.497469
0.496951
0.496433
0.495917
0.495403
0.494889
0.494377
0.493866
0.493356
0.492848
0.492341
0.491834
0.491329
0.490825
0.490323
0.489821
0.48932
0.488821
0.488323
0.487825
0.487329
0.486834
0.48634
0.485847
0.485355
0.484864
0.484374
0.483885
0.483396
0.482909
0.482423
0.481938
0.481454
0.480971
0.480488
0.480007
0.479526
0.479047
0.478568
0.47809
0.477614
0.477138
0.476662
0.476188
0.475715
0.475242
0.47477
0.474299
0.473829
0.47336
0.472891
0.472424
0.471957
0.471491
0.471025
0.470561
0.470097
0.469634
0.469172
0.46871
0.46825
0.46779
0.46733
0.466872
0.466414
0.465957
0.465501
0.465045
0.46459
0.464135
0.463682
0.463229
0.462776
0.462325
0.461873
0.461423
0.460973
0.460524
0.460075
0.459626
0.459179
0.458731
0.458284
0.457838
0.457392
0.456946
0.4565
0.456055
0.455611
0.455166
0.454722
0.454278
0.453835
0.453391
0.452948
0.452506
0.452064
0.451622
0.451181
0.45074
0.4503
0.449861
0.449422
0.448984
0.448546
0.44811
0.447674
0.447239
0.446805
0.446372
0.44594
0.445509
0.445079
0.44465
0.444222
0.443795
0.443369
0.442943
0.442519
0.442095
0.441672
0.441249
0.440827
0.440405
0.439984
0.439563
0.439142
0.438722
0.438301
0.437881
0.43746
0.43704
0.43662
0.4362
0.435779
0.435359
0.434939
0.434519
0.434099
0.433678
0.433258
0.432838
0.432418
0.431999
0.431579
0.431159
0.43074
0.43032
0.429901
0.429482
0.429063
0.428645
0.428226
0.427808
0.42739
0.426972
0.426554
0.426136
0.425719
0.425301
0.424884
0.424467
0.42405
0.423633
0.423216
0.4228
0.422383
0.421966
0.42155
0.421133
0.420717
0.4203
0.419884
0.419468
0.419051
0.418635
0.418219
0.417802
0.417386
0.416969
0.416553
0.416136
0.41572
0.415303
0.414886
0.414469
0.414052
0.413635
0.413218
0.4128
0.412383
0.411965
0.411548
0.41113
0.410712
0.410293
0.409875
0.409456
0.409038
0.408618
0.408199
0.40778
0.40736
0.40694
0.40652
0.406099
0.405679
0.405258
0.404836
0.404415
0.403993
0.40357
0.403148
0.402725
0.402302
0.401878
0.401454
0.40103
0.400605
0.40018
0.399754
0.399328
0.398902
0.398475
0.398048
0.39762
0.397192
0.396763
0.396334
0.395904
0.395474
0.395043
0.394612
0.39418
0.393748
0.393315
0.392882
0.392447
0.392013
0.391577
0.391141
0.390704
0.390267
0.389829
0.38939
0.38895
0.38851
0.388069
0.387627
0.387184
0.38674
0.386296
0.38585
0.385404
0.384957
0.384509
0.384059
0.383609
0.383158
0.382706
0.382253
0.381798
0.381343
0.380886
0.380429
0.37997
0.37951
0.379049
0.378586
0.378123
0.377659
0.377193
0.376726
0.376258
0.375788
0.375318
0.374846
0.374374
0.3739
0.373425
0.372948
0.372471
0.371993
0.371513
0.371033
0.370551
0.370068
0.369585
0.3691
0.368615
0.368129
0.367641
0.367154
0.366665
0.366176
0.365687
0.365198
0.364708
0.364219
0.36373
0.363242
0.362756
0.362271
0.361789
0.361309
0.360834
0.360364
0.359899
0.359441
0.358991
0.358551
0.358122
0.357706
0.357304
0.356918
0.356549
0.356199
0.355869
0.355561
0.355275
0.355012
0.354772
0.354555
0.35436
0.354188
0.354036
0.353905
0.353791
0.353693
0.353609
0.353535
0.353469
0.353403
0.353329
0.353232
0.353087
0.352848
0.352437
0.351719
0.350459
0.348266
0.344536
0.338441
0.329114
0.316197
0.300602
0.284691
0.271126
0.26132
0.255095
0.251481
0.249495
0.248438
0.247885
0.247598
0.24745
0.247374
0.247335
0.247315
0.247304
0.247299
0.247296
0.247295
0.247294
0.247294
0.247294
0.247294
0.247294
0.247294
0.247294
0.247295
0.247295
0.247295
0.247295
0.247295
0.247295
0.247295
0.247295
0.247295
0.247295
0.247295
0.247295
0.247295
0.247295
0.247295
0.247295
0.247295
0.247295
0.247295
0.247295
0.247295
0.247295
0.247295
0.247295
0.247295
0.247295
0.247294
0.247294
0.247294
0.247294
0.247294
0.247293
0.247293
0.247293
0.247293
0.247292
0.247292
0.247292
0.247292
0.247291
0.247291
0.247291
0.24729
0.24729
0.24729
0.247289
0.247289
0.247289
0.247289
0.247288
0.247288
0.247288
0.247287
0.247287
0.247287
0.247287
0.247286
0.247286
0.247286
0.247286
0.247285
0.247285
0.247285
0.247285
0.247284
0.247284
0.247284
0.247284
0.247283
0.247283
0.247283
0.247283
0.247282
0.247282
0.247282
0.247282
0.247281
0.247281
0.247281
0.24728
0.24728
0.24728
0.24728
0.247279
0.247279
0.247279
0.247278
0.247278
0.247277
0.247277
0.247277
0.247276
0.247276
0.247275
0.247275
0.247274
0.247274
0.247273
0.247273
0.247272
0.247272
0.247271
0.247271
0.24727
0.24727
0.247269
0.247269
0.247268
0.247268
0.247267
0.247267
0.247266
0.247266
0.247266
0.247265
0.247265
0.247265
0.247265
0.247265
0.247265
0.247265
0.247265
0.247265
0.247265
0.247265
0.247265
0.247265
0.247266
0.247266
0.247266
0.247267
0.247267
0.247268
0.247268
0.247268
0.247269
0.24727
0.24727
0.247271
0.247271
0.247272
0.247272
0.247273
0.247273
0.247274
0.247274
0.247275
0.247275
0.247276
0.247276
0.247277
0.247277
0.247277
0.247278
0.247278
0.247278
0.247279
0.247279
0.247279
0.247279
0.24728
0.24728
0.24728
0.24728
0.24728
0.24728
0.24728
0.247281
0.247281
0.247281
0.247281
0.247281
0.247281
0.247281
0.247281
0.247281
0.247281
0.247281
0.247281
0.247282
0.247282
0.247282
0.247282
0.247282
0.247282
0.247282
0.247282
0.247282
0.247282
0.247282
0.247282
0.247282
0.247282
0.247282
0.247283
0.247283
0.247283
0.247283
0.247283
0.247284
0.247284
0.247284
0.247285
0.247285
0.247285
0.247285
0.247286
0.247286
0.247286
0.247286
0.247286
0.247287
0.247287
0.247287
0.247287
0.247287
0.247287
0.247287
0.247288
0.247288
0.247288
0.247288
0.247288
0.247288
0.247288
0.247288
0.247288
0.247288
0.247288
0.247288
0.247288
0.247288
0.247288
0.247288
0.247288
0.247288
0.247288
0.247288
0.247288
0.247288
0.247288
0.247288
0.247288
0.247288
0.247288
0.247288
0.247287
0.247287
0.247287
0.247287
0.247287
0.247287
0.247287
0.247287
0.247287
0.247287
0.247287
0.247287
0.247287
0.247287
0.247287
0.247286
0.247286
0.247286
0.247286
0.247286
0.247286
0.247286
0.247286
0.247286
0.247285
0.247285
0.247285
0.247285
0.247285
0.247285
0.247285
0.247284
0.247284
0.247284
0.247284
0.247284
0.247283
0.247283
0.247283
0.247283
0.247282
0.247282
0.247282
0.247281
0.247281
0.247281
0.24728
0.24728
0.24728
0.247279
0.247279
0.247278
0.247278
0.247278
0.247277
0.247277
0.247276
0.247276
0.247275
0.247275
0.247274
0.247274
0.247273
0.247273
0.247272
0.247272
0.247271
0.247271
0.24727
0.24727
0.247269
0.247269
0.247269
0.247268
0.247268
0.247268
0.247267
0.247267
0.247267
0.247267
0.247267
0.247266
0.247266
0.247266
0.247266
0.247266
0.247267
0.247267
0.247267
0.247267
0.247267
0.247267
0.247268
0.247268
0.247269
0.247269
0.247269
0.24727
0.24727
0.247271
0.247271
0.247272
0.247272
0.247272
0.247273
0.247273
0.247274
0.247274
0.247275
0.247275
0.247275
0.247276
)
;

boundaryField
{
    inlet
    {
        type            fixedValue;
        value           uniform 0.35;
    }
    outlet
    {
        type            zeroGradient;
    }
    emptyWalls
    {
        type            empty;
    }
}


// ************************************************************************* //
