/*--------------------------------*- C++ -*----------------------------------*\
  =========                 |
  \\      /  F ield         | OpenFOAM: The Open Source CFD Toolbox
   \\    /   O peration     | Website:  https://openfoam.org
    \\  /    A nd           | Version:  9
     \\/     M anipulation  |
\*---------------------------------------------------------------------------*/
FoamFile
{
    format      ascii;
    class       volScalarField;
    location    "135999.999999";
    object      krb;
}
// * * * * * * * * * * * * * * * * * * * * * * * * * * * * * * * * * * * * * //

dimensions      [0 0 0 0 0 0 0];

internalField   nonuniform List<scalar> 
100
(
0.000433839
0.000433839
0.000433839
0.000433839
0.000433839
0.000433839
0.000433839
0.000433839
0.000433839
0.000433839
0.000433839
0.000433839
0.000433839
0.000433839
0.000433839
0.000433839
0.000433839
0.000433839
0.000433839
0.000433839
0.000433839
0.000433839
0.000433839
0.000433839
0.000433839
0.000433839
0.000433839
0.000433839
0.000433839
0.000433839
0.000433839
0.000433839
0.000433839
0.000433839
0.000433839
0.000433839
0.000433839
0.000433839
0.000433839
0.000433839
0.000433839
0.000433839
0.000433839
0.000433839
0.000433839
0.000433839
0.000433839
0.000433839
0.000433839
0.000433839
0.000433839
0.000433839
0.000433839
0.000433839
0.000433839
0.000433839
0.000433839
0.000433839
0.000433839
0.000433839
0.000433839
0.000433839
0.000433839
0.000433839
0.000433839
0.000433839
0.000433839
0.000433839
0.000433839
0.000433839
0.000433839
0.000433839
0.000433839
0.000433839
0.000433839
0.000433839
0.000433839
0.000433839
0.000433839
0.000433839
0.000433839
0.000433839
0.000433839
0.000433839
0.000433839
0.000433839
0.000433839
0.000433839
0.000433839
0.000433839
0.000433839
0.000433839
0.000433839
0.000433839
0.000433839
0.000433839
0.000433839
0.000433839
0.000433839
0.000438141
)
;

boundaryField
{
    inlet
    {
        type            calculated;
        value           uniform 0.000433839;
    }
    outlet
    {
        type            calculated;
        value           uniform 0.000438141;
    }
    emptyWalls
    {
        type            empty;
    }
}


// ************************************************************************* //
