/*--------------------------------*- C++ -*----------------------------------*\
  =========                 |
  \\      /  F ield         | OpenFOAM: The Open Source CFD Toolbox
   \\    /   O peration     | Website:  https://openfoam.org
    \\  /    A nd           | Version:  9
     \\/     M anipulation  |
\*---------------------------------------------------------------------------*/
FoamFile
{
    format      ascii;
    class       volScalarField;
    location    "4250";
    object      p;
}
// * * * * * * * * * * * * * * * * * * * * * * * * * * * * * * * * * * * * * //

dimensions      [0 0 0 0 0 0 0];

internalField   nonuniform List<scalar> 
1000
(
268550
268135
267732
267341
266978
266689
266556
266464
266380
266297
266215
266133
266051
265970
265888
265806
265723
265638
265553
265466
265377
265287
265196
265103
265009
264914
264817
264719
264619
264519
264417
264313
264209
264103
263996
263887
263778
263667
263555
263442
263327
263212
263095
262977
262858
262738
262617
262494
262371
262246
262121
261994
261866
261737
261607
261476
261343
261210
261076
260941
260804
260667
260528
260389
260248
260107
259964
259821
259676
259530
259384
259236
259088
258938
258788
258636
258484
258330
258176
258020
257864
257707
257549
257389
257229
257068
256906
256743
256579
256414
256248
256082
255914
255745
255576
255405
255234
255062
254888
254714
254539
254363
254186
254008
253830
253650
253470
253288
253106
252923
252739
252554
252368
252181
251994
251805
251616
251425
251234
251042
250849
250654
250459
250263
250066
249868
249669
249469
249268
249066
248863
248659
248454
248249
248042
247834
247625
247415
247205
246993
246780
246567
246352
246137
245920
245703
245484
245265
245044
244823
244600
244377
244152
243927
243700
243473
243244
243015
242785
242553
242321
242088
241854
241619
241384
241147
240908
240667
240422
240173
239917
239654
239385
239112
238837
238560
238283
238006
237728
237450
237173
236895
236617
236339
236062
235784
235506
235228
234951
234673
234395
234117
233839
233562
233284
233006
232728
232450
232172
231895
231617
231339
231061
230783
230506
230228
229950
229672
229394
229116
228838
228561
228283
228005
227727
227449
227171
226893
226615
226338
226060
225782
225504
225226
224948
224670
224392
224114
223836
223559
223281
223003
222725
222447
222169
221891
221613
221335
221057
220780
220502
220224
219946
219668
219390
219112
218834
218557
218279
218001
217723
217445
217167
216889
216611
216334
216056
215778
215500
215222
214944
214666
214388
214111
213833
213555
213277
212999
212721
212444
212166
211888
211610
211332
211054
210777
210499
210221
209943
209665
209387
209110
208832
208554
208276
207999
207721
207443
207165
206888
206610
206332
206055
205777
205499
205222
204944
204667
204389
204111
203834
203556
203279
203002
202724
202447
202169
201892
201615
201338
201060
200783
200506
200229
199952
199675
199398
199121
198844
198567
198290
198013
197736
197459
197182
196905
196628
196350
196073
195796
195519
195242
194965
194687
194410
194133
193855
193578
193301
193023
192745
192468
192190
191913
191635
191357
191079
190802
190524
190246
189968
189691
189413
189135
188857
188579
188302
188024
187746
187468
187191
186913
186635
186357
186080
185802
185524
185247
184969
184691
184413
184136
183858
183580
183303
183025
182747
182469
182192
181914
181636
181359
181081
180803
180525
180248
179970
179692
179415
179137
178859
178581
178304
178026
177748
177470
177193
176915
176637
176359
176082
175804
175526
175248
174971
174693
174415
174137
173860
173582
173304
173026
172748
172471
172193
171915
171637
171360
171082
170804
170526
170249
169971
169693
169415
169137
168860
168582
168304
168026
167748
167471
167193
166915
166637
166359
166082
165804
165526
165248
164970
164692
164415
164137
163859
163581
163303
163025
162747
162470
162192
161914
161636
161358
161080
160802
160524
160247
159969
159691
159413
159135
158857
158579
158301
158024
157746
157468
157190
156912
156634
156356
156079
155801
155523
155245
154967
154689
154412
154134
153856
153578
153300
153022
152745
152467
152189
151911
151633
151356
151078
150800
150522
150245
149967
149689
149411
149134
148856
148578
148300
148023
147745
147467
147190
146912
146634
146356
146079
145801
145524
145246
144968
144691
144413
144136
143858
143581
143303
143026
142749
142471
142194
141917
141639
141362
141085
140808
140531
140253
139976
139699
139422
139145
138868
138591
138314
138037
137760
137483
137206
136929
136652
136375
136098
135821
135544
135266
134989
134712
134435
134157
133880
133603
133325
133048
132770
132493
132215
131937
131660
131382
131104
130827
130549
130271
129993
129716
129438
129160
128882
128604
128327
128049
127771
127493
127216
126938
126660
126382
126104
125827
125549
125271
124993
124716
124438
124160
123882
123605
123327
123049
122771
122494
122216
121938
121660
121383
121105
120827
120549
120272
119994
119716
119438
119160
118883
118605
118327
118049
117771
117494
117216
116938
116660
116382
116105
115827
115549
115271
114993
114716
114438
114160
113882
113604
113326
113048
112771
112493
112215
111937
111659
111381
111103
110826
110548
110270
109992
109714
109436
109159
108881
108603
108325
108047
107769
107491
107214
106936
106658
106380
106102
105824
105547
105269
104991
104713
104435
104157
103880
103602
103324
103046
102768
102491
102213
101935
101657
101379
101102
100824
100546
100268
99990.3
99712.5
99434.7
99156.9
98879.1
98601.3
98323.4
98045.6
97767.8
97490
97212.2
96934.3
96656.5
96378.7
96100.9
95823.1
95545.2
95267.4
94989.6
94711.7
94433.9
94156.1
93878.3
93600.4
93322.5
93044.1
92763.4
92462.5
92152.5
91842.7
91533
91223.2
90913.5
90603.7
90293.9
89984.2
89674.4
89364.7
89054.9
88745.2
88435.4
88125.6
87815.9
87506.1
87196.4
86886.6
86576.9
86267.1
85957.4
85647.6
85337.8
85028.1
84718.3
84408.6
84098.8
83789.1
83479.3
83169.5
82859.8
82550
82240.3
81930.5
81620.8
81311
81001.3
80691.5
80381.7
80072
79762.2
79452.5
79142.7
78833
78523.2
78213.4
77903.7
77593.9
77284.2
76974.4
76664.7
76354.9
76045.2
75735.4
75425.6
75115.9
74806.1
74496.4
74186.6
73876.9
73567.1
73257.3
72947.6
72637.8
72328.1
72018.3
71708.6
71398.8
71089.1
70779.3
70469.5
70159.8
69850
69540.3
69230.5
68920.8
68611
68301.2
67991.5
67681.7
67372
67062.2
66752.5
66442.7
66133
65823.2
65513.4
65203.7
64893.9
64584.2
64274.4
63964.7
63654.9
63345.1
63035.4
62725.6
62415.9
62106.1
61796.4
61486.6
61176.9
60867.1
60557.3
60247.6
59937.8
59628.1
59318.3
59008.6
58698.8
58389
58079.3
57769.5
57459.8
57150
56840.3
56530.5
56220.8
55911
55601.2
55291.5
54981.7
54672
54362.2
54052.5
53742.7
53432.9
53123.2
52813.4
52503.7
52193.9
51884.2
51574.4
51264.7
50954.9
50645.1
50335.4
50025.6
49715.9
49406.1
49096.4
48786.6
48476.9
48167.1
47857.3
47547.6
47237.8
46928.1
46618.3
46308.6
45998.8
45689
45379.3
45069.5
44759.8
44450
44140.3
43830.5
43520.8
43211
42901.2
42591.5
42281.7
41972
41662.2
41352.5
41042.7
40732.9
40423.2
40113.4
39803.7
39493.9
39184.2
38874.4
38564.7
38254.9
37945.1
37635.4
37325.6
37015.9
36706.1
36396.4
36086.6
35776.8
35467.1
35157.3
34847.6
34537.8
34228.1
33918.3
33608.6
33298.8
32989
32679.3
32369.5
32059.8
31750
31440.3
31130.5
30820.7
30511
30201.2
29891.5
29581.7
29272
28962.2
28652.5
28342.7
28032.9
27723.2
27413.4
27103.7
26793.9
26484.2
26174.4
25864.6
25554.9
25245.1
24935.4
24625.6
24315.9
24006.1
23696.4
23386.6
23076.8
22767.1
22457.3
22147.6
21837.8
21528.1
21218.3
20908.5
20598.8
20289
19979.3
19669.5
19359.8
19050
18740.3
18430.5
18120.7
17811
17501.2
17191.5
16881.7
16572
16262.2
15952.4
15642.7
15332.9
15023.2
14713.4
14403.7
14093.9
13784.2
13474.4
13164.6
12854.9
12545.1
12235.4
11925.6
11615.9
11306.1
10996.3
10686.6
10376.8
10067.1
9757.32
9447.57
9137.81
8828.05
8518.3
8208.54
7898.78
7589.03
7279.27
6969.52
6659.76
6350
6040.25
5730.49
5420.73
5110.98
4801.22
4491.47
4181.71
3871.95
3562.2
3252.44
2942.68
2632.93
2323.17
2013.42
1703.66
1393.9
1084.15
774.391
464.634
154.878
)
;

boundaryField
{
    inlet
    {
        type            darcyGradPressure;
        gradient        uniform 116344;
        Mf              Mf;
        phi             phi;
        value           uniform 268764;
    }
    outlet
    {
        type            fixedValue;
        value           uniform 0;
    }
    emptyWalls
    {
        type            empty;
    }
}


// ************************************************************************* //
