/*--------------------------------*- C++ -*----------------------------------*\
  =========                 |
  \\      /  F ield         | OpenFOAM: The Open Source CFD Toolbox
   \\    /   O peration     | Website:  https://openfoam.org
    \\  /    A nd           | Version:  9
     \\/     M anipulation  |
\*---------------------------------------------------------------------------*/
FoamFile
{
    format      ascii;
    class       surfaceScalarField;
    location    "4250";
    object      phic;
}
// * * * * * * * * * * * * * * * * * * * * * * * * * * * * * * * * * * * * * //

dimensions      [0 2 0 0 0 0 0];

internalField   nonuniform List<scalar> 
999
(
5.04479e-14
1.77138e-13
4.1983e-13
1.19141e-12
3.76577e-12
1.6781e-11
2.08002e-11
2.21688e-11
2.2957e-11
2.35422e-11
2.40246e-11
2.44592e-11
2.4921e-11
2.5584e-11
2.66396e-11
2.80864e-11
2.98742e-11
3.18807e-11
3.40232e-11
3.62569e-11
3.85564e-11
4.09067e-11
4.32983e-11
4.57249e-11
4.81821e-11
5.06666e-11
5.31763e-11
5.5709e-11
5.8263e-11
6.08369e-11
6.34296e-11
6.60404e-11
6.86681e-11
7.1312e-11
7.39714e-11
7.6646e-11
7.93352e-11
8.20386e-11
8.47557e-11
8.74863e-11
9.023e-11
9.29868e-11
9.57564e-11
9.85383e-11
1.01333e-10
1.04139e-10
1.06958e-10
1.09789e-10
1.12632e-10
1.15487e-10
1.18354e-10
1.21232e-10
1.24123e-10
1.27025e-10
1.29939e-10
1.32865e-10
1.35802e-10
1.38752e-10
1.41713e-10
1.44686e-10
1.47671e-10
1.50667e-10
1.53675e-10
1.56696e-10
1.59728e-10
1.62771e-10
1.65827e-10
1.68894e-10
1.71974e-10
1.75065e-10
1.78169e-10
1.81284e-10
1.84412e-10
1.87552e-10
1.90705e-10
1.93871e-10
1.9705e-10
2.00241e-10
2.03446e-10
2.06664e-10
2.09896e-10
2.13141e-10
2.164e-10
2.19673e-10
2.2296e-10
2.26261e-10
2.29578e-10
2.3291e-10
2.36257e-10
2.39621e-10
2.43e-10
2.46395e-10
2.49806e-10
2.53232e-10
2.56673e-10
2.60129e-10
2.636e-10
2.67084e-10
2.70583e-10
2.74095e-10
2.77622e-10
2.81164e-10
2.8472e-10
2.88293e-10
2.91882e-10
2.9549e-10
2.99117e-10
3.02765e-10
3.06435e-10
3.1013e-10
3.1385e-10
3.17598e-10
3.21376e-10
3.25187e-10
3.29033e-10
3.32915e-10
3.36836e-10
3.40797e-10
3.448e-10
3.48846e-10
3.52935e-10
3.57067e-10
3.61242e-10
3.65459e-10
3.69716e-10
3.74012e-10
3.78345e-10
3.82713e-10
3.87116e-10
3.91551e-10
3.9602e-10
4.0052e-10
4.05053e-10
4.0962e-10
4.14221e-10
4.18859e-10
4.23536e-10
4.28253e-10
4.33014e-10
4.3782e-10
4.42675e-10
4.47581e-10
4.52543e-10
4.57562e-10
4.62641e-10
4.67781e-10
4.72985e-10
4.78253e-10
4.83586e-10
4.88982e-10
4.94438e-10
4.9995e-10
5.05507e-10
5.11099e-10
5.16705e-10
5.22301e-10
5.27857e-10
5.33339e-10
5.38718e-10
5.43974e-10
5.49123e-10
5.54245e-10
5.59548e-10
5.65465e-10
5.72804e-10
5.82974e-10
5.98224e-10
6.2173e-10
6.56993e-10
7.05824e-10
7.65223e-10
8.26276e-10
8.78477e-10
9.16134e-10
9.39911e-10
9.53625e-10
9.61112e-10
9.65075e-10
9.6714e-10
9.68209e-10
9.68762e-10
9.69051e-10
9.69205e-10
9.69291e-10
9.69341e-10
9.69373e-10
9.69397e-10
9.69416e-10
9.69432e-10
9.69448e-10
9.69463e-10
9.69477e-10
9.69492e-10
9.69506e-10
9.6952e-10
9.69535e-10
9.69549e-10
9.69564e-10
9.69579e-10
9.69593e-10
9.69608e-10
9.69623e-10
9.69637e-10
9.69652e-10
9.69667e-10
9.69682e-10
9.69696e-10
9.6971e-10
9.69724e-10
9.69738e-10
9.69751e-10
9.69764e-10
9.69777e-10
9.69789e-10
9.698e-10
9.69811e-10
9.69822e-10
9.69832e-10
9.69841e-10
9.69849e-10
9.69857e-10
9.69864e-10
9.6987e-10
9.69875e-10
9.69879e-10
9.69883e-10
9.69885e-10
9.69887e-10
9.69888e-10
9.69888e-10
9.69888e-10
9.69888e-10
9.69886e-10
9.69883e-10
9.6988e-10
9.69876e-10
9.69871e-10
9.69866e-10
9.69861e-10
9.69855e-10
9.69849e-10
9.69842e-10
9.69835e-10
9.69828e-10
9.69821e-10
9.69814e-10
9.69807e-10
9.698e-10
9.69793e-10
9.69786e-10
9.6978e-10
9.69774e-10
9.69769e-10
9.69764e-10
9.69759e-10
9.69755e-10
9.69751e-10
9.69747e-10
9.69744e-10
9.69741e-10
9.69738e-10
9.69734e-10
9.69731e-10
9.69727e-10
9.69723e-10
9.69718e-10
9.69712e-10
9.69705e-10
9.69697e-10
9.69688e-10
9.69676e-10
9.69664e-10
9.69649e-10
9.69633e-10
9.69614e-10
9.69594e-10
9.69572e-10
9.69548e-10
9.69522e-10
9.69494e-10
9.69464e-10
9.69432e-10
9.69399e-10
9.69363e-10
9.69326e-10
9.69287e-10
9.69246e-10
9.69202e-10
9.69156e-10
9.69108e-10
9.69056e-10
9.69002e-10
9.68943e-10
9.68881e-10
9.68815e-10
9.68744e-10
9.68668e-10
9.68588e-10
9.68502e-10
9.68411e-10
9.68315e-10
9.68213e-10
9.68107e-10
9.67996e-10
9.67881e-10
9.67762e-10
9.67641e-10
9.67517e-10
9.67393e-10
9.67269e-10
9.67147e-10
9.67027e-10
9.66912e-10
9.66803e-10
9.66701e-10
9.66609e-10
9.66528e-10
9.66459e-10
9.66406e-10
9.66369e-10
9.66349e-10
9.66343e-10
9.66342e-10
9.66345e-10
9.66373e-10
9.6645e-10
9.66541e-10
9.66651e-10
9.66778e-10
9.6692e-10
9.67075e-10
9.6724e-10
9.67413e-10
9.67591e-10
9.67771e-10
9.6795e-10
9.68125e-10
9.68295e-10
9.68456e-10
9.68608e-10
9.68747e-10
9.68874e-10
9.68987e-10
9.69087e-10
9.69172e-10
9.69243e-10
9.69302e-10
9.69348e-10
9.69382e-10
9.69405e-10
9.69419e-10
9.69425e-10
9.69426e-10
9.69426e-10
9.69422e-10
9.69403e-10
9.69382e-10
9.69359e-10
9.69336e-10
9.69313e-10
9.6929e-10
9.69269e-10
9.69249e-10
9.69231e-10
9.69215e-10
9.69201e-10
9.6919e-10
9.69181e-10
9.69174e-10
9.69169e-10
9.69167e-10
9.69166e-10
9.69166e-10
9.69166e-10
9.69168e-10
9.69174e-10
9.6918e-10
9.69188e-10
9.69195e-10
9.69204e-10
9.69212e-10
9.69221e-10
9.6923e-10
9.69238e-10
9.69247e-10
9.69255e-10
9.69263e-10
9.69271e-10
9.69279e-10
9.69286e-10
9.69293e-10
9.69299e-10
9.69305e-10
9.69311e-10
9.69316e-10
9.69321e-10
9.69326e-10
9.6933e-10
9.69334e-10
9.69337e-10
9.69341e-10
9.69344e-10
9.69347e-10
9.6935e-10
9.69353e-10
9.69356e-10
9.6936e-10
9.69363e-10
9.69366e-10
9.69369e-10
9.69373e-10
9.69377e-10
9.69381e-10
9.69386e-10
9.69391e-10
9.69396e-10
9.69402e-10
9.69408e-10
9.69415e-10
9.69422e-10
9.6943e-10
9.69438e-10
9.69447e-10
9.69457e-10
9.69467e-10
9.69477e-10
9.69489e-10
9.695e-10
9.69512e-10
9.69525e-10
9.69538e-10
9.6955e-10
9.69564e-10
9.69577e-10
9.69591e-10
9.69604e-10
9.69618e-10
9.69632e-10
9.69646e-10
9.6966e-10
9.69674e-10
9.69688e-10
9.69701e-10
9.69714e-10
9.69726e-10
9.69738e-10
9.69749e-10
9.6976e-10
9.6977e-10
9.69779e-10
9.69787e-10
9.69795e-10
9.69801e-10
9.69807e-10
9.69811e-10
9.69814e-10
9.69816e-10
9.69817e-10
9.69817e-10
9.69817e-10
9.69816e-10
9.69813e-10
9.69808e-10
9.69802e-10
9.69795e-10
9.69787e-10
9.69778e-10
9.69768e-10
9.69758e-10
9.69747e-10
9.69735e-10
9.69722e-10
9.69709e-10
9.69695e-10
9.69681e-10
9.69667e-10
9.69652e-10
9.69637e-10
9.69622e-10
9.69606e-10
9.69591e-10
9.69576e-10
9.69561e-10
9.69545e-10
9.6953e-10
9.69515e-10
9.69499e-10
9.69484e-10
9.69469e-10
9.69453e-10
9.69438e-10
9.69421e-10
9.69405e-10
9.69387e-10
9.69369e-10
9.6935e-10
9.69329e-10
9.69307e-10
9.69282e-10
9.69256e-10
9.69227e-10
9.69195e-10
9.6916e-10
9.69121e-10
9.69079e-10
9.69032e-10
9.68981e-10
9.68925e-10
9.68865e-10
9.68799e-10
9.68729e-10
9.68653e-10
9.68572e-10
9.68485e-10
9.68394e-10
9.68298e-10
9.68197e-10
9.68093e-10
9.67985e-10
9.67873e-10
9.6776e-10
9.67644e-10
9.67528e-10
9.67411e-10
9.67296e-10
9.67182e-10
9.67071e-10
9.66965e-10
9.66864e-10
9.6677e-10
9.66683e-10
9.66606e-10
9.6654e-10
9.66485e-10
9.66443e-10
9.66415e-10
9.66402e-10
9.66398e-10
9.66398e-10
9.66405e-10
9.66444e-10
9.66508e-10
9.66589e-10
9.66685e-10
9.66795e-10
9.66919e-10
9.67053e-10
9.67198e-10
9.67349e-10
9.67506e-10
9.67666e-10
9.67827e-10
9.67988e-10
9.68145e-10
9.68298e-10
9.68444e-10
9.68582e-10
9.68712e-10
9.68832e-10
9.68941e-10
9.6904e-10
9.69128e-10
9.69205e-10
9.69271e-10
9.69327e-10
9.69373e-10
9.6941e-10
9.69439e-10
9.6946e-10
9.69474e-10
9.69483e-10
9.69486e-10
9.69487e-10
9.69486e-10
9.69483e-10
9.6947e-10
9.69457e-10
9.69443e-10
9.69428e-10
9.69413e-10
9.69399e-10
9.69385e-10
9.69372e-10
9.69361e-10
9.69351e-10
9.69342e-10
9.69335e-10
9.6933e-10
9.69326e-10
9.69324e-10
9.69324e-10
9.69324e-10
9.69324e-10
9.69327e-10
9.69332e-10
9.69339e-10
9.69347e-10
9.69356e-10
9.69366e-10
9.69377e-10
9.69388e-10
9.69401e-10
9.69413e-10
9.69426e-10
9.6944e-10
9.69454e-10
9.69468e-10
9.69482e-10
9.69496e-10
9.69511e-10
9.69525e-10
9.69539e-10
9.69553e-10
9.69567e-10
9.69581e-10
9.69594e-10
9.69607e-10
9.6962e-10
9.69632e-10
9.69644e-10
9.69655e-10
9.69666e-10
9.69676e-10
9.69686e-10
9.69694e-10
9.69703e-10
9.6971e-10
9.69717e-10
9.69723e-10
9.69728e-10
9.69733e-10
9.69736e-10
9.69739e-10
9.69741e-10
9.69742e-10
9.69742e-10
9.69742e-10
9.69742e-10
9.69741e-10
9.69737e-10
9.69733e-10
9.69729e-10
9.69723e-10
9.69717e-10
9.69711e-10
9.69704e-10
9.69696e-10
9.69688e-10
9.69679e-10
9.69671e-10
9.69661e-10
9.69652e-10
9.69643e-10
9.69635e-10
9.69626e-10
9.69617e-10
9.69608e-10
9.696e-10
9.69592e-10
9.69585e-10
9.69578e-10
9.69572e-10
9.69567e-10
9.69562e-10
9.69558e-10
9.69555e-10
9.69552e-10
9.69551e-10
9.6955e-10
9.69549e-10
9.69549e-10
9.6955e-10
9.69551e-10
9.69554e-10
9.69557e-10
9.69561e-10
9.69565e-10
9.6957e-10
9.69575e-10
9.69581e-10
9.69586e-10
9.69592e-10
9.69598e-10
9.69603e-10
9.69609e-10
9.69614e-10
9.69618e-10
9.69622e-10
9.69625e-10
9.69627e-10
9.69628e-10
9.69629e-10
9.69629e-10
9.69628e-10
9.69628e-10
9.69629e-10
9.69672e-10
9.69836e-10
9.72249e-10
9.80773e-10
1.06815e-09
1.11308e-09
1.11438e-09
1.11437e-09
1.11437e-09
1.11437e-09
1.11437e-09
1.11437e-09
1.11437e-09
1.11437e-09
1.11437e-09
1.11437e-09
1.11437e-09
1.11437e-09
1.11437e-09
1.11437e-09
1.11437e-09
1.11437e-09
1.11437e-09
1.11437e-09
1.11437e-09
1.11437e-09
1.11437e-09
1.11437e-09
1.11437e-09
1.11437e-09
1.11437e-09
1.11437e-09
1.11437e-09
1.11437e-09
1.11437e-09
1.11437e-09
1.11437e-09
1.11437e-09
1.11437e-09
1.11437e-09
1.11437e-09
1.11437e-09
1.11437e-09
1.11437e-09
1.11437e-09
1.11437e-09
1.11437e-09
1.11437e-09
1.11437e-09
1.11437e-09
1.11437e-09
1.11437e-09
1.11437e-09
1.11437e-09
1.11437e-09
1.11437e-09
1.11437e-09
1.11437e-09
1.11437e-09
1.11437e-09
1.11437e-09
1.11437e-09
1.11437e-09
1.11437e-09
1.11437e-09
1.11437e-09
1.11437e-09
1.11437e-09
1.11437e-09
1.11437e-09
1.11437e-09
1.11437e-09
1.11437e-09
1.11437e-09
1.11437e-09
1.11437e-09
1.11437e-09
1.11437e-09
1.11437e-09
1.11437e-09
1.11437e-09
1.11437e-09
1.11437e-09
1.11437e-09
1.11437e-09
1.11437e-09
1.11437e-09
1.11437e-09
1.11437e-09
1.11437e-09
1.11437e-09
1.11437e-09
1.11437e-09
1.11437e-09
1.11437e-09
1.11437e-09
1.11437e-09
1.11437e-09
1.11437e-09
1.11437e-09
1.11437e-09
1.11437e-09
1.11437e-09
1.11437e-09
1.11437e-09
1.11437e-09
1.11437e-09
1.11437e-09
1.11437e-09
1.11437e-09
1.11437e-09
1.11437e-09
1.11437e-09
1.11437e-09
1.11437e-09
1.11437e-09
1.11437e-09
1.11437e-09
1.11437e-09
1.11437e-09
1.11437e-09
1.11437e-09
1.11437e-09
1.11437e-09
1.11437e-09
1.11437e-09
1.11437e-09
1.11437e-09
1.11437e-09
1.11437e-09
1.11437e-09
1.11437e-09
1.11437e-09
1.11437e-09
1.11437e-09
1.11437e-09
1.11437e-09
1.11437e-09
1.11437e-09
1.11437e-09
1.11437e-09
1.11437e-09
1.11437e-09
1.11437e-09
1.11437e-09
1.11437e-09
1.11437e-09
1.11437e-09
1.11437e-09
1.11437e-09
1.11437e-09
1.11437e-09
1.11437e-09
1.11437e-09
1.11437e-09
1.11437e-09
1.11437e-09
1.11437e-09
1.11437e-09
1.11437e-09
1.11437e-09
1.11437e-09
1.11437e-09
1.11437e-09
1.11437e-09
1.11437e-09
1.11437e-09
1.11437e-09
1.11437e-09
1.11437e-09
1.11437e-09
1.11437e-09
1.11437e-09
1.11437e-09
1.11437e-09
1.11437e-09
1.11437e-09
1.11437e-09
1.11437e-09
1.11437e-09
1.11437e-09
1.11437e-09
1.11437e-09
1.11437e-09
1.11437e-09
1.11437e-09
1.11437e-09
1.11437e-09
1.11437e-09
1.11437e-09
1.11437e-09
1.11437e-09
1.11437e-09
1.11437e-09
1.11437e-09
1.11437e-09
1.11437e-09
1.11437e-09
1.11437e-09
1.11437e-09
1.11437e-09
1.11437e-09
1.11437e-09
1.11437e-09
1.11437e-09
1.11437e-09
1.11437e-09
1.11437e-09
1.11437e-09
1.11437e-09
1.11437e-09
1.11437e-09
1.11437e-09
1.11437e-09
1.11437e-09
1.11437e-09
1.11437e-09
1.11437e-09
1.11437e-09
1.11437e-09
1.11437e-09
1.11437e-09
1.11437e-09
1.11437e-09
1.11437e-09
1.11437e-09
1.11437e-09
1.11437e-09
1.11437e-09
1.11437e-09
1.11437e-09
1.11437e-09
1.11437e-09
1.11437e-09
1.11437e-09
1.11437e-09
1.11437e-09
1.11437e-09
1.11437e-09
1.11437e-09
1.11437e-09
1.11437e-09
1.11437e-09
1.11437e-09
1.11437e-09
1.11437e-09
1.11437e-09
1.11437e-09
1.11437e-09
1.11437e-09
1.11437e-09
1.11437e-09
1.11437e-09
1.11437e-09
1.11437e-09
1.11437e-09
1.11437e-09
1.11437e-09
1.11437e-09
1.11437e-09
1.11437e-09
1.11437e-09
1.11437e-09
1.11437e-09
1.11437e-09
1.11437e-09
1.11437e-09
1.11437e-09
1.11437e-09
1.11437e-09
1.11437e-09
1.11437e-09
1.11437e-09
1.11437e-09
1.11437e-09
1.11437e-09
1.11437e-09
1.11437e-09
1.11437e-09
1.11437e-09
1.11437e-09
1.11437e-09
1.11437e-09
1.11437e-09
1.11437e-09
1.11437e-09
1.11437e-09
1.11437e-09
1.11437e-09
1.11437e-09
1.11437e-09
1.11437e-09
1.11437e-09
1.11437e-09
1.11437e-09
1.11437e-09
1.11437e-09
1.11437e-09
1.11437e-09
1.11437e-09
1.11437e-09
1.11437e-09
1.11437e-09
)
;

boundaryField
{
    inlet
    {
        type            calculated;
        value           uniform 0;
    }
    outlet
    {
        type            calculated;
        value           uniform 1.11437e-09;
    }
    emptyWalls
    {
        type            empty;
        value           nonuniform List<scalar> 0();
    }
}


// ************************************************************************* //
