/*--------------------------------*- C++ -*----------------------------------*\
  =========                 |
  \\      /  F ield         | OpenFOAM: The Open Source CFD Toolbox
   \\    /   O peration     | Website:  https://openfoam.org
    \\  /    A nd           | Version:  9
     \\/     M anipulation  |
\*---------------------------------------------------------------------------*/
FoamFile
{
    format      ascii;
    class       volScalarField;
    location    "24200";
    object      Fa;
}
// * * * * * * * * * * * * * * * * * * * * * * * * * * * * * * * * * * * * * //

dimensions      [0 0 0 0 0 0 0];

internalField   nonuniform List<scalar> 
1000
(
0.19483
0.194751
0.194837
0.194724
0.194826
0.194702
0.194779
0.194685
0.194698
0.194647
0.194612
0.194577
0.194536
0.19449
0.19445
0.194398
0.194346
0.1943
0.194231
0.194203
0.194104
0.194117
0.193972
0.194026
0.193871
0.193922
0.193817
0.19383
0.193777
0.193765
0.193713
0.193609
0.193176
0.190733
0.170813
0.154185
0.151283
0.150208
0.149624
0.14923
0.148928
0.148679
0.148466
0.148276
0.148105
0.147949
0.147811
0.147688
0.147578
0.147475
0.147371
0.147264
0.147157
0.147058
0.146972
0.146905
0.146862
0.14683
0.146782
0.146712
0.146641
0.146565
0.146481
0.146413
0.146368
0.14634
0.146385
0.146569
0.146786
0.147034
0.147294
0.147542
0.147756
0.147919
0.148023
0.148079
0.14811
0.14814
0.148165
0.148126
0.147953
0.147718
0.14744
0.147141
0.146838
0.146547
0.146279
0.146043
0.145842
0.145678
0.14555
0.145456
0.145391
0.145353
0.145337
0.145337
0.145346
0.145359
0.145372
0.145382
0.145387
0.145387
0.14538
0.145368
0.14535
0.145328
0.145301
0.145272
0.14524
0.145206
0.145171
0.145136
0.145099
0.145063
0.145027
0.144991
0.144956
0.144921
0.144887
0.144854
0.144821
0.144789
0.144758
0.144728
0.144698
0.14467
0.144642
0.144615
0.144589
0.144564
0.14454
0.144517
0.144495
0.144474
0.144453
0.144434
0.144416
0.144398
0.144381
0.144365
0.14435
0.144335
0.144323
0.144311
0.144301
0.144292
0.144284
0.144278
0.144272
0.144267
0.144262
0.144258
0.144253
0.144248
0.144242
0.144237
0.144232
0.144228
0.144225
0.144224
0.144224
0.144225
0.144228
0.144231
0.144235
0.144239
0.144242
0.144244
0.144243
0.144241
0.144237
0.144232
0.144227
0.144225
0.144228
0.144239
0.144261
0.144295
0.144343
0.144406
0.144484
0.144577
0.144683
0.144801
0.144929
0.145064
0.145205
0.145348
0.14549
0.145628
0.145757
0.145875
0.145978
0.146061
0.146123
0.14616
0.14617
0.146154
0.14611
0.146041
0.145949
0.145836
0.145707
0.145565
0.145417
0.145264
0.145113
0.144966
0.144827
0.144697
0.144579
0.144474
0.144382
0.144303
0.144237
0.144181
0.144136
0.144099
0.14407
0.144046
0.144026
0.14401
0.143995
0.143981
0.143967
0.143953
0.143937
0.14392
0.143902
0.143882
0.143859
0.143836
0.14381
0.143784
0.143756
0.143727
0.143697
0.143667
0.143636
0.143604
0.143573
0.143541
0.14351
0.143479
0.143448
0.143417
0.143386
0.143356
0.143327
0.143298
0.143269
0.143241
0.143214
0.143187
0.143161
0.143136
0.143111
0.143087
0.143064
0.143041
0.143019
0.142998
0.142978
0.142958
0.142938
0.14292
0.142902
0.142885
0.142869
0.142854
0.142839
0.142826
0.142813
0.142801
0.14279
0.142779
0.142769
0.14276
0.142751
0.142742
0.142734
0.142726
0.142719
0.142712
0.142705
0.142699
0.142693
0.142688
0.142683
0.142679
0.142676
0.142673
0.14267
0.142667
0.142665
0.142662
0.142659
0.142656
0.142653
0.142649
0.142646
0.142644
0.142642
0.142643
0.142645
0.142651
0.142661
0.142675
0.142695
0.142721
0.142753
0.142793
0.14284
0.142894
0.142956
0.143025
0.143101
0.143183
0.14327
0.143361
0.143455
0.14355
0.143646
0.14374
0.143831
0.143917
0.143996
0.144067
0.144128
0.144178
0.144215
0.144239
0.144248
0.144243
0.144223
0.144188
0.144141
0.14408
0.144009
0.143927
0.143838
0.143742
0.143642
0.143539
0.143436
0.143334
0.143233
0.143137
0.143045
0.142958
0.142877
0.142802
0.142734
0.142672
0.142616
0.142566
0.142521
0.142481
0.142445
0.142412
0.142383
0.142356
0.142331
0.142307
0.142285
0.142263
0.142242
0.14222
0.142198
0.142176
0.142153
0.14213
0.142106
0.142081
0.142056
0.14203
0.142003
0.141976
0.141948
0.14192
0.141891
0.141862
0.141834
0.141804
0.141775
0.141746
0.141717
0.141688
0.14166
0.141631
0.141603
0.141576
0.141548
0.141521
0.141495
0.141469
0.141444
0.141418
0.141394
0.14137
0.141347
0.141324
0.141302
0.14128
0.141259
0.141238
0.141219
0.141199
0.141181
0.141163
0.141145
0.141129
0.141113
0.141097
0.141082
0.141068
0.141055
0.141042
0.141029
0.141017
0.141006
0.140995
0.140985
0.140975
0.140966
0.140957
0.140948
0.14094
0.140932
0.140925
0.140918
0.140912
0.140906
0.1409
0.140894
0.140889
0.140884
0.140879
0.140874
0.14087
0.140866
0.140862
0.140858
0.140854
0.140851
0.140849
0.140847
0.140847
0.140847
0.140849
0.140853
0.14086
0.140868
0.14088
0.140895
0.140913
0.140935
0.140961
0.140991
0.141026
0.141065
0.141108
0.141155
0.141207
0.141262
0.141321
0.141383
0.141447
0.141513
0.141581
0.141649
0.141717
0.141783
0.141848
0.141909
0.141967
0.142021
0.142069
0.142111
0.142145
0.142173
0.142192
0.142202
0.142204
0.142197
0.142182
0.142157
0.142124
0.142083
0.142034
0.141979
0.141918
0.141852
0.141781
0.141708
0.141631
0.141554
0.141476
0.141398
0.141321
0.141245
0.141172
0.141101
0.141034
0.140969
0.140908
0.140851
0.140797
0.140746
0.140699
0.140655
0.140614
0.140576
0.14054
0.140507
0.140475
0.140445
0.140417
0.140389
0.140363
0.140337
0.140312
0.140287
0.140262
0.140238
0.140213
0.140189
0.140164
0.140139
0.140114
0.140088
0.140062
0.140036
0.14001
0.139983
0.139957
0.13993
0.139903
0.139876
0.139849
0.139822
0.139795
0.139768
0.139741
0.139714
0.139688
0.139662
0.139636
0.13961
0.139585
0.13956
0.139536
0.139511
0.139488
0.139464
0.139441
0.139419
0.139397
0.139375
0.139354
0.139333
0.139313
0.139293
0.139274
0.139255
0.139237
0.139219
0.139202
0.139186
0.13917
0.139154
0.139139
0.139124
0.13911
0.139096
0.139083
0.13907
0.139058
0.139046
0.139035
0.139024
0.139013
0.139003
0.138993
0.138983
0.138974
0.138965
0.138957
0.138948
0.13894
0.138933
0.138925
0.138918
0.138911
0.138904
0.138898
0.138892
0.138886
0.13888
0.138875
0.13887
0.138865
0.138861
0.138858
0.138855
0.138853
0.138852
0.138852
0.138853
0.138856
0.138861
0.138867
0.138875
0.138885
0.138897
0.138912
0.13893
0.138949
0.138972
0.138997
0.139026
0.139057
0.13909
0.139126
0.139165
0.139206
0.13925
0.139295
0.139341
0.139389
0.139438
0.139487
0.139536
0.139585
0.139633
0.13968
0.139725
0.139767
0.139807
0.139843
0.139876
0.139905
0.139928
0.139947
0.139961
0.139969
0.139972
0.139969
0.13996
0.139945
0.139924
0.139898
0.139866
0.139829
0.139788
0.139742
0.139692
0.139638
0.139582
0.139523
0.139462
0.1394
0.139337
0.139274
0.13921
0.139147
0.139085
0.139023
0.138963
0.138905
0.138849
0.138795
0.138742
0.138692
0.138644
0.138599
0.138555
0.138513
0.138474
0.138436
0.1384
0.138365
0.138332
0.138301
0.13827
0.138241
0.138212
0.138184
0.138157
0.13813
0.138104
0.138078
0.138053
0.138027
0.138002
0.137976
0.137951
0.137926
0.1379
0.137875
0.137849
0.137824
0.137798
0.137772
0.137747
0.137721
0.137695
0.137669
0.137643
0.137617
0.137592
0.137566
0.137541
0.137515
0.13749
0.137465
0.13744
0.137415
0.137391
0.137366
0.137342
0.137319
0.137295
0.137272
0.137249
0.137227
0.137205
0.137183
0.137162
0.137141
0.13712
0.1371
0.13708
0.13706
0.137041
0.137022
0.137004
0.136986
0.136969
0.136952
0.136935
0.136919
0.136903
0.136887
0.136872
0.136857
0.136843
0.136829
0.136815
0.136802
0.136789
0.136777
0.136764
0.136752
0.136741
0.13673
0.136719
0.136708
0.136697
0.136687
0.136677
0.136668
0.136658
0.136649
0.13664
0.136632
0.136624
0.136616
0.136608
0.136601
0.136594
0.136587
0.136581
0.136576
0.136571
0.136567
0.136563
0.136561
0.136559
0.136558
0.136558
0.13656
0.136562
0.136566
0.136572
0.136579
0.136587
0.136598
0.13661
0.136624
0.136639
0.136657
0.136676
0.136697
0.13672
0.136745
0.136772
0.1368
0.13683
0.136861
0.136894
0.136927
0.136962
0.136997
0.137033
0.137069
0.137105
0.13714
0.137175
0.13721
0.137243
0.137274
0.137304
0.137333
0.137358
0.137381
0.137402
0.137419
0.137433
0.137444
0.137451
0.137454
0.137453
0.137448
0.137439
0.137426
0.13741
0.137389
0.137364
0.137335
0.137303
0.137268
0.137229
0.137188
0.137144
0.137097
0.137048
0.136998
0.136946
0.136893
0.13684
0.136785
0.136731
0.136676
0.136622
0.136568
0.136514
0.136462
0.13641
0.13636
0.136311
0.136263
0.136216
0.136171
0.136127
0.136084
0.136043
0.136003
0.135965
0.135927
0.135891
0.135856
0.135822
0.135789
0.135757
0.135725
0.135694
0.135664
0.135635
0.135606
0.135577
0.135549
0.13552
0.135492
0.135465
0.135437
0.13541
0.135383
0.135355
0.135328
0.135301
0.135274
0.135246
0.135219
0.135192
0.135165
0.135137
0.13511
0.135083
0.135055
0.135028
0.135001
0.134974
0.134947
0.13492
0.134893
0.134867
0.13484
0.134814
0.134788
0.134762
0.134736
0.134711
0.134685
0.13466
0.134636
0.134611
0.134587
0.134563
0.13454
0.134517
0.134494
0.134472
0.134451
0.134429
0.134408
0.134388
0.134368
0.134349
0.13433
0.134312
0.134295
0.134278
0.134262
0.134247
0.134232
0.134218
0.134205
0.134193
0.134181
0.134171
0.134162
0.134153
0.134145
0.134138
0.134132
0.134128
0.134123
0.13412
0.134118
0.134116
0.134115
0.134115
0.134115
0.134117
0.134119
0.134121
0.134124
0.134128
0.134132
0.134137
0.134142
0.134147
0.134155
0.134159
0.134169
0.134175
0.134185
0.134192
0.134203
0.13421
0.134219
0.13423
0.134231
0.13424
0.134228
0.134214
0.134163
0.134073
0.133909
0.133633
0.133238
0.132722
0.132221
0.131829
0.13161
0.131511
0.131472
0.13148
0.131485
0.131517
0.131544
0.131569
0.131607
0.131632
0.131676
0.131701
0.13175
0.131773
0.131826
0.131848
0.131904
0.131924
0.131982
0.132001
0.132061
0.132077
0.132138
0.132152
0.132226
)
;

boundaryField
{
    inlet
    {
        type            calculated;
        value           uniform 0.194831;
    }
    outlet
    {
        type            calculated;
        value           uniform 0.132218;
    }
    emptyWalls
    {
        type            empty;
    }
}


// ************************************************************************* //
