/*--------------------------------*- C++ -*----------------------------------*\
  =========                 |
  \\      /  F ield         | OpenFOAM: The Open Source CFD Toolbox
   \\    /   O peration     | Website:  https://openfoam.org
    \\  /    A nd           | Version:  9
     \\/     M anipulation  |
\*---------------------------------------------------------------------------*/
FoamFile
{
    format      ascii;
    class       volScalarField;
    location    "24200";
    object      Sa;
}
// * * * * * * * * * * * * * * * * * * * * * * * * * * * * * * * * * * * * * //

dimensions      [0 0 0 0 0 0 0];

internalField   nonuniform List<scalar> 
1000
(
0.549578
0.548648
0.547522
0.546284
0.545167
0.543923
0.542786
0.541547
0.54036
0.539129
0.537898
0.53666
0.535414
0.534163
0.532918
0.531674
0.530444
0.52924
0.528057
0.526938
0.525834
0.524856
0.523862
0.523058
0.522217
0.521573
0.520919
0.520401
0.519903
0.519439
0.518778
0.517092
0.511059
0.484697
0.321623
0.119152
0.0778778
0.0652232
0.0590794
0.0551937
0.0523421
0.0500518
0.0481203
0.0464325
0.044932
0.043575
0.0423403
0.0412058
0.0401608
0.0391907
0.0382893
0.0374466
0.03666
0.0359231
0.0352344
0.0345884
0.033984
0.0334145
0.0328753
0.032362
0.0318761
0.0314138
0.0309741
0.030557
0.0301626
0.0297886
0.0294401
0.0291229
0.0288243
0.0285422
0.0282736
0.0280121
0.0277578
0.0275099
0.0272674
0.0270316
0.0268048
0.0265891
0.0263835
0.0261823
0.0259781
0.025778
0.0255839
0.0253974
0.0252201
0.0250532
0.0248973
0.024753
0.0246204
0.0244996
0.0243907
0.0242948
0.0242129
0.0241465
0.0240958
0.0240581
0.0240262
0.0239939
0.0239606
0.0239265
0.0238915
0.0238557
0.0238192
0.0237822
0.0237447
0.0237069
0.0236688
0.0236306
0.0235923
0.023554
0.0235158
0.0234778
0.0234399
0.0234022
0.0233648
0.0233276
0.0232906
0.023254
0.0232176
0.0231815
0.0231457
0.0231101
0.0230749
0.0230399
0.0230053
0.0229709
0.0229368
0.022903
0.0228695
0.0228362
0.0228033
0.0227707
0.0227384
0.0227063
0.0226745
0.022643
0.0226118
0.0225808
0.02255
0.0225195
0.0224893
0.0224593
0.0224297
0.0224003
0.0223712
0.0223424
0.0223139
0.0222857
0.0222577
0.0222299
0.0222023
0.0221748
0.0221475
0.0221204
0.0220933
0.0220665
0.0220398
0.0220134
0.0219871
0.0219612
0.0219355
0.0219101
0.0218849
0.02186
0.0218352
0.0218105
0.021786
0.0217614
0.0217368
0.0217122
0.0216875
0.0216629
0.0216385
0.0216144
0.0215909
0.0215681
0.0215464
0.0215258
0.0215065
0.0214886
0.0214721
0.0214568
0.0214428
0.0214299
0.0214179
0.0214066
0.0213958
0.0213853
0.0213748
0.021364
0.0213526
0.0213403
0.0213269
0.021312
0.0212954
0.0212768
0.0212562
0.0212335
0.0212086
0.0211818
0.0211532
0.0211231
0.0210917
0.0210594
0.0210267
0.0209937
0.020961
0.0209287
0.0208972
0.0208666
0.020837
0.0208086
0.0207813
0.0207551
0.0207301
0.0207061
0.020683
0.0206606
0.0206389
0.0206178
0.0205971
0.0205768
0.0205566
0.0205367
0.0205168
0.0204969
0.020477
0.0204571
0.0204372
0.0204172
0.0203971
0.020377
0.0203568
0.0203366
0.0203164
0.0202962
0.0202759
0.0202557
0.0202356
0.0202155
0.0201954
0.0201754
0.0201555
0.0201357
0.020116
0.0200963
0.0200768
0.0200574
0.020038
0.0200188
0.0199997
0.0199807
0.0199619
0.0199431
0.0199245
0.019906
0.0198875
0.0198693
0.0198511
0.019833
0.0198151
0.0197973
0.0197796
0.019762
0.0197445
0.0197271
0.0197099
0.0196928
0.0196758
0.0196589
0.0196422
0.0196256
0.019609
0.0195927
0.0195764
0.0195602
0.0195441
0.0195282
0.0195123
0.0194965
0.0194808
0.0194652
0.0194496
0.0194341
0.0194188
0.0194035
0.0193883
0.0193732
0.0193581
0.0193432
0.0193284
0.0193136
0.0192989
0.0192843
0.0192697
0.0192552
0.0192407
0.0192262
0.0192118
0.0191974
0.0191831
0.0191688
0.0191547
0.0191408
0.0191271
0.0191136
0.0191006
0.0190879
0.0190756
0.0190639
0.0190527
0.019042
0.019032
0.0190225
0.0190137
0.0190054
0.0189976
0.0189903
0.0189835
0.018977
0.0189707
0.0189646
0.0189585
0.0189524
0.018946
0.0189393
0.0189321
0.0189243
0.0189158
0.0189066
0.0188964
0.0188852
0.0188731
0.0188599
0.0188457
0.0188304
0.0188142
0.0187971
0.0187793
0.0187607
0.0187416
0.0187221
0.0187023
0.0186824
0.0186625
0.0186426
0.018623
0.0186037
0.0185847
0.0185662
0.0185482
0.0185306
0.0185136
0.018497
0.018481
0.0184653
0.0184501
0.0184353
0.0184209
0.0184067
0.0183928
0.0183791
0.0183656
0.0183522
0.0183389
0.0183257
0.0183126
0.0182995
0.0182864
0.0182733
0.0182602
0.0182471
0.018234
0.0182208
0.0182076
0.0181945
0.0181813
0.0181681
0.0181549
0.0181417
0.0181285
0.0181153
0.0181021
0.018089
0.0180759
0.0180628
0.0180497
0.0180367
0.0180238
0.0180109
0.017998
0.0179852
0.0179725
0.0179598
0.0179471
0.0179346
0.0179221
0.0179096
0.0178973
0.0178849
0.0178727
0.0178605
0.0178484
0.0178364
0.0178244
0.0178125
0.0178007
0.017789
0.0177773
0.0177657
0.0177541
0.0177427
0.0177313
0.0177199
0.0177087
0.0176975
0.0176864
0.0176753
0.0176643
0.0176534
0.0176425
0.0176317
0.017621
0.0176103
0.0175997
0.0175891
0.0175786
0.0175681
0.0175577
0.0175473
0.017537
0.0175267
0.0175165
0.0175063
0.0174962
0.0174861
0.0174761
0.0174661
0.0174561
0.0174461
0.0174362
0.0174263
0.0174165
0.0174067
0.017397
0.0173873
0.0173777
0.0173682
0.0173588
0.0173495
0.0173404
0.0173314
0.0173227
0.0173142
0.0173058
0.0172978
0.01729
0.0172826
0.0172754
0.0172686
0.017262
0.0172558
0.0172499
0.0172443
0.017239
0.0172339
0.017229
0.0172244
0.0172198
0.0172154
0.017211
0.0172066
0.0172022
0.0171976
0.0171929
0.0171879
0.0171826
0.0171769
0.0171708
0.0171643
0.0171573
0.0171497
0.0171416
0.0171329
0.0171236
0.0171138
0.0171033
0.0170923
0.0170808
0.0170688
0.0170564
0.0170436
0.0170304
0.017017
0.0170034
0.0169896
0.0169758
0.0169619
0.0169481
0.0169344
0.0169208
0.0169073
0.0168941
0.0168811
0.0168683
0.0168558
0.0168435
0.0168315
0.0168197
0.0168082
0.0167969
0.0167858
0.0167749
0.0167643
0.0167537
0.0167434
0.0167331
0.016723
0.016713
0.016703
0.0166931
0.0166833
0.0166735
0.0166637
0.0166539
0.0166442
0.0166345
0.0166248
0.016615
0.0166053
0.0165956
0.0165859
0.0165762
0.0165664
0.0165567
0.016547
0.0165373
0.0165276
0.0165179
0.0165082
0.0164985
0.0164889
0.0164792
0.0164696
0.0164601
0.0164505
0.016441
0.0164315
0.0164221
0.0164126
0.0164033
0.0163939
0.0163846
0.0163754
0.0163661
0.016357
0.0163478
0.0163387
0.0163297
0.0163207
0.0163117
0.0163028
0.0162939
0.0162851
0.0162764
0.0162676
0.016259
0.0162503
0.0162417
0.0162332
0.0162247
0.0162163
0.0162079
0.0161995
0.0161912
0.0161829
0.0161747
0.0161665
0.0161583
0.0161502
0.0161422
0.0161341
0.0161261
0.0161182
0.0161103
0.0161024
0.0160945
0.0160867
0.0160789
0.0160712
0.0160634
0.0160557
0.016048
0.0160404
0.0160328
0.0160252
0.0160176
0.0160101
0.0160026
0.0159951
0.0159876
0.0159802
0.0159729
0.0159656
0.0159583
0.0159511
0.015944
0.015937
0.01593
0.0159232
0.0159164
0.0159098
0.0159034
0.015897
0.0158908
0.0158848
0.015879
0.0158733
0.0158678
0.0158625
0.0158574
0.0158525
0.0158478
0.0158432
0.0158388
0.0158346
0.0158305
0.0158265
0.0158226
0.0158189
0.0158151
0.0158115
0.0158078
0.0158041
0.0158004
0.0157965
0.0157926
0.0157885
0.0157843
0.0157798
0.0157752
0.0157702
0.015765
0.0157595
0.0157536
0.0157474
0.0157409
0.015734
0.0157267
0.0157191
0.0157111
0.0157028
0.0156941
0.0156851
0.0156758
0.0156663
0.0156565
0.0156465
0.0156364
0.0156261
0.0156156
0.0156051
0.0155946
0.015584
0.0155735
0.0155629
0.0155525
0.0155421
0.0155318
0.0155216
0.0155116
0.0155017
0.0154919
0.0154823
0.0154728
0.0154635
0.0154543
0.0154453
0.0154364
0.0154276
0.0154189
0.0154104
0.0154019
0.0153935
0.0153852
0.015377
0.0153689
0.0153608
0.0153527
0.0153447
0.0153368
0.0153288
0.0153209
0.015313
0.0153051
0.0152973
0.0152894
0.0152815
0.0152737
0.0152658
0.015258
0.0152502
0.0152423
0.0152345
0.0152266
0.0152188
0.015211
0.0152032
0.0151954
0.0151876
0.0151798
0.015172
0.0151643
0.0151565
0.0151488
0.0151411
0.0151334
0.0151257
0.0151181
0.0151105
0.0151029
0.0150953
0.0150877
0.0150802
0.0150727
0.0150652
0.0150578
0.0150504
0.015043
0.0150356
0.0150283
0.015021
0.0150137
0.0150065
0.0149992
0.0149921
0.0149849
0.0149778
0.0149707
0.0149637
0.0149566
0.0149496
0.0149427
0.0149357
0.0149288
0.0149219
0.0149151
0.0149083
0.0149015
0.0148947
0.014888
0.0148813
0.0148746
0.0148679
0.0148613
0.0148547
0.0148481
0.0148415
0.014835
0.0148284
0.0148219
0.0148154
0.014809
0.0148025
0.0147961
0.0147897
0.0147833
0.014777
0.0147707
0.0147644
0.0147581
0.0147518
0.0147456
0.0147394
0.0147333
0.0147272
0.0147212
0.0147152
0.0147093
0.0147034
0.0146976
0.0146919
0.0146862
0.0146806
0.0146752
0.0146698
0.0146645
0.0146593
0.0146543
0.0146493
0.0146445
0.0146398
0.0146352
0.0146307
0.0146263
0.014622
0.0146179
0.0146138
0.0146098
0.0146059
0.0146021
0.0145984
0.0145947
0.0145911
0.0145875
0.0145839
0.0145803
0.0145767
0.014573
0.0145693
0.0145656
0.0145617
0.0145578
0.0145537
0.0145495
0.0145452
0.0145407
0.014536
0.0145311
0.014526
0.0145207
0.0145151
0.0145093
0.0145033
0.0144971
0.0144906
0.0144838
0.0144769
0.0144697
0.0144623
0.0144546
0.0144468
0.0144388
0.0144306
0.0144223
0.0144138
0.0144052
0.0143965
0.0143878
0.0143789
0.01437
0.0143611
0.0143522
0.0143432
0.0143343
0.0143254
0.0143166
0.0143078
0.0142991
0.0142904
0.0142818
0.0142733
0.0142648
0.0142565
0.0142482
0.01424
0.0142319
0.0142238
0.0142159
0.014208
0.0142002
0.0141924
0.0141848
0.0141771
0.0141696
0.014162
0.0141545
0.0141471
0.0141397
0.0141323
0.0141249
0.0141176
0.0141103
0.0141029
0.0140956
0.0140883
0.0140811
0.0140738
0.0140665
0.0140592
0.014052
0.0140447
0.0140374
0.0140301
0.0140229
0.0140156
0.0140083
0.0140011
0.0139938
0.0139865
0.0139793
0.013972
0.0139648
0.0139575
0.0139503
0.0139431
0.0139359
0.0139287
0.0139215
0.0139144
0.0139072
0.0139001
0.013893
0.013886
0.0138789
0.0138719
0.013865
0.013858
0.0138511
0.0138443
0.0138375
0.0138308
0.0138241
0.0138175
0.013811
0.0138045
0.0137982
0.0137919
0.0137857
0.0137797
0.0137738
0.013768
0.0137624
0.0137569
0.0137516
0.0137465
0.0137416
0.0137369
0.0137325
0.0137282
0.0137242
0.0137204
0.0137169
0.0137137
0.0137107
0.0137079
0.0137055
0.0137032
0.0137012
0.0136994
0.0136979
0.0136965
0.0136954
0.0136944
0.0136936
0.013693
0.0136925
0.0136921
0.0136919
0.0136917
0.0136917
0.0136917
0.0136918
0.013692
0.0136922
0.0136926
0.0136928
0.0136932
0.0136935
0.0136938
0.0136938
0.0136937
0.0136931
0.013691
0.0136877
0.01368
0.0136671
0.0136426
0.0136007
0.0135303
0.0134194
0.0132622
0.0130683
0.0128742
0.0127196
0.0126226
0.0125717
0.0125473
0.0125372
0.0125324
0.0125315
0.0125318
0.0125325
0.0125342
0.0125354
0.0125377
0.012539
0.0125416
0.0125429
0.0125457
0.0125469
0.0125499
0.012551
0.0125541
0.0125551
0.0125583
0.0125593
0.0125625
0.0125633
0.0125673
)
;

boundaryField
{
    inlet
    {
        type            fixedValue;
        value           uniform 0.55;
    }
    outlet
    {
        type            zeroGradient;
    }
    emptyWalls
    {
        type            empty;
    }
}


// ************************************************************************* //
