/*--------------------------------*- C++ -*----------------------------------*\
  =========                 |
  \\      /  F ield         | OpenFOAM: The Open Source CFD Toolbox
   \\    /   O peration     | Website:  https://openfoam.org
    \\  /    A nd           | Version:  9
     \\/     M anipulation  |
\*---------------------------------------------------------------------------*/
FoamFile
{
    format      ascii;
    class       volScalarField;
    location    "24200";
    object      Sb;
}
// * * * * * * * * * * * * * * * * * * * * * * * * * * * * * * * * * * * * * //

dimensions      [0 0 0 0 0 0 0];

internalField   nonuniform List<scalar> 
1000
(
0.3502
0.350682
0.351216
0.351861
0.352389
0.353043
0.353589
0.354235
0.354827
0.355459
0.356088
0.356721
0.357362
0.358008
0.35865
0.359297
0.359937
0.360564
0.361188
0.361769
0.362362
0.362861
0.363412
0.363812
0.364288
0.364607
0.364974
0.365238
0.365511
0.365755
0.366112
0.367016
0.370288
0.385063
0.487967
0.628152
0.656104
0.664284
0.668127
0.670496
0.672196
0.673533
0.674638
0.675584
0.676407
0.677136
0.677783
0.678363
0.678884
0.679354
0.679779
0.680165
0.680514
0.680829
0.681112
0.681365
0.68159
0.681791
0.681971
0.682135
0.68228
0.682408
0.68252
0.682615
0.682693
0.682754
0.682794
0.682805
0.682801
0.682781
0.682748
0.682704
0.682651
0.682592
0.682526
0.682452
0.682367
0.68227
0.682159
0.682041
0.681921
0.681792
0.681651
0.681494
0.681319
0.681121
0.680898
0.680644
0.680353
0.680019
0.67963
0.679177
0.678646
0.678028
0.677321
0.676533
0.675684
0.674797
0.673883
0.672953
0.672012
0.671064
0.670113
0.669161
0.668209
0.66726
0.666312
0.665368
0.664428
0.663492
0.66256
0.661633
0.66071
0.659792
0.658879
0.657971
0.657068
0.65617
0.655277
0.65439
0.653507
0.652629
0.651756
0.650888
0.650025
0.649167
0.648314
0.647466
0.646623
0.645784
0.64495
0.644121
0.643296
0.642476
0.64166
0.640849
0.640042
0.63924
0.638442
0.637649
0.636859
0.636074
0.635293
0.634516
0.633744
0.632975
0.63221
0.631449
0.630692
0.629939
0.62919
0.628445
0.627704
0.626966
0.626232
0.625502
0.624776
0.624053
0.623333
0.622618
0.621905
0.621196
0.62049
0.619788
0.619089
0.618393
0.617701
0.617012
0.616326
0.615644
0.614965
0.61429
0.613617
0.612948
0.612281
0.611616
0.610954
0.610294
0.609635
0.608978
0.608323
0.60767
0.607018
0.606369
0.605721
0.605075
0.604432
0.603792
0.603154
0.602519
0.601888
0.60126
0.600636
0.600016
0.599401
0.598789
0.598183
0.597581
0.596983
0.59639
0.595801
0.595217
0.594635
0.594057
0.593482
0.592909
0.592339
0.591771
0.591204
0.590638
0.590074
0.589511
0.588949
0.588388
0.587829
0.587271
0.586714
0.586158
0.585604
0.585051
0.584501
0.583952
0.583405
0.582859
0.582316
0.581775
0.581236
0.580698
0.580163
0.57963
0.579099
0.57857
0.578042
0.577517
0.576993
0.576472
0.575952
0.575434
0.574918
0.574404
0.573891
0.57338
0.572871
0.572363
0.571858
0.571353
0.570851
0.57035
0.56985
0.569352
0.568856
0.568361
0.567868
0.567376
0.566886
0.566397
0.56591
0.565424
0.56494
0.564457
0.563975
0.563495
0.563017
0.562539
0.562064
0.561589
0.561116
0.560644
0.560174
0.559705
0.559237
0.558771
0.558306
0.557842
0.557379
0.556918
0.556458
0.555999
0.555542
0.555086
0.554631
0.554177
0.553725
0.553274
0.552824
0.552375
0.551928
0.551482
0.551036
0.550592
0.55015
0.549708
0.549268
0.548828
0.54839
0.547953
0.547518
0.547083
0.54665
0.546217
0.545786
0.545356
0.544927
0.544499
0.544072
0.543646
0.54322
0.542795
0.542371
0.541948
0.541525
0.541103
0.540682
0.540261
0.53984
0.53942
0.539001
0.538582
0.538164
0.537746
0.53733
0.536914
0.536499
0.536086
0.535673
0.535262
0.534853
0.534444
0.534038
0.533633
0.53323
0.532829
0.53243
0.532032
0.531637
0.531243
0.530851
0.530461
0.530072
0.529685
0.5293
0.528916
0.528532
0.52815
0.527769
0.527388
0.527009
0.526629
0.526251
0.525873
0.525495
0.525117
0.52474
0.524364
0.523987
0.523612
0.523236
0.522861
0.522487
0.522113
0.52174
0.521367
0.520995
0.520624
0.520253
0.519883
0.519514
0.519146
0.518778
0.518411
0.518045
0.517679
0.517314
0.516951
0.516587
0.516225
0.515863
0.515502
0.515142
0.514783
0.514424
0.514066
0.513709
0.513352
0.512996
0.512641
0.512286
0.511932
0.511579
0.511226
0.510874
0.510522
0.510171
0.509821
0.509472
0.509123
0.508774
0.508426
0.508079
0.507732
0.507386
0.507041
0.506696
0.506352
0.506008
0.505665
0.505322
0.50498
0.504638
0.504297
0.503957
0.503617
0.503277
0.502938
0.5026
0.502262
0.501925
0.501588
0.501252
0.500916
0.500581
0.500246
0.499912
0.499578
0.499245
0.498913
0.498581
0.498249
0.497918
0.497587
0.497257
0.496927
0.496598
0.49627
0.495942
0.495614
0.495287
0.49496
0.494634
0.494308
0.493983
0.493658
0.493334
0.49301
0.492687
0.492364
0.492042
0.49172
0.491398
0.491077
0.490756
0.490435
0.490115
0.489795
0.489475
0.489156
0.488837
0.488518
0.488199
0.48788
0.487562
0.487244
0.486926
0.486608
0.48629
0.485973
0.485656
0.485339
0.485023
0.484707
0.484391
0.484076
0.483761
0.483446
0.483133
0.48282
0.482507
0.482196
0.481885
0.481575
0.481266
0.480957
0.48065
0.480343
0.480038
0.479733
0.479429
0.479126
0.478824
0.478522
0.478222
0.477922
0.477623
0.477324
0.477026
0.476728
0.476431
0.476134
0.475838
0.475542
0.475246
0.47495
0.474654
0.474359
0.474064
0.473769
0.473474
0.473179
0.472884
0.47259
0.472295
0.472001
0.471707
0.471413
0.47112
0.470826
0.470533
0.47024
0.469947
0.469655
0.469362
0.46907
0.468779
0.468487
0.468196
0.467905
0.467615
0.467325
0.467035
0.466745
0.466456
0.466167
0.465879
0.46559
0.465302
0.465014
0.464727
0.46444
0.464153
0.463866
0.46358
0.463294
0.463008
0.462722
0.462437
0.462152
0.461867
0.461583
0.461298
0.461014
0.46073
0.460447
0.460164
0.45988
0.459597
0.459315
0.459032
0.45875
0.458468
0.458186
0.457905
0.457623
0.457342
0.457061
0.45678
0.4565
0.456219
0.455939
0.455659
0.455379
0.4551
0.45482
0.454541
0.454262
0.453983
0.453705
0.453426
0.453148
0.45287
0.452592
0.452315
0.452037
0.45176
0.451483
0.451206
0.450929
0.450652
0.450376
0.4501
0.449824
0.449548
0.449272
0.448997
0.448721
0.448446
0.448171
0.447896
0.447621
0.447347
0.447073
0.446798
0.446524
0.44625
0.445977
0.445703
0.44543
0.445156
0.444883
0.44461
0.444337
0.444064
0.443791
0.443518
0.443245
0.442972
0.4427
0.442427
0.442154
0.441881
0.441609
0.441336
0.441063
0.440791
0.440518
0.440245
0.439973
0.4397
0.439428
0.439155
0.438883
0.438611
0.438338
0.438066
0.437794
0.437523
0.437251
0.43698
0.436709
0.436438
0.436167
0.435897
0.435627
0.435358
0.435088
0.434819
0.434551
0.434283
0.434015
0.433748
0.433481
0.433214
0.432948
0.432682
0.432417
0.432151
0.431887
0.431622
0.431357
0.431093
0.430829
0.430565
0.430302
0.430038
0.429775
0.429511
0.429248
0.428985
0.428721
0.428458
0.428195
0.427931
0.427668
0.427404
0.427141
0.426877
0.426614
0.42635
0.426086
0.425822
0.425559
0.425295
0.425031
0.424767
0.424503
0.424239
0.423975
0.423711
0.423447
0.423183
0.422919
0.422655
0.422391
0.422127
0.421863
0.421599
0.421335
0.421071
0.420807
0.420543
0.420279
0.420015
0.419751
0.419488
0.419224
0.41896
0.418696
0.418432
0.418168
0.417904
0.41764
0.417377
0.417113
0.416849
0.416585
0.416321
0.416057
0.415793
0.415529
0.415264
0.415
0.414736
0.414472
0.414208
0.413943
0.413679
0.413414
0.41315
0.412885
0.412621
0.412356
0.412091
0.411827
0.411562
0.411297
0.411032
0.410766
0.410501
0.410236
0.409971
0.409705
0.40944
0.409174
0.408908
0.408642
0.408376
0.40811
0.407844
0.407578
0.407312
0.407045
0.406779
0.406512
0.406245
0.405978
0.405711
0.405444
0.405177
0.40491
0.404642
0.404375
0.404107
0.403839
0.403571
0.403303
0.403034
0.402766
0.402497
0.402229
0.40196
0.401691
0.401422
0.401152
0.400883
0.400613
0.400343
0.400073
0.399803
0.399532
0.399262
0.398991
0.39872
0.398449
0.398177
0.397905
0.397633
0.397361
0.397088
0.396816
0.396543
0.396269
0.395996
0.395722
0.395448
0.395173
0.394899
0.394624
0.394348
0.394073
0.393797
0.393521
0.393244
0.392968
0.392691
0.392413
0.392136
0.391858
0.39158
0.391302
0.391023
0.390745
0.390466
0.390187
0.389907
0.389628
0.389348
0.389068
0.388788
0.388508
0.388227
0.387947
0.387666
0.387385
0.387104
0.386823
0.386541
0.38626
0.385978
0.385696
0.385414
0.385131
0.384849
0.384566
0.384283
0.383999
0.383716
0.383432
0.383148
0.382863
0.382578
0.382293
0.382007
0.381721
0.381435
0.381148
0.38086
0.380573
0.380284
0.379996
0.379707
0.379417
0.379127
0.378836
0.378544
0.378253
0.37796
0.377667
0.377374
0.37708
0.376785
0.37649
0.376195
0.375898
0.375602
0.375304
0.375006
0.374708
0.374409
0.374109
0.373809
0.373508
0.373207
0.372905
0.372602
0.372299
0.371995
0.371691
0.371386
0.37108
0.370774
0.370467
0.37016
0.369852
0.369544
0.369235
0.368925
0.368615
0.368304
0.367992
0.36768
0.367368
0.367055
0.366741
0.366427
0.366112
0.365797
0.365481
0.365165
0.364849
0.364532
0.364215
0.363898
0.36358
0.363262
0.362945
0.362627
0.36231
0.361993
0.361676
0.36136
0.361045
0.36073
0.360417
0.360105
0.359796
0.359488
0.359182
0.358879
0.35858
0.358284
0.357993
0.357706
0.357425
0.35715
0.356881
0.35662
0.356367
0.356122
0.355887
0.355661
0.355446
0.355242
0.355049
0.354868
0.354699
0.354541
0.354396
0.354263
0.354142
0.354032
0.353933
0.353845
0.353766
0.353697
0.353636
0.353584
0.353538
0.353499
0.353466
0.353438
0.353414
0.353394
0.353378
0.353364
0.353353
0.353343
0.353334
0.353326
0.353318
0.353307
0.353292
0.353266
0.353224
0.35315
0.353018
0.352781
0.35236
0.351608
0.350281
0.347971
0.34405
0.337674
0.327995
0.314747
0.298996
0.283208
0.269981
0.260556
0.254637
0.251224
0.249356
0.248363
0.247844
0.247575
0.247436
0.247364
0.247326
0.247307
0.247297
0.247292
0.247288
0.247287
0.247285
0.247284
0.247283
0.247283
0.247282
0.247281
0.24728
0.24728
0.247279
)
;

boundaryField
{
    inlet
    {
        type            fixedValue;
        value           uniform 0.35;
    }
    outlet
    {
        type            zeroGradient;
    }
    emptyWalls
    {
        type            empty;
    }
}


// ************************************************************************* //
