/*--------------------------------*- C++ -*----------------------------------*\
  =========                 |
  \\      /  F ield         | OpenFOAM: The Open Source CFD Toolbox
   \\    /   O peration     | Website:  https://openfoam.org
    \\  /    A nd           | Version:  9
     \\/     M anipulation  |
\*---------------------------------------------------------------------------*/
FoamFile
{
    format      ascii;
    class       volScalarField;
    location    "8600";
    object      Fb;
}
// * * * * * * * * * * * * * * * * * * * * * * * * * * * * * * * * * * * * * //

dimensions      [0 0 0 0 0 0 0];

internalField   nonuniform List<scalar> 
1000
(
0.805328
0.80496
0.805529
0.80496
0.805636
0.805143
0.805655
0.805392
0.805698
0.805697
0.806408
0.811999
0.826693
0.829964
0.831981
0.833647
0.834923
0.835723
0.836159
0.836319
0.836334
0.836228
0.836139
0.836103
0.836063
0.835975
0.835952
0.835924
0.835873
0.83579
0.835648
0.835409
0.835036
0.834519
0.833928
0.833289
0.832614
0.831916
0.831198
0.830467
0.829724
0.828971
0.82821
0.82744
0.826663
0.825879
0.825088
0.824291
0.823487
0.822677
0.821859
0.821036
0.820206
0.819371
0.81853
0.817684
0.816832
0.815977
0.815117
0.814253
0.813385
0.812513
0.811637
0.810758
0.809875
0.808989
0.808099
0.807205
0.806309
0.805409
0.804506
0.803601
0.802692
0.801781
0.800867
0.79995
0.79903
0.798107
0.797181
0.796252
0.795321
0.794386
0.793449
0.792508
0.791565
0.79062
0.789671
0.78872
0.787767
0.78681
0.785852
0.784892
0.783929
0.782966
0.782
0.781034
0.780065
0.779093
0.778118
0.77714
0.776158
0.775171
0.774181
0.773187
0.77219
0.77119
0.770186
0.769178
0.768166
0.767146
0.766118
0.765079
0.764028
0.762964
0.761885
0.760792
0.759684
0.758562
0.757427
0.756282
0.755128
0.753968
0.752806
0.751644
0.750486
0.749337
0.748201
0.747081
0.745982
0.744906
0.743858
0.742838
0.741848
0.740886
0.739951
0.73904
0.738148
0.73727
0.736402
0.735537
0.73467
0.733795
0.732909
0.732007
0.731087
0.730148
0.729188
0.728207
0.727207
0.726188
0.725152
0.724102
0.723039
0.721965
0.720883
0.719794
0.7187
0.717603
0.716503
0.715402
0.714301
0.713199
0.712097
0.710996
0.709895
0.708794
0.707694
0.706592
0.705491
0.704388
0.703285
0.70218
0.701073
0.699965
0.698855
0.697742
0.696627
0.69551
0.69439
0.693267
0.692142
0.691013
0.689883
0.688748
0.687612
0.686471
0.685329
0.684182
0.683034
0.68188
0.680726
0.679566
0.678405
0.677238
0.67607
0.674896
0.67372
0.67254
0.671356
0.670169
0.668977
0.667782
0.666583
0.66538
0.664172
0.662961
0.661745
0.660526
0.659302
0.658074
0.656841
0.655605
0.654365
0.65312
0.651871
0.650618
0.649362
0.648101
0.646835
0.645566
0.644293
0.643016
0.641734
0.640449
0.639159
0.637865
0.636566
0.635264
0.633957
0.632645
0.631329
0.630009
0.628684
0.627354
0.62602
0.62468
0.623336
0.621987
0.620633
0.619274
0.61791
0.616541
0.615167
0.613787
0.612402
0.611012
0.609616
0.608215
0.606808
0.605396
0.603978
0.602554
0.601124
0.599688
0.598246
0.596798
0.595343
0.593881
0.592413
0.590938
0.589455
0.587966
0.586468
0.584964
0.583451
0.58193
0.5804
0.578862
0.577314
0.575757
0.574189
0.572612
0.571024
0.569425
0.567815
0.566194
0.564561
0.562916
0.56126
0.559591
0.557911
0.556219
0.554515
0.552801
0.551076
0.549341
0.547596
0.545843
0.54408
0.54231
0.540532
0.538748
0.536958
0.535162
0.533362
0.531558
0.52975
0.527938
0.526123
0.524303
0.52248
0.520652
0.51882
0.516982
0.515137
0.513286
0.511425
0.509555
0.507675
0.505783
0.503879
0.501962
0.500031
0.498088
0.496132
0.494163
0.492185
0.490199
0.488208
0.486218
0.484233
0.48226
0.480306
0.478382
0.476499
0.474667
0.4729
0.471209
0.469606
0.468102
0.466706
0.465424
0.464252
0.463181
0.462184
0.461215
0.460188
0.458953
0.45725
0.454625
0.45031
0.443049
0.430933
0.41148
0.382456
0.343929
0.300457
0.260001
0.22885
0.208294
0.196103
0.189331
0.185706
0.183805
0.18282
0.182312
0.182052
0.18192
0.181854
0.181821
0.181805
0.181799
0.181797
0.181798
0.1818
0.181802
0.181805
0.181808
0.181811
0.181814
0.181817
0.18182
0.181823
0.181826
0.181829
0.181832
0.181835
0.181838
0.181841
0.181844
0.181847
0.181849
0.181852
0.181855
0.181857
0.18186
0.181863
0.181865
0.181868
0.18187
0.181872
0.181874
0.181876
0.181878
0.18188
0.181882
0.181884
0.181885
0.181887
0.181888
0.18189
0.181891
0.181892
0.181893
0.181894
0.181894
0.181895
0.181895
0.181895
0.181895
0.181895
0.181895
0.181895
0.181895
0.181894
0.181894
0.181893
0.181892
0.181891
0.18189
0.181889
0.181887
0.181886
0.181884
0.181883
0.181881
0.181879
0.181877
0.181876
0.181874
0.181872
0.181869
0.181867
0.181865
0.181863
0.181861
0.181858
0.181856
0.181853
0.181851
0.181849
0.181846
0.181844
0.181841
0.181838
0.181836
0.181833
0.18183
0.181827
0.181824
0.181821
0.181818
0.181815
0.181812
0.181808
0.181805
0.181801
0.181798
0.181794
0.181789
0.181785
0.18178
0.181776
0.18177
0.181765
0.181759
0.181753
0.181746
0.181739
0.181732
0.181724
0.181716
0.181707
0.181697
0.181688
0.181677
0.181666
0.181654
0.181642
0.18163
0.181616
0.181603
0.181589
0.181575
0.18156
0.181545
0.181531
0.181516
0.181501
0.181486
0.181471
0.181457
0.181444
0.181431
0.181419
0.181407
0.181397
0.181388
0.18138
0.181374
0.181368
0.181365
0.181363
0.181362
0.181363
0.181363
0.181365
0.181371
0.181378
0.181387
0.181397
0.181409
0.181421
0.181435
0.181449
0.181464
0.181479
0.181495
0.181511
0.181526
0.181542
0.181557
0.181572
0.181586
0.1816
0.181613
0.181625
0.181636
0.181647
0.181656
0.181665
0.181673
0.18168
0.181686
0.181692
0.181697
0.181701
0.181705
0.181708
0.18171
0.181713
0.181715
0.181716
0.181718
0.181719
0.18172
0.181722
0.181723
0.181724
0.181725
0.181726
0.181728
0.181729
0.181731
0.181733
0.181735
0.181737
0.181739
0.181741
0.181743
0.181746
0.181749
0.181752
0.181754
0.181757
0.18176
0.181764
0.181767
0.18177
0.181773
0.181776
0.18178
0.181783
0.181786
0.181789
0.181793
0.181796
0.181799
0.181803
0.181806
0.181809
0.181812
0.181815
0.181818
0.181822
0.181825
0.181828
0.181831
0.181834
0.181838
0.181841
0.181844
0.181847
0.18185
0.181853
0.181856
0.181859
0.181862
0.181865
0.181868
0.18187
0.181873
0.181875
0.181877
0.181879
0.181881
0.181883
0.181885
0.181886
0.181887
0.181888
0.181889
0.18189
0.181891
0.181891
0.181891
0.181892
0.181892
0.181891
0.181891
0.181891
0.181891
0.18189
0.181889
0.181888
0.181887
0.181886
0.181884
0.181883
0.181881
0.181879
0.181878
0.181876
0.181874
0.181872
0.18187
0.181868
0.181865
0.181863
0.181861
0.181858
0.181856
0.181853
0.181851
0.181848
0.181846
0.181843
0.18184
0.181837
0.181835
0.181832
0.181829
0.181826
0.181823
0.18182
0.181817
0.181814
0.181811
0.181807
0.181804
0.181801
0.181797
0.181793
0.181789
0.181786
0.181781
0.181777
0.181773
0.181768
0.181763
0.181758
0.181753
0.181748
0.181742
0.181736
0.181729
0.181722
0.181715
0.181708
0.1817
0.181692
0.181683
0.181674
0.181665
0.181655
0.181645
0.181634
0.181623
0.181612
0.181601
0.181589
0.181577
0.181565
0.181553
0.18154
0.181528
0.181516
0.181504
0.181492
0.18148
0.181469
0.181458
0.181448
0.181438
0.181429
0.181421
0.181414
0.181407
0.181402
0.181397
0.181394
0.181392
0.181391
0.181391
0.181391
0.181392
0.181395
0.1814
0.181406
0.181413
0.181422
0.181431
0.181441
0.181452
0.181463
0.181475
0.181488
0.181501
0.181514
0.181527
0.18154
0.181552
0.181565
0.181577
0.181589
0.181601
0.181611
0.181622
0.181631
0.18164
0.181649
0.181657
0.181664
0.18167
0.181676
0.181682
0.181686
0.181691
0.181695
0.181698
0.181701
0.181704
0.181706
0.181708
0.18171
0.181712
0.181714
0.181715
0.181717
0.181718
0.18172
0.181721
0.181723
0.181724
0.181726
0.181728
0.181729
0.181731
0.181733
0.181736
0.181738
0.18174
0.181743
0.181746
0.181748
0.181751
0.181754
0.181757
0.18176
0.181763
0.181766
0.181769
0.181772
0.181776
0.181779
0.181782
0.181785
0.181789
0.181792
0.181795
0.181798
0.181802
0.181805
0.181808
0.181811
0.181814
0.181817
0.181819
0.181822
0.181825
0.181827
0.18183
0.181832
0.181835
0.181837
0.181839
0.181841
0.181844
0.181846
0.181847
0.181849
0.181851
0.181853
0.181854
0.181856
0.181857
0.181858
0.181859
0.181861
0.181862
0.181862
0.181863
0.181864
0.181865
0.181865
0.181866
0.181866
0.181866
0.181866
0.181867
0.181866
0.181866
0.181866
0.181866
0.181866
0.181865
0.181865
0.181864
0.181863
0.181862
0.181861
0.18186
0.181859
0.181858
0.181856
0.181855
0.181853
0.181852
0.18185
0.181848
0.181846
0.181844
0.181842
0.18184
0.181838
0.181836
0.181833
0.181831
0.181828
0.181826
0.181823
0.181821
0.181818
0.181815
0.181813
0.18181
0.181807
0.181804
0.1818
0.181797
0.181794
0.181791
0.181787
0.181783
0.181779
0.181775
0.181771
0.181767
0.181763
0.181758
0.181753
0.181748
0.181743
0.181737
0.181731
0.181725
0.181719
0.181712
0.181705
0.181698
0.18169
0.181682
0.181674
0.181666
0.181657
0.181648
0.181639
0.181629
0.18162
0.18161
0.1816
0.18159
0.181579
0.181569
0.181559
0.181549
0.181539
0.181529
0.181519
0.181509
0.1815
0.181491
0.181483
0.181475
0.181468
0.181461
0.181455
0.18145
0.181445
0.181441
0.181439
0.181437
0.181436
0.181436
0.181436
0.181436
0.181437
0.181441
0.181446
0.181451
0.181457
0.181464
0.181472
0.18148
0.181489
0.181499
0.181508
0.181519
0.181529
0.18154
0.18155
0.181561
0.181572
0.181582
0.181592
0.181602
0.181612
0.181621
0.18163
0.181639
0.181647
0.181654
0.181661
0.181668
0.181674
0.181679
0.181685
0.181689
0.181693
0.181697
0.181701
0.181703
0.181707
0.181709
0.181712
0.181713
0.181716
0.181717
0.181719
0.18172
0.181722
0.181723
0.181725
0.181726
0.181728
0.181729
0.181731
0.181732
0.181735
0.181735
0.181738
0.181739
0.181742
0.181744
0.181747
0.181749
0.181752
0.181754
0.181757
0.18176
0.181763
0.181766
0.181769
0.181772
0.181775
0.181778
0.181782
0.181785
0.181788
0.181792
)
;

boundaryField
{
    inlet
    {
        type            calculated;
        value           uniform 0.805169;
    }
    outlet
    {
        type            calculated;
        value           uniform 0.181793;
    }
    emptyWalls
    {
        type            empty;
    }
}


// ************************************************************************* //
