/*--------------------------------*- C++ -*----------------------------------*\
  =========                 |
  \\      /  F ield         | OpenFOAM: The Open Source CFD Toolbox
   \\    /   O peration     | Website:  https://openfoam.org
    \\  /    A nd           | Version:  9
     \\/     M anipulation  |
\*---------------------------------------------------------------------------*/
FoamFile
{
    format      ascii;
    class       volScalarField;
    location    "26200";
    object      kra;
}
// * * * * * * * * * * * * * * * * * * * * * * * * * * * * * * * * * * * * * //

dimensions      [0 0 0 0 0 0 0];

internalField   nonuniform List<scalar> 
1000
(
0.000236634
0.000237391
0.000238395
0.000239417
0.000240422
0.000241463
0.000242464
0.000243534
0.000244537
0.000245641
0.000246658
0.000247782
0.000248833
0.000249952
0.000251042
0.000252152
0.000253258
0.000254359
0.000255449
0.000256522
0.000257563
0.00025857
0.000259531
0.000260434
0.000261288
0.00026205
0.000262787
0.000263385
0.000264004
0.000264456
0.000264953
0.00026532
0.000265761
0.000266379
0.00026819
0.000274769
0.000305766
0.000524751
0.000818275
0.000878176
0.000895384
0.000903295
0.000908058
0.000911432
0.000914081
0.000916308
0.000918213
0.000919812
0.000921115
0.0009222
0.000923199
0.000924228
0.000925312
0.000926358
0.000927209
0.000927742
0.000927945
0.00092798
0.000928066
0.000928501
0.000929519
0.000931182
0.000933425
0.000936045
0.000938756
0.000941261
0.000943315
0.000944775
0.000945627
0.000945983
0.000946048
0.000946028
0.000945854
0.000944624
0.000942275
0.00093982
0.000937173
0.000934654
0.000932423
0.000930335
0.000928605
0.000927187
0.00092604
0.000925124
0.000924388
0.000923794
0.00092329
0.000922838
0.000922387
0.000921908
0.000921362
0.000920739
0.00092002
0.000919207
0.000918287
0.000917266
0.000916126
0.000914867
0.000913461
0.000911896
0.000910142
0.000908192
0.000906038
0.000903709
0.000901239
0.000898676
0.000896054
0.000893397
0.000890719
0.000888033
0.000885346
0.000882665
0.000879994
0.000877337
0.000874695
0.000872072
0.000869469
0.000866888
0.000864329
0.000861794
0.000859282
0.000856794
0.000854329
0.000851888
0.000849468
0.000847071
0.000844695
0.00084234
0.000840006
0.000837696
0.000835408
0.000833146
0.00083091
0.000828699
0.000826515
0.000824356
0.000822221
0.000820106
0.000818009
0.000815928
0.000813862
0.000811808
0.000809767
0.000807738
0.000805724
0.000803729
0.000801755
0.000799805
0.000797882
0.000795984
0.000794111
0.000792259
0.000790423
0.000788599
0.000786784
0.000784973
0.000783164
0.000781351
0.000779535
0.000777717
0.000775902
0.000774101
0.000772331
0.000770612
0.000768963
0.000767403
0.000765946
0.000764603
0.000763374
0.000762255
0.000761239
0.000760311
0.000759457
0.000758661
0.000757905
0.000757171
0.000756439
0.000755689
0.000754898
0.000754044
0.000753104
0.000752053
0.000750873
0.000749547
0.000748066
0.000746423
0.000744622
0.000742673
0.000740593
0.000738403
0.000736129
0.000733799
0.000731444
0.000729088
0.000726759
0.000724477
0.000722261
0.000720122
0.000718069
0.000716104
0.000714229
0.000712438
0.000710728
0.00070909
0.000707514
0.000705992
0.000704514
0.000703071
0.000701655
0.000700258
0.000698873
0.000697497
0.000696124
0.000694752
0.000693379
0.000692003
0.000690624
0.000689242
0.000687857
0.000686471
0.000685083
0.000683696
0.00068231
0.000680926
0.000679546
0.00067817
0.000676799
0.000675434
0.000674076
0.000672725
0.000671382
0.000670047
0.00066872
0.000667402
0.000666092
0.000664792
0.0006635
0.000662219
0.000660946
0.000659683
0.00065843
0.000657186
0.000655951
0.000654725
0.000653509
0.000652302
0.000651103
0.000649914
0.000648733
0.000647562
0.000646399
0.000645245
0.000644101
0.000642966
0.00064184
0.000640724
0.000639617
0.000638519
0.00063743
0.000636349
0.000635277
0.000634212
0.000633155
0.000632105
0.000631062
0.000630025
0.000628994
0.00062797
0.000626952
0.000625941
0.000624938
0.000623941
0.000622953
0.000621972
0.000620999
0.000620034
0.000619075
0.000618123
0.000617176
0.000616234
0.000615294
0.000614357
0.000613422
0.000612488
0.000611557
0.00061063
0.000609708
0.000608794
0.000607893
0.000607007
0.000606142
0.0006053
0.000604488
0.000603708
0.000602965
0.000602261
0.000601597
0.000600976
0.000600396
0.000599858
0.000599358
0.000598895
0.000598463
0.000598057
0.000597671
0.000597299
0.000596933
0.000596564
0.000596184
0.000595783
0.000595354
0.000594886
0.000594372
0.000593805
0.000593178
0.000592486
0.000591725
0.000590895
0.000589995
0.000589027
0.000587995
0.000586905
0.000585763
0.000584579
0.00058336
0.000582116
0.000580857
0.000579592
0.000578331
0.000577079
0.000575846
0.000574636
0.000573454
0.000572302
0.000571184
0.000570101
0.000569051
0.000568034
0.000567049
0.000566093
0.000565165
0.00056426
0.000563376
0.000562511
0.000561661
0.000560824
0.000559997
0.000559178
0.000558365
0.000557556
0.00055675
0.000555945
0.000555142
0.000554339
0.000553535
0.000552731
0.000551926
0.000551121
0.000550315
0.00054951
0.000548704
0.000547899
0.000547094
0.000546291
0.000545489
0.00054469
0.000543892
0.000543097
0.000542305
0.000541516
0.00054073
0.000539948
0.000539169
0.000538395
0.000537625
0.000536858
0.000536097
0.000535339
0.000534586
0.000533838
0.000533094
0.000532354
0.00053162
0.00053089
0.000530164
0.000529444
0.000528728
0.000528016
0.00052731
0.000526608
0.000525912
0.00052522
0.000524533
0.000523851
0.000523173
0.0005225
0.000521833
0.000521169
0.00052051
0.000519855
0.000519205
0.000518558
0.000517916
0.000517278
0.000516643
0.000516013
0.000515386
0.000514763
0.000514144
0.000513529
0.000512917
0.000512309
0.000511705
0.000511104
0.000510507
0.000509913
0.000509323
0.000508735
0.00050815
0.000507567
0.000506986
0.000506408
0.000505833
0.000505259
0.000504689
0.000504122
0.000503559
0.000503001
0.000502449
0.000501904
0.000501367
0.000500841
0.000500326
0.000499824
0.000499336
0.000498865
0.00049841
0.000497974
0.000497558
0.000497161
0.000496785
0.000496428
0.000496092
0.000495774
0.000495475
0.000495192
0.000494923
0.000494666
0.000494418
0.000494177
0.000493939
0.000493701
0.000493459
0.000493209
0.000492947
0.00049267
0.000492373
0.000492054
0.000491709
0.000491335
0.000490929
0.00049049
0.000490016
0.000489506
0.00048896
0.000488379
0.000487763
0.000487115
0.000486436
0.00048573
0.000485
0.00048425
0.000483482
0.000482702
0.000481914
0.00048112
0.000480326
0.000479534
0.000478747
0.000477969
0.000477202
0.000476447
0.000475706
0.00047498
0.00047427
0.000473576
0.000472898
0.000472235
0.000471587
0.000470954
0.000470334
0.000469726
0.000469129
0.000468543
0.000467964
0.000467394
0.00046683
0.000466272
0.000465719
0.000465169
0.000464622
0.000464078
0.000463535
0.000462994
0.000462454
0.000461915
0.000461376
0.000460837
0.000460298
0.00045976
0.000459222
0.000458685
0.000458147
0.000457611
0.000457074
0.000456539
0.000456004
0.000455471
0.000454939
0.000454408
0.000453879
0.000453351
0.000452826
0.000452302
0.00045178
0.000451261
0.000450743
0.000450229
0.000449716
0.000449206
0.000448699
0.000448194
0.000447692
0.000447193
0.000446697
0.000446203
0.000445712
0.000445224
0.000444739
0.000444257
0.000443778
0.000443302
0.000442828
0.000442358
0.00044189
0.000441426
0.000440964
0.000440505
0.000440049
0.000439596
0.000439145
0.000438698
0.000438252
0.00043781
0.000437369
0.000436933
0.000436496
0.000436066
0.000435634
0.000435209
0.00043478
0.000434361
0.000433936
0.000433522
0.0004331
0.000432691
0.000432273
0.000431869
0.000431453
0.000431054
0.000430641
0.000430246
0.000429835
0.000429446
0.000429037
0.000428652
0.000428247
0.000427868
0.000427466
0.000427093
0.000426698
0.000426333
0.000425944
0.000425589
0.000425211
0.000424867
0.000424502
0.000424172
0.000423823
0.000423509
0.000423179
0.000422883
0.000422574
0.000422299
0.000422011
0.000421757
0.000421493
0.000421258
0.000421017
0.000420802
0.000420581
0.000420382
0.000420179
0.000419993
0.000419803
0.000419625
0.000419442
0.000419265
0.000419083
0.000418902
0.000418713
0.000418521
0.000418318
0.000418106
0.000417881
0.000417644
0.000417391
0.000417122
0.000416835
0.000416529
0.000416204
0.000415859
0.000415493
0.000415107
0.0004147
0.000414275
0.00041383
0.000413368
0.000412889
0.000412395
0.000411887
0.000411369
0.000410839
0.000410303
0.000409759
0.000409212
0.000408663
0.000408113
0.000407563
0.000407017
0.000406474
0.000405937
0.000405405
0.000404881
0.000404363
0.000403854
0.000403353
0.000402861
0.000402377
0.000401901
0.000401433
0.000400973
0.000400521
0.000400075
0.000399636
0.000399203
0.000398775
0.000398353
0.000397934
0.00039752
0.000397108
0.000396701
0.000396295
0.000395892
0.00039549
0.000395091
0.000394691
0.000394294
0.000393896
0.000393501
0.000393104
0.000392711
0.000392315
0.000391922
0.000391526
0.000391135
0.00039074
0.000390349
0.000389955
0.000389566
0.000389172
0.000388785
0.000388392
0.000388007
0.000387616
0.000387233
0.000386844
0.000386463
0.000386077
0.000385698
0.000385314
0.000384939
0.000384558
0.000384186
0.000383808
0.000383439
0.000383064
0.000382698
0.000382327
0.000381965
0.000381598
0.000381239
0.000380875
0.000380521
0.00038016
0.000379809
0.000379453
0.000379106
0.000378753
0.00037841
0.000378061
0.000377721
0.000377377
0.00037704
0.000376699
0.000376367
0.000376029
0.0003757
0.000375366
0.00037504
0.000374709
0.000374387
0.000374059
0.000373741
0.000373416
0.0003731
0.000372778
0.000372466
0.000372146
0.000371838
0.000371519
0.000371215
0.000370898
0.000370597
0.000370282
0.000369985
0.000369671
0.000369378
0.000369066
0.000368776
0.000368467
0.000368182
0.000367875
0.000367595
0.000367291
0.000367016
0.000366717
0.000366449
0.000366154
0.000365895
0.000365606
0.000365356
0.000365075
0.000364834
0.000364563
0.000364334
0.000364072
0.000363855
0.000363605
0.000363402
0.000363163
0.000362973
0.000362747
0.00036257
0.000362356
0.000362193
0.00036199
0.000361838
0.000361645
0.000361504
0.000361318
0.000361185
0.000361006
0.000360878
0.000360701
0.000360576
0.000360397
0.000360271
0.000360088
0.000359957
0.000359765
0.000359626
0.000359421
0.000359269
0.000359048
0.000358881
0.000358639
0.000358454
0.000358189
0.000357984
0.000357693
0.000357467
0.000357149
0.0003569
0.000356554
0.000356284
0.000355911
0.000355621
0.000355222
0.000354914
0.000354493
0.000354168
0.000353728
0.000353392
0.000352937
0.000352591
0.000352125
0.000351774
0.000351302
0.000350948
0.000350476
0.00035012
0.000349652
0.000349298
0.000348836
0.000348485
0.000348034
0.000347687
0.000347248
0.000346905
0.000346479
0.000346141
0.00034573
0.000345396
0.000344998
0.000344668
0.000344284
0.000343958
0.000343586
0.000343263
0.000342901
0.000342582
0.000342229
0.000341911
0.000341566
0.00034125
0.000340911
0.000340597
0.000340261
0.000339949
0.000339617
0.000339306
0.000338976
0.000338666
0.000338337
0.000338029
0.000337701
0.000337394
0.000337065
0.000336761
0.000336432
0.000336129
0.000335799
0.000335499
0.000335168
0.000334871
0.000334539
0.000334244
0.000333911
0.00033362
0.000333286
0.000332999
0.000332663
0.000332382
0.000332043
0.000331767
0.000331426
0.000331157
0.000330813
0.000330551
0.000330203
0.000329949
0.000329598
0.000329352
0.000328997
0.000328759
0.000328401
0.000328171
0.000327809
0.000327588
0.000327223
0.00032701
0.000326642
0.000326436
0.000326066
0.000325867
0.000325496
0.000325302
0.000324931
0.000324742
0.000324371
0.000324186
0.000323817
0.000323634
0.000323267
0.000323086
0.000322722
0.000322543
0.000322181
0.000322004
0.000321644
0.000321469
0.000321111
0.000320938
0.000320582
0.000320411
0.000320056
0.000319888
0.000319534
0.000319368
0.000319016
0.000318851
0.000318501
0.000318339
0.000317991
0.000317831
0.000317484
0.000317327
0.000316983
0.000316829
0.000316487
0.000316336
0.000315997
0.000315851
0.000315515
0.000315374
0.000315041
0.000314905
0.000314578
0.000314447
0.000314126
0.000314001
0.000313686
0.000313567
0.00031326
0.000313147
0.000312848
0.000312741
0.000312451
0.000312351
0.000312068
0.000311976
0.0003117
0.000311616
0.000311346
0.000311269
0.000311006
0.000310934
0.000310677
0.000310609
0.000310356
0.000310292
0.000310041
0.000309978
0.000309727
0.000309664
0.000309412
0.000309349
0.000309093
0.000309028
0.000308765
0.000308698
0.000308424
0.000308353
0.000308065
0.000307991
0.000307685
0.000307606
0.000307281
0.000307197
0.000306849
0.000306759
0.000306388
0.000306292
0.000305895
0.000305793
0.000305373
0.000305265
0.00030482
0.000304706
0.00030424
0.000304121
0.000303635
0.000303512
0.00030301
0.000302884
0.000302371
0.000302242
0.000301721
0.000301586
0.000301059
0.000300924
0.000300403
0.000300268
0.000299754
0.000299624
0.00029912
0.000298997
0.000298245
0.046259
)
;

boundaryField
{
    inlet
    {
        type            calculated;
        value           uniform 0.000236304;
    }
    outlet
    {
        type            calculated;
        value           uniform 2.31918e-05;
    }
    emptyWalls
    {
        type            empty;
    }
}


// ************************************************************************* //
