/*--------------------------------*- C++ -*----------------------------------*\
  =========                 |
  \\      /  F ield         | OpenFOAM: The Open Source CFD Toolbox
   \\    /   O peration     | Website:  https://openfoam.org
    \\  /    A nd           | Version:  9
     \\/     M anipulation  |
\*---------------------------------------------------------------------------*/
FoamFile
{
    format      ascii;
    class       volScalarField;
    location    "26200";
    object      Sb;
}
// * * * * * * * * * * * * * * * * * * * * * * * * * * * * * * * * * * * * * //

dimensions      [0 0 0 0 0 0 0];

internalField   nonuniform List<scalar> 
1000
(
0.350198
0.350604
0.351138
0.351667
0.352222
0.352743
0.353323
0.353841
0.35445
0.354966
0.355595
0.356127
0.356755
0.357323
0.357934
0.358531
0.35913
0.359728
0.360321
0.360902
0.361474
0.362025
0.362552
0.363055
0.363511
0.363955
0.364317
0.364707
0.36497
0.3653
0.365497
0.365756
0.365956
0.366322
0.367306
0.370954
0.388364
0.505924
0.632683
0.657047
0.664484
0.66807
0.670304
0.671922
0.673199
0.674261
0.675171
0.675972
0.676685
0.677326
0.677903
0.678423
0.678891
0.679316
0.679705
0.680065
0.680398
0.680703
0.68098
0.681224
0.681433
0.68161
0.681756
0.681878
0.681982
0.682074
0.682159
0.68224
0.682317
0.682389
0.682453
0.682506
0.682549
0.682596
0.682649
0.682692
0.682725
0.682744
0.682748
0.682737
0.682708
0.682664
0.682604
0.682529
0.682439
0.682335
0.682217
0.682086
0.681941
0.681782
0.681609
0.681421
0.681216
0.680993
0.680748
0.680478
0.680178
0.67984
0.679455
0.679015
0.678507
0.677925
0.677265
0.676536
0.675754
0.674937
0.674097
0.673241
0.672374
0.6715
0.670622
0.669742
0.668862
0.667982
0.667103
0.666227
0.665354
0.664483
0.663616
0.662753
0.661893
0.661038
0.660186
0.659339
0.658496
0.657657
0.656822
0.655992
0.655166
0.654345
0.653528
0.652715
0.651906
0.651101
0.650301
0.649505
0.648713
0.647925
0.647141
0.646362
0.645586
0.644815
0.644048
0.643285
0.642526
0.64177
0.641019
0.640271
0.639527
0.638787
0.63805
0.637317
0.636588
0.635862
0.63514
0.634422
0.633707
0.632996
0.632289
0.631585
0.630885
0.630189
0.629495
0.628804
0.628116
0.62743
0.626746
0.626063
0.625382
0.624704
0.624026
0.623351
0.622678
0.622008
0.621339
0.620674
0.620012
0.619353
0.618697
0.618046
0.617399
0.616756
0.616118
0.615484
0.614856
0.614233
0.613615
0.613002
0.612393
0.611789
0.611189
0.610592
0.609998
0.609407
0.608818
0.608231
0.607645
0.607061
0.606479
0.605897
0.605317
0.604738
0.604161
0.603585
0.60301
0.602437
0.601865
0.601296
0.600728
0.600162
0.599599
0.599037
0.598478
0.597921
0.597366
0.596814
0.596263
0.595715
0.595169
0.594625
0.594084
0.593544
0.593006
0.592471
0.591937
0.591405
0.590875
0.590348
0.589821
0.589297
0.588775
0.588254
0.587736
0.587219
0.586703
0.58619
0.585678
0.585168
0.584659
0.584152
0.583647
0.583144
0.582642
0.582141
0.581643
0.581146
0.58065
0.580156
0.579664
0.579173
0.578684
0.578196
0.577709
0.577225
0.576741
0.576259
0.575779
0.5753
0.574822
0.574346
0.573871
0.573398
0.572926
0.572456
0.571987
0.571519
0.571053
0.570588
0.570124
0.569662
0.569201
0.568741
0.568283
0.567826
0.56737
0.566916
0.566463
0.566011
0.56556
0.565111
0.564663
0.564216
0.563771
0.563326
0.562884
0.562442
0.562001
0.561562
0.561124
0.560687
0.560251
0.559815
0.559381
0.558947
0.558514
0.558081
0.557649
0.557218
0.556787
0.556357
0.555927
0.555498
0.55507
0.554642
0.554216
0.55379
0.553365
0.552942
0.552519
0.552098
0.551679
0.551261
0.550845
0.550431
0.550019
0.549609
0.549202
0.548796
0.548392
0.547991
0.547591
0.547193
0.546798
0.546404
0.546011
0.54562
0.54523
0.544841
0.544453
0.544066
0.543679
0.543294
0.542908
0.542524
0.542139
0.541755
0.541372
0.540989
0.540606
0.540224
0.539843
0.539462
0.539081
0.538701
0.538322
0.537944
0.537566
0.537189
0.536813
0.536437
0.536063
0.535689
0.535316
0.534944
0.534573
0.534203
0.533833
0.533464
0.533097
0.53273
0.532363
0.531998
0.531634
0.53127
0.530907
0.530545
0.530183
0.529822
0.529462
0.529103
0.528745
0.528387
0.52803
0.527673
0.527318
0.526963
0.526608
0.526255
0.525902
0.525549
0.525198
0.524847
0.524496
0.524147
0.523797
0.523449
0.523101
0.522754
0.522408
0.522062
0.521716
0.521372
0.521028
0.520684
0.520341
0.519999
0.519658
0.519316
0.518976
0.518636
0.518297
0.517958
0.51762
0.517283
0.516946
0.516609
0.516274
0.515938
0.515604
0.51527
0.514936
0.514603
0.514271
0.513939
0.513608
0.513277
0.512947
0.512617
0.512288
0.51196
0.511632
0.511305
0.510978
0.510651
0.510326
0.51
0.509676
0.509352
0.509028
0.508704
0.508382
0.508059
0.507737
0.507415
0.507094
0.506773
0.506452
0.506131
0.505811
0.505491
0.505171
0.504851
0.504532
0.504212
0.503893
0.503574
0.503256
0.502938
0.50262
0.502303
0.501986
0.501669
0.501353
0.501038
0.500724
0.50041
0.500097
0.499785
0.499473
0.499163
0.498854
0.498545
0.498238
0.497932
0.497627
0.497322
0.497019
0.496717
0.496416
0.496115
0.495816
0.495517
0.495219
0.494921
0.494625
0.494328
0.494033
0.493737
0.493442
0.493147
0.492853
0.492558
0.492264
0.49197
0.491677
0.491383
0.49109
0.490797
0.490504
0.490211
0.489918
0.489626
0.489334
0.489042
0.48875
0.488459
0.488168
0.487877
0.487586
0.487296
0.487006
0.486717
0.486428
0.486139
0.485851
0.485563
0.485275
0.484988
0.484701
0.484415
0.484129
0.483843
0.483557
0.483272
0.482988
0.482703
0.482419
0.482136
0.481852
0.481569
0.481287
0.481005
0.480723
0.480441
0.48016
0.479878
0.479598
0.479317
0.479037
0.478757
0.478478
0.478198
0.477919
0.477641
0.477362
0.477084
0.476806
0.476529
0.476251
0.475974
0.475698
0.475421
0.475145
0.474869
0.474593
0.474318
0.474043
0.473768
0.473493
0.473219
0.472945
0.472671
0.472397
0.472124
0.471851
0.471578
0.471305
0.471033
0.470761
0.470489
0.470218
0.469946
0.469675
0.469404
0.469134
0.468863
0.468593
0.468323
0.468054
0.467784
0.467515
0.467246
0.466977
0.466709
0.466441
0.466173
0.465905
0.465637
0.46537
0.465103
0.464836
0.464569
0.464303
0.464036
0.46377
0.463504
0.463238
0.462972
0.462707
0.462441
0.462176
0.46191
0.461645
0.46138
0.461115
0.46085
0.460585
0.460319
0.460055
0.45979
0.459525
0.45926
0.458996
0.458731
0.458467
0.458203
0.457939
0.457675
0.457411
0.457148
0.456885
0.456622
0.45636
0.456098
0.455836
0.455575
0.455315
0.455054
0.454795
0.454535
0.454277
0.454018
0.453761
0.453503
0.453247
0.452991
0.452735
0.45248
0.452225
0.451971
0.451717
0.451463
0.45121
0.450957
0.450704
0.450452
0.4502
0.449947
0.449696
0.449444
0.449192
0.448941
0.448689
0.448438
0.448186
0.447935
0.447684
0.447432
0.447181
0.44693
0.446679
0.446428
0.446177
0.445925
0.445674
0.445423
0.445173
0.444922
0.444671
0.44442
0.44417
0.443919
0.443669
0.443419
0.443168
0.442918
0.442668
0.442419
0.442169
0.441919
0.44167
0.44142
0.441171
0.440922
0.440673
0.440424
0.440176
0.439927
0.439678
0.43943
0.439182
0.438934
0.438686
0.438438
0.43819
0.437942
0.437694
0.437447
0.437199
0.436952
0.436704
0.436457
0.43621
0.435963
0.435716
0.435469
0.435222
0.434975
0.434729
0.434482
0.434235
0.433989
0.433742
0.433496
0.43325
0.433003
0.432757
0.432511
0.432265
0.432019
0.431773
0.431527
0.431281
0.431035
0.430789
0.430543
0.430297
0.430052
0.429806
0.42956
0.429315
0.429069
0.428824
0.428578
0.428333
0.428087
0.427842
0.427597
0.427352
0.427106
0.426861
0.426616
0.426371
0.426126
0.425881
0.425635
0.42539
0.425145
0.4249
0.424655
0.42441
0.424165
0.423921
0.423675
0.423431
0.423186
0.422941
0.422696
0.422451
0.422206
0.421961
0.421715
0.421471
0.421225
0.42098
0.420735
0.420489
0.420244
0.419998
0.419753
0.419507
0.419261
0.419015
0.418769
0.418523
0.418277
0.418031
0.417784
0.417538
0.417292
0.417045
0.416798
0.416552
0.416305
0.416059
0.415812
0.415565
0.415318
0.415072
0.414825
0.414579
0.414332
0.414086
0.413839
0.413594
0.413347
0.413101
0.412855
0.41261
0.412364
0.412119
0.411873
0.411628
0.411383
0.411139
0.410893
0.410649
0.410404
0.410161
0.409916
0.409672
0.409427
0.409184
0.408939
0.408696
0.408452
0.408209
0.407964
0.407721
0.407476
0.407233
0.406988
0.406744
0.406499
0.406255
0.40601
0.405766
0.40552
0.405276
0.40503
0.404785
0.404539
0.404294
0.404047
0.403802
0.403555
0.403309
0.403062
0.402816
0.402569
0.402322
0.402074
0.401827
0.40158
0.401332
0.401084
0.400836
0.400588
0.40034
0.400091
0.399843
0.399594
0.399345
0.399096
0.398847
0.398597
0.398348
0.398098
0.397848
0.397598
0.397348
0.397098
0.396848
0.396597
0.396346
0.396095
0.395844
0.395592
0.395341
0.395089
0.394837
0.394585
0.394333
0.39408
0.393828
0.393575
0.393322
0.393068
0.392815
0.392561
0.392307
0.392052
0.391798
0.391543
0.391289
0.391033
0.390778
0.390521
0.390267
0.390009
0.389754
0.389496
0.38924
0.388982
0.388725
0.388466
0.388209
0.38795
0.387692
0.387432
0.387174
0.386913
0.386655
0.386394
0.386134
0.385872
0.385613
0.38535
0.38509
0.384826
0.384565
0.384301
0.38404
0.383775
0.383513
0.383247
0.382984
0.382718
0.382455
0.382188
0.381923
0.381656
0.381391
0.381122
0.380857
0.380588
0.380321
0.380051
0.379784
0.379513
0.379245
0.378973
0.378704
0.378432
0.378162
0.377889
0.377618
0.377344
0.377072
0.376797
0.376524
0.376248
0.375975
0.375697
0.375424
0.375143
0.374871
0.374588
0.374316
0.374031
0.373758
0.373472
0.373198
0.372911
0.372635
0.372348
0.372071
0.371783
0.371505
0.371215
0.370936
0.370645
0.370366
0.370074
0.369793
0.3695
0.369218
0.368924
0.368641
0.368346
0.368062
0.367767
0.367482
0.367186
0.3669
0.366603
0.366316
0.366017
0.365732
0.36543
0.365148
0.364841
0.364563
0.36425
0.363978
0.363658
0.363393
0.363065
0.362808
0.362472
0.362225
0.36188
0.361642
0.36129
0.361062
0.360701
0.360485
0.360116
0.359912
0.359538
0.359345
0.358967
0.358787
0.358406
0.358239
0.357858
0.357704
0.357327
0.357189
0.298255
)
;

boundaryField
{
    inlet
    {
        type            fixedValue;
        value           uniform 0.35;
    }
    outlet
    {
        type            zeroGradient;
    }
    emptyWalls
    {
        type            empty;
    }
}


// ************************************************************************* //
