/*--------------------------------*- C++ -*----------------------------------*\
  =========                 |
  \\      /  F ield         | OpenFOAM: The Open Source CFD Toolbox
   \\    /   O peration     | Website:  https://openfoam.org
    \\  /    A nd           | Version:  9
     \\/     M anipulation  |
\*---------------------------------------------------------------------------*/
FoamFile
{
    format      ascii;
    class       volVectorField;
    location    "6600";
    object      Ub;
}
// * * * * * * * * * * * * * * * * * * * * * * * * * * * * * * * * * * * * * //

dimensions      [0 0 0 0 0 0 0];

internalField   nonuniform List<vector> 
1000
(
(1.13615e-05 0 0)
(1.13619e-05 0 0)
(1.13629e-05 0 0)
(1.13641e-05 0 0)
(1.13656e-05 0 0)
(1.13673e-05 0 0)
(1.1371e-05 0 0)
(1.13828e-05 0 0)
(1.14505e-05 0 0)
(1.16195e-05 0 0)
(1.17458e-05 0 0)
(1.17658e-05 0 0)
(1.17705e-05 0 0)
(1.17693e-05 0 0)
(1.17645e-05 0 0)
(1.17593e-05 0 0)
(1.17565e-05 0 0)
(1.17557e-05 0 0)
(1.17555e-05 0 0)
(1.1756e-05 0 0)
(1.17582e-05 0 0)
(1.17615e-05 0 0)
(1.17651e-05 0 0)
(1.17676e-05 0 0)
(1.17676e-05 0 0)
(1.17645e-05 0 0)
(1.17588e-05 0 0)
(1.1751e-05 0 0)
(1.17413e-05 0 0)
(1.17298e-05 0 0)
(1.17169e-05 0 0)
(1.17028e-05 0 0)
(1.16877e-05 0 0)
(1.1672e-05 0 0)
(1.16559e-05 0 0)
(1.16395e-05 0 0)
(1.16231e-05 0 0)
(1.16068e-05 0 0)
(1.15905e-05 0 0)
(1.15745e-05 0 0)
(1.15586e-05 0 0)
(1.15428e-05 0 0)
(1.15272e-05 0 0)
(1.15116e-05 0 0)
(1.1496e-05 0 0)
(1.14805e-05 0 0)
(1.14649e-05 0 0)
(1.14493e-05 0 0)
(1.14337e-05 0 0)
(1.1418e-05 0 0)
(1.14022e-05 0 0)
(1.13863e-05 0 0)
(1.13703e-05 0 0)
(1.13543e-05 0 0)
(1.13382e-05 0 0)
(1.1322e-05 0 0)
(1.13058e-05 0 0)
(1.12895e-05 0 0)
(1.12731e-05 0 0)
(1.12566e-05 0 0)
(1.12401e-05 0 0)
(1.12235e-05 0 0)
(1.12068e-05 0 0)
(1.11901e-05 0 0)
(1.11733e-05 0 0)
(1.11564e-05 0 0)
(1.11395e-05 0 0)
(1.11225e-05 0 0)
(1.11055e-05 0 0)
(1.10884e-05 0 0)
(1.10713e-05 0 0)
(1.10541e-05 0 0)
(1.10369e-05 0 0)
(1.10196e-05 0 0)
(1.10022e-05 0 0)
(1.09848e-05 0 0)
(1.09673e-05 0 0)
(1.09498e-05 0 0)
(1.09323e-05 0 0)
(1.09146e-05 0 0)
(1.08969e-05 0 0)
(1.08791e-05 0 0)
(1.08613e-05 0 0)
(1.08434e-05 0 0)
(1.08254e-05 0 0)
(1.08073e-05 0 0)
(1.07892e-05 0 0)
(1.0771e-05 0 0)
(1.07527e-05 0 0)
(1.07344e-05 0 0)
(1.07159e-05 0 0)
(1.06974e-05 0 0)
(1.06788e-05 0 0)
(1.06602e-05 0 0)
(1.06415e-05 0 0)
(1.06227e-05 0 0)
(1.06038e-05 0 0)
(1.05849e-05 0 0)
(1.05659e-05 0 0)
(1.05469e-05 0 0)
(1.05278e-05 0 0)
(1.05086e-05 0 0)
(1.04894e-05 0 0)
(1.04701e-05 0 0)
(1.04508e-05 0 0)
(1.04315e-05 0 0)
(1.0412e-05 0 0)
(1.03926e-05 0 0)
(1.03731e-05 0 0)
(1.03535e-05 0 0)
(1.03339e-05 0 0)
(1.03143e-05 0 0)
(1.02945e-05 0 0)
(1.02748e-05 0 0)
(1.0255e-05 0 0)
(1.02351e-05 0 0)
(1.02152e-05 0 0)
(1.01952e-05 0 0)
(1.01752e-05 0 0)
(1.01552e-05 0 0)
(1.0135e-05 0 0)
(1.01148e-05 0 0)
(1.00946e-05 0 0)
(1.00743e-05 0 0)
(1.00539e-05 0 0)
(1.00334e-05 0 0)
(1.00129e-05 0 0)
(9.99223e-06 0 0)
(9.97154e-06 0 0)
(9.95078e-06 0 0)
(9.92995e-06 0 0)
(9.90903e-06 0 0)
(9.88804e-06 0 0)
(9.86697e-06 0 0)
(9.8458e-06 0 0)
(9.82452e-06 0 0)
(9.80311e-06 0 0)
(9.78158e-06 0 0)
(9.75989e-06 0 0)
(9.73804e-06 0 0)
(9.71602e-06 0 0)
(9.69382e-06 0 0)
(9.67144e-06 0 0)
(9.64887e-06 0 0)
(9.62612e-06 0 0)
(9.6032e-06 0 0)
(9.58013e-06 0 0)
(9.55692e-06 0 0)
(9.53359e-06 0 0)
(9.51017e-06 0 0)
(9.48669e-06 0 0)
(9.46319e-06 0 0)
(9.43969e-06 0 0)
(9.41624e-06 0 0)
(9.39287e-06 0 0)
(9.36961e-06 0 0)
(9.34651e-06 0 0)
(9.32359e-06 0 0)
(9.30087e-06 0 0)
(9.27838e-06 0 0)
(9.25612e-06 0 0)
(9.23409e-06 0 0)
(9.21228e-06 0 0)
(9.19067e-06 0 0)
(9.16922e-06 0 0)
(9.14791e-06 0 0)
(9.12667e-06 0 0)
(9.10547e-06 0 0)
(9.08424e-06 0 0)
(9.06293e-06 0 0)
(9.04149e-06 0 0)
(9.01988e-06 0 0)
(8.99805e-06 0 0)
(8.97597e-06 0 0)
(8.95362e-06 0 0)
(8.93098e-06 0 0)
(8.90804e-06 0 0)
(8.88479e-06 0 0)
(8.86125e-06 0 0)
(8.83742e-06 0 0)
(8.81332e-06 0 0)
(8.78896e-06 0 0)
(8.76435e-06 0 0)
(8.73953e-06 0 0)
(8.7145e-06 0 0)
(8.68928e-06 0 0)
(8.6639e-06 0 0)
(8.63837e-06 0 0)
(8.61269e-06 0 0)
(8.58689e-06 0 0)
(8.56096e-06 0 0)
(8.53493e-06 0 0)
(8.50878e-06 0 0)
(8.48252e-06 0 0)
(8.45616e-06 0 0)
(8.42969e-06 0 0)
(8.40311e-06 0 0)
(8.37642e-06 0 0)
(8.34962e-06 0 0)
(8.32269e-06 0 0)
(8.29564e-06 0 0)
(8.26846e-06 0 0)
(8.24113e-06 0 0)
(8.21366e-06 0 0)
(8.18605e-06 0 0)
(8.15827e-06 0 0)
(8.13034e-06 0 0)
(8.10223e-06 0 0)
(8.07395e-06 0 0)
(8.04549e-06 0 0)
(8.01685e-06 0 0)
(7.98801e-06 0 0)
(7.95898e-06 0 0)
(7.92975e-06 0 0)
(7.90031e-06 0 0)
(7.87066e-06 0 0)
(7.84078e-06 0 0)
(7.81068e-06 0 0)
(7.78035e-06 0 0)
(7.74977e-06 0 0)
(7.71896e-06 0 0)
(7.68789e-06 0 0)
(7.65657e-06 0 0)
(7.62499e-06 0 0)
(7.59315e-06 0 0)
(7.56103e-06 0 0)
(7.52863e-06 0 0)
(7.49594e-06 0 0)
(7.46295e-06 0 0)
(7.42967e-06 0 0)
(7.39609e-06 0 0)
(7.36221e-06 0 0)
(7.32802e-06 0 0)
(7.29352e-06 0 0)
(7.25871e-06 0 0)
(7.22359e-06 0 0)
(7.18817e-06 0 0)
(7.15246e-06 0 0)
(7.11648e-06 0 0)
(7.08027e-06 0 0)
(7.04386e-06 0 0)
(7.0073e-06 0 0)
(6.97065e-06 0 0)
(6.93402e-06 0 0)
(6.89752e-06 0 0)
(6.86129e-06 0 0)
(6.82553e-06 0 0)
(6.79042e-06 0 0)
(6.7562e-06 0 0)
(6.72311e-06 0 0)
(6.69139e-06 0 0)
(6.66126e-06 0 0)
(6.63285e-06 0 0)
(6.60616e-06 0 0)
(6.58088e-06 0 0)
(6.5563e-06 0 0)
(6.53089e-06 0 0)
(6.50187e-06 0 0)
(6.46424e-06 0 0)
(6.40942e-06 0 0)
(6.32317e-06 0 0)
(6.18349e-06 0 0)
(5.96041e-06 0 0)
(5.62252e-06 0 0)
(5.15591e-06 0 0)
(4.59032e-06 0 0)
(4.00606e-06 0 0)
(3.4978e-06 0 0)
(3.12174e-06 0 0)
(2.87813e-06 0 0)
(2.73468e-06 0 0)
(2.65521e-06 0 0)
(2.61271e-06 0 0)
(2.59043e-06 0 0)
(2.57886e-06 0 0)
(2.57288e-06 0 0)
(2.5698e-06 0 0)
(2.56821e-06 0 0)
(2.56737e-06 0 0)
(2.56693e-06 0 0)
(2.56669e-06 0 0)
(2.56655e-06 0 0)
(2.56646e-06 0 0)
(2.56639e-06 0 0)
(2.56634e-06 0 0)
(2.5663e-06 0 0)
(2.56626e-06 0 0)
(2.56622e-06 0 0)
(2.56618e-06 0 0)
(2.56614e-06 0 0)
(2.5661e-06 0 0)
(2.56606e-06 0 0)
(2.56602e-06 0 0)
(2.56598e-06 0 0)
(2.56594e-06 0 0)
(2.5659e-06 0 0)
(2.56586e-06 0 0)
(2.56582e-06 0 0)
(2.56578e-06 0 0)
(2.56574e-06 0 0)
(2.5657e-06 0 0)
(2.56566e-06 0 0)
(2.56562e-06 0 0)
(2.56558e-06 0 0)
(2.56553e-06 0 0)
(2.56549e-06 0 0)
(2.56545e-06 0 0)
(2.5654e-06 0 0)
(2.56536e-06 0 0)
(2.56531e-06 0 0)
(2.56526e-06 0 0)
(2.56521e-06 0 0)
(2.56516e-06 0 0)
(2.5651e-06 0 0)
(2.56504e-06 0 0)
(2.56498e-06 0 0)
(2.56492e-06 0 0)
(2.56485e-06 0 0)
(2.56477e-06 0 0)
(2.56469e-06 0 0)
(2.5646e-06 0 0)
(2.56451e-06 0 0)
(2.56441e-06 0 0)
(2.5643e-06 0 0)
(2.56418e-06 0 0)
(2.56405e-06 0 0)
(2.56391e-06 0 0)
(2.56376e-06 0 0)
(2.5636e-06 0 0)
(2.56342e-06 0 0)
(2.56324e-06 0 0)
(2.56304e-06 0 0)
(2.56284e-06 0 0)
(2.56262e-06 0 0)
(2.56239e-06 0 0)
(2.56215e-06 0 0)
(2.56191e-06 0 0)
(2.56166e-06 0 0)
(2.56141e-06 0 0)
(2.56115e-06 0 0)
(2.56089e-06 0 0)
(2.56064e-06 0 0)
(2.56039e-06 0 0)
(2.56015e-06 0 0)
(2.55991e-06 0 0)
(2.55969e-06 0 0)
(2.55949e-06 0 0)
(2.55931e-06 0 0)
(2.55915e-06 0 0)
(2.55901e-06 0 0)
(2.55891e-06 0 0)
(2.55883e-06 0 0)
(2.55879e-06 0 0)
(2.55877e-06 0 0)
(2.55876e-06 0 0)
(2.55876e-06 0 0)
(2.55882e-06 0 0)
(2.55894e-06 0 0)
(2.5591e-06 0 0)
(2.55928e-06 0 0)
(2.55949e-06 0 0)
(2.55972e-06 0 0)
(2.55998e-06 0 0)
(2.56025e-06 0 0)
(2.56054e-06 0 0)
(2.56084e-06 0 0)
(2.56114e-06 0 0)
(2.56144e-06 0 0)
(2.56174e-06 0 0)
(2.56204e-06 0 0)
(2.56233e-06 0 0)
(2.5626e-06 0 0)
(2.56286e-06 0 0)
(2.5631e-06 0 0)
(2.56332e-06 0 0)
(2.56352e-06 0 0)
(2.5637e-06 0 0)
(2.56386e-06 0 0)
(2.56399e-06 0 0)
(2.56411e-06 0 0)
(2.5642e-06 0 0)
(2.56428e-06 0 0)
(2.56434e-06 0 0)
(2.56438e-06 0 0)
(2.56441e-06 0 0)
(2.56442e-06 0 0)
(2.56443e-06 0 0)
(2.56442e-06 0 0)
(2.56442e-06 0 0)
(2.56441e-06 0 0)
(2.56438e-06 0 0)
(2.56435e-06 0 0)
(2.56431e-06 0 0)
(2.56428e-06 0 0)
(2.56425e-06 0 0)
(2.56422e-06 0 0)
(2.56419e-06 0 0)
(2.56416e-06 0 0)
(2.56414e-06 0 0)
(2.56412e-06 0 0)
(2.56411e-06 0 0)
(2.5641e-06 0 0)
(2.56409e-06 0 0)
(2.56409e-06 0 0)
(2.56409e-06 0 0)
(2.56409e-06 0 0)
(2.5641e-06 0 0)
(2.56412e-06 0 0)
(2.56414e-06 0 0)
(2.56417e-06 0 0)
(2.5642e-06 0 0)
(2.56423e-06 0 0)
(2.56427e-06 0 0)
(2.56431e-06 0 0)
(2.56435e-06 0 0)
(2.5644e-06 0 0)
(2.56445e-06 0 0)
(2.5645e-06 0 0)
(2.56455e-06 0 0)
(2.5646e-06 0 0)
(2.56466e-06 0 0)
(2.56472e-06 0 0)
(2.56477e-06 0 0)
(2.56483e-06 0 0)
(2.56489e-06 0 0)
(2.56495e-06 0 0)
(2.56501e-06 0 0)
(2.56507e-06 0 0)
(2.56513e-06 0 0)
(2.56519e-06 0 0)
(2.56525e-06 0 0)
(2.56531e-06 0 0)
(2.56537e-06 0 0)
(2.56542e-06 0 0)
(2.56548e-06 0 0)
(2.56553e-06 0 0)
(2.56558e-06 0 0)
(2.56564e-06 0 0)
(2.56569e-06 0 0)
(2.56573e-06 0 0)
(2.56578e-06 0 0)
(2.56582e-06 0 0)
(2.56587e-06 0 0)
(2.56591e-06 0 0)
(2.56595e-06 0 0)
(2.56599e-06 0 0)
(2.56603e-06 0 0)
(2.56606e-06 0 0)
(2.5661e-06 0 0)
(2.56613e-06 0 0)
(2.56616e-06 0 0)
(2.56619e-06 0 0)
(2.56621e-06 0 0)
(2.56624e-06 0 0)
(2.56626e-06 0 0)
(2.56629e-06 0 0)
(2.56631e-06 0 0)
(2.56633e-06 0 0)
(2.56635e-06 0 0)
(2.56637e-06 0 0)
(2.56639e-06 0 0)
(2.56641e-06 0 0)
(2.56643e-06 0 0)
(2.56644e-06 0 0)
(2.56646e-06 0 0)
(2.56647e-06 0 0)
(2.56649e-06 0 0)
(2.5665e-06 0 0)
(2.56651e-06 0 0)
(2.56652e-06 0 0)
(2.56654e-06 0 0)
(2.56655e-06 0 0)
(2.56656e-06 0 0)
(2.56656e-06 0 0)
(2.56657e-06 0 0)
(2.56658e-06 0 0)
(2.56658e-06 0 0)
(2.56659e-06 0 0)
(2.56659e-06 0 0)
(2.56659e-06 0 0)
(2.56659e-06 0 0)
(2.56659e-06 0 0)
(2.56659e-06 0 0)
(2.56659e-06 0 0)
(2.56659e-06 0 0)
(2.56658e-06 0 0)
(2.56657e-06 0 0)
(2.56656e-06 0 0)
(2.56655e-06 0 0)
(2.56654e-06 0 0)
(2.56652e-06 0 0)
(2.5665e-06 0 0)
(2.56648e-06 0 0)
(2.56646e-06 0 0)
(2.56644e-06 0 0)
(2.56641e-06 0 0)
(2.56638e-06 0 0)
(2.56635e-06 0 0)
(2.56632e-06 0 0)
(2.56629e-06 0 0)
(2.56625e-06 0 0)
(2.56621e-06 0 0)
(2.56618e-06 0 0)
(2.56614e-06 0 0)
(2.5661e-06 0 0)
(2.56605e-06 0 0)
(2.56601e-06 0 0)
(2.56597e-06 0 0)
(2.56592e-06 0 0)
(2.56587e-06 0 0)
(2.56582e-06 0 0)
(2.56577e-06 0 0)
(2.56572e-06 0 0)
(2.56567e-06 0 0)
(2.56562e-06 0 0)
(2.56557e-06 0 0)
(2.56551e-06 0 0)
(2.56546e-06 0 0)
(2.56541e-06 0 0)
(2.56535e-06 0 0)
(2.56529e-06 0 0)
(2.56523e-06 0 0)
(2.56517e-06 0 0)
(2.5651e-06 0 0)
(2.56503e-06 0 0)
(2.56496e-06 0 0)
(2.56488e-06 0 0)
(2.5648e-06 0 0)
(2.56471e-06 0 0)
(2.56462e-06 0 0)
(2.56452e-06 0 0)
(2.56442e-06 0 0)
(2.56431e-06 0 0)
(2.56419e-06 0 0)
(2.56406e-06 0 0)
(2.56392e-06 0 0)
(2.56378e-06 0 0)
(2.56363e-06 0 0)
(2.56347e-06 0 0)
(2.56331e-06 0 0)
(2.56313e-06 0 0)
(2.56295e-06 0 0)
(2.56277e-06 0 0)
(2.56257e-06 0 0)
(2.56237e-06 0 0)
(2.56217e-06 0 0)
(2.56196e-06 0 0)
(2.56175e-06 0 0)
(2.56153e-06 0 0)
(2.56132e-06 0 0)
(2.5611e-06 0 0)
(2.56089e-06 0 0)
(2.56068e-06 0 0)
(2.56047e-06 0 0)
(2.56028e-06 0 0)
(2.56009e-06 0 0)
(2.55991e-06 0 0)
(2.55974e-06 0 0)
(2.55959e-06 0 0)
(2.55946e-06 0 0)
(2.55934e-06 0 0)
(2.55924e-06 0 0)
(2.55916e-06 0 0)
(2.5591e-06 0 0)
(2.55907e-06 0 0)
(2.55905e-06 0 0)
(2.55905e-06 0 0)
(2.55906e-06 0 0)
(2.55909e-06 0 0)
(2.55916e-06 0 0)
(2.55927e-06 0 0)
(2.5594e-06 0 0)
(2.55955e-06 0 0)
(2.55971e-06 0 0)
(2.5599e-06 0 0)
(2.5601e-06 0 0)
(2.56031e-06 0 0)
(2.56053e-06 0 0)
(2.56076e-06 0 0)
(2.56099e-06 0 0)
(2.56123e-06 0 0)
(2.56146e-06 0 0)
(2.56169e-06 0 0)
(2.56192e-06 0 0)
(2.56214e-06 0 0)
(2.56235e-06 0 0)
(2.56254e-06 0 0)
(2.56273e-06 0 0)
(2.56291e-06 0 0)
(2.56307e-06 0 0)
(2.56321e-06 0 0)
(2.56335e-06 0 0)
(2.56346e-06 0 0)
(2.56357e-06 0 0)
(2.56366e-06 0 0)
(2.56374e-06 0 0)
(2.56381e-06 0 0)
(2.56386e-06 0 0)
(2.56391e-06 0 0)
(2.56395e-06 0 0)
(2.56398e-06 0 0)
(2.564e-06 0 0)
(2.56401e-06 0 0)
(2.56402e-06 0 0)
(2.56403e-06 0 0)
(2.56403e-06 0 0)
(2.56403e-06 0 0)
(2.56403e-06 0 0)
(2.56403e-06 0 0)
(2.56403e-06 0 0)
(2.56402e-06 0 0)
(2.56402e-06 0 0)
(2.56402e-06 0 0)
(2.56402e-06 0 0)
(2.56402e-06 0 0)
(2.56402e-06 0 0)
(2.56402e-06 0 0)
(2.56403e-06 0 0)
(2.56404e-06 0 0)
(2.56406e-06 0 0)
(2.56408e-06 0 0)
(2.5641e-06 0 0)
(2.56412e-06 0 0)
(2.56415e-06 0 0)
(2.56418e-06 0 0)
(2.56421e-06 0 0)
(2.56424e-06 0 0)
(2.56428e-06 0 0)
(2.56432e-06 0 0)
(2.56436e-06 0 0)
(2.5644e-06 0 0)
(2.56444e-06 0 0)
(2.56449e-06 0 0)
(2.56453e-06 0 0)
(2.56458e-06 0 0)
(2.56463e-06 0 0)
(2.56469e-06 0 0)
(2.56474e-06 0 0)
(2.56479e-06 0 0)
(2.56484e-06 0 0)
(2.5649e-06 0 0)
(2.56495e-06 0 0)
(2.56501e-06 0 0)
(2.56506e-06 0 0)
(2.56512e-06 0 0)
(2.56518e-06 0 0)
(2.56523e-06 0 0)
(2.56528e-06 0 0)
(2.56534e-06 0 0)
(2.56539e-06 0 0)
(2.56545e-06 0 0)
(2.5655e-06 0 0)
(2.56555e-06 0 0)
(2.5656e-06 0 0)
(2.56565e-06 0 0)
(2.5657e-06 0 0)
(2.56575e-06 0 0)
(2.5658e-06 0 0)
(2.56584e-06 0 0)
(2.56588e-06 0 0)
(2.56593e-06 0 0)
(2.56597e-06 0 0)
(2.566e-06 0 0)
(2.56604e-06 0 0)
(2.56608e-06 0 0)
(2.56611e-06 0 0)
(2.56614e-06 0 0)
(2.56617e-06 0 0)
(2.5662e-06 0 0)
(2.56623e-06 0 0)
(2.56625e-06 0 0)
(2.56628e-06 0 0)
(2.5663e-06 0 0)
(2.56632e-06 0 0)
(2.56634e-06 0 0)
(2.56635e-06 0 0)
(2.56637e-06 0 0)
(2.56638e-06 0 0)
(2.5664e-06 0 0)
(2.56641e-06 0 0)
(2.56642e-06 0 0)
(2.56643e-06 0 0)
(2.56643e-06 0 0)
(2.56644e-06 0 0)
(2.56645e-06 0 0)
(2.56645e-06 0 0)
(2.56646e-06 0 0)
(2.56646e-06 0 0)
(2.56646e-06 0 0)
(2.56646e-06 0 0)
(2.56646e-06 0 0)
(2.56646e-06 0 0)
(2.56646e-06 0 0)
(2.56646e-06 0 0)
(2.56646e-06 0 0)
(2.56646e-06 0 0)
(2.56645e-06 0 0)
(2.56645e-06 0 0)
(2.56644e-06 0 0)
(2.56643e-06 0 0)
(2.56642e-06 0 0)
(2.56641e-06 0 0)
(2.5664e-06 0 0)
(2.56639e-06 0 0)
(2.56638e-06 0 0)
(2.56636e-06 0 0)
(2.56635e-06 0 0)
(2.56633e-06 0 0)
(2.56631e-06 0 0)
(2.56629e-06 0 0)
(2.56626e-06 0 0)
(2.56624e-06 0 0)
(2.56621e-06 0 0)
(2.56619e-06 0 0)
(2.56616e-06 0 0)
(2.56612e-06 0 0)
(2.56609e-06 0 0)
(2.56605e-06 0 0)
(2.56601e-06 0 0)
(2.56597e-06 0 0)
(2.56593e-06 0 0)
(2.56588e-06 0 0)
(2.56583e-06 0 0)
(2.56578e-06 0 0)
(2.56573e-06 0 0)
(2.56567e-06 0 0)
(2.56561e-06 0 0)
(2.56555e-06 0 0)
(2.56549e-06 0 0)
(2.56542e-06 0 0)
(2.56535e-06 0 0)
(2.56528e-06 0 0)
(2.5652e-06 0 0)
(2.56512e-06 0 0)
(2.56503e-06 0 0)
(2.56494e-06 0 0)
(2.56485e-06 0 0)
(2.56475e-06 0 0)
(2.56465e-06 0 0)
(2.56455e-06 0 0)
(2.56444e-06 0 0)
(2.56432e-06 0 0)
(2.5642e-06 0 0)
(2.56408e-06 0 0)
(2.56395e-06 0 0)
(2.56381e-06 0 0)
(2.56367e-06 0 0)
(2.56352e-06 0 0)
(2.56337e-06 0 0)
(2.56322e-06 0 0)
(2.56306e-06 0 0)
(2.56289e-06 0 0)
(2.56272e-06 0 0)
(2.56254e-06 0 0)
(2.56236e-06 0 0)
(2.56218e-06 0 0)
(2.562e-06 0 0)
(2.56181e-06 0 0)
(2.56162e-06 0 0)
(2.56143e-06 0 0)
(2.56124e-06 0 0)
(2.56106e-06 0 0)
(2.56087e-06 0 0)
(2.56069e-06 0 0)
(2.56051e-06 0 0)
(2.56033e-06 0 0)
(2.56017e-06 0 0)
(2.56001e-06 0 0)
(2.55986e-06 0 0)
(2.55972e-06 0 0)
(2.55959e-06 0 0)
(2.55948e-06 0 0)
(2.55938e-06 0 0)
(2.5593e-06 0 0)
(2.55923e-06 0 0)
(2.55918e-06 0 0)
(2.55915e-06 0 0)
(2.55913e-06 0 0)
(2.55913e-06 0 0)
(2.55913e-06 0 0)
(2.55914e-06 0 0)
(2.55919e-06 0 0)
(2.55928e-06 0 0)
(2.55938e-06 0 0)
(2.55949e-06 0 0)
(2.55963e-06 0 0)
(2.55978e-06 0 0)
(2.55994e-06 0 0)
(2.56012e-06 0 0)
(2.5603e-06 0 0)
(2.5605e-06 0 0)
(2.56071e-06 0 0)
(2.56092e-06 0 0)
(2.56113e-06 0 0)
(2.56135e-06 0 0)
(2.56156e-06 0 0)
(2.56177e-06 0 0)
(2.56198e-06 0 0)
(2.56218e-06 0 0)
(2.56238e-06 0 0)
(2.56257e-06 0 0)
(2.56275e-06 0 0)
(2.56293e-06 0 0)
(2.56309e-06 0 0)
(2.56324e-06 0 0)
(2.56338e-06 0 0)
(2.56351e-06 0 0)
(2.56363e-06 0 0)
(2.56374e-06 0 0)
(2.56384e-06 0 0)
(2.56393e-06 0 0)
(2.56401e-06 0 0)
(2.56408e-06 0 0)
(2.56415e-06 0 0)
(2.5642e-06 0 0)
(2.56425e-06 0 0)
(2.5643e-06 0 0)
(2.56434e-06 0 0)
(2.56437e-06 0 0)
(2.5644e-06 0 0)
(2.56443e-06 0 0)
(2.56445e-06 0 0)
(2.56447e-06 0 0)
(2.5645e-06 0 0)
(2.56451e-06 0 0)
(2.56453e-06 0 0)
(2.56455e-06 0 0)
(2.56457e-06 0 0)
(2.56459e-06 0 0)
(2.56461e-06 0 0)
(2.56463e-06 0 0)
(2.56465e-06 0 0)
(2.56467e-06 0 0)
(2.56469e-06 0 0)
(2.56472e-06 0 0)
(2.56474e-06 0 0)
(2.56477e-06 0 0)
(2.5648e-06 0 0)
(2.56482e-06 0 0)
(2.56485e-06 0 0)
(2.56488e-06 0 0)
(2.56491e-06 0 0)
(2.56495e-06 0 0)
(2.56498e-06 0 0)
(2.56502e-06 0 0)
(2.56505e-06 0 0)
(2.56509e-06 0 0)
(2.56513e-06 0 0)
(2.56516e-06 0 0)
(2.5652e-06 0 0)
(2.56524e-06 0 0)
(2.56528e-06 0 0)
(2.56532e-06 0 0)
(2.56536e-06 0 0)
(2.5654e-06 0 0)
(2.56543e-06 0 0)
(2.56547e-06 0 0)
(2.56551e-06 0 0)
(2.56555e-06 0 0)
(2.56559e-06 0 0)
(2.56563e-06 0 0)
(2.56567e-06 0 0)
(2.56571e-06 0 0)
(2.56575e-06 0 0)
(2.56578e-06 0 0)
(2.56582e-06 0 0)
(2.56586e-06 0 0)
(2.5659e-06 0 0)
(2.56593e-06 0 0)
(2.56597e-06 0 0)
(2.56601e-06 0 0)
(2.56604e-06 0 0)
(2.56608e-06 0 0)
(2.56611e-06 0 0)
(2.56614e-06 0 0)
(2.56618e-06 0 0)
(2.56621e-06 0 0)
(2.56624e-06 0 0)
(2.56627e-06 0 0)
(2.5663e-06 0 0)
(2.56633e-06 0 0)
(2.56635e-06 0 0)
(2.56638e-06 0 0)
(2.5664e-06 0 0)
(2.56643e-06 0 0)
(2.56645e-06 0 0)
(2.56647e-06 0 0)
(2.56649e-06 0 0)
(2.56651e-06 0 0)
(2.56652e-06 0 0)
(2.56654e-06 0 0)
(2.56655e-06 0 0)
(2.56656e-06 0 0)
(2.56657e-06 0 0)
(2.56658e-06 0 0)
(2.56659e-06 0 0)
(2.5666e-06 0 0)
(2.5666e-06 0 0)
(2.56661e-06 0 0)
(2.56661e-06 0 0)
(2.56661e-06 0 0)
(2.56661e-06 0 0)
(2.56661e-06 0 0)
(2.56661e-06 0 0)
(2.56661e-06 0 0)
(2.56661e-06 0 0)
(2.5666e-06 0 0)
(2.56659e-06 0 0)
(2.56659e-06 0 0)
(2.56658e-06 0 0)
(2.56657e-06 0 0)
(2.56656e-06 0 0)
(2.56655e-06 0 0)
(2.56654e-06 0 0)
(2.56653e-06 0 0)
(2.56651e-06 0 0)
(2.5665e-06 0 0)
(2.56649e-06 0 0)
(2.56647e-06 0 0)
(2.56646e-06 0 0)
(2.56644e-06 0 0)
(2.56642e-06 0 0)
(2.56641e-06 0 0)
(2.56639e-06 0 0)
(2.56637e-06 0 0)
(2.56634e-06 0 0)
(2.56632e-06 0 0)
(2.5663e-06 0 0)
(2.56627e-06 0 0)
(2.56625e-06 0 0)
(2.56622e-06 0 0)
(2.56619e-06 0 0)
(2.56615e-06 0 0)
(2.56612e-06 0 0)
(2.56608e-06 0 0)
(2.56604e-06 0 0)
(2.566e-06 0 0)
(2.56596e-06 0 0)
(2.56591e-06 0 0)
(2.56586e-06 0 0)
(2.5658e-06 0 0)
(2.56575e-06 0 0)
(2.56568e-06 0 0)
(2.56562e-06 0 0)
(2.56555e-06 0 0)
(2.56548e-06 0 0)
(2.5654e-06 0 0)
(2.56532e-06 0 0)
(2.56523e-06 0 0)
(2.56514e-06 0 0)
(2.56504e-06 0 0)
(2.56494e-06 0 0)
(2.56484e-06 0 0)
(2.56473e-06 0 0)
(2.56461e-06 0 0)
(2.56449e-06 0 0)
(2.56437e-06 0 0)
(2.56423e-06 0 0)
(2.5641e-06 0 0)
(2.56396e-06 0 0)
(2.56381e-06 0 0)
(2.56366e-06 0 0)
(2.56351e-06 0 0)
(2.56335e-06 0 0)
(2.56318e-06 0 0)
(2.56302e-06 0 0)
(2.56285e-06 0 0)
(2.56268e-06 0 0)
(2.56251e-06 0 0)
(2.56233e-06 0 0)
(2.56215e-06 0 0)
(2.56198e-06 0 0)
(2.5618e-06 0 0)
(2.56162e-06 0 0)
(2.56145e-06 0 0)
(2.56128e-06 0 0)
(2.56112e-06 0 0)
(2.56096e-06 0 0)
(2.5608e-06 0 0)
(2.56066e-06 0 0)
(2.56051e-06 0 0)
(2.56038e-06 0 0)
(2.56026e-06 0 0)
(2.56015e-06 0 0)
(2.56005e-06 0 0)
(2.55996e-06 0 0)
(2.55989e-06 0 0)
(2.55983e-06 0 0)
(2.55978e-06 0 0)
(2.55975e-06 0 0)
(2.55974e-06 0 0)
(2.55974e-06 0 0)
(2.55974e-06 0 0)
(2.55976e-06 0 0)
(2.5598e-06 0 0)
(2.55985e-06 0 0)
(2.55993e-06 0 0)
(2.56003e-06 0 0)
(2.56014e-06 0 0)
(2.56027e-06 0 0)
)
;

boundaryField
{
    inlet
    {
        type            fixedValue;
        value           uniform (1.13622e-05 0 0);
    }
    outlet
    {
        type            zeroGradient;
    }
    emptyWalls
    {
        type            empty;
    }
}


// ************************************************************************* //
