/*--------------------------------*- C++ -*----------------------------------*\
  =========                 |
  \\      /  F ield         | OpenFOAM: The Open Source CFD Toolbox
   \\    /   O peration     | Website:  https://openfoam.org
    \\  /    A nd           | Version:  9
     \\/     M anipulation  |
\*---------------------------------------------------------------------------*/
FoamFile
{
    format      ascii;
    class       volScalarField;
    location    "12000";
    object      Fb;
}
// * * * * * * * * * * * * * * * * * * * * * * * * * * * * * * * * * * * * * //

dimensions      [0 0 0 0 0 0 0];

internalField   nonuniform List<scalar> 
1000
(
0.805211
0.805213
0.80525
0.805261
0.805295
0.805313
0.805348
0.805385
0.805402
0.805533
0.805424
0.805718
0.805451
0.805844
0.805696
0.806544
0.809158
0.831197
0.834257
0.834659
0.834758
0.834884
0.835078
0.83527
0.83547
0.835634
0.83579
0.835914
0.836029
0.836111
0.836211
0.836242
0.836331
0.836334
0.836406
0.83639
0.83642
0.836424
0.83641
0.836386
0.836339
0.836275
0.836177
0.836042
0.835845
0.835578
0.835224
0.834809
0.834357
0.833878
0.833379
0.832866
0.832341
0.831806
0.831264
0.830714
0.830158
0.829597
0.82903
0.828458
0.827882
0.827302
0.826717
0.826129
0.825537
0.824942
0.824342
0.82374
0.823134
0.822525
0.821913
0.821298
0.82068
0.82006
0.819439
0.818816
0.818192
0.817566
0.81694
0.816313
0.815685
0.815054
0.81442
0.813782
0.813139
0.812491
0.81184
0.811186
0.810532
0.809877
0.80922
0.808561
0.807895
0.807219
0.806528
0.805819
0.80509
0.804341
0.803571
0.802782
0.801976
0.801158
0.800327
0.799493
0.798655
0.797822
0.796995
0.796184
0.79539
0.794624
0.793886
0.793185
0.792521
0.791896
0.79131
0.790759
0.790239
0.789744
0.789267
0.788799
0.788333
0.787862
0.787379
0.786878
0.786357
0.785812
0.785243
0.78465
0.784035
0.783399
0.782744
0.782075
0.781393
0.780702
0.780004
0.779302
0.778598
0.777893
0.777189
0.776486
0.775786
0.775088
0.774393
0.7737
0.773009
0.77232
0.771633
0.770947
0.770262
0.769577
0.768892
0.768206
0.767521
0.766834
0.766147
0.765458
0.764768
0.764077
0.763385
0.762692
0.761996
0.7613
0.760602
0.759902
0.759201
0.758499
0.757795
0.75709
0.756383
0.755674
0.754964
0.754253
0.75354
0.752826
0.75211
0.751392
0.750673
0.749953
0.749231
0.748507
0.747782
0.747055
0.746327
0.745596
0.744865
0.744131
0.743396
0.742659
0.741921
0.74118
0.740438
0.739694
0.738949
0.738201
0.737452
0.736701
0.735949
0.735194
0.734438
0.73368
0.73292
0.732159
0.731396
0.730631
0.729864
0.729096
0.728326
0.727555
0.726782
0.726008
0.725233
0.724456
0.723678
0.722899
0.722119
0.721337
0.720554
0.71977
0.718984
0.718197
0.717408
0.716618
0.715826
0.715032
0.714237
0.71344
0.712642
0.711841
0.711038
0.710232
0.709424
0.708612
0.707796
0.706975
0.706149
0.705318
0.70448
0.703635
0.702784
0.701925
0.701058
0.700184
0.699303
0.698415
0.69752
0.69662
0.695715
0.694806
0.693894
0.692981
0.692068
0.691157
0.69025
0.689347
0.688452
0.687564
0.686687
0.68582
0.684966
0.684125
0.683297
0.682482
0.681681
0.680892
0.680114
0.679347
0.678588
0.677837
0.677089
0.676345
0.6756
0.674855
0.674106
0.673353
0.672593
0.671826
0.671051
0.670267
0.669473
0.66867
0.667858
0.667037
0.666207
0.66537
0.664525
0.663674
0.662816
0.661953
0.661086
0.660215
0.65934
0.658462
0.657582
0.6567
0.655817
0.654932
0.654046
0.653159
0.652271
0.651382
0.650493
0.649602
0.64871
0.647818
0.646924
0.646029
0.645132
0.644234
0.643334
0.642433
0.641529
0.640625
0.639716
0.638808
0.637894
0.636982
0.636063
0.635147
0.634223
0.633302
0.632372
0.631446
0.630511
0.629579
0.62864
0.627702
0.626758
0.625814
0.624866
0.623915
0.622962
0.622006
0.621048
0.620085
0.619122
0.618154
0.617185
0.616212
0.615236
0.614258
0.613276
0.612292
0.611304
0.610314
0.609321
0.608324
0.607325
0.606322
0.605316
0.604307
0.603295
0.602279
0.60126
0.600238
0.599213
0.598184
0.597151
0.596116
0.595076
0.594033
0.592987
0.591937
0.590884
0.589827
0.588766
0.587701
0.586633
0.585561
0.584486
0.583406
0.582323
0.581236
0.580145
0.57905
0.577952
0.576849
0.575743
0.574632
0.573518
0.572399
0.571277
0.57015
0.569019
0.567883
0.566744
0.565599
0.564451
0.563297
0.562139
0.560977
0.559809
0.558637
0.557459
0.556276
0.555088
0.553894
0.552694
0.551488
0.550276
0.549058
0.547833
0.546602
0.545363
0.544117
0.542863
0.541602
0.540333
0.539056
0.537771
0.536478
0.535176
0.533866
0.532549
0.531222
0.529888
0.528545
0.527195
0.525837
0.524471
0.523099
0.52172
0.520334
0.518943
0.517545
0.516142
0.514734
0.513322
0.511906
0.510487
0.509064
0.507638
0.506209
0.504777
0.503344
0.501909
0.500471
0.499033
0.497592
0.496149
0.494704
0.493259
0.491811
0.490364
0.488915
0.487465
0.486017
0.484569
0.483126
0.481687
0.480256
0.478836
0.47743
0.476041
0.474676
0.473339
0.472037
0.470776
0.469562
0.468401
0.4673
0.466265
0.465301
0.464412
0.463601
0.462868
0.462212
0.461631
0.461118
0.460667
0.460261
0.45988
0.459487
0.459025
0.458396
0.457428
0.455823
0.453064
0.448281
0.440062
0.426328
0.404548
0.372865
0.332411
0.288975
0.250615
0.222393
0.204373
0.193905
0.188158
0.185101
0.183503
0.182676
0.18225
0.182032
0.181921
0.181865
0.181838
0.181825
0.18182
0.181818
0.181819
0.18182
0.181822
0.181824
0.181826
0.181829
0.181831
0.181833
0.181836
0.181838
0.18184
0.181842
0.181844
0.181846
0.181848
0.18185
0.181852
0.181854
0.181855
0.181857
0.181859
0.18186
0.181862
0.181863
0.181864
0.181865
0.181867
0.181868
0.181869
0.18187
0.181871
0.181872
0.181872
0.181873
0.181874
0.181874
0.181874
0.181875
0.181875
0.181875
0.181875
0.181875
0.181875
0.181875
0.181875
0.181874
0.181874
0.181873
0.181873
0.181872
0.181871
0.18187
0.18187
0.181869
0.181868
0.181866
0.181865
0.181864
0.181863
0.181861
0.18186
0.181859
0.181857
0.181856
0.181854
0.181852
0.181851
0.181849
0.181848
0.181846
0.181844
0.181842
0.18184
0.181839
0.181837
0.181835
0.181833
0.181831
0.181829
0.181827
0.181825
0.181823
0.181821
0.181819
0.181816
0.181814
0.181812
0.181809
0.181806
0.181803
0.1818
0.181797
0.181794
0.18179
0.181787
0.181783
0.181778
0.181774
0.181769
0.181764
0.181758
0.181752
0.181746
0.181739
0.181732
0.181724
0.181716
0.181708
0.181699
0.181689
0.18168
0.181669
0.181659
0.181648
0.181637
0.181625
0.181613
0.181601
0.181589
0.181576
0.181564
0.181552
0.181539
0.181527
0.181515
0.181504
0.181492
0.181482
0.181472
0.181462
0.181453
0.181445
0.181438
0.181432
0.181427
0.181423
0.18142
0.181419
0.181418
0.181418
0.181418
0.181419
0.181423
0.181428
0.181434
0.181441
0.181448
0.181457
0.181467
0.181477
0.181487
0.181499
0.18151
0.181522
0.181534
0.181546
0.181558
0.181569
0.181581
0.181592
0.181603
0.181614
0.181624
0.181634
0.181643
0.181652
0.18166
0.181667
0.181674
0.181681
0.181687
0.181692
0.181698
0.181702
0.181706
0.18171
0.181714
0.181717
0.18172
0.181723
0.181725
0.181728
0.18173
0.181732
0.181734
0.181736
0.181738
0.18174
0.181742
0.181743
0.181745
0.181747
0.181749
0.181751
0.181753
0.181756
0.181758
0.18176
0.181762
0.181765
0.181767
0.181769
0.181772
0.181774
0.181777
0.181779
0.181782
0.181784
0.181787
0.18179
0.181792
0.181795
0.181798
0.1818
0.181803
0.181806
0.181809
0.181811
0.181814
0.181817
0.181819
0.181822
0.181824
0.181827
0.181829
0.181831
0.181833
0.181836
0.181837
0.181839
0.181841
0.181843
0.181844
0.181846
0.181847
0.181848
0.181849
0.18185
0.181851
0.181852
0.181853
0.181853
0.181854
0.181855
0.181855
0.181856
0.181856
0.181856
0.181856
0.181857
0.181857
0.181857
0.181857
0.181857
0.181857
0.181857
0.181856
0.181856
0.181856
0.181855
0.181855
0.181855
0.181854
0.181853
0.181853
0.181852
0.181851
0.181851
0.18185
0.181849
0.181848
0.181847
0.181846
0.181845
0.181844
0.181842
0.181841
0.18184
0.181838
0.181837
0.181835
0.181834
0.181832
0.18183
0.181829
0.181827
0.181825
0.181823
0.181821
0.181819
0.181816
0.181814
0.181811
0.181809
0.181806
0.181803
0.1818
0.181796
0.181793
0.181789
0.181785
0.181781
0.181776
0.181772
0.181767
0.181761
0.181756
0.18175
0.181744
0.181737
0.18173
0.181723
0.181716
0.181708
0.1817
0.181691
0.181682
0.181673
0.181664
0.181654
0.181644
0.181634
0.181623
0.181613
0.181602
0.181591
0.18158
0.181569
0.181559
0.181548
0.181537
0.181527
0.181517
0.181507
0.181497
0.181488
0.18148
0.181472
0.181465
0.181458
0.181452
0.181447
0.181442
0.181439
0.181436
0.181434
0.181433
0.181433
0.181433
0.181433
0.181435
0.181439
0.181443
0.181448
0.181455
0.181461
0.181469
0.181477
0.181485
0.181495
0.181504
0.181514
0.181524
0.181534
0.181545
0.181555
0.181566
0.181576
0.181586
0.181596
0.181606
0.181615
0.181624
0.181633
0.181642
0.18165
0.181658
0.181665
0.181672
0.181678
0.181684
0.18169
0.181696
0.181701
0.181706
0.18171
0.181714
0.181718
0.181722
0.181725
0.181729
0.181732
0.181735
0.181738
0.181741
0.181744
0.181746
0.181749
0.181752
0.181754
0.181757
0.181759
0.181762
0.181764
0.181767
0.18177
0.181772
0.181775
0.181777
0.18178
0.181783
0.181786
0.181788
0.181791
0.181794
0.181797
0.181799
0.181802
0.181805
0.181808
0.18181
0.181813
0.181816
0.181818
0.181821
0.181823
0.181826
0.181828
0.18183
0.181833
0.181835
0.181837
0.181839
0.181841
0.181843
0.181844
0.181846
0.181848
0.181849
0.181851
0.181852
0.181853
0.181854
0.181855
0.181856
0.181857
0.181858
0.181858
0.181859
0.18186
0.18186
0.181861
0.181861
0.181861
0.181861
0.181861
0.181861
0.181861
0.181861
0.181861
0.181861
0.181861
0.181861
0.18186
0.18186
0.181859
0.181859
0.181858
0.181858
0.181857
0.181856
0.181855
0.181855
0.181853
0.181853
0.181851
0.181851
0.181849
0.181849
0.181847
0.181846
0.181844
0.181843
0.181841
0.181841
0.181838
0.181838
0.181835
0.181834
0.181831
0.181831
0.181828
0.181827
0.181823
0.181823
0.181819
0.181818
0.181814
0.181813
0.181806
)
;

boundaryField
{
    inlet
    {
        type            calculated;
        value           uniform 0.805169;
    }
    outlet
    {
        type            calculated;
        value           uniform 0.181808;
    }
    emptyWalls
    {
        type            empty;
    }
}


// ************************************************************************* //
