/*--------------------------------*- C++ -*----------------------------------*\
  =========                 |
  \\      /  F ield         | OpenFOAM: The Open Source CFD Toolbox
   \\    /   O peration     | Website:  https://openfoam.org
    \\  /    A nd           | Version:  9
     \\/     M anipulation  |
\*---------------------------------------------------------------------------*/
FoamFile
{
    format      ascii;
    class       volScalarField;
    location    "17500";
    object      Fa;
}
// * * * * * * * * * * * * * * * * * * * * * * * * * * * * * * * * * * * * * //

dimensions      [0 0 0 0 0 0 0];

internalField   nonuniform List<scalar> 
1000
(
0.194776
0.194844
0.194727
0.194843
0.194643
0.194804
0.194567
0.194705
0.194518
0.194558
0.194445
0.194401
0.194312
0.194248
0.19416
0.194097
0.194026
0.193969
0.193912
0.193863
0.193825
0.193691
0.193484
0.191995
0.183246
0.154869
0.151963
0.150911
0.150252
0.149748
0.149329
0.148977
0.148664
0.148382
0.148126
0.147889
0.147673
0.147471
0.147281
0.14711
0.146943
0.146789
0.146656
0.146513
0.146396
0.14627
0.146163
0.146054
0.145955
0.145862
0.145771
0.145693
0.145606
0.145528
0.145457
0.145388
0.145325
0.145265
0.145211
0.145159
0.145113
0.14507
0.145034
0.144999
0.144972
0.144949
0.144934
0.144926
0.144926
0.144929
0.144929
0.144928
0.144925
0.144921
0.144917
0.144914
0.144914
0.144917
0.144924
0.144931
0.144938
0.144944
0.144947
0.144949
0.144948
0.144944
0.144939
0.144936
0.144941
0.144962
0.145007
0.145081
0.145187
0.145321
0.145478
0.145654
0.145839
0.14603
0.14622
0.146405
0.146582
0.146744
0.146886
0.147
0.14708
0.14712
0.147114
0.147061
0.146962
0.14682
0.146642
0.146436
0.146211
0.145977
0.145743
0.145519
0.14531
0.145122
0.144959
0.144822
0.144711
0.144625
0.144561
0.144517
0.144488
0.144472
0.144464
0.144462
0.144463
0.144464
0.144465
0.144462
0.144457
0.144447
0.144433
0.144415
0.144393
0.144367
0.144339
0.144308
0.144274
0.144239
0.144203
0.144166
0.144128
0.14409
0.144052
0.144014
0.143976
0.143939
0.143902
0.143865
0.143829
0.143793
0.143758
0.143724
0.14369
0.143657
0.143625
0.143593
0.143562
0.143531
0.143502
0.143473
0.143445
0.143417
0.14339
0.143364
0.143339
0.143314
0.14329
0.143267
0.143244
0.143222
0.143201
0.14318
0.143161
0.143141
0.143123
0.143105
0.143089
0.143073
0.143058
0.143043
0.14303
0.143018
0.143006
0.142995
0.142985
0.142975
0.142966
0.142957
0.142949
0.14294
0.142932
0.142924
0.142916
0.142909
0.142902
0.142896
0.14289
0.142885
0.14288
0.142876
0.142872
0.142868
0.142864
0.142859
0.142854
0.142849
0.142845
0.142841
0.14284
0.142841
0.142846
0.142857
0.142873
0.142898
0.142931
0.142973
0.143025
0.143086
0.143158
0.143239
0.143329
0.143426
0.143531
0.14364
0.143752
0.143866
0.143978
0.144086
0.144188
0.144281
0.144362
0.144429
0.14448
0.144512
0.144525
0.144518
0.144489
0.14444
0.144371
0.144284
0.144182
0.144065
0.143938
0.143803
0.143663
0.143522
0.143382
0.143245
0.143115
0.142992
0.142878
0.142774
0.14268
0.142597
0.142523
0.14246
0.142405
0.142358
0.142318
0.142285
0.142256
0.142232
0.14221
0.142191
0.142173
0.142156
0.142138
0.142121
0.142102
0.142083
0.142062
0.14204
0.142017
0.141992
0.141965
0.141938
0.141909
0.141879
0.141848
0.141816
0.141784
0.141751
0.141717
0.141683
0.141649
0.141615
0.14158
0.141546
0.141512
0.141478
0.141444
0.14141
0.141377
0.141344
0.141312
0.14128
0.141248
0.141217
0.141186
0.141156
0.141126
0.141097
0.141068
0.14104
0.141012
0.140985
0.140958
0.140932
0.140907
0.140882
0.140857
0.140833
0.14081
0.140787
0.140765
0.140744
0.140723
0.140702
0.140683
0.140664
0.140645
0.140628
0.140611
0.140594
0.140579
0.140563
0.140549
0.140535
0.140521
0.140508
0.140496
0.140484
0.140473
0.140461
0.140451
0.140441
0.140431
0.140421
0.140412
0.140403
0.140395
0.140387
0.140379
0.140372
0.140364
0.140357
0.140351
0.140344
0.140338
0.140332
0.140326
0.140321
0.140317
0.140313
0.140312
0.140311
0.140312
0.140315
0.140322
0.14033
0.140343
0.140359
0.14038
0.140405
0.140435
0.140469
0.14051
0.140554
0.140604
0.140659
0.140718
0.140781
0.140848
0.140917
0.140989
0.141062
0.141135
0.141207
0.141278
0.141345
0.141409
0.141467
0.14152
0.141564
0.141601
0.141628
0.141645
0.141651
0.141647
0.141631
0.141604
0.141566
0.141518
0.141459
0.141392
0.141316
0.141233
0.141144
0.141051
0.140954
0.140855
0.140755
0.140656
0.140558
0.140463
0.140371
0.140283
0.140199
0.14012
0.140046
0.139977
0.139913
0.139854
0.1398
0.139751
0.139705
0.139664
0.139626
0.13959
0.139558
0.139527
0.139499
0.139472
0.139445
0.13942
0.139395
0.13937
0.139345
0.139321
0.139295
0.13927
0.139243
0.139217
0.139189
0.139161
0.139133
0.139104
0.139074
0.139043
0.139013
0.138981
0.13895
0.138918
0.138886
0.138853
0.138821
0.138788
0.138756
0.138723
0.138691
0.138658
0.138626
0.138594
0.138562
0.13853
0.138499
0.138468
0.138437
0.138407
0.138377
0.138348
0.138318
0.13829
0.138261
0.138233
0.138206
0.138179
0.138152
0.138126
0.138101
0.138076
0.138051
0.138027
0.138003
0.13798
0.137957
0.137935
0.137913
0.137892
0.137872
0.137851
0.137832
0.137812
0.137794
0.137776
0.137758
0.137741
0.137724
0.137707
0.137692
0.137676
0.137661
0.137646
0.137632
0.137618
0.137605
0.137592
0.137579
0.137566
0.137554
0.137542
0.137531
0.137519
0.137508
0.137497
0.137487
0.137477
0.137466
0.137457
0.137447
0.137438
0.137429
0.13742
0.137412
0.137405
0.137397
0.137391
0.137385
0.13738
0.137376
0.137373
0.137372
0.137372
0.137373
0.137377
0.137382
0.13739
0.1374
0.137412
0.137427
0.137444
0.137465
0.137488
0.137514
0.137543
0.137575
0.137609
0.137647
0.137686
0.137728
0.137771
0.137816
0.137862
0.137909
0.137956
0.138003
0.138049
0.138095
0.138138
0.138179
0.138217
0.138252
0.138283
0.138309
0.13833
0.138346
0.138356
0.13836
0.138357
0.138348
0.138332
0.13831
0.13828
0.138244
0.138202
0.138154
0.1381
0.138041
0.137977
0.137909
0.137838
0.137764
0.137687
0.137609
0.13753
0.13745
0.137371
0.137292
0.137215
0.137139
0.137065
0.136993
0.136924
0.136858
0.136794
0.136733
0.136676
0.136621
0.136568
0.136519
0.136472
0.136427
0.136385
0.136345
0.136307
0.13627
0.136235
0.136201
0.136168
0.136137
0.136105
0.136075
0.136045
0.136015
0.135985
0.135956
0.135927
0.135897
0.135868
0.135838
0.135808
0.135777
0.135747
0.135716
0.135685
0.135653
0.135622
0.13559
0.135558
0.135525
0.135493
0.13546
0.135427
0.135394
0.135361
0.135328
0.135295
0.135262
0.135229
0.135196
0.135163
0.13513
0.135097
0.135065
0.135033
0.135001
0.134969
0.134937
0.134906
0.134875
0.134844
0.134813
0.134783
0.134753
0.134724
0.134695
0.134666
0.134637
0.13461
0.134582
0.134555
0.134528
0.134502
0.134476
0.134451
0.134427
0.134403
0.13438
0.134357
0.134335
0.134314
0.134294
0.134274
0.134256
0.134239
0.134223
0.134207
0.134193
0.13418
0.134169
0.134158
0.134149
0.134142
0.134134
0.134131
0.134124
0.134123
0.13412
0.134119
0.13412
0.134119
0.134124
0.134122
0.134129
0.13413
0.134134
0.134141
0.13414
0.134149
0.134146
0.134147
0.13414
0.134118
0.134086
0.134007
0.133882
0.133662
0.133322
0.13286
0.132318
0.131846
0.131519
0.131347
0.131273
0.131238
0.13124
0.131241
0.131256
0.131274
0.13129
0.131311
0.131333
0.131356
0.131381
0.131408
0.131436
0.131467
0.131498
0.131531
0.131566
0.131602
0.13164
0.13168
0.131721
0.131763
0.131807
0.131852
0.131898
0.131944
0.131992
0.13204
0.132088
0.132137
0.132185
0.132233
0.13228
0.132327
0.132373
0.132417
0.13246
0.132501
0.132539
0.132576
0.13261
0.132641
0.132669
0.132694
0.132716
0.132733
0.132747
0.132756
0.132761
0.132763
0.132763
0.132762
0.132757
0.132743
0.132725
0.132704
0.13268
0.132653
0.132623
0.132591
0.132556
0.13252
0.132481
0.132441
0.1324
0.132358
0.132315
0.132272
0.132229
0.132186
0.132143
0.132101
0.13206
0.13202
0.131981
0.131944
0.131908
0.131874
0.131841
0.131809
0.13178
0.131752
0.131725
0.131701
0.131678
0.131656
0.131636
0.131617
0.131599
0.131583
0.131567
0.131553
0.131539
0.131527
0.131515
0.131504
0.131493
0.131483
0.131473
0.131463
0.131454
0.131445
0.131436
0.131427
0.131418
0.131409
0.131401
0.131392
0.131383
0.131374
0.131365
0.131356
0.131346
0.131337
0.131328
0.131318
0.131308
0.131299
0.131289
0.131279
0.131269
0.131259
0.131249
0.131239
0.131229
0.131219
0.131209
0.131199
0.131189
0.13118
0.13117
0.131161
0.131151
0.131142
0.131133
0.131124
0.131116
0.131107
0.131099
0.131091
0.131083
0.131075
0.131068
0.131061
0.131054
0.131048
0.131041
0.131035
0.13103
0.131024
0.131019
0.131014
0.131009
0.131005
0.131001
0.130997
0.130994
0.130991
0.130988
0.130986
0.130984
0.130982
0.13098
0.130979
0.130978
0.130977
0.130977
0.130977
0.130977
0.130977
0.130977
0.130979
0.13098
0.130982
0.130983
0.130986
0.130988
0.130991
0.130994
0.130997
0.131
0.131004
0.131008
0.131012
0.131016
0.131021
0.131026
0.131031
0.131037
0.131043
0.131049
0.131055
0.131062
0.131069
0.131077
0.131085
0.131093
0.131102
0.131111
0.131121
0.131132
0.131143
0.131155
0.131167
0.13118
0.131194
0.131209
0.131225
0.131241
0.131259
0.131278
0.131298
0.131319
0.131341
0.131364
0.131389
0.131414
0.131442
0.13147
0.1315
0.131531
0.131563
0.131597
0.131632
0.131668
0.131705
0.131743
0.131782
0.131822
0.131863
0.131905
0.131947
0.13199
0.132033
0.132076
0.132119
0.132162
0.132205
0.132247
0.132288
0.132329
0.132368
0.132406
0.132442
0.132477
0.13251
0.132541
0.132569
0.132595
0.132618
0.132639
0.132657
0.132672
0.132683
0.132692
0.132697
0.132698
0.132698
0.132698
0.132693
0.13269
0.132673
0.132661
0.132635
0.132619
0.132588
0.132567
0.132532
0.132507
0.132469
0.13244
0.132399
0.132369
0.132326
0.132294
0.13225
0.132217
0.132174
0.132141
0.132099
0.132066
0.132026
0.131994
0.131957
0.131925
0.131892
0.131861
0.131831
0.131802
0.131776
0.131747
0.131726
0.131697
)
;

boundaryField
{
    inlet
    {
        type            calculated;
        value           uniform 0.194831;
    }
    outlet
    {
        type            calculated;
        value           uniform 0.131689;
    }
    emptyWalls
    {
        type            empty;
    }
}


// ************************************************************************* //
