/*--------------------------------*- C++ -*----------------------------------*\
  =========                 |
  \\      /  F ield         | OpenFOAM: The Open Source CFD Toolbox
   \\    /   O peration     | Website:  https://openfoam.org
    \\  /    A nd           | Version:  9
     \\/     M anipulation  |
\*---------------------------------------------------------------------------*/
FoamFile
{
    format      ascii;
    class       volScalarField;
    location    "3200";
    object      kra;
}
// * * * * * * * * * * * * * * * * * * * * * * * * * * * * * * * * * * * * * //

dimensions      [0 0 0 0 0 0 0];

internalField   nonuniform List<scalar> 
100
(
4.03604e-05
2.9916e-05
3.23048e-05
3.09447e-05
3.08327e-05
3.0467e-05
3.02947e-05
3.00716e-05
2.98608e-05
2.96652e-05
2.94762e-05
2.93046e-05
2.91377e-05
2.89871e-05
2.88384e-05
2.87033e-05
2.85682e-05
2.84454e-05
2.83216e-05
2.82049e-05
2.80897e-05
2.7967e-05
2.78374e-05
2.76756e-05
2.74683e-05
2.7319e-05
2.74197e-05
2.74448e-05
2.74906e-05
2.75204e-05
2.75543e-05
2.75873e-05
2.76193e-05
2.76496e-05
2.76786e-05
2.77071e-05
2.77345e-05
2.77609e-05
2.77866e-05
2.78103e-05
2.78325e-05
2.78535e-05
2.78739e-05
2.78939e-05
2.79134e-05
2.79318e-05
2.79487e-05
2.79646e-05
2.79799e-05
2.79949e-05
2.80095e-05
2.80233e-05
2.80362e-05
2.80476e-05
2.80582e-05
2.80687e-05
2.80787e-05
2.80877e-05
2.8096e-05
2.81028e-05
2.81086e-05
2.81141e-05
2.81194e-05
2.81241e-05
2.81281e-05
2.81314e-05
2.81335e-05
2.81348e-05
2.81362e-05
2.81374e-05
2.81379e-05
2.81379e-05
2.81374e-05
2.81362e-05
2.81344e-05
2.81324e-05
2.81299e-05
2.81266e-05
2.81231e-05
2.81191e-05
2.81143e-05
2.81094e-05
2.81052e-05
2.8101e-05
2.8096e-05
2.80904e-05
2.80846e-05
2.80791e-05
2.80734e-05
2.80685e-05
2.80641e-05
2.80587e-05
2.80526e-05
2.80452e-05
2.80339e-05
2.80121e-05
2.79674e-05
2.78659e-05
2.7499e-05
6.52393e-05
)
;

boundaryField
{
    inlet
    {
        type            calculated;
        value           uniform 1.18853e-05;
    }
    outlet
    {
        type            calculated;
        value           uniform 4.70617e-06;
    }
    emptyWalls
    {
        type            empty;
    }
}


// ************************************************************************* //
