/*--------------------------------*- C++ -*----------------------------------*\
  =========                 |
  \\      /  F ield         | OpenFOAM: The Open Source CFD Toolbox
   \\    /   O peration     | Website:  https://openfoam.org
    \\  /    A nd           | Version:  9
     \\/     M anipulation  |
\*---------------------------------------------------------------------------*/
FoamFile
{
    format      ascii;
    class       volScalarField;
    location    "3200";
    object      p;
}
// * * * * * * * * * * * * * * * * * * * * * * * * * * * * * * * * * * * * * //

dimensions      [0 0 0 0 0 0 0];

internalField   nonuniform List<scalar> 
100
(
6.0698e+06
6.06175e+06
6.0509e+06
6.04085e+06
6.03036e+06
6.01982e+06
6.00917e+06
5.99846e+06
5.98767e+06
5.97681e+06
5.9659e+06
5.95493e+06
5.9439e+06
5.93282e+06
5.92169e+06
5.91052e+06
5.89931e+06
5.88806e+06
5.87676e+06
5.86543e+06
5.85406e+06
5.84266e+06
5.83122e+06
5.81973e+06
5.80818e+06
5.79659e+06
5.78498e+06
5.77344e+06
5.76194e+06
5.75046e+06
5.73902e+06
5.72761e+06
5.71623e+06
5.70488e+06
5.69356e+06
5.68226e+06
5.671e+06
5.65977e+06
5.64856e+06
5.63739e+06
5.62624e+06
5.61512e+06
5.60402e+06
5.59296e+06
5.58192e+06
5.5709e+06
5.55992e+06
5.54896e+06
5.53802e+06
5.52712e+06
5.51623e+06
5.50538e+06
5.49455e+06
5.48374e+06
5.47296e+06
5.46221e+06
5.45148e+06
5.44077e+06
5.43009e+06
5.41943e+06
5.4088e+06
5.39819e+06
5.38761e+06
5.37705e+06
5.36651e+06
5.356e+06
5.34551e+06
5.33505e+06
5.32461e+06
5.31419e+06
5.30379e+06
5.29342e+06
5.28307e+06
5.27274e+06
5.26243e+06
5.25214e+06
5.24188e+06
5.23164e+06
5.22141e+06
5.21121e+06
5.20103e+06
5.19087e+06
5.18072e+06
5.1706e+06
5.16049e+06
5.1504e+06
5.14032e+06
5.13026e+06
5.12021e+06
5.11018e+06
5.10016e+06
5.09015e+06
5.08015e+06
5.07016e+06
5.06019e+06
5.05025e+06
5.04034e+06
5.03053e+06
5.02089e+06
5.01166e+06
)
;

boundaryField
{
    inlet
    {
        type            darcyGradPressure;
        gradient        uniform 3.97435e+06;
        Mf              Mf;
        phi             phi;
        value           uniform 6.07775e+06;
    }
    outlet
    {
        type            fixedValue;
        value           uniform 5e+06;
    }
    emptyWalls
    {
        type            empty;
    }
}


// ************************************************************************* //
