/*--------------------------------*- C++ -*----------------------------------*\
  =========                 |
  \\      /  F ield         | OpenFOAM: The Open Source CFD Toolbox
   \\    /   O peration     | Website:  https://openfoam.org
    \\  /    A nd           | Version:  9
     \\/     M anipulation  |
\*---------------------------------------------------------------------------*/
FoamFile
{
    format      ascii;
    class       surfaceScalarField;
    location    "3200";
    object      phia;
}
// * * * * * * * * * * * * * * * * * * * * * * * * * * * * * * * * * * * * * //

dimensions      [0 2 0 0 0 0 0];

internalField   nonuniform List<scalar> 
99
(
1.42048e-08
1.41966e-08
1.41876e-08
1.41706e-08
1.41471e-08
1.4146e-08
1.41406e-08
1.41322e-08
1.41217e-08
1.41107e-08
1.40991e-08
1.40871e-08
1.40751e-08
1.4063e-08
1.40507e-08
1.40384e-08
1.40259e-08
1.40141e-08
1.40004e-08
1.39888e-08
1.39736e-08
1.39585e-08
1.394e-08
1.3916e-08
1.38875e-08
1.38588e-08
1.38383e-08
1.38183e-08
1.37964e-08
1.37751e-08
1.37544e-08
1.37338e-08
1.37128e-08
1.36913e-08
1.36699e-08
1.36485e-08
1.36268e-08
1.36052e-08
1.35832e-08
1.35603e-08
1.35369e-08
1.35134e-08
1.349e-08
1.34667e-08
1.34433e-08
1.34193e-08
1.33949e-08
1.33702e-08
1.33457e-08
1.33212e-08
1.32967e-08
1.32719e-08
1.32466e-08
1.32208e-08
1.3195e-08
1.31694e-08
1.31435e-08
1.31174e-08
1.30908e-08
1.30637e-08
1.30364e-08
1.30094e-08
1.29823e-08
1.2955e-08
1.29277e-08
1.28999e-08
1.28718e-08
1.28439e-08
1.28162e-08
1.27885e-08
1.27608e-08
1.27332e-08
1.27055e-08
1.26776e-08
1.26501e-08
1.26228e-08
1.25956e-08
1.25686e-08
1.25419e-08
1.25156e-08
1.24897e-08
1.24647e-08
1.24408e-08
1.24175e-08
1.23948e-08
1.23728e-08
1.23519e-08
1.23322e-08
1.23136e-08
1.22965e-08
1.22799e-08
1.22632e-08
1.22449e-08
1.22217e-08
1.2185e-08
1.21166e-08
1.19821e-08
1.16997e-08
1.10911e-08
)
;

boundaryField
{
    inlet
    {
        type            calculated;
        value           uniform -1.42126e-08;
    }
    outlet
    {
        type            calculated;
        value           uniform 4.79904e-09;
    }
    emptyWalls
    {
        type            empty;
        value           nonuniform List<scalar> 0();
    }
}


// ************************************************************************* //
