/*--------------------------------*- C++ -*----------------------------------*\
  =========                 |
  \\      /  F ield         | OpenFOAM: The Open Source CFD Toolbox
   \\    /   O peration     | Website:  https://openfoam.org
    \\  /    A nd           | Version:  9
     \\/     M anipulation  |
\*---------------------------------------------------------------------------*/
FoamFile
{
    format      ascii;
    class       surfaceScalarField;
    location    "3200";
    object      phib;
}
// * * * * * * * * * * * * * * * * * * * * * * * * * * * * * * * * * * * * * //

dimensions      [0 2 0 0 0 0 0];

internalField   nonuniform List<scalar> 
99
(
6.09084e-09
6.0905e-09
6.09011e-09
6.09709e-09
6.11002e-09
6.10034e-09
6.09439e-09
6.09116e-09
6.08956e-09
6.08831e-09
6.08741e-09
6.08676e-09
6.08604e-09
6.08537e-09
6.08487e-09
6.0843e-09
6.0838e-09
6.08243e-09
6.08283e-09
6.08092e-09
6.08182e-09
6.08084e-09
6.07967e-09
6.07844e-09
6.07766e-09
6.07911e-09
6.07817e-09
6.07753e-09
6.07924e-09
6.08056e-09
6.08123e-09
6.08177e-09
6.08256e-09
6.08363e-09
6.08451e-09
6.08512e-09
6.08576e-09
6.08618e-09
6.08681e-09
6.08807e-09
6.08959e-09
6.09101e-09
6.09215e-09
6.09297e-09
6.09371e-09
6.09478e-09
6.09617e-09
6.09754e-09
6.09863e-09
6.09942e-09
6.10009e-09
6.10083e-09
6.10191e-09
6.1033e-09
6.10447e-09
6.10536e-09
6.10631e-09
6.10735e-09
6.10866e-09
6.11041e-09
6.11215e-09
6.11357e-09
6.11487e-09
6.11619e-09
6.11752e-09
6.11914e-09
6.12106e-09
6.12278e-09
6.12414e-09
6.12543e-09
6.12672e-09
6.12793e-09
6.12933e-09
6.13087e-09
6.13225e-09
6.1335e-09
6.13496e-09
6.13646e-09
6.13791e-09
6.13954e-09
6.14127e-09
6.14261e-09
6.14352e-09
6.14456e-09
6.14598e-09
6.14761e-09
6.14915e-09
6.15064e-09
6.15193e-09
6.15277e-09
6.15373e-09
6.15503e-09
6.15632e-09
6.15765e-09
6.15967e-09
6.16368e-09
6.17194e-09
6.19048e-09
6.29343e-09
)
;

boundaryField
{
    inlet
    {
        type            calculated;
        value           uniform -6.09112e-09;
    }
    outlet
    {
        type            calculated;
        value           uniform 7.41613e-09;
    }
    emptyWalls
    {
        type            empty;
        value           nonuniform List<scalar> 0();
    }
}


// ************************************************************************* //
