/*--------------------------------*- C++ -*----------------------------------*\
  =========                 |
  \\      /  F ield         | OpenFOAM: The Open Source CFD Toolbox
   \\    /   O peration     | Website:  https://openfoam.org
    \\  /    A nd           | Version:  9
     \\/     M anipulation  |
\*---------------------------------------------------------------------------*/
FoamFile
{
    format      ascii;
    class       surfaceScalarField;
    location    "3200";
    object      phic;
}
// * * * * * * * * * * * * * * * * * * * * * * * * * * * * * * * * * * * * * //

dimensions      [0 2 0 0 0 0 0];

internalField   nonuniform List<scalar> 
99
(
8.13664e-12
1.65961e-11
2.60337e-11
3.60618e-11
4.6632e-11
5.7445e-11
6.86976e-11
8.03808e-11
9.24275e-11
1.04743e-10
1.17239e-10
1.29856e-10
1.42554e-10
1.55318e-10
1.68153e-10
1.81073e-10
1.94082e-10
2.07206e-10
2.20471e-10
2.34059e-10
2.48358e-10
2.64444e-10
2.84098e-10
3.09306e-10
3.38585e-10
3.65791e-10
3.87224e-10
4.0796e-10
4.28069e-10
4.48071e-10
4.6806e-10
4.8814e-10
5.08363e-10
5.28758e-10
5.49348e-10
5.7014e-10
5.91138e-10
6.12353e-10
6.33778e-10
6.5541e-10
6.77244e-10
6.99295e-10
7.21567e-10
7.44041e-10
7.66727e-10
7.89617e-10
8.12693e-10
8.35968e-10
8.59444e-10
8.83121e-10
9.0699e-10
9.31039e-10
9.5527e-10
9.79672e-10
1.00425e-09
1.02902e-09
1.05395e-09
1.07904e-09
1.10427e-09
1.12964e-09
1.15515e-09
1.18081e-09
1.20661e-09
1.23252e-09
1.25854e-09
1.28466e-09
1.31085e-09
1.33711e-09
1.36344e-09
1.38982e-09
1.41621e-09
1.44259e-09
1.46896e-09
1.49524e-09
1.52141e-09
1.54743e-09
1.57321e-09
1.59871e-09
1.62388e-09
1.6486e-09
1.67282e-09
1.69646e-09
1.71944e-09
1.74163e-09
1.76294e-09
1.7833e-09
1.80265e-09
1.82095e-09
1.8382e-09
1.8545e-09
1.87007e-09
1.88555e-09
1.90247e-09
1.92434e-09
1.95907e-09
2.0235e-09
2.14974e-09
2.41358e-09
2.91926e-09
)
;

boundaryField
{
    inlet
    {
        type            calculated;
        value           uniform 0;
    }
    outlet
    {
        type            calculated;
        value           uniform 8.08856e-09;
    }
    emptyWalls
    {
        type            empty;
        value           nonuniform List<scalar> 0();
    }
}


// ************************************************************************* //
