/*--------------------------------*- C++ -*----------------------------------*\
  =========                 |
  \\      /  F ield         | OpenFOAM: The Open Source CFD Toolbox
   \\    /   O peration     | Website:  https://openfoam.org
    \\  /    A nd           | Version:  9
     \\/     M anipulation  |
\*---------------------------------------------------------------------------*/
FoamFile
{
    format      ascii;
    class       volScalarField;
    location    "3200";
    object      Sa;
}
// * * * * * * * * * * * * * * * * * * * * * * * * * * * * * * * * * * * * * //

dimensions      [0 0 0 0 0 0 0];

internalField   nonuniform List<scalar> 
100
(
0.543037
0.54641
0.53184
0.527113
0.519442
0.514219
0.509249
0.50494
0.50095
0.497352
0.494002
0.490959
0.488093
0.485474
0.482971
0.48066
0.478422
0.47634
0.474309
0.472372
0.470472
0.468491
0.466345
0.463719
0.460654
0.457399
0.45464
0.452348
0.450168
0.448109
0.446122
0.444195
0.442314
0.440472
0.438665
0.436895
0.435157
0.433447
0.431767
0.430108
0.428472
0.426861
0.42527
0.423704
0.422161
0.420636
0.419128
0.417638
0.416167
0.414715
0.41328
0.411862
0.41046
0.409069
0.407694
0.406336
0.404991
0.40366
0.402343
0.401038
0.399744
0.398465
0.3972
0.395948
0.394709
0.393483
0.392267
0.391065
0.389878
0.388706
0.387548
0.386405
0.385276
0.384162
0.383066
0.381989
0.380932
0.379895
0.378882
0.377895
0.376934
0.376004
0.375111
0.374253
0.373431
0.372648
0.371907
0.371211
0.370556
0.369947
0.369375
0.368822
0.36826
0.367616
0.366722
0.365208
0.362334
0.3566
0.341694
0.347176
)
;

boundaryField
{
    inlet
    {
        type            zeroGradient;
    }
    outlet
    {
        type            zeroGradient;
    }
    emptyWalls
    {
        type            empty;
    }
}


// ************************************************************************* //
