/*--------------------------------*- C++ -*----------------------------------*\
  =========                 |
  \\      /  F ield         | OpenFOAM: The Open Source CFD Toolbox
   \\    /   O peration     | Website:  https://openfoam.org
    \\  /    A nd           | Version:  9
     \\/     M anipulation  |
\*---------------------------------------------------------------------------*/
FoamFile
{
    format      ascii;
    class       volVectorField;
    location    "3200";
    object      Ua;
}
// * * * * * * * * * * * * * * * * * * * * * * * * * * * * * * * * * * * * * //

dimensions      [0 0 0 0 0 0 0];

internalField   nonuniform List<vector> 
100
(
(0 0 8.9385e-06)
(0 0 1.13006e-05)
(0 0 1.12937e-05)
(0 0 1.12834e-05)
(0 0 1.12672e-05)
(0 0 1.12574e-05)
(0 0 1.12549e-05)
(0 0 1.12494e-05)
(0 0 1.12419e-05)
(0 0 1.12333e-05)
(0 0 1.12243e-05)
(0 0 1.12149e-05)
(0 0 1.12054e-05)
(0 0 1.11958e-05)
(0 0 1.11861e-05)
(0 0 1.11763e-05)
(0 0 1.11664e-05)
(0 0 1.11567e-05)
(0 0 1.11466e-05)
(0 0 1.11365e-05)
(0 0 1.11259e-05)
(0 0 1.11138e-05)
(0 0 1.11004e-05)
(0 0 1.10835e-05)
(0 0 1.10627e-05)
(0 0 1.10399e-05)
(0 0 1.10204e-05)
(0 0 1.10042e-05)
(0 0 1.09875e-05)
(0 0 1.09704e-05)
(0 0 1.09537e-05)
(0 0 1.09372e-05)
(0 0 1.09207e-05)
(0 0 1.09038e-05)
(0 0 1.08867e-05)
(0 0 1.08696e-05)
(0 0 1.08525e-05)
(0 0 1.08353e-05)
(0 0 1.08179e-05)
(0 0 1.08e-05)
(0 0 1.07816e-05)
(0 0 1.0763e-05)
(0 0 1.07443e-05)
(0 0 1.07257e-05)
(0 0 1.07072e-05)
(0 0 1.06883e-05)
(0 0 1.0669e-05)
(0 0 1.06495e-05)
(0 0 1.06299e-05)
(0 0 1.06104e-05)
(0 0 1.05909e-05)
(0 0 1.05713e-05)
(0 0 1.05513e-05)
(0 0 1.0531e-05)
(0 0 1.05105e-05)
(0 0 1.04901e-05)
(0 0 1.04695e-05)
(0 0 1.04489e-05)
(0 0 1.04279e-05)
(0 0 1.04065e-05)
(0 0 1.03849e-05)
(0 0 1.03633e-05)
(0 0 1.03417e-05)
(0 0 1.03201e-05)
(0 0 1.02984e-05)
(0 0 1.02765e-05)
(0 0 1.02543e-05)
(0 0 1.02319e-05)
(0 0 1.02098e-05)
(0 0 1.01878e-05)
(0 0 1.01657e-05)
(0 0 1.01437e-05)
(0 0 1.01217e-05)
(0 0 1.00996e-05)
(0 0 1.00776e-05)
(0 0 1.00558e-05)
(0 0 1.00341e-05)
(0 0 1.00125e-05)
(0 0 9.99115e-06)
(0 0 9.97008e-06)
(0 0 9.94927e-06)
(0 0 9.92901e-06)
(0 0 9.90956e-06)
(0 0 9.89081e-06)
(0 0 9.87252e-06)
(0 0 9.85473e-06)
(0 0 9.83767e-06)
(0 0 9.82149e-06)
(0 0 9.80624e-06)
(0 0 9.79204e-06)
(0 0 9.77864e-06)
(0 0 9.76538e-06)
(0 0 9.75147e-06)
(0 0 9.73499e-06)
(0 0 9.71113e-06)
(0 0 9.66928e-06)
(0 0 9.58853e-06)
(0 0 9.42266e-06)
(0 0 9.06814e-06)
(0 0 6.32247e-06)
)
;

boundaryField
{
    inlet
    {
        type            fixedValue;
        value           uniform (0 0 1.131e-05);
    }
    outlet
    {
        type            zeroGradient;
    }
    emptyWalls
    {
        type            empty;
    }
}


// ************************************************************************* //
