/*--------------------------------*- C++ -*----------------------------------*\
  =========                 |
  \\      /  F ield         | OpenFOAM: The Open Source CFD Toolbox
   \\    /   O peration     | Website:  https://openfoam.org
    \\  /    A nd           | Version:  9
     \\/     M anipulation  |
\*---------------------------------------------------------------------------*/
FoamFile
{
    format      ascii;
    class       volVectorField;
    location    "3200";
    object      Ub;
}
// * * * * * * * * * * * * * * * * * * * * * * * * * * * * * * * * * * * * * //

dimensions      [0 0 0 0 0 0 0];

internalField   nonuniform List<vector> 
100
(
(0 0 7.20907e-06)
(0 0 4.8468e-06)
(0 0 4.84651e-06)
(0 0 4.84913e-06)
(0 0 4.85706e-06)
(0 0 4.85835e-06)
(0 0 4.85213e-06)
(0 0 4.84848e-06)
(0 0 4.84655e-06)
(0 0 4.84542e-06)
(0 0 4.84457e-06)
(0 0 4.84395e-06)
(0 0 4.8434e-06)
(0 0 4.84285e-06)
(0 0 4.84238e-06)
(0 0 4.84196e-06)
(0 0 4.84153e-06)
(0 0 4.84079e-06)
(0 0 4.8404e-06)
(0 0 4.8398e-06)
(0 0 4.8394e-06)
(0 0 4.83937e-06)
(0 0 4.83851e-06)
(0 0 4.83756e-06)
(0 0 4.83676e-06)
(0 0 4.83703e-06)
(0 0 4.83723e-06)
(0 0 4.8366e-06)
(0 0 4.83702e-06)
(0 0 4.83823e-06)
(0 0 4.83902e-06)
(0 0 4.83951e-06)
(0 0 4.84003e-06)
(0 0 4.84077e-06)
(0 0 4.84155e-06)
(0 0 4.84214e-06)
(0 0 4.84264e-06)
(0 0 4.84306e-06)
(0 0 4.84348e-06)
(0 0 4.84423e-06)
(0 0 4.84533e-06)
(0 0 4.8465e-06)
(0 0 4.84753e-06)
(0 0 4.8483e-06)
(0 0 4.84892e-06)
(0 0 4.84965e-06)
(0 0 4.85063e-06)
(0 0 4.85172e-06)
(0 0 4.8527e-06)
(0 0 4.85345e-06)
(0 0 4.85403e-06)
(0 0 4.85459e-06)
(0 0 4.85532e-06)
(0 0 4.8563e-06)
(0 0 4.85732e-06)
(0 0 4.85814e-06)
(0 0 4.85887e-06)
(0 0 4.85966e-06)
(0 0 4.86059e-06)
(0 0 4.86181e-06)
(0 0 4.8632e-06)
(0 0 4.86446e-06)
(0 0 4.86554e-06)
(0 0 4.86658e-06)
(0 0 4.86764e-06)
(0 0 4.86881e-06)
(0 0 4.87022e-06)
(0 0 4.87167e-06)
(0 0 4.87289e-06)
(0 0 4.87395e-06)
(0 0 4.87497e-06)
(0 0 4.87597e-06)
(0 0 4.87701e-06)
(0 0 4.87818e-06)
(0 0 4.87934e-06)
(0 0 4.88038e-06)
(0 0 4.88146e-06)
(0 0 4.88264e-06)
(0 0 4.88382e-06)
(0 0 4.88504e-06)
(0 0 4.88638e-06)
(0 0 4.8876e-06)
(0 0 4.8885e-06)
(0 0 4.88927e-06)
(0 0 4.89025e-06)
(0 0 4.89147e-06)
(0 0 4.89273e-06)
(0 0 4.89393e-06)
(0 0 4.89504e-06)
(0 0 4.89589e-06)
(0 0 4.8966e-06)
(0 0 4.8975e-06)
(0 0 4.89853e-06)
(0 0 4.89957e-06)
(0 0 4.90091e-06)
(0 0 4.90331e-06)
(0 0 4.90819e-06)
(0 0 4.91885e-06)
(0 0 4.96719e-06)
(0 0 5.45486e-06)
)
;

boundaryField
{
    inlet
    {
        type            fixedValue;
        value           uniform (0 0 4.84716e-06);
    }
    outlet
    {
        type            zeroGradient;
    }
    emptyWalls
    {
        type            empty;
    }
}


// ************************************************************************* //
