/*--------------------------------*- C++ -*----------------------------------*\
  =========                 |
  \\      /  F ield         | OpenFOAM: The Open Source CFD Toolbox
   \\    /   O peration     | Website:  https://openfoam.org
    \\  /    A nd           | Version:  9
     \\/     M anipulation  |
\*---------------------------------------------------------------------------*/
FoamFile
{
    format      ascii;
    class       volVectorField;
    location    "3200";
    object      Uc;
}
// * * * * * * * * * * * * * * * * * * * * * * * * * * * * * * * * * * * * * //

dimensions      [0 0 0 0 0 0 0];

internalField   nonuniform List<vector> 
100
(
(0 0 9.63047e-09)
(0 0 9.84085e-09)
(0 0 1.69618e-08)
(0 0 2.4707e-08)
(0 0 3.29028e-08)
(0 0 4.1411e-08)
(0 0 5.01906e-08)
(0 0 5.93164e-08)
(0 0 6.87582e-08)
(0 0 7.84517e-08)
(0 0 8.83239e-08)
(0 0 9.8316e-08)
(0 0 1.08389e-07)
(0 0 1.1852e-07)
(0 0 1.28705e-07)
(0 0 1.38953e-07)
(0 0 1.49269e-07)
(0 0 1.59667e-07)
(0 0 1.70167e-07)
(0 0 1.80852e-07)
(0 0 1.91948e-07)
(0 0 2.04037e-07)
(0 0 2.18258e-07)
(0 0 2.36108e-07)
(0 0 2.57788e-07)
(0 0 2.80262e-07)
(0 0 2.99615e-07)
(0 0 3.16394e-07)
(0 0 3.32645e-07)
(0 0 3.48605e-07)
(0 0 3.64517e-07)
(0 0 3.8046e-07)
(0 0 3.96496e-07)
(0 0 4.12657e-07)
(0 0 4.28964e-07)
(0 0 4.4543e-07)
(0 0 4.62058e-07)
(0 0 4.78854e-07)
(0 0 4.9582e-07)
(0 0 5.12952e-07)
(0 0 5.30247e-07)
(0 0 5.47708e-07)
(0 0 5.65343e-07)
(0 0 5.83147e-07)
(0 0 6.01116e-07)
(0 0 6.1925e-07)
(0 0 6.37539e-07)
(0 0 6.55981e-07)
(0 0 6.74583e-07)
(0 0 6.93344e-07)
(0 0 7.12262e-07)
(0 0 7.31329e-07)
(0 0 7.50539e-07)
(0 0 7.69889e-07)
(0 0 7.89378e-07)
(0 0 8.09011e-07)
(0 0 8.28785e-07)
(0 0 8.48688e-07)
(0 0 8.6871e-07)
(0 0 8.88843e-07)
(0 0 9.09089e-07)
(0 0 9.29451e-07)
(0 0 9.49925e-07)
(0 0 9.705e-07)
(0 0 9.91164e-07)
(0 0 1.01191e-06)
(0 0 1.03272e-06)
(0 0 1.05359e-06)
(0 0 1.07452e-06)
(0 0 1.09549e-06)
(0 0 1.11648e-06)
(0 0 1.13748e-06)
(0 0 1.15847e-06)
(0 0 1.17942e-06)
(0 0 1.20029e-06)
(0 0 1.22105e-06)
(0 0 1.24166e-06)
(0 0 1.26207e-06)
(0 0 1.28223e-06)
(0 0 1.30208e-06)
(0 0 1.32155e-06)
(0 0 1.34059e-06)
(0 0 1.35914e-06)
(0 0 1.37712e-06)
(0 0 1.39443e-06)
(0 0 1.41101e-06)
(0 0 1.42681e-06)
(0 0 1.44178e-06)
(0 0 1.45593e-06)
(0 0 1.46928e-06)
(0 0 1.48196e-06)
(0 0 1.49432e-06)
(0 0 1.50721e-06)
(0 0 1.52264e-06)
(0 0 1.54516e-06)
(0 0 1.58461e-06)
(0 0 1.66048e-06)
(0 0 1.81569e-06)
(0 0 2.12187e-06)
(0 0 4.37987e-06)
)
;

boundaryField
{
    inlet
    {
        type            fixedValue;
        value           uniform (0 0 0);
    }
    outlet
    {
        type            zeroGradient;
    }
    emptyWalls
    {
        type            empty;
    }
}


// ************************************************************************* //
