/*--------------------------------*- C++ -*----------------------------------*\
  =========                 |
  \\      /  F ield         | OpenFOAM: The Open Source CFD Toolbox
   \\    /   O peration     | Website:  https://openfoam.org
    \\  /    A nd           | Version:  9
     \\/     M anipulation  |
\*---------------------------------------------------------------------------*/
FoamFile
{
    format      ascii;
    class       volScalarField;
    location    "17000";
    object      Fb;
}
// * * * * * * * * * * * * * * * * * * * * * * * * * * * * * * * * * * * * * //

dimensions      [0 0 0 0 0 0 0];

internalField   nonuniform List<scalar> 
1000
(
0.805098
0.805286
0.805165
0.805256
0.805233
0.80526
0.805276
0.805308
0.805321
0.805364
0.805384
0.805423
0.805465
0.805491
0.805573
0.805543
0.805694
0.805566
0.805775
0.805607
0.805812
0.805793
0.806304
0.810474
0.828279
0.832734
0.833577
0.833681
0.833302
0.832728
0.832395
0.832486
0.832831
0.833186
0.83366
0.834381
0.835034
0.835553
0.835922
0.836154
0.836275
0.836324
0.836309
0.83621
0.836142
0.83611
0.836085
0.836054
0.836049
0.836042
0.836057
0.83607
0.83608
0.83609
0.836094
0.836093
0.836083
0.836067
0.836038
0.836
0.835946
0.835876
0.83578
0.835656
0.835491
0.835284
0.83503
0.834743
0.834433
0.834106
0.833767
0.833418
0.833062
0.832698
0.832329
0.831956
0.831578
0.831196
0.830811
0.830422
0.830031
0.829636
0.829239
0.828839
0.828437
0.828032
0.827625
0.827216
0.826804
0.826391
0.825975
0.825556
0.825136
0.824712
0.824287
0.823859
0.823429
0.822996
0.822562
0.822126
0.82169
0.821253
0.820816
0.820378
0.81994
0.8195
0.819059
0.818615
0.81817
0.817722
0.817273
0.81682
0.816367
0.815912
0.815459
0.815005
0.814554
0.814103
0.813652
0.813197
0.812736
0.812264
0.811778
0.811274
0.810753
0.810211
0.809652
0.809075
0.808483
0.80788
0.807266
0.806647
0.806026
0.805407
0.804794
0.804191
0.803605
0.80304
0.8025
0.801989
0.80151
0.801066
0.800655
0.800276
0.799926
0.799601
0.799295
0.799002
0.798715
0.798428
0.798135
0.797832
0.797515
0.797181
0.796828
0.796456
0.796065
0.795656
0.79523
0.79479
0.794338
0.793876
0.793407
0.792931
0.792453
0.791972
0.79149
0.791009
0.790529
0.790051
0.789575
0.789101
0.78863
0.78816
0.787693
0.787227
0.786763
0.786299
0.785837
0.785375
0.784914
0.784453
0.783992
0.78353
0.783068
0.782606
0.782143
0.781679
0.781215
0.780749
0.780283
0.779816
0.779347
0.778878
0.778408
0.777936
0.777464
0.77699
0.776516
0.77604
0.775563
0.775085
0.774606
0.774126
0.773645
0.773163
0.772679
0.772194
0.771708
0.771221
0.770733
0.770244
0.769754
0.769262
0.768769
0.768275
0.76778
0.767284
0.766786
0.766288
0.765787
0.765286
0.764783
0.764279
0.763774
0.763268
0.762761
0.762252
0.761742
0.761232
0.760721
0.760208
0.759695
0.759181
0.758667
0.758151
0.757635
0.757117
0.756599
0.75608
0.75556
0.755039
0.754517
0.753995
0.753472
0.752948
0.752424
0.751899
0.751374
0.750847
0.750319
0.74979
0.749258
0.748723
0.748184
0.747641
0.747092
0.746538
0.745977
0.74541
0.744834
0.744252
0.743661
0.743064
0.742459
0.741848
0.741232
0.74061
0.739985
0.739358
0.73873
0.738103
0.737478
0.736858
0.736244
0.735638
0.735041
0.734455
0.733882
0.733323
0.732777
0.732246
0.73173
0.731227
0.730739
0.730262
0.729797
0.72934
0.728891
0.728446
0.728005
0.727565
0.727124
0.726681
0.726233
0.72578
0.725321
0.724854
0.72438
0.723897
0.723408
0.72291
0.722405
0.721892
0.721374
0.72085
0.720321
0.719787
0.719251
0.71871
0.718169
0.717624
0.717079
0.716532
0.715985
0.715437
0.71489
0.714342
0.713795
0.713248
0.712702
0.712156
0.71161
0.711064
0.710519
0.709973
0.709428
0.708883
0.708337
0.707792
0.707246
0.706699
0.706152
0.705605
0.705057
0.704508
0.703959
0.703408
0.702857
0.702305
0.701752
0.701198
0.700643
0.700087
0.69953
0.698972
0.698413
0.697853
0.697292
0.696729
0.696166
0.695601
0.695035
0.694468
0.6939
0.693331
0.692761
0.692189
0.691616
0.691042
0.690467
0.689891
0.689313
0.688734
0.688154
0.687573
0.686991
0.686407
0.685822
0.685236
0.684649
0.68406
0.68347
0.682879
0.682287
0.681694
0.681099
0.680504
0.679907
0.679309
0.67871
0.67811
0.677509
0.676906
0.676303
0.675699
0.675093
0.674487
0.673879
0.673271
0.672661
0.672051
0.671439
0.670827
0.670213
0.669599
0.668983
0.668367
0.667749
0.66713
0.66651
0.665889
0.665266
0.664642
0.664016
0.663388
0.662758
0.662125
0.66149
0.660852
0.660211
0.659566
0.658918
0.658266
0.657611
0.656951
0.656287
0.655619
0.654947
0.654271
0.65359
0.652907
0.652219
0.651529
0.650836
0.650141
0.649444
0.648746
0.648048
0.64735
0.646653
0.645958
0.645264
0.644574
0.643888
0.643205
0.642528
0.641856
0.64119
0.64053
0.639876
0.639229
0.638588
0.637954
0.637325
0.636702
0.636084
0.635471
0.634861
0.634255
0.633651
0.633048
0.632446
0.631844
0.631241
0.630637
0.63003
0.62942
0.628807
0.628191
0.62757
0.626945
0.626315
0.625681
0.625042
0.624399
0.623751
0.6231
0.622443
0.621784
0.62112
0.620453
0.619783
0.61911
0.618435
0.617757
0.617076
0.616394
0.61571
0.615025
0.614337
0.613649
0.612958
0.612268
0.611575
0.610882
0.610187
0.609492
0.608795
0.608098
0.607399
0.606699
0.605998
0.605296
0.604593
0.603889
0.603183
0.602476
0.601768
0.601058
0.600347
0.599634
0.59892
0.598204
0.597486
0.596767
0.596046
0.595324
0.5946
0.593874
0.593146
0.592416
0.591684
0.590951
0.590215
0.589478
0.588739
0.587997
0.587254
0.586509
0.585761
0.585012
0.584261
0.583507
0.582751
0.581994
0.581234
0.580471
0.579707
0.578941
0.578172
0.577401
0.576628
0.575853
0.575075
0.574295
0.573513
0.572729
0.571942
0.571153
0.570362
0.569568
0.568772
0.567973
0.567172
0.566369
0.565563
0.564755
0.563944
0.563131
0.562316
0.561498
0.560677
0.559854
0.559029
0.558201
0.55737
0.556537
0.555701
0.554863
0.554022
0.553179
0.552333
0.551484
0.550632
0.549778
0.548921
0.548061
0.547198
0.546332
0.545463
0.544591
0.543716
0.542838
0.541956
0.541071
0.540182
0.53929
0.538394
0.537494
0.536589
0.535682
0.534769
0.533852
0.532931
0.532006
0.531075
0.53014
0.5292
0.528255
0.527306
0.526351
0.525392
0.524428
0.523459
0.522485
0.521506
0.520523
0.519535
0.518543
0.517547
0.516547
0.515543
0.514536
0.513525
0.512511
0.511495
0.510475
0.509454
0.50843
0.507405
0.506377
0.505349
0.504319
0.503288
0.502256
0.501223
0.50019
0.499156
0.498121
0.497086
0.496051
0.495014
0.493978
0.49294
0.491902
0.490863
0.489823
0.488782
0.48774
0.486697
0.485653
0.484609
0.483565
0.48252
0.481475
0.480433
0.479392
0.478355
0.477322
0.476295
0.475275
0.474266
0.473269
0.472287
0.471323
0.470379
0.469459
0.468566
0.467704
0.466877
0.466087
0.465338
0.464631
0.46397
0.463356
0.46279
0.462274
0.461807
0.461387
0.461013
0.460684
0.460397
0.460149
0.459937
0.459756
0.459603
0.459472
0.459358
0.459254
0.459147
0.45902
0.458843
0.458563
0.458091
0.457267
0.45581
0.453229
0.448688
0.440826
0.427618
0.406544
0.37563
0.335697
0.292204
0.253223
0.224179
0.205466
0.194533
0.188512
0.185303
0.183624
0.182753
0.182305
0.182076
0.181959
0.181899
0.18187
0.181856
0.181849
0.181847
0.181846
0.181847
0.181848
0.18185
0.181851
0.181853
0.181855
0.181856
0.181858
0.181859
0.18186
0.181862
0.181863
0.181864
0.181865
0.181866
0.181867
0.181867
0.181868
0.181869
0.181869
0.18187
0.18187
0.18187
0.18187
0.18187
0.18187
0.18187
0.18187
0.181869
0.181869
0.181868
0.181868
0.181867
0.181866
0.181866
0.181865
0.181864
0.181863
0.181861
0.18186
0.181859
0.181858
0.181856
0.181855
0.181854
0.181852
0.181851
0.181849
0.181848
0.181846
0.181844
0.181842
0.181841
0.181839
0.181837
0.181835
0.181833
0.181831
0.181829
0.181827
0.181825
0.181822
0.18182
0.181818
0.181815
0.181812
0.181809
0.181806
0.181803
0.1818
0.181797
0.181793
0.181789
0.181785
0.181781
0.181776
0.181771
0.181766
0.181761
0.181755
0.181749
0.181743
0.181737
0.18173
0.181723
0.181715
0.181707
0.181699
0.181691
0.181682
0.181673
0.181664
0.181655
0.181645
0.181636
0.181626
0.181616
0.181606
0.181596
0.181586
0.181576
0.181566
0.181557
0.181547
0.181538
0.18153
0.181521
0.181513
0.181506
0.181499
0.181492
0.181487
0.181482
0.181477
0.181474
0.181471
0.181469
0.181467
0.181467
0.181467
0.181467
0.181467
0.18147
0.181473
0.181477
0.181482
0.181487
0.181493
0.1815
0.181507
0.181514
0.181522
0.181531
0.181539
0.181548
0.181557
0.181566
0.181575
0.181584
0.181593
0.181602
0.18161
0.181619
0.181627
0.181635
0.181643
0.181651
0.181658
0.181665
0.181671
0.181678
0.181684
0.181689
0.181694
0.181699
0.181704
0.181709
0.181713
0.181717
0.18172
0.181724
0.181727
0.18173
0.181733
0.181736
0.181738
0.181741
0.181743
0.181746
0.181748
0.18175
0.181752
0.181754
0.181756
0.181758
0.18176
0.181762
0.181764
0.181766
0.181768
0.18177
0.181772
0.181774
0.181776
0.181778
0.18178
0.181782
0.181785
0.181787
0.181789
0.181791
0.181793
0.181795
0.181798
0.1818
0.181802
0.181805
0.181807
0.181809
0.181812
0.181814
0.181817
0.181819
0.181821
0.181824
0.181826
0.181828
0.18183
0.181832
0.181834
0.181836
0.181838
0.18184
0.181841
0.181843
0.181844
0.181846
0.181847
0.181848
0.181849
0.18185
0.181851
0.181852
0.181853
0.181854
0.181854
0.181855
0.181855
0.181856
0.181856
0.181856
0.181857
0.181857
0.181857
0.181857
0.181857
0.181857
0.181856
0.181856
0.181856
0.181856
0.181855
0.181855
0.181854
0.181853
0.181853
0.181852
0.181851
0.18185
0.18185
0.181849
0.181848
0.181847
0.181846
0.181844
0.181843
0.181842
0.18184
0.181839
0.181838
0.181836
0.181834
0.181833
0.181831
0.181829
0.181827
0.181825
0.181822
0.181821
0.181817
0.181816
0.181812
0.18181
0.181806
0.181804
0.181799
0.181798
0.181792
0.18179
0.181783
0.181782
0.181774
0.181772
0.181764
0.181762
0.181753
0.181751
0.181741
0.181738
0.181728
0.181725
0.181713
0.181711
0.181698
0.181695
0.181683
0.181679
0.181662
)
;

boundaryField
{
    inlet
    {
        type            calculated;
        value           uniform 0.805169;
    }
    outlet
    {
        type            calculated;
        value           uniform 0.181664;
    }
    emptyWalls
    {
        type            empty;
    }
}


// ************************************************************************* //
