/*--------------------------------*- C++ -*----------------------------------*\
  =========                 |
  \\      /  F ield         | OpenFOAM: The Open Source CFD Toolbox
   \\    /   O peration     | Website:  https://openfoam.org
    \\  /    A nd           | Version:  9
     \\/     M anipulation  |
\*---------------------------------------------------------------------------*/
FoamFile
{
    format      ascii;
    class       volScalarField;
    location    "89000";
    object      krc;
}
// * * * * * * * * * * * * * * * * * * * * * * * * * * * * * * * * * * * * * //

dimensions      [0 0 0 0 0 0 0];

internalField   nonuniform List<scalar> 
100
(
8.50797e-22
7.4634e-24
7.80698e-24
1.03128e-23
1.34675e-24
8.8612e-24
1.30033e-24
5.20632e-26
5.00289e-24
1.92894e-24
5.7363e-24
1.10143e-25
2.7614e-24
4.25299e-24
7.01897e-24
4.93325e-24
6.86797e-24
1.25613e-24
5.79776e-24
7.81795e-24
6.03118e-25
7.80303e-24
1.30104e-24
6.22813e-24
5.45004e-24
7.09112e-24
4.93186e-24
6.52066e-24
4.79062e-24
5.65649e-24
4.2572e-24
1.63835e-24
9.58586e-24
7.62425e-24
2.20059e-25
8.80847e-24
8.56752e-25
4.7126e-25
1.4511e-24
2.56089e-24
1.12928e-24
6.20269e-24
2.06177e-23
9.95984e-25
1.0833e-23
2.65112e-24
1.49821e-25
1.9499e-23
9.01918e-26
7.38079e-25
5.0893e-24
3.14989e-24
2.04945e-23
1.158e-24
3.53589e-25
1.34756e-23
1.49128e-24
2.95623e-24
1.359e-23
9.03356e-24
8.92301e-24
5.66695e-24
2.21583e-24
4.83609e-24
4.89816e-27
9.06663e-24
6.02412e-24
8.38088e-24
5.58836e-24
9.16594e-26
7.2585e-24
5.80684e-24
9.38851e-25
1.41893e-24
5.25642e-24
3.22896e-24
1.80062e-23
2.90666e-23
9.70537e-23
7.78165e-23
1.84069e-22
1.32178e-22
2.98753e-22
5.1942e-22
6.58531e-22
9.6568e-22
1.44212e-21
2.09047e-21
2.84622e-21
4.12053e-21
5.55423e-21
7.84785e-21
1.21122e-20
1.42239e-20
3.97191e-21
6.31308e-20
5.81589e-18
2.4684e-17
6.43704e-16
4.07542e-15
)
;

boundaryField
{
    inlet
    {
        type            calculated;
        value           uniform 8.50797e-22;
    }
    outlet
    {
        type            calculated;
        value           uniform 4.07542e-15;
    }
    emptyWalls
    {
        type            empty;
    }
}


// ************************************************************************* //
