/*--------------------------------*- C++ -*----------------------------------*\
  =========                 |
  \\      /  F ield         | OpenFOAM: The Open Source CFD Toolbox
   \\    /   O peration     | Website:  https://openfoam.org
    \\  /    A nd           | Version:  9
     \\/     M anipulation  |
\*---------------------------------------------------------------------------*/
FoamFile
{
    format      ascii;
    class       volScalarField;
    location    "11800";
    object      Fb;
}
// * * * * * * * * * * * * * * * * * * * * * * * * * * * * * * * * * * * * * //

dimensions      [0 0 0 0 0 0 0];

internalField   nonuniform List<scalar> 
1000
(
0.805382
0.80507
0.805287
0.805177
0.805277
0.805282
0.805354
0.805385
0.805447
0.805489
0.805551
0.805585
0.805652
0.805718
0.805923
0.80737
0.820015
0.831989
0.834022
0.834817
0.835256
0.835577
0.835805
0.836003
0.836153
0.836286
0.836386
0.836473
0.836541
0.836597
0.836626
0.836672
0.836663
0.836692
0.836665
0.836659
0.836632
0.836584
0.836529
0.836452
0.836359
0.836234
0.836076
0.835862
0.83558
0.835213
0.834777
0.834302
0.833796
0.833268
0.83272
0.832156
0.831577
0.830988
0.83039
0.829787
0.829183
0.828577
0.827964
0.827334
0.826678
0.825986
0.825256
0.824491
0.823695
0.822879
0.822051
0.821217
0.820385
0.819559
0.818746
0.817953
0.817187
0.816458
0.815773
0.815139
0.814559
0.814034
0.813559
0.813126
0.812727
0.812347
0.811974
0.811595
0.811201
0.810781
0.81033
0.809845
0.809323
0.808767
0.808178
0.807562
0.806923
0.806265
0.805594
0.804915
0.80423
0.803544
0.802859
0.802177
0.801499
0.800825
0.800155
0.79949
0.798828
0.79817
0.797514
0.79686
0.796206
0.795554
0.794901
0.794248
0.793594
0.79294
0.792283
0.791626
0.790967
0.790307
0.789644
0.788981
0.788315
0.787648
0.78698
0.786309
0.785637
0.784964
0.784288
0.783611
0.782932
0.782252
0.78157
0.780887
0.780202
0.779515
0.778827
0.778137
0.777445
0.776753
0.776057
0.775361
0.774662
0.773963
0.77326
0.772558
0.771851
0.771145
0.770435
0.769726
0.769012
0.768299
0.767581
0.766864
0.766143
0.765422
0.764698
0.763973
0.763245
0.762516
0.761785
0.761052
0.760317
0.759581
0.758843
0.758103
0.757362
0.756619
0.755875
0.755129
0.754383
0.753635
0.752886
0.752136
0.751386
0.750634
0.74988
0.749126
0.74837
0.747612
0.746853
0.746092
0.74533
0.744566
0.7438
0.743033
0.742264
0.741493
0.740719
0.739943
0.739162
0.738378
0.737588
0.736792
0.735989
0.735179
0.73436
0.733532
0.732695
0.731848
0.730993
0.730129
0.729256
0.728377
0.727491
0.726602
0.725709
0.724815
0.723923
0.723034
0.722151
0.721276
0.720411
0.719559
0.718721
0.717899
0.717094
0.716308
0.715539
0.714788
0.714054
0.713336
0.71263
0.711935
0.711249
0.710568
0.709889
0.70921
0.708527
0.70784
0.707145
0.70644
0.705725
0.705
0.704262
0.703513
0.702753
0.701982
0.701201
0.700411
0.699612
0.698806
0.697994
0.697177
0.696355
0.69553
0.694703
0.693873
0.693042
0.69221
0.691377
0.690544
0.68971
0.688877
0.688044
0.68721
0.686377
0.685543
0.684709
0.683874
0.683039
0.682203
0.681366
0.680527
0.679688
0.678847
0.678004
0.67716
0.676314
0.675466
0.674617
0.673765
0.672911
0.672055
0.671197
0.670337
0.669475
0.668611
0.667744
0.666875
0.666005
0.665132
0.664257
0.663379
0.6625
0.661618
0.660735
0.659849
0.658961
0.658071
0.657179
0.656284
0.655388
0.654489
0.653588
0.652685
0.651779
0.650871
0.649961
0.649048
0.648134
0.647216
0.646297
0.645375
0.64445
0.643523
0.642593
0.641661
0.640727
0.63979
0.63885
0.637908
0.636963
0.636016
0.635066
0.634113
0.633158
0.6322
0.631239
0.630276
0.62931
0.628342
0.627371
0.626397
0.62542
0.624441
0.623459
0.622475
0.621488
0.620498
0.619505
0.618511
0.617513
0.616513
0.615509
0.614504
0.613494
0.612483
0.611468
0.610451
0.60943
0.608406
0.60738
0.60635
0.605316
0.604279
0.603239
0.602195
0.601146
0.600094
0.599037
0.597976
0.59691
0.595839
0.594762
0.59368
0.592592
0.591499
0.590398
0.589292
0.588179
0.58706
0.585934
0.584802
0.583662
0.582519
0.581365
0.580211
0.579045
0.577881
0.576705
0.575533
0.574349
0.57317
0.571982
0.570798
0.569607
0.568421
0.567231
0.566044
0.564858
0.563672
0.562491
0.561309
0.560134
0.558958
0.557786
0.556617
0.555449
0.554284
0.553119
0.551956
0.550791
0.549626
0.54846
0.54729
0.546117
0.544939
0.543756
0.542566
0.541369
0.540165
0.538952
0.53773
0.536499
0.535258
0.534007
0.532747
0.531476
0.530195
0.528903
0.527602
0.52629
0.524969
0.523638
0.522298
0.520949
0.51959
0.518223
0.516846
0.515461
0.514068
0.512666
0.511257
0.50984
0.508414
0.506981
0.505539
0.50409
0.502634
0.50117
0.4997
0.498222
0.496737
0.495247
0.49375
0.492249
0.490743
0.489234
0.487724
0.486213
0.484703
0.483197
0.481698
0.480209
0.478735
0.477279
0.475845
0.474442
0.473072
0.471746
0.470468
0.469245
0.468085
0.466992
0.465973
0.465031
0.464171
0.463393
0.462696
0.462077
0.461531
0.46105
0.460618
0.460213
0.4598
0.459318
0.458665
0.457663
0.456009
0.453173
0.44826
0.43983
0.42577
0.403542
0.371371
0.330585
0.287177
0.249191
0.221455
0.203842
0.193645
0.188058
0.185089
0.183537
0.182732
0.182318
0.182104
0.181995
0.181938
0.18191
0.181895
0.181887
0.181883
0.181881
0.181879
0.181879
0.181878
0.181878
0.181877
0.181877
0.181876
0.181875
0.181875
0.181874
0.181873
0.181873
0.181872
0.181871
0.18187
0.181869
0.181868
0.181867
0.181866
0.181865
0.181863
0.181862
0.181861
0.18186
0.181858
0.181857
0.181855
0.181854
0.181852
0.181851
0.181849
0.181847
0.181845
0.181844
0.181841
0.181839
0.181837
0.181835
0.181832
0.181829
0.181826
0.181823
0.18182
0.181816
0.181812
0.181808
0.181804
0.181799
0.181794
0.181788
0.181782
0.181776
0.181769
0.181762
0.181754
0.181746
0.181738
0.181728
0.181719
0.181709
0.181698
0.181687
0.181675
0.181664
0.181651
0.181639
0.181626
0.181612
0.181599
0.181585
0.181571
0.181558
0.181544
0.181531
0.181517
0.181504
0.181492
0.18148
0.181468
0.181458
0.181448
0.181439
0.18143
0.181423
0.181418
0.181413
0.181409
0.181407
0.181406
0.181406
0.181406
0.181407
0.18141
0.181416
0.181422
0.181429
0.181438
0.181447
0.181457
0.181468
0.181479
0.181491
0.181503
0.181516
0.181528
0.181541
0.181554
0.181566
0.181578
0.18159
0.181601
0.181612
0.181623
0.181633
0.181642
0.181651
0.181659
0.181667
0.181674
0.181681
0.181687
0.181692
0.181697
0.181702
0.181706
0.181709
0.181713
0.181716
0.181719
0.181721
0.181724
0.181726
0.181728
0.18173
0.181732
0.181734
0.181736
0.181738
0.18174
0.181742
0.181744
0.181746
0.181748
0.18175
0.181753
0.181755
0.181757
0.18176
0.181762
0.181765
0.181767
0.18177
0.181773
0.181775
0.181778
0.181781
0.181784
0.181787
0.181789
0.181792
0.181795
0.181797
0.1818
0.181803
0.181805
0.181808
0.18181
0.181813
0.181815
0.181817
0.18182
0.181822
0.181824
0.181826
0.181828
0.18183
0.181831
0.181833
0.181835
0.181836
0.181838
0.181839
0.181841
0.181842
0.181843
0.181844
0.181845
0.181846
0.181847
0.181848
0.181849
0.181849
0.18185
0.18185
0.181851
0.181851
0.181852
0.181852
0.181852
0.181852
0.181853
0.181853
0.181852
0.181852
0.181852
0.181852
0.181852
0.181852
0.181851
0.181851
0.181851
0.181851
0.18185
0.18185
0.18185
0.181849
0.181849
0.181848
0.181848
0.181848
0.181847
0.181847
0.181846
0.181845
0.181845
0.181844
0.181843
0.181842
0.181841
0.18184
0.181839
0.181837
0.181836
0.181834
0.181833
0.181831
0.181829
0.181827
0.181825
0.181823
0.181821
0.181819
0.181816
0.181814
0.181811
0.181808
0.181805
0.181801
0.181798
0.181794
0.18179
0.181786
0.181782
0.181777
0.181772
0.181767
0.181762
0.181756
0.18175
0.181743
0.181736
0.181729
0.181721
0.181713
0.181705
0.181696
0.181687
0.181678
0.181668
0.181658
0.181648
0.181637
0.181627
0.181616
0.181604
0.181593
0.181582
0.18157
0.181559
0.181548
0.181536
0.181525
0.181515
0.181504
0.181494
0.181485
0.181476
0.181467
0.181459
0.181452
0.181446
0.18144
0.181435
0.181432
0.181429
0.181427
0.181426
0.181426
0.181426
0.181426
0.181428
0.181432
0.181437
0.181442
0.181449
0.181456
0.181464
0.181473
0.181482
0.181492
0.181502
0.181512
0.181523
0.181534
0.181545
0.181556
0.181566
0.181577
0.181588
0.181598
0.181608
0.181618
0.181627
0.181636
0.181645
0.181653
0.181661
0.181668
0.181675
0.181681
0.181687
0.181693
0.181698
0.181703
0.181708
0.181712
0.181716
0.18172
0.181723
0.181727
0.18173
0.181733
0.181736
0.181739
0.181741
0.181744
0.181747
0.181749
0.181752
0.181754
0.181757
0.181759
0.181762
0.181765
0.181767
0.18177
0.181772
0.181775
0.181778
0.18178
0.181783
0.181786
0.181789
0.181791
0.181794
0.181797
0.1818
0.181802
0.181805
0.181808
0.18181
0.181813
0.181815
0.181818
0.18182
0.181823
0.181825
0.181827
0.18183
0.181832
0.181834
0.181836
0.181838
0.18184
0.181842
0.181843
0.181845
0.181846
0.181848
0.181849
0.18185
0.181852
0.181853
0.181854
0.181855
0.181856
0.181856
0.181857
0.181858
0.181858
0.181859
0.181859
0.181859
0.18186
0.18186
0.18186
0.18186
0.18186
0.18186
0.18186
0.18186
0.18186
0.18186
0.181859
0.181859
0.181859
0.181858
0.181858
0.181857
0.181857
0.181856
0.181855
0.181855
0.181854
0.181853
0.181852
0.181851
0.18185
0.181849
0.181848
0.181847
0.181846
0.181845
0.181843
0.181842
0.18184
0.181839
0.181837
0.181836
0.181834
0.181832
0.18183
0.181828
0.181826
0.181824
0.181822
0.18182
0.181817
0.181815
0.181812
0.181809
0.181806
0.181803
0.1818
0.181796
0.181793
0.181789
0.181785
0.181781
0.181776
0.181772
0.181767
0.181762
0.181756
0.18175
0.181744
0.181738
0.181732
0.181725
0.181718
0.181711
0.181703
0.181695
0.181687
0.181679
0.18167
0.181661
0.181652
0.181643
0.181634
0.181624
0.181615
0.181605
0.181595
0.181585
0.181576
0.181566
0.181557
0.181547
0.181538
0.18153
0.181521
0.181513
0.181505
0.181498
0.181491
0.181485
0.181479
0.181474
0.181469
0.181465
0.181462
0.18146
0.181459
0.181458
0.181458
0.181457
)
;

boundaryField
{
    inlet
    {
        type            calculated;
        value           uniform 0.805169;
    }
    outlet
    {
        type            calculated;
        value           uniform 0.181459;
    }
    emptyWalls
    {
        type            empty;
    }
}


// ************************************************************************* //
