/*--------------------------------*- C++ -*----------------------------------*\
  =========                 |
  \\      /  F ield         | OpenFOAM: The Open Source CFD Toolbox
   \\    /   O peration     | Website:  https://openfoam.org
    \\  /    A nd           | Version:  9
     \\/     M anipulation  |
\*---------------------------------------------------------------------------*/
FoamFile
{
    format      ascii;
    class       volVectorField;
    location    "11800";
    object      Uc;
}
// * * * * * * * * * * * * * * * * * * * * * * * * * * * * * * * * * * * * * //

dimensions      [0 0 0 0 0 0 0];

internalField   nonuniform List<vector> 
1000
(
(2.11215e-11 0 0)
(1.16186e-10 0 0)
(3.19672e-10 0 0)
(6.28726e-10 0 0)
(1.03395e-09 0 0)
(1.5261e-09 0 0)
(2.09076e-09 0 0)
(2.70641e-09 0 0)
(3.34542e-09 0 0)
(3.97782e-09 0 0)
(4.57923e-09 0 0)
(5.15132e-09 0 0)
(5.81104e-09 0 0)
(7.21231e-09 0 0)
(1.18681e-08 0 0)
(3.13395e-08 0 0)
(1.09416e-07 0 0)
(1.88183e-07 0 0)
(2.09714e-07 0 0)
(2.17223e-07 0 0)
(2.21442e-07 0 0)
(2.24515e-07 0 0)
(2.27058e-07 0 0)
(2.29303e-07 0 0)
(2.31355e-07 0 0)
(2.33267e-07 0 0)
(2.35068e-07 0 0)
(2.36779e-07 0 0)
(2.38419e-07 0 0)
(2.40005e-07 0 0)
(2.41556e-07 0 0)
(2.43089e-07 0 0)
(2.44621e-07 0 0)
(2.46169e-07 0 0)
(2.47749e-07 0 0)
(2.49409e-07 0 0)
(2.51178e-07 0 0)
(2.53042e-07 0 0)
(2.55018e-07 0 0)
(2.57146e-07 0 0)
(2.59489e-07 0 0)
(2.62149e-07 0 0)
(2.65267e-07 0 0)
(2.69019e-07 0 0)
(2.73563e-07 0 0)
(2.78965e-07 0 0)
(2.85147e-07 0 0)
(2.91931e-07 0 0)
(2.99141e-07 0 0)
(3.06655e-07 0 0)
(3.14393e-07 0 0)
(3.22301e-07 0 0)
(3.30342e-07 0 0)
(3.38492e-07 0 0)
(3.46734e-07 0 0)
(3.55054e-07 0 0)
(3.63443e-07 0 0)
(3.71894e-07 0 0)
(3.80398e-07 0 0)
(3.88949e-07 0 0)
(3.97537e-07 0 0)
(4.06158e-07 0 0)
(4.14805e-07 0 0)
(4.23477e-07 0 0)
(4.32174e-07 0 0)
(4.40896e-07 0 0)
(4.49645e-07 0 0)
(4.58422e-07 0 0)
(4.67229e-07 0 0)
(4.76067e-07 0 0)
(4.84938e-07 0 0)
(4.93845e-07 0 0)
(5.02791e-07 0 0)
(5.1178e-07 0 0)
(5.20817e-07 0 0)
(5.29905e-07 0 0)
(5.39046e-07 0 0)
(5.48242e-07 0 0)
(5.57491e-07 0 0)
(5.6679e-07 0 0)
(5.76135e-07 0 0)
(5.85519e-07 0 0)
(5.94937e-07 0 0)
(6.0438e-07 0 0)
(6.13842e-07 0 0)
(6.23318e-07 0 0)
(6.32803e-07 0 0)
(6.42293e-07 0 0)
(6.51787e-07 0 0)
(6.61284e-07 0 0)
(6.70785e-07 0 0)
(6.80291e-07 0 0)
(6.89803e-07 0 0)
(6.99325e-07 0 0)
(7.08858e-07 0 0)
(7.18406e-07 0 0)
(7.2797e-07 0 0)
(7.37552e-07 0 0)
(7.47154e-07 0 0)
(7.56777e-07 0 0)
(7.66421e-07 0 0)
(7.76088e-07 0 0)
(7.85777e-07 0 0)
(7.95488e-07 0 0)
(8.0522e-07 0 0)
(8.14974e-07 0 0)
(8.24748e-07 0 0)
(8.34543e-07 0 0)
(8.44357e-07 0 0)
(8.54189e-07 0 0)
(8.64041e-07 0 0)
(8.7391e-07 0 0)
(8.83797e-07 0 0)
(8.93702e-07 0 0)
(9.03623e-07 0 0)
(9.13561e-07 0 0)
(9.23516e-07 0 0)
(9.33487e-07 0 0)
(9.43475e-07 0 0)
(9.53478e-07 0 0)
(9.63498e-07 0 0)
(9.73534e-07 0 0)
(9.83586e-07 0 0)
(9.93653e-07 0 0)
(1.00374e-06 0 0)
(1.01384e-06 0 0)
(1.02395e-06 0 0)
(1.03408e-06 0 0)
(1.04422e-06 0 0)
(1.05439e-06 0 0)
(1.06456e-06 0 0)
(1.07475e-06 0 0)
(1.08496e-06 0 0)
(1.09518e-06 0 0)
(1.10542e-06 0 0)
(1.11567e-06 0 0)
(1.12594e-06 0 0)
(1.13622e-06 0 0)
(1.14651e-06 0 0)
(1.15682e-06 0 0)
(1.16715e-06 0 0)
(1.17749e-06 0 0)
(1.18785e-06 0 0)
(1.19821e-06 0 0)
(1.2086e-06 0 0)
(1.219e-06 0 0)
(1.22941e-06 0 0)
(1.23983e-06 0 0)
(1.25028e-06 0 0)
(1.26073e-06 0 0)
(1.2712e-06 0 0)
(1.28168e-06 0 0)
(1.29218e-06 0 0)
(1.30269e-06 0 0)
(1.31321e-06 0 0)
(1.32375e-06 0 0)
(1.33431e-06 0 0)
(1.34487e-06 0 0)
(1.35545e-06 0 0)
(1.36605e-06 0 0)
(1.37665e-06 0 0)
(1.38728e-06 0 0)
(1.39791e-06 0 0)
(1.40856e-06 0 0)
(1.41923e-06 0 0)
(1.4299e-06 0 0)
(1.4406e-06 0 0)
(1.45131e-06 0 0)
(1.46203e-06 0 0)
(1.47276e-06 0 0)
(1.48352e-06 0 0)
(1.49428e-06 0 0)
(1.50507e-06 0 0)
(1.51586e-06 0 0)
(1.52668e-06 0 0)
(1.5375e-06 0 0)
(1.54834e-06 0 0)
(1.5592e-06 0 0)
(1.57007e-06 0 0)
(1.58095e-06 0 0)
(1.59185e-06 0 0)
(1.60276e-06 0 0)
(1.61369e-06 0 0)
(1.62463e-06 0 0)
(1.63559e-06 0 0)
(1.64655e-06 0 0)
(1.65754e-06 0 0)
(1.66853e-06 0 0)
(1.67953e-06 0 0)
(1.69055e-06 0 0)
(1.70157e-06 0 0)
(1.7126e-06 0 0)
(1.72363e-06 0 0)
(1.73466e-06 0 0)
(1.7457e-06 0 0)
(1.75673e-06 0 0)
(1.76777e-06 0 0)
(1.7788e-06 0 0)
(1.78983e-06 0 0)
(1.80087e-06 0 0)
(1.8119e-06 0 0)
(1.82293e-06 0 0)
(1.83397e-06 0 0)
(1.84501e-06 0 0)
(1.85607e-06 0 0)
(1.86713e-06 0 0)
(1.87822e-06 0 0)
(1.88933e-06 0 0)
(1.90046e-06 0 0)
(1.91163e-06 0 0)
(1.92284e-06 0 0)
(1.93409e-06 0 0)
(1.94539e-06 0 0)
(1.95674e-06 0 0)
(1.96814e-06 0 0)
(1.97961e-06 0 0)
(1.99113e-06 0 0)
(2.00271e-06 0 0)
(2.01435e-06 0 0)
(2.02605e-06 0 0)
(2.0378e-06 0 0)
(2.0496e-06 0 0)
(2.06144e-06 0 0)
(2.07331e-06 0 0)
(2.08522e-06 0 0)
(2.09715e-06 0 0)
(2.1091e-06 0 0)
(2.12107e-06 0 0)
(2.13304e-06 0 0)
(2.14501e-06 0 0)
(2.15699e-06 0 0)
(2.16896e-06 0 0)
(2.18093e-06 0 0)
(2.1929e-06 0 0)
(2.20486e-06 0 0)
(2.21682e-06 0 0)
(2.22878e-06 0 0)
(2.24074e-06 0 0)
(2.2527e-06 0 0)
(2.26467e-06 0 0)
(2.27664e-06 0 0)
(2.28863e-06 0 0)
(2.30063e-06 0 0)
(2.31264e-06 0 0)
(2.32467e-06 0 0)
(2.33671e-06 0 0)
(2.34878e-06 0 0)
(2.36087e-06 0 0)
(2.37298e-06 0 0)
(2.38512e-06 0 0)
(2.39728e-06 0 0)
(2.40946e-06 0 0)
(2.42167e-06 0 0)
(2.4339e-06 0 0)
(2.44616e-06 0 0)
(2.45845e-06 0 0)
(2.47076e-06 0 0)
(2.48309e-06 0 0)
(2.49545e-06 0 0)
(2.50783e-06 0 0)
(2.52024e-06 0 0)
(2.53267e-06 0 0)
(2.54513e-06 0 0)
(2.5576e-06 0 0)
(2.57011e-06 0 0)
(2.58263e-06 0 0)
(2.59518e-06 0 0)
(2.60775e-06 0 0)
(2.62034e-06 0 0)
(2.63295e-06 0 0)
(2.64559e-06 0 0)
(2.65825e-06 0 0)
(2.67094e-06 0 0)
(2.68364e-06 0 0)
(2.69637e-06 0 0)
(2.70912e-06 0 0)
(2.7219e-06 0 0)
(2.7347e-06 0 0)
(2.74752e-06 0 0)
(2.76037e-06 0 0)
(2.77324e-06 0 0)
(2.78613e-06 0 0)
(2.79905e-06 0 0)
(2.81199e-06 0 0)
(2.82496e-06 0 0)
(2.83796e-06 0 0)
(2.85098e-06 0 0)
(2.86402e-06 0 0)
(2.87709e-06 0 0)
(2.89019e-06 0 0)
(2.90331e-06 0 0)
(2.91646e-06 0 0)
(2.92963e-06 0 0)
(2.94283e-06 0 0)
(2.95606e-06 0 0)
(2.96931e-06 0 0)
(2.98259e-06 0 0)
(2.9959e-06 0 0)
(3.00923e-06 0 0)
(3.02259e-06 0 0)
(3.03598e-06 0 0)
(3.0494e-06 0 0)
(3.06285e-06 0 0)
(3.07632e-06 0 0)
(3.08982e-06 0 0)
(3.10335e-06 0 0)
(3.11691e-06 0 0)
(3.1305e-06 0 0)
(3.14411e-06 0 0)
(3.15776e-06 0 0)
(3.17143e-06 0 0)
(3.18514e-06 0 0)
(3.19888e-06 0 0)
(3.21264e-06 0 0)
(3.22644e-06 0 0)
(3.24026e-06 0 0)
(3.25412e-06 0 0)
(3.26801e-06 0 0)
(3.28194e-06 0 0)
(3.29589e-06 0 0)
(3.30988e-06 0 0)
(3.3239e-06 0 0)
(3.33795e-06 0 0)
(3.35204e-06 0 0)
(3.36616e-06 0 0)
(3.38032e-06 0 0)
(3.39451e-06 0 0)
(3.40873e-06 0 0)
(3.423e-06 0 0)
(3.43729e-06 0 0)
(3.45163e-06 0 0)
(3.466e-06 0 0)
(3.48041e-06 0 0)
(3.49485e-06 0 0)
(3.50934e-06 0 0)
(3.52386e-06 0 0)
(3.53842e-06 0 0)
(3.55302e-06 0 0)
(3.56765e-06 0 0)
(3.58233e-06 0 0)
(3.59704e-06 0 0)
(3.6118e-06 0 0)
(3.62659e-06 0 0)
(3.64142e-06 0 0)
(3.65629e-06 0 0)
(3.6712e-06 0 0)
(3.68615e-06 0 0)
(3.70113e-06 0 0)
(3.71615e-06 0 0)
(3.73121e-06 0 0)
(3.7463e-06 0 0)
(3.76143e-06 0 0)
(3.7766e-06 0 0)
(3.79179e-06 0 0)
(3.80702e-06 0 0)
(3.82228e-06 0 0)
(3.83757e-06 0 0)
(3.85289e-06 0 0)
(3.86825e-06 0 0)
(3.88363e-06 0 0)
(3.89905e-06 0 0)
(3.9145e-06 0 0)
(3.92998e-06 0 0)
(3.94549e-06 0 0)
(3.96104e-06 0 0)
(3.97663e-06 0 0)
(3.99226e-06 0 0)
(4.00793e-06 0 0)
(4.02365e-06 0 0)
(4.03942e-06 0 0)
(4.05524e-06 0 0)
(4.07112e-06 0 0)
(4.08707e-06 0 0)
(4.10308e-06 0 0)
(4.11916e-06 0 0)
(4.13533e-06 0 0)
(4.15157e-06 0 0)
(4.16791e-06 0 0)
(4.18434e-06 0 0)
(4.20087e-06 0 0)
(4.2175e-06 0 0)
(4.23424e-06 0 0)
(4.25109e-06 0 0)
(4.26806e-06 0 0)
(4.28513e-06 0 0)
(4.30233e-06 0 0)
(4.31964e-06 0 0)
(4.33706e-06 0 0)
(4.3546e-06 0 0)
(4.37226e-06 0 0)
(4.39002e-06 0 0)
(4.40789e-06 0 0)
(4.42587e-06 0 0)
(4.44394e-06 0 0)
(4.46211e-06 0 0)
(4.48037e-06 0 0)
(4.49871e-06 0 0)
(4.51714e-06 0 0)
(4.53564e-06 0 0)
(4.55423e-06 0 0)
(4.57288e-06 0 0)
(4.59161e-06 0 0)
(4.61041e-06 0 0)
(4.62927e-06 0 0)
(4.6482e-06 0 0)
(4.6672e-06 0 0)
(4.68627e-06 0 0)
(4.70541e-06 0 0)
(4.72462e-06 0 0)
(4.74391e-06 0 0)
(4.76328e-06 0 0)
(4.78272e-06 0 0)
(4.80225e-06 0 0)
(4.82186e-06 0 0)
(4.84156e-06 0 0)
(4.86135e-06 0 0)
(4.88124e-06 0 0)
(4.90124e-06 0 0)
(4.92133e-06 0 0)
(4.94152e-06 0 0)
(4.96182e-06 0 0)
(4.98223e-06 0 0)
(5.00275e-06 0 0)
(5.02338e-06 0 0)
(5.04413e-06 0 0)
(5.065e-06 0 0)
(5.08597e-06 0 0)
(5.10706e-06 0 0)
(5.12826e-06 0 0)
(5.14957e-06 0 0)
(5.17099e-06 0 0)
(5.19251e-06 0 0)
(5.21413e-06 0 0)
(5.23584e-06 0 0)
(5.25763e-06 0 0)
(5.27948e-06 0 0)
(5.30137e-06 0 0)
(5.3233e-06 0 0)
(5.34524e-06 0 0)
(5.36716e-06 0 0)
(5.38902e-06 0 0)
(5.41079e-06 0 0)
(5.4324e-06 0 0)
(5.4538e-06 0 0)
(5.47494e-06 0 0)
(5.49574e-06 0 0)
(5.51612e-06 0 0)
(5.53599e-06 0 0)
(5.55524e-06 0 0)
(5.57379e-06 0 0)
(5.59154e-06 0 0)
(5.60839e-06 0 0)
(5.62427e-06 0 0)
(5.63909e-06 0 0)
(5.65278e-06 0 0)
(5.66532e-06 0 0)
(5.67667e-06 0 0)
(5.68685e-06 0 0)
(5.69591e-06 0 0)
(5.70393e-06 0 0)
(5.71104e-06 0 0)
(5.71746e-06 0 0)
(5.72353e-06 0 0)
(5.72981e-06 0 0)
(5.73722e-06 0 0)
(5.74736e-06 0 0)
(5.76296e-06 0 0)
(5.78873e-06 0 0)
(5.83279e-06 0 0)
(5.90857e-06 0 0)
(6.03711e-06 0 0)
(6.24758e-06 0 0)
(6.57182e-06 0 0)
(7.02677e-06 0 0)
(7.58805e-06 0 0)
(8.17933e-06 0 0)
(8.70402e-06 0 0)
(9.09929e-06 0 0)
(9.35906e-06 0 0)
(9.51361e-06 0 0)
(9.59983e-06 0 0)
(9.64615e-06 0 0)
(9.67051e-06 0 0)
(9.68319e-06 0 0)
(9.68974e-06 0 0)
(9.69313e-06 0 0)
(9.69487e-06 0 0)
(9.69577e-06 0 0)
(9.69623e-06 0 0)
(9.69647e-06 0 0)
(9.69659e-06 0 0)
(9.69665e-06 0 0)
(9.69668e-06 0 0)
(9.69668e-06 0 0)
(9.69668e-06 0 0)
(9.69667e-06 0 0)
(9.69665e-06 0 0)
(9.69663e-06 0 0)
(9.6966e-06 0 0)
(9.69658e-06 0 0)
(9.69654e-06 0 0)
(9.69651e-06 0 0)
(9.69647e-06 0 0)
(9.69643e-06 0 0)
(9.69639e-06 0 0)
(9.69635e-06 0 0)
(9.6963e-06 0 0)
(9.69625e-06 0 0)
(9.6962e-06 0 0)
(9.69615e-06 0 0)
(9.69609e-06 0 0)
(9.69603e-06 0 0)
(9.69597e-06 0 0)
(9.69591e-06 0 0)
(9.69584e-06 0 0)
(9.69578e-06 0 0)
(9.69571e-06 0 0)
(9.69564e-06 0 0)
(9.69557e-06 0 0)
(9.69549e-06 0 0)
(9.69542e-06 0 0)
(9.69534e-06 0 0)
(9.69526e-06 0 0)
(9.69517e-06 0 0)
(9.69509e-06 0 0)
(9.695e-06 0 0)
(9.6949e-06 0 0)
(9.69481e-06 0 0)
(9.69471e-06 0 0)
(9.6946e-06 0 0)
(9.69449e-06 0 0)
(9.69437e-06 0 0)
(9.69425e-06 0 0)
(9.69412e-06 0 0)
(9.69398e-06 0 0)
(9.69383e-06 0 0)
(9.69367e-06 0 0)
(9.69349e-06 0 0)
(9.69331e-06 0 0)
(9.69311e-06 0 0)
(9.69289e-06 0 0)
(9.69266e-06 0 0)
(9.6924e-06 0 0)
(9.69213e-06 0 0)
(9.69184e-06 0 0)
(9.69153e-06 0 0)
(9.69119e-06 0 0)
(9.69083e-06 0 0)
(9.69044e-06 0 0)
(9.69003e-06 0 0)
(9.6896e-06 0 0)
(9.68914e-06 0 0)
(9.68865e-06 0 0)
(9.68814e-06 0 0)
(9.6876e-06 0 0)
(9.68704e-06 0 0)
(9.68646e-06 0 0)
(9.68586e-06 0 0)
(9.68523e-06 0 0)
(9.68459e-06 0 0)
(9.68394e-06 0 0)
(9.68327e-06 0 0)
(9.6826e-06 0 0)
(9.68192e-06 0 0)
(9.68124e-06 0 0)
(9.68056e-06 0 0)
(9.67989e-06 0 0)
(9.67922e-06 0 0)
(9.67858e-06 0 0)
(9.67795e-06 0 0)
(9.67736e-06 0 0)
(9.67679e-06 0 0)
(9.67625e-06 0 0)
(9.67576e-06 0 0)
(9.67531e-06 0 0)
(9.67492e-06 0 0)
(9.67457e-06 0 0)
(9.67428e-06 0 0)
(9.67406e-06 0 0)
(9.6739e-06 0 0)
(9.6738e-06 0 0)
(9.67376e-06 0 0)
(9.67375e-06 0 0)
(9.67377e-06 0 0)
(9.67385e-06 0 0)
(9.67404e-06 0 0)
(9.67432e-06 0 0)
(9.67467e-06 0 0)
(9.67506e-06 0 0)
(9.67551e-06 0 0)
(9.676e-06 0 0)
(9.67653e-06 0 0)
(9.6771e-06 0 0)
(9.67769e-06 0 0)
(9.67831e-06 0 0)
(9.67895e-06 0 0)
(9.6796e-06 0 0)
(9.68026e-06 0 0)
(9.68092e-06 0 0)
(9.68158e-06 0 0)
(9.68222e-06 0 0)
(9.68286e-06 0 0)
(9.68347e-06 0 0)
(9.68407e-06 0 0)
(9.68464e-06 0 0)
(9.68518e-06 0 0)
(9.6857e-06 0 0)
(9.68619e-06 0 0)
(9.68664e-06 0 0)
(9.68707e-06 0 0)
(9.68746e-06 0 0)
(9.68782e-06 0 0)
(9.68816e-06 0 0)
(9.68846e-06 0 0)
(9.68874e-06 0 0)
(9.68899e-06 0 0)
(9.68922e-06 0 0)
(9.68942e-06 0 0)
(9.68961e-06 0 0)
(9.68977e-06 0 0)
(9.68992e-06 0 0)
(9.69006e-06 0 0)
(9.69019e-06 0 0)
(9.6903e-06 0 0)
(9.69041e-06 0 0)
(9.69051e-06 0 0)
(9.69061e-06 0 0)
(9.6907e-06 0 0)
(9.69079e-06 0 0)
(9.69088e-06 0 0)
(9.69097e-06 0 0)
(9.69106e-06 0 0)
(9.69116e-06 0 0)
(9.69125e-06 0 0)
(9.69135e-06 0 0)
(9.69146e-06 0 0)
(9.69156e-06 0 0)
(9.69167e-06 0 0)
(9.69179e-06 0 0)
(9.6919e-06 0 0)
(9.69202e-06 0 0)
(9.69215e-06 0 0)
(9.69228e-06 0 0)
(9.69241e-06 0 0)
(9.69254e-06 0 0)
(9.69268e-06 0 0)
(9.69282e-06 0 0)
(9.69296e-06 0 0)
(9.6931e-06 0 0)
(9.69324e-06 0 0)
(9.69338e-06 0 0)
(9.69353e-06 0 0)
(9.69367e-06 0 0)
(9.69381e-06 0 0)
(9.69395e-06 0 0)
(9.69409e-06 0 0)
(9.69423e-06 0 0)
(9.69436e-06 0 0)
(9.69449e-06 0 0)
(9.69462e-06 0 0)
(9.69475e-06 0 0)
(9.69488e-06 0 0)
(9.695e-06 0 0)
(9.69511e-06 0 0)
(9.69523e-06 0 0)
(9.69534e-06 0 0)
(9.69544e-06 0 0)
(9.69554e-06 0 0)
(9.69564e-06 0 0)
(9.69573e-06 0 0)
(9.69582e-06 0 0)
(9.69591e-06 0 0)
(9.69599e-06 0 0)
(9.69607e-06 0 0)
(9.69615e-06 0 0)
(9.69622e-06 0 0)
(9.69628e-06 0 0)
(9.69635e-06 0 0)
(9.69641e-06 0 0)
(9.69646e-06 0 0)
(9.69652e-06 0 0)
(9.69657e-06 0 0)
(9.69661e-06 0 0)
(9.69666e-06 0 0)
(9.6967e-06 0 0)
(9.69674e-06 0 0)
(9.69677e-06 0 0)
(9.6968e-06 0 0)
(9.69683e-06 0 0)
(9.69685e-06 0 0)
(9.69687e-06 0 0)
(9.69689e-06 0 0)
(9.69691e-06 0 0)
(9.69693e-06 0 0)
(9.69694e-06 0 0)
(9.69695e-06 0 0)
(9.69695e-06 0 0)
(9.69695e-06 0 0)
(9.69696e-06 0 0)
(9.69696e-06 0 0)
(9.69695e-06 0 0)
(9.69694e-06 0 0)
(9.69693e-06 0 0)
(9.69691e-06 0 0)
(9.69689e-06 0 0)
(9.69686e-06 0 0)
(9.69683e-06 0 0)
(9.6968e-06 0 0)
(9.69677e-06 0 0)
(9.69673e-06 0 0)
(9.69668e-06 0 0)
(9.69664e-06 0 0)
(9.69659e-06 0 0)
(9.69654e-06 0 0)
(9.69648e-06 0 0)
(9.69642e-06 0 0)
(9.69636e-06 0 0)
(9.6963e-06 0 0)
(9.69623e-06 0 0)
(9.69617e-06 0 0)
(9.6961e-06 0 0)
(9.69602e-06 0 0)
(9.69595e-06 0 0)
(9.69587e-06 0 0)
(9.69579e-06 0 0)
(9.6957e-06 0 0)
(9.69562e-06 0 0)
(9.69553e-06 0 0)
(9.69544e-06 0 0)
(9.69534e-06 0 0)
(9.69524e-06 0 0)
(9.69513e-06 0 0)
(9.69503e-06 0 0)
(9.69491e-06 0 0)
(9.69479e-06 0 0)
(9.69467e-06 0 0)
(9.69453e-06 0 0)
(9.69439e-06 0 0)
(9.69425e-06 0 0)
(9.69409e-06 0 0)
(9.69393e-06 0 0)
(9.69375e-06 0 0)
(9.69357e-06 0 0)
(9.69337e-06 0 0)
(9.69316e-06 0 0)
(9.69294e-06 0 0)
(9.6927e-06 0 0)
(9.69245e-06 0 0)
(9.69219e-06 0 0)
(9.6919e-06 0 0)
(9.6916e-06 0 0)
(9.69129e-06 0 0)
(9.69095e-06 0 0)
(9.6906e-06 0 0)
(9.69023e-06 0 0)
(9.68984e-06 0 0)
(9.68943e-06 0 0)
(9.689e-06 0 0)
(9.68855e-06 0 0)
(9.68808e-06 0 0)
(9.68759e-06 0 0)
(9.68709e-06 0 0)
(9.68657e-06 0 0)
(9.68604e-06 0 0)
(9.68549e-06 0 0)
(9.68493e-06 0 0)
(9.68436e-06 0 0)
(9.68378e-06 0 0)
(9.68319e-06 0 0)
(9.6826e-06 0 0)
(9.68201e-06 0 0)
(9.68142e-06 0 0)
(9.68083e-06 0 0)
(9.68025e-06 0 0)
(9.67968e-06 0 0)
(9.67912e-06 0 0)
(9.67858e-06 0 0)
(9.67806e-06 0 0)
(9.67757e-06 0 0)
(9.6771e-06 0 0)
(9.67666e-06 0 0)
(9.67625e-06 0 0)
(9.67589e-06 0 0)
(9.67556e-06 0 0)
(9.67527e-06 0 0)
(9.67502e-06 0 0)
(9.67483e-06 0 0)
(9.67468e-06 0 0)
(9.67458e-06 0 0)
(9.67454e-06 0 0)
(9.67452e-06 0 0)
(9.67452e-06 0 0)
(9.67455e-06 0 0)
(9.67467e-06 0 0)
(9.67487e-06 0 0)
(9.67513e-06 0 0)
(9.67542e-06 0 0)
(9.67576e-06 0 0)
(9.67615e-06 0 0)
(9.67657e-06 0 0)
(9.67702e-06 0 0)
(9.6775e-06 0 0)
(9.67801e-06 0 0)
(9.67853e-06 0 0)
(9.67908e-06 0 0)
(9.67964e-06 0 0)
(9.6802e-06 0 0)
(9.68078e-06 0 0)
(9.68135e-06 0 0)
(9.68191e-06 0 0)
(9.68248e-06 0 0)
(9.68303e-06 0 0)
(9.68357e-06 0 0)
(9.68409e-06 0 0)
(9.6846e-06 0 0)
(9.68509e-06 0 0)
(9.68556e-06 0 0)
(9.68601e-06 0 0)
(9.68643e-06 0 0)
(9.68683e-06 0 0)
(9.68721e-06 0 0)
(9.68757e-06 0 0)
(9.68791e-06 0 0)
(9.68823e-06 0 0)
(9.68852e-06 0 0)
(9.6888e-06 0 0)
(9.68905e-06 0 0)
(9.68929e-06 0 0)
(9.68952e-06 0 0)
(9.68973e-06 0 0)
(9.68993e-06 0 0)
(9.69011e-06 0 0)
(9.69029e-06 0 0)
(9.69045e-06 0 0)
(9.69061e-06 0 0)
(9.69076e-06 0 0)
(9.69091e-06 0 0)
(9.69105e-06 0 0)
(9.69119e-06 0 0)
(9.69132e-06 0 0)
(9.69145e-06 0 0)
(9.69159e-06 0 0)
(9.69172e-06 0 0)
(9.69185e-06 0 0)
(9.69198e-06 0 0)
(9.69211e-06 0 0)
(9.69225e-06 0 0)
(9.69238e-06 0 0)
(9.69252e-06 0 0)
(9.69266e-06 0 0)
(9.69279e-06 0 0)
(9.69293e-06 0 0)
(9.69307e-06 0 0)
(9.69322e-06 0 0)
(9.69336e-06 0 0)
(9.6935e-06 0 0)
(9.69364e-06 0 0)
(9.69379e-06 0 0)
(9.69393e-06 0 0)
(9.69407e-06 0 0)
(9.69421e-06 0 0)
(9.69435e-06 0 0)
(9.69449e-06 0 0)
(9.69463e-06 0 0)
(9.69477e-06 0 0)
(9.6949e-06 0 0)
(9.69503e-06 0 0)
(9.69516e-06 0 0)
(9.69529e-06 0 0)
(9.69541e-06 0 0)
(9.69553e-06 0 0)
(9.69565e-06 0 0)
(9.69576e-06 0 0)
(9.69587e-06 0 0)
(9.69598e-06 0 0)
(9.69608e-06 0 0)
(9.69617e-06 0 0)
(9.69627e-06 0 0)
(9.69636e-06 0 0)
(9.69644e-06 0 0)
(9.69652e-06 0 0)
(9.6966e-06 0 0)
(9.69667e-06 0 0)
(9.69674e-06 0 0)
(9.6968e-06 0 0)
(9.69686e-06 0 0)
(9.69692e-06 0 0)
(9.69697e-06 0 0)
(9.69702e-06 0 0)
(9.69706e-06 0 0)
(9.6971e-06 0 0)
(9.69713e-06 0 0)
(9.69716e-06 0 0)
(9.69719e-06 0 0)
(9.69722e-06 0 0)
(9.69724e-06 0 0)
(9.69725e-06 0 0)
(9.69726e-06 0 0)
(9.69727e-06 0 0)
(9.69728e-06 0 0)
(9.69728e-06 0 0)
(9.69728e-06 0 0)
(9.69728e-06 0 0)
(9.69727e-06 0 0)
(9.69726e-06 0 0)
(9.69724e-06 0 0)
(9.69723e-06 0 0)
(9.6972e-06 0 0)
(9.69718e-06 0 0)
(9.69715e-06 0 0)
(9.69712e-06 0 0)
(9.69709e-06 0 0)
(9.69705e-06 0 0)
(9.69701e-06 0 0)
(9.69697e-06 0 0)
(9.69692e-06 0 0)
(9.69688e-06 0 0)
(9.69683e-06 0 0)
(9.69677e-06 0 0)
(9.69672e-06 0 0)
(9.69666e-06 0 0)
(9.6966e-06 0 0)
(9.69654e-06 0 0)
(9.69647e-06 0 0)
(9.6964e-06 0 0)
(9.69633e-06 0 0)
(9.69626e-06 0 0)
(9.69618e-06 0 0)
(9.6961e-06 0 0)
(9.69602e-06 0 0)
(9.69593e-06 0 0)
(9.69585e-06 0 0)
(9.69576e-06 0 0)
(9.69566e-06 0 0)
(9.69556e-06 0 0)
(9.69546e-06 0 0)
(9.69535e-06 0 0)
(9.69524e-06 0 0)
(9.69513e-06 0 0)
(9.69501e-06 0 0)
(9.69488e-06 0 0)
(9.69475e-06 0 0)
(9.69461e-06 0 0)
(9.69447e-06 0 0)
(9.69432e-06 0 0)
(9.69416e-06 0 0)
(9.69399e-06 0 0)
(9.69381e-06 0 0)
(9.69363e-06 0 0)
(9.69343e-06 0 0)
(9.69322e-06 0 0)
(9.69301e-06 0 0)
(9.69278e-06 0 0)
(9.69254e-06 0 0)
(9.69228e-06 0 0)
(9.69202e-06 0 0)
(9.69174e-06 0 0)
(9.69144e-06 0 0)
(9.69114e-06 0 0)
(9.69081e-06 0 0)
(9.69048e-06 0 0)
(9.69012e-06 0 0)
(9.68976e-06 0 0)
(9.68938e-06 0 0)
(9.68898e-06 0 0)
(9.68857e-06 0 0)
(9.68815e-06 0 0)
(9.68771e-06 0 0)
(9.68727e-06 0 0)
(9.68681e-06 0 0)
(9.68633e-06 0 0)
(9.68585e-06 0 0)
(9.68536e-06 0 0)
(9.68487e-06 0 0)
(9.68437e-06 0 0)
(9.68386e-06 0 0)
(9.68336e-06 0 0)
(9.68285e-06 0 0)
(9.68235e-06 0 0)
(9.68185e-06 0 0)
(9.68135e-06 0 0)
(9.68087e-06 0 0)
(9.68039e-06 0 0)
(9.67993e-06 0 0)
(9.67949e-06 0 0)
(9.67906e-06 0 0)
(9.67865e-06 0 0)
(9.67827e-06 0 0)
(9.67791e-06 0 0)
(9.67758e-06 0 0)
(9.67728e-06 0 0)
(9.67702e-06 0 0)
(9.67679e-06 0 0)
(9.67659e-06 0 0)
(9.67643e-06 0 0)
(9.67631e-06 0 0)
(9.67624e-06 0 0)
(9.67621e-06 0 0)
(9.6762e-06 0 0)
(9.67622e-06 0 0)
)
;

boundaryField
{
    inlet
    {
        type            fixedValue;
        value           uniform (0 0 0);
    }
    outlet
    {
        type            zeroGradient;
    }
    emptyWalls
    {
        type            empty;
    }
}


// ************************************************************************* //
