/*--------------------------------*- C++ -*----------------------------------*\
  =========                 |
  \\      /  F ield         | OpenFOAM: The Open Source CFD Toolbox
   \\    /   O peration     | Website:  https://openfoam.org
    \\  /    A nd           | Version:  9
     \\/     M anipulation  |
\*---------------------------------------------------------------------------*/
FoamFile
{
    format      ascii;
    class       volVectorField;
    location    "14650";
    object      Ua;
}
// * * * * * * * * * * * * * * * * * * * * * * * * * * * * * * * * * * * * * //

dimensions      [0 0 0 0 0 0 0];

internalField   nonuniform List<vector> 
1000
(
(2.74918e-06 0 0)
(2.74888e-06 0 0)
(2.74849e-06 0 0)
(2.7482e-06 0 0)
(2.74757e-06 0 0)
(2.7469e-06 0 0)
(2.74612e-06 0 0)
(2.74508e-06 0 0)
(2.74411e-06 0 0)
(2.74301e-06 0 0)
(2.74193e-06 0 0)
(2.74089e-06 0 0)
(2.73987e-06 0 0)
(2.73885e-06 0 0)
(2.73786e-06 0 0)
(2.73689e-06 0 0)
(2.73566e-06 0 0)
(2.7333e-06 0 0)
(2.72486e-06 0 0)
(2.68848e-06 0 0)
(2.47302e-06 0 0)
(2.22512e-06 0 0)
(2.1468e-06 0 0)
(2.12325e-06 0 0)
(2.11157e-06 0 0)
(2.10381e-06 0 0)
(2.09781e-06 0 0)
(2.09281e-06 0 0)
(2.08847e-06 0 0)
(2.08462e-06 0 0)
(2.08117e-06 0 0)
(2.07804e-06 0 0)
(2.0752e-06 0 0)
(2.0726e-06 0 0)
(2.07023e-06 0 0)
(2.06806e-06 0 0)
(2.06604e-06 0 0)
(2.06417e-06 0 0)
(2.06245e-06 0 0)
(2.06086e-06 0 0)
(2.05936e-06 0 0)
(2.05796e-06 0 0)
(2.05665e-06 0 0)
(2.05541e-06 0 0)
(2.05422e-06 0 0)
(2.0531e-06 0 0)
(2.05206e-06 0 0)
(2.05111e-06 0 0)
(2.05023e-06 0 0)
(2.04943e-06 0 0)
(2.04871e-06 0 0)
(2.04806e-06 0 0)
(2.04747e-06 0 0)
(2.04695e-06 0 0)
(2.04652e-06 0 0)
(2.04621e-06 0 0)
(2.04603e-06 0 0)
(2.04595e-06 0 0)
(2.0459e-06 0 0)
(2.04582e-06 0 0)
(2.04573e-06 0 0)
(2.04566e-06 0 0)
(2.04563e-06 0 0)
(2.04565e-06 0 0)
(2.04571e-06 0 0)
(2.0458e-06 0 0)
(2.0459e-06 0 0)
(2.046e-06 0 0)
(2.04609e-06 0 0)
(2.04614e-06 0 0)
(2.04617e-06 0 0)
(2.04619e-06 0 0)
(2.04625e-06 0 0)
(2.04648e-06 0 0)
(2.04697e-06 0 0)
(2.04785e-06 0 0)
(2.04918e-06 0 0)
(2.05095e-06 0 0)
(2.05311e-06 0 0)
(2.05558e-06 0 0)
(2.05824e-06 0 0)
(2.06101e-06 0 0)
(2.06378e-06 0 0)
(2.0665e-06 0 0)
(2.06909e-06 0 0)
(2.07147e-06 0 0)
(2.07355e-06 0 0)
(2.07522e-06 0 0)
(2.07638e-06 0 0)
(2.07693e-06 0 0)
(2.07679e-06 0 0)
(2.07593e-06 0 0)
(2.07435e-06 0 0)
(2.07212e-06 0 0)
(2.06933e-06 0 0)
(2.06611e-06 0 0)
(2.06261e-06 0 0)
(2.05898e-06 0 0)
(2.05538e-06 0 0)
(2.05194e-06 0 0)
(2.04877e-06 0 0)
(2.04594e-06 0 0)
(2.04352e-06 0 0)
(2.04152e-06 0 0)
(2.03993e-06 0 0)
(2.03872e-06 0 0)
(2.03786e-06 0 0)
(2.03729e-06 0 0)
(2.03696e-06 0 0)
(2.0368e-06 0 0)
(2.03676e-06 0 0)
(2.03679e-06 0 0)
(2.03685e-06 0 0)
(2.03691e-06 0 0)
(2.03693e-06 0 0)
(2.03691e-06 0 0)
(2.03683e-06 0 0)
(2.03668e-06 0 0)
(2.03646e-06 0 0)
(2.03618e-06 0 0)
(2.03585e-06 0 0)
(2.03546e-06 0 0)
(2.03503e-06 0 0)
(2.03456e-06 0 0)
(2.03406e-06 0 0)
(2.03354e-06 0 0)
(2.033e-06 0 0)
(2.03245e-06 0 0)
(2.03188e-06 0 0)
(2.03131e-06 0 0)
(2.03074e-06 0 0)
(2.03017e-06 0 0)
(2.02959e-06 0 0)
(2.02902e-06 0 0)
(2.02846e-06 0 0)
(2.0279e-06 0 0)
(2.02734e-06 0 0)
(2.02679e-06 0 0)
(2.02624e-06 0 0)
(2.02571e-06 0 0)
(2.02518e-06 0 0)
(2.02465e-06 0 0)
(2.02414e-06 0 0)
(2.02363e-06 0 0)
(2.02313e-06 0 0)
(2.02265e-06 0 0)
(2.02217e-06 0 0)
(2.0217e-06 0 0)
(2.02124e-06 0 0)
(2.02079e-06 0 0)
(2.02035e-06 0 0)
(2.01992e-06 0 0)
(2.0195e-06 0 0)
(2.01909e-06 0 0)
(2.0187e-06 0 0)
(2.01831e-06 0 0)
(2.01794e-06 0 0)
(2.01757e-06 0 0)
(2.01722e-06 0 0)
(2.01688e-06 0 0)
(2.01654e-06 0 0)
(2.01622e-06 0 0)
(2.01591e-06 0 0)
(2.01561e-06 0 0)
(2.01532e-06 0 0)
(2.01504e-06 0 0)
(2.01477e-06 0 0)
(2.01451e-06 0 0)
(2.01427e-06 0 0)
(2.01403e-06 0 0)
(2.0138e-06 0 0)
(2.01359e-06 0 0)
(2.01339e-06 0 0)
(2.01319e-06 0 0)
(2.01301e-06 0 0)
(2.01284e-06 0 0)
(2.01267e-06 0 0)
(2.0125e-06 0 0)
(2.01234e-06 0 0)
(2.01219e-06 0 0)
(2.01203e-06 0 0)
(2.01187e-06 0 0)
(2.01172e-06 0 0)
(2.01157e-06 0 0)
(2.01142e-06 0 0)
(2.01128e-06 0 0)
(2.01114e-06 0 0)
(2.01102e-06 0 0)
(2.0109e-06 0 0)
(2.01079e-06 0 0)
(2.01069e-06 0 0)
(2.01059e-06 0 0)
(2.0105e-06 0 0)
(2.01042e-06 0 0)
(2.01034e-06 0 0)
(2.01026e-06 0 0)
(2.01019e-06 0 0)
(2.01014e-06 0 0)
(2.01012e-06 0 0)
(2.01013e-06 0 0)
(2.01019e-06 0 0)
(2.01032e-06 0 0)
(2.01053e-06 0 0)
(2.01083e-06 0 0)
(2.01124e-06 0 0)
(2.01177e-06 0 0)
(2.01243e-06 0 0)
(2.01323e-06 0 0)
(2.01416e-06 0 0)
(2.01523e-06 0 0)
(2.01642e-06 0 0)
(2.01773e-06 0 0)
(2.01914e-06 0 0)
(2.02063e-06 0 0)
(2.02218e-06 0 0)
(2.02376e-06 0 0)
(2.02534e-06 0 0)
(2.02688e-06 0 0)
(2.02835e-06 0 0)
(2.02972e-06 0 0)
(2.03093e-06 0 0)
(2.03197e-06 0 0)
(2.03279e-06 0 0)
(2.03336e-06 0 0)
(2.03366e-06 0 0)
(2.03367e-06 0 0)
(2.03338e-06 0 0)
(2.03279e-06 0 0)
(2.0319e-06 0 0)
(2.03073e-06 0 0)
(2.02931e-06 0 0)
(2.02767e-06 0 0)
(2.02584e-06 0 0)
(2.02388e-06 0 0)
(2.02181e-06 0 0)
(2.01969e-06 0 0)
(2.01756e-06 0 0)
(2.01546e-06 0 0)
(2.01342e-06 0 0)
(2.01148e-06 0 0)
(2.00966e-06 0 0)
(2.00797e-06 0 0)
(2.00643e-06 0 0)
(2.00505e-06 0 0)
(2.00382e-06 0 0)
(2.00273e-06 0 0)
(2.00179e-06 0 0)
(2.00097e-06 0 0)
(2.00027e-06 0 0)
(1.99967e-06 0 0)
(1.99915e-06 0 0)
(1.99871e-06 0 0)
(1.99832e-06 0 0)
(1.99797e-06 0 0)
(1.99765e-06 0 0)
(1.99735e-06 0 0)
(1.99706e-06 0 0)
(1.99677e-06 0 0)
(1.99647e-06 0 0)
(1.99616e-06 0 0)
(1.99584e-06 0 0)
(1.9955e-06 0 0)
(1.99514e-06 0 0)
(1.99476e-06 0 0)
(1.99436e-06 0 0)
(1.99395e-06 0 0)
(1.99351e-06 0 0)
(1.99306e-06 0 0)
(1.99259e-06 0 0)
(1.99211e-06 0 0)
(1.99162e-06 0 0)
(1.99112e-06 0 0)
(1.99061e-06 0 0)
(1.99009e-06 0 0)
(1.98957e-06 0 0)
(1.98904e-06 0 0)
(1.98851e-06 0 0)
(1.98799e-06 0 0)
(1.98746e-06 0 0)
(1.98693e-06 0 0)
(1.9864e-06 0 0)
(1.98588e-06 0 0)
(1.98536e-06 0 0)
(1.98484e-06 0 0)
(1.98432e-06 0 0)
(1.98382e-06 0 0)
(1.98331e-06 0 0)
(1.98281e-06 0 0)
(1.98232e-06 0 0)
(1.98184e-06 0 0)
(1.98136e-06 0 0)
(1.98088e-06 0 0)
(1.98042e-06 0 0)
(1.97996e-06 0 0)
(1.97951e-06 0 0)
(1.97906e-06 0 0)
(1.97862e-06 0 0)
(1.9782e-06 0 0)
(1.97777e-06 0 0)
(1.97736e-06 0 0)
(1.97695e-06 0 0)
(1.97656e-06 0 0)
(1.97616e-06 0 0)
(1.97578e-06 0 0)
(1.97541e-06 0 0)
(1.97504e-06 0 0)
(1.97468e-06 0 0)
(1.97433e-06 0 0)
(1.97399e-06 0 0)
(1.97366e-06 0 0)
(1.97333e-06 0 0)
(1.97301e-06 0 0)
(1.97271e-06 0 0)
(1.9724e-06 0 0)
(1.97211e-06 0 0)
(1.97183e-06 0 0)
(1.97155e-06 0 0)
(1.97128e-06 0 0)
(1.97102e-06 0 0)
(1.97077e-06 0 0)
(1.97052e-06 0 0)
(1.97028e-06 0 0)
(1.97005e-06 0 0)
(1.96982e-06 0 0)
(1.9696e-06 0 0)
(1.96939e-06 0 0)
(1.96918e-06 0 0)
(1.96898e-06 0 0)
(1.96878e-06 0 0)
(1.96859e-06 0 0)
(1.9684e-06 0 0)
(1.96821e-06 0 0)
(1.96803e-06 0 0)
(1.96785e-06 0 0)
(1.96767e-06 0 0)
(1.9675e-06 0 0)
(1.96733e-06 0 0)
(1.96717e-06 0 0)
(1.96701e-06 0 0)
(1.96686e-06 0 0)
(1.9667e-06 0 0)
(1.96656e-06 0 0)
(1.96642e-06 0 0)
(1.96628e-06 0 0)
(1.96615e-06 0 0)
(1.96603e-06 0 0)
(1.96592e-06 0 0)
(1.96582e-06 0 0)
(1.96573e-06 0 0)
(1.96566e-06 0 0)
(1.96561e-06 0 0)
(1.96558e-06 0 0)
(1.96559e-06 0 0)
(1.96562e-06 0 0)
(1.9657e-06 0 0)
(1.96581e-06 0 0)
(1.96598e-06 0 0)
(1.9662e-06 0 0)
(1.96648e-06 0 0)
(1.96681e-06 0 0)
(1.96721e-06 0 0)
(1.96768e-06 0 0)
(1.96821e-06 0 0)
(1.96881e-06 0 0)
(1.96947e-06 0 0)
(1.9702e-06 0 0)
(1.97098e-06 0 0)
(1.97182e-06 0 0)
(1.9727e-06 0 0)
(1.97362e-06 0 0)
(1.97457e-06 0 0)
(1.97553e-06 0 0)
(1.97649e-06 0 0)
(1.97745e-06 0 0)
(1.97838e-06 0 0)
(1.97927e-06 0 0)
(1.9801e-06 0 0)
(1.98087e-06 0 0)
(1.98155e-06 0 0)
(1.98213e-06 0 0)
(1.98259e-06 0 0)
(1.98293e-06 0 0)
(1.98313e-06 0 0)
(1.98319e-06 0 0)
(1.98309e-06 0 0)
(1.98284e-06 0 0)
(1.98243e-06 0 0)
(1.98187e-06 0 0)
(1.98115e-06 0 0)
(1.98029e-06 0 0)
(1.97929e-06 0 0)
(1.97817e-06 0 0)
(1.97694e-06 0 0)
(1.97562e-06 0 0)
(1.97423e-06 0 0)
(1.97278e-06 0 0)
(1.97128e-06 0 0)
(1.96977e-06 0 0)
(1.96825e-06 0 0)
(1.96675e-06 0 0)
(1.96527e-06 0 0)
(1.96383e-06 0 0)
(1.96244e-06 0 0)
(1.9611e-06 0 0)
(1.95984e-06 0 0)
(1.95864e-06 0 0)
(1.95751e-06 0 0)
(1.95646e-06 0 0)
(1.95549e-06 0 0)
(1.95458e-06 0 0)
(1.95374e-06 0 0)
(1.95297e-06 0 0)
(1.95226e-06 0 0)
(1.9516e-06 0 0)
(1.95099e-06 0 0)
(1.95043e-06 0 0)
(1.9499e-06 0 0)
(1.94941e-06 0 0)
(1.94894e-06 0 0)
(1.94849e-06 0 0)
(1.94806e-06 0 0)
(1.94764e-06 0 0)
(1.94723e-06 0 0)
(1.94683e-06 0 0)
(1.94643e-06 0 0)
(1.94603e-06 0 0)
(1.94562e-06 0 0)
(1.94521e-06 0 0)
(1.9448e-06 0 0)
(1.94438e-06 0 0)
(1.94395e-06 0 0)
(1.94352e-06 0 0)
(1.94308e-06 0 0)
(1.94263e-06 0 0)
(1.94217e-06 0 0)
(1.94171e-06 0 0)
(1.94125e-06 0 0)
(1.94078e-06 0 0)
(1.9403e-06 0 0)
(1.93982e-06 0 0)
(1.93934e-06 0 0)
(1.93885e-06 0 0)
(1.93836e-06 0 0)
(1.93787e-06 0 0)
(1.93738e-06 0 0)
(1.93689e-06 0 0)
(1.9364e-06 0 0)
(1.93591e-06 0 0)
(1.93543e-06 0 0)
(1.93494e-06 0 0)
(1.93446e-06 0 0)
(1.93397e-06 0 0)
(1.93349e-06 0 0)
(1.93302e-06 0 0)
(1.93254e-06 0 0)
(1.93207e-06 0 0)
(1.9316e-06 0 0)
(1.93114e-06 0 0)
(1.93068e-06 0 0)
(1.93022e-06 0 0)
(1.92977e-06 0 0)
(1.92932e-06 0 0)
(1.92888e-06 0 0)
(1.92844e-06 0 0)
(1.928e-06 0 0)
(1.92757e-06 0 0)
(1.92715e-06 0 0)
(1.92673e-06 0 0)
(1.92631e-06 0 0)
(1.9259e-06 0 0)
(1.92549e-06 0 0)
(1.92509e-06 0 0)
(1.92469e-06 0 0)
(1.9243e-06 0 0)
(1.92391e-06 0 0)
(1.92353e-06 0 0)
(1.92315e-06 0 0)
(1.92278e-06 0 0)
(1.92242e-06 0 0)
(1.92206e-06 0 0)
(1.9217e-06 0 0)
(1.92135e-06 0 0)
(1.921e-06 0 0)
(1.92066e-06 0 0)
(1.92033e-06 0 0)
(1.92e-06 0 0)
(1.91968e-06 0 0)
(1.91936e-06 0 0)
(1.91904e-06 0 0)
(1.91873e-06 0 0)
(1.91843e-06 0 0)
(1.91813e-06 0 0)
(1.91783e-06 0 0)
(1.91754e-06 0 0)
(1.91726e-06 0 0)
(1.91697e-06 0 0)
(1.91669e-06 0 0)
(1.91642e-06 0 0)
(1.91615e-06 0 0)
(1.91588e-06 0 0)
(1.91562e-06 0 0)
(1.91535e-06 0 0)
(1.9151e-06 0 0)
(1.91484e-06 0 0)
(1.91459e-06 0 0)
(1.91434e-06 0 0)
(1.91409e-06 0 0)
(1.91385e-06 0 0)
(1.9136e-06 0 0)
(1.91337e-06 0 0)
(1.91313e-06 0 0)
(1.9129e-06 0 0)
(1.91267e-06 0 0)
(1.91244e-06 0 0)
(1.91222e-06 0 0)
(1.912e-06 0 0)
(1.91179e-06 0 0)
(1.91159e-06 0 0)
(1.91139e-06 0 0)
(1.9112e-06 0 0)
(1.91102e-06 0 0)
(1.91085e-06 0 0)
(1.9107e-06 0 0)
(1.91056e-06 0 0)
(1.91043e-06 0 0)
(1.91032e-06 0 0)
(1.91024e-06 0 0)
(1.91017e-06 0 0)
(1.91013e-06 0 0)
(1.91011e-06 0 0)
(1.91013e-06 0 0)
(1.91017e-06 0 0)
(1.91024e-06 0 0)
(1.91035e-06 0 0)
(1.91049e-06 0 0)
(1.91067e-06 0 0)
(1.91089e-06 0 0)
(1.91114e-06 0 0)
(1.91143e-06 0 0)
(1.91176e-06 0 0)
(1.91212e-06 0 0)
(1.91251e-06 0 0)
(1.91294e-06 0 0)
(1.9134e-06 0 0)
(1.91389e-06 0 0)
(1.9144e-06 0 0)
(1.91493e-06 0 0)
(1.91547e-06 0 0)
(1.91603e-06 0 0)
(1.91659e-06 0 0)
(1.91715e-06 0 0)
(1.91771e-06 0 0)
(1.91825e-06 0 0)
(1.91878e-06 0 0)
(1.91929e-06 0 0)
(1.91976e-06 0 0)
(1.9202e-06 0 0)
(1.9206e-06 0 0)
(1.92095e-06 0 0)
(1.92125e-06 0 0)
(1.92149e-06 0 0)
(1.92167e-06 0 0)
(1.92179e-06 0 0)
(1.92184e-06 0 0)
(1.92182e-06 0 0)
(1.92172e-06 0 0)
(1.92155e-06 0 0)
(1.92131e-06 0 0)
(1.92099e-06 0 0)
(1.92061e-06 0 0)
(1.92015e-06 0 0)
(1.91962e-06 0 0)
(1.91904e-06 0 0)
(1.91839e-06 0 0)
(1.91769e-06 0 0)
(1.91694e-06 0 0)
(1.91614e-06 0 0)
(1.91529e-06 0 0)
(1.9144e-06 0 0)
(1.91344e-06 0 0)
(1.9124e-06 0 0)
(1.91121e-06 0 0)
(1.90978e-06 0 0)
(1.90793e-06 0 0)
(1.90541e-06 0 0)
(1.90182e-06 0 0)
(1.89676e-06 0 0)
(1.89007e-06 0 0)
(1.88224e-06 0 0)
(1.87454e-06 0 0)
(1.86837e-06 0 0)
(1.86426e-06 0 0)
(1.86182e-06 0 0)
(1.86039e-06 0 0)
(1.85949e-06 0 0)
(1.85885e-06 0 0)
(1.85835e-06 0 0)
(1.85794e-06 0 0)
(1.85758e-06 0 0)
(1.85726e-06 0 0)
(1.85698e-06 0 0)
(1.85673e-06 0 0)
(1.8565e-06 0 0)
(1.85629e-06 0 0)
(1.8561e-06 0 0)
(1.85593e-06 0 0)
(1.85577e-06 0 0)
(1.85562e-06 0 0)
(1.85549e-06 0 0)
(1.85536e-06 0 0)
(1.85524e-06 0 0)
(1.85513e-06 0 0)
(1.85502e-06 0 0)
(1.85491e-06 0 0)
(1.85481e-06 0 0)
(1.85471e-06 0 0)
(1.8546e-06 0 0)
(1.8545e-06 0 0)
(1.8544e-06 0 0)
(1.85429e-06 0 0)
(1.85419e-06 0 0)
(1.85408e-06 0 0)
(1.85396e-06 0 0)
(1.85385e-06 0 0)
(1.85373e-06 0 0)
(1.85361e-06 0 0)
(1.85349e-06 0 0)
(1.85337e-06 0 0)
(1.85324e-06 0 0)
(1.85311e-06 0 0)
(1.85298e-06 0 0)
(1.85285e-06 0 0)
(1.85272e-06 0 0)
(1.85258e-06 0 0)
(1.85245e-06 0 0)
(1.85231e-06 0 0)
(1.85217e-06 0 0)
(1.85204e-06 0 0)
(1.8519e-06 0 0)
(1.85176e-06 0 0)
(1.85163e-06 0 0)
(1.85149e-06 0 0)
(1.85135e-06 0 0)
(1.85122e-06 0 0)
(1.85109e-06 0 0)
(1.85095e-06 0 0)
(1.85082e-06 0 0)
(1.85069e-06 0 0)
(1.85056e-06 0 0)
(1.85044e-06 0 0)
(1.85031e-06 0 0)
(1.85019e-06 0 0)
(1.85007e-06 0 0)
(1.84996e-06 0 0)
(1.84984e-06 0 0)
(1.84973e-06 0 0)
(1.84962e-06 0 0)
(1.84951e-06 0 0)
(1.84941e-06 0 0)
(1.84931e-06 0 0)
(1.84921e-06 0 0)
(1.84912e-06 0 0)
(1.84903e-06 0 0)
(1.84894e-06 0 0)
(1.84886e-06 0 0)
(1.84878e-06 0 0)
(1.8487e-06 0 0)
(1.84863e-06 0 0)
(1.84856e-06 0 0)
(1.84849e-06 0 0)
(1.84843e-06 0 0)
(1.84838e-06 0 0)
(1.84832e-06 0 0)
(1.84828e-06 0 0)
(1.84823e-06 0 0)
(1.84819e-06 0 0)
(1.84816e-06 0 0)
(1.84813e-06 0 0)
(1.8481e-06 0 0)
(1.84808e-06 0 0)
(1.84806e-06 0 0)
(1.84805e-06 0 0)
(1.84804e-06 0 0)
(1.84804e-06 0 0)
(1.84804e-06 0 0)
(1.84804e-06 0 0)
(1.84804e-06 0 0)
(1.84805e-06 0 0)
(1.84807e-06 0 0)
(1.84809e-06 0 0)
(1.84812e-06 0 0)
(1.84815e-06 0 0)
(1.84818e-06 0 0)
(1.84822e-06 0 0)
(1.84826e-06 0 0)
(1.84831e-06 0 0)
(1.84836e-06 0 0)
(1.84841e-06 0 0)
(1.84846e-06 0 0)
(1.84852e-06 0 0)
(1.84859e-06 0 0)
(1.84865e-06 0 0)
(1.84872e-06 0 0)
(1.8488e-06 0 0)
(1.84888e-06 0 0)
(1.84896e-06 0 0)
(1.84904e-06 0 0)
(1.84913e-06 0 0)
(1.84922e-06 0 0)
(1.84932e-06 0 0)
(1.84942e-06 0 0)
(1.84953e-06 0 0)
(1.84964e-06 0 0)
(1.84976e-06 0 0)
(1.84988e-06 0 0)
(1.85001e-06 0 0)
(1.85015e-06 0 0)
(1.85029e-06 0 0)
(1.85044e-06 0 0)
(1.85061e-06 0 0)
(1.85078e-06 0 0)
(1.85096e-06 0 0)
(1.85116e-06 0 0)
(1.85137e-06 0 0)
(1.85159e-06 0 0)
(1.85183e-06 0 0)
(1.85208e-06 0 0)
(1.85235e-06 0 0)
(1.85264e-06 0 0)
(1.85295e-06 0 0)
(1.85328e-06 0 0)
(1.85362e-06 0 0)
(1.85399e-06 0 0)
(1.85439e-06 0 0)
(1.8548e-06 0 0)
(1.85524e-06 0 0)
(1.8557e-06 0 0)
(1.85618e-06 0 0)
(1.85669e-06 0 0)
(1.85723e-06 0 0)
(1.85778e-06 0 0)
(1.85836e-06 0 0)
(1.85896e-06 0 0)
(1.85958e-06 0 0)
(1.86022e-06 0 0)
(1.86088e-06 0 0)
(1.86156e-06 0 0)
(1.86224e-06 0 0)
(1.86294e-06 0 0)
(1.86365e-06 0 0)
(1.86437e-06 0 0)
(1.86508e-06 0 0)
(1.8658e-06 0 0)
(1.86652e-06 0 0)
(1.86723e-06 0 0)
(1.86792e-06 0 0)
(1.86861e-06 0 0)
(1.86927e-06 0 0)
(1.86991e-06 0 0)
(1.87052e-06 0 0)
(1.87111e-06 0 0)
(1.87166e-06 0 0)
(1.87217e-06 0 0)
(1.87264e-06 0 0)
(1.87306e-06 0 0)
(1.87343e-06 0 0)
(1.87375e-06 0 0)
(1.87402e-06 0 0)
(1.87423e-06 0 0)
(1.87438e-06 0 0)
(1.87447e-06 0 0)
(1.87451e-06 0 0)
(1.87452e-06 0 0)
(1.87451e-06 0 0)
(1.87443e-06 0 0)
(1.87425e-06 0 0)
(1.87399e-06 0 0)
(1.87368e-06 0 0)
(1.87331e-06 0 0)
(1.8729e-06 0 0)
(1.87244e-06 0 0)
(1.87194e-06 0 0)
(1.8714e-06 0 0)
(1.87083e-06 0 0)
(1.87024e-06 0 0)
(1.86962e-06 0 0)
(1.86899e-06 0 0)
(1.86834e-06 0 0)
(1.86768e-06 0 0)
(1.86702e-06 0 0)
(1.86636e-06 0 0)
(1.8657e-06 0 0)
(1.86505e-06 0 0)
(1.86441e-06 0 0)
(1.86379e-06 0 0)
(1.86319e-06 0 0)
(1.8626e-06 0 0)
(1.86203e-06 0 0)
(1.86149e-06 0 0)
(1.86097e-06 0 0)
(1.86048e-06 0 0)
(1.86002e-06 0 0)
(1.85957e-06 0 0)
(1.85916e-06 0 0)
(1.85877e-06 0 0)
(1.8584e-06 0 0)
(1.85806e-06 0 0)
(1.85774e-06 0 0)
(1.85744e-06 0 0)
(1.85717e-06 0 0)
(1.85691e-06 0 0)
(1.85667e-06 0 0)
(1.85644e-06 0 0)
(1.85623e-06 0 0)
(1.85603e-06 0 0)
(1.85585e-06 0 0)
(1.85567e-06 0 0)
(1.8555e-06 0 0)
(1.85534e-06 0 0)
(1.85519e-06 0 0)
(1.85504e-06 0 0)
(1.8549e-06 0 0)
(1.85476e-06 0 0)
(1.85462e-06 0 0)
(1.85448e-06 0 0)
(1.85434e-06 0 0)
(1.85421e-06 0 0)
(1.85407e-06 0 0)
(1.85394e-06 0 0)
(1.8538e-06 0 0)
(1.85366e-06 0 0)
(1.85352e-06 0 0)
(1.85338e-06 0 0)
(1.85324e-06 0 0)
(1.8531e-06 0 0)
(1.85296e-06 0 0)
(1.85281e-06 0 0)
(1.85267e-06 0 0)
(1.85252e-06 0 0)
(1.85237e-06 0 0)
(1.85222e-06 0 0)
(1.85207e-06 0 0)
(1.85192e-06 0 0)
(1.85178e-06 0 0)
(1.85163e-06 0 0)
(1.85148e-06 0 0)
(1.85133e-06 0 0)
(1.85118e-06 0 0)
(1.85104e-06 0 0)
(1.85089e-06 0 0)
(1.85075e-06 0 0)
(1.85061e-06 0 0)
(1.85047e-06 0 0)
(1.85033e-06 0 0)
(1.8502e-06 0 0)
(1.85006e-06 0 0)
(1.84993e-06 0 0)
(1.84981e-06 0 0)
(1.84968e-06 0 0)
(1.84956e-06 0 0)
(1.84944e-06 0 0)
(1.84933e-06 0 0)
(1.84921e-06 0 0)
(1.84911e-06 0 0)
(1.849e-06 0 0)
(1.8489e-06 0 0)
(1.8488e-06 0 0)
(1.84871e-06 0 0)
(1.84862e-06 0 0)
(1.84853e-06 0 0)
(1.84845e-06 0 0)
(1.84838e-06 0 0)
(1.8483e-06 0 0)
(1.84824e-06 0 0)
(1.84817e-06 0 0)
(1.84811e-06 0 0)
(1.84806e-06 0 0)
(1.84801e-06 0 0)
(1.84796e-06 0 0)
(1.84792e-06 0 0)
(1.84788e-06 0 0)
(1.84785e-06 0 0)
(1.84782e-06 0 0)
(1.8478e-06 0 0)
(1.84778e-06 0 0)
(1.84777e-06 0 0)
(1.84776e-06 0 0)
(1.84776e-06 0 0)
(1.84776e-06 0 0)
(1.84776e-06 0 0)
(1.84776e-06 0 0)
(1.84778e-06 0 0)
(1.8478e-06 0 0)
(1.84782e-06 0 0)
(1.84785e-06 0 0)
(1.84788e-06 0 0)
(1.84792e-06 0 0)
(1.84796e-06 0 0)
(1.84801e-06 0 0)
(1.84806e-06 0 0)
(1.84811e-06 0 0)
(1.84817e-06 0 0)
(1.84824e-06 0 0)
(1.8483e-06 0 0)
(1.84837e-06 0 0)
(1.84845e-06 0 0)
(1.84853e-06 0 0)
(1.84861e-06 0 0)
(1.84869e-06 0 0)
(1.84878e-06 0 0)
(1.84888e-06 0 0)
(1.84898e-06 0 0)
(1.84908e-06 0 0)
(1.84919e-06 0 0)
(1.8493e-06 0 0)
(1.84942e-06 0 0)
(1.84954e-06 0 0)
(1.84967e-06 0 0)
(1.84981e-06 0 0)
(1.84995e-06 0 0)
(1.85009e-06 0 0)
(1.85025e-06 0 0)
(1.85041e-06 0 0)
(1.85058e-06 0 0)
(1.85076e-06 0 0)
(1.85095e-06 0 0)
(1.85114e-06 0 0)
(1.85135e-06 0 0)
(1.85157e-06 0 0)
(1.85181e-06 0 0)
(1.85205e-06 0 0)
(1.85231e-06 0 0)
(1.85258e-06 0 0)
(1.85287e-06 0 0)
(1.85317e-06 0 0)
(1.85349e-06 0 0)
(1.85382e-06 0 0)
(1.85418e-06 0 0)
(1.85455e-06 0 0)
(1.85493e-06 0 0)
(1.85534e-06 0 0)
(1.85576e-06 0 0)
(1.85621e-06 0 0)
(1.85667e-06 0 0)
(1.85715e-06 0 0)
(1.85765e-06 0 0)
(1.85816e-06 0 0)
(1.8587e-06 0 0)
(1.85925e-06 0 0)
(1.85981e-06 0 0)
(1.86039e-06 0 0)
(1.86098e-06 0 0)
(1.86158e-06 0 0)
(1.8622e-06 0 0)
(1.86282e-06 0 0)
(1.86345e-06 0 0)
(1.86408e-06 0 0)
(1.86471e-06 0 0)
(1.86535e-06 0 0)
(1.86597e-06 0 0)
(1.8666e-06 0 0)
(1.86721e-06 0 0)
(1.86782e-06 0 0)
(1.86841e-06 0 0)
(1.86898e-06 0 0)
(1.86953e-06 0 0)
(1.87006e-06 0 0)
(1.87056e-06 0 0)
(1.87104e-06 0 0)
(1.87148e-06 0 0)
(1.87189e-06 0 0)
(1.87226e-06 0 0)
(1.87259e-06 0 0)
(1.87288e-06 0 0)
(1.87312e-06 0 0)
(1.87332e-06 0 0)
(1.87347e-06 0 0)
(1.87357e-06 0 0)
(1.87363e-06 0 0)
(1.87364e-06 0 0)
(1.87364e-06 0 0)
(1.87362e-06 0 0)
(1.87356e-06 0 0)
(1.8734e-06 0 0)
(1.87315e-06 0 0)
(1.87287e-06 0 0)
(1.87255e-06 0 0)
(1.87219e-06 0 0)
(1.87179e-06 0 0)
(1.87136e-06 0 0)
(1.8709e-06 0 0)
(1.87041e-06 0 0)
(1.86989e-06 0 0)
(1.86936e-06 0 0)
(1.8688e-06 0 0)
(1.86824e-06 0 0)
(1.86766e-06 0 0)
(1.86708e-06 0 0)
(1.86649e-06 0 0)
(1.86591e-06 0 0)
)
;

boundaryField
{
    inlet
    {
        type            fixedValue;
        value           uniform (2.74882e-06 0 0);
    }
    outlet
    {
        type            zeroGradient;
    }
    emptyWalls
    {
        type            empty;
    }
}


// ************************************************************************* //
