/*--------------------------------*- C++ -*----------------------------------*\
  =========                 |
  \\      /  F ield         | OpenFOAM: The Open Source CFD Toolbox
   \\    /   O peration     | Website:  https://openfoam.org
    \\  /    A nd           | Version:  9
     \\/     M anipulation  |
\*---------------------------------------------------------------------------*/
FoamFile
{
    format      ascii;
    class       volScalarField;
    location    "29550";
    object      p;
}
// * * * * * * * * * * * * * * * * * * * * * * * * * * * * * * * * * * * * * //

dimensions      [0 0 0 0 0 0 0];

internalField   nonuniform List<scalar> 
1000
(
159013
158587
158162
157740
157318
156899
156481
156064
155649
155236
154824
154414
154006
153599
153194
152790
152388
151988
151590
151193
150797
150404
150012
149621
149232
148844
148458
148073
147689
147307
146925
146544
146164
145785
145406
145028
144650
144273
143897
143523
143156
142816
142575
142459
142367
142279
142193
142107
142022
141938
141854
141770
141686
141602
141519
141436
141353
141270
141187
141104
141022
140940
140857
140775
140693
140611
140529
140447
140365
140284
140202
140120
140038
139956
139875
139793
139711
139630
139548
139466
139385
139303
139222
139140
139058
138977
138895
138814
138732
138650
138569
138487
138406
138324
138242
138161
138079
137997
137915
137833
137752
137670
137588
137506
137424
137342
137260
137177
137095
137013
136931
136848
136765
136683
136600
136517
136434
136351
136267
136183
136100
136016
135931
135847
135762
135677
135592
135507
135421
135335
135249
135163
135077
134990
134904
134816
134729
134642
134554
134466
134378
134290
134201
134113
134024
133935
133845
133756
133666
133576
133486
133395
133305
133214
133123
133032
132941
132849
132757
132665
132573
132481
132388
132296
132203
132110
132016
131923
131829
131735
131641
131547
131453
131358
131263
131168
131073
130977
130881
130785
130689
130593
130496
130400
130303
130206
130108
130011
129913
129815
129717
129619
129520
129421
129322
129223
129124
129024
128925
128825
128725
128625
128524
128424
128323
128222
128121
128019
127918
127816
127714
127612
127509
127407
127304
127201
127098
126995
126892
126788
126684
126580
126476
126372
126267
126162
126057
125952
125847
125741
125636
125530
125424
125318
125211
125105
124998
124891
124784
124677
124569
124462
124354
124246
124138
124029
123921
123812
123703
123594
123485
123376
123266
123156
123046
122936
122826
122716
122605
122494
122383
122272
122161
122049
121938
121826
121714
121602
121489
121377
121264
121151
121038
120925
120812
120698
120585
120471
120357
120243
120128
120014
119899
119784
119669
119554
119439
119323
119208
119092
118976
118860
118744
118628
118511
118394
118278
118160
118043
117926
117808
117691
117573
117455
117337
117218
117100
116981
116862
116743
116624
116504
116384
116265
116145
116025
115904
115784
115663
115542
115421
115300
115179
115058
114936
114814
114692
114570
114448
114325
114203
114080
113957
113834
113711
113587
113464
113340
113216
113092
112968
112844
112719
112594
112470
112345
112219
112094
111969
111843
111717
111591
111465
111339
111212
111086
110959
110832
110705
110578
110450
110323
110195
110067
109939
109811
109683
109554
109425
109297
109168
109039
108909
108780
108650
108521
108391
108261
108130
108000
107870
107739
107608
107477
107346
107215
107083
106952
106820
106688
106556
106424
106292
106159
106026
105894
105761
105628
105494
105361
105227
105094
104960
104826
104692
104557
104423
104288
104154
104019
103884
103748
103613
103478
103342
103206
103070
102934
102798
102662
102525
102389
102252
102115
101978
101841
101704
101566
101429
101291
101153
101015
100877
100739
100600
100462
100323
100184
100045
99906.1
99766.8
99627.4
99487.8
99348
99208.1
99068
98927.8
98787.5
98646.9
98506.3
98365.4
98224.4
98083.3
97942
97800.6
97658.9
97517.2
97375.3
97233.2
97091
96948.6
96806.1
96663.5
96520.6
96377.7
96234.6
96091.3
95947.9
95804.4
95660.7
95516.8
95372.8
95228.7
95084.4
94940
94795.4
94650.7
94505.8
94360.8
94215.6
94070.3
93924.9
93779.3
93633.6
93487.7
93341.6
93195.5
93049.1
92902.7
92756
92609.3
92462.4
92315.3
92168.1
92020.8
91873.3
91725.7
91577.9
91430
91281.9
91133.7
90985.4
90836.9
90688.3
90539.5
90390.6
90241.5
90092.3
89942.9
89793.4
89643.8
89494
89344.1
89194
89043.8
88893.4
88742.9
88592.3
88441.5
88290.6
88139.6
87988.4
87837
87685.5
87533.9
87382.1
87230.2
87078.2
86926
86773.7
86621.2
86468.6
86315.8
86163
86009.9
85856.8
85703.5
85550
85396.4
85242.7
85088.8
84934.8
84780.7
84626.4
84472
84317.4
84162.8
84007.9
83852.9
83697.8
83542.6
83387.2
83231.7
83076
82920.2
82764.3
82608.2
82452
82295.7
82139.2
81982.6
81825.9
81669
81512
81354.9
81197.6
81040.2
80882.7
80725
80567.3
80409.3
80251.3
80093.1
79934.8
79776.4
79617.9
79459.2
79300.4
79141.4
78982.4
78823.2
78663.8
78504.4
78344.8
78185.1
78025.2
77865.3
77705.2
77544.9
77384.5
77224
77063.3
76902.5
76741.6
76580.5
76419.3
76258
76096.5
75934.8
75773
75611.1
75449
75286.8
75124.4
74961.9
74799.3
74636.5
74473.5
74310.4
74147.2
73983.8
73820.3
73656.7
73492.9
73328.9
73164.8
73000.6
72836.2
72671.7
72507.1
72342.3
72177.4
72012.3
71847.1
71681.8
71516.3
71350.7
71185
71019.1
70853.1
70686.9
70520.6
70354.2
70187.6
70020.9
69854
69687
69519.9
69352.7
69185.3
69017.7
68850.1
68682.2
68514.3
68346.2
68178
68009.6
67841.1
67672.5
67503.7
67334.8
67165.8
66996.6
66827.3
66657.8
66488.3
66318.5
66148.7
65978.7
65808.5
65638.3
65467.9
65297.3
65126.6
64955.8
64784.9
64613.8
64442.6
64271.2
64099.7
63928.1
63756.3
63584.4
63412.4
63240.2
63067.9
62895.5
62722.9
62550.2
62377.4
62204.4
62031.3
61858.1
61684.7
61511.2
61337.5
61163.8
60989.9
60815.8
60641.6
60467.3
60292.9
60118.3
59943.6
59768.8
59593.8
59418.7
59243.4
59068.1
58892.6
58716.9
58541.2
58365.3
58189.2
58013.1
57836.8
57660.3
57483.8
57307.1
57130.3
56953.3
56776.2
56599
56421.6
56244.2
56066.6
55888.8
55711
55533
55354.8
55176.6
54998.2
54819.7
54641.1
54462.3
54283.4
54104.4
53925.3
53746
53566.7
53387.1
53207.5
53027.8
52847.9
52667.9
52487.8
52307.5
52127.1
51946.6
51766
51585.3
51404.4
51223.4
51042.3
50861.1
50679.7
50498.2
50316.6
50134.8
49952.9
49770.9
49588.8
49406.5
49224.1
49041.5
48858.9
48676
48493.1
48310
48126.8
47943.4
47759.9
47576.3
47392.5
47208.6
47024.6
46840.4
46656
46471.6
46286.9
46102.2
45917.3
45732.3
45547.1
45361.8
45176.3
44990.7
44805
44619.1
44433.1
44247
44060.7
43874.3
43687.7
43501
43314.2
43127.2
42940.1
42752.9
42565.5
42378
42190.3
42002.6
41814.6
41626.6
41438.4
41250.1
41061.6
40873
40684.3
40495.4
40306.4
40117.3
39928
39738.6
39549.1
39359.4
39169.6
38979.7
38789.6
38599.4
38409
38218.5
38027.9
37837.1
37646.3
37455.2
37264.1
37072.8
36881.3
36689.8
36498.1
36306.2
36114.3
35922.2
35729.9
35537.5
35345
35152.4
34959.6
34766.7
34573.6
34380.5
34187.1
33993.7
33800.1
33606.4
33412.5
33218.5
33024.4
32830.2
32635.8
32441.2
32246.6
32051.8
31856.9
31661.8
31466.6
31271.3
31075.8
30880.2
30684.5
30488.6
30292.7
30096.5
29900.3
29703.9
29507.3
29310.7
29113.9
28917
28719.9
28522.7
28325.4
28127.9
27930.3
27732.6
27534.7
27336.7
27138.6
26940.4
26742
26543.4
26344.8
26146
25947.1
25748
25548.9
25349.5
25150.1
24950.5
24750.8
24551
24351
24150.9
23950.6
23750.3
23549.8
23349.2
23148.4
22947.5
22746.5
22545.4
22344.1
22142.7
21941.2
21739.6
21537.8
21335.9
21133.8
20931.7
20729.4
20527
20324.5
20121.8
19919
19716.1
19513
19309.9
19106.6
18903.2
18699.6
18495.9
18292.1
18088.2
17884.1
17679.9
17475.6
17271.2
17066.6
16861.9
16657
16452.1
16246.9
16041.7
15836.3
15630.8
15425.1
15219.3
15013.4
14807.3
14601.1
14394.8
14188.3
13981.7
13774.9
13568
13360.9
13153.7
12946.3
12738.9
12531.2
12323.4
12115.5
11907.4
11699.2
11490.9
11282.4
11073.7
10864.9
10656
10446.9
10237.7
10028.3
9818.81
9609.16
9399.36
9189.42
8979.34
8769.11
8558.74
8348.22
8137.57
7926.77
7715.83
7504.75
7293.52
7082.15
6870.64
6658.99
6447.2
6235.26
6023.18
5810.96
5598.6
5386.09
5173.44
4960.65
4747.72
4534.64
4321.42
4108.06
3894.56
3680.91
3467.12
3253.19
3039.11
2824.89
2610.53
2396.02
2181.37
1966.58
1751.64
1536.56
1321.34
1105.97
890.46
674.804
459.007
242.924
)
;

boundaryField
{
    inlet
    {
        type            darcyGradPressure;
        gradient        uniform 116344;
        Mf              Mf;
        phi             phi;
        value           uniform 159226;
    }
    outlet
    {
        type            fixedValue;
        value           uniform 0;
    }
    emptyWalls
    {
        type            empty;
    }
}


// ************************************************************************* //
