/*--------------------------------*- C++ -*----------------------------------*\
  =========                 |
  \\      /  F ield         | OpenFOAM: The Open Source CFD Toolbox
   \\    /   O peration     | Website:  https://openfoam.org
    \\  /    A nd           | Version:  9
     \\/     M anipulation  |
\*---------------------------------------------------------------------------*/
FoamFile
{
    format      ascii;
    class       volScalarField;
    location    "29550";
    object      Sb;
}
// * * * * * * * * * * * * * * * * * * * * * * * * * * * * * * * * * * * * * //

dimensions      [0 0 0 0 0 0 0];

internalField   nonuniform List<scalar> 
1000
(
0.350195
0.350514
0.351
0.351461
0.351936
0.352418
0.352893
0.353382
0.353874
0.354368
0.354872
0.355382
0.355887
0.356418
0.356922
0.357475
0.357975
0.358551
0.359045
0.359625
0.360125
0.360681
0.361189
0.361708
0.362202
0.36268
0.363131
0.363559
0.363953
0.364319
0.364652
0.364953
0.365228
0.36546
0.365693
0.365858
0.366073
0.366229
0.366627
0.367725
0.371995
0.394082
0.530674
0.637957
0.658108
0.664656
0.667911
0.669977
0.671485
0.67268
0.673673
0.674534
0.675303
0.676002
0.676633
0.677194
0.67768
0.678099
0.678464
0.678795
0.679106
0.67941
0.679708
0.68
0.680278
0.680538
0.680785
0.681047
0.681298
0.681529
0.681736
0.68192
0.68208
0.682218
0.682337
0.682439
0.682525
0.682599
0.682661
0.682713
0.682757
0.682791
0.682818
0.682838
0.682851
0.682855
0.682852
0.682839
0.682819
0.68279
0.682753
0.682706
0.682651
0.682586
0.682514
0.682431
0.68234
0.682238
0.682127
0.682005
0.681873
0.68173
0.681575
0.681407
0.681226
0.68103
0.680818
0.680586
0.680333
0.680053
0.679743
0.679393
0.679
0.678551
0.678044
0.677471
0.67684
0.676157
0.675441
0.6747
0.673943
0.673174
0.672398
0.671616
0.670832
0.670045
0.669259
0.668474
0.667689
0.666907
0.666126
0.665348
0.664573
0.663799
0.663029
0.662262
0.661498
0.660737
0.659979
0.659225
0.658475
0.657728
0.656985
0.656246
0.655511
0.654778
0.654051
0.653326
0.652605
0.651885
0.65117
0.650454
0.649742
0.64903
0.648321
0.647611
0.646906
0.646201
0.6455
0.6448
0.644106
0.643413
0.642725
0.64204
0.641361
0.640684
0.640015
0.639349
0.63869
0.638035
0.637388
0.636745
0.636109
0.635476
0.63485
0.634225
0.633607
0.632989
0.632376
0.631763
0.631154
0.630544
0.629939
0.629331
0.628728
0.628124
0.627523
0.626922
0.626324
0.625726
0.625132
0.624538
0.623948
0.623359
0.622774
0.622189
0.621609
0.621028
0.620453
0.619878
0.619308
0.618738
0.618173
0.617607
0.617046
0.616485
0.615929
0.615373
0.614821
0.614269
0.613721
0.613174
0.61263
0.612086
0.611547
0.611007
0.610472
0.609936
0.609404
0.608872
0.608344
0.607815
0.607291
0.606767
0.606246
0.605725
0.605208
0.604691
0.604177
0.603663
0.603153
0.602643
0.602136
0.601629
0.601126
0.600622
0.600122
0.599622
0.599125
0.598628
0.598134
0.59764
0.59715
0.596659
0.596172
0.595684
0.5952
0.594715
0.594235
0.593753
0.593275
0.592796
0.592321
0.591845
0.591373
0.5909
0.590431
0.589961
0.589495
0.589027
0.588564
0.588099
0.587639
0.587178
0.58672
0.586262
0.585807
0.585351
0.584899
0.584446
0.583996
0.583545
0.583097
0.582648
0.582201
0.581753
0.581308
0.580861
0.580417
0.579972
0.579529
0.579084
0.578643
0.5782
0.57776
0.57732
0.576882
0.576444
0.576009
0.575574
0.575143
0.574712
0.574285
0.573858
0.573436
0.573013
0.572596
0.572179
0.571766
0.571353
0.570945
0.570537
0.570133
0.569728
0.569328
0.568926
0.568528
0.568129
0.567733
0.567335
0.56694
0.566544
0.56615
0.565755
0.565362
0.564968
0.564576
0.564182
0.563792
0.563399
0.56301
0.562619
0.562231
0.561841
0.561455
0.561067
0.560682
0.560296
0.559913
0.559528
0.559148
0.558765
0.558386
0.558006
0.557629
0.55725
0.556875
0.556498
0.556125
0.55575
0.555379
0.555005
0.554636
0.554264
0.553896
0.553527
0.55316
0.552792
0.552428
0.552061
0.551698
0.551333
0.550972
0.550609
0.550249
0.549887
0.549528
0.549168
0.548811
0.548452
0.548097
0.54774
0.547386
0.54703
0.546677
0.546323
0.545972
0.545619
0.545269
0.544918
0.544569
0.544219
0.543872
0.543523
0.543178
0.54283
0.542486
0.54214
0.541797
0.541452
0.541111
0.540767
0.540427
0.540085
0.539746
0.539405
0.539068
0.538728
0.538392
0.538053
0.537718
0.537381
0.537048
0.536712
0.536379
0.536045
0.535714
0.535381
0.535051
0.534719
0.53439
0.534059
0.533732
0.533402
0.533076
0.532747
0.532422
0.532094
0.531769
0.531442
0.531118
0.530792
0.530469
0.530143
0.52982
0.529494
0.529172
0.528847
0.528525
0.5282
0.527879
0.527555
0.527234
0.526911
0.526592
0.52627
0.525952
0.525631
0.525315
0.524996
0.524681
0.524364
0.524052
0.523737
0.523427
0.523115
0.522807
0.522497
0.522192
0.521884
0.521581
0.521276
0.520975
0.520673
0.520373
0.520072
0.519775
0.519475
0.519179
0.518881
0.518585
0.518288
0.517993
0.517696
0.517402
0.517106
0.516812
0.516516
0.516223
0.515927
0.515634
0.515339
0.515047
0.514752
0.514461
0.514166
0.513875
0.513582
0.513291
0.512999
0.512709
0.512417
0.512128
0.511837
0.511549
0.511259
0.510972
0.510682
0.510396
0.510108
0.509822
0.509535
0.50925
0.508964
0.50868
0.508394
0.508111
0.507827
0.507545
0.507261
0.506979
0.506696
0.506416
0.506133
0.505854
0.505572
0.505293
0.505013
0.504734
0.504454
0.504177
0.503898
0.503621
0.503342
0.503066
0.502788
0.502513
0.502236
0.501961
0.501685
0.501411
0.501135
0.500862
0.500587
0.500314
0.50004
0.499768
0.499494
0.499223
0.498949
0.498679
0.498406
0.498136
0.497864
0.497595
0.497324
0.497055
0.496785
0.496517
0.496246
0.495979
0.49571
0.495443
0.495174
0.494908
0.49464
0.494375
0.494107
0.493842
0.493575
0.493311
0.493045
0.492781
0.492515
0.492252
0.491987
0.491725
0.49146
0.491198
0.490934
0.490673
0.49041
0.490149
0.489886
0.489625
0.489362
0.489102
0.48884
0.48858
0.488318
0.488058
0.487796
0.487537
0.487275
0.487016
0.486754
0.486495
0.486234
0.485975
0.485714
0.485455
0.485194
0.484936
0.484676
0.484418
0.484159
0.483902
0.483643
0.483386
0.483128
0.482873
0.482616
0.482362
0.482106
0.481853
0.481598
0.481347
0.481093
0.480843
0.480591
0.480342
0.480091
0.479844
0.479594
0.479348
0.479099
0.478854
0.478607
0.478362
0.478116
0.477872
0.477626
0.477383
0.477138
0.476896
0.476651
0.476409
0.476164
0.475923
0.475678
0.475437
0.475193
0.474951
0.474708
0.474466
0.474223
0.473981
0.473738
0.473497
0.473254
0.473013
0.47277
0.47253
0.472287
0.472047
0.471805
0.471565
0.471323
0.471083
0.470842
0.470603
0.470362
0.470123
0.469882
0.469644
0.469404
0.469166
0.468926
0.468689
0.468449
0.468212
0.467973
0.467737
0.467498
0.467262
0.467024
0.466788
0.46655
0.466315
0.466077
0.465842
0.465605
0.46537
0.465133
0.464899
0.464663
0.464429
0.464192
0.463959
0.463723
0.46349
0.463254
0.463021
0.462786
0.462553
0.462318
0.462086
0.461851
0.461619
0.461385
0.461153
0.460919
0.460688
0.460454
0.460223
0.459989
0.459758
0.459525
0.459295
0.459062
0.458832
0.458599
0.458369
0.458137
0.457907
0.457675
0.457445
0.457213
0.456984
0.456753
0.456524
0.456293
0.456064
0.455833
0.455604
0.455374
0.455146
0.454915
0.454687
0.454457
0.454229
0.454
0.453772
0.453542
0.453315
0.453086
0.452859
0.45263
0.452403
0.452174
0.451947
0.451718
0.451492
0.451263
0.451036
0.450808
0.450581
0.450353
0.450126
0.449898
0.449671
0.449443
0.449216
0.448988
0.448761
0.448533
0.448307
0.448078
0.447852
0.447623
0.447397
0.447169
0.446943
0.446715
0.446489
0.446261
0.446036
0.445808
0.445583
0.445356
0.445131
0.444904
0.44468
0.444454
0.44423
0.444004
0.443781
0.443556
0.443334
0.44311
0.442888
0.442664
0.442443
0.442221
0.442
0.441778
0.441558
0.441337
0.441118
0.440897
0.440678
0.440458
0.44024
0.44002
0.439802
0.439582
0.439365
0.439145
0.438928
0.438709
0.438491
0.438272
0.438055
0.437836
0.437619
0.4374
0.437183
0.436963
0.436747
0.436527
0.43631
0.436091
0.435874
0.435655
0.435438
0.435218
0.435001
0.434782
0.434565
0.434346
0.434129
0.43391
0.433693
0.433474
0.433257
0.433038
0.432821
0.432602
0.432386
0.432167
0.43195
0.431731
0.431515
0.431296
0.43108
0.430861
0.430646
0.430427
0.430211
0.429992
0.429777
0.429558
0.429343
0.429124
0.428908
0.42869
0.428475
0.428256
0.428041
0.427822
0.427607
0.427388
0.427174
0.426955
0.42674
0.426521
0.426307
0.426087
0.425874
0.425653
0.425441
0.42522
0.425008
0.424786
0.424576
0.424352
0.424143
0.423919
0.423709
0.423486
0.423276
0.423053
0.422843
0.42262
0.42241
0.422186
0.421977
0.421753
0.421543
0.42132
0.42111
0.420886
0.420677
0.420453
0.420244
0.420019
0.419811
0.419585
0.419379
0.41915
0.418947
0.418715
0.418516
0.418278
0.418086
0.417841
0.417656
0.417403
0.417227
0.416965
0.416798
0.416526
0.416369
0.416087
0.415939
0.415648
0.41551
0.415209
0.41508
0.41477
0.414649
0.414331
0.414217
0.413893
0.413785
0.413455
0.413351
0.413017
0.412916
0.412579
0.412481
0.412141
0.412045
0.411703
0.411608
0.411265
0.411171
0.410827
0.410732
0.410389
0.410293
0.40995
0.409854
0.409511
0.409415
0.409072
0.408975
0.408633
0.408536
0.408194
0.408096
0.407755
0.407656
0.407316
0.407217
0.406877
0.406778
0.406438
0.406339
0.405999
0.4059
0.405561
0.405461
0.405124
0.405022
0.404687
0.404584
0.40425
0.404147
0.403813
0.403709
0.403376
0.403272
0.40294
0.402835
0.402504
0.402398
0.402067
0.401962
0.40163
0.401524
0.401193
0.401087
0.400756
0.400649
0.400318
0.40021
0.39988
0.39977
0.399442
0.39933
0.399002
0.39889
0.398562
0.398449
0.398122
0.398007
0.39768
0.397565
0.397238
0.397122
0.396795
0.396679
0.396351
0.396235
0.395906
0.39579
0.395461
0.395344
0.395017
0.394897
0.394571
0.39445
0.394123
0.394002
0.393676
0.393554
0.393228
0.393104
0.392779
0.392655
0.392329
0.392204
0.391879
0.391753
0.391427
0.391302
0.390975
0.39085
0.390522
0.390396
0.39007
0.389942
0.389616
0.389487
0.389161
0.389031
0.388705
0.388576
0.29226
)
;

boundaryField
{
    inlet
    {
        type            fixedValue;
        value           uniform 0.35;
    }
    outlet
    {
        type            zeroGradient;
    }
    emptyWalls
    {
        type            empty;
    }
}


// ************************************************************************* //
