/*--------------------------------*- C++ -*----------------------------------*\
  =========                 |
  \\      /  F ield         | OpenFOAM: The Open Source CFD Toolbox
   \\    /   O peration     | Website:  https://openfoam.org
    \\  /    A nd           | Version:  9
     \\/     M anipulation  |
\*---------------------------------------------------------------------------*/
FoamFile
{
    format      ascii;
    class       volScalarField;
    location    "11100";
    object      p;
}
// * * * * * * * * * * * * * * * * * * * * * * * * * * * * * * * * * * * * * //

dimensions      [0 0 0 0 0 0 0];

internalField   nonuniform List<scalar> 
1000
(
229381
228958
228539
228124
227714
227309
226907
226509
226115
225725
225337
224952
224570
224195
223846
223573
223446
223353
223266
223181
223097
223014
222931
222848
222766
222684
222602
222520
222438
222357
222275
222193
222112
222030
221948
221867
221785
221703
221621
221539
221457
221375
221292
221209
221125
221041
220956
220871
220785
220699
220612
220525
220437
220349
220260
220170
220080
219989
219898
219806
219714
219621
219528
219434
219340
219245
219150
219054
218957
218860
218763
218665
218567
218468
218369
218269
218168
218067
217966
217864
217762
217659
217555
217451
217347
217242
217136
217030
216924
216817
216710
216602
216493
216384
216275
216165
216055
215944
215833
215722
215610
215497
215384
215271
215157
215042
214928
214812
214697
214581
214464
214347
214229
214112
213993
213874
213755
213635
213515
213395
213274
213152
213030
212908
212785
212662
212539
212415
212290
212165
212040
211914
211788
211662
211535
211408
211280
211151
211023
210894
210764
210635
210504
210374
210242
210111
209979
209847
209714
209581
209447
209313
209179
209044
208909
208774
208638
208501
208365
208228
208090
207952
207814
207675
207536
207397
207257
207116
206976
206835
206693
206551
206409
206267
206124
205980
205837
205692
205548
205403
205258
205112
204966
204820
204673
204526
204378
204230
204082
203933
203784
203635
203485
203335
203184
203033
202882
202730
202578
202426
202273
202120
201967
201813
201659
201504
201349
201194
201038
200883
200726
200570
200413
200255
200098
199940
199781
199622
199463
199304
199144
198983
198823
198662
198500
198338
198176
198014
197851
197687
197524
197360
197195
197030
196865
196699
196533
196367
196200
196033
195866
195698
195530
195361
195192
195023
194854
194684
194513
194343
194172
194000
193829
193656
193484
193311
193138
192964
192791
192616
192442
192267
192091
191916
191740
191563
191387
191209
191032
190854
190676
190497
190319
190139
189960
189780
189599
189419
189238
189056
188875
188692
188510
188327
188144
187960
187777
187592
187408
187223
187038
186852
186666
186479
186293
186106
185918
185730
185542
185354
185165
184976
184786
184596
184406
184215
184024
183833
183641
183449
183257
183064
182871
182678
182484
182290
182095
181900
181705
181510
181314
181117
180921
180724
180526
180329
180131
179932
179733
179534
179335
179135
178935
178734
178533
178332
178130
177928
177726
177523
177320
177117
176913
176709
176504
176299
176094
175889
175683
175476
175270
175063
174855
174647
174439
174231
174022
173813
173603
173393
173183
172973
172762
172550
172338
172126
171914
171701
171488
171275
171061
170847
170632
170417
170202
169986
169770
169554
169337
169120
168903
168685
168467
168248
168029
167810
167590
167370
167150
166929
166707
166486
166264
166041
165818
165595
165372
165147
164923
164698
164473
164247
164021
163794
163567
163340
163112
162884
162655
162426
162197
161967
161736
161506
161274
161043
160811
160579
160346
160113
159880
159646
159412
159177
158942
158707
158472
158237
158001
157765
157529
157292
157056
156819
156582
156346
156109
155871
155634
155396
155158
154919
154678
154435
154187
153934
153674
153408
153137
152863
152586
152309
152032
151755
151477
151199
150921
150644
150366
150088
149810
149533
149255
148977
148699
148421
148144
147866
147588
147310
147032
146754
146477
146199
145921
145643
145365
145088
144810
144532
144254
143976
143698
143421
143143
142865
142587
142309
142031
141753
141476
141198
140920
140642
140364
140086
139809
139531
139253
138975
138697
138419
138142
137864
137586
137308
137030
136752
136474
136197
135919
135641
135363
135085
134807
134530
134252
133974
133696
133418
133140
132863
132585
132307
132029
131751
131474
131196
130918
130640
130362
130084
129807
129529
129251
128973
128696
128418
128140
127862
127584
127307
127029
126751
126473
126196
125918
125640
125362
125085
124807
124529
124251
123974
123696
123418
123141
122863
122585
122308
122030
121752
121475
121197
120920
120642
120364
120087
119809
119532
119254
118977
118700
118422
118145
117867
117590
117313
117035
116758
116481
116203
115926
115649
115371
115094
114817
114540
114262
113985
113708
113431
113154
112876
112599
112322
112045
111767
111490
111213
110935
110658
110381
110103
109826
109549
109271
108994
108716
108439
108161
107884
107606
107329
107051
106774
106496
106219
105941
105664
105386
105108
104831
104553
104275
103998
103720
103442
103165
102887
102609
102332
102054
101776
101499
101221
100943
100666
100388
100110
99832.6
99554.9
99277.2
98999.5
98721.8
98444.1
98166.3
97888.6
97610.9
97333.2
97055.4
96777.7
96500
96222.2
95944.5
95666.7
95389
95111.2
94833.4
94555.7
94277.9
94000.1
93722.3
93444.6
93166.8
92889
92611.2
92333.4
92055.6
91777.8
91500
91222.2
90944.4
90666.6
90388.7
90110.9
89833.1
89555.3
89277.4
88999.6
88721.8
88443.9
88166.1
87888.3
87610.4
87332.6
87054.7
86776.9
86499
86221.2
85943.3
85665.5
85387.6
85109.8
84831.9
84554.1
84276.2
83998.4
83720.5
83442.7
83164.8
82887
82609.1
82331.3
82053.4
81775.6
81497.7
81219.9
80942
80664.1
80386.3
80108.4
79830.6
79552.8
79274.9
78997.1
78719.2
78441.4
78163.5
77885.7
77607.8
77330
77052.2
76774.3
76496.5
76218.7
75940.8
75663
75385.2
75107.4
74829.5
74551.7
74273.9
73996.1
73718.3
73440.5
73162.6
72884.8
72607
72329.2
72051.4
71773.6
71495.8
71218
70940.3
70662.5
70384.7
70106.9
69829.2
69551.4
69273.6
68995.9
68718.1
68440.4
68162.6
67884.9
67607.2
67329.4
67051.7
66774
66496.3
66218.6
65940.9
65663.3
65385.6
65107.9
64830.3
64552.7
64275
63997.4
63719.8
63442.3
63164.7
62887.1
62609.6
62332.1
62054.6
61777.1
61499.6
61222.1
60944.6
60667.2
60389.8
60112.4
59835
59557.6
59280.2
59002.9
58725.5
58448.2
58170.8
57893.5
57616.2
57338.9
57061.6
56784.3
56507
56229.8
55952.5
55675.2
55397.9
55120.6
54843.3
54566
54288.7
54011.4
53734.1
53456.8
53179.4
52902.1
52624.7
52347.4
52070
51792.6
51515.1
51237.7
50960.3
50682.8
50405.3
50127.8
49850.3
49572.8
49295.3
49017.7
48740.2
48462.6
48185
47907.5
47629.9
47352.3
47074.6
46797
46519.4
46241.7
45964.1
45686.4
45408.8
45131.1
44853.4
44575.8
44298.1
44020.4
43742.7
43465
43187.4
42909.7
42632
42354.3
42076.6
41798.9
41521.1
41243.4
40965.7
40688
40410.3
40132.6
39854.8
39577.1
39299.4
39021.7
38743.9
38466.2
38188.4
37910.7
37632.9
37355.2
37077.4
36799.7
36521.9
36244.2
35966.4
35688.6
35410.8
35133.1
34855.3
34577.5
34299.7
34021.9
33744.1
33466.3
33188.5
32910.7
32632.9
32355.1
32077.3
31799.5
31521.7
31243.9
30966.1
30688.2
30410.4
30132.6
29854.8
29576.9
29299.1
29021.3
28743.4
28465.6
28187.8
27909.9
27632.1
27354.3
27076.4
26798.6
26520.7
26242.9
25965.1
25687.2
25409.4
25131.5
24853.7
24575.9
24298
24020.2
23742.3
23464.5
23186.7
22908.8
22631
22353.1
22075.3
21797.5
21519.6
21241.8
20964
20686.1
20408.3
20130.5
19852.6
19574.8
19297
19019.2
18741.3
18463.5
18185.7
17907.9
17630.1
17352.2
17074.4
16796.6
16518.8
16241
15963.2
15685.4
15407.6
15129.8
14852
14574.2
14296.4
14018.6
13740.9
13463.1
13185.3
12907.5
12629.8
12352
12074.2
11796.5
11518.7
11241
10963.2
10685.5
10407.8
10130.1
9852.34
9574.63
9296.93
9019.23
8741.54
8463.86
8186.19
7908.53
7630.88
7353.24
7075.61
6797.98
6520.37
6242.77
5965.19
5687.61
5410.05
5132.49
4854.95
4577.43
4299.91
4022.41
3744.92
3467.45
3189.99
2912.54
2635.1
2357.67
2080.26
1802.86
1525.47
1248.09
970.72
693.361
416.01
138.668
)
;

boundaryField
{
    inlet
    {
        type            darcyGradPressure;
        gradient        uniform 116344;
        Mf              Mf;
        phi             phi;
        value           uniform 229595;
    }
    outlet
    {
        type            fixedValue;
        value           uniform 0;
    }
    emptyWalls
    {
        type            empty;
    }
}


// ************************************************************************* //
