/*--------------------------------*- C++ -*----------------------------------*\
  =========                 |
  \\      /  F ield         | OpenFOAM: The Open Source CFD Toolbox
   \\    /   O peration     | Website:  https://openfoam.org
    \\  /    A nd           | Version:  9
     \\/     M anipulation  |
\*---------------------------------------------------------------------------*/
FoamFile
{
    format      ascii;
    class       surfaceScalarField;
    location    "11100";
    object      phic;
}
// * * * * * * * * * * * * * * * * * * * * * * * * * * * * * * * * * * * * * //

dimensions      [0 2 0 0 0 0 0];

internalField   nonuniform List<scalar> 
999
(
4.84636e-15
2.19232e-14
5.1457e-14
9.20487e-14
1.42645e-13
2.01584e-13
2.66339e-13
3.33606e-13
3.99884e-13
4.62582e-13
5.23325e-13
6.03141e-13
8.14499e-13
1.56118e-12
4.79928e-12
1.72389e-11
2.05097e-11
2.15097e-11
2.20192e-11
2.23701e-11
2.2652e-11
2.28967e-11
2.31182e-11
2.3323e-11
2.35151e-11
2.36967e-11
2.387e-11
2.40374e-11
2.4201e-11
2.43631e-11
2.45258e-11
2.4691e-11
2.4861e-11
2.50449e-11
2.52403e-11
2.54479e-11
2.5672e-11
2.59201e-11
2.62039e-11
2.65406e-11
2.69507e-11
2.74522e-11
2.80495e-11
2.87284e-11
2.94666e-11
3.02461e-11
3.10551e-11
3.18862e-11
3.27341e-11
3.35955e-11
3.44678e-11
3.53493e-11
3.62388e-11
3.71354e-11
3.80384e-11
3.89474e-11
3.98616e-11
4.07805e-11
4.17032e-11
4.26292e-11
4.35579e-11
4.44891e-11
4.54227e-11
4.63589e-11
4.72977e-11
4.82394e-11
4.9184e-11
5.01317e-11
5.10829e-11
5.20377e-11
5.29966e-11
5.396e-11
5.49282e-11
5.59019e-11
5.68811e-11
5.78662e-11
5.88571e-11
5.98535e-11
6.0855e-11
6.18609e-11
6.28706e-11
6.38833e-11
6.48983e-11
6.59149e-11
6.69326e-11
6.79509e-11
6.89697e-11
6.99887e-11
7.10081e-11
7.20279e-11
7.30483e-11
7.40696e-11
7.50921e-11
7.6116e-11
7.71415e-11
7.8169e-11
7.91985e-11
8.02303e-11
8.12644e-11
8.23009e-11
8.33398e-11
8.43812e-11
8.5425e-11
8.64711e-11
8.75194e-11
8.857e-11
8.96228e-11
9.06777e-11
9.17347e-11
9.27936e-11
9.38545e-11
9.49173e-11
9.5982e-11
9.70485e-11
9.81168e-11
9.91869e-11
1.00259e-10
1.01332e-10
1.02408e-10
1.03485e-10
1.04563e-10
1.05644e-10
1.06726e-10
1.0781e-10
1.08895e-10
1.09982e-10
1.11071e-10
1.12162e-10
1.13254e-10
1.14348e-10
1.15444e-10
1.16541e-10
1.1764e-10
1.18741e-10
1.19843e-10
1.20948e-10
1.22053e-10
1.23161e-10
1.2427e-10
1.25381e-10
1.26493e-10
1.27607e-10
1.28723e-10
1.2984e-10
1.30959e-10
1.3208e-10
1.33202e-10
1.34326e-10
1.35451e-10
1.36578e-10
1.37707e-10
1.38837e-10
1.39969e-10
1.41102e-10
1.42237e-10
1.43374e-10
1.44512e-10
1.45652e-10
1.46794e-10
1.47937e-10
1.49082e-10
1.50228e-10
1.51376e-10
1.52526e-10
1.53677e-10
1.5483e-10
1.55984e-10
1.57141e-10
1.58299e-10
1.59459e-10
1.6062e-10
1.61783e-10
1.62948e-10
1.64115e-10
1.65284e-10
1.66454e-10
1.67626e-10
1.688e-10
1.69975e-10
1.71152e-10
1.72331e-10
1.73511e-10
1.74693e-10
1.75877e-10
1.77062e-10
1.78249e-10
1.79438e-10
1.80628e-10
1.81819e-10
1.83012e-10
1.84205e-10
1.85399e-10
1.86594e-10
1.87789e-10
1.88985e-10
1.90181e-10
1.91377e-10
1.92573e-10
1.93769e-10
1.94965e-10
1.96161e-10
1.97358e-10
1.98556e-10
1.99754e-10
2.00953e-10
2.02154e-10
2.03357e-10
2.04563e-10
2.05772e-10
2.06984e-10
2.08201e-10
2.09422e-10
2.10649e-10
2.11882e-10
2.1312e-10
2.14365e-10
2.15617e-10
2.16875e-10
2.1814e-10
2.19411e-10
2.20688e-10
2.21971e-10
2.23259e-10
2.24551e-10
2.25846e-10
2.27145e-10
2.28446e-10
2.29749e-10
2.31053e-10
2.32358e-10
2.33663e-10
2.34969e-10
2.36274e-10
2.37579e-10
2.38884e-10
2.40189e-10
2.41494e-10
2.428e-10
2.44105e-10
2.45412e-10
2.4672e-10
2.48028e-10
2.49339e-10
2.50651e-10
2.51965e-10
2.53282e-10
2.546e-10
2.55922e-10
2.57246e-10
2.58573e-10
2.59903e-10
2.61236e-10
2.62572e-10
2.63911e-10
2.65253e-10
2.66598e-10
2.67946e-10
2.69298e-10
2.70652e-10
2.7201e-10
2.73371e-10
2.74734e-10
2.76101e-10
2.77471e-10
2.78843e-10
2.80219e-10
2.81597e-10
2.82979e-10
2.84363e-10
2.85751e-10
2.87141e-10
2.88534e-10
2.8993e-10
2.91329e-10
2.92732e-10
2.94137e-10
2.95545e-10
2.96956e-10
2.9837e-10
2.99787e-10
3.01208e-10
3.02631e-10
3.04058e-10
3.05488e-10
3.06921e-10
3.08357e-10
3.09797e-10
3.1124e-10
3.12686e-10
3.14135e-10
3.15588e-10
3.17045e-10
3.18504e-10
3.19968e-10
3.21434e-10
3.22905e-10
3.24379e-10
3.25856e-10
3.27337e-10
3.28822e-10
3.30311e-10
3.31803e-10
3.33299e-10
3.34799e-10
3.36303e-10
3.37811e-10
3.39322e-10
3.40838e-10
3.42357e-10
3.43881e-10
3.45408e-10
3.4694e-10
3.48476e-10
3.50016e-10
3.5156e-10
3.53109e-10
3.54662e-10
3.56219e-10
3.5778e-10
3.59346e-10
3.60917e-10
3.62492e-10
3.64072e-10
3.65656e-10
3.67245e-10
3.68839e-10
3.70438e-10
3.72041e-10
3.7365e-10
3.75264e-10
3.76882e-10
3.78506e-10
3.80135e-10
3.8177e-10
3.8341e-10
3.85055e-10
3.86705e-10
3.88361e-10
3.90023e-10
3.9169e-10
3.93364e-10
3.95042e-10
3.96727e-10
3.98417e-10
4.00114e-10
4.01816e-10
4.03524e-10
4.05238e-10
4.06958e-10
4.08683e-10
4.10415e-10
4.12152e-10
4.13895e-10
4.15644e-10
4.17399e-10
4.1916e-10
4.20926e-10
4.22698e-10
4.24476e-10
4.26259e-10
4.28048e-10
4.29842e-10
4.31642e-10
4.33448e-10
4.35259e-10
4.37077e-10
4.38901e-10
4.40731e-10
4.42568e-10
4.44412e-10
4.46264e-10
4.48123e-10
4.4999e-10
4.51866e-10
4.53751e-10
4.55646e-10
4.57551e-10
4.59467e-10
4.61395e-10
4.63335e-10
4.65287e-10
4.67253e-10
4.69233e-10
4.71228e-10
4.73238e-10
4.75263e-10
4.77305e-10
4.79364e-10
4.81438e-10
4.8353e-10
4.85638e-10
4.87764e-10
4.89906e-10
4.92065e-10
4.9424e-10
4.96431e-10
4.98638e-10
5.0086e-10
5.03095e-10
5.05345e-10
5.07608e-10
5.09883e-10
5.12171e-10
5.14469e-10
5.16777e-10
5.19094e-10
5.21418e-10
5.2375e-10
5.26086e-10
5.28426e-10
5.30767e-10
5.33107e-10
5.35441e-10
5.37767e-10
5.40079e-10
5.42374e-10
5.44644e-10
5.46882e-10
5.4908e-10
5.51228e-10
5.53317e-10
5.55336e-10
5.57276e-10
5.59124e-10
5.60872e-10
5.62508e-10
5.64025e-10
5.65419e-10
5.66687e-10
5.67828e-10
5.68848e-10
5.69754e-10
5.70564e-10
5.71305e-10
5.72023e-10
5.72795e-10
5.73745e-10
5.75092e-10
5.77214e-10
5.80761e-10
5.86837e-10
5.97228e-10
6.14602e-10
6.42323e-10
6.83238e-10
7.37003e-10
7.97525e-10
8.54429e-10
8.99137e-10
9.29302e-10
9.47519e-10
9.57768e-10
9.63301e-10
9.66224e-10
9.67753e-10
9.6855e-10
9.68968e-10
9.6919e-10
9.6931e-10
9.69379e-10
9.6942e-10
9.69448e-10
9.69468e-10
9.69484e-10
9.69497e-10
9.6951e-10
9.69521e-10
9.69532e-10
9.69542e-10
9.69551e-10
9.6956e-10
9.69569e-10
9.69577e-10
9.69585e-10
9.69592e-10
9.69599e-10
9.69605e-10
9.69611e-10
9.69617e-10
9.69623e-10
9.69628e-10
9.69633e-10
9.69637e-10
9.69641e-10
9.69645e-10
9.69649e-10
9.69652e-10
9.69655e-10
9.69657e-10
9.6966e-10
9.69662e-10
9.69664e-10
9.69665e-10
9.69667e-10
9.69668e-10
9.69669e-10
9.69669e-10
9.69669e-10
9.69669e-10
9.69669e-10
9.69669e-10
9.69668e-10
9.69667e-10
9.69666e-10
9.69665e-10
9.69663e-10
9.69661e-10
9.69658e-10
9.69656e-10
9.69653e-10
9.6965e-10
9.69646e-10
9.69643e-10
9.69639e-10
9.69635e-10
9.6963e-10
9.69626e-10
9.69621e-10
9.69615e-10
9.6961e-10
9.69604e-10
9.69598e-10
9.69592e-10
9.69586e-10
9.69579e-10
9.69572e-10
9.69565e-10
9.69557e-10
9.69549e-10
9.69541e-10
9.69533e-10
9.69524e-10
9.69515e-10
9.69505e-10
9.69495e-10
9.69485e-10
9.69474e-10
9.69462e-10
9.6945e-10
9.69437e-10
9.69423e-10
9.69409e-10
9.69393e-10
9.69377e-10
9.69359e-10
9.6934e-10
9.6932e-10
9.69298e-10
9.69274e-10
9.69249e-10
9.69222e-10
9.69193e-10
9.69162e-10
9.69128e-10
9.69093e-10
9.69055e-10
9.69015e-10
9.68972e-10
9.68926e-10
9.68878e-10
9.68828e-10
9.68775e-10
9.68719e-10
9.68662e-10
9.68601e-10
9.68539e-10
9.68475e-10
9.6841e-10
9.68342e-10
9.68274e-10
9.68205e-10
9.68135e-10
9.68065e-10
9.67995e-10
9.67926e-10
9.67859e-10
9.67792e-10
9.67728e-10
9.67667e-10
9.67608e-10
9.67553e-10
9.67502e-10
9.67456e-10
9.67415e-10
9.67379e-10
9.67349e-10
9.67325e-10
9.67308e-10
9.67297e-10
9.67292e-10
9.67291e-10
9.67292e-10
9.67296e-10
9.67318e-10
9.67346e-10
9.67381e-10
9.67421e-10
9.67467e-10
9.67517e-10
9.67572e-10
9.67631e-10
9.67693e-10
9.67757e-10
9.67824e-10
9.67892e-10
9.67961e-10
9.6803e-10
9.68099e-10
9.68166e-10
9.68233e-10
9.68298e-10
9.68361e-10
9.68421e-10
9.68479e-10
9.68534e-10
9.68586e-10
9.68634e-10
9.6868e-10
9.68722e-10
9.68762e-10
9.68798e-10
9.68831e-10
9.68862e-10
9.68889e-10
9.68915e-10
9.68938e-10
9.68959e-10
9.68978e-10
9.68996e-10
9.69012e-10
9.69027e-10
9.69041e-10
9.69054e-10
9.69066e-10
9.69078e-10
9.69089e-10
9.69101e-10
9.69112e-10
9.69123e-10
9.69134e-10
9.69145e-10
9.69156e-10
9.69168e-10
9.69179e-10
9.69192e-10
9.69204e-10
9.69217e-10
9.6923e-10
9.69244e-10
9.69257e-10
9.69271e-10
9.69286e-10
9.693e-10
9.69315e-10
9.6933e-10
9.69345e-10
9.6936e-10
9.69376e-10
9.69391e-10
9.69406e-10
9.69421e-10
9.69436e-10
9.69451e-10
9.69466e-10
9.69481e-10
9.69495e-10
9.69509e-10
9.69523e-10
9.69536e-10
9.6955e-10
9.69562e-10
9.69575e-10
9.69587e-10
9.69598e-10
9.69609e-10
9.6962e-10
9.6963e-10
9.6964e-10
9.69649e-10
9.69657e-10
9.69665e-10
9.69673e-10
9.6968e-10
9.69686e-10
9.69692e-10
9.69697e-10
9.69702e-10
9.69707e-10
9.69711e-10
9.69714e-10
9.69718e-10
9.6972e-10
9.69723e-10
9.69725e-10
9.69727e-10
9.69728e-10
9.69729e-10
9.6973e-10
9.69731e-10
9.69731e-10
9.69731e-10
9.69731e-10
9.69731e-10
9.6973e-10
9.69729e-10
9.69727e-10
9.69725e-10
9.69723e-10
9.69721e-10
9.69718e-10
9.69715e-10
9.69712e-10
9.69709e-10
9.69705e-10
9.69701e-10
9.69697e-10
9.69692e-10
9.69688e-10
9.69683e-10
9.69678e-10
9.69672e-10
9.69666e-10
9.6966e-10
9.69654e-10
9.69648e-10
9.69641e-10
9.69634e-10
9.69627e-10
9.69619e-10
9.69611e-10
9.69603e-10
9.69595e-10
9.69587e-10
9.69578e-10
9.69569e-10
9.69559e-10
9.69549e-10
9.69539e-10
9.69529e-10
9.69518e-10
9.69506e-10
9.69494e-10
9.69482e-10
9.69469e-10
9.69455e-10
9.69441e-10
9.69425e-10
9.6941e-10
9.69393e-10
9.69375e-10
9.69356e-10
9.69337e-10
9.69316e-10
9.69293e-10
9.6927e-10
9.69245e-10
9.69218e-10
9.6919e-10
9.69161e-10
9.6913e-10
9.69097e-10
9.69062e-10
9.69025e-10
9.68987e-10
9.68947e-10
9.68904e-10
9.6886e-10
9.68815e-10
9.68767e-10
9.68718e-10
9.68667e-10
9.68614e-10
9.68561e-10
9.68506e-10
9.6845e-10
9.68393e-10
9.68335e-10
9.68277e-10
9.68219e-10
9.68161e-10
9.68104e-10
9.68047e-10
9.67991e-10
9.67936e-10
9.67883e-10
9.67832e-10
9.67783e-10
9.67737e-10
9.67694e-10
9.67655e-10
9.67619e-10
9.67587e-10
9.67559e-10
9.67535e-10
9.67516e-10
9.67502e-10
9.67494e-10
9.6749e-10
9.67489e-10
9.67488e-10
9.67491e-10
9.67506e-10
9.67528e-10
9.67554e-10
9.67584e-10
9.6762e-10
9.67659e-10
9.67702e-10
9.67748e-10
9.67797e-10
9.67848e-10
9.67902e-10
9.67957e-10
9.68014e-10
9.68071e-10
9.68128e-10
9.68186e-10
9.68243e-10
9.683e-10
9.68355e-10
9.68409e-10
9.68461e-10
9.68511e-10
9.68559e-10
9.68606e-10
9.6865e-10
9.68691e-10
9.6873e-10
9.68767e-10
9.68802e-10
9.68834e-10
9.68864e-10
9.68892e-10
9.68918e-10
9.68941e-10
9.68964e-10
9.68984e-10
9.69003e-10
9.6902e-10
9.69037e-10
9.69052e-10
9.69066e-10
9.6908e-10
9.69092e-10
9.69105e-10
9.69116e-10
9.69128e-10
9.69139e-10
9.6915e-10
9.6916e-10
9.69171e-10
9.69182e-10
9.69192e-10
9.69203e-10
9.69214e-10
9.69225e-10
9.69236e-10
9.69248e-10
9.69259e-10
9.69271e-10
9.69283e-10
9.69295e-10
9.69307e-10
9.6932e-10
9.69332e-10
9.69345e-10
9.69358e-10
9.6937e-10
9.69383e-10
9.69396e-10
9.69409e-10
9.69421e-10
9.69434e-10
9.69446e-10
9.69459e-10
9.69471e-10
9.69483e-10
9.69495e-10
9.69506e-10
9.69517e-10
9.69529e-10
9.69539e-10
9.6955e-10
9.6956e-10
9.69569e-10
9.69579e-10
9.69588e-10
9.69596e-10
9.69605e-10
9.69612e-10
9.6962e-10
9.69627e-10
9.69633e-10
9.69639e-10
9.69645e-10
9.69651e-10
9.69655e-10
9.6966e-10
9.69664e-10
9.69668e-10
9.69671e-10
9.69674e-10
9.69676e-10
9.69678e-10
9.6968e-10
9.69682e-10
9.69683e-10
9.69683e-10
9.69683e-10
9.69684e-10
9.69684e-10
9.69683e-10
9.69683e-10
9.69681e-10
9.6968e-10
9.69678e-10
9.69676e-10
9.69673e-10
9.69671e-10
9.69668e-10
9.69665e-10
9.69661e-10
9.69658e-10
9.69654e-10
9.69649e-10
9.69645e-10
9.6964e-10
9.69636e-10
9.6963e-10
9.69625e-10
9.6962e-10
9.69614e-10
9.69608e-10
9.69601e-10
9.69595e-10
9.69588e-10
9.69581e-10
9.69573e-10
9.69566e-10
9.69558e-10
9.69549e-10
9.69541e-10
9.69532e-10
9.69522e-10
9.69512e-10
9.69502e-10
9.69491e-10
9.6948e-10
9.69468e-10
9.69456e-10
9.69443e-10
9.69429e-10
9.69415e-10
9.69399e-10
9.69383e-10
9.69367e-10
9.69349e-10
9.6933e-10
9.6931e-10
9.69289e-10
9.69268e-10
9.69244e-10
9.6922e-10
9.69194e-10
9.69167e-10
9.69139e-10
9.69109e-10
9.69078e-10
9.69046e-10
9.69011e-10
9.68976e-10
9.68939e-10
9.689e-10
9.6886e-10
9.68819e-10
9.68776e-10
9.68732e-10
9.68687e-10
9.6864e-10
9.68593e-10
9.68544e-10
9.68495e-10
9.68445e-10
9.68395e-10
9.68344e-10
9.68293e-10
9.68242e-10
9.68192e-10
9.68141e-10
9.68092e-10
9.68043e-10
9.67997e-10
9.67949e-10
9.67906e-10
9.67863e-10
9.67823e-10
9.67784e-10
9.6775e-10
9.67716e-10
)
;

boundaryField
{
    inlet
    {
        type            calculated;
        value           uniform 0;
    }
    outlet
    {
        type            calculated;
        value           uniform 9.67689e-10;
    }
    emptyWalls
    {
        type            empty;
        value           nonuniform List<scalar> 0();
    }
}


// ************************************************************************* //
