/*--------------------------------*- C++ -*----------------------------------*\
  =========                 |
  \\      /  F ield         | OpenFOAM: The Open Source CFD Toolbox
   \\    /   O peration     | Website:  https://openfoam.org
    \\  /    A nd           | Version:  9
     \\/     M anipulation  |
\*---------------------------------------------------------------------------*/
FoamFile
{
    format      ascii;
    class       volScalarField;
    location    "25600";
    object      Fa;
}
// * * * * * * * * * * * * * * * * * * * * * * * * * * * * * * * * * * * * * //

dimensions      [0 0 0 0 0 0 0];

internalField   nonuniform List<scalar> 
1000
(
0.194811
0.194771
0.194823
0.194747
0.194822
0.19471
0.194794
0.194669
0.194729
0.19464
0.194644
0.194601
0.194567
0.19453
0.194491
0.194441
0.194401
0.194349
0.194296
0.194249
0.194179
0.194149
0.19405
0.194065
0.193933
0.193986
0.193853
0.193898
0.193804
0.193814
0.193762
0.193748
0.1937
0.193599
0.19319
0.190924
0.172112
0.15445
0.15142
0.150316
0.149722
0.149322
0.149017
0.148765
0.14855
0.14836
0.148188
0.14803
0.147883
0.14775
0.147631
0.147526
0.147431
0.14734
0.147247
0.14715
0.147054
0.146964
0.146885
0.146828
0.146795
0.146767
0.146722
0.146658
0.146594
0.146525
0.146441
0.14637
0.14632
0.146289
0.146283
0.14641
0.146614
0.146851
0.147106
0.147359
0.14759
0.147781
0.147919
0.148004
0.148048
0.148078
0.148108
0.148125
0.148041
0.147848
0.147603
0.147325
0.147032
0.146741
0.146465
0.146215
0.145995
0.145811
0.145661
0.145545
0.14546
0.145403
0.145368
0.145353
0.145353
0.145362
0.145374
0.145385
0.145393
0.145397
0.145395
0.145387
0.145374
0.145356
0.145333
0.145307
0.145277
0.145246
0.145213
0.145179
0.145144
0.145109
0.145074
0.145039
0.145005
0.144971
0.144937
0.144904
0.144872
0.144841
0.14481
0.14478
0.144751
0.144722
0.144695
0.144668
0.144642
0.144617
0.144594
0.144571
0.144549
0.144528
0.144508
0.144489
0.14447
0.144452
0.144435
0.144418
0.144403
0.144388
0.144375
0.144363
0.144353
0.144343
0.144335
0.144328
0.144322
0.144316
0.144311
0.144306
0.1443
0.144294
0.144288
0.144282
0.144277
0.144273
0.14427
0.144269
0.144269
0.144271
0.144274
0.144277
0.144282
0.144286
0.144289
0.144291
0.144291
0.144288
0.144284
0.144278
0.144273
0.14427
0.144272
0.144282
0.144302
0.144335
0.144382
0.144444
0.144521
0.144613
0.144719
0.144837
0.144965
0.145101
0.145242
0.145385
0.145529
0.145668
0.145799
0.14592
0.146025
0.146112
0.146178
0.146219
0.146235
0.146224
0.146186
0.146122
0.146035
0.145928
0.145803
0.145667
0.145522
0.145373
0.145224
0.145079
0.144942
0.144813
0.144696
0.144591
0.144499
0.144419
0.144352
0.144296
0.144249
0.144211
0.144181
0.144156
0.144135
0.144118
0.144102
0.144088
0.144073
0.144058
0.144043
0.144025
0.144007
0.143986
0.143964
0.14394
0.143915
0.143888
0.143861
0.143832
0.143802
0.143772
0.143741
0.14371
0.143679
0.143647
0.143616
0.143585
0.143554
0.143524
0.143494
0.143464
0.143435
0.143406
0.143378
0.143351
0.143324
0.143298
0.143272
0.143248
0.143223
0.1432
0.143177
0.143155
0.143134
0.143113
0.143093
0.143074
0.143056
0.143038
0.143021
0.143005
0.14299
0.142975
0.142962
0.142949
0.142937
0.142925
0.142915
0.142905
0.142895
0.142886
0.142878
0.14287
0.142862
0.142855
0.142848
0.142842
0.142836
0.142831
0.142827
0.142823
0.14282
0.142818
0.142816
0.142814
0.142813
0.142811
0.14281
0.142808
0.142806
0.142804
0.142802
0.1428
0.142799
0.142798
0.142799
0.142803
0.14281
0.142821
0.142836
0.142857
0.142885
0.142919
0.14296
0.143009
0.143065
0.143129
0.1432
0.143278
0.143362
0.14345
0.143543
0.143639
0.143736
0.143833
0.143929
0.14402
0.144107
0.144187
0.144257
0.144318
0.144367
0.144404
0.144426
0.144434
0.144427
0.144406
0.14437
0.144321
0.14426
0.144187
0.144105
0.144015
0.143919
0.14382
0.143717
0.143615
0.143513
0.143414
0.143319
0.143228
0.143143
0.143064
0.142991
0.142924
0.142863
0.142809
0.14276
0.142716
0.142676
0.142641
0.142609
0.14258
0.142554
0.142529
0.142506
0.142483
0.142462
0.14244
0.142418
0.142397
0.142374
0.142352
0.142328
0.142305
0.14228
0.142255
0.142229
0.142203
0.142176
0.142148
0.142121
0.142093
0.142065
0.142037
0.142008
0.14198
0.141952
0.141924
0.141897
0.141869
0.141842
0.141815
0.141789
0.141763
0.141737
0.141712
0.141688
0.141664
0.14164
0.141617
0.141595
0.141573
0.141551
0.141531
0.141511
0.141491
0.141472
0.141454
0.141436
0.141419
0.141403
0.141387
0.141372
0.141357
0.141343
0.14133
0.141317
0.141305
0.141294
0.141282
0.141272
0.141262
0.141252
0.141243
0.141234
0.141226
0.141218
0.141211
0.141204
0.141198
0.141191
0.141186
0.14118
0.141175
0.141171
0.141166
0.141162
0.141158
0.141155
0.141151
0.141147
0.141144
0.141141
0.141139
0.141137
0.141136
0.141135
0.141136
0.141138
0.141142
0.141148
0.141157
0.141169
0.141183
0.141201
0.141223
0.141249
0.141279
0.141314
0.141353
0.141396
0.141444
0.141496
0.141552
0.141611
0.141674
0.141739
0.141806
0.141874
0.141943
0.142012
0.142079
0.142145
0.142208
0.142267
0.142321
0.14237
0.142413
0.142448
0.142476
0.142496
0.142507
0.142509
0.142503
0.142487
0.142463
0.14243
0.142389
0.14234
0.142285
0.142224
0.142158
0.142088
0.142015
0.141939
0.141862
0.141785
0.141708
0.141632
0.141558
0.141486
0.141416
0.14135
0.141287
0.141228
0.141172
0.141119
0.14107
0.141025
0.140982
0.140943
0.140906
0.140872
0.140839
0.140809
0.14078
0.140753
0.140726
0.140701
0.140676
0.140652
0.140628
0.140604
0.140581
0.140557
0.140533
0.140509
0.140485
0.14046
0.140435
0.14041
0.140385
0.14036
0.140334
0.140308
0.140282
0.140256
0.14023
0.140203
0.140177
0.140151
0.140125
0.140099
0.140073
0.140048
0.140023
0.139998
0.139973
0.139949
0.139924
0.139901
0.139877
0.139855
0.139832
0.13981
0.139788
0.139767
0.139746
0.139726
0.139706
0.139687
0.139668
0.13965
0.139632
0.139615
0.139598
0.139582
0.139566
0.139551
0.139536
0.139522
0.139508
0.139495
0.139482
0.13947
0.139458
0.139447
0.139435
0.139425
0.139415
0.139405
0.139395
0.139386
0.139377
0.139369
0.139361
0.139353
0.139346
0.139339
0.139332
0.139325
0.139319
0.139313
0.139307
0.139301
0.139296
0.139291
0.139287
0.139283
0.139279
0.139276
0.139274
0.139273
0.139272
0.139273
0.139275
0.139279
0.139284
0.139291
0.1393
0.139311
0.139325
0.139341
0.139359
0.139381
0.139405
0.139432
0.139462
0.139495
0.13953
0.139569
0.139609
0.139652
0.139698
0.139745
0.139793
0.139843
0.139894
0.139945
0.139996
0.140046
0.140095
0.140143
0.140189
0.140232
0.140272
0.140309
0.140342
0.14037
0.140393
0.140412
0.140425
0.140432
0.140433
0.140429
0.140419
0.140402
0.14038
0.140353
0.14032
0.140282
0.140239
0.140193
0.140142
0.140088
0.140032
0.139974
0.139913
0.139852
0.13979
0.139728
0.139666
0.139604
0.139544
0.139485
0.139427
0.139371
0.139318
0.139266
0.139216
0.139168
0.139123
0.13908
0.139039
0.138999
0.138962
0.138926
0.138892
0.138859
0.138828
0.138798
0.138769
0.13874
0.138713
0.138686
0.13866
0.138634
0.138608
0.138583
0.138558
0.138533
0.138508
0.138482
0.138458
0.138432
0.138407
0.138382
0.138357
0.138331
0.138306
0.13828
0.138255
0.138228
0.138204
0.138177
0.138153
0.138126
0.138103
0.138075
0.138053
0.138025
0.138003
0.137976
0.137955
0.137927
0.137907
0.13788
0.137861
0.137834
0.137816
0.137789
0.137772
0.137746
0.13773
0.137704
0.13769
0.137665
0.137651
0.137627
0.137613
0.13759
0.137578
0.137556
0.137544
0.137523
0.137512
0.137492
0.137481
0.137463
0.137452
0.137436
0.137425
0.13741
0.137399
0.137386
0.137375
0.137363
0.137353
0.137341
0.137331
0.137321
0.137312
0.137302
0.137293
0.137284
0.137276
0.137267
0.137259
0.137252
0.137244
0.137237
0.137231
0.137224
0.137218
0.137213
0.137207
0.137203
0.137199
0.137195
0.137192
0.13719
0.137189
0.137188
0.137189
0.137191
0.137194
0.137198
0.137204
0.137211
0.13722
0.13723
0.137242
0.137256
0.137272
0.13729
0.137309
0.137331
0.137354
0.13738
0.137407
0.137436
0.137467
0.137499
0.137533
0.137568
0.137604
0.137641
0.137678
0.137716
0.137755
0.137793
0.137831
0.137868
0.137904
0.137938
0.137972
0.138003
0.138032
0.138059
0.138083
0.138104
0.138122
0.138136
0.138147
0.138153
0.138156
0.138155
0.13815
0.13814
0.138127
0.138108
0.138087
0.13806
0.138032
0.137998
0.137963
0.137922
0.137881
0.137835
0.13779
0.13774
0.13769
0.137638
0.137586
0.137532
0.137479
0.137425
0.137372
0.137318
0.137267
0.137214
0.137164
0.137113
0.137066
0.137017
0.136972
0.136927
0.136885
0.136842
0.136802
0.136762
0.136726
0.136688
0.136654
0.136618
0.136586
0.136552
0.136522
0.13649
0.136462
0.136431
0.136404
0.136374
0.136348
0.136319
0.136293
0.136265
0.136239
0.136212
0.136187
0.136159
0.136134
0.136107
0.136082
0.136055
0.13603
0.136003
0.135979
0.135951
0.135927
0.135899
0.135876
0.135847
0.135825
0.135796
0.135774
0.135745
0.135724
0.135695
0.135675
0.135646
0.135626
0.135597
0.135578
0.135549
0.135531
0.135502
0.135485
0.135457
0.135441
0.135412
0.135397
0.135369
0.135355
0.135327
0.135314
0.135287
0.135275
0.135248
0.135237
0.13521
0.1352
0.135174
0.135165
0.135139
0.135131
0.135105
0.135098
0.135073
0.135067
0.135042
0.135037
0.135013
0.135008
0.134984
0.13498
0.134957
0.134954
0.134931
0.134929
0.134906
0.134904
0.134882
0.134881
0.134859
0.134859
0.134836
0.134838
0.134815
0.134818
0.134795
0.1348
0.134777
0.134783
0.134759
0.134767
0.134744
0.134754
0.13473
0.134743
0.134718
0.134734
0.13471
0.134728
0.134704
0.134726
0.134703
0.134728
0.134705
0.134734
0.134713
0.134745
0.134726
0.13476
0.134745
0.134781
0.13477
0.134807
0.134802
0.134839
0.134839
0.134878
0.134882
0.134922
0.134931
0.134972
0.134986
0.135027
0.135045
0.135086
0.135107
0.135148
0.135173
0.135213
0.13524
0.135279
0.135307
0.135345
0.135374
0.135409
0.135437
0.135471
0.135494
0.135528
0.135545
0.135579
0.135576
0.971451
)
;

boundaryField
{
    inlet
    {
        type            calculated;
        value           uniform 0.194831;
    }
    outlet
    {
        type            calculated;
        value           uniform 0.0167746;
    }
    emptyWalls
    {
        type            empty;
    }
}


// ************************************************************************* //
