/*--------------------------------*- C++ -*----------------------------------*\
  =========                 |
  \\      /  F ield         | OpenFOAM: The Open Source CFD Toolbox
   \\    /   O peration     | Website:  https://openfoam.org
    \\  /    A nd           | Version:  9
     \\/     M anipulation  |
\*---------------------------------------------------------------------------*/
FoamFile
{
    format      ascii;
    class       volScalarField;
    location    "11550";
    object      kra;
}
// * * * * * * * * * * * * * * * * * * * * * * * * * * * * * * * * * * * * * //

dimensions      [0 0 0 0 0 0 0];

internalField   nonuniform List<scalar> 
1000
(
0.000237157
0.000239242
0.000241703
0.000244302
0.000246571
0.000249184
0.000251352
0.000253799
0.000255789
0.000257808
0.000259444
0.000260989
0.000262595
0.000265929
0.00027684
0.00032865
0.000633621
0.000852457
0.00089459
0.000909142
0.000916801
0.000921855
0.000925517
0.000928194
0.000930296
0.00093239
0.000935011
0.000938308
0.000941901
0.000945067
0.000947183
0.000948086
0.000948214
0.000948166
0.000947926
0.000946602
0.000943843
0.000940264
0.000936167
0.000931675
0.000927007
0.000922156
0.000917163
0.000911907
0.000906421
0.000900778
0.000895148
0.000889642
0.000884285
0.000879057
0.000873926
0.000868853
0.000863809
0.000858768
0.00085372
0.000848661
0.000843595
0.000838533
0.000833484
0.000828461
0.000823476
0.00081854
0.000813659
0.000808841
0.00080409
0.000799407
0.000794796
0.000790255
0.000785785
0.000781384
0.000777051
0.000772783
0.00076858
0.000764441
0.000760363
0.000756345
0.000752386
0.000748486
0.000744642
0.000740854
0.000737119
0.000733437
0.000729807
0.000726227
0.000722696
0.000719214
0.000715778
0.000712389
0.000709045
0.000705747
0.000702492
0.000699281
0.000696113
0.000692986
0.000689901
0.000686856
0.000683852
0.000680887
0.000677961
0.000675073
0.000672223
0.00066941
0.000666634
0.000663893
0.000661187
0.000658516
0.000655878
0.000653274
0.000650702
0.000648162
0.000645653
0.000643175
0.000640726
0.000638307
0.000635916
0.000633552
0.000631215
0.000628902
0.000626613
0.000624347
0.000622101
0.000619874
0.000617667
0.000615479
0.00061331
0.000611164
0.00060904
0.000606941
0.000604866
0.000602817
0.000600792
0.00059879
0.000596809
0.000594847
0.000592906
0.000590985
0.000589089
0.000587222
0.000585391
0.000583603
0.000581866
0.000580187
0.000578572
0.000577026
0.000575551
0.000574148
0.000572815
0.000571549
0.000570343
0.000569189
0.000568078
0.000566996
0.000565933
0.000564871
0.000563795
0.000562687
0.000561531
0.000560309
0.000559005
0.000557605
0.000556099
0.000554477
0.000552737
0.00055088
0.000548913
0.000546846
0.000544695
0.000542478
0.000540215
0.000537929
0.000535641
0.000533372
0.00053114
0.00052896
0.000526847
0.000524806
0.000522845
0.000520965
0.000519166
0.000517444
0.000515794
0.000514209
0.000512684
0.000511205
0.000509773
0.000508371
0.000507
0.000505645
0.000504311
0.000502979
0.000501662
0.000500338
0.000499026
0.000497701
0.000496387
0.000495057
0.00049374
0.000492405
0.000491085
0.000489749
0.00048843
0.000487097
0.000485781
0.000484457
0.000483148
0.000481836
0.000480537
0.000479241
0.000477956
0.000476677
0.000475407
0.000474147
0.000472895
0.000471653
0.00047042
0.000469196
0.000467981
0.000466776
0.000465579
0.000464391
0.000463211
0.00046204
0.000460877
0.000459722
0.000458574
0.000457435
0.000456302
0.000455178
0.00045406
0.000452949
0.000451846
0.00045075
0.00044966
0.000448578
0.000447502
0.000446434
0.000445372
0.000444317
0.000443269
0.000442229
0.000441194
0.000440167
0.000439147
0.000438133
0.000437127
0.000436127
0.000435134
0.000434147
0.000433167
0.000432194
0.000431227
0.000430267
0.000429314
0.000428366
0.000427425
0.000426491
0.000425562
0.000424639
0.000423723
0.000422812
0.000421907
0.000421007
0.000420112
0.000419223
0.000418339
0.000417459
0.000416583
0.000415713
0.000414846
0.000413983
0.000413125
0.00041227
0.000411419
0.000410573
0.00040973
0.000408892
0.000408058
0.000407228
0.000406402
0.00040558
0.000404764
0.000403952
0.000403145
0.000402343
0.000401548
0.000400758
0.000399977
0.000399203
0.000398438
0.000397683
0.00039694
0.00039621
0.000395493
0.000394792
0.000394108
0.000393441
0.000392792
0.000392163
0.000391554
0.000390964
0.000390394
0.000389844
0.000389312
0.000388797
0.000388297
0.00038781
0.000387334
0.000386865
0.000386401
0.000385938
0.000385471
0.000384997
0.000384512
0.000384011
0.000383491
0.000382946
0.000382374
0.000381771
0.000381134
0.000380461
0.000379749
0.000378998
0.000378209
0.000377381
0.000376516
0.000375617
0.000374686
0.000373728
0.000372748
0.000371749
0.000370737
0.000369717
0.000368694
0.000367673
0.000366658
0.000365654
0.000364664
0.000363692
0.000362739
0.000361807
0.000360897
0.000360011
0.000359147
0.000358307
0.000357488
0.000356689
0.00035591
0.000355149
0.000354404
0.000353673
0.000352954
0.000352246
0.000351547
0.000350856
0.00035017
0.000349489
0.000348812
0.000348136
0.000347463
0.00034679
0.000346117
0.000345444
0.000344771
0.000344097
0.000343421
0.000342745
0.000342068
0.000341389
0.00034071
0.000340031
0.000339351
0.000338671
0.000337991
0.000337311
0.000336631
0.000335953
0.000335275
0.000334599
0.000333923
0.00033325
0.000332577
0.000331907
0.000331238
0.000330571
0.000329906
0.000329242
0.000328583
0.000327923
0.000327268
0.000326611
0.000325961
0.000325307
0.000324663
0.000324013
0.000323372
0.000322726
0.00032209
0.000321449
0.000320814
0.000320179
0.000319546
0.000318916
0.000318286
0.00031766
0.000317034
0.00031641
0.000315788
0.000315167
0.000314548
0.000313931
0.000313314
0.000312701
0.000312087
0.000311476
0.000310867
0.000310259
0.000309653
0.000309048
0.000308445
0.000307844
0.000307245
0.000306648
0.000306053
0.00030546
0.000304872
0.000304283
0.000303703
0.000303118
0.000302551
0.000301971
0.00030142
0.000300846
0.000300316
0.000299752
0.000299247
0.000298703
0.000298224
0.000297713
0.00029726
0.000296798
0.000296373
0.000295973
0.000295582
0.00029525
0.000294905
0.000294636
0.000294353
0.000294132
0.000293927
0.000293739
0.000293604
0.000293445
0.000293341
0.0002932
0.000293055
0.000292859
0.000292521
0.000292006
0.000291065
0.000289493
0.000286852
0.000282648
0.000276587
0.000268853
0.00026076
0.000253986
0.000249499
0.000247071
0.000245867
0.000245344
0.000245105
0.000245011
0.000245012
0.000245024
0.000245066
0.000245122
0.000245187
0.000245259
0.000245339
0.000245423
0.000245514
0.00024561
0.000245712
0.000245819
0.000245931
0.000246049
0.00024617
0.000246297
0.000246427
0.000246561
0.000246697
0.000246835
0.000246975
0.000247116
0.000247256
0.000247396
0.000247533
0.000247667
0.000247797
0.000247921
0.000248039
0.000248151
0.000248253
0.000248346
0.000248429
0.0002485
0.000248558
0.000248603
0.000248633
0.000248648
0.000248651
0.000248651
0.000248648
0.00024862
0.000248567
0.000248502
0.000248426
0.000248339
0.000248242
0.000248136
0.000248022
0.000247901
0.000247774
0.000247643
0.000247509
0.000247373
0.000247237
0.000247101
0.000246967
0.000246836
0.000246708
0.000246585
0.000246468
0.000246356
0.00024625
0.000246151
0.000246058
0.000245972
0.000245893
0.000245821
0.000245755
0.000245696
0.000245642
0.000245594
0.00024555
0.000245512
0.000245478
0.000245448
0.00024542
0.000245396
0.000245375
0.000245355
0.000245337
0.00024532
0.000245304
0.000245288
0.000245273
0.000245258
0.000245242
0.000245227
0.00024521
0.000245193
0.000245176
0.000245157
0.000245138
0.000245117
0.000245096
0.000245074
0.000245051
0.000245027
0.000245003
0.000244977
0.000244951
0.000244925
0.000244898
0.000244871
0.000244843
0.000244815
0.000244787
0.000244759
0.000244731
0.000244703
0.000244676
0.000244648
0.000244621
0.000244595
0.000244569
0.000244543
0.000244518
0.000244494
0.00024447
0.000244447
0.000244425
0.000244403
0.000244382
0.000244362
0.000244343
0.000244324
0.000244307
0.00024429
0.000244274
0.000244258
0.000244244
0.00024423
0.000244217
0.000244204
0.000244192
0.000244181
0.000244171
0.000244161
0.000244152
0.000244144
0.000244136
0.000244128
0.000244122
0.000244116
0.00024411
0.000244105
0.000244101
0.000244097
0.000244094
0.000244091
0.000244089
0.000244087
0.000244086
0.000244086
0.000244086
0.000244086
0.000244086
0.000244087
0.00024409
0.000244092
0.000244096
0.0002441
0.000244104
0.000244109
0.000244115
0.000244121
0.000244128
0.000244135
0.000244143
0.000244151
0.00024416
0.000244169
0.00024418
0.00024419
0.000244201
0.000244213
0.000244225
0.000244237
0.000244251
0.000244264
0.000244279
0.000244293
0.000244309
0.000244325
0.000244342
0.000244359
0.000244377
0.000244395
0.000244415
0.000244435
0.000244456
0.000244478
0.000244502
0.000244526
0.000244552
0.00024458
0.000244609
0.000244639
0.000244672
0.000244706
0.000244743
0.000244781
0.000244823
0.000244867
0.000244914
0.000244964
0.000245017
0.000245074
0.000245134
0.000245198
0.000245265
0.000245336
0.000245412
0.000245491
0.000245575
0.000245662
0.000245753
0.000245848
0.000245948
0.00024605
0.000246156
0.000246265
0.000246377
0.000246491
0.000246607
0.000246725
0.000246844
0.000246963
0.000247083
0.000247202
0.000247319
0.000247435
0.000247548
0.000247658
0.000247763
0.000247864
0.000247959
0.000248047
0.000248129
0.000248203
0.000248269
0.000248326
0.000248374
0.000248411
0.000248439
0.000248455
0.000248461
0.000248462
0.00024846
0.000248452
0.000248418
0.000248372
0.000248316
0.00024825
0.000248176
0.000248094
0.000248004
0.000247908
0.000247806
0.0002477
0.000247589
0.000247476
0.000247361
0.000247245
0.000247129
0.000247013
0.000246899
0.000246787
0.000246677
0.00024657
0.000246468
0.000246369
0.000246275
0.000246185
0.0002461
0.00024602
0.000245944
0.000245874
0.000245808
0.000245746
0.000245689
0.000245636
0.000245587
0.000245542
0.0002455
0.000245461
0.000245424
0.00024539
0.000245358
0.000245328
0.0002453
0.000245272
0.000245246
0.000245221
0.000245196
0.000245172
0.000245148
0.000245124
0.0002451
0.000245077
0.000245052
0.000245028
0.000245003
0.000244978
0.000244953
0.000244927
0.000244901
0.000244875
0.000244848
0.000244821
0.000244794
0.000244766
0.000244739
0.000244711
0.000244683
0.000244656
0.000244628
0.000244601
0.000244573
0.000244546
0.00024452
0.000244493
0.000244467
0.000244442
0.000244417
0.000244393
0.000244369
0.000244346
0.000244324
0.000244302
0.000244281
0.000244261
0.000244242
0.000244223
0.000244206
0.000244189
0.000244173
0.000244157
0.000244143
0.000244129
0.000244117
0.000244105
0.000244094
0.000244083
0.000244074
0.000244065
0.000244057
0.00024405
0.000244044
0.000244038
0.000244034
0.000244029
0.000244026
0.000244023
0.000244021
0.00024402
0.000244019
0.000244019
0.000244019
0.000244019
0.000244021
0.000244023
0.000244026
0.00024403
0.000244034
0.000244039
0.000244044
0.00024405
0.000244056
0.000244063
0.00024407
0.000244078
0.000244087
0.000244096
0.000244105
0.000244115
0.000244125
0.000244136
0.000244147
0.000244159
0.000244171
0.000244184
0.000244197
0.000244211
0.000244225
0.00024424
0.000244256
0.000244272
0.000244288
0.000244305
0.000244323
0.000244341
0.00024436
0.00024438
0.000244401
0.000244423
0.000244445
0.000244469
0.000244493
0.000244519
0.000244546
0.000244574
0.000244604
0.000244635
0.000244668
0.000244703
0.00024474
0.000244779
0.000244819
0.000244862
0.000244908
0.000244956
0.000245006
0.000245059
0.000245115
0.000245174
0.000245236
0.0002453
0.000245368
0.000245439
0.000245513
0.000245589
0.000245669
0.000245752
0.000245837
0.000245925
0.000246016
0.000246109
0.000246204
0.000246301
0.000246399
0.000246499
0.000246599
0.0002467
0.000246801
0.000246902
0.000247003
0.000247102
0.000247199
0.000247294
0.000247387
0.000247476
0.000247562
0.000247643
0.000247719
0.000247791
0.000247856
0.000247915
0.000247968
0.000248013
0.000248051
0.000248082
0.000248104
0.000248117
0.000248123
0.000248123
0.000248123
0.000248118
0.000248093
0.000248057
0.000248013
0.000247962
0.000247904
0.000247839
0.000247768
0.000247691
0.000247609
0.000247522
0.000247432
0.000247339
0.000247244
0.000247147
0.000247049
0.00024695
0.000246852
0.000246754
0.000246658
0.000246564
0.000246471
0.000246381
0.000246294
0.000246211
0.00024613
0.000246054
0.00024598
0.000245911
0.000245845
0.000245783
0.000245724
0.00024567
0.000245617
0.000245571
0.000245523
0.000245484
0.00024544
0.000245407
0.000245368
0.00024534
0.000245303
0.00024528
0.000245246
0.000245226
0.000245193
0.000245177
0.000245144
0.00024513
0.000245098
0.000245085
0.000245053
0.000245041
0.000245008
0.000244998
0.000244964
0.000244954
0.000244919
0.00024491
0.000244874
0.000244864
0.000244828
0.000244819
0.000244782
0.000244772
0.000244736
0.000244725
0.000244689
0.000244677
0.000244642
0.00024463
)
;

boundaryField
{
    inlet
    {
        type            calculated;
        value           uniform 0.000236304;
    }
    outlet
    {
        type            calculated;
        value           uniform 0.000244613;
    }
    emptyWalls
    {
        type            empty;
    }
}


// ************************************************************************* //
