/*--------------------------------*- C++ -*----------------------------------*\
  =========                 |
  \\      /  F ield         | OpenFOAM: The Open Source CFD Toolbox
   \\    /   O peration     | Website:  https://openfoam.org
    \\  /    A nd           | Version:  9
     \\/     M anipulation  |
\*---------------------------------------------------------------------------*/
FoamFile
{
    format      ascii;
    class       surfaceScalarField;
    location    "11550";
    object      phib;
}
// * * * * * * * * * * * * * * * * * * * * * * * * * * * * * * * * * * * * * //

dimensions      [0 2 0 0 0 0 0];

internalField   nonuniform List<scalar> 
999
(
1.13619e-09
1.13626e-09
1.13623e-09
1.13632e-09
1.13634e-09
1.13641e-09
1.1365e-09
1.13651e-09
1.13663e-09
1.13664e-09
1.13673e-09
1.13678e-09
1.13692e-09
1.13732e-09
1.13875e-09
1.14767e-09
1.1721e-09
1.17641e-09
1.17767e-09
1.17827e-09
1.17859e-09
1.17877e-09
1.17889e-09
1.17896e-09
1.17894e-09
1.17876e-09
1.17838e-09
1.17783e-09
1.17724e-09
1.17675e-09
1.17644e-09
1.17629e-09
1.17618e-09
1.17609e-09
1.17604e-09
1.17625e-09
1.1766e-09
1.17702e-09
1.17747e-09
1.17789e-09
1.17823e-09
1.17845e-09
1.1785e-09
1.17834e-09
1.17798e-09
1.17746e-09
1.17683e-09
1.1761e-09
1.1753e-09
1.17445e-09
1.17358e-09
1.1727e-09
1.17181e-09
1.17093e-09
1.17006e-09
1.1692e-09
1.16834e-09
1.1675e-09
1.16666e-09
1.16583e-09
1.165e-09
1.16417e-09
1.16334e-09
1.16251e-09
1.16168e-09
1.16084e-09
1.16e-09
1.15916e-09
1.15831e-09
1.15746e-09
1.1566e-09
1.15574e-09
1.15487e-09
1.15401e-09
1.15314e-09
1.15226e-09
1.15138e-09
1.1505e-09
1.14961e-09
1.14872e-09
1.14783e-09
1.14694e-09
1.14604e-09
1.14514e-09
1.14423e-09
1.14332e-09
1.14241e-09
1.1415e-09
1.14058e-09
1.13966e-09
1.13873e-09
1.13781e-09
1.13688e-09
1.13594e-09
1.13501e-09
1.13407e-09
1.13313e-09
1.13218e-09
1.13123e-09
1.13028e-09
1.12932e-09
1.12836e-09
1.1274e-09
1.12644e-09
1.12547e-09
1.12449e-09
1.12352e-09
1.12254e-09
1.12156e-09
1.12058e-09
1.11959e-09
1.1186e-09
1.11761e-09
1.11661e-09
1.11561e-09
1.11461e-09
1.11361e-09
1.1126e-09
1.1116e-09
1.11059e-09
1.10958e-09
1.10857e-09
1.10756e-09
1.10655e-09
1.10553e-09
1.10451e-09
1.10349e-09
1.10247e-09
1.10145e-09
1.10042e-09
1.09939e-09
1.09835e-09
1.09731e-09
1.09627e-09
1.09523e-09
1.09419e-09
1.09314e-09
1.09208e-09
1.09102e-09
1.08995e-09
1.08886e-09
1.08776e-09
1.08664e-09
1.08551e-09
1.08435e-09
1.08318e-09
1.08199e-09
1.08079e-09
1.07957e-09
1.07834e-09
1.0771e-09
1.07585e-09
1.0746e-09
1.07336e-09
1.07213e-09
1.0709e-09
1.0697e-09
1.06852e-09
1.06737e-09
1.06625e-09
1.06516e-09
1.06411e-09
1.0631e-09
1.06213e-09
1.06118e-09
1.06027e-09
1.05938e-09
1.05851e-09
1.05766e-09
1.05681e-09
1.05596e-09
1.0551e-09
1.05424e-09
1.05336e-09
1.05246e-09
1.05153e-09
1.05059e-09
1.04962e-09
1.04863e-09
1.04762e-09
1.04659e-09
1.04554e-09
1.04448e-09
1.0434e-09
1.04232e-09
1.04122e-09
1.04012e-09
1.03901e-09
1.0379e-09
1.03679e-09
1.03568e-09
1.03457e-09
1.03346e-09
1.03235e-09
1.03125e-09
1.03014e-09
1.02904e-09
1.02793e-09
1.02683e-09
1.02573e-09
1.02463e-09
1.02353e-09
1.02243e-09
1.02132e-09
1.02022e-09
1.01912e-09
1.01801e-09
1.0169e-09
1.01579e-09
1.01468e-09
1.01356e-09
1.01245e-09
1.01133e-09
1.0102e-09
1.00908e-09
1.00795e-09
1.00682e-09
1.00569e-09
1.00455e-09
1.00341e-09
1.00227e-09
1.00113e-09
9.99982e-10
9.98834e-10
9.97682e-10
9.96529e-10
9.95372e-10
9.94214e-10
9.93053e-10
9.91889e-10
9.90723e-10
9.89554e-10
9.88383e-10
9.87209e-10
9.86033e-10
9.84855e-10
9.83673e-10
9.82489e-10
9.81303e-10
9.80113e-10
9.78921e-10
9.77726e-10
9.76529e-10
9.75329e-10
9.74125e-10
9.7292e-10
9.71711e-10
9.70499e-10
9.69285e-10
9.68067e-10
9.66847e-10
9.65624e-10
9.64398e-10
9.63169e-10
9.61937e-10
9.60702e-10
9.59464e-10
9.58224e-10
9.5698e-10
9.55734e-10
9.54484e-10
9.53232e-10
9.51977e-10
9.5072e-10
9.49459e-10
9.48196e-10
9.46931e-10
9.45662e-10
9.44391e-10
9.43118e-10
9.41842e-10
9.40563e-10
9.39282e-10
9.37998e-10
9.36711e-10
9.35421e-10
9.34129e-10
9.32833e-10
9.31535e-10
9.30233e-10
9.28929e-10
9.27621e-10
9.2631e-10
9.24995e-10
9.23677e-10
9.22354e-10
9.21027e-10
9.19695e-10
9.18359e-10
9.17016e-10
9.15668e-10
9.14313e-10
9.12952e-10
9.11582e-10
9.10205e-10
9.0882e-10
9.07426e-10
9.06023e-10
9.04611e-10
9.0319e-10
9.0176e-10
9.00321e-10
8.98874e-10
8.97419e-10
8.95956e-10
8.94488e-10
8.93013e-10
8.91534e-10
8.90052e-10
8.88568e-10
8.87083e-10
8.85598e-10
8.84116e-10
8.82637e-10
8.81163e-10
8.79696e-10
8.78236e-10
8.76784e-10
8.75343e-10
8.73911e-10
8.7249e-10
8.71079e-10
8.69679e-10
8.6829e-10
8.66909e-10
8.65538e-10
8.64173e-10
8.62814e-10
8.61458e-10
8.60105e-10
8.58753e-10
8.57399e-10
8.56042e-10
8.54679e-10
8.53311e-10
8.51934e-10
8.50548e-10
8.49152e-10
8.47746e-10
8.46327e-10
8.44897e-10
8.43455e-10
8.42001e-10
8.40534e-10
8.39057e-10
8.37568e-10
8.36068e-10
8.34558e-10
8.33039e-10
8.3151e-10
8.29973e-10
8.28427e-10
8.26875e-10
8.25315e-10
8.23748e-10
8.22175e-10
8.20597e-10
8.19012e-10
8.17422e-10
8.15827e-10
8.14227e-10
8.12621e-10
8.11011e-10
8.09395e-10
8.07774e-10
8.06148e-10
8.04517e-10
8.0288e-10
8.01237e-10
7.99589e-10
7.97934e-10
7.96274e-10
7.94607e-10
7.92934e-10
7.91254e-10
7.89567e-10
7.87873e-10
7.86172e-10
7.84464e-10
7.82748e-10
7.81025e-10
7.79294e-10
7.77554e-10
7.75807e-10
7.74051e-10
7.72287e-10
7.70515e-10
7.68734e-10
7.66944e-10
7.65146e-10
7.63338e-10
7.61521e-10
7.59694e-10
7.57859e-10
7.56013e-10
7.54158e-10
7.52293e-10
7.50419e-10
7.48534e-10
7.46639e-10
7.44733e-10
7.42817e-10
7.4089e-10
7.38952e-10
7.37004e-10
7.35044e-10
7.33073e-10
7.31091e-10
7.29097e-10
7.27092e-10
7.25075e-10
7.23046e-10
7.21006e-10
7.18954e-10
7.1689e-10
7.14814e-10
7.12726e-10
7.10626e-10
7.08514e-10
7.06392e-10
7.04258e-10
7.02114e-10
6.9996e-10
6.97796e-10
6.95624e-10
6.93445e-10
6.91261e-10
6.89073e-10
6.86884e-10
6.84696e-10
6.82515e-10
6.80341e-10
6.78183e-10
6.76044e-10
6.73934e-10
6.71857e-10
6.69823e-10
6.6784e-10
6.65918e-10
6.64069e-10
6.623e-10
6.60625e-10
6.59047e-10
6.57578e-10
6.56222e-10
6.54982e-10
6.53864e-10
6.5286e-10
6.51972e-10
6.51182e-10
6.50478e-10
6.49832e-10
6.49201e-10
6.48519e-10
6.47662e-10
6.46432e-10
6.44471e-10
6.41173e-10
6.35507e-10
6.25781e-10
6.09458e-10
5.83241e-10
5.44169e-10
4.92116e-10
4.32495e-10
3.75379e-10
3.29722e-10
2.98505e-10
2.79485e-10
2.68729e-10
2.62909e-10
2.59833e-10
2.58227e-10
2.57392e-10
2.56957e-10
2.56728e-10
2.56605e-10
2.56536e-10
2.56495e-10
2.56467e-10
2.56446e-10
2.56427e-10
2.56411e-10
2.56394e-10
2.56377e-10
2.5636e-10
2.56342e-10
2.56324e-10
2.56305e-10
2.56286e-10
2.56267e-10
2.56247e-10
2.56227e-10
2.56207e-10
2.56187e-10
2.56168e-10
2.56149e-10
2.5613e-10
2.56112e-10
2.56095e-10
2.56078e-10
2.56063e-10
2.5605e-10
2.56037e-10
2.56026e-10
2.56017e-10
2.5601e-10
2.56005e-10
2.56002e-10
2.56e-10
2.56e-10
2.56e-10
2.56001e-10
2.56008e-10
2.56016e-10
2.56026e-10
2.56037e-10
2.5605e-10
2.56064e-10
2.5608e-10
2.56096e-10
2.56113e-10
2.56131e-10
2.56149e-10
2.56168e-10
2.56186e-10
2.56205e-10
2.56224e-10
2.56242e-10
2.56259e-10
2.56276e-10
2.56293e-10
2.56308e-10
2.56323e-10
2.56337e-10
2.56349e-10
2.56361e-10
2.56372e-10
2.56382e-10
2.56391e-10
2.56399e-10
2.56406e-10
2.56412e-10
2.56418e-10
2.56423e-10
2.56427e-10
2.56431e-10
2.56434e-10
2.56437e-10
2.56439e-10
2.56441e-10
2.56443e-10
2.56445e-10
2.56446e-10
2.56448e-10
2.56449e-10
2.56451e-10
2.56452e-10
2.56454e-10
2.56455e-10
2.56457e-10
2.56459e-10
2.56461e-10
2.56463e-10
2.56465e-10
2.56468e-10
2.5647e-10
2.56473e-10
2.56476e-10
2.56479e-10
2.56482e-10
2.56485e-10
2.56489e-10
2.56492e-10
2.56496e-10
2.56499e-10
2.56503e-10
2.56507e-10
2.56511e-10
2.56515e-10
2.56518e-10
2.56522e-10
2.56526e-10
2.5653e-10
2.56533e-10
2.56537e-10
2.56541e-10
2.56544e-10
2.56548e-10
2.56551e-10
2.56554e-10
2.56558e-10
2.56561e-10
2.56564e-10
2.56567e-10
2.5657e-10
2.56573e-10
2.56575e-10
2.56578e-10
2.5658e-10
2.56583e-10
2.56585e-10
2.56587e-10
2.56589e-10
2.56591e-10
2.56593e-10
2.56595e-10
2.56597e-10
2.56598e-10
2.566e-10
2.56601e-10
2.56603e-10
2.56604e-10
2.56605e-10
2.56607e-10
2.56608e-10
2.56609e-10
2.56609e-10
2.5661e-10
2.56611e-10
2.56612e-10
2.56612e-10
2.56613e-10
2.56613e-10
2.56613e-10
2.56614e-10
2.56614e-10
2.56614e-10
2.56614e-10
2.56614e-10
2.56614e-10
2.56613e-10
2.56613e-10
2.56612e-10
2.56612e-10
2.56611e-10
2.56611e-10
2.5661e-10
2.56609e-10
2.56608e-10
2.56607e-10
2.56605e-10
2.56604e-10
2.56603e-10
2.56601e-10
2.566e-10
2.56598e-10
2.56597e-10
2.56595e-10
2.56593e-10
2.56591e-10
2.56589e-10
2.56587e-10
2.56585e-10
2.56582e-10
2.5658e-10
2.56578e-10
2.56575e-10
2.56573e-10
2.5657e-10
2.56567e-10
2.56564e-10
2.56561e-10
2.56558e-10
2.56554e-10
2.56551e-10
2.56547e-10
2.56543e-10
2.56539e-10
2.56534e-10
2.56529e-10
2.56524e-10
2.56519e-10
2.56513e-10
2.56507e-10
2.565e-10
2.56493e-10
2.56486e-10
2.56478e-10
2.5647e-10
2.56461e-10
2.56451e-10
2.56441e-10
2.5643e-10
2.56419e-10
2.56407e-10
2.56395e-10
2.56382e-10
2.56369e-10
2.56355e-10
2.5634e-10
2.56326e-10
2.5631e-10
2.56295e-10
2.56279e-10
2.56263e-10
2.56246e-10
2.5623e-10
2.56213e-10
2.56197e-10
2.5618e-10
2.56164e-10
2.56148e-10
2.56132e-10
2.56117e-10
2.56103e-10
2.56089e-10
2.56075e-10
2.56063e-10
2.56051e-10
2.56041e-10
2.56031e-10
2.56023e-10
2.56016e-10
2.5601e-10
2.56006e-10
2.56003e-10
2.56001e-10
2.56001e-10
2.56001e-10
2.56002e-10
2.56005e-10
2.5601e-10
2.56017e-10
2.56026e-10
2.56036e-10
2.56047e-10
2.56059e-10
2.56072e-10
2.56086e-10
2.561e-10
2.56116e-10
2.56131e-10
2.56147e-10
2.56163e-10
2.5618e-10
2.56196e-10
2.56212e-10
2.56228e-10
2.56244e-10
2.56259e-10
2.56273e-10
2.56288e-10
2.56301e-10
2.56314e-10
2.56326e-10
2.56338e-10
2.56349e-10
2.56359e-10
2.56369e-10
2.56378e-10
2.56386e-10
2.56394e-10
2.56401e-10
2.56407e-10
2.56414e-10
2.56419e-10
2.56425e-10
2.56429e-10
2.56434e-10
2.56438e-10
2.56442e-10
2.56446e-10
2.5645e-10
2.56454e-10
2.56457e-10
2.5646e-10
2.56464e-10
2.56467e-10
2.5647e-10
2.56474e-10
2.56477e-10
2.5648e-10
2.56484e-10
2.56487e-10
2.56491e-10
2.56494e-10
2.56498e-10
2.56501e-10
2.56505e-10
2.56509e-10
2.56513e-10
2.56516e-10
2.5652e-10
2.56524e-10
2.56528e-10
2.56532e-10
2.56536e-10
2.5654e-10
2.56544e-10
2.56547e-10
2.56551e-10
2.56555e-10
2.56559e-10
2.56562e-10
2.56566e-10
2.56569e-10
2.56573e-10
2.56576e-10
2.56579e-10
2.56582e-10
2.56585e-10
2.56588e-10
2.56591e-10
2.56594e-10
2.56596e-10
2.56599e-10
2.56601e-10
2.56603e-10
2.56605e-10
2.56607e-10
2.56609e-10
2.56611e-10
2.56613e-10
2.56614e-10
2.56616e-10
2.56617e-10
2.56618e-10
2.56619e-10
2.5662e-10
2.56621e-10
2.56622e-10
2.56623e-10
2.56623e-10
2.56624e-10
2.56624e-10
2.56624e-10
2.56624e-10
2.56624e-10
2.56624e-10
2.56624e-10
2.56624e-10
2.56624e-10
2.56624e-10
2.56623e-10
2.56623e-10
2.56622e-10
2.56621e-10
2.56621e-10
2.5662e-10
2.56619e-10
2.56618e-10
2.56617e-10
2.56616e-10
2.56614e-10
2.56613e-10
2.56612e-10
2.5661e-10
2.56609e-10
2.56607e-10
2.56606e-10
2.56604e-10
2.56602e-10
2.566e-10
2.56598e-10
2.56596e-10
2.56594e-10
2.56592e-10
2.5659e-10
2.56588e-10
2.56585e-10
2.56583e-10
2.5658e-10
2.56578e-10
2.56575e-10
2.56572e-10
2.56569e-10
2.56566e-10
2.56562e-10
2.56559e-10
2.56555e-10
2.56552e-10
2.56548e-10
2.56544e-10
2.56539e-10
2.56535e-10
2.5653e-10
2.56525e-10
2.56519e-10
2.56514e-10
2.56508e-10
2.56501e-10
2.56495e-10
2.56488e-10
2.5648e-10
2.56472e-10
2.56464e-10
2.56456e-10
2.56447e-10
2.56437e-10
2.56427e-10
2.56417e-10
2.56406e-10
2.56395e-10
2.56384e-10
2.56372e-10
2.5636e-10
2.56347e-10
2.56334e-10
2.56321e-10
2.56308e-10
2.56294e-10
2.5628e-10
2.56266e-10
2.56252e-10
2.56238e-10
2.56223e-10
2.56209e-10
2.56195e-10
2.56182e-10
2.56168e-10
2.56155e-10
2.56142e-10
2.5613e-10
2.56118e-10
2.56107e-10
2.56097e-10
2.56087e-10
2.56079e-10
2.56071e-10
2.56064e-10
2.56058e-10
2.56053e-10
2.5605e-10
2.56047e-10
2.56046e-10
2.56045e-10
2.56045e-10
2.56045e-10
2.56047e-10
2.56052e-10
2.56057e-10
2.56064e-10
2.56072e-10
2.5608e-10
2.5609e-10
2.561e-10
2.56112e-10
2.56123e-10
2.56136e-10
2.56149e-10
2.56162e-10
2.56176e-10
2.56189e-10
2.56203e-10
2.56217e-10
2.56231e-10
2.56245e-10
2.56258e-10
2.56271e-10
2.56284e-10
2.56297e-10
2.56309e-10
2.5632e-10
2.56331e-10
2.56342e-10
2.56352e-10
2.56362e-10
2.56371e-10
2.56379e-10
2.56387e-10
2.56395e-10
2.56402e-10
2.56408e-10
2.56415e-10
2.5642e-10
2.56426e-10
2.56431e-10
2.56436e-10
2.5644e-10
2.56445e-10
2.56449e-10
2.56452e-10
2.56456e-10
2.5646e-10
2.56463e-10
2.56467e-10
2.5647e-10
2.56473e-10
2.56476e-10
2.56479e-10
2.56482e-10
2.56485e-10
2.56489e-10
2.56492e-10
2.56495e-10
2.56498e-10
2.56501e-10
2.56505e-10
2.56508e-10
2.56511e-10
2.56514e-10
2.56518e-10
2.56521e-10
2.56524e-10
2.56528e-10
2.56531e-10
2.56534e-10
2.56538e-10
)
;

boundaryField
{
    inlet
    {
        type            calculated;
        value           uniform -1.13622e-09;
    }
    outlet
    {
        type            calculated;
        value           uniform 2.56541e-10;
    }
    emptyWalls
    {
        type            empty;
        value           nonuniform List<scalar> 0();
    }
}


// ************************************************************************* //
