/*--------------------------------*- C++ -*----------------------------------*\
  =========                 |
  \\      /  F ield         | OpenFOAM: The Open Source CFD Toolbox
   \\    /   O peration     | Website:  https://openfoam.org
    \\  /    A nd           | Version:  9
     \\/     M anipulation  |
\*---------------------------------------------------------------------------*/
FoamFile
{
    format      ascii;
    class       volScalarField;
    location    "5400";
    object      krb;
}
// * * * * * * * * * * * * * * * * * * * * * * * * * * * * * * * * * * * * * //

dimensions      [0 0 0 0 0 0 0];

internalField   nonuniform List<scalar> 
1000
(
0.0985897
0.100872
0.103102
0.10499
0.107535
0.112503
0.13312
0.290154
0.46834
0.505273
0.517864
0.52402
0.527418
0.529327
0.530353
0.530835
0.530848
0.530303
0.528669
0.525384
0.520075
0.513542
0.506599
0.499539
0.492514
0.485603
0.478846
0.472262
0.465857
0.459633
0.453587
0.447713
0.442004
0.436456
0.431061
0.425815
0.420712
0.415743
0.410902
0.406183
0.401577
0.397081
0.392688
0.388396
0.3842
0.380098
0.376087
0.372165
0.368329
0.364578
0.360909
0.357319
0.353808
0.350372
0.347011
0.343722
0.340502
0.337349
0.334258
0.331228
0.328254
0.325333
0.322461
0.319635
0.316852
0.314111
0.311409
0.308746
0.306119
0.303528
0.300974
0.298454
0.295971
0.293521
0.291106
0.288725
0.286378
0.284063
0.28178
0.279529
0.277309
0.275118
0.272956
0.270823
0.268717
0.266638
0.264585
0.262556
0.260553
0.258573
0.256616
0.254682
0.25277
0.250879
0.24901
0.247161
0.245331
0.243522
0.241731
0.239959
0.238205
0.236468
0.234749
0.233047
0.231361
0.229692
0.228038
0.2264
0.224776
0.223168
0.221573
0.219993
0.218427
0.216874
0.215334
0.213807
0.212292
0.21079
0.2093
0.207822
0.206355
0.204899
0.203455
0.202021
0.200598
0.199186
0.197783
0.196391
0.195008
0.193635
0.192271
0.190916
0.18957
0.188232
0.186904
0.185583
0.184271
0.182967
0.18167
0.180381
0.1791
0.177826
0.176558
0.175298
0.174044
0.172797
0.171556
0.170321
0.169092
0.167869
0.166651
0.165439
0.164232
0.163031
0.161834
0.160642
0.159455
0.158273
0.157094
0.15592
0.15475
0.153583
0.152421
0.151261
0.150105
0.148953
0.147803
0.146656
0.145511
0.144369
0.14323
0.142092
0.140957
0.139823
0.138691
0.137561
0.136432
0.135304
0.134177
0.13305
0.131924
0.130798
0.129673
0.128547
0.127422
0.126296
0.12517
0.124043
0.122916
0.121788
0.120659
0.119531
0.118403
0.117275
0.116149
0.115027
0.113909
0.112799
0.111699
0.110614
0.109548
0.108509
0.107501
0.106532
0.105606
0.104727
0.103891
0.103085
0.102276
0.101402
0.100347
0.0989096
0.0967666
0.0934397
0.0883424
0.0810193
0.0716301
0.061341
0.0519419
0.044756
0.0400149
0.0371979
0.035631
0.0347924
0.0343529
0.0341253
0.0340082
0.0339483
0.0339179
0.0339025
0.033895
0.0338915
0.0338901
0.0338898
0.0338898
0.0338903
0.0338909
0.0338916
0.0338922
0.0338929
0.0338936
0.0338942
0.0338948
0.0338953
0.0338957
0.0338961
0.0338965
0.0338968
0.033897
0.0338971
0.0338972
0.0338973
0.0338974
0.0338974
0.0338974
0.0338974
0.0338973
0.0338972
0.0338971
0.033897
0.0338969
0.0338968
0.0338967
0.0338966
0.0338965
0.0338965
0.0338964
0.0338963
0.0338963
0.0338962
0.0338962
0.0338962
0.0338962
0.0338962
0.0338962
0.0338962
0.0338963
0.0338963
0.0338963
0.0338964
0.0338964
0.0338965
0.0338966
0.0338966
0.0338967
0.0338968
0.0338969
0.0338969
0.033897
0.0338971
0.0338971
0.0338972
0.0338973
0.0338973
0.0338974
0.0338974
0.0338975
0.0338975
0.0338975
0.0338976
0.0338976
0.0338976
0.0338976
0.0338976
0.0338976
0.0338976
0.0338976
0.0338976
0.0338976
0.0338976
0.0338976
0.0338976
0.0338976
0.0338975
0.0338975
0.0338975
0.0338974
0.0338974
0.0338973
0.0338973
0.0338972
0.0338972
0.0338971
0.0338971
0.033897
0.033897
0.0338969
0.0338969
0.0338968
0.0338967
0.0338967
0.0338966
0.0338966
0.0338965
0.0338965
0.0338964
0.0338963
0.0338963
0.0338962
0.0338961
0.0338961
0.033896
0.033896
0.033896
0.0338959
0.0338959
0.0338958
0.0338958
0.0338957
0.0338957
0.0338957
0.0338956
0.0338956
0.0338956
0.0338956
0.0338956
0.0338955
0.0338955
0.0338955
0.0338955
0.0338954
0.0338954
0.0338954
0.0338954
0.0338954
0.0338954
0.0338954
0.0338954
0.0338953
0.0338953
0.0338953
0.0338953
0.0338952
0.0338952
0.0338952
0.0338951
0.0338951
0.0338951
0.033895
0.0338949
0.0338949
0.0338948
0.0338948
0.0338947
0.0338946
0.0338946
0.0338945
0.0338944
0.0338943
0.0338942
0.0338941
0.033894
0.0338939
0.0338938
0.0338937
0.0338935
0.0338934
0.0338933
0.0338931
0.0338929
0.0338928
0.0338926
0.0338924
0.0338922
0.033892
0.0338918
0.0338915
0.0338913
0.033891
0.0338907
0.0338904
0.03389
0.0338897
0.0338893
0.0338889
0.0338885
0.0338881
0.0338877
0.0338873
0.0338868
0.0338864
0.0338859
0.0338854
0.033885
0.0338845
0.0338841
0.0338837
0.0338833
0.0338829
0.0338826
0.0338823
0.033882
0.0338818
0.0338816
0.0338815
0.0338815
0.0338815
0.0338815
0.0338815
0.0338816
0.0338819
0.0338822
0.0338826
0.033883
0.0338834
0.0338839
0.0338844
0.033885
0.0338855
0.0338861
0.0338867
0.0338873
0.0338878
0.0338884
0.0338889
0.0338894
0.0338898
0.0338903
0.0338906
0.033891
0.0338913
0.0338916
0.0338918
0.033892
0.0338922
0.0338923
0.0338924
0.0338925
0.0338926
0.0338926
0.0338927
0.0338927
0.0338928
0.0338928
0.0338929
0.033893
0.0338931
0.0338931
0.0338932
0.0338933
0.0338933
0.0338934
0.0338935
0.0338935
0.0338936
0.0338937
0.0338938
0.0338938
0.0338939
0.033894
0.033894
0.0338941
0.0338941
0.0338942
0.0338942
0.0338943
0.0338943
0.0338944
0.0338944
0.0338945
0.0338945
0.0338946
0.0338946
0.0338947
0.0338947
0.0338948
0.0338948
0.0338949
0.0338949
0.033895
0.033895
0.0338951
0.0338951
0.0338952
0.0338952
0.0338953
0.0338953
0.0338954
0.0338954
0.0338955
0.0338956
0.0338956
0.0338957
0.0338957
0.0338958
0.0338958
0.0338959
0.033896
0.033896
0.0338961
0.0338961
0.0338962
0.0338962
0.0338963
0.0338963
0.0338964
0.0338964
0.0338965
0.0338965
0.0338965
0.0338966
0.0338966
0.0338966
0.0338967
0.0338967
0.0338968
0.0338968
0.0338968
0.0338968
0.0338968
0.0338968
0.0338968
0.0338969
0.0338969
0.0338969
0.0338969
0.0338969
0.0338969
0.0338969
0.0338969
0.0338968
0.0338968
0.0338968
0.0338968
0.0338968
0.0338967
0.0338967
0.0338967
0.0338967
0.0338967
0.0338967
0.0338966
0.0338966
0.0338966
0.0338965
0.0338965
0.0338965
0.0338964
0.0338964
0.0338964
0.0338964
0.0338964
0.0338964
0.0338963
0.0338963
0.0338962
0.0338962
0.0338962
0.0338961
0.0338961
0.0338961
0.033896
0.033896
0.0338959
0.0338959
0.0338958
0.0338958
0.0338957
0.0338956
0.0338955
0.0338954
0.0338953
0.0338952
0.0338951
0.033895
0.0338949
0.0338947
0.0338946
0.0338944
0.0338943
0.0338941
0.0338939
0.0338937
0.0338935
0.0338933
0.0338931
0.0338928
0.0338926
0.0338923
0.033892
0.0338917
0.0338914
0.0338911
0.0338908
0.0338904
0.0338901
0.0338897
0.0338893
0.033889
0.0338886
0.0338882
0.0338878
0.0338873
0.0338869
0.0338865
0.0338862
0.0338858
0.0338854
0.033885
0.0338847
0.0338844
0.033884
0.0338838
0.0338835
0.0338833
0.0338832
0.0338831
0.033883
0.0338829
0.0338829
0.0338829
0.0338829
0.033883
0.0338832
0.0338834
0.0338837
0.033884
0.0338844
0.0338848
0.0338852
0.0338856
0.0338861
0.0338866
0.0338871
0.0338876
0.0338881
0.0338886
0.0338891
0.0338895
0.03389
0.0338905
0.0338909
0.0338913
0.0338916
0.033892
0.0338923
0.0338925
0.0338928
0.033893
0.0338932
0.0338934
0.0338935
0.0338937
0.0338938
0.0338938
0.0338939
0.033894
0.033894
0.0338941
0.0338941
0.0338941
0.0338941
0.0338941
0.0338941
0.0338941
0.0338941
0.0338941
0.0338941
0.0338941
0.0338941
0.0338941
0.0338941
0.033894
0.033894
0.033894
0.033894
0.033894
0.033894
0.0338941
0.0338941
0.0338941
0.0338941
0.0338941
0.0338941
0.0338941
0.0338941
0.0338942
0.0338942
0.0338942
0.0338942
0.0338943
0.0338943
0.0338943
0.0338943
0.0338943
0.0338943
0.0338943
0.0338944
0.0338944
0.0338944
0.0338944
0.0338944
0.0338944
0.0338945
0.0338945
0.0338945
0.0338945
0.0338945
0.0338946
0.0338946
0.0338946
0.0338946
0.0338947
0.0338947
0.0338947
0.0338948
0.0338948
0.0338948
0.0338949
0.0338949
0.033895
0.033895
0.0338951
0.0338951
0.0338952
0.0338952
0.0338952
0.0338953
0.0338954
0.0338954
0.0338955
0.0338955
0.0338956
0.0338957
0.0338957
0.0338957
0.0338958
0.0338959
0.0338959
0.033896
0.0338961
0.0338961
0.0338961
0.0338962
0.0338962
0.0338962
0.0338963
0.0338963
0.0338964
0.0338964
0.0338964
0.0338964
0.0338964
0.0338964
0.0338964
0.0338964
0.0338964
0.0338964
0.0338964
0.0338964
0.0338964
0.0338964
0.0338963
0.0338963
0.0338963
0.0338962
0.0338962
0.0338961
0.0338961
0.033896
0.033896
0.0338959
0.0338959
0.0338958
0.0338958
0.0338957
0.0338956
0.0338956
0.0338955
0.0338954
0.0338953
0.0338953
0.0338952
0.0338951
0.033895
0.0338949
0.0338948
0.0338947
0.0338946
0.0338946
0.0338945
0.0338943
0.0338942
0.0338941
0.0338939
0.0338938
0.0338936
0.0338934
0.0338933
0.0338931
0.0338929
0.0338927
0.0338924
0.0338922
0.0338919
0.0338916
0.0338913
0.0338911
0.0338908
0.0338905
0.0338901
0.0338898
0.0338894
0.033889
0.0338886
0.0338883
0.0338879
0.0338875
0.0338871
0.0338868
0.0338864
0.0338859
0.0338856
0.0338852
0.0338849
0.0338846
0.0338843
0.033884
0.0338838
0.0338835
0.0338833
0.0338832
0.0338831
0.0338831
0.033883
0.033883
0.033883
0.033883
0.0338831
0.0338832
0.0338836
0.0338837
0.0338841
0.0338842
0.0338848
0.0338851
0.0338858
0.033886
0.0338867
0.033887
0.0338877
0.0338879
0.0338887
0.03389
0.0339052
0.0339516
0.0347115
0.0351329
0.0351559
0.0351562
0.0351562
0.0351562
0.0351562
0.0351562
0.0351562
0.0351563
0.0351563
0.0351563
0.0351563
0.0351563
0.0351563
0.0351563
0.0351563
0.0351563
0.0351563
0.0351563
0.0351563
0.0351562
0.0351563
0.0351562
0.0351563
0.0351563
0.0351563
0.0351563
0.0351563
0.0351563
0.0351563
0.0351563
0.0351563
0.0351563
0.0351563
0.0351563
0.0351563
0.0351563
0.0351563
0.0351563
0.0351563
0.0351563
0.0351563
0.0351563
0.0351563
0.0351562
0.0351563
0.0351562
0.0351563
0.0351563
0.0351563
0.0351563
0.0351562
0.0351563
0.0351563
0.0351563
0.0351563
0.0351563
0.0351563
0.0351563
0.0351563
0.0351563
0.0351562
0.0351562
0.0351563
0.0351563
0.0351563
0.0351563
0.0351563
0.0351563
0.0351563
0.0351563
0.0351563
0.0351563
0.0351563
0.0351563
0.0351563
0.0351563
0.0351563
0.0351563
0.0351563
0.0351563
0.0351563
0.0351563
0.0351563
0.0351563
0.0351563
0.0351563
0.0351563
0.0351563
0.0351563
0.0351563
0.0351563
0.0351563
0.0351563
0.0351563
0.0351563
0.0351563
0.0351563
0.0351563
0.0351563
0.0351563
0.0351563
0.0351563
0.0351563
0.0351563
0.0351563
0.0351563
0.0351562
0.0351562
0.0351562
0.0351562
0.0351562
0.0351562
)
;

boundaryField
{
    inlet
    {
        type            calculated;
        value           uniform 0.0976562;
    }
    outlet
    {
        type            calculated;
        value           uniform 0.0351562;
    }
    emptyWalls
    {
        type            empty;
    }
}


// ************************************************************************* //
