/*--------------------------------*- C++ -*----------------------------------*\
  =========                 |
  \\      /  F ield         | OpenFOAM: The Open Source CFD Toolbox
   \\    /   O peration     | Website:  https://openfoam.org
    \\  /    A nd           | Version:  9
     \\/     M anipulation  |
\*---------------------------------------------------------------------------*/
FoamFile
{
    format      ascii;
    class       volVectorField;
    location    "5400";
    object      Ua;
}
// * * * * * * * * * * * * * * * * * * * * * * * * * * * * * * * * * * * * * //

dimensions      [0 0 0 0 0 0 0];

internalField   nonuniform List<vector> 
1000
(
(2.74881e-06 0 0)
(2.74731e-06 0 0)
(2.74583e-06 0 0)
(2.74285e-06 0 0)
(2.73772e-06 0 0)
(2.72283e-06 0 0)
(2.65424e-06 0 0)
(2.40318e-06 0 0)
(2.16693e-06 0 0)
(2.11247e-06 0 0)
(2.09272e-06 0 0)
(2.08151e-06 0 0)
(2.07392e-06 0 0)
(2.06841e-06 0 0)
(2.06421e-06 0 0)
(2.06075e-06 0 0)
(2.0576e-06 0 0)
(2.05434e-06 0 0)
(2.05114e-06 0 0)
(2.04885e-06 0 0)
(2.04793e-06 0 0)
(2.04771e-06 0 0)
(2.04745e-06 0 0)
(2.04712e-06 0 0)
(2.04674e-06 0 0)
(2.04633e-06 0 0)
(2.04592e-06 0 0)
(2.04553e-06 0 0)
(2.04517e-06 0 0)
(2.04484e-06 0 0)
(2.04456e-06 0 0)
(2.04439e-06 0 0)
(2.04432e-06 0 0)
(2.04432e-06 0 0)
(2.04434e-06 0 0)
(2.04429e-06 0 0)
(2.04417e-06 0 0)
(2.04404e-06 0 0)
(2.04403e-06 0 0)
(2.0443e-06 0 0)
(2.04498e-06 0 0)
(2.04618e-06 0 0)
(2.04791e-06 0 0)
(2.05011e-06 0 0)
(2.05268e-06 0 0)
(2.05548e-06 0 0)
(2.05839e-06 0 0)
(2.06126e-06 0 0)
(2.06397e-06 0 0)
(2.06637e-06 0 0)
(2.06834e-06 0 0)
(2.06973e-06 0 0)
(2.07044e-06 0 0)
(2.07032e-06 0 0)
(2.06931e-06 0 0)
(2.06734e-06 0 0)
(2.06443e-06 0 0)
(2.06064e-06 0 0)
(2.05609e-06 0 0)
(2.05095e-06 0 0)
(2.04545e-06 0 0)
(2.03982e-06 0 0)
(2.03429e-06 0 0)
(2.02906e-06 0 0)
(2.02432e-06 0 0)
(2.02019e-06 0 0)
(2.01673e-06 0 0)
(2.01397e-06 0 0)
(2.0119e-06 0 0)
(2.01044e-06 0 0)
(2.00953e-06 0 0)
(2.00905e-06 0 0)
(2.00892e-06 0 0)
(2.00901e-06 0 0)
(2.00925e-06 0 0)
(2.00955e-06 0 0)
(2.00984e-06 0 0)
(2.01006e-06 0 0)
(2.01019e-06 0 0)
(2.01019e-06 0 0)
(2.01006e-06 0 0)
(2.0098e-06 0 0)
(2.0094e-06 0 0)
(2.00888e-06 0 0)
(2.00825e-06 0 0)
(2.00753e-06 0 0)
(2.00673e-06 0 0)
(2.00586e-06 0 0)
(2.00493e-06 0 0)
(2.00396e-06 0 0)
(2.00295e-06 0 0)
(2.0019e-06 0 0)
(2.00083e-06 0 0)
(1.99973e-06 0 0)
(1.99861e-06 0 0)
(1.99747e-06 0 0)
(1.99632e-06 0 0)
(1.99515e-06 0 0)
(1.99397e-06 0 0)
(1.99277e-06 0 0)
(1.99157e-06 0 0)
(1.99037e-06 0 0)
(1.98916e-06 0 0)
(1.98795e-06 0 0)
(1.98674e-06 0 0)
(1.98553e-06 0 0)
(1.98433e-06 0 0)
(1.98313e-06 0 0)
(1.98194e-06 0 0)
(1.98077e-06 0 0)
(1.97961e-06 0 0)
(1.97846e-06 0 0)
(1.97732e-06 0 0)
(1.9762e-06 0 0)
(1.9751e-06 0 0)
(1.97401e-06 0 0)
(1.97294e-06 0 0)
(1.97188e-06 0 0)
(1.97085e-06 0 0)
(1.96982e-06 0 0)
(1.96882e-06 0 0)
(1.96782e-06 0 0)
(1.96685e-06 0 0)
(1.96588e-06 0 0)
(1.96493e-06 0 0)
(1.96399e-06 0 0)
(1.96307e-06 0 0)
(1.96215e-06 0 0)
(1.96124e-06 0 0)
(1.96033e-06 0 0)
(1.95943e-06 0 0)
(1.95854e-06 0 0)
(1.95764e-06 0 0)
(1.95675e-06 0 0)
(1.95586e-06 0 0)
(1.95497e-06 0 0)
(1.95408e-06 0 0)
(1.95318e-06 0 0)
(1.95229e-06 0 0)
(1.95139e-06 0 0)
(1.9505e-06 0 0)
(1.9496e-06 0 0)
(1.94871e-06 0 0)
(1.94782e-06 0 0)
(1.94693e-06 0 0)
(1.94604e-06 0 0)
(1.94516e-06 0 0)
(1.94429e-06 0 0)
(1.94342e-06 0 0)
(1.94257e-06 0 0)
(1.94172e-06 0 0)
(1.94089e-06 0 0)
(1.94006e-06 0 0)
(1.93925e-06 0 0)
(1.93845e-06 0 0)
(1.93767e-06 0 0)
(1.9369e-06 0 0)
(1.93614e-06 0 0)
(1.9354e-06 0 0)
(1.93468e-06 0 0)
(1.93397e-06 0 0)
(1.93327e-06 0 0)
(1.93259e-06 0 0)
(1.93192e-06 0 0)
(1.93127e-06 0 0)
(1.93062e-06 0 0)
(1.92999e-06 0 0)
(1.92936e-06 0 0)
(1.92874e-06 0 0)
(1.92813e-06 0 0)
(1.92752e-06 0 0)
(1.92691e-06 0 0)
(1.9263e-06 0 0)
(1.92569e-06 0 0)
(1.92508e-06 0 0)
(1.92447e-06 0 0)
(1.92385e-06 0 0)
(1.92324e-06 0 0)
(1.92263e-06 0 0)
(1.92202e-06 0 0)
(1.92141e-06 0 0)
(1.92081e-06 0 0)
(1.92021e-06 0 0)
(1.91961e-06 0 0)
(1.91902e-06 0 0)
(1.91843e-06 0 0)
(1.91785e-06 0 0)
(1.91728e-06 0 0)
(1.91672e-06 0 0)
(1.91617e-06 0 0)
(1.91563e-06 0 0)
(1.91511e-06 0 0)
(1.91462e-06 0 0)
(1.91415e-06 0 0)
(1.91373e-06 0 0)
(1.91335e-06 0 0)
(1.91303e-06 0 0)
(1.91277e-06 0 0)
(1.9126e-06 0 0)
(1.91251e-06 0 0)
(1.91252e-06 0 0)
(1.91264e-06 0 0)
(1.91288e-06 0 0)
(1.91324e-06 0 0)
(1.91374e-06 0 0)
(1.91436e-06 0 0)
(1.9151e-06 0 0)
(1.91594e-06 0 0)
(1.91683e-06 0 0)
(1.91771e-06 0 0)
(1.91845e-06 0 0)
(1.91885e-06 0 0)
(1.9186e-06 0 0)
(1.91728e-06 0 0)
(1.91443e-06 0 0)
(1.90985e-06 0 0)
(1.90399e-06 0 0)
(1.89813e-06 0 0)
(1.89365e-06 0 0)
(1.89106e-06 0 0)
(1.88995e-06 0 0)
(1.88962e-06 0 0)
(1.88958e-06 0 0)
(1.88954e-06 0 0)
(1.88939e-06 0 0)
(1.88906e-06 0 0)
(1.88851e-06 0 0)
(1.88775e-06 0 0)
(1.88677e-06 0 0)
(1.88558e-06 0 0)
(1.8842e-06 0 0)
(1.88265e-06 0 0)
(1.88096e-06 0 0)
(1.87915e-06 0 0)
(1.87725e-06 0 0)
(1.8753e-06 0 0)
(1.87333e-06 0 0)
(1.87137e-06 0 0)
(1.86946e-06 0 0)
(1.86761e-06 0 0)
(1.86585e-06 0 0)
(1.86421e-06 0 0)
(1.8627e-06 0 0)
(1.86133e-06 0 0)
(1.86011e-06 0 0)
(1.85904e-06 0 0)
(1.85813e-06 0 0)
(1.85738e-06 0 0)
(1.85678e-06 0 0)
(1.85632e-06 0 0)
(1.85599e-06 0 0)
(1.85579e-06 0 0)
(1.85569e-06 0 0)
(1.85566e-06 0 0)
(1.85566e-06 0 0)
(1.8557e-06 0 0)
(1.85586e-06 0 0)
(1.85611e-06 0 0)
(1.85636e-06 0 0)
(1.85663e-06 0 0)
(1.8569e-06 0 0)
(1.85717e-06 0 0)
(1.85743e-06 0 0)
(1.85767e-06 0 0)
(1.8579e-06 0 0)
(1.85811e-06 0 0)
(1.85829e-06 0 0)
(1.85844e-06 0 0)
(1.85857e-06 0 0)
(1.85866e-06 0 0)
(1.85873e-06 0 0)
(1.85876e-06 0 0)
(1.85878e-06 0 0)
(1.85878e-06 0 0)
(1.85877e-06 0 0)
(1.85873e-06 0 0)
(1.85864e-06 0 0)
(1.85854e-06 0 0)
(1.85842e-06 0 0)
(1.85828e-06 0 0)
(1.85813e-06 0 0)
(1.85797e-06 0 0)
(1.85779e-06 0 0)
(1.8576e-06 0 0)
(1.85741e-06 0 0)
(1.8572e-06 0 0)
(1.85699e-06 0 0)
(1.85677e-06 0 0)
(1.85654e-06 0 0)
(1.8563e-06 0 0)
(1.85606e-06 0 0)
(1.85582e-06 0 0)
(1.85556e-06 0 0)
(1.85531e-06 0 0)
(1.85505e-06 0 0)
(1.85478e-06 0 0)
(1.85451e-06 0 0)
(1.85424e-06 0 0)
(1.85396e-06 0 0)
(1.85369e-06 0 0)
(1.85341e-06 0 0)
(1.85312e-06 0 0)
(1.85284e-06 0 0)
(1.85256e-06 0 0)
(1.85227e-06 0 0)
(1.85199e-06 0 0)
(1.85171e-06 0 0)
(1.85143e-06 0 0)
(1.85115e-06 0 0)
(1.85088e-06 0 0)
(1.85061e-06 0 0)
(1.85034e-06 0 0)
(1.85008e-06 0 0)
(1.84983e-06 0 0)
(1.84958e-06 0 0)
(1.84934e-06 0 0)
(1.8491e-06 0 0)
(1.84888e-06 0 0)
(1.84866e-06 0 0)
(1.84846e-06 0 0)
(1.84826e-06 0 0)
(1.84807e-06 0 0)
(1.8479e-06 0 0)
(1.84773e-06 0 0)
(1.84758e-06 0 0)
(1.84743e-06 0 0)
(1.84729e-06 0 0)
(1.84717e-06 0 0)
(1.84705e-06 0 0)
(1.84695e-06 0 0)
(1.84685e-06 0 0)
(1.84677e-06 0 0)
(1.84669e-06 0 0)
(1.84662e-06 0 0)
(1.84656e-06 0 0)
(1.84651e-06 0 0)
(1.84646e-06 0 0)
(1.84642e-06 0 0)
(1.84639e-06 0 0)
(1.84636e-06 0 0)
(1.84634e-06 0 0)
(1.84632e-06 0 0)
(1.8463e-06 0 0)
(1.84629e-06 0 0)
(1.84629e-06 0 0)
(1.84628e-06 0 0)
(1.84628e-06 0 0)
(1.84628e-06 0 0)
(1.84628e-06 0 0)
(1.84628e-06 0 0)
(1.84628e-06 0 0)
(1.84628e-06 0 0)
(1.84629e-06 0 0)
(1.8463e-06 0 0)
(1.84631e-06 0 0)
(1.84632e-06 0 0)
(1.84633e-06 0 0)
(1.84635e-06 0 0)
(1.84637e-06 0 0)
(1.84639e-06 0 0)
(1.84641e-06 0 0)
(1.84644e-06 0 0)
(1.84648e-06 0 0)
(1.84652e-06 0 0)
(1.84657e-06 0 0)
(1.84662e-06 0 0)
(1.84668e-06 0 0)
(1.84675e-06 0 0)
(1.84683e-06 0 0)
(1.84692e-06 0 0)
(1.84702e-06 0 0)
(1.84713e-06 0 0)
(1.84725e-06 0 0)
(1.84739e-06 0 0)
(1.84753e-06 0 0)
(1.84769e-06 0 0)
(1.84787e-06 0 0)
(1.84805e-06 0 0)
(1.84825e-06 0 0)
(1.84846e-06 0 0)
(1.84869e-06 0 0)
(1.84892e-06 0 0)
(1.84918e-06 0 0)
(1.84944e-06 0 0)
(1.84972e-06 0 0)
(1.85001e-06 0 0)
(1.85031e-06 0 0)
(1.85063e-06 0 0)
(1.85096e-06 0 0)
(1.8513e-06 0 0)
(1.85165e-06 0 0)
(1.85202e-06 0 0)
(1.85239e-06 0 0)
(1.85278e-06 0 0)
(1.85319e-06 0 0)
(1.85361e-06 0 0)
(1.85404e-06 0 0)
(1.85449e-06 0 0)
(1.85496e-06 0 0)
(1.85545e-06 0 0)
(1.85597e-06 0 0)
(1.8565e-06 0 0)
(1.85707e-06 0 0)
(1.85766e-06 0 0)
(1.85829e-06 0 0)
(1.85895e-06 0 0)
(1.85964e-06 0 0)
(1.86038e-06 0 0)
(1.86116e-06 0 0)
(1.86198e-06 0 0)
(1.86284e-06 0 0)
(1.86375e-06 0 0)
(1.86471e-06 0 0)
(1.86571e-06 0 0)
(1.86675e-06 0 0)
(1.86783e-06 0 0)
(1.86896e-06 0 0)
(1.87011e-06 0 0)
(1.87129e-06 0 0)
(1.8725e-06 0 0)
(1.87372e-06 0 0)
(1.87495e-06 0 0)
(1.87618e-06 0 0)
(1.87739e-06 0 0)
(1.87858e-06 0 0)
(1.87974e-06 0 0)
(1.88084e-06 0 0)
(1.88189e-06 0 0)
(1.88287e-06 0 0)
(1.88376e-06 0 0)
(1.88456e-06 0 0)
(1.88524e-06 0 0)
(1.8858e-06 0 0)
(1.88622e-06 0 0)
(1.88649e-06 0 0)
(1.88663e-06 0 0)
(1.88666e-06 0 0)
(1.88666e-06 0 0)
(1.88657e-06 0 0)
(1.88618e-06 0 0)
(1.88549e-06 0 0)
(1.88468e-06 0 0)
(1.88371e-06 0 0)
(1.8826e-06 0 0)
(1.88137e-06 0 0)
(1.88003e-06 0 0)
(1.87861e-06 0 0)
(1.87711e-06 0 0)
(1.87556e-06 0 0)
(1.87399e-06 0 0)
(1.8724e-06 0 0)
(1.87083e-06 0 0)
(1.86928e-06 0 0)
(1.86778e-06 0 0)
(1.86634e-06 0 0)
(1.86497e-06 0 0)
(1.86369e-06 0 0)
(1.8625e-06 0 0)
(1.86141e-06 0 0)
(1.86042e-06 0 0)
(1.85953e-06 0 0)
(1.85875e-06 0 0)
(1.85806e-06 0 0)
(1.85748e-06 0 0)
(1.85698e-06 0 0)
(1.85657e-06 0 0)
(1.85624e-06 0 0)
(1.85597e-06 0 0)
(1.85577e-06 0 0)
(1.85563e-06 0 0)
(1.85553e-06 0 0)
(1.85547e-06 0 0)
(1.85544e-06 0 0)
(1.85544e-06 0 0)
(1.85544e-06 0 0)
(1.85546e-06 0 0)
(1.8555e-06 0 0)
(1.85555e-06 0 0)
(1.8556e-06 0 0)
(1.85565e-06 0 0)
(1.85568e-06 0 0)
(1.85571e-06 0 0)
(1.85572e-06 0 0)
(1.85573e-06 0 0)
(1.85573e-06 0 0)
(1.85572e-06 0 0)
(1.85569e-06 0 0)
(1.85563e-06 0 0)
(1.85555e-06 0 0)
(1.85546e-06 0 0)
(1.85536e-06 0 0)
(1.85525e-06 0 0)
(1.85512e-06 0 0)
(1.85498e-06 0 0)
(1.85484e-06 0 0)
(1.85469e-06 0 0)
(1.85452e-06 0 0)
(1.85436e-06 0 0)
(1.85419e-06 0 0)
(1.85401e-06 0 0)
(1.85383e-06 0 0)
(1.85365e-06 0 0)
(1.85346e-06 0 0)
(1.85327e-06 0 0)
(1.85308e-06 0 0)
(1.85289e-06 0 0)
(1.8527e-06 0 0)
(1.85251e-06 0 0)
(1.85232e-06 0 0)
(1.85213e-06 0 0)
(1.85194e-06 0 0)
(1.85175e-06 0 0)
(1.85156e-06 0 0)
(1.85137e-06 0 0)
(1.85118e-06 0 0)
(1.85099e-06 0 0)
(1.8508e-06 0 0)
(1.85061e-06 0 0)
(1.85043e-06 0 0)
(1.85024e-06 0 0)
(1.85005e-06 0 0)
(1.84987e-06 0 0)
(1.84968e-06 0 0)
(1.8495e-06 0 0)
(1.84931e-06 0 0)
(1.84913e-06 0 0)
(1.84895e-06 0 0)
(1.84877e-06 0 0)
(1.84859e-06 0 0)
(1.84841e-06 0 0)
(1.84823e-06 0 0)
(1.84806e-06 0 0)
(1.84789e-06 0 0)
(1.84772e-06 0 0)
(1.84756e-06 0 0)
(1.8474e-06 0 0)
(1.84724e-06 0 0)
(1.84709e-06 0 0)
(1.84694e-06 0 0)
(1.8468e-06 0 0)
(1.84667e-06 0 0)
(1.84654e-06 0 0)
(1.84641e-06 0 0)
(1.84629e-06 0 0)
(1.84618e-06 0 0)
(1.84608e-06 0 0)
(1.84598e-06 0 0)
(1.84589e-06 0 0)
(1.84581e-06 0 0)
(1.84574e-06 0 0)
(1.84568e-06 0 0)
(1.84562e-06 0 0)
(1.84557e-06 0 0)
(1.84553e-06 0 0)
(1.8455e-06 0 0)
(1.84547e-06 0 0)
(1.84546e-06 0 0)
(1.84545e-06 0 0)
(1.84545e-06 0 0)
(1.84545e-06 0 0)
(1.84545e-06 0 0)
(1.84546e-06 0 0)
(1.84549e-06 0 0)
(1.84552e-06 0 0)
(1.84556e-06 0 0)
(1.8456e-06 0 0)
(1.84564e-06 0 0)
(1.84569e-06 0 0)
(1.84575e-06 0 0)
(1.84581e-06 0 0)
(1.84586e-06 0 0)
(1.84593e-06 0 0)
(1.84599e-06 0 0)
(1.84606e-06 0 0)
(1.84612e-06 0 0)
(1.84619e-06 0 0)
(1.84626e-06 0 0)
(1.84633e-06 0 0)
(1.8464e-06 0 0)
(1.84648e-06 0 0)
(1.84655e-06 0 0)
(1.84662e-06 0 0)
(1.8467e-06 0 0)
(1.84678e-06 0 0)
(1.84686e-06 0 0)
(1.84695e-06 0 0)
(1.84704e-06 0 0)
(1.84713e-06 0 0)
(1.84723e-06 0 0)
(1.84734e-06 0 0)
(1.84746e-06 0 0)
(1.84758e-06 0 0)
(1.84771e-06 0 0)
(1.84786e-06 0 0)
(1.84801e-06 0 0)
(1.84818e-06 0 0)
(1.84836e-06 0 0)
(1.84855e-06 0 0)
(1.84876e-06 0 0)
(1.84899e-06 0 0)
(1.84923e-06 0 0)
(1.8495e-06 0 0)
(1.84978e-06 0 0)
(1.85008e-06 0 0)
(1.8504e-06 0 0)
(1.85074e-06 0 0)
(1.85111e-06 0 0)
(1.8515e-06 0 0)
(1.85191e-06 0 0)
(1.85235e-06 0 0)
(1.85282e-06 0 0)
(1.85332e-06 0 0)
(1.85384e-06 0 0)
(1.8544e-06 0 0)
(1.85498e-06 0 0)
(1.8556e-06 0 0)
(1.85625e-06 0 0)
(1.85693e-06 0 0)
(1.85765e-06 0 0)
(1.8584e-06 0 0)
(1.85919e-06 0 0)
(1.86001e-06 0 0)
(1.86087e-06 0 0)
(1.86176e-06 0 0)
(1.86268e-06 0 0)
(1.86363e-06 0 0)
(1.86461e-06 0 0)
(1.86562e-06 0 0)
(1.86665e-06 0 0)
(1.8677e-06 0 0)
(1.86876e-06 0 0)
(1.86984e-06 0 0)
(1.87092e-06 0 0)
(1.872e-06 0 0)
(1.87307e-06 0 0)
(1.87412e-06 0 0)
(1.87516e-06 0 0)
(1.87616e-06 0 0)
(1.87713e-06 0 0)
(1.87805e-06 0 0)
(1.87891e-06 0 0)
(1.87971e-06 0 0)
(1.88044e-06 0 0)
(1.88108e-06 0 0)
(1.88163e-06 0 0)
(1.88208e-06 0 0)
(1.88243e-06 0 0)
(1.88265e-06 0 0)
(1.88277e-06 0 0)
(1.8828e-06 0 0)
(1.88281e-06 0 0)
(1.88274e-06 0 0)
(1.88245e-06 0 0)
(1.88193e-06 0 0)
(1.8813e-06 0 0)
(1.88055e-06 0 0)
(1.87968e-06 0 0)
(1.87871e-06 0 0)
(1.87764e-06 0 0)
(1.8765e-06 0 0)
(1.87528e-06 0 0)
(1.87401e-06 0 0)
(1.8727e-06 0 0)
(1.87136e-06 0 0)
(1.87001e-06 0 0)
(1.86867e-06 0 0)
(1.86734e-06 0 0)
(1.86604e-06 0 0)
(1.86478e-06 0 0)
(1.86358e-06 0 0)
(1.86243e-06 0 0)
(1.86135e-06 0 0)
(1.86034e-06 0 0)
(1.85941e-06 0 0)
(1.85855e-06 0 0)
(1.85778e-06 0 0)
(1.85708e-06 0 0)
(1.85647e-06 0 0)
(1.85592e-06 0 0)
(1.85545e-06 0 0)
(1.85505e-06 0 0)
(1.85472e-06 0 0)
(1.85444e-06 0 0)
(1.85421e-06 0 0)
(1.85404e-06 0 0)
(1.8539e-06 0 0)
(1.8538e-06 0 0)
(1.85374e-06 0 0)
(1.8537e-06 0 0)
(1.85368e-06 0 0)
(1.85367e-06 0 0)
(1.85367e-06 0 0)
(1.85368e-06 0 0)
(1.85372e-06 0 0)
(1.85375e-06 0 0)
(1.85379e-06 0 0)
(1.85383e-06 0 0)
(1.85386e-06 0 0)
(1.85389e-06 0 0)
(1.85391e-06 0 0)
(1.85392e-06 0 0)
(1.85393e-06 0 0)
(1.85393e-06 0 0)
(1.85393e-06 0 0)
(1.85392e-06 0 0)
(1.85389e-06 0 0)
(1.85386e-06 0 0)
(1.85382e-06 0 0)
(1.85377e-06 0 0)
(1.85372e-06 0 0)
(1.85366e-06 0 0)
(1.8536e-06 0 0)
(1.85353e-06 0 0)
(1.85347e-06 0 0)
(1.8534e-06 0 0)
(1.85333e-06 0 0)
(1.85326e-06 0 0)
(1.85319e-06 0 0)
(1.85312e-06 0 0)
(1.85305e-06 0 0)
(1.85298e-06 0 0)
(1.85292e-06 0 0)
(1.85285e-06 0 0)
(1.85279e-06 0 0)
(1.85272e-06 0 0)
(1.85266e-06 0 0)
(1.8526e-06 0 0)
(1.85254e-06 0 0)
(1.85248e-06 0 0)
(1.85242e-06 0 0)
(1.85237e-06 0 0)
(1.85231e-06 0 0)
(1.85225e-06 0 0)
(1.85219e-06 0 0)
(1.85213e-06 0 0)
(1.85207e-06 0 0)
(1.85201e-06 0 0)
(1.85195e-06 0 0)
(1.85188e-06 0 0)
(1.85181e-06 0 0)
(1.85174e-06 0 0)
(1.85166e-06 0 0)
(1.85158e-06 0 0)
(1.8515e-06 0 0)
(1.85141e-06 0 0)
(1.85132e-06 0 0)
(1.85122e-06 0 0)
(1.85112e-06 0 0)
(1.85102e-06 0 0)
(1.85091e-06 0 0)
(1.85079e-06 0 0)
(1.85067e-06 0 0)
(1.85055e-06 0 0)
(1.85042e-06 0 0)
(1.85029e-06 0 0)
(1.85015e-06 0 0)
(1.85001e-06 0 0)
(1.84986e-06 0 0)
(1.84972e-06 0 0)
(1.84957e-06 0 0)
(1.84942e-06 0 0)
(1.84927e-06 0 0)
(1.84911e-06 0 0)
(1.84896e-06 0 0)
(1.84881e-06 0 0)
(1.84866e-06 0 0)
(1.84851e-06 0 0)
(1.84836e-06 0 0)
(1.84822e-06 0 0)
(1.84808e-06 0 0)
(1.84794e-06 0 0)
(1.84781e-06 0 0)
(1.84769e-06 0 0)
(1.84757e-06 0 0)
(1.84746e-06 0 0)
(1.84736e-06 0 0)
(1.84727e-06 0 0)
(1.84718e-06 0 0)
(1.84711e-06 0 0)
(1.84704e-06 0 0)
(1.84699e-06 0 0)
(1.84694e-06 0 0)
(1.84691e-06 0 0)
(1.84689e-06 0 0)
(1.84687e-06 0 0)
(1.84687e-06 0 0)
(1.84687e-06 0 0)
(1.84687e-06 0 0)
(1.8469e-06 0 0)
(1.84694e-06 0 0)
(1.84699e-06 0 0)
(1.84706e-06 0 0)
(1.84713e-06 0 0)
(1.84721e-06 0 0)
(1.8473e-06 0 0)
(1.84741e-06 0 0)
(1.84752e-06 0 0)
(1.84763e-06 0 0)
(1.84776e-06 0 0)
(1.84789e-06 0 0)
(1.84803e-06 0 0)
(1.84818e-06 0 0)
(1.84833e-06 0 0)
(1.84849e-06 0 0)
(1.84865e-06 0 0)
(1.84882e-06 0 0)
(1.849e-06 0 0)
(1.84918e-06 0 0)
(1.84936e-06 0 0)
(1.84955e-06 0 0)
(1.84975e-06 0 0)
(1.84995e-06 0 0)
(1.85016e-06 0 0)
(1.85037e-06 0 0)
(1.85059e-06 0 0)
(1.85083e-06 0 0)
(1.85107e-06 0 0)
(1.85133e-06 0 0)
(1.85159e-06 0 0)
(1.85187e-06 0 0)
(1.85217e-06 0 0)
(1.85249e-06 0 0)
(1.85282e-06 0 0)
(1.85317e-06 0 0)
(1.85355e-06 0 0)
(1.85396e-06 0 0)
(1.85438e-06 0 0)
(1.85484e-06 0 0)
(1.85533e-06 0 0)
(1.85585e-06 0 0)
(1.8564e-06 0 0)
(1.85698e-06 0 0)
(1.8576e-06 0 0)
(1.85826e-06 0 0)
(1.85895e-06 0 0)
(1.85968e-06 0 0)
(1.86045e-06 0 0)
(1.86125e-06 0 0)
(1.86209e-06 0 0)
(1.86296e-06 0 0)
(1.86386e-06 0 0)
(1.86479e-06 0 0)
(1.86575e-06 0 0)
(1.86673e-06 0 0)
(1.86773e-06 0 0)
(1.86875e-06 0 0)
(1.86978e-06 0 0)
(1.87082e-06 0 0)
(1.87185e-06 0 0)
(1.87289e-06 0 0)
(1.87391e-06 0 0)
(1.87491e-06 0 0)
(1.87589e-06 0 0)
(1.87683e-06 0 0)
(1.87774e-06 0 0)
(1.87859e-06 0 0)
(1.87939e-06 0 0)
(1.88013e-06 0 0)
(1.8808e-06 0 0)
(1.88139e-06 0 0)
(1.88189e-06 0 0)
(1.8823e-06 0 0)
(1.88259e-06 0 0)
(1.88277e-06 0 0)
(1.88284e-06 0 0)
(1.88286e-06 0 0)
(1.88281e-06 0 0)
(1.8827e-06 0 0)
(1.88246e-06 0 0)
(1.8821e-06 0 0)
(1.88159e-06 0 0)
(1.88094e-06 0 0)
(1.88015e-06 0 0)
(1.87919e-06 0 0)
(1.87818e-06 0 0)
(1.87707e-06 0 0)
(1.87588e-06 0 0)
(1.87467e-06 0 0)
(1.87341e-06 0 0)
(1.8721e-06 0 0)
(1.87076e-06 0 0)
(1.86941e-06 0 0)
(1.86732e-06 0 0)
(1.86172e-06 0 0)
(1.81013e-06 0 0)
(1.60566e-06 0 0)
(7.84939e-07 0 0)
(6.0779e-08 0 0)
(1.21112e-10 0 0)
(8.88641e-17 0 0)
(5.07449e-30 0 0)
(4.42389e-58 0 0)
(6.34309e-118 0 0)
(1.39084e-244 0 0)
(0 0 0)
(0 0 0)
(0 0 0)
(0 0 0)
(0 0 0)
(0 0 0)
(0 0 0)
(0 0 0)
(0 0 0)
(0 0 0)
(0 0 0)
(0 0 0)
(0 0 0)
(0 0 0)
(0 0 0)
(0 0 0)
(0 0 0)
(0 0 0)
(0 0 0)
(0 0 0)
(0 0 0)
(0 0 0)
(0 0 0)
(0 0 0)
(0 0 0)
(0 0 0)
(0 0 0)
(0 0 0)
(0 0 0)
(0 0 0)
(0 0 0)
(0 0 0)
(0 0 0)
(0 0 0)
(0 0 0)
(0 0 0)
(0 0 0)
(0 0 0)
(0 0 0)
(0 0 0)
(0 0 0)
(0 0 0)
(0 0 0)
(0 0 0)
(0 0 0)
(0 0 0)
(0 0 0)
(0 0 0)
(0 0 0)
(0 0 0)
(0 0 0)
(0 0 0)
(0 0 0)
(0 0 0)
(0 0 0)
(0 0 0)
(0 0 0)
(0 0 0)
(0 0 0)
(0 0 0)
(0 0 0)
(0 0 0)
(0 0 0)
(0 0 0)
(0 0 0)
(0 0 0)
(0 0 0)
(0 0 0)
(0 0 0)
(0 0 0)
(0 0 0)
(0 0 0)
(0 0 0)
(0 0 0)
(0 0 0)
(0 0 0)
(0 0 0)
(0 0 0)
(0 0 0)
(0 0 0)
(0 0 0)
(0 0 0)
(0 0 0)
(0 0 0)
(0 0 0)
(0 0 0)
(0 0 0)
(0 0 0)
(0 0 0)
(0 0 0)
(0 0 0)
(0 0 0)
(0 0 0)
(0 0 0)
(0 0 0)
(0 0 0)
(0 0 0)
(0 0 0)
(0 0 0)
(0 0 0)
(0 0 0)
(0 0 0)
(0 0 0)
(0 0 0)
(0 0 0)
(0 0 0)
)
;

boundaryField
{
    inlet
    {
        type            fixedValue;
        value           uniform (2.74882e-06 0 0);
    }
    outlet
    {
        type            zeroGradient;
    }
    emptyWalls
    {
        type            empty;
    }
}


// ************************************************************************* //
