/*--------------------------------*- C++ -*----------------------------------*\
  =========                 |
  \\      /  F ield         | OpenFOAM: The Open Source CFD Toolbox
   \\    /   O peration     | Website:  https://openfoam.org
    \\  /    A nd           | Version:  9
     \\/     M anipulation  |
\*---------------------------------------------------------------------------*/
FoamFile
{
    format      ascii;
    class       volVectorField;
    location    "3050";
    object      Ub;
}
// * * * * * * * * * * * * * * * * * * * * * * * * * * * * * * * * * * * * * //

dimensions      [0 0 0 0 0 0 0];

internalField   nonuniform List<vector> 
1000
(
(1.13628e-05 0 0)
(1.13666e-05 0 0)
(1.13805e-05 0 0)
(1.14575e-05 0 0)
(1.16326e-05 0 0)
(1.17571e-05 0 0)
(1.17743e-05 0 0)
(1.17739e-05 0 0)
(1.17681e-05 0 0)
(1.1761e-05 0 0)
(1.17484e-05 0 0)
(1.17261e-05 0 0)
(1.16977e-05 0 0)
(1.16676e-05 0 0)
(1.16373e-05 0 0)
(1.16072e-05 0 0)
(1.15779e-05 0 0)
(1.15496e-05 0 0)
(1.15225e-05 0 0)
(1.14964e-05 0 0)
(1.14708e-05 0 0)
(1.14453e-05 0 0)
(1.14193e-05 0 0)
(1.1392e-05 0 0)
(1.13632e-05 0 0)
(1.13324e-05 0 0)
(1.12996e-05 0 0)
(1.12649e-05 0 0)
(1.12283e-05 0 0)
(1.11903e-05 0 0)
(1.11512e-05 0 0)
(1.11114e-05 0 0)
(1.10711e-05 0 0)
(1.10306e-05 0 0)
(1.09902e-05 0 0)
(1.095e-05 0 0)
(1.091e-05 0 0)
(1.08701e-05 0 0)
(1.08304e-05 0 0)
(1.07908e-05 0 0)
(1.07513e-05 0 0)
(1.07116e-05 0 0)
(1.06719e-05 0 0)
(1.06321e-05 0 0)
(1.0592e-05 0 0)
(1.05518e-05 0 0)
(1.05113e-05 0 0)
(1.04706e-05 0 0)
(1.04297e-05 0 0)
(1.03884e-05 0 0)
(1.03469e-05 0 0)
(1.03051e-05 0 0)
(1.02631e-05 0 0)
(1.02207e-05 0 0)
(1.01781e-05 0 0)
(1.01352e-05 0 0)
(1.0092e-05 0 0)
(1.00486e-05 0 0)
(1.00049e-05 0 0)
(9.96083e-06 0 0)
(9.91653e-06 0 0)
(9.87193e-06 0 0)
(9.82702e-06 0 0)
(9.78181e-06 0 0)
(9.73627e-06 0 0)
(9.69042e-06 0 0)
(9.64423e-06 0 0)
(9.5977e-06 0 0)
(9.55084e-06 0 0)
(9.50362e-06 0 0)
(9.45605e-06 0 0)
(9.40812e-06 0 0)
(9.35981e-06 0 0)
(9.31113e-06 0 0)
(9.26206e-06 0 0)
(9.21261e-06 0 0)
(9.16274e-06 0 0)
(9.11246e-06 0 0)
(9.06175e-06 0 0)
(9.01061e-06 0 0)
(8.95901e-06 0 0)
(8.90695e-06 0 0)
(8.85441e-06 0 0)
(8.80137e-06 0 0)
(8.74781e-06 0 0)
(8.69371e-06 0 0)
(8.63906e-06 0 0)
(8.58384e-06 0 0)
(8.52803e-06 0 0)
(8.4716e-06 0 0)
(8.41453e-06 0 0)
(8.3568e-06 0 0)
(8.29837e-06 0 0)
(8.23921e-06 0 0)
(8.1793e-06 0 0)
(8.11859e-06 0 0)
(8.05705e-06 0 0)
(7.99465e-06 0 0)
(7.93134e-06 0 0)
(7.86709e-06 0 0)
(7.80187e-06 0 0)
(7.73564e-06 0 0)
(7.66837e-06 0 0)
(7.60003e-06 0 0)
(7.5306e-06 0 0)
(7.4601e-06 0 0)
(7.38855e-06 0 0)
(7.31603e-06 0 0)
(7.24267e-06 0 0)
(7.16867e-06 0 0)
(7.0943e-06 0 0)
(7.01979e-06 0 0)
(6.94528e-06 0 0)
(6.87045e-06 0 0)
(6.79408e-06 0 0)
(6.71307e-06 0 0)
(6.62096e-06 0 0)
(6.50571e-06 0 0)
(6.34712e-06 0 0)
(6.11564e-06 0 0)
(5.77712e-06 0 0)
(5.31014e-06 0 0)
(4.73433e-06 0 0)
(4.12478e-06 0 0)
(3.58171e-06 0 0)
(3.17263e-06 0 0)
(2.90514e-06 0 0)
(2.74749e-06 0 0)
(2.66064e-06 0 0)
(2.61467e-06 0 0)
(2.5909e-06 0 0)
(2.57876e-06 0 0)
(2.57262e-06 0 0)
(2.56951e-06 0 0)
(2.56793e-06 0 0)
(2.56712e-06 0 0)
(2.56669e-06 0 0)
(2.56645e-06 0 0)
(2.56631e-06 0 0)
(2.56622e-06 0 0)
(2.56615e-06 0 0)
(2.56609e-06 0 0)
(2.56604e-06 0 0)
(2.56599e-06 0 0)
(2.56595e-06 0 0)
(2.56591e-06 0 0)
(2.56587e-06 0 0)
(2.56582e-06 0 0)
(2.56578e-06 0 0)
(2.56574e-06 0 0)
(2.56571e-06 0 0)
(2.56567e-06 0 0)
(2.56564e-06 0 0)
(2.56561e-06 0 0)
(2.56558e-06 0 0)
(2.56555e-06 0 0)
(2.56552e-06 0 0)
(2.5655e-06 0 0)
(2.56547e-06 0 0)
(2.56544e-06 0 0)
(2.56541e-06 0 0)
(2.56538e-06 0 0)
(2.56534e-06 0 0)
(2.56529e-06 0 0)
(2.56523e-06 0 0)
(2.56516e-06 0 0)
(2.56508e-06 0 0)
(2.56497e-06 0 0)
(2.56485e-06 0 0)
(2.5647e-06 0 0)
(2.56452e-06 0 0)
(2.56431e-06 0 0)
(2.56407e-06 0 0)
(2.5638e-06 0 0)
(2.5635e-06 0 0)
(2.56316e-06 0 0)
(2.56278e-06 0 0)
(2.56238e-06 0 0)
(2.56194e-06 0 0)
(2.56148e-06 0 0)
(2.56099e-06 0 0)
(2.56048e-06 0 0)
(2.55996e-06 0 0)
(2.55942e-06 0 0)
(2.55888e-06 0 0)
(2.55834e-06 0 0)
(2.5578e-06 0 0)
(2.55727e-06 0 0)
(2.55676e-06 0 0)
(2.55629e-06 0 0)
(2.55585e-06 0 0)
(2.55547e-06 0 0)
(2.55515e-06 0 0)
(2.5549e-06 0 0)
(2.55472e-06 0 0)
(2.55463e-06 0 0)
(2.5546e-06 0 0)
(2.5546e-06 0 0)
(2.55463e-06 0 0)
(2.55484e-06 0 0)
(2.55522e-06 0 0)
(2.5557e-06 0 0)
(2.55627e-06 0 0)
(2.55693e-06 0 0)
(2.55765e-06 0 0)
(2.55843e-06 0 0)
(2.55924e-06 0 0)
(2.56008e-06 0 0)
(2.56093e-06 0 0)
(2.56176e-06 0 0)
(2.56256e-06 0 0)
(2.56332e-06 0 0)
(2.56403e-06 0 0)
(2.56467e-06 0 0)
(2.56524e-06 0 0)
(2.56572e-06 0 0)
(2.56614e-06 0 0)
(2.56647e-06 0 0)
(2.56672e-06 0 0)
(2.56691e-06 0 0)
(2.56703e-06 0 0)
(2.56709e-06 0 0)
(2.56711e-06 0 0)
(2.5671e-06 0 0)
(2.56708e-06 0 0)
(2.567e-06 0 0)
(2.56686e-06 0 0)
(2.56671e-06 0 0)
(2.56654e-06 0 0)
(2.56637e-06 0 0)
(2.5662e-06 0 0)
(2.56603e-06 0 0)
(2.56587e-06 0 0)
(2.56572e-06 0 0)
(2.56558e-06 0 0)
(2.56545e-06 0 0)
(2.56534e-06 0 0)
(2.56524e-06 0 0)
(2.56515e-06 0 0)
(2.56508e-06 0 0)
(2.56502e-06 0 0)
(2.56497e-06 0 0)
(2.56493e-06 0 0)
(2.5649e-06 0 0)
(2.56488e-06 0 0)
(2.56487e-06 0 0)
(2.56486e-06 0 0)
(2.56486e-06 0 0)
(2.56486e-06 0 0)
(2.56488e-06 0 0)
(2.5649e-06 0 0)
(2.56492e-06 0 0)
(2.56495e-06 0 0)
(2.56498e-06 0 0)
(2.56501e-06 0 0)
(2.56505e-06 0 0)
(2.56508e-06 0 0)
(2.56512e-06 0 0)
(2.56516e-06 0 0)
(2.5652e-06 0 0)
(2.56524e-06 0 0)
(2.56529e-06 0 0)
(2.56533e-06 0 0)
(2.56537e-06 0 0)
(2.56542e-06 0 0)
(2.56546e-06 0 0)
(2.5655e-06 0 0)
(2.56555e-06 0 0)
(2.56559e-06 0 0)
(2.56563e-06 0 0)
(2.56568e-06 0 0)
(2.56572e-06 0 0)
(2.56576e-06 0 0)
(2.5658e-06 0 0)
(2.56584e-06 0 0)
(2.56588e-06 0 0)
(2.56592e-06 0 0)
(2.56596e-06 0 0)
(2.56599e-06 0 0)
(2.56603e-06 0 0)
(2.56606e-06 0 0)
(2.56609e-06 0 0)
(2.56612e-06 0 0)
(2.56615e-06 0 0)
(2.56618e-06 0 0)
(2.56621e-06 0 0)
(2.56623e-06 0 0)
(2.56626e-06 0 0)
(2.56628e-06 0 0)
(2.56629e-06 0 0)
(2.56631e-06 0 0)
(2.56633e-06 0 0)
(2.56634e-06 0 0)
(2.56635e-06 0 0)
(2.56635e-06 0 0)
(2.56636e-06 0 0)
(2.56636e-06 0 0)
(2.56636e-06 0 0)
(2.56635e-06 0 0)
(2.56634e-06 0 0)
(2.56633e-06 0 0)
(2.56631e-06 0 0)
(2.56629e-06 0 0)
(2.56627e-06 0 0)
(2.56624e-06 0 0)
(2.56622e-06 0 0)
(2.56619e-06 0 0)
(2.56615e-06 0 0)
(2.56612e-06 0 0)
(2.56608e-06 0 0)
(2.56605e-06 0 0)
(2.56601e-06 0 0)
(2.56598e-06 0 0)
(2.56594e-06 0 0)
(2.56591e-06 0 0)
(2.56587e-06 0 0)
(2.56584e-06 0 0)
(2.5658e-06 0 0)
(2.56577e-06 0 0)
(2.56575e-06 0 0)
(2.56572e-06 0 0)
(2.5657e-06 0 0)
(2.56568e-06 0 0)
(2.56566e-06 0 0)
(2.56565e-06 0 0)
(2.56564e-06 0 0)
(2.56563e-06 0 0)
(2.56563e-06 0 0)
(2.56563e-06 0 0)
(2.56563e-06 0 0)
(2.56563e-06 0 0)
(2.56564e-06 0 0)
(2.56565e-06 0 0)
(2.56567e-06 0 0)
(2.56569e-06 0 0)
(2.56572e-06 0 0)
(2.56574e-06 0 0)
(2.56577e-06 0 0)
(2.5658e-06 0 0)
(2.56583e-06 0 0)
(2.56586e-06 0 0)
(2.56589e-06 0 0)
(2.56592e-06 0 0)
(2.56595e-06 0 0)
(2.56598e-06 0 0)
(2.56601e-06 0 0)
(2.56604e-06 0 0)
(2.56606e-06 0 0)
(2.56608e-06 0 0)
(2.5661e-06 0 0)
(2.56611e-06 0 0)
(2.56612e-06 0 0)
(2.56613e-06 0 0)
(2.56613e-06 0 0)
(2.56613e-06 0 0)
(2.56613e-06 0 0)
(2.56613e-06 0 0)
(2.56612e-06 0 0)
(2.56611e-06 0 0)
(2.56609e-06 0 0)
(2.56606e-06 0 0)
(2.56603e-06 0 0)
(2.566e-06 0 0)
(2.56596e-06 0 0)
(2.56591e-06 0 0)
(2.56586e-06 0 0)
(2.56581e-06 0 0)
(2.56574e-06 0 0)
(2.56567e-06 0 0)
(2.56559e-06 0 0)
(2.5655e-06 0 0)
(2.56541e-06 0 0)
(2.5653e-06 0 0)
(2.56518e-06 0 0)
(2.56504e-06 0 0)
(2.5649e-06 0 0)
(2.56474e-06 0 0)
(2.56456e-06 0 0)
(2.56437e-06 0 0)
(2.56417e-06 0 0)
(2.56394e-06 0 0)
(2.5637e-06 0 0)
(2.56344e-06 0 0)
(2.56317e-06 0 0)
(2.56288e-06 0 0)
(2.56257e-06 0 0)
(2.56225e-06 0 0)
(2.56191e-06 0 0)
(2.56156e-06 0 0)
(2.5612e-06 0 0)
(2.56084e-06 0 0)
(2.56047e-06 0 0)
(2.56009e-06 0 0)
(2.55972e-06 0 0)
(2.55936e-06 0 0)
(2.559e-06 0 0)
(2.55865e-06 0 0)
(2.55833e-06 0 0)
(2.55802e-06 0 0)
(2.55776e-06 0 0)
(2.55753e-06 0 0)
(2.55735e-06 0 0)
(2.55723e-06 0 0)
(2.55716e-06 0 0)
(2.55713e-06 0 0)
(2.55713e-06 0 0)
(2.55716e-06 0 0)
(2.5573e-06 0 0)
(2.55757e-06 0 0)
(2.55794e-06 0 0)
(2.5584e-06 0 0)
(2.55894e-06 0 0)
(2.55956e-06 0 0)
(2.56025e-06 0 0)
(2.56101e-06 0 0)
(2.56181e-06 0 0)
(2.56265e-06 0 0)
(2.56351e-06 0 0)
(2.56437e-06 0 0)
(2.56522e-06 0 0)
(2.56605e-06 0 0)
(2.56685e-06 0 0)
(2.5676e-06 0 0)
(2.56829e-06 0 0)
(2.56893e-06 0 0)
(2.56949e-06 0 0)
(2.56998e-06 0 0)
(2.5704e-06 0 0)
(2.57074e-06 0 0)
(2.57102e-06 0 0)
(2.57122e-06 0 0)
(2.57137e-06 0 0)
(2.57145e-06 0 0)
(2.57149e-06 0 0)
(2.5715e-06 0 0)
(2.5715e-06 0 0)
(2.57144e-06 0 0)
(2.57132e-06 0 0)
(2.57116e-06 0 0)
(2.57099e-06 0 0)
(2.57079e-06 0 0)
(2.5706e-06 0 0)
(2.57039e-06 0 0)
(2.57019e-06 0 0)
(2.56999e-06 0 0)
(2.56979e-06 0 0)
(2.56961e-06 0 0)
(2.56943e-06 0 0)
(2.56926e-06 0 0)
(2.5691e-06 0 0)
(2.56895e-06 0 0)
(2.56882e-06 0 0)
(2.5687e-06 0 0)
(2.56859e-06 0 0)
(2.5685e-06 0 0)
(2.56842e-06 0 0)
(2.56835e-06 0 0)
(2.56829e-06 0 0)
(2.56824e-06 0 0)
(2.56819e-06 0 0)
(2.56816e-06 0 0)
(2.56813e-06 0 0)
(2.56811e-06 0 0)
(2.5681e-06 0 0)
(2.56809e-06 0 0)
(2.56808e-06 0 0)
(2.56808e-06 0 0)
(2.56808e-06 0 0)
(2.56808e-06 0 0)
(2.56808e-06 0 0)
(2.56808e-06 0 0)
(2.56809e-06 0 0)
(2.5681e-06 0 0)
(2.56811e-06 0 0)
(2.56812e-06 0 0)
(2.56813e-06 0 0)
(2.56814e-06 0 0)
(2.56816e-06 0 0)
(2.56817e-06 0 0)
(2.56819e-06 0 0)
(2.5682e-06 0 0)
(2.56822e-06 0 0)
(2.56825e-06 0 0)
(2.56827e-06 0 0)
(2.5683e-06 0 0)
(2.56833e-06 0 0)
(2.56836e-06 0 0)
(2.56839e-06 0 0)
(2.56842e-06 0 0)
(2.56846e-06 0 0)
(2.56851e-06 0 0)
(2.56855e-06 0 0)
(2.5686e-06 0 0)
(2.56865e-06 0 0)
(2.56871e-06 0 0)
(2.56876e-06 0 0)
(2.56882e-06 0 0)
(2.56888e-06 0 0)
(2.56895e-06 0 0)
(2.56901e-06 0 0)
(2.56908e-06 0 0)
(2.56915e-06 0 0)
(2.56924e-06 0 0)
(2.56938e-06 0 0)
(2.5704e-06 0 0)
(2.57476e-06 0 0)
(2.59705e-06 0 0)
(2.76359e-06 0 0)
(2.93887e-06 0 0)
(2.96684e-06 0 0)
(2.96725e-06 0 0)
(2.96727e-06 0 0)
(2.96727e-06 0 0)
(2.96727e-06 0 0)
(2.96727e-06 0 0)
(2.96727e-06 0 0)
(2.96727e-06 0 0)
(2.96727e-06 0 0)
(2.96727e-06 0 0)
(2.96727e-06 0 0)
(2.96727e-06 0 0)
(2.96727e-06 0 0)
(2.96727e-06 0 0)
(2.96727e-06 0 0)
(2.96727e-06 0 0)
(2.96727e-06 0 0)
(2.96727e-06 0 0)
(2.96727e-06 0 0)
(2.96727e-06 0 0)
(2.96727e-06 0 0)
(2.96727e-06 0 0)
(2.96727e-06 0 0)
(2.96727e-06 0 0)
(2.96727e-06 0 0)
(2.96727e-06 0 0)
(2.96727e-06 0 0)
(2.96727e-06 0 0)
(2.96727e-06 0 0)
(2.96727e-06 0 0)
(2.96727e-06 0 0)
(2.96727e-06 0 0)
(2.96727e-06 0 0)
(2.96727e-06 0 0)
(2.96727e-06 0 0)
(2.96727e-06 0 0)
(2.96727e-06 0 0)
(2.96727e-06 0 0)
(2.96727e-06 0 0)
(2.96727e-06 0 0)
(2.96727e-06 0 0)
(2.96727e-06 0 0)
(2.96727e-06 0 0)
(2.96727e-06 0 0)
(2.96727e-06 0 0)
(2.96727e-06 0 0)
(2.96727e-06 0 0)
(2.96727e-06 0 0)
(2.96727e-06 0 0)
(2.96727e-06 0 0)
(2.96727e-06 0 0)
(2.96727e-06 0 0)
(2.96727e-06 0 0)
(2.96727e-06 0 0)
(2.96727e-06 0 0)
(2.96727e-06 0 0)
(2.96727e-06 0 0)
(2.96727e-06 0 0)
(2.96727e-06 0 0)
(2.96727e-06 0 0)
(2.96727e-06 0 0)
(2.96727e-06 0 0)
(2.96727e-06 0 0)
(2.96727e-06 0 0)
(2.96727e-06 0 0)
(2.96727e-06 0 0)
(2.96727e-06 0 0)
(2.96727e-06 0 0)
(2.96727e-06 0 0)
(2.96727e-06 0 0)
(2.96727e-06 0 0)
(2.96727e-06 0 0)
(2.96727e-06 0 0)
(2.96727e-06 0 0)
(2.96727e-06 0 0)
(2.96727e-06 0 0)
(2.96727e-06 0 0)
(2.96727e-06 0 0)
(2.96727e-06 0 0)
(2.96727e-06 0 0)
(2.96727e-06 0 0)
(2.96727e-06 0 0)
(2.96727e-06 0 0)
(2.96727e-06 0 0)
(2.96727e-06 0 0)
(2.96727e-06 0 0)
(2.96727e-06 0 0)
(2.96727e-06 0 0)
(2.96727e-06 0 0)
(2.96727e-06 0 0)
(2.96727e-06 0 0)
(2.96727e-06 0 0)
(2.96727e-06 0 0)
(2.96727e-06 0 0)
(2.96727e-06 0 0)
(2.96727e-06 0 0)
(2.96727e-06 0 0)
(2.96727e-06 0 0)
(2.96727e-06 0 0)
(2.96727e-06 0 0)
(2.96727e-06 0 0)
(2.96727e-06 0 0)
(2.96727e-06 0 0)
(2.96727e-06 0 0)
(2.96727e-06 0 0)
(2.96727e-06 0 0)
(2.96727e-06 0 0)
(2.96727e-06 0 0)
(2.96727e-06 0 0)
(2.96727e-06 0 0)
(2.96727e-06 0 0)
(2.96727e-06 0 0)
(2.96727e-06 0 0)
(2.96727e-06 0 0)
(2.96727e-06 0 0)
(2.96727e-06 0 0)
(2.96727e-06 0 0)
(2.96727e-06 0 0)
(2.96727e-06 0 0)
(2.96727e-06 0 0)
(2.96727e-06 0 0)
(2.96727e-06 0 0)
(2.96727e-06 0 0)
(2.96727e-06 0 0)
(2.96727e-06 0 0)
(2.96727e-06 0 0)
(2.96727e-06 0 0)
(2.96727e-06 0 0)
(2.96727e-06 0 0)
(2.96727e-06 0 0)
(2.96727e-06 0 0)
(2.96727e-06 0 0)
(2.96727e-06 0 0)
(2.96727e-06 0 0)
(2.96727e-06 0 0)
(2.96727e-06 0 0)
(2.96727e-06 0 0)
(2.96727e-06 0 0)
(2.96727e-06 0 0)
(2.96727e-06 0 0)
(2.96727e-06 0 0)
(2.96727e-06 0 0)
(2.96727e-06 0 0)
(2.96727e-06 0 0)
(2.96727e-06 0 0)
(2.96727e-06 0 0)
(2.96727e-06 0 0)
(2.96727e-06 0 0)
(2.96727e-06 0 0)
(2.96727e-06 0 0)
(2.96727e-06 0 0)
(2.96727e-06 0 0)
(2.96727e-06 0 0)
(2.96727e-06 0 0)
(2.96727e-06 0 0)
(2.96727e-06 0 0)
(2.96727e-06 0 0)
(2.96727e-06 0 0)
(2.96727e-06 0 0)
(2.96727e-06 0 0)
(2.96727e-06 0 0)
(2.96727e-06 0 0)
(2.96727e-06 0 0)
(2.96727e-06 0 0)
(2.96727e-06 0 0)
(2.96727e-06 0 0)
(2.96727e-06 0 0)
(2.96727e-06 0 0)
(2.96727e-06 0 0)
(2.96727e-06 0 0)
(2.96727e-06 0 0)
(2.96727e-06 0 0)
(2.96727e-06 0 0)
(2.96727e-06 0 0)
(2.96727e-06 0 0)
(2.96727e-06 0 0)
(2.96727e-06 0 0)
(2.96727e-06 0 0)
(2.96727e-06 0 0)
(2.96727e-06 0 0)
(2.96727e-06 0 0)
(2.96727e-06 0 0)
(2.96727e-06 0 0)
(2.96727e-06 0 0)
(2.96727e-06 0 0)
(2.96727e-06 0 0)
(2.96727e-06 0 0)
(2.96727e-06 0 0)
(2.96727e-06 0 0)
(2.96727e-06 0 0)
(2.96727e-06 0 0)
(2.96727e-06 0 0)
(2.96727e-06 0 0)
(2.96727e-06 0 0)
(2.96727e-06 0 0)
(2.96727e-06 0 0)
(2.96727e-06 0 0)
(2.96727e-06 0 0)
(2.96727e-06 0 0)
(2.96727e-06 0 0)
(2.96727e-06 0 0)
(2.96727e-06 0 0)
(2.96727e-06 0 0)
(2.96727e-06 0 0)
(2.96727e-06 0 0)
(2.96727e-06 0 0)
(2.96727e-06 0 0)
(2.96727e-06 0 0)
(2.96727e-06 0 0)
(2.96727e-06 0 0)
(2.96727e-06 0 0)
(2.96727e-06 0 0)
(2.96727e-06 0 0)
(2.96727e-06 0 0)
(2.96727e-06 0 0)
(2.96727e-06 0 0)
(2.96727e-06 0 0)
(2.96727e-06 0 0)
(2.96727e-06 0 0)
(2.96727e-06 0 0)
(2.96727e-06 0 0)
(2.96727e-06 0 0)
(2.96727e-06 0 0)
(2.96727e-06 0 0)
(2.96727e-06 0 0)
(2.96727e-06 0 0)
(2.96727e-06 0 0)
(2.96727e-06 0 0)
(2.96727e-06 0 0)
(2.96727e-06 0 0)
(2.96727e-06 0 0)
(2.96727e-06 0 0)
(2.96727e-06 0 0)
(2.96727e-06 0 0)
(2.96727e-06 0 0)
(2.96727e-06 0 0)
(2.96727e-06 0 0)
(2.96727e-06 0 0)
(2.96727e-06 0 0)
(2.96727e-06 0 0)
(2.96727e-06 0 0)
(2.96727e-06 0 0)
(2.96727e-06 0 0)
(2.96727e-06 0 0)
(2.96727e-06 0 0)
(2.96727e-06 0 0)
(2.96727e-06 0 0)
(2.96727e-06 0 0)
(2.96727e-06 0 0)
(2.96727e-06 0 0)
(2.96727e-06 0 0)
(2.96727e-06 0 0)
(2.96727e-06 0 0)
(2.96727e-06 0 0)
(2.96727e-06 0 0)
(2.96727e-06 0 0)
(2.96727e-06 0 0)
(2.96727e-06 0 0)
(2.96727e-06 0 0)
(2.96727e-06 0 0)
(2.96727e-06 0 0)
(2.96727e-06 0 0)
(2.96727e-06 0 0)
(2.96727e-06 0 0)
(2.96727e-06 0 0)
(2.96727e-06 0 0)
(2.96727e-06 0 0)
(2.96727e-06 0 0)
(2.96727e-06 0 0)
(2.96727e-06 0 0)
(2.96727e-06 0 0)
(2.96727e-06 0 0)
(2.96727e-06 0 0)
(2.96727e-06 0 0)
(2.96727e-06 0 0)
(2.96727e-06 0 0)
(2.96727e-06 0 0)
(2.96727e-06 0 0)
(2.96727e-06 0 0)
(2.96727e-06 0 0)
(2.96727e-06 0 0)
(2.96727e-06 0 0)
(2.96727e-06 0 0)
(2.96727e-06 0 0)
(2.96727e-06 0 0)
(2.96727e-06 0 0)
(2.96727e-06 0 0)
(2.96727e-06 0 0)
(2.96727e-06 0 0)
(2.96727e-06 0 0)
(2.96727e-06 0 0)
(2.96727e-06 0 0)
(2.96727e-06 0 0)
(2.96727e-06 0 0)
(2.96727e-06 0 0)
(2.96727e-06 0 0)
(2.96727e-06 0 0)
(2.96727e-06 0 0)
(2.96727e-06 0 0)
(2.96727e-06 0 0)
(2.96727e-06 0 0)
(2.96727e-06 0 0)
(2.96727e-06 0 0)
(2.96727e-06 0 0)
(2.96727e-06 0 0)
(2.96727e-06 0 0)
(2.96727e-06 0 0)
(2.96727e-06 0 0)
(2.96727e-06 0 0)
(2.96727e-06 0 0)
(2.96727e-06 0 0)
(2.96727e-06 0 0)
(2.96727e-06 0 0)
(2.96727e-06 0 0)
(2.96727e-06 0 0)
(2.96727e-06 0 0)
(2.96727e-06 0 0)
(2.96727e-06 0 0)
(2.96727e-06 0 0)
(2.96727e-06 0 0)
(2.96727e-06 0 0)
(2.96727e-06 0 0)
(2.96727e-06 0 0)
(2.96727e-06 0 0)
(2.96727e-06 0 0)
(2.96727e-06 0 0)
(2.96727e-06 0 0)
(2.96727e-06 0 0)
(2.96727e-06 0 0)
(2.96727e-06 0 0)
(2.96727e-06 0 0)
(2.96727e-06 0 0)
(2.96727e-06 0 0)
(2.96727e-06 0 0)
(2.96727e-06 0 0)
(2.96727e-06 0 0)
(2.96727e-06 0 0)
(2.96727e-06 0 0)
(2.96727e-06 0 0)
(2.96727e-06 0 0)
(2.96727e-06 0 0)
(2.96727e-06 0 0)
(2.96727e-06 0 0)
(2.96727e-06 0 0)
(2.96727e-06 0 0)
(2.96727e-06 0 0)
(2.96727e-06 0 0)
(2.96727e-06 0 0)
(2.96727e-06 0 0)
(2.96727e-06 0 0)
(2.96727e-06 0 0)
(2.96727e-06 0 0)
(2.96727e-06 0 0)
(2.96727e-06 0 0)
(2.96727e-06 0 0)
(2.96727e-06 0 0)
(2.96727e-06 0 0)
(2.96727e-06 0 0)
(2.96727e-06 0 0)
(2.96727e-06 0 0)
(2.96727e-06 0 0)
(2.96727e-06 0 0)
(2.96727e-06 0 0)
(2.96727e-06 0 0)
(2.96727e-06 0 0)
(2.96727e-06 0 0)
(2.96727e-06 0 0)
(2.96727e-06 0 0)
(2.96727e-06 0 0)
(2.96727e-06 0 0)
(2.96727e-06 0 0)
(2.96727e-06 0 0)
(2.96727e-06 0 0)
(2.96727e-06 0 0)
(2.96727e-06 0 0)
(2.96727e-06 0 0)
(2.96727e-06 0 0)
(2.96727e-06 0 0)
(2.96727e-06 0 0)
(2.96727e-06 0 0)
(2.96727e-06 0 0)
(2.96727e-06 0 0)
(2.96727e-06 0 0)
(2.96727e-06 0 0)
(2.96727e-06 0 0)
(2.96727e-06 0 0)
(2.96727e-06 0 0)
(2.96727e-06 0 0)
(2.96727e-06 0 0)
(2.96727e-06 0 0)
(2.96727e-06 0 0)
(2.96727e-06 0 0)
(2.96727e-06 0 0)
(2.96727e-06 0 0)
(2.96727e-06 0 0)
(2.96727e-06 0 0)
(2.96727e-06 0 0)
(2.96727e-06 0 0)
(2.96727e-06 0 0)
(2.96727e-06 0 0)
(2.96727e-06 0 0)
(2.96727e-06 0 0)
(2.96727e-06 0 0)
(2.96727e-06 0 0)
(2.96727e-06 0 0)
(2.96727e-06 0 0)
(2.96727e-06 0 0)
(2.96727e-06 0 0)
(2.96727e-06 0 0)
(2.96727e-06 0 0)
(2.96727e-06 0 0)
(2.96727e-06 0 0)
(2.96727e-06 0 0)
(2.96727e-06 0 0)
(2.96727e-06 0 0)
(2.96727e-06 0 0)
(2.96727e-06 0 0)
(2.96727e-06 0 0)
(2.96727e-06 0 0)
(2.96727e-06 0 0)
(2.96727e-06 0 0)
(2.96727e-06 0 0)
(2.96727e-06 0 0)
(2.96727e-06 0 0)
(2.96727e-06 0 0)
(2.96727e-06 0 0)
(2.96727e-06 0 0)
(2.96727e-06 0 0)
(2.96727e-06 0 0)
(2.96727e-06 0 0)
(2.96727e-06 0 0)
(2.96727e-06 0 0)
(2.96727e-06 0 0)
(2.96727e-06 0 0)
(2.96727e-06 0 0)
(2.96727e-06 0 0)
(2.96727e-06 0 0)
(2.96727e-06 0 0)
(2.96727e-06 0 0)
(2.96727e-06 0 0)
(2.96727e-06 0 0)
(2.96727e-06 0 0)
(2.96727e-06 0 0)
(2.96727e-06 0 0)
(2.96727e-06 0 0)
(2.96727e-06 0 0)
(2.96727e-06 0 0)
(2.96727e-06 0 0)
(2.96727e-06 0 0)
(2.96727e-06 0 0)
(2.96727e-06 0 0)
(2.96727e-06 0 0)
(2.96727e-06 0 0)
(2.96727e-06 0 0)
(2.96727e-06 0 0)
(2.96727e-06 0 0)
(2.96727e-06 0 0)
(2.96727e-06 0 0)
(2.96727e-06 0 0)
(2.96727e-06 0 0)
(2.96727e-06 0 0)
(2.96727e-06 0 0)
(2.96727e-06 0 0)
(2.96727e-06 0 0)
(2.96727e-06 0 0)
(2.96727e-06 0 0)
(2.96727e-06 0 0)
(2.96727e-06 0 0)
(2.96727e-06 0 0)
(2.96727e-06 0 0)
(2.96727e-06 0 0)
(2.96727e-06 0 0)
(2.96727e-06 0 0)
(2.96727e-06 0 0)
(2.96727e-06 0 0)
(2.96727e-06 0 0)
(2.96727e-06 0 0)
(2.96727e-06 0 0)
(2.96727e-06 0 0)
(2.96727e-06 0 0)
(2.96727e-06 0 0)
(2.96727e-06 0 0)
(2.96727e-06 0 0)
(2.96727e-06 0 0)
(2.96727e-06 0 0)
(2.96727e-06 0 0)
(2.96727e-06 0 0)
(2.96727e-06 0 0)
(2.96727e-06 0 0)
(2.96727e-06 0 0)
(2.96727e-06 0 0)
)
;

boundaryField
{
    inlet
    {
        type            fixedValue;
        value           uniform (1.13622e-05 0 0);
    }
    outlet
    {
        type            zeroGradient;
    }
    emptyWalls
    {
        type            empty;
    }
}


// ************************************************************************* //
