/*--------------------------------*- C++ -*----------------------------------*\
  =========                 |
  \\      /  F ield         | OpenFOAM: The Open Source CFD Toolbox
   \\    /   O peration     | Website:  https://openfoam.org
    \\  /    A nd           | Version:  9
     \\/     M anipulation  |
\*---------------------------------------------------------------------------*/
FoamFile
{
    format      ascii;
    class       volScalarField;
    location    "13900";
    object      krb;
}
// * * * * * * * * * * * * * * * * * * * * * * * * * * * * * * * * * * * * * //

dimensions      [0 0 0 0 0 0 0];

internalField   nonuniform List<scalar> 
1000
(
0.0979209
0.0986975
0.09944
0.100424
0.101166
0.102124
0.102935
0.103842
0.104687
0.105534
0.106323
0.107069
0.10773
0.108323
0.108837
0.10937
0.110281
0.113191
0.125318
0.223612
0.434128
0.48583
0.501615
0.50928
0.514096
0.517542
0.520195
0.522313
0.524039
0.525462
0.526637
0.527608
0.528409
0.529065
0.529599
0.530028
0.530359
0.530614
0.530784
0.530891
0.530919
0.530885
0.530775
0.530589
0.530325
0.52998
0.529545
0.529009
0.52835
0.527535
0.526511
0.52521
0.523555
0.521506
0.519098
0.516461
0.513698
0.510864
0.507994
0.505111
0.50223
0.499361
0.496511
0.493685
0.490882
0.488104
0.485351
0.482623
0.479923
0.477251
0.474609
0.471998
0.46942
0.466874
0.464362
0.461882
0.459436
0.457024
0.454648
0.452306
0.450001
0.447731
0.445495
0.443292
0.44112
0.438977
0.43686
0.434768
0.432698
0.430648
0.428618
0.426605
0.42461
0.422633
0.420671
0.418728
0.416801
0.414892
0.413001
0.411128
0.409273
0.407437
0.405619
0.40382
0.402039
0.400276
0.398531
0.396803
0.395092
0.393398
0.391721
0.390059
0.388414
0.386783
0.385168
0.383567
0.381981
0.380409
0.378851
0.377307
0.375776
0.374258
0.372754
0.371262
0.369782
0.368316
0.366861
0.365418
0.363988
0.362569
0.361161
0.359764
0.358379
0.357005
0.355641
0.354288
0.352946
0.351613
0.350291
0.348979
0.347677
0.346385
0.345102
0.343829
0.342565
0.34131
0.340064
0.338827
0.337599
0.33638
0.335169
0.333967
0.332773
0.331587
0.330409
0.32924
0.328078
0.326925
0.325779
0.32464
0.323509
0.322386
0.32127
0.320161
0.31906
0.317965
0.316877
0.315797
0.314723
0.313656
0.312596
0.311542
0.310495
0.309455
0.308421
0.307393
0.306371
0.305356
0.304346
0.303342
0.302345
0.301353
0.300367
0.299387
0.298412
0.297443
0.29648
0.295522
0.294569
0.293621
0.292678
0.29174
0.290806
0.289877
0.288953
0.288032
0.287116
0.286204
0.285295
0.284391
0.283491
0.282595
0.281704
0.280816
0.279933
0.279055
0.278182
0.277313
0.27645
0.275591
0.274739
0.273892
0.273051
0.272216
0.271386
0.270563
0.269746
0.268934
0.268128
0.267328
0.266533
0.265743
0.264957
0.264175
0.263398
0.262624
0.261853
0.261085
0.260321
0.259559
0.258799
0.258043
0.257288
0.256536
0.255787
0.25504
0.254295
0.253554
0.252815
0.252078
0.251345
0.250614
0.249886
0.249162
0.24844
0.247721
0.247005
0.246293
0.245583
0.244877
0.244173
0.243473
0.242775
0.24208
0.241389
0.2407
0.240014
0.239331
0.23865
0.237972
0.237297
0.236625
0.235955
0.235288
0.234624
0.233962
0.233302
0.232645
0.231991
0.231338
0.230689
0.230042
0.229397
0.228754
0.228114
0.227476
0.22684
0.226207
0.225576
0.224947
0.22432
0.223696
0.223073
0.222453
0.221835
0.221219
0.220605
0.219993
0.219384
0.218776
0.21817
0.217566
0.216965
0.216365
0.215767
0.215171
0.214577
0.213985
0.213395
0.212807
0.21222
0.211636
0.211053
0.210472
0.209893
0.209315
0.20874
0.208166
0.207594
0.207023
0.206454
0.205887
0.205322
0.204758
0.204196
0.203636
0.203077
0.20252
0.201964
0.20141
0.200858
0.200307
0.199758
0.19921
0.198664
0.198119
0.197576
0.197034
0.196494
0.195955
0.195418
0.194882
0.194347
0.193814
0.193283
0.192752
0.192223
0.191696
0.191169
0.190644
0.190121
0.189598
0.189077
0.188557
0.188038
0.18752
0.187003
0.186487
0.185972
0.185459
0.184946
0.184434
0.183923
0.183413
0.182905
0.182397
0.18189
0.181384
0.180879
0.180375
0.179872
0.17937
0.178869
0.17837
0.177871
0.177374
0.176878
0.176384
0.175891
0.175399
0.174909
0.174421
0.173934
0.173448
0.172964
0.172482
0.172001
0.171521
0.171043
0.170567
0.170092
0.169618
0.169145
0.168674
0.168203
0.167734
0.167265
0.166798
0.166331
0.165865
0.1654
0.164935
0.164471
0.164007
0.163544
0.163081
0.162619
0.162157
0.161696
0.161235
0.160775
0.160315
0.159855
0.159397
0.158938
0.15848
0.158023
0.157566
0.15711
0.156654
0.156199
0.155745
0.155291
0.154837
0.154384
0.153932
0.15348
0.153029
0.152579
0.152129
0.151679
0.15123
0.150782
0.150334
0.149886
0.149439
0.148993
0.148546
0.148101
0.147656
0.147211
0.146766
0.146322
0.145879
0.145435
0.144993
0.14455
0.144108
0.143666
0.143224
0.142783
0.142342
0.141902
0.141461
0.141021
0.140581
0.140141
0.139702
0.139262
0.138823
0.138384
0.137945
0.137507
0.137068
0.13663
0.136192
0.135753
0.135315
0.134877
0.134439
0.134002
0.133564
0.133126
0.132688
0.13225
0.131812
0.131374
0.130937
0.130499
0.13006
0.129622
0.129184
0.128746
0.128307
0.127869
0.12743
0.126991
0.126551
0.126112
0.125672
0.125233
0.124793
0.124352
0.123911
0.12347
0.123029
0.122588
0.122146
0.121703
0.121261
0.120818
0.120374
0.11993
0.119486
0.119042
0.118596
0.118151
0.117705
0.117259
0.116812
0.116365
0.115917
0.115469
0.11502
0.114571
0.114122
0.113673
0.113223
0.112773
0.112323
0.111873
0.111423
0.110973
0.110524
0.110075
0.109627
0.10918
0.108735
0.108292
0.107851
0.107413
0.106979
0.10655
0.106126
0.105709
0.105299
0.104899
0.104508
0.104129
0.103764
0.103413
0.103078
0.102761
0.102463
0.102185
0.101927
0.101691
0.101476
0.101283
0.10111
0.100958
0.100824
0.100708
0.100608
0.10052
0.10044
0.100364
0.100281
0.100179
0.100032
0.0997987
0.0994048
0.098723
0.0975402
0.0955162
0.0921613
0.0869026
0.0793613
0.0698505
0.0596816
0.0506361
0.0438786
0.0394931
0.0369129
0.0354844
0.0347207
0.0343202
0.0341124
0.0340051
0.03395
0.0339218
0.0339074
0.0339002
0.0338966
0.0338949
0.0338942
0.033894
0.033894
0.0338941
0.0338943
0.0338946
0.0338948
0.0338951
0.0338953
0.0338955
0.0338957
0.0338959
0.0338961
0.0338962
0.0338964
0.0338965
0.0338966
0.0338968
0.0338969
0.033897
0.033897
0.0338971
0.0338972
0.0338972
0.0338973
0.0338973
0.0338974
0.0338974
0.0338974
0.0338974
0.0338975
0.0338975
0.0338975
0.0338974
0.0338974
0.0338974
0.0338974
0.0338974
0.0338973
0.0338973
0.0338973
0.0338972
0.0338972
0.0338971
0.0338971
0.033897
0.033897
0.0338969
0.0338968
0.0338968
0.0338967
0.0338967
0.0338966
0.0338965
0.0338965
0.0338964
0.0338963
0.0338963
0.0338962
0.0338962
0.0338961
0.033896
0.033896
0.0338959
0.0338959
0.0338958
0.0338958
0.0338957
0.0338957
0.0338956
0.0338956
0.0338955
0.0338955
0.0338955
0.0338954
0.0338954
0.0338954
0.0338953
0.0338953
0.0338953
0.0338952
0.0338952
0.0338952
0.0338952
0.0338952
0.0338952
0.0338951
0.0338951
0.0338951
0.0338951
0.0338951
0.0338951
0.0338951
0.0338951
0.033895
0.033895
0.033895
0.033895
0.033895
0.033895
0.033895
0.033895
0.033895
0.033895
0.033895
0.033895
0.033895
0.033895
0.033895
0.033895
0.033895
0.033895
0.033895
0.033895
0.033895
0.033895
0.033895
0.033895
0.033895
0.033895
0.033895
0.033895
0.033895
0.033895
0.0338949
0.0338949
0.0338949
0.0338949
0.0338949
0.0338949
0.0338949
0.0338949
0.0338948
0.0338948
0.0338948
0.0338948
0.0338947
0.0338947
0.0338946
0.0338946
0.0338945
0.0338945
0.0338944
0.0338943
0.0338943
0.0338942
0.0338941
0.033894
0.0338939
0.0338937
0.0338936
0.0338935
0.0338933
0.0338932
0.033893
0.0338928
0.0338926
0.0338924
0.0338922
0.033892
0.0338918
0.0338916
0.0338913
0.0338911
0.0338908
0.0338906
0.0338903
0.03389
0.0338897
0.0338895
0.0338892
0.0338889
0.0338886
0.0338884
0.0338881
0.0338878
0.0338876
0.0338874
0.0338871
0.0338869
0.0338867
0.0338865
0.0338863
0.0338861
0.033886
0.0338859
0.0338858
0.0338857
0.0338856
0.0338856
0.0338856
0.0338856
0.0338856
0.0338856
0.0338856
0.0338857
0.0338858
0.0338859
0.0338861
0.0338862
0.0338864
0.0338866
0.0338868
0.033887
0.0338873
0.0338875
0.0338878
0.0338881
0.0338884
0.0338887
0.033889
0.0338893
0.0338896
0.0338899
0.0338902
0.0338905
0.0338908
0.0338911
0.0338914
0.0338916
0.0338919
0.0338921
0.0338923
0.0338925
0.0338927
0.0338929
0.033893
0.0338932
0.0338933
0.0338934
0.0338935
0.0338936
0.0338937
0.0338938
0.0338938
0.0338939
0.0338939
0.033894
0.033894
0.0338941
0.0338941
0.0338942
0.0338942
0.0338942
0.0338943
0.0338943
0.0338943
0.0338944
0.0338944
0.0338944
0.0338945
0.0338945
0.0338945
0.0338946
0.0338946
0.0338947
0.0338947
0.0338947
0.0338948
0.0338948
0.0338949
0.0338949
0.0338949
0.033895
0.033895
0.0338951
0.0338951
0.0338951
0.0338952
0.0338952
0.0338953
0.0338953
0.0338953
0.0338954
0.0338954
0.0338954
0.0338954
0.0338955
0.0338955
0.0338955
0.0338956
0.0338956
0.0338956
0.0338956
0.0338956
0.0338957
0.0338957
0.0338957
0.0338957
0.0338957
0.0338957
0.0338957
0.0338958
0.0338958
0.0338958
0.0338958
0.0338958
0.0338958
0.0338958
0.0338958
0.0338958
0.0338958
0.0338958
0.0338958
0.0338958
0.0338958
0.0338958
0.0338957
0.0338957
0.0338957
0.0338957
0.0338957
0.0338957
0.0338957
0.0338957
0.0338957
0.0338956
0.0338956
0.0338956
0.0338956
0.0338956
0.0338955
0.0338955
0.0338955
0.0338955
0.0338954
0.0338954
0.0338954
0.0338954
0.0338953
0.0338953
0.0338953
0.0338952
0.0338952
0.0338951
0.0338951
0.0338951
0.033895
0.033895
0.0338949
0.0338949
0.0338948
0.0338947
0.0338947
0.0338946
0.0338946
0.0338945
0.0338944
0.0338943
0.0338942
0.0338941
0.0338941
0.0338939
0.0338938
0.0338937
0.0338936
0.0338935
0.0338933
0.0338932
0.0338931
0.0338929
0.0338927
0.0338926
0.0338924
0.0338922
0.033892
0.0338918
0.0338916
0.0338914
0.0338912
0.033891
0.0338908
0.0338905
0.0338903
0.0338901
0.0338898
0.0338896
0.0338894
0.0338891
0.0338889
0.0338887
0.0338884
0.0338882
0.033888
0.0338878
0.0338876
0.0338874
0.0338873
0.0338871
0.0338869
0.0338868
0.0338867
0.0338866
0.0338865
0.0338864
0.0338863
0.0338863
0.0338863
0.0338863
0.0338863
0.0338863
0.0338863
0.0338864
0.0338865
0.0338866
0.0338868
0.0338869
0.0338871
0.0338873
0.0338875
0.0338877
0.0338879
0.0338881
0.0338883
0.0338886
0.0338888
0.0338891
0.0338893
0.0338896
0.0338897
0.0338901
0.0338902
0.0338905
0.0338906
0.033891
)
;

boundaryField
{
    inlet
    {
        type            calculated;
        value           uniform 0.0976562;
    }
    outlet
    {
        type            calculated;
        value           uniform 0.033891;
    }
    emptyWalls
    {
        type            empty;
    }
}


// ************************************************************************* //
