/*--------------------------------*- C++ -*----------------------------------*\
  =========                 |
  \\      /  F ield         | OpenFOAM: The Open Source CFD Toolbox
   \\    /   O peration     | Website:  https://openfoam.org
    \\  /    A nd           | Version:  9
     \\/     M anipulation  |
\*---------------------------------------------------------------------------*/
FoamFile
{
    format      ascii;
    class       volScalarField;
    location    "13900";
    object      krc;
}
// * * * * * * * * * * * * * * * * * * * * * * * * * * * * * * * * * * * * * //

dimensions      [0 0 0 0 0 0 0];

internalField   nonuniform List<scalar> 
1000
(
2.54204e-07
2.50988e-06
8.81529e-06
1.85758e-05
3.1724e-05
4.8234e-05
6.80017e-05
9.07663e-05
0.000116052
0.000143121
0.000171026
0.000198687
0.00022509
0.000249507
0.000272025
0.00029581
0.000338897
0.000489612
0.0013004
0.011486
0.0362193
0.0434879
0.0461583
0.0476356
0.0486658
0.0494779
0.0501632
0.0507647
0.0513051
0.0517983
0.0522521
0.0526741
0.0530681
0.05344
0.0537928
0.0541312
0.0544574
0.0547755
0.0550866
0.0553948
0.0557008
0.056012
0.0563339
0.0566604
0.0569927
0.057333
0.0576851
0.0580547
0.0584501
0.0588837
0.0593726
0.0599378
0.0605995
0.0613691
0.0622408
0.0631928
0.0642003
0.0652449
0.0663144
0.0674007
0.0684981
0.0696029
0.0707122
0.071824
0.0729369
0.0740497
0.0751615
0.0762719
0.0773801
0.078486
0.0795891
0.0806894
0.0817866
0.0828805
0.083971
0.0850581
0.0861418
0.0872219
0.0882984
0.0893714
0.0904408
0.0915066
0.0925688
0.0936274
0.0946824
0.0957337
0.0967814
0.0978255
0.0988658
0.0999025
0.100935
0.101965
0.10299
0.104012
0.10503
0.106045
0.107056
0.108064
0.109068
0.110068
0.111065
0.112058
0.113049
0.114035
0.115019
0.115999
0.116976
0.117949
0.11892
0.119887
0.120851
0.121812
0.122769
0.123724
0.124676
0.125624
0.126569
0.127512
0.128451
0.129388
0.130321
0.131252
0.13218
0.133105
0.134027
0.134946
0.135863
0.136776
0.137687
0.138596
0.139501
0.140404
0.141304
0.142202
0.143097
0.14399
0.14488
0.145767
0.146652
0.147535
0.148415
0.149292
0.150167
0.15104
0.15191
0.152779
0.153644
0.154508
0.155369
0.156228
0.157084
0.157939
0.158791
0.159641
0.160489
0.161334
0.162178
0.163019
0.163858
0.164696
0.165531
0.166364
0.167195
0.168024
0.168851
0.169677
0.1705
0.171321
0.17214
0.172958
0.173774
0.174587
0.175399
0.176209
0.177018
0.177824
0.178629
0.179432
0.180233
0.181032
0.18183
0.182626
0.183421
0.184213
0.185004
0.185794
0.186581
0.187368
0.188152
0.188935
0.189716
0.190496
0.191274
0.192051
0.192826
0.193599
0.194371
0.195141
0.19591
0.196677
0.197443
0.198207
0.19897
0.199731
0.200491
0.201249
0.202007
0.202762
0.203517
0.20427
0.205022
0.205773
0.206523
0.207272
0.20802
0.208766
0.209512
0.210256
0.211
0.211743
0.212484
0.213225
0.213964
0.214703
0.21544
0.216176
0.216912
0.217646
0.218379
0.21911
0.219841
0.220571
0.221299
0.222026
0.222752
0.223477
0.224201
0.224924
0.225646
0.226366
0.227086
0.227805
0.228523
0.229239
0.229955
0.23067
0.231384
0.232098
0.23281
0.233521
0.234232
0.234942
0.235651
0.236359
0.237067
0.237773
0.238479
0.239184
0.239888
0.240592
0.241294
0.241996
0.242698
0.243398
0.244098
0.244797
0.245495
0.246193
0.24689
0.247587
0.248282
0.248977
0.249672
0.250365
0.251058
0.251751
0.252443
0.253134
0.253824
0.254514
0.255204
0.255893
0.256581
0.257269
0.257956
0.258643
0.259329
0.260014
0.260699
0.261384
0.262068
0.262752
0.263435
0.264117
0.2648
0.265481
0.266163
0.266843
0.267524
0.268204
0.268883
0.269563
0.270241
0.27092
0.271598
0.272275
0.272953
0.27363
0.274306
0.274982
0.275658
0.276334
0.277009
0.277684
0.278359
0.279033
0.279707
0.280381
0.281055
0.281728
0.282401
0.283074
0.283747
0.284419
0.285091
0.285763
0.286435
0.287107
0.287778
0.28845
0.289121
0.289792
0.290463
0.291133
0.291804
0.292474
0.293145
0.293815
0.294485
0.295156
0.295826
0.296495
0.297165
0.297835
0.298505
0.299174
0.299844
0.300513
0.301183
0.301852
0.302521
0.303191
0.30386
0.304529
0.305198
0.305867
0.306536
0.307205
0.307874
0.308543
0.309213
0.309882
0.310551
0.311221
0.311891
0.312561
0.313231
0.313901
0.314572
0.315244
0.315915
0.316587
0.31726
0.317933
0.318606
0.31928
0.319955
0.32063
0.321306
0.321982
0.322659
0.323336
0.324014
0.324692
0.325371
0.326051
0.326731
0.327411
0.328092
0.328773
0.329455
0.330137
0.33082
0.331503
0.332186
0.33287
0.333554
0.334239
0.334924
0.33561
0.336296
0.336983
0.33767
0.338358
0.339046
0.339735
0.340424
0.341115
0.341805
0.342497
0.343189
0.343882
0.344576
0.345271
0.345966
0.346662
0.347359
0.348057
0.348756
0.349455
0.350156
0.350857
0.35156
0.352263
0.352968
0.353673
0.35438
0.355087
0.355796
0.356505
0.357216
0.357928
0.358641
0.359355
0.36007
0.360787
0.361505
0.362223
0.362944
0.363665
0.364388
0.365112
0.365837
0.366564
0.367292
0.368022
0.368753
0.369486
0.37022
0.370955
0.371692
0.372431
0.373171
0.373913
0.374656
0.375401
0.376148
0.376897
0.377647
0.378399
0.379153
0.379909
0.380667
0.381426
0.382188
0.382952
0.383717
0.384485
0.385254
0.386026
0.3868
0.387576
0.388355
0.389135
0.389918
0.390703
0.391491
0.392281
0.393074
0.393869
0.394666
0.395466
0.396269
0.397075
0.397883
0.398694
0.399508
0.400324
0.401144
0.401966
0.402792
0.40362
0.404452
0.405286
0.406124
0.406965
0.407809
0.408656
0.409507
0.41036
0.411218
0.412078
0.412942
0.413808
0.414679
0.415552
0.416429
0.417308
0.418191
0.419076
0.419964
0.420855
0.421747
0.422642
0.423538
0.424435
0.425332
0.426228
0.427123
0.428015
0.428904
0.429788
0.430665
0.431532
0.432389
0.433232
0.434058
0.434866
0.435651
0.43641
0.43714
0.437837
0.438499
0.439122
0.439705
0.440245
0.44074
0.44119
0.441595
0.441956
0.442274
0.442553
0.442795
0.443004
0.443186
0.44335
0.443508
0.443679
0.443894
0.444204
0.444701
0.445546
0.447017
0.449591
0.454049
0.461593
0.473822
0.492299
0.517405
0.546923
0.576077
0.600099
0.61695
0.627411
0.633396
0.636659
0.638389
0.639295
0.639766
0.640011
0.64014
0.640209
0.640246
0.640268
0.640282
0.640291
0.640298
0.640304
0.640309
0.640314
0.640318
0.640322
0.640326
0.64033
0.640333
0.640337
0.64034
0.640342
0.640345
0.640347
0.64035
0.640352
0.640353
0.640355
0.640356
0.640358
0.640359
0.64036
0.640361
0.640362
0.640363
0.640364
0.640365
0.640366
0.640367
0.640368
0.640368
0.640369
0.64037
0.640371
0.640372
0.640373
0.640374
0.640375
0.640376
0.640377
0.640379
0.64038
0.640381
0.640382
0.640384
0.640385
0.640386
0.640388
0.640389
0.640391
0.640392
0.640394
0.640395
0.640397
0.640398
0.6404
0.640401
0.640403
0.640404
0.640405
0.640407
0.640408
0.640409
0.640411
0.640412
0.640413
0.640415
0.640416
0.640417
0.640418
0.640419
0.64042
0.640422
0.640423
0.640424
0.640425
0.640425
0.640426
0.640427
0.640428
0.640429
0.640429
0.64043
0.640431
0.640431
0.640432
0.640432
0.640433
0.640433
0.640434
0.640434
0.640434
0.640435
0.640435
0.640435
0.640435
0.640435
0.640435
0.640435
0.640435
0.640435
0.640435
0.640435
0.640435
0.640435
0.640435
0.640434
0.640434
0.640434
0.640433
0.640433
0.640433
0.640432
0.640432
0.640431
0.64043
0.64043
0.640429
0.640429
0.640428
0.640427
0.640427
0.640426
0.640425
0.640424
0.640423
0.640423
0.640422
0.640421
0.64042
0.640419
0.640418
0.640417
0.640416
0.640415
0.640414
0.640413
0.640412
0.64041
0.640409
0.640408
0.640406
0.640405
0.640403
0.640401
0.640399
0.640398
0.640396
0.640393
0.640391
0.640389
0.640386
0.640384
0.640381
0.640378
0.640375
0.640372
0.640368
0.640365
0.640361
0.640358
0.640354
0.64035
0.640346
0.640342
0.640337
0.640333
0.640329
0.640324
0.64032
0.640316
0.640311
0.640307
0.640303
0.640298
0.640294
0.64029
0.640287
0.640283
0.64028
0.640277
0.640274
0.640272
0.64027
0.640268
0.640267
0.640265
0.640265
0.640264
0.640264
0.640265
0.640265
0.640266
0.640267
0.640269
0.640271
0.640274
0.640277
0.64028
0.640283
0.640287
0.640291
0.640295
0.640299
0.640303
0.640307
0.640311
0.640315
0.640319
0.640323
0.640326
0.64033
0.640334
0.640337
0.64034
0.640344
0.640347
0.640349
0.640352
0.640355
0.640357
0.640359
0.640361
0.640363
0.640365
0.640367
0.640369
0.64037
0.640372
0.640373
0.640374
0.640376
0.640377
0.640378
0.640379
0.64038
0.640381
0.640382
0.640383
0.640384
0.640385
0.640386
0.640387
0.640388
0.640389
0.64039
0.640391
0.640392
0.640393
0.640394
0.640395
0.640396
0.640397
0.640398
0.640399
0.6404
0.640401
0.640402
0.640403
0.640403
0.640404
0.640405
0.640406
0.640407
0.640408
0.640409
0.64041
0.640411
0.640412
0.640412
0.640413
0.640414
0.640415
0.640416
0.640416
0.640417
0.640418
0.640418
0.640419
0.64042
0.64042
0.640421
0.640421
0.640422
0.640422
0.640423
0.640423
0.640424
0.640424
0.640425
0.640425
0.640425
0.640426
0.640426
0.640426
0.640426
0.640427
0.640427
0.640427
0.640427
0.640427
0.640427
0.640427
0.640427
0.640427
0.640427
0.640427
0.640427
0.640427
0.640427
0.640427
0.640427
0.640426
0.640426
0.640426
0.640426
0.640425
0.640425
0.640425
0.640424
0.640424
0.640424
0.640423
0.640423
0.640422
0.640422
0.640421
0.640421
0.64042
0.640419
0.640419
0.640418
0.640418
0.640417
0.640416
0.640415
0.640415
0.640414
0.640413
0.640412
0.640411
0.64041
0.640409
0.640408
0.640407
0.640406
0.640404
0.640403
0.640402
0.6404
0.640399
0.640397
0.640395
0.640393
0.640391
0.640389
0.640387
0.640385
0.640382
0.64038
0.640377
0.640375
0.640372
0.640369
0.640366
0.640363
0.640359
0.640356
0.640352
0.640349
0.640345
0.640342
0.640338
0.640334
0.64033
0.640327
0.640323
0.640319
0.640315
0.640312
0.640308
0.640305
0.640301
0.640298
0.640295
0.640292
0.640289
0.640287
0.640284
0.640282
0.640281
0.640279
0.640278
0.640277
0.640276
0.640275
0.640275
0.640275
0.640275
0.640276
0.640276
0.640277
0.640279
0.640281
0.640283
0.640285
0.640288
0.640291
0.640294
0.640297
0.6403
0.640303
0.640306
0.64031
0.640313
0.640317
0.64032
0.640324
0.640327
0.640331
0.640333
0.640338
0.64034
0.640344
)
;

boundaryField
{
    inlet
    {
        type            calculated;
        value           uniform 3.08149e-33;
    }
    outlet
    {
        type            calculated;
        value           uniform 0.640344;
    }
    emptyWalls
    {
        type            empty;
    }
}


// ************************************************************************* //
