/*--------------------------------*- C++ -*----------------------------------*\
  =========                 |
  \\      /  F ield         | OpenFOAM: The Open Source CFD Toolbox
   \\    /   O peration     | Website:  https://openfoam.org
    \\  /    A nd           | Version:  9
     \\/     M anipulation  |
\*---------------------------------------------------------------------------*/
FoamFile
{
    format      ascii;
    class       surfaceScalarField;
    location    "2900";
    object      phib;
}
// * * * * * * * * * * * * * * * * * * * * * * * * * * * * * * * * * * * * * //

dimensions      [0 2 0 0 0 0 0];

internalField   nonuniform List<scalar> 
999
(
1.13646e-09
1.13711e-09
1.13988e-09
1.16499e-09
1.179e-09
1.18016e-09
1.18008e-09
1.17999e-09
1.17971e-09
1.17893e-09
1.17683e-09
1.17418e-09
1.17127e-09
1.16818e-09
1.16497e-09
1.16166e-09
1.15827e-09
1.15482e-09
1.15132e-09
1.14776e-09
1.14416e-09
1.1405e-09
1.13681e-09
1.13307e-09
1.1293e-09
1.1255e-09
1.12166e-09
1.1178e-09
1.11391e-09
1.11e-09
1.10605e-09
1.10208e-09
1.09808e-09
1.09405e-09
1.08999e-09
1.08591e-09
1.0818e-09
1.07766e-09
1.0735e-09
1.06931e-09
1.0651e-09
1.06086e-09
1.0566e-09
1.05232e-09
1.04801e-09
1.04367e-09
1.03931e-09
1.03492e-09
1.03051e-09
1.02607e-09
1.02161e-09
1.01712e-09
1.0126e-09
1.00805e-09
1.00348e-09
9.98872e-10
9.94239e-10
9.89576e-10
9.84882e-10
9.80156e-10
9.75397e-10
9.70603e-10
9.65774e-10
9.6091e-10
9.56007e-10
9.51066e-10
9.46086e-10
9.41064e-10
9.36e-10
9.30893e-10
9.25741e-10
9.20543e-10
9.15298e-10
9.10005e-10
9.04661e-10
8.99265e-10
8.93815e-10
8.8831e-10
8.82747e-10
8.77124e-10
8.71438e-10
8.65688e-10
8.5987e-10
8.53986e-10
8.48028e-10
8.41999e-10
8.3589e-10
8.29707e-10
8.23436e-10
8.17084e-10
8.1064e-10
8.04103e-10
7.97473e-10
7.90736e-10
7.83904e-10
7.76953e-10
7.69902e-10
7.62728e-10
7.55444e-10
7.48044e-10
7.40526e-10
7.32914e-10
7.252e-10
7.17426e-10
7.09603e-10
7.01755e-10
6.93897e-10
6.85949e-10
6.7775e-10
6.6885e-10
6.58384e-10
6.44796e-10
6.25539e-10
5.97173e-10
5.563e-10
5.02196e-10
4.39954e-10
3.7997e-10
3.31941e-10
2.99247e-10
2.79515e-10
2.68509e-10
2.62652e-10
2.59613e-10
2.5806e-10
2.57269e-10
2.56864e-10
2.56654e-10
2.56539e-10
2.56467e-10
2.56416e-10
2.56372e-10
2.56332e-10
2.56291e-10
2.56247e-10
2.562e-10
2.5615e-10
2.56098e-10
2.56043e-10
2.55986e-10
2.55927e-10
2.55868e-10
2.55809e-10
2.5575e-10
2.55692e-10
2.55637e-10
2.55584e-10
2.55536e-10
2.55493e-10
2.55457e-10
2.55429e-10
2.5541e-10
2.55402e-10
2.554e-10
2.554e-10
2.55407e-10
2.55436e-10
2.55481e-10
2.55536e-10
2.55602e-10
2.55677e-10
2.55759e-10
2.55847e-10
2.55939e-10
2.56033e-10
2.56127e-10
2.56219e-10
2.56307e-10
2.5639e-10
2.56465e-10
2.56532e-10
2.56591e-10
2.5664e-10
2.56679e-10
2.5671e-10
2.56732e-10
2.56746e-10
2.56754e-10
2.56756e-10
2.56756e-10
2.56755e-10
2.56744e-10
2.56727e-10
2.56709e-10
2.5669e-10
2.56671e-10
2.56652e-10
2.56633e-10
2.56615e-10
2.56599e-10
2.56583e-10
2.56569e-10
2.56557e-10
2.56546e-10
2.56537e-10
2.5653e-10
2.56524e-10
2.56519e-10
2.56515e-10
2.56513e-10
2.56512e-10
2.56511e-10
2.5651e-10
2.5651e-10
2.56511e-10
2.56513e-10
2.56515e-10
2.56518e-10
2.5652e-10
2.56523e-10
2.56526e-10
2.5653e-10
2.56533e-10
2.56536e-10
2.5654e-10
2.56543e-10
2.56547e-10
2.5655e-10
2.56554e-10
2.56558e-10
2.56562e-10
2.56566e-10
2.56569e-10
2.56573e-10
2.56577e-10
2.5658e-10
2.56584e-10
2.56587e-10
2.56591e-10
2.56594e-10
2.56597e-10
2.566e-10
2.56604e-10
2.56607e-10
2.5661e-10
2.56613e-10
2.56615e-10
2.56618e-10
2.5662e-10
2.56622e-10
2.56625e-10
2.56627e-10
2.56629e-10
2.56631e-10
2.56632e-10
2.56634e-10
2.56635e-10
2.56636e-10
2.56637e-10
2.56637e-10
2.56638e-10
2.56638e-10
2.56638e-10
2.56637e-10
2.56637e-10
2.56636e-10
2.56634e-10
2.56632e-10
2.5663e-10
2.56627e-10
2.56624e-10
2.56621e-10
2.56618e-10
2.56614e-10
2.56611e-10
2.56607e-10
2.56603e-10
2.56599e-10
2.56594e-10
2.5659e-10
2.56586e-10
2.56583e-10
2.56579e-10
2.56575e-10
2.56572e-10
2.56568e-10
2.56565e-10
2.56563e-10
2.5656e-10
2.56559e-10
2.56557e-10
2.56555e-10
2.56554e-10
2.56554e-10
2.56554e-10
2.56554e-10
2.56554e-10
2.56555e-10
2.56556e-10
2.56558e-10
2.5656e-10
2.56563e-10
2.56565e-10
2.56569e-10
2.56572e-10
2.56575e-10
2.56579e-10
2.56583e-10
2.56587e-10
2.5659e-10
2.56594e-10
2.56597e-10
2.566e-10
2.56603e-10
2.56606e-10
2.56608e-10
2.56611e-10
2.56612e-10
2.56614e-10
2.56615e-10
2.56615e-10
2.56615e-10
2.56615e-10
2.56615e-10
2.56614e-10
2.56613e-10
2.56611e-10
2.56609e-10
2.56606e-10
2.56603e-10
2.56599e-10
2.56594e-10
2.5659e-10
2.56584e-10
2.56578e-10
2.56572e-10
2.56564e-10
2.56556e-10
2.56547e-10
2.56537e-10
2.56525e-10
2.56512e-10
2.56498e-10
2.56482e-10
2.56465e-10
2.56446e-10
2.56425e-10
2.56403e-10
2.56379e-10
2.56352e-10
2.56324e-10
2.56293e-10
2.56261e-10
2.56227e-10
2.56192e-10
2.56155e-10
2.56116e-10
2.56076e-10
2.56036e-10
2.55995e-10
2.55954e-10
2.55914e-10
2.55874e-10
2.55836e-10
2.558e-10
2.55767e-10
2.55736e-10
2.5571e-10
2.5569e-10
2.55675e-10
2.55667e-10
2.55664e-10
2.55663e-10
2.55664e-10
2.55673e-10
2.55707e-10
2.55747e-10
2.55797e-10
2.55857e-10
2.55925e-10
2.56e-10
2.56083e-10
2.56171e-10
2.56262e-10
2.56356e-10
2.56449e-10
2.56542e-10
2.56631e-10
2.56716e-10
2.56796e-10
2.56869e-10
2.56935e-10
2.56993e-10
2.57043e-10
2.57085e-10
2.57119e-10
2.57145e-10
2.57164e-10
2.57176e-10
2.57182e-10
2.57184e-10
2.57184e-10
2.57181e-10
2.57168e-10
2.57151e-10
2.57132e-10
2.57112e-10
2.5709e-10
2.57067e-10
2.57044e-10
2.57022e-10
2.57e-10
2.56978e-10
2.56958e-10
2.56939e-10
2.56921e-10
2.56904e-10
2.5689e-10
2.56876e-10
2.56865e-10
2.56855e-10
2.56846e-10
2.56838e-10
2.56831e-10
2.56825e-10
2.56821e-10
2.56817e-10
2.56814e-10
2.56813e-10
2.56811e-10
2.5681e-10
2.5681e-10
2.56809e-10
2.56809e-10
2.56809e-10
2.56809e-10
2.5681e-10
2.56811e-10
2.56812e-10
2.56813e-10
2.56814e-10
2.56815e-10
2.56816e-10
2.56817e-10
2.56818e-10
2.56819e-10
2.56821e-10
2.56822e-10
2.56824e-10
2.56826e-10
2.56829e-10
2.56831e-10
2.56834e-10
2.56837e-10
2.5684e-10
2.56843e-10
2.56847e-10
2.56851e-10
2.56856e-10
2.5686e-10
2.56866e-10
2.56871e-10
2.56876e-10
2.56882e-10
2.56888e-10
2.56895e-10
2.56902e-10
2.56909e-10
2.56916e-10
2.56923e-10
2.56931e-10
2.56938e-10
2.56946e-10
2.56954e-10
2.56961e-10
2.56969e-10
2.56977e-10
2.56985e-10
2.56993e-10
2.57e-10
2.57007e-10
2.57014e-10
2.5702e-10
2.57025e-10
2.57031e-10
2.57036e-10
2.5704e-10
2.57043e-10
2.57049e-10
2.57065e-10
2.57265e-10
2.58023e-10
2.6207e-10
2.92193e-10
2.96666e-10
2.96724e-10
2.96727e-10
2.96727e-10
2.96727e-10
2.96727e-10
2.96727e-10
2.96727e-10
2.96727e-10
2.96727e-10
2.96727e-10
2.96727e-10
2.96727e-10
2.96727e-10
2.96727e-10
2.96727e-10
2.96727e-10
2.96727e-10
2.96727e-10
2.96727e-10
2.96727e-10
2.96727e-10
2.96727e-10
2.96727e-10
2.96727e-10
2.96727e-10
2.96727e-10
2.96727e-10
2.96727e-10
2.96727e-10
2.96727e-10
2.96727e-10
2.96727e-10
2.96727e-10
2.96727e-10
2.96727e-10
2.96727e-10
2.96727e-10
2.96727e-10
2.96727e-10
2.96727e-10
2.96727e-10
2.96727e-10
2.96727e-10
2.96727e-10
2.96727e-10
2.96727e-10
2.96727e-10
2.96727e-10
2.96727e-10
2.96727e-10
2.96727e-10
2.96727e-10
2.96727e-10
2.96727e-10
2.96727e-10
2.96727e-10
2.96727e-10
2.96727e-10
2.96727e-10
2.96727e-10
2.96727e-10
2.96727e-10
2.96727e-10
2.96727e-10
2.96727e-10
2.96727e-10
2.96727e-10
2.96727e-10
2.96727e-10
2.96727e-10
2.96727e-10
2.96727e-10
2.96727e-10
2.96727e-10
2.96727e-10
2.96727e-10
2.96727e-10
2.96727e-10
2.96727e-10
2.96727e-10
2.96727e-10
2.96727e-10
2.96727e-10
2.96727e-10
2.96727e-10
2.96727e-10
2.96727e-10
2.96727e-10
2.96727e-10
2.96727e-10
2.96727e-10
2.96727e-10
2.96727e-10
2.96727e-10
2.96727e-10
2.96727e-10
2.96727e-10
2.96727e-10
2.96727e-10
2.96727e-10
2.96727e-10
2.96727e-10
2.96727e-10
2.96727e-10
2.96727e-10
2.96727e-10
2.96727e-10
2.96727e-10
2.96727e-10
2.96727e-10
2.96727e-10
2.96727e-10
2.96727e-10
2.96727e-10
2.96727e-10
2.96727e-10
2.96727e-10
2.96727e-10
2.96727e-10
2.96727e-10
2.96727e-10
2.96727e-10
2.96727e-10
2.96727e-10
2.96727e-10
2.96727e-10
2.96727e-10
2.96727e-10
2.96727e-10
2.96727e-10
2.96727e-10
2.96727e-10
2.96727e-10
2.96727e-10
2.96727e-10
2.96727e-10
2.96727e-10
2.96727e-10
2.96727e-10
2.96727e-10
2.96727e-10
2.96727e-10
2.96727e-10
2.96727e-10
2.96727e-10
2.96727e-10
2.96727e-10
2.96727e-10
2.96727e-10
2.96727e-10
2.96727e-10
2.96727e-10
2.96727e-10
2.96727e-10
2.96727e-10
2.96727e-10
2.96727e-10
2.96727e-10
2.96727e-10
2.96727e-10
2.96727e-10
2.96727e-10
2.96727e-10
2.96727e-10
2.96727e-10
2.96727e-10
2.96727e-10
2.96727e-10
2.96727e-10
2.96727e-10
2.96727e-10
2.96727e-10
2.96727e-10
2.96727e-10
2.96727e-10
2.96727e-10
2.96727e-10
2.96727e-10
2.96727e-10
2.96727e-10
2.96727e-10
2.96727e-10
2.96727e-10
2.96727e-10
2.96727e-10
2.96727e-10
2.96727e-10
2.96727e-10
2.96727e-10
2.96727e-10
2.96727e-10
2.96727e-10
2.96727e-10
2.96727e-10
2.96727e-10
2.96727e-10
2.96727e-10
2.96727e-10
2.96727e-10
2.96727e-10
2.96727e-10
2.96727e-10
2.96727e-10
2.96727e-10
2.96727e-10
2.96727e-10
2.96727e-10
2.96727e-10
2.96727e-10
2.96727e-10
2.96727e-10
2.96727e-10
2.96727e-10
2.96727e-10
2.96727e-10
2.96727e-10
2.96727e-10
2.96727e-10
2.96727e-10
2.96727e-10
2.96727e-10
2.96727e-10
2.96727e-10
2.96727e-10
2.96727e-10
2.96727e-10
2.96727e-10
2.96727e-10
2.96727e-10
2.96727e-10
2.96727e-10
2.96727e-10
2.96727e-10
2.96727e-10
2.96727e-10
2.96727e-10
2.96727e-10
2.96727e-10
2.96727e-10
2.96727e-10
2.96727e-10
2.96727e-10
2.96727e-10
2.96727e-10
2.96727e-10
2.96727e-10
2.96727e-10
2.96727e-10
2.96727e-10
2.96727e-10
2.96727e-10
2.96727e-10
2.96727e-10
2.96727e-10
2.96727e-10
2.96727e-10
2.96727e-10
2.96727e-10
2.96727e-10
2.96727e-10
2.96727e-10
2.96727e-10
2.96727e-10
2.96727e-10
2.96727e-10
2.96727e-10
2.96727e-10
2.96727e-10
2.96727e-10
2.96727e-10
2.96727e-10
2.96727e-10
2.96727e-10
2.96727e-10
2.96727e-10
2.96727e-10
2.96727e-10
2.96727e-10
2.96727e-10
2.96727e-10
2.96727e-10
2.96727e-10
2.96727e-10
2.96727e-10
2.96727e-10
2.96727e-10
2.96727e-10
2.96727e-10
2.96727e-10
2.96727e-10
2.96727e-10
2.96727e-10
2.96727e-10
2.96727e-10
2.96727e-10
2.96727e-10
2.96727e-10
2.96727e-10
2.96727e-10
2.96727e-10
2.96727e-10
2.96727e-10
2.96727e-10
2.96727e-10
2.96727e-10
2.96727e-10
2.96727e-10
2.96727e-10
2.96727e-10
2.96727e-10
2.96727e-10
2.96727e-10
2.96727e-10
2.96727e-10
2.96727e-10
2.96727e-10
2.96727e-10
2.96727e-10
2.96727e-10
2.96727e-10
2.96727e-10
2.96727e-10
2.96727e-10
2.96727e-10
2.96727e-10
2.96727e-10
2.96727e-10
2.96727e-10
2.96727e-10
2.96727e-10
2.96727e-10
2.96727e-10
2.96727e-10
2.96727e-10
2.96727e-10
2.96727e-10
2.96727e-10
2.96727e-10
2.96727e-10
2.96727e-10
2.96727e-10
2.96727e-10
2.96727e-10
2.96727e-10
2.96727e-10
2.96727e-10
2.96727e-10
2.96727e-10
2.96727e-10
2.96727e-10
2.96727e-10
2.96727e-10
2.96727e-10
2.96727e-10
2.96727e-10
2.96727e-10
2.96727e-10
2.96727e-10
2.96727e-10
2.96727e-10
2.96727e-10
2.96727e-10
2.96727e-10
2.96727e-10
2.96727e-10
2.96727e-10
2.96727e-10
2.96727e-10
2.96727e-10
2.96727e-10
2.96727e-10
2.96727e-10
2.96727e-10
2.96727e-10
2.96727e-10
2.96727e-10
2.96727e-10
2.96727e-10
2.96727e-10
2.96727e-10
2.96727e-10
2.96727e-10
2.96727e-10
2.96727e-10
2.96727e-10
2.96727e-10
2.96727e-10
2.96727e-10
2.96727e-10
2.96727e-10
2.96727e-10
2.96727e-10
2.96727e-10
2.96727e-10
2.96727e-10
2.96727e-10
2.96727e-10
2.96727e-10
2.96727e-10
2.96727e-10
2.96727e-10
2.96727e-10
2.96727e-10
2.96727e-10
2.96727e-10
2.96727e-10
2.96727e-10
2.96727e-10
2.96727e-10
2.96727e-10
2.96727e-10
2.96727e-10
2.96727e-10
2.96727e-10
2.96727e-10
2.96727e-10
2.96727e-10
2.96727e-10
2.96727e-10
2.96727e-10
2.96727e-10
2.96727e-10
2.96727e-10
2.96727e-10
2.96727e-10
2.96727e-10
2.96727e-10
2.96727e-10
2.96727e-10
2.96727e-10
2.96727e-10
2.96727e-10
2.96727e-10
2.96727e-10
2.96727e-10
2.96727e-10
2.96727e-10
2.96727e-10
2.96727e-10
2.96727e-10
2.96727e-10
2.96727e-10
2.96727e-10
2.96727e-10
2.96727e-10
2.96727e-10
2.96727e-10
2.96727e-10
2.96727e-10
2.96727e-10
2.96727e-10
2.96727e-10
2.96727e-10
2.96727e-10
2.96727e-10
2.96727e-10
2.96727e-10
2.96727e-10
2.96727e-10
2.96727e-10
2.96727e-10
2.96727e-10
2.96727e-10
2.96727e-10
2.96727e-10
2.96727e-10
2.96727e-10
2.96727e-10
2.96727e-10
2.96727e-10
2.96727e-10
2.96727e-10
2.96727e-10
2.96727e-10
2.96727e-10
2.96727e-10
2.96727e-10
2.96727e-10
2.96727e-10
2.96727e-10
2.96727e-10
2.96727e-10
2.96727e-10
2.96727e-10
2.96727e-10
2.96727e-10
2.96727e-10
2.96727e-10
2.96727e-10
2.96727e-10
2.96727e-10
2.96727e-10
2.96727e-10
2.96727e-10
2.96727e-10
2.96727e-10
2.96727e-10
2.96727e-10
2.96727e-10
2.96727e-10
2.96727e-10
2.96727e-10
2.96727e-10
2.96727e-10
2.96727e-10
2.96727e-10
2.96727e-10
2.96727e-10
2.96727e-10
2.96727e-10
2.96727e-10
2.96727e-10
2.96727e-10
2.96727e-10
)
;

boundaryField
{
    inlet
    {
        type            calculated;
        value           uniform -1.13622e-09;
    }
    outlet
    {
        type            calculated;
        value           uniform 2.96727e-10;
    }
    emptyWalls
    {
        type            empty;
        value           nonuniform List<scalar> 0();
    }
}


// ************************************************************************* //
