/*--------------------------------*- C++ -*----------------------------------*\
  =========                 |
  \\      /  F ield         | OpenFOAM: The Open Source CFD Toolbox
   \\    /   O peration     | Website:  https://openfoam.org
    \\  /    A nd           | Version:  9
     \\/     M anipulation  |
\*---------------------------------------------------------------------------*/
FoamFile
{
    format      ascii;
    class       volScalarField;
    location    "1400";
    object      Fa;
}
// * * * * * * * * * * * * * * * * * * * * * * * * * * * * * * * * * * * * * //

dimensions      [0 0 0 0 0 0 0];

internalField   nonuniform List<scalar> 
1000
(
0.19587
0.172025
0.150107
0.145303
0.144886
0.144209
0.144
0.14379
0.143588
0.143381
0.143162
0.142934
0.14271
0.142492
0.142297
0.142103
0.141916
0.141732
0.141529
0.141339
0.141122
0.140917
0.140695
0.140471
0.140249
0.140007
0.139785
0.139531
0.139302
0.13905
0.138806
0.138565
0.138305
0.138069
0.137803
0.137559
0.137299
0.137035
0.136784
0.136503
0.136248
0.135969
0.135694
0.135427
0.135134
0.134869
0.134578
0.134298
0.13402
0.133718
0.13343
0.133089
0.132702
0.132219
0.131588
0.130885
0.130206
0.129732
0.129483
0.129348
0.129305
0.129286
0.129276
0.129299
0.129317
0.12934
0.129375
0.129413
0.129461
0.12951
0.12957
0.12963
0.1297
0.129771
0.129851
0.129932
0.130023
0.130115
0.130216
0.130318
0.130429
0.130541
0.13066
0.130779
0.130905
0.13103
0.131161
0.131289
0.131421
0.131549
0.13168
0.131806
0.131934
0.132056
0.132179
0.132295
0.132412
0.132523
0.132634
0.132739
0.132846
0.132946
0.133048
0.133146
0.133246
0.133343
0.133445
0.133545
0.133653
0.133761
0.133879
0.134
0.134136
0.134277
0.134435
0.134603
0.134792
0.134993
0.135217
0.135456
0.13572
0.136
0.136305
0.136624
0.136967
0.137321
0.137694
0.138072
0.138462
0.138849
0.139235
0.139604
0.139956
0.140268
0.140535
0.140726
0.140836
0.140863
0.140864
0.140838
0.140693
0.140213
0.139522
0.13864
0.137568
0.13634
0.13499
0.133576
0.13215
0.130775
0.129492
0.128348
0.127358
0.126543
0.125895
0.125414
0.125081
0.124887
0.124804
0.124796
0.1248
0.124863
0.125103
0.125391
0.125703
0.126032
0.126368
0.126706
0.12704
0.127364
0.127676
0.127972
0.128249
0.128506
0.128742
0.128956
0.129147
0.129317
0.129466
0.129596
0.129707
0.129803
0.129883
0.12995
0.130007
0.130054
0.130094
0.130129
0.130158
0.130186
0.13021
0.130234
0.130257
0.130281
0.130305
0.13033
0.130355
0.130382
0.130409
0.130438
0.130466
0.130494
0.130522
0.13055
0.130575
0.1306
0.130621
0.130639
0.13065
0.130655
0.130656
0.130655
0.130647
0.130643
0.130613
0.130603
0.130541
0.130523
0.130427
0.1304
0.130267
0.130229
0.130049
0.129995
0.129756
0.129671
0.129409
0.129305
0.129027
0.128912
0.128609
0.128483
0.128141
0.128012
0.127639
0.127496
0.127079
0.126958
0.126451
0.125486
0.120588
0.0319694
0.000182384
8.39245e-10
2.9076e-21
1.01958e-45
2.66502e-97
1.8983e-206
0
0
0
0
0
0
0
0
0
0
0
0
0
0
0
0
0
0
0
0
0
0
0
0
0
0
0
0
0
0
0
0
0
0
0
0
0
0
0
0
0
0
0
0
0
0
0
0
0
0
0
0
0
0
0
0
0
0
0
0
0
0
0
0
0
0
0
0
0
0
0
0
0
0
0
0
0
0
0
0
0
0
0
0
0
0
0
0
0
0
0
0
0
0
0
0
0
0
0
0
0
0
0
0
0
0
0
0
0
0
0
0
0
0
0
0
0
0
0
0
0
0
0
0
0
0
0
0
0
0
0
0
0
0
0
0
0
0
0
0
0
0
0
0
0
0
0
0
0
0
0
0
0
0
0
0
0
0
0
0
0
0
0
0
0
0
0
0
0
0
0
0
0
0
0
0
0
0
0
0
0
0
0
0
0
0
0
0
0
0
0
0
0
0
0
0
0
0
0
0
0
0
0
0
0
0
0
0
0
0
0
0
0
0
0
0
0
0
0
0
0
0
0
0
0
0
0
0
0
0
0
0
0
0
0
0
0
0
0
0
0
0
0
0
0
0
0
0
0
0
0
0
0
0
0
0
0
0
0
0
0
0
0
0
0
0
0
0
0
0
0
0
0
0
0
0
0
0
0
0
0
0
0
0
0
0
0
0
0
0
0
0
0
0
0
0
0
0
0
0
0
0
0
0
0
0
0
0
0
0
0
0
0
0
0
0
0
0
0
0
0
0
0
0
0
0
0
0
0
0
0
0
0
0
0
0
0
0
0
0
0
0
0
0
0
0
0
0
0
0
0
0
0
0
0
0
0
0
0
0
0
0
0
0
0
0
0
0
0
0
0
0
0
0
0
0
0
0
0
0
0
0
0
0
0
0
0
0
0
0
0
0
0
0
0
0
0
0
0
0
0
0
0
0
0
0
0
0
0
0
0
0
0
0
0
0
0
0
0
0
0
0
0
0
0
0
0
0
0
0
0
0
0
0
0
0
0
0
0
0
0
0
0
0
0
0
0
0
0
0
0
0
0
0
0
0
0
0
0
0
0
0
0
0
0
0
0
0
0
0
0
0
0
0
0
0
0
0
0
0
0
0
0
0
0
0
0
0
0
0
0
0
0
0
0
0
0
0
0
0
0
0
0
0
0
0
0
0
0
0
0
0
0
0
0
0
0
0
0
0
0
0
0
0
0
0
0
0
0
0
0
0
0
0
0
0
0
0
0
0
0
0
0
0
0
0
0
0
0
0
0
0
0
0
0
0
0
0
0
0
0
0
0
0
0
0
0
0
0
0
0
0
0
0
0
0
0
0
0
0
0
0
0
0
0
0
0
0
0
0
0
0
0
0
0
0
0
0
0
0
0
0
0
0
0
0
0
0
0
0
0
0
0
0
0
0
0
0
0
0
0
0
0
0
0
0
0
0
0
0
0
0
0
0
0
0
0
0
0
0
0
0
0
0
0
0
0
0
0
0
0
0
0
0
0
0
0
0
0
0
0
0
0
0
0
0
0
0
0
0
0
0
0
0
0
0
0
0
0
0
0
0
0
0
0
0
0
0
0
0
0
0
0
0
0
0
0
0
0
0
0
0
0
0
0
0
0
0
0
0
0
0
0
0
0
0
0
0
0
0
0
0
0
0
0
0
0
0
0
0
0
0
0
0
0
0
0
0
0
0
0
0
0
0
0
0
0
0
0
0
0
0
)
;

boundaryField
{
    inlet
    {
        type            calculated;
        value           uniform 0.194831;
    }
    outlet
    {
        type            calculated;
        value           uniform 0;
    }
    emptyWalls
    {
        type            empty;
    }
}


// ************************************************************************* //
