/*--------------------------------*- C++ -*----------------------------------*\
  =========                 |
  \\      /  F ield         | OpenFOAM: The Open Source CFD Toolbox
   \\    /   O peration     | Website:  https://openfoam.org
    \\  /    A nd           | Version:  9
     \\/     M anipulation  |
\*---------------------------------------------------------------------------*/
FoamFile
{
    format      ascii;
    class       volVectorField;
    location    "23600";
    object      Ua;
}
// * * * * * * * * * * * * * * * * * * * * * * * * * * * * * * * * * * * * * //

dimensions      [0 0 0 0 0 0 0];

internalField   nonuniform List<vector> 
1000
(
(2.74905e-06 0 0)
(2.74885e-06 0 0)
(2.74873e-06 0 0)
(2.74862e-06 0 0)
(2.74844e-06 0 0)
(2.74816e-06 0 0)
(2.7479e-06 0 0)
(2.7475e-06 0 0)
(2.74708e-06 0 0)
(2.74661e-06 0 0)
(2.74609e-06 0 0)
(2.74557e-06 0 0)
(2.745e-06 0 0)
(2.74439e-06 0 0)
(2.74372e-06 0 0)
(2.743e-06 0 0)
(2.74219e-06 0 0)
(2.74137e-06 0 0)
(2.74056e-06 0 0)
(2.73969e-06 0 0)
(2.73894e-06 0 0)
(2.73811e-06 0 0)
(2.73739e-06 0 0)
(2.7367e-06 0 0)
(2.73606e-06 0 0)
(2.73555e-06 0 0)
(2.73508e-06 0 0)
(2.73466e-06 0 0)
(2.73421e-06 0 0)
(2.73348e-06 0 0)
(2.73137e-06 0 0)
(2.72366e-06 0 0)
(2.68814e-06 0 0)
(2.47273e-06 0 0)
(2.22576e-06 0 0)
(2.14904e-06 0 0)
(2.12675e-06 0 0)
(2.1163e-06 0 0)
(2.10964e-06 0 0)
(2.10463e-06 0 0)
(2.10051e-06 0 0)
(2.09695e-06 0 0)
(2.09378e-06 0 0)
(2.09092e-06 0 0)
(2.0883e-06 0 0)
(2.08589e-06 0 0)
(2.08368e-06 0 0)
(2.08164e-06 0 0)
(2.07974e-06 0 0)
(2.07796e-06 0 0)
(2.0763e-06 0 0)
(2.07473e-06 0 0)
(2.07327e-06 0 0)
(2.07193e-06 0 0)
(2.07074e-06 0 0)
(2.06964e-06 0 0)
(2.06864e-06 0 0)
(2.0677e-06 0 0)
(2.06675e-06 0 0)
(2.0658e-06 0 0)
(2.06486e-06 0 0)
(2.06389e-06 0 0)
(2.06295e-06 0 0)
(2.06216e-06 0 0)
(2.06151e-06 0 0)
(2.06097e-06 0 0)
(2.06051e-06 0 0)
(2.06012e-06 0 0)
(2.05974e-06 0 0)
(2.05927e-06 0 0)
(2.05868e-06 0 0)
(2.05798e-06 0 0)
(2.05722e-06 0 0)
(2.0565e-06 0 0)
(2.05592e-06 0 0)
(2.0556e-06 0 0)
(2.05562e-06 0 0)
(2.05602e-06 0 0)
(2.05671e-06 0 0)
(2.05807e-06 0 0)
(2.06064e-06 0 0)
(2.06387e-06 0 0)
(2.06716e-06 0 0)
(2.07042e-06 0 0)
(2.07327e-06 0 0)
(2.07554e-06 0 0)
(2.0775e-06 0 0)
(2.07929e-06 0 0)
(2.08088e-06 0 0)
(2.08223e-06 0 0)
(2.08318e-06 0 0)
(2.08354e-06 0 0)
(2.08316e-06 0 0)
(2.08199e-06 0 0)
(2.08006e-06 0 0)
(2.07749e-06 0 0)
(2.07444e-06 0 0)
(2.07111e-06 0 0)
(2.06768e-06 0 0)
(2.06432e-06 0 0)
(2.06116e-06 0 0)
(2.0583e-06 0 0)
(2.05581e-06 0 0)
(2.05373e-06 0 0)
(2.05206e-06 0 0)
(2.05078e-06 0 0)
(2.04986e-06 0 0)
(2.04924e-06 0 0)
(2.04888e-06 0 0)
(2.04872e-06 0 0)
(2.04869e-06 0 0)
(2.04874e-06 0 0)
(2.04882e-06 0 0)
(2.0489e-06 0 0)
(2.04895e-06 0 0)
(2.04894e-06 0 0)
(2.04887e-06 0 0)
(2.04874e-06 0 0)
(2.04853e-06 0 0)
(2.04826e-06 0 0)
(2.04794e-06 0 0)
(2.04757e-06 0 0)
(2.04716e-06 0 0)
(2.04672e-06 0 0)
(2.04625e-06 0 0)
(2.04577e-06 0 0)
(2.04528e-06 0 0)
(2.04478e-06 0 0)
(2.04428e-06 0 0)
(2.04378e-06 0 0)
(2.04328e-06 0 0)
(2.04279e-06 0 0)
(2.0423e-06 0 0)
(2.04183e-06 0 0)
(2.04136e-06 0 0)
(2.0409e-06 0 0)
(2.04045e-06 0 0)
(2.04e-06 0 0)
(2.03957e-06 0 0)
(2.03915e-06 0 0)
(2.03874e-06 0 0)
(2.03834e-06 0 0)
(2.03795e-06 0 0)
(2.03758e-06 0 0)
(2.03721e-06 0 0)
(2.03686e-06 0 0)
(2.03653e-06 0 0)
(2.0362e-06 0 0)
(2.03589e-06 0 0)
(2.03559e-06 0 0)
(2.0353e-06 0 0)
(2.03503e-06 0 0)
(2.03476e-06 0 0)
(2.03451e-06 0 0)
(2.03426e-06 0 0)
(2.03403e-06 0 0)
(2.03382e-06 0 0)
(2.03362e-06 0 0)
(2.03343e-06 0 0)
(2.03326e-06 0 0)
(2.03311e-06 0 0)
(2.03298e-06 0 0)
(2.03286e-06 0 0)
(2.03276e-06 0 0)
(2.03266e-06 0 0)
(2.03258e-06 0 0)
(2.03249e-06 0 0)
(2.03241e-06 0 0)
(2.03233e-06 0 0)
(2.03224e-06 0 0)
(2.03216e-06 0 0)
(2.03208e-06 0 0)
(2.03201e-06 0 0)
(2.03194e-06 0 0)
(2.03189e-06 0 0)
(2.03185e-06 0 0)
(2.03183e-06 0 0)
(2.03182e-06 0 0)
(2.03183e-06 0 0)
(2.03184e-06 0 0)
(2.03186e-06 0 0)
(2.03188e-06 0 0)
(2.03189e-06 0 0)
(2.03189e-06 0 0)
(2.03186e-06 0 0)
(2.03181e-06 0 0)
(2.03175e-06 0 0)
(2.03168e-06 0 0)
(2.03163e-06 0 0)
(2.03162e-06 0 0)
(2.03168e-06 0 0)
(2.03184e-06 0 0)
(2.03212e-06 0 0)
(2.03255e-06 0 0)
(2.03315e-06 0 0)
(2.03393e-06 0 0)
(2.03489e-06 0 0)
(2.03604e-06 0 0)
(2.03737e-06 0 0)
(2.03886e-06 0 0)
(2.04048e-06 0 0)
(2.04222e-06 0 0)
(2.04405e-06 0 0)
(2.04592e-06 0 0)
(2.04781e-06 0 0)
(2.04967e-06 0 0)
(2.05145e-06 0 0)
(2.05312e-06 0 0)
(2.05461e-06 0 0)
(2.05589e-06 0 0)
(2.05691e-06 0 0)
(2.05765e-06 0 0)
(2.05806e-06 0 0)
(2.05813e-06 0 0)
(2.05786e-06 0 0)
(2.05725e-06 0 0)
(2.05632e-06 0 0)
(2.05509e-06 0 0)
(2.0536e-06 0 0)
(2.05191e-06 0 0)
(2.05006e-06 0 0)
(2.0481e-06 0 0)
(2.04609e-06 0 0)
(2.04408e-06 0 0)
(2.04212e-06 0 0)
(2.04024e-06 0 0)
(2.03849e-06 0 0)
(2.03687e-06 0 0)
(2.0354e-06 0 0)
(2.0341e-06 0 0)
(2.03296e-06 0 0)
(2.03198e-06 0 0)
(2.03115e-06 0 0)
(2.03045e-06 0 0)
(2.02988e-06 0 0)
(2.0294e-06 0 0)
(2.029e-06 0 0)
(2.02867e-06 0 0)
(2.02839e-06 0 0)
(2.02814e-06 0 0)
(2.02791e-06 0 0)
(2.02768e-06 0 0)
(2.02746e-06 0 0)
(2.02723e-06 0 0)
(2.02699e-06 0 0)
(2.02672e-06 0 0)
(2.02644e-06 0 0)
(2.02613e-06 0 0)
(2.0258e-06 0 0)
(2.02545e-06 0 0)
(2.02509e-06 0 0)
(2.0247e-06 0 0)
(2.0243e-06 0 0)
(2.02388e-06 0 0)
(2.02346e-06 0 0)
(2.02302e-06 0 0)
(2.02258e-06 0 0)
(2.02213e-06 0 0)
(2.02169e-06 0 0)
(2.02124e-06 0 0)
(2.02079e-06 0 0)
(2.02034e-06 0 0)
(2.0199e-06 0 0)
(2.01946e-06 0 0)
(2.01902e-06 0 0)
(2.01859e-06 0 0)
(2.01817e-06 0 0)
(2.01776e-06 0 0)
(2.01735e-06 0 0)
(2.01695e-06 0 0)
(2.01656e-06 0 0)
(2.01618e-06 0 0)
(2.0158e-06 0 0)
(2.01544e-06 0 0)
(2.01508e-06 0 0)
(2.01474e-06 0 0)
(2.0144e-06 0 0)
(2.01407e-06 0 0)
(2.01376e-06 0 0)
(2.01345e-06 0 0)
(2.01315e-06 0 0)
(2.01286e-06 0 0)
(2.01259e-06 0 0)
(2.01232e-06 0 0)
(2.01206e-06 0 0)
(2.01182e-06 0 0)
(2.01158e-06 0 0)
(2.01136e-06 0 0)
(2.01115e-06 0 0)
(2.01095e-06 0 0)
(2.01076e-06 0 0)
(2.01058e-06 0 0)
(2.01042e-06 0 0)
(2.01026e-06 0 0)
(2.01011e-06 0 0)
(2.00997e-06 0 0)
(2.00984e-06 0 0)
(2.00971e-06 0 0)
(2.00959e-06 0 0)
(2.00948e-06 0 0)
(2.00937e-06 0 0)
(2.00927e-06 0 0)
(2.00917e-06 0 0)
(2.00908e-06 0 0)
(2.009e-06 0 0)
(2.00892e-06 0 0)
(2.00885e-06 0 0)
(2.00879e-06 0 0)
(2.00873e-06 0 0)
(2.00868e-06 0 0)
(2.00863e-06 0 0)
(2.00858e-06 0 0)
(2.00854e-06 0 0)
(2.0085e-06 0 0)
(2.00846e-06 0 0)
(2.00842e-06 0 0)
(2.00837e-06 0 0)
(2.00833e-06 0 0)
(2.00829e-06 0 0)
(2.00825e-06 0 0)
(2.00823e-06 0 0)
(2.00823e-06 0 0)
(2.00825e-06 0 0)
(2.0083e-06 0 0)
(2.00839e-06 0 0)
(2.00854e-06 0 0)
(2.00875e-06 0 0)
(2.00902e-06 0 0)
(2.00938e-06 0 0)
(2.00982e-06 0 0)
(2.01035e-06 0 0)
(2.01097e-06 0 0)
(2.01169e-06 0 0)
(2.01251e-06 0 0)
(2.01341e-06 0 0)
(2.01441e-06 0 0)
(2.01548e-06 0 0)
(2.01662e-06 0 0)
(2.01782e-06 0 0)
(2.01907e-06 0 0)
(2.02033e-06 0 0)
(2.02161e-06 0 0)
(2.02287e-06 0 0)
(2.0241e-06 0 0)
(2.02528e-06 0 0)
(2.02637e-06 0 0)
(2.02737e-06 0 0)
(2.02825e-06 0 0)
(2.029e-06 0 0)
(2.02958e-06 0 0)
(2.03e-06 0 0)
(2.03024e-06 0 0)
(2.03029e-06 0 0)
(2.03015e-06 0 0)
(2.02982e-06 0 0)
(2.02931e-06 0 0)
(2.02862e-06 0 0)
(2.02778e-06 0 0)
(2.02679e-06 0 0)
(2.02567e-06 0 0)
(2.02445e-06 0 0)
(2.02315e-06 0 0)
(2.0218e-06 0 0)
(2.02041e-06 0 0)
(2.019e-06 0 0)
(2.01761e-06 0 0)
(2.01625e-06 0 0)
(2.01493e-06 0 0)
(2.01366e-06 0 0)
(2.01246e-06 0 0)
(2.01134e-06 0 0)
(2.01029e-06 0 0)
(2.00933e-06 0 0)
(2.00844e-06 0 0)
(2.00764e-06 0 0)
(2.00691e-06 0 0)
(2.00625e-06 0 0)
(2.00566e-06 0 0)
(2.00512e-06 0 0)
(2.00463e-06 0 0)
(2.00419e-06 0 0)
(2.00378e-06 0 0)
(2.0034e-06 0 0)
(2.00304e-06 0 0)
(2.0027e-06 0 0)
(2.00238e-06 0 0)
(2.00205e-06 0 0)
(2.00174e-06 0 0)
(2.00142e-06 0 0)
(2.00109e-06 0 0)
(2.00077e-06 0 0)
(2.00043e-06 0 0)
(2.00009e-06 0 0)
(1.99974e-06 0 0)
(1.99938e-06 0 0)
(1.99902e-06 0 0)
(1.99864e-06 0 0)
(1.99826e-06 0 0)
(1.99787e-06 0 0)
(1.99748e-06 0 0)
(1.99708e-06 0 0)
(1.99668e-06 0 0)
(1.99627e-06 0 0)
(1.99586e-06 0 0)
(1.99546e-06 0 0)
(1.99505e-06 0 0)
(1.99464e-06 0 0)
(1.99424e-06 0 0)
(1.99384e-06 0 0)
(1.99344e-06 0 0)
(1.99305e-06 0 0)
(1.99266e-06 0 0)
(1.99227e-06 0 0)
(1.99189e-06 0 0)
(1.99152e-06 0 0)
(1.99115e-06 0 0)
(1.99079e-06 0 0)
(1.99044e-06 0 0)
(1.99009e-06 0 0)
(1.98975e-06 0 0)
(1.98942e-06 0 0)
(1.98909e-06 0 0)
(1.98878e-06 0 0)
(1.98847e-06 0 0)
(1.98816e-06 0 0)
(1.98787e-06 0 0)
(1.98758e-06 0 0)
(1.98731e-06 0 0)
(1.98704e-06 0 0)
(1.98678e-06 0 0)
(1.98652e-06 0 0)
(1.98628e-06 0 0)
(1.98605e-06 0 0)
(1.98582e-06 0 0)
(1.9856e-06 0 0)
(1.98539e-06 0 0)
(1.98519e-06 0 0)
(1.985e-06 0 0)
(1.98481e-06 0 0)
(1.98463e-06 0 0)
(1.98446e-06 0 0)
(1.9843e-06 0 0)
(1.98414e-06 0 0)
(1.98399e-06 0 0)
(1.98385e-06 0 0)
(1.98371e-06 0 0)
(1.98358e-06 0 0)
(1.98345e-06 0 0)
(1.98333e-06 0 0)
(1.98322e-06 0 0)
(1.98311e-06 0 0)
(1.983e-06 0 0)
(1.9829e-06 0 0)
(1.98281e-06 0 0)
(1.98271e-06 0 0)
(1.98263e-06 0 0)
(1.98254e-06 0 0)
(1.98246e-06 0 0)
(1.98238e-06 0 0)
(1.9823e-06 0 0)
(1.98223e-06 0 0)
(1.98216e-06 0 0)
(1.98209e-06 0 0)
(1.98203e-06 0 0)
(1.98197e-06 0 0)
(1.98191e-06 0 0)
(1.98186e-06 0 0)
(1.98182e-06 0 0)
(1.9818e-06 0 0)
(1.98179e-06 0 0)
(1.9818e-06 0 0)
(1.98183e-06 0 0)
(1.98188e-06 0 0)
(1.98197e-06 0 0)
(1.98209e-06 0 0)
(1.98225e-06 0 0)
(1.98245e-06 0 0)
(1.9827e-06 0 0)
(1.983e-06 0 0)
(1.98335e-06 0 0)
(1.98376e-06 0 0)
(1.98422e-06 0 0)
(1.98474e-06 0 0)
(1.98532e-06 0 0)
(1.98595e-06 0 0)
(1.98663e-06 0 0)
(1.98736e-06 0 0)
(1.98814e-06 0 0)
(1.98896e-06 0 0)
(1.98981e-06 0 0)
(1.99068e-06 0 0)
(1.99157e-06 0 0)
(1.99247e-06 0 0)
(1.99337e-06 0 0)
(1.99425e-06 0 0)
(1.99511e-06 0 0)
(1.99593e-06 0 0)
(1.99671e-06 0 0)
(1.99742e-06 0 0)
(1.99808e-06 0 0)
(1.99865e-06 0 0)
(1.99913e-06 0 0)
(1.99952e-06 0 0)
(1.9998e-06 0 0)
(1.99998e-06 0 0)
(2.00004e-06 0 0)
(1.99998e-06 0 0)
(1.99981e-06 0 0)
(1.99952e-06 0 0)
(1.99912e-06 0 0)
(1.99861e-06 0 0)
(1.998e-06 0 0)
(1.99729e-06 0 0)
(1.9965e-06 0 0)
(1.99564e-06 0 0)
(1.99471e-06 0 0)
(1.99372e-06 0 0)
(1.9927e-06 0 0)
(1.99165e-06 0 0)
(1.99058e-06 0 0)
(1.98951e-06 0 0)
(1.98844e-06 0 0)
(1.98738e-06 0 0)
(1.98634e-06 0 0)
(1.98534e-06 0 0)
(1.98436e-06 0 0)
(1.98343e-06 0 0)
(1.98254e-06 0 0)
(1.9817e-06 0 0)
(1.9809e-06 0 0)
(1.98015e-06 0 0)
(1.97944e-06 0 0)
(1.97878e-06 0 0)
(1.97816e-06 0 0)
(1.97758e-06 0 0)
(1.97704e-06 0 0)
(1.97653e-06 0 0)
(1.97605e-06 0 0)
(1.9756e-06 0 0)
(1.97517e-06 0 0)
(1.97476e-06 0 0)
(1.97437e-06 0 0)
(1.97399e-06 0 0)
(1.97363e-06 0 0)
(1.97327e-06 0 0)
(1.97291e-06 0 0)
(1.97257e-06 0 0)
(1.97222e-06 0 0)
(1.97187e-06 0 0)
(1.97153e-06 0 0)
(1.97118e-06 0 0)
(1.97083e-06 0 0)
(1.97047e-06 0 0)
(1.97012e-06 0 0)
(1.96976e-06 0 0)
(1.9694e-06 0 0)
(1.96903e-06 0 0)
(1.96866e-06 0 0)
(1.96829e-06 0 0)
(1.96792e-06 0 0)
(1.96754e-06 0 0)
(1.96716e-06 0 0)
(1.96679e-06 0 0)
(1.96641e-06 0 0)
(1.96603e-06 0 0)
(1.96566e-06 0 0)
(1.96528e-06 0 0)
(1.96491e-06 0 0)
(1.96454e-06 0 0)
(1.96417e-06 0 0)
(1.9638e-06 0 0)
(1.96344e-06 0 0)
(1.96308e-06 0 0)
(1.96272e-06 0 0)
(1.96237e-06 0 0)
(1.96203e-06 0 0)
(1.96168e-06 0 0)
(1.96135e-06 0 0)
(1.96102e-06 0 0)
(1.96069e-06 0 0)
(1.96037e-06 0 0)
(1.96006e-06 0 0)
(1.95975e-06 0 0)
(1.95944e-06 0 0)
(1.95915e-06 0 0)
(1.95886e-06 0 0)
(1.95857e-06 0 0)
(1.9583e-06 0 0)
(1.95803e-06 0 0)
(1.95776e-06 0 0)
(1.9575e-06 0 0)
(1.95725e-06 0 0)
(1.95701e-06 0 0)
(1.95677e-06 0 0)
(1.95654e-06 0 0)
(1.95632e-06 0 0)
(1.9561e-06 0 0)
(1.95589e-06 0 0)
(1.95568e-06 0 0)
(1.95548e-06 0 0)
(1.95529e-06 0 0)
(1.9551e-06 0 0)
(1.95492e-06 0 0)
(1.95475e-06 0 0)
(1.95458e-06 0 0)
(1.95442e-06 0 0)
(1.95426e-06 0 0)
(1.9541e-06 0 0)
(1.95396e-06 0 0)
(1.95381e-06 0 0)
(1.95367e-06 0 0)
(1.95354e-06 0 0)
(1.95341e-06 0 0)
(1.95328e-06 0 0)
(1.95316e-06 0 0)
(1.95304e-06 0 0)
(1.95293e-06 0 0)
(1.95282e-06 0 0)
(1.95271e-06 0 0)
(1.95261e-06 0 0)
(1.95251e-06 0 0)
(1.95241e-06 0 0)
(1.95232e-06 0 0)
(1.95223e-06 0 0)
(1.95215e-06 0 0)
(1.95207e-06 0 0)
(1.952e-06 0 0)
(1.95194e-06 0 0)
(1.95189e-06 0 0)
(1.95185e-06 0 0)
(1.95182e-06 0 0)
(1.9518e-06 0 0)
(1.9518e-06 0 0)
(1.95182e-06 0 0)
(1.95186e-06 0 0)
(1.95192e-06 0 0)
(1.95201e-06 0 0)
(1.95212e-06 0 0)
(1.95226e-06 0 0)
(1.95243e-06 0 0)
(1.95264e-06 0 0)
(1.95288e-06 0 0)
(1.95315e-06 0 0)
(1.95346e-06 0 0)
(1.9538e-06 0 0)
(1.95418e-06 0 0)
(1.9546e-06 0 0)
(1.95505e-06 0 0)
(1.95554e-06 0 0)
(1.95606e-06 0 0)
(1.95661e-06 0 0)
(1.95718e-06 0 0)
(1.95778e-06 0 0)
(1.95841e-06 0 0)
(1.95904e-06 0 0)
(1.95969e-06 0 0)
(1.96035e-06 0 0)
(1.961e-06 0 0)
(1.96166e-06 0 0)
(1.9623e-06 0 0)
(1.96292e-06 0 0)
(1.96352e-06 0 0)
(1.96409e-06 0 0)
(1.96463e-06 0 0)
(1.96512e-06 0 0)
(1.96557e-06 0 0)
(1.96596e-06 0 0)
(1.9663e-06 0 0)
(1.96657e-06 0 0)
(1.96677e-06 0 0)
(1.9669e-06 0 0)
(1.96696e-06 0 0)
(1.96694e-06 0 0)
(1.96685e-06 0 0)
(1.96668e-06 0 0)
(1.96643e-06 0 0)
(1.9661e-06 0 0)
(1.96571e-06 0 0)
(1.96524e-06 0 0)
(1.96471e-06 0 0)
(1.96411e-06 0 0)
(1.96347e-06 0 0)
(1.96277e-06 0 0)
(1.96202e-06 0 0)
(1.96124e-06 0 0)
(1.96043e-06 0 0)
(1.95959e-06 0 0)
(1.95873e-06 0 0)
(1.95787e-06 0 0)
(1.95699e-06 0 0)
(1.95612e-06 0 0)
(1.95526e-06 0 0)
(1.9544e-06 0 0)
(1.95356e-06 0 0)
(1.95273e-06 0 0)
(1.95193e-06 0 0)
(1.95116e-06 0 0)
(1.9504e-06 0 0)
(1.94968e-06 0 0)
(1.94898e-06 0 0)
(1.94831e-06 0 0)
(1.94768e-06 0 0)
(1.94706e-06 0 0)
(1.94648e-06 0 0)
(1.94592e-06 0 0)
(1.94539e-06 0 0)
(1.94488e-06 0 0)
(1.94439e-06 0 0)
(1.94392e-06 0 0)
(1.94346e-06 0 0)
(1.94303e-06 0 0)
(1.9426e-06 0 0)
(1.94219e-06 0 0)
(1.94179e-06 0 0)
(1.9414e-06 0 0)
(1.94102e-06 0 0)
(1.94064e-06 0 0)
(1.94027e-06 0 0)
(1.9399e-06 0 0)
(1.93953e-06 0 0)
(1.93917e-06 0 0)
(1.9388e-06 0 0)
(1.93844e-06 0 0)
(1.93808e-06 0 0)
(1.93771e-06 0 0)
(1.93735e-06 0 0)
(1.93698e-06 0 0)
(1.93661e-06 0 0)
(1.93624e-06 0 0)
(1.93587e-06 0 0)
(1.9355e-06 0 0)
(1.93513e-06 0 0)
(1.93475e-06 0 0)
(1.93438e-06 0 0)
(1.93401e-06 0 0)
(1.93363e-06 0 0)
(1.93326e-06 0 0)
(1.93289e-06 0 0)
(1.93251e-06 0 0)
(1.93214e-06 0 0)
(1.93177e-06 0 0)
(1.93141e-06 0 0)
(1.93104e-06 0 0)
(1.93068e-06 0 0)
(1.93032e-06 0 0)
(1.92996e-06 0 0)
(1.92961e-06 0 0)
(1.92926e-06 0 0)
(1.92891e-06 0 0)
(1.92857e-06 0 0)
(1.92823e-06 0 0)
(1.92789e-06 0 0)
(1.92756e-06 0 0)
(1.92724e-06 0 0)
(1.92692e-06 0 0)
(1.9266e-06 0 0)
(1.92629e-06 0 0)
(1.92599e-06 0 0)
(1.92569e-06 0 0)
(1.92539e-06 0 0)
(1.9251e-06 0 0)
(1.92482e-06 0 0)
(1.92454e-06 0 0)
(1.92427e-06 0 0)
(1.924e-06 0 0)
(1.92374e-06 0 0)
(1.92349e-06 0 0)
(1.92324e-06 0 0)
(1.92299e-06 0 0)
(1.92275e-06 0 0)
(1.92252e-06 0 0)
(1.92229e-06 0 0)
(1.92207e-06 0 0)
(1.92186e-06 0 0)
(1.92164e-06 0 0)
(1.92144e-06 0 0)
(1.92124e-06 0 0)
(1.92104e-06 0 0)
(1.92085e-06 0 0)
(1.92067e-06 0 0)
(1.92048e-06 0 0)
(1.92031e-06 0 0)
(1.92014e-06 0 0)
(1.91997e-06 0 0)
(1.9198e-06 0 0)
(1.91964e-06 0 0)
(1.91949e-06 0 0)
(1.91934e-06 0 0)
(1.91919e-06 0 0)
(1.91905e-06 0 0)
(1.91891e-06 0 0)
(1.91877e-06 0 0)
(1.91864e-06 0 0)
(1.91851e-06 0 0)
(1.91839e-06 0 0)
(1.91827e-06 0 0)
(1.91816e-06 0 0)
(1.91805e-06 0 0)
(1.91794e-06 0 0)
(1.91785e-06 0 0)
(1.91776e-06 0 0)
(1.91767e-06 0 0)
(1.9176e-06 0 0)
(1.91754e-06 0 0)
(1.91748e-06 0 0)
(1.91744e-06 0 0)
(1.91741e-06 0 0)
(1.91739e-06 0 0)
(1.91738e-06 0 0)
(1.9174e-06 0 0)
(1.91743e-06 0 0)
(1.91747e-06 0 0)
(1.91754e-06 0 0)
(1.91762e-06 0 0)
(1.91773e-06 0 0)
(1.91786e-06 0 0)
(1.91801e-06 0 0)
(1.91819e-06 0 0)
(1.91839e-06 0 0)
(1.91861e-06 0 0)
(1.91886e-06 0 0)
(1.91913e-06 0 0)
(1.91943e-06 0 0)
(1.91974e-06 0 0)
(1.92009e-06 0 0)
(1.92045e-06 0 0)
(1.92083e-06 0 0)
(1.92123e-06 0 0)
(1.92165e-06 0 0)
(1.92208e-06 0 0)
(1.92253e-06 0 0)
(1.92298e-06 0 0)
(1.92344e-06 0 0)
(1.92391e-06 0 0)
(1.92437e-06 0 0)
(1.92484e-06 0 0)
(1.9253e-06 0 0)
(1.92574e-06 0 0)
(1.92618e-06 0 0)
(1.92659e-06 0 0)
(1.92699e-06 0 0)
(1.92736e-06 0 0)
(1.9277e-06 0 0)
(1.92801e-06 0 0)
(1.92829e-06 0 0)
(1.92852e-06 0 0)
(1.92872e-06 0 0)
(1.92887e-06 0 0)
(1.92897e-06 0 0)
(1.92902e-06 0 0)
(1.92903e-06 0 0)
(1.92898e-06 0 0)
(1.92887e-06 0 0)
(1.92872e-06 0 0)
(1.92851e-06 0 0)
(1.92824e-06 0 0)
(1.92792e-06 0 0)
(1.92756e-06 0 0)
(1.92714e-06 0 0)
(1.92667e-06 0 0)
(1.92616e-06 0 0)
(1.9256e-06 0 0)
(1.92501e-06 0 0)
(1.92438e-06 0 0)
(1.92372e-06 0 0)
(1.92303e-06 0 0)
(1.92232e-06 0 0)
(1.92159e-06 0 0)
(1.92084e-06 0 0)
(1.92007e-06 0 0)
(1.9193e-06 0 0)
(1.91853e-06 0 0)
(1.91775e-06 0 0)
(1.91697e-06 0 0)
(1.9162e-06 0 0)
(1.91544e-06 0 0)
(1.91468e-06 0 0)
(1.91394e-06 0 0)
(1.91321e-06 0 0)
(1.9125e-06 0 0)
(1.9118e-06 0 0)
(1.91112e-06 0 0)
(1.91046e-06 0 0)
(1.90982e-06 0 0)
(1.9092e-06 0 0)
(1.9086e-06 0 0)
(1.90801e-06 0 0)
(1.90745e-06 0 0)
(1.9069e-06 0 0)
(1.90637e-06 0 0)
(1.90586e-06 0 0)
(1.90536e-06 0 0)
(1.90488e-06 0 0)
(1.90442e-06 0 0)
(1.90396e-06 0 0)
(1.90353e-06 0 0)
(1.9031e-06 0 0)
(1.90269e-06 0 0)
(1.90229e-06 0 0)
(1.9019e-06 0 0)
(1.90152e-06 0 0)
(1.90115e-06 0 0)
(1.90079e-06 0 0)
(1.90044e-06 0 0)
(1.9001e-06 0 0)
(1.89977e-06 0 0)
(1.89945e-06 0 0)
(1.89914e-06 0 0)
(1.89884e-06 0 0)
(1.89855e-06 0 0)
(1.89826e-06 0 0)
(1.89799e-06 0 0)
(1.89773e-06 0 0)
(1.89747e-06 0 0)
(1.89722e-06 0 0)
(1.89698e-06 0 0)
(1.89675e-06 0 0)
(1.89653e-06 0 0)
(1.89632e-06 0 0)
(1.89611e-06 0 0)
(1.89591e-06 0 0)
(1.89571e-06 0 0)
(1.89552e-06 0 0)
(1.89534e-06 0 0)
(1.89517e-06 0 0)
(1.89499e-06 0 0)
(1.89483e-06 0 0)
(1.89467e-06 0 0)
(1.89451e-06 0 0)
(1.89436e-06 0 0)
(1.89421e-06 0 0)
(1.89406e-06 0 0)
(1.89392e-06 0 0)
(1.89379e-06 0 0)
(1.89365e-06 0 0)
(1.89351e-06 0 0)
(1.89337e-06 0 0)
(1.89322e-06 0 0)
(1.89305e-06 0 0)
(1.89284e-06 0 0)
(1.89255e-06 0 0)
(1.89212e-06 0 0)
(1.89144e-06 0 0)
(1.89033e-06 0 0)
(1.88849e-06 0 0)
(1.88555e-06 0 0)
(1.88109e-06 0 0)
(1.87497e-06 0 0)
(1.86774e-06 0 0)
(1.86073e-06 0 0)
(1.85527e-06 0 0)
(1.85183e-06 0 0)
(1.84998e-06 0 0)
(1.84906e-06 0 0)
(1.84861e-06 0 0)
(1.84838e-06 0 0)
(1.84825e-06 0 0)
(1.84818e-06 0 0)
(1.84814e-06 0 0)
(1.84811e-06 0 0)
(1.8481e-06 0 0)
(1.84809e-06 0 0)
(1.84809e-06 0 0)
(1.84809e-06 0 0)
(1.8481e-06 0 0)
(1.84811e-06 0 0)
(1.84813e-06 0 0)
(1.84814e-06 0 0)
(1.84817e-06 0 0)
(1.84819e-06 0 0)
(1.84822e-06 0 0)
(1.84826e-06 0 0)
(1.84829e-06 0 0)
(1.84833e-06 0 0)
(1.84838e-06 0 0)
(1.84842e-06 0 0)
(1.84848e-06 0 0)
(1.84853e-06 0 0)
(1.84859e-06 0 0)
(1.84865e-06 0 0)
(1.84872e-06 0 0)
(1.84879e-06 0 0)
(1.84886e-06 0 0)
(1.84894e-06 0 0)
(1.84902e-06 0 0)
(1.84911e-06 0 0)
(1.8492e-06 0 0)
(1.84929e-06 0 0)
(1.84939e-06 0 0)
(1.8495e-06 0 0)
(1.84961e-06 0 0)
(1.84973e-06 0 0)
(1.84985e-06 0 0)
(1.84999e-06 0 0)
(1.85013e-06 0 0)
(1.85028e-06 0 0)
(1.85043e-06 0 0)
(1.8506e-06 0 0)
(1.85077e-06 0 0)
(1.85096e-06 0 0)
)
;

boundaryField
{
    inlet
    {
        type            fixedValue;
        value           uniform (2.74882e-06 0 0);
    }
    outlet
    {
        type            zeroGradient;
    }
    emptyWalls
    {
        type            empty;
    }
}


// ************************************************************************* //
