/*--------------------------------*- C++ -*----------------------------------*\
  =========                 |
  \\      /  F ield         | OpenFOAM: The Open Source CFD Toolbox
   \\    /   O peration     | Website:  https://openfoam.org
    \\  /    A nd           | Version:  9
     \\/     M anipulation  |
\*---------------------------------------------------------------------------*/
FoamFile
{
    format      ascii;
    class       volScalarField;
    location    "4000";
    object      krc;
}
// * * * * * * * * * * * * * * * * * * * * * * * * * * * * * * * * * * * * * //

dimensions      [0 0 0 0 0 0 0];

internalField   nonuniform List<scalar> 
100
(
1.04194e-24
4.01861e-27
1.54145e-26
1.06167e-26
9.83612e-28
3.13746e-27
5.96128e-27
9.21061e-27
1.14746e-26
9.33787e-26
3.01687e-26
8.64359e-28
3.97454e-26
6.27741e-26
3.48656e-26
1.51814e-26
2.3183e-26
1.95817e-26
2.36636e-26
4.52111e-27
5.30893e-28
3.25283e-27
1.99126e-26
1.44741e-26
7.53196e-27
3.69686e-27
6.97052e-27
2.46642e-26
1.371e-26
2.17014e-26
3.11308e-26
2.96934e-28
2.16355e-27
2.64811e-27
6.81355e-28
1.16604e-26
1.10415e-26
1.71776e-26
9.42277e-27
2.01571e-26
1.07628e-26
1.1058e-26
3.73515e-27
1.10085e-26
1.58661e-26
2.89182e-29
6.36029e-26
5.29031e-27
1.49694e-26
4.37452e-27
4.37452e-27
1.8205e-27
1.03347e-27
5.463e-27
8.83775e-27
4.61848e-26
1.34696e-27
7.87667e-28
6.36803e-27
1.46826e-26
8.98597e-27
2.69076e-26
4.67771e-28
1.85199e-26
3.32939e-29
5.60314e-27
3.18159e-27
6.25577e-27
4.74553e-27
6.01853e-28
3.91969e-27
8.05392e-28
4.14904e-27
9.83612e-28
1.94172e-28
1.40801e-26
8.82922e-28
5.27281e-28
7.39631e-27
2.21498e-27
2.17086e-27
1.83392e-27
5.60228e-28
3.49911e-27
3.99376e-29
4.3443e-28
2.14362e-28
9.60655e-27
1.60744e-28
1.28684e-28
1.06142e-29
3.92928e-28
1.8643e-31
3.15067e-29
3.9443e-31
3.46667e-29
2.76656e-29
4.99201e-31
8.87469e-31
2.12985e-26
)
;

boundaryField
{
    inlet
    {
        type            calculated;
        value           uniform 1.04194e-24;
    }
    outlet
    {
        type            calculated;
        value           uniform 2.12985e-26;
    }
    emptyWalls
    {
        type            empty;
    }
}


// ************************************************************************* //
