/*--------------------------------*- C++ -*----------------------------------*\
  =========                 |
  \\      /  F ield         | OpenFOAM: The Open Source CFD Toolbox
   \\    /   O peration     | Website:  https://openfoam.org
    \\  /    A nd           | Version:  9
     \\/     M anipulation  |
\*---------------------------------------------------------------------------*/
FoamFile
{
    format      ascii;
    class       volScalarField;
    location    "4000";
    object      p;
}
// * * * * * * * * * * * * * * * * * * * * * * * * * * * * * * * * * * * * * //

dimensions      [0 0 0 0 0 0 0];

internalField   nonuniform List<scalar> 
100
(
2.03516e+06
2.01352e+06
1.99187e+06
1.97022e+06
1.94858e+06
1.92693e+06
1.90529e+06
1.88364e+06
1.86199e+06
1.84035e+06
1.8187e+06
1.79706e+06
1.77541e+06
1.75377e+06
1.73212e+06
1.71047e+06
1.68883e+06
1.66718e+06
1.64554e+06
1.62389e+06
1.60224e+06
1.5806e+06
1.55895e+06
1.53731e+06
1.51566e+06
1.49402e+06
1.47237e+06
1.45072e+06
1.42908e+06
1.40743e+06
1.38579e+06
1.36414e+06
1.34249e+06
1.32085e+06
1.2992e+06
1.27756e+06
1.25591e+06
1.23427e+06
1.21262e+06
1.19097e+06
1.16933e+06
1.14768e+06
1.12604e+06
1.10439e+06
1.08274e+06
1.0611e+06
1.03945e+06
1.01781e+06
996161
974515
952869
931223
909578
887932
866286
844640
822994
801348
779703
758057
736411
714765
693119
671473
649828
628182
606536
584890
563244
541598
519953
498307
476661
455015
433369
411723
390078
368432
346786
325140
303494
281848
260203
238557
216911
195265
173619
151973
130328
108682
87035.9
65390.1
43745.9
22101.8
1237.47
965.036
750.562
536.116
321.669
107.223
)
;

boundaryField
{
    inlet
    {
        type            darcyGradPressure;
        gradient        uniform 8.7587e+06;
        Mf              Mf;
        phi             phi;
        value           uniform 2.04598e+06;
    }
    outlet
    {
        type            fixedValue;
        value           uniform 0;
    }
    emptyWalls
    {
        type            empty;
    }
}


// ************************************************************************* //
