/*--------------------------------*- C++ -*----------------------------------*\
  =========                 |
  \\      /  F ield         | OpenFOAM: The Open Source CFD Toolbox
   \\    /   O peration     | Website:  https://openfoam.org
    \\  /    A nd           | Version:  9
     \\/     M anipulation  |
\*---------------------------------------------------------------------------*/
FoamFile
{
    format      ascii;
    class       surfaceScalarField;
    location    "4000";
    object      phia;
}
// * * * * * * * * * * * * * * * * * * * * * * * * * * * * * * * * * * * * * //

dimensions      [0 2 0 0 0 0 0];

internalField   nonuniform List<scalar> 
99
(
5.84748e-10
5.84748e-10
5.84748e-10
5.84748e-10
5.84748e-10
5.84748e-10
5.84748e-10
5.84748e-10
5.84748e-10
5.84748e-10
5.84748e-10
5.84748e-10
5.84748e-10
5.84748e-10
5.84748e-10
5.84748e-10
5.84748e-10
5.84748e-10
5.84748e-10
5.84748e-10
5.84748e-10
5.84748e-10
5.84748e-10
5.84748e-10
5.84748e-10
5.84748e-10
5.84748e-10
5.84748e-10
5.84748e-10
5.84748e-10
5.84748e-10
5.84748e-10
5.84748e-10
5.84748e-10
5.84748e-10
5.84748e-10
5.84748e-10
5.84748e-10
5.84748e-10
5.84748e-10
5.84748e-10
5.84748e-10
5.84748e-10
5.84748e-10
5.84748e-10
5.84748e-10
5.84748e-10
5.84748e-10
5.84748e-10
5.84748e-10
5.84748e-10
5.84748e-10
5.84748e-10
5.84748e-10
5.84748e-10
5.84748e-10
5.84748e-10
5.84748e-10
5.84748e-10
5.84748e-10
5.84748e-10
5.84748e-10
5.84748e-10
5.84748e-10
5.84748e-10
5.84748e-10
5.84748e-10
5.84748e-10
5.84748e-10
5.84748e-10
5.84748e-10
5.84748e-10
5.84748e-10
5.84748e-10
5.84748e-10
5.84748e-10
5.84748e-10
5.84748e-10
5.84748e-10
5.84748e-10
5.84748e-10
5.84748e-10
5.84748e-10
5.84748e-10
5.84748e-10
5.84748e-10
5.84748e-10
5.84748e-10
5.84748e-10
5.84748e-10
5.84748e-10
5.84697e-10
5.84693e-10
5.59827e-10
5.04135e-13
5.80641e-14
5.79436e-14
5.79436e-14
5.79436e-14
)
;

boundaryField
{
    inlet
    {
        type            calculated;
        value           uniform -5.84748e-10;
    }
    outlet
    {
        type            calculated;
        value           uniform 5.79542e-14;
    }
    emptyWalls
    {
        type            empty;
        value           nonuniform List<scalar> 0();
    }
}


// ************************************************************************* //
