/*--------------------------------*- C++ -*----------------------------------*\
  =========                 |
  \\      /  F ield         | OpenFOAM: The Open Source CFD Toolbox
   \\    /   O peration     | Website:  https://openfoam.org
    \\  /    A nd           | Version:  9
     \\/     M anipulation  |
\*---------------------------------------------------------------------------*/
FoamFile
{
    format      ascii;
    class       volVectorField;
    location    "22450";
    object      Uc;
}
// * * * * * * * * * * * * * * * * * * * * * * * * * * * * * * * * * * * * * //

dimensions      [0 0 0 0 0 0 0];

internalField   nonuniform List<vector> 
1000
(
(5.22026e-12 0 0)
(2.69876e-11 0 0)
(7.50938e-11 0 0)
(1.52446e-10 0 0)
(2.57965e-10 0 0)
(3.91294e-10 0 0)
(5.52371e-10 0 0)
(7.41238e-10 0 0)
(9.57873e-10 0 0)
(1.20215e-09 0 0)
(1.47361e-09 0 0)
(1.77139e-09 0 0)
(2.09416e-09 0 0)
(2.43971e-09 0 0)
(2.80512e-09 0 0)
(3.18634e-09 0 0)
(3.57829e-09 0 0)
(3.97502e-09 0 0)
(4.3697e-09 0 0)
(4.75533e-09 0 0)
(5.12514e-09 0 0)
(5.47323e-09 0 0)
(5.79518e-09 0 0)
(6.08835e-09 0 0)
(6.35234e-09 0 0)
(6.59035e-09 0 0)
(6.8178e-09 0 0)
(7.10339e-09 0 0)
(7.76286e-09 0 0)
(1.00658e-08 0 0)
(1.92267e-08 0 0)
(6.752e-08 0 0)
(1.51289e-07 0 0)
(2.01731e-07 0 0)
(2.12105e-07 0 0)
(2.16407e-07 0 0)
(2.19056e-07 0 0)
(2.21058e-07 0 0)
(2.22736e-07 0 0)
(2.24202e-07 0 0)
(2.25526e-07 0 0)
(2.2673e-07 0 0)
(2.27839e-07 0 0)
(2.28896e-07 0 0)
(2.29916e-07 0 0)
(2.30907e-07 0 0)
(2.31875e-07 0 0)
(2.32823e-07 0 0)
(2.33752e-07 0 0)
(2.34664e-07 0 0)
(2.35559e-07 0 0)
(2.36441e-07 0 0)
(2.3731e-07 0 0)
(2.38167e-07 0 0)
(2.39015e-07 0 0)
(2.39854e-07 0 0)
(2.40688e-07 0 0)
(2.41517e-07 0 0)
(2.42343e-07 0 0)
(2.43168e-07 0 0)
(2.43995e-07 0 0)
(2.44823e-07 0 0)
(2.45656e-07 0 0)
(2.46495e-07 0 0)
(2.47342e-07 0 0)
(2.48201e-07 0 0)
(2.49082e-07 0 0)
(2.49986e-07 0 0)
(2.50905e-07 0 0)
(2.5184e-07 0 0)
(2.52793e-07 0 0)
(2.53767e-07 0 0)
(2.54763e-07 0 0)
(2.55784e-07 0 0)
(2.56834e-07 0 0)
(2.57917e-07 0 0)
(2.59039e-07 0 0)
(2.60205e-07 0 0)
(2.61425e-07 0 0)
(2.62711e-07 0 0)
(2.6408e-07 0 0)
(2.65554e-07 0 0)
(2.67165e-07 0 0)
(2.68951e-07 0 0)
(2.70958e-07 0 0)
(2.73237e-07 0 0)
(2.75825e-07 0 0)
(2.78741e-07 0 0)
(2.81965e-07 0 0)
(2.85448e-07 0 0)
(2.89131e-07 0 0)
(2.92964e-07 0 0)
(2.96909e-07 0 0)
(3.00943e-07 0 0)
(3.05046e-07 0 0)
(3.09205e-07 0 0)
(3.1341e-07 0 0)
(3.17653e-07 0 0)
(3.21929e-07 0 0)
(3.26234e-07 0 0)
(3.30564e-07 0 0)
(3.34917e-07 0 0)
(3.39292e-07 0 0)
(3.43687e-07 0 0)
(3.481e-07 0 0)
(3.52531e-07 0 0)
(3.56979e-07 0 0)
(3.61442e-07 0 0)
(3.65919e-07 0 0)
(3.70409e-07 0 0)
(3.74909e-07 0 0)
(3.79418e-07 0 0)
(3.83932e-07 0 0)
(3.88448e-07 0 0)
(3.92966e-07 0 0)
(3.97485e-07 0 0)
(4.02004e-07 0 0)
(4.06527e-07 0 0)
(4.11053e-07 0 0)
(4.15585e-07 0 0)
(4.20124e-07 0 0)
(4.24671e-07 0 0)
(4.29228e-07 0 0)
(4.33797e-07 0 0)
(4.38378e-07 0 0)
(4.42974e-07 0 0)
(4.47588e-07 0 0)
(4.52221e-07 0 0)
(4.56876e-07 0 0)
(4.61555e-07 0 0)
(4.66259e-07 0 0)
(4.70987e-07 0 0)
(4.7574e-07 0 0)
(4.80514e-07 0 0)
(4.85308e-07 0 0)
(4.90119e-07 0 0)
(4.94943e-07 0 0)
(4.99777e-07 0 0)
(5.04618e-07 0 0)
(5.09462e-07 0 0)
(5.14309e-07 0 0)
(5.19155e-07 0 0)
(5.24e-07 0 0)
(5.28843e-07 0 0)
(5.33685e-07 0 0)
(5.38525e-07 0 0)
(5.43364e-07 0 0)
(5.48204e-07 0 0)
(5.53045e-07 0 0)
(5.57888e-07 0 0)
(5.62735e-07 0 0)
(5.67587e-07 0 0)
(5.72444e-07 0 0)
(5.77307e-07 0 0)
(5.82177e-07 0 0)
(5.87055e-07 0 0)
(5.9194e-07 0 0)
(5.96833e-07 0 0)
(6.01734e-07 0 0)
(6.06642e-07 0 0)
(6.11559e-07 0 0)
(6.16483e-07 0 0)
(6.21414e-07 0 0)
(6.26353e-07 0 0)
(6.31299e-07 0 0)
(6.36251e-07 0 0)
(6.4121e-07 0 0)
(6.46175e-07 0 0)
(6.51146e-07 0 0)
(6.56123e-07 0 0)
(6.61106e-07 0 0)
(6.66095e-07 0 0)
(6.71089e-07 0 0)
(6.76089e-07 0 0)
(6.81095e-07 0 0)
(6.86106e-07 0 0)
(6.91122e-07 0 0)
(6.96143e-07 0 0)
(7.01169e-07 0 0)
(7.06201e-07 0 0)
(7.11238e-07 0 0)
(7.16279e-07 0 0)
(7.21326e-07 0 0)
(7.26377e-07 0 0)
(7.31434e-07 0 0)
(7.36495e-07 0 0)
(7.41561e-07 0 0)
(7.46631e-07 0 0)
(7.51706e-07 0 0)
(7.56786e-07 0 0)
(7.61871e-07 0 0)
(7.6696e-07 0 0)
(7.72054e-07 0 0)
(7.77152e-07 0 0)
(7.82255e-07 0 0)
(7.87362e-07 0 0)
(7.92473e-07 0 0)
(7.97589e-07 0 0)
(8.02709e-07 0 0)
(8.07834e-07 0 0)
(8.12962e-07 0 0)
(8.18095e-07 0 0)
(8.23232e-07 0 0)
(8.28372e-07 0 0)
(8.33517e-07 0 0)
(8.38666e-07 0 0)
(8.43819e-07 0 0)
(8.48977e-07 0 0)
(8.54138e-07 0 0)
(8.59305e-07 0 0)
(8.64475e-07 0 0)
(8.6965e-07 0 0)
(8.74829e-07 0 0)
(8.80013e-07 0 0)
(8.85201e-07 0 0)
(8.90394e-07 0 0)
(8.9559e-07 0 0)
(9.0079e-07 0 0)
(9.05995e-07 0 0)
(9.11203e-07 0 0)
(9.16415e-07 0 0)
(9.21631e-07 0 0)
(9.26851e-07 0 0)
(9.32076e-07 0 0)
(9.37305e-07 0 0)
(9.42539e-07 0 0)
(9.47778e-07 0 0)
(9.53022e-07 0 0)
(9.5827e-07 0 0)
(9.63523e-07 0 0)
(9.6878e-07 0 0)
(9.7404e-07 0 0)
(9.79301e-07 0 0)
(9.84564e-07 0 0)
(9.89827e-07 0 0)
(9.95088e-07 0 0)
(1.00035e-06 0 0)
(1.0056e-06 0 0)
(1.01085e-06 0 0)
(1.0161e-06 0 0)
(1.02134e-06 0 0)
(1.02657e-06 0 0)
(1.0318e-06 0 0)
(1.03702e-06 0 0)
(1.04224e-06 0 0)
(1.04745e-06 0 0)
(1.05267e-06 0 0)
(1.05788e-06 0 0)
(1.06309e-06 0 0)
(1.06831e-06 0 0)
(1.07353e-06 0 0)
(1.07876e-06 0 0)
(1.084e-06 0 0)
(1.08925e-06 0 0)
(1.09453e-06 0 0)
(1.09981e-06 0 0)
(1.10512e-06 0 0)
(1.11045e-06 0 0)
(1.11581e-06 0 0)
(1.12119e-06 0 0)
(1.12659e-06 0 0)
(1.13202e-06 0 0)
(1.13746e-06 0 0)
(1.14294e-06 0 0)
(1.14843e-06 0 0)
(1.15393e-06 0 0)
(1.15945e-06 0 0)
(1.16498e-06 0 0)
(1.17052e-06 0 0)
(1.17607e-06 0 0)
(1.18162e-06 0 0)
(1.18717e-06 0 0)
(1.19272e-06 0 0)
(1.19826e-06 0 0)
(1.2038e-06 0 0)
(1.20934e-06 0 0)
(1.21487e-06 0 0)
(1.22039e-06 0 0)
(1.22592e-06 0 0)
(1.23143e-06 0 0)
(1.23695e-06 0 0)
(1.24246e-06 0 0)
(1.24796e-06 0 0)
(1.25347e-06 0 0)
(1.25898e-06 0 0)
(1.26448e-06 0 0)
(1.26999e-06 0 0)
(1.27551e-06 0 0)
(1.28102e-06 0 0)
(1.28654e-06 0 0)
(1.29206e-06 0 0)
(1.29759e-06 0 0)
(1.30313e-06 0 0)
(1.30866e-06 0 0)
(1.31421e-06 0 0)
(1.31976e-06 0 0)
(1.32531e-06 0 0)
(1.33088e-06 0 0)
(1.33644e-06 0 0)
(1.34201e-06 0 0)
(1.34759e-06 0 0)
(1.35317e-06 0 0)
(1.35876e-06 0 0)
(1.36435e-06 0 0)
(1.36995e-06 0 0)
(1.37555e-06 0 0)
(1.38116e-06 0 0)
(1.38677e-06 0 0)
(1.39238e-06 0 0)
(1.398e-06 0 0)
(1.40362e-06 0 0)
(1.40925e-06 0 0)
(1.41488e-06 0 0)
(1.42052e-06 0 0)
(1.42616e-06 0 0)
(1.4318e-06 0 0)
(1.43745e-06 0 0)
(1.4431e-06 0 0)
(1.44875e-06 0 0)
(1.45441e-06 0 0)
(1.46007e-06 0 0)
(1.46573e-06 0 0)
(1.4714e-06 0 0)
(1.47707e-06 0 0)
(1.48275e-06 0 0)
(1.48843e-06 0 0)
(1.49411e-06 0 0)
(1.4998e-06 0 0)
(1.50548e-06 0 0)
(1.51118e-06 0 0)
(1.51687e-06 0 0)
(1.52257e-06 0 0)
(1.52828e-06 0 0)
(1.53398e-06 0 0)
(1.53969e-06 0 0)
(1.54541e-06 0 0)
(1.55112e-06 0 0)
(1.55684e-06 0 0)
(1.56256e-06 0 0)
(1.56829e-06 0 0)
(1.57402e-06 0 0)
(1.57975e-06 0 0)
(1.58549e-06 0 0)
(1.59123e-06 0 0)
(1.59697e-06 0 0)
(1.60272e-06 0 0)
(1.60847e-06 0 0)
(1.61422e-06 0 0)
(1.61998e-06 0 0)
(1.62574e-06 0 0)
(1.63151e-06 0 0)
(1.63727e-06 0 0)
(1.64305e-06 0 0)
(1.64882e-06 0 0)
(1.6546e-06 0 0)
(1.66039e-06 0 0)
(1.66617e-06 0 0)
(1.67196e-06 0 0)
(1.67776e-06 0 0)
(1.68356e-06 0 0)
(1.68936e-06 0 0)
(1.69516e-06 0 0)
(1.70097e-06 0 0)
(1.70679e-06 0 0)
(1.71261e-06 0 0)
(1.71843e-06 0 0)
(1.72426e-06 0 0)
(1.73009e-06 0 0)
(1.73592e-06 0 0)
(1.74176e-06 0 0)
(1.7476e-06 0 0)
(1.75344e-06 0 0)
(1.75929e-06 0 0)
(1.76513e-06 0 0)
(1.77098e-06 0 0)
(1.77682e-06 0 0)
(1.78266e-06 0 0)
(1.7885e-06 0 0)
(1.79434e-06 0 0)
(1.80017e-06 0 0)
(1.806e-06 0 0)
(1.81183e-06 0 0)
(1.81765e-06 0 0)
(1.82346e-06 0 0)
(1.82927e-06 0 0)
(1.83507e-06 0 0)
(1.84087e-06 0 0)
(1.84666e-06 0 0)
(1.85245e-06 0 0)
(1.85823e-06 0 0)
(1.86402e-06 0 0)
(1.86981e-06 0 0)
(1.8756e-06 0 0)
(1.88139e-06 0 0)
(1.88719e-06 0 0)
(1.893e-06 0 0)
(1.89882e-06 0 0)
(1.90465e-06 0 0)
(1.91049e-06 0 0)
(1.91636e-06 0 0)
(1.92224e-06 0 0)
(1.92814e-06 0 0)
(1.93407e-06 0 0)
(1.94001e-06 0 0)
(1.94599e-06 0 0)
(1.95199e-06 0 0)
(1.95801e-06 0 0)
(1.96406e-06 0 0)
(1.97013e-06 0 0)
(1.97623e-06 0 0)
(1.98235e-06 0 0)
(1.98849e-06 0 0)
(1.99465e-06 0 0)
(2.00082e-06 0 0)
(2.00701e-06 0 0)
(2.01321e-06 0 0)
(2.01942e-06 0 0)
(2.02563e-06 0 0)
(2.03186e-06 0 0)
(2.03808e-06 0 0)
(2.0443e-06 0 0)
(2.05053e-06 0 0)
(2.05675e-06 0 0)
(2.06297e-06 0 0)
(2.06919e-06 0 0)
(2.07541e-06 0 0)
(2.08162e-06 0 0)
(2.08782e-06 0 0)
(2.09403e-06 0 0)
(2.10023e-06 0 0)
(2.10643e-06 0 0)
(2.11262e-06 0 0)
(2.11882e-06 0 0)
(2.12501e-06 0 0)
(2.13121e-06 0 0)
(2.1374e-06 0 0)
(2.1436e-06 0 0)
(2.1498e-06 0 0)
(2.156e-06 0 0)
(2.16221e-06 0 0)
(2.16842e-06 0 0)
(2.17463e-06 0 0)
(2.18085e-06 0 0)
(2.18708e-06 0 0)
(2.19331e-06 0 0)
(2.19955e-06 0 0)
(2.2058e-06 0 0)
(2.21205e-06 0 0)
(2.2183e-06 0 0)
(2.22457e-06 0 0)
(2.23084e-06 0 0)
(2.23711e-06 0 0)
(2.2434e-06 0 0)
(2.24969e-06 0 0)
(2.25598e-06 0 0)
(2.26228e-06 0 0)
(2.26859e-06 0 0)
(2.27491e-06 0 0)
(2.28123e-06 0 0)
(2.28755e-06 0 0)
(2.29388e-06 0 0)
(2.30022e-06 0 0)
(2.30656e-06 0 0)
(2.31291e-06 0 0)
(2.31926e-06 0 0)
(2.32562e-06 0 0)
(2.33198e-06 0 0)
(2.33835e-06 0 0)
(2.34473e-06 0 0)
(2.3511e-06 0 0)
(2.35749e-06 0 0)
(2.36388e-06 0 0)
(2.37027e-06 0 0)
(2.37667e-06 0 0)
(2.38307e-06 0 0)
(2.38948e-06 0 0)
(2.39589e-06 0 0)
(2.40231e-06 0 0)
(2.40873e-06 0 0)
(2.41516e-06 0 0)
(2.42159e-06 0 0)
(2.42803e-06 0 0)
(2.43447e-06 0 0)
(2.44092e-06 0 0)
(2.44737e-06 0 0)
(2.45382e-06 0 0)
(2.46028e-06 0 0)
(2.46675e-06 0 0)
(2.47322e-06 0 0)
(2.47969e-06 0 0)
(2.48617e-06 0 0)
(2.49266e-06 0 0)
(2.49914e-06 0 0)
(2.50564e-06 0 0)
(2.51213e-06 0 0)
(2.51864e-06 0 0)
(2.52514e-06 0 0)
(2.53166e-06 0 0)
(2.53817e-06 0 0)
(2.5447e-06 0 0)
(2.55122e-06 0 0)
(2.55776e-06 0 0)
(2.56429e-06 0 0)
(2.57084e-06 0 0)
(2.57738e-06 0 0)
(2.58394e-06 0 0)
(2.59049e-06 0 0)
(2.59706e-06 0 0)
(2.60363e-06 0 0)
(2.6102e-06 0 0)
(2.61678e-06 0 0)
(2.62336e-06 0 0)
(2.62996e-06 0 0)
(2.63655e-06 0 0)
(2.64315e-06 0 0)
(2.64976e-06 0 0)
(2.65638e-06 0 0)
(2.663e-06 0 0)
(2.66962e-06 0 0)
(2.67625e-06 0 0)
(2.68289e-06 0 0)
(2.68953e-06 0 0)
(2.69618e-06 0 0)
(2.70283e-06 0 0)
(2.70949e-06 0 0)
(2.71615e-06 0 0)
(2.72281e-06 0 0)
(2.72948e-06 0 0)
(2.73615e-06 0 0)
(2.74282e-06 0 0)
(2.74949e-06 0 0)
(2.75617e-06 0 0)
(2.76284e-06 0 0)
(2.76952e-06 0 0)
(2.77619e-06 0 0)
(2.78286e-06 0 0)
(2.78953e-06 0 0)
(2.7962e-06 0 0)
(2.80287e-06 0 0)
(2.80953e-06 0 0)
(2.81619e-06 0 0)
(2.82285e-06 0 0)
(2.8295e-06 0 0)
(2.83616e-06 0 0)
(2.84281e-06 0 0)
(2.84946e-06 0 0)
(2.85611e-06 0 0)
(2.86276e-06 0 0)
(2.86941e-06 0 0)
(2.87607e-06 0 0)
(2.88273e-06 0 0)
(2.8894e-06 0 0)
(2.89608e-06 0 0)
(2.90277e-06 0 0)
(2.90947e-06 0 0)
(2.91618e-06 0 0)
(2.92291e-06 0 0)
(2.92966e-06 0 0)
(2.93642e-06 0 0)
(2.94321e-06 0 0)
(2.95002e-06 0 0)
(2.95686e-06 0 0)
(2.96372e-06 0 0)
(2.9706e-06 0 0)
(2.97752e-06 0 0)
(2.98446e-06 0 0)
(2.99143e-06 0 0)
(2.99843e-06 0 0)
(3.00545e-06 0 0)
(3.01251e-06 0 0)
(3.01959e-06 0 0)
(3.0267e-06 0 0)
(3.03383e-06 0 0)
(3.04099e-06 0 0)
(3.04816e-06 0 0)
(3.05536e-06 0 0)
(3.06257e-06 0 0)
(3.0698e-06 0 0)
(3.07705e-06 0 0)
(3.0843e-06 0 0)
(3.09157e-06 0 0)
(3.09884e-06 0 0)
(3.10612e-06 0 0)
(3.11341e-06 0 0)
(3.1207e-06 0 0)
(3.128e-06 0 0)
(3.13529e-06 0 0)
(3.14259e-06 0 0)
(3.14989e-06 0 0)
(3.15719e-06 0 0)
(3.16449e-06 0 0)
(3.17179e-06 0 0)
(3.17909e-06 0 0)
(3.1864e-06 0 0)
(3.1937e-06 0 0)
(3.20101e-06 0 0)
(3.20832e-06 0 0)
(3.21563e-06 0 0)
(3.22295e-06 0 0)
(3.23027e-06 0 0)
(3.23759e-06 0 0)
(3.24492e-06 0 0)
(3.25226e-06 0 0)
(3.2596e-06 0 0)
(3.26695e-06 0 0)
(3.27431e-06 0 0)
(3.28167e-06 0 0)
(3.28905e-06 0 0)
(3.29643e-06 0 0)
(3.30383e-06 0 0)
(3.31123e-06 0 0)
(3.31864e-06 0 0)
(3.32606e-06 0 0)
(3.3335e-06 0 0)
(3.34094e-06 0 0)
(3.34839e-06 0 0)
(3.35586e-06 0 0)
(3.36333e-06 0 0)
(3.37082e-06 0 0)
(3.37831e-06 0 0)
(3.38582e-06 0 0)
(3.39334e-06 0 0)
(3.40086e-06 0 0)
(3.4084e-06 0 0)
(3.41595e-06 0 0)
(3.42351e-06 0 0)
(3.43108e-06 0 0)
(3.43866e-06 0 0)
(3.44624e-06 0 0)
(3.45384e-06 0 0)
(3.46145e-06 0 0)
(3.46907e-06 0 0)
(3.4767e-06 0 0)
(3.48434e-06 0 0)
(3.49199e-06 0 0)
(3.49965e-06 0 0)
(3.50732e-06 0 0)
(3.515e-06 0 0)
(3.52269e-06 0 0)
(3.53039e-06 0 0)
(3.5381e-06 0 0)
(3.54581e-06 0 0)
(3.55354e-06 0 0)
(3.56128e-06 0 0)
(3.56903e-06 0 0)
(3.57679e-06 0 0)
(3.58455e-06 0 0)
(3.59233e-06 0 0)
(3.60012e-06 0 0)
(3.60792e-06 0 0)
(3.61572e-06 0 0)
(3.62354e-06 0 0)
(3.63137e-06 0 0)
(3.63921e-06 0 0)
(3.64706e-06 0 0)
(3.65491e-06 0 0)
(3.66278e-06 0 0)
(3.67066e-06 0 0)
(3.67855e-06 0 0)
(3.68645e-06 0 0)
(3.69436e-06 0 0)
(3.70228e-06 0 0)
(3.71021e-06 0 0)
(3.71815e-06 0 0)
(3.7261e-06 0 0)
(3.73407e-06 0 0)
(3.74204e-06 0 0)
(3.75003e-06 0 0)
(3.75802e-06 0 0)
(3.76603e-06 0 0)
(3.77405e-06 0 0)
(3.78208e-06 0 0)
(3.79012e-06 0 0)
(3.79818e-06 0 0)
(3.80624e-06 0 0)
(3.81432e-06 0 0)
(3.82241e-06 0 0)
(3.83051e-06 0 0)
(3.83863e-06 0 0)
(3.84675e-06 0 0)
(3.85489e-06 0 0)
(3.86305e-06 0 0)
(3.87121e-06 0 0)
(3.87939e-06 0 0)
(3.88758e-06 0 0)
(3.89578e-06 0 0)
(3.904e-06 0 0)
(3.91223e-06 0 0)
(3.92047e-06 0 0)
(3.92872e-06 0 0)
(3.93699e-06 0 0)
(3.94526e-06 0 0)
(3.95355e-06 0 0)
(3.96185e-06 0 0)
(3.97017e-06 0 0)
(3.97849e-06 0 0)
(3.98682e-06 0 0)
(3.99517e-06 0 0)
(4.00352e-06 0 0)
(4.01189e-06 0 0)
(4.02026e-06 0 0)
(4.02864e-06 0 0)
(4.03703e-06 0 0)
(4.04543e-06 0 0)
(4.05383e-06 0 0)
(4.06224e-06 0 0)
(4.07066e-06 0 0)
(4.07909e-06 0 0)
(4.08752e-06 0 0)
(4.09596e-06 0 0)
(4.1044e-06 0 0)
(4.11285e-06 0 0)
(4.12131e-06 0 0)
(4.12978e-06 0 0)
(4.13825e-06 0 0)
(4.14674e-06 0 0)
(4.15523e-06 0 0)
(4.16373e-06 0 0)
(4.17225e-06 0 0)
(4.18077e-06 0 0)
(4.18931e-06 0 0)
(4.19787e-06 0 0)
(4.20644e-06 0 0)
(4.21503e-06 0 0)
(4.22364e-06 0 0)
(4.23226e-06 0 0)
(4.24092e-06 0 0)
(4.24959e-06 0 0)
(4.25829e-06 0 0)
(4.26702e-06 0 0)
(4.27578e-06 0 0)
(4.28457e-06 0 0)
(4.2934e-06 0 0)
(4.30226e-06 0 0)
(4.31115e-06 0 0)
(4.32008e-06 0 0)
(4.32905e-06 0 0)
(4.33806e-06 0 0)
(4.3471e-06 0 0)
(4.35619e-06 0 0)
(4.36532e-06 0 0)
(4.3745e-06 0 0)
(4.38371e-06 0 0)
(4.39297e-06 0 0)
(4.40226e-06 0 0)
(4.4116e-06 0 0)
(4.42097e-06 0 0)
(4.43038e-06 0 0)
(4.43984e-06 0 0)
(4.44932e-06 0 0)
(4.45884e-06 0 0)
(4.4684e-06 0 0)
(4.47799e-06 0 0)
(4.4876e-06 0 0)
(4.49725e-06 0 0)
(4.50692e-06 0 0)
(4.51662e-06 0 0)
(4.52634e-06 0 0)
(4.53609e-06 0 0)
(4.54586e-06 0 0)
(4.55565e-06 0 0)
(4.56546e-06 0 0)
(4.57528e-06 0 0)
(4.58513e-06 0 0)
(4.595e-06 0 0)
(4.60488e-06 0 0)
(4.61478e-06 0 0)
(4.6247e-06 0 0)
(4.63463e-06 0 0)
(4.64459e-06 0 0)
(4.65456e-06 0 0)
(4.66455e-06 0 0)
(4.67456e-06 0 0)
(4.68459e-06 0 0)
(4.69464e-06 0 0)
(4.70471e-06 0 0)
(4.7148e-06 0 0)
(4.72491e-06 0 0)
(4.73505e-06 0 0)
(4.74521e-06 0 0)
(4.7554e-06 0 0)
(4.76561e-06 0 0)
(4.77584e-06 0 0)
(4.78611e-06 0 0)
(4.79639e-06 0 0)
(4.80671e-06 0 0)
(4.81706e-06 0 0)
(4.82743e-06 0 0)
(4.83784e-06 0 0)
(4.84827e-06 0 0)
(4.85874e-06 0 0)
(4.86923e-06 0 0)
(4.87976e-06 0 0)
(4.89032e-06 0 0)
(4.90091e-06 0 0)
(4.91153e-06 0 0)
(4.92219e-06 0 0)
(4.93287e-06 0 0)
(4.94359e-06 0 0)
(4.95435e-06 0 0)
(4.96514e-06 0 0)
(4.97596e-06 0 0)
(4.98682e-06 0 0)
(4.99771e-06 0 0)
(5.00863e-06 0 0)
(5.01959e-06 0 0)
(5.03058e-06 0 0)
(5.04161e-06 0 0)
(5.05268e-06 0 0)
(5.06378e-06 0 0)
(5.07491e-06 0 0)
(5.08608e-06 0 0)
(5.09728e-06 0 0)
(5.10852e-06 0 0)
(5.11979e-06 0 0)
(5.1311e-06 0 0)
(5.14245e-06 0 0)
(5.15383e-06 0 0)
(5.16524e-06 0 0)
(5.17669e-06 0 0)
(5.18818e-06 0 0)
(5.1997e-06 0 0)
(5.21125e-06 0 0)
(5.22284e-06 0 0)
(5.23446e-06 0 0)
(5.24611e-06 0 0)
(5.2578e-06 0 0)
(5.26952e-06 0 0)
(5.28126e-06 0 0)
(5.29304e-06 0 0)
(5.30485e-06 0 0)
(5.31668e-06 0 0)
(5.32854e-06 0 0)
(5.34042e-06 0 0)
(5.35232e-06 0 0)
(5.36424e-06 0 0)
(5.37618e-06 0 0)
(5.38813e-06 0 0)
(5.40008e-06 0 0)
(5.41204e-06 0 0)
(5.424e-06 0 0)
(5.43595e-06 0 0)
(5.44788e-06 0 0)
(5.45979e-06 0 0)
(5.47166e-06 0 0)
(5.4835e-06 0 0)
(5.49528e-06 0 0)
(5.50699e-06 0 0)
(5.51862e-06 0 0)
(5.53015e-06 0 0)
(5.54156e-06 0 0)
(5.55284e-06 0 0)
(5.56396e-06 0 0)
(5.5749e-06 0 0)
(5.58564e-06 0 0)
(5.59614e-06 0 0)
(5.60638e-06 0 0)
(5.61634e-06 0 0)
(5.62599e-06 0 0)
(5.63529e-06 0 0)
(5.64422e-06 0 0)
(5.65276e-06 0 0)
(5.66088e-06 0 0)
(5.66856e-06 0 0)
(5.67579e-06 0 0)
(5.68255e-06 0 0)
(5.68884e-06 0 0)
(5.69464e-06 0 0)
(5.69996e-06 0 0)
(5.70481e-06 0 0)
(5.70919e-06 0 0)
(5.71314e-06 0 0)
(5.71664e-06 0 0)
(5.71974e-06 0 0)
(5.72246e-06 0 0)
(5.72482e-06 0 0)
(5.72686e-06 0 0)
(5.7286e-06 0 0)
(5.73007e-06 0 0)
(5.7313e-06 0 0)
(5.73232e-06 0 0)
(5.73314e-06 0 0)
(5.73382e-06 0 0)
(5.73436e-06 0 0)
(5.7348e-06 0 0)
(5.73515e-06 0 0)
(5.73546e-06 0 0)
(5.73577e-06 0 0)
(5.73617e-06 0 0)
(5.73679e-06 0 0)
(5.73786e-06 0 0)
(5.73977e-06 0 0)
(5.74322e-06 0 0)
(5.74947e-06 0 0)
(5.76078e-06 0 0)
(5.78109e-06 0 0)
(5.81726e-06 0 0)
(5.88088e-06 0 0)
(5.99048e-06 0 0)
(6.17294e-06 0 0)
(6.46042e-06 0 0)
(6.87667e-06 0 0)
(7.41171e-06 0 0)
(8.00312e-06 0 0)
(8.55473e-06 0 0)
(8.98949e-06 0 0)
(9.28554e-06 0 0)
(9.46595e-06 0 0)
(9.56797e-06 0 0)
(9.62305e-06 0 0)
(9.65195e-06 0 0)
(9.66681e-06 0 0)
(9.67429e-06 0 0)
(9.67794e-06 0 0)
(9.67963e-06 0 0)
(9.68031e-06 0 0)
(9.68048e-06 0 0)
(9.6804e-06 0 0)
(9.6802e-06 0 0)
(9.67994e-06 0 0)
(9.67968e-06 0 0)
(9.67942e-06 0 0)
(9.67918e-06 0 0)
(9.67895e-06 0 0)
(9.67876e-06 0 0)
(9.67859e-06 0 0)
(9.67846e-06 0 0)
(9.67835e-06 0 0)
(9.67829e-06 0 0)
(9.67826e-06 0 0)
(9.67826e-06 0 0)
(9.67827e-06 0 0)
(9.67829e-06 0 0)
(9.67838e-06 0 0)
(9.67851e-06 0 0)
(9.67867e-06 0 0)
(9.67885e-06 0 0)
(9.67906e-06 0 0)
(9.67929e-06 0 0)
(9.67955e-06 0 0)
(9.67983e-06 0 0)
(9.68013e-06 0 0)
(9.68044e-06 0 0)
(9.68077e-06 0 0)
(9.68112e-06 0 0)
(9.68147e-06 0 0)
(9.68184e-06 0 0)
(9.68221e-06 0 0)
(9.68259e-06 0 0)
(9.68297e-06 0 0)
(9.68336e-06 0 0)
(9.68374e-06 0 0)
(9.68412e-06 0 0)
(9.6845e-06 0 0)
(9.68487e-06 0 0)
(9.68523e-06 0 0)
(9.68559e-06 0 0)
(9.68594e-06 0 0)
(9.68627e-06 0 0)
(9.6866e-06 0 0)
(9.68692e-06 0 0)
(9.68723e-06 0 0)
(9.68752e-06 0 0)
(9.6878e-06 0 0)
(9.68808e-06 0 0)
(9.68834e-06 0 0)
(9.68858e-06 0 0)
(9.68882e-06 0 0)
(9.68905e-06 0 0)
(9.68927e-06 0 0)
(9.68947e-06 0 0)
(9.68967e-06 0 0)
(9.68986e-06 0 0)
(9.69004e-06 0 0)
(9.69021e-06 0 0)
(9.69038e-06 0 0)
(9.69054e-06 0 0)
(9.69069e-06 0 0)
(9.69084e-06 0 0)
(9.69099e-06 0 0)
(9.69113e-06 0 0)
(9.69126e-06 0 0)
(9.69139e-06 0 0)
(9.69152e-06 0 0)
(9.69165e-06 0 0)
(9.69178e-06 0 0)
(9.6919e-06 0 0)
(9.69202e-06 0 0)
(9.69214e-06 0 0)
(9.69226e-06 0 0)
(9.69238e-06 0 0)
(9.6925e-06 0 0)
(9.69262e-06 0 0)
(9.69274e-06 0 0)
(9.69285e-06 0 0)
(9.69297e-06 0 0)
(9.69309e-06 0 0)
(9.6932e-06 0 0)
(9.69332e-06 0 0)
(9.69343e-06 0 0)
)
;

boundaryField
{
    inlet
    {
        type            fixedValue;
        value           uniform (0 0 0);
    }
    outlet
    {
        type            zeroGradient;
    }
    emptyWalls
    {
        type            empty;
    }
}


// ************************************************************************* //
