/*--------------------------------*- C++ -*----------------------------------*\
  =========                 |
  \\      /  F ield         | OpenFOAM: The Open Source CFD Toolbox
   \\    /   O peration     | Website:  https://openfoam.org
    \\  /    A nd           | Version:  9
     \\/     M anipulation  |
\*---------------------------------------------------------------------------*/
FoamFile
{
    format      ascii;
    class       volScalarField;
    location    "17600";
    object      Sa;
}
// * * * * * * * * * * * * * * * * * * * * * * * * * * * * * * * * * * * * * //

dimensions      [0 0 0 0 0 0 0];

internalField   nonuniform List<scalar> 
1000
(
0.549348
0.548152
0.546354
0.544792
0.543021
0.541437
0.539695
0.538042
0.536331
0.534648
0.532968
0.53133
0.529728
0.528207
0.526772
0.525452
0.524261
0.523197
0.522291
0.521431
0.520679
0.519293
0.51554
0.501404
0.423623
0.169207
0.0877099
0.0679271
0.0592635
0.0540744
0.0504346
0.047633
0.0453631
0.0434347
0.0417582
0.040263
0.0389245
0.0377084
0.0366079
0.0356011
0.0346831
0.0338402
0.0330657
0.0323502
0.0316867
0.0310718
0.0304969
0.029962
0.0294582
0.0289878
0.0285427
0.028125
0.0277232
0.0273407
0.0269818
0.0266453
0.0263309
0.0260373
0.025764
0.0255098
0.0252738
0.0250551
0.0248527
0.0246663
0.0244962
0.0243447
0.024216
0.0241151
0.0240437
0.0239941
0.0239483
0.0239007
0.023852
0.0238027
0.0237531
0.0237035
0.023654
0.0236047
0.0235558
0.0235073
0.0234592
0.0234116
0.0233644
0.0233177
0.0232713
0.0232253
0.0231796
0.0231342
0.0230891
0.0230443
0.0229999
0.022956
0.0229127
0.0228699
0.0228277
0.0227859
0.0227446
0.0227036
0.0226629
0.0226224
0.0225821
0.0225418
0.0225016
0.0224618
0.0224227
0.0223848
0.0223486
0.0223144
0.0222824
0.0222529
0.0222256
0.0222003
0.0221766
0.0221543
0.0221329
0.022112
0.0220914
0.0220706
0.0220491
0.0220266
0.0220025
0.0219763
0.0219476
0.0219159
0.0218812
0.0218433
0.0218022
0.0217584
0.0217122
0.0216642
0.021615
0.0215654
0.0215159
0.0214672
0.0214197
0.0213739
0.0213299
0.0212881
0.0212483
0.0212105
0.0211746
0.0211405
0.0211078
0.0210763
0.0210459
0.0210162
0.0209871
0.0209583
0.0209298
0.0209013
0.0208729
0.0208444
0.0208158
0.0207871
0.0207583
0.0207294
0.0207005
0.0206715
0.0206424
0.0206134
0.0205844
0.0205555
0.0205266
0.0204979
0.0204693
0.0204408
0.0204125
0.0203844
0.0203564
0.0203286
0.0203009
0.0202735
0.0202462
0.0202192
0.0201923
0.0201656
0.020139
0.0201127
0.0200865
0.0200606
0.0200348
0.0200092
0.0199837
0.0199585
0.0199334
0.0199086
0.0198838
0.0198593
0.0198349
0.0198107
0.0197867
0.0197629
0.0197392
0.0197156
0.0196923
0.0196691
0.019646
0.0196232
0.0196005
0.0195779
0.0195555
0.0195333
0.0195113
0.0194894
0.0194677
0.0194462
0.0194248
0.0194035
0.0193824
0.0193615
0.0193406
0.0193199
0.0192993
0.0192788
0.0192584
0.0192381
0.019218
0.019198
0.019178
0.0191583
0.0191386
0.0191191
0.0190996
0.0190803
0.0190611
0.0190419
0.0190229
0.0190039
0.0189849
0.0189661
0.0189474
0.0189288
0.0189105
0.0188924
0.0188748
0.0188575
0.0188407
0.0188245
0.0188089
0.018794
0.0187798
0.0187663
0.0187535
0.0187415
0.0187301
0.0187193
0.0187091
0.0186993
0.0186898
0.0186805
0.0186712
0.0186619
0.0186523
0.0186422
0.0186315
0.0186201
0.0186077
0.0185943
0.0185797
0.0185638
0.0185467
0.0185282
0.0185085
0.0184875
0.0184655
0.0184424
0.0184185
0.018394
0.018369
0.0183437
0.0183184
0.0182931
0.0182681
0.0182436
0.0182195
0.0181961
0.0181733
0.0181513
0.01813
0.0181094
0.0180895
0.0180703
0.0180516
0.0180336
0.018016
0.0179988
0.017982
0.0179655
0.0179492
0.0179331
0.0179171
0.0179013
0.0178854
0.0178696
0.0178538
0.017838
0.0178222
0.0178063
0.0177904
0.0177744
0.0177584
0.0177424
0.0177263
0.0177102
0.0176941
0.017678
0.0176619
0.0176458
0.0176298
0.0176137
0.0175977
0.0175817
0.0175658
0.0175499
0.0175341
0.0175183
0.0175026
0.0174869
0.0174713
0.0174558
0.0174403
0.0174249
0.0174096
0.0173944
0.0173792
0.0173641
0.0173491
0.0173341
0.0173192
0.0173044
0.0172897
0.0172751
0.0172605
0.017246
0.0172316
0.0172172
0.017203
0.0171888
0.0171747
0.0171606
0.0171467
0.0171328
0.017119
0.0171052
0.0170916
0.017078
0.0170646
0.0170511
0.0170378
0.0170245
0.0170114
0.0169982
0.0169852
0.0169722
0.0169594
0.0169465
0.0169338
0.0169211
0.0169085
0.0168959
0.0168834
0.0168709
0.0168586
0.0168462
0.016834
0.0168217
0.0168096
0.0167975
0.0167854
0.0167734
0.0167614
0.0167495
0.0167376
0.0167258
0.016714
0.0167023
0.0166906
0.016679
0.0166675
0.016656
0.0166447
0.0166335
0.0166224
0.0166114
0.0166007
0.0165901
0.0165798
0.0165697
0.0165599
0.0165504
0.0165412
0.0165323
0.0165238
0.0165156
0.0165077
0.0165001
0.0164928
0.0164859
0.0164792
0.0164727
0.0164664
0.0164602
0.0164542
0.0164481
0.016442
0.0164359
0.0164296
0.016423
0.0164162
0.0164089
0.0164013
0.0163932
0.0163846
0.0163753
0.0163655
0.016355
0.0163439
0.0163321
0.0163197
0.0163066
0.016293
0.0162788
0.0162641
0.016249
0.0162335
0.0162177
0.0162017
0.0161856
0.0161694
0.0161532
0.0161371
0.0161211
0.0161052
0.0160897
0.0160743
0.0160593
0.0160446
0.0160302
0.0160161
0.0160024
0.0159889
0.0159758
0.015963
0.0159504
0.0159381
0.015926
0.0159141
0.0159024
0.0158908
0.0158794
0.0158681
0.0158568
0.0158456
0.0158345
0.0158234
0.0158124
0.0158013
0.0157902
0.0157792
0.0157681
0.0157571
0.015746
0.0157348
0.0157237
0.0157126
0.0157014
0.0156903
0.0156791
0.0156679
0.0156567
0.0156455
0.0156343
0.0156231
0.015612
0.0156008
0.0155897
0.0155785
0.0155674
0.0155564
0.0155453
0.0155343
0.0155233
0.0155123
0.0155014
0.0154905
0.0154796
0.0154688
0.015458
0.0154473
0.0154366
0.0154259
0.0154153
0.0154047
0.0153941
0.0153836
0.0153732
0.0153628
0.0153524
0.0153421
0.0153318
0.0153216
0.0153114
0.0153013
0.0152912
0.0152811
0.0152711
0.0152611
0.0152512
0.0152413
0.0152315
0.0152217
0.0152119
0.0152022
0.0151926
0.015183
0.0151734
0.0151638
0.0151543
0.0151449
0.0151355
0.0151261
0.0151167
0.0151074
0.0150981
0.0150889
0.0150797
0.0150705
0.0150613
0.0150522
0.0150431
0.015034
0.015025
0.015016
0.015007
0.0149981
0.0149891
0.0149802
0.0149713
0.0149625
0.0149537
0.0149449
0.0149361
0.0149274
0.0149187
0.0149101
0.0149015
0.0148929
0.0148845
0.0148761
0.0148678
0.0148595
0.0148514
0.0148434
0.0148355
0.0148277
0.01482
0.0148125
0.0148052
0.014798
0.0147909
0.0147841
0.0147773
0.0147708
0.0147644
0.0147582
0.0147522
0.0147463
0.0147405
0.0147349
0.0147294
0.0147239
0.0147185
0.0147132
0.0147079
0.0147026
0.0146973
0.0146918
0.0146864
0.0146807
0.014675
0.014669
0.0146628
0.0146564
0.0146497
0.0146427
0.0146354
0.0146278
0.0146198
0.0146115
0.0146028
0.0145937
0.0145842
0.0145744
0.0145642
0.0145536
0.0145428
0.0145316
0.0145202
0.0145085
0.0144966
0.0144846
0.0144723
0.01446
0.0144476
0.0144352
0.0144227
0.0144103
0.0143979
0.0143856
0.0143733
0.0143612
0.0143492
0.0143374
0.0143257
0.0143142
0.0143028
0.0142916
0.0142806
0.0142697
0.014259
0.0142484
0.0142379
0.0142276
0.0142174
0.0142073
0.0141973
0.0141874
0.0141775
0.0141678
0.014158
0.0141484
0.0141387
0.0141291
0.0141195
0.01411
0.0141004
0.0140908
0.0140813
0.0140717
0.0140621
0.0140526
0.014043
0.0140334
0.0140238
0.0140142
0.0140046
0.0139949
0.0139853
0.0139757
0.013966
0.0139564
0.0139467
0.0139372
0.0139275
0.013918
0.0139084
0.0138989
0.0138894
0.0138799
0.0138706
0.0138612
0.0138521
0.0138429
0.0138338
0.0138249
0.0138161
0.0138076
0.013799
0.0137908
0.0137828
0.0137749
0.0137675
0.0137601
0.0137532
0.0137466
0.0137403
0.0137345
0.0137288
0.0137238
0.013719
0.0137147
0.0137108
0.0137071
0.0137041
0.0137011
0.0136987
0.0136966
0.0136946
0.0136931
0.0136917
0.0136906
0.0136896
0.0136887
0.013688
0.0136871
0.0136862
0.013685
0.0136829
0.0136797
0.0136738
0.0136636
0.0136455
0.0136139
0.0135605
0.0134735
0.0133423
0.013166
0.0129658
0.0127833
0.012652
0.0125757
0.012537
0.0125187
0.0125101
0.012506
0.0125043
0.0125034
0.0125032
0.0125032
0.0125034
0.0125037
0.012504
0.0125043
0.0125047
0.0125051
0.0125055
0.0125059
0.0125064
0.0125068
0.0125073
0.0125079
0.0125084
0.012509
0.0125097
0.0125103
0.0125111
0.0125118
0.0125126
0.0125135
0.0125144
0.0125154
0.0125165
0.0125176
0.0125188
0.01252
0.0125214
0.0125228
0.0125243
0.0125258
0.0125275
0.0125293
0.0125311
0.012533
0.012535
0.0125371
0.0125392
0.0125415
0.0125437
0.0125461
0.0125485
0.012551
0.0125535
0.012556
0.0125585
0.0125611
0.0125636
0.0125662
0.0125687
0.0125712
0.0125736
0.012576
0.0125783
0.0125805
0.0125826
0.0125845
0.0125864
0.0125881
0.0125896
0.012591
0.0125922
0.0125932
0.0125941
0.0125947
0.0125951
0.0125953
0.0125953
0.0125953
0.0125952
0.0125947
0.0125939
0.0125929
0.0125917
0.0125904
0.0125889
0.0125873
0.0125856
0.0125837
0.0125817
0.0125797
0.0125775
0.0125754
0.0125731
0.0125709
0.0125686
0.0125663
0.0125641
0.0125618
0.0125596
0.0125575
0.0125554
0.0125534
0.0125514
0.0125495
0.0125477
0.012546
0.0125443
0.0125428
0.0125413
0.0125399
0.0125386
0.0125374
0.0125363
0.0125352
0.0125342
0.0125332
0.0125324
0.0125315
0.0125308
0.01253
0.0125294
0.0125287
0.0125281
0.0125275
0.012527
0.0125264
0.0125259
0.0125254
0.0125249
0.0125244
0.0125239
0.0125234
0.0125229
0.0125225
0.012522
0.0125215
0.012521
0.0125205
0.01252
0.0125195
0.012519
0.0125185
0.012518
0.0125174
0.0125169
0.0125164
0.0125158
0.0125153
0.0125148
0.0125142
0.0125137
0.0125132
0.0125126
0.0125121
0.0125116
0.0125111
0.0125105
0.01251
0.0125095
0.012509
0.0125085
0.0125081
0.0125076
0.0125071
0.0125067
0.0125062
0.0125058
0.0125054
0.012505
0.0125046
0.0125042
0.0125039
0.0125035
0.0125032
0.0125029
0.0125026
0.0125023
0.012502
0.0125018
0.0125015
0.0125013
0.0125011
0.0125009
0.0125007
0.0125006
0.0125004
0.0125003
0.0125002
0.0125001
0.0125
0.0125
0.0124999
0.0124999
0.0124999
0.0124999
0.0124999
0.0124999
0.0125
0.0125
0.0125001
0.0125002
0.0125003
0.0125004
0.0125006
0.0125007
0.0125009
0.0125011
0.0125012
0.0125015
0.0125017
0.0125019
0.0125022
0.0125024
0.0125027
0.012503
0.0125033
0.0125036
0.012504
0.0125043
0.0125047
0.0125051
0.0125055
0.012506
0.0125065
0.012507
0.0125075
0.0125081
0.0125086
0.0125093
0.0125099
0.0125106
0.0125114
0.0125122
0.012513
0.0125139
0.0125148
0.0125158
0.0125169
0.012518
0.0125192
0.0125204
0.0125217
0.0125231
0.0125245
0.012526
0.0125276
0.0125292
0.0125309
0.0125327
0.0125345
0.0125364
0.0125384
0.0125404
0.0125425
0.0125446
0.0125467
0.0125489
0.0125512
0.0125534
0.0125557
0.012558
0.0125603
0.0125626
0.0125648
0.0125671
0.0125693
0.0125714
0.0125735
0.0125756
0.0125775
0.0125794
0.0125812
0.0125828
0.0125844
0.0125858
0.0125871
0.0125883
0.0125893
0.0125902
0.0125909
0.0125914
0.0125918
0.0125919
0.0125919
0.0125919
0.0125918
0.0125914
0.0125912
0.0125901
0.0125898
0.0125882
)
;

boundaryField
{
    inlet
    {
        type            fixedValue;
        value           uniform 0.55;
    }
    outlet
    {
        type            zeroGradient;
    }
    emptyWalls
    {
        type            empty;
    }
}


// ************************************************************************* //
