/*--------------------------------*- C++ -*----------------------------------*\
  =========                 |
  \\      /  F ield         | OpenFOAM: The Open Source CFD Toolbox
   \\    /   O peration     | Website:  https://openfoam.org
    \\  /    A nd           | Version:  9
     \\/     M anipulation  |
\*---------------------------------------------------------------------------*/
FoamFile
{
    format      ascii;
    class       volScalarField;
    location    "106000";
    object      krc;
}
// * * * * * * * * * * * * * * * * * * * * * * * * * * * * * * * * * * * * * //

dimensions      [0 0 0 0 0 0 0];

internalField   nonuniform List<scalar> 
100
(
1.12205e-21
7.4501e-24
8.33005e-24
1.07412e-23
9.81154e-25
9.10828e-24
1.92829e-24
6.25382e-26
7.11414e-24
4.28705e-24
1.02192e-23
1.23445e-25
1.647e-24
1.34985e-24
5.87629e-24
9.04442e-24
9.48357e-24
6.53149e-24
3.77689e-24
5.55463e-24
3.85664e-24
1.66676e-23
3.17586e-24
5.46474e-25
1.44231e-23
5.07514e-24
7.30893e-24
8.79263e-24
2.74811e-24
2.30103e-23
7.68053e-25
3.5592e-24
1.43903e-23
1.5161e-23
2.45891e-25
1.05802e-23
4.41164e-26
6.79468e-31
3.9935e-24
7.77192e-24
5.19147e-24
3.59067e-24
1.39096e-23
6.38903e-24
3.45074e-24
1.30203e-26
6.29532e-24
6.21325e-24
7.82366e-24
9.78424e-24
3.6583e-25
2.27561e-25
1.36172e-23
7.65028e-24
5.55315e-24
6.29295e-24
6.2552e-24
9.4884e-24
7.26824e-24
6.61845e-24
9.92372e-24
5.60135e-24
1.94293e-24
6.53952e-24
6.993e-26
1.00931e-23
8.84952e-24
1.12124e-23
9.82505e-24
3.98236e-25
8.612e-24
6.24813e-24
3.31287e-26
1.88633e-26
1.25328e-25
3.05339e-24
7.53886e-26
1.5429e-25
8.77588e-24
8.47592e-26
9.28875e-24
1.00791e-23
1.34538e-26
6.278e-24
3.28436e-26
7.74284e-26
6.93913e-26
6.24578e-24
8.15762e-27
6.29453e-24
8.18927e-24
6.13328e-24
3.87192e-26
3.31387e-24
4.83245e-27
2.09448e-26
5.37079e-24
9.14528e-24
9.87038e-24
7.07608e-24
)
;

boundaryField
{
    inlet
    {
        type            calculated;
        value           uniform 1.12205e-21;
    }
    outlet
    {
        type            calculated;
        value           uniform 7.07608e-24;
    }
    emptyWalls
    {
        type            empty;
    }
}


// ************************************************************************* //
