/*--------------------------------*- C++ -*----------------------------------*\
  =========                 |
  \\      /  F ield         | OpenFOAM: The Open Source CFD Toolbox
   \\    /   O peration     | Website:  https://openfoam.org
    \\  /    A nd           | Version:  9
     \\/     M anipulation  |
\*---------------------------------------------------------------------------*/
FoamFile
{
    format      ascii;
    class       volVectorField;
    location    "9950";
    object      Ub;
}
// * * * * * * * * * * * * * * * * * * * * * * * * * * * * * * * * * * * * * //

dimensions      [0 0 0 0 0 0 0];

internalField   nonuniform List<vector> 
1000
(
(1.1362e-05 0 0)
(1.13624e-05 0 0)
(1.13626e-05 0 0)
(1.13632e-05 0 0)
(1.13636e-05 0 0)
(1.13643e-05 0 0)
(1.1365e-05 0 0)
(1.13655e-05 0 0)
(1.13664e-05 0 0)
(1.13671e-05 0 0)
(1.13686e-05 0 0)
(1.13726e-05 0 0)
(1.1387e-05 0 0)
(1.14553e-05 0 0)
(1.16166e-05 0 0)
(1.17453e-05 0 0)
(1.17778e-05 0 0)
(1.17884e-05 0 0)
(1.1791e-05 0 0)
(1.1791e-05 0 0)
(1.1791e-05 0 0)
(1.17914e-05 0 0)
(1.17923e-05 0 0)
(1.17936e-05 0 0)
(1.1795e-05 0 0)
(1.17962e-05 0 0)
(1.17973e-05 0 0)
(1.17983e-05 0 0)
(1.17991e-05 0 0)
(1.17997e-05 0 0)
(1.18001e-05 0 0)
(1.18002e-05 0 0)
(1.18e-05 0 0)
(1.17994e-05 0 0)
(1.17982e-05 0 0)
(1.17963e-05 0 0)
(1.17933e-05 0 0)
(1.17889e-05 0 0)
(1.1783e-05 0 0)
(1.17761e-05 0 0)
(1.17684e-05 0 0)
(1.17602e-05 0 0)
(1.17517e-05 0 0)
(1.17429e-05 0 0)
(1.1734e-05 0 0)
(1.17249e-05 0 0)
(1.17156e-05 0 0)
(1.17062e-05 0 0)
(1.16967e-05 0 0)
(1.16872e-05 0 0)
(1.16775e-05 0 0)
(1.16678e-05 0 0)
(1.1658e-05 0 0)
(1.16481e-05 0 0)
(1.16381e-05 0 0)
(1.16281e-05 0 0)
(1.16181e-05 0 0)
(1.1608e-05 0 0)
(1.15978e-05 0 0)
(1.15876e-05 0 0)
(1.15773e-05 0 0)
(1.1567e-05 0 0)
(1.15566e-05 0 0)
(1.15462e-05 0 0)
(1.15357e-05 0 0)
(1.15252e-05 0 0)
(1.15147e-05 0 0)
(1.15041e-05 0 0)
(1.14934e-05 0 0)
(1.14827e-05 0 0)
(1.1472e-05 0 0)
(1.14612e-05 0 0)
(1.14504e-05 0 0)
(1.14395e-05 0 0)
(1.14286e-05 0 0)
(1.14176e-05 0 0)
(1.14067e-05 0 0)
(1.13956e-05 0 0)
(1.13846e-05 0 0)
(1.13735e-05 0 0)
(1.13624e-05 0 0)
(1.13512e-05 0 0)
(1.13401e-05 0 0)
(1.13289e-05 0 0)
(1.13177e-05 0 0)
(1.13065e-05 0 0)
(1.12952e-05 0 0)
(1.1284e-05 0 0)
(1.12727e-05 0 0)
(1.12614e-05 0 0)
(1.125e-05 0 0)
(1.12385e-05 0 0)
(1.1227e-05 0 0)
(1.12155e-05 0 0)
(1.12039e-05 0 0)
(1.11923e-05 0 0)
(1.11806e-05 0 0)
(1.11689e-05 0 0)
(1.11571e-05 0 0)
(1.11452e-05 0 0)
(1.11332e-05 0 0)
(1.11211e-05 0 0)
(1.11087e-05 0 0)
(1.10961e-05 0 0)
(1.10833e-05 0 0)
(1.10702e-05 0 0)
(1.10568e-05 0 0)
(1.10433e-05 0 0)
(1.10295e-05 0 0)
(1.10156e-05 0 0)
(1.10016e-05 0 0)
(1.09875e-05 0 0)
(1.09734e-05 0 0)
(1.09594e-05 0 0)
(1.09454e-05 0 0)
(1.09317e-05 0 0)
(1.09182e-05 0 0)
(1.0905e-05 0 0)
(1.08922e-05 0 0)
(1.08799e-05 0 0)
(1.0868e-05 0 0)
(1.08566e-05 0 0)
(1.08457e-05 0 0)
(1.08352e-05 0 0)
(1.08251e-05 0 0)
(1.08153e-05 0 0)
(1.08058e-05 0 0)
(1.07964e-05 0 0)
(1.07871e-05 0 0)
(1.07777e-05 0 0)
(1.07682e-05 0 0)
(1.07585e-05 0 0)
(1.07485e-05 0 0)
(1.07383e-05 0 0)
(1.07278e-05 0 0)
(1.0717e-05 0 0)
(1.07058e-05 0 0)
(1.06944e-05 0 0)
(1.06827e-05 0 0)
(1.06707e-05 0 0)
(1.06586e-05 0 0)
(1.06463e-05 0 0)
(1.06339e-05 0 0)
(1.06214e-05 0 0)
(1.06088e-05 0 0)
(1.05962e-05 0 0)
(1.05836e-05 0 0)
(1.0571e-05 0 0)
(1.05583e-05 0 0)
(1.05457e-05 0 0)
(1.05331e-05 0 0)
(1.05206e-05 0 0)
(1.0508e-05 0 0)
(1.04955e-05 0 0)
(1.0483e-05 0 0)
(1.04706e-05 0 0)
(1.04581e-05 0 0)
(1.04457e-05 0 0)
(1.04332e-05 0 0)
(1.04208e-05 0 0)
(1.04083e-05 0 0)
(1.03958e-05 0 0)
(1.03834e-05 0 0)
(1.03709e-05 0 0)
(1.03584e-05 0 0)
(1.03458e-05 0 0)
(1.03333e-05 0 0)
(1.03207e-05 0 0)
(1.03081e-05 0 0)
(1.02955e-05 0 0)
(1.02828e-05 0 0)
(1.02701e-05 0 0)
(1.02574e-05 0 0)
(1.02446e-05 0 0)
(1.02318e-05 0 0)
(1.0219e-05 0 0)
(1.02061e-05 0 0)
(1.01933e-05 0 0)
(1.01803e-05 0 0)
(1.01673e-05 0 0)
(1.01543e-05 0 0)
(1.01413e-05 0 0)
(1.01282e-05 0 0)
(1.01151e-05 0 0)
(1.01019e-05 0 0)
(1.00887e-05 0 0)
(1.00755e-05 0 0)
(1.00623e-05 0 0)
(1.0049e-05 0 0)
(1.00356e-05 0 0)
(1.00223e-05 0 0)
(1.00089e-05 0 0)
(9.99546e-06 0 0)
(9.98201e-06 0 0)
(9.96853e-06 0 0)
(9.95501e-06 0 0)
(9.94147e-06 0 0)
(9.92789e-06 0 0)
(9.91429e-06 0 0)
(9.90065e-06 0 0)
(9.88699e-06 0 0)
(9.87329e-06 0 0)
(9.85956e-06 0 0)
(9.8458e-06 0 0)
(9.83201e-06 0 0)
(9.81818e-06 0 0)
(9.80432e-06 0 0)
(9.79043e-06 0 0)
(9.7765e-06 0 0)
(9.76254e-06 0 0)
(9.74854e-06 0 0)
(9.73451e-06 0 0)
(9.72044e-06 0 0)
(9.70634e-06 0 0)
(9.6922e-06 0 0)
(9.67803e-06 0 0)
(9.66382e-06 0 0)
(9.64957e-06 0 0)
(9.63529e-06 0 0)
(9.62097e-06 0 0)
(9.60661e-06 0 0)
(9.59222e-06 0 0)
(9.57779e-06 0 0)
(9.56332e-06 0 0)
(9.54883e-06 0 0)
(9.53429e-06 0 0)
(9.51972e-06 0 0)
(9.50512e-06 0 0)
(9.49048e-06 0 0)
(9.47581e-06 0 0)
(9.4611e-06 0 0)
(9.44636e-06 0 0)
(9.43158e-06 0 0)
(9.41677e-06 0 0)
(9.40191e-06 0 0)
(9.38702e-06 0 0)
(9.37209e-06 0 0)
(9.35711e-06 0 0)
(9.3421e-06 0 0)
(9.32704e-06 0 0)
(9.31194e-06 0 0)
(9.29679e-06 0 0)
(9.2816e-06 0 0)
(9.26635e-06 0 0)
(9.25106e-06 0 0)
(9.2357e-06 0 0)
(9.22029e-06 0 0)
(9.20481e-06 0 0)
(9.18926e-06 0 0)
(9.17363e-06 0 0)
(9.15792e-06 0 0)
(9.14213e-06 0 0)
(9.12624e-06 0 0)
(9.11026e-06 0 0)
(9.09417e-06 0 0)
(9.07798e-06 0 0)
(9.06168e-06 0 0)
(9.04528e-06 0 0)
(9.02876e-06 0 0)
(9.01214e-06 0 0)
(8.99542e-06 0 0)
(8.9786e-06 0 0)
(8.96169e-06 0 0)
(8.9447e-06 0 0)
(8.92764e-06 0 0)
(8.91052e-06 0 0)
(8.89335e-06 0 0)
(8.87615e-06 0 0)
(8.85894e-06 0 0)
(8.84173e-06 0 0)
(8.82454e-06 0 0)
(8.80738e-06 0 0)
(8.79028e-06 0 0)
(8.77324e-06 0 0)
(8.75629e-06 0 0)
(8.73943e-06 0 0)
(8.72268e-06 0 0)
(8.70603e-06 0 0)
(8.68951e-06 0 0)
(8.6731e-06 0 0)
(8.6568e-06 0 0)
(8.64061e-06 0 0)
(8.62451e-06 0 0)
(8.6085e-06 0 0)
(8.59255e-06 0 0)
(8.57664e-06 0 0)
(8.56076e-06 0 0)
(8.54488e-06 0 0)
(8.52898e-06 0 0)
(8.51304e-06 0 0)
(8.49703e-06 0 0)
(8.48093e-06 0 0)
(8.46474e-06 0 0)
(8.44843e-06 0 0)
(8.43199e-06 0 0)
(8.41541e-06 0 0)
(8.39868e-06 0 0)
(8.38181e-06 0 0)
(8.36478e-06 0 0)
(8.34759e-06 0 0)
(8.33026e-06 0 0)
(8.31278e-06 0 0)
(8.29516e-06 0 0)
(8.2774e-06 0 0)
(8.25951e-06 0 0)
(8.2415e-06 0 0)
(8.22336e-06 0 0)
(8.20512e-06 0 0)
(8.18677e-06 0 0)
(8.16832e-06 0 0)
(8.14978e-06 0 0)
(8.13115e-06 0 0)
(8.11243e-06 0 0)
(8.09363e-06 0 0)
(8.07475e-06 0 0)
(8.0558e-06 0 0)
(8.03676e-06 0 0)
(8.01765e-06 0 0)
(7.99846e-06 0 0)
(7.9792e-06 0 0)
(7.95985e-06 0 0)
(7.94043e-06 0 0)
(7.92092e-06 0 0)
(7.90133e-06 0 0)
(7.88166e-06 0 0)
(7.8619e-06 0 0)
(7.84204e-06 0 0)
(7.8221e-06 0 0)
(7.80206e-06 0 0)
(7.78193e-06 0 0)
(7.7617e-06 0 0)
(7.74136e-06 0 0)
(7.72092e-06 0 0)
(7.70036e-06 0 0)
(7.6797e-06 0 0)
(7.65893e-06 0 0)
(7.63804e-06 0 0)
(7.61703e-06 0 0)
(7.59591e-06 0 0)
(7.57465e-06 0 0)
(7.55328e-06 0 0)
(7.53177e-06 0 0)
(7.51013e-06 0 0)
(7.48836e-06 0 0)
(7.46645e-06 0 0)
(7.44441e-06 0 0)
(7.42223e-06 0 0)
(7.3999e-06 0 0)
(7.37743e-06 0 0)
(7.35481e-06 0 0)
(7.33203e-06 0 0)
(7.30911e-06 0 0)
(7.28603e-06 0 0)
(7.2628e-06 0 0)
(7.23942e-06 0 0)
(7.21588e-06 0 0)
(7.19219e-06 0 0)
(7.16834e-06 0 0)
(7.14433e-06 0 0)
(7.12017e-06 0 0)
(7.09586e-06 0 0)
(7.07141e-06 0 0)
(7.04682e-06 0 0)
(7.0221e-06 0 0)
(6.99726e-06 0 0)
(6.97232e-06 0 0)
(6.94729e-06 0 0)
(6.92221e-06 0 0)
(6.8971e-06 0 0)
(6.87201e-06 0 0)
(6.84697e-06 0 0)
(6.82206e-06 0 0)
(6.79732e-06 0 0)
(6.77285e-06 0 0)
(6.74875e-06 0 0)
(6.72511e-06 0 0)
(6.70206e-06 0 0)
(6.67971e-06 0 0)
(6.6582e-06 0 0)
(6.63765e-06 0 0)
(6.6182e-06 0 0)
(6.59996e-06 0 0)
(6.58304e-06 0 0)
(6.56749e-06 0 0)
(6.55334e-06 0 0)
(6.54055e-06 0 0)
(6.52903e-06 0 0)
(6.51857e-06 0 0)
(6.50878e-06 0 0)
(6.49901e-06 0 0)
(6.4881e-06 0 0)
(6.47411e-06 0 0)
(6.45362e-06 0 0)
(6.42083e-06 0 0)
(6.36588e-06 0 0)
(6.27274e-06 0 0)
(6.11732e-06 0 0)
(5.86846e-06 0 0)
(5.49756e-06 0 0)
(5.00065e-06 0 0)
(4.42251e-06 0 0)
(3.8525e-06 0 0)
(3.37893e-06 0 0)
(3.04207e-06 0 0)
(2.83012e-06 0 0)
(2.70764e-06 0 0)
(2.64049e-06 0 0)
(2.60478e-06 0 0)
(2.5861e-06 0 0)
(2.5764e-06 0 0)
(2.57138e-06 0 0)
(2.56878e-06 0 0)
(2.56744e-06 0 0)
(2.56673e-06 0 0)
(2.56635e-06 0 0)
(2.56615e-06 0 0)
(2.56602e-06 0 0)
(2.56594e-06 0 0)
(2.56588e-06 0 0)
(2.56584e-06 0 0)
(2.5658e-06 0 0)
(2.56576e-06 0 0)
(2.56572e-06 0 0)
(2.56568e-06 0 0)
(2.56563e-06 0 0)
(2.56559e-06 0 0)
(2.56554e-06 0 0)
(2.56549e-06 0 0)
(2.56543e-06 0 0)
(2.56537e-06 0 0)
(2.56531e-06 0 0)
(2.56524e-06 0 0)
(2.56517e-06 0 0)
(2.56509e-06 0 0)
(2.565e-06 0 0)
(2.56491e-06 0 0)
(2.56482e-06 0 0)
(2.56471e-06 0 0)
(2.5646e-06 0 0)
(2.56448e-06 0 0)
(2.56435e-06 0 0)
(2.56421e-06 0 0)
(2.56407e-06 0 0)
(2.56392e-06 0 0)
(2.56376e-06 0 0)
(2.56359e-06 0 0)
(2.56341e-06 0 0)
(2.56323e-06 0 0)
(2.56304e-06 0 0)
(2.56285e-06 0 0)
(2.56265e-06 0 0)
(2.56244e-06 0 0)
(2.56223e-06 0 0)
(2.56203e-06 0 0)
(2.56182e-06 0 0)
(2.56161e-06 0 0)
(2.5614e-06 0 0)
(2.56119e-06 0 0)
(2.561e-06 0 0)
(2.56081e-06 0 0)
(2.56062e-06 0 0)
(2.56045e-06 0 0)
(2.56029e-06 0 0)
(2.56014e-06 0 0)
(2.56001e-06 0 0)
(2.5599e-06 0 0)
(2.5598e-06 0 0)
(2.55973e-06 0 0)
(2.55968e-06 0 0)
(2.55965e-06 0 0)
(2.55963e-06 0 0)
(2.55963e-06 0 0)
(2.55963e-06 0 0)
(2.55967e-06 0 0)
(2.55975e-06 0 0)
(2.55984e-06 0 0)
(2.55996e-06 0 0)
(2.5601e-06 0 0)
(2.56025e-06 0 0)
(2.56041e-06 0 0)
(2.56059e-06 0 0)
(2.56078e-06 0 0)
(2.56098e-06 0 0)
(2.56118e-06 0 0)
(2.56139e-06 0 0)
(2.5616e-06 0 0)
(2.56181e-06 0 0)
(2.56202e-06 0 0)
(2.56222e-06 0 0)
(2.56242e-06 0 0)
(2.56261e-06 0 0)
(2.5628e-06 0 0)
(2.56297e-06 0 0)
(2.56314e-06 0 0)
(2.56329e-06 0 0)
(2.56343e-06 0 0)
(2.56356e-06 0 0)
(2.56368e-06 0 0)
(2.56379e-06 0 0)
(2.56389e-06 0 0)
(2.56398e-06 0 0)
(2.56406e-06 0 0)
(2.56413e-06 0 0)
(2.56419e-06 0 0)
(2.56424e-06 0 0)
(2.56428e-06 0 0)
(2.56432e-06 0 0)
(2.56435e-06 0 0)
(2.56438e-06 0 0)
(2.56441e-06 0 0)
(2.56443e-06 0 0)
(2.56445e-06 0 0)
(2.56446e-06 0 0)
(2.56448e-06 0 0)
(2.56449e-06 0 0)
(2.5645e-06 0 0)
(2.56452e-06 0 0)
(2.56453e-06 0 0)
(2.56455e-06 0 0)
(2.56456e-06 0 0)
(2.56458e-06 0 0)
(2.5646e-06 0 0)
(2.56462e-06 0 0)
(2.56464e-06 0 0)
(2.56466e-06 0 0)
(2.56468e-06 0 0)
(2.56471e-06 0 0)
(2.56474e-06 0 0)
(2.56476e-06 0 0)
(2.56479e-06 0 0)
(2.56483e-06 0 0)
(2.56486e-06 0 0)
(2.56489e-06 0 0)
(2.56493e-06 0 0)
(2.56496e-06 0 0)
(2.565e-06 0 0)
(2.56504e-06 0 0)
(2.56508e-06 0 0)
(2.56511e-06 0 0)
(2.56515e-06 0 0)
(2.56519e-06 0 0)
(2.56523e-06 0 0)
(2.56527e-06 0 0)
(2.56531e-06 0 0)
(2.56535e-06 0 0)
(2.56539e-06 0 0)
(2.56543e-06 0 0)
(2.56546e-06 0 0)
(2.5655e-06 0 0)
(2.56554e-06 0 0)
(2.56558e-06 0 0)
(2.56561e-06 0 0)
(2.56565e-06 0 0)
(2.56569e-06 0 0)
(2.56572e-06 0 0)
(2.56575e-06 0 0)
(2.56579e-06 0 0)
(2.56582e-06 0 0)
(2.56585e-06 0 0)
(2.56587e-06 0 0)
(2.5659e-06 0 0)
(2.56593e-06 0 0)
(2.56595e-06 0 0)
(2.56598e-06 0 0)
(2.566e-06 0 0)
(2.56602e-06 0 0)
(2.56604e-06 0 0)
(2.56606e-06 0 0)
(2.56608e-06 0 0)
(2.56609e-06 0 0)
(2.5661e-06 0 0)
(2.56612e-06 0 0)
(2.56613e-06 0 0)
(2.56614e-06 0 0)
(2.56615e-06 0 0)
(2.56615e-06 0 0)
(2.56616e-06 0 0)
(2.56616e-06 0 0)
(2.56617e-06 0 0)
(2.56617e-06 0 0)
(2.56617e-06 0 0)
(2.56617e-06 0 0)
(2.56617e-06 0 0)
(2.56617e-06 0 0)
(2.56617e-06 0 0)
(2.56617e-06 0 0)
(2.56616e-06 0 0)
(2.56616e-06 0 0)
(2.56615e-06 0 0)
(2.56614e-06 0 0)
(2.56613e-06 0 0)
(2.56613e-06 0 0)
(2.56612e-06 0 0)
(2.56611e-06 0 0)
(2.5661e-06 0 0)
(2.56609e-06 0 0)
(2.56608e-06 0 0)
(2.56606e-06 0 0)
(2.56605e-06 0 0)
(2.56604e-06 0 0)
(2.56603e-06 0 0)
(2.56601e-06 0 0)
(2.566e-06 0 0)
(2.56598e-06 0 0)
(2.56597e-06 0 0)
(2.56595e-06 0 0)
(2.56593e-06 0 0)
(2.56591e-06 0 0)
(2.5659e-06 0 0)
(2.56588e-06 0 0)
(2.56586e-06 0 0)
(2.56584e-06 0 0)
(2.56582e-06 0 0)
(2.5658e-06 0 0)
(2.56577e-06 0 0)
(2.56575e-06 0 0)
(2.56573e-06 0 0)
(2.5657e-06 0 0)
(2.56568e-06 0 0)
(2.56565e-06 0 0)
(2.56562e-06 0 0)
(2.56559e-06 0 0)
(2.56556e-06 0 0)
(2.56553e-06 0 0)
(2.5655e-06 0 0)
(2.56546e-06 0 0)
(2.56543e-06 0 0)
(2.56539e-06 0 0)
(2.56535e-06 0 0)
(2.5653e-06 0 0)
(2.56526e-06 0 0)
(2.56521e-06 0 0)
(2.56516e-06 0 0)
(2.56511e-06 0 0)
(2.56506e-06 0 0)
(2.565e-06 0 0)
(2.56494e-06 0 0)
(2.56487e-06 0 0)
(2.56481e-06 0 0)
(2.56474e-06 0 0)
(2.56466e-06 0 0)
(2.56458e-06 0 0)
(2.5645e-06 0 0)
(2.56441e-06 0 0)
(2.56431e-06 0 0)
(2.56421e-06 0 0)
(2.56411e-06 0 0)
(2.56399e-06 0 0)
(2.56388e-06 0 0)
(2.56375e-06 0 0)
(2.56362e-06 0 0)
(2.56349e-06 0 0)
(2.56334e-06 0 0)
(2.5632e-06 0 0)
(2.56304e-06 0 0)
(2.56289e-06 0 0)
(2.56272e-06 0 0)
(2.56256e-06 0 0)
(2.56239e-06 0 0)
(2.56222e-06 0 0)
(2.56204e-06 0 0)
(2.56187e-06 0 0)
(2.56169e-06 0 0)
(2.56152e-06 0 0)
(2.56135e-06 0 0)
(2.56119e-06 0 0)
(2.56103e-06 0 0)
(2.56087e-06 0 0)
(2.56072e-06 0 0)
(2.56058e-06 0 0)
(2.56045e-06 0 0)
(2.56033e-06 0 0)
(2.56022e-06 0 0)
(2.56013e-06 0 0)
(2.56005e-06 0 0)
(2.55998e-06 0 0)
(2.55993e-06 0 0)
(2.55989e-06 0 0)
(2.55987e-06 0 0)
(2.55986e-06 0 0)
(2.55986e-06 0 0)
(2.55986e-06 0 0)
(2.55989e-06 0 0)
(2.55995e-06 0 0)
(2.56003e-06 0 0)
(2.56012e-06 0 0)
(2.56023e-06 0 0)
(2.56035e-06 0 0)
(2.56048e-06 0 0)
(2.56062e-06 0 0)
(2.56077e-06 0 0)
(2.56092e-06 0 0)
(2.56109e-06 0 0)
(2.56126e-06 0 0)
(2.56143e-06 0 0)
(2.5616e-06 0 0)
(2.56177e-06 0 0)
(2.56194e-06 0 0)
(2.56211e-06 0 0)
(2.56228e-06 0 0)
(2.56244e-06 0 0)
(2.56259e-06 0 0)
(2.56274e-06 0 0)
(2.56289e-06 0 0)
(2.56302e-06 0 0)
(2.56315e-06 0 0)
(2.56327e-06 0 0)
(2.56338e-06 0 0)
(2.56348e-06 0 0)
(2.56357e-06 0 0)
(2.56366e-06 0 0)
(2.56374e-06 0 0)
(2.56381e-06 0 0)
(2.56388e-06 0 0)
(2.56394e-06 0 0)
(2.56399e-06 0 0)
(2.56404e-06 0 0)
(2.56409e-06 0 0)
(2.56413e-06 0 0)
(2.56416e-06 0 0)
(2.56419e-06 0 0)
(2.56422e-06 0 0)
(2.56425e-06 0 0)
(2.56428e-06 0 0)
(2.5643e-06 0 0)
(2.56433e-06 0 0)
(2.56435e-06 0 0)
(2.56438e-06 0 0)
(2.5644e-06 0 0)
(2.56442e-06 0 0)
(2.56445e-06 0 0)
(2.56447e-06 0 0)
(2.5645e-06 0 0)
(2.56452e-06 0 0)
(2.56455e-06 0 0)
(2.56458e-06 0 0)
(2.56461e-06 0 0)
(2.56464e-06 0 0)
(2.56467e-06 0 0)
(2.5647e-06 0 0)
(2.56474e-06 0 0)
(2.56477e-06 0 0)
(2.56481e-06 0 0)
(2.56484e-06 0 0)
(2.56488e-06 0 0)
(2.56492e-06 0 0)
(2.56496e-06 0 0)
(2.565e-06 0 0)
(2.56504e-06 0 0)
(2.56508e-06 0 0)
(2.56512e-06 0 0)
(2.56516e-06 0 0)
(2.5652e-06 0 0)
(2.56524e-06 0 0)
(2.56528e-06 0 0)
(2.56532e-06 0 0)
(2.56536e-06 0 0)
(2.5654e-06 0 0)
(2.56544e-06 0 0)
(2.56548e-06 0 0)
(2.56552e-06 0 0)
(2.56556e-06 0 0)
(2.5656e-06 0 0)
(2.56564e-06 0 0)
(2.56568e-06 0 0)
(2.56571e-06 0 0)
(2.56575e-06 0 0)
(2.56579e-06 0 0)
(2.56582e-06 0 0)
(2.56586e-06 0 0)
(2.56589e-06 0 0)
(2.56592e-06 0 0)
(2.56595e-06 0 0)
(2.56598e-06 0 0)
(2.56601e-06 0 0)
(2.56604e-06 0 0)
(2.56607e-06 0 0)
(2.5661e-06 0 0)
(2.56612e-06 0 0)
(2.56614e-06 0 0)
(2.56617e-06 0 0)
(2.56619e-06 0 0)
(2.56621e-06 0 0)
(2.56623e-06 0 0)
(2.56624e-06 0 0)
(2.56626e-06 0 0)
(2.56628e-06 0 0)
(2.56629e-06 0 0)
(2.5663e-06 0 0)
(2.56631e-06 0 0)
(2.56632e-06 0 0)
(2.56633e-06 0 0)
(2.56633e-06 0 0)
(2.56634e-06 0 0)
(2.56634e-06 0 0)
(2.56634e-06 0 0)
(2.56634e-06 0 0)
(2.56635e-06 0 0)
(2.56634e-06 0 0)
(2.56634e-06 0 0)
(2.56634e-06 0 0)
(2.56633e-06 0 0)
(2.56633e-06 0 0)
(2.56632e-06 0 0)
(2.56631e-06 0 0)
(2.5663e-06 0 0)
(2.56629e-06 0 0)
(2.56628e-06 0 0)
(2.56627e-06 0 0)
(2.56625e-06 0 0)
(2.56624e-06 0 0)
(2.56622e-06 0 0)
(2.5662e-06 0 0)
(2.56619e-06 0 0)
(2.56617e-06 0 0)
(2.56615e-06 0 0)
(2.56613e-06 0 0)
(2.56611e-06 0 0)
(2.56608e-06 0 0)
(2.56606e-06 0 0)
(2.56604e-06 0 0)
(2.56601e-06 0 0)
(2.56599e-06 0 0)
(2.56596e-06 0 0)
(2.56593e-06 0 0)
(2.5659e-06 0 0)
(2.56587e-06 0 0)
(2.56584e-06 0 0)
(2.56581e-06 0 0)
(2.56577e-06 0 0)
(2.56574e-06 0 0)
(2.5657e-06 0 0)
(2.56566e-06 0 0)
(2.56563e-06 0 0)
(2.56558e-06 0 0)
(2.56554e-06 0 0)
(2.5655e-06 0 0)
(2.56545e-06 0 0)
(2.5654e-06 0 0)
(2.56535e-06 0 0)
(2.56529e-06 0 0)
(2.56524e-06 0 0)
(2.56518e-06 0 0)
(2.56511e-06 0 0)
(2.56505e-06 0 0)
(2.56498e-06 0 0)
(2.5649e-06 0 0)
(2.56482e-06 0 0)
(2.56474e-06 0 0)
(2.56466e-06 0 0)
(2.56456e-06 0 0)
(2.56447e-06 0 0)
(2.56437e-06 0 0)
(2.56427e-06 0 0)
(2.56416e-06 0 0)
(2.56404e-06 0 0)
(2.56393e-06 0 0)
(2.5638e-06 0 0)
(2.56368e-06 0 0)
(2.56355e-06 0 0)
(2.56341e-06 0 0)
(2.56327e-06 0 0)
(2.56313e-06 0 0)
(2.56298e-06 0 0)
(2.56284e-06 0 0)
(2.56269e-06 0 0)
(2.56253e-06 0 0)
(2.56238e-06 0 0)
(2.56223e-06 0 0)
(2.56207e-06 0 0)
(2.56192e-06 0 0)
(2.56177e-06 0 0)
(2.56162e-06 0 0)
(2.56148e-06 0 0)
(2.56133e-06 0 0)
(2.5612e-06 0 0)
(2.56107e-06 0 0)
(2.56094e-06 0 0)
(2.56082e-06 0 0)
(2.56071e-06 0 0)
(2.56061e-06 0 0)
(2.56052e-06 0 0)
(2.56044e-06 0 0)
(2.56037e-06 0 0)
(2.56031e-06 0 0)
(2.56026e-06 0 0)
(2.56023e-06 0 0)
(2.56021e-06 0 0)
(2.5602e-06 0 0)
(2.56019e-06 0 0)
(2.5602e-06 0 0)
(2.56021e-06 0 0)
(2.56024e-06 0 0)
(2.5603e-06 0 0)
(2.56037e-06 0 0)
(2.56045e-06 0 0)
(2.56054e-06 0 0)
(2.56064e-06 0 0)
(2.56074e-06 0 0)
(2.56086e-06 0 0)
(2.56099e-06 0 0)
(2.56112e-06 0 0)
(2.56125e-06 0 0)
(2.56139e-06 0 0)
(2.56153e-06 0 0)
(2.56168e-06 0 0)
(2.56182e-06 0 0)
(2.56197e-06 0 0)
(2.56211e-06 0 0)
(2.56225e-06 0 0)
(2.56239e-06 0 0)
(2.56253e-06 0 0)
(2.56266e-06 0 0)
(2.56279e-06 0 0)
(2.56291e-06 0 0)
(2.56303e-06 0 0)
(2.56314e-06 0 0)
(2.56324e-06 0 0)
(2.56334e-06 0 0)
(2.56344e-06 0 0)
(2.56353e-06 0 0)
(2.56361e-06 0 0)
(2.56369e-06 0 0)
(2.56376e-06 0 0)
(2.56383e-06 0 0)
(2.56389e-06 0 0)
(2.56395e-06 0 0)
(2.564e-06 0 0)
(2.56405e-06 0 0)
(2.5641e-06 0 0)
(2.56415e-06 0 0)
(2.56419e-06 0 0)
(2.56423e-06 0 0)
(2.56427e-06 0 0)
(2.56431e-06 0 0)
(2.56435e-06 0 0)
(2.56438e-06 0 0)
(2.56442e-06 0 0)
(2.56445e-06 0 0)
(2.56449e-06 0 0)
(2.56453e-06 0 0)
(2.56456e-06 0 0)
(2.5646e-06 0 0)
(2.56463e-06 0 0)
(2.56467e-06 0 0)
(2.56471e-06 0 0)
(2.56475e-06 0 0)
(2.56478e-06 0 0)
(2.56482e-06 0 0)
(2.56486e-06 0 0)
(2.5649e-06 0 0)
(2.56494e-06 0 0)
(2.56499e-06 0 0)
(2.56503e-06 0 0)
(2.56507e-06 0 0)
(2.56511e-06 0 0)
(2.56516e-06 0 0)
(2.5652e-06 0 0)
(2.56525e-06 0 0)
(2.56529e-06 0 0)
(2.56534e-06 0 0)
(2.56538e-06 0 0)
(2.56542e-06 0 0)
(2.56547e-06 0 0)
(2.56551e-06 0 0)
(2.56556e-06 0 0)
(2.5656e-06 0 0)
(2.56564e-06 0 0)
(2.56569e-06 0 0)
(2.56573e-06 0 0)
(2.56577e-06 0 0)
(2.56581e-06 0 0)
(2.56585e-06 0 0)
(2.56589e-06 0 0)
(2.56593e-06 0 0)
(2.56597e-06 0 0)
(2.56601e-06 0 0)
(2.56604e-06 0 0)
(2.56608e-06 0 0)
(2.56611e-06 0 0)
(2.56615e-06 0 0)
(2.56618e-06 0 0)
(2.56621e-06 0 0)
(2.56624e-06 0 0)
(2.56627e-06 0 0)
(2.5663e-06 0 0)
(2.56632e-06 0 0)
(2.56635e-06 0 0)
(2.56637e-06 0 0)
(2.56639e-06 0 0)
(2.56641e-06 0 0)
(2.56643e-06 0 0)
(2.56644e-06 0 0)
(2.56646e-06 0 0)
(2.56647e-06 0 0)
(2.56648e-06 0 0)
(2.56649e-06 0 0)
(2.5665e-06 0 0)
(2.56651e-06 0 0)
(2.56651e-06 0 0)
)
;

boundaryField
{
    inlet
    {
        type            fixedValue;
        value           uniform (1.13622e-05 0 0);
    }
    outlet
    {
        type            zeroGradient;
    }
    emptyWalls
    {
        type            empty;
    }
}


// ************************************************************************* //
