/*--------------------------------*- C++ -*----------------------------------*\
  =========                 |
  \\      /  F ield         | OpenFOAM: The Open Source CFD Toolbox
   \\    /   O peration     | Website:  https://openfoam.org
    \\  /    A nd           | Version:  9
     \\/     M anipulation  |
\*---------------------------------------------------------------------------*/
FoamFile
{
    format      ascii;
    class       volScalarField;
    location    "40000";
    object      krc;
}
// * * * * * * * * * * * * * * * * * * * * * * * * * * * * * * * * * * * * * //

dimensions      [0 0 0 0 0 0 0];

internalField   nonuniform List<scalar> 
100
(
3.75525e-24
9.13167e-25
7.0976e-25
1.23458e-24
2.66632e-25
1.05432e-24
3.10982e-25
5.91307e-26
8.7472e-25
5.43229e-25
1.01963e-24
8.54004e-26
4.66923e-26
3.41556e-25
1.28106e-24
3.20517e-26
2.08314e-26
3.18823e-25
4.74844e-24
7.20109e-24
6.94182e-24
1.61745e-23
2.06312e-23
2.08773e-23
5.79044e-23
5.69596e-23
1.23942e-22
1.29372e-22
2.40199e-22
2.70961e-22
4.53215e-22
5.30902e-22
6.50746e-22
8.34522e-22
1.10888e-21
1.22309e-21
1.46114e-21
1.62953e-21
1.83798e-21
1.92828e-21
1.92185e-21
1.77423e-21
1.67399e-21
1.73638e-21
1.25426e-21
7.05957e-22
2.89066e-22
4.04797e-24
1.2702e-22
3.92273e-22
1.21081e-21
2.89178e-21
4.99122e-21
7.64845e-21
1.17537e-20
1.74851e-20
2.33367e-20
3.06646e-20
3.92342e-20
4.75163e-20
5.57697e-20
6.36085e-20
7.05955e-20
7.70624e-20
8.18878e-20
8.51969e-20
8.90953e-20
8.92417e-20
9.0493e-20
8.8573e-20
8.70526e-20
8.3366e-20
7.91097e-20
7.39005e-20
6.89062e-20
6.28875e-20
5.75385e-20
5.13783e-20
4.61388e-20
3.99905e-20
3.49653e-20
2.93044e-20
2.53863e-20
2.14439e-20
1.78731e-20
1.46543e-20
1.20215e-20
9.74668e-21
7.61919e-21
6.05918e-21
4.45193e-21
3.34133e-21
2.77289e-21
1.04538e-21
4.67258e-21
3.13684e-20
4.08167e-19
8.36697e-18
1.06114e-16
5.60318e-16
)
;

boundaryField
{
    inlet
    {
        type            calculated;
        value           uniform 3.75525e-24;
    }
    outlet
    {
        type            calculated;
        value           uniform 5.60318e-16;
    }
    emptyWalls
    {
        type            empty;
    }
}


// ************************************************************************* //
