/*--------------------------------*- C++ -*----------------------------------*\
  =========                 |
  \\      /  F ield         | OpenFOAM: The Open Source CFD Toolbox
   \\    /   O peration     | Website:  https://openfoam.org
    \\  /    A nd           | Version:  9
     \\/     M anipulation  |
\*---------------------------------------------------------------------------*/
FoamFile
{
    format      ascii;
    class       volScalarField;
    location    "40000";
    object      p;
}
// * * * * * * * * * * * * * * * * * * * * * * * * * * * * * * * * * * * * * //

dimensions      [0 0 0 0 0 0 0];

internalField   nonuniform List<scalar> 
100
(
3.03585e+06
3.00534e+06
2.97483e+06
2.94432e+06
2.9138e+06
2.88329e+06
2.85278e+06
2.82227e+06
2.79176e+06
2.76125e+06
2.73073e+06
2.70022e+06
2.66971e+06
2.6392e+06
2.60869e+06
2.57818e+06
2.54766e+06
2.51715e+06
2.48664e+06
2.45613e+06
2.42562e+06
2.39511e+06
2.36459e+06
2.33408e+06
2.30357e+06
2.27306e+06
2.24255e+06
2.21204e+06
2.18152e+06
2.15101e+06
2.1205e+06
2.08999e+06
2.05948e+06
2.02896e+06
1.99845e+06
1.96794e+06
1.93743e+06
1.90692e+06
1.87641e+06
1.84589e+06
1.81538e+06
1.78487e+06
1.75436e+06
1.72385e+06
1.69334e+06
1.66282e+06
1.63231e+06
1.6018e+06
1.57129e+06
1.54078e+06
1.51027e+06
1.47975e+06
1.44924e+06
1.41873e+06
1.38822e+06
1.35771e+06
1.3272e+06
1.29668e+06
1.26617e+06
1.23566e+06
1.20515e+06
1.17464e+06
1.14412e+06
1.11361e+06
1.0831e+06
1.05259e+06
1.02208e+06
991566
961055
930543
900031
869520
839008
808496
777984
747473
716961
686449
655938
625426
594914
564402
533891
503379
472867
442355
411844
381332
350820
320309
289797
259285
228773
198262
167750
137238
106727
76214.9
45703.2
15191.5
)
;

boundaryField
{
    inlet
    {
        type            darcyGradPressure;
        gradient        uniform 1.23352e+07;
        Mf              Mf;
        phi             phi;
        value           uniform 3.05109e+06;
    }
    outlet
    {
        type            fixedValue;
        value           uniform 0;
    }
    emptyWalls
    {
        type            empty;
    }
}


// ************************************************************************* //
