/*--------------------------------*- C++ -*----------------------------------*\
  =========                 |
  \\      /  F ield         | OpenFOAM: The Open Source CFD Toolbox
   \\    /   O peration     | Website:  https://openfoam.org
    \\  /    A nd           | Version:  9
     \\/     M anipulation  |
\*---------------------------------------------------------------------------*/
FoamFile
{
    format      ascii;
    class       surfaceScalarField;
    location    "12150";
    object      phic;
}
// * * * * * * * * * * * * * * * * * * * * * * * * * * * * * * * * * * * * * //

dimensions      [0 2 0 0 0 0 0];

internalField   nonuniform List<scalar> 
999
(
3.95779e-15
1.77595e-14
4.20878e-14
7.5905e-14
1.18578e-13
1.69239e-13
2.26334e-13
2.87798e-13
3.50817e-13
4.12574e-13
4.70758e-13
5.2499e-13
5.83786e-13
6.96564e-13
1.08585e-12
2.48567e-12
9.91873e-12
1.93134e-11
2.10607e-11
2.17194e-11
2.21063e-11
2.23903e-11
2.26292e-11
2.28462e-11
2.30477e-11
2.32367e-11
2.34209e-11
2.35983e-11
2.37684e-11
2.39315e-11
2.40887e-11
2.42417e-11
2.4392e-11
2.45414e-11
2.46921e-11
2.48461e-11
2.50113e-11
2.51851e-11
2.53681e-11
2.55626e-11
2.57728e-11
2.60052e-11
2.62698e-11
2.65807e-11
2.6955e-11
2.74082e-11
2.79454e-11
2.85569e-11
2.92236e-11
2.99291e-11
3.06626e-11
3.14168e-11
3.21869e-11
3.29698e-11
3.37629e-11
3.45648e-11
3.53742e-11
3.61901e-11
3.70119e-11
3.7839e-11
3.86711e-11
3.95076e-11
4.03483e-11
4.11931e-11
4.20417e-11
4.28938e-11
4.37494e-11
4.46084e-11
4.54705e-11
4.63357e-11
4.72039e-11
4.8075e-11
4.89489e-11
4.98255e-11
5.07048e-11
5.15866e-11
5.24711e-11
5.33579e-11
5.42473e-11
5.51389e-11
5.6033e-11
5.69292e-11
5.78277e-11
5.87285e-11
5.96313e-11
6.05363e-11
6.14434e-11
6.23525e-11
6.32636e-11
6.41766e-11
6.50917e-11
6.60086e-11
6.69275e-11
6.78482e-11
6.87708e-11
6.96951e-11
7.06213e-11
7.15492e-11
7.2479e-11
7.34105e-11
7.43437e-11
7.52787e-11
7.62155e-11
7.71541e-11
7.80944e-11
7.90364e-11
7.998e-11
8.09253e-11
8.18722e-11
8.28205e-11
8.37704e-11
8.47217e-11
8.56744e-11
8.66287e-11
8.75845e-11
8.85419e-11
8.95007e-11
9.0461e-11
9.14225e-11
9.23851e-11
9.33486e-11
9.43126e-11
9.52771e-11
9.62417e-11
9.72064e-11
9.8171e-11
9.91356e-11
1.001e-10
1.01065e-10
1.02029e-10
1.02994e-10
1.0396e-10
1.04927e-10
1.05895e-10
1.06865e-10
1.07837e-10
1.08812e-10
1.0979e-10
1.10771e-10
1.11757e-10
1.12748e-10
1.13743e-10
1.14744e-10
1.15749e-10
1.1676e-10
1.17775e-10
1.18795e-10
1.19817e-10
1.20844e-10
1.21872e-10
1.22902e-10
1.23933e-10
1.24965e-10
1.25997e-10
1.27028e-10
1.28059e-10
1.2909e-10
1.30119e-10
1.31149e-10
1.32177e-10
1.33206e-10
1.34234e-10
1.35263e-10
1.36292e-10
1.37321e-10
1.38352e-10
1.39384e-10
1.40417e-10
1.41451e-10
1.42487e-10
1.43525e-10
1.44565e-10
1.45606e-10
1.46649e-10
1.47694e-10
1.48741e-10
1.4979e-10
1.5084e-10
1.51892e-10
1.52946e-10
1.54002e-10
1.55059e-10
1.56118e-10
1.57178e-10
1.5824e-10
1.59303e-10
1.60368e-10
1.61434e-10
1.62502e-10
1.63572e-10
1.64643e-10
1.65715e-10
1.66789e-10
1.67864e-10
1.68941e-10
1.70019e-10
1.71099e-10
1.7218e-10
1.73263e-10
1.74347e-10
1.75433e-10
1.7652e-10
1.77608e-10
1.78699e-10
1.7979e-10
1.80883e-10
1.81978e-10
1.83074e-10
1.84172e-10
1.85271e-10
1.86371e-10
1.87473e-10
1.88577e-10
1.89682e-10
1.90789e-10
1.91897e-10
1.93007e-10
1.94118e-10
1.95231e-10
1.96345e-10
1.97461e-10
1.98578e-10
1.99697e-10
2.00817e-10
2.01939e-10
2.03062e-10
2.04187e-10
2.05314e-10
2.06442e-10
2.07571e-10
2.08702e-10
2.09835e-10
2.10969e-10
2.12105e-10
2.13243e-10
2.14382e-10
2.15522e-10
2.16665e-10
2.17809e-10
2.18954e-10
2.20102e-10
2.21251e-10
2.22401e-10
2.23554e-10
2.24708e-10
2.25864e-10
2.27022e-10
2.28182e-10
2.29343e-10
2.30506e-10
2.31671e-10
2.32838e-10
2.34007e-10
2.35177e-10
2.36349e-10
2.37523e-10
2.38699e-10
2.39876e-10
2.41056e-10
2.42237e-10
2.4342e-10
2.44604e-10
2.4579e-10
2.46978e-10
2.48166e-10
2.49356e-10
2.50548e-10
2.5174e-10
2.52933e-10
2.54127e-10
2.55321e-10
2.56516e-10
2.57712e-10
2.58908e-10
2.60104e-10
2.613e-10
2.62497e-10
2.63695e-10
2.64893e-10
2.66092e-10
2.67292e-10
2.68493e-10
2.69696e-10
2.70902e-10
2.72109e-10
2.7332e-10
2.74534e-10
2.75751e-10
2.76973e-10
2.782e-10
2.79432e-10
2.8067e-10
2.81914e-10
2.83164e-10
2.8442e-10
2.85684e-10
2.86954e-10
2.88231e-10
2.89515e-10
2.90805e-10
2.92101e-10
2.93403e-10
2.9471e-10
2.96022e-10
2.97338e-10
2.98658e-10
2.9998e-10
3.01306e-10
3.02633e-10
3.03962e-10
3.05293e-10
3.06625e-10
3.07957e-10
3.09291e-10
3.10624e-10
3.11959e-10
3.13294e-10
3.14631e-10
3.15968e-10
3.17306e-10
3.18645e-10
3.19986e-10
3.21329e-10
3.22674e-10
3.24021e-10
3.2537e-10
3.26722e-10
3.28076e-10
3.29434e-10
3.30795e-10
3.32159e-10
3.33527e-10
3.34898e-10
3.36272e-10
3.37651e-10
3.39033e-10
3.40418e-10
3.41808e-10
3.43201e-10
3.44599e-10
3.46e-10
3.47405e-10
3.48814e-10
3.50226e-10
3.51643e-10
3.53063e-10
3.54488e-10
3.55916e-10
3.57348e-10
3.58784e-10
3.60223e-10
3.61667e-10
3.63115e-10
3.64566e-10
3.66022e-10
3.67481e-10
3.68945e-10
3.70412e-10
3.71884e-10
3.7336e-10
3.74839e-10
3.76324e-10
3.77812e-10
3.79305e-10
3.80802e-10
3.82303e-10
3.83809e-10
3.85319e-10
3.86834e-10
3.88354e-10
3.89878e-10
3.91407e-10
3.92941e-10
3.9448e-10
3.96023e-10
3.97572e-10
3.99125e-10
4.00683e-10
4.02247e-10
4.03815e-10
4.05389e-10
4.06968e-10
4.08553e-10
4.10142e-10
4.11737e-10
4.13338e-10
4.14944e-10
4.16556e-10
4.18173e-10
4.19797e-10
4.21426e-10
4.23061e-10
4.24702e-10
4.26349e-10
4.28003e-10
4.29662e-10
4.31328e-10
4.33e-10
4.34678e-10
4.36364e-10
4.38055e-10
4.39754e-10
4.4146e-10
4.43172e-10
4.44892e-10
4.46618e-10
4.48352e-10
4.50093e-10
4.51842e-10
4.53598e-10
4.55362e-10
4.57134e-10
4.58914e-10
4.60702e-10
4.62498e-10
4.64302e-10
4.66115e-10
4.67936e-10
4.69767e-10
4.71606e-10
4.73454e-10
4.75311e-10
4.77177e-10
4.79052e-10
4.80936e-10
4.82831e-10
4.84734e-10
4.86648e-10
4.88571e-10
4.90505e-10
4.92448e-10
4.944e-10
4.96363e-10
4.98335e-10
5.00318e-10
5.0231e-10
5.04313e-10
5.06324e-10
5.08345e-10
5.10376e-10
5.12415e-10
5.14463e-10
5.1652e-10
5.18585e-10
5.20657e-10
5.22735e-10
5.24819e-10
5.26907e-10
5.28999e-10
5.31093e-10
5.33187e-10
5.35279e-10
5.37366e-10
5.39444e-10
5.41509e-10
5.43558e-10
5.45586e-10
5.47585e-10
5.4955e-10
5.51472e-10
5.53344e-10
5.55157e-10
5.56903e-10
5.58572e-10
5.60158e-10
5.6165e-10
5.63042e-10
5.6433e-10
5.6551e-10
5.6658e-10
5.67542e-10
5.684e-10
5.69158e-10
5.69829e-10
5.7043e-10
5.70987e-10
5.7154e-10
5.72155e-10
5.72943e-10
5.74092e-10
5.75935e-10
5.79044e-10
5.84398e-10
5.93602e-10
6.09111e-10
6.3418e-10
6.71951e-10
7.23076e-10
7.82844e-10
8.41434e-10
8.89314e-10
9.22657e-10
9.43251e-10
9.55012e-10
9.61432e-10
9.64856e-10
9.66669e-10
9.67633e-10
9.68154e-10
9.68443e-10
9.68611e-10
9.68716e-10
9.68786e-10
9.68837e-10
9.68876e-10
9.68908e-10
9.68934e-10
9.68957e-10
9.68977e-10
9.68995e-10
9.6901e-10
9.69023e-10
9.69035e-10
9.69046e-10
9.69056e-10
9.69065e-10
9.69073e-10
9.69081e-10
9.69089e-10
9.69097e-10
9.69104e-10
9.69112e-10
9.6912e-10
9.69128e-10
9.69136e-10
9.69145e-10
9.69154e-10
9.69163e-10
9.69173e-10
9.69184e-10
9.69194e-10
9.69206e-10
9.69217e-10
9.69229e-10
9.69241e-10
9.69253e-10
9.69266e-10
9.69279e-10
9.69292e-10
9.69305e-10
9.69318e-10
9.69332e-10
9.69345e-10
9.69358e-10
9.69372e-10
9.69385e-10
9.69398e-10
9.69411e-10
9.69424e-10
9.69436e-10
9.69449e-10
9.69461e-10
9.69473e-10
9.69485e-10
9.69496e-10
9.69507e-10
9.69518e-10
9.69529e-10
9.69539e-10
9.69549e-10
9.69559e-10
9.69569e-10
9.69578e-10
9.69587e-10
9.69595e-10
9.69603e-10
9.69611e-10
9.69619e-10
9.69626e-10
9.69633e-10
9.69639e-10
9.69646e-10
9.69652e-10
9.69657e-10
9.69662e-10
9.69667e-10
9.69672e-10
9.69676e-10
9.6968e-10
9.69684e-10
9.69687e-10
9.6969e-10
9.69693e-10
9.69695e-10
9.69697e-10
9.69699e-10
9.697e-10
9.69701e-10
9.69702e-10
9.69702e-10
9.69703e-10
9.69703e-10
9.69702e-10
9.69701e-10
9.697e-10
9.69699e-10
9.69697e-10
9.69694e-10
9.69692e-10
9.69689e-10
9.69686e-10
9.69683e-10
9.69679e-10
9.69675e-10
9.69671e-10
9.69667e-10
9.69662e-10
9.69657e-10
9.69652e-10
9.69646e-10
9.69641e-10
9.69635e-10
9.69628e-10
9.69622e-10
9.69615e-10
9.69608e-10
9.69601e-10
9.69594e-10
9.69586e-10
9.69578e-10
9.6957e-10
9.69561e-10
9.69552e-10
9.69543e-10
9.69534e-10
9.69523e-10
9.69513e-10
9.69502e-10
9.6949e-10
9.69477e-10
9.69464e-10
9.6945e-10
9.69435e-10
9.69419e-10
9.69402e-10
9.69384e-10
9.69365e-10
9.69344e-10
9.69322e-10
9.69298e-10
9.69272e-10
9.69245e-10
9.69216e-10
9.69185e-10
9.69152e-10
9.69117e-10
9.69079e-10
9.6904e-10
9.68998e-10
9.68954e-10
9.68908e-10
9.6886e-10
9.68809e-10
9.68757e-10
9.68702e-10
9.68646e-10
9.68588e-10
9.68529e-10
9.68468e-10
9.68406e-10
9.68344e-10
9.68281e-10
9.68218e-10
9.68155e-10
9.68092e-10
9.6803e-10
9.67969e-10
9.6791e-10
9.67853e-10
9.67798e-10
9.67746e-10
9.67697e-10
9.67652e-10
9.67611e-10
9.67574e-10
9.67541e-10
9.67514e-10
9.67492e-10
9.67475e-10
9.67464e-10
9.67458e-10
9.67456e-10
9.67456e-10
9.67459e-10
9.67471e-10
9.67493e-10
9.6752e-10
9.67552e-10
9.67589e-10
9.67631e-10
9.67676e-10
9.67724e-10
9.67776e-10
9.6783e-10
9.67887e-10
9.67945e-10
9.68004e-10
9.68063e-10
9.68123e-10
9.68182e-10
9.68241e-10
9.68299e-10
9.68355e-10
9.68409e-10
9.68462e-10
9.68513e-10
9.68561e-10
9.68607e-10
9.6865e-10
9.68691e-10
9.68729e-10
9.68764e-10
9.68797e-10
9.68828e-10
9.68856e-10
9.68881e-10
9.68905e-10
9.68927e-10
9.68946e-10
9.68964e-10
9.68981e-10
9.68996e-10
9.6901e-10
9.69023e-10
9.69036e-10
9.69047e-10
9.69058e-10
9.69069e-10
9.69079e-10
9.69089e-10
9.69099e-10
9.69109e-10
9.6912e-10
9.6913e-10
9.69141e-10
9.69152e-10
9.69163e-10
9.69174e-10
9.69186e-10
9.69198e-10
9.6921e-10
9.69223e-10
9.69236e-10
9.69249e-10
9.69262e-10
9.69276e-10
9.69289e-10
9.69303e-10
9.69317e-10
9.69331e-10
9.69345e-10
9.69359e-10
9.69373e-10
9.69387e-10
9.694e-10
9.69414e-10
9.69427e-10
9.6944e-10
9.69453e-10
9.69466e-10
9.69478e-10
9.6949e-10
9.69501e-10
9.69513e-10
9.69524e-10
9.69534e-10
9.69545e-10
9.69555e-10
9.69564e-10
9.69573e-10
9.69582e-10
9.6959e-10
9.69598e-10
9.69606e-10
9.69613e-10
9.6962e-10
9.69627e-10
9.69633e-10
9.69639e-10
9.69644e-10
9.69649e-10
9.69654e-10
9.69658e-10
9.69663e-10
9.69666e-10
9.6967e-10
9.69673e-10
9.69676e-10
9.69679e-10
9.69681e-10
9.69683e-10
9.69684e-10
9.69686e-10
9.69687e-10
9.69687e-10
9.69688e-10
9.69688e-10
9.69688e-10
9.69688e-10
9.69688e-10
9.69686e-10
9.69685e-10
9.69683e-10
9.69682e-10
9.69679e-10
9.69677e-10
9.69674e-10
9.69671e-10
9.69667e-10
9.69664e-10
9.6966e-10
9.69656e-10
9.69651e-10
9.69646e-10
9.69641e-10
9.69636e-10
9.6963e-10
9.69624e-10
9.69618e-10
9.69611e-10
9.69604e-10
9.69597e-10
9.69589e-10
9.69581e-10
9.69573e-10
9.69564e-10
9.69555e-10
9.69546e-10
9.69536e-10
9.69526e-10
9.69515e-10
9.69503e-10
9.69491e-10
9.69479e-10
9.69466e-10
9.69452e-10
9.69437e-10
9.69421e-10
9.69405e-10
9.69388e-10
9.69369e-10
9.6935e-10
9.69329e-10
9.69307e-10
9.69284e-10
9.6926e-10
9.69234e-10
9.69207e-10
9.69178e-10
9.69147e-10
9.69115e-10
9.69082e-10
9.69046e-10
9.69009e-10
9.68971e-10
9.6893e-10
9.68888e-10
9.68845e-10
9.68799e-10
9.68752e-10
9.68704e-10
9.68654e-10
9.68603e-10
9.68551e-10
9.68498e-10
9.68444e-10
9.6839e-10
9.68335e-10
9.68279e-10
9.68224e-10
9.68169e-10
9.68114e-10
9.68061e-10
9.68008e-10
9.67956e-10
9.67906e-10
9.67858e-10
9.67812e-10
9.67769e-10
9.67728e-10
9.6769e-10
9.67656e-10
9.67624e-10
9.67597e-10
9.67574e-10
9.67554e-10
9.67539e-10
9.67529e-10
9.67523e-10
9.67521e-10
9.6752e-10
9.67521e-10
9.67526e-10
9.67543e-10
9.67564e-10
9.67589e-10
9.67618e-10
9.6765e-10
9.67687e-10
9.67726e-10
9.67768e-10
9.67813e-10
9.6786e-10
9.67909e-10
9.67959e-10
9.6801e-10
9.68062e-10
9.68115e-10
9.68168e-10
9.6822e-10
9.68272e-10
9.68323e-10
9.68373e-10
9.68422e-10
9.6847e-10
9.68516e-10
9.6856e-10
9.68602e-10
9.68643e-10
9.68681e-10
9.68718e-10
9.68753e-10
9.68786e-10
9.68817e-10
9.68846e-10
9.68874e-10
9.68899e-10
9.68924e-10
9.68947e-10
9.68968e-10
9.68989e-10
9.69008e-10
9.69027e-10
9.69044e-10
9.69061e-10
9.69077e-10
9.69093e-10
9.69108e-10
9.69123e-10
9.69137e-10
9.69151e-10
9.69165e-10
9.69179e-10
9.69193e-10
9.69207e-10
9.6922e-10
9.69234e-10
9.69248e-10
9.69262e-10
9.69276e-10
9.6929e-10
9.69304e-10
9.69318e-10
9.69332e-10
9.69346e-10
9.6936e-10
9.69374e-10
9.69388e-10
9.69402e-10
9.69416e-10
9.6943e-10
9.69444e-10
9.69457e-10
9.69471e-10
9.69484e-10
9.69497e-10
9.6951e-10
9.69522e-10
9.69534e-10
9.69546e-10
9.69558e-10
9.69569e-10
9.6958e-10
9.6959e-10
9.696e-10
9.6961e-10
9.69619e-10
9.69628e-10
9.69637e-10
9.69645e-10
9.69652e-10
9.6966e-10
9.69667e-10
9.69673e-10
9.69679e-10
9.69685e-10
9.6969e-10
9.69695e-10
9.69699e-10
9.69703e-10
9.69706e-10
9.6971e-10
9.69712e-10
9.69715e-10
9.69717e-10
9.69719e-10
9.6972e-10
9.69721e-10
9.69721e-10
)
;

boundaryField
{
    inlet
    {
        type            calculated;
        value           uniform 0;
    }
    outlet
    {
        type            calculated;
        value           uniform 9.69721e-10;
    }
    emptyWalls
    {
        type            empty;
        value           nonuniform List<scalar> 0();
    }
}


// ************************************************************************* //
