/*--------------------------------*- C++ -*----------------------------------*\
  =========                 |
  \\      /  F ield         | OpenFOAM: The Open Source CFD Toolbox
   \\    /   O peration     | Website:  https://openfoam.org
    \\  /    A nd           | Version:  9
     \\/     M anipulation  |
\*---------------------------------------------------------------------------*/
FoamFile
{
    format      ascii;
    class       volVectorField;
    location    "12150";
    object      Uc;
}
// * * * * * * * * * * * * * * * * * * * * * * * * * * * * * * * * * * * * * //

dimensions      [0 0 0 0 0 0 0];

internalField   nonuniform List<vector> 
1000
(
(1.97889e-11 0 0)
(1.08586e-10 0 0)
(2.99236e-10 0 0)
(5.89964e-10 0 0)
(9.72415e-10 0 0)
(1.43909e-09 0 0)
(1.97787e-09 0 0)
(2.57066e-09 0 0)
(3.19307e-09 0 0)
(3.81695e-09 0 0)
(4.41666e-09 0 0)
(4.97874e-09 0 0)
(5.54388e-09 0 0)
(6.40175e-09 0 0)
(8.91207e-09 0 0)
(1.78576e-08 0 0)
(6.2022e-08 0 0)
(1.46161e-07 0 0)
(2.01871e-07 0 0)
(2.13901e-07 0 0)
(2.19129e-07 0 0)
(2.22483e-07 0 0)
(2.25098e-07 0 0)
(2.27377e-07 0 0)
(2.29469e-07 0 0)
(2.31422e-07 0 0)
(2.33288e-07 0 0)
(2.35096e-07 0 0)
(2.36834e-07 0 0)
(2.38499e-07 0 0)
(2.40101e-07 0 0)
(2.41652e-07 0 0)
(2.43168e-07 0 0)
(2.44667e-07 0 0)
(2.46168e-07 0 0)
(2.47691e-07 0 0)
(2.49287e-07 0 0)
(2.50982e-07 0 0)
(2.52766e-07 0 0)
(2.54654e-07 0 0)
(2.56677e-07 0 0)
(2.5889e-07 0 0)
(2.61375e-07 0 0)
(2.64252e-07 0 0)
(2.67679e-07 0 0)
(2.71816e-07 0 0)
(2.76768e-07 0 0)
(2.82511e-07 0 0)
(2.88902e-07 0 0)
(2.95764e-07 0 0)
(3.02958e-07 0 0)
(3.10397e-07 0 0)
(3.18019e-07 0 0)
(3.25784e-07 0 0)
(3.33663e-07 0 0)
(3.41639e-07 0 0)
(3.49695e-07 0 0)
(3.57822e-07 0 0)
(3.6601e-07 0 0)
(3.74255e-07 0 0)
(3.82551e-07 0 0)
(3.90893e-07 0 0)
(3.9928e-07 0 0)
(4.07707e-07 0 0)
(4.16174e-07 0 0)
(4.24677e-07 0 0)
(4.33216e-07 0 0)
(4.41789e-07 0 0)
(4.50394e-07 0 0)
(4.59031e-07 0 0)
(4.67698e-07 0 0)
(4.76395e-07 0 0)
(4.85119e-07 0 0)
(4.93872e-07 0 0)
(5.02651e-07 0 0)
(5.11457e-07 0 0)
(5.20288e-07 0 0)
(5.29145e-07 0 0)
(5.38026e-07 0 0)
(5.46931e-07 0 0)
(5.5586e-07 0 0)
(5.64811e-07 0 0)
(5.73785e-07 0 0)
(5.82781e-07 0 0)
(5.91799e-07 0 0)
(6.00838e-07 0 0)
(6.09898e-07 0 0)
(6.18979e-07 0 0)
(6.2808e-07 0 0)
(6.37201e-07 0 0)
(6.46341e-07 0 0)
(6.55501e-07 0 0)
(6.64681e-07 0 0)
(6.73878e-07 0 0)
(6.83095e-07 0 0)
(6.92329e-07 0 0)
(7.01582e-07 0 0)
(7.10853e-07 0 0)
(7.20141e-07 0 0)
(7.29447e-07 0 0)
(7.38771e-07 0 0)
(7.48112e-07 0 0)
(7.57471e-07 0 0)
(7.66848e-07 0 0)
(7.76242e-07 0 0)
(7.85654e-07 0 0)
(7.95082e-07 0 0)
(8.04527e-07 0 0)
(8.13987e-07 0 0)
(8.23463e-07 0 0)
(8.32954e-07 0 0)
(8.4246e-07 0 0)
(8.5198e-07 0 0)
(8.61516e-07 0 0)
(8.71066e-07 0 0)
(8.80632e-07 0 0)
(8.90213e-07 0 0)
(8.99808e-07 0 0)
(9.09417e-07 0 0)
(9.19038e-07 0 0)
(9.28668e-07 0 0)
(9.38306e-07 0 0)
(9.47949e-07 0 0)
(9.57594e-07 0 0)
(9.67241e-07 0 0)
(9.76887e-07 0 0)
(9.86533e-07 0 0)
(9.96178e-07 0 0)
(1.00582e-06 0 0)
(1.01547e-06 0 0)
(1.02512e-06 0 0)
(1.03477e-06 0 0)
(1.04444e-06 0 0)
(1.05411e-06 0 0)
(1.0638e-06 0 0)
(1.07351e-06 0 0)
(1.08324e-06 0 0)
(1.09301e-06 0 0)
(1.1028e-06 0 0)
(1.11264e-06 0 0)
(1.12253e-06 0 0)
(1.13246e-06 0 0)
(1.14244e-06 0 0)
(1.15247e-06 0 0)
(1.16255e-06 0 0)
(1.17268e-06 0 0)
(1.18285e-06 0 0)
(1.19306e-06 0 0)
(1.20331e-06 0 0)
(1.21358e-06 0 0)
(1.22387e-06 0 0)
(1.23418e-06 0 0)
(1.24449e-06 0 0)
(1.25481e-06 0 0)
(1.26512e-06 0 0)
(1.27544e-06 0 0)
(1.28574e-06 0 0)
(1.29605e-06 0 0)
(1.30634e-06 0 0)
(1.31663e-06 0 0)
(1.32692e-06 0 0)
(1.3372e-06 0 0)
(1.34748e-06 0 0)
(1.35777e-06 0 0)
(1.36807e-06 0 0)
(1.37837e-06 0 0)
(1.38868e-06 0 0)
(1.399e-06 0 0)
(1.40934e-06 0 0)
(1.41969e-06 0 0)
(1.43006e-06 0 0)
(1.44045e-06 0 0)
(1.45085e-06 0 0)
(1.46128e-06 0 0)
(1.47172e-06 0 0)
(1.48218e-06 0 0)
(1.49265e-06 0 0)
(1.50315e-06 0 0)
(1.51366e-06 0 0)
(1.52419e-06 0 0)
(1.53474e-06 0 0)
(1.5453e-06 0 0)
(1.55588e-06 0 0)
(1.56648e-06 0 0)
(1.57709e-06 0 0)
(1.58771e-06 0 0)
(1.59836e-06 0 0)
(1.60901e-06 0 0)
(1.61968e-06 0 0)
(1.63037e-06 0 0)
(1.64107e-06 0 0)
(1.65179e-06 0 0)
(1.66252e-06 0 0)
(1.67327e-06 0 0)
(1.68403e-06 0 0)
(1.6948e-06 0 0)
(1.70559e-06 0 0)
(1.7164e-06 0 0)
(1.72722e-06 0 0)
(1.73805e-06 0 0)
(1.7489e-06 0 0)
(1.75976e-06 0 0)
(1.77064e-06 0 0)
(1.78153e-06 0 0)
(1.79244e-06 0 0)
(1.80337e-06 0 0)
(1.81431e-06 0 0)
(1.82526e-06 0 0)
(1.83623e-06 0 0)
(1.84721e-06 0 0)
(1.85821e-06 0 0)
(1.86922e-06 0 0)
(1.88025e-06 0 0)
(1.8913e-06 0 0)
(1.90236e-06 0 0)
(1.91343e-06 0 0)
(1.92452e-06 0 0)
(1.93562e-06 0 0)
(1.94674e-06 0 0)
(1.95788e-06 0 0)
(1.96903e-06 0 0)
(1.98019e-06 0 0)
(1.99137e-06 0 0)
(2.00257e-06 0 0)
(2.01378e-06 0 0)
(2.02501e-06 0 0)
(2.03625e-06 0 0)
(2.0475e-06 0 0)
(2.05878e-06 0 0)
(2.07006e-06 0 0)
(2.08137e-06 0 0)
(2.09269e-06 0 0)
(2.10402e-06 0 0)
(2.11537e-06 0 0)
(2.12674e-06 0 0)
(2.13812e-06 0 0)
(2.14952e-06 0 0)
(2.16094e-06 0 0)
(2.17237e-06 0 0)
(2.18381e-06 0 0)
(2.19528e-06 0 0)
(2.20676e-06 0 0)
(2.21826e-06 0 0)
(2.22978e-06 0 0)
(2.24131e-06 0 0)
(2.25286e-06 0 0)
(2.26443e-06 0 0)
(2.27602e-06 0 0)
(2.28762e-06 0 0)
(2.29925e-06 0 0)
(2.31089e-06 0 0)
(2.32255e-06 0 0)
(2.33422e-06 0 0)
(2.34592e-06 0 0)
(2.35763e-06 0 0)
(2.36936e-06 0 0)
(2.38111e-06 0 0)
(2.39288e-06 0 0)
(2.40466e-06 0 0)
(2.41646e-06 0 0)
(2.42828e-06 0 0)
(2.44012e-06 0 0)
(2.45197e-06 0 0)
(2.46384e-06 0 0)
(2.47572e-06 0 0)
(2.48761e-06 0 0)
(2.49952e-06 0 0)
(2.51144e-06 0 0)
(2.52336e-06 0 0)
(2.5353e-06 0 0)
(2.54724e-06 0 0)
(2.55919e-06 0 0)
(2.57114e-06 0 0)
(2.5831e-06 0 0)
(2.59506e-06 0 0)
(2.60702e-06 0 0)
(2.61899e-06 0 0)
(2.63096e-06 0 0)
(2.64294e-06 0 0)
(2.65492e-06 0 0)
(2.66692e-06 0 0)
(2.67893e-06 0 0)
(2.69095e-06 0 0)
(2.70299e-06 0 0)
(2.71505e-06 0 0)
(2.72715e-06 0 0)
(2.73927e-06 0 0)
(2.75142e-06 0 0)
(2.76362e-06 0 0)
(2.77587e-06 0 0)
(2.78816e-06 0 0)
(2.80051e-06 0 0)
(2.81292e-06 0 0)
(2.82539e-06 0 0)
(2.83792e-06 0 0)
(2.85052e-06 0 0)
(2.86319e-06 0 0)
(2.87593e-06 0 0)
(2.88873e-06 0 0)
(2.9016e-06 0 0)
(2.91453e-06 0 0)
(2.92752e-06 0 0)
(2.94057e-06 0 0)
(2.95366e-06 0 0)
(2.9668e-06 0 0)
(2.97998e-06 0 0)
(2.99319e-06 0 0)
(3.00643e-06 0 0)
(3.0197e-06 0 0)
(3.03298e-06 0 0)
(3.04628e-06 0 0)
(3.05959e-06 0 0)
(3.07291e-06 0 0)
(3.08624e-06 0 0)
(3.09958e-06 0 0)
(3.11292e-06 0 0)
(3.12627e-06 0 0)
(3.13962e-06 0 0)
(3.15299e-06 0 0)
(3.16637e-06 0 0)
(3.17975e-06 0 0)
(3.19316e-06 0 0)
(3.20658e-06 0 0)
(3.22001e-06 0 0)
(3.23347e-06 0 0)
(3.24695e-06 0 0)
(3.26046e-06 0 0)
(3.27399e-06 0 0)
(3.28755e-06 0 0)
(3.30115e-06 0 0)
(3.31477e-06 0 0)
(3.32843e-06 0 0)
(3.34212e-06 0 0)
(3.35585e-06 0 0)
(3.36962e-06 0 0)
(3.38342e-06 0 0)
(3.39726e-06 0 0)
(3.41113e-06 0 0)
(3.42505e-06 0 0)
(3.439e-06 0 0)
(3.45299e-06 0 0)
(3.46702e-06 0 0)
(3.48109e-06 0 0)
(3.4952e-06 0 0)
(3.50935e-06 0 0)
(3.52353e-06 0 0)
(3.53775e-06 0 0)
(3.55202e-06 0 0)
(3.56632e-06 0 0)
(3.58066e-06 0 0)
(3.59503e-06 0 0)
(3.60945e-06 0 0)
(3.62391e-06 0 0)
(3.6384e-06 0 0)
(3.65294e-06 0 0)
(3.66751e-06 0 0)
(3.68213e-06 0 0)
(3.69678e-06 0 0)
(3.71148e-06 0 0)
(3.72622e-06 0 0)
(3.741e-06 0 0)
(3.75582e-06 0 0)
(3.77068e-06 0 0)
(3.78558e-06 0 0)
(3.80053e-06 0 0)
(3.81552e-06 0 0)
(3.83056e-06 0 0)
(3.84564e-06 0 0)
(3.86077e-06 0 0)
(3.87594e-06 0 0)
(3.89116e-06 0 0)
(3.90643e-06 0 0)
(3.92174e-06 0 0)
(3.9371e-06 0 0)
(3.95251e-06 0 0)
(3.96797e-06 0 0)
(3.98348e-06 0 0)
(3.99904e-06 0 0)
(4.01465e-06 0 0)
(4.03031e-06 0 0)
(4.04602e-06 0 0)
(4.06179e-06 0 0)
(4.0776e-06 0 0)
(4.09347e-06 0 0)
(4.1094e-06 0 0)
(4.12538e-06 0 0)
(4.14141e-06 0 0)
(4.1575e-06 0 0)
(4.17365e-06 0 0)
(4.18985e-06 0 0)
(4.20611e-06 0 0)
(4.22243e-06 0 0)
(4.23882e-06 0 0)
(4.25526e-06 0 0)
(4.27176e-06 0 0)
(4.28832e-06 0 0)
(4.30495e-06 0 0)
(4.32164e-06 0 0)
(4.33839e-06 0 0)
(4.35521e-06 0 0)
(4.37209e-06 0 0)
(4.38905e-06 0 0)
(4.40607e-06 0 0)
(4.42316e-06 0 0)
(4.44032e-06 0 0)
(4.45755e-06 0 0)
(4.47485e-06 0 0)
(4.49222e-06 0 0)
(4.50967e-06 0 0)
(4.5272e-06 0 0)
(4.5448e-06 0 0)
(4.56248e-06 0 0)
(4.58024e-06 0 0)
(4.59808e-06 0 0)
(4.616e-06 0 0)
(4.634e-06 0 0)
(4.65209e-06 0 0)
(4.67026e-06 0 0)
(4.68852e-06 0 0)
(4.70686e-06 0 0)
(4.7253e-06 0 0)
(4.74382e-06 0 0)
(4.76244e-06 0 0)
(4.78114e-06 0 0)
(4.79994e-06 0 0)
(4.81884e-06 0 0)
(4.83782e-06 0 0)
(4.85691e-06 0 0)
(4.8761e-06 0 0)
(4.89538e-06 0 0)
(4.91476e-06 0 0)
(4.93424e-06 0 0)
(4.95382e-06 0 0)
(4.97349e-06 0 0)
(4.99327e-06 0 0)
(5.01314e-06 0 0)
(5.03311e-06 0 0)
(5.05318e-06 0 0)
(5.07335e-06 0 0)
(5.09361e-06 0 0)
(5.11395e-06 0 0)
(5.13439e-06 0 0)
(5.15492e-06 0 0)
(5.17552e-06 0 0)
(5.19621e-06 0 0)
(5.21696e-06 0 0)
(5.23777e-06 0 0)
(5.25863e-06 0 0)
(5.27953e-06 0 0)
(5.30046e-06 0 0)
(5.3214e-06 0 0)
(5.34233e-06 0 0)
(5.36322e-06 0 0)
(5.38405e-06 0 0)
(5.40476e-06 0 0)
(5.42534e-06 0 0)
(5.44572e-06 0 0)
(5.46585e-06 0 0)
(5.48568e-06 0 0)
(5.50511e-06 0 0)
(5.52408e-06 0 0)
(5.5425e-06 0 0)
(5.5603e-06 0 0)
(5.57737e-06 0 0)
(5.59365e-06 0 0)
(5.60904e-06 0 0)
(5.62346e-06 0 0)
(5.63686e-06 0 0)
(5.6492e-06 0 0)
(5.66045e-06 0 0)
(5.67061e-06 0 0)
(5.67971e-06 0 0)
(5.68779e-06 0 0)
(5.69494e-06 0 0)
(5.7013e-06 0 0)
(5.70709e-06 0 0)
(5.71264e-06 0 0)
(5.71848e-06 0 0)
(5.72549e-06 0 0)
(5.73517e-06 0 0)
(5.75013e-06 0 0)
(5.77489e-06 0 0)
(5.81721e-06 0 0)
(5.89e-06 0 0)
(6.01357e-06 0 0)
(6.21646e-06 0 0)
(6.53065e-06 0 0)
(6.97513e-06 0 0)
(7.5296e-06 0 0)
(8.12139e-06 0 0)
(8.65374e-06 0 0)
(9.05986e-06 0 0)
(9.32954e-06 0 0)
(9.49132e-06 0 0)
(9.58222e-06 0 0)
(9.63144e-06 0 0)
(9.65763e-06 0 0)
(9.67151e-06 0 0)
(9.67893e-06 0 0)
(9.68298e-06 0 0)
(9.68527e-06 0 0)
(9.68664e-06 0 0)
(9.68751e-06 0 0)
(9.68811e-06 0 0)
(9.68856e-06 0 0)
(9.68892e-06 0 0)
(9.68921e-06 0 0)
(9.68946e-06 0 0)
(9.68967e-06 0 0)
(9.68986e-06 0 0)
(9.69002e-06 0 0)
(9.69017e-06 0 0)
(9.69029e-06 0 0)
(9.69041e-06 0 0)
(9.69051e-06 0 0)
(9.6906e-06 0 0)
(9.69069e-06 0 0)
(9.69077e-06 0 0)
(9.69085e-06 0 0)
(9.69093e-06 0 0)
(9.691e-06 0 0)
(9.69108e-06 0 0)
(9.69116e-06 0 0)
(9.69124e-06 0 0)
(9.69132e-06 0 0)
(9.6914e-06 0 0)
(9.69149e-06 0 0)
(9.69159e-06 0 0)
(9.69168e-06 0 0)
(9.69178e-06 0 0)
(9.69189e-06 0 0)
(9.692e-06 0 0)
(9.69211e-06 0 0)
(9.69223e-06 0 0)
(9.69235e-06 0 0)
(9.69247e-06 0 0)
(9.6926e-06 0 0)
(9.69273e-06 0 0)
(9.69285e-06 0 0)
(9.69299e-06 0 0)
(9.69312e-06 0 0)
(9.69325e-06 0 0)
(9.69338e-06 0 0)
(9.69352e-06 0 0)
(9.69365e-06 0 0)
(9.69378e-06 0 0)
(9.69391e-06 0 0)
(9.69404e-06 0 0)
(9.69417e-06 0 0)
(9.6943e-06 0 0)
(9.69442e-06 0 0)
(9.69455e-06 0 0)
(9.69467e-06 0 0)
(9.69479e-06 0 0)
(9.6949e-06 0 0)
(9.69502e-06 0 0)
(9.69513e-06 0 0)
(9.69524e-06 0 0)
(9.69534e-06 0 0)
(9.69544e-06 0 0)
(9.69554e-06 0 0)
(9.69564e-06 0 0)
(9.69573e-06 0 0)
(9.69582e-06 0 0)
(9.69591e-06 0 0)
(9.69599e-06 0 0)
(9.69607e-06 0 0)
(9.69615e-06 0 0)
(9.69622e-06 0 0)
(9.69629e-06 0 0)
(9.69636e-06 0 0)
(9.69642e-06 0 0)
(9.69649e-06 0 0)
(9.69654e-06 0 0)
(9.6966e-06 0 0)
(9.69665e-06 0 0)
(9.6967e-06 0 0)
(9.69674e-06 0 0)
(9.69678e-06 0 0)
(9.69682e-06 0 0)
(9.69686e-06 0 0)
(9.69689e-06 0 0)
(9.69692e-06 0 0)
(9.69694e-06 0 0)
(9.69696e-06 0 0)
(9.69698e-06 0 0)
(9.697e-06 0 0)
(9.69701e-06 0 0)
(9.69702e-06 0 0)
(9.69702e-06 0 0)
(9.69703e-06 0 0)
(9.69703e-06 0 0)
(9.69703e-06 0 0)
(9.69702e-06 0 0)
(9.69701e-06 0 0)
(9.69699e-06 0 0)
(9.69698e-06 0 0)
(9.69696e-06 0 0)
(9.69693e-06 0 0)
(9.69691e-06 0 0)
(9.69688e-06 0 0)
(9.69684e-06 0 0)
(9.69681e-06 0 0)
(9.69677e-06 0 0)
(9.69673e-06 0 0)
(9.69669e-06 0 0)
(9.69664e-06 0 0)
(9.69659e-06 0 0)
(9.69654e-06 0 0)
(9.69649e-06 0 0)
(9.69643e-06 0 0)
(9.69638e-06 0 0)
(9.69631e-06 0 0)
(9.69625e-06 0 0)
(9.69619e-06 0 0)
(9.69612e-06 0 0)
(9.69605e-06 0 0)
(9.69597e-06 0 0)
(9.6959e-06 0 0)
(9.69582e-06 0 0)
(9.69574e-06 0 0)
(9.69566e-06 0 0)
(9.69557e-06 0 0)
(9.69548e-06 0 0)
(9.69538e-06 0 0)
(9.69528e-06 0 0)
(9.69518e-06 0 0)
(9.69507e-06 0 0)
(9.69496e-06 0 0)
(9.69484e-06 0 0)
(9.69471e-06 0 0)
(9.69457e-06 0 0)
(9.69443e-06 0 0)
(9.69427e-06 0 0)
(9.69411e-06 0 0)
(9.69393e-06 0 0)
(9.69374e-06 0 0)
(9.69354e-06 0 0)
(9.69333e-06 0 0)
(9.6931e-06 0 0)
(9.69285e-06 0 0)
(9.69259e-06 0 0)
(9.6923e-06 0 0)
(9.692e-06 0 0)
(9.69168e-06 0 0)
(9.69134e-06 0 0)
(9.69098e-06 0 0)
(9.69059e-06 0 0)
(9.69019e-06 0 0)
(9.68976e-06 0 0)
(9.68931e-06 0 0)
(9.68884e-06 0 0)
(9.68834e-06 0 0)
(9.68783e-06 0 0)
(9.6873e-06 0 0)
(9.68674e-06 0 0)
(9.68617e-06 0 0)
(9.68559e-06 0 0)
(9.68499e-06 0 0)
(9.68437e-06 0 0)
(9.68375e-06 0 0)
(9.68312e-06 0 0)
(9.68249e-06 0 0)
(9.68186e-06 0 0)
(9.68123e-06 0 0)
(9.68061e-06 0 0)
(9.68e-06 0 0)
(9.6794e-06 0 0)
(9.67881e-06 0 0)
(9.67826e-06 0 0)
(9.67772e-06 0 0)
(9.67722e-06 0 0)
(9.67675e-06 0 0)
(9.67632e-06 0 0)
(9.67592e-06 0 0)
(9.67558e-06 0 0)
(9.67528e-06 0 0)
(9.67503e-06 0 0)
(9.67483e-06 0 0)
(9.67469e-06 0 0)
(9.67461e-06 0 0)
(9.67457e-06 0 0)
(9.67456e-06 0 0)
(9.67457e-06 0 0)
(9.67465e-06 0 0)
(9.67482e-06 0 0)
(9.67506e-06 0 0)
(9.67536e-06 0 0)
(9.67571e-06 0 0)
(9.6761e-06 0 0)
(9.67653e-06 0 0)
(9.677e-06 0 0)
(9.6775e-06 0 0)
(9.67803e-06 0 0)
(9.67858e-06 0 0)
(9.67916e-06 0 0)
(9.67974e-06 0 0)
(9.68033e-06 0 0)
(9.68093e-06 0 0)
(9.68153e-06 0 0)
(9.68212e-06 0 0)
(9.6827e-06 0 0)
(9.68327e-06 0 0)
(9.68382e-06 0 0)
(9.68436e-06 0 0)
(9.68487e-06 0 0)
(9.68537e-06 0 0)
(9.68584e-06 0 0)
(9.68628e-06 0 0)
(9.6867e-06 0 0)
(9.6871e-06 0 0)
(9.68747e-06 0 0)
(9.68781e-06 0 0)
(9.68812e-06 0 0)
(9.68842e-06 0 0)
(9.68868e-06 0 0)
(9.68893e-06 0 0)
(9.68916e-06 0 0)
(9.68936e-06 0 0)
(9.68955e-06 0 0)
(9.68973e-06 0 0)
(9.68989e-06 0 0)
(9.69003e-06 0 0)
(9.69017e-06 0 0)
(9.6903e-06 0 0)
(9.69041e-06 0 0)
(9.69053e-06 0 0)
(9.69063e-06 0 0)
(9.69074e-06 0 0)
(9.69084e-06 0 0)
(9.69094e-06 0 0)
(9.69104e-06 0 0)
(9.69115e-06 0 0)
(9.69125e-06 0 0)
(9.69135e-06 0 0)
(9.69146e-06 0 0)
(9.69157e-06 0 0)
(9.69168e-06 0 0)
(9.6918e-06 0 0)
(9.69192e-06 0 0)
(9.69204e-06 0 0)
(9.69217e-06 0 0)
(9.69229e-06 0 0)
(9.69242e-06 0 0)
(9.69256e-06 0 0)
(9.69269e-06 0 0)
(9.69283e-06 0 0)
(9.69296e-06 0 0)
(9.6931e-06 0 0)
(9.69324e-06 0 0)
(9.69338e-06 0 0)
(9.69352e-06 0 0)
(9.69366e-06 0 0)
(9.6938e-06 0 0)
(9.69393e-06 0 0)
(9.69407e-06 0 0)
(9.6942e-06 0 0)
(9.69434e-06 0 0)
(9.69447e-06 0 0)
(9.69459e-06 0 0)
(9.69472e-06 0 0)
(9.69484e-06 0 0)
(9.69496e-06 0 0)
(9.69507e-06 0 0)
(9.69518e-06 0 0)
(9.69529e-06 0 0)
(9.6954e-06 0 0)
(9.6955e-06 0 0)
(9.69559e-06 0 0)
(9.69569e-06 0 0)
(9.69578e-06 0 0)
(9.69586e-06 0 0)
(9.69594e-06 0 0)
(9.69602e-06 0 0)
(9.6961e-06 0 0)
(9.69617e-06 0 0)
(9.69623e-06 0 0)
(9.6963e-06 0 0)
(9.69636e-06 0 0)
(9.69641e-06 0 0)
(9.69647e-06 0 0)
(9.69652e-06 0 0)
(9.69656e-06 0 0)
(9.69661e-06 0 0)
(9.69664e-06 0 0)
(9.69668e-06 0 0)
(9.69671e-06 0 0)
(9.69675e-06 0 0)
(9.69677e-06 0 0)
(9.6968e-06 0 0)
(9.69682e-06 0 0)
(9.69683e-06 0 0)
(9.69685e-06 0 0)
(9.69686e-06 0 0)
(9.69687e-06 0 0)
(9.69687e-06 0 0)
(9.69688e-06 0 0)
(9.69688e-06 0 0)
(9.69688e-06 0 0)
(9.69688e-06 0 0)
(9.69687e-06 0 0)
(9.69686e-06 0 0)
(9.69684e-06 0 0)
(9.69683e-06 0 0)
(9.6968e-06 0 0)
(9.69678e-06 0 0)
(9.69675e-06 0 0)
(9.69672e-06 0 0)
(9.69669e-06 0 0)
(9.69666e-06 0 0)
(9.69662e-06 0 0)
(9.69658e-06 0 0)
(9.69653e-06 0 0)
(9.69649e-06 0 0)
(9.69644e-06 0 0)
(9.69638e-06 0 0)
(9.69633e-06 0 0)
(9.69627e-06 0 0)
(9.69621e-06 0 0)
(9.69614e-06 0 0)
(9.69608e-06 0 0)
(9.696e-06 0 0)
(9.69593e-06 0 0)
(9.69585e-06 0 0)
(9.69577e-06 0 0)
(9.69569e-06 0 0)
(9.6956e-06 0 0)
(9.69551e-06 0 0)
(9.69541e-06 0 0)
(9.69531e-06 0 0)
(9.6952e-06 0 0)
(9.69509e-06 0 0)
(9.69497e-06 0 0)
(9.69485e-06 0 0)
(9.69472e-06 0 0)
(9.69459e-06 0 0)
(9.69444e-06 0 0)
(9.69429e-06 0 0)
(9.69413e-06 0 0)
(9.69396e-06 0 0)
(9.69378e-06 0 0)
(9.69359e-06 0 0)
(9.69339e-06 0 0)
(9.69318e-06 0 0)
(9.69296e-06 0 0)
(9.69272e-06 0 0)
(9.69247e-06 0 0)
(9.6922e-06 0 0)
(9.69192e-06 0 0)
(9.69163e-06 0 0)
(9.69131e-06 0 0)
(9.69099e-06 0 0)
(9.69064e-06 0 0)
(9.69028e-06 0 0)
(9.6899e-06 0 0)
(9.68951e-06 0 0)
(9.68909e-06 0 0)
(9.68866e-06 0 0)
(9.68822e-06 0 0)
(9.68776e-06 0 0)
(9.68728e-06 0 0)
(9.68679e-06 0 0)
(9.68629e-06 0 0)
(9.68577e-06 0 0)
(9.68525e-06 0 0)
(9.68471e-06 0 0)
(9.68417e-06 0 0)
(9.68362e-06 0 0)
(9.68307e-06 0 0)
(9.68252e-06 0 0)
(9.68197e-06 0 0)
(9.68142e-06 0 0)
(9.68088e-06 0 0)
(9.68034e-06 0 0)
(9.67982e-06 0 0)
(9.67931e-06 0 0)
(9.67882e-06 0 0)
(9.67835e-06 0 0)
(9.67791e-06 0 0)
(9.67748e-06 0 0)
(9.67709e-06 0 0)
(9.67673e-06 0 0)
(9.6764e-06 0 0)
(9.67611e-06 0 0)
(9.67585e-06 0 0)
(9.67564e-06 0 0)
(9.67547e-06 0 0)
(9.67534e-06 0 0)
(9.67526e-06 0 0)
(9.67522e-06 0 0)
(9.6752e-06 0 0)
(9.67521e-06 0 0)
(9.67524e-06 0 0)
(9.67535e-06 0 0)
(9.67554e-06 0 0)
(9.67577e-06 0 0)
(9.67603e-06 0 0)
(9.67634e-06 0 0)
(9.67668e-06 0 0)
(9.67706e-06 0 0)
(9.67747e-06 0 0)
(9.6779e-06 0 0)
(9.67836e-06 0 0)
(9.67884e-06 0 0)
(9.67934e-06 0 0)
(9.67985e-06 0 0)
(9.68036e-06 0 0)
(9.68089e-06 0 0)
(9.68141e-06 0 0)
(9.68194e-06 0 0)
(9.68246e-06 0 0)
(9.68298e-06 0 0)
(9.68348e-06 0 0)
(9.68398e-06 0 0)
(9.68446e-06 0 0)
(9.68493e-06 0 0)
(9.68538e-06 0 0)
(9.68581e-06 0 0)
(9.68622e-06 0 0)
(9.68662e-06 0 0)
(9.687e-06 0 0)
(9.68735e-06 0 0)
(9.68769e-06 0 0)
(9.68801e-06 0 0)
(9.68831e-06 0 0)
(9.6886e-06 0 0)
(9.68886e-06 0 0)
(9.68912e-06 0 0)
(9.68935e-06 0 0)
(9.68958e-06 0 0)
(9.68979e-06 0 0)
(9.68999e-06 0 0)
(9.69018e-06 0 0)
(9.69036e-06 0 0)
(9.69053e-06 0 0)
(9.69069e-06 0 0)
(9.69085e-06 0 0)
(9.691e-06 0 0)
(9.69115e-06 0 0)
(9.6913e-06 0 0)
(9.69144e-06 0 0)
(9.69158e-06 0 0)
(9.69172e-06 0 0)
(9.69186e-06 0 0)
(9.692e-06 0 0)
(9.69213e-06 0 0)
(9.69227e-06 0 0)
(9.69241e-06 0 0)
(9.69255e-06 0 0)
(9.69269e-06 0 0)
(9.69283e-06 0 0)
(9.69297e-06 0 0)
(9.69311e-06 0 0)
(9.69325e-06 0 0)
(9.69339e-06 0 0)
(9.69353e-06 0 0)
(9.69367e-06 0 0)
(9.69381e-06 0 0)
(9.69395e-06 0 0)
(9.69409e-06 0 0)
(9.69423e-06 0 0)
(9.69437e-06 0 0)
(9.69451e-06 0 0)
(9.69464e-06 0 0)
(9.69477e-06 0 0)
(9.6949e-06 0 0)
(9.69503e-06 0 0)
(9.69516e-06 0 0)
(9.69528e-06 0 0)
(9.6954e-06 0 0)
(9.69552e-06 0 0)
(9.69563e-06 0 0)
(9.69574e-06 0 0)
(9.69585e-06 0 0)
(9.69595e-06 0 0)
(9.69605e-06 0 0)
(9.69615e-06 0 0)
(9.69624e-06 0 0)
(9.69632e-06 0 0)
(9.69641e-06 0 0)
(9.69649e-06 0 0)
(9.69656e-06 0 0)
(9.69663e-06 0 0)
(9.6967e-06 0 0)
(9.69676e-06 0 0)
(9.69682e-06 0 0)
(9.69687e-06 0 0)
(9.69692e-06 0 0)
(9.69697e-06 0 0)
(9.69701e-06 0 0)
(9.69705e-06 0 0)
(9.69708e-06 0 0)
(9.69711e-06 0 0)
(9.69714e-06 0 0)
(9.69716e-06 0 0)
(9.69718e-06 0 0)
(9.69719e-06 0 0)
(9.6972e-06 0 0)
(9.69721e-06 0 0)
(9.69721e-06 0 0)
)
;

boundaryField
{
    inlet
    {
        type            fixedValue;
        value           uniform (0 0 0);
    }
    outlet
    {
        type            zeroGradient;
    }
    emptyWalls
    {
        type            empty;
    }
}


// ************************************************************************* //
