/*--------------------------------*- C++ -*----------------------------------*\
  =========                 |
  \\      /  F ield         | OpenFOAM: The Open Source CFD Toolbox
   \\    /   O peration     | Website:  https://openfoam.org
    \\  /    A nd           | Version:  9
     \\/     M anipulation  |
\*---------------------------------------------------------------------------*/
FoamFile
{
    format      ascii;
    class       volVectorField;
    location    "6950";
    object      Ub;
}
// * * * * * * * * * * * * * * * * * * * * * * * * * * * * * * * * * * * * * //

dimensions      [0 0 0 0 0 0 0];

internalField   nonuniform List<vector> 
1000
(
(1.13619e-05 0 0)
(1.13626e-05 0 0)
(1.1363e-05 0 0)
(1.13641e-05 0 0)
(1.13651e-05 0 0)
(1.1366e-05 0 0)
(1.13681e-05 0 0)
(1.13741e-05 0 0)
(1.14002e-05 0 0)
(1.15524e-05 0 0)
(1.17213e-05 0 0)
(1.17695e-05 0 0)
(1.17845e-05 0 0)
(1.17923e-05 0 0)
(1.17973e-05 0 0)
(1.18009e-05 0 0)
(1.18035e-05 0 0)
(1.18053e-05 0 0)
(1.18066e-05 0 0)
(1.18074e-05 0 0)
(1.18078e-05 0 0)
(1.18077e-05 0 0)
(1.1807e-05 0 0)
(1.18053e-05 0 0)
(1.18021e-05 0 0)
(1.17967e-05 0 0)
(1.17886e-05 0 0)
(1.17784e-05 0 0)
(1.17669e-05 0 0)
(1.17546e-05 0 0)
(1.17418e-05 0 0)
(1.17286e-05 0 0)
(1.1715e-05 0 0)
(1.17013e-05 0 0)
(1.16873e-05 0 0)
(1.16732e-05 0 0)
(1.16589e-05 0 0)
(1.16445e-05 0 0)
(1.163e-05 0 0)
(1.16153e-05 0 0)
(1.16006e-05 0 0)
(1.15858e-05 0 0)
(1.15708e-05 0 0)
(1.15558e-05 0 0)
(1.15407e-05 0 0)
(1.15255e-05 0 0)
(1.15102e-05 0 0)
(1.14948e-05 0 0)
(1.14794e-05 0 0)
(1.14639e-05 0 0)
(1.14484e-05 0 0)
(1.14328e-05 0 0)
(1.14171e-05 0 0)
(1.14014e-05 0 0)
(1.13855e-05 0 0)
(1.13694e-05 0 0)
(1.13533e-05 0 0)
(1.1337e-05 0 0)
(1.13206e-05 0 0)
(1.13042e-05 0 0)
(1.12877e-05 0 0)
(1.12712e-05 0 0)
(1.12546e-05 0 0)
(1.12378e-05 0 0)
(1.12208e-05 0 0)
(1.12035e-05 0 0)
(1.11859e-05 0 0)
(1.1168e-05 0 0)
(1.11497e-05 0 0)
(1.1131e-05 0 0)
(1.11121e-05 0 0)
(1.1093e-05 0 0)
(1.10738e-05 0 0)
(1.10545e-05 0 0)
(1.10351e-05 0 0)
(1.10159e-05 0 0)
(1.09969e-05 0 0)
(1.09781e-05 0 0)
(1.09597e-05 0 0)
(1.09417e-05 0 0)
(1.09243e-05 0 0)
(1.09075e-05 0 0)
(1.08913e-05 0 0)
(1.08757e-05 0 0)
(1.08607e-05 0 0)
(1.08463e-05 0 0)
(1.08322e-05 0 0)
(1.08183e-05 0 0)
(1.08046e-05 0 0)
(1.07909e-05 0 0)
(1.0777e-05 0 0)
(1.07629e-05 0 0)
(1.07483e-05 0 0)
(1.07334e-05 0 0)
(1.0718e-05 0 0)
(1.07021e-05 0 0)
(1.06857e-05 0 0)
(1.0669e-05 0 0)
(1.06518e-05 0 0)
(1.06343e-05 0 0)
(1.06165e-05 0 0)
(1.05985e-05 0 0)
(1.05803e-05 0 0)
(1.0562e-05 0 0)
(1.05437e-05 0 0)
(1.05253e-05 0 0)
(1.05069e-05 0 0)
(1.04885e-05 0 0)
(1.04701e-05 0 0)
(1.04518e-05 0 0)
(1.04335e-05 0 0)
(1.04153e-05 0 0)
(1.03971e-05 0 0)
(1.03789e-05 0 0)
(1.03607e-05 0 0)
(1.03426e-05 0 0)
(1.03244e-05 0 0)
(1.03062e-05 0 0)
(1.0288e-05 0 0)
(1.02698e-05 0 0)
(1.02515e-05 0 0)
(1.02332e-05 0 0)
(1.02148e-05 0 0)
(1.01964e-05 0 0)
(1.0178e-05 0 0)
(1.01595e-05 0 0)
(1.01409e-05 0 0)
(1.01223e-05 0 0)
(1.01036e-05 0 0)
(1.00849e-05 0 0)
(1.00661e-05 0 0)
(1.00472e-05 0 0)
(1.00283e-05 0 0)
(1.00094e-05 0 0)
(9.99032e-06 0 0)
(9.97123e-06 0 0)
(9.95207e-06 0 0)
(9.93286e-06 0 0)
(9.91359e-06 0 0)
(9.89425e-06 0 0)
(9.87486e-06 0 0)
(9.8554e-06 0 0)
(9.83589e-06 0 0)
(9.81631e-06 0 0)
(9.79667e-06 0 0)
(9.77698e-06 0 0)
(9.75721e-06 0 0)
(9.73739e-06 0 0)
(9.7175e-06 0 0)
(9.69754e-06 0 0)
(9.67752e-06 0 0)
(9.65743e-06 0 0)
(9.63728e-06 0 0)
(9.61705e-06 0 0)
(9.59675e-06 0 0)
(9.57637e-06 0 0)
(9.55592e-06 0 0)
(9.53539e-06 0 0)
(9.51478e-06 0 0)
(9.49409e-06 0 0)
(9.47332e-06 0 0)
(9.45246e-06 0 0)
(9.43152e-06 0 0)
(9.4105e-06 0 0)
(9.38938e-06 0 0)
(9.36818e-06 0 0)
(9.34689e-06 0 0)
(9.32551e-06 0 0)
(9.30403e-06 0 0)
(9.28247e-06 0 0)
(9.26082e-06 0 0)
(9.23907e-06 0 0)
(9.21724e-06 0 0)
(9.19531e-06 0 0)
(9.17329e-06 0 0)
(9.15119e-06 0 0)
(9.12899e-06 0 0)
(9.1067e-06 0 0)
(9.08432e-06 0 0)
(9.06185e-06 0 0)
(9.0393e-06 0 0)
(9.01665e-06 0 0)
(8.99391e-06 0 0)
(8.97108e-06 0 0)
(8.94816e-06 0 0)
(8.92514e-06 0 0)
(8.90203e-06 0 0)
(8.87883e-06 0 0)
(8.85553e-06 0 0)
(8.83213e-06 0 0)
(8.80863e-06 0 0)
(8.78504e-06 0 0)
(8.76134e-06 0 0)
(8.73754e-06 0 0)
(8.71364e-06 0 0)
(8.68963e-06 0 0)
(8.66552e-06 0 0)
(8.64129e-06 0 0)
(8.61695e-06 0 0)
(8.5925e-06 0 0)
(8.56793e-06 0 0)
(8.54324e-06 0 0)
(8.51843e-06 0 0)
(8.49349e-06 0 0)
(8.46841e-06 0 0)
(8.44321e-06 0 0)
(8.41788e-06 0 0)
(8.3924e-06 0 0)
(8.36679e-06 0 0)
(8.34103e-06 0 0)
(8.31512e-06 0 0)
(8.28907e-06 0 0)
(8.26286e-06 0 0)
(8.23648e-06 0 0)
(8.20995e-06 0 0)
(8.18324e-06 0 0)
(8.15635e-06 0 0)
(8.12927e-06 0 0)
(8.10201e-06 0 0)
(8.07454e-06 0 0)
(8.04686e-06 0 0)
(8.01897e-06 0 0)
(7.99086e-06 0 0)
(7.96252e-06 0 0)
(7.93394e-06 0 0)
(7.90513e-06 0 0)
(7.87607e-06 0 0)
(7.84677e-06 0 0)
(7.81722e-06 0 0)
(7.78742e-06 0 0)
(7.75738e-06 0 0)
(7.72709e-06 0 0)
(7.69657e-06 0 0)
(7.66583e-06 0 0)
(7.63486e-06 0 0)
(7.60369e-06 0 0)
(7.5723e-06 0 0)
(7.54073e-06 0 0)
(7.50896e-06 0 0)
(7.47702e-06 0 0)
(7.44492e-06 0 0)
(7.41267e-06 0 0)
(7.38027e-06 0 0)
(7.34773e-06 0 0)
(7.31506e-06 0 0)
(7.28227e-06 0 0)
(7.24935e-06 0 0)
(7.2163e-06 0 0)
(7.18312e-06 0 0)
(7.14983e-06 0 0)
(7.11641e-06 0 0)
(7.08289e-06 0 0)
(7.04925e-06 0 0)
(7.01551e-06 0 0)
(6.98171e-06 0 0)
(6.94788e-06 0 0)
(6.91408e-06 0 0)
(6.88039e-06 0 0)
(6.84693e-06 0 0)
(6.81381e-06 0 0)
(6.78122e-06 0 0)
(6.74932e-06 0 0)
(6.71835e-06 0 0)
(6.68852e-06 0 0)
(6.66006e-06 0 0)
(6.63315e-06 0 0)
(6.60787e-06 0 0)
(6.58417e-06 0 0)
(6.56175e-06 0 0)
(6.53988e-06 0 0)
(6.51708e-06 0 0)
(6.49066e-06 0 0)
(6.45585e-06 0 0)
(6.40439e-06 0 0)
(6.32263e-06 0 0)
(6.18933e-06 0 0)
(5.97516e-06 0 0)
(5.64843e-06 0 0)
(5.19291e-06 0 0)
(4.63402e-06 0 0)
(4.04854e-06 0 0)
(3.53194e-06 0 0)
(3.14483e-06 0 0)
(2.89157e-06 0 0)
(2.74143e-06 0 0)
(2.65788e-06 0 0)
(2.61309e-06 0 0)
(2.58957e-06 0 0)
(2.57736e-06 0 0)
(2.57106e-06 0 0)
(2.56783e-06 0 0)
(2.56617e-06 0 0)
(2.56533e-06 0 0)
(2.5649e-06 0 0)
(2.5647e-06 0 0)
(2.56461e-06 0 0)
(2.56458e-06 0 0)
(2.56458e-06 0 0)
(2.5646e-06 0 0)
(2.56464e-06 0 0)
(2.56467e-06 0 0)
(2.56472e-06 0 0)
(2.56476e-06 0 0)
(2.56481e-06 0 0)
(2.56486e-06 0 0)
(2.56491e-06 0 0)
(2.56497e-06 0 0)
(2.56502e-06 0 0)
(2.56508e-06 0 0)
(2.56513e-06 0 0)
(2.56519e-06 0 0)
(2.56525e-06 0 0)
(2.5653e-06 0 0)
(2.56536e-06 0 0)
(2.56541e-06 0 0)
(2.56547e-06 0 0)
(2.56552e-06 0 0)
(2.56557e-06 0 0)
(2.56562e-06 0 0)
(2.56567e-06 0 0)
(2.56572e-06 0 0)
(2.56577e-06 0 0)
(2.56582e-06 0 0)
(2.56586e-06 0 0)
(2.56591e-06 0 0)
(2.56595e-06 0 0)
(2.56599e-06 0 0)
(2.56603e-06 0 0)
(2.56607e-06 0 0)
(2.56611e-06 0 0)
(2.56614e-06 0 0)
(2.56618e-06 0 0)
(2.56621e-06 0 0)
(2.56624e-06 0 0)
(2.56627e-06 0 0)
(2.5663e-06 0 0)
(2.56633e-06 0 0)
(2.56635e-06 0 0)
(2.56638e-06 0 0)
(2.5664e-06 0 0)
(2.56643e-06 0 0)
(2.56645e-06 0 0)
(2.56647e-06 0 0)
(2.56649e-06 0 0)
(2.56651e-06 0 0)
(2.56653e-06 0 0)
(2.56655e-06 0 0)
(2.56656e-06 0 0)
(2.56658e-06 0 0)
(2.56659e-06 0 0)
(2.5666e-06 0 0)
(2.56661e-06 0 0)
(2.56662e-06 0 0)
(2.56663e-06 0 0)
(2.56664e-06 0 0)
(2.56665e-06 0 0)
(2.56665e-06 0 0)
(2.56665e-06 0 0)
(2.56665e-06 0 0)
(2.56665e-06 0 0)
(2.56665e-06 0 0)
(2.56664e-06 0 0)
(2.56663e-06 0 0)
(2.56663e-06 0 0)
(2.56662e-06 0 0)
(2.56661e-06 0 0)
(2.56659e-06 0 0)
(2.56658e-06 0 0)
(2.56656e-06 0 0)
(2.56654e-06 0 0)
(2.56652e-06 0 0)
(2.56649e-06 0 0)
(2.56647e-06 0 0)
(2.56644e-06 0 0)
(2.56641e-06 0 0)
(2.56638e-06 0 0)
(2.56634e-06 0 0)
(2.56631e-06 0 0)
(2.56627e-06 0 0)
(2.56623e-06 0 0)
(2.5662e-06 0 0)
(2.56616e-06 0 0)
(2.56612e-06 0 0)
(2.56607e-06 0 0)
(2.56603e-06 0 0)
(2.56599e-06 0 0)
(2.56595e-06 0 0)
(2.5659e-06 0 0)
(2.56586e-06 0 0)
(2.56581e-06 0 0)
(2.56577e-06 0 0)
(2.56572e-06 0 0)
(2.56568e-06 0 0)
(2.56563e-06 0 0)
(2.56559e-06 0 0)
(2.56554e-06 0 0)
(2.5655e-06 0 0)
(2.56545e-06 0 0)
(2.56541e-06 0 0)
(2.56536e-06 0 0)
(2.56532e-06 0 0)
(2.56527e-06 0 0)
(2.56523e-06 0 0)
(2.56518e-06 0 0)
(2.56513e-06 0 0)
(2.56509e-06 0 0)
(2.56504e-06 0 0)
(2.56499e-06 0 0)
(2.56494e-06 0 0)
(2.56488e-06 0 0)
(2.56483e-06 0 0)
(2.56477e-06 0 0)
(2.56471e-06 0 0)
(2.56465e-06 0 0)
(2.56458e-06 0 0)
(2.56451e-06 0 0)
(2.56444e-06 0 0)
(2.56436e-06 0 0)
(2.56428e-06 0 0)
(2.56418e-06 0 0)
(2.56409e-06 0 0)
(2.56398e-06 0 0)
(2.56387e-06 0 0)
(2.56375e-06 0 0)
(2.56363e-06 0 0)
(2.56349e-06 0 0)
(2.56335e-06 0 0)
(2.56319e-06 0 0)
(2.56303e-06 0 0)
(2.56286e-06 0 0)
(2.56268e-06 0 0)
(2.56249e-06 0 0)
(2.5623e-06 0 0)
(2.56209e-06 0 0)
(2.56188e-06 0 0)
(2.56167e-06 0 0)
(2.56145e-06 0 0)
(2.56123e-06 0 0)
(2.56101e-06 0 0)
(2.56079e-06 0 0)
(2.56058e-06 0 0)
(2.56036e-06 0 0)
(2.56016e-06 0 0)
(2.55996e-06 0 0)
(2.55978e-06 0 0)
(2.55961e-06 0 0)
(2.55945e-06 0 0)
(2.55932e-06 0 0)
(2.5592e-06 0 0)
(2.55911e-06 0 0)
(2.55904e-06 0 0)
(2.55899e-06 0 0)
(2.55897e-06 0 0)
(2.55897e-06 0 0)
(2.55897e-06 0 0)
(2.55899e-06 0 0)
(2.55906e-06 0 0)
(2.55918e-06 0 0)
(2.55932e-06 0 0)
(2.55948e-06 0 0)
(2.55967e-06 0 0)
(2.55988e-06 0 0)
(2.56011e-06 0 0)
(2.56035e-06 0 0)
(2.5606e-06 0 0)
(2.56086e-06 0 0)
(2.56112e-06 0 0)
(2.56139e-06 0 0)
(2.56166e-06 0 0)
(2.56192e-06 0 0)
(2.56218e-06 0 0)
(2.56242e-06 0 0)
(2.56266e-06 0 0)
(2.56288e-06 0 0)
(2.56309e-06 0 0)
(2.56328e-06 0 0)
(2.56346e-06 0 0)
(2.56361e-06 0 0)
(2.56375e-06 0 0)
(2.56388e-06 0 0)
(2.56398e-06 0 0)
(2.56407e-06 0 0)
(2.56415e-06 0 0)
(2.56421e-06 0 0)
(2.56426e-06 0 0)
(2.56429e-06 0 0)
(2.56432e-06 0 0)
(2.56434e-06 0 0)
(2.56435e-06 0 0)
(2.56435e-06 0 0)
(2.56435e-06 0 0)
(2.56435e-06 0 0)
(2.56434e-06 0 0)
(2.56432e-06 0 0)
(2.56431e-06 0 0)
(2.56429e-06 0 0)
(2.56427e-06 0 0)
(2.56426e-06 0 0)
(2.56424e-06 0 0)
(2.56423e-06 0 0)
(2.56423e-06 0 0)
(2.56422e-06 0 0)
(2.56422e-06 0 0)
(2.56422e-06 0 0)
(2.56422e-06 0 0)
(2.56422e-06 0 0)
(2.56424e-06 0 0)
(2.56425e-06 0 0)
(2.56427e-06 0 0)
(2.5643e-06 0 0)
(2.56432e-06 0 0)
(2.56435e-06 0 0)
(2.56438e-06 0 0)
(2.56442e-06 0 0)
(2.56446e-06 0 0)
(2.5645e-06 0 0)
(2.56454e-06 0 0)
(2.56459e-06 0 0)
(2.56463e-06 0 0)
(2.56468e-06 0 0)
(2.56473e-06 0 0)
(2.56478e-06 0 0)
(2.56484e-06 0 0)
(2.56489e-06 0 0)
(2.56494e-06 0 0)
(2.565e-06 0 0)
(2.56505e-06 0 0)
(2.56511e-06 0 0)
(2.56517e-06 0 0)
(2.56523e-06 0 0)
(2.56529e-06 0 0)
(2.56534e-06 0 0)
(2.5654e-06 0 0)
(2.56546e-06 0 0)
(2.56552e-06 0 0)
(2.56557e-06 0 0)
(2.56563e-06 0 0)
(2.56568e-06 0 0)
(2.56573e-06 0 0)
(2.56578e-06 0 0)
(2.56583e-06 0 0)
(2.56588e-06 0 0)
(2.56593e-06 0 0)
(2.56597e-06 0 0)
(2.56601e-06 0 0)
(2.56605e-06 0 0)
(2.56609e-06 0 0)
(2.56612e-06 0 0)
(2.56616e-06 0 0)
(2.56619e-06 0 0)
(2.56622e-06 0 0)
(2.56624e-06 0 0)
(2.56627e-06 0 0)
(2.5663e-06 0 0)
(2.56632e-06 0 0)
(2.56634e-06 0 0)
(2.56636e-06 0 0)
(2.56638e-06 0 0)
(2.5664e-06 0 0)
(2.56642e-06 0 0)
(2.56644e-06 0 0)
(2.56646e-06 0 0)
(2.56647e-06 0 0)
(2.56649e-06 0 0)
(2.5665e-06 0 0)
(2.56651e-06 0 0)
(2.56652e-06 0 0)
(2.56654e-06 0 0)
(2.56655e-06 0 0)
(2.56656e-06 0 0)
(2.56656e-06 0 0)
(2.56657e-06 0 0)
(2.56658e-06 0 0)
(2.56659e-06 0 0)
(2.56659e-06 0 0)
(2.5666e-06 0 0)
(2.5666e-06 0 0)
(2.5666e-06 0 0)
(2.5666e-06 0 0)
(2.5666e-06 0 0)
(2.5666e-06 0 0)
(2.5666e-06 0 0)
(2.5666e-06 0 0)
(2.56659e-06 0 0)
(2.56659e-06 0 0)
(2.56658e-06 0 0)
(2.56657e-06 0 0)
(2.56656e-06 0 0)
(2.56654e-06 0 0)
(2.56653e-06 0 0)
(2.56651e-06 0 0)
(2.56649e-06 0 0)
(2.56647e-06 0 0)
(2.56645e-06 0 0)
(2.56642e-06 0 0)
(2.56639e-06 0 0)
(2.56637e-06 0 0)
(2.56634e-06 0 0)
(2.56631e-06 0 0)
(2.56627e-06 0 0)
(2.56624e-06 0 0)
(2.56621e-06 0 0)
(2.56617e-06 0 0)
(2.56613e-06 0 0)
(2.56609e-06 0 0)
(2.56605e-06 0 0)
(2.566e-06 0 0)
(2.56596e-06 0 0)
(2.56591e-06 0 0)
(2.56587e-06 0 0)
(2.56582e-06 0 0)
(2.56577e-06 0 0)
(2.56572e-06 0 0)
(2.56566e-06 0 0)
(2.56561e-06 0 0)
(2.56555e-06 0 0)
(2.56549e-06 0 0)
(2.56543e-06 0 0)
(2.56537e-06 0 0)
(2.5653e-06 0 0)
(2.56523e-06 0 0)
(2.56516e-06 0 0)
(2.56509e-06 0 0)
(2.56501e-06 0 0)
(2.56493e-06 0 0)
(2.56485e-06 0 0)
(2.56476e-06 0 0)
(2.56466e-06 0 0)
(2.56457e-06 0 0)
(2.56446e-06 0 0)
(2.56435e-06 0 0)
(2.56424e-06 0 0)
(2.56412e-06 0 0)
(2.564e-06 0 0)
(2.56386e-06 0 0)
(2.56373e-06 0 0)
(2.56358e-06 0 0)
(2.56343e-06 0 0)
(2.56327e-06 0 0)
(2.56311e-06 0 0)
(2.56294e-06 0 0)
(2.56277e-06 0 0)
(2.56259e-06 0 0)
(2.56241e-06 0 0)
(2.56222e-06 0 0)
(2.56203e-06 0 0)
(2.56183e-06 0 0)
(2.56164e-06 0 0)
(2.56145e-06 0 0)
(2.56125e-06 0 0)
(2.56106e-06 0 0)
(2.56087e-06 0 0)
(2.56069e-06 0 0)
(2.56051e-06 0 0)
(2.56034e-06 0 0)
(2.56018e-06 0 0)
(2.56003e-06 0 0)
(2.55989e-06 0 0)
(2.55976e-06 0 0)
(2.55965e-06 0 0)
(2.55955e-06 0 0)
(2.55947e-06 0 0)
(2.55941e-06 0 0)
(2.55936e-06 0 0)
(2.55934e-06 0 0)
(2.55933e-06 0 0)
(2.55933e-06 0 0)
(2.55934e-06 0 0)
(2.55937e-06 0 0)
(2.55944e-06 0 0)
(2.55954e-06 0 0)
(2.55965e-06 0 0)
(2.55978e-06 0 0)
(2.55993e-06 0 0)
(2.56009e-06 0 0)
(2.56026e-06 0 0)
(2.56044e-06 0 0)
(2.56064e-06 0 0)
(2.56084e-06 0 0)
(2.56104e-06 0 0)
(2.56125e-06 0 0)
(2.56145e-06 0 0)
(2.56166e-06 0 0)
(2.56186e-06 0 0)
(2.56205e-06 0 0)
(2.56224e-06 0 0)
(2.56242e-06 0 0)
(2.5626e-06 0 0)
(2.56276e-06 0 0)
(2.56291e-06 0 0)
(2.56305e-06 0 0)
(2.56318e-06 0 0)
(2.5633e-06 0 0)
(2.56341e-06 0 0)
(2.5635e-06 0 0)
(2.56359e-06 0 0)
(2.56366e-06 0 0)
(2.56373e-06 0 0)
(2.56379e-06 0 0)
(2.56383e-06 0 0)
(2.56387e-06 0 0)
(2.56391e-06 0 0)
(2.56393e-06 0 0)
(2.56396e-06 0 0)
(2.56397e-06 0 0)
(2.56399e-06 0 0)
(2.564e-06 0 0)
(2.564e-06 0 0)
(2.56401e-06 0 0)
(2.56402e-06 0 0)
(2.56402e-06 0 0)
(2.56403e-06 0 0)
(2.56403e-06 0 0)
(2.56403e-06 0 0)
(2.56404e-06 0 0)
(2.56405e-06 0 0)
(2.56406e-06 0 0)
(2.56407e-06 0 0)
(2.56408e-06 0 0)
(2.5641e-06 0 0)
(2.56412e-06 0 0)
(2.56414e-06 0 0)
(2.56416e-06 0 0)
(2.56419e-06 0 0)
(2.56422e-06 0 0)
(2.56425e-06 0 0)
(2.56428e-06 0 0)
(2.56432e-06 0 0)
(2.56436e-06 0 0)
(2.5644e-06 0 0)
(2.56444e-06 0 0)
(2.56448e-06 0 0)
(2.56453e-06 0 0)
(2.56458e-06 0 0)
(2.56463e-06 0 0)
(2.56468e-06 0 0)
(2.56473e-06 0 0)
(2.56478e-06 0 0)
(2.56483e-06 0 0)
(2.56488e-06 0 0)
(2.56494e-06 0 0)
(2.56499e-06 0 0)
(2.56505e-06 0 0)
(2.5651e-06 0 0)
(2.56516e-06 0 0)
(2.56521e-06 0 0)
(2.56527e-06 0 0)
(2.56532e-06 0 0)
(2.56538e-06 0 0)
(2.56543e-06 0 0)
(2.56548e-06 0 0)
(2.56553e-06 0 0)
(2.56559e-06 0 0)
(2.56563e-06 0 0)
(2.56568e-06 0 0)
(2.56573e-06 0 0)
(2.56578e-06 0 0)
(2.56582e-06 0 0)
(2.56586e-06 0 0)
(2.5659e-06 0 0)
(2.56595e-06 0 0)
(2.56598e-06 0 0)
(2.56602e-06 0 0)
(2.56606e-06 0 0)
(2.56609e-06 0 0)
(2.56612e-06 0 0)
(2.56615e-06 0 0)
(2.56618e-06 0 0)
(2.56621e-06 0 0)
(2.56623e-06 0 0)
(2.56626e-06 0 0)
(2.56628e-06 0 0)
(2.5663e-06 0 0)
(2.56632e-06 0 0)
(2.56634e-06 0 0)
(2.56635e-06 0 0)
(2.56637e-06 0 0)
(2.56638e-06 0 0)
(2.56639e-06 0 0)
(2.56641e-06 0 0)
(2.56642e-06 0 0)
(2.56643e-06 0 0)
(2.56643e-06 0 0)
(2.56644e-06 0 0)
(2.56645e-06 0 0)
(2.56645e-06 0 0)
(2.56645e-06 0 0)
(2.56646e-06 0 0)
(2.56646e-06 0 0)
(2.56646e-06 0 0)
(2.56646e-06 0 0)
(2.56646e-06 0 0)
(2.56646e-06 0 0)
(2.56646e-06 0 0)
(2.56646e-06 0 0)
(2.56645e-06 0 0)
(2.56645e-06 0 0)
(2.56644e-06 0 0)
(2.56643e-06 0 0)
(2.56642e-06 0 0)
(2.56641e-06 0 0)
(2.5664e-06 0 0)
(2.56639e-06 0 0)
(2.56638e-06 0 0)
(2.56636e-06 0 0)
(2.56635e-06 0 0)
(2.56633e-06 0 0)
(2.56631e-06 0 0)
(2.56629e-06 0 0)
(2.56627e-06 0 0)
(2.56624e-06 0 0)
(2.56621e-06 0 0)
(2.56619e-06 0 0)
(2.56616e-06 0 0)
(2.56612e-06 0 0)
(2.56609e-06 0 0)
(2.56605e-06 0 0)
(2.56601e-06 0 0)
(2.56597e-06 0 0)
(2.56593e-06 0 0)
(2.56588e-06 0 0)
(2.56583e-06 0 0)
(2.56578e-06 0 0)
(2.56573e-06 0 0)
(2.56567e-06 0 0)
(2.56561e-06 0 0)
(2.56555e-06 0 0)
(2.56548e-06 0 0)
(2.56542e-06 0 0)
(2.56534e-06 0 0)
(2.56527e-06 0 0)
(2.56519e-06 0 0)
(2.56511e-06 0 0)
(2.56503e-06 0 0)
(2.56494e-06 0 0)
(2.56485e-06 0 0)
(2.56475e-06 0 0)
(2.56465e-06 0 0)
(2.56455e-06 0 0)
(2.56444e-06 0 0)
(2.56432e-06 0 0)
(2.56421e-06 0 0)
(2.56408e-06 0 0)
(2.56396e-06 0 0)
(2.56383e-06 0 0)
(2.56369e-06 0 0)
(2.56355e-06 0 0)
(2.56341e-06 0 0)
(2.56326e-06 0 0)
(2.56311e-06 0 0)
(2.56295e-06 0 0)
(2.56279e-06 0 0)
(2.56262e-06 0 0)
(2.56245e-06 0 0)
(2.56228e-06 0 0)
(2.56211e-06 0 0)
(2.56194e-06 0 0)
(2.56176e-06 0 0)
(2.56158e-06 0 0)
(2.56141e-06 0 0)
(2.56123e-06 0 0)
(2.56106e-06 0 0)
(2.56089e-06 0 0)
(2.56073e-06 0 0)
(2.56057e-06 0 0)
(2.56041e-06 0 0)
(2.56027e-06 0 0)
(2.56013e-06 0 0)
(2.55999e-06 0 0)
(2.55987e-06 0 0)
(2.55976e-06 0 0)
(2.55966e-06 0 0)
(2.55958e-06 0 0)
(2.55951e-06 0 0)
(2.55945e-06 0 0)
(2.55941e-06 0 0)
(2.55939e-06 0 0)
(2.55938e-06 0 0)
(2.55937e-06 0 0)
(2.55938e-06 0 0)
(2.5594e-06 0 0)
(2.55945e-06 0 0)
(2.55952e-06 0 0)
(2.55961e-06 0 0)
(2.55972e-06 0 0)
(2.55984e-06 0 0)
(2.55997e-06 0 0)
(2.56012e-06 0 0)
(2.56028e-06 0 0)
(2.56044e-06 0 0)
(2.56062e-06 0 0)
(2.56081e-06 0 0)
(2.56099e-06 0 0)
(2.56119e-06 0 0)
(2.56138e-06 0 0)
(2.56157e-06 0 0)
(2.56176e-06 0 0)
(2.56195e-06 0 0)
(2.56214e-06 0 0)
(2.56233e-06 0 0)
(2.5625e-06 0 0)
(2.56267e-06 0 0)
(2.56283e-06 0 0)
(2.56299e-06 0 0)
(2.56313e-06 0 0)
(2.56327e-06 0 0)
(2.5634e-06 0 0)
(2.56352e-06 0 0)
(2.56363e-06 0 0)
(2.56373e-06 0 0)
(2.56382e-06 0 0)
(2.56391e-06 0 0)
(2.56399e-06 0 0)
(2.56406e-06 0 0)
(2.56412e-06 0 0)
(2.56418e-06 0 0)
(2.56423e-06 0 0)
(2.56428e-06 0 0)
(2.56432e-06 0 0)
(2.56436e-06 0 0)
(2.56439e-06 0 0)
(2.56442e-06 0 0)
(2.56445e-06 0 0)
(2.56448e-06 0 0)
(2.5645e-06 0 0)
(2.56453e-06 0 0)
(2.56455e-06 0 0)
(2.56457e-06 0 0)
(2.5646e-06 0 0)
(2.56462e-06 0 0)
(2.56464e-06 0 0)
(2.56467e-06 0 0)
(2.56469e-06 0 0)
(2.56472e-06 0 0)
(2.56474e-06 0 0)
(2.56477e-06 0 0)
(2.5648e-06 0 0)
(2.56482e-06 0 0)
(2.56485e-06 0 0)
(2.56488e-06 0 0)
(2.56492e-06 0 0)
(2.56495e-06 0 0)
(2.56498e-06 0 0)
(2.56502e-06 0 0)
(2.56505e-06 0 0)
(2.56509e-06 0 0)
(2.56512e-06 0 0)
(2.56516e-06 0 0)
(2.5652e-06 0 0)
(2.56523e-06 0 0)
(2.56527e-06 0 0)
(2.56531e-06 0 0)
(2.56535e-06 0 0)
(2.56539e-06 0 0)
(2.56543e-06 0 0)
(2.56547e-06 0 0)
(2.56551e-06 0 0)
(2.56555e-06 0 0)
(2.56558e-06 0 0)
(2.56562e-06 0 0)
(2.56566e-06 0 0)
(2.5657e-06 0 0)
(2.56574e-06 0 0)
(2.56578e-06 0 0)
(2.56581e-06 0 0)
(2.56585e-06 0 0)
(2.56589e-06 0 0)
(2.56593e-06 0 0)
(2.56596e-06 0 0)
(2.566e-06 0 0)
(2.56603e-06 0 0)
(2.56607e-06 0 0)
(2.5661e-06 0 0)
(2.56613e-06 0 0)
(2.56616e-06 0 0)
(2.56619e-06 0 0)
(2.56622e-06 0 0)
(2.56625e-06 0 0)
(2.56628e-06 0 0)
(2.56631e-06 0 0)
(2.56634e-06 0 0)
(2.56636e-06 0 0)
(2.56639e-06 0 0)
(2.56641e-06 0 0)
(2.56643e-06 0 0)
(2.56645e-06 0 0)
(2.56647e-06 0 0)
(2.56648e-06 0 0)
(2.5665e-06 0 0)
(2.56652e-06 0 0)
(2.56653e-06 0 0)
(2.56654e-06 0 0)
(2.56656e-06 0 0)
(2.56657e-06 0 0)
(2.56657e-06 0 0)
(2.56658e-06 0 0)
(2.56659e-06 0 0)
(2.56659e-06 0 0)
(2.56659e-06 0 0)
(2.5666e-06 0 0)
)
;

boundaryField
{
    inlet
    {
        type            fixedValue;
        value           uniform (1.13622e-05 0 0);
    }
    outlet
    {
        type            zeroGradient;
    }
    emptyWalls
    {
        type            empty;
    }
}


// ************************************************************************* //
