/*--------------------------------*- C++ -*----------------------------------*\
  =========                 |
  \\      /  F ield         | OpenFOAM: The Open Source CFD Toolbox
   \\    /   O peration     | Website:  https://openfoam.org
    \\  /    A nd           | Version:  9
     \\/     M anipulation  |
\*---------------------------------------------------------------------------*/
FoamFile
{
    format      ascii;
    class       volScalarField;
    location    "8100";
    object      Fb;
}
// * * * * * * * * * * * * * * * * * * * * * * * * * * * * * * * * * * * * * //

dimensions      [0 0 0 0 0 0 0];

internalField   nonuniform List<scalar> 
1000
(
0.804982
0.805287
0.805173
0.805354
0.805357
0.805486
0.805506
0.805597
0.805686
0.806143
0.809234
0.827101
0.833211
0.834533
0.835118
0.835472
0.835721
0.835865
0.835978
0.83597
0.835987
0.835944
0.835902
0.835823
0.835707
0.835503
0.83516
0.834747
0.834232
0.833652
0.83296
0.832144
0.831285
0.830414
0.829556
0.828737
0.827979
0.827294
0.826682
0.826134
0.825633
0.825153
0.82467
0.824161
0.823607
0.822995
0.822319
0.821578
0.820776
0.819921
0.819021
0.818088
0.817132
0.816161
0.815183
0.814205
0.813231
0.812264
0.811304
0.810353
0.809408
0.808469
0.807534
0.806602
0.80567
0.804739
0.803806
0.802872
0.801935
0.800997
0.800054
0.79911
0.798161
0.797211
0.796255
0.795301
0.794339
0.793378
0.792411
0.791445
0.790472
0.789501
0.788523
0.787545
0.786562
0.785578
0.78459
0.783599
0.782605
0.781607
0.780607
0.779602
0.778595
0.777584
0.77657
0.775552
0.77453
0.773505
0.772476
0.771443
0.770407
0.769367
0.768324
0.767277
0.766228
0.765176
0.764121
0.763063
0.762003
0.760941
0.759876
0.758809
0.75774
0.756668
0.755594
0.754518
0.753439
0.752358
0.751274
0.750187
0.749098
0.748007
0.746912
0.745815
0.744715
0.743612
0.742507
0.741398
0.740287
0.739174
0.738057
0.736938
0.735817
0.734693
0.733567
0.732438
0.731307
0.730173
0.729036
0.727896
0.726753
0.725606
0.724456
0.723302
0.722144
0.720982
0.719817
0.718647
0.717474
0.716296
0.715113
0.713924
0.712729
0.711527
0.710317
0.709097
0.707868
0.706628
0.705378
0.704116
0.702844
0.701561
0.700268
0.698967
0.697658
0.696342
0.695023
0.693701
0.692378
0.691058
0.689743
0.688435
0.687137
0.685851
0.684578
0.683322
0.682083
0.680862
0.679658
0.678472
0.677301
0.676145
0.675
0.673864
0.672733
0.671604
0.670474
0.669339
0.668196
0.667043
0.665877
0.664698
0.663503
0.662292
0.661065
0.659822
0.658564
0.657292
0.656006
0.654707
0.653398
0.652079
0.650751
0.649415
0.648073
0.646725
0.645373
0.644016
0.642656
0.641292
0.639926
0.638556
0.637184
0.635809
0.634431
0.63305
0.631666
0.630279
0.628888
0.627493
0.626094
0.62469
0.623282
0.62187
0.620452
0.61903
0.617602
0.616168
0.614729
0.613285
0.611834
0.610378
0.608915
0.607447
0.605972
0.604491
0.603003
0.601509
0.600008
0.5985
0.596986
0.595464
0.593936
0.5924
0.590857
0.589306
0.587748
0.586182
0.584609
0.583027
0.581437
0.579839
0.578232
0.576616
0.574992
0.573359
0.571716
0.570064
0.568403
0.566732
0.565052
0.563361
0.56166
0.559948
0.558226
0.556493
0.554749
0.552993
0.551226
0.549448
0.547658
0.545856
0.544041
0.542215
0.540375
0.538522
0.536656
0.534777
0.532884
0.530978
0.529057
0.527123
0.525173
0.523209
0.52123
0.519235
0.517226
0.515201
0.513162
0.511106
0.509036
0.50695
0.50485
0.502736
0.500609
0.498471
0.496322
0.494167
0.492006
0.489845
0.487687
0.48554
0.48341
0.481309
0.479241
0.477224
0.475264
0.473381
0.471584
0.469887
0.468304
0.466829
0.465484
0.464232
0.463081
0.461951
0.460777
0.459385
0.457494
0.454637
0.449969
0.442195
0.429291
0.408756
0.378486
0.338983
0.295394
0.25576
0.225875
0.206452
0.19504
0.188737
0.185363
0.183593
0.18267
0.182187
0.181932
0.181793
0.181715
0.181667
0.181636
0.18161
0.181589
0.18157
0.181551
0.181533
0.181515
0.181498
0.18148
0.181463
0.181447
0.181431
0.181417
0.181403
0.18139
0.181379
0.181369
0.181361
0.181356
0.181352
0.181351
0.181351
0.181351
0.181353
0.181359
0.181368
0.181378
0.181391
0.181405
0.18142
0.181436
0.181454
0.181472
0.181491
0.18151
0.181529
0.181548
0.181566
0.181585
0.181602
0.181619
0.181634
0.181649
0.181662
0.181675
0.181686
0.181695
0.181704
0.181712
0.181718
0.181723
0.181728
0.181731
0.181734
0.181736
0.181738
0.181739
0.181739
0.18174
0.18174
0.18174
0.181739
0.181739
0.181739
0.181739
0.181738
0.181738
0.181739
0.181739
0.18174
0.18174
0.181741
0.181742
0.181744
0.181745
0.181747
0.181749
0.181751
0.181753
0.181755
0.181758
0.18176
0.181763
0.181766
0.181769
0.181772
0.181775
0.181778
0.181781
0.181784
0.181787
0.18179
0.181793
0.181796
0.181799
0.181802
0.181805
0.181808
0.181811
0.181814
0.181817
0.18182
0.181823
0.181826
0.181829
0.181831
0.181834
0.181837
0.18184
0.181843
0.181845
0.181848
0.18185
0.181853
0.181855
0.181858
0.18186
0.181863
0.181865
0.181867
0.181869
0.181871
0.181873
0.181875
0.181876
0.181878
0.181879
0.18188
0.181882
0.181883
0.181884
0.181884
0.181885
0.181885
0.181886
0.181886
0.181886
0.181886
0.181886
0.181885
0.181885
0.181884
0.181883
0.181882
0.181881
0.18188
0.181879
0.181877
0.181876
0.181874
0.181872
0.181871
0.181869
0.181867
0.181865
0.181862
0.18186
0.181858
0.181856
0.181853
0.181851
0.181849
0.181846
0.181844
0.181841
0.181838
0.181836
0.181833
0.18183
0.181827
0.181825
0.181822
0.181819
0.181816
0.181813
0.18181
0.181807
0.181804
0.181801
0.181797
0.181794
0.18179
0.181786
0.181783
0.181779
0.181775
0.18177
0.181766
0.181761
0.181756
0.181751
0.181745
0.181739
0.181733
0.181726
0.18172
0.181712
0.181704
0.181696
0.181687
0.181678
0.181668
0.181658
0.181647
0.181636
0.181625
0.181613
0.1816
0.181587
0.181574
0.18156
0.181547
0.181533
0.181518
0.181504
0.18149
0.181477
0.181463
0.18145
0.181437
0.181425
0.181414
0.181403
0.181394
0.181385
0.181378
0.181372
0.181367
0.181364
0.181363
0.181362
0.181363
0.181363
0.181366
0.181372
0.181379
0.181388
0.181398
0.18141
0.181422
0.181436
0.18145
0.181465
0.18148
0.181495
0.181511
0.181527
0.181542
0.181557
0.181572
0.181586
0.1816
0.181613
0.181625
0.181636
0.181646
0.181656
0.181665
0.181672
0.181679
0.181686
0.181691
0.181696
0.1817
0.181704
0.181706
0.181709
0.181711
0.181713
0.181714
0.181715
0.181716
0.181717
0.181718
0.181718
0.181719
0.18172
0.181721
0.181721
0.181722
0.181724
0.181725
0.181726
0.181728
0.18173
0.181731
0.181733
0.181736
0.181738
0.181741
0.181743
0.181746
0.181749
0.181752
0.181755
0.181758
0.181761
0.181765
0.181768
0.181771
0.181775
0.181778
0.181781
0.181785
0.181788
0.181791
0.181795
0.181798
0.181801
0.181804
0.181807
0.18181
0.181813
0.181816
0.181819
0.181821
0.181824
0.181826
0.181829
0.181831
0.181833
0.181836
0.181838
0.18184
0.181842
0.181844
0.181846
0.181848
0.181849
0.181851
0.181852
0.181854
0.181855
0.181857
0.181858
0.181859
0.18186
0.181861
0.181862
0.181863
0.181864
0.181865
0.181865
0.181866
0.181866
0.181866
0.181867
0.181867
0.181867
0.181867
0.181867
0.181867
0.181866
0.181866
0.181865
0.181865
0.181864
0.181863
0.181862
0.181861
0.18186
0.181858
0.181857
0.181855
0.181854
0.181852
0.18185
0.181848
0.181846
0.181844
0.181842
0.18184
0.181838
0.181836
0.181833
0.181831
0.181828
0.181826
0.181823
0.181821
0.181818
0.181815
0.181812
0.18181
0.181807
0.181804
0.181801
0.181797
0.181794
0.181791
0.181788
0.181784
0.18178
0.181777
0.181773
0.181768
0.181764
0.18176
0.181755
0.18175
0.181745
0.181739
0.181734
0.181727
0.181721
0.181714
0.181707
0.1817
0.181692
0.181684
0.181676
0.181667
0.181658
0.181648
0.181638
0.181628
0.181618
0.181607
0.181596
0.181585
0.181573
0.181562
0.18155
0.181539
0.181528
0.181516
0.181505
0.181495
0.181484
0.181474
0.181465
0.181456
0.181448
0.181441
0.181434
0.181428
0.181424
0.18142
0.181417
0.181416
0.181415
0.181415
0.181416
0.181417
0.18142
0.181425
0.181431
0.181439
0.181447
0.181456
0.181466
0.181476
0.181487
0.181499
0.181511
0.181523
0.181535
0.181548
0.18156
0.181572
0.181584
0.181596
0.181607
0.181618
0.181628
0.181638
0.181647
0.181655
0.181663
0.18167
0.181677
0.181683
0.181688
0.181693
0.181697
0.181701
0.181705
0.181707
0.18171
0.181712
0.181714
0.181716
0.181717
0.181718
0.181719
0.18172
0.181721
0.181722
0.181723
0.181724
0.181725
0.181726
0.181727
0.181728
0.181729
0.181731
0.181733
0.181734
0.181736
0.181738
0.18174
0.181743
0.181745
0.181748
0.18175
0.181753
0.181756
0.181759
0.181762
0.181765
0.181769
0.181772
0.181775
0.181779
0.181782
0.181786
0.181789
0.181793
0.181796
0.181799
0.181803
0.181806
0.181809
0.181813
0.181816
0.181819
0.181822
0.181825
0.181828
0.181831
0.181834
0.181836
0.181839
0.181841
0.181844
0.181846
0.181849
0.181851
0.181853
0.181855
0.181857
0.181859
0.18186
0.181862
0.181864
0.181865
0.181867
0.181868
0.18187
0.181871
0.181872
0.181873
0.181874
0.181875
0.181876
0.181877
0.181878
0.181878
0.181879
0.181879
0.18188
0.18188
0.181881
0.181881
0.181881
0.181881
0.181881
0.181881
0.181881
0.18188
0.18188
0.181879
0.181879
0.181878
0.181877
0.181876
0.181875
0.181874
0.181873
0.181871
0.18187
0.181868
0.181866
0.181865
0.181863
0.181861
0.181858
0.181856
0.181854
0.181851
0.181849
0.181846
0.181843
0.18184
0.181837
0.181834
0.18183
0.181827
0.181823
0.18182
0.181816
0.181811
0.181807
0.181803
0.181798
0.181794
0.181789
0.181783
0.181778
0.181772
0.181767
0.18176
0.181754
0.181747
0.181741
0.181733
0.181726
0.181718
0.18171
0.181702
0.181693
0.181685
0.181675
0.181666
0.181657
0.181647
0.181637
0.181626
0.181616
0.181605
0.181595
0.181584
0.181573
0.181562
0.181552
0.181541
0.18153
0.18152
0.18151
0.1815
0.181491
0.181482
0.181474
0.181466
0.181458
0.181451
0.181445
0.18144
0.181435
0.181432
0.181429
0.181427
0.181426
0.181426
0.181426
0.181427
0.181428
0.181432
0.181433
0.18144
)
;

boundaryField
{
    inlet
    {
        type            calculated;
        value           uniform 0.805169;
    }
    outlet
    {
        type            calculated;
        value           uniform 0.181442;
    }
    emptyWalls
    {
        type            empty;
    }
}


// ************************************************************************* //
