/*--------------------------------*- C++ -*----------------------------------*\
  =========                 |
  \\      /  F ield         | OpenFOAM: The Open Source CFD Toolbox
   \\    /   O peration     | Website:  https://openfoam.org
    \\  /    A nd           | Version:  9
     \\/     M anipulation  |
\*---------------------------------------------------------------------------*/
FoamFile
{
    format      ascii;
    class       surfaceScalarField;
    location    "8100";
    object      phia;
}
// * * * * * * * * * * * * * * * * * * * * * * * * * * * * * * * * * * * * * //

dimensions      [0 2 0 0 0 0 0];

internalField   nonuniform List<scalar> 
999
(
2.74961e-10
2.74795e-10
2.7469e-10
2.74489e-10
2.74314e-10
2.74124e-10
2.73958e-10
2.73708e-10
2.72965e-10
2.70327e-10
2.56052e-10
2.20027e-10
2.13306e-10
2.1116e-10
2.1e-10
2.09196e-10
2.08598e-10
2.08132e-10
2.07801e-10
2.07557e-10
2.07351e-10
2.07194e-10
2.07064e-10
2.06965e-10
2.06929e-10
2.07035e-10
2.0728e-10
2.07559e-10
2.07835e-10
2.08117e-10
2.0841e-10
2.08685e-10
2.08902e-10
2.09054e-10
2.09122e-10
2.09084e-10
2.08924e-10
2.08639e-10
2.08237e-10
2.0774e-10
2.07181e-10
2.06596e-10
2.06022e-10
2.05489e-10
2.05022e-10
2.04634e-10
2.04332e-10
2.04114e-10
2.03972e-10
2.03895e-10
2.03867e-10
2.03876e-10
2.03906e-10
2.03946e-10
2.03986e-10
2.04018e-10
2.04037e-10
2.0404e-10
2.04027e-10
2.03999e-10
2.03956e-10
2.03902e-10
2.03837e-10
2.03766e-10
2.03689e-10
2.03609e-10
2.03527e-10
2.03443e-10
2.03358e-10
2.03274e-10
2.03189e-10
2.03105e-10
2.03021e-10
2.02938e-10
2.02856e-10
2.02773e-10
2.02691e-10
2.0261e-10
2.02528e-10
2.02447e-10
2.02366e-10
2.02285e-10
2.02206e-10
2.02126e-10
2.02047e-10
2.01969e-10
2.01893e-10
2.01817e-10
2.01742e-10
2.01669e-10
2.01597e-10
2.01527e-10
2.01458e-10
2.01391e-10
2.01326e-10
2.01263e-10
2.01203e-10
2.01144e-10
2.01087e-10
2.01033e-10
2.0098e-10
2.00929e-10
2.0088e-10
2.00832e-10
2.00785e-10
2.00738e-10
2.00693e-10
2.00648e-10
2.00603e-10
2.00558e-10
2.00514e-10
2.00469e-10
2.00425e-10
2.0038e-10
2.00336e-10
2.00292e-10
2.00248e-10
2.00205e-10
2.00162e-10
2.00119e-10
2.00077e-10
2.00036e-10
1.99995e-10
1.99955e-10
1.99916e-10
1.99877e-10
1.99839e-10
1.99802e-10
1.99765e-10
1.99729e-10
1.99693e-10
1.99658e-10
1.99622e-10
1.99587e-10
1.99551e-10
1.99515e-10
1.9948e-10
1.99445e-10
1.99412e-10
1.99379e-10
1.99348e-10
1.99319e-10
1.99292e-10
1.99266e-10
1.99243e-10
1.99221e-10
1.99202e-10
1.99185e-10
1.99171e-10
1.99161e-10
1.99154e-10
1.99154e-10
1.99161e-10
1.99176e-10
1.992e-10
1.99236e-10
1.99285e-10
1.99346e-10
1.99422e-10
1.99511e-10
1.99613e-10
1.99728e-10
1.99854e-10
1.9999e-10
2.00133e-10
2.00281e-10
2.00429e-10
2.00576e-10
2.00716e-10
2.00846e-10
2.00962e-10
2.01058e-10
2.01131e-10
2.01178e-10
2.01193e-10
2.01176e-10
2.01123e-10
2.01035e-10
2.00911e-10
2.00752e-10
2.00562e-10
2.00344e-10
2.00102e-10
1.99841e-10
1.99567e-10
1.99287e-10
1.99004e-10
1.98725e-10
1.98455e-10
1.98198e-10
1.97956e-10
1.97733e-10
1.9753e-10
1.97348e-10
1.97186e-10
1.97045e-10
1.96923e-10
1.96818e-10
1.96729e-10
1.96653e-10
1.96589e-10
1.96534e-10
1.96485e-10
1.96442e-10
1.96402e-10
1.96364e-10
1.96326e-10
1.96288e-10
1.96247e-10
1.96204e-10
1.96159e-10
1.9611e-10
1.96058e-10
1.96002e-10
1.95943e-10
1.9588e-10
1.95815e-10
1.95747e-10
1.95676e-10
1.95604e-10
1.95529e-10
1.95453e-10
1.95376e-10
1.95298e-10
1.95219e-10
1.95139e-10
1.95058e-10
1.94977e-10
1.94896e-10
1.94815e-10
1.94734e-10
1.94652e-10
1.94571e-10
1.9449e-10
1.94408e-10
1.94327e-10
1.94246e-10
1.94165e-10
1.94084e-10
1.94002e-10
1.93921e-10
1.93841e-10
1.9376e-10
1.93679e-10
1.93599e-10
1.93518e-10
1.93438e-10
1.93358e-10
1.93278e-10
1.93199e-10
1.9312e-10
1.93042e-10
1.92963e-10
1.92886e-10
1.92809e-10
1.92733e-10
1.92657e-10
1.92582e-10
1.92508e-10
1.92434e-10
1.92362e-10
1.9229e-10
1.92219e-10
1.92149e-10
1.9208e-10
1.92012e-10
1.91944e-10
1.91878e-10
1.91813e-10
1.91748e-10
1.91684e-10
1.91621e-10
1.91559e-10
1.91498e-10
1.91437e-10
1.91378e-10
1.91319e-10
1.9126e-10
1.91202e-10
1.91145e-10
1.91088e-10
1.91032e-10
1.90976e-10
1.90921e-10
1.90866e-10
1.90811e-10
1.90757e-10
1.90703e-10
1.90649e-10
1.90596e-10
1.90542e-10
1.9049e-10
1.90437e-10
1.90385e-10
1.90332e-10
1.90281e-10
1.90229e-10
1.90178e-10
1.90128e-10
1.90078e-10
1.90029e-10
1.89982e-10
1.89935e-10
1.8989e-10
1.89847e-10
1.89806e-10
1.89769e-10
1.89732e-10
1.89702e-10
1.89672e-10
1.89651e-10
1.89629e-10
1.89614e-10
1.89602e-10
1.89591e-10
1.89587e-10
1.89571e-10
1.89558e-10
1.89517e-10
1.89447e-10
1.89315e-10
1.89078e-10
1.88704e-10
1.88146e-10
1.87464e-10
1.86771e-10
1.86235e-10
1.85925e-10
1.85778e-10
1.85747e-10
1.85758e-10
1.85802e-10
1.85864e-10
1.8593e-10
1.86004e-10
1.86086e-10
1.86173e-10
1.86265e-10
1.86361e-10
1.86462e-10
1.86568e-10
1.86676e-10
1.86788e-10
1.86902e-10
1.87018e-10
1.87134e-10
1.87251e-10
1.87367e-10
1.8748e-10
1.87591e-10
1.87698e-10
1.87799e-10
1.87894e-10
1.87982e-10
1.88061e-10
1.88131e-10
1.88189e-10
1.88233e-10
1.88263e-10
1.88279e-10
1.88284e-10
1.88284e-10
1.88281e-10
1.8825e-10
1.88199e-10
1.88135e-10
1.88059e-10
1.87972e-10
1.87876e-10
1.87771e-10
1.87659e-10
1.87541e-10
1.87418e-10
1.87293e-10
1.87166e-10
1.87039e-10
1.86914e-10
1.86792e-10
1.86673e-10
1.8656e-10
1.86453e-10
1.86353e-10
1.8626e-10
1.86175e-10
1.86098e-10
1.86028e-10
1.85966e-10
1.85912e-10
1.85865e-10
1.85826e-10
1.85792e-10
1.85764e-10
1.85742e-10
1.85724e-10
1.8571e-10
1.857e-10
1.85692e-10
1.85687e-10
1.85683e-10
1.8568e-10
1.85678e-10
1.85677e-10
1.85676e-10
1.85674e-10
1.85672e-10
1.85669e-10
1.85664e-10
1.85659e-10
1.85652e-10
1.85644e-10
1.85634e-10
1.85623e-10
1.85611e-10
1.85597e-10
1.85582e-10
1.85566e-10
1.85548e-10
1.8553e-10
1.8551e-10
1.8549e-10
1.85469e-10
1.85448e-10
1.85426e-10
1.85403e-10
1.85381e-10
1.85358e-10
1.85334e-10
1.85311e-10
1.85287e-10
1.85264e-10
1.8524e-10
1.85217e-10
1.85193e-10
1.8517e-10
1.85147e-10
1.85124e-10
1.85102e-10
1.85079e-10
1.85057e-10
1.85035e-10
1.85013e-10
1.84992e-10
1.84971e-10
1.8495e-10
1.84929e-10
1.84909e-10
1.84889e-10
1.84869e-10
1.8485e-10
1.84831e-10
1.84812e-10
1.84794e-10
1.84776e-10
1.84758e-10
1.84741e-10
1.84725e-10
1.84709e-10
1.84694e-10
1.84679e-10
1.84665e-10
1.84651e-10
1.84638e-10
1.84626e-10
1.84615e-10
1.84605e-10
1.84595e-10
1.84586e-10
1.84579e-10
1.84572e-10
1.84566e-10
1.84561e-10
1.84557e-10
1.84555e-10
1.84553e-10
1.84552e-10
1.84552e-10
1.84552e-10
1.84553e-10
1.84556e-10
1.84561e-10
1.84566e-10
1.84572e-10
1.84579e-10
1.84587e-10
1.84596e-10
1.84605e-10
1.84616e-10
1.84627e-10
1.84638e-10
1.84651e-10
1.84663e-10
1.84677e-10
1.84691e-10
1.84705e-10
1.8472e-10
1.84736e-10
1.84751e-10
1.84767e-10
1.84784e-10
1.848e-10
1.84817e-10
1.84834e-10
1.84852e-10
1.84869e-10
1.84887e-10
1.84905e-10
1.84923e-10
1.84941e-10
1.8496e-10
1.84979e-10
1.84998e-10
1.85017e-10
1.85036e-10
1.85056e-10
1.85076e-10
1.85097e-10
1.85118e-10
1.85139e-10
1.85161e-10
1.85184e-10
1.85207e-10
1.85231e-10
1.85256e-10
1.85281e-10
1.85308e-10
1.85336e-10
1.85366e-10
1.85396e-10
1.85429e-10
1.85463e-10
1.85498e-10
1.85536e-10
1.85576e-10
1.85619e-10
1.85664e-10
1.85711e-10
1.85762e-10
1.85815e-10
1.85871e-10
1.85931e-10
1.85993e-10
1.86059e-10
1.86128e-10
1.86201e-10
1.86276e-10
1.86355e-10
1.86436e-10
1.8652e-10
1.86607e-10
1.86695e-10
1.86785e-10
1.86877e-10
1.86969e-10
1.87062e-10
1.87154e-10
1.87246e-10
1.87336e-10
1.87424e-10
1.87509e-10
1.8759e-10
1.87667e-10
1.87738e-10
1.87804e-10
1.87863e-10
1.87915e-10
1.87959e-10
1.87994e-10
1.8802e-10
1.88036e-10
1.88043e-10
1.88045e-10
1.88045e-10
1.88038e-10
1.88009e-10
1.87967e-10
1.87915e-10
1.87855e-10
1.87786e-10
1.87709e-10
1.87626e-10
1.87537e-10
1.87444e-10
1.87346e-10
1.87246e-10
1.87145e-10
1.87042e-10
1.86941e-10
1.8684e-10
1.86742e-10
1.86647e-10
1.86555e-10
1.86468e-10
1.86385e-10
1.86308e-10
1.86236e-10
1.86169e-10
1.86108e-10
1.86053e-10
1.86003e-10
1.85959e-10
1.85919e-10
1.85885e-10
1.85855e-10
1.85829e-10
1.85807e-10
1.85788e-10
1.85772e-10
1.85759e-10
1.85748e-10
1.85739e-10
1.85731e-10
1.85725e-10
1.85719e-10
1.85713e-10
1.85708e-10
1.85703e-10
1.85697e-10
1.85691e-10
1.85685e-10
1.85677e-10
1.85669e-10
1.8566e-10
1.85649e-10
1.85638e-10
1.85625e-10
1.85612e-10
1.85597e-10
1.85582e-10
1.85565e-10
1.85547e-10
1.85529e-10
1.8551e-10
1.8549e-10
1.85469e-10
1.85448e-10
1.85427e-10
1.85405e-10
1.85382e-10
1.8536e-10
1.85337e-10
1.85315e-10
1.85292e-10
1.85269e-10
1.85247e-10
1.85224e-10
1.85202e-10
1.8518e-10
1.85159e-10
1.85138e-10
1.85117e-10
1.85097e-10
1.85077e-10
1.85057e-10
1.85038e-10
1.8502e-10
1.85002e-10
1.84985e-10
1.84968e-10
1.84952e-10
1.84936e-10
1.84921e-10
1.84906e-10
1.84892e-10
1.84878e-10
1.84865e-10
1.84852e-10
1.8484e-10
1.84829e-10
1.84818e-10
1.84807e-10
1.84797e-10
1.84787e-10
1.84778e-10
1.8477e-10
1.84761e-10
1.84754e-10
1.84747e-10
1.8474e-10
1.84734e-10
1.84729e-10
1.84724e-10
1.8472e-10
1.84716e-10
1.84713e-10
1.8471e-10
1.84708e-10
1.84707e-10
1.84707e-10
1.84706e-10
1.84706e-10
1.84707e-10
1.84709e-10
1.84711e-10
1.84715e-10
1.84719e-10
1.84724e-10
1.8473e-10
1.84736e-10
1.84743e-10
1.84751e-10
1.8476e-10
1.84769e-10
1.84779e-10
1.84789e-10
1.848e-10
1.84812e-10
1.84824e-10
1.84837e-10
1.8485e-10
1.84864e-10
1.84878e-10
1.84893e-10
1.84908e-10
1.84923e-10
1.84939e-10
1.84955e-10
1.84972e-10
1.84989e-10
1.85006e-10
1.85024e-10
1.85042e-10
1.85061e-10
1.85079e-10
1.85099e-10
1.85118e-10
1.85138e-10
1.85159e-10
1.8518e-10
1.85202e-10
1.85224e-10
1.85247e-10
1.85271e-10
1.85296e-10
1.85321e-10
1.85348e-10
1.85376e-10
1.85405e-10
1.85436e-10
1.85468e-10
1.85502e-10
1.85537e-10
1.85574e-10
1.85613e-10
1.85655e-10
1.85698e-10
1.85743e-10
1.85791e-10
1.85841e-10
1.85894e-10
1.85949e-10
1.86006e-10
1.86066e-10
1.86128e-10
1.86192e-10
1.86259e-10
1.86327e-10
1.86397e-10
1.86469e-10
1.86543e-10
1.86617e-10
1.86692e-10
1.86768e-10
1.86844e-10
1.8692e-10
1.86995e-10
1.87069e-10
1.87141e-10
1.87211e-10
1.87278e-10
1.87343e-10
1.87404e-10
1.8746e-10
1.87512e-10
1.87559e-10
1.87601e-10
1.87636e-10
1.87665e-10
1.87687e-10
1.87701e-10
1.87709e-10
1.87711e-10
1.87711e-10
1.87708e-10
1.87693e-10
1.87664e-10
1.87627e-10
1.87583e-10
1.87533e-10
1.87477e-10
1.87415e-10
1.87348e-10
1.87277e-10
1.87202e-10
1.87125e-10
1.87045e-10
1.86963e-10
1.86881e-10
1.86799e-10
1.86717e-10
1.86637e-10
1.86559e-10
1.86483e-10
1.86409e-10
1.86339e-10
1.86273e-10
1.8621e-10
1.86152e-10
1.86097e-10
1.86047e-10
1.86e-10
1.85958e-10
1.8592e-10
1.85886e-10
1.85855e-10
1.85828e-10
1.85804e-10
1.85783e-10
1.85765e-10
1.85749e-10
1.85736e-10
1.85724e-10
1.85714e-10
1.85705e-10
1.85697e-10
1.8569e-10
1.85684e-10
1.85678e-10
1.85672e-10
1.85666e-10
1.85659e-10
1.85653e-10
1.85645e-10
1.85638e-10
1.85629e-10
1.8562e-10
1.85609e-10
1.85598e-10
1.85586e-10
1.85573e-10
1.85559e-10
1.85544e-10
1.85528e-10
1.85511e-10
1.85494e-10
1.85475e-10
1.85456e-10
1.85436e-10
1.85416e-10
1.85395e-10
1.85373e-10
1.85351e-10
1.85329e-10
1.85307e-10
1.85284e-10
1.85261e-10
1.85238e-10
1.85216e-10
1.85193e-10
1.8517e-10
1.85148e-10
1.85125e-10
1.85103e-10
1.85082e-10
1.8506e-10
1.85039e-10
1.85019e-10
1.84999e-10
1.84979e-10
1.8496e-10
1.84941e-10
1.84923e-10
1.84905e-10
1.84888e-10
1.84872e-10
1.84856e-10
1.84841e-10
1.84826e-10
1.84812e-10
1.84798e-10
1.84785e-10
1.84772e-10
1.8476e-10
1.84748e-10
1.84737e-10
1.84726e-10
1.84716e-10
1.84707e-10
1.84698e-10
1.84689e-10
1.84681e-10
1.84673e-10
1.84666e-10
1.84659e-10
1.84653e-10
1.84647e-10
1.84642e-10
1.84637e-10
1.84633e-10
1.84629e-10
1.84626e-10
1.84623e-10
1.84621e-10
1.84619e-10
1.84618e-10
1.84618e-10
1.84618e-10
1.84618e-10
1.84618e-10
1.8462e-10
1.84622e-10
1.84626e-10
1.8463e-10
1.84634e-10
1.8464e-10
1.84646e-10
1.84653e-10
1.8466e-10
1.84668e-10
1.84677e-10
1.84687e-10
1.84697e-10
1.84708e-10
1.8472e-10
1.84733e-10
1.84746e-10
1.8476e-10
1.84775e-10
1.84791e-10
1.84807e-10
1.84824e-10
1.84842e-10
1.8486e-10
1.8488e-10
1.849e-10
1.84921e-10
1.84943e-10
1.84966e-10
1.84989e-10
1.85014e-10
1.85039e-10
1.85066e-10
1.85093e-10
1.85122e-10
1.85152e-10
1.85183e-10
1.85215e-10
1.85249e-10
1.85284e-10
1.85321e-10
1.85359e-10
1.85398e-10
1.8544e-10
1.85483e-10
1.85528e-10
1.85574e-10
1.85623e-10
1.85673e-10
1.85725e-10
1.85779e-10
1.85835e-10
1.85893e-10
1.85952e-10
1.86014e-10
1.86077e-10
1.86142e-10
1.86208e-10
1.86275e-10
1.86344e-10
1.86414e-10
1.86484e-10
1.86555e-10
1.86627e-10
1.86699e-10
1.8677e-10
1.86841e-10
1.86911e-10
1.8698e-10
1.87048e-10
1.87114e-10
1.87178e-10
1.87239e-10
1.87297e-10
1.87352e-10
1.87403e-10
1.8745e-10
1.87493e-10
1.87532e-10
1.87565e-10
1.87593e-10
1.87616e-10
1.87632e-10
1.87642e-10
1.87646e-10
1.87646e-10
1.87646e-10
1.87638e-10
1.87627e-10
1.87605e-10
1.87579e-10
)
;

boundaryField
{
    inlet
    {
        type            calculated;
        value           uniform -2.74882e-10;
    }
    outlet
    {
        type            calculated;
        value           uniform 1.87541e-10;
    }
    emptyWalls
    {
        type            empty;
        value           nonuniform List<scalar> 0();
    }
}


// ************************************************************************* //
