/*--------------------------------*- C++ -*----------------------------------*\
  =========                 |
  \\      /  F ield         | OpenFOAM: The Open Source CFD Toolbox
   \\    /   O peration     | Website:  https://openfoam.org
    \\  /    A nd           | Version:  9
     \\/     M anipulation  |
\*---------------------------------------------------------------------------*/
FoamFile
{
    format      ascii;
    class       volScalarField;
    location    "6350";
    object      krc;
}
// * * * * * * * * * * * * * * * * * * * * * * * * * * * * * * * * * * * * * //

dimensions      [0 0 0 0 0 0 0];

internalField   nonuniform List<scalar> 
1000
(
1.56627e-06
1.76314e-05
5.15734e-05
9.61282e-05
0.000146786
0.000209496
0.000361218
0.00105048
0.00895367
0.0360538
0.0447585
0.048088
0.0500196
0.0514002
0.0524846
0.0533733
0.0541336
0.0548127
0.0554667
0.0561438
0.0569497
0.0579061
0.0590847
0.0605747
0.0623922
0.064461
0.0666815
0.0689873
0.0713399
0.0737159
0.0761014
0.0784873
0.0808678
0.0832391
0.0855986
0.0879445
0.0902761
0.0925923
0.0948926
0.0971767
0.0994445
0.101696
0.103931
0.106149
0.108352
0.110538
0.112708
0.114863
0.117002
0.119126
0.121234
0.123328
0.125408
0.127473
0.129523
0.13156
0.133584
0.135594
0.137591
0.139575
0.141546
0.143505
0.145452
0.147386
0.149309
0.151221
0.153121
0.155011
0.156889
0.158757
0.160614
0.162461
0.164298
0.166126
0.167943
0.169751
0.17155
0.17334
0.17512
0.176893
0.178656
0.180411
0.182158
0.183896
0.185627
0.18735
0.189065
0.190772
0.192472
0.194165
0.19585
0.197529
0.1992
0.200865
0.202524
0.204176
0.205821
0.207461
0.209094
0.210723
0.212345
0.213962
0.215575
0.217182
0.218784
0.220382
0.221975
0.223563
0.225148
0.226728
0.228303
0.229875
0.231442
0.233005
0.234563
0.236118
0.237668
0.239215
0.240757
0.242295
0.24383
0.245361
0.246888
0.248412
0.249933
0.25145
0.252965
0.254476
0.255985
0.25749
0.258994
0.260495
0.261993
0.263489
0.264983
0.266475
0.267965
0.269454
0.27094
0.272425
0.273908
0.275389
0.276869
0.278348
0.279825
0.281301
0.282776
0.28425
0.285723
0.287195
0.288667
0.290138
0.291608
0.293078
0.294547
0.296016
0.297485
0.298953
0.300422
0.301891
0.303359
0.304829
0.306298
0.307768
0.309238
0.31071
0.312181
0.313654
0.315128
0.316603
0.318079
0.319557
0.321036
0.322516
0.323998
0.325482
0.326968
0.328456
0.329947
0.331439
0.332934
0.334432
0.335932
0.337435
0.338941
0.34045
0.341963
0.343479
0.344998
0.346522
0.348049
0.34958
0.351116
0.352656
0.354201
0.35575
0.357305
0.358865
0.360431
0.362002
0.363579
0.365162
0.366751
0.368347
0.369949
0.371559
0.373175
0.374799
0.376431
0.378072
0.37972
0.381377
0.383043
0.384719
0.386404
0.388098
0.389803
0.391518
0.393244
0.394981
0.39673
0.39849
0.400262
0.402046
0.403841
0.405649
0.407469
0.409301
0.411143
0.412995
0.414855
0.416721
0.418589
0.420457
0.422318
0.424167
0.425995
0.427792
0.429546
0.431247
0.432881
0.434437
0.435907
0.43729
0.438596
0.439855
0.441138
0.442568
0.444378
0.446965
0.451
0.457537
0.468074
0.484308
0.507252
0.535772
0.565825
0.592227
0.611762
0.624352
0.631727
0.63579
0.637955
0.639084
0.639666
0.639962
0.64011
0.640182
0.640215
0.640228
0.64023
0.640228
0.640224
0.640218
0.640212
0.640206
0.6402
0.640195
0.640191
0.640188
0.640186
0.640185
0.640185
0.640185
0.640186
0.640189
0.640194
0.640199
0.640206
0.640213
0.640221
0.64023
0.640239
0.640249
0.640258
0.640269
0.640279
0.640288
0.640298
0.640307
0.640316
0.640324
0.640331
0.640338
0.640344
0.640349
0.640353
0.640357
0.64036
0.640362
0.640364
0.640365
0.640366
0.640366
0.640366
0.640366
0.640366
0.640365
0.640364
0.640362
0.640361
0.64036
0.640359
0.640358
0.640357
0.640356
0.640355
0.640355
0.640354
0.640354
0.640354
0.640354
0.640354
0.640355
0.640355
0.640356
0.640357
0.640358
0.640359
0.640361
0.640362
0.640364
0.640365
0.640367
0.640369
0.640371
0.640373
0.640375
0.640377
0.640379
0.640381
0.640384
0.640386
0.640388
0.64039
0.640392
0.640395
0.640397
0.640399
0.640401
0.640403
0.640405
0.640407
0.640409
0.640411
0.640413
0.640415
0.640417
0.640418
0.64042
0.640422
0.640423
0.640424
0.640426
0.640427
0.640428
0.64043
0.640431
0.640432
0.640433
0.640434
0.640435
0.640436
0.640436
0.640437
0.640438
0.640439
0.640439
0.64044
0.64044
0.640441
0.640442
0.640442
0.640443
0.640443
0.640444
0.640444
0.640444
0.640445
0.640445
0.640445
0.640445
0.640446
0.640446
0.640446
0.640446
0.640446
0.640446
0.640446
0.640446
0.640446
0.640446
0.640446
0.640446
0.640445
0.640445
0.640445
0.640444
0.640444
0.640443
0.640442
0.640442
0.640441
0.64044
0.640439
0.640438
0.640437
0.640436
0.640435
0.640434
0.640433
0.640432
0.640431
0.640429
0.640428
0.640427
0.640426
0.640424
0.640423
0.640421
0.64042
0.640418
0.640417
0.640415
0.640414
0.640412
0.64041
0.640409
0.640407
0.640405
0.640403
0.640401
0.640399
0.640397
0.640395
0.640393
0.64039
0.640388
0.640385
0.640382
0.640379
0.640376
0.640373
0.640369
0.640365
0.640361
0.640357
0.640352
0.640348
0.640343
0.640337
0.640332
0.640326
0.64032
0.640314
0.640308
0.640302
0.640295
0.640289
0.640282
0.640276
0.640269
0.640263
0.640257
0.640251
0.640246
0.640241
0.640236
0.640232
0.640229
0.640226
0.640224
0.640222
0.640222
0.640222
0.640222
0.640222
0.640223
0.640226
0.64023
0.640234
0.640239
0.640245
0.640251
0.640258
0.640264
0.640271
0.640279
0.640286
0.640293
0.6403
0.640307
0.640313
0.640319
0.640325
0.640331
0.640336
0.640341
0.640345
0.640349
0.640352
0.640355
0.640357
0.64036
0.640361
0.640363
0.640364
0.640365
0.640366
0.640366
0.640366
0.640367
0.640367
0.640367
0.640367
0.640366
0.640366
0.640366
0.640366
0.640366
0.640365
0.640365
0.640365
0.640365
0.640366
0.640366
0.640366
0.640366
0.640367
0.640368
0.640368
0.640369
0.64037
0.640371
0.640372
0.640373
0.640374
0.640375
0.640376
0.640378
0.640379
0.640381
0.640382
0.640383
0.640385
0.640387
0.640388
0.64039
0.640391
0.640393
0.640394
0.640396
0.640398
0.640399
0.640401
0.640403
0.640404
0.640406
0.640408
0.640409
0.640411
0.640412
0.640414
0.640415
0.640417
0.640418
0.64042
0.640421
0.640422
0.640423
0.640424
0.640426
0.640427
0.640428
0.640429
0.64043
0.640431
0.640431
0.640432
0.640433
0.640434
0.640434
0.640435
0.640435
0.640436
0.640436
0.640437
0.640437
0.640437
0.640438
0.640438
0.640438
0.640438
0.640438
0.640438
0.640438
0.640439
0.640439
0.640439
0.640439
0.640439
0.640439
0.640439
0.640439
0.640439
0.640438
0.640438
0.640438
0.640438
0.640438
0.640437
0.640437
0.640437
0.640436
0.640436
0.640435
0.640435
0.640434
0.640434
0.640433
0.640433
0.640432
0.640431
0.64043
0.640429
0.640428
0.640427
0.640426
0.640425
0.640423
0.640422
0.640421
0.640419
0.640418
0.640416
0.640414
0.640412
0.640411
0.640409
0.640407
0.640404
0.640402
0.6404
0.640397
0.640395
0.640392
0.64039
0.640387
0.640384
0.64038
0.640377
0.640374
0.64037
0.640367
0.640363
0.640359
0.640354
0.64035
0.640346
0.640341
0.640336
0.640331
0.640326
0.640321
0.640316
0.64031
0.640304
0.640299
0.640293
0.640288
0.640282
0.640276
0.640271
0.640266
0.64026
0.640255
0.640251
0.640246
0.640242
0.640238
0.640235
0.640232
0.640229
0.640227
0.640226
0.640225
0.640225
0.640225
0.640225
0.640225
0.640227
0.64023
0.640233
0.640236
0.640241
0.640245
0.640251
0.640256
0.640262
0.640268
0.640274
0.640281
0.640287
0.640294
0.6403
0.640307
0.640313
0.640319
0.640325
0.64033
0.640336
0.640341
0.640345
0.640349
0.640353
0.640357
0.64036
0.640363
0.640366
0.640368
0.64037
0.640372
0.640373
0.640375
0.640376
0.640377
0.640378
0.640379
0.64038
0.64038
0.640381
0.640381
0.640382
0.640382
0.640382
0.640383
0.640383
0.640384
0.640384
0.640385
0.640385
0.640386
0.640387
0.640388
0.640388
0.640389
0.64039
0.640391
0.640392
0.640392
0.640393
0.640394
0.640395
0.640396
0.640397
0.640398
0.6404
0.640401
0.640402
0.640403
0.640404
0.640405
0.640406
0.640407
0.640408
0.64041
0.640411
0.640412
0.640413
0.640414
0.640415
0.640416
0.640417
0.640418
0.640419
0.640421
0.640422
0.640423
0.640424
0.640425
0.640426
0.640427
0.640428
0.640429
0.64043
0.640431
0.640431
0.640432
0.640433
0.640434
0.640435
0.640435
0.640436
0.640437
0.640437
0.640438
0.640439
0.640439
0.64044
0.64044
0.64044
0.640441
0.640441
0.640441
0.640442
0.640442
0.640442
0.640442
0.640442
0.640442
0.640442
0.640442
0.640442
0.640442
0.640442
0.640442
0.640441
0.640441
0.640441
0.640441
0.640441
0.64044
0.64044
0.640439
0.640439
0.640439
0.640438
0.640438
0.640437
0.640437
0.640437
0.640436
0.640435
0.640435
0.640434
0.640434
0.640433
0.640432
0.640432
0.640431
0.64043
0.640429
0.640428
0.640427
0.640426
0.640425
0.640423
0.640422
0.640421
0.640419
0.640417
0.640416
0.640414
0.640412
0.64041
0.640408
0.640405
0.640403
0.6404
0.640397
0.640395
0.640392
0.640388
0.640385
0.640382
0.640378
0.640374
0.64037
0.640366
0.640362
0.640358
0.640353
0.640349
0.640344
0.640339
0.640334
0.640329
0.640324
0.640319
0.640313
0.640308
0.640303
0.640298
0.640293
0.640288
0.640283
0.640278
0.640273
0.640269
0.640264
0.64026
0.640257
0.640253
0.64025
0.640248
0.640246
0.640244
0.640243
0.640242
0.640242
0.640241
0.640241
0.640242
0.640243
0.640246
0.640248
0.640251
0.640255
0.640259
0.640264
0.640268
0.640273
0.640279
0.640284
0.64029
0.640296
0.640302
0.640308
0.640313
0.640319
0.640325
0.64033
0.640336
0.640341
0.640346
0.64035
0.640355
0.640359
0.640363
0.640366
0.640369
0.640372
0.640375
0.640377
0.64038
0.640381
0.640383
0.640385
0.640386
0.640387
0.640388
0.640389
0.640389
0.64039
0.640391
0.640391
0.640391
0.640392
0.640392
0.640392
0.640392
0.640392
0.640393
0.640393
0.640393
0.640393
0.640394
0.640394
0.640394
0.640394
0.640395
0.640395
0.640395
0.640395
0.640396
0.640396
0.640396
0.640397
0.640397
0.640397
0.640398
0.640398
0.640399
0.640399
0.640399
0.6404
0.6404
0.6404
0.640401
0.640401
)
;

boundaryField
{
    inlet
    {
        type            calculated;
        value           uniform 3.08149e-33;
    }
    outlet
    {
        type            calculated;
        value           uniform 0.640401;
    }
    emptyWalls
    {
        type            empty;
    }
}


// ************************************************************************* //
