/*--------------------------------*- C++ -*----------------------------------*\
  =========                 |
  \\      /  F ield         | OpenFOAM: The Open Source CFD Toolbox
   \\    /   O peration     | Website:  https://openfoam.org
    \\  /    A nd           | Version:  9
     \\/     M anipulation  |
\*---------------------------------------------------------------------------*/
FoamFile
{
    format      ascii;
    class       volScalarField;
    location    "18900";
    object      krb;
}
// * * * * * * * * * * * * * * * * * * * * * * * * * * * * * * * * * * * * * //

dimensions      [0 0 0 0 0 0 0];

internalField   nonuniform List<scalar> 
1000
(
0.0978771
0.0983295
0.0989549
0.0995417
0.100188
0.100755
0.101444
0.102003
0.102725
0.103306
0.10402
0.10464
0.105312
0.105938
0.10656
0.107139
0.10769
0.108186
0.108639
0.109033
0.109385
0.109699
0.11003
0.110658
0.112574
0.12037
0.173131
0.403759
0.476768
0.496059
0.504448
0.509446
0.51297
0.515705
0.517928
0.519799
0.521395
0.52278
0.523982
0.525036
0.525956
0.526766
0.52747
0.528088
0.528623
0.529091
0.52949
0.529835
0.530123
0.530365
0.530558
0.53071
0.53082
0.530891
0.530924
0.530918
0.530874
0.53079
0.530666
0.530502
0.530297
0.530049
0.529757
0.529419
0.52903
0.528586
0.528076
0.527491
0.52681
0.526008
0.525051
0.523903
0.522528
0.520917
0.519099
0.517139
0.515096
0.513
0.510873
0.508729
0.506579
0.504429
0.502285
0.50015
0.498027
0.495919
0.493827
0.491751
0.489693
0.487653
0.48563
0.483625
0.481637
0.479664
0.477705
0.47576
0.473828
0.471909
0.470005
0.468116
0.466243
0.464386
0.462547
0.460725
0.458922
0.457136
0.45537
0.453623
0.451897
0.450192
0.448508
0.446845
0.445203
0.443581
0.441977
0.440391
0.438821
0.437265
0.435722
0.43419
0.432669
0.431158
0.429656
0.428162
0.426678
0.425202
0.423735
0.422277
0.420829
0.419391
0.417962
0.416545
0.415137
0.413741
0.412355
0.41098
0.409616
0.408262
0.40692
0.405587
0.404265
0.402953
0.40165
0.400358
0.399074
0.397801
0.396536
0.39528
0.394034
0.392796
0.391566
0.390345
0.389132
0.387928
0.386731
0.385543
0.384362
0.383189
0.382024
0.380867
0.379717
0.378574
0.377439
0.37631
0.375189
0.374075
0.372968
0.371868
0.370775
0.369688
0.368608
0.367535
0.366468
0.365408
0.364353
0.363306
0.362264
0.361228
0.360199
0.359175
0.358158
0.357146
0.35614
0.35514
0.354145
0.353157
0.352173
0.351195
0.350223
0.349256
0.348294
0.347337
0.346386
0.34544
0.344499
0.343563
0.342633
0.341707
0.340786
0.33987
0.338959
0.338053
0.337152
0.336255
0.335363
0.334475
0.333592
0.332714
0.33184
0.330971
0.330106
0.329245
0.328389
0.327537
0.32669
0.325846
0.325006
0.32417
0.323337
0.322507
0.321681
0.320858
0.320037
0.31922
0.318406
0.317594
0.316786
0.31598
0.315177
0.314378
0.313582
0.31279
0.312001
0.311217
0.310436
0.30966
0.308889
0.308122
0.30736
0.306603
0.305852
0.305106
0.304365
0.30363
0.302899
0.302174
0.301453
0.300736
0.300024
0.299315
0.29861
0.297909
0.29721
0.296514
0.29582
0.295128
0.294439
0.293751
0.293066
0.292382
0.291701
0.291021
0.290343
0.289667
0.288994
0.288322
0.287653
0.286986
0.286321
0.285659
0.285
0.284343
0.283689
0.283037
0.282388
0.281741
0.281097
0.280455
0.279817
0.27918
0.278547
0.277915
0.277287
0.27666
0.276036
0.275415
0.274796
0.274179
0.273564
0.272952
0.272342
0.271734
0.271128
0.270525
0.269924
0.269324
0.268727
0.268132
0.267539
0.266949
0.26636
0.265773
0.265188
0.264605
0.264025
0.263446
0.262869
0.262294
0.261721
0.26115
0.26058
0.260013
0.259447
0.258884
0.258322
0.257762
0.257204
0.256647
0.256092
0.25554
0.254988
0.254439
0.253891
0.253345
0.252801
0.252259
0.251718
0.251179
0.250641
0.250105
0.249571
0.249039
0.248508
0.247978
0.24745
0.246924
0.2464
0.245877
0.245355
0.244836
0.244317
0.243801
0.243285
0.242772
0.24226
0.241749
0.24124
0.240732
0.240226
0.239721
0.239218
0.238716
0.238216
0.237717
0.23722
0.236724
0.236229
0.235736
0.235244
0.234753
0.234263
0.233775
0.233288
0.232802
0.232317
0.231834
0.231351
0.230869
0.230388
0.229908
0.229429
0.228951
0.228474
0.227998
0.227523
0.227049
0.226576
0.226104
0.225633
0.225164
0.224695
0.224228
0.223762
0.223298
0.222836
0.222375
0.221915
0.221457
0.221002
0.220548
0.220095
0.219645
0.219197
0.21875
0.218305
0.217862
0.217421
0.216982
0.216544
0.216108
0.215673
0.21524
0.214808
0.214377
0.213947
0.213518
0.21309
0.212663
0.212237
0.211811
0.211386
0.210962
0.210539
0.210116
0.209694
0.209272
0.208851
0.208431
0.208012
0.207593
0.207175
0.206757
0.206341
0.205925
0.20551
0.205096
0.204682
0.20427
0.203858
0.203447
0.203038
0.202629
0.202221
0.201813
0.201407
0.201002
0.200597
0.200193
0.199791
0.199389
0.198988
0.198588
0.198188
0.19779
0.197392
0.196995
0.196599
0.196204
0.19581
0.195416
0.195023
0.194631
0.194239
0.193849
0.193459
0.19307
0.192682
0.192294
0.191907
0.191521
0.191135
0.19075
0.190366
0.189983
0.1896
0.189218
0.188837
0.188456
0.188076
0.187697
0.187318
0.18694
0.186563
0.186186
0.18581
0.185434
0.18506
0.184685
0.184312
0.183939
0.183567
0.183195
0.182824
0.182453
0.182084
0.181714
0.181346
0.180977
0.18061
0.180243
0.179877
0.179511
0.179146
0.178781
0.178417
0.178053
0.17769
0.177328
0.176966
0.176605
0.176244
0.175884
0.175524
0.175165
0.174806
0.174448
0.174091
0.173733
0.173377
0.173021
0.172665
0.17231
0.171956
0.171602
0.171248
0.170895
0.170542
0.17019
0.169839
0.169487
0.169136
0.168786
0.168436
0.168086
0.167737
0.167388
0.167039
0.166691
0.166343
0.165996
0.165648
0.165301
0.164955
0.164608
0.164262
0.163916
0.163571
0.163226
0.162881
0.162536
0.162192
0.161848
0.161504
0.161161
0.160818
0.160476
0.160134
0.159792
0.159451
0.159111
0.158771
0.158431
0.158092
0.157754
0.157416
0.157079
0.156743
0.156407
0.156072
0.155737
0.155403
0.15507
0.154737
0.154405
0.154074
0.153743
0.153412
0.153082
0.152753
0.152424
0.152095
0.151767
0.151439
0.151111
0.150784
0.150457
0.15013
0.149803
0.149477
0.14915
0.148824
0.148498
0.148172
0.147846
0.14752
0.147194
0.146869
0.146543
0.146218
0.145892
0.145567
0.145242
0.144917
0.144592
0.144267
0.143942
0.143617
0.143293
0.142968
0.142644
0.14232
0.141996
0.141672
0.141348
0.141024
0.140701
0.140377
0.140054
0.139731
0.139408
0.139085
0.138762
0.13844
0.138117
0.137795
0.137472
0.13715
0.136828
0.136506
0.136183
0.135861
0.135539
0.135218
0.134896
0.134574
0.134252
0.13393
0.133608
0.133287
0.132965
0.132643
0.132321
0.131999
0.131678
0.131356
0.131034
0.130712
0.13039
0.130068
0.129746
0.129424
0.129101
0.128779
0.128457
0.128134
0.127812
0.127489
0.127166
0.126843
0.12652
0.126197
0.125873
0.12555
0.125226
0.124903
0.124579
0.124254
0.12393
0.123606
0.123281
0.122956
0.122631
0.122306
0.12198
0.121654
0.121328
0.121002
0.120676
0.120349
0.120022
0.119695
0.119368
0.11904
0.118712
0.118384
0.118055
0.117726
0.117397
0.117068
0.116738
0.116408
0.116077
0.115747
0.115416
0.115085
0.114753
0.114421
0.114089
0.113757
0.113424
0.113091
0.112758
0.112425
0.112091
0.111757
0.111423
0.111089
0.110755
0.110421
0.110087
0.109753
0.10942
0.109086
0.108753
0.108421
0.108089
0.107758
0.107429
0.1071
0.106774
0.106449
0.106127
0.105807
0.105491
0.105179
0.104871
0.104568
0.10427
0.10398
0.103696
0.103421
0.103154
0.102897
0.10265
0.102415
0.102192
0.101981
0.101784
0.1016
0.10143
0.101274
0.101132
0.101003
0.100888
0.100785
0.100694
0.100615
0.100546
0.100487
0.100437
0.100394
0.100358
0.100327
0.100301
0.100278
0.100257
0.100234
0.100205
0.100163
0.100095
0.0999789
0.099775
0.0994137
0.0987741
0.0976516
0.0957182
0.0924957
0.0874116
0.0800551
0.0706659
0.0604822
0.0512887
0.0443312
0.0397722
0.0370729
0.035573
0.0347694
0.0343475
0.0341284
0.0340153
0.0339571
0.0339272
0.033912
0.0339042
0.0339002
0.0338983
0.0338973
0.0338969
0.0338968
0.0338967
0.0338967
0.0338968
0.0338969
0.0338969
0.033897
0.0338971
0.0338971
0.0338972
0.0338972
0.0338972
0.0338972
0.0338973
0.0338973
0.0338973
0.0338973
0.0338972
0.0338972
0.0338972
0.0338972
0.0338971
0.0338971
0.0338971
0.033897
0.033897
0.0338969
0.0338969
0.0338968
0.0338967
0.0338967
0.0338966
0.0338966
0.0338965
0.0338964
0.0338964
0.0338963
0.0338962
0.0338962
0.0338961
0.033896
0.033896
0.0338959
0.0338959
0.0338958
0.0338958
0.0338957
0.0338957
0.0338956
0.0338956
0.0338955
0.0338955
0.0338954
0.0338954
0.0338953
0.0338953
0.0338953
0.0338952
0.0338952
0.0338952
0.0338951
0.0338951
0.0338951
0.0338951
0.033895
0.033895
0.033895
0.033895
0.033895
0.033895
0.0338949
0.0338949
0.0338949
0.0338949
0.0338949
0.0338949
0.0338949
0.0338949
0.0338949
0.0338949
0.0338949
0.0338948
0.0338948
0.0338948
0.0338948
0.0338948
0.0338948
0.0338948
0.0338948
0.0338948
0.0338948
0.0338948
0.0338948
0.0338948
0.0338948
0.0338948
0.0338948
0.0338948
0.0338948
0.0338948
0.0338948
0.0338948
0.0338948
0.0338948
0.0338948
0.0338948
0.0338948
0.0338948
0.0338948
0.0338948
0.0338948
0.0338948
0.0338948
0.0338947
0.0338947
0.0338947
0.0338946
0.0338946
0.0338946
0.0338945
0.0338945
0.0338944
0.0338943
0.0338943
0.0338942
0.0338941
0.033894
0.0338939
0.0338938
0.0338937
0.0338936
0.0338935
0.0338933
0.0338932
0.033893
0.0338929
0.0338927
0.0338926
0.0338924
0.0338922
0.033892
0.0338918
0.0338916
0.0338914
0.0338912
0.0338909
0.0338907
0.0338905
0.0338903
0.0338901
0.0338898
0.0338896
0.0338894
0.0338892
0.033889
0.0338888
0.0338886
0.0338884
0.0338882
0.033888
0.0338878
0.0338877
0.0338875
0.0338874
0.0338873
0.0338872
0.0338871
0.033887
0.0338869
0.0338869
0.0338868
0.0338868
0.0338868
0.0338868
0.0338868
0.0338868
0.0338868
0.0338869
0.033887
0.0338871
0.0338872
0.0338873
0.0338874
0.0338875
0.0338877
0.0338879
0.0338881
0.0338883
0.0338885
0.0338887
0.033889
0.0338892
0.0338895
0.0338897
0.03389
0.0338902
0.0338905
0.0338907
0.033891
0.0338912
0.0338915
0.0338917
0.0338919
0.0338921
0.0338923
0.0338925
0.0338927
0.0338928
0.033893
0.0338931
0.0338932
0.0338933
0.0338935
0.0338935
0.0338936
0.0338937
0.0338938
0.0338938
0.0338939
0.0338939
0.033894
0.033894
)
;

boundaryField
{
    inlet
    {
        type            calculated;
        value           uniform 0.0976562;
    }
    outlet
    {
        type            calculated;
        value           uniform 0.033894;
    }
    emptyWalls
    {
        type            empty;
    }
}


// ************************************************************************* //
