/*--------------------------------*- C++ -*----------------------------------*\
  =========                 |
  \\      /  F ield         | OpenFOAM: The Open Source CFD Toolbox
   \\    /   O peration     | Website:  https://openfoam.org
    \\  /    A nd           | Version:  9
     \\/     M anipulation  |
\*---------------------------------------------------------------------------*/
FoamFile
{
    format      ascii;
    class       volScalarField;
    location    "18900";
    object      Sa;
}
// * * * * * * * * * * * * * * * * * * * * * * * * * * * * * * * * * * * * * //

dimensions      [0 0 0 0 0 0 0];

internalField   nonuniform List<scalar> 
1000
(
0.549429
0.548256
0.546675
0.545156
0.54357
0.542088
0.540454
0.538985
0.537312
0.535818
0.534167
0.532642
0.531072
0.529584
0.528137
0.526783
0.525514
0.524368
0.523333
0.522429
0.52163
0.520916
0.520164
0.518773
0.514476
0.497918
0.404229
0.147797
0.0835631
0.0665105
0.058894
0.0542541
0.050915
0.0482674
0.0460646
0.0441634
0.0424961
0.0410069
0.0396719
0.0384599
0.037361
0.0363535
0.0354347
0.034586
0.0338067
0.0330822
0.0324135
0.0317877
0.0312067
0.0306605
0.0301503
0.0296689
0.029217
0.0287897
0.0283863
0.0280039
0.0276344
0.0272842
0.0269541
0.0266436
0.0263521
0.0260789
0.0258235
0.0255849
0.0253625
0.0251555
0.0249635
0.0247854
0.0246212
0.0244711
0.0243368
0.0242215
0.0241293
0.0240618
0.0240146
0.0239731
0.0239299
0.0238855
0.0238404
0.0237951
0.0237498
0.0237048
0.0236601
0.0236156
0.0235712
0.0235268
0.0234824
0.023438
0.0233937
0.0233497
0.0233059
0.0232628
0.0232209
0.0231808
0.0231433
0.0231088
0.0230775
0.023049
0.0230228
0.0229983
0.0229749
0.022952
0.0229293
0.0229063
0.0228827
0.022858
0.0228318
0.0228034
0.0227723
0.022738
0.0227001
0.0226585
0.0226133
0.0225649
0.0225139
0.0224609
0.0224067
0.0223522
0.0222982
0.0222452
0.022194
0.0221448
0.022098
0.0220535
0.0220115
0.0219718
0.021934
0.0218981
0.0218637
0.0218305
0.0217982
0.0217665
0.0217353
0.0217043
0.0216733
0.0216424
0.0216114
0.0215802
0.021549
0.0215175
0.021486
0.0214544
0.0214227
0.021391
0.0213593
0.0213277
0.0212962
0.0212647
0.0212335
0.0212023
0.0211714
0.0211406
0.0211101
0.0210797
0.0210496
0.0210196
0.0209899
0.0209604
0.0209311
0.020902
0.0208731
0.0208445
0.020816
0.0207878
0.0207598
0.020732
0.0207044
0.020677
0.0206498
0.0206228
0.0205961
0.0205695
0.0205431
0.020517
0.020491
0.0204652
0.0204396
0.0204143
0.0203891
0.0203641
0.0203393
0.0203147
0.0202903
0.0202661
0.0202421
0.0202183
0.0201947
0.0201713
0.020148
0.020125
0.0201021
0.0200794
0.0200568
0.0200344
0.0200121
0.01999
0.0199679
0.019946
0.0199242
0.0199026
0.0198811
0.0198597
0.0198385
0.0198174
0.0197965
0.0197757
0.019755
0.0197344
0.0197138
0.0196933
0.0196729
0.0196525
0.0196322
0.0196121
0.0195922
0.0195725
0.0195532
0.0195344
0.0195162
0.0194986
0.0194817
0.0194657
0.0194504
0.019436
0.0194225
0.0194098
0.0193979
0.0193867
0.0193761
0.0193659
0.0193561
0.0193465
0.0193369
0.0193272
0.019317
0.0193063
0.0192948
0.0192824
0.0192688
0.019254
0.0192377
0.01922
0.0192009
0.0191802
0.0191581
0.0191348
0.0191103
0.0190848
0.0190586
0.0190318
0.0190047
0.0189776
0.0189505
0.0189238
0.0188976
0.0188719
0.018847
0.0188229
0.0187996
0.018777
0.0187553
0.0187344
0.0187142
0.0186946
0.0186756
0.0186571
0.018639
0.0186213
0.0186038
0.0185866
0.0185695
0.0185525
0.0185355
0.0185187
0.0185017
0.0184848
0.0184679
0.0184509
0.0184338
0.0184168
0.0183997
0.0183825
0.0183653
0.0183481
0.0183309
0.0183137
0.0182966
0.0182794
0.0182623
0.0182452
0.0182282
0.0182112
0.0181943
0.0181774
0.0181606
0.0181439
0.0181272
0.0181107
0.0180942
0.0180778
0.0180615
0.0180453
0.0180291
0.0180131
0.0179971
0.0179812
0.0179654
0.0179497
0.0179341
0.0179186
0.0179032
0.0178878
0.0178726
0.0178574
0.0178423
0.0178273
0.0178124
0.0177976
0.0177829
0.0177682
0.0177537
0.0177392
0.0177248
0.0177105
0.0176963
0.0176822
0.0176681
0.0176542
0.0176403
0.0176265
0.0176128
0.0175992
0.0175857
0.0175722
0.0175588
0.0175455
0.0175322
0.017519
0.0175059
0.0174928
0.0174798
0.0174668
0.0174539
0.0174411
0.0174283
0.0174156
0.0174029
0.0173903
0.0173777
0.0173652
0.0173527
0.0173402
0.0173278
0.0173155
0.0173032
0.0172909
0.0172788
0.0172667
0.0172548
0.0172429
0.0172313
0.0172198
0.0172086
0.0171976
0.017187
0.0171766
0.0171665
0.0171568
0.0171475
0.0171386
0.0171301
0.0171219
0.0171142
0.0171067
0.0170997
0.0170929
0.0170863
0.01708
0.0170738
0.0170678
0.0170617
0.0170555
0.0170492
0.0170427
0.0170359
0.0170288
0.0170211
0.017013
0.0170042
0.0169948
0.0169848
0.016974
0.0169624
0.0169502
0.0169371
0.0169234
0.0169091
0.0168941
0.0168785
0.0168625
0.0168461
0.0168294
0.0168124
0.0167954
0.0167783
0.0167612
0.0167442
0.0167275
0.0167109
0.0166947
0.0166787
0.0166631
0.0166479
0.016633
0.0166185
0.0166044
0.0165906
0.0165772
0.016564
0.0165512
0.0165386
0.0165262
0.016514
0.016502
0.0164901
0.0164783
0.0164666
0.016455
0.0164435
0.016432
0.0164205
0.016409
0.0163976
0.0163861
0.0163746
0.0163631
0.0163516
0.0163401
0.0163286
0.0163171
0.0163055
0.0162939
0.0162824
0.0162708
0.0162592
0.0162477
0.0162361
0.0162246
0.0162131
0.0162016
0.0161901
0.0161787
0.0161673
0.0161559
0.0161445
0.0161332
0.016122
0.0161107
0.0160995
0.0160884
0.0160773
0.0160662
0.0160552
0.0160442
0.0160333
0.0160224
0.0160115
0.0160007
0.01599
0.0159793
0.0159686
0.015958
0.0159474
0.0159369
0.0159265
0.015916
0.0159057
0.0158953
0.0158851
0.0158748
0.0158647
0.0158545
0.0158444
0.0158344
0.0158244
0.0158145
0.0158046
0.0157947
0.0157849
0.0157752
0.0157654
0.0157558
0.0157461
0.0157366
0.015727
0.0157175
0.015708
0.0156986
0.0156892
0.0156798
0.0156705
0.0156612
0.0156519
0.0156427
0.0156335
0.0156244
0.0156153
0.0156062
0.0155971
0.0155881
0.015579
0.0155701
0.0155611
0.0155522
0.0155434
0.0155346
0.0155258
0.0155171
0.0155085
0.0154999
0.0154914
0.0154831
0.0154748
0.0154666
0.0154586
0.0154508
0.015443
0.0154355
0.0154281
0.0154209
0.015414
0.0154072
0.0154006
0.0153942
0.015388
0.015382
0.0153763
0.0153706
0.0153652
0.0153599
0.0153548
0.0153497
0.0153447
0.0153398
0.0153349
0.01533
0.0153251
0.01532
0.0153149
0.0153096
0.0153041
0.0152984
0.0152925
0.0152862
0.0152796
0.0152727
0.0152654
0.0152577
0.0152496
0.015241
0.0152321
0.0152228
0.015213
0.0152028
0.0151923
0.0151814
0.0151702
0.0151587
0.0151469
0.015135
0.0151228
0.0151105
0.0150981
0.0150857
0.0150732
0.0150608
0.0150484
0.0150361
0.0150239
0.0150118
0.0149999
0.0149882
0.0149766
0.0149652
0.014954
0.014943
0.0149322
0.0149216
0.0149111
0.0149008
0.0148907
0.0148807
0.0148709
0.0148611
0.0148515
0.014842
0.0148325
0.0148232
0.0148139
0.0148046
0.0147954
0.0147862
0.0147771
0.0147679
0.0147588
0.0147496
0.0147405
0.0147314
0.0147222
0.0147131
0.0147039
0.0146948
0.0146856
0.0146764
0.0146672
0.014658
0.0146488
0.0146396
0.0146304
0.0146211
0.0146119
0.0146027
0.0145934
0.0145842
0.014575
0.0145658
0.0145566
0.0145474
0.0145382
0.014529
0.0145199
0.0145108
0.0145016
0.0144925
0.0144834
0.0144744
0.0144653
0.0144563
0.0144473
0.0144383
0.0144294
0.0144204
0.0144115
0.0144026
0.0143938
0.0143849
0.0143761
0.0143673
0.0143586
0.0143498
0.0143411
0.0143324
0.0143238
0.0143151
0.0143065
0.0142979
0.0142894
0.0142808
0.0142723
0.0142638
0.0142554
0.0142469
0.0142385
0.0142301
0.0142218
0.0142134
0.0142051
0.0141968
0.0141885
0.0141803
0.014172
0.0141638
0.0141556
0.0141474
0.0141393
0.0141311
0.014123
0.0141149
0.0141068
0.0140987
0.0140907
0.0140826
0.0140746
0.0140666
0.0140586
0.0140506
0.0140426
0.0140347
0.0140268
0.0140189
0.014011
0.0140032
0.0139954
0.0139876
0.0139799
0.0139722
0.0139646
0.013957
0.0139495
0.013942
0.0139347
0.0139274
0.0139202
0.0139131
0.0139062
0.0138993
0.0138926
0.013886
0.0138796
0.0138733
0.0138672
0.0138612
0.0138555
0.0138499
0.0138446
0.0138395
0.0138346
0.0138299
0.0138255
0.0138214
0.0138175
0.013814
0.0138107
0.0138077
0.013805
0.0138026
0.0138005
0.0137987
0.0137972
0.013796
0.013795
0.0137943
0.0137937
0.0137934
0.0137932
0.0137932
0.0137932
0.0137932
0.0137933
0.0137934
0.0137934
0.0137933
0.0137932
0.0137928
0.0137923
0.0137915
0.0137905
0.013789
0.013787
0.0137841
0.0137798
0.0137732
0.0137626
0.013745
0.0137156
0.0136668
0.0135878
0.0134667
0.0132989
0.0130984
0.012903
0.0127523
0.0126586
0.0126086
0.0125833
0.0125702
0.0125627
0.0125581
0.0125548
0.0125522
0.01255
0.0125481
0.0125463
0.0125447
0.0125431
0.0125417
0.0125403
0.0125391
0.0125379
0.0125367
0.0125357
0.0125347
0.0125338
0.0125329
0.0125321
0.0125313
0.0125306
0.0125299
0.0125292
0.0125286
0.012528
0.0125274
0.0125269
0.0125263
0.0125258
0.0125252
0.0125247
0.0125242
0.0125237
0.0125232
0.0125226
0.0125221
0.0125216
0.012521
0.0125205
0.01252
0.0125194
0.0125188
0.0125183
0.0125177
0.0125172
0.0125166
0.012516
0.0125154
0.0125149
0.0125143
0.0125137
0.0125131
0.0125126
0.012512
0.0125115
0.0125109
0.0125103
0.0125098
0.0125093
0.0125087
0.0125082
0.0125077
0.0125072
0.0125067
0.0125063
0.0125058
0.0125053
0.0125049
0.0125045
0.0125041
0.0125037
0.0125033
0.012503
0.0125026
0.0125023
0.012502
0.0125017
0.0125014
0.0125011
0.0125009
0.0125007
0.0125004
0.0125003
0.0125001
0.0124999
0.0124998
0.0124997
0.0124996
0.0124995
0.0124994
0.0124994
0.0124993
0.0124993
0.0124993
0.0124993
0.0124993
0.0124994
0.0124994
0.0124995
0.0124996
0.0124997
0.0124999
0.0125
0.0125002
0.0125004
0.0125005
0.0125007
0.012501
0.0125012
0.0125014
0.0125017
0.012502
0.0125022
0.0125025
0.0125029
0.0125032
0.0125035
0.0125039
0.0125043
0.0125047
0.0125051
0.0125055
0.012506
0.0125065
0.012507
0.0125075
0.012508
0.0125086
0.0125092
0.0125099
0.0125106
0.0125113
0.0125121
0.0125129
0.0125137
0.0125146
0.0125156
0.0125166
0.0125177
0.0125188
0.01252
0.0125213
0.0125226
0.012524
0.0125255
0.012527
0.0125286
0.0125302
0.012532
0.0125337
0.0125356
0.0125375
0.0125395
0.0125415
0.0125436
0.0125457
0.0125479
0.0125501
0.0125524
0.0125546
0.0125569
0.0125591
0.0125614
0.0125637
0.0125659
0.0125681
0.0125702
0.0125723
0.0125744
0.0125764
0.0125782
0.01258
0.0125817
0.0125833
0.0125847
0.012586
0.0125872
0.0125882
0.0125891
0.0125898
0.0125904
0.0125907
0.012591
0.012591
0.012591
0.0125909
0.0125906
0.0125902
0.0125892
0.0125885
0.0125872
0.0125862
0.0125846
0.0125834
0.0125816
0.0125802
0.0125782
0.0125767
0.0125745
0.0125729
0.0125706
0.0125689
0.0125666
0.0125649
0.0125626
0.0125609
0.0125586
0.012557
0.0125548
0.0125532
0.0125511
0.0125497
0.0125477
0.0125464
0.0125445
0.0125433
0.0125415
0.0125405
0.0125389
0.012538
0.0125365
0.0125357
0.0125343
0.0125336
0.0125323
0.0125318
0.0125306
0.0125301
0.012529
0.0125286
0.0125276
0.0125272
0.0125262
0.0125259
)
;

boundaryField
{
    inlet
    {
        type            fixedValue;
        value           uniform 0.55;
    }
    outlet
    {
        type            zeroGradient;
    }
    emptyWalls
    {
        type            empty;
    }
}


// ************************************************************************* //
