/*--------------------------------*- C++ -*----------------------------------*\
  =========                 |
  \\      /  F ield         | OpenFOAM: The Open Source CFD Toolbox
   \\    /   O peration     | Website:  https://openfoam.org
    \\  /    A nd           | Version:  9
     \\/     M anipulation  |
\*---------------------------------------------------------------------------*/
FoamFile
{
    format      ascii;
    class       volScalarField;
    location    "13200";
    object      krb;
}
// * * * * * * * * * * * * * * * * * * * * * * * * * * * * * * * * * * * * * //

dimensions      [0 0 0 0 0 0 0];

internalField   nonuniform List<scalar> 
1000
(
0.0980458
0.0986155
0.0996776
0.100465
0.101467
0.102322
0.103277
0.104171
0.105077
0.105923
0.106726
0.10744
0.10808
0.108637
0.109205
0.110165
0.113166
0.125643
0.22676
0.435826
0.486681
0.502325
0.509988
0.514801
0.518248
0.520887
0.52298
0.524674
0.526055
0.527182
0.528103
0.528849
0.529453
0.529933
0.530303
0.530585
0.530773
0.53089
0.530923
0.530885
0.530763
0.530554
0.530259
0.529869
0.529376
0.528758
0.527986
0.527009
0.525754
0.524136
0.522094
0.519643
0.516911
0.514027
0.511058
0.508045
0.505016
0.501989
0.498975
0.495983
0.493018
0.490082
0.487176
0.4843
0.481453
0.478636
0.475849
0.473093
0.470369
0.46768
0.465024
0.462404
0.459818
0.457267
0.454752
0.452272
0.449829
0.447423
0.445055
0.442723
0.440427
0.438167
0.435939
0.433742
0.431574
0.429432
0.427315
0.425219
0.423144
0.421089
0.419052
0.417033
0.415032
0.413048
0.411083
0.409136
0.407207
0.405298
0.403407
0.401536
0.399684
0.39785
0.396036
0.394241
0.392464
0.390705
0.388965
0.387241
0.385535
0.383845
0.382172
0.380514
0.378873
0.377246
0.375635
0.374038
0.372456
0.370887
0.369333
0.367793
0.366266
0.364752
0.363251
0.361763
0.360288
0.358825
0.357374
0.355935
0.354509
0.353093
0.35169
0.350297
0.348916
0.347546
0.346186
0.344838
0.343499
0.342171
0.340853
0.339546
0.338248
0.336959
0.335681
0.334412
0.333152
0.331901
0.33066
0.329427
0.328204
0.326988
0.325782
0.324584
0.323394
0.322213
0.32104
0.319875
0.318717
0.317568
0.316426
0.315292
0.314165
0.313046
0.311934
0.310829
0.309732
0.308641
0.307558
0.306482
0.305412
0.304349
0.303293
0.302243
0.3012
0.300164
0.299133
0.298109
0.297092
0.29608
0.295074
0.294075
0.293081
0.292093
0.29111
0.290134
0.289163
0.288197
0.287237
0.286283
0.285333
0.284389
0.283449
0.282514
0.281584
0.280658
0.279736
0.278819
0.277906
0.276996
0.276091
0.275191
0.274294
0.273401
0.272512
0.271628
0.270749
0.269874
0.269004
0.268138
0.267278
0.266424
0.265574
0.264731
0.263893
0.263061
0.262234
0.261414
0.260599
0.259791
0.258987
0.258189
0.257396
0.256608
0.255824
0.255044
0.254268
0.253496
0.252727
0.251961
0.251197
0.250437
0.249679
0.248923
0.24817
0.24742
0.246671
0.245926
0.245183
0.244442
0.243705
0.242969
0.242237
0.241508
0.240781
0.240058
0.239337
0.238619
0.237905
0.237193
0.236484
0.235779
0.235076
0.234376
0.23368
0.232986
0.232295
0.231606
0.230921
0.230238
0.229558
0.228881
0.228206
0.227534
0.226865
0.226198
0.225533
0.224871
0.224212
0.223555
0.2229
0.222248
0.221598
0.220951
0.220306
0.219663
0.219023
0.218384
0.217748
0.217115
0.216483
0.215854
0.215227
0.214601
0.213979
0.213358
0.212739
0.212122
0.211508
0.210895
0.210284
0.209676
0.209069
0.208464
0.207861
0.207261
0.206662
0.206064
0.205469
0.204876
0.204284
0.203694
0.203106
0.20252
0.201936
0.201353
0.200772
0.200193
0.199615
0.19904
0.198465
0.197893
0.197322
0.196753
0.196185
0.195619
0.195054
0.194491
0.19393
0.19337
0.192812
0.192255
0.1917
0.191146
0.190594
0.190043
0.189494
0.188946
0.188399
0.187854
0.187311
0.186769
0.186228
0.185688
0.18515
0.184613
0.184078
0.183544
0.183011
0.182479
0.181949
0.18142
0.180892
0.180365
0.179839
0.179315
0.178791
0.178269
0.177748
0.177227
0.176708
0.17619
0.175672
0.175156
0.17464
0.174126
0.173612
0.173099
0.172587
0.172076
0.171565
0.171056
0.170547
0.17004
0.169533
0.169027
0.168522
0.168019
0.167516
0.167015
0.166514
0.166015
0.165517
0.165021
0.164525
0.164031
0.163539
0.163048
0.162558
0.162069
0.161582
0.161096
0.160611
0.160128
0.159646
0.159165
0.158685
0.158206
0.157728
0.157251
0.156774
0.156299
0.155824
0.155349
0.154875
0.154402
0.153929
0.153456
0.152984
0.152512
0.152041
0.15157
0.151099
0.150628
0.150158
0.149688
0.149218
0.148749
0.14828
0.147811
0.147342
0.146874
0.146407
0.145939
0.145472
0.145006
0.14454
0.144074
0.143608
0.143143
0.142678
0.142214
0.14175
0.141286
0.140822
0.140359
0.139896
0.139433
0.138971
0.138509
0.138047
0.137585
0.137123
0.136662
0.136201
0.135739
0.135278
0.134817
0.134356
0.133896
0.133435
0.132974
0.132514
0.132053
0.131592
0.131131
0.130671
0.13021
0.129749
0.129288
0.128826
0.128365
0.127904
0.127442
0.12698
0.126518
0.126056
0.125593
0.125131
0.124667
0.124204
0.123741
0.123277
0.122812
0.122347
0.121882
0.121417
0.120951
0.120485
0.120018
0.119551
0.119083
0.118615
0.118146
0.117677
0.117208
0.116738
0.116267
0.115796
0.115325
0.114853
0.114381
0.113909
0.113436
0.112963
0.11249
0.112017
0.111544
0.111071
0.110599
0.110128
0.109658
0.109189
0.108723
0.108258
0.107797
0.107339
0.106886
0.106439
0.105998
0.105565
0.105142
0.104729
0.104329
0.103942
0.103571
0.103218
0.102883
0.102568
0.102275
0.102004
0.101756
0.101532
0.10133
0.10115
0.100992
0.100854
0.100734
0.100629
0.100534
0.100444
0.100348
0.100232
0.100068
0.0998105
0.0993771
0.0986309
0.0973403
0.0951426
0.0915257
0.0859206
0.0780205
0.0682884
0.0581721
0.0494278
0.0430554
0.038995
0.036634
0.0353362
0.0346448
0.0342828
0.0340949
0.0339978
0.0339477
0.0339217
0.0339082
0.0339011
0.0338973
0.0338952
0.033894
0.0338932
0.0338926
0.0338921
0.0338918
0.0338914
0.0338911
0.0338909
0.0338906
0.0338903
0.0338901
0.0338899
0.0338897
0.0338896
0.0338894
0.0338894
0.0338893
0.0338893
0.0338893
0.0338893
0.0338893
0.0338894
0.0338895
0.0338896
0.0338898
0.03389
0.0338902
0.0338904
0.0338906
0.0338909
0.0338911
0.0338914
0.0338917
0.0338919
0.0338922
0.0338925
0.0338927
0.033893
0.0338932
0.0338934
0.0338936
0.0338938
0.033894
0.0338942
0.0338943
0.0338944
0.0338945
0.0338946
0.0338947
0.0338947
0.0338948
0.0338948
0.0338948
0.0338948
0.0338947
0.0338947
0.0338947
0.0338946
0.0338946
0.0338945
0.0338945
0.0338944
0.0338944
0.0338943
0.0338942
0.0338942
0.0338941
0.0338941
0.033894
0.0338939
0.0338939
0.0338938
0.0338938
0.0338938
0.0338937
0.0338937
0.0338937
0.0338936
0.0338936
0.0338936
0.0338936
0.0338936
0.0338936
0.0338936
0.0338936
0.0338936
0.0338936
0.0338936
0.0338937
0.0338937
0.0338937
0.0338937
0.0338938
0.0338938
0.0338938
0.0338939
0.0338939
0.0338939
0.033894
0.033894
0.033894
0.0338941
0.0338941
0.0338942
0.0338942
0.0338943
0.0338943
0.0338943
0.0338944
0.0338944
0.0338945
0.0338945
0.0338946
0.0338946
0.0338947
0.0338947
0.0338948
0.0338948
0.0338949
0.0338949
0.033895
0.033895
0.0338951
0.0338951
0.0338952
0.0338952
0.0338952
0.0338953
0.0338953
0.0338954
0.0338954
0.0338954
0.0338955
0.0338955
0.0338955
0.0338956
0.0338956
0.0338956
0.0338956
0.0338956
0.0338957
0.0338957
0.0338957
0.0338957
0.0338957
0.0338957
0.0338957
0.0338957
0.0338957
0.0338956
0.0338956
0.0338956
0.0338956
0.0338956
0.0338956
0.0338955
0.0338955
0.0338955
0.0338954
0.0338954
0.0338954
0.0338953
0.0338953
0.0338953
0.0338952
0.0338952
0.0338951
0.0338951
0.033895
0.033895
0.0338949
0.0338949
0.0338948
0.0338947
0.0338947
0.0338946
0.0338945
0.0338944
0.0338944
0.0338943
0.0338942
0.0338941
0.033894
0.0338939
0.0338937
0.0338936
0.0338935
0.0338933
0.0338931
0.033893
0.0338928
0.0338926
0.0338924
0.0338922
0.033892
0.0338918
0.0338915
0.0338913
0.033891
0.0338907
0.0338904
0.0338901
0.0338899
0.0338896
0.0338893
0.033889
0.0338887
0.0338885
0.0338882
0.033888
0.0338877
0.0338875
0.0338873
0.0338871
0.033887
0.0338868
0.0338867
0.0338866
0.0338865
0.0338864
0.0338864
0.0338863
0.0338863
0.0338863
0.0338863
0.0338864
0.0338864
0.0338865
0.0338865
0.0338866
0.0338867
0.0338869
0.033887
0.0338872
0.0338874
0.0338876
0.0338878
0.033888
0.0338882
0.0338884
0.0338887
0.0338889
0.0338892
0.0338894
0.0338896
0.0338899
0.0338901
0.0338903
0.0338906
0.0338908
0.033891
0.0338912
0.0338914
0.0338916
0.0338917
0.0338919
0.0338921
0.0338922
0.0338923
0.0338925
0.0338926
0.0338927
0.0338928
0.0338929
0.033893
0.0338931
0.0338931
0.0338932
0.0338933
0.0338933
0.0338934
0.0338934
0.0338935
0.0338935
0.0338936
0.0338936
0.0338936
0.0338937
0.0338937
0.0338938
0.0338938
0.0338939
0.0338939
0.0338939
0.033894
0.033894
0.0338941
0.0338941
0.0338942
0.0338942
0.0338942
0.0338943
0.0338943
0.0338944
0.0338944
0.0338945
0.0338945
0.0338946
0.0338946
0.0338947
0.0338947
0.0338948
0.0338948
0.0338949
0.0338949
0.0338949
0.033895
0.033895
0.0338951
0.0338951
0.0338952
0.0338952
0.0338952
0.0338953
0.0338953
0.0338954
0.0338954
0.0338954
0.0338955
0.0338955
0.0338955
0.0338956
0.0338956
0.0338956
0.0338956
0.0338957
0.0338957
0.0338957
0.0338957
0.0338958
0.0338958
0.0338958
0.0338958
0.0338958
0.0338958
0.0338958
0.0338959
0.0338959
0.0338959
0.0338959
0.0338959
0.0338959
0.0338959
0.0338959
0.0338959
0.0338959
0.0338959
0.0338959
0.0338959
0.0338959
0.0338959
0.0338958
0.0338958
0.0338958
0.0338958
0.0338958
0.0338958
0.0338957
0.0338957
0.0338957
0.0338957
0.0338956
0.0338956
0.0338956
0.0338956
0.0338955
0.0338955
0.0338955
0.0338954
0.0338954
0.0338954
0.0338953
0.0338953
0.0338952
0.0338952
0.0338951
0.0338951
0.033895
0.033895
0.0338949
0.0338948
0.0338948
0.0338947
0.0338946
0.0338945
0.0338944
0.0338943
0.0338942
0.0338941
0.033894
0.0338939
0.0338938
0.0338937
0.0338935
0.0338934
0.0338932
0.033893
0.0338929
0.0338927
0.0338925
0.0338923
0.0338921
0.0338919
0.0338917
0.0338915
0.0338913
0.033891
0.0338908
0.0338906
0.0338904
0.0338901
0.0338899
0.0338897
0.0338895
0.0338892
0.033889
0.0338888
0.0338886
0.0338884
0.0338882
0.033888
0.0338878
0.0338876
0.0338875
0.0338873
0.0338872
0.033887
0.0338869
0.0338868
0.0338868
0.0338867
0.0338866
0.0338866
0.0338866
0.0338866
0.0338866
0.0338866
0.0338867
0.0338867
0.0338868
0.0338869
0.033887
0.0338872
0.0338872
0.0338875
0.0338876
0.0338879
0.0338879
0.0338882
0.0338883
0.0338886
0.0338887
0.0338891
)
;

boundaryField
{
    inlet
    {
        type            calculated;
        value           uniform 0.0976562;
    }
    outlet
    {
        type            calculated;
        value           uniform 0.0338891;
    }
    emptyWalls
    {
        type            empty;
    }
}


// ************************************************************************* //
