/*--------------------------------*- C++ -*----------------------------------*\
  =========                 |
  \\      /  F ield         | OpenFOAM: The Open Source CFD Toolbox
   \\    /   O peration     | Website:  https://openfoam.org
    \\  /    A nd           | Version:  9
     \\/     M anipulation  |
\*---------------------------------------------------------------------------*/
FoamFile
{
    format      ascii;
    class       surfaceScalarField;
    location    "13200";
    object      phic;
}
// * * * * * * * * * * * * * * * * * * * * * * * * * * * * * * * * * * * * * //

dimensions      [0 2 0 0 0 0 0];

internalField   nonuniform List<scalar> 
999
(
3.29304e-15
1.46452e-14
3.49686e-14
6.346e-14
9.97128e-14
1.43268e-13
1.93243e-13
2.48336e-13
3.06657e-13
3.65951e-13
4.23836e-13
4.78282e-13
5.28394e-13
5.77234e-13
6.45722e-13
8.3773e-13
1.52573e-12
4.5482e-12
1.70126e-11
2.03992e-11
2.14048e-11
2.18954e-11
2.22224e-11
2.24797e-11
2.27005e-11
2.28992e-11
2.30828e-11
2.32552e-11
2.34187e-11
2.35747e-11
2.37245e-11
2.38694e-11
2.40106e-11
2.41494e-11
2.42868e-11
2.44241e-11
2.45622e-11
2.47022e-11
2.48455e-11
2.4998e-11
2.51573e-11
2.53234e-11
2.54976e-11
2.56822e-11
2.5881e-11
2.60997e-11
2.63471e-11
2.66351e-11
2.69781e-11
2.73895e-11
2.78753e-11
2.84286e-11
2.90337e-11
2.96754e-11
3.03435e-11
3.10312e-11
3.17339e-11
3.24486e-11
3.31731e-11
3.39056e-11
3.46451e-11
3.53902e-11
3.61401e-11
3.68937e-11
3.76505e-11
3.84099e-11
3.91718e-11
3.99362e-11
4.07032e-11
4.1473e-11
4.22456e-11
4.3021e-11
4.37995e-11
4.45812e-11
4.53664e-11
4.61552e-11
4.69482e-11
4.77456e-11
4.85478e-11
4.93548e-11
5.01667e-11
5.09832e-11
5.18039e-11
5.26284e-11
5.3456e-11
5.4286e-11
5.5118e-11
5.59513e-11
5.67856e-11
5.76205e-11
5.84557e-11
5.92913e-11
6.01271e-11
6.09633e-11
6.18001e-11
6.26377e-11
6.34762e-11
6.43158e-11
6.51569e-11
6.59995e-11
6.68437e-11
6.76898e-11
6.85377e-11
6.93875e-11
7.02392e-11
7.10928e-11
7.19483e-11
7.28056e-11
7.36647e-11
7.45255e-11
7.53879e-11
7.6252e-11
7.71177e-11
7.79849e-11
7.88536e-11
7.97239e-11
8.05955e-11
8.14686e-11
8.23432e-11
8.32191e-11
8.40964e-11
8.49751e-11
8.58552e-11
8.67366e-11
8.76193e-11
8.85034e-11
8.93888e-11
9.02755e-11
9.11636e-11
9.20529e-11
9.29435e-11
9.38354e-11
9.47285e-11
9.5623e-11
9.65187e-11
9.74156e-11
9.83138e-11
9.92132e-11
1.00114e-10
1.01016e-10
1.01919e-10
1.02823e-10
1.03729e-10
1.04635e-10
1.05543e-10
1.06452e-10
1.07362e-10
1.08274e-10
1.09186e-10
1.101e-10
1.11015e-10
1.11931e-10
1.12848e-10
1.13766e-10
1.14686e-10
1.15606e-10
1.16528e-10
1.17451e-10
1.18375e-10
1.193e-10
1.20226e-10
1.21153e-10
1.22082e-10
1.23011e-10
1.23942e-10
1.24874e-10
1.25807e-10
1.26741e-10
1.27676e-10
1.28613e-10
1.2955e-10
1.30489e-10
1.31429e-10
1.3237e-10
1.33313e-10
1.34256e-10
1.35201e-10
1.36146e-10
1.37093e-10
1.38041e-10
1.3899e-10
1.3994e-10
1.40891e-10
1.41843e-10
1.42797e-10
1.43751e-10
1.44706e-10
1.45663e-10
1.4662e-10
1.47577e-10
1.48535e-10
1.49493e-10
1.50451e-10
1.51409e-10
1.52367e-10
1.53325e-10
1.54282e-10
1.55239e-10
1.56196e-10
1.57153e-10
1.58109e-10
1.59065e-10
1.60022e-10
1.60979e-10
1.61937e-10
1.62897e-10
1.63858e-10
1.64821e-10
1.65786e-10
1.66755e-10
1.67727e-10
1.68704e-10
1.69684e-10
1.70669e-10
1.71659e-10
1.72654e-10
1.73654e-10
1.74658e-10
1.75667e-10
1.76681e-10
1.77698e-10
1.78719e-10
1.79743e-10
1.80769e-10
1.81797e-10
1.82826e-10
1.83856e-10
1.84886e-10
1.85916e-10
1.86946e-10
1.87976e-10
1.89005e-10
1.90033e-10
1.91061e-10
1.92088e-10
1.93115e-10
1.94142e-10
1.95169e-10
1.96196e-10
1.97224e-10
1.98252e-10
1.99281e-10
2.00311e-10
2.01342e-10
2.02374e-10
2.03408e-10
2.04443e-10
2.0548e-10
2.06518e-10
2.07558e-10
2.086e-10
2.09644e-10
2.10689e-10
2.11736e-10
2.12785e-10
2.13836e-10
2.14888e-10
2.15942e-10
2.16997e-10
2.18055e-10
2.19114e-10
2.20174e-10
2.21236e-10
2.223e-10
2.23365e-10
2.24432e-10
2.25501e-10
2.26571e-10
2.27642e-10
2.28716e-10
2.2979e-10
2.30867e-10
2.31945e-10
2.33024e-10
2.34106e-10
2.35188e-10
2.36273e-10
2.37359e-10
2.38446e-10
2.39536e-10
2.40627e-10
2.41719e-10
2.42813e-10
2.43909e-10
2.45006e-10
2.46105e-10
2.47206e-10
2.48308e-10
2.49413e-10
2.50518e-10
2.51626e-10
2.52735e-10
2.53845e-10
2.54958e-10
2.56072e-10
2.57187e-10
2.58305e-10
2.59424e-10
2.60545e-10
2.61667e-10
2.62792e-10
2.63918e-10
2.65045e-10
2.66175e-10
2.67306e-10
2.68439e-10
2.69574e-10
2.7071e-10
2.71849e-10
2.72989e-10
2.74131e-10
2.75274e-10
2.7642e-10
2.77567e-10
2.78717e-10
2.79868e-10
2.81021e-10
2.82176e-10
2.83333e-10
2.84492e-10
2.85653e-10
2.86816e-10
2.87981e-10
2.89148e-10
2.90317e-10
2.91488e-10
2.92661e-10
2.93836e-10
2.95014e-10
2.96193e-10
2.97375e-10
2.98558e-10
2.99744e-10
3.00932e-10
3.02122e-10
3.03314e-10
3.04508e-10
3.05705e-10
3.06903e-10
3.08103e-10
3.09306e-10
3.1051e-10
3.11716e-10
3.12924e-10
3.14133e-10
3.15345e-10
3.16557e-10
3.17771e-10
3.18986e-10
3.20202e-10
3.21419e-10
3.22638e-10
3.23857e-10
3.25077e-10
3.26298e-10
3.27521e-10
3.28744e-10
3.29968e-10
3.31194e-10
3.32421e-10
3.33649e-10
3.34879e-10
3.36112e-10
3.37347e-10
3.38584e-10
3.39825e-10
3.41069e-10
3.42317e-10
3.43569e-10
3.44826e-10
3.46088e-10
3.47356e-10
3.4863e-10
3.49909e-10
3.51196e-10
3.52489e-10
3.53789e-10
3.55097e-10
3.56411e-10
3.57733e-10
3.59062e-10
3.60399e-10
3.61742e-10
3.63091e-10
3.64447e-10
3.65808e-10
3.67175e-10
3.68547e-10
3.69923e-10
3.71304e-10
3.72688e-10
3.74075e-10
3.75466e-10
3.76859e-10
3.78255e-10
3.79652e-10
3.81052e-10
3.82454e-10
3.83858e-10
3.85264e-10
3.86672e-10
3.88082e-10
3.89494e-10
3.90909e-10
3.92326e-10
3.93746e-10
3.95169e-10
3.96595e-10
3.98025e-10
3.99458e-10
4.00894e-10
4.02335e-10
4.03779e-10
4.05228e-10
4.06681e-10
4.08139e-10
4.09601e-10
4.11069e-10
4.12541e-10
4.14018e-10
4.15501e-10
4.16988e-10
4.18481e-10
4.1998e-10
4.21483e-10
4.22993e-10
4.24507e-10
4.26028e-10
4.27553e-10
4.29085e-10
4.30622e-10
4.32165e-10
4.33714e-10
4.35268e-10
4.36829e-10
4.38395e-10
4.39968e-10
4.41546e-10
4.4313e-10
4.44721e-10
4.46318e-10
4.47921e-10
4.49531e-10
4.51147e-10
4.52769e-10
4.54398e-10
4.56034e-10
4.57677e-10
4.59326e-10
4.60982e-10
4.62645e-10
4.64316e-10
4.65993e-10
4.67678e-10
4.69371e-10
4.7107e-10
4.72777e-10
4.74492e-10
4.76215e-10
4.77945e-10
4.79683e-10
4.8143e-10
4.83185e-10
4.84948e-10
4.86719e-10
4.88499e-10
4.90287e-10
4.92083e-10
4.93889e-10
4.95703e-10
4.97527e-10
4.99359e-10
5.012e-10
5.03049e-10
5.04908e-10
5.06776e-10
5.08654e-10
5.1054e-10
5.12435e-10
5.14339e-10
5.16251e-10
5.18172e-10
5.20101e-10
5.22037e-10
5.23982e-10
5.25932e-10
5.27888e-10
5.2985e-10
5.31814e-10
5.33782e-10
5.3575e-10
5.37716e-10
5.39679e-10
5.41634e-10
5.43579e-10
5.45509e-10
5.4742e-10
5.49306e-10
5.51162e-10
5.52981e-10
5.54755e-10
5.56477e-10
5.58139e-10
5.59734e-10
5.61254e-10
5.62692e-10
5.6404e-10
5.65293e-10
5.66447e-10
5.67501e-10
5.68452e-10
5.69303e-10
5.70056e-10
5.70716e-10
5.71291e-10
5.71792e-10
5.72235e-10
5.72645e-10
5.73055e-10
5.73524e-10
5.74147e-10
5.75094e-10
5.76657e-10
5.79344e-10
5.84027e-10
5.92151e-10
6.05982e-10
6.28633e-10
6.6343e-10
7.11829e-10
7.70428e-10
8.30189e-10
8.80908e-10
9.17328e-10
9.40275e-10
9.53513e-10
9.60739e-10
9.64548e-10
9.66515e-10
9.67505e-10
9.67986e-10
9.68202e-10
9.68281e-10
9.6829e-10
9.68261e-10
9.68212e-10
9.68155e-10
9.68092e-10
9.68027e-10
9.67961e-10
9.67896e-10
9.67832e-10
9.67769e-10
9.67709e-10
9.67652e-10
9.67599e-10
9.67549e-10
9.67503e-10
9.67462e-10
9.67426e-10
9.67396e-10
9.67372e-10
9.67355e-10
9.67345e-10
9.67342e-10
9.67341e-10
9.67342e-10
9.67347e-10
9.6737e-10
9.67398e-10
9.67431e-10
9.67468e-10
9.67511e-10
9.67558e-10
9.6761e-10
9.67665e-10
9.67723e-10
9.67784e-10
9.67847e-10
9.67912e-10
9.67977e-10
9.68043e-10
9.68109e-10
9.68174e-10
9.68239e-10
9.68302e-10
9.68363e-10
9.68422e-10
9.68478e-10
9.68532e-10
9.68583e-10
9.68631e-10
9.68677e-10
9.68719e-10
9.68759e-10
9.68795e-10
9.68829e-10
9.6886e-10
9.68889e-10
9.68915e-10
9.68939e-10
9.68961e-10
9.68981e-10
9.68999e-10
9.69016e-10
9.69032e-10
9.69046e-10
9.69059e-10
9.69072e-10
9.69084e-10
9.69096e-10
9.69107e-10
9.69117e-10
9.69128e-10
9.69139e-10
9.69149e-10
9.6916e-10
9.69171e-10
9.69181e-10
9.69192e-10
9.69204e-10
9.69215e-10
9.69227e-10
9.69239e-10
9.6925e-10
9.69263e-10
9.69275e-10
9.69287e-10
9.693e-10
9.69313e-10
9.69325e-10
9.69338e-10
9.6935e-10
9.69363e-10
9.69376e-10
9.69388e-10
9.694e-10
9.69413e-10
9.69425e-10
9.69437e-10
9.69448e-10
9.6946e-10
9.69471e-10
9.69482e-10
9.69493e-10
9.69503e-10
9.69514e-10
9.69524e-10
9.69533e-10
9.69543e-10
9.69552e-10
9.69561e-10
9.69569e-10
9.69577e-10
9.69585e-10
9.69593e-10
9.696e-10
9.69607e-10
9.69614e-10
9.6962e-10
9.69627e-10
9.69632e-10
9.69638e-10
9.69643e-10
9.69648e-10
9.69652e-10
9.69657e-10
9.69661e-10
9.69664e-10
9.69667e-10
9.6967e-10
9.69673e-10
9.69675e-10
9.69677e-10
9.69679e-10
9.6968e-10
9.69681e-10
9.69681e-10
9.69681e-10
9.69681e-10
9.69681e-10
9.69681e-10
9.6968e-10
9.69678e-10
9.69677e-10
9.69675e-10
9.69672e-10
9.6967e-10
9.69667e-10
9.69663e-10
9.6966e-10
9.69656e-10
9.69652e-10
9.69647e-10
9.69642e-10
9.69637e-10
9.69632e-10
9.69627e-10
9.69621e-10
9.69615e-10
9.69609e-10
9.69602e-10
9.69596e-10
9.69589e-10
9.69582e-10
9.69574e-10
9.69567e-10
9.69559e-10
9.69551e-10
9.69543e-10
9.69534e-10
9.69525e-10
9.69516e-10
9.69507e-10
9.69497e-10
9.69486e-10
9.69476e-10
9.69464e-10
9.69453e-10
9.6944e-10
9.69427e-10
9.69414e-10
9.69399e-10
9.69383e-10
9.69367e-10
9.6935e-10
9.69331e-10
9.69311e-10
9.6929e-10
9.69268e-10
9.69244e-10
9.69219e-10
9.69192e-10
9.69164e-10
9.69134e-10
9.69102e-10
9.69068e-10
9.69032e-10
9.68995e-10
9.68955e-10
9.68914e-10
9.68871e-10
9.68826e-10
9.68779e-10
9.68731e-10
9.68681e-10
9.6863e-10
9.68577e-10
9.68523e-10
9.68468e-10
9.68413e-10
9.68356e-10
9.683e-10
9.68243e-10
9.68186e-10
9.6813e-10
9.68075e-10
9.6802e-10
9.67967e-10
9.67916e-10
9.67867e-10
9.6782e-10
9.67776e-10
9.67735e-10
9.67697e-10
9.67663e-10
9.67633e-10
9.67608e-10
9.67586e-10
9.6757e-10
9.67558e-10
9.67551e-10
9.67549e-10
9.67548e-10
9.67549e-10
9.67554e-10
9.67573e-10
9.67595e-10
9.67622e-10
9.67653e-10
9.67688e-10
9.67727e-10
9.67769e-10
9.67814e-10
9.67862e-10
9.67912e-10
9.67964e-10
9.68017e-10
9.68071e-10
9.68126e-10
9.68181e-10
9.68236e-10
9.6829e-10
9.68344e-10
9.68396e-10
9.68447e-10
9.68497e-10
9.68545e-10
9.68591e-10
9.68635e-10
9.68676e-10
9.68716e-10
9.68753e-10
9.68789e-10
9.68822e-10
9.68853e-10
9.68881e-10
9.68908e-10
9.68933e-10
9.68957e-10
9.68978e-10
9.68999e-10
9.69017e-10
9.69035e-10
9.69051e-10
9.69067e-10
9.69081e-10
9.69095e-10
9.69108e-10
9.69121e-10
9.69133e-10
9.69145e-10
9.69156e-10
9.69168e-10
9.69179e-10
9.6919e-10
9.69201e-10
9.69212e-10
9.69223e-10
9.69234e-10
9.69246e-10
9.69257e-10
9.69269e-10
9.6928e-10
9.69292e-10
9.69304e-10
9.69315e-10
9.69327e-10
9.69339e-10
9.69351e-10
9.69363e-10
9.69375e-10
9.69387e-10
9.69399e-10
9.69411e-10
9.69422e-10
9.69434e-10
9.69445e-10
9.69457e-10
9.69468e-10
9.69479e-10
9.69489e-10
9.695e-10
9.6951e-10
9.6952e-10
9.6953e-10
9.6954e-10
9.69549e-10
9.69558e-10
9.69567e-10
9.69575e-10
9.69583e-10
9.69591e-10
9.69598e-10
9.69606e-10
9.69613e-10
9.69619e-10
9.69625e-10
9.69631e-10
9.69637e-10
9.69643e-10
9.69648e-10
9.69652e-10
9.69657e-10
9.69661e-10
9.69665e-10
9.69668e-10
9.69671e-10
9.69674e-10
9.69677e-10
9.69679e-10
9.69681e-10
9.69683e-10
9.69684e-10
9.69685e-10
9.69686e-10
9.69686e-10
9.69687e-10
9.69687e-10
9.69687e-10
9.69686e-10
9.69685e-10
9.69684e-10
9.69683e-10
9.69681e-10
9.69679e-10
9.69676e-10
9.69674e-10
9.69671e-10
9.69667e-10
9.69664e-10
9.6966e-10
9.69656e-10
9.69652e-10
9.69648e-10
9.69643e-10
9.69638e-10
9.69633e-10
9.69627e-10
9.69621e-10
9.69615e-10
9.69609e-10
9.69602e-10
9.69595e-10
9.69588e-10
9.6958e-10
9.69572e-10
9.69564e-10
9.69555e-10
9.69546e-10
9.69536e-10
9.69526e-10
9.69515e-10
9.69504e-10
9.69492e-10
9.6948e-10
9.69467e-10
9.69453e-10
9.69438e-10
9.69422e-10
9.69405e-10
9.69388e-10
9.69369e-10
9.69349e-10
9.69328e-10
9.69306e-10
9.69282e-10
9.69257e-10
9.69231e-10
9.69204e-10
9.69174e-10
9.69144e-10
9.69112e-10
9.69078e-10
9.69043e-10
9.69006e-10
9.68968e-10
9.68928e-10
9.68886e-10
9.68844e-10
9.688e-10
9.68754e-10
9.68708e-10
9.6866e-10
9.68612e-10
9.68563e-10
9.68513e-10
9.68462e-10
9.68411e-10
9.6836e-10
9.6831e-10
9.68259e-10
9.68209e-10
9.6816e-10
9.68111e-10
9.68064e-10
9.68018e-10
9.67974e-10
9.67932e-10
9.67892e-10
9.67855e-10
9.6782e-10
9.67788e-10
9.67759e-10
9.67733e-10
9.67711e-10
9.67692e-10
9.67677e-10
9.67667e-10
9.6766e-10
9.67657e-10
9.67656e-10
9.67656e-10
9.67659e-10
9.67665e-10
9.67682e-10
9.67701e-10
9.67726e-10
9.67752e-10
9.67783e-10
9.67816e-10
9.67852e-10
9.6789e-10
9.6793e-10
9.67971e-10
9.68015e-10
9.68058e-10
9.68104e-10
9.6815e-10
)
;

boundaryField
{
    inlet
    {
        type            calculated;
        value           uniform 0;
    }
    outlet
    {
        type            calculated;
        value           uniform 9.68196e-10;
    }
    emptyWalls
    {
        type            empty;
        value           nonuniform List<scalar> 0();
    }
}


// ************************************************************************* //
