/*--------------------------------*- C++ -*----------------------------------*\
  =========                 |
  \\      /  F ield         | OpenFOAM: The Open Source CFD Toolbox
   \\    /   O peration     | Website:  https://openfoam.org
    \\  /    A nd           | Version:  9
     \\/     M anipulation  |
\*---------------------------------------------------------------------------*/
FoamFile
{
    format      ascii;
    class       volScalarField;
    location    "2400";
    object      kra;
}
// * * * * * * * * * * * * * * * * * * * * * * * * * * * * * * * * * * * * * //

dimensions      [0 0 0 0 0 0 0];

internalField   nonuniform List<scalar> 
100
(
4.00094e-05
2.95427e-05
3.18598e-05
3.04846e-05
3.03138e-05
2.9917e-05
2.9735e-05
2.95034e-05
2.92817e-05
2.90808e-05
2.8884e-05
2.87075e-05
2.85328e-05
2.83745e-05
2.82117e-05
2.80557e-05
2.78723e-05
2.76715e-05
2.73685e-05
2.73751e-05
2.74453e-05
2.74845e-05
2.75364e-05
2.75828e-05
2.76255e-05
2.76656e-05
2.77031e-05
2.77382e-05
2.77718e-05
2.78044e-05
2.78354e-05
2.78641e-05
2.78911e-05
2.79166e-05
2.79405e-05
2.79633e-05
2.79852e-05
2.80051e-05
2.8023e-05
2.80391e-05
2.80534e-05
2.80668e-05
2.80801e-05
2.80925e-05
2.81024e-05
2.81108e-05
2.81178e-05
2.81233e-05
2.81281e-05
2.81328e-05
2.81364e-05
2.81378e-05
2.8138e-05
2.81376e-05
2.81368e-05
2.81352e-05
2.81331e-05
2.813e-05
2.81252e-05
2.81194e-05
2.81145e-05
2.81097e-05
2.81044e-05
2.80986e-05
2.80924e-05
2.80858e-05
2.8079e-05
2.80721e-05
2.8064e-05
2.80518e-05
2.8029e-05
2.79828e-05
2.78803e-05
2.7581e-05
2.57026e-05
8.70085e-06
2.68454e-08
3.24934e-14
9.1024e-27
3.24355e-35
2.81236e-35
3.33367e-35
3.06745e-35
3.06728e-35
3.24329e-35
2.72944e-35
3.33309e-35
3.06695e-35
3.24316e-35
3.33319e-35
3.24331e-35
3.3333e-35
3.06715e-35
3.24335e-35
3.33327e-35
2.81205e-35
3.24325e-35
3.33321e-35
3.24331e-35
3.33128e-35
)
;

boundaryField
{
    inlet
    {
        type            calculated;
        value           uniform 1.15823e-05;
    }
    outlet
    {
        type            calculated;
        value           uniform 4.72862e-37;
    }
    emptyWalls
    {
        type            empty;
    }
}


// ************************************************************************* //
