/*--------------------------------*- C++ -*----------------------------------*\
  =========                 |
  \\      /  F ield         | OpenFOAM: The Open Source CFD Toolbox
   \\    /   O peration     | Website:  https://openfoam.org
    \\  /    A nd           | Version:  9
     \\/     M anipulation  |
\*---------------------------------------------------------------------------*/
FoamFile
{
    format      ascii;
    class       volScalarField;
    location    "2400";
    object      p;
}
// * * * * * * * * * * * * * * * * * * * * * * * * * * * * * * * * * * * * * //

dimensions      [0 0 0 0 0 0 0];

internalField   nonuniform List<scalar> 
100
(
5.84798e+06
5.83986e+06
5.82887e+06
5.81869e+06
5.80804e+06
5.79733e+06
5.7865e+06
5.77561e+06
5.76464e+06
5.7536e+06
5.74249e+06
5.73133e+06
5.72011e+06
5.70884e+06
5.69752e+06
5.68615e+06
5.67473e+06
5.66324e+06
5.65168e+06
5.64008e+06
5.62852e+06
5.61701e+06
5.60555e+06
5.59413e+06
5.58275e+06
5.57141e+06
5.56011e+06
5.54885e+06
5.53762e+06
5.52644e+06
5.51529e+06
5.50418e+06
5.49311e+06
5.48207e+06
5.47106e+06
5.4601e+06
5.44916e+06
5.43826e+06
5.4274e+06
5.41657e+06
5.40577e+06
5.39501e+06
5.38428e+06
5.37358e+06
5.36292e+06
5.35228e+06
5.34168e+06
5.33111e+06
5.32058e+06
5.31007e+06
5.2996e+06
5.28915e+06
5.27874e+06
5.26835e+06
5.258e+06
5.24767e+06
5.23737e+06
5.2271e+06
5.21686e+06
5.20664e+06
5.19645e+06
5.18628e+06
5.17614e+06
5.16601e+06
5.15591e+06
5.14583e+06
5.13577e+06
5.12572e+06
5.11569e+06
5.10568e+06
5.0957e+06
5.08577e+06
5.07593e+06
5.06627e+06
5.05706e+06
5.04965e+06
5.04711e+06
5.04509e+06
5.04309e+06
5.04108e+06
5.03908e+06
5.03708e+06
5.03507e+06
5.03307e+06
5.03106e+06
5.02906e+06
5.02706e+06
5.02505e+06
5.02305e+06
5.02104e+06
5.01904e+06
5.01703e+06
5.01503e+06
5.01303e+06
5.01102e+06
5.00902e+06
5.00701e+06
5.00501e+06
5.00301e+06
5.001e+06
)
;

boundaryField
{
    inlet
    {
        type            darcyGradPressure;
        gradient        uniform 4.03515e+06;
        Mf              Mf;
        phi             phi;
        value           uniform 5.85605e+06;
    }
    outlet
    {
        type            fixedValue;
        value           uniform 5e+06;
    }
    emptyWalls
    {
        type            empty;
    }
}


// ************************************************************************* //
