/*--------------------------------*- C++ -*----------------------------------*\
  =========                 |
  \\      /  F ield         | OpenFOAM: The Open Source CFD Toolbox
   \\    /   O peration     | Website:  https://openfoam.org
    \\  /    A nd           | Version:  9
     \\/     M anipulation  |
\*---------------------------------------------------------------------------*/
FoamFile
{
    format      ascii;
    class       surfaceScalarField;
    location    "2400";
    object      phia;
}
// * * * * * * * * * * * * * * * * * * * * * * * * * * * * * * * * * * * * * //

dimensions      [0 2 0 0 0 0 0];

internalField   nonuniform List<scalar> 
99
(
1.42014e-08
1.41898e-08
1.41769e-08
1.41518e-08
1.41166e-08
1.41167e-08
1.41089e-08
1.40964e-08
1.40826e-08
1.40679e-08
1.40523e-08
1.40365e-08
1.40205e-08
1.40038e-08
1.3986e-08
1.3966e-08
1.39414e-08
1.391e-08
1.3876e-08
1.38437e-08
1.38154e-08
1.37872e-08
1.37607e-08
1.37332e-08
1.37049e-08
1.36762e-08
1.36468e-08
1.36171e-08
1.35875e-08
1.35579e-08
1.35277e-08
1.34969e-08
1.34657e-08
1.34343e-08
1.34025e-08
1.33707e-08
1.33386e-08
1.33057e-08
1.32721e-08
1.32379e-08
1.32034e-08
1.3169e-08
1.3135e-08
1.31003e-08
1.30649e-08
1.30291e-08
1.29928e-08
1.29564e-08
1.29203e-08
1.28844e-08
1.28481e-08
1.28112e-08
1.27745e-08
1.27382e-08
1.27021e-08
1.26665e-08
1.26313e-08
1.25963e-08
1.25614e-08
1.25277e-08
1.24957e-08
1.2465e-08
1.24354e-08
1.24072e-08
1.23803e-08
1.23547e-08
1.233e-08
1.23052e-08
1.22762e-08
1.22345e-08
1.21613e-08
1.20195e-08
1.17306e-08
1.09856e-08
7.71812e-09
4.83445e-10
1.18648e-12
1.42344e-18
3.98752e-31
2.65292e-39
2.46403e-39
2.92078e-39
2.68745e-39
2.68736e-39
2.84156e-39
2.39136e-39
2.92023e-39
2.68706e-39
2.88088e-39
2.92033e-39
2.84159e-39
2.92044e-39
2.68725e-39
2.88101e-39
2.9204e-39
2.46374e-39
2.88094e-39
2.92034e-39
2.84159e-39
)
;

boundaryField
{
    inlet
    {
        type            calculated;
        value           uniform -1.42126e-08;
    }
    outlet
    {
        type            calculated;
        value           uniform 4.14274e-41;
    }
    emptyWalls
    {
        type            empty;
        value           nonuniform List<scalar> 0();
    }
}


// ************************************************************************* //
