/*--------------------------------*- C++ -*----------------------------------*\
  =========                 |
  \\      /  F ield         | OpenFOAM: The Open Source CFD Toolbox
   \\    /   O peration     | Website:  https://openfoam.org
    \\  /    A nd           | Version:  9
     \\/     M anipulation  |
\*---------------------------------------------------------------------------*/
FoamFile
{
    format      ascii;
    class       surfaceScalarField;
    location    "2400";
    object      phib;
}
// * * * * * * * * * * * * * * * * * * * * * * * * * * * * * * * * * * * * * //

dimensions      [0 2 0 0 0 0 0];

internalField   nonuniform List<scalar> 
99
(
6.09072e-09
6.09022e-09
6.08966e-09
6.10052e-09
6.12059e-09
6.10506e-09
6.09672e-09
6.09257e-09
6.08956e-09
6.08744e-09
6.08611e-09
6.08493e-09
6.08382e-09
6.0829e-09
6.08206e-09
6.08109e-09
6.07996e-09
6.07854e-09
6.07711e-09
6.07827e-09
6.07955e-09
6.08085e-09
6.08084e-09
6.08154e-09
6.08285e-09
6.08425e-09
6.08596e-09
6.0877e-09
6.08887e-09
6.08968e-09
6.09072e-09
6.09201e-09
6.09323e-09
6.09445e-09
6.09563e-09
6.0964e-09
6.09721e-09
6.09852e-09
6.1001e-09
6.10205e-09
6.10409e-09
6.10557e-09
6.1065e-09
6.10778e-09
6.10966e-09
6.1117e-09
6.11397e-09
6.11628e-09
6.11807e-09
6.11951e-09
6.12142e-09
6.12383e-09
6.12612e-09
6.12816e-09
6.13006e-09
6.13176e-09
6.1334e-09
6.13546e-09
6.13802e-09
6.14018e-09
6.14159e-09
6.14289e-09
6.14427e-09
6.14579e-09
6.14741e-09
6.14908e-09
6.15061e-09
6.15189e-09
6.15339e-09
6.15582e-09
6.16034e-09
6.16929e-09
6.18839e-09
6.24502e-09
6.69414e-09
8.99633e-09
9.14885e-09
9.1473e-09
9.14869e-09
9.14903e-09
9.14884e-09
9.14877e-09
9.14889e-09
9.1493e-09
9.14956e-09
9.14969e-09
9.14972e-09
9.14973e-09
9.14966e-09
9.14949e-09
9.1494e-09
9.14937e-09
9.14936e-09
9.14938e-09
9.14946e-09
9.14952e-09
9.14953e-09
9.14953e-09
9.14943e-09
)
;

boundaryField
{
    inlet
    {
        type            calculated;
        value           uniform -6.09112e-09;
    }
    outlet
    {
        type            calculated;
        value           uniform 9.15269e-09;
    }
    emptyWalls
    {
        type            empty;
        value           nonuniform List<scalar> 0();
    }
}


// ************************************************************************* //
