/*--------------------------------*- C++ -*----------------------------------*\
  =========                 |
  \\      /  F ield         | OpenFOAM: The Open Source CFD Toolbox
   \\    /   O peration     | Website:  https://openfoam.org
    \\  /    A nd           | Version:  9
     \\/     M anipulation  |
\*---------------------------------------------------------------------------*/
FoamFile
{
    format      ascii;
    class       surfaceScalarField;
    location    "2400";
    object      phic;
}
// * * * * * * * * * * * * * * * * * * * * * * * * * * * * * * * * * * * * * //

dimensions      [0 2 0 0 0 0 0];

internalField   nonuniform List<scalar> 
99
(
1.16076e-11
2.36671e-11
3.71813e-11
5.1436e-11
6.65125e-11
8.1981e-11
9.81524e-11
1.14746e-10
1.31534e-10
1.4839e-10
1.65293e-10
1.82283e-10
1.9946e-10
2.17049e-10
2.35633e-10
2.56614e-10
2.824e-10
3.15151e-10
3.50651e-10
3.81787e-10
4.08814e-10
4.35672e-10
4.62246e-10
4.88989e-10
5.15986e-10
5.43294e-10
5.70944e-10
5.98965e-10
6.2737e-10
6.56159e-10
6.85317e-10
7.14851e-10
7.44761e-10
7.75026e-10
8.05644e-10
8.36623e-10
8.67938e-10
8.99568e-10
9.31512e-10
9.63755e-10
9.96289e-10
1.02912e-09
1.06225e-09
1.09562e-09
1.1292e-09
1.16299e-09
1.19696e-09
1.23109e-09
1.26538e-09
1.29979e-09
1.33424e-09
1.36869e-09
1.40309e-09
1.43742e-09
1.47159e-09
1.5055e-09
1.53902e-09
1.57202e-09
1.60433e-09
1.63585e-09
1.66644e-09
1.69588e-09
1.72404e-09
1.75078e-09
1.77606e-09
1.79999e-09
1.82308e-09
1.84669e-09
1.87415e-09
1.91339e-09
1.98211e-09
2.115e-09
2.38477e-09
3.07309e-09
5.89147e-09
1.0824e-08
1.11537e-08
1.11564e-08
1.1155e-08
1.11547e-08
1.11549e-08
1.1155e-08
1.11548e-08
1.11544e-08
1.11542e-08
1.1154e-08
1.1154e-08
1.1154e-08
1.11541e-08
1.11542e-08
1.11543e-08
1.11544e-08
1.11544e-08
1.11544e-08
1.11543e-08
1.11542e-08
1.11542e-08
1.11542e-08
1.11543e-08
)
;

boundaryField
{
    inlet
    {
        type            calculated;
        value           uniform 0;
    }
    outlet
    {
        type            calculated;
        value           uniform 1.1151e-08;
    }
    emptyWalls
    {
        type            empty;
        value           nonuniform List<scalar> 0();
    }
}


// ************************************************************************* //
