/*--------------------------------*- C++ -*----------------------------------*\
  =========                 |
  \\      /  F ield         | OpenFOAM: The Open Source CFD Toolbox
   \\    /   O peration     | Website:  https://openfoam.org
    \\  /    A nd           | Version:  9
     \\/     M anipulation  |
\*---------------------------------------------------------------------------*/
FoamFile
{
    format      ascii;
    class       volVectorField;
    location    "2400";
    object      Ua;
}
// * * * * * * * * * * * * * * * * * * * * * * * * * * * * * * * * * * * * * //

dimensions      [0 0 0 0 0 0 0];

internalField   nonuniform List<vector> 
100
(
(0 0 8.90238e-06)
(0 0 1.12965e-05)
(0 0 1.12868e-05)
(0 0 1.12716e-05)
(0 0 1.12476e-05)
(0 0 1.12337e-05)
(0 0 1.12306e-05)
(0 0 1.12225e-05)
(0 0 1.12121e-05)
(0 0 1.12008e-05)
(0 0 1.11887e-05)
(0 0 1.11762e-05)
(0 0 1.11635e-05)
(0 0 1.11505e-05)
(0 0 1.11368e-05)
(0 0 1.11218e-05)
(0 0 1.1104e-05)
(0 0 1.10817e-05)
(0 0 1.10557e-05)
(0 0 1.10293e-05)
(0 0 1.10052e-05)
(0 0 1.09827e-05)
(0 0 1.09609e-05)
(0 0 1.09395e-05)
(0 0 1.09173e-05)
(0 0 1.08946e-05)
(0 0 1.08715e-05)
(0 0 1.0848e-05)
(0 0 1.08244e-05)
(0 0 1.08008e-05)
(0 0 1.0777e-05)
(0 0 1.07527e-05)
(0 0 1.07281e-05)
(0 0 1.07032e-05)
(0 0 1.0678e-05)
(0 0 1.06527e-05)
(0 0 1.06273e-05)
(0 0 1.06014e-05)
(0 0 1.0575e-05)
(0 0 1.0548e-05)
(0 0 1.05207e-05)
(0 0 1.04932e-05)
(0 0 1.0466e-05)
(0 0 1.04387e-05)
(0 0 1.04108e-05)
(0 0 1.03824e-05)
(0 0 1.03538e-05)
(0 0 1.03248e-05)
(0 0 1.0296e-05)
(0 0 1.02674e-05)
(0 0 1.02386e-05)
(0 0 1.02095e-05)
(0 0 1.01802e-05)
(0 0 1.01512e-05)
(0 0 1.01224e-05)
(0 0 1.00938e-05)
(0 0 1.00657e-05)
(0 0 1.00377e-05)
(0 0 1.00099e-05)
(0 0 9.98263e-06)
(0 0 9.9565e-06)
(0 0 9.93153e-06)
(0 0 9.90755e-06)
(0 0 9.88455e-06)
(0 0 9.86261e-06)
(0 0 9.84172e-06)
(0 0 9.82173e-06)
(0 0 9.80204e-06)
(0 0 9.78061e-06)
(0 0 9.75251e-06)
(0 0 9.70679e-06)
(0 0 9.62121e-06)
(0 0 9.44984e-06)
(0 0 9.03849e-06)
(0 0 7.44199e-06)
(0 0 3.2633e-06)
(0 0 1.92829e-07)
(0 0 4.72086e-10)
(0 0 5.66371e-16)
(0 0 1.58658e-28)
(0 0 2.03597e-36)
(0 0 2.14255e-36)
(0 0 2.23145e-36)
(0 0 2.13857e-36)
(0 0 2.19989e-36)
(0 0 2.08211e-36)
(0 0 2.11342e-36)
(0 0 2.23107e-36)
(0 0 2.21541e-36)
(0 0 2.30823e-36)
(0 0 2.2926e-36)
(0 0 2.29264e-36)
(0 0 2.23123e-36)
(0 0 2.21554e-36)
(0 0 2.30831e-36)
(0 0 2.14228e-36)
(0 0 2.12658e-36)
(0 0 2.30826e-36)
(0 0 2.2926e-36)
(0 0 1.14711e-36)
)
;

boundaryField
{
    inlet
    {
        type            fixedValue;
        value           uniform (0 0 1.131e-05);
    }
    outlet
    {
        type            zeroGradient;
    }
    emptyWalls
    {
        type            empty;
    }
}


// ************************************************************************* //
