/*--------------------------------*- C++ -*----------------------------------*\
  =========                 |
  \\      /  F ield         | OpenFOAM: The Open Source CFD Toolbox
   \\    /   O peration     | Website:  https://openfoam.org
    \\  /    A nd           | Version:  9
     \\/     M anipulation  |
\*---------------------------------------------------------------------------*/
FoamFile
{
    format      ascii;
    class       volVectorField;
    location    "2400";
    object      Ub;
}
// * * * * * * * * * * * * * * * * * * * * * * * * * * * * * * * * * * * * * //

dimensions      [0 0 0 0 0 0 0];

internalField   nonuniform List<vector> 
100
(
(0 0 7.24102e-06)
(0 0 4.84664e-06)
(0 0 4.84622e-06)
(0 0 4.85032e-06)
(0 0 4.86262e-06)
(0 0 4.86443e-06)
(0 0 4.85493e-06)
(0 0 4.84996e-06)
(0 0 4.84711e-06)
(0 0 4.84507e-06)
(0 0 4.8437e-06)
(0 0 4.8427e-06)
(0 0 4.84179e-06)
(0 0 4.84099e-06)
(0 0 4.84028e-06)
(0 0 4.83956e-06)
(0 0 4.83873e-06)
(0 0 4.83771e-06)
(0 0 4.83658e-06)
(0 0 4.83647e-06)
(0 0 4.83744e-06)
(0 0 4.83847e-06)
(0 0 4.83898e-06)
(0 0 4.83925e-06)
(0 0 4.84006e-06)
(0 0 4.84114e-06)
(0 0 4.84238e-06)
(0 0 4.84374e-06)
(0 0 4.8449e-06)
(0 0 4.84569e-06)
(0 0 4.84643e-06)
(0 0 4.84736e-06)
(0 0 4.84835e-06)
(0 0 4.84933e-06)
(0 0 4.85028e-06)
(0 0 4.85105e-06)
(0 0 4.85168e-06)
(0 0 4.85253e-06)
(0 0 4.85368e-06)
(0 0 4.85508e-06)
(0 0 4.85667e-06)
(0 0 4.85807e-06)
(0 0 4.85903e-06)
(0 0 4.85991e-06)
(0 0 4.86117e-06)
(0 0 4.86273e-06)
(0 0 4.86444e-06)
(0 0 4.86626e-06)
(0 0 4.86789e-06)
(0 0 4.86918e-06)
(0 0 4.87051e-06)
(0 0 4.87223e-06)
(0 0 4.8741e-06)
(0 0 4.87582e-06)
(0 0 4.87739e-06)
(0 0 4.87883e-06)
(0 0 4.88015e-06)
(0 0 4.88162e-06)
(0 0 4.88346e-06)
(0 0 4.88534e-06)
(0 0 4.88676e-06)
(0 0 4.88784e-06)
(0 0 4.88891e-06)
(0 0 4.89006e-06)
(0 0 4.89131e-06)
(0 0 4.89262e-06)
(0 0 4.89389e-06)
(0 0 4.89501e-06)
(0 0 4.89612e-06)
(0 0 4.89768e-06)
(0 0 4.90044e-06)
(0 0 4.9058e-06)
(0 0 4.91696e-06)
(0 0 4.9471e-06)
(0 0 5.14833e-06)
(0 0 6.24304e-06)
(0 0 7.21974e-06)
(0 0 7.27981e-06)
(0 0 7.27974e-06)
(0 0 7.28043e-06)
(0 0 7.28049e-06)
(0 0 7.28038e-06)
(0 0 7.28041e-06)
(0 0 7.28062e-06)
(0 0 7.28089e-06)
(0 0 7.28104e-06)
(0 0 7.2811e-06)
(0 0 7.28112e-06)
(0 0 7.28109e-06)
(0 0 7.281e-06)
(0 0 7.2809e-06)
(0 0 7.28085e-06)
(0 0 7.28083e-06)
(0 0 7.28084e-06)
(0 0 7.28088e-06)
(0 0 7.28093e-06)
(0 0 7.28096e-06)
(0 0 7.28097e-06)
(0 0 7.28093e-06)
(0 0 7.28219e-06)
)
;

boundaryField
{
    inlet
    {
        type            fixedValue;
        value           uniform (0 0 4.84716e-06);
    }
    outlet
    {
        type            zeroGradient;
    }
    emptyWalls
    {
        type            empty;
    }
}


// ************************************************************************* //
