/*--------------------------------*- C++ -*----------------------------------*\
  =========                 |
  \\      /  F ield         | OpenFOAM: The Open Source CFD Toolbox
   \\    /   O peration     | Website:  https://openfoam.org
    \\  /    A nd           | Version:  9
     \\/     M anipulation  |
\*---------------------------------------------------------------------------*/
FoamFile
{
    format      ascii;
    class       volVectorField;
    location    "2400";
    object      Uc;
}
// * * * * * * * * * * * * * * * * * * * * * * * * * * * * * * * * * * * * * //

dimensions      [0 0 0 0 0 0 0];

internalField   nonuniform List<vector> 
100
(
(0 0 1.37998e-08)
(0 0 1.40353e-08)
(0 0 2.42108e-08)
(0 0 3.52597e-08)
(0 0 4.69302e-08)
(0 0 5.90837e-08)
(0 0 7.16728e-08)
(0 0 8.47096e-08)
(0 0 9.79915e-08)
(0 0 1.11378e-07)
(0 0 1.2481e-07)
(0 0 1.38296e-07)
(0 0 1.51891e-07)
(0 0 1.65723e-07)
(0 0 1.80116e-07)
(0 0 1.95859e-07)
(0 0 2.14467e-07)
(0 0 2.37758e-07)
(0 0 2.64914e-07)
(0 0 2.91428e-07)
(0 0 3.1457e-07)
(0 0 3.3601e-07)
(0 0 3.5727e-07)
(0 0 3.78484e-07)
(0 0 3.99867e-07)
(0 0 4.21474e-07)
(0 0 4.43341e-07)
(0 0 4.65492e-07)
(0 0 4.87943e-07)
(0 0 5.107e-07)
(0 0 5.33757e-07)
(0 0 5.57109e-07)
(0 0 5.80761e-07)
(0 0 6.04704e-07)
(0 0 6.28929e-07)
(0 0 6.53437e-07)
(0 0 6.78223e-07)
(0 0 7.03268e-07)
(0 0 7.28564e-07)
(0 0 7.54103e-07)
(0 0 7.79877e-07)
(0 0 8.05886e-07)
(0 0 8.32131e-07)
(0 0 8.58587e-07)
(0 0 8.85224e-07)
(0 0 9.1203e-07)
(0 0 9.38993e-07)
(0 0 9.66091e-07)
(0 0 9.93312e-07)
(0 0 1.02065e-06)
(0 0 1.04805e-06)
(0 0 1.07546e-06)
(0 0 1.10286e-06)
(0 0 1.1302e-06)
(0 0 1.15746e-06)
(0 0 1.18454e-06)
(0 0 1.21138e-06)
(0 0 1.23784e-06)
(0 0 1.26383e-06)
(0 0 1.28923e-06)
(0 0 1.31394e-06)
(0 0 1.33782e-06)
(0 0 1.36075e-06)
(0 0 1.38259e-06)
(0 0 1.40328e-06)
(0 0 1.42286e-06)
(0 0 1.44157e-06)
(0 0 1.46016e-06)
(0 0 1.48048e-06)
(0 0 1.50701e-06)
(0 0 1.54997e-06)
(0 0 1.63019e-06)
(0 0 1.7904e-06)
(0 0 2.17161e-06)
(0 0 3.56689e-06)
(0 0 6.65086e-06)
(0 0 8.74463e-06)
(0 0 8.87692e-06)
(0 0 8.87746e-06)
(0 0 8.87677e-06)
(0 0 8.87671e-06)
(0 0 8.87682e-06)
(0 0 8.87679e-06)
(0 0 8.87658e-06)
(0 0 8.87631e-06)
(0 0 8.87616e-06)
(0 0 8.8761e-06)
(0 0 8.87608e-06)
(0 0 8.87611e-06)
(0 0 8.8762e-06)
(0 0 8.8763e-06)
(0 0 8.87635e-06)
(0 0 8.87637e-06)
(0 0 8.87636e-06)
(0 0 8.87632e-06)
(0 0 8.87627e-06)
(0 0 8.87624e-06)
(0 0 8.87623e-06)
(0 0 8.87627e-06)
(0 0 8.87501e-06)
)
;

boundaryField
{
    inlet
    {
        type            fixedValue;
        value           uniform (0 0 0);
    }
    outlet
    {
        type            zeroGradient;
    }
    emptyWalls
    {
        type            empty;
    }
}


// ************************************************************************* //
