/*--------------------------------*- C++ -*----------------------------------*\
  =========                 |
  \\      /  F ield         | OpenFOAM: The Open Source CFD Toolbox
   \\    /   O peration     | Website:  https://openfoam.org
    \\  /    A nd           | Version:  9
     \\/     M anipulation  |
\*---------------------------------------------------------------------------*/
FoamFile
{
    format      ascii;
    class       volScalarField;
    location    "14050";
    object      p;
}
// * * * * * * * * * * * * * * * * * * * * * * * * * * * * * * * * * * * * * //

dimensions      [0 0 0 0 0 0 0];

internalField   nonuniform List<scalar> 
1000
(
216640
216216
215795
215377
214963
214553
214146
213742
213342
212945
212551
212160
211771
211384
211000
210617
210237
209861
209503
209199
209053
208956
208868
208782
208698
208614
208530
208447
208364
208282
208199
208117
208035
207953
207871
207789
207708
207626
207544
207463
207381
207300
207218
207136
207055
206973
206891
206809
206727
206646
206563
206481
206399
206316
206233
206150
206066
205982
205898
205813
205727
205642
205556
205469
205382
205294
205206
205118
205029
204940
204850
204760
204669
204578
204487
204395
204303
204210
204117
204023
203929
203835
203740
203645
203549
203453
203357
203260
203163
203065
202967
202868
202769
202670
202571
202471
202370
202269
202168
202067
201965
201862
201760
201657
201553
201449
201345
201241
201136
201030
200925
200819
200712
200605
200498
200390
200282
200174
200065
199956
199846
199736
199626
199515
199404
199292
199180
199068
198956
198843
198729
198616
198502
198387
198273
198158
198042
197927
197810
197694
197577
197460
197342
197225
197106
196988
196869
196750
196630
196510
196390
196269
196148
196027
195905
195783
195661
195538
195415
195291
195168
195044
194919
194795
194669
194544
194418
194292
194166
194039
193912
193785
193657
193529
193400
193272
193143
193013
192884
192754
192623
192493
192362
192230
192099
191967
191835
191702
191569
191436
191302
191168
191034
190900
190765
190630
190494
190359
190222
190086
189949
189812
189675
189537
189399
189261
189123
188984
188844
188705
188565
188425
188285
188144
188003
187862
187720
187578
187436
187293
187150
187007
186864
186720
186576
186431
186287
186142
185997
185851
185705
185559
185413
185266
185119
184972
184824
184676
184528
184380
184231
184082
183933
183783
183634
183483
183333
183182
183031
182880
182728
182577
182424
182272
182119
181966
181812
181659
181505
181350
181196
181041
180885
180730
180574
180418
180261
180104
179947
179790
179632
179474
179316
179157
178998
178839
178680
178520
178360
178200
178039
177878
177717
177555
177394
177232
177069
176907
176744
176581
176417
176253
176089
175925
175760
175595
175430
175264
175099
174933
174766
174600
174433
174265
174098
173930
173762
173594
173425
173256
173087
172917
172747
172577
172407
172236
172065
171894
171723
171551
171379
171206
171034
170861
170688
170514
170340
170166
169992
169817
169642
169467
169292
169116
168940
168764
168587
168410
168233
168056
167878
167700
167522
167343
167164
166985
166806
166626
166446
166266
166085
165905
165724
165542
165361
165179
164997
164814
164631
164448
164265
164081
163898
163714
163529
163344
163159
162974
162789
162603
162417
162231
162044
161857
161670
161482
161295
161107
160918
160730
160541
160352
160163
159973
159783
159593
159402
159212
159021
158829
158638
158446
158254
158061
157869
157676
157483
157289
157096
156902
156708
156513
156318
156124
155928
155733
155537
155341
155144
154948
154751
154554
154356
154159
153961
153762
153564
153365
153166
152966
152766
152566
152366
152165
151964
151763
151562
151360
151158
150955
150752
150549
150346
150142
149938
149734
149530
149325
149120
148914
148709
148503
148296
148090
147883
147676
147468
147261
147053
146844
146636
146427
146218
146008
145798
145588
145378
145167
144956
144745
144534
144322
144110
143897
143685
143472
143258
143045
142831
142617
142402
142187
141972
141757
141541
141325
141109
140892
140675
140458
140241
140023
139805
139586
139368
139149
138929
138710
138490
138270
138049
137828
137607
137386
137164
136942
136719
136497
136273
136050
135826
135602
135378
135154
134929
134703
134478
134252
134026
133799
133572
133345
133118
132890
132662
132433
132205
131976
131746
131516
131286
131056
130825
130594
130363
130131
129899
129667
129435
129202
128969
128735
128501
128267
128033
127798
127564
127328
127093
126858
126622
126386
126150
125914
125677
125441
125204
124967
124731
124494
124257
124020
123783
123546
123308
123071
122834
122596
122358
122120
121880
121638
121393
121144
120888
120626
120358
120085
119810
119534
119257
118979
118702
118424
118147
117869
117592
117314
117037
116759
116482
116204
115927
115649
115372
115094
114817
114540
114262
113985
113707
113430
113153
112875
112598
112321
112044
111766
111489
111212
110934
110657
110380
110103
109825
109548
109271
108993
108716
108439
108161
107884
107607
107329
107052
106775
106497
106220
105942
105665
105387
105110
104832
104555
104277
104000
103722
103444
103167
102889
102612
102334
102056
101779
101501
101223
100946
100668
100390
100113
99835.1
99557.5
99279.8
99002.1
98724.4
98446.7
98169
97891.3
97613.6
97335.9
97058.2
96780.5
96502.8
96225.1
95947.4
95669.7
95391.9
95114.2
94836.5
94558.8
94281
94003.3
93725.6
93447.8
93170.1
92892.4
92614.6
92336.9
92059.1
91781.4
91503.6
91225.8
90948.1
90670.3
90392.5
90114.8
89837
89559.2
89281.4
89003.6
88725.8
88448.1
88170.3
87892.5
87614.7
87336.9
87059.1
86781.3
86503.4
86225.6
85947.8
85670
85392.2
85114.4
84836.5
84558.7
84280.9
84003
83725.2
83447.4
83169.5
82891.7
82613.9
82336
82058.2
81780.3
81502.5
81224.7
80946.8
80669
80391.1
80113.3
79835.4
79557.6
79279.7
79001.9
78724
78446.2
78168.3
77890.5
77612.6
77334.8
77056.9
76779.1
76501.3
76223.4
75945.6
75667.7
75389.9
75112
74834.2
74556.4
74278.5
74000.7
73722.8
73445
73167.2
72889.3
72611.5
72333.7
72055.9
71778
71500.2
71222.4
70944.6
70666.8
70389
70111.1
69833.3
69555.5
69277.7
68999.9
68722.1
68444.3
68166.6
67888.8
67611
67333.2
67055.4
66777.7
66499.9
66222.1
65944.4
65666.6
65388.9
65111.2
64833.4
64555.7
64278
64000.3
63722.6
63444.9
63167.2
62889.5
62611.9
62334.2
62056.6
61778.9
61501.3
61223.7
60946.1
60668.5
60390.9
60113.4
59835.8
59558.3
59280.8
59003.3
58725.8
58448.3
58170.9
57893.4
57616
57338.6
57061.2
56783.8
56506.4
56229.1
55951.7
55674.4
55397
55119.7
54842.4
54565
54287.7
54010.4
53733.1
53455.8
53178.5
52901.2
52623.9
52346.6
52069.3
51792
51514.7
51237.3
50960
50682.6
50405.3
50127.9
49850.5
49573.2
49295.8
49018.3
48740.9
48463.5
48186
47908.5
47631.1
47353.6
47076.1
46798.5
46521
46243.5
45965.9
45688.3
45410.8
45133.2
44855.6
44578
44300.4
44022.7
43745.1
43467.5
43189.8
42912.2
42634.5
42356.9
42079.2
41801.5
41523.8
41246.2
40968.5
40690.8
40413.1
40135.4
39857.7
39580
39302.3
39024.6
38746.9
38469.2
38191.5
37913.7
37636
37358.3
37080.6
36802.8
36525.1
36247.4
35969.6
35691.9
35414.1
35136.4
34858.6
34580.9
34303.1
34025.4
33747.6
33469.8
33192.1
32914.3
32636.5
32358.7
32080.9
31803.2
31525.4
31247.6
30969.8
30692
30414.2
30136.4
29858.6
29580.8
29303
29025.2
28747.4
28469.6
28191.8
27913.9
27636.1
27358.3
27080.5
26802.7
26524.8
26247
25969.2
25691.4
25413.5
25135.7
24857.9
24580
24302.2
24024.4
23746.5
23468.7
23190.9
22913
22635.2
22357.4
22079.5
21801.7
21523.9
21246
20968.2
20690.4
20412.5
20134.7
19856.8
19579
19301.2
19023.3
18745.5
18467.7
18189.8
17912
17634.2
17356.4
17078.5
16800.7
16522.9
16245.1
15967.2
15689.4
15411.6
15133.8
14856
14578.2
14300.4
14022.5
13744.7
13466.9
13189.1
12911.3
12633.5
12355.7
12078
11800.2
11522.4
11244.6
10966.8
10689
10411.3
10133.5
9855.73
9577.97
9300.21
9022.46
8744.71
8466.97
8189.23
7911.5
7633.78
7356.06
7078.35
6800.65
6522.95
6245.26
5967.58
5689.91
5412.25
5134.59
4856.95
4579.31
4301.69
4024.08
3746.48
3468.88
3191.3
2913.74
2636.18
2358.64
2081.1
1803.58
1526.08
1248.58
971.098
693.626
416.167
138.719
)
;

boundaryField
{
    inlet
    {
        type            darcyGradPressure;
        gradient        uniform 116344;
        Mf              Mf;
        phi             phi;
        value           uniform 216854;
    }
    outlet
    {
        type            fixedValue;
        value           uniform 0;
    }
    emptyWalls
    {
        type            empty;
    }
}


// ************************************************************************* //
