/*--------------------------------*- C++ -*----------------------------------*\
  =========                 |
  \\      /  F ield         | OpenFOAM: The Open Source CFD Toolbox
   \\    /   O peration     | Website:  https://openfoam.org
    \\  /    A nd           | Version:  9
     \\/     M anipulation  |
\*---------------------------------------------------------------------------*/
FoamFile
{
    format      ascii;
    class       surfaceScalarField;
    location    "14050";
    object      phia;
}
// * * * * * * * * * * * * * * * * * * * * * * * * * * * * * * * * * * * * * //

dimensions      [0 2 0 0 0 0 0];

internalField   nonuniform List<scalar> 
999
(
2.74903e-10
2.74823e-10
2.74825e-10
2.74741e-10
2.74692e-10
2.74614e-10
2.74522e-10
2.74421e-10
2.74313e-10
2.74197e-10
2.74085e-10
2.73969e-10
2.73874e-10
2.73742e-10
2.73684e-10
2.73503e-10
2.7322e-10
2.72098e-10
2.67437e-10
2.31267e-10
2.16107e-10
2.13425e-10
2.12183e-10
2.11323e-10
2.10643e-10
2.10071e-10
2.09578e-10
2.09139e-10
2.08746e-10
2.08387e-10
2.08061e-10
2.07759e-10
2.07481e-10
2.07223e-10
2.06984e-10
2.06759e-10
2.06551e-10
2.06352e-10
2.06168e-10
2.0599e-10
2.05825e-10
2.05665e-10
2.0551e-10
2.05364e-10
2.05228e-10
2.051e-10
2.04982e-10
2.04871e-10
2.04769e-10
2.04673e-10
2.04587e-10
2.0451e-10
2.04448e-10
2.04404e-10
2.04378e-10
2.04358e-10
2.04339e-10
2.04319e-10
2.04301e-10
2.04283e-10
2.04267e-10
2.04253e-10
2.04239e-10
2.04227e-10
2.04217e-10
2.04208e-10
2.04199e-10
2.04192e-10
2.04185e-10
2.04177e-10
2.04169e-10
2.04158e-10
2.04147e-10
2.04134e-10
2.04121e-10
2.0411e-10
2.04101e-10
2.04095e-10
2.04093e-10
2.04095e-10
2.041e-10
2.04107e-10
2.04114e-10
2.04119e-10
2.04121e-10
2.04121e-10
2.04122e-10
2.04133e-10
2.04161e-10
2.04214e-10
2.04298e-10
2.04415e-10
2.04567e-10
2.04751e-10
2.04961e-10
2.05192e-10
2.05438e-10
2.05692e-10
2.05948e-10
2.06198e-10
2.06435e-10
2.0665e-10
2.06835e-10
2.06979e-10
2.07075e-10
2.07115e-10
2.07093e-10
2.07009e-10
2.06862e-10
2.06657e-10
2.06404e-10
2.0611e-10
2.0579e-10
2.05455e-10
2.05119e-10
2.04792e-10
2.04485e-10
2.04205e-10
2.03957e-10
2.03744e-10
2.03567e-10
2.03425e-10
2.03315e-10
2.03233e-10
2.03175e-10
2.03136e-10
2.03112e-10
2.03098e-10
2.03089e-10
2.03084e-10
2.03079e-10
2.03071e-10
2.0306e-10
2.03044e-10
2.03023e-10
2.02997e-10
2.02965e-10
2.02928e-10
2.02887e-10
2.02842e-10
2.02794e-10
2.02743e-10
2.0269e-10
2.02635e-10
2.02578e-10
2.02521e-10
2.02463e-10
2.02405e-10
2.02346e-10
2.02288e-10
2.02229e-10
2.02171e-10
2.02113e-10
2.02056e-10
2.01999e-10
2.01942e-10
2.01887e-10
2.01832e-10
2.01777e-10
2.01724e-10
2.01671e-10
2.01619e-10
2.01568e-10
2.01518e-10
2.01469e-10
2.01421e-10
2.01374e-10
2.01328e-10
2.01283e-10
2.01239e-10
2.01196e-10
2.01154e-10
2.01113e-10
2.01073e-10
2.01034e-10
2.00996e-10
2.00959e-10
2.00924e-10
2.00889e-10
2.00855e-10
2.00822e-10
2.00791e-10
2.0076e-10
2.00731e-10
2.00702e-10
2.00675e-10
2.00648e-10
2.00623e-10
2.00599e-10
2.00576e-10
2.00553e-10
2.00532e-10
2.00512e-10
2.00493e-10
2.00474e-10
2.00456e-10
2.00439e-10
2.00422e-10
2.00405e-10
2.00388e-10
2.00372e-10
2.00356e-10
2.0034e-10
2.00324e-10
2.00309e-10
2.00295e-10
2.00281e-10
2.00268e-10
2.00255e-10
2.00244e-10
2.00233e-10
2.00222e-10
2.00212e-10
2.00203e-10
2.00195e-10
2.00187e-10
2.00181e-10
2.00177e-10
2.00176e-10
2.00178e-10
2.00186e-10
2.002e-10
2.00221e-10
2.00251e-10
2.00291e-10
2.00341e-10
2.00403e-10
2.00476e-10
2.00561e-10
2.00658e-10
2.00766e-10
2.00885e-10
2.01013e-10
2.01148e-10
2.01289e-10
2.01433e-10
2.01578e-10
2.01721e-10
2.01858e-10
2.01988e-10
2.02105e-10
2.02208e-10
2.02294e-10
2.02358e-10
2.02399e-10
2.02415e-10
2.02405e-10
2.02367e-10
2.02302e-10
2.02211e-10
2.02095e-10
2.01955e-10
2.01796e-10
2.0162e-10
2.01431e-10
2.01232e-10
2.01028e-10
2.00823e-10
2.00619e-10
2.00421e-10
2.0023e-10
2.00049e-10
1.99881e-10
1.99725e-10
1.99582e-10
1.99454e-10
1.99339e-10
1.99237e-10
1.99147e-10
1.99069e-10
1.99e-10
1.98941e-10
1.98888e-10
1.98842e-10
1.988e-10
1.98763e-10
1.98727e-10
1.98694e-10
1.98661e-10
1.98629e-10
1.98596e-10
1.98562e-10
1.98527e-10
1.98491e-10
1.98453e-10
1.98414e-10
1.98373e-10
1.9833e-10
1.98286e-10
1.98241e-10
1.98194e-10
1.98147e-10
1.98098e-10
1.98049e-10
1.97999e-10
1.97949e-10
1.97898e-10
1.97847e-10
1.97796e-10
1.97745e-10
1.97694e-10
1.97643e-10
1.97593e-10
1.97542e-10
1.97492e-10
1.97442e-10
1.97393e-10
1.97343e-10
1.97295e-10
1.97246e-10
1.97199e-10
1.97151e-10
1.97105e-10
1.97058e-10
1.97013e-10
1.96967e-10
1.96923e-10
1.96879e-10
1.96835e-10
1.96792e-10
1.9675e-10
1.96708e-10
1.96667e-10
1.96626e-10
1.96587e-10
1.96547e-10
1.96509e-10
1.96471e-10
1.96433e-10
1.96397e-10
1.96361e-10
1.96326e-10
1.96291e-10
1.96257e-10
1.96224e-10
1.96191e-10
1.9616e-10
1.96128e-10
1.96098e-10
1.96068e-10
1.96039e-10
1.96011e-10
1.95983e-10
1.95956e-10
1.9593e-10
1.95904e-10
1.95879e-10
1.95854e-10
1.9583e-10
1.95807e-10
1.95784e-10
1.95761e-10
1.95739e-10
1.95717e-10
1.95695e-10
1.95674e-10
1.95653e-10
1.95633e-10
1.95613e-10
1.95593e-10
1.95573e-10
1.95554e-10
1.95535e-10
1.95517e-10
1.95498e-10
1.95481e-10
1.95463e-10
1.95447e-10
1.95431e-10
1.95415e-10
1.95401e-10
1.95387e-10
1.95375e-10
1.95364e-10
1.95355e-10
1.95349e-10
1.95344e-10
1.95343e-10
1.95345e-10
1.9535e-10
1.9536e-10
1.95374e-10
1.95393e-10
1.95417e-10
1.95447e-10
1.95482e-10
1.95524e-10
1.95571e-10
1.95624e-10
1.95683e-10
1.95748e-10
1.95818e-10
1.95893e-10
1.95972e-10
1.96054e-10
1.96139e-10
1.96226e-10
1.96313e-10
1.964e-10
1.96484e-10
1.96566e-10
1.96644e-10
1.96716e-10
1.96781e-10
1.96838e-10
1.96885e-10
1.96921e-10
1.96946e-10
1.96958e-10
1.96956e-10
1.96941e-10
1.96911e-10
1.96867e-10
1.96809e-10
1.96737e-10
1.96652e-10
1.96555e-10
1.96446e-10
1.96327e-10
1.962e-10
1.96065e-10
1.95925e-10
1.95781e-10
1.95634e-10
1.95487e-10
1.9534e-10
1.95194e-10
1.95052e-10
1.94914e-10
1.9478e-10
1.94652e-10
1.94531e-10
1.94415e-10
1.94307e-10
1.94205e-10
1.9411e-10
1.94021e-10
1.93938e-10
1.93862e-10
1.9379e-10
1.93724e-10
1.93662e-10
1.93604e-10
1.93549e-10
1.93498e-10
1.93449e-10
1.93401e-10
1.93356e-10
1.93311e-10
1.93268e-10
1.93225e-10
1.93182e-10
1.9314e-10
1.93097e-10
1.93054e-10
1.9301e-10
1.92966e-10
1.92922e-10
1.92877e-10
1.92831e-10
1.92785e-10
1.92738e-10
1.9269e-10
1.92642e-10
1.92593e-10
1.92544e-10
1.92494e-10
1.92444e-10
1.92394e-10
1.92343e-10
1.92292e-10
1.92241e-10
1.9219e-10
1.92138e-10
1.92087e-10
1.92036e-10
1.91984e-10
1.91933e-10
1.91881e-10
1.9183e-10
1.91779e-10
1.91728e-10
1.91677e-10
1.91626e-10
1.91575e-10
1.91525e-10
1.91474e-10
1.91424e-10
1.91375e-10
1.91325e-10
1.91276e-10
1.91227e-10
1.91178e-10
1.9113e-10
1.91082e-10
1.91034e-10
1.90987e-10
1.9094e-10
1.90893e-10
1.90847e-10
1.90801e-10
1.90756e-10
1.90711e-10
1.90666e-10
1.90622e-10
1.90578e-10
1.90535e-10
1.90492e-10
1.9045e-10
1.90408e-10
1.90367e-10
1.90326e-10
1.90286e-10
1.90246e-10
1.90207e-10
1.90168e-10
1.9013e-10
1.90093e-10
1.90056e-10
1.90019e-10
1.89983e-10
1.89948e-10
1.89914e-10
1.89879e-10
1.89846e-10
1.89814e-10
1.89781e-10
1.89751e-10
1.8972e-10
1.89691e-10
1.89663e-10
1.89636e-10
1.8961e-10
1.89586e-10
1.89563e-10
1.89541e-10
1.89522e-10
1.89503e-10
1.89487e-10
1.89474e-10
1.89461e-10
1.89452e-10
1.89445e-10
1.89439e-10
1.89436e-10
1.89436e-10
1.89438e-10
1.89441e-10
1.89448e-10
1.89455e-10
1.89466e-10
1.89476e-10
1.8949e-10
1.89503e-10
1.89515e-10
1.89524e-10
1.89521e-10
1.89506e-10
1.89455e-10
1.89355e-10
1.8916e-10
1.88836e-10
1.8834e-10
1.87685e-10
1.86988e-10
1.86397e-10
1.86029e-10
1.85846e-10
1.85788e-10
1.85794e-10
1.85826e-10
1.85882e-10
1.85942e-10
1.86009e-10
1.86079e-10
1.86152e-10
1.86229e-10
1.86307e-10
1.86387e-10
1.86468e-10
1.8655e-10
1.86632e-10
1.86715e-10
1.86797e-10
1.86878e-10
1.86957e-10
1.87034e-10
1.87109e-10
1.8718e-10
1.87248e-10
1.87312e-10
1.87371e-10
1.87425e-10
1.87474e-10
1.87516e-10
1.87552e-10
1.8758e-10
1.876e-10
1.87612e-10
1.87617e-10
1.87618e-10
1.87618e-10
1.87611e-10
1.87584e-10
1.87552e-10
1.87514e-10
1.87471e-10
1.87421e-10
1.87366e-10
1.87307e-10
1.87242e-10
1.87175e-10
1.87104e-10
1.8703e-10
1.86955e-10
1.86878e-10
1.86801e-10
1.86724e-10
1.86647e-10
1.86571e-10
1.86497e-10
1.86425e-10
1.86355e-10
1.86287e-10
1.86223e-10
1.86162e-10
1.86104e-10
1.86049e-10
1.85998e-10
1.8595e-10
1.85905e-10
1.85864e-10
1.85826e-10
1.85791e-10
1.85759e-10
1.85729e-10
1.85702e-10
1.85678e-10
1.85655e-10
1.85635e-10
1.85616e-10
1.85598e-10
1.85582e-10
1.85567e-10
1.85553e-10
1.85539e-10
1.85527e-10
1.85514e-10
1.85502e-10
1.8549e-10
1.85478e-10
1.85466e-10
1.85455e-10
1.85443e-10
1.8543e-10
1.85418e-10
1.85405e-10
1.85392e-10
1.85379e-10
1.85366e-10
1.85352e-10
1.85338e-10
1.85324e-10
1.85309e-10
1.85295e-10
1.8528e-10
1.85265e-10
1.85249e-10
1.85234e-10
1.85219e-10
1.85203e-10
1.85188e-10
1.85172e-10
1.85157e-10
1.85142e-10
1.85126e-10
1.85111e-10
1.85096e-10
1.85081e-10
1.85067e-10
1.85052e-10
1.85038e-10
1.85024e-10
1.8501e-10
1.84996e-10
1.84983e-10
1.8497e-10
1.84957e-10
1.84945e-10
1.84933e-10
1.84921e-10
1.8491e-10
1.84899e-10
1.84889e-10
1.84878e-10
1.84869e-10
1.84859e-10
1.8485e-10
1.84841e-10
1.84833e-10
1.84825e-10
1.84818e-10
1.84811e-10
1.84805e-10
1.84799e-10
1.84793e-10
1.84788e-10
1.84784e-10
1.84779e-10
1.84776e-10
1.84773e-10
1.8477e-10
1.84768e-10
1.84766e-10
1.84765e-10
1.84765e-10
1.84764e-10
1.84764e-10
1.84764e-10
1.84765e-10
1.84767e-10
1.84769e-10
1.84772e-10
1.84775e-10
1.84778e-10
1.84782e-10
1.84787e-10
1.84792e-10
1.84797e-10
1.84803e-10
1.84809e-10
1.84815e-10
1.84822e-10
1.8483e-10
1.84837e-10
1.84845e-10
1.84854e-10
1.84862e-10
1.84871e-10
1.84881e-10
1.84891e-10
1.84901e-10
1.84911e-10
1.84922e-10
1.84934e-10
1.84946e-10
1.84958e-10
1.84971e-10
1.84984e-10
1.84998e-10
1.85013e-10
1.85028e-10
1.85044e-10
1.8506e-10
1.85078e-10
1.85097e-10
1.85116e-10
1.85137e-10
1.85158e-10
1.85182e-10
1.85206e-10
1.85232e-10
1.85259e-10
1.85288e-10
1.85319e-10
1.85352e-10
1.85387e-10
1.85423e-10
1.85462e-10
1.85503e-10
1.85546e-10
1.85591e-10
1.85639e-10
1.85688e-10
1.85741e-10
1.85795e-10
1.85851e-10
1.8591e-10
1.8597e-10
1.86033e-10
1.86097e-10
1.86163e-10
1.86231e-10
1.86299e-10
1.86369e-10
1.86439e-10
1.8651e-10
1.86581e-10
1.86652e-10
1.86723e-10
1.86792e-10
1.86861e-10
1.86928e-10
1.86993e-10
1.87056e-10
1.87115e-10
1.87172e-10
1.87226e-10
1.87275e-10
1.8732e-10
1.87361e-10
1.87397e-10
1.87427e-10
1.87453e-10
1.87472e-10
1.87486e-10
1.87494e-10
1.87497e-10
1.87497e-10
1.87497e-10
1.8749e-10
1.87467e-10
1.87441e-10
1.87408e-10
1.87371e-10
1.87329e-10
1.87283e-10
1.87232e-10
1.87178e-10
1.87121e-10
1.8706e-10
1.86998e-10
1.86934e-10
1.86869e-10
1.86802e-10
1.86735e-10
1.86669e-10
1.86602e-10
1.86537e-10
1.86472e-10
1.86409e-10
1.86348e-10
1.86289e-10
1.86231e-10
1.86176e-10
1.86124e-10
1.86073e-10
1.86026e-10
1.85981e-10
1.85938e-10
1.85898e-10
1.8586e-10
1.85825e-10
1.85791e-10
1.8576e-10
1.85731e-10
1.85704e-10
1.85678e-10
1.85654e-10
1.85632e-10
1.85611e-10
1.85591e-10
1.85571e-10
1.85553e-10
1.85536e-10
1.85519e-10
1.85503e-10
1.85487e-10
1.85471e-10
1.85456e-10
1.85441e-10
1.85426e-10
1.85411e-10
1.85397e-10
1.85382e-10
1.85367e-10
1.85353e-10
1.85338e-10
1.85323e-10
1.85308e-10
1.85294e-10
1.85279e-10
1.85264e-10
1.85249e-10
1.85234e-10
1.8522e-10
1.85205e-10
1.8519e-10
1.85176e-10
1.85161e-10
1.85147e-10
1.85133e-10
1.85119e-10
1.85105e-10
1.85092e-10
1.85078e-10
1.85065e-10
1.85052e-10
1.8504e-10
1.85028e-10
1.85016e-10
1.85004e-10
1.84993e-10
1.84982e-10
1.84971e-10
1.84961e-10
1.84951e-10
1.84941e-10
1.84932e-10
1.84923e-10
1.84914e-10
1.84906e-10
1.84898e-10
1.84891e-10
1.84884e-10
1.84877e-10
1.84871e-10
1.84865e-10
1.84859e-10
1.84854e-10
1.8485e-10
1.84845e-10
1.84842e-10
1.84838e-10
1.84835e-10
1.84833e-10
1.8483e-10
1.84829e-10
1.84827e-10
1.84826e-10
1.84826e-10
1.84826e-10
1.84826e-10
1.84826e-10
1.84826e-10
1.84828e-10
1.8483e-10
1.84832e-10
1.84835e-10
1.84838e-10
1.84841e-10
1.84845e-10
1.8485e-10
1.84854e-10
1.84859e-10
1.84864e-10
1.8487e-10
1.84876e-10
1.84882e-10
1.84889e-10
1.84896e-10
1.84903e-10
1.84911e-10
1.84919e-10
1.84928e-10
1.84937e-10
1.84946e-10
1.84955e-10
1.84965e-10
1.84975e-10
1.84986e-10
1.84998e-10
1.85009e-10
1.85021e-10
1.85034e-10
1.85048e-10
1.85062e-10
1.85076e-10
1.85092e-10
1.85108e-10
1.85125e-10
1.85143e-10
1.85162e-10
1.85182e-10
1.85203e-10
1.85225e-10
1.85249e-10
1.85274e-10
1.853e-10
1.85328e-10
1.85357e-10
1.85388e-10
1.8542e-10
1.85454e-10
1.8549e-10
1.85527e-10
1.85567e-10
1.85608e-10
1.85651e-10
1.85695e-10
1.85742e-10
1.8579e-10
1.85841e-10
1.85891e-10
1.85945e-10
1.85999e-10
1.86056e-10
1.86112e-10
1.86171e-10
1.8623e-10
1.86291e-10
1.8635e-10
1.86412e-10
1.86472e-10
1.86534e-10
1.86594e-10
1.86654e-10
1.86713e-10
1.86771e-10
)
;

boundaryField
{
    inlet
    {
        type            calculated;
        value           uniform -2.74882e-10;
    }
    outlet
    {
        type            calculated;
        value           uniform 1.86827e-10;
    }
    emptyWalls
    {
        type            empty;
        value           nonuniform List<scalar> 0();
    }
}


// ************************************************************************* //
