/*--------------------------------*- C++ -*----------------------------------*\
  =========                 |
  \\      /  F ield         | OpenFOAM: The Open Source CFD Toolbox
   \\    /   O peration     | Website:  https://openfoam.org
    \\  /    A nd           | Version:  9
     \\/     M anipulation  |
\*---------------------------------------------------------------------------*/
FoamFile
{
    format      ascii;
    class       volScalarField;
    location    "14050";
    object      Sa;
}
// * * * * * * * * * * * * * * * * * * * * * * * * * * * * * * * * * * * * * //

dimensions      [0 0 0 0 0 0 0];

internalField   nonuniform List<scalar> 
1000
(
0.549284
0.547468
0.545357
0.54318
0.541082
0.538961
0.536857
0.534758
0.532716
0.530732
0.528872
0.527149
0.525603
0.524251
0.523021
0.521933
0.520103
0.515289
0.497248
0.396408
0.141536
0.0809112
0.0638995
0.0559632
0.0510182
0.0474285
0.0445997
0.0422636
0.0402799
0.038567
0.037072
0.0357563
0.034591
0.0335513
0.0326189
0.0317756
0.031008
0.0303065
0.02966
0.0290647
0.0285102
0.0279962
0.0275019
0.0270397
0.026613
0.0262195
0.0258583
0.0255262
0.025222
0.0249432
0.0246902
0.0244653
0.0242767
0.0241342
0.0240418
0.0239822
0.023925
0.0238656
0.023805
0.0237438
0.0236824
0.0236212
0.0235603
0.0234998
0.0234398
0.0233805
0.0233217
0.0232635
0.0232059
0.0231489
0.0230925
0.0230365
0.0229811
0.0229261
0.0228717
0.0228178
0.0227647
0.0227124
0.0226607
0.0226099
0.0225599
0.0225105
0.0224617
0.0224134
0.0223653
0.0223176
0.0222703
0.0222238
0.0221785
0.022135
0.0220936
0.0220547
0.0220183
0.0219843
0.0219525
0.0219224
0.0218939
0.0218663
0.0218393
0.0218126
0.0217856
0.0217579
0.021729
0.0216983
0.0216653
0.0216295
0.0215906
0.0215483
0.0215026
0.0214537
0.021402
0.0213481
0.0212926
0.0212362
0.0211797
0.0211238
0.0210692
0.0210163
0.0209654
0.0209168
0.0208707
0.0208269
0.0207853
0.0207458
0.020708
0.0206717
0.0206367
0.0206026
0.0205692
0.0205363
0.0205037
0.0204713
0.0204389
0.0204065
0.0203741
0.0203416
0.020309
0.0202763
0.0202436
0.0202108
0.0201781
0.0201454
0.0201128
0.0200803
0.0200479
0.0200157
0.0199836
0.0199517
0.0199199
0.0198884
0.019857
0.0198258
0.0197949
0.0197641
0.0197336
0.0197032
0.0196731
0.0196432
0.0196135
0.019584
0.0195547
0.0195256
0.0194968
0.0194681
0.0194397
0.0194115
0.0193835
0.0193557
0.0193281
0.0193007
0.0192735
0.0192465
0.0192197
0.0191931
0.0191667
0.0191405
0.0191145
0.0190887
0.0190631
0.0190377
0.0190125
0.0189874
0.0189626
0.0189379
0.0189134
0.0188891
0.0188649
0.018841
0.0188172
0.0187936
0.0187701
0.0187469
0.0187238
0.0187008
0.0186781
0.0186554
0.0186329
0.0186106
0.0185884
0.0185663
0.0185443
0.0185224
0.0185006
0.018479
0.0184575
0.0184361
0.0184148
0.0183937
0.0183727
0.0183518
0.0183311
0.0183105
0.01829
0.0182697
0.0182495
0.0182294
0.0182094
0.0181897
0.0181701
0.0181508
0.0181318
0.0181132
0.018095
0.0180774
0.0180602
0.0180437
0.0180278
0.0180125
0.0179979
0.017984
0.0179708
0.0179582
0.0179461
0.0179345
0.0179233
0.0179124
0.0179017
0.0178909
0.0178801
0.017869
0.0178575
0.0178453
0.0178324
0.0178186
0.0178038
0.0177878
0.0177706
0.0177522
0.0177324
0.0177114
0.0176892
0.0176659
0.0176416
0.0176164
0.0175906
0.0175643
0.0175378
0.0175111
0.0174845
0.0174582
0.0174323
0.0174069
0.0173821
0.017358
0.0173346
0.017312
0.0172901
0.0172689
0.0172484
0.0172286
0.0172093
0.0171906
0.0171723
0.0171544
0.0171368
0.0171195
0.0171023
0.0170854
0.0170685
0.0170518
0.0170351
0.0170184
0.0170017
0.016985
0.0169683
0.0169515
0.0169348
0.016918
0.0169012
0.0168844
0.0168676
0.0168507
0.0168339
0.0168171
0.0168003
0.0167835
0.0167668
0.0167501
0.0167334
0.0167168
0.0167002
0.0166837
0.0166672
0.0166508
0.0166344
0.0166182
0.0166019
0.0165858
0.0165697
0.0165537
0.0165377
0.0165219
0.016506
0.0164903
0.0164745
0.016459
0.0164434
0.0164279
0.0164125
0.0163971
0.0163819
0.0163666
0.0163515
0.0163364
0.0163214
0.0163065
0.0162917
0.0162769
0.0162621
0.0162475
0.0162329
0.0162184
0.016204
0.0161896
0.0161753
0.016161
0.0161469
0.0161328
0.0161187
0.0161048
0.0160909
0.0160771
0.0160633
0.0160496
0.016036
0.0160224
0.0160089
0.0159954
0.015982
0.0159687
0.0159554
0.0159422
0.015929
0.0159159
0.0159028
0.0158898
0.0158768
0.0158639
0.015851
0.0158381
0.0158253
0.0158126
0.0157999
0.0157872
0.0157746
0.015762
0.0157495
0.015737
0.0157246
0.0157122
0.0156999
0.0156877
0.0156755
0.0156635
0.0156515
0.0156396
0.0156279
0.0156163
0.0156049
0.0155937
0.0155827
0.0155719
0.0155613
0.015551
0.0155409
0.0155311
0.0155216
0.0155124
0.0155034
0.0154948
0.0154864
0.0154783
0.0154705
0.0154628
0.0154553
0.015448
0.0154408
0.0154337
0.0154266
0.0154194
0.0154122
0.0154048
0.0153972
0.0153894
0.0153812
0.0153726
0.0153636
0.0153542
0.0153442
0.0153336
0.0153225
0.0153108
0.0152984
0.0152855
0.0152719
0.0152578
0.0152431
0.015228
0.0152124
0.0151964
0.0151801
0.0151635
0.0151468
0.0151299
0.015113
0.0150961
0.0150792
0.0150625
0.015046
0.0150297
0.0150136
0.0149978
0.0149823
0.0149672
0.0149523
0.0149377
0.0149235
0.0149095
0.0148958
0.0148824
0.0148692
0.0148563
0.0148435
0.0148309
0.0148185
0.0148062
0.014794
0.0147819
0.0147699
0.0147579
0.014746
0.0147341
0.0147222
0.0147103
0.0146985
0.0146866
0.0146747
0.0146628
0.0146509
0.014639
0.0146271
0.0146152
0.0146032
0.0145912
0.0145792
0.0145672
0.0145552
0.0145432
0.0145312
0.0145192
0.0145072
0.0144951
0.0144831
0.0144711
0.0144591
0.0144471
0.0144351
0.0144231
0.0144111
0.0143991
0.0143872
0.0143752
0.0143633
0.0143513
0.0143394
0.0143275
0.0143156
0.0143038
0.0142919
0.0142801
0.0142682
0.0142565
0.0142446
0.0142329
0.0142211
0.0142094
0.0141976
0.014186
0.0141742
0.0141627
0.0141509
0.0141394
0.0141277
0.0141161
0.0141046
0.014093
0.0140815
0.01407
0.0140586
0.0140471
0.0140357
0.0140243
0.014013
0.0140016
0.0139903
0.0139791
0.0139678
0.0139567
0.0139455
0.0139344
0.0139234
0.0139124
0.0139015
0.0138906
0.0138799
0.0138693
0.0138587
0.0138483
0.0138381
0.013828
0.0138181
0.0138085
0.0137991
0.01379
0.0137812
0.0137727
0.0137647
0.0137571
0.0137499
0.0137432
0.0137371
0.0137314
0.0137263
0.0137218
0.0137177
0.0137142
0.0137112
0.0137087
0.0137065
0.013705
0.0137034
0.0137026
0.0137012
0.0137007
0.0136985
0.0136966
0.0136916
0.0136837
0.0136685
0.0136416
0.0135956
0.0135181
0.0133998
0.0132335
0.0130374
0.012848
0.0127047
0.0126188
0.0125741
0.012555
0.0125461
0.0125438
0.012544
0.0125451
0.0125472
0.0125496
0.0125524
0.0125552
0.0125583
0.0125613
0.0125644
0.0125676
0.0125707
0.0125738
0.0125769
0.01258
0.012583
0.0125859
0.0125887
0.0125914
0.0125939
0.0125962
0.0125984
0.0126003
0.0126021
0.0126036
0.0126048
0.0126057
0.0126063
0.0126066
0.0126067
0.0126067
0.0126065
0.012606
0.0126049
0.0126035
0.012602
0.0126002
0.0125982
0.012596
0.0125937
0.0125911
0.0125885
0.0125857
0.0125829
0.01258
0.012577
0.0125741
0.0125711
0.0125682
0.0125653
0.0125625
0.0125598
0.0125572
0.0125547
0.0125523
0.01255
0.0125478
0.0125458
0.0125439
0.0125421
0.0125405
0.012539
0.0125376
0.0125363
0.0125351
0.0125341
0.0125331
0.0125322
0.0125313
0.0125306
0.0125299
0.0125293
0.0125287
0.0125281
0.0125276
0.0125271
0.0125266
0.0125261
0.0125257
0.0125252
0.0125247
0.0125243
0.0125238
0.0125234
0.0125229
0.0125224
0.0125219
0.0125214
0.0125209
0.0125204
0.0125199
0.0125193
0.0125188
0.0125182
0.0125177
0.0125171
0.0125165
0.0125159
0.0125153
0.0125147
0.0125141
0.0125136
0.012513
0.0125124
0.0125118
0.0125112
0.0125106
0.0125101
0.0125095
0.0125089
0.0125084
0.0125078
0.0125073
0.0125068
0.0125063
0.0125058
0.0125053
0.0125048
0.0125043
0.0125039
0.0125034
0.012503
0.0125026
0.0125022
0.0125018
0.0125014
0.0125011
0.0125008
0.0125004
0.0125001
0.0124998
0.0124996
0.0124993
0.0124991
0.0124988
0.0124986
0.0124985
0.0124983
0.0124981
0.012498
0.0124979
0.0124978
0.0124977
0.0124977
0.0124977
0.0124976
0.0124976
0.0124976
0.0124977
0.0124977
0.0124978
0.0124979
0.012498
0.0124981
0.0124983
0.0124984
0.0124986
0.0124988
0.012499
0.0124992
0.0124995
0.0124997
0.0125
0.0125003
0.0125006
0.0125009
0.0125012
0.0125016
0.0125019
0.0125023
0.0125027
0.0125031
0.0125035
0.0125039
0.0125044
0.0125048
0.0125053
0.0125058
0.0125063
0.0125069
0.0125074
0.012508
0.0125087
0.0125093
0.01251
0.0125107
0.0125115
0.0125123
0.0125132
0.0125141
0.012515
0.0125161
0.0125171
0.0125183
0.0125195
0.0125208
0.0125222
0.0125236
0.0125251
0.0125267
0.0125284
0.0125302
0.012532
0.012534
0.012536
0.0125381
0.0125403
0.0125426
0.012545
0.0125474
0.0125499
0.0125524
0.012555
0.0125577
0.0125604
0.0125631
0.0125658
0.0125685
0.0125712
0.0125739
0.0125765
0.0125791
0.0125816
0.0125841
0.0125864
0.0125886
0.0125907
0.0125927
0.0125945
0.0125962
0.0125976
0.0125989
0.0126
0.0126008
0.0126015
0.0126019
0.0126021
0.0126021
0.0126021
0.0126019
0.0126014
0.0126005
0.0125994
0.012598
0.0125965
0.0125948
0.012593
0.012591
0.0125888
0.0125866
0.0125843
0.0125818
0.0125794
0.0125769
0.0125743
0.0125718
0.0125692
0.0125667
0.0125642
0.0125618
0.0125594
0.0125571
0.0125549
0.0125527
0.0125506
0.0125487
0.0125468
0.012545
0.0125434
0.0125418
0.0125403
0.0125389
0.0125376
0.0125363
0.0125352
0.0125341
0.0125331
0.0125322
0.0125313
0.0125304
0.0125296
0.0125289
0.0125282
0.0125275
0.0125268
0.0125262
0.0125256
0.012525
0.0125244
0.0125238
0.0125233
0.0125227
0.0125221
0.0125216
0.012521
0.0125204
0.0125199
0.0125193
0.0125188
0.0125182
0.0125176
0.0125171
0.0125165
0.0125159
0.0125154
0.0125148
0.0125142
0.0125137
0.0125131
0.0125126
0.012512
0.0125115
0.012511
0.0125104
0.0125099
0.0125094
0.0125089
0.0125084
0.012508
0.0125075
0.012507
0.0125066
0.0125062
0.0125058
0.0125053
0.012505
0.0125046
0.0125042
0.0125039
0.0125035
0.0125032
0.0125029
0.0125026
0.0125023
0.0125021
0.0125018
0.0125016
0.0125014
0.0125012
0.012501
0.0125008
0.0125007
0.0125005
0.0125004
0.0125003
0.0125002
0.0125001
0.0125001
0.0125
0.0125
0.0125
0.0125
0.0125
0.0125
0.0125
0.0125001
0.0125002
0.0125003
0.0125004
0.0125005
0.0125007
0.0125008
0.012501
0.0125012
0.0125014
0.0125016
0.0125018
0.012502
0.0125023
0.0125025
0.0125028
0.0125031
0.0125034
0.0125037
0.0125041
0.0125044
0.0125048
0.0125051
0.0125055
0.0125059
0.0125064
0.0125068
0.0125072
0.0125077
0.0125082
0.0125088
0.0125093
0.0125099
0.0125105
0.0125111
0.0125118
0.0125125
0.0125132
0.012514
0.0125149
0.0125157
0.0125167
0.0125176
0.0125187
0.0125198
0.0125209
0.0125221
0.0125234
0.0125247
0.0125261
0.0125276
0.0125291
0.0125307
0.0125324
0.0125341
0.012536
0.0125377
0.0125399
0.0125416
0.0125441
0.0125456
0.0125485
0.0125499
0.012553
0.0125544
0.0125577
0.0125589
0.0125624
0.0125635
0.0125671
0.0125681
0.0125717
0.0125726
0.012577
)
;

boundaryField
{
    inlet
    {
        type            fixedValue;
        value           uniform 0.55;
    }
    outlet
    {
        type            zeroGradient;
    }
    emptyWalls
    {
        type            empty;
    }
}


// ************************************************************************* //
