/*--------------------------------*- C++ -*----------------------------------*\
  =========                 |
  \\      /  F ield         | OpenFOAM: The Open Source CFD Toolbox
   \\    /   O peration     | Website:  https://openfoam.org
    \\  /    A nd           | Version:  9
     \\/     M anipulation  |
\*---------------------------------------------------------------------------*/
FoamFile
{
    format      ascii;
    class       volVectorField;
    location    "14050";
    object      Ua;
}
// * * * * * * * * * * * * * * * * * * * * * * * * * * * * * * * * * * * * * //

dimensions      [0 0 0 0 0 0 0];

internalField   nonuniform List<vector> 
1000
(
(2.74915e-06 0 0)
(2.74863e-06 0 0)
(2.74824e-06 0 0)
(2.74783e-06 0 0)
(2.74716e-06 0 0)
(2.74653e-06 0 0)
(2.74568e-06 0 0)
(2.74472e-06 0 0)
(2.74367e-06 0 0)
(2.74255e-06 0 0)
(2.74141e-06 0 0)
(2.74027e-06 0 0)
(2.73922e-06 0 0)
(2.73808e-06 0 0)
(2.73713e-06 0 0)
(2.73594e-06 0 0)
(2.73362e-06 0 0)
(2.72659e-06 0 0)
(2.69767e-06 0 0)
(2.49352e-06 0 0)
(2.23687e-06 0 0)
(2.14766e-06 0 0)
(2.12804e-06 0 0)
(2.11753e-06 0 0)
(2.10983e-06 0 0)
(2.10357e-06 0 0)
(2.09825e-06 0 0)
(2.09359e-06 0 0)
(2.08943e-06 0 0)
(2.08567e-06 0 0)
(2.08224e-06 0 0)
(2.0791e-06 0 0)
(2.0762e-06 0 0)
(2.07352e-06 0 0)
(2.07104e-06 0 0)
(2.06871e-06 0 0)
(2.06655e-06 0 0)
(2.06451e-06 0 0)
(2.0626e-06 0 0)
(2.06079e-06 0 0)
(2.05908e-06 0 0)
(2.05745e-06 0 0)
(2.05588e-06 0 0)
(2.05437e-06 0 0)
(2.05296e-06 0 0)
(2.05164e-06 0 0)
(2.05041e-06 0 0)
(2.04927e-06 0 0)
(2.0482e-06 0 0)
(2.04721e-06 0 0)
(2.0463e-06 0 0)
(2.04548e-06 0 0)
(2.04479e-06 0 0)
(2.04426e-06 0 0)
(2.04391e-06 0 0)
(2.04368e-06 0 0)
(2.04349e-06 0 0)
(2.04329e-06 0 0)
(2.0431e-06 0 0)
(2.04292e-06 0 0)
(2.04275e-06 0 0)
(2.0426e-06 0 0)
(2.04246e-06 0 0)
(2.04233e-06 0 0)
(2.04222e-06 0 0)
(2.04212e-06 0 0)
(2.04203e-06 0 0)
(2.04196e-06 0 0)
(2.04188e-06 0 0)
(2.04181e-06 0 0)
(2.04173e-06 0 0)
(2.04164e-06 0 0)
(2.04152e-06 0 0)
(2.0414e-06 0 0)
(2.04127e-06 0 0)
(2.04115e-06 0 0)
(2.04105e-06 0 0)
(2.04098e-06 0 0)
(2.04094e-06 0 0)
(2.04094e-06 0 0)
(2.04097e-06 0 0)
(2.04103e-06 0 0)
(2.04111e-06 0 0)
(2.04117e-06 0 0)
(2.0412e-06 0 0)
(2.04121e-06 0 0)
(2.04121e-06 0 0)
(2.04128e-06 0 0)
(2.04147e-06 0 0)
(2.04188e-06 0 0)
(2.04256e-06 0 0)
(2.04356e-06 0 0)
(2.04491e-06 0 0)
(2.04659e-06 0 0)
(2.04856e-06 0 0)
(2.05077e-06 0 0)
(2.05315e-06 0 0)
(2.05565e-06 0 0)
(2.0582e-06 0 0)
(2.06073e-06 0 0)
(2.06316e-06 0 0)
(2.06542e-06 0 0)
(2.06742e-06 0 0)
(2.06907e-06 0 0)
(2.07027e-06 0 0)
(2.07095e-06 0 0)
(2.07104e-06 0 0)
(2.07051e-06 0 0)
(2.06935e-06 0 0)
(2.0676e-06 0 0)
(2.06531e-06 0 0)
(2.06257e-06 0 0)
(2.0595e-06 0 0)
(2.05623e-06 0 0)
(2.05287e-06 0 0)
(2.04956e-06 0 0)
(2.04638e-06 0 0)
(2.04345e-06 0 0)
(2.04081e-06 0 0)
(2.0385e-06 0 0)
(2.03655e-06 0 0)
(2.03496e-06 0 0)
(2.0337e-06 0 0)
(2.03274e-06 0 0)
(2.03204e-06 0 0)
(2.03155e-06 0 0)
(2.03124e-06 0 0)
(2.03105e-06 0 0)
(2.03094e-06 0 0)
(2.03087e-06 0 0)
(2.03082e-06 0 0)
(2.03075e-06 0 0)
(2.03066e-06 0 0)
(2.03052e-06 0 0)
(2.03034e-06 0 0)
(2.0301e-06 0 0)
(2.02981e-06 0 0)
(2.02947e-06 0 0)
(2.02908e-06 0 0)
(2.02865e-06 0 0)
(2.02818e-06 0 0)
(2.02769e-06 0 0)
(2.02716e-06 0 0)
(2.02662e-06 0 0)
(2.02606e-06 0 0)
(2.0255e-06 0 0)
(2.02492e-06 0 0)
(2.02434e-06 0 0)
(2.02375e-06 0 0)
(2.02317e-06 0 0)
(2.02258e-06 0 0)
(2.022e-06 0 0)
(2.02142e-06 0 0)
(2.02084e-06 0 0)
(2.02027e-06 0 0)
(2.01971e-06 0 0)
(2.01915e-06 0 0)
(2.01859e-06 0 0)
(2.01804e-06 0 0)
(2.01751e-06 0 0)
(2.01697e-06 0 0)
(2.01645e-06 0 0)
(2.01594e-06 0 0)
(2.01543e-06 0 0)
(2.01494e-06 0 0)
(2.01445e-06 0 0)
(2.01398e-06 0 0)
(2.01351e-06 0 0)
(2.01306e-06 0 0)
(2.01261e-06 0 0)
(2.01217e-06 0 0)
(2.01175e-06 0 0)
(2.01133e-06 0 0)
(2.01093e-06 0 0)
(2.01053e-06 0 0)
(2.01015e-06 0 0)
(2.00978e-06 0 0)
(2.00941e-06 0 0)
(2.00906e-06 0 0)
(2.00872e-06 0 0)
(2.00839e-06 0 0)
(2.00807e-06 0 0)
(2.00776e-06 0 0)
(2.00746e-06 0 0)
(2.00717e-06 0 0)
(2.00689e-06 0 0)
(2.00662e-06 0 0)
(2.00636e-06 0 0)
(2.00611e-06 0 0)
(2.00587e-06 0 0)
(2.00564e-06 0 0)
(2.00543e-06 0 0)
(2.00522e-06 0 0)
(2.00502e-06 0 0)
(2.00483e-06 0 0)
(2.00465e-06 0 0)
(2.00447e-06 0 0)
(2.0043e-06 0 0)
(2.00413e-06 0 0)
(2.00397e-06 0 0)
(2.0038e-06 0 0)
(2.00364e-06 0 0)
(2.00348e-06 0 0)
(2.00332e-06 0 0)
(2.00317e-06 0 0)
(2.00302e-06 0 0)
(2.00288e-06 0 0)
(2.00274e-06 0 0)
(2.00262e-06 0 0)
(2.0025e-06 0 0)
(2.00238e-06 0 0)
(2.00227e-06 0 0)
(2.00217e-06 0 0)
(2.00208e-06 0 0)
(2.00199e-06 0 0)
(2.00191e-06 0 0)
(2.00184e-06 0 0)
(2.00179e-06 0 0)
(2.00176e-06 0 0)
(2.00177e-06 0 0)
(2.00182e-06 0 0)
(2.00193e-06 0 0)
(2.00211e-06 0 0)
(2.00236e-06 0 0)
(2.00271e-06 0 0)
(2.00316e-06 0 0)
(2.00372e-06 0 0)
(2.00439e-06 0 0)
(2.00519e-06 0 0)
(2.0061e-06 0 0)
(2.00712e-06 0 0)
(2.00826e-06 0 0)
(2.00949e-06 0 0)
(2.0108e-06 0 0)
(2.01218e-06 0 0)
(2.01361e-06 0 0)
(2.01505e-06 0 0)
(2.01649e-06 0 0)
(2.01789e-06 0 0)
(2.01923e-06 0 0)
(2.02047e-06 0 0)
(2.02157e-06 0 0)
(2.02251e-06 0 0)
(2.02326e-06 0 0)
(2.02379e-06 0 0)
(2.02407e-06 0 0)
(2.0241e-06 0 0)
(2.02386e-06 0 0)
(2.02335e-06 0 0)
(2.02257e-06 0 0)
(2.02153e-06 0 0)
(2.02025e-06 0 0)
(2.01876e-06 0 0)
(2.01708e-06 0 0)
(2.01525e-06 0 0)
(2.01332e-06 0 0)
(2.0113e-06 0 0)
(2.00926e-06 0 0)
(2.00721e-06 0 0)
(2.0052e-06 0 0)
(2.00325e-06 0 0)
(2.0014e-06 0 0)
(1.99965e-06 0 0)
(1.99803e-06 0 0)
(1.99653e-06 0 0)
(1.99518e-06 0 0)
(1.99396e-06 0 0)
(1.99288e-06 0 0)
(1.99192e-06 0 0)
(1.99108e-06 0 0)
(1.99035e-06 0 0)
(1.9897e-06 0 0)
(1.98914e-06 0 0)
(1.98865e-06 0 0)
(1.98821e-06 0 0)
(1.98781e-06 0 0)
(1.98745e-06 0 0)
(1.98711e-06 0 0)
(1.98677e-06 0 0)
(1.98645e-06 0 0)
(1.98612e-06 0 0)
(1.98579e-06 0 0)
(1.98545e-06 0 0)
(1.98509e-06 0 0)
(1.98472e-06 0 0)
(1.98433e-06 0 0)
(1.98393e-06 0 0)
(1.98352e-06 0 0)
(1.98308e-06 0 0)
(1.98264e-06 0 0)
(1.98218e-06 0 0)
(1.98171e-06 0 0)
(1.98123e-06 0 0)
(1.98074e-06 0 0)
(1.98024e-06 0 0)
(1.97974e-06 0 0)
(1.97924e-06 0 0)
(1.97873e-06 0 0)
(1.97822e-06 0 0)
(1.97771e-06 0 0)
(1.9772e-06 0 0)
(1.97669e-06 0 0)
(1.97618e-06 0 0)
(1.97567e-06 0 0)
(1.97517e-06 0 0)
(1.97467e-06 0 0)
(1.97417e-06 0 0)
(1.97368e-06 0 0)
(1.97319e-06 0 0)
(1.97271e-06 0 0)
(1.97223e-06 0 0)
(1.97175e-06 0 0)
(1.97128e-06 0 0)
(1.97081e-06 0 0)
(1.97035e-06 0 0)
(1.9699e-06 0 0)
(1.96945e-06 0 0)
(1.96901e-06 0 0)
(1.96857e-06 0 0)
(1.96814e-06 0 0)
(1.96771e-06 0 0)
(1.96729e-06 0 0)
(1.96687e-06 0 0)
(1.96647e-06 0 0)
(1.96606e-06 0 0)
(1.96567e-06 0 0)
(1.96528e-06 0 0)
(1.9649e-06 0 0)
(1.96452e-06 0 0)
(1.96415e-06 0 0)
(1.96379e-06 0 0)
(1.96343e-06 0 0)
(1.96308e-06 0 0)
(1.96274e-06 0 0)
(1.9624e-06 0 0)
(1.96208e-06 0 0)
(1.96175e-06 0 0)
(1.96144e-06 0 0)
(1.96113e-06 0 0)
(1.96083e-06 0 0)
(1.96054e-06 0 0)
(1.96025e-06 0 0)
(1.95997e-06 0 0)
(1.9597e-06 0 0)
(1.95943e-06 0 0)
(1.95917e-06 0 0)
(1.95892e-06 0 0)
(1.95867e-06 0 0)
(1.95842e-06 0 0)
(1.95819e-06 0 0)
(1.95795e-06 0 0)
(1.95772e-06 0 0)
(1.9575e-06 0 0)
(1.95728e-06 0 0)
(1.95706e-06 0 0)
(1.95685e-06 0 0)
(1.95664e-06 0 0)
(1.95643e-06 0 0)
(1.95623e-06 0 0)
(1.95603e-06 0 0)
(1.95583e-06 0 0)
(1.95564e-06 0 0)
(1.95545e-06 0 0)
(1.95526e-06 0 0)
(1.95508e-06 0 0)
(1.9549e-06 0 0)
(1.95472e-06 0 0)
(1.95455e-06 0 0)
(1.95439e-06 0 0)
(1.95423e-06 0 0)
(1.95408e-06 0 0)
(1.95394e-06 0 0)
(1.95381e-06 0 0)
(1.9537e-06 0 0)
(1.9536e-06 0 0)
(1.95352e-06 0 0)
(1.95346e-06 0 0)
(1.95344e-06 0 0)
(1.95344e-06 0 0)
(1.95347e-06 0 0)
(1.95355e-06 0 0)
(1.95367e-06 0 0)
(1.95383e-06 0 0)
(1.95405e-06 0 0)
(1.95432e-06 0 0)
(1.95465e-06 0 0)
(1.95503e-06 0 0)
(1.95547e-06 0 0)
(1.95598e-06 0 0)
(1.95654e-06 0 0)
(1.95716e-06 0 0)
(1.95783e-06 0 0)
(1.95855e-06 0 0)
(1.95932e-06 0 0)
(1.96013e-06 0 0)
(1.96097e-06 0 0)
(1.96182e-06 0 0)
(1.96269e-06 0 0)
(1.96356e-06 0 0)
(1.96442e-06 0 0)
(1.96525e-06 0 0)
(1.96605e-06 0 0)
(1.9668e-06 0 0)
(1.96749e-06 0 0)
(1.96809e-06 0 0)
(1.96861e-06 0 0)
(1.96903e-06 0 0)
(1.96933e-06 0 0)
(1.96952e-06 0 0)
(1.96957e-06 0 0)
(1.96949e-06 0 0)
(1.96926e-06 0 0)
(1.96889e-06 0 0)
(1.96838e-06 0 0)
(1.96773e-06 0 0)
(1.96695e-06 0 0)
(1.96603e-06 0 0)
(1.965e-06 0 0)
(1.96387e-06 0 0)
(1.96264e-06 0 0)
(1.96133e-06 0 0)
(1.95995e-06 0 0)
(1.95853e-06 0 0)
(1.95708e-06 0 0)
(1.95561e-06 0 0)
(1.95413e-06 0 0)
(1.95267e-06 0 0)
(1.95123e-06 0 0)
(1.94983e-06 0 0)
(1.94847e-06 0 0)
(1.94716e-06 0 0)
(1.94592e-06 0 0)
(1.94473e-06 0 0)
(1.94361e-06 0 0)
(1.94256e-06 0 0)
(1.94157e-06 0 0)
(1.94065e-06 0 0)
(1.9398e-06 0 0)
(1.939e-06 0 0)
(1.93826e-06 0 0)
(1.93757e-06 0 0)
(1.93693e-06 0 0)
(1.93633e-06 0 0)
(1.93577e-06 0 0)
(1.93524e-06 0 0)
(1.93473e-06 0 0)
(1.93425e-06 0 0)
(1.93379e-06 0 0)
(1.93334e-06 0 0)
(1.9329e-06 0 0)
(1.93246e-06 0 0)
(1.93204e-06 0 0)
(1.93161e-06 0 0)
(1.93118e-06 0 0)
(1.93075e-06 0 0)
(1.93032e-06 0 0)
(1.92988e-06 0 0)
(1.92944e-06 0 0)
(1.92899e-06 0 0)
(1.92854e-06 0 0)
(1.92808e-06 0 0)
(1.92761e-06 0 0)
(1.92714e-06 0 0)
(1.92666e-06 0 0)
(1.92617e-06 0 0)
(1.92568e-06 0 0)
(1.92519e-06 0 0)
(1.92469e-06 0 0)
(1.92419e-06 0 0)
(1.92368e-06 0 0)
(1.92318e-06 0 0)
(1.92267e-06 0 0)
(1.92215e-06 0 0)
(1.92164e-06 0 0)
(1.92113e-06 0 0)
(1.92061e-06 0 0)
(1.9201e-06 0 0)
(1.91958e-06 0 0)
(1.91907e-06 0 0)
(1.91856e-06 0 0)
(1.91804e-06 0 0)
(1.91753e-06 0 0)
(1.91702e-06 0 0)
(1.91651e-06 0 0)
(1.916e-06 0 0)
(1.9155e-06 0 0)
(1.915e-06 0 0)
(1.91449e-06 0 0)
(1.914e-06 0 0)
(1.9135e-06 0 0)
(1.91301e-06 0 0)
(1.91251e-06 0 0)
(1.91203e-06 0 0)
(1.91154e-06 0 0)
(1.91106e-06 0 0)
(1.91058e-06 0 0)
(1.91011e-06 0 0)
(1.90963e-06 0 0)
(1.90917e-06 0 0)
(1.9087e-06 0 0)
(1.90824e-06 0 0)
(1.90779e-06 0 0)
(1.90733e-06 0 0)
(1.90688e-06 0 0)
(1.90644e-06 0 0)
(1.906e-06 0 0)
(1.90557e-06 0 0)
(1.90514e-06 0 0)
(1.90471e-06 0 0)
(1.90429e-06 0 0)
(1.90388e-06 0 0)
(1.90347e-06 0 0)
(1.90306e-06 0 0)
(1.90266e-06 0 0)
(1.90227e-06 0 0)
(1.90188e-06 0 0)
(1.90149e-06 0 0)
(1.90111e-06 0 0)
(1.90074e-06 0 0)
(1.90037e-06 0 0)
(1.90001e-06 0 0)
(1.89966e-06 0 0)
(1.89931e-06 0 0)
(1.89896e-06 0 0)
(1.89863e-06 0 0)
(1.8983e-06 0 0)
(1.89798e-06 0 0)
(1.89766e-06 0 0)
(1.89736e-06 0 0)
(1.89706e-06 0 0)
(1.89677e-06 0 0)
(1.8965e-06 0 0)
(1.89623e-06 0 0)
(1.89598e-06 0 0)
(1.89574e-06 0 0)
(1.89552e-06 0 0)
(1.89531e-06 0 0)
(1.89512e-06 0 0)
(1.89495e-06 0 0)
(1.8948e-06 0 0)
(1.89467e-06 0 0)
(1.89456e-06 0 0)
(1.89448e-06 0 0)
(1.89442e-06 0 0)
(1.89438e-06 0 0)
(1.89436e-06 0 0)
(1.89437e-06 0 0)
(1.89439e-06 0 0)
(1.89444e-06 0 0)
(1.89451e-06 0 0)
(1.89461e-06 0 0)
(1.89471e-06 0 0)
(1.89483e-06 0 0)
(1.89496e-06 0 0)
(1.89509e-06 0 0)
(1.89519e-06 0 0)
(1.89522e-06 0 0)
(1.89514e-06 0 0)
(1.8948e-06 0 0)
(1.89405e-06 0 0)
(1.89258e-06 0 0)
(1.88998e-06 0 0)
(1.88588e-06 0 0)
(1.88013e-06 0 0)
(1.87337e-06 0 0)
(1.86693e-06 0 0)
(1.86213e-06 0 0)
(1.85937e-06 0 0)
(1.85817e-06 0 0)
(1.85791e-06 0 0)
(1.8581e-06 0 0)
(1.85854e-06 0 0)
(1.85912e-06 0 0)
(1.85975e-06 0 0)
(1.86044e-06 0 0)
(1.86116e-06 0 0)
(1.86191e-06 0 0)
(1.86268e-06 0 0)
(1.86347e-06 0 0)
(1.86428e-06 0 0)
(1.86509e-06 0 0)
(1.86591e-06 0 0)
(1.86674e-06 0 0)
(1.86756e-06 0 0)
(1.86837e-06 0 0)
(1.86917e-06 0 0)
(1.86995e-06 0 0)
(1.87071e-06 0 0)
(1.87144e-06 0 0)
(1.87214e-06 0 0)
(1.8728e-06 0 0)
(1.87342e-06 0 0)
(1.87398e-06 0 0)
(1.8745e-06 0 0)
(1.87495e-06 0 0)
(1.87534e-06 0 0)
(1.87566e-06 0 0)
(1.8759e-06 0 0)
(1.87606e-06 0 0)
(1.87614e-06 0 0)
(1.87617e-06 0 0)
(1.87618e-06 0 0)
(1.87614e-06 0 0)
(1.87597e-06 0 0)
(1.87568e-06 0 0)
(1.87533e-06 0 0)
(1.87493e-06 0 0)
(1.87446e-06 0 0)
(1.87394e-06 0 0)
(1.87336e-06 0 0)
(1.87274e-06 0 0)
(1.87209e-06 0 0)
(1.87139e-06 0 0)
(1.87067e-06 0 0)
(1.86993e-06 0 0)
(1.86917e-06 0 0)
(1.8684e-06 0 0)
(1.86762e-06 0 0)
(1.86685e-06 0 0)
(1.86609e-06 0 0)
(1.86534e-06 0 0)
(1.86461e-06 0 0)
(1.8639e-06 0 0)
(1.86321e-06 0 0)
(1.86255e-06 0 0)
(1.86192e-06 0 0)
(1.86133e-06 0 0)
(1.86076e-06 0 0)
(1.86023e-06 0 0)
(1.85974e-06 0 0)
(1.85928e-06 0 0)
(1.85885e-06 0 0)
(1.85845e-06 0 0)
(1.85808e-06 0 0)
(1.85775e-06 0 0)
(1.85744e-06 0 0)
(1.85716e-06 0 0)
(1.8569e-06 0 0)
(1.85667e-06 0 0)
(1.85645e-06 0 0)
(1.85625e-06 0 0)
(1.85607e-06 0 0)
(1.8559e-06 0 0)
(1.85575e-06 0 0)
(1.8556e-06 0 0)
(1.85546e-06 0 0)
(1.85533e-06 0 0)
(1.8552e-06 0 0)
(1.85508e-06 0 0)
(1.85496e-06 0 0)
(1.85484e-06 0 0)
(1.85472e-06 0 0)
(1.85461e-06 0 0)
(1.85449e-06 0 0)
(1.85436e-06 0 0)
(1.85424e-06 0 0)
(1.85412e-06 0 0)
(1.85399e-06 0 0)
(1.85386e-06 0 0)
(1.85373e-06 0 0)
(1.85359e-06 0 0)
(1.85345e-06 0 0)
(1.85331e-06 0 0)
(1.85317e-06 0 0)
(1.85302e-06 0 0)
(1.85287e-06 0 0)
(1.85272e-06 0 0)
(1.85257e-06 0 0)
(1.85242e-06 0 0)
(1.85226e-06 0 0)
(1.85211e-06 0 0)
(1.85196e-06 0 0)
(1.8518e-06 0 0)
(1.85165e-06 0 0)
(1.85149e-06 0 0)
(1.85134e-06 0 0)
(1.85119e-06 0 0)
(1.85104e-06 0 0)
(1.85089e-06 0 0)
(1.85074e-06 0 0)
(1.85059e-06 0 0)
(1.85045e-06 0 0)
(1.85031e-06 0 0)
(1.85017e-06 0 0)
(1.85003e-06 0 0)
(1.8499e-06 0 0)
(1.84977e-06 0 0)
(1.84964e-06 0 0)
(1.84951e-06 0 0)
(1.84939e-06 0 0)
(1.84927e-06 0 0)
(1.84916e-06 0 0)
(1.84905e-06 0 0)
(1.84894e-06 0 0)
(1.84883e-06 0 0)
(1.84873e-06 0 0)
(1.84864e-06 0 0)
(1.84855e-06 0 0)
(1.84846e-06 0 0)
(1.84837e-06 0 0)
(1.84829e-06 0 0)
(1.84822e-06 0 0)
(1.84815e-06 0 0)
(1.84808e-06 0 0)
(1.84802e-06 0 0)
(1.84796e-06 0 0)
(1.84791e-06 0 0)
(1.84786e-06 0 0)
(1.84782e-06 0 0)
(1.84778e-06 0 0)
(1.84774e-06 0 0)
(1.84771e-06 0 0)
(1.84769e-06 0 0)
(1.84767e-06 0 0)
(1.84766e-06 0 0)
(1.84765e-06 0 0)
(1.84764e-06 0 0)
(1.84764e-06 0 0)
(1.84764e-06 0 0)
(1.84765e-06 0 0)
(1.84766e-06 0 0)
(1.84768e-06 0 0)
(1.8477e-06 0 0)
(1.84773e-06 0 0)
(1.84777e-06 0 0)
(1.8478e-06 0 0)
(1.84785e-06 0 0)
(1.84789e-06 0 0)
(1.84794e-06 0 0)
(1.848e-06 0 0)
(1.84806e-06 0 0)
(1.84812e-06 0 0)
(1.84819e-06 0 0)
(1.84826e-06 0 0)
(1.84833e-06 0 0)
(1.84841e-06 0 0)
(1.84849e-06 0 0)
(1.84858e-06 0 0)
(1.84867e-06 0 0)
(1.84876e-06 0 0)
(1.84886e-06 0 0)
(1.84896e-06 0 0)
(1.84906e-06 0 0)
(1.84917e-06 0 0)
(1.84928e-06 0 0)
(1.8494e-06 0 0)
(1.84952e-06 0 0)
(1.84964e-06 0 0)
(1.84978e-06 0 0)
(1.84991e-06 0 0)
(1.85005e-06 0 0)
(1.8502e-06 0 0)
(1.85036e-06 0 0)
(1.85052e-06 0 0)
(1.85069e-06 0 0)
(1.85087e-06 0 0)
(1.85106e-06 0 0)
(1.85126e-06 0 0)
(1.85148e-06 0 0)
(1.8517e-06 0 0)
(1.85194e-06 0 0)
(1.85219e-06 0 0)
(1.85246e-06 0 0)
(1.85274e-06 0 0)
(1.85304e-06 0 0)
(1.85336e-06 0 0)
(1.85369e-06 0 0)
(1.85405e-06 0 0)
(1.85443e-06 0 0)
(1.85482e-06 0 0)
(1.85524e-06 0 0)
(1.85569e-06 0 0)
(1.85615e-06 0 0)
(1.85664e-06 0 0)
(1.85714e-06 0 0)
(1.85768e-06 0 0)
(1.85823e-06 0 0)
(1.85881e-06 0 0)
(1.8594e-06 0 0)
(1.86002e-06 0 0)
(1.86065e-06 0 0)
(1.8613e-06 0 0)
(1.86197e-06 0 0)
(1.86265e-06 0 0)
(1.86334e-06 0 0)
(1.86404e-06 0 0)
(1.86475e-06 0 0)
(1.86546e-06 0 0)
(1.86617e-06 0 0)
(1.86688e-06 0 0)
(1.86758e-06 0 0)
(1.86827e-06 0 0)
(1.86894e-06 0 0)
(1.8696e-06 0 0)
(1.87024e-06 0 0)
(1.87085e-06 0 0)
(1.87144e-06 0 0)
(1.87199e-06 0 0)
(1.8725e-06 0 0)
(1.87298e-06 0 0)
(1.87341e-06 0 0)
(1.87379e-06 0 0)
(1.87412e-06 0 0)
(1.8744e-06 0 0)
(1.87463e-06 0 0)
(1.87479e-06 0 0)
(1.8749e-06 0 0)
(1.87495e-06 0 0)
(1.87497e-06 0 0)
(1.87497e-06 0 0)
(1.87493e-06 0 0)
(1.87479e-06 0 0)
(1.87454e-06 0 0)
(1.87425e-06 0 0)
(1.8739e-06 0 0)
(1.8735e-06 0 0)
(1.87306e-06 0 0)
(1.87257e-06 0 0)
(1.87205e-06 0 0)
(1.87149e-06 0 0)
(1.87091e-06 0 0)
(1.87029e-06 0 0)
(1.86966e-06 0 0)
(1.86901e-06 0 0)
(1.86835e-06 0 0)
(1.86769e-06 0 0)
(1.86702e-06 0 0)
(1.86636e-06 0 0)
(1.8657e-06 0 0)
(1.86505e-06 0 0)
(1.86441e-06 0 0)
(1.86379e-06 0 0)
(1.86318e-06 0 0)
(1.8626e-06 0 0)
(1.86204e-06 0 0)
(1.8615e-06 0 0)
(1.86098e-06 0 0)
(1.8605e-06 0 0)
(1.86003e-06 0 0)
(1.85959e-06 0 0)
(1.85918e-06 0 0)
(1.85879e-06 0 0)
(1.85842e-06 0 0)
(1.85808e-06 0 0)
(1.85776e-06 0 0)
(1.85746e-06 0 0)
(1.85718e-06 0 0)
(1.85691e-06 0 0)
(1.85666e-06 0 0)
(1.85643e-06 0 0)
(1.85621e-06 0 0)
(1.85601e-06 0 0)
(1.85581e-06 0 0)
(1.85562e-06 0 0)
(1.85544e-06 0 0)
(1.85527e-06 0 0)
(1.85511e-06 0 0)
(1.85495e-06 0 0)
(1.85479e-06 0 0)
(1.85464e-06 0 0)
(1.85449e-06 0 0)
(1.85434e-06 0 0)
(1.85419e-06 0 0)
(1.85404e-06 0 0)
(1.85389e-06 0 0)
(1.85375e-06 0 0)
(1.8536e-06 0 0)
(1.85345e-06 0 0)
(1.85331e-06 0 0)
(1.85316e-06 0 0)
(1.85301e-06 0 0)
(1.85286e-06 0 0)
(1.85271e-06 0 0)
(1.85257e-06 0 0)
(1.85242e-06 0 0)
(1.85227e-06 0 0)
(1.85212e-06 0 0)
(1.85198e-06 0 0)
(1.85183e-06 0 0)
(1.85168e-06 0 0)
(1.85154e-06 0 0)
(1.8514e-06 0 0)
(1.85126e-06 0 0)
(1.85112e-06 0 0)
(1.85098e-06 0 0)
(1.85085e-06 0 0)
(1.85072e-06 0 0)
(1.85059e-06 0 0)
(1.85046e-06 0 0)
(1.85034e-06 0 0)
(1.85022e-06 0 0)
(1.8501e-06 0 0)
(1.84998e-06 0 0)
(1.84987e-06 0 0)
(1.84976e-06 0 0)
(1.84966e-06 0 0)
(1.84956e-06 0 0)
(1.84946e-06 0 0)
(1.84936e-06 0 0)
(1.84927e-06 0 0)
(1.84918e-06 0 0)
(1.8491e-06 0 0)
(1.84902e-06 0 0)
(1.84894e-06 0 0)
(1.84887e-06 0 0)
(1.8488e-06 0 0)
(1.84874e-06 0 0)
(1.84868e-06 0 0)
(1.84862e-06 0 0)
(1.84857e-06 0 0)
(1.84852e-06 0 0)
(1.84848e-06 0 0)
(1.84844e-06 0 0)
(1.8484e-06 0 0)
(1.84837e-06 0 0)
(1.84834e-06 0 0)
(1.84831e-06 0 0)
(1.84829e-06 0 0)
(1.84828e-06 0 0)
(1.84827e-06 0 0)
(1.84826e-06 0 0)
(1.84826e-06 0 0)
(1.84826e-06 0 0)
(1.84826e-06 0 0)
(1.84826e-06 0 0)
(1.84827e-06 0 0)
(1.84829e-06 0 0)
(1.84831e-06 0 0)
(1.84834e-06 0 0)
(1.84836e-06 0 0)
(1.8484e-06 0 0)
(1.84843e-06 0 0)
(1.84847e-06 0 0)
(1.84852e-06 0 0)
(1.84857e-06 0 0)
(1.84862e-06 0 0)
(1.84867e-06 0 0)
(1.84873e-06 0 0)
(1.84879e-06 0 0)
(1.84886e-06 0 0)
(1.84893e-06 0 0)
(1.849e-06 0 0)
(1.84907e-06 0 0)
(1.84915e-06 0 0)
(1.84924e-06 0 0)
(1.84932e-06 0 0)
(1.84941e-06 0 0)
(1.8495e-06 0 0)
(1.8496e-06 0 0)
(1.8497e-06 0 0)
(1.84981e-06 0 0)
(1.84992e-06 0 0)
(1.85003e-06 0 0)
(1.85015e-06 0 0)
(1.85028e-06 0 0)
(1.85041e-06 0 0)
(1.85055e-06 0 0)
(1.85069e-06 0 0)
(1.85084e-06 0 0)
(1.851e-06 0 0)
(1.85117e-06 0 0)
(1.85134e-06 0 0)
(1.85153e-06 0 0)
(1.85172e-06 0 0)
(1.85193e-06 0 0)
(1.85214e-06 0 0)
(1.85237e-06 0 0)
(1.85261e-06 0 0)
(1.85287e-06 0 0)
(1.85314e-06 0 0)
(1.85342e-06 0 0)
(1.85372e-06 0 0)
(1.85404e-06 0 0)
(1.85437e-06 0 0)
(1.85472e-06 0 0)
(1.85508e-06 0 0)
(1.85547e-06 0 0)
(1.85587e-06 0 0)
(1.85629e-06 0 0)
(1.85673e-06 0 0)
(1.85719e-06 0 0)
(1.85766e-06 0 0)
(1.85815e-06 0 0)
(1.85866e-06 0 0)
(1.85918e-06 0 0)
(1.85972e-06 0 0)
(1.86027e-06 0 0)
(1.86084e-06 0 0)
(1.86142e-06 0 0)
(1.862e-06 0 0)
(1.8626e-06 0 0)
(1.8632e-06 0 0)
(1.86381e-06 0 0)
(1.86442e-06 0 0)
(1.86503e-06 0 0)
(1.86564e-06 0 0)
(1.86624e-06 0 0)
(1.86684e-06 0 0)
(1.86742e-06 0 0)
(1.86799e-06 0 0)
)
;

boundaryField
{
    inlet
    {
        type            fixedValue;
        value           uniform (2.74882e-06 0 0);
    }
    outlet
    {
        type            zeroGradient;
    }
    emptyWalls
    {
        type            empty;
    }
}


// ************************************************************************* //
