/*--------------------------------*- C++ -*----------------------------------*\
  =========                 |
  \\      /  F ield         | OpenFOAM: The Open Source CFD Toolbox
   \\    /   O peration     | Website:  https://openfoam.org
    \\  /    A nd           | Version:  9
     \\/     M anipulation  |
\*---------------------------------------------------------------------------*/
FoamFile
{
    format      ascii;
    class       volVectorField;
    location    "14050";
    object      Ub;
}
// * * * * * * * * * * * * * * * * * * * * * * * * * * * * * * * * * * * * * //

dimensions      [0 0 0 0 0 0 0];

internalField   nonuniform List<vector> 
1000
(
(1.13618e-05 0 0)
(1.13623e-05 0 0)
(1.13625e-05 0 0)
(1.13627e-05 0 0)
(1.13631e-05 0 0)
(1.13634e-05 0 0)
(1.13638e-05 0 0)
(1.13643e-05 0 0)
(1.13649e-05 0 0)
(1.13654e-05 0 0)
(1.1366e-05 0 0)
(1.13666e-05 0 0)
(1.13671e-05 0 0)
(1.13677e-05 0 0)
(1.13682e-05 0 0)
(1.13689e-05 0 0)
(1.13703e-05 0 0)
(1.1374e-05 0 0)
(1.13902e-05 0 0)
(1.15286e-05 0 0)
(1.1702e-05 0 0)
(1.17573e-05 0 0)
(1.1768e-05 0 0)
(1.17741e-05 0 0)
(1.17788e-05 0 0)
(1.17827e-05 0 0)
(1.17859e-05 0 0)
(1.17887e-05 0 0)
(1.17911e-05 0 0)
(1.17933e-05 0 0)
(1.17951e-05 0 0)
(1.17968e-05 0 0)
(1.17983e-05 0 0)
(1.17996e-05 0 0)
(1.18007e-05 0 0)
(1.18017e-05 0 0)
(1.18026e-05 0 0)
(1.18033e-05 0 0)
(1.18039e-05 0 0)
(1.18044e-05 0 0)
(1.18048e-05 0 0)
(1.1805e-05 0 0)
(1.18052e-05 0 0)
(1.18052e-05 0 0)
(1.18051e-05 0 0)
(1.18048e-05 0 0)
(1.18043e-05 0 0)
(1.18036e-05 0 0)
(1.18027e-05 0 0)
(1.18016e-05 0 0)
(1.18e-05 0 0)
(1.1798e-05 0 0)
(1.17953e-05 0 0)
(1.17918e-05 0 0)
(1.17875e-05 0 0)
(1.17824e-05 0 0)
(1.17769e-05 0 0)
(1.17711e-05 0 0)
(1.1765e-05 0 0)
(1.17587e-05 0 0)
(1.17522e-05 0 0)
(1.17457e-05 0 0)
(1.1739e-05 0 0)
(1.17323e-05 0 0)
(1.17254e-05 0 0)
(1.17185e-05 0 0)
(1.17116e-05 0 0)
(1.17046e-05 0 0)
(1.16975e-05 0 0)
(1.16904e-05 0 0)
(1.16833e-05 0 0)
(1.16762e-05 0 0)
(1.1669e-05 0 0)
(1.16618e-05 0 0)
(1.16547e-05 0 0)
(1.16474e-05 0 0)
(1.16402e-05 0 0)
(1.16328e-05 0 0)
(1.16254e-05 0 0)
(1.1618e-05 0 0)
(1.16105e-05 0 0)
(1.1603e-05 0 0)
(1.15954e-05 0 0)
(1.15878e-05 0 0)
(1.15802e-05 0 0)
(1.15726e-05 0 0)
(1.1565e-05 0 0)
(1.15574e-05 0 0)
(1.15496e-05 0 0)
(1.15415e-05 0 0)
(1.15332e-05 0 0)
(1.15245e-05 0 0)
(1.15155e-05 0 0)
(1.15062e-05 0 0)
(1.14966e-05 0 0)
(1.14867e-05 0 0)
(1.14767e-05 0 0)
(1.14665e-05 0 0)
(1.14562e-05 0 0)
(1.1446e-05 0 0)
(1.14358e-05 0 0)
(1.14258e-05 0 0)
(1.14161e-05 0 0)
(1.14066e-05 0 0)
(1.13976e-05 0 0)
(1.13891e-05 0 0)
(1.13811e-05 0 0)
(1.13737e-05 0 0)
(1.13668e-05 0 0)
(1.13606e-05 0 0)
(1.13548e-05 0 0)
(1.13494e-05 0 0)
(1.13444e-05 0 0)
(1.13395e-05 0 0)
(1.13347e-05 0 0)
(1.13298e-05 0 0)
(1.13248e-05 0 0)
(1.13195e-05 0 0)
(1.13139e-05 0 0)
(1.1308e-05 0 0)
(1.13018e-05 0 0)
(1.12952e-05 0 0)
(1.12882e-05 0 0)
(1.1281e-05 0 0)
(1.12735e-05 0 0)
(1.12658e-05 0 0)
(1.12579e-05 0 0)
(1.12499e-05 0 0)
(1.12418e-05 0 0)
(1.12336e-05 0 0)
(1.12255e-05 0 0)
(1.12173e-05 0 0)
(1.12091e-05 0 0)
(1.1201e-05 0 0)
(1.11929e-05 0 0)
(1.11848e-05 0 0)
(1.11768e-05 0 0)
(1.11688e-05 0 0)
(1.11608e-05 0 0)
(1.11529e-05 0 0)
(1.1145e-05 0 0)
(1.11371e-05 0 0)
(1.11292e-05 0 0)
(1.11213e-05 0 0)
(1.11134e-05 0 0)
(1.11056e-05 0 0)
(1.10977e-05 0 0)
(1.10898e-05 0 0)
(1.10819e-05 0 0)
(1.1074e-05 0 0)
(1.10661e-05 0 0)
(1.10582e-05 0 0)
(1.10502e-05 0 0)
(1.10423e-05 0 0)
(1.10343e-05 0 0)
(1.10263e-05 0 0)
(1.10183e-05 0 0)
(1.10103e-05 0 0)
(1.10023e-05 0 0)
(1.09942e-05 0 0)
(1.09861e-05 0 0)
(1.0978e-05 0 0)
(1.09699e-05 0 0)
(1.09618e-05 0 0)
(1.09536e-05 0 0)
(1.09455e-05 0 0)
(1.09373e-05 0 0)
(1.09291e-05 0 0)
(1.09208e-05 0 0)
(1.09126e-05 0 0)
(1.09043e-05 0 0)
(1.0896e-05 0 0)
(1.08877e-05 0 0)
(1.08793e-05 0 0)
(1.0871e-05 0 0)
(1.08626e-05 0 0)
(1.08542e-05 0 0)
(1.08458e-05 0 0)
(1.08374e-05 0 0)
(1.08289e-05 0 0)
(1.08204e-05 0 0)
(1.08119e-05 0 0)
(1.08034e-05 0 0)
(1.07949e-05 0 0)
(1.07863e-05 0 0)
(1.07777e-05 0 0)
(1.07691e-05 0 0)
(1.07605e-05 0 0)
(1.07519e-05 0 0)
(1.07432e-05 0 0)
(1.07346e-05 0 0)
(1.07259e-05 0 0)
(1.07171e-05 0 0)
(1.07084e-05 0 0)
(1.06996e-05 0 0)
(1.06909e-05 0 0)
(1.06821e-05 0 0)
(1.06733e-05 0 0)
(1.06645e-05 0 0)
(1.06556e-05 0 0)
(1.06468e-05 0 0)
(1.0638e-05 0 0)
(1.06291e-05 0 0)
(1.06202e-05 0 0)
(1.06113e-05 0 0)
(1.06024e-05 0 0)
(1.05935e-05 0 0)
(1.05845e-05 0 0)
(1.05756e-05 0 0)
(1.05666e-05 0 0)
(1.05576e-05 0 0)
(1.05486e-05 0 0)
(1.05396e-05 0 0)
(1.05305e-05 0 0)
(1.05215e-05 0 0)
(1.05124e-05 0 0)
(1.05033e-05 0 0)
(1.04942e-05 0 0)
(1.0485e-05 0 0)
(1.04758e-05 0 0)
(1.04666e-05 0 0)
(1.04573e-05 0 0)
(1.04479e-05 0 0)
(1.04385e-05 0 0)
(1.04289e-05 0 0)
(1.04193e-05 0 0)
(1.04095e-05 0 0)
(1.03996e-05 0 0)
(1.03896e-05 0 0)
(1.03795e-05 0 0)
(1.03693e-05 0 0)
(1.0359e-05 0 0)
(1.03486e-05 0 0)
(1.03381e-05 0 0)
(1.03275e-05 0 0)
(1.03169e-05 0 0)
(1.03063e-05 0 0)
(1.02956e-05 0 0)
(1.0285e-05 0 0)
(1.02745e-05 0 0)
(1.0264e-05 0 0)
(1.02536e-05 0 0)
(1.02433e-05 0 0)
(1.02332e-05 0 0)
(1.02233e-05 0 0)
(1.02136e-05 0 0)
(1.02041e-05 0 0)
(1.01949e-05 0 0)
(1.01858e-05 0 0)
(1.0177e-05 0 0)
(1.01684e-05 0 0)
(1.016e-05 0 0)
(1.01517e-05 0 0)
(1.01436e-05 0 0)
(1.01356e-05 0 0)
(1.01277e-05 0 0)
(1.01199e-05 0 0)
(1.01121e-05 0 0)
(1.01042e-05 0 0)
(1.00963e-05 0 0)
(1.00883e-05 0 0)
(1.00803e-05 0 0)
(1.00721e-05 0 0)
(1.00638e-05 0 0)
(1.00554e-05 0 0)
(1.00469e-05 0 0)
(1.00382e-05 0 0)
(1.00294e-05 0 0)
(1.00204e-05 0 0)
(1.00114e-05 0 0)
(1.00022e-05 0 0)
(9.993e-06 0 0)
(9.98368e-06 0 0)
(9.97428e-06 0 0)
(9.96482e-06 0 0)
(9.95532e-06 0 0)
(9.94577e-06 0 0)
(9.93619e-06 0 0)
(9.92659e-06 0 0)
(9.91697e-06 0 0)
(9.90733e-06 0 0)
(9.89769e-06 0 0)
(9.88804e-06 0 0)
(9.87839e-06 0 0)
(9.86874e-06 0 0)
(9.85909e-06 0 0)
(9.84944e-06 0 0)
(9.83978e-06 0 0)
(9.83013e-06 0 0)
(9.82047e-06 0 0)
(9.81081e-06 0 0)
(9.80114e-06 0 0)
(9.79147e-06 0 0)
(9.78179e-06 0 0)
(9.7721e-06 0 0)
(9.76241e-06 0 0)
(9.7527e-06 0 0)
(9.74298e-06 0 0)
(9.73324e-06 0 0)
(9.72349e-06 0 0)
(9.71373e-06 0 0)
(9.70395e-06 0 0)
(9.69415e-06 0 0)
(9.68433e-06 0 0)
(9.6745e-06 0 0)
(9.66465e-06 0 0)
(9.65478e-06 0 0)
(9.6449e-06 0 0)
(9.63499e-06 0 0)
(9.62507e-06 0 0)
(9.61512e-06 0 0)
(9.60516e-06 0 0)
(9.59517e-06 0 0)
(9.58517e-06 0 0)
(9.57514e-06 0 0)
(9.5651e-06 0 0)
(9.55503e-06 0 0)
(9.54495e-06 0 0)
(9.53484e-06 0 0)
(9.52471e-06 0 0)
(9.51456e-06 0 0)
(9.50439e-06 0 0)
(9.49419e-06 0 0)
(9.48398e-06 0 0)
(9.47374e-06 0 0)
(9.46348e-06 0 0)
(9.4532e-06 0 0)
(9.4429e-06 0 0)
(9.43257e-06 0 0)
(9.42222e-06 0 0)
(9.41185e-06 0 0)
(9.40145e-06 0 0)
(9.39104e-06 0 0)
(9.3806e-06 0 0)
(9.37013e-06 0 0)
(9.35964e-06 0 0)
(9.34913e-06 0 0)
(9.3386e-06 0 0)
(9.32804e-06 0 0)
(9.31746e-06 0 0)
(9.30685e-06 0 0)
(9.29622e-06 0 0)
(9.28557e-06 0 0)
(9.27489e-06 0 0)
(9.26419e-06 0 0)
(9.25347e-06 0 0)
(9.24272e-06 0 0)
(9.23194e-06 0 0)
(9.22115e-06 0 0)
(9.21033e-06 0 0)
(9.19949e-06 0 0)
(9.18862e-06 0 0)
(9.17774e-06 0 0)
(9.16683e-06 0 0)
(9.15589e-06 0 0)
(9.14494e-06 0 0)
(9.13396e-06 0 0)
(9.12296e-06 0 0)
(9.11193e-06 0 0)
(9.10089e-06 0 0)
(9.08982e-06 0 0)
(9.07872e-06 0 0)
(9.06761e-06 0 0)
(9.05647e-06 0 0)
(9.04531e-06 0 0)
(9.03412e-06 0 0)
(9.02291e-06 0 0)
(9.01167e-06 0 0)
(9.0004e-06 0 0)
(8.98911e-06 0 0)
(8.97779e-06 0 0)
(8.96645e-06 0 0)
(8.95507e-06 0 0)
(8.94366e-06 0 0)
(8.93221e-06 0 0)
(8.92072e-06 0 0)
(8.9092e-06 0 0)
(8.89763e-06 0 0)
(8.88601e-06 0 0)
(8.87435e-06 0 0)
(8.86263e-06 0 0)
(8.85085e-06 0 0)
(8.83902e-06 0 0)
(8.82713e-06 0 0)
(8.81517e-06 0 0)
(8.80314e-06 0 0)
(8.79105e-06 0 0)
(8.77888e-06 0 0)
(8.76665e-06 0 0)
(8.75435e-06 0 0)
(8.74198e-06 0 0)
(8.72955e-06 0 0)
(8.71706e-06 0 0)
(8.70451e-06 0 0)
(8.6919e-06 0 0)
(8.67925e-06 0 0)
(8.66656e-06 0 0)
(8.65383e-06 0 0)
(8.64108e-06 0 0)
(8.62831e-06 0 0)
(8.61554e-06 0 0)
(8.60277e-06 0 0)
(8.59001e-06 0 0)
(8.57727e-06 0 0)
(8.56456e-06 0 0)
(8.55189e-06 0 0)
(8.53927e-06 0 0)
(8.5267e-06 0 0)
(8.5142e-06 0 0)
(8.50176e-06 0 0)
(8.4894e-06 0 0)
(8.47711e-06 0 0)
(8.4649e-06 0 0)
(8.45276e-06 0 0)
(8.44069e-06 0 0)
(8.42869e-06 0 0)
(8.41675e-06 0 0)
(8.40486e-06 0 0)
(8.39301e-06 0 0)
(8.3812e-06 0 0)
(8.36942e-06 0 0)
(8.35764e-06 0 0)
(8.34587e-06 0 0)
(8.33408e-06 0 0)
(8.32226e-06 0 0)
(8.31042e-06 0 0)
(8.29852e-06 0 0)
(8.28658e-06 0 0)
(8.27457e-06 0 0)
(8.26248e-06 0 0)
(8.25033e-06 0 0)
(8.23809e-06 0 0)
(8.22577e-06 0 0)
(8.21336e-06 0 0)
(8.20086e-06 0 0)
(8.18828e-06 0 0)
(8.17561e-06 0 0)
(8.16286e-06 0 0)
(8.15002e-06 0 0)
(8.13711e-06 0 0)
(8.12411e-06 0 0)
(8.11105e-06 0 0)
(8.09791e-06 0 0)
(8.0847e-06 0 0)
(8.07143e-06 0 0)
(8.0581e-06 0 0)
(8.04471e-06 0 0)
(8.03126e-06 0 0)
(8.01777e-06 0 0)
(8.00421e-06 0 0)
(7.99061e-06 0 0)
(7.97697e-06 0 0)
(7.96327e-06 0 0)
(7.94953e-06 0 0)
(7.93575e-06 0 0)
(7.92192e-06 0 0)
(7.90805e-06 0 0)
(7.89413e-06 0 0)
(7.88017e-06 0 0)
(7.86616e-06 0 0)
(7.85211e-06 0 0)
(7.83801e-06 0 0)
(7.82387e-06 0 0)
(7.80967e-06 0 0)
(7.79543e-06 0 0)
(7.78114e-06 0 0)
(7.7668e-06 0 0)
(7.75241e-06 0 0)
(7.73797e-06 0 0)
(7.72347e-06 0 0)
(7.70892e-06 0 0)
(7.69431e-06 0 0)
(7.67965e-06 0 0)
(7.66493e-06 0 0)
(7.65015e-06 0 0)
(7.63532e-06 0 0)
(7.62042e-06 0 0)
(7.60546e-06 0 0)
(7.59044e-06 0 0)
(7.57536e-06 0 0)
(7.56021e-06 0 0)
(7.545e-06 0 0)
(7.52972e-06 0 0)
(7.51438e-06 0 0)
(7.49897e-06 0 0)
(7.48349e-06 0 0)
(7.46794e-06 0 0)
(7.45232e-06 0 0)
(7.43662e-06 0 0)
(7.42086e-06 0 0)
(7.40502e-06 0 0)
(7.38911e-06 0 0)
(7.37312e-06 0 0)
(7.35705e-06 0 0)
(7.34091e-06 0 0)
(7.32469e-06 0 0)
(7.30839e-06 0 0)
(7.29201e-06 0 0)
(7.27555e-06 0 0)
(7.25901e-06 0 0)
(7.24238e-06 0 0)
(7.22568e-06 0 0)
(7.20889e-06 0 0)
(7.19201e-06 0 0)
(7.17505e-06 0 0)
(7.158e-06 0 0)
(7.14086e-06 0 0)
(7.12365e-06 0 0)
(7.10634e-06 0 0)
(7.08896e-06 0 0)
(7.07148e-06 0 0)
(7.05392e-06 0 0)
(7.03628e-06 0 0)
(7.01856e-06 0 0)
(7.00076e-06 0 0)
(6.98288e-06 0 0)
(6.96494e-06 0 0)
(6.94692e-06 0 0)
(6.92885e-06 0 0)
(6.91072e-06 0 0)
(6.89255e-06 0 0)
(6.87435e-06 0 0)
(6.85613e-06 0 0)
(6.8379e-06 0 0)
(6.8197e-06 0 0)
(6.80153e-06 0 0)
(6.78343e-06 0 0)
(6.76542e-06 0 0)
(6.74756e-06 0 0)
(6.72987e-06 0 0)
(6.71241e-06 0 0)
(6.69522e-06 0 0)
(6.67836e-06 0 0)
(6.6619e-06 0 0)
(6.6459e-06 0 0)
(6.63043e-06 0 0)
(6.61557e-06 0 0)
(6.60136e-06 0 0)
(6.58788e-06 0 0)
(6.57519e-06 0 0)
(6.56333e-06 0 0)
(6.55235e-06 0 0)
(6.54227e-06 0 0)
(6.5331e-06 0 0)
(6.52484e-06 0 0)
(6.51746e-06 0 0)
(6.51094e-06 0 0)
(6.50522e-06 0 0)
(6.50024e-06 0 0)
(6.49589e-06 0 0)
(6.49206e-06 0 0)
(6.48856e-06 0 0)
(6.48514e-06 0 0)
(6.48138e-06 0 0)
(6.47663e-06 0 0)
(6.46968e-06 0 0)
(6.45854e-06 0 0)
(6.43966e-06 0 0)
(6.4069e-06 0 0)
(6.3499e-06 0 0)
(6.25186e-06 0 0)
(6.08778e-06 0 0)
(5.82622e-06 0 0)
(5.44024e-06 0 0)
(4.93075e-06 0 0)
(4.34898e-06 0 0)
(3.78703e-06 0 0)
(3.32926e-06 0 0)
(3.00892e-06 0 0)
(2.80971e-06 0 0)
(2.69543e-06 0 0)
(2.633e-06 0 0)
(2.59981e-06 0 0)
(2.5824e-06 0 0)
(2.57331e-06 0 0)
(2.56854e-06 0 0)
(2.566e-06 0 0)
(2.56462e-06 0 0)
(2.56382e-06 0 0)
(2.56333e-06 0 0)
(2.56299e-06 0 0)
(2.56273e-06 0 0)
(2.56251e-06 0 0)
(2.56231e-06 0 0)
(2.56213e-06 0 0)
(2.56195e-06 0 0)
(2.56178e-06 0 0)
(2.56162e-06 0 0)
(2.56146e-06 0 0)
(2.56131e-06 0 0)
(2.56117e-06 0 0)
(2.56104e-06 0 0)
(2.56092e-06 0 0)
(2.56081e-06 0 0)
(2.56072e-06 0 0)
(2.56064e-06 0 0)
(2.56057e-06 0 0)
(2.56052e-06 0 0)
(2.56048e-06 0 0)
(2.56047e-06 0 0)
(2.56046e-06 0 0)
(2.56046e-06 0 0)
(2.56047e-06 0 0)
(2.5605e-06 0 0)
(2.56056e-06 0 0)
(2.56064e-06 0 0)
(2.56072e-06 0 0)
(2.56082e-06 0 0)
(2.56093e-06 0 0)
(2.56105e-06 0 0)
(2.56118e-06 0 0)
(2.56132e-06 0 0)
(2.56146e-06 0 0)
(2.56161e-06 0 0)
(2.56176e-06 0 0)
(2.56192e-06 0 0)
(2.56208e-06 0 0)
(2.56224e-06 0 0)
(2.5624e-06 0 0)
(2.56255e-06 0 0)
(2.56271e-06 0 0)
(2.56286e-06 0 0)
(2.563e-06 0 0)
(2.56314e-06 0 0)
(2.56327e-06 0 0)
(2.5634e-06 0 0)
(2.56352e-06 0 0)
(2.56363e-06 0 0)
(2.56373e-06 0 0)
(2.56383e-06 0 0)
(2.56392e-06 0 0)
(2.564e-06 0 0)
(2.56408e-06 0 0)
(2.56414e-06 0 0)
(2.56421e-06 0 0)
(2.56426e-06 0 0)
(2.56432e-06 0 0)
(2.56436e-06 0 0)
(2.5644e-06 0 0)
(2.56444e-06 0 0)
(2.56447e-06 0 0)
(2.5645e-06 0 0)
(2.56453e-06 0 0)
(2.56456e-06 0 0)
(2.56458e-06 0 0)
(2.5646e-06 0 0)
(2.56462e-06 0 0)
(2.56464e-06 0 0)
(2.56466e-06 0 0)
(2.56468e-06 0 0)
(2.5647e-06 0 0)
(2.56471e-06 0 0)
(2.56473e-06 0 0)
(2.56475e-06 0 0)
(2.56477e-06 0 0)
(2.56479e-06 0 0)
(2.56481e-06 0 0)
(2.56484e-06 0 0)
(2.56486e-06 0 0)
(2.56488e-06 0 0)
(2.56491e-06 0 0)
(2.56493e-06 0 0)
(2.56496e-06 0 0)
(2.56498e-06 0 0)
(2.56501e-06 0 0)
(2.56504e-06 0 0)
(2.56507e-06 0 0)
(2.5651e-06 0 0)
(2.56513e-06 0 0)
(2.56516e-06 0 0)
(2.56519e-06 0 0)
(2.56522e-06 0 0)
(2.56525e-06 0 0)
(2.56528e-06 0 0)
(2.56531e-06 0 0)
(2.56534e-06 0 0)
(2.56538e-06 0 0)
(2.56541e-06 0 0)
(2.56544e-06 0 0)
(2.56547e-06 0 0)
(2.5655e-06 0 0)
(2.56553e-06 0 0)
(2.56556e-06 0 0)
(2.56559e-06 0 0)
(2.56562e-06 0 0)
(2.56565e-06 0 0)
(2.56568e-06 0 0)
(2.56571e-06 0 0)
(2.56573e-06 0 0)
(2.56576e-06 0 0)
(2.56579e-06 0 0)
(2.56581e-06 0 0)
(2.56584e-06 0 0)
(2.56586e-06 0 0)
(2.56588e-06 0 0)
(2.56591e-06 0 0)
(2.56593e-06 0 0)
(2.56595e-06 0 0)
(2.56597e-06 0 0)
(2.56599e-06 0 0)
(2.56601e-06 0 0)
(2.56603e-06 0 0)
(2.56605e-06 0 0)
(2.56606e-06 0 0)
(2.56608e-06 0 0)
(2.56609e-06 0 0)
(2.56611e-06 0 0)
(2.56612e-06 0 0)
(2.56613e-06 0 0)
(2.56614e-06 0 0)
(2.56615e-06 0 0)
(2.56616e-06 0 0)
(2.56617e-06 0 0)
(2.56617e-06 0 0)
(2.56618e-06 0 0)
(2.56618e-06 0 0)
(2.56619e-06 0 0)
(2.56619e-06 0 0)
(2.56619e-06 0 0)
(2.56619e-06 0 0)
(2.56619e-06 0 0)
(2.56619e-06 0 0)
(2.56618e-06 0 0)
(2.56618e-06 0 0)
(2.56617e-06 0 0)
(2.56617e-06 0 0)
(2.56616e-06 0 0)
(2.56615e-06 0 0)
(2.56614e-06 0 0)
(2.56613e-06 0 0)
(2.56612e-06 0 0)
(2.5661e-06 0 0)
(2.56609e-06 0 0)
(2.56608e-06 0 0)
(2.56606e-06 0 0)
(2.56604e-06 0 0)
(2.56603e-06 0 0)
(2.56601e-06 0 0)
(2.56599e-06 0 0)
(2.56597e-06 0 0)
(2.56595e-06 0 0)
(2.56593e-06 0 0)
(2.56591e-06 0 0)
(2.56588e-06 0 0)
(2.56586e-06 0 0)
(2.56583e-06 0 0)
(2.56581e-06 0 0)
(2.56578e-06 0 0)
(2.56575e-06 0 0)
(2.56572e-06 0 0)
(2.56569e-06 0 0)
(2.56566e-06 0 0)
(2.56563e-06 0 0)
(2.56559e-06 0 0)
(2.56556e-06 0 0)
(2.56552e-06 0 0)
(2.56548e-06 0 0)
(2.56544e-06 0 0)
(2.56539e-06 0 0)
(2.56534e-06 0 0)
(2.56529e-06 0 0)
(2.56524e-06 0 0)
(2.56518e-06 0 0)
(2.56512e-06 0 0)
(2.56505e-06 0 0)
(2.56499e-06 0 0)
(2.56491e-06 0 0)
(2.56484e-06 0 0)
(2.56476e-06 0 0)
(2.56467e-06 0 0)
(2.56458e-06 0 0)
(2.56449e-06 0 0)
(2.56439e-06 0 0)
(2.56428e-06 0 0)
(2.56417e-06 0 0)
(2.56405e-06 0 0)
(2.56393e-06 0 0)
(2.56381e-06 0 0)
(2.56368e-06 0 0)
(2.56355e-06 0 0)
(2.56341e-06 0 0)
(2.56327e-06 0 0)
(2.56313e-06 0 0)
(2.56298e-06 0 0)
(2.56284e-06 0 0)
(2.56269e-06 0 0)
(2.56254e-06 0 0)
(2.56239e-06 0 0)
(2.56224e-06 0 0)
(2.56209e-06 0 0)
(2.56194e-06 0 0)
(2.5618e-06 0 0)
(2.56166e-06 0 0)
(2.56153e-06 0 0)
(2.5614e-06 0 0)
(2.56127e-06 0 0)
(2.56115e-06 0 0)
(2.56104e-06 0 0)
(2.56094e-06 0 0)
(2.56084e-06 0 0)
(2.56076e-06 0 0)
(2.56068e-06 0 0)
(2.56061e-06 0 0)
(2.56056e-06 0 0)
(2.56051e-06 0 0)
(2.56048e-06 0 0)
(2.56046e-06 0 0)
(2.56045e-06 0 0)
(2.56045e-06 0 0)
(2.56045e-06 0 0)
(2.56046e-06 0 0)
(2.5605e-06 0 0)
(2.56055e-06 0 0)
(2.56061e-06 0 0)
(2.56068e-06 0 0)
(2.56077e-06 0 0)
(2.56086e-06 0 0)
(2.56096e-06 0 0)
(2.56107e-06 0 0)
(2.56119e-06 0 0)
(2.56132e-06 0 0)
(2.56144e-06 0 0)
(2.56158e-06 0 0)
(2.56171e-06 0 0)
(2.56185e-06 0 0)
(2.56199e-06 0 0)
(2.56213e-06 0 0)
(2.56227e-06 0 0)
(2.56241e-06 0 0)
(2.56255e-06 0 0)
(2.56268e-06 0 0)
(2.56281e-06 0 0)
(2.56294e-06 0 0)
(2.56306e-06 0 0)
(2.56318e-06 0 0)
(2.56329e-06 0 0)
(2.5634e-06 0 0)
(2.56351e-06 0 0)
(2.5636e-06 0 0)
(2.5637e-06 0 0)
(2.56378e-06 0 0)
(2.56386e-06 0 0)
(2.56394e-06 0 0)
(2.56401e-06 0 0)
(2.56408e-06 0 0)
(2.56414e-06 0 0)
(2.5642e-06 0 0)
(2.56426e-06 0 0)
(2.56431e-06 0 0)
(2.56436e-06 0 0)
(2.5644e-06 0 0)
(2.56445e-06 0 0)
(2.56449e-06 0 0)
(2.56453e-06 0 0)
(2.56456e-06 0 0)
(2.5646e-06 0 0)
(2.56463e-06 0 0)
(2.56467e-06 0 0)
(2.5647e-06 0 0)
(2.56473e-06 0 0)
(2.56476e-06 0 0)
(2.56479e-06 0 0)
(2.56482e-06 0 0)
(2.56485e-06 0 0)
(2.56488e-06 0 0)
(2.56491e-06 0 0)
(2.56494e-06 0 0)
(2.56498e-06 0 0)
(2.56501e-06 0 0)
(2.56504e-06 0 0)
(2.56507e-06 0 0)
(2.5651e-06 0 0)
(2.56513e-06 0 0)
(2.56516e-06 0 0)
(2.56519e-06 0 0)
(2.56522e-06 0 0)
(2.56525e-06 0 0)
(2.56528e-06 0 0)
(2.56531e-06 0 0)
(2.56534e-06 0 0)
(2.56537e-06 0 0)
(2.5654e-06 0 0)
(2.56543e-06 0 0)
(2.56546e-06 0 0)
(2.56549e-06 0 0)
(2.56552e-06 0 0)
(2.56555e-06 0 0)
(2.56557e-06 0 0)
(2.5656e-06 0 0)
(2.56563e-06 0 0)
(2.56565e-06 0 0)
(2.56568e-06 0 0)
(2.5657e-06 0 0)
(2.56573e-06 0 0)
(2.56575e-06 0 0)
(2.56577e-06 0 0)
(2.56579e-06 0 0)
(2.56581e-06 0 0)
(2.56583e-06 0 0)
(2.56585e-06 0 0)
(2.56587e-06 0 0)
(2.56589e-06 0 0)
(2.56591e-06 0 0)
(2.56592e-06 0 0)
(2.56594e-06 0 0)
(2.56595e-06 0 0)
(2.56597e-06 0 0)
(2.56598e-06 0 0)
(2.56599e-06 0 0)
(2.566e-06 0 0)
(2.56601e-06 0 0)
(2.56602e-06 0 0)
(2.56603e-06 0 0)
(2.56604e-06 0 0)
(2.56605e-06 0 0)
(2.56605e-06 0 0)
(2.56606e-06 0 0)
(2.56606e-06 0 0)
(2.56607e-06 0 0)
(2.56607e-06 0 0)
(2.56607e-06 0 0)
(2.56607e-06 0 0)
(2.56607e-06 0 0)
(2.56607e-06 0 0)
(2.56607e-06 0 0)
(2.56607e-06 0 0)
(2.56607e-06 0 0)
(2.56606e-06 0 0)
(2.56606e-06 0 0)
(2.56605e-06 0 0)
(2.56604e-06 0 0)
(2.56604e-06 0 0)
(2.56603e-06 0 0)
(2.56602e-06 0 0)
(2.56601e-06 0 0)
(2.566e-06 0 0)
(2.56599e-06 0 0)
(2.56597e-06 0 0)
(2.56596e-06 0 0)
(2.56595e-06 0 0)
(2.56593e-06 0 0)
(2.56592e-06 0 0)
(2.5659e-06 0 0)
(2.56588e-06 0 0)
(2.56587e-06 0 0)
(2.56585e-06 0 0)
(2.56583e-06 0 0)
(2.56581e-06 0 0)
(2.56579e-06 0 0)
(2.56577e-06 0 0)
(2.56574e-06 0 0)
(2.56572e-06 0 0)
(2.5657e-06 0 0)
(2.56567e-06 0 0)
(2.56564e-06 0 0)
(2.56562e-06 0 0)
(2.56559e-06 0 0)
(2.56556e-06 0 0)
(2.56552e-06 0 0)
(2.56549e-06 0 0)
(2.56546e-06 0 0)
(2.56542e-06 0 0)
(2.56538e-06 0 0)
(2.56534e-06 0 0)
(2.56529e-06 0 0)
(2.56525e-06 0 0)
(2.5652e-06 0 0)
(2.56515e-06 0 0)
(2.56509e-06 0 0)
(2.56503e-06 0 0)
(2.56497e-06 0 0)
(2.56491e-06 0 0)
(2.56484e-06 0 0)
(2.56477e-06 0 0)
(2.5647e-06 0 0)
(2.56462e-06 0 0)
(2.56454e-06 0 0)
(2.56445e-06 0 0)
(2.56436e-06 0 0)
(2.56427e-06 0 0)
(2.56417e-06 0 0)
(2.56407e-06 0 0)
(2.56396e-06 0 0)
(2.56386e-06 0 0)
(2.56374e-06 0 0)
(2.56363e-06 0 0)
(2.56351e-06 0 0)
(2.56339e-06 0 0)
(2.56327e-06 0 0)
(2.56315e-06 0 0)
(2.56302e-06 0 0)
(2.56289e-06 0 0)
(2.56277e-06 0 0)
(2.56264e-06 0 0)
(2.56251e-06 0 0)
(2.56238e-06 0 0)
(2.56225e-06 0 0)
(2.56213e-06 0 0)
(2.56201e-06 0 0)
(2.56189e-06 0 0)
)
;

boundaryField
{
    inlet
    {
        type            fixedValue;
        value           uniform (1.13622e-05 0 0);
    }
    outlet
    {
        type            zeroGradient;
    }
    emptyWalls
    {
        type            empty;
    }
}


// ************************************************************************* //
