/*--------------------------------*- C++ -*----------------------------------*\
  =========                 |
  \\      /  F ield         | OpenFOAM: The Open Source CFD Toolbox
   \\    /   O peration     | Website:  https://openfoam.org
    \\  /    A nd           | Version:  9
     \\/     M anipulation  |
\*---------------------------------------------------------------------------*/
FoamFile
{
    format      ascii;
    class       surfaceScalarField;
    location    "28200";
    object      phib;
}
// * * * * * * * * * * * * * * * * * * * * * * * * * * * * * * * * * * * * * //

dimensions      [0 2 0 0 0 0 0];

internalField   nonuniform List<scalar> 
999
(
1.13623e-09
1.13622e-09
1.13623e-09
1.13623e-09
1.13624e-09
1.13624e-09
1.13626e-09
1.13626e-09
1.13628e-09
1.13629e-09
1.13632e-09
1.13633e-09
1.13637e-09
1.13639e-09
1.13642e-09
1.13645e-09
1.13647e-09
1.13651e-09
1.13652e-09
1.13657e-09
1.1366e-09
1.13664e-09
1.13668e-09
1.13672e-09
1.13676e-09
1.13679e-09
1.13683e-09
1.13686e-09
1.13689e-09
1.13692e-09
1.13693e-09
1.13696e-09
1.13697e-09
1.137e-09
1.13702e-09
1.13704e-09
1.13712e-09
1.13736e-09
1.13837e-09
1.14465e-09
1.17049e-09
1.176e-09
1.17738e-09
1.17795e-09
1.17826e-09
1.17847e-09
1.17866e-09
1.17881e-09
1.17891e-09
1.17895e-09
1.17897e-09
1.17902e-09
1.17913e-09
1.17928e-09
1.1794e-09
1.17938e-09
1.17917e-09
1.17877e-09
1.17823e-09
1.17764e-09
1.17711e-09
1.1767e-09
1.17645e-09
1.17636e-09
1.17637e-09
1.17643e-09
1.1765e-09
1.17675e-09
1.17732e-09
1.17789e-09
1.17842e-09
1.17888e-09
1.17927e-09
1.17957e-09
1.17978e-09
1.17991e-09
1.17998e-09
1.18001e-09
1.17999e-09
1.17997e-09
1.17993e-09
1.17988e-09
1.17984e-09
1.17981e-09
1.17979e-09
1.17978e-09
1.17978e-09
1.17979e-09
1.1798e-09
1.17981e-09
1.17982e-09
1.17983e-09
1.17984e-09
1.17984e-09
1.17984e-09
1.17984e-09
1.17983e-09
1.17981e-09
1.17979e-09
1.17976e-09
1.17972e-09
1.17968e-09
1.17962e-09
1.17955e-09
1.17947e-09
1.17938e-09
1.17926e-09
1.17913e-09
1.17896e-09
1.17877e-09
1.17855e-09
1.17831e-09
1.17804e-09
1.17777e-09
1.17748e-09
1.17719e-09
1.17689e-09
1.17659e-09
1.17628e-09
1.17597e-09
1.17565e-09
1.17532e-09
1.175e-09
1.17467e-09
1.17433e-09
1.17399e-09
1.17365e-09
1.1733e-09
1.17296e-09
1.17261e-09
1.17226e-09
1.17192e-09
1.17157e-09
1.17122e-09
1.17087e-09
1.17052e-09
1.17016e-09
1.1698e-09
1.16943e-09
1.16906e-09
1.16869e-09
1.16832e-09
1.16794e-09
1.16757e-09
1.1672e-09
1.16683e-09
1.16646e-09
1.1661e-09
1.16574e-09
1.16539e-09
1.16503e-09
1.16467e-09
1.16429e-09
1.16391e-09
1.1635e-09
1.16306e-09
1.1626e-09
1.16211e-09
1.16159e-09
1.16104e-09
1.16048e-09
1.1599e-09
1.15932e-09
1.15873e-09
1.15813e-09
1.15754e-09
1.15696e-09
1.1564e-09
1.15585e-09
1.15533e-09
1.15485e-09
1.1544e-09
1.15399e-09
1.15362e-09
1.1533e-09
1.15301e-09
1.15277e-09
1.15256e-09
1.15237e-09
1.1522e-09
1.15204e-09
1.15188e-09
1.15172e-09
1.15154e-09
1.15136e-09
1.15115e-09
1.15093e-09
1.15068e-09
1.15041e-09
1.15012e-09
1.14982e-09
1.14949e-09
1.14915e-09
1.1488e-09
1.14844e-09
1.14808e-09
1.14771e-09
1.14733e-09
1.14696e-09
1.14658e-09
1.14621e-09
1.14584e-09
1.14547e-09
1.1451e-09
1.14474e-09
1.14438e-09
1.14401e-09
1.14366e-09
1.1433e-09
1.14294e-09
1.14259e-09
1.14224e-09
1.14188e-09
1.14153e-09
1.14117e-09
1.14082e-09
1.14047e-09
1.14011e-09
1.13975e-09
1.1394e-09
1.13904e-09
1.13868e-09
1.13832e-09
1.13796e-09
1.1376e-09
1.13723e-09
1.13687e-09
1.1365e-09
1.13613e-09
1.13577e-09
1.1354e-09
1.13502e-09
1.13465e-09
1.13428e-09
1.1339e-09
1.13353e-09
1.13315e-09
1.13277e-09
1.13239e-09
1.13201e-09
1.13162e-09
1.13124e-09
1.13085e-09
1.13046e-09
1.13007e-09
1.12968e-09
1.12929e-09
1.12889e-09
1.1285e-09
1.1281e-09
1.12771e-09
1.12731e-09
1.12691e-09
1.12651e-09
1.12611e-09
1.12571e-09
1.12531e-09
1.1249e-09
1.1245e-09
1.12409e-09
1.12368e-09
1.12327e-09
1.12286e-09
1.12245e-09
1.12203e-09
1.12162e-09
1.12121e-09
1.1208e-09
1.12038e-09
1.11997e-09
1.11956e-09
1.11915e-09
1.11874e-09
1.11833e-09
1.11791e-09
1.11749e-09
1.11707e-09
1.11663e-09
1.11619e-09
1.11574e-09
1.11528e-09
1.1148e-09
1.11431e-09
1.11381e-09
1.1133e-09
1.11278e-09
1.11224e-09
1.1117e-09
1.11115e-09
1.11059e-09
1.11003e-09
1.10947e-09
1.10891e-09
1.10835e-09
1.1078e-09
1.10725e-09
1.10672e-09
1.10621e-09
1.10571e-09
1.10523e-09
1.10477e-09
1.10434e-09
1.10392e-09
1.10353e-09
1.10316e-09
1.10281e-09
1.10248e-09
1.10216e-09
1.10186e-09
1.10156e-09
1.10128e-09
1.10099e-09
1.10071e-09
1.10043e-09
1.10015e-09
1.09986e-09
1.09956e-09
1.09925e-09
1.09893e-09
1.09861e-09
1.09827e-09
1.09793e-09
1.09757e-09
1.09721e-09
1.09684e-09
1.09646e-09
1.09607e-09
1.09568e-09
1.09529e-09
1.09489e-09
1.09449e-09
1.09409e-09
1.09369e-09
1.09328e-09
1.09288e-09
1.09248e-09
1.09207e-09
1.09167e-09
1.09127e-09
1.09087e-09
1.09047e-09
1.09007e-09
1.08967e-09
1.08927e-09
1.08887e-09
1.08847e-09
1.08807e-09
1.08768e-09
1.08728e-09
1.08688e-09
1.08648e-09
1.08608e-09
1.08569e-09
1.08529e-09
1.08489e-09
1.08449e-09
1.08409e-09
1.08368e-09
1.08328e-09
1.08288e-09
1.08247e-09
1.08207e-09
1.08166e-09
1.08125e-09
1.08084e-09
1.08043e-09
1.08002e-09
1.07961e-09
1.0792e-09
1.07878e-09
1.07837e-09
1.07795e-09
1.07754e-09
1.07712e-09
1.0767e-09
1.07628e-09
1.07586e-09
1.07543e-09
1.07501e-09
1.07458e-09
1.07416e-09
1.07373e-09
1.0733e-09
1.07287e-09
1.07244e-09
1.07201e-09
1.07158e-09
1.07115e-09
1.07071e-09
1.07028e-09
1.06984e-09
1.0694e-09
1.06896e-09
1.06853e-09
1.06809e-09
1.06765e-09
1.0672e-09
1.06676e-09
1.06632e-09
1.06587e-09
1.06543e-09
1.06498e-09
1.06454e-09
1.06409e-09
1.06365e-09
1.0632e-09
1.06275e-09
1.06231e-09
1.06186e-09
1.06141e-09
1.06096e-09
1.0605e-09
1.06005e-09
1.05959e-09
1.05912e-09
1.05866e-09
1.05818e-09
1.05771e-09
1.05722e-09
1.05673e-09
1.05623e-09
1.05573e-09
1.05522e-09
1.0547e-09
1.05418e-09
1.05365e-09
1.05311e-09
1.05257e-09
1.05202e-09
1.05147e-09
1.05092e-09
1.05037e-09
1.04982e-09
1.04926e-09
1.04871e-09
1.04817e-09
1.04763e-09
1.04709e-09
1.04657e-09
1.04605e-09
1.04554e-09
1.04505e-09
1.04456e-09
1.04409e-09
1.04364e-09
1.04319e-09
1.04276e-09
1.04234e-09
1.04193e-09
1.04153e-09
1.04114e-09
1.04076e-09
1.04038e-09
1.04001e-09
1.03965e-09
1.03929e-09
1.03893e-09
1.03857e-09
1.03821e-09
1.03784e-09
1.03748e-09
1.03711e-09
1.03673e-09
1.03635e-09
1.03597e-09
1.03558e-09
1.03518e-09
1.03478e-09
1.03438e-09
1.03397e-09
1.03355e-09
1.03313e-09
1.03271e-09
1.03228e-09
1.03185e-09
1.03142e-09
1.03099e-09
1.03055e-09
1.03011e-09
1.02967e-09
1.02924e-09
1.0288e-09
1.02835e-09
1.02791e-09
1.02747e-09
1.02703e-09
1.02659e-09
1.02615e-09
1.02571e-09
1.02527e-09
1.02483e-09
1.02439e-09
1.02395e-09
1.02351e-09
1.02306e-09
1.02262e-09
1.02218e-09
1.02174e-09
1.0213e-09
1.02085e-09
1.02041e-09
1.01997e-09
1.01952e-09
1.01908e-09
1.01863e-09
1.01819e-09
1.01774e-09
1.01729e-09
1.01684e-09
1.01639e-09
1.01594e-09
1.01549e-09
1.01504e-09
1.01459e-09
1.01413e-09
1.01368e-09
1.01322e-09
1.01277e-09
1.01231e-09
1.01185e-09
1.01139e-09
1.01093e-09
1.01047e-09
1.01001e-09
1.00954e-09
1.00908e-09
1.00861e-09
1.00815e-09
1.00768e-09
1.00721e-09
1.00674e-09
1.00627e-09
1.0058e-09
1.00533e-09
1.00485e-09
1.00438e-09
1.00391e-09
1.00343e-09
1.00295e-09
1.00248e-09
1.002e-09
1.00152e-09
1.00104e-09
1.00056e-09
1.00008e-09
9.99596e-10
9.99113e-10
9.9863e-10
9.98146e-10
9.97661e-10
9.97176e-10
9.9669e-10
9.96204e-10
9.95716e-10
9.95228e-10
9.9474e-10
9.9425e-10
9.93759e-10
9.93267e-10
9.92773e-10
9.92278e-10
9.9178e-10
9.91281e-10
9.90779e-10
9.90274e-10
9.89766e-10
9.89255e-10
9.88741e-10
9.88223e-10
9.877e-10
9.87174e-10
9.86643e-10
9.86109e-10
9.85569e-10
9.85026e-10
9.84478e-10
9.83927e-10
9.83371e-10
9.82813e-10
9.82251e-10
9.81686e-10
9.8112e-10
9.80552e-10
9.79982e-10
9.79413e-10
9.78844e-10
9.78276e-10
9.77709e-10
9.77146e-10
9.76585e-10
9.76029e-10
9.75477e-10
9.7493e-10
9.74389e-10
9.73855e-10
9.73327e-10
9.72807e-10
9.72294e-10
9.71788e-10
9.71291e-10
9.70801e-10
9.70318e-10
9.69843e-10
9.69374e-10
9.68912e-10
9.68455e-10
9.68004e-10
9.67557e-10
9.67114e-10
9.66674e-10
9.66237e-10
9.65801e-10
9.65366e-10
9.64931e-10
9.64495e-10
9.64058e-10
9.6362e-10
9.6318e-10
9.62737e-10
9.62292e-10
9.61844e-10
9.61392e-10
9.60937e-10
9.60479e-10
9.60018e-10
9.59553e-10
9.59086e-10
9.58615e-10
9.58141e-10
9.57665e-10
9.57186e-10
9.56705e-10
9.56221e-10
9.55736e-10
9.55249e-10
9.54761e-10
9.54271e-10
9.5378e-10
9.53288e-10
9.52795e-10
9.52302e-10
9.51807e-10
9.51312e-10
9.50817e-10
9.50321e-10
9.49825e-10
9.49328e-10
9.48831e-10
9.48334e-10
9.47836e-10
9.47338e-10
9.4684e-10
9.46341e-10
9.45842e-10
9.45342e-10
9.44842e-10
9.44341e-10
9.4384e-10
9.43339e-10
9.42837e-10
9.42334e-10
9.4183e-10
9.41326e-10
9.40822e-10
9.40316e-10
9.3981e-10
9.39303e-10
9.38795e-10
9.38286e-10
9.37776e-10
9.37266e-10
9.36755e-10
9.36243e-10
9.35729e-10
9.35215e-10
9.347e-10
9.34185e-10
9.33668e-10
9.3315e-10
9.32631e-10
9.32111e-10
9.31591e-10
9.31069e-10
9.30546e-10
9.30023e-10
9.29498e-10
9.28973e-10
9.28446e-10
9.27919e-10
9.27391e-10
9.26861e-10
9.26331e-10
9.258e-10
9.25268e-10
9.24735e-10
9.24201e-10
9.23666e-10
9.2313e-10
9.22594e-10
9.22056e-10
9.21518e-10
9.20978e-10
9.20438e-10
9.19897e-10
9.19356e-10
9.18813e-10
9.1827e-10
9.17725e-10
9.1718e-10
9.16634e-10
9.16088e-10
9.1554e-10
9.14991e-10
9.14442e-10
9.13891e-10
9.1334e-10
9.12787e-10
9.12233e-10
9.11678e-10
9.11121e-10
9.10563e-10
9.10003e-10
9.09441e-10
9.08878e-10
9.08312e-10
9.07744e-10
9.07174e-10
9.06601e-10
9.06026e-10
9.05448e-10
9.04867e-10
9.04283e-10
9.03697e-10
9.03107e-10
9.02514e-10
9.01918e-10
9.0132e-10
9.00718e-10
9.00114e-10
8.99507e-10
8.98898e-10
8.98286e-10
8.97672e-10
8.97056e-10
8.96439e-10
8.95821e-10
8.95201e-10
8.94581e-10
8.93961e-10
8.93341e-10
8.92722e-10
8.92104e-10
8.91487e-10
8.90872e-10
8.9026e-10
8.89649e-10
8.89042e-10
8.88438e-10
8.87838e-10
8.87241e-10
8.86649e-10
8.86061e-10
8.85477e-10
8.84898e-10
8.84323e-10
8.83753e-10
8.83187e-10
8.82626e-10
8.82068e-10
8.81515e-10
8.80966e-10
8.8042e-10
8.79877e-10
8.79336e-10
8.78799e-10
8.78263e-10
8.77728e-10
8.77195e-10
8.76662e-10
8.7613e-10
8.75597e-10
8.75064e-10
8.7453e-10
8.73996e-10
8.73459e-10
8.72922e-10
8.72382e-10
8.7184e-10
8.71296e-10
8.7075e-10
8.70202e-10
8.69651e-10
8.69098e-10
8.68543e-10
8.67985e-10
8.67425e-10
8.66862e-10
8.66298e-10
8.65731e-10
8.65162e-10
8.64592e-10
8.64019e-10
8.63445e-10
8.6287e-10
8.62293e-10
8.61714e-10
8.61134e-10
8.60553e-10
8.59971e-10
8.59387e-10
8.58803e-10
8.58218e-10
8.57631e-10
8.57044e-10
8.56456e-10
8.55867e-10
8.55278e-10
8.54687e-10
8.54096e-10
8.53504e-10
8.52911e-10
8.52318e-10
8.51723e-10
8.51128e-10
8.50532e-10
8.49935e-10
8.49337e-10
8.48739e-10
8.48139e-10
8.47539e-10
8.46937e-10
8.46335e-10
8.45731e-10
8.45127e-10
8.44521e-10
8.43915e-10
8.43307e-10
8.42699e-10
8.42089e-10
8.41478e-10
8.40866e-10
8.40253e-10
8.39638e-10
8.39023e-10
8.38406e-10
8.37788e-10
8.37169e-10
8.36548e-10
8.35927e-10
8.35304e-10
8.3468e-10
8.34054e-10
8.33428e-10
8.328e-10
8.3217e-10
8.3154e-10
8.30908e-10
8.30275e-10
8.29641e-10
8.29005e-10
8.28368e-10
8.2773e-10
8.27091e-10
8.2645e-10
8.25808e-10
8.25165e-10
8.2452e-10
8.23875e-10
8.23227e-10
8.2258e-10
8.21929e-10
8.21279e-10
8.20627e-10
8.19974e-10
8.19319e-10
8.18663e-10
8.18006e-10
8.17347e-10
8.16688e-10
8.16027e-10
8.15365e-10
8.14701e-10
8.14036e-10
8.1337e-10
8.12701e-10
8.12032e-10
8.11361e-10
8.10689e-10
8.10015e-10
8.09339e-10
8.08662e-10
8.07982e-10
8.07301e-10
8.06618e-10
8.05933e-10
8.05246e-10
8.04556e-10
8.03865e-10
8.03169e-10
8.02475e-10
8.01774e-10
8.01076e-10
8.00368e-10
7.99666e-10
7.98952e-10
7.98245e-10
7.97525e-10
7.96814e-10
7.96088e-10
7.95372e-10
7.9464e-10
7.9392e-10
7.93183e-10
7.92459e-10
7.91718e-10
7.90989e-10
7.90244e-10
7.89511e-10
7.88763e-10
7.88027e-10
7.87277e-10
7.86538e-10
7.85787e-10
7.85045e-10
7.84294e-10
7.8355e-10
7.82799e-10
7.82055e-10
7.81305e-10
7.8056e-10
7.79812e-10
7.79069e-10
7.78323e-10
7.7758e-10
7.76837e-10
7.76096e-10
7.75357e-10
7.74623e-10
7.73889e-10
7.73157e-10
7.72428e-10
7.717e-10
7.70974e-10
7.7025e-10
7.69528e-10
7.68807e-10
7.68089e-10
7.67371e-10
7.66655e-10
7.65939e-10
7.65225e-10
7.64511e-10
7.63797e-10
7.63082e-10
7.62368e-10
7.61653e-10
7.60937e-10
7.6022e-10
7.59502e-10
7.58783e-10
7.58062e-10
7.57338e-10
7.56615e-10
7.55886e-10
7.55159e-10
7.54426e-10
7.53693e-10
7.52956e-10
7.52217e-10
7.51475e-10
7.50731e-10
7.49984e-10
7.49235e-10
7.48481e-10
7.47726e-10
7.46968e-10
7.46207e-10
7.45443e-10
7.44678e-10
7.43909e-10
7.43137e-10
7.42364e-10
7.41587e-10
7.40809e-10
7.40028e-10
7.39244e-10
7.38459e-10
7.37669e-10
7.3688e-10
7.36087e-10
7.35293e-10
7.34495e-10
7.33696e-10
7.32894e-10
7.32091e-10
7.31285e-10
7.30478e-10
7.29667e-10
7.28856e-10
)
;

boundaryField
{
    inlet
    {
        type            calculated;
        value           uniform -1.13622e-09;
    }
    outlet
    {
        type            calculated;
        value           uniform 8.12861e-10;
    }
    emptyWalls
    {
        type            empty;
        value           nonuniform List<scalar> 0();
    }
}


// ************************************************************************* //
