/*--------------------------------*- C++ -*----------------------------------*\
  =========                 |
  \\      /  F ield         | OpenFOAM: The Open Source CFD Toolbox
   \\    /   O peration     | Website:  https://openfoam.org
    \\  /    A nd           | Version:  9
     \\/     M anipulation  |
\*---------------------------------------------------------------------------*/
FoamFile
{
    format      ascii;
    class       volScalarField;
    location    "28200";
    object      Sb;
}
// * * * * * * * * * * * * * * * * * * * * * * * * * * * * * * * * * * * * * //

dimensions      [0 0 0 0 0 0 0];

internalField   nonuniform List<scalar> 
1000
(
0.35019
0.35056
0.351044
0.351546
0.352042
0.352543
0.353051
0.353562
0.354074
0.354606
0.355119
0.355677
0.35619
0.356774
0.357284
0.357887
0.3584
0.358998
0.359531
0.360104
0.36065
0.361195
0.361725
0.362239
0.362728
0.363195
0.363629
0.364033
0.364402
0.36473
0.365038
0.365284
0.365551
0.365721
0.365961
0.366127
0.366521
0.367589
0.371675
0.392301
0.523703
0.636596
0.657865
0.664659
0.668008
0.670122
0.671665
0.672894
0.673919
0.674799
0.675569
0.676258
0.676886
0.677465
0.677994
0.67847
0.678888
0.679249
0.679561
0.679835
0.680084
0.68032
0.68055
0.680775
0.680993
0.681199
0.68139
0.681569
0.681761
0.681949
0.68212
0.682273
0.682407
0.68252
0.682614
0.682691
0.682751
0.682796
0.682828
0.682849
0.68286
0.68286
0.682852
0.682834
0.682809
0.682775
0.682732
0.68268
0.68262
0.68255
0.68247
0.68238
0.682281
0.68217
0.682049
0.681916
0.681771
0.681614
0.681443
0.681257
0.681055
0.680834
0.680593
0.680328
0.680034
0.679704
0.679331
0.678906
0.678421
0.677868
0.677248
0.676566
0.675836
0.675075
0.674292
0.673495
0.672687
0.671873
0.671055
0.670234
0.669413
0.668591
0.667771
0.666952
0.666135
0.665321
0.664509
0.6637
0.662895
0.662093
0.661295
0.6605
0.65971
0.658923
0.658139
0.65736
0.656584
0.655812
0.655043
0.654278
0.653516
0.652759
0.652005
0.651255
0.650509
0.649767
0.649028
0.648294
0.647564
0.646837
0.646114
0.645395
0.644678
0.643965
0.643254
0.642544
0.641837
0.641131
0.640427
0.639725
0.639025
0.638326
0.637631
0.636938
0.636249
0.635562
0.63488
0.634201
0.633526
0.632856
0.632191
0.631531
0.630876
0.630227
0.629584
0.628946
0.628313
0.627685
0.627062
0.626443
0.625828
0.625215
0.624606
0.623998
0.623393
0.622789
0.622186
0.621585
0.620985
0.620386
0.619789
0.619193
0.618599
0.618007
0.617416
0.616827
0.61624
0.615656
0.615073
0.614493
0.613916
0.613341
0.612768
0.612198
0.61163
0.611064
0.610501
0.60994
0.609381
0.608825
0.608271
0.607719
0.607169
0.606621
0.606076
0.605532
0.60499
0.604451
0.603913
0.603378
0.602844
0.602312
0.601782
0.601254
0.600728
0.600203
0.599681
0.59916
0.598641
0.598123
0.597608
0.597094
0.596582
0.596072
0.595563
0.595056
0.594551
0.594047
0.593546
0.593045
0.592547
0.592049
0.591554
0.59106
0.590568
0.590077
0.589587
0.5891
0.588614
0.588129
0.587646
0.587164
0.586684
0.586205
0.585728
0.585252
0.584778
0.584305
0.583834
0.583364
0.582896
0.582428
0.581962
0.581498
0.581035
0.580573
0.580113
0.579654
0.579197
0.578741
0.578286
0.577833
0.577381
0.576931
0.576481
0.576033
0.575586
0.575139
0.574694
0.574249
0.573806
0.573362
0.57292
0.572477
0.572036
0.571595
0.571155
0.570715
0.570276
0.569838
0.569401
0.568965
0.56853
0.568096
0.567664
0.567234
0.566805
0.566378
0.565953
0.565531
0.565111
0.564692
0.564277
0.563863
0.563452
0.563043
0.562637
0.562232
0.561829
0.561428
0.561029
0.56063
0.560233
0.559837
0.559442
0.559048
0.558654
0.558261
0.557869
0.557476
0.557085
0.556693
0.556303
0.555912
0.555523
0.555133
0.554745
0.554357
0.55397
0.553583
0.553198
0.552812
0.552429
0.552045
0.551663
0.551281
0.550902
0.550521
0.550143
0.549765
0.549389
0.549013
0.548638
0.548264
0.547891
0.547519
0.547148
0.546777
0.546408
0.546038
0.545671
0.545303
0.544938
0.544572
0.544208
0.543843
0.543481
0.543118
0.542757
0.542395
0.542036
0.541676
0.541318
0.540959
0.540603
0.540246
0.53989
0.539535
0.539181
0.538827
0.538474
0.538122
0.537771
0.537419
0.53707
0.53672
0.536371
0.536023
0.535675
0.535328
0.534982
0.534637
0.534292
0.533947
0.533604
0.533261
0.532919
0.532577
0.532236
0.531896
0.531556
0.531217
0.530879
0.53054
0.530203
0.529866
0.529531
0.529195
0.52886
0.528526
0.528193
0.527859
0.527527
0.527195
0.526865
0.526533
0.526204
0.525874
0.525546
0.525217
0.52489
0.524562
0.524237
0.52391
0.523585
0.523258
0.522935
0.522609
0.522286
0.52196
0.521638
0.521313
0.520991
0.520666
0.520344
0.52002
0.519699
0.519376
0.519055
0.518733
0.518413
0.518091
0.517772
0.517451
0.517134
0.516814
0.516498
0.516181
0.515866
0.51555
0.515238
0.514924
0.514614
0.514303
0.513995
0.513686
0.51338
0.513073
0.51277
0.512466
0.512165
0.511862
0.511563
0.511261
0.510964
0.510664
0.510368
0.510069
0.509774
0.509476
0.509181
0.508884
0.50859
0.508293
0.508
0.507704
0.50741
0.507114
0.506822
0.506526
0.506234
0.505939
0.505647
0.505352
0.505061
0.504767
0.504476
0.504183
0.503893
0.503601
0.503312
0.50302
0.502732
0.502441
0.502153
0.501863
0.501576
0.501287
0.501001
0.500713
0.500428
0.500141
0.499856
0.49957
0.499286
0.499
0.498718
0.498433
0.498151
0.497867
0.497586
0.497302
0.497022
0.496739
0.496459
0.496177
0.495898
0.495617
0.495339
0.495058
0.494781
0.494501
0.494224
0.493945
0.493668
0.49339
0.493114
0.492836
0.492561
0.492284
0.49201
0.491733
0.491459
0.491183
0.49091
0.490635
0.490362
0.490087
0.489816
0.489541
0.48927
0.488997
0.488726
0.488453
0.488183
0.487911
0.487641
0.487369
0.487101
0.486829
0.486561
0.48629
0.486023
0.485753
0.485486
0.485216
0.48495
0.484681
0.484415
0.484147
0.483881
0.483614
0.483349
0.483082
0.482818
0.482551
0.482287
0.482021
0.481758
0.481493
0.48123
0.480965
0.480703
0.480438
0.480176
0.479912
0.47965
0.479386
0.479125
0.478861
0.4786
0.478336
0.478075
0.477812
0.477551
0.477287
0.477027
0.476764
0.476503
0.47624
0.47598
0.475718
0.475458
0.475196
0.474937
0.474675
0.474416
0.474155
0.473897
0.473637
0.47338
0.473121
0.472864
0.472606
0.472351
0.472094
0.47184
0.471584
0.471332
0.471077
0.470825
0.470572
0.470322
0.47007
0.46982
0.469569
0.469321
0.469071
0.468824
0.468575
0.468328
0.46808
0.467834
0.467586
0.467341
0.467093
0.466848
0.466601
0.466356
0.466109
0.465865
0.465618
0.465373
0.465127
0.464882
0.464636
0.464392
0.464145
0.463902
0.463655
0.463412
0.463165
0.462922
0.462676
0.462433
0.462187
0.461944
0.461699
0.461456
0.461211
0.460969
0.460724
0.460483
0.460238
0.459997
0.459753
0.459512
0.459268
0.459027
0.458784
0.458544
0.458301
0.458061
0.457818
0.457578
0.457336
0.457097
0.456855
0.456616
0.456374
0.456136
0.455895
0.455656
0.455415
0.455177
0.454937
0.454699
0.454458
0.454221
0.453981
0.453744
0.453504
0.453267
0.453027
0.452791
0.452552
0.452315
0.452076
0.45184
0.451601
0.451365
0.451127
0.450891
0.450653
0.450417
0.450179
0.449944
0.449707
0.449471
0.449234
0.448999
0.448762
0.448527
0.44829
0.448056
0.447819
0.447585
0.447349
0.447115
0.446878
0.446645
0.446409
0.446175
0.445939
0.445706
0.44547
0.445237
0.445002
0.444769
0.444534
0.444301
0.444066
0.443833
0.443599
0.443366
0.443132
0.4429
0.442665
0.442433
0.442199
0.441967
0.441733
0.441501
0.441267
0.441035
0.440801
0.44057
0.440335
0.440104
0.43987
0.439638
0.439404
0.439173
0.438939
0.438707
0.438473
0.438241
0.438007
0.437776
0.437541
0.43731
0.437076
0.436844
0.43661
0.436378
0.436144
0.435913
0.435679
0.435447
0.435214
0.434983
0.434749
0.434518
0.434285
0.434055
0.433822
0.433592
0.43336
0.43313
0.432899
0.43267
0.432439
0.43221
0.43198
0.431752
0.431522
0.431295
0.431065
0.430838
0.43061
0.430383
0.430155
0.429929
0.429702
0.429476
0.429249
0.429024
0.428796
0.428572
0.428345
0.42812
0.427893
0.427669
0.427442
0.427217
0.426991
0.426766
0.426539
0.426315
0.426088
0.425863
0.425636
0.425412
0.425185
0.42496
0.424733
0.424508
0.424281
0.424056
0.423828
0.423603
0.423376
0.423151
0.422923
0.422698
0.422471
0.422246
0.422018
0.421793
0.421566
0.421341
0.421113
0.420888
0.42066
0.420435
0.420208
0.419983
0.419755
0.41953
0.419302
0.419077
0.41885
0.418625
0.418397
0.418172
0.417944
0.417719
0.417492
0.417267
0.417039
0.416814
0.416586
0.416361
0.416133
0.415908
0.41568
0.415455
0.415227
0.415002
0.414774
0.414548
0.41432
0.414095
0.413867
0.413641
0.413413
0.413187
0.412959
0.412733
0.412505
0.412279
0.41205
0.411824
0.411595
0.41137
0.411141
0.410915
0.410685
0.41046
0.41023
0.410004
0.409774
0.409548
0.409318
0.409092
0.408862
0.408636
0.408405
0.40818
0.407948
0.407724
0.40749
0.407267
0.407033
0.40681
0.406575
0.406352
0.406117
0.405893
0.405658
0.405435
0.4052
0.404976
0.40474
0.404516
0.404281
0.404057
0.40382
0.403596
0.40336
0.403136
0.402899
0.402674
0.402438
0.402213
0.401975
0.401751
0.401512
0.401288
0.401048
0.400826
0.400582
0.400364
0.400115
0.399902
0.399646
0.399439
0.399176
0.398977
0.398705
0.398514
0.398233
0.39805
0.39776
0.397587
0.397286
0.397122
0.396811
0.396656
0.396337
0.39619
0.395861
0.395723
0.395386
0.395254
0.394911
0.394785
0.394436
0.394314
0.393961
0.393843
0.393485
0.393371
0.39301
0.392898
0.392535
0.392425
0.392061
0.391951
0.391586
0.391476
0.391112
0.391002
0.390638
0.390527
0.390163
0.390052
0.389688
0.389576
0.389212
0.3891
0.388737
0.388623
0.38826
0.388146
0.387783
0.387668
0.387305
0.387189
0.386826
0.38671
0.386346
0.386229
0.385865
0.385746
0.385384
0.385263
0.384901
0.384778
0.384416
0.384293
0.383931
0.383806
0.383444
0.383317
0.382956
0.382827
0.382466
0.382336
0.381975
0.381844
0.381483
0.381351
0.380988
0.380857
0.380493
0.38036
0.379997
0.379862
0.379499
0.379363
0.379
0.378862
0.378499
0.37836
0.377997
0.377856
0.377494
0.377353
0.29482
)
;

boundaryField
{
    inlet
    {
        type            fixedValue;
        value           uniform 0.35;
    }
    outlet
    {
        type            zeroGradient;
    }
    emptyWalls
    {
        type            empty;
    }
}


// ************************************************************************* //
