/*--------------------------------*- C++ -*----------------------------------*\
  =========                 |
  \\      /  F ield         | OpenFOAM: The Open Source CFD Toolbox
   \\    /   O peration     | Website:  https://openfoam.org
    \\  /    A nd           | Version:  9
     \\/     M anipulation  |
\*---------------------------------------------------------------------------*/
FoamFile
{
    format      ascii;
    class       volScalarField;
    location    "8650";
    object      p;
}
// * * * * * * * * * * * * * * * * * * * * * * * * * * * * * * * * * * * * * //

dimensions      [0 0 0 0 0 0 0];

internalField   nonuniform List<scalar> 
1000
(
239935
239513
239097
238686
238281
237882
237486
237095
236708
236326
235959
235640
235460
235359
235271
235186
235103
235020
234937
234855
234773
234691
234609
234528
234446
234365
234283
234201
234120
234038
233956
233874
233791
233708
233625
233541
233456
233370
233284
233197
233110
233021
232932
232842
232752
232661
232569
232477
232383
232289
232195
232100
232004
231907
231810
231712
231613
231514
231414
231314
231212
231111
231008
230905
230801
230697
230592
230486
230380
230273
230166
230058
229949
229840
229730
229620
229509
229397
229285
229172
229059
228945
228830
228715
228599
228483
228366
228249
228131
228012
227893
227774
227653
227533
227411
227289
227167
227044
226921
226797
226672
226547
226421
226295
226168
226041
225913
225785
225656
225526
225396
225266
225135
225004
224872
224739
224606
224472
224338
224204
224069
223933
223797
223660
223523
223386
223247
223109
222970
222830
222690
222550
222409
222267
222125
221983
221840
221697
221553
221408
221263
221118
220972
220826
220679
220532
220384
220236
220087
219938
219788
219638
219487
219335
219183
219031
218878
218725
218571
218417
218262
218107
217951
217795
217638
217481
217323
217165
217006
216847
216688
216528
216367
216206
216045
215883
215721
215558
215395
215231
215067
214902
214737
214571
214405
214239
214072
213904
213736
213568
213399
213230
213060
212890
212719
212548
212376
212204
212031
211858
211685
211511
211336
211162
210986
210811
210634
210458
210280
210103
209925
209746
209567
209388
209208
209028
208847
208665
208484
208302
208119
207936
207752
207568
207384
207199
207014
206828
206642
206455
206268
206080
205892
205703
205514
205325
205135
204945
204754
204563
204371
204179
203986
203793
203600
203406
203211
203016
202821
202625
202429
202232
202035
201837
201639
201441
201242
201042
200842
200642
200441
200240
200038
199836
199633
199430
199227
199023
198818
198613
198408
198202
197995
197789
197581
197374
197165
196957
196748
196538
196328
196117
195906
195695
195483
195271
195058
194844
194630
194416
194201
193986
193771
193554
193338
193121
192903
192685
192467
192248
192028
191808
191588
191367
191146
190924
190702
190479
190256
190032
189807
189583
189357
189132
188905
188678
188451
188223
187995
187766
187536
187306
187076
186845
186613
186381
186149
185916
185682
185448
185214
184979
184744
184509
184273
184037
183801
183565
183328
183091
182854
182616
182378
182138
181896
181651
181400
181144
180881
180612
180339
180063
179787
179510
179232
178955
178677
178400
178122
177844
177567
177289
177011
176734
176456
176178
175901
175623
175345
175067
174790
174512
174234
173957
173679
173401
173123
172846
172568
172290
172012
171735
171457
171179
170901
170624
170346
170068
169790
169513
169235
168957
168679
168401
168124
167846
167568
167290
167012
166735
166457
166179
165901
165623
165345
165068
164790
164512
164234
163956
163678
163401
163123
162845
162567
162289
162011
161733
161456
161178
160900
160622
160344
160066
159788
159510
159233
158955
158677
158399
158121
157843
157565
157288
157010
156732
156454
156176
155898
155620
155342
155065
154787
154509
154231
153953
153675
153398
153120
152842
152564
152286
152008
151731
151453
151175
150897
150619
150341
150064
149786
149508
149230
148952
148675
148397
148119
147841
147563
147286
147008
146730
146452
146175
145897
145619
145341
145064
144786
144508
144230
143953
143675
143397
143120
142842
142564
142287
142009
141731
141454
141176
140899
140621
140343
140066
139788
139511
139233
138956
138678
138401
138124
137846
137569
137292
137014
136737
136460
136182
135905
135628
135351
135073
134796
134519
134242
133965
133687
133410
133133
132856
132579
132301
132024
131747
131470
131192
130915
130638
130360
130083
129806
129528
129251
128973
128696
128419
128141
127864
127586
127308
127031
126753
126476
126198
125921
125643
125365
125088
124810
124532
124255
123977
123700
123422
123144
122867
122589
122311
122034
121756
121478
121201
120923
120645
120368
120090
119812
119534
119257
118979
118701
118424
118146
117868
117591
117313
117035
116757
116480
116202
115924
115647
115369
115091
114813
114536
114258
113980
113702
113425
113147
112869
112591
112313
112036
111758
111480
111202
110924
110647
110369
110091
109813
109535
109257
108980
108702
108424
108146
107868
107590
107313
107035
106757
106479
106201
105923
105645
105367
105090
104812
104534
104256
103978
103700
103422
103144
102867
102589
102311
102033
101755
101477
101199
100921
100643
100366
100088
99809.8
99531.9
99254.1
98976.2
98698.3
98420.4
98142.6
97864.7
97586.8
97309
97031.1
96753.3
96475.4
96197.6
95919.7
95641.9
95364
95086.2
94808.4
94530.5
94252.7
93974.9
93697.1
93419.2
93141.4
92863.6
92585.8
92308
92030.2
91752.4
91474.6
91196.8
90919
90641.3
90363.5
90085.7
89808
89530.2
89252.4
88974.7
88696.9
88419.2
88141.5
87863.8
87586
87308.3
87030.6
86752.9
86475.2
86197.5
85919.9
85642.2
85364.5
85086.9
84809.3
84531.6
84254
83976.4
83698.8
83421.3
83143.7
82866.2
82588.6
82311.1
82033.6
81756.1
81478.6
81201.2
80923.7
80646.3
80368.9
80091.5
79814.1
79536.8
79259.4
78982.1
78704.8
78427.5
78150.2
77872.9
77595.6
77318.4
77041.1
76763.9
76486.6
76209.4
75932.2
75654.9
75377.7
75100.5
74823.2
74546
74268.8
73991.5
73714.2
73437
73159.7
72882.4
72605.1
72327.7
72050.4
71773
71495.6
71218.2
70940.8
70663.4
70385.9
70108.5
69831
69553.5
69276
68998.5
68720.9
68443.4
68165.8
67888.3
67610.7
67333.1
67055.5
66777.9
66500.3
66222.6
65945
65667.4
65389.8
65112.1
64834.5
64556.8
64279.2
64001.5
63723.9
63446.2
63168.5
62890.9
62613.2
62335.6
62057.9
61780.2
61502.6
61224.9
60947.2
60669.5
60391.8
60114.2
59836.5
59558.8
59281.1
59003.4
58725.7
58448
58170.3
57892.6
57614.8
57337.1
57059.4
56781.7
56503.9
56226.2
55948.5
55670.7
55393
55115.2
54837.5
54559.7
54281.9
54004.2
53726.4
53448.6
53170.8
52893
52615.3
52337.5
52059.7
51781.9
51504.1
51226.2
50948.4
50670.6
50392.8
50115
49837.2
49559.3
49281.5
49003.7
48725.9
48448
48170.2
47892.3
47614.5
47336.7
47058.8
46781
46503.1
46225.3
45947.4
45669.6
45391.7
45113.9
44836
44558.2
44280.3
44002.4
43724.6
43446.7
43168.9
42891
42613.2
42335.3
42057.4
41779.6
41501.7
41223.9
40946
40668.2
40390.3
40112.5
39834.6
39556.8
39278.9
39001.1
38723.2
38445.4
38167.6
37889.7
37611.9
37334.1
37056.2
36778.4
36500.6
36222.8
35945
35667.1
35389.3
35111.5
34833.7
34555.9
34278.1
34000.3
33722.5
33444.8
33167
32889.2
32611.4
32333.6
32055.9
31778.1
31500.4
31222.6
30944.9
30667.1
30389.4
30111.7
29833.9
29556.2
29278.5
29000.8
28723.1
28445.4
28167.7
27890
27612.4
27334.7
27057.1
26779.4
26501.8
26224.2
25946.6
25669
25391.4
25113.8
24836.2
24558.7
24281.1
24003.6
23726.1
23448.6
23171.1
22893.6
22616.2
22338.7
22061.3
21783.9
21506.4
21229.1
20951.7
20674.3
20396.9
20119.6
19842.2
19564.9
19287.6
19010.3
18733
18455.7
18178.4
17901.1
17623.8
17346.5
17069.2
16791.9
16514.6
16237.3
15960
15682.7
15405.4
15128.1
14850.8
14573.4
14296.1
14018.7
13741.3
13463.9
13186.5
12909.1
12631.7
12354.3
12076.8
11799.3
11521.8
11244.3
10966.8
10689.3
10411.8
10134.2
9856.67
9579.1
9301.52
9023.94
8746.34
8468.74
8191.13
7913.51
7635.89
7358.26
7080.62
6802.98
6525.34
6247.69
5970.04
5692.39
5414.74
5137.08
4859.42
4581.75
4304.09
4026.42
3748.75
3471.08
3193.41
2915.73
2638.06
2360.38
2082.7
1805.01
1527.33
1249.64
971.945
694.251
416.553
138.852
)
;

boundaryField
{
    inlet
    {
        type            darcyGradPressure;
        gradient        uniform 116344;
        Mf              Mf;
        phi             phi;
        value           uniform 240149;
    }
    outlet
    {
        type            fixedValue;
        value           uniform 0;
    }
    emptyWalls
    {
        type            empty;
    }
}


// ************************************************************************* //
