/*--------------------------------*- C++ -*----------------------------------*\
  =========                 |
  \\      /  F ield         | OpenFOAM: The Open Source CFD Toolbox
   \\    /   O peration     | Website:  https://openfoam.org
    \\  /    A nd           | Version:  9
     \\/     M anipulation  |
\*---------------------------------------------------------------------------*/
FoamFile
{
    format      ascii;
    class       surfaceScalarField;
    location    "8650";
    object      phib;
}
// * * * * * * * * * * * * * * * * * * * * * * * * * * * * * * * * * * * * * //

dimensions      [0 2 0 0 0 0 0];

internalField   nonuniform List<scalar> 
999
(
1.13614e-09
1.13623e-09
1.1363e-09
1.13632e-09
1.13649e-09
1.1365e-09
1.13665e-09
1.13671e-09
1.1369e-09
1.1374e-09
1.13931e-09
1.15225e-09
1.17173e-09
1.17373e-09
1.17378e-09
1.17382e-09
1.17448e-09
1.17534e-09
1.17615e-09
1.17726e-09
1.17832e-09
1.17919e-09
1.17981e-09
1.18022e-09
1.18039e-09
1.18041e-09
1.18032e-09
1.18014e-09
1.17988e-09
1.17956e-09
1.17916e-09
1.17863e-09
1.17793e-09
1.1771e-09
1.17619e-09
1.17524e-09
1.17426e-09
1.17326e-09
1.17225e-09
1.17122e-09
1.17018e-09
1.16912e-09
1.16806e-09
1.16698e-09
1.16589e-09
1.16479e-09
1.16369e-09
1.16258e-09
1.16146e-09
1.16033e-09
1.1592e-09
1.15806e-09
1.15691e-09
1.15576e-09
1.1546e-09
1.15344e-09
1.15226e-09
1.15108e-09
1.14989e-09
1.1487e-09
1.1475e-09
1.14629e-09
1.14507e-09
1.14385e-09
1.14262e-09
1.14139e-09
1.14015e-09
1.1389e-09
1.13765e-09
1.1364e-09
1.13514e-09
1.13388e-09
1.13261e-09
1.13134e-09
1.13006e-09
1.12878e-09
1.1275e-09
1.12621e-09
1.12492e-09
1.12362e-09
1.12232e-09
1.12101e-09
1.11971e-09
1.1184e-09
1.11708e-09
1.11576e-09
1.11444e-09
1.11311e-09
1.11178e-09
1.11045e-09
1.10911e-09
1.10777e-09
1.10642e-09
1.10507e-09
1.10372e-09
1.10237e-09
1.10101e-09
1.09964e-09
1.09828e-09
1.09691e-09
1.09553e-09
1.09416e-09
1.09278e-09
1.0914e-09
1.09002e-09
1.08864e-09
1.08725e-09
1.08586e-09
1.08446e-09
1.08306e-09
1.08165e-09
1.08024e-09
1.07882e-09
1.0774e-09
1.07598e-09
1.07455e-09
1.07311e-09
1.07167e-09
1.07022e-09
1.06876e-09
1.06729e-09
1.0658e-09
1.06429e-09
1.06277e-09
1.06123e-09
1.05967e-09
1.05809e-09
1.0565e-09
1.05488e-09
1.05326e-09
1.05162e-09
1.04998e-09
1.04833e-09
1.04668e-09
1.04504e-09
1.04341e-09
1.0418e-09
1.0402e-09
1.03864e-09
1.0371e-09
1.0356e-09
1.03413e-09
1.0327e-09
1.03131e-09
1.02995e-09
1.02863e-09
1.02733e-09
1.02605e-09
1.02478e-09
1.02352e-09
1.02226e-09
1.021e-09
1.01972e-09
1.01842e-09
1.0171e-09
1.01575e-09
1.01438e-09
1.01299e-09
1.01156e-09
1.01011e-09
1.00864e-09
1.00715e-09
1.00563e-09
1.00411e-09
1.00257e-09
1.00101e-09
9.99453e-10
9.97886e-10
9.96314e-10
9.94739e-10
9.93161e-10
9.91582e-10
9.90002e-10
9.88422e-10
9.86842e-10
9.85262e-10
9.83681e-10
9.82099e-10
9.80517e-10
9.78933e-10
9.77348e-10
9.75761e-10
9.74172e-10
9.7258e-10
9.70985e-10
9.69387e-10
9.67786e-10
9.66181e-10
9.64573e-10
9.6296e-10
9.61344e-10
9.59723e-10
9.58098e-10
9.56469e-10
9.54835e-10
9.53197e-10
9.51555e-10
9.49908e-10
9.48256e-10
9.466e-10
9.44938e-10
9.43272e-10
9.41601e-10
9.39925e-10
9.38243e-10
9.36557e-10
9.34865e-10
9.33167e-10
9.31464e-10
9.29756e-10
9.28042e-10
9.26322e-10
9.24596e-10
9.22864e-10
9.21126e-10
9.19382e-10
9.17632e-10
9.15876e-10
9.14114e-10
9.12345e-10
9.1057e-10
9.08789e-10
9.07001e-10
9.05207e-10
9.03406e-10
9.016e-10
8.99787e-10
8.97967e-10
8.96142e-10
8.9431e-10
8.92471e-10
8.90627e-10
8.88775e-10
8.86918e-10
8.85054e-10
8.83183e-10
8.81306e-10
8.79422e-10
8.77531e-10
8.75633e-10
8.73729e-10
8.71817e-10
8.69899e-10
8.67973e-10
8.6604e-10
8.64099e-10
8.62151e-10
8.60196e-10
8.58232e-10
8.56261e-10
8.54282e-10
8.52294e-10
8.50299e-10
8.48295e-10
8.46284e-10
8.44263e-10
8.42234e-10
8.40197e-10
8.38151e-10
8.36096e-10
8.34032e-10
8.31959e-10
8.29876e-10
8.27784e-10
8.25682e-10
8.2357e-10
8.21447e-10
8.19315e-10
8.17172e-10
8.15018e-10
8.12853e-10
8.10677e-10
8.08489e-10
8.0629e-10
8.04078e-10
8.01854e-10
7.99617e-10
7.97367e-10
7.95103e-10
7.92825e-10
7.90532e-10
7.88223e-10
7.85899e-10
7.83558e-10
7.81201e-10
7.78827e-10
7.76435e-10
7.74025e-10
7.71597e-10
7.6915e-10
7.66685e-10
7.642e-10
7.61697e-10
7.59175e-10
7.56635e-10
7.54076e-10
7.51501e-10
7.48907e-10
7.46298e-10
7.43671e-10
7.4103e-10
7.38373e-10
7.35703e-10
7.33021e-10
7.30326e-10
7.2762e-10
7.24903e-10
7.22176e-10
7.1944e-10
7.16696e-10
7.13944e-10
7.11185e-10
7.08419e-10
7.05648e-10
7.02872e-10
7.00091e-10
6.97307e-10
6.94521e-10
6.91738e-10
6.88959e-10
6.86189e-10
6.83434e-10
6.807e-10
6.77997e-10
6.75336e-10
6.72728e-10
6.70189e-10
6.67734e-10
6.65378e-10
6.63138e-10
6.61027e-10
6.5906e-10
6.57244e-10
6.55581e-10
6.54061e-10
6.52659e-10
6.51322e-10
6.49959e-10
6.48405e-10
6.4637e-10
6.43356e-10
6.38508e-10
6.30409e-10
6.16849e-10
5.94759e-10
5.6082e-10
5.13426e-10
4.55668e-10
3.96294e-10
3.45492e-10
3.0877e-10
2.85507e-10
2.72032e-10
2.64642e-10
2.60713e-10
2.58659e-10
2.57595e-10
2.57047e-10
2.56766e-10
2.56622e-10
2.5655e-10
2.56514e-10
2.56496e-10
2.56489e-10
2.56487e-10
2.56487e-10
2.5649e-10
2.56492e-10
2.56496e-10
2.56499e-10
2.56503e-10
2.56507e-10
2.56511e-10
2.56516e-10
2.5652e-10
2.56524e-10
2.56528e-10
2.56533e-10
2.56537e-10
2.56541e-10
2.56546e-10
2.5655e-10
2.56554e-10
2.56559e-10
2.56563e-10
2.56567e-10
2.56572e-10
2.56576e-10
2.5658e-10
2.56584e-10
2.56589e-10
2.56593e-10
2.56597e-10
2.56601e-10
2.56605e-10
2.56609e-10
2.56613e-10
2.56616e-10
2.5662e-10
2.56624e-10
2.56627e-10
2.56631e-10
2.56634e-10
2.56637e-10
2.5664e-10
2.56643e-10
2.56646e-10
2.56649e-10
2.56651e-10
2.56654e-10
2.56656e-10
2.56658e-10
2.5666e-10
2.56661e-10
2.56663e-10
2.56664e-10
2.56665e-10
2.56666e-10
2.56666e-10
2.56667e-10
2.56667e-10
2.56667e-10
2.56666e-10
2.56666e-10
2.56666e-10
2.56665e-10
2.56664e-10
2.56663e-10
2.56662e-10
2.56661e-10
2.56659e-10
2.56658e-10
2.56656e-10
2.56654e-10
2.56652e-10
2.5665e-10
2.56648e-10
2.56645e-10
2.56643e-10
2.5664e-10
2.56638e-10
2.56635e-10
2.56633e-10
2.5663e-10
2.56627e-10
2.56624e-10
2.56621e-10
2.56618e-10
2.56615e-10
2.56612e-10
2.56609e-10
2.56606e-10
2.56603e-10
2.566e-10
2.56596e-10
2.56593e-10
2.5659e-10
2.56586e-10
2.56583e-10
2.56579e-10
2.56576e-10
2.56572e-10
2.56568e-10
2.56564e-10
2.5656e-10
2.56556e-10
2.56552e-10
2.56548e-10
2.56543e-10
2.56539e-10
2.56534e-10
2.56528e-10
2.56523e-10
2.56517e-10
2.56511e-10
2.56505e-10
2.56498e-10
2.56491e-10
2.56483e-10
2.56475e-10
2.56466e-10
2.56457e-10
2.56447e-10
2.56437e-10
2.56426e-10
2.56414e-10
2.56401e-10
2.56388e-10
2.56374e-10
2.56359e-10
2.56344e-10
2.56327e-10
2.5631e-10
2.56293e-10
2.56274e-10
2.56255e-10
2.56236e-10
2.56216e-10
2.56196e-10
2.56175e-10
2.56155e-10
2.56134e-10
2.56113e-10
2.56093e-10
2.56073e-10
2.56054e-10
2.56036e-10
2.56018e-10
2.56002e-10
2.55987e-10
2.55973e-10
2.55961e-10
2.5595e-10
2.55942e-10
2.55935e-10
2.55931e-10
2.55928e-10
2.55928e-10
2.55928e-10
2.55929e-10
2.55933e-10
2.55942e-10
2.55952e-10
2.55965e-10
2.55979e-10
2.55995e-10
2.56012e-10
2.56031e-10
2.56051e-10
2.56072e-10
2.56093e-10
2.56114e-10
2.56136e-10
2.56158e-10
2.56179e-10
2.562e-10
2.56221e-10
2.5624e-10
2.56259e-10
2.56277e-10
2.56293e-10
2.56309e-10
2.56323e-10
2.56336e-10
2.56348e-10
2.56359e-10
2.56369e-10
2.56377e-10
2.56385e-10
2.56392e-10
2.56398e-10
2.56403e-10
2.56407e-10
2.56411e-10
2.56414e-10
2.56417e-10
2.5642e-10
2.56422e-10
2.56424e-10
2.56426e-10
2.56427e-10
2.56429e-10
2.56431e-10
2.56433e-10
2.56435e-10
2.56437e-10
2.56439e-10
2.56441e-10
2.56443e-10
2.56446e-10
2.56449e-10
2.56452e-10
2.56455e-10
2.56458e-10
2.56462e-10
2.56466e-10
2.56469e-10
2.56473e-10
2.56477e-10
2.56482e-10
2.56486e-10
2.5649e-10
2.56495e-10
2.56499e-10
2.56504e-10
2.56508e-10
2.56513e-10
2.56518e-10
2.56523e-10
2.56528e-10
2.56533e-10
2.56538e-10
2.56543e-10
2.56548e-10
2.56554e-10
2.56559e-10
2.56564e-10
2.56569e-10
2.56574e-10
2.56579e-10
2.56584e-10
2.56589e-10
2.56594e-10
2.56599e-10
2.56603e-10
2.56608e-10
2.56612e-10
2.56616e-10
2.5662e-10
2.56624e-10
2.56627e-10
2.56631e-10
2.56634e-10
2.56638e-10
2.56641e-10
2.56643e-10
2.56646e-10
2.56649e-10
2.56651e-10
2.56653e-10
2.56655e-10
2.56657e-10
2.56659e-10
2.5666e-10
2.56662e-10
2.56663e-10
2.56663e-10
2.56664e-10
2.56665e-10
2.56665e-10
2.56665e-10
2.56665e-10
2.56665e-10
2.56665e-10
2.56664e-10
2.56663e-10
2.56662e-10
2.56661e-10
2.5666e-10
2.56658e-10
2.56656e-10
2.56654e-10
2.56652e-10
2.5665e-10
2.56648e-10
2.56645e-10
2.56643e-10
2.5664e-10
2.56637e-10
2.56634e-10
2.56631e-10
2.56628e-10
2.56625e-10
2.56621e-10
2.56618e-10
2.56615e-10
2.56611e-10
2.56607e-10
2.56604e-10
2.566e-10
2.56596e-10
2.56593e-10
2.56589e-10
2.56585e-10
2.56581e-10
2.56577e-10
2.56572e-10
2.56568e-10
2.56564e-10
2.5656e-10
2.56555e-10
2.56551e-10
2.56546e-10
2.56541e-10
2.56536e-10
2.56531e-10
2.56526e-10
2.5652e-10
2.56515e-10
2.56509e-10
2.56503e-10
2.56497e-10
2.5649e-10
2.56483e-10
2.56476e-10
2.56468e-10
2.5646e-10
2.56452e-10
2.56443e-10
2.56434e-10
2.56424e-10
2.56414e-10
2.56404e-10
2.56392e-10
2.56381e-10
2.56368e-10
2.56356e-10
2.56342e-10
2.56329e-10
2.56314e-10
2.56299e-10
2.56284e-10
2.56268e-10
2.56252e-10
2.56236e-10
2.56219e-10
2.56202e-10
2.56185e-10
2.56168e-10
2.56151e-10
2.56134e-10
2.56117e-10
2.56101e-10
2.56085e-10
2.56069e-10
2.56054e-10
2.5604e-10
2.56027e-10
2.56015e-10
2.56004e-10
2.55994e-10
2.55985e-10
2.55978e-10
2.55972e-10
2.55968e-10
2.55966e-10
2.55965e-10
2.55965e-10
2.55965e-10
2.55966e-10
2.55972e-10
2.55979e-10
2.55988e-10
2.55998e-10
2.5601e-10
2.56023e-10
2.56037e-10
2.56052e-10
2.56069e-10
2.56085e-10
2.56103e-10
2.5612e-10
2.56138e-10
2.56156e-10
2.56174e-10
2.56192e-10
2.5621e-10
2.56227e-10
2.56243e-10
2.56259e-10
2.56274e-10
2.56288e-10
2.56301e-10
2.56314e-10
2.56326e-10
2.56336e-10
2.56346e-10
2.56355e-10
2.56364e-10
2.56371e-10
2.56378e-10
2.56384e-10
2.56389e-10
2.56394e-10
2.56398e-10
2.56402e-10
2.56405e-10
2.56408e-10
2.56411e-10
2.56414e-10
2.56416e-10
2.56418e-10
2.5642e-10
2.56423e-10
2.56425e-10
2.56427e-10
2.56429e-10
2.56431e-10
2.56434e-10
2.56436e-10
2.56439e-10
2.56442e-10
2.56445e-10
2.56448e-10
2.56451e-10
2.56455e-10
2.56458e-10
2.56462e-10
2.56466e-10
2.5647e-10
2.56474e-10
2.56479e-10
2.56483e-10
2.56487e-10
2.56492e-10
2.56497e-10
2.56501e-10
2.56506e-10
2.56511e-10
2.56515e-10
2.5652e-10
2.56525e-10
2.56529e-10
2.56534e-10
2.56538e-10
2.56543e-10
2.56547e-10
2.56552e-10
2.56556e-10
2.5656e-10
2.56564e-10
2.56568e-10
2.56572e-10
2.56575e-10
2.56579e-10
2.56582e-10
2.56586e-10
2.56589e-10
2.56592e-10
2.56595e-10
2.56598e-10
2.566e-10
2.56603e-10
2.56605e-10
2.56608e-10
2.5661e-10
2.56612e-10
2.56614e-10
2.56616e-10
2.56618e-10
2.5662e-10
2.56621e-10
2.56623e-10
2.56624e-10
2.56625e-10
2.56626e-10
2.56627e-10
2.56628e-10
2.56629e-10
2.5663e-10
2.5663e-10
2.5663e-10
2.56631e-10
2.56631e-10
2.56631e-10
2.56631e-10
2.56631e-10
2.5663e-10
2.5663e-10
2.56629e-10
2.56628e-10
2.56627e-10
2.56626e-10
2.56625e-10
2.56623e-10
2.56622e-10
2.5662e-10
2.56618e-10
2.56616e-10
2.56614e-10
2.56612e-10
2.5661e-10
2.56607e-10
2.56605e-10
2.56602e-10
2.56599e-10
2.56596e-10
2.56593e-10
2.5659e-10
2.56587e-10
2.56584e-10
2.5658e-10
2.56577e-10
2.56573e-10
2.5657e-10
2.56566e-10
2.56562e-10
2.56558e-10
2.56554e-10
2.5655e-10
2.56546e-10
2.56542e-10
2.56537e-10
2.56533e-10
2.56528e-10
2.56523e-10
2.56518e-10
2.56513e-10
2.56507e-10
2.56502e-10
2.56496e-10
2.56489e-10
2.56483e-10
2.56476e-10
2.56469e-10
2.56462e-10
2.56454e-10
2.56446e-10
2.56438e-10
2.56429e-10
2.5642e-10
2.5641e-10
2.564e-10
2.5639e-10
2.56379e-10
2.56368e-10
2.56357e-10
2.56345e-10
2.56332e-10
2.5632e-10
2.56307e-10
2.56293e-10
2.5628e-10
2.56266e-10
2.56252e-10
2.56237e-10
2.56223e-10
2.56209e-10
2.56194e-10
2.5618e-10
2.56166e-10
2.56152e-10
2.56139e-10
2.56126e-10
2.56113e-10
2.56101e-10
2.56089e-10
2.56079e-10
2.56069e-10
2.5606e-10
2.56052e-10
2.56045e-10
2.56039e-10
2.56034e-10
2.5603e-10
2.56028e-10
2.56027e-10
2.56026e-10
2.56026e-10
2.56027e-10
2.5603e-10
2.56036e-10
2.56042e-10
2.5605e-10
2.56059e-10
2.56069e-10
2.5608e-10
2.56091e-10
2.56104e-10
2.56117e-10
2.56131e-10
2.56145e-10
2.5616e-10
2.56175e-10
2.56189e-10
2.56204e-10
2.56219e-10
2.56234e-10
2.56248e-10
2.56262e-10
2.56275e-10
2.56288e-10
2.563e-10
2.56312e-10
2.56323e-10
2.56333e-10
2.56343e-10
2.56352e-10
2.5636e-10
2.56368e-10
2.56375e-10
2.56382e-10
2.56388e-10
2.56393e-10
2.56398e-10
2.56402e-10
2.56406e-10
2.5641e-10
2.56413e-10
2.56416e-10
2.56419e-10
2.56421e-10
2.56423e-10
2.56426e-10
2.56428e-10
2.5643e-10
2.56432e-10
2.56434e-10
2.56436e-10
2.56439e-10
2.56441e-10
2.56443e-10
2.56446e-10
2.56449e-10
2.56451e-10
2.56454e-10
2.56457e-10
2.56461e-10
2.56464e-10
)
;

boundaryField
{
    inlet
    {
        type            calculated;
        value           uniform -1.13622e-09;
    }
    outlet
    {
        type            calculated;
        value           uniform 2.56468e-10;
    }
    emptyWalls
    {
        type            empty;
        value           nonuniform List<scalar> 0();
    }
}


// ************************************************************************* //
