/*--------------------------------*- C++ -*----------------------------------*\
  =========                 |
  \\      /  F ield         | OpenFOAM: The Open Source CFD Toolbox
   \\    /   O peration     | Website:  https://openfoam.org
    \\  /    A nd           | Version:  9
     \\/     M anipulation  |
\*---------------------------------------------------------------------------*/
FoamFile
{
    format      ascii;
    class       volScalarField;
    location    "28900";
    object      Fa;
}
// * * * * * * * * * * * * * * * * * * * * * * * * * * * * * * * * * * * * * //

dimensions      [0 0 0 0 0 0 0];

internalField   nonuniform List<scalar> 
1000
(
0.194819
0.194798
0.194792
0.194794
0.194774
0.194768
0.194755
0.194734
0.194716
0.194701
0.194663
0.194666
0.194602
0.194622
0.194524
0.194563
0.19444
0.194476
0.194369
0.194367
0.194298
0.194259
0.19421
0.194163
0.194113
0.194072
0.194022
0.193982
0.193939
0.193896
0.193868
0.193812
0.193821
0.193737
0.193787
0.193689
0.193738
0.193638
0.193549
0.193006
0.18951
0.165484
0.153292
0.150989
0.150114
0.14965
0.149352
0.149124
0.148921
0.148735
0.148584
0.148483
0.148416
0.148342
0.148226
0.148065
0.147899
0.147793
0.147804
0.147959
0.148242
0.1486
0.148966
0.149275
0.149484
0.149577
0.149571
0.149503
0.149417
0.149311
0.149027
0.148588
0.148147
0.147734
0.14737
0.147064
0.14682
0.146634
0.1465
0.146413
0.146353
0.14632
0.146289
0.146276
0.146259
0.146241
0.146213
0.146176
0.14613
0.146078
0.146021
0.145961
0.145898
0.145835
0.145772
0.145709
0.145648
0.145588
0.145529
0.145473
0.145418
0.145365
0.145315
0.145266
0.14522
0.145176
0.145134
0.145093
0.145055
0.14502
0.144988
0.144958
0.144932
0.144909
0.144889
0.144871
0.144852
0.144835
0.144817
0.1448
0.144783
0.144768
0.144753
0.14474
0.144728
0.144719
0.144711
0.144705
0.1447
0.144697
0.144693
0.14469
0.144686
0.144682
0.144677
0.144672
0.144668
0.144665
0.144662
0.144663
0.144665
0.144672
0.144679
0.144689
0.144699
0.144709
0.144715
0.144721
0.144722
0.144723
0.144719
0.144714
0.144707
0.144702
0.144699
0.144704
0.14472
0.144754
0.144805
0.144879
0.144972
0.145086
0.145214
0.145358
0.145508
0.145668
0.145826
0.145988
0.146141
0.146291
0.146425
0.146548
0.146645
0.146724
0.146769
0.146789
0.146772
0.146729
0.14665
0.146551
0.146422
0.146283
0.146124
0.145966
0.145799
0.145643
0.145487
0.14535
0.145217
0.145109
0.145006
0.144927
0.144854
0.144803
0.144754
0.144724
0.144692
0.144677
0.144655
0.144647
0.144629
0.144624
0.144606
0.144599
0.144578
0.144568
0.144542
0.144529
0.144499
0.144483
0.144449
0.14443
0.144393
0.144372
0.144334
0.144312
0.144273
0.14425
0.144211
0.144189
0.14415
0.144128
0.144091
0.14407
0.144034
0.144013
0.143979
0.143959
0.143927
0.143908
0.143878
0.14386
0.143832
0.143815
0.143789
0.143772
0.143748
0.143732
0.143709
0.143695
0.143674
0.143662
0.143642
0.143631
0.143614
0.143605
0.14359
0.143583
0.143569
0.143564
0.143551
0.143547
0.143535
0.143532
0.14352
0.143519
0.143508
0.143509
0.143497
0.143501
0.143491
0.143496
0.143487
0.143496
0.143487
0.143498
0.143489
0.143502
0.143492
0.143504
0.143492
0.143504
0.143489
0.1435
0.143484
0.143497
0.143483
0.143501
0.143492
0.143519
0.143521
0.143562
0.143577
0.143635
0.143668
0.143744
0.143795
0.14389
0.143958
0.144068
0.144149
0.144271
0.144361
0.144488
0.144579
0.144704
0.144788
0.144902
0.144971
0.145066
0.145112
0.145181
0.145197
0.145233
0.145216
0.145219
0.145167
0.145137
0.145056
0.144998
0.144892
0.144814
0.144693
0.144605
0.144477
0.144386
0.14426
0.144175
0.144058
0.143984
0.143879
0.143819
0.143729
0.143683
0.143607
0.143575
0.143512
0.143491
0.143438
0.143426
0.14338
0.143374
0.143332
0.14333
0.143291
0.14329
0.143251
0.14325
0.143211
0.143209
0.143168
0.143165
0.143123
0.143118
0.143074
0.143068
0.143023
0.143016
0.142969
0.142961
0.142915
0.142906
0.142859
0.142851
0.142804
0.142796
0.14275
0.142743
0.142697
0.14269
0.142645
0.142639
0.142595
0.14259
0.142547
0.142544
0.142501
0.142499
0.142458
0.142456
0.142416
0.142416
0.142378
0.142379
0.142341
0.142344
0.142308
0.142312
0.142277
0.142282
0.142249
0.142256
0.142223
0.142231
0.1422
0.142209
0.142179
0.142189
0.14216
0.142172
0.142144
0.142156
0.142129
0.142143
0.142117
0.142132
0.142107
0.142123
0.1421
0.142117
0.142093
0.142111
0.142089
0.142107
0.142084
0.142103
0.14208
0.142099
0.142077
0.142096
0.142075
0.142095
0.142076
0.142099
0.142083
0.142111
0.142101
0.142135
0.142132
0.142174
0.14218
0.142231
0.142247
0.14231
0.142336
0.142409
0.142446
0.142529
0.142575
0.142667
0.14272
0.142817
0.142874
0.142973
0.143031
0.143129
0.143182
0.143274
0.143319
0.143401
0.143433
0.1435
0.143517
0.143566
0.143563
0.143592
0.143569
0.143577
0.143533
0.143522
0.143459
0.14343
0.143351
0.143307
0.143216
0.143163
0.143064
0.143006
0.142904
0.142845
0.142744
0.142687
0.14259
0.142539
0.142448
0.142404
0.142321
0.142285
0.14221
0.142182
0.142115
0.142094
0.142033
0.142019
0.141964
0.141954
0.141904
0.141898
0.14185
0.141847
0.141801
0.141799
0.141754
0.141752
0.141708
0.141706
0.141661
0.14166
0.141614
0.141612
0.141566
0.141563
0.141516
0.141513
0.141466
0.141462
0.141414
0.14141
0.141362
0.141359
0.141311
0.141307
0.14126
0.141256
0.141209
0.141206
0.14116
0.141158
0.141112
0.14111
0.141065
0.141065
0.14102
0.141021
0.140977
0.140979
0.140936
0.140939
0.140897
0.140901
0.140861
0.140865
0.140826
0.140832
0.140794
0.140801
0.140764
0.140772
0.140736
0.140745
0.14071
0.140721
0.140687
0.140698
0.140665
0.140678
0.140645
0.140659
0.140628
0.140642
0.140612
0.140628
0.140598
0.140615
0.140586
0.140603
0.140575
0.140593
0.140566
0.140585
0.140558
0.140577
0.140551
0.140571
0.140545
0.140566
0.140541
0.140562
0.140539
0.140562
0.14054
0.140565
0.140546
0.140574
0.140558
0.14059
0.140578
0.140615
0.140608
0.140651
0.14065
0.140699
0.140705
0.140761
0.140774
0.140836
0.140855
0.140924
0.14095
0.141024
0.141055
0.141133
0.141167
0.141249
0.141284
0.141366
0.141401
0.141481
0.141513
0.141589
0.141615
0.141684
0.141702
0.141763
0.141771
0.14182
0.141816
0.141852
0.141835
0.141858
0.141827
0.141837
0.141793
0.141789
0.141732
0.141717
0.141649
0.141623
0.141547
0.141514
0.141431
0.141393
0.141306
0.141265
0.141176
0.141136
0.141048
0.141009
0.140923
0.140887
0.140806
0.140774
0.140697
0.14067
0.140598
0.140576
0.140509
0.140491
0.140428
0.140416
0.140356
0.140347
0.140292
0.140285
0.140232
0.140228
0.140177
0.140175
0.140125
0.140124
0.140075
0.140075
0.140026
0.140026
0.139978
0.139978
0.139929
0.13993
0.139881
0.139881
0.139832
0.139833
0.139783
0.139784
0.139734
0.139735
0.139686
0.139686
0.139637
0.139638
0.139589
0.13959
0.139542
0.139543
0.139495
0.139497
0.13945
0.139453
0.139406
0.139409
0.139363
0.139368
0.139322
0.139327
0.139283
0.139289
0.139245
0.139252
0.13921
0.139217
0.139176
0.139184
0.139144
0.139153
0.139113
0.139124
0.139085
0.139097
0.139058
0.139071
0.139034
0.139047
0.13901
0.139025
0.138989
0.139004
0.138969
0.138985
0.138951
0.138968
0.138935
0.138952
0.138919
0.138938
0.138906
0.138924
0.138893
0.138912
0.138881
0.138902
0.138871
0.138892
0.138863
0.138884
0.138856
0.138878
0.13885
0.138874
0.138848
0.138873
0.138849
0.138876
0.138854
0.138884
0.138864
0.138897
0.138881
0.138917
0.138905
0.138945
0.138936
0.138981
0.138977
0.139027
0.139027
0.139081
0.139086
0.139144
0.139154
0.139216
0.139229
0.139295
0.139311
0.13938
0.139398
0.139469
0.139488
0.139558
0.139577
0.139646
0.139663
0.13973
0.139743
0.139807
0.139815
0.139872
0.139875
0.139925
0.13992
0.139962
0.139948
0.139982
0.139959
0.139983
0.13995
0.139965
0.139923
0.139929
0.139877
0.139874
0.139815
0.139804
0.139737
0.139721
0.139648
0.139626
0.139549
0.139524
0.139445
0.139418
0.139337
0.13931
0.139229
0.139202
0.139123
0.139098
0.13902
0.138998
0.138923
0.138904
0.138831
0.138816
0.138746
0.138734
0.138668
0.138659
0.138595
0.138589
0.138528
0.138524
0.138465
0.138464
0.138407
0.138408
0.138352
0.138354
0.138299
0.138302
0.138248
0.138252
0.138199
0.138203
0.13815
0.138155
0.138102
0.138107
0.138054
0.138059
0.138007
0.138012
0.137959
0.137965
0.137912
0.137918
0.137865
0.137871
0.137819
0.137824
0.137773
0.137779
0.137727
0.137734
0.137682
0.137689
0.137639
0.137646
0.137596
0.137604
0.137554
0.137563
0.137513
0.137523
0.137474
0.137485
0.137436
0.137448
0.137399
0.137412
0.137364
0.137378
0.13733
0.137346
0.137298
0.137316
0.137267
0.137287
0.137238
0.137259
0.13721
0.137234
0.137183
0.137209
0.137158
0.137187
0.137134
0.137165
0.137111
0.137145
0.13709
0.137127
0.13707
0.137109
0.137051
0.137093
0.137034
0.137079
0.137017
0.137065
0.137002
0.137053
0.136989
0.137041
0.136977
0.137032
0.136967
0.137025
0.136959
0.137021
0.136954
0.137018
0.136953
0.137018
0.136955
0.137022
0.136962
0.137031
0.136973
0.137044
0.136989
0.137064
0.137011
0.13709
0.13704
0.137122
0.137074
0.137161
0.137116
0.137207
0.137163
0.137259
0.137216
0.137316
0.137275
0.137378
0.137338
0.137443
0.137404
0.13751
0.137472
0.137578
0.13754
0.137645
0.137607
0.137711
0.13767
0.137774
0.137729
0.137831
0.137781
0.137881
0.137824
0.137922
0.137856
0.13795
0.137876
0.137965
0.137884
0.137967
0.137878
0.137954
0.137858
0.137927
0.137823
0.137886
0.137775
0.137832
0.137714
0.137766
0.137643
0.13769
0.137563
0.137607
0.137476
0.137518
0.137385
0.137426
0.13729
0.137331
0.137195
0.137236
0.1371
0.137142
0.137007
0.137051
0.136916
0.136962
0.136829
0.136878
0.136746
0.136797
0.136667
0.136721
0.136592
0.136649
0.136522
0.136581
0.136455
0.136516
0.136392
0.136455
0.136332
0.136397
0.136274
0.13634
0.136219
0.136286
0.136165
0.136233
0.136112
0.136182
0.136061
0.136131
0.13601
0.136081
0.13596
0.136031
0.13591
0.135982
0.135761
0.988535
)
;

boundaryField
{
    inlet
    {
        type            calculated;
        value           uniform 0.194831;
    }
    outlet
    {
        type            calculated;
        value           uniform 0.0421998;
    }
    emptyWalls
    {
        type            empty;
    }
}


// ************************************************************************* //
