/*--------------------------------*- C++ -*----------------------------------*\
  =========                 |
  \\      /  F ield         | OpenFOAM: The Open Source CFD Toolbox
   \\    /   O peration     | Website:  https://openfoam.org
    \\  /    A nd           | Version:  9
     \\/     M anipulation  |
\*---------------------------------------------------------------------------*/
FoamFile
{
    format      ascii;
    class       volScalarField;
    location    "28900";
    object      kra;
}
// * * * * * * * * * * * * * * * * * * * * * * * * * * * * * * * * * * * * * //

dimensions      [0 0 0 0 0 0 0];

internalField   nonuniform List<scalar> 
1000
(
0.000236605
0.000237278
0.000238175
0.000239089
0.000239998
0.000240917
0.000241841
0.000242768
0.000243707
0.000244658
0.000245607
0.000246588
0.000247546
0.000248558
0.000249518
0.000250557
0.00025152
0.000252569
0.000253544
0.000254574
0.000255559
0.000256548
0.000257512
0.00025845
0.000259352
0.000260216
0.000261027
0.000261786
0.000262484
0.00026312
0.000263701
0.000264205
0.000264688
0.000265065
0.000265474
0.000265767
0.000266173
0.000266765
0.000268714
0.000275866
0.000311255
0.000553877
0.000825845
0.000879466
0.000895515
0.000903144
0.000907886
0.000911261
0.000913788
0.000915793
0.000917592
0.000919391
0.000921159
0.000922673
0.000923716
0.000924292
0.00092469
0.00092537
0.00092675
0.000929023
0.000932092
0.000935613
0.000939121
0.000942171
0.000944459
0.000945882
0.000946549
0.00094672
0.00094671
0.000946514
0.000945013
0.000942365
0.000939661
0.000937112
0.000934867
0.000932996
0.000931525
0.000930433
0.000929672
0.000929217
0.000928926
0.000928791
0.000928646
0.000928601
0.000928501
0.000928367
0.000928135
0.000927809
0.000927393
0.000926903
0.000926352
0.00092575
0.000925105
0.000924426
0.000923718
0.000922983
0.000922226
0.000921447
0.000920649
0.000919827
0.000918985
0.000918117
0.000917224
0.000916297
0.000915334
0.000914324
0.000913259
0.000912123
0.000910902
0.000909573
0.000908118
0.000906513
0.000904748
0.000902824
0.000900761
0.000898591
0.000896346
0.000894056
0.000891732
0.000889393
0.00088704
0.000884692
0.000882345
0.000880017
0.000877702
0.000875412
0.000873139
0.000870894
0.000868662
0.000866455
0.000864257
0.000862077
0.000859901
0.000857741
0.000855586
0.00085345
0.000851324
0.000849225
0.000847143
0.000845096
0.000843072
0.000841088
0.000839125
0.000837193
0.000835268
0.000833359
0.000831442
0.000829531
0.000827608
0.000825689
0.000823757
0.000821833
0.000819904
0.000818001
0.000816121
0.000814312
0.000812577
0.000810968
0.000809477
0.000808142
0.000806932
0.000805867
0.000804896
0.000804033
0.000803216
0.000802463
0.000801711
0.000800985
0.000800216
0.000799432
0.000798556
0.000797619
0.000796535
0.000795342
0.000793954
0.000792424
0.000790677
0.000788784
0.000786685
0.000784472
0.000782096
0.000779666
0.000777134
0.000774619
0.000772065
0.000769591
0.000767128
0.000764792
0.000762495
0.000760348
0.000758249
0.000756304
0.000754396
0.000752632
0.000750886
0.000749266
0.000747638
0.000746118
0.000744566
0.000743107
0.000741594
0.000740164
0.000738665
0.000737244
0.000735742
0.000734318
0.000732808
0.000731379
0.000729859
0.000728425
0.000726901
0.000725467
0.000723942
0.000722513
0.000720993
0.000719573
0.000718064
0.000716656
0.000715161
0.000713768
0.000712291
0.000710914
0.000709456
0.000708096
0.000706661
0.000705318
0.000703906
0.000702582
0.000701193
0.000699887
0.000698522
0.000697233
0.000695892
0.000694619
0.0006933
0.000692045
0.000690747
0.000689508
0.000688233
0.000687011
0.000685757
0.000684554
0.000683322
0.00068214
0.00068093
0.000679768
0.000678579
0.000677438
0.000676268
0.000675147
0.000673991
0.000672888
0.000671746
0.000670661
0.00066953
0.000668463
0.000667344
0.000666295
0.000665189
0.000664163
0.00066307
0.000662067
0.000660989
0.000660008
0.000658943
0.000657983
0.000656926
0.000655981
0.000654926
0.000653991
0.000652933
0.000652003
0.000650941
0.000650017
0.000648957
0.00064805
0.000647007
0.000646133
0.000645126
0.000644307
0.00064336
0.000642616
0.000641749
0.000641097
0.000640323
0.000639771
0.000639093
0.000638637
0.00063805
0.000637678
0.000637163
0.000636853
0.000636384
0.000636104
0.000635647
0.00063536
0.000634875
0.00063454
0.000633985
0.000633559
0.000632895
0.000632343
0.000631539
0.000630836
0.000629874
0.000629011
0.000627891
0.000626877
0.000625616
0.000624475
0.000623106
0.000621878
0.000620443
0.000619171
0.000617715
0.000616442
0.000615005
0.000613768
0.00061238
0.000611204
0.000609885
0.000608784
0.000607542
0.000606518
0.000605352
0.0006044
0.000603301
0.00060241
0.000601365
0.000600522
0.000599518
0.000598709
0.000597733
0.000596946
0.000595988
0.000595213
0.000594263
0.000593494
0.000592548
0.00059178
0.000590833
0.000590064
0.000589117
0.000588346
0.000587398
0.000586626
0.000585678
0.000584907
0.000583959
0.000583191
0.000582247
0.000581482
0.000580542
0.000579783
0.00057885
0.000578097
0.000577171
0.000576426
0.000575508
0.000574772
0.000573864
0.000573137
0.000572237
0.00057152
0.000570631
0.000569923
0.000569044
0.000568346
0.000567476
0.000566788
0.000565929
0.000565252
0.000564403
0.000563736
0.000562898
0.000562241
0.000561414
0.000560768
0.000559951
0.000559315
0.000558509
0.000557884
0.000557088
0.000556472
0.000555685
0.000555079
0.000554301
0.000553704
0.000552935
0.000552347
0.000551587
0.000551007
0.000550257
0.000549686
0.000548944
0.000548382
0.00054765
0.000547096
0.000546372
0.000545826
0.000545109
0.00054457
0.000543859
0.000543326
0.000542619
0.00054209
0.000541388
0.000540863
0.000540165
0.000539646
0.000538956
0.000538447
0.000537769
0.000537274
0.000536615
0.000536143
0.00053551
0.000535067
0.000534469
0.000534063
0.000533505
0.000533144
0.000532631
0.000532317
0.000531852
0.000531585
0.000531166
0.000530943
0.000530566
0.000530379
0.000530034
0.000529873
0.000529546
0.000529398
0.000529074
0.00052892
0.000528583
0.000528405
0.000528036
0.000527817
0.000527397
0.00052712
0.000526635
0.000526286
0.000525725
0.000525296
0.000524653
0.000524142
0.000523417
0.000522827
0.000522028
0.000521369
0.000520508
0.000519795
0.000518888
0.000518139
0.000517205
0.000516438
0.000515496
0.000514729
0.000513794
0.000513042
0.000512128
0.000511402
0.000510519
0.000509825
0.000508977
0.00050832
0.000507507
0.000506885
0.000506107
0.000505518
0.00050477
0.000504209
0.000503487
0.000502949
0.000502248
0.000501727
0.00050104
0.000500532
0.000499856
0.000499356
0.000498686
0.000498192
0.000497526
0.000497034
0.00049637
0.00049588
0.000495217
0.000494727
0.000494064
0.000493574
0.000492913
0.000492423
0.000491762
0.000491274
0.000490615
0.000490128
0.000489471
0.000488987
0.000488333
0.000487852
0.000487201
0.000486725
0.000486078
0.000485606
0.000484965
0.000484498
0.000483861
0.0004834
0.000482769
0.000482313
0.000481688
0.000481238
0.00048062
0.000480176
0.000479564
0.000479126
0.000478521
0.000478089
0.00047749
0.000477065
0.000476473
0.000476055
0.000475469
0.000475057
0.000474478
0.000474073
0.0004735
0.000473101
0.000472534
0.000472141
0.000471581
0.000471193
0.000470639
0.000470258
0.000469709
0.000469334
0.000468791
0.000468421
0.000467884
0.000467519
0.000466988
0.000466628
0.000466102
0.000465747
0.000465226
0.000464876
0.000464358
0.000464012
0.000463499
0.000463157
0.000462648
0.00046231
0.000461804
0.000461471
0.00046097
0.000460642
0.000460148
0.000459827
0.000459341
0.00045903
0.000458555
0.000458256
0.000457796
0.000457512
0.000457069
0.000456805
0.000456383
0.000456141
0.000455743
0.000455525
0.000455152
0.00045496
0.000454613
0.000454447
0.000454125
0.000453984
0.000453685
0.000453565
0.000453286
0.000453182
0.000452916
0.000452823
0.000452564
0.000452474
0.000452213
0.000452118
0.000451847
0.000451737
0.000451448
0.000451315
0.000450998
0.000450833
0.000450481
0.000450277
0.000449884
0.000449636
0.000449197
0.000448902
0.000448416
0.000448074
0.000447541
0.000447155
0.000446579
0.000446152
0.000445539
0.000445079
0.000444437
0.000443952
0.00044329
0.000442788
0.000442115
0.000441606
0.00044093
0.000440423
0.000439751
0.000439252
0.000438591
0.000438106
0.00043746
0.000436991
0.000436364
0.000435914
0.000435306
0.000434874
0.000434285
0.000433872
0.0004333
0.000432904
0.000432347
0.000431966
0.000431422
0.000431053
0.00043052
0.00043016
0.000429636
0.000429283
0.000428766
0.000428419
0.000427906
0.000427562
0.000427052
0.000426711
0.000426204
0.000425865
0.000425359
0.000425021
0.000424516
0.00042418
0.000423676
0.000423341
0.000422838
0.000422504
0.000422002
0.00042167
0.00042117
0.00042084
0.000420342
0.000420013
0.000419518
0.000419192
0.0004187
0.000418377
0.000417888
0.000417568
0.000417082
0.000416766
0.000416284
0.000415971
0.000415493
0.000415184
0.00041471
0.000414405
0.000413935
0.000413635
0.000413169
0.000412873
0.000412412
0.00041212
0.000411663
0.000411375
0.000410923
0.000410639
0.000410191
0.000409912
0.000409468
0.000409194
0.000408754
0.000408483
0.000408048
0.000407781
0.00040735
0.000407087
0.000406659
0.000406401
0.000405977
0.000405722
0.000405302
0.000405051
0.000404634
0.000404386
0.000403973
0.000403729
0.000403319
0.000403077
0.000402671
0.000402432
0.000402029
0.000401793
0.000401393
0.00040116
0.000400764
0.000400535
0.000400142
0.000399917
0.000399529
0.000399308
0.000398926
0.000398712
0.000398336
0.000398129
0.000397761
0.000397563
0.000397205
0.000397018
0.000396671
0.000396496
0.000396162
0.000396
0.00039568
0.000395533
0.000395228
0.000395097
0.000394807
0.000394691
0.000394417
0.000394316
0.000394056
0.000393968
0.000393721
0.000393645
0.000393408
0.000393341
0.000393112
0.00039305
0.000392824
0.000392763
0.000392537
0.000392473
0.000392241
0.00039217
0.000391928
0.000391844
0.000391587
0.000391487
0.000391211
0.000391089
0.000390789
0.000390643
0.000390317
0.000390143
0.00038979
0.000389587
0.000389204
0.000388972
0.00038856
0.0003883
0.000387861
0.000387575
0.000387111
0.000386802
0.000386318
0.00038599
0.000385489
0.000385147
0.000384634
0.000384282
0.000383762
0.000383406
0.000382883
0.000382527
0.000382005
0.000381653
0.000381136
0.00038079
0.000380281
0.000379944
0.000379444
0.000379118
0.000378628
0.000378313
0.000377834
0.00037753
0.000377062
0.000376769
0.000376309
0.000376027
0.000375576
0.000375302
0.000374859
0.000374593
0.000374157
0.000373897
0.000373466
0.000373212
0.000372785
0.000372535
0.000372111
0.000371864
0.000371443
0.000371198
0.00037078
0.000370536
0.00037012
0.000369877
0.000369462
0.000369221
0.000368807
0.000368567
0.000368155
0.000367915
0.000367504
0.000367266
0.000366856
0.000366619
0.00036621
0.000365975
0.000365568
0.000365334
0.000364929
0.000364697
0.000364294
0.000364064
0.000363663
0.000363435
0.000363037
0.000362812
0.000362415
0.000362193
0.000361799
0.00036158
0.000361188
0.000360972
0.000360582
0.00036037
0.000359983
0.000359773
0.000359389
0.000359183
0.0003588
0.000358599
0.000358218
0.000358021
0.00035764
0.00035745
0.000357068
0.000356884
0.000356502
0.000356325
0.00035594
0.000355772
0.000355385
0.000355224
0.000354834
0.000354681
0.000354289
0.000354144
0.000353749
0.000353611
0.000353213
0.000353084
0.000352682
0.000352562
0.000352157
0.000352044
0.000351636
0.00035153
0.000351121
0.00035102
0.000350613
0.000350513
0.000350111
0.000350013
0.000349616
0.000349519
0.000349128
0.000349033
0.000348651
0.000348552
0.000348184
0.000348081
0.00034773
0.000347622
0.000347289
0.000347178
0.000346861
0.000346749
0.000346449
0.000346338
0.000346054
0.000345945
0.000345677
0.000345573
0.000345318
0.000345221
0.000344977
0.000344889
0.000344654
0.000344575
0.000344348
0.000344278
0.000344056
0.000343994
0.000343777
0.00034372
0.000343508
0.000343454
0.000343243
0.00034319
0.000342979
0.000342925
0.000342711
0.000342656
0.000342435
0.000342378
0.000342146
0.000342085
0.000341837
0.000341772
0.000341504
0.000341433
0.000341142
0.000341061
0.000340747
0.000340651
0.000340318
0.000340206
0.000339852
0.000339722
0.000339346
0.000339198
0.0003388
0.000338636
0.000338217
0.000338039
0.000337601
0.00033741
0.000336957
0.000336755
0.00033629
0.000336081
0.000335605
0.000335393
0.00033491
0.000334695
0.000334208
0.000333994
0.000333504
0.000333292
0.000332803
0.000332594
0.000332108
0.000331905
0.000331421
0.000331225
0.000330744
0.000330558
0.00033008
0.000329902
0.000329429
0.000329259
0.00032879
0.000328629
0.000328164
0.00032801
0.000327549
0.000327403
0.000326945
0.000326804
0.000326349
0.000326214
0.000325762
0.000325631
0.000325182
0.000325054
0.000324607
0.000324482
0.000324035
0.000323915
0.000323467
0.00032335
0.000322903
0.000322788
0.00032234
0.000322228
0.00032178
0.000321669
0.000320952
0.0892977
)
;

boundaryField
{
    inlet
    {
        type            calculated;
        value           uniform 0.000236304;
    }
    outlet
    {
        type            calculated;
        value           uniform 4.56325e-05;
    }
    emptyWalls
    {
        type            empty;
    }
}


// ************************************************************************* //
