/*--------------------------------*- C++ -*----------------------------------*\
  =========                 |
  \\      /  F ield         | OpenFOAM: The Open Source CFD Toolbox
   \\    /   O peration     | Website:  https://openfoam.org
    \\  /    A nd           | Version:  9
     \\/     M anipulation  |
\*---------------------------------------------------------------------------*/
FoamFile
{
    format      ascii;
    class       volVectorField;
    location    "20300";
    object      Ub;
}
// * * * * * * * * * * * * * * * * * * * * * * * * * * * * * * * * * * * * * //

dimensions      [0 0 0 0 0 0 0];

internalField   nonuniform List<vector> 
1000
(
(1.1362e-05 0 0)
(1.13623e-05 0 0)
(1.13623e-05 0 0)
(1.13623e-05 0 0)
(1.13624e-05 0 0)
(1.13625e-05 0 0)
(1.13627e-05 0 0)
(1.1363e-05 0 0)
(1.13633e-05 0 0)
(1.13637e-05 0 0)
(1.13641e-05 0 0)
(1.13645e-05 0 0)
(1.13649e-05 0 0)
(1.13654e-05 0 0)
(1.13658e-05 0 0)
(1.13663e-05 0 0)
(1.13668e-05 0 0)
(1.13672e-05 0 0)
(1.13676e-05 0 0)
(1.1368e-05 0 0)
(1.13684e-05 0 0)
(1.13687e-05 0 0)
(1.13691e-05 0 0)
(1.13695e-05 0 0)
(1.13699e-05 0 0)
(1.13708e-05 0 0)
(1.1374e-05 0 0)
(1.13882e-05 0 0)
(1.14626e-05 0 0)
(1.16274e-05 0 0)
(1.17495e-05 0 0)
(1.17742e-05 0 0)
(1.17793e-05 0 0)
(1.17796e-05 0 0)
(1.17797e-05 0 0)
(1.17808e-05 0 0)
(1.17825e-05 0 0)
(1.17845e-05 0 0)
(1.17866e-05 0 0)
(1.17886e-05 0 0)
(1.17905e-05 0 0)
(1.17922e-05 0 0)
(1.17938e-05 0 0)
(1.17953e-05 0 0)
(1.17967e-05 0 0)
(1.17979e-05 0 0)
(1.17991e-05 0 0)
(1.18001e-05 0 0)
(1.18011e-05 0 0)
(1.18019e-05 0 0)
(1.18027e-05 0 0)
(1.18034e-05 0 0)
(1.18041e-05 0 0)
(1.18046e-05 0 0)
(1.18051e-05 0 0)
(1.18055e-05 0 0)
(1.18059e-05 0 0)
(1.18062e-05 0 0)
(1.18064e-05 0 0)
(1.18065e-05 0 0)
(1.18065e-05 0 0)
(1.18065e-05 0 0)
(1.18064e-05 0 0)
(1.18063e-05 0 0)
(1.1806e-05 0 0)
(1.18057e-05 0 0)
(1.18053e-05 0 0)
(1.18048e-05 0 0)
(1.18042e-05 0 0)
(1.18035e-05 0 0)
(1.18027e-05 0 0)
(1.18017e-05 0 0)
(1.18006e-05 0 0)
(1.17993e-05 0 0)
(1.17978e-05 0 0)
(1.1796e-05 0 0)
(1.17939e-05 0 0)
(1.17915e-05 0 0)
(1.17886e-05 0 0)
(1.17853e-05 0 0)
(1.17816e-05 0 0)
(1.17776e-05 0 0)
(1.17735e-05 0 0)
(1.17691e-05 0 0)
(1.17646e-05 0 0)
(1.176e-05 0 0)
(1.17553e-05 0 0)
(1.17505e-05 0 0)
(1.17457e-05 0 0)
(1.17409e-05 0 0)
(1.17362e-05 0 0)
(1.17314e-05 0 0)
(1.17266e-05 0 0)
(1.17218e-05 0 0)
(1.1717e-05 0 0)
(1.17121e-05 0 0)
(1.1707e-05 0 0)
(1.17017e-05 0 0)
(1.16961e-05 0 0)
(1.169e-05 0 0)
(1.16835e-05 0 0)
(1.16766e-05 0 0)
(1.16694e-05 0 0)
(1.16619e-05 0 0)
(1.16543e-05 0 0)
(1.16467e-05 0 0)
(1.1639e-05 0 0)
(1.16315e-05 0 0)
(1.1624e-05 0 0)
(1.16168e-05 0 0)
(1.16098e-05 0 0)
(1.16032e-05 0 0)
(1.1597e-05 0 0)
(1.15913e-05 0 0)
(1.15862e-05 0 0)
(1.15817e-05 0 0)
(1.15778e-05 0 0)
(1.15744e-05 0 0)
(1.15715e-05 0 0)
(1.15689e-05 0 0)
(1.15666e-05 0 0)
(1.15643e-05 0 0)
(1.15621e-05 0 0)
(1.15597e-05 0 0)
(1.15571e-05 0 0)
(1.15542e-05 0 0)
(1.1551e-05 0 0)
(1.15475e-05 0 0)
(1.15437e-05 0 0)
(1.15395e-05 0 0)
(1.1535e-05 0 0)
(1.15303e-05 0 0)
(1.15254e-05 0 0)
(1.15203e-05 0 0)
(1.15151e-05 0 0)
(1.15098e-05 0 0)
(1.15045e-05 0 0)
(1.14992e-05 0 0)
(1.14938e-05 0 0)
(1.14885e-05 0 0)
(1.14832e-05 0 0)
(1.1478e-05 0 0)
(1.14728e-05 0 0)
(1.14676e-05 0 0)
(1.14625e-05 0 0)
(1.14575e-05 0 0)
(1.14524e-05 0 0)
(1.14474e-05 0 0)
(1.14424e-05 0 0)
(1.14374e-05 0 0)
(1.14324e-05 0 0)
(1.14274e-05 0 0)
(1.14224e-05 0 0)
(1.14175e-05 0 0)
(1.14125e-05 0 0)
(1.14075e-05 0 0)
(1.14025e-05 0 0)
(1.13974e-05 0 0)
(1.13924e-05 0 0)
(1.13873e-05 0 0)
(1.13823e-05 0 0)
(1.13772e-05 0 0)
(1.13721e-05 0 0)
(1.1367e-05 0 0)
(1.13619e-05 0 0)
(1.13567e-05 0 0)
(1.13516e-05 0 0)
(1.13464e-05 0 0)
(1.13412e-05 0 0)
(1.1336e-05 0 0)
(1.13308e-05 0 0)
(1.13255e-05 0 0)
(1.13203e-05 0 0)
(1.1315e-05 0 0)
(1.13097e-05 0 0)
(1.13044e-05 0 0)
(1.12991e-05 0 0)
(1.12937e-05 0 0)
(1.12884e-05 0 0)
(1.1283e-05 0 0)
(1.12776e-05 0 0)
(1.12722e-05 0 0)
(1.12668e-05 0 0)
(1.12613e-05 0 0)
(1.12558e-05 0 0)
(1.12504e-05 0 0)
(1.12449e-05 0 0)
(1.12393e-05 0 0)
(1.12338e-05 0 0)
(1.12282e-05 0 0)
(1.12226e-05 0 0)
(1.1217e-05 0 0)
(1.12114e-05 0 0)
(1.12058e-05 0 0)
(1.12002e-05 0 0)
(1.11945e-05 0 0)
(1.11888e-05 0 0)
(1.11832e-05 0 0)
(1.11775e-05 0 0)
(1.11718e-05 0 0)
(1.11661e-05 0 0)
(1.11604e-05 0 0)
(1.11547e-05 0 0)
(1.1149e-05 0 0)
(1.11432e-05 0 0)
(1.11375e-05 0 0)
(1.11317e-05 0 0)
(1.11259e-05 0 0)
(1.11201e-05 0 0)
(1.11144e-05 0 0)
(1.11086e-05 0 0)
(1.11028e-05 0 0)
(1.1097e-05 0 0)
(1.10912e-05 0 0)
(1.10854e-05 0 0)
(1.10796e-05 0 0)
(1.10738e-05 0 0)
(1.1068e-05 0 0)
(1.10621e-05 0 0)
(1.10562e-05 0 0)
(1.10502e-05 0 0)
(1.10441e-05 0 0)
(1.10379e-05 0 0)
(1.10315e-05 0 0)
(1.10251e-05 0 0)
(1.10185e-05 0 0)
(1.10117e-05 0 0)
(1.10048e-05 0 0)
(1.09978e-05 0 0)
(1.09907e-05 0 0)
(1.09834e-05 0 0)
(1.09761e-05 0 0)
(1.09687e-05 0 0)
(1.09613e-05 0 0)
(1.09538e-05 0 0)
(1.09464e-05 0 0)
(1.0939e-05 0 0)
(1.09317e-05 0 0)
(1.09245e-05 0 0)
(1.09174e-05 0 0)
(1.09106e-05 0 0)
(1.09039e-05 0 0)
(1.08975e-05 0 0)
(1.08914e-05 0 0)
(1.08855e-05 0 0)
(1.08799e-05 0 0)
(1.08745e-05 0 0)
(1.08694e-05 0 0)
(1.08645e-05 0 0)
(1.08598e-05 0 0)
(1.08552e-05 0 0)
(1.08508e-05 0 0)
(1.08464e-05 0 0)
(1.08421e-05 0 0)
(1.08378e-05 0 0)
(1.08335e-05 0 0)
(1.08291e-05 0 0)
(1.08246e-05 0 0)
(1.08201e-05 0 0)
(1.08154e-05 0 0)
(1.08105e-05 0 0)
(1.08056e-05 0 0)
(1.08005e-05 0 0)
(1.07953e-05 0 0)
(1.07899e-05 0 0)
(1.07845e-05 0 0)
(1.07789e-05 0 0)
(1.07733e-05 0 0)
(1.07675e-05 0 0)
(1.07618e-05 0 0)
(1.07559e-05 0 0)
(1.07501e-05 0 0)
(1.07442e-05 0 0)
(1.07383e-05 0 0)
(1.07324e-05 0 0)
(1.07265e-05 0 0)
(1.07205e-05 0 0)
(1.07146e-05 0 0)
(1.07087e-05 0 0)
(1.07028e-05 0 0)
(1.0697e-05 0 0)
(1.06911e-05 0 0)
(1.06852e-05 0 0)
(1.06794e-05 0 0)
(1.06735e-05 0 0)
(1.06677e-05 0 0)
(1.06619e-05 0 0)
(1.06561e-05 0 0)
(1.06503e-05 0 0)
(1.06444e-05 0 0)
(1.06386e-05 0 0)
(1.06328e-05 0 0)
(1.0627e-05 0 0)
(1.06211e-05 0 0)
(1.06153e-05 0 0)
(1.06095e-05 0 0)
(1.06036e-05 0 0)
(1.05978e-05 0 0)
(1.05919e-05 0 0)
(1.0586e-05 0 0)
(1.05801e-05 0 0)
(1.05742e-05 0 0)
(1.05683e-05 0 0)
(1.05624e-05 0 0)
(1.05564e-05 0 0)
(1.05505e-05 0 0)
(1.05445e-05 0 0)
(1.05386e-05 0 0)
(1.05326e-05 0 0)
(1.05266e-05 0 0)
(1.05206e-05 0 0)
(1.05146e-05 0 0)
(1.05085e-05 0 0)
(1.05025e-05 0 0)
(1.04964e-05 0 0)
(1.04904e-05 0 0)
(1.04843e-05 0 0)
(1.04782e-05 0 0)
(1.04721e-05 0 0)
(1.04659e-05 0 0)
(1.04598e-05 0 0)
(1.04536e-05 0 0)
(1.04475e-05 0 0)
(1.04413e-05 0 0)
(1.04351e-05 0 0)
(1.04289e-05 0 0)
(1.04227e-05 0 0)
(1.04164e-05 0 0)
(1.04102e-05 0 0)
(1.04039e-05 0 0)
(1.03977e-05 0 0)
(1.03914e-05 0 0)
(1.03851e-05 0 0)
(1.03788e-05 0 0)
(1.03724e-05 0 0)
(1.03661e-05 0 0)
(1.03598e-05 0 0)
(1.03534e-05 0 0)
(1.0347e-05 0 0)
(1.03407e-05 0 0)
(1.03343e-05 0 0)
(1.03279e-05 0 0)
(1.03215e-05 0 0)
(1.03151e-05 0 0)
(1.03086e-05 0 0)
(1.03022e-05 0 0)
(1.02958e-05 0 0)
(1.02893e-05 0 0)
(1.02829e-05 0 0)
(1.02764e-05 0 0)
(1.02699e-05 0 0)
(1.02635e-05 0 0)
(1.0257e-05 0 0)
(1.02505e-05 0 0)
(1.0244e-05 0 0)
(1.02375e-05 0 0)
(1.0231e-05 0 0)
(1.02244e-05 0 0)
(1.02179e-05 0 0)
(1.02113e-05 0 0)
(1.02047e-05 0 0)
(1.01981e-05 0 0)
(1.01914e-05 0 0)
(1.01847e-05 0 0)
(1.01779e-05 0 0)
(1.01711e-05 0 0)
(1.01642e-05 0 0)
(1.01573e-05 0 0)
(1.01502e-05 0 0)
(1.01432e-05 0 0)
(1.0136e-05 0 0)
(1.01288e-05 0 0)
(1.01215e-05 0 0)
(1.01141e-05 0 0)
(1.01067e-05 0 0)
(1.00992e-05 0 0)
(1.00916e-05 0 0)
(1.00841e-05 0 0)
(1.00764e-05 0 0)
(1.00688e-05 0 0)
(1.00612e-05 0 0)
(1.00535e-05 0 0)
(1.00459e-05 0 0)
(1.00383e-05 0 0)
(1.00308e-05 0 0)
(1.00234e-05 0 0)
(1.0016e-05 0 0)
(1.00087e-05 0 0)
(1.00015e-05 0 0)
(9.99439e-06 0 0)
(9.98743e-06 0 0)
(9.9806e-06 0 0)
(9.9739e-06 0 0)
(9.96733e-06 0 0)
(9.96088e-06 0 0)
(9.95457e-06 0 0)
(9.94837e-06 0 0)
(9.94229e-06 0 0)
(9.9363e-06 0 0)
(9.9304e-06 0 0)
(9.92456e-06 0 0)
(9.91878e-06 0 0)
(9.91304e-06 0 0)
(9.90732e-06 0 0)
(9.90161e-06 0 0)
(9.89589e-06 0 0)
(9.89015e-06 0 0)
(9.88438e-06 0 0)
(9.87856e-06 0 0)
(9.87269e-06 0 0)
(9.86676e-06 0 0)
(9.86077e-06 0 0)
(9.85472e-06 0 0)
(9.84859e-06 0 0)
(9.8424e-06 0 0)
(9.83615e-06 0 0)
(9.82983e-06 0 0)
(9.82345e-06 0 0)
(9.81702e-06 0 0)
(9.81053e-06 0 0)
(9.804e-06 0 0)
(9.79743e-06 0 0)
(9.79082e-06 0 0)
(9.78418e-06 0 0)
(9.77751e-06 0 0)
(9.77083e-06 0 0)
(9.76412e-06 0 0)
(9.7574e-06 0 0)
(9.75067e-06 0 0)
(9.74393e-06 0 0)
(9.73718e-06 0 0)
(9.73043e-06 0 0)
(9.72367e-06 0 0)
(9.71692e-06 0 0)
(9.71016e-06 0 0)
(9.7034e-06 0 0)
(9.69664e-06 0 0)
(9.68989e-06 0 0)
(9.68313e-06 0 0)
(9.67637e-06 0 0)
(9.6696e-06 0 0)
(9.66284e-06 0 0)
(9.65607e-06 0 0)
(9.6493e-06 0 0)
(9.64252e-06 0 0)
(9.63574e-06 0 0)
(9.62896e-06 0 0)
(9.62216e-06 0 0)
(9.61536e-06 0 0)
(9.60855e-06 0 0)
(9.60174e-06 0 0)
(9.59491e-06 0 0)
(9.58807e-06 0 0)
(9.58123e-06 0 0)
(9.57437e-06 0 0)
(9.56751e-06 0 0)
(9.56063e-06 0 0)
(9.55374e-06 0 0)
(9.54684e-06 0 0)
(9.53992e-06 0 0)
(9.53299e-06 0 0)
(9.52606e-06 0 0)
(9.5191e-06 0 0)
(9.51214e-06 0 0)
(9.50516e-06 0 0)
(9.49817e-06 0 0)
(9.49117e-06 0 0)
(9.48415e-06 0 0)
(9.47712e-06 0 0)
(9.47007e-06 0 0)
(9.46301e-06 0 0)
(9.45594e-06 0 0)
(9.44885e-06 0 0)
(9.44175e-06 0 0)
(9.43463e-06 0 0)
(9.4275e-06 0 0)
(9.42036e-06 0 0)
(9.4132e-06 0 0)
(9.40603e-06 0 0)
(9.39884e-06 0 0)
(9.39164e-06 0 0)
(9.38442e-06 0 0)
(9.37719e-06 0 0)
(9.36995e-06 0 0)
(9.36269e-06 0 0)
(9.35541e-06 0 0)
(9.34812e-06 0 0)
(9.34082e-06 0 0)
(9.3335e-06 0 0)
(9.32617e-06 0 0)
(9.31883e-06 0 0)
(9.31147e-06 0 0)
(9.3041e-06 0 0)
(9.29671e-06 0 0)
(9.28931e-06 0 0)
(9.2819e-06 0 0)
(9.27448e-06 0 0)
(9.26704e-06 0 0)
(9.25959e-06 0 0)
(9.25213e-06 0 0)
(9.24465e-06 0 0)
(9.23717e-06 0 0)
(9.22967e-06 0 0)
(9.22216e-06 0 0)
(9.21463e-06 0 0)
(9.2071e-06 0 0)
(9.19955e-06 0 0)
(9.192e-06 0 0)
(9.18443e-06 0 0)
(9.17684e-06 0 0)
(9.16925e-06 0 0)
(9.16164e-06 0 0)
(9.15402e-06 0 0)
(9.14638e-06 0 0)
(9.13872e-06 0 0)
(9.13105e-06 0 0)
(9.12336e-06 0 0)
(9.11564e-06 0 0)
(9.1079e-06 0 0)
(9.10013e-06 0 0)
(9.09234e-06 0 0)
(9.08452e-06 0 0)
(9.07666e-06 0 0)
(9.06877e-06 0 0)
(9.06083e-06 0 0)
(9.05286e-06 0 0)
(9.04485e-06 0 0)
(9.0368e-06 0 0)
(9.0287e-06 0 0)
(9.02055e-06 0 0)
(9.01236e-06 0 0)
(9.00413e-06 0 0)
(8.99585e-06 0 0)
(8.98753e-06 0 0)
(8.97916e-06 0 0)
(8.97076e-06 0 0)
(8.96232e-06 0 0)
(8.95385e-06 0 0)
(8.94535e-06 0 0)
(8.93683e-06 0 0)
(8.92829e-06 0 0)
(8.91973e-06 0 0)
(8.91117e-06 0 0)
(8.9026e-06 0 0)
(8.89405e-06 0 0)
(8.8855e-06 0 0)
(8.87697e-06 0 0)
(8.86847e-06 0 0)
(8.86e-06 0 0)
(8.85157e-06 0 0)
(8.84318e-06 0 0)
(8.83484e-06 0 0)
(8.82655e-06 0 0)
(8.81832e-06 0 0)
(8.81015e-06 0 0)
(8.80205e-06 0 0)
(8.79401e-06 0 0)
(8.78603e-06 0 0)
(8.77811e-06 0 0)
(8.77026e-06 0 0)
(8.76247e-06 0 0)
(8.75473e-06 0 0)
(8.74705e-06 0 0)
(8.73941e-06 0 0)
(8.7318e-06 0 0)
(8.72423e-06 0 0)
(8.71669e-06 0 0)
(8.70916e-06 0 0)
(8.70165e-06 0 0)
(8.69413e-06 0 0)
(8.68662e-06 0 0)
(8.67909e-06 0 0)
(8.67155e-06 0 0)
(8.66398e-06 0 0)
(8.65639e-06 0 0)
(8.64877e-06 0 0)
(8.64111e-06 0 0)
(8.63341e-06 0 0)
(8.62566e-06 0 0)
(8.61788e-06 0 0)
(8.61005e-06 0 0)
(8.60218e-06 0 0)
(8.59426e-06 0 0)
(8.5863e-06 0 0)
(8.5783e-06 0 0)
(8.57026e-06 0 0)
(8.56217e-06 0 0)
(8.55405e-06 0 0)
(8.54589e-06 0 0)
(8.5377e-06 0 0)
(8.52947e-06 0 0)
(8.52122e-06 0 0)
(8.51293e-06 0 0)
(8.50462e-06 0 0)
(8.49629e-06 0 0)
(8.48794e-06 0 0)
(8.47956e-06 0 0)
(8.47116e-06 0 0)
(8.46275e-06 0 0)
(8.45432e-06 0 0)
(8.44587e-06 0 0)
(8.43741e-06 0 0)
(8.42893e-06 0 0)
(8.42044e-06 0 0)
(8.41194e-06 0 0)
(8.40342e-06 0 0)
(8.39488e-06 0 0)
(8.38634e-06 0 0)
(8.37778e-06 0 0)
(8.3692e-06 0 0)
(8.36061e-06 0 0)
(8.35201e-06 0 0)
(8.34339e-06 0 0)
(8.33476e-06 0 0)
(8.32611e-06 0 0)
(8.31745e-06 0 0)
(8.30876e-06 0 0)
(8.30007e-06 0 0)
(8.29135e-06 0 0)
(8.28262e-06 0 0)
(8.27386e-06 0 0)
(8.26509e-06 0 0)
(8.2563e-06 0 0)
(8.24749e-06 0 0)
(8.23866e-06 0 0)
(8.22981e-06 0 0)
(8.22094e-06 0 0)
(8.21205e-06 0 0)
(8.20314e-06 0 0)
(8.19421e-06 0 0)
(8.18525e-06 0 0)
(8.17628e-06 0 0)
(8.16728e-06 0 0)
(8.15826e-06 0 0)
(8.14921e-06 0 0)
(8.14014e-06 0 0)
(8.13105e-06 0 0)
(8.12194e-06 0 0)
(8.1128e-06 0 0)
(8.10364e-06 0 0)
(8.09446e-06 0 0)
(8.08525e-06 0 0)
(8.07602e-06 0 0)
(8.06676e-06 0 0)
(8.05748e-06 0 0)
(8.04817e-06 0 0)
(8.03884e-06 0 0)
(8.02949e-06 0 0)
(8.02011e-06 0 0)
(8.0107e-06 0 0)
(8.00127e-06 0 0)
(7.99181e-06 0 0)
(7.98233e-06 0 0)
(7.97282e-06 0 0)
(7.96328e-06 0 0)
(7.95372e-06 0 0)
(7.94414e-06 0 0)
(7.93452e-06 0 0)
(7.92489e-06 0 0)
(7.91522e-06 0 0)
(7.90553e-06 0 0)
(7.89581e-06 0 0)
(7.88606e-06 0 0)
(7.87629e-06 0 0)
(7.86649e-06 0 0)
(7.85667e-06 0 0)
(7.84681e-06 0 0)
(7.83693e-06 0 0)
(7.82703e-06 0 0)
(7.81709e-06 0 0)
(7.80713e-06 0 0)
(7.79714e-06 0 0)
(7.78713e-06 0 0)
(7.77708e-06 0 0)
(7.76701e-06 0 0)
(7.75691e-06 0 0)
(7.74678e-06 0 0)
(7.73662e-06 0 0)
(7.72643e-06 0 0)
(7.71622e-06 0 0)
(7.70597e-06 0 0)
(7.6957e-06 0 0)
(7.68539e-06 0 0)
(7.67506e-06 0 0)
(7.66469e-06 0 0)
(7.65429e-06 0 0)
(7.64385e-06 0 0)
(7.63338e-06 0 0)
(7.62288e-06 0 0)
(7.61234e-06 0 0)
(7.60176e-06 0 0)
(7.59115e-06 0 0)
(7.58049e-06 0 0)
(7.56979e-06 0 0)
(7.55906e-06 0 0)
(7.54828e-06 0 0)
(7.53745e-06 0 0)
(7.52658e-06 0 0)
(7.51566e-06 0 0)
(7.5047e-06 0 0)
(7.49368e-06 0 0)
(7.48262e-06 0 0)
(7.47151e-06 0 0)
(7.46034e-06 0 0)
(7.44913e-06 0 0)
(7.43786e-06 0 0)
(7.42654e-06 0 0)
(7.41517e-06 0 0)
(7.40375e-06 0 0)
(7.39228e-06 0 0)
(7.38076e-06 0 0)
(7.36919e-06 0 0)
(7.35757e-06 0 0)
(7.34591e-06 0 0)
(7.3342e-06 0 0)
(7.32245e-06 0 0)
(7.31067e-06 0 0)
(7.29884e-06 0 0)
(7.28697e-06 0 0)
(7.27508e-06 0 0)
(7.26315e-06 0 0)
(7.25119e-06 0 0)
(7.23921e-06 0 0)
(7.22721e-06 0 0)
(7.21518e-06 0 0)
(7.20314e-06 0 0)
(7.19108e-06 0 0)
(7.17901e-06 0 0)
(7.16693e-06 0 0)
(7.15484e-06 0 0)
(7.14275e-06 0 0)
(7.13065e-06 0 0)
(7.11854e-06 0 0)
(7.10644e-06 0 0)
(7.09433e-06 0 0)
(7.08221e-06 0 0)
(7.0701e-06 0 0)
(7.05798e-06 0 0)
(7.04587e-06 0 0)
(7.03374e-06 0 0)
(7.02161e-06 0 0)
(7.00947e-06 0 0)
(6.99732e-06 0 0)
(6.98516e-06 0 0)
(6.97299e-06 0 0)
(6.9608e-06 0 0)
(6.9486e-06 0 0)
(6.93637e-06 0 0)
(6.92411e-06 0 0)
(6.91183e-06 0 0)
(6.89953e-06 0 0)
(6.8872e-06 0 0)
(6.87484e-06 0 0)
(6.86245e-06 0 0)
(6.85003e-06 0 0)
(6.83759e-06 0 0)
(6.82512e-06 0 0)
(6.81263e-06 0 0)
(6.80012e-06 0 0)
(6.7876e-06 0 0)
(6.77508e-06 0 0)
(6.76255e-06 0 0)
(6.75004e-06 0 0)
(6.73756e-06 0 0)
(6.72512e-06 0 0)
(6.71273e-06 0 0)
(6.70042e-06 0 0)
(6.68819e-06 0 0)
(6.67608e-06 0 0)
(6.66411e-06 0 0)
(6.6523e-06 0 0)
(6.6407e-06 0 0)
(6.62932e-06 0 0)
(6.61819e-06 0 0)
(6.60736e-06 0 0)
(6.59685e-06 0 0)
(6.5867e-06 0 0)
(6.57695e-06 0 0)
(6.56763e-06 0 0)
(6.55876e-06 0 0)
(6.55038e-06 0 0)
(6.54249e-06 0 0)
(6.53513e-06 0 0)
(6.5283e-06 0 0)
(6.52201e-06 0 0)
(6.51627e-06 0 0)
(6.51105e-06 0 0)
(6.50636e-06 0 0)
(6.50216e-06 0 0)
(6.49845e-06 0 0)
(6.49519e-06 0 0)
(6.49236e-06 0 0)
(6.48992e-06 0 0)
(6.48783e-06 0 0)
(6.48606e-06 0 0)
(6.48457e-06 0 0)
(6.48333e-06 0 0)
(6.48231e-06 0 0)
(6.48147e-06 0 0)
(6.48075e-06 0 0)
(6.48011e-06 0 0)
(6.47947e-06 0 0)
(6.47874e-06 0 0)
(6.47775e-06 0 0)
(6.4762e-06 0 0)
(6.47357e-06 0 0)
(6.46895e-06 0 0)
(6.46073e-06 0 0)
(6.44604e-06 0 0)
(6.4199e-06 0 0)
(6.37368e-06 0 0)
(6.29313e-06 0 0)
(6.15625e-06 0 0)
(5.93326e-06 0 0)
(5.59355e-06 0 0)
(5.12498e-06 0 0)
(4.55973e-06 0 0)
(3.97947e-06 0 0)
(3.47788e-06 0 0)
(3.10868e-06 0 0)
(2.87036e-06 0 0)
(2.73029e-06 0 0)
(2.65274e-06 0 0)
(2.61127e-06 0 0)
(2.58952e-06 0 0)
(2.57823e-06 0 0)
(2.57241e-06 0 0)
(2.56942e-06 0 0)
(2.56789e-06 0 0)
(2.56711e-06 0 0)
(2.56672e-06 0 0)
(2.56652e-06 0 0)
(2.56642e-06 0 0)
(2.56638e-06 0 0)
(2.56636e-06 0 0)
(2.56635e-06 0 0)
(2.56636e-06 0 0)
(2.56636e-06 0 0)
(2.56636e-06 0 0)
(2.56637e-06 0 0)
(2.56637e-06 0 0)
(2.56637e-06 0 0)
(2.56637e-06 0 0)
(2.56637e-06 0 0)
(2.56637e-06 0 0)
(2.56637e-06 0 0)
(2.56637e-06 0 0)
(2.56636e-06 0 0)
(2.56636e-06 0 0)
(2.56635e-06 0 0)
(2.56634e-06 0 0)
(2.56633e-06 0 0)
(2.56632e-06 0 0)
(2.56631e-06 0 0)
(2.56629e-06 0 0)
(2.56628e-06 0 0)
(2.56626e-06 0 0)
(2.56625e-06 0 0)
(2.56623e-06 0 0)
(2.56621e-06 0 0)
(2.56619e-06 0 0)
(2.56617e-06 0 0)
(2.56615e-06 0 0)
(2.56613e-06 0 0)
(2.56611e-06 0 0)
(2.56609e-06 0 0)
(2.56606e-06 0 0)
(2.56604e-06 0 0)
(2.56602e-06 0 0)
(2.56599e-06 0 0)
(2.56596e-06 0 0)
(2.56594e-06 0 0)
(2.56591e-06 0 0)
(2.56588e-06 0 0)
(2.56585e-06 0 0)
(2.56582e-06 0 0)
(2.56578e-06 0 0)
(2.56575e-06 0 0)
(2.56571e-06 0 0)
(2.56568e-06 0 0)
(2.56564e-06 0 0)
(2.5656e-06 0 0)
(2.56556e-06 0 0)
(2.56552e-06 0 0)
(2.56547e-06 0 0)
(2.56542e-06 0 0)
(2.56537e-06 0 0)
(2.56532e-06 0 0)
(2.56526e-06 0 0)
(2.56521e-06 0 0)
(2.56514e-06 0 0)
(2.56508e-06 0 0)
(2.56501e-06 0 0)
(2.56494e-06 0 0)
(2.56487e-06 0 0)
(2.56479e-06 0 0)
(2.56471e-06 0 0)
(2.56462e-06 0 0)
(2.56453e-06 0 0)
(2.56444e-06 0 0)
(2.56434e-06 0 0)
(2.56425e-06 0 0)
(2.56414e-06 0 0)
(2.56404e-06 0 0)
(2.56393e-06 0 0)
(2.56381e-06 0 0)
(2.5637e-06 0 0)
(2.56358e-06 0 0)
(2.56346e-06 0 0)
(2.56334e-06 0 0)
(2.56322e-06 0 0)
(2.56309e-06 0 0)
(2.56297e-06 0 0)
(2.56284e-06 0 0)
(2.56272e-06 0 0)
(2.56259e-06 0 0)
(2.56247e-06 0 0)
(2.56235e-06 0 0)
(2.56223e-06 0 0)
(2.56211e-06 0 0)
(2.562e-06 0 0)
(2.56189e-06 0 0)
(2.56179e-06 0 0)
(2.56169e-06 0 0)
(2.56159e-06 0 0)
(2.56151e-06 0 0)
(2.56143e-06 0 0)
(2.56135e-06 0 0)
(2.56129e-06 0 0)
(2.56123e-06 0 0)
(2.56118e-06 0 0)
(2.56114e-06 0 0)
(2.56111e-06 0 0)
(2.56109e-06 0 0)
(2.56107e-06 0 0)
(2.56107e-06 0 0)
(2.56107e-06 0 0)
(2.56107e-06 0 0)
(2.56109e-06 0 0)
(2.56112e-06 0 0)
(2.56116e-06 0 0)
(2.56121e-06 0 0)
(2.56126e-06 0 0)
(2.56133e-06 0 0)
(2.5614e-06 0 0)
(2.56147e-06 0 0)
(2.56156e-06 0 0)
(2.56165e-06 0 0)
(2.56174e-06 0 0)
(2.56183e-06 0 0)
(2.56194e-06 0 0)
(2.56204e-06 0 0)
(2.56214e-06 0 0)
(2.56225e-06 0 0)
(2.56236e-06 0 0)
(2.56247e-06 0 0)
(2.56257e-06 0 0)
(2.56268e-06 0 0)
(2.56279e-06 0 0)
(2.56289e-06 0 0)
(2.56299e-06 0 0)
(2.5631e-06 0 0)
(2.56319e-06 0 0)
(2.56329e-06 0 0)
(2.56338e-06 0 0)
(2.56347e-06 0 0)
(2.56355e-06 0 0)
(2.56364e-06 0 0)
(2.56371e-06 0 0)
(2.56379e-06 0 0)
(2.56386e-06 0 0)
(2.56393e-06 0 0)
(2.56399e-06 0 0)
(2.56405e-06 0 0)
(2.56411e-06 0 0)
(2.56416e-06 0 0)
(2.56422e-06 0 0)
(2.56427e-06 0 0)
(2.56431e-06 0 0)
(2.56436e-06 0 0)
(2.5644e-06 0 0)
(2.56444e-06 0 0)
(2.56448e-06 0 0)
(2.56452e-06 0 0)
(2.56456e-06 0 0)
(2.56459e-06 0 0)
(2.56462e-06 0 0)
(2.56466e-06 0 0)
(2.56469e-06 0 0)
(2.56472e-06 0 0)
(2.56475e-06 0 0)
(2.56478e-06 0 0)
(2.56481e-06 0 0)
(2.56484e-06 0 0)
(2.56487e-06 0 0)
(2.5649e-06 0 0)
(2.56493e-06 0 0)
(2.56496e-06 0 0)
(2.56499e-06 0 0)
(2.56502e-06 0 0)
)
;

boundaryField
{
    inlet
    {
        type            fixedValue;
        value           uniform (1.13622e-05 0 0);
    }
    outlet
    {
        type            zeroGradient;
    }
    emptyWalls
    {
        type            empty;
    }
}


// ************************************************************************* //
