/*--------------------------------*- C++ -*----------------------------------*\
  =========                 |
  \\      /  F ield         | OpenFOAM: The Open Source CFD Toolbox
   \\    /   O peration     | Website:  https://openfoam.org
    \\  /    A nd           | Version:  9
     \\/     M anipulation  |
\*---------------------------------------------------------------------------*/
FoamFile
{
    format      ascii;
    class       volScalarField;
    location    "117000";
    object      krc;
}
// * * * * * * * * * * * * * * * * * * * * * * * * * * * * * * * * * * * * * //

dimensions      [0 0 0 0 0 0 0];

internalField   nonuniform List<scalar> 
100
(
2.19738e-21
2.16074e-23
2.58766e-23
2.83206e-23
3.26177e-24
2.66806e-23
4.40192e-24
1.85584e-25
1.76535e-23
1.00632e-23
2.43697e-23
1.1918e-25
6.19995e-24
8.57334e-24
1.77037e-23
2.38003e-23
2.72948e-23
1.04073e-23
1.80269e-23
1.77698e-23
6.92611e-24
3.84286e-23
6.82442e-24
5.7348e-24
3.1096e-23
1.73592e-23
2.20402e-23
2.37597e-23
1.04732e-23
4.40505e-23
6.81622e-24
8.28887e-24
3.36059e-23
3.1842e-23
1.26159e-24
2.98489e-23
4.37192e-25
6.97848e-28
1.01161e-23
2.18453e-23
1.65664e-23
7.8716e-24
3.40506e-23
2.25763e-23
8.8771e-24
2.99645e-28
1.95496e-23
1.92344e-23
1.84061e-23
2.65074e-23
7.65716e-25
1.80946e-25
3.66766e-23
2.44876e-23
1.57529e-23
1.92192e-23
1.68572e-23
2.714e-23
2.03895e-23
2.01216e-23
2.82079e-23
1.7699e-23
6.64838e-24
1.96539e-23
3.69829e-25
2.66247e-23
2.70574e-23
2.86323e-23
3.08444e-23
4.99367e-25
2.55938e-23
1.85337e-23
1.3021e-25
3.11862e-26
4.02608e-25
7.89629e-24
4.22269e-25
3.06359e-25
2.58199e-23
1.53736e-25
2.78447e-23
2.77966e-23
1.41315e-25
1.92447e-23
1.82351e-25
1.81882e-25
2.64044e-25
1.86725e-23
7.72974e-26
1.93033e-23
2.14981e-23
1.90386e-23
1.96146e-25
8.4821e-24
7.79098e-26
4.97957e-26
1.65262e-23
2.6488e-23
2.90996e-23
2.06762e-23
)
;

boundaryField
{
    inlet
    {
        type            calculated;
        value           uniform 2.19738e-21;
    }
    outlet
    {
        type            calculated;
        value           uniform 2.06762e-23;
    }
    emptyWalls
    {
        type            empty;
    }
}


// ************************************************************************* //
