/*--------------------------------*- C++ -*----------------------------------*\
  =========                 |
  \\      /  F ield         | OpenFOAM: The Open Source CFD Toolbox
   \\    /   O peration     | Website:  https://openfoam.org
    \\  /    A nd           | Version:  9
     \\/     M anipulation  |
\*---------------------------------------------------------------------------*/
FoamFile
{
    format      ascii;
    class       volScalarField;
    location    "27150";
    object      krc;
}
// * * * * * * * * * * * * * * * * * * * * * * * * * * * * * * * * * * * * * //

dimensions      [0 0 0 0 0 0 0];

internalField   nonuniform List<scalar> 
1000
(
6.02384e-08
5.45896e-07
1.92633e-06
4.16571e-06
7.25338e-06
1.11906e-05
1.59899e-05
2.16643e-05
2.82317e-05
3.57089e-05
4.41134e-05
5.3458e-05
6.37518e-05
7.49964e-05
8.71839e-05
0.000100293
0.000114284
0.000129098
0.000144647
0.000160814
0.000177448
0.000194364
0.000211345
0.000228161
0.000244562
0.000260324
0.000275238
0.000289152
0.000301961
0.000313624
0.000324148
0.000333607
0.000342186
0.000350526
0.000361346
0.000387147
0.000483779
0.00096713
0.00638557
0.0324376
0.0418295
0.0448
0.0462071
0.0470817
0.0477225
0.048242
0.0486882
0.0490864
0.0494495
0.0497866
0.0501023
0.0504008
0.0506842
0.0509549
0.051214
0.0514632
0.0517029
0.0519344
0.052158
0.0523746
0.0525845
0.0527888
0.0529873
0.0531811
0.05337
0.053555
0.0537357
0.0539134
0.0540876
0.0542593
0.0544283
0.0545953
0.0547602
0.0549236
0.0550853
0.0552461
0.0554058
0.0555652
0.055724
0.055884
0.0560457
0.0562076
0.0563701
0.0565332
0.056697
0.0568616
0.0570274
0.0571944
0.0573632
0.0575339
0.0577068
0.0578825
0.0580613
0.0582437
0.0584306
0.0586226
0.058821
0.0590271
0.0592429
0.0594709
0.0597142
0.0599773
0.0602651
0.0605833
0.0609369
0.0613295
0.0617616
0.0622295
0.0627265
0.0632452
0.0637797
0.064326
0.0648809
0.0654422
0.0660085
0.0665784
0.067151
0.0677256
0.0683017
0.0688787
0.0694564
0.0700345
0.0706127
0.0711908
0.0717687
0.0723463
0.0729234
0.0735
0.074076
0.0746514
0.075226
0.0757999
0.076373
0.0769452
0.0775166
0.0780872
0.0786568
0.0792256
0.0797934
0.0803603
0.0809262
0.0814911
0.0820551
0.0826181
0.0831801
0.0837411
0.0843011
0.0848601
0.085418
0.085975
0.0865309
0.0870858
0.0876397
0.0881925
0.0887443
0.0892951
0.0898449
0.0903936
0.0909413
0.091488
0.0920336
0.0925782
0.0931219
0.0936644
0.094206
0.0947466
0.0952861
0.0958246
0.0963621
0.0968986
0.0974341
0.0979686
0.0985021
0.0990346
0.0995662
0.100097
0.100626
0.101155
0.101682
0.102209
0.102735
0.103259
0.103783
0.104306
0.104827
0.105348
0.105868
0.106387
0.106905
0.107422
0.107938
0.108453
0.108967
0.109481
0.109993
0.110505
0.111015
0.111525
0.112033
0.112541
0.113048
0.113554
0.114059
0.114563
0.115067
0.115569
0.116071
0.116572
0.117071
0.11757
0.118069
0.118566
0.119062
0.119558
0.120052
0.120546
0.121038
0.12153
0.122021
0.122512
0.123001
0.123489
0.123977
0.124464
0.12495
0.125435
0.125919
0.126403
0.126886
0.127368
0.127849
0.12833
0.12881
0.129289
0.129767
0.130245
0.130723
0.131199
0.131675
0.13215
0.132624
0.133098
0.133571
0.134043
0.134515
0.134985
0.135455
0.135924
0.136393
0.136861
0.137327
0.137794
0.138259
0.138724
0.139188
0.139651
0.140113
0.140575
0.141036
0.141497
0.141956
0.142415
0.142874
0.143331
0.143788
0.144245
0.1447
0.145155
0.14561
0.146063
0.146516
0.146969
0.14742
0.147871
0.148322
0.148772
0.149221
0.14967
0.150117
0.150565
0.151011
0.151458
0.151903
0.152348
0.152792
0.153236
0.153679
0.154121
0.154563
0.155004
0.155444
0.155884
0.156324
0.156763
0.157201
0.157638
0.158075
0.158512
0.158948
0.159383
0.159818
0.160252
0.160686
0.161119
0.161551
0.161983
0.162414
0.162845
0.163275
0.163705
0.164134
0.164563
0.164991
0.165418
0.165845
0.166271
0.166697
0.167123
0.167548
0.167972
0.168396
0.168819
0.169242
0.169664
0.170086
0.170507
0.170928
0.171348
0.171767
0.172187
0.172605
0.173023
0.173441
0.173858
0.174275
0.174691
0.175107
0.175522
0.175937
0.176351
0.176765
0.177179
0.177591
0.178004
0.178416
0.178827
0.179238
0.179648
0.180058
0.180467
0.180876
0.181284
0.181692
0.182099
0.182506
0.182912
0.183318
0.183724
0.184129
0.184533
0.184937
0.185341
0.185744
0.186147
0.18655
0.186952
0.187354
0.187755
0.188157
0.188557
0.188958
0.189358
0.189758
0.190158
0.190557
0.190956
0.191354
0.191753
0.192151
0.192548
0.192945
0.193342
0.193739
0.194135
0.19453
0.194926
0.19532
0.195715
0.196109
0.196502
0.196896
0.197288
0.197681
0.198073
0.198464
0.198855
0.199246
0.199637
0.200027
0.200416
0.200805
0.201194
0.201583
0.201971
0.202359
0.202746
0.203134
0.20352
0.203907
0.204293
0.204679
0.205064
0.205449
0.205834
0.206219
0.206603
0.206987
0.20737
0.207753
0.208136
0.208519
0.208901
0.209283
0.209664
0.210045
0.210426
0.210807
0.211187
0.211567
0.211947
0.212326
0.212705
0.213084
0.213463
0.213841
0.214219
0.214596
0.214973
0.21535
0.215727
0.216103
0.216479
0.216855
0.21723
0.217606
0.21798
0.218355
0.218729
0.219103
0.219477
0.219851
0.220224
0.220597
0.220969
0.221341
0.221713
0.222085
0.222457
0.222828
0.223199
0.22357
0.22394
0.22431
0.22468
0.22505
0.225419
0.225788
0.226157
0.226526
0.226894
0.227262
0.22763
0.227998
0.228365
0.228732
0.229099
0.229465
0.229832
0.230198
0.230564
0.230929
0.231295
0.23166
0.232025
0.232389
0.232754
0.233118
0.233482
0.233845
0.234209
0.234572
0.234935
0.235297
0.23566
0.236022
0.236383
0.236745
0.237106
0.237467
0.237828
0.238188
0.238549
0.238909
0.239268
0.239628
0.239987
0.240346
0.240705
0.241064
0.241422
0.241781
0.242139
0.242497
0.242855
0.243212
0.24357
0.243928
0.244285
0.244642
0.245
0.245357
0.245714
0.246071
0.246428
0.246785
0.247142
0.247498
0.247855
0.248211
0.248567
0.248924
0.24928
0.249636
0.249991
0.250347
0.250702
0.251058
0.251413
0.251767
0.252122
0.252477
0.252831
0.253185
0.253539
0.253893
0.254246
0.254599
0.254952
0.255306
0.255658
0.256011
0.256363
0.256716
0.257068
0.25742
0.257771
0.258123
0.258475
0.258826
0.259177
0.259528
0.259879
0.26023
0.260581
0.260932
0.261282
0.261632
0.261982
0.262333
0.262682
0.263032
0.263382
0.263732
0.264081
0.26443
0.264779
0.265129
0.265478
0.265827
0.266175
0.266524
0.266872
0.267221
0.267569
0.267918
0.268265
0.268614
0.268961
0.269309
0.269657
0.270004
0.270352
0.270699
0.271046
0.271394
0.27174
0.272087
0.272434
0.272781
0.273127
0.273474
0.27382
0.274167
0.274513
0.274859
0.275205
0.275551
0.275897
0.276243
0.276589
0.276934
0.27728
0.277625
0.277971
0.278316
0.278661
0.279006
0.279351
0.279696
0.280041
0.280386
0.280731
0.281075
0.28142
0.281765
0.282109
0.282453
0.282798
0.283142
0.283486
0.28383
0.284174
0.284519
0.284862
0.285207
0.28555
0.285894
0.286238
0.286582
0.286925
0.287269
0.287612
0.287956
0.288299
0.288642
0.288985
0.289329
0.289671
0.290015
0.290357
0.2907
0.291043
0.291386
0.291728
0.292071
0.292413
0.292756
0.293097
0.29344
0.293782
0.294124
0.294466
0.294808
0.29515
0.295492
0.295834
0.296176
0.296517
0.29686
0.297201
0.297544
0.297885
0.298228
0.298569
0.298912
0.299253
0.299596
0.299938
0.300281
0.300623
0.300966
0.301308
0.301652
0.301994
0.302338
0.30268
0.303024
0.303367
0.303711
0.304054
0.304398
0.304742
0.305086
0.305429
0.305774
0.306117
0.306462
0.306805
0.30715
0.307494
0.307838
0.308182
0.308527
0.30887
0.309215
0.309559
0.309904
0.310247
0.310592
0.310936
0.311281
0.311624
0.311969
0.312313
0.312658
0.313001
0.313346
0.31369
0.314035
0.314379
0.314724
0.315068
0.315414
0.315758
0.316103
0.316447
0.316793
0.317137
0.317483
0.317827
0.318173
0.318517
0.318863
0.319208
0.319554
0.319899
0.320245
0.32059
0.320937
0.321282
0.321629
0.321974
0.322321
0.322667
0.323014
0.323359
0.323707
0.324053
0.3244
0.324746
0.325094
0.32544
0.325788
0.326134
0.326482
0.326829
0.327177
0.327524
0.327873
0.32822
0.328569
0.328916
0.329265
0.329612
0.329962
0.330309
0.330659
0.331007
0.331357
0.331705
0.332055
0.332403
0.332754
0.333102
0.333453
0.333802
0.334153
0.334502
0.334853
0.335203
0.335554
0.335904
0.336256
0.336606
0.336958
0.337308
0.33766
0.338011
0.338364
0.338715
0.339068
0.339419
0.339773
0.340124
0.340478
0.34083
0.341184
0.341537
0.341891
0.342244
0.342599
0.342952
0.343307
0.34366
0.344016
0.34437
0.344726
0.34508
0.345436
0.345791
0.346147
0.346502
0.346859
0.347215
0.347572
0.347928
0.348285
0.348641
0.348999
0.349356
0.349714
0.350071
0.35043
0.350787
0.351146
0.351504
0.351864
0.352222
0.352582
0.35294
0.353301
0.353659
0.35402
0.35438
0.354741
0.355101
0.355463
0.355824
0.356186
0.356547
0.35691
0.357272
0.357636
0.357998
0.358363
0.358726
0.359091
0.359455
0.359821
0.360185
0.360552
0.360918
0.361285
0.361652
0.36202
0.362387
0.362757
0.363125
0.363495
0.363864
0.364235
0.364605
0.364977
0.365347
0.365721
0.366092
0.366466
0.366838
0.367213
0.367586
0.367961
0.368335
0.368711
0.369086
0.369463
0.369838
0.370216
0.370592
0.370971
0.371348
0.371727
0.372105
0.372485
0.372864
0.373244
0.373624
0.374005
0.374386
0.374768
0.375149
0.375532
0.375914
0.376298
0.376681
0.377066
0.37745
0.377836
0.37822
0.378607
0.378993
0.37938
0.379768
0.380154
0.380545
0.380931
0.381324
0.38171
0.382105
0.382491
0.382888
0.383274
0.383672
0.384061
0.384459
0.384849
0.385248
0.385639
0.38604
0.386431
0.386834
0.387226
0.38763
0.388023
0.388428
0.388823
0.389229
0.389625
0.390032
0.39043
0.390838
0.391237
0.391647
0.392046
0.392459
0.392857
0.393275
0.39367
0.394095
0.394483
0.394918
0.395299
0.395746
0.396117
0.396577
0.396936
0.397412
0.397758
0.39825
0.398583
0.399091
0.399411
0.399935
0.400242
0.400783
0.401075
0.401633
0.401913
0.402486
0.402755
0.403341
0.403601
0.404199
0.404452
0.405059
0.405306
0.405922
0.406165
0.406788
0.407027
0.407658
0.407894
0.40853
0.408765
0.409405
0.409642
0.410283
0.410522
0.411165
0.411405
0.412051
0.412293
0.41294
0.413185
0.413834
0.414081
0.414731
0.414981
0.415632
0.415885
0.416537
0.416793
0.417446
0.417705
0.418361
0.418619
0.419279
0.419539
0.420199
0.42047
0.244234
)
;

boundaryField
{
    inlet
    {
        type            calculated;
        value           uniform 3.08149e-33;
    }
    outlet
    {
        type            calculated;
        value           uniform 0.244234;
    }
    emptyWalls
    {
        type            empty;
    }
}


// ************************************************************************* //
