/*--------------------------------*- C++ -*----------------------------------*\
  =========                 |
  \\      /  F ield         | OpenFOAM: The Open Source CFD Toolbox
   \\    /   O peration     | Website:  https://openfoam.org
    \\  /    A nd           | Version:  9
     \\/     M anipulation  |
\*---------------------------------------------------------------------------*/
FoamFile
{
    format      ascii;
    class       volScalarField;
    location    "27150";
    object      Sa;
}
// * * * * * * * * * * * * * * * * * * * * * * * * * * * * * * * * * * * * * //

dimensions      [0 0 0 0 0 0 0];

internalField   nonuniform List<scalar> 
1000
(
0.549626
0.548808
0.54782
0.546732
0.545741
0.544648
0.543638
0.542551
0.541499
0.540418
0.53933
0.538238
0.537135
0.536023
0.53491
0.533787
0.532666
0.531553
0.530433
0.529354
0.528255
0.527244
0.526191
0.525278
0.524322
0.523518
0.522711
0.522022
0.521375
0.520811
0.5203
0.519856
0.519451
0.519066
0.51857
0.517416
0.513376
0.497101
0.401329
0.146895
0.0849473
0.0685438
0.0614009
0.0571762
0.0541931
0.051852
0.0499006
0.0482074
0.0467048
0.0453465
0.0441075
0.0429659
0.0419097
0.0409264
0.0400096
0.0391504
0.0383454
0.0375879
0.0368754
0.0362035
0.0355697
0.0349694
0.0344024
0.0338638
0.0333533
0.0328672
0.032406
0.0319655
0.0315469
0.0311463
0.0307654
0.0303999
0.0300518
0.0297172
0.0293982
0.0290899
0.0287955
0.02851
0.0282377
0.0279734
0.0277177
0.0274726
0.0272379
0.0270134
0.0267988
0.0265935
0.0263969
0.0262083
0.0260275
0.0258543
0.0256888
0.0255313
0.025382
0.0252414
0.0251099
0.0249876
0.0248749
0.0247718
0.0246776
0.0245927
0.0245222
0.0244616
0.0244038
0.024351
0.0243084
0.0242737
0.0242469
0.0242272
0.0242089
0.0241875
0.024162
0.0241319
0.0240967
0.0240567
0.0240124
0.0239645
0.0239141
0.0238623
0.0238101
0.0237584
0.0237079
0.0236592
0.0236128
0.0235687
0.023527
0.0234877
0.0234506
0.0234155
0.023382
0.0233499
0.0233188
0.0232885
0.0232586
0.023229
0.0231995
0.0231699
0.0231403
0.0231104
0.0230804
0.0230502
0.0230198
0.0229894
0.0229588
0.0229283
0.0228977
0.0228673
0.0228368
0.0228066
0.0227764
0.0227464
0.0227165
0.0226869
0.0226574
0.0226282
0.0225991
0.0225702
0.0225416
0.0225131
0.0224849
0.0224569
0.0224291
0.0224015
0.0223742
0.022347
0.0223201
0.0222934
0.0222669
0.0222406
0.0222145
0.0221886
0.0221629
0.0221374
0.0221121
0.022087
0.022062
0.0220373
0.0220128
0.0219886
0.0219645
0.0219407
0.0219171
0.0218937
0.0218705
0.0218475
0.0218245
0.0218018
0.0217791
0.0217565
0.0217341
0.0217118
0.0216897
0.0216678
0.0216461
0.0216245
0.0216032
0.0215821
0.0215612
0.0215405
0.0215199
0.0214994
0.0214789
0.0214585
0.0214381
0.0214176
0.021397
0.0213764
0.0213559
0.0213356
0.0213155
0.0212959
0.021277
0.0212588
0.0212415
0.0212253
0.0212102
0.0211963
0.0211834
0.0211717
0.0211609
0.021151
0.0211418
0.0211332
0.021125
0.021117
0.021109
0.0211006
0.0210917
0.0210821
0.0210714
0.0210594
0.021046
0.0210309
0.0210141
0.0209955
0.0209751
0.020953
0.0209293
0.0209042
0.0208779
0.0208507
0.0208229
0.0207947
0.0207665
0.0207384
0.0207108
0.0206837
0.0206574
0.0206319
0.0206073
0.0205837
0.0205609
0.020539
0.020518
0.0204976
0.0204779
0.0204588
0.0204402
0.0204219
0.0204039
0.0203861
0.0203685
0.020351
0.0203336
0.0203162
0.0202987
0.0202812
0.0202637
0.0202462
0.0202286
0.020211
0.0201933
0.0201756
0.0201579
0.0201403
0.0201226
0.0201049
0.0200873
0.0200697
0.0200522
0.0200347
0.0200173
0.02
0.0199827
0.0199655
0.0199485
0.0199315
0.0199146
0.0198978
0.0198811
0.0198645
0.019848
0.0198316
0.0198153
0.0197992
0.0197831
0.0197671
0.0197512
0.0197354
0.0197197
0.0197041
0.0196886
0.0196733
0.019658
0.0196428
0.0196278
0.0196128
0.0195979
0.0195832
0.0195686
0.019554
0.0195395
0.0195252
0.0195109
0.0194967
0.0194826
0.0194686
0.0194546
0.0194407
0.0194269
0.0194132
0.0193996
0.019386
0.0193725
0.0193592
0.0193459
0.0193327
0.0193195
0.0193065
0.0192935
0.0192805
0.0192676
0.0192547
0.0192419
0.019229
0.0192162
0.0192034
0.0191907
0.0191781
0.0191656
0.0191533
0.0191411
0.0191292
0.0191176
0.0191064
0.0190956
0.0190853
0.0190753
0.019066
0.0190572
0.0190489
0.0190411
0.0190339
0.0190271
0.0190209
0.019015
0.0190095
0.0190041
0.018999
0.0189938
0.0189888
0.0189834
0.018978
0.018972
0.0189657
0.0189586
0.0189511
0.0189425
0.0189335
0.0189231
0.0189122
0.0189
0.0188873
0.0188732
0.0188587
0.018843
0.018827
0.01881
0.0187929
0.018775
0.0187573
0.018739
0.0187211
0.0187028
0.0186851
0.0186673
0.0186502
0.018633
0.0186166
0.0186003
0.0185847
0.0185693
0.0185545
0.01854
0.018526
0.0185121
0.0184988
0.0184855
0.0184727
0.0184599
0.0184474
0.018435
0.0184227
0.0184105
0.0183984
0.0183863
0.0183743
0.0183622
0.0183502
0.0183382
0.0183261
0.0183141
0.018302
0.01829
0.0182779
0.0182658
0.0182537
0.0182416
0.0182296
0.0182175
0.0182055
0.0181934
0.0181814
0.0181695
0.0181575
0.0181456
0.0181338
0.018122
0.0181102
0.0180985
0.0180868
0.0180752
0.0180637
0.0180521
0.0180407
0.0180293
0.018018
0.0180067
0.0179955
0.0179844
0.0179733
0.0179623
0.0179513
0.0179404
0.0179296
0.0179188
0.0179081
0.0178975
0.0178869
0.0178764
0.017866
0.0178556
0.0178453
0.017835
0.0178248
0.0178146
0.0178045
0.0177945
0.0177845
0.0177746
0.0177647
0.0177549
0.0177451
0.0177354
0.0177257
0.0177161
0.0177066
0.017697
0.0176876
0.0176781
0.0176688
0.0176594
0.0176501
0.0176408
0.0176316
0.0176224
0.0176133
0.0176041
0.0175951
0.017586
0.017577
0.017568
0.0175592
0.0175504
0.0175418
0.0175332
0.0175248
0.0175165
0.0175085
0.0175005
0.017493
0.0174855
0.0174785
0.0174715
0.017465
0.0174587
0.0174528
0.0174471
0.0174418
0.0174367
0.0174319
0.0174273
0.017423
0.0174188
0.0174149
0.0174109
0.0174072
0.0174033
0.0173995
0.0173955
0.0173915
0.0173871
0.0173827
0.0173776
0.0173726
0.0173668
0.0173609
0.0173541
0.0173472
0.0173394
0.0173314
0.0173225
0.0173134
0.0173034
0.0172933
0.0172822
0.0172713
0.0172593
0.0172476
0.017235
0.0172228
0.0172098
0.0171973
0.017184
0.0171714
0.0171581
0.0171457
0.0171326
0.0171204
0.0171076
0.0170958
0.0170834
0.0170721
0.0170601
0.0170493
0.0170377
0.0170273
0.0170162
0.0170063
0.0169955
0.0169859
0.0169755
0.0169662
0.016956
0.0169469
0.0169369
0.016928
0.0169181
0.0169094
0.0168995
0.0168909
0.0168811
0.0168726
0.0168627
0.0168542
0.0168443
0.0168359
0.016826
0.0168176
0.0168077
0.0167994
0.0167893
0.0167811
0.016771
0.0167628
0.0167528
0.0167446
0.0167346
0.0167265
0.0167164
0.0167084
0.0166984
0.0166904
0.0166805
0.0166726
0.0166627
0.0166548
0.0166451
0.0166372
0.0166276
0.0166198
0.0166103
0.0166025
0.0165931
0.0165854
0.0165762
0.0165684
0.0165594
0.0165516
0.0165428
0.016535
0.0165263
0.0165186
0.0165101
0.0165024
0.016494
0.0164863
0.016478
0.0164705
0.0164623
0.0164548
0.0164467
0.0164392
0.0164313
0.0164239
0.016416
0.0164087
0.0164009
0.0163937
0.016386
0.0163788
0.0163711
0.0163641
0.0163564
0.0163495
0.0163419
0.0163351
0.0163274
0.0163207
0.0163131
0.0163065
0.0162989
0.0162925
0.0162848
0.0162786
0.0162709
0.0162648
0.0162571
0.0162513
0.0162436
0.016238
0.0162304
0.016225
0.0162175
0.0162125
0.0162051
0.0162005
0.0161933
0.016189
0.016182
0.0161782
0.0161715
0.016168
0.0161616
0.0161586
0.0161525
0.01615
0.0161442
0.016142
0.0161365
0.0161346
0.0161293
0.0161277
0.0161226
0.0161211
0.0161161
0.0161147
0.0161097
0.0161082
0.0161031
0.0161014
0.016096
0.016094
0.0160883
0.0160859
0.0160797
0.0160768
0.01607
0.0160665
0.0160591
0.0160549
0.0160468
0.0160419
0.0160331
0.0160275
0.016018
0.0160118
0.0160016
0.0159948
0.0159841
0.0159767
0.0159656
0.0159578
0.0159463
0.0159383
0.0159266
0.0159184
0.0159066
0.0158984
0.0158866
0.0158785
0.0158668
0.0158588
0.0158473
0.0158395
0.0158282
0.0158207
0.0158097
0.0158024
0.0157917
0.0157847
0.0157742
0.0157674
0.0157572
0.0157507
0.0157407
0.0157344
0.0157246
0.0157184
0.0157088
0.0157028
0.0156932
0.0156873
0.0156779
0.0156721
0.0156627
0.0156569
0.0156476
0.0156419
0.0156326
0.0156269
0.0156176
0.015612
0.0156027
0.015597
0.0155878
0.0155822
0.0155729
0.0155673
0.0155581
0.0155525
0.0155433
0.0155377
0.0155285
0.0155229
0.0155138
0.0155083
0.0154992
0.0154937
0.0154846
0.0154792
0.0154701
0.0154647
0.0154557
0.0154504
0.0154415
0.0154362
0.0154273
0.0154221
0.0154132
0.0154081
0.0153993
0.0153942
0.0153855
0.0153805
0.0153719
0.0153669
0.0153583
0.0153534
0.0153449
0.0153401
0.0153316
0.0153269
0.0153185
0.0153138
0.0153055
0.0153008
0.0152926
0.015288
0.0152798
0.0152753
0.0152672
0.0152627
0.0152546
0.0152502
0.0152422
0.0152379
0.0152299
0.0152256
0.0152177
0.0152134
0.0152055
0.0152013
0.0151935
0.0151894
0.0151816
0.0151775
0.0151698
0.0151657
0.015158
0.0151541
0.0151464
0.0151425
0.015135
0.0151311
0.0151237
0.0151199
0.0151126
0.0151089
0.0151017
0.0150982
0.0150911
0.0150877
0.0150808
0.0150776
0.0150709
0.0150679
0.0150613
0.0150586
0.0150523
0.0150497
0.0150436
0.0150413
0.0150355
0.0150334
0.0150278
0.0150259
0.0150205
0.0150189
0.0150137
0.0150122
0.0150071
0.0150058
0.0150008
0.0149996
0.0149947
0.0149935
0.0149886
0.0149873
0.0149824
0.0149811
0.014976
0.0149747
0.0149692
0.0149676
0.0149618
0.0149599
0.0149539
0.0149516
0.0149452
0.0149425
0.0149356
0.0149325
0.0149251
0.0149216
0.0149137
0.0149097
0.0149014
0.0148969
0.0148881
0.0148832
0.014874
0.0148687
0.0148592
0.0148535
0.0148437
0.0148377
0.0148277
0.0148216
0.0148113
0.0148051
0.0147947
0.0147885
0.014778
0.0147718
0.0147614
0.0147553
0.0147449
0.0147389
0.0147286
0.0147228
0.0147126
0.014707
0.0146969
0.0146915
0.0146815
0.0146764
0.0146665
0.0146616
0.0146517
0.0146471
0.0146373
0.0146328
0.0146231
0.0146189
0.0146091
0.0146051
0.0145953
0.0145914
0.0145816
0.014578
0.0145681
0.0145646
0.0145547
0.0145513
0.0145413
0.014538
0.014528
0.0145248
0.0145147
0.0145116
0.0145015
0.0144984
0.0144883
0.0144852
0.0144751
0.0144721
0.014462
0.014459
0.0144489
0.0144459
0.0144358
0.0144328
0.0144227
0.0144198
0.0144097
0.0144069
0.0143967
0.014394
0.0143838
0.0143811
0.0143709
0.0143683
0.0143581
0.0143556
0.0143454
0.0143429
0.0143328
0.0143303
0.0143203
0.0143178
0.0143078
0.0143053
0.0142954
0.014293
0.0142831
0.0142807
0.0142709
0.0142685
0.0142589
0.0142563
0.014247
0.0142442
0.0142351
0.0142322
0.0142233
0.0142202
0.0142116
0.0142084
0.0142
0.0141966
0.0141884
0.0141849
0.0141769
0.0141733
0.0141654
0.0141618
0.014154
0.0141503
0.0141427
0.014139
0.0141314
0.0141277
0.0141201
0.0141164
0.0141089
0.0141053
0.0140978
0.0140943
0.0140868
0.0140833
0.0140759
0.0140725
0.014065
0.0140618
0.0140543
0.0140512
0.0140438
0.0140408
0.0140334
0.0140307
0.0140232
0.0140207
0.0140133
0.014011
0.0140036
0.0140015
0.0139942
0.0139923
0.0139789
0.216631
)
;

boundaryField
{
    inlet
    {
        type            fixedValue;
        value           uniform 0.55;
    }
    outlet
    {
        type            zeroGradient;
    }
    emptyWalls
    {
        type            empty;
    }
}


// ************************************************************************* //
