/*--------------------------------*- C++ -*----------------------------------*\
  =========                 |
  \\      /  F ield         | OpenFOAM: The Open Source CFD Toolbox
   \\    /   O peration     | Website:  https://openfoam.org
    \\  /    A nd           | Version:  9
     \\/     M anipulation  |
\*---------------------------------------------------------------------------*/
FoamFile
{
    format      ascii;
    class       volScalarField;
    location    "41000";
    object      krc;
}
// * * * * * * * * * * * * * * * * * * * * * * * * * * * * * * * * * * * * * //

dimensions      [0 0 0 0 0 0 0];

internalField   nonuniform List<scalar> 
100
(
2.82622e-24
1.04595e-24
7.9358e-25
1.46931e-24
3.06098e-25
1.15648e-24
3.03757e-25
7.22322e-26
9.7991e-25
5.38149e-25
1.14049e-24
9.21831e-26
5.46379e-26
4.31811e-25
1.43732e-24
7.21901e-26
6.993e-26
2.85186e-25
5.02117e-24
7.77367e-24
7.25554e-24
1.72534e-23
2.08694e-23
1.98808e-23
5.87437e-23
5.58711e-23
1.25065e-22
1.26753e-22
2.42658e-22
2.68408e-22
4.56882e-22
5.29687e-22
6.46483e-22
8.29246e-22
1.11149e-21
1.21953e-21
1.46335e-21
1.6315e-21
1.84338e-21
1.93686e-21
1.92539e-21
1.77128e-21
1.66603e-21
1.74527e-21
1.2493e-21
7.05444e-22
2.90828e-22
3.85448e-24
1.24471e-22
3.8899e-22
1.21188e-21
2.88788e-21
5.00726e-21
7.63649e-21
1.17355e-20
1.75087e-20
2.33039e-20
3.06283e-20
3.92657e-20
4.75429e-20
5.58178e-20
6.36533e-20
7.06254e-20
7.71126e-20
8.19027e-20
8.51452e-20
8.91481e-20
8.91907e-20
9.05458e-20
8.85708e-20
8.7101e-20
8.34004e-20
7.91113e-20
7.3895e-20
6.89062e-20
6.28659e-20
5.75367e-20
5.13761e-20
4.61768e-20
3.99935e-20
3.49986e-20
2.92792e-20
2.53879e-20
2.14581e-20
1.78726e-20
1.46529e-20
1.20216e-20
9.75424e-21
7.61881e-21
6.06558e-21
4.44735e-21
3.34373e-21
2.77288e-21
1.04542e-21
4.67236e-21
3.1368e-20
4.08077e-19
8.36835e-18
1.06149e-16
5.6025e-16
)
;

boundaryField
{
    inlet
    {
        type            calculated;
        value           uniform 2.82622e-24;
    }
    outlet
    {
        type            calculated;
        value           uniform 5.6025e-16;
    }
    emptyWalls
    {
        type            empty;
    }
}


// ************************************************************************* //
