/*--------------------------------*- C++ -*----------------------------------*\
  =========                 |
  \\      /  F ield         | OpenFOAM: The Open Source CFD Toolbox
   \\    /   O peration     | Website:  https://openfoam.org
    \\  /    A nd           | Version:  9
     \\/     M anipulation  |
\*---------------------------------------------------------------------------*/
FoamFile
{
    format      ascii;
    class       surfaceScalarField;
    location    "29800";
    object      phib;
}
// * * * * * * * * * * * * * * * * * * * * * * * * * * * * * * * * * * * * * //

dimensions      [0 2 0 0 0 0 0];

internalField   nonuniform List<scalar> 
999
(
1.13622e-09
1.13623e-09
1.13623e-09
1.13623e-09
1.13625e-09
1.13624e-09
1.13626e-09
1.13626e-09
1.13628e-09
1.13629e-09
1.13631e-09
1.13632e-09
1.13634e-09
1.13637e-09
1.13638e-09
1.13642e-09
1.13644e-09
1.13648e-09
1.13651e-09
1.13653e-09
1.13657e-09
1.1366e-09
1.13663e-09
1.13667e-09
1.1367e-09
1.13674e-09
1.13677e-09
1.13682e-09
1.13684e-09
1.13688e-09
1.13691e-09
1.13693e-09
1.13696e-09
1.13696e-09
1.13699e-09
1.137e-09
1.13702e-09
1.13704e-09
1.13709e-09
1.13725e-09
1.13788e-09
1.1411e-09
1.16564e-09
1.1743e-09
1.17644e-09
1.1773e-09
1.17779e-09
1.17814e-09
1.17841e-09
1.17864e-09
1.17884e-09
1.17901e-09
1.17917e-09
1.17931e-09
1.17944e-09
1.17955e-09
1.17966e-09
1.17975e-09
1.17984e-09
1.17993e-09
1.18e-09
1.18005e-09
1.18009e-09
1.18012e-09
1.18015e-09
1.18018e-09
1.18021e-09
1.18025e-09
1.18029e-09
1.18033e-09
1.18034e-09
1.18033e-09
1.18029e-09
1.18026e-09
1.18024e-09
1.18024e-09
1.18024e-09
1.18025e-09
1.18028e-09
1.18032e-09
1.18033e-09
1.18032e-09
1.18029e-09
1.18024e-09
1.18008e-09
1.17973e-09
1.17935e-09
1.17895e-09
1.17855e-09
1.17816e-09
1.17781e-09
1.17752e-09
1.17729e-09
1.17711e-09
1.17698e-09
1.17686e-09
1.17675e-09
1.17666e-09
1.17673e-09
1.17691e-09
1.17714e-09
1.17742e-09
1.1777e-09
1.17798e-09
1.17823e-09
1.17845e-09
1.17863e-09
1.17876e-09
1.17884e-09
1.17887e-09
1.17886e-09
1.17881e-09
1.17871e-09
1.17857e-09
1.1784e-09
1.17819e-09
1.17796e-09
1.1777e-09
1.17743e-09
1.17714e-09
1.17686e-09
1.17657e-09
1.17629e-09
1.17601e-09
1.17572e-09
1.17544e-09
1.17516e-09
1.17489e-09
1.17461e-09
1.17433e-09
1.17405e-09
1.17377e-09
1.17349e-09
1.1732e-09
1.17292e-09
1.17263e-09
1.17234e-09
1.17205e-09
1.17176e-09
1.17147e-09
1.17117e-09
1.17088e-09
1.17058e-09
1.17028e-09
1.16997e-09
1.16967e-09
1.16936e-09
1.16905e-09
1.16874e-09
1.16843e-09
1.16811e-09
1.1678e-09
1.16748e-09
1.16716e-09
1.16684e-09
1.16652e-09
1.16619e-09
1.16587e-09
1.16554e-09
1.16521e-09
1.16488e-09
1.16454e-09
1.1642e-09
1.16386e-09
1.16352e-09
1.16318e-09
1.16283e-09
1.16249e-09
1.16214e-09
1.1618e-09
1.16145e-09
1.1611e-09
1.16076e-09
1.16041e-09
1.16005e-09
1.1597e-09
1.15934e-09
1.15897e-09
1.15861e-09
1.15825e-09
1.15788e-09
1.15751e-09
1.15715e-09
1.15679e-09
1.15642e-09
1.15607e-09
1.15571e-09
1.15536e-09
1.155e-09
1.15465e-09
1.15429e-09
1.15391e-09
1.15353e-09
1.15313e-09
1.15271e-09
1.15227e-09
1.15181e-09
1.15133e-09
1.15082e-09
1.1503e-09
1.14977e-09
1.14922e-09
1.14867e-09
1.14811e-09
1.14755e-09
1.14699e-09
1.14645e-09
1.14591e-09
1.14539e-09
1.14489e-09
1.14442e-09
1.14398e-09
1.14357e-09
1.14319e-09
1.14285e-09
1.14254e-09
1.14227e-09
1.14202e-09
1.1418e-09
1.14159e-09
1.1414e-09
1.14122e-09
1.14104e-09
1.14085e-09
1.14066e-09
1.14046e-09
1.14024e-09
1.14001e-09
1.13977e-09
1.13951e-09
1.13923e-09
1.13893e-09
1.13863e-09
1.13831e-09
1.13798e-09
1.13764e-09
1.13729e-09
1.13694e-09
1.13659e-09
1.13623e-09
1.13587e-09
1.13552e-09
1.13516e-09
1.1348e-09
1.13445e-09
1.13409e-09
1.13374e-09
1.13339e-09
1.13304e-09
1.1327e-09
1.13235e-09
1.132e-09
1.13166e-09
1.13132e-09
1.13097e-09
1.13063e-09
1.13029e-09
1.12994e-09
1.1296e-09
1.12926e-09
1.12891e-09
1.12856e-09
1.12822e-09
1.12787e-09
1.12752e-09
1.12717e-09
1.12682e-09
1.12647e-09
1.12612e-09
1.12576e-09
1.12541e-09
1.12505e-09
1.12469e-09
1.12433e-09
1.12397e-09
1.12361e-09
1.12325e-09
1.12289e-09
1.12252e-09
1.12215e-09
1.12179e-09
1.12142e-09
1.12105e-09
1.12068e-09
1.1203e-09
1.11993e-09
1.11955e-09
1.11918e-09
1.1188e-09
1.11842e-09
1.11804e-09
1.11766e-09
1.11727e-09
1.11689e-09
1.11651e-09
1.11612e-09
1.11573e-09
1.11535e-09
1.11496e-09
1.11457e-09
1.11418e-09
1.11378e-09
1.11339e-09
1.113e-09
1.1126e-09
1.1122e-09
1.11181e-09
1.11141e-09
1.11101e-09
1.11061e-09
1.11022e-09
1.10982e-09
1.10943e-09
1.10903e-09
1.10863e-09
1.10823e-09
1.10783e-09
1.10743e-09
1.10701e-09
1.1066e-09
1.10617e-09
1.10574e-09
1.1053e-09
1.10485e-09
1.10439e-09
1.10392e-09
1.10343e-09
1.10294e-09
1.10244e-09
1.10193e-09
1.10141e-09
1.10089e-09
1.10036e-09
1.09982e-09
1.09929e-09
1.09876e-09
1.09823e-09
1.09771e-09
1.09719e-09
1.09669e-09
1.0962e-09
1.09572e-09
1.09526e-09
1.09482e-09
1.09439e-09
1.09398e-09
1.0936e-09
1.09323e-09
1.09287e-09
1.09254e-09
1.09222e-09
1.09191e-09
1.09161e-09
1.09132e-09
1.09104e-09
1.09076e-09
1.09048e-09
1.0902e-09
1.08992e-09
1.08963e-09
1.08934e-09
1.08904e-09
1.08873e-09
1.08842e-09
1.08809e-09
1.08776e-09
1.08742e-09
1.08708e-09
1.08672e-09
1.08636e-09
1.086e-09
1.08563e-09
1.08525e-09
1.08488e-09
1.0845e-09
1.08412e-09
1.08373e-09
1.08335e-09
1.08296e-09
1.08258e-09
1.08219e-09
1.08181e-09
1.08142e-09
1.08104e-09
1.08065e-09
1.08027e-09
1.07988e-09
1.0795e-09
1.07912e-09
1.07874e-09
1.07835e-09
1.07797e-09
1.07759e-09
1.07721e-09
1.07683e-09
1.07644e-09
1.07606e-09
1.07568e-09
1.07529e-09
1.07491e-09
1.07452e-09
1.07414e-09
1.07375e-09
1.07336e-09
1.07298e-09
1.07259e-09
1.0722e-09
1.07181e-09
1.07141e-09
1.07102e-09
1.07063e-09
1.07023e-09
1.06984e-09
1.06944e-09
1.06904e-09
1.06865e-09
1.06825e-09
1.06785e-09
1.06744e-09
1.06704e-09
1.06664e-09
1.06623e-09
1.06583e-09
1.06542e-09
1.06501e-09
1.0646e-09
1.06419e-09
1.06378e-09
1.06337e-09
1.06296e-09
1.06254e-09
1.06213e-09
1.06171e-09
1.0613e-09
1.06088e-09
1.06046e-09
1.06004e-09
1.05962e-09
1.0592e-09
1.05878e-09
1.05836e-09
1.05793e-09
1.05751e-09
1.05708e-09
1.05666e-09
1.05623e-09
1.05581e-09
1.05538e-09
1.05495e-09
1.05453e-09
1.0541e-09
1.05367e-09
1.05324e-09
1.05281e-09
1.05238e-09
1.05194e-09
1.0515e-09
1.05106e-09
1.05062e-09
1.05017e-09
1.04972e-09
1.04927e-09
1.04881e-09
1.04834e-09
1.04787e-09
1.04739e-09
1.0469e-09
1.04641e-09
1.04592e-09
1.04541e-09
1.04491e-09
1.04439e-09
1.04388e-09
1.04336e-09
1.04283e-09
1.04231e-09
1.04178e-09
1.04125e-09
1.04073e-09
1.04021e-09
1.03969e-09
1.03917e-09
1.03867e-09
1.03817e-09
1.03767e-09
1.03719e-09
1.03671e-09
1.03625e-09
1.0358e-09
1.03536e-09
1.03493e-09
1.03451e-09
1.0341e-09
1.0337e-09
1.03331e-09
1.03293e-09
1.03256e-09
1.03219e-09
1.03183e-09
1.03148e-09
1.03113e-09
1.03078e-09
1.03043e-09
1.03008e-09
1.02973e-09
1.02938e-09
1.02902e-09
1.02866e-09
1.0283e-09
1.02794e-09
1.02757e-09
1.02719e-09
1.02681e-09
1.02643e-09
1.02604e-09
1.02565e-09
1.02525e-09
1.02485e-09
1.02444e-09
1.02404e-09
1.02363e-09
1.02322e-09
1.0228e-09
1.02239e-09
1.02197e-09
1.02155e-09
1.02113e-09
1.02071e-09
1.02029e-09
1.01987e-09
1.01945e-09
1.01903e-09
1.01861e-09
1.01819e-09
1.01776e-09
1.01734e-09
1.01692e-09
1.0165e-09
1.01608e-09
1.01566e-09
1.01523e-09
1.01481e-09
1.01439e-09
1.01397e-09
1.01354e-09
1.01312e-09
1.0127e-09
1.01227e-09
1.01185e-09
1.01142e-09
1.011e-09
1.01057e-09
1.01014e-09
1.00971e-09
1.00929e-09
1.00886e-09
1.00843e-09
1.008e-09
1.00756e-09
1.00713e-09
1.0067e-09
1.00626e-09
1.00583e-09
1.00539e-09
1.00495e-09
1.00452e-09
1.00408e-09
1.00364e-09
1.0032e-09
1.00276e-09
1.00231e-09
1.00187e-09
1.00142e-09
1.00098e-09
1.00053e-09
1.00009e-09
9.99638e-10
9.99189e-10
9.9874e-10
9.98289e-10
9.97838e-10
9.97385e-10
9.96932e-10
9.96478e-10
9.96023e-10
9.95567e-10
9.95111e-10
9.94653e-10
9.94195e-10
9.93736e-10
9.93277e-10
9.92816e-10
9.92355e-10
9.91894e-10
9.91432e-10
9.90969e-10
9.90505e-10
9.90041e-10
9.89576e-10
9.8911e-10
9.88644e-10
9.88176e-10
9.87707e-10
9.87238e-10
9.86766e-10
9.86294e-10
9.85819e-10
9.85343e-10
9.84864e-10
9.84383e-10
9.83899e-10
9.83412e-10
9.82922e-10
9.82428e-10
9.81932e-10
9.81431e-10
9.80927e-10
9.80418e-10
9.79906e-10
9.7939e-10
9.7887e-10
9.78346e-10
9.77819e-10
9.77289e-10
9.76755e-10
9.76219e-10
9.7568e-10
9.7514e-10
9.74598e-10
9.74055e-10
9.73513e-10
9.7297e-10
9.72429e-10
9.71889e-10
9.71351e-10
9.70816e-10
9.70285e-10
9.69758e-10
9.69235e-10
9.68718e-10
9.68206e-10
9.67701e-10
9.67202e-10
9.66709e-10
9.66224e-10
9.65745e-10
9.65273e-10
9.64808e-10
9.6435e-10
9.63898e-10
9.63452e-10
9.63011e-10
9.62576e-10
9.62145e-10
9.61718e-10
9.61294e-10
9.60873e-10
9.60453e-10
9.60035e-10
9.59618e-10
9.59201e-10
9.58784e-10
9.58365e-10
9.57945e-10
9.57524e-10
9.571e-10
9.56674e-10
9.56245e-10
9.55814e-10
9.5538e-10
9.54942e-10
9.54503e-10
9.5406e-10
9.53614e-10
9.53166e-10
9.52715e-10
9.52262e-10
9.51806e-10
9.51349e-10
9.50889e-10
9.50428e-10
9.49965e-10
9.49501e-10
9.49035e-10
9.48568e-10
9.48101e-10
9.47632e-10
9.47163e-10
9.46693e-10
9.46222e-10
9.45751e-10
9.45279e-10
9.44807e-10
9.44335e-10
9.43862e-10
9.43389e-10
9.42916e-10
9.42442e-10
9.41967e-10
9.41493e-10
9.41018e-10
9.40542e-10
9.40066e-10
9.3959e-10
9.39113e-10
9.38636e-10
9.38158e-10
9.37679e-10
9.372e-10
9.3672e-10
9.3624e-10
9.35758e-10
9.35276e-10
9.34794e-10
9.3431e-10
9.33826e-10
9.33341e-10
9.32855e-10
9.32368e-10
9.31881e-10
9.31392e-10
9.30903e-10
9.30413e-10
9.29922e-10
9.2943e-10
9.28937e-10
9.28443e-10
9.27948e-10
9.27452e-10
9.26956e-10
9.26458e-10
9.25959e-10
9.2546e-10
9.2496e-10
9.24458e-10
9.23956e-10
9.23453e-10
9.22949e-10
9.22444e-10
9.21938e-10
9.21431e-10
9.20923e-10
9.20414e-10
9.19905e-10
9.19395e-10
9.18883e-10
9.18371e-10
9.17858e-10
9.17344e-10
9.1683e-10
9.16314e-10
9.15798e-10
9.15281e-10
9.14763e-10
9.14245e-10
9.13725e-10
9.13205e-10
9.12683e-10
9.12161e-10
9.11638e-10
9.11114e-10
9.10589e-10
9.10063e-10
9.09536e-10
9.09007e-10
9.08477e-10
9.07946e-10
9.07413e-10
9.06878e-10
9.06342e-10
9.05803e-10
9.05263e-10
9.0472e-10
9.04175e-10
9.03628e-10
9.03078e-10
9.02526e-10
9.01971e-10
9.01413e-10
9.00852e-10
9.00289e-10
8.99723e-10
8.99154e-10
8.98582e-10
8.98008e-10
8.97432e-10
8.96853e-10
8.96272e-10
8.95689e-10
8.95104e-10
8.94518e-10
8.93931e-10
8.93343e-10
8.92754e-10
8.92166e-10
8.91577e-10
8.90988e-10
8.90399e-10
8.89812e-10
8.89226e-10
8.88642e-10
8.8806e-10
8.87482e-10
8.86904e-10
8.86333e-10
8.85762e-10
8.85197e-10
8.84634e-10
8.84077e-10
8.83521e-10
8.82972e-10
8.82425e-10
8.81884e-10
8.81347e-10
8.80817e-10
8.8029e-10
8.79764e-10
8.79243e-10
8.78724e-10
8.78209e-10
8.77695e-10
8.77185e-10
8.76675e-10
8.76168e-10
8.75661e-10
8.75156e-10
8.7465e-10
8.74145e-10
8.73639e-10
8.73133e-10
8.72626e-10
8.72118e-10
8.71609e-10
8.71098e-10
8.70585e-10
8.70071e-10
8.69554e-10
8.69035e-10
8.68515e-10
8.67992e-10
8.67467e-10
8.6694e-10
8.6641e-10
8.65879e-10
8.65346e-10
8.64811e-10
8.64273e-10
8.63735e-10
8.63193e-10
8.62652e-10
8.62107e-10
8.61564e-10
8.61015e-10
8.6047e-10
8.59917e-10
8.59371e-10
8.58815e-10
8.58268e-10
8.57709e-10
8.57161e-10
8.566e-10
8.56051e-10
8.55488e-10
8.54937e-10
8.54372e-10
8.5382e-10
8.53253e-10
8.52699e-10
8.52132e-10
8.51576e-10
8.51007e-10
8.50449e-10
8.49879e-10
8.49319e-10
8.48748e-10
8.48185e-10
8.47614e-10
8.47049e-10
8.46476e-10
8.45908e-10
8.45335e-10
8.44764e-10
8.44189e-10
8.43616e-10
8.43039e-10
8.42464e-10
8.41886e-10
8.41307e-10
8.40728e-10
8.40147e-10
8.39566e-10
8.38982e-10
8.38399e-10
8.37813e-10
8.37227e-10
8.36639e-10
8.36051e-10
8.35461e-10
8.34871e-10
8.34278e-10
8.33685e-10
8.33091e-10
8.32496e-10
8.31898e-10
8.31301e-10
8.30702e-10
8.30102e-10
8.295e-10
8.28898e-10
8.28294e-10
8.2769e-10
8.27083e-10
8.26477e-10
8.25867e-10
8.25259e-10
8.24647e-10
8.24036e-10
8.23422e-10
8.22809e-10
8.22193e-10
8.21577e-10
8.2096e-10
8.20341e-10
8.19721e-10
8.19101e-10
8.18478e-10
8.17855e-10
8.1723e-10
8.16604e-10
8.15977e-10
8.15348e-10
8.14718e-10
8.14088e-10
8.13454e-10
8.12821e-10
8.12185e-10
8.11548e-10
8.10908e-10
8.10269e-10
8.09625e-10
8.08982e-10
8.08335e-10
8.07687e-10
8.07037e-10
8.06384e-10
8.05729e-10
8.05073e-10
8.04413e-10
8.03752e-10
8.03088e-10
8.02422e-10
8.01753e-10
8.01082e-10
8.00409e-10
7.99733e-10
7.99054e-10
7.98374e-10
7.97691e-10
7.97006e-10
7.96318e-10
7.9563e-10
7.94938e-10
7.94246e-10
7.93552e-10
7.92856e-10
7.92159e-10
7.91462e-10
7.90762e-10
7.90063e-10
7.89362e-10
7.88662e-10
7.87959e-10
7.87258e-10
7.86556e-10
7.85855e-10
7.85154e-10
7.84453e-10
7.83754e-10
7.83055e-10
7.82357e-10
7.81662e-10
7.80966e-10
7.80275e-10
7.79582e-10
7.78894e-10
7.78206e-10
7.77522e-10
7.76837e-10
7.76158e-10
7.75477e-10
7.74802e-10
7.74126e-10
7.73455e-10
7.72782e-10
7.72114e-10
7.71444e-10
7.70778e-10
7.7011e-10
7.69443e-10
)
;

boundaryField
{
    inlet
    {
        type            calculated;
        value           uniform -1.13622e-09;
    }
    outlet
    {
        type            calculated;
        value           uniform 8.43421e-10;
    }
    emptyWalls
    {
        type            empty;
        value           nonuniform List<scalar> 0();
    }
}


// ************************************************************************* //
