/*--------------------------------*- C++ -*----------------------------------*\
  =========                 |
  \\      /  F ield         | OpenFOAM: The Open Source CFD Toolbox
   \\    /   O peration     | Website:  https://openfoam.org
    \\  /    A nd           | Version:  9
     \\/     M anipulation  |
\*---------------------------------------------------------------------------*/
FoamFile
{
    format      ascii;
    class       volScalarField;
    location    "20650";
    object      kra;
}
// * * * * * * * * * * * * * * * * * * * * * * * * * * * * * * * * * * * * * //

dimensions      [0 0 0 0 0 0 0];

internalField   nonuniform List<scalar> 
1000
(
0.000236707
0.000237774
0.00023903
0.000240399
0.000241682
0.000243022
0.000244351
0.000245695
0.000247054
0.000248426
0.0002498
0.000251189
0.000252567
0.000253935
0.000255284
0.000256573
0.000257845
0.000258979
0.000260131
0.000261055
0.000262034
0.000262757
0.000263517
0.000264097
0.00026472
0.000265517
0.000267638
0.000275143
0.000310442
0.000551006
0.000827008
0.000881728
0.000898296
0.000906279
0.000911256
0.000914853
0.000917618
0.000919788
0.000921492
0.000922895
0.000924148
0.000925353
0.000926491
0.000927464
0.000928155
0.000928545
0.000928742
0.000928982
0.00092954
0.000930642
0.000932375
0.000934662
0.000937271
0.00093988
0.000942167
0.000943892
0.000944953
0.000945422
0.000945516
0.000945503
0.00094539
0.000944626
0.000942517
0.000939915
0.000937054
0.000934121
0.000931268
0.000928609
0.000926209
0.000924103
0.000922277
0.000920708
0.000919338
0.00091812
0.000916973
0.000915834
0.000914603
0.00091321
0.000911556
0.0009096
0.000907301
0.000904703
0.000901854
0.000898832
0.000895687
0.000892455
0.000889167
0.000885845
0.000882505
0.000879161
0.000875822
0.000872497
0.00086919
0.000865906
0.000862648
0.000859418
0.000856217
0.000853047
0.000849909
0.000846801
0.000843726
0.000840682
0.00083767
0.000834689
0.00083174
0.000828822
0.000825934
0.000823078
0.000820252
0.000817456
0.000814691
0.000811957
0.000809252
0.000806578
0.000803932
0.000801317
0.000798729
0.00079617
0.000793638
0.000791134
0.000788655
0.000786205
0.000783779
0.000781382
0.000779011
0.000776669
0.000774353
0.000772066
0.000769805
0.000767572
0.000765362
0.000763177
0.000761012
0.000758865
0.000756734
0.000754619
0.000752518
0.000750433
0.000748365
0.000746316
0.000744287
0.000742279
0.000740293
0.000738329
0.000736387
0.000734465
0.00073256
0.000730669
0.000728788
0.000726913
0.000725042
0.000723173
0.00072131
0.000719461
0.000717635
0.000715848
0.000714114
0.000712449
0.000710865
0.000709372
0.000707976
0.000706678
0.000705475
0.000704361
0.000703327
0.000702361
0.00070145
0.000700578
0.000699729
0.000698885
0.000698025
0.000697128
0.000696172
0.000695135
0.000693997
0.000692741
0.00069135
0.000689817
0.000688136
0.000686311
0.00068435
0.000682267
0.000680083
0.000677821
0.000675506
0.000673165
0.000670824
0.000668506
0.000666233
0.000664021
0.000661883
0.000659827
0.000657857
0.000655974
0.000654176
0.000652457
0.00065081
0.000649227
0.0006477
0.000646218
0.000644774
0.000643359
0.000641965
0.000640586
0.000639217
0.000637853
0.000636492
0.00063513
0.000633766
0.000632399
0.000631029
0.000629656
0.000628281
0.000626905
0.000625528
0.000624152
0.000622778
0.000621406
0.000620038
0.000618674
0.000617316
0.000615964
0.000614619
0.00061328
0.00061195
0.000610627
0.000609313
0.000608007
0.00060671
0.000605422
0.000604143
0.000602872
0.000601611
0.000600358
0.000599115
0.000597881
0.000596656
0.00059544
0.000594233
0.000593036
0.000591847
0.000590667
0.000589496
0.000588334
0.000587181
0.000586036
0.0005849
0.000583773
0.000582655
0.000581545
0.000580444
0.000579352
0.000578269
0.000577194
0.000576129
0.000575072
0.000574024
0.000572985
0.000571953
0.00057093
0.000569914
0.000568906
0.000567905
0.00056691
0.000565922
0.00056494
0.000563964
0.000562993
0.000562029
0.00056107
0.000560118
0.000559171
0.00055823
0.000557295
0.000556366
0.000555442
0.000554523
0.000553609
0.000552698
0.000551791
0.000550886
0.000549985
0.000549088
0.000548194
0.000547306
0.000546425
0.000545553
0.000544694
0.000543849
0.000543022
0.000542216
0.000541434
0.00054068
0.000539955
0.000539263
0.000538604
0.000537979
0.000537389
0.000536833
0.000536309
0.000535815
0.000535349
0.000534905
0.00053448
0.000534067
0.000533661
0.000533255
0.000532843
0.000532416
0.000531967
0.000531489
0.000530976
0.000530419
0.000529815
0.000529156
0.000528442
0.000527668
0.000526834
0.00052594
0.00052499
0.000523985
0.000522933
0.000521837
0.000520708
0.000519549
0.000518373
0.000517183
0.000515992
0.000514804
0.000513627
0.000512467
0.000511329
0.000510216
0.000509133
0.000508079
0.000507057
0.000506066
0.000505106
0.000504175
0.000503272
0.000502395
0.00050154
0.000500706
0.000499889
0.000499088
0.000498299
0.000497521
0.000496751
0.000495987
0.000495228
0.000494472
0.000493718
0.000492965
0.000492213
0.00049146
0.000490707
0.000489954
0.000489199
0.000488444
0.000487688
0.000486932
0.000486176
0.00048542
0.000484664
0.00048391
0.000483156
0.000482404
0.000481654
0.000480906
0.00048016
0.000479417
0.000478676
0.000477939
0.000477205
0.000476474
0.000475746
0.000475022
0.000474302
0.000473585
0.000472873
0.000472164
0.000471459
0.000470757
0.000470061
0.000469367
0.000468678
0.000467993
0.000467312
0.000466635
0.000465962
0.000465293
0.000464628
0.000463967
0.00046331
0.000462657
0.000462009
0.000461364
0.000460724
0.000460087
0.000459455
0.000458827
0.000458203
0.000457583
0.000456966
0.000456354
0.000455746
0.000455141
0.00045454
0.000453943
0.000453349
0.000452759
0.000452172
0.000451588
0.000451008
0.00045043
0.000449856
0.000449284
0.000448716
0.00044815
0.000447587
0.000447026
0.000446469
0.000445913
0.00044536
0.000444809
0.00044426
0.000443713
0.000443169
0.000442626
0.000442086
0.000441548
0.000441013
0.00044048
0.000439952
0.000439427
0.000438908
0.000438394
0.000437887
0.000437388
0.000436897
0.000436416
0.000435946
0.000435488
0.000435043
0.000434612
0.000434196
0.000433795
0.000433409
0.000433039
0.000432685
0.000432346
0.000432023
0.000431713
0.000431416
0.00043113
0.000430854
0.000430586
0.000430323
0.000430064
0.000429805
0.000429543
0.000429277
0.000429002
0.000428717
0.000428417
0.000428101
0.000427765
0.000427408
0.000427026
0.000426619
0.000426183
0.00042572
0.000425227
0.000424706
0.000424155
0.000423577
0.000422972
0.000422343
0.000421692
0.00042102
0.000420332
0.000419629
0.000418916
0.000418196
0.000417471
0.000416744
0.000416019
0.000415298
0.000414584
0.000413878
0.000413183
0.000412499
0.000411828
0.00041117
0.000410527
0.000409897
0.00040928
0.000408678
0.000408088
0.00040751
0.000406944
0.000406389
0.000405843
0.000405305
0.000404775
0.000404252
0.000403735
0.000403222
0.000402713
0.000402208
0.000401705
0.000401204
0.000400705
0.000400207
0.000399709
0.000399212
0.000398715
0.000398218
0.000397721
0.000397224
0.000396727
0.000396229
0.000395732
0.000395234
0.000394737
0.00039424
0.000393743
0.000393246
0.000392751
0.000392256
0.000391762
0.000391269
0.000390776
0.000390286
0.000389796
0.000389309
0.000388822
0.000388338
0.000387855
0.000387374
0.000386895
0.000386418
0.000385943
0.000385469
0.000384998
0.000384529
0.000384063
0.000383598
0.000383136
0.000382675
0.000382218
0.000381762
0.000381308
0.000380857
0.000380409
0.000379962
0.000379518
0.000379076
0.000378637
0.000378199
0.000377765
0.000377332
0.000376902
0.000376474
0.000376049
0.000375625
0.000375204
0.000374786
0.000374369
0.000373955
0.000373542
0.000373132
0.000372724
0.000372318
0.000371914
0.000371512
0.000371112
0.000370714
0.000370318
0.000369923
0.00036953
0.000369139
0.000368749
0.000368361
0.000367974
0.000367589
0.000367206
0.000366824
0.000366443
0.000366063
0.000365686
0.000365309
0.000364934
0.000364561
0.00036419
0.000363821
0.000363453
0.000363088
0.000362726
0.000362367
0.000362011
0.000361659
0.00036131
0.000360967
0.000360628
0.000360294
0.000359966
0.000359645
0.00035933
0.000359022
0.000358721
0.000358428
0.000358143
0.000357865
0.000357596
0.000357335
0.000357081
0.000356836
0.000356598
0.000356367
0.000356142
0.000355923
0.000355709
0.0003555
0.000355294
0.00035509
0.000354887
0.000354685
0.000354481
0.000354275
0.000354065
0.00035385
0.000353628
0.000353399
0.00035316
0.000352911
0.000352651
0.000352378
0.000352092
0.000351792
0.000351477
0.000351146
0.000350799
0.000350437
0.000350058
0.000349664
0.000349255
0.000348831
0.000348393
0.000347942
0.000347479
0.000347006
0.000346523
0.000346033
0.000345535
0.000345033
0.000344527
0.000344018
0.000343509
0.000343
0.000342493
0.000341988
0.000341486
0.00034099
0.000340498
0.000340012
0.000339532
0.000339059
0.000338593
0.000338133
0.00033768
0.000337234
0.000336795
0.000336362
0.000335934
0.000335513
0.000335097
0.000334685
0.000334279
0.000333876
0.000333477
0.000333081
0.000332688
0.000332298
0.000331909
0.000331523
0.000331138
0.000330754
0.000330371
0.000329989
0.000329608
0.000329226
0.000328846
0.000328465
0.000328085
0.000327704
0.000327324
0.000326944
0.000326563
0.000326183
0.000325803
0.000325423
0.000325043
0.000324663
0.000324284
0.000323904
0.000323525
0.000323147
0.000322769
0.000322391
0.000322015
0.000321638
0.000321263
0.000320888
0.000320514
0.000320141
0.000319769
0.000319398
0.000319027
0.000318658
0.00031829
0.000317923
0.000317556
0.000317191
0.000316827
0.000316465
0.000316103
0.000315743
0.000315383
0.000315025
0.000314668
0.000314312
0.000313958
0.000313604
0.000313252
0.000312901
0.000312551
0.000312203
0.000311855
0.000311509
0.000311164
0.00031082
0.000310477
0.000310135
0.000309795
0.000309455
0.000309117
0.000308779
0.000308443
0.000308108
0.000307774
0.000307441
0.000307109
0.000306778
0.000306448
0.000306119
0.000305791
0.000305464
0.000305138
0.000304813
0.000304489
0.000304166
0.000303844
0.000303523
0.000303204
0.000302885
0.000302568
0.000302252
0.000301937
0.000301625
0.000301314
0.000301005
0.000300698
0.000300394
0.000300092
0.000299794
0.000299499
0.000299208
0.000298922
0.00029864
0.000298364
0.000298094
0.000297832
0.000297576
0.00029733
0.000297092
0.000296865
0.000296647
0.000296446
0.00029625
0.000296076
0.000295909
0.000295762
0.000295631
0.00029551
0.000295416
0.000295329
0.000295263
0.000295219
0.00029518
0.000295168
0.00029517
0.000295181
0.000295208
0.000295249
0.000295301
0.000295364
0.000295437
0.000295515
0.000295603
0.000295697
0.000295786
0.00029589
0.00029599
0.000296075
0.000296186
0.000296266
0.000296337
0.000296418
0.000296425
0.000296408
0.000296328
0.00029609
0.000295606
0.000294708
0.00029311
0.000290409
0.000286111
0.000279882
0.00027202
0.000263808
0.000256991
0.000252492
0.000250014
0.000248777
0.000248167
0.000247849
0.000247665
0.000247543
0.000247449
0.000247368
0.000247291
0.000247215
0.000247139
0.000247061
0.000246982
0.000246902
0.000246822
0.000246742
0.000246661
0.000246581
0.000246502
0.000246424
0.000246348
0.000246274
0.000246201
0.000246131
0.000246064
0.000245999
0.000245936
0.000245877
0.00024582
0.000245765
0.000245714
0.000245665
0.000245618
0.000245575
0.000245533
0.000245494
0.000245457
0.000245421
0.000245388
0.000245356
0.000245326
0.000245297
0.00024527
0.000245244
0.000245218
0.000245194
0.00024517
0.000245147
0.000245125
0.000245102
0.000245081
0.000245059
0.000245038
0.000245017
0.000244996
0.000244975
0.000244954
0.000244933
0.000244912
0.000244891
0.00024487
0.000244849
0.000244828
0.000244807
0.000244786
0.000244765
0.000244744
0.000244723
0.000244702
0.000244681
0.00024466
0.00024464
0.000244619
0.000244599
0.000244579
0.000244559
0.000244539
0.00024452
0.000244501
0.000244482
0.000244464
0.000244446
0.000244428
0.000244411
0.000244394
0.000244378
0.000244362
0.000244347
0.000244332
0.000244318
0.000244304
0.00024429
0.000244278
0.000244265
0.000244254
0.000244243
0.000244232
0.000244222
0.000244213
0.000244204
0.000244196
0.000244189
0.000244182
0.000244176
0.00024417
0.000244165
0.00024416
0.000244157
0.000244153
0.000244151
0.000244149
0.000244148
0.000244147
0.000244147
0.000244147
0.000244147
0.000244148
0.00024415
0.000244152
0.000244156
0.000244159
0.000244164
0.000244169
0.000244174
0.00024418
0.000244185
0.000244195
0.000244199
0.000244211
0.000244215
0.000244229
0.000244233
0.000244249
0.000244254
0.000244272
0.000244277
0.000244297
0.000244303
0.000244325
0.000244331
0.000244357
0.000244364
0.000244392
0.000244399
0.000244431
0.000244439
0.000244475
0.000244484
0.000244524
0.000244535
0.00024458
0.000244592
0.000244642
0.000244656
0.000244712
0.000244727
0.00024479
0.000244807
0.000244877
0.000244896
0.000244973
0.000244994
0.000245079
0.000245102
0.000245195
0.00024522
0.000245352
)
;

boundaryField
{
    inlet
    {
        type            calculated;
        value           uniform 0.000236304;
    }
    outlet
    {
        type            calculated;
        value           uniform 0.000245334;
    }
    emptyWalls
    {
        type            empty;
    }
}


// ************************************************************************* //
