/*--------------------------------*- C++ -*----------------------------------*\
  =========                 |
  \\      /  F ield         | OpenFOAM: The Open Source CFD Toolbox
   \\    /   O peration     | Website:  https://openfoam.org
    \\  /    A nd           | Version:  9
     \\/     M anipulation  |
\*---------------------------------------------------------------------------*/
FoamFile
{
    format      ascii;
    class       volScalarField;
    location    "20650";
    object      Sb;
}
// * * * * * * * * * * * * * * * * * * * * * * * * * * * * * * * * * * * * * //

dimensions      [0 0 0 0 0 0 0];

internalField   nonuniform List<scalar> 
1000
(
0.350297
0.35074
0.351516
0.352159
0.352901
0.35359
0.35431
0.355036
0.355768
0.356507
0.357259
0.358002
0.358752
0.359493
0.360216
0.36094
0.361596
0.362285
0.362826
0.36345
0.363865
0.364378
0.364707
0.36509
0.365394
0.365859
0.367007
0.371166
0.391014
0.518802
0.636245
0.658546
0.66571
0.669311
0.671613
0.673303
0.674639
0.675749
0.676693
0.677512
0.678224
0.67885
0.679398
0.679885
0.680319
0.680707
0.681052
0.681355
0.681615
0.681831
0.682006
0.682146
0.682254
0.682341
0.682411
0.682471
0.682522
0.682564
0.682593
0.682605
0.682601
0.682589
0.682577
0.682552
0.682512
0.682453
0.682373
0.68227
0.682142
0.681987
0.681805
0.681593
0.681349
0.681069
0.680748
0.680376
0.679942
0.67943
0.678822
0.678105
0.677275
0.676345
0.675345
0.674303
0.673233
0.672145
0.671046
0.669942
0.668834
0.667727
0.666622
0.66552
0.664422
0.663329
0.662242
0.66116
0.660085
0.659015
0.657953
0.656897
0.655848
0.654805
0.653769
0.65274
0.651718
0.650703
0.649694
0.648692
0.647697
0.646708
0.645726
0.64475
0.643781
0.642817
0.641861
0.64091
0.639965
0.639026
0.638094
0.637167
0.636246
0.635331
0.634421
0.633517
0.632619
0.631726
0.630838
0.629956
0.629079
0.628207
0.62734
0.626479
0.625622
0.624771
0.623924
0.623083
0.622246
0.621414
0.620587
0.619764
0.618947
0.618133
0.617324
0.61652
0.61572
0.614924
0.614132
0.613345
0.612562
0.611783
0.611009
0.610238
0.609472
0.60871
0.607952
0.607197
0.606446
0.605697
0.604952
0.604209
0.603468
0.60273
0.601995
0.601261
0.600531
0.599803
0.599078
0.598356
0.597637
0.596921
0.59621
0.595502
0.594798
0.594099
0.593405
0.592716
0.592032
0.591354
0.59068
0.590012
0.58935
0.588692
0.588038
0.587389
0.586744
0.586102
0.585463
0.584826
0.584192
0.58356
0.58293
0.582301
0.581674
0.581048
0.580424
0.579802
0.579181
0.578562
0.577944
0.577329
0.576715
0.576104
0.575495
0.574889
0.574284
0.573682
0.573083
0.572486
0.571891
0.571299
0.570709
0.570122
0.569537
0.568954
0.568374
0.567796
0.56722
0.566646
0.566075
0.565505
0.564938
0.564373
0.56381
0.563249
0.562689
0.562132
0.561577
0.561023
0.560472
0.559922
0.559375
0.558829
0.558285
0.557743
0.557202
0.556664
0.556127
0.555591
0.555058
0.554526
0.553996
0.553468
0.552941
0.552417
0.551893
0.551372
0.550852
0.550333
0.549816
0.549301
0.548787
0.548275
0.547764
0.547255
0.546748
0.546242
0.545737
0.545234
0.544732
0.544232
0.543734
0.543236
0.54274
0.542246
0.541753
0.541262
0.540771
0.540283
0.539795
0.539309
0.538825
0.538342
0.53786
0.537379
0.5369
0.536422
0.535945
0.53547
0.534996
0.534524
0.534052
0.533582
0.533113
0.532646
0.53218
0.531715
0.531251
0.530788
0.530326
0.529865
0.529406
0.528947
0.528488
0.528031
0.527575
0.527119
0.526663
0.526209
0.525755
0.525302
0.524849
0.524397
0.523946
0.523496
0.523047
0.522599
0.522152
0.521706
0.521262
0.520819
0.520377
0.519937
0.519499
0.519063
0.518629
0.518196
0.517766
0.517337
0.516911
0.516486
0.516064
0.515643
0.515224
0.514806
0.51439
0.513975
0.513561
0.513148
0.512736
0.512325
0.511915
0.511505
0.511096
0.510687
0.510279
0.509871
0.509464
0.509057
0.508651
0.508245
0.507839
0.507434
0.50703
0.506626
0.506223
0.50582
0.505418
0.505017
0.504617
0.504217
0.503818
0.503421
0.503023
0.502627
0.502231
0.501837
0.501443
0.50105
0.500657
0.500266
0.499875
0.499485
0.499096
0.498708
0.49832
0.497934
0.497547
0.497162
0.496777
0.496393
0.49601
0.495627
0.495246
0.494864
0.494484
0.494104
0.493725
0.493346
0.492968
0.492591
0.492214
0.491838
0.491462
0.491088
0.490713
0.49034
0.489967
0.489594
0.489222
0.488851
0.48848
0.48811
0.487741
0.487372
0.487004
0.486636
0.486268
0.485902
0.485536
0.48517
0.484805
0.48444
0.484076
0.483713
0.48335
0.482988
0.482626
0.482264
0.481903
0.481543
0.481183
0.480824
0.480465
0.480107
0.479749
0.479392
0.479035
0.478679
0.478323
0.477968
0.477613
0.477259
0.476905
0.476551
0.476198
0.475846
0.475494
0.475143
0.474792
0.474441
0.474091
0.473742
0.473392
0.473044
0.472695
0.472348
0.472
0.471653
0.471306
0.47096
0.470613
0.470267
0.469922
0.469577
0.469231
0.468886
0.468542
0.468197
0.467853
0.467509
0.467165
0.466821
0.466477
0.466134
0.465791
0.465448
0.465106
0.464763
0.464422
0.46408
0.463739
0.463399
0.463059
0.462719
0.46238
0.462042
0.461705
0.461368
0.461032
0.460697
0.460363
0.460029
0.459696
0.459364
0.459033
0.458703
0.458374
0.458045
0.457717
0.457389
0.457063
0.456736
0.456411
0.456085
0.45576
0.455436
0.455112
0.454788
0.454464
0.45414
0.453817
0.453494
0.453171
0.452847
0.452524
0.452201
0.451879
0.451556
0.451233
0.450911
0.450588
0.450266
0.449943
0.449621
0.449299
0.448978
0.448656
0.448335
0.448013
0.447692
0.447372
0.447051
0.446731
0.446411
0.446091
0.445771
0.445452
0.445133
0.444814
0.444495
0.444177
0.443859
0.443541
0.443223
0.442906
0.442588
0.442271
0.441955
0.441638
0.441321
0.441005
0.440689
0.440373
0.440058
0.439742
0.439427
0.439112
0.438797
0.438482
0.438167
0.437852
0.437538
0.437224
0.43691
0.436596
0.436282
0.435968
0.435654
0.435341
0.435028
0.434714
0.434401
0.434088
0.433775
0.433463
0.43315
0.432837
0.432525
0.432213
0.4319
0.431588
0.431276
0.430964
0.430652
0.43034
0.430028
0.429717
0.429405
0.429094
0.428782
0.428471
0.428159
0.427848
0.427537
0.427226
0.426915
0.426604
0.426293
0.425982
0.425671
0.42536
0.425049
0.424738
0.424428
0.424117
0.423806
0.423496
0.423185
0.422875
0.422564
0.422254
0.421943
0.421633
0.421322
0.421012
0.420702
0.420391
0.420081
0.41977
0.41946
0.419149
0.418839
0.418528
0.418217
0.417907
0.417596
0.417285
0.416974
0.416663
0.416351
0.41604
0.415728
0.415417
0.415105
0.414793
0.414481
0.414169
0.413856
0.413544
0.413231
0.412918
0.412605
0.412292
0.411979
0.411666
0.411352
0.411039
0.410725
0.410411
0.410098
0.409784
0.40947
0.409157
0.408843
0.408529
0.408216
0.407902
0.407589
0.407276
0.406962
0.406649
0.406336
0.406024
0.405711
0.405398
0.405086
0.404773
0.404461
0.404149
0.403836
0.403524
0.403212
0.402899
0.402587
0.402275
0.401962
0.40165
0.401337
0.401024
0.40071
0.400397
0.400083
0.399769
0.399455
0.399141
0.398826
0.39851
0.398195
0.397879
0.397563
0.397246
0.396929
0.396612
0.396294
0.395976
0.395658
0.395339
0.39502
0.3947
0.394381
0.39406
0.39374
0.393419
0.393098
0.392776
0.392454
0.392132
0.391809
0.391486
0.391162
0.390838
0.390514
0.39019
0.389865
0.389539
0.389214
0.388887
0.388561
0.388234
0.387907
0.387579
0.387251
0.386922
0.386593
0.386263
0.385933
0.385602
0.385271
0.38494
0.384608
0.384275
0.383942
0.383609
0.383275
0.38294
0.382605
0.382269
0.381933
0.381596
0.381259
0.380921
0.380582
0.380243
0.379903
0.379562
0.379221
0.378879
0.378537
0.378194
0.37785
0.377506
0.377161
0.376815
0.376468
0.376121
0.375773
0.375425
0.375075
0.374725
0.374374
0.374022
0.37367
0.373317
0.372963
0.372608
0.372253
0.371896
0.371539
0.371182
0.370823
0.370464
0.370103
0.369742
0.369381
0.369018
0.368655
0.368291
0.367926
0.36756
0.367194
0.366827
0.36646
0.366092
0.365723
0.365354
0.364984
0.364614
0.364244
0.363874
0.363504
0.363133
0.362763
0.362394
0.362025
0.361656
0.361289
0.360924
0.36056
0.360199
0.35984
0.359485
0.359133
0.358786
0.358444
0.358108
0.357778
0.357455
0.357142
0.356837
0.356543
0.356259
0.355988
0.355729
0.355483
0.355252
0.355035
0.354833
0.354646
0.354474
0.354317
0.354175
0.354047
0.353933
0.353832
0.353744
0.353666
0.353598
0.35354
0.353491
0.353449
0.353414
0.353384
0.353358
0.353336
0.353316
0.353297
0.353275
0.353247
0.353204
0.353135
0.353016
0.352808
0.352438
0.351781
0.35062
0.34859
0.34512
0.33941
0.330577
0.318145
0.302814
0.286784
0.272777
0.262434
0.255764
0.251851
0.249689
0.248533
0.247927
0.247613
0.247451
0.247368
0.247325
0.247303
0.247292
0.247287
0.247284
0.247283
0.247283
0.247283
0.247283
0.247283
0.247283
0.247284
0.247284
0.247284
0.247285
0.247285
0.247285
0.247285
0.247285
0.247286
0.247286
0.247286
0.247286
0.247286
0.247286
0.247286
0.247286
0.247286
0.247286
0.247286
0.247286
0.247286
0.247286
0.247286
0.247285
0.247285
0.247285
0.247285
0.247285
0.247285
0.247285
0.247285
0.247284
0.247284
0.247284
0.247284
0.247284
0.247284
0.247284
0.247284
0.247283
0.247283
0.247283
0.247283
0.247283
0.247283
0.247283
0.247283
0.247283
0.247283
0.247283
0.247283
0.247283
0.247283
0.247283
0.247283
0.247283
0.247283
0.247283
0.247283
0.247283
0.247283
0.247283
0.247283
0.247283
0.247283
0.247283
0.247283
0.247283
0.247283
0.247283
0.247283
0.247283
0.247284
0.247284
0.247284
0.247284
0.247284
0.247284
0.247284
0.247284
0.247284
0.247284
0.247284
0.247284
0.247284
0.247285
0.247285
0.247285
0.247285
0.247285
0.247285
0.247285
0.247285
0.247285
0.247285
0.247285
0.247285
0.247285
0.247285
0.247285
0.247285
0.247286
0.247286
0.247286
0.247286
0.247286
0.247286
0.247286
0.247286
0.247286
0.247286
0.247286
0.247286
0.247286
0.247286
0.247286
0.247286
0.247286
0.247285
0.247285
0.247285
0.247285
0.247285
0.247285
0.247285
0.247285
0.247285
0.247285
0.247285
0.247284
0.247284
0.247284
0.247284
0.247284
0.247283
0.247283
0.247283
0.247283
0.247283
0.247282
0.247282
0.247282
0.247281
0.247281
0.247281
0.247281
0.24728
)
;

boundaryField
{
    inlet
    {
        type            fixedValue;
        value           uniform 0.35;
    }
    outlet
    {
        type            zeroGradient;
    }
    emptyWalls
    {
        type            empty;
    }
}


// ************************************************************************* //
