/*--------------------------------*- C++ -*----------------------------------*\
  =========                 |
  \\      /  F ield         | OpenFOAM: The Open Source CFD Toolbox
   \\    /   O peration     | Website:  https://openfoam.org
    \\  /    A nd           | Version:  9
     \\/     M anipulation  |
\*---------------------------------------------------------------------------*/
FoamFile
{
    format      ascii;
    class       volVectorField;
    location    "1850";
    object      Ub;
}
// * * * * * * * * * * * * * * * * * * * * * * * * * * * * * * * * * * * * * //

dimensions      [0 0 0 0 0 0 0];

internalField   nonuniform List<vector> 
1000
(
(1.1363e-05 0 0)
(1.13981e-05 0 0)
(1.15883e-05 0 0)
(1.17686e-05 0 0)
(1.17976e-05 0 0)
(1.18014e-05 0 0)
(1.17846e-05 0 0)
(1.17473e-05 0 0)
(1.17011e-05 0 0)
(1.16512e-05 0 0)
(1.15989e-05 0 0)
(1.15449e-05 0 0)
(1.14895e-05 0 0)
(1.14331e-05 0 0)
(1.13757e-05 0 0)
(1.13174e-05 0 0)
(1.12583e-05 0 0)
(1.11985e-05 0 0)
(1.11378e-05 0 0)
(1.10764e-05 0 0)
(1.10143e-05 0 0)
(1.09515e-05 0 0)
(1.08879e-05 0 0)
(1.08236e-05 0 0)
(1.07586e-05 0 0)
(1.0693e-05 0 0)
(1.06266e-05 0 0)
(1.05595e-05 0 0)
(1.04918e-05 0 0)
(1.04234e-05 0 0)
(1.03543e-05 0 0)
(1.02845e-05 0 0)
(1.02141e-05 0 0)
(1.01429e-05 0 0)
(1.00711e-05 0 0)
(9.99847e-06 0 0)
(9.92509e-06 0 0)
(9.85089e-06 0 0)
(9.77585e-06 0 0)
(9.69994e-06 0 0)
(9.62311e-06 0 0)
(9.54532e-06 0 0)
(9.4665e-06 0 0)
(9.38659e-06 0 0)
(9.30551e-06 0 0)
(9.2232e-06 0 0)
(9.13956e-06 0 0)
(9.05454e-06 0 0)
(8.96808e-06 0 0)
(8.88012e-06 0 0)
(8.79062e-06 0 0)
(8.69952e-06 0 0)
(8.60678e-06 0 0)
(8.51233e-06 0 0)
(8.41614e-06 0 0)
(8.31811e-06 0 0)
(8.21821e-06 0 0)
(8.11634e-06 0 0)
(8.01246e-06 0 0)
(7.9065e-06 0 0)
(7.79839e-06 0 0)
(7.68817e-06 0 0)
(7.57582e-06 0 0)
(7.46147e-06 0 0)
(7.34514e-06 0 0)
(7.22653e-06 0 0)
(7.10473e-06 0 0)
(6.97686e-06 0 0)
(6.83655e-06 0 0)
(6.67103e-06 0 0)
(6.45778e-06 0 0)
(6.16379e-06 0 0)
(5.75334e-06 0 0)
(5.21178e-06 0 0)
(4.57778e-06 0 0)
(3.94717e-06 0 0)
(3.42292e-06 0 0)
(3.05457e-06 0 0)
(2.82871e-06 0 0)
(2.70307e-06 0 0)
(2.63756e-06 0 0)
(2.6049e-06 0 0)
(2.58923e-06 0 0)
(2.58202e-06 0 0)
(2.57888e-06 0 0)
(2.57757e-06 0 0)
(2.57702e-06 0 0)
(2.57675e-06 0 0)
(2.57659e-06 0 0)
(2.57648e-06 0 0)
(2.57624e-06 0 0)
(2.57581e-06 0 0)
(2.57531e-06 0 0)
(2.57476e-06 0 0)
(2.57417e-06 0 0)
(2.57356e-06 0 0)
(2.57295e-06 0 0)
(2.57234e-06 0 0)
(2.57175e-06 0 0)
(2.57119e-06 0 0)
(2.57067e-06 0 0)
(2.57019e-06 0 0)
(2.56977e-06 0 0)
(2.56939e-06 0 0)
(2.56907e-06 0 0)
(2.5688e-06 0 0)
(2.56857e-06 0 0)
(2.56839e-06 0 0)
(2.56825e-06 0 0)
(2.56815e-06 0 0)
(2.56808e-06 0 0)
(2.56804e-06 0 0)
(2.56802e-06 0 0)
(2.56801e-06 0 0)
(2.56801e-06 0 0)
(2.56802e-06 0 0)
(2.56805e-06 0 0)
(2.56809e-06 0 0)
(2.56813e-06 0 0)
(2.56818e-06 0 0)
(2.56822e-06 0 0)
(2.56826e-06 0 0)
(2.5683e-06 0 0)
(2.56833e-06 0 0)
(2.56836e-06 0 0)
(2.56839e-06 0 0)
(2.56842e-06 0 0)
(2.56844e-06 0 0)
(2.56846e-06 0 0)
(2.56846e-06 0 0)
(2.56847e-06 0 0)
(2.56847e-06 0 0)
(2.56847e-06 0 0)
(2.56847e-06 0 0)
(2.56847e-06 0 0)
(2.56846e-06 0 0)
(2.56846e-06 0 0)
(2.56845e-06 0 0)
(2.56845e-06 0 0)
(2.56845e-06 0 0)
(2.56845e-06 0 0)
(2.56846e-06 0 0)
(2.56847e-06 0 0)
(2.56848e-06 0 0)
(2.5685e-06 0 0)
(2.56852e-06 0 0)
(2.56855e-06 0 0)
(2.56858e-06 0 0)
(2.56862e-06 0 0)
(2.56866e-06 0 0)
(2.56871e-06 0 0)
(2.56876e-06 0 0)
(2.56881e-06 0 0)
(2.56886e-06 0 0)
(2.56892e-06 0 0)
(2.56898e-06 0 0)
(2.56904e-06 0 0)
(2.56911e-06 0 0)
(2.56918e-06 0 0)
(2.56926e-06 0 0)
(2.56933e-06 0 0)
(2.56941e-06 0 0)
(2.56949e-06 0 0)
(2.56957e-06 0 0)
(2.56965e-06 0 0)
(2.56973e-06 0 0)
(2.56982e-06 0 0)
(2.56991e-06 0 0)
(2.57e-06 0 0)
(2.57009e-06 0 0)
(2.57018e-06 0 0)
(2.57026e-06 0 0)
(2.57035e-06 0 0)
(2.57044e-06 0 0)
(2.57052e-06 0 0)
(2.5706e-06 0 0)
(2.57068e-06 0 0)
(2.57075e-06 0 0)
(2.57082e-06 0 0)
(2.57088e-06 0 0)
(2.57094e-06 0 0)
(2.57099e-06 0 0)
(2.57103e-06 0 0)
(2.57106e-06 0 0)
(2.57108e-06 0 0)
(2.57109e-06 0 0)
(2.57109e-06 0 0)
(2.57108e-06 0 0)
(2.57107e-06 0 0)
(2.57104e-06 0 0)
(2.57098e-06 0 0)
(2.57091e-06 0 0)
(2.57082e-06 0 0)
(2.57072e-06 0 0)
(2.57061e-06 0 0)
(2.57047e-06 0 0)
(2.57033e-06 0 0)
(2.57016e-06 0 0)
(2.56999e-06 0 0)
(2.56979e-06 0 0)
(2.56959e-06 0 0)
(2.56937e-06 0 0)
(2.56913e-06 0 0)
(2.56888e-06 0 0)
(2.56861e-06 0 0)
(2.56834e-06 0 0)
(2.56805e-06 0 0)
(2.56776e-06 0 0)
(2.56745e-06 0 0)
(2.56713e-06 0 0)
(2.5668e-06 0 0)
(2.56647e-06 0 0)
(2.56613e-06 0 0)
(2.56579e-06 0 0)
(2.56544e-06 0 0)
(2.56509e-06 0 0)
(2.56473e-06 0 0)
(2.56438e-06 0 0)
(2.56403e-06 0 0)
(2.56368e-06 0 0)
(2.56333e-06 0 0)
(2.56298e-06 0 0)
(2.56264e-06 0 0)
(2.5623e-06 0 0)
(2.56197e-06 0 0)
(2.56163e-06 0 0)
(2.56131e-06 0 0)
(2.56099e-06 0 0)
(2.56067e-06 0 0)
(2.56035e-06 0 0)
(2.56003e-06 0 0)
(2.55971e-06 0 0)
(2.55939e-06 0 0)
(2.55906e-06 0 0)
(2.55873e-06 0 0)
(2.55839e-06 0 0)
(2.55803e-06 0 0)
(2.55767e-06 0 0)
(2.55729e-06 0 0)
(2.55688e-06 0 0)
(2.55645e-06 0 0)
(2.556e-06 0 0)
(2.55552e-06 0 0)
(2.55501e-06 0 0)
(2.55447e-06 0 0)
(2.55389e-06 0 0)
(2.55328e-06 0 0)
(2.55263e-06 0 0)
(2.55194e-06 0 0)
(2.55123e-06 0 0)
(2.55048e-06 0 0)
(2.54969e-06 0 0)
(2.54889e-06 0 0)
(2.54806e-06 0 0)
(2.54721e-06 0 0)
(2.54636e-06 0 0)
(2.54552e-06 0 0)
(2.54468e-06 0 0)
(2.54389e-06 0 0)
(2.54314e-06 0 0)
(2.54246e-06 0 0)
(2.54188e-06 0 0)
(2.54144e-06 0 0)
(2.54117e-06 0 0)
(2.54105e-06 0 0)
(2.54102e-06 0 0)
(2.54106e-06 0 0)
(2.54129e-06 0 0)
(2.54204e-06 0 0)
(2.54333e-06 0 0)
(2.54495e-06 0 0)
(2.54696e-06 0 0)
(2.54931e-06 0 0)
(2.55196e-06 0 0)
(2.55483e-06 0 0)
(2.55785e-06 0 0)
(2.56091e-06 0 0)
(2.56392e-06 0 0)
(2.5668e-06 0 0)
(2.56946e-06 0 0)
(2.57186e-06 0 0)
(2.57395e-06 0 0)
(2.57571e-06 0 0)
(2.57716e-06 0 0)
(2.57828e-06 0 0)
(2.57912e-06 0 0)
(2.57968e-06 0 0)
(2.58e-06 0 0)
(2.58014e-06 0 0)
(2.58018e-06 0 0)
(2.58015e-06 0 0)
(2.57993e-06 0 0)
(2.57948e-06 0 0)
(2.57892e-06 0 0)
(2.57831e-06 0 0)
(2.57767e-06 0 0)
(2.57701e-06 0 0)
(2.57634e-06 0 0)
(2.57569e-06 0 0)
(2.57505e-06 0 0)
(2.57441e-06 0 0)
(2.57381e-06 0 0)
(2.57326e-06 0 0)
(2.57273e-06 0 0)
(2.57219e-06 0 0)
(2.57175e-06 0 0)
(2.57136e-06 0 0)
(2.57092e-06 0 0)
(2.57053e-06 0 0)
(2.57035e-06 0 0)
(2.57085e-06 0 0)
(2.57346e-06 0 0)
(2.58917e-06 0 0)
(2.73936e-06 0 0)
(2.92054e-06 0 0)
(2.96618e-06 0 0)
(2.96724e-06 0 0)
(2.96726e-06 0 0)
(2.96727e-06 0 0)
(2.96727e-06 0 0)
(2.96727e-06 0 0)
(2.96727e-06 0 0)
(2.96727e-06 0 0)
(2.96727e-06 0 0)
(2.96727e-06 0 0)
(2.96727e-06 0 0)
(2.96727e-06 0 0)
(2.96727e-06 0 0)
(2.96727e-06 0 0)
(2.96727e-06 0 0)
(2.96727e-06 0 0)
(2.96727e-06 0 0)
(2.96727e-06 0 0)
(2.96727e-06 0 0)
(2.96727e-06 0 0)
(2.96727e-06 0 0)
(2.96727e-06 0 0)
(2.96727e-06 0 0)
(2.96727e-06 0 0)
(2.96727e-06 0 0)
(2.96727e-06 0 0)
(2.96727e-06 0 0)
(2.96727e-06 0 0)
(2.96727e-06 0 0)
(2.96727e-06 0 0)
(2.96727e-06 0 0)
(2.96727e-06 0 0)
(2.96727e-06 0 0)
(2.96727e-06 0 0)
(2.96727e-06 0 0)
(2.96727e-06 0 0)
(2.96727e-06 0 0)
(2.96727e-06 0 0)
(2.96727e-06 0 0)
(2.96727e-06 0 0)
(2.96727e-06 0 0)
(2.96727e-06 0 0)
(2.96727e-06 0 0)
(2.96727e-06 0 0)
(2.96727e-06 0 0)
(2.96727e-06 0 0)
(2.96727e-06 0 0)
(2.96727e-06 0 0)
(2.96727e-06 0 0)
(2.96727e-06 0 0)
(2.96727e-06 0 0)
(2.96727e-06 0 0)
(2.96727e-06 0 0)
(2.96727e-06 0 0)
(2.96727e-06 0 0)
(2.96727e-06 0 0)
(2.96727e-06 0 0)
(2.96727e-06 0 0)
(2.96727e-06 0 0)
(2.96727e-06 0 0)
(2.96727e-06 0 0)
(2.96727e-06 0 0)
(2.96727e-06 0 0)
(2.96727e-06 0 0)
(2.96727e-06 0 0)
(2.96727e-06 0 0)
(2.96727e-06 0 0)
(2.96727e-06 0 0)
(2.96727e-06 0 0)
(2.96727e-06 0 0)
(2.96727e-06 0 0)
(2.96727e-06 0 0)
(2.96727e-06 0 0)
(2.96727e-06 0 0)
(2.96727e-06 0 0)
(2.96727e-06 0 0)
(2.96727e-06 0 0)
(2.96727e-06 0 0)
(2.96727e-06 0 0)
(2.96727e-06 0 0)
(2.96727e-06 0 0)
(2.96727e-06 0 0)
(2.96727e-06 0 0)
(2.96727e-06 0 0)
(2.96727e-06 0 0)
(2.96727e-06 0 0)
(2.96727e-06 0 0)
(2.96727e-06 0 0)
(2.96727e-06 0 0)
(2.96727e-06 0 0)
(2.96727e-06 0 0)
(2.96727e-06 0 0)
(2.96727e-06 0 0)
(2.96727e-06 0 0)
(2.96727e-06 0 0)
(2.96727e-06 0 0)
(2.96727e-06 0 0)
(2.96727e-06 0 0)
(2.96727e-06 0 0)
(2.96727e-06 0 0)
(2.96727e-06 0 0)
(2.96727e-06 0 0)
(2.96727e-06 0 0)
(2.96727e-06 0 0)
(2.96727e-06 0 0)
(2.96727e-06 0 0)
(2.96727e-06 0 0)
(2.96727e-06 0 0)
(2.96727e-06 0 0)
(2.96727e-06 0 0)
(2.96727e-06 0 0)
(2.96727e-06 0 0)
(2.96727e-06 0 0)
(2.96727e-06 0 0)
(2.96727e-06 0 0)
(2.96727e-06 0 0)
(2.96727e-06 0 0)
(2.96727e-06 0 0)
(2.96727e-06 0 0)
(2.96727e-06 0 0)
(2.96727e-06 0 0)
(2.96727e-06 0 0)
(2.96727e-06 0 0)
(2.96727e-06 0 0)
(2.96727e-06 0 0)
(2.96727e-06 0 0)
(2.96727e-06 0 0)
(2.96727e-06 0 0)
(2.96727e-06 0 0)
(2.96727e-06 0 0)
(2.96727e-06 0 0)
(2.96727e-06 0 0)
(2.96727e-06 0 0)
(2.96727e-06 0 0)
(2.96727e-06 0 0)
(2.96727e-06 0 0)
(2.96727e-06 0 0)
(2.96727e-06 0 0)
(2.96727e-06 0 0)
(2.96727e-06 0 0)
(2.96727e-06 0 0)
(2.96727e-06 0 0)
(2.96727e-06 0 0)
(2.96727e-06 0 0)
(2.96727e-06 0 0)
(2.96727e-06 0 0)
(2.96727e-06 0 0)
(2.96727e-06 0 0)
(2.96727e-06 0 0)
(2.96727e-06 0 0)
(2.96727e-06 0 0)
(2.96727e-06 0 0)
(2.96727e-06 0 0)
(2.96727e-06 0 0)
(2.96727e-06 0 0)
(2.96727e-06 0 0)
(2.96727e-06 0 0)
(2.96727e-06 0 0)
(2.96727e-06 0 0)
(2.96727e-06 0 0)
(2.96727e-06 0 0)
(2.96727e-06 0 0)
(2.96727e-06 0 0)
(2.96727e-06 0 0)
(2.96727e-06 0 0)
(2.96727e-06 0 0)
(2.96727e-06 0 0)
(2.96727e-06 0 0)
(2.96727e-06 0 0)
(2.96727e-06 0 0)
(2.96727e-06 0 0)
(2.96727e-06 0 0)
(2.96727e-06 0 0)
(2.96727e-06 0 0)
(2.96727e-06 0 0)
(2.96727e-06 0 0)
(2.96727e-06 0 0)
(2.96727e-06 0 0)
(2.96727e-06 0 0)
(2.96727e-06 0 0)
(2.96727e-06 0 0)
(2.96727e-06 0 0)
(2.96727e-06 0 0)
(2.96727e-06 0 0)
(2.96727e-06 0 0)
(2.96727e-06 0 0)
(2.96727e-06 0 0)
(2.96727e-06 0 0)
(2.96727e-06 0 0)
(2.96727e-06 0 0)
(2.96727e-06 0 0)
(2.96727e-06 0 0)
(2.96727e-06 0 0)
(2.96727e-06 0 0)
(2.96727e-06 0 0)
(2.96727e-06 0 0)
(2.96727e-06 0 0)
(2.96727e-06 0 0)
(2.96727e-06 0 0)
(2.96727e-06 0 0)
(2.96727e-06 0 0)
(2.96727e-06 0 0)
(2.96727e-06 0 0)
(2.96727e-06 0 0)
(2.96727e-06 0 0)
(2.96727e-06 0 0)
(2.96727e-06 0 0)
(2.96727e-06 0 0)
(2.96727e-06 0 0)
(2.96727e-06 0 0)
(2.96727e-06 0 0)
(2.96727e-06 0 0)
(2.96727e-06 0 0)
(2.96727e-06 0 0)
(2.96727e-06 0 0)
(2.96727e-06 0 0)
(2.96727e-06 0 0)
(2.96727e-06 0 0)
(2.96727e-06 0 0)
(2.96727e-06 0 0)
(2.96727e-06 0 0)
(2.96727e-06 0 0)
(2.96727e-06 0 0)
(2.96727e-06 0 0)
(2.96727e-06 0 0)
(2.96727e-06 0 0)
(2.96727e-06 0 0)
(2.96727e-06 0 0)
(2.96727e-06 0 0)
(2.96727e-06 0 0)
(2.96727e-06 0 0)
(2.96727e-06 0 0)
(2.96727e-06 0 0)
(2.96727e-06 0 0)
(2.96727e-06 0 0)
(2.96727e-06 0 0)
(2.96727e-06 0 0)
(2.96727e-06 0 0)
(2.96727e-06 0 0)
(2.96727e-06 0 0)
(2.96727e-06 0 0)
(2.96727e-06 0 0)
(2.96727e-06 0 0)
(2.96727e-06 0 0)
(2.96727e-06 0 0)
(2.96727e-06 0 0)
(2.96727e-06 0 0)
(2.96727e-06 0 0)
(2.96727e-06 0 0)
(2.96727e-06 0 0)
(2.96727e-06 0 0)
(2.96727e-06 0 0)
(2.96727e-06 0 0)
(2.96727e-06 0 0)
(2.96727e-06 0 0)
(2.96727e-06 0 0)
(2.96727e-06 0 0)
(2.96727e-06 0 0)
(2.96727e-06 0 0)
(2.96727e-06 0 0)
(2.96727e-06 0 0)
(2.96727e-06 0 0)
(2.96727e-06 0 0)
(2.96727e-06 0 0)
(2.96727e-06 0 0)
(2.96727e-06 0 0)
(2.96727e-06 0 0)
(2.96727e-06 0 0)
(2.96727e-06 0 0)
(2.96727e-06 0 0)
(2.96727e-06 0 0)
(2.96727e-06 0 0)
(2.96727e-06 0 0)
(2.96727e-06 0 0)
(2.96727e-06 0 0)
(2.96727e-06 0 0)
(2.96727e-06 0 0)
(2.96727e-06 0 0)
(2.96727e-06 0 0)
(2.96727e-06 0 0)
(2.96727e-06 0 0)
(2.96727e-06 0 0)
(2.96727e-06 0 0)
(2.96727e-06 0 0)
(2.96727e-06 0 0)
(2.96727e-06 0 0)
(2.96727e-06 0 0)
(2.96727e-06 0 0)
(2.96727e-06 0 0)
(2.96727e-06 0 0)
(2.96727e-06 0 0)
(2.96727e-06 0 0)
(2.96727e-06 0 0)
(2.96727e-06 0 0)
(2.96727e-06 0 0)
(2.96727e-06 0 0)
(2.96727e-06 0 0)
(2.96727e-06 0 0)
(2.96727e-06 0 0)
(2.96727e-06 0 0)
(2.96727e-06 0 0)
(2.96727e-06 0 0)
(2.96727e-06 0 0)
(2.96727e-06 0 0)
(2.96727e-06 0 0)
(2.96727e-06 0 0)
(2.96727e-06 0 0)
(2.96727e-06 0 0)
(2.96727e-06 0 0)
(2.96727e-06 0 0)
(2.96727e-06 0 0)
(2.96727e-06 0 0)
(2.96727e-06 0 0)
(2.96727e-06 0 0)
(2.96727e-06 0 0)
(2.96727e-06 0 0)
(2.96727e-06 0 0)
(2.96727e-06 0 0)
(2.96727e-06 0 0)
(2.96727e-06 0 0)
(2.96727e-06 0 0)
(2.96727e-06 0 0)
(2.96727e-06 0 0)
(2.96727e-06 0 0)
(2.96727e-06 0 0)
(2.96727e-06 0 0)
(2.96727e-06 0 0)
(2.96727e-06 0 0)
(2.96727e-06 0 0)
(2.96727e-06 0 0)
(2.96727e-06 0 0)
(2.96727e-06 0 0)
(2.96727e-06 0 0)
(2.96727e-06 0 0)
(2.96727e-06 0 0)
(2.96727e-06 0 0)
(2.96727e-06 0 0)
(2.96727e-06 0 0)
(2.96727e-06 0 0)
(2.96727e-06 0 0)
(2.96727e-06 0 0)
(2.96727e-06 0 0)
(2.96727e-06 0 0)
(2.96727e-06 0 0)
(2.96727e-06 0 0)
(2.96727e-06 0 0)
(2.96727e-06 0 0)
(2.96727e-06 0 0)
(2.96727e-06 0 0)
(2.96727e-06 0 0)
(2.96727e-06 0 0)
(2.96727e-06 0 0)
(2.96727e-06 0 0)
(2.96727e-06 0 0)
(2.96727e-06 0 0)
(2.96727e-06 0 0)
(2.96727e-06 0 0)
(2.96727e-06 0 0)
(2.96727e-06 0 0)
(2.96727e-06 0 0)
(2.96727e-06 0 0)
(2.96727e-06 0 0)
(2.96727e-06 0 0)
(2.96727e-06 0 0)
(2.96727e-06 0 0)
(2.96727e-06 0 0)
(2.96727e-06 0 0)
(2.96727e-06 0 0)
(2.96727e-06 0 0)
(2.96727e-06 0 0)
(2.96727e-06 0 0)
(2.96727e-06 0 0)
(2.96727e-06 0 0)
(2.96727e-06 0 0)
(2.96727e-06 0 0)
(2.96727e-06 0 0)
(2.96727e-06 0 0)
(2.96727e-06 0 0)
(2.96727e-06 0 0)
(2.96727e-06 0 0)
(2.96727e-06 0 0)
(2.96727e-06 0 0)
(2.96727e-06 0 0)
(2.96727e-06 0 0)
(2.96727e-06 0 0)
(2.96727e-06 0 0)
(2.96727e-06 0 0)
(2.96727e-06 0 0)
(2.96727e-06 0 0)
(2.96727e-06 0 0)
(2.96727e-06 0 0)
(2.96727e-06 0 0)
(2.96727e-06 0 0)
(2.96727e-06 0 0)
(2.96727e-06 0 0)
(2.96727e-06 0 0)
(2.96727e-06 0 0)
(2.96727e-06 0 0)
(2.96727e-06 0 0)
(2.96727e-06 0 0)
(2.96727e-06 0 0)
(2.96727e-06 0 0)
(2.96727e-06 0 0)
(2.96727e-06 0 0)
(2.96727e-06 0 0)
(2.96727e-06 0 0)
(2.96727e-06 0 0)
(2.96727e-06 0 0)
(2.96727e-06 0 0)
(2.96727e-06 0 0)
(2.96727e-06 0 0)
(2.96727e-06 0 0)
(2.96727e-06 0 0)
(2.96727e-06 0 0)
(2.96727e-06 0 0)
(2.96727e-06 0 0)
(2.96727e-06 0 0)
(2.96727e-06 0 0)
(2.96727e-06 0 0)
(2.96727e-06 0 0)
(2.96727e-06 0 0)
(2.96727e-06 0 0)
(2.96727e-06 0 0)
(2.96727e-06 0 0)
(2.96727e-06 0 0)
(2.96727e-06 0 0)
(2.96727e-06 0 0)
(2.96727e-06 0 0)
(2.96727e-06 0 0)
(2.96727e-06 0 0)
(2.96727e-06 0 0)
(2.96727e-06 0 0)
(2.96727e-06 0 0)
(2.96727e-06 0 0)
(2.96727e-06 0 0)
(2.96727e-06 0 0)
(2.96727e-06 0 0)
(2.96727e-06 0 0)
(2.96727e-06 0 0)
(2.96727e-06 0 0)
(2.96727e-06 0 0)
(2.96727e-06 0 0)
(2.96727e-06 0 0)
(2.96727e-06 0 0)
(2.96727e-06 0 0)
(2.96727e-06 0 0)
(2.96727e-06 0 0)
(2.96727e-06 0 0)
(2.96727e-06 0 0)
(2.96727e-06 0 0)
(2.96727e-06 0 0)
(2.96727e-06 0 0)
(2.96727e-06 0 0)
(2.96727e-06 0 0)
(2.96727e-06 0 0)
(2.96727e-06 0 0)
(2.96727e-06 0 0)
(2.96727e-06 0 0)
(2.96727e-06 0 0)
(2.96727e-06 0 0)
(2.96727e-06 0 0)
(2.96727e-06 0 0)
(2.96727e-06 0 0)
(2.96727e-06 0 0)
(2.96727e-06 0 0)
(2.96727e-06 0 0)
(2.96727e-06 0 0)
(2.96727e-06 0 0)
(2.96727e-06 0 0)
(2.96727e-06 0 0)
(2.96727e-06 0 0)
(2.96727e-06 0 0)
(2.96727e-06 0 0)
(2.96727e-06 0 0)
(2.96727e-06 0 0)
(2.96727e-06 0 0)
(2.96727e-06 0 0)
(2.96727e-06 0 0)
(2.96727e-06 0 0)
(2.96727e-06 0 0)
(2.96727e-06 0 0)
(2.96727e-06 0 0)
(2.96727e-06 0 0)
(2.96727e-06 0 0)
(2.96727e-06 0 0)
(2.96727e-06 0 0)
(2.96727e-06 0 0)
(2.96727e-06 0 0)
(2.96727e-06 0 0)
(2.96727e-06 0 0)
(2.96727e-06 0 0)
(2.96727e-06 0 0)
(2.96727e-06 0 0)
(2.96727e-06 0 0)
(2.96727e-06 0 0)
(2.96727e-06 0 0)
(2.96727e-06 0 0)
(2.96727e-06 0 0)
(2.96727e-06 0 0)
(2.96727e-06 0 0)
(2.96727e-06 0 0)
(2.96727e-06 0 0)
(2.96727e-06 0 0)
(2.96727e-06 0 0)
(2.96727e-06 0 0)
(2.96727e-06 0 0)
(2.96727e-06 0 0)
(2.96727e-06 0 0)
(2.96727e-06 0 0)
(2.96727e-06 0 0)
(2.96727e-06 0 0)
(2.96727e-06 0 0)
(2.96727e-06 0 0)
(2.96727e-06 0 0)
(2.96727e-06 0 0)
(2.96727e-06 0 0)
(2.96727e-06 0 0)
(2.96727e-06 0 0)
(2.96727e-06 0 0)
(2.96727e-06 0 0)
(2.96727e-06 0 0)
(2.96727e-06 0 0)
(2.96727e-06 0 0)
(2.96727e-06 0 0)
(2.96727e-06 0 0)
(2.96727e-06 0 0)
(2.96727e-06 0 0)
(2.96727e-06 0 0)
(2.96727e-06 0 0)
(2.96727e-06 0 0)
(2.96727e-06 0 0)
(2.96727e-06 0 0)
(2.96727e-06 0 0)
(2.96727e-06 0 0)
(2.96727e-06 0 0)
(2.96727e-06 0 0)
(2.96727e-06 0 0)
(2.96727e-06 0 0)
(2.96727e-06 0 0)
(2.96727e-06 0 0)
(2.96727e-06 0 0)
(2.96727e-06 0 0)
(2.96727e-06 0 0)
(2.96727e-06 0 0)
(2.96727e-06 0 0)
(2.96727e-06 0 0)
(2.96727e-06 0 0)
(2.96727e-06 0 0)
(2.96727e-06 0 0)
(2.96727e-06 0 0)
(2.96727e-06 0 0)
(2.96727e-06 0 0)
(2.96727e-06 0 0)
(2.96727e-06 0 0)
(2.96727e-06 0 0)
(2.96727e-06 0 0)
(2.96727e-06 0 0)
(2.96727e-06 0 0)
(2.96727e-06 0 0)
(2.96727e-06 0 0)
(2.96727e-06 0 0)
(2.96727e-06 0 0)
(2.96727e-06 0 0)
(2.96727e-06 0 0)
(2.96727e-06 0 0)
(2.96727e-06 0 0)
(2.96727e-06 0 0)
(2.96727e-06 0 0)
(2.96727e-06 0 0)
(2.96727e-06 0 0)
(2.96727e-06 0 0)
(2.96727e-06 0 0)
(2.96727e-06 0 0)
(2.96727e-06 0 0)
(2.96727e-06 0 0)
(2.96727e-06 0 0)
(2.96727e-06 0 0)
(2.96727e-06 0 0)
(2.96727e-06 0 0)
(2.96727e-06 0 0)
(2.96727e-06 0 0)
(2.96727e-06 0 0)
(2.96727e-06 0 0)
(2.96727e-06 0 0)
(2.96727e-06 0 0)
(2.96727e-06 0 0)
(2.96727e-06 0 0)
(2.96727e-06 0 0)
(2.96727e-06 0 0)
(2.96727e-06 0 0)
(2.96727e-06 0 0)
(2.96727e-06 0 0)
(2.96727e-06 0 0)
(2.96727e-06 0 0)
(2.96727e-06 0 0)
(2.96727e-06 0 0)
(2.96727e-06 0 0)
(2.96727e-06 0 0)
(2.96727e-06 0 0)
(2.96727e-06 0 0)
(2.96727e-06 0 0)
(2.96727e-06 0 0)
(2.96727e-06 0 0)
(2.96727e-06 0 0)
(2.96727e-06 0 0)
(2.96727e-06 0 0)
(2.96727e-06 0 0)
(2.96727e-06 0 0)
(2.96727e-06 0 0)
(2.96727e-06 0 0)
(2.96727e-06 0 0)
(2.96727e-06 0 0)
(2.96727e-06 0 0)
(2.96727e-06 0 0)
(2.96727e-06 0 0)
(2.96727e-06 0 0)
(2.96727e-06 0 0)
(2.96727e-06 0 0)
(2.96727e-06 0 0)
(2.96727e-06 0 0)
(2.96727e-06 0 0)
(2.96727e-06 0 0)
(2.96727e-06 0 0)
(2.96727e-06 0 0)
(2.96727e-06 0 0)
(2.96727e-06 0 0)
(2.96727e-06 0 0)
(2.96727e-06 0 0)
(2.96727e-06 0 0)
(2.96727e-06 0 0)
(2.96727e-06 0 0)
(2.96727e-06 0 0)
(2.96727e-06 0 0)
(2.96727e-06 0 0)
(2.96727e-06 0 0)
(2.96727e-06 0 0)
(2.96727e-06 0 0)
(2.96727e-06 0 0)
(2.96727e-06 0 0)
(2.96727e-06 0 0)
(2.96727e-06 0 0)
(2.96727e-06 0 0)
(2.96727e-06 0 0)
(2.96727e-06 0 0)
(2.96727e-06 0 0)
(2.96727e-06 0 0)
(2.96727e-06 0 0)
(2.96727e-06 0 0)
(2.96727e-06 0 0)
(2.96727e-06 0 0)
(2.96727e-06 0 0)
(2.96727e-06 0 0)
(2.96727e-06 0 0)
(2.96727e-06 0 0)
(2.96727e-06 0 0)
(2.96727e-06 0 0)
(2.96727e-06 0 0)
(2.96727e-06 0 0)
(2.96727e-06 0 0)
(2.96727e-06 0 0)
(2.96727e-06 0 0)
(2.96727e-06 0 0)
(2.96727e-06 0 0)
(2.96727e-06 0 0)
(2.96727e-06 0 0)
(2.96727e-06 0 0)
(2.96727e-06 0 0)
(2.96727e-06 0 0)
(2.96727e-06 0 0)
(2.96727e-06 0 0)
(2.96727e-06 0 0)
(2.96727e-06 0 0)
(2.96727e-06 0 0)
(2.96727e-06 0 0)
(2.96727e-06 0 0)
(2.96727e-06 0 0)
(2.96727e-06 0 0)
(2.96727e-06 0 0)
(2.96727e-06 0 0)
(2.96727e-06 0 0)
(2.96727e-06 0 0)
(2.96727e-06 0 0)
(2.96727e-06 0 0)
(2.96727e-06 0 0)
(2.96727e-06 0 0)
)
;

boundaryField
{
    inlet
    {
        type            fixedValue;
        value           uniform (1.13622e-05 0 0);
    }
    outlet
    {
        type            zeroGradient;
    }
    emptyWalls
    {
        type            empty;
    }
}


// ************************************************************************* //
