/*--------------------------------*- C++ -*----------------------------------*\
  =========                 |
  \\      /  F ield         | OpenFOAM: The Open Source CFD Toolbox
   \\    /   O peration     | Website:  https://openfoam.org
    \\  /    A nd           | Version:  9
     \\/     M anipulation  |
\*---------------------------------------------------------------------------*/
FoamFile
{
    format      ascii;
    class       volScalarField;
    location    "15700";
    object      p;
}
// * * * * * * * * * * * * * * * * * * * * * * * * * * * * * * * * * * * * * //

dimensions      [0 0 0 0 0 0 0];

internalField   nonuniform List<scalar> 
1000
(
209533
209108
208686
208268
207852
207440
207031
206625
206221
205821
205424
205030
204638
204248
203861
203476
203092
202710
202330
201952
201585
201252
201033
200923
200833
200746
200661
200577
200493
200409
200326
200243
200161
200078
199996
199914
199832
199751
199669
199587
199506
199424
199343
199261
199180
199098
199017
198935
198853
198772
198690
198608
198527
198445
198363
198281
198199
198117
198034
197952
197869
197786
197703
197619
197535
197450
197366
197280
197195
197109
197022
196935
196848
196761
196673
196584
196495
196406
196316
196227
196136
196045
195954
195863
195771
195678
195586
195493
195399
195305
195211
195117
195022
194926
194831
194735
194638
194541
194444
194347
194249
194150
194052
193953
193853
193754
193654
193553
193452
193351
193250
193148
193046
192943
192840
192737
192634
192530
192425
192321
192216
192111
192005
191899
191793
191686
191579
191472
191364
191256
191148
191039
190930
190821
190711
190601
190491
190381
190270
190158
190047
189935
189823
189710
189598
189484
189371
189257
189143
189029
188914
188799
188684
188569
188453
188337
188220
188103
187986
187869
187751
187633
187515
187396
187277
187158
187038
186918
186798
186677
186556
186435
186313
186191
186069
185947
185824
185701
185577
185453
185329
185205
185080
184955
184830
184705
184579
184453
184326
184200
184073
183945
183818
183690
183562
183433
183304
183175
183046
182916
182786
182656
182525
182395
182264
182132
182000
181868
181736
181604
181471
181338
181204
181070
180936
180802
180668
180533
180398
180262
180126
179990
179854
179718
179581
179444
179306
179169
179031
178892
178754
178615
178476
178337
178197
178057
177917
177776
177636
177495
177353
177212
177070
176928
176785
176643
176500
176357
176213
176069
175925
175781
175636
175492
175346
175201
175055
174910
174763
174617
174470
174323
174176
174028
173881
173732
173584
173436
173287
173138
172988
172839
172689
172538
172388
172237
172086
171935
171784
171632
171480
171327
171175
171022
170869
170716
170562
170409
170255
170100
169946
169791
169636
169481
169325
169169
169013
168857
168701
168544
168387
168230
168072
167914
167756
167598
167439
167281
167121
166962
166802
166642
166482
166322
166161
166000
165839
165677
165515
165353
165191
165028
164865
164702
164539
164375
164211
164047
163882
163718
163553
163387
163222
163056
162890
162724
162557
162391
162224
162056
161889
161721
161553
161385
161216
161047
160878
160709
160539
160369
160199
160029
159858
159688
159516
159345
159173
159002
158829
158657
158484
158311
158138
157965
157791
157617
157443
157269
157094
156919
156744
156569
156393
156217
156041
155864
155688
155511
155333
155156
154978
154800
154622
154444
154265
154086
153907
153727
153547
153367
153187
153007
152826
152645
152464
152282
152101
151919
151736
151554
151371
151188
151005
150822
150638
150454
150270
150085
149900
149715
149530
149345
149159
148973
148787
148600
148414
148227
148040
147852
147664
147476
147288
147100
146911
146722
146533
146343
146154
145964
145774
145583
145393
145202
145010
144819
144627
144435
144243
144051
143858
143665
143472
143279
143085
142891
142697
142503
142308
142114
141918
141723
141528
141332
141136
140940
140743
140546
140349
140152
139955
139757
139559
139361
139163
138964
138765
138566
138367
138167
137967
137767
137567
137366
137165
136964
136762
136561
136359
136157
135954
135751
135548
135345
135141
134937
134733
134529
134324
134119
133914
133709
133503
133297
133091
132884
132678
132471
132263
132056
131848
131640
131431
131223
131014
130805
130595
130386
130176
129966
129755
129545
129334
129122
128911
128699
128487
128275
128062
127849
127636
127423
127209
126995
126781
126567
126352
126137
125922
125707
125491
125275
125058
124842
124625
124408
124191
123973
123755
123537
123318
123100
122881
122661
122442
122222
122002
121781
121561
121340
121118
120897
120675
120453
120231
120008
119785
119562
119339
119115
118891
118666
118442
118217
117992
117766
117541
117315
117088
116862
116635
116408
116180
115953
115725
115496
115268
115039
114810
114580
114351
114120
113890
113660
113429
113197
112966
112734
112502
112270
112037
111804
111571
111338
111104
110870
110636
110402
110167
109932
109697
109462
109226
108991
108755
108519
108282
108046
107810
107573
107336
107100
106863
106626
106389
106152
105915
105678
105441
105204
104967
104730
104492
104255
104017
103779
103540
103299
103055
102808
102555
102295
102029
101758
101483
101207
100931
100654
100376
100099
99821.6
99544.2
99266.8
98989.4
98712
98434.6
98157.2
97879.9
97602.5
97325.2
97047.8
96770.5
96493.2
96215.9
95938.6
95661.3
95384
95106.7
94829.4
94552.1
94274.8
93997.5
93720.2
93442.9
93165.5
92888.2
92610.8
92333.5
92056.1
91778.7
91501.3
91223.9
90946.5
90669
90391.6
90114.1
89836.6
89559.1
89281.6
89004.1
88726.5
88449
88171.4
87893.9
87616.3
87338.7
87061.1
86783.4
86505.8
86228.2
85950.6
85672.9
85395.3
85117.6
84839.9
84562.3
84284.6
84006.9
83729.2
83451.5
83173.8
82896.2
82618.5
82340.8
82063.1
81785.3
81507.6
81229.9
80952.2
80674.5
80396.8
80119.1
79841.3
79563.6
79285.9
79008.2
78730.4
78452.7
78174.9
77897.2
77619.5
77341.7
77064
76786.2
76508.5
76230.7
75953
75675.2
75397.4
75119.7
74841.9
74564.1
74286.3
74008.6
73730.8
73453
73175.2
72897.4
72619.6
72341.8
72064.1
71786.3
71508.5
71230.7
70952.8
70675
70397.2
70119.4
69841.6
69563.8
69286
69008.2
68730.3
68452.5
68174.7
67896.9
67619
67341.2
67063.4
66785.6
66507.7
66229.9
65952.1
65674.2
65396.4
65118.6
64840.7
64562.9
64285
64007.2
63729.4
63451.5
63173.7
62895.9
62618
62340.2
62062.3
61784.5
61506.7
61228.8
60951
60673.2
60395.3
60117.5
59839.7
59561.8
59284
59006.2
58728.3
58450.5
58172.7
57894.9
57617
57339.2
57061.4
56783.6
56505.8
56227.9
55950.1
55672.3
55394.5
55116.7
54838.9
54561.1
54283.3
54005.5
53727.7
53449.9
53172.1
52894.3
52616.5
52338.7
52061
51783.2
51505.4
51227.6
50949.9
50672.1
50394.4
50116.6
49838.9
49561.1
49283.4
49005.7
48728
48450.3
48172.6
47894.9
47617.2
47339.5
47061.9
46784.2
46506.6
46228.9
45951.3
45673.7
45396.1
45118.5
44841
44563.4
44285.8
44008.3
43730.8
43453.3
43175.8
42898.3
42620.8
42343.4
42065.9
41788.5
41511.1
41233.7
40956.3
40678.9
40401.5
40124.1
39846.8
39569.4
39292.1
39014.7
38737.4
38460.1
38182.7
37905.4
37628.1
37350.8
37073.4
36796.1
36518.8
36241.4
35964.1
35686.7
35409.4
35132
34854.6
34577.2
34299.8
34022.4
33745
33467.6
33190.1
32912.7
32635.2
32357.7
32080.3
31802.8
31525.2
31247.7
30970.2
30692.6
30415.1
30137.5
29859.9
29582.3
29304.7
29027.1
28749.5
28471.9
28194.2
27916.6
27639
27361.3
27083.7
26806
26528.3
26250.7
25973
25695.3
25417.6
25139.9
24862.2
24584.6
24306.9
24029.2
23751.5
23473.7
23196
22918.3
22640.6
22362.9
22085.2
21807.5
21529.7
21252
20974.3
20696.5
20418.8
20141.1
19863.3
19585.6
19307.8
19030.1
18752.3
18474.6
18196.8
17919.1
17641.3
17363.6
17085.8
16808
16530.3
16252.5
15974.7
15696.9
15419.2
15141.4
14863.6
14585.8
14308
14030.2
13752.4
13474.6
13196.8
12919
12641.2
12363.4
12085.6
11807.8
11530
11252.2
10974.3
10696.5
10418.7
10140.9
9863.07
9585.24
9307.42
9029.59
8751.76
8473.93
8196.1
7918.27
7640.44
7362.61
7084.77
6806.94
6529.1
6251.27
5973.43
5695.6
5417.76
5139.92
4862.09
4584.25
4306.41
4028.57
3750.74
3472.9
3195.07
2917.23
2639.39
2361.56
2083.73
1805.89
1528.06
1250.23
972.397
694.568
416.74
138.913
)
;

boundaryField
{
    inlet
    {
        type            darcyGradPressure;
        gradient        uniform 116344;
        Mf              Mf;
        phi             phi;
        value           uniform 209746;
    }
    outlet
    {
        type            fixedValue;
        value           uniform 0;
    }
    emptyWalls
    {
        type            empty;
    }
}


// ************************************************************************* //
