/*--------------------------------*- C++ -*----------------------------------*\
  =========                 |
  \\      /  F ield         | OpenFOAM: The Open Source CFD Toolbox
   \\    /   O peration     | Website:  https://openfoam.org
    \\  /    A nd           | Version:  9
     \\/     M anipulation  |
\*---------------------------------------------------------------------------*/
FoamFile
{
    format      ascii;
    class       surfaceScalarField;
    location    "15700";
    object      phia;
}
// * * * * * * * * * * * * * * * * * * * * * * * * * * * * * * * * * * * * * //

dimensions      [0 2 0 0 0 0 0];

internalField   nonuniform List<scalar> 
999
(
2.74893e-10
2.74886e-10
2.74856e-10
2.74811e-10
2.74752e-10
2.74674e-10
2.74597e-10
2.74502e-10
2.74424e-10
2.74297e-10
2.74225e-10
2.74079e-10
2.73999e-10
2.73891e-10
2.7379e-10
2.73735e-10
2.73623e-10
2.73555e-10
2.73337e-10
2.72678e-10
2.70209e-10
2.55584e-10
2.20474e-10
2.14045e-10
2.12125e-10
2.112e-10
2.10643e-10
2.10236e-10
2.09895e-10
2.09647e-10
2.09587e-10
2.09784e-10
2.10203e-10
2.10707e-10
2.11123e-10
2.11327e-10
2.11309e-10
2.11157e-10
2.10981e-10
2.10778e-10
2.10296e-10
2.09608e-10
2.0885e-10
2.08129e-10
2.07452e-10
2.06875e-10
2.06414e-10
2.0605e-10
2.05789e-10
2.05615e-10
2.05511e-10
2.05457e-10
2.05437e-10
2.05435e-10
2.05439e-10
2.05438e-10
2.05428e-10
2.05408e-10
2.0538e-10
2.05349e-10
2.05319e-10
2.05288e-10
2.05249e-10
2.05202e-10
2.0515e-10
2.05093e-10
2.05035e-10
2.04974e-10
2.04913e-10
2.04851e-10
2.0479e-10
2.04728e-10
2.04668e-10
2.04608e-10
2.04548e-10
2.0449e-10
2.04433e-10
2.04377e-10
2.04322e-10
2.04268e-10
2.04215e-10
2.04163e-10
2.04113e-10
2.04064e-10
2.04016e-10
2.03969e-10
2.03924e-10
2.0388e-10
2.03838e-10
2.03797e-10
2.03757e-10
2.03719e-10
2.03682e-10
2.03646e-10
2.03612e-10
2.0358e-10
2.03548e-10
2.03519e-10
2.0349e-10
2.03463e-10
2.03438e-10
2.03414e-10
2.03391e-10
2.0337e-10
2.0335e-10
2.03331e-10
2.03314e-10
2.03299e-10
2.03286e-10
2.03274e-10
2.03263e-10
2.03254e-10
2.03245e-10
2.03237e-10
2.03229e-10
2.03221e-10
2.03212e-10
2.03203e-10
2.03194e-10
2.03184e-10
2.03175e-10
2.03167e-10
2.03161e-10
2.03156e-10
2.03154e-10
2.03153e-10
2.03154e-10
2.03155e-10
2.03155e-10
2.03153e-10
2.0315e-10
2.03145e-10
2.03141e-10
2.0314e-10
2.03145e-10
2.03161e-10
2.0319e-10
2.03237e-10
2.03303e-10
2.03391e-10
2.03501e-10
2.03632e-10
2.03784e-10
2.03953e-10
2.04139e-10
2.04336e-10
2.0454e-10
2.04748e-10
2.04954e-10
2.05152e-10
2.05336e-10
2.055e-10
2.05636e-10
2.05741e-10
2.05808e-10
2.05832e-10
2.05813e-10
2.05748e-10
2.05639e-10
2.05488e-10
2.05301e-10
2.05082e-10
2.0484e-10
2.04581e-10
2.04314e-10
2.04047e-10
2.03787e-10
2.03539e-10
2.03308e-10
2.03098e-10
2.02911e-10
2.02749e-10
2.02611e-10
2.02495e-10
2.02401e-10
2.02326e-10
2.02267e-10
2.02222e-10
2.02188e-10
2.02162e-10
2.02141e-10
2.02125e-10
2.02109e-10
2.02094e-10
2.02078e-10
2.02059e-10
2.02038e-10
2.02014e-10
2.01986e-10
2.01954e-10
2.01919e-10
2.01881e-10
2.0184e-10
2.01796e-10
2.0175e-10
2.01702e-10
2.01653e-10
2.01602e-10
2.0155e-10
2.01497e-10
2.01444e-10
2.01391e-10
2.01337e-10
2.01284e-10
2.01231e-10
2.01178e-10
2.01126e-10
2.01074e-10
2.01023e-10
2.00972e-10
2.00922e-10
2.00873e-10
2.00824e-10
2.00776e-10
2.00729e-10
2.00683e-10
2.00638e-10
2.00593e-10
2.0055e-10
2.00507e-10
2.00465e-10
2.00424e-10
2.00384e-10
2.00345e-10
2.00307e-10
2.00269e-10
2.00233e-10
2.00198e-10
2.00163e-10
2.0013e-10
2.00098e-10
2.00066e-10
2.00035e-10
2.00006e-10
1.99977e-10
1.99949e-10
1.99922e-10
1.99896e-10
1.99871e-10
1.99847e-10
1.99824e-10
1.99802e-10
1.99781e-10
1.99761e-10
1.99741e-10
1.99723e-10
1.99705e-10
1.99687e-10
1.9967e-10
1.99654e-10
1.99638e-10
1.99622e-10
1.99607e-10
1.99592e-10
1.99577e-10
1.99563e-10
1.99549e-10
1.99535e-10
1.99522e-10
1.9951e-10
1.99498e-10
1.99486e-10
1.99475e-10
1.99464e-10
1.99453e-10
1.99442e-10
1.99433e-10
1.99423e-10
1.99415e-10
1.99408e-10
1.99402e-10
1.99399e-10
1.994e-10
1.99404e-10
1.99413e-10
1.99428e-10
1.99449e-10
1.99478e-10
1.99515e-10
1.99561e-10
1.99616e-10
1.99681e-10
1.99756e-10
1.9984e-10
1.99933e-10
2.00035e-10
2.00144e-10
2.0026e-10
2.00381e-10
2.00504e-10
2.0063e-10
2.00754e-10
2.00876e-10
2.00992e-10
2.01101e-10
2.012e-10
2.01286e-10
2.01357e-10
2.01411e-10
2.01447e-10
2.01463e-10
2.01458e-10
2.01432e-10
2.01384e-10
2.01314e-10
2.01225e-10
2.01116e-10
2.00991e-10
2.00851e-10
2.00699e-10
2.00538e-10
2.0037e-10
2.00198e-10
2.00025e-10
1.99854e-10
1.99686e-10
1.99524e-10
1.9937e-10
1.99224e-10
1.99088e-10
1.98962e-10
1.98846e-10
1.98741e-10
1.98647e-10
1.98562e-10
1.98486e-10
1.98419e-10
1.98359e-10
1.98306e-10
1.98258e-10
1.98215e-10
1.98176e-10
1.98139e-10
1.98105e-10
1.98073e-10
1.98041e-10
1.98009e-10
1.97978e-10
1.97946e-10
1.97913e-10
1.97879e-10
1.97844e-10
1.97808e-10
1.9777e-10
1.97731e-10
1.97691e-10
1.97649e-10
1.97606e-10
1.97563e-10
1.97518e-10
1.97472e-10
1.97426e-10
1.97379e-10
1.97331e-10
1.97284e-10
1.97235e-10
1.97187e-10
1.97138e-10
1.9709e-10
1.97041e-10
1.96993e-10
1.96944e-10
1.96896e-10
1.96849e-10
1.96801e-10
1.96754e-10
1.96708e-10
1.96661e-10
1.96616e-10
1.9657e-10
1.96526e-10
1.96482e-10
1.96438e-10
1.96395e-10
1.96353e-10
1.96311e-10
1.9627e-10
1.96229e-10
1.9619e-10
1.96151e-10
1.96112e-10
1.96074e-10
1.96037e-10
1.96001e-10
1.95965e-10
1.9593e-10
1.95896e-10
1.95862e-10
1.95829e-10
1.95797e-10
1.95765e-10
1.95735e-10
1.95704e-10
1.95675e-10
1.95646e-10
1.95618e-10
1.95591e-10
1.95564e-10
1.95539e-10
1.95513e-10
1.95488e-10
1.95464e-10
1.95441e-10
1.95418e-10
1.95396e-10
1.95374e-10
1.95352e-10
1.95331e-10
1.95311e-10
1.95291e-10
1.95271e-10
1.95252e-10
1.95233e-10
1.95215e-10
1.95196e-10
1.95179e-10
1.95161e-10
1.95144e-10
1.95128e-10
1.95111e-10
1.95096e-10
1.9508e-10
1.95065e-10
1.95051e-10
1.95037e-10
1.95024e-10
1.95012e-10
1.95001e-10
1.94991e-10
1.94983e-10
1.94976e-10
1.94972e-10
1.9497e-10
1.9497e-10
1.94973e-10
1.9498e-10
1.9499e-10
1.95005e-10
1.95023e-10
1.95047e-10
1.95075e-10
1.95108e-10
1.95146e-10
1.9519e-10
1.95238e-10
1.95292e-10
1.95351e-10
1.95414e-10
1.95481e-10
1.95553e-10
1.95627e-10
1.95704e-10
1.95783e-10
1.95863e-10
1.95943e-10
1.96023e-10
1.961e-10
1.96175e-10
1.96245e-10
1.9631e-10
1.9637e-10
1.96422e-10
1.96465e-10
1.965e-10
1.96524e-10
1.96538e-10
1.96541e-10
1.96531e-10
1.9651e-10
1.96477e-10
1.96431e-10
1.96374e-10
1.96305e-10
1.96225e-10
1.96136e-10
1.96037e-10
1.9593e-10
1.95817e-10
1.95697e-10
1.95574e-10
1.95447e-10
1.95318e-10
1.95188e-10
1.95059e-10
1.94931e-10
1.94805e-10
1.94682e-10
1.94564e-10
1.94449e-10
1.9434e-10
1.94236e-10
1.94137e-10
1.94043e-10
1.93955e-10
1.93872e-10
1.93794e-10
1.93721e-10
1.93653e-10
1.93589e-10
1.93529e-10
1.93472e-10
1.93418e-10
1.93367e-10
1.93318e-10
1.93271e-10
1.93225e-10
1.93181e-10
1.93137e-10
1.93095e-10
1.93053e-10
1.9301e-10
1.92968e-10
1.92926e-10
1.92884e-10
1.92841e-10
1.92797e-10
1.92754e-10
1.92709e-10
1.92664e-10
1.92619e-10
1.92573e-10
1.92526e-10
1.92479e-10
1.92431e-10
1.92383e-10
1.92335e-10
1.92286e-10
1.92237e-10
1.92188e-10
1.92138e-10
1.92089e-10
1.92039e-10
1.91989e-10
1.91939e-10
1.9189e-10
1.9184e-10
1.9179e-10
1.91741e-10
1.91692e-10
1.91643e-10
1.91595e-10
1.91546e-10
1.91498e-10
1.91451e-10
1.91403e-10
1.91356e-10
1.9131e-10
1.91264e-10
1.91218e-10
1.91173e-10
1.91128e-10
1.91084e-10
1.9104e-10
1.90997e-10
1.90954e-10
1.90912e-10
1.9087e-10
1.90828e-10
1.90788e-10
1.90747e-10
1.90707e-10
1.90668e-10
1.90629e-10
1.90591e-10
1.90553e-10
1.90516e-10
1.9048e-10
1.90443e-10
1.90408e-10
1.90373e-10
1.90338e-10
1.90304e-10
1.90271e-10
1.90237e-10
1.90205e-10
1.90173e-10
1.90141e-10
1.9011e-10
1.9008e-10
1.9005e-10
1.9002e-10
1.89991e-10
1.89962e-10
1.89934e-10
1.89907e-10
1.89879e-10
1.89853e-10
1.89827e-10
1.89801e-10
1.89777e-10
1.89752e-10
1.89729e-10
1.89707e-10
1.89685e-10
1.89665e-10
1.89645e-10
1.89627e-10
1.8961e-10
1.89594e-10
1.8958e-10
1.89569e-10
1.89558e-10
1.89549e-10
1.89544e-10
1.89539e-10
1.89538e-10
1.8954e-10
1.89542e-10
1.89549e-10
1.89559e-10
1.89569e-10
1.89585e-10
1.89604e-10
1.89623e-10
1.89648e-10
1.89676e-10
1.89705e-10
1.89738e-10
1.89773e-10
1.8981e-10
1.89847e-10
1.89882e-10
1.89912e-10
1.89929e-10
1.89922e-10
1.8987e-10
1.89743e-10
1.89497e-10
1.89093e-10
1.88516e-10
1.87843e-10
1.87223e-10
1.86795e-10
1.86578e-10
1.86502e-10
1.8651e-10
1.8655e-10
1.86613e-10
1.86679e-10
1.8675e-10
1.86823e-10
1.86894e-10
1.86965e-10
1.87033e-10
1.87098e-10
1.87161e-10
1.87219e-10
1.87273e-10
1.87323e-10
1.87368e-10
1.87408e-10
1.87442e-10
1.8747e-10
1.87491e-10
1.87504e-10
1.8751e-10
1.87511e-10
1.87511e-10
1.87506e-10
1.87487e-10
1.87461e-10
1.87429e-10
1.87392e-10
1.8735e-10
1.87303e-10
1.87251e-10
1.87195e-10
1.87136e-10
1.87073e-10
1.87007e-10
1.8694e-10
1.8687e-10
1.868e-10
1.86729e-10
1.86658e-10
1.86587e-10
1.86518e-10
1.86449e-10
1.86382e-10
1.86317e-10
1.86254e-10
1.86194e-10
1.86136e-10
1.86081e-10
1.86029e-10
1.85979e-10
1.85933e-10
1.85889e-10
1.85848e-10
1.8581e-10
1.85775e-10
1.85742e-10
1.85712e-10
1.85684e-10
1.85658e-10
1.85634e-10
1.85612e-10
1.85592e-10
1.85572e-10
1.85555e-10
1.85538e-10
1.85522e-10
1.85508e-10
1.85494e-10
1.8548e-10
1.85467e-10
1.85454e-10
1.85442e-10
1.8543e-10
1.85418e-10
1.85406e-10
1.85394e-10
1.85382e-10
1.8537e-10
1.85358e-10
1.85345e-10
1.85333e-10
1.8532e-10
1.85308e-10
1.85295e-10
1.85282e-10
1.85268e-10
1.85255e-10
1.85242e-10
1.85228e-10
1.85215e-10
1.85201e-10
1.85188e-10
1.85174e-10
1.85161e-10
1.85147e-10
1.85134e-10
1.85121e-10
1.85108e-10
1.85095e-10
1.85082e-10
1.85069e-10
1.85056e-10
1.85044e-10
1.85032e-10
1.8502e-10
1.85008e-10
1.84997e-10
1.84986e-10
1.84975e-10
1.84965e-10
1.84954e-10
1.84944e-10
1.84935e-10
1.84926e-10
1.84917e-10
1.84908e-10
1.849e-10
1.84892e-10
1.84885e-10
1.84878e-10
1.84871e-10
1.84865e-10
1.84859e-10
1.84853e-10
1.84848e-10
1.84844e-10
1.84839e-10
1.84835e-10
1.84832e-10
1.84829e-10
1.84826e-10
1.84824e-10
1.84822e-10
1.84821e-10
1.8482e-10
1.84819e-10
1.84819e-10
1.84819e-10
1.84819e-10
1.8482e-10
1.84821e-10
1.84823e-10
1.84825e-10
1.84828e-10
1.84831e-10
1.84834e-10
1.84838e-10
1.84842e-10
1.84846e-10
1.84851e-10
1.84856e-10
1.84862e-10
1.84867e-10
1.84873e-10
1.8488e-10
1.84887e-10
1.84894e-10
1.84901e-10
1.84909e-10
1.84917e-10
1.84925e-10
1.84934e-10
1.84943e-10
1.84953e-10
1.84963e-10
1.84974e-10
1.84985e-10
1.84996e-10
1.85008e-10
1.85021e-10
1.85035e-10
1.85049e-10
1.85064e-10
1.8508e-10
1.85096e-10
1.85114e-10
1.85133e-10
1.85153e-10
1.85174e-10
1.85197e-10
1.8522e-10
1.85246e-10
1.85273e-10
1.85301e-10
1.85332e-10
1.85364e-10
1.85398e-10
1.85434e-10
1.85472e-10
1.85512e-10
1.85554e-10
1.85598e-10
1.85645e-10
1.85693e-10
1.85743e-10
1.85796e-10
1.8585e-10
1.85906e-10
1.85964e-10
1.86024e-10
1.86085e-10
1.86147e-10
1.86211e-10
1.86275e-10
1.8634e-10
1.86406e-10
1.86472e-10
1.86538e-10
1.86604e-10
1.86669e-10
1.86733e-10
1.86796e-10
1.86857e-10
1.86916e-10
1.86973e-10
1.87027e-10
1.87078e-10
1.87126e-10
1.87171e-10
1.87211e-10
1.87248e-10
1.8728e-10
1.87307e-10
1.87329e-10
1.87346e-10
1.87358e-10
1.87365e-10
1.87367e-10
1.87368e-10
1.87366e-10
1.8736e-10
1.87339e-10
1.87315e-10
1.87286e-10
1.87253e-10
1.87215e-10
1.87173e-10
1.87128e-10
1.87079e-10
1.87028e-10
1.86974e-10
1.86918e-10
1.8686e-10
1.868e-10
1.8674e-10
1.86679e-10
1.86618e-10
1.86558e-10
1.86497e-10
1.86438e-10
1.86379e-10
1.86322e-10
1.86267e-10
1.86213e-10
1.86161e-10
1.86111e-10
1.86063e-10
1.86017e-10
1.85974e-10
1.85932e-10
1.85893e-10
1.85857e-10
1.85822e-10
1.85789e-10
1.85759e-10
1.8573e-10
1.85703e-10
1.85678e-10
1.85654e-10
1.85632e-10
1.85611e-10
1.85591e-10
1.85573e-10
1.85555e-10
1.85539e-10
1.85523e-10
1.85507e-10
1.85493e-10
1.85479e-10
1.85465e-10
1.85452e-10
1.85438e-10
1.85426e-10
1.85413e-10
1.854e-10
1.85388e-10
1.85375e-10
1.85362e-10
1.8535e-10
1.85337e-10
1.85325e-10
1.85312e-10
1.85299e-10
1.85287e-10
1.85274e-10
1.85261e-10
1.85248e-10
1.85235e-10
1.85222e-10
1.85209e-10
1.85196e-10
1.85183e-10
1.8517e-10
1.85157e-10
1.85144e-10
1.85131e-10
1.85118e-10
1.85105e-10
1.85093e-10
1.8508e-10
1.85068e-10
1.85056e-10
1.85044e-10
1.85032e-10
1.85021e-10
1.8501e-10
1.84998e-10
1.84988e-10
1.84977e-10
1.84967e-10
1.84957e-10
1.84947e-10
1.84937e-10
1.84928e-10
1.8492e-10
1.84911e-10
1.84903e-10
1.84895e-10
1.84888e-10
1.84881e-10
1.84874e-10
1.84868e-10
1.84862e-10
1.84856e-10
1.84851e-10
1.84846e-10
1.84842e-10
1.84838e-10
1.84835e-10
1.84832e-10
1.84829e-10
1.84827e-10
1.84825e-10
1.84824e-10
1.84823e-10
1.84822e-10
1.84822e-10
1.84822e-10
1.84823e-10
1.84823e-10
1.84824e-10
1.84826e-10
1.84828e-10
1.84831e-10
1.84833e-10
1.84837e-10
1.84841e-10
1.84845e-10
1.8485e-10
1.84855e-10
1.8486e-10
1.84867e-10
1.84873e-10
)
;

boundaryField
{
    inlet
    {
        type            calculated;
        value           uniform -2.74882e-10;
    }
    outlet
    {
        type            calculated;
        value           uniform 1.8488e-10;
    }
    emptyWalls
    {
        type            empty;
        value           nonuniform List<scalar> 0();
    }
}


// ************************************************************************* //
