/*--------------------------------*- C++ -*----------------------------------*\
  =========                 |
  \\      /  F ield         | OpenFOAM: The Open Source CFD Toolbox
   \\    /   O peration     | Website:  https://openfoam.org
    \\  /    A nd           | Version:  9
     \\/     M anipulation  |
\*---------------------------------------------------------------------------*/
FoamFile
{
    format      ascii;
    class       surfaceScalarField;
    location    "15700";
    object      phib;
}
// * * * * * * * * * * * * * * * * * * * * * * * * * * * * * * * * * * * * * //

dimensions      [0 2 0 0 0 0 0];

internalField   nonuniform List<scalar> 
999
(
1.1362e-09
1.1362e-09
1.13622e-09
1.13625e-09
1.13628e-09
1.13633e-09
1.13637e-09
1.13642e-09
1.13645e-09
1.13653e-09
1.13655e-09
1.13665e-09
1.13667e-09
1.13673e-09
1.13679e-09
1.1368e-09
1.13688e-09
1.1369e-09
1.13703e-09
1.13739e-09
1.13874e-09
1.1475e-09
1.17189e-09
1.17621e-09
1.17743e-09
1.17797e-09
1.17826e-09
1.17845e-09
1.1786e-09
1.17868e-09
1.17859e-09
1.17825e-09
1.17769e-09
1.17706e-09
1.17652e-09
1.1762e-09
1.17609e-09
1.17613e-09
1.17618e-09
1.17627e-09
1.17663e-09
1.1772e-09
1.17783e-09
1.17843e-09
1.17898e-09
1.17943e-09
1.17976e-09
1.17999e-09
1.18011e-09
1.18014e-09
1.1801e-09
1.18001e-09
1.17987e-09
1.1797e-09
1.17952e-09
1.17932e-09
1.1791e-09
1.17886e-09
1.17858e-09
1.17825e-09
1.17786e-09
1.17742e-09
1.17694e-09
1.17645e-09
1.17594e-09
1.17542e-09
1.17489e-09
1.17435e-09
1.17381e-09
1.17326e-09
1.1727e-09
1.17214e-09
1.17157e-09
1.171e-09
1.17042e-09
1.16984e-09
1.16926e-09
1.16867e-09
1.16808e-09
1.16748e-09
1.16688e-09
1.16628e-09
1.16568e-09
1.16507e-09
1.16445e-09
1.16384e-09
1.16322e-09
1.1626e-09
1.16197e-09
1.16134e-09
1.16071e-09
1.16008e-09
1.15944e-09
1.1588e-09
1.15815e-09
1.1575e-09
1.15685e-09
1.1562e-09
1.15555e-09
1.15489e-09
1.15423e-09
1.15356e-09
1.15289e-09
1.15222e-09
1.15155e-09
1.15088e-09
1.1502e-09
1.14952e-09
1.14883e-09
1.14815e-09
1.14746e-09
1.14677e-09
1.14607e-09
1.14538e-09
1.14468e-09
1.14398e-09
1.14328e-09
1.14258e-09
1.14188e-09
1.14118e-09
1.14048e-09
1.13977e-09
1.13907e-09
1.13836e-09
1.13764e-09
1.13693e-09
1.13621e-09
1.13549e-09
1.13477e-09
1.13405e-09
1.13333e-09
1.13261e-09
1.13189e-09
1.13117e-09
1.13043e-09
1.12969e-09
1.12894e-09
1.12816e-09
1.12737e-09
1.12655e-09
1.12572e-09
1.12486e-09
1.12398e-09
1.12309e-09
1.12218e-09
1.12125e-09
1.12032e-09
1.11939e-09
1.11846e-09
1.11753e-09
1.11662e-09
1.11572e-09
1.11485e-09
1.11401e-09
1.1132e-09
1.11243e-09
1.11171e-09
1.11102e-09
1.11038e-09
1.10977e-09
1.1092e-09
1.10865e-09
1.10813e-09
1.10762e-09
1.10711e-09
1.10661e-09
1.1061e-09
1.10557e-09
1.10503e-09
1.10447e-09
1.10388e-09
1.10327e-09
1.10264e-09
1.10199e-09
1.10131e-09
1.10062e-09
1.09991e-09
1.09919e-09
1.09845e-09
1.09771e-09
1.09696e-09
1.0962e-09
1.09545e-09
1.09469e-09
1.09394e-09
1.09318e-09
1.09243e-09
1.09168e-09
1.09093e-09
1.09018e-09
1.08944e-09
1.0887e-09
1.08795e-09
1.08722e-09
1.08648e-09
1.08574e-09
1.08501e-09
1.08427e-09
1.08353e-09
1.0828e-09
1.08206e-09
1.08133e-09
1.08059e-09
1.07985e-09
1.07911e-09
1.07837e-09
1.07763e-09
1.07688e-09
1.07614e-09
1.07539e-09
1.07464e-09
1.0739e-09
1.07314e-09
1.07239e-09
1.07164e-09
1.07088e-09
1.07013e-09
1.06937e-09
1.06861e-09
1.06784e-09
1.06708e-09
1.06631e-09
1.06555e-09
1.06478e-09
1.06401e-09
1.06323e-09
1.06246e-09
1.06168e-09
1.06091e-09
1.06013e-09
1.05935e-09
1.05856e-09
1.05778e-09
1.05699e-09
1.0562e-09
1.05541e-09
1.05462e-09
1.05383e-09
1.05304e-09
1.05224e-09
1.05144e-09
1.05064e-09
1.04984e-09
1.04904e-09
1.04823e-09
1.04742e-09
1.04662e-09
1.04581e-09
1.045e-09
1.04418e-09
1.04337e-09
1.04256e-09
1.04174e-09
1.04092e-09
1.0401e-09
1.03929e-09
1.03846e-09
1.03764e-09
1.03682e-09
1.036e-09
1.03517e-09
1.03434e-09
1.03352e-09
1.03269e-09
1.03186e-09
1.03102e-09
1.03019e-09
1.02936e-09
1.02852e-09
1.02768e-09
1.02684e-09
1.026e-09
1.02515e-09
1.0243e-09
1.02344e-09
1.02258e-09
1.02171e-09
1.02083e-09
1.01995e-09
1.01905e-09
1.01815e-09
1.01724e-09
1.01632e-09
1.01539e-09
1.01445e-09
1.0135e-09
1.01255e-09
1.01159e-09
1.01062e-09
1.00965e-09
1.00868e-09
1.00771e-09
1.00674e-09
1.00577e-09
1.00481e-09
1.00386e-09
1.00292e-09
1.00199e-09
1.00107e-09
1.00017e-09
9.9928e-10
9.98411e-10
9.9756e-10
9.96726e-10
9.95909e-10
9.95108e-10
9.94322e-10
9.93549e-10
9.92787e-10
9.92035e-10
9.91289e-10
9.90548e-10
9.89809e-10
9.89069e-10
9.88327e-10
9.87581e-10
9.86828e-10
9.86068e-10
9.85299e-10
9.8452e-10
9.83732e-10
9.82934e-10
9.82125e-10
9.81307e-10
9.80479e-10
9.79642e-10
9.78797e-10
9.77945e-10
9.77086e-10
9.76221e-10
9.75351e-10
9.74476e-10
9.73598e-10
9.72717e-10
9.71834e-10
9.70948e-10
9.70061e-10
9.69173e-10
9.68285e-10
9.67395e-10
9.66505e-10
9.65616e-10
9.64725e-10
9.63835e-10
9.62945e-10
9.62054e-10
9.61163e-10
9.60272e-10
9.59381e-10
9.58489e-10
9.57596e-10
9.56703e-10
9.55809e-10
9.54914e-10
9.54018e-10
9.53121e-10
9.52223e-10
9.51324e-10
9.50423e-10
9.49521e-10
9.48618e-10
9.47713e-10
9.46806e-10
9.45898e-10
9.44989e-10
9.44077e-10
9.43164e-10
9.42249e-10
9.41332e-10
9.40414e-10
9.39493e-10
9.38571e-10
9.37647e-10
9.36721e-10
9.35793e-10
9.34863e-10
9.33931e-10
9.32997e-10
9.32061e-10
9.31123e-10
9.30183e-10
9.29241e-10
9.28297e-10
9.27351e-10
9.26403e-10
9.25452e-10
9.245e-10
9.23546e-10
9.22589e-10
9.2163e-10
9.2067e-10
9.19707e-10
9.18742e-10
9.17775e-10
9.16806e-10
9.15834e-10
9.14861e-10
9.13885e-10
9.12907e-10
9.11927e-10
9.10945e-10
9.09961e-10
9.08974e-10
9.07986e-10
9.06995e-10
9.06003e-10
9.05008e-10
9.04011e-10
9.03013e-10
9.02012e-10
9.01009e-10
9.00004e-10
8.98997e-10
8.97988e-10
8.96977e-10
8.95964e-10
8.94948e-10
8.93931e-10
8.92912e-10
8.9189e-10
8.90866e-10
8.8984e-10
8.88812e-10
8.87782e-10
8.86749e-10
8.85714e-10
8.84676e-10
8.83636e-10
8.82592e-10
8.81546e-10
8.80496e-10
8.79443e-10
8.78386e-10
8.77325e-10
8.7626e-10
8.7519e-10
8.74116e-10
8.73036e-10
8.71951e-10
8.70861e-10
8.69765e-10
8.68663e-10
8.67556e-10
8.66442e-10
8.65323e-10
8.64197e-10
8.63066e-10
8.6193e-10
8.60788e-10
8.59641e-10
8.5849e-10
8.57334e-10
8.56176e-10
8.55014e-10
8.5385e-10
8.52685e-10
8.51518e-10
8.50352e-10
8.49187e-10
8.48023e-10
8.46861e-10
8.45703e-10
8.44548e-10
8.43397e-10
8.42252e-10
8.41111e-10
8.39977e-10
8.38849e-10
8.37727e-10
8.36611e-10
8.35501e-10
8.34398e-10
8.33299e-10
8.32206e-10
8.31117e-10
8.30032e-10
8.2895e-10
8.2787e-10
8.2679e-10
8.25711e-10
8.24632e-10
8.2355e-10
8.22466e-10
8.21379e-10
8.20287e-10
8.1919e-10
8.18088e-10
8.1698e-10
8.15866e-10
8.14745e-10
8.13617e-10
8.12482e-10
8.11339e-10
8.1019e-10
8.09033e-10
8.0787e-10
8.06699e-10
8.05522e-10
8.04339e-10
8.03149e-10
8.01953e-10
8.00752e-10
7.99545e-10
7.98333e-10
7.97116e-10
7.95894e-10
7.94668e-10
7.93438e-10
7.92203e-10
7.90964e-10
7.89721e-10
7.88474e-10
7.87224e-10
7.85969e-10
7.84711e-10
7.83449e-10
7.82184e-10
7.80914e-10
7.79641e-10
7.78364e-10
7.77083e-10
7.75798e-10
7.74509e-10
7.73216e-10
7.71919e-10
7.70618e-10
7.69312e-10
7.68002e-10
7.66687e-10
7.65368e-10
7.64044e-10
7.62715e-10
7.61381e-10
7.60043e-10
7.58699e-10
7.57351e-10
7.55997e-10
7.54638e-10
7.53273e-10
7.51903e-10
7.50527e-10
7.49146e-10
7.47759e-10
7.46367e-10
7.44968e-10
7.43564e-10
7.42154e-10
7.40738e-10
7.39315e-10
7.37886e-10
7.36451e-10
7.3501e-10
7.33562e-10
7.32108e-10
7.30647e-10
7.29179e-10
7.27705e-10
7.26224e-10
7.24736e-10
7.23242e-10
7.21741e-10
7.20232e-10
7.18717e-10
7.17194e-10
7.15664e-10
7.14127e-10
7.12584e-10
7.11033e-10
7.09475e-10
7.07909e-10
7.06337e-10
7.04757e-10
7.03171e-10
7.01578e-10
6.99978e-10
6.98372e-10
6.9676e-10
6.95141e-10
6.93517e-10
6.91887e-10
6.90254e-10
6.88616e-10
6.86975e-10
6.85332e-10
6.83688e-10
6.82043e-10
6.80401e-10
6.78762e-10
6.77129e-10
6.75504e-10
6.7389e-10
6.7229e-10
6.70707e-10
6.69147e-10
6.67612e-10
6.6611e-10
6.64643e-10
6.63217e-10
6.61839e-10
6.60512e-10
6.59244e-10
6.58039e-10
6.56902e-10
6.55835e-10
6.54844e-10
6.53928e-10
6.5309e-10
6.52331e-10
6.51648e-10
6.51038e-10
6.50501e-10
6.50027e-10
6.49615e-10
6.49259e-10
6.48949e-10
6.48677e-10
6.48433e-10
6.48197e-10
6.47945e-10
6.47637e-10
6.47205e-10
6.4653e-10
6.45402e-10
6.43454e-10
6.40047e-10
6.34098e-10
6.23843e-10
6.06653e-10
5.79207e-10
5.38709e-10
4.85527e-10
4.25714e-10
3.69528e-10
3.25424e-10
2.95692e-10
2.77746e-10
2.67654e-10
2.62204e-10
2.59325e-10
2.57819e-10
2.57033e-10
2.5662e-10
2.56401e-10
2.56281e-10
2.56213e-10
2.56172e-10
2.56145e-10
2.56127e-10
2.56112e-10
2.56101e-10
2.56091e-10
2.56083e-10
2.56077e-10
2.56073e-10
2.5607e-10
2.56069e-10
2.56068e-10
2.56069e-10
2.5607e-10
2.56074e-10
2.56079e-10
2.56086e-10
2.56094e-10
2.56103e-10
2.56113e-10
2.56124e-10
2.56135e-10
2.56148e-10
2.56161e-10
2.56175e-10
2.56189e-10
2.56203e-10
2.56218e-10
2.56233e-10
2.56248e-10
2.56262e-10
2.56277e-10
2.56291e-10
2.56304e-10
2.56318e-10
2.5633e-10
2.56343e-10
2.56354e-10
2.56365e-10
2.56376e-10
2.56385e-10
2.56394e-10
2.56403e-10
2.56411e-10
2.56418e-10
2.56425e-10
2.56431e-10
2.56436e-10
2.56441e-10
2.56446e-10
2.5645e-10
2.56454e-10
2.56457e-10
2.56461e-10
2.56463e-10
2.56466e-10
2.56469e-10
2.56471e-10
2.56473e-10
2.56475e-10
2.56477e-10
2.56479e-10
2.56481e-10
2.56483e-10
2.56485e-10
2.56486e-10
2.56488e-10
2.5649e-10
2.56492e-10
2.56494e-10
2.56496e-10
2.56498e-10
2.565e-10
2.56503e-10
2.56505e-10
2.56507e-10
2.5651e-10
2.56512e-10
2.56514e-10
2.56517e-10
2.5652e-10
2.56522e-10
2.56525e-10
2.56527e-10
2.5653e-10
2.56533e-10
2.56535e-10
2.56538e-10
2.5654e-10
2.56543e-10
2.56546e-10
2.56548e-10
2.56551e-10
2.56553e-10
2.56556e-10
2.56558e-10
2.56561e-10
2.56563e-10
2.56566e-10
2.56568e-10
2.5657e-10
2.56572e-10
2.56575e-10
2.56577e-10
2.56579e-10
2.56581e-10
2.56583e-10
2.56585e-10
2.56586e-10
2.56588e-10
2.5659e-10
2.56591e-10
2.56593e-10
2.56594e-10
2.56596e-10
2.56597e-10
2.56598e-10
2.56599e-10
2.56601e-10
2.56601e-10
2.56602e-10
2.56603e-10
2.56604e-10
2.56604e-10
2.56605e-10
2.56605e-10
2.56606e-10
2.56606e-10
2.56606e-10
2.56606e-10
2.56607e-10
2.56606e-10
2.56606e-10
2.56606e-10
2.56606e-10
2.56605e-10
2.56605e-10
2.56604e-10
2.56603e-10
2.56602e-10
2.56601e-10
2.566e-10
2.56599e-10
2.56598e-10
2.56597e-10
2.56596e-10
2.56594e-10
2.56593e-10
2.56592e-10
2.5659e-10
2.56588e-10
2.56586e-10
2.56585e-10
2.56583e-10
2.56581e-10
2.56578e-10
2.56576e-10
2.56574e-10
2.56571e-10
2.56569e-10
2.56566e-10
2.56563e-10
2.5656e-10
2.56557e-10
2.56554e-10
2.5655e-10
2.56546e-10
2.56542e-10
2.56538e-10
2.56533e-10
2.56529e-10
2.56524e-10
2.56518e-10
2.56512e-10
2.56506e-10
2.565e-10
2.56493e-10
2.56486e-10
2.56478e-10
2.5647e-10
2.56461e-10
2.56452e-10
2.56443e-10
2.56433e-10
2.56422e-10
2.56412e-10
2.564e-10
2.56389e-10
2.56377e-10
2.56364e-10
2.56351e-10
2.56338e-10
2.56324e-10
2.56311e-10
2.56297e-10
2.56283e-10
2.56268e-10
2.56254e-10
2.5624e-10
2.56226e-10
2.56212e-10
2.56199e-10
2.56186e-10
2.56173e-10
2.5616e-10
2.56149e-10
2.56137e-10
2.56127e-10
2.56117e-10
2.56108e-10
2.561e-10
2.56093e-10
2.56087e-10
2.56082e-10
2.56077e-10
2.56074e-10
2.56072e-10
2.56071e-10
2.56071e-10
2.56071e-10
2.56072e-10
2.56074e-10
2.56078e-10
2.56084e-10
2.5609e-10
2.56097e-10
2.56105e-10
2.56114e-10
2.56124e-10
2.56134e-10
2.56145e-10
2.56157e-10
2.56169e-10
2.56181e-10
2.56193e-10
2.56206e-10
2.56219e-10
2.56232e-10
2.56244e-10
2.56257e-10
2.5627e-10
2.56282e-10
2.56294e-10
2.56306e-10
2.56317e-10
2.56328e-10
2.56338e-10
2.56348e-10
2.56358e-10
2.56367e-10
2.56376e-10
2.56384e-10
2.56392e-10
2.56399e-10
2.56406e-10
2.56412e-10
2.56418e-10
2.56424e-10
2.56429e-10
2.56434e-10
2.56439e-10
2.56443e-10
2.56447e-10
2.56451e-10
2.56454e-10
2.56458e-10
2.56461e-10
2.56464e-10
2.56467e-10
2.5647e-10
2.56473e-10
2.56476e-10
2.56479e-10
2.56481e-10
2.56484e-10
2.56486e-10
2.56489e-10
2.56492e-10
2.56494e-10
2.56497e-10
2.56499e-10
2.56502e-10
2.56505e-10
2.56507e-10
2.5651e-10
2.56513e-10
2.56515e-10
2.56518e-10
2.56521e-10
2.56523e-10
2.56526e-10
2.56529e-10
2.56531e-10
2.56534e-10
2.56537e-10
2.5654e-10
2.56542e-10
2.56545e-10
2.56547e-10
2.5655e-10
2.56553e-10
2.56555e-10
2.56558e-10
2.5656e-10
2.56563e-10
2.56565e-10
2.56568e-10
2.5657e-10
2.56572e-10
2.56575e-10
2.56577e-10
2.56579e-10
2.56581e-10
2.56583e-10
2.56585e-10
2.56587e-10
2.56589e-10
2.5659e-10
2.56592e-10
2.56594e-10
2.56595e-10
2.56597e-10
2.56598e-10
2.56599e-10
2.566e-10
2.56602e-10
2.56603e-10
2.56604e-10
2.56604e-10
2.56605e-10
2.56606e-10
2.56606e-10
2.56607e-10
2.56607e-10
2.56608e-10
2.56608e-10
2.56608e-10
2.56608e-10
2.56608e-10
2.56608e-10
2.56608e-10
2.56608e-10
2.56607e-10
2.56607e-10
2.56606e-10
2.56606e-10
2.56605e-10
2.56604e-10
2.56603e-10
2.56602e-10
2.56601e-10
2.566e-10
2.56599e-10
2.56597e-10
)
;

boundaryField
{
    inlet
    {
        type            calculated;
        value           uniform -1.13622e-09;
    }
    outlet
    {
        type            calculated;
        value           uniform 2.56596e-10;
    }
    emptyWalls
    {
        type            empty;
        value           nonuniform List<scalar> 0();
    }
}


// ************************************************************************* //
