/*--------------------------------*- C++ -*----------------------------------*\
  =========                 |
  \\      /  F ield         | OpenFOAM: The Open Source CFD Toolbox
   \\    /   O peration     | Website:  https://openfoam.org
    \\  /    A nd           | Version:  9
     \\/     M anipulation  |
\*---------------------------------------------------------------------------*/
FoamFile
{
    format      ascii;
    class       volVectorField;
    location    "15700";
    object      Ua;
}
// * * * * * * * * * * * * * * * * * * * * * * * * * * * * * * * * * * * * * //

dimensions      [0 0 0 0 0 0 0];

internalField   nonuniform List<vector> 
1000
(
(2.7491e-06 0 0)
(2.7489e-06 0 0)
(2.74871e-06 0 0)
(2.74833e-06 0 0)
(2.74781e-06 0 0)
(2.74713e-06 0 0)
(2.74635e-06 0 0)
(2.7455e-06 0 0)
(2.74463e-06 0 0)
(2.74361e-06 0 0)
(2.74261e-06 0 0)
(2.74152e-06 0 0)
(2.74039e-06 0 0)
(2.73945e-06 0 0)
(2.73841e-06 0 0)
(2.73762e-06 0 0)
(2.73679e-06 0 0)
(2.73589e-06 0 0)
(2.73446e-06 0 0)
(2.73008e-06 0 0)
(2.71444e-06 0 0)
(2.62896e-06 0 0)
(2.38029e-06 0 0)
(2.17259e-06 0 0)
(2.13085e-06 0 0)
(2.11663e-06 0 0)
(2.10922e-06 0 0)
(2.1044e-06 0 0)
(2.10066e-06 0 0)
(2.09771e-06 0 0)
(2.09617e-06 0 0)
(2.09685e-06 0 0)
(2.09993e-06 0 0)
(2.10455e-06 0 0)
(2.10915e-06 0 0)
(2.11225e-06 0 0)
(2.11318e-06 0 0)
(2.11233e-06 0 0)
(2.11069e-06 0 0)
(2.10879e-06 0 0)
(2.10537e-06 0 0)
(2.09952e-06 0 0)
(2.09229e-06 0 0)
(2.08489e-06 0 0)
(2.07791e-06 0 0)
(2.07164e-06 0 0)
(2.06644e-06 0 0)
(2.06232e-06 0 0)
(2.05919e-06 0 0)
(2.05702e-06 0 0)
(2.05563e-06 0 0)
(2.05484e-06 0 0)
(2.05447e-06 0 0)
(2.05436e-06 0 0)
(2.05437e-06 0 0)
(2.05439e-06 0 0)
(2.05433e-06 0 0)
(2.05418e-06 0 0)
(2.05394e-06 0 0)
(2.05365e-06 0 0)
(2.05334e-06 0 0)
(2.05304e-06 0 0)
(2.05268e-06 0 0)
(2.05225e-06 0 0)
(2.05176e-06 0 0)
(2.05121e-06 0 0)
(2.05064e-06 0 0)
(2.05005e-06 0 0)
(2.04944e-06 0 0)
(2.04882e-06 0 0)
(2.04821e-06 0 0)
(2.04759e-06 0 0)
(2.04698e-06 0 0)
(2.04638e-06 0 0)
(2.04578e-06 0 0)
(2.04519e-06 0 0)
(2.04462e-06 0 0)
(2.04405e-06 0 0)
(2.04349e-06 0 0)
(2.04295e-06 0 0)
(2.04241e-06 0 0)
(2.04189e-06 0 0)
(2.04138e-06 0 0)
(2.04088e-06 0 0)
(2.0404e-06 0 0)
(2.03992e-06 0 0)
(2.03947e-06 0 0)
(2.03902e-06 0 0)
(2.03859e-06 0 0)
(2.03817e-06 0 0)
(2.03777e-06 0 0)
(2.03738e-06 0 0)
(2.037e-06 0 0)
(2.03664e-06 0 0)
(2.03629e-06 0 0)
(2.03596e-06 0 0)
(2.03564e-06 0 0)
(2.03534e-06 0 0)
(2.03505e-06 0 0)
(2.03477e-06 0 0)
(2.03451e-06 0 0)
(2.03426e-06 0 0)
(2.03402e-06 0 0)
(2.0338e-06 0 0)
(2.0336e-06 0 0)
(2.0334e-06 0 0)
(2.03323e-06 0 0)
(2.03307e-06 0 0)
(2.03292e-06 0 0)
(2.0328e-06 0 0)
(2.03268e-06 0 0)
(2.03259e-06 0 0)
(2.0325e-06 0 0)
(2.03241e-06 0 0)
(2.03233e-06 0 0)
(2.03225e-06 0 0)
(2.03217e-06 0 0)
(2.03208e-06 0 0)
(2.03198e-06 0 0)
(2.03189e-06 0 0)
(2.0318e-06 0 0)
(2.03171e-06 0 0)
(2.03164e-06 0 0)
(2.03159e-06 0 0)
(2.03155e-06 0 0)
(2.03154e-06 0 0)
(2.03154e-06 0 0)
(2.03154e-06 0 0)
(2.03155e-06 0 0)
(2.03154e-06 0 0)
(2.03151e-06 0 0)
(2.03147e-06 0 0)
(2.03143e-06 0 0)
(2.0314e-06 0 0)
(2.03143e-06 0 0)
(2.03153e-06 0 0)
(2.03175e-06 0 0)
(2.03213e-06 0 0)
(2.0327e-06 0 0)
(2.03347e-06 0 0)
(2.03446e-06 0 0)
(2.03566e-06 0 0)
(2.03708e-06 0 0)
(2.03868e-06 0 0)
(2.04046e-06 0 0)
(2.04237e-06 0 0)
(2.04438e-06 0 0)
(2.04644e-06 0 0)
(2.04851e-06 0 0)
(2.05053e-06 0 0)
(2.05244e-06 0 0)
(2.05418e-06 0 0)
(2.05568e-06 0 0)
(2.05689e-06 0 0)
(2.05774e-06 0 0)
(2.0582e-06 0 0)
(2.05823e-06 0 0)
(2.05781e-06 0 0)
(2.05694e-06 0 0)
(2.05564e-06 0 0)
(2.05395e-06 0 0)
(2.05191e-06 0 0)
(2.04961e-06 0 0)
(2.0471e-06 0 0)
(2.04448e-06 0 0)
(2.04181e-06 0 0)
(2.03917e-06 0 0)
(2.03663e-06 0 0)
(2.03423e-06 0 0)
(2.03203e-06 0 0)
(2.03005e-06 0 0)
(2.0283e-06 0 0)
(2.0268e-06 0 0)
(2.02553e-06 0 0)
(2.02448e-06 0 0)
(2.02363e-06 0 0)
(2.02297e-06 0 0)
(2.02245e-06 0 0)
(2.02205e-06 0 0)
(2.02175e-06 0 0)
(2.02152e-06 0 0)
(2.02133e-06 0 0)
(2.02117e-06 0 0)
(2.02102e-06 0 0)
(2.02086e-06 0 0)
(2.02069e-06 0 0)
(2.02049e-06 0 0)
(2.02026e-06 0 0)
(2.02e-06 0 0)
(2.0197e-06 0 0)
(2.01937e-06 0 0)
(2.019e-06 0 0)
(2.0186e-06 0 0)
(2.01818e-06 0 0)
(2.01773e-06 0 0)
(2.01726e-06 0 0)
(2.01677e-06 0 0)
(2.01627e-06 0 0)
(2.01576e-06 0 0)
(2.01524e-06 0 0)
(2.01471e-06 0 0)
(2.01418e-06 0 0)
(2.01364e-06 0 0)
(2.01311e-06 0 0)
(2.01258e-06 0 0)
(2.01205e-06 0 0)
(2.01152e-06 0 0)
(2.011e-06 0 0)
(2.01048e-06 0 0)
(2.00997e-06 0 0)
(2.00947e-06 0 0)
(2.00897e-06 0 0)
(2.00848e-06 0 0)
(2.008e-06 0 0)
(2.00753e-06 0 0)
(2.00706e-06 0 0)
(2.0066e-06 0 0)
(2.00615e-06 0 0)
(2.00571e-06 0 0)
(2.00528e-06 0 0)
(2.00486e-06 0 0)
(2.00444e-06 0 0)
(2.00404e-06 0 0)
(2.00364e-06 0 0)
(2.00326e-06 0 0)
(2.00288e-06 0 0)
(2.00251e-06 0 0)
(2.00216e-06 0 0)
(2.00181e-06 0 0)
(2.00147e-06 0 0)
(2.00114e-06 0 0)
(2.00082e-06 0 0)
(2.00051e-06 0 0)
(2.0002e-06 0 0)
(1.99991e-06 0 0)
(1.99963e-06 0 0)
(1.99936e-06 0 0)
(1.99909e-06 0 0)
(1.99884e-06 0 0)
(1.99859e-06 0 0)
(1.99836e-06 0 0)
(1.99813e-06 0 0)
(1.99792e-06 0 0)
(1.99771e-06 0 0)
(1.99751e-06 0 0)
(1.99732e-06 0 0)
(1.99714e-06 0 0)
(1.99696e-06 0 0)
(1.99679e-06 0 0)
(1.99662e-06 0 0)
(1.99646e-06 0 0)
(1.9963e-06 0 0)
(1.99615e-06 0 0)
(1.99599e-06 0 0)
(1.99585e-06 0 0)
(1.9957e-06 0 0)
(1.99556e-06 0 0)
(1.99542e-06 0 0)
(1.99529e-06 0 0)
(1.99516e-06 0 0)
(1.99504e-06 0 0)
(1.99492e-06 0 0)
(1.9948e-06 0 0)
(1.99469e-06 0 0)
(1.99458e-06 0 0)
(1.99448e-06 0 0)
(1.99437e-06 0 0)
(1.99428e-06 0 0)
(1.99419e-06 0 0)
(1.99411e-06 0 0)
(1.99405e-06 0 0)
(1.99401e-06 0 0)
(1.994e-06 0 0)
(1.99402e-06 0 0)
(1.99408e-06 0 0)
(1.9942e-06 0 0)
(1.99438e-06 0 0)
(1.99464e-06 0 0)
(1.99497e-06 0 0)
(1.99538e-06 0 0)
(1.99589e-06 0 0)
(1.99649e-06 0 0)
(1.99719e-06 0 0)
(1.99798e-06 0 0)
(1.99887e-06 0 0)
(1.99984e-06 0 0)
(2.0009e-06 0 0)
(2.00202e-06 0 0)
(2.0032e-06 0 0)
(2.00442e-06 0 0)
(2.00567e-06 0 0)
(2.00692e-06 0 0)
(2.00815e-06 0 0)
(2.00934e-06 0 0)
(2.01047e-06 0 0)
(2.0115e-06 0 0)
(2.01243e-06 0 0)
(2.01321e-06 0 0)
(2.01384e-06 0 0)
(2.01429e-06 0 0)
(2.01455e-06 0 0)
(2.01461e-06 0 0)
(2.01445e-06 0 0)
(2.01408e-06 0 0)
(2.01349e-06 0 0)
(2.01269e-06 0 0)
(2.0117e-06 0 0)
(2.01054e-06 0 0)
(2.00921e-06 0 0)
(2.00775e-06 0 0)
(2.00619e-06 0 0)
(2.00454e-06 0 0)
(2.00284e-06 0 0)
(2.00112e-06 0 0)
(1.99939e-06 0 0)
(1.9977e-06 0 0)
(1.99605e-06 0 0)
(1.99447e-06 0 0)
(1.99297e-06 0 0)
(1.99156e-06 0 0)
(1.99025e-06 0 0)
(1.98904e-06 0 0)
(1.98794e-06 0 0)
(1.98694e-06 0 0)
(1.98604e-06 0 0)
(1.98524e-06 0 0)
(1.98453e-06 0 0)
(1.98389e-06 0 0)
(1.98332e-06 0 0)
(1.98282e-06 0 0)
(1.98236e-06 0 0)
(1.98195e-06 0 0)
(1.98157e-06 0 0)
(1.98122e-06 0 0)
(1.98089e-06 0 0)
(1.98057e-06 0 0)
(1.98025e-06 0 0)
(1.97994e-06 0 0)
(1.97962e-06 0 0)
(1.97929e-06 0 0)
(1.97896e-06 0 0)
(1.97861e-06 0 0)
(1.97826e-06 0 0)
(1.97789e-06 0 0)
(1.9775e-06 0 0)
(1.97711e-06 0 0)
(1.9767e-06 0 0)
(1.97628e-06 0 0)
(1.97585e-06 0 0)
(1.9754e-06 0 0)
(1.97495e-06 0 0)
(1.97449e-06 0 0)
(1.97402e-06 0 0)
(1.97355e-06 0 0)
(1.97307e-06 0 0)
(1.97259e-06 0 0)
(1.97211e-06 0 0)
(1.97163e-06 0 0)
(1.97114e-06 0 0)
(1.97065e-06 0 0)
(1.97017e-06 0 0)
(1.96969e-06 0 0)
(1.9692e-06 0 0)
(1.96873e-06 0 0)
(1.96825e-06 0 0)
(1.96778e-06 0 0)
(1.96731e-06 0 0)
(1.96684e-06 0 0)
(1.96638e-06 0 0)
(1.96593e-06 0 0)
(1.96548e-06 0 0)
(1.96504e-06 0 0)
(1.9646e-06 0 0)
(1.96417e-06 0 0)
(1.96374e-06 0 0)
(1.96332e-06 0 0)
(1.9629e-06 0 0)
(1.9625e-06 0 0)
(1.9621e-06 0 0)
(1.9617e-06 0 0)
(1.96131e-06 0 0)
(1.96093e-06 0 0)
(1.96056e-06 0 0)
(1.96019e-06 0 0)
(1.95983e-06 0 0)
(1.95948e-06 0 0)
(1.95913e-06 0 0)
(1.95879e-06 0 0)
(1.95846e-06 0 0)
(1.95813e-06 0 0)
(1.95781e-06 0 0)
(1.9575e-06 0 0)
(1.9572e-06 0 0)
(1.9569e-06 0 0)
(1.95661e-06 0 0)
(1.95632e-06 0 0)
(1.95605e-06 0 0)
(1.95578e-06 0 0)
(1.95551e-06 0 0)
(1.95526e-06 0 0)
(1.95501e-06 0 0)
(1.95476e-06 0 0)
(1.95453e-06 0 0)
(1.95429e-06 0 0)
(1.95407e-06 0 0)
(1.95385e-06 0 0)
(1.95363e-06 0 0)
(1.95342e-06 0 0)
(1.95321e-06 0 0)
(1.95301e-06 0 0)
(1.95281e-06 0 0)
(1.95261e-06 0 0)
(1.95242e-06 0 0)
(1.95224e-06 0 0)
(1.95205e-06 0 0)
(1.95188e-06 0 0)
(1.9517e-06 0 0)
(1.95153e-06 0 0)
(1.95136e-06 0 0)
(1.9512e-06 0 0)
(1.95103e-06 0 0)
(1.95088e-06 0 0)
(1.95073e-06 0 0)
(1.95058e-06 0 0)
(1.95044e-06 0 0)
(1.95031e-06 0 0)
(1.95018e-06 0 0)
(1.95007e-06 0 0)
(1.94996e-06 0 0)
(1.94987e-06 0 0)
(1.9498e-06 0 0)
(1.94974e-06 0 0)
(1.94971e-06 0 0)
(1.9497e-06 0 0)
(1.94972e-06 0 0)
(1.94977e-06 0 0)
(1.94985e-06 0 0)
(1.94998e-06 0 0)
(1.95014e-06 0 0)
(1.95035e-06 0 0)
(1.95061e-06 0 0)
(1.95091e-06 0 0)
(1.95127e-06 0 0)
(1.95168e-06 0 0)
(1.95214e-06 0 0)
(1.95265e-06 0 0)
(1.95321e-06 0 0)
(1.95382e-06 0 0)
(1.95448e-06 0 0)
(1.95517e-06 0 0)
(1.9559e-06 0 0)
(1.95666e-06 0 0)
(1.95744e-06 0 0)
(1.95823e-06 0 0)
(1.95903e-06 0 0)
(1.95983e-06 0 0)
(1.96061e-06 0 0)
(1.96137e-06 0 0)
(1.9621e-06 0 0)
(1.96278e-06 0 0)
(1.9634e-06 0 0)
(1.96396e-06 0 0)
(1.96443e-06 0 0)
(1.96483e-06 0 0)
(1.96512e-06 0 0)
(1.96531e-06 0 0)
(1.96539e-06 0 0)
(1.96536e-06 0 0)
(1.96521e-06 0 0)
(1.96493e-06 0 0)
(1.96454e-06 0 0)
(1.96402e-06 0 0)
(1.96339e-06 0 0)
(1.96265e-06 0 0)
(1.9618e-06 0 0)
(1.96086e-06 0 0)
(1.95984e-06 0 0)
(1.95873e-06 0 0)
(1.95757e-06 0 0)
(1.95636e-06 0 0)
(1.9551e-06 0 0)
(1.95382e-06 0 0)
(1.95253e-06 0 0)
(1.95123e-06 0 0)
(1.94995e-06 0 0)
(1.94868e-06 0 0)
(1.94744e-06 0 0)
(1.94623e-06 0 0)
(1.94507e-06 0 0)
(1.94395e-06 0 0)
(1.94288e-06 0 0)
(1.94186e-06 0 0)
(1.9409e-06 0 0)
(1.93999e-06 0 0)
(1.93914e-06 0 0)
(1.93833e-06 0 0)
(1.93758e-06 0 0)
(1.93687e-06 0 0)
(1.93621e-06 0 0)
(1.93559e-06 0 0)
(1.935e-06 0 0)
(1.93445e-06 0 0)
(1.93392e-06 0 0)
(1.93342e-06 0 0)
(1.93294e-06 0 0)
(1.93248e-06 0 0)
(1.93203e-06 0 0)
(1.93159e-06 0 0)
(1.93116e-06 0 0)
(1.93074e-06 0 0)
(1.93031e-06 0 0)
(1.92989e-06 0 0)
(1.92947e-06 0 0)
(1.92905e-06 0 0)
(1.92862e-06 0 0)
(1.92819e-06 0 0)
(1.92776e-06 0 0)
(1.92731e-06 0 0)
(1.92687e-06 0 0)
(1.92642e-06 0 0)
(1.92596e-06 0 0)
(1.92549e-06 0 0)
(1.92503e-06 0 0)
(1.92455e-06 0 0)
(1.92407e-06 0 0)
(1.92359e-06 0 0)
(1.92311e-06 0 0)
(1.92262e-06 0 0)
(1.92212e-06 0 0)
(1.92163e-06 0 0)
(1.92113e-06 0 0)
(1.92064e-06 0 0)
(1.92014e-06 0 0)
(1.91964e-06 0 0)
(1.91914e-06 0 0)
(1.91865e-06 0 0)
(1.91815e-06 0 0)
(1.91766e-06 0 0)
(1.91717e-06 0 0)
(1.91668e-06 0 0)
(1.91619e-06 0 0)
(1.9157e-06 0 0)
(1.91522e-06 0 0)
(1.91474e-06 0 0)
(1.91427e-06 0 0)
(1.9138e-06 0 0)
(1.91333e-06 0 0)
(1.91287e-06 0 0)
(1.91241e-06 0 0)
(1.91196e-06 0 0)
(1.91151e-06 0 0)
(1.91106e-06 0 0)
(1.91062e-06 0 0)
(1.91018e-06 0 0)
(1.90975e-06 0 0)
(1.90933e-06 0 0)
(1.90891e-06 0 0)
(1.90849e-06 0 0)
(1.90808e-06 0 0)
(1.90767e-06 0 0)
(1.90727e-06 0 0)
(1.90688e-06 0 0)
(1.90649e-06 0 0)
(1.9061e-06 0 0)
(1.90572e-06 0 0)
(1.90535e-06 0 0)
(1.90498e-06 0 0)
(1.90462e-06 0 0)
(1.90426e-06 0 0)
(1.9039e-06 0 0)
(1.90355e-06 0 0)
(1.90321e-06 0 0)
(1.90287e-06 0 0)
(1.90254e-06 0 0)
(1.90221e-06 0 0)
(1.90189e-06 0 0)
(1.90157e-06 0 0)
(1.90126e-06 0 0)
(1.90095e-06 0 0)
(1.90065e-06 0 0)
(1.90035e-06 0 0)
(1.90005e-06 0 0)
(1.89977e-06 0 0)
(1.89948e-06 0 0)
(1.8992e-06 0 0)
(1.89893e-06 0 0)
(1.89866e-06 0 0)
(1.8984e-06 0 0)
(1.89814e-06 0 0)
(1.89789e-06 0 0)
(1.89765e-06 0 0)
(1.89741e-06 0 0)
(1.89718e-06 0 0)
(1.89696e-06 0 0)
(1.89675e-06 0 0)
(1.89655e-06 0 0)
(1.89636e-06 0 0)
(1.89618e-06 0 0)
(1.89602e-06 0 0)
(1.89587e-06 0 0)
(1.89574e-06 0 0)
(1.89563e-06 0 0)
(1.89554e-06 0 0)
(1.89547e-06 0 0)
(1.89542e-06 0 0)
(1.89538e-06 0 0)
(1.89539e-06 0 0)
(1.89541e-06 0 0)
(1.89545e-06 0 0)
(1.89554e-06 0 0)
(1.89564e-06 0 0)
(1.89577e-06 0 0)
(1.89594e-06 0 0)
(1.89613e-06 0 0)
(1.89635e-06 0 0)
(1.89662e-06 0 0)
(1.8969e-06 0 0)
(1.89721e-06 0 0)
(1.89755e-06 0 0)
(1.89791e-06 0 0)
(1.89828e-06 0 0)
(1.89864e-06 0 0)
(1.89897e-06 0 0)
(1.8992e-06 0 0)
(1.89925e-06 0 0)
(1.89896e-06 0 0)
(1.89807e-06 0 0)
(1.8962e-06 0 0)
(1.89295e-06 0 0)
(1.88804e-06 0 0)
(1.88179e-06 0 0)
(1.87533e-06 0 0)
(1.87009e-06 0 0)
(1.86686e-06 0 0)
(1.8654e-06 0 0)
(1.86506e-06 0 0)
(1.8653e-06 0 0)
(1.86581e-06 0 0)
(1.86646e-06 0 0)
(1.86715e-06 0 0)
(1.86786e-06 0 0)
(1.86858e-06 0 0)
(1.8693e-06 0 0)
(1.86999e-06 0 0)
(1.87066e-06 0 0)
(1.87129e-06 0 0)
(1.8719e-06 0 0)
(1.87246e-06 0 0)
(1.87298e-06 0 0)
(1.87346e-06 0 0)
(1.87388e-06 0 0)
(1.87425e-06 0 0)
(1.87456e-06 0 0)
(1.8748e-06 0 0)
(1.87497e-06 0 0)
(1.87507e-06 0 0)
(1.8751e-06 0 0)
(1.87511e-06 0 0)
(1.87509e-06 0 0)
(1.87497e-06 0 0)
(1.87474e-06 0 0)
(1.87445e-06 0 0)
(1.8741e-06 0 0)
(1.87371e-06 0 0)
(1.87326e-06 0 0)
(1.87277e-06 0 0)
(1.87223e-06 0 0)
(1.87166e-06 0 0)
(1.87104e-06 0 0)
(1.8704e-06 0 0)
(1.86974e-06 0 0)
(1.86905e-06 0 0)
(1.86835e-06 0 0)
(1.86765e-06 0 0)
(1.86694e-06 0 0)
(1.86623e-06 0 0)
(1.86553e-06 0 0)
(1.86483e-06 0 0)
(1.86416e-06 0 0)
(1.8635e-06 0 0)
(1.86286e-06 0 0)
(1.86224e-06 0 0)
(1.86165e-06 0 0)
(1.86108e-06 0 0)
(1.86055e-06 0 0)
(1.86004e-06 0 0)
(1.85956e-06 0 0)
(1.85911e-06 0 0)
(1.85869e-06 0 0)
(1.85829e-06 0 0)
(1.85793e-06 0 0)
(1.85759e-06 0 0)
(1.85727e-06 0 0)
(1.85698e-06 0 0)
(1.85671e-06 0 0)
(1.85646e-06 0 0)
(1.85623e-06 0 0)
(1.85602e-06 0 0)
(1.85582e-06 0 0)
(1.85564e-06 0 0)
(1.85546e-06 0 0)
(1.8553e-06 0 0)
(1.85515e-06 0 0)
(1.85501e-06 0 0)
(1.85487e-06 0 0)
(1.85474e-06 0 0)
(1.85461e-06 0 0)
(1.85448e-06 0 0)
(1.85436e-06 0 0)
(1.85424e-06 0 0)
(1.85412e-06 0 0)
(1.854e-06 0 0)
(1.85388e-06 0 0)
(1.85376e-06 0 0)
(1.85364e-06 0 0)
(1.85351e-06 0 0)
(1.85339e-06 0 0)
(1.85327e-06 0 0)
(1.85314e-06 0 0)
(1.85301e-06 0 0)
(1.85288e-06 0 0)
(1.85275e-06 0 0)
(1.85262e-06 0 0)
(1.85249e-06 0 0)
(1.85235e-06 0 0)
(1.85222e-06 0 0)
(1.85208e-06 0 0)
(1.85195e-06 0 0)
(1.85181e-06 0 0)
(1.85168e-06 0 0)
(1.85154e-06 0 0)
(1.85141e-06 0 0)
(1.85127e-06 0 0)
(1.85114e-06 0 0)
(1.85101e-06 0 0)
(1.85088e-06 0 0)
(1.85075e-06 0 0)
(1.85063e-06 0 0)
(1.8505e-06 0 0)
(1.85038e-06 0 0)
(1.85026e-06 0 0)
(1.85014e-06 0 0)
(1.85003e-06 0 0)
(1.84991e-06 0 0)
(1.84981e-06 0 0)
(1.8497e-06 0 0)
(1.84959e-06 0 0)
(1.84949e-06 0 0)
(1.8494e-06 0 0)
(1.8493e-06 0 0)
(1.84921e-06 0 0)
(1.84913e-06 0 0)
(1.84904e-06 0 0)
(1.84896e-06 0 0)
(1.84889e-06 0 0)
(1.84881e-06 0 0)
(1.84874e-06 0 0)
(1.84868e-06 0 0)
(1.84862e-06 0 0)
(1.84856e-06 0 0)
(1.84851e-06 0 0)
(1.84846e-06 0 0)
(1.84841e-06 0 0)
(1.84837e-06 0 0)
(1.84834e-06 0 0)
(1.8483e-06 0 0)
(1.84828e-06 0 0)
(1.84825e-06 0 0)
(1.84823e-06 0 0)
(1.84822e-06 0 0)
(1.8482e-06 0 0)
(1.8482e-06 0 0)
(1.84819e-06 0 0)
(1.84819e-06 0 0)
(1.84819e-06 0 0)
(1.84819e-06 0 0)
(1.84821e-06 0 0)
(1.84822e-06 0 0)
(1.84824e-06 0 0)
(1.84827e-06 0 0)
(1.8483e-06 0 0)
(1.84833e-06 0 0)
(1.84836e-06 0 0)
(1.8484e-06 0 0)
(1.84844e-06 0 0)
(1.84849e-06 0 0)
(1.84854e-06 0 0)
(1.84859e-06 0 0)
(1.84865e-06 0 0)
(1.8487e-06 0 0)
(1.84877e-06 0 0)
(1.84883e-06 0 0)
(1.8489e-06 0 0)
(1.84897e-06 0 0)
(1.84905e-06 0 0)
(1.84913e-06 0 0)
(1.84921e-06 0 0)
(1.8493e-06 0 0)
(1.84939e-06 0 0)
(1.84948e-06 0 0)
(1.84958e-06 0 0)
(1.84968e-06 0 0)
(1.84979e-06 0 0)
(1.84991e-06 0 0)
(1.85002e-06 0 0)
(1.85015e-06 0 0)
(1.85028e-06 0 0)
(1.85042e-06 0 0)
(1.85056e-06 0 0)
(1.85072e-06 0 0)
(1.85088e-06 0 0)
(1.85105e-06 0 0)
(1.85123e-06 0 0)
(1.85143e-06 0 0)
(1.85163e-06 0 0)
(1.85185e-06 0 0)
(1.85208e-06 0 0)
(1.85233e-06 0 0)
(1.85259e-06 0 0)
(1.85287e-06 0 0)
(1.85317e-06 0 0)
(1.85348e-06 0 0)
(1.85381e-06 0 0)
(1.85416e-06 0 0)
(1.85453e-06 0 0)
(1.85492e-06 0 0)
(1.85533e-06 0 0)
(1.85576e-06 0 0)
(1.85621e-06 0 0)
(1.85669e-06 0 0)
(1.85718e-06 0 0)
(1.85769e-06 0 0)
(1.85823e-06 0 0)
(1.85878e-06 0 0)
(1.85935e-06 0 0)
(1.85994e-06 0 0)
(1.86054e-06 0 0)
(1.86116e-06 0 0)
(1.86179e-06 0 0)
(1.86243e-06 0 0)
(1.86308e-06 0 0)
(1.86373e-06 0 0)
(1.86439e-06 0 0)
(1.86505e-06 0 0)
(1.86571e-06 0 0)
(1.86636e-06 0 0)
(1.86701e-06 0 0)
(1.86764e-06 0 0)
(1.86826e-06 0 0)
(1.86886e-06 0 0)
(1.86944e-06 0 0)
(1.87e-06 0 0)
(1.87053e-06 0 0)
(1.87102e-06 0 0)
(1.87149e-06 0 0)
(1.87191e-06 0 0)
(1.8723e-06 0 0)
(1.87264e-06 0 0)
(1.87293e-06 0 0)
(1.87318e-06 0 0)
(1.87338e-06 0 0)
(1.87352e-06 0 0)
(1.87362e-06 0 0)
(1.87366e-06 0 0)
(1.87367e-06 0 0)
(1.87367e-06 0 0)
(1.87363e-06 0 0)
(1.8735e-06 0 0)
(1.87327e-06 0 0)
(1.87301e-06 0 0)
(1.8727e-06 0 0)
(1.87234e-06 0 0)
(1.87194e-06 0 0)
(1.87151e-06 0 0)
(1.87104e-06 0 0)
(1.87054e-06 0 0)
(1.87001e-06 0 0)
(1.86946e-06 0 0)
(1.86889e-06 0 0)
(1.8683e-06 0 0)
(1.8677e-06 0 0)
(1.8671e-06 0 0)
(1.86649e-06 0 0)
(1.86588e-06 0 0)
(1.86527e-06 0 0)
(1.86467e-06 0 0)
(1.86409e-06 0 0)
(1.86351e-06 0 0)
(1.86294e-06 0 0)
(1.8624e-06 0 0)
(1.86187e-06 0 0)
(1.86136e-06 0 0)
(1.86087e-06 0 0)
(1.8604e-06 0 0)
(1.85995e-06 0 0)
(1.85953e-06 0 0)
(1.85913e-06 0 0)
(1.85875e-06 0 0)
(1.85839e-06 0 0)
(1.85806e-06 0 0)
(1.85774e-06 0 0)
(1.85744e-06 0 0)
(1.85716e-06 0 0)
(1.8569e-06 0 0)
(1.85666e-06 0 0)
(1.85643e-06 0 0)
(1.85621e-06 0 0)
(1.85601e-06 0 0)
(1.85582e-06 0 0)
(1.85564e-06 0 0)
(1.85547e-06 0 0)
(1.85531e-06 0 0)
(1.85515e-06 0 0)
(1.855e-06 0 0)
(1.85486e-06 0 0)
(1.85472e-06 0 0)
(1.85458e-06 0 0)
(1.85445e-06 0 0)
(1.85432e-06 0 0)
(1.85419e-06 0 0)
(1.85406e-06 0 0)
(1.85394e-06 0 0)
(1.85381e-06 0 0)
(1.85369e-06 0 0)
(1.85356e-06 0 0)
(1.85344e-06 0 0)
(1.85331e-06 0 0)
(1.85318e-06 0 0)
(1.85306e-06 0 0)
(1.85293e-06 0 0)
(1.8528e-06 0 0)
(1.85267e-06 0 0)
(1.85254e-06 0 0)
(1.85241e-06 0 0)
(1.85228e-06 0 0)
(1.85215e-06 0 0)
(1.85202e-06 0 0)
(1.85189e-06 0 0)
(1.85176e-06 0 0)
(1.85163e-06 0 0)
(1.8515e-06 0 0)
(1.85137e-06 0 0)
(1.85124e-06 0 0)
(1.85112e-06 0 0)
(1.85099e-06 0 0)
(1.85087e-06 0 0)
(1.85074e-06 0 0)
(1.85062e-06 0 0)
(1.8505e-06 0 0)
(1.85038e-06 0 0)
(1.85027e-06 0 0)
(1.85015e-06 0 0)
(1.85004e-06 0 0)
(1.84993e-06 0 0)
(1.84982e-06 0 0)
(1.84972e-06 0 0)
(1.84962e-06 0 0)
(1.84952e-06 0 0)
(1.84942e-06 0 0)
(1.84933e-06 0 0)
(1.84924e-06 0 0)
(1.84915e-06 0 0)
(1.84907e-06 0 0)
(1.84899e-06 0 0)
(1.84891e-06 0 0)
(1.84884e-06 0 0)
(1.84877e-06 0 0)
(1.84871e-06 0 0)
(1.84865e-06 0 0)
(1.84859e-06 0 0)
(1.84854e-06 0 0)
(1.84849e-06 0 0)
(1.84844e-06 0 0)
(1.8484e-06 0 0)
(1.84836e-06 0 0)
(1.84833e-06 0 0)
(1.8483e-06 0 0)
(1.84828e-06 0 0)
(1.84826e-06 0 0)
(1.84824e-06 0 0)
(1.84823e-06 0 0)
(1.84823e-06 0 0)
(1.84822e-06 0 0)
(1.84822e-06 0 0)
(1.84822e-06 0 0)
(1.84823e-06 0 0)
(1.84824e-06 0 0)
(1.84825e-06 0 0)
(1.84827e-06 0 0)
(1.84829e-06 0 0)
(1.84832e-06 0 0)
(1.84835e-06 0 0)
(1.84839e-06 0 0)
(1.84843e-06 0 0)
(1.84848e-06 0 0)
(1.84853e-06 0 0)
(1.84858e-06 0 0)
(1.84864e-06 0 0)
(1.8487e-06 0 0)
(1.84876e-06 0 0)
)
;

boundaryField
{
    inlet
    {
        type            fixedValue;
        value           uniform (2.74882e-06 0 0);
    }
    outlet
    {
        type            zeroGradient;
    }
    emptyWalls
    {
        type            empty;
    }
}


// ************************************************************************* //
