/*--------------------------------*- C++ -*----------------------------------*\
  =========                 |
  \\      /  F ield         | OpenFOAM: The Open Source CFD Toolbox
   \\    /   O peration     | Website:  https://openfoam.org
    \\  /    A nd           | Version:  9
     \\/     M anipulation  |
\*---------------------------------------------------------------------------*/
FoamFile
{
    format      ascii;
    class       volScalarField;
    location    "18750";
    object      Sb;
}
// * * * * * * * * * * * * * * * * * * * * * * * * * * * * * * * * * * * * * //

dimensions      [0 0 0 0 0 0 0];

internalField   nonuniform List<scalar> 
1000
(
0.350285
0.350877
0.351653
0.352435
0.353216
0.353998
0.35481
0.355592
0.356448
0.357207
0.358109
0.358831
0.359734
0.360434
0.361255
0.361923
0.362609
0.363196
0.363746
0.364217
0.364645
0.365026
0.365472
0.366383
0.369481
0.382468
0.472027
0.62403
0.655772
0.66483
0.669048
0.671644
0.673499
0.674947
0.676126
0.67712
0.677968
0.678702
0.679338
0.679895
0.68038
0.680803
0.681172
0.681494
0.681771
0.682012
0.682217
0.682391
0.682536
0.682655
0.682748
0.68282
0.682868
0.682897
0.682903
0.68289
0.682854
0.682796
0.682715
0.68261
0.682483
0.682332
0.682156
0.681954
0.681723
0.681459
0.681155
0.680802
0.680387
0.679892
0.679294
0.678574
0.677716
0.676727
0.675636
0.674485
0.673296
0.672085
0.670862
0.669632
0.6684
0.66717
0.665945
0.664727
0.663519
0.662322
0.661137
0.659964
0.658803
0.657652
0.656511
0.655379
0.654254
0.653136
0.652025
0.650919
0.649818
0.648723
0.647633
0.646548
0.645469
0.644397
0.643331
0.642272
0.641219
0.640174
0.639137
0.638107
0.637085
0.63607
0.635063
0.634063
0.633071
0.632085
0.631107
0.630135
0.629171
0.628213
0.627261
0.626316
0.625376
0.624443
0.623516
0.622595
0.62168
0.62077
0.619866
0.618968
0.618075
0.617188
0.616306
0.615429
0.614557
0.613691
0.61283
0.611973
0.611122
0.610276
0.609434
0.608597
0.607765
0.606938
0.606115
0.605296
0.604482
0.603673
0.602868
0.602067
0.601271
0.600478
0.59969
0.598906
0.598126
0.597351
0.596579
0.595811
0.595047
0.594286
0.59353
0.592777
0.592028
0.591283
0.590541
0.589803
0.589069
0.588338
0.58761
0.586886
0.586166
0.585449
0.584735
0.584025
0.583318
0.582614
0.581913
0.581216
0.580522
0.57983
0.579142
0.578457
0.577776
0.577097
0.576421
0.575748
0.575079
0.574412
0.573748
0.573086
0.572427
0.57177
0.571115
0.570462
0.569811
0.569161
0.568514
0.567868
0.567225
0.566583
0.565942
0.565305
0.564669
0.564035
0.563404
0.562776
0.56215
0.561528
0.560909
0.560294
0.559682
0.559074
0.55847
0.55787
0.557273
0.556681
0.556093
0.555508
0.554927
0.554348
0.553773
0.5532
0.55263
0.552062
0.551495
0.55093
0.550367
0.549804
0.549243
0.548683
0.548124
0.547567
0.54701
0.546454
0.5459
0.545347
0.544796
0.544246
0.543697
0.54315
0.542605
0.542061
0.54152
0.54098
0.540441
0.539905
0.53937
0.538838
0.538307
0.537777
0.53725
0.536724
0.5362
0.535678
0.535157
0.534638
0.534121
0.533605
0.533091
0.532578
0.532067
0.531557
0.531049
0.530542
0.530037
0.529533
0.52903
0.528529
0.52803
0.527532
0.527035
0.526539
0.526045
0.525552
0.525061
0.524571
0.524082
0.523594
0.523108
0.522623
0.522139
0.521656
0.521175
0.520695
0.520216
0.519738
0.519262
0.518787
0.518313
0.51784
0.517368
0.516898
0.516428
0.51596
0.515493
0.515027
0.514562
0.514098
0.513635
0.513174
0.512713
0.512254
0.511795
0.511338
0.510882
0.510426
0.509972
0.509519
0.509067
0.508616
0.508166
0.507717
0.507269
0.506822
0.506376
0.505931
0.505487
0.505044
0.504602
0.504161
0.503721
0.503281
0.502843
0.502406
0.501969
0.501534
0.501099
0.500666
0.500233
0.499801
0.499369
0.498939
0.498509
0.49808
0.497651
0.497223
0.496795
0.496368
0.495942
0.495516
0.49509
0.494665
0.494241
0.493817
0.493393
0.492971
0.492548
0.492127
0.491706
0.491286
0.490867
0.490449
0.490032
0.489617
0.489202
0.488789
0.488377
0.487966
0.487557
0.487149
0.486743
0.486338
0.485935
0.485533
0.485133
0.484734
0.484336
0.483939
0.483543
0.483149
0.482755
0.482362
0.48197
0.481578
0.481187
0.480797
0.480406
0.480016
0.479627
0.479238
0.478849
0.47846
0.478072
0.477684
0.477296
0.476908
0.476521
0.476134
0.475748
0.475362
0.474976
0.474591
0.474207
0.473823
0.473439
0.473056
0.472673
0.472291
0.47191
0.471529
0.471149
0.470769
0.47039
0.470011
0.469633
0.469256
0.468879
0.468503
0.468127
0.467752
0.467377
0.467003
0.466629
0.466255
0.465883
0.46551
0.465138
0.464767
0.464396
0.464026
0.463656
0.463286
0.462917
0.462548
0.46218
0.461812
0.461445
0.461078
0.460711
0.460345
0.459979
0.459613
0.459248
0.458884
0.458519
0.458155
0.457792
0.457429
0.457066
0.456704
0.456341
0.45598
0.455618
0.455257
0.454897
0.454536
0.454176
0.453817
0.453457
0.453098
0.452739
0.452381
0.452023
0.451665
0.451308
0.450951
0.450594
0.450237
0.449881
0.449525
0.44917
0.448814
0.448459
0.448104
0.44775
0.447396
0.447042
0.446688
0.446335
0.445981
0.445629
0.445276
0.444924
0.444572
0.44422
0.443868
0.443517
0.443166
0.442815
0.442464
0.442114
0.441764
0.441414
0.441064
0.440715
0.440365
0.440016
0.439667
0.439318
0.438969
0.438621
0.438272
0.437924
0.437575
0.437227
0.436879
0.43653
0.436182
0.435834
0.435486
0.435138
0.43479
0.434441
0.434093
0.433745
0.433397
0.433049
0.432701
0.432354
0.432006
0.431659
0.431311
0.430964
0.430617
0.430271
0.429924
0.429578
0.429233
0.428887
0.428543
0.428198
0.427854
0.42751
0.427167
0.426825
0.426482
0.426141
0.425799
0.425458
0.425118
0.424778
0.424438
0.424098
0.423759
0.42342
0.423081
0.422742
0.422404
0.422065
0.421727
0.421389
0.42105
0.420712
0.420373
0.420034
0.419695
0.419356
0.419017
0.418678
0.418339
0.417999
0.417659
0.417319
0.416979
0.416639
0.416299
0.415958
0.415617
0.415277
0.414936
0.414595
0.414254
0.413912
0.413571
0.41323
0.412888
0.412547
0.412205
0.411863
0.411521
0.41118
0.410838
0.410495
0.410153
0.409811
0.409468
0.409126
0.408783
0.408441
0.408098
0.407755
0.407412
0.407068
0.406725
0.406381
0.406038
0.405694
0.40535
0.405005
0.404661
0.404316
0.403971
0.403626
0.403281
0.402936
0.40259
0.402244
0.401898
0.401551
0.401204
0.400857
0.40051
0.400163
0.399815
0.399467
0.399119
0.39877
0.398421
0.398072
0.397722
0.397372
0.397022
0.396671
0.39632
0.395969
0.395617
0.395265
0.394913
0.39456
0.394207
0.393853
0.393499
0.393145
0.39279
0.392435
0.392079
0.391723
0.391367
0.39101
0.390652
0.390294
0.389936
0.389577
0.389218
0.388858
0.388497
0.388136
0.387775
0.387413
0.38705
0.386687
0.386324
0.38596
0.385595
0.385229
0.384864
0.384497
0.38413
0.383762
0.383394
0.383024
0.382655
0.382284
0.381913
0.381541
0.381169
0.380796
0.380422
0.380047
0.379672
0.379295
0.378918
0.37854
0.378162
0.377782
0.377402
0.377021
0.376639
0.376256
0.375872
0.375487
0.375102
0.374715
0.374328
0.373939
0.37355
0.373159
0.372768
0.372376
0.371982
0.371588
0.371193
0.370797
0.3704
0.370002
0.369603
0.369203
0.368802
0.3684
0.367998
0.367595
0.367191
0.366787
0.366381
0.365976
0.365569
0.365163
0.364756
0.36435
0.363943
0.363536
0.36313
0.362724
0.36232
0.361916
0.361514
0.361114
0.360716
0.360322
0.359931
0.359544
0.359161
0.358785
0.358415
0.358052
0.357698
0.357353
0.357019
0.356697
0.356387
0.35609
0.355809
0.355543
0.355293
0.35506
0.354844
0.354646
0.354464
0.3543
0.354153
0.354022
0.353907
0.353805
0.353717
0.353641
0.353577
0.353522
0.353476
0.353438
0.353404
0.353375
0.353347
0.353318
0.35328
0.353226
0.353138
0.352988
0.352724
0.352257
0.351429
0.34997
0.347439
0.343168
0.336288
0.326
0.312213
0.29626
0.280746
0.268121
0.259339
0.253917
0.250825
0.249143
0.248252
0.247788
0.247547
0.247423
0.24736
0.247327
0.24731
0.247302
0.247297
0.247295
0.247294
0.247294
0.247293
0.247293
0.247293
0.247293
0.247294
0.247294
0.247294
0.247294
0.247294
0.247294
0.247294
0.247294
0.247294
0.247294
0.247294
0.247294
0.247294
0.247294
0.247294
0.247294
0.247294
0.247294
0.247293
0.247293
0.247293
0.247293
0.247293
0.247293
0.247292
0.247292
0.247292
0.247292
0.247292
0.247291
0.247291
0.247291
0.247291
0.24729
0.24729
0.24729
0.24729
0.247289
0.247289
0.247289
0.247289
0.247289
0.247288
0.247288
0.247288
0.247288
0.247287
0.247287
0.247287
0.247287
0.247286
0.247286
0.247286
0.247286
0.247286
0.247285
0.247285
0.247285
0.247285
0.247285
0.247285
0.247284
0.247284
0.247284
0.247284
0.247284
0.247284
0.247283
0.247283
0.247283
0.247283
0.247283
0.247283
0.247283
0.247282
0.247282
0.247282
0.247282
0.247282
0.247282
0.247281
0.247281
0.247281
0.247281
0.247281
0.247281
0.24728
0.24728
0.24728
0.24728
0.247279
0.247279
0.247279
0.247279
0.247278
0.247278
0.247278
0.247277
0.247277
0.247276
0.247276
0.247276
0.247275
0.247275
0.247274
0.247274
0.247274
0.247273
0.247273
0.247272
0.247272
0.247272
0.247271
0.247271
0.24727
0.24727
0.24727
0.247269
0.247269
0.247269
0.247268
0.247268
0.247268
0.247268
0.247267
0.247267
0.247267
0.247267
0.247267
0.247267
0.247267
0.247267
0.247267
0.247267
0.247267
0.247268
0.247268
0.247268
0.247268
0.247269
0.247269
0.247269
0.24727
0.24727
0.247271
0.247271
0.247271
0.247272
0.247272
0.247273
0.247273
0.247274
0.247274
0.247274
0.247275
0.247275
0.247276
0.247276
0.247276
0.247277
0.247277
0.247277
0.247278
0.247278
0.247278
0.247278
0.247279
0.247279
0.247279
0.247279
0.247279
0.247279
0.247279
0.24728
0.24728
0.24728
0.24728
0.24728
0.24728
0.24728
0.24728
0.24728
0.247281
0.247281
0.247281
0.247281
0.247281
0.247281
0.247282
0.247282
0.247282
0.247282
0.247283
0.247283
0.247283
0.247284
0.247284
0.247284
0.247284
0.247285
0.247285
0.247285
0.247285
0.247285
0.247286
0.247286
0.247286
0.247286
0.247286
0.247286
0.247286
0.247286
0.247287
0.247287
0.247287
0.247287
0.247287
0.247287
0.247287
0.247287
0.247287
0.247287
0.247287
)
;

boundaryField
{
    inlet
    {
        type            fixedValue;
        value           uniform 0.35;
    }
    outlet
    {
        type            zeroGradient;
    }
    emptyWalls
    {
        type            empty;
    }
}


// ************************************************************************* //
