/*--------------------------------*- C++ -*----------------------------------*\
  =========                 |
  \\      /  F ield         | OpenFOAM: The Open Source CFD Toolbox
   \\    /   O peration     | Website:  https://openfoam.org
    \\  /    A nd           | Version:  9
     \\/     M anipulation  |
\*---------------------------------------------------------------------------*/
FoamFile
{
    format      ascii;
    class       volScalarField;
    location    "7550";
    object      Sb;
}
// * * * * * * * * * * * * * * * * * * * * * * * * * * * * * * * * * * * * * //

dimensions      [0 0 0 0 0 0 0];

internalField   nonuniform List<scalar> 
1000
(
0.350804
0.352677
0.354813
0.356783
0.358641
0.360297
0.361806
0.36384
0.368817
0.388626
0.512782
0.640169
0.664269
0.672139
0.67611
0.678527
0.680124
0.681199
0.681926
0.682405
0.682703
0.682871
0.682901
0.682812
0.682543
0.682052
0.681235
0.67994
0.67803
0.675582
0.672869
0.670031
0.66714
0.664236
0.661344
0.658478
0.655646
0.652853
0.650102
0.647394
0.644729
0.642108
0.63953
0.636995
0.634501
0.632048
0.629633
0.627254
0.624911
0.622601
0.620323
0.618078
0.615865
0.613684
0.611534
0.609415
0.607327
0.605269
0.603242
0.601245
0.599278
0.597342
0.595435
0.593557
0.591707
0.589884
0.588087
0.586313
0.584562
0.582831
0.581119
0.579424
0.577745
0.576082
0.574434
0.5728
0.571181
0.569576
0.567986
0.56641
0.564848
0.563301
0.561769
0.560251
0.558748
0.557259
0.555785
0.554324
0.552877
0.551443
0.550023
0.548615
0.547219
0.545836
0.544464
0.543103
0.541754
0.540416
0.539088
0.53777
0.536463
0.535166
0.533878
0.5326
0.531331
0.530072
0.528821
0.52758
0.526346
0.525122
0.523906
0.522697
0.521497
0.520305
0.519121
0.517944
0.516774
0.515612
0.514457
0.513309
0.512168
0.511034
0.509906
0.508785
0.50767
0.506562
0.50546
0.504363
0.503273
0.502189
0.50111
0.500037
0.498969
0.497907
0.49685
0.495798
0.494752
0.49371
0.492673
0.491642
0.490615
0.489592
0.488575
0.487562
0.486553
0.485549
0.484549
0.483553
0.482561
0.481574
0.48059
0.479611
0.478635
0.477663
0.476695
0.47573
0.474769
0.473812
0.472858
0.471908
0.47096
0.470016
0.469076
0.468138
0.467204
0.466272
0.465344
0.464419
0.463496
0.462576
0.461659
0.460744
0.459833
0.458923
0.458016
0.457112
0.45621
0.45531
0.454413
0.453518
0.452624
0.451733
0.450844
0.449957
0.449072
0.448189
0.447307
0.446427
0.445548
0.444672
0.443796
0.442922
0.442049
0.441178
0.440307
0.439438
0.43857
0.437703
0.436836
0.43597
0.435105
0.434242
0.433378
0.432516
0.431655
0.430795
0.429936
0.429077
0.42822
0.427364
0.426509
0.425655
0.424803
0.423952
0.423102
0.422253
0.421406
0.42056
0.419714
0.41887
0.418026
0.417183
0.416341
0.415499
0.414657
0.413815
0.412972
0.412129
0.411285
0.41044
0.409594
0.408747
0.407899
0.40705
0.406198
0.405346
0.404491
0.403635
0.402778
0.401918
0.401057
0.400194
0.39933
0.398463
0.397595
0.396725
0.395853
0.394978
0.394102
0.393223
0.392342
0.391459
0.390573
0.389685
0.388794
0.3879
0.387004
0.386104
0.385201
0.384295
0.383386
0.382474
0.381558
0.380638
0.379714
0.378787
0.377855
0.37692
0.37598
0.375037
0.37409
0.37314
0.372186
0.371228
0.370269
0.369307
0.368345
0.367383
0.366424
0.365469
0.36452
0.363582
0.362658
0.361753
0.360871
0.360019
0.359202
0.358426
0.357696
0.357015
0.356385
0.355804
0.355261
0.354738
0.354196
0.353569
0.352739
0.351502
0.349519
0.346253
0.34093
0.332647
0.320793
0.305802
0.28964
0.275066
0.264006
0.256727
0.252403
0.249994
0.248703
0.248024
0.247672
0.24749
0.247397
0.247349
0.247324
0.247312
0.247305
0.247302
0.2473
0.247299
0.247299
0.247298
0.247298
0.247298
0.247298
0.247298
0.247298
0.247298
0.247298
0.247298
0.247298
0.247298
0.247297
0.247297
0.247297
0.247297
0.247297
0.247297
0.247297
0.247296
0.247296
0.247296
0.247296
0.247296
0.247296
0.247296
0.247295
0.247295
0.247295
0.247295
0.247295
0.247295
0.247295
0.247294
0.247294
0.247294
0.247294
0.247294
0.247294
0.247293
0.247293
0.247293
0.247293
0.247293
0.247293
0.247292
0.247292
0.247292
0.247291
0.247291
0.247291
0.247291
0.24729
0.24729
0.247289
0.247289
0.247288
0.247288
0.247287
0.247287
0.247286
0.247285
0.247285
0.247284
0.247283
0.247282
0.247281
0.24728
0.247279
0.247278
0.247277
0.247276
0.247275
0.247274
0.247273
0.247272
0.247271
0.247269
0.247268
0.247267
0.247266
0.247265
0.247264
0.247263
0.247262
0.247261
0.247261
0.24726
0.247259
0.247259
0.247259
0.247258
0.247258
0.247258
0.247258
0.247258
0.247259
0.247259
0.24726
0.24726
0.247261
0.247262
0.247263
0.247263
0.247264
0.247265
0.247266
0.247267
0.247268
0.247269
0.24727
0.247271
0.247272
0.247272
0.247273
0.247274
0.247274
0.247275
0.247275
0.247276
0.247276
0.247276
0.247276
0.247277
0.247277
0.247277
0.247277
0.247277
0.247277
0.247277
0.247277
0.247277
0.247277
0.247277
0.247277
0.247278
0.247278
0.247278
0.247278
0.247278
0.247278
0.247278
0.247278
0.247278
0.247278
0.247279
0.247279
0.247279
0.247279
0.247279
0.24728
0.24728
0.24728
0.24728
0.24728
0.247281
0.247281
0.247281
0.247281
0.247282
0.247282
0.247282
0.247282
0.247283
0.247283
0.247283
0.247283
0.247284
0.247284
0.247284
0.247284
0.247284
0.247285
0.247285
0.247285
0.247285
0.247285
0.247285
0.247285
0.247286
0.247286
0.247286
0.247286
0.247286
0.247286
0.247286
0.247286
0.247286
0.247287
0.247287
0.247287
0.247287
0.247287
0.247287
0.247287
0.247287
0.247287
0.247287
0.247287
0.247287
0.247287
0.247287
0.247287
0.247287
0.247287
0.247287
0.247287
0.247287
0.247287
0.247287
0.247287
0.247287
0.247287
0.247287
0.247287
0.247287
0.247287
0.247287
0.247287
0.247287
0.247287
0.247286
0.247286
0.247286
0.247286
0.247286
0.247286
0.247286
0.247286
0.247286
0.247286
0.247286
0.247286
0.247286
0.247286
0.247286
0.247286
0.247286
0.247286
0.247286
0.247286
0.247286
0.247286
0.247286
0.247286
0.247286
0.247286
0.247286
0.247286
0.247286
0.247285
0.247285
0.247285
0.247285
0.247285
0.247284
0.247284
0.247284
0.247284
0.247283
0.247283
0.247283
0.247283
0.247282
0.247282
0.247281
0.247281
0.247281
0.24728
0.24728
0.247279
0.247279
0.247278
0.247278
0.247277
0.247277
0.247276
0.247275
0.247275
0.247274
0.247273
0.247273
0.247272
0.247271
0.247271
0.24727
0.247269
0.247268
0.247268
0.247267
0.247266
0.247266
0.247265
0.247264
0.247264
0.247263
0.247263
0.247263
0.247262
0.247262
0.247262
0.247262
0.247262
0.247262
0.247262
0.247262
0.247262
0.247263
0.247263
0.247264
0.247264
0.247265
0.247266
0.247266
0.247267
0.247268
0.247269
0.247269
0.24727
0.247271
0.247272
0.247272
0.247273
0.247274
0.247274
0.247275
0.247276
0.247276
0.247277
0.247277
0.247277
0.247278
0.247278
0.247278
0.247279
0.247279
0.247279
0.247279
0.247279
0.247279
0.247279
0.247279
0.247279
0.247279
0.247279
0.247279
0.247279
0.247279
0.247279
0.24728
0.24728
0.24728
0.24728
0.24728
0.24728
0.24728
0.24728
0.24728
0.24728
0.24728
0.24728
0.24728
0.24728
0.247281
0.247281
0.247281
0.247281
0.247281
0.247281
0.247282
0.247282
0.247282
0.247282
0.247282
0.247283
0.247283
0.247283
0.247283
0.247283
0.247284
0.247284
0.247284
0.247284
0.247284
0.247285
0.247285
0.247285
0.247285
0.247285
0.247285
0.247286
0.247286
0.247286
0.247286
0.247286
0.247286
0.247286
0.247287
0.247287
0.247287
0.247287
0.247287
0.247287
0.247287
0.247287
0.247287
0.247287
0.247287
0.247288
0.247288
0.247288
0.247288
0.247288
0.247288
0.247288
0.247288
0.247288
0.247288
0.247288
0.247288
0.247288
0.247288
0.247288
0.247288
0.247288
0.247288
0.247288
0.247288
0.247288
0.247288
0.247288
0.247288
0.247288
0.247288
0.247288
0.247288
0.247288
0.247288
0.247288
0.247288
0.247288
0.247288
0.247288
0.247288
0.247288
0.247288
0.247288
0.247288
0.247288
0.247288
0.247288
0.247287
0.247287
0.247287
0.247287
0.247287
0.247287
0.247286
0.247286
0.247286
0.247286
0.247286
0.247285
0.247285
0.247285
0.247285
0.247284
0.247284
0.247284
0.247284
0.247283
0.247283
0.247283
0.247282
0.247282
0.247282
0.247281
0.247281
0.24728
0.24728
0.247279
0.247279
0.247278
0.247278
0.247277
0.247277
0.247276
0.247276
0.247275
0.247274
0.247274
0.247273
0.247273
0.247272
0.247271
0.247271
0.24727
0.247269
0.247269
0.247268
0.247267
0.247267
0.247266
0.247266
0.247265
0.247265
0.247264
0.247264
0.247264
0.247263
0.247263
0.247263
0.247263
0.247263
0.247263
0.247263
0.247263
0.247263
0.247263
0.247263
0.247263
0.247264
0.247264
0.247265
0.247265
0.247266
0.247266
0.247267
0.247268
0.247268
0.247269
0.24727
0.24727
0.247271
0.247271
0.247272
0.247273
0.247273
0.247274
0.247274
0.247275
0.247275
0.247276
0.247276
0.247276
0.247277
0.247277
0.247277
0.247277
0.247278
0.247278
0.247278
0.247278
0.247278
0.247278
0.247278
0.247279
0.247279
0.247279
0.247279
0.247279
0.247279
0.247279
0.247279
0.247279
0.247279
0.247279
0.247279
0.247279
0.247279
0.24728
0.24728
0.24728
0.24728
0.24728
0.24728
0.24728
0.24728
0.24728
0.247281
0.247281
0.247281
0.247281
0.247281
0.247281
0.247282
0.247282
0.247282
0.247282
0.247282
0.247283
0.247283
0.247283
0.247283
0.247283
0.247284
0.247284
0.247284
0.247284
0.247284
0.247285
0.247285
0.247285
0.247285
0.247285
0.247286
0.247286
0.247286
0.247286
0.247286
0.247286
0.247286
0.247287
0.247287
0.247287
0.247287
0.247287
0.247287
0.247287
0.247287
0.247287
0.247287
0.247288
0.247288
0.247288
0.247288
0.247288
0.247288
0.247288
0.247288
0.247288
0.247288
0.247288
0.247288
0.247288
0.247288
0.247288
0.247288
0.247288
0.247288
0.247288
0.247288
0.247288
0.247288
0.247288
0.247288
0.247288
0.247288
0.247288
0.247288
0.247288
0.247288
0.247288
0.247288
0.247288
0.247288
0.247288
0.247288
0.247288
0.247288
0.247288
0.247287
0.247287
0.247287
0.247287
0.247287
0.247287
0.247287
0.247287
0.247286
0.247286
0.247286
0.247286
0.247285
0.247285
0.247285
0.247285
0.247284
)
;

boundaryField
{
    inlet
    {
        type            fixedValue;
        value           uniform 0.35;
    }
    outlet
    {
        type            zeroGradient;
    }
    emptyWalls
    {
        type            empty;
    }
}


// ************************************************************************* //
