/*--------------------------------*- C++ -*----------------------------------*\
  =========                 |
  \\      /  F ield         | OpenFOAM: The Open Source CFD Toolbox
   \\    /   O peration     | Website:  https://openfoam.org
    \\  /    A nd           | Version:  9
     \\/     M anipulation  |
\*---------------------------------------------------------------------------*/
FoamFile
{
    format      ascii;
    class       volVectorField;
    location    "7550";
    object      Uc;
}
// * * * * * * * * * * * * * * * * * * * * * * * * * * * * * * * * * * * * * //

dimensions      [0 0 0 0 0 0 0];

internalField   nonuniform List<vector> 
1000
(
(5.89761e-11 0 0)
(3.25156e-10 0 0)
(8.50946e-10 0 0)
(1.56888e-09 0 0)
(2.41094e-09 0 0)
(3.31431e-09 0 0)
(4.34431e-09 0 0)
(6.2857e-09 0 0)
(1.23335e-08 0 0)
(3.70509e-08 0 0)
(1.18242e-07 0 0)
(1.93966e-07 0 0)
(2.13447e-07 0 0)
(2.21147e-07 0 0)
(2.26011e-07 0 0)
(2.29807e-07 0 0)
(2.33051e-07 0 0)
(2.3594e-07 0 0)
(2.38575e-07 0 0)
(2.41032e-07 0 0)
(2.43395e-07 0 0)
(2.45759e-07 0 0)
(2.48225e-07 0 0)
(2.50994e-07 0 0)
(2.54228e-07 0 0)
(2.58061e-07 0 0)
(2.62815e-07 0 0)
(2.68903e-07 0 0)
(2.76618e-07 0 0)
(2.85907e-07 0 0)
(2.96412e-07 0 0)
(3.07746e-07 0 0)
(3.19646e-07 0 0)
(3.31949e-07 0 0)
(3.44553e-07 0 0)
(3.57393e-07 0 0)
(3.70423e-07 0 0)
(3.83612e-07 0 0)
(3.96936e-07 0 0)
(4.10379e-07 0 0)
(4.23928e-07 0 0)
(4.37576e-07 0 0)
(4.51318e-07 0 0)
(4.65146e-07 0 0)
(4.79057e-07 0 0)
(4.93042e-07 0 0)
(5.07093e-07 0 0)
(5.21202e-07 0 0)
(5.35362e-07 0 0)
(5.49569e-07 0 0)
(5.6382e-07 0 0)
(5.78115e-07 0 0)
(5.92455e-07 0 0)
(6.06842e-07 0 0)
(6.21277e-07 0 0)
(6.35765e-07 0 0)
(6.50308e-07 0 0)
(6.6491e-07 0 0)
(6.79577e-07 0 0)
(6.94314e-07 0 0)
(7.09127e-07 0 0)
(7.24023e-07 0 0)
(7.39007e-07 0 0)
(7.5408e-07 0 0)
(7.69243e-07 0 0)
(7.84494e-07 0 0)
(7.99827e-07 0 0)
(8.15232e-07 0 0)
(8.307e-07 0 0)
(8.4622e-07 0 0)
(8.61779e-07 0 0)
(8.77369e-07 0 0)
(8.92981e-07 0 0)
(9.08608e-07 0 0)
(9.24246e-07 0 0)
(9.39894e-07 0 0)
(9.55552e-07 0 0)
(9.71222e-07 0 0)
(9.86908e-07 0 0)
(1.00261e-06 0 0)
(1.01834e-06 0 0)
(1.0341e-06 0 0)
(1.04989e-06 0 0)
(1.06571e-06 0 0)
(1.08158e-06 0 0)
(1.09748e-06 0 0)
(1.11343e-06 0 0)
(1.12943e-06 0 0)
(1.14546e-06 0 0)
(1.16155e-06 0 0)
(1.17768e-06 0 0)
(1.19385e-06 0 0)
(1.21006e-06 0 0)
(1.22632e-06 0 0)
(1.24262e-06 0 0)
(1.25895e-06 0 0)
(1.27533e-06 0 0)
(1.29175e-06 0 0)
(1.3082e-06 0 0)
(1.3247e-06 0 0)
(1.34123e-06 0 0)
(1.3578e-06 0 0)
(1.3744e-06 0 0)
(1.39104e-06 0 0)
(1.40772e-06 0 0)
(1.42444e-06 0 0)
(1.4412e-06 0 0)
(1.45799e-06 0 0)
(1.47482e-06 0 0)
(1.49169e-06 0 0)
(1.5086e-06 0 0)
(1.52554e-06 0 0)
(1.54252e-06 0 0)
(1.55954e-06 0 0)
(1.5766e-06 0 0)
(1.5937e-06 0 0)
(1.61084e-06 0 0)
(1.62801e-06 0 0)
(1.64523e-06 0 0)
(1.66248e-06 0 0)
(1.67977e-06 0 0)
(1.6971e-06 0 0)
(1.71447e-06 0 0)
(1.73188e-06 0 0)
(1.74933e-06 0 0)
(1.76682e-06 0 0)
(1.78435e-06 0 0)
(1.80191e-06 0 0)
(1.81952e-06 0 0)
(1.83717e-06 0 0)
(1.85485e-06 0 0)
(1.87258e-06 0 0)
(1.89034e-06 0 0)
(1.90815e-06 0 0)
(1.92599e-06 0 0)
(1.94387e-06 0 0)
(1.9618e-06 0 0)
(1.97977e-06 0 0)
(1.99777e-06 0 0)
(2.01582e-06 0 0)
(2.03391e-06 0 0)
(2.05204e-06 0 0)
(2.07021e-06 0 0)
(2.08843e-06 0 0)
(2.10668e-06 0 0)
(2.12498e-06 0 0)
(2.14333e-06 0 0)
(2.16172e-06 0 0)
(2.18015e-06 0 0)
(2.19863e-06 0 0)
(2.21715e-06 0 0)
(2.23572e-06 0 0)
(2.25433e-06 0 0)
(2.27299e-06 0 0)
(2.2917e-06 0 0)
(2.31045e-06 0 0)
(2.32926e-06 0 0)
(2.34811e-06 0 0)
(2.36701e-06 0 0)
(2.38596e-06 0 0)
(2.40496e-06 0 0)
(2.424e-06 0 0)
(2.4431e-06 0 0)
(2.46225e-06 0 0)
(2.48145e-06 0 0)
(2.50071e-06 0 0)
(2.52001e-06 0 0)
(2.53937e-06 0 0)
(2.55878e-06 0 0)
(2.57825e-06 0 0)
(2.59777e-06 0 0)
(2.61735e-06 0 0)
(2.63698e-06 0 0)
(2.65666e-06 0 0)
(2.67641e-06 0 0)
(2.6962e-06 0 0)
(2.71606e-06 0 0)
(2.73597e-06 0 0)
(2.75593e-06 0 0)
(2.77596e-06 0 0)
(2.79604e-06 0 0)
(2.81618e-06 0 0)
(2.83637e-06 0 0)
(2.85663e-06 0 0)
(2.87694e-06 0 0)
(2.89731e-06 0 0)
(2.91774e-06 0 0)
(2.93823e-06 0 0)
(2.95877e-06 0 0)
(2.97937e-06 0 0)
(3.00002e-06 0 0)
(3.02072e-06 0 0)
(3.04147e-06 0 0)
(3.06227e-06 0 0)
(3.08311e-06 0 0)
(3.10401e-06 0 0)
(3.12495e-06 0 0)
(3.14594e-06 0 0)
(3.16698e-06 0 0)
(3.18807e-06 0 0)
(3.20921e-06 0 0)
(3.2304e-06 0 0)
(3.25166e-06 0 0)
(3.27299e-06 0 0)
(3.29438e-06 0 0)
(3.31585e-06 0 0)
(3.33741e-06 0 0)
(3.35907e-06 0 0)
(3.38082e-06 0 0)
(3.40269e-06 0 0)
(3.42469e-06 0 0)
(3.44681e-06 0 0)
(3.46907e-06 0 0)
(3.49148e-06 0 0)
(3.51405e-06 0 0)
(3.53678e-06 0 0)
(3.55968e-06 0 0)
(3.58275e-06 0 0)
(3.606e-06 0 0)
(3.62942e-06 0 0)
(3.65301e-06 0 0)
(3.67677e-06 0 0)
(3.70069e-06 0 0)
(3.72477e-06 0 0)
(3.74898e-06 0 0)
(3.77334e-06 0 0)
(3.79783e-06 0 0)
(3.82243e-06 0 0)
(3.84715e-06 0 0)
(3.87197e-06 0 0)
(3.89689e-06 0 0)
(3.9219e-06 0 0)
(3.947e-06 0 0)
(3.97219e-06 0 0)
(3.99748e-06 0 0)
(4.02285e-06 0 0)
(4.04832e-06 0 0)
(4.07388e-06 0 0)
(4.09954e-06 0 0)
(4.12532e-06 0 0)
(4.1512e-06 0 0)
(4.17721e-06 0 0)
(4.20334e-06 0 0)
(4.22961e-06 0 0)
(4.25602e-06 0 0)
(4.28258e-06 0 0)
(4.3093e-06 0 0)
(4.33618e-06 0 0)
(4.36323e-06 0 0)
(4.39047e-06 0 0)
(4.41788e-06 0 0)
(4.44548e-06 0 0)
(4.47327e-06 0 0)
(4.50126e-06 0 0)
(4.52946e-06 0 0)
(4.55786e-06 0 0)
(4.58647e-06 0 0)
(4.6153e-06 0 0)
(4.64436e-06 0 0)
(4.67364e-06 0 0)
(4.70314e-06 0 0)
(4.73288e-06 0 0)
(4.76285e-06 0 0)
(4.79305e-06 0 0)
(4.8235e-06 0 0)
(4.85419e-06 0 0)
(4.88513e-06 0 0)
(4.91632e-06 0 0)
(4.94776e-06 0 0)
(4.97943e-06 0 0)
(5.01135e-06 0 0)
(5.0435e-06 0 0)
(5.07589e-06 0 0)
(5.10849e-06 0 0)
(5.14128e-06 0 0)
(5.17425e-06 0 0)
(5.20735e-06 0 0)
(5.24053e-06 0 0)
(5.27375e-06 0 0)
(5.30691e-06 0 0)
(5.33994e-06 0 0)
(5.37271e-06 0 0)
(5.40508e-06 0 0)
(5.43688e-06 0 0)
(5.46792e-06 0 0)
(5.49801e-06 0 0)
(5.52694e-06 0 0)
(5.5545e-06 0 0)
(5.58051e-06 0 0)
(5.60482e-06 0 0)
(5.6274e-06 0 0)
(5.64836e-06 0 0)
(5.66804e-06 0 0)
(5.68722e-06 0 0)
(5.70736e-06 0 0)
(5.73106e-06 0 0)
(5.76289e-06 0 0)
(5.81071e-06 0 0)
(5.8876e-06 0 0)
(6.01407e-06 0 0)
(6.21896e-06 0 0)
(6.53464e-06 0 0)
(6.98058e-06 0 0)
(7.53688e-06 0 0)
(8.13091e-06 0 0)
(8.66547e-06 0 0)
(9.07322e-06 0 0)
(9.34375e-06 0 0)
(9.50572e-06 0 0)
(9.59642e-06 0 0)
(9.64525e-06 0 0)
(9.67096e-06 0 0)
(9.68435e-06 0 0)
(9.69129e-06 0 0)
(9.69487e-06 0 0)
(9.69673e-06 0 0)
(9.69769e-06 0 0)
(9.69819e-06 0 0)
(9.69844e-06 0 0)
(9.69856e-06 0 0)
(9.69862e-06 0 0)
(9.69864e-06 0 0)
(9.69863e-06 0 0)
(9.6986e-06 0 0)
(9.69856e-06 0 0)
(9.69851e-06 0 0)
(9.69845e-06 0 0)
(9.69839e-06 0 0)
(9.69831e-06 0 0)
(9.69823e-06 0 0)
(9.69814e-06 0 0)
(9.69805e-06 0 0)
(9.69795e-06 0 0)
(9.69784e-06 0 0)
(9.69773e-06 0 0)
(9.69762e-06 0 0)
(9.6975e-06 0 0)
(9.69738e-06 0 0)
(9.69726e-06 0 0)
(9.69713e-06 0 0)
(9.697e-06 0 0)
(9.69686e-06 0 0)
(9.69673e-06 0 0)
(9.69659e-06 0 0)
(9.69646e-06 0 0)
(9.69632e-06 0 0)
(9.69618e-06 0 0)
(9.69603e-06 0 0)
(9.69589e-06 0 0)
(9.69575e-06 0 0)
(9.6956e-06 0 0)
(9.69546e-06 0 0)
(9.69531e-06 0 0)
(9.69517e-06 0 0)
(9.69502e-06 0 0)
(9.69487e-06 0 0)
(9.69472e-06 0 0)
(9.69457e-06 0 0)
(9.69442e-06 0 0)
(9.69426e-06 0 0)
(9.6941e-06 0 0)
(9.69394e-06 0 0)
(9.69378e-06 0 0)
(9.69361e-06 0 0)
(9.69344e-06 0 0)
(9.69326e-06 0 0)
(9.69308e-06 0 0)
(9.69289e-06 0 0)
(9.6927e-06 0 0)
(9.6925e-06 0 0)
(9.69229e-06 0 0)
(9.69207e-06 0 0)
(9.69184e-06 0 0)
(9.6916e-06 0 0)
(9.69135e-06 0 0)
(9.69108e-06 0 0)
(9.6908e-06 0 0)
(9.69049e-06 0 0)
(9.69017e-06 0 0)
(9.68983e-06 0 0)
(9.68946e-06 0 0)
(9.68907e-06 0 0)
(9.68865e-06 0 0)
(9.6882e-06 0 0)
(9.68772e-06 0 0)
(9.6872e-06 0 0)
(9.68666e-06 0 0)
(9.68608e-06 0 0)
(9.68547e-06 0 0)
(9.68482e-06 0 0)
(9.68414e-06 0 0)
(9.68343e-06 0 0)
(9.68268e-06 0 0)
(9.68191e-06 0 0)
(9.68112e-06 0 0)
(9.6803e-06 0 0)
(9.67947e-06 0 0)
(9.67862e-06 0 0)
(9.67777e-06 0 0)
(9.67692e-06 0 0)
(9.67607e-06 0 0)
(9.67524e-06 0 0)
(9.67443e-06 0 0)
(9.67365e-06 0 0)
(9.6729e-06 0 0)
(9.67221e-06 0 0)
(9.67157e-06 0 0)
(9.671e-06 0 0)
(9.6705e-06 0 0)
(9.67008e-06 0 0)
(9.66975e-06 0 0)
(9.66952e-06 0 0)
(9.66939e-06 0 0)
(9.66934e-06 0 0)
(9.66933e-06 0 0)
(9.66936e-06 0 0)
(9.66953e-06 0 0)
(9.66987e-06 0 0)
(9.67035e-06 0 0)
(9.67091e-06 0 0)
(9.67157e-06 0 0)
(9.67231e-06 0 0)
(9.67312e-06 0 0)
(9.67399e-06 0 0)
(9.67491e-06 0 0)
(9.67586e-06 0 0)
(9.67685e-06 0 0)
(9.67784e-06 0 0)
(9.67884e-06 0 0)
(9.67983e-06 0 0)
(9.6808e-06 0 0)
(9.68175e-06 0 0)
(9.68266e-06 0 0)
(9.68352e-06 0 0)
(9.68433e-06 0 0)
(9.68508e-06 0 0)
(9.68578e-06 0 0)
(9.68642e-06 0 0)
(9.68699e-06 0 0)
(9.6875e-06 0 0)
(9.68795e-06 0 0)
(9.68833e-06 0 0)
(9.68867e-06 0 0)
(9.68895e-06 0 0)
(9.68918e-06 0 0)
(9.68936e-06 0 0)
(9.68951e-06 0 0)
(9.68962e-06 0 0)
(9.6897e-06 0 0)
(9.68975e-06 0 0)
(9.68978e-06 0 0)
(9.6898e-06 0 0)
(9.68981e-06 0 0)
(9.68981e-06 0 0)
(9.6898e-06 0 0)
(9.68979e-06 0 0)
(9.68977e-06 0 0)
(9.68976e-06 0 0)
(9.68975e-06 0 0)
(9.68975e-06 0 0)
(9.68975e-06 0 0)
(9.68975e-06 0 0)
(9.68977e-06 0 0)
(9.68981e-06 0 0)
(9.68987e-06 0 0)
(9.68993e-06 0 0)
(9.69001e-06 0 0)
(9.6901e-06 0 0)
(9.6902e-06 0 0)
(9.69032e-06 0 0)
(9.69044e-06 0 0)
(9.69057e-06 0 0)
(9.69072e-06 0 0)
(9.69087e-06 0 0)
(9.69103e-06 0 0)
(9.69119e-06 0 0)
(9.69136e-06 0 0)
(9.69154e-06 0 0)
(9.69172e-06 0 0)
(9.6919e-06 0 0)
(9.69209e-06 0 0)
(9.69228e-06 0 0)
(9.69247e-06 0 0)
(9.69266e-06 0 0)
(9.69285e-06 0 0)
(9.69303e-06 0 0)
(9.69322e-06 0 0)
(9.69341e-06 0 0)
(9.69359e-06 0 0)
(9.69377e-06 0 0)
(9.69395e-06 0 0)
(9.69413e-06 0 0)
(9.6943e-06 0 0)
(9.69447e-06 0 0)
(9.69463e-06 0 0)
(9.69479e-06 0 0)
(9.69494e-06 0 0)
(9.69509e-06 0 0)
(9.69524e-06 0 0)
(9.69538e-06 0 0)
(9.69552e-06 0 0)
(9.69565e-06 0 0)
(9.69578e-06 0 0)
(9.6959e-06 0 0)
(9.69602e-06 0 0)
(9.69613e-06 0 0)
(9.69624e-06 0 0)
(9.69635e-06 0 0)
(9.69645e-06 0 0)
(9.69655e-06 0 0)
(9.69664e-06 0 0)
(9.69673e-06 0 0)
(9.69682e-06 0 0)
(9.6969e-06 0 0)
(9.69698e-06 0 0)
(9.69705e-06 0 0)
(9.69713e-06 0 0)
(9.69719e-06 0 0)
(9.69726e-06 0 0)
(9.69732e-06 0 0)
(9.69738e-06 0 0)
(9.69743e-06 0 0)
(9.69748e-06 0 0)
(9.69753e-06 0 0)
(9.69757e-06 0 0)
(9.69761e-06 0 0)
(9.69764e-06 0 0)
(9.69767e-06 0 0)
(9.69769e-06 0 0)
(9.69771e-06 0 0)
(9.69772e-06 0 0)
(9.69773e-06 0 0)
(9.69774e-06 0 0)
(9.69774e-06 0 0)
(9.69774e-06 0 0)
(9.69773e-06 0 0)
(9.69772e-06 0 0)
(9.69769e-06 0 0)
(9.69766e-06 0 0)
(9.69762e-06 0 0)
(9.69758e-06 0 0)
(9.69753e-06 0 0)
(9.69747e-06 0 0)
(9.69741e-06 0 0)
(9.69735e-06 0 0)
(9.69727e-06 0 0)
(9.69719e-06 0 0)
(9.69711e-06 0 0)
(9.69701e-06 0 0)
(9.69692e-06 0 0)
(9.69681e-06 0 0)
(9.6967e-06 0 0)
(9.69659e-06 0 0)
(9.69647e-06 0 0)
(9.69635e-06 0 0)
(9.69622e-06 0 0)
(9.69609e-06 0 0)
(9.69596e-06 0 0)
(9.69582e-06 0 0)
(9.69568e-06 0 0)
(9.69554e-06 0 0)
(9.6954e-06 0 0)
(9.69526e-06 0 0)
(9.69511e-06 0 0)
(9.69496e-06 0 0)
(9.69481e-06 0 0)
(9.69466e-06 0 0)
(9.69451e-06 0 0)
(9.69436e-06 0 0)
(9.6942e-06 0 0)
(9.69404e-06 0 0)
(9.69388e-06 0 0)
(9.69372e-06 0 0)
(9.69355e-06 0 0)
(9.69338e-06 0 0)
(9.69321e-06 0 0)
(9.69303e-06 0 0)
(9.69284e-06 0 0)
(9.69265e-06 0 0)
(9.69244e-06 0 0)
(9.69223e-06 0 0)
(9.69201e-06 0 0)
(9.69178e-06 0 0)
(9.69153e-06 0 0)
(9.69127e-06 0 0)
(9.691e-06 0 0)
(9.69071e-06 0 0)
(9.69041e-06 0 0)
(9.69008e-06 0 0)
(9.68974e-06 0 0)
(9.68937e-06 0 0)
(9.68898e-06 0 0)
(9.68857e-06 0 0)
(9.68814e-06 0 0)
(9.68768e-06 0 0)
(9.6872e-06 0 0)
(9.68669e-06 0 0)
(9.68616e-06 0 0)
(9.6856e-06 0 0)
(9.68503e-06 0 0)
(9.68443e-06 0 0)
(9.68381e-06 0 0)
(9.68317e-06 0 0)
(9.68252e-06 0 0)
(9.68185e-06 0 0)
(9.68118e-06 0 0)
(9.68049e-06 0 0)
(9.67981e-06 0 0)
(9.67912e-06 0 0)
(9.67844e-06 0 0)
(9.67778e-06 0 0)
(9.67713e-06 0 0)
(9.6765e-06 0 0)
(9.67589e-06 0 0)
(9.67532e-06 0 0)
(9.67479e-06 0 0)
(9.6743e-06 0 0)
(9.67386e-06 0 0)
(9.67347e-06 0 0)
(9.67314e-06 0 0)
(9.67288e-06 0 0)
(9.67268e-06 0 0)
(9.67255e-06 0 0)
(9.67249e-06 0 0)
(9.67248e-06 0 0)
(9.67248e-06 0 0)
(9.67254e-06 0 0)
(9.67273e-06 0 0)
(9.67306e-06 0 0)
(9.67344e-06 0 0)
(9.67389e-06 0 0)
(9.67441e-06 0 0)
(9.67499e-06 0 0)
(9.67561e-06 0 0)
(9.67628e-06 0 0)
(9.67699e-06 0 0)
(9.67773e-06 0 0)
(9.67849e-06 0 0)
(9.67927e-06 0 0)
(9.68005e-06 0 0)
(9.68083e-06 0 0)
(9.68159e-06 0 0)
(9.68235e-06 0 0)
(9.68308e-06 0 0)
(9.68378e-06 0 0)
(9.68445e-06 0 0)
(9.68509e-06 0 0)
(9.68568e-06 0 0)
(9.68624e-06 0 0)
(9.68675e-06 0 0)
(9.68721e-06 0 0)
(9.68764e-06 0 0)
(9.68801e-06 0 0)
(9.68835e-06 0 0)
(9.68864e-06 0 0)
(9.6889e-06 0 0)
(9.68912e-06 0 0)
(9.68931e-06 0 0)
(9.68946e-06 0 0)
(9.68959e-06 0 0)
(9.68969e-06 0 0)
(9.68977e-06 0 0)
(9.68983e-06 0 0)
(9.68988e-06 0 0)
(9.68991e-06 0 0)
(9.68994e-06 0 0)
(9.68996e-06 0 0)
(9.68997e-06 0 0)
(9.68997e-06 0 0)
(9.68998e-06 0 0)
(9.68999e-06 0 0)
(9.68999e-06 0 0)
(9.69001e-06 0 0)
(9.69003e-06 0 0)
(9.69005e-06 0 0)
(9.69009e-06 0 0)
(9.69013e-06 0 0)
(9.69018e-06 0 0)
(9.69025e-06 0 0)
(9.69033e-06 0 0)
(9.69041e-06 0 0)
(9.69051e-06 0 0)
(9.69061e-06 0 0)
(9.69073e-06 0 0)
(9.69085e-06 0 0)
(9.69099e-06 0 0)
(9.69113e-06 0 0)
(9.69128e-06 0 0)
(9.69143e-06 0 0)
(9.6916e-06 0 0)
(9.69177e-06 0 0)
(9.69194e-06 0 0)
(9.69212e-06 0 0)
(9.6923e-06 0 0)
(9.69249e-06 0 0)
(9.69267e-06 0 0)
(9.69286e-06 0 0)
(9.69305e-06 0 0)
(9.69325e-06 0 0)
(9.69344e-06 0 0)
(9.69363e-06 0 0)
(9.69382e-06 0 0)
(9.694e-06 0 0)
(9.69419e-06 0 0)
(9.69437e-06 0 0)
(9.69455e-06 0 0)
(9.69473e-06 0 0)
(9.6949e-06 0 0)
(9.69507e-06 0 0)
(9.69524e-06 0 0)
(9.6954e-06 0 0)
(9.69556e-06 0 0)
(9.69571e-06 0 0)
(9.69586e-06 0 0)
(9.696e-06 0 0)
(9.69614e-06 0 0)
(9.69628e-06 0 0)
(9.69641e-06 0 0)
(9.69653e-06 0 0)
(9.69665e-06 0 0)
(9.69677e-06 0 0)
(9.69688e-06 0 0)
(9.69698e-06 0 0)
(9.69709e-06 0 0)
(9.69719e-06 0 0)
(9.69728e-06 0 0)
(9.69737e-06 0 0)
(9.69746e-06 0 0)
(9.69754e-06 0 0)
(9.69762e-06 0 0)
(9.69769e-06 0 0)
(9.69776e-06 0 0)
(9.69783e-06 0 0)
(9.69789e-06 0 0)
(9.69795e-06 0 0)
(9.69801e-06 0 0)
(9.69806e-06 0 0)
(9.69811e-06 0 0)
(9.69816e-06 0 0)
(9.69821e-06 0 0)
(9.69825e-06 0 0)
(9.69828e-06 0 0)
(9.69831e-06 0 0)
(9.69834e-06 0 0)
(9.69836e-06 0 0)
(9.69838e-06 0 0)
(9.6984e-06 0 0)
(9.69841e-06 0 0)
(9.69842e-06 0 0)
(9.69842e-06 0 0)
(9.69842e-06 0 0)
(9.69842e-06 0 0)
(9.69841e-06 0 0)
(9.69839e-06 0 0)
(9.69836e-06 0 0)
(9.69833e-06 0 0)
(9.6983e-06 0 0)
(9.69826e-06 0 0)
(9.69821e-06 0 0)
(9.69815e-06 0 0)
(9.6981e-06 0 0)
(9.69803e-06 0 0)
(9.69796e-06 0 0)
(9.69788e-06 0 0)
(9.6978e-06 0 0)
(9.69771e-06 0 0)
(9.69761e-06 0 0)
(9.69751e-06 0 0)
(9.69741e-06 0 0)
(9.69729e-06 0 0)
(9.69717e-06 0 0)
(9.69705e-06 0 0)
(9.69692e-06 0 0)
(9.69679e-06 0 0)
(9.69664e-06 0 0)
(9.6965e-06 0 0)
(9.69635e-06 0 0)
(9.69619e-06 0 0)
(9.69603e-06 0 0)
(9.69586e-06 0 0)
(9.69568e-06 0 0)
(9.6955e-06 0 0)
(9.69531e-06 0 0)
(9.69512e-06 0 0)
(9.69491e-06 0 0)
(9.6947e-06 0 0)
(9.69449e-06 0 0)
(9.69426e-06 0 0)
(9.69402e-06 0 0)
(9.69378e-06 0 0)
(9.69352e-06 0 0)
(9.69326e-06 0 0)
(9.69298e-06 0 0)
(9.69269e-06 0 0)
(9.69238e-06 0 0)
(9.69207e-06 0 0)
(9.69174e-06 0 0)
(9.69139e-06 0 0)
(9.69103e-06 0 0)
(9.69065e-06 0 0)
(9.69025e-06 0 0)
(9.68984e-06 0 0)
(9.68941e-06 0 0)
(9.68896e-06 0 0)
(9.68849e-06 0 0)
(9.68801e-06 0 0)
(9.6875e-06 0 0)
(9.68698e-06 0 0)
(9.68645e-06 0 0)
(9.68589e-06 0 0)
(9.68533e-06 0 0)
(9.68474e-06 0 0)
(9.68415e-06 0 0)
(9.68354e-06 0 0)
(9.68293e-06 0 0)
(9.68231e-06 0 0)
(9.68168e-06 0 0)
(9.68105e-06 0 0)
(9.68043e-06 0 0)
(9.6798e-06 0 0)
(9.67919e-06 0 0)
(9.67858e-06 0 0)
(9.678e-06 0 0)
(9.67742e-06 0 0)
(9.67687e-06 0 0)
(9.67635e-06 0 0)
(9.67585e-06 0 0)
(9.67539e-06 0 0)
(9.67497e-06 0 0)
(9.67458e-06 0 0)
(9.67424e-06 0 0)
(9.67395e-06 0 0)
(9.67371e-06 0 0)
(9.67352e-06 0 0)
(9.67338e-06 0 0)
(9.6733e-06 0 0)
(9.67327e-06 0 0)
(9.67327e-06 0 0)
(9.67328e-06 0 0)
(9.67337e-06 0 0)
(9.67356e-06 0 0)
(9.67382e-06 0 0)
(9.67414e-06 0 0)
(9.67451e-06 0 0)
(9.67492e-06 0 0)
(9.67538e-06 0 0)
(9.67588e-06 0 0)
(9.67641e-06 0 0)
(9.67697e-06 0 0)
(9.67756e-06 0 0)
(9.67816e-06 0 0)
(9.67878e-06 0 0)
(9.6794e-06 0 0)
(9.68002e-06 0 0)
(9.68065e-06 0 0)
(9.68126e-06 0 0)
(9.68187e-06 0 0)
(9.68245e-06 0 0)
(9.68302e-06 0 0)
(9.68356e-06 0 0)
(9.68408e-06 0 0)
(9.68458e-06 0 0)
(9.68504e-06 0 0)
(9.68547e-06 0 0)
(9.68588e-06 0 0)
(9.68625e-06 0 0)
(9.68659e-06 0 0)
(9.6869e-06 0 0)
(9.68718e-06 0 0)
(9.68744e-06 0 0)
(9.68767e-06 0 0)
(9.68787e-06 0 0)
(9.68805e-06 0 0)
(9.68822e-06 0 0)
(9.68836e-06 0 0)
(9.68848e-06 0 0)
(9.68859e-06 0 0)
(9.68869e-06 0 0)
(9.68877e-06 0 0)
(9.68885e-06 0 0)
(9.68892e-06 0 0)
(9.68898e-06 0 0)
(9.68904e-06 0 0)
(9.6891e-06 0 0)
(9.68915e-06 0 0)
(9.68921e-06 0 0)
(9.68927e-06 0 0)
(9.68933e-06 0 0)
(9.6894e-06 0 0)
(9.68947e-06 0 0)
(9.68954e-06 0 0)
(9.68962e-06 0 0)
(9.68971e-06 0 0)
(9.6898e-06 0 0)
(9.6899e-06 0 0)
(9.69001e-06 0 0)
(9.69012e-06 0 0)
(9.69024e-06 0 0)
(9.69037e-06 0 0)
(9.6905e-06 0 0)
(9.69064e-06 0 0)
(9.69078e-06 0 0)
(9.69093e-06 0 0)
(9.69109e-06 0 0)
(9.69125e-06 0 0)
(9.69142e-06 0 0)
(9.69159e-06 0 0)
(9.69176e-06 0 0)
(9.69194e-06 0 0)
(9.69212e-06 0 0)
(9.6923e-06 0 0)
(9.69249e-06 0 0)
(9.69267e-06 0 0)
(9.69286e-06 0 0)
(9.69305e-06 0 0)
(9.69324e-06 0 0)
(9.69343e-06 0 0)
(9.69362e-06 0 0)
(9.69381e-06 0 0)
(9.69399e-06 0 0)
(9.69418e-06 0 0)
(9.69436e-06 0 0)
(9.69454e-06 0 0)
(9.69472e-06 0 0)
(9.69489e-06 0 0)
(9.69506e-06 0 0)
(9.69523e-06 0 0)
(9.69539e-06 0 0)
(9.69555e-06 0 0)
(9.69571e-06 0 0)
(9.69586e-06 0 0)
(9.696e-06 0 0)
(9.69614e-06 0 0)
(9.69628e-06 0 0)
(9.69641e-06 0 0)
(9.69653e-06 0 0)
(9.69665e-06 0 0)
(9.69676e-06 0 0)
(9.69687e-06 0 0)
(9.69697e-06 0 0)
(9.69707e-06 0 0)
(9.69716e-06 0 0)
(9.69725e-06 0 0)
(9.69733e-06 0 0)
(9.6974e-06 0 0)
(9.69747e-06 0 0)
(9.69754e-06 0 0)
(9.6976e-06 0 0)
(9.69765e-06 0 0)
(9.6977e-06 0 0)
(9.69775e-06 0 0)
(9.69779e-06 0 0)
(9.69783e-06 0 0)
(9.69786e-06 0 0)
(9.69789e-06 0 0)
(9.69791e-06 0 0)
(9.69793e-06 0 0)
(9.69795e-06 0 0)
(9.69796e-06 0 0)
(9.69797e-06 0 0)
(9.69797e-06 0 0)
(9.69797e-06 0 0)
(9.69797e-06 0 0)
(9.69797e-06 0 0)
(9.69796e-06 0 0)
(9.69795e-06 0 0)
(9.69793e-06 0 0)
(9.69791e-06 0 0)
(9.69788e-06 0 0)
(9.69785e-06 0 0)
(9.69781e-06 0 0)
(9.69777e-06 0 0)
(9.69772e-06 0 0)
(9.69767e-06 0 0)
(9.69761e-06 0 0)
(9.69755e-06 0 0)
(9.69748e-06 0 0)
(9.69741e-06 0 0)
(9.69733e-06 0 0)
(9.69724e-06 0 0)
(9.69715e-06 0 0)
(9.69705e-06 0 0)
(9.69694e-06 0 0)
(9.69683e-06 0 0)
(9.69671e-06 0 0)
(9.69658e-06 0 0)
(9.69645e-06 0 0)
(9.6963e-06 0 0)
(9.69615e-06 0 0)
(9.69599e-06 0 0)
(9.69582e-06 0 0)
(9.69564e-06 0 0)
(9.69546e-06 0 0)
(9.69526e-06 0 0)
(9.69505e-06 0 0)
(9.69484e-06 0 0)
(9.69461e-06 0 0)
(9.69437e-06 0 0)
(9.69412e-06 0 0)
(9.69386e-06 0 0)
)
;

boundaryField
{
    inlet
    {
        type            fixedValue;
        value           uniform (0 0 0);
    }
    outlet
    {
        type            zeroGradient;
    }
    emptyWalls
    {
        type            empty;
    }
}


// ************************************************************************* //
