/*--------------------------------*- C++ -*----------------------------------*\
  =========                 |
  \\      /  F ield         | OpenFOAM: The Open Source CFD Toolbox
   \\    /   O peration     | Website:  https://openfoam.org
    \\  /    A nd           | Version:  9
     \\/     M anipulation  |
\*---------------------------------------------------------------------------*/
FoamFile
{
    format      ascii;
    class       volScalarField;
    location    "3400";
    object      kra;
}
// * * * * * * * * * * * * * * * * * * * * * * * * * * * * * * * * * * * * * //

dimensions      [0 0 0 0 0 0 0];

internalField   nonuniform List<scalar> 
100
(
4.04307e-05
2.97482e-05
3.22537e-05
3.07972e-05
3.08552e-05
3.04502e-05
3.02496e-05
3.00103e-05
2.98099e-05
2.96166e-05
2.94379e-05
2.92683e-05
2.91077e-05
2.89542e-05
2.88071e-05
2.86654e-05
2.85283e-05
2.8395e-05
2.82648e-05
2.81367e-05
2.801e-05
2.78835e-05
2.77557e-05
2.76245e-05
2.74868e-05
2.73376e-05
2.73867e-05
2.74292e-05
2.74712e-05
2.75086e-05
2.75449e-05
2.75788e-05
2.76112e-05
2.76422e-05
2.76719e-05
2.77003e-05
2.77276e-05
2.77539e-05
2.77791e-05
2.78032e-05
2.78264e-05
2.78486e-05
2.78699e-05
2.78903e-05
2.79098e-05
2.79285e-05
2.79463e-05
2.79633e-05
2.79795e-05
2.79948e-05
2.80095e-05
2.80233e-05
2.80364e-05
2.80487e-05
2.80603e-05
2.80713e-05
2.80815e-05
2.8091e-05
2.80999e-05
2.81081e-05
2.81156e-05
2.81225e-05
2.81287e-05
2.81343e-05
2.81393e-05
2.81436e-05
2.81472e-05
2.81503e-05
2.81526e-05
2.81543e-05
2.81553e-05
2.81557e-05
2.81554e-05
2.81544e-05
2.81527e-05
2.81503e-05
2.81472e-05
2.81434e-05
2.81389e-05
2.81337e-05
2.81276e-05
2.81208e-05
2.81132e-05
2.81048e-05
2.80955e-05
2.80852e-05
2.8074e-05
2.80617e-05
2.80483e-05
2.80337e-05
2.80177e-05
2.80003e-05
2.79811e-05
2.79599e-05
2.79365e-05
2.79103e-05
2.78808e-05
2.78471e-05
2.7808e-05
7.75148e-05
)
;

boundaryField
{
    inlet
    {
        type            calculated;
        value           uniform 1.1947e-05;
    }
    outlet
    {
        type            calculated;
        value           uniform 7.70962e-06;
    }
    emptyWalls
    {
        type            empty;
    }
}


// ************************************************************************* //
