/*--------------------------------*- C++ -*----------------------------------*\
  =========                 |
  \\      /  F ield         | OpenFOAM: The Open Source CFD Toolbox
   \\    /   O peration     | Website:  https://openfoam.org
    \\  /    A nd           | Version:  9
     \\/     M anipulation  |
\*---------------------------------------------------------------------------*/
FoamFile
{
    format      ascii;
    class       volScalarField;
    location    "3400";
    object      p;
}
// * * * * * * * * * * * * * * * * * * * * * * * * * * * * * * * * * * * * * //

dimensions      [0 0 0 0 0 0 0];

internalField   nonuniform List<scalar> 
100
(
6.07527e+06
6.06723e+06
6.05631e+06
6.04625e+06
6.03572e+06
6.02521e+06
6.01457e+06
6.00387e+06
5.9931e+06
5.98226e+06
5.97135e+06
5.96039e+06
5.94938e+06
5.93831e+06
5.9272e+06
5.91603e+06
5.90483e+06
5.89358e+06
5.88228e+06
5.87095e+06
5.85958e+06
5.84816e+06
5.83671e+06
5.82522e+06
5.81369e+06
5.80212e+06
5.7905e+06
5.77892e+06
5.76738e+06
5.75587e+06
5.74439e+06
5.73295e+06
5.72154e+06
5.71016e+06
5.6988e+06
5.68748e+06
5.67619e+06
5.66493e+06
5.65369e+06
5.64248e+06
5.6313e+06
5.62014e+06
5.60902e+06
5.59792e+06
5.58684e+06
5.5758e+06
5.56477e+06
5.55378e+06
5.54281e+06
5.53186e+06
5.52095e+06
5.51005e+06
5.49918e+06
5.48834e+06
5.47752e+06
5.46673e+06
5.45596e+06
5.44522e+06
5.4345e+06
5.4238e+06
5.41314e+06
5.40249e+06
5.39187e+06
5.38127e+06
5.3707e+06
5.36016e+06
5.34963e+06
5.33914e+06
5.32866e+06
5.31821e+06
5.30779e+06
5.29739e+06
5.28701e+06
5.27666e+06
5.26634e+06
5.25604e+06
5.24576e+06
5.23551e+06
5.22528e+06
5.21508e+06
5.20491e+06
5.19476e+06
5.18464e+06
5.17454e+06
5.16447e+06
5.15443e+06
5.14442e+06
5.13443e+06
5.12448e+06
5.11455e+06
5.10465e+06
5.09478e+06
5.08495e+06
5.07514e+06
5.06538e+06
5.05565e+06
5.04596e+06
5.03631e+06
5.0267e+06
5.01715e+06
)
;

boundaryField
{
    inlet
    {
        type            darcyGradPressure;
        gradient        uniform 3.96218e+06;
        Mf              Mf;
        phi             phi;
        value           uniform 6.08319e+06;
    }
    outlet
    {
        type            fixedValue;
        value           uniform 5e+06;
    }
    emptyWalls
    {
        type            empty;
    }
}


// ************************************************************************* //
