/*--------------------------------*- C++ -*----------------------------------*\
  =========                 |
  \\      /  F ield         | OpenFOAM: The Open Source CFD Toolbox
   \\    /   O peration     | Website:  https://openfoam.org
    \\  /    A nd           | Version:  9
     \\/     M anipulation  |
\*---------------------------------------------------------------------------*/
FoamFile
{
    format      ascii;
    class       surfaceScalarField;
    location    "3400";
    object      phia;
}
// * * * * * * * * * * * * * * * * * * * * * * * * * * * * * * * * * * * * * //

dimensions      [0 2 0 0 0 0 0];

internalField   nonuniform List<scalar> 
99
(
1.42053e-08
1.41976e-08
1.41889e-08
1.41798e-08
1.41702e-08
1.41602e-08
1.41499e-08
1.41393e-08
1.41283e-08
1.41171e-08
1.41056e-08
1.40939e-08
1.40819e-08
1.40696e-08
1.40571e-08
1.40443e-08
1.40312e-08
1.40178e-08
1.4004e-08
1.39898e-08
1.39751e-08
1.39598e-08
1.39436e-08
1.39263e-08
1.39075e-08
1.38862e-08
1.38628e-08
1.38419e-08
1.38208e-08
1.38001e-08
1.37794e-08
1.37588e-08
1.37381e-08
1.37174e-08
1.36966e-08
1.36757e-08
1.36547e-08
1.36335e-08
1.36121e-08
1.35906e-08
1.35688e-08
1.35469e-08
1.35247e-08
1.35023e-08
1.34797e-08
1.34568e-08
1.34337e-08
1.34104e-08
1.33868e-08
1.3363e-08
1.33389e-08
1.33146e-08
1.329e-08
1.32652e-08
1.32401e-08
1.32147e-08
1.31891e-08
1.31632e-08
1.31371e-08
1.31107e-08
1.30841e-08
1.30571e-08
1.30299e-08
1.30024e-08
1.29746e-08
1.29465e-08
1.29181e-08
1.28893e-08
1.28602e-08
1.28308e-08
1.2801e-08
1.27708e-08
1.27402e-08
1.27092e-08
1.26778e-08
1.26459e-08
1.26136e-08
1.25808e-08
1.25474e-08
1.25134e-08
1.24789e-08
1.24438e-08
1.24079e-08
1.23713e-08
1.23338e-08
1.22955e-08
1.22562e-08
1.22157e-08
1.2174e-08
1.21308e-08
1.2086e-08
1.20393e-08
1.19903e-08
1.19386e-08
1.18837e-08
1.18249e-08
1.17612e-08
1.16912e-08
1.1613e-08
)
;

boundaryField
{
    inlet
    {
        type            calculated;
        value           uniform -1.42126e-08;
    }
    outlet
    {
        type            calculated;
        value           uniform 1.15607e-08;
    }
    emptyWalls
    {
        type            empty;
        value           nonuniform List<scalar> 0();
    }
}


// ************************************************************************* //
