/*--------------------------------*- C++ -*----------------------------------*\
  =========                 |
  \\      /  F ield         | OpenFOAM: The Open Source CFD Toolbox
   \\    /   O peration     | Website:  https://openfoam.org
    \\  /    A nd           | Version:  9
     \\/     M anipulation  |
\*---------------------------------------------------------------------------*/
FoamFile
{
    format      ascii;
    class       surfaceScalarField;
    location    "3400";
    object      phib;
}
// * * * * * * * * * * * * * * * * * * * * * * * * * * * * * * * * * * * * * //

dimensions      [0 2 0 0 0 0 0];

internalField   nonuniform List<scalar> 
99
(
6.09086e-09
6.09053e-09
6.09016e-09
6.08977e-09
6.08936e-09
6.08894e-09
6.0885e-09
6.08805e-09
6.08759e-09
6.08711e-09
6.08663e-09
6.08613e-09
6.08562e-09
6.08511e-09
6.08458e-09
6.08404e-09
6.08349e-09
6.08293e-09
6.08235e-09
6.08175e-09
6.08114e-09
6.0805e-09
6.07982e-09
6.0791e-09
6.0783e-09
6.07741e-09
6.0787e-09
6.07917e-09
6.08002e-09
6.08081e-09
6.0817e-09
6.08261e-09
6.08351e-09
6.08439e-09
6.08524e-09
6.08605e-09
6.08684e-09
6.08762e-09
6.0884e-09
6.08919e-09
6.08998e-09
6.0908e-09
6.09163e-09
6.09249e-09
6.09336e-09
6.09426e-09
6.09519e-09
6.09615e-09
6.09714e-09
6.09817e-09
6.09922e-09
6.10031e-09
6.10144e-09
6.10259e-09
6.10377e-09
6.10498e-09
6.10621e-09
6.10746e-09
6.10872e-09
6.11e-09
6.1113e-09
6.11261e-09
6.11394e-09
6.11529e-09
6.11667e-09
6.11806e-09
6.11948e-09
6.12094e-09
6.12243e-09
6.12395e-09
6.12552e-09
6.12712e-09
6.12877e-09
6.13046e-09
6.1322e-09
6.13399e-09
6.13583e-09
6.13771e-09
6.13965e-09
6.14164e-09
6.14369e-09
6.14579e-09
6.14795e-09
6.15018e-09
6.15248e-09
6.15486e-09
6.15733e-09
6.15989e-09
6.16256e-09
6.16536e-09
6.1683e-09
6.17141e-09
6.17472e-09
6.17826e-09
6.18209e-09
6.18626e-09
6.19088e-09
6.19605e-09
6.20196e-09
)
;

boundaryField
{
    inlet
    {
        type            calculated;
        value           uniform -6.09112e-09;
    }
    outlet
    {
        type            calculated;
        value           uniform 6.20269e-09;
    }
    emptyWalls
    {
        type            empty;
        value           nonuniform List<scalar> 0();
    }
}


// ************************************************************************* //
