/*--------------------------------*- C++ -*----------------------------------*\
  =========                 |
  \\      /  F ield         | OpenFOAM: The Open Source CFD Toolbox
   \\    /   O peration     | Website:  https://openfoam.org
    \\  /    A nd           | Version:  9
     \\/     M anipulation  |
\*---------------------------------------------------------------------------*/
FoamFile
{
    format      ascii;
    class       surfaceScalarField;
    location    "3400";
    object      phic;
}
// * * * * * * * * * * * * * * * * * * * * * * * * * * * * * * * * * * * * * //

dimensions      [0 2 0 0 0 0 0];

internalField   nonuniform List<scalar> 
99
(
7.54977e-12
1.56586e-11
2.46629e-11
3.41688e-11
4.41645e-11
5.45603e-11
6.53217e-11
7.64143e-11
8.78156e-11
9.95081e-11
1.1148e-10
1.23723e-10
1.36234e-10
1.49014e-10
1.62069e-10
1.7541e-10
1.89056e-10
2.03037e-10
2.17393e-10
2.32186e-10
2.47504e-10
2.63478e-10
2.80307e-10
2.983e-10
3.17962e-10
3.4016e-10
3.62201e-10
3.82684e-10
4.02929e-10
4.22803e-10
4.42584e-10
4.62318e-10
4.82088e-10
5.01934e-10
5.21892e-10
5.41983e-10
5.62226e-10
5.82633e-10
6.03213e-10
6.23976e-10
6.44927e-10
6.6607e-10
6.8741e-10
7.08951e-10
7.30694e-10
7.52644e-10
7.74803e-10
7.97173e-10
8.19756e-10
8.42555e-10
8.65572e-10
8.8881e-10
9.12272e-10
9.35959e-10
9.59876e-10
9.84024e-10
1.00841e-09
1.03303e-09
1.0579e-09
1.08301e-09
1.10838e-09
1.134e-09
1.15989e-09
1.18604e-09
1.21247e-09
1.23918e-09
1.26618e-09
1.29347e-09
1.32107e-09
1.34898e-09
1.37723e-09
1.4058e-09
1.43474e-09
1.46403e-09
1.49372e-09
1.5238e-09
1.55431e-09
1.58527e-09
1.6167e-09
1.64864e-09
1.68113e-09
1.71419e-09
1.74789e-09
1.78227e-09
1.8174e-09
1.85336e-09
1.89024e-09
1.92814e-09
1.96719e-09
2.00756e-09
2.04943e-09
2.09306e-09
2.13873e-09
2.18685e-09
2.2379e-09
2.29256e-09
2.35169e-09
2.41653e-09
2.48878e-09
)
;

boundaryField
{
    inlet
    {
        type            calculated;
        value           uniform 0;
    }
    outlet
    {
        type            calculated;
        value           uniform 2.54031e-09;
    }
    emptyWalls
    {
        type            empty;
        value           nonuniform List<scalar> 0();
    }
}


// ************************************************************************* //
