/*--------------------------------*- C++ -*----------------------------------*\
  =========                 |
  \\      /  F ield         | OpenFOAM: The Open Source CFD Toolbox
   \\    /   O peration     | Website:  https://openfoam.org
    \\  /    A nd           | Version:  9
     \\/     M anipulation  |
\*---------------------------------------------------------------------------*/
FoamFile
{
    format      ascii;
    class       volVectorField;
    location    "3400";
    object      Ua;
}
// * * * * * * * * * * * * * * * * * * * * * * * * * * * * * * * * * * * * * //

dimensions      [0 0 0 0 0 0 0];

internalField   nonuniform List<vector> 
100
(
(0 0 8.94569e-06)
(0 0 1.13011e-05)
(0 0 1.12946e-05)
(0 0 1.12876e-05)
(0 0 1.12801e-05)
(0 0 1.12723e-05)
(0 0 1.12642e-05)
(0 0 1.12559e-05)
(0 0 1.12473e-05)
(0 0 1.12385e-05)
(0 0 1.12295e-05)
(0 0 1.12202e-05)
(0 0 1.12108e-05)
(0 0 1.12011e-05)
(0 0 1.11913e-05)
(0 0 1.11812e-05)
(0 0 1.11709e-05)
(0 0 1.11603e-05)
(0 0 1.11495e-05)
(0 0 1.11384e-05)
(0 0 1.11269e-05)
(0 0 1.11149e-05)
(0 0 1.11024e-05)
(0 0 1.10891e-05)
(0 0 1.10747e-05)
(0 0 1.10587e-05)
(0 0 1.1041e-05)
(0 0 1.10234e-05)
(0 0 1.10066e-05)
(0 0 1.099e-05)
(0 0 1.09736e-05)
(0 0 1.09571e-05)
(0 0 1.09407e-05)
(0 0 1.09242e-05)
(0 0 1.09077e-05)
(0 0 1.08911e-05)
(0 0 1.08744e-05)
(0 0 1.08576e-05)
(0 0 1.08407e-05)
(0 0 1.08236e-05)
(0 0 1.08064e-05)
(0 0 1.0789e-05)
(0 0 1.07714e-05)
(0 0 1.07537e-05)
(0 0 1.07358e-05)
(0 0 1.07177e-05)
(0 0 1.06994e-05)
(0 0 1.06809e-05)
(0 0 1.06623e-05)
(0 0 1.06434e-05)
(0 0 1.06244e-05)
(0 0 1.06051e-05)
(0 0 1.05856e-05)
(0 0 1.0566e-05)
(0 0 1.05461e-05)
(0 0 1.0526e-05)
(0 0 1.05058e-05)
(0 0 1.04853e-05)
(0 0 1.04646e-05)
(0 0 1.04437e-05)
(0 0 1.04226e-05)
(0 0 1.04012e-05)
(0 0 1.03797e-05)
(0 0 1.03579e-05)
(0 0 1.03359e-05)
(0 0 1.03137e-05)
(0 0 1.02912e-05)
(0 0 1.02684e-05)
(0 0 1.02454e-05)
(0 0 1.02221e-05)
(0 0 1.01986e-05)
(0 0 1.01747e-05)
(0 0 1.01505e-05)
(0 0 1.0126e-05)
(0 0 1.01012e-05)
(0 0 1.0076e-05)
(0 0 1.00505e-05)
(0 0 1.00245e-05)
(0 0 9.99817e-06)
(0 0 9.97139e-06)
(0 0 9.94415e-06)
(0 0 9.91642e-06)
(0 0 9.88816e-06)
(0 0 9.85932e-06)
(0 0 9.82986e-06)
(0 0 9.79971e-06)
(0 0 9.7688e-06)
(0 0 9.73705e-06)
(0 0 9.70435e-06)
(0 0 9.67057e-06)
(0 0 9.63557e-06)
(0 0 9.59914e-06)
(0 0 9.56106e-06)
(0 0 9.52101e-06)
(0 0 9.47862e-06)
(0 0 9.43338e-06)
(0 0 9.3846e-06)
(0 0 9.33138e-06)
(0 0 9.27243e-06)
(0 0 9.22054e-06)
)
;

boundaryField
{
    inlet
    {
        type            fixedValue;
        value           uniform (0 0 1.131e-05);
    }
    outlet
    {
        type            zeroGradient;
    }
    emptyWalls
    {
        type            empty;
    }
}


// ************************************************************************* //
