/*--------------------------------*- C++ -*----------------------------------*\
  =========                 |
  \\      /  F ield         | OpenFOAM: The Open Source CFD Toolbox
   \\    /   O peration     | Website:  https://openfoam.org
    \\  /    A nd           | Version:  9
     \\/     M anipulation  |
\*---------------------------------------------------------------------------*/
FoamFile
{
    format      ascii;
    class       volVectorField;
    location    "3400";
    object      Ub;
}
// * * * * * * * * * * * * * * * * * * * * * * * * * * * * * * * * * * * * * //

dimensions      [0 0 0 0 0 0 0];

internalField   nonuniform List<vector> 
100
(
(0 0 7.20258e-06)
(0 0 4.84682e-06)
(0 0 4.84654e-06)
(0 0 4.84624e-06)
(0 0 4.84592e-06)
(0 0 4.84559e-06)
(0 0 4.84525e-06)
(0 0 4.8449e-06)
(0 0 4.84453e-06)
(0 0 4.84416e-06)
(0 0 4.84378e-06)
(0 0 4.84339e-06)
(0 0 4.84299e-06)
(0 0 4.84258e-06)
(0 0 4.84216e-06)
(0 0 4.84174e-06)
(0 0 4.84131e-06)
(0 0 4.84086e-06)
(0 0 4.84041e-06)
(0 0 4.83994e-06)
(0 0 4.83946e-06)
(0 0 4.83896e-06)
(0 0 4.83844e-06)
(0 0 4.83788e-06)
(0 0 4.83728e-06)
(0 0 4.8366e-06)
(0 0 4.83676e-06)
(0 0 4.83746e-06)
(0 0 4.83799e-06)
(0 0 4.83864e-06)
(0 0 4.83931e-06)
(0 0 4.84002e-06)
(0 0 4.84075e-06)
(0 0 4.84146e-06)
(0 0 4.84214e-06)
(0 0 4.8428e-06)
(0 0 4.84344e-06)
(0 0 4.84406e-06)
(0 0 4.84468e-06)
(0 0 4.84531e-06)
(0 0 4.84594e-06)
(0 0 4.84658e-06)
(0 0 4.84724e-06)
(0 0 4.84791e-06)
(0 0 4.84859e-06)
(0 0 4.8493e-06)
(0 0 4.85003e-06)
(0 0 4.85078e-06)
(0 0 4.85156e-06)
(0 0 4.85236e-06)
(0 0 4.85319e-06)
(0 0 4.85404e-06)
(0 0 4.85492e-06)
(0 0 4.85583e-06)
(0 0 4.85676e-06)
(0 0 4.85771e-06)
(0 0 4.85868e-06)
(0 0 4.85966e-06)
(0 0 4.86066e-06)
(0 0 4.86168e-06)
(0 0 4.8627e-06)
(0 0 4.86374e-06)
(0 0 4.86479e-06)
(0 0 4.86586e-06)
(0 0 4.86694e-06)
(0 0 4.86804e-06)
(0 0 4.86916e-06)
(0 0 4.87031e-06)
(0 0 4.87148e-06)
(0 0 4.87268e-06)
(0 0 4.87391e-06)
(0 0 4.87517e-06)
(0 0 4.87646e-06)
(0 0 4.87779e-06)
(0 0 4.87916e-06)
(0 0 4.88056e-06)
(0 0 4.88201e-06)
(0 0 4.88349e-06)
(0 0 4.88501e-06)
(0 0 4.88657e-06)
(0 0 4.88818e-06)
(0 0 4.88983e-06)
(0 0 4.89153e-06)
(0 0 4.89327e-06)
(0 0 4.89508e-06)
(0 0 4.89694e-06)
(0 0 4.89886e-06)
(0 0 4.90086e-06)
(0 0 4.90295e-06)
(0 0 4.90512e-06)
(0 0 4.90741e-06)
(0 0 4.90982e-06)
(0 0 4.91237e-06)
(0 0 4.91509e-06)
(0 0 4.91803e-06)
(0 0 4.92121e-06)
(0 0 4.92471e-06)
(0 0 4.9286e-06)
(0 0 4.93301e-06)
(0 0 4.93565e-06)
)
;

boundaryField
{
    inlet
    {
        type            fixedValue;
        value           uniform (0 0 4.84716e-06);
    }
    outlet
    {
        type            zeroGradient;
    }
    emptyWalls
    {
        type            empty;
    }
}


// ************************************************************************* //
