/*--------------------------------*- C++ -*----------------------------------*\
  =========                 |
  \\      /  F ield         | OpenFOAM: The Open Source CFD Toolbox
   \\    /   O peration     | Website:  https://openfoam.org
    \\  /    A nd           | Version:  9
     \\/     M anipulation  |
\*---------------------------------------------------------------------------*/
FoamFile
{
    format      ascii;
    class       volVectorField;
    location    "3400";
    object      Uc;
}
// * * * * * * * * * * * * * * * * * * * * * * * * * * * * * * * * * * * * * //

dimensions      [0 0 0 0 0 0 0];

internalField   nonuniform List<vector> 
100
(
(0 0 8.92777e-09)
(0 0 9.23433e-09)
(0 0 1.60434e-08)
(0 0 2.34084e-08)
(0 0 3.11679e-08)
(0 0 3.92813e-08)
(0 0 4.76995e-08)
(0 0 5.6395e-08)
(0 0 6.5345e-08)
(0 0 7.45337e-08)
(0 0 8.39494e-08)
(0 0 9.35841e-08)
(0 0 1.03434e-07)
(0 0 1.13497e-07)
(0 0 1.23776e-07)
(0 0 1.34279e-07)
(0 0 1.45017e-07)
(0 0 1.56009e-07)
(0 0 1.67284e-07)
(0 0 1.78882e-07)
(0 0 1.90862e-07)
(0 0 2.03313e-07)
(0 0 2.16365e-07)
(0 0 2.3022e-07)
(0 0 2.45203e-07)
(0 0 2.61858e-07)
(0 0 2.7946e-07)
(0 0 2.9638e-07)
(0 0 3.12585e-07)
(0 0 3.28549e-07)
(0 0 3.44327e-07)
(0 0 3.60049e-07)
(0 0 3.75767e-07)
(0 0 3.9153e-07)
(0 0 4.07368e-07)
(0 0 4.23302e-07)
(0 0 4.39351e-07)
(0 0 4.55525e-07)
(0 0 4.71833e-07)
(0 0 4.88283e-07)
(0 0 5.0488e-07)
(0 0 5.21629e-07)
(0 0 5.38533e-07)
(0 0 5.55594e-07)
(0 0 5.72817e-07)
(0 0 5.90202e-07)
(0 0 6.07752e-07)
(0 0 6.25469e-07)
(0 0 6.43356e-07)
(0 0 6.61413e-07)
(0 0 6.79642e-07)
(0 0 6.98047e-07)
(0 0 7.16628e-07)
(0 0 7.35388e-07)
(0 0 7.54329e-07)
(0 0 7.73453e-07)
(0 0 7.92764e-07)
(0 0 8.12264e-07)
(0 0 8.31956e-07)
(0 0 8.51843e-07)
(0 0 8.71929e-07)
(0 0 8.92217e-07)
(0 0 9.12712e-07)
(0 0 9.33417e-07)
(0 0 9.54339e-07)
(0 0 9.75481e-07)
(0 0 9.9685e-07)
(0 0 1.01845e-06)
(0 0 1.04029e-06)
(0 0 1.06238e-06)
(0 0 1.08472e-06)
(0 0 1.10733e-06)
(0 0 1.13022e-06)
(0 0 1.15338e-06)
(0 0 1.17685e-06)
(0 0 1.20063e-06)
(0 0 1.22474e-06)
(0 0 1.2492e-06)
(0 0 1.27402e-06)
(0 0 1.29924e-06)
(0 0 1.32487e-06)
(0 0 1.35095e-06)
(0 0 1.37752e-06)
(0 0 1.40461e-06)
(0 0 1.43226e-06)
(0 0 1.46055e-06)
(0 0 1.48953e-06)
(0 0 1.51928e-06)
(0 0 1.5499e-06)
(0 0 1.5815e-06)
(0 0 1.61423e-06)
(0 0 1.64825e-06)
(0 0 1.68378e-06)
(0 0 1.72109e-06)
(0 0 1.76055e-06)
(0 0 1.80261e-06)
(0 0 1.84789e-06)
(0 0 1.89722e-06)
(0 0 1.95176e-06)
(0 0 2.00101e-06)
)
;

boundaryField
{
    inlet
    {
        type            fixedValue;
        value           uniform (0 0 0);
    }
    outlet
    {
        type            zeroGradient;
    }
    emptyWalls
    {
        type            empty;
    }
}


// ************************************************************************* //
