/*--------------------------------*- C++ -*----------------------------------*\
  =========                 |
  \\      /  F ield         | OpenFOAM: The Open Source CFD Toolbox
   \\    /   O peration     | Website:  https://openfoam.org
    \\  /    A nd           | Version:  9
     \\/     M anipulation  |
\*---------------------------------------------------------------------------*/
FoamFile
{
    format      ascii;
    class       volScalarField;
    location    "27650";
    object      kra;
}
// * * * * * * * * * * * * * * * * * * * * * * * * * * * * * * * * * * * * * //

dimensions      [0 0 0 0 0 0 0];

internalField   nonuniform List<scalar> 
1000
(
0.000236612
0.000237326
0.000238273
0.000239232
0.000240183
0.000241162
0.000242108
0.000243113
0.000244063
0.000245098
0.000246058
0.000247117
0.000248104
0.000249166
0.000250191
0.000251246
0.000252298
0.00025335
0.000254399
0.000255441
0.000256461
0.000257462
0.000258433
0.000259361
0.000260253
0.000261073
0.000261866
0.000262544
0.000263229
0.00026376
0.000264326
0.000264744
0.000265183
0.000265533
0.000265919
0.00026647
0.00026802
0.000273655
0.000299101
0.000483831
0.000805088
0.000875475
0.000894432
0.000902669
0.000907438
0.000910722
0.000913225
0.000915255
0.000916949
0.000918396
0.000919659
0.000920808
0.00092188
0.000922882
0.000923786
0.000924541
0.000925139
0.000925622
0.000926048
0.000926501
0.000927034
0.000927651
0.00092825
0.000928666
0.000928821
0.000928827
0.00092878
0.000928639
0.00092857
0.000928577
0.000928762
0.000929924
0.000931613
0.000933583
0.000935716
0.000937837
0.00093976
0.000941347
0.000942479
0.00094318
0.000943472
0.000943525
0.000943512
0.00094341
0.000942696
0.000940886
0.000938699
0.000936305
0.000933847
0.000931444
0.000929186
0.000927134
0.000925313
0.000923731
0.000922367
0.000921201
0.000920195
0.000919316
0.00091852
0.00091777
0.000917017
0.000916225
0.000915347
0.000914353
0.000913202
0.000911869
0.000910324
0.000908562
0.000906581
0.000904415
0.000902102
0.000899686
0.000897202
0.000894671
0.000892112
0.000889536
0.000886954
0.000884372
0.000881796
0.00087923
0.000876676
0.000874138
0.000871616
0.000869111
0.000866625
0.000864158
0.000861712
0.000859286
0.000856882
0.000854499
0.000852139
0.000849801
0.000847485
0.000845192
0.00084292
0.000840669
0.000838439
0.000836228
0.000834036
0.000831863
0.000829709
0.000827575
0.000825461
0.00082337
0.000821303
0.000819258
0.000817238
0.000815241
0.000813265
0.00081131
0.000809371
0.000807449
0.000805539
0.000803642
0.000801757
0.000799883
0.000798022
0.000796176
0.000794347
0.00079254
0.000790756
0.000788996
0.000787259
0.000785542
0.000783842
0.000782156
0.00078048
0.00077881
0.000777142
0.000775474
0.000773802
0.000772125
0.000770446
0.00076877
0.000767109
0.000765478
0.000763893
0.000762374
0.000760937
0.000759594
0.000758354
0.00075722
0.000756188
0.000755253
0.000754403
0.000753626
0.000752906
0.000752229
0.000751577
0.000750932
0.000750275
0.000749586
0.000748843
0.000748025
0.000747111
0.000746081
0.000744919
0.000743614
0.000742159
0.000740555
0.000738806
0.000736927
0.000734934
0.000732849
0.000730697
0.000728505
0.000726298
0.000724099
0.000721932
0.000719814
0.000717758
0.000715776
0.000713873
0.000712052
0.00071031
0.000708646
0.000707052
0.000705522
0.000704047
0.00070262
0.000701231
0.000699873
0.000698538
0.00069722
0.000695913
0.000694613
0.000693316
0.00069202
0.000690722
0.000689422
0.000688118
0.000686812
0.000685503
0.000684193
0.000682881
0.000681569
0.000680258
0.00067895
0.000677643
0.000676342
0.000675044
0.000673752
0.000672465
0.000671186
0.000669912
0.000668648
0.000667389
0.000666141
0.000664898
0.000663667
0.000662441
0.000661228
0.000660019
0.000658825
0.000657632
0.000656457
0.000655281
0.000654123
0.000652964
0.000651824
0.00065068
0.000649559
0.000648431
0.000647327
0.000646216
0.000645131
0.000644036
0.00064297
0.000641892
0.000640845
0.000639784
0.000638755
0.000637711
0.000636698
0.000635669
0.000634671
0.000633656
0.000632671
0.000631669
0.000630697
0.000629709
0.000628749
0.000627775
0.000626829
0.00062587
0.000624938
0.000623996
0.000623078
0.000622152
0.000621247
0.000620334
0.000619439
0.000618536
0.000617646
0.000616749
0.000615861
0.000614968
0.000614082
0.000613194
0.000612316
0.000611441
0.00061058
0.000609731
0.000608904
0.000608097
0.000607319
0.00060657
0.000605857
0.00060518
0.000604544
0.000603947
0.000603391
0.000602875
0.000602398
0.000601955
0.000601545
0.000601161
0.000600799
0.000600451
0.000600111
0.00059977
0.000599421
0.000599055
0.000598663
0.000598237
0.000597769
0.000597251
0.000596677
0.000596041
0.000595341
0.000594573
0.000593737
0.000592834
0.000591868
0.000590842
0.000589764
0.000588639
0.000587478
0.000586287
0.000585077
0.000583856
0.000582634
0.000581417
0.000580214
0.000579028
0.000577869
0.000576735
0.000575634
0.000574562
0.000573526
0.000572518
0.000571545
0.000570597
0.000569681
0.000568784
0.000567915
0.000567059
0.000566225
0.0005654
0.000564592
0.000563787
0.000562994
0.000562202
0.000561419
0.000560632
0.000559853
0.000559068
0.00055829
0.000557505
0.000556727
0.000555942
0.000555163
0.000554377
0.000553598
0.000552812
0.000552034
0.00055125
0.000550475
0.000549694
0.000548922
0.000548146
0.000547379
0.000546608
0.000545848
0.000545084
0.000544331
0.000543574
0.000542829
0.00054208
0.000541344
0.000540603
0.000539875
0.000539143
0.000538425
0.000537701
0.000536992
0.000536277
0.000535578
0.000534871
0.000534182
0.000533484
0.000532805
0.000532116
0.000531447
0.000530766
0.000530107
0.000529435
0.000528787
0.000528122
0.000527484
0.000526827
0.000526199
0.00052555
0.00052493
0.000524288
0.000523678
0.000523042
0.000522441
0.000521812
0.00052122
0.000520597
0.000520013
0.000519397
0.000518822
0.000518212
0.000517645
0.000517042
0.000516482
0.000515884
0.000515332
0.000514738
0.000514191
0.000513601
0.00051306
0.000512473
0.000511937
0.000511354
0.000510825
0.000510246
0.000509726
0.000509155
0.000508647
0.00050809
0.0005076
0.00050706
0.000506594
0.000506078
0.000505642
0.000505156
0.000504756
0.000504304
0.000503945
0.00050353
0.000503213
0.000502836
0.000502561
0.00050222
0.000501982
0.000501672
0.000501465
0.000501177
0.000500992
0.000500716
0.000500539
0.000500261
0.000500079
0.000499786
0.000499583
0.00049926
0.000499019
0.000498653
0.000498361
0.00049794
0.000497585
0.0004971
0.000496675
0.000496122
0.000495623
0.000495002
0.000494432
0.00049375
0.000493116
0.000492382
0.000491695
0.000490922
0.000490197
0.000489401
0.000488653
0.000487848
0.000487093
0.000486294
0.000485545
0.000484763
0.000484031
0.000483274
0.000482566
0.00048184
0.000481161
0.000480466
0.000479817
0.000479154
0.000478534
0.000477898
0.000477306
0.000476694
0.000476124
0.000475531
0.000474981
0.000474402
0.000473867
0.000473297
0.000472775
0.000472211
0.000471698
0.000471135
0.00047063
0.000470067
0.000469568
0.000469002
0.000468508
0.000467939
0.000467451
0.000466878
0.000466395
0.000465817
0.00046534
0.000464758
0.000464287
0.000463702
0.000463238
0.00046265
0.000462194
0.000461604
0.000461155
0.000460564
0.000460122
0.000459531
0.000459097
0.000458507
0.000458081
0.000457493
0.000457073
0.000456488
0.000456076
0.000455494
0.000455088
0.000454511
0.000454111
0.000453538
0.000453145
0.000452578
0.00045219
0.000451628
0.000451246
0.00045069
0.000450314
0.000449764
0.000449393
0.000448848
0.000448483
0.000447944
0.000447585
0.000447051
0.000446697
0.000446168
0.000445819
0.000445295
0.000444951
0.000444433
0.000444094
0.00044358
0.000443246
0.000442737
0.000442408
0.000441903
0.000441578
0.000441078
0.000440757
0.000440261
0.000439945
0.000439452
0.000439139
0.000438651
0.000438341
0.000437856
0.000437551
0.00043707
0.000436768
0.000436291
0.000435994
0.000435523
0.000435232
0.000434768
0.000434485
0.00043403
0.000433757
0.000433313
0.000433053
0.000432623
0.000432379
0.000431966
0.000431739
0.000431345
0.000431138
0.000430765
0.00043058
0.000430229
0.000430067
0.000429738
0.000429598
0.00042929
0.00042917
0.000428881
0.000428778
0.000428505
0.000428414
0.000428152
0.000428069
0.00042781
0.000427729
0.000427468
0.00042738
0.00042711
0.000427009
0.000426722
0.0004266
0.000426289
0.000426139
0.000425797
0.000425614
0.000425237
0.000425016
0.000424599
0.000424338
0.00042388
0.000423578
0.00042308
0.000422738
0.000422202
0.000421825
0.000421256
0.000420848
0.000420252
0.000419821
0.000419206
0.000418758
0.000418131
0.000417675
0.000417042
0.000416585
0.000415954
0.000415501
0.000414878
0.000414435
0.000413824
0.000413394
0.000412797
0.000412383
0.000411802
0.000411404
0.00041084
0.000410458
0.00040991
0.000409543
0.000409009
0.000408656
0.000408135
0.000407794
0.000407283
0.000406952
0.00040645
0.000406126
0.000405631
0.000405313
0.000404823
0.000404509
0.000404022
0.000403711
0.000403228
0.000402919
0.000402437
0.00040213
0.000401649
0.000401343
0.000400863
0.000400558
0.000400079
0.000399775
0.000399297
0.000398994
0.000398518
0.000398215
0.000397741
0.00039744
0.000396967
0.000396668
0.000396197
0.000395901
0.000395432
0.000395138
0.000394672
0.000394381
0.000393918
0.00039363
0.00039317
0.000392885
0.000392429
0.000392147
0.000391695
0.000391416
0.000390967
0.000390693
0.000390248
0.000389977
0.000389536
0.000389269
0.000388832
0.000388569
0.000388135
0.000387876
0.000387447
0.000387191
0.000386766
0.000386514
0.000386092
0.000385844
0.000385426
0.000385182
0.000384768
0.000384527
0.000384116
0.000383879
0.000383472
0.000383238
0.000382834
0.000382604
0.000382203
0.000381976
0.000381578
0.000381354
0.000380959
0.000380737
0.000380346
0.000380127
0.000379738
0.000379522
0.000379137
0.000378924
0.000378541
0.000378331
0.000377952
0.000377746
0.000377371
0.000377169
0.000376798
0.000376602
0.000376236
0.000376046
0.000375687
0.000375504
0.000375153
0.000374978
0.000374637
0.000374472
0.000374141
0.000373987
0.000373667
0.000373525
0.000373218
0.000373089
0.000372795
0.000372679
0.000372399
0.000372296
0.000372028
0.000371938
0.000371682
0.000371603
0.000371358
0.000371289
0.000371052
0.000370989
0.000370758
0.0003707
0.000370472
0.000370414
0.000370185
0.000370125
0.00036989
0.000369824
0.00036958
0.000369503
0.000369247
0.000369155
0.000368882
0.000368772
0.00036848
0.000368349
0.000368034
0.000367879
0.00036754
0.00036736
0.000366996
0.000366791
0.000366401
0.000366171
0.000365756
0.000365502
0.000365066
0.000364791
0.000364334
0.000364041
0.000363569
0.000363261
0.000362776
0.000362459
0.000361965
0.000361642
0.000361144
0.000360818
0.000360319
0.000359994
0.000359498
0.000359178
0.000358686
0.000358372
0.000357888
0.000357582
0.000357106
0.00035681
0.000356342
0.000356056
0.000355597
0.000355322
0.000354871
0.000354605
0.000354163
0.000353905
0.00035347
0.00035322
0.000352791
0.000352547
0.000352125
0.000351886
0.000351468
0.000351233
0.00035082
0.000350588
0.000350178
0.000349949
0.00034954
0.000349314
0.000348907
0.000348682
0.000348277
0.000348053
0.000347649
0.000347426
0.000347023
0.000346802
0.0003464
0.000346179
0.000345778
0.000345558
0.000345158
0.000344939
0.000344541
0.000344323
0.000343927
0.00034371
0.000343315
0.0003431
0.000342707
0.000342494
0.000342102
0.000341891
0.000341501
0.000341293
0.000340905
0.000340699
0.000340313
0.00034011
0.000339726
0.000339525
0.000339143
0.000338946
0.000338566
0.000338372
0.000337994
0.000337803
0.000337426
0.00033724
0.000336863
0.000336682
0.000336306
0.000336131
0.000335752
0.000335584
0.000335204
0.000335043
0.000334662
0.000334506
0.000334123
0.000333975
0.00033359
0.000333448
0.00033306
0.000332926
0.000332535
0.000332409
0.000332015
0.000331896
0.000331498
0.000331387
0.000330986
0.000330882
0.000330479
0.000330379
0.000329978
0.000329878
0.000329481
0.000329383
0.000328989
0.000328892
0.000328502
0.000328406
0.00032802
0.000327926
0.000327546
0.000327453
0.00032708
0.000326986
0.000326622
0.000326527
0.000326175
0.000326078
0.000325739
0.000325641
0.000325315
0.000325218
0.000324905
0.000324808
0.000324508
0.000324415
0.000324127
0.000324038
0.000323761
0.000323677
0.000323411
0.000323332
0.000323076
0.000323002
0.000322755
0.000322685
0.000322446
0.00032238
0.000322147
0.000322085
0.000321855
0.000321796
0.000321568
0.00032151
0.000321281
0.000321223
0.000320992
0.000320933
0.000320697
0.000320636
0.000320391
0.000320328
0.00032007
0.000320003
0.00031973
0.000319658
0.000319366
0.000319289
0.000318975
0.000318893
0.000318555
0.000318467
0.000318104
0.00031801
0.000317622
0.00031752
0.000317104
0.000316996
0.00031655
0.000316434
0.00031596
0.000315838
0.000315342
0.000315215
0.000314703
0.000314572
0.000314045
0.000313911
0.000313372
0.000313237
0.000312393
0.0659865
)
;

boundaryField
{
    inlet
    {
        type            calculated;
        value           uniform 0.000236304;
    }
    outlet
    {
        type            calculated;
        value           uniform 3.30709e-05;
    }
    emptyWalls
    {
        type            empty;
    }
}


// ************************************************************************* //
