/*--------------------------------*- C++ -*----------------------------------*\
  =========                 |
  \\      /  F ield         | OpenFOAM: The Open Source CFD Toolbox
   \\    /   O peration     | Website:  https://openfoam.org
    \\  /    A nd           | Version:  9
     \\/     M anipulation  |
\*---------------------------------------------------------------------------*/
FoamFile
{
    format      ascii;
    class       volVectorField;
    location    "18350";
    object      Ua;
}
// * * * * * * * * * * * * * * * * * * * * * * * * * * * * * * * * * * * * * //

dimensions      [0 0 0 0 0 0 0];

internalField   nonuniform List<vector> 
1000
(
(2.74892e-06 0 0)
(2.74863e-06 0 0)
(2.74854e-06 0 0)
(2.74823e-06 0 0)
(2.74799e-06 0 0)
(2.74756e-06 0 0)
(2.74708e-06 0 0)
(2.74659e-06 0 0)
(2.74587e-06 0 0)
(2.74514e-06 0 0)
(2.74425e-06 0 0)
(2.74329e-06 0 0)
(2.74232e-06 0 0)
(2.74135e-06 0 0)
(2.74041e-06 0 0)
(2.73949e-06 0 0)
(2.73866e-06 0 0)
(2.73779e-06 0 0)
(2.73708e-06 0 0)
(2.73637e-06 0 0)
(2.73569e-06 0 0)
(2.73505e-06 0 0)
(2.73351e-06 0 0)
(2.72863e-06 0 0)
(2.7093e-06 0 0)
(2.59514e-06 0 0)
(2.34684e-06 0 0)
(2.17646e-06 0 0)
(2.15297e-06 0 0)
(2.15117e-06 0 0)
(2.1512e-06 0 0)
(2.14632e-06 0 0)
(2.13761e-06 0 0)
(2.12768e-06 0 0)
(2.11574e-06 0 0)
(2.10348e-06 0 0)
(2.09391e-06 0 0)
(2.08705e-06 0 0)
(2.08232e-06 0 0)
(2.07933e-06 0 0)
(2.0784e-06 0 0)
(2.07843e-06 0 0)
(2.07817e-06 0 0)
(2.07767e-06 0 0)
(2.07675e-06 0 0)
(2.07552e-06 0 0)
(2.07419e-06 0 0)
(2.07282e-06 0 0)
(2.07129e-06 0 0)
(2.06964e-06 0 0)
(2.068e-06 0 0)
(2.06637e-06 0 0)
(2.06479e-06 0 0)
(2.06324e-06 0 0)
(2.06174e-06 0 0)
(2.06028e-06 0 0)
(2.05887e-06 0 0)
(2.05752e-06 0 0)
(2.05623e-06 0 0)
(2.055e-06 0 0)
(2.05383e-06 0 0)
(2.05272e-06 0 0)
(2.05167e-06 0 0)
(2.05067e-06 0 0)
(2.04972e-06 0 0)
(2.04883e-06 0 0)
(2.04798e-06 0 0)
(2.0472e-06 0 0)
(2.04648e-06 0 0)
(2.04584e-06 0 0)
(2.0453e-06 0 0)
(2.04486e-06 0 0)
(2.0445e-06 0 0)
(2.04417e-06 0 0)
(2.04384e-06 0 0)
(2.04353e-06 0 0)
(2.04323e-06 0 0)
(2.04294e-06 0 0)
(2.04266e-06 0 0)
(2.0424e-06 0 0)
(2.04215e-06 0 0)
(2.04191e-06 0 0)
(2.04169e-06 0 0)
(2.04147e-06 0 0)
(2.04128e-06 0 0)
(2.0411e-06 0 0)
(2.04093e-06 0 0)
(2.04079e-06 0 0)
(2.04066e-06 0 0)
(2.04056e-06 0 0)
(2.04049e-06 0 0)
(2.04042e-06 0 0)
(2.04038e-06 0 0)
(2.04034e-06 0 0)
(2.04031e-06 0 0)
(2.04027e-06 0 0)
(2.04022e-06 0 0)
(2.04016e-06 0 0)
(2.04009e-06 0 0)
(2.04001e-06 0 0)
(2.03994e-06 0 0)
(2.03989e-06 0 0)
(2.03986e-06 0 0)
(2.03986e-06 0 0)
(2.03987e-06 0 0)
(2.0399e-06 0 0)
(2.03994e-06 0 0)
(2.03998e-06 0 0)
(2.04002e-06 0 0)
(2.04003e-06 0 0)
(2.04001e-06 0 0)
(2.03996e-06 0 0)
(2.03988e-06 0 0)
(2.0398e-06 0 0)
(2.03977e-06 0 0)
(2.03984e-06 0 0)
(2.04009e-06 0 0)
(2.04058e-06 0 0)
(2.04134e-06 0 0)
(2.0424e-06 0 0)
(2.04377e-06 0 0)
(2.04541e-06 0 0)
(2.0473e-06 0 0)
(2.0494e-06 0 0)
(2.05164e-06 0 0)
(2.05398e-06 0 0)
(2.05636e-06 0 0)
(2.05873e-06 0 0)
(2.06101e-06 0 0)
(2.06315e-06 0 0)
(2.06507e-06 0 0)
(2.06668e-06 0 0)
(2.06793e-06 0 0)
(2.06873e-06 0 0)
(2.06904e-06 0 0)
(2.06883e-06 0 0)
(2.06808e-06 0 0)
(2.06683e-06 0 0)
(2.0651e-06 0 0)
(2.06297e-06 0 0)
(2.06052e-06 0 0)
(2.05784e-06 0 0)
(2.05504e-06 0 0)
(2.05222e-06 0 0)
(2.04946e-06 0 0)
(2.04684e-06 0 0)
(2.04442e-06 0 0)
(2.04225e-06 0 0)
(2.04036e-06 0 0)
(2.03875e-06 0 0)
(2.03741e-06 0 0)
(2.03634e-06 0 0)
(2.03551e-06 0 0)
(2.03489e-06 0 0)
(2.03444e-06 0 0)
(2.03413e-06 0 0)
(2.03392e-06 0 0)
(2.03377e-06 0 0)
(2.03367e-06 0 0)
(2.03358e-06 0 0)
(2.03349e-06 0 0)
(2.03338e-06 0 0)
(2.03323e-06 0 0)
(2.03305e-06 0 0)
(2.03282e-06 0 0)
(2.03255e-06 0 0)
(2.03224e-06 0 0)
(2.03188e-06 0 0)
(2.03149e-06 0 0)
(2.03107e-06 0 0)
(2.03061e-06 0 0)
(2.03014e-06 0 0)
(2.02965e-06 0 0)
(2.02914e-06 0 0)
(2.02862e-06 0 0)
(2.0281e-06 0 0)
(2.02757e-06 0 0)
(2.02704e-06 0 0)
(2.02652e-06 0 0)
(2.02599e-06 0 0)
(2.02548e-06 0 0)
(2.02496e-06 0 0)
(2.02446e-06 0 0)
(2.02396e-06 0 0)
(2.02347e-06 0 0)
(2.02299e-06 0 0)
(2.02251e-06 0 0)
(2.02205e-06 0 0)
(2.0216e-06 0 0)
(2.02115e-06 0 0)
(2.02072e-06 0 0)
(2.02029e-06 0 0)
(2.01987e-06 0 0)
(2.01947e-06 0 0)
(2.01907e-06 0 0)
(2.01869e-06 0 0)
(2.01832e-06 0 0)
(2.01795e-06 0 0)
(2.0176e-06 0 0)
(2.01726e-06 0 0)
(2.01692e-06 0 0)
(2.0166e-06 0 0)
(2.01629e-06 0 0)
(2.01599e-06 0 0)
(2.0157e-06 0 0)
(2.01542e-06 0 0)
(2.01515e-06 0 0)
(2.01489e-06 0 0)
(2.01464e-06 0 0)
(2.0144e-06 0 0)
(2.01417e-06 0 0)
(2.01396e-06 0 0)
(2.01376e-06 0 0)
(2.01357e-06 0 0)
(2.01339e-06 0 0)
(2.01322e-06 0 0)
(2.01306e-06 0 0)
(2.01292e-06 0 0)
(2.01278e-06 0 0)
(2.01265e-06 0 0)
(2.01253e-06 0 0)
(2.01241e-06 0 0)
(2.0123e-06 0 0)
(2.01219e-06 0 0)
(2.01209e-06 0 0)
(2.01199e-06 0 0)
(2.01189e-06 0 0)
(2.0118e-06 0 0)
(2.01172e-06 0 0)
(2.01164e-06 0 0)
(2.01157e-06 0 0)
(2.0115e-06 0 0)
(2.01144e-06 0 0)
(2.01138e-06 0 0)
(2.01133e-06 0 0)
(2.01127e-06 0 0)
(2.01122e-06 0 0)
(2.01116e-06 0 0)
(2.0111e-06 0 0)
(2.01103e-06 0 0)
(2.01097e-06 0 0)
(2.01092e-06 0 0)
(2.01088e-06 0 0)
(2.01087e-06 0 0)
(2.01089e-06 0 0)
(2.01097e-06 0 0)
(2.0111e-06 0 0)
(2.01132e-06 0 0)
(2.01162e-06 0 0)
(2.01202e-06 0 0)
(2.01253e-06 0 0)
(2.01316e-06 0 0)
(2.01391e-06 0 0)
(2.01477e-06 0 0)
(2.01576e-06 0 0)
(2.01687e-06 0 0)
(2.01807e-06 0 0)
(2.01937e-06 0 0)
(2.02074e-06 0 0)
(2.02216e-06 0 0)
(2.02362e-06 0 0)
(2.02509e-06 0 0)
(2.02653e-06 0 0)
(2.02792e-06 0 0)
(2.02923e-06 0 0)
(2.03042e-06 0 0)
(2.03147e-06 0 0)
(2.03235e-06 0 0)
(2.03303e-06 0 0)
(2.03349e-06 0 0)
(2.03372e-06 0 0)
(2.03369e-06 0 0)
(2.03341e-06 0 0)
(2.03288e-06 0 0)
(2.0321e-06 0 0)
(2.0311e-06 0 0)
(2.02988e-06 0 0)
(2.02849e-06 0 0)
(2.02695e-06 0 0)
(2.02528e-06 0 0)
(2.02354e-06 0 0)
(2.02175e-06 0 0)
(2.01995e-06 0 0)
(2.01816e-06 0 0)
(2.01643e-06 0 0)
(2.01476e-06 0 0)
(2.01319e-06 0 0)
(2.01172e-06 0 0)
(2.01036e-06 0 0)
(2.00913e-06 0 0)
(2.00802e-06 0 0)
(2.00703e-06 0 0)
(2.00615e-06 0 0)
(2.00538e-06 0 0)
(2.00471e-06 0 0)
(2.00412e-06 0 0)
(2.00362e-06 0 0)
(2.00317e-06 0 0)
(2.00278e-06 0 0)
(2.00243e-06 0 0)
(2.00211e-06 0 0)
(2.00181e-06 0 0)
(2.00152e-06 0 0)
(2.00124e-06 0 0)
(2.00096e-06 0 0)
(2.00067e-06 0 0)
(2.00038e-06 0 0)
(2.00007e-06 0 0)
(1.99975e-06 0 0)
(1.99942e-06 0 0)
(1.99906e-06 0 0)
(1.9987e-06 0 0)
(1.99832e-06 0 0)
(1.99792e-06 0 0)
(1.99751e-06 0 0)
(1.99709e-06 0 0)
(1.99666e-06 0 0)
(1.99622e-06 0 0)
(1.99577e-06 0 0)
(1.99532e-06 0 0)
(1.99487e-06 0 0)
(1.99441e-06 0 0)
(1.99395e-06 0 0)
(1.99349e-06 0 0)
(1.99303e-06 0 0)
(1.99257e-06 0 0)
(1.99211e-06 0 0)
(1.99166e-06 0 0)
(1.99121e-06 0 0)
(1.99077e-06 0 0)
(1.99033e-06 0 0)
(1.9899e-06 0 0)
(1.98947e-06 0 0)
(1.98905e-06 0 0)
(1.98863e-06 0 0)
(1.98822e-06 0 0)
(1.98782e-06 0 0)
(1.98742e-06 0 0)
(1.98703e-06 0 0)
(1.98665e-06 0 0)
(1.98627e-06 0 0)
(1.98591e-06 0 0)
(1.98554e-06 0 0)
(1.98519e-06 0 0)
(1.98484e-06 0 0)
(1.9845e-06 0 0)
(1.98417e-06 0 0)
(1.98385e-06 0 0)
(1.98353e-06 0 0)
(1.98322e-06 0 0)
(1.98292e-06 0 0)
(1.98262e-06 0 0)
(1.98233e-06 0 0)
(1.98205e-06 0 0)
(1.98178e-06 0 0)
(1.98152e-06 0 0)
(1.98126e-06 0 0)
(1.98102e-06 0 0)
(1.98078e-06 0 0)
(1.98054e-06 0 0)
(1.98032e-06 0 0)
(1.9801e-06 0 0)
(1.9799e-06 0 0)
(1.97969e-06 0 0)
(1.9795e-06 0 0)
(1.97931e-06 0 0)
(1.97913e-06 0 0)
(1.97896e-06 0 0)
(1.97879e-06 0 0)
(1.97863e-06 0 0)
(1.97847e-06 0 0)
(1.97832e-06 0 0)
(1.97817e-06 0 0)
(1.97803e-06 0 0)
(1.97789e-06 0 0)
(1.97776e-06 0 0)
(1.97763e-06 0 0)
(1.97751e-06 0 0)
(1.97739e-06 0 0)
(1.97727e-06 0 0)
(1.97716e-06 0 0)
(1.97705e-06 0 0)
(1.97694e-06 0 0)
(1.97684e-06 0 0)
(1.97674e-06 0 0)
(1.97664e-06 0 0)
(1.97655e-06 0 0)
(1.97646e-06 0 0)
(1.97638e-06 0 0)
(1.97631e-06 0 0)
(1.97626e-06 0 0)
(1.97621e-06 0 0)
(1.97619e-06 0 0)
(1.97619e-06 0 0)
(1.97622e-06 0 0)
(1.97628e-06 0 0)
(1.97638e-06 0 0)
(1.97652e-06 0 0)
(1.97671e-06 0 0)
(1.97695e-06 0 0)
(1.97725e-06 0 0)
(1.97761e-06 0 0)
(1.97803e-06 0 0)
(1.97852e-06 0 0)
(1.97907e-06 0 0)
(1.97968e-06 0 0)
(1.98036e-06 0 0)
(1.98109e-06 0 0)
(1.98188e-06 0 0)
(1.98273e-06 0 0)
(1.98361e-06 0 0)
(1.98452e-06 0 0)
(1.98546e-06 0 0)
(1.98642e-06 0 0)
(1.98737e-06 0 0)
(1.98832e-06 0 0)
(1.98924e-06 0 0)
(1.99012e-06 0 0)
(1.99095e-06 0 0)
(1.99171e-06 0 0)
(1.99239e-06 0 0)
(1.99298e-06 0 0)
(1.99347e-06 0 0)
(1.99384e-06 0 0)
(1.99408e-06 0 0)
(1.99419e-06 0 0)
(1.99416e-06 0 0)
(1.99399e-06 0 0)
(1.99368e-06 0 0)
(1.99323e-06 0 0)
(1.99264e-06 0 0)
(1.99192e-06 0 0)
(1.99108e-06 0 0)
(1.99014e-06 0 0)
(1.98909e-06 0 0)
(1.98797e-06 0 0)
(1.98678e-06 0 0)
(1.98553e-06 0 0)
(1.98425e-06 0 0)
(1.98295e-06 0 0)
(1.98165e-06 0 0)
(1.98035e-06 0 0)
(1.97908e-06 0 0)
(1.97783e-06 0 0)
(1.97663e-06 0 0)
(1.97548e-06 0 0)
(1.97438e-06 0 0)
(1.97334e-06 0 0)
(1.97237e-06 0 0)
(1.97145e-06 0 0)
(1.97061e-06 0 0)
(1.96982e-06 0 0)
(1.96909e-06 0 0)
(1.96842e-06 0 0)
(1.96781e-06 0 0)
(1.96724e-06 0 0)
(1.96671e-06 0 0)
(1.96622e-06 0 0)
(1.96577e-06 0 0)
(1.96534e-06 0 0)
(1.96494e-06 0 0)
(1.96456e-06 0 0)
(1.96419e-06 0 0)
(1.96383e-06 0 0)
(1.96348e-06 0 0)
(1.96313e-06 0 0)
(1.96278e-06 0 0)
(1.96244e-06 0 0)
(1.96209e-06 0 0)
(1.96173e-06 0 0)
(1.96138e-06 0 0)
(1.96101e-06 0 0)
(1.96064e-06 0 0)
(1.96026e-06 0 0)
(1.95987e-06 0 0)
(1.95948e-06 0 0)
(1.95907e-06 0 0)
(1.95867e-06 0 0)
(1.95825e-06 0 0)
(1.95783e-06 0 0)
(1.95741e-06 0 0)
(1.95698e-06 0 0)
(1.95655e-06 0 0)
(1.95611e-06 0 0)
(1.95567e-06 0 0)
(1.95524e-06 0 0)
(1.9548e-06 0 0)
(1.95436e-06 0 0)
(1.95392e-06 0 0)
(1.95348e-06 0 0)
(1.95305e-06 0 0)
(1.95261e-06 0 0)
(1.95218e-06 0 0)
(1.95175e-06 0 0)
(1.95133e-06 0 0)
(1.95091e-06 0 0)
(1.95049e-06 0 0)
(1.95007e-06 0 0)
(1.94967e-06 0 0)
(1.94926e-06 0 0)
(1.94886e-06 0 0)
(1.94847e-06 0 0)
(1.94808e-06 0 0)
(1.9477e-06 0 0)
(1.94732e-06 0 0)
(1.94695e-06 0 0)
(1.94658e-06 0 0)
(1.94622e-06 0 0)
(1.94586e-06 0 0)
(1.94551e-06 0 0)
(1.94517e-06 0 0)
(1.94484e-06 0 0)
(1.94451e-06 0 0)
(1.94418e-06 0 0)
(1.94386e-06 0 0)
(1.94355e-06 0 0)
(1.94325e-06 0 0)
(1.94295e-06 0 0)
(1.94266e-06 0 0)
(1.94238e-06 0 0)
(1.9421e-06 0 0)
(1.94183e-06 0 0)
(1.94156e-06 0 0)
(1.9413e-06 0 0)
(1.94105e-06 0 0)
(1.94081e-06 0 0)
(1.94057e-06 0 0)
(1.94034e-06 0 0)
(1.94011e-06 0 0)
(1.93989e-06 0 0)
(1.93968e-06 0 0)
(1.93947e-06 0 0)
(1.93927e-06 0 0)
(1.93907e-06 0 0)
(1.93888e-06 0 0)
(1.93869e-06 0 0)
(1.93851e-06 0 0)
(1.93833e-06 0 0)
(1.93816e-06 0 0)
(1.93799e-06 0 0)
(1.93783e-06 0 0)
(1.93767e-06 0 0)
(1.93752e-06 0 0)
(1.93737e-06 0 0)
(1.93722e-06 0 0)
(1.93708e-06 0 0)
(1.93694e-06 0 0)
(1.9368e-06 0 0)
(1.93667e-06 0 0)
(1.93655e-06 0 0)
(1.93643e-06 0 0)
(1.93631e-06 0 0)
(1.9362e-06 0 0)
(1.9361e-06 0 0)
(1.93601e-06 0 0)
(1.93593e-06 0 0)
(1.93586e-06 0 0)
(1.9358e-06 0 0)
(1.93575e-06 0 0)
(1.93573e-06 0 0)
(1.93572e-06 0 0)
(1.93573e-06 0 0)
(1.93577e-06 0 0)
(1.93583e-06 0 0)
(1.93591e-06 0 0)
(1.93603e-06 0 0)
(1.93618e-06 0 0)
(1.93637e-06 0 0)
(1.93658e-06 0 0)
(1.93684e-06 0 0)
(1.93713e-06 0 0)
(1.93746e-06 0 0)
(1.93783e-06 0 0)
(1.93824e-06 0 0)
(1.93868e-06 0 0)
(1.93916e-06 0 0)
(1.93967e-06 0 0)
(1.94021e-06 0 0)
(1.94078e-06 0 0)
(1.94138e-06 0 0)
(1.94199e-06 0 0)
(1.94262e-06 0 0)
(1.94326e-06 0 0)
(1.9439e-06 0 0)
(1.94454e-06 0 0)
(1.94517e-06 0 0)
(1.94579e-06 0 0)
(1.94639e-06 0 0)
(1.94695e-06 0 0)
(1.94748e-06 0 0)
(1.94797e-06 0 0)
(1.9484e-06 0 0)
(1.94878e-06 0 0)
(1.94909e-06 0 0)
(1.94934e-06 0 0)
(1.94951e-06 0 0)
(1.9496e-06 0 0)
(1.94961e-06 0 0)
(1.94954e-06 0 0)
(1.94937e-06 0 0)
(1.94912e-06 0 0)
(1.94879e-06 0 0)
(1.94836e-06 0 0)
(1.94786e-06 0 0)
(1.94727e-06 0 0)
(1.94661e-06 0 0)
(1.94587e-06 0 0)
(1.94507e-06 0 0)
(1.94421e-06 0 0)
(1.94331e-06 0 0)
(1.94236e-06 0 0)
(1.94137e-06 0 0)
(1.94036e-06 0 0)
(1.93932e-06 0 0)
(1.93828e-06 0 0)
(1.93723e-06 0 0)
(1.93618e-06 0 0)
(1.93515e-06 0 0)
(1.93412e-06 0 0)
(1.93312e-06 0 0)
(1.93215e-06 0 0)
(1.9312e-06 0 0)
(1.93028e-06 0 0)
(1.9294e-06 0 0)
(1.92855e-06 0 0)
(1.92773e-06 0 0)
(1.92696e-06 0 0)
(1.92622e-06 0 0)
(1.92551e-06 0 0)
(1.92484e-06 0 0)
(1.9242e-06 0 0)
(1.92359e-06 0 0)
(1.92301e-06 0 0)
(1.92245e-06 0 0)
(1.92192e-06 0 0)
(1.92141e-06 0 0)
(1.92092e-06 0 0)
(1.92045e-06 0 0)
(1.91998e-06 0 0)
(1.91954e-06 0 0)
(1.9191e-06 0 0)
(1.91867e-06 0 0)
(1.91824e-06 0 0)
(1.91782e-06 0 0)
(1.9174e-06 0 0)
(1.91699e-06 0 0)
(1.91657e-06 0 0)
(1.91615e-06 0 0)
(1.91573e-06 0 0)
(1.91531e-06 0 0)
(1.91489e-06 0 0)
(1.91446e-06 0 0)
(1.91403e-06 0 0)
(1.9136e-06 0 0)
(1.91316e-06 0 0)
(1.91272e-06 0 0)
(1.91228e-06 0 0)
(1.91183e-06 0 0)
(1.91138e-06 0 0)
(1.91093e-06 0 0)
(1.91047e-06 0 0)
(1.91001e-06 0 0)
(1.90956e-06 0 0)
(1.9091e-06 0 0)
(1.90864e-06 0 0)
(1.90817e-06 0 0)
(1.90771e-06 0 0)
(1.90725e-06 0 0)
(1.90679e-06 0 0)
(1.90633e-06 0 0)
(1.90588e-06 0 0)
(1.90542e-06 0 0)
(1.90497e-06 0 0)
(1.90452e-06 0 0)
(1.90407e-06 0 0)
(1.90363e-06 0 0)
(1.90318e-06 0 0)
(1.90275e-06 0 0)
(1.90231e-06 0 0)
(1.90188e-06 0 0)
(1.90146e-06 0 0)
(1.90104e-06 0 0)
(1.90062e-06 0 0)
(1.90021e-06 0 0)
(1.89981e-06 0 0)
(1.89941e-06 0 0)
(1.89902e-06 0 0)
(1.89863e-06 0 0)
(1.89825e-06 0 0)
(1.89788e-06 0 0)
(1.89751e-06 0 0)
(1.89715e-06 0 0)
(1.8968e-06 0 0)
(1.89646e-06 0 0)
(1.89613e-06 0 0)
(1.89581e-06 0 0)
(1.8955e-06 0 0)
(1.8952e-06 0 0)
(1.89492e-06 0 0)
(1.89464e-06 0 0)
(1.89438e-06 0 0)
(1.89414e-06 0 0)
(1.89391e-06 0 0)
(1.89369e-06 0 0)
(1.89349e-06 0 0)
(1.89331e-06 0 0)
(1.89315e-06 0 0)
(1.893e-06 0 0)
(1.89287e-06 0 0)
(1.89276e-06 0 0)
(1.89266e-06 0 0)
(1.89258e-06 0 0)
(1.89252e-06 0 0)
(1.89247e-06 0 0)
(1.89244e-06 0 0)
(1.89243e-06 0 0)
(1.89242e-06 0 0)
(1.89243e-06 0 0)
(1.89245e-06 0 0)
(1.89249e-06 0 0)
(1.89252e-06 0 0)
(1.89258e-06 0 0)
(1.89263e-06 0 0)
(1.89269e-06 0 0)
(1.89275e-06 0 0)
(1.89281e-06 0 0)
(1.89287e-06 0 0)
(1.8929e-06 0 0)
(1.89288e-06 0 0)
(1.89279e-06 0 0)
(1.89253e-06 0 0)
(1.89202e-06 0 0)
(1.89103e-06 0 0)
(1.88928e-06 0 0)
(1.88636e-06 0 0)
(1.88187e-06 0 0)
(1.87577e-06 0 0)
(1.86869e-06 0 0)
(1.86203e-06 0 0)
(1.85707e-06 0 0)
(1.85409e-06 0 0)
(1.85263e-06 0 0)
(1.85202e-06 0 0)
(1.85185e-06 0 0)
(1.85188e-06 0 0)
(1.85202e-06 0 0)
(1.85223e-06 0 0)
(1.85246e-06 0 0)
(1.85273e-06 0 0)
(1.85301e-06 0 0)
(1.85332e-06 0 0)
(1.85365e-06 0 0)
(1.85399e-06 0 0)
(1.85436e-06 0 0)
(1.85475e-06 0 0)
(1.85516e-06 0 0)
(1.85559e-06 0 0)
(1.85604e-06 0 0)
(1.85651e-06 0 0)
(1.85701e-06 0 0)
(1.85752e-06 0 0)
(1.85806e-06 0 0)
(1.85862e-06 0 0)
(1.85919e-06 0 0)
(1.85978e-06 0 0)
(1.86039e-06 0 0)
(1.86101e-06 0 0)
(1.86164e-06 0 0)
(1.86228e-06 0 0)
(1.86293e-06 0 0)
(1.86359e-06 0 0)
(1.86425e-06 0 0)
(1.8649e-06 0 0)
(1.86556e-06 0 0)
(1.8662e-06 0 0)
(1.86684e-06 0 0)
(1.86747e-06 0 0)
(1.86808e-06 0 0)
(1.86867e-06 0 0)
(1.86924e-06 0 0)
(1.86978e-06 0 0)
(1.87029e-06 0 0)
(1.87077e-06 0 0)
(1.87122e-06 0 0)
(1.87162e-06 0 0)
(1.87199e-06 0 0)
(1.87231e-06 0 0)
(1.87258e-06 0 0)
(1.8728e-06 0 0)
(1.87296e-06 0 0)
(1.87307e-06 0 0)
(1.87313e-06 0 0)
(1.87315e-06 0 0)
(1.87315e-06 0 0)
(1.87313e-06 0 0)
(1.87302e-06 0 0)
(1.87282e-06 0 0)
(1.87257e-06 0 0)
(1.87228e-06 0 0)
(1.87195e-06 0 0)
(1.87158e-06 0 0)
(1.87117e-06 0 0)
(1.87073e-06 0 0)
(1.87026e-06 0 0)
(1.86976e-06 0 0)
(1.86923e-06 0 0)
(1.86869e-06 0 0)
(1.86813e-06 0 0)
(1.86755e-06 0 0)
(1.86697e-06 0 0)
(1.86638e-06 0 0)
(1.86579e-06 0 0)
(1.86521e-06 0 0)
(1.86462e-06 0 0)
(1.86405e-06 0 0)
(1.86349e-06 0 0)
(1.86294e-06 0 0)
(1.8624e-06 0 0)
(1.86188e-06 0 0)
(1.86138e-06 0 0)
(1.8609e-06 0 0)
(1.86044e-06 0 0)
(1.86e-06 0 0)
(1.85959e-06 0 0)
(1.85919e-06 0 0)
(1.85881e-06 0 0)
(1.85846e-06 0 0)
(1.85813e-06 0 0)
(1.85781e-06 0 0)
(1.85752e-06 0 0)
(1.85724e-06 0 0)
(1.85698e-06 0 0)
(1.85674e-06 0 0)
(1.85651e-06 0 0)
(1.85629e-06 0 0)
(1.85609e-06 0 0)
(1.8559e-06 0 0)
(1.85572e-06 0 0)
(1.85554e-06 0 0)
(1.85538e-06 0 0)
(1.85522e-06 0 0)
(1.85507e-06 0 0)
(1.85492e-06 0 0)
(1.85478e-06 0 0)
(1.85464e-06 0 0)
(1.8545e-06 0 0)
(1.85436e-06 0 0)
(1.85423e-06 0 0)
(1.8541e-06 0 0)
(1.85396e-06 0 0)
(1.85383e-06 0 0)
(1.8537e-06 0 0)
(1.85356e-06 0 0)
(1.85343e-06 0 0)
(1.85329e-06 0 0)
(1.85315e-06 0 0)
(1.85302e-06 0 0)
(1.85288e-06 0 0)
(1.85274e-06 0 0)
(1.8526e-06 0 0)
(1.85246e-06 0 0)
(1.85232e-06 0 0)
(1.85218e-06 0 0)
(1.85203e-06 0 0)
(1.85189e-06 0 0)
(1.85175e-06 0 0)
(1.85161e-06 0 0)
(1.85147e-06 0 0)
(1.85133e-06 0 0)
(1.85119e-06 0 0)
(1.85105e-06 0 0)
(1.85091e-06 0 0)
(1.85078e-06 0 0)
(1.85064e-06 0 0)
(1.85051e-06 0 0)
(1.85038e-06 0 0)
(1.85026e-06 0 0)
(1.85013e-06 0 0)
(1.85001e-06 0 0)
(1.84989e-06 0 0)
(1.84978e-06 0 0)
(1.84967e-06 0 0)
(1.84956e-06 0 0)
(1.84945e-06 0 0)
(1.84935e-06 0 0)
(1.84925e-06 0 0)
(1.84916e-06 0 0)
(1.84907e-06 0 0)
(1.84898e-06 0 0)
(1.8489e-06 0 0)
(1.84882e-06 0 0)
(1.84874e-06 0 0)
(1.84867e-06 0 0)
(1.8486e-06 0 0)
(1.84854e-06 0 0)
(1.84848e-06 0 0)
(1.84843e-06 0 0)
(1.84838e-06 0 0)
(1.84833e-06 0 0)
(1.84829e-06 0 0)
(1.84826e-06 0 0)
(1.84822e-06 0 0)
(1.8482e-06 0 0)
(1.84817e-06 0 0)
(1.84815e-06 0 0)
(1.84814e-06 0 0)
(1.84813e-06 0 0)
(1.84812e-06 0 0)
(1.84812e-06 0 0)
(1.84812e-06 0 0)
(1.84812e-06 0 0)
(1.84813e-06 0 0)
(1.84814e-06 0 0)
(1.84816e-06 0 0)
(1.84818e-06 0 0)
(1.8482e-06 0 0)
(1.84823e-06 0 0)
(1.84826e-06 0 0)
(1.8483e-06 0 0)
(1.84834e-06 0 0)
(1.84838e-06 0 0)
(1.84843e-06 0 0)
(1.84848e-06 0 0)
(1.84853e-06 0 0)
(1.84859e-06 0 0)
(1.84865e-06 0 0)
(1.84871e-06 0 0)
(1.84878e-06 0 0)
(1.84885e-06 0 0)
(1.84893e-06 0 0)
(1.84901e-06 0 0)
(1.84909e-06 0 0)
(1.84917e-06 0 0)
(1.84927e-06 0 0)
(1.84936e-06 0 0)
(1.84946e-06 0 0)
(1.84957e-06 0 0)
(1.84968e-06 0 0)
(1.84979e-06 0 0)
(1.84992e-06 0 0)
(1.85005e-06 0 0)
(1.85018e-06 0 0)
(1.85033e-06 0 0)
(1.85048e-06 0 0)
(1.85064e-06 0 0)
(1.85081e-06 0 0)
(1.85099e-06 0 0)
(1.85119e-06 0 0)
(1.85139e-06 0 0)
(1.8516e-06 0 0)
(1.85183e-06 0 0)
(1.85207e-06 0 0)
(1.85233e-06 0 0)
(1.8526e-06 0 0)
(1.85288e-06 0 0)
(1.85318e-06 0 0)
(1.8535e-06 0 0)
(1.85383e-06 0 0)
(1.85418e-06 0 0)
(1.85454e-06 0 0)
(1.85493e-06 0 0)
(1.85533e-06 0 0)
(1.85575e-06 0 0)
(1.85618e-06 0 0)
(1.85664e-06 0 0)
(1.8571e-06 0 0)
(1.85759e-06 0 0)
(1.85809e-06 0 0)
(1.8586e-06 0 0)
(1.85913e-06 0 0)
(1.85967e-06 0 0)
(1.86022e-06 0 0)
(1.86078e-06 0 0)
(1.86135e-06 0 0)
(1.86192e-06 0 0)
(1.8625e-06 0 0)
(1.86308e-06 0 0)
(1.86367e-06 0 0)
(1.86425e-06 0 0)
(1.86482e-06 0 0)
(1.86539e-06 0 0)
(1.86595e-06 0 0)
(1.8665e-06 0 0)
(1.86703e-06 0 0)
(1.86755e-06 0 0)
(1.86805e-06 0 0)
(1.86852e-06 0 0)
(1.86897e-06 0 0)
(1.8694e-06 0 0)
(1.86979e-06 0 0)
(1.87015e-06 0 0)
(1.87048e-06 0 0)
(1.87078e-06 0 0)
(1.87103e-06 0 0)
(1.87125e-06 0 0)
(1.87142e-06 0 0)
(1.87156e-06 0 0)
(1.87164e-06 0 0)
(1.87168e-06 0 0)
(1.87169e-06 0 0)
)
;

boundaryField
{
    inlet
    {
        type            fixedValue;
        value           uniform (2.74882e-06 0 0);
    }
    outlet
    {
        type            zeroGradient;
    }
    emptyWalls
    {
        type            empty;
    }
}


// ************************************************************************* //
