/*--------------------------------*- C++ -*----------------------------------*\
  =========                 |
  \\      /  F ield         | OpenFOAM: The Open Source CFD Toolbox
   \\    /   O peration     | Website:  https://openfoam.org
    \\  /    A nd           | Version:  9
     \\/     M anipulation  |
\*---------------------------------------------------------------------------*/
FoamFile
{
    format      ascii;
    class       volScalarField;
    location    "2650";
    object      Sa;
}
// * * * * * * * * * * * * * * * * * * * * * * * * * * * * * * * * * * * * * //

dimensions      [0 0 0 0 0 0 0];

internalField   nonuniform List<scalar> 
1000
(
0.542342
0.526523
0.485955
0.281019
0.0783232
0.0446877
0.0342873
0.0293761
0.0262657
0.024183
0.0238258
0.0235211
0.0232177
0.0229232
0.0226408
0.0223712
0.0221143
0.0218692
0.0216353
0.0214115
0.0211974
0.0209922
0.0207955
0.0206065
0.0204248
0.02025
0.0200815
0.0199191
0.0197625
0.0196113
0.0194652
0.0193237
0.0191866
0.0190534
0.0189238
0.0187978
0.0186749
0.0185551
0.0184382
0.018324
0.0182125
0.0181034
0.0179968
0.0178923
0.01779
0.0176896
0.0175911
0.0174944
0.0173996
0.0173065
0.0172152
0.0171255
0.0170375
0.0169509
0.0168656
0.0167815
0.0166986
0.0166168
0.0165363
0.0164571
0.0163794
0.0163034
0.0162294
0.0161577
0.0160882
0.0160212
0.0159567
0.0158948
0.0158352
0.015778
0.0157228
0.0156696
0.015618
0.0155677
0.0155184
0.0154698
0.0154215
0.0153733
0.0153246
0.0152754
0.015225
0.0151731
0.0151194
0.0150635
0.015005
0.0149435
0.0148788
0.0148107
0.0147393
0.0146647
0.0145871
0.0145072
0.0144255
0.0143429
0.0142604
0.0141789
0.0140992
0.014022
0.0139472
0.0138736
0.0137985
0.0137158
0.013616
0.013486
0.0133152
0.0131064
0.0128892
0.0127086
0.0125913
0.0125292
0.0125026
0.0124912
0.0124906
0.0124914
0.0124943
0.0124981
0.012502
0.0125058
0.0125093
0.0125125
0.0125153
0.0125176
0.0125196
0.0125212
0.0125225
0.0125234
0.0125241
0.0125245
0.0125246
0.0125246
0.0125246
0.0125244
0.012524
0.0125235
0.012523
0.0125224
0.0125218
0.0125211
0.0125204
0.0125197
0.012519
0.0125182
0.0125174
0.0125167
0.0125158
0.012515
0.0125142
0.0125134
0.0125125
0.0125116
0.0125108
0.0125099
0.0125091
0.0125082
0.0125074
0.0125065
0.0125057
0.0125049
0.0125041
0.0125033
0.0125025
0.0125018
0.0125011
0.0125004
0.0124998
0.0124992
0.0124986
0.012498
0.0124975
0.012497
0.0124965
0.012496
0.0124955
0.0124951
0.0124947
0.0124943
0.0124939
0.0124936
0.0124934
0.0124932
0.012493
0.012493
0.012493
0.012493
0.012493
0.0124932
0.0124935
0.0124939
0.0124943
0.0124949
0.0124954
0.0124961
0.0124968
0.0124975
0.0124982
0.012499
0.0124998
0.0125006
0.0125014
0.0125022
0.012503
0.0125037
0.0125045
0.0125052
0.0125058
0.0125065
0.012507
0.0125076
0.012508
0.0125084
0.0125087
0.012509
0.0125092
0.0125093
0.0125093
0.0125093
0.0125093
0.0125091
0.0125088
0.0125084
0.012508
0.0125075
0.0125069
0.0125063
0.0125056
0.0125049
0.0125042
0.0125034
0.0125027
0.012502
0.0125013
0.0125007
0.0125001
0.0124995
0.0124991
0.0124986
0.0124983
0.012498
0.0124978
0.0124977
0.0124977
0.0124977
0.0124977
0.0124978
0.0124981
0.0124984
0.0124989
0.0124994
0.0125
0.0125005
0.0125013
0.012502
0.0125029
0.0125038
0.0125049
0.012506
0.0125073
0.0125087
0.0125103
0.0125121
0.0125141
0.0125164
0.0125189
0.0125217
0.0125248
0.0125283
0.0125322
0.0125364
0.012541
0.012546
0.0125515
0.0125573
0.0125636
0.0125703
0.0125773
0.0125847
0.0125924
0.0126003
0.0126084
0.0126166
0.0126249
0.0126331
0.0126412
0.012649
0.0126564
0.0126632
0.0126693
0.0126746
0.0126787
0.0126816
0.0126831
0.0126834
0.0126833
0.0126826
0.0126798
0.0126728
0.0126638
0.0126527
0.0126396
0.0126248
0.0126083
0.0125906
0.0125719
0.0125526
0.0125331
0.0125138
0.0124951
0.0124772
0.0124606
0.0124454
0.0124318
0.01242
0.0124099
0.0124017
0.0123952
0.0123904
0.0123872
0.0123856
0.012385
0.0123851
0.0123854
0.0123872
0.0123909
0.0123952
0.0123998
0.0124047
0.0124098
0.0124149
0.0124199
0.0124249
0.0124296
0.0124341
0.0124383
0.0124422
0.0124458
0.012449
0.0124518
0.0124544
0.0124566
0.0124585
0.01246
0.0124614
0.0124624
0.0124633
0.0124639
0.0124644
0.0124647
0.0124649
0.012465
0.012465
0.012465
0.0124649
0.0124648
0.0124646
0.0124644
0.0124642
0.012464
0.0124638
0.0124636
0.0124634
0.0124632
0.0124631
0.0124628
0.0124627
0.0124624
0.0124622
0.012462
0.0124617
0.0124614
0.012461
0.0124606
0.0124602
0.0124597
0.0124591
0.0124585
0.0124579
0.0124572
0.0124564
0.0124556
0.0124547
0.0124537
0.0124527
0.0124516
0.0124505
0.0124493
0.0124481
0.0124468
0.0124455
0.0124442
0.0124428
0.0124414
0.0124399
0.0124384
0.012437
0.0124355
0.012434
0.0124325
0.012431
0.0124296
0.0124282
0.0124268
0.0124255
0.0124243
0.0124231
0.012422
0.0124211
0.0124203
0.0124196
0.0124191
0.0124188
0.0124186
0.0124186
0.0124186
0.0124188
0.0124189
0.0124196
0.0124198
0.0124213
0.0124215
0.0124238
0.0124248
0.0124276
0.0124288
0.0124324
0.0124346
0.0124378
0.0124402
0.0124449
0.0124476
0.0124512
0.0124553
0.0124607
0.0124628
0.0124681
0.0124738
0.0124782
0.0124805
0.0124893
0.0124935
0.0124934
0.0124585
0.0123581
0.0113142
0.00447146
0.000205773
2.49384e-07
1.21266e-13
4.0556e-27
1.06564e-55
1.85851e-116
1.8112e-245
0
0
0
0
0
0
0
0
0
0
0
0
0
0
0
0
0
0
0
0
0
0
0
0
0
0
0
0
0
0
0
0
0
0
0
0
0
0
0
0
0
0
0
0
0
0
0
0
0
0
0
0
0
0
0
0
0
0
0
0
0
0
0
0
0
0
0
0
0
0
0
0
0
0
0
0
0
0
0
0
0
0
0
0
0
0
0
0
0
0
0
0
0
0
0
0
0
0
0
0
0
0
0
0
0
0
0
0
0
0
0
0
0
0
0
0
0
0
0
0
0
0
0
0
0
0
0
0
0
0
0
0
0
0
0
0
0
0
0
0
0
0
0
0
0
0
0
0
0
0
0
0
0
0
0
0
0
0
0
0
0
0
0
0
0
0
0
0
0
0
0
0
0
0
0
0
0
0
0
0
0
0
0
0
0
0
0
0
0
0
0
0
0
0
0
0
0
0
0
0
0
0
0
0
0
0
0
0
0
0
0
0
0
0
0
0
0
0
0
0
0
0
0
0
0
0
0
0
0
0
0
0
0
0
0
0
0
0
0
0
0
0
0
0
0
0
0
0
0
0
0
0
0
0
0
0
0
0
0
0
0
0
0
0
0
0
0
0
0
0
0
0
0
0
0
0
0
0
0
0
0
0
0
0
0
0
0
0
0
0
0
0
0
0
0
0
0
0
0
0
0
0
0
0
0
0
0
0
0
0
0
0
0
0
0
0
0
0
0
0
0
0
0
0
0
0
0
0
0
0
0
0
0
0
0
0
0
0
0
0
0
0
0
0
0
0
0
0
0
0
0
0
0
0
0
0
0
0
0
0
0
0
0
0
0
0
0
0
0
0
0
0
0
0
0
0
0
0
0
0
0
0
0
0
0
0
0
0
0
0
0
0
0
0
0
0
0
0
0
0
0
0
0
0
0
0
0
0
0
0
0
0
0
0
0
0
0
0
0
0
0
0
0
0
0
0
0
0
0
0
0
0
0
0
0
0
0
0
0
0
0
0
0
0
0
0
0
0
0
0
0
0
0
0
0
0
0
0
0
0
0
0
0
0
0
0
0
0
0
0
0
0
0
0
0
0
0
0
0
0
0
0
0
0
0
0
0
0
0
0
0
0
0
0
0
0
0
0
0
0
0
0
0
0
0
0
0
0
0
0
0
0
0
0
0
0
0
0
0
0
0
0
0
0
0
0
0
0
0
0
0
0
0
0
0
0
0
0
0
0
0
0
0
0
0
0
0
0
0
)
;

boundaryField
{
    inlet
    {
        type            fixedValue;
        value           uniform 0.55;
    }
    outlet
    {
        type            zeroGradient;
    }
    emptyWalls
    {
        type            empty;
    }
}


// ************************************************************************* //
