/*--------------------------------*- C++ -*----------------------------------*\
  =========                 |
  \\      /  F ield         | OpenFOAM: The Open Source CFD Toolbox
   \\    /   O peration     | Website:  https://openfoam.org
    \\  /    A nd           | Version:  9
     \\/     M anipulation  |
\*---------------------------------------------------------------------------*/
FoamFile
{
    format      ascii;
    class       volVectorField;
    location    "2650";
    object      Ua;
}
// * * * * * * * * * * * * * * * * * * * * * * * * * * * * * * * * * * * * * //

dimensions      [0 0 0 0 0 0 0];

internalField   nonuniform List<vector> 
1000
(
(2.74514e-06 0 0)
(2.73279e-06 0 0)
(2.67919e-06 0 0)
(2.42153e-06 0 0)
(2.16114e-06 0 0)
(2.09829e-06 0 0)
(2.07595e-06 0 0)
(2.06325e-06 0 0)
(2.05353e-06 0 0)
(2.04733e-06 0 0)
(2.04498e-06 0 0)
(2.04332e-06 0 0)
(2.04154e-06 0 0)
(2.03968e-06 0 0)
(2.0378e-06 0 0)
(2.03593e-06 0 0)
(2.0341e-06 0 0)
(2.03231e-06 0 0)
(2.03053e-06 0 0)
(2.02875e-06 0 0)
(2.02699e-06 0 0)
(2.02527e-06 0 0)
(2.02358e-06 0 0)
(2.02194e-06 0 0)
(2.02033e-06 0 0)
(2.01876e-06 0 0)
(2.01725e-06 0 0)
(2.0158e-06 0 0)
(2.01442e-06 0 0)
(2.01312e-06 0 0)
(2.01189e-06 0 0)
(2.0107e-06 0 0)
(2.00955e-06 0 0)
(2.00841e-06 0 0)
(2.00727e-06 0 0)
(2.00612e-06 0 0)
(2.00495e-06 0 0)
(2.00376e-06 0 0)
(2.00256e-06 0 0)
(2.00135e-06 0 0)
(2.00012e-06 0 0)
(1.99888e-06 0 0)
(1.99762e-06 0 0)
(1.99634e-06 0 0)
(1.99503e-06 0 0)
(1.99369e-06 0 0)
(1.99232e-06 0 0)
(1.99093e-06 0 0)
(1.98952e-06 0 0)
(1.98811e-06 0 0)
(1.9867e-06 0 0)
(1.98529e-06 0 0)
(1.98388e-06 0 0)
(1.98246e-06 0 0)
(1.98101e-06 0 0)
(1.97953e-06 0 0)
(1.978e-06 0 0)
(1.97644e-06 0 0)
(1.97487e-06 0 0)
(1.97333e-06 0 0)
(1.97186e-06 0 0)
(1.97053e-06 0 0)
(1.96939e-06 0 0)
(1.9685e-06 0 0)
(1.9679e-06 0 0)
(1.96763e-06 0 0)
(1.96771e-06 0 0)
(1.96816e-06 0 0)
(1.96895e-06 0 0)
(1.97009e-06 0 0)
(1.97153e-06 0 0)
(1.97324e-06 0 0)
(1.97517e-06 0 0)
(1.97727e-06 0 0)
(1.97946e-06 0 0)
(1.98169e-06 0 0)
(1.98387e-06 0 0)
(1.98595e-06 0 0)
(1.98784e-06 0 0)
(1.98947e-06 0 0)
(1.99074e-06 0 0)
(1.99158e-06 0 0)
(1.9919e-06 0 0)
(1.9916e-06 0 0)
(1.9906e-06 0 0)
(1.98883e-06 0 0)
(1.98621e-06 0 0)
(1.9827e-06 0 0)
(1.97831e-06 0 0)
(1.97305e-06 0 0)
(1.967e-06 0 0)
(1.96026e-06 0 0)
(1.95296e-06 0 0)
(1.9453e-06 0 0)
(1.93745e-06 0 0)
(1.92961e-06 0 0)
(1.92195e-06 0 0)
(1.91465e-06 0 0)
(1.90781e-06 0 0)
(1.90148e-06 0 0)
(1.8956e-06 0 0)
(1.88997e-06 0 0)
(1.88426e-06 0 0)
(1.87797e-06 0 0)
(1.87071e-06 0 0)
(1.8626e-06 0 0)
(1.85465e-06 0 0)
(1.84833e-06 0 0)
(1.84449e-06 0 0)
(1.84287e-06 0 0)
(1.84267e-06 0 0)
(1.84323e-06 0 0)
(1.8442e-06 0 0)
(1.84528e-06 0 0)
(1.84642e-06 0 0)
(1.84757e-06 0 0)
(1.84868e-06 0 0)
(1.84971e-06 0 0)
(1.85065e-06 0 0)
(1.85149e-06 0 0)
(1.85222e-06 0 0)
(1.85284e-06 0 0)
(1.85336e-06 0 0)
(1.85379e-06 0 0)
(1.85412e-06 0 0)
(1.85436e-06 0 0)
(1.85453e-06 0 0)
(1.85463e-06 0 0)
(1.85467e-06 0 0)
(1.85468e-06 0 0)
(1.85468e-06 0 0)
(1.85463e-06 0 0)
(1.85452e-06 0 0)
(1.8544e-06 0 0)
(1.85426e-06 0 0)
(1.8541e-06 0 0)
(1.85394e-06 0 0)
(1.85377e-06 0 0)
(1.85359e-06 0 0)
(1.8534e-06 0 0)
(1.85321e-06 0 0)
(1.85301e-06 0 0)
(1.85281e-06 0 0)
(1.8526e-06 0 0)
(1.85239e-06 0 0)
(1.85218e-06 0 0)
(1.85196e-06 0 0)
(1.85174e-06 0 0)
(1.85152e-06 0 0)
(1.85129e-06 0 0)
(1.85107e-06 0 0)
(1.85085e-06 0 0)
(1.85062e-06 0 0)
(1.8504e-06 0 0)
(1.85018e-06 0 0)
(1.84996e-06 0 0)
(1.84974e-06 0 0)
(1.84953e-06 0 0)
(1.84932e-06 0 0)
(1.84912e-06 0 0)
(1.84892e-06 0 0)
(1.84873e-06 0 0)
(1.84855e-06 0 0)
(1.84837e-06 0 0)
(1.8482e-06 0 0)
(1.84804e-06 0 0)
(1.84789e-06 0 0)
(1.84774e-06 0 0)
(1.8476e-06 0 0)
(1.84747e-06 0 0)
(1.84734e-06 0 0)
(1.84721e-06 0 0)
(1.84709e-06 0 0)
(1.84698e-06 0 0)
(1.84687e-06 0 0)
(1.84677e-06 0 0)
(1.84668e-06 0 0)
(1.8466e-06 0 0)
(1.84653e-06 0 0)
(1.84648e-06 0 0)
(1.84644e-06 0 0)
(1.84643e-06 0 0)
(1.84642e-06 0 0)
(1.84642e-06 0 0)
(1.84643e-06 0 0)
(1.84648e-06 0 0)
(1.84656e-06 0 0)
(1.84666e-06 0 0)
(1.84678e-06 0 0)
(1.84691e-06 0 0)
(1.84706e-06 0 0)
(1.84723e-06 0 0)
(1.84741e-06 0 0)
(1.8476e-06 0 0)
(1.84779e-06 0 0)
(1.84799e-06 0 0)
(1.8482e-06 0 0)
(1.84841e-06 0 0)
(1.84862e-06 0 0)
(1.84882e-06 0 0)
(1.84903e-06 0 0)
(1.84923e-06 0 0)
(1.84942e-06 0 0)
(1.8496e-06 0 0)
(1.84978e-06 0 0)
(1.84994e-06 0 0)
(1.85009e-06 0 0)
(1.85023e-06 0 0)
(1.85035e-06 0 0)
(1.85045e-06 0 0)
(1.85054e-06 0 0)
(1.8506e-06 0 0)
(1.85065e-06 0 0)
(1.85067e-06 0 0)
(1.85068e-06 0 0)
(1.85068e-06 0 0)
(1.85068e-06 0 0)
(1.85064e-06 0 0)
(1.85056e-06 0 0)
(1.85046e-06 0 0)
(1.85034e-06 0 0)
(1.8502e-06 0 0)
(1.85005e-06 0 0)
(1.84989e-06 0 0)
(1.84972e-06 0 0)
(1.84953e-06 0 0)
(1.84935e-06 0 0)
(1.84916e-06 0 0)
(1.84897e-06 0 0)
(1.84879e-06 0 0)
(1.84861e-06 0 0)
(1.84844e-06 0 0)
(1.84828e-06 0 0)
(1.84814e-06 0 0)
(1.84802e-06 0 0)
(1.84791e-06 0 0)
(1.84782e-06 0 0)
(1.84775e-06 0 0)
(1.8477e-06 0 0)
(1.84767e-06 0 0)
(1.84766e-06 0 0)
(1.84766e-06 0 0)
(1.84766e-06 0 0)
(1.8477e-06 0 0)
(1.84777e-06 0 0)
(1.84786e-06 0 0)
(1.84797e-06 0 0)
(1.8481e-06 0 0)
(1.84825e-06 0 0)
(1.84841e-06 0 0)
(1.84859e-06 0 0)
(1.8488e-06 0 0)
(1.84902e-06 0 0)
(1.84926e-06 0 0)
(1.84954e-06 0 0)
(1.84984e-06 0 0)
(1.85017e-06 0 0)
(1.85055e-06 0 0)
(1.85097e-06 0 0)
(1.85144e-06 0 0)
(1.85196e-06 0 0)
(1.85255e-06 0 0)
(1.85321e-06 0 0)
(1.85394e-06 0 0)
(1.85476e-06 0 0)
(1.85567e-06 0 0)
(1.85668e-06 0 0)
(1.85778e-06 0 0)
(1.85899e-06 0 0)
(1.86031e-06 0 0)
(1.86173e-06 0 0)
(1.86327e-06 0 0)
(1.86491e-06 0 0)
(1.86665e-06 0 0)
(1.86849e-06 0 0)
(1.87042e-06 0 0)
(1.87243e-06 0 0)
(1.87451e-06 0 0)
(1.87663e-06 0 0)
(1.87879e-06 0 0)
(1.88096e-06 0 0)
(1.88311e-06 0 0)
(1.88523e-06 0 0)
(1.88727e-06 0 0)
(1.8892e-06 0 0)
(1.89098e-06 0 0)
(1.89259e-06 0 0)
(1.89395e-06 0 0)
(1.89504e-06 0 0)
(1.89578e-06 0 0)
(1.89618e-06 0 0)
(1.89632e-06 0 0)
(1.89633e-06 0 0)
(1.89615e-06 0 0)
(1.89524e-06 0 0)
(1.89344e-06 0 0)
(1.89107e-06 0 0)
(1.88817e-06 0 0)
(1.88474e-06 0 0)
(1.88085e-06 0 0)
(1.87655e-06 0 0)
(1.87192e-06 0 0)
(1.86703e-06 0 0)
(1.862e-06 0 0)
(1.85692e-06 0 0)
(1.85189e-06 0 0)
(1.84701e-06 0 0)
(1.84237e-06 0 0)
(1.83804e-06 0 0)
(1.83409e-06 0 0)
(1.83055e-06 0 0)
(1.82747e-06 0 0)
(1.82486e-06 0 0)
(1.82272e-06 0 0)
(1.82103e-06 0 0)
(1.81979e-06 0 0)
(1.81896e-06 0 0)
(1.81851e-06 0 0)
(1.81834e-06 0 0)
(1.81831e-06 0 0)
(1.81841e-06 0 0)
(1.81893e-06 0 0)
(1.81986e-06 0 0)
(1.82097e-06 0 0)
(1.82217e-06 0 0)
(1.82344e-06 0 0)
(1.82475e-06 0 0)
(1.82608e-06 0 0)
(1.82739e-06 0 0)
(1.82867e-06 0 0)
(1.8299e-06 0 0)
(1.83106e-06 0 0)
(1.83216e-06 0 0)
(1.83317e-06 0 0)
(1.8341e-06 0 0)
(1.83494e-06 0 0)
(1.83568e-06 0 0)
(1.83634e-06 0 0)
(1.83692e-06 0 0)
(1.83741e-06 0 0)
(1.83782e-06 0 0)
(1.83817e-06 0 0)
(1.83844e-06 0 0)
(1.83866e-06 0 0)
(1.83883e-06 0 0)
(1.83895e-06 0 0)
(1.83904e-06 0 0)
(1.83909e-06 0 0)
(1.83911e-06 0 0)
(1.83912e-06 0 0)
(1.83912e-06 0 0)
(1.83911e-06 0 0)
(1.83908e-06 0 0)
(1.83902e-06 0 0)
(1.83897e-06 0 0)
(1.83892e-06 0 0)
(1.83887e-06 0 0)
(1.83881e-06 0 0)
(1.83876e-06 0 0)
(1.83871e-06 0 0)
(1.83867e-06 0 0)
(1.83862e-06 0 0)
(1.83857e-06 0 0)
(1.83852e-06 0 0)
(1.83846e-06 0 0)
(1.8384e-06 0 0)
(1.83834e-06 0 0)
(1.83826e-06 0 0)
(1.83818e-06 0 0)
(1.83809e-06 0 0)
(1.83799e-06 0 0)
(1.83787e-06 0 0)
(1.83774e-06 0 0)
(1.8376e-06 0 0)
(1.83744e-06 0 0)
(1.83727e-06 0 0)
(1.83708e-06 0 0)
(1.83688e-06 0 0)
(1.83666e-06 0 0)
(1.83643e-06 0 0)
(1.83618e-06 0 0)
(1.83592e-06 0 0)
(1.83564e-06 0 0)
(1.83535e-06 0 0)
(1.83504e-06 0 0)
(1.83473e-06 0 0)
(1.8344e-06 0 0)
(1.83405e-06 0 0)
(1.8337e-06 0 0)
(1.83334e-06 0 0)
(1.83297e-06 0 0)
(1.83259e-06 0 0)
(1.83221e-06 0 0)
(1.83182e-06 0 0)
(1.83143e-06 0 0)
(1.83104e-06 0 0)
(1.83066e-06 0 0)
(1.83028e-06 0 0)
(1.8299e-06 0 0)
(1.82953e-06 0 0)
(1.82918e-06 0 0)
(1.82884e-06 0 0)
(1.82852e-06 0 0)
(1.82822e-06 0 0)
(1.82794e-06 0 0)
(1.8277e-06 0 0)
(1.82748e-06 0 0)
(1.82731e-06 0 0)
(1.82718e-06 0 0)
(1.8271e-06 0 0)
(1.82705e-06 0 0)
(1.82704e-06 0 0)
(1.82705e-06 0 0)
(1.82708e-06 0 0)
(1.82715e-06 0 0)
(1.82726e-06 0 0)
(1.82742e-06 0 0)
(1.82765e-06 0 0)
(1.82793e-06 0 0)
(1.82829e-06 0 0)
(1.82876e-06 0 0)
(1.82928e-06 0 0)
(1.82985e-06 0 0)
(1.83054e-06 0 0)
(1.83127e-06 0 0)
(1.83198e-06 0 0)
(1.83281e-06 0 0)
(1.83376e-06 0 0)
(1.83464e-06 0 0)
(1.83555e-06 0 0)
(1.83668e-06 0 0)
(1.83779e-06 0 0)
(1.83876e-06 0 0)
(1.83997e-06 0 0)
(1.84134e-06 0 0)
(1.84241e-06 0 0)
(1.84355e-06 0 0)
(1.84517e-06 0 0)
(1.84638e-06 0 0)
(1.84669e-06 0 0)
(1.84045e-06 0 0)
(1.80951e-06 0 0)
(1.63098e-06 0 0)
(7.8607e-07 0 0)
(4.76012e-08 0 0)
(9.0401e-11 0 0)
(5.37634e-17 0 0)
(1.85929e-30 0 0)
(4.88862e-59 0 0)
(8.5259e-120 0 0)
(8.30889e-249 0 0)
(0 0 0)
(0 0 0)
(0 0 0)
(0 0 0)
(0 0 0)
(0 0 0)
(0 0 0)
(0 0 0)
(0 0 0)
(0 0 0)
(0 0 0)
(0 0 0)
(0 0 0)
(0 0 0)
(0 0 0)
(0 0 0)
(0 0 0)
(0 0 0)
(0 0 0)
(0 0 0)
(0 0 0)
(0 0 0)
(0 0 0)
(0 0 0)
(0 0 0)
(0 0 0)
(0 0 0)
(0 0 0)
(0 0 0)
(0 0 0)
(0 0 0)
(0 0 0)
(0 0 0)
(0 0 0)
(0 0 0)
(0 0 0)
(0 0 0)
(0 0 0)
(0 0 0)
(0 0 0)
(0 0 0)
(0 0 0)
(0 0 0)
(0 0 0)
(0 0 0)
(0 0 0)
(0 0 0)
(0 0 0)
(0 0 0)
(0 0 0)
(0 0 0)
(0 0 0)
(0 0 0)
(0 0 0)
(0 0 0)
(0 0 0)
(0 0 0)
(0 0 0)
(0 0 0)
(0 0 0)
(0 0 0)
(0 0 0)
(0 0 0)
(0 0 0)
(0 0 0)
(0 0 0)
(0 0 0)
(0 0 0)
(0 0 0)
(0 0 0)
(0 0 0)
(0 0 0)
(0 0 0)
(0 0 0)
(0 0 0)
(0 0 0)
(0 0 0)
(0 0 0)
(0 0 0)
(0 0 0)
(0 0 0)
(0 0 0)
(0 0 0)
(0 0 0)
(0 0 0)
(0 0 0)
(0 0 0)
(0 0 0)
(0 0 0)
(0 0 0)
(0 0 0)
(0 0 0)
(0 0 0)
(0 0 0)
(0 0 0)
(0 0 0)
(0 0 0)
(0 0 0)
(0 0 0)
(0 0 0)
(0 0 0)
(0 0 0)
(0 0 0)
(0 0 0)
(0 0 0)
(0 0 0)
(0 0 0)
(0 0 0)
(0 0 0)
(0 0 0)
(0 0 0)
(0 0 0)
(0 0 0)
(0 0 0)
(0 0 0)
(0 0 0)
(0 0 0)
(0 0 0)
(0 0 0)
(0 0 0)
(0 0 0)
(0 0 0)
(0 0 0)
(0 0 0)
(0 0 0)
(0 0 0)
(0 0 0)
(0 0 0)
(0 0 0)
(0 0 0)
(0 0 0)
(0 0 0)
(0 0 0)
(0 0 0)
(0 0 0)
(0 0 0)
(0 0 0)
(0 0 0)
(0 0 0)
(0 0 0)
(0 0 0)
(0 0 0)
(0 0 0)
(0 0 0)
(0 0 0)
(0 0 0)
(0 0 0)
(0 0 0)
(0 0 0)
(0 0 0)
(0 0 0)
(0 0 0)
(0 0 0)
(0 0 0)
(0 0 0)
(0 0 0)
(0 0 0)
(0 0 0)
(0 0 0)
(0 0 0)
(0 0 0)
(0 0 0)
(0 0 0)
(0 0 0)
(0 0 0)
(0 0 0)
(0 0 0)
(0 0 0)
(0 0 0)
(0 0 0)
(0 0 0)
(0 0 0)
(0 0 0)
(0 0 0)
(0 0 0)
(0 0 0)
(0 0 0)
(0 0 0)
(0 0 0)
(0 0 0)
(0 0 0)
(0 0 0)
(0 0 0)
(0 0 0)
(0 0 0)
(0 0 0)
(0 0 0)
(0 0 0)
(0 0 0)
(0 0 0)
(0 0 0)
(0 0 0)
(0 0 0)
(0 0 0)
(0 0 0)
(0 0 0)
(0 0 0)
(0 0 0)
(0 0 0)
(0 0 0)
(0 0 0)
(0 0 0)
(0 0 0)
(0 0 0)
(0 0 0)
(0 0 0)
(0 0 0)
(0 0 0)
(0 0 0)
(0 0 0)
(0 0 0)
(0 0 0)
(0 0 0)
(0 0 0)
(0 0 0)
(0 0 0)
(0 0 0)
(0 0 0)
(0 0 0)
(0 0 0)
(0 0 0)
(0 0 0)
(0 0 0)
(0 0 0)
(0 0 0)
(0 0 0)
(0 0 0)
(0 0 0)
(0 0 0)
(0 0 0)
(0 0 0)
(0 0 0)
(0 0 0)
(0 0 0)
(0 0 0)
(0 0 0)
(0 0 0)
(0 0 0)
(0 0 0)
(0 0 0)
(0 0 0)
(0 0 0)
(0 0 0)
(0 0 0)
(0 0 0)
(0 0 0)
(0 0 0)
(0 0 0)
(0 0 0)
(0 0 0)
(0 0 0)
(0 0 0)
(0 0 0)
(0 0 0)
(0 0 0)
(0 0 0)
(0 0 0)
(0 0 0)
(0 0 0)
(0 0 0)
(0 0 0)
(0 0 0)
(0 0 0)
(0 0 0)
(0 0 0)
(0 0 0)
(0 0 0)
(0 0 0)
(0 0 0)
(0 0 0)
(0 0 0)
(0 0 0)
(0 0 0)
(0 0 0)
(0 0 0)
(0 0 0)
(0 0 0)
(0 0 0)
(0 0 0)
(0 0 0)
(0 0 0)
(0 0 0)
(0 0 0)
(0 0 0)
(0 0 0)
(0 0 0)
(0 0 0)
(0 0 0)
(0 0 0)
(0 0 0)
(0 0 0)
(0 0 0)
(0 0 0)
(0 0 0)
(0 0 0)
(0 0 0)
(0 0 0)
(0 0 0)
(0 0 0)
(0 0 0)
(0 0 0)
(0 0 0)
(0 0 0)
(0 0 0)
(0 0 0)
(0 0 0)
(0 0 0)
(0 0 0)
(0 0 0)
(0 0 0)
(0 0 0)
(0 0 0)
(0 0 0)
(0 0 0)
(0 0 0)
(0 0 0)
(0 0 0)
(0 0 0)
(0 0 0)
(0 0 0)
(0 0 0)
(0 0 0)
(0 0 0)
(0 0 0)
(0 0 0)
(0 0 0)
(0 0 0)
(0 0 0)
(0 0 0)
(0 0 0)
(0 0 0)
(0 0 0)
(0 0 0)
(0 0 0)
(0 0 0)
(0 0 0)
(0 0 0)
(0 0 0)
(0 0 0)
(0 0 0)
(0 0 0)
(0 0 0)
(0 0 0)
(0 0 0)
(0 0 0)
(0 0 0)
(0 0 0)
(0 0 0)
(0 0 0)
(0 0 0)
(0 0 0)
(0 0 0)
(0 0 0)
(0 0 0)
(0 0 0)
(0 0 0)
(0 0 0)
(0 0 0)
(0 0 0)
(0 0 0)
(0 0 0)
(0 0 0)
(0 0 0)
(0 0 0)
(0 0 0)
(0 0 0)
(0 0 0)
(0 0 0)
(0 0 0)
(0 0 0)
(0 0 0)
(0 0 0)
(0 0 0)
(0 0 0)
(0 0 0)
(0 0 0)
(0 0 0)
(0 0 0)
(0 0 0)
(0 0 0)
(0 0 0)
(0 0 0)
(0 0 0)
(0 0 0)
(0 0 0)
(0 0 0)
(0 0 0)
(0 0 0)
(0 0 0)
(0 0 0)
(0 0 0)
(0 0 0)
(0 0 0)
(0 0 0)
(0 0 0)
(0 0 0)
(0 0 0)
(0 0 0)
(0 0 0)
(0 0 0)
(0 0 0)
(0 0 0)
(0 0 0)
(0 0 0)
(0 0 0)
(0 0 0)
(0 0 0)
(0 0 0)
(0 0 0)
(0 0 0)
(0 0 0)
(0 0 0)
(0 0 0)
(0 0 0)
(0 0 0)
(0 0 0)
(0 0 0)
(0 0 0)
(0 0 0)
(0 0 0)
(0 0 0)
(0 0 0)
(0 0 0)
(0 0 0)
(0 0 0)
(0 0 0)
(0 0 0)
(0 0 0)
(0 0 0)
(0 0 0)
(0 0 0)
(0 0 0)
(0 0 0)
(0 0 0)
(0 0 0)
(0 0 0)
(0 0 0)
(0 0 0)
(0 0 0)
(0 0 0)
(0 0 0)
(0 0 0)
(0 0 0)
(0 0 0)
(0 0 0)
(0 0 0)
(0 0 0)
(0 0 0)
(0 0 0)
(0 0 0)
(0 0 0)
(0 0 0)
(0 0 0)
(0 0 0)
(0 0 0)
(0 0 0)
(0 0 0)
(0 0 0)
(0 0 0)
(0 0 0)
(0 0 0)
(0 0 0)
(0 0 0)
(0 0 0)
(0 0 0)
(0 0 0)
(0 0 0)
(0 0 0)
(0 0 0)
(0 0 0)
(0 0 0)
(0 0 0)
(0 0 0)
(0 0 0)
(0 0 0)
(0 0 0)
(0 0 0)
(0 0 0)
(0 0 0)
(0 0 0)
(0 0 0)
(0 0 0)
(0 0 0)
(0 0 0)
(0 0 0)
(0 0 0)
(0 0 0)
(0 0 0)
(0 0 0)
(0 0 0)
(0 0 0)
(0 0 0)
(0 0 0)
(0 0 0)
(0 0 0)
(0 0 0)
(0 0 0)
(0 0 0)
(0 0 0)
(0 0 0)
(0 0 0)
(0 0 0)
(0 0 0)
(0 0 0)
(0 0 0)
(0 0 0)
(0 0 0)
(0 0 0)
(0 0 0)
(0 0 0)
(0 0 0)
(0 0 0)
(0 0 0)
(0 0 0)
(0 0 0)
(0 0 0)
(0 0 0)
(0 0 0)
(0 0 0)
(0 0 0)
(0 0 0)
(0 0 0)
(0 0 0)
(0 0 0)
(0 0 0)
(0 0 0)
(0 0 0)
(0 0 0)
(0 0 0)
(0 0 0)
(0 0 0)
(0 0 0)
(0 0 0)
(0 0 0)
(0 0 0)
(0 0 0)
(0 0 0)
(0 0 0)
(0 0 0)
(0 0 0)
(0 0 0)
(0 0 0)
(0 0 0)
(0 0 0)
(0 0 0)
(0 0 0)
(0 0 0)
(0 0 0)
(0 0 0)
)
;

boundaryField
{
    inlet
    {
        type            fixedValue;
        value           uniform (2.74882e-06 0 0);
    }
    outlet
    {
        type            zeroGradient;
    }
    emptyWalls
    {
        type            empty;
    }
}


// ************************************************************************* //
