/*--------------------------------*- C++ -*----------------------------------*\
  =========                 |
  \\      /  F ield         | OpenFOAM: The Open Source CFD Toolbox
   \\    /   O peration     | Website:  https://openfoam.org
    \\  /    A nd           | Version:  9
     \\/     M anipulation  |
\*---------------------------------------------------------------------------*/
FoamFile
{
    format      ascii;
    class       volScalarField;
    location    "8850";
    object      Fa;
}
// * * * * * * * * * * * * * * * * * * * * * * * * * * * * * * * * * * * * * //

dimensions      [0 0 0 0 0 0 0];

internalField   nonuniform List<scalar> 
1000
(
0.194602
0.194853
0.194646
0.1947
0.19454
0.194481
0.194328
0.194222
0.194073
0.193884
0.193148
0.188787
0.163058
0.152476
0.150196
0.14918
0.148511
0.148064
0.147663
0.147359
0.147095
0.14686
0.146651
0.146487
0.146366
0.146218
0.146168
0.146062
0.145989
0.14592
0.145853
0.145805
0.145812
0.145902
0.146095
0.146336
0.146605
0.146876
0.147135
0.147371
0.14758
0.14776
0.147901
0.147992
0.148021
0.147976
0.147852
0.14765
0.147377
0.147048
0.146682
0.146302
0.145927
0.145578
0.145267
0.145003
0.144792
0.144633
0.144522
0.144452
0.144417
0.144406
0.144412
0.144428
0.144446
0.144463
0.144473
0.144475
0.144468
0.144451
0.144425
0.144391
0.144349
0.144302
0.14425
0.144195
0.144138
0.144079
0.144019
0.143959
0.143898
0.143837
0.143776
0.143716
0.143655
0.143595
0.143535
0.143475
0.143416
0.143357
0.1433
0.143243
0.143187
0.143132
0.143078
0.143026
0.142976
0.142926
0.142879
0.142833
0.142788
0.142744
0.142702
0.142661
0.142621
0.142582
0.142544
0.142506
0.14247
0.142434
0.142399
0.142364
0.14233
0.142297
0.142265
0.142232
0.142201
0.14217
0.142139
0.142109
0.142079
0.142049
0.14202
0.141992
0.141963
0.141936
0.141908
0.141882
0.141855
0.14183
0.141803
0.14178
0.141754
0.141732
0.141707
0.141686
0.141662
0.141642
0.141619
0.141599
0.141577
0.141557
0.141535
0.141514
0.141493
0.141471
0.14145
0.141429
0.141409
0.14139
0.141371
0.141354
0.141338
0.141323
0.141309
0.141296
0.141285
0.141275
0.141267
0.141263
0.141261
0.141265
0.141273
0.141288
0.141311
0.141342
0.141381
0.14143
0.141489
0.141557
0.141634
0.14172
0.141813
0.141912
0.142016
0.142121
0.142227
0.142331
0.14243
0.14252
0.1426
0.142665
0.142714
0.142744
0.142752
0.142737
0.142698
0.142634
0.142546
0.142434
0.142301
0.14215
0.141983
0.141804
0.141617
0.141425
0.141233
0.141044
0.140861
0.140686
0.140523
0.140372
0.140234
0.14011
0.14
0.139904
0.13982
0.139747
0.139685
0.139631
0.139586
0.139546
0.139511
0.139479
0.13945
0.139422
0.139394
0.139366
0.139338
0.139308
0.139276
0.139243
0.139207
0.13917
0.13913
0.139089
0.139046
0.139001
0.138955
0.138908
0.138859
0.13881
0.138759
0.138708
0.138657
0.138605
0.138553
0.1385
0.138447
0.138395
0.138342
0.138289
0.138236
0.138183
0.138131
0.138078
0.138026
0.137973
0.137921
0.13787
0.137818
0.137767
0.137716
0.137666
0.137616
0.137567
0.137518
0.137469
0.137421
0.137374
0.137327
0.137281
0.137236
0.137191
0.137147
0.137104
0.137061
0.137019
0.136978
0.136937
0.136897
0.136858
0.136819
0.136781
0.136743
0.136706
0.136669
0.136632
0.136596
0.13656
0.136525
0.136489
0.136454
0.136419
0.136384
0.136349
0.136315
0.13628
0.136246
0.136211
0.136177
0.136143
0.136109
0.136075
0.136041
0.136008
0.135974
0.135941
0.135908
0.135875
0.135842
0.135809
0.135776
0.135744
0.135711
0.135679
0.135647
0.135615
0.135583
0.135551
0.135519
0.135488
0.135456
0.135425
0.135394
0.135363
0.135333
0.135303
0.135273
0.135244
0.135215
0.135187
0.13516
0.135133
0.135108
0.135083
0.135061
0.135039
0.13502
0.135003
0.134988
0.134977
0.134968
0.134964
0.134963
0.134967
0.134976
0.13499
0.13501
0.135036
0.135068
0.135106
0.135151
0.135201
0.135256
0.135315
0.135376
0.135436
0.135488
0.135525
0.135532
0.135486
0.135355
0.135104
0.13472
0.134249
0.133812
0.133517
0.133373
0.133325
0.133325
0.133341
0.133362
0.13338
0.133392
0.133396
0.133391
0.133378
0.133355
0.133323
0.133283
0.133234
0.133178
0.133114
0.133045
0.13297
0.132892
0.132809
0.132725
0.13264
0.132554
0.132469
0.132386
0.132305
0.132227
0.132153
0.132083
0.132018
0.131958
0.131903
0.131853
0.131808
0.131768
0.131733
0.131703
0.131677
0.131655
0.131636
0.131621
0.131609
0.131599
0.131592
0.131586
0.131582
0.131579
0.131577
0.131575
0.131573
0.131572
0.13157
0.131568
0.131566
0.131563
0.131559
0.131555
0.13155
0.131545
0.131538
0.131531
0.131523
0.131514
0.131505
0.131495
0.131484
0.131473
0.131461
0.131449
0.131436
0.131423
0.13141
0.131397
0.131383
0.131369
0.131355
0.131341
0.131327
0.131312
0.131298
0.131284
0.131269
0.131255
0.131241
0.131226
0.131212
0.131198
0.131184
0.13117
0.131156
0.131142
0.131129
0.131115
0.131102
0.131089
0.131076
0.131063
0.131051
0.131039
0.131027
0.131016
0.131004
0.130994
0.130983
0.130973
0.130963
0.130954
0.130945
0.130937
0.130929
0.130921
0.130914
0.130908
0.130902
0.130896
0.130891
0.130887
0.130883
0.130879
0.130877
0.130874
0.130872
0.130871
0.13087
0.13087
0.13087
0.13087
0.13087
0.130871
0.130873
0.130875
0.130878
0.130881
0.130884
0.130888
0.130892
0.130896
0.130901
0.130906
0.130912
0.130917
0.130923
0.130929
0.130936
0.130942
0.130949
0.130957
0.130964
0.130972
0.13098
0.130988
0.130996
0.131004
0.131013
0.131022
0.131032
0.131041
0.131051
0.131061
0.131072
0.131083
0.131094
0.131106
0.131118
0.13113
0.131144
0.131157
0.131172
0.131187
0.131203
0.13122
0.131237
0.131256
0.131276
0.131297
0.13132
0.131343
0.131369
0.131396
0.131425
0.131455
0.131488
0.131522
0.131559
0.131598
0.131639
0.131683
0.131729
0.131777
0.131827
0.13188
0.131935
0.131992
0.132051
0.132112
0.132174
0.132238
0.132302
0.132368
0.132434
0.132499
0.132565
0.132629
0.132693
0.132754
0.132814
0.13287
0.132924
0.132973
0.133019
0.133059
0.133095
0.133125
0.133149
0.133167
0.133178
0.133183
0.133183
0.133183
0.133179
0.13316
0.133132
0.133098
0.133057
0.133012
0.132961
0.132906
0.132848
0.132786
0.132722
0.132656
0.132589
0.132521
0.132454
0.132388
0.132322
0.132259
0.132198
0.13214
0.132084
0.132032
0.131983
0.131937
0.131895
0.131856
0.131821
0.131789
0.13176
0.131735
0.131712
0.131692
0.131674
0.131658
0.131644
0.131632
0.131621
0.131611
0.131602
0.131594
0.131586
0.131579
0.131571
0.131564
0.131557
0.131549
0.131542
0.131533
0.131525
0.131515
0.131506
0.131496
0.131485
0.131474
0.131462
0.131449
0.131436
0.131423
0.13141
0.131395
0.131381
0.131366
0.131351
0.131336
0.131321
0.131305
0.131289
0.131274
0.131258
0.131242
0.131226
0.13121
0.131195
0.131179
0.131164
0.131148
0.131133
0.131118
0.131103
0.131088
0.131073
0.131059
0.131045
0.131031
0.131017
0.131004
0.130991
0.130978
0.130965
0.130953
0.130941
0.13093
0.130919
0.130908
0.130898
0.130888
0.130879
0.13087
0.130861
0.130854
0.130846
0.13084
0.130834
0.130828
0.130823
0.130819
0.130815
0.130812
0.13081
0.130808
0.130807
0.130807
0.130807
0.130807
0.130807
0.130809
0.130812
0.130816
0.130819
0.130824
0.130829
0.130835
0.130841
0.130847
0.130855
0.130862
0.13087
0.130879
0.130887
0.130897
0.130906
0.130916
0.130926
0.130937
0.130947
0.130958
0.13097
0.130981
0.130993
0.131005
0.131017
0.13103
0.131042
0.131055
0.131068
0.131081
0.131095
0.131109
0.131122
0.131137
0.131151
0.131167
0.131182
0.131198
0.131214
0.131231
0.131248
0.131266
0.131285
0.131304
0.131324
0.131345
0.131367
0.13139
0.131414
0.131439
0.131465
0.131493
0.131522
0.131552
0.131584
0.131618
0.131653
0.131689
0.131727
0.131767
0.131809
0.131852
0.131897
0.131943
0.131991
0.13204
0.13209
0.132142
0.132195
0.132248
0.132302
0.132357
0.132411
0.132466
0.13252
0.132574
0.132627
0.132678
0.132728
0.132776
0.132821
0.132864
0.132904
0.13294
0.132973
0.133002
0.133027
0.133047
0.133063
0.133073
0.133079
0.13308
0.13308
0.133078
0.133069
0.133049
0.133024
0.132995
0.132961
0.132923
0.132881
0.132835
0.132787
0.132736
0.132683
0.132628
0.132572
0.132516
0.132459
0.132402
0.132347
0.132292
0.132239
0.132187
0.132137
0.13209
0.132045
0.132002
0.131962
0.131925
0.13189
0.131858
0.131828
0.131801
0.131776
0.131754
0.131734
0.131715
0.131699
0.131684
0.13167
0.131658
0.131646
0.131636
0.131626
0.131617
0.131609
0.1316
0.131592
0.131584
0.131576
0.131567
0.131559
0.13155
0.131541
0.131531
0.131521
0.131511
0.1315
0.131488
0.131477
0.131465
0.131452
0.131439
0.131426
0.131412
0.131398
0.131384
0.13137
0.131355
0.13134
0.131325
0.131311
0.131296
0.131281
0.131266
0.131251
0.131237
0.131222
0.131208
0.131194
0.13118
0.131167
0.131153
0.13114
0.131127
0.131115
0.131103
0.131091
0.13108
0.131068
0.131058
0.131047
0.131037
0.131027
0.131018
0.131009
0.131001
0.130992
0.130984
0.130977
0.13097
0.130963
0.130957
0.130951
0.130945
0.13094
0.130935
0.130931
0.130927
0.130923
0.13092
0.130917
0.130915
0.130913
0.130911
0.13091
0.130909
0.130909
0.130909
0.130909
0.13091
0.130912
0.130914
0.130916
0.130919
0.130923
0.130927
0.130931
0.130936
0.130942
0.130948
0.130954
0.13096
0.130967
0.130975
0.130983
0.130991
0.131
0.131009
0.131018
0.131028
0.131038
0.131048
0.131059
0.13107
0.131081
0.131093
0.131105
0.131117
0.131129
0.131142
0.131156
0.131169
0.131183
0.131198
0.131213
0.131228
0.131244
0.13126
0.131277
0.131295
0.131313
0.131332
0.131352
0.131372
0.131394
0.131416
0.131439
0.131464
0.131489
0.131515
0.131543
0.131572
0.131602
0.131633
0.131666
0.131699
0.131734
0.131771
0.131808
0.131847
0.131887
0.131928
0.13197
0.132013
0.132057
0.132102
0.132147
0.132193
0.132239
0.132285
0.132331
0.132376
0.132421
0.132466
0.132509
0.132552
0.132593
0.132632
0.132669
0.132704
0.132737
0.132767
0.132794
0.132818
0.132838
0.132855
0.132869
0.132878
0.132882
0.132884
0.132883
0.132881
0.132872
0.132867
0.132846
)
;

boundaryField
{
    inlet
    {
        type            calculated;
        value           uniform 0.194831;
    }
    outlet
    {
        type            calculated;
        value           uniform 0.132838;
    }
    emptyWalls
    {
        type            empty;
    }
}


// ************************************************************************* //
