/*--------------------------------*- C++ -*----------------------------------*\
  =========                 |
  \\      /  F ield         | OpenFOAM: The Open Source CFD Toolbox
   \\    /   O peration     | Website:  https://openfoam.org
    \\  /    A nd           | Version:  9
     \\/     M anipulation  |
\*---------------------------------------------------------------------------*/
FoamFile
{
    format      ascii;
    class       volScalarField;
    location    "6000";
    object      krc;
}
// * * * * * * * * * * * * * * * * * * * * * * * * * * * * * * * * * * * * * //

dimensions      [0 0 0 0 0 0 0];

internalField   nonuniform List<scalar> 
100
(
1.38667e-28
1.65759e-28
1.65759e-28
1.82325e-28
3.39311e-27
3.63918e-28
3.32034e-27
3.43253e-28
1.51911e-28
3.94486e-28
2.34347e-28
3.4035e-28
3.88274e-28
2.22483e-28
2.24832e-28
4.13419e-28
7.8695e-29
2.44609e-29
2.34347e-28
7.5934e-29
3.69933e-28
1.57772e-30
8.15054e-29
1.44269e-28
1.26027e-28
7.1244e-28
1.48065e-28
1.02558e-28
1.36824e-28
2.34347e-28
1.40522e-28
8.25568e-28
2.97687e-27
2.01905e-28
5.69558e-28
1.49982e-28
4.42137e-27
4.29698e-27
1.71879e-28
3.32034e-27
2.39179e-28
5.62088e-28
5.54668e-28
4.77261e-27
2.64077e-28
5.01422e-27
2.58999e-28
4.39352e-28
2.71787e-28
4.83177e-28
1.46161e-28
4.85978e-27
5.99929e-28
4.66075e-28
2.69205e-28
2.20148e-28
1.26027e-28
4.66075e-28
5.88447e-28
3.20376e-28
9.91013e-28
2.06392e-28
5.2548e-28
1.65759e-28
4.47373e-27
6.75222e-28
5.00588e-28
7.59285e-28
6.83406e-28
5.55038e-27
9.27799e-28
2.64077e-28
4.07354e-27
4.22524e-27
5.3648e-27
1.08198e-27
4.28669e-27
5.78679e-27
1.01088e-27
3.99376e-27
9.18259e-28
6.79308e-28
5.50369e-27
4.90104e-28
4.79433e-27
5.11478e-27
4.83791e-27
5.18306e-28
3.11551e-27
9.02321e-29
1.80045e-25
1.8954e-24
3.22237e-23
1.56385e-22
2.79458e-22
9.26322e-22
1.34142e-21
3.0776e-20
1.14777e-19
2.78036e-17
)
;

boundaryField
{
    inlet
    {
        type            calculated;
        value           uniform 1.38667e-28;
    }
    outlet
    {
        type            calculated;
        value           uniform 2.78036e-17;
    }
    emptyWalls
    {
        type            empty;
    }
}


// ************************************************************************* //
