/*--------------------------------*- C++ -*----------------------------------*\
  =========                 |
  \\      /  F ield         | OpenFOAM: The Open Source CFD Toolbox
   \\    /   O peration     | Website:  https://openfoam.org
    \\  /    A nd           | Version:  9
     \\/     M anipulation  |
\*---------------------------------------------------------------------------*/
FoamFile
{
    format      ascii;
    class       volScalarField;
    location    "2000";
    object      kra;
}
// * * * * * * * * * * * * * * * * * * * * * * * * * * * * * * * * * * * * * //

dimensions      [0 0 0 0 0 0 0];

internalField   nonuniform List<scalar> 
100
(
3.97712e-05
2.90215e-05
3.14e-05
2.99191e-05
2.99081e-05
2.94621e-05
2.92123e-05
2.89294e-05
2.86837e-05
2.84449e-05
2.82178e-05
2.79957e-05
2.77748e-05
2.75485e-05
2.73063e-05
2.74541e-05
2.74911e-05
2.75646e-05
2.76161e-05
2.76707e-05
2.77189e-05
2.7765e-05
2.78075e-05
2.78473e-05
2.78842e-05
2.79186e-05
2.79505e-05
2.79799e-05
2.80071e-05
2.8032e-05
2.80547e-05
2.80752e-05
2.80937e-05
2.811e-05
2.81244e-05
2.81366e-05
2.81469e-05
2.81552e-05
2.81614e-05
2.81657e-05
2.8168e-05
2.81682e-05
2.81664e-05
2.81625e-05
2.81564e-05
2.81482e-05
2.81375e-05
2.81244e-05
2.81086e-05
2.80898e-05
2.80678e-05
2.8042e-05
2.80119e-05
2.79767e-05
2.7935e-05
2.7885e-05
2.7824e-05
2.77471e-05
2.76462e-05
2.75057e-05
2.7292e-05
2.69216e-05
2.6133e-05
2.38271e-05
1.53706e-05
2.56168e-06
8.64834e-09
1.37527e-14
6.87778e-27
2.79346e-35
3.04671e-35
3.22163e-35
3.0465e-35
3.31075e-35
3.22129e-35
3.31051e-35
3.04605e-35
3.04594e-35
3.04582e-35
3.22065e-35
2.79216e-35
3.30757e-35
3.02598e-35
2.86355e-35
1.87307e-35
2.70726e-36
1.3893e-36
1.21344e-36
1.2814e-36
1.31689e-36
1.28135e-36
1.31689e-36
1.21174e-36
1.28135e-36
1.31689e-36
1.11099e-36
1.28135e-36
1.31689e-36
1.28135e-36
1.31689e-36
)
;

boundaryField
{
    inlet
    {
        type            calculated;
        value           uniform 1.13816e-05;
    }
    outlet
    {
        type            calculated;
        value           uniform 4.72742e-37;
    }
    emptyWalls
    {
        type            empty;
    }
}


// ************************************************************************* //
