/*--------------------------------*- C++ -*----------------------------------*\
  =========                 |
  \\      /  F ield         | OpenFOAM: The Open Source CFD Toolbox
   \\    /   O peration     | Website:  https://openfoam.org
    \\  /    A nd           | Version:  9
     \\/     M anipulation  |
\*---------------------------------------------------------------------------*/
FoamFile
{
    format      ascii;
    class       volScalarField;
    location    "2000";
    object      p;
}
// * * * * * * * * * * * * * * * * * * * * * * * * * * * * * * * * * * * * * //

dimensions      [0 0 0 0 0 0 0];

internalField   nonuniform List<scalar> 
100
(
5.72316e+06
5.71499e+06
5.70381e+06
5.69349e+06
5.68268e+06
5.67187e+06
5.66091e+06
5.64988e+06
5.63875e+06
5.62755e+06
5.61627e+06
5.60492e+06
5.5935e+06
5.58202e+06
5.57046e+06
5.55883e+06
5.54729e+06
5.5358e+06
5.52437e+06
5.51298e+06
5.50165e+06
5.49037e+06
5.47914e+06
5.46796e+06
5.45682e+06
5.44573e+06
5.43468e+06
5.42368e+06
5.41272e+06
5.40181e+06
5.39094e+06
5.38012e+06
5.36933e+06
5.35859e+06
5.3479e+06
5.33724e+06
5.32663e+06
5.31606e+06
5.30554e+06
5.29506e+06
5.28462e+06
5.27422e+06
5.26387e+06
5.25356e+06
5.2433e+06
5.23308e+06
5.2229e+06
5.21278e+06
5.2027e+06
5.19267e+06
5.18269e+06
5.17276e+06
5.16288e+06
5.15306e+06
5.14331e+06
5.13362e+06
5.124e+06
5.11446e+06
5.10502e+06
5.0957e+06
5.08652e+06
5.07755e+06
5.06889e+06
5.06078e+06
5.05382e+06
5.04923e+06
5.04676e+06
5.04474e+06
5.04273e+06
5.04073e+06
5.03873e+06
5.03673e+06
5.03472e+06
5.03272e+06
5.03072e+06
5.02871e+06
5.02671e+06
5.02471e+06
5.0227e+06
5.0207e+06
5.0187e+06
5.01669e+06
5.01469e+06
5.01269e+06
5.0107e+06
5.00883e+06
5.00787e+06
5.00727e+06
5.00669e+06
5.00611e+06
5.00553e+06
5.00494e+06
5.00436e+06
5.00378e+06
5.0032e+06
5.00262e+06
5.00204e+06
5.00145e+06
5.00087e+06
5.00029e+06
)
;

boundaryField
{
    inlet
    {
        type            darcyGradPressure;
        gradient        uniform 4.07647e+06;
        Mf              Mf;
        phi             phi;
        value           uniform 5.73131e+06;
    }
    outlet
    {
        type            fixedValue;
        value           uniform 5e+06;
    }
    emptyWalls
    {
        type            empty;
    }
}


// ************************************************************************* //
