/*--------------------------------*- C++ -*----------------------------------*\
  =========                 |
  \\      /  F ield         | OpenFOAM: The Open Source CFD Toolbox
   \\    /   O peration     | Website:  https://openfoam.org
    \\  /    A nd           | Version:  9
     \\/     M anipulation  |
\*---------------------------------------------------------------------------*/
FoamFile
{
    format      ascii;
    class       surfaceScalarField;
    location    "2000";
    object      phia;
}
// * * * * * * * * * * * * * * * * * * * * * * * * * * * * * * * * * * * * * //

dimensions      [0 2 0 0 0 0 0];

internalField   nonuniform List<scalar> 
99
(
1.41986e-08
1.41836e-08
1.4167e-08
1.41494e-08
1.41308e-08
1.41113e-08
1.4091e-08
1.40699e-08
1.40479e-08
1.4025e-08
1.4001e-08
1.39756e-08
1.39484e-08
1.39184e-08
1.38839e-08
1.3847e-08
1.3812e-08
1.37767e-08
1.37414e-08
1.37059e-08
1.36701e-08
1.36337e-08
1.35968e-08
1.35593e-08
1.35211e-08
1.34823e-08
1.34428e-08
1.34025e-08
1.33615e-08
1.33198e-08
1.32773e-08
1.32339e-08
1.31897e-08
1.31447e-08
1.30988e-08
1.30519e-08
1.3004e-08
1.29551e-08
1.29052e-08
1.28541e-08
1.28018e-08
1.27482e-08
1.26933e-08
1.26369e-08
1.25789e-08
1.25191e-08
1.24572e-08
1.23931e-08
1.23264e-08
1.22567e-08
1.21833e-08
1.21056e-08
1.20226e-08
1.19328e-08
1.18345e-08
1.17247e-08
1.15993e-08
1.14514e-08
1.12698e-08
1.10341e-08
1.07043e-08
1.01917e-08
9.26696e-09
7.25444e-09
3.08087e-09
2.76634e-10
7.65e-13
1.20434e-18
6.02284e-31
2.44622e-39
2.66798e-39
2.82115e-39
2.66779e-39
2.89918e-39
2.82083e-39
2.89895e-39
2.66737e-39
2.66725e-39
2.66714e-39
2.82023e-39
2.44499e-39
2.89618e-39
2.64843e-39
2.49475e-39
1.52558e-39
1.13985e-40
3.64204e-41
3.08797e-41
3.25839e-41
3.34858e-41
3.25821e-41
3.34858e-41
3.0812e-41
3.25821e-41
3.34858e-41
2.825e-41
3.25821e-41
3.34858e-41
3.25821e-41
)
;

boundaryField
{
    inlet
    {
        type            calculated;
        value           uniform -1.42126e-08;
    }
    outlet
    {
        type            calculated;
        value           uniform 1.20208e-41;
    }
    emptyWalls
    {
        type            empty;
        value           nonuniform List<scalar> 0();
    }
}


// ************************************************************************* //
