/*--------------------------------*- C++ -*----------------------------------*\
  =========                 |
  \\      /  F ield         | OpenFOAM: The Open Source CFD Toolbox
   \\    /   O peration     | Website:  https://openfoam.org
    \\  /    A nd           | Version:  9
     \\/     M anipulation  |
\*---------------------------------------------------------------------------*/
FoamFile
{
    format      ascii;
    class       surfaceScalarField;
    location    "2000";
    object      phib;
}
// * * * * * * * * * * * * * * * * * * * * * * * * * * * * * * * * * * * * * //

dimensions      [0 2 0 0 0 0 0];

internalField   nonuniform List<scalar> 
99
(
6.09061e-09
6.08996e-09
6.08924e-09
6.0885e-09
6.0877e-09
6.08687e-09
6.08601e-09
6.08512e-09
6.08419e-09
6.08322e-09
6.08221e-09
6.08114e-09
6.08e-09
6.07873e-09
6.07747e-09
6.07997e-09
6.08132e-09
6.08312e-09
6.08462e-09
6.08606e-09
6.08741e-09
6.08876e-09
6.09012e-09
6.09152e-09
6.09296e-09
6.09447e-09
6.09603e-09
6.09765e-09
6.09933e-09
6.10108e-09
6.10291e-09
6.10482e-09
6.10682e-09
6.10891e-09
6.11111e-09
6.11341e-09
6.11582e-09
6.11835e-09
6.12099e-09
6.12375e-09
6.12662e-09
6.12961e-09
6.13273e-09
6.13596e-09
6.13933e-09
6.14285e-09
6.14654e-09
6.15041e-09
6.15452e-09
6.15889e-09
6.16358e-09
6.16866e-09
6.17422e-09
6.18041e-09
6.18739e-09
6.19546e-09
6.20503e-09
6.21682e-09
6.23207e-09
6.2532e-09
6.28545e-09
6.34229e-09
6.46785e-09
6.85417e-09
8.06542e-09
9.07867e-09
9.18516e-09
9.18578e-09
9.18578e-09
9.18585e-09
9.18601e-09
9.18619e-09
9.18638e-09
9.18657e-09
9.18677e-09
9.18698e-09
9.18719e-09
9.1874e-09
9.18762e-09
9.18786e-09
9.18841e-09
9.19185e-09
9.22348e-09
9.52795e-09
1.22404e-08
1.91427e-08
2.00679e-08
2.00936e-08
2.00942e-08
2.00942e-08
2.00942e-08
2.00942e-08
2.00942e-08
2.00942e-08
2.00942e-08
2.00942e-08
2.00942e-08
2.00942e-08
2.00942e-08
)
;

boundaryField
{
    inlet
    {
        type            calculated;
        value           uniform -6.09112e-09;
    }
    outlet
    {
        type            calculated;
        value           uniform 2.00942e-08;
    }
    emptyWalls
    {
        type            empty;
        value           nonuniform List<scalar> 0();
    }
}


// ************************************************************************* //
