/*--------------------------------*- C++ -*----------------------------------*\
  =========                 |
  \\      /  F ield         | OpenFOAM: The Open Source CFD Toolbox
   \\    /   O peration     | Website:  https://openfoam.org
    \\  /    A nd           | Version:  9
     \\/     M anipulation  |
\*---------------------------------------------------------------------------*/
FoamFile
{
    format      ascii;
    class       surfaceScalarField;
    location    "2000";
    object      phic;
}
// * * * * * * * * * * * * * * * * * * * * * * * * * * * * * * * * * * * * * //

dimensions      [0 2 0 0 0 0 0];

internalField   nonuniform List<scalar> 
99
(
1.454e-11
3.01413e-11
4.74959e-11
6.58747e-11
8.52759e-11
1.05563e-10
1.2671e-10
1.48711e-10
1.71604e-10
1.9548e-10
2.20503e-10
2.46962e-10
2.75354e-10
3.06578e-10
3.42361e-10
3.76758e-10
4.10374e-10
4.43967e-10
4.77697e-10
5.11765e-10
5.46263e-10
5.81259e-10
6.16798e-10
6.52913e-10
6.89629e-10
7.26967e-10
7.64943e-10
8.03575e-10
8.42878e-10
8.82871e-10
9.23571e-10
9.64998e-10
1.00717e-09
1.05012e-09
1.09387e-09
1.13845e-09
1.1839e-09
1.23026e-09
1.27758e-09
1.32591e-09
1.37532e-09
1.42589e-09
1.4777e-09
1.53087e-09
1.58552e-09
1.64182e-09
1.69996e-09
1.76018e-09
1.82279e-09
1.88818e-09
1.95686e-09
2.02948e-09
2.10695e-09
2.19049e-09
2.28184e-09
2.38355e-09
2.49942e-09
2.63551e-09
2.80186e-09
3.01641e-09
3.31394e-09
3.76974e-09
4.56892e-09
6.19513e-09
9.15745e-09
1.09484e-08
1.11178e-08
1.1118e-08
1.1118e-08
1.11179e-08
1.11177e-08
1.11175e-08
1.11174e-08
1.11172e-08
1.1117e-08
1.11168e-08
1.11165e-08
1.11163e-08
1.11161e-08
1.11159e-08
1.11153e-08
1.11119e-08
1.10803e-08
1.07758e-08
8.06329e-09
1.161e-09
2.35841e-10
2.10147e-10
2.09506e-10
2.0949e-10
2.0949e-10
2.0949e-10
2.0949e-10
2.0949e-10
2.0949e-10
2.0949e-10
2.0949e-10
2.0949e-10
2.0949e-10
)
;

boundaryField
{
    inlet
    {
        type            calculated;
        value           uniform 0;
    }
    outlet
    {
        type            calculated;
        value           uniform 2.0949e-10;
    }
    emptyWalls
    {
        type            empty;
        value           nonuniform List<scalar> 0();
    }
}


// ************************************************************************* //
