/*--------------------------------*- C++ -*----------------------------------*\
  =========                 |
  \\      /  F ield         | OpenFOAM: The Open Source CFD Toolbox
   \\    /   O peration     | Website:  https://openfoam.org
    \\  /    A nd           | Version:  9
     \\/     M anipulation  |
\*---------------------------------------------------------------------------*/
FoamFile
{
    format      ascii;
    class       volVectorField;
    location    "2000";
    object      Ua;
}
// * * * * * * * * * * * * * * * * * * * * * * * * * * * * * * * * * * * * * //

dimensions      [0 0 0 0 0 0 0];

internalField   nonuniform List<vector> 
100
(
(0 0 8.87764e-06)
(0 0 1.12929e-05)
(0 0 1.12804e-05)
(0 0 1.12667e-05)
(0 0 1.12523e-05)
(0 0 1.12372e-05)
(0 0 1.12213e-05)
(0 0 1.12049e-05)
(0 0 1.11877e-05)
(0 0 1.11699e-05)
(0 0 1.11512e-05)
(0 0 1.11316e-05)
(0 0 1.11106e-05)
(0 0 1.10879e-05)
(0 0 1.10622e-05)
(0 0 1.10338e-05)
(0 0 1.10052e-05)
(0 0 1.09772e-05)
(0 0 1.09491e-05)
(0 0 1.09209e-05)
(0 0 1.08926e-05)
(0 0 1.08638e-05)
(0 0 1.08347e-05)
(0 0 1.08051e-05)
(0 0 1.0775e-05)
(0 0 1.07443e-05)
(0 0 1.07131e-05)
(0 0 1.06814e-05)
(0 0 1.06491e-05)
(0 0 1.06162e-05)
(0 0 1.05826e-05)
(0 0 1.05485e-05)
(0 0 1.05136e-05)
(0 0 1.04781e-05)
(0 0 1.04419e-05)
(0 0 1.0405e-05)
(0 0 1.03673e-05)
(0 0 1.03288e-05)
(0 0 1.02895e-05)
(0 0 1.02493e-05)
(0 0 1.02081e-05)
(0 0 1.0166e-05)
(0 0 1.01229e-05)
(0 0 1.00786e-05)
(0 0 1.0033e-05)
(0 0 9.98616e-06)
(0 0 9.93776e-06)
(0 0 9.88765e-06)
(0 0 9.8356e-06)
(0 0 9.7813e-06)
(0 0 9.72436e-06)
(0 0 9.66425e-06)
(0 0 9.60029e-06)
(0 0 9.53155e-06)
(0 0 9.45672e-06)
(0 0 9.37392e-06)
(0 0 9.28033e-06)
(0 0 9.17158e-06)
(0 0 9.04048e-06)
(0 0 8.87445e-06)
(0 0 8.64946e-06)
(0 0 8.31427e-06)
(0 0 7.74236e-06)
(0 0 6.57366e-06)
(0 0 4.11229e-06)
(0 0 1.33591e-06)
(0 0 1.10373e-07)
(0 0 3.04384e-10)
(0 0 4.79191e-16)
(0 0 2.39641e-28)
(0 0 2.03488e-36)
(0 0 2.18406e-36)
(0 0 2.18398e-36)
(0 0 2.21503e-36)
(0 0 2.27592e-36)
(0 0 2.27583e-36)
(0 0 2.21477e-36)
(0 0 2.12258e-36)
(0 0 2.12249e-36)
(0 0 2.18335e-36)
(0 0 2.09496e-36)
(0 0 2.12518e-36)
(0 0 2.20613e-36)
(0 0 2.04641e-36)
(0 0 1.59964e-36)
(0 0 6.52362e-37)
(0 0 5.98443e-38)
(0 0 2.67779e-38)
(0 0 2.52514e-38)
(0 0 2.62883e-38)
(0 0 2.62876e-38)
(0 0 2.62876e-38)
(0 0 2.55833e-38)
(0 0 2.52237e-38)
(0 0 2.62876e-38)
(0 0 2.45639e-38)
(0 0 2.42043e-38)
(0 0 2.62876e-38)
(0 0 2.62876e-38)
(0 0 1.77469e-38)
)
;

boundaryField
{
    inlet
    {
        type            fixedValue;
        value           uniform (0 0 1.131e-05);
    }
    outlet
    {
        type            zeroGradient;
    }
    emptyWalls
    {
        type            empty;
    }
}


// ************************************************************************* //
