/*--------------------------------*- C++ -*----------------------------------*\
  =========                 |
  \\      /  F ield         | OpenFOAM: The Open Source CFD Toolbox
   \\    /   O peration     | Website:  https://openfoam.org
    \\  /    A nd           | Version:  9
     \\/     M anipulation  |
\*---------------------------------------------------------------------------*/
FoamFile
{
    format      ascii;
    class       volVectorField;
    location    "2000";
    object      Ub;
}
// * * * * * * * * * * * * * * * * * * * * * * * * * * * * * * * * * * * * * //

dimensions      [0 0 0 0 0 0 0];

internalField   nonuniform List<vector> 
100
(
(0 0 7.26222e-06)
(0 0 4.8465e-06)
(0 0 4.84595e-06)
(0 0 4.84537e-06)
(0 0 4.84475e-06)
(0 0 4.84411e-06)
(0 0 4.84344e-06)
(0 0 4.84274e-06)
(0 0 4.84201e-06)
(0 0 4.84126e-06)
(0 0 4.84047e-06)
(0 0 4.83964e-06)
(0 0 4.83876e-06)
(0 0 4.8378e-06)
(0 0 4.8368e-06)
(0 0 4.83729e-06)
(0 0 4.83882e-06)
(0 0 4.84007e-06)
(0 0 4.84139e-06)
(0 0 4.84256e-06)
(0 0 4.84367e-06)
(0 0 4.84474e-06)
(0 0 4.84582e-06)
(0 0 4.84692e-06)
(0 0 4.84805e-06)
(0 0 4.84923e-06)
(0 0 4.85044e-06)
(0 0 4.85171e-06)
(0 0 4.85302e-06)
(0 0 4.85439e-06)
(0 0 4.85582e-06)
(0 0 4.8573e-06)
(0 0 4.85886e-06)
(0 0 4.86049e-06)
(0 0 4.86219e-06)
(0 0 4.86398e-06)
(0 0 4.86586e-06)
(0 0 4.86782e-06)
(0 0 4.86988e-06)
(0 0 4.87203e-06)
(0 0 4.87427e-06)
(0 0 4.8766e-06)
(0 0 4.87903e-06)
(0 0 4.88156e-06)
(0 0 4.88418e-06)
(0 0 4.88693e-06)
(0 0 4.88979e-06)
(0 0 4.8928e-06)
(0 0 4.89598e-06)
(0 0 4.89935e-06)
(0 0 4.90295e-06)
(0 0 4.90684e-06)
(0 0 4.91108e-06)
(0 0 4.91575e-06)
(0 0 4.92099e-06)
(0 0 4.92698e-06)
(0 0 4.934e-06)
(0 0 4.9425e-06)
(0 0 4.95326e-06)
(0 0 4.96773e-06)
(0 0 4.98897e-06)
(0 0 5.02442e-06)
(0 0 5.09699e-06)
(0 0 5.30067e-06)
(0 0 5.93632e-06)
(0 0 6.82142e-06)
(0 0 7.26695e-06)
(0 0 7.30956e-06)
(0 0 7.30981e-06)
(0 0 7.30984e-06)
(0 0 7.30993e-06)
(0 0 7.31006e-06)
(0 0 7.31021e-06)
(0 0 7.31036e-06)
(0 0 7.31052e-06)
(0 0 7.31068e-06)
(0 0 7.31085e-06)
(0 0 7.31102e-06)
(0 0 7.31119e-06)
(0 0 7.31137e-06)
(0 0 7.31169e-06)
(0 0 7.31327e-06)
(0 0 7.32723e-06)
(0 0 7.46096e-06)
(0 0 8.66137e-06)
(0 0 1.2487e-05)
(0 0 1.56014e-05)
(0 0 1.59797e-05)
(0 0 1.59902e-05)
(0 0 1.59905e-05)
(0 0 1.59905e-05)
(0 0 1.59905e-05)
(0 0 1.59905e-05)
(0 0 1.59905e-05)
(0 0 1.59905e-05)
(0 0 1.59905e-05)
(0 0 1.59905e-05)
(0 0 1.59905e-05)
(0 0 1.59905e-05)
(0 0 1.59905e-05)
)
;

boundaryField
{
    inlet
    {
        type            fixedValue;
        value           uniform (0 0 4.84716e-06);
    }
    outlet
    {
        type            zeroGradient;
    }
    emptyWalls
    {
        type            empty;
    }
}


// ************************************************************************* //
