/*--------------------------------*- C++ -*----------------------------------*\
  =========                 |
  \\      /  F ield         | OpenFOAM: The Open Source CFD Toolbox
   \\    /   O peration     | Website:  https://openfoam.org
    \\  /    A nd           | Version:  9
     \\/     M anipulation  |
\*---------------------------------------------------------------------------*/
FoamFile
{
    format      ascii;
    class       volVectorField;
    location    "2000";
    object      Uc;
}
// * * * * * * * * * * * * * * * * * * * * * * * * * * * * * * * * * * * * * //

dimensions      [0 0 0 0 0 0 0];

internalField   nonuniform List<vector> 
100
(
(0 0 1.7337e-08)
(0 0 1.77781e-08)
(0 0 3.08909e-08)
(0 0 4.51087e-08)
(0 0 6.01409e-08)
(0 0 7.59323e-08)
(0 0 9.24186e-08)
(0 0 1.09587e-07)
(0 0 1.27449e-07)
(0 0 1.46058e-07)
(0 0 1.65515e-07)
(0 0 1.85999e-07)
(0 0 2.07823e-07)
(0 0 2.31543e-07)
(0 0 2.58204e-07)
(0 0 2.86128e-07)
(0 0 3.1319e-07)
(0 0 3.39932e-07)
(0 0 3.66718e-07)
(0 0 3.93695e-07)
(0 0 4.20976e-07)
(0 0 4.48626e-07)
(0 0 4.76692e-07)
(0 0 5.05202e-07)
(0 0 5.34181e-07)
(0 0 5.63646e-07)
(0 0 5.93612e-07)
(0 0 6.24093e-07)
(0 0 6.55103e-07)
(0 0 6.86654e-07)
(0 0 7.18761e-07)
(0 0 7.51438e-07)
(0 0 7.84703e-07)
(0 0 8.18573e-07)
(0 0 8.53069e-07)
(0 0 8.88215e-07)
(0 0 9.24038e-07)
(0 0 9.60568e-07)
(0 0 9.97841e-07)
(0 0 1.0359e-06)
(0 0 1.07479e-06)
(0 0 1.11457e-06)
(0 0 1.1553e-06)
(0 0 1.19707e-06)
(0 0 1.23997e-06)
(0 0 1.28412e-06)
(0 0 1.32965e-06)
(0 0 1.37675e-06)
(0 0 1.42562e-06)
(0 0 1.47655e-06)
(0 0 1.52989e-06)
(0 0 1.58611e-06)
(0 0 1.64583e-06)
(0 0 1.7099e-06)
(0 0 1.77949e-06)
(0 0 1.8563e-06)
(0 0 1.94287e-06)
(0 0 2.04312e-06)
(0 0 2.16346e-06)
(0 0 2.31502e-06)
(0 0 2.51877e-06)
(0 0 2.81851e-06)
(0 0 3.31785e-06)
(0 0 4.28288e-06)
(0 0 6.10859e-06)
(0 0 7.99987e-06)
(0 0 8.77988e-06)
(0 0 8.84733e-06)
(0 0 8.84739e-06)
(0 0 8.84736e-06)
(0 0 8.84727e-06)
(0 0 8.84714e-06)
(0 0 8.84699e-06)
(0 0 8.84684e-06)
(0 0 8.84668e-06)
(0 0 8.84652e-06)
(0 0 8.84635e-06)
(0 0 8.84618e-06)
(0 0 8.84601e-06)
(0 0 8.84583e-06)
(0 0 8.84551e-06)
(0 0 8.84393e-06)
(0 0 8.82997e-06)
(0 0 8.69624e-06)
(0 0 7.49583e-06)
(0 0 3.67023e-06)
(0 0 5.55783e-07)
(0 0 1.77453e-07)
(0 0 1.66974e-07)
(0 0 1.66713e-07)
(0 0 1.66707e-07)
(0 0 1.66707e-07)
(0 0 1.66707e-07)
(0 0 1.66707e-07)
(0 0 1.66707e-07)
(0 0 1.66707e-07)
(0 0 1.66707e-07)
(0 0 1.66707e-07)
(0 0 1.66707e-07)
(0 0 1.66707e-07)
)
;

boundaryField
{
    inlet
    {
        type            fixedValue;
        value           uniform (0 0 0);
    }
    outlet
    {
        type            zeroGradient;
    }
    emptyWalls
    {
        type            empty;
    }
}


// ************************************************************************* //
