/*--------------------------------*- C++ -*----------------------------------*\
  =========                 |
  \\      /  F ield         | OpenFOAM: The Open Source CFD Toolbox
   \\    /   O peration     | Website:  https://openfoam.org
    \\  /    A nd           | Version:  9
     \\/     M anipulation  |
\*---------------------------------------------------------------------------*/
FoamFile
{
    format      ascii;
    class       volScalarField;
    location    "14850";
    object      krc;
}
// * * * * * * * * * * * * * * * * * * * * * * * * * * * * * * * * * * * * * //

dimensions      [0 0 0 0 0 0 0];

internalField   nonuniform List<scalar> 
1000
(
2.19789e-07
2.14298e-06
7.56513e-06
1.60113e-05
2.74275e-05
4.18147e-05
5.91359e-05
7.92604e-05
0.000101913
0.000126621
0.000152714
0.000179341
0.000205579
0.000230551
0.000253623
0.00027467
0.000295367
0.000325459
0.00041443
0.000806087
0.00453265
0.0294607
0.0416549
0.0452593
0.0470097
0.0481415
0.0489975
0.0497036
0.050315
0.0508608
0.0513562
0.0518126
0.0522353
0.0526309
0.053002
0.0533539
0.0536882
0.0540098
0.0543195
0.0546215
0.054916
0.055207
0.0554946
0.0557826
0.0560761
0.0563779
0.0566829
0.0569926
0.0573089
0.0576344
0.0579733
0.0583313
0.0587171
0.0591431
0.0596258
0.0601837
0.0608334
0.0615812
0.0624181
0.0633229
0.0642745
0.0652576
0.0662621
0.0672813
0.0683104
0.069346
0.0703858
0.0714279
0.0724712
0.0735146
0.0745575
0.0755991
0.0766391
0.0776772
0.078713
0.0797464
0.0807771
0.0818051
0.0828301
0.0838522
0.0848713
0.0858872
0.0869
0.0879096
0.0889159
0.089919
0.0909189
0.0919154
0.0929087
0.0938987
0.0948854
0.0958689
0.0968491
0.097826
0.0987997
0.0997702
0.100737
0.101701
0.102662
0.10362
0.104574
0.105526
0.106474
0.107419
0.108361
0.1093
0.110236
0.111169
0.112099
0.113025
0.113949
0.11487
0.115788
0.116702
0.117614
0.118523
0.119429
0.120332
0.121233
0.12213
0.123025
0.123917
0.124807
0.125694
0.126578
0.12746
0.128339
0.129216
0.13009
0.130962
0.131832
0.132699
0.133564
0.134426
0.135286
0.136144
0.136999
0.137852
0.138702
0.13955
0.140395
0.141239
0.142079
0.142918
0.143754
0.144588
0.145419
0.146248
0.147075
0.1479
0.148723
0.149544
0.150362
0.151178
0.151993
0.152805
0.153615
0.154423
0.15523
0.156034
0.156836
0.157637
0.158435
0.159232
0.160026
0.160819
0.16161
0.162399
0.163186
0.163971
0.164755
0.165537
0.166317
0.167095
0.167872
0.168646
0.169419
0.170191
0.17096
0.171728
0.172494
0.173259
0.174022
0.174783
0.175543
0.176301
0.177058
0.177813
0.178566
0.179318
0.180069
0.180818
0.181565
0.182311
0.183055
0.183798
0.184539
0.185279
0.186018
0.186755
0.187491
0.188225
0.188958
0.18969
0.19042
0.191149
0.191876
0.192603
0.193327
0.194051
0.194773
0.195494
0.196214
0.196933
0.19765
0.198366
0.199081
0.199794
0.200506
0.201218
0.201928
0.202636
0.203344
0.20405
0.204756
0.20546
0.206163
0.206865
0.207566
0.208266
0.208964
0.209662
0.210358
0.211054
0.211748
0.212442
0.213134
0.213826
0.214516
0.215205
0.215894
0.216581
0.217267
0.217952
0.218637
0.21932
0.220002
0.220684
0.221364
0.222043
0.222722
0.223399
0.224075
0.224751
0.225425
0.226099
0.226772
0.227443
0.228114
0.228784
0.229454
0.230122
0.23079
0.231457
0.232124
0.232789
0.233454
0.234119
0.234783
0.235446
0.236109
0.236772
0.237434
0.238095
0.238756
0.239416
0.240076
0.240735
0.241394
0.242052
0.242709
0.243366
0.244022
0.244677
0.245332
0.245986
0.246639
0.247292
0.247944
0.248595
0.249246
0.249896
0.250545
0.251194
0.251842
0.252489
0.253136
0.253783
0.254428
0.255074
0.255718
0.256363
0.257006
0.25765
0.258292
0.258935
0.259577
0.260218
0.260859
0.2615
0.26214
0.26278
0.263419
0.264058
0.264697
0.265335
0.265973
0.26661
0.267247
0.267884
0.268521
0.269157
0.269792
0.270428
0.271063
0.271698
0.272332
0.272966
0.2736
0.274233
0.274867
0.2755
0.276132
0.276765
0.277397
0.278029
0.27866
0.279292
0.279923
0.280554
0.281184
0.281815
0.282445
0.283075
0.283705
0.284335
0.284964
0.285593
0.286222
0.286851
0.28748
0.288109
0.288737
0.289366
0.289994
0.290622
0.29125
0.291878
0.292506
0.293134
0.293761
0.294389
0.295016
0.295644
0.296271
0.296899
0.297526
0.298153
0.29878
0.299408
0.300035
0.300662
0.301289
0.301917
0.302544
0.303171
0.303799
0.304426
0.305053
0.305681
0.306308
0.306936
0.307564
0.308192
0.30882
0.309448
0.310076
0.310704
0.311333
0.311961
0.31259
0.313219
0.313848
0.314477
0.315106
0.315736
0.316366
0.316996
0.317626
0.318256
0.318887
0.319518
0.320149
0.32078
0.321411
0.322043
0.322674
0.323306
0.323939
0.324571
0.325204
0.325837
0.32647
0.327104
0.327737
0.328372
0.329006
0.329641
0.330276
0.330911
0.331547
0.332184
0.332821
0.333458
0.334096
0.334734
0.335373
0.336013
0.336654
0.337295
0.337936
0.338579
0.339222
0.339866
0.340511
0.341157
0.341804
0.342451
0.3431
0.343749
0.344399
0.34505
0.345702
0.346354
0.347008
0.347662
0.348317
0.348973
0.34963
0.350287
0.350945
0.351605
0.352264
0.352925
0.353587
0.354249
0.354912
0.355576
0.35624
0.356906
0.357572
0.35824
0.358908
0.359577
0.360247
0.360918
0.36159
0.362263
0.362937
0.363612
0.364289
0.364966
0.365645
0.366325
0.367006
0.367688
0.368371
0.369056
0.369742
0.37043
0.371118
0.371809
0.3725
0.373193
0.373887
0.374583
0.37528
0.375979
0.37668
0.377382
0.378085
0.37879
0.379497
0.380205
0.380915
0.381627
0.38234
0.383056
0.383773
0.384491
0.385212
0.385935
0.386659
0.387385
0.388114
0.388844
0.389576
0.390311
0.391047
0.391786
0.392526
0.393269
0.394014
0.394762
0.395511
0.396263
0.397018
0.397774
0.398533
0.399295
0.400059
0.400826
0.401595
0.402367
0.403142
0.403919
0.404699
0.405481
0.406266
0.407055
0.407846
0.40864
0.409437
0.410236
0.411039
0.411844
0.412653
0.413464
0.414279
0.415096
0.415916
0.416739
0.417565
0.418393
0.419224
0.420058
0.420893
0.421731
0.422571
0.423412
0.424254
0.425097
0.425941
0.426783
0.427624
0.428463
0.429299
0.43013
0.430955
0.431772
0.432579
0.433375
0.434156
0.434921
0.435666
0.436389
0.437087
0.437756
0.438394
0.438999
0.439567
0.440098
0.440589
0.441039
0.441448
0.441816
0.442143
0.442433
0.442687
0.442906
0.443095
0.443258
0.4434
0.443528
0.443654
0.443794
0.443974
0.44424
0.444676
0.445423
0.446729
0.449024
0.453018
0.459823
0.470975
0.488113
0.511979
0.540946
0.570611
0.595931
0.61422
0.625807
0.632524
0.636207
0.638165
0.639188
0.639715
0.639986
0.640123
0.640192
0.640225
0.640241
0.640247
0.640249
0.640249
0.640248
0.640246
0.640245
0.640243
0.640243
0.640242
0.640242
0.640242
0.640242
0.640244
0.640245
0.640247
0.64025
0.640252
0.640255
0.640259
0.640262
0.640266
0.64027
0.640274
0.640279
0.640283
0.640288
0.640292
0.640297
0.640302
0.640306
0.640311
0.640315
0.640319
0.640323
0.640327
0.640331
0.640335
0.640339
0.640342
0.640345
0.640348
0.640351
0.640354
0.640356
0.640359
0.640361
0.640363
0.640365
0.640367
0.640369
0.64037
0.640372
0.640373
0.640375
0.640376
0.640377
0.640379
0.64038
0.640381
0.640382
0.640383
0.640385
0.640386
0.640387
0.640388
0.640389
0.64039
0.640391
0.640392
0.640393
0.640395
0.640396
0.640397
0.640398
0.640399
0.6404
0.640401
0.640402
0.640403
0.640404
0.640405
0.640406
0.640407
0.640408
0.640409
0.64041
0.640411
0.640412
0.640413
0.640414
0.640415
0.640416
0.640417
0.640417
0.640418
0.640419
0.64042
0.640421
0.640421
0.640422
0.640423
0.640423
0.640424
0.640424
0.640425
0.640426
0.640426
0.640427
0.640427
0.640427
0.640428
0.640428
0.640428
0.640429
0.640429
0.640429
0.64043
0.64043
0.64043
0.64043
0.64043
0.64043
0.64043
0.64043
0.64043
0.64043
0.64043
0.64043
0.64043
0.64043
0.64043
0.640429
0.640429
0.640429
0.640429
0.640429
0.640428
0.640428
0.640428
0.640427
0.640427
0.640427
0.640426
0.640426
0.640425
0.640425
0.640424
0.640424
0.640424
0.640423
0.640422
0.640422
0.640421
0.640421
0.64042
0.64042
0.640419
0.640418
0.640417
0.640417
0.640416
0.640415
0.640414
0.640413
0.640412
0.640411
0.64041
0.640409
0.640407
0.640406
0.640405
0.640403
0.640401
0.6404
0.640398
0.640396
0.640394
0.640391
0.640389
0.640386
0.640384
0.640381
0.640378
0.640375
0.640372
0.640369
0.640365
0.640362
0.640358
0.640355
0.640351
0.640347
0.640343
0.640339
0.640335
0.640331
0.640327
0.640323
0.640319
0.640315
0.640311
0.640307
0.640304
0.6403
0.640296
0.640293
0.64029
0.640287
0.640284
0.640281
0.640279
0.640277
0.640275
0.640273
0.640272
0.640271
0.640271
0.64027
0.64027
0.64027
0.640271
0.640272
0.640273
0.640275
0.640277
0.64028
0.640282
0.640285
0.640289
0.640292
0.640295
0.640299
0.640303
0.640306
0.64031
0.640314
0.640318
0.640322
0.640326
0.640329
0.640333
0.640337
0.64034
0.640343
0.640346
0.640349
0.640352
0.640355
0.640358
0.64036
0.640362
0.640365
0.640367
0.640369
0.64037
0.640372
0.640374
0.640375
0.640377
0.640378
0.640379
0.64038
0.640381
0.640383
0.640384
0.640385
0.640385
0.640386
0.640387
0.640388
0.640389
0.64039
0.640391
0.640392
0.640393
0.640394
0.640395
0.640395
0.640396
0.640397
0.640398
0.640399
0.6404
0.640401
0.640402
0.640403
0.640404
0.640405
0.640406
0.640407
0.640407
0.640408
0.640409
0.64041
0.640411
0.640412
0.640413
0.640414
0.640415
0.640415
0.640416
0.640417
0.640418
0.640419
0.640419
0.64042
0.640421
0.640421
0.640422
0.640423
0.640423
0.640424
0.640424
0.640425
0.640426
0.640426
0.640426
0.640427
0.640427
0.640428
0.640428
0.640428
0.640429
0.640429
0.640429
0.640429
0.640429
0.64043
0.64043
0.64043
0.64043
0.64043
0.64043
0.64043
0.64043
0.64043
0.64043
0.64043
0.64043
0.640429
0.640429
0.640429
0.640429
0.640428
0.640428
0.640428
0.640427
0.640427
0.640427
0.640426
0.640426
0.640425
0.640425
0.640424
0.640424
0.640423
0.640423
0.640422
0.640421
0.64042
0.64042
0.640419
0.640418
0.640417
0.640417
0.640415
0.640415
0.640413
0.640413
0.640411
0.640411
0.640409
0.640408
0.640406
0.640405
0.640403
0.640402
0.6404
0.640399
0.640396
0.640395
0.640392
0.640391
0.640388
0.640387
0.640383
0.640382
0.640376
)
;

boundaryField
{
    inlet
    {
        type            calculated;
        value           uniform 3.08149e-33;
    }
    outlet
    {
        type            calculated;
        value           uniform 0.640376;
    }
    emptyWalls
    {
        type            empty;
    }
}


// ************************************************************************* //
