/*--------------------------------*- C++ -*----------------------------------*\
  =========                 |
  \\      /  F ield         | OpenFOAM: The Open Source CFD Toolbox
   \\    /   O peration     | Website:  https://openfoam.org
    \\  /    A nd           | Version:  9
     \\/     M anipulation  |
\*---------------------------------------------------------------------------*/
FoamFile
{
    format      ascii;
    class       surfaceScalarField;
    location    "14850";
    object      phia;
}
// * * * * * * * * * * * * * * * * * * * * * * * * * * * * * * * * * * * * * //

dimensions      [0 2 0 0 0 0 0];

internalField   nonuniform List<scalar> 
999
(
2.74834e-10
2.74865e-10
2.74827e-10
2.74795e-10
2.74745e-10
2.74671e-10
2.74584e-10
2.74494e-10
2.74385e-10
2.74277e-10
2.7415e-10
2.74051e-10
2.73903e-10
2.73842e-10
2.73713e-10
2.73656e-10
2.73559e-10
2.73303e-10
2.72444e-10
2.68896e-10
2.46726e-10
2.2178e-10
2.18013e-10
2.15822e-10
2.13645e-10
2.11802e-10
2.10266e-10
2.09235e-10
2.08593e-10
2.08443e-10
2.08337e-10
2.08261e-10
2.08164e-10
2.08048e-10
2.07893e-10
2.07701e-10
2.07507e-10
2.07319e-10
2.0712e-10
2.06924e-10
2.06731e-10
2.06545e-10
2.06364e-10
2.06191e-10
2.06021e-10
2.05859e-10
2.05703e-10
2.05556e-10
2.05416e-10
2.05284e-10
2.0516e-10
2.05042e-10
2.04932e-10
2.04829e-10
2.04734e-10
2.04653e-10
2.04587e-10
2.04538e-10
2.04497e-10
2.04456e-10
2.04415e-10
2.04375e-10
2.04336e-10
2.04298e-10
2.04262e-10
2.04227e-10
2.04193e-10
2.04161e-10
2.0413e-10
2.04101e-10
2.04073e-10
2.04046e-10
2.04021e-10
2.03997e-10
2.03974e-10
2.03953e-10
2.03933e-10
2.03915e-10
2.03897e-10
2.03882e-10
2.03868e-10
2.03855e-10
2.03844e-10
2.03834e-10
2.03825e-10
2.03818e-10
2.0381e-10
2.03802e-10
2.03793e-10
2.03783e-10
2.03771e-10
2.03759e-10
2.03748e-10
2.03737e-10
2.03727e-10
2.0372e-10
2.03716e-10
2.03714e-10
2.03715e-10
2.03717e-10
2.03719e-10
2.0372e-10
2.03718e-10
2.03714e-10
2.0371e-10
2.03711e-10
2.03721e-10
2.03746e-10
2.03792e-10
2.03864e-10
2.03962e-10
2.04089e-10
2.04243e-10
2.04421e-10
2.0462e-10
2.04835e-10
2.05062e-10
2.05294e-10
2.05527e-10
2.05754e-10
2.05967e-10
2.06158e-10
2.06321e-10
2.06446e-10
2.06528e-10
2.0656e-10
2.06538e-10
2.06462e-10
2.06333e-10
2.06153e-10
2.0593e-10
2.05672e-10
2.05389e-10
2.05089e-10
2.04785e-10
2.04486e-10
2.042e-10
2.03934e-10
2.03694e-10
2.03482e-10
2.033e-10
2.03148e-10
2.03026e-10
2.02929e-10
2.02856e-10
2.02803e-10
2.02765e-10
2.0274e-10
2.02724e-10
2.02713e-10
2.02705e-10
2.02697e-10
2.02688e-10
2.02676e-10
2.02661e-10
2.02642e-10
2.02618e-10
2.02589e-10
2.02557e-10
2.0252e-10
2.02479e-10
2.02436e-10
2.02389e-10
2.02341e-10
2.0229e-10
2.02238e-10
2.02185e-10
2.02131e-10
2.02076e-10
2.02021e-10
2.01966e-10
2.01911e-10
2.01856e-10
2.01801e-10
2.01747e-10
2.01693e-10
2.01639e-10
2.01586e-10
2.01534e-10
2.01482e-10
2.01431e-10
2.01381e-10
2.01331e-10
2.01283e-10
2.01235e-10
2.01188e-10
2.01141e-10
2.01096e-10
2.01052e-10
2.01008e-10
2.00965e-10
2.00924e-10
2.00883e-10
2.00843e-10
2.00805e-10
2.00767e-10
2.0073e-10
2.00694e-10
2.00659e-10
2.00625e-10
2.00593e-10
2.00561e-10
2.0053e-10
2.00499e-10
2.0047e-10
2.00442e-10
2.00415e-10
2.00389e-10
2.00364e-10
2.0034e-10
2.00317e-10
2.00295e-10
2.00273e-10
2.00253e-10
2.00233e-10
2.00215e-10
2.00196e-10
2.00179e-10
2.00161e-10
2.00144e-10
2.00128e-10
2.00111e-10
2.00095e-10
2.0008e-10
2.00064e-10
2.00049e-10
2.00035e-10
2.00021e-10
2.00008e-10
1.99996e-10
1.99984e-10
1.99973e-10
1.99962e-10
1.99951e-10
1.99941e-10
1.99932e-10
1.99924e-10
1.99917e-10
1.99912e-10
1.99909e-10
1.99911e-10
1.99916e-10
1.99927e-10
1.99945e-10
1.9997e-10
2.00004e-10
2.00048e-10
2.00102e-10
2.00166e-10
2.00242e-10
2.00328e-10
2.00425e-10
2.00533e-10
2.00649e-10
2.00773e-10
2.00904e-10
2.01039e-10
2.01177e-10
2.01314e-10
2.01449e-10
2.01578e-10
2.01699e-10
2.01809e-10
2.01905e-10
2.01984e-10
2.02045e-10
2.02083e-10
2.02099e-10
2.02091e-10
2.02058e-10
2.02e-10
2.01919e-10
2.01814e-10
2.01689e-10
2.01545e-10
2.01385e-10
2.01213e-10
2.01032e-10
2.00845e-10
2.00655e-10
2.00466e-10
2.0028e-10
2.00101e-10
1.9993e-10
1.99768e-10
1.99618e-10
1.99479e-10
1.99353e-10
1.99239e-10
1.99136e-10
1.99045e-10
1.98965e-10
1.98894e-10
1.98831e-10
1.98776e-10
1.98727e-10
1.98683e-10
1.98643e-10
1.98606e-10
1.98571e-10
1.98538e-10
1.98505e-10
1.98473e-10
1.98439e-10
1.98406e-10
1.98371e-10
1.98334e-10
1.98297e-10
1.98258e-10
1.98217e-10
1.98175e-10
1.98131e-10
1.98086e-10
1.9804e-10
1.97993e-10
1.97945e-10
1.97896e-10
1.97846e-10
1.97795e-10
1.97745e-10
1.97693e-10
1.97642e-10
1.9759e-10
1.97539e-10
1.97487e-10
1.97436e-10
1.97385e-10
1.97334e-10
1.97283e-10
1.97233e-10
1.97183e-10
1.97133e-10
1.97084e-10
1.97036e-10
1.96988e-10
1.96941e-10
1.96894e-10
1.96848e-10
1.96803e-10
1.96758e-10
1.96714e-10
1.9667e-10
1.96628e-10
1.96586e-10
1.96544e-10
1.96504e-10
1.96464e-10
1.96425e-10
1.96387e-10
1.96349e-10
1.96312e-10
1.96276e-10
1.9624e-10
1.96206e-10
1.96172e-10
1.96139e-10
1.96106e-10
1.96075e-10
1.96044e-10
1.96014e-10
1.95984e-10
1.95956e-10
1.95928e-10
1.95901e-10
1.95874e-10
1.95849e-10
1.95824e-10
1.95799e-10
1.95775e-10
1.95752e-10
1.9573e-10
1.95707e-10
1.95686e-10
1.95665e-10
1.95644e-10
1.95624e-10
1.95604e-10
1.95584e-10
1.95565e-10
1.95547e-10
1.95528e-10
1.95511e-10
1.95493e-10
1.95476e-10
1.95459e-10
1.95442e-10
1.95426e-10
1.95411e-10
1.95396e-10
1.95381e-10
1.95367e-10
1.95354e-10
1.95342e-10
1.95331e-10
1.95321e-10
1.95312e-10
1.95306e-10
1.95301e-10
1.95299e-10
1.953e-10
1.95303e-10
1.95311e-10
1.95322e-10
1.95338e-10
1.95358e-10
1.95383e-10
1.95414e-10
1.9545e-10
1.95491e-10
1.95538e-10
1.95591e-10
1.95649e-10
1.95713e-10
1.95781e-10
1.95854e-10
1.95931e-10
1.96011e-10
1.96094e-10
1.96178e-10
1.96263e-10
1.96348e-10
1.96431e-10
1.96511e-10
1.96587e-10
1.96659e-10
1.96724e-10
1.96781e-10
1.96829e-10
1.96868e-10
1.96896e-10
1.96912e-10
1.96916e-10
1.96906e-10
1.96884e-10
1.96847e-10
1.96798e-10
1.96735e-10
1.9666e-10
1.96573e-10
1.96474e-10
1.96366e-10
1.96249e-10
1.96125e-10
1.95994e-10
1.95859e-10
1.95721e-10
1.95581e-10
1.9544e-10
1.95301e-10
1.95163e-10
1.95029e-10
1.94898e-10
1.94773e-10
1.94652e-10
1.94538e-10
1.94429e-10
1.94327e-10
1.9423e-10
1.9414e-10
1.94056e-10
1.93977e-10
1.93904e-10
1.93835e-10
1.93771e-10
1.93711e-10
1.93655e-10
1.93602e-10
1.93551e-10
1.93503e-10
1.93456e-10
1.93411e-10
1.93367e-10
1.93324e-10
1.93281e-10
1.93239e-10
1.93196e-10
1.93154e-10
1.93111e-10
1.93068e-10
1.93025e-10
1.92981e-10
1.92936e-10
1.92891e-10
1.92846e-10
1.92799e-10
1.92753e-10
1.92706e-10
1.92658e-10
1.9261e-10
1.92562e-10
1.92513e-10
1.92464e-10
1.92415e-10
1.92366e-10
1.92316e-10
1.92267e-10
1.92217e-10
1.92168e-10
1.92118e-10
1.92069e-10
1.9202e-10
1.91971e-10
1.91922e-10
1.91874e-10
1.91825e-10
1.91777e-10
1.9173e-10
1.91682e-10
1.91635e-10
1.91588e-10
1.91542e-10
1.91496e-10
1.9145e-10
1.91405e-10
1.9136e-10
1.91315e-10
1.91271e-10
1.91227e-10
1.91184e-10
1.91141e-10
1.91098e-10
1.91056e-10
1.91014e-10
1.90973e-10
1.90932e-10
1.90892e-10
1.90852e-10
1.90813e-10
1.90774e-10
1.90735e-10
1.90697e-10
1.9066e-10
1.90623e-10
1.90586e-10
1.9055e-10
1.90514e-10
1.90479e-10
1.90444e-10
1.9041e-10
1.90376e-10
1.90343e-10
1.9031e-10
1.90277e-10
1.90245e-10
1.90213e-10
1.90182e-10
1.90151e-10
1.90121e-10
1.90091e-10
1.90061e-10
1.90032e-10
1.90004e-10
1.89975e-10
1.89948e-10
1.8992e-10
1.89893e-10
1.89867e-10
1.89841e-10
1.89817e-10
1.89793e-10
1.89769e-10
1.89748e-10
1.89726e-10
1.89706e-10
1.89688e-10
1.89671e-10
1.89656e-10
1.89643e-10
1.8963e-10
1.89622e-10
1.89615e-10
1.8961e-10
1.89609e-10
1.89611e-10
1.89614e-10
1.89622e-10
1.89633e-10
1.89645e-10
1.89664e-10
1.89685e-10
1.89707e-10
1.89736e-10
1.89768e-10
1.898e-10
1.89838e-10
1.89877e-10
1.89915e-10
1.89952e-10
1.89983e-10
1.89999e-10
1.8999e-10
1.8993e-10
1.89789e-10
1.89521e-10
1.89088e-10
1.88489e-10
1.87817e-10
1.87228e-10
1.86845e-10
1.86662e-10
1.8661e-10
1.8663e-10
1.86677e-10
1.86745e-10
1.86814e-10
1.86888e-10
1.86962e-10
1.87035e-10
1.87105e-10
1.87173e-10
1.87237e-10
1.87297e-10
1.87353e-10
1.87403e-10
1.87449e-10
1.87489e-10
1.87522e-10
1.87549e-10
1.87568e-10
1.87578e-10
1.87582e-10
1.87582e-10
1.87582e-10
1.87571e-10
1.87544e-10
1.87514e-10
1.87478e-10
1.87436e-10
1.87388e-10
1.87336e-10
1.87279e-10
1.87217e-10
1.87152e-10
1.87084e-10
1.87013e-10
1.86941e-10
1.86867e-10
1.86792e-10
1.86717e-10
1.86643e-10
1.86569e-10
1.86497e-10
1.86426e-10
1.86358e-10
1.86292e-10
1.86228e-10
1.86168e-10
1.8611e-10
1.86056e-10
1.86004e-10
1.85956e-10
1.85912e-10
1.8587e-10
1.85831e-10
1.85795e-10
1.85762e-10
1.85732e-10
1.85704e-10
1.85679e-10
1.85656e-10
1.85634e-10
1.85615e-10
1.85596e-10
1.8558e-10
1.85564e-10
1.8555e-10
1.85536e-10
1.85523e-10
1.85511e-10
1.855e-10
1.85488e-10
1.85477e-10
1.85466e-10
1.85455e-10
1.85444e-10
1.85433e-10
1.85422e-10
1.85411e-10
1.854e-10
1.85388e-10
1.85377e-10
1.85365e-10
1.85353e-10
1.85341e-10
1.85328e-10
1.85316e-10
1.85303e-10
1.8529e-10
1.85277e-10
1.85263e-10
1.8525e-10
1.85237e-10
1.85223e-10
1.85209e-10
1.85196e-10
1.85182e-10
1.85169e-10
1.85155e-10
1.85142e-10
1.85128e-10
1.85115e-10
1.85102e-10
1.85089e-10
1.85076e-10
1.85063e-10
1.85051e-10
1.85038e-10
1.85026e-10
1.85014e-10
1.85002e-10
1.84991e-10
1.8498e-10
1.84969e-10
1.84958e-10
1.84948e-10
1.84937e-10
1.84928e-10
1.84918e-10
1.84909e-10
1.849e-10
1.84892e-10
1.84884e-10
1.84876e-10
1.84869e-10
1.84862e-10
1.84855e-10
1.84849e-10
1.84843e-10
1.84838e-10
1.84833e-10
1.84828e-10
1.84824e-10
1.84821e-10
1.84817e-10
1.84815e-10
1.84812e-10
1.8481e-10
1.84809e-10
1.84808e-10
1.84807e-10
1.84807e-10
1.84807e-10
1.84807e-10
1.84808e-10
1.8481e-10
1.84812e-10
1.84814e-10
1.84817e-10
1.8482e-10
1.84824e-10
1.84827e-10
1.84832e-10
1.84837e-10
1.84842e-10
1.84847e-10
1.84853e-10
1.84859e-10
1.84865e-10
1.84872e-10
1.8488e-10
1.84887e-10
1.84895e-10
1.84904e-10
1.84912e-10
1.84922e-10
1.84931e-10
1.84941e-10
1.84952e-10
1.84963e-10
1.84975e-10
1.84988e-10
1.85001e-10
1.85014e-10
1.85029e-10
1.85045e-10
1.85061e-10
1.85078e-10
1.85097e-10
1.85117e-10
1.85138e-10
1.8516e-10
1.85184e-10
1.85209e-10
1.85236e-10
1.85265e-10
1.85296e-10
1.85328e-10
1.85362e-10
1.85399e-10
1.85437e-10
1.85478e-10
1.85521e-10
1.85566e-10
1.85613e-10
1.85663e-10
1.85714e-10
1.85768e-10
1.85824e-10
1.85882e-10
1.85942e-10
1.86004e-10
1.86067e-10
1.86132e-10
1.86198e-10
1.86266e-10
1.86334e-10
1.86402e-10
1.86471e-10
1.8654e-10
1.86609e-10
1.86677e-10
1.86744e-10
1.8681e-10
1.86874e-10
1.86936e-10
1.86996e-10
1.87052e-10
1.87106e-10
1.87156e-10
1.87203e-10
1.87245e-10
1.87283e-10
1.87316e-10
1.87344e-10
1.87367e-10
1.87385e-10
1.87396e-10
1.87403e-10
1.87405e-10
1.87405e-10
1.87404e-10
1.87393e-10
1.87371e-10
1.87345e-10
1.87314e-10
1.87278e-10
1.87237e-10
1.87192e-10
1.87144e-10
1.87092e-10
1.87037e-10
1.8698e-10
1.86921e-10
1.8686e-10
1.86798e-10
1.86735e-10
1.86672e-10
1.86609e-10
1.86546e-10
1.86484e-10
1.86423e-10
1.86364e-10
1.86306e-10
1.86249e-10
1.86195e-10
1.86143e-10
1.86093e-10
1.86045e-10
1.86e-10
1.85957e-10
1.85916e-10
1.85878e-10
1.85842e-10
1.85808e-10
1.85776e-10
1.85746e-10
1.85718e-10
1.85692e-10
1.85668e-10
1.85645e-10
1.85623e-10
1.85603e-10
1.85584e-10
1.85566e-10
1.85548e-10
1.85532e-10
1.85516e-10
1.855e-10
1.85485e-10
1.85471e-10
1.85456e-10
1.85442e-10
1.85428e-10
1.85414e-10
1.854e-10
1.85386e-10
1.85372e-10
1.85358e-10
1.85344e-10
1.8533e-10
1.85316e-10
1.85301e-10
1.85287e-10
1.85272e-10
1.85258e-10
1.85243e-10
1.85228e-10
1.85214e-10
1.85199e-10
1.85184e-10
1.85169e-10
1.85155e-10
1.8514e-10
1.85125e-10
1.85111e-10
1.85097e-10
1.85082e-10
1.85068e-10
1.85054e-10
1.85041e-10
1.85027e-10
1.85014e-10
1.85001e-10
1.84988e-10
1.84976e-10
1.84963e-10
1.84952e-10
1.8494e-10
1.84929e-10
1.84918e-10
1.84907e-10
1.84897e-10
1.84887e-10
1.84878e-10
1.84869e-10
1.8486e-10
1.84852e-10
1.84844e-10
1.84837e-10
1.8483e-10
1.84823e-10
1.84817e-10
1.84811e-10
1.84806e-10
1.84802e-10
1.84797e-10
1.84793e-10
1.8479e-10
1.84787e-10
1.84785e-10
1.84783e-10
1.84781e-10
1.8478e-10
1.8478e-10
1.8478e-10
1.8478e-10
1.8478e-10
1.84781e-10
1.84783e-10
1.84785e-10
1.84787e-10
1.84791e-10
1.84794e-10
1.84798e-10
1.84802e-10
1.84807e-10
1.84813e-10
1.84818e-10
1.84824e-10
1.8483e-10
1.84838e-10
1.84845e-10
1.84852e-10
1.8486e-10
1.84869e-10
1.84878e-10
1.84887e-10
1.84897e-10
1.84907e-10
1.84918e-10
1.84929e-10
1.84941e-10
1.84953e-10
1.84966e-10
1.84979e-10
1.84994e-10
1.85008e-10
1.85024e-10
1.8504e-10
1.85057e-10
1.85075e-10
1.85094e-10
1.85113e-10
1.85135e-10
1.85156e-10
1.8518e-10
1.85204e-10
1.8523e-10
1.85256e-10
1.85285e-10
1.85315e-10
1.85347e-10
1.85379e-10
1.85414e-10
1.8545e-10
1.85489e-10
1.85528e-10
1.8557e-10
1.85613e-10
)
;

boundaryField
{
    inlet
    {
        type            calculated;
        value           uniform -2.74882e-10;
    }
    outlet
    {
        type            calculated;
        value           uniform 1.85659e-10;
    }
    emptyWalls
    {
        type            empty;
        value           nonuniform List<scalar> 0();
    }
}


// ************************************************************************* //
