/*--------------------------------*- C++ -*----------------------------------*\
  =========                 |
  \\      /  F ield         | OpenFOAM: The Open Source CFD Toolbox
   \\    /   O peration     | Website:  https://openfoam.org
    \\  /    A nd           | Version:  9
     \\/     M anipulation  |
\*---------------------------------------------------------------------------*/
FoamFile
{
    format      ascii;
    class       volScalarField;
    location    "58000";
    object      krc;
}
// * * * * * * * * * * * * * * * * * * * * * * * * * * * * * * * * * * * * * //

dimensions      [0 0 0 0 0 0 0];

internalField   nonuniform List<scalar> 
100
(
2.59453e-23
7.44196e-24
6.58336e-24
8.2014e-24
6.96201e-25
7.6455e-24
1.37293e-24
5.50424e-26
5.64305e-24
1.95762e-24
6.01372e-24
2.57231e-25
1.40271e-24
4.21487e-24
6.54595e-24
2.38463e-24
4.74913e-24
1.38263e-25
1.24493e-23
2.02387e-23
1.16933e-23
3.40597e-23
2.67788e-23
9.30264e-24
8.04042e-23
3.75961e-23
1.63394e-22
9.59232e-23
2.83321e-22
2.25514e-22
5.29625e-22
5.02358e-22
5.65064e-22
7.47977e-22
1.15706e-21
1.13926e-21
1.45142e-21
1.64796e-21
1.95827e-21
2.0864e-21
2.05275e-21
1.72342e-21
1.52533e-21
1.87751e-21
1.19105e-21
7.12287e-22
3.40274e-22
2.28235e-25
9.48101e-23
3.24683e-22
1.21456e-21
2.88079e-21
5.24201e-21
7.3648e-21
1.14445e-20
1.78564e-20
2.28897e-20
3.00975e-20
3.99113e-20
4.81043e-20
5.65371e-20
6.4309e-20
7.10351e-20
7.78531e-20
8.19487e-20
8.42573e-20
9.00642e-20
8.82694e-20
9.14533e-20
8.85171e-20
8.79544e-20
8.41055e-20
7.91309e-20
7.38525e-20
6.89672e-20
6.2529e-20
5.75614e-20
5.13242e-20
4.67838e-20
3.99661e-20
3.55159e-20
2.88311e-20
2.5395e-20
2.17508e-20
1.78762e-20
1.46508e-20
1.20217e-20
9.9163e-21
7.62196e-21
6.18792e-21
4.35166e-21
3.40807e-21
2.77296e-21
1.04354e-21
4.67501e-21
3.13503e-20
4.06516e-19
8.39142e-18
1.06753e-16
5.59101e-16
)
;

boundaryField
{
    inlet
    {
        type            calculated;
        value           uniform 2.59453e-23;
    }
    outlet
    {
        type            calculated;
        value           uniform 5.59101e-16;
    }
    emptyWalls
    {
        type            empty;
    }
}


// ************************************************************************* //
