/*--------------------------------*- C++ -*----------------------------------*\
  =========                 |
  \\      /  F ield         | OpenFOAM: The Open Source CFD Toolbox
   \\    /   O peration     | Website:  https://openfoam.org
    \\  /    A nd           | Version:  9
     \\/     M anipulation  |
\*---------------------------------------------------------------------------*/
FoamFile
{
    format      ascii;
    class       volScalarField;
    location    "27400";
    object      Fb;
}
// * * * * * * * * * * * * * * * * * * * * * * * * * * * * * * * * * * * * * //

dimensions      [0 0 0 0 0 0 0];

internalField   nonuniform List<scalar> 
1000
(
0.805171
0.805211
0.805201
0.805204
0.805219
0.805218
0.805228
0.805242
0.805246
0.805259
0.805278
0.805272
0.805317
0.805291
0.80537
0.80532
0.805429
0.805364
0.805471
0.80543
0.805499
0.805502
0.805537
0.805559
0.805587
0.805604
0.805632
0.805651
0.805674
0.805696
0.805712
0.805738
0.805728
0.805783
0.805731
0.805837
0.805844
0.806258
0.809434
0.827033
0.832812
0.833991
0.834408
0.834622
0.83481
0.834934
0.83484
0.834462
0.833899
0.833357
0.833006
0.832904
0.832997
0.833175
0.833373
0.833795
0.834392
0.834921
0.835349
0.835666
0.835878
0.836005
0.836072
0.836106
0.836055
0.836003
0.835975
0.835975
0.835987
0.835997
0.836018
0.836045
0.836092
0.836125
0.836173
0.836207
0.83625
0.836281
0.83632
0.836345
0.836375
0.836399
0.83642
0.836439
0.836453
0.836464
0.836472
0.836477
0.836477
0.836475
0.836468
0.836457
0.836441
0.836422
0.836397
0.836368
0.836335
0.836296
0.836251
0.8362
0.836142
0.836075
0.835997
0.835905
0.835795
0.835666
0.835515
0.835343
0.835151
0.834945
0.834729
0.834507
0.83428
0.83405
0.833816
0.83358
0.833341
0.833098
0.832852
0.832601
0.832346
0.832086
0.831824
0.831558
0.831293
0.831029
0.830767
0.830509
0.830253
0.829999
0.829746
0.829493
0.829238
0.828979
0.828712
0.82843
0.828129
0.827804
0.827454
0.827078
0.826682
0.826269
0.825844
0.825413
0.824979
0.824546
0.824117
0.823696
0.823286
0.822892
0.822519
0.822171
0.821852
0.821566
0.821315
0.821098
0.820913
0.820757
0.820624
0.820509
0.820404
0.820304
0.820201
0.820092
0.819972
0.819838
0.819687
0.819518
0.819332
0.81913
0.818911
0.818679
0.818436
0.818183
0.817923
0.817657
0.817388
0.817117
0.816845
0.816574
0.816304
0.816036
0.81577
0.815506
0.815244
0.814984
0.814726
0.814469
0.814214
0.813959
0.813705
0.813452
0.813199
0.812945
0.812692
0.812438
0.812184
0.811929
0.811674
0.811417
0.81116
0.810903
0.810644
0.810384
0.810124
0.809862
0.809599
0.809336
0.809071
0.808805
0.808538
0.80827
0.808002
0.807732
0.807461
0.80719
0.806917
0.806644
0.806369
0.806093
0.805816
0.805538
0.805259
0.804978
0.804696
0.804413
0.80413
0.803845
0.803559
0.803273
0.802986
0.802698
0.80241
0.802121
0.801832
0.801541
0.80125
0.800958
0.800665
0.80037
0.800074
0.799778
0.79948
0.799181
0.798882
0.798583
0.798284
0.797986
0.797688
0.797391
0.797095
0.796798
0.796502
0.796203
0.795903
0.795598
0.795289
0.794974
0.794652
0.794321
0.793982
0.793633
0.793275
0.792907
0.79253
0.792144
0.791751
0.791351
0.790946
0.790537
0.790127
0.789716
0.789308
0.788905
0.788508
0.78812
0.787743
0.787379
0.78703
0.786697
0.786381
0.786082
0.7858
0.785535
0.785285
0.785049
0.784826
0.784612
0.784406
0.784205
0.784007
0.783809
0.78361
0.783407
0.783199
0.782985
0.782764
0.782535
0.782299
0.782054
0.781803
0.781544
0.781279
0.781007
0.780731
0.780449
0.780166
0.779878
0.779589
0.779297
0.779006
0.778712
0.77842
0.778126
0.777835
0.777541
0.777251
0.776958
0.77667
0.776378
0.776091
0.7758
0.775514
0.775224
0.774939
0.774649
0.774363
0.774073
0.773788
0.773497
0.773211
0.77292
0.772633
0.772341
0.772053
0.77176
0.77147
0.771176
0.770885
0.77059
0.770297
0.77
0.769706
0.769408
0.769111
0.768813
0.768514
0.768214
0.767914
0.767612
0.76731
0.767007
0.766703
0.766398
0.766093
0.765787
0.76548
0.765171
0.764863
0.764553
0.764243
0.763932
0.76362
0.763307
0.762994
0.762681
0.762366
0.762051
0.761736
0.761419
0.761102
0.760784
0.760466
0.760147
0.759827
0.759507
0.759186
0.758865
0.758543
0.75822
0.757898
0.757575
0.757252
0.756929
0.756606
0.756282
0.755958
0.755633
0.755307
0.75498
0.754651
0.75432
0.753986
0.753649
0.753309
0.752965
0.752617
0.752263
0.751906
0.751542
0.751174
0.7508
0.750421
0.750037
0.749649
0.749256
0.748861
0.748461
0.748061
0.747658
0.747256
0.746853
0.746453
0.746055
0.745662
0.745273
0.744891
0.744515
0.744147
0.743787
0.743437
0.743095
0.742764
0.742441
0.74213
0.741826
0.741532
0.741244
0.740965
0.740691
0.740424
0.740159
0.739898
0.739637
0.739379
0.739119
0.738859
0.738596
0.738331
0.738062
0.737791
0.737514
0.737235
0.736949
0.736662
0.736369
0.736073
0.735772
0.73547
0.735163
0.734855
0.734543
0.734231
0.733914
0.733599
0.73328
0.732963
0.732641
0.732323
0.732001
0.731683
0.73136
0.731042
0.730719
0.730401
0.730078
0.72976
0.729437
0.72912
0.728796
0.72848
0.728156
0.727839
0.727515
0.727198
0.726873
0.726556
0.72623
0.725913
0.725586
0.725268
0.724941
0.724622
0.724293
0.723973
0.723643
0.723322
0.72299
0.722669
0.722336
0.722013
0.721678
0.721355
0.721018
0.720693
0.720355
0.72003
0.71969
0.719363
0.719021
0.718693
0.71835
0.718021
0.717676
0.717346
0.716999
0.716668
0.71632
0.715988
0.715637
0.715305
0.714952
0.714619
0.714265
0.713931
0.713575
0.713241
0.712883
0.712548
0.712189
0.711852
0.711492
0.711155
0.710793
0.710455
0.710092
0.709753
0.70939
0.709049
0.708685
0.708344
0.707979
0.707636
0.707271
0.706926
0.70656
0.706212
0.705845
0.705494
0.705125
0.70477
0.704399
0.704039
0.703664
0.703298
0.702919
0.702547
0.702163
0.701784
0.701394
0.701009
0.700613
0.700221
0.699819
0.69942
0.699013
0.698609
0.698196
0.697789
0.697373
0.696963
0.696545
0.696135
0.695717
0.695309
0.694893
0.694489
0.694078
0.69368
0.693275
0.692886
0.692488
0.69211
0.691722
0.691355
0.690977
0.690623
0.690255
0.689913
0.689556
0.689226
0.688877
0.688557
0.688216
0.687905
0.687569
0.687265
0.686932
0.686632
0.6863
0.686002
0.685668
0.68537
0.685034
0.684734
0.684394
0.684091
0.683746
0.683439
0.683088
0.682776
0.682421
0.682104
0.681743
0.681422
0.681057
0.680732
0.680363
0.680034
0.679662
0.67933
0.678955
0.678621
0.678244
0.677908
0.677529
0.677192
0.676812
0.676474
0.676093
0.675755
0.675373
0.675034
0.674652
0.674312
0.673929
0.673589
0.673206
0.672866
0.672482
0.672141
0.671757
0.671415
0.67103
0.670688
0.670302
0.669959
0.669573
0.669229
0.668841
0.668496
0.668108
0.667762
0.667372
0.667025
0.666634
0.666285
0.665893
0.665544
0.66515
0.664799
0.664404
0.664052
0.663656
0.663302
0.662904
0.662549
0.66215
0.661793
0.661393
0.661035
0.660633
0.660273
0.65987
0.659509
0.659104
0.658742
0.658335
0.657972
0.657564
0.657199
0.65679
0.656423
0.656013
0.655645
0.655233
0.654864
0.654451
0.654081
0.653666
0.653295
0.652879
0.652506
0.65209
0.651715
0.651297
0.650922
0.650503
0.650126
0.649706
0.649328
0.648906
0.648526
0.648103
0.647722
0.647297
0.646914
0.646487
0.646101
0.645672
0.645284
0.644852
0.644461
0.644025
0.643631
0.643192
0.642793
0.64235
0.641948
0.6415
0.641094
0.640642
0.640231
0.639775
0.639359
0.638899
0.638479
0.638015
0.637592
0.637124
0.636698
0.636228
0.635799
0.635327
0.634898
0.634425
0.633995
0.633523
0.633094
0.632624
0.632197
0.63173
0.631307
0.630843
0.630425
0.629966
0.629553
0.6291
0.628693
0.628246
0.627846
0.627406
0.627013
0.62658
0.626192
0.625766
0.625385
0.624964
0.624588
0.624172
0.6238
0.623387
0.623019
0.622609
0.622242
0.621834
0.621468
0.621059
0.620692
0.620283
0.619915
0.619503
0.619133
0.618718
0.618345
0.617927
0.617551
0.61713
0.616749
0.616325
0.615941
0.615513
0.615125
0.614694
0.614303
0.613868
0.613474
0.613037
0.61264
0.6122
0.611801
0.611359
0.610958
0.610513
0.610111
0.609664
0.60926
0.608812
0.608406
0.607957
0.60755
0.607099
0.606691
0.606239
0.60583
0.605377
0.604966
0.604512
0.6041
0.603645
0.603232
0.602776
0.602361
0.601904
0.601488
0.601029
0.600612
0.600151
0.599733
0.599271
0.598851
0.598388
0.597966
0.597501
0.597078
0.596611
0.596186
0.595718
0.595291
0.594822
0.594393
0.593922
0.593491
0.593018
0.592586
0.59211
0.591676
0.591199
0.590764
0.590285
0.589847
0.589366
0.588926
0.588444
0.588002
0.587518
0.587074
0.586588
0.586142
0.585654
0.585207
0.584717
0.584268
0.583775
0.583324
0.58283
0.582378
0.581882
0.581427
0.58093
0.580473
0.579973
0.579515
0.579014
0.578553
0.57805
0.577588
0.577083
0.576619
0.576111
0.575645
0.575136
0.574668
0.574157
0.573686
0.573173
0.5727
0.572184
0.571708
0.571189
0.570712
0.57019
0.569709
0.569184
0.5687
0.568171
0.567684
0.567152
0.566662
0.566126
0.565631
0.565091
0.564593
0.564049
0.563548
0.563
0.562494
0.561942
0.561433
0.560877
0.560365
0.559804
0.559291
0.558725
0.558211
0.557641
0.557126
0.556552
0.556038
0.55546
0.554946
0.554366
0.553851
0.553271
0.552756
0.552175
0.551661
0.55108
0.55057
0.549987
0.549481
0.548898
0.548397
0.547813
0.547317
0.546734
0.546242
0.545659
0.545173
0.54459
0.544109
0.543526
0.54305
0.542466
0.541998
0.541409
0.54095
0.540354
0.539905
0.539297
0.538861
0.538238
0.537818
0.537177
0.536773
0.536112
0.535725
0.535041
0.534673
0.533964
0.533615
0.532882
0.53255
0.531791
0.531478
0.530694
0.530397
0.529588
0.529308
0.528475
0.528208
0.527356
0.527099
0.52623
0.52598
0.525096
0.524853
0.523955
0.523717
0.522807
0.522573
0.521653
0.521421
0.520492
0.52026
0.519326
0.519091
0.518154
0.517916
0.516975
0.516734
0.515789
0.515545
0.514597
0.514349
0.513399
0.513147
0.512193
0.511938
0.510982
0.510722
0.509763
0.5095
0.508537
0.508271
0.507303
0.507036
0.506063
0.505792
0.504817
0.50454
0.503564
0.50328
0.502302
0.502014
0.501033
0.500739
0.499756
0.499521
0.00996312
)
;

boundaryField
{
    inlet
    {
        type            calculated;
        value           uniform 0.805169;
    }
    outlet
    {
        type            calculated;
        value           uniform 0.561887;
    }
    emptyWalls
    {
        type            empty;
    }
}


// ************************************************************************* //
