/*--------------------------------*- C++ -*----------------------------------*\
  =========                 |
  \\      /  F ield         | OpenFOAM: The Open Source CFD Toolbox
   \\    /   O peration     | Website:  https://openfoam.org
    \\  /    A nd           | Version:  9
     \\/     M anipulation  |
\*---------------------------------------------------------------------------*/
FoamFile
{
    format      ascii;
    class       volScalarField;
    location    "10600";
    object      p;
}
// * * * * * * * * * * * * * * * * * * * * * * * * * * * * * * * * * * * * * //

dimensions      [0 0 0 0 0 0 0];

internalField   nonuniform List<scalar> 
1000
(
231526
231102
230684
230270
229861
229456
229056
228659
228267
227877
227490
227107
226729
226369
226065
225917
225821
225733
225648
225563
225480
225397
225314
225232
225150
225068
224986
224904
224823
224741
224660
224578
224496
224415
224333
224251
224169
224087
224005
223923
223840
223757
223673
223589
223505
223419
223333
223247
223160
223072
222984
222895
222806
222716
222626
222535
222443
222351
222258
222165
222071
221977
221882
221786
221690
221594
221496
221399
221301
221202
221102
221003
220902
220801
220700
220598
220496
220393
220289
220185
220081
219976
219871
219765
219658
219551
219444
219336
219227
219118
219009
218899
218789
218678
218566
218455
218342
218230
218116
218003
217888
217774
217659
217543
217427
217311
217194
217077
216959
216841
216722
216603
216484
216364
216243
216122
216001
215879
215757
215634
215511
215387
215263
215138
215013
214887
214761
214635
214508
214381
214253
214124
213996
213867
213737
213607
213477
213346
213215
213083
212951
212818
212686
212552
212418
212284
212150
212014
211879
211743
211607
211470
211333
211195
211057
210919
210780
210641
210501
210361
210221
210080
209939
209797
209655
209512
209369
209226
209082
208938
208794
208649
208503
208358
208211
208065
207918
207771
207623
207475
207326
207177
207028
206878
206728
206577
206426
206275
206123
205971
205819
205666
205513
205359
205205
205050
204896
204740
204585
204429
204272
204116
203958
203801
203643
203485
203326
203167
203007
202848
202687
202527
202366
202204
202043
201880
201718
201555
201392
201228
201064
200900
200735
200570
200404
200238
200072
199905
199738
199571
199403
199235
199066
198897
198728
198559
198388
198218
198047
197876
197705
197533
197361
197188
197015
196842
196668
196494
196320
196145
195970
195794
195619
195443
195266
195089
194912
194734
194556
194378
194200
194021
193841
193661
193481
193301
193120
192939
192757
192575
192393
192210
192027
191843
191659
191475
191290
191105
190920
190734
190548
190361
190174
189987
189799
189611
189422
189233
189044
188854
188664
188474
188283
188092
187900
187708
187516
187323
187130
186937
186743
186549
186355
186160
185964
185769
185573
185376
185180
184983
184785
184587
184389
184190
183991
183792
183592
183392
183192
182991
182789
182588
182386
182183
181981
181777
181574
181370
181166
180961
180756
180550
180344
180138
179932
179725
179517
179309
179101
178893
178684
178475
178265
178055
177844
177633
177422
177211
176999
176786
176573
176360
176147
175933
175718
175504
175288
175073
174857
174641
174424
174207
173989
173771
173553
173334
173115
172895
172676
172455
172234
172013
171792
171570
171347
171125
170901
170678
170454
170229
170004
169779
169553
169327
169101
168874
168647
168419
168191
167962
167733
167504
167274
167043
166813
166582
166350
166118
165886
165653
165420
165187
164953
164719
164484
164249
164014
163779
163543
163307
163071
162835
162599
162362
162125
161889
161652
161414
161177
160940
160701
160462
160221
159977
159729
159476
159215
158949
158677
158403
158127
157850
157573
157296
157019
156742
156464
156187
155910
155632
155355
155078
154801
154524
154246
153969
153692
153415
153138
152860
152583
152306
152029
151752
151474
151197
150920
150643
150365
150088
149811
149533
149256
148978
148701
148424
148146
147869
147591
147314
147036
146759
146481
146203
145926
145648
145371
145093
144815
144538
144260
143983
143705
143427
143150
142872
142594
142317
142039
141761
141483
141206
140928
140650
140373
140095
139817
139540
139262
138984
138707
138429
138151
137873
137596
137318
137040
136762
136485
136207
135929
135652
135374
135096
134818
134541
134263
133985
133707
133429
133152
132874
132596
132318
132041
131763
131485
131207
130929
130651
130374
130096
129818
129540
129262
128985
128707
128429
128151
127873
127595
127318
127040
126762
126484
126206
125928
125650
125373
125095
124817
124539
124261
123983
123705
123428
123150
122872
122594
122316
122038
121760
121483
121205
120927
120649
120371
120093
119816
119538
119260
118982
118704
118426
118148
117871
117593
117315
117037
116759
116481
116204
115926
115648
115370
115092
114814
114537
114259
113981
113703
113425
113147
112870
112592
112314
112036
111758
111481
111203
110925
110647
110369
110092
109814
109536
109258
108981
108703
108425
108147
107870
107592
107314
107036
106759
106481
106203
105925
105648
105370
105092
104815
104537
104259
103982
103704
103427
103149
102871
102594
102316
102039
101761
101484
101206
100929
100651
100374
100096
99818.9
99541.5
99264.1
98986.8
98709.4
98432.1
98154.8
97877.5
97600.2
97322.9
97045.6
96768.3
96491.1
96213.8
95936.5
95659.3
95382
95104.8
94827.5
94550.3
94273
93995.7
93718.4
93441.1
93163.8
92886.5
92609.2
92331.9
92054.5
91777.1
91499.7
91222.3
90944.9
90667.5
90390
90112.5
89835
89557.5
89280
89002.5
88724.9
88447.4
88169.8
87892.2
87614.6
87337
87059.4
86781.7
86504.1
86226.5
85948.8
85671.2
85393.5
85115.8
84838.2
84560.5
84282.8
84005.1
83727.5
83449.8
83172.1
82894.4
82616.7
82339
82061.3
81783.6
81505.9
81228.2
80950.5
80672.8
80395
80117.3
79839.6
79561.9
79284.2
79006.4
78728.7
78451
78173.2
77895.5
77617.8
77340
77062.3
76784.5
76506.8
76229
75951.2
75673.5
75395.7
75117.9
74840.2
74562.4
74284.6
74006.8
73729
73451.2
73173.4
72895.6
72617.8
72340
72062.2
71784.4
71506.6
71228.8
70951
70673.2
70395.3
70117.5
69839.7
69561.9
69284
69006.2
68728.4
68450.5
68172.7
67894.9
67617
67339.2
67061.3
66783.5
66505.7
66227.8
65950
65672.1
65394.3
65116.5
64838.6
64560.8
64282.9
64005.1
63727.2
63449.4
63171.6
62893.7
62615.9
62338
62060.2
61782.4
61504.5
61226.7
60948.8
60671
60393.2
60115.3
59837.5
59559.7
59281.8
59004
58726.2
58448.4
58170.5
57892.7
57614.9
57337.1
57059.3
56781.4
56503.6
56225.8
55948
55670.2
55392.4
55114.6
54836.8
54559
54281.2
54003.4
53725.6
53447.8
53170
52892.3
52614.5
52336.7
52058.9
51781.2
51503.4
51225.6
50947.9
50670.1
50392.4
50114.7
49836.9
49559.2
49281.5
49003.8
48726.1
48448.4
48170.7
47893
47615.3
47337.6
47060
46782.3
46504.7
46227.1
45949.5
45671.9
45394.3
45116.7
44839.1
44561.6
44284.1
44006.5
43729
43451.5
43174
42896.6
42619.1
42341.7
42064.3
41786.9
41509.5
41232.1
40954.7
40677.3
40400
40122.7
39845.3
39568
39290.7
39013.4
38736.1
38458.8
38181.5
37904.2
37626.9
37349.7
37072.4
36795.1
36517.8
36240.5
35963.2
35685.9
35408.6
35131.3
34853.9
34576.6
34299.2
34021.9
33744.5
33467.1
33189.7
32912.3
32634.9
32357.4
32080
31802.5
31525
31247.5
30970
30692.5
30414.9
30137.4
29859.8
29582.3
29304.7
29027.1
28749.5
28471.9
28194.3
27916.7
27639.1
27361.4
27083.8
26806.2
26528.5
26250.9
25973.2
25695.6
25417.9
25140.2
24862.6
24584.9
24307.2
24029.5
23751.9
23474.2
23196.5
22918.8
22641.1
22363.4
22085.7
21808
21530.3
21252.6
20974.9
20697.2
20419.5
20141.8
19864
19586.3
19308.6
19030.9
18753.1
18475.4
18197.6
17919.9
17642.2
17364.4
17086.6
16808.9
16531.1
16253.4
15975.6
15697.8
15420
15142.2
14864.5
14586.7
14308.9
14031.1
13753.3
13475.5
13197.7
12919.9
12642.1
12364.2
12086.4
11808.6
11530.8
11252.9
10975.1
10697.3
10419.4
10141.6
9863.77
9585.93
9308.09
9030.24
8752.4
8474.55
8196.7
7918.85
7641
7363.14
7085.29
6807.43
6529.57
6251.72
5973.86
5696
5418.14
5140.29
4862.43
4584.57
4306.71
4028.85
3750.99
3473.14
3195.28
2917.42
2639.57
2361.71
2083.86
1806.01
1528.16
1250.31
972.457
694.61
416.765
138.921
)
;

boundaryField
{
    inlet
    {
        type            darcyGradPressure;
        gradient        uniform 116344;
        Mf              Mf;
        phi             phi;
        value           uniform 231739;
    }
    outlet
    {
        type            fixedValue;
        value           uniform 0;
    }
    emptyWalls
    {
        type            empty;
    }
}


// ************************************************************************* //
