/*--------------------------------*- C++ -*----------------------------------*\
  =========                 |
  \\      /  F ield         | OpenFOAM: The Open Source CFD Toolbox
   \\    /   O peration     | Website:  https://openfoam.org
    \\  /    A nd           | Version:  9
     \\/     M anipulation  |
\*---------------------------------------------------------------------------*/
FoamFile
{
    format      ascii;
    class       volScalarField;
    location    "10600";
    object      Sa;
}
// * * * * * * * * * * * * * * * * * * * * * * * * * * * * * * * * * * * * * //

dimensions      [0 0 0 0 0 0 0];

internalField   nonuniform List<scalar> 
1000
(
0.548912
0.546502
0.543508
0.54065
0.537845
0.535087
0.532514
0.529989
0.527942
0.525821
0.524298
0.521899
0.516703
0.498157
0.399059
0.140744
0.0785497
0.061058
0.0527462
0.0475352
0.0437591
0.0408291
0.0384537
0.036496
0.0348473
0.0334529
0.0322489
0.0312065
0.0302723
0.0294472
0.0286886
0.0280082
0.0273566
0.0267538
0.0262089
0.0257158
0.0252705
0.0248719
0.0245285
0.0242613
0.0240904
0.0240001
0.0239245
0.0238454
0.0237644
0.0236827
0.023601
0.0235196
0.0234388
0.0233589
0.0232799
0.023202
0.023125
0.0230492
0.0229745
0.0229008
0.0228283
0.0227568
0.0226864
0.022617
0.0225486
0.0224812
0.0224148
0.0223494
0.0222849
0.0222213
0.0221586
0.0220968
0.0220359
0.0219757
0.0219163
0.0218577
0.0217997
0.0217425
0.0216858
0.0216298
0.0215743
0.0215194
0.021465
0.0214113
0.0213582
0.021306
0.0212545
0.0212039
0.0211541
0.0211049
0.0210563
0.0210082
0.0209605
0.0209135
0.0208674
0.0208224
0.0207788
0.0207369
0.0206968
0.0206588
0.0206227
0.0205885
0.0205561
0.0205252
0.0204955
0.0204667
0.0204385
0.0204104
0.0203821
0.0203531
0.0203229
0.020291
0.020257
0.0202206
0.0201813
0.0201392
0.0200941
0.0200462
0.0199958
0.0199433
0.0198894
0.0198345
0.0197794
0.0197247
0.019671
0.0196187
0.0195681
0.0195196
0.0194733
0.0194292
0.0193873
0.0193473
0.0193092
0.0192726
0.0192374
0.0192033
0.0191701
0.0191374
0.0191053
0.0190734
0.0190416
0.01901
0.0189783
0.0189465
0.0189146
0.0188827
0.0188506
0.0188185
0.0187863
0.0187542
0.018722
0.0186899
0.0186578
0.0186259
0.0185941
0.0185624
0.0185309
0.0184996
0.0184685
0.0184376
0.0184069
0.0183764
0.0183462
0.0183162
0.0182864
0.0182568
0.0182274
0.0181982
0.0181693
0.0181406
0.0181121
0.0180837
0.0180556
0.0180277
0.018
0.0179725
0.0179452
0.0179181
0.0178911
0.0178643
0.0178378
0.0178114
0.0177851
0.0177591
0.0177332
0.0177074
0.0176819
0.0176565
0.0176312
0.0176061
0.0175813
0.0175564
0.0175319
0.0175073
0.0174831
0.0174589
0.017435
0.017411
0.0173874
0.0173638
0.0173404
0.0173171
0.017294
0.017271
0.0172482
0.0172255
0.017203
0.0171806
0.0171583
0.0171362
0.0171142
0.0170923
0.0170705
0.0170489
0.0170274
0.017006
0.0169847
0.0169635
0.0169424
0.0169214
0.0169004
0.0168796
0.0168589
0.0168383
0.0168177
0.0167973
0.016777
0.0167568
0.0167367
0.0167167
0.0166969
0.0166772
0.0166576
0.0166382
0.0166189
0.0165998
0.0165809
0.0165623
0.0165439
0.0165259
0.0165082
0.0164908
0.0164739
0.0164575
0.0164415
0.016426
0.0164111
0.0163967
0.0163828
0.0163694
0.0163565
0.016344
0.0163319
0.0163201
0.0163086
0.0162972
0.0162859
0.0162746
0.016263
0.0162512
0.016239
0.0162263
0.0162129
0.0161988
0.0161839
0.016168
0.0161512
0.0161333
0.0161143
0.0160944
0.0160734
0.0160515
0.0160287
0.0160052
0.015981
0.0159564
0.0159314
0.0159062
0.015881
0.0158559
0.015831
0.0158064
0.0157822
0.0157586
0.0157355
0.015713
0.0156912
0.01567
0.0156493
0.0156293
0.0156098
0.0155909
0.0155724
0.0155543
0.0155366
0.0155192
0.015502
0.0154851
0.0154683
0.0154517
0.0154351
0.0154186
0.0154021
0.0153856
0.0153691
0.0153526
0.015336
0.0153194
0.0153028
0.0152861
0.0152693
0.0152525
0.0152357
0.0152188
0.0152019
0.015185
0.015168
0.0151511
0.0151341
0.0151172
0.0151002
0.0150833
0.0150664
0.0150495
0.0150327
0.0150159
0.0149991
0.0149824
0.0149657
0.0149491
0.0149325
0.014916
0.0148996
0.0148832
0.0148669
0.0148506
0.0148344
0.0148183
0.0148022
0.0147862
0.0147702
0.0147543
0.0147385
0.0147227
0.014707
0.0146913
0.0146757
0.0146601
0.0146446
0.0146291
0.0146136
0.0145982
0.0145829
0.0145675
0.0145522
0.014537
0.0145217
0.0145065
0.0144913
0.0144762
0.0144611
0.014446
0.0144309
0.0144159
0.0144009
0.0143859
0.014371
0.0143561
0.0143412
0.0143263
0.0143114
0.0142966
0.0142818
0.0142671
0.0142523
0.0142376
0.0142229
0.0142083
0.0141936
0.014179
0.0141644
0.0141498
0.0141353
0.0141207
0.0141062
0.0140918
0.0140773
0.0140629
0.0140485
0.0140341
0.0140197
0.0140054
0.0139912
0.0139769
0.0139628
0.0139487
0.0139348
0.0139209
0.0139071
0.0138936
0.0138801
0.013867
0.0138541
0.0138416
0.0138294
0.0138177
0.0138065
0.0137958
0.0137858
0.0137765
0.0137679
0.0137602
0.0137533
0.0137472
0.0137421
0.0137378
0.0137342
0.0137314
0.0137291
0.0137269
0.0137244
0.0137207
0.0137142
0.0137021
0.0136802
0.0136411
0.0135748
0.013469
0.0133166
0.0131265
0.0129327
0.0127764
0.0126783
0.0126262
0.0126042
0.0125942
0.012593
0.0125936
0.0125957
0.0125986
0.0126017
0.0126049
0.012608
0.0126109
0.0126136
0.012616
0.0126182
0.01262
0.0126215
0.0126225
0.012623
0.0126231
0.0126231
0.0126229
0.0126222
0.0126206
0.0126188
0.0126167
0.0126142
0.0126115
0.0126084
0.0126051
0.0126016
0.012598
0.0125942
0.0125903
0.0125864
0.0125824
0.0125785
0.0125746
0.0125709
0.0125672
0.0125637
0.0125603
0.0125572
0.0125542
0.0125514
0.0125488
0.0125464
0.0125443
0.0125423
0.0125405
0.0125389
0.0125375
0.0125362
0.0125351
0.0125341
0.0125332
0.0125324
0.0125317
0.0125311
0.0125305
0.01253
0.0125296
0.0125291
0.0125287
0.0125283
0.0125279
0.0125275
0.0125271
0.0125266
0.0125262
0.0125257
0.0125252
0.0125247
0.0125242
0.0125236
0.012523
0.0125224
0.0125217
0.012521
0.0125203
0.0125196
0.0125189
0.0125182
0.0125174
0.0125167
0.0125159
0.0125151
0.0125143
0.0125136
0.0125128
0.012512
0.0125112
0.0125105
0.0125097
0.012509
0.0125083
0.0125076
0.0125069
0.0125062
0.0125056
0.0125049
0.0125043
0.0125037
0.0125032
0.0125026
0.0125021
0.0125016
0.0125011
0.0125007
0.0125002
0.0124998
0.0124994
0.0124991
0.0124987
0.0124984
0.0124981
0.0124979
0.0124976
0.0124974
0.0124972
0.012497
0.0124969
0.0124967
0.0124966
0.0124965
0.0124964
0.0124963
0.0124963
0.0124963
0.0124963
0.0124963
0.0124963
0.0124963
0.0124963
0.0124964
0.0124964
0.0124965
0.0124966
0.0124968
0.0124969
0.012497
0.0124972
0.0124974
0.0124976
0.0124978
0.012498
0.0124982
0.0124984
0.0124987
0.012499
0.0124992
0.0124995
0.0124998
0.0125001
0.0125004
0.0125008
0.0125011
0.0125015
0.0125018
0.0125022
0.0125026
0.012503
0.0125034
0.0125038
0.0125043
0.0125047
0.0125052
0.0125057
0.0125062
0.0125067
0.0125072
0.0125078
0.0125083
0.0125089
0.0125095
0.0125102
0.0125108
0.0125116
0.0125123
0.0125131
0.0125139
0.0125148
0.0125157
0.0125168
0.0125178
0.0125189
0.0125201
0.0125214
0.0125228
0.0125242
0.0125258
0.0125274
0.0125292
0.012531
0.012533
0.012535
0.0125372
0.0125395
0.0125418
0.0125443
0.0125469
0.0125496
0.0125524
0.0125553
0.0125582
0.0125612
0.0125643
0.0125674
0.0125706
0.0125737
0.0125769
0.01258
0.0125831
0.0125862
0.0125891
0.012592
0.0125947
0.0125973
0.0125998
0.012602
0.012604
0.0126059
0.0126074
0.0126088
0.0126098
0.0126106
0.012611
0.0126112
0.0126112
0.0126112
0.0126109
0.01261
0.0126087
0.0126072
0.0126053
0.0126032
0.0126009
0.0125984
0.0125957
0.0125929
0.0125899
0.0125868
0.0125837
0.0125805
0.0125773
0.0125741
0.0125709
0.0125678
0.0125648
0.0125618
0.012559
0.0125562
0.0125536
0.0125512
0.0125489
0.0125467
0.0125447
0.0125428
0.0125411
0.0125395
0.012538
0.0125366
0.0125354
0.0125343
0.0125333
0.0125324
0.0125316
0.0125308
0.0125301
0.0125295
0.0125289
0.0125284
0.0125279
0.0125274
0.0125269
0.0125264
0.012526
0.0125255
0.0125251
0.0125247
0.0125242
0.0125237
0.0125233
0.0125228
0.0125223
0.0125217
0.0125212
0.0125207
0.0125201
0.0125195
0.0125189
0.0125183
0.0125177
0.0125171
0.0125165
0.0125159
0.0125152
0.0125146
0.0125139
0.0125133
0.0125127
0.012512
0.0125114
0.0125107
0.0125101
0.0125095
0.0125089
0.0125083
0.0125077
0.0125071
0.0125066
0.012506
0.0125055
0.012505
0.0125045
0.012504
0.0125035
0.0125031
0.0125027
0.0125023
0.0125019
0.0125015
0.0125012
0.0125009
0.0125006
0.0125003
0.0125001
0.0124999
0.0124997
0.0124995
0.0124993
0.0124992
0.012499
0.0124989
0.0124989
0.0124988
0.0124987
0.0124987
0.0124987
0.0124987
0.0124987
0.0124987
0.0124988
0.0124989
0.0124989
0.012499
0.0124992
0.0124993
0.0124994
0.0124996
0.0124997
0.0124999
0.0125001
0.0125003
0.0125005
0.0125007
0.0125009
0.0125012
0.0125014
0.0125017
0.0125019
0.0125022
0.0125025
0.0125028
0.0125031
0.0125035
0.0125038
0.0125041
0.0125045
0.0125049
0.0125053
0.0125057
0.0125061
0.0125065
0.012507
0.0125075
0.012508
0.0125085
0.012509
0.0125096
0.0125102
0.0125108
0.0125114
0.0125121
0.0125129
0.0125136
0.0125144
0.0125153
0.0125162
0.0125171
0.0125181
0.0125192
0.0125203
0.0125215
0.0125228
0.0125241
0.0125255
0.012527
0.0125286
0.0125302
0.0125319
0.0125337
0.0125356
0.0125376
0.0125397
0.0125418
0.012544
0.0125463
0.0125487
0.0125512
0.0125537
0.0125562
0.0125588
0.0125615
0.0125642
0.0125669
0.0125696
0.0125723
0.012575
0.0125777
0.0125803
0.0125829
0.0125854
0.0125878
0.0125902
0.0125924
0.0125945
0.0125964
0.0125982
0.0125998
0.0126013
0.0126025
0.0126036
0.0126044
0.012605
0.0126054
0.0126056
0.0126056
0.0126055
0.0126053
0.0126047
0.0126037
0.0126025
0.0126011
0.0125995
0.0125977
0.0125957
0.0125936
0.0125914
0.0125891
0.0125866
0.0125841
0.0125816
0.012579
0.0125764
0.0125738
0.0125712
0.0125686
0.0125661
0.0125637
0.0125613
0.012559
0.0125568
0.0125547
0.0125527
0.0125508
0.012549
0.0125473
0.0125457
0.0125442
0.0125429
0.0125416
0.0125404
0.0125393
0.0125382
0.0125373
0.0125364
0.0125356
0.0125348
0.0125341
0.0125334
0.0125327
0.0125321
0.0125315
0.0125309
0.0125304
0.0125298
0.0125293
0.0125287
0.0125282
0.0125277
0.0125271
0.0125266
0.012526
0.0125254
0.0125249
0.0125243
0.0125237
0.012523
0.0125224
0.0125218
0.0125211
0.0125205
0.0125198
0.0125191
0.0125185
0.0125178
0.0125171
0.0125164
0.0125157
0.012515
0.0125143
0.0125136
0.0125129
0.0125122
0.0125115
0.0125108
0.0125101
0.0125094
0.0125087
0.012508
0.0125074
0.0125067
0.0125061
0.0125055
0.0125049
0.0125043
0.0125037
0.0125031
0.0125026
0.012502
0.0125015
0.012501
0.0125006
0.0125001
0.0124997
0.0124992
0.0124989
0.0124985
0.0124981
0.0124978
0.0124975
0.0124972
0.012497
0.0124967
0.0124965
0.0124964
0.0124962
0.0124961
0.0124959
0.0124959
0.0124958
0.0124958
0.0124957
0.0124957
0.0124958
0.0124958
0.0124958
0.0124959
0.012496
0.012496
0.0124963
0.0124963
0.0124967
0.0124966
0.0124972
0.0124971
0.0124977
0.0124976
0.0124983
0.0124982
0.0124995
)
;

boundaryField
{
    inlet
    {
        type            fixedValue;
        value           uniform 0.55;
    }
    outlet
    {
        type            zeroGradient;
    }
    emptyWalls
    {
        type            empty;
    }
}


// ************************************************************************* //
