/*--------------------------------*- C++ -*----------------------------------*\
  =========                 |
  \\      /  F ield         | OpenFOAM: The Open Source CFD Toolbox
   \\    /   O peration     | Website:  https://openfoam.org
    \\  /    A nd           | Version:  9
     \\/     M anipulation  |
\*---------------------------------------------------------------------------*/
FoamFile
{
    format      ascii;
    class       volScalarField;
    location    "10600";
    object      Sb;
}
// * * * * * * * * * * * * * * * * * * * * * * * * * * * * * * * * * * * * * //

dimensions      [0 0 0 0 0 0 0];

internalField   nonuniform List<scalar> 
1000
(
0.350542
0.351732
0.35324
0.354685
0.356116
0.357544
0.358853
0.360208
0.361208
0.362413
0.36311
0.364489
0.367178
0.377392
0.436175
0.61333
0.655669
0.666859
0.671899
0.674909
0.676982
0.678503
0.679661
0.680548
0.681235
0.681759
0.68216
0.682452
0.682671
0.682805
0.682883
0.682885
0.682828
0.682693
0.682476
0.682167
0.681743
0.681164
0.680366
0.679274
0.677836
0.67609
0.674165
0.672146
0.670076
0.667982
0.665882
0.663787
0.661703
0.659635
0.657586
0.655559
0.653554
0.651572
0.649614
0.647679
0.645767
0.643879
0.642013
0.640171
0.63835
0.636552
0.634775
0.633019
0.631283
0.629568
0.627872
0.626196
0.624539
0.6229
0.621279
0.619676
0.618091
0.616522
0.614971
0.613435
0.611916
0.610412
0.608923
0.60745
0.605991
0.604546
0.603115
0.601697
0.600293
0.598901
0.597523
0.596157
0.594804
0.593463
0.592133
0.590814
0.589506
0.588208
0.58692
0.585641
0.584372
0.583111
0.58186
0.580617
0.579384
0.57816
0.576945
0.57574
0.574544
0.573359
0.572184
0.57102
0.569867
0.568724
0.567593
0.566473
0.565365
0.564267
0.563179
0.562101
0.561032
0.559972
0.558919
0.557874
0.556834
0.555801
0.554773
0.55375
0.552732
0.551718
0.550709
0.549705
0.548705
0.54771
0.546721
0.545736
0.544757
0.543783
0.542814
0.541851
0.540894
0.539942
0.538996
0.538055
0.53712
0.53619
0.535266
0.534346
0.533432
0.532523
0.531619
0.530719
0.529825
0.528935
0.528049
0.527168
0.526291
0.525419
0.524551
0.523687
0.522827
0.521972
0.52112
0.520272
0.519428
0.518588
0.517752
0.516919
0.51609
0.515265
0.514443
0.513625
0.51281
0.511999
0.511191
0.510386
0.509585
0.508787
0.507992
0.507201
0.506412
0.505627
0.504845
0.504066
0.503289
0.502516
0.501746
0.500979
0.500214
0.499452
0.498693
0.497937
0.497184
0.496433
0.495684
0.494939
0.494196
0.493455
0.492717
0.491982
0.491249
0.490518
0.48979
0.489064
0.48834
0.487619
0.4869
0.486183
0.485468
0.484756
0.484045
0.483337
0.482631
0.481927
0.481225
0.480525
0.479827
0.479131
0.478437
0.477745
0.477055
0.476367
0.47568
0.474996
0.474313
0.473632
0.472952
0.472275
0.471599
0.470925
0.470252
0.469581
0.468912
0.468244
0.467578
0.466913
0.466249
0.465587
0.464927
0.464267
0.463609
0.462952
0.462296
0.461641
0.460987
0.460334
0.459683
0.459032
0.458382
0.457733
0.457085
0.456437
0.455791
0.455146
0.454502
0.453859
0.453217
0.452576
0.451937
0.451298
0.450662
0.450027
0.449393
0.448761
0.448131
0.447502
0.446876
0.446251
0.445628
0.445006
0.444387
0.443768
0.443152
0.442537
0.441923
0.44131
0.440698
0.440088
0.439477
0.438868
0.438259
0.437651
0.437042
0.436434
0.435826
0.435219
0.434611
0.434003
0.433396
0.432789
0.432181
0.431574
0.430967
0.430359
0.429752
0.429146
0.428539
0.427933
0.427327
0.426721
0.426115
0.42551
0.424904
0.424299
0.423695
0.42309
0.422486
0.421882
0.421278
0.420674
0.420071
0.419467
0.418864
0.41826
0.417657
0.417054
0.41645
0.415847
0.415243
0.414639
0.414036
0.413432
0.412828
0.412223
0.411619
0.411014
0.410408
0.409803
0.409197
0.40859
0.407983
0.407376
0.406768
0.40616
0.405551
0.404942
0.404332
0.403721
0.40311
0.402498
0.401885
0.401271
0.400657
0.400042
0.399426
0.398809
0.398192
0.397573
0.396953
0.396333
0.395711
0.395088
0.394465
0.39384
0.393213
0.392586
0.391957
0.391327
0.390696
0.390063
0.389429
0.388794
0.388157
0.387518
0.386878
0.386236
0.385592
0.384947
0.3843
0.383651
0.383
0.382347
0.381693
0.381036
0.380377
0.379716
0.379053
0.378388
0.37772
0.377051
0.376379
0.375704
0.375028
0.374348
0.373667
0.372983
0.372297
0.371609
0.370919
0.370227
0.369532
0.368836
0.368139
0.367441
0.366742
0.366043
0.365345
0.364648
0.363954
0.363264
0.362579
0.361902
0.361234
0.360578
0.359936
0.359311
0.358707
0.358127
0.357574
0.357051
0.356561
0.356106
0.355688
0.355309
0.354967
0.354661
0.354389
0.354143
0.353915
0.353686
0.353431
0.353101
0.352613
0.351827
0.350502
0.34824
0.344426
0.338227
0.328778
0.315747
0.300094
0.284214
0.27075
0.261063
0.254934
0.251384
0.249436
0.248399
0.247856
0.247574
0.247428
0.247353
0.247314
0.247293
0.247282
0.247277
0.247274
0.247272
0.247271
0.24727
0.24727
0.24727
0.24727
0.24727
0.24727
0.24727
0.247271
0.247271
0.247272
0.247272
0.247273
0.247274
0.247274
0.247275
0.247276
0.247277
0.247278
0.247278
0.247279
0.24728
0.247281
0.247282
0.247282
0.247283
0.247284
0.247284
0.247285
0.247286
0.247286
0.247287
0.247287
0.247287
0.247288
0.247288
0.247288
0.247288
0.247289
0.247289
0.247289
0.247289
0.247289
0.247289
0.247289
0.247289
0.247289
0.247289
0.247289
0.247288
0.247288
0.247288
0.247288
0.247288
0.247288
0.247288
0.247288
0.247287
0.247287
0.247287
0.247287
0.247287
0.247287
0.247287
0.247286
0.247286
0.247286
0.247286
0.247286
0.247286
0.247286
0.247286
0.247286
0.247286
0.247286
0.247286
0.247285
0.247285
0.247285
0.247285
0.247285
0.247285
0.247285
0.247285
0.247285
0.247285
0.247285
0.247285
0.247285
0.247285
0.247285
0.247285
0.247285
0.247285
0.247285
0.247285
0.247285
0.247285
0.247285
0.247285
0.247285
0.247285
0.247285
0.247285
0.247285
0.247285
0.247285
0.247285
0.247285
0.247285
0.247285
0.247285
0.247285
0.247285
0.247285
0.247285
0.247285
0.247285
0.247285
0.247285
0.247285
0.247285
0.247285
0.247285
0.247285
0.247285
0.247285
0.247285
0.247285
0.247285
0.247285
0.247285
0.247285
0.247285
0.247285
0.247285
0.247285
0.247285
0.247285
0.247285
0.247285
0.247285
0.247285
0.247285
0.247285
0.247285
0.247285
0.247285
0.247285
0.247285
0.247285
0.247285
0.247285
0.247285
0.247285
0.247285
0.247285
0.247285
0.247285
0.247284
0.247284
0.247284
0.247284
0.247284
0.247284
0.247283
0.247283
0.247283
0.247283
0.247283
0.247282
0.247282
0.247282
0.247281
0.247281
0.247281
0.24728
0.24728
0.24728
0.247279
0.247279
0.247278
0.247278
0.247277
0.247277
0.247276
0.247275
0.247275
0.247274
0.247274
0.247273
0.247272
0.247272
0.247271
0.24727
0.247269
0.247269
0.247268
0.247267
0.247267
0.247266
0.247266
0.247265
0.247264
0.247264
0.247264
0.247263
0.247263
0.247262
0.247262
0.247262
0.247262
0.247262
0.247262
0.247262
0.247262
0.247263
0.247263
0.247263
0.247264
0.247264
0.247265
0.247266
0.247267
0.247267
0.247268
0.247269
0.24727
0.247271
0.247272
0.247272
0.247273
0.247274
0.247275
0.247276
0.247276
0.247277
0.247277
0.247278
0.247278
0.247279
0.247279
0.24728
0.24728
0.24728
0.247281
0.247281
0.247281
0.247281
0.247281
0.247281
0.247282
0.247282
0.247282
0.247282
0.247282
0.247282
0.247282
0.247282
0.247282
0.247282
0.247282
0.247282
0.247282
0.247282
0.247282
0.247283
0.247283
0.247283
0.247283
0.247283
0.247283
0.247283
0.247283
0.247283
0.247283
0.247283
0.247284
0.247284
0.247284
0.247284
0.247284
0.247284
0.247284
0.247284
0.247284
0.247285
0.247285
0.247285
0.247285
0.247285
0.247285
0.247285
0.247285
0.247285
0.247285
0.247286
0.247286
0.247286
0.247286
0.247286
0.247286
0.247286
0.247286
0.247286
0.247286
0.247286
0.247286
0.247286
0.247286
0.247286
0.247286
0.247287
0.247287
0.247287
0.247287
0.247287
0.247287
0.247287
0.247287
0.247287
0.247287
0.247287
0.247287
0.247287
0.247287
0.247287
0.247287
0.247287
0.247287
0.247287
0.247287
0.247286
0.247286
0.247286
0.247286
0.247286
0.247286
0.247286
0.247286
0.247286
0.247286
0.247286
0.247286
0.247286
0.247286
0.247286
0.247286
0.247286
0.247286
0.247286
0.247286
0.247286
0.247285
0.247285
0.247285
0.247285
0.247285
0.247285
0.247285
0.247285
0.247285
0.247285
0.247285
0.247284
0.247284
0.247284
0.247284
0.247284
0.247284
0.247283
0.247283
0.247283
0.247283
0.247283
0.247282
0.247282
0.247282
0.247282
0.247281
0.247281
0.247281
0.24728
0.24728
0.24728
0.247279
0.247279
0.247279
0.247278
0.247278
0.247277
0.247277
0.247276
0.247276
0.247275
0.247275
0.247274
0.247273
0.247273
0.247272
0.247272
0.247271
0.24727
0.24727
0.247269
0.247269
0.247268
0.247268
0.247267
0.247267
0.247266
0.247266
0.247265
0.247265
0.247265
0.247265
0.247264
0.247264
0.247264
0.247264
0.247264
0.247264
0.247264
0.247264
0.247264
0.247265
0.247265
0.247265
0.247266
0.247266
0.247267
0.247267
0.247268
0.247268
0.247269
0.247269
0.24727
0.24727
0.247271
0.247272
0.247272
0.247273
0.247273
0.247274
0.247274
0.247275
0.247275
0.247276
0.247276
0.247276
0.247277
0.247277
0.247278
0.247278
0.247278
0.247278
0.247279
0.247279
0.247279
0.247279
0.247279
0.24728
0.24728
0.24728
0.24728
0.24728
0.24728
0.24728
0.24728
0.24728
0.247281
0.247281
0.247281
0.247281
0.247281
0.247281
0.247281
0.247281
0.247281
0.247282
0.247282
0.247282
0.247282
0.247282
0.247282
0.247282
0.247282
0.247283
0.247283
0.247283
0.247283
0.247283
0.247283
0.247283
0.247284
0.247284
0.247284
0.247284
0.247284
0.247284
0.247284
0.247285
0.247285
0.247285
0.247285
0.247285
0.247285
0.247285
0.247286
0.247286
0.247286
0.247286
0.247286
0.247286
0.247286
0.247286
0.247287
0.247287
0.247287
0.247287
0.247287
0.247287
0.247287
0.247287
0.247287
0.247287
0.247287
0.247287
0.247287
0.247287
0.247288
0.247288
0.247288
0.247288
0.247288
0.247288
0.247288
0.247288
0.247288
0.247288
0.247288
0.247288
0.247288
0.247288
0.247288
0.247287
0.247287
0.247287
0.247287
0.247287
0.247287
0.247287
0.247287
0.247287
0.247287
0.247287
)
;

boundaryField
{
    inlet
    {
        type            fixedValue;
        value           uniform 0.35;
    }
    outlet
    {
        type            zeroGradient;
    }
    emptyWalls
    {
        type            empty;
    }
}


// ************************************************************************* //
