/*--------------------------------*- C++ -*----------------------------------*\
  =========                 |
  \\      /  F ield         | OpenFOAM: The Open Source CFD Toolbox
   \\    /   O peration     | Website:  https://openfoam.org
    \\  /    A nd           | Version:  9
     \\/     M anipulation  |
\*---------------------------------------------------------------------------*/
FoamFile
{
    format      ascii;
    class       volScalarField;
    location    "8350";
    object      Fb;
}
// * * * * * * * * * * * * * * * * * * * * * * * * * * * * * * * * * * * * * //

dimensions      [0 0 0 0 0 0 0];

internalField   nonuniform List<scalar> 
1000
(
0.805177
0.805226
0.805236
0.805291
0.805332
0.805337
0.805528
0.805318
0.805858
0.805637
0.807138
0.819535
0.832155
0.834292
0.835154
0.835622
0.835963
0.836182
0.83637
0.836482
0.836597
0.836672
0.836691
0.836752
0.836727
0.83673
0.836698
0.836629
0.836516
0.836339
0.836056
0.835636
0.835059
0.834408
0.833703
0.832965
0.832199
0.831416
0.830615
0.829803
0.828979
0.828147
0.827306
0.826457
0.825603
0.824743
0.823878
0.823008
0.822133
0.821255
0.820373
0.819489
0.818601
0.817707
0.816805
0.815893
0.814972
0.814042
0.813108
0.81217
0.81123
0.810287
0.809335
0.808371
0.807388
0.806381
0.805348
0.804288
0.803204
0.802098
0.800976
0.799841
0.798699
0.797557
0.796418
0.795291
0.794182
0.793097
0.792044
0.79103
0.79006
0.789136
0.78826
0.78743
0.786639
0.785881
0.785145
0.784421
0.783698
0.782966
0.782216
0.781441
0.780636
0.779798
0.778927
0.778023
0.777089
0.776129
0.775147
0.774146
0.773131
0.772106
0.771074
0.770039
0.769002
0.767966
0.766932
0.765901
0.764872
0.763847
0.762824
0.761804
0.760785
0.759767
0.75875
0.757732
0.756715
0.755696
0.754676
0.753654
0.752631
0.751605
0.750577
0.749548
0.748515
0.747481
0.746444
0.745405
0.744363
0.743319
0.742273
0.741224
0.740172
0.739118
0.738062
0.737002
0.73594
0.734876
0.733808
0.732737
0.731664
0.730588
0.729508
0.728425
0.72734
0.72625
0.725158
0.724062
0.722963
0.72186
0.720754
0.719645
0.718532
0.717415
0.716296
0.715173
0.714047
0.712918
0.711785
0.71065
0.709512
0.70837
0.707227
0.70608
0.70493
0.703778
0.702623
0.701465
0.700304
0.69914
0.697973
0.696804
0.695631
0.694456
0.693277
0.692095
0.69091
0.689722
0.688531
0.687336
0.686138
0.684937
0.683732
0.682524
0.681313
0.680099
0.678881
0.67766
0.676436
0.675208
0.673977
0.672743
0.671504
0.670263
0.669017
0.667768
0.666515
0.665257
0.663995
0.662729
0.661459
0.660184
0.658905
0.65762
0.656331
0.655036
0.653736
0.65243
0.651117
0.649797
0.64847
0.647134
0.645791
0.644438
0.643077
0.641706
0.640326
0.638936
0.637537
0.636129
0.634713
0.633288
0.631857
0.630419
0.628976
0.627529
0.626079
0.624627
0.623176
0.621726
0.620278
0.618835
0.617398
0.615967
0.614543
0.613127
0.611719
0.610321
0.60893
0.607547
0.606169
0.604797
0.603429
0.602061
0.600696
0.599325
0.597953
0.59657
0.595185
0.593784
0.592378
0.590953
0.58952
0.588069
0.586606
0.585127
0.583632
0.582125
0.5806
0.579064
0.577513
0.57595
0.574374
0.572786
0.571188
0.569578
0.567958
0.566329
0.56469
0.563042
0.561384
0.559719
0.558044
0.55636
0.554667
0.552965
0.551254
0.549535
0.547805
0.546066
0.544316
0.542556
0.540786
0.539004
0.537211
0.535406
0.53359
0.531762
0.52992
0.528067
0.526199
0.524319
0.522424
0.520516
0.518594
0.516657
0.514706
0.512741
0.510761
0.508766
0.506757
0.504735
0.502699
0.50065
0.498591
0.496521
0.494442
0.492358
0.490272
0.488188
0.48611
0.484047
0.482004
0.47999
0.478017
0.476095
0.474238
0.472458
0.470767
0.469177
0.467696
0.466331
0.46508
0.463935
0.462869
0.461836
0.460746
0.459444
0.457661
0.454928
0.450454
0.442945
0.430449
0.410459
0.380801
0.341761
0.298179
0.258088
0.227537
0.207531
0.195725
0.189186
0.185691
0.183858
0.182906
0.182415
0.182162
0.182032
0.181965
0.18193
0.181911
0.181901
0.181895
0.181892
0.181889
0.181888
0.181886
0.181885
0.181883
0.181882
0.18188
0.181879
0.181877
0.181876
0.181874
0.181872
0.181871
0.181869
0.181867
0.181865
0.181863
0.181861
0.181859
0.181857
0.181855
0.181853
0.181851
0.181848
0.181846
0.181843
0.181841
0.181838
0.181836
0.181833
0.18183
0.181826
0.181823
0.18182
0.181816
0.181812
0.181808
0.181803
0.181799
0.181794
0.181788
0.181782
0.181776
0.181769
0.181762
0.181754
0.181746
0.181737
0.181728
0.181717
0.181707
0.181695
0.181683
0.18167
0.181657
0.181642
0.181628
0.181612
0.181597
0.181581
0.181564
0.181548
0.181531
0.181514
0.181498
0.181481
0.181465
0.181449
0.181434
0.18142
0.181407
0.181395
0.181385
0.181375
0.181367
0.181361
0.181357
0.181355
0.181354
0.181353
0.181353
0.181356
0.181363
0.181371
0.181381
0.181392
0.181405
0.181419
0.181434
0.181449
0.181465
0.181482
0.181499
0.181516
0.181533
0.181549
0.181565
0.18158
0.181595
0.181609
0.181622
0.181634
0.181645
0.181655
0.181664
0.181672
0.181679
0.181685
0.181691
0.181695
0.181699
0.181703
0.181705
0.181708
0.18171
0.181711
0.181712
0.181713
0.181714
0.181715
0.181716
0.181716
0.181717
0.181718
0.181719
0.18172
0.181722
0.181723
0.181725
0.181727
0.181729
0.181731
0.181733
0.181736
0.181739
0.181741
0.181744
0.181747
0.181751
0.181754
0.181757
0.181761
0.181764
0.181768
0.181772
0.181775
0.181779
0.181782
0.181786
0.18179
0.181793
0.181797
0.1818
0.181804
0.181807
0.181811
0.181814
0.181818
0.181821
0.181824
0.181828
0.181831
0.181834
0.181837
0.18184
0.181843
0.181846
0.181849
0.181852
0.181855
0.181857
0.18186
0.181862
0.181865
0.181867
0.181869
0.181871
0.181873
0.181875
0.181877
0.181879
0.181881
0.181882
0.181883
0.181884
0.181886
0.181886
0.181887
0.181888
0.181888
0.181889
0.181889
0.181889
0.181889
0.181889
0.181889
0.181888
0.181887
0.181886
0.181886
0.181884
0.181883
0.181882
0.18188
0.181879
0.181877
0.181875
0.181873
0.181871
0.181869
0.181867
0.181865
0.181862
0.18186
0.181857
0.181855
0.181852
0.18185
0.181847
0.181844
0.181842
0.181839
0.181836
0.181834
0.181831
0.181828
0.181826
0.181823
0.181821
0.181818
0.181815
0.181813
0.18181
0.181807
0.181805
0.181802
0.181799
0.181796
0.181792
0.181789
0.181785
0.181781
0.181777
0.181773
0.181769
0.181764
0.181759
0.181753
0.181748
0.181742
0.181735
0.181729
0.181722
0.181714
0.181706
0.181698
0.181689
0.18168
0.18167
0.18166
0.18165
0.181639
0.181627
0.181616
0.181604
0.181591
0.181579
0.181566
0.181553
0.18154
0.181526
0.181513
0.1815
0.181488
0.181475
0.181463
0.181451
0.18144
0.18143
0.18142
0.181411
0.181403
0.181396
0.18139
0.181386
0.181383
0.181381
0.18138
0.18138
0.18138
0.181381
0.181385
0.181391
0.181398
0.181407
0.181416
0.181427
0.181438
0.18145
0.181463
0.181476
0.18149
0.181504
0.181518
0.181532
0.181546
0.18156
0.181573
0.181586
0.181598
0.18161
0.181621
0.181631
0.181641
0.18165
0.181658
0.181665
0.181672
0.181678
0.181684
0.181689
0.181693
0.181696
0.1817
0.181702
0.181705
0.181707
0.181709
0.181711
0.181712
0.181713
0.181715
0.181716
0.181717
0.181718
0.181719
0.181721
0.181722
0.181723
0.181725
0.181727
0.181728
0.18173
0.181732
0.181735
0.181737
0.18174
0.181742
0.181745
0.181748
0.181751
0.181754
0.181757
0.18176
0.181763
0.181767
0.18177
0.181773
0.181777
0.18178
0.181783
0.181787
0.18179
0.181793
0.181796
0.1818
0.181803
0.181806
0.181809
0.181812
0.181814
0.181817
0.18182
0.181823
0.181825
0.181828
0.18183
0.181833
0.181835
0.181837
0.181839
0.181841
0.181843
0.181845
0.181847
0.181849
0.18185
0.181852
0.181853
0.181855
0.181856
0.181857
0.181859
0.18186
0.181861
0.181862
0.181862
0.181863
0.181864
0.181864
0.181865
0.181865
0.181866
0.181866
0.181866
0.181866
0.181866
0.181866
0.181866
0.181865
0.181865
0.181864
0.181864
0.181863
0.181862
0.181861
0.18186
0.181858
0.181857
0.181856
0.181854
0.181853
0.181851
0.181849
0.181848
0.181846
0.181844
0.181842
0.18184
0.181838
0.181835
0.181833
0.181831
0.181829
0.181826
0.181824
0.181821
0.181819
0.181816
0.181813
0.181811
0.181808
0.181805
0.181802
0.181799
0.181795
0.181792
0.181789
0.181785
0.181781
0.181778
0.181774
0.181769
0.181765
0.18176
0.181756
0.181751
0.181745
0.18174
0.181734
0.181728
0.181721
0.181714
0.181707
0.1817
0.181692
0.181684
0.181676
0.181667
0.181658
0.181649
0.181639
0.181629
0.181619
0.181609
0.181599
0.181588
0.181577
0.181566
0.181555
0.181545
0.181534
0.181523
0.181513
0.181503
0.181493
0.181484
0.181475
0.181466
0.181459
0.181452
0.181445
0.18144
0.181435
0.181431
0.181428
0.181427
0.181426
0.181426
0.181426
0.181426
0.181429
0.181433
0.181438
0.181445
0.181452
0.18146
0.181468
0.181478
0.181487
0.181498
0.181509
0.18152
0.181531
0.181543
0.181554
0.181565
0.181577
0.181588
0.181599
0.181609
0.181619
0.181628
0.181638
0.181646
0.181654
0.181661
0.181668
0.181675
0.18168
0.181686
0.18169
0.181695
0.181699
0.181702
0.181705
0.181708
0.18171
0.181712
0.181714
0.181716
0.181717
0.181719
0.18172
0.181721
0.181722
0.181723
0.181725
0.181726
0.181727
0.181729
0.18173
0.181732
0.181733
0.181735
0.181737
0.181739
0.181741
0.181743
0.181746
0.181748
0.181751
0.181754
0.181756
0.181759
0.181762
0.181766
0.181769
0.181772
0.181775
0.181779
0.181782
0.181785
0.181789
0.181792
0.181795
0.181799
0.181802
0.181805
0.181808
0.181812
0.181815
0.181818
0.181821
0.181824
0.181827
0.18183
0.181832
0.181835
0.181838
0.18184
0.181843
0.181845
0.181847
0.18185
0.181852
0.181854
0.181856
0.181858
0.18186
0.181861
0.181863
0.181865
0.181866
0.181867
0.181869
0.18187
0.181871
0.181872
0.181874
0.181875
0.181875
0.181876
0.181877
0.181878
0.181878
0.181879
0.181879
0.18188
0.18188
0.18188
0.18188
0.18188
0.18188
0.18188
0.18188
0.18188
0.181879
0.181879
0.181878
0.181878
0.181876
0.181876
0.181874
0.181874
0.181872
0.181871
0.181869
0.181868
0.181866
0.181865
0.181862
0.181861
0.181858
0.181857
0.181851
)
;

boundaryField
{
    inlet
    {
        type            calculated;
        value           uniform 0.805169;
    }
    outlet
    {
        type            calculated;
        value           uniform 0.181852;
    }
    emptyWalls
    {
        type            empty;
    }
}


// ************************************************************************* //
