/*--------------------------------*- C++ -*----------------------------------*\
  =========                 |
  \\      /  F ield         | OpenFOAM: The Open Source CFD Toolbox
   \\    /   O peration     | Website:  https://openfoam.org
    \\  /    A nd           | Version:  9
     \\/     M anipulation  |
\*---------------------------------------------------------------------------*/
FoamFile
{
    format      ascii;
    class       volScalarField;
    location    "8350";
    object      krc;
}
// * * * * * * * * * * * * * * * * * * * * * * * * * * * * * * * * * * * * * //

dimensions      [0 0 0 0 0 0 0];

internalField   nonuniform List<scalar> 
1000
(
8.09481e-07
8.8766e-06
2.85279e-05
5.67272e-05
9.18712e-05
0.000131281
0.000171838
0.000212987
0.00026993
0.000439588
0.00130757
0.0120167
0.0371398
0.0445472
0.0474489
0.0491531
0.0503861
0.0513683
0.052195
0.0529081
0.0535387
0.0541051
0.0546349
0.0551406
0.0556439
0.0561613
0.056732
0.0573463
0.0580318
0.0588358
0.0598168
0.0610192
0.062439
0.0640233
0.0657117
0.0674631
0.0692523
0.0710635
0.0728866
0.0747147
0.0765436
0.0783698
0.0801914
0.0820068
0.0838149
0.085615
0.0874065
0.0891889
0.090962
0.0927256
0.0944795
0.0962237
0.0979581
0.0996826
0.101397
0.103102
0.104798
0.106483
0.108159
0.109826
0.111483
0.113131
0.11477
0.116399
0.11802
0.119632
0.121234
0.122828
0.124414
0.125991
0.127559
0.129119
0.130671
0.132215
0.133751
0.135279
0.1368
0.138313
0.139819
0.141318
0.14281
0.144294
0.145772
0.147244
0.148709
0.150167
0.151619
0.153065
0.154504
0.155937
0.157363
0.158784
0.160198
0.161607
0.163009
0.164405
0.165796
0.167181
0.16856
0.169933
0.171302
0.172664
0.174022
0.175375
0.176722
0.178064
0.179402
0.180735
0.182063
0.183386
0.184705
0.18602
0.18733
0.188635
0.189936
0.191233
0.192526
0.193815
0.195099
0.19638
0.197657
0.198929
0.200198
0.201464
0.202725
0.203983
0.205237
0.206488
0.207735
0.208979
0.210219
0.211457
0.212691
0.213921
0.215149
0.216373
0.217594
0.218813
0.220028
0.221241
0.22245
0.223657
0.224861
0.226062
0.227261
0.228457
0.229651
0.230842
0.23203
0.233216
0.2344
0.235581
0.23676
0.237937
0.239111
0.240283
0.241454
0.242622
0.243788
0.244952
0.246114
0.247274
0.248432
0.249589
0.250744
0.251897
0.253048
0.254198
0.255346
0.256492
0.257637
0.25878
0.259922
0.261063
0.262202
0.26334
0.264476
0.265611
0.266746
0.267878
0.26901
0.270141
0.27127
0.272399
0.273526
0.274653
0.275779
0.276903
0.278027
0.279151
0.280273
0.281395
0.282516
0.283636
0.284756
0.285875
0.286994
0.288112
0.28923
0.290348
0.291465
0.292582
0.293698
0.294814
0.29593
0.297046
0.298162
0.299278
0.300393
0.301508
0.302624
0.303739
0.304855
0.30597
0.307086
0.308202
0.309318
0.310434
0.31155
0.312667
0.313784
0.314902
0.31602
0.317139
0.318258
0.319378
0.320499
0.321621
0.322744
0.323868
0.324993
0.32612
0.327248
0.328377
0.329508
0.330641
0.331775
0.332911
0.33405
0.33519
0.336332
0.337476
0.338623
0.339771
0.340922
0.342075
0.34323
0.344387
0.345546
0.346707
0.347871
0.349037
0.350205
0.351376
0.352548
0.353724
0.354902
0.356083
0.357266
0.358452
0.359642
0.360834
0.362029
0.363228
0.36443
0.365636
0.366845
0.368058
0.369275
0.370496
0.371721
0.37295
0.374184
0.375423
0.376666
0.377914
0.379167
0.380425
0.381688
0.382957
0.384231
0.385511
0.386796
0.388088
0.389386
0.39069
0.392
0.393317
0.39464
0.395971
0.397308
0.398653
0.400005
0.401364
0.402731
0.404106
0.405488
0.406878
0.408276
0.409681
0.411095
0.412515
0.413943
0.415376
0.416816
0.41826
0.419707
0.421156
0.422605
0.42405
0.425488
0.426915
0.428325
0.429713
0.431072
0.432394
0.43367
0.434892
0.436051
0.437141
0.438155
0.43909
0.439946
0.440729
0.441457
0.442163
0.442907
0.443794
0.445007
0.446861
0.44989
0.454961
0.463373
0.476783
0.49665
0.522955
0.552893
0.581418
0.604131
0.619627
0.629058
0.634385
0.637265
0.638785
0.639576
0.639985
0.640195
0.640303
0.640358
0.640387
0.640401
0.640408
0.640412
0.640413
0.640414
0.640414
0.640414
0.640413
0.640413
0.640412
0.640412
0.640411
0.64041
0.64041
0.640409
0.640408
0.640408
0.640407
0.640406
0.640405
0.640405
0.640404
0.640403
0.640402
0.640402
0.640401
0.6404
0.640399
0.640398
0.640397
0.640396
0.640395
0.640394
0.640392
0.640391
0.64039
0.640389
0.640387
0.640386
0.640384
0.640383
0.640381
0.640379
0.640377
0.640375
0.640372
0.64037
0.640367
0.640365
0.640362
0.640359
0.640355
0.640352
0.640348
0.640344
0.64034
0.640335
0.640331
0.640326
0.640321
0.640315
0.64031
0.640304
0.640298
0.640293
0.640287
0.640281
0.640275
0.640269
0.640263
0.640257
0.640252
0.640247
0.640242
0.640237
0.640233
0.64023
0.640227
0.640225
0.640223
0.640222
0.640222
0.640222
0.640223
0.640223
0.640225
0.640229
0.640233
0.640237
0.640242
0.640248
0.640254
0.64026
0.640267
0.640274
0.640281
0.640289
0.640296
0.640303
0.64031
0.640317
0.640323
0.640329
0.640335
0.640341
0.640346
0.64035
0.640355
0.640358
0.640362
0.640365
0.640368
0.64037
0.640372
0.640374
0.640375
0.640376
0.640377
0.640378
0.640378
0.640379
0.640379
0.64038
0.64038
0.64038
0.640381
0.640381
0.640381
0.640381
0.640382
0.640382
0.640383
0.640383
0.640384
0.640385
0.640385
0.640386
0.640387
0.640388
0.640389
0.64039
0.640391
0.640392
0.640393
0.640394
0.640395
0.640396
0.640398
0.640399
0.6404
0.640401
0.640403
0.640404
0.640405
0.640406
0.640408
0.640409
0.64041
0.640411
0.640413
0.640414
0.640415
0.640416
0.640418
0.640419
0.64042
0.640421
0.640422
0.640423
0.640425
0.640426
0.640427
0.640428
0.640429
0.64043
0.640431
0.640432
0.640433
0.640434
0.640435
0.640436
0.640436
0.640437
0.640438
0.640439
0.640439
0.64044
0.64044
0.640441
0.640441
0.640442
0.640442
0.640442
0.640443
0.640443
0.640443
0.640443
0.640443
0.640443
0.640443
0.640443
0.640442
0.640442
0.640442
0.640441
0.640441
0.64044
0.64044
0.640439
0.640439
0.640438
0.640438
0.640437
0.640436
0.640435
0.640435
0.640434
0.640433
0.640432
0.640431
0.64043
0.64043
0.640429
0.640428
0.640427
0.640426
0.640425
0.640424
0.640422
0.640421
0.64042
0.640418
0.640417
0.640416
0.640414
0.640413
0.640411
0.640409
0.640408
0.640406
0.640404
0.640402
0.640401
0.640399
0.640397
0.640395
0.640393
0.640391
0.64039
0.640387
0.640385
0.640383
0.640381
0.640378
0.640376
0.640373
0.640371
0.640368
0.640365
0.640361
0.640358
0.640354
0.640351
0.640347
0.640343
0.640339
0.640334
0.64033
0.640325
0.64032
0.640315
0.64031
0.640305
0.6403
0.640295
0.64029
0.640285
0.64028
0.640275
0.64027
0.640265
0.640261
0.640257
0.640253
0.64025
0.640247
0.640244
0.640242
0.64024
0.640239
0.640238
0.640238
0.640238
0.640238
0.640239
0.64024
0.640243
0.640246
0.640249
0.640253
0.640257
0.640262
0.640267
0.640272
0.640277
0.640283
0.640288
0.640294
0.6403
0.640305
0.640311
0.640316
0.640321
0.640326
0.640331
0.640336
0.64034
0.640344
0.640347
0.640351
0.640354
0.640356
0.640359
0.640361
0.640363
0.640365
0.640366
0.640368
0.640369
0.64037
0.640371
0.640371
0.640372
0.640373
0.640373
0.640374
0.640374
0.640375
0.640375
0.640375
0.640376
0.640377
0.640377
0.640378
0.640378
0.640379
0.64038
0.640381
0.640382
0.640383
0.640384
0.640385
0.640386
0.640387
0.640388
0.640389
0.64039
0.640392
0.640393
0.640394
0.640395
0.640397
0.640398
0.640399
0.640401
0.640402
0.640403
0.640405
0.640406
0.640407
0.640408
0.64041
0.640411
0.640412
0.640413
0.640414
0.640415
0.640416
0.640417
0.640418
0.640419
0.64042
0.640421
0.640422
0.640423
0.640424
0.640425
0.640425
0.640426
0.640427
0.640427
0.640428
0.640429
0.640429
0.64043
0.64043
0.640431
0.640431
0.640432
0.640432
0.640432
0.640433
0.640433
0.640433
0.640433
0.640434
0.640434
0.640434
0.640434
0.640434
0.640434
0.640434
0.640434
0.640434
0.640434
0.640433
0.640433
0.640433
0.640433
0.640432
0.640432
0.640431
0.640431
0.64043
0.64043
0.640429
0.640428
0.640428
0.640427
0.640426
0.640425
0.640424
0.640423
0.640422
0.640421
0.64042
0.640419
0.640418
0.640417
0.640416
0.640415
0.640414
0.640413
0.640411
0.64041
0.640409
0.640408
0.640406
0.640405
0.640404
0.640402
0.640401
0.640399
0.640398
0.640396
0.640394
0.640393
0.640391
0.640389
0.640387
0.640385
0.640383
0.640381
0.640379
0.640376
0.640374
0.640371
0.640368
0.640365
0.640362
0.640359
0.640356
0.640353
0.640349
0.640345
0.640342
0.640338
0.640334
0.64033
0.640326
0.640321
0.640317
0.640313
0.640309
0.640304
0.6403
0.640296
0.640292
0.640288
0.640284
0.64028
0.640277
0.640273
0.64027
0.640267
0.640265
0.640263
0.640261
0.640259
0.640258
0.640258
0.640257
0.640257
0.640257
0.640257
0.640258
0.64026
0.640262
0.640265
0.640268
0.640271
0.640274
0.640278
0.640282
0.640286
0.64029
0.640295
0.640299
0.640304
0.640308
0.640313
0.640317
0.640322
0.640326
0.64033
0.640334
0.640338
0.640342
0.640345
0.640348
0.640351
0.640354
0.640357
0.640359
0.640361
0.640363
0.640365
0.640366
0.640367
0.640369
0.64037
0.640371
0.640372
0.640372
0.640373
0.640374
0.640374
0.640375
0.640375
0.640376
0.640376
0.640377
0.640377
0.640378
0.640378
0.640379
0.640379
0.64038
0.640381
0.640382
0.640382
0.640383
0.640384
0.640385
0.640386
0.640387
0.640388
0.640389
0.640391
0.640392
0.640393
0.640394
0.640395
0.640397
0.640398
0.6404
0.640401
0.640402
0.640404
0.640405
0.640406
0.640407
0.640409
0.64041
0.640411
0.640413
0.640414
0.640415
0.640416
0.640417
0.640419
0.64042
0.640421
0.640422
0.640423
0.640424
0.640425
0.640426
0.640427
0.640427
0.640428
0.640429
0.64043
0.64043
0.640431
0.640432
0.640432
0.640433
0.640434
0.640434
0.640435
0.640435
0.640436
0.640436
0.640436
0.640437
0.640437
0.640437
0.640438
0.640438
0.640438
0.640438
0.640438
0.640439
0.640439
0.640439
0.640439
0.640439
0.640439
0.640439
0.640438
0.640438
0.640438
0.640438
0.640438
0.640437
0.640437
0.640436
0.640436
0.640435
0.640435
0.640434
0.640433
0.640432
0.640432
0.640431
0.64043
0.640429
0.640429
0.640426
)
;

boundaryField
{
    inlet
    {
        type            calculated;
        value           uniform 3.08149e-33;
    }
    outlet
    {
        type            calculated;
        value           uniform 0.640426;
    }
    emptyWalls
    {
        type            empty;
    }
}


// ************************************************************************* //
