/*--------------------------------*- C++ -*----------------------------------*\
  =========                 |
  \\      /  F ield         | OpenFOAM: The Open Source CFD Toolbox
   \\    /   O peration     | Website:  https://openfoam.org
    \\  /    A nd           | Version:  9
     \\/     M anipulation  |
\*---------------------------------------------------------------------------*/
FoamFile
{
    format      ascii;
    class       volVectorField;
    location    "8350";
    object      Uc;
}
// * * * * * * * * * * * * * * * * * * * * * * * * * * * * * * * * * * * * * //

dimensions      [0 0 0 0 0 0 0];

internalField   nonuniform List<vector> 
1000
(
(4.652e-11 0 0)
(2.58459e-10 0 0)
(6.87994e-10 0 0)
(1.29443e-09 0 0)
(2.03171e-09 0 0)
(2.84211e-09 0 0)
(3.67546e-09 0 0)
(4.58569e-09 0 0)
(6.18872e-09 0 0)
(1.11191e-08 0 0)
(3.03763e-08 0 0)
(1.08642e-07 0 0)
(1.88605e-07 0 0)
(2.11142e-07 0 0)
(2.19411e-07 0 0)
(2.24318e-07 0 0)
(2.28028e-07 0 0)
(2.31158e-07 0 0)
(2.33936e-07 0 0)
(2.36467e-07 0 0)
(2.38812e-07 0 0)
(2.41028e-07 0 0)
(2.43175e-07 0 0)
(2.45317e-07 0 0)
(2.47516e-07 0 0)
(2.49895e-07 0 0)
(2.52568e-07 0 0)
(2.55598e-07 0 0)
(2.59136e-07 0 0)
(2.63464e-07 0 0)
(2.68924e-07 0 0)
(2.75776e-07 0 0)
(2.84012e-07 0 0)
(2.93354e-07 0 0)
(3.03467e-07 0 0)
(3.14109e-07 0 0)
(3.25126e-07 0 0)
(3.36424e-07 0 0)
(3.4794e-07 0 0)
(3.5963e-07 0 0)
(3.71467e-07 0 0)
(3.83428e-07 0 0)
(3.95499e-07 0 0)
(4.07668e-07 0 0)
(4.19927e-07 0 0)
(4.32269e-07 0 0)
(4.44687e-07 0 0)
(4.57178e-07 0 0)
(4.69738e-07 0 0)
(4.82363e-07 0 0)
(4.9505e-07 0 0)
(5.07797e-07 0 0)
(5.20601e-07 0 0)
(5.33459e-07 0 0)
(5.46369e-07 0 0)
(5.59327e-07 0 0)
(5.72333e-07 0 0)
(5.85384e-07 0 0)
(5.98481e-07 0 0)
(6.11624e-07 0 0)
(6.24812e-07 0 0)
(6.38042e-07 0 0)
(6.51312e-07 0 0)
(6.64616e-07 0 0)
(6.77952e-07 0 0)
(6.91313e-07 0 0)
(7.04698e-07 0 0)
(7.18103e-07 0 0)
(7.31528e-07 0 0)
(7.44974e-07 0 0)
(7.58442e-07 0 0)
(7.71935e-07 0 0)
(7.85456e-07 0 0)
(7.99008e-07 0 0)
(8.12596e-07 0 0)
(8.26223e-07 0 0)
(8.39896e-07 0 0)
(8.53621e-07 0 0)
(8.67405e-07 0 0)
(8.81254e-07 0 0)
(8.95174e-07 0 0)
(9.09169e-07 0 0)
(9.23242e-07 0 0)
(9.37393e-07 0 0)
(9.51618e-07 0 0)
(9.65913e-07 0 0)
(9.8027e-07 0 0)
(9.9468e-07 0 0)
(1.00913e-06 0 0)
(1.02362e-06 0 0)
(1.03812e-06 0 0)
(1.05265e-06 0 0)
(1.06718e-06 0 0)
(1.08172e-06 0 0)
(1.09626e-06 0 0)
(1.1108e-06 0 0)
(1.12534e-06 0 0)
(1.13989e-06 0 0)
(1.15445e-06 0 0)
(1.16902e-06 0 0)
(1.18361e-06 0 0)
(1.19821e-06 0 0)
(1.21284e-06 0 0)
(1.2275e-06 0 0)
(1.24219e-06 0 0)
(1.25691e-06 0 0)
(1.27166e-06 0 0)
(1.28645e-06 0 0)
(1.30128e-06 0 0)
(1.31614e-06 0 0)
(1.33104e-06 0 0)
(1.34598e-06 0 0)
(1.36094e-06 0 0)
(1.37595e-06 0 0)
(1.39099e-06 0 0)
(1.40606e-06 0 0)
(1.42117e-06 0 0)
(1.4363e-06 0 0)
(1.45147e-06 0 0)
(1.46668e-06 0 0)
(1.48191e-06 0 0)
(1.49718e-06 0 0)
(1.51247e-06 0 0)
(1.5278e-06 0 0)
(1.54316e-06 0 0)
(1.55855e-06 0 0)
(1.57397e-06 0 0)
(1.58943e-06 0 0)
(1.60491e-06 0 0)
(1.62043e-06 0 0)
(1.63598e-06 0 0)
(1.65156e-06 0 0)
(1.66717e-06 0 0)
(1.68281e-06 0 0)
(1.69849e-06 0 0)
(1.7142e-06 0 0)
(1.72994e-06 0 0)
(1.74571e-06 0 0)
(1.76151e-06 0 0)
(1.77735e-06 0 0)
(1.79321e-06 0 0)
(1.80911e-06 0 0)
(1.82504e-06 0 0)
(1.84101e-06 0 0)
(1.857e-06 0 0)
(1.87303e-06 0 0)
(1.88909e-06 0 0)
(1.90518e-06 0 0)
(1.92131e-06 0 0)
(1.93746e-06 0 0)
(1.95365e-06 0 0)
(1.96987e-06 0 0)
(1.98613e-06 0 0)
(2.00241e-06 0 0)
(2.01874e-06 0 0)
(2.03509e-06 0 0)
(2.05148e-06 0 0)
(2.0679e-06 0 0)
(2.08436e-06 0 0)
(2.10086e-06 0 0)
(2.11739e-06 0 0)
(2.13395e-06 0 0)
(2.15055e-06 0 0)
(2.16719e-06 0 0)
(2.18387e-06 0 0)
(2.20058e-06 0 0)
(2.21733e-06 0 0)
(2.23412e-06 0 0)
(2.25095e-06 0 0)
(2.26781e-06 0 0)
(2.28472e-06 0 0)
(2.30166e-06 0 0)
(2.31864e-06 0 0)
(2.33566e-06 0 0)
(2.35272e-06 0 0)
(2.36982e-06 0 0)
(2.38697e-06 0 0)
(2.40415e-06 0 0)
(2.42137e-06 0 0)
(2.43863e-06 0 0)
(2.45594e-06 0 0)
(2.47328e-06 0 0)
(2.49067e-06 0 0)
(2.5081e-06 0 0)
(2.52557e-06 0 0)
(2.54309e-06 0 0)
(2.56065e-06 0 0)
(2.57825e-06 0 0)
(2.5959e-06 0 0)
(2.61359e-06 0 0)
(2.63133e-06 0 0)
(2.64912e-06 0 0)
(2.66695e-06 0 0)
(2.68482e-06 0 0)
(2.70275e-06 0 0)
(2.72071e-06 0 0)
(2.73873e-06 0 0)
(2.75679e-06 0 0)
(2.7749e-06 0 0)
(2.79305e-06 0 0)
(2.81125e-06 0 0)
(2.8295e-06 0 0)
(2.8478e-06 0 0)
(2.86614e-06 0 0)
(2.88453e-06 0 0)
(2.90297e-06 0 0)
(2.92145e-06 0 0)
(2.93998e-06 0 0)
(2.95855e-06 0 0)
(2.97716e-06 0 0)
(2.99581e-06 0 0)
(3.01451e-06 0 0)
(3.03324e-06 0 0)
(3.05201e-06 0 0)
(3.07081e-06 0 0)
(3.08965e-06 0 0)
(3.10852e-06 0 0)
(3.12744e-06 0 0)
(3.14638e-06 0 0)
(3.16537e-06 0 0)
(3.1844e-06 0 0)
(3.20346e-06 0 0)
(3.22258e-06 0 0)
(3.24175e-06 0 0)
(3.26097e-06 0 0)
(3.28026e-06 0 0)
(3.29961e-06 0 0)
(3.31904e-06 0 0)
(3.33856e-06 0 0)
(3.35816e-06 0 0)
(3.37786e-06 0 0)
(3.39767e-06 0 0)
(3.4176e-06 0 0)
(3.43765e-06 0 0)
(3.45782e-06 0 0)
(3.47813e-06 0 0)
(3.49859e-06 0 0)
(3.51918e-06 0 0)
(3.53992e-06 0 0)
(3.5608e-06 0 0)
(3.58182e-06 0 0)
(3.60298e-06 0 0)
(3.62428e-06 0 0)
(3.64571e-06 0 0)
(3.66725e-06 0 0)
(3.68891e-06 0 0)
(3.71068e-06 0 0)
(3.73255e-06 0 0)
(3.7545e-06 0 0)
(3.77654e-06 0 0)
(3.79866e-06 0 0)
(3.82084e-06 0 0)
(3.8431e-06 0 0)
(3.86542e-06 0 0)
(3.88781e-06 0 0)
(3.91026e-06 0 0)
(3.93278e-06 0 0)
(3.95536e-06 0 0)
(3.97802e-06 0 0)
(4.00075e-06 0 0)
(4.02356e-06 0 0)
(4.04646e-06 0 0)
(4.06944e-06 0 0)
(4.09252e-06 0 0)
(4.11569e-06 0 0)
(4.13897e-06 0 0)
(4.16237e-06 0 0)
(4.18587e-06 0 0)
(4.2095e-06 0 0)
(4.23326e-06 0 0)
(4.25714e-06 0 0)
(4.28116e-06 0 0)
(4.30532e-06 0 0)
(4.32962e-06 0 0)
(4.35407e-06 0 0)
(4.37867e-06 0 0)
(4.40342e-06 0 0)
(4.42833e-06 0 0)
(4.45339e-06 0 0)
(4.47861e-06 0 0)
(4.504e-06 0 0)
(4.52955e-06 0 0)
(4.55528e-06 0 0)
(4.58117e-06 0 0)
(4.60725e-06 0 0)
(4.63349e-06 0 0)
(4.65992e-06 0 0)
(4.68653e-06 0 0)
(4.71332e-06 0 0)
(4.74031e-06 0 0)
(4.76748e-06 0 0)
(4.79485e-06 0 0)
(4.82242e-06 0 0)
(4.85019e-06 0 0)
(4.87816e-06 0 0)
(4.90633e-06 0 0)
(4.93471e-06 0 0)
(4.96329e-06 0 0)
(4.99208e-06 0 0)
(5.02107e-06 0 0)
(5.05027e-06 0 0)
(5.07966e-06 0 0)
(5.10924e-06 0 0)
(5.13899e-06 0 0)
(5.1689e-06 0 0)
(5.19895e-06 0 0)
(5.22911e-06 0 0)
(5.25935e-06 0 0)
(5.28961e-06 0 0)
(5.31984e-06 0 0)
(5.34995e-06 0 0)
(5.37985e-06 0 0)
(5.40945e-06 0 0)
(5.4386e-06 0 0)
(5.46717e-06 0 0)
(5.49499e-06 0 0)
(5.52187e-06 0 0)
(5.54763e-06 0 0)
(5.57211e-06 0 0)
(5.59513e-06 0 0)
(5.61659e-06 0 0)
(5.6364e-06 0 0)
(5.65458e-06 0 0)
(5.6713e-06 0 0)
(5.68693e-06 0 0)
(5.70225e-06 0 0)
(5.71861e-06 0 0)
(5.73841e-06 0 0)
(5.76584e-06 0 0)
(5.80805e-06 0 0)
(5.87702e-06 0 0)
(5.99181e-06 0 0)
(6.17985e-06 0 0)
(6.47361e-06 0 0)
(6.89641e-06 0 0)
(7.43686e-06 0 0)
(8.03072e-06 0 0)
(8.58128e-06 0 0)
(9.01282e-06 0 0)
(9.30541e-06 0 0)
(9.48325e-06 0 0)
(9.58376e-06 0 0)
(9.63812e-06 0 0)
(9.6668e-06 0 0)
(9.68173e-06 0 0)
(9.68944e-06 0 0)
(9.69339e-06 0 0)
(9.6954e-06 0 0)
(9.69641e-06 0 0)
(9.69691e-06 0 0)
(9.69714e-06 0 0)
(9.69724e-06 0 0)
(9.69726e-06 0 0)
(9.69724e-06 0 0)
(9.6972e-06 0 0)
(9.69715e-06 0 0)
(9.69709e-06 0 0)
(9.69702e-06 0 0)
(9.69695e-06 0 0)
(9.69687e-06 0 0)
(9.6968e-06 0 0)
(9.69672e-06 0 0)
(9.69664e-06 0 0)
(9.69655e-06 0 0)
(9.69647e-06 0 0)
(9.69638e-06 0 0)
(9.69629e-06 0 0)
(9.69619e-06 0 0)
(9.6961e-06 0 0)
(9.696e-06 0 0)
(9.6959e-06 0 0)
(9.6958e-06 0 0)
(9.69569e-06 0 0)
(9.69558e-06 0 0)
(9.69547e-06 0 0)
(9.69536e-06 0 0)
(9.69524e-06 0 0)
(9.69512e-06 0 0)
(9.695e-06 0 0)
(9.69487e-06 0 0)
(9.69473e-06 0 0)
(9.6946e-06 0 0)
(9.69445e-06 0 0)
(9.6943e-06 0 0)
(9.69414e-06 0 0)
(9.69398e-06 0 0)
(9.6938e-06 0 0)
(9.69362e-06 0 0)
(9.69343e-06 0 0)
(9.69322e-06 0 0)
(9.693e-06 0 0)
(9.69277e-06 0 0)
(9.69253e-06 0 0)
(9.69226e-06 0 0)
(9.69198e-06 0 0)
(9.69168e-06 0 0)
(9.69136e-06 0 0)
(9.69101e-06 0 0)
(9.69064e-06 0 0)
(9.69024e-06 0 0)
(9.68982e-06 0 0)
(9.68936e-06 0 0)
(9.68888e-06 0 0)
(9.68836e-06 0 0)
(9.68781e-06 0 0)
(9.68723e-06 0 0)
(9.68661e-06 0 0)
(9.68597e-06 0 0)
(9.68529e-06 0 0)
(9.68458e-06 0 0)
(9.68384e-06 0 0)
(9.68308e-06 0 0)
(9.6823e-06 0 0)
(9.68149e-06 0 0)
(9.68067e-06 0 0)
(9.67984e-06 0 0)
(9.679e-06 0 0)
(9.67817e-06 0 0)
(9.67734e-06 0 0)
(9.67652e-06 0 0)
(9.67572e-06 0 0)
(9.67495e-06 0 0)
(9.67422e-06 0 0)
(9.67352e-06 0 0)
(9.67288e-06 0 0)
(9.6723e-06 0 0)
(9.67178e-06 0 0)
(9.67134e-06 0 0)
(9.67098e-06 0 0)
(9.67071e-06 0 0)
(9.67053e-06 0 0)
(9.67044e-06 0 0)
(9.67041e-06 0 0)
(9.67042e-06 0 0)
(9.67046e-06 0 0)
(9.67068e-06 0 0)
(9.67106e-06 0 0)
(9.67152e-06 0 0)
(9.67207e-06 0 0)
(9.67269e-06 0 0)
(9.67338e-06 0 0)
(9.67413e-06 0 0)
(9.67493e-06 0 0)
(9.67577e-06 0 0)
(9.67664e-06 0 0)
(9.67754e-06 0 0)
(9.67844e-06 0 0)
(9.67935e-06 0 0)
(9.68024e-06 0 0)
(9.68112e-06 0 0)
(9.68198e-06 0 0)
(9.6828e-06 0 0)
(9.68358e-06 0 0)
(9.68432e-06 0 0)
(9.68502e-06 0 0)
(9.68566e-06 0 0)
(9.68625e-06 0 0)
(9.68679e-06 0 0)
(9.68727e-06 0 0)
(9.68771e-06 0 0)
(9.68809e-06 0 0)
(9.68843e-06 0 0)
(9.68872e-06 0 0)
(9.68897e-06 0 0)
(9.68918e-06 0 0)
(9.68936e-06 0 0)
(9.6895e-06 0 0)
(9.68963e-06 0 0)
(9.68973e-06 0 0)
(9.68981e-06 0 0)
(9.68987e-06 0 0)
(9.68993e-06 0 0)
(9.68997e-06 0 0)
(9.69002e-06 0 0)
(9.69005e-06 0 0)
(9.69009e-06 0 0)
(9.69013e-06 0 0)
(9.69018e-06 0 0)
(9.69023e-06 0 0)
(9.69028e-06 0 0)
(9.69035e-06 0 0)
(9.69042e-06 0 0)
(9.6905e-06 0 0)
(9.69059e-06 0 0)
(9.69069e-06 0 0)
(9.69079e-06 0 0)
(9.69091e-06 0 0)
(9.69103e-06 0 0)
(9.69116e-06 0 0)
(9.6913e-06 0 0)
(9.69145e-06 0 0)
(9.6916e-06 0 0)
(9.69175e-06 0 0)
(9.69191e-06 0 0)
(9.69208e-06 0 0)
(9.69225e-06 0 0)
(9.69242e-06 0 0)
(9.69259e-06 0 0)
(9.69277e-06 0 0)
(9.69295e-06 0 0)
(9.69313e-06 0 0)
(9.69331e-06 0 0)
(9.69349e-06 0 0)
(9.69367e-06 0 0)
(9.69385e-06 0 0)
(9.69402e-06 0 0)
(9.6942e-06 0 0)
(9.69438e-06 0 0)
(9.69455e-06 0 0)
(9.69473e-06 0 0)
(9.6949e-06 0 0)
(9.69507e-06 0 0)
(9.69524e-06 0 0)
(9.6954e-06 0 0)
(9.69557e-06 0 0)
(9.69573e-06 0 0)
(9.69589e-06 0 0)
(9.69605e-06 0 0)
(9.6962e-06 0 0)
(9.69636e-06 0 0)
(9.69651e-06 0 0)
(9.69665e-06 0 0)
(9.6968e-06 0 0)
(9.69694e-06 0 0)
(9.69707e-06 0 0)
(9.69721e-06 0 0)
(9.69734e-06 0 0)
(9.69746e-06 0 0)
(9.69759e-06 0 0)
(9.6977e-06 0 0)
(9.69782e-06 0 0)
(9.69792e-06 0 0)
(9.69802e-06 0 0)
(9.69812e-06 0 0)
(9.69821e-06 0 0)
(9.69829e-06 0 0)
(9.69837e-06 0 0)
(9.69844e-06 0 0)
(9.6985e-06 0 0)
(9.69856e-06 0 0)
(9.69861e-06 0 0)
(9.69865e-06 0 0)
(9.69868e-06 0 0)
(9.69871e-06 0 0)
(9.69873e-06 0 0)
(9.69874e-06 0 0)
(9.69874e-06 0 0)
(9.69874e-06 0 0)
(9.69874e-06 0 0)
(9.69873e-06 0 0)
(9.6987e-06 0 0)
(9.69867e-06 0 0)
(9.69863e-06 0 0)
(9.69858e-06 0 0)
(9.69852e-06 0 0)
(9.69846e-06 0 0)
(9.69839e-06 0 0)
(9.69832e-06 0 0)
(9.69824e-06 0 0)
(9.69815e-06 0 0)
(9.69807e-06 0 0)
(9.69797e-06 0 0)
(9.69787e-06 0 0)
(9.69777e-06 0 0)
(9.69766e-06 0 0)
(9.69755e-06 0 0)
(9.69744e-06 0 0)
(9.69732e-06 0 0)
(9.6972e-06 0 0)
(9.69708e-06 0 0)
(9.69695e-06 0 0)
(9.69683e-06 0 0)
(9.6967e-06 0 0)
(9.69656e-06 0 0)
(9.69643e-06 0 0)
(9.69629e-06 0 0)
(9.69615e-06 0 0)
(9.69601e-06 0 0)
(9.69587e-06 0 0)
(9.69572e-06 0 0)
(9.69557e-06 0 0)
(9.69541e-06 0 0)
(9.69526e-06 0 0)
(9.6951e-06 0 0)
(9.69494e-06 0 0)
(9.69478e-06 0 0)
(9.69461e-06 0 0)
(9.69444e-06 0 0)
(9.69426e-06 0 0)
(9.69408e-06 0 0)
(9.69389e-06 0 0)
(9.6937e-06 0 0)
(9.69351e-06 0 0)
(9.6933e-06 0 0)
(9.6931e-06 0 0)
(9.69288e-06 0 0)
(9.69265e-06 0 0)
(9.69242e-06 0 0)
(9.69217e-06 0 0)
(9.69192e-06 0 0)
(9.69165e-06 0 0)
(9.69137e-06 0 0)
(9.69107e-06 0 0)
(9.69075e-06 0 0)
(9.69042e-06 0 0)
(9.69008e-06 0 0)
(9.68971e-06 0 0)
(9.68932e-06 0 0)
(9.68891e-06 0 0)
(9.68848e-06 0 0)
(9.68803e-06 0 0)
(9.68755e-06 0 0)
(9.68706e-06 0 0)
(9.68654e-06 0 0)
(9.686e-06 0 0)
(9.68543e-06 0 0)
(9.68485e-06 0 0)
(9.68425e-06 0 0)
(9.68362e-06 0 0)
(9.68298e-06 0 0)
(9.68233e-06 0 0)
(9.68167e-06 0 0)
(9.68099e-06 0 0)
(9.68031e-06 0 0)
(9.67963e-06 0 0)
(9.67895e-06 0 0)
(9.67828e-06 0 0)
(9.67762e-06 0 0)
(9.67697e-06 0 0)
(9.67634e-06 0 0)
(9.67573e-06 0 0)
(9.67516e-06 0 0)
(9.67462e-06 0 0)
(9.67412e-06 0 0)
(9.67366e-06 0 0)
(9.67325e-06 0 0)
(9.6729e-06 0 0)
(9.6726e-06 0 0)
(9.67236e-06 0 0)
(9.6722e-06 0 0)
(9.6721e-06 0 0)
(9.67205e-06 0 0)
(9.67204e-06 0 0)
(9.67206e-06 0 0)
(9.67215e-06 0 0)
(9.67237e-06 0 0)
(9.67268e-06 0 0)
(9.67306e-06 0 0)
(9.6735e-06 0 0)
(9.67399e-06 0 0)
(9.67454e-06 0 0)
(9.67514e-06 0 0)
(9.67578e-06 0 0)
(9.67645e-06 0 0)
(9.67715e-06 0 0)
(9.67787e-06 0 0)
(9.6786e-06 0 0)
(9.67933e-06 0 0)
(9.68007e-06 0 0)
(9.6808e-06 0 0)
(9.68151e-06 0 0)
(9.68221e-06 0 0)
(9.68288e-06 0 0)
(9.68353e-06 0 0)
(9.68414e-06 0 0)
(9.68472e-06 0 0)
(9.68527e-06 0 0)
(9.68578e-06 0 0)
(9.68625e-06 0 0)
(9.68668e-06 0 0)
(9.68707e-06 0 0)
(9.68742e-06 0 0)
(9.68774e-06 0 0)
(9.68803e-06 0 0)
(9.68828e-06 0 0)
(9.68851e-06 0 0)
(9.6887e-06 0 0)
(9.68887e-06 0 0)
(9.68902e-06 0 0)
(9.68915e-06 0 0)
(9.68927e-06 0 0)
(9.68936e-06 0 0)
(9.68945e-06 0 0)
(9.68953e-06 0 0)
(9.68959e-06 0 0)
(9.68966e-06 0 0)
(9.68972e-06 0 0)
(9.68978e-06 0 0)
(9.68984e-06 0 0)
(9.6899e-06 0 0)
(9.68997e-06 0 0)
(9.69004e-06 0 0)
(9.69012e-06 0 0)
(9.6902e-06 0 0)
(9.69029e-06 0 0)
(9.69038e-06 0 0)
(9.69049e-06 0 0)
(9.69059e-06 0 0)
(9.69071e-06 0 0)
(9.69083e-06 0 0)
(9.69096e-06 0 0)
(9.6911e-06 0 0)
(9.69124e-06 0 0)
(9.69139e-06 0 0)
(9.69154e-06 0 0)
(9.6917e-06 0 0)
(9.69186e-06 0 0)
(9.69202e-06 0 0)
(9.69219e-06 0 0)
(9.69236e-06 0 0)
(9.69253e-06 0 0)
(9.69271e-06 0 0)
(9.69288e-06 0 0)
(9.69305e-06 0 0)
(9.69323e-06 0 0)
(9.6934e-06 0 0)
(9.69357e-06 0 0)
(9.69374e-06 0 0)
(9.69391e-06 0 0)
(9.69407e-06 0 0)
(9.69424e-06 0 0)
(9.6944e-06 0 0)
(9.69455e-06 0 0)
(9.69471e-06 0 0)
(9.69486e-06 0 0)
(9.69501e-06 0 0)
(9.69515e-06 0 0)
(9.69529e-06 0 0)
(9.69542e-06 0 0)
(9.69555e-06 0 0)
(9.69568e-06 0 0)
(9.6958e-06 0 0)
(9.69592e-06 0 0)
(9.69603e-06 0 0)
(9.69615e-06 0 0)
(9.69625e-06 0 0)
(9.69635e-06 0 0)
(9.69645e-06 0 0)
(9.69655e-06 0 0)
(9.69664e-06 0 0)
(9.69672e-06 0 0)
(9.6968e-06 0 0)
(9.69688e-06 0 0)
(9.69696e-06 0 0)
(9.69703e-06 0 0)
(9.69709e-06 0 0)
(9.69716e-06 0 0)
(9.69721e-06 0 0)
(9.69727e-06 0 0)
(9.69732e-06 0 0)
(9.69736e-06 0 0)
(9.6974e-06 0 0)
(9.69744e-06 0 0)
(9.69747e-06 0 0)
(9.6975e-06 0 0)
(9.69752e-06 0 0)
(9.69754e-06 0 0)
(9.69755e-06 0 0)
(9.69755e-06 0 0)
(9.69756e-06 0 0)
(9.69756e-06 0 0)
(9.69756e-06 0 0)
(9.69755e-06 0 0)
(9.69753e-06 0 0)
(9.69751e-06 0 0)
(9.69748e-06 0 0)
(9.69744e-06 0 0)
(9.6974e-06 0 0)
(9.69736e-06 0 0)
(9.6973e-06 0 0)
(9.69725e-06 0 0)
(9.69718e-06 0 0)
(9.69712e-06 0 0)
(9.69704e-06 0 0)
(9.69697e-06 0 0)
(9.69688e-06 0 0)
(9.6968e-06 0 0)
(9.69671e-06 0 0)
(9.69661e-06 0 0)
(9.69651e-06 0 0)
(9.6964e-06 0 0)
(9.69629e-06 0 0)
(9.69618e-06 0 0)
(9.69607e-06 0 0)
(9.69595e-06 0 0)
(9.69582e-06 0 0)
(9.6957e-06 0 0)
(9.69557e-06 0 0)
(9.69543e-06 0 0)
(9.6953e-06 0 0)
(9.69516e-06 0 0)
(9.69502e-06 0 0)
(9.69487e-06 0 0)
(9.69472e-06 0 0)
(9.69457e-06 0 0)
(9.69442e-06 0 0)
(9.69426e-06 0 0)
(9.6941e-06 0 0)
(9.69393e-06 0 0)
(9.69375e-06 0 0)
(9.69358e-06 0 0)
(9.69339e-06 0 0)
(9.6932e-06 0 0)
(9.69301e-06 0 0)
(9.6928e-06 0 0)
(9.69259e-06 0 0)
(9.69237e-06 0 0)
(9.69214e-06 0 0)
(9.6919e-06 0 0)
(9.69165e-06 0 0)
(9.69139e-06 0 0)
(9.69111e-06 0 0)
(9.69082e-06 0 0)
(9.69052e-06 0 0)
(9.6902e-06 0 0)
(9.68987e-06 0 0)
(9.68952e-06 0 0)
(9.68915e-06 0 0)
(9.68877e-06 0 0)
(9.68837e-06 0 0)
(9.68795e-06 0 0)
(9.68752e-06 0 0)
(9.68707e-06 0 0)
(9.6866e-06 0 0)
(9.68612e-06 0 0)
(9.68562e-06 0 0)
(9.68511e-06 0 0)
(9.68458e-06 0 0)
(9.68405e-06 0 0)
(9.6835e-06 0 0)
(9.68295e-06 0 0)
(9.68239e-06 0 0)
(9.68182e-06 0 0)
(9.68126e-06 0 0)
(9.6807e-06 0 0)
(9.68014e-06 0 0)
(9.67959e-06 0 0)
(9.67905e-06 0 0)
(9.67852e-06 0 0)
(9.67801e-06 0 0)
(9.67753e-06 0 0)
(9.67706e-06 0 0)
(9.67663e-06 0 0)
(9.67623e-06 0 0)
(9.67586e-06 0 0)
(9.67553e-06 0 0)
(9.67524e-06 0 0)
(9.675e-06 0 0)
(9.6748e-06 0 0)
(9.67466e-06 0 0)
(9.67457e-06 0 0)
(9.67452e-06 0 0)
(9.67451e-06 0 0)
(9.67451e-06 0 0)
(9.67454e-06 0 0)
(9.67468e-06 0 0)
(9.67491e-06 0 0)
(9.67518e-06 0 0)
(9.6755e-06 0 0)
(9.67587e-06 0 0)
(9.67628e-06 0 0)
(9.67673e-06 0 0)
(9.67722e-06 0 0)
(9.67773e-06 0 0)
(9.67828e-06 0 0)
(9.67884e-06 0 0)
(9.67942e-06 0 0)
(9.68001e-06 0 0)
(9.68061e-06 0 0)
(9.68121e-06 0 0)
(9.68181e-06 0 0)
(9.68239e-06 0 0)
(9.68297e-06 0 0)
(9.68353e-06 0 0)
(9.68407e-06 0 0)
(9.6846e-06 0 0)
(9.68509e-06 0 0)
(9.68556e-06 0 0)
(9.68601e-06 0 0)
(9.68643e-06 0 0)
(9.68681e-06 0 0)
(9.68717e-06 0 0)
(9.6875e-06 0 0)
(9.68781e-06 0 0)
(9.68808e-06 0 0)
(9.68833e-06 0 0)
(9.68855e-06 0 0)
(9.68875e-06 0 0)
(9.68893e-06 0 0)
(9.68909e-06 0 0)
(9.68923e-06 0 0)
(9.68936e-06 0 0)
(9.68947e-06 0 0)
(9.68957e-06 0 0)
(9.68966e-06 0 0)
(9.68974e-06 0 0)
(9.68981e-06 0 0)
(9.68988e-06 0 0)
(9.68994e-06 0 0)
(9.69e-06 0 0)
(9.69007e-06 0 0)
(9.69013e-06 0 0)
(9.6902e-06 0 0)
(9.69026e-06 0 0)
(9.69034e-06 0 0)
(9.69041e-06 0 0)
(9.69049e-06 0 0)
(9.69058e-06 0 0)
(9.69068e-06 0 0)
(9.69078e-06 0 0)
(9.69088e-06 0 0)
(9.69099e-06 0 0)
(9.69111e-06 0 0)
(9.69124e-06 0 0)
(9.69137e-06 0 0)
(9.69151e-06 0 0)
(9.69165e-06 0 0)
(9.6918e-06 0 0)
(9.69195e-06 0 0)
(9.69211e-06 0 0)
(9.69227e-06 0 0)
(9.69244e-06 0 0)
(9.6926e-06 0 0)
(9.69277e-06 0 0)
(9.69295e-06 0 0)
(9.69312e-06 0 0)
(9.6933e-06 0 0)
(9.69347e-06 0 0)
(9.69365e-06 0 0)
(9.69382e-06 0 0)
(9.694e-06 0 0)
(9.69417e-06 0 0)
(9.69434e-06 0 0)
(9.69451e-06 0 0)
(9.69468e-06 0 0)
(9.69484e-06 0 0)
(9.69501e-06 0 0)
(9.69516e-06 0 0)
(9.69532e-06 0 0)
(9.69547e-06 0 0)
(9.69562e-06 0 0)
(9.69576e-06 0 0)
(9.6959e-06 0 0)
(9.69604e-06 0 0)
(9.69617e-06 0 0)
(9.6963e-06 0 0)
(9.69642e-06 0 0)
(9.69654e-06 0 0)
(9.69666e-06 0 0)
(9.69677e-06 0 0)
(9.69688e-06 0 0)
(9.69698e-06 0 0)
(9.69708e-06 0 0)
(9.69717e-06 0 0)
(9.69726e-06 0 0)
(9.69735e-06 0 0)
(9.69743e-06 0 0)
(9.69751e-06 0 0)
(9.69759e-06 0 0)
(9.69766e-06 0 0)
(9.69772e-06 0 0)
(9.69779e-06 0 0)
(9.69785e-06 0 0)
(9.6979e-06 0 0)
(9.69795e-06 0 0)
(9.698e-06 0 0)
(9.69805e-06 0 0)
(9.69808e-06 0 0)
(9.69812e-06 0 0)
(9.69815e-06 0 0)
(9.69818e-06 0 0)
(9.6982e-06 0 0)
(9.69822e-06 0 0)
(9.69824e-06 0 0)
(9.69824e-06 0 0)
(9.69825e-06 0 0)
(9.69825e-06 0 0)
(9.69825e-06 0 0)
(9.69824e-06 0 0)
(9.69823e-06 0 0)
(9.69822e-06 0 0)
(9.6982e-06 0 0)
(9.69817e-06 0 0)
(9.69814e-06 0 0)
(9.6981e-06 0 0)
(9.69805e-06 0 0)
(9.698e-06 0 0)
(9.69795e-06 0 0)
(9.69789e-06 0 0)
(9.69782e-06 0 0)
(9.69774e-06 0 0)
(9.69766e-06 0 0)
(9.69758e-06 0 0)
(9.69749e-06 0 0)
(9.69739e-06 0 0)
(9.69729e-06 0 0)
(9.69718e-06 0 0)
(9.69707e-06 0 0)
(9.69695e-06 0 0)
(9.69682e-06 0 0)
)
;

boundaryField
{
    inlet
    {
        type            fixedValue;
        value           uniform (0 0 0);
    }
    outlet
    {
        type            zeroGradient;
    }
    emptyWalls
    {
        type            empty;
    }
}


// ************************************************************************* //
