/*--------------------------------*- C++ -*----------------------------------*\
  =========                 |
  \\      /  F ield         | OpenFOAM: The Open Source CFD Toolbox
   \\    /   O peration     | Website:  https://openfoam.org
    \\  /    A nd           | Version:  9
     \\/     M anipulation  |
\*---------------------------------------------------------------------------*/
FoamFile
{
    format      ascii;
    class       volScalarField;
    location    "5350";
    object      kra;
}
// * * * * * * * * * * * * * * * * * * * * * * * * * * * * * * * * * * * * * //

dimensions      [0 0 0 0 0 0 0];

internalField   nonuniform List<scalar> 
1000
(
0.000238575
0.000243997
0.000249187
0.000253796
0.000259127
0.000272038
0.000319081
0.000607166
0.000861619
0.000906799
0.000920716
0.000925957
0.000928578
0.000929
0.000928825
0.000927685
0.000926991
0.00092376
0.00091922
0.000912164
0.000903125
0.000892499
0.000881355
0.000870146
0.000859092
0.000848316
0.000837835
0.00082761
0.000817631
0.000807931
0.00079861
0.000789771
0.000781482
0.000773754
0.000766529
0.000759722
0.000753231
0.000746963
0.000740841
0.000734797
0.00072877
0.000722702
0.000716532
0.000710204
0.000703669
0.000696896
0.000689875
0.000682623
0.000675187
0.000667638
0.000660068
0.000652574
0.000645255
0.0006382
0.000631476
0.000625129
0.000619179
0.000613625
0.000608445
0.000603604
0.000599057
0.000594757
0.000590654
0.000586702
0.000582861
0.000579099
0.000575388
0.000571711
0.000568054
0.000564412
0.000560781
0.000557161
0.000553558
0.000549973
0.000546412
0.000542879
0.000539378
0.000535913
0.000532486
0.000529097
0.000525749
0.000522441
0.000519174
0.000515947
0.000512759
0.000509611
0.000506502
0.000503431
0.000500399
0.000497404
0.000494447
0.000491527
0.000488645
0.000485799
0.00048299
0.000480217
0.000477481
0.000474781
0.000472117
0.000469488
0.000466894
0.000464335
0.00046181
0.000459319
0.00045686
0.000454434
0.000452039
0.000449675
0.000447342
0.000445037
0.000442762
0.000440515
0.000438294
0.000436101
0.000433933
0.00043179
0.000429671
0.000427574
0.000425501
0.000423449
0.000421417
0.000419406
0.000417414
0.00041544
0.000413485
0.000411548
0.000409629
0.000407726
0.000405841
0.000403972
0.000402121
0.000400285
0.000398467
0.000396665
0.00039488
0.000393112
0.00039136
0.000389625
0.000387906
0.000386204
0.000384518
0.000382849
0.000381196
0.000379559
0.000377938
0.000376332
0.000374743
0.000373168
0.000371609
0.000370064
0.000368533
0.000367016
0.000365513
0.000364022
0.000362544
0.000361078
0.000359622
0.000358177
0.000356742
0.000355316
0.0003539
0.000352491
0.000351091
0.000349699
0.000348315
0.000346939
0.000345571
0.000344211
0.000342858
0.000341515
0.000340179
0.000338851
0.000337531
0.000336219
0.000334915
0.000333618
0.00033233
0.00033105
0.000329778
0.000328516
0.000327264
0.000326025
0.000324797
0.000323586
0.000322389
0.000321212
0.000320052
0.000318915
0.000317796
0.000316705
0.00031563
0.000314589
0.000313559
0.000312569
0.000311587
0.000310646
0.000309715
0.000308824
0.000307954
0.000307117
0.000306316
0.000305544
0.000304815
0.000304113
0.000303438
0.00030277
0.000302064
0.000301254
0.000300212
0.000298725
0.000296463
0.000292968
0.000287735
0.000280557
0.000272025
0.000263701
0.000257233
0.000253142
0.000250866
0.000249614
0.000248861
0.000248338
0.000247925
0.000247569
0.000247248
0.000246953
0.00024668
0.000246429
0.000246202
0.000245998
0.000245821
0.000245666
0.000245536
0.000245429
0.000245346
0.000245285
0.000245246
0.000245226
0.00024522
0.00024522
0.000245222
0.000245244
0.000245278
0.000245317
0.000245359
0.000245402
0.000245445
0.000245487
0.000245528
0.000245566
0.000245601
0.000245632
0.000245659
0.000245682
0.000245699
0.000245712
0.000245721
0.000245724
0.000245725
0.000245725
0.000245723
0.000245713
0.000245699
0.000245682
0.000245663
0.000245641
0.000245618
0.000245593
0.000245566
0.000245537
0.000245507
0.000245476
0.000245443
0.00024541
0.000245375
0.000245339
0.000245303
0.000245265
0.000245227
0.000245189
0.000245149
0.000245109
0.000245069
0.000245028
0.000244986
0.000244944
0.000244902
0.00024486
0.000244817
0.000244775
0.000244732
0.00024469
0.000244647
0.000244605
0.000244564
0.000244522
0.000244482
0.000244442
0.000244403
0.000244365
0.000244328
0.000244292
0.000244257
0.000244224
0.000244192
0.000244161
0.000244132
0.000244104
0.000244078
0.000244053
0.00024403
0.000244009
0.000243989
0.000243971
0.000243954
0.000243938
0.000243924
0.000243912
0.000243901
0.000243891
0.000243882
0.000243875
0.000243868
0.000243862
0.000243858
0.000243854
0.000243851
0.000243848
0.000243846
0.000243845
0.000243844
0.000243844
0.000243843
0.000243843
0.000243843
0.000243844
0.000243844
0.000243845
0.000243845
0.000243847
0.000243848
0.00024385
0.000243852
0.000243854
0.000243857
0.00024386
0.000243864
0.000243868
0.000243873
0.00024388
0.000243886
0.000243895
0.000243904
0.000243915
0.000243926
0.00024394
0.000243955
0.000243972
0.00024399
0.000244011
0.000244033
0.000244057
0.000244083
0.000244111
0.000244141
0.000244174
0.000244207
0.000244244
0.000244282
0.000244322
0.000244364
0.000244409
0.000244454
0.000244502
0.000244552
0.000244604
0.000244656
0.000244712
0.000244768
0.000244828
0.000244888
0.000244952
0.000245017
0.000245085
0.000245155
0.000245229
0.000245305
0.000245387
0.000245471
0.000245561
0.000245654
0.000245754
0.000245859
0.000245971
0.000246088
0.000246213
0.000246344
0.000246483
0.000246628
0.000246781
0.000246939
0.000247105
0.000247276
0.000247453
0.000247634
0.000247819
0.000248006
0.000248194
0.000248381
0.000248568
0.000248749
0.000248926
0.000249095
0.000249255
0.000249402
0.000249537
0.000249656
0.000249758
0.00024984
0.0002499
0.000249937
0.000249951
0.000249952
0.00024995
0.000249934
0.000249856
0.000249748
0.000249615
0.00024946
0.000249283
0.000249088
0.000248877
0.000248654
0.00024842
0.00024818
0.000247936
0.000247692
0.00024745
0.000247214
0.000246986
0.000246769
0.000246564
0.000246373
0.000246196
0.000246035
0.00024589
0.000245762
0.000245649
0.000245551
0.000245469
0.0002454
0.000245343
0.000245299
0.000245264
0.000245239
0.000245222
0.000245212
0.000245207
0.000245206
0.000245206
0.000245208
0.000245216
0.000245225
0.000245235
0.000245243
0.000245251
0.000245257
0.000245261
0.000245262
0.000245263
0.000245263
0.000245262
0.000245256
0.000245246
0.000245234
0.00024522
0.000245204
0.000245186
0.000245167
0.000245145
0.000245123
0.000245099
0.000245075
0.000245049
0.000245023
0.000244996
0.000244969
0.000244941
0.000244913
0.000244885
0.000244857
0.000244828
0.000244799
0.000244771
0.000244742
0.000244713
0.000244685
0.000244656
0.000244628
0.000244599
0.000244571
0.000244543
0.000244515
0.000244486
0.000244458
0.00024443
0.000244402
0.000244375
0.000244347
0.000244319
0.000244292
0.000244264
0.000244237
0.00024421
0.000244183
0.000244157
0.00024413
0.000244104
0.000244079
0.000244054
0.000244029
0.000244005
0.000243982
0.000243959
0.000243937
0.000243916
0.000243896
0.000243877
0.000243858
0.000243841
0.000243824
0.000243809
0.000243795
0.000243782
0.00024377
0.000243759
0.00024375
0.000243741
0.000243734
0.000243729
0.000243724
0.000243721
0.000243719
0.000243718
0.000243717
0.000243718
0.000243718
0.000243721
0.000243725
0.00024373
0.000243736
0.000243742
0.00024375
0.000243757
0.000243766
0.000243774
0.000243784
0.000243793
0.000243803
0.000243813
0.000243823
0.000243833
0.000243844
0.000243854
0.000243865
0.000243876
0.000243887
0.000243898
0.00024391
0.000243921
0.000243934
0.000243946
0.00024396
0.000243973
0.000243989
0.000244004
0.000244022
0.00024404
0.00024406
0.000244081
0.000244105
0.00024413
0.000244157
0.000244186
0.000244218
0.000244252
0.000244289
0.000244328
0.000244371
0.000244416
0.000244465
0.000244517
0.000244573
0.000244631
0.000244694
0.000244761
0.000244832
0.000244906
0.000244986
0.00024507
0.000245158
0.000245252
0.00024535
0.000245454
0.000245563
0.000245677
0.000245796
0.000245921
0.000246051
0.000246186
0.000246326
0.000246471
0.000246621
0.000246773
0.000246931
0.00024709
0.000247253
0.000247416
0.000247581
0.000247745
0.000247908
0.000248069
0.000248226
0.000248379
0.000248526
0.000248665
0.000248795
0.000248915
0.000249024
0.00024912
0.000249202
0.000249267
0.000249317
0.000249347
0.00024936
0.000249361
0.000249359
0.000249349
0.000249291
0.000249209
0.000249107
0.000248986
0.000248849
0.000248695
0.000248528
0.000248348
0.000248159
0.000247961
0.000247759
0.000247553
0.000247346
0.00024714
0.000246938
0.000246741
0.000246551
0.000246369
0.000246198
0.000246036
0.000245887
0.000245749
0.000245624
0.000245511
0.00024541
0.000245322
0.000245244
0.000245178
0.000245122
0.000245075
0.000245038
0.000245007
0.000244984
0.000244967
0.000244956
0.000244949
0.000244945
0.000244945
0.000244945
0.000244946
0.000244951
0.000244958
0.000244964
0.000244971
0.000244977
0.000244982
0.000244986
0.000244989
0.000244991
0.000244991
0.000244991
0.000244991
0.00024499
0.000244985
0.00024498
0.000244973
0.000244966
0.000244957
0.000244948
0.000244939
0.000244929
0.000244919
0.000244908
0.000244898
0.000244887
0.000244876
0.000244866
0.000244855
0.000244845
0.000244835
0.000244825
0.000244815
0.000244806
0.000244797
0.000244788
0.000244779
0.00024477
0.000244762
0.000244753
0.000244745
0.000244736
0.000244727
0.000244719
0.00024471
0.0002447
0.000244691
0.000244681
0.00024467
0.00024466
0.000244648
0.000244636
0.000244624
0.000244611
0.000244597
0.000244582
0.000244567
0.000244551
0.000244534
0.000244517
0.000244499
0.00024448
0.000244461
0.00024444
0.00024442
0.000244399
0.000244377
0.000244355
0.000244332
0.000244309
0.000244286
0.000244263
0.00024424
0.000244217
0.000244195
0.000244172
0.00024415
0.000244128
0.000244108
0.000244087
0.000244068
0.000244049
0.000244032
0.000244016
0.000244
0.000243986
0.000243974
0.000243963
0.000243953
0.000243945
0.000243939
0.000243934
0.000243931
0.00024393
0.000243929
0.000243929
0.00024393
0.000243934
0.000243941
0.000243949
0.00024396
0.000243971
0.000243984
0.000243998
0.000244014
0.00024403
0.000244049
0.000244068
0.000244088
0.000244109
0.000244132
0.000244155
0.000244179
0.000244203
0.000244229
0.000244255
0.000244282
0.00024431
0.000244339
0.000244368
0.000244398
0.000244429
0.000244462
0.000244495
0.00024453
0.000244566
0.000244605
0.000244644
0.000244687
0.000244731
0.000244779
0.000244829
0.000244882
0.000244939
0.000245
0.000245064
0.000245133
0.000245207
0.000245285
0.000245369
0.000245458
0.000245551
0.000245651
0.000245756
0.000245867
0.000245984
0.000246106
0.000246233
0.000246366
0.000246503
0.000246645
0.000246791
0.000246941
0.000247093
0.000247249
0.000247405
0.000247564
0.000247721
0.000247879
0.000248033
0.000248186
0.000248334
0.000248478
0.000248614
0.000248744
0.000248864
0.000248975
0.000249074
0.000249162
0.000249236
0.000249296
0.000249339
0.000249364
0.000249371
0.000249372
0.000249361
0.000249352
0.000249291
0.000249263
0.000249126
0.00024906
0.000248867
0.000248785
0.000248565
0.000248458
0.000248214
0.0002481
0.000247829
0.000247703
0.000247435
0.000247306
0.000247021
0.000246906
0.000246647
0.00024652
0.000246255
0.00024618
0.000245868
0.000245332
0.000238411
0.00021623
1.9208e-05
2.62134e-08
8.43719e-15
7.29783e-29
1.19588e-58
2.6841e-122
5.43376e-257
0
0
0
0
0
0
0
0
0
0
0
0
0
0
0
0
0
0
0
0
0
0
0
0
0
0
0
0
0
0
0
0
0
0
0
0
0
0
0
0
0
0
0
0
0
0
0
0
0
0
0
0
0
0
0
0
0
0
0
0
0
0
0
0
0
0
0
0
0
0
0
0
0
0
0
0
0
0
0
0
0
0
0
0
0
0
0
0
0
0
0
0
0
0
0
0
0
0
0
0
0
0
0
0
0
0
0
0
0
0
0
0
0
0
0
)
;

boundaryField
{
    inlet
    {
        type            calculated;
        value           uniform 0.000236304;
    }
    outlet
    {
        type            calculated;
        value           uniform 0;
    }
    emptyWalls
    {
        type            empty;
    }
}


// ************************************************************************* //
