/*--------------------------------*- C++ -*----------------------------------*\
  =========                 |
  \\      /  F ield         | OpenFOAM: The Open Source CFD Toolbox
   \\    /   O peration     | Website:  https://openfoam.org
    \\  /    A nd           | Version:  9
     \\/     M anipulation  |
\*---------------------------------------------------------------------------*/
FoamFile
{
    format      ascii;
    class       volScalarField;
    location    "5350";
    object      Sa;
}
// * * * * * * * * * * * * * * * * * * * * * * * * * * * * * * * * * * * * * //

dimensions      [0 0 0 0 0 0 0];

internalField   nonuniform List<scalar> 
1000
(
0.547551
0.541738
0.536305
0.531468
0.525751
0.513024
0.466243
0.237881
0.0865988
0.0568907
0.0455163
0.0392288
0.035215
0.0324667
0.0304863
0.0289247
0.0275806
0.0262322
0.0250683
0.0243134
0.0240417
0.0238998
0.0237501
0.0235986
0.0234482
0.0233007
0.0231563
0.0230146
0.0228754
0.0227393
0.0226078
0.0224824
0.0223641
0.0222533
0.0221491
0.0220505
0.0219561
0.0218645
0.0217747
0.0216856
0.0215965
0.0215064
0.0214143
0.0213195
0.0212212
0.0211188
0.0210122
0.0209015
0.0207873
0.0206709
0.0205534
0.0204364
0.0203216
0.0202102
0.0201035
0.0200022
0.0199068
0.0198173
0.0197335
0.0196548
0.0195806
0.0195102
0.0194427
0.0193776
0.019314
0.0192516
0.0191898
0.0191284
0.0190671
0.0190058
0.0189446
0.0188834
0.0188222
0.0187612
0.0187003
0.0186398
0.0185796
0.0185198
0.0184605
0.0184017
0.0183434
0.0182856
0.0182283
0.0181716
0.0181153
0.0180597
0.0180045
0.0179498
0.0178957
0.017842
0.0177889
0.0177363
0.0176842
0.0176327
0.0175816
0.0175311
0.0174811
0.0174316
0.0173826
0.0173341
0.0172862
0.0172388
0.0171918
0.0171454
0.0170994
0.017054
0.017009
0.0169644
0.0169204
0.0168767
0.0168335
0.0167908
0.0167484
0.0167064
0.0166648
0.0166236
0.0165828
0.0165423
0.0165021
0.0164623
0.0164228
0.0163835
0.0163446
0.0163059
0.0162675
0.0162293
0.0161914
0.0161538
0.0161164
0.0160793
0.0160424
0.0160057
0.0159693
0.0159332
0.0158973
0.0158616
0.0158263
0.0157911
0.0157563
0.0157217
0.0156873
0.0156532
0.0156194
0.0155858
0.0155525
0.0155194
0.0154866
0.015454
0.0154217
0.0153896
0.0153578
0.0153261
0.0152947
0.0152635
0.0152325
0.0152016
0.015171
0.0151405
0.0151101
0.0150799
0.0150498
0.0150198
0.0149899
0.0149602
0.0149306
0.014901
0.0148716
0.0148423
0.0148132
0.0147841
0.0147552
0.0147263
0.0146976
0.014669
0.0146406
0.0146122
0.0145839
0.0145558
0.0145278
0.0145
0.0144724
0.0144449
0.0144177
0.0143908
0.0143642
0.0143379
0.014312
0.0142866
0.0142615
0.014237
0.0142128
0.0141893
0.0141661
0.0141437
0.0141215
0.0141001
0.014079
0.0140587
0.0140389
0.0140198
0.0140015
0.0139838
0.0139671
0.013951
0.0139355
0.0139202
0.0139039
0.0138853
0.0138612
0.0138268
0.0137744
0.0136929
0.0135701
0.0133998
0.0131945
0.0129911
0.0128308
0.0127284
0.012671
0.0126393
0.0126202
0.012607
0.0125965
0.0125875
0.0125793
0.0125718
0.0125649
0.0125585
0.0125527
0.0125475
0.012543
0.012539
0.0125357
0.012533
0.0125309
0.0125293
0.0125283
0.0125278
0.0125276
0.0125276
0.0125277
0.0125282
0.0125291
0.0125301
0.0125312
0.0125322
0.0125333
0.0125344
0.0125355
0.0125364
0.0125373
0.0125381
0.0125388
0.0125394
0.0125398
0.0125402
0.0125404
0.0125405
0.0125405
0.0125405
0.0125404
0.0125402
0.0125398
0.0125394
0.0125389
0.0125384
0.0125378
0.0125371
0.0125364
0.0125357
0.0125349
0.0125341
0.0125333
0.0125324
0.0125316
0.0125306
0.0125297
0.0125288
0.0125278
0.0125268
0.0125258
0.0125248
0.0125237
0.0125227
0.0125216
0.0125206
0.0125195
0.0125184
0.0125173
0.0125162
0.0125151
0.012514
0.012513
0.0125119
0.0125108
0.0125098
0.0125087
0.0125077
0.0125067
0.0125057
0.0125048
0.0125039
0.012503
0.0125021
0.0125013
0.0125005
0.0124998
0.0124991
0.0124984
0.0124978
0.0124972
0.0124966
0.0124961
0.0124956
0.0124952
0.0124948
0.0124945
0.0124941
0.0124939
0.0124936
0.0124934
0.0124932
0.012493
0.0124929
0.0124928
0.0124927
0.0124926
0.0124925
0.0124925
0.0124924
0.0124924
0.0124924
0.0124924
0.0124924
0.0124924
0.0124924
0.0124924
0.0124924
0.0124924
0.0124925
0.0124925
0.0124926
0.0124926
0.0124927
0.0124927
0.0124928
0.0124929
0.012493
0.0124932
0.0124933
0.0124935
0.0124937
0.0124939
0.0124942
0.0124945
0.0124949
0.0124952
0.0124957
0.0124962
0.0124967
0.0124972
0.0124979
0.0124985
0.0124993
0.0125
0.0125009
0.0125017
0.0125027
0.0125036
0.0125047
0.0125057
0.0125069
0.012508
0.0125093
0.0125105
0.0125118
0.0125132
0.0125146
0.0125161
0.0125176
0.0125191
0.0125208
0.0125224
0.0125242
0.0125259
0.0125278
0.0125298
0.0125319
0.012534
0.0125363
0.0125387
0.0125413
0.0125439
0.0125468
0.0125498
0.012553
0.0125563
0.0125598
0.0125635
0.0125674
0.0125715
0.0125757
0.01258
0.0125845
0.0125891
0.0125938
0.0125986
0.0126033
0.0126081
0.0126128
0.0126174
0.0126219
0.0126262
0.0126302
0.012634
0.0126374
0.0126404
0.0126429
0.012645
0.0126465
0.0126475
0.0126479
0.0126479
0.0126478
0.0126473
0.0126454
0.0126427
0.0126393
0.0126354
0.0126309
0.012626
0.0126207
0.012615
0.0126091
0.012603
0.0125968
0.0125906
0.0125844
0.0125785
0.0125727
0.0125671
0.0125619
0.012557
0.0125525
0.0125484
0.0125447
0.0125415
0.0125386
0.0125361
0.012534
0.0125322
0.0125308
0.0125296
0.0125288
0.0125281
0.0125277
0.0125274
0.0125273
0.0125272
0.0125273
0.0125273
0.0125275
0.0125277
0.012528
0.0125282
0.0125284
0.0125285
0.0125286
0.0125287
0.0125287
0.0125287
0.0125287
0.0125285
0.0125283
0.012528
0.0125276
0.0125272
0.0125267
0.0125262
0.0125257
0.0125251
0.0125245
0.0125239
0.0125232
0.0125226
0.0125219
0.0125212
0.0125205
0.0125198
0.012519
0.0125183
0.0125176
0.0125169
0.0125161
0.0125154
0.0125147
0.0125139
0.0125132
0.0125125
0.0125117
0.012511
0.0125103
0.0125096
0.0125088
0.0125081
0.0125074
0.0125067
0.012506
0.0125053
0.0125046
0.0125039
0.0125032
0.0125025
0.0125018
0.0125011
0.0125004
0.0124997
0.0124991
0.0124984
0.0124978
0.0124972
0.0124965
0.0124959
0.0124954
0.0124948
0.0124943
0.0124937
0.0124932
0.0124928
0.0124923
0.0124919
0.0124915
0.0124911
0.0124908
0.0124905
0.0124902
0.01249
0.0124898
0.0124896
0.0124894
0.0124893
0.0124892
0.0124892
0.0124892
0.0124892
0.0124892
0.0124892
0.0124892
0.0124894
0.0124895
0.0124896
0.0124898
0.01249
0.0124902
0.0124904
0.0124906
0.0124909
0.0124911
0.0124914
0.0124916
0.0124919
0.0124921
0.0124924
0.0124927
0.0124929
0.0124932
0.0124935
0.0124938
0.0124941
0.0124944
0.0124947
0.012495
0.0124954
0.0124957
0.0124961
0.0124965
0.012497
0.0124974
0.0124979
0.0124985
0.0124991
0.0124997
0.0125004
0.0125012
0.012502
0.0125029
0.0125038
0.0125048
0.0125059
0.0125071
0.0125083
0.0125096
0.0125111
0.0125126
0.0125142
0.0125159
0.0125177
0.0125196
0.0125216
0.0125238
0.012526
0.0125284
0.0125309
0.0125336
0.0125364
0.0125393
0.0125423
0.0125455
0.0125488
0.0125523
0.0125558
0.0125595
0.0125633
0.0125672
0.0125712
0.0125753
0.0125794
0.0125836
0.0125878
0.0125919
0.0125961
0.0126002
0.0126042
0.012608
0.0126117
0.0126153
0.0126186
0.0126216
0.0126244
0.0126268
0.0126289
0.0126305
0.0126318
0.0126325
0.0126329
0.0126329
0.0126329
0.0126325
0.0126312
0.012629
0.0126265
0.0126234
0.0126199
0.012616
0.0126118
0.0126072
0.0126024
0.0125974
0.0125923
0.012587
0.0125818
0.0125766
0.0125714
0.0125664
0.0125616
0.0125569
0.0125526
0.0125485
0.0125446
0.0125411
0.0125379
0.0125351
0.0125325
0.0125302
0.0125282
0.0125265
0.0125251
0.0125239
0.012523
0.0125222
0.0125216
0.0125212
0.0125209
0.0125207
0.0125206
0.0125206
0.0125206
0.0125206
0.0125207
0.0125209
0.0125211
0.0125212
0.0125214
0.0125215
0.0125216
0.0125217
0.0125217
0.0125218
0.0125218
0.0125218
0.0125217
0.0125216
0.0125215
0.0125213
0.0125211
0.0125209
0.0125207
0.0125204
0.0125202
0.0125199
0.0125196
0.0125194
0.0125191
0.0125188
0.0125185
0.0125183
0.012518
0.0125178
0.0125175
0.0125173
0.012517
0.0125168
0.0125166
0.0125163
0.0125161
0.0125159
0.0125157
0.0125155
0.0125152
0.012515
0.0125148
0.0125146
0.0125143
0.0125141
0.0125138
0.0125136
0.0125133
0.012513
0.0125127
0.0125124
0.012512
0.0125117
0.0125113
0.0125109
0.0125105
0.0125101
0.0125096
0.0125092
0.0125087
0.0125082
0.0125077
0.0125071
0.0125066
0.012506
0.0125055
0.0125049
0.0125043
0.0125037
0.0125031
0.0125026
0.012502
0.0125014
0.0125008
0.0125002
0.0124997
0.0124992
0.0124986
0.0124981
0.0124977
0.0124972
0.0124968
0.0124964
0.0124961
0.0124957
0.0124955
0.0124952
0.012495
0.0124948
0.0124947
0.0124946
0.0124946
0.0124946
0.0124946
0.0124946
0.0124947
0.0124949
0.0124951
0.0124954
0.0124957
0.012496
0.0124963
0.0124968
0.0124972
0.0124977
0.0124981
0.0124987
0.0124992
0.0124998
0.0125004
0.012501
0.0125016
0.0125023
0.0125029
0.0125036
0.0125043
0.0125051
0.0125058
0.0125066
0.0125074
0.0125082
0.0125091
0.01251
0.0125109
0.0125119
0.0125129
0.012514
0.0125151
0.0125163
0.0125176
0.012519
0.0125204
0.012522
0.0125236
0.0125254
0.0125273
0.0125293
0.0125314
0.0125337
0.0125361
0.0125386
0.0125413
0.0125441
0.0125471
0.0125502
0.0125535
0.0125568
0.0125603
0.012564
0.0125677
0.0125715
0.0125754
0.0125793
0.0125833
0.0125873
0.0125913
0.0125953
0.0125993
0.0126031
0.0126069
0.0126105
0.012614
0.0126173
0.0126203
0.0126231
0.0126256
0.0126279
0.0126297
0.0126313
0.0126323
0.012633
0.0126332
0.0126332
0.0126329
0.0126326
0.0126311
0.0126303
0.012627
0.0126253
0.0126204
0.0126183
0.0126127
0.01261
0.0126038
0.0126009
0.0125941
0.0125909
0.012584
0.0125808
0.0125735
0.0125706
0.012564
0.0125608
0.012554
0.0125519
0.0125412
0.0125212
0.0122181
0.0113557
0.00402327
0.000167565
1.48849e-07
3.99022e-14
3.35804e-28
5.50054e-58
1.23457e-121
2.4993e-256
0
0
0
0
0
0
0
0
0
0
0
0
0
0
0
0
0
0
0
0
0
0
0
0
0
0
0
0
0
0
0
0
0
0
0
0
0
0
0
0
0
0
0
0
0
0
0
0
0
0
0
0
0
0
0
0
0
0
0
0
0
0
0
0
0
0
0
0
0
0
0
0
0
0
0
0
0
0
0
0
0
0
0
0
0
0
0
0
0
0
0
0
0
0
0
0
0
0
0
0
0
0
0
0
0
0
0
0
0
0
0
0
0
0
)
;

boundaryField
{
    inlet
    {
        type            fixedValue;
        value           uniform 0.55;
    }
    outlet
    {
        type            zeroGradient;
    }
    emptyWalls
    {
        type            empty;
    }
}


// ************************************************************************* //
