/*--------------------------------*- C++ -*----------------------------------*\
  =========                 |
  \\      /  F ield         | OpenFOAM: The Open Source CFD Toolbox
   \\    /   O peration     | Website:  https://openfoam.org
    \\  /    A nd           | Version:  9
     \\/     M anipulation  |
\*---------------------------------------------------------------------------*/
FoamFile
{
    format      ascii;
    class       surfaceScalarField;
    location    "3450";
    object      phia;
}
// * * * * * * * * * * * * * * * * * * * * * * * * * * * * * * * * * * * * * //

dimensions      [0 2 0 0 0 0 0];

internalField   nonuniform List<scalar> 
999
(
2.74998e-10
2.7411e-10
2.72225e-10
2.6484e-10
2.24215e-10
2.12946e-10
2.09601e-10
2.07947e-10
2.06906e-10
2.06145e-10
2.05468e-10
2.0473e-10
2.04497e-10
2.04382e-10
2.0425e-10
2.04111e-10
2.03968e-10
2.03824e-10
2.03681e-10
2.03538e-10
2.03397e-10
2.03258e-10
2.03119e-10
2.02983e-10
2.02849e-10
2.02717e-10
2.02589e-10
2.02463e-10
2.02342e-10
2.02223e-10
2.02108e-10
2.01996e-10
2.01885e-10
2.01776e-10
2.01669e-10
2.01564e-10
2.0146e-10
2.01357e-10
2.01256e-10
2.01155e-10
2.01054e-10
2.00953e-10
2.00852e-10
2.0075e-10
2.00647e-10
2.00543e-10
2.00438e-10
2.00331e-10
2.0022e-10
2.00107e-10
1.99989e-10
1.99868e-10
1.99744e-10
1.99618e-10
1.99491e-10
1.99365e-10
1.99241e-10
1.99121e-10
1.99005e-10
1.98895e-10
1.98791e-10
1.98694e-10
1.98605e-10
1.98524e-10
1.98452e-10
1.98389e-10
1.98333e-10
1.98283e-10
1.98237e-10
1.98193e-10
1.98149e-10
1.98103e-10
1.98053e-10
1.98e-10
1.97945e-10
1.9789e-10
1.97838e-10
1.97794e-10
1.9776e-10
1.97743e-10
1.97744e-10
1.97767e-10
1.97813e-10
1.97884e-10
1.97979e-10
1.98096e-10
1.98231e-10
1.98382e-10
1.98543e-10
1.98711e-10
1.98878e-10
1.99039e-10
1.99188e-10
1.99317e-10
1.9942e-10
1.9949e-10
1.99519e-10
1.99501e-10
1.99429e-10
1.99299e-10
1.99105e-10
1.98846e-10
1.98521e-10
1.98133e-10
1.97688e-10
1.97192e-10
1.96656e-10
1.96092e-10
1.95511e-10
1.94927e-10
1.94354e-10
1.93802e-10
1.93282e-10
1.92801e-10
1.92366e-10
1.9198e-10
1.91644e-10
1.91357e-10
1.91116e-10
1.90917e-10
1.90756e-10
1.90627e-10
1.90525e-10
1.90444e-10
1.90379e-10
1.90325e-10
1.90278e-10
1.90234e-10
1.90191e-10
1.90144e-10
1.90087e-10
1.90011e-10
1.89898e-10
1.89721e-10
1.8944e-10
1.89008e-10
1.88396e-10
1.87644e-10
1.86892e-10
1.86303e-10
1.85937e-10
1.85742e-10
1.85643e-10
1.85588e-10
1.85554e-10
1.85529e-10
1.85507e-10
1.85488e-10
1.85469e-10
1.85451e-10
1.85434e-10
1.85418e-10
1.85402e-10
1.85387e-10
1.85372e-10
1.85359e-10
1.85346e-10
1.85334e-10
1.85322e-10
1.85311e-10
1.85301e-10
1.85292e-10
1.85283e-10
1.85275e-10
1.85268e-10
1.85261e-10
1.85255e-10
1.85249e-10
1.85244e-10
1.8524e-10
1.85236e-10
1.85232e-10
1.85229e-10
1.85227e-10
1.85224e-10
1.85223e-10
1.85221e-10
1.85219e-10
1.85218e-10
1.85216e-10
1.85214e-10
1.85213e-10
1.8521e-10
1.85208e-10
1.85205e-10
1.85202e-10
1.85198e-10
1.85193e-10
1.85188e-10
1.85182e-10
1.85175e-10
1.85167e-10
1.85158e-10
1.85149e-10
1.85138e-10
1.85127e-10
1.85115e-10
1.85101e-10
1.85087e-10
1.85071e-10
1.85055e-10
1.85038e-10
1.8502e-10
1.85001e-10
1.84982e-10
1.84962e-10
1.84941e-10
1.8492e-10
1.84899e-10
1.84877e-10
1.84856e-10
1.84834e-10
1.84812e-10
1.84791e-10
1.8477e-10
1.8475e-10
1.8473e-10
1.84711e-10
1.84692e-10
1.84675e-10
1.84658e-10
1.84643e-10
1.84629e-10
1.84616e-10
1.84605e-10
1.84596e-10
1.84588e-10
1.84582e-10
1.84578e-10
1.84575e-10
1.84574e-10
1.84574e-10
1.84575e-10
1.84578e-10
1.84585e-10
1.84594e-10
1.84604e-10
1.84616e-10
1.8463e-10
1.84645e-10
1.84661e-10
1.84679e-10
1.84698e-10
1.84717e-10
1.84738e-10
1.84759e-10
1.8478e-10
1.84802e-10
1.84824e-10
1.84847e-10
1.84869e-10
1.84892e-10
1.84914e-10
1.84936e-10
1.84957e-10
1.84978e-10
1.84999e-10
1.8502e-10
1.85039e-10
1.85059e-10
1.85078e-10
1.85096e-10
1.85114e-10
1.85131e-10
1.85148e-10
1.85164e-10
1.8518e-10
1.85196e-10
1.85213e-10
1.85229e-10
1.85247e-10
1.85266e-10
1.85287e-10
1.8531e-10
1.85337e-10
1.85367e-10
1.85402e-10
1.85442e-10
1.85489e-10
1.85543e-10
1.85605e-10
1.85676e-10
1.85757e-10
1.85848e-10
1.85949e-10
1.86062e-10
1.86185e-10
1.86321e-10
1.86467e-10
1.86624e-10
1.86792e-10
1.86969e-10
1.87155e-10
1.87349e-10
1.87549e-10
1.87753e-10
1.87961e-10
1.88169e-10
1.88376e-10
1.88579e-10
1.88776e-10
1.88963e-10
1.89138e-10
1.89298e-10
1.89441e-10
1.89562e-10
1.89658e-10
1.89726e-10
1.89764e-10
1.89777e-10
1.89778e-10
1.89775e-10
1.89739e-10
1.89603e-10
1.89446e-10
1.89254e-10
1.89033e-10
1.88784e-10
1.88512e-10
1.88223e-10
1.87922e-10
1.87613e-10
1.87303e-10
1.86996e-10
1.86699e-10
1.86415e-10
1.86148e-10
1.85902e-10
1.85678e-10
1.85479e-10
1.85305e-10
1.85157e-10
1.85033e-10
1.84933e-10
1.84856e-10
1.84801e-10
1.84764e-10
1.84745e-10
1.84738e-10
1.84738e-10
1.84739e-10
1.84763e-10
1.84802e-10
1.84845e-10
1.84891e-10
1.84939e-10
1.84987e-10
1.85034e-10
1.85079e-10
1.85122e-10
1.85161e-10
1.85197e-10
1.85229e-10
1.85257e-10
1.8528e-10
1.853e-10
1.85316e-10
1.85328e-10
1.85337e-10
1.85341e-10
1.85343e-10
1.85344e-10
1.85343e-10
1.85341e-10
1.85332e-10
1.85321e-10
1.85309e-10
1.85295e-10
1.85279e-10
1.85263e-10
1.85246e-10
1.85228e-10
1.85209e-10
1.8519e-10
1.8517e-10
1.8515e-10
1.8513e-10
1.8511e-10
1.85089e-10
1.85069e-10
1.85048e-10
1.85028e-10
1.85008e-10
1.84988e-10
1.84968e-10
1.84949e-10
1.8493e-10
1.84911e-10
1.84893e-10
1.84876e-10
1.84859e-10
1.84842e-10
1.84827e-10
1.84811e-10
1.84797e-10
1.84783e-10
1.8477e-10
1.84758e-10
1.84746e-10
1.84736e-10
1.84726e-10
1.84718e-10
1.8471e-10
1.84704e-10
1.84699e-10
1.84695e-10
1.84693e-10
1.84692e-10
1.84691e-10
1.84691e-10
1.84692e-10
1.84695e-10
1.847e-10
1.84707e-10
1.84715e-10
1.84724e-10
1.84734e-10
1.84745e-10
1.84758e-10
1.84771e-10
1.84784e-10
1.84799e-10
1.84814e-10
1.84829e-10
1.84844e-10
1.8486e-10
1.84875e-10
1.8489e-10
1.84905e-10
1.84919e-10
1.84933e-10
1.84946e-10
1.84958e-10
1.84969e-10
1.84979e-10
1.84987e-10
1.84995e-10
1.85001e-10
1.85006e-10
1.85009e-10
1.85011e-10
1.85011e-10
1.85011e-10
1.85011e-10
1.85009e-10
1.85003e-10
1.84997e-10
1.84989e-10
1.84981e-10
1.84971e-10
1.84961e-10
1.8495e-10
1.84939e-10
1.84927e-10
1.84915e-10
1.84904e-10
1.84892e-10
1.84881e-10
1.84871e-10
1.84861e-10
1.84852e-10
1.84844e-10
1.84838e-10
1.84832e-10
1.84828e-10
1.84826e-10
1.84825e-10
1.84824e-10
1.84824e-10
1.84826e-10
1.84831e-10
1.84839e-10
1.84849e-10
1.84861e-10
1.84875e-10
1.84892e-10
1.84911e-10
1.84934e-10
1.84959e-10
1.84988e-10
1.8502e-10
1.85055e-10
1.85095e-10
1.85139e-10
1.85188e-10
1.85241e-10
1.853e-10
1.85364e-10
1.85434e-10
1.8551e-10
1.85592e-10
1.85681e-10
1.85776e-10
1.85877e-10
1.85985e-10
1.861e-10
1.86221e-10
1.86348e-10
1.86481e-10
1.86618e-10
1.86761e-10
1.86907e-10
1.87056e-10
1.87207e-10
1.87359e-10
1.87511e-10
1.8766e-10
1.87806e-10
1.87946e-10
1.88079e-10
1.88203e-10
1.88315e-10
1.88413e-10
1.88495e-10
1.88558e-10
1.88598e-10
1.88616e-10
1.88621e-10
1.88621e-10
1.88606e-10
1.88533e-10
1.88417e-10
1.88268e-10
1.88088e-10
1.87877e-10
1.87638e-10
1.87373e-10
1.87085e-10
1.86778e-10
1.86457e-10
1.86127e-10
1.85792e-10
1.85457e-10
1.85128e-10
1.84808e-10
1.84503e-10
1.84215e-10
1.83947e-10
1.83703e-10
1.83483e-10
1.83288e-10
1.8312e-10
1.82978e-10
1.82861e-10
1.82768e-10
1.82699e-10
1.82652e-10
1.82624e-10
1.82613e-10
1.82611e-10
1.82611e-10
1.82631e-10
1.82675e-10
1.82729e-10
1.82792e-10
1.82858e-10
1.82924e-10
1.82997e-10
1.83071e-10
1.83137e-10
1.83204e-10
1.8328e-10
1.83342e-10
1.83391e-10
1.83459e-10
1.83524e-10
1.83544e-10
1.83546e-10
1.83095e-10
1.81337e-10
1.69877e-10
5.04931e-11
1.1247e-12
8.75543e-17
8.00349e-26
2.25663e-45
1.21387e-86
2.57849e-175
0
0
0
0
0
0
0
0
0
0
0
0
0
0
0
0
0
0
0
0
0
0
0
0
0
0
0
0
0
0
0
0
0
0
0
0
0
0
0
0
0
0
0
0
0
0
0
0
0
0
0
0
0
0
0
0
0
0
0
0
0
0
0
0
0
0
0
0
0
0
0
0
0
0
0
0
0
0
0
0
0
0
0
0
0
0
0
0
0
0
0
0
0
0
0
0
0
0
0
0
0
0
0
0
0
0
0
0
0
0
0
0
0
0
0
0
0
0
0
0
0
0
0
0
0
0
0
0
0
0
0
0
0
0
0
0
0
0
0
0
0
0
0
0
0
0
0
0
0
0
0
0
0
0
0
0
0
0
0
0
0
0
0
0
0
0
0
0
0
0
0
0
0
0
0
0
0
0
0
0
0
0
0
0
0
0
0
0
0
0
0
0
0
0
0
0
0
0
0
0
0
0
0
0
0
0
0
0
0
0
0
0
0
0
0
0
0
0
0
0
0
0
0
0
0
0
0
0
0
0
0
0
0
0
0
0
0
0
0
0
0
0
0
0
0
0
0
0
0
0
0
0
0
0
0
0
0
0
0
0
0
0
0
0
0
0
0
0
0
0
0
0
0
0
0
0
0
0
0
0
0
0
0
0
0
0
0
0
0
0
0
0
0
0
0
0
0
0
0
0
0
0
0
0
0
0
0
0
0
0
0
0
0
0
0
0
0
0
0
0
0
0
0
0
0
0
0
0
0
0
0
0
0
0
0
0
0
0
0
0
0
0
0
0
0
0
0
0
0
0
0
0
0
0
0
0
0
0
0
0
0
0
0
0
0
0
0
0
0
0
0
0
0
0
0
0
0
0
0
0
0
0
0
0
0
0
0
0
0
0
0
0
0
0
0
0
0
0
0
0
0
0
0
0
0
0
0
0
0
0
0
0
0
0
0
0
0
0
0
0
0
)
;

boundaryField
{
    inlet
    {
        type            calculated;
        value           uniform -2.74882e-10;
    }
    outlet
    {
        type            calculated;
        value           uniform 0;
    }
    emptyWalls
    {
        type            empty;
        value           nonuniform List<scalar> 0();
    }
}


// ************************************************************************* //
