/*--------------------------------*- C++ -*----------------------------------*\
  =========                 |
  \\      /  F ield         | OpenFOAM: The Open Source CFD Toolbox
   \\    /   O peration     | Website:  https://openfoam.org
    \\  /    A nd           | Version:  9
     \\/     M anipulation  |
\*---------------------------------------------------------------------------*/
FoamFile
{
    format      ascii;
    class       volScalarField;
    location    "600";
    object      Fa;
}
// * * * * * * * * * * * * * * * * * * * * * * * * * * * * * * * * * * * * * //

dimensions      [0 0 0 0 0 0 0];

internalField   nonuniform List<scalar> 
100
(
0.696928
0.693549
0.689492
0.684613
0.678754
0.672876
0.666389
0.659469
0.651977
0.643885
0.635073
0.625385
0.614566
0.602212
0.587628
0.569528
0.545256
0.508535
0.441848
0.29511
0.0694078
0.00208419
4.4991e-07
3.98588e-15
7.35504e-32
7.3883e-33
1.49785e-33
1.52173e-33
1.39147e-33
1.69437e-33
1.39137e-33
1.51755e-33
1.51755e-33
1.47488e-33
1.39137e-33
1.47488e-33
1.51755e-33
1.39137e-33
1.39137e-33
1.47488e-33
1.51755e-33
1.51755e-33
1.51755e-33
1.51755e-33
1.51755e-33
1.39137e-33
1.51755e-33
1.51755e-33
1.39137e-33
1.51755e-33
1.47488e-33
1.39137e-33
1.39137e-33
1.51755e-33
1.39137e-33
1.47488e-33
1.39137e-33
1.39137e-33
1.47488e-33
1.51755e-33
1.47488e-33
1.51755e-33
1.47488e-33
1.39137e-33
1.39137e-33
1.64924e-33
1.51755e-33
1.60473e-33
1.39137e-33
1.39137e-33
1.51755e-33
1.60473e-33
1.51755e-33
1.64924e-33
1.60473e-33
1.64924e-33
1.51755e-33
1.51755e-33
1.51755e-33
1.60473e-33
1.39137e-33
1.64924e-33
1.51755e-33
1.51755e-33
1.60473e-33
1.35053e-33
1.64924e-33
1.51755e-33
1.60473e-33
1.64924e-33
1.60473e-33
1.64924e-33
1.51755e-33
1.60473e-33
1.64924e-33
1.39137e-33
1.60473e-33
1.64924e-33
1.60473e-33
1.64924e-33
)
;

boundaryField
{
    inlet
    {
        type            calculated;
        value           uniform 0.375358;
    }
    outlet
    {
        type            calculated;
        value           uniform 5.9205e-34;
    }
    emptyWalls
    {
        type            empty;
    }
}


// ************************************************************************* //
