/*--------------------------------*- C++ -*----------------------------------*\
  =========                 |
  \\      /  F ield         | OpenFOAM: The Open Source CFD Toolbox
   \\    /   O peration     | Website:  https://openfoam.org
    \\  /    A nd           | Version:  9
     \\/     M anipulation  |
\*---------------------------------------------------------------------------*/
FoamFile
{
    format      ascii;
    class       volScalarField;
    location    "600";
    object      kra;
}
// * * * * * * * * * * * * * * * * * * * * * * * * * * * * * * * * * * * * * //

dimensions      [0 0 0 0 0 0 0];

internalField   nonuniform List<scalar> 
100
(
3.7794e-05
2.69223e-05
2.87877e-05
2.70946e-05
2.77733e-05
2.77565e-05
2.79773e-05
2.80533e-05
2.81502e-05
2.82023e-05
2.82384e-05
2.82461e-05
2.82278e-05
2.81763e-05
2.80825e-05
2.79258e-05
2.76598e-05
2.71577e-05
2.59687e-05
2.19806e-05
9.17449e-06
4.47849e-07
1.04343e-10
9.29209e-19
1.81535e-35
3.37791e-36
1.15193e-36
1.21387e-36
1.11104e-36
1.35292e-36
1.11099e-36
1.21174e-36
1.21174e-36
1.17767e-36
1.11099e-36
1.17767e-36
1.21174e-36
1.11099e-36
1.11099e-36
1.17767e-36
1.21174e-36
1.21174e-36
1.21174e-36
1.21174e-36
1.21174e-36
1.11099e-36
1.21174e-36
1.21174e-36
1.11099e-36
1.21174e-36
1.17767e-36
1.11099e-36
1.11099e-36
1.21174e-36
1.11099e-36
1.17767e-36
1.11099e-36
1.11099e-36
1.17767e-36
1.21174e-36
1.17767e-36
1.21174e-36
1.17767e-36
1.11099e-36
1.11099e-36
1.31689e-36
1.21174e-36
1.28135e-36
1.11099e-36
1.11099e-36
1.21174e-36
1.28135e-36
1.21174e-36
1.31689e-36
1.28135e-36
1.31689e-36
1.21174e-36
1.21174e-36
1.21174e-36
1.28135e-36
1.11099e-36
1.31689e-36
1.21174e-36
1.21174e-36
1.28135e-36
1.07838e-36
1.31689e-36
1.21174e-36
1.28135e-36
1.31689e-36
1.28135e-36
1.31689e-36
1.21174e-36
1.28135e-36
1.31689e-36
1.11099e-36
1.28135e-36
1.31689e-36
1.28135e-36
1.31689e-36
)
;

boundaryField
{
    inlet
    {
        type            calculated;
        value           uniform 9.87629e-06;
    }
    outlet
    {
        type            calculated;
        value           uniform 4.72742e-37;
    }
    emptyWalls
    {
        type            empty;
    }
}


// ************************************************************************* //
