/*--------------------------------*- C++ -*----------------------------------*\
  =========                 |
  \\      /  F ield         | OpenFOAM: The Open Source CFD Toolbox
   \\    /   O peration     | Website:  https://openfoam.org
    \\  /    A nd           | Version:  9
     \\/     M anipulation  |
\*---------------------------------------------------------------------------*/
FoamFile
{
    format      ascii;
    class       surfaceScalarField;
    location    "600";
    object      phia;
}
// * * * * * * * * * * * * * * * * * * * * * * * * * * * * * * * * * * * * * //

dimensions      [0 2 0 0 0 0 0];

internalField   nonuniform List<scalar> 
99
(
1.41503e-08
1.40816e-08
1.39993e-08
1.39002e-08
1.37812e-08
1.36619e-08
1.35302e-08
1.33897e-08
1.32376e-08
1.30733e-08
1.28944e-08
1.26976e-08
1.2478e-08
1.22272e-08
1.19311e-08
1.15635e-08
1.10707e-08
1.03252e-08
8.97117e-09
5.99183e-09
1.40924e-09
4.23169e-11
9.13485e-15
8.09284e-23
1.49335e-39
1.5001e-40
3.0412e-41
3.08969e-41
2.8252e-41
3.44019e-41
2.825e-41
3.0812e-41
3.0812e-41
2.99456e-41
2.825e-41
2.99456e-41
3.0812e-41
2.825e-41
2.825e-41
2.99456e-41
3.0812e-41
3.0812e-41
3.0812e-41
3.0812e-41
3.0812e-41
2.825e-41
3.0812e-41
3.0812e-41
2.825e-41
3.0812e-41
2.99456e-41
2.825e-41
2.825e-41
3.0812e-41
2.825e-41
2.99456e-41
2.825e-41
2.825e-41
2.99456e-41
3.0812e-41
2.99456e-41
3.0812e-41
2.99456e-41
2.825e-41
2.825e-41
3.34858e-41
3.0812e-41
3.25821e-41
2.825e-41
2.825e-41
3.0812e-41
3.25821e-41
3.0812e-41
3.34858e-41
3.25821e-41
3.34858e-41
3.0812e-41
3.0812e-41
3.0812e-41
3.25821e-41
2.825e-41
3.34858e-41
3.0812e-41
3.0812e-41
3.25821e-41
2.74209e-41
3.34858e-41
3.0812e-41
3.25821e-41
3.34858e-41
3.25821e-41
3.34858e-41
3.0812e-41
3.25821e-41
3.34858e-41
2.825e-41
3.25821e-41
3.34858e-41
3.25821e-41
)
;

boundaryField
{
    inlet
    {
        type            calculated;
        value           uniform -1.42126e-08;
    }
    outlet
    {
        type            calculated;
        value           uniform 1.20208e-41;
    }
    emptyWalls
    {
        type            empty;
        value           nonuniform List<scalar> 0();
    }
}


// ************************************************************************* //
