/*--------------------------------*- C++ -*----------------------------------*\
  =========                 |
  \\      /  F ield         | OpenFOAM: The Open Source CFD Toolbox
   \\    /   O peration     | Website:  https://openfoam.org
    \\  /    A nd           | Version:  9
     \\/     M anipulation  |
\*---------------------------------------------------------------------------*/
FoamFile
{
    format      ascii;
    class       volVectorField;
    location    "600";
    object      Ua;
}
// * * * * * * * * * * * * * * * * * * * * * * * * * * * * * * * * * * * * * //

dimensions      [0 0 0 0 0 0 0];

internalField   nonuniform List<vector> 
100
(
(0 0 8.66257e-06)
(0 0 1.12331e-05)
(0 0 1.1173e-05)
(0 0 1.11008e-05)
(0 0 1.10141e-05)
(0 0 1.09193e-05)
(0 0 1.08194e-05)
(0 0 1.07111e-05)
(0 0 1.05946e-05)
(0 0 1.04688e-05)
(0 0 1.03322e-05)
(0 0 1.01827e-05)
(0 0 1.00171e-05)
(0 0 9.82986e-06)
(0 0 9.61224e-06)
(0 0 9.3482e-06)
(0 0 9.0059e-06)
(0 0 8.51315e-06)
(0 0 7.67776e-06)
(0 0 5.95359e-06)
(0 0 2.94479e-06)
(0 0 5.77555e-07)
(0 0 1.6841e-08)
(0 0 3.63464e-12)
(0 0 3.22004e-20)
(0 0 6.53871e-37)
(0 0 7.17876e-38)
(0 0 2.4394e-38)
(0 0 2.35346e-38)
(0 0 2.49292e-38)
(0 0 2.49284e-38)
(0 0 2.35e-38)
(0 0 2.45194e-38)
(0 0 2.41747e-38)
(0 0 2.31553e-38)
(0 0 2.31553e-38)
(0 0 2.41747e-38)
(0 0 2.35e-38)
(0 0 2.24807e-38)
(0 0 2.31553e-38)
(0 0 2.41747e-38)
(0 0 2.45194e-38)
(0 0 2.45194e-38)
(0 0 2.45194e-38)
(0 0 2.45194e-38)
(0 0 2.35e-38)
(0 0 2.35e-38)
(0 0 2.45194e-38)
(0 0 2.35e-38)
(0 0 2.35e-38)
(0 0 2.41747e-38)
(0 0 2.31553e-38)
(0 0 2.24807e-38)
(0 0 2.35e-38)
(0 0 2.35e-38)
(0 0 2.31553e-38)
(0 0 2.31553e-38)
(0 0 2.24807e-38)
(0 0 2.31553e-38)
(0 0 2.41747e-38)
(0 0 2.41747e-38)
(0 0 2.41747e-38)
(0 0 2.41747e-38)
(0 0 2.31553e-38)
(0 0 2.24807e-38)
(0 0 2.45639e-38)
(0 0 2.55833e-38)
(0 0 2.52237e-38)
(0 0 2.42043e-38)
(0 0 2.24807e-38)
(0 0 2.35e-38)
(0 0 2.52237e-38)
(0 0 2.52237e-38)
(0 0 2.55833e-38)
(0 0 2.62876e-38)
(0 0 2.62876e-38)
(0 0 2.55833e-38)
(0 0 2.45194e-38)
(0 0 2.45194e-38)
(0 0 2.52237e-38)
(0 0 2.42043e-38)
(0 0 2.45639e-38)
(0 0 2.55833e-38)
(0 0 2.45194e-38)
(0 0 2.52237e-38)
(0 0 2.38744e-38)
(0 0 2.4234e-38)
(0 0 2.55833e-38)
(0 0 2.52237e-38)
(0 0 2.62876e-38)
(0 0 2.62876e-38)
(0 0 2.62876e-38)
(0 0 2.55833e-38)
(0 0 2.52237e-38)
(0 0 2.62876e-38)
(0 0 2.45639e-38)
(0 0 2.42043e-38)
(0 0 2.62876e-38)
(0 0 2.62876e-38)
(0 0 1.77469e-38)
)
;

boundaryField
{
    inlet
    {
        type            fixedValue;
        value           uniform (0 0 1.131e-05);
    }
    outlet
    {
        type            zeroGradient;
    }
    emptyWalls
    {
        type            empty;
    }
}


// ************************************************************************* //
