/*--------------------------------*- C++ -*----------------------------------*\
  =========                 |
  \\      /  F ield         | OpenFOAM: The Open Source CFD Toolbox
   \\    /   O peration     | Website:  https://openfoam.org
    \\  /    A nd           | Version:  9
     \\/     M anipulation  |
\*---------------------------------------------------------------------------*/
FoamFile
{
    format      ascii;
    class       surfaceScalarField;
    location    "7850";
    object      phia;
}
// * * * * * * * * * * * * * * * * * * * * * * * * * * * * * * * * * * * * * //

dimensions      [0 2 0 0 0 0 0];

internalField   nonuniform List<scalar> 
999
(
2.74759e-10
2.7481e-10
2.74632e-10
2.74485e-10
2.74365e-10
2.74098e-10
2.73998e-10
2.73562e-10
2.72389e-10
2.67948e-10
2.43084e-10
2.16592e-10
2.1161e-10
2.10131e-10
2.09546e-10
2.09146e-10
2.08747e-10
2.08345e-10
2.07926e-10
2.07559e-10
2.07203e-10
2.06878e-10
2.06566e-10
2.06278e-10
2.05987e-10
2.05714e-10
2.05459e-10
2.05231e-10
2.05048e-10
2.04936e-10
2.04863e-10
2.04788e-10
2.0471e-10
2.04632e-10
2.04552e-10
2.04472e-10
2.04391e-10
2.0431e-10
2.04229e-10
2.0415e-10
2.04071e-10
2.03995e-10
2.03919e-10
2.03846e-10
2.03774e-10
2.03704e-10
2.03636e-10
2.03571e-10
2.03508e-10
2.03448e-10
2.03391e-10
2.03337e-10
2.03286e-10
2.03237e-10
2.03191e-10
2.03146e-10
2.03103e-10
2.03061e-10
2.03019e-10
2.02977e-10
2.02935e-10
2.02892e-10
2.02849e-10
2.02806e-10
2.02762e-10
2.02719e-10
2.02676e-10
2.02633e-10
2.0259e-10
2.02549e-10
2.02508e-10
2.02467e-10
2.02428e-10
2.0239e-10
2.02353e-10
2.02316e-10
2.02281e-10
2.02246e-10
2.02212e-10
2.02178e-10
2.02146e-10
2.02113e-10
2.02081e-10
2.02048e-10
2.02015e-10
2.0198e-10
2.01946e-10
2.01912e-10
2.0188e-10
2.0185e-10
2.01824e-10
2.01802e-10
2.01784e-10
2.01769e-10
2.01757e-10
2.01747e-10
2.01739e-10
2.01733e-10
2.01732e-10
2.01738e-10
2.01752e-10
2.0178e-10
2.01822e-10
2.01883e-10
2.01964e-10
2.02066e-10
2.02188e-10
2.0233e-10
2.02491e-10
2.02666e-10
2.02853e-10
2.03048e-10
2.03244e-10
2.03437e-10
2.0362e-10
2.03787e-10
2.0393e-10
2.04042e-10
2.04117e-10
2.0415e-10
2.04134e-10
2.04068e-10
2.0395e-10
2.03781e-10
2.03563e-10
2.03303e-10
2.03008e-10
2.02685e-10
2.02345e-10
2.01997e-10
2.01651e-10
2.01314e-10
2.00996e-10
2.00701e-10
2.00434e-10
2.00197e-10
1.99993e-10
1.99819e-10
1.99675e-10
1.99559e-10
1.99466e-10
1.99394e-10
1.99339e-10
1.99297e-10
1.99265e-10
1.99238e-10
1.99215e-10
1.99193e-10
1.99169e-10
1.99142e-10
1.99111e-10
1.99075e-10
1.99034e-10
1.98988e-10
1.98936e-10
1.98879e-10
1.98817e-10
1.98751e-10
1.98681e-10
1.98608e-10
1.98533e-10
1.98455e-10
1.98376e-10
1.98295e-10
1.98214e-10
1.98132e-10
1.98049e-10
1.97967e-10
1.97884e-10
1.97801e-10
1.97718e-10
1.97635e-10
1.97553e-10
1.9747e-10
1.97388e-10
1.97306e-10
1.97224e-10
1.97143e-10
1.97061e-10
1.9698e-10
1.96898e-10
1.96817e-10
1.96736e-10
1.96655e-10
1.96574e-10
1.96494e-10
1.96414e-10
1.96334e-10
1.96254e-10
1.96175e-10
1.96097e-10
1.96019e-10
1.95941e-10
1.95865e-10
1.95789e-10
1.95714e-10
1.9564e-10
1.95567e-10
1.95495e-10
1.95424e-10
1.95355e-10
1.95286e-10
1.95219e-10
1.95153e-10
1.95088e-10
1.95024e-10
1.94962e-10
1.94901e-10
1.9484e-10
1.94781e-10
1.94723e-10
1.94667e-10
1.94611e-10
1.94556e-10
1.94502e-10
1.94449e-10
1.94396e-10
1.94345e-10
1.94294e-10
1.94244e-10
1.94194e-10
1.94145e-10
1.94097e-10
1.94049e-10
1.94002e-10
1.93954e-10
1.93908e-10
1.93862e-10
1.93816e-10
1.9377e-10
1.93725e-10
1.9368e-10
1.93635e-10
1.9359e-10
1.93546e-10
1.93502e-10
1.93458e-10
1.93414e-10
1.93371e-10
1.93327e-10
1.93284e-10
1.93241e-10
1.93198e-10
1.93156e-10
1.93114e-10
1.93073e-10
1.93033e-10
1.92993e-10
1.92954e-10
1.92916e-10
1.92879e-10
1.92843e-10
1.92809e-10
1.92776e-10
1.92744e-10
1.92714e-10
1.92687e-10
1.92661e-10
1.92639e-10
1.92619e-10
1.92603e-10
1.92592e-10
1.92584e-10
1.92582e-10
1.92586e-10
1.92595e-10
1.92611e-10
1.92633e-10
1.92662e-10
1.92699e-10
1.92742e-10
1.92792e-10
1.92848e-10
1.92911e-10
1.92978e-10
1.9305e-10
1.93125e-10
1.93203e-10
1.93281e-10
1.93359e-10
1.93435e-10
1.93506e-10
1.93572e-10
1.9363e-10
1.93679e-10
1.93716e-10
1.93741e-10
1.9375e-10
1.93744e-10
1.9372e-10
1.93679e-10
1.93619e-10
1.9354e-10
1.93442e-10
1.93327e-10
1.93195e-10
1.93048e-10
1.92888e-10
1.92716e-10
1.92536e-10
1.9235e-10
1.92159e-10
1.91968e-10
1.91777e-10
1.91588e-10
1.91402e-10
1.91216e-10
1.91027e-10
1.90826e-10
1.90598e-10
1.90314e-10
1.89937e-10
1.89421e-10
1.88743e-10
1.87942e-10
1.87153e-10
1.86533e-10
1.86137e-10
1.85918e-10
1.85803e-10
1.85741e-10
1.85706e-10
1.85686e-10
1.85675e-10
1.85669e-10
1.85667e-10
1.85668e-10
1.8567e-10
1.85672e-10
1.85676e-10
1.85678e-10
1.8568e-10
1.85681e-10
1.85681e-10
1.85681e-10
1.85677e-10
1.85672e-10
1.85666e-10
1.85657e-10
1.85647e-10
1.85636e-10
1.85622e-10
1.85608e-10
1.85592e-10
1.85574e-10
1.85556e-10
1.85536e-10
1.85515e-10
1.85494e-10
1.85472e-10
1.85449e-10
1.85426e-10
1.85403e-10
1.85379e-10
1.85355e-10
1.85331e-10
1.85307e-10
1.85283e-10
1.85259e-10
1.85235e-10
1.85211e-10
1.85188e-10
1.85164e-10
1.85141e-10
1.85118e-10
1.85096e-10
1.85073e-10
1.85051e-10
1.85029e-10
1.85007e-10
1.84986e-10
1.84965e-10
1.84944e-10
1.84923e-10
1.84903e-10
1.84883e-10
1.84863e-10
1.84844e-10
1.84825e-10
1.84806e-10
1.84787e-10
1.84769e-10
1.84752e-10
1.84735e-10
1.84718e-10
1.84702e-10
1.84686e-10
1.84671e-10
1.84656e-10
1.84643e-10
1.8463e-10
1.84617e-10
1.84606e-10
1.84595e-10
1.84585e-10
1.84576e-10
1.84568e-10
1.84561e-10
1.84555e-10
1.8455e-10
1.84547e-10
1.84544e-10
1.84542e-10
1.84542e-10
1.84542e-10
1.84542e-10
1.84543e-10
1.84547e-10
1.84551e-10
1.84557e-10
1.84563e-10
1.84571e-10
1.84579e-10
1.84588e-10
1.84598e-10
1.84609e-10
1.84621e-10
1.84633e-10
1.84646e-10
1.84659e-10
1.84673e-10
1.84688e-10
1.84703e-10
1.84718e-10
1.84734e-10
1.8475e-10
1.84766e-10
1.84783e-10
1.848e-10
1.84817e-10
1.84835e-10
1.84852e-10
1.8487e-10
1.84888e-10
1.84906e-10
1.84924e-10
1.84943e-10
1.84961e-10
1.8498e-10
1.84999e-10
1.85018e-10
1.85037e-10
1.85057e-10
1.85076e-10
1.85097e-10
1.85117e-10
1.85138e-10
1.8516e-10
1.85182e-10
1.85204e-10
1.85228e-10
1.85252e-10
1.85277e-10
1.85303e-10
1.8533e-10
1.85358e-10
1.85388e-10
1.85419e-10
1.85452e-10
1.85487e-10
1.85524e-10
1.85563e-10
1.85604e-10
1.85648e-10
1.85695e-10
1.85745e-10
1.85798e-10
1.85854e-10
1.85913e-10
1.85976e-10
1.86043e-10
1.86114e-10
1.86188e-10
1.86266e-10
1.86347e-10
1.86432e-10
1.86519e-10
1.8661e-10
1.86704e-10
1.868e-10
1.86897e-10
1.86996e-10
1.87096e-10
1.87195e-10
1.87294e-10
1.87392e-10
1.87487e-10
1.87579e-10
1.87668e-10
1.87751e-10
1.87829e-10
1.879e-10
1.87964e-10
1.8802e-10
1.88066e-10
1.88103e-10
1.88129e-10
1.88145e-10
1.8815e-10
1.88151e-10
1.88151e-10
1.8814e-10
1.88098e-10
1.88047e-10
1.87986e-10
1.87915e-10
1.87835e-10
1.87747e-10
1.87652e-10
1.87551e-10
1.87446e-10
1.87337e-10
1.87225e-10
1.87113e-10
1.87001e-10
1.8689e-10
1.86782e-10
1.86677e-10
1.86576e-10
1.8648e-10
1.8639e-10
1.86305e-10
1.86227e-10
1.86155e-10
1.86089e-10
1.86031e-10
1.85978e-10
1.85932e-10
1.85892e-10
1.85857e-10
1.85827e-10
1.85803e-10
1.85782e-10
1.85765e-10
1.85752e-10
1.85741e-10
1.85732e-10
1.85726e-10
1.85721e-10
1.85717e-10
1.85715e-10
1.85712e-10
1.8571e-10
1.85708e-10
1.85705e-10
1.85701e-10
1.85697e-10
1.85692e-10
1.85685e-10
1.85678e-10
1.85669e-10
1.85659e-10
1.85647e-10
1.85634e-10
1.8562e-10
1.85605e-10
1.85589e-10
1.85571e-10
1.85553e-10
1.85534e-10
1.85513e-10
1.85492e-10
1.85471e-10
1.85449e-10
1.85426e-10
1.85404e-10
1.85381e-10
1.85357e-10
1.85334e-10
1.85311e-10
1.85287e-10
1.85264e-10
1.85241e-10
1.85218e-10
1.85195e-10
1.85173e-10
1.85151e-10
1.8513e-10
1.85109e-10
1.85089e-10
1.85069e-10
1.85049e-10
1.8503e-10
1.85012e-10
1.84994e-10
1.84977e-10
1.8496e-10
1.84944e-10
1.84928e-10
1.84913e-10
1.84898e-10
1.84884e-10
1.84871e-10
1.84858e-10
1.84845e-10
1.84834e-10
1.84822e-10
1.84811e-10
1.84801e-10
1.84791e-10
1.84781e-10
1.84772e-10
1.84763e-10
1.84755e-10
1.84748e-10
1.84741e-10
1.84734e-10
1.84728e-10
1.84723e-10
1.84718e-10
1.84713e-10
1.84709e-10
1.84706e-10
1.84704e-10
1.84702e-10
1.847e-10
1.847e-10
1.847e-10
1.847e-10
1.847e-10
1.84702e-10
1.84704e-10
1.84708e-10
1.84712e-10
1.84717e-10
1.84723e-10
1.8473e-10
1.84737e-10
1.84745e-10
1.84754e-10
1.84763e-10
1.84773e-10
1.84784e-10
1.84795e-10
1.84807e-10
1.8482e-10
1.84833e-10
1.84847e-10
1.84861e-10
1.84875e-10
1.8489e-10
1.84906e-10
1.84922e-10
1.84938e-10
1.84954e-10
1.84971e-10
1.84988e-10
1.85006e-10
1.85024e-10
1.85042e-10
1.8506e-10
1.85079e-10
1.85098e-10
1.85118e-10
1.85137e-10
1.85158e-10
1.85179e-10
1.852e-10
1.85222e-10
1.85244e-10
1.85268e-10
1.85292e-10
1.85317e-10
1.85343e-10
1.8537e-10
1.85398e-10
1.85428e-10
1.85459e-10
1.85492e-10
1.85527e-10
1.85564e-10
1.85602e-10
1.85643e-10
1.85686e-10
1.85731e-10
1.85779e-10
1.85829e-10
1.85882e-10
1.85938e-10
1.85996e-10
1.86057e-10
1.86121e-10
1.86187e-10
1.86256e-10
1.86327e-10
1.864e-10
1.86475e-10
1.86552e-10
1.86631e-10
1.8671e-10
1.86791e-10
1.86871e-10
1.86952e-10
1.87032e-10
1.87111e-10
1.87188e-10
1.87263e-10
1.87335e-10
1.87404e-10
1.87469e-10
1.8753e-10
1.87585e-10
1.87635e-10
1.87679e-10
1.87716e-10
1.87746e-10
1.87768e-10
1.87782e-10
1.87789e-10
1.8779e-10
1.8779e-10
1.87786e-10
1.87762e-10
1.87727e-10
1.87685e-10
1.87634e-10
1.87577e-10
1.87513e-10
1.87443e-10
1.87368e-10
1.87288e-10
1.87205e-10
1.87119e-10
1.87031e-10
1.86942e-10
1.86853e-10
1.86764e-10
1.86677e-10
1.86592e-10
1.86509e-10
1.86429e-10
1.86353e-10
1.86281e-10
1.86213e-10
1.8615e-10
1.86091e-10
1.86038e-10
1.85988e-10
1.85944e-10
1.85904e-10
1.85869e-10
1.85838e-10
1.8581e-10
1.85787e-10
1.85766e-10
1.85749e-10
1.85734e-10
1.85722e-10
1.85712e-10
1.85704e-10
1.85697e-10
1.85691e-10
1.85686e-10
1.85682e-10
1.85678e-10
1.85675e-10
1.85671e-10
1.85667e-10
1.85662e-10
1.85657e-10
1.85651e-10
1.85644e-10
1.85636e-10
1.85627e-10
1.85617e-10
1.85606e-10
1.85594e-10
1.8558e-10
1.85566e-10
1.85551e-10
1.85534e-10
1.85517e-10
1.85498e-10
1.85479e-10
1.85459e-10
1.85439e-10
1.85418e-10
1.85396e-10
1.85374e-10
1.85351e-10
1.85328e-10
1.85305e-10
1.85281e-10
1.85258e-10
1.85234e-10
1.85211e-10
1.85188e-10
1.85165e-10
1.85142e-10
1.85119e-10
1.85096e-10
1.85074e-10
1.85053e-10
1.85032e-10
1.85011e-10
1.84991e-10
1.84971e-10
1.84952e-10
1.84933e-10
1.84915e-10
1.84897e-10
1.8488e-10
1.84864e-10
1.84848e-10
1.84833e-10
1.84818e-10
1.84804e-10
1.8479e-10
1.84777e-10
1.84765e-10
1.84753e-10
1.84741e-10
1.84731e-10
1.8472e-10
1.8471e-10
1.84701e-10
1.84692e-10
1.84683e-10
1.84675e-10
1.84667e-10
1.8466e-10
1.84653e-10
1.84647e-10
1.84641e-10
1.84636e-10
1.84631e-10
1.84627e-10
1.84623e-10
1.8462e-10
1.84617e-10
1.84615e-10
1.84613e-10
1.84612e-10
1.84612e-10
1.84611e-10
1.84611e-10
1.84612e-10
1.84613e-10
1.84616e-10
1.84619e-10
1.84623e-10
1.84628e-10
1.84633e-10
1.84639e-10
1.84646e-10
1.84654e-10
1.84662e-10
1.84671e-10
1.84681e-10
1.84691e-10
1.84702e-10
1.84714e-10
1.84727e-10
1.84741e-10
1.84755e-10
1.8477e-10
1.84785e-10
1.84802e-10
1.84819e-10
1.84837e-10
1.84855e-10
1.84875e-10
1.84895e-10
1.84916e-10
1.84938e-10
1.8496e-10
1.84984e-10
1.85008e-10
1.85034e-10
1.8506e-10
1.85087e-10
1.85116e-10
1.85145e-10
1.85176e-10
1.85208e-10
1.85242e-10
1.85276e-10
1.85313e-10
1.85351e-10
1.8539e-10
1.85431e-10
1.85474e-10
1.85519e-10
1.85566e-10
1.85615e-10
1.85665e-10
1.85718e-10
1.85773e-10
1.8583e-10
1.85888e-10
1.85949e-10
1.86012e-10
1.86077e-10
1.86143e-10
1.86212e-10
1.86282e-10
1.86353e-10
1.86425e-10
1.86499e-10
1.86573e-10
1.86648e-10
1.86723e-10
1.86798e-10
1.86873e-10
1.86947e-10
1.87019e-10
1.87091e-10
1.8716e-10
1.87227e-10
1.87292e-10
1.87353e-10
1.87411e-10
1.87464e-10
1.87514e-10
1.87559e-10
1.87598e-10
1.87632e-10
1.87661e-10
1.87683e-10
1.87699e-10
1.87709e-10
1.87712e-10
1.87713e-10
1.87713e-10
1.87706e-10
1.87683e-10
1.87653e-10
1.87618e-10
1.87577e-10
1.8753e-10
1.87479e-10
1.87422e-10
1.87362e-10
1.87298e-10
1.87231e-10
1.87162e-10
1.87091e-10
1.87019e-10
1.86946e-10
1.86874e-10
1.86801e-10
1.8673e-10
1.8666e-10
1.86593e-10
1.86527e-10
1.86464e-10
1.86404e-10
1.86346e-10
1.86292e-10
1.86242e-10
1.86194e-10
1.8615e-10
1.8611e-10
1.86072e-10
1.86038e-10
1.86007e-10
1.85979e-10
1.85953e-10
1.8593e-10
1.85909e-10
1.8589e-10
1.85873e-10
1.85858e-10
1.85845e-10
1.85832e-10
1.85821e-10
1.8581e-10
1.858e-10
1.85791e-10
1.85781e-10
1.85772e-10
1.85763e-10
1.85753e-10
1.85744e-10
1.85734e-10
1.85723e-10
1.85712e-10
1.85701e-10
1.85688e-10
1.85675e-10
1.85661e-10
1.85647e-10
1.85632e-10
1.85616e-10
1.85599e-10
1.85582e-10
1.85563e-10
1.85545e-10
1.85525e-10
1.85505e-10
1.85484e-10
1.85463e-10
1.85441e-10
1.8542e-10
1.85397e-10
1.85374e-10
1.85351e-10
1.85328e-10
1.85305e-10
)
;

boundaryField
{
    inlet
    {
        type            calculated;
        value           uniform -2.74882e-10;
    }
    outlet
    {
        type            calculated;
        value           uniform 1.85282e-10;
    }
    emptyWalls
    {
        type            empty;
        value           nonuniform List<scalar> 0();
    }
}


// ************************************************************************* //
