/*--------------------------------*- C++ -*----------------------------------*\
  =========                 |
  \\      /  F ield         | OpenFOAM: The Open Source CFD Toolbox
   \\    /   O peration     | Website:  https://openfoam.org
    \\  /    A nd           | Version:  9
     \\/     M anipulation  |
\*---------------------------------------------------------------------------*/
FoamFile
{
    format      ascii;
    class       surfaceScalarField;
    location    "1100";
    object      phia;
}
// * * * * * * * * * * * * * * * * * * * * * * * * * * * * * * * * * * * * * //

dimensions      [0 2 0 0 0 0 0];

internalField   nonuniform List<scalar> 
999
(
2.63886e-10
2.10098e-10
2.03664e-10
2.0288e-10
2.02836e-10
2.02786e-10
2.02735e-10
2.0269e-10
2.02639e-10
2.02609e-10
2.02556e-10
2.02516e-10
2.02447e-10
2.0236e-10
2.02262e-10
2.02122e-10
2.01982e-10
2.01812e-10
2.01628e-10
2.0144e-10
2.01228e-10
2.01015e-10
2.00795e-10
2.00563e-10
2.00333e-10
2.00103e-10
1.99871e-10
1.9965e-10
1.99443e-10
1.9925e-10
1.99083e-10
1.98946e-10
1.98842e-10
1.98776e-10
1.98752e-10
1.98772e-10
1.98832e-10
1.9893e-10
1.99047e-10
1.99147e-10
1.99165e-10
1.99039e-10
1.98761e-10
1.98457e-10
1.98351e-10
1.98541e-10
1.98962e-10
1.99451e-10
1.99929e-10
2.00379e-10
2.0071e-10
2.0087e-10
2.00913e-10
2.00861e-10
2.00573e-10
1.99779e-10
1.98754e-10
1.97391e-10
1.95676e-10
1.93638e-10
1.91342e-10
1.8888e-10
1.86361e-10
1.83896e-10
1.81593e-10
1.79541e-10
1.77801e-10
1.76404e-10
1.75355e-10
1.74634e-10
1.74206e-10
1.74018e-10
1.73974e-10
1.73974e-10
1.741e-10
1.74574e-10
1.75127e-10
1.75723e-10
1.76348e-10
1.76992e-10
1.77641e-10
1.78285e-10
1.78914e-10
1.79517e-10
1.80089e-10
1.80621e-10
1.81109e-10
1.8155e-10
1.81942e-10
1.82284e-10
1.82578e-10
1.82826e-10
1.83031e-10
1.83197e-10
1.83329e-10
1.83432e-10
1.83511e-10
1.8357e-10
1.83614e-10
1.83647e-10
1.83672e-10
1.83692e-10
1.83709e-10
1.83726e-10
1.83744e-10
1.83763e-10
1.83785e-10
1.8381e-10
1.83839e-10
1.83871e-10
1.83907e-10
1.83945e-10
1.83987e-10
1.84031e-10
1.84076e-10
1.84123e-10
1.84171e-10
1.84219e-10
1.84266e-10
1.84311e-10
1.84353e-10
1.84392e-10
1.84425e-10
1.84453e-10
1.84472e-10
1.84483e-10
1.84487e-10
1.84488e-10
1.84485e-10
1.84474e-10
1.84428e-10
1.8437e-10
1.84296e-10
1.84205e-10
1.84095e-10
1.83966e-10
1.83816e-10
1.83647e-10
1.83457e-10
1.83246e-10
1.83015e-10
1.82764e-10
1.82494e-10
1.82207e-10
1.81902e-10
1.81583e-10
1.8125e-10
1.80906e-10
1.80551e-10
1.80188e-10
1.79818e-10
1.79444e-10
1.79066e-10
1.78685e-10
1.78304e-10
1.77924e-10
1.77545e-10
1.77168e-10
1.76795e-10
1.76426e-10
1.76062e-10
1.75704e-10
1.75353e-10
1.75009e-10
1.74673e-10
1.74346e-10
1.74028e-10
1.73722e-10
1.73426e-10
1.73142e-10
1.72872e-10
1.72616e-10
1.72375e-10
1.72151e-10
1.71945e-10
1.71758e-10
1.71592e-10
1.71449e-10
1.71329e-10
1.71233e-10
1.71161e-10
1.71114e-10
1.7109e-10
1.71083e-10
1.71083e-10
1.71092e-10
1.71131e-10
1.71165e-10
1.71271e-10
1.71423e-10
1.71429e-10
1.71242e-10
1.65942e-10
1.46412e-10
2.60264e-11
1.7604e-13
1.29585e-18
8.5858e-30
1.15319e-53
4.85325e-104
3.37361e-210
0
0
0
0
0
0
0
0
0
0
0
0
0
0
0
0
0
0
0
0
0
0
0
0
0
0
0
0
0
0
0
0
0
0
0
0
0
0
0
0
0
0
0
0
0
0
0
0
0
0
0
0
0
0
0
0
0
0
0
0
0
0
0
0
0
0
0
0
0
0
0
0
0
0
0
0
0
0
0
0
0
0
0
0
0
0
0
0
0
0
0
0
0
0
0
0
0
0
0
0
0
0
0
0
0
0
0
0
0
0
0
0
0
0
0
0
0
0
0
0
0
0
0
0
0
0
0
0
0
0
0
0
0
0
0
0
0
0
0
0
0
0
0
0
0
0
0
0
0
0
0
0
0
0
0
0
0
0
0
0
0
0
0
0
0
0
0
0
0
0
0
0
0
0
0
0
0
0
0
0
0
0
0
0
0
0
0
0
0
0
0
0
0
0
0
0
0
0
0
0
0
0
0
0
0
0
0
0
0
0
0
0
0
0
0
0
0
0
0
0
0
0
0
0
0
0
0
0
0
0
0
0
0
0
0
0
0
0
0
0
0
0
0
0
0
0
0
0
0
0
0
0
0
0
0
0
0
0
0
0
0
0
0
0
0
0
0
0
0
0
0
0
0
0
0
0
0
0
0
0
0
0
0
0
0
0
0
0
0
0
0
0
0
0
0
0
0
0
0
0
0
0
0
0
0
0
0
0
0
0
0
0
0
0
0
0
0
0
0
0
0
0
0
0
0
0
0
0
0
0
0
0
0
0
0
0
0
0
0
0
0
0
0
0
0
0
0
0
0
0
0
0
0
0
0
0
0
0
0
0
0
0
0
0
0
0
0
0
0
0
0
0
0
0
0
0
0
0
0
0
0
0
0
0
0
0
0
0
0
0
0
0
0
0
0
0
0
0
0
0
0
0
0
0
0
0
0
0
0
0
0
0
0
0
0
0
0
0
0
0
0
0
0
0
0
0
0
0
0
0
0
0
0
0
0
0
0
0
0
0
0
0
0
0
0
0
0
0
0
0
0
0
0
0
0
0
0
0
0
0
0
0
0
0
0
0
0
0
0
0
0
0
0
0
0
0
0
0
0
0
0
0
0
0
0
0
0
0
0
0
0
0
0
0
0
0
0
0
0
0
0
0
0
0
0
0
0
0
0
0
0
0
0
0
0
0
0
0
0
0
0
0
0
0
0
0
0
0
0
0
0
0
0
0
0
0
0
0
0
0
0
0
0
0
0
0
0
0
0
0
0
0
0
0
0
0
0
0
0
0
0
0
0
0
0
0
0
0
0
0
0
0
0
0
0
0
0
0
0
0
0
0
0
0
0
0
0
0
0
0
0
0
0
0
0
0
0
0
0
0
0
0
0
0
0
0
0
0
0
0
0
0
0
0
0
0
0
0
0
0
0
0
0
0
0
0
0
0
0
0
0
0
0
0
0
0
0
0
0
0
0
0
0
0
0
0
0
0
0
0
0
0
0
0
0
0
0
0
0
0
0
0
0
0
0
0
0
0
0
0
0
0
0
0
0
0
0
0
0
0
0
0
0
0
0
0
0
0
0
0
0
0
0
0
0
0
0
0
0
0
0
0
0
0
0
0
0
0
0
0
0
0
0
0
0
0
0
0
0
0
0
0
0
0
0
0
0
0
0
0
0
0
0
0
0
0
0
0
0
0
0
0
0
0
0
0
0
0
0
0
0
0
0
0
0
0
0
0
0
0
0
0
0
0
0
0
0
0
0
0
0
0
0
0
0
0
0
0
0
0
0
0
0
0
0
0
0
0
0
0
0
0
0
0
0
0
0
0
)
;

boundaryField
{
    inlet
    {
        type            calculated;
        value           uniform -2.74882e-10;
    }
    outlet
    {
        type            calculated;
        value           uniform 0;
    }
    emptyWalls
    {
        type            empty;
        value           nonuniform List<scalar> 0();
    }
}


// ************************************************************************* //
