/*--------------------------------*- C++ -*----------------------------------*\
  =========                 |
  \\      /  F ield         | OpenFOAM: The Open Source CFD Toolbox
   \\    /   O peration     | Website:  https://openfoam.org
    \\  /    A nd           | Version:  9
     \\/     M anipulation  |
\*---------------------------------------------------------------------------*/
FoamFile
{
    format      ascii;
    class       surfaceScalarField;
    location    "1100";
    object      phib;
}
// * * * * * * * * * * * * * * * * * * * * * * * * * * * * * * * * * * * * * //

dimensions      [0 2 0 0 0 0 0];

internalField   nonuniform List<scalar> 
999
(
1.14237e-09
1.17987e-09
1.18235e-09
1.17895e-09
1.17089e-09
1.16216e-09
1.15281e-09
1.14304e-09
1.13296e-09
1.12262e-09
1.11208e-09
1.10133e-09
1.09043e-09
1.07936e-09
1.06813e-09
1.05675e-09
1.04519e-09
1.03347e-09
1.02157e-09
1.00947e-09
9.97179e-10
9.84674e-10
9.71944e-10
9.58981e-10
9.45757e-10
9.32258e-10
9.18469e-10
9.04358e-10
8.89898e-10
8.75061e-10
8.59806e-10
8.44091e-10
8.27878e-10
8.11118e-10
7.93758e-10
7.75717e-10
7.56829e-10
7.36708e-10
7.14479e-10
6.88348e-10
6.55171e-10
6.10658e-10
5.51517e-10
4.79995e-10
4.06778e-10
3.45624e-10
3.03589e-10
2.788e-10
2.65611e-10
2.59013e-10
2.55846e-10
2.5438e-10
2.53723e-10
2.5345e-10
2.53387e-10
2.53497e-10
2.53683e-10
2.53972e-10
2.54336e-10
2.54767e-10
2.55255e-10
2.55777e-10
2.56313e-10
2.56837e-10
2.57327e-10
2.57764e-10
2.58133e-10
2.5843e-10
2.58653e-10
2.58807e-10
2.58898e-10
2.58938e-10
2.58948e-10
2.58948e-10
2.5892e-10
2.58819e-10
2.58701e-10
2.58575e-10
2.58442e-10
2.58305e-10
2.58167e-10
2.5803e-10
2.57896e-10
2.57768e-10
2.57646e-10
2.57534e-10
2.5743e-10
2.57336e-10
2.57253e-10
2.57179e-10
2.57117e-10
2.57064e-10
2.57021e-10
2.56986e-10
2.56958e-10
2.56936e-10
2.56919e-10
2.56906e-10
2.56896e-10
2.5689e-10
2.56885e-10
2.56881e-10
2.56877e-10
2.56873e-10
2.56869e-10
2.56865e-10
2.5686e-10
2.56855e-10
2.56849e-10
2.56842e-10
2.56835e-10
2.56826e-10
2.56817e-10
2.56808e-10
2.56798e-10
2.56789e-10
2.56779e-10
2.56769e-10
2.56758e-10
2.56748e-10
2.56739e-10
2.56731e-10
2.56724e-10
2.56719e-10
2.56715e-10
2.56712e-10
2.56711e-10
2.56711e-10
2.56711e-10
2.56713e-10
2.56723e-10
2.56735e-10
2.56751e-10
2.5677e-10
2.56794e-10
2.56821e-10
2.56852e-10
2.56887e-10
2.56927e-10
2.56971e-10
2.5702e-10
2.57073e-10
2.5713e-10
2.5719e-10
2.57254e-10
2.57321e-10
2.57391e-10
2.57464e-10
2.57538e-10
2.57615e-10
2.57692e-10
2.57771e-10
2.57851e-10
2.5793e-10
2.5801e-10
2.5809e-10
2.5817e-10
2.5825e-10
2.58328e-10
2.58406e-10
2.58482e-10
2.58557e-10
2.58631e-10
2.58703e-10
2.58774e-10
2.58843e-10
2.58909e-10
2.58973e-10
2.59036e-10
2.59096e-10
2.59153e-10
2.59206e-10
2.59257e-10
2.59304e-10
2.59347e-10
2.59386e-10
2.59421e-10
2.5945e-10
2.59475e-10
2.59495e-10
2.5951e-10
2.5952e-10
2.59524e-10
2.59526e-10
2.59525e-10
2.59522e-10
2.59514e-10
2.59506e-10
2.59483e-10
2.59451e-10
2.5945e-10
2.59489e-10
2.60615e-10
2.64771e-10
2.90812e-10
2.96634e-10
2.96724e-10
2.96726e-10
2.96727e-10
2.96727e-10
2.96727e-10
2.96727e-10
2.96727e-10
2.96727e-10
2.96727e-10
2.96727e-10
2.96727e-10
2.96727e-10
2.96727e-10
2.96727e-10
2.96727e-10
2.96727e-10
2.96727e-10
2.96727e-10
2.96727e-10
2.96727e-10
2.96727e-10
2.96727e-10
2.96727e-10
2.96727e-10
2.96727e-10
2.96727e-10
2.96727e-10
2.96727e-10
2.96727e-10
2.96727e-10
2.96727e-10
2.96727e-10
2.96727e-10
2.96727e-10
2.96727e-10
2.96727e-10
2.96727e-10
2.96727e-10
2.96727e-10
2.96727e-10
2.96727e-10
2.96727e-10
2.96727e-10
2.96727e-10
2.96727e-10
2.96727e-10
2.96727e-10
2.96727e-10
2.96727e-10
2.96727e-10
2.96727e-10
2.96727e-10
2.96727e-10
2.96727e-10
2.96727e-10
2.96727e-10
2.96727e-10
2.96727e-10
2.96727e-10
2.96727e-10
2.96727e-10
2.96727e-10
2.96727e-10
2.96727e-10
2.96727e-10
2.96727e-10
2.96727e-10
2.96727e-10
2.96727e-10
2.96727e-10
2.96727e-10
2.96727e-10
2.96727e-10
2.96727e-10
2.96727e-10
2.96727e-10
2.96727e-10
2.96727e-10
2.96727e-10
2.96727e-10
2.96727e-10
2.96727e-10
2.96727e-10
2.96727e-10
2.96727e-10
2.96727e-10
2.96727e-10
2.96727e-10
2.96727e-10
2.96727e-10
2.96727e-10
2.96727e-10
2.96727e-10
2.96727e-10
2.96727e-10
2.96727e-10
2.96727e-10
2.96727e-10
2.96727e-10
2.96727e-10
2.96727e-10
2.96727e-10
2.96727e-10
2.96727e-10
2.96727e-10
2.96727e-10
2.96727e-10
2.96727e-10
2.96727e-10
2.96727e-10
2.96727e-10
2.96727e-10
2.96727e-10
2.96727e-10
2.96727e-10
2.96727e-10
2.96727e-10
2.96727e-10
2.96727e-10
2.96727e-10
2.96727e-10
2.96727e-10
2.96727e-10
2.96727e-10
2.96727e-10
2.96727e-10
2.96727e-10
2.96727e-10
2.96727e-10
2.96727e-10
2.96727e-10
2.96727e-10
2.96727e-10
2.96727e-10
2.96727e-10
2.96727e-10
2.96727e-10
2.96727e-10
2.96727e-10
2.96727e-10
2.96727e-10
2.96727e-10
2.96727e-10
2.96727e-10
2.96727e-10
2.96727e-10
2.96727e-10
2.96727e-10
2.96727e-10
2.96727e-10
2.96727e-10
2.96727e-10
2.96727e-10
2.96727e-10
2.96727e-10
2.96727e-10
2.96727e-10
2.96727e-10
2.96727e-10
2.96727e-10
2.96727e-10
2.96727e-10
2.96727e-10
2.96727e-10
2.96727e-10
2.96727e-10
2.96727e-10
2.96727e-10
2.96727e-10
2.96727e-10
2.96727e-10
2.96727e-10
2.96727e-10
2.96727e-10
2.96727e-10
2.96727e-10
2.96727e-10
2.96727e-10
2.96727e-10
2.96727e-10
2.96727e-10
2.96727e-10
2.96727e-10
2.96727e-10
2.96727e-10
2.96727e-10
2.96727e-10
2.96727e-10
2.96727e-10
2.96727e-10
2.96727e-10
2.96727e-10
2.96727e-10
2.96727e-10
2.96727e-10
2.96727e-10
2.96727e-10
2.96727e-10
2.96727e-10
2.96727e-10
2.96727e-10
2.96727e-10
2.96727e-10
2.96727e-10
2.96727e-10
2.96727e-10
2.96727e-10
2.96727e-10
2.96727e-10
2.96727e-10
2.96727e-10
2.96727e-10
2.96727e-10
2.96727e-10
2.96727e-10
2.96727e-10
2.96727e-10
2.96727e-10
2.96727e-10
2.96727e-10
2.96727e-10
2.96727e-10
2.96727e-10
2.96727e-10
2.96727e-10
2.96727e-10
2.96727e-10
2.96727e-10
2.96727e-10
2.96727e-10
2.96727e-10
2.96727e-10
2.96727e-10
2.96727e-10
2.96727e-10
2.96727e-10
2.96727e-10
2.96727e-10
2.96727e-10
2.96727e-10
2.96727e-10
2.96727e-10
2.96727e-10
2.96727e-10
2.96727e-10
2.96727e-10
2.96727e-10
2.96727e-10
2.96727e-10
2.96727e-10
2.96727e-10
2.96727e-10
2.96727e-10
2.96727e-10
2.96727e-10
2.96727e-10
2.96727e-10
2.96727e-10
2.96727e-10
2.96727e-10
2.96727e-10
2.96727e-10
2.96727e-10
2.96727e-10
2.96727e-10
2.96727e-10
2.96727e-10
2.96727e-10
2.96727e-10
2.96727e-10
2.96727e-10
2.96727e-10
2.96727e-10
2.96727e-10
2.96727e-10
2.96727e-10
2.96727e-10
2.96727e-10
2.96727e-10
2.96727e-10
2.96727e-10
2.96727e-10
2.96727e-10
2.96727e-10
2.96727e-10
2.96727e-10
2.96727e-10
2.96727e-10
2.96727e-10
2.96727e-10
2.96727e-10
2.96727e-10
2.96727e-10
2.96727e-10
2.96727e-10
2.96727e-10
2.96727e-10
2.96727e-10
2.96727e-10
2.96727e-10
2.96727e-10
2.96727e-10
2.96727e-10
2.96727e-10
2.96727e-10
2.96727e-10
2.96727e-10
2.96727e-10
2.96727e-10
2.96727e-10
2.96727e-10
2.96727e-10
2.96727e-10
2.96727e-10
2.96727e-10
2.96727e-10
2.96727e-10
2.96727e-10
2.96727e-10
2.96727e-10
2.96727e-10
2.96727e-10
2.96727e-10
2.96727e-10
2.96727e-10
2.96727e-10
2.96727e-10
2.96727e-10
2.96727e-10
2.96727e-10
2.96727e-10
2.96727e-10
2.96727e-10
2.96727e-10
2.96727e-10
2.96727e-10
2.96727e-10
2.96727e-10
2.96727e-10
2.96727e-10
2.96727e-10
2.96727e-10
2.96727e-10
2.96727e-10
2.96727e-10
2.96727e-10
2.96727e-10
2.96727e-10
2.96727e-10
2.96727e-10
2.96727e-10
2.96727e-10
2.96727e-10
2.96727e-10
2.96727e-10
2.96727e-10
2.96727e-10
2.96727e-10
2.96727e-10
2.96727e-10
2.96727e-10
2.96727e-10
2.96727e-10
2.96727e-10
2.96727e-10
2.96727e-10
2.96727e-10
2.96727e-10
2.96727e-10
2.96727e-10
2.96727e-10
2.96727e-10
2.96727e-10
2.96727e-10
2.96727e-10
2.96727e-10
2.96727e-10
2.96727e-10
2.96727e-10
2.96727e-10
2.96727e-10
2.96727e-10
2.96727e-10
2.96727e-10
2.96727e-10
2.96727e-10
2.96727e-10
2.96727e-10
2.96727e-10
2.96727e-10
2.96727e-10
2.96727e-10
2.96727e-10
2.96727e-10
2.96727e-10
2.96727e-10
2.96727e-10
2.96727e-10
2.96727e-10
2.96727e-10
2.96727e-10
2.96727e-10
2.96727e-10
2.96727e-10
2.96727e-10
2.96727e-10
2.96727e-10
2.96727e-10
2.96727e-10
2.96727e-10
2.96727e-10
2.96727e-10
2.96727e-10
2.96727e-10
2.96727e-10
2.96727e-10
2.96727e-10
2.96727e-10
2.96727e-10
2.96727e-10
2.96727e-10
2.96727e-10
2.96727e-10
2.96727e-10
2.96727e-10
2.96727e-10
2.96727e-10
2.96727e-10
2.96727e-10
2.96727e-10
2.96727e-10
2.96727e-10
2.96727e-10
2.96727e-10
2.96727e-10
2.96727e-10
2.96727e-10
2.96727e-10
2.96727e-10
2.96727e-10
2.96727e-10
2.96727e-10
2.96727e-10
2.96727e-10
2.96727e-10
2.96727e-10
2.96727e-10
2.96727e-10
2.96727e-10
2.96727e-10
2.96727e-10
2.96727e-10
2.96727e-10
2.96727e-10
2.96727e-10
2.96727e-10
2.96727e-10
2.96727e-10
2.96727e-10
2.96727e-10
2.96727e-10
2.96727e-10
2.96727e-10
2.96727e-10
2.96727e-10
2.96727e-10
2.96727e-10
2.96727e-10
2.96727e-10
2.96727e-10
2.96727e-10
2.96727e-10
2.96727e-10
2.96727e-10
2.96727e-10
2.96727e-10
2.96727e-10
2.96727e-10
2.96727e-10
2.96727e-10
2.96727e-10
2.96727e-10
2.96727e-10
2.96727e-10
2.96727e-10
2.96727e-10
2.96727e-10
2.96727e-10
2.96727e-10
2.96727e-10
2.96727e-10
2.96727e-10
2.96727e-10
2.96727e-10
2.96727e-10
2.96727e-10
2.96727e-10
2.96727e-10
2.96727e-10
2.96727e-10
2.96727e-10
2.96727e-10
2.96727e-10
2.96727e-10
2.96727e-10
2.96727e-10
2.96727e-10
2.96727e-10
2.96727e-10
2.96727e-10
2.96727e-10
2.96727e-10
2.96727e-10
2.96727e-10
2.96727e-10
2.96727e-10
2.96727e-10
2.96727e-10
2.96727e-10
2.96727e-10
2.96727e-10
2.96727e-10
2.96727e-10
2.96727e-10
2.96727e-10
2.96727e-10
2.96727e-10
2.96727e-10
2.96727e-10
2.96727e-10
2.96727e-10
2.96727e-10
2.96727e-10
2.96727e-10
2.96727e-10
2.96727e-10
2.96727e-10
2.96727e-10
2.96727e-10
2.96727e-10
2.96727e-10
2.96727e-10
2.96727e-10
2.96727e-10
2.96727e-10
2.96727e-10
2.96727e-10
2.96727e-10
2.96727e-10
2.96727e-10
2.96727e-10
2.96727e-10
2.96727e-10
2.96727e-10
2.96727e-10
2.96727e-10
2.96727e-10
2.96727e-10
2.96727e-10
2.96727e-10
2.96727e-10
2.96727e-10
2.96727e-10
2.96727e-10
2.96727e-10
2.96727e-10
2.96727e-10
2.96727e-10
2.96727e-10
2.96727e-10
2.96727e-10
2.96727e-10
2.96727e-10
2.96727e-10
2.96727e-10
2.96727e-10
2.96727e-10
2.96727e-10
2.96727e-10
2.96727e-10
2.96727e-10
2.96727e-10
2.96727e-10
2.96727e-10
2.96727e-10
2.96727e-10
2.96727e-10
2.96727e-10
2.96727e-10
2.96727e-10
2.96727e-10
2.96727e-10
2.96727e-10
2.96727e-10
2.96727e-10
2.96727e-10
2.96727e-10
2.96727e-10
2.96727e-10
2.96727e-10
2.96727e-10
2.96727e-10
2.96727e-10
2.96727e-10
2.96727e-10
2.96727e-10
2.96727e-10
2.96727e-10
2.96727e-10
2.96727e-10
2.96727e-10
2.96727e-10
2.96727e-10
2.96727e-10
2.96727e-10
2.96727e-10
2.96727e-10
2.96727e-10
2.96727e-10
2.96727e-10
2.96727e-10
2.96727e-10
2.96727e-10
2.96727e-10
2.96727e-10
2.96727e-10
2.96727e-10
2.96727e-10
2.96727e-10
2.96727e-10
2.96727e-10
2.96727e-10
2.96727e-10
2.96727e-10
2.96727e-10
2.96727e-10
2.96727e-10
2.96727e-10
2.96727e-10
2.96727e-10
2.96727e-10
2.96727e-10
2.96727e-10
2.96727e-10
2.96727e-10
2.96727e-10
2.96727e-10
2.96727e-10
2.96727e-10
2.96727e-10
2.96727e-10
2.96727e-10
2.96727e-10
2.96727e-10
2.96727e-10
2.96727e-10
2.96727e-10
2.96727e-10
2.96727e-10
2.96727e-10
2.96727e-10
2.96727e-10
2.96727e-10
2.96727e-10
2.96727e-10
2.96727e-10
2.96727e-10
2.96727e-10
2.96727e-10
2.96727e-10
2.96727e-10
2.96727e-10
2.96727e-10
2.96727e-10
2.96727e-10
2.96727e-10
2.96727e-10
2.96727e-10
2.96727e-10
2.96727e-10
2.96727e-10
2.96727e-10
2.96727e-10
2.96727e-10
2.96727e-10
2.96727e-10
2.96727e-10
2.96727e-10
2.96727e-10
2.96727e-10
2.96727e-10
2.96727e-10
2.96727e-10
2.96727e-10
2.96727e-10
2.96727e-10
2.96727e-10
2.96727e-10
2.96727e-10
2.96727e-10
2.96727e-10
2.96727e-10
2.96727e-10
2.96727e-10
2.96727e-10
2.96727e-10
2.96727e-10
2.96727e-10
2.96727e-10
2.96727e-10
2.96727e-10
2.96727e-10
2.96727e-10
2.96727e-10
2.96727e-10
2.96727e-10
2.96727e-10
2.96727e-10
2.96727e-10
2.96727e-10
2.96727e-10
2.96727e-10
2.96727e-10
2.96727e-10
2.96727e-10
2.96727e-10
2.96727e-10
2.96727e-10
2.96727e-10
2.96727e-10
2.96727e-10
2.96727e-10
2.96727e-10
2.96727e-10
2.96727e-10
2.96727e-10
2.96727e-10
2.96727e-10
2.96727e-10
2.96727e-10
2.96727e-10
2.96727e-10
2.96727e-10
2.96727e-10
2.96727e-10
2.96727e-10
2.96727e-10
2.96727e-10
2.96727e-10
2.96727e-10
2.96727e-10
2.96727e-10
2.96727e-10
2.96727e-10
2.96727e-10
2.96727e-10
2.96727e-10
2.96727e-10
2.96727e-10
2.96727e-10
2.96727e-10
2.96727e-10
2.96727e-10
2.96727e-10
2.96727e-10
2.96727e-10
2.96727e-10
2.96727e-10
2.96727e-10
2.96727e-10
2.96727e-10
2.96727e-10
2.96727e-10
2.96727e-10
2.96727e-10
2.96727e-10
2.96727e-10
2.96727e-10
2.96727e-10
2.96727e-10
2.96727e-10
2.96727e-10
2.96727e-10
2.96727e-10
2.96727e-10
2.96727e-10
2.96727e-10
2.96727e-10
2.96727e-10
2.96727e-10
2.96727e-10
2.96727e-10
2.96727e-10
2.96727e-10
2.96727e-10
2.96727e-10
2.96727e-10
2.96727e-10
2.96727e-10
2.96727e-10
2.96727e-10
2.96727e-10
2.96727e-10
)
;

boundaryField
{
    inlet
    {
        type            calculated;
        value           uniform -1.13622e-09;
    }
    outlet
    {
        type            calculated;
        value           uniform 2.96727e-10;
    }
    emptyWalls
    {
        type            empty;
        value           nonuniform List<scalar> 0();
    }
}


// ************************************************************************* //
