/*--------------------------------*- C++ -*----------------------------------*\
  =========                 |
  \\      /  F ield         | OpenFOAM: The Open Source CFD Toolbox
   \\    /   O peration     | Website:  https://openfoam.org
    \\  /    A nd           | Version:  9
     \\/     M anipulation  |
\*---------------------------------------------------------------------------*/
FoamFile
{
    format      ascii;
    class       volScalarField;
    location    "6300";
    object      krc;
}
// * * * * * * * * * * * * * * * * * * * * * * * * * * * * * * * * * * * * * //

dimensions      [0 0 0 0 0 0 0];

internalField   nonuniform List<scalar> 
1000
(
1.59724e-06
1.79776e-05
5.24142e-05
9.74839e-05
0.000148748
0.00021391
0.00038051
0.00117253
0.0106714
0.0370436
0.0451115
0.0482863
0.0501661
0.0515224
0.0525919
0.0534701
0.0542241
0.0549019
0.0555608
0.0562558
0.0570939
0.0580917
0.0593335
0.060901
0.0627906
0.0649134
0.0671731
0.0695091
0.0718866
0.074284
0.0766887
0.0790922
0.081489
0.0838758
0.0862502
0.0886104
0.0909559
0.0932856
0.0955989
0.0978959
0.100176
0.10244
0.104687
0.106917
0.109131
0.111329
0.11351
0.115676
0.117826
0.119961
0.12208
0.124184
0.126274
0.128349
0.130411
0.132458
0.134491
0.136511
0.138517
0.140511
0.142492
0.14446
0.146416
0.148361
0.150293
0.152214
0.154123
0.156021
0.157909
0.159785
0.161651
0.163507
0.165353
0.167189
0.169015
0.170831
0.172638
0.174436
0.176225
0.178005
0.179776
0.181538
0.183292
0.185038
0.186776
0.188506
0.190228
0.191943
0.193651
0.195351
0.197045
0.198733
0.200413
0.202088
0.203757
0.205419
0.207076
0.208727
0.210373
0.212013
0.213647
0.215277
0.2169
0.218519
0.220132
0.221739
0.223342
0.224939
0.226531
0.228119
0.229702
0.23128
0.232853
0.234422
0.235987
0.237548
0.239105
0.240658
0.242207
0.243753
0.245295
0.246834
0.24837
0.249902
0.251432
0.252958
0.254482
0.256003
0.257522
0.259037
0.260551
0.262062
0.26357
0.265077
0.266581
0.268083
0.269583
0.271082
0.272578
0.274073
0.275567
0.277059
0.278549
0.280038
0.281526
0.283013
0.284498
0.285983
0.287467
0.28895
0.290432
0.291914
0.293395
0.294876
0.296357
0.297837
0.299317
0.300798
0.302278
0.303759
0.305239
0.30672
0.308202
0.309684
0.311167
0.312651
0.314136
0.315622
0.317109
0.318597
0.320087
0.321578
0.323071
0.324565
0.326062
0.32756
0.329061
0.330564
0.332069
0.333577
0.335088
0.336601
0.338117
0.339637
0.341159
0.342685
0.344215
0.345748
0.347286
0.348827
0.350372
0.351923
0.353477
0.355037
0.356601
0.358171
0.359746
0.361327
0.362913
0.364506
0.366105
0.367711
0.369323
0.370942
0.372568
0.374202
0.375844
0.377494
0.379152
0.380819
0.382495
0.384181
0.385876
0.387581
0.389296
0.391021
0.392757
0.394505
0.396264
0.398035
0.399818
0.401613
0.40342
0.405239
0.40707
0.408913
0.410767
0.412631
0.414504
0.416382
0.418264
0.420146
0.422021
0.423885
0.425729
0.427542
0.429314
0.431033
0.432685
0.43426
0.435749
0.43715
0.438474
0.439752
0.44105
0.442497
0.444324
0.446932
0.450993
0.457567
0.468154
0.48445
0.507455
0.536004
0.566037
0.592372
0.611829
0.624356
0.631687
0.635725
0.637876
0.638999
0.639578
0.639875
0.640025
0.640102
0.640141
0.640161
0.640171
0.640177
0.640182
0.640187
0.640193
0.640199
0.640206
0.640213
0.640222
0.640231
0.640241
0.640251
0.640261
0.640271
0.640282
0.640292
0.640301
0.64031
0.640319
0.640327
0.640334
0.640341
0.640346
0.640352
0.640356
0.640359
0.640362
0.640364
0.640366
0.640366
0.640367
0.640367
0.640367
0.640367
0.640366
0.640365
0.640364
0.640362
0.640361
0.64036
0.640358
0.640357
0.640356
0.640355
0.640354
0.640354
0.640353
0.640353
0.640352
0.640352
0.640352
0.640352
0.640353
0.640353
0.640354
0.640355
0.640356
0.640357
0.640358
0.64036
0.640361
0.640363
0.640364
0.640366
0.640368
0.64037
0.640372
0.640374
0.640376
0.640378
0.64038
0.640382
0.640384
0.640386
0.640389
0.640391
0.640393
0.640395
0.640397
0.640399
0.640402
0.640404
0.640406
0.640408
0.64041
0.640411
0.640413
0.640415
0.640417
0.640418
0.64042
0.640422
0.640423
0.640424
0.640426
0.640427
0.640428
0.640429
0.640431
0.640432
0.640433
0.640434
0.640435
0.640436
0.640436
0.640437
0.640438
0.640439
0.640439
0.64044
0.640441
0.640441
0.640442
0.640443
0.640443
0.640444
0.640444
0.640444
0.640445
0.640445
0.640446
0.640446
0.640446
0.640446
0.640447
0.640447
0.640447
0.640447
0.640447
0.640447
0.640447
0.640447
0.640447
0.640446
0.640446
0.640445
0.640445
0.640444
0.640444
0.640443
0.640442
0.640442
0.640441
0.64044
0.640439
0.640438
0.640437
0.640436
0.640435
0.640433
0.640432
0.640431
0.64043
0.640428
0.640427
0.640425
0.640424
0.640422
0.640421
0.640419
0.640418
0.640416
0.640414
0.640413
0.640411
0.640409
0.640407
0.640405
0.640404
0.640401
0.640399
0.640397
0.640395
0.640393
0.64039
0.640388
0.640385
0.640382
0.640379
0.640376
0.640372
0.640369
0.640365
0.640361
0.640356
0.640352
0.640347
0.640342
0.640336
0.640331
0.640325
0.640319
0.640313
0.640306
0.6403
0.640293
0.640287
0.64028
0.640273
0.640267
0.640261
0.640255
0.640249
0.640243
0.640238
0.640234
0.640229
0.640226
0.640223
0.640221
0.64022
0.640219
0.640219
0.640219
0.640219
0.640221
0.640224
0.640228
0.640233
0.640239
0.640245
0.640251
0.640258
0.640265
0.640273
0.64028
0.640288
0.640296
0.640303
0.64031
0.640317
0.640324
0.640331
0.640336
0.640342
0.640347
0.640351
0.640355
0.640358
0.640361
0.640363
0.640365
0.640366
0.640367
0.640368
0.640368
0.640369
0.640369
0.640368
0.640368
0.640368
0.640367
0.640367
0.640366
0.640366
0.640365
0.640365
0.640365
0.640365
0.640364
0.640364
0.640364
0.640364
0.640364
0.640365
0.640365
0.640366
0.640366
0.640367
0.640368
0.640369
0.64037
0.640371
0.640372
0.640373
0.640375
0.640376
0.640377
0.640379
0.64038
0.640382
0.640383
0.640385
0.640386
0.640388
0.640389
0.640391
0.640393
0.640394
0.640396
0.640398
0.640399
0.640401
0.640402
0.640404
0.640406
0.640407
0.640409
0.640411
0.640412
0.640414
0.640415
0.640417
0.640418
0.640419
0.640421
0.640422
0.640423
0.640424
0.640425
0.640427
0.640428
0.640429
0.64043
0.64043
0.640431
0.640432
0.640433
0.640433
0.640434
0.640435
0.640435
0.640436
0.640436
0.640436
0.640437
0.640437
0.640438
0.640438
0.640438
0.640438
0.640438
0.640438
0.640438
0.640439
0.640439
0.640439
0.640439
0.640439
0.640439
0.640439
0.640439
0.640439
0.640438
0.640438
0.640438
0.640438
0.640438
0.640437
0.640437
0.640437
0.640436
0.640436
0.640436
0.640435
0.640435
0.640434
0.640433
0.640433
0.640432
0.640431
0.64043
0.640429
0.640428
0.640427
0.640426
0.640425
0.640423
0.640422
0.640421
0.640419
0.640417
0.640416
0.640414
0.640412
0.64041
0.640408
0.640406
0.640404
0.640402
0.6404
0.640397
0.640395
0.640392
0.640389
0.640386
0.640383
0.64038
0.640377
0.640373
0.64037
0.640366
0.640362
0.640358
0.640354
0.640349
0.640345
0.64034
0.640335
0.64033
0.640325
0.640319
0.640314
0.640309
0.640303
0.640297
0.640292
0.640286
0.64028
0.640274
0.640269
0.640264
0.640258
0.640253
0.640249
0.640244
0.64024
0.640236
0.640233
0.64023
0.640227
0.640226
0.640224
0.640224
0.640223
0.640224
0.640224
0.640225
0.640227
0.64023
0.640233
0.640237
0.640242
0.640247
0.640252
0.640258
0.640264
0.640271
0.640277
0.640284
0.64029
0.640297
0.640303
0.64031
0.640316
0.640322
0.640328
0.640333
0.640338
0.640343
0.640348
0.640352
0.640355
0.640359
0.640362
0.640365
0.640367
0.640369
0.640371
0.640373
0.640374
0.640375
0.640376
0.640377
0.640378
0.640379
0.640379
0.64038
0.64038
0.640381
0.640381
0.640382
0.640382
0.640382
0.640383
0.640383
0.640384
0.640385
0.640385
0.640386
0.640386
0.640387
0.640388
0.640389
0.64039
0.640391
0.640391
0.640392
0.640393
0.640394
0.640395
0.640396
0.640397
0.640399
0.6404
0.640401
0.640402
0.640403
0.640404
0.640405
0.640406
0.640408
0.640409
0.64041
0.640411
0.640412
0.640413
0.640414
0.640415
0.640417
0.640418
0.640419
0.64042
0.640421
0.640422
0.640423
0.640424
0.640425
0.640426
0.640427
0.640428
0.640429
0.64043
0.640431
0.640432
0.640433
0.640433
0.640434
0.640435
0.640436
0.640436
0.640437
0.640438
0.640438
0.640439
0.640439
0.64044
0.64044
0.640441
0.640441
0.640441
0.640441
0.640442
0.640442
0.640442
0.640442
0.640442
0.640442
0.640442
0.640442
0.640442
0.640442
0.640442
0.640442
0.640441
0.640441
0.640441
0.640441
0.64044
0.64044
0.64044
0.640439
0.640439
0.640439
0.640438
0.640438
0.640437
0.640437
0.640436
0.640436
0.640435
0.640435
0.640434
0.640434
0.640433
0.640432
0.640431
0.640431
0.64043
0.640429
0.640428
0.640427
0.640426
0.640424
0.640423
0.640422
0.64042
0.640419
0.640417
0.640416
0.640414
0.640412
0.64041
0.640407
0.640405
0.640403
0.6404
0.640397
0.640394
0.640391
0.640388
0.640385
0.640381
0.640377
0.640374
0.64037
0.640366
0.640361
0.640357
0.640352
0.640348
0.640343
0.640338
0.640333
0.640328
0.640323
0.640317
0.640312
0.640307
0.640301
0.640296
0.640291
0.640286
0.640281
0.640276
0.640271
0.640267
0.640263
0.640259
0.640255
0.640252
0.640249
0.640246
0.640244
0.640243
0.640242
0.640241
0.640241
0.640241
0.640241
0.640241
0.640243
0.640246
0.640249
0.640252
0.640256
0.64026
0.640265
0.64027
0.640275
0.64028
0.640286
0.640292
0.640298
0.640304
0.64031
0.640316
0.640321
0.640327
0.640333
0.640338
0.640343
0.640348
0.640352
0.640357
0.640361
0.640364
0.640368
0.640371
0.640373
0.640376
0.640378
0.64038
0.640382
0.640384
0.640385
0.640386
0.640387
0.640388
0.640389
0.640389
0.64039
0.64039
0.640391
0.640391
0.640391
0.640392
0.640392
0.640392
0.640392
0.640392
0.640392
0.640393
0.640393
0.640393
0.640394
0.640394
0.640394
0.640394
0.640394
0.640395
0.640395
0.640396
0.640396
0.640396
0.640397
0.640397
0.640397
0.640398
0.640398
0.640399
0.640399
0.640399
0.6404
0.6404
0.6404
0.640401
0.640401
0.640402
0.640402
0.640403
0.640403
0.640403
0.640404
0.640404
0.640404
0.640405
0.640406
0.640406
0.640406
0.640407
0.640407
)
;

boundaryField
{
    inlet
    {
        type            calculated;
        value           uniform 3.08149e-33;
    }
    outlet
    {
        type            calculated;
        value           uniform 0.640407;
    }
    emptyWalls
    {
        type            empty;
    }
}


// ************************************************************************* //
