/*--------------------------------*- C++ -*----------------------------------*\
  =========                 |
  \\      /  F ield         | OpenFOAM: The Open Source CFD Toolbox
   \\    /   O peration     | Website:  https://openfoam.org
    \\  /    A nd           | Version:  9
     \\/     M anipulation  |
\*---------------------------------------------------------------------------*/
FoamFile
{
    format      ascii;
    class       volScalarField;
    location    "7400";
    object      kra;
}
// * * * * * * * * * * * * * * * * * * * * * * * * * * * * * * * * * * * * * //

dimensions      [0 0 0 0 0 0 0];

internalField   nonuniform List<scalar> 
1000
(
0.000237734
0.000241443
0.000245416
0.000249176
0.00025259
0.000255689
0.000258569
0.000262852
0.000274926
0.000326396
0.000630928
0.000859441
0.000902184
0.00091644
0.000923084
0.000926909
0.000928759
0.000930247
0.000930898
0.000931332
0.000931301
0.000931127
0.000930728
0.000929534
0.000928566
0.000927275
0.000925473
0.00092221
0.000917618
0.000911734
0.000905139
0.000898088
0.000890718
0.000883065
0.000875098
0.000866764
0.000858027
0.000848897
0.00083944
0.000829775
0.000820053
0.000810441
0.000801091
0.000792134
0.00078366
0.000775719
0.00076832
0.00076144
0.000755031
0.000749029
0.000743363
0.000737963
0.000732762
0.000727706
0.000722748
0.000717855
0.000713004
0.000708181
0.00070338
0.000698603
0.000693855
0.000689141
0.00068447
0.000679849
0.000675285
0.000670784
0.000666348
0.00066198
0.000657683
0.000653455
0.000649297
0.000645207
0.000641183
0.000637225
0.000633329
0.000629495
0.00062572
0.000622003
0.000618341
0.000614733
0.000611178
0.000607673
0.000604219
0.000600813
0.000597454
0.000594141
0.000590873
0.000587649
0.000584468
0.000581329
0.000578233
0.000575177
0.000572163
0.000569189
0.000566255
0.000563361
0.000560507
0.000557692
0.000554915
0.000552177
0.000549477
0.000546813
0.000544186
0.000541595
0.000539039
0.000536518
0.00053403
0.000531574
0.000529151
0.000526759
0.000524397
0.000522065
0.000519762
0.000517486
0.000515238
0.000513017
0.000510821
0.00050865
0.000506504
0.000504381
0.000502281
0.000500204
0.000498149
0.000496115
0.000494101
0.000492109
0.000490136
0.000488184
0.000486251
0.000484337
0.000482443
0.000480566
0.000478708
0.000476867
0.000475043
0.000473235
0.000471444
0.000469668
0.000467908
0.000466165
0.00046444
0.000462732
0.000461042
0.000459371
0.000457719
0.000456085
0.000454471
0.000452874
0.000451296
0.000449735
0.000448193
0.000446671
0.000445168
0.000443689
0.000442235
0.000440808
0.000439413
0.000438051
0.000436726
0.00043544
0.000434195
0.000432992
0.00043183
0.000430709
0.000429626
0.000428577
0.00042756
0.000426567
0.000425594
0.000424632
0.000423673
0.000422709
0.000421729
0.000420725
0.000419686
0.000418603
0.000417468
0.000416272
0.00041501
0.000413677
0.00041227
0.000410791
0.000409241
0.000407625
0.000405952
0.00040423
0.000402472
0.000400688
0.000398893
0.000397097
0.000395316
0.000393557
0.000391833
0.000390151
0.000388516
0.000386933
0.000385404
0.00038393
0.00038251
0.000381141
0.000379821
0.000378545
0.000377308
0.000376106
0.000374933
0.000373785
0.000372657
0.000371545
0.000370444
0.000369351
0.000368264
0.000367179
0.000366095
0.000365011
0.000363924
0.000362835
0.000361742
0.000360647
0.000359549
0.000358448
0.000357345
0.000356239
0.000355136
0.000354027
0.000352926
0.000351814
0.00035072
0.000349607
0.000348523
0.00034741
0.000346337
0.000345226
0.000344165
0.000343059
0.000342007
0.000340912
0.000339864
0.000338785
0.000337735
0.000336678
0.000335623
0.000334587
0.000333532
0.000332507
0.000331462
0.000330438
0.00032941
0.000328384
0.000327372
0.000326348
0.000325344
0.00032433
0.000323325
0.000322325
0.00032132
0.000320329
0.000319332
0.000318343
0.000317358
0.000316369
0.000315394
0.000314413
0.00031344
0.000312472
0.000311502
0.000310545
0.000309585
0.000308633
0.000307691
0.000306747
0.00030582
0.000304895
0.000303982
0.000303086
0.000302195
0.000301333
0.000300482
0.00029966
0.000298867
0.0002981
0.000297382
0.000296694
0.00029606
0.000295471
0.000294929
0.00029444
0.000293978
0.000293548
0.000293099
0.000292587
0.000291911
0.000290901
0.000289308
0.000286718
0.000282665
0.000276746
0.000269137
0.000260975
0.000253977
0.000249252
0.000246613
0.000245328
0.000244727
0.000244456
0.00024434
0.00024429
0.000244289
0.000244293
0.000244311
0.000244334
0.000244359
0.000244386
0.000244413
0.000244441
0.000244469
0.000244498
0.000244527
0.000244556
0.000244587
0.000244617
0.000244648
0.00024468
0.000244713
0.000244746
0.000244782
0.000244817
0.000244855
0.000244893
0.000244934
0.000244975
0.00024502
0.000245066
0.000245116
0.000245167
0.000245223
0.000245282
0.000245346
0.000245413
0.000245486
0.000245563
0.000245647
0.000245736
0.000245833
0.000245935
0.000246046
0.000246162
0.000246286
0.000246417
0.000246556
0.0002467
0.000246852
0.000247009
0.000247171
0.000247337
0.000247508
0.00024768
0.000247854
0.000248026
0.000248198
0.000248366
0.00024853
0.000248686
0.000248834
0.000248971
0.000249096
0.000249205
0.000249299
0.000249373
0.000249428
0.00024946
0.000249474
0.000249475
0.000249472
0.000249457
0.000249389
0.000249296
0.000249183
0.000249051
0.000248903
0.00024874
0.000248564
0.000248378
0.000248184
0.000247984
0.000247781
0.000247578
0.000247376
0.000247179
0.000246988
0.000246804
0.000246631
0.000246468
0.000246317
0.000246178
0.000246053
0.000245941
0.000245842
0.000245756
0.000245683
0.000245621
0.00024557
0.000245529
0.000245498
0.000245474
0.000245458
0.000245447
0.000245442
0.00024544
0.00024544
0.00024544
0.000245445
0.000245452
0.00024546
0.000245466
0.000245472
0.000245475
0.000245477
0.000245478
0.000245477
0.000245477
0.000245471
0.000245461
0.000245449
0.000245434
0.000245416
0.000245396
0.000245374
0.00024535
0.000245323
0.000245295
0.000245266
0.000245234
0.000245202
0.000245168
0.000245134
0.000245098
0.000245062
0.000245026
0.000244989
0.000244952
0.000244915
0.000244878
0.000244841
0.000244804
0.000244768
0.000244732
0.000244697
0.000244662
0.000244628
0.000244595
0.000244563
0.000244531
0.000244501
0.000244471
0.000244442
0.000244414
0.000244387
0.000244361
0.000244335
0.000244311
0.000244287
0.000244265
0.000244243
0.000244222
0.000244202
0.000244183
0.000244164
0.000244146
0.000244129
0.000244113
0.000244097
0.000244082
0.000244067
0.000244053
0.00024404
0.000244028
0.000244016
0.000244005
0.000243994
0.000243985
0.000243976
0.000243967
0.00024396
0.000243953
0.000243947
0.000243943
0.000243939
0.000243936
0.000243934
0.000243933
0.000243933
0.000243933
0.000243933
0.000243936
0.000243941
0.000243946
0.000243954
0.000243961
0.000243971
0.000243981
0.000243993
0.000244006
0.00024402
0.000244035
0.000244052
0.000244069
0.000244087
0.000244106
0.000244127
0.000244147
0.000244169
0.000244191
0.000244215
0.000244238
0.000244263
0.000244288
0.000244313
0.000244339
0.000244365
0.000244391
0.000244418
0.000244445
0.000244473
0.000244501
0.000244529
0.000244557
0.000244586
0.000244615
0.000244645
0.000244676
0.000244707
0.000244738
0.000244771
0.000244804
0.000244839
0.000244875
0.000244912
0.000244951
0.000244991
0.000245034
0.000245079
0.000245126
0.000245176
0.000245229
0.000245286
0.000245345
0.000245409
0.000245476
0.000245549
0.000245625
0.000245706
0.000245792
0.000245883
0.000245978
0.000246079
0.000246185
0.000246296
0.000246411
0.000246531
0.000246654
0.000246782
0.000246913
0.000247046
0.000247181
0.000247318
0.000247454
0.000247591
0.000247725
0.000247857
0.000247986
0.000248109
0.000248227
0.000248337
0.000248439
0.000248532
0.000248614
0.000248685
0.000248743
0.000248787
0.000248817
0.000248832
0.000248835
0.000248835
0.00024883
0.000248798
0.000248738
0.000248663
0.000248573
0.000248471
0.000248356
0.00024823
0.000248095
0.000247952
0.000247803
0.000247649
0.000247493
0.000247336
0.000247178
0.000247023
0.000246872
0.000246725
0.000246584
0.00024645
0.000246323
0.000246205
0.000246096
0.000245995
0.000245904
0.000245822
0.000245749
0.000245685
0.00024563
0.000245582
0.000245542
0.000245508
0.000245481
0.000245459
0.000245443
0.00024543
0.000245422
0.000245416
0.000245413
0.000245411
0.000245411
0.000245411
0.000245411
0.000245412
0.000245413
0.000245413
0.000245413
0.000245413
0.000245411
0.000245406
0.000245399
0.000245389
0.000245378
0.000245364
0.000245348
0.00024533
0.00024531
0.000245288
0.000245264
0.000245239
0.000245211
0.000245182
0.000245152
0.000245121
0.000245088
0.000245054
0.00024502
0.000244985
0.000244949
0.000244913
0.000244876
0.000244839
0.000244802
0.000244765
0.000244728
0.000244692
0.000244655
0.000244619
0.000244584
0.000244549
0.000244515
0.000244481
0.000244448
0.000244416
0.000244385
0.000244355
0.000244325
0.000244297
0.000244269
0.000244242
0.000244217
0.000244192
0.000244168
0.000244145
0.000244123
0.000244102
0.000244081
0.000244062
0.000244043
0.000244025
0.000244008
0.000243992
0.000243976
0.000243961
0.000243947
0.000243933
0.00024392
0.000243908
0.000243897
0.000243886
0.000243875
0.000243865
0.000243856
0.000243848
0.00024384
0.000243833
0.000243827
0.000243821
0.000243816
0.000243812
0.000243809
0.000243806
0.000243804
0.000243804
0.000243804
0.000243804
0.000243804
0.000243806
0.00024381
0.000243815
0.000243821
0.000243828
0.000243837
0.000243846
0.000243857
0.000243868
0.000243881
0.000243895
0.000243911
0.000243927
0.000243945
0.000243963
0.000243983
0.000244004
0.000244026
0.000244049
0.000244073
0.000244098
0.000244125
0.000244152
0.000244181
0.00024421
0.000244241
0.000244272
0.000244306
0.000244339
0.000244375
0.000244411
0.000244449
0.000244488
0.000244529
0.000244571
0.000244615
0.00024466
0.000244708
0.000244757
0.000244809
0.000244863
0.00024492
0.000244978
0.00024504
0.000245105
0.000245172
0.000245243
0.000245317
0.000245394
0.000245476
0.00024556
0.000245648
0.00024574
0.000245836
0.000245935
0.000246037
0.000246143
0.000246253
0.000246365
0.00024648
0.000246598
0.000246718
0.000246839
0.000246962
0.000247085
0.000247209
0.000247332
0.000247455
0.000247575
0.000247693
0.000247808
0.000247919
0.000248025
0.000248126
0.00024822
0.000248307
0.000248386
0.000248457
0.000248518
0.000248569
0.00024861
0.00024864
0.000248657
0.000248664
0.000248665
0.000248663
0.000248655
0.000248618
0.000248567
0.000248505
0.000248432
0.00024835
0.000248258
0.000248159
0.000248053
0.00024794
0.000247823
0.000247702
0.000247579
0.000247454
0.000247328
0.000247204
0.000247081
0.000246961
0.000246844
0.000246731
0.000246623
0.000246521
0.000246424
0.000246333
0.000246248
0.00024617
0.000246098
0.000246032
0.000245973
0.000245919
0.000245871
0.000245828
0.00024579
0.000245757
0.000245728
0.000245703
0.000245681
0.000245662
0.000245646
0.000245632
0.000245619
0.000245608
0.000245598
0.000245589
0.000245579
0.00024557
0.000245561
0.000245551
0.000245541
0.00024553
0.000245518
0.000245505
0.00024549
0.000245475
0.000245458
0.000245439
0.00024542
0.000245399
0.000245376
0.000245352
0.000245327
0.000245301
0.000245273
0.000245245
0.000245215
0.000245184
0.000245152
0.000245119
0.000245086
0.000245052
0.000245017
0.000244982
0.000244946
0.000244911
0.000244874
0.000244838
0.000244801
0.000244765
0.000244728
0.000244692
0.000244656
0.000244621
0.000244585
0.00024455
0.000244516
0.000244482
0.000244449
0.000244417
0.000244385
0.000244355
0.000244325
0.000244296
0.000244268
0.000244241
0.000244215
0.00024419
0.000244166
0.000244143
0.000244121
0.0002441
0.000244081
0.000244062
0.000244044
0.000244028
0.000244012
0.000243998
0.000243984
0.000243972
0.00024396
0.00024395
0.00024394
0.000243931
0.000243923
0.000243916
0.000243909
0.000243904
0.000243899
0.000243895
0.000243892
0.000243889
0.000243887
0.000243886
0.000243886
0.000243886
0.000243886
0.000243887
0.000243889
0.000243892
0.000243896
0.000243901
0.000243906
0.000243913
0.00024392
0.000243928
0.000243937
0.000243947
0.000243958
0.000243971
0.000243984
0.000243998
0.000244014
0.000244031
0.000244049
0.000244068
0.000244089
0.000244111
0.000244135
0.00024416
0.000244186
0.000244215
0.000244244
0.000244276
0.000244309
0.000244344
0.000244381
0.000244419
0.00024446
0.000244502
0.000244546
0.000244593
0.000244641
0.000244692
0.000244745
0.000244801
0.000244858
0.000244918
0.000244981
0.000245046
0.000245114
0.000245185
0.000245258
0.000245334
0.000245414
0.000245495
0.00024558
0.000245667
0.000245758
0.000245851
0.000245947
0.000246045
0.000246147
0.000246249
0.000246356
0.000246463
0.000246573
0.000246684
0.000246797
0.00024691
0.000247024
0.000247138
0.000247252
0.000247365
0.000247478
0.000247589
0.000247695
0.000247806
0.000247899
0.000248013
0.000248085
0.000248203
0.000248252
0.000248367
0.000248395
0.000248522
)
;

boundaryField
{
    inlet
    {
        type            calculated;
        value           uniform 0.000236304;
    }
    outlet
    {
        type            calculated;
        value           uniform 0.000248504;
    }
    emptyWalls
    {
        type            empty;
    }
}


// ************************************************************************* //
