/*--------------------------------*- C++ -*----------------------------------*\
  =========                 |
  \\      /  F ield         | OpenFOAM: The Open Source CFD Toolbox
   \\    /   O peration     | Website:  https://openfoam.org
    \\  /    A nd           | Version:  9
     \\/     M anipulation  |
\*---------------------------------------------------------------------------*/
FoamFile
{
    format      ascii;
    class       volVectorField;
    location    "7400";
    object      Ub;
}
// * * * * * * * * * * * * * * * * * * * * * * * * * * * * * * * * * * * * * //

dimensions      [0 0 0 0 0 0 0];

internalField   nonuniform List<vector> 
1000
(
(1.13624e-05 0 0)
(1.13632e-05 0 0)
(1.13636e-05 0 0)
(1.13642e-05 0 0)
(1.13648e-05 0 0)
(1.13655e-05 0 0)
(1.13665e-05 0 0)
(1.13692e-05 0 0)
(1.13788e-05 0 0)
(1.14295e-05 0 0)
(1.1598e-05 0 0)
(1.17455e-05 0 0)
(1.17745e-05 0 0)
(1.17844e-05 0 0)
(1.17899e-05 0 0)
(1.17933e-05 0 0)
(1.17955e-05 0 0)
(1.17966e-05 0 0)
(1.17968e-05 0 0)
(1.17966e-05 0 0)
(1.1796e-05 0 0)
(1.1795e-05 0 0)
(1.17938e-05 0 0)
(1.17918e-05 0 0)
(1.17883e-05 0 0)
(1.17828e-05 0 0)
(1.17751e-05 0 0)
(1.17649e-05 0 0)
(1.17524e-05 0 0)
(1.17385e-05 0 0)
(1.17241e-05 0 0)
(1.17096e-05 0 0)
(1.16952e-05 0 0)
(1.16811e-05 0 0)
(1.16676e-05 0 0)
(1.1655e-05 0 0)
(1.16434e-05 0 0)
(1.16329e-05 0 0)
(1.16233e-05 0 0)
(1.16145e-05 0 0)
(1.16061e-05 0 0)
(1.15978e-05 0 0)
(1.15893e-05 0 0)
(1.15804e-05 0 0)
(1.15707e-05 0 0)
(1.15601e-05 0 0)
(1.15486e-05 0 0)
(1.15362e-05 0 0)
(1.1523e-05 0 0)
(1.15091e-05 0 0)
(1.14946e-05 0 0)
(1.14797e-05 0 0)
(1.14646e-05 0 0)
(1.14493e-05 0 0)
(1.14339e-05 0 0)
(1.14186e-05 0 0)
(1.14033e-05 0 0)
(1.13882e-05 0 0)
(1.13731e-05 0 0)
(1.13582e-05 0 0)
(1.13434e-05 0 0)
(1.13287e-05 0 0)
(1.1314e-05 0 0)
(1.12993e-05 0 0)
(1.12847e-05 0 0)
(1.127e-05 0 0)
(1.12554e-05 0 0)
(1.12407e-05 0 0)
(1.12259e-05 0 0)
(1.12112e-05 0 0)
(1.11963e-05 0 0)
(1.11815e-05 0 0)
(1.11665e-05 0 0)
(1.11516e-05 0 0)
(1.11365e-05 0 0)
(1.11215e-05 0 0)
(1.11064e-05 0 0)
(1.10912e-05 0 0)
(1.1076e-05 0 0)
(1.10607e-05 0 0)
(1.10454e-05 0 0)
(1.10301e-05 0 0)
(1.10147e-05 0 0)
(1.09993e-05 0 0)
(1.09838e-05 0 0)
(1.09683e-05 0 0)
(1.09528e-05 0 0)
(1.09372e-05 0 0)
(1.09216e-05 0 0)
(1.09059e-05 0 0)
(1.08902e-05 0 0)
(1.08745e-05 0 0)
(1.08587e-05 0 0)
(1.08428e-05 0 0)
(1.08269e-05 0 0)
(1.0811e-05 0 0)
(1.0795e-05 0 0)
(1.07789e-05 0 0)
(1.07628e-05 0 0)
(1.07467e-05 0 0)
(1.07305e-05 0 0)
(1.07142e-05 0 0)
(1.06979e-05 0 0)
(1.06815e-05 0 0)
(1.06651e-05 0 0)
(1.06486e-05 0 0)
(1.0632e-05 0 0)
(1.06154e-05 0 0)
(1.05988e-05 0 0)
(1.05821e-05 0 0)
(1.05653e-05 0 0)
(1.05485e-05 0 0)
(1.05316e-05 0 0)
(1.05147e-05 0 0)
(1.04977e-05 0 0)
(1.04807e-05 0 0)
(1.04636e-05 0 0)
(1.04465e-05 0 0)
(1.04294e-05 0 0)
(1.04122e-05 0 0)
(1.03949e-05 0 0)
(1.03776e-05 0 0)
(1.03603e-05 0 0)
(1.03429e-05 0 0)
(1.03254e-05 0 0)
(1.0308e-05 0 0)
(1.02904e-05 0 0)
(1.02729e-05 0 0)
(1.02552e-05 0 0)
(1.02376e-05 0 0)
(1.02199e-05 0 0)
(1.02021e-05 0 0)
(1.01843e-05 0 0)
(1.01665e-05 0 0)
(1.01486e-05 0 0)
(1.01306e-05 0 0)
(1.01126e-05 0 0)
(1.00946e-05 0 0)
(1.00765e-05 0 0)
(1.00584e-05 0 0)
(1.00402e-05 0 0)
(1.0022e-05 0 0)
(1.00037e-05 0 0)
(9.98535e-06 0 0)
(9.96693e-06 0 0)
(9.94845e-06 0 0)
(9.9299e-06 0 0)
(9.9113e-06 0 0)
(9.89262e-06 0 0)
(9.87388e-06 0 0)
(9.85507e-06 0 0)
(9.83619e-06 0 0)
(9.81723e-06 0 0)
(9.79818e-06 0 0)
(9.77904e-06 0 0)
(9.75979e-06 0 0)
(9.74043e-06 0 0)
(9.72093e-06 0 0)
(9.7013e-06 0 0)
(9.68152e-06 0 0)
(9.66158e-06 0 0)
(9.64149e-06 0 0)
(9.62124e-06 0 0)
(9.60083e-06 0 0)
(9.58027e-06 0 0)
(9.55956e-06 0 0)
(9.53873e-06 0 0)
(9.51779e-06 0 0)
(9.49676e-06 0 0)
(9.47566e-06 0 0)
(9.45452e-06 0 0)
(9.43337e-06 0 0)
(9.41225e-06 0 0)
(9.39118e-06 0 0)
(9.37019e-06 0 0)
(9.34932e-06 0 0)
(9.32859e-06 0 0)
(9.30804e-06 0 0)
(9.28767e-06 0 0)
(9.26751e-06 0 0)
(9.24757e-06 0 0)
(9.22783e-06 0 0)
(9.2083e-06 0 0)
(9.18896e-06 0 0)
(9.16977e-06 0 0)
(9.15071e-06 0 0)
(9.13174e-06 0 0)
(9.1128e-06 0 0)
(9.09387e-06 0 0)
(9.0749e-06 0 0)
(9.05583e-06 0 0)
(9.03663e-06 0 0)
(9.01727e-06 0 0)
(8.99772e-06 0 0)
(8.97795e-06 0 0)
(8.95794e-06 0 0)
(8.93769e-06 0 0)
(8.9172e-06 0 0)
(8.89646e-06 0 0)
(8.87548e-06 0 0)
(8.85427e-06 0 0)
(8.83284e-06 0 0)
(8.81121e-06 0 0)
(8.78939e-06 0 0)
(8.7674e-06 0 0)
(8.74525e-06 0 0)
(8.72296e-06 0 0)
(8.70054e-06 0 0)
(8.67801e-06 0 0)
(8.65536e-06 0 0)
(8.63263e-06 0 0)
(8.6098e-06 0 0)
(8.58688e-06 0 0)
(8.56389e-06 0 0)
(8.54081e-06 0 0)
(8.51766e-06 0 0)
(8.49443e-06 0 0)
(8.47111e-06 0 0)
(8.44771e-06 0 0)
(8.42423e-06 0 0)
(8.40065e-06 0 0)
(8.37698e-06 0 0)
(8.35321e-06 0 0)
(8.32934e-06 0 0)
(8.30536e-06 0 0)
(8.28126e-06 0 0)
(8.25705e-06 0 0)
(8.23271e-06 0 0)
(8.20825e-06 0 0)
(8.18366e-06 0 0)
(8.15893e-06 0 0)
(8.13406e-06 0 0)
(8.10904e-06 0 0)
(8.08389e-06 0 0)
(8.05858e-06 0 0)
(8.03312e-06 0 0)
(8.0075e-06 0 0)
(7.98173e-06 0 0)
(7.95579e-06 0 0)
(7.92968e-06 0 0)
(7.90341e-06 0 0)
(7.87695e-06 0 0)
(7.85032e-06 0 0)
(7.82351e-06 0 0)
(7.79652e-06 0 0)
(7.76933e-06 0 0)
(7.74195e-06 0 0)
(7.71438e-06 0 0)
(7.68661e-06 0 0)
(7.65864e-06 0 0)
(7.63046e-06 0 0)
(7.60207e-06 0 0)
(7.57346e-06 0 0)
(7.54462e-06 0 0)
(7.51557e-06 0 0)
(7.48628e-06 0 0)
(7.45676e-06 0 0)
(7.427e-06 0 0)
(7.397e-06 0 0)
(7.36675e-06 0 0)
(7.33625e-06 0 0)
(7.30549e-06 0 0)
(7.27448e-06 0 0)
(7.24321e-06 0 0)
(7.2117e-06 0 0)
(7.17993e-06 0 0)
(7.14792e-06 0 0)
(7.11568e-06 0 0)
(7.08321e-06 0 0)
(7.05056e-06 0 0)
(7.01773e-06 0 0)
(6.98479e-06 0 0)
(6.95178e-06 0 0)
(6.91879e-06 0 0)
(6.88588e-06 0 0)
(6.85318e-06 0 0)
(6.82083e-06 0 0)
(6.78897e-06 0 0)
(6.7578e-06 0 0)
(6.72753e-06 0 0)
(6.69835e-06 0 0)
(6.67049e-06 0 0)
(6.64413e-06 0 0)
(6.61941e-06 0 0)
(6.5964e-06 0 0)
(6.575e-06 0 0)
(6.55487e-06 0 0)
(6.53525e-06 0 0)
(6.51471e-06 0 0)
(6.49063e-06 0 0)
(6.45842e-06 0 0)
(6.41023e-06 0 0)
(6.33297e-06 0 0)
(6.20617e-06 0 0)
(6.00111e-06 0 0)
(5.68583e-06 0 0)
(5.24168e-06 0 0)
(4.68951e-06 0 0)
(4.10224e-06 0 0)
(3.57598e-06 0 0)
(3.17614e-06 0 0)
(2.91171e-06 0 0)
(2.75376e-06 0 0)
(2.66546e-06 0 0)
(2.61799e-06 0 0)
(2.59301e-06 0 0)
(2.58001e-06 0 0)
(2.57328e-06 0 0)
(2.56979e-06 0 0)
(2.56799e-06 0 0)
(2.56704e-06 0 0)
(2.56654e-06 0 0)
(2.56626e-06 0 0)
(2.56609e-06 0 0)
(2.56599e-06 0 0)
(2.56592e-06 0 0)
(2.56586e-06 0 0)
(2.56581e-06 0 0)
(2.56576e-06 0 0)
(2.56572e-06 0 0)
(2.56567e-06 0 0)
(2.56563e-06 0 0)
(2.56558e-06 0 0)
(2.56553e-06 0 0)
(2.56548e-06 0 0)
(2.56543e-06 0 0)
(2.56538e-06 0 0)
(2.56533e-06 0 0)
(2.56527e-06 0 0)
(2.56521e-06 0 0)
(2.56514e-06 0 0)
(2.56508e-06 0 0)
(2.56501e-06 0 0)
(2.56493e-06 0 0)
(2.56485e-06 0 0)
(2.56477e-06 0 0)
(2.56468e-06 0 0)
(2.56458e-06 0 0)
(2.56448e-06 0 0)
(2.56437e-06 0 0)
(2.56425e-06 0 0)
(2.56412e-06 0 0)
(2.56399e-06 0 0)
(2.56384e-06 0 0)
(2.56369e-06 0 0)
(2.56352e-06 0 0)
(2.56335e-06 0 0)
(2.56316e-06 0 0)
(2.56296e-06 0 0)
(2.56276e-06 0 0)
(2.56254e-06 0 0)
(2.56232e-06 0 0)
(2.56209e-06 0 0)
(2.56186e-06 0 0)
(2.56162e-06 0 0)
(2.56137e-06 0 0)
(2.56113e-06 0 0)
(2.56088e-06 0 0)
(2.56064e-06 0 0)
(2.5604e-06 0 0)
(2.56017e-06 0 0)
(2.55995e-06 0 0)
(2.55974e-06 0 0)
(2.55955e-06 0 0)
(2.55937e-06 0 0)
(2.55921e-06 0 0)
(2.55908e-06 0 0)
(2.55897e-06 0 0)
(2.55889e-06 0 0)
(2.55884e-06 0 0)
(2.55881e-06 0 0)
(2.5588e-06 0 0)
(2.5588e-06 0 0)
(2.55883e-06 0 0)
(2.55891e-06 0 0)
(2.55904e-06 0 0)
(2.55919e-06 0 0)
(2.55937e-06 0 0)
(2.55957e-06 0 0)
(2.55979e-06 0 0)
(2.56003e-06 0 0)
(2.56029e-06 0 0)
(2.56055e-06 0 0)
(2.56083e-06 0 0)
(2.56111e-06 0 0)
(2.56138e-06 0 0)
(2.56166e-06 0 0)
(2.56193e-06 0 0)
(2.56219e-06 0 0)
(2.56244e-06 0 0)
(2.56268e-06 0 0)
(2.5629e-06 0 0)
(2.5631e-06 0 0)
(2.56329e-06 0 0)
(2.56346e-06 0 0)
(2.56361e-06 0 0)
(2.56374e-06 0 0)
(2.56385e-06 0 0)
(2.56395e-06 0 0)
(2.56403e-06 0 0)
(2.56409e-06 0 0)
(2.56414e-06 0 0)
(2.56418e-06 0 0)
(2.56421e-06 0 0)
(2.56423e-06 0 0)
(2.56423e-06 0 0)
(2.56424e-06 0 0)
(2.56423e-06 0 0)
(2.56423e-06 0 0)
(2.56422e-06 0 0)
(2.56421e-06 0 0)
(2.56419e-06 0 0)
(2.56418e-06 0 0)
(2.56416e-06 0 0)
(2.56415e-06 0 0)
(2.56414e-06 0 0)
(2.56413e-06 0 0)
(2.56413e-06 0 0)
(2.56413e-06 0 0)
(2.56412e-06 0 0)
(2.56413e-06 0 0)
(2.56414e-06 0 0)
(2.56415e-06 0 0)
(2.56417e-06 0 0)
(2.5642e-06 0 0)
(2.56422e-06 0 0)
(2.56425e-06 0 0)
(2.56429e-06 0 0)
(2.56432e-06 0 0)
(2.56436e-06 0 0)
(2.5644e-06 0 0)
(2.56444e-06 0 0)
(2.56449e-06 0 0)
(2.56454e-06 0 0)
(2.56459e-06 0 0)
(2.56464e-06 0 0)
(2.56469e-06 0 0)
(2.56474e-06 0 0)
(2.56479e-06 0 0)
(2.56484e-06 0 0)
(2.5649e-06 0 0)
(2.56495e-06 0 0)
(2.565e-06 0 0)
(2.56506e-06 0 0)
(2.56511e-06 0 0)
(2.56516e-06 0 0)
(2.56521e-06 0 0)
(2.56526e-06 0 0)
(2.56531e-06 0 0)
(2.56536e-06 0 0)
(2.56541e-06 0 0)
(2.56546e-06 0 0)
(2.5655e-06 0 0)
(2.56555e-06 0 0)
(2.56559e-06 0 0)
(2.56563e-06 0 0)
(2.56567e-06 0 0)
(2.56571e-06 0 0)
(2.56575e-06 0 0)
(2.56579e-06 0 0)
(2.56582e-06 0 0)
(2.56586e-06 0 0)
(2.56589e-06 0 0)
(2.56592e-06 0 0)
(2.56595e-06 0 0)
(2.56598e-06 0 0)
(2.56601e-06 0 0)
(2.56604e-06 0 0)
(2.56607e-06 0 0)
(2.56609e-06 0 0)
(2.56612e-06 0 0)
(2.56614e-06 0 0)
(2.56616e-06 0 0)
(2.56618e-06 0 0)
(2.5662e-06 0 0)
(2.56622e-06 0 0)
(2.56624e-06 0 0)
(2.56626e-06 0 0)
(2.56628e-06 0 0)
(2.56629e-06 0 0)
(2.5663e-06 0 0)
(2.56632e-06 0 0)
(2.56633e-06 0 0)
(2.56634e-06 0 0)
(2.56635e-06 0 0)
(2.56635e-06 0 0)
(2.56636e-06 0 0)
(2.56637e-06 0 0)
(2.56637e-06 0 0)
(2.56637e-06 0 0)
(2.56637e-06 0 0)
(2.56637e-06 0 0)
(2.56637e-06 0 0)
(2.56637e-06 0 0)
(2.56636e-06 0 0)
(2.56635e-06 0 0)
(2.56634e-06 0 0)
(2.56633e-06 0 0)
(2.56632e-06 0 0)
(2.5663e-06 0 0)
(2.56628e-06 0 0)
(2.56627e-06 0 0)
(2.56625e-06 0 0)
(2.56622e-06 0 0)
(2.5662e-06 0 0)
(2.56618e-06 0 0)
(2.56615e-06 0 0)
(2.56612e-06 0 0)
(2.56609e-06 0 0)
(2.56606e-06 0 0)
(2.56603e-06 0 0)
(2.566e-06 0 0)
(2.56597e-06 0 0)
(2.56593e-06 0 0)
(2.5659e-06 0 0)
(2.56586e-06 0 0)
(2.56583e-06 0 0)
(2.56579e-06 0 0)
(2.56575e-06 0 0)
(2.56571e-06 0 0)
(2.56568e-06 0 0)
(2.56564e-06 0 0)
(2.5656e-06 0 0)
(2.56556e-06 0 0)
(2.56552e-06 0 0)
(2.56547e-06 0 0)
(2.56543e-06 0 0)
(2.56539e-06 0 0)
(2.56534e-06 0 0)
(2.5653e-06 0 0)
(2.56525e-06 0 0)
(2.56521e-06 0 0)
(2.56516e-06 0 0)
(2.56511e-06 0 0)
(2.56506e-06 0 0)
(2.56501e-06 0 0)
(2.56495e-06 0 0)
(2.56489e-06 0 0)
(2.56483e-06 0 0)
(2.56477e-06 0 0)
(2.56471e-06 0 0)
(2.56464e-06 0 0)
(2.56457e-06 0 0)
(2.56449e-06 0 0)
(2.56442e-06 0 0)
(2.56434e-06 0 0)
(2.56425e-06 0 0)
(2.56416e-06 0 0)
(2.56406e-06 0 0)
(2.56396e-06 0 0)
(2.56385e-06 0 0)
(2.56373e-06 0 0)
(2.56361e-06 0 0)
(2.56348e-06 0 0)
(2.56334e-06 0 0)
(2.5632e-06 0 0)
(2.56305e-06 0 0)
(2.56289e-06 0 0)
(2.56273e-06 0 0)
(2.56256e-06 0 0)
(2.56238e-06 0 0)
(2.5622e-06 0 0)
(2.56201e-06 0 0)
(2.56182e-06 0 0)
(2.56163e-06 0 0)
(2.56144e-06 0 0)
(2.56124e-06 0 0)
(2.56105e-06 0 0)
(2.56087e-06 0 0)
(2.56069e-06 0 0)
(2.56051e-06 0 0)
(2.56034e-06 0 0)
(2.56019e-06 0 0)
(2.56004e-06 0 0)
(2.55991e-06 0 0)
(2.55979e-06 0 0)
(2.55969e-06 0 0)
(2.55961e-06 0 0)
(2.55954e-06 0 0)
(2.5595e-06 0 0)
(2.55948e-06 0 0)
(2.55947e-06 0 0)
(2.55947e-06 0 0)
(2.55947e-06 0 0)
(2.55952e-06 0 0)
(2.5596e-06 0 0)
(2.55971e-06 0 0)
(2.55983e-06 0 0)
(2.55998e-06 0 0)
(2.56014e-06 0 0)
(2.56031e-06 0 0)
(2.5605e-06 0 0)
(2.5607e-06 0 0)
(2.56091e-06 0 0)
(2.56113e-06 0 0)
(2.56135e-06 0 0)
(2.56157e-06 0 0)
(2.56179e-06 0 0)
(2.56201e-06 0 0)
(2.56222e-06 0 0)
(2.56243e-06 0 0)
(2.56263e-06 0 0)
(2.56282e-06 0 0)
(2.56299e-06 0 0)
(2.56316e-06 0 0)
(2.56332e-06 0 0)
(2.56346e-06 0 0)
(2.56359e-06 0 0)
(2.5637e-06 0 0)
(2.5638e-06 0 0)
(2.56389e-06 0 0)
(2.56397e-06 0 0)
(2.56404e-06 0 0)
(2.56409e-06 0 0)
(2.56414e-06 0 0)
(2.56418e-06 0 0)
(2.56421e-06 0 0)
(2.56423e-06 0 0)
(2.56425e-06 0 0)
(2.56426e-06 0 0)
(2.56427e-06 0 0)
(2.56427e-06 0 0)
(2.56427e-06 0 0)
(2.56427e-06 0 0)
(2.56427e-06 0 0)
(2.56427e-06 0 0)
(2.56427e-06 0 0)
(2.56427e-06 0 0)
(2.56427e-06 0 0)
(2.56427e-06 0 0)
(2.56427e-06 0 0)
(2.56427e-06 0 0)
(2.56428e-06 0 0)
(2.56428e-06 0 0)
(2.5643e-06 0 0)
(2.56431e-06 0 0)
(2.56433e-06 0 0)
(2.56436e-06 0 0)
(2.56438e-06 0 0)
(2.56441e-06 0 0)
(2.56444e-06 0 0)
(2.56447e-06 0 0)
(2.56451e-06 0 0)
(2.56455e-06 0 0)
(2.56459e-06 0 0)
(2.56463e-06 0 0)
(2.56467e-06 0 0)
(2.56472e-06 0 0)
(2.56477e-06 0 0)
(2.56482e-06 0 0)
(2.56487e-06 0 0)
(2.56492e-06 0 0)
(2.56497e-06 0 0)
(2.56502e-06 0 0)
(2.56508e-06 0 0)
(2.56513e-06 0 0)
(2.56518e-06 0 0)
(2.56523e-06 0 0)
(2.56529e-06 0 0)
(2.56534e-06 0 0)
(2.56539e-06 0 0)
(2.56544e-06 0 0)
(2.56549e-06 0 0)
(2.56554e-06 0 0)
(2.56558e-06 0 0)
(2.56563e-06 0 0)
(2.56568e-06 0 0)
(2.56572e-06 0 0)
(2.56577e-06 0 0)
(2.56581e-06 0 0)
(2.56585e-06 0 0)
(2.56589e-06 0 0)
(2.56593e-06 0 0)
(2.56596e-06 0 0)
(2.566e-06 0 0)
(2.56603e-06 0 0)
(2.56606e-06 0 0)
(2.5661e-06 0 0)
(2.56613e-06 0 0)
(2.56616e-06 0 0)
(2.56618e-06 0 0)
(2.56621e-06 0 0)
(2.56624e-06 0 0)
(2.56626e-06 0 0)
(2.56628e-06 0 0)
(2.56631e-06 0 0)
(2.56633e-06 0 0)
(2.56635e-06 0 0)
(2.56637e-06 0 0)
(2.56639e-06 0 0)
(2.5664e-06 0 0)
(2.56642e-06 0 0)
(2.56643e-06 0 0)
(2.56645e-06 0 0)
(2.56646e-06 0 0)
(2.56648e-06 0 0)
(2.56649e-06 0 0)
(2.5665e-06 0 0)
(2.56651e-06 0 0)
(2.56652e-06 0 0)
(2.56653e-06 0 0)
(2.56653e-06 0 0)
(2.56654e-06 0 0)
(2.56655e-06 0 0)
(2.56655e-06 0 0)
(2.56655e-06 0 0)
(2.56655e-06 0 0)
(2.56655e-06 0 0)
(2.56655e-06 0 0)
(2.56655e-06 0 0)
(2.56655e-06 0 0)
(2.56654e-06 0 0)
(2.56654e-06 0 0)
(2.56653e-06 0 0)
(2.56652e-06 0 0)
(2.56651e-06 0 0)
(2.56649e-06 0 0)
(2.56648e-06 0 0)
(2.56646e-06 0 0)
(2.56644e-06 0 0)
(2.56642e-06 0 0)
(2.5664e-06 0 0)
(2.56637e-06 0 0)
(2.56635e-06 0 0)
(2.56632e-06 0 0)
(2.56629e-06 0 0)
(2.56626e-06 0 0)
(2.56623e-06 0 0)
(2.5662e-06 0 0)
(2.56617e-06 0 0)
(2.56613e-06 0 0)
(2.56609e-06 0 0)
(2.56605e-06 0 0)
(2.56601e-06 0 0)
(2.56597e-06 0 0)
(2.56592e-06 0 0)
(2.56588e-06 0 0)
(2.56583e-06 0 0)
(2.56578e-06 0 0)
(2.56573e-06 0 0)
(2.56568e-06 0 0)
(2.56563e-06 0 0)
(2.56557e-06 0 0)
(2.56552e-06 0 0)
(2.56546e-06 0 0)
(2.56539e-06 0 0)
(2.56533e-06 0 0)
(2.56526e-06 0 0)
(2.5652e-06 0 0)
(2.56512e-06 0 0)
(2.56505e-06 0 0)
(2.56497e-06 0 0)
(2.56489e-06 0 0)
(2.5648e-06 0 0)
(2.56471e-06 0 0)
(2.56462e-06 0 0)
(2.56452e-06 0 0)
(2.56441e-06 0 0)
(2.56431e-06 0 0)
(2.56419e-06 0 0)
(2.56407e-06 0 0)
(2.56395e-06 0 0)
(2.56382e-06 0 0)
(2.56369e-06 0 0)
(2.56355e-06 0 0)
(2.5634e-06 0 0)
(2.56325e-06 0 0)
(2.5631e-06 0 0)
(2.56294e-06 0 0)
(2.56278e-06 0 0)
(2.56261e-06 0 0)
(2.56244e-06 0 0)
(2.56227e-06 0 0)
(2.5621e-06 0 0)
(2.56192e-06 0 0)
(2.56175e-06 0 0)
(2.56157e-06 0 0)
(2.5614e-06 0 0)
(2.56123e-06 0 0)
(2.56106e-06 0 0)
(2.5609e-06 0 0)
(2.56074e-06 0 0)
(2.56059e-06 0 0)
(2.56045e-06 0 0)
(2.56031e-06 0 0)
(2.56019e-06 0 0)
(2.56008e-06 0 0)
(2.55998e-06 0 0)
(2.55989e-06 0 0)
(2.55982e-06 0 0)
(2.55976e-06 0 0)
(2.55972e-06 0 0)
(2.55969e-06 0 0)
(2.55968e-06 0 0)
(2.55967e-06 0 0)
(2.55968e-06 0 0)
(2.55969e-06 0 0)
(2.55974e-06 0 0)
(2.55981e-06 0 0)
(2.5599e-06 0 0)
(2.56e-06 0 0)
(2.56012e-06 0 0)
(2.56025e-06 0 0)
(2.56039e-06 0 0)
(2.56054e-06 0 0)
(2.5607e-06 0 0)
(2.56086e-06 0 0)
(2.56103e-06 0 0)
(2.56121e-06 0 0)
(2.56138e-06 0 0)
(2.56156e-06 0 0)
(2.56174e-06 0 0)
(2.56191e-06 0 0)
(2.56208e-06 0 0)
(2.56224e-06 0 0)
(2.5624e-06 0 0)
(2.56255e-06 0 0)
(2.5627e-06 0 0)
(2.56284e-06 0 0)
(2.56297e-06 0 0)
(2.56309e-06 0 0)
(2.5632e-06 0 0)
(2.5633e-06 0 0)
(2.56339e-06 0 0)
(2.56348e-06 0 0)
(2.56355e-06 0 0)
(2.56362e-06 0 0)
(2.56368e-06 0 0)
(2.56374e-06 0 0)
(2.56378e-06 0 0)
(2.56383e-06 0 0)
(2.56386e-06 0 0)
(2.56389e-06 0 0)
(2.56392e-06 0 0)
(2.56394e-06 0 0)
(2.56396e-06 0 0)
(2.56398e-06 0 0)
(2.564e-06 0 0)
(2.56401e-06 0 0)
(2.56402e-06 0 0)
(2.56404e-06 0 0)
(2.56405e-06 0 0)
(2.56406e-06 0 0)
(2.56408e-06 0 0)
(2.56409e-06 0 0)
(2.56411e-06 0 0)
(2.56413e-06 0 0)
(2.56414e-06 0 0)
(2.56416e-06 0 0)
(2.56419e-06 0 0)
(2.56421e-06 0 0)
(2.56424e-06 0 0)
(2.56426e-06 0 0)
(2.56429e-06 0 0)
(2.56433e-06 0 0)
(2.56436e-06 0 0)
(2.5644e-06 0 0)
(2.56443e-06 0 0)
(2.56447e-06 0 0)
(2.56451e-06 0 0)
(2.56455e-06 0 0)
(2.5646e-06 0 0)
(2.56464e-06 0 0)
(2.56469e-06 0 0)
(2.56474e-06 0 0)
(2.56479e-06 0 0)
(2.56484e-06 0 0)
(2.56488e-06 0 0)
(2.56493e-06 0 0)
(2.56499e-06 0 0)
(2.56504e-06 0 0)
(2.56509e-06 0 0)
(2.56514e-06 0 0)
(2.56519e-06 0 0)
(2.56524e-06 0 0)
(2.56529e-06 0 0)
(2.56535e-06 0 0)
(2.5654e-06 0 0)
(2.56545e-06 0 0)
(2.5655e-06 0 0)
(2.56555e-06 0 0)
(2.56559e-06 0 0)
(2.56564e-06 0 0)
(2.56569e-06 0 0)
(2.56573e-06 0 0)
(2.56577e-06 0 0)
(2.56582e-06 0 0)
(2.56586e-06 0 0)
(2.5659e-06 0 0)
(2.56594e-06 0 0)
(2.56597e-06 0 0)
(2.56601e-06 0 0)
(2.56604e-06 0 0)
(2.56608e-06 0 0)
(2.56611e-06 0 0)
(2.56614e-06 0 0)
(2.56616e-06 0 0)
(2.56619e-06 0 0)
(2.56622e-06 0 0)
(2.56624e-06 0 0)
(2.56626e-06 0 0)
(2.56628e-06 0 0)
(2.5663e-06 0 0)
(2.56632e-06 0 0)
(2.56633e-06 0 0)
(2.56635e-06 0 0)
(2.56637e-06 0 0)
(2.56638e-06 0 0)
(2.56639e-06 0 0)
(2.5664e-06 0 0)
(2.56641e-06 0 0)
(2.56642e-06 0 0)
(2.56642e-06 0 0)
(2.56643e-06 0 0)
(2.56643e-06 0 0)
(2.56644e-06 0 0)
(2.56644e-06 0 0)
(2.56644e-06 0 0)
(2.56644e-06 0 0)
(2.56644e-06 0 0)
(2.56644e-06 0 0)
(2.56644e-06 0 0)
(2.56644e-06 0 0)
(2.56644e-06 0 0)
(2.56643e-06 0 0)
(2.56642e-06 0 0)
(2.56641e-06 0 0)
(2.5664e-06 0 0)
(2.56639e-06 0 0)
(2.56638e-06 0 0)
(2.56637e-06 0 0)
(2.56636e-06 0 0)
(2.56634e-06 0 0)
(2.56632e-06 0 0)
(2.5663e-06 0 0)
(2.56628e-06 0 0)
(2.56626e-06 0 0)
(2.56624e-06 0 0)
(2.56621e-06 0 0)
(2.56618e-06 0 0)
(2.56615e-06 0 0)
(2.56612e-06 0 0)
(2.56609e-06 0 0)
(2.56605e-06 0 0)
(2.56602e-06 0 0)
(2.56598e-06 0 0)
(2.56593e-06 0 0)
(2.56589e-06 0 0)
(2.56584e-06 0 0)
(2.56579e-06 0 0)
(2.56574e-06 0 0)
(2.56569e-06 0 0)
(2.56563e-06 0 0)
(2.56557e-06 0 0)
(2.56551e-06 0 0)
(2.56544e-06 0 0)
(2.56537e-06 0 0)
(2.5653e-06 0 0)
(2.56523e-06 0 0)
(2.56515e-06 0 0)
(2.56507e-06 0 0)
(2.56498e-06 0 0)
(2.5649e-06 0 0)
(2.5648e-06 0 0)
(2.56471e-06 0 0)
(2.56461e-06 0 0)
(2.5645e-06 0 0)
(2.5644e-06 0 0)
(2.56429e-06 0 0)
(2.56417e-06 0 0)
(2.56405e-06 0 0)
(2.56393e-06 0 0)
(2.5638e-06 0 0)
(2.56367e-06 0 0)
(2.56353e-06 0 0)
(2.56339e-06 0 0)
(2.56325e-06 0 0)
(2.5631e-06 0 0)
(2.56295e-06 0 0)
(2.5628e-06 0 0)
(2.56265e-06 0 0)
(2.56249e-06 0 0)
(2.56233e-06 0 0)
(2.56217e-06 0 0)
(2.56201e-06 0 0)
(2.56185e-06 0 0)
(2.56168e-06 0 0)
(2.56152e-06 0 0)
(2.56136e-06 0 0)
(2.56121e-06 0 0)
(2.56105e-06 0 0)
(2.5609e-06 0 0)
(2.56076e-06 0 0)
(2.56062e-06 0 0)
(2.56049e-06 0 0)
(2.56036e-06 0 0)
(2.56024e-06 0 0)
(2.56013e-06 0 0)
(2.56003e-06 0 0)
(2.55995e-06 0 0)
)
;

boundaryField
{
    inlet
    {
        type            fixedValue;
        value           uniform (1.13622e-05 0 0);
    }
    outlet
    {
        type            zeroGradient;
    }
    emptyWalls
    {
        type            empty;
    }
}


// ************************************************************************* //
