/*--------------------------------*- C++ -*----------------------------------*\
  =========                 |
  \\      /  F ield         | OpenFOAM: The Open Source CFD Toolbox
   \\    /   O peration     | Website:  https://openfoam.org
    \\  /    A nd           | Version:  9
     \\/     M anipulation  |
\*---------------------------------------------------------------------------*/
FoamFile
{
    format      ascii;
    class       volVectorField;
    location    "26300";
    object      Ua;
}
// * * * * * * * * * * * * * * * * * * * * * * * * * * * * * * * * * * * * * //

dimensions      [0 0 0 0 0 0 0];

internalField   nonuniform List<vector> 
1000
(
(2.74907e-06 0 0)
(2.7488e-06 0 0)
(2.7487e-06 0 0)
(2.74858e-06 0 0)
(2.74843e-06 0 0)
(2.74827e-06 0 0)
(2.74806e-06 0 0)
(2.74785e-06 0 0)
(2.74751e-06 0 0)
(2.74717e-06 0 0)
(2.74675e-06 0 0)
(2.74626e-06 0 0)
(2.74579e-06 0 0)
(2.74521e-06 0 0)
(2.74464e-06 0 0)
(2.74401e-06 0 0)
(2.74333e-06 0 0)
(2.74265e-06 0 0)
(2.74194e-06 0 0)
(2.74125e-06 0 0)
(2.74054e-06 0 0)
(2.73984e-06 0 0)
(2.7391e-06 0 0)
(2.73839e-06 0 0)
(2.73768e-06 0 0)
(2.73697e-06 0 0)
(2.73639e-06 0 0)
(2.73578e-06 0 0)
(2.7353e-06 0 0)
(2.73485e-06 0 0)
(2.73443e-06 0 0)
(2.73409e-06 0 0)
(2.73368e-06 0 0)
(2.733e-06 0 0)
(2.73079e-06 0 0)
(2.72244e-06 0 0)
(2.68204e-06 0 0)
(2.4592e-06 0 0)
(2.21436e-06 0 0)
(2.14422e-06 0 0)
(2.12383e-06 0 0)
(2.11426e-06 0 0)
(2.10821e-06 0 0)
(2.10371e-06 0 0)
(2.10005e-06 0 0)
(2.09692e-06 0 0)
(2.09418e-06 0 0)
(2.09171e-06 0 0)
(2.08945e-06 0 0)
(2.08736e-06 0 0)
(2.08542e-06 0 0)
(2.08366e-06 0 0)
(2.08208e-06 0 0)
(2.08069e-06 0 0)
(2.07941e-06 0 0)
(2.07818e-06 0 0)
(2.07693e-06 0 0)
(2.07565e-06 0 0)
(2.07438e-06 0 0)
(2.07318e-06 0 0)
(2.07216e-06 0 0)
(2.07142e-06 0 0)
(2.07094e-06 0 0)
(2.07052e-06 0 0)
(2.06994e-06 0 0)
(2.06916e-06 0 0)
(2.06832e-06 0 0)
(2.06737e-06 0 0)
(2.06629e-06 0 0)
(2.06531e-06 0 0)
(2.06458e-06 0 0)
(2.06409e-06 0 0)
(2.06394e-06 0 0)
(2.06519e-06 0 0)
(2.0679e-06 0 0)
(2.0711e-06 0 0)
(2.07458e-06 0 0)
(2.07811e-06 0 0)
(2.08141e-06 0 0)
(2.08423e-06 0 0)
(2.08641e-06 0 0)
(2.08787e-06 0 0)
(2.08874e-06 0 0)
(2.08928e-06 0 0)
(2.08971e-06 0 0)
(2.08996e-06 0 0)
(2.08925e-06 0 0)
(2.08711e-06 0 0)
(2.08401e-06 0 0)
(2.08034e-06 0 0)
(2.07638e-06 0 0)
(2.07235e-06 0 0)
(2.06845e-06 0 0)
(2.06484e-06 0 0)
(2.06163e-06 0 0)
(2.05888e-06 0 0)
(2.0566e-06 0 0)
(2.05479e-06 0 0)
(2.05342e-06 0 0)
(2.05244e-06 0 0)
(2.0518e-06 0 0)
(2.05145e-06 0 0)
(2.05132e-06 0 0)
(2.05135e-06 0 0)
(2.05147e-06 0 0)
(2.05161e-06 0 0)
(2.05172e-06 0 0)
(2.05178e-06 0 0)
(2.05176e-06 0 0)
(2.05168e-06 0 0)
(2.05151e-06 0 0)
(2.05128e-06 0 0)
(2.05098e-06 0 0)
(2.05062e-06 0 0)
(2.05022e-06 0 0)
(2.04979e-06 0 0)
(2.04933e-06 0 0)
(2.04885e-06 0 0)
(2.04836e-06 0 0)
(2.04786e-06 0 0)
(2.04736e-06 0 0)
(2.04687e-06 0 0)
(2.04638e-06 0 0)
(2.04589e-06 0 0)
(2.04541e-06 0 0)
(2.04494e-06 0 0)
(2.04448e-06 0 0)
(2.04403e-06 0 0)
(2.0436e-06 0 0)
(2.04317e-06 0 0)
(2.04275e-06 0 0)
(2.04235e-06 0 0)
(2.04195e-06 0 0)
(2.04158e-06 0 0)
(2.04121e-06 0 0)
(2.04086e-06 0 0)
(2.04053e-06 0 0)
(2.04021e-06 0 0)
(2.0399e-06 0 0)
(2.0396e-06 0 0)
(2.03932e-06 0 0)
(2.03905e-06 0 0)
(2.03879e-06 0 0)
(2.03854e-06 0 0)
(2.0383e-06 0 0)
(2.03806e-06 0 0)
(2.03785e-06 0 0)
(2.03765e-06 0 0)
(2.03746e-06 0 0)
(2.0373e-06 0 0)
(2.03715e-06 0 0)
(2.03702e-06 0 0)
(2.03692e-06 0 0)
(2.03682e-06 0 0)
(2.03674e-06 0 0)
(2.03666e-06 0 0)
(2.03659e-06 0 0)
(2.03652e-06 0 0)
(2.03645e-06 0 0)
(2.03637e-06 0 0)
(2.0363e-06 0 0)
(2.03622e-06 0 0)
(2.03616e-06 0 0)
(2.03611e-06 0 0)
(2.03609e-06 0 0)
(2.03608e-06 0 0)
(2.0361e-06 0 0)
(2.03613e-06 0 0)
(2.03619e-06 0 0)
(2.03625e-06 0 0)
(2.03632e-06 0 0)
(2.03638e-06 0 0)
(2.03643e-06 0 0)
(2.03646e-06 0 0)
(2.03647e-06 0 0)
(2.03644e-06 0 0)
(2.03638e-06 0 0)
(2.03631e-06 0 0)
(2.03624e-06 0 0)
(2.0362e-06 0 0)
(2.03623e-06 0 0)
(2.03636e-06 0 0)
(2.03663e-06 0 0)
(2.03708e-06 0 0)
(2.03772e-06 0 0)
(2.03858e-06 0 0)
(2.03964e-06 0 0)
(2.04092e-06 0 0)
(2.04239e-06 0 0)
(2.04403e-06 0 0)
(2.04581e-06 0 0)
(2.04771e-06 0 0)
(2.04968e-06 0 0)
(2.05169e-06 0 0)
(2.05369e-06 0 0)
(2.05565e-06 0 0)
(2.0575e-06 0 0)
(2.05919e-06 0 0)
(2.06068e-06 0 0)
(2.06192e-06 0 0)
(2.06287e-06 0 0)
(2.06347e-06 0 0)
(2.06372e-06 0 0)
(2.0636e-06 0 0)
(2.06311e-06 0 0)
(2.06226e-06 0 0)
(2.06107e-06 0 0)
(2.05961e-06 0 0)
(2.0579e-06 0 0)
(2.05601e-06 0 0)
(2.054e-06 0 0)
(2.05193e-06 0 0)
(2.04986e-06 0 0)
(2.04783e-06 0 0)
(2.0459e-06 0 0)
(2.04409e-06 0 0)
(2.04244e-06 0 0)
(2.04095e-06 0 0)
(2.03964e-06 0 0)
(2.03851e-06 0 0)
(2.03754e-06 0 0)
(2.03673e-06 0 0)
(2.03606e-06 0 0)
(2.03552e-06 0 0)
(2.03507e-06 0 0)
(2.03471e-06 0 0)
(2.03441e-06 0 0)
(2.03416e-06 0 0)
(2.03394e-06 0 0)
(2.03373e-06 0 0)
(2.03353e-06 0 0)
(2.03332e-06 0 0)
(2.0331e-06 0 0)
(2.03286e-06 0 0)
(2.0326e-06 0 0)
(2.03232e-06 0 0)
(2.03202e-06 0 0)
(2.03169e-06 0 0)
(2.03134e-06 0 0)
(2.03098e-06 0 0)
(2.0306e-06 0 0)
(2.0302e-06 0 0)
(2.02979e-06 0 0)
(2.02938e-06 0 0)
(2.02895e-06 0 0)
(2.02853e-06 0 0)
(2.0281e-06 0 0)
(2.02767e-06 0 0)
(2.02724e-06 0 0)
(2.02681e-06 0 0)
(2.02639e-06 0 0)
(2.02597e-06 0 0)
(2.02556e-06 0 0)
(2.02515e-06 0 0)
(2.02475e-06 0 0)
(2.02436e-06 0 0)
(2.02398e-06 0 0)
(2.0236e-06 0 0)
(2.02324e-06 0 0)
(2.02288e-06 0 0)
(2.02254e-06 0 0)
(2.0222e-06 0 0)
(2.02187e-06 0 0)
(2.02155e-06 0 0)
(2.02124e-06 0 0)
(2.02094e-06 0 0)
(2.02065e-06 0 0)
(2.02037e-06 0 0)
(2.0201e-06 0 0)
(2.01984e-06 0 0)
(2.01959e-06 0 0)
(2.01935e-06 0 0)
(2.01912e-06 0 0)
(2.0189e-06 0 0)
(2.01869e-06 0 0)
(2.0185e-06 0 0)
(2.01832e-06 0 0)
(2.01814e-06 0 0)
(2.01798e-06 0 0)
(2.01783e-06 0 0)
(2.01768e-06 0 0)
(2.01755e-06 0 0)
(2.01742e-06 0 0)
(2.01729e-06 0 0)
(2.01717e-06 0 0)
(2.01706e-06 0 0)
(2.01696e-06 0 0)
(2.01686e-06 0 0)
(2.01676e-06 0 0)
(2.01668e-06 0 0)
(2.0166e-06 0 0)
(2.01654e-06 0 0)
(2.01648e-06 0 0)
(2.01643e-06 0 0)
(2.01639e-06 0 0)
(2.01636e-06 0 0)
(2.01633e-06 0 0)
(2.01631e-06 0 0)
(2.01629e-06 0 0)
(2.01627e-06 0 0)
(2.01625e-06 0 0)
(2.01622e-06 0 0)
(2.01619e-06 0 0)
(2.01616e-06 0 0)
(2.01612e-06 0 0)
(2.01609e-06 0 0)
(2.01607e-06 0 0)
(2.01608e-06 0 0)
(2.0161e-06 0 0)
(2.01617e-06 0 0)
(2.01629e-06 0 0)
(2.01647e-06 0 0)
(2.01672e-06 0 0)
(2.01705e-06 0 0)
(2.01748e-06 0 0)
(2.018e-06 0 0)
(2.01863e-06 0 0)
(2.01937e-06 0 0)
(2.02021e-06 0 0)
(2.02116e-06 0 0)
(2.02221e-06 0 0)
(2.02335e-06 0 0)
(2.02456e-06 0 0)
(2.02585e-06 0 0)
(2.02718e-06 0 0)
(2.02855e-06 0 0)
(2.02992e-06 0 0)
(2.03128e-06 0 0)
(2.03261e-06 0 0)
(2.03388e-06 0 0)
(2.03506e-06 0 0)
(2.03613e-06 0 0)
(2.03707e-06 0 0)
(2.03786e-06 0 0)
(2.03848e-06 0 0)
(2.03891e-06 0 0)
(2.03914e-06 0 0)
(2.03916e-06 0 0)
(2.03898e-06 0 0)
(2.0386e-06 0 0)
(2.03802e-06 0 0)
(2.03726e-06 0 0)
(2.03634e-06 0 0)
(2.03527e-06 0 0)
(2.03407e-06 0 0)
(2.03278e-06 0 0)
(2.03142e-06 0 0)
(2.03002e-06 0 0)
(2.02859e-06 0 0)
(2.02717e-06 0 0)
(2.02577e-06 0 0)
(2.02442e-06 0 0)
(2.02312e-06 0 0)
(2.0219e-06 0 0)
(2.02075e-06 0 0)
(2.01969e-06 0 0)
(2.01871e-06 0 0)
(2.01782e-06 0 0)
(2.01702e-06 0 0)
(2.01629e-06 0 0)
(2.01564e-06 0 0)
(2.01506e-06 0 0)
(2.01454e-06 0 0)
(2.01407e-06 0 0)
(2.01365e-06 0 0)
(2.01326e-06 0 0)
(2.0129e-06 0 0)
(2.01256e-06 0 0)
(2.01224e-06 0 0)
(2.01193e-06 0 0)
(2.01163e-06 0 0)
(2.01132e-06 0 0)
(2.01102e-06 0 0)
(2.01071e-06 0 0)
(2.01039e-06 0 0)
(2.01007e-06 0 0)
(2.00973e-06 0 0)
(2.00939e-06 0 0)
(2.00904e-06 0 0)
(2.00868e-06 0 0)
(2.00832e-06 0 0)
(2.00794e-06 0 0)
(2.00756e-06 0 0)
(2.00717e-06 0 0)
(2.00678e-06 0 0)
(2.00639e-06 0 0)
(2.00599e-06 0 0)
(2.0056e-06 0 0)
(2.0052e-06 0 0)
(2.0048e-06 0 0)
(2.00441e-06 0 0)
(2.00402e-06 0 0)
(2.00363e-06 0 0)
(2.00324e-06 0 0)
(2.00287e-06 0 0)
(2.00249e-06 0 0)
(2.00212e-06 0 0)
(2.00176e-06 0 0)
(2.0014e-06 0 0)
(2.00105e-06 0 0)
(2.00071e-06 0 0)
(2.00038e-06 0 0)
(2.00005e-06 0 0)
(1.99973e-06 0 0)
(1.99942e-06 0 0)
(1.99911e-06 0 0)
(1.99882e-06 0 0)
(1.99853e-06 0 0)
(1.99825e-06 0 0)
(1.99798e-06 0 0)
(1.99772e-06 0 0)
(1.99746e-06 0 0)
(1.99722e-06 0 0)
(1.99698e-06 0 0)
(1.99676e-06 0 0)
(1.99654e-06 0 0)
(1.99633e-06 0 0)
(1.99613e-06 0 0)
(1.99594e-06 0 0)
(1.99576e-06 0 0)
(1.99558e-06 0 0)
(1.99541e-06 0 0)
(1.99525e-06 0 0)
(1.9951e-06 0 0)
(1.99496e-06 0 0)
(1.99482e-06 0 0)
(1.99469e-06 0 0)
(1.99456e-06 0 0)
(1.99444e-06 0 0)
(1.99433e-06 0 0)
(1.99423e-06 0 0)
(1.99413e-06 0 0)
(1.99404e-06 0 0)
(1.99395e-06 0 0)
(1.99387e-06 0 0)
(1.9938e-06 0 0)
(1.99373e-06 0 0)
(1.99366e-06 0 0)
(1.9936e-06 0 0)
(1.99355e-06 0 0)
(1.99349e-06 0 0)
(1.99344e-06 0 0)
(1.9934e-06 0 0)
(1.99335e-06 0 0)
(1.99331e-06 0 0)
(1.99327e-06 0 0)
(1.99324e-06 0 0)
(1.99322e-06 0 0)
(1.99321e-06 0 0)
(1.99321e-06 0 0)
(1.99323e-06 0 0)
(1.99328e-06 0 0)
(1.99335e-06 0 0)
(1.99345e-06 0 0)
(1.99359e-06 0 0)
(1.99377e-06 0 0)
(1.99399e-06 0 0)
(1.99427e-06 0 0)
(1.9946e-06 0 0)
(1.99499e-06 0 0)
(1.99545e-06 0 0)
(1.99596e-06 0 0)
(1.99654e-06 0 0)
(1.99718e-06 0 0)
(1.99788e-06 0 0)
(1.99864e-06 0 0)
(1.99946e-06 0 0)
(2.00032e-06 0 0)
(2.00123e-06 0 0)
(2.00217e-06 0 0)
(2.00314e-06 0 0)
(2.00412e-06 0 0)
(2.0051e-06 0 0)
(2.00608e-06 0 0)
(2.00704e-06 0 0)
(2.00797e-06 0 0)
(2.00885e-06 0 0)
(2.00967e-06 0 0)
(2.01043e-06 0 0)
(2.0111e-06 0 0)
(2.01168e-06 0 0)
(2.01215e-06 0 0)
(2.01252e-06 0 0)
(2.01277e-06 0 0)
(2.01289e-06 0 0)
(2.01289e-06 0 0)
(2.01276e-06 0 0)
(2.01251e-06 0 0)
(2.01213e-06 0 0)
(2.01163e-06 0 0)
(2.01102e-06 0 0)
(2.01032e-06 0 0)
(2.00952e-06 0 0)
(2.00864e-06 0 0)
(2.00769e-06 0 0)
(2.00669e-06 0 0)
(2.00565e-06 0 0)
(2.00458e-06 0 0)
(2.0035e-06 0 0)
(2.00241e-06 0 0)
(2.00134e-06 0 0)
(2.00028e-06 0 0)
(1.99924e-06 0 0)
(1.99825e-06 0 0)
(1.99729e-06 0 0)
(1.99637e-06 0 0)
(1.9955e-06 0 0)
(1.99468e-06 0 0)
(1.99391e-06 0 0)
(1.99319e-06 0 0)
(1.99252e-06 0 0)
(1.99189e-06 0 0)
(1.99131e-06 0 0)
(1.99076e-06 0 0)
(1.99026e-06 0 0)
(1.98978e-06 0 0)
(1.98933e-06 0 0)
(1.98891e-06 0 0)
(1.98851e-06 0 0)
(1.98813e-06 0 0)
(1.98776e-06 0 0)
(1.9874e-06 0 0)
(1.98705e-06 0 0)
(1.98671e-06 0 0)
(1.98637e-06 0 0)
(1.98603e-06 0 0)
(1.98569e-06 0 0)
(1.98535e-06 0 0)
(1.98501e-06 0 0)
(1.98467e-06 0 0)
(1.98432e-06 0 0)
(1.98397e-06 0 0)
(1.98362e-06 0 0)
(1.98327e-06 0 0)
(1.98291e-06 0 0)
(1.98255e-06 0 0)
(1.98218e-06 0 0)
(1.98182e-06 0 0)
(1.98145e-06 0 0)
(1.98108e-06 0 0)
(1.98072e-06 0 0)
(1.98035e-06 0 0)
(1.97998e-06 0 0)
(1.97962e-06 0 0)
(1.97925e-06 0 0)
(1.97889e-06 0 0)
(1.97854e-06 0 0)
(1.97818e-06 0 0)
(1.97783e-06 0 0)
(1.97749e-06 0 0)
(1.97715e-06 0 0)
(1.97681e-06 0 0)
(1.97648e-06 0 0)
(1.97616e-06 0 0)
(1.97584e-06 0 0)
(1.97553e-06 0 0)
(1.97522e-06 0 0)
(1.97492e-06 0 0)
(1.97463e-06 0 0)
(1.97434e-06 0 0)
(1.97406e-06 0 0)
(1.97379e-06 0 0)
(1.97352e-06 0 0)
(1.97326e-06 0 0)
(1.97301e-06 0 0)
(1.97277e-06 0 0)
(1.97253e-06 0 0)
(1.9723e-06 0 0)
(1.97208e-06 0 0)
(1.97186e-06 0 0)
(1.97166e-06 0 0)
(1.97146e-06 0 0)
(1.97126e-06 0 0)
(1.97108e-06 0 0)
(1.9709e-06 0 0)
(1.97072e-06 0 0)
(1.97056e-06 0 0)
(1.9704e-06 0 0)
(1.97024e-06 0 0)
(1.97009e-06 0 0)
(1.96995e-06 0 0)
(1.96982e-06 0 0)
(1.96969e-06 0 0)
(1.96956e-06 0 0)
(1.96944e-06 0 0)
(1.96933e-06 0 0)
(1.96922e-06 0 0)
(1.96912e-06 0 0)
(1.96902e-06 0 0)
(1.96892e-06 0 0)
(1.96883e-06 0 0)
(1.96875e-06 0 0)
(1.96866e-06 0 0)
(1.96858e-06 0 0)
(1.96851e-06 0 0)
(1.96844e-06 0 0)
(1.96837e-06 0 0)
(1.96831e-06 0 0)
(1.96825e-06 0 0)
(1.9682e-06 0 0)
(1.96816e-06 0 0)
(1.96812e-06 0 0)
(1.96809e-06 0 0)
(1.96808e-06 0 0)
(1.96807e-06 0 0)
(1.96808e-06 0 0)
(1.96811e-06 0 0)
(1.96815e-06 0 0)
(1.96822e-06 0 0)
(1.96831e-06 0 0)
(1.96843e-06 0 0)
(1.96858e-06 0 0)
(1.96876e-06 0 0)
(1.96897e-06 0 0)
(1.96922e-06 0 0)
(1.9695e-06 0 0)
(1.96983e-06 0 0)
(1.97019e-06 0 0)
(1.9706e-06 0 0)
(1.97104e-06 0 0)
(1.97153e-06 0 0)
(1.97205e-06 0 0)
(1.97262e-06 0 0)
(1.97321e-06 0 0)
(1.97384e-06 0 0)
(1.9745e-06 0 0)
(1.97518e-06 0 0)
(1.97588e-06 0 0)
(1.9766e-06 0 0)
(1.97732e-06 0 0)
(1.97805e-06 0 0)
(1.97878e-06 0 0)
(1.97949e-06 0 0)
(1.98018e-06 0 0)
(1.98085e-06 0 0)
(1.98149e-06 0 0)
(1.98209e-06 0 0)
(1.98264e-06 0 0)
(1.98314e-06 0 0)
(1.98358e-06 0 0)
(1.98396e-06 0 0)
(1.98426e-06 0 0)
(1.98449e-06 0 0)
(1.98464e-06 0 0)
(1.98471e-06 0 0)
(1.9847e-06 0 0)
(1.9846e-06 0 0)
(1.98441e-06 0 0)
(1.98415e-06 0 0)
(1.9838e-06 0 0)
(1.98338e-06 0 0)
(1.98288e-06 0 0)
(1.98231e-06 0 0)
(1.98168e-06 0 0)
(1.981e-06 0 0)
(1.98027e-06 0 0)
(1.97949e-06 0 0)
(1.97868e-06 0 0)
(1.97784e-06 0 0)
(1.97698e-06 0 0)
(1.97611e-06 0 0)
(1.97524e-06 0 0)
(1.97436e-06 0 0)
(1.97349e-06 0 0)
(1.97263e-06 0 0)
(1.97179e-06 0 0)
(1.97097e-06 0 0)
(1.97018e-06 0 0)
(1.96941e-06 0 0)
(1.96866e-06 0 0)
(1.96795e-06 0 0)
(1.96727e-06 0 0)
(1.96662e-06 0 0)
(1.966e-06 0 0)
(1.96541e-06 0 0)
(1.96484e-06 0 0)
(1.96431e-06 0 0)
(1.9638e-06 0 0)
(1.96331e-06 0 0)
(1.96284e-06 0 0)
(1.9624e-06 0 0)
(1.96197e-06 0 0)
(1.96156e-06 0 0)
(1.96116e-06 0 0)
(1.96077e-06 0 0)
(1.9604e-06 0 0)
(1.96003e-06 0 0)
(1.95967e-06 0 0)
(1.95931e-06 0 0)
(1.95896e-06 0 0)
(1.95861e-06 0 0)
(1.95826e-06 0 0)
(1.95792e-06 0 0)
(1.95757e-06 0 0)
(1.95722e-06 0 0)
(1.95688e-06 0 0)
(1.95653e-06 0 0)
(1.95618e-06 0 0)
(1.95583e-06 0 0)
(1.95549e-06 0 0)
(1.95514e-06 0 0)
(1.95478e-06 0 0)
(1.95443e-06 0 0)
(1.95408e-06 0 0)
(1.95373e-06 0 0)
(1.95338e-06 0 0)
(1.95303e-06 0 0)
(1.95268e-06 0 0)
(1.95233e-06 0 0)
(1.95198e-06 0 0)
(1.95164e-06 0 0)
(1.9513e-06 0 0)
(1.95096e-06 0 0)
(1.95062e-06 0 0)
(1.95029e-06 0 0)
(1.94996e-06 0 0)
(1.94963e-06 0 0)
(1.94931e-06 0 0)
(1.94899e-06 0 0)
(1.94868e-06 0 0)
(1.94837e-06 0 0)
(1.94807e-06 0 0)
(1.94777e-06 0 0)
(1.94748e-06 0 0)
(1.94719e-06 0 0)
(1.94691e-06 0 0)
(1.94663e-06 0 0)
(1.94636e-06 0 0)
(1.9461e-06 0 0)
(1.94584e-06 0 0)
(1.94559e-06 0 0)
(1.94534e-06 0 0)
(1.9451e-06 0 0)
(1.94487e-06 0 0)
(1.94464e-06 0 0)
(1.94441e-06 0 0)
(1.9442e-06 0 0)
(1.94399e-06 0 0)
(1.94378e-06 0 0)
(1.94358e-06 0 0)
(1.94339e-06 0 0)
(1.9432e-06 0 0)
(1.94302e-06 0 0)
(1.94284e-06 0 0)
(1.94267e-06 0 0)
(1.9425e-06 0 0)
(1.94234e-06 0 0)
(1.94219e-06 0 0)
(1.94203e-06 0 0)
(1.94189e-06 0 0)
(1.94175e-06 0 0)
(1.94161e-06 0 0)
(1.94147e-06 0 0)
(1.94135e-06 0 0)
(1.94122e-06 0 0)
(1.9411e-06 0 0)
(1.94098e-06 0 0)
(1.94087e-06 0 0)
(1.94076e-06 0 0)
(1.94066e-06 0 0)
(1.94056e-06 0 0)
(1.94046e-06 0 0)
(1.94037e-06 0 0)
(1.94028e-06 0 0)
(1.9402e-06 0 0)
(1.94013e-06 0 0)
(1.94006e-06 0 0)
(1.94e-06 0 0)
(1.93995e-06 0 0)
(1.93991e-06 0 0)
(1.93987e-06 0 0)
(1.93985e-06 0 0)
(1.93984e-06 0 0)
(1.93985e-06 0 0)
(1.93987e-06 0 0)
(1.93991e-06 0 0)
(1.93996e-06 0 0)
(1.94004e-06 0 0)
(1.94013e-06 0 0)
(1.94025e-06 0 0)
(1.94039e-06 0 0)
(1.94056e-06 0 0)
(1.94075e-06 0 0)
(1.94097e-06 0 0)
(1.94122e-06 0 0)
(1.94149e-06 0 0)
(1.94179e-06 0 0)
(1.94212e-06 0 0)
(1.94248e-06 0 0)
(1.94286e-06 0 0)
(1.94327e-06 0 0)
(1.9437e-06 0 0)
(1.94416e-06 0 0)
(1.94464e-06 0 0)
(1.94513e-06 0 0)
(1.94565e-06 0 0)
(1.94617e-06 0 0)
(1.94671e-06 0 0)
(1.94725e-06 0 0)
(1.9478e-06 0 0)
(1.94835e-06 0 0)
(1.94889e-06 0 0)
(1.94942e-06 0 0)
(1.94994e-06 0 0)
(1.95045e-06 0 0)
(1.95093e-06 0 0)
(1.95138e-06 0 0)
(1.95181e-06 0 0)
(1.9522e-06 0 0)
(1.95255e-06 0 0)
(1.95286e-06 0 0)
(1.95312e-06 0 0)
(1.95334e-06 0 0)
(1.9535e-06 0 0)
(1.95361e-06 0 0)
(1.95366e-06 0 0)
(1.95366e-06 0 0)
(1.9536e-06 0 0)
(1.95347e-06 0 0)
(1.95329e-06 0 0)
(1.95305e-06 0 0)
(1.95276e-06 0 0)
(1.95241e-06 0 0)
(1.952e-06 0 0)
(1.95155e-06 0 0)
(1.95105e-06 0 0)
(1.9505e-06 0 0)
(1.94992e-06 0 0)
(1.9493e-06 0 0)
(1.94865e-06 0 0)
(1.94797e-06 0 0)
(1.94727e-06 0 0)
(1.94656e-06 0 0)
(1.94583e-06 0 0)
(1.94509e-06 0 0)
(1.94434e-06 0 0)
(1.9436e-06 0 0)
(1.94285e-06 0 0)
(1.94211e-06 0 0)
(1.94138e-06 0 0)
(1.94067e-06 0 0)
(1.93996e-06 0 0)
(1.93927e-06 0 0)
(1.9386e-06 0 0)
(1.93795e-06 0 0)
(1.93731e-06 0 0)
(1.93669e-06 0 0)
(1.9361e-06 0 0)
(1.93552e-06 0 0)
(1.93496e-06 0 0)
(1.93442e-06 0 0)
(1.9339e-06 0 0)
(1.9334e-06 0 0)
(1.93291e-06 0 0)
(1.93244e-06 0 0)
(1.93198e-06 0 0)
(1.93154e-06 0 0)
(1.93111e-06 0 0)
(1.93069e-06 0 0)
(1.93027e-06 0 0)
(1.92987e-06 0 0)
(1.92948e-06 0 0)
(1.92909e-06 0 0)
(1.92871e-06 0 0)
(1.92833e-06 0 0)
(1.92795e-06 0 0)
(1.92758e-06 0 0)
(1.92722e-06 0 0)
(1.92685e-06 0 0)
(1.92649e-06 0 0)
(1.92612e-06 0 0)
(1.92576e-06 0 0)
(1.9254e-06 0 0)
(1.92504e-06 0 0)
(1.92468e-06 0 0)
(1.92432e-06 0 0)
(1.92396e-06 0 0)
(1.9236e-06 0 0)
(1.92325e-06 0 0)
(1.92289e-06 0 0)
(1.92253e-06 0 0)
(1.92218e-06 0 0)
(1.92182e-06 0 0)
(1.92147e-06 0 0)
(1.92111e-06 0 0)
(1.92076e-06 0 0)
(1.92041e-06 0 0)
(1.92007e-06 0 0)
(1.91972e-06 0 0)
(1.91938e-06 0 0)
(1.91904e-06 0 0)
(1.9187e-06 0 0)
(1.91837e-06 0 0)
(1.91804e-06 0 0)
(1.91771e-06 0 0)
(1.91739e-06 0 0)
(1.91707e-06 0 0)
(1.91676e-06 0 0)
(1.91645e-06 0 0)
(1.91614e-06 0 0)
(1.91584e-06 0 0)
(1.91554e-06 0 0)
(1.91525e-06 0 0)
(1.91496e-06 0 0)
(1.91468e-06 0 0)
(1.9144e-06 0 0)
(1.91413e-06 0 0)
(1.91386e-06 0 0)
(1.9136e-06 0 0)
(1.91334e-06 0 0)
(1.91309e-06 0 0)
(1.91284e-06 0 0)
(1.9126e-06 0 0)
(1.91236e-06 0 0)
(1.91213e-06 0 0)
(1.9119e-06 0 0)
(1.91168e-06 0 0)
(1.91147e-06 0 0)
(1.91125e-06 0 0)
(1.91105e-06 0 0)
(1.91084e-06 0 0)
(1.91064e-06 0 0)
(1.91045e-06 0 0)
(1.91026e-06 0 0)
(1.91008e-06 0 0)
(1.9099e-06 0 0)
(1.90972e-06 0 0)
(1.90955e-06 0 0)
(1.90938e-06 0 0)
(1.90922e-06 0 0)
(1.90906e-06 0 0)
(1.9089e-06 0 0)
(1.90875e-06 0 0)
(1.9086e-06 0 0)
(1.90846e-06 0 0)
(1.90832e-06 0 0)
(1.90819e-06 0 0)
(1.90805e-06 0 0)
(1.90793e-06 0 0)
(1.9078e-06 0 0)
(1.90769e-06 0 0)
(1.90757e-06 0 0)
(1.90747e-06 0 0)
(1.90737e-06 0 0)
(1.90727e-06 0 0)
(1.90718e-06 0 0)
(1.9071e-06 0 0)
(1.90703e-06 0 0)
(1.90697e-06 0 0)
(1.90691e-06 0 0)
(1.90687e-06 0 0)
(1.90684e-06 0 0)
(1.90681e-06 0 0)
(1.9068e-06 0 0)
(1.90681e-06 0 0)
(1.90683e-06 0 0)
(1.90686e-06 0 0)
(1.90691e-06 0 0)
(1.90698e-06 0 0)
(1.90706e-06 0 0)
(1.90716e-06 0 0)
(1.90728e-06 0 0)
(1.90742e-06 0 0)
(1.90757e-06 0 0)
(1.90775e-06 0 0)
(1.90795e-06 0 0)
(1.90816e-06 0 0)
(1.90839e-06 0 0)
(1.90865e-06 0 0)
(1.90892e-06 0 0)
(1.90921e-06 0 0)
(1.90952e-06 0 0)
(1.90984e-06 0 0)
(1.91018e-06 0 0)
(1.91053e-06 0 0)
(1.91089e-06 0 0)
(1.91126e-06 0 0)
(1.91163e-06 0 0)
(1.91202e-06 0 0)
(1.9124e-06 0 0)
(1.91279e-06 0 0)
(1.91318e-06 0 0)
(1.91357e-06 0 0)
(1.91395e-06 0 0)
(1.91433e-06 0 0)
(1.91469e-06 0 0)
(1.91505e-06 0 0)
(1.91539e-06 0 0)
(1.91571e-06 0 0)
(1.91602e-06 0 0)
(1.9163e-06 0 0)
(1.91655e-06 0 0)
(1.91678e-06 0 0)
(1.91698e-06 0 0)
(1.91714e-06 0 0)
(1.91727e-06 0 0)
(1.91737e-06 0 0)
(1.91743e-06 0 0)
(1.91745e-06 0 0)
(1.10978e-06 0 0)
)
;

boundaryField
{
    inlet
    {
        type            fixedValue;
        value           uniform (2.74882e-06 0 0);
    }
    outlet
    {
        type            zeroGradient;
    }
    emptyWalls
    {
        type            empty;
    }
}


// ************************************************************************* //
