/*--------------------------------*- C++ -*----------------------------------*\
  =========                 |
  \\      /  F ield         | OpenFOAM: The Open Source CFD Toolbox
   \\    /   O peration     | Website:  https://openfoam.org
    \\  /    A nd           | Version:  9
     \\/     M anipulation  |
\*---------------------------------------------------------------------------*/
FoamFile
{
    format      ascii;
    class       surfaceScalarField;
    location    "15100";
    object      phib;
}
// * * * * * * * * * * * * * * * * * * * * * * * * * * * * * * * * * * * * * //

dimensions      [0 2 0 0 0 0 0];

internalField   nonuniform List<scalar> 
999
(
1.13622e-09
1.13622e-09
1.13625e-09
1.13627e-09
1.13632e-09
1.13634e-09
1.13641e-09
1.13641e-09
1.13648e-09
1.13652e-09
1.13656e-09
1.13665e-09
1.13667e-09
1.13675e-09
1.13678e-09
1.13684e-09
1.13689e-09
1.13699e-09
1.13729e-09
1.13842e-09
1.14508e-09
1.17091e-09
1.17623e-09
1.17763e-09
1.17826e-09
1.17863e-09
1.17889e-09
1.17909e-09
1.17927e-09
1.17942e-09
1.17954e-09
1.17962e-09
1.17966e-09
1.17969e-09
1.17972e-09
1.17975e-09
1.17979e-09
1.17979e-09
1.17971e-09
1.17952e-09
1.17921e-09
1.17878e-09
1.17829e-09
1.17778e-09
1.17734e-09
1.17701e-09
1.17677e-09
1.17656e-09
1.17635e-09
1.17616e-09
1.17609e-09
1.17613e-09
1.17628e-09
1.1765e-09
1.17675e-09
1.17698e-09
1.17714e-09
1.1772e-09
1.17715e-09
1.17698e-09
1.17671e-09
1.17635e-09
1.17591e-09
1.17539e-09
1.17482e-09
1.17421e-09
1.17356e-09
1.17289e-09
1.17221e-09
1.17152e-09
1.17084e-09
1.17016e-09
1.16949e-09
1.16883e-09
1.16818e-09
1.16753e-09
1.16689e-09
1.16625e-09
1.16562e-09
1.16499e-09
1.16436e-09
1.16373e-09
1.1631e-09
1.16247e-09
1.16183e-09
1.1612e-09
1.16056e-09
1.15992e-09
1.15928e-09
1.15864e-09
1.15799e-09
1.15734e-09
1.15669e-09
1.15603e-09
1.15537e-09
1.15471e-09
1.15405e-09
1.15339e-09
1.15272e-09
1.15205e-09
1.15137e-09
1.1507e-09
1.15002e-09
1.14934e-09
1.14865e-09
1.14797e-09
1.14728e-09
1.14659e-09
1.14589e-09
1.1452e-09
1.1445e-09
1.14379e-09
1.14309e-09
1.14238e-09
1.14167e-09
1.14096e-09
1.14025e-09
1.13953e-09
1.13881e-09
1.13809e-09
1.13737e-09
1.13664e-09
1.13591e-09
1.13518e-09
1.13445e-09
1.13371e-09
1.13297e-09
1.13223e-09
1.13149e-09
1.13075e-09
1.13e-09
1.12925e-09
1.12851e-09
1.12776e-09
1.12701e-09
1.12626e-09
1.12551e-09
1.12476e-09
1.124e-09
1.12325e-09
1.12249e-09
1.12173e-09
1.12096e-09
1.1202e-09
1.11943e-09
1.11866e-09
1.11789e-09
1.11713e-09
1.11636e-09
1.11558e-09
1.11481e-09
1.11403e-09
1.11324e-09
1.11244e-09
1.11163e-09
1.1108e-09
1.10995e-09
1.10908e-09
1.1082e-09
1.1073e-09
1.10638e-09
1.10545e-09
1.1045e-09
1.10354e-09
1.10258e-09
1.10161e-09
1.10064e-09
1.09968e-09
1.09873e-09
1.09779e-09
1.09687e-09
1.09598e-09
1.09512e-09
1.09429e-09
1.09349e-09
1.09273e-09
1.09201e-09
1.09132e-09
1.09067e-09
1.09004e-09
1.08943e-09
1.08884e-09
1.08826e-09
1.08768e-09
1.0871e-09
1.08652e-09
1.08592e-09
1.08531e-09
1.08468e-09
1.08403e-09
1.08336e-09
1.08267e-09
1.08196e-09
1.08123e-09
1.08048e-09
1.07972e-09
1.07895e-09
1.07817e-09
1.07737e-09
1.07658e-09
1.07577e-09
1.07497e-09
1.07416e-09
1.07335e-09
1.07254e-09
1.07174e-09
1.07093e-09
1.07013e-09
1.06932e-09
1.06852e-09
1.06772e-09
1.06693e-09
1.06613e-09
1.06533e-09
1.06454e-09
1.06375e-09
1.06295e-09
1.06216e-09
1.06137e-09
1.06057e-09
1.05978e-09
1.05898e-09
1.05819e-09
1.05739e-09
1.0566e-09
1.0558e-09
1.055e-09
1.0542e-09
1.05339e-09
1.05259e-09
1.05178e-09
1.05098e-09
1.05017e-09
1.04936e-09
1.04855e-09
1.04774e-09
1.04692e-09
1.0461e-09
1.04529e-09
1.04447e-09
1.04365e-09
1.04282e-09
1.042e-09
1.04117e-09
1.04034e-09
1.03951e-09
1.03868e-09
1.03785e-09
1.03701e-09
1.03618e-09
1.03534e-09
1.0345e-09
1.03366e-09
1.03281e-09
1.03197e-09
1.03112e-09
1.03027e-09
1.02942e-09
1.02857e-09
1.02771e-09
1.02685e-09
1.026e-09
1.02514e-09
1.02427e-09
1.02341e-09
1.02254e-09
1.02168e-09
1.02081e-09
1.01994e-09
1.01907e-09
1.01819e-09
1.01732e-09
1.01644e-09
1.01557e-09
1.01469e-09
1.01381e-09
1.01293e-09
1.01204e-09
1.01116e-09
1.01027e-09
1.00939e-09
1.0085e-09
1.00761e-09
1.00671e-09
1.00582e-09
1.00493e-09
1.00403e-09
1.00313e-09
1.00223e-09
1.00133e-09
1.00043e-09
9.99523e-10
9.98615e-10
9.97703e-10
9.96787e-10
9.95867e-10
9.94942e-10
9.94011e-10
9.93075e-10
9.92131e-10
9.9118e-10
9.90221e-10
9.89254e-10
9.88279e-10
9.87296e-10
9.86304e-10
9.85304e-10
9.84296e-10
9.83282e-10
9.82261e-10
9.81235e-10
9.80206e-10
9.79173e-10
9.78139e-10
9.77105e-10
9.76073e-10
9.75045e-10
9.74023e-10
9.73007e-10
9.72e-10
9.71004e-10
9.7002e-10
9.69048e-10
9.68091e-10
9.67148e-10
9.6622e-10
9.65308e-10
9.6441e-10
9.63526e-10
9.62655e-10
9.61795e-10
9.60946e-10
9.60105e-10
9.59271e-10
9.5844e-10
9.57612e-10
9.56784e-10
9.55955e-10
9.55122e-10
9.54284e-10
9.5344e-10
9.52588e-10
9.51729e-10
9.5086e-10
9.49982e-10
9.49096e-10
9.482e-10
9.47295e-10
9.46381e-10
9.45459e-10
9.4453e-10
9.43594e-10
9.42651e-10
9.41703e-10
9.4075e-10
9.39793e-10
9.38831e-10
9.37867e-10
9.369e-10
9.3593e-10
9.34959e-10
9.33986e-10
9.33012e-10
9.32036e-10
9.3106e-10
9.30083e-10
9.29105e-10
9.28126e-10
9.27146e-10
9.26166e-10
9.25185e-10
9.24203e-10
9.2322e-10
9.22236e-10
9.21251e-10
9.20265e-10
9.19278e-10
9.18289e-10
9.17299e-10
9.16308e-10
9.15314e-10
9.14319e-10
9.13323e-10
9.12324e-10
9.11324e-10
9.10322e-10
9.09318e-10
9.08311e-10
9.07303e-10
9.06293e-10
9.0528e-10
9.04265e-10
9.03248e-10
9.02229e-10
9.01207e-10
9.00183e-10
8.99157e-10
8.98128e-10
8.97097e-10
8.96063e-10
8.95027e-10
8.93989e-10
8.92948e-10
8.91904e-10
8.90858e-10
8.89809e-10
8.88758e-10
8.87704e-10
8.86648e-10
8.85589e-10
8.84527e-10
8.83463e-10
8.82396e-10
8.81327e-10
8.80255e-10
8.7918e-10
8.78102e-10
8.77022e-10
8.75939e-10
8.74853e-10
8.73764e-10
8.72673e-10
8.71579e-10
8.70482e-10
8.69382e-10
8.6828e-10
8.67175e-10
8.66067e-10
8.64956e-10
8.63842e-10
8.62726e-10
8.61607e-10
8.60485e-10
8.5936e-10
8.58233e-10
8.57103e-10
8.5597e-10
8.54834e-10
8.53695e-10
8.52554e-10
8.51409e-10
8.50262e-10
8.49112e-10
8.47959e-10
8.46803e-10
8.45644e-10
8.44482e-10
8.43317e-10
8.42149e-10
8.40978e-10
8.39804e-10
8.38626e-10
8.37444e-10
8.3626e-10
8.35071e-10
8.33879e-10
8.32682e-10
8.31482e-10
8.30276e-10
8.29067e-10
8.27852e-10
8.26632e-10
8.25407e-10
8.24176e-10
8.2294e-10
8.21697e-10
8.20449e-10
8.19194e-10
8.17933e-10
8.16665e-10
8.15391e-10
8.1411e-10
8.12823e-10
8.1153e-10
8.1023e-10
8.08925e-10
8.07613e-10
8.06297e-10
8.04975e-10
8.03649e-10
8.02318e-10
8.00984e-10
7.99646e-10
7.98307e-10
7.96965e-10
7.95622e-10
7.94278e-10
7.92934e-10
7.91591e-10
7.90249e-10
7.88908e-10
7.87569e-10
7.86233e-10
7.849e-10
7.83569e-10
7.82242e-10
7.80918e-10
7.79597e-10
7.7828e-10
7.76965e-10
7.75652e-10
7.74342e-10
7.73033e-10
7.71725e-10
7.70416e-10
7.69108e-10
7.67797e-10
7.66485e-10
7.6517e-10
7.6385e-10
7.62526e-10
7.61197e-10
7.59861e-10
7.58519e-10
7.57169e-10
7.55812e-10
7.54447e-10
7.53073e-10
7.5169e-10
7.50298e-10
7.48897e-10
7.47486e-10
7.46066e-10
7.44638e-10
7.432e-10
7.41753e-10
7.40296e-10
7.38832e-10
7.37358e-10
7.35876e-10
7.34385e-10
7.32886e-10
7.31379e-10
7.29865e-10
7.28342e-10
7.26812e-10
7.25275e-10
7.23729e-10
7.22177e-10
7.20617e-10
7.1905e-10
7.17476e-10
7.15894e-10
7.14306e-10
7.1271e-10
7.11107e-10
7.09497e-10
7.0788e-10
7.06256e-10
7.04626e-10
7.02988e-10
7.01343e-10
6.99693e-10
6.98035e-10
6.96371e-10
6.94702e-10
6.93027e-10
6.91348e-10
6.89664e-10
6.87976e-10
6.86286e-10
6.84594e-10
6.82903e-10
6.81212e-10
6.79525e-10
6.77843e-10
6.76169e-10
6.74506e-10
6.72857e-10
6.71227e-10
6.69619e-10
6.68038e-10
6.66489e-10
6.64977e-10
6.6351e-10
6.62092e-10
6.6073e-10
6.5943e-10
6.58195e-10
6.57032e-10
6.55945e-10
6.54937e-10
6.54011e-10
6.53168e-10
6.52407e-10
6.51726e-10
6.51123e-10
6.50595e-10
6.50136e-10
6.49741e-10
6.494e-10
6.49104e-10
6.48841e-10
6.48593e-10
6.48333e-10
6.48017e-10
6.47572e-10
6.46867e-10
6.45677e-10
6.4361e-10
6.39979e-10
6.3363e-10
6.22691e-10
6.04418e-10
5.75455e-10
5.33225e-10
4.78715e-10
4.18711e-10
3.63636e-10
3.21309e-10
2.9324e-10
2.76489e-10
2.67137e-10
2.62113e-10
2.59471e-10
2.58097e-10
2.57386e-10
2.57019e-10
2.5683e-10
2.56732e-10
2.56681e-10
2.56654e-10
2.56639e-10
2.56631e-10
2.56625e-10
2.56622e-10
2.56619e-10
2.56617e-10
2.56615e-10
2.56613e-10
2.5661e-10
2.56608e-10
2.56606e-10
2.56604e-10
2.56601e-10
2.56599e-10
2.56596e-10
2.56593e-10
2.5659e-10
2.56587e-10
2.56584e-10
2.5658e-10
2.56576e-10
2.56572e-10
2.56568e-10
2.56563e-10
2.56558e-10
2.56553e-10
2.56547e-10
2.56541e-10
2.56534e-10
2.56527e-10
2.56519e-10
2.56511e-10
2.56502e-10
2.56493e-10
2.56483e-10
2.56473e-10
2.56462e-10
2.56451e-10
2.56438e-10
2.56426e-10
2.56412e-10
2.56399e-10
2.56384e-10
2.5637e-10
2.56354e-10
2.56339e-10
2.56323e-10
2.56306e-10
2.5629e-10
2.56273e-10
2.56256e-10
2.5624e-10
2.56223e-10
2.56206e-10
2.5619e-10
2.56174e-10
2.56158e-10
2.56143e-10
2.56129e-10
2.56115e-10
2.56102e-10
2.5609e-10
2.56079e-10
2.5607e-10
2.56061e-10
2.56053e-10
2.56047e-10
2.56043e-10
2.56039e-10
2.56037e-10
2.56036e-10
2.56036e-10
2.56036e-10
2.56039e-10
2.56044e-10
2.5605e-10
2.56057e-10
2.56066e-10
2.56076e-10
2.56086e-10
2.56098e-10
2.5611e-10
2.56123e-10
2.56136e-10
2.5615e-10
2.56165e-10
2.56179e-10
2.56194e-10
2.56208e-10
2.56223e-10
2.56238e-10
2.56252e-10
2.56266e-10
2.56279e-10
2.56292e-10
2.56305e-10
2.56317e-10
2.56329e-10
2.5634e-10
2.5635e-10
2.5636e-10
2.56369e-10
2.56378e-10
2.56386e-10
2.56393e-10
2.564e-10
2.56407e-10
2.56413e-10
2.56418e-10
2.56424e-10
2.56428e-10
2.56433e-10
2.56437e-10
2.56441e-10
2.56445e-10
2.56448e-10
2.56451e-10
2.56454e-10
2.56457e-10
2.5646e-10
2.56463e-10
2.56466e-10
2.56469e-10
2.56471e-10
2.56474e-10
2.56477e-10
2.56479e-10
2.56482e-10
2.56485e-10
2.56488e-10
2.5649e-10
2.56493e-10
2.56496e-10
2.56499e-10
2.56502e-10
2.56504e-10
2.56507e-10
2.5651e-10
2.56513e-10
2.56516e-10
2.56519e-10
2.56522e-10
2.56525e-10
2.56528e-10
2.56531e-10
2.56534e-10
2.56537e-10
2.5654e-10
2.56542e-10
2.56545e-10
2.56548e-10
2.56551e-10
2.56554e-10
2.56556e-10
2.56559e-10
2.56562e-10
2.56564e-10
2.56567e-10
2.56569e-10
2.56572e-10
2.56574e-10
2.56576e-10
2.56579e-10
2.56581e-10
2.56583e-10
2.56585e-10
2.56587e-10
2.56589e-10
2.56591e-10
2.56592e-10
2.56594e-10
2.56596e-10
2.56597e-10
2.56599e-10
2.566e-10
2.56601e-10
2.56603e-10
2.56604e-10
2.56605e-10
2.56606e-10
2.56606e-10
2.56607e-10
2.56608e-10
2.56608e-10
2.56609e-10
2.56609e-10
2.56609e-10
2.56609e-10
2.56609e-10
2.56609e-10
2.56609e-10
2.56609e-10
2.56608e-10
2.56608e-10
2.56607e-10
2.56607e-10
2.56606e-10
2.56605e-10
2.56604e-10
2.56603e-10
2.56602e-10
2.56601e-10
2.566e-10
2.56599e-10
2.56598e-10
2.56597e-10
2.56596e-10
2.56595e-10
2.56594e-10
2.56593e-10
2.56591e-10
2.5659e-10
2.56589e-10
2.56587e-10
2.56586e-10
2.56584e-10
2.56582e-10
2.5658e-10
2.56578e-10
2.56576e-10
2.56574e-10
2.56571e-10
2.56568e-10
2.56565e-10
2.56561e-10
2.56558e-10
2.56554e-10
2.5655e-10
2.56545e-10
2.5654e-10
2.56535e-10
2.5653e-10
2.56524e-10
2.56517e-10
2.56511e-10
2.56504e-10
2.56496e-10
2.56488e-10
2.5648e-10
2.56471e-10
2.56462e-10
2.56453e-10
2.56442e-10
2.56432e-10
2.56421e-10
2.5641e-10
2.56398e-10
2.56386e-10
2.56373e-10
2.56361e-10
2.56348e-10
2.56334e-10
2.56321e-10
2.56307e-10
2.56293e-10
2.56279e-10
2.56265e-10
2.56251e-10
2.56237e-10
2.56223e-10
2.56209e-10
2.56196e-10
2.56183e-10
2.5617e-10
2.56158e-10
2.56147e-10
2.56136e-10
2.56125e-10
2.56116e-10
2.56107e-10
2.56099e-10
2.56092e-10
2.56086e-10
2.56081e-10
2.56077e-10
2.56074e-10
2.56073e-10
2.56072e-10
2.56072e-10
2.56072e-10
2.56073e-10
2.56076e-10
2.56081e-10
2.56087e-10
2.56094e-10
2.56101e-10
2.5611e-10
2.56119e-10
2.56129e-10
2.56139e-10
2.5615e-10
2.56162e-10
2.56174e-10
2.56186e-10
2.56198e-10
2.56211e-10
2.56224e-10
2.56236e-10
2.56249e-10
2.56261e-10
2.56274e-10
2.56286e-10
2.56297e-10
2.56309e-10
2.56319e-10
2.5633e-10
2.5634e-10
2.5635e-10
2.56359e-10
2.56368e-10
2.56376e-10
2.56384e-10
2.56392e-10
2.56399e-10
2.56405e-10
2.56412e-10
2.56417e-10
2.56423e-10
2.56428e-10
2.56433e-10
2.56438e-10
2.56442e-10
2.56447e-10
2.56451e-10
2.56454e-10
2.56458e-10
2.56462e-10
2.56465e-10
2.56468e-10
2.56472e-10
2.56475e-10
2.56478e-10
2.56481e-10
2.56484e-10
2.56487e-10
2.5649e-10
2.56493e-10
2.56496e-10
2.565e-10
2.56503e-10
2.56506e-10
2.56509e-10
2.56512e-10
2.56515e-10
2.56518e-10
2.56521e-10
2.56524e-10
2.56527e-10
2.56531e-10
2.56534e-10
2.56537e-10
2.5654e-10
2.56543e-10
2.56546e-10
2.56549e-10
2.56552e-10
2.56555e-10
2.56558e-10
2.56561e-10
2.56564e-10
2.56566e-10
2.56569e-10
2.56572e-10
2.56575e-10
2.56577e-10
2.5658e-10
2.56582e-10
2.56585e-10
2.56587e-10
2.56589e-10
2.56591e-10
2.56593e-10
2.56595e-10
2.56597e-10
2.56599e-10
2.56601e-10
2.56602e-10
)
;

boundaryField
{
    inlet
    {
        type            calculated;
        value           uniform -1.13622e-09;
    }
    outlet
    {
        type            calculated;
        value           uniform 2.56604e-10;
    }
    emptyWalls
    {
        type            empty;
        value           nonuniform List<scalar> 0();
    }
}


// ************************************************************************* //
