/*--------------------------------*- C++ -*----------------------------------*\
  =========                 |
  \\      /  F ield         | OpenFOAM: The Open Source CFD Toolbox
   \\    /   O peration     | Website:  https://openfoam.org
    \\  /    A nd           | Version:  9
     \\/     M anipulation  |
\*---------------------------------------------------------------------------*/
FoamFile
{
    format      ascii;
    class       volScalarField;
    location    "23150";
    object      kra;
}
// * * * * * * * * * * * * * * * * * * * * * * * * * * * * * * * * * * * * * //

dimensions      [0 0 0 0 0 0 0];

internalField   nonuniform List<scalar> 
1000
(
0.000236684
0.000237561
0.000238722
0.000239881
0.000241046
0.000242214
0.000243382
0.000244582
0.000245759
0.000247003
0.000248181
0.000249469
0.000250646
0.000251951
0.000253136
0.000254408
0.000255592
0.000256786
0.000257917
0.000259002
0.000260015
0.000260961
0.000261818
0.000262598
0.000263288
0.0002639
0.000264443
0.000264927
0.00026549
0.000266454
0.000269737
0.000282049
0.000354246
0.000703466
0.000868137
0.000907204
0.000923272
0.000927714
0.000927743
0.000926402
0.000923752
0.000922306
0.000921978
0.000922333
0.000924281
0.000926166
0.000927765
0.000928975
0.000929859
0.000930403
0.000930758
0.000930864
0.000930856
0.000930782
0.000930649
0.000930417
0.000930162
0.00092986
0.000929523
0.000929185
0.000928785
0.000928415
0.000927949
0.00092756
0.00092703
0.000926621
0.000926039
0.000925597
0.000925012
0.000924437
0.000923845
0.000923236
0.000922606
0.000921958
0.000921293
0.000920605
0.000919887
0.000919144
0.00091837
0.000917563
0.000916712
0.000915822
0.000914874
0.000913867
0.000912776
0.000911594
0.000910278
0.000908801
0.000907114
0.000905201
0.000903042
0.000900674
0.000898136
0.000895484
0.000892757
0.000889984
0.00088719
0.000884393
0.000881607
0.000878844
0.000876111
0.00087341
0.000870736
0.000868078
0.000865425
0.000862768
0.000860106
0.000857443
0.000854787
0.000852141
0.000849513
0.000846916
0.000844376
0.000841932
0.000839628
0.000837502
0.000835573
0.000833844
0.000832291
0.00083088
0.000829571
0.000828326
0.000827111
0.000825901
0.000824674
0.000823405
0.000822069
0.000820633
0.000819063
0.000817324
0.000815384
0.000813221
0.000810826
0.000808202
0.000805368
0.000802355
0.000799204
0.000795962
0.000792678
0.000789399
0.000786169
0.000783023
0.000779988
0.000777083
0.00077432
0.0007717
0.000769219
0.000766868
0.000764634
0.000762502
0.000760454
0.000758475
0.000756547
0.000754657
0.000752792
0.000750943
0.0007491
0.000747258
0.000745414
0.000743565
0.00074171
0.00073985
0.000737985
0.000736117
0.000734248
0.00073238
0.000730515
0.000728655
0.000726801
0.000724955
0.000723119
0.000721293
0.000719478
0.000717675
0.000715885
0.000714108
0.000712344
0.000710593
0.000708856
0.000707133
0.000705424
0.000703728
0.000702047
0.000700379
0.000698725
0.000697085
0.00069546
0.000693848
0.00069225
0.000690666
0.000689095
0.000687538
0.000685995
0.000684464
0.000682947
0.000681442
0.00067995
0.000678471
0.000677005
0.000675551
0.000674112
0.000672685
0.000671272
0.000669872
0.000668486
0.000667112
0.000665751
0.000664401
0.000663061
0.000661731
0.000660411
0.000659099
0.000657796
0.000656501
0.000655214
0.000653935
0.000652665
0.000651404
0.000650154
0.000648913
0.000647684
0.000646464
0.000645254
0.000644053
0.000642859
0.000641672
0.000640489
0.000639309
0.000638132
0.000636957
0.000635786
0.00063462
0.000633465
0.000632323
0.000631202
0.000630106
0.000629042
0.000628016
0.000627034
0.0006261
0.000625218
0.000624389
0.000623614
0.000622892
0.000622221
0.000621597
0.000621015
0.000620468
0.000619947
0.000619445
0.000618951
0.000618454
0.000617942
0.000617404
0.000616827
0.000616199
0.000615511
0.000614751
0.000613913
0.000612989
0.000611978
0.000610878
0.000609692
0.000608423
0.000607079
0.000605671
0.000604208
0.000602705
0.000601173
0.000599627
0.000598079
0.00059654
0.000595023
0.000593534
0.000592082
0.000590672
0.000589306
0.000587987
0.000586715
0.000585488
0.000584304
0.00058316
0.000582052
0.000580976
0.000579928
0.000578903
0.000577898
0.000576908
0.000575931
0.000574962
0.000574
0.000573042
0.000572087
0.000571132
0.000570177
0.000569222
0.000568265
0.000567308
0.000566349
0.00056539
0.00056443
0.00056347
0.00056251
0.000561552
0.000560594
0.000559639
0.000558686
0.000557736
0.00055679
0.000555847
0.000554908
0.000553973
0.000553043
0.000552118
0.000551198
0.000550283
0.000549374
0.00054847
0.000547571
0.000546678
0.000545791
0.000544909
0.000544033
0.000543163
0.000542299
0.00054144
0.000540587
0.00053974
0.000538898
0.000538062
0.000537232
0.000536408
0.000535589
0.000534776
0.000533969
0.000533168
0.000532373
0.000531583
0.000530799
0.000530021
0.000529249
0.000528482
0.00052772
0.000526964
0.000526212
0.000525466
0.000524724
0.000523987
0.000523254
0.000522525
0.000521801
0.00052108
0.000520364
0.000519652
0.000518943
0.000518239
0.000517539
0.000516842
0.000516149
0.00051546
0.000514774
0.000514091
0.000513411
0.000512733
0.000512058
0.000511386
0.000510716
0.000510048
0.000509384
0.000508724
0.000508068
0.000507419
0.000506777
0.000506144
0.000505521
0.000504911
0.000504315
0.000503736
0.000503174
0.000502633
0.000502112
0.000501614
0.000501139
0.000500688
0.00050026
0.000499856
0.000499474
0.000499113
0.000498771
0.000498445
0.000498133
0.000497832
0.000497537
0.000497245
0.000496952
0.000496652
0.000496342
0.000496016
0.00049567
0.000495299
0.0004949
0.000494467
0.000494
0.000493493
0.000492946
0.000492358
0.000491727
0.000491055
0.000490344
0.000489594
0.00048881
0.000487993
0.000487151
0.000486285
0.000485403
0.000484507
0.000483604
0.000482698
0.000481795
0.000480896
0.000480008
0.000479132
0.000478272
0.000477428
0.000476604
0.000475799
0.000475014
0.000474249
0.000473504
0.000472777
0.000472068
0.000471375
0.000470698
0.000470034
0.000469382
0.000468741
0.000468108
0.000467484
0.000466865
0.000466252
0.000465643
0.000465037
0.000464434
0.000463832
0.000463232
0.000462632
0.000462032
0.000461433
0.000460834
0.000460234
0.000459635
0.000459036
0.000458437
0.000457838
0.000457239
0.000456641
0.000456044
0.000455448
0.000454853
0.000454259
0.000453667
0.000453076
0.000452488
0.000451901
0.000451317
0.000450735
0.000450155
0.000449577
0.000449003
0.000448431
0.000447861
0.000447295
0.000446731
0.00044617
0.000445612
0.000445057
0.000444505
0.000443956
0.00044341
0.000442867
0.000442328
0.000441791
0.000441257
0.000440727
0.0004402
0.000439675
0.000439154
0.000438637
0.000438122
0.00043761
0.000437102
0.000436597
0.000436094
0.000435595
0.000435099
0.000434605
0.000434115
0.000433627
0.000433142
0.00043266
0.00043218
0.000431703
0.000431228
0.000430756
0.000430287
0.000429819
0.000429354
0.000428892
0.000428431
0.000427973
0.000427516
0.000427062
0.000426609
0.000426158
0.000425709
0.000425262
0.000424817
0.000424373
0.000423932
0.000423492
0.000423055
0.00042262
0.000422188
0.000421759
0.000421334
0.000420913
0.000420497
0.000420087
0.000419682
0.000419285
0.000418895
0.000418514
0.000418142
0.00041778
0.000417429
0.000417088
0.000416759
0.000416442
0.000416137
0.000415844
0.000415563
0.000415294
0.000415036
0.000414789
0.000414551
0.000414322
0.000414101
0.000413885
0.000413674
0.000413466
0.000413259
0.000413051
0.000412841
0.000412625
0.000412402
0.00041217
0.000411927
0.00041167
0.000411399
0.00041111
0.000410803
0.000410476
0.000410129
0.00040976
0.000409368
0.000408954
0.000408518
0.00040806
0.000407581
0.000407081
0.000406563
0.000406028
0.000405477
0.000404913
0.000404337
0.000403752
0.000403161
0.000402565
0.000401966
0.000401366
0.000400768
0.000400174
0.000399583
0.000398999
0.000398423
0.000397854
0.000397294
0.000396744
0.000396204
0.000395673
0.000395152
0.000394641
0.000394139
0.000393646
0.000393161
0.000392685
0.000392215
0.000391752
0.000391296
0.000390844
0.000390398
0.000389955
0.000389516
0.00038908
0.000388647
0.000388215
0.000387786
0.000387358
0.000386931
0.000386504
0.000386078
0.000385653
0.000385228
0.000384804
0.000384379
0.000383955
0.000383531
0.000383107
0.000382683
0.000382259
0.000381836
0.000381413
0.000380991
0.00038057
0.000380149
0.000379729
0.00037931
0.000378891
0.000378474
0.000378058
0.000377644
0.000377229
0.000376818
0.000376406
0.000375998
0.000375589
0.000375184
0.000374779
0.000374377
0.000373975
0.000373576
0.000373178
0.000372783
0.000372388
0.000371997
0.000371607
0.000371219
0.000370832
0.000370449
0.000370066
0.000369686
0.000369308
0.000368932
0.000368557
0.000368185
0.000367815
0.000367446
0.00036708
0.000366715
0.000366353
0.000365992
0.000365633
0.000365277
0.000364921
0.000364568
0.000364216
0.000363867
0.000363518
0.000363172
0.000362827
0.000362484
0.000362142
0.000361801
0.000361463
0.000361125
0.000360789
0.000360454
0.000360121
0.000359789
0.000359458
0.000359128
0.0003588
0.000358473
0.000358148
0.000357824
0.000357501
0.00035718
0.000356861
0.000356544
0.000356229
0.000355917
0.000355607
0.0003553
0.000354996
0.000354695
0.000354398
0.000354106
0.000353817
0.000353534
0.000353255
0.000352983
0.000352715
0.000352454
0.000352199
0.00035195
0.000351708
0.000351473
0.000351244
0.000351022
0.000350806
0.000350596
0.000350393
0.000350195
0.000350002
0.000349815
0.000349631
0.000349451
0.000349274
0.000349099
0.000348925
0.000348752
0.000348578
0.000348402
0.000348224
0.000348042
0.000347855
0.000347662
0.000347463
0.000347256
0.000347041
0.000346816
0.00034658
0.000346333
0.000346075
0.000345804
0.000345521
0.000345225
0.000344915
0.000344593
0.000344257
0.000343908
0.000343548
0.000343175
0.000342791
0.000342396
0.000341992
0.000341579
0.000341159
0.000340731
0.000340298
0.000339861
0.00033942
0.000338976
0.000338532
0.000338087
0.000337643
0.0003372
0.000336759
0.000336321
0.000335887
0.000335457
0.000335031
0.00033461
0.000334194
0.000333783
0.000333377
0.000332976
0.000332581
0.00033219
0.000331805
0.000331424
0.000331047
0.000330675
0.000330307
0.000329942
0.00032958
0.000329221
0.000328865
0.000328512
0.00032816
0.000327811
0.000327463
0.000327116
0.000326771
0.000326426
0.000326082
0.000325739
0.000325397
0.000325055
0.000324713
0.000324372
0.000324031
0.00032369
0.000323349
0.000323008
0.000322668
0.000322328
0.000321988
0.000321648
0.000321308
0.000320969
0.00032063
0.000320291
0.000319953
0.000319615
0.000319278
0.000318941
0.000318605
0.00031827
0.000317935
0.000317601
0.000317268
0.000316935
0.000316604
0.000316273
0.000315943
0.000315614
0.000315286
0.000314959
0.000314633
0.000314308
0.000313984
0.000313661
0.00031334
0.000313019
0.000312699
0.000312381
0.000312063
0.000311747
0.000311432
0.000311118
0.000310805
0.000310493
0.000310183
0.000309873
0.000309565
0.000309257
0.000308951
0.000308646
0.000308342
0.000308039
0.000307737
0.000307436
0.000307136
0.000306837
0.000306539
0.000306242
0.000305946
0.000305651
0.000305357
0.000305063
0.000304771
0.00030448
0.00030419
0.0003039
0.000303612
0.000303324
0.000303038
0.000302752
0.000302468
0.000302185
0.000301903
0.000301623
0.000301344
0.000301067
0.000300791
0.000300518
0.000300247
0.000299978
0.000299712
0.000299449
0.000299189
0.000298933
0.000298681
0.000298434
0.000298192
0.000297956
0.000297725
0.000297502
0.000297285
0.000297077
0.000296876
0.000296688
0.000296504
0.000296338
0.000296176
0.000296033
0.000295897
0.000295777
0.000295671
0.000295575
0.0002955
0.000295431
0.000295382
0.000295346
0.000295318
0.000295315
0.000295318
0.00029533
0.000295357
0.000295394
0.000295441
0.000295496
0.000295559
0.000295628
0.000295703
0.00029578
0.000295861
0.000295944
0.000296027
0.000296109
0.000296191
0.000296268
0.000296342
0.000296416
0.000296473
0.000296526
0.000296582
0.000296598
0.000296593
0.000296566
0.000296469
0.000296267
0.000295883
0.000295186
0.000293958
0.000291861
0.000288439
0.000283227
0.000276117
0.00026785
0.000260059
0.00025425
0.000250744
0.000248909
0.000247997
0.000247532
0.000247273
0.000247111
0.000246995
0.000246901
0.000246818
0.000246741
0.000246666
0.000246593
0.000246521
0.00024645
0.00024638
0.000246311
0.000246244
0.000246178
0.000246114
0.000246052
0.000245992
0.000245933
0.000245877
0.000245823
0.000245771
0.000245722
0.000245674
0.000245628
0.000245586
0.000245543
0.000245505
0.000245465
0.000245432
0.000245394
0.000245365
0.000245328
0.000245303
0.000245268
0.000245246
0.000245212
0.000245192
0.00024516
0.000245142
0.00024511
0.000245094
0.000245062
0.000245048
0.000245016
0.000245003
0.000244971
0.000244958
0.000244926
0.000244915
0.000244882
0.000244871
0.000244839
0.000244828
0.000244795
0.000244786
0.000244752
0.000244743
0.00024471
0.000244701
0.000244668
0.000244659
0.000244625
0.000244619
)
;

boundaryField
{
    inlet
    {
        type            calculated;
        value           uniform 0.000236304;
    }
    outlet
    {
        type            calculated;
        value           uniform 0.000244601;
    }
    emptyWalls
    {
        type            empty;
    }
}


// ************************************************************************* //
