/*--------------------------------*- C++ -*----------------------------------*\
  =========                 |
  \\      /  F ield         | OpenFOAM: The Open Source CFD Toolbox
   \\    /   O peration     | Website:  https://openfoam.org
    \\  /    A nd           | Version:  9
     \\/     M anipulation  |
\*---------------------------------------------------------------------------*/
FoamFile
{
    format      ascii;
    class       volVectorField;
    location    "23150";
    object      Ub;
}
// * * * * * * * * * * * * * * * * * * * * * * * * * * * * * * * * * * * * * //

dimensions      [0 0 0 0 0 0 0];

internalField   nonuniform List<vector> 
1000
(
(1.1362e-05 0 0)
(1.13621e-05 0 0)
(1.13621e-05 0 0)
(1.13622e-05 0 0)
(1.13623e-05 0 0)
(1.13625e-05 0 0)
(1.13627e-05 0 0)
(1.13629e-05 0 0)
(1.13631e-05 0 0)
(1.13634e-05 0 0)
(1.13637e-05 0 0)
(1.13639e-05 0 0)
(1.13643e-05 0 0)
(1.13646e-05 0 0)
(1.1365e-05 0 0)
(1.13653e-05 0 0)
(1.13657e-05 0 0)
(1.13662e-05 0 0)
(1.13666e-05 0 0)
(1.13671e-05 0 0)
(1.13675e-05 0 0)
(1.13679e-05 0 0)
(1.13683e-05 0 0)
(1.13687e-05 0 0)
(1.1369e-05 0 0)
(1.13692e-05 0 0)
(1.13695e-05 0 0)
(1.13697e-05 0 0)
(1.137e-05 0 0)
(1.13707e-05 0 0)
(1.13733e-05 0 0)
(1.13843e-05 0 0)
(1.14571e-05 0 0)
(1.1617e-05 0 0)
(1.17223e-05 0 0)
(1.17314e-05 0 0)
(1.17332e-05 0 0)
(1.17403e-05 0 0)
(1.17507e-05 0 0)
(1.17627e-05 0 0)
(1.17746e-05 0 0)
(1.17834e-05 0 0)
(1.17892e-05 0 0)
(1.17924e-05 0 0)
(1.17925e-05 0 0)
(1.17916e-05 0 0)
(1.1791e-05 0 0)
(1.17909e-05 0 0)
(1.17911e-05 0 0)
(1.17916e-05 0 0)
(1.17924e-05 0 0)
(1.17934e-05 0 0)
(1.17945e-05 0 0)
(1.17955e-05 0 0)
(1.17965e-05 0 0)
(1.17975e-05 0 0)
(1.17984e-05 0 0)
(1.17993e-05 0 0)
(1.18001e-05 0 0)
(1.18009e-05 0 0)
(1.18016e-05 0 0)
(1.18022e-05 0 0)
(1.18028e-05 0 0)
(1.18033e-05 0 0)
(1.18037e-05 0 0)
(1.18041e-05 0 0)
(1.18045e-05 0 0)
(1.18048e-05 0 0)
(1.1805e-05 0 0)
(1.18052e-05 0 0)
(1.18053e-05 0 0)
(1.18054e-05 0 0)
(1.18054e-05 0 0)
(1.18053e-05 0 0)
(1.18051e-05 0 0)
(1.18049e-05 0 0)
(1.18046e-05 0 0)
(1.18042e-05 0 0)
(1.18038e-05 0 0)
(1.18033e-05 0 0)
(1.18027e-05 0 0)
(1.1802e-05 0 0)
(1.18012e-05 0 0)
(1.18003e-05 0 0)
(1.17992e-05 0 0)
(1.17979e-05 0 0)
(1.17964e-05 0 0)
(1.17946e-05 0 0)
(1.17924e-05 0 0)
(1.17899e-05 0 0)
(1.17871e-05 0 0)
(1.17839e-05 0 0)
(1.17805e-05 0 0)
(1.17769e-05 0 0)
(1.17732e-05 0 0)
(1.17695e-05 0 0)
(1.17656e-05 0 0)
(1.17617e-05 0 0)
(1.17576e-05 0 0)
(1.17535e-05 0 0)
(1.17494e-05 0 0)
(1.17451e-05 0 0)
(1.17408e-05 0 0)
(1.17365e-05 0 0)
(1.17322e-05 0 0)
(1.17278e-05 0 0)
(1.17236e-05 0 0)
(1.17193e-05 0 0)
(1.17151e-05 0 0)
(1.17109e-05 0 0)
(1.17066e-05 0 0)
(1.17023e-05 0 0)
(1.16979e-05 0 0)
(1.16934e-05 0 0)
(1.16886e-05 0 0)
(1.16834e-05 0 0)
(1.16779e-05 0 0)
(1.1672e-05 0 0)
(1.16657e-05 0 0)
(1.16591e-05 0 0)
(1.16524e-05 0 0)
(1.16455e-05 0 0)
(1.16386e-05 0 0)
(1.16317e-05 0 0)
(1.16249e-05 0 0)
(1.16182e-05 0 0)
(1.16116e-05 0 0)
(1.16053e-05 0 0)
(1.15993e-05 0 0)
(1.15937e-05 0 0)
(1.15885e-05 0 0)
(1.15839e-05 0 0)
(1.15798e-05 0 0)
(1.15762e-05 0 0)
(1.15731e-05 0 0)
(1.15705e-05 0 0)
(1.15682e-05 0 0)
(1.15661e-05 0 0)
(1.15642e-05 0 0)
(1.15623e-05 0 0)
(1.15603e-05 0 0)
(1.15582e-05 0 0)
(1.15559e-05 0 0)
(1.15533e-05 0 0)
(1.15505e-05 0 0)
(1.15474e-05 0 0)
(1.15439e-05 0 0)
(1.15403e-05 0 0)
(1.15363e-05 0 0)
(1.15322e-05 0 0)
(1.15279e-05 0 0)
(1.15235e-05 0 0)
(1.1519e-05 0 0)
(1.15144e-05 0 0)
(1.15098e-05 0 0)
(1.15052e-05 0 0)
(1.15005e-05 0 0)
(1.14959e-05 0 0)
(1.14914e-05 0 0)
(1.14868e-05 0 0)
(1.14823e-05 0 0)
(1.14779e-05 0 0)
(1.14734e-05 0 0)
(1.1469e-05 0 0)
(1.14646e-05 0 0)
(1.14603e-05 0 0)
(1.14559e-05 0 0)
(1.14516e-05 0 0)
(1.14473e-05 0 0)
(1.1443e-05 0 0)
(1.14387e-05 0 0)
(1.14343e-05 0 0)
(1.143e-05 0 0)
(1.14257e-05 0 0)
(1.14213e-05 0 0)
(1.1417e-05 0 0)
(1.14126e-05 0 0)
(1.14082e-05 0 0)
(1.14039e-05 0 0)
(1.13995e-05 0 0)
(1.1395e-05 0 0)
(1.13906e-05 0 0)
(1.13862e-05 0 0)
(1.13817e-05 0 0)
(1.13772e-05 0 0)
(1.13727e-05 0 0)
(1.13682e-05 0 0)
(1.13637e-05 0 0)
(1.13592e-05 0 0)
(1.13546e-05 0 0)
(1.13501e-05 0 0)
(1.13455e-05 0 0)
(1.13409e-05 0 0)
(1.13362e-05 0 0)
(1.13316e-05 0 0)
(1.1327e-05 0 0)
(1.13223e-05 0 0)
(1.13176e-05 0 0)
(1.13129e-05 0 0)
(1.13082e-05 0 0)
(1.13035e-05 0 0)
(1.12987e-05 0 0)
(1.1294e-05 0 0)
(1.12892e-05 0 0)
(1.12844e-05 0 0)
(1.12796e-05 0 0)
(1.12747e-05 0 0)
(1.12699e-05 0 0)
(1.1265e-05 0 0)
(1.12601e-05 0 0)
(1.12552e-05 0 0)
(1.12503e-05 0 0)
(1.12454e-05 0 0)
(1.12405e-05 0 0)
(1.12356e-05 0 0)
(1.12307e-05 0 0)
(1.12258e-05 0 0)
(1.12208e-05 0 0)
(1.12158e-05 0 0)
(1.12109e-05 0 0)
(1.12059e-05 0 0)
(1.12009e-05 0 0)
(1.11959e-05 0 0)
(1.11908e-05 0 0)
(1.11858e-05 0 0)
(1.11808e-05 0 0)
(1.11757e-05 0 0)
(1.11707e-05 0 0)
(1.11657e-05 0 0)
(1.11606e-05 0 0)
(1.11556e-05 0 0)
(1.11506e-05 0 0)
(1.11456e-05 0 0)
(1.11405e-05 0 0)
(1.11354e-05 0 0)
(1.11302e-05 0 0)
(1.1125e-05 0 0)
(1.11196e-05 0 0)
(1.11142e-05 0 0)
(1.11086e-05 0 0)
(1.11029e-05 0 0)
(1.10971e-05 0 0)
(1.10911e-05 0 0)
(1.1085e-05 0 0)
(1.10788e-05 0 0)
(1.10725e-05 0 0)
(1.1066e-05 0 0)
(1.10595e-05 0 0)
(1.10529e-05 0 0)
(1.10462e-05 0 0)
(1.10396e-05 0 0)
(1.10329e-05 0 0)
(1.10263e-05 0 0)
(1.10198e-05 0 0)
(1.10134e-05 0 0)
(1.10071e-05 0 0)
(1.1001e-05 0 0)
(1.09951e-05 0 0)
(1.09895e-05 0 0)
(1.0984e-05 0 0)
(1.09789e-05 0 0)
(1.09739e-05 0 0)
(1.09693e-05 0 0)
(1.09648e-05 0 0)
(1.09606e-05 0 0)
(1.09565e-05 0 0)
(1.09527e-05 0 0)
(1.09489e-05 0 0)
(1.09452e-05 0 0)
(1.09416e-05 0 0)
(1.09381e-05 0 0)
(1.09344e-05 0 0)
(1.09308e-05 0 0)
(1.09271e-05 0 0)
(1.09233e-05 0 0)
(1.09194e-05 0 0)
(1.09153e-05 0 0)
(1.09112e-05 0 0)
(1.09069e-05 0 0)
(1.09025e-05 0 0)
(1.0898e-05 0 0)
(1.08934e-05 0 0)
(1.08887e-05 0 0)
(1.0884e-05 0 0)
(1.08791e-05 0 0)
(1.08742e-05 0 0)
(1.08693e-05 0 0)
(1.08643e-05 0 0)
(1.08593e-05 0 0)
(1.08542e-05 0 0)
(1.08492e-05 0 0)
(1.08441e-05 0 0)
(1.08391e-05 0 0)
(1.0834e-05 0 0)
(1.0829e-05 0 0)
(1.08239e-05 0 0)
(1.08189e-05 0 0)
(1.08139e-05 0 0)
(1.08089e-05 0 0)
(1.08039e-05 0 0)
(1.07989e-05 0 0)
(1.07939e-05 0 0)
(1.07889e-05 0 0)
(1.0784e-05 0 0)
(1.0779e-05 0 0)
(1.0774e-05 0 0)
(1.07691e-05 0 0)
(1.07641e-05 0 0)
(1.07591e-05 0 0)
(1.07541e-05 0 0)
(1.07492e-05 0 0)
(1.07442e-05 0 0)
(1.07392e-05 0 0)
(1.07342e-05 0 0)
(1.07292e-05 0 0)
(1.07241e-05 0 0)
(1.07191e-05 0 0)
(1.07141e-05 0 0)
(1.0709e-05 0 0)
(1.07039e-05 0 0)
(1.06989e-05 0 0)
(1.06938e-05 0 0)
(1.06887e-05 0 0)
(1.06836e-05 0 0)
(1.06784e-05 0 0)
(1.06733e-05 0 0)
(1.06682e-05 0 0)
(1.0663e-05 0 0)
(1.06578e-05 0 0)
(1.06526e-05 0 0)
(1.06474e-05 0 0)
(1.06422e-05 0 0)
(1.0637e-05 0 0)
(1.06318e-05 0 0)
(1.06265e-05 0 0)
(1.06213e-05 0 0)
(1.0616e-05 0 0)
(1.06107e-05 0 0)
(1.06054e-05 0 0)
(1.06001e-05 0 0)
(1.05948e-05 0 0)
(1.05895e-05 0 0)
(1.05841e-05 0 0)
(1.05788e-05 0 0)
(1.05734e-05 0 0)
(1.0568e-05 0 0)
(1.05626e-05 0 0)
(1.05572e-05 0 0)
(1.05518e-05 0 0)
(1.05464e-05 0 0)
(1.05409e-05 0 0)
(1.05355e-05 0 0)
(1.05301e-05 0 0)
(1.05246e-05 0 0)
(1.05191e-05 0 0)
(1.05137e-05 0 0)
(1.05082e-05 0 0)
(1.05027e-05 0 0)
(1.04972e-05 0 0)
(1.04917e-05 0 0)
(1.04862e-05 0 0)
(1.04807e-05 0 0)
(1.04751e-05 0 0)
(1.04696e-05 0 0)
(1.04641e-05 0 0)
(1.04585e-05 0 0)
(1.0453e-05 0 0)
(1.04474e-05 0 0)
(1.04419e-05 0 0)
(1.04363e-05 0 0)
(1.04307e-05 0 0)
(1.04251e-05 0 0)
(1.04195e-05 0 0)
(1.04139e-05 0 0)
(1.04082e-05 0 0)
(1.04025e-05 0 0)
(1.03967e-05 0 0)
(1.03909e-05 0 0)
(1.03851e-05 0 0)
(1.03792e-05 0 0)
(1.03732e-05 0 0)
(1.03671e-05 0 0)
(1.0361e-05 0 0)
(1.03548e-05 0 0)
(1.03486e-05 0 0)
(1.03422e-05 0 0)
(1.03358e-05 0 0)
(1.03294e-05 0 0)
(1.03229e-05 0 0)
(1.03163e-05 0 0)
(1.03097e-05 0 0)
(1.0303e-05 0 0)
(1.02963e-05 0 0)
(1.02897e-05 0 0)
(1.0283e-05 0 0)
(1.02763e-05 0 0)
(1.02697e-05 0 0)
(1.02632e-05 0 0)
(1.02567e-05 0 0)
(1.02502e-05 0 0)
(1.02439e-05 0 0)
(1.02377e-05 0 0)
(1.02316e-05 0 0)
(1.02256e-05 0 0)
(1.02197e-05 0 0)
(1.0214e-05 0 0)
(1.02084e-05 0 0)
(1.02029e-05 0 0)
(1.01976e-05 0 0)
(1.01924e-05 0 0)
(1.01873e-05 0 0)
(1.01823e-05 0 0)
(1.01773e-05 0 0)
(1.01725e-05 0 0)
(1.01677e-05 0 0)
(1.0163e-05 0 0)
(1.01583e-05 0 0)
(1.01536e-05 0 0)
(1.01489e-05 0 0)
(1.01442e-05 0 0)
(1.01394e-05 0 0)
(1.01346e-05 0 0)
(1.01298e-05 0 0)
(1.01249e-05 0 0)
(1.012e-05 0 0)
(1.0115e-05 0 0)
(1.01099e-05 0 0)
(1.01048e-05 0 0)
(1.00996e-05 0 0)
(1.00943e-05 0 0)
(1.0089e-05 0 0)
(1.00837e-05 0 0)
(1.00783e-05 0 0)
(1.00728e-05 0 0)
(1.00674e-05 0 0)
(1.00618e-05 0 0)
(1.00563e-05 0 0)
(1.00507e-05 0 0)
(1.00451e-05 0 0)
(1.00395e-05 0 0)
(1.00339e-05 0 0)
(1.00283e-05 0 0)
(1.00226e-05 0 0)
(1.0017e-05 0 0)
(1.00114e-05 0 0)
(1.00057e-05 0 0)
(1.00001e-05 0 0)
(9.9944e-06 0 0)
(9.98875e-06 0 0)
(9.9831e-06 0 0)
(9.97746e-06 0 0)
(9.97181e-06 0 0)
(9.96616e-06 0 0)
(9.96051e-06 0 0)
(9.95486e-06 0 0)
(9.9492e-06 0 0)
(9.94355e-06 0 0)
(9.93789e-06 0 0)
(9.93223e-06 0 0)
(9.92656e-06 0 0)
(9.92089e-06 0 0)
(9.91521e-06 0 0)
(9.90952e-06 0 0)
(9.90383e-06 0 0)
(9.89813e-06 0 0)
(9.89243e-06 0 0)
(9.88671e-06 0 0)
(9.88099e-06 0 0)
(9.87525e-06 0 0)
(9.86951e-06 0 0)
(9.86376e-06 0 0)
(9.858e-06 0 0)
(9.85223e-06 0 0)
(9.84645e-06 0 0)
(9.84066e-06 0 0)
(9.83486e-06 0 0)
(9.82904e-06 0 0)
(9.82322e-06 0 0)
(9.81738e-06 0 0)
(9.81154e-06 0 0)
(9.80568e-06 0 0)
(9.79981e-06 0 0)
(9.79394e-06 0 0)
(9.78804e-06 0 0)
(9.78214e-06 0 0)
(9.77623e-06 0 0)
(9.7703e-06 0 0)
(9.76437e-06 0 0)
(9.75842e-06 0 0)
(9.75246e-06 0 0)
(9.74648e-06 0 0)
(9.7405e-06 0 0)
(9.7345e-06 0 0)
(9.7285e-06 0 0)
(9.72248e-06 0 0)
(9.71645e-06 0 0)
(9.71041e-06 0 0)
(9.70436e-06 0 0)
(9.69829e-06 0 0)
(9.69222e-06 0 0)
(9.68614e-06 0 0)
(9.68004e-06 0 0)
(9.67394e-06 0 0)
(9.66782e-06 0 0)
(9.6617e-06 0 0)
(9.65556e-06 0 0)
(9.64942e-06 0 0)
(9.64326e-06 0 0)
(9.6371e-06 0 0)
(9.63093e-06 0 0)
(9.62475e-06 0 0)
(9.61856e-06 0 0)
(9.61236e-06 0 0)
(9.60616e-06 0 0)
(9.59994e-06 0 0)
(9.59372e-06 0 0)
(9.58749e-06 0 0)
(9.58125e-06 0 0)
(9.575e-06 0 0)
(9.56874e-06 0 0)
(9.56247e-06 0 0)
(9.55619e-06 0 0)
(9.5499e-06 0 0)
(9.5436e-06 0 0)
(9.53728e-06 0 0)
(9.53094e-06 0 0)
(9.52459e-06 0 0)
(9.51821e-06 0 0)
(9.51181e-06 0 0)
(9.50538e-06 0 0)
(9.49892e-06 0 0)
(9.49244e-06 0 0)
(9.48591e-06 0 0)
(9.47935e-06 0 0)
(9.47276e-06 0 0)
(9.46612e-06 0 0)
(9.45944e-06 0 0)
(9.45271e-06 0 0)
(9.44594e-06 0 0)
(9.43913e-06 0 0)
(9.43227e-06 0 0)
(9.42537e-06 0 0)
(9.41843e-06 0 0)
(9.41145e-06 0 0)
(9.40443e-06 0 0)
(9.39738e-06 0 0)
(9.3903e-06 0 0)
(9.38319e-06 0 0)
(9.37607e-06 0 0)
(9.36893e-06 0 0)
(9.36179e-06 0 0)
(9.35464e-06 0 0)
(9.3475e-06 0 0)
(9.34038e-06 0 0)
(9.33327e-06 0 0)
(9.3262e-06 0 0)
(9.31915e-06 0 0)
(9.31215e-06 0 0)
(9.3052e-06 0 0)
(9.2983e-06 0 0)
(9.29146e-06 0 0)
(9.28469e-06 0 0)
(9.27798e-06 0 0)
(9.27134e-06 0 0)
(9.26478e-06 0 0)
(9.25828e-06 0 0)
(9.25187e-06 0 0)
(9.24552e-06 0 0)
(9.23924e-06 0 0)
(9.23302e-06 0 0)
(9.22687e-06 0 0)
(9.22077e-06 0 0)
(9.21472e-06 0 0)
(9.20872e-06 0 0)
(9.20275e-06 0 0)
(9.1968e-06 0 0)
(9.19088e-06 0 0)
(9.18497e-06 0 0)
(9.17906e-06 0 0)
(9.17315e-06 0 0)
(9.16723e-06 0 0)
(9.1613e-06 0 0)
(9.15535e-06 0 0)
(9.14937e-06 0 0)
(9.14337e-06 0 0)
(9.13733e-06 0 0)
(9.13125e-06 0 0)
(9.12514e-06 0 0)
(9.11899e-06 0 0)
(9.11281e-06 0 0)
(9.10658e-06 0 0)
(9.10032e-06 0 0)
(9.09402e-06 0 0)
(9.08768e-06 0 0)
(9.08131e-06 0 0)
(9.0749e-06 0 0)
(9.06847e-06 0 0)
(9.06201e-06 0 0)
(9.05552e-06 0 0)
(9.04901e-06 0 0)
(9.04248e-06 0 0)
(9.03593e-06 0 0)
(9.02935e-06 0 0)
(9.02277e-06 0 0)
(9.01617e-06 0 0)
(9.00956e-06 0 0)
(9.00293e-06 0 0)
(8.9963e-06 0 0)
(8.98965e-06 0 0)
(8.983e-06 0 0)
(8.97634e-06 0 0)
(8.96967e-06 0 0)
(8.963e-06 0 0)
(8.95631e-06 0 0)
(8.94963e-06 0 0)
(8.94293e-06 0 0)
(8.93623e-06 0 0)
(8.92952e-06 0 0)
(8.92281e-06 0 0)
(8.91609e-06 0 0)
(8.90936e-06 0 0)
(8.90262e-06 0 0)
(8.89588e-06 0 0)
(8.88913e-06 0 0)
(8.88236e-06 0 0)
(8.87559e-06 0 0)
(8.86881e-06 0 0)
(8.86202e-06 0 0)
(8.85522e-06 0 0)
(8.84841e-06 0 0)
(8.84159e-06 0 0)
(8.83476e-06 0 0)
(8.82791e-06 0 0)
(8.82106e-06 0 0)
(8.81419e-06 0 0)
(8.80731e-06 0 0)
(8.80042e-06 0 0)
(8.79351e-06 0 0)
(8.7866e-06 0 0)
(8.77966e-06 0 0)
(8.77272e-06 0 0)
(8.76576e-06 0 0)
(8.75879e-06 0 0)
(8.7518e-06 0 0)
(8.74481e-06 0 0)
(8.73779e-06 0 0)
(8.73076e-06 0 0)
(8.72372e-06 0 0)
(8.71667e-06 0 0)
(8.70959e-06 0 0)
(8.70251e-06 0 0)
(8.69541e-06 0 0)
(8.68829e-06 0 0)
(8.68116e-06 0 0)
(8.67402e-06 0 0)
(8.66686e-06 0 0)
(8.65968e-06 0 0)
(8.65249e-06 0 0)
(8.64529e-06 0 0)
(8.63807e-06 0 0)
(8.63084e-06 0 0)
(8.62359e-06 0 0)
(8.61632e-06 0 0)
(8.60904e-06 0 0)
(8.60175e-06 0 0)
(8.59444e-06 0 0)
(8.58712e-06 0 0)
(8.57978e-06 0 0)
(8.57243e-06 0 0)
(8.56506e-06 0 0)
(8.55768e-06 0 0)
(8.55028e-06 0 0)
(8.54287e-06 0 0)
(8.53545e-06 0 0)
(8.52801e-06 0 0)
(8.52056e-06 0 0)
(8.51309e-06 0 0)
(8.50561e-06 0 0)
(8.49812e-06 0 0)
(8.49061e-06 0 0)
(8.48309e-06 0 0)
(8.47555e-06 0 0)
(8.468e-06 0 0)
(8.46043e-06 0 0)
(8.45285e-06 0 0)
(8.44526e-06 0 0)
(8.43765e-06 0 0)
(8.43002e-06 0 0)
(8.42237e-06 0 0)
(8.41471e-06 0 0)
(8.40703e-06 0 0)
(8.39933e-06 0 0)
(8.39161e-06 0 0)
(8.38387e-06 0 0)
(8.3761e-06 0 0)
(8.36831e-06 0 0)
(8.3605e-06 0 0)
(8.35266e-06 0 0)
(8.34479e-06 0 0)
(8.33689e-06 0 0)
(8.32896e-06 0 0)
(8.32101e-06 0 0)
(8.31301e-06 0 0)
(8.30499e-06 0 0)
(8.29693e-06 0 0)
(8.28884e-06 0 0)
(8.28072e-06 0 0)
(8.27255e-06 0 0)
(8.26436e-06 0 0)
(8.25613e-06 0 0)
(8.24786e-06 0 0)
(8.23957e-06 0 0)
(8.23124e-06 0 0)
(8.22288e-06 0 0)
(8.21449e-06 0 0)
(8.20608e-06 0 0)
(8.19764e-06 0 0)
(8.18917e-06 0 0)
(8.18069e-06 0 0)
(8.1722e-06 0 0)
(8.16368e-06 0 0)
(8.15516e-06 0 0)
(8.14663e-06 0 0)
(8.1381e-06 0 0)
(8.12957e-06 0 0)
(8.12104e-06 0 0)
(8.11252e-06 0 0)
(8.10401e-06 0 0)
(8.09551e-06 0 0)
(8.08703e-06 0 0)
(8.07857e-06 0 0)
(8.07013e-06 0 0)
(8.06172e-06 0 0)
(8.05333e-06 0 0)
(8.04497e-06 0 0)
(8.03665e-06 0 0)
(8.02835e-06 0 0)
(8.02009e-06 0 0)
(8.01185e-06 0 0)
(8.00365e-06 0 0)
(7.99548e-06 0 0)
(7.98733e-06 0 0)
(7.97921e-06 0 0)
(7.97112e-06 0 0)
(7.96305e-06 0 0)
(7.95499e-06 0 0)
(7.94695e-06 0 0)
(7.93892e-06 0 0)
(7.9309e-06 0 0)
(7.92289e-06 0 0)
(7.91487e-06 0 0)
(7.90684e-06 0 0)
(7.89881e-06 0 0)
(7.89077e-06 0 0)
(7.88271e-06 0 0)
(7.87463e-06 0 0)
(7.86653e-06 0 0)
(7.85841e-06 0 0)
(7.85026e-06 0 0)
(7.84208e-06 0 0)
(7.83386e-06 0 0)
(7.82562e-06 0 0)
(7.81734e-06 0 0)
(7.80902e-06 0 0)
(7.80067e-06 0 0)
(7.79228e-06 0 0)
(7.78386e-06 0 0)
(7.7754e-06 0 0)
(7.7669e-06 0 0)
(7.75837e-06 0 0)
(7.7498e-06 0 0)
(7.74119e-06 0 0)
(7.73256e-06 0 0)
(7.72389e-06 0 0)
(7.71518e-06 0 0)
(7.70645e-06 0 0)
(7.69769e-06 0 0)
(7.68889e-06 0 0)
(7.68007e-06 0 0)
(7.67122e-06 0 0)
(7.66234e-06 0 0)
(7.65344e-06 0 0)
(7.64451e-06 0 0)
(7.63556e-06 0 0)
(7.62658e-06 0 0)
(7.61757e-06 0 0)
(7.60854e-06 0 0)
(7.59949e-06 0 0)
(7.59041e-06 0 0)
(7.58131e-06 0 0)
(7.57219e-06 0 0)
(7.56304e-06 0 0)
(7.55387e-06 0 0)
(7.54468e-06 0 0)
(7.53546e-06 0 0)
(7.52622e-06 0 0)
(7.51695e-06 0 0)
(7.50766e-06 0 0)
(7.49834e-06 0 0)
(7.489e-06 0 0)
(7.47963e-06 0 0)
(7.47023e-06 0 0)
(7.46081e-06 0 0)
(7.45137e-06 0 0)
(7.44189e-06 0 0)
(7.43239e-06 0 0)
(7.42286e-06 0 0)
(7.4133e-06 0 0)
(7.40371e-06 0 0)
(7.39409e-06 0 0)
(7.38445e-06 0 0)
(7.37477e-06 0 0)
(7.36506e-06 0 0)
(7.35533e-06 0 0)
(7.34556e-06 0 0)
(7.33576e-06 0 0)
(7.32593e-06 0 0)
(7.31606e-06 0 0)
(7.30617e-06 0 0)
(7.29624e-06 0 0)
(7.28628e-06 0 0)
(7.27628e-06 0 0)
(7.26625e-06 0 0)
(7.25619e-06 0 0)
(7.24609e-06 0 0)
(7.23596e-06 0 0)
(7.22579e-06 0 0)
(7.21559e-06 0 0)
(7.20536e-06 0 0)
(7.19509e-06 0 0)
(7.18478e-06 0 0)
(7.17444e-06 0 0)
(7.16405e-06 0 0)
(7.15364e-06 0 0)
(7.14319e-06 0 0)
(7.1327e-06 0 0)
(7.12217e-06 0 0)
(7.11161e-06 0 0)
(7.10101e-06 0 0)
(7.09037e-06 0 0)
(7.0797e-06 0 0)
(7.06899e-06 0 0)
(7.05824e-06 0 0)
(7.04746e-06 0 0)
(7.03664e-06 0 0)
(7.02578e-06 0 0)
(7.01488e-06 0 0)
(7.00395e-06 0 0)
(6.99298e-06 0 0)
(6.98198e-06 0 0)
(6.97094e-06 0 0)
(6.95987e-06 0 0)
(6.94876e-06 0 0)
(6.93762e-06 0 0)
(6.92644e-06 0 0)
(6.91523e-06 0 0)
(6.904e-06 0 0)
(6.89273e-06 0 0)
(6.88143e-06 0 0)
(6.87011e-06 0 0)
(6.85876e-06 0 0)
(6.84739e-06 0 0)
(6.836e-06 0 0)
(6.8246e-06 0 0)
(6.81318e-06 0 0)
(6.80175e-06 0 0)
(6.79031e-06 0 0)
(6.77888e-06 0 0)
(6.76744e-06 0 0)
(6.75602e-06 0 0)
(6.74462e-06 0 0)
(6.73325e-06 0 0)
(6.72191e-06 0 0)
(6.71062e-06 0 0)
(6.69939e-06 0 0)
(6.68823e-06 0 0)
(6.67716e-06 0 0)
(6.6662e-06 0 0)
(6.65536e-06 0 0)
(6.64466e-06 0 0)
(6.63412e-06 0 0)
(6.62377e-06 0 0)
(6.61363e-06 0 0)
(6.60373e-06 0 0)
(6.59408e-06 0 0)
(6.58473e-06 0 0)
(6.57568e-06 0 0)
(6.56696e-06 0 0)
(6.55861e-06 0 0)
(6.55063e-06 0 0)
(6.54306e-06 0 0)
(6.5359e-06 0 0)
(6.52917e-06 0 0)
(6.52287e-06 0 0)
(6.51701e-06 0 0)
(6.51159e-06 0 0)
(6.5066e-06 0 0)
(6.50204e-06 0 0)
(6.4979e-06 0 0)
(6.49414e-06 0 0)
(6.49076e-06 0 0)
(6.48773e-06 0 0)
(6.48504e-06 0 0)
(6.48265e-06 0 0)
(6.48054e-06 0 0)
(6.47868e-06 0 0)
(6.47705e-06 0 0)
(6.47563e-06 0 0)
(6.47439e-06 0 0)
(6.47331e-06 0 0)
(6.47237e-06 0 0)
(6.47154e-06 0 0)
(6.47081e-06 0 0)
(6.47015e-06 0 0)
(6.46954e-06 0 0)
(6.46893e-06 0 0)
(6.46826e-06 0 0)
(6.46738e-06 0 0)
(6.46615e-06 0 0)
(6.46416e-06 0 0)
(6.4608e-06 0 0)
(6.45494e-06 0 0)
(6.44457e-06 0 0)
(6.42616e-06 0 0)
(6.39352e-06 0 0)
(6.33615e-06 0 0)
(6.23705e-06 0 0)
(6.07104e-06 0 0)
(5.80667e-06 0 0)
(5.41754e-06 0 0)
(4.90591e-06 0 0)
(4.32454e-06 0 0)
(3.766e-06 0 0)
(3.31332e-06 0 0)
(2.9979e-06 0 0)
(2.8024e-06 0 0)
(2.69052e-06 0 0)
(2.62957e-06 0 0)
(2.5973e-06 0 0)
(2.58048e-06 0 0)
(2.57182e-06 0 0)
(2.5674e-06 0 0)
(2.56517e-06 0 0)
(2.56407e-06 0 0)
(2.56356e-06 0 0)
(2.56334e-06 0 0)
(2.56328e-06 0 0)
(2.56329e-06 0 0)
(2.56334e-06 0 0)
(2.56341e-06 0 0)
(2.56349e-06 0 0)
(2.56357e-06 0 0)
(2.56365e-06 0 0)
(2.56373e-06 0 0)
(2.5638e-06 0 0)
(2.56388e-06 0 0)
(2.56395e-06 0 0)
(2.56401e-06 0 0)
(2.56408e-06 0 0)
(2.56414e-06 0 0)
(2.56419e-06 0 0)
(2.56425e-06 0 0)
(2.5643e-06 0 0)
(2.56435e-06 0 0)
(2.56439e-06 0 0)
(2.56444e-06 0 0)
(2.56448e-06 0 0)
(2.56451e-06 0 0)
(2.56455e-06 0 0)
(2.56459e-06 0 0)
(2.56462e-06 0 0)
(2.56465e-06 0 0)
(2.56468e-06 0 0)
(2.56471e-06 0 0)
(2.56474e-06 0 0)
(2.56476e-06 0 0)
(2.56479e-06 0 0)
(2.56482e-06 0 0)
(2.56484e-06 0 0)
(2.56487e-06 0 0)
(2.56489e-06 0 0)
(2.56491e-06 0 0)
(2.56494e-06 0 0)
(2.56496e-06 0 0)
(2.56499e-06 0 0)
(2.56501e-06 0 0)
(2.56503e-06 0 0)
(2.56506e-06 0 0)
(2.56508e-06 0 0)
(2.56511e-06 0 0)
(2.56513e-06 0 0)
(2.56516e-06 0 0)
(2.56518e-06 0 0)
(2.56521e-06 0 0)
(2.56523e-06 0 0)
(2.56526e-06 0 0)
(2.56528e-06 0 0)
(2.56531e-06 0 0)
(2.56533e-06 0 0)
(2.56536e-06 0 0)
)
;

boundaryField
{
    inlet
    {
        type            fixedValue;
        value           uniform (1.13622e-05 0 0);
    }
    outlet
    {
        type            zeroGradient;
    }
    emptyWalls
    {
        type            empty;
    }
}


// ************************************************************************* //
