/*--------------------------------*- C++ -*----------------------------------*\
  =========                 |
  \\      /  F ield         | OpenFOAM: The Open Source CFD Toolbox
   \\    /   O peration     | Website:  https://openfoam.org
    \\  /    A nd           | Version:  9
     \\/     M anipulation  |
\*---------------------------------------------------------------------------*/
FoamFile
{
    format      ascii;
    class       surfaceScalarField;
    location    "21750";
    object      phia;
}
// * * * * * * * * * * * * * * * * * * * * * * * * * * * * * * * * * * * * * //

dimensions      [0 2 0 0 0 0 0];

internalField   nonuniform List<scalar> 
999
(
2.74876e-10
2.74868e-10
2.74868e-10
2.74844e-10
2.74832e-10
2.74789e-10
2.74761e-10
2.74696e-10
2.74659e-10
2.74587e-10
2.74525e-10
2.74466e-10
2.7437e-10
2.74314e-10
2.74213e-10
2.74143e-10
2.74056e-10
2.73976e-10
2.73895e-10
2.73816e-10
2.73737e-10
2.73663e-10
2.73596e-10
2.73539e-10
2.73479e-10
2.73447e-10
2.73349e-10
2.73153e-10
2.72337e-10
2.68926e-10
2.47093e-10
2.21572e-10
2.18127e-10
2.16402e-10
2.14501e-10
2.1279e-10
2.11251e-10
2.10212e-10
2.09485e-10
2.09387e-10
2.09329e-10
2.09278e-10
2.09197e-10
2.0907e-10
2.08904e-10
2.08711e-10
2.08502e-10
2.08285e-10
2.08072e-10
2.07864e-10
2.07664e-10
2.07471e-10
2.07287e-10
2.07109e-10
2.06942e-10
2.06779e-10
2.06626e-10
2.06477e-10
2.06336e-10
2.062e-10
2.06072e-10
2.05947e-10
2.0583e-10
2.05716e-10
2.05605e-10
2.055e-10
2.054e-10
2.05304e-10
2.05214e-10
2.05129e-10
2.05049e-10
2.04975e-10
2.04905e-10
2.04839e-10
2.04778e-10
2.04721e-10
2.04668e-10
2.04619e-10
2.04575e-10
2.04536e-10
2.04502e-10
2.04475e-10
2.04456e-10
2.04444e-10
2.04441e-10
2.04443e-10
2.04445e-10
2.04446e-10
2.04444e-10
2.04439e-10
2.04434e-10
2.04427e-10
2.04421e-10
2.04416e-10
2.04415e-10
2.04418e-10
2.04425e-10
2.04435e-10
2.04447e-10
2.04457e-10
2.04464e-10
2.04467e-10
2.04466e-10
2.04461e-10
2.04454e-10
2.04446e-10
2.04438e-10
2.04438e-10
2.04452e-10
2.04489e-10
2.0456e-10
2.04668e-10
2.04815e-10
2.04998e-10
2.0521e-10
2.05444e-10
2.05691e-10
2.05944e-10
2.06197e-10
2.06445e-10
2.06682e-10
2.06902e-10
2.07098e-10
2.0726e-10
2.07383e-10
2.07457e-10
2.07476e-10
2.07439e-10
2.07344e-10
2.07195e-10
2.06999e-10
2.06763e-10
2.06499e-10
2.06218e-10
2.0593e-10
2.05648e-10
2.05378e-10
2.0513e-10
2.04907e-10
2.04713e-10
2.0455e-10
2.04416e-10
2.0431e-10
2.0423e-10
2.04171e-10
2.0413e-10
2.04103e-10
2.04086e-10
2.04076e-10
2.04069e-10
2.04063e-10
2.04056e-10
2.04046e-10
2.04033e-10
2.04015e-10
2.03992e-10
2.03966e-10
2.03934e-10
2.03899e-10
2.03861e-10
2.03819e-10
2.03775e-10
2.0373e-10
2.03682e-10
2.03634e-10
2.03585e-10
2.03536e-10
2.03487e-10
2.03439e-10
2.0339e-10
2.03342e-10
2.03295e-10
2.03248e-10
2.03202e-10
2.03157e-10
2.03113e-10
2.0307e-10
2.03027e-10
2.02986e-10
2.02945e-10
2.02905e-10
2.02867e-10
2.02829e-10
2.02792e-10
2.02757e-10
2.02722e-10
2.02689e-10
2.02657e-10
2.02625e-10
2.02595e-10
2.02566e-10
2.02538e-10
2.0251e-10
2.02484e-10
2.02459e-10
2.02436e-10
2.02413e-10
2.02392e-10
2.02372e-10
2.02354e-10
2.02336e-10
2.02321e-10
2.02306e-10
2.02293e-10
2.02281e-10
2.02269e-10
2.02258e-10
2.02248e-10
2.02238e-10
2.02228e-10
2.02218e-10
2.02209e-10
2.02201e-10
2.02192e-10
2.02185e-10
2.02178e-10
2.02172e-10
2.02167e-10
2.02163e-10
2.0216e-10
2.02157e-10
2.02154e-10
2.02151e-10
2.02147e-10
2.02143e-10
2.02137e-10
2.02131e-10
2.02125e-10
2.0212e-10
2.02117e-10
2.02118e-10
2.02124e-10
2.02137e-10
2.0216e-10
2.02192e-10
2.02237e-10
2.02294e-10
2.02365e-10
2.02451e-10
2.0255e-10
2.02663e-10
2.02789e-10
2.02927e-10
2.03074e-10
2.03228e-10
2.03388e-10
2.0355e-10
2.03711e-10
2.03867e-10
2.04017e-10
2.04155e-10
2.04278e-10
2.04383e-10
2.04467e-10
2.04527e-10
2.04562e-10
2.04569e-10
2.04549e-10
2.04501e-10
2.04427e-10
2.04327e-10
2.04206e-10
2.04066e-10
2.0391e-10
2.03742e-10
2.03567e-10
2.03388e-10
2.0321e-10
2.03034e-10
2.02865e-10
2.02704e-10
2.02554e-10
2.02416e-10
2.02291e-10
2.02179e-10
2.02079e-10
2.01991e-10
2.01915e-10
2.0185e-10
2.01793e-10
2.01745e-10
2.01703e-10
2.01667e-10
2.01634e-10
2.01605e-10
2.01578e-10
2.01551e-10
2.01525e-10
2.01499e-10
2.01472e-10
2.01444e-10
2.01414e-10
2.01383e-10
2.01351e-10
2.01316e-10
2.0128e-10
2.01243e-10
2.01204e-10
2.01164e-10
2.01122e-10
2.0108e-10
2.01038e-10
2.00994e-10
2.0095e-10
2.00906e-10
2.00862e-10
2.00818e-10
2.00774e-10
2.0073e-10
2.00686e-10
2.00643e-10
2.006e-10
2.00558e-10
2.00516e-10
2.00475e-10
2.00435e-10
2.00395e-10
2.00356e-10
2.00317e-10
2.00279e-10
2.00242e-10
2.00206e-10
2.00171e-10
2.00136e-10
2.00103e-10
2.0007e-10
2.00038e-10
2.00007e-10
1.99976e-10
1.99947e-10
1.99919e-10
1.99891e-10
1.99864e-10
1.99839e-10
1.99814e-10
1.99791e-10
1.99768e-10
1.99746e-10
1.99726e-10
1.99706e-10
1.99688e-10
1.9967e-10
1.99653e-10
1.99637e-10
1.99622e-10
1.99607e-10
1.99593e-10
1.9958e-10
1.99567e-10
1.99555e-10
1.99544e-10
1.99533e-10
1.99523e-10
1.99513e-10
1.99504e-10
1.99495e-10
1.99487e-10
1.99479e-10
1.99472e-10
1.99465e-10
1.99458e-10
1.99451e-10
1.99445e-10
1.99438e-10
1.99432e-10
1.99426e-10
1.99421e-10
1.99416e-10
1.99412e-10
1.99409e-10
1.99409e-10
1.9941e-10
1.99415e-10
1.99423e-10
1.99436e-10
1.99453e-10
1.99476e-10
1.99505e-10
1.99541e-10
1.99583e-10
1.99634e-10
1.99691e-10
1.99757e-10
1.9983e-10
1.9991e-10
1.99997e-10
2.00091e-10
2.00189e-10
2.00293e-10
2.00399e-10
2.00508e-10
2.00618e-10
2.00727e-10
2.00834e-10
2.00936e-10
2.01033e-10
2.01123e-10
2.01204e-10
2.01274e-10
2.01333e-10
2.01378e-10
2.0141e-10
2.01426e-10
2.01427e-10
2.01412e-10
2.01382e-10
2.01336e-10
2.01275e-10
2.012e-10
2.01113e-10
2.01015e-10
2.00907e-10
2.00791e-10
2.00669e-10
2.00543e-10
2.00414e-10
2.00285e-10
2.00156e-10
2.00029e-10
1.99906e-10
1.99787e-10
1.99674e-10
1.99566e-10
1.99465e-10
1.99371e-10
1.99283e-10
1.99202e-10
1.99128e-10
1.99059e-10
1.98996e-10
1.98939e-10
1.98886e-10
1.98837e-10
1.98792e-10
1.9875e-10
1.9871e-10
1.98673e-10
1.98637e-10
1.98602e-10
1.98567e-10
1.98534e-10
1.985e-10
1.98466e-10
1.98432e-10
1.98397e-10
1.98362e-10
1.98327e-10
1.9829e-10
1.98253e-10
1.98215e-10
1.98177e-10
1.98138e-10
1.98098e-10
1.98058e-10
1.98018e-10
1.97977e-10
1.97936e-10
1.97895e-10
1.97853e-10
1.97812e-10
1.97771e-10
1.9773e-10
1.97689e-10
1.97648e-10
1.97608e-10
1.97568e-10
1.97528e-10
1.97489e-10
1.97451e-10
1.97413e-10
1.97375e-10
1.97338e-10
1.97302e-10
1.97266e-10
1.97231e-10
1.97196e-10
1.97163e-10
1.97129e-10
1.97097e-10
1.97065e-10
1.97034e-10
1.97004e-10
1.96975e-10
1.96946e-10
1.96918e-10
1.96891e-10
1.96865e-10
1.96839e-10
1.96814e-10
1.9679e-10
1.96767e-10
1.96744e-10
1.96723e-10
1.96702e-10
1.96682e-10
1.96662e-10
1.96643e-10
1.96625e-10
1.96608e-10
1.96591e-10
1.96575e-10
1.9656e-10
1.96545e-10
1.96531e-10
1.96517e-10
1.96504e-10
1.96491e-10
1.96479e-10
1.96467e-10
1.96456e-10
1.96445e-10
1.96434e-10
1.96424e-10
1.96414e-10
1.96404e-10
1.96395e-10
1.96385e-10
1.96377e-10
1.96368e-10
1.9636e-10
1.96353e-10
1.96345e-10
1.96339e-10
1.96333e-10
1.96329e-10
1.96325e-10
1.96323e-10
1.96323e-10
1.96325e-10
1.96329e-10
1.96335e-10
1.96344e-10
1.96357e-10
1.96373e-10
1.96392e-10
1.96416e-10
1.96444e-10
1.96476e-10
1.96513e-10
1.96554e-10
1.966e-10
1.9665e-10
1.96705e-10
1.96764e-10
1.96827e-10
1.96894e-10
1.96963e-10
1.97036e-10
1.9711e-10
1.97186e-10
1.97262e-10
1.97339e-10
1.97414e-10
1.97488e-10
1.9756e-10
1.97628e-10
1.97692e-10
1.9775e-10
1.97803e-10
1.97849e-10
1.97887e-10
1.97918e-10
1.97939e-10
1.97952e-10
1.97955e-10
1.97948e-10
1.97931e-10
1.97905e-10
1.97869e-10
1.97823e-10
1.97769e-10
1.97706e-10
1.97636e-10
1.97558e-10
1.97475e-10
1.97386e-10
1.97292e-10
1.97196e-10
1.97096e-10
1.96995e-10
1.96894e-10
1.96793e-10
1.96692e-10
1.96593e-10
1.96497e-10
1.96403e-10
1.96312e-10
1.96224e-10
1.9614e-10
1.96061e-10
1.95985e-10
1.95913e-10
1.95844e-10
1.9578e-10
1.95719e-10
1.95662e-10
1.95608e-10
1.95556e-10
1.95508e-10
1.95461e-10
1.95417e-10
1.95375e-10
1.95334e-10
1.95294e-10
1.95256e-10
1.95218e-10
1.95181e-10
1.95145e-10
1.95108e-10
1.95072e-10
1.95036e-10
1.95e-10
1.94964e-10
1.94928e-10
1.94891e-10
1.94854e-10
1.94817e-10
1.9478e-10
1.94742e-10
1.94704e-10
1.94666e-10
1.94627e-10
1.94588e-10
1.9455e-10
1.94511e-10
1.94472e-10
1.94433e-10
1.94394e-10
1.94355e-10
1.94317e-10
1.94278e-10
1.9424e-10
1.94202e-10
1.94164e-10
1.94126e-10
1.94089e-10
1.94052e-10
1.94016e-10
1.9398e-10
1.93944e-10
1.93909e-10
1.93874e-10
1.9384e-10
1.93806e-10
1.93773e-10
1.9374e-10
1.93708e-10
1.93676e-10
1.93645e-10
1.93615e-10
1.93585e-10
1.93555e-10
1.93527e-10
1.93498e-10
1.93471e-10
1.93444e-10
1.93418e-10
1.93392e-10
1.93367e-10
1.93342e-10
1.93318e-10
1.93295e-10
1.93272e-10
1.9325e-10
1.93228e-10
1.93207e-10
1.93187e-10
1.93167e-10
1.93147e-10
1.93128e-10
1.9311e-10
1.93092e-10
1.93074e-10
1.93057e-10
1.93041e-10
1.93024e-10
1.93009e-10
1.92993e-10
1.92978e-10
1.92963e-10
1.92949e-10
1.92935e-10
1.92922e-10
1.92908e-10
1.92895e-10
1.92883e-10
1.92871e-10
1.92859e-10
1.92848e-10
1.92837e-10
1.92826e-10
1.92817e-10
1.92808e-10
1.928e-10
1.92792e-10
1.92786e-10
1.92781e-10
1.92777e-10
1.92775e-10
1.92774e-10
1.92775e-10
1.92778e-10
1.92782e-10
1.92789e-10
1.92799e-10
1.92811e-10
1.92825e-10
1.92843e-10
1.92863e-10
1.92886e-10
1.92912e-10
1.92941e-10
1.92972e-10
1.93007e-10
1.93045e-10
1.93085e-10
1.93128e-10
1.93173e-10
1.9322e-10
1.9327e-10
1.9332e-10
1.93372e-10
1.93425e-10
1.93479e-10
1.93533e-10
1.93586e-10
1.93638e-10
1.9369e-10
1.93739e-10
1.93786e-10
1.93831e-10
1.93872e-10
1.9391e-10
1.93943e-10
1.93972e-10
1.93996e-10
1.94014e-10
1.94027e-10
1.94033e-10
1.94034e-10
1.94028e-10
1.94016e-10
1.93997e-10
1.93971e-10
1.93939e-10
1.93901e-10
1.93857e-10
1.93807e-10
1.93751e-10
1.9369e-10
1.93625e-10
1.93555e-10
1.93481e-10
1.93404e-10
1.93325e-10
1.93243e-10
1.9316e-10
1.93075e-10
1.9299e-10
1.92904e-10
1.92819e-10
1.92734e-10
1.9265e-10
1.92568e-10
1.92487e-10
1.92408e-10
1.92331e-10
1.92256e-10
1.92184e-10
1.92114e-10
1.92046e-10
1.9198e-10
1.91917e-10
1.91857e-10
1.91798e-10
1.91742e-10
1.91688e-10
1.91635e-10
1.91584e-10
1.91535e-10
1.91488e-10
1.91441e-10
1.91396e-10
1.91352e-10
1.91308e-10
1.91265e-10
1.91223e-10
1.91182e-10
1.91141e-10
1.911e-10
1.91059e-10
1.91018e-10
1.90978e-10
1.90937e-10
1.90897e-10
1.90856e-10
1.90816e-10
1.90775e-10
1.90734e-10
1.90693e-10
1.90652e-10
1.90611e-10
1.9057e-10
1.90529e-10
1.90487e-10
1.90446e-10
1.90405e-10
1.90363e-10
1.90322e-10
1.90281e-10
1.9024e-10
1.90199e-10
1.90158e-10
1.90117e-10
1.90077e-10
1.90037e-10
1.89998e-10
1.89958e-10
1.8992e-10
1.89881e-10
1.89844e-10
1.89806e-10
1.8977e-10
1.89734e-10
1.89699e-10
1.89665e-10
1.89631e-10
1.89599e-10
1.89567e-10
1.89536e-10
1.89507e-10
1.89479e-10
1.89452e-10
1.89426e-10
1.89401e-10
1.89378e-10
1.89357e-10
1.89337e-10
1.89318e-10
1.89301e-10
1.89285e-10
1.89271e-10
1.89258e-10
1.89246e-10
1.89237e-10
1.89228e-10
1.8922e-10
1.89214e-10
1.89209e-10
1.89205e-10
1.89203e-10
1.89201e-10
1.892e-10
1.892e-10
1.892e-10
1.89201e-10
1.89203e-10
1.89206e-10
1.89209e-10
1.89212e-10
1.89215e-10
1.89219e-10
1.8922e-10
1.89223e-10
1.89218e-10
1.89209e-10
1.89186e-10
1.89139e-10
1.89054e-10
1.889e-10
1.88642e-10
1.88231e-10
1.87646e-10
1.86929e-10
1.86213e-10
1.85659e-10
1.85319e-10
1.85147e-10
1.85072e-10
1.85042e-10
1.85038e-10
1.85041e-10
1.85053e-10
1.85069e-10
1.85085e-10
1.85104e-10
1.85124e-10
1.85146e-10
1.85169e-10
1.85194e-10
1.8522e-10
1.85248e-10
1.85277e-10
1.85309e-10
1.85341e-10
1.85376e-10
1.85412e-10
1.8545e-10
1.8549e-10
1.85532e-10
1.85576e-10
1.85621e-10
1.85668e-10
1.85717e-10
1.85767e-10
1.85819e-10
1.85872e-10
1.85927e-10
1.85982e-10
1.86038e-10
1.86096e-10
1.86154e-10
1.86212e-10
1.8627e-10
1.86329e-10
1.86387e-10
1.86445e-10
1.86502e-10
1.86559e-10
1.86614e-10
1.86667e-10
1.86719e-10
1.86769e-10
1.86817e-10
1.86863e-10
1.86905e-10
1.86945e-10
1.86982e-10
1.87015e-10
1.87045e-10
1.87071e-10
1.87094e-10
1.87112e-10
1.87125e-10
1.87134e-10
1.87139e-10
1.87141e-10
1.87141e-10
1.8714e-10
1.87133e-10
1.87117e-10
1.87098e-10
1.87075e-10
1.87049e-10
1.8702e-10
1.86988e-10
1.86953e-10
1.86915e-10
1.86876e-10
1.86834e-10
1.8679e-10
1.86745e-10
1.86699e-10
1.86652e-10
1.86604e-10
1.86555e-10
1.86507e-10
1.86458e-10
1.8641e-10
1.86362e-10
1.86314e-10
1.86268e-10
1.86223e-10
1.86178e-10
1.86135e-10
1.86093e-10
1.86053e-10
1.86014e-10
1.85976e-10
1.8594e-10
1.85905e-10
1.85872e-10
1.8584e-10
1.8581e-10
1.85781e-10
1.85753e-10
1.85727e-10
1.85702e-10
1.85678e-10
1.85655e-10
1.85633e-10
1.85611e-10
1.85591e-10
1.85572e-10
1.85553e-10
1.85534e-10
1.85516e-10
1.85499e-10
1.85482e-10
1.85466e-10
1.85449e-10
1.85433e-10
1.85418e-10
1.85402e-10
1.85387e-10
1.85371e-10
1.85356e-10
1.85341e-10
1.85326e-10
)
;

boundaryField
{
    inlet
    {
        type            calculated;
        value           uniform -2.74882e-10;
    }
    outlet
    {
        type            calculated;
        value           uniform 1.85311e-10;
    }
    emptyWalls
    {
        type            empty;
        value           nonuniform List<scalar> 0();
    }
}


// ************************************************************************* //
