/*--------------------------------*- C++ -*----------------------------------*\
  =========                 |
  \\      /  F ield         | OpenFOAM: The Open Source CFD Toolbox
   \\    /   O peration     | Website:  https://openfoam.org
    \\  /    A nd           | Version:  9
     \\/     M anipulation  |
\*---------------------------------------------------------------------------*/
FoamFile
{
    format      ascii;
    class       volVectorField;
    location    "21750";
    object      Ua;
}
// * * * * * * * * * * * * * * * * * * * * * * * * * * * * * * * * * * * * * //

dimensions      [0 0 0 0 0 0 0];

internalField   nonuniform List<vector> 
1000
(
(2.74901e-06 0 0)
(2.74872e-06 0 0)
(2.74868e-06 0 0)
(2.74856e-06 0 0)
(2.74838e-06 0 0)
(2.7481e-06 0 0)
(2.74775e-06 0 0)
(2.74729e-06 0 0)
(2.74678e-06 0 0)
(2.74623e-06 0 0)
(2.74556e-06 0 0)
(2.74495e-06 0 0)
(2.74418e-06 0 0)
(2.74342e-06 0 0)
(2.74264e-06 0 0)
(2.74178e-06 0 0)
(2.74099e-06 0 0)
(2.74016e-06 0 0)
(2.73936e-06 0 0)
(2.73856e-06 0 0)
(2.73777e-06 0 0)
(2.737e-06 0 0)
(2.73629e-06 0 0)
(2.73567e-06 0 0)
(2.73509e-06 0 0)
(2.73463e-06 0 0)
(2.73398e-06 0 0)
(2.73251e-06 0 0)
(2.72745e-06 0 0)
(2.70631e-06 0 0)
(2.5801e-06 0 0)
(2.34333e-06 0 0)
(2.19849e-06 0 0)
(2.17265e-06 0 0)
(2.15452e-06 0 0)
(2.13645e-06 0 0)
(2.1202e-06 0 0)
(2.10732e-06 0 0)
(2.09849e-06 0 0)
(2.09436e-06 0 0)
(2.09358e-06 0 0)
(2.09304e-06 0 0)
(2.09238e-06 0 0)
(2.09134e-06 0 0)
(2.08987e-06 0 0)
(2.08808e-06 0 0)
(2.08607e-06 0 0)
(2.08394e-06 0 0)
(2.08179e-06 0 0)
(2.07968e-06 0 0)
(2.07764e-06 0 0)
(2.07567e-06 0 0)
(2.07379e-06 0 0)
(2.07198e-06 0 0)
(2.07025e-06 0 0)
(2.06861e-06 0 0)
(2.06703e-06 0 0)
(2.06551e-06 0 0)
(2.06406e-06 0 0)
(2.06268e-06 0 0)
(2.06136e-06 0 0)
(2.0601e-06 0 0)
(2.05889e-06 0 0)
(2.05773e-06 0 0)
(2.05661e-06 0 0)
(2.05553e-06 0 0)
(2.0545e-06 0 0)
(2.05352e-06 0 0)
(2.05259e-06 0 0)
(2.05171e-06 0 0)
(2.05089e-06 0 0)
(2.05012e-06 0 0)
(2.0494e-06 0 0)
(2.04872e-06 0 0)
(2.04808e-06 0 0)
(2.04749e-06 0 0)
(2.04694e-06 0 0)
(2.04644e-06 0 0)
(2.04597e-06 0 0)
(2.04555e-06 0 0)
(2.04519e-06 0 0)
(2.04489e-06 0 0)
(2.04466e-06 0 0)
(2.0445e-06 0 0)
(2.04443e-06 0 0)
(2.04442e-06 0 0)
(2.04444e-06 0 0)
(2.04445e-06 0 0)
(2.04445e-06 0 0)
(2.04442e-06 0 0)
(2.04437e-06 0 0)
(2.0443e-06 0 0)
(2.04424e-06 0 0)
(2.04419e-06 0 0)
(2.04416e-06 0 0)
(2.04417e-06 0 0)
(2.04421e-06 0 0)
(2.0443e-06 0 0)
(2.04441e-06 0 0)
(2.04452e-06 0 0)
(2.04461e-06 0 0)
(2.04465e-06 0 0)
(2.04466e-06 0 0)
(2.04463e-06 0 0)
(2.04458e-06 0 0)
(2.0445e-06 0 0)
(2.04442e-06 0 0)
(2.04438e-06 0 0)
(2.04445e-06 0 0)
(2.04471e-06 0 0)
(2.04525e-06 0 0)
(2.04614e-06 0 0)
(2.04741e-06 0 0)
(2.04906e-06 0 0)
(2.05104e-06 0 0)
(2.05327e-06 0 0)
(2.05567e-06 0 0)
(2.05817e-06 0 0)
(2.06071e-06 0 0)
(2.06321e-06 0 0)
(2.06564e-06 0 0)
(2.06792e-06 0 0)
(2.07e-06 0 0)
(2.07179e-06 0 0)
(2.07322e-06 0 0)
(2.0742e-06 0 0)
(2.07466e-06 0 0)
(2.07458e-06 0 0)
(2.07392e-06 0 0)
(2.0727e-06 0 0)
(2.07097e-06 0 0)
(2.06881e-06 0 0)
(2.06631e-06 0 0)
(2.06358e-06 0 0)
(2.06074e-06 0 0)
(2.05789e-06 0 0)
(2.05513e-06 0 0)
(2.05254e-06 0 0)
(2.05018e-06 0 0)
(2.0481e-06 0 0)
(2.04631e-06 0 0)
(2.04483e-06 0 0)
(2.04363e-06 0 0)
(2.0427e-06 0 0)
(2.04201e-06 0 0)
(2.04151e-06 0 0)
(2.04117e-06 0 0)
(2.04095e-06 0 0)
(2.04081e-06 0 0)
(2.04073e-06 0 0)
(2.04066e-06 0 0)
(2.0406e-06 0 0)
(2.04051e-06 0 0)
(2.04039e-06 0 0)
(2.04024e-06 0 0)
(2.04004e-06 0 0)
(2.03979e-06 0 0)
(2.0395e-06 0 0)
(2.03917e-06 0 0)
(2.0388e-06 0 0)
(2.0384e-06 0 0)
(2.03797e-06 0 0)
(2.03752e-06 0 0)
(2.03706e-06 0 0)
(2.03658e-06 0 0)
(2.0361e-06 0 0)
(2.03561e-06 0 0)
(2.03512e-06 0 0)
(2.03463e-06 0 0)
(2.03414e-06 0 0)
(2.03366e-06 0 0)
(2.03318e-06 0 0)
(2.03271e-06 0 0)
(2.03225e-06 0 0)
(2.0318e-06 0 0)
(2.03135e-06 0 0)
(2.03091e-06 0 0)
(2.03048e-06 0 0)
(2.03006e-06 0 0)
(2.02965e-06 0 0)
(2.02925e-06 0 0)
(2.02886e-06 0 0)
(2.02848e-06 0 0)
(2.02811e-06 0 0)
(2.02775e-06 0 0)
(2.0274e-06 0 0)
(2.02706e-06 0 0)
(2.02673e-06 0 0)
(2.02641e-06 0 0)
(2.0261e-06 0 0)
(2.0258e-06 0 0)
(2.02552e-06 0 0)
(2.02524e-06 0 0)
(2.02497e-06 0 0)
(2.02472e-06 0 0)
(2.02448e-06 0 0)
(2.02424e-06 0 0)
(2.02402e-06 0 0)
(2.02382e-06 0 0)
(2.02363e-06 0 0)
(2.02345e-06 0 0)
(2.02329e-06 0 0)
(2.02314e-06 0 0)
(2.023e-06 0 0)
(2.02287e-06 0 0)
(2.02275e-06 0 0)
(2.02264e-06 0 0)
(2.02253e-06 0 0)
(2.02243e-06 0 0)
(2.02233e-06 0 0)
(2.02223e-06 0 0)
(2.02214e-06 0 0)
(2.02205e-06 0 0)
(2.02196e-06 0 0)
(2.02189e-06 0 0)
(2.02181e-06 0 0)
(2.02175e-06 0 0)
(2.0217e-06 0 0)
(2.02165e-06 0 0)
(2.02162e-06 0 0)
(2.02159e-06 0 0)
(2.02156e-06 0 0)
(2.02153e-06 0 0)
(2.02149e-06 0 0)
(2.02145e-06 0 0)
(2.0214e-06 0 0)
(2.02134e-06 0 0)
(2.02128e-06 0 0)
(2.02123e-06 0 0)
(2.02119e-06 0 0)
(2.02118e-06 0 0)
(2.02121e-06 0 0)
(2.02131e-06 0 0)
(2.02149e-06 0 0)
(2.02176e-06 0 0)
(2.02214e-06 0 0)
(2.02265e-06 0 0)
(2.0233e-06 0 0)
(2.02408e-06 0 0)
(2.02501e-06 0 0)
(2.02607e-06 0 0)
(2.02726e-06 0 0)
(2.02858e-06 0 0)
(2.03e-06 0 0)
(2.03151e-06 0 0)
(2.03308e-06 0 0)
(2.03469e-06 0 0)
(2.0363e-06 0 0)
(2.03789e-06 0 0)
(2.03942e-06 0 0)
(2.04086e-06 0 0)
(2.04216e-06 0 0)
(2.0433e-06 0 0)
(2.04425e-06 0 0)
(2.04497e-06 0 0)
(2.04545e-06 0 0)
(2.04565e-06 0 0)
(2.04559e-06 0 0)
(2.04525e-06 0 0)
(2.04464e-06 0 0)
(2.04377e-06 0 0)
(2.04267e-06 0 0)
(2.04136e-06 0 0)
(2.03988e-06 0 0)
(2.03826e-06 0 0)
(2.03655e-06 0 0)
(2.03478e-06 0 0)
(2.03299e-06 0 0)
(2.03122e-06 0 0)
(2.02949e-06 0 0)
(2.02785e-06 0 0)
(2.02629e-06 0 0)
(2.02485e-06 0 0)
(2.02354e-06 0 0)
(2.02235e-06 0 0)
(2.02129e-06 0 0)
(2.02035e-06 0 0)
(2.01953e-06 0 0)
(2.01883e-06 0 0)
(2.01822e-06 0 0)
(2.01769e-06 0 0)
(2.01724e-06 0 0)
(2.01685e-06 0 0)
(2.0165e-06 0 0)
(2.0162e-06 0 0)
(2.01591e-06 0 0)
(2.01564e-06 0 0)
(2.01538e-06 0 0)
(2.01512e-06 0 0)
(2.01486e-06 0 0)
(2.01458e-06 0 0)
(2.01429e-06 0 0)
(2.01399e-06 0 0)
(2.01367e-06 0 0)
(2.01333e-06 0 0)
(2.01298e-06 0 0)
(2.01261e-06 0 0)
(2.01223e-06 0 0)
(2.01184e-06 0 0)
(2.01143e-06 0 0)
(2.01101e-06 0 0)
(2.01059e-06 0 0)
(2.01016e-06 0 0)
(2.00972e-06 0 0)
(2.00928e-06 0 0)
(2.00884e-06 0 0)
(2.0084e-06 0 0)
(2.00796e-06 0 0)
(2.00752e-06 0 0)
(2.00708e-06 0 0)
(2.00665e-06 0 0)
(2.00622e-06 0 0)
(2.00579e-06 0 0)
(2.00537e-06 0 0)
(2.00496e-06 0 0)
(2.00455e-06 0 0)
(2.00415e-06 0 0)
(2.00375e-06 0 0)
(2.00336e-06 0 0)
(2.00298e-06 0 0)
(2.00261e-06 0 0)
(2.00224e-06 0 0)
(2.00189e-06 0 0)
(2.00154e-06 0 0)
(2.0012e-06 0 0)
(2.00086e-06 0 0)
(2.00054e-06 0 0)
(2.00022e-06 0 0)
(1.99992e-06 0 0)
(1.99962e-06 0 0)
(1.99933e-06 0 0)
(1.99905e-06 0 0)
(1.99878e-06 0 0)
(1.99852e-06 0 0)
(1.99827e-06 0 0)
(1.99802e-06 0 0)
(1.99779e-06 0 0)
(1.99757e-06 0 0)
(1.99736e-06 0 0)
(1.99716e-06 0 0)
(1.99697e-06 0 0)
(1.99679e-06 0 0)
(1.99661e-06 0 0)
(1.99645e-06 0 0)
(1.99629e-06 0 0)
(1.99614e-06 0 0)
(1.996e-06 0 0)
(1.99587e-06 0 0)
(1.99574e-06 0 0)
(1.99561e-06 0 0)
(1.9955e-06 0 0)
(1.99539e-06 0 0)
(1.99528e-06 0 0)
(1.99518e-06 0 0)
(1.99509e-06 0 0)
(1.995e-06 0 0)
(1.99491e-06 0 0)
(1.99483e-06 0 0)
(1.99476e-06 0 0)
(1.99468e-06 0 0)
(1.99462e-06 0 0)
(1.99455e-06 0 0)
(1.99448e-06 0 0)
(1.99442e-06 0 0)
(1.99435e-06 0 0)
(1.99429e-06 0 0)
(1.99423e-06 0 0)
(1.99418e-06 0 0)
(1.99414e-06 0 0)
(1.99411e-06 0 0)
(1.99409e-06 0 0)
(1.9941e-06 0 0)
(1.99413e-06 0 0)
(1.99419e-06 0 0)
(1.99429e-06 0 0)
(1.99444e-06 0 0)
(1.99465e-06 0 0)
(1.9949e-06 0 0)
(1.99523e-06 0 0)
(1.99562e-06 0 0)
(1.99609e-06 0 0)
(1.99663e-06 0 0)
(1.99724e-06 0 0)
(1.99793e-06 0 0)
(1.9987e-06 0 0)
(1.99954e-06 0 0)
(2.00044e-06 0 0)
(2.0014e-06 0 0)
(2.00241e-06 0 0)
(2.00346e-06 0 0)
(2.00454e-06 0 0)
(2.00563e-06 0 0)
(2.00672e-06 0 0)
(2.0078e-06 0 0)
(2.00885e-06 0 0)
(2.00985e-06 0 0)
(2.01078e-06 0 0)
(2.01163e-06 0 0)
(2.01239e-06 0 0)
(2.01304e-06 0 0)
(2.01356e-06 0 0)
(2.01394e-06 0 0)
(2.01418e-06 0 0)
(2.01427e-06 0 0)
(2.0142e-06 0 0)
(2.01397e-06 0 0)
(2.01359e-06 0 0)
(2.01305e-06 0 0)
(2.01238e-06 0 0)
(2.01157e-06 0 0)
(2.01064e-06 0 0)
(2.00961e-06 0 0)
(2.00849e-06 0 0)
(2.0073e-06 0 0)
(2.00606e-06 0 0)
(2.00479e-06 0 0)
(2.0035e-06 0 0)
(2.0022e-06 0 0)
(2.00093e-06 0 0)
(1.99968e-06 0 0)
(1.99847e-06 0 0)
(1.99731e-06 0 0)
(1.9962e-06 0 0)
(1.99516e-06 0 0)
(1.99418e-06 0 0)
(1.99327e-06 0 0)
(1.99243e-06 0 0)
(1.99165e-06 0 0)
(1.99093e-06 0 0)
(1.99028e-06 0 0)
(1.98968e-06 0 0)
(1.98912e-06 0 0)
(1.98862e-06 0 0)
(1.98815e-06 0 0)
(1.98771e-06 0 0)
(1.9873e-06 0 0)
(1.98691e-06 0 0)
(1.98655e-06 0 0)
(1.98619e-06 0 0)
(1.98585e-06 0 0)
(1.98551e-06 0 0)
(1.98517e-06 0 0)
(1.98483e-06 0 0)
(1.98449e-06 0 0)
(1.98415e-06 0 0)
(1.9838e-06 0 0)
(1.98344e-06 0 0)
(1.98308e-06 0 0)
(1.98271e-06 0 0)
(1.98234e-06 0 0)
(1.98196e-06 0 0)
(1.98157e-06 0 0)
(1.98118e-06 0 0)
(1.98078e-06 0 0)
(1.98038e-06 0 0)
(1.97997e-06 0 0)
(1.97956e-06 0 0)
(1.97915e-06 0 0)
(1.97874e-06 0 0)
(1.97833e-06 0 0)
(1.97791e-06 0 0)
(1.9775e-06 0 0)
(1.97709e-06 0 0)
(1.97669e-06 0 0)
(1.97628e-06 0 0)
(1.97588e-06 0 0)
(1.97548e-06 0 0)
(1.97509e-06 0 0)
(1.9747e-06 0 0)
(1.97432e-06 0 0)
(1.97394e-06 0 0)
(1.97357e-06 0 0)
(1.9732e-06 0 0)
(1.97284e-06 0 0)
(1.97248e-06 0 0)
(1.97214e-06 0 0)
(1.97179e-06 0 0)
(1.97146e-06 0 0)
(1.97113e-06 0 0)
(1.97081e-06 0 0)
(1.9705e-06 0 0)
(1.97019e-06 0 0)
(1.96989e-06 0 0)
(1.9696e-06 0 0)
(1.96932e-06 0 0)
(1.96905e-06 0 0)
(1.96878e-06 0 0)
(1.96852e-06 0 0)
(1.96827e-06 0 0)
(1.96802e-06 0 0)
(1.96778e-06 0 0)
(1.96756e-06 0 0)
(1.96734e-06 0 0)
(1.96712e-06 0 0)
(1.96692e-06 0 0)
(1.96672e-06 0 0)
(1.96653e-06 0 0)
(1.96634e-06 0 0)
(1.96617e-06 0 0)
(1.966e-06 0 0)
(1.96583e-06 0 0)
(1.96568e-06 0 0)
(1.96552e-06 0 0)
(1.96538e-06 0 0)
(1.96524e-06 0 0)
(1.9651e-06 0 0)
(1.96497e-06 0 0)
(1.96485e-06 0 0)
(1.96473e-06 0 0)
(1.96461e-06 0 0)
(1.9645e-06 0 0)
(1.96439e-06 0 0)
(1.96429e-06 0 0)
(1.96419e-06 0 0)
(1.96409e-06 0 0)
(1.96399e-06 0 0)
(1.9639e-06 0 0)
(1.96381e-06 0 0)
(1.96372e-06 0 0)
(1.96364e-06 0 0)
(1.96356e-06 0 0)
(1.96349e-06 0 0)
(1.96342e-06 0 0)
(1.96336e-06 0 0)
(1.96331e-06 0 0)
(1.96327e-06 0 0)
(1.96324e-06 0 0)
(1.96323e-06 0 0)
(1.96324e-06 0 0)
(1.96327e-06 0 0)
(1.96332e-06 0 0)
(1.9634e-06 0 0)
(1.9635e-06 0 0)
(1.96365e-06 0 0)
(1.96382e-06 0 0)
(1.96404e-06 0 0)
(1.9643e-06 0 0)
(1.9646e-06 0 0)
(1.96494e-06 0 0)
(1.96533e-06 0 0)
(1.96577e-06 0 0)
(1.96625e-06 0 0)
(1.96678e-06 0 0)
(1.96735e-06 0 0)
(1.96796e-06 0 0)
(1.9686e-06 0 0)
(1.96928e-06 0 0)
(1.96999e-06 0 0)
(1.97073e-06 0 0)
(1.97148e-06 0 0)
(1.97224e-06 0 0)
(1.97301e-06 0 0)
(1.97377e-06 0 0)
(1.97451e-06 0 0)
(1.97524e-06 0 0)
(1.97594e-06 0 0)
(1.9766e-06 0 0)
(1.97721e-06 0 0)
(1.97777e-06 0 0)
(1.97826e-06 0 0)
(1.97868e-06 0 0)
(1.97903e-06 0 0)
(1.97929e-06 0 0)
(1.97946e-06 0 0)
(1.97953e-06 0 0)
(1.97951e-06 0 0)
(1.9794e-06 0 0)
(1.97918e-06 0 0)
(1.97887e-06 0 0)
(1.97846e-06 0 0)
(1.97796e-06 0 0)
(1.97738e-06 0 0)
(1.97671e-06 0 0)
(1.97597e-06 0 0)
(1.97516e-06 0 0)
(1.9743e-06 0 0)
(1.97339e-06 0 0)
(1.97244e-06 0 0)
(1.97146e-06 0 0)
(1.97046e-06 0 0)
(1.96945e-06 0 0)
(1.96843e-06 0 0)
(1.96742e-06 0 0)
(1.96643e-06 0 0)
(1.96545e-06 0 0)
(1.9645e-06 0 0)
(1.96357e-06 0 0)
(1.96268e-06 0 0)
(1.96182e-06 0 0)
(1.961e-06 0 0)
(1.96023e-06 0 0)
(1.95949e-06 0 0)
(1.95878e-06 0 0)
(1.95812e-06 0 0)
(1.9575e-06 0 0)
(1.9569e-06 0 0)
(1.95635e-06 0 0)
(1.95582e-06 0 0)
(1.95532e-06 0 0)
(1.95484e-06 0 0)
(1.95439e-06 0 0)
(1.95396e-06 0 0)
(1.95354e-06 0 0)
(1.95314e-06 0 0)
(1.95275e-06 0 0)
(1.95237e-06 0 0)
(1.952e-06 0 0)
(1.95163e-06 0 0)
(1.95127e-06 0 0)
(1.9509e-06 0 0)
(1.95054e-06 0 0)
(1.95018e-06 0 0)
(1.94982e-06 0 0)
(1.94946e-06 0 0)
(1.94909e-06 0 0)
(1.94873e-06 0 0)
(1.94836e-06 0 0)
(1.94798e-06 0 0)
(1.94761e-06 0 0)
(1.94723e-06 0 0)
(1.94685e-06 0 0)
(1.94646e-06 0 0)
(1.94608e-06 0 0)
(1.94569e-06 0 0)
(1.9453e-06 0 0)
(1.94491e-06 0 0)
(1.94452e-06 0 0)
(1.94414e-06 0 0)
(1.94375e-06 0 0)
(1.94336e-06 0 0)
(1.94297e-06 0 0)
(1.94259e-06 0 0)
(1.94221e-06 0 0)
(1.94183e-06 0 0)
(1.94145e-06 0 0)
(1.94108e-06 0 0)
(1.94071e-06 0 0)
(1.94034e-06 0 0)
(1.93998e-06 0 0)
(1.93962e-06 0 0)
(1.93926e-06 0 0)
(1.93891e-06 0 0)
(1.93857e-06 0 0)
(1.93823e-06 0 0)
(1.93789e-06 0 0)
(1.93756e-06 0 0)
(1.93724e-06 0 0)
(1.93692e-06 0 0)
(1.93661e-06 0 0)
(1.9363e-06 0 0)
(1.936e-06 0 0)
(1.9357e-06 0 0)
(1.93541e-06 0 0)
(1.93512e-06 0 0)
(1.93485e-06 0 0)
(1.93457e-06 0 0)
(1.93431e-06 0 0)
(1.93405e-06 0 0)
(1.93379e-06 0 0)
(1.93354e-06 0 0)
(1.9333e-06 0 0)
(1.93306e-06 0 0)
(1.93283e-06 0 0)
(1.93261e-06 0 0)
(1.93239e-06 0 0)
(1.93218e-06 0 0)
(1.93197e-06 0 0)
(1.93177e-06 0 0)
(1.93157e-06 0 0)
(1.93138e-06 0 0)
(1.93119e-06 0 0)
(1.93101e-06 0 0)
(1.93083e-06 0 0)
(1.93066e-06 0 0)
(1.93049e-06 0 0)
(1.93032e-06 0 0)
(1.93016e-06 0 0)
(1.93001e-06 0 0)
(1.92986e-06 0 0)
(1.92971e-06 0 0)
(1.92956e-06 0 0)
(1.92942e-06 0 0)
(1.92928e-06 0 0)
(1.92915e-06 0 0)
(1.92902e-06 0 0)
(1.92889e-06 0 0)
(1.92877e-06 0 0)
(1.92865e-06 0 0)
(1.92853e-06 0 0)
(1.92842e-06 0 0)
(1.92832e-06 0 0)
(1.92822e-06 0 0)
(1.92812e-06 0 0)
(1.92804e-06 0 0)
(1.92796e-06 0 0)
(1.92789e-06 0 0)
(1.92783e-06 0 0)
(1.92779e-06 0 0)
(1.92776e-06 0 0)
(1.92774e-06 0 0)
(1.92774e-06 0 0)
(1.92776e-06 0 0)
(1.9278e-06 0 0)
(1.92786e-06 0 0)
(1.92794e-06 0 0)
(1.92805e-06 0 0)
(1.92818e-06 0 0)
(1.92834e-06 0 0)
(1.92853e-06 0 0)
(1.92874e-06 0 0)
(1.92899e-06 0 0)
(1.92926e-06 0 0)
(1.92956e-06 0 0)
(1.9299e-06 0 0)
(1.93026e-06 0 0)
(1.93065e-06 0 0)
(1.93106e-06 0 0)
(1.9315e-06 0 0)
(1.93197e-06 0 0)
(1.93245e-06 0 0)
(1.93295e-06 0 0)
(1.93346e-06 0 0)
(1.93399e-06 0 0)
(1.93452e-06 0 0)
(1.93506e-06 0 0)
(1.93559e-06 0 0)
(1.93612e-06 0 0)
(1.93664e-06 0 0)
(1.93714e-06 0 0)
(1.93763e-06 0 0)
(1.93809e-06 0 0)
(1.93851e-06 0 0)
(1.93891e-06 0 0)
(1.93926e-06 0 0)
(1.93957e-06 0 0)
(1.93984e-06 0 0)
(1.94005e-06 0 0)
(1.9402e-06 0 0)
(1.9403e-06 0 0)
(1.94034e-06 0 0)
(1.94031e-06 0 0)
(1.94022e-06 0 0)
(1.94006e-06 0 0)
(1.93984e-06 0 0)
(1.93955e-06 0 0)
(1.9392e-06 0 0)
(1.93879e-06 0 0)
(1.93832e-06 0 0)
(1.93779e-06 0 0)
(1.93721e-06 0 0)
(1.93657e-06 0 0)
(1.9359e-06 0 0)
(1.93518e-06 0 0)
(1.93443e-06 0 0)
(1.93365e-06 0 0)
(1.93284e-06 0 0)
(1.93201e-06 0 0)
(1.93117e-06 0 0)
(1.93032e-06 0 0)
(1.92947e-06 0 0)
(1.92861e-06 0 0)
(1.92776e-06 0 0)
(1.92692e-06 0 0)
(1.92609e-06 0 0)
(1.92527e-06 0 0)
(1.92447e-06 0 0)
(1.92369e-06 0 0)
(1.92294e-06 0 0)
(1.9222e-06 0 0)
(1.92149e-06 0 0)
(1.9208e-06 0 0)
(1.92013e-06 0 0)
(1.91949e-06 0 0)
(1.91887e-06 0 0)
(1.91828e-06 0 0)
(1.9177e-06 0 0)
(1.91715e-06 0 0)
(1.91661e-06 0 0)
(1.9161e-06 0 0)
(1.9156e-06 0 0)
(1.91511e-06 0 0)
(1.91464e-06 0 0)
(1.91418e-06 0 0)
(1.91374e-06 0 0)
(1.9133e-06 0 0)
(1.91287e-06 0 0)
(1.91244e-06 0 0)
(1.91203e-06 0 0)
(1.91161e-06 0 0)
(1.9112e-06 0 0)
(1.91079e-06 0 0)
(1.91039e-06 0 0)
(1.90998e-06 0 0)
(1.90958e-06 0 0)
(1.90917e-06 0 0)
(1.90877e-06 0 0)
(1.90836e-06 0 0)
(1.90796e-06 0 0)
(1.90755e-06 0 0)
(1.90714e-06 0 0)
(1.90673e-06 0 0)
(1.90632e-06 0 0)
(1.90591e-06 0 0)
(1.90549e-06 0 0)
(1.90508e-06 0 0)
(1.90467e-06 0 0)
(1.90425e-06 0 0)
(1.90384e-06 0 0)
(1.90343e-06 0 0)
(1.90301e-06 0 0)
(1.9026e-06 0 0)
(1.90219e-06 0 0)
(1.90178e-06 0 0)
(1.90138e-06 0 0)
(1.90097e-06 0 0)
(1.90057e-06 0 0)
(1.90017e-06 0 0)
(1.89978e-06 0 0)
(1.89939e-06 0 0)
(1.89901e-06 0 0)
(1.89863e-06 0 0)
(1.89825e-06 0 0)
(1.89788e-06 0 0)
(1.89752e-06 0 0)
(1.89716e-06 0 0)
(1.89682e-06 0 0)
(1.89648e-06 0 0)
(1.89615e-06 0 0)
(1.89583e-06 0 0)
(1.89552e-06 0 0)
(1.89522e-06 0 0)
(1.89493e-06 0 0)
(1.89465e-06 0 0)
(1.89439e-06 0 0)
(1.89414e-06 0 0)
(1.8939e-06 0 0)
(1.89368e-06 0 0)
(1.89347e-06 0 0)
(1.89327e-06 0 0)
(1.89309e-06 0 0)
(1.89293e-06 0 0)
(1.89278e-06 0 0)
(1.89264e-06 0 0)
(1.89252e-06 0 0)
(1.89242e-06 0 0)
(1.89232e-06 0 0)
(1.89224e-06 0 0)
(1.89217e-06 0 0)
(1.89212e-06 0 0)
(1.89207e-06 0 0)
(1.89204e-06 0 0)
(1.89202e-06 0 0)
(1.892e-06 0 0)
(1.892e-06 0 0)
(1.892e-06 0 0)
(1.89201e-06 0 0)
(1.89202e-06 0 0)
(1.89205e-06 0 0)
(1.89207e-06 0 0)
(1.89211e-06 0 0)
(1.89214e-06 0 0)
(1.89217e-06 0 0)
(1.89219e-06 0 0)
(1.89222e-06 0 0)
(1.8922e-06 0 0)
(1.89213e-06 0 0)
(1.89197e-06 0 0)
(1.89162e-06 0 0)
(1.89097e-06 0 0)
(1.88977e-06 0 0)
(1.88771e-06 0 0)
(1.88437e-06 0 0)
(1.87939e-06 0 0)
(1.87287e-06 0 0)
(1.86571e-06 0 0)
(1.85936e-06 0 0)
(1.85489e-06 0 0)
(1.85233e-06 0 0)
(1.85109e-06 0 0)
(1.85057e-06 0 0)
(1.8504e-06 0 0)
(1.85039e-06 0 0)
(1.85047e-06 0 0)
(1.85061e-06 0 0)
(1.85077e-06 0 0)
(1.85094e-06 0 0)
(1.85114e-06 0 0)
(1.85135e-06 0 0)
(1.85158e-06 0 0)
(1.85182e-06 0 0)
(1.85207e-06 0 0)
(1.85234e-06 0 0)
(1.85263e-06 0 0)
(1.85293e-06 0 0)
(1.85325e-06 0 0)
(1.85359e-06 0 0)
(1.85394e-06 0 0)
(1.85431e-06 0 0)
(1.8547e-06 0 0)
(1.85511e-06 0 0)
(1.85554e-06 0 0)
(1.85598e-06 0 0)
(1.85645e-06 0 0)
(1.85693e-06 0 0)
(1.85742e-06 0 0)
(1.85793e-06 0 0)
(1.85846e-06 0 0)
(1.85899e-06 0 0)
(1.85954e-06 0 0)
(1.8601e-06 0 0)
(1.86067e-06 0 0)
(1.86125e-06 0 0)
(1.86183e-06 0 0)
(1.86241e-06 0 0)
(1.863e-06 0 0)
(1.86358e-06 0 0)
(1.86416e-06 0 0)
(1.86474e-06 0 0)
(1.8653e-06 0 0)
(1.86586e-06 0 0)
(1.86641e-06 0 0)
(1.86693e-06 0 0)
(1.86744e-06 0 0)
(1.86793e-06 0 0)
(1.8684e-06 0 0)
(1.86884e-06 0 0)
(1.86925e-06 0 0)
(1.86964e-06 0 0)
(1.86999e-06 0 0)
(1.8703e-06 0 0)
(1.87058e-06 0 0)
(1.87083e-06 0 0)
(1.87103e-06 0 0)
(1.87118e-06 0 0)
(1.8713e-06 0 0)
(1.87137e-06 0 0)
(1.8714e-06 0 0)
(1.87141e-06 0 0)
(1.87141e-06 0 0)
(1.87136e-06 0 0)
(1.87125e-06 0 0)
(1.87107e-06 0 0)
(1.87086e-06 0 0)
(1.87062e-06 0 0)
(1.87034e-06 0 0)
(1.87004e-06 0 0)
(1.8697e-06 0 0)
(1.86934e-06 0 0)
(1.86896e-06 0 0)
(1.86855e-06 0 0)
(1.86812e-06 0 0)
(1.86768e-06 0 0)
(1.86722e-06 0 0)
(1.86675e-06 0 0)
(1.86628e-06 0 0)
(1.86579e-06 0 0)
(1.86531e-06 0 0)
(1.86482e-06 0 0)
(1.86434e-06 0 0)
(1.86386e-06 0 0)
(1.86338e-06 0 0)
(1.86291e-06 0 0)
(1.86245e-06 0 0)
(1.862e-06 0 0)
(1.86157e-06 0 0)
(1.86114e-06 0 0)
(1.86073e-06 0 0)
(1.86033e-06 0 0)
(1.85995e-06 0 0)
(1.85958e-06 0 0)
(1.85923e-06 0 0)
(1.85889e-06 0 0)
(1.85856e-06 0 0)
(1.85825e-06 0 0)
(1.85796e-06 0 0)
(1.85767e-06 0 0)
(1.8574e-06 0 0)
(1.85714e-06 0 0)
(1.8569e-06 0 0)
(1.85666e-06 0 0)
(1.85644e-06 0 0)
(1.85622e-06 0 0)
(1.85601e-06 0 0)
(1.85581e-06 0 0)
(1.85562e-06 0 0)
(1.85543e-06 0 0)
(1.85525e-06 0 0)
(1.85508e-06 0 0)
(1.85491e-06 0 0)
(1.85474e-06 0 0)
(1.85458e-06 0 0)
(1.85441e-06 0 0)
(1.85426e-06 0 0)
(1.8541e-06 0 0)
(1.85394e-06 0 0)
(1.85379e-06 0 0)
(1.85364e-06 0 0)
(1.85349e-06 0 0)
(1.85334e-06 0 0)
(1.85318e-06 0 0)
)
;

boundaryField
{
    inlet
    {
        type            fixedValue;
        value           uniform (2.74882e-06 0 0);
    }
    outlet
    {
        type            zeroGradient;
    }
    emptyWalls
    {
        type            empty;
    }
}


// ************************************************************************* //
