/*--------------------------------*- C++ -*----------------------------------*\
  =========                 |
  \\      /  F ield         | OpenFOAM: The Open Source CFD Toolbox
   \\    /   O peration     | Website:  https://openfoam.org
    \\  /    A nd           | Version:  9
     \\/     M anipulation  |
\*---------------------------------------------------------------------------*/
FoamFile
{
    format      ascii;
    class       volScalarField;
    location    "4450";
    object      kra;
}
// * * * * * * * * * * * * * * * * * * * * * * * * * * * * * * * * * * * * * //

dimensions      [0 0 0 0 0 0 0];

internalField   nonuniform List<scalar> 
1000
(
0.000239154
0.000245853
0.000251831
0.000259357
0.000277556
0.000357952
0.000738299
0.000899265
0.000934207
0.000949933
0.000954953
0.000955018
0.000953863
0.000951822
0.000946013
0.000935283
0.000921822
0.000905263
0.000887935
0.000870924
0.000854773
0.000839752
0.000825946
0.000813295
0.000801651
0.000790825
0.000780628
0.000770896
0.000761499
0.000752348
0.000743386
0.000734583
0.00072593
0.000717429
0.000709093
0.000700934
0.000692962
0.000685184
0.000677604
0.000670222
0.000663033
0.000656035
0.000649218
0.000642576
0.000636103
0.000629791
0.000623634
0.000617627
0.00061176
0.000606029
0.000600424
0.000594942
0.000589576
0.000584323
0.000579177
0.000574138
0.000569199
0.000564362
0.000559619
0.000554972
0.000550414
0.000545943
0.000541557
0.000537252
0.000533028
0.00052888
0.000524809
0.000520814
0.000516893
0.000513045
0.000509268
0.000505563
0.000501926
0.000498356
0.000494851
0.000491409
0.000488028
0.000484706
0.000481441
0.00047823
0.000475071
0.000471965
0.000468906
0.000465896
0.000462931
0.00046001
0.000457132
0.000454295
0.000451498
0.00044874
0.000446017
0.000443331
0.000440679
0.00043806
0.000435473
0.000432917
0.000430391
0.000427894
0.000425427
0.000422986
0.000420574
0.000418189
0.000415831
0.000413499
0.000411195
0.000408918
0.000406667
0.000404443
0.000402247
0.000400077
0.000397934
0.000395818
0.000393728
0.000391665
0.000389627
0.000387615
0.000385628
0.000383665
0.000381724
0.000379807
0.00037791
0.000376036
0.000374182
0.000372348
0.000370534
0.000368738
0.000366962
0.000365204
0.000363464
0.000361739
0.000360031
0.000358337
0.000356656
0.000354988
0.00035333
0.000351685
0.000350051
0.000348429
0.000346822
0.000345228
0.000343653
0.000342097
0.000340564
0.000339056
0.000337575
0.000336125
0.000334704
0.000333316
0.000331959
0.000330632
0.000329334
0.000328062
0.000326815
0.000325586
0.000324375
0.000323173
0.00032198
0.000320787
0.000319592
0.000318388
0.000317173
0.000315943
0.000314698
0.000313433
0.000312158
0.000310861
0.000309566
0.000308244
0.000306933
0.000305575
0.000304185
0.000302651
0.000300885
0.000298646
0.000295592
0.00029127
0.000285184
0.000277271
0.000268328
0.000260036
0.000253896
0.000250139
0.000248068
0.000246936
0.000246271
0.000245833
0.000245524
0.000245301
0.000245132
0.000245
0.000244904
0.000244844
0.000244816
0.000244809
0.00024481
0.000244815
0.000244849
0.000244893
0.000244943
0.000244995
0.000245049
0.000245103
0.000245155
0.000245204
0.000245248
0.000245288
0.000245321
0.000245349
0.000245371
0.000245386
0.000245394
0.000245398
0.000245398
0.000245397
0.000245392
0.000245377
0.000245359
0.000245339
0.000245316
0.000245292
0.000245266
0.000245238
0.00024521
0.000245181
0.000245151
0.00024512
0.00024509
0.000245059
0.000245028
0.000244997
0.000244967
0.000244936
0.000244906
0.000244876
0.000244847
0.000244817
0.000244788
0.000244759
0.00024473
0.000244702
0.000244674
0.000244646
0.000244618
0.00024459
0.000244562
0.000244535
0.000244507
0.00024448
0.000244453
0.000244425
0.000244398
0.00024437
0.000244342
0.000244315
0.000244287
0.000244259
0.000244231
0.000244203
0.000244176
0.000244148
0.00024412
0.000244093
0.000244065
0.000244038
0.000244012
0.000243986
0.00024396
0.000243935
0.000243911
0.000243887
0.000243864
0.000243843
0.000243822
0.000243802
0.000243784
0.000243766
0.00024375
0.000243736
0.000243723
0.000243711
0.000243701
0.000243692
0.000243685
0.000243679
0.000243675
0.000243673
0.000243672
0.000243672
0.000243672
0.000243672
0.000243677
0.000243682
0.000243689
0.000243696
0.000243705
0.000243714
0.000243725
0.000243735
0.000243747
0.000243759
0.000243772
0.000243784
0.000243797
0.000243809
0.000243823
0.000243834
0.000243847
0.000243858
0.000243871
0.000243881
0.000243892
0.000243901
0.000243911
0.00024392
0.000243929
0.000243937
0.000243947
0.000243955
0.000243964
0.000243973
0.000243984
0.000243995
0.000244009
0.000244022
0.000244039
0.000244057
0.000244079
0.000244102
0.000244129
0.000244158
0.000244191
0.000244226
0.000244266
0.000244308
0.000244354
0.000244403
0.000244457
0.000244513
0.000244573
0.000244636
0.000244704
0.000244775
0.000244851
0.00024493
0.000245014
0.000245102
0.000245197
0.000245296
0.000245402
0.000245514
0.000245633
0.000245759
0.000245894
0.000246036
0.000246187
0.000246346
0.000246515
0.000246691
0.000246876
0.000247068
0.000247268
0.000247474
0.000247686
0.000247901
0.00024812
0.000248339
0.000248558
0.000248773
0.000248984
0.000249186
0.000249379
0.000249558
0.000249722
0.000249868
0.000249993
0.000250094
0.000250168
0.000250212
0.00025023
0.000250231
0.000250227
0.000250204
0.000250102
0.000249961
0.000249789
0.000249586
0.000249356
0.000249103
0.00024883
0.00024854
0.00024824
0.000247933
0.000247624
0.000247316
0.000247016
0.000246726
0.00024645
0.000246191
0.000245951
0.000245732
0.000245535
0.000245361
0.000245209
0.00024508
0.000244973
0.000244886
0.000244818
0.000244768
0.000244734
0.000244714
0.000244706
0.000244706
0.000244706
0.000244714
0.00024474
0.000244771
0.000244804
0.000244837
0.000244871
0.000244903
0.000244933
0.000244961
0.000244986
0.000245007
0.000245026
0.000245041
0.000245052
0.00024506
0.000245064
0.000245066
0.000245066
0.000245066
0.000245063
0.000245055
0.000245044
0.000245033
0.00024502
0.000245006
0.000244991
0.000244977
0.000244962
0.000244947
0.000244932
0.000244917
0.000244903
0.000244889
0.000244875
0.000244862
0.00024485
0.000244839
0.000244828
0.000244817
0.000244807
0.000244798
0.00024479
0.000244782
0.000244774
0.000244767
0.00024476
0.000244753
0.000244747
0.00024474
0.000244734
0.000244728
0.000244722
0.000244715
0.000244708
0.000244701
0.000244694
0.000244686
0.000244677
0.000244668
0.000244658
0.000244647
0.000244635
0.000244622
0.000244609
0.000244594
0.000244579
0.000244562
0.000244545
0.000244526
0.000244507
0.000244486
0.000244465
0.000244442
0.000244419
0.000244395
0.00024437
0.000244345
0.000244319
0.000244293
0.000244267
0.00024424
0.000244213
0.000244186
0.00024416
0.000244133
0.000244107
0.000244082
0.000244058
0.000244034
0.000244012
0.00024399
0.00024397
0.000243951
0.000243934
0.000243919
0.000243905
0.000243893
0.000243882
0.000243874
0.000243868
0.000243864
0.000243862
0.000243862
0.000243862
0.000243862
0.000243867
0.000243876
0.000243885
0.000243898
0.000243911
0.000243927
0.000243944
0.000243964
0.000243983
0.000244006
0.000244028
0.000244052
0.000244077
0.000244103
0.000244129
0.000244156
0.000244183
0.000244212
0.00024424
0.000244269
0.000244297
0.000244326
0.000244355
0.000244384
0.000244413
0.000244443
0.000244472
0.000244503
0.000244533
0.000244564
0.000244596
0.00024463
0.000244665
0.000244702
0.000244741
0.000244783
0.000244828
0.000244877
0.000244929
0.000244987
0.000245049
0.000245118
0.000245192
0.000245274
0.000245362
0.000245459
0.000245563
0.000245676
0.000245797
0.000245928
0.000246067
0.000246215
0.000246371
0.000246537
0.00024671
0.000246891
0.000247078
0.000247272
0.00024747
0.000247673
0.000247878
0.000248086
0.000248293
0.000248499
0.000248701
0.000248898
0.000249088
0.000249269
0.000249438
0.000249595
0.000249736
0.00024986
0.000249964
0.000250047
0.000250105
0.000250138
0.000250148
0.000250148
0.000250144
0.000250111
0.000250014
0.000249888
0.000249734
0.000249555
0.000249352
0.000249129
0.000248887
0.000248631
0.000248362
0.000248086
0.000247805
0.000247523
0.000247242
0.000246968
0.000246702
0.000246447
0.000246205
0.000245978
0.000245767
0.000245574
0.000245399
0.000245242
0.000245104
0.000244983
0.00024488
0.000244793
0.000244722
0.000244665
0.000244621
0.000244589
0.000244567
0.000244555
0.00024455
0.00024455
0.000244551
0.000244557
0.000244574
0.000244594
0.000244615
0.000244637
0.000244658
0.000244679
0.000244698
0.000244715
0.00024473
0.000244743
0.000244754
0.000244762
0.000244767
0.000244769
0.000244769
0.000244769
0.000244768
0.000244761
0.00024475
0.000244738
0.000244723
0.000244706
0.000244688
0.000244668
0.000244647
0.000244625
0.000244601
0.000244577
0.000244552
0.000244527
0.000244501
0.000244475
0.000244449
0.000244422
0.000244396
0.00024437
0.000244344
0.000244319
0.000244294
0.00024427
0.000244246
0.000244223
0.000244201
0.00024418
0.00024416
0.000244141
0.000244122
0.000244106
0.00024409
0.000244075
0.000244062
0.00024405
0.00024404
0.000244031
0.000244024
0.000244018
0.000244013
0.000244011
0.000244009
0.000244009
0.000244009
0.00024401
0.000244014
0.00024402
0.000244027
0.000244036
0.000244046
0.000244058
0.00024407
0.000244083
0.000244097
0.000244111
0.000244126
0.000244142
0.000244158
0.000244174
0.00024419
0.000244206
0.000244221
0.000244237
0.000244251
0.000244265
0.000244278
0.000244291
0.000244302
0.000244312
0.000244321
0.000244329
0.000244336
0.000244341
0.000244345
0.000244347
0.000244347
0.000244345
0.000244327
0.000244245
0.000243295
0.000239229
0.000192491
1.26373e-05
1.00975e-08
9.94582e-16
7.7574e-31
6.13001e-63
2.33363e-131
7.13546e-277
0
0
0
0
0
0
0
0
0
0
0
0
0
0
0
0
0
0
0
0
0
0
0
0
0
0
0
0
0
0
0
0
0
0
0
0
0
0
0
0
0
0
0
0
0
0
0
0
0
0
0
0
0
0
0
0
0
0
0
0
0
0
0
0
0
0
0
0
0
0
0
0
0
0
0
0
0
0
0
0
0
0
0
0
0
0
0
0
0
0
0
0
0
0
0
0
0
0
0
0
0
0
0
0
0
0
0
0
0
0
0
0
0
0
0
0
0
0
0
0
0
0
0
0
0
0
0
0
0
0
0
0
0
0
0
0
0
0
0
0
0
0
0
0
0
0
0
0
0
0
0
0
0
0
0
0
0
0
0
0
0
0
0
0
0
0
0
0
0
0
0
0
0
0
0
0
0
0
0
0
0
0
0
0
0
0
0
0
0
0
0
0
0
0
0
0
0
0
0
0
0
0
0
0
0
0
0
0
0
0
0
0
0
0
0
0
0
0
0
0
0
0
0
0
0
0
0
0
0
0
0
0
0
0
0
0
0
0
0
0
0
0
0
0
0
0
0
0
0
0
0
0
0
0
0
0
0
0
0
0
)
;

boundaryField
{
    inlet
    {
        type            calculated;
        value           uniform 0.000236304;
    }
    outlet
    {
        type            calculated;
        value           uniform 0;
    }
    emptyWalls
    {
        type            empty;
    }
}


// ************************************************************************* //
