/*--------------------------------*- C++ -*----------------------------------*\
  =========                 |
  \\      /  F ield         | OpenFOAM: The Open Source CFD Toolbox
   \\    /   O peration     | Website:  https://openfoam.org
    \\  /    A nd           | Version:  9
     \\/     M anipulation  |
\*---------------------------------------------------------------------------*/
FoamFile
{
    format      ascii;
    class       volScalarField;
    location    "4450";
    object      Sb;
}
// * * * * * * * * * * * * * * * * * * * * * * * * * * * * * * * * * * * * * //

dimensions      [0 0 0 0 0 0 0];

internalField   nonuniform List<scalar> 
1000
(
0.351617
0.355086
0.358389
0.362486
0.37258
0.418052
0.598631
0.660674
0.673457
0.678297
0.680643
0.681825
0.682363
0.682501
0.682181
0.680805
0.677831
0.673631
0.669021
0.664278
0.659526
0.654829
0.650216
0.645704
0.641298
0.637002
0.632815
0.628737
0.624765
0.620895
0.617124
0.613447
0.609861
0.606359
0.60294
0.599599
0.596331
0.593134
0.590003
0.586936
0.583931
0.580984
0.578093
0.575255
0.572469
0.569732
0.567042
0.564398
0.561797
0.559238
0.55672
0.554241
0.551799
0.549394
0.547023
0.544686
0.542382
0.540108
0.537865
0.535651
0.533466
0.531307
0.529175
0.527069
0.524987
0.522929
0.520895
0.518882
0.516891
0.514922
0.512972
0.511042
0.509132
0.507239
0.505365
0.503508
0.501668
0.499844
0.498036
0.496244
0.494466
0.492703
0.490954
0.489219
0.487497
0.485788
0.484092
0.482407
0.480735
0.479074
0.477423
0.475784
0.474155
0.472536
0.470927
0.469327
0.467737
0.466155
0.464582
0.463018
0.461461
0.459912
0.45837
0.456836
0.455308
0.453787
0.452272
0.450763
0.44926
0.447763
0.44627
0.444783
0.4433
0.441822
0.440348
0.438878
0.437412
0.435949
0.434489
0.433033
0.431578
0.430127
0.428677
0.427229
0.425783
0.424339
0.422895
0.421453
0.42001
0.418569
0.417127
0.415685
0.414242
0.412799
0.411354
0.409908
0.40846
0.40701
0.405557
0.404101
0.402642
0.401179
0.399712
0.39824
0.396764
0.395282
0.393794
0.3923
0.390799
0.389291
0.387775
0.386251
0.38472
0.38318
0.381631
0.380074
0.37851
0.376938
0.375359
0.373775
0.372189
0.370604
0.369026
0.367461
0.365916
0.364402
0.362925
0.361495
0.36011
0.358761
0.357408
0.355971
0.35429
0.352086
0.348888
0.343987
0.336473
0.325542
0.311187
0.294901
0.279388
0.267019
0.258572
0.253433
0.250536
0.248976
0.248157
0.247734
0.247517
0.247406
0.24735
0.247322
0.247307
0.2473
0.247296
0.247294
0.247293
0.247292
0.247292
0.247291
0.247291
0.247291
0.24729
0.24729
0.24729
0.24729
0.24729
0.247289
0.247289
0.247289
0.247289
0.247289
0.247289
0.247289
0.247289
0.247289
0.247289
0.247289
0.24729
0.24729
0.24729
0.24729
0.24729
0.24729
0.247291
0.247291
0.247291
0.247291
0.247291
0.247291
0.247291
0.247292
0.247292
0.247292
0.247292
0.247292
0.247292
0.247293
0.247293
0.247293
0.247293
0.247293
0.247293
0.247294
0.247294
0.247294
0.247294
0.247294
0.247294
0.247294
0.247295
0.247295
0.247295
0.247295
0.247295
0.247295
0.247295
0.247295
0.247295
0.247295
0.247295
0.247295
0.247295
0.247295
0.247295
0.247295
0.247295
0.247295
0.247295
0.247295
0.247295
0.247295
0.247295
0.247295
0.247294
0.247294
0.247294
0.247294
0.247294
0.247294
0.247293
0.247293
0.247293
0.247293
0.247292
0.247292
0.247292
0.247292
0.247291
0.247291
0.247291
0.247291
0.24729
0.24729
0.24729
0.24729
0.247289
0.247289
0.247289
0.247289
0.247288
0.247288
0.247288
0.247288
0.247287
0.247287
0.247287
0.247287
0.247287
0.247287
0.247286
0.247286
0.247286
0.247286
0.247286
0.247286
0.247286
0.247285
0.247285
0.247285
0.247285
0.247285
0.247285
0.247285
0.247285
0.247285
0.247285
0.247284
0.247284
0.247284
0.247284
0.247284
0.247284
0.247283
0.247283
0.247283
0.247283
0.247282
0.247282
0.247282
0.247282
0.247281
0.247281
0.24728
0.24728
0.24728
0.247279
0.247279
0.247278
0.247278
0.247277
0.247276
0.247276
0.247275
0.247274
0.247274
0.247273
0.247272
0.247271
0.24727
0.247269
0.247268
0.247267
0.247266
0.247265
0.247263
0.247262
0.247261
0.24726
0.247259
0.247258
0.247257
0.247256
0.247256
0.247255
0.247254
0.247254
0.247254
0.247254
0.247254
0.247254
0.247254
0.247254
0.247255
0.247256
0.247257
0.247258
0.24726
0.247261
0.247263
0.247264
0.247266
0.247268
0.247269
0.247271
0.247273
0.247274
0.247275
0.247277
0.247278
0.247279
0.24728
0.247281
0.247281
0.247282
0.247282
0.247283
0.247283
0.247283
0.247283
0.247283
0.247283
0.247283
0.247283
0.247283
0.247283
0.247283
0.247282
0.247282
0.247282
0.247282
0.247282
0.247281
0.247281
0.247281
0.247281
0.247281
0.247281
0.247281
0.247281
0.247281
0.247281
0.247281
0.247281
0.247281
0.247281
0.247281
0.247281
0.247281
0.247281
0.247282
0.247282
0.247282
0.247283
0.247283
0.247283
0.247283
0.247284
0.247284
0.247284
0.247284
0.247284
0.247285
0.247285
0.247285
0.247285
0.247285
0.247285
0.247285
0.247285
0.247285
0.247285
0.247285
0.247285
0.247285
0.247285
0.247285
0.247285
0.247285
0.247285
0.247285
0.247285
0.247285
0.247285
0.247285
0.247285
0.247285
0.247285
0.247285
0.247285
0.247285
0.247285
0.247285
0.247286
0.247286
0.247286
0.247286
0.247286
0.247286
0.247286
0.247286
0.247286
0.247287
0.247287
0.247287
0.247287
0.247287
0.247287
0.247287
0.247287
0.247287
0.247288
0.247288
0.247288
0.247288
0.247288
0.247288
0.247288
0.247288
0.247288
0.247288
0.247288
0.247288
0.247288
0.247288
0.247288
0.247288
0.247288
0.247288
0.247288
0.247288
0.247288
0.247288
0.247288
0.247288
0.247287
0.247287
0.247287
0.247287
0.247287
0.247287
0.247287
0.247286
0.247286
0.247286
0.247286
0.247286
0.247286
0.247286
0.247285
0.247285
0.247285
0.247285
0.247285
0.247285
0.247284
0.247284
0.247284
0.247284
0.247284
0.247284
0.247283
0.247283
0.247283
0.247283
0.247282
0.247282
0.247282
0.247282
0.247281
0.247281
0.24728
0.24728
0.247279
0.247279
0.247278
0.247278
0.247277
0.247276
0.247275
0.247274
0.247273
0.247273
0.247272
0.247271
0.24727
0.247268
0.247267
0.247266
0.247265
0.247264
0.247263
0.247262
0.247261
0.24726
0.247259
0.247258
0.247257
0.247256
0.247256
0.247255
0.247255
0.247254
0.247254
0.247254
0.247254
0.247254
0.247254
0.247255
0.247255
0.247256
0.247257
0.247258
0.24726
0.247261
0.247262
0.247264
0.247265
0.247267
0.247268
0.24727
0.247271
0.247273
0.247274
0.247275
0.247277
0.247278
0.247279
0.24728
0.24728
0.247281
0.247282
0.247282
0.247283
0.247283
0.247284
0.247284
0.247284
0.247284
0.247284
0.247284
0.247284
0.247284
0.247284
0.247284
0.247284
0.247284
0.247284
0.247284
0.247284
0.247284
0.247283
0.247283
0.247283
0.247283
0.247283
0.247283
0.247283
0.247284
0.247284
0.247284
0.247284
0.247284
0.247284
0.247284
0.247284
0.247284
0.247284
0.247285
0.247285
0.247285
0.247285
0.247285
0.247285
0.247285
0.247286
0.247286
0.247286
0.247286
0.247286
0.247286
0.247286
0.247286
0.247286
0.247287
0.247287
0.247287
0.247287
0.247287
0.247287
0.247287
0.247287
0.247287
0.247287
0.247287
0.247287
0.247288
0.247288
0.247288
0.247288
0.247288
0.247288
0.247288
0.247288
0.247288
0.247288
0.247288
0.247287
0.247287
0.247287
0.247287
0.247287
0.247287
0.247287
0.247287
0.247287
0.247287
0.247287
0.247287
0.247287
0.247286
0.247286
0.247286
0.247286
0.247286
0.247286
0.247286
0.247286
0.247286
0.247286
0.247286
0.247286
0.247286
0.247286
0.247286
0.247286
0.247286
0.247286
0.247286
0.247286
0.247297
0.247328
0.247602
0.24933
0.249971
0.25
0.25
0.25
0.25
0.25
0.25
0.25
0.25
0.25
0.25
0.25
0.25
0.25
0.25
0.25
0.25
0.25
0.25
0.25
0.25
0.25
0.25
0.25
0.25
0.25
0.25
0.25
0.25
0.25
0.25
0.25
0.25
0.25
0.25
0.25
0.25
0.25
0.25
0.25
0.25
0.25
0.25
0.25
0.25
0.25
0.25
0.25
0.25
0.25
0.25
0.25
0.25
0.25
0.25
0.25
0.25
0.25
0.25
0.25
0.25
0.25
0.25
0.25
0.25
0.25
0.25
0.25
0.25
0.25
0.25
0.25
0.25
0.25
0.25
0.25
0.25
0.25
0.25
0.25
0.25
0.25
0.25
0.25
0.25
0.25
0.25
0.25
0.25
0.25
0.25
0.25
0.25
0.25
0.25
0.25
0.25
0.25
0.25
0.25
0.25
0.25
0.25
0.25
0.25
0.25
0.25
0.25
0.25
0.25
0.25
0.25
0.25
0.25
0.25
0.25
0.25
0.25
0.25
0.25
0.25
0.25
0.25
0.25
0.25
0.25
0.25
0.25
0.25
0.25
0.25
0.25
0.25
0.25
0.25
0.25
0.25
0.25
0.25
0.25
0.25
0.25
0.25
0.25
0.25
0.25
0.25
0.25
0.25
0.25
0.25
0.25
0.25
0.25
0.25
0.25
0.25
0.25
0.25
0.25
0.25
0.25
0.25
0.25
0.25
0.25
0.25
0.25
0.25
0.25
0.25
0.25
0.25
0.25
0.25
0.25
0.25
0.25
0.25
0.25
0.25
0.25
0.25
0.25
0.25
0.25
0.25
0.25
0.25
0.25
0.25
0.25
0.25
0.25
0.25
0.25
0.25
0.25
0.25
0.25
0.25
0.25
0.25
0.25
0.25
0.25
0.25
0.25
0.25
0.25
0.25
0.25
0.25
0.25
0.25
0.25
0.25
0.25
0.25
0.25
0.25
0.25
0.25
0.25
0.25
0.25
0.25
0.25
0.25
0.25
0.25
0.25
0.25
0.25
0.25
0.25
0.25
0.25
0.25
0.25
0.25
0.25
0.25
0.25
0.25
0.25
0.25
0.25
0.25
0.25
0.25
0.25
0.25
0.25
0.25
0.25
0.25
0.25
0.25
0.25
0.25
0.25
0.25
0.25
0.25
0.25
)
;

boundaryField
{
    inlet
    {
        type            fixedValue;
        value           uniform 0.35;
    }
    outlet
    {
        type            zeroGradient;
    }
    emptyWalls
    {
        type            empty;
    }
}


// ************************************************************************* //
