/*--------------------------------*- C++ -*----------------------------------*\
  =========                 |
  \\      /  F ield         | OpenFOAM: The Open Source CFD Toolbox
   \\    /   O peration     | Website:  https://openfoam.org
    \\  /    A nd           | Version:  9
     \\/     M anipulation  |
\*---------------------------------------------------------------------------*/
FoamFile
{
    format      ascii;
    class       surfaceScalarField;
    location    "1950";
    object      phia;
}
// * * * * * * * * * * * * * * * * * * * * * * * * * * * * * * * * * * * * * //

dimensions      [0 2 0 0 0 0 0];

internalField   nonuniform List<scalar> 
999
(
2.73966e-10
2.64848e-10
2.19281e-10
2.09633e-10
2.06705e-10
2.05191e-10
2.04259e-10
2.04016e-10
2.03806e-10
2.0366e-10
2.03544e-10
2.03426e-10
2.03293e-10
2.03144e-10
2.02985e-10
2.0282e-10
2.0265e-10
2.02478e-10
2.02304e-10
2.02127e-10
2.01948e-10
2.01765e-10
2.01578e-10
2.01386e-10
2.0119e-10
2.00987e-10
2.00779e-10
2.00564e-10
2.00343e-10
2.00115e-10
1.99879e-10
1.99638e-10
1.99387e-10
1.99136e-10
1.98876e-10
1.98618e-10
1.98357e-10
1.98096e-10
1.97841e-10
1.97583e-10
1.97336e-10
1.97089e-10
1.96848e-10
1.96614e-10
1.96381e-10
1.96157e-10
1.95936e-10
1.95719e-10
1.95507e-10
1.95296e-10
1.95089e-10
1.94883e-10
1.94676e-10
1.9447e-10
1.94263e-10
1.94054e-10
1.93845e-10
1.93635e-10
1.93424e-10
1.93213e-10
1.93003e-10
1.92793e-10
1.92585e-10
1.9238e-10
1.9218e-10
1.91986e-10
1.91802e-10
1.91632e-10
1.91476e-10
1.91338e-10
1.91214e-10
1.91102e-10
1.90979e-10
1.90825e-10
1.90576e-10
1.90206e-10
1.89669e-10
1.8908e-10
1.88595e-10
1.8836e-10
1.88387e-10
1.88552e-10
1.88826e-10
1.89109e-10
1.89417e-10
1.89726e-10
1.90023e-10
1.90304e-10
1.90565e-10
1.90797e-10
1.90982e-10
1.91099e-10
1.91147e-10
1.91154e-10
1.91153e-10
1.91077e-10
1.90788e-10
1.90443e-10
1.90012e-10
1.89495e-10
1.88895e-10
1.88221e-10
1.87487e-10
1.8671e-10
1.8591e-10
1.85108e-10
1.84324e-10
1.83578e-10
1.82887e-10
1.82269e-10
1.81734e-10
1.81291e-10
1.80944e-10
1.80692e-10
1.80531e-10
1.80452e-10
1.80429e-10
1.80428e-10
1.80453e-10
1.80597e-10
1.80804e-10
1.81036e-10
1.81284e-10
1.81541e-10
1.81802e-10
1.82061e-10
1.82313e-10
1.82553e-10
1.82779e-10
1.82988e-10
1.83177e-10
1.83346e-10
1.83494e-10
1.83621e-10
1.83728e-10
1.83816e-10
1.83886e-10
1.8394e-10
1.83979e-10
1.84007e-10
1.84023e-10
1.84031e-10
1.84034e-10
1.84034e-10
1.84031e-10
1.84018e-10
1.84002e-10
1.83984e-10
1.83967e-10
1.83949e-10
1.83932e-10
1.83917e-10
1.83903e-10
1.83891e-10
1.8388e-10
1.83872e-10
1.83865e-10
1.8386e-10
1.83856e-10
1.83854e-10
1.83853e-10
1.83853e-10
1.83853e-10
1.83853e-10
1.83853e-10
1.83854e-10
1.83854e-10
1.83853e-10
1.83853e-10
1.83849e-10
1.83844e-10
1.83836e-10
1.83827e-10
1.83815e-10
1.83802e-10
1.83786e-10
1.83769e-10
1.8375e-10
1.83729e-10
1.83706e-10
1.83682e-10
1.83655e-10
1.83628e-10
1.83599e-10
1.83568e-10
1.83536e-10
1.83502e-10
1.83467e-10
1.83431e-10
1.83394e-10
1.83355e-10
1.83315e-10
1.83275e-10
1.83233e-10
1.83191e-10
1.83148e-10
1.83104e-10
1.8306e-10
1.83016e-10
1.82973e-10
1.82929e-10
1.82886e-10
1.82844e-10
1.82804e-10
1.82765e-10
1.82728e-10
1.82693e-10
1.82661e-10
1.82632e-10
1.82607e-10
1.82586e-10
1.8257e-10
1.82559e-10
1.82554e-10
1.82552e-10
1.82552e-10
1.82554e-10
1.82565e-10
1.82591e-10
1.82622e-10
1.8266e-10
1.82705e-10
1.82758e-10
1.82817e-10
1.82884e-10
1.82958e-10
1.83038e-10
1.83126e-10
1.8322e-10
1.83321e-10
1.83429e-10
1.83543e-10
1.83662e-10
1.83788e-10
1.83919e-10
1.84055e-10
1.84195e-10
1.8434e-10
1.84489e-10
1.84641e-10
1.84796e-10
1.84953e-10
1.85112e-10
1.85273e-10
1.85434e-10
1.85596e-10
1.85758e-10
1.85919e-10
1.8608e-10
1.86239e-10
1.86397e-10
1.86554e-10
1.8671e-10
1.86864e-10
1.87017e-10
1.87168e-10
1.87319e-10
1.8747e-10
1.87621e-10
1.87773e-10
1.87926e-10
1.88082e-10
1.88241e-10
1.88405e-10
1.88574e-10
1.8875e-10
1.88934e-10
1.89127e-10
1.8933e-10
1.89544e-10
1.89771e-10
1.90011e-10
1.90265e-10
1.90534e-10
1.90818e-10
1.91117e-10
1.9143e-10
1.91759e-10
1.92101e-10
1.92455e-10
1.92819e-10
1.93192e-10
1.9357e-10
1.93948e-10
1.94323e-10
1.94689e-10
1.9504e-10
1.95366e-10
1.95657e-10
1.95901e-10
1.96081e-10
1.96186e-10
1.96224e-10
1.96227e-10
1.96216e-10
1.96114e-10
1.95692e-10
1.9512e-10
1.94383e-10
1.93485e-10
1.92437e-10
1.91262e-10
1.89989e-10
1.88655e-10
1.87301e-10
1.85968e-10
1.84691e-10
1.83504e-10
1.82431e-10
1.81488e-10
1.80684e-10
1.8002e-10
1.79493e-10
1.79094e-10
1.78814e-10
1.78644e-10
1.78565e-10
1.78545e-10
1.78544e-10
1.78576e-10
1.78756e-10
1.79007e-10
1.79185e-10
1.79518e-10
1.79873e-10
1.80017e-10
1.7967e-10
1.77944e-10
1.65844e-10
4.23361e-11
6.86139e-13
2.71365e-17
6.45745e-27
1.0301e-47
1.66711e-91
3.07108e-185
0
0
0
0
0
0
0
0
0
0
0
0
0
0
0
0
0
0
0
0
0
0
0
0
0
0
0
0
0
0
0
0
0
0
0
0
0
0
0
0
0
0
0
0
0
0
0
0
0
0
0
0
0
0
0
0
0
0
0
0
0
0
0
0
0
0
0
0
0
0
0
0
0
0
0
0
0
0
0
0
0
0
0
0
0
0
0
0
0
0
0
0
0
0
0
0
0
0
0
0
0
0
0
0
0
0
0
0
0
0
0
0
0
0
0
0
0
0
0
0
0
0
0
0
0
0
0
0
0
0
0
0
0
0
0
0
0
0
0
0
0
0
0
0
0
0
0
0
0
0
0
0
0
0
0
0
0
0
0
0
0
0
0
0
0
0
0
0
0
0
0
0
0
0
0
0
0
0
0
0
0
0
0
0
0
0
0
0
0
0
0
0
0
0
0
0
0
0
0
0
0
0
0
0
0
0
0
0
0
0
0
0
0
0
0
0
0
0
0
0
0
0
0
0
0
0
0
0
0
0
0
0
0
0
0
0
0
0
0
0
0
0
0
0
0
0
0
0
0
0
0
0
0
0
0
0
0
0
0
0
0
0
0
0
0
0
0
0
0
0
0
0
0
0
0
0
0
0
0
0
0
0
0
0
0
0
0
0
0
0
0
0
0
0
0
0
0
0
0
0
0
0
0
0
0
0
0
0
0
0
0
0
0
0
0
0
0
0
0
0
0
0
0
0
0
0
0
0
0
0
0
0
0
0
0
0
0
0
0
0
0
0
0
0
0
0
0
0
0
0
0
0
0
0
0
0
0
0
0
0
0
0
0
0
0
0
0
0
0
0
0
0
0
0
0
0
0
0
0
0
0
0
0
0
0
0
0
0
0
0
0
0
0
0
0
0
0
0
0
0
0
0
0
0
0
0
0
0
0
0
0
0
0
0
0
0
0
0
0
0
0
0
0
0
0
0
0
0
0
0
0
0
0
0
0
0
0
0
0
0
0
0
0
0
0
0
0
0
0
0
0
0
0
0
0
0
0
0
0
0
0
0
0
0
0
0
0
0
0
0
0
0
0
0
0
0
0
0
0
0
0
0
0
0
0
0
0
0
0
0
0
0
0
0
0
0
0
0
0
0
0
0
0
0
0
0
0
0
0
0
0
0
0
0
0
0
0
0
0
0
0
0
0
0
0
0
0
0
0
0
0
0
0
0
0
0
0
0
0
0
0
0
0
0
0
0
0
0
0
0
0
0
0
0
0
0
0
0
0
0
0
0
0
0
0
0
0
0
0
0
0
0
0
0
0
0
0
0
0
0
0
0
0
0
0
0
0
0
0
0
0
0
0
0
0
0
0
0
0
0
0
0
0
0
0
0
0
0
0
0
0
0
0
0
0
0
0
0
0
0
0
0
0
0
0
0
0
0
0
0
0
0
0
0
0
0
0
0
0
0
0
0
0
0
0
0
0
0
0
0
0
0
0
0
0
0
0
0
0
0
0
0
0
)
;

boundaryField
{
    inlet
    {
        type            calculated;
        value           uniform -2.74882e-10;
    }
    outlet
    {
        type            calculated;
        value           uniform 0;
    }
    emptyWalls
    {
        type            empty;
        value           nonuniform List<scalar> 0();
    }
}


// ************************************************************************* //
