/*--------------------------------*- C++ -*----------------------------------*\
  =========                 |
  \\      /  F ield         | OpenFOAM: The Open Source CFD Toolbox
   \\    /   O peration     | Website:  https://openfoam.org
    \\  /    A nd           | Version:  9
     \\/     M anipulation  |
\*---------------------------------------------------------------------------*/
FoamFile
{
    format      ascii;
    class       surfaceScalarField;
    location    "1950";
    object      phib;
}
// * * * * * * * * * * * * * * * * * * * * * * * * * * * * * * * * * * * * * //

dimensions      [0 2 0 0 0 0 0];

internalField   nonuniform List<scalar> 
999
(
1.13652e-09
1.1416e-09
1.17294e-09
1.17909e-09
1.18044e-09
1.18055e-09
1.17892e-09
1.17512e-09
1.17073e-09
1.16593e-09
1.16087e-09
1.15565e-09
1.15032e-09
1.14489e-09
1.13938e-09
1.13378e-09
1.12812e-09
1.12239e-09
1.11659e-09
1.11073e-09
1.10482e-09
1.09885e-09
1.09282e-09
1.08675e-09
1.08062e-09
1.07444e-09
1.0682e-09
1.06192e-09
1.05558e-09
1.0492e-09
1.04276e-09
1.03626e-09
1.02971e-09
1.0231e-09
1.01643e-09
1.0097e-09
1.0029e-09
9.96033e-10
9.89089e-10
9.82074e-10
9.74975e-10
9.67799e-10
9.60536e-10
9.53185e-10
9.45748e-10
9.38214e-10
9.30585e-10
9.22858e-10
9.15025e-10
9.07087e-10
8.99038e-10
8.90872e-10
8.82587e-10
8.74174e-10
8.65627e-10
8.5694e-10
8.48104e-10
8.3911e-10
8.2995e-10
8.20614e-10
8.1109e-10
8.01369e-10
7.91438e-10
7.81287e-10
7.70908e-10
7.60302e-10
7.49469e-10
7.38411e-10
7.27121e-10
7.15543e-10
7.03517e-10
6.90626e-10
6.75985e-10
6.579e-10
6.33597e-10
5.99314e-10
5.5177e-10
4.91369e-10
4.25287e-10
3.65244e-10
3.19986e-10
2.90811e-10
2.73965e-10
2.64896e-10
2.60197e-10
2.57807e-10
2.56599e-10
2.55982e-10
2.55658e-10
2.55482e-10
2.55384e-10
2.5533e-10
2.55305e-10
2.55298e-10
2.55296e-10
2.5531e-10
2.55372e-10
2.55445e-10
2.55537e-10
2.55647e-10
2.55775e-10
2.55918e-10
2.56074e-10
2.56239e-10
2.56409e-10
2.56579e-10
2.56746e-10
2.56905e-10
2.57052e-10
2.57183e-10
2.57297e-10
2.5739e-10
2.57464e-10
2.57518e-10
2.57553e-10
2.5757e-10
2.57575e-10
2.57575e-10
2.57568e-10
2.57538e-10
2.57494e-10
2.57445e-10
2.57393e-10
2.57338e-10
2.57282e-10
2.57227e-10
2.57173e-10
2.57122e-10
2.57074e-10
2.5703e-10
2.5699e-10
2.56954e-10
2.56923e-10
2.56895e-10
2.56872e-10
2.56854e-10
2.56839e-10
2.56828e-10
2.56819e-10
2.56813e-10
2.5681e-10
2.56808e-10
2.56807e-10
2.56807e-10
2.56808e-10
2.56811e-10
2.56815e-10
2.56818e-10
2.56822e-10
2.56825e-10
2.56829e-10
2.56832e-10
2.56835e-10
2.56838e-10
2.5684e-10
2.56842e-10
2.56844e-10
2.56844e-10
2.56845e-10
2.56845e-10
2.56845e-10
2.56846e-10
2.56846e-10
2.56846e-10
2.56845e-10
2.56845e-10
2.56844e-10
2.56844e-10
2.56844e-10
2.56844e-10
2.56845e-10
2.56846e-10
2.56847e-10
2.56849e-10
2.56851e-10
2.56854e-10
2.56857e-10
2.5686e-10
2.56864e-10
2.56868e-10
2.56872e-10
2.56877e-10
2.56882e-10
2.56887e-10
2.56893e-10
2.56899e-10
2.56905e-10
2.56911e-10
2.56918e-10
2.56925e-10
2.56933e-10
2.5694e-10
2.56948e-10
2.56956e-10
2.56964e-10
2.56972e-10
2.5698e-10
2.56989e-10
2.56997e-10
2.57006e-10
2.57014e-10
2.57023e-10
2.57031e-10
2.57039e-10
2.57047e-10
2.57054e-10
2.57061e-10
2.57067e-10
2.57072e-10
2.57077e-10
2.57081e-10
2.57084e-10
2.57086e-10
2.57087e-10
2.57087e-10
2.57086e-10
2.57085e-10
2.57082e-10
2.57077e-10
2.5707e-10
2.57062e-10
2.57052e-10
2.5704e-10
2.57028e-10
2.57013e-10
2.56997e-10
2.5698e-10
2.56961e-10
2.56941e-10
2.56919e-10
2.56897e-10
2.56872e-10
2.56847e-10
2.5682e-10
2.56793e-10
2.56764e-10
2.56733e-10
2.56702e-10
2.56671e-10
2.56639e-10
2.56606e-10
2.56573e-10
2.56539e-10
2.56505e-10
2.56471e-10
2.56437e-10
2.56403e-10
2.56369e-10
2.56334e-10
2.56301e-10
2.56267e-10
2.56234e-10
2.56201e-10
2.56169e-10
2.56136e-10
2.56104e-10
2.56073e-10
2.56041e-10
2.56009e-10
2.55977e-10
2.55944e-10
2.55911e-10
2.55878e-10
2.55844e-10
2.55808e-10
2.55771e-10
2.55732e-10
2.55691e-10
2.55648e-10
2.55603e-10
2.55555e-10
2.55504e-10
2.5545e-10
2.55393e-10
2.55333e-10
2.5527e-10
2.55203e-10
2.55133e-10
2.55061e-10
2.54986e-10
2.54908e-10
2.54829e-10
2.54749e-10
2.54669e-10
2.54589e-10
2.54512e-10
2.54437e-10
2.54368e-10
2.54306e-10
2.54254e-10
2.54216e-10
2.54193e-10
2.54186e-10
2.54185e-10
2.54188e-10
2.54209e-10
2.54299e-10
2.5442e-10
2.54577e-10
2.54767e-10
2.5499e-10
2.55239e-10
2.5551e-10
2.55793e-10
2.56081e-10
2.56365e-10
2.56636e-10
2.56889e-10
2.57116e-10
2.57317e-10
2.57488e-10
2.57629e-10
2.57741e-10
2.57826e-10
2.57886e-10
2.57922e-10
2.57938e-10
2.57942e-10
2.57943e-10
2.57936e-10
2.57898e-10
2.57844e-10
2.57806e-10
2.57735e-10
2.57659e-10
2.57629e-10
2.57703e-10
2.58068e-10
2.60642e-10
2.87267e-10
2.96492e-10
2.96722e-10
2.96726e-10
2.96727e-10
2.96727e-10
2.96727e-10
2.96727e-10
2.96727e-10
2.96727e-10
2.96727e-10
2.96727e-10
2.96727e-10
2.96727e-10
2.96727e-10
2.96727e-10
2.96727e-10
2.96727e-10
2.96727e-10
2.96727e-10
2.96727e-10
2.96727e-10
2.96727e-10
2.96727e-10
2.96727e-10
2.96727e-10
2.96727e-10
2.96727e-10
2.96727e-10
2.96727e-10
2.96727e-10
2.96727e-10
2.96727e-10
2.96727e-10
2.96727e-10
2.96727e-10
2.96727e-10
2.96727e-10
2.96727e-10
2.96727e-10
2.96727e-10
2.96727e-10
2.96727e-10
2.96727e-10
2.96727e-10
2.96727e-10
2.96727e-10
2.96727e-10
2.96727e-10
2.96727e-10
2.96727e-10
2.96727e-10
2.96727e-10
2.96727e-10
2.96727e-10
2.96727e-10
2.96727e-10
2.96727e-10
2.96727e-10
2.96727e-10
2.96727e-10
2.96727e-10
2.96727e-10
2.96727e-10
2.96727e-10
2.96727e-10
2.96727e-10
2.96727e-10
2.96727e-10
2.96727e-10
2.96727e-10
2.96727e-10
2.96727e-10
2.96727e-10
2.96727e-10
2.96727e-10
2.96727e-10
2.96727e-10
2.96727e-10
2.96727e-10
2.96727e-10
2.96727e-10
2.96727e-10
2.96727e-10
2.96727e-10
2.96727e-10
2.96727e-10
2.96727e-10
2.96727e-10
2.96727e-10
2.96727e-10
2.96727e-10
2.96727e-10
2.96727e-10
2.96727e-10
2.96727e-10
2.96727e-10
2.96727e-10
2.96727e-10
2.96727e-10
2.96727e-10
2.96727e-10
2.96727e-10
2.96727e-10
2.96727e-10
2.96727e-10
2.96727e-10
2.96727e-10
2.96727e-10
2.96727e-10
2.96727e-10
2.96727e-10
2.96727e-10
2.96727e-10
2.96727e-10
2.96727e-10
2.96727e-10
2.96727e-10
2.96727e-10
2.96727e-10
2.96727e-10
2.96727e-10
2.96727e-10
2.96727e-10
2.96727e-10
2.96727e-10
2.96727e-10
2.96727e-10
2.96727e-10
2.96727e-10
2.96727e-10
2.96727e-10
2.96727e-10
2.96727e-10
2.96727e-10
2.96727e-10
2.96727e-10
2.96727e-10
2.96727e-10
2.96727e-10
2.96727e-10
2.96727e-10
2.96727e-10
2.96727e-10
2.96727e-10
2.96727e-10
2.96727e-10
2.96727e-10
2.96727e-10
2.96727e-10
2.96727e-10
2.96727e-10
2.96727e-10
2.96727e-10
2.96727e-10
2.96727e-10
2.96727e-10
2.96727e-10
2.96727e-10
2.96727e-10
2.96727e-10
2.96727e-10
2.96727e-10
2.96727e-10
2.96727e-10
2.96727e-10
2.96727e-10
2.96727e-10
2.96727e-10
2.96727e-10
2.96727e-10
2.96727e-10
2.96727e-10
2.96727e-10
2.96727e-10
2.96727e-10
2.96727e-10
2.96727e-10
2.96727e-10
2.96727e-10
2.96727e-10
2.96727e-10
2.96727e-10
2.96727e-10
2.96727e-10
2.96727e-10
2.96727e-10
2.96727e-10
2.96727e-10
2.96727e-10
2.96727e-10
2.96727e-10
2.96727e-10
2.96727e-10
2.96727e-10
2.96727e-10
2.96727e-10
2.96727e-10
2.96727e-10
2.96727e-10
2.96727e-10
2.96727e-10
2.96727e-10
2.96727e-10
2.96727e-10
2.96727e-10
2.96727e-10
2.96727e-10
2.96727e-10
2.96727e-10
2.96727e-10
2.96727e-10
2.96727e-10
2.96727e-10
2.96727e-10
2.96727e-10
2.96727e-10
2.96727e-10
2.96727e-10
2.96727e-10
2.96727e-10
2.96727e-10
2.96727e-10
2.96727e-10
2.96727e-10
2.96727e-10
2.96727e-10
2.96727e-10
2.96727e-10
2.96727e-10
2.96727e-10
2.96727e-10
2.96727e-10
2.96727e-10
2.96727e-10
2.96727e-10
2.96727e-10
2.96727e-10
2.96727e-10
2.96727e-10
2.96727e-10
2.96727e-10
2.96727e-10
2.96727e-10
2.96727e-10
2.96727e-10
2.96727e-10
2.96727e-10
2.96727e-10
2.96727e-10
2.96727e-10
2.96727e-10
2.96727e-10
2.96727e-10
2.96727e-10
2.96727e-10
2.96727e-10
2.96727e-10
2.96727e-10
2.96727e-10
2.96727e-10
2.96727e-10
2.96727e-10
2.96727e-10
2.96727e-10
2.96727e-10
2.96727e-10
2.96727e-10
2.96727e-10
2.96727e-10
2.96727e-10
2.96727e-10
2.96727e-10
2.96727e-10
2.96727e-10
2.96727e-10
2.96727e-10
2.96727e-10
2.96727e-10
2.96727e-10
2.96727e-10
2.96727e-10
2.96727e-10
2.96727e-10
2.96727e-10
2.96727e-10
2.96727e-10
2.96727e-10
2.96727e-10
2.96727e-10
2.96727e-10
2.96727e-10
2.96727e-10
2.96727e-10
2.96727e-10
2.96727e-10
2.96727e-10
2.96727e-10
2.96727e-10
2.96727e-10
2.96727e-10
2.96727e-10
2.96727e-10
2.96727e-10
2.96727e-10
2.96727e-10
2.96727e-10
2.96727e-10
2.96727e-10
2.96727e-10
2.96727e-10
2.96727e-10
2.96727e-10
2.96727e-10
2.96727e-10
2.96727e-10
2.96727e-10
2.96727e-10
2.96727e-10
2.96727e-10
2.96727e-10
2.96727e-10
2.96727e-10
2.96727e-10
2.96727e-10
2.96727e-10
2.96727e-10
2.96727e-10
2.96727e-10
2.96727e-10
2.96727e-10
2.96727e-10
2.96727e-10
2.96727e-10
2.96727e-10
2.96727e-10
2.96727e-10
2.96727e-10
2.96727e-10
2.96727e-10
2.96727e-10
2.96727e-10
2.96727e-10
2.96727e-10
2.96727e-10
2.96727e-10
2.96727e-10
2.96727e-10
2.96727e-10
2.96727e-10
2.96727e-10
2.96727e-10
2.96727e-10
2.96727e-10
2.96727e-10
2.96727e-10
2.96727e-10
2.96727e-10
2.96727e-10
2.96727e-10
2.96727e-10
2.96727e-10
2.96727e-10
2.96727e-10
2.96727e-10
2.96727e-10
2.96727e-10
2.96727e-10
2.96727e-10
2.96727e-10
2.96727e-10
2.96727e-10
2.96727e-10
2.96727e-10
2.96727e-10
2.96727e-10
2.96727e-10
2.96727e-10
2.96727e-10
2.96727e-10
2.96727e-10
2.96727e-10
2.96727e-10
2.96727e-10
2.96727e-10
2.96727e-10
2.96727e-10
2.96727e-10
2.96727e-10
2.96727e-10
2.96727e-10
2.96727e-10
2.96727e-10
2.96727e-10
2.96727e-10
2.96727e-10
2.96727e-10
2.96727e-10
2.96727e-10
2.96727e-10
2.96727e-10
2.96727e-10
2.96727e-10
2.96727e-10
2.96727e-10
2.96727e-10
2.96727e-10
2.96727e-10
2.96727e-10
2.96727e-10
2.96727e-10
2.96727e-10
2.96727e-10
2.96727e-10
2.96727e-10
2.96727e-10
2.96727e-10
2.96727e-10
2.96727e-10
2.96727e-10
2.96727e-10
2.96727e-10
2.96727e-10
2.96727e-10
2.96727e-10
2.96727e-10
2.96727e-10
2.96727e-10
2.96727e-10
2.96727e-10
2.96727e-10
2.96727e-10
2.96727e-10
2.96727e-10
2.96727e-10
2.96727e-10
2.96727e-10
2.96727e-10
2.96727e-10
2.96727e-10
2.96727e-10
2.96727e-10
2.96727e-10
2.96727e-10
2.96727e-10
2.96727e-10
2.96727e-10
2.96727e-10
2.96727e-10
2.96727e-10
2.96727e-10
2.96727e-10
2.96727e-10
2.96727e-10
2.96727e-10
2.96727e-10
2.96727e-10
2.96727e-10
2.96727e-10
2.96727e-10
2.96727e-10
2.96727e-10
2.96727e-10
2.96727e-10
2.96727e-10
2.96727e-10
2.96727e-10
2.96727e-10
2.96727e-10
2.96727e-10
2.96727e-10
2.96727e-10
2.96727e-10
2.96727e-10
2.96727e-10
2.96727e-10
2.96727e-10
2.96727e-10
2.96727e-10
2.96727e-10
2.96727e-10
2.96727e-10
2.96727e-10
2.96727e-10
2.96727e-10
2.96727e-10
2.96727e-10
2.96727e-10
2.96727e-10
2.96727e-10
2.96727e-10
2.96727e-10
2.96727e-10
2.96727e-10
2.96727e-10
2.96727e-10
2.96727e-10
2.96727e-10
2.96727e-10
2.96727e-10
2.96727e-10
2.96727e-10
2.96727e-10
2.96727e-10
2.96727e-10
2.96727e-10
2.96727e-10
2.96727e-10
2.96727e-10
2.96727e-10
2.96727e-10
2.96727e-10
2.96727e-10
2.96727e-10
2.96727e-10
2.96727e-10
2.96727e-10
2.96727e-10
2.96727e-10
2.96727e-10
2.96727e-10
2.96727e-10
2.96727e-10
2.96727e-10
2.96727e-10
2.96727e-10
2.96727e-10
2.96727e-10
2.96727e-10
2.96727e-10
2.96727e-10
2.96727e-10
2.96727e-10
2.96727e-10
2.96727e-10
2.96727e-10
2.96727e-10
2.96727e-10
2.96727e-10
2.96727e-10
2.96727e-10
2.96727e-10
2.96727e-10
2.96727e-10
2.96727e-10
2.96727e-10
2.96727e-10
2.96727e-10
2.96727e-10
2.96727e-10
2.96727e-10
2.96727e-10
2.96727e-10
2.96727e-10
2.96727e-10
2.96727e-10
2.96727e-10
2.96727e-10
2.96727e-10
2.96727e-10
2.96727e-10
2.96727e-10
2.96727e-10
2.96727e-10
2.96727e-10
2.96727e-10
2.96727e-10
2.96727e-10
2.96727e-10
2.96727e-10
2.96727e-10
2.96727e-10
2.96727e-10
2.96727e-10
2.96727e-10
2.96727e-10
2.96727e-10
2.96727e-10
2.96727e-10
2.96727e-10
2.96727e-10
2.96727e-10
2.96727e-10
2.96727e-10
2.96727e-10
2.96727e-10
2.96727e-10
2.96727e-10
2.96727e-10
2.96727e-10
2.96727e-10
2.96727e-10
2.96727e-10
2.96727e-10
2.96727e-10
2.96727e-10
2.96727e-10
2.96727e-10
2.96727e-10
2.96727e-10
2.96727e-10
2.96727e-10
2.96727e-10
2.96727e-10
2.96727e-10
2.96727e-10
2.96727e-10
2.96727e-10
2.96727e-10
2.96727e-10
2.96727e-10
2.96727e-10
2.96727e-10
2.96727e-10
2.96727e-10
2.96727e-10
2.96727e-10
2.96727e-10
2.96727e-10
2.96727e-10
2.96727e-10
2.96727e-10
2.96727e-10
2.96727e-10
2.96727e-10
2.96727e-10
2.96727e-10
2.96727e-10
2.96727e-10
2.96727e-10
2.96727e-10
2.96727e-10
2.96727e-10
2.96727e-10
2.96727e-10
2.96727e-10
2.96727e-10
2.96727e-10
2.96727e-10
2.96727e-10
2.96727e-10
2.96727e-10
2.96727e-10
2.96727e-10
2.96727e-10
2.96727e-10
2.96727e-10
2.96727e-10
2.96727e-10
2.96727e-10
2.96727e-10
2.96727e-10
2.96727e-10
2.96727e-10
2.96727e-10
2.96727e-10
2.96727e-10
2.96727e-10
2.96727e-10
2.96727e-10
2.96727e-10
2.96727e-10
2.96727e-10
2.96727e-10
2.96727e-10
2.96727e-10
2.96727e-10
2.96727e-10
2.96727e-10
2.96727e-10
)
;

boundaryField
{
    inlet
    {
        type            calculated;
        value           uniform -1.13622e-09;
    }
    outlet
    {
        type            calculated;
        value           uniform 2.96727e-10;
    }
    emptyWalls
    {
        type            empty;
        value           nonuniform List<scalar> 0();
    }
}


// ************************************************************************* //
