/*--------------------------------*- C++ -*----------------------------------*\
  =========                 |
  \\      /  F ield         | OpenFOAM: The Open Source CFD Toolbox
   \\    /   O peration     | Website:  https://openfoam.org
    \\  /    A nd           | Version:  9
     \\/     M anipulation  |
\*---------------------------------------------------------------------------*/
FoamFile
{
    format      ascii;
    class       volScalarField;
    location    "1950";
    object      Sa;
}
// * * * * * * * * * * * * * * * * * * * * * * * * * * * * * * * * * * * * * //

dimensions      [0 0 0 0 0 0 0];

internalField   nonuniform List<scalar> 
1000
(
0.538305
0.49217
0.279877
0.0679728
0.0375808
0.0289595
0.0249156
0.0238405
0.0234305
0.0230323
0.0226562
0.0223024
0.0219693
0.0216551
0.0213586
0.0210783
0.0208129
0.0205612
0.0203218
0.0200938
0.0198761
0.0196678
0.019468
0.019276
0.0190911
0.018913
0.0187407
0.0185745
0.0184129
0.0182568
0.0181045
0.017957
0.017813
0.0176728
0.0175366
0.0174029
0.0172738
0.0171464
0.0170236
0.0169026
0.0167851
0.0166704
0.0165579
0.0164485
0.0163411
0.0162362
0.0161337
0.0160329
0.0159344
0.0158376
0.0157425
0.0156491
0.0155571
0.0154665
0.0153771
0.015289
0.0152019
0.015116
0.015031
0.014947
0.0148638
0.0147816
0.0147002
0.0146198
0.0145401
0.0144617
0.0143842
0.0143083
0.0142338
0.014161
0.0140893
0.0140173
0.0139421
0.0138566
0.0137519
0.0136115
0.0134304
0.0132091
0.0129949
0.0128236
0.0127275
0.0126801
0.0126673
0.0126683
0.0126737
0.0126832
0.0126938
0.0127041
0.0127143
0.0127236
0.0127317
0.0127374
0.0127405
0.0127412
0.012741
0.0127393
0.0127332
0.0127213
0.0127066
0.0126886
0.0126673
0.012643
0.012616
0.0125872
0.0125569
0.0125262
0.0124956
0.0124662
0.0124385
0.0124133
0.012391
0.0123722
0.0123569
0.0123454
0.0123374
0.0123329
0.0123312
0.0123311
0.0123315
0.0123341
0.0123413
0.0123498
0.0123591
0.0123689
0.0123789
0.0123889
0.0123988
0.0124083
0.0124173
0.0124256
0.0124333
0.0124402
0.0124462
0.0124515
0.012456
0.0124597
0.0124627
0.0124651
0.0124669
0.0124682
0.012469
0.0124695
0.0124696
0.0124696
0.0124696
0.0124694
0.0124688
0.0124681
0.0124674
0.0124667
0.0124661
0.0124655
0.0124649
0.0124644
0.012464
0.0124636
0.0124633
0.0124631
0.0124629
0.0124628
0.0124627
0.0124627
0.0124627
0.0124627
0.0124627
0.0124627
0.0124627
0.0124627
0.0124627
0.0124627
0.0124625
0.0124622
0.0124619
0.0124615
0.012461
0.0124605
0.0124598
0.0124591
0.0124584
0.0124575
0.0124566
0.0124556
0.0124546
0.0124535
0.0124524
0.0124512
0.0124499
0.0124486
0.0124472
0.0124458
0.0124444
0.0124428
0.0124413
0.0124397
0.0124381
0.0124365
0.0124348
0.0124331
0.0124314
0.0124298
0.0124281
0.0124264
0.0124248
0.0124232
0.0124217
0.0124202
0.0124188
0.0124175
0.0124164
0.0124153
0.0124144
0.0124137
0.0124132
0.0124129
0.0124128
0.0124128
0.0124128
0.012413
0.0124138
0.0124148
0.0124162
0.0124177
0.0124196
0.0124217
0.0124242
0.0124268
0.0124299
0.012433
0.0124366
0.0124403
0.0124444
0.0124485
0.0124531
0.0124577
0.0124627
0.0124678
0.0124731
0.0124785
0.0124842
0.0124899
0.0124959
0.0125018
0.0125079
0.012514
0.0125202
0.0125263
0.0125326
0.0125387
0.0125449
0.012551
0.0125571
0.0125631
0.0125691
0.012575
0.0125809
0.0125866
0.0125925
0.0125981
0.012604
0.0126097
0.0126155
0.0126214
0.0126274
0.0126335
0.0126399
0.0126464
0.0126533
0.0126604
0.012668
0.0126759
0.0126843
0.0126931
0.0127026
0.0127124
0.012723
0.012734
0.0127457
0.0127578
0.0127706
0.0127837
0.0127974
0.0128113
0.0128255
0.0128398
0.0128541
0.0128681
0.0128817
0.0128945
0.0129062
0.0129164
0.0129245
0.0129299
0.0129325
0.0129328
0.0129325
0.0129301
0.0129219
0.012903
0.0128783
0.0128475
0.0128106
0.0127684
0.0127217
0.0126719
0.0126205
0.012569
0.0125188
0.0124715
0.0124279
0.0123891
0.0123554
0.0123271
0.0123041
0.0122864
0.0122732
0.0122646
0.0122599
0.0122584
0.0122583
0.012259
0.0122616
0.0122736
0.0122784
0.0122879
0.0123036
0.0123148
0.012303
0.0122712
0.0116136
0.00844505
0.00111648
1.07365e-05
3.1842e-10
7.06452e-20
1.12273e-40
1.81701e-84
3.34723e-178
0
0
0
0
0
0
0
0
0
0
0
0
0
0
0
0
0
0
0
0
0
0
0
0
0
0
0
0
0
0
0
0
0
0
0
0
0
0
0
0
0
0
0
0
0
0
0
0
0
0
0
0
0
0
0
0
0
0
0
0
0
0
0
0
0
0
0
0
0
0
0
0
0
0
0
0
0
0
0
0
0
0
0
0
0
0
0
0
0
0
0
0
0
0
0
0
0
0
0
0
0
0
0
0
0
0
0
0
0
0
0
0
0
0
0
0
0
0
0
0
0
0
0
0
0
0
0
0
0
0
0
0
0
0
0
0
0
0
0
0
0
0
0
0
0
0
0
0
0
0
0
0
0
0
0
0
0
0
0
0
0
0
0
0
0
0
0
0
0
0
0
0
0
0
0
0
0
0
0
0
0
0
0
0
0
0
0
0
0
0
0
0
0
0
0
0
0
0
0
0
0
0
0
0
0
0
0
0
0
0
0
0
0
0
0
0
0
0
0
0
0
0
0
0
0
0
0
0
0
0
0
0
0
0
0
0
0
0
0
0
0
0
0
0
0
0
0
0
0
0
0
0
0
0
0
0
0
0
0
0
0
0
0
0
0
0
0
0
0
0
0
0
0
0
0
0
0
0
0
0
0
0
0
0
0
0
0
0
0
0
0
0
0
0
0
0
0
0
0
0
0
0
0
0
0
0
0
0
0
0
0
0
0
0
0
0
0
0
0
0
0
0
0
0
0
0
0
0
0
0
0
0
0
0
0
0
0
0
0
0
0
0
0
0
0
0
0
0
0
0
0
0
0
0
0
0
0
0
0
0
0
0
0
0
0
0
0
0
0
0
0
0
0
0
0
0
0
0
0
0
0
0
0
0
0
0
0
0
0
0
0
0
0
0
0
0
0
0
0
0
0
0
0
0
0
0
0
0
0
0
0
0
0
0
0
0
0
0
0
0
0
0
0
0
0
0
0
0
0
0
0
0
0
0
0
0
0
0
0
0
0
0
0
0
0
0
0
0
0
0
0
0
0
0
0
0
0
0
0
0
0
0
0
0
0
0
0
0
0
0
0
0
0
0
0
0
0
0
0
0
0
0
0
0
0
0
0
0
0
0
0
0
0
0
0
0
0
0
0
0
0
0
0
0
0
0
0
0
0
0
0
0
0
0
0
0
0
0
0
0
0
0
0
0
0
0
0
0
0
0
0
0
0
0
0
0
0
0
0
0
0
0
0
0
0
0
0
0
0
0
0
0
0
0
0
0
0
0
0
0
0
0
0
0
0
0
0
0
0
0
0
0
0
0
0
0
0
0
0
0
0
0
0
0
0
0
0
0
0
0
0
0
0
0
0
0
0
0
0
0
0
0
0
0
0
0
0
0
0
0
0
0
0
0
0
0
0
0
0
0
0
0
0
0
0
0
0
0
0
0
0
0
0
0
0
0
0
0
0
0
0
0
0
0
0
0
0
0
0
0
0
0
0
0
0
0
0
0
0
0
0
0
0
)
;

boundaryField
{
    inlet
    {
        type            fixedValue;
        value           uniform 0.55;
    }
    outlet
    {
        type            zeroGradient;
    }
    emptyWalls
    {
        type            empty;
    }
}


// ************************************************************************* //
