/*--------------------------------*- C++ -*----------------------------------*\
  =========                 |
  \\      /  F ield         | OpenFOAM: The Open Source CFD Toolbox
   \\    /   O peration     | Website:  https://openfoam.org
    \\  /    A nd           | Version:  9
     \\/     M anipulation  |
\*---------------------------------------------------------------------------*/
FoamFile
{
    format      ascii;
    class       volScalarField;
    location    "4600";
    object      kra;
}
// * * * * * * * * * * * * * * * * * * * * * * * * * * * * * * * * * * * * * //

dimensions      [0 0 0 0 0 0 0];

internalField   nonuniform List<scalar> 
1000
(
0.000239074
0.00024548
0.00025128
0.00025773
0.000272432
0.00032623
0.000640793
0.000872533
0.000912061
0.000923704
0.000928031
0.00092906
0.000928863
0.000927769
0.000926618
0.000921776
0.000914185
0.00090419
0.000892094
0.000879462
0.000866713
0.000854035
0.000841609
0.000829652
0.000818351
0.000807807
0.000798006
0.000788863
0.000780249
0.00077204
0.000764124
0.000756411
0.000748825
0.000741297
0.000733758
0.000726139
0.000718375
0.000710415
0.000702226
0.000693808
0.000685195
0.00067645
0.000667665
0.000658947
0.000650412
0.000642163
0.00063429
0.000626856
0.000619892
0.000613403
0.000607369
0.000601749
0.00059649
0.000591534
0.00058682
0.000582293
0.000577905
0.000573614
0.00056939
0.000565211
0.000561063
0.00055694
0.000552838
0.00054876
0.00054471
0.000540693
0.000536714
0.000532779
0.00052889
0.000525053
0.000521268
0.000517537
0.000513861
0.00051024
0.000506674
0.000503162
0.000499702
0.000496295
0.000492937
0.000489628
0.000486366
0.000483149
0.000479975
0.000476845
0.000473755
0.000470707
0.000467698
0.000464728
0.000461797
0.000458903
0.000456047
0.000453226
0.000450441
0.000447691
0.000444975
0.000442293
0.000439644
0.000437028
0.000434445
0.000431895
0.000429377
0.000426891
0.000424438
0.000422017
0.000419628
0.000417269
0.000414942
0.000412645
0.000410377
0.000408138
0.000405927
0.000403744
0.000401587
0.000399456
0.000397349
0.000395266
0.000393207
0.00039117
0.000389156
0.000387161
0.000385189
0.000383234
0.0003813
0.000379381
0.000377483
0.000375597
0.000373734
0.000371878
0.000370048
0.000368219
0.000366419
0.000364617
0.000362843
0.000361069
0.000359318
0.000357572
0.000355842
0.000354124
0.000352416
0.000350723
0.000349039
0.000347369
0.000345711
0.000344065
0.000342432
0.00034081
0.000339202
0.000337605
0.000336021
0.000334449
0.000332889
0.000331342
0.000329805
0.00032828
0.000326765
0.00032526
0.000323767
0.000322282
0.000320809
0.000319344
0.00031789
0.000316445
0.000315013
0.000313589
0.00031218
0.000310783
0.000309404
0.000308044
0.000306709
0.000305404
0.000304134
0.000302909
0.000301733
0.000300616
0.000299545
0.000298533
0.000297507
0.000296458
0.000295175
0.000293558
0.000291096
0.000287526
0.000282113
0.000275002
0.000266701
0.000259041
0.00025345
0.000250159
0.000248666
0.000247953
0.000247842
0.00024787
0.000247996
0.000248191
0.000248417
0.000248662
0.000248911
0.000249166
0.000249415
0.00024966
0.000249891
0.00025011
0.000250312
0.000250496
0.000250651
0.000250774
0.000250855
0.000250894
0.0002509
0.0002509
0.000250885
0.000250779
0.00025062
0.000250423
0.000250192
0.000249928
0.000249635
0.000249317
0.000248979
0.000248627
0.000248268
0.000247906
0.00024755
0.000247204
0.000246874
0.000246563
0.000246276
0.000246014
0.000245781
0.000245577
0.000245403
0.000245259
0.000245144
0.000245055
0.000244991
0.000244949
0.000244927
0.00024492
0.00024492
0.000244923
0.000244943
0.000244982
0.000245025
0.000245069
0.000245113
0.000245156
0.000245197
0.000245235
0.000245268
0.000245297
0.000245321
0.000245341
0.000245354
0.000245363
0.000245366
0.000245367
0.000245367
0.000245365
0.000245353
0.000245337
0.000245318
0.000245297
0.000245274
0.000245249
0.000245223
0.000245196
0.000245168
0.000245139
0.000245109
0.000245079
0.000245049
0.000245019
0.000244989
0.000244959
0.000244929
0.000244899
0.000244869
0.000244839
0.00024481
0.000244781
0.000244752
0.000244723
0.000244695
0.000244666
0.000244638
0.00024461
0.000244582
0.000244554
0.000244527
0.000244499
0.000244471
0.000244444
0.000244416
0.000244388
0.000244361
0.000244333
0.000244305
0.000244277
0.00024425
0.000244222
0.000244194
0.000244166
0.000244139
0.000244112
0.000244084
0.000244058
0.000244031
0.000244005
0.00024398
0.000243954
0.00024393
0.000243906
0.000243884
0.000243862
0.000243841
0.000243821
0.000243802
0.000243784
0.000243768
0.000243753
0.000243739
0.000243727
0.000243716
0.000243706
0.000243698
0.000243691
0.000243686
0.000243683
0.00024368
0.00024368
0.00024368
0.00024368
0.000243681
0.000243685
0.000243691
0.000243697
0.000243705
0.000243713
0.000243722
0.000243732
0.000243743
0.000243754
0.000243766
0.000243777
0.000243789
0.000243801
0.000243814
0.000243825
0.000243838
0.000243849
0.000243861
0.000243871
0.000243882
0.000243892
0.000243903
0.000243912
0.000243922
0.000243931
0.000243941
0.00024395
0.00024396
0.00024397
0.000243982
0.000243993
0.000244007
0.000244022
0.000244039
0.000244057
0.000244078
0.000244101
0.000244127
0.000244155
0.000244186
0.00024422
0.000244258
0.000244298
0.000244343
0.00024439
0.000244441
0.000244494
0.000244553
0.000244614
0.000244679
0.000244748
0.000244821
0.000244898
0.000244981
0.000245067
0.000245159
0.000245256
0.000245359
0.000245468
0.000245584
0.000245706
0.000245837
0.000245973
0.000246119
0.000246271
0.000246432
0.0002466
0.000246776
0.000246958
0.000247147
0.000247342
0.000247542
0.000247745
0.000247952
0.000248159
0.000248366
0.00024857
0.000248771
0.000248965
0.000249151
0.000249325
0.000249488
0.000249633
0.000249762
0.000249869
0.000249954
0.000250013
0.000250046
0.000250054
0.000250055
0.000250049
0.000250005
0.000249898
0.00024976
0.000249593
0.0002494
0.000249183
0.000248945
0.000248689
0.00024842
0.000248141
0.000247856
0.000247569
0.000247284
0.000247005
0.000246736
0.000246479
0.000246237
0.000246011
0.000245804
0.000245617
0.00024545
0.000245303
0.000245177
0.00024507
0.000244982
0.000244911
0.000244856
0.000244816
0.000244789
0.000244774
0.000244768
0.000244768
0.000244768
0.000244778
0.0002448
0.000244825
0.000244852
0.000244879
0.000244905
0.000244931
0.000244955
0.000244976
0.000244995
0.000245011
0.000245025
0.000245035
0.000245043
0.000245047
0.000245049
0.000245049
0.000245049
0.000245048
0.000245041
0.000245032
0.000245021
0.00024501
0.000244997
0.000244984
0.00024497
0.000244956
0.000244942
0.000244928
0.000244914
0.000244901
0.000244887
0.000244875
0.000244862
0.00024485
0.000244839
0.000244828
0.000244818
0.000244808
0.000244799
0.00024479
0.000244782
0.000244774
0.000244767
0.00024476
0.000244753
0.000244746
0.000244739
0.000244732
0.000244726
0.000244719
0.000244712
0.000244704
0.000244697
0.000244688
0.00024468
0.00024467
0.00024466
0.00024465
0.000244638
0.000244626
0.000244613
0.000244599
0.000244584
0.000244568
0.000244551
0.000244533
0.000244514
0.000244495
0.000244474
0.000244453
0.00024443
0.000244407
0.000244383
0.000244359
0.000244334
0.000244309
0.000244283
0.000244257
0.000244231
0.000244205
0.000244179
0.000244153
0.000244127
0.000244103
0.000244078
0.000244055
0.000244033
0.000244011
0.000243991
0.000243972
0.000243954
0.000243938
0.000243924
0.000243911
0.0002439
0.000243891
0.000243884
0.000243879
0.000243875
0.000243874
0.000243874
0.000243874
0.000243875
0.000243882
0.00024389
0.000243901
0.000243913
0.000243927
0.000243943
0.00024396
0.000243978
0.000243999
0.00024402
0.000244043
0.000244066
0.000244091
0.000244115
0.000244142
0.000244168
0.000244196
0.000244223
0.000244251
0.000244279
0.000244308
0.000244336
0.000244365
0.000244394
0.000244424
0.000244453
0.000244484
0.000244515
0.000244547
0.000244579
0.000244614
0.000244649
0.000244687
0.000244726
0.000244769
0.000244814
0.000244863
0.000244915
0.000244972
0.000245033
0.000245101
0.000245173
0.000245253
0.000245338
0.000245432
0.000245531
0.00024564
0.000245755
0.00024588
0.000246011
0.000246152
0.0002463
0.000246456
0.000246619
0.00024679
0.000246967
0.00024715
0.000247338
0.00024753
0.000247724
0.000247921
0.000248118
0.000248315
0.000248508
0.000248698
0.000248881
0.000249058
0.000249224
0.00024938
0.000249522
0.000249649
0.000249759
0.00024985
0.00024992
0.000249968
0.00024999
0.000249996
0.000249995
0.000249987
0.000249939
0.000249839
0.000249714
0.000249565
0.000249393
0.0002492
0.000248988
0.000248759
0.000248517
0.000248264
0.000248004
0.00024774
0.000247475
0.000247212
0.000246953
0.000246703
0.000246462
0.000246233
0.000246017
0.000245816
0.000245631
0.000245463
0.00024531
0.000245175
0.000245056
0.000244954
0.000244866
0.000244793
0.000244733
0.000244685
0.000244648
0.000244622
0.000244604
0.000244595
0.000244591
0.000244591
0.000244592
0.000244597
0.000244612
0.000244628
0.000244645
0.000244663
0.000244679
0.000244695
0.00024471
0.000244722
0.000244733
0.000244742
0.000244748
0.000244752
0.000244753
0.000244753
0.000244753
0.000244751
0.000244744
0.000244733
0.000244721
0.000244707
0.00024469
0.000244673
0.000244653
0.000244633
0.000244611
0.000244588
0.000244565
0.000244541
0.000244516
0.000244491
0.000244466
0.00024444
0.000244414
0.000244389
0.000244364
0.000244339
0.000244314
0.00024429
0.000244266
0.000244243
0.000244221
0.0002442
0.000244179
0.00024416
0.000244141
0.000244124
0.000244107
0.000244093
0.000244079
0.000244066
0.000244055
0.000244046
0.000244037
0.00024403
0.000244025
0.000244021
0.000244019
0.000244019
0.000244019
0.000244019
0.00024402
0.000244025
0.00024403
0.000244038
0.000244044
0.00024406
0.000244067
0.000244078
0.000244092
0.000244111
0.000244116
0.000244132
0.000244154
0.000244166
0.000244157
0.000244109
0.000243442
0.000240574
0.000226521
2.50205e-05
5.4329e-08
4.12965e-14
2.50839e-27
2.20979e-55
5.23192e-115
1.50601e-241
0
0
0
0
0
0
0
0
0
0
0
0
0
0
0
0
0
0
0
0
0
0
0
0
0
0
0
0
0
0
0
0
0
0
0
0
0
0
0
0
0
0
0
0
0
0
0
0
0
0
0
0
0
0
0
0
0
0
0
0
0
0
0
0
0
0
0
0
0
0
0
0
0
0
0
0
0
0
0
0
0
0
0
0
0
0
0
0
0
0
0
0
0
0
0
0
0
0
0
0
0
0
0
0
0
0
0
0
0
0
0
0
0
0
0
0
0
0
0
0
0
0
0
0
0
0
0
0
0
0
0
0
0
0
0
0
0
0
0
0
0
0
0
0
0
0
0
0
0
0
0
0
0
0
0
0
0
0
0
0
0
0
0
0
0
0
0
0
0
0
0
0
0
0
0
0
0
0
0
0
0
0
0
0
0
0
0
0
0
0
0
0
0
0
0
0
0
0
0
0
0
0
0
0
0
0
0
0
0
0
0
0
0
0
0
0
0
0
0
0
0
0
0
0
0
0
0
0
0
0
0
0
0
0
0
0
)
;

boundaryField
{
    inlet
    {
        type            calculated;
        value           uniform 0.000236304;
    }
    outlet
    {
        type            calculated;
        value           uniform 0;
    }
    emptyWalls
    {
        type            empty;
    }
}


// ************************************************************************* //
