/*--------------------------------*- C++ -*----------------------------------*\
  =========                 |
  \\      /  F ield         | OpenFOAM: The Open Source CFD Toolbox
   \\    /   O peration     | Website:  https://openfoam.org
    \\  /    A nd           | Version:  9
     \\/     M anipulation  |
\*---------------------------------------------------------------------------*/
FoamFile
{
    format      ascii;
    class       volVectorField;
    location    "4600";
    object      Ub;
}
// * * * * * * * * * * * * * * * * * * * * * * * * * * * * * * * * * * * * * //

dimensions      [0 0 0 0 0 0 0];

internalField   nonuniform List<vector> 
1000
(
(1.13622e-05 0 0)
(1.13632e-05 0 0)
(1.13651e-05 0 0)
(1.13675e-05 0 0)
(1.13778e-05 0 0)
(1.14323e-05 0 0)
(1.16054e-05 0 0)
(1.1755e-05 0 0)
(1.17834e-05 0 0)
(1.17928e-05 0 0)
(1.17974e-05 0 0)
(1.17999e-05 0 0)
(1.1801e-05 0 0)
(1.18011e-05 0 0)
(1.18001e-05 0 0)
(1.17968e-05 0 0)
(1.17892e-05 0 0)
(1.17761e-05 0 0)
(1.17591e-05 0 0)
(1.17402e-05 0 0)
(1.17202e-05 0 0)
(1.16996e-05 0 0)
(1.16785e-05 0 0)
(1.16568e-05 0 0)
(1.16342e-05 0 0)
(1.16106e-05 0 0)
(1.15859e-05 0 0)
(1.15604e-05 0 0)
(1.15342e-05 0 0)
(1.15076e-05 0 0)
(1.14808e-05 0 0)
(1.1454e-05 0 0)
(1.14274e-05 0 0)
(1.14012e-05 0 0)
(1.13754e-05 0 0)
(1.13503e-05 0 0)
(1.13259e-05 0 0)
(1.13025e-05 0 0)
(1.12801e-05 0 0)
(1.12586e-05 0 0)
(1.12381e-05 0 0)
(1.12184e-05 0 0)
(1.11992e-05 0 0)
(1.11802e-05 0 0)
(1.11612e-05 0 0)
(1.11419e-05 0 0)
(1.11219e-05 0 0)
(1.11011e-05 0 0)
(1.10794e-05 0 0)
(1.10568e-05 0 0)
(1.10332e-05 0 0)
(1.10087e-05 0 0)
(1.09835e-05 0 0)
(1.09576e-05 0 0)
(1.09312e-05 0 0)
(1.09045e-05 0 0)
(1.08776e-05 0 0)
(1.08506e-05 0 0)
(1.08235e-05 0 0)
(1.07965e-05 0 0)
(1.07695e-05 0 0)
(1.07425e-05 0 0)
(1.07157e-05 0 0)
(1.06889e-05 0 0)
(1.06621e-05 0 0)
(1.06354e-05 0 0)
(1.06086e-05 0 0)
(1.05819e-05 0 0)
(1.05551e-05 0 0)
(1.05283e-05 0 0)
(1.05014e-05 0 0)
(1.04744e-05 0 0)
(1.04473e-05 0 0)
(1.04201e-05 0 0)
(1.03929e-05 0 0)
(1.03655e-05 0 0)
(1.03381e-05 0 0)
(1.03105e-05 0 0)
(1.02828e-05 0 0)
(1.02551e-05 0 0)
(1.02272e-05 0 0)
(1.01992e-05 0 0)
(1.01711e-05 0 0)
(1.01429e-05 0 0)
(1.01146e-05 0 0)
(1.00862e-05 0 0)
(1.00577e-05 0 0)
(1.0029e-05 0 0)
(1.00003e-05 0 0)
(9.97139e-06 0 0)
(9.94239e-06 0 0)
(9.91327e-06 0 0)
(9.88401e-06 0 0)
(9.85463e-06 0 0)
(9.82512e-06 0 0)
(9.79547e-06 0 0)
(9.76568e-06 0 0)
(9.73576e-06 0 0)
(9.70568e-06 0 0)
(9.67546e-06 0 0)
(9.64509e-06 0 0)
(9.61456e-06 0 0)
(9.58387e-06 0 0)
(9.55302e-06 0 0)
(9.522e-06 0 0)
(9.4908e-06 0 0)
(9.45944e-06 0 0)
(9.42789e-06 0 0)
(9.39617e-06 0 0)
(9.36427e-06 0 0)
(9.33218e-06 0 0)
(9.29991e-06 0 0)
(9.26745e-06 0 0)
(9.2348e-06 0 0)
(9.20195e-06 0 0)
(9.16892e-06 0 0)
(9.13569e-06 0 0)
(9.10226e-06 0 0)
(9.06862e-06 0 0)
(9.03479e-06 0 0)
(9.00075e-06 0 0)
(8.9665e-06 0 0)
(8.93203e-06 0 0)
(8.89734e-06 0 0)
(8.86243e-06 0 0)
(8.8273e-06 0 0)
(8.79194e-06 0 0)
(8.75634e-06 0 0)
(8.72051e-06 0 0)
(8.68443e-06 0 0)
(8.6481e-06 0 0)
(8.61152e-06 0 0)
(8.57468e-06 0 0)
(8.53758e-06 0 0)
(8.5002e-06 0 0)
(8.46254e-06 0 0)
(8.42459e-06 0 0)
(8.38634e-06 0 0)
(8.34779e-06 0 0)
(8.30891e-06 0 0)
(8.26972e-06 0 0)
(8.23018e-06 0 0)
(8.19029e-06 0 0)
(8.15005e-06 0 0)
(8.10943e-06 0 0)
(8.06843e-06 0 0)
(8.02704e-06 0 0)
(7.98523e-06 0 0)
(7.94301e-06 0 0)
(7.90036e-06 0 0)
(7.85726e-06 0 0)
(7.81371e-06 0 0)
(7.76968e-06 0 0)
(7.72517e-06 0 0)
(7.68016e-06 0 0)
(7.63463e-06 0 0)
(7.58858e-06 0 0)
(7.542e-06 0 0)
(7.49486e-06 0 0)
(7.44717e-06 0 0)
(7.39892e-06 0 0)
(7.35011e-06 0 0)
(7.30076e-06 0 0)
(7.25087e-06 0 0)
(7.2005e-06 0 0)
(7.14969e-06 0 0)
(7.09856e-06 0 0)
(7.04723e-06 0 0)
(6.9959e-06 0 0)
(6.94479e-06 0 0)
(6.89417e-06 0 0)
(6.84437e-06 0 0)
(6.79567e-06 0 0)
(6.74831e-06 0 0)
(6.70225e-06 0 0)
(6.65694e-06 0 0)
(6.61091e-06 0 0)
(6.56099e-06 0 0)
(6.50119e-06 0 0)
(6.42091e-06 0 0)
(6.30272e-06 0 0)
(6.12055e-06 0 0)
(5.84184e-06 0 0)
(5.43919e-06 0 0)
(4.91495e-06 0 0)
(4.32339e-06 0 0)
(3.7588e-06 0 0)
(3.30441e-06 0 0)
(2.98997e-06 0 0)
(2.79632e-06 0 0)
(2.68605e-06 0 0)
(2.62616e-06 0 0)
(2.59444e-06 0 0)
(2.57782e-06 0 0)
(2.56909e-06 0 0)
(2.56445e-06 0 0)
(2.56189e-06 0 0)
(2.56042e-06 0 0)
(2.5595e-06 0 0)
(2.55888e-06 0 0)
(2.5584e-06 0 0)
(2.55802e-06 0 0)
(2.55769e-06 0 0)
(2.55742e-06 0 0)
(2.55719e-06 0 0)
(2.55702e-06 0 0)
(2.5569e-06 0 0)
(2.55684e-06 0 0)
(2.55682e-06 0 0)
(2.55682e-06 0 0)
(2.55685e-06 0 0)
(2.557e-06 0 0)
(2.55723e-06 0 0)
(2.55751e-06 0 0)
(2.55783e-06 0 0)
(2.55821e-06 0 0)
(2.55862e-06 0 0)
(2.55906e-06 0 0)
(2.55954e-06 0 0)
(2.56003e-06 0 0)
(2.56054e-06 0 0)
(2.56105e-06 0 0)
(2.56155e-06 0 0)
(2.56204e-06 0 0)
(2.56251e-06 0 0)
(2.56295e-06 0 0)
(2.56335e-06 0 0)
(2.56372e-06 0 0)
(2.56406e-06 0 0)
(2.56434e-06 0 0)
(2.56459e-06 0 0)
(2.5648e-06 0 0)
(2.56496e-06 0 0)
(2.56508e-06 0 0)
(2.56518e-06 0 0)
(2.56524e-06 0 0)
(2.56527e-06 0 0)
(2.56528e-06 0 0)
(2.56529e-06 0 0)
(2.56528e-06 0 0)
(2.56525e-06 0 0)
(2.5652e-06 0 0)
(2.56514e-06 0 0)
(2.56507e-06 0 0)
(2.56501e-06 0 0)
(2.56495e-06 0 0)
(2.56489e-06 0 0)
(2.56484e-06 0 0)
(2.56479e-06 0 0)
(2.56475e-06 0 0)
(2.56472e-06 0 0)
(2.56469e-06 0 0)
(2.56467e-06 0 0)
(2.56466e-06 0 0)
(2.56465e-06 0 0)
(2.56465e-06 0 0)
(2.56465e-06 0 0)
(2.56466e-06 0 0)
(2.56467e-06 0 0)
(2.56469e-06 0 0)
(2.56472e-06 0 0)
(2.56474e-06 0 0)
(2.56477e-06 0 0)
(2.56481e-06 0 0)
(2.56484e-06 0 0)
(2.56488e-06 0 0)
(2.56491e-06 0 0)
(2.56495e-06 0 0)
(2.56498e-06 0 0)
(2.56502e-06 0 0)
(2.56506e-06 0 0)
(2.5651e-06 0 0)
(2.56513e-06 0 0)
(2.56517e-06 0 0)
(2.5652e-06 0 0)
(2.56524e-06 0 0)
(2.56527e-06 0 0)
(2.56531e-06 0 0)
(2.56534e-06 0 0)
(2.56537e-06 0 0)
(2.5654e-06 0 0)
(2.56544e-06 0 0)
(2.56547e-06 0 0)
(2.5655e-06 0 0)
(2.56553e-06 0 0)
(2.56556e-06 0 0)
(2.56559e-06 0 0)
(2.56562e-06 0 0)
(2.56565e-06 0 0)
(2.56568e-06 0 0)
(2.56571e-06 0 0)
(2.56574e-06 0 0)
(2.56577e-06 0 0)
(2.5658e-06 0 0)
(2.56584e-06 0 0)
(2.56587e-06 0 0)
(2.5659e-06 0 0)
(2.56593e-06 0 0)
(2.56596e-06 0 0)
(2.56599e-06 0 0)
(2.56603e-06 0 0)
(2.56606e-06 0 0)
(2.56609e-06 0 0)
(2.56612e-06 0 0)
(2.56616e-06 0 0)
(2.56619e-06 0 0)
(2.56622e-06 0 0)
(2.56625e-06 0 0)
(2.56628e-06 0 0)
(2.56631e-06 0 0)
(2.56634e-06 0 0)
(2.56637e-06 0 0)
(2.5664e-06 0 0)
(2.56643e-06 0 0)
(2.56645e-06 0 0)
(2.56648e-06 0 0)
(2.5665e-06 0 0)
(2.56652e-06 0 0)
(2.56654e-06 0 0)
(2.56656e-06 0 0)
(2.56658e-06 0 0)
(2.56659e-06 0 0)
(2.56661e-06 0 0)
(2.56662e-06 0 0)
(2.56663e-06 0 0)
(2.56664e-06 0 0)
(2.56664e-06 0 0)
(2.56665e-06 0 0)
(2.56665e-06 0 0)
(2.56665e-06 0 0)
(2.56665e-06 0 0)
(2.56665e-06 0 0)
(2.56665e-06 0 0)
(2.56664e-06 0 0)
(2.56663e-06 0 0)
(2.56662e-06 0 0)
(2.56661e-06 0 0)
(2.5666e-06 0 0)
(2.56659e-06 0 0)
(2.56658e-06 0 0)
(2.56656e-06 0 0)
(2.56655e-06 0 0)
(2.56653e-06 0 0)
(2.56652e-06 0 0)
(2.5665e-06 0 0)
(2.56649e-06 0 0)
(2.56647e-06 0 0)
(2.56646e-06 0 0)
(2.56644e-06 0 0)
(2.56643e-06 0 0)
(2.56641e-06 0 0)
(2.5664e-06 0 0)
(2.56639e-06 0 0)
(2.56637e-06 0 0)
(2.56636e-06 0 0)
(2.56635e-06 0 0)
(2.56634e-06 0 0)
(2.56633e-06 0 0)
(2.56632e-06 0 0)
(2.56631e-06 0 0)
(2.5663e-06 0 0)
(2.56628e-06 0 0)
(2.56627e-06 0 0)
(2.56625e-06 0 0)
(2.56624e-06 0 0)
(2.56622e-06 0 0)
(2.5662e-06 0 0)
(2.56617e-06 0 0)
(2.56615e-06 0 0)
(2.56611e-06 0 0)
(2.56608e-06 0 0)
(2.56604e-06 0 0)
(2.566e-06 0 0)
(2.56595e-06 0 0)
(2.5659e-06 0 0)
(2.56584e-06 0 0)
(2.56578e-06 0 0)
(2.56572e-06 0 0)
(2.56565e-06 0 0)
(2.56557e-06 0 0)
(2.56549e-06 0 0)
(2.5654e-06 0 0)
(2.56531e-06 0 0)
(2.56521e-06 0 0)
(2.56511e-06 0 0)
(2.565e-06 0 0)
(2.56488e-06 0 0)
(2.56476e-06 0 0)
(2.56463e-06 0 0)
(2.56449e-06 0 0)
(2.56435e-06 0 0)
(2.56419e-06 0 0)
(2.56402e-06 0 0)
(2.56385e-06 0 0)
(2.56367e-06 0 0)
(2.56347e-06 0 0)
(2.56327e-06 0 0)
(2.56305e-06 0 0)
(2.56282e-06 0 0)
(2.56258e-06 0 0)
(2.56233e-06 0 0)
(2.56208e-06 0 0)
(2.56181e-06 0 0)
(2.56153e-06 0 0)
(2.56125e-06 0 0)
(2.56096e-06 0 0)
(2.56067e-06 0 0)
(2.56038e-06 0 0)
(2.56008e-06 0 0)
(2.55979e-06 0 0)
(2.55951e-06 0 0)
(2.55924e-06 0 0)
(2.55898e-06 0 0)
(2.55873e-06 0 0)
(2.5585e-06 0 0)
(2.5583e-06 0 0)
(2.55811e-06 0 0)
(2.55796e-06 0 0)
(2.55784e-06 0 0)
(2.55776e-06 0 0)
(2.55771e-06 0 0)
(2.55769e-06 0 0)
(2.55769e-06 0 0)
(2.5577e-06 0 0)
(2.55777e-06 0 0)
(2.55792e-06 0 0)
(2.55811e-06 0 0)
(2.55834e-06 0 0)
(2.55861e-06 0 0)
(2.55891e-06 0 0)
(2.55925e-06 0 0)
(2.55961e-06 0 0)
(2.55998e-06 0 0)
(2.56038e-06 0 0)
(2.56078e-06 0 0)
(2.56118e-06 0 0)
(2.56158e-06 0 0)
(2.56198e-06 0 0)
(2.56236e-06 0 0)
(2.56272e-06 0 0)
(2.56306e-06 0 0)
(2.56338e-06 0 0)
(2.56368e-06 0 0)
(2.56394e-06 0 0)
(2.56419e-06 0 0)
(2.5644e-06 0 0)
(2.56459e-06 0 0)
(2.56475e-06 0 0)
(2.56488e-06 0 0)
(2.56499e-06 0 0)
(2.56507e-06 0 0)
(2.56513e-06 0 0)
(2.56518e-06 0 0)
(2.56521e-06 0 0)
(2.56522e-06 0 0)
(2.56523e-06 0 0)
(2.56523e-06 0 0)
(2.56522e-06 0 0)
(2.56519e-06 0 0)
(2.56516e-06 0 0)
(2.56513e-06 0 0)
(2.56509e-06 0 0)
(2.56505e-06 0 0)
(2.56502e-06 0 0)
(2.56498e-06 0 0)
(2.56495e-06 0 0)
(2.56492e-06 0 0)
(2.5649e-06 0 0)
(2.56488e-06 0 0)
(2.56486e-06 0 0)
(2.56485e-06 0 0)
(2.56485e-06 0 0)
(2.56484e-06 0 0)
(2.56484e-06 0 0)
(2.56484e-06 0 0)
(2.56484e-06 0 0)
(2.56484e-06 0 0)
(2.56486e-06 0 0)
(2.56487e-06 0 0)
(2.56488e-06 0 0)
(2.5649e-06 0 0)
(2.56492e-06 0 0)
(2.56494e-06 0 0)
(2.56495e-06 0 0)
(2.56497e-06 0 0)
(2.56499e-06 0 0)
(2.56501e-06 0 0)
(2.56503e-06 0 0)
(2.56504e-06 0 0)
(2.56506e-06 0 0)
(2.56508e-06 0 0)
(2.5651e-06 0 0)
(2.56511e-06 0 0)
(2.56512e-06 0 0)
(2.56514e-06 0 0)
(2.56515e-06 0 0)
(2.56516e-06 0 0)
(2.56517e-06 0 0)
(2.56519e-06 0 0)
(2.5652e-06 0 0)
(2.56521e-06 0 0)
(2.56521e-06 0 0)
(2.56522e-06 0 0)
(2.56523e-06 0 0)
(2.56524e-06 0 0)
(2.56525e-06 0 0)
(2.56526e-06 0 0)
(2.56527e-06 0 0)
(2.56528e-06 0 0)
(2.56529e-06 0 0)
(2.5653e-06 0 0)
(2.56531e-06 0 0)
(2.56532e-06 0 0)
(2.56533e-06 0 0)
(2.56534e-06 0 0)
(2.56536e-06 0 0)
(2.56537e-06 0 0)
(2.56539e-06 0 0)
(2.56541e-06 0 0)
(2.56543e-06 0 0)
(2.56545e-06 0 0)
(2.56547e-06 0 0)
(2.56549e-06 0 0)
(2.56552e-06 0 0)
(2.56554e-06 0 0)
(2.56557e-06 0 0)
(2.5656e-06 0 0)
(2.56563e-06 0 0)
(2.56566e-06 0 0)
(2.56569e-06 0 0)
(2.56573e-06 0 0)
(2.56576e-06 0 0)
(2.5658e-06 0 0)
(2.56583e-06 0 0)
(2.56587e-06 0 0)
(2.5659e-06 0 0)
(2.56594e-06 0 0)
(2.56598e-06 0 0)
(2.56601e-06 0 0)
(2.56605e-06 0 0)
(2.56609e-06 0 0)
(2.56612e-06 0 0)
(2.56616e-06 0 0)
(2.56619e-06 0 0)
(2.56622e-06 0 0)
(2.56625e-06 0 0)
(2.56628e-06 0 0)
(2.56631e-06 0 0)
(2.56633e-06 0 0)
(2.56635e-06 0 0)
(2.56638e-06 0 0)
(2.56639e-06 0 0)
(2.56641e-06 0 0)
(2.56642e-06 0 0)
(2.56643e-06 0 0)
(2.56644e-06 0 0)
(2.56645e-06 0 0)
(2.56645e-06 0 0)
(2.56645e-06 0 0)
(2.56645e-06 0 0)
(2.56644e-06 0 0)
(2.56644e-06 0 0)
(2.56642e-06 0 0)
(2.56641e-06 0 0)
(2.56639e-06 0 0)
(2.56637e-06 0 0)
(2.56635e-06 0 0)
(2.56633e-06 0 0)
(2.5663e-06 0 0)
(2.56627e-06 0 0)
(2.56624e-06 0 0)
(2.56621e-06 0 0)
(2.56618e-06 0 0)
(2.56614e-06 0 0)
(2.56611e-06 0 0)
(2.56607e-06 0 0)
(2.56603e-06 0 0)
(2.56599e-06 0 0)
(2.56596e-06 0 0)
(2.56592e-06 0 0)
(2.56588e-06 0 0)
(2.56584e-06 0 0)
(2.5658e-06 0 0)
(2.56575e-06 0 0)
(2.56571e-06 0 0)
(2.56567e-06 0 0)
(2.56563e-06 0 0)
(2.56559e-06 0 0)
(2.56554e-06 0 0)
(2.5655e-06 0 0)
(2.56545e-06 0 0)
(2.5654e-06 0 0)
(2.56535e-06 0 0)
(2.5653e-06 0 0)
(2.56524e-06 0 0)
(2.56518e-06 0 0)
(2.56512e-06 0 0)
(2.56505e-06 0 0)
(2.56497e-06 0 0)
(2.56489e-06 0 0)
(2.5648e-06 0 0)
(2.56471e-06 0 0)
(2.56461e-06 0 0)
(2.56449e-06 0 0)
(2.56437e-06 0 0)
(2.56424e-06 0 0)
(2.5641e-06 0 0)
(2.56394e-06 0 0)
(2.56378e-06 0 0)
(2.5636e-06 0 0)
(2.56342e-06 0 0)
(2.56322e-06 0 0)
(2.56301e-06 0 0)
(2.56278e-06 0 0)
(2.56255e-06 0 0)
(2.56231e-06 0 0)
(2.56206e-06 0 0)
(2.5618e-06 0 0)
(2.56154e-06 0 0)
(2.56127e-06 0 0)
(2.56099e-06 0 0)
(2.56071e-06 0 0)
(2.56043e-06 0 0)
(2.56015e-06 0 0)
(2.55988e-06 0 0)
(2.55961e-06 0 0)
(2.55935e-06 0 0)
(2.55911e-06 0 0)
(2.55887e-06 0 0)
(2.55865e-06 0 0)
(2.55845e-06 0 0)
(2.55827e-06 0 0)
(2.55811e-06 0 0)
(2.55799e-06 0 0)
(2.55789e-06 0 0)
(2.55782e-06 0 0)
(2.55779e-06 0 0)
(2.55777e-06 0 0)
(2.55777e-06 0 0)
(2.55779e-06 0 0)
(2.55787e-06 0 0)
(2.558e-06 0 0)
(2.55818e-06 0 0)
(2.55839e-06 0 0)
(2.55864e-06 0 0)
(2.55891e-06 0 0)
(2.55921e-06 0 0)
(2.55953e-06 0 0)
(2.55988e-06 0 0)
(2.56023e-06 0 0)
(2.5606e-06 0 0)
(2.56098e-06 0 0)
(2.56135e-06 0 0)
(2.56173e-06 0 0)
(2.56209e-06 0 0)
(2.56245e-06 0 0)
(2.56279e-06 0 0)
(2.56312e-06 0 0)
(2.56342e-06 0 0)
(2.56371e-06 0 0)
(2.56397e-06 0 0)
(2.56421e-06 0 0)
(2.56443e-06 0 0)
(2.56462e-06 0 0)
(2.56479e-06 0 0)
(2.56494e-06 0 0)
(2.56506e-06 0 0)
(2.56517e-06 0 0)
(2.56525e-06 0 0)
(2.56532e-06 0 0)
(2.56538e-06 0 0)
(2.56541e-06 0 0)
(2.56544e-06 0 0)
(2.56545e-06 0 0)
(2.56546e-06 0 0)
(2.56546e-06 0 0)
(2.56545e-06 0 0)
(2.56544e-06 0 0)
(2.56542e-06 0 0)
(2.5654e-06 0 0)
(2.56538e-06 0 0)
(2.56535e-06 0 0)
(2.56533e-06 0 0)
(2.5653e-06 0 0)
(2.56528e-06 0 0)
(2.56526e-06 0 0)
(2.56525e-06 0 0)
(2.56524e-06 0 0)
(2.56523e-06 0 0)
(2.56522e-06 0 0)
(2.56522e-06 0 0)
(2.56522e-06 0 0)
(2.56522e-06 0 0)
(2.56522e-06 0 0)
(2.56523e-06 0 0)
(2.56524e-06 0 0)
(2.56526e-06 0 0)
(2.56528e-06 0 0)
(2.5653e-06 0 0)
(2.56533e-06 0 0)
(2.56536e-06 0 0)
(2.56538e-06 0 0)
(2.56541e-06 0 0)
(2.56545e-06 0 0)
(2.56548e-06 0 0)
(2.56551e-06 0 0)
(2.56555e-06 0 0)
(2.56558e-06 0 0)
(2.56562e-06 0 0)
(2.56566e-06 0 0)
(2.56569e-06 0 0)
(2.56573e-06 0 0)
(2.56576e-06 0 0)
(2.5658e-06 0 0)
(2.56583e-06 0 0)
(2.56587e-06 0 0)
(2.5659e-06 0 0)
(2.56593e-06 0 0)
(2.56597e-06 0 0)
(2.56599e-06 0 0)
(2.56602e-06 0 0)
(2.56605e-06 0 0)
(2.56608e-06 0 0)
(2.5661e-06 0 0)
(2.56613e-06 0 0)
(2.56615e-06 0 0)
(2.56617e-06 0 0)
(2.56618e-06 0 0)
(2.5662e-06 0 0)
(2.56621e-06 0 0)
(2.56623e-06 0 0)
(2.56624e-06 0 0)
(2.56624e-06 0 0)
(2.56625e-06 0 0)
(2.56625e-06 0 0)
(2.56625e-06 0 0)
(2.56625e-06 0 0)
(2.56625e-06 0 0)
(2.56625e-06 0 0)
(2.56624e-06 0 0)
(2.56624e-06 0 0)
(2.56623e-06 0 0)
(2.56622e-06 0 0)
(2.5662e-06 0 0)
(2.56619e-06 0 0)
(2.56617e-06 0 0)
(2.56615e-06 0 0)
(2.56613e-06 0 0)
(2.56611e-06 0 0)
(2.56609e-06 0 0)
(2.56607e-06 0 0)
(2.56605e-06 0 0)
(2.56607e-06 0 0)
(2.56617e-06 0 0)
(2.56762e-06 0 0)
(2.57416e-06 0 0)
(2.60593e-06 0 0)
(2.78732e-06 0 0)
(2.95454e-06 0 0)
(2.9671e-06 0 0)
(2.96726e-06 0 0)
(2.96727e-06 0 0)
(2.96727e-06 0 0)
(2.96727e-06 0 0)
(2.96727e-06 0 0)
(2.96727e-06 0 0)
(2.96727e-06 0 0)
(2.96727e-06 0 0)
(2.96727e-06 0 0)
(2.96727e-06 0 0)
(2.96727e-06 0 0)
(2.96727e-06 0 0)
(2.96727e-06 0 0)
(2.96727e-06 0 0)
(2.96727e-06 0 0)
(2.96727e-06 0 0)
(2.96727e-06 0 0)
(2.96727e-06 0 0)
(2.96727e-06 0 0)
(2.96727e-06 0 0)
(2.96727e-06 0 0)
(2.96727e-06 0 0)
(2.96727e-06 0 0)
(2.96727e-06 0 0)
(2.96727e-06 0 0)
(2.96727e-06 0 0)
(2.96727e-06 0 0)
(2.96727e-06 0 0)
(2.96727e-06 0 0)
(2.96727e-06 0 0)
(2.96727e-06 0 0)
(2.96727e-06 0 0)
(2.96727e-06 0 0)
(2.96727e-06 0 0)
(2.96727e-06 0 0)
(2.96727e-06 0 0)
(2.96727e-06 0 0)
(2.96727e-06 0 0)
(2.96727e-06 0 0)
(2.96727e-06 0 0)
(2.96727e-06 0 0)
(2.96727e-06 0 0)
(2.96727e-06 0 0)
(2.96727e-06 0 0)
(2.96727e-06 0 0)
(2.96727e-06 0 0)
(2.96727e-06 0 0)
(2.96727e-06 0 0)
(2.96727e-06 0 0)
(2.96727e-06 0 0)
(2.96727e-06 0 0)
(2.96727e-06 0 0)
(2.96727e-06 0 0)
(2.96727e-06 0 0)
(2.96727e-06 0 0)
(2.96727e-06 0 0)
(2.96727e-06 0 0)
(2.96727e-06 0 0)
(2.96727e-06 0 0)
(2.96727e-06 0 0)
(2.96727e-06 0 0)
(2.96727e-06 0 0)
(2.96727e-06 0 0)
(2.96727e-06 0 0)
(2.96727e-06 0 0)
(2.96727e-06 0 0)
(2.96727e-06 0 0)
(2.96727e-06 0 0)
(2.96727e-06 0 0)
(2.96727e-06 0 0)
(2.96727e-06 0 0)
(2.96727e-06 0 0)
(2.96727e-06 0 0)
(2.96727e-06 0 0)
(2.96727e-06 0 0)
(2.96727e-06 0 0)
(2.96727e-06 0 0)
(2.96727e-06 0 0)
(2.96727e-06 0 0)
(2.96727e-06 0 0)
(2.96727e-06 0 0)
(2.96727e-06 0 0)
(2.96727e-06 0 0)
(2.96727e-06 0 0)
(2.96727e-06 0 0)
(2.96727e-06 0 0)
(2.96727e-06 0 0)
(2.96727e-06 0 0)
(2.96727e-06 0 0)
(2.96727e-06 0 0)
(2.96727e-06 0 0)
(2.96727e-06 0 0)
(2.96727e-06 0 0)
(2.96727e-06 0 0)
(2.96727e-06 0 0)
(2.96727e-06 0 0)
(2.96727e-06 0 0)
(2.96727e-06 0 0)
(2.96727e-06 0 0)
(2.96727e-06 0 0)
(2.96727e-06 0 0)
(2.96727e-06 0 0)
(2.96727e-06 0 0)
(2.96727e-06 0 0)
(2.96727e-06 0 0)
(2.96727e-06 0 0)
(2.96727e-06 0 0)
(2.96727e-06 0 0)
(2.96727e-06 0 0)
(2.96727e-06 0 0)
(2.96727e-06 0 0)
(2.96727e-06 0 0)
(2.96727e-06 0 0)
(2.96727e-06 0 0)
(2.96727e-06 0 0)
(2.96727e-06 0 0)
(2.96727e-06 0 0)
(2.96727e-06 0 0)
(2.96727e-06 0 0)
(2.96727e-06 0 0)
(2.96727e-06 0 0)
(2.96727e-06 0 0)
(2.96727e-06 0 0)
(2.96727e-06 0 0)
(2.96727e-06 0 0)
(2.96727e-06 0 0)
(2.96727e-06 0 0)
(2.96727e-06 0 0)
(2.96727e-06 0 0)
(2.96727e-06 0 0)
(2.96727e-06 0 0)
(2.96727e-06 0 0)
(2.96727e-06 0 0)
(2.96727e-06 0 0)
(2.96727e-06 0 0)
(2.96727e-06 0 0)
(2.96727e-06 0 0)
(2.96727e-06 0 0)
(2.96727e-06 0 0)
(2.96727e-06 0 0)
(2.96727e-06 0 0)
(2.96727e-06 0 0)
(2.96727e-06 0 0)
(2.96727e-06 0 0)
(2.96727e-06 0 0)
(2.96727e-06 0 0)
(2.96727e-06 0 0)
(2.96727e-06 0 0)
(2.96727e-06 0 0)
(2.96727e-06 0 0)
(2.96727e-06 0 0)
(2.96727e-06 0 0)
(2.96727e-06 0 0)
(2.96727e-06 0 0)
(2.96727e-06 0 0)
(2.96727e-06 0 0)
(2.96727e-06 0 0)
(2.96727e-06 0 0)
(2.96727e-06 0 0)
(2.96727e-06 0 0)
(2.96727e-06 0 0)
(2.96727e-06 0 0)
(2.96727e-06 0 0)
(2.96727e-06 0 0)
(2.96727e-06 0 0)
(2.96727e-06 0 0)
(2.96727e-06 0 0)
(2.96727e-06 0 0)
(2.96727e-06 0 0)
(2.96727e-06 0 0)
(2.96727e-06 0 0)
(2.96727e-06 0 0)
(2.96727e-06 0 0)
(2.96727e-06 0 0)
(2.96727e-06 0 0)
(2.96727e-06 0 0)
(2.96727e-06 0 0)
(2.96727e-06 0 0)
(2.96727e-06 0 0)
(2.96727e-06 0 0)
(2.96727e-06 0 0)
(2.96727e-06 0 0)
(2.96727e-06 0 0)
(2.96727e-06 0 0)
(2.96727e-06 0 0)
(2.96727e-06 0 0)
(2.96727e-06 0 0)
(2.96727e-06 0 0)
(2.96727e-06 0 0)
(2.96727e-06 0 0)
(2.96727e-06 0 0)
(2.96727e-06 0 0)
(2.96727e-06 0 0)
(2.96727e-06 0 0)
(2.96727e-06 0 0)
(2.96727e-06 0 0)
(2.96727e-06 0 0)
(2.96727e-06 0 0)
(2.96727e-06 0 0)
(2.96727e-06 0 0)
(2.96727e-06 0 0)
(2.96727e-06 0 0)
(2.96727e-06 0 0)
(2.96727e-06 0 0)
(2.96727e-06 0 0)
(2.96727e-06 0 0)
(2.96727e-06 0 0)
(2.96727e-06 0 0)
(2.96727e-06 0 0)
(2.96727e-06 0 0)
(2.96727e-06 0 0)
(2.96727e-06 0 0)
(2.96727e-06 0 0)
(2.96727e-06 0 0)
(2.96727e-06 0 0)
(2.96727e-06 0 0)
(2.96727e-06 0 0)
(2.96727e-06 0 0)
(2.96727e-06 0 0)
(2.96727e-06 0 0)
(2.96727e-06 0 0)
(2.96727e-06 0 0)
(2.96727e-06 0 0)
(2.96727e-06 0 0)
(2.96727e-06 0 0)
(2.96727e-06 0 0)
(2.96727e-06 0 0)
(2.96727e-06 0 0)
(2.96727e-06 0 0)
(2.96727e-06 0 0)
(2.96727e-06 0 0)
(2.96727e-06 0 0)
(2.96727e-06 0 0)
(2.96727e-06 0 0)
(2.96727e-06 0 0)
(2.96727e-06 0 0)
(2.96727e-06 0 0)
(2.96727e-06 0 0)
(2.96727e-06 0 0)
(2.96727e-06 0 0)
)
;

boundaryField
{
    inlet
    {
        type            fixedValue;
        value           uniform (1.13622e-05 0 0);
    }
    outlet
    {
        type            zeroGradient;
    }
    emptyWalls
    {
        type            empty;
    }
}


// ************************************************************************* //
