/*--------------------------------*- C++ -*----------------------------------*\
  =========                 |
  \\      /  F ield         | OpenFOAM: The Open Source CFD Toolbox
   \\    /   O peration     | Website:  https://openfoam.org
    \\  /    A nd           | Version:  9
     \\/     M anipulation  |
\*---------------------------------------------------------------------------*/
FoamFile
{
    format      ascii;
    class       volVectorField;
    location    "4600";
    object      Uc;
}
// * * * * * * * * * * * * * * * * * * * * * * * * * * * * * * * * * * * * * //

dimensions      [0 0 0 0 0 0 0];

internalField   nonuniform List<vector> 
1000
(
(2.03849e-10 0 0)
(9.46997e-10 0 0)
(2.30876e-09 0 0)
(5.18637e-09 0 0)
(1.38868e-08 0 0)
(5.0122e-08 0 0)
(1.35828e-07 0 0)
(2.03643e-07 0 0)
(2.20198e-07 0 0)
(2.28264e-07 0 0)
(2.34008e-07 0 0)
(2.38686e-07 0 0)
(2.42795e-07 0 0)
(2.46835e-07 0 0)
(2.51757e-07 0 0)
(2.58972e-07 0 0)
(2.69402e-07 0 0)
(2.83187e-07 0 0)
(2.99815e-07 0 0)
(3.18347e-07 0 0)
(3.38083e-07 0 0)
(3.58634e-07 0 0)
(3.79775e-07 0 0)
(4.01362e-07 0 0)
(4.23302e-07 0 0)
(4.45528e-07 0 0)
(4.67996e-07 0 0)
(4.90676e-07 0 0)
(5.13551e-07 0 0)
(5.36609e-07 0 0)
(5.59843e-07 0 0)
(5.83245e-07 0 0)
(6.06815e-07 0 0)
(6.30551e-07 0 0)
(6.54456e-07 0 0)
(6.78532e-07 0 0)
(7.02784e-07 0 0)
(7.27218e-07 0 0)
(7.5184e-07 0 0)
(7.76651e-07 0 0)
(8.01651e-07 0 0)
(8.26832e-07 0 0)
(8.52182e-07 0 0)
(8.77689e-07 0 0)
(9.03331e-07 0 0)
(9.29091e-07 0 0)
(9.54947e-07 0 0)
(9.80883e-07 0 0)
(1.00688e-06 0 0)
(1.03294e-06 0 0)
(1.05905e-06 0 0)
(1.08521e-06 0 0)
(1.11143e-06 0 0)
(1.1377e-06 0 0)
(1.16405e-06 0 0)
(1.19047e-06 0 0)
(1.21697e-06 0 0)
(1.24357e-06 0 0)
(1.27027e-06 0 0)
(1.29708e-06 0 0)
(1.32399e-06 0 0)
(1.35102e-06 0 0)
(1.37816e-06 0 0)
(1.40541e-06 0 0)
(1.43278e-06 0 0)
(1.46026e-06 0 0)
(1.48785e-06 0 0)
(1.51555e-06 0 0)
(1.54336e-06 0 0)
(1.57128e-06 0 0)
(1.59931e-06 0 0)
(1.62744e-06 0 0)
(1.65568e-06 0 0)
(1.68403e-06 0 0)
(1.71249e-06 0 0)
(1.74105e-06 0 0)
(1.76973e-06 0 0)
(1.79851e-06 0 0)
(1.82741e-06 0 0)
(1.85642e-06 0 0)
(1.88554e-06 0 0)
(1.91477e-06 0 0)
(1.94412e-06 0 0)
(1.97359e-06 0 0)
(2.00318e-06 0 0)
(2.03288e-06 0 0)
(2.06271e-06 0 0)
(2.09266e-06 0 0)
(2.12273e-06 0 0)
(2.15293e-06 0 0)
(2.18325e-06 0 0)
(2.2137e-06 0 0)
(2.24428e-06 0 0)
(2.27499e-06 0 0)
(2.30583e-06 0 0)
(2.33681e-06 0 0)
(2.36792e-06 0 0)
(2.39917e-06 0 0)
(2.43056e-06 0 0)
(2.46208e-06 0 0)
(2.49375e-06 0 0)
(2.52556e-06 0 0)
(2.55752e-06 0 0)
(2.58963e-06 0 0)
(2.62188e-06 0 0)
(2.65429e-06 0 0)
(2.68685e-06 0 0)
(2.71956e-06 0 0)
(2.75243e-06 0 0)
(2.78547e-06 0 0)
(2.81866e-06 0 0)
(2.85203e-06 0 0)
(2.88556e-06 0 0)
(2.91927e-06 0 0)
(2.95315e-06 0 0)
(2.98721e-06 0 0)
(3.02146e-06 0 0)
(3.05589e-06 0 0)
(3.09052e-06 0 0)
(3.12534e-06 0 0)
(3.16035e-06 0 0)
(3.19558e-06 0 0)
(3.23101e-06 0 0)
(3.26666e-06 0 0)
(3.30253e-06 0 0)
(3.33862e-06 0 0)
(3.37494e-06 0 0)
(3.4115e-06 0 0)
(3.44829e-06 0 0)
(3.48534e-06 0 0)
(3.52263e-06 0 0)
(3.56019e-06 0 0)
(3.59801e-06 0 0)
(3.6361e-06 0 0)
(3.67446e-06 0 0)
(3.71312e-06 0 0)
(3.75207e-06 0 0)
(3.79131e-06 0 0)
(3.83087e-06 0 0)
(3.87074e-06 0 0)
(3.91094e-06 0 0)
(3.95147e-06 0 0)
(3.99234e-06 0 0)
(4.03357e-06 0 0)
(4.07516e-06 0 0)
(4.11712e-06 0 0)
(4.15947e-06 0 0)
(4.20221e-06 0 0)
(4.24536e-06 0 0)
(4.28892e-06 0 0)
(4.3329e-06 0 0)
(4.37733e-06 0 0)
(4.42221e-06 0 0)
(4.46757e-06 0 0)
(4.51341e-06 0 0)
(4.55974e-06 0 0)
(4.60659e-06 0 0)
(4.65396e-06 0 0)
(4.70187e-06 0 0)
(4.75032e-06 0 0)
(4.7993e-06 0 0)
(4.84883e-06 0 0)
(4.8989e-06 0 0)
(4.94949e-06 0 0)
(5.00055e-06 0 0)
(5.05203e-06 0 0)
(5.10382e-06 0 0)
(5.15578e-06 0 0)
(5.20773e-06 0 0)
(5.25944e-06 0 0)
(5.31063e-06 0 0)
(5.36098e-06 0 0)
(5.41018e-06 0 0)
(5.458e-06 0 0)
(5.50449e-06 0 0)
(5.55017e-06 0 0)
(5.59657e-06 0 0)
(5.6469e-06 0 0)
(5.70725e-06 0 0)
(5.78842e-06 0 0)
(5.90814e-06 0 0)
(6.09286e-06 0 0)
(6.37561e-06 0 0)
(6.7838e-06 0 0)
(7.3145e-06 0 0)
(7.912e-06 0 0)
(8.48073e-06 0 0)
(8.93716e-06 0 0)
(9.25198e-06 0 0)
(9.44512e-06 0 0)
(9.55431e-06 0 0)
(9.61285e-06 0 0)
(9.64311e-06 0 0)
(9.65817e-06 0 0)
(9.66526e-06 0 0)
(9.66822e-06 0 0)
(9.66907e-06 0 0)
(9.66885e-06 0 0)
(9.6681e-06 0 0)
(9.66711e-06 0 0)
(9.66605e-06 0 0)
(9.66498e-06 0 0)
(9.66396e-06 0 0)
(9.66303e-06 0 0)
(9.66223e-06 0 0)
(9.66161e-06 0 0)
(9.66119e-06 0 0)
(9.66097e-06 0 0)
(9.6609e-06 0 0)
(9.6609e-06 0 0)
(9.66102e-06 0 0)
(9.66154e-06 0 0)
(9.66241e-06 0 0)
(9.66343e-06 0 0)
(9.66464e-06 0 0)
(9.66602e-06 0 0)
(9.66755e-06 0 0)
(9.66921e-06 0 0)
(9.67097e-06 0 0)
(9.6728e-06 0 0)
(9.67468e-06 0 0)
(9.67656e-06 0 0)
(9.67843e-06 0 0)
(9.68023e-06 0 0)
(9.68196e-06 0 0)
(9.68359e-06 0 0)
(9.6851e-06 0 0)
(9.68646e-06 0 0)
(9.68769e-06 0 0)
(9.68876e-06 0 0)
(9.68967e-06 0 0)
(9.69043e-06 0 0)
(9.69104e-06 0 0)
(9.69151e-06 0 0)
(9.69185e-06 0 0)
(9.69208e-06 0 0)
(9.6922e-06 0 0)
(9.69224e-06 0 0)
(9.69225e-06 0 0)
(9.69223e-06 0 0)
(9.69212e-06 0 0)
(9.69192e-06 0 0)
(9.6917e-06 0 0)
(9.69147e-06 0 0)
(9.69124e-06 0 0)
(9.69101e-06 0 0)
(9.6908e-06 0 0)
(9.6906e-06 0 0)
(9.69043e-06 0 0)
(9.69027e-06 0 0)
(9.69015e-06 0 0)
(9.69005e-06 0 0)
(9.68998e-06 0 0)
(9.68993e-06 0 0)
(9.68991e-06 0 0)
(9.6899e-06 0 0)
(9.68991e-06 0 0)
(9.68992e-06 0 0)
(9.68998e-06 0 0)
(9.69007e-06 0 0)
(9.69017e-06 0 0)
(9.69028e-06 0 0)
(9.6904e-06 0 0)
(9.69054e-06 0 0)
(9.69068e-06 0 0)
(9.69082e-06 0 0)
(9.69098e-06 0 0)
(9.69113e-06 0 0)
(9.69129e-06 0 0)
(9.69145e-06 0 0)
(9.69161e-06 0 0)
(9.69178e-06 0 0)
(9.69194e-06 0 0)
(9.69211e-06 0 0)
(9.69228e-06 0 0)
(9.69244e-06 0 0)
(9.69261e-06 0 0)
(9.69277e-06 0 0)
(9.69293e-06 0 0)
(9.69309e-06 0 0)
(9.69326e-06 0 0)
(9.69341e-06 0 0)
(9.69357e-06 0 0)
(9.69373e-06 0 0)
(9.69389e-06 0 0)
(9.69404e-06 0 0)
(9.6942e-06 0 0)
(9.69436e-06 0 0)
(9.69451e-06 0 0)
(9.69467e-06 0 0)
(9.69482e-06 0 0)
(9.69498e-06 0 0)
(9.69513e-06 0 0)
(9.69528e-06 0 0)
(9.69544e-06 0 0)
(9.69559e-06 0 0)
(9.69574e-06 0 0)
(9.6959e-06 0 0)
(9.69605e-06 0 0)
(9.69621e-06 0 0)
(9.69636e-06 0 0)
(9.69651e-06 0 0)
(9.69666e-06 0 0)
(9.69681e-06 0 0)
(9.69696e-06 0 0)
(9.69711e-06 0 0)
(9.69725e-06 0 0)
(9.6974e-06 0 0)
(9.69754e-06 0 0)
(9.69767e-06 0 0)
(9.69781e-06 0 0)
(9.69793e-06 0 0)
(9.69806e-06 0 0)
(9.69818e-06 0 0)
(9.69829e-06 0 0)
(9.6984e-06 0 0)
(9.6985e-06 0 0)
(9.6986e-06 0 0)
(9.69869e-06 0 0)
(9.69877e-06 0 0)
(9.69884e-06 0 0)
(9.69891e-06 0 0)
(9.69897e-06 0 0)
(9.69902e-06 0 0)
(9.69907e-06 0 0)
(9.6991e-06 0 0)
(9.69913e-06 0 0)
(9.69915e-06 0 0)
(9.69916e-06 0 0)
(9.69917e-06 0 0)
(9.69917e-06 0 0)
(9.69917e-06 0 0)
(9.69916e-06 0 0)
(9.69914e-06 0 0)
(9.69911e-06 0 0)
(9.69908e-06 0 0)
(9.69904e-06 0 0)
(9.69899e-06 0 0)
(9.69894e-06 0 0)
(9.69889e-06 0 0)
(9.69883e-06 0 0)
(9.69877e-06 0 0)
(9.69871e-06 0 0)
(9.69865e-06 0 0)
(9.69859e-06 0 0)
(9.69852e-06 0 0)
(9.69845e-06 0 0)
(9.69839e-06 0 0)
(9.69832e-06 0 0)
(9.69826e-06 0 0)
(9.6982e-06 0 0)
(9.69814e-06 0 0)
(9.69808e-06 0 0)
(9.69803e-06 0 0)
(9.69797e-06 0 0)
(9.69792e-06 0 0)
(9.69786e-06 0 0)
(9.69781e-06 0 0)
(9.69776e-06 0 0)
(9.69771e-06 0 0)
(9.69765e-06 0 0)
(9.69759e-06 0 0)
(9.69753e-06 0 0)
(9.69747e-06 0 0)
(9.69739e-06 0 0)
(9.69731e-06 0 0)
(9.69722e-06 0 0)
(9.69712e-06 0 0)
(9.69701e-06 0 0)
(9.69689e-06 0 0)
(9.69675e-06 0 0)
(9.6966e-06 0 0)
(9.69643e-06 0 0)
(9.69625e-06 0 0)
(9.69605e-06 0 0)
(9.69584e-06 0 0)
(9.6956e-06 0 0)
(9.69535e-06 0 0)
(9.69509e-06 0 0)
(9.6948e-06 0 0)
(9.69449e-06 0 0)
(9.69417e-06 0 0)
(9.69383e-06 0 0)
(9.69347e-06 0 0)
(9.69308e-06 0 0)
(9.69267e-06 0 0)
(9.69224e-06 0 0)
(9.69178e-06 0 0)
(9.6913e-06 0 0)
(9.69079e-06 0 0)
(9.69025e-06 0 0)
(9.68967e-06 0 0)
(9.68906e-06 0 0)
(9.68842e-06 0 0)
(9.68774e-06 0 0)
(9.68702e-06 0 0)
(9.68625e-06 0 0)
(9.68545e-06 0 0)
(9.68461e-06 0 0)
(9.68373e-06 0 0)
(9.68281e-06 0 0)
(9.68185e-06 0 0)
(9.68086e-06 0 0)
(9.67984e-06 0 0)
(9.67879e-06 0 0)
(9.67773e-06 0 0)
(9.67665e-06 0 0)
(9.67556e-06 0 0)
(9.67448e-06 0 0)
(9.67341e-06 0 0)
(9.67236e-06 0 0)
(9.67135e-06 0 0)
(9.67038e-06 0 0)
(9.66947e-06 0 0)
(9.66862e-06 0 0)
(9.66786e-06 0 0)
(9.66719e-06 0 0)
(9.66663e-06 0 0)
(9.6662e-06 0 0)
(9.66589e-06 0 0)
(9.66572e-06 0 0)
(9.66565e-06 0 0)
(9.66564e-06 0 0)
(9.66569e-06 0 0)
(9.66596e-06 0 0)
(9.66651e-06 0 0)
(9.66723e-06 0 0)
(9.6681e-06 0 0)
(9.66911e-06 0 0)
(9.67024e-06 0 0)
(9.67149e-06 0 0)
(9.67282e-06 0 0)
(9.67423e-06 0 0)
(9.67569e-06 0 0)
(9.67718e-06 0 0)
(9.67868e-06 0 0)
(9.68017e-06 0 0)
(9.68163e-06 0 0)
(9.68304e-06 0 0)
(9.68439e-06 0 0)
(9.68566e-06 0 0)
(9.68684e-06 0 0)
(9.68792e-06 0 0)
(9.6889e-06 0 0)
(9.68977e-06 0 0)
(9.69054e-06 0 0)
(9.6912e-06 0 0)
(9.69175e-06 0 0)
(9.69221e-06 0 0)
(9.69258e-06 0 0)
(9.69287e-06 0 0)
(9.69307e-06 0 0)
(9.69321e-06 0 0)
(9.69329e-06 0 0)
(9.69332e-06 0 0)
(9.69332e-06 0 0)
(9.69331e-06 0 0)
(9.69325e-06 0 0)
(9.69314e-06 0 0)
(9.693e-06 0 0)
(9.69286e-06 0 0)
(9.69272e-06 0 0)
(9.69258e-06 0 0)
(9.69245e-06 0 0)
(9.69232e-06 0 0)
(9.69221e-06 0 0)
(9.69212e-06 0 0)
(9.69203e-06 0 0)
(9.69196e-06 0 0)
(9.69191e-06 0 0)
(9.69187e-06 0 0)
(9.69184e-06 0 0)
(9.69183e-06 0 0)
(9.69183e-06 0 0)
(9.69184e-06 0 0)
(9.69185e-06 0 0)
(9.69189e-06 0 0)
(9.69193e-06 0 0)
(9.69199e-06 0 0)
(9.69205e-06 0 0)
(9.69212e-06 0 0)
(9.69219e-06 0 0)
(9.69226e-06 0 0)
(9.69234e-06 0 0)
(9.69241e-06 0 0)
(9.69249e-06 0 0)
(9.69256e-06 0 0)
(9.69264e-06 0 0)
(9.69271e-06 0 0)
(9.69277e-06 0 0)
(9.69284e-06 0 0)
(9.6929e-06 0 0)
(9.69296e-06 0 0)
(9.69302e-06 0 0)
(9.69308e-06 0 0)
(9.69313e-06 0 0)
(9.69318e-06 0 0)
(9.69323e-06 0 0)
(9.69327e-06 0 0)
(9.69331e-06 0 0)
(9.69335e-06 0 0)
(9.69339e-06 0 0)
(9.69343e-06 0 0)
(9.69346e-06 0 0)
(9.6935e-06 0 0)
(9.69354e-06 0 0)
(9.69357e-06 0 0)
(9.69361e-06 0 0)
(9.69365e-06 0 0)
(9.69369e-06 0 0)
(9.69373e-06 0 0)
(9.69377e-06 0 0)
(9.69382e-06 0 0)
(9.69387e-06 0 0)
(9.69392e-06 0 0)
(9.69398e-06 0 0)
(9.69404e-06 0 0)
(9.69411e-06 0 0)
(9.69418e-06 0 0)
(9.69425e-06 0 0)
(9.69433e-06 0 0)
(9.69442e-06 0 0)
(9.69451e-06 0 0)
(9.6946e-06 0 0)
(9.6947e-06 0 0)
(9.69481e-06 0 0)
(9.69491e-06 0 0)
(9.69503e-06 0 0)
(9.69514e-06 0 0)
(9.69527e-06 0 0)
(9.69539e-06 0 0)
(9.69552e-06 0 0)
(9.69565e-06 0 0)
(9.69579e-06 0 0)
(9.69593e-06 0 0)
(9.69606e-06 0 0)
(9.6962e-06 0 0)
(9.69634e-06 0 0)
(9.69647e-06 0 0)
(9.69661e-06 0 0)
(9.69674e-06 0 0)
(9.69687e-06 0 0)
(9.697e-06 0 0)
(9.69712e-06 0 0)
(9.69724e-06 0 0)
(9.69735e-06 0 0)
(9.69746e-06 0 0)
(9.69756e-06 0 0)
(9.69765e-06 0 0)
(9.69774e-06 0 0)
(9.69781e-06 0 0)
(9.69788e-06 0 0)
(9.69794e-06 0 0)
(9.69798e-06 0 0)
(9.69802e-06 0 0)
(9.69805e-06 0 0)
(9.69807e-06 0 0)
(9.69807e-06 0 0)
(9.69808e-06 0 0)
(9.69808e-06 0 0)
(9.69807e-06 0 0)
(9.69803e-06 0 0)
(9.69799e-06 0 0)
(9.69793e-06 0 0)
(9.69787e-06 0 0)
(9.69779e-06 0 0)
(9.69771e-06 0 0)
(9.69762e-06 0 0)
(9.69752e-06 0 0)
(9.69741e-06 0 0)
(9.6973e-06 0 0)
(9.69718e-06 0 0)
(9.69706e-06 0 0)
(9.69693e-06 0 0)
(9.6968e-06 0 0)
(9.69666e-06 0 0)
(9.69652e-06 0 0)
(9.69638e-06 0 0)
(9.69624e-06 0 0)
(9.69609e-06 0 0)
(9.69594e-06 0 0)
(9.69579e-06 0 0)
(9.69564e-06 0 0)
(9.69549e-06 0 0)
(9.69533e-06 0 0)
(9.69518e-06 0 0)
(9.69502e-06 0 0)
(9.69486e-06 0 0)
(9.6947e-06 0 0)
(9.69453e-06 0 0)
(9.69436e-06 0 0)
(9.69418e-06 0 0)
(9.69399e-06 0 0)
(9.69379e-06 0 0)
(9.69358e-06 0 0)
(9.69336e-06 0 0)
(9.69312e-06 0 0)
(9.69286e-06 0 0)
(9.69259e-06 0 0)
(9.69229e-06 0 0)
(9.69196e-06 0 0)
(9.69161e-06 0 0)
(9.69122e-06 0 0)
(9.69081e-06 0 0)
(9.69036e-06 0 0)
(9.68987e-06 0 0)
(9.68934e-06 0 0)
(9.68877e-06 0 0)
(9.68816e-06 0 0)
(9.68751e-06 0 0)
(9.68682e-06 0 0)
(9.68608e-06 0 0)
(9.6853e-06 0 0)
(9.68449e-06 0 0)
(9.68363e-06 0 0)
(9.68273e-06 0 0)
(9.68181e-06 0 0)
(9.68085e-06 0 0)
(9.67986e-06 0 0)
(9.67886e-06 0 0)
(9.67784e-06 0 0)
(9.67681e-06 0 0)
(9.67578e-06 0 0)
(9.67475e-06 0 0)
(9.67374e-06 0 0)
(9.67275e-06 0 0)
(9.67179e-06 0 0)
(9.67087e-06 0 0)
(9.67e-06 0 0)
(9.66919e-06 0 0)
(9.66845e-06 0 0)
(9.66778e-06 0 0)
(9.66721e-06 0 0)
(9.66674e-06 0 0)
(9.66637e-06 0 0)
(9.66613e-06 0 0)
(9.666e-06 0 0)
(9.66595e-06 0 0)
(9.66595e-06 0 0)
(9.66601e-06 0 0)
(9.66629e-06 0 0)
(9.6668e-06 0 0)
(9.66745e-06 0 0)
(9.66823e-06 0 0)
(9.66912e-06 0 0)
(9.67013e-06 0 0)
(9.67124e-06 0 0)
(9.67243e-06 0 0)
(9.6737e-06 0 0)
(9.67501e-06 0 0)
(9.67637e-06 0 0)
(9.67775e-06 0 0)
(9.67914e-06 0 0)
(9.68051e-06 0 0)
(9.68186e-06 0 0)
(9.68317e-06 0 0)
(9.68443e-06 0 0)
(9.68563e-06 0 0)
(9.68676e-06 0 0)
(9.68782e-06 0 0)
(9.68879e-06 0 0)
(9.68967e-06 0 0)
(9.69047e-06 0 0)
(9.69118e-06 0 0)
(9.6918e-06 0 0)
(9.69235e-06 0 0)
(9.69281e-06 0 0)
(9.6932e-06 0 0)
(9.69351e-06 0 0)
(9.69376e-06 0 0)
(9.69396e-06 0 0)
(9.6941e-06 0 0)
(9.69419e-06 0 0)
(9.69424e-06 0 0)
(9.69427e-06 0 0)
(9.69428e-06 0 0)
(9.69427e-06 0 0)
(9.69424e-06 0 0)
(9.69416e-06 0 0)
(9.69408e-06 0 0)
(9.69399e-06 0 0)
(9.6939e-06 0 0)
(9.69381e-06 0 0)
(9.69373e-06 0 0)
(9.69366e-06 0 0)
(9.69359e-06 0 0)
(9.69354e-06 0 0)
(9.69349e-06 0 0)
(9.69346e-06 0 0)
(9.69344e-06 0 0)
(9.69343e-06 0 0)
(9.69343e-06 0 0)
(9.69343e-06 0 0)
(9.69345e-06 0 0)
(9.69349e-06 0 0)
(9.69354e-06 0 0)
(9.69361e-06 0 0)
(9.69368e-06 0 0)
(9.69377e-06 0 0)
(9.69386e-06 0 0)
(9.69396e-06 0 0)
(9.69407e-06 0 0)
(9.69418e-06 0 0)
(9.6943e-06 0 0)
(9.69443e-06 0 0)
(9.69456e-06 0 0)
(9.69469e-06 0 0)
(9.69482e-06 0 0)
(9.69495e-06 0 0)
(9.69508e-06 0 0)
(9.69522e-06 0 0)
(9.69535e-06 0 0)
(9.69549e-06 0 0)
(9.69562e-06 0 0)
(9.69575e-06 0 0)
(9.69587e-06 0 0)
(9.696e-06 0 0)
(9.69612e-06 0 0)
(9.69624e-06 0 0)
(9.69635e-06 0 0)
(9.69646e-06 0 0)
(9.69656e-06 0 0)
(9.69666e-06 0 0)
(9.69675e-06 0 0)
(9.69683e-06 0 0)
(9.69691e-06 0 0)
(9.69698e-06 0 0)
(9.69705e-06 0 0)
(9.69711e-06 0 0)
(9.69716e-06 0 0)
(9.6972e-06 0 0)
(9.69724e-06 0 0)
(9.69727e-06 0 0)
(9.69729e-06 0 0)
(9.6973e-06 0 0)
(9.6973e-06 0 0)
(9.6973e-06 0 0)
(9.6973e-06 0 0)
(9.69729e-06 0 0)
(9.69727e-06 0 0)
(9.69724e-06 0 0)
(9.6972e-06 0 0)
(9.69715e-06 0 0)
(9.69709e-06 0 0)
(9.69704e-06 0 0)
(9.69699e-06 0 0)
(9.69691e-06 0 0)
(9.69684e-06 0 0)
(9.69678e-06 0 0)
(9.6967e-06 0 0)
(9.6966e-06 0 0)
(9.69654e-06 0 0)
(9.6966e-06 0 0)
(9.69701e-06 0 0)
(9.70235e-06 0 0)
(9.7266e-06 0 0)
(9.84432e-06 0 0)
(1.0503e-05 0 0)
(1.11036e-05 0 0)
(1.11438e-05 0 0)
(1.11437e-05 0 0)
(1.11437e-05 0 0)
(1.11437e-05 0 0)
(1.11437e-05 0 0)
(1.11437e-05 0 0)
(1.11437e-05 0 0)
(1.11437e-05 0 0)
(1.11437e-05 0 0)
(1.11437e-05 0 0)
(1.11437e-05 0 0)
(1.11437e-05 0 0)
(1.11437e-05 0 0)
(1.11437e-05 0 0)
(1.11437e-05 0 0)
(1.11437e-05 0 0)
(1.11437e-05 0 0)
(1.11437e-05 0 0)
(1.11437e-05 0 0)
(1.11437e-05 0 0)
(1.11437e-05 0 0)
(1.11437e-05 0 0)
(1.11437e-05 0 0)
(1.11437e-05 0 0)
(1.11437e-05 0 0)
(1.11437e-05 0 0)
(1.11437e-05 0 0)
(1.11437e-05 0 0)
(1.11437e-05 0 0)
(1.11437e-05 0 0)
(1.11437e-05 0 0)
(1.11437e-05 0 0)
(1.11437e-05 0 0)
(1.11437e-05 0 0)
(1.11437e-05 0 0)
(1.11437e-05 0 0)
(1.11437e-05 0 0)
(1.11437e-05 0 0)
(1.11437e-05 0 0)
(1.11437e-05 0 0)
(1.11437e-05 0 0)
(1.11437e-05 0 0)
(1.11437e-05 0 0)
(1.11437e-05 0 0)
(1.11437e-05 0 0)
(1.11437e-05 0 0)
(1.11437e-05 0 0)
(1.11437e-05 0 0)
(1.11437e-05 0 0)
(1.11437e-05 0 0)
(1.11437e-05 0 0)
(1.11437e-05 0 0)
(1.11437e-05 0 0)
(1.11437e-05 0 0)
(1.11437e-05 0 0)
(1.11437e-05 0 0)
(1.11437e-05 0 0)
(1.11437e-05 0 0)
(1.11437e-05 0 0)
(1.11437e-05 0 0)
(1.11437e-05 0 0)
(1.11437e-05 0 0)
(1.11437e-05 0 0)
(1.11437e-05 0 0)
(1.11437e-05 0 0)
(1.11437e-05 0 0)
(1.11437e-05 0 0)
(1.11437e-05 0 0)
(1.11437e-05 0 0)
(1.11437e-05 0 0)
(1.11437e-05 0 0)
(1.11437e-05 0 0)
(1.11437e-05 0 0)
(1.11437e-05 0 0)
(1.11437e-05 0 0)
(1.11437e-05 0 0)
(1.11437e-05 0 0)
(1.11437e-05 0 0)
(1.11437e-05 0 0)
(1.11437e-05 0 0)
(1.11437e-05 0 0)
(1.11437e-05 0 0)
(1.11437e-05 0 0)
(1.11437e-05 0 0)
(1.11437e-05 0 0)
(1.11437e-05 0 0)
(1.11437e-05 0 0)
(1.11437e-05 0 0)
(1.11437e-05 0 0)
(1.11437e-05 0 0)
(1.11437e-05 0 0)
(1.11437e-05 0 0)
(1.11437e-05 0 0)
(1.11437e-05 0 0)
(1.11437e-05 0 0)
(1.11437e-05 0 0)
(1.11437e-05 0 0)
(1.11437e-05 0 0)
(1.11437e-05 0 0)
(1.11437e-05 0 0)
(1.11437e-05 0 0)
(1.11437e-05 0 0)
(1.11437e-05 0 0)
(1.11437e-05 0 0)
(1.11437e-05 0 0)
(1.11437e-05 0 0)
(1.11437e-05 0 0)
(1.11437e-05 0 0)
(1.11437e-05 0 0)
(1.11437e-05 0 0)
(1.11437e-05 0 0)
(1.11437e-05 0 0)
(1.11437e-05 0 0)
(1.11437e-05 0 0)
(1.11437e-05 0 0)
(1.11437e-05 0 0)
(1.11437e-05 0 0)
(1.11437e-05 0 0)
(1.11437e-05 0 0)
(1.11437e-05 0 0)
(1.11437e-05 0 0)
(1.11437e-05 0 0)
(1.11437e-05 0 0)
(1.11437e-05 0 0)
(1.11437e-05 0 0)
(1.11437e-05 0 0)
(1.11437e-05 0 0)
(1.11437e-05 0 0)
(1.11437e-05 0 0)
(1.11437e-05 0 0)
(1.11437e-05 0 0)
(1.11437e-05 0 0)
(1.11437e-05 0 0)
(1.11437e-05 0 0)
(1.11437e-05 0 0)
(1.11437e-05 0 0)
(1.11437e-05 0 0)
(1.11437e-05 0 0)
(1.11437e-05 0 0)
(1.11437e-05 0 0)
(1.11437e-05 0 0)
(1.11437e-05 0 0)
(1.11437e-05 0 0)
(1.11437e-05 0 0)
(1.11437e-05 0 0)
(1.11437e-05 0 0)
(1.11437e-05 0 0)
(1.11437e-05 0 0)
(1.11437e-05 0 0)
(1.11437e-05 0 0)
(1.11437e-05 0 0)
(1.11437e-05 0 0)
(1.11437e-05 0 0)
(1.11437e-05 0 0)
(1.11437e-05 0 0)
(1.11437e-05 0 0)
(1.11437e-05 0 0)
(1.11437e-05 0 0)
(1.11437e-05 0 0)
(1.11437e-05 0 0)
(1.11437e-05 0 0)
(1.11437e-05 0 0)
(1.11437e-05 0 0)
(1.11437e-05 0 0)
(1.11437e-05 0 0)
(1.11437e-05 0 0)
(1.11437e-05 0 0)
(1.11437e-05 0 0)
(1.11437e-05 0 0)
(1.11437e-05 0 0)
(1.11437e-05 0 0)
(1.11437e-05 0 0)
(1.11437e-05 0 0)
(1.11437e-05 0 0)
(1.11437e-05 0 0)
(1.11437e-05 0 0)
(1.11437e-05 0 0)
(1.11437e-05 0 0)
(1.11437e-05 0 0)
(1.11437e-05 0 0)
(1.11437e-05 0 0)
(1.11437e-05 0 0)
(1.11437e-05 0 0)
(1.11437e-05 0 0)
(1.11437e-05 0 0)
(1.11437e-05 0 0)
(1.11437e-05 0 0)
(1.11437e-05 0 0)
(1.11437e-05 0 0)
(1.11437e-05 0 0)
(1.11437e-05 0 0)
(1.11437e-05 0 0)
(1.11437e-05 0 0)
(1.11437e-05 0 0)
(1.11437e-05 0 0)
(1.11437e-05 0 0)
(1.11437e-05 0 0)
(1.11437e-05 0 0)
(1.11437e-05 0 0)
(1.11437e-05 0 0)
(1.11437e-05 0 0)
(1.11437e-05 0 0)
(1.11437e-05 0 0)
(1.11437e-05 0 0)
(1.11437e-05 0 0)
(1.11437e-05 0 0)
(1.11437e-05 0 0)
(1.11437e-05 0 0)
(1.11437e-05 0 0)
(1.11437e-05 0 0)
(1.11437e-05 0 0)
(1.11437e-05 0 0)
(1.11437e-05 0 0)
(1.11437e-05 0 0)
(1.11437e-05 0 0)
(1.11437e-05 0 0)
(1.11437e-05 0 0)
(1.11437e-05 0 0)
(1.11437e-05 0 0)
(1.11437e-05 0 0)
(1.11437e-05 0 0)
(1.11437e-05 0 0)
(1.11437e-05 0 0)
(1.11437e-05 0 0)
(1.11437e-05 0 0)
(1.11437e-05 0 0)
(1.11437e-05 0 0)
(1.11437e-05 0 0)
(1.11437e-05 0 0)
(1.11437e-05 0 0)
(1.11437e-05 0 0)
(1.11437e-05 0 0)
(1.11437e-05 0 0)
(1.11437e-05 0 0)
(1.11437e-05 0 0)
(1.11437e-05 0 0)
(1.11437e-05 0 0)
(1.11437e-05 0 0)
(1.11437e-05 0 0)
(1.11437e-05 0 0)
(1.11437e-05 0 0)
)
;

boundaryField
{
    inlet
    {
        type            fixedValue;
        value           uniform (0 0 0);
    }
    outlet
    {
        type            zeroGradient;
    }
    emptyWalls
    {
        type            empty;
    }
}


// ************************************************************************* //
