/*--------------------------------*- C++ -*----------------------------------*\
  =========                 |
  \\      /  F ield         | OpenFOAM: The Open Source CFD Toolbox
   \\    /   O peration     | Website:  https://openfoam.org
    \\  /    A nd           | Version:  9
     \\/     M anipulation  |
\*---------------------------------------------------------------------------*/
FoamFile
{
    format      ascii;
    class       volScalarField;
    location    "18600";
    object      kra;
}
// * * * * * * * * * * * * * * * * * * * * * * * * * * * * * * * * * * * * * //

dimensions      [0 0 0 0 0 0 0];

internalField   nonuniform List<scalar> 
1000
(
0.000236814
0.000237928
0.000239414
0.000240892
0.000242365
0.000243843
0.000245343
0.000246847
0.000248366
0.000249896
0.000251411
0.000252947
0.0002544
0.000255907
0.000257212
0.000258607
0.000259714
0.000260886
0.000261795
0.000262694
0.000263421
0.000264146
0.000265023
0.000267158
0.000274591
0.000308546
0.000541589
0.000825253
0.000882023
0.000899046
0.000907176
0.000912208
0.000915792
0.000918574
0.000920807
0.000922615
0.000924041
0.000925163
0.000926061
0.000926849
0.000927586
0.000928284
0.000928877
0.000929301
0.000929471
0.000929471
0.000929443
0.000929454
0.000929661
0.000930545
0.000931883
0.000933672
0.000935799
0.00093783
0.000939708
0.000941112
0.00094191
0.000942178
0.00094219
0.000942155
0.000941994
0.000941143
0.000939316
0.000936874
0.000933969
0.000930751
0.000927359
0.000923897
0.000920426
0.00091697
0.000913506
0.000910018
0.000906483
0.000902943
0.000899431
0.000895988
0.000892616
0.000889301
0.000886021
0.000882753
0.000879478
0.000876184
0.000872862
0.00086951
0.000866131
0.00086273
0.000859314
0.000855891
0.000852469
0.000849055
0.000845655
0.000842275
0.000838918
0.000835589
0.000832289
0.000829022
0.000825787
0.000822587
0.000819421
0.00081629
0.000813193
0.000810131
0.000807103
0.000804108
0.000801147
0.000798219
0.000795324
0.00079246
0.000789629
0.000786828
0.000784059
0.00078132
0.000778612
0.000775933
0.000773284
0.000770664
0.000768073
0.00076551
0.000762976
0.00076047
0.000757991
0.00075554
0.000753115
0.000750715
0.000748342
0.000745994
0.000743672
0.000741375
0.000739104
0.000736857
0.000734638
0.000732442
0.000730274
0.000728129
0.000726009
0.000723909
0.000721831
0.00071977
0.000717727
0.000715698
0.000713686
0.000711688
0.000709708
0.000707743
0.000705797
0.000703869
0.000701962
0.000700073
0.000698206
0.000696356
0.000694523
0.000692703
0.000690893
0.00068909
0.000687292
0.0006855
0.000683717
0.000681951
0.00068021
0.000678506
0.000676851
0.000675258
0.000673735
0.000672292
0.000670934
0.000669662
0.000668474
0.000667367
0.000666334
0.000665366
0.000664451
0.000663576
0.000662726
0.000661886
0.000661036
0.000660159
0.000659233
0.000658239
0.000657159
0.000655975
0.000654673
0.000653244
0.000651681
0.000649986
0.000648162
0.000646222
0.000644181
0.000642058
0.000639876
0.000637658
0.000635427
0.000633207
0.000631017
0.000628875
0.000626795
0.000624786
0.000622856
0.000621005
0.000619236
0.000617543
0.000615922
0.000614367
0.00061287
0.000611421
0.000610015
0.000608642
0.000607295
0.000605967
0.000604654
0.000603349
0.000602049
0.00060075
0.000599451
0.000598151
0.000596848
0.000595541
0.000594233
0.000592922
0.000591609
0.000590296
0.000588983
0.000587671
0.000586362
0.000585056
0.000583754
0.000582457
0.000581166
0.000579881
0.000578602
0.000577331
0.000576067
0.000574811
0.000573563
0.000572323
0.000571091
0.000569868
0.000568653
0.000567447
0.000566249
0.000565059
0.000563879
0.000562706
0.000561543
0.000560387
0.00055924
0.000558102
0.000556972
0.00055585
0.000554736
0.000553631
0.000552534
0.000551445
0.000550363
0.00054929
0.000548225
0.000547167
0.000546117
0.000545075
0.000544041
0.000543015
0.000541997
0.000540986
0.000539983
0.000538988
0.000538001
0.000537021
0.000536048
0.000535083
0.000534124
0.000533172
0.000532226
0.000531287
0.000530353
0.000529425
0.000528503
0.000527586
0.000526674
0.000525768
0.000524868
0.000523972
0.000523083
0.000522198
0.000521319
0.000520444
0.000519574
0.000518708
0.000517846
0.000516988
0.000516133
0.000515282
0.000514435
0.000513592
0.000512756
0.000511927
0.000511107
0.000510298
0.000509503
0.000508723
0.000507963
0.000507224
0.000506508
0.000505818
0.000505156
0.000504522
0.000503919
0.000503345
0.000502801
0.000502285
0.000501797
0.000501332
0.000500889
0.000500463
0.00050005
0.000499644
0.000499241
0.000498834
0.000498417
0.000497984
0.000497527
0.000497042
0.000496522
0.000495961
0.000495355
0.000494701
0.000493994
0.000493234
0.000492421
0.000491554
0.000490637
0.000489674
0.000488668
0.000487625
0.000486551
0.000485454
0.000484341
0.000483218
0.000482093
0.000480973
0.000479862
0.000478767
0.000477692
0.00047664
0.000475614
0.000474616
0.000473646
0.000472706
0.000471793
0.000470909
0.000470049
0.000469213
0.000468399
0.000467604
0.000466827
0.000466064
0.000465314
0.000464574
0.000463843
0.000463118
0.000462399
0.000461683
0.000460969
0.000460257
0.000459546
0.000458835
0.000458124
0.000457413
0.0004567
0.000455987
0.000455274
0.00045456
0.000453845
0.000453131
0.000452417
0.000451703
0.00045099
0.000450278
0.000449568
0.000448859
0.000448152
0.000447447
0.000446744
0.000446044
0.000445346
0.000444652
0.00044396
0.000443271
0.000442585
0.000441903
0.000441224
0.000440548
0.000439876
0.000439207
0.000438541
0.000437879
0.000437221
0.000436566
0.000435915
0.000435267
0.000434623
0.000433982
0.000433345
0.000432711
0.000432082
0.000431455
0.000430832
0.000430212
0.000429596
0.000428983
0.000428375
0.000427769
0.000427167
0.000426568
0.000425973
0.000425382
0.000424794
0.000424209
0.000423628
0.00042305
0.000422475
0.000421904
0.000421336
0.000420771
0.000420209
0.00041965
0.000419094
0.000418541
0.000417991
0.000417443
0.000416898
0.000416356
0.000415817
0.00041528
0.000414746
0.000414214
0.000413684
0.000413157
0.000412631
0.000412108
0.000411588
0.000411069
0.000410553
0.000410038
0.000409527
0.000409017
0.000408511
0.000408008
0.000407508
0.000407012
0.000406521
0.000406035
0.000405556
0.000405083
0.000404617
0.00040416
0.000403713
0.000403275
0.000402849
0.000402434
0.000402032
0.000401642
0.000401265
0.000400902
0.000400552
0.000400215
0.000399891
0.000399579
0.000399278
0.000398987
0.000398706
0.000398431
0.000398162
0.000397897
0.000397634
0.00039737
0.000397103
0.000396831
0.000396551
0.00039626
0.000395957
0.000395639
0.000395303
0.000394948
0.000394572
0.000394172
0.000393749
0.000393301
0.000392827
0.000392327
0.000391802
0.000391252
0.000390679
0.000390084
0.000389469
0.000388835
0.000388186
0.000387523
0.00038685
0.00038617
0.000385484
0.000384796
0.000384109
0.000383424
0.000382744
0.000382071
0.000381407
0.000380752
0.000380109
0.000379477
0.000378858
0.000378251
0.000377657
0.000377075
0.000376506
0.000375948
0.000375401
0.000374865
0.000374338
0.00037382
0.000373309
0.000372806
0.000372309
0.000371817
0.00037133
0.000370846
0.000370366
0.000369888
0.000369412
0.000368937
0.000368463
0.00036799
0.000367518
0.000367046
0.000366573
0.000366101
0.000365628
0.000365155
0.000364682
0.000364209
0.000363735
0.000363261
0.000362787
0.000362314
0.00036184
0.000361367
0.000360894
0.000360421
0.000359949
0.000359478
0.000359008
0.000358538
0.00035807
0.000357603
0.000357136
0.000356672
0.000356208
0.000355746
0.000355285
0.000354827
0.000354369
0.000353913
0.000353459
0.000353007
0.000352555
0.000352107
0.000351659
0.000351215
0.00035077
0.000350329
0.000349888
0.000349451
0.000349013
0.000348581
0.000348146
0.000347717
0.000347287
0.000346862
0.000346436
0.000346013
0.000345592
0.000345173
0.000344755
0.00034434
0.000343927
0.000343515
0.000343105
0.000342697
0.000342291
0.000341887
0.000341484
0.000341083
0.000340684
0.000340287
0.000339891
0.000339497
0.000339104
0.000338713
0.000338324
0.000337936
0.00033755
0.000337165
0.000336781
0.000336399
0.000336018
0.000335638
0.00033526
0.000334883
0.000334507
0.000334133
0.000333759
0.000333387
0.000333017
0.000332647
0.000332279
0.000331913
0.000331549
0.000331186
0.000330825
0.000330466
0.00033011
0.000329756
0.000329405
0.000329058
0.000328714
0.000328374
0.000328037
0.000327706
0.000327379
0.000327057
0.000326741
0.00032643
0.000326125
0.000325826
0.000325534
0.000325248
0.000324968
0.000324694
0.000324427
0.000324166
0.00032391
0.00032366
0.000323416
0.000323175
0.000322939
0.000322706
0.000322476
0.000322247
0.000322019
0.000321792
0.000321563
0.000321333
0.000321099
0.000320863
0.000320619
0.000320371
0.000320115
0.000319851
0.000319577
0.000319293
0.000318999
0.000318692
0.000318373
0.000318041
0.000317696
0.000317336
0.000316963
0.000316577
0.000316176
0.000315763
0.000315337
0.000314898
0.000314449
0.000313987
0.000313518
0.000313038
0.000312552
0.00031206
0.000311561
0.000311061
0.000310555
0.00031005
0.000309544
0.000309038
0.000308535
0.000308033
0.000307536
0.000307042
0.000306553
0.00030607
0.000305592
0.000305121
0.000304656
0.000304198
0.000303747
0.000303302
0.000302865
0.000302434
0.000302011
0.000301595
0.000301186
0.000300784
0.000300389
0.000300001
0.000299621
0.000299248
0.000298885
0.000298528
0.000298181
0.000297844
0.000297515
0.0002972
0.000296892
0.000296599
0.000296317
0.000296048
0.000295794
0.000295552
0.000295327
0.000295114
0.000294918
0.000294735
0.000294566
0.000294413
0.000294271
0.000294145
0.000294029
0.000293924
0.00029383
0.000293745
0.000293669
0.000293599
0.000293536
0.000293478
0.000293423
0.00029337
0.000293316
0.000293255
0.000293181
0.000293079
0.000292924
0.000292678
0.000292261
0.000291549
0.000290328
0.000288266
0.000284911
0.000279801
0.000272815
0.000264667
0.00025696
0.000251201
0.000247729
0.000245928
0.000245057
0.000244637
0.000244427
0.000244317
0.000244257
0.000244221
0.000244197
0.000244181
0.000244168
0.000244158
0.000244149
0.000244141
0.000244134
0.000244128
0.000244123
0.000244119
0.000244115
0.000244111
0.000244109
0.000244108
0.000244107
0.000244107
0.000244107
0.000244107
0.000244109
0.000244111
0.000244114
0.000244117
0.000244122
0.000244126
0.000244132
0.000244138
0.000244144
0.000244151
0.000244159
0.000244167
0.000244176
0.000244185
0.000244195
0.000244205
0.000244216
0.000244227
0.000244239
0.000244251
0.000244264
0.000244278
0.000244292
0.000244306
0.000244322
0.000244338
0.000244354
0.000244372
0.00024439
0.000244409
0.000244429
0.00024445
0.000244473
0.000244496
0.000244521
0.000244547
0.000244575
0.000244604
0.000244636
0.000244669
0.000244704
0.000244741
0.000244781
0.000244823
0.000244867
0.000244914
0.000244963
0.000245016
0.000245071
0.000245129
0.00024519
0.000245253
0.00024532
0.00024539
0.000245463
0.000245538
0.000245616
0.000245697
0.00024578
0.000245866
0.000245953
0.000246042
0.000246134
0.000246226
0.000246319
0.000246413
0.000246507
0.000246601
0.000246694
0.000246787
0.000246878
0.000246967
0.000247055
0.000247139
0.00024722
0.000247298
0.000247371
0.00024744
0.000247504
0.000247562
0.000247615
0.000247661
0.000247701
0.000247734
0.00024776
0.000247779
0.00024779
0.000247794
0.000247794
0.000247793
0.000247787
0.000247763
0.000247732
0.000247694
0.00024765
0.0002476
0.000247544
0.000247484
0.000247419
0.00024735
0.000247277
0.000247201
0.000247123
0.000247042
0.00024696
0.000246877
0.000246793
0.000246709
0.000246626
0.000246543
0.000246461
0.000246381
0.000246303
0.000246227
0.000246153
0.000246081
0.000246012
0.000245946
0.000245883
0.000245823
0.000245766
0.000245711
0.00024566
0.000245611
0.000245565
0.000245521
0.00024548
0.000245442
0.000245405
0.000245371
0.000245338
0.000245307
0.000245278
0.00024525
0.000245224
0.000245198
0.000245174
0.00024515
0.000245127
0.000245105
0.000245083
0.000245062
0.000245041
0.00024502
0.000244999
0.000244979
0.000244958
0.000244938
0.000244917
0.000244897
0.000244876
0.000244856
0.000244835
0.000244814
0.000244793
0.000244772
0.000244751
0.00024473
0.000244709
0.000244688
0.000244667
0.000244646
0.000244625
0.000244605
0.000244584
0.000244563
0.000244543
0.000244523
0.000244503
0.000244484
0.000244465
0.000244446
0.000244428
0.00024441
0.000244392
0.000244375
0.000244358
0.000244342
0.000244326
0.000244311
0.000244297
0.000244282
0.000244269
0.000244256
0.000244243
0.000244232
0.00024422
0.00024421
0.0002442
0.00024419
0.000244182
0.000244173
0.000244166
0.000244159
0.000244153
0.000244147
0.000244143
0.000244138
0.000244135
0.000244132
0.000244129
0.000244128
0.000244127
0.000244127
0.000244127
0.000244127
0.000244127
0.00024413
0.00024413
0.000244135
0.000244136
0.000244143
0.000244144
0.000244153
0.000244155
0.000244165
0.000244168
0.00024418
0.000244183
0.000244197
0.0002442
0.000244216
0.00024422
0.000244256
)
;

boundaryField
{
    inlet
    {
        type            calculated;
        value           uniform 0.000236304;
    }
    outlet
    {
        type            calculated;
        value           uniform 0.000244239;
    }
    emptyWalls
    {
        type            empty;
    }
}


// ************************************************************************* //
