/*--------------------------------*- C++ -*----------------------------------*\
  =========                 |
  \\      /  F ield         | OpenFOAM: The Open Source CFD Toolbox
   \\    /   O peration     | Website:  https://openfoam.org
    \\  /    A nd           | Version:  9
     \\/     M anipulation  |
\*---------------------------------------------------------------------------*/
FoamFile
{
    format      ascii;
    class       surfaceScalarField;
    location    "26650";
    object      phia;
}
// * * * * * * * * * * * * * * * * * * * * * * * * * * * * * * * * * * * * * //

dimensions      [0 2 0 0 0 0 0];

internalField   nonuniform List<scalar> 
999
(
2.74867e-10
2.74884e-10
2.74864e-10
2.7486e-10
2.74843e-10
2.7482e-10
2.74801e-10
2.74771e-10
2.74736e-10
2.74701e-10
2.7465e-10
2.7461e-10
2.74551e-10
2.7451e-10
2.74444e-10
2.74397e-10
2.74328e-10
2.74259e-10
2.74197e-10
2.74108e-10
2.7405e-10
2.73962e-10
2.73894e-10
2.7382e-10
2.73748e-10
2.73683e-10
2.73624e-10
2.73571e-10
2.73526e-10
2.73483e-10
2.73449e-10
2.73403e-10
2.73378e-10
2.73298e-10
2.73131e-10
2.72458e-10
2.69696e-10
2.52014e-10
2.19777e-10
2.14496e-10
2.13125e-10
2.12939e-10
2.13456e-10
2.14127e-10
2.14413e-10
2.14173e-10
2.13636e-10
2.13062e-10
2.12068e-10
2.10985e-10
2.10067e-10
2.09378e-10
2.08901e-10
2.08571e-10
2.08331e-10
2.08356e-10
2.0836e-10
2.08326e-10
2.08266e-10
2.08174e-10
2.08048e-10
2.0791e-10
2.07774e-10
2.07623e-10
2.07469e-10
2.07315e-10
2.07165e-10
2.07017e-10
2.06875e-10
2.06737e-10
2.06604e-10
2.06474e-10
2.06351e-10
2.06231e-10
2.06116e-10
2.06005e-10
2.05898e-10
2.05795e-10
2.05695e-10
2.05599e-10
2.05506e-10
2.05419e-10
2.05335e-10
2.05256e-10
2.05182e-10
2.05111e-10
2.05043e-10
2.04979e-10
2.04917e-10
2.04859e-10
2.04804e-10
2.04752e-10
2.04703e-10
2.04659e-10
2.04621e-10
2.04588e-10
2.0456e-10
2.04537e-10
2.04517e-10
2.04499e-10
2.04483e-10
2.04468e-10
2.04456e-10
2.04446e-10
2.04439e-10
2.04435e-10
2.04432e-10
2.04432e-10
2.04436e-10
2.04443e-10
2.04456e-10
2.04471e-10
2.0449e-10
2.04508e-10
2.04523e-10
2.04534e-10
2.04538e-10
2.04535e-10
2.04528e-10
2.04519e-10
2.0451e-10
2.04503e-10
2.04501e-10
2.04511e-10
2.0454e-10
2.04598e-10
2.04692e-10
2.04825e-10
2.04998e-10
2.05202e-10
2.05431e-10
2.05675e-10
2.05926e-10
2.06177e-10
2.06422e-10
2.06658e-10
2.0688e-10
2.07083e-10
2.07259e-10
2.074e-10
2.07501e-10
2.07553e-10
2.07554e-10
2.075e-10
2.07393e-10
2.07238e-10
2.07042e-10
2.06814e-10
2.06563e-10
2.06301e-10
2.06038e-10
2.05781e-10
2.05539e-10
2.05317e-10
2.0512e-10
2.04949e-10
2.04804e-10
2.04687e-10
2.04593e-10
2.04521e-10
2.04467e-10
2.04429e-10
2.04402e-10
2.04383e-10
2.0437e-10
2.04359e-10
2.04349e-10
2.04337e-10
2.04324e-10
2.04307e-10
2.04286e-10
2.04262e-10
2.04233e-10
2.04201e-10
2.04166e-10
2.04128e-10
2.04087e-10
2.04045e-10
2.04001e-10
2.03956e-10
2.0391e-10
2.03864e-10
2.03817e-10
2.03771e-10
2.03725e-10
2.0368e-10
2.03635e-10
2.03591e-10
2.03548e-10
2.03505e-10
2.03464e-10
2.03423e-10
2.03383e-10
2.03345e-10
2.03308e-10
2.03272e-10
2.03237e-10
2.03203e-10
2.0317e-10
2.03139e-10
2.03109e-10
2.03079e-10
2.03051e-10
2.03023e-10
2.02997e-10
2.02972e-10
2.02948e-10
2.02925e-10
2.02903e-10
2.02883e-10
2.02864e-10
2.02847e-10
2.02831e-10
2.02817e-10
2.02804e-10
2.02792e-10
2.0278e-10
2.0277e-10
2.02759e-10
2.0275e-10
2.0274e-10
2.02732e-10
2.02723e-10
2.02716e-10
2.02709e-10
2.02703e-10
2.02699e-10
2.02696e-10
2.02694e-10
2.02694e-10
2.02694e-10
2.02696e-10
2.02698e-10
2.027e-10
2.02702e-10
2.02703e-10
2.02702e-10
2.027e-10
2.02697e-10
2.02692e-10
2.02688e-10
2.02686e-10
2.02686e-10
2.02691e-10
2.02703e-10
2.02724e-10
2.02755e-10
2.02798e-10
2.02855e-10
2.02926e-10
2.03012e-10
2.03112e-10
2.03226e-10
2.03354e-10
2.03493e-10
2.03643e-10
2.038e-10
2.03963e-10
2.04128e-10
2.04293e-10
2.04454e-10
2.04608e-10
2.0475e-10
2.04879e-10
2.04989e-10
2.05079e-10
2.05145e-10
2.05186e-10
2.052e-10
2.05187e-10
2.05147e-10
2.0508e-10
2.04989e-10
2.04877e-10
2.04745e-10
2.04599e-10
2.04441e-10
2.04275e-10
2.04106e-10
2.03937e-10
2.03771e-10
2.0361e-10
2.03458e-10
2.03316e-10
2.03186e-10
2.03067e-10
2.0296e-10
2.02866e-10
2.02782e-10
2.0271e-10
2.02647e-10
2.02593e-10
2.02546e-10
2.02505e-10
2.02469e-10
2.02437e-10
2.02408e-10
2.0238e-10
2.02353e-10
2.02327e-10
2.023e-10
2.02273e-10
2.02245e-10
2.02215e-10
2.02185e-10
2.02152e-10
2.02119e-10
2.02084e-10
2.02048e-10
2.02011e-10
2.01972e-10
2.01933e-10
2.01894e-10
2.01854e-10
2.01813e-10
2.01773e-10
2.01732e-10
2.01691e-10
2.01651e-10
2.01611e-10
2.01571e-10
2.01532e-10
2.01493e-10
2.01455e-10
2.01418e-10
2.01381e-10
2.01345e-10
2.0131e-10
2.01275e-10
2.01242e-10
2.01209e-10
2.01177e-10
2.01145e-10
2.01115e-10
2.01086e-10
2.01057e-10
2.01029e-10
2.01003e-10
2.00977e-10
2.00952e-10
2.00928e-10
2.00905e-10
2.00883e-10
2.00862e-10
2.00842e-10
2.00823e-10
2.00805e-10
2.00787e-10
2.00771e-10
2.00755e-10
2.00741e-10
2.00726e-10
2.00713e-10
2.007e-10
2.00688e-10
2.00676e-10
2.00665e-10
2.00655e-10
2.00646e-10
2.00637e-10
2.00629e-10
2.00622e-10
2.00615e-10
2.00609e-10
2.00604e-10
2.00599e-10
2.00595e-10
2.00591e-10
2.00587e-10
2.00583e-10
2.00579e-10
2.00576e-10
2.00572e-10
2.00569e-10
2.00566e-10
2.00564e-10
2.00563e-10
2.00564e-10
2.00568e-10
2.00575e-10
2.00585e-10
2.00601e-10
2.00621e-10
2.00648e-10
2.00682e-10
2.00723e-10
2.00771e-10
2.00828e-10
2.00893e-10
2.00966e-10
2.01047e-10
2.01136e-10
2.01232e-10
2.01334e-10
2.01442e-10
2.01553e-10
2.01668e-10
2.01784e-10
2.019e-10
2.02015e-10
2.02126e-10
2.02231e-10
2.0233e-10
2.02421e-10
2.02501e-10
2.02569e-10
2.02624e-10
2.02665e-10
2.0269e-10
2.027e-10
2.02694e-10
2.02672e-10
2.02634e-10
2.02581e-10
2.02514e-10
2.02435e-10
2.02344e-10
2.02243e-10
2.02134e-10
2.02019e-10
2.01899e-10
2.01777e-10
2.01655e-10
2.01533e-10
2.01413e-10
2.01296e-10
2.01184e-10
2.01077e-10
2.00976e-10
2.00881e-10
2.00793e-10
2.00711e-10
2.00635e-10
2.00566e-10
2.00502e-10
2.00444e-10
2.0039e-10
2.00341e-10
2.00296e-10
2.00253e-10
2.00214e-10
2.00177e-10
2.00141e-10
2.00107e-10
2.00074e-10
2.00041e-10
2.00009e-10
1.99976e-10
1.99944e-10
1.99911e-10
1.99878e-10
1.99844e-10
1.99809e-10
1.99774e-10
1.99739e-10
1.99703e-10
1.99666e-10
1.99629e-10
1.99592e-10
1.99554e-10
1.99517e-10
1.99479e-10
1.99441e-10
1.99403e-10
1.99365e-10
1.99327e-10
1.99289e-10
1.99252e-10
1.99215e-10
1.99178e-10
1.99142e-10
1.99107e-10
1.99072e-10
1.99037e-10
1.99003e-10
1.9897e-10
1.98937e-10
1.98905e-10
1.98874e-10
1.98843e-10
1.98813e-10
1.98784e-10
1.98756e-10
1.98728e-10
1.98702e-10
1.98676e-10
1.9865e-10
1.98626e-10
1.98602e-10
1.9858e-10
1.98558e-10
1.98536e-10
1.98516e-10
1.98496e-10
1.98477e-10
1.98459e-10
1.98442e-10
1.98425e-10
1.98409e-10
1.98394e-10
1.98379e-10
1.98365e-10
1.98352e-10
1.98339e-10
1.98327e-10
1.98316e-10
1.98305e-10
1.98295e-10
1.98285e-10
1.98276e-10
1.98267e-10
1.98259e-10
1.98251e-10
1.98244e-10
1.98237e-10
1.98231e-10
1.98225e-10
1.98219e-10
1.98213e-10
1.98209e-10
1.98204e-10
1.982e-10
1.98198e-10
1.98196e-10
1.98195e-10
1.98195e-10
1.98198e-10
1.98202e-10
1.98209e-10
1.98218e-10
1.98231e-10
1.98247e-10
1.98267e-10
1.98291e-10
1.98319e-10
1.98352e-10
1.98389e-10
1.98432e-10
1.9848e-10
1.98533e-10
1.98591e-10
1.98653e-10
1.9872e-10
1.98792e-10
1.98867e-10
1.98946e-10
1.99027e-10
1.99111e-10
1.99196e-10
1.99281e-10
1.99366e-10
1.99449e-10
1.99531e-10
1.99609e-10
1.99683e-10
1.99752e-10
1.99815e-10
1.99872e-10
1.9992e-10
1.9996e-10
1.99991e-10
2.00013e-10
2.00024e-10
2.00026e-10
2.00017e-10
1.99997e-10
1.99968e-10
1.99929e-10
1.9988e-10
1.99823e-10
1.99757e-10
1.99685e-10
1.99606e-10
1.99521e-10
1.99432e-10
1.9934e-10
1.99245e-10
1.99149e-10
1.99052e-10
1.98956e-10
1.9886e-10
1.98766e-10
1.98674e-10
1.98586e-10
1.985e-10
1.98418e-10
1.9834e-10
1.98265e-10
1.98194e-10
1.98127e-10
1.98064e-10
1.98004e-10
1.97948e-10
1.97895e-10
1.97845e-10
1.97798e-10
1.97753e-10
1.9771e-10
1.97669e-10
1.97629e-10
1.97591e-10
1.97554e-10
1.97518e-10
1.97482e-10
1.97447e-10
1.97412e-10
1.97378e-10
1.97343e-10
1.97309e-10
1.97275e-10
1.9724e-10
1.97206e-10
1.97171e-10
1.97136e-10
1.971e-10
1.97065e-10
1.9703e-10
1.96994e-10
1.96958e-10
1.96923e-10
1.96887e-10
1.96851e-10
1.96816e-10
1.9678e-10
1.96745e-10
1.9671e-10
1.96675e-10
1.96641e-10
1.96607e-10
1.96573e-10
1.9654e-10
1.96506e-10
1.96474e-10
1.96442e-10
1.96411e-10
1.9638e-10
1.96349e-10
1.9632e-10
1.9629e-10
1.96262e-10
1.96234e-10
1.96207e-10
1.9618e-10
1.96154e-10
1.96129e-10
1.96104e-10
1.9608e-10
1.96057e-10
1.96034e-10
1.96012e-10
1.95991e-10
1.9597e-10
1.9595e-10
1.9593e-10
1.95912e-10
1.95894e-10
1.95876e-10
1.95859e-10
1.95843e-10
1.95827e-10
1.95812e-10
1.95797e-10
1.95784e-10
1.9577e-10
1.95757e-10
1.95744e-10
1.95733e-10
1.95721e-10
1.9571e-10
1.95699e-10
1.95689e-10
1.95679e-10
1.9567e-10
1.95661e-10
1.95653e-10
1.95645e-10
1.95637e-10
1.9563e-10
1.95623e-10
1.95617e-10
1.95612e-10
1.95606e-10
1.95603e-10
1.95599e-10
1.95597e-10
1.95596e-10
1.95597e-10
1.95599e-10
1.95602e-10
1.95608e-10
1.95615e-10
1.95625e-10
1.95637e-10
1.95652e-10
1.9567e-10
1.9569e-10
1.95714e-10
1.9574e-10
1.9577e-10
1.95804e-10
1.95841e-10
1.95881e-10
1.95924e-10
1.95971e-10
1.9602e-10
1.96073e-10
1.96128e-10
1.96186e-10
1.96245e-10
1.96306e-10
1.96368e-10
1.96432e-10
1.96495e-10
1.96559e-10
1.96622e-10
1.96684e-10
1.96744e-10
1.96802e-10
1.96856e-10
1.96908e-10
1.96955e-10
1.96999e-10
1.97036e-10
1.97069e-10
1.97096e-10
1.97116e-10
1.9713e-10
1.97138e-10
1.97138e-10
1.97131e-10
1.97117e-10
1.97097e-10
1.97069e-10
1.97034e-10
1.96994e-10
1.96947e-10
1.96894e-10
1.96836e-10
1.96774e-10
1.96707e-10
1.96637e-10
1.96563e-10
1.96487e-10
1.96409e-10
1.9633e-10
1.9625e-10
1.9617e-10
1.96089e-10
1.9601e-10
1.95931e-10
1.95854e-10
1.95779e-10
1.95706e-10
1.95634e-10
1.95565e-10
1.95498e-10
1.95434e-10
1.95372e-10
1.95313e-10
1.95255e-10
1.95201e-10
1.95148e-10
1.95099e-10
1.9505e-10
1.95004e-10
1.94958e-10
1.94916e-10
1.94873e-10
1.94833e-10
1.94793e-10
1.94755e-10
1.94717e-10
1.9468e-10
1.94643e-10
1.94608e-10
1.94572e-10
1.94537e-10
1.94501e-10
1.94467e-10
1.94432e-10
1.94397e-10
1.94362e-10
1.94327e-10
1.94293e-10
1.94258e-10
1.94223e-10
1.94188e-10
1.94154e-10
1.94119e-10
1.94084e-10
1.9405e-10
1.94015e-10
1.93981e-10
1.93946e-10
1.93912e-10
1.93878e-10
1.93844e-10
1.93811e-10
1.93777e-10
1.93744e-10
1.93712e-10
1.93679e-10
1.93647e-10
1.93616e-10
1.93585e-10
1.93554e-10
1.93524e-10
1.93494e-10
1.93464e-10
1.93435e-10
1.93407e-10
1.93379e-10
1.93352e-10
1.93325e-10
1.93299e-10
1.93273e-10
1.93248e-10
1.93223e-10
1.93199e-10
1.93175e-10
1.93152e-10
1.9313e-10
1.93108e-10
1.93086e-10
1.93066e-10
1.93045e-10
1.93026e-10
1.93006e-10
1.92987e-10
1.92969e-10
1.92951e-10
1.92934e-10
1.92917e-10
1.92901e-10
1.92885e-10
1.9287e-10
1.92855e-10
1.9284e-10
1.92826e-10
1.92812e-10
1.92799e-10
1.92786e-10
1.92773e-10
1.92761e-10
1.9275e-10
1.92738e-10
1.92728e-10
1.92717e-10
1.92707e-10
1.92698e-10
1.92689e-10
1.92681e-10
1.92673e-10
1.92666e-10
1.9266e-10
1.92655e-10
1.92651e-10
1.92648e-10
1.92646e-10
1.92645e-10
1.92646e-10
1.92648e-10
1.92652e-10
1.92657e-10
1.92664e-10
1.92674e-10
1.92685e-10
1.92698e-10
1.92713e-10
1.92731e-10
1.92751e-10
1.92773e-10
1.92797e-10
1.92824e-10
1.92853e-10
1.92885e-10
1.92919e-10
1.92955e-10
1.92992e-10
1.93032e-10
1.93074e-10
1.93117e-10
1.93162e-10
1.93207e-10
1.93253e-10
1.933e-10
1.93347e-10
1.93394e-10
1.93441e-10
1.93487e-10
1.93533e-10
1.93578e-10
1.93622e-10
1.93664e-10
1.93703e-10
1.93741e-10
1.93774e-10
1.93805e-10
1.9383e-10
1.93853e-10
1.9387e-10
1.93884e-10
1.93892e-10
1.93897e-10
1.93895e-10
1.93892e-10
1.9388e-10
1.93866e-10
1.93844e-10
1.93816e-10
1.93785e-10
1.93749e-10
1.9371e-10
1.93666e-10
1.93618e-10
1.93566e-10
1.93511e-10
1.93453e-10
1.93392e-10
1.93329e-10
1.93263e-10
1.93196e-10
1.93128e-10
1.93058e-10
1.92989e-10
1.92918e-10
1.92848e-10
1.92778e-10
1.92708e-10
1.92639e-10
1.92571e-10
1.92504e-10
1.92438e-10
1.92374e-10
1.92311e-10
1.9225e-10
1.9219e-10
1.92132e-10
1.92076e-10
1.92021e-10
1.91967e-10
1.91915e-10
1.91865e-10
1.91816e-10
1.91768e-10
1.91722e-10
1.91676e-10
1.91632e-10
1.91589e-10
1.91546e-10
1.91505e-10
1.91464e-10
1.91424e-10
1.91384e-10
1.91345e-10
1.91306e-10
1.91267e-10
1.91229e-10
1.91191e-10
1.91154e-10
1.91116e-10
1.91079e-10
1.91042e-10
1.91005e-10
1.90968e-10
1.90931e-10
1.90894e-10
1.90857e-10
1.90821e-10
1.90784e-10
1.90748e-10
1.90711e-10
1.90675e-10
1.90639e-10
1.90603e-10
1.90567e-10
1.90531e-10
1.90496e-10
1.9046e-10
1.90425e-10
1.90391e-10
1.90356e-10
1.90322e-10
1.90288e-10
1.90254e-10
1.90221e-10
1.90188e-10
1.90155e-10
1.90123e-10
1.90091e-10
1.9006e-10
1.90029e-10
1.89999e-10
1.89969e-10
1.89939e-10
1.8991e-10
1.89882e-10
1.89853e-10
1.89826e-10
)
;

boundaryField
{
    inlet
    {
        type            calculated;
        value           uniform -2.74882e-10;
    }
    outlet
    {
        type            calculated;
        value           uniform 3.1164e-11;
    }
    emptyWalls
    {
        type            empty;
        value           nonuniform List<scalar> 0();
    }
}


// ************************************************************************* //
