/*--------------------------------*- C++ -*----------------------------------*\
  =========                 |
  \\      /  F ield         | OpenFOAM: The Open Source CFD Toolbox
   \\    /   O peration     | Website:  https://openfoam.org
    \\  /    A nd           | Version:  9
     \\/     M anipulation  |
\*---------------------------------------------------------------------------*/
FoamFile
{
    format      ascii;
    class       volScalarField;
    location    "26650";
    object      Sb;
}
// * * * * * * * * * * * * * * * * * * * * * * * * * * * * * * * * * * * * * //

dimensions      [0 0 0 0 0 0 0];

internalField   nonuniform List<scalar> 
1000
(
0.350215
0.350581
0.351116
0.351643
0.35217
0.352709
0.353246
0.353789
0.354342
0.354898
0.355461
0.35604
0.356604
0.357206
0.357762
0.35839
0.358933
0.359575
0.360111
0.360733
0.36127
0.361839
0.362362
0.362868
0.36334
0.363782
0.36418
0.364546
0.364868
0.365159
0.365415
0.365641
0.365864
0.366086
0.366589
0.368084
0.374011
0.408129
0.570447
0.645283
0.660218
0.665703
0.668549
0.67036
0.671726
0.672898
0.673945
0.674876
0.675714
0.676518
0.677237
0.67787
0.678424
0.678912
0.679346
0.679727
0.680063
0.680374
0.68066
0.680924
0.681168
0.681393
0.681598
0.681785
0.681954
0.682108
0.682245
0.682368
0.682477
0.682572
0.682654
0.682723
0.682781
0.682827
0.682862
0.682885
0.682899
0.6829
0.682892
0.682873
0.682843
0.682801
0.682749
0.682686
0.682612
0.682526
0.68243
0.682321
0.6822
0.682067
0.681921
0.681761
0.681587
0.681397
0.681189
0.680961
0.680711
0.680434
0.680126
0.679778
0.679383
0.678931
0.678412
0.677818
0.677151
0.676418
0.675638
0.674827
0.673994
0.673146
0.672288
0.671424
0.670556
0.669686
0.668816
0.667947
0.66708
0.666216
0.665355
0.664497
0.663643
0.662792
0.661945
0.661101
0.66026
0.659422
0.658586
0.657752
0.65692
0.65609
0.655262
0.654437
0.653616
0.652799
0.651986
0.651179
0.650376
0.649578
0.648786
0.648
0.647221
0.646448
0.645682
0.644924
0.644173
0.643429
0.642691
0.64196
0.641234
0.640512
0.639795
0.639081
0.638371
0.637662
0.636956
0.636252
0.63555
0.63485
0.634151
0.633455
0.632761
0.632069
0.63138
0.630693
0.630009
0.629329
0.628651
0.627977
0.627306
0.626638
0.625973
0.625312
0.624654
0.623999
0.623348
0.622699
0.622054
0.621411
0.620772
0.620135
0.619502
0.618871
0.618243
0.617617
0.616995
0.616375
0.615757
0.615142
0.61453
0.613921
0.613313
0.612709
0.612106
0.611507
0.610909
0.610314
0.609722
0.609131
0.608543
0.607958
0.607374
0.606793
0.606214
0.605637
0.605063
0.604491
0.603921
0.603353
0.602787
0.602223
0.601662
0.601102
0.600544
0.599989
0.599435
0.598884
0.598334
0.597787
0.597241
0.596698
0.596156
0.595617
0.595079
0.594543
0.594009
0.593477
0.592947
0.592419
0.591892
0.591367
0.590844
0.590323
0.589803
0.589286
0.58877
0.588256
0.587743
0.587233
0.586724
0.586217
0.585712
0.585209
0.584707
0.584206
0.583707
0.583209
0.582712
0.582216
0.581721
0.581227
0.580734
0.580242
0.57975
0.579259
0.578769
0.57828
0.577792
0.577306
0.57682
0.576336
0.575854
0.575373
0.574894
0.574418
0.573943
0.573472
0.573002
0.572536
0.572072
0.571611
0.571153
0.570698
0.570245
0.569795
0.569347
0.568901
0.568458
0.568016
0.567576
0.567137
0.566699
0.566262
0.565827
0.565391
0.564957
0.564523
0.56409
0.563657
0.563225
0.562794
0.562363
0.561933
0.561504
0.561076
0.560648
0.560222
0.559796
0.559371
0.558948
0.558525
0.558104
0.557684
0.557265
0.556847
0.55643
0.556015
0.5556
0.555187
0.554775
0.554364
0.553954
0.553545
0.553137
0.552731
0.552325
0.55192
0.551517
0.551114
0.550712
0.550312
0.549912
0.549513
0.549116
0.548719
0.548323
0.547928
0.547534
0.547141
0.546749
0.546357
0.545967
0.545577
0.545188
0.544801
0.544414
0.544028
0.543642
0.543258
0.542874
0.542492
0.54211
0.541729
0.541348
0.540969
0.54059
0.540212
0.539835
0.539459
0.539084
0.538709
0.538335
0.537962
0.53759
0.537219
0.536848
0.536478
0.536109
0.53574
0.535373
0.535006
0.53464
0.534274
0.53391
0.533546
0.533183
0.53282
0.532458
0.532097
0.531737
0.531378
0.531019
0.530661
0.530304
0.529947
0.529591
0.529236
0.528881
0.528528
0.528174
0.527822
0.527469
0.527118
0.526767
0.526416
0.526065
0.525715
0.525366
0.525016
0.524667
0.524318
0.52397
0.523622
0.523274
0.522926
0.522579
0.522232
0.521886
0.52154
0.521195
0.520851
0.520507
0.520165
0.519823
0.519482
0.519142
0.518803
0.518466
0.51813
0.517795
0.517461
0.517129
0.516798
0.516468
0.51614
0.515813
0.515487
0.515162
0.514838
0.514515
0.514193
0.513872
0.513552
0.513232
0.512913
0.512594
0.512275
0.511957
0.51164
0.511322
0.511005
0.510688
0.510372
0.510055
0.509739
0.509423
0.509107
0.508792
0.508477
0.508162
0.507848
0.507534
0.50722
0.506907
0.506594
0.506282
0.50597
0.505659
0.505348
0.505037
0.504728
0.504418
0.504109
0.503801
0.503493
0.503186
0.502879
0.502572
0.502266
0.501961
0.501656
0.501351
0.501047
0.500744
0.500441
0.500138
0.499836
0.499534
0.499233
0.498932
0.498631
0.498331
0.498031
0.497732
0.497433
0.497135
0.496837
0.496539
0.496242
0.495945
0.495648
0.495352
0.495057
0.494761
0.494466
0.494172
0.493877
0.493584
0.49329
0.492997
0.492704
0.492412
0.49212
0.491828
0.491537
0.491246
0.490955
0.490665
0.490375
0.490085
0.489796
0.489507
0.489219
0.488931
0.488643
0.488355
0.488068
0.487781
0.487495
0.487209
0.486923
0.486637
0.486352
0.486068
0.485783
0.485499
0.485215
0.484932
0.484649
0.484366
0.484083
0.483801
0.483519
0.483238
0.482957
0.482676
0.482395
0.482115
0.481834
0.481555
0.481275
0.480995
0.480716
0.480437
0.480158
0.479879
0.479601
0.479322
0.479044
0.478765
0.478487
0.478209
0.477931
0.477653
0.477375
0.477098
0.47682
0.476543
0.476266
0.475989
0.475712
0.475436
0.47516
0.474885
0.47461
0.474335
0.474061
0.473787
0.473514
0.473241
0.472969
0.472698
0.472427
0.472157
0.471888
0.471619
0.471351
0.471084
0.470817
0.470551
0.470285
0.470021
0.469756
0.469493
0.469229
0.468967
0.468704
0.468442
0.46818
0.467919
0.467658
0.467397
0.467136
0.466875
0.466615
0.466354
0.466094
0.465834
0.465574
0.465314
0.465054
0.464794
0.464534
0.464275
0.464015
0.463755
0.463496
0.463237
0.462978
0.462719
0.46246
0.462201
0.461943
0.461684
0.461426
0.461168
0.460911
0.460653
0.460396
0.460139
0.459882
0.459625
0.459368
0.459112
0.458856
0.4586
0.458344
0.458089
0.457834
0.457579
0.457324
0.457069
0.456814
0.45656
0.456306
0.456052
0.455798
0.455545
0.455291
0.455038
0.454785
0.454532
0.454279
0.454027
0.453774
0.453522
0.45327
0.453018
0.452766
0.452514
0.452262
0.452011
0.45176
0.451509
0.451258
0.451007
0.450756
0.450506
0.450255
0.450005
0.449755
0.449505
0.449255
0.449005
0.448755
0.448506
0.448256
0.448008
0.447758
0.447509
0.44726
0.447012
0.446763
0.446515
0.446266
0.446018
0.445769
0.445522
0.445273
0.445026
0.444778
0.444531
0.444283
0.444036
0.443788
0.443542
0.443294
0.443048
0.442801
0.442554
0.442307
0.442061
0.441814
0.441569
0.441322
0.441077
0.44083
0.440585
0.440338
0.440093
0.439846
0.439601
0.439355
0.43911
0.438863
0.438619
0.438372
0.438127
0.437881
0.437636
0.437389
0.437145
0.436898
0.436653
0.436407
0.436162
0.435915
0.43567
0.435424
0.435178
0.434932
0.434687
0.434441
0.434196
0.43395
0.433705
0.433459
0.433214
0.432969
0.432725
0.43248
0.432236
0.431991
0.431747
0.431504
0.43126
0.431017
0.430774
0.430532
0.430289
0.430047
0.429806
0.429564
0.429323
0.429083
0.428842
0.428602
0.428362
0.428122
0.427883
0.427643
0.427404
0.427165
0.426926
0.426687
0.426449
0.42621
0.425972
0.425733
0.425495
0.425256
0.425018
0.424779
0.424541
0.424302
0.424064
0.423825
0.423587
0.423347
0.423109
0.422869
0.422631
0.422391
0.422153
0.421913
0.421675
0.421435
0.421196
0.420956
0.420718
0.420477
0.420239
0.419998
0.41976
0.419519
0.419281
0.41904
0.418802
0.418561
0.418323
0.418082
0.417844
0.417603
0.417365
0.417124
0.416886
0.416645
0.416407
0.416166
0.415927
0.415686
0.415448
0.415207
0.414969
0.414727
0.414489
0.414248
0.414009
0.413768
0.413529
0.413288
0.413049
0.412808
0.412569
0.412328
0.412089
0.411847
0.411608
0.411366
0.411127
0.410885
0.410646
0.410404
0.410165
0.409922
0.409683
0.409441
0.409201
0.408958
0.408718
0.408476
0.408236
0.407993
0.407753
0.40751
0.407269
0.407026
0.406785
0.406542
0.406301
0.406058
0.405817
0.405573
0.405332
0.405088
0.404846
0.404602
0.404361
0.404116
0.403874
0.40363
0.403388
0.403143
0.402901
0.402655
0.402413
0.402168
0.401925
0.401679
0.401436
0.40119
0.400947
0.400701
0.400457
0.400211
0.399967
0.39972
0.399476
0.399229
0.398984
0.398737
0.398492
0.398244
0.397998
0.39775
0.397505
0.397256
0.39701
0.396761
0.396514
0.396265
0.396018
0.395768
0.39552
0.39527
0.395022
0.394771
0.394522
0.394271
0.394022
0.39377
0.39352
0.393268
0.393018
0.392765
0.392515
0.392262
0.392011
0.391757
0.391506
0.391252
0.391
0.390746
0.390494
0.390239
0.389986
0.389731
0.389479
0.389223
0.38897
0.388714
0.388462
0.388205
0.387952
0.387695
0.387442
0.387185
0.386932
0.386674
0.386421
0.386163
0.38591
0.385651
0.385398
0.385139
0.384885
0.384625
0.384372
0.384111
0.383858
0.383595
0.383343
0.383079
0.382827
0.382561
0.382309
0.382042
0.38179
0.381523
0.381269
0.381002
0.380747
0.380479
0.380224
0.379954
0.379699
0.379428
0.379172
0.3789
0.378643
0.378371
0.378113
0.37784
0.37758
0.377307
0.377046
0.376772
0.37651
0.376235
0.375973
0.375696
0.375434
0.375155
0.374893
0.374611
0.374352
0.374065
0.37381
0.373516
0.373266
0.372964
0.37272
0.37241
0.372174
0.371853
0.371625
0.371295
0.371075
0.370734
0.370522
0.370172
0.369968
0.369607
0.369412
0.36904
0.368853
0.368472
0.368292
0.367903
0.367728
0.367332
0.367161
0.36676
0.366592
0.366186
0.366021
0.365611
0.365449
0.365034
0.364874
0.364456
0.364297
0.363878
0.363719
0.363299
0.36314
0.36272
0.36256
0.362141
0.361984
0.29735
)
;

boundaryField
{
    inlet
    {
        type            fixedValue;
        value           uniform 0.35;
    }
    outlet
    {
        type            zeroGradient;
    }
    emptyWalls
    {
        type            empty;
    }
}


// ************************************************************************* //
