/*--------------------------------*- C++ -*----------------------------------*\
  =========                 |
  \\      /  F ield         | OpenFOAM: The Open Source CFD Toolbox
   \\    /   O peration     | Website:  https://openfoam.org
    \\  /    A nd           | Version:  9
     \\/     M anipulation  |
\*---------------------------------------------------------------------------*/
FoamFile
{
    format      ascii;
    class       volScalarField;
    location    "2050";
    object      krc;
}
// * * * * * * * * * * * * * * * * * * * * * * * * * * * * * * * * * * * * * //

dimensions      [0 0 0 0 0 0 0];

internalField   nonuniform List<scalar> 
1000
(
4.92903e-05
0.000852835
0.0120688
0.0427534
0.0509373
0.0544613
0.0573308
0.0622036
0.0687614
0.0757625
0.0828841
0.0899827
0.0969934
0.103886
0.110648
0.117275
0.123768
0.13013
0.136366
0.142481
0.148481
0.154373
0.160161
0.165853
0.171454
0.17697
0.182403
0.187762
0.193049
0.198268
0.203424
0.208521
0.213563
0.218553
0.223495
0.228391
0.233245
0.238061
0.24284
0.247587
0.252303
0.256992
0.261656
0.266299
0.270922
0.275529
0.280121
0.284702
0.289274
0.29384
0.298401
0.302963
0.307527
0.312096
0.316672
0.321261
0.325864
0.330487
0.335131
0.339802
0.344503
0.349237
0.354011
0.358828
0.363692
0.368611
0.373587
0.378626
0.383729
0.388897
0.394127
0.399417
0.404765
0.41018
0.415702
0.421457
0.427725
0.435085
0.444565
0.45775
0.476558
0.50222
0.533527
0.565934
0.59371
0.61362
0.625996
0.63297
0.636666
0.638553
0.639495
0.639958
0.64018
0.640284
0.640332
0.640353
0.640359
0.640358
0.640353
0.640346
0.640337
0.640327
0.640315
0.640303
0.640289
0.640275
0.640259
0.640243
0.640226
0.640209
0.640191
0.640173
0.640154
0.640137
0.640119
0.640102
0.640087
0.640073
0.640061
0.640052
0.640047
0.640046
0.640046
0.640046
0.640051
0.640065
0.640086
0.640111
0.640142
0.640177
0.640216
0.640257
0.640301
0.640346
0.640392
0.640436
0.640478
0.640516
0.640551
0.640581
0.640606
0.640626
0.640641
0.64065
0.640656
0.640658
0.640658
0.640657
0.640652
0.640641
0.640629
0.640616
0.640602
0.640588
0.640573
0.640559
0.640546
0.640533
0.640521
0.640511
0.640501
0.640492
0.640485
0.640479
0.640473
0.640469
0.640465
0.640463
0.640461
0.64046
0.640459
0.640459
0.640459
0.640459
0.64046
0.640461
0.640462
0.640463
0.640464
0.640466
0.640467
0.640468
0.640469
0.64047
0.640471
0.640472
0.640473
0.640474
0.640475
0.640475
0.640476
0.640477
0.640477
0.640478
0.640478
0.640479
0.640479
0.64048
0.640481
0.640482
0.640483
0.640484
0.640485
0.640487
0.640488
0.640489
0.640491
0.640492
0.640494
0.640496
0.640498
0.6405
0.640502
0.640505
0.640507
0.640509
0.640511
0.640514
0.640516
0.640519
0.640522
0.640524
0.640527
0.64053
0.640532
0.640535
0.640538
0.640541
0.640543
0.640546
0.640549
0.640551
0.640554
0.640556
0.640558
0.64056
0.640562
0.640563
0.640565
0.640566
0.640567
0.640568
0.640568
0.640568
0.640567
0.640567
0.640566
0.640565
0.640563
0.64056
0.640557
0.640554
0.64055
0.640546
0.640541
0.640536
0.640531
0.640525
0.640519
0.640512
0.640505
0.640498
0.64049
0.640482
0.640474
0.640466
0.640457
0.640448
0.640438
0.640429
0.64042
0.64041
0.640401
0.640391
0.640381
0.640372
0.640362
0.640352
0.640343
0.640333
0.640324
0.640314
0.640305
0.640296
0.640287
0.640278
0.640268
0.640259
0.64025
0.640241
0.640231
0.640222
0.640212
0.640201
0.640191
0.64018
0.640168
0.640155
0.640142
0.640129
0.640115
0.6401
0.640084
0.640067
0.64005
0.640032
0.640013
0.639993
0.639973
0.639952
0.639931
0.639909
0.639888
0.639867
0.639847
0.639828
0.63981
0.639794
0.639781
0.639772
0.639767
0.639766
0.639766
0.639768
0.639777
0.639799
0.639835
0.639874
0.639928
0.639984
0.640055
0.640122
0.640202
0.640273
0.640355
0.640421
0.640499
0.640549
0.640614
0.640654
0.640706
0.640719
0.640762
0.640827
0.641176
0.648808
0.659002
0.660155
0.660156
0.660156
0.660156
0.660156
0.660156
0.660156
0.660156
0.660156
0.660156
0.660156
0.660156
0.660156
0.660156
0.660156
0.660156
0.660156
0.660156
0.660156
0.660156
0.660156
0.660156
0.660156
0.660156
0.660156
0.660156
0.660156
0.660156
0.660156
0.660156
0.660156
0.660156
0.660156
0.660156
0.660156
0.660156
0.660156
0.660156
0.660156
0.660156
0.660156
0.660156
0.660156
0.660156
0.660156
0.660156
0.660156
0.660156
0.660156
0.660156
0.660156
0.660156
0.660156
0.660156
0.660156
0.660156
0.660156
0.660156
0.660156
0.660156
0.660156
0.660156
0.660156
0.660156
0.660156
0.660156
0.660156
0.660156
0.660156
0.660156
0.660156
0.660156
0.660156
0.660156
0.660156
0.660156
0.660156
0.660156
0.660156
0.660156
0.660156
0.660156
0.660156
0.660156
0.660156
0.660156
0.660156
0.660156
0.660156
0.660156
0.660156
0.660156
0.660156
0.660156
0.660156
0.660156
0.660156
0.660156
0.660156
0.660156
0.660156
0.660156
0.660156
0.660156
0.660156
0.660156
0.660156
0.660156
0.660156
0.660156
0.660156
0.660156
0.660156
0.660156
0.660156
0.660156
0.660156
0.660156
0.660156
0.660156
0.660156
0.660156
0.660156
0.660156
0.660156
0.660156
0.660156
0.660156
0.660156
0.660156
0.660156
0.660156
0.660156
0.660156
0.660156
0.660156
0.660156
0.660156
0.660156
0.660156
0.660156
0.660156
0.660156
0.660156
0.660156
0.660156
0.660156
0.660156
0.660156
0.660156
0.660156
0.660156
0.660156
0.660156
0.660156
0.660156
0.660156
0.660156
0.660156
0.660156
0.660156
0.660156
0.660156
0.660156
0.660156
0.660156
0.660156
0.660156
0.660156
0.660156
0.660156
0.660156
0.660156
0.660156
0.660156
0.660156
0.660156
0.660156
0.660156
0.660156
0.660156
0.660156
0.660156
0.660156
0.660156
0.660156
0.660156
0.660156
0.660156
0.660156
0.660156
0.660156
0.660156
0.660156
0.660156
0.660156
0.660156
0.660156
0.660156
0.660156
0.660156
0.660156
0.660156
0.660156
0.660156
0.660156
0.660156
0.660156
0.660156
0.660156
0.660156
0.660156
0.660156
0.660156
0.660156
0.660156
0.660156
0.660156
0.660156
0.660156
0.660156
0.660156
0.660156
0.660156
0.660156
0.660156
0.660156
0.660156
0.660156
0.660156
0.660156
0.660156
0.660156
0.660156
0.660156
0.660156
0.660156
0.660156
0.660156
0.660156
0.660156
0.660156
0.660156
0.660156
0.660156
0.660156
0.660156
0.660156
0.660156
0.660156
0.660156
0.660156
0.660156
0.660156
0.660156
0.660156
0.660156
0.660156
0.660156
0.660156
0.660156
0.660156
0.660156
0.660156
0.660156
0.660156
0.660156
0.660156
0.660156
0.660156
0.660156
0.660156
0.660156
0.660156
0.660156
0.660156
0.660156
0.660156
0.660156
0.660156
0.660156
0.660156
0.660156
0.660156
0.660156
0.660156
0.660156
0.660156
0.660156
0.660156
0.660156
0.660156
0.660156
0.660156
0.660156
0.660156
0.660156
0.660156
0.660156
0.660156
0.660156
0.660156
0.660156
0.660156
0.660156
0.660156
0.660156
0.660156
0.660156
0.660156
0.660156
0.660156
0.660156
0.660156
0.660156
0.660156
0.660156
0.660156
0.660156
0.660156
0.660156
0.660156
0.660156
0.660156
0.660156
0.660156
0.660156
0.660156
0.660156
0.660156
0.660156
0.660156
0.660156
0.660156
0.660156
0.660156
0.660156
0.660156
0.660156
0.660156
0.660156
0.660156
0.660156
0.660156
0.660156
0.660156
0.660156
0.660156
0.660156
0.660156
0.660156
0.660156
0.660156
0.660156
0.660156
0.660156
0.660156
0.660156
0.660156
0.660156
0.660156
0.660156
0.660156
0.660156
0.660156
0.660156
0.660156
0.660156
0.660156
0.660156
0.660156
0.660156
0.660156
0.660156
0.660156
0.660156
0.660156
0.660156
0.660156
0.660156
0.660156
0.660156
0.660156
0.660156
0.660156
0.660156
0.660156
0.660156
0.660156
0.660156
0.660156
0.660156
0.660156
0.660156
0.660156
0.660156
0.660156
0.660156
0.660156
0.660156
0.660156
0.660156
0.660156
0.660156
0.660156
0.660156
0.660156
0.660156
0.660156
0.660156
0.660156
0.660156
0.660156
0.660156
0.660156
0.660156
0.660156
0.660156
0.660156
0.660156
0.660156
0.660156
0.660156
0.660156
0.660156
0.660156
0.660156
0.660156
0.660156
0.660156
0.660156
0.660156
0.660156
0.660156
0.660156
0.660156
0.660156
0.660156
0.660156
0.660156
0.660156
0.660156
0.660156
0.660156
0.660156
0.660156
0.660156
0.660156
0.660156
0.660156
0.660156
0.660156
0.660156
0.660156
0.660156
0.660156
0.660156
0.660156
0.660156
0.660156
0.660156
0.660156
0.660156
0.660156
0.660156
0.660156
0.660156
0.660156
0.660156
0.660156
0.660156
0.660156
0.660156
0.660156
0.660156
0.660156
0.660156
0.660156
0.660156
0.660156
0.660156
0.660156
0.660156
0.660156
0.660156
0.660156
0.660156
0.660156
0.660156
0.660156
0.660156
0.660156
0.660156
0.660156
0.660156
0.660156
0.660156
0.660156
0.660156
0.660156
0.660156
0.660156
0.660156
0.660156
0.660156
0.660156
0.660156
0.660156
0.660156
0.660156
0.660156
0.660156
0.660156
0.660156
0.660156
0.660156
0.660156
0.660156
0.660156
0.660156
0.660156
0.660156
0.660156
0.660156
0.660156
0.660156
0.660156
0.660156
0.660156
0.660156
0.660156
0.660156
0.660156
0.660156
0.660156
0.660156
0.660156
0.660156
0.660156
0.660156
0.660156
0.660156
0.660156
0.660156
0.660156
0.660156
0.660156
0.660156
0.660156
0.660156
0.660156
0.660156
0.660156
0.660156
0.660156
0.660156
0.660156
0.660156
0.660156
0.660156
0.660156
0.660156
0.660156
0.660156
0.660156
0.660156
0.660156
0.660156
0.660156
0.660156
0.660156
0.660156
0.660156
0.660156
0.660156
0.660156
0.660156
0.660156
0.660156
0.660156
0.660156
0.660156
0.660156
0.660156
0.660156
0.660156
0.660156
0.660156
0.660156
0.660156
0.660156
0.660156
0.660156
0.660156
0.660156
0.660156
0.660156
0.660156
0.660156
0.660156
0.660156
0.660156
0.660156
0.660156
0.660156
0.660156
0.660156
0.660156
0.660156
0.660156
0.660156
0.660156
0.660156
0.660156
0.660156
0.660156
0.660156
0.660156
0.660156
0.660156
0.660156
0.660156
0.660156
0.660156
0.660156
0.660156
0.660156
0.660156
0.660156
0.660156
0.660156
0.660156
0.660156
0.660156
0.660156
0.660156
0.660156
0.660156
0.660156
0.660156
0.660156
0.660156
0.660156
0.660156
0.660156
0.660156
0.660156
0.660156
0.660156
0.660156
0.660156
0.660156
0.660156
)
;

boundaryField
{
    inlet
    {
        type            calculated;
        value           uniform 3.08149e-33;
    }
    outlet
    {
        type            calculated;
        value           uniform 0.660156;
    }
    emptyWalls
    {
        type            empty;
    }
}


// ************************************************************************* //
