/*--------------------------------*- C++ -*----------------------------------*\
  =========                 |
  \\      /  F ield         | OpenFOAM: The Open Source CFD Toolbox
   \\    /   O peration     | Website:  https://openfoam.org
    \\  /    A nd           | Version:  9
     \\/     M anipulation  |
\*---------------------------------------------------------------------------*/
FoamFile
{
    format      ascii;
    class       volScalarField;
    location    "26150";
    object      krb;
}
// * * * * * * * * * * * * * * * * * * * * * * * * * * * * * * * * * * * * * //

dimensions      [0 0 0 0 0 0 0];

internalField   nonuniform List<scalar> 
1000
(
0.0978129
0.0981294
0.0985447
0.0989678
0.099399
0.09982
0.100272
0.100692
0.101167
0.101586
0.102087
0.10251
0.103024
0.103467
0.103973
0.104444
0.104935
0.105419
0.105901
0.106377
0.106845
0.107295
0.107728
0.108137
0.108516
0.108872
0.109181
0.109489
0.109717
0.109984
0.110142
0.110368
0.110525
0.110859
0.111753
0.115146
0.13269
0.275746
0.448834
0.48628
0.498485
0.504568
0.508426
0.511255
0.513507
0.515397
0.517023
0.518446
0.519703
0.520832
0.52186
0.522806
0.523675
0.524462
0.525161
0.525767
0.526286
0.526731
0.527119
0.52747
0.527799
0.528117
0.528425
0.52872
0.528994
0.529241
0.529467
0.529712
0.529954
0.530172
0.530363
0.530519
0.530646
0.530736
0.530798
0.530826
0.530826
0.530802
0.530752
0.530679
0.530584
0.530468
0.530332
0.530176
0.530002
0.529807
0.529592
0.529354
0.529094
0.528809
0.528497
0.528156
0.527784
0.527376
0.526927
0.526429
0.525873
0.525245
0.52453
0.523709
0.522764
0.521681
0.520461
0.519122
0.517696
0.516214
0.514696
0.513152
0.511594
0.510026
0.508455
0.506883
0.505313
0.503747
0.502186
0.500631
0.499084
0.497546
0.496015
0.494494
0.492981
0.491479
0.489985
0.488501
0.487027
0.485562
0.484107
0.482661
0.481225
0.479799
0.478383
0.476976
0.475579
0.474191
0.472813
0.471444
0.470085
0.468735
0.467393
0.466061
0.464737
0.463422
0.462115
0.460816
0.459527
0.458245
0.456973
0.455709
0.454454
0.453207
0.451968
0.450738
0.449516
0.448302
0.447094
0.445893
0.444697
0.443507
0.442322
0.441141
0.439965
0.438794
0.437628
0.436467
0.435313
0.434164
0.433022
0.431886
0.430759
0.429638
0.428527
0.427423
0.426329
0.425245
0.424171
0.423107
0.422053
0.421009
0.419975
0.418951
0.417935
0.416927
0.415926
0.414932
0.413943
0.41296
0.41198
0.411005
0.410034
0.409065
0.408101
0.407139
0.406181
0.405226
0.404274
0.403327
0.402383
0.401444
0.400509
0.399578
0.398652
0.397731
0.396814
0.395902
0.394995
0.394093
0.393196
0.392303
0.391415
0.390532
0.389653
0.388779
0.387909
0.387044
0.386183
0.385326
0.384474
0.383625
0.382781
0.38194
0.381104
0.380272
0.379443
0.378618
0.377797
0.37698
0.376167
0.375357
0.374551
0.373749
0.37295
0.372154
0.371363
0.370574
0.36979
0.369008
0.36823
0.367456
0.366684
0.365916
0.365152
0.364391
0.363632
0.362878
0.362126
0.361377
0.360632
0.35989
0.35915
0.358414
0.357681
0.356951
0.356224
0.355499
0.354778
0.35406
0.353345
0.352632
0.351923
0.351216
0.350513
0.349812
0.349113
0.348418
0.347725
0.347035
0.346348
0.345663
0.344981
0.344302
0.343625
0.342952
0.34228
0.341612
0.340946
0.340283
0.339622
0.338964
0.338308
0.337654
0.337003
0.336353
0.335706
0.33506
0.334416
0.333774
0.333133
0.332493
0.331856
0.331219
0.330584
0.329951
0.329319
0.328689
0.328061
0.327435
0.326811
0.32619
0.325571
0.324954
0.324341
0.323731
0.323124
0.32252
0.32192
0.321324
0.320731
0.320142
0.319557
0.318975
0.318397
0.317822
0.31725
0.316682
0.316116
0.315553
0.314991
0.314433
0.313875
0.31332
0.312766
0.312214
0.311662
0.311112
0.310564
0.310016
0.309469
0.308924
0.308379
0.307836
0.307294
0.306753
0.306214
0.305676
0.30514
0.304605
0.304072
0.30354
0.30301
0.302482
0.301955
0.30143
0.300907
0.300385
0.299865
0.299347
0.29883
0.298315
0.297802
0.29729
0.29678
0.296272
0.295765
0.29526
0.294756
0.294254
0.293753
0.293254
0.292756
0.29226
0.291765
0.291272
0.29078
0.290289
0.2898
0.289313
0.288826
0.288341
0.287858
0.287375
0.286894
0.286415
0.285937
0.28546
0.284984
0.28451
0.284037
0.283565
0.283094
0.282625
0.282157
0.28169
0.281225
0.280761
0.280298
0.279836
0.279375
0.278916
0.278458
0.278001
0.277545
0.277091
0.276637
0.276185
0.275734
0.275284
0.274836
0.274388
0.273942
0.273497
0.273053
0.27261
0.272168
0.271727
0.271288
0.270849
0.270412
0.269976
0.269541
0.269107
0.268674
0.268242
0.267811
0.267382
0.266953
0.266526
0.2661
0.265674
0.26525
0.264826
0.264404
0.263982
0.263561
0.263141
0.262721
0.262303
0.261885
0.261467
0.261051
0.260635
0.260219
0.259805
0.25939
0.258977
0.258564
0.258152
0.257741
0.25733
0.25692
0.256512
0.256104
0.255697
0.255292
0.254887
0.254484
0.254082
0.253682
0.253283
0.252886
0.252491
0.252097
0.251704
0.251313
0.250924
0.250537
0.250151
0.249767
0.249385
0.249003
0.248624
0.248245
0.247868
0.247492
0.247117
0.246743
0.24637
0.245997
0.245625
0.245254
0.244884
0.244514
0.244145
0.243776
0.243408
0.24304
0.242673
0.242306
0.24194
0.241574
0.241209
0.240845
0.240481
0.240117
0.239755
0.239393
0.239031
0.23867
0.23831
0.237951
0.237592
0.237234
0.236877
0.236521
0.236165
0.23581
0.235456
0.235102
0.23475
0.234398
0.234047
0.233696
0.233346
0.232997
0.232649
0.232301
0.231954
0.231608
0.231262
0.230918
0.230573
0.23023
0.229887
0.229545
0.229203
0.228862
0.228522
0.228182
0.227843
0.227505
0.227167
0.22683
0.226493
0.226158
0.225822
0.225487
0.225153
0.22482
0.224487
0.224155
0.223823
0.223492
0.223161
0.222831
0.222502
0.222173
0.221845
0.221517
0.22119
0.220863
0.220537
0.220212
0.219887
0.219562
0.219239
0.218915
0.218593
0.218271
0.217949
0.217628
0.217307
0.216988
0.216668
0.216349
0.216031
0.215713
0.215396
0.215079
0.214763
0.214447
0.214132
0.213818
0.213504
0.21319
0.212877
0.212564
0.212252
0.211941
0.21163
0.211319
0.211009
0.2107
0.210391
0.210082
0.209774
0.209466
0.209158
0.208851
0.208544
0.208238
0.207932
0.207626
0.207321
0.207016
0.206711
0.206406
0.206102
0.205798
0.205495
0.205191
0.204888
0.204586
0.204283
0.203982
0.20368
0.203379
0.203079
0.202779
0.202479
0.20218
0.201882
0.201584
0.201287
0.200991
0.200695
0.2004
0.200105
0.199812
0.199519
0.199228
0.198936
0.198646
0.198357
0.198068
0.19778
0.197493
0.197207
0.196922
0.196637
0.196353
0.196069
0.195786
0.195504
0.195222
0.194941
0.19466
0.19438
0.1941
0.19382
0.193541
0.193262
0.192983
0.192705
0.192427
0.192149
0.191871
0.191594
0.191316
0.19104
0.190763
0.190486
0.19021
0.189934
0.189659
0.189383
0.189108
0.188833
0.188559
0.188285
0.188011
0.187737
0.187464
0.187191
0.186918
0.186646
0.186374
0.186102
0.185831
0.18556
0.18529
0.18502
0.18475
0.18448
0.184211
0.183942
0.183674
0.183405
0.183138
0.18287
0.182603
0.182336
0.18207
0.181803
0.181537
0.181272
0.181007
0.180742
0.180477
0.180213
0.179949
0.179685
0.179421
0.179158
0.178895
0.178633
0.17837
0.178108
0.177846
0.177585
0.177324
0.177063
0.176802
0.176542
0.176282
0.176022
0.175762
0.175503
0.175244
0.174985
0.174726
0.174468
0.17421
0.173952
0.173694
0.173437
0.17318
0.172923
0.172667
0.17241
0.172154
0.171899
0.171643
0.171388
0.171133
0.170878
0.170623
0.170369
0.170115
0.169861
0.169607
0.169354
0.169101
0.168848
0.168595
0.168342
0.16809
0.167838
0.167587
0.167335
0.167084
0.166832
0.166582
0.166331
0.16608
0.16583
0.16558
0.16533
0.16508
0.164831
0.164581
0.164332
0.164083
0.163834
0.163585
0.163336
0.163088
0.16284
0.162591
0.162343
0.162095
0.161847
0.161599
0.161352
0.161104
0.160856
0.160609
0.160362
0.160115
0.159868
0.159621
0.159374
0.159128
0.158881
0.158635
0.158389
0.158144
0.157898
0.157653
0.157408
0.157163
0.156918
0.156674
0.15643
0.156187
0.155943
0.155701
0.155458
0.155216
0.154974
0.154733
0.154491
0.154251
0.15401
0.15377
0.15353
0.153291
0.153052
0.152813
0.152574
0.152337
0.152098
0.151861
0.151623
0.151387
0.151149
0.150913
0.150676
0.15044
0.150203
0.149968
0.149731
0.149496
0.149259
0.149024
0.148788
0.148553
0.148317
0.148082
0.147846
0.147611
0.147375
0.14714
0.146904
0.14667
0.146434
0.1462
0.145964
0.14573
0.145494
0.14526
0.145024
0.14479
0.144555
0.144321
0.144085
0.143852
0.143616
0.143383
0.143148
0.142914
0.142679
0.142446
0.142211
0.141978
0.141743
0.14151
0.141276
0.141043
0.140809
0.140575
0.140342
0.140108
0.139875
0.139642
0.139408
0.139175
0.138942
0.138709
0.138476
0.138243
0.13801
0.137777
0.137544
0.137311
0.137078
0.136845
0.136612
0.13638
0.136147
0.135914
0.135681
0.135449
0.135216
0.134983
0.13475
0.134518
0.134285
0.134052
0.133819
0.133587
0.133354
0.133121
0.132888
0.132656
0.132423
0.13219
0.131957
0.131724
0.131491
0.131259
0.131025
0.130793
0.130559
0.130327
0.130093
0.12986
0.129627
0.129394
0.12916
0.128927
0.128693
0.128461
0.128226
0.127994
0.127759
0.127527
0.127292
0.127059
0.126824
0.126591
0.126356
0.126123
0.125888
0.125655
0.125419
0.125186
0.12495
0.124717
0.124481
0.124247
0.124011
0.123777
0.123541
0.123307
0.12307
0.122836
0.122599
0.122365
0.122127
0.121892
0.121655
0.12142
0.121182
0.120946
0.120708
0.120472
0.120233
0.119997
0.119758
0.119522
0.119282
0.119045
0.118806
0.118569
0.118328
0.118091
0.117849
0.117613
0.11737
0.117134
0.11689
0.116654
0.116409
0.116174
0.115928
0.115692
0.115447
0.11521
0.114964
0.114728
0.114481
0.114245
0.113998
0.113761
0.113514
0.113277
0.11303
0.112793
0.112545
0.112309
0.112061
0.111824
0.111576
0.111338
0.111091
0.110853
0.110605
0.110368
0.11012
0.109883
0.109634
0.109399
0.109148
0.108916
0.108661
0.108433
0.108175
0.107952
0.107689
0.107473
0.107205
0.106996
0.106722
0.106522
0.106242
0.10605
0.105766
0.105584
0.105294
0.105123
0.10483
0.10467
0.104374
0.104226
0.103929
0.103795
0.103499
0.103378
0.103086
0.10298
0.0628624
)
;

boundaryField
{
    inlet
    {
        type            calculated;
        value           uniform 0.0976562;
    }
    outlet
    {
        type            calculated;
        value           uniform 0.0628624;
    }
    emptyWalls
    {
        type            empty;
    }
}


// ************************************************************************* //
