/*--------------------------------*- C++ -*----------------------------------*\
  =========                 |
  \\      /  F ield         | OpenFOAM: The Open Source CFD Toolbox
   \\    /   O peration     | Website:  https://openfoam.org
    \\  /    A nd           | Version:  9
     \\/     M anipulation  |
\*---------------------------------------------------------------------------*/
FoamFile
{
    format      ascii;
    class       volScalarField;
    location    "26150";
    object      p;
}
// * * * * * * * * * * * * * * * * * * * * * * * * * * * * * * * * * * * * * //

dimensions      [0 0 0 0 0 0 0];

internalField   nonuniform List<scalar> 
1000
(
166605
166179
165755
165333
164912
164494
164077
163662
163249
162837
162428
162020
161614
161210
160808
160408
160010
159613
159218
158825
158434
158044
157656
157270
156885
156501
156118
155737
155356
154976
154597
154218
153841
153464
153089
152721
152378
152128
152009
151917
151829
151743
151658
151573
151488
151404
151320
151237
151154
151070
150987
150904
150822
150739
150657
150574
150492
150410
150328
150246
150164
150082
150000
149919
149837
149755
149674
149592
149511
149429
149348
149266
149185
149103
149021
148940
148858
148777
148695
148613
148532
148450
148369
148287
148205
148124
148042
147960
147878
147796
147715
147633
147551
147469
147386
147304
147222
147140
147057
146975
146892
146809
146726
146643
146560
146476
146392
146308
146224
146139
146054
145969
145884
145799
145713
145627
145541
145454
145368
145281
145194
145106
145018
144931
144842
144754
144665
144577
144488
144398
144309
144219
144129
144039
143948
143857
143766
143675
143584
143492
143400
143308
143216
143123
143030
142937
142844
142751
142657
142563
142469
142374
142280
142185
142090
141995
141899
141803
141707
141611
141515
141418
141322
141225
141127
141030
140932
140835
140737
140638
140540
140441
140342
140243
140144
140045
139945
139845
139745
139645
139544
139443
139342
139241
139140
139038
138936
138834
138732
138629
138526
138423
138320
138217
138113
138009
137905
137801
137696
137592
137487
137382
137276
137171
137065
136959
136853
136747
136640
136534
136427
136319
136212
136105
135997
135889
135781
135672
135564
135455
135346
135237
135128
135018
134908
134798
134688
134578
134467
134357
134246
134134
134023
133912
133800
133688
133576
133463
133351
133238
133125
133012
132899
132785
132672
132558
132444
132330
132215
132100
131986
131871
131755
131640
131524
131409
131293
131177
131060
130944
130827
130710
130593
130476
130358
130240
130123
130005
129886
129768
129649
129531
129412
129292
129173
129054
128934
128814
128694
128574
128453
128333
128212
128091
127970
127848
127727
127605
127483
127361
127239
127117
126994
126871
126749
126625
126502
126379
126255
126132
126008
125884
125759
125635
125510
125386
125261
125136
125010
124885
124759
124633
124507
124381
124255
124128
124001
123874
123747
123620
123492
123365
123237
123109
122980
122852
122723
122595
122466
122336
122207
122078
121948
121818
121688
121558
121427
121297
121166
121035
120904
120773
120641
120510
120378
120246
120114
119982
119849
119716
119584
119451
119317
119184
119050
118917
118783
118649
118515
118380
118246
118111
117976
117841
117706
117570
117435
117299
117163
117027
116891
116754
116618
116481
116344
116207
116069
115932
115794
115656
115518
115380
115242
115104
114965
114826
114687
114548
114409
114269
114130
113990
113850
113710
113569
113429
113288
113147
113006
112865
112724
112582
112441
112299
112157
112015
111873
111730
111588
111445
111302
111159
111015
110872
110728
110585
110441
110297
110152
110008
109863
109719
109574
109429
109284
109138
108993
108847
108701
108555
108409
108263
108116
107970
107823
107676
107529
107382
107234
107087
106939
106791
106643
106495
106347
106199
106050
105901
105752
105603
105454
105305
105155
105006
104856
104706
104556
104406
104255
104104
103954
103803
103652
103500
103349
103197
103045
102893
102741
102589
102436
102284
102131
101978
101825
101672
101518
101365
101211
101057
100903
100748
100594
100439
100285
100130
99974.6
99819.4
99664
99508.4
99352.7
99196.8
99040.8
98884.6
98728.3
98571.8
98415.1
98258.3
98101.3
97944.2
97786.9
97629.4
97471.8
97314
97156.1
96998
96839.8
96681.4
96522.8
96364.1
96205.2
96046.2
95887
95727.7
95568.2
95408.5
95248.7
95088.7
94928.6
94768.3
94607.8
94447.2
94286.4
94125.5
93964.5
93803.2
93641.8
93480.3
93318.6
93156.7
92994.7
92832.6
92670.3
92507.8
92345.1
92182.4
92019.4
91856.3
91693.1
91529.7
91366.1
91202.4
91038.5
90874.5
90710.3
90546
90381.5
90216.9
90052.1
89887.2
89722.1
89556.8
89391.4
89225.9
89060.2
88894.3
88728.3
88562.2
88395.9
88229.4
88062.8
87896
87729.1
87562
87394.8
87227.4
87059.9
86892.2
86724.4
86556.4
86388.3
86220
86051.6
85883
85714.2
85545.4
85376.3
85207.1
85037.8
84868.3
84698.7
84528.9
84359
84189
84018.8
83848.4
83677.9
83507.3
83336.5
83165.6
82994.5
82823.3
82651.9
82480.4
82308.8
82137
81965.1
81793
81620.8
81448.5
81276
81103.4
80930.6
80757.7
80584.7
80411.5
80238.1
80064.6
79891
79717.2
79543.3
79369.2
79195
79020.6
78846
78671.3
78496.5
78321.5
78146.3
77971
77795.6
77619.9
77444.1
77268.2
77092.1
76915.8
76739.4
76562.8
76386.1
76209.2
76032.1
75854.9
75677.5
75500
75322.3
75144.4
74966.4
74788.3
74610
74431.5
74252.9
74074.1
73895.2
73716.1
73536.8
73357.4
73177.9
72998.2
72818.3
72638.3
72458.2
72277.8
72097.4
71916.8
71736
71555.1
71374
71192.8
71011.4
70829.9
70648.2
70466.4
70284.4
70102.2
69919.9
69737.5
69554.9
69372.2
69189.3
69006.2
68823
68639.6
68456.1
68272.5
68088.7
67904.7
67720.6
67536.3
67351.9
67167.3
66982.6
66797.7
66612.7
66427.5
66242.2
66056.7
65871
65685.3
65499.3
65313.2
65127
64940.6
64754
64567.4
64380.5
64193.5
64006.4
63819.1
63631.6
63444
63256.3
63068.4
62880.3
62692.1
62503.8
62315.2
62126.6
61937.8
61748.8
61559.7
61370.5
61181.1
60991.5
60801.8
60612
60422
60231.8
60041.5
59851.1
59660.5
59469.7
59278.8
59087.8
58896.6
58705.2
58513.7
58322.1
58130.3
57938.3
57746.2
57554
57361.6
57169.1
56976.4
56783.5
56590.5
56397.4
56204.1
56010.7
55817.1
55623.4
55429.5
55235.5
55041.3
54847
54652.6
54457.9
54263.2
54068.3
53873.3
53678.1
53482.7
53287.3
53091.7
52895.9
52700
52504
52307.8
52111.4
51915
51718.4
51521.6
51324.7
51127.7
50930.5
50733.2
50535.7
50338.1
50140.4
49942.5
49744.5
49546.3
49348
49149.5
48950.9
48752.2
48553.3
48354.3
48155.1
47955.7
47756.2
47556.6
47356.8
47156.9
46956.8
46756.5
46556.1
46355.5
46154.8
45953.9
45752.9
45551.7
45350.4
45148.8
44947.2
44745.3
44543.4
44341.2
44138.9
43936.4
43733.8
43531
43328
43124.9
42921.6
42718.2
42514.6
42310.9
42106.9
41902.9
41698.6
41494.2
41289.7
41085
40880.1
40675.1
40469.9
40264.6
40059.1
39853.4
39647.6
39441.7
39235.5
39029.2
38822.8
38616.2
38409.4
38202.5
37995.5
37788.2
37580.9
37373.3
37165.6
36957.8
36749.7
36541.6
36333.2
36124.8
35916.1
35707.3
35498.4
35289.2
35080
34870.5
34660.9
34451.2
34241.3
34031.2
33821
33610.6
33400
33189.3
32978.5
32767.4
32556.3
32344.9
32133.4
31921.8
31709.9
31498
31285.8
31073.5
30861.1
30648.5
30435.7
30222.7
30009.7
29796.4
29583
29369.4
29155.7
28941.8
28727.7
28513.5
28299.1
28084.6
27869.9
27655.1
27440
27224.9
27009.5
26794
26578.4
26362.6
26146.6
25930.5
25714.2
25497.7
25281.1
25064.3
24847.4
24630.3
24413
24195.6
23978
23760.3
23542.3
23324.3
23106
22887.7
22669.1
22450.4
22231.5
22012.5
21793.3
21573.9
21354.4
21134.7
20914.8
20694.8
20474.6
20254.3
20033.8
19813.1
19592.3
19371.3
19150.2
18928.9
18707.4
18485.7
18263.9
18042
17819.9
17597.6
17375.1
17152.5
16929.7
16706.8
16483.7
16260.5
16037.1
15813.5
15589.7
15365.9
15141.8
14917.6
14693.2
14468.7
14244
14019.1
13794.1
13568.9
13343.6
13118.1
12892.4
12666.6
12440.6
12214.4
11988.1
11761.6
11535
11308.2
11081.2
10854.1
10626.8
10399.3
10171.7
9943.84
9715.86
9487.71
9259.39
9030.89
8802.22
8573.37
8344.35
8115.16
7885.78
7656.23
7426.5
7196.59
6966.5
6736.23
6505.78
6275.14
6044.33
5813.33
5582.15
5350.78
5119.24
4887.5
4655.59
4423.49
4191.21
3958.75
3726.11
3493.29
3260.28
3027.1
2793.74
2560.21
2326.5
2092.62
1858.57
1624.35
1389.97
1155.42
920.716
685.854
450.842
215.524
)
;

boundaryField
{
    inlet
    {
        type            darcyGradPressure;
        gradient        uniform 116344;
        Mf              Mf;
        phi             phi;
        value           uniform 166818;
    }
    outlet
    {
        type            fixedValue;
        value           uniform 0;
    }
    emptyWalls
    {
        type            empty;
    }
}


// ************************************************************************* //
