/*--------------------------------*- C++ -*----------------------------------*\
  =========                 |
  \\      /  F ield         | OpenFOAM: The Open Source CFD Toolbox
   \\    /   O peration     | Website:  https://openfoam.org
    \\  /    A nd           | Version:  9
     \\/     M anipulation  |
\*---------------------------------------------------------------------------*/
FoamFile
{
    format      ascii;
    class       volScalarField;
    location    "1000";
    object      Fa;
}
// * * * * * * * * * * * * * * * * * * * * * * * * * * * * * * * * * * * * * //

dimensions      [0 0 0 0 0 0 0];

internalField   nonuniform List<scalar> 
100
(
0.2
0.2
0.2
0.2
0.2
0.2
0.2
0.2
0.2
0.2
0.2
0.2
0.2
0.2
0.2
0.2
0.2
0.2
0.2
0.2
0.2
0.199529
0.199322
0.00650994
2.07799e-05
1.98187e-05
1.98183e-05
1.98183e-05
1.98183e-05
1.98183e-05
1.98183e-05
1.98183e-05
1.98183e-05
1.98183e-05
1.98183e-05
1.98183e-05
1.98183e-05
1.98183e-05
1.98183e-05
1.98183e-05
1.98183e-05
1.98183e-05
1.98183e-05
1.98183e-05
1.98183e-05
1.98183e-05
1.98183e-05
1.98183e-05
1.98183e-05
1.98183e-05
1.98183e-05
1.98183e-05
1.98183e-05
1.98183e-05
1.98183e-05
1.98183e-05
1.98183e-05
1.98183e-05
1.98183e-05
1.98183e-05
1.98183e-05
1.98183e-05
1.98183e-05
1.98183e-05
1.98183e-05
1.98183e-05
1.98183e-05
1.98183e-05
1.98183e-05
1.98183e-05
1.98183e-05
1.98183e-05
1.98183e-05
1.98183e-05
1.98183e-05
1.98183e-05
1.98183e-05
1.98183e-05
1.98183e-05
1.98183e-05
1.98183e-05
1.98183e-05
1.98183e-05
1.98183e-05
1.98183e-05
1.98183e-05
1.98183e-05
1.98183e-05
1.98183e-05
1.98183e-05
1.98183e-05
1.98183e-05
1.98183e-05
1.98183e-05
1.98183e-05
1.98183e-05
1.98183e-05
1.98183e-05
1.98183e-05
1.98177e-05
)
;

boundaryField
{
    inlet
    {
        type            calculated;
        value           uniform 0.200437;
    }
    outlet
    {
        type            calculated;
        value           uniform 1.98233e-05;
    }
    emptyWalls
    {
        type            empty;
    }
}


// ************************************************************************* //
