/*--------------------------------*- C++ -*----------------------------------*\
  =========                 |
  \\      /  F ield         | OpenFOAM: The Open Source CFD Toolbox
   \\    /   O peration     | Website:  https://openfoam.org
    \\  /    A nd           | Version:  9
     \\/     M anipulation  |
\*---------------------------------------------------------------------------*/
FoamFile
{
    format      ascii;
    class       volScalarField;
    location    "1000";
    object      Nca;
}
// * * * * * * * * * * * * * * * * * * * * * * * * * * * * * * * * * * * * * //

dimensions      [0 0 0 0 0 0 0];

internalField   nonuniform List<scalar> 
100
(
0.000340621
0.000340714
0.000340714
0.000340714
0.000340714
0.000340714
0.000340714
0.000340714
0.000340714
0.000340714
0.000340714
0.000340714
0.000340714
0.000340714
0.000340714
0.000340714
0.000340714
0.000340714
0.000340714
0.000340714
0.000340714
0.000340053
0.000339728
0.00017319
4.84831e-06
3.37745e-06
3.37548e-06
3.37547e-06
3.37547e-06
3.37547e-06
3.37547e-06
3.37547e-06
3.37547e-06
3.37547e-06
3.37547e-06
3.37547e-06
3.37547e-06
3.37547e-06
3.37547e-06
3.37547e-06
3.37547e-06
3.37547e-06
3.37547e-06
3.37547e-06
3.37547e-06
3.37547e-06
3.37547e-06
3.37547e-06
3.37547e-06
3.37547e-06
3.37547e-06
3.37547e-06
3.37547e-06
3.37547e-06
3.37547e-06
3.37547e-06
3.37547e-06
3.37547e-06
3.37547e-06
3.37547e-06
3.37547e-06
3.37547e-06
3.37547e-06
3.37547e-06
3.37547e-06
3.37547e-06
3.37547e-06
3.37547e-06
3.37547e-06
3.37547e-06
3.37547e-06
3.37547e-06
3.37547e-06
3.37547e-06
3.37547e-06
3.37547e-06
3.37547e-06
3.37547e-06
3.37547e-06
3.37547e-06
3.37547e-06
3.37547e-06
3.37547e-06
3.37547e-06
3.37547e-06
3.37547e-06
3.37547e-06
3.37547e-06
3.37547e-06
3.37547e-06
3.37547e-06
3.37547e-06
3.37547e-06
3.37547e-06
3.37547e-06
3.37547e-06
3.37547e-06
3.37547e-06
3.37547e-06
3.37547e-06
)
;

boundaryField
{
    inlet
    {
        type            calculated;
        value           uniform 0.000340528;
    }
    outlet
    {
        type            calculated;
        value           uniform 3.37547e-06;
    }
    emptyWalls
    {
        type            empty;
    }
}


// ************************************************************************* //
