/*--------------------------------*- C++ -*----------------------------------*\
  =========                 |
  \\      /  F ield         | OpenFOAM: The Open Source CFD Toolbox
   \\    /   O peration     | Website:  https://openfoam.org
    \\  /    A nd           | Version:  9
     \\/     M anipulation  |
\*---------------------------------------------------------------------------*/
FoamFile
{
    format      ascii;
    class       volScalarField;
    location    "1000";
    object      p;
}
// * * * * * * * * * * * * * * * * * * * * * * * * * * * * * * * * * * * * * //

dimensions      [0 0 0 0 0 0 0];

internalField   nonuniform List<scalar> 
100
(
514417
492772
471126
449480
427834
406188
384542
362897
341251
319605
297959
276313
254667
233022
211376
189730
168084
146438
124792
103147
81500.7
59854.9
38261.7
16715.8
16191
15976.3
15761.8
15547.4
15332.9
15118.5
14904
14689.6
14475.1
14260.7
14046.2
13831.8
13617.4
13402.9
13188.5
12974
12759.6
12545.1
12330.7
12116.2
11901.8
11687.3
11472.9
11258.4
11044
10829.5
10615.1
10400.7
10186.2
9971.76
9757.32
9542.87
9328.42
9113.98
8899.53
8685.08
8470.64
8256.19
8041.74
7827.3
7612.85
7398.41
7183.96
6969.51
6755.07
6540.62
6326.17
6111.73
5897.28
5682.83
5468.39
5253.94
5039.49
4825.05
4610.6
4396.15
4181.71
3967.26
3752.81
3538.37
3323.92
3109.47
2895.03
2680.58
2466.13
2251.69
2037.24
1822.8
1608.35
1393.9
1179.46
965.009
750.563
536.116
321.67
107.223
)
;

boundaryField
{
    inlet
    {
        type            darcyGradPressure;
        gradient        uniform 8.7587e+06;
        Mf              Mf;
        phi             phi;
        value           uniform 525234;
    }
    outlet
    {
        type            fixedValue;
        value           uniform 0;
    }
    emptyWalls
    {
        type            empty;
    }
}


// ************************************************************************* //
