/*--------------------------------*- C++ -*----------------------------------*\
  =========                 |
  \\      /  F ield         | OpenFOAM: The Open Source CFD Toolbox
   \\    /   O peration     | Website:  https://openfoam.org
    \\  /    A nd           | Version:  9
     \\/     M anipulation  |
\*---------------------------------------------------------------------------*/
FoamFile
{
    format      ascii;
    class       surfaceScalarField;
    location    "1000";
    object      phia;
}
// * * * * * * * * * * * * * * * * * * * * * * * * * * * * * * * * * * * * * //

dimensions      [0 2 0 0 0 0 0];

internalField   nonuniform List<scalar> 
99
(
5.84748e-10
5.84748e-10
5.84748e-10
5.84748e-10
5.84748e-10
5.84748e-10
5.84748e-10
5.84748e-10
5.84748e-10
5.84748e-10
5.84748e-10
5.84748e-10
5.84748e-10
5.84748e-10
5.84748e-10
5.84748e-10
5.84748e-10
5.84748e-10
5.84748e-10
5.84748e-10
5.84748e-10
5.83069e-10
5.8156e-10
3.38774e-12
5.93478e-14
5.79441e-14
5.79436e-14
5.79436e-14
5.79436e-14
5.79436e-14
5.79436e-14
5.79436e-14
5.79436e-14
5.79436e-14
5.79436e-14
5.79436e-14
5.79436e-14
5.79436e-14
5.79436e-14
5.79436e-14
5.79436e-14
5.79436e-14
5.79436e-14
5.79436e-14
5.79436e-14
5.79436e-14
5.79436e-14
5.79436e-14
5.79436e-14
5.79436e-14
5.79436e-14
5.79436e-14
5.79436e-14
5.79436e-14
5.79436e-14
5.79436e-14
5.79436e-14
5.79436e-14
5.79436e-14
5.79436e-14
5.79436e-14
5.79436e-14
5.79436e-14
5.79436e-14
5.79436e-14
5.79436e-14
5.79436e-14
5.79436e-14
5.79436e-14
5.79436e-14
5.79436e-14
5.79436e-14
5.79436e-14
5.79436e-14
5.79436e-14
5.79436e-14
5.79436e-14
5.79436e-14
5.79436e-14
5.79436e-14
5.79436e-14
5.79436e-14
5.79436e-14
5.79436e-14
5.79436e-14
5.79436e-14
5.79436e-14
5.79436e-14
5.79436e-14
5.79436e-14
5.79436e-14
5.79436e-14
5.79436e-14
5.79436e-14
5.79436e-14
5.79436e-14
5.79436e-14
5.79436e-14
5.79436e-14
)
;

boundaryField
{
    inlet
    {
        type            calculated;
        value           uniform -5.84748e-10;
    }
    outlet
    {
        type            calculated;
        value           uniform 5.79583e-14;
    }
    emptyWalls
    {
        type            empty;
        value           nonuniform List<scalar> 0();
    }
}


// ************************************************************************* //
