/*--------------------------------*- C++ -*----------------------------------*\
  =========                 |
  \\      /  F ield         | OpenFOAM: The Open Source CFD Toolbox
   \\    /   O peration     | Website:  https://openfoam.org
    \\  /    A nd           | Version:  9
     \\/     M anipulation  |
\*---------------------------------------------------------------------------*/
FoamFile
{
    format      ascii;
    class       volVectorField;
    location    "1000";
    object      Ua;
}
// * * * * * * * * * * * * * * * * * * * * * * * * * * * * * * * * * * * * * //

dimensions      [0 0 0 0 0 0 0];

internalField   nonuniform List<vector> 
100
(
(5.85388e-06 0 0)
(5.84748e-06 0 0)
(5.84748e-06 0 0)
(5.84748e-06 0 0)
(5.84748e-06 0 0)
(5.84748e-06 0 0)
(5.84748e-06 0 0)
(5.84748e-06 0 0)
(5.84748e-06 0 0)
(5.84748e-06 0 0)
(5.84748e-06 0 0)
(5.84748e-06 0 0)
(5.84748e-06 0 0)
(5.84748e-06 0 0)
(5.84748e-06 0 0)
(5.84748e-06 0 0)
(5.84748e-06 0 0)
(5.84748e-06 0 0)
(5.84748e-06 0 0)
(5.84748e-06 0 0)
(5.84748e-06 0 0)
(5.83909e-06 0 0)
(5.82314e-06 0 0)
(2.92474e-06 0 0)
(1.72354e-08 0 0)
(5.8646e-10 0 0)
(5.79438e-10 0 0)
(5.79436e-10 0 0)
(5.79436e-10 0 0)
(5.79436e-10 0 0)
(5.79436e-10 0 0)
(5.79436e-10 0 0)
(5.79436e-10 0 0)
(5.79436e-10 0 0)
(5.79436e-10 0 0)
(5.79436e-10 0 0)
(5.79436e-10 0 0)
(5.79436e-10 0 0)
(5.79436e-10 0 0)
(5.79436e-10 0 0)
(5.79436e-10 0 0)
(5.79436e-10 0 0)
(5.79436e-10 0 0)
(5.79436e-10 0 0)
(5.79436e-10 0 0)
(5.79436e-10 0 0)
(5.79436e-10 0 0)
(5.79436e-10 0 0)
(5.79436e-10 0 0)
(5.79436e-10 0 0)
(5.79436e-10 0 0)
(5.79436e-10 0 0)
(5.79436e-10 0 0)
(5.79436e-10 0 0)
(5.79436e-10 0 0)
(5.79436e-10 0 0)
(5.79436e-10 0 0)
(5.79436e-10 0 0)
(5.79436e-10 0 0)
(5.79436e-10 0 0)
(5.79436e-10 0 0)
(5.79436e-10 0 0)
(5.79436e-10 0 0)
(5.79436e-10 0 0)
(5.79436e-10 0 0)
(5.79436e-10 0 0)
(5.79436e-10 0 0)
(5.79436e-10 0 0)
(5.79436e-10 0 0)
(5.79436e-10 0 0)
(5.79436e-10 0 0)
(5.79436e-10 0 0)
(5.79436e-10 0 0)
(5.79436e-10 0 0)
(5.79436e-10 0 0)
(5.79436e-10 0 0)
(5.79436e-10 0 0)
(5.79436e-10 0 0)
(5.79436e-10 0 0)
(5.79436e-10 0 0)
(5.79436e-10 0 0)
(5.79436e-10 0 0)
(5.79436e-10 0 0)
(5.79436e-10 0 0)
(5.79436e-10 0 0)
(5.79436e-10 0 0)
(5.79436e-10 0 0)
(5.79436e-10 0 0)
(5.79436e-10 0 0)
(5.79436e-10 0 0)
(5.79436e-10 0 0)
(5.79436e-10 0 0)
(5.79436e-10 0 0)
(5.79436e-10 0 0)
(5.79436e-10 0 0)
(5.79436e-10 0 0)
(5.79436e-10 0 0)
(5.79436e-10 0 0)
(5.79436e-10 0 0)
(5.79509e-10 0 0)
)
;

boundaryField
{
    inlet
    {
        type            fixedValue;
        value           uniform (5.84748e-06 0 0);
    }
    outlet
    {
        type            zeroGradient;
    }
    emptyWalls
    {
        type            empty;
    }
}


// ************************************************************************* //
