/*--------------------------------*- C++ -*----------------------------------*\
  =========                 |
  \\      /  F ield         | OpenFOAM: The Open Source CFD Toolbox
   \\    /   O peration     | Website:  https://openfoam.org
    \\  /    A nd           | Version:  9
     \\/     M anipulation  |
\*---------------------------------------------------------------------------*/
FoamFile
{
    format      ascii;
    class       volScalarField;
    location    "28050";
    object      Fb;
}
// * * * * * * * * * * * * * * * * * * * * * * * * * * * * * * * * * * * * * //

dimensions      [0 0 0 0 0 0 0];

internalField   nonuniform List<scalar> 
1000
(
0.805242
0.805164
0.805228
0.805189
0.805212
0.805215
0.805215
0.805232
0.805242
0.805252
0.805271
0.805284
0.80529
0.805322
0.805311
0.805367
0.805338
0.805426
0.805372
0.805483
0.805428
0.805523
0.805504
0.805558
0.805574
0.805604
0.805623
0.805647
0.805663
0.805685
0.805701
0.805722
0.805736
0.805746
0.805776
0.805753
0.805842
0.805868
0.806317
0.809954
0.827689
0.83281
0.833849
0.834256
0.834392
0.834155
0.833578
0.832949
0.832569
0.832532
0.832734
0.833004
0.833352
0.834019
0.834646
0.835146
0.835504
0.835734
0.835872
0.835955
0.835915
0.835865
0.835831
0.835816
0.835829
0.835865
0.835902
0.835941
0.835991
0.836045
0.8361
0.836151
0.836204
0.836249
0.836299
0.836336
0.836381
0.83641
0.836449
0.836472
0.836505
0.836522
0.836545
0.836562
0.836576
0.836586
0.836593
0.836595
0.836594
0.83659
0.836581
0.836571
0.836557
0.836539
0.836518
0.836494
0.836465
0.836432
0.836393
0.836348
0.836294
0.836235
0.836167
0.836091
0.836007
0.835913
0.835807
0.835686
0.835548
0.835391
0.835215
0.835021
0.834814
0.834596
0.834368
0.834132
0.83389
0.833644
0.833395
0.833145
0.832898
0.832654
0.832413
0.832175
0.831936
0.831696
0.831454
0.831206
0.830951
0.830681
0.830392
0.830077
0.829734
0.829363
0.828968
0.828555
0.828132
0.827704
0.827275
0.82685
0.826431
0.826021
0.825623
0.825243
0.824884
0.824552
0.824252
0.823988
0.823759
0.823567
0.823407
0.823275
0.823166
0.823072
0.822986
0.822901
0.822812
0.822713
0.822601
0.822472
0.822324
0.822159
0.821975
0.821774
0.821558
0.821328
0.821088
0.82084
0.820585
0.820325
0.820064
0.819801
0.819538
0.819277
0.819017
0.818759
0.818504
0.818251
0.818
0.81775
0.817504
0.817257
0.817012
0.816767
0.816524
0.816279
0.816037
0.815791
0.815549
0.815302
0.815059
0.814811
0.814566
0.814317
0.814071
0.81382
0.813572
0.813319
0.813069
0.812814
0.812561
0.812304
0.81205
0.811791
0.811535
0.811274
0.811016
0.810753
0.810493
0.810228
0.809966
0.8097
0.809435
0.809167
0.808899
0.808629
0.808358
0.808085
0.807813
0.807538
0.807263
0.806987
0.80671
0.806433
0.806155
0.805877
0.805598
0.805318
0.805037
0.804755
0.804473
0.804189
0.803903
0.803617
0.803329
0.803041
0.802752
0.802462
0.802172
0.801883
0.801595
0.801307
0.80102
0.800734
0.800448
0.800161
0.799872
0.79958
0.799284
0.798983
0.798674
0.798357
0.798031
0.797696
0.79735
0.796994
0.796629
0.796253
0.79587
0.795479
0.795082
0.794681
0.794277
0.793872
0.79347
0.793071
0.792678
0.792294
0.791921
0.791561
0.791216
0.790887
0.790576
0.790283
0.790008
0.789749
0.789508
0.789281
0.789068
0.788865
0.78867
0.788481
0.788295
0.788109
0.787922
0.787731
0.787536
0.787333
0.787124
0.786906
0.786681
0.786446
0.786205
0.785955
0.7857
0.785437
0.78517
0.784898
0.784623
0.784345
0.784065
0.783782
0.7835
0.783216
0.782933
0.782649
0.782367
0.782084
0.781803
0.781521
0.781242
0.780962
0.780684
0.780404
0.780127
0.779849
0.779573
0.779294
0.779018
0.77874
0.778464
0.778184
0.777908
0.777628
0.777351
0.77707
0.776792
0.776509
0.77623
0.775946
0.775666
0.77538
0.775099
0.774811
0.774529
0.774239
0.773955
0.773664
0.773379
0.773086
0.7728
0.772505
0.772217
0.77192
0.771631
0.771332
0.771042
0.770741
0.770449
0.770146
0.769852
0.769548
0.769253
0.768947
0.768651
0.768343
0.768046
0.767736
0.767438
0.767127
0.766828
0.766515
0.766214
0.7659
0.765598
0.765282
0.764979
0.764661
0.764358
0.764038
0.763735
0.763414
0.76311
0.762788
0.762485
0.762162
0.761859
0.761535
0.761231
0.760906
0.7606
0.760271
0.759961
0.759628
0.759312
0.758973
0.758649
0.758301
0.757968
0.75761
0.757266
0.756897
0.756542
0.756163
0.755796
0.755408
0.755032
0.754636
0.754252
0.753853
0.753465
0.753065
0.752677
0.75228
0.751897
0.751508
0.751134
0.750758
0.750397
0.750037
0.749693
0.749352
0.749028
0.748706
0.748402
0.748101
0.747816
0.747533
0.747265
0.746997
0.746742
0.746485
0.746239
0.745987
0.745746
0.745495
0.745254
0.745
0.744756
0.744496
0.744246
0.743977
0.74372
0.743442
0.743177
0.742889
0.742617
0.74232
0.742042
0.741738
0.741454
0.741143
0.740856
0.74054
0.740251
0.73993
0.73964
0.739317
0.739026
0.738701
0.73841
0.738085
0.737794
0.737468
0.737178
0.736852
0.736563
0.736236
0.735947
0.735621
0.735332
0.735005
0.734717
0.73439
0.734102
0.733774
0.733485
0.733157
0.732867
0.732538
0.732248
0.731918
0.731627
0.731295
0.731003
0.730671
0.730377
0.730044
0.729749
0.729414
0.729118
0.728782
0.728485
0.728147
0.727849
0.72751
0.72721
0.726869
0.726568
0.726226
0.725924
0.72558
0.725276
0.724931
0.724626
0.724279
0.723973
0.723625
0.723317
0.722968
0.722659
0.722308
0.721998
0.721646
0.721334
0.720981
0.720668
0.720314
0.72
0.719645
0.719329
0.718973
0.718657
0.718299
0.717982
0.717623
0.717305
0.716946
0.716627
0.716266
0.715947
0.715586
0.715265
0.714902
0.71458
0.714216
0.713892
0.713526
0.7132
0.712831
0.712501
0.712128
0.711794
0.711417
0.711078
0.710695
0.71035
0.709961
0.709609
0.709214
0.708856
0.708453
0.708088
0.70768
0.707309
0.706895
0.706519
0.7061
0.705721
0.705299
0.704918
0.704496
0.704115
0.703694
0.703315
0.702898
0.702525
0.702114
0.701747
0.701344
0.700987
0.700594
0.700248
0.699866
0.699531
0.699162
0.698839
0.698481
0.698171
0.697824
0.697524
0.697187
0.696895
0.696567
0.696282
0.695958
0.695678
0.695358
0.695079
0.69476
0.694481
0.69416
0.693879
0.693556
0.693271
0.692943
0.692654
0.692322
0.692028
0.69169
0.691391
0.691048
0.690744
0.690396
0.690088
0.689736
0.689424
0.689068
0.688753
0.688394
0.688076
0.687716
0.687395
0.687033
0.686712
0.686348
0.686025
0.685661
0.685338
0.684973
0.684649
0.684283
0.683959
0.683593
0.683268
0.682902
0.682577
0.68221
0.681885
0.681518
0.681192
0.680824
0.680497
0.680129
0.679801
0.679432
0.679104
0.678734
0.678405
0.678034
0.677704
0.677331
0.677
0.676627
0.676294
0.67592
0.675586
0.675211
0.674876
0.674499
0.674163
0.673784
0.673447
0.673067
0.672729
0.672348
0.672007
0.671625
0.671284
0.6709
0.670557
0.670172
0.669828
0.669441
0.669096
0.668708
0.668361
0.667972
0.667624
0.667234
0.666884
0.666493
0.666142
0.665749
0.665397
0.665003
0.66465
0.664255
0.663901
0.663504
0.663149
0.662751
0.662395
0.661996
0.661638
0.661239
0.66088
0.660479
0.660119
0.659717
0.659355
0.658952
0.658589
0.658183
0.657818
0.657411
0.657044
0.656634
0.656264
0.655851
0.655478
0.655062
0.654686
0.654266
0.653886
0.653462
0.653077
0.652649
0.65226
0.651827
0.651433
0.650996
0.650598
0.650156
0.649754
0.649308
0.648903
0.648454
0.648045
0.647594
0.647183
0.646731
0.646319
0.645866
0.645455
0.645003
0.644594
0.644144
0.643737
0.643291
0.642889
0.642447
0.64205
0.641614
0.641223
0.640793
0.640409
0.639987
0.63961
0.639195
0.638825
0.638417
0.638054
0.637652
0.637295
0.6369
0.636548
0.636157
0.63581
0.635422
0.635077
0.634692
0.634349
0.633965
0.633622
0.633237
0.632893
0.632507
0.632161
0.631773
0.631425
0.631034
0.630682
0.630288
0.629933
0.629535
0.629176
0.628774
0.628412
0.628007
0.627642
0.627234
0.626865
0.626454
0.626083
0.625669
0.625296
0.62488
0.624504
0.624086
0.623708
0.623289
0.62291
0.622489
0.622108
0.621686
0.621304
0.620881
0.620498
0.620074
0.61969
0.619265
0.61888
0.618454
0.618068
0.617641
0.617254
0.616826
0.616438
0.616009
0.61562
0.615189
0.614799
0.614368
0.613977
0.613544
0.613151
0.612717
0.612323
0.611888
0.611492
0.611055
0.610659
0.61022
0.609822
0.609382
0.608982
0.60854
0.608139
0.607696
0.607293
0.606848
0.606443
0.605997
0.605591
0.605143
0.604735
0.604285
0.603875
0.603424
0.603012
0.602559
0.602146
0.601691
0.601277
0.60082
0.600404
0.599946
0.599528
0.599068
0.598648
0.598187
0.597765
0.597302
0.596879
0.596415
0.59599
0.595524
0.595098
0.59463
0.594202
0.593732
0.593303
0.592831
0.5924
0.591927
0.591495
0.59102
0.590585
0.590108
0.589672
0.589192
0.588754
0.588272
0.587832
0.587347
0.586904
0.586417
0.585972
0.585481
0.585033
0.584539
0.584088
0.583591
0.583136
0.582635
0.582177
0.581672
0.581211
0.580701
0.580237
0.579723
0.579257
0.578737
0.578269
0.577744
0.577275
0.576745
0.576275
0.575741
0.575269
0.574732
0.574259
0.573722
0.573246
0.572708
0.572231
0.571693
0.571216
0.570676
0.570203
0.569662
0.569191
0.56865
0.568183
0.567643
0.56718
0.566641
0.566184
0.565644
0.565194
0.564654
0.564212
0.56367
0.563238
0.562691
0.562273
0.561717
0.561314
0.560747
0.560363
0.559785
0.559418
0.558825
0.558476
0.557864
0.557535
0.556903
0.556594
0.555941
0.555651
0.554976
0.554704
0.554008
0.553753
0.553035
0.552796
0.552057
0.551832
0.551074
0.550859
0.550085
0.549879
0.54909
0.54889
0.548089
0.547894
0.547081
0.54689
0.546067
0.545878
0.545047
0.54486
0.544022
0.543833
0.542992
0.5428
0.541956
0.541761
0.540914
0.540718
0.539866
0.539669
0.538814
0.538614
0.537757
0.537554
0.536695
0.53649
0.535628
0.535421
0.534556
0.534347
0.533479
0.533268
0.532396
0.532184
0.53131
0.531093
0.530219
0.529997
0.529122
0.528896
0.52802
0.527789
0.526911
0.526677
0.525797
0.525559
0.524678
0.524435
0.523552
0.523305
0.52242
0.522169
0.521281
0.521027
0.520135
0.51988
0.518982
0.518726
0.517825
0.517562
0.516661
0.516393
0.51549
0.515217
0.514312
0.514096
0.00843311
)
;

boundaryField
{
    inlet
    {
        type            calculated;
        value           uniform 0.805169;
    }
    outlet
    {
        type            calculated;
        value           uniform 0.57227;
    }
    emptyWalls
    {
        type            empty;
    }
}


// ************************************************************************* //
