/*--------------------------------*- C++ -*----------------------------------*\
  =========                 |
  \\      /  F ield         | OpenFOAM: The Open Source CFD Toolbox
   \\    /   O peration     | Website:  https://openfoam.org
    \\  /    A nd           | Version:  9
     \\/     M anipulation  |
\*---------------------------------------------------------------------------*/
FoamFile
{
    format      ascii;
    class       surfaceScalarField;
    location    "16200";
    object      phic;
}
// * * * * * * * * * * * * * * * * * * * * * * * * * * * * * * * * * * * * * //

dimensions      [0 2 0 0 0 0 0];

internalField   nonuniform List<scalar> 
999
(
2.10292e-15
9.12268e-15
2.20913e-14
4.05665e-14
6.43838e-14
9.34613e-14
1.27629e-13
1.66621e-13
2.0995e-13
2.56882e-13
3.06402e-13
3.57226e-13
4.07893e-13
4.56926e-13
5.02991e-13
5.45236e-13
5.83415e-13
6.19867e-13
6.66739e-13
7.84319e-13
1.21093e-12
2.89285e-12
1.20432e-11
1.96866e-11
2.10764e-11
2.16491e-11
2.19935e-11
2.22442e-11
2.24478e-11
2.2625e-11
2.27861e-11
2.29369e-11
2.30802e-11
2.32177e-11
2.33502e-11
2.34783e-11
2.36028e-11
2.37238e-11
2.38423e-11
2.39587e-11
2.40734e-11
2.41872e-11
2.43004e-11
2.44137e-11
2.45275e-11
2.46425e-11
2.47593e-11
2.48788e-11
2.50047e-11
2.5134e-11
2.52671e-11
2.54045e-11
2.55471e-11
2.5696e-11
2.58528e-11
2.60197e-11
2.62003e-11
2.63995e-11
2.66241e-11
2.68831e-11
2.71861e-11
2.75411e-11
2.79506e-11
2.84087e-11
2.89046e-11
2.94277e-11
2.99708e-11
3.05289e-11
3.10986e-11
3.16776e-11
3.22641e-11
3.28569e-11
3.3455e-11
3.40577e-11
3.46646e-11
3.52751e-11
3.58889e-11
3.65058e-11
3.71255e-11
3.77479e-11
3.83727e-11
3.9e-11
3.96296e-11
4.02613e-11
4.08953e-11
4.15312e-11
4.21691e-11
4.28089e-11
4.34505e-11
4.40938e-11
4.47387e-11
4.53853e-11
4.60335e-11
4.66832e-11
4.73345e-11
4.79874e-11
4.86419e-11
4.9298e-11
4.99557e-11
5.06149e-11
5.12752e-11
5.19365e-11
5.25984e-11
5.32608e-11
5.39233e-11
5.4586e-11
5.52488e-11
5.59117e-11
5.65749e-11
5.72385e-11
5.79026e-11
5.85676e-11
5.92335e-11
5.99006e-11
6.05691e-11
6.12395e-11
6.19121e-11
6.25871e-11
6.3265e-11
6.39461e-11
6.46307e-11
6.53187e-11
6.60103e-11
6.67052e-11
6.74034e-11
6.81043e-11
6.88076e-11
6.95128e-11
7.02193e-11
7.09268e-11
7.16348e-11
7.2343e-11
7.3051e-11
7.37588e-11
7.44662e-11
7.51733e-11
7.588e-11
7.65864e-11
7.72928e-11
7.79992e-11
7.87059e-11
7.94131e-11
8.01208e-11
8.08293e-11
8.15386e-11
8.22489e-11
8.29603e-11
8.36728e-11
8.43864e-11
8.51012e-11
8.58172e-11
8.65343e-11
8.72526e-11
8.7972e-11
8.86926e-11
8.94142e-11
9.01368e-11
9.08605e-11
9.15852e-11
9.23108e-11
9.30374e-11
9.37648e-11
9.44932e-11
9.52225e-11
9.59527e-11
9.66837e-11
9.74155e-11
9.81482e-11
9.88818e-11
9.96161e-11
1.00351e-10
1.01087e-10
1.01824e-10
1.02562e-10
1.033e-10
1.04039e-10
1.04779e-10
1.0552e-10
1.06261e-10
1.07004e-10
1.07747e-10
1.08491e-10
1.09235e-10
1.0998e-10
1.10727e-10
1.11473e-10
1.12221e-10
1.12969e-10
1.13718e-10
1.14468e-10
1.15218e-10
1.1597e-10
1.16722e-10
1.17474e-10
1.18228e-10
1.18982e-10
1.19737e-10
1.20492e-10
1.21249e-10
1.22005e-10
1.22763e-10
1.23521e-10
1.24281e-10
1.2504e-10
1.25801e-10
1.26562e-10
1.27324e-10
1.28086e-10
1.2885e-10
1.29614e-10
1.30379e-10
1.31144e-10
1.31911e-10
1.32678e-10
1.33446e-10
1.34214e-10
1.34983e-10
1.35753e-10
1.36524e-10
1.37296e-10
1.38068e-10
1.38841e-10
1.39615e-10
1.40389e-10
1.41164e-10
1.4194e-10
1.42717e-10
1.43494e-10
1.44273e-10
1.45051e-10
1.45831e-10
1.4661e-10
1.4739e-10
1.4817e-10
1.4895e-10
1.4973e-10
1.5051e-10
1.5129e-10
1.52068e-10
1.52847e-10
1.53625e-10
1.54402e-10
1.55179e-10
1.55956e-10
1.56732e-10
1.57508e-10
1.58284e-10
1.59061e-10
1.59838e-10
1.60617e-10
1.61396e-10
1.62177e-10
1.6296e-10
1.63746e-10
1.64534e-10
1.65325e-10
1.66119e-10
1.66917e-10
1.67719e-10
1.68524e-10
1.69333e-10
1.70146e-10
1.70963e-10
1.71783e-10
1.72606e-10
1.73431e-10
1.74259e-10
1.75089e-10
1.7592e-10
1.76753e-10
1.77586e-10
1.7842e-10
1.79253e-10
1.80087e-10
1.8092e-10
1.81752e-10
1.82584e-10
1.83416e-10
1.84246e-10
1.85077e-10
1.85906e-10
1.86736e-10
1.87565e-10
1.88394e-10
1.89224e-10
1.90053e-10
1.90883e-10
1.91714e-10
1.92545e-10
1.93377e-10
1.94209e-10
1.95043e-10
1.95877e-10
1.96713e-10
1.9755e-10
1.98388e-10
1.99227e-10
2.00067e-10
2.00908e-10
2.01751e-10
2.02595e-10
2.0344e-10
2.04286e-10
2.05133e-10
2.05981e-10
2.06831e-10
2.07681e-10
2.08533e-10
2.09385e-10
2.10239e-10
2.11093e-10
2.11949e-10
2.12806e-10
2.13663e-10
2.14522e-10
2.15381e-10
2.16242e-10
2.17103e-10
2.17966e-10
2.18829e-10
2.19693e-10
2.20559e-10
2.21425e-10
2.22292e-10
2.2316e-10
2.24029e-10
2.24899e-10
2.2577e-10
2.26642e-10
2.27515e-10
2.28389e-10
2.29263e-10
2.30139e-10
2.31015e-10
2.31893e-10
2.32772e-10
2.33651e-10
2.34531e-10
2.35413e-10
2.36295e-10
2.37178e-10
2.38063e-10
2.38948e-10
2.39834e-10
2.40721e-10
2.4161e-10
2.42499e-10
2.43389e-10
2.4428e-10
2.45172e-10
2.46065e-10
2.46959e-10
2.47854e-10
2.48751e-10
2.49648e-10
2.50546e-10
2.51445e-10
2.52346e-10
2.53247e-10
2.5415e-10
2.55053e-10
2.55958e-10
2.56864e-10
2.57771e-10
2.58679e-10
2.59588e-10
2.60498e-10
2.6141e-10
2.62322e-10
2.63236e-10
2.64151e-10
2.65067e-10
2.65984e-10
2.66903e-10
2.67822e-10
2.68743e-10
2.69665e-10
2.70588e-10
2.71512e-10
2.72437e-10
2.73363e-10
2.7429e-10
2.75219e-10
2.76147e-10
2.77077e-10
2.78007e-10
2.78938e-10
2.7987e-10
2.80802e-10
2.81734e-10
2.82666e-10
2.83599e-10
2.84531e-10
2.85464e-10
2.86397e-10
2.8733e-10
2.88263e-10
2.89196e-10
2.90129e-10
2.91062e-10
2.91996e-10
2.9293e-10
2.93865e-10
2.94801e-10
2.95738e-10
2.96677e-10
2.97617e-10
2.98559e-10
2.99504e-10
3.00451e-10
3.01401e-10
3.02354e-10
3.0331e-10
3.04271e-10
3.05235e-10
3.06204e-10
3.07177e-10
3.08154e-10
3.09137e-10
3.10124e-10
3.11115e-10
3.12112e-10
3.13112e-10
3.14117e-10
3.15126e-10
3.16139e-10
3.17156e-10
3.18175e-10
3.19198e-10
3.20223e-10
3.2125e-10
3.2228e-10
3.23311e-10
3.24343e-10
3.25376e-10
3.2641e-10
3.27445e-10
3.28481e-10
3.29517e-10
3.30553e-10
3.3159e-10
3.32627e-10
3.33665e-10
3.34703e-10
3.35742e-10
3.36781e-10
3.37821e-10
3.38862e-10
3.39904e-10
3.40947e-10
3.41992e-10
3.43038e-10
3.44085e-10
3.45134e-10
3.46185e-10
3.47237e-10
3.48291e-10
3.49348e-10
3.50406e-10
3.51467e-10
3.5253e-10
3.53595e-10
3.54662e-10
3.55732e-10
3.56804e-10
3.57878e-10
3.58955e-10
3.60034e-10
3.61115e-10
3.62199e-10
3.63286e-10
3.64374e-10
3.65465e-10
3.66559e-10
3.67655e-10
3.68753e-10
3.69854e-10
3.70957e-10
3.72063e-10
3.73171e-10
3.74282e-10
3.75394e-10
3.7651e-10
3.77628e-10
3.78748e-10
3.79871e-10
3.80996e-10
3.82124e-10
3.83254e-10
3.84386e-10
3.85522e-10
3.86659e-10
3.878e-10
3.88943e-10
3.90088e-10
3.91236e-10
3.92387e-10
3.9354e-10
3.94696e-10
3.95855e-10
3.97017e-10
3.98181e-10
3.99347e-10
4.00517e-10
4.01689e-10
4.02864e-10
4.04042e-10
4.05223e-10
4.06407e-10
4.07593e-10
4.08783e-10
4.09975e-10
4.11171e-10
4.12369e-10
4.13571e-10
4.14775e-10
4.15983e-10
4.17194e-10
4.18407e-10
4.19625e-10
4.20845e-10
4.22068e-10
4.23295e-10
4.24525e-10
4.25759e-10
4.26996e-10
4.28236e-10
4.2948e-10
4.30727e-10
4.31978e-10
4.33233e-10
4.34491e-10
4.35752e-10
4.37018e-10
4.38287e-10
4.3956e-10
4.40837e-10
4.42118e-10
4.43403e-10
4.44691e-10
4.45984e-10
4.4728e-10
4.48581e-10
4.49886e-10
4.51195e-10
4.52508e-10
4.53825e-10
4.55147e-10
4.56473e-10
4.57803e-10
4.59137e-10
4.60476e-10
4.61818e-10
4.63165e-10
4.64517e-10
4.65872e-10
4.67232e-10
4.68596e-10
4.69964e-10
4.71336e-10
4.72713e-10
4.74093e-10
4.75478e-10
4.76866e-10
4.78259e-10
4.79656e-10
4.81057e-10
4.82462e-10
4.83871e-10
4.85285e-10
4.86703e-10
4.88125e-10
4.89552e-10
4.90984e-10
4.9242e-10
4.93861e-10
4.95308e-10
4.9676e-10
4.98217e-10
4.99681e-10
5.0115e-10
5.02626e-10
5.04109e-10
5.05598e-10
5.07094e-10
5.08598e-10
5.1011e-10
5.1163e-10
5.13158e-10
5.14695e-10
5.1624e-10
5.17793e-10
5.19356e-10
5.20927e-10
5.22508e-10
5.24097e-10
5.25695e-10
5.27301e-10
5.28914e-10
5.30535e-10
5.32163e-10
5.33796e-10
5.35435e-10
5.37076e-10
5.3872e-10
5.40363e-10
5.42005e-10
5.43644e-10
5.45275e-10
5.46897e-10
5.48506e-10
5.50098e-10
5.51669e-10
5.53215e-10
5.54731e-10
5.56212e-10
5.57652e-10
5.59046e-10
5.60389e-10
5.61674e-10
5.62898e-10
5.64055e-10
5.65142e-10
5.66155e-10
5.67091e-10
5.6795e-10
5.68731e-10
5.69436e-10
5.70066e-10
5.70624e-10
5.71112e-10
5.71537e-10
5.71904e-10
5.72219e-10
5.72489e-10
5.72724e-10
5.72934e-10
5.73134e-10
5.73349e-10
5.73618e-10
5.74005e-10
5.74624e-10
5.75674e-10
5.77503e-10
5.80723e-10
5.86374e-10
5.96158e-10
6.12647e-10
6.39161e-10
6.78687e-10
7.3133e-10
7.91585e-10
8.49275e-10
8.95368e-10
9.26881e-10
9.46084e-10
9.56945e-10
9.62827e-10
9.65937e-10
9.67563e-10
9.68411e-10
9.68853e-10
9.69087e-10
9.69213e-10
9.69283e-10
9.69326e-10
9.69353e-10
9.69373e-10
9.69389e-10
9.69403e-10
9.69416e-10
9.69428e-10
9.6944e-10
9.69452e-10
9.69463e-10
9.69474e-10
9.69485e-10
9.69495e-10
9.69505e-10
9.69516e-10
9.69525e-10
9.69535e-10
9.69544e-10
9.69553e-10
9.69562e-10
9.69571e-10
9.69579e-10
9.69587e-10
9.69595e-10
9.69602e-10
9.69609e-10
9.69616e-10
9.69622e-10
9.69628e-10
9.69634e-10
9.6964e-10
9.69645e-10
9.6965e-10
9.69654e-10
9.69659e-10
9.69663e-10
9.69666e-10
9.69669e-10
9.69672e-10
9.69675e-10
9.69677e-10
9.69679e-10
9.6968e-10
9.69682e-10
9.69682e-10
9.69683e-10
9.69684e-10
9.69684e-10
9.69683e-10
9.69682e-10
9.69681e-10
9.6968e-10
9.69678e-10
9.69676e-10
9.69674e-10
9.69671e-10
9.69668e-10
9.69665e-10
9.69661e-10
9.69657e-10
9.69653e-10
9.69648e-10
9.69644e-10
9.69639e-10
9.69633e-10
9.69628e-10
9.69622e-10
9.69615e-10
9.69609e-10
9.69602e-10
9.69595e-10
9.69587e-10
9.69579e-10
9.69571e-10
9.69562e-10
9.69553e-10
9.69543e-10
9.69533e-10
9.69522e-10
9.6951e-10
9.69498e-10
9.69485e-10
9.69471e-10
9.69457e-10
9.69441e-10
9.69424e-10
9.69407e-10
9.69388e-10
9.69368e-10
9.69346e-10
9.69324e-10
9.693e-10
9.69274e-10
9.69247e-10
9.69218e-10
9.69187e-10
9.69155e-10
9.69121e-10
9.69086e-10
9.69048e-10
9.69009e-10
9.68968e-10
9.68926e-10
9.68881e-10
9.68836e-10
9.68788e-10
9.6874e-10
9.6869e-10
9.68639e-10
9.68586e-10
9.68534e-10
9.6848e-10
9.68426e-10
9.68372e-10
9.68318e-10
9.68264e-10
9.68211e-10
9.68158e-10
9.68107e-10
9.68057e-10
9.68008e-10
9.67962e-10
9.67918e-10
9.67876e-10
9.67838e-10
9.67802e-10
9.6777e-10
9.67741e-10
9.67716e-10
9.67695e-10
9.67678e-10
9.67666e-10
9.67658e-10
9.67654e-10
9.67653e-10
9.67653e-10
9.67655e-10
9.67668e-10
9.67686e-10
9.67707e-10
9.67733e-10
9.67763e-10
9.67795e-10
9.67831e-10
9.6787e-10
9.67911e-10
9.67954e-10
9.67999e-10
9.68046e-10
9.68094e-10
9.68143e-10
9.68192e-10
9.68242e-10
9.68292e-10
9.68341e-10
9.6839e-10
9.68437e-10
9.68484e-10
9.6853e-10
9.68574e-10
9.68617e-10
9.68658e-10
9.68697e-10
9.68734e-10
9.6877e-10
9.68804e-10
9.68835e-10
9.68865e-10
9.68894e-10
9.6892e-10
9.68945e-10
9.68969e-10
9.68991e-10
9.69011e-10
9.6903e-10
9.69048e-10
9.69065e-10
9.69081e-10
9.69096e-10
9.6911e-10
9.69124e-10
9.69136e-10
9.69149e-10
9.69161e-10
9.69172e-10
9.69183e-10
9.69194e-10
9.69205e-10
9.69215e-10
9.69226e-10
9.69236e-10
9.69247e-10
9.69257e-10
9.69267e-10
9.69278e-10
9.69288e-10
9.69298e-10
9.69309e-10
9.69319e-10
9.69329e-10
9.6934e-10
9.6935e-10
9.6936e-10
9.6937e-10
9.6938e-10
9.6939e-10
9.694e-10
9.6941e-10
9.6942e-10
9.69429e-10
9.69439e-10
9.69448e-10
9.69458e-10
9.69467e-10
9.69476e-10
9.69485e-10
9.69494e-10
9.69503e-10
9.69512e-10
9.6952e-10
9.69529e-10
9.69537e-10
9.69545e-10
9.69553e-10
9.6956e-10
9.69568e-10
9.69575e-10
9.69582e-10
9.69588e-10
9.69595e-10
9.69601e-10
9.69607e-10
9.69613e-10
9.69618e-10
9.69623e-10
9.69628e-10
9.69632e-10
9.69637e-10
9.6964e-10
9.69644e-10
9.69647e-10
9.6965e-10
9.69653e-10
9.69655e-10
9.69657e-10
9.69659e-10
9.6966e-10
9.69661e-10
9.69662e-10
9.69662e-10
9.69662e-10
9.69662e-10
9.69662e-10
9.69661e-10
9.6966e-10
9.69659e-10
9.69657e-10
9.69655e-10
9.69653e-10
9.6965e-10
9.69647e-10
9.69644e-10
9.6964e-10
9.69636e-10
9.69632e-10
9.69628e-10
9.69623e-10
9.69619e-10
9.69613e-10
9.69608e-10
9.69602e-10
9.69596e-10
9.6959e-10
9.69583e-10
9.69576e-10
9.69569e-10
9.69561e-10
9.69553e-10
9.69544e-10
9.69535e-10
9.69526e-10
9.69516e-10
9.69505e-10
9.69494e-10
9.69482e-10
9.6947e-10
9.69457e-10
9.69443e-10
9.69428e-10
9.69413e-10
9.69397e-10
9.69379e-10
9.69361e-10
9.69341e-10
9.69321e-10
9.69299e-10
9.69276e-10
9.69252e-10
9.69226e-10
9.69199e-10
9.69171e-10
9.69142e-10
9.6911e-10
9.69078e-10
9.69044e-10
9.69009e-10
9.68972e-10
9.68934e-10
9.68895e-10
9.68855e-10
9.68813e-10
9.6877e-10
9.68726e-10
9.68682e-10
9.68636e-10
9.6859e-10
9.68543e-10
9.68496e-10
9.68449e-10
9.68401e-10
9.68354e-10
9.68307e-10
9.6826e-10
9.68214e-10
9.6817e-10
9.68126e-10
9.68084e-10
9.68042e-10
9.68005e-10
9.67967e-10
9.67933e-10
9.679e-10
9.67871e-10
9.67843e-10
)
;

boundaryField
{
    inlet
    {
        type            calculated;
        value           uniform 0;
    }
    outlet
    {
        type            calculated;
        value           uniform 9.67821e-10;
    }
    emptyWalls
    {
        type            empty;
        value           nonuniform List<scalar> 0();
    }
}


// ************************************************************************* //
