/*--------------------------------*- C++ -*----------------------------------*\
  =========                 |
  \\      /  F ield         | OpenFOAM: The Open Source CFD Toolbox
   \\    /   O peration     | Website:  https://openfoam.org
    \\  /    A nd           | Version:  9
     \\/     M anipulation  |
\*---------------------------------------------------------------------------*/
FoamFile
{
    format      ascii;
    class       surfaceScalarField;
    location    "21050";
    object      phia;
}
// * * * * * * * * * * * * * * * * * * * * * * * * * * * * * * * * * * * * * //

dimensions      [0 2 0 0 0 0 0];

internalField   nonuniform List<scalar> 
999
(
2.74881e-10
2.7488e-10
2.74852e-10
2.74839e-10
2.74792e-10
2.74771e-10
2.74712e-10
2.74685e-10
2.74624e-10
2.74571e-10
2.74519e-10
2.74427e-10
2.74376e-10
2.74274e-10
2.74201e-10
2.74111e-10
2.7402e-10
2.7393e-10
2.73844e-10
2.7376e-10
2.73689e-10
2.73625e-10
2.73574e-10
2.73516e-10
2.73483e-10
2.73377e-10
2.73172e-10
2.72327e-10
2.68807e-10
2.46561e-10
2.22094e-10
2.18108e-10
2.1565e-10
2.13436e-10
2.11649e-10
2.10415e-10
2.0978e-10
2.09576e-10
2.09484e-10
2.09426e-10
2.09334e-10
2.09193e-10
2.09011e-10
2.088e-10
2.08578e-10
2.0835e-10
2.08126e-10
2.07909e-10
2.07703e-10
2.07504e-10
2.07314e-10
2.07132e-10
2.06959e-10
2.06793e-10
2.06638e-10
2.06487e-10
2.06345e-10
2.06207e-10
2.06076e-10
2.05949e-10
2.05829e-10
2.05713e-10
2.056e-10
2.05492e-10
2.05389e-10
2.05291e-10
2.05199e-10
2.05113e-10
2.05031e-10
2.04954e-10
2.04883e-10
2.04816e-10
2.04752e-10
2.04694e-10
2.0464e-10
2.0459e-10
2.04545e-10
2.04505e-10
2.04472e-10
2.04446e-10
2.04428e-10
2.0442e-10
2.0442e-10
2.04422e-10
2.04423e-10
2.04422e-10
2.0442e-10
2.04415e-10
2.04409e-10
2.04402e-10
2.04395e-10
2.04389e-10
2.04387e-10
2.04388e-10
2.04394e-10
2.04403e-10
2.04413e-10
2.04422e-10
2.04429e-10
2.04431e-10
2.0443e-10
2.04426e-10
2.04419e-10
2.0441e-10
2.04403e-10
2.04403e-10
2.04419e-10
2.04459e-10
2.04533e-10
2.04645e-10
2.04795e-10
2.04981e-10
2.05196e-10
2.05432e-10
2.0568e-10
2.05935e-10
2.0619e-10
2.06439e-10
2.06677e-10
2.06896e-10
2.07091e-10
2.07251e-10
2.07369e-10
2.07438e-10
2.07452e-10
2.07408e-10
2.07306e-10
2.0715e-10
2.06946e-10
2.06704e-10
2.06435e-10
2.0615e-10
2.05859e-10
2.05575e-10
2.05305e-10
2.05057e-10
2.04836e-10
2.04645e-10
2.04484e-10
2.04354e-10
2.04251e-10
2.04175e-10
2.04119e-10
2.04082e-10
2.04058e-10
2.04043e-10
2.04035e-10
2.0403e-10
2.04026e-10
2.0402e-10
2.04011e-10
2.03997e-10
2.0398e-10
2.03958e-10
2.0393e-10
2.03899e-10
2.03863e-10
2.03824e-10
2.03782e-10
2.03738e-10
2.03691e-10
2.03643e-10
2.03594e-10
2.03545e-10
2.03495e-10
2.03445e-10
2.03395e-10
2.03345e-10
2.03296e-10
2.03247e-10
2.03199e-10
2.03152e-10
2.03105e-10
2.03059e-10
2.03014e-10
2.0297e-10
2.02927e-10
2.02885e-10
2.02843e-10
2.02803e-10
2.02763e-10
2.02725e-10
2.02688e-10
2.02652e-10
2.02617e-10
2.02583e-10
2.0255e-10
2.02518e-10
2.02487e-10
2.02457e-10
2.02429e-10
2.02401e-10
2.02375e-10
2.0235e-10
2.02326e-10
2.02304e-10
2.02282e-10
2.02263e-10
2.02245e-10
2.02228e-10
2.02213e-10
2.02199e-10
2.02186e-10
2.02174e-10
2.02162e-10
2.02152e-10
2.02142e-10
2.02132e-10
2.02123e-10
2.02114e-10
2.02105e-10
2.02097e-10
2.0209e-10
2.02083e-10
2.02077e-10
2.02072e-10
2.02068e-10
2.02065e-10
2.02062e-10
2.0206e-10
2.02057e-10
2.02054e-10
2.02051e-10
2.02046e-10
2.02041e-10
2.02035e-10
2.0203e-10
2.02027e-10
2.02027e-10
2.02031e-10
2.02041e-10
2.02059e-10
2.02087e-10
2.02126e-10
2.02177e-10
2.02241e-10
2.0232e-10
2.02412e-10
2.02518e-10
2.02638e-10
2.02769e-10
2.02911e-10
2.03061e-10
2.03218e-10
2.03379e-10
2.0354e-10
2.03699e-10
2.03852e-10
2.03996e-10
2.04126e-10
2.0424e-10
2.04335e-10
2.04406e-10
2.04453e-10
2.04474e-10
2.04466e-10
2.04431e-10
2.04369e-10
2.0428e-10
2.04168e-10
2.04035e-10
2.03884e-10
2.0372e-10
2.03546e-10
2.03365e-10
2.03183e-10
2.03002e-10
2.02827e-10
2.02658e-10
2.025e-10
2.02353e-10
2.02218e-10
2.02096e-10
2.01987e-10
2.01891e-10
2.01808e-10
2.01735e-10
2.01672e-10
2.01618e-10
2.01572e-10
2.01531e-10
2.01496e-10
2.01464e-10
2.01435e-10
2.01407e-10
2.0138e-10
2.01353e-10
2.01326e-10
2.01298e-10
2.01268e-10
2.01237e-10
2.01204e-10
2.0117e-10
2.01134e-10
2.01096e-10
2.01057e-10
2.01017e-10
2.00975e-10
2.00932e-10
2.00889e-10
2.00845e-10
2.008e-10
2.00755e-10
2.0071e-10
2.00665e-10
2.00619e-10
2.00574e-10
2.0053e-10
2.00485e-10
2.00441e-10
2.00398e-10
2.00355e-10
2.00313e-10
2.00271e-10
2.0023e-10
2.0019e-10
2.0015e-10
2.00111e-10
2.00074e-10
2.00036e-10
2e-10
1.99965e-10
1.9993e-10
1.99896e-10
1.99863e-10
1.99831e-10
1.998e-10
1.9977e-10
1.9974e-10
1.99712e-10
1.99685e-10
1.99658e-10
1.99632e-10
1.99608e-10
1.99584e-10
1.99562e-10
1.9954e-10
1.9952e-10
1.995e-10
1.99481e-10
1.99464e-10
1.99447e-10
1.99431e-10
1.99416e-10
1.99401e-10
1.99387e-10
1.99374e-10
1.99362e-10
1.9935e-10
1.99338e-10
1.99327e-10
1.99317e-10
1.99307e-10
1.99298e-10
1.99289e-10
1.99281e-10
1.99273e-10
1.99265e-10
1.99258e-10
1.99251e-10
1.99244e-10
1.99237e-10
1.9923e-10
1.99223e-10
1.99216e-10
1.9921e-10
1.99204e-10
1.99199e-10
1.99196e-10
1.99193e-10
1.99193e-10
1.99195e-10
1.99201e-10
1.99211e-10
1.99225e-10
1.99244e-10
1.99269e-10
1.993e-10
1.99338e-10
1.99383e-10
1.99435e-10
1.99495e-10
1.99563e-10
1.99638e-10
1.9972e-10
1.99808e-10
1.99902e-10
2.00001e-10
2.00105e-10
2.0021e-10
2.00318e-10
2.00425e-10
2.00531e-10
2.00634e-10
2.00732e-10
2.00824e-10
2.00908e-10
2.00983e-10
2.01046e-10
2.01097e-10
2.01134e-10
2.01157e-10
2.01165e-10
2.01158e-10
2.01134e-10
2.01095e-10
2.01041e-10
2.00973e-10
2.00892e-10
2.00798e-10
2.00694e-10
2.00581e-10
2.00462e-10
2.00336e-10
2.00208e-10
2.00077e-10
1.99947e-10
1.99818e-10
1.99691e-10
1.99569e-10
1.99451e-10
1.9934e-10
1.99234e-10
1.99135e-10
1.99043e-10
1.98957e-10
1.98879e-10
1.98806e-10
1.9874e-10
1.98679e-10
1.98624e-10
1.98573e-10
1.98526e-10
1.98482e-10
1.98442e-10
1.98403e-10
1.98367e-10
1.98332e-10
1.98298e-10
1.98265e-10
1.98231e-10
1.98198e-10
1.98165e-10
1.98132e-10
1.98098e-10
1.98063e-10
1.98027e-10
1.97991e-10
1.97955e-10
1.97917e-10
1.97879e-10
1.9784e-10
1.97801e-10
1.97761e-10
1.97721e-10
1.9768e-10
1.97639e-10
1.97599e-10
1.97557e-10
1.97516e-10
1.97475e-10
1.97434e-10
1.97394e-10
1.97353e-10
1.97313e-10
1.97273e-10
1.97234e-10
1.97195e-10
1.97156e-10
1.97118e-10
1.9708e-10
1.97043e-10
1.97007e-10
1.96971e-10
1.96936e-10
1.96901e-10
1.96867e-10
1.96833e-10
1.96801e-10
1.96769e-10
1.96737e-10
1.96706e-10
1.96676e-10
1.96647e-10
1.96618e-10
1.96591e-10
1.96563e-10
1.96537e-10
1.96511e-10
1.96486e-10
1.96462e-10
1.96439e-10
1.96416e-10
1.96394e-10
1.96372e-10
1.96352e-10
1.96332e-10
1.96313e-10
1.96294e-10
1.96276e-10
1.96259e-10
1.96242e-10
1.96226e-10
1.9621e-10
1.96195e-10
1.96181e-10
1.96167e-10
1.96153e-10
1.9614e-10
1.96127e-10
1.96115e-10
1.96103e-10
1.96091e-10
1.9608e-10
1.96069e-10
1.96058e-10
1.96048e-10
1.96038e-10
1.96028e-10
1.96019e-10
1.9601e-10
1.96001e-10
1.95993e-10
1.95986e-10
1.95979e-10
1.95974e-10
1.9597e-10
1.95967e-10
1.95966e-10
1.95967e-10
1.9597e-10
1.95976e-10
1.95985e-10
1.95997e-10
1.96012e-10
1.96031e-10
1.96054e-10
1.96081e-10
1.96113e-10
1.96149e-10
1.96189e-10
1.96234e-10
1.96284e-10
1.96338e-10
1.96396e-10
1.96457e-10
1.96523e-10
1.96591e-10
1.96662e-10
1.96735e-10
1.96809e-10
1.96885e-10
1.9696e-10
1.97034e-10
1.97106e-10
1.97176e-10
1.97243e-10
1.97305e-10
1.97363e-10
1.97414e-10
1.97459e-10
1.97497e-10
1.97526e-10
1.97547e-10
1.97559e-10
1.97562e-10
1.97555e-10
1.97538e-10
1.97512e-10
1.97476e-10
1.97431e-10
1.97377e-10
1.97314e-10
1.97244e-10
1.97167e-10
1.97083e-10
1.96995e-10
1.96902e-10
1.96805e-10
1.96706e-10
1.96605e-10
1.96503e-10
1.96402e-10
1.96301e-10
1.96201e-10
1.96104e-10
1.96009e-10
1.95918e-10
1.95829e-10
1.95745e-10
1.95664e-10
1.95587e-10
1.95514e-10
1.95445e-10
1.95379e-10
1.95317e-10
1.95259e-10
1.95203e-10
1.95151e-10
1.95101e-10
1.95054e-10
1.95009e-10
1.94966e-10
1.94924e-10
1.94884e-10
1.94844e-10
1.94806e-10
1.94768e-10
1.94731e-10
1.94694e-10
1.94657e-10
1.9462e-10
1.94583e-10
1.94546e-10
1.94508e-10
1.94471e-10
1.94433e-10
1.94395e-10
1.94356e-10
1.94317e-10
1.94278e-10
1.94239e-10
1.94199e-10
1.94159e-10
1.94119e-10
1.94079e-10
1.94038e-10
1.93998e-10
1.93957e-10
1.93917e-10
1.93877e-10
1.93836e-10
1.93796e-10
1.93756e-10
1.93717e-10
1.93677e-10
1.93638e-10
1.93599e-10
1.93561e-10
1.93523e-10
1.93485e-10
1.93448e-10
1.93411e-10
1.93375e-10
1.93339e-10
1.93303e-10
1.93269e-10
1.93234e-10
1.932e-10
1.93167e-10
1.93134e-10
1.93102e-10
1.93071e-10
1.9304e-10
1.93009e-10
1.9298e-10
1.9295e-10
1.92922e-10
1.92894e-10
1.92866e-10
1.9284e-10
1.92813e-10
1.92788e-10
1.92763e-10
1.92738e-10
1.92715e-10
1.92691e-10
1.92669e-10
1.92647e-10
1.92625e-10
1.92604e-10
1.92584e-10
1.92564e-10
1.92544e-10
1.92525e-10
1.92507e-10
1.92489e-10
1.92471e-10
1.92454e-10
1.92437e-10
1.92421e-10
1.92405e-10
1.92389e-10
1.92374e-10
1.92359e-10
1.92344e-10
1.9233e-10
1.92317e-10
1.92303e-10
1.9229e-10
1.92278e-10
1.92266e-10
1.92254e-10
1.92243e-10
1.92233e-10
1.92224e-10
1.92215e-10
1.92208e-10
1.92201e-10
1.92196e-10
1.92192e-10
1.92189e-10
1.92188e-10
1.92189e-10
1.92192e-10
1.92197e-10
1.92204e-10
1.92213e-10
1.92225e-10
1.9224e-10
1.92257e-10
1.92277e-10
1.923e-10
1.92325e-10
1.92354e-10
1.92385e-10
1.92419e-10
1.92456e-10
1.92496e-10
1.92538e-10
1.92582e-10
1.92629e-10
1.92677e-10
1.92726e-10
1.92777e-10
1.92828e-10
1.9288e-10
1.92932e-10
1.92983e-10
1.93034e-10
1.93083e-10
1.93131e-10
1.93176e-10
1.93218e-10
1.93257e-10
1.93293e-10
1.93324e-10
1.9335e-10
1.93372e-10
1.93388e-10
1.93399e-10
1.93404e-10
1.93402e-10
1.93394e-10
1.9338e-10
1.93359e-10
1.93332e-10
1.93298e-10
1.93259e-10
1.93213e-10
1.93161e-10
1.93104e-10
1.93041e-10
1.92974e-10
1.92903e-10
1.92827e-10
1.92749e-10
1.92667e-10
1.92584e-10
1.92498e-10
1.92412e-10
1.92324e-10
1.92236e-10
1.92149e-10
1.92062e-10
1.91975e-10
1.9189e-10
1.91807e-10
1.91725e-10
1.91646e-10
1.91568e-10
1.91493e-10
1.9142e-10
1.91349e-10
1.91281e-10
1.91215e-10
1.91152e-10
1.9109e-10
1.91031e-10
1.90974e-10
1.90919e-10
1.90866e-10
1.90814e-10
1.90764e-10
1.90716e-10
1.90668e-10
1.90622e-10
1.90577e-10
1.90533e-10
1.90489e-10
1.90447e-10
1.90405e-10
1.90363e-10
1.90322e-10
1.90281e-10
1.90241e-10
1.90201e-10
1.90162e-10
1.90123e-10
1.90084e-10
1.90046e-10
1.90008e-10
1.89971e-10
1.89935e-10
1.89899e-10
1.89864e-10
1.89829e-10
1.89796e-10
1.89763e-10
1.89731e-10
1.89701e-10
1.89671e-10
1.89643e-10
1.89615e-10
1.89589e-10
1.89564e-10
1.8954e-10
1.89517e-10
1.89496e-10
1.89475e-10
1.89455e-10
1.89436e-10
1.89419e-10
1.89402e-10
1.89386e-10
1.89371e-10
1.89356e-10
1.89342e-10
1.8933e-10
1.89317e-10
1.89305e-10
1.89293e-10
1.89282e-10
1.8927e-10
1.89258e-10
1.89244e-10
1.89225e-10
1.89199e-10
1.89159e-10
1.89094e-10
1.88987e-10
1.88806e-10
1.88514e-10
1.88065e-10
1.87441e-10
1.867e-10
1.85987e-10
1.85451e-10
1.85127e-10
1.8496e-10
1.8488e-10
1.84841e-10
1.84823e-10
1.84814e-10
1.8481e-10
1.84809e-10
1.84809e-10
1.84811e-10
1.84813e-10
1.84815e-10
1.84818e-10
1.84821e-10
1.84825e-10
1.84829e-10
1.84834e-10
1.84839e-10
1.84844e-10
1.84849e-10
1.84855e-10
1.84861e-10
1.84868e-10
1.84875e-10
1.84882e-10
1.8489e-10
1.84898e-10
1.84906e-10
1.84915e-10
1.84924e-10
1.84933e-10
1.84943e-10
1.84954e-10
1.84965e-10
1.84976e-10
1.84988e-10
1.85001e-10
1.85015e-10
1.85029e-10
1.85044e-10
1.8506e-10
1.85077e-10
1.85095e-10
1.85114e-10
1.85134e-10
1.85155e-10
1.85178e-10
1.85202e-10
1.85228e-10
1.85255e-10
1.85283e-10
1.85313e-10
1.85345e-10
1.85379e-10
1.85414e-10
1.85451e-10
1.8549e-10
1.8553e-10
1.85573e-10
1.85617e-10
1.85663e-10
1.85711e-10
1.8576e-10
1.8581e-10
1.85863e-10
1.85916e-10
1.85971e-10
1.86027e-10
1.86083e-10
1.86141e-10
1.86199e-10
1.86257e-10
1.86315e-10
1.86374e-10
1.86432e-10
1.8649e-10
1.86547e-10
1.86602e-10
1.86657e-10
1.8671e-10
1.86761e-10
1.86811e-10
1.86857e-10
1.86902e-10
1.86943e-10
1.86982e-10
1.87017e-10
1.87049e-10
1.87077e-10
1.87101e-10
1.87122e-10
1.87138e-10
1.87149e-10
1.87157e-10
1.8716e-10
1.8716e-10
1.8716e-10
1.87158e-10
1.87146e-10
1.87128e-10
1.87107e-10
1.87082e-10
1.87054e-10
1.87022e-10
1.86988e-10
1.86951e-10
1.86912e-10
1.8687e-10
1.86826e-10
1.86781e-10
1.86734e-10
1.86686e-10
1.86638e-10
1.86588e-10
1.86539e-10
1.86489e-10
1.8644e-10
1.86391e-10
1.86342e-10
1.86294e-10
1.86248e-10
1.86202e-10
1.86158e-10
1.86114e-10
1.86073e-10
1.86033e-10
1.85994e-10
1.85957e-10
1.85921e-10
1.85887e-10
1.85855e-10
1.85823e-10
1.85794e-10
1.85766e-10
1.85739e-10
1.85714e-10
1.85689e-10
1.85666e-10
1.85644e-10
1.85623e-10
1.85603e-10
1.85583e-10
1.85565e-10
1.85547e-10
1.8553e-10
1.85513e-10
1.85496e-10
1.85481e-10
1.85465e-10
1.8545e-10
1.85435e-10
)
;

boundaryField
{
    inlet
    {
        type            calculated;
        value           uniform -2.74882e-10;
    }
    outlet
    {
        type            calculated;
        value           uniform 1.8542e-10;
    }
    emptyWalls
    {
        type            empty;
        value           nonuniform List<scalar> 0();
    }
}


// ************************************************************************* //
