/*--------------------------------*- C++ -*----------------------------------*\
  =========                 |
  \\      /  F ield         | OpenFOAM: The Open Source CFD Toolbox
   \\    /   O peration     | Website:  https://openfoam.org
    \\  /    A nd           | Version:  9
     \\/     M anipulation  |
\*---------------------------------------------------------------------------*/
FoamFile
{
    format      ascii;
    class       volScalarField;
    location    "21050";
    object      Sb;
}
// * * * * * * * * * * * * * * * * * * * * * * * * * * * * * * * * * * * * * //

dimensions      [0 0 0 0 0 0 0];

internalField   nonuniform List<scalar> 
1000
(
0.350253
0.350764
0.35145
0.352147
0.352819
0.353544
0.354203
0.354966
0.355612
0.356413
0.357063
0.357867
0.35855
0.359315
0.36002
0.360733
0.361409
0.362064
0.362667
0.363232
0.363738
0.364192
0.364591
0.36494
0.365267
0.365584
0.366242
0.368133
0.375628
0.420864
0.591491
0.648447
0.661437
0.666878
0.670031
0.672173
0.673765
0.675001
0.676014
0.676879
0.677633
0.678303
0.678899
0.679434
0.679911
0.680338
0.680718
0.681057
0.681356
0.681622
0.681855
0.682061
0.682239
0.682393
0.682525
0.682635
0.682726
0.682796
0.68285
0.682884
0.682904
0.682904
0.682889
0.682856
0.682805
0.682737
0.682651
0.682547
0.682424
0.682281
0.682119
0.681935
0.681728
0.681495
0.681233
0.680936
0.680597
0.680206
0.679748
0.679207
0.678566
0.677816
0.676958
0.676014
0.675013
0.673977
0.672917
0.671842
0.670759
0.669671
0.668581
0.667492
0.666404
0.66532
0.66424
0.663164
0.662094
0.661029
0.659971
0.658919
0.657873
0.656835
0.655803
0.654778
0.653759
0.652747
0.651741
0.65074
0.649744
0.648752
0.647765
0.646781
0.645802
0.644828
0.643858
0.642895
0.641938
0.640986
0.640042
0.639104
0.638173
0.637251
0.636336
0.635429
0.634531
0.633643
0.632763
0.631891
0.631029
0.630174
0.629326
0.628484
0.627648
0.626817
0.62599
0.625167
0.624348
0.623531
0.622717
0.621906
0.621098
0.620293
0.619491
0.618692
0.617897
0.617106
0.616318
0.615534
0.614755
0.613979
0.613208
0.612441
0.611679
0.61092
0.610166
0.609416
0.60867
0.607928
0.60719
0.606456
0.605726
0.604999
0.604276
0.603557
0.602841
0.602129
0.60142
0.600715
0.600013
0.599314
0.598619
0.597926
0.597237
0.596551
0.595869
0.595189
0.594512
0.593839
0.593168
0.592501
0.591836
0.591174
0.590515
0.589859
0.589206
0.588556
0.587908
0.587263
0.586621
0.585981
0.585344
0.58471
0.584078
0.583449
0.582822
0.582198
0.581577
0.580958
0.580341
0.579727
0.579115
0.578505
0.577898
0.577294
0.576691
0.576091
0.575493
0.574898
0.574304
0.573714
0.573125
0.572538
0.571954
0.571372
0.570792
0.570214
0.569638
0.569064
0.568493
0.567923
0.567356
0.56679
0.566227
0.565666
0.565106
0.564549
0.563994
0.56344
0.562889
0.562339
0.561791
0.561244
0.560699
0.560155
0.559612
0.559071
0.558531
0.557991
0.557453
0.556916
0.55638
0.555845
0.555312
0.55478
0.554249
0.55372
0.553193
0.552667
0.552144
0.551623
0.551104
0.550588
0.550074
0.549564
0.549056
0.548551
0.548049
0.547549
0.547053
0.54656
0.546069
0.54558
0.545094
0.544609
0.544127
0.543646
0.543166
0.542688
0.542211
0.541735
0.54126
0.540785
0.540311
0.539838
0.539366
0.538894
0.538423
0.537953
0.537484
0.537016
0.536548
0.536082
0.535617
0.535152
0.534689
0.534228
0.533767
0.533308
0.53285
0.532393
0.531937
0.531483
0.53103
0.530578
0.530128
0.529678
0.52923
0.528783
0.528338
0.527893
0.52745
0.527008
0.526566
0.526127
0.525688
0.52525
0.524813
0.524377
0.523943
0.523509
0.523077
0.522645
0.522215
0.521785
0.521356
0.520929
0.520502
0.520077
0.519652
0.519228
0.518805
0.518383
0.517962
0.517542
0.517123
0.516705
0.516288
0.515871
0.515456
0.515041
0.514627
0.514215
0.513802
0.513391
0.512981
0.512571
0.512163
0.511755
0.511348
0.510942
0.510536
0.510132
0.509728
0.509325
0.508923
0.508522
0.508121
0.507721
0.507322
0.506924
0.506527
0.50613
0.505734
0.505339
0.504945
0.504551
0.504159
0.503767
0.503375
0.502985
0.502595
0.502206
0.501818
0.50143
0.501043
0.500657
0.500272
0.499887
0.499503
0.49912
0.498737
0.498355
0.497973
0.497592
0.497212
0.496832
0.496452
0.496073
0.495694
0.495316
0.494938
0.49456
0.494183
0.493806
0.49343
0.493053
0.492677
0.492302
0.491927
0.491552
0.491179
0.490805
0.490432
0.490061
0.489689
0.489319
0.48895
0.488581
0.488214
0.487847
0.487482
0.487118
0.486755
0.486394
0.486034
0.485674
0.485316
0.48496
0.484604
0.48425
0.483896
0.483543
0.483192
0.482841
0.48249
0.482141
0.481792
0.481443
0.481095
0.480747
0.480399
0.480052
0.479705
0.479358
0.479012
0.478665
0.478319
0.477973
0.477628
0.477282
0.476937
0.476592
0.476248
0.475903
0.475559
0.475216
0.474873
0.47453
0.474187
0.473845
0.473504
0.473163
0.472822
0.472482
0.472142
0.471802
0.471464
0.471125
0.470787
0.47045
0.470113
0.469776
0.46944
0.469104
0.468768
0.468434
0.468099
0.467765
0.467431
0.467098
0.466765
0.466432
0.4661
0.465768
0.465437
0.465106
0.464775
0.464445
0.464115
0.463785
0.463455
0.463126
0.462798
0.462469
0.462141
0.461814
0.461486
0.461159
0.460833
0.460506
0.46018
0.459854
0.459529
0.459203
0.458878
0.458554
0.458229
0.457905
0.457582
0.457258
0.456935
0.456612
0.456289
0.455967
0.455645
0.455323
0.455002
0.45468
0.454359
0.454038
0.453718
0.453398
0.453078
0.452758
0.452439
0.452119
0.4518
0.451482
0.451163
0.450845
0.450527
0.450209
0.449892
0.449574
0.449257
0.448941
0.448624
0.448308
0.447992
0.447676
0.44736
0.447045
0.44673
0.446415
0.4461
0.445785
0.445471
0.445156
0.444842
0.444528
0.444215
0.443901
0.443587
0.443274
0.44296
0.442647
0.442334
0.442021
0.441707
0.441394
0.441081
0.440768
0.440455
0.440142
0.439829
0.439516
0.439203
0.438891
0.438578
0.438265
0.437953
0.43764
0.437328
0.437016
0.436704
0.436392
0.436081
0.43577
0.435459
0.435149
0.434839
0.434529
0.43422
0.433911
0.433603
0.433295
0.432987
0.43268
0.432373
0.432067
0.431762
0.431456
0.431152
0.430847
0.430543
0.430239
0.429936
0.429632
0.429329
0.429026
0.428724
0.428421
0.428119
0.427816
0.427514
0.427211
0.426909
0.426606
0.426304
0.426001
0.425699
0.425396
0.425093
0.42479
0.424487
0.424184
0.423881
0.423578
0.423275
0.422972
0.422668
0.422365
0.422062
0.421758
0.421455
0.421151
0.420848
0.420544
0.420241
0.419937
0.419634
0.41933
0.419027
0.418723
0.418419
0.418116
0.417812
0.417509
0.417205
0.416902
0.416598
0.416295
0.415991
0.415688
0.415384
0.41508
0.414777
0.414473
0.414169
0.413866
0.413562
0.413258
0.412954
0.41265
0.412346
0.412042
0.411737
0.411433
0.411128
0.410824
0.410519
0.410215
0.40991
0.409605
0.4093
0.408995
0.408689
0.408384
0.408078
0.407773
0.407467
0.407161
0.406855
0.406549
0.406242
0.405936
0.405629
0.405322
0.405015
0.404708
0.404401
0.404093
0.403786
0.403478
0.40317
0.402862
0.402553
0.402244
0.401936
0.401627
0.401317
0.401008
0.400698
0.400388
0.400078
0.399768
0.399457
0.399147
0.398836
0.398524
0.398213
0.397901
0.397589
0.397277
0.396964
0.396651
0.396338
0.396025
0.395711
0.395397
0.395083
0.394769
0.394454
0.394139
0.393823
0.393507
0.393191
0.392875
0.392558
0.392241
0.391923
0.391605
0.391287
0.390968
0.390649
0.39033
0.39001
0.389689
0.389369
0.389047
0.388726
0.388403
0.388081
0.387758
0.387434
0.38711
0.386785
0.38646
0.386134
0.385808
0.385481
0.385154
0.384826
0.384498
0.384169
0.38384
0.38351
0.38318
0.382849
0.382518
0.382186
0.381854
0.381522
0.381188
0.380855
0.380521
0.380186
0.379851
0.379516
0.37918
0.378843
0.378506
0.378169
0.377831
0.377493
0.377155
0.376815
0.376476
0.376136
0.375795
0.375454
0.375112
0.37477
0.374427
0.374083
0.373739
0.373395
0.373049
0.372703
0.372357
0.372009
0.371661
0.371312
0.370962
0.370612
0.370261
0.369909
0.369556
0.369202
0.368848
0.368493
0.368137
0.36778
0.367422
0.367064
0.366705
0.366346
0.365986
0.365625
0.365263
0.364902
0.364539
0.364177
0.363814
0.363452
0.363089
0.362726
0.362364
0.362003
0.361642
0.361282
0.360924
0.360567
0.360213
0.359861
0.359512
0.359167
0.358825
0.358489
0.358158
0.357833
0.357515
0.357206
0.356905
0.356613
0.356332
0.356062
0.355805
0.35556
0.355329
0.355112
0.354909
0.35472
0.354547
0.354388
0.354244
0.354114
0.353998
0.353894
0.353803
0.353723
0.353654
0.353594
0.353544
0.3535
0.353464
0.353433
0.353408
0.353387
0.353369
0.353353
0.353336
0.353317
0.353292
0.353254
0.35319
0.353079
0.352882
0.352532
0.351908
0.350804
0.34887
0.345555
0.340076
0.33154
0.319407
0.304251
0.28816
0.27388
0.263194
0.256234
0.252125
0.249845
0.248624
0.247983
0.24765
0.247478
0.24739
0.247344
0.247321
0.247309
0.247303
0.247299
0.247298
0.247297
0.247296
0.247296
0.247296
0.247295
0.247295
0.247295
0.247295
0.247295
0.247295
0.247294
0.247294
0.247294
0.247294
0.247294
0.247293
0.247293
0.247293
0.247292
0.247292
0.247292
0.247291
0.247291
0.247291
0.24729
0.24729
0.247289
0.247289
0.247289
0.247288
0.247288
0.247287
0.247287
0.247286
0.247286
0.247285
0.247285
0.247284
0.247284
0.247283
0.247283
0.247282
0.247282
0.247281
0.247281
0.24728
0.247279
0.247279
0.247278
0.247278
0.247277
0.247277
0.247276
0.247275
0.247275
0.247274
0.247274
0.247273
0.247272
0.247272
0.247271
0.247271
0.24727
0.24727
0.247269
0.247269
0.247268
0.247268
0.247267
0.247267
0.247267
0.247266
0.247266
0.247266
0.247266
0.247266
0.247265
0.247265
0.247265
0.247265
0.247265
0.247265
0.247265
0.247266
0.247266
0.247266
0.247266
0.247267
0.247267
0.247267
0.247268
0.247268
0.247268
0.247269
0.247269
0.24727
0.24727
0.247271
0.247271
0.247272
0.247272
0.247272
0.247273
0.247273
0.247274
0.247274
0.247275
0.247275
0.247276
0.247276
0.247276
0.247277
0.247277
0.247277
0.247278
0.247278
0.247278
0.247279
0.247279
0.247279
0.247279
0.247279
0.24728
0.24728
0.24728
0.24728
0.247281
0.247281
0.247281
0.247281
0.247281
0.247281
0.247281
0.247281
0.247282
0.247282
)
;

boundaryField
{
    inlet
    {
        type            fixedValue;
        value           uniform 0.35;
    }
    outlet
    {
        type            zeroGradient;
    }
    emptyWalls
    {
        type            empty;
    }
}


// ************************************************************************* //
