/*--------------------------------*- C++ -*----------------------------------*\
  =========                 |
  \\      /  F ield         | OpenFOAM: The Open Source CFD Toolbox
   \\    /   O peration     | Website:  https://openfoam.org
    \\  /    A nd           | Version:  9
     \\/     M anipulation  |
\*---------------------------------------------------------------------------*/
FoamFile
{
    format      ascii;
    class       surfaceScalarField;
    location    "8700";
    object      phib;
}
// * * * * * * * * * * * * * * * * * * * * * * * * * * * * * * * * * * * * * //

dimensions      [0 2 0 0 0 0 0];

internalField   nonuniform List<scalar> 
999
(
1.13617e-09
1.13618e-09
1.13631e-09
1.1363e-09
1.13647e-09
1.13651e-09
1.13663e-09
1.1367e-09
1.13688e-09
1.13735e-09
1.13907e-09
1.15035e-09
1.17274e-09
1.17608e-09
1.17688e-09
1.17703e-09
1.17674e-09
1.17615e-09
1.1756e-09
1.17539e-09
1.17547e-09
1.17558e-09
1.17573e-09
1.17612e-09
1.17674e-09
1.17743e-09
1.17809e-09
1.17868e-09
1.17913e-09
1.1794e-09
1.17943e-09
1.17921e-09
1.1787e-09
1.17794e-09
1.17701e-09
1.17598e-09
1.17488e-09
1.17375e-09
1.17261e-09
1.17146e-09
1.17032e-09
1.16919e-09
1.16807e-09
1.16695e-09
1.16584e-09
1.16473e-09
1.16363e-09
1.16252e-09
1.16141e-09
1.16029e-09
1.15917e-09
1.15805e-09
1.15691e-09
1.15577e-09
1.15463e-09
1.15348e-09
1.15232e-09
1.15116e-09
1.15e-09
1.14883e-09
1.14765e-09
1.14647e-09
1.14528e-09
1.14409e-09
1.14289e-09
1.14169e-09
1.14048e-09
1.13926e-09
1.13804e-09
1.13681e-09
1.13558e-09
1.13434e-09
1.13309e-09
1.13184e-09
1.13058e-09
1.12932e-09
1.12805e-09
1.12678e-09
1.12551e-09
1.12423e-09
1.12294e-09
1.12166e-09
1.12036e-09
1.11907e-09
1.11777e-09
1.11647e-09
1.11516e-09
1.11385e-09
1.11253e-09
1.11122e-09
1.10989e-09
1.10857e-09
1.10724e-09
1.10591e-09
1.10457e-09
1.10323e-09
1.10189e-09
1.10055e-09
1.0992e-09
1.09784e-09
1.09649e-09
1.09513e-09
1.09376e-09
1.0924e-09
1.09102e-09
1.08965e-09
1.08827e-09
1.08689e-09
1.08551e-09
1.08412e-09
1.08273e-09
1.08134e-09
1.07994e-09
1.07855e-09
1.07715e-09
1.07575e-09
1.07434e-09
1.07293e-09
1.07152e-09
1.0701e-09
1.06868e-09
1.06725e-09
1.06582e-09
1.06438e-09
1.06294e-09
1.06149e-09
1.06004e-09
1.05858e-09
1.05712e-09
1.05564e-09
1.05415e-09
1.05265e-09
1.05114e-09
1.04961e-09
1.04806e-09
1.0465e-09
1.04491e-09
1.04331e-09
1.0417e-09
1.04007e-09
1.03843e-09
1.03678e-09
1.03512e-09
1.03346e-09
1.03181e-09
1.03016e-09
1.02852e-09
1.0269e-09
1.0253e-09
1.02373e-09
1.02218e-09
1.02066e-09
1.01918e-09
1.01774e-09
1.01632e-09
1.01494e-09
1.01358e-09
1.01225e-09
1.01094e-09
1.00963e-09
1.00834e-09
1.00704e-09
1.00574e-09
1.00442e-09
1.00309e-09
1.00174e-09
1.00036e-09
9.98962e-10
9.97538e-10
9.9609e-10
9.94619e-10
9.93124e-10
9.9161e-10
9.90078e-10
9.88529e-10
9.86967e-10
9.85394e-10
9.83812e-10
9.82222e-10
9.80626e-10
9.79026e-10
9.77424e-10
9.75818e-10
9.74212e-10
9.72604e-10
9.70995e-10
9.69386e-10
9.67775e-10
9.66164e-10
9.64551e-10
9.62937e-10
9.61321e-10
9.59702e-10
9.58082e-10
9.56458e-10
9.54832e-10
9.53202e-10
9.51569e-10
9.49932e-10
9.48291e-10
9.46646e-10
9.44996e-10
9.43343e-10
9.41684e-10
9.40022e-10
9.38354e-10
9.36682e-10
9.35005e-10
9.33323e-10
9.31636e-10
9.29944e-10
9.28247e-10
9.26545e-10
9.24837e-10
9.23124e-10
9.21406e-10
9.19682e-10
9.17952e-10
9.16216e-10
9.14475e-10
9.12728e-10
9.10974e-10
9.09215e-10
9.07449e-10
9.05677e-10
9.03898e-10
9.02113e-10
9.00322e-10
8.98523e-10
8.96718e-10
8.94906e-10
8.93088e-10
8.91262e-10
8.8943e-10
8.87591e-10
8.85745e-10
8.83891e-10
8.82031e-10
8.80164e-10
8.7829e-10
8.76409e-10
8.74521e-10
8.72625e-10
8.70723e-10
8.68814e-10
8.66897e-10
8.64973e-10
8.63042e-10
8.61103e-10
8.59157e-10
8.57203e-10
8.55241e-10
8.53272e-10
8.51294e-10
8.49309e-10
8.47315e-10
8.45313e-10
8.43303e-10
8.41284e-10
8.39257e-10
8.37221e-10
8.35176e-10
8.33121e-10
8.31058e-10
8.28985e-10
8.26903e-10
8.24812e-10
8.2271e-10
8.20599e-10
8.18478e-10
8.16346e-10
8.14204e-10
8.12052e-10
8.09889e-10
8.07716e-10
8.05531e-10
8.03335e-10
8.01128e-10
7.98909e-10
7.96678e-10
7.94435e-10
7.92179e-10
7.89911e-10
7.87629e-10
7.85334e-10
7.83025e-10
7.80702e-10
7.78364e-10
7.76013e-10
7.73645e-10
7.71262e-10
7.68863e-10
7.66447e-10
7.64013e-10
7.61562e-10
7.59092e-10
7.56604e-10
7.54096e-10
7.51569e-10
7.49021e-10
7.46453e-10
7.43863e-10
7.41252e-10
7.3862e-10
7.35967e-10
7.33292e-10
7.30597e-10
7.2788e-10
7.25143e-10
7.22386e-10
7.19609e-10
7.16814e-10
7.14002e-10
7.11174e-10
7.08331e-10
7.05476e-10
7.0261e-10
6.99736e-10
6.96856e-10
6.93975e-10
6.91097e-10
6.88228e-10
6.85373e-10
6.8254e-10
6.79738e-10
6.76977e-10
6.7427e-10
6.71629e-10
6.6907e-10
6.66608e-10
6.64258e-10
6.62036e-10
6.59955e-10
6.58028e-10
6.56262e-10
6.54656e-10
6.53199e-10
6.51863e-10
6.50596e-10
6.49306e-10
6.47825e-10
6.45867e-10
6.42934e-10
6.38175e-10
6.30181e-10
6.16752e-10
5.94825e-10
5.61078e-10
5.13869e-10
4.56224e-10
3.96841e-10
3.45928e-10
3.09063e-10
2.8568e-10
2.72127e-10
2.64691e-10
2.60737e-10
2.5867e-10
2.57599e-10
2.57046e-10
2.56762e-10
2.56616e-10
2.56541e-10
2.56502e-10
2.56482e-10
2.56472e-10
2.56467e-10
2.56465e-10
2.56464e-10
2.56464e-10
2.56465e-10
2.56466e-10
2.56467e-10
2.56469e-10
2.56471e-10
2.56473e-10
2.56476e-10
2.56478e-10
2.56481e-10
2.56484e-10
2.56488e-10
2.56491e-10
2.56495e-10
2.56499e-10
2.56502e-10
2.56506e-10
2.5651e-10
2.56515e-10
2.56519e-10
2.56523e-10
2.56527e-10
2.56532e-10
2.56536e-10
2.5654e-10
2.56545e-10
2.56549e-10
2.56553e-10
2.56558e-10
2.56562e-10
2.56566e-10
2.56571e-10
2.56575e-10
2.56579e-10
2.56583e-10
2.56588e-10
2.56592e-10
2.56596e-10
2.566e-10
2.56604e-10
2.56607e-10
2.56611e-10
2.56615e-10
2.56618e-10
2.56622e-10
2.56625e-10
2.56628e-10
2.56631e-10
2.56634e-10
2.56637e-10
2.56639e-10
2.56641e-10
2.56644e-10
2.56646e-10
2.56648e-10
2.56649e-10
2.56651e-10
2.56652e-10
2.56653e-10
2.56654e-10
2.56655e-10
2.56656e-10
2.56656e-10
2.56656e-10
2.56657e-10
2.56657e-10
2.56656e-10
2.56656e-10
2.56655e-10
2.56655e-10
2.56654e-10
2.56653e-10
2.56652e-10
2.56651e-10
2.5665e-10
2.56648e-10
2.56647e-10
2.56645e-10
2.56643e-10
2.56642e-10
2.5664e-10
2.56638e-10
2.56636e-10
2.56633e-10
2.56631e-10
2.56629e-10
2.56626e-10
2.56624e-10
2.56622e-10
2.56619e-10
2.56617e-10
2.56614e-10
2.56611e-10
2.56609e-10
2.56606e-10
2.56603e-10
2.566e-10
2.56597e-10
2.56595e-10
2.56592e-10
2.56589e-10
2.56586e-10
2.56582e-10
2.56579e-10
2.56576e-10
2.56573e-10
2.56569e-10
2.56566e-10
2.56562e-10
2.56559e-10
2.56555e-10
2.56551e-10
2.56547e-10
2.56542e-10
2.56538e-10
2.56533e-10
2.56528e-10
2.56523e-10
2.56517e-10
2.56512e-10
2.56506e-10
2.56499e-10
2.56492e-10
2.56485e-10
2.56477e-10
2.56468e-10
2.56459e-10
2.5645e-10
2.56439e-10
2.56429e-10
2.56417e-10
2.56405e-10
2.56392e-10
2.56378e-10
2.56364e-10
2.56348e-10
2.56332e-10
2.56316e-10
2.56298e-10
2.56281e-10
2.56262e-10
2.56243e-10
2.56223e-10
2.56203e-10
2.56183e-10
2.56163e-10
2.56143e-10
2.56122e-10
2.56102e-10
2.56083e-10
2.56064e-10
2.56045e-10
2.56028e-10
2.56011e-10
2.55996e-10
2.55982e-10
2.5597e-10
2.55959e-10
2.5595e-10
2.55943e-10
2.55938e-10
2.55935e-10
2.55934e-10
2.55934e-10
2.55934e-10
2.55936e-10
2.55944e-10
2.55954e-10
2.55966e-10
2.55979e-10
2.55994e-10
2.56011e-10
2.56029e-10
2.56048e-10
2.56068e-10
2.56088e-10
2.56109e-10
2.56131e-10
2.56152e-10
2.56173e-10
2.56194e-10
2.56214e-10
2.56233e-10
2.56252e-10
2.5627e-10
2.56287e-10
2.56302e-10
2.56317e-10
2.5633e-10
2.56343e-10
2.56354e-10
2.56364e-10
2.56373e-10
2.56381e-10
2.56388e-10
2.56394e-10
2.564e-10
2.56404e-10
2.56408e-10
2.56412e-10
2.56415e-10
2.56418e-10
2.5642e-10
2.56422e-10
2.56424e-10
2.56426e-10
2.56427e-10
2.56429e-10
2.56431e-10
2.56433e-10
2.56435e-10
2.56437e-10
2.56439e-10
2.56441e-10
2.56444e-10
2.56446e-10
2.56449e-10
2.56452e-10
2.56456e-10
2.56459e-10
2.56463e-10
2.56467e-10
2.56472e-10
2.56476e-10
2.56481e-10
2.56486e-10
2.56491e-10
2.56496e-10
2.56501e-10
2.56506e-10
2.56511e-10
2.56517e-10
2.56522e-10
2.56528e-10
2.56533e-10
2.56538e-10
2.56544e-10
2.56549e-10
2.56554e-10
2.56559e-10
2.56564e-10
2.56569e-10
2.56573e-10
2.56578e-10
2.56582e-10
2.56587e-10
2.56591e-10
2.56595e-10
2.56599e-10
2.56604e-10
2.56607e-10
2.56611e-10
2.56615e-10
2.56619e-10
2.56622e-10
2.56626e-10
2.56629e-10
2.56632e-10
2.56635e-10
2.56638e-10
2.56641e-10
2.56644e-10
2.56646e-10
2.56648e-10
2.56651e-10
2.56653e-10
2.56654e-10
2.56656e-10
2.56658e-10
2.56659e-10
2.5666e-10
2.56661e-10
2.56662e-10
2.56663e-10
2.56663e-10
2.56663e-10
2.56663e-10
2.56663e-10
2.56663e-10
2.56663e-10
2.56662e-10
2.56661e-10
2.5666e-10
2.56658e-10
2.56657e-10
2.56655e-10
2.56653e-10
2.56651e-10
2.56649e-10
2.56647e-10
2.56644e-10
2.56642e-10
2.56639e-10
2.56637e-10
2.56634e-10
2.56631e-10
2.56627e-10
2.56624e-10
2.56621e-10
2.56618e-10
2.56614e-10
2.56611e-10
2.56607e-10
2.56604e-10
2.566e-10
2.56596e-10
2.56592e-10
2.56588e-10
2.56585e-10
2.5658e-10
2.56576e-10
2.56572e-10
2.56568e-10
2.56564e-10
2.5656e-10
2.56555e-10
2.56551e-10
2.56546e-10
2.56541e-10
2.56536e-10
2.56531e-10
2.56526e-10
2.56521e-10
2.56515e-10
2.5651e-10
2.56504e-10
2.56497e-10
2.56491e-10
2.56484e-10
2.56477e-10
2.56469e-10
2.56462e-10
2.56453e-10
2.56445e-10
2.56436e-10
2.56426e-10
2.56416e-10
2.56405e-10
2.56394e-10
2.56383e-10
2.56371e-10
2.56358e-10
2.56345e-10
2.56331e-10
2.56317e-10
2.56302e-10
2.56287e-10
2.56272e-10
2.56256e-10
2.5624e-10
2.56223e-10
2.56206e-10
2.5619e-10
2.56173e-10
2.56156e-10
2.56139e-10
2.56122e-10
2.56106e-10
2.5609e-10
2.56075e-10
2.5606e-10
2.56046e-10
2.56033e-10
2.5602e-10
2.56009e-10
2.55999e-10
2.5599e-10
2.55983e-10
2.55977e-10
2.55972e-10
2.5597e-10
2.55968e-10
2.55968e-10
2.55968e-10
2.55969e-10
2.55973e-10
2.5598e-10
2.55988e-10
2.55998e-10
2.56009e-10
2.56022e-10
2.56035e-10
2.5605e-10
2.56066e-10
2.56082e-10
2.56099e-10
2.56116e-10
2.56134e-10
2.56152e-10
2.5617e-10
2.56187e-10
2.56204e-10
2.56221e-10
2.56238e-10
2.56253e-10
2.56268e-10
2.56283e-10
2.56296e-10
2.56309e-10
2.56321e-10
2.56332e-10
2.56342e-10
2.56351e-10
2.5636e-10
2.56367e-10
2.56374e-10
2.56381e-10
2.56386e-10
2.56391e-10
2.56396e-10
2.564e-10
2.56403e-10
2.56406e-10
2.56409e-10
2.56412e-10
2.56415e-10
2.56417e-10
2.56419e-10
2.56422e-10
2.56424e-10
2.56426e-10
2.56428e-10
2.56431e-10
2.56433e-10
2.56436e-10
2.56439e-10
2.56442e-10
2.56445e-10
2.56448e-10
2.56452e-10
2.56455e-10
2.56459e-10
2.56463e-10
2.56467e-10
2.56471e-10
2.56475e-10
2.56479e-10
2.56484e-10
2.56488e-10
2.56493e-10
2.56497e-10
2.56502e-10
2.56507e-10
2.56511e-10
2.56516e-10
2.56521e-10
2.56525e-10
2.5653e-10
2.56534e-10
2.56538e-10
2.56543e-10
2.56547e-10
2.56551e-10
2.56555e-10
2.56559e-10
2.56563e-10
2.56567e-10
2.5657e-10
2.56574e-10
2.56578e-10
2.56581e-10
2.56584e-10
2.56587e-10
2.5659e-10
2.56593e-10
2.56596e-10
2.56599e-10
2.56601e-10
2.56604e-10
2.56606e-10
2.56609e-10
2.56611e-10
2.56613e-10
2.56615e-10
2.56617e-10
2.56618e-10
2.5662e-10
2.56621e-10
2.56623e-10
2.56624e-10
2.56625e-10
2.56626e-10
2.56627e-10
2.56628e-10
2.56629e-10
2.56629e-10
2.5663e-10
2.5663e-10
2.5663e-10
2.5663e-10
2.5663e-10
2.5663e-10
2.5663e-10
2.56629e-10
2.56629e-10
2.56628e-10
2.56627e-10
2.56626e-10
2.56625e-10
2.56623e-10
2.56622e-10
2.5662e-10
2.56618e-10
2.56616e-10
2.56614e-10
2.56612e-10
2.5661e-10
2.56607e-10
2.56605e-10
2.56602e-10
2.56599e-10
2.56597e-10
2.56594e-10
2.56591e-10
2.56588e-10
2.56584e-10
2.56581e-10
2.56578e-10
2.56574e-10
2.5657e-10
2.56567e-10
2.56563e-10
2.56559e-10
2.56555e-10
2.56551e-10
2.56547e-10
2.56542e-10
2.56538e-10
2.56534e-10
2.56529e-10
2.56524e-10
2.56519e-10
2.56514e-10
2.56508e-10
2.56502e-10
2.56496e-10
2.5649e-10
2.56484e-10
2.56477e-10
2.5647e-10
2.56463e-10
2.56455e-10
2.56448e-10
2.56439e-10
2.56431e-10
2.56421e-10
2.56412e-10
2.56402e-10
2.56392e-10
2.56381e-10
2.5637e-10
2.56359e-10
2.56347e-10
2.56335e-10
2.56322e-10
2.56309e-10
2.56296e-10
2.56283e-10
2.56269e-10
2.56255e-10
2.56241e-10
2.56227e-10
2.56212e-10
2.56198e-10
2.56184e-10
2.5617e-10
2.56157e-10
2.56143e-10
2.5613e-10
2.56117e-10
2.56105e-10
2.56094e-10
2.56083e-10
2.56073e-10
2.56064e-10
2.56056e-10
2.56048e-10
2.56042e-10
2.56037e-10
2.56033e-10
2.56031e-10
2.5603e-10
2.56029e-10
2.56029e-10
2.56029e-10
2.56032e-10
2.56037e-10
2.56043e-10
2.5605e-10
2.56059e-10
2.56068e-10
2.56079e-10
2.5609e-10
2.56102e-10
2.56115e-10
2.56128e-10
2.56142e-10
2.56157e-10
2.56171e-10
2.56186e-10
2.562e-10
2.56215e-10
2.56229e-10
2.56243e-10
2.56257e-10
2.56271e-10
2.56284e-10
2.56296e-10
2.56308e-10
2.56319e-10
2.56329e-10
2.56339e-10
2.56348e-10
2.56357e-10
2.56365e-10
2.56372e-10
2.56379e-10
2.56385e-10
2.5639e-10
2.56395e-10
2.564e-10
2.56404e-10
2.56408e-10
2.56411e-10
2.56415e-10
2.56417e-10
2.5642e-10
2.56423e-10
2.56425e-10
2.56427e-10
)
;

boundaryField
{
    inlet
    {
        type            calculated;
        value           uniform -1.13622e-09;
    }
    outlet
    {
        type            calculated;
        value           uniform 2.5643e-10;
    }
    emptyWalls
    {
        type            empty;
        value           nonuniform List<scalar> 0();
    }
}


// ************************************************************************* //
