/*--------------------------------*- C++ -*----------------------------------*\
  =========                 |
  \\      /  F ield         | OpenFOAM: The Open Source CFD Toolbox
   \\    /   O peration     | Website:  https://openfoam.org
    \\  /    A nd           | Version:  9
     \\/     M anipulation  |
\*---------------------------------------------------------------------------*/
FoamFile
{
    format      ascii;
    class       volVectorField;
    location    "8700";
    object      Ub;
}
// * * * * * * * * * * * * * * * * * * * * * * * * * * * * * * * * * * * * * //

dimensions      [0 0 0 0 0 0 0];

internalField   nonuniform List<vector> 
1000
(
(1.13617e-05 0 0)
(1.13618e-05 0 0)
(1.13624e-05 0 0)
(1.1363e-05 0 0)
(1.13639e-05 0 0)
(1.13649e-05 0 0)
(1.13657e-05 0 0)
(1.13667e-05 0 0)
(1.13679e-05 0 0)
(1.13711e-05 0 0)
(1.13821e-05 0 0)
(1.14471e-05 0 0)
(1.16154e-05 0 0)
(1.17441e-05 0 0)
(1.17648e-05 0 0)
(1.17695e-05 0 0)
(1.17689e-05 0 0)
(1.17645e-05 0 0)
(1.17587e-05 0 0)
(1.17549e-05 0 0)
(1.17543e-05 0 0)
(1.17552e-05 0 0)
(1.17565e-05 0 0)
(1.17592e-05 0 0)
(1.17643e-05 0 0)
(1.17709e-05 0 0)
(1.17776e-05 0 0)
(1.17839e-05 0 0)
(1.17891e-05 0 0)
(1.17926e-05 0 0)
(1.17941e-05 0 0)
(1.17932e-05 0 0)
(1.17895e-05 0 0)
(1.17832e-05 0 0)
(1.17747e-05 0 0)
(1.17649e-05 0 0)
(1.17543e-05 0 0)
(1.17432e-05 0 0)
(1.17318e-05 0 0)
(1.17204e-05 0 0)
(1.17089e-05 0 0)
(1.16976e-05 0 0)
(1.16863e-05 0 0)
(1.16751e-05 0 0)
(1.1664e-05 0 0)
(1.16529e-05 0 0)
(1.16418e-05 0 0)
(1.16307e-05 0 0)
(1.16197e-05 0 0)
(1.16085e-05 0 0)
(1.15973e-05 0 0)
(1.15861e-05 0 0)
(1.15748e-05 0 0)
(1.15634e-05 0 0)
(1.1552e-05 0 0)
(1.15405e-05 0 0)
(1.1529e-05 0 0)
(1.15174e-05 0 0)
(1.15058e-05 0 0)
(1.14941e-05 0 0)
(1.14824e-05 0 0)
(1.14706e-05 0 0)
(1.14588e-05 0 0)
(1.14469e-05 0 0)
(1.14349e-05 0 0)
(1.14229e-05 0 0)
(1.14108e-05 0 0)
(1.13987e-05 0 0)
(1.13865e-05 0 0)
(1.13743e-05 0 0)
(1.13619e-05 0 0)
(1.13496e-05 0 0)
(1.13371e-05 0 0)
(1.13246e-05 0 0)
(1.13121e-05 0 0)
(1.12995e-05 0 0)
(1.12869e-05 0 0)
(1.12742e-05 0 0)
(1.12614e-05 0 0)
(1.12487e-05 0 0)
(1.12359e-05 0 0)
(1.1223e-05 0 0)
(1.12101e-05 0 0)
(1.11972e-05 0 0)
(1.11842e-05 0 0)
(1.11712e-05 0 0)
(1.11581e-05 0 0)
(1.1145e-05 0 0)
(1.11319e-05 0 0)
(1.11187e-05 0 0)
(1.11055e-05 0 0)
(1.10923e-05 0 0)
(1.1079e-05 0 0)
(1.10657e-05 0 0)
(1.10524e-05 0 0)
(1.1039e-05 0 0)
(1.10256e-05 0 0)
(1.10122e-05 0 0)
(1.09987e-05 0 0)
(1.09852e-05 0 0)
(1.09717e-05 0 0)
(1.09581e-05 0 0)
(1.09445e-05 0 0)
(1.09308e-05 0 0)
(1.09171e-05 0 0)
(1.09034e-05 0 0)
(1.08896e-05 0 0)
(1.08758e-05 0 0)
(1.0862e-05 0 0)
(1.08481e-05 0 0)
(1.08343e-05 0 0)
(1.08204e-05 0 0)
(1.08064e-05 0 0)
(1.07925e-05 0 0)
(1.07785e-05 0 0)
(1.07645e-05 0 0)
(1.07504e-05 0 0)
(1.07364e-05 0 0)
(1.07222e-05 0 0)
(1.07081e-05 0 0)
(1.06939e-05 0 0)
(1.06796e-05 0 0)
(1.06653e-05 0 0)
(1.0651e-05 0 0)
(1.06366e-05 0 0)
(1.06221e-05 0 0)
(1.06076e-05 0 0)
(1.05931e-05 0 0)
(1.05785e-05 0 0)
(1.05638e-05 0 0)
(1.0549e-05 0 0)
(1.0534e-05 0 0)
(1.0519e-05 0 0)
(1.05037e-05 0 0)
(1.04883e-05 0 0)
(1.04728e-05 0 0)
(1.0457e-05 0 0)
(1.04411e-05 0 0)
(1.04251e-05 0 0)
(1.04088e-05 0 0)
(1.03925e-05 0 0)
(1.0376e-05 0 0)
(1.03595e-05 0 0)
(1.03429e-05 0 0)
(1.03264e-05 0 0)
(1.03098e-05 0 0)
(1.02934e-05 0 0)
(1.02771e-05 0 0)
(1.0261e-05 0 0)
(1.02451e-05 0 0)
(1.02295e-05 0 0)
(1.02142e-05 0 0)
(1.01992e-05 0 0)
(1.01846e-05 0 0)
(1.01703e-05 0 0)
(1.01563e-05 0 0)
(1.01426e-05 0 0)
(1.01292e-05 0 0)
(1.01159e-05 0 0)
(1.01028e-05 0 0)
(1.00898e-05 0 0)
(1.00769e-05 0 0)
(1.00639e-05 0 0)
(1.00508e-05 0 0)
(1.00375e-05 0 0)
(1.00241e-05 0 0)
(1.00105e-05 0 0)
(9.99661e-06 0 0)
(9.9825e-06 0 0)
(9.96814e-06 0 0)
(9.95354e-06 0 0)
(9.93871e-06 0 0)
(9.92367e-06 0 0)
(9.90844e-06 0 0)
(9.89303e-06 0 0)
(9.87748e-06 0 0)
(9.86181e-06 0 0)
(9.84603e-06 0 0)
(9.83017e-06 0 0)
(9.81424e-06 0 0)
(9.79826e-06 0 0)
(9.78225e-06 0 0)
(9.76621e-06 0 0)
(9.75015e-06 0 0)
(9.73408e-06 0 0)
(9.718e-06 0 0)
(9.7019e-06 0 0)
(9.6858e-06 0 0)
(9.66969e-06 0 0)
(9.65357e-06 0 0)
(9.63744e-06 0 0)
(9.62129e-06 0 0)
(9.60512e-06 0 0)
(9.58892e-06 0 0)
(9.5727e-06 0 0)
(9.55645e-06 0 0)
(9.54017e-06 0 0)
(9.52385e-06 0 0)
(9.5075e-06 0 0)
(9.49111e-06 0 0)
(9.47468e-06 0 0)
(9.45821e-06 0 0)
(9.44169e-06 0 0)
(9.42513e-06 0 0)
(9.40853e-06 0 0)
(9.39188e-06 0 0)
(9.37518e-06 0 0)
(9.35844e-06 0 0)
(9.34164e-06 0 0)
(9.3248e-06 0 0)
(9.3079e-06 0 0)
(9.29096e-06 0 0)
(9.27396e-06 0 0)
(9.25691e-06 0 0)
(9.23981e-06 0 0)
(9.22265e-06 0 0)
(9.20544e-06 0 0)
(9.18817e-06 0 0)
(9.17084e-06 0 0)
(9.15346e-06 0 0)
(9.13601e-06 0 0)
(9.11851e-06 0 0)
(9.10095e-06 0 0)
(9.08332e-06 0 0)
(9.06563e-06 0 0)
(9.04788e-06 0 0)
(9.03006e-06 0 0)
(9.01217e-06 0 0)
(8.99422e-06 0 0)
(8.97621e-06 0 0)
(8.95812e-06 0 0)
(8.93997e-06 0 0)
(8.92175e-06 0 0)
(8.90346e-06 0 0)
(8.8851e-06 0 0)
(8.86668e-06 0 0)
(8.84818e-06 0 0)
(8.82961e-06 0 0)
(8.81098e-06 0 0)
(8.79227e-06 0 0)
(8.77349e-06 0 0)
(8.75465e-06 0 0)
(8.73573e-06 0 0)
(8.71674e-06 0 0)
(8.69768e-06 0 0)
(8.67855e-06 0 0)
(8.65935e-06 0 0)
(8.64007e-06 0 0)
(8.62072e-06 0 0)
(8.6013e-06 0 0)
(8.5818e-06 0 0)
(8.56222e-06 0 0)
(8.54256e-06 0 0)
(8.52283e-06 0 0)
(8.50302e-06 0 0)
(8.48312e-06 0 0)
(8.46314e-06 0 0)
(8.44308e-06 0 0)
(8.42294e-06 0 0)
(8.40271e-06 0 0)
(8.38239e-06 0 0)
(8.36198e-06 0 0)
(8.34149e-06 0 0)
(8.3209e-06 0 0)
(8.30022e-06 0 0)
(8.27944e-06 0 0)
(8.25857e-06 0 0)
(8.23761e-06 0 0)
(8.21655e-06 0 0)
(8.19538e-06 0 0)
(8.17412e-06 0 0)
(8.15275e-06 0 0)
(8.13128e-06 0 0)
(8.10971e-06 0 0)
(8.08803e-06 0 0)
(8.06624e-06 0 0)
(8.04433e-06 0 0)
(8.02232e-06 0 0)
(8.00019e-06 0 0)
(7.97794e-06 0 0)
(7.95557e-06 0 0)
(7.93307e-06 0 0)
(7.91045e-06 0 0)
(7.8877e-06 0 0)
(7.86481e-06 0 0)
(7.84179e-06 0 0)
(7.81863e-06 0 0)
(7.79533e-06 0 0)
(7.77189e-06 0 0)
(7.74829e-06 0 0)
(7.72454e-06 0 0)
(7.70063e-06 0 0)
(7.67655e-06 0 0)
(7.6523e-06 0 0)
(7.62788e-06 0 0)
(7.60327e-06 0 0)
(7.57848e-06 0 0)
(7.5535e-06 0 0)
(7.52832e-06 0 0)
(7.50295e-06 0 0)
(7.47737e-06 0 0)
(7.45158e-06 0 0)
(7.42558e-06 0 0)
(7.39936e-06 0 0)
(7.37294e-06 0 0)
(7.3463e-06 0 0)
(7.31944e-06 0 0)
(7.29238e-06 0 0)
(7.26512e-06 0 0)
(7.23765e-06 0 0)
(7.20998e-06 0 0)
(7.18212e-06 0 0)
(7.15408e-06 0 0)
(7.12588e-06 0 0)
(7.09753e-06 0 0)
(7.06904e-06 0 0)
(7.04043e-06 0 0)
(7.01173e-06 0 0)
(6.98296e-06 0 0)
(6.95415e-06 0 0)
(6.92536e-06 0 0)
(6.89662e-06 0 0)
(6.86801e-06 0 0)
(6.83957e-06 0 0)
(6.81139e-06 0 0)
(6.78358e-06 0 0)
(6.75624e-06 0 0)
(6.72949e-06 0 0)
(6.7035e-06 0 0)
(6.67839e-06 0 0)
(6.65433e-06 0 0)
(6.63147e-06 0 0)
(6.60995e-06 0 0)
(6.58992e-06 0 0)
(6.57145e-06 0 0)
(6.55459e-06 0 0)
(6.53927e-06 0 0)
(6.52531e-06 0 0)
(6.5123e-06 0 0)
(6.49951e-06 0 0)
(6.48565e-06 0 0)
(6.46846e-06 0 0)
(6.44401e-06 0 0)
(6.40554e-06 0 0)
(6.34178e-06 0 0)
(6.23466e-06 0 0)
(6.05788e-06 0 0)
(5.77952e-06 0 0)
(5.37474e-06 0 0)
(4.85047e-06 0 0)
(4.26533e-06 0 0)
(3.71384e-06 0 0)
(3.27495e-06 0 0)
(2.97372e-06 0 0)
(2.78904e-06 0 0)
(2.68409e-06 0 0)
(2.62714e-06 0 0)
(2.59703e-06 0 0)
(2.58134e-06 0 0)
(2.57322e-06 0 0)
(2.56904e-06 0 0)
(2.56689e-06 0 0)
(2.56578e-06 0 0)
(2.56521e-06 0 0)
(2.56492e-06 0 0)
(2.56477e-06 0 0)
(2.56469e-06 0 0)
(2.56466e-06 0 0)
(2.56464e-06 0 0)
(2.56464e-06 0 0)
(2.56464e-06 0 0)
(2.56465e-06 0 0)
(2.56466e-06 0 0)
(2.56468e-06 0 0)
(2.5647e-06 0 0)
(2.56472e-06 0 0)
(2.56474e-06 0 0)
(2.56477e-06 0 0)
(2.5648e-06 0 0)
(2.56483e-06 0 0)
(2.56486e-06 0 0)
(2.5649e-06 0 0)
(2.56493e-06 0 0)
(2.56497e-06 0 0)
(2.56501e-06 0 0)
(2.56504e-06 0 0)
(2.56508e-06 0 0)
(2.56512e-06 0 0)
(2.56517e-06 0 0)
(2.56521e-06 0 0)
(2.56525e-06 0 0)
(2.56529e-06 0 0)
(2.56534e-06 0 0)
(2.56538e-06 0 0)
(2.56543e-06 0 0)
(2.56547e-06 0 0)
(2.56551e-06 0 0)
(2.56555e-06 0 0)
(2.5656e-06 0 0)
(2.56564e-06 0 0)
(2.56568e-06 0 0)
(2.56573e-06 0 0)
(2.56577e-06 0 0)
(2.56581e-06 0 0)
(2.56585e-06 0 0)
(2.5659e-06 0 0)
(2.56594e-06 0 0)
(2.56598e-06 0 0)
(2.56602e-06 0 0)
(2.56605e-06 0 0)
(2.56609e-06 0 0)
(2.56613e-06 0 0)
(2.56616e-06 0 0)
(2.5662e-06 0 0)
(2.56623e-06 0 0)
(2.56626e-06 0 0)
(2.5663e-06 0 0)
(2.56633e-06 0 0)
(2.56635e-06 0 0)
(2.56638e-06 0 0)
(2.5664e-06 0 0)
(2.56643e-06 0 0)
(2.56645e-06 0 0)
(2.56647e-06 0 0)
(2.56648e-06 0 0)
(2.5665e-06 0 0)
(2.56651e-06 0 0)
(2.56653e-06 0 0)
(2.56654e-06 0 0)
(2.56655e-06 0 0)
(2.56655e-06 0 0)
(2.56656e-06 0 0)
(2.56656e-06 0 0)
(2.56657e-06 0 0)
(2.56657e-06 0 0)
(2.56656e-06 0 0)
(2.56656e-06 0 0)
(2.56656e-06 0 0)
(2.56655e-06 0 0)
(2.56654e-06 0 0)
(2.56653e-06 0 0)
(2.56652e-06 0 0)
(2.56652e-06 0 0)
(2.5665e-06 0 0)
(2.56649e-06 0 0)
(2.56647e-06 0 0)
(2.56646e-06 0 0)
(2.56644e-06 0 0)
(2.56642e-06 0 0)
(2.56641e-06 0 0)
(2.56639e-06 0 0)
(2.56637e-06 0 0)
(2.56634e-06 0 0)
(2.56632e-06 0 0)
(2.5663e-06 0 0)
(2.56628e-06 0 0)
(2.56625e-06 0 0)
(2.56623e-06 0 0)
(2.5662e-06 0 0)
(2.56618e-06 0 0)
(2.56615e-06 0 0)
(2.56613e-06 0 0)
(2.5661e-06 0 0)
(2.56607e-06 0 0)
(2.56604e-06 0 0)
(2.56602e-06 0 0)
(2.56599e-06 0 0)
(2.56596e-06 0 0)
(2.56593e-06 0 0)
(2.5659e-06 0 0)
(2.56587e-06 0 0)
(2.56584e-06 0 0)
(2.56581e-06 0 0)
(2.56578e-06 0 0)
(2.56574e-06 0 0)
(2.56571e-06 0 0)
(2.56568e-06 0 0)
(2.56564e-06 0 0)
(2.5656e-06 0 0)
(2.56557e-06 0 0)
(2.56553e-06 0 0)
(2.56549e-06 0 0)
(2.56544e-06 0 0)
(2.5654e-06 0 0)
(2.56535e-06 0 0)
(2.56531e-06 0 0)
(2.56526e-06 0 0)
(2.5652e-06 0 0)
(2.56515e-06 0 0)
(2.56509e-06 0 0)
(2.56502e-06 0 0)
(2.56496e-06 0 0)
(2.56488e-06 0 0)
(2.56481e-06 0 0)
(2.56472e-06 0 0)
(2.56464e-06 0 0)
(2.56454e-06 0 0)
(2.56445e-06 0 0)
(2.56434e-06 0 0)
(2.56423e-06 0 0)
(2.56411e-06 0 0)
(2.56398e-06 0 0)
(2.56385e-06 0 0)
(2.56371e-06 0 0)
(2.56356e-06 0 0)
(2.5634e-06 0 0)
(2.56324e-06 0 0)
(2.56307e-06 0 0)
(2.56289e-06 0 0)
(2.56271e-06 0 0)
(2.56252e-06 0 0)
(2.56233e-06 0 0)
(2.56213e-06 0 0)
(2.56193e-06 0 0)
(2.56173e-06 0 0)
(2.56153e-06 0 0)
(2.56132e-06 0 0)
(2.56112e-06 0 0)
(2.56092e-06 0 0)
(2.56073e-06 0 0)
(2.56054e-06 0 0)
(2.56036e-06 0 0)
(2.56019e-06 0 0)
(2.56004e-06 0 0)
(2.55989e-06 0 0)
(2.55976e-06 0 0)
(2.55964e-06 0 0)
(2.55954e-06 0 0)
(2.55946e-06 0 0)
(2.5594e-06 0 0)
(2.55936e-06 0 0)
(2.55934e-06 0 0)
(2.55934e-06 0 0)
(2.55934e-06 0 0)
(2.55935e-06 0 0)
(2.5594e-06 0 0)
(2.55949e-06 0 0)
(2.5596e-06 0 0)
(2.55972e-06 0 0)
(2.55987e-06 0 0)
(2.56003e-06 0 0)
(2.5602e-06 0 0)
(2.56038e-06 0 0)
(2.56058e-06 0 0)
(2.56078e-06 0 0)
(2.56099e-06 0 0)
(2.5612e-06 0 0)
(2.56141e-06 0 0)
(2.56162e-06 0 0)
(2.56183e-06 0 0)
(2.56204e-06 0 0)
(2.56224e-06 0 0)
(2.56243e-06 0 0)
(2.56261e-06 0 0)
(2.56278e-06 0 0)
(2.56295e-06 0 0)
(2.5631e-06 0 0)
(2.56324e-06 0 0)
(2.56337e-06 0 0)
(2.56348e-06 0 0)
(2.56359e-06 0 0)
(2.56368e-06 0 0)
(2.56377e-06 0 0)
(2.56384e-06 0 0)
(2.56391e-06 0 0)
(2.56397e-06 0 0)
(2.56402e-06 0 0)
(2.56406e-06 0 0)
(2.5641e-06 0 0)
(2.56414e-06 0 0)
(2.56416e-06 0 0)
(2.56419e-06 0 0)
(2.56421e-06 0 0)
(2.56423e-06 0 0)
(2.56425e-06 0 0)
(2.56427e-06 0 0)
(2.56428e-06 0 0)
(2.5643e-06 0 0)
(2.56432e-06 0 0)
(2.56434e-06 0 0)
(2.56436e-06 0 0)
(2.56438e-06 0 0)
(2.5644e-06 0 0)
(2.56443e-06 0 0)
(2.56445e-06 0 0)
(2.56448e-06 0 0)
(2.56451e-06 0 0)
(2.56454e-06 0 0)
(2.56458e-06 0 0)
(2.56461e-06 0 0)
(2.56465e-06 0 0)
(2.56469e-06 0 0)
(2.56474e-06 0 0)
(2.56478e-06 0 0)
(2.56483e-06 0 0)
(2.56488e-06 0 0)
(2.56493e-06 0 0)
(2.56498e-06 0 0)
(2.56503e-06 0 0)
(2.56509e-06 0 0)
(2.56514e-06 0 0)
(2.56519e-06 0 0)
(2.56525e-06 0 0)
(2.5653e-06 0 0)
(2.56536e-06 0 0)
(2.56541e-06 0 0)
(2.56546e-06 0 0)
(2.56551e-06 0 0)
(2.56556e-06 0 0)
(2.56561e-06 0 0)
(2.56566e-06 0 0)
(2.56571e-06 0 0)
(2.56576e-06 0 0)
(2.5658e-06 0 0)
(2.56585e-06 0 0)
(2.56589e-06 0 0)
(2.56593e-06 0 0)
(2.56597e-06 0 0)
(2.56602e-06 0 0)
(2.56605e-06 0 0)
(2.56609e-06 0 0)
(2.56613e-06 0 0)
(2.56617e-06 0 0)
(2.56621e-06 0 0)
(2.56624e-06 0 0)
(2.56627e-06 0 0)
(2.56631e-06 0 0)
(2.56634e-06 0 0)
(2.56637e-06 0 0)
(2.5664e-06 0 0)
(2.56642e-06 0 0)
(2.56645e-06 0 0)
(2.56647e-06 0 0)
(2.5665e-06 0 0)
(2.56652e-06 0 0)
(2.56654e-06 0 0)
(2.56655e-06 0 0)
(2.56657e-06 0 0)
(2.56658e-06 0 0)
(2.5666e-06 0 0)
(2.56661e-06 0 0)
(2.56662e-06 0 0)
(2.56662e-06 0 0)
(2.56663e-06 0 0)
(2.56663e-06 0 0)
(2.56663e-06 0 0)
(2.56663e-06 0 0)
(2.56663e-06 0 0)
(2.56663e-06 0 0)
(2.56662e-06 0 0)
(2.56661e-06 0 0)
(2.5666e-06 0 0)
(2.56659e-06 0 0)
(2.56658e-06 0 0)
(2.56656e-06 0 0)
(2.56654e-06 0 0)
(2.56652e-06 0 0)
(2.5665e-06 0 0)
(2.56648e-06 0 0)
(2.56646e-06 0 0)
(2.56643e-06 0 0)
(2.56641e-06 0 0)
(2.56638e-06 0 0)
(2.56635e-06 0 0)
(2.56632e-06 0 0)
(2.56629e-06 0 0)
(2.56626e-06 0 0)
(2.56623e-06 0 0)
(2.56619e-06 0 0)
(2.56616e-06 0 0)
(2.56612e-06 0 0)
(2.56609e-06 0 0)
(2.56605e-06 0 0)
(2.56602e-06 0 0)
(2.56598e-06 0 0)
(2.56594e-06 0 0)
(2.5659e-06 0 0)
(2.56586e-06 0 0)
(2.56582e-06 0 0)
(2.56578e-06 0 0)
(2.56574e-06 0 0)
(2.5657e-06 0 0)
(2.56566e-06 0 0)
(2.56562e-06 0 0)
(2.56557e-06 0 0)
(2.56553e-06 0 0)
(2.56548e-06 0 0)
(2.56544e-06 0 0)
(2.56539e-06 0 0)
(2.56534e-06 0 0)
(2.56529e-06 0 0)
(2.56524e-06 0 0)
(2.56518e-06 0 0)
(2.56512e-06 0 0)
(2.56507e-06 0 0)
(2.565e-06 0 0)
(2.56494e-06 0 0)
(2.56487e-06 0 0)
(2.5648e-06 0 0)
(2.56473e-06 0 0)
(2.56466e-06 0 0)
(2.56457e-06 0 0)
(2.56449e-06 0 0)
(2.5644e-06 0 0)
(2.56431e-06 0 0)
(2.56421e-06 0 0)
(2.56411e-06 0 0)
(2.564e-06 0 0)
(2.56388e-06 0 0)
(2.56377e-06 0 0)
(2.56364e-06 0 0)
(2.56351e-06 0 0)
(2.56338e-06 0 0)
(2.56324e-06 0 0)
(2.5631e-06 0 0)
(2.56295e-06 0 0)
(2.5628e-06 0 0)
(2.56264e-06 0 0)
(2.56248e-06 0 0)
(2.56231e-06 0 0)
(2.56215e-06 0 0)
(2.56198e-06 0 0)
(2.56181e-06 0 0)
(2.56164e-06 0 0)
(2.56147e-06 0 0)
(2.56131e-06 0 0)
(2.56114e-06 0 0)
(2.56098e-06 0 0)
(2.56082e-06 0 0)
(2.56067e-06 0 0)
(2.56053e-06 0 0)
(2.56039e-06 0 0)
(2.56027e-06 0 0)
(2.56015e-06 0 0)
(2.56004e-06 0 0)
(2.55995e-06 0 0)
(2.55987e-06 0 0)
(2.5598e-06 0 0)
(2.55975e-06 0 0)
(2.55971e-06 0 0)
(2.55969e-06 0 0)
(2.55968e-06 0 0)
(2.55968e-06 0 0)
(2.55968e-06 0 0)
(2.55971e-06 0 0)
(2.55977e-06 0 0)
(2.55984e-06 0 0)
(2.55993e-06 0 0)
(2.56004e-06 0 0)
(2.56016e-06 0 0)
(2.56029e-06 0 0)
(2.56043e-06 0 0)
(2.56058e-06 0 0)
(2.56074e-06 0 0)
(2.5609e-06 0 0)
(2.56108e-06 0 0)
(2.56125e-06 0 0)
(2.56143e-06 0 0)
(2.56161e-06 0 0)
(2.56178e-06 0 0)
(2.56196e-06 0 0)
(2.56213e-06 0 0)
(2.56229e-06 0 0)
(2.56245e-06 0 0)
(2.56261e-06 0 0)
(2.56276e-06 0 0)
(2.56289e-06 0 0)
(2.56303e-06 0 0)
(2.56315e-06 0 0)
(2.56326e-06 0 0)
(2.56337e-06 0 0)
(2.56346e-06 0 0)
(2.56355e-06 0 0)
(2.56363e-06 0 0)
(2.56371e-06 0 0)
(2.56377e-06 0 0)
(2.56383e-06 0 0)
(2.56389e-06 0 0)
(2.56393e-06 0 0)
(2.56398e-06 0 0)
(2.56401e-06 0 0)
(2.56405e-06 0 0)
(2.56408e-06 0 0)
(2.56411e-06 0 0)
(2.56413e-06 0 0)
(2.56416e-06 0 0)
(2.56418e-06 0 0)
(2.5642e-06 0 0)
(2.56423e-06 0 0)
(2.56425e-06 0 0)
(2.56427e-06 0 0)
(2.5643e-06 0 0)
(2.56432e-06 0 0)
(2.56435e-06 0 0)
(2.56438e-06 0 0)
(2.5644e-06 0 0)
(2.56443e-06 0 0)
(2.56447e-06 0 0)
(2.5645e-06 0 0)
(2.56453e-06 0 0)
(2.56457e-06 0 0)
(2.56461e-06 0 0)
(2.56465e-06 0 0)
(2.56469e-06 0 0)
(2.56473e-06 0 0)
(2.56477e-06 0 0)
(2.56482e-06 0 0)
(2.56486e-06 0 0)
(2.56491e-06 0 0)
(2.56495e-06 0 0)
(2.565e-06 0 0)
(2.56504e-06 0 0)
(2.56509e-06 0 0)
(2.56514e-06 0 0)
(2.56518e-06 0 0)
(2.56523e-06 0 0)
(2.56527e-06 0 0)
(2.56532e-06 0 0)
(2.56536e-06 0 0)
(2.56541e-06 0 0)
(2.56545e-06 0 0)
(2.56549e-06 0 0)
(2.56553e-06 0 0)
(2.56557e-06 0 0)
(2.56561e-06 0 0)
(2.56565e-06 0 0)
(2.56569e-06 0 0)
(2.56572e-06 0 0)
(2.56576e-06 0 0)
(2.56579e-06 0 0)
(2.56583e-06 0 0)
(2.56586e-06 0 0)
(2.56589e-06 0 0)
(2.56592e-06 0 0)
(2.56595e-06 0 0)
(2.56597e-06 0 0)
(2.566e-06 0 0)
(2.56603e-06 0 0)
(2.56605e-06 0 0)
(2.56607e-06 0 0)
(2.5661e-06 0 0)
(2.56612e-06 0 0)
(2.56614e-06 0 0)
(2.56616e-06 0 0)
(2.56617e-06 0 0)
(2.56619e-06 0 0)
(2.56621e-06 0 0)
(2.56622e-06 0 0)
(2.56624e-06 0 0)
(2.56625e-06 0 0)
(2.56626e-06 0 0)
(2.56627e-06 0 0)
(2.56628e-06 0 0)
(2.56628e-06 0 0)
(2.56629e-06 0 0)
(2.56629e-06 0 0)
(2.5663e-06 0 0)
(2.5663e-06 0 0)
(2.5663e-06 0 0)
(2.5663e-06 0 0)
(2.5663e-06 0 0)
(2.5663e-06 0 0)
(2.5663e-06 0 0)
(2.56629e-06 0 0)
(2.56628e-06 0 0)
(2.56627e-06 0 0)
(2.56626e-06 0 0)
(2.56625e-06 0 0)
(2.56624e-06 0 0)
(2.56622e-06 0 0)
(2.56621e-06 0 0)
(2.56619e-06 0 0)
(2.56617e-06 0 0)
(2.56615e-06 0 0)
(2.56613e-06 0 0)
(2.56611e-06 0 0)
(2.56609e-06 0 0)
(2.56606e-06 0 0)
(2.56604e-06 0 0)
(2.56601e-06 0 0)
(2.56598e-06 0 0)
(2.56595e-06 0 0)
(2.56592e-06 0 0)
(2.56589e-06 0 0)
(2.56586e-06 0 0)
(2.56583e-06 0 0)
(2.56579e-06 0 0)
(2.56576e-06 0 0)
(2.56572e-06 0 0)
(2.56569e-06 0 0)
(2.56565e-06 0 0)
(2.56561e-06 0 0)
(2.56557e-06 0 0)
(2.56553e-06 0 0)
(2.56549e-06 0 0)
(2.56545e-06 0 0)
(2.5654e-06 0 0)
(2.56536e-06 0 0)
(2.56531e-06 0 0)
(2.56526e-06 0 0)
(2.56521e-06 0 0)
(2.56516e-06 0 0)
(2.56511e-06 0 0)
(2.56505e-06 0 0)
(2.56499e-06 0 0)
(2.56493e-06 0 0)
(2.56487e-06 0 0)
(2.56481e-06 0 0)
(2.56474e-06 0 0)
(2.56467e-06 0 0)
(2.56459e-06 0 0)
(2.56452e-06 0 0)
(2.56443e-06 0 0)
(2.56435e-06 0 0)
(2.56426e-06 0 0)
(2.56417e-06 0 0)
(2.56407e-06 0 0)
(2.56397e-06 0 0)
(2.56387e-06 0 0)
(2.56376e-06 0 0)
(2.56364e-06 0 0)
(2.56353e-06 0 0)
(2.56341e-06 0 0)
(2.56328e-06 0 0)
(2.56316e-06 0 0)
(2.56303e-06 0 0)
(2.56289e-06 0 0)
(2.56276e-06 0 0)
(2.56262e-06 0 0)
(2.56248e-06 0 0)
(2.56234e-06 0 0)
(2.56219e-06 0 0)
(2.56205e-06 0 0)
(2.56191e-06 0 0)
(2.56177e-06 0 0)
(2.56163e-06 0 0)
(2.5615e-06 0 0)
(2.56136e-06 0 0)
(2.56124e-06 0 0)
(2.56111e-06 0 0)
(2.561e-06 0 0)
(2.56088e-06 0 0)
(2.56078e-06 0 0)
(2.56069e-06 0 0)
(2.5606e-06 0 0)
(2.56052e-06 0 0)
(2.56045e-06 0 0)
(2.5604e-06 0 0)
(2.56035e-06 0 0)
(2.56032e-06 0 0)
(2.5603e-06 0 0)
(2.56029e-06 0 0)
(2.56029e-06 0 0)
(2.56029e-06 0 0)
(2.56031e-06 0 0)
(2.56034e-06 0 0)
(2.5604e-06 0 0)
(2.56046e-06 0 0)
(2.56054e-06 0 0)
(2.56063e-06 0 0)
(2.56073e-06 0 0)
(2.56084e-06 0 0)
(2.56096e-06 0 0)
(2.56109e-06 0 0)
(2.56122e-06 0 0)
(2.56135e-06 0 0)
(2.56149e-06 0 0)
(2.56164e-06 0 0)
(2.56178e-06 0 0)
(2.56193e-06 0 0)
(2.56208e-06 0 0)
(2.56222e-06 0 0)
(2.56236e-06 0 0)
(2.5625e-06 0 0)
(2.56264e-06 0 0)
(2.56277e-06 0 0)
(2.5629e-06 0 0)
(2.56302e-06 0 0)
(2.56313e-06 0 0)
(2.56324e-06 0 0)
(2.56334e-06 0 0)
(2.56344e-06 0 0)
(2.56353e-06 0 0)
(2.56361e-06 0 0)
(2.56369e-06 0 0)
(2.56376e-06 0 0)
(2.56382e-06 0 0)
(2.56388e-06 0 0)
(2.56393e-06 0 0)
(2.56398e-06 0 0)
(2.56402e-06 0 0)
(2.56406e-06 0 0)
(2.5641e-06 0 0)
(2.56413e-06 0 0)
(2.56416e-06 0 0)
(2.56419e-06 0 0)
(2.56421e-06 0 0)
(2.56424e-06 0 0)
(2.56426e-06 0 0)
(2.56428e-06 0 0)
)
;

boundaryField
{
    inlet
    {
        type            fixedValue;
        value           uniform (1.13622e-05 0 0);
    }
    outlet
    {
        type            zeroGradient;
    }
    emptyWalls
    {
        type            empty;
    }
}


// ************************************************************************* //
