/*--------------------------------*- C++ -*----------------------------------*\
  =========                 |
  \\      /  F ield         | OpenFOAM: The Open Source CFD Toolbox
   \\    /   O peration     | Website:  https://openfoam.org
    \\  /    A nd           | Version:  9
     \\/     M anipulation  |
\*---------------------------------------------------------------------------*/
FoamFile
{
    format      ascii;
    class       volScalarField;
    location    "11750";
    object      Fb;
}
// * * * * * * * * * * * * * * * * * * * * * * * * * * * * * * * * * * * * * //

dimensions      [0 0 0 0 0 0 0];

internalField   nonuniform List<scalar> 
1000
(
0.805395
0.805002
0.805344
0.805129
0.805317
0.805272
0.805365
0.805382
0.805454
0.805495
0.805557
0.805593
0.805651
0.805706
0.805992
0.807629
0.821875
0.832373
0.834238
0.834959
0.835377
0.835669
0.835879
0.836058
0.836185
0.836306
0.836383
0.836458
0.836504
0.836549
0.836569
0.836592
0.836572
0.836592
0.836548
0.836539
0.836507
0.836458
0.836406
0.836331
0.836239
0.836109
0.835941
0.835702
0.835386
0.834977
0.834503
0.833991
0.833456
0.832903
0.832335
0.831743
0.831116
0.830443
0.829721
0.828955
0.828155
0.827335
0.826507
0.825681
0.82486
0.824052
0.82326
0.822494
0.821763
0.821075
0.820441
0.819865
0.819349
0.81889
0.818479
0.818106
0.817755
0.817413
0.817065
0.816698
0.816302
0.815872
0.815402
0.814892
0.814344
0.813761
0.813148
0.812511
0.811855
0.811187
0.81051
0.80983
0.80915
0.808472
0.807798
0.807129
0.806465
0.805806
0.805151
0.804501
0.803853
0.803208
0.802564
0.801921
0.801277
0.800634
0.79999
0.799344
0.798698
0.79805
0.7974
0.796748
0.796095
0.79544
0.794784
0.794125
0.793465
0.792803
0.79214
0.791474
0.790807
0.790138
0.789468
0.788796
0.788122
0.787446
0.786769
0.78609
0.78541
0.784727
0.784043
0.783358
0.78267
0.781981
0.78129
0.780598
0.779903
0.779207
0.778509
0.777809
0.777107
0.776403
0.775697
0.77499
0.77428
0.773569
0.772856
0.772141
0.771424
0.770705
0.769984
0.769262
0.768537
0.767811
0.767082
0.766353
0.76562
0.764888
0.764152
0.763417
0.762678
0.76194
0.761198
0.760458
0.759715
0.758973
0.758228
0.757483
0.756736
0.755988
0.755239
0.754488
0.753735
0.75298
0.752224
0.751466
0.750707
0.749946
0.749183
0.748418
0.74765
0.746879
0.746104
0.745324
0.744539
0.743746
0.742946
0.742137
0.741318
0.740491
0.739653
0.738805
0.737948
0.737082
0.736208
0.735328
0.734442
0.733553
0.732663
0.731773
0.730887
0.730006
0.729134
0.728272
0.727423
0.72659
0.725774
0.724976
0.724198
0.723439
0.722699
0.721977
0.721272
0.720581
0.719901
0.71923
0.718565
0.717902
0.717238
0.71657
0.715896
0.715214
0.714522
0.713819
0.713103
0.712376
0.711636
0.710884
0.710121
0.709348
0.708565
0.707774
0.706976
0.706171
0.705362
0.704549
0.703732
0.702914
0.702093
0.701272
0.70045
0.699627
0.698805
0.697983
0.697161
0.696339
0.695517
0.694695
0.693873
0.693051
0.692228
0.691405
0.690581
0.689756
0.68893
0.688102
0.687274
0.686443
0.685611
0.684777
0.683942
0.683104
0.682265
0.681423
0.68058
0.679734
0.678886
0.678037
0.677185
0.676331
0.675475
0.674617
0.673757
0.672895
0.672031
0.671165
0.670296
0.669426
0.668554
0.66768
0.666803
0.665925
0.665044
0.664162
0.663277
0.66239
0.661501
0.66061
0.659717
0.658821
0.657923
0.657023
0.656121
0.655216
0.654309
0.6534
0.652488
0.651574
0.650658
0.649739
0.648818
0.647894
0.646968
0.64604
0.645109
0.644175
0.643239
0.642301
0.64136
0.640416
0.63947
0.638522
0.637571
0.636618
0.635662
0.634704
0.633743
0.63278
0.631815
0.630846
0.629876
0.628903
0.627928
0.62695
0.625969
0.624986
0.624001
0.623012
0.622021
0.621028
0.620031
0.619032
0.61803
0.617025
0.616017
0.615005
0.61399
0.612972
0.61195
0.610924
0.609893
0.608859
0.607819
0.606776
0.605726
0.604672
0.603611
0.602545
0.601472
0.600394
0.599309
0.598218
0.59712
0.596016
0.594906
0.59379
0.592668
0.59154
0.590408
0.589271
0.58813
0.586985
0.585838
0.584688
0.583537
0.582385
0.581233
0.580081
0.578931
0.577782
0.576636
0.575493
0.574353
0.573218
0.572085
0.570957
0.569831
0.568711
0.567592
0.566477
0.565361
0.564251
0.563135
0.562025
0.560906
0.559793
0.558667
0.557546
0.556411
0.555277
0.554129
0.55298
0.551818
0.550649
0.549472
0.548283
0.547088
0.54588
0.544666
0.543439
0.542206
0.540962
0.539709
0.538448
0.537177
0.535899
0.534612
0.533318
0.532016
0.530705
0.529389
0.528063
0.526732
0.525392
0.524046
0.522693
0.521333
0.519966
0.518591
0.517209
0.51582
0.514423
0.51302
0.511608
0.510189
0.508763
0.507329
0.505887
0.504437
0.50298
0.501515
0.500042
0.498563
0.497076
0.495582
0.494082
0.492576
0.491066
0.489552
0.488036
0.486519
0.485002
0.483489
0.481982
0.480485
0.479001
0.477535
0.476092
0.474678
0.473298
0.47196
0.470669
0.469435
0.468262
0.467157
0.466125
0.46517
0.464298
0.463508
0.462801
0.462172
0.461617
0.461126
0.460685
0.460274
0.459853
0.459363
0.458702
0.45769
0.456021
0.453161
0.448213
0.439725
0.42558
0.403236
0.370939
0.330073
0.286681
0.248796
0.22119
0.203684
0.193558
0.188012
0.185065
0.183525
0.182726
0.182314
0.182101
0.181992
0.181935
0.181906
0.18189
0.181882
0.181877
0.181874
0.181873
0.181871
0.18187
0.181869
0.181868
0.181867
0.181865
0.181864
0.181863
0.181862
0.181861
0.181859
0.181858
0.181857
0.181855
0.181854
0.181852
0.181851
0.181849
0.181847
0.181846
0.181844
0.181842
0.18184
0.181838
0.181836
0.181833
0.181831
0.181828
0.181825
0.181822
0.181819
0.181815
0.181812
0.181807
0.181803
0.181798
0.181793
0.181787
0.181781
0.181775
0.181768
0.18176
0.181752
0.181743
0.181734
0.181725
0.181715
0.181704
0.181693
0.181681
0.181669
0.181657
0.181644
0.18163
0.181617
0.181603
0.181589
0.181575
0.181561
0.181547
0.181534
0.18152
0.181507
0.181494
0.181482
0.18147
0.181459
0.181449
0.18144
0.181432
0.181425
0.181419
0.181414
0.181411
0.181409
0.181408
0.181407
0.181407
0.181409
0.181413
0.181418
0.181425
0.181432
0.181441
0.181451
0.181461
0.181472
0.181483
0.181495
0.181508
0.18152
0.181533
0.181545
0.181558
0.18157
0.181582
0.181594
0.181605
0.181616
0.181627
0.181636
0.181645
0.181654
0.181662
0.181669
0.181676
0.181682
0.181688
0.181693
0.181698
0.181702
0.181706
0.18171
0.181713
0.181716
0.181718
0.181721
0.181723
0.181725
0.181727
0.181729
0.181731
0.181733
0.181735
0.181736
0.181738
0.18174
0.181742
0.181744
0.181747
0.181749
0.181751
0.181754
0.181756
0.181759
0.181761
0.181764
0.181767
0.181769
0.181772
0.181775
0.181778
0.181781
0.181783
0.181786
0.181789
0.181792
0.181795
0.181798
0.1818
0.181803
0.181806
0.181808
0.181811
0.181813
0.181816
0.181818
0.18182
0.181822
0.181825
0.181827
0.181828
0.18183
0.181832
0.181834
0.181835
0.181837
0.181838
0.18184
0.181841
0.181842
0.181844
0.181845
0.181846
0.181847
0.181848
0.181848
0.181849
0.18185
0.181851
0.181851
0.181852
0.181852
0.181853
0.181853
0.181853
0.181854
0.181854
0.181854
0.181854
0.181854
0.181854
0.181854
0.181854
0.181853
0.181853
0.181853
0.181852
0.181852
0.181851
0.18185
0.18185
0.181849
0.181848
0.181847
0.181846
0.181845
0.181844
0.181843
0.181842
0.181841
0.18184
0.181839
0.181838
0.181837
0.181836
0.181835
0.181834
0.181833
0.181832
0.181831
0.181829
0.181828
0.181827
0.181825
0.181823
0.181822
0.18182
0.181818
0.181815
0.181813
0.18181
0.181808
0.181805
0.181802
0.181798
0.181795
0.181791
0.181787
0.181782
0.181778
0.181773
0.181768
0.181762
0.181756
0.18175
0.181743
0.181736
0.181729
0.181721
0.181713
0.181705
0.181696
0.181687
0.181677
0.181667
0.181657
0.181647
0.181636
0.181625
0.181614
0.181603
0.181591
0.18158
0.181568
0.181557
0.181545
0.181534
0.181523
0.181512
0.181501
0.181491
0.181482
0.181473
0.181464
0.181456
0.181449
0.181443
0.181438
0.181433
0.181429
0.181427
0.181425
0.181424
0.181424
0.181424
0.181425
0.181428
0.181432
0.181437
0.181443
0.18145
0.181457
0.181466
0.181475
0.181484
0.181494
0.181504
0.181515
0.181526
0.181537
0.181548
0.181559
0.18157
0.181581
0.181591
0.181601
0.181611
0.181621
0.18163
0.181639
0.181648
0.181656
0.181663
0.181671
0.181677
0.181684
0.18169
0.181695
0.1817
0.181705
0.181709
0.181714
0.181717
0.181721
0.181725
0.181728
0.181731
0.181734
0.181737
0.181739
0.181742
0.181745
0.181747
0.18175
0.181752
0.181755
0.181757
0.18176
0.181762
0.181765
0.181768
0.18177
0.181773
0.181775
0.181778
0.181781
0.181784
0.181786
0.181789
0.181792
0.181795
0.181797
0.1818
0.181803
0.181806
0.181808
0.181811
0.181813
0.181816
0.181819
0.181821
0.181823
0.181826
0.181828
0.18183
0.181832
0.181835
0.181837
0.181839
0.18184
0.181842
0.181844
0.181845
0.181847
0.181848
0.18185
0.181851
0.181852
0.181853
0.181854
0.181855
0.181856
0.181857
0.181858
0.181858
0.181859
0.181859
0.18186
0.18186
0.18186
0.181861
0.181861
0.181861
0.181861
0.181861
0.181861
0.18186
0.18186
0.18186
0.181859
0.181859
0.181858
0.181858
0.181857
0.181857
0.181856
0.181855
0.181854
0.181854
0.181853
0.181852
0.181851
0.18185
0.181849
0.181848
0.181847
0.181846
0.181844
0.181843
0.181842
0.18184
0.181839
0.181838
0.181836
0.181835
0.181833
0.181831
0.181829
0.181828
0.181826
0.181823
0.181821
0.181819
0.181817
0.181814
0.181812
0.181809
0.181806
0.181803
0.1818
0.181796
0.181793
0.181789
0.181785
0.181781
0.181776
0.181771
0.181767
0.181761
0.181756
0.18175
0.181744
0.181738
0.181731
0.181724
0.181717
0.18171
0.181702
0.181694
0.181686
0.181677
0.181669
0.18166
0.181651
0.181641
0.181632
0.181622
0.181612
0.181603
0.181593
0.181583
0.181573
0.181564
0.181554
0.181545
0.181535
0.181527
0.181518
0.18151
0.181502
0.181495
0.181488
0.181482
0.181476
0.181471
0.181467
0.181463
0.18146
0.181458
0.181457
0.181456
0.181456
0.181457
0.181457
0.18146
0.181461
0.181467
0.181469
0.181478
0.18148
0.181491
0.181494
0.181506
0.18151
0.181523
0.181527
0.181541
)
;

boundaryField
{
    inlet
    {
        type            calculated;
        value           uniform 0.805169;
    }
    outlet
    {
        type            calculated;
        value           uniform 0.181543;
    }
    emptyWalls
    {
        type            empty;
    }
}


// ************************************************************************* //
