/*--------------------------------*- C++ -*----------------------------------*\
  =========                 |
  \\      /  F ield         | OpenFOAM: The Open Source CFD Toolbox
   \\    /   O peration     | Website:  https://openfoam.org
    \\  /    A nd           | Version:  9
     \\/     M anipulation  |
\*---------------------------------------------------------------------------*/
FoamFile
{
    format      ascii;
    class       volScalarField;
    location    "11750";
    object      krb;
}
// * * * * * * * * * * * * * * * * * * * * * * * * * * * * * * * * * * * * * //

dimensions      [0 0 0 0 0 0 0];

internalField   nonuniform List<scalar> 
1000
(
0.0981117
0.0987682
0.099961
0.100885
0.101982
0.102974
0.104014
0.10499
0.105935
0.106789
0.10756
0.108234
0.108913
0.110028
0.113532
0.128488
0.250237
0.4456
0.490221
0.504684
0.512027
0.516703
0.520048
0.522584
0.524563
0.526129
0.527368
0.528351
0.529123
0.529725
0.530182
0.53052
0.530741
0.530873
0.530899
0.530837
0.530666
0.530383
0.529983
0.529447
0.528748
0.527835
0.526628
0.525022
0.522918
0.520297
0.517292
0.514087
0.510775
0.50741
0.504026
0.500645
0.497279
0.493934
0.490618
0.487334
0.484087
0.480881
0.477717
0.474599
0.471526
0.468498
0.465517
0.462582
0.459695
0.456855
0.454064
0.45132
0.448624
0.445973
0.443366
0.440801
0.438273
0.435781
0.433322
0.430892
0.428491
0.426115
0.423765
0.421439
0.419138
0.41686
0.414607
0.412378
0.410174
0.407994
0.40584
0.40371
0.401605
0.399525
0.397469
0.395438
0.39343
0.391445
0.389483
0.387542
0.385624
0.383726
0.381849
0.379991
0.378154
0.376335
0.374536
0.372754
0.370991
0.369245
0.367516
0.365804
0.364109
0.362431
0.360768
0.359121
0.357489
0.355873
0.354272
0.352685
0.351113
0.349555
0.348011
0.34648
0.344963
0.34346
0.341969
0.340492
0.339026
0.337574
0.336133
0.334705
0.333288
0.331883
0.33049
0.329108
0.327736
0.326376
0.325027
0.323688
0.32236
0.321042
0.319734
0.318436
0.317148
0.315869
0.3146
0.313341
0.31209
0.310849
0.309617
0.308394
0.30718
0.305974
0.304776
0.303588
0.302407
0.301235
0.30007
0.298914
0.297766
0.296625
0.295492
0.294367
0.293249
0.292139
0.291036
0.28994
0.288852
0.28777
0.286695
0.285627
0.284566
0.283512
0.282464
0.281422
0.280387
0.279358
0.278335
0.277319
0.276308
0.275304
0.274305
0.273311
0.272323
0.27134
0.270363
0.26939
0.268422
0.267459
0.266501
0.265547
0.264598
0.263653
0.262713
0.261778
0.260847
0.259921
0.259001
0.258085
0.257175
0.25627
0.255371
0.254478
0.25359
0.252709
0.251834
0.250965
0.250102
0.249245
0.248395
0.24755
0.246712
0.245878
0.24505
0.244227
0.243408
0.242594
0.241783
0.240976
0.240173
0.239373
0.238575
0.237781
0.236989
0.2362
0.235414
0.234631
0.23385
0.233072
0.232297
0.231524
0.230755
0.229988
0.229225
0.228465
0.227708
0.226954
0.226203
0.225455
0.224711
0.22397
0.223232
0.222497
0.221765
0.221037
0.220312
0.219589
0.21887
0.218153
0.21744
0.216729
0.216022
0.215317
0.214615
0.213915
0.213218
0.212524
0.211833
0.211144
0.210457
0.209773
0.209092
0.208413
0.207737
0.207063
0.206391
0.205722
0.205055
0.20439
0.203728
0.203067
0.20241
0.201754
0.201101
0.200449
0.1998
0.199153
0.198509
0.197866
0.197225
0.196587
0.19595
0.195316
0.194683
0.194053
0.193424
0.192798
0.192173
0.19155
0.190929
0.19031
0.189693
0.189077
0.188464
0.187852
0.187242
0.186634
0.186027
0.185422
0.184819
0.184217
0.183617
0.183019
0.182422
0.181827
0.181234
0.180642
0.180051
0.179462
0.178875
0.178289
0.177705
0.177122
0.17654
0.17596
0.175382
0.174805
0.174229
0.173654
0.173081
0.172509
0.171939
0.17137
0.170802
0.170235
0.16967
0.169106
0.168543
0.167982
0.167421
0.166862
0.166304
0.165747
0.165191
0.164636
0.164082
0.163529
0.162978
0.162427
0.161877
0.161328
0.16078
0.160233
0.159687
0.159142
0.158597
0.158053
0.15751
0.156968
0.156426
0.155885
0.155345
0.154805
0.154266
0.153727
0.153189
0.152652
0.152116
0.15158
0.151045
0.150511
0.149977
0.149444
0.148912
0.148381
0.14785
0.147321
0.146792
0.146264
0.145737
0.145211
0.144686
0.144162
0.143639
0.143117
0.142596
0.142075
0.141556
0.141037
0.140518
0.140001
0.139484
0.138967
0.138451
0.137936
0.13742
0.136905
0.13639
0.135875
0.13536
0.134845
0.134329
0.133814
0.133299
0.132783
0.132268
0.131752
0.131235
0.130719
0.130202
0.129685
0.129168
0.12865
0.128132
0.127614
0.127096
0.126577
0.126058
0.125539
0.125019
0.124499
0.123979
0.123458
0.122937
0.122415
0.121893
0.121371
0.120848
0.120324
0.1198
0.119276
0.118751
0.118226
0.1177
0.117174
0.116647
0.11612
0.115592
0.115064
0.114535
0.114007
0.113478
0.112949
0.11242
0.111891
0.111362
0.110835
0.110309
0.109784
0.109262
0.108742
0.108225
0.107714
0.107207
0.106708
0.106217
0.105735
0.105265
0.104808
0.104367
0.103944
0.10354
0.103157
0.102798
0.102463
0.102155
0.101874
0.101619
0.101392
0.101191
0.101013
0.100856
0.100715
0.100583
0.100449
0.100294
0.100084
0.0997642
0.0992392
0.0983455
0.0968153
0.0942371
0.090063
0.0837571
0.0751936
0.0651502
0.0552819
0.0472103
0.0415912
0.0381255
0.0361515
0.0350792
0.034512
0.0342161
0.0340629
0.0339839
0.0339432
0.0339223
0.0339116
0.0339061
0.0339032
0.0339017
0.033901
0.0339005
0.0339003
0.0339002
0.0339001
0.0339001
0.0339
0.0339
0.0339
0.0339
0.0338999
0.0338999
0.0338999
0.0338998
0.0338998
0.0338998
0.0338997
0.0338997
0.0338997
0.0338996
0.0338996
0.0338995
0.0338995
0.0338995
0.0338994
0.0338994
0.0338993
0.0338993
0.0338992
0.0338991
0.0338991
0.033899
0.0338989
0.0338988
0.0338987
0.0338986
0.0338985
0.0338983
0.0338982
0.033898
0.0338978
0.0338976
0.0338974
0.0338971
0.0338969
0.0338966
0.0338963
0.033896
0.0338957
0.0338954
0.033895
0.0338947
0.0338943
0.0338939
0.0338935
0.0338931
0.0338926
0.0338922
0.0338917
0.0338913
0.0338908
0.0338904
0.0338899
0.0338895
0.033889
0.0338886
0.0338882
0.0338878
0.0338874
0.033887
0.0338867
0.0338864
0.0338861
0.0338858
0.0338856
0.0338854
0.0338852
0.0338851
0.033885
0.0338849
0.0338848
0.0338848
0.0338848
0.0338849
0.033885
0.0338851
0.0338853
0.0338855
0.0338857
0.0338859
0.0338862
0.0338864
0.0338867
0.033887
0.0338872
0.0338875
0.0338878
0.0338881
0.0338884
0.0338886
0.0338889
0.0338892
0.0338894
0.0338896
0.0338899
0.0338901
0.0338903
0.0338904
0.0338906
0.0338908
0.0338909
0.033891
0.0338912
0.0338913
0.0338914
0.0338915
0.0338916
0.0338917
0.0338917
0.0338918
0.0338919
0.033892
0.033892
0.0338921
0.0338922
0.0338923
0.0338923
0.0338924
0.0338925
0.0338926
0.0338926
0.0338927
0.0338928
0.0338929
0.033893
0.033893
0.0338931
0.0338932
0.0338933
0.0338934
0.0338935
0.0338936
0.0338937
0.0338938
0.0338939
0.033894
0.0338941
0.0338941
0.0338942
0.0338943
0.0338944
0.0338945
0.0338946
0.0338946
0.0338947
0.0338948
0.0338949
0.0338949
0.033895
0.0338951
0.0338951
0.0338952
0.0338952
0.0338953
0.0338953
0.0338954
0.0338954
0.0338955
0.0338955
0.0338956
0.0338956
0.0338956
0.0338956
0.0338957
0.0338957
0.0338957
0.0338958
0.0338958
0.0338958
0.0338958
0.0338958
0.0338958
0.0338959
0.0338959
0.0338959
0.0338959
0.0338959
0.0338959
0.0338959
0.0338959
0.0338959
0.0338959
0.0338959
0.0338959
0.0338959
0.0338958
0.0338958
0.0338958
0.0338958
0.0338958
0.0338957
0.0338957
0.0338957
0.0338956
0.0338956
0.0338955
0.0338955
0.0338954
0.0338954
0.0338954
0.0338953
0.0338953
0.0338953
0.0338953
0.0338953
0.0338953
0.0338953
0.0338953
0.0338953
0.0338953
0.0338954
0.0338954
0.0338954
0.0338955
0.0338955
0.0338956
0.0338956
0.0338956
0.0338956
0.0338956
0.0338956
0.0338956
0.0338956
0.0338956
0.0338955
0.0338955
0.0338954
0.0338954
0.0338953
0.0338952
0.0338951
0.033895
0.0338949
0.0338948
0.0338946
0.0338945
0.0338943
0.0338942
0.033894
0.0338938
0.0338936
0.0338934
0.0338932
0.033893
0.0338928
0.0338925
0.0338923
0.033892
0.0338918
0.0338915
0.0338912
0.0338909
0.0338907
0.0338904
0.0338901
0.0338898
0.0338895
0.0338892
0.0338889
0.0338886
0.0338883
0.033888
0.0338877
0.0338875
0.0338872
0.0338869
0.0338867
0.0338865
0.0338863
0.0338861
0.0338859
0.0338858
0.0338857
0.0338856
0.0338855
0.0338854
0.0338854
0.0338854
0.0338854
0.0338854
0.0338855
0.0338856
0.0338857
0.0338858
0.033886
0.0338862
0.0338863
0.0338866
0.0338868
0.033887
0.0338873
0.0338875
0.0338878
0.0338881
0.0338883
0.0338886
0.0338889
0.0338891
0.0338894
0.0338896
0.0338899
0.0338901
0.0338903
0.0338905
0.0338907
0.0338909
0.0338911
0.0338913
0.0338915
0.0338916
0.0338918
0.0338919
0.0338921
0.0338922
0.0338923
0.0338924
0.0338925
0.0338926
0.0338927
0.0338927
0.0338928
0.0338929
0.033893
0.033893
0.0338931
0.0338932
0.0338932
0.0338933
0.0338934
0.0338934
0.0338935
0.0338936
0.0338936
0.0338937
0.0338938
0.0338938
0.0338939
0.033894
0.033894
0.0338941
0.0338942
0.0338942
0.0338943
0.0338944
0.0338945
0.0338945
0.0338946
0.0338947
0.0338947
0.0338948
0.0338949
0.0338949
0.033895
0.0338951
0.0338951
0.0338952
0.0338952
0.0338953
0.0338954
0.0338954
0.0338955
0.0338955
0.0338956
0.0338956
0.0338957
0.0338957
0.0338957
0.0338958
0.0338958
0.0338958
0.0338959
0.0338959
0.0338959
0.033896
0.033896
0.033896
0.033896
0.033896
0.033896
0.0338961
0.0338961
0.0338961
0.0338961
0.0338961
0.0338961
0.0338961
0.0338961
0.0338961
0.0338961
0.0338961
0.0338961
0.033896
0.033896
0.033896
0.033896
0.033896
0.033896
0.0338959
0.0338959
0.0338959
0.0338959
0.0338959
0.0338959
0.0338958
0.0338958
0.0338958
0.0338958
0.0338958
0.0338958
0.0338958
0.0338957
0.0338957
0.0338957
0.0338957
0.0338957
0.0338957
0.0338956
0.0338956
0.0338956
0.0338956
0.0338956
0.0338955
0.0338955
0.0338955
0.0338954
0.0338954
0.0338953
0.0338953
0.0338952
0.0338952
0.0338951
0.0338951
0.033895
0.0338949
0.0338948
0.0338947
0.0338946
0.0338945
0.0338944
0.0338943
0.0338942
0.033894
0.0338939
0.0338938
0.0338936
0.0338935
0.0338933
0.0338931
0.0338929
0.0338928
0.0338926
0.0338924
0.0338922
0.0338919
0.0338917
0.0338915
0.0338913
0.033891
0.0338908
0.0338906
0.0338903
0.0338901
0.0338898
0.0338896
0.0338893
0.0338891
0.0338888
0.0338886
0.0338884
0.0338881
0.0338879
0.0338877
0.0338875
0.0338873
0.0338871
0.0338869
0.0338868
0.0338866
0.0338865
0.0338864
0.0338863
0.0338862
0.0338862
0.0338862
0.0338861
0.0338861
0.0338862
0.0338862
0.0338862
0.0338863
0.0338864
0.0338865
0.0338867
0.0338867
0.033887
0.0338871
0.0338874
0.0338875
0.0338878
0.0338879
0.0338883
)
;

boundaryField
{
    inlet
    {
        type            calculated;
        value           uniform 0.0976562;
    }
    outlet
    {
        type            calculated;
        value           uniform 0.0338883;
    }
    emptyWalls
    {
        type            empty;
    }
}


// ************************************************************************* //
