/*--------------------------------*- C++ -*----------------------------------*\
  =========                 |
  \\      /  F ield         | OpenFOAM: The Open Source CFD Toolbox
   \\    /   O peration     | Website:  https://openfoam.org
    \\  /    A nd           | Version:  9
     \\/     M anipulation  |
\*---------------------------------------------------------------------------*/
FoamFile
{
    format      ascii;
    class       volScalarField;
    location    "11750";
    object      Sb;
}
// * * * * * * * * * * * * * * * * * * * * * * * * * * * * * * * * * * * * * //

dimensions      [0 0 0 0 0 0 0];

internalField   nonuniform List<scalar> 
1000
(
0.350582
0.351419
0.352933
0.3541
0.355477
0.356717
0.35801
0.359217
0.360381
0.361428
0.362371
0.363191
0.364016
0.365364
0.369556
0.386762
0.50019
0.634026
0.660126
0.668329
0.672448
0.675056
0.676915
0.67832
0.679413
0.680278
0.680961
0.681502
0.681926
0.682258
0.682509
0.682694
0.682816
0.682888
0.682903
0.682868
0.682774
0.682619
0.682399
0.682105
0.681721
0.681218
0.680553
0.679667
0.678504
0.677053
0.675384
0.673599
0.671748
0.669862
0.667958
0.66605
0.664144
0.662244
0.660353
0.658474
0.656611
0.654765
0.652937
0.651129
0.649342
0.647576
0.645831
0.644107
0.642407
0.640729
0.639074
0.637443
0.635835
0.63425
0.632686
0.631143
0.629618
0.62811
0.626617
0.625139
0.623673
0.62222
0.620778
0.619347
0.617927
0.616518
0.61512
0.613733
0.612358
0.610995
0.609644
0.608305
0.606979
0.605664
0.604361
0.603071
0.601792
0.600524
0.599268
0.598023
0.596789
0.595565
0.594351
0.593148
0.591954
0.590769
0.589595
0.588429
0.587272
0.586124
0.584985
0.583854
0.582732
0.581618
0.580512
0.579414
0.578323
0.577241
0.576166
0.575098
0.574038
0.572985
0.571939
0.570901
0.569869
0.568844
0.567825
0.566813
0.565808
0.564809
0.563816
0.562829
0.561849
0.560875
0.559906
0.558943
0.557986
0.557035
0.556089
0.555149
0.554214
0.553284
0.55236
0.551441
0.550527
0.549618
0.548714
0.547815
0.54692
0.546031
0.545146
0.544266
0.54339
0.542519
0.541652
0.54079
0.539932
0.539079
0.538229
0.537384
0.536543
0.535706
0.534874
0.534045
0.53322
0.532399
0.531582
0.530769
0.529959
0.529154
0.528351
0.527553
0.526758
0.525966
0.525178
0.524394
0.523613
0.522835
0.52206
0.521289
0.52052
0.519755
0.518993
0.518233
0.517477
0.516723
0.515971
0.515222
0.514476
0.513732
0.51299
0.51225
0.511512
0.510777
0.510044
0.509314
0.508585
0.50786
0.507137
0.506417
0.505699
0.504985
0.504274
0.503566
0.502862
0.502161
0.501464
0.500771
0.500082
0.499396
0.498714
0.498036
0.497361
0.496689
0.49602
0.495354
0.494691
0.49403
0.493372
0.492715
0.492059
0.491406
0.490753
0.490102
0.489452
0.488804
0.488156
0.487509
0.486864
0.48622
0.485577
0.484936
0.484296
0.483657
0.48302
0.482384
0.48175
0.481117
0.480486
0.479857
0.479229
0.478604
0.477979
0.477357
0.476736
0.476117
0.475499
0.474883
0.474268
0.473655
0.473044
0.472434
0.471825
0.471218
0.470612
0.470008
0.469405
0.468803
0.468202
0.467603
0.467005
0.466408
0.465813
0.465218
0.464625
0.464033
0.463442
0.462852
0.462264
0.461676
0.461089
0.460504
0.45992
0.459336
0.458754
0.458173
0.457592
0.457013
0.456434
0.455857
0.45528
0.454705
0.45413
0.453556
0.452983
0.452411
0.45184
0.45127
0.4507
0.450131
0.449564
0.448996
0.44843
0.447864
0.447299
0.446735
0.446172
0.445609
0.445047
0.444485
0.443924
0.443364
0.442805
0.442246
0.441687
0.44113
0.440572
0.440016
0.43946
0.438904
0.438349
0.437794
0.43724
0.436687
0.436134
0.435581
0.435029
0.434477
0.433926
0.433375
0.432824
0.432274
0.431724
0.431175
0.430626
0.430077
0.429528
0.42898
0.428432
0.427884
0.427337
0.42679
0.426243
0.425696
0.425149
0.424603
0.424056
0.42351
0.422964
0.422418
0.421872
0.421326
0.42078
0.420233
0.419687
0.419141
0.418594
0.418047
0.4175
0.416953
0.416406
0.415858
0.41531
0.414762
0.414213
0.413665
0.413115
0.412566
0.412016
0.411466
0.410916
0.410366
0.409815
0.409264
0.408713
0.408162
0.40761
0.407059
0.406508
0.405956
0.405405
0.404853
0.404301
0.40375
0.403198
0.402647
0.402095
0.401543
0.400991
0.400439
0.399886
0.399334
0.39878
0.398227
0.397672
0.397117
0.396561
0.396005
0.395448
0.394889
0.39433
0.39377
0.393208
0.392645
0.392081
0.391515
0.390949
0.390381
0.389811
0.389241
0.388668
0.388095
0.38752
0.386943
0.386365
0.385785
0.385204
0.384622
0.384037
0.383452
0.382864
0.382275
0.381685
0.381092
0.380498
0.379903
0.379305
0.378706
0.378105
0.377502
0.376898
0.376291
0.375682
0.375072
0.37446
0.373845
0.373229
0.372611
0.371991
0.371368
0.370745
0.370119
0.369492
0.368863
0.368232
0.367601
0.366968
0.366335
0.365702
0.36507
0.364438
0.363808
0.363181
0.362558
0.36194
0.36133
0.360727
0.360136
0.359557
0.358993
0.358447
0.357922
0.357421
0.356945
0.356497
0.356079
0.355694
0.355341
0.355022
0.354737
0.354484
0.35426
0.354062
0.353885
0.353719
0.35355
0.353353
0.353088
0.352683
0.352017
0.350879
0.348919
0.345581
0.340079
0.331521
0.319367
0.304195
0.2881
0.27383
0.263157
0.25621
0.252111
0.249837
0.24862
0.247981
0.247649
0.247478
0.24739
0.247344
0.247321
0.247309
0.247303
0.247299
0.247298
0.247297
0.247296
0.247296
0.247296
0.247296
0.247296
0.247296
0.247296
0.247296
0.247295
0.247295
0.247295
0.247295
0.247295
0.247295
0.247295
0.247295
0.247295
0.247295
0.247295
0.247295
0.247295
0.247294
0.247294
0.247294
0.247294
0.247294
0.247294
0.247294
0.247294
0.247293
0.247293
0.247293
0.247293
0.247293
0.247292
0.247292
0.247292
0.247291
0.247291
0.24729
0.24729
0.247289
0.247289
0.247288
0.247288
0.247287
0.247286
0.247286
0.247285
0.247284
0.247283
0.247282
0.247281
0.247281
0.24728
0.247279
0.247278
0.247277
0.247276
0.247275
0.247274
0.247273
0.247272
0.247271
0.24727
0.247269
0.247268
0.247267
0.247267
0.247266
0.247265
0.247265
0.247264
0.247264
0.247263
0.247263
0.247263
0.247263
0.247263
0.247263
0.247263
0.247263
0.247263
0.247263
0.247264
0.247264
0.247265
0.247265
0.247266
0.247266
0.247267
0.247267
0.247268
0.247269
0.247269
0.24727
0.24727
0.247271
0.247272
0.247272
0.247273
0.247273
0.247274
0.247274
0.247274
0.247275
0.247275
0.247276
0.247276
0.247276
0.247276
0.247277
0.247277
0.247277
0.247277
0.247278
0.247278
0.247278
0.247278
0.247278
0.247278
0.247278
0.247279
0.247279
0.247279
0.247279
0.247279
0.247279
0.24728
0.24728
0.24728
0.24728
0.24728
0.247281
0.247281
0.247281
0.247281
0.247281
0.247282
0.247282
0.247282
0.247282
0.247282
0.247283
0.247283
0.247283
0.247283
0.247283
0.247283
0.247284
0.247284
0.247284
0.247284
0.247284
0.247284
0.247285
0.247285
0.247285
0.247285
0.247285
0.247285
0.247285
0.247286
0.247286
0.247286
0.247286
0.247286
0.247286
0.247286
0.247286
0.247286
0.247286
0.247286
0.247286
0.247286
0.247286
0.247286
0.247287
0.247287
0.247287
0.247287
0.247287
0.247287
0.247287
0.247287
0.247287
0.247287
0.247287
0.247287
0.247287
0.247287
0.247287
0.247287
0.247287
0.247287
0.247287
0.247286
0.247286
0.247286
0.247286
0.247286
0.247286
0.247286
0.247286
0.247286
0.247286
0.247286
0.247286
0.247285
0.247285
0.247285
0.247285
0.247285
0.247285
0.247285
0.247285
0.247285
0.247285
0.247286
0.247286
0.247286
0.247286
0.247286
0.247286
0.247286
0.247286
0.247286
0.247286
0.247286
0.247286
0.247286
0.247286
0.247286
0.247286
0.247286
0.247286
0.247285
0.247285
0.247285
0.247285
0.247284
0.247284
0.247284
0.247284
0.247283
0.247283
0.247283
0.247282
0.247282
0.247281
0.247281
0.24728
0.24728
0.247279
0.247279
0.247278
0.247278
0.247277
0.247277
0.247276
0.247275
0.247275
0.247274
0.247273
0.247273
0.247272
0.247271
0.247271
0.24727
0.24727
0.247269
0.247268
0.247268
0.247267
0.247267
0.247266
0.247266
0.247265
0.247265
0.247265
0.247265
0.247264
0.247264
0.247264
0.247264
0.247264
0.247264
0.247264
0.247264
0.247264
0.247265
0.247265
0.247265
0.247266
0.247266
0.247266
0.247267
0.247267
0.247268
0.247269
0.247269
0.24727
0.24727
0.247271
0.247271
0.247272
0.247273
0.247273
0.247274
0.247274
0.247275
0.247275
0.247276
0.247276
0.247276
0.247277
0.247277
0.247277
0.247278
0.247278
0.247278
0.247279
0.247279
0.247279
0.247279
0.247279
0.24728
0.24728
0.24728
0.24728
0.24728
0.24728
0.247281
0.247281
0.247281
0.247281
0.247281
0.247281
0.247282
0.247282
0.247282
0.247282
0.247282
0.247282
0.247282
0.247283
0.247283
0.247283
0.247283
0.247283
0.247283
0.247283
0.247284
0.247284
0.247284
0.247284
0.247284
0.247284
0.247284
0.247285
0.247285
0.247285
0.247285
0.247285
0.247285
0.247285
0.247286
0.247286
0.247286
0.247286
0.247286
0.247286
0.247286
0.247286
0.247286
0.247286
0.247287
0.247287
0.247287
0.247287
0.247287
0.247287
0.247287
0.247287
0.247287
0.247287
0.247287
0.247287
0.247287
0.247287
0.247287
0.247287
0.247287
0.247287
0.247287
0.247287
0.247287
0.247287
0.247287
0.247287
0.247287
0.247287
0.247287
0.247287
0.247287
0.247287
0.247287
0.247287
0.247287
0.247287
0.247287
0.247287
0.247287
0.247287
0.247286
0.247286
0.247286
0.247286
0.247286
0.247286
0.247286
0.247286
0.247286
0.247286
0.247286
0.247286
0.247286
0.247286
0.247286
0.247286
0.247286
0.247286
0.247286
0.247286
0.247285
0.247285
0.247285
0.247285
0.247285
0.247285
0.247285
0.247285
0.247284
0.247284
0.247284
0.247284
0.247283
0.247283
0.247283
0.247283
0.247282
0.247282
0.247282
0.247281
0.247281
0.247281
0.24728
0.24728
0.247279
0.247279
0.247279
0.247278
0.247278
0.247277
0.247277
0.247276
0.247276
0.247275
0.247275
0.247274
0.247274
0.247273
0.247272
0.247272
0.247271
0.247271
0.24727
0.24727
0.247269
0.247269
0.247268
0.247268
0.247268
0.247267
0.247267
0.247267
0.247266
0.247266
0.247266
0.247266
0.247266
0.247266
0.247266
0.247266
0.247266
0.247266
0.247266
0.247266
0.247266
0.247266
0.247267
0.247267
0.247267
0.247268
0.247268
0.247268
0.247269
0.247269
0.24727
)
;

boundaryField
{
    inlet
    {
        type            fixedValue;
        value           uniform 0.35;
    }
    outlet
    {
        type            zeroGradient;
    }
    emptyWalls
    {
        type            empty;
    }
}


// ************************************************************************* //
