/*--------------------------------*- C++ -*----------------------------------*\
  =========                 |
  \\      /  F ield         | OpenFOAM: The Open Source CFD Toolbox
   \\    /   O peration     | Website:  https://openfoam.org
    \\  /    A nd           | Version:  9
     \\/     M anipulation  |
\*---------------------------------------------------------------------------*/
FoamFile
{
    format      ascii;
    class       surfaceScalarField;
    location    "26250";
    object      phia;
}
// * * * * * * * * * * * * * * * * * * * * * * * * * * * * * * * * * * * * * //

dimensions      [0 2 0 0 0 0 0];

internalField   nonuniform List<scalar> 
999
(
2.74884e-10
2.74868e-10
2.74869e-10
2.74848e-10
2.74845e-10
2.74817e-10
2.74804e-10
2.74767e-10
2.74731e-10
2.74699e-10
2.74639e-10
2.74608e-10
2.7454e-10
2.74493e-10
2.74428e-10
2.74363e-10
2.74298e-10
2.7423e-10
2.74161e-10
2.74092e-10
2.74017e-10
2.73947e-10
2.73864e-10
2.73802e-10
2.73718e-10
2.73668e-10
2.73601e-10
2.7355e-10
2.7351e-10
2.73455e-10
2.73433e-10
2.73387e-10
2.73351e-10
2.73243e-10
2.72858e-10
2.71394e-10
2.63623e-10
2.25485e-10
2.15313e-10
2.12678e-10
2.11557e-10
2.10898e-10
2.10434e-10
2.10068e-10
2.09761e-10
2.09492e-10
2.09253e-10
2.09044e-10
2.08862e-10
2.087e-10
2.08546e-10
2.0839e-10
2.0823e-10
2.08073e-10
2.07935e-10
2.07826e-10
2.07749e-10
2.07695e-10
2.07636e-10
2.07545e-10
2.07421e-10
2.07291e-10
2.07154e-10
2.07036e-10
2.06939e-10
2.06897e-10
2.07081e-10
2.0735e-10
2.07689e-10
2.08071e-10
2.08458e-10
2.08809e-10
2.09093e-10
2.09292e-10
2.09405e-10
2.09447e-10
2.09454e-10
2.09454e-10
2.09428e-10
2.09228e-10
2.08871e-10
2.08446e-10
2.07992e-10
2.07536e-10
2.07103e-10
2.06709e-10
2.06367e-10
2.06079e-10
2.05848e-10
2.05668e-10
2.05535e-10
2.05442e-10
2.05381e-10
2.05346e-10
2.05329e-10
2.05322e-10
2.0532e-10
2.05317e-10
2.05312e-10
2.05301e-10
2.05285e-10
2.05265e-10
2.0524e-10
2.05212e-10
2.05178e-10
2.0514e-10
2.05097e-10
2.05051e-10
2.05003e-10
2.04954e-10
2.04904e-10
2.04854e-10
2.04804e-10
2.04755e-10
2.04706e-10
2.04658e-10
2.04611e-10
2.04565e-10
2.0452e-10
2.04476e-10
2.04433e-10
2.04391e-10
2.0435e-10
2.04311e-10
2.04273e-10
2.04237e-10
2.04202e-10
2.04168e-10
2.04136e-10
2.04105e-10
2.04076e-10
2.04048e-10
2.04021e-10
2.03995e-10
2.0397e-10
2.03946e-10
2.03924e-10
2.03902e-10
2.03882e-10
2.03864e-10
2.03847e-10
2.03833e-10
2.03821e-10
2.03811e-10
2.03802e-10
2.03795e-10
2.03788e-10
2.03781e-10
2.03775e-10
2.03768e-10
2.0376e-10
2.03753e-10
2.03746e-10
2.03739e-10
2.03735e-10
2.03733e-10
2.03733e-10
2.03735e-10
2.0374e-10
2.03747e-10
2.03754e-10
2.03762e-10
2.03769e-10
2.03774e-10
2.03777e-10
2.03777e-10
2.03774e-10
2.03767e-10
2.03759e-10
2.03751e-10
2.03747e-10
2.03752e-10
2.03768e-10
2.03801e-10
2.03853e-10
2.03927e-10
2.04024e-10
2.04145e-10
2.04286e-10
2.04447e-10
2.04625e-10
2.04816e-10
2.05017e-10
2.05223e-10
2.05431e-10
2.05635e-10
2.05831e-10
2.06014e-10
2.06177e-10
2.06316e-10
2.06426e-10
2.06501e-10
2.0654e-10
2.0654e-10
2.065e-10
2.06422e-10
2.06309e-10
2.06163e-10
2.05992e-10
2.05799e-10
2.05593e-10
2.05379e-10
2.05164e-10
2.04953e-10
2.04752e-10
2.04563e-10
2.04391e-10
2.04237e-10
2.04101e-10
2.03984e-10
2.03885e-10
2.03803e-10
2.03736e-10
2.03681e-10
2.03638e-10
2.03603e-10
2.03575e-10
2.03551e-10
2.0353e-10
2.03511e-10
2.03492e-10
2.03472e-10
2.03451e-10
2.03428e-10
2.03402e-10
2.03374e-10
2.03344e-10
2.03311e-10
2.03276e-10
2.03239e-10
2.032e-10
2.0316e-10
2.03119e-10
2.03077e-10
2.03034e-10
2.02991e-10
2.02948e-10
2.02904e-10
2.02861e-10
2.02818e-10
2.02775e-10
2.02733e-10
2.02692e-10
2.02651e-10
2.02611e-10
2.02572e-10
2.02533e-10
2.02496e-10
2.02459e-10
2.02424e-10
2.02389e-10
2.02355e-10
2.02323e-10
2.02291e-10
2.0226e-10
2.0223e-10
2.02201e-10
2.02173e-10
2.02146e-10
2.0212e-10
2.02095e-10
2.02071e-10
2.02049e-10
2.02027e-10
2.02007e-10
2.01988e-10
2.01969e-10
2.01953e-10
2.01937e-10
2.01922e-10
2.01908e-10
2.01894e-10
2.01882e-10
2.0187e-10
2.01858e-10
2.01847e-10
2.01837e-10
2.01827e-10
2.01818e-10
2.0181e-10
2.01803e-10
2.01796e-10
2.01791e-10
2.01786e-10
2.01783e-10
2.0178e-10
2.01778e-10
2.01776e-10
2.01775e-10
2.01773e-10
2.01771e-10
2.01768e-10
2.01765e-10
2.01762e-10
2.01758e-10
2.01755e-10
2.01754e-10
2.01754e-10
2.01758e-10
2.01766e-10
2.01779e-10
2.018e-10
2.01828e-10
2.01866e-10
2.01913e-10
2.01971e-10
2.0204e-10
2.02121e-10
2.02212e-10
2.02315e-10
2.02427e-10
2.02548e-10
2.02677e-10
2.02811e-10
2.0295e-10
2.03091e-10
2.03232e-10
2.03371e-10
2.03504e-10
2.03629e-10
2.03744e-10
2.03846e-10
2.03933e-10
2.04003e-10
2.04054e-10
2.04085e-10
2.04094e-10
2.04082e-10
2.04049e-10
2.03995e-10
2.03922e-10
2.03831e-10
2.03724e-10
2.03604e-10
2.03473e-10
2.03335e-10
2.03191e-10
2.03045e-10
2.02899e-10
2.02755e-10
2.02616e-10
2.02483e-10
2.02356e-10
2.02238e-10
2.02129e-10
2.02029e-10
2.01939e-10
2.01857e-10
2.01783e-10
2.01717e-10
2.01659e-10
2.01607e-10
2.0156e-10
2.01518e-10
2.01479e-10
2.01444e-10
2.01411e-10
2.01379e-10
2.01349e-10
2.01319e-10
2.01289e-10
2.01259e-10
2.01228e-10
2.01197e-10
2.01164e-10
2.01131e-10
2.01097e-10
2.01062e-10
2.01026e-10
2.00989e-10
2.00951e-10
2.00913e-10
2.00874e-10
2.00835e-10
2.00795e-10
2.00755e-10
2.00715e-10
2.00675e-10
2.00635e-10
2.00595e-10
2.00556e-10
2.00517e-10
2.00478e-10
2.0044e-10
2.00403e-10
2.00366e-10
2.00329e-10
2.00293e-10
2.00258e-10
2.00224e-10
2.00191e-10
2.00158e-10
2.00126e-10
2.00094e-10
2.00064e-10
2.00034e-10
2.00005e-10
1.99978e-10
1.9995e-10
1.99924e-10
1.99899e-10
1.99875e-10
1.99851e-10
1.99829e-10
1.99807e-10
1.99786e-10
1.99767e-10
1.99748e-10
1.99729e-10
1.99712e-10
1.99695e-10
1.9968e-10
1.99664e-10
1.9965e-10
1.99636e-10
1.99623e-10
1.99611e-10
1.99599e-10
1.99588e-10
1.99578e-10
1.99568e-10
1.99559e-10
1.99551e-10
1.99543e-10
1.99536e-10
1.9953e-10
1.99523e-10
1.99518e-10
1.99512e-10
1.99507e-10
1.99502e-10
1.99498e-10
1.99493e-10
1.99489e-10
1.99486e-10
1.99483e-10
1.99481e-10
1.9948e-10
1.9948e-10
1.99483e-10
1.99487e-10
1.99495e-10
1.99506e-10
1.99521e-10
1.9954e-10
1.99564e-10
1.99594e-10
1.99629e-10
1.99671e-10
1.99719e-10
1.99773e-10
1.99834e-10
1.99901e-10
1.99975e-10
2.00055e-10
2.0014e-10
2.0023e-10
2.00324e-10
2.00421e-10
2.00521e-10
2.00621e-10
2.00722e-10
2.00822e-10
2.00919e-10
2.01012e-10
2.01099e-10
2.01181e-10
2.01254e-10
2.01319e-10
2.01373e-10
2.01416e-10
2.01448e-10
2.01467e-10
2.01473e-10
2.01465e-10
2.01445e-10
2.01412e-10
2.01366e-10
2.01309e-10
2.01241e-10
2.01162e-10
2.01076e-10
2.00981e-10
2.00881e-10
2.00776e-10
2.00668e-10
2.00558e-10
2.00447e-10
2.00337e-10
2.00229e-10
2.00123e-10
2.0002e-10
1.99921e-10
1.99827e-10
1.99738e-10
1.99654e-10
1.99575e-10
1.99501e-10
1.99432e-10
1.99368e-10
1.99308e-10
1.99253e-10
1.99201e-10
1.99153e-10
1.99108e-10
1.99066e-10
1.99025e-10
1.98987e-10
1.9895e-10
1.98914e-10
1.98879e-10
1.98845e-10
1.98811e-10
1.98778e-10
1.98744e-10
1.9871e-10
1.98676e-10
1.98642e-10
1.98608e-10
1.98573e-10
1.98538e-10
1.98502e-10
1.98466e-10
1.9843e-10
1.98393e-10
1.98357e-10
1.9832e-10
1.98283e-10
1.98246e-10
1.98209e-10
1.98172e-10
1.98136e-10
1.98099e-10
1.98063e-10
1.98027e-10
1.97991e-10
1.97956e-10
1.97921e-10
1.97887e-10
1.97853e-10
1.9782e-10
1.97787e-10
1.97755e-10
1.97724e-10
1.97693e-10
1.97663e-10
1.97633e-10
1.97605e-10
1.97576e-10
1.97549e-10
1.97522e-10
1.97496e-10
1.97471e-10
1.97447e-10
1.97423e-10
1.974e-10
1.97378e-10
1.97356e-10
1.97335e-10
1.97315e-10
1.97296e-10
1.97277e-10
1.97259e-10
1.97242e-10
1.97225e-10
1.97209e-10
1.97194e-10
1.97179e-10
1.97165e-10
1.97151e-10
1.97138e-10
1.97126e-10
1.97114e-10
1.97103e-10
1.97092e-10
1.97082e-10
1.97072e-10
1.97062e-10
1.97053e-10
1.97045e-10
1.97037e-10
1.97029e-10
1.97022e-10
1.97015e-10
1.97008e-10
1.97002e-10
1.96996e-10
1.96991e-10
1.96986e-10
1.96983e-10
1.9698e-10
1.96978e-10
1.96978e-10
1.96979e-10
1.96981e-10
1.96986e-10
1.96993e-10
1.97002e-10
1.97014e-10
1.97029e-10
1.97047e-10
1.97069e-10
1.97094e-10
1.97123e-10
1.97156e-10
1.97194e-10
1.97235e-10
1.97281e-10
1.97331e-10
1.97385e-10
1.97442e-10
1.97503e-10
1.97568e-10
1.97635e-10
1.97705e-10
1.97777e-10
1.9785e-10
1.97924e-10
1.97999e-10
1.98072e-10
1.98145e-10
1.98216e-10
1.98283e-10
1.98348e-10
1.98408e-10
1.98463e-10
1.98513e-10
1.98556e-10
1.98593e-10
1.98622e-10
1.98644e-10
1.98657e-10
1.98661e-10
1.98657e-10
1.98645e-10
1.98624e-10
1.98594e-10
1.98556e-10
1.9851e-10
1.98457e-10
1.98397e-10
1.98331e-10
1.9826e-10
1.98183e-10
1.98103e-10
1.98019e-10
1.97933e-10
1.97846e-10
1.97757e-10
1.97668e-10
1.97579e-10
1.97492e-10
1.97406e-10
1.97321e-10
1.9724e-10
1.9716e-10
1.97084e-10
1.9701e-10
1.9694e-10
1.96873e-10
1.96809e-10
1.96748e-10
1.9669e-10
1.96635e-10
1.96583e-10
1.96533e-10
1.96486e-10
1.9644e-10
1.96397e-10
1.96355e-10
1.96315e-10
1.96276e-10
1.96238e-10
1.96201e-10
1.96164e-10
1.96128e-10
1.96093e-10
1.96058e-10
1.96024e-10
1.95989e-10
1.95954e-10
1.9592e-10
1.95885e-10
1.95851e-10
1.95816e-10
1.95781e-10
1.95746e-10
1.95711e-10
1.95676e-10
1.95641e-10
1.95606e-10
1.9557e-10
1.95535e-10
1.955e-10
1.95465e-10
1.9543e-10
1.95395e-10
1.9536e-10
1.95326e-10
1.95292e-10
1.95258e-10
1.95224e-10
1.95191e-10
1.95158e-10
1.95126e-10
1.95094e-10
1.95062e-10
1.95031e-10
1.95001e-10
1.94971e-10
1.94941e-10
1.94912e-10
1.94884e-10
1.94856e-10
1.94829e-10
1.94802e-10
1.94776e-10
1.9475e-10
1.94726e-10
1.94701e-10
1.94678e-10
1.94654e-10
1.94632e-10
1.9461e-10
1.94589e-10
1.94568e-10
1.94548e-10
1.94529e-10
1.9451e-10
1.94491e-10
1.94474e-10
1.94456e-10
1.9444e-10
1.94423e-10
1.94408e-10
1.94392e-10
1.94378e-10
1.94363e-10
1.9435e-10
1.94336e-10
1.94323e-10
1.94311e-10
1.94299e-10
1.94287e-10
1.94276e-10
1.94265e-10
1.94255e-10
1.94244e-10
1.94235e-10
1.94226e-10
1.94217e-10
1.94209e-10
1.94201e-10
1.94194e-10
1.94188e-10
1.94183e-10
1.94178e-10
1.94175e-10
1.94172e-10
1.94171e-10
1.94171e-10
1.94173e-10
1.94176e-10
1.94181e-10
1.94189e-10
1.94198e-10
1.94209e-10
1.94223e-10
1.94239e-10
1.94258e-10
1.9428e-10
1.94304e-10
1.94332e-10
1.94362e-10
1.94395e-10
1.9443e-10
1.94469e-10
1.9451e-10
1.94554e-10
1.946e-10
1.94649e-10
1.94699e-10
1.94751e-10
1.94804e-10
1.94859e-10
1.94914e-10
1.9497e-10
1.95026e-10
1.95081e-10
1.95136e-10
1.95189e-10
1.95241e-10
1.9529e-10
1.95337e-10
1.9538e-10
1.95421e-10
1.95457e-10
1.95489e-10
1.95516e-10
1.95538e-10
1.95555e-10
1.95567e-10
1.95572e-10
1.95572e-10
1.95565e-10
1.95553e-10
1.95535e-10
1.95511e-10
1.9548e-10
1.95445e-10
1.95403e-10
1.95358e-10
1.95306e-10
1.95251e-10
1.95191e-10
1.95129e-10
1.95062e-10
1.94994e-10
1.94922e-10
1.9485e-10
1.94775e-10
1.94701e-10
1.94625e-10
1.9455e-10
1.94475e-10
1.94401e-10
1.94327e-10
1.94255e-10
1.94184e-10
1.94115e-10
1.94048e-10
1.93982e-10
1.93919e-10
1.93857e-10
1.93798e-10
1.93741e-10
1.93685e-10
1.93632e-10
1.9358e-10
1.9353e-10
1.93482e-10
1.93435e-10
1.9339e-10
1.93346e-10
1.93303e-10
1.93261e-10
1.93221e-10
1.9318e-10
1.93142e-10
1.93103e-10
1.93065e-10
1.93027e-10
1.92991e-10
1.92953e-10
1.92917e-10
1.9288e-10
1.92845e-10
1.92808e-10
1.92773e-10
1.92736e-10
1.92701e-10
1.92664e-10
1.92629e-10
1.92592e-10
1.92557e-10
1.92521e-10
1.92486e-10
1.92449e-10
1.92415e-10
1.92378e-10
1.92344e-10
1.92308e-10
1.92273e-10
1.92238e-10
1.92204e-10
1.92169e-10
1.92135e-10
1.92101e-10
1.92068e-10
1.92035e-10
1.92002e-10
1.91969e-10
1.91937e-10
1.91906e-10
1.91874e-10
1.91844e-10
1.91813e-10
1.91783e-10
1.91754e-10
1.91725e-10
1.91697e-10
1.91669e-10
1.91641e-10
1.91614e-10
1.91588e-10
1.91562e-10
1.91536e-10
1.91511e-10
1.91487e-10
1.91463e-10
1.9144e-10
1.91417e-10
1.91395e-10
1.91373e-10
1.91352e-10
1.91331e-10
1.91311e-10
1.91291e-10
1.91271e-10
1.91252e-10
1.91234e-10
1.91216e-10
1.91198e-10
1.91181e-10
1.91164e-10
1.91148e-10
1.91132e-10
1.91116e-10
1.91101e-10
1.91087e-10
1.91072e-10
1.91058e-10
1.91045e-10
1.91032e-10
1.91019e-10
1.91007e-10
1.90995e-10
1.90984e-10
1.90973e-10
1.90963e-10
1.90953e-10
1.90944e-10
1.90936e-10
1.90928e-10
1.90922e-10
1.90916e-10
1.90911e-10
1.90908e-10
1.90905e-10
1.90904e-10
1.90904e-10
1.90905e-10
1.90908e-10
1.90913e-10
1.90919e-10
1.90927e-10
1.90936e-10
1.90948e-10
1.90961e-10
1.90976e-10
1.90993e-10
1.91013e-10
1.91034e-10
1.91057e-10
1.91082e-10
1.91109e-10
1.91138e-10
1.91169e-10
1.91201e-10
1.91235e-10
1.91271e-10
1.91307e-10
1.91345e-10
1.91383e-10
1.91423e-10
1.91462e-10
1.91502e-10
1.91541e-10
1.91581e-10
1.9162e-10
1.91659e-10
1.91697e-10
1.91733e-10
1.91768e-10
1.91801e-10
1.91833e-10
1.91862e-10
1.91889e-10
1.91911e-10
1.91933e-10
1.91949e-10
1.91963e-10
1.91972e-10
1.91979e-10
1.91979e-10
1.91978e-10
1.9197e-10
1.91961e-10
1.91944e-10
1.91926e-10
1.91901e-10
1.91874e-10
1.91841e-10
1.91806e-10
1.91766e-10
1.91724e-10
1.91677e-10
1.91629e-10
1.91577e-10
)
;

boundaryField
{
    inlet
    {
        type            calculated;
        value           uniform -2.74882e-10;
    }
    outlet
    {
        type            calculated;
        value           uniform 2.81631e-11;
    }
    emptyWalls
    {
        type            empty;
        value           nonuniform List<scalar> 0();
    }
}


// ************************************************************************* //
