/*--------------------------------*- C++ -*----------------------------------*\
  =========                 |
  \\      /  F ield         | OpenFOAM: The Open Source CFD Toolbox
   \\    /   O peration     | Website:  https://openfoam.org
    \\  /    A nd           | Version:  9
     \\/     M anipulation  |
\*---------------------------------------------------------------------------*/
FoamFile
{
    format      ascii;
    class       volScalarField;
    location    "16500";
    object      p;
}
// * * * * * * * * * * * * * * * * * * * * * * * * * * * * * * * * * * * * * //

dimensions      [0 0 0 0 0 0 0];

internalField   nonuniform List<scalar> 
1000
(
206080
205655
205233
204814
204398
203985
203575
203167
202763
202362
201963
201567
201174
200783
200394
200008
199623
199240
198858
198478
198100
197731
197389
197142
197025
196933
196846
196760
196676
196592
196508
196425
196342
196259
196176
196094
196012
195930
195848
195766
195684
195602
195520
195439
195357
195275
195194
195112
195031
194949
194868
194787
194705
194624
194542
194460
194379
194297
194215
194133
194051
193969
193886
193804
193721
193637
193554
193470
193385
193301
193216
193130
193044
192958
192871
192785
192697
192610
192521
192433
192344
192255
192165
192075
191985
191895
191803
191712
191620
191528
191436
191343
191249
191156
191062
190968
190873
190778
190682
190587
190491
190394
190297
190200
190103
190005
189907
189808
189709
189610
189510
189410
189310
189210
189109
189007
188906
188804
188701
188599
188496
188393
188289
188185
188081
187976
187871
187766
187661
187555
187448
187342
187235
187128
187020
186913
186805
186696
186587
186478
186369
186259
186149
186039
185928
185817
185706
185595
185483
185370
185258
185145
185032
184919
184805
184691
184577
184462
184347
184232
184117
184001
183885
183768
183652
183535
183418
183300
183182
183064
182946
182827
182708
182589
182470
182350
182230
182110
181989
181868
181747
181626
181504
181382
181259
181137
181014
180890
180767
180643
180519
180394
180269
180144
180019
179893
179767
179641
179515
179388
179261
179133
179006
178878
178749
178621
178492
178363
178234
178104
177974
177844
177714
177583
177452
177321
177189
177058
176925
176793
176660
176528
176394
176261
176127
175993
175859
175724
175590
175454
175319
175183
175048
174911
174775
174638
174501
174364
174227
174089
173951
173812
173674
173535
173396
173256
173117
172977
172837
172696
172556
172415
172273
172132
171990
171848
171706
171563
171420
171277
171134
170990
170847
170703
170558
170414
170269
170124
169978
169833
169687
169540
169394
169247
169100
168953
168806
168658
168510
168362
168214
168065
167916
167767
167617
167467
167318
167167
167017
166866
166715
166564
166412
166261
166109
165957
165804
165651
165498
165345
165192
165038
164884
164730
164575
164421
164266
164111
163955
163800
163644
163488
163331
163175
163018
162861
162704
162546
162389
162231
162072
161914
161755
161596
161437
161278
161118
160958
160798
160638
160477
160316
160155
159994
159832
159670
159508
159345
159183
159020
158856
158693
158529
158365
158201
158036
157872
157707
157541
157376
157210
157044
156878
156711
156545
156378
156211
156043
155875
155707
155539
155371
155202
155033
154864
154695
154525
154355
154185
154015
153844
153673
153502
153331
153159
152987
152815
152643
152470
152298
152125
151951
151778
151604
151430
151256
151081
150907
150732
150556
150381
150205
150029
149853
149677
149500
149323
149146
148969
148791
148613
148435
148257
148078
147899
147720
147541
147362
147182
147002
146822
146641
146460
146279
146098
145917
145735
145553
145371
145189
145006
144823
144640
144457
144273
144089
143905
143721
143536
143352
143167
142981
142796
142610
142424
142238
142052
141865
141678
141491
141303
141116
140928
140740
140552
140363
140174
139985
139796
139606
139417
139227
139037
138846
138655
138465
138273
138082
137890
137699
137506
137314
137122
136929
136736
136543
136349
136155
135961
135767
135573
135378
135183
134988
134793
134598
134402
134206
134010
133813
133617
133420
133223
133025
132828
132630
132432
132234
132035
131837
131638
131438
131239
131039
130839
130639
130439
130238
130037
129836
129635
129433
129231
129029
128827
128624
128421
128218
128014
127811
127607
127403
127198
126993
126789
126583
126378
126172
125966
125760
125553
125347
125140
124933
124725
124517
124309
124101
123893
123684
123475
123266
123056
122847
122637
122427
122216
122005
121795
121583
121372
121160
120948
120736
120524
120311
120098
119885
119671
119458
119244
119029
118815
118600
118385
118170
117954
117739
117523
117306
117090
116873
116656
116439
116221
116003
115785
115567
115348
115129
114910
114691
114471
114251
114031
113811
113590
113369
113148
112926
112705
112483
112260
112038
111815
111592
111369
111145
110921
110697
110472
110248
110023
109798
109572
109346
109120
108894
108667
108441
108214
107986
107758
107531
107302
107074
106845
106616
106387
106157
105927
105697
105467
105236
105005
104774
104542
104311
104079
103846
103614
103381
103148
102915
102681
102447
102213
101979
101744
101509
101274
101039
100804
100568
100332
100096
99860.3
99624.1
99387.8
99151.4
98914.8
98678.2
98441.5
98204.7
97967.9
97731
97494.1
97257.2
97020.3
96783.3
96546.3
96309.3
96072.2
95835.1
95598
95360.6
95123.1
94885
94646.1
94405.7
94162.8
93916.2
93664.3
93406
93141.1
92870.8
92597.2
92321.6
92045.1
91768.2
91491.1
91213.8
90936.6
90659.3
90382
90104.7
89827.4
89550.1
89272.8
88995.4
88718.1
88440.8
88163.5
87886.2
87608.9
87331.5
87054.2
86776.8
86499.5
86222.1
85944.7
85667.3
85389.9
85112.5
84835.1
84557.6
84280.2
84002.7
83725.2
83447.7
83170.2
82892.7
82615.1
82337.6
82060
81782.4
81504.9
81227.3
80949.7
80672.1
80394.4
80116.8
79839.2
79561.5
79283.9
79006.2
78728.6
78450.9
78173.3
77895.6
77617.9
77340.2
77062.5
76784.9
76507.2
76229.5
75951.8
75674.1
75396.4
75118.7
74841
74563.3
74285.6
74007.8
73730.1
73452.4
73174.7
72897
72619.2
72341.5
72063.8
71786
71508.3
71230.6
70952.8
70675.1
70397.3
70119.6
69841.8
69564.1
69286.3
69008.5
68730.8
68453
68175.2
67897.4
67619.7
67341.9
67064.1
66786.3
66508.5
66230.7
65952.9
65675.1
65397.3
65119.5
64841.7
64563.9
64286.1
64008.3
63730.5
63452.6
63174.8
62897
62619.2
62341.3
62063.5
61785.7
61507.9
61230
60952.2
60674.4
60396.5
60118.7
59840.8
59563
59285.2
59007.3
58729.5
58451.6
58173.8
57895.9
57618.1
57340.3
57062.4
56784.6
56506.7
56228.9
55951
55673.2
55395.4
55117.5
54839.7
54561.8
54284
54006.1
53728.3
53450.5
53172.6
52894.8
52617
52339.1
52061.3
51783.5
51505.6
51227.8
50950
50672.2
50394.3
50116.5
49838.7
49560.9
49283.1
49005.2
48727.4
48449.6
48171.8
47894
47616.2
47338.4
47060.6
46782.8
46505
46227.3
45949.5
45671.7
45393.9
45116.2
44838.4
44560.6
44282.9
44005.1
43727.4
43449.7
43171.9
42894.2
42616.5
42338.8
42061.1
41783.4
41505.8
41228.1
40950.4
40672.8
40395.1
40117.5
39839.9
39562.3
39284.7
39007.1
38729.6
38452
38174.5
37897
37619.4
37341.9
37064.4
36787
36509.5
36232.1
35954.6
35677.2
35399.8
35122.4
34845
34567.6
34290.2
34012.8
33735.5
33458.1
33180.8
32903.4
32626.1
32348.7
32071.4
31794.1
31516.7
31239.4
30962
30684.7
30407.3
30130
29852.6
29575.3
29297.9
29020.5
28743.1
28465.7
28188.3
27910.9
27633.4
27356
27078.5
26801.1
26523.6
26246.1
25968.6
25691.1
25413.6
25136
24858.5
24580.9
24303.3
24025.8
23748.2
23470.6
23193
22915.3
22637.7
22360.1
22082.5
21804.8
21527.2
21249.5
20971.8
20694.2
20416.5
20138.8
19861.1
19583.4
19305.8
19028.1
18750.4
18472.7
18195
17917.2
17639.5
17361.8
17084.1
16806.4
16528.7
16250.9
15973.2
15695.5
15417.7
15140
14862.3
14584.5
14306.8
14029
13751.3
13473.5
13195.8
12918
12640.3
12362.5
12084.7
11807
11529.2
11251.4
10973.7
10695.9
10418.1
10140.3
9862.53
9584.75
9306.96
9029.16
8751.37
8473.57
8195.77
7917.97
7640.17
7362.36
7084.56
6806.75
6528.94
6251.12
5973.31
5695.49
5417.67
5139.85
4862.03
4584.21
4306.39
4028.56
3750.74
3472.91
3195.08
2917.25
2639.42
2361.59
2083.76
1805.92
1528.09
1250.26
972.422
694.587
416.752
138.918
)
;

boundaryField
{
    inlet
    {
        type            darcyGradPressure;
        gradient        uniform 116344;
        Mf              Mf;
        phi             phi;
        value           uniform 206293;
    }
    outlet
    {
        type            fixedValue;
        value           uniform 0;
    }
    emptyWalls
    {
        type            empty;
    }
}


// ************************************************************************* //
