/*--------------------------------*- C++ -*----------------------------------*\
  =========                 |
  \\      /  F ield         | OpenFOAM: The Open Source CFD Toolbox
   \\    /   O peration     | Website:  https://openfoam.org
    \\  /    A nd           | Version:  9
     \\/     M anipulation  |
\*---------------------------------------------------------------------------*/
FoamFile
{
    format      ascii;
    class       surfaceScalarField;
    location    "16500";
    object      phia;
}
// * * * * * * * * * * * * * * * * * * * * * * * * * * * * * * * * * * * * * //

dimensions      [0 2 0 0 0 0 0];

internalField   nonuniform List<scalar> 
999
(
2.74877e-10
2.74851e-10
2.74822e-10
2.74785e-10
2.74736e-10
2.74696e-10
2.74624e-10
2.74577e-10
2.74465e-10
2.74404e-10
2.74273e-10
2.74184e-10
2.74081e-10
2.73957e-10
2.73887e-10
2.7376e-10
2.73695e-10
2.73601e-10
2.73528e-10
2.73377e-10
2.72858e-10
2.70915e-10
2.60239e-10
2.22499e-10
2.14316e-10
2.12058e-10
2.11009e-10
2.10356e-10
2.0988e-10
2.09495e-10
2.0916e-10
2.08854e-10
2.08574e-10
2.08326e-10
2.08117e-10
2.07947e-10
2.07799e-10
2.07656e-10
2.07503e-10
2.07341e-10
2.07193e-10
2.07097e-10
2.07093e-10
2.07207e-10
2.07445e-10
2.07784e-10
2.08165e-10
2.08546e-10
2.08859e-10
2.09065e-10
2.0917e-10
2.0923e-10
2.09284e-10
2.09321e-10
2.09246e-10
2.09021e-10
2.08676e-10
2.08241e-10
2.07751e-10
2.07241e-10
2.06741e-10
2.06278e-10
2.05872e-10
2.05536e-10
2.05273e-10
2.05075e-10
2.04936e-10
2.0485e-10
2.04809e-10
2.04802e-10
2.0482e-10
2.04852e-10
2.0489e-10
2.04928e-10
2.04958e-10
2.0498e-10
2.0499e-10
2.04988e-10
2.04975e-10
2.04951e-10
2.04919e-10
2.04879e-10
2.04833e-10
2.04783e-10
2.0473e-10
2.04674e-10
2.04617e-10
2.04559e-10
2.045e-10
2.04441e-10
2.04383e-10
2.04325e-10
2.04268e-10
2.04211e-10
2.04155e-10
2.04099e-10
2.04045e-10
2.03992e-10
2.0394e-10
2.03888e-10
2.03838e-10
2.03789e-10
2.03741e-10
2.03694e-10
2.03648e-10
2.03604e-10
2.0356e-10
2.03517e-10
2.03476e-10
2.03436e-10
2.03397e-10
2.03359e-10
2.03323e-10
2.03288e-10
2.03254e-10
2.03221e-10
2.0319e-10
2.03159e-10
2.0313e-10
2.03102e-10
2.03076e-10
2.03051e-10
2.03027e-10
2.03004e-10
2.02983e-10
2.02964e-10
2.02946e-10
2.0293e-10
2.02916e-10
2.02903e-10
2.02892e-10
2.02881e-10
2.02871e-10
2.02861e-10
2.02852e-10
2.02842e-10
2.02833e-10
2.02823e-10
2.02814e-10
2.02805e-10
2.02797e-10
2.02791e-10
2.02786e-10
2.02782e-10
2.0278e-10
2.02779e-10
2.02778e-10
2.02777e-10
2.02775e-10
2.02772e-10
2.02767e-10
2.02762e-10
2.02758e-10
2.02758e-10
2.02764e-10
2.02779e-10
2.02807e-10
2.02849e-10
2.02909e-10
2.02987e-10
2.03085e-10
2.03203e-10
2.03339e-10
2.03493e-10
2.03661e-10
2.03842e-10
2.04033e-10
2.04228e-10
2.04424e-10
2.04616e-10
2.04799e-10
2.04967e-10
2.05115e-10
2.05237e-10
2.05329e-10
2.05386e-10
2.05405e-10
2.05384e-10
2.05323e-10
2.05223e-10
2.05086e-10
2.04916e-10
2.04718e-10
2.04499e-10
2.04265e-10
2.04023e-10
2.03778e-10
2.03538e-10
2.03308e-10
2.03091e-10
2.02892e-10
2.02712e-10
2.02553e-10
2.02414e-10
2.02297e-10
2.02198e-10
2.02117e-10
2.02052e-10
2.02e-10
2.01959e-10
2.01926e-10
2.019e-10
2.01878e-10
2.01859e-10
2.01841e-10
2.01823e-10
2.01804e-10
2.01782e-10
2.01758e-10
2.01731e-10
2.01702e-10
2.01669e-10
2.01633e-10
2.01594e-10
2.01552e-10
2.01509e-10
2.01463e-10
2.01415e-10
2.01366e-10
2.01316e-10
2.01265e-10
2.01213e-10
2.0116e-10
2.01108e-10
2.01055e-10
2.01003e-10
2.0095e-10
2.00898e-10
2.00847e-10
2.00795e-10
2.00745e-10
2.00695e-10
2.00645e-10
2.00597e-10
2.00549e-10
2.00502e-10
2.00456e-10
2.0041e-10
2.00365e-10
2.00322e-10
2.00279e-10
2.00237e-10
2.00196e-10
2.00156e-10
2.00116e-10
2.00078e-10
2.00041e-10
2.00004e-10
1.99969e-10
1.99934e-10
1.99901e-10
1.99868e-10
1.99837e-10
1.99806e-10
1.99776e-10
1.99748e-10
1.9972e-10
1.99694e-10
1.99668e-10
1.99643e-10
1.9962e-10
1.99597e-10
1.99576e-10
1.99555e-10
1.99535e-10
1.99517e-10
1.99499e-10
1.99482e-10
1.99465e-10
1.9945e-10
1.99435e-10
1.9942e-10
1.99406e-10
1.99392e-10
1.99379e-10
1.99366e-10
1.99354e-10
1.99342e-10
1.9933e-10
1.99319e-10
1.99309e-10
1.99299e-10
1.99289e-10
1.9928e-10
1.99271e-10
1.99262e-10
1.99254e-10
1.99246e-10
1.99238e-10
1.99231e-10
1.99225e-10
1.9922e-10
1.99217e-10
1.99217e-10
1.9922e-10
1.99226e-10
1.99238e-10
1.99254e-10
1.99278e-10
1.99308e-10
1.99346e-10
1.99392e-10
1.99447e-10
1.99511e-10
1.99584e-10
1.99666e-10
1.99756e-10
1.99854e-10
1.99958e-10
2.00069e-10
2.00184e-10
2.00302e-10
2.00421e-10
2.0054e-10
2.00656e-10
2.00767e-10
2.00872e-10
2.00967e-10
2.0105e-10
2.01121e-10
2.01176e-10
2.01214e-10
2.01234e-10
2.01235e-10
2.01215e-10
2.01176e-10
2.01117e-10
2.01039e-10
2.00943e-10
2.00831e-10
2.00704e-10
2.00565e-10
2.00415e-10
2.00259e-10
2.00097e-10
1.99934e-10
1.9977e-10
1.99608e-10
1.99451e-10
1.99299e-10
1.99154e-10
1.99018e-10
1.9889e-10
1.98772e-10
1.98664e-10
1.98565e-10
1.98475e-10
1.98395e-10
1.98322e-10
1.98257e-10
1.98198e-10
1.98146e-10
1.98098e-10
1.98055e-10
1.98015e-10
1.97978e-10
1.97943e-10
1.97909e-10
1.97876e-10
1.97844e-10
1.97811e-10
1.97778e-10
1.97744e-10
1.9771e-10
1.97674e-10
1.97638e-10
1.976e-10
1.9756e-10
1.9752e-10
1.97479e-10
1.97436e-10
1.97393e-10
1.97349e-10
1.97304e-10
1.97258e-10
1.97212e-10
1.97165e-10
1.97118e-10
1.97071e-10
1.97023e-10
1.96976e-10
1.96928e-10
1.96881e-10
1.96834e-10
1.96787e-10
1.96741e-10
1.96695e-10
1.96649e-10
1.96603e-10
1.96559e-10
1.96514e-10
1.9647e-10
1.96427e-10
1.96384e-10
1.96342e-10
1.96301e-10
1.9626e-10
1.9622e-10
1.9618e-10
1.96141e-10
1.96103e-10
1.96065e-10
1.96029e-10
1.95992e-10
1.95957e-10
1.95922e-10
1.95888e-10
1.95855e-10
1.95822e-10
1.9579e-10
1.95759e-10
1.95728e-10
1.95698e-10
1.95669e-10
1.95641e-10
1.95613e-10
1.95586e-10
1.9556e-10
1.95534e-10
1.95509e-10
1.95485e-10
1.95461e-10
1.95438e-10
1.95416e-10
1.95394e-10
1.95373e-10
1.95352e-10
1.95332e-10
1.95312e-10
1.95293e-10
1.95274e-10
1.95255e-10
1.95237e-10
1.95219e-10
1.95202e-10
1.95185e-10
1.95168e-10
1.95152e-10
1.95136e-10
1.9512e-10
1.95105e-10
1.9509e-10
1.95075e-10
1.95061e-10
1.95047e-10
1.95033e-10
1.95021e-10
1.95008e-10
1.94997e-10
1.94987e-10
1.94977e-10
1.94969e-10
1.94963e-10
1.94959e-10
1.94957e-10
1.94957e-10
1.9496e-10
1.94966e-10
1.94976e-10
1.94989e-10
1.95006e-10
1.95028e-10
1.95054e-10
1.95086e-10
1.95121e-10
1.95162e-10
1.95208e-10
1.95259e-10
1.95314e-10
1.95374e-10
1.95438e-10
1.95505e-10
1.95576e-10
1.9565e-10
1.95725e-10
1.95802e-10
1.95878e-10
1.95955e-10
1.9603e-10
1.96102e-10
1.96171e-10
1.96236e-10
1.96295e-10
1.96347e-10
1.96392e-10
1.96429e-10
1.96457e-10
1.96475e-10
1.96482e-10
1.96479e-10
1.96464e-10
1.96438e-10
1.96401e-10
1.96352e-10
1.96292e-10
1.96222e-10
1.96142e-10
1.96053e-10
1.95956e-10
1.95852e-10
1.95742e-10
1.95627e-10
1.95508e-10
1.95386e-10
1.95263e-10
1.9514e-10
1.95018e-10
1.94897e-10
1.94778e-10
1.94663e-10
1.94551e-10
1.94444e-10
1.94341e-10
1.94243e-10
1.9415e-10
1.94062e-10
1.9398e-10
1.93902e-10
1.93829e-10
1.93761e-10
1.93697e-10
1.93636e-10
1.9358e-10
1.93526e-10
1.93476e-10
1.93428e-10
1.93382e-10
1.93337e-10
1.93295e-10
1.93253e-10
1.93212e-10
1.93172e-10
1.93133e-10
1.93093e-10
1.93054e-10
1.93014e-10
1.92974e-10
1.92934e-10
1.92893e-10
1.92852e-10
1.9281e-10
1.92768e-10
1.92725e-10
1.92681e-10
1.92638e-10
1.92593e-10
1.92548e-10
1.92503e-10
1.92457e-10
1.92411e-10
1.92365e-10
1.92318e-10
1.92271e-10
1.92224e-10
1.92177e-10
1.9213e-10
1.92083e-10
1.92036e-10
1.91988e-10
1.91942e-10
1.91895e-10
1.91848e-10
1.91802e-10
1.91756e-10
1.9171e-10
1.91664e-10
1.91619e-10
1.91574e-10
1.9153e-10
1.91485e-10
1.91442e-10
1.91398e-10
1.91355e-10
1.91313e-10
1.91271e-10
1.91229e-10
1.91188e-10
1.91148e-10
1.91107e-10
1.91068e-10
1.91029e-10
1.9099e-10
1.90952e-10
1.90914e-10
1.90877e-10
1.9084e-10
1.90804e-10
1.90768e-10
1.90733e-10
1.90698e-10
1.90664e-10
1.9063e-10
1.90597e-10
1.90564e-10
1.90532e-10
1.905e-10
1.90469e-10
1.90438e-10
1.90408e-10
1.90378e-10
1.90349e-10
1.9032e-10
1.90291e-10
1.90263e-10
1.90235e-10
1.90208e-10
1.9018e-10
1.90154e-10
1.90128e-10
1.90102e-10
1.90076e-10
1.90051e-10
1.90027e-10
1.90002e-10
1.89979e-10
1.89955e-10
1.89933e-10
1.8991e-10
1.89888e-10
1.89867e-10
1.89847e-10
1.89828e-10
1.89809e-10
1.89791e-10
1.89775e-10
1.8976e-10
1.89747e-10
1.89734e-10
1.89725e-10
1.89717e-10
1.8971e-10
1.89708e-10
1.89708e-10
1.89709e-10
1.89716e-10
1.89725e-10
1.89737e-10
1.89754e-10
1.89773e-10
1.89797e-10
1.89827e-10
1.89856e-10
1.89893e-10
1.89935e-10
1.89978e-10
1.90026e-10
1.90076e-10
1.90134e-10
1.9019e-10
1.90254e-10
1.90317e-10
1.90384e-10
1.90449e-10
1.90513e-10
1.90573e-10
1.90618e-10
1.90638e-10
1.90616e-10
1.90522e-10
1.90316e-10
1.89951e-10
1.89409e-10
1.88744e-10
1.88102e-10
1.8763e-10
1.8737e-10
1.87263e-10
1.8724e-10
1.87257e-10
1.87287e-10
1.87324e-10
1.8736e-10
1.87392e-10
1.8742e-10
1.87443e-10
1.87461e-10
1.87471e-10
1.87474e-10
1.87475e-10
1.87473e-10
1.87456e-10
1.87435e-10
1.87409e-10
1.87377e-10
1.87341e-10
1.87299e-10
1.87253e-10
1.87203e-10
1.87148e-10
1.87091e-10
1.87031e-10
1.86968e-10
1.86904e-10
1.86838e-10
1.86771e-10
1.86704e-10
1.86637e-10
1.86571e-10
1.86505e-10
1.86441e-10
1.86378e-10
1.86317e-10
1.86258e-10
1.86202e-10
1.86148e-10
1.86096e-10
1.86047e-10
1.86001e-10
1.85957e-10
1.85916e-10
1.85878e-10
1.85842e-10
1.85808e-10
1.85777e-10
1.85748e-10
1.85721e-10
1.85696e-10
1.85673e-10
1.85651e-10
1.85631e-10
1.85612e-10
1.85595e-10
1.85578e-10
1.85562e-10
1.85547e-10
1.85533e-10
1.85519e-10
1.85505e-10
1.85492e-10
1.85479e-10
1.85466e-10
1.85453e-10
1.8544e-10
1.85427e-10
1.85414e-10
1.85401e-10
1.85387e-10
1.85374e-10
1.8536e-10
1.85346e-10
1.85332e-10
1.85318e-10
1.85304e-10
1.85289e-10
1.85275e-10
1.8526e-10
1.85245e-10
1.8523e-10
1.85215e-10
1.852e-10
1.85185e-10
1.8517e-10
1.85155e-10
1.8514e-10
1.85125e-10
1.8511e-10
1.85095e-10
1.85081e-10
1.85067e-10
1.85053e-10
1.85039e-10
1.85025e-10
1.85012e-10
1.84999e-10
1.84986e-10
1.84973e-10
1.84961e-10
1.84949e-10
1.84938e-10
1.84927e-10
1.84916e-10
1.84906e-10
1.84896e-10
1.84886e-10
1.84877e-10
1.84869e-10
1.8486e-10
1.84852e-10
1.84845e-10
1.84838e-10
1.84831e-10
1.84825e-10
1.8482e-10
1.84815e-10
1.8481e-10
1.84806e-10
1.84802e-10
1.84798e-10
1.84796e-10
1.84793e-10
1.84791e-10
1.8479e-10
1.84789e-10
1.84788e-10
1.84788e-10
1.84788e-10
1.84788e-10
1.84788e-10
1.8479e-10
1.84792e-10
1.84794e-10
1.84797e-10
1.848e-10
1.84804e-10
1.84808e-10
1.84812e-10
1.84817e-10
1.84822e-10
1.84827e-10
1.84833e-10
1.84839e-10
1.84846e-10
1.84852e-10
1.8486e-10
1.84867e-10
1.84875e-10
1.84883e-10
1.84892e-10
1.84901e-10
1.84911e-10
1.84921e-10
1.84931e-10
1.84942e-10
1.84953e-10
1.84965e-10
1.84978e-10
1.84991e-10
1.85005e-10
1.8502e-10
1.85035e-10
1.85051e-10
1.85069e-10
1.85087e-10
1.85106e-10
1.85127e-10
1.85149e-10
1.85172e-10
1.85196e-10
1.85222e-10
1.8525e-10
1.85279e-10
1.8531e-10
1.85342e-10
1.85377e-10
1.85413e-10
1.85451e-10
1.85491e-10
1.85534e-10
1.85578e-10
1.85624e-10
1.85672e-10
1.85722e-10
1.85774e-10
1.85828e-10
1.85884e-10
1.85941e-10
1.86e-10
1.8606e-10
1.86121e-10
1.86184e-10
1.86247e-10
1.86311e-10
1.86376e-10
1.8644e-10
1.86505e-10
1.86569e-10
1.86633e-10
1.86695e-10
1.86756e-10
1.86816e-10
1.86874e-10
1.86929e-10
1.86982e-10
1.87033e-10
1.8708e-10
1.87123e-10
1.87163e-10
1.87199e-10
1.8723e-10
1.87257e-10
1.87279e-10
1.87297e-10
1.87309e-10
1.87316e-10
1.87319e-10
1.87319e-10
1.87319e-10
1.87314e-10
1.87296e-10
1.87274e-10
1.87247e-10
1.87215e-10
1.8718e-10
1.8714e-10
1.87097e-10
1.87051e-10
1.87002e-10
1.8695e-10
1.86897e-10
1.86841e-10
1.86784e-10
1.86726e-10
1.86667e-10
1.86608e-10
1.86549e-10
1.8649e-10
1.86432e-10
1.86375e-10
1.86318e-10
1.86263e-10
1.8621e-10
1.86158e-10
1.86109e-10
1.86061e-10
1.86015e-10
1.85971e-10
1.85929e-10
1.85889e-10
1.85852e-10
1.85816e-10
1.85782e-10
1.85751e-10
1.85721e-10
1.85693e-10
1.85666e-10
1.85641e-10
1.85618e-10
1.85595e-10
1.85574e-10
1.85555e-10
1.85536e-10
1.85518e-10
1.85501e-10
1.85484e-10
1.85469e-10
1.85453e-10
1.85439e-10
1.85424e-10
1.8541e-10
1.85396e-10
1.85383e-10
1.85369e-10
1.85356e-10
1.85343e-10
1.85329e-10
1.85316e-10
1.85303e-10
1.8529e-10
1.85277e-10
1.85264e-10
1.85251e-10
1.85238e-10
1.85224e-10
1.85211e-10
1.85198e-10
1.85185e-10
1.85172e-10
1.85159e-10
1.85146e-10
1.85133e-10
1.85121e-10
1.85108e-10
1.85096e-10
1.85083e-10
1.85071e-10
1.85059e-10
1.85047e-10
1.85036e-10
1.85024e-10
1.85013e-10
1.85002e-10
1.84991e-10
1.84981e-10
1.84971e-10
1.84961e-10
1.84952e-10
1.84942e-10
1.84934e-10
1.84925e-10
1.84917e-10
1.84909e-10
1.84902e-10
1.84894e-10
1.84888e-10
1.84881e-10
1.84875e-10
1.8487e-10
1.84864e-10
1.84859e-10
1.84855e-10
1.84851e-10
1.84847e-10
1.84844e-10
1.84841e-10
1.84839e-10
1.84837e-10
1.84835e-10
1.84834e-10
1.84833e-10
)
;

boundaryField
{
    inlet
    {
        type            calculated;
        value           uniform -2.74882e-10;
    }
    outlet
    {
        type            calculated;
        value           uniform 1.84833e-10;
    }
    emptyWalls
    {
        type            empty;
        value           nonuniform List<scalar> 0();
    }
}


// ************************************************************************* //
