/*--------------------------------*- C++ -*----------------------------------*\
  =========                 |
  \\      /  F ield         | OpenFOAM: The Open Source CFD Toolbox
   \\    /   O peration     | Website:  https://openfoam.org
    \\  /    A nd           | Version:  9
     \\/     M anipulation  |
\*---------------------------------------------------------------------------*/
FoamFile
{
    format      ascii;
    class       volScalarField;
    location    "21700";
    object      krb;
}
// * * * * * * * * * * * * * * * * * * * * * * * * * * * * * * * * * * * * * //

dimensions      [0 0 0 0 0 0 0];

internalField   nonuniform List<scalar> 
1000
(
0.0978474
0.098237
0.0987509
0.0992755
0.0998012
0.100326
0.100877
0.101403
0.101984
0.102507
0.103124
0.10364
0.104278
0.104799
0.105418
0.105952
0.10652
0.107041
0.10755
0.108018
0.108456
0.108849
0.109203
0.109512
0.109787
0.110036
0.110309
0.110849
0.112553
0.119474
0.166483
0.387955
0.472625
0.494121
0.503064
0.508092
0.511492
0.514093
0.516224
0.518046
0.519631
0.52103
0.522266
0.523369
0.52435
0.525228
0.52601
0.52671
0.527334
0.52789
0.528382
0.528822
0.529206
0.529547
0.529841
0.530097
0.530313
0.530496
0.530643
0.530759
0.530844
0.530898
0.530924
0.53092
0.530888
0.530825
0.530732
0.530608
0.530455
0.53027
0.530055
0.529806
0.529523
0.529204
0.528846
0.528446
0.527998
0.527495
0.526927
0.526278
0.525528
0.524652
0.523621
0.52241
0.521011
0.51944
0.517744
0.515971
0.514147
0.512292
0.510418
0.508534
0.506649
0.504765
0.502888
0.501019
0.499159
0.497311
0.495474
0.493648
0.491835
0.490033
0.488241
0.486458
0.484684
0.48292
0.481166
0.479424
0.477695
0.475979
0.474277
0.47259
0.470918
0.469262
0.467621
0.465997
0.464391
0.462803
0.461234
0.459684
0.458152
0.456638
0.455141
0.453659
0.452192
0.450738
0.449295
0.447863
0.446439
0.445024
0.443616
0.442216
0.440823
0.439438
0.43806
0.436689
0.435326
0.433972
0.432626
0.431289
0.429961
0.428643
0.427334
0.426034
0.424744
0.423463
0.422191
0.420929
0.419675
0.418431
0.417195
0.415969
0.41475
0.41354
0.412338
0.411144
0.409958
0.408779
0.407609
0.406445
0.40529
0.404141
0.403
0.401866
0.400739
0.399619
0.398505
0.397399
0.396299
0.395206
0.39412
0.39304
0.391967
0.3909
0.389839
0.388784
0.387736
0.386693
0.385657
0.384626
0.383602
0.382583
0.38157
0.380563
0.379561
0.378565
0.377574
0.376589
0.37561
0.374635
0.373666
0.372702
0.371744
0.37079
0.369841
0.368898
0.367959
0.367026
0.366097
0.365173
0.364255
0.363341
0.362431
0.361527
0.360627
0.359732
0.358841
0.357955
0.357073
0.356195
0.355322
0.354453
0.353589
0.352729
0.351873
0.351022
0.350175
0.349332
0.348493
0.347658
0.346827
0.346
0.345176
0.344356
0.343539
0.342725
0.341913
0.341105
0.340299
0.339496
0.338695
0.337897
0.337102
0.33631
0.33552
0.334734
0.33395
0.333171
0.332394
0.331622
0.330854
0.330091
0.329332
0.328577
0.327828
0.327084
0.326345
0.325612
0.324884
0.32416
0.323442
0.322729
0.32202
0.321316
0.320616
0.319919
0.319225
0.318535
0.317847
0.317161
0.316478
0.315797
0.315117
0.31444
0.313764
0.31309
0.312418
0.311748
0.31108
0.310413
0.309749
0.309087
0.308427
0.307769
0.307114
0.306461
0.305811
0.305163
0.304517
0.303874
0.303234
0.302596
0.301961
0.301328
0.300698
0.30007
0.299445
0.298822
0.298202
0.297583
0.296968
0.296354
0.295743
0.295134
0.294527
0.293923
0.293321
0.292721
0.292123
0.291527
0.290933
0.290341
0.289752
0.289164
0.288579
0.287995
0.287413
0.286834
0.286256
0.285681
0.285107
0.284535
0.283965
0.283397
0.282831
0.282267
0.281704
0.281144
0.280585
0.280028
0.279473
0.278919
0.278367
0.277818
0.277269
0.276723
0.276178
0.275635
0.275094
0.274555
0.274017
0.27348
0.272946
0.272413
0.271882
0.271352
0.270824
0.270297
0.269773
0.26925
0.268728
0.268208
0.267689
0.267173
0.266657
0.266144
0.265631
0.265121
0.264611
0.264104
0.263598
0.263093
0.26259
0.262088
0.261588
0.26109
0.260593
0.260097
0.259602
0.259109
0.258618
0.258127
0.257638
0.25715
0.256663
0.256178
0.255693
0.25521
0.254727
0.254245
0.253765
0.253285
0.252806
0.252328
0.251851
0.251375
0.2509
0.250426
0.249953
0.249481
0.249011
0.248541
0.248073
0.247607
0.247142
0.246678
0.246217
0.245757
0.245299
0.244843
0.244389
0.243937
0.243486
0.243038
0.242592
0.242148
0.241706
0.241266
0.240828
0.240391
0.239956
0.239523
0.239091
0.238661
0.238232
0.237803
0.237376
0.23695
0.236525
0.236101
0.235677
0.235254
0.234832
0.234411
0.23399
0.233569
0.23315
0.232731
0.232313
0.231896
0.231479
0.231063
0.230648
0.230234
0.229821
0.229408
0.228996
0.228586
0.228176
0.227767
0.227359
0.226952
0.226546
0.226141
0.225737
0.225334
0.224932
0.224531
0.224131
0.223731
0.223333
0.222935
0.222539
0.222143
0.221748
0.221355
0.220962
0.220569
0.220178
0.219788
0.219398
0.219009
0.218622
0.218234
0.217848
0.217463
0.217078
0.216694
0.216311
0.215929
0.215547
0.215167
0.214787
0.214407
0.214029
0.213651
0.213274
0.212898
0.212523
0.212148
0.211774
0.211401
0.211028
0.210656
0.210285
0.209915
0.209545
0.209176
0.208808
0.20844
0.208073
0.207707
0.207341
0.206977
0.206612
0.206249
0.205886
0.205524
0.205162
0.204801
0.204441
0.204082
0.203723
0.203365
0.203007
0.20265
0.202294
0.201938
0.201583
0.201229
0.200875
0.200522
0.20017
0.199818
0.199467
0.199116
0.198766
0.198417
0.198068
0.19772
0.197372
0.197025
0.196679
0.196333
0.195988
0.195643
0.195299
0.194956
0.194612
0.19427
0.193928
0.193586
0.193244
0.192904
0.192563
0.192223
0.191883
0.191544
0.191205
0.190866
0.190528
0.19019
0.189853
0.189516
0.189179
0.188843
0.188507
0.188172
0.187837
0.187503
0.187169
0.186836
0.186504
0.186172
0.185841
0.18551
0.18518
0.184851
0.184523
0.184196
0.183869
0.183544
0.183219
0.182895
0.182572
0.18225
0.181928
0.181608
0.181288
0.180969
0.180651
0.180334
0.180017
0.179701
0.179385
0.179071
0.178756
0.178443
0.178129
0.177816
0.177504
0.177192
0.17688
0.176568
0.176257
0.175946
0.175636
0.175325
0.175015
0.174705
0.174396
0.174086
0.173777
0.173468
0.17316
0.172852
0.172544
0.172236
0.171928
0.171621
0.171314
0.171008
0.170702
0.170396
0.170091
0.169786
0.169481
0.169176
0.168872
0.168569
0.168265
0.167962
0.16766
0.167357
0.167056
0.166754
0.166453
0.166152
0.165851
0.165551
0.165251
0.164952
0.164653
0.164354
0.164055
0.163757
0.163459
0.163161
0.162864
0.162567
0.16227
0.161974
0.161678
0.161382
0.161086
0.160791
0.160496
0.160201
0.159906
0.159612
0.159318
0.159024
0.158731
0.158437
0.158144
0.157852
0.157559
0.157267
0.156975
0.156683
0.156392
0.1561
0.155809
0.155518
0.155227
0.154937
0.154647
0.154357
0.154067
0.153777
0.153488
0.153199
0.15291
0.152621
0.152332
0.152044
0.151756
0.151468
0.15118
0.150892
0.150605
0.150318
0.150031
0.149744
0.149457
0.14917
0.148884
0.148598
0.148312
0.148026
0.14774
0.147454
0.147169
0.146884
0.146599
0.146314
0.146029
0.145744
0.14546
0.145175
0.144891
0.144607
0.144323
0.144039
0.143755
0.143471
0.143188
0.142904
0.142621
0.142337
0.142054
0.14177
0.141487
0.141204
0.140921
0.140637
0.140354
0.140071
0.139788
0.139505
0.139222
0.138939
0.138655
0.138372
0.138089
0.137806
0.137523
0.13724
0.136957
0.136674
0.136391
0.136108
0.135825
0.135542
0.13526
0.134977
0.134694
0.134412
0.13413
0.133847
0.133565
0.133283
0.133002
0.13272
0.132438
0.132157
0.131876
0.131595
0.131314
0.131033
0.130753
0.130472
0.130192
0.129912
0.129632
0.129352
0.129072
0.128792
0.128512
0.128233
0.127953
0.127673
0.127394
0.127114
0.126834
0.126554
0.126274
0.125994
0.125714
0.125434
0.125153
0.124873
0.124592
0.124311
0.12403
0.123748
0.123467
0.123185
0.122903
0.122621
0.122338
0.122056
0.121773
0.12149
0.121206
0.120923
0.120639
0.120355
0.120071
0.119786
0.119502
0.119217
0.118932
0.118646
0.118361
0.118075
0.117789
0.117502
0.117216
0.116929
0.116642
0.116355
0.116067
0.11578
0.115492
0.115203
0.114915
0.114626
0.114337
0.114048
0.113759
0.113469
0.113179
0.112889
0.112599
0.112308
0.112017
0.111727
0.111436
0.111144
0.110853
0.110562
0.11027
0.109979
0.109688
0.109396
0.109105
0.108814
0.108524
0.108234
0.107944
0.107655
0.107366
0.107079
0.106792
0.106507
0.106224
0.105942
0.105663
0.105385
0.105111
0.10484
0.104572
0.104309
0.10405
0.103796
0.103548
0.103307
0.103072
0.102846
0.102627
0.102418
0.102218
0.102028
0.101848
0.10168
0.101522
0.101376
0.101241
0.101117
0.101005
0.100903
0.100812
0.10073
0.100659
0.100596
0.100541
0.100493
0.100452
0.100418
0.100389
0.100364
0.100343
0.100326
0.100311
0.100299
0.100288
0.100276
0.100263
0.100245
0.100217
0.10017
0.100089
0.0999451
0.0996896
0.099235
0.0984313
0.0970301
0.0946426
0.090738
0.0847615
0.0764985
0.066582
0.0565817
0.0481945
0.0422345
0.038505
0.0363614
0.0351907
0.0345696
0.034245
0.0340768
0.0339899
0.0339451
0.033922
0.03391
0.0339038
0.0339005
0.0338987
0.0338977
0.033897
0.0338966
0.0338963
0.033896
0.0338957
0.0338954
0.0338952
0.0338949
0.0338946
0.0338943
0.033894
0.0338937
0.0338934
0.0338931
0.0338928
0.0338925
0.0338922
0.0338919
0.0338916
0.0338913
0.033891
0.0338907
0.0338905
0.0338902
0.03389
0.0338897
0.0338895
0.0338893
0.0338891
0.0338889
0.0338888
0.0338886
0.0338885
0.0338884
0.0338883
0.0338882
0.0338881
0.0338881
0.0338881
0.0338881
0.0338881
0.0338881
0.0338881
0.0338882
0.0338883
0.0338883
0.0338884
0.0338885
0.0338886
0.0338887
0.0338888
0.0338889
0.0338891
0.0338892
0.0338893
0.0338895
0.0338896
0.0338897
0.0338898
0.03389
0.0338901
0.0338902
0.0338903
0.0338905
0.0338906
0.0338907
0.0338908
0.0338909
0.033891
0.0338911
0.0338912
0.0338913
0.0338914
0.0338915
0.0338916
0.0338917
0.0338918
0.0338918
0.0338919
0.033892
0.0338921
0.0338922
0.0338923
0.0338923
0.0338924
0.0338925
0.0338926
0.0338927
0.0338928
0.0338928
0.0338929
0.033893
0.0338931
0.0338932
0.0338933
0.0338933
0.0338934
0.0338935
0.0338936
0.0338937
0.0338938
0.0338939
0.033894
0.033894
0.0338941
0.0338942
0.0338943
0.0338943
0.0338944
0.0338945
)
;

boundaryField
{
    inlet
    {
        type            calculated;
        value           uniform 0.0976562;
    }
    outlet
    {
        type            calculated;
        value           uniform 0.0338945;
    }
    emptyWalls
    {
        type            empty;
    }
}


// ************************************************************************* //
