/*--------------------------------*- C++ -*----------------------------------*\
  =========                 |
  \\      /  F ield         | OpenFOAM: The Open Source CFD Toolbox
   \\    /   O peration     | Website:  https://openfoam.org
    \\  /    A nd           | Version:  9
     \\/     M anipulation  |
\*---------------------------------------------------------------------------*/
FoamFile
{
    format      ascii;
    class       volVectorField;
    location    "11400";
    object      Uc;
}
// * * * * * * * * * * * * * * * * * * * * * * * * * * * * * * * * * * * * * //

dimensions      [0 0 0 0 0 0 0];

internalField   nonuniform List<vector> 
1000
(
(2.28195e-11 0 0)
(1.2583e-10 0 0)
(3.45522e-10 0 0)
(6.77449e-10 0 0)
(1.1108e-09 0 0)
(1.63396e-09 0 0)
(2.2292e-09 0 0)
(2.87061e-09 0 0)
(3.52679e-09 0 0)
(4.16683e-09 0 0)
(4.7727e-09 0 0)
(5.38805e-09 0 0)
(6.34296e-09 0 0)
(9.16673e-09 0 0)
(1.93415e-08 0 0)
(6.97076e-08 0 0)
(1.54083e-07 0 0)
(2.0378e-07 0 0)
(2.14628e-07 0 0)
(2.19762e-07 0 0)
(2.23288e-07 0 0)
(2.26147e-07 0 0)
(2.28644e-07 0 0)
(2.30882e-07 0 0)
(2.32931e-07 0 0)
(2.34829e-07 0 0)
(2.36598e-07 0 0)
(2.38274e-07 0 0)
(2.3989e-07 0 0)
(2.41474e-07 0 0)
(2.43045e-07 0 0)
(2.44618e-07 0 0)
(2.46214e-07 0 0)
(2.47856e-07 0 0)
(2.49595e-07 0 0)
(2.51457e-07 0 0)
(2.53429e-07 0 0)
(2.55535e-07 0 0)
(2.57829e-07 0 0)
(2.60397e-07 0 0)
(2.6337e-07 0 0)
(2.6692e-07 0 0)
(2.71236e-07 0 0)
(2.76441e-07 0 0)
(2.8252e-07 0 0)
(2.89315e-07 0 0)
(2.96628e-07 0 0)
(3.04306e-07 0 0)
(3.12249e-07 0 0)
(3.20392e-07 0 0)
(3.2869e-07 0 0)
(3.37112e-07 0 0)
(3.45637e-07 0 0)
(3.5425e-07 0 0)
(3.62939e-07 0 0)
(3.71696e-07 0 0)
(3.80512e-07 0 0)
(3.89385e-07 0 0)
(3.98308e-07 0 0)
(4.07279e-07 0 0)
(4.16295e-07 0 0)
(4.25353e-07 0 0)
(4.34451e-07 0 0)
(4.43588e-07 0 0)
(4.52762e-07 0 0)
(4.61972e-07 0 0)
(4.71215e-07 0 0)
(4.80492e-07 0 0)
(4.898e-07 0 0)
(4.9914e-07 0 0)
(5.08509e-07 0 0)
(5.17909e-07 0 0)
(5.27336e-07 0 0)
(5.36792e-07 0 0)
(5.46275e-07 0 0)
(5.55784e-07 0 0)
(5.6532e-07 0 0)
(5.74881e-07 0 0)
(5.84467e-07 0 0)
(5.94078e-07 0 0)
(6.03713e-07 0 0)
(6.13372e-07 0 0)
(6.23053e-07 0 0)
(6.32758e-07 0 0)
(6.42485e-07 0 0)
(6.52234e-07 0 0)
(6.62005e-07 0 0)
(6.71797e-07 0 0)
(6.81612e-07 0 0)
(6.91447e-07 0 0)
(7.01303e-07 0 0)
(7.1118e-07 0 0)
(7.21078e-07 0 0)
(7.30997e-07 0 0)
(7.40936e-07 0 0)
(7.50896e-07 0 0)
(7.60875e-07 0 0)
(7.70875e-07 0 0)
(7.80893e-07 0 0)
(7.90929e-07 0 0)
(8.00983e-07 0 0)
(8.11054e-07 0 0)
(8.21142e-07 0 0)
(8.31248e-07 0 0)
(8.41371e-07 0 0)
(8.51512e-07 0 0)
(8.6167e-07 0 0)
(8.71846e-07 0 0)
(8.82038e-07 0 0)
(8.92244e-07 0 0)
(9.02461e-07 0 0)
(9.12688e-07 0 0)
(9.22921e-07 0 0)
(9.33159e-07 0 0)
(9.434e-07 0 0)
(9.53642e-07 0 0)
(9.63884e-07 0 0)
(9.74128e-07 0 0)
(9.84373e-07 0 0)
(9.94622e-07 0 0)
(1.00488e-06 0 0)
(1.01514e-06 0 0)
(1.02541e-06 0 0)
(1.0357e-06 0 0)
(1.04601e-06 0 0)
(1.05634e-06 0 0)
(1.0667e-06 0 0)
(1.07709e-06 0 0)
(1.08753e-06 0 0)
(1.09801e-06 0 0)
(1.10854e-06 0 0)
(1.11913e-06 0 0)
(1.12977e-06 0 0)
(1.14046e-06 0 0)
(1.1512e-06 0 0)
(1.162e-06 0 0)
(1.17284e-06 0 0)
(1.18372e-06 0 0)
(1.19463e-06 0 0)
(1.20557e-06 0 0)
(1.21652e-06 0 0)
(1.22749e-06 0 0)
(1.23846e-06 0 0)
(1.24943e-06 0 0)
(1.2604e-06 0 0)
(1.27137e-06 0 0)
(1.28233e-06 0 0)
(1.29328e-06 0 0)
(1.30423e-06 0 0)
(1.31518e-06 0 0)
(1.32612e-06 0 0)
(1.33707e-06 0 0)
(1.34801e-06 0 0)
(1.35897e-06 0 0)
(1.36993e-06 0 0)
(1.38091e-06 0 0)
(1.3919e-06 0 0)
(1.40291e-06 0 0)
(1.41393e-06 0 0)
(1.42497e-06 0 0)
(1.43604e-06 0 0)
(1.44712e-06 0 0)
(1.45822e-06 0 0)
(1.46935e-06 0 0)
(1.48049e-06 0 0)
(1.49166e-06 0 0)
(1.50284e-06 0 0)
(1.51405e-06 0 0)
(1.52528e-06 0 0)
(1.53652e-06 0 0)
(1.54779e-06 0 0)
(1.55907e-06 0 0)
(1.57037e-06 0 0)
(1.58169e-06 0 0)
(1.59302e-06 0 0)
(1.60437e-06 0 0)
(1.61574e-06 0 0)
(1.62713e-06 0 0)
(1.63853e-06 0 0)
(1.64994e-06 0 0)
(1.66138e-06 0 0)
(1.67283e-06 0 0)
(1.68429e-06 0 0)
(1.69578e-06 0 0)
(1.70728e-06 0 0)
(1.71879e-06 0 0)
(1.73032e-06 0 0)
(1.74187e-06 0 0)
(1.75344e-06 0 0)
(1.76502e-06 0 0)
(1.77662e-06 0 0)
(1.78823e-06 0 0)
(1.79986e-06 0 0)
(1.81151e-06 0 0)
(1.82318e-06 0 0)
(1.83486e-06 0 0)
(1.84656e-06 0 0)
(1.85828e-06 0 0)
(1.87002e-06 0 0)
(1.88177e-06 0 0)
(1.89354e-06 0 0)
(1.90533e-06 0 0)
(1.91714e-06 0 0)
(1.92896e-06 0 0)
(1.9408e-06 0 0)
(1.95266e-06 0 0)
(1.96454e-06 0 0)
(1.97643e-06 0 0)
(1.98834e-06 0 0)
(2.00027e-06 0 0)
(2.01222e-06 0 0)
(2.02418e-06 0 0)
(2.03617e-06 0 0)
(2.04817e-06 0 0)
(2.06019e-06 0 0)
(2.07222e-06 0 0)
(2.08428e-06 0 0)
(2.09635e-06 0 0)
(2.10844e-06 0 0)
(2.12055e-06 0 0)
(2.13268e-06 0 0)
(2.14483e-06 0 0)
(2.15699e-06 0 0)
(2.16918e-06 0 0)
(2.18138e-06 0 0)
(2.1936e-06 0 0)
(2.20584e-06 0 0)
(2.2181e-06 0 0)
(2.23038e-06 0 0)
(2.24268e-06 0 0)
(2.255e-06 0 0)
(2.26734e-06 0 0)
(2.2797e-06 0 0)
(2.29208e-06 0 0)
(2.30448e-06 0 0)
(2.31691e-06 0 0)
(2.32935e-06 0 0)
(2.34181e-06 0 0)
(2.3543e-06 0 0)
(2.36681e-06 0 0)
(2.37934e-06 0 0)
(2.39189e-06 0 0)
(2.40446e-06 0 0)
(2.41705e-06 0 0)
(2.42966e-06 0 0)
(2.4423e-06 0 0)
(2.45496e-06 0 0)
(2.46763e-06 0 0)
(2.48033e-06 0 0)
(2.49305e-06 0 0)
(2.5058e-06 0 0)
(2.51856e-06 0 0)
(2.53134e-06 0 0)
(2.54414e-06 0 0)
(2.55696e-06 0 0)
(2.56979e-06 0 0)
(2.58264e-06 0 0)
(2.5955e-06 0 0)
(2.60838e-06 0 0)
(2.62127e-06 0 0)
(2.63417e-06 0 0)
(2.64707e-06 0 0)
(2.65999e-06 0 0)
(2.67291e-06 0 0)
(2.68584e-06 0 0)
(2.69877e-06 0 0)
(2.71172e-06 0 0)
(2.72467e-06 0 0)
(2.73763e-06 0 0)
(2.7506e-06 0 0)
(2.76358e-06 0 0)
(2.77658e-06 0 0)
(2.78959e-06 0 0)
(2.80263e-06 0 0)
(2.8157e-06 0 0)
(2.82879e-06 0 0)
(2.84193e-06 0 0)
(2.8551e-06 0 0)
(2.86832e-06 0 0)
(2.88159e-06 0 0)
(2.89492e-06 0 0)
(2.90831e-06 0 0)
(2.92177e-06 0 0)
(2.93529e-06 0 0)
(2.94889e-06 0 0)
(2.96256e-06 0 0)
(2.97631e-06 0 0)
(2.99013e-06 0 0)
(3.00403e-06 0 0)
(3.018e-06 0 0)
(3.03205e-06 0 0)
(3.04616e-06 0 0)
(3.06033e-06 0 0)
(3.07456e-06 0 0)
(3.08884e-06 0 0)
(3.10316e-06 0 0)
(3.11753e-06 0 0)
(3.13193e-06 0 0)
(3.14635e-06 0 0)
(3.16081e-06 0 0)
(3.17528e-06 0 0)
(3.18976e-06 0 0)
(3.20427e-06 0 0)
(3.21878e-06 0 0)
(3.23331e-06 0 0)
(3.24784e-06 0 0)
(3.26239e-06 0 0)
(3.27695e-06 0 0)
(3.29153e-06 0 0)
(3.30612e-06 0 0)
(3.32073e-06 0 0)
(3.33536e-06 0 0)
(3.35001e-06 0 0)
(3.36468e-06 0 0)
(3.37938e-06 0 0)
(3.39412e-06 0 0)
(3.40888e-06 0 0)
(3.42368e-06 0 0)
(3.43852e-06 0 0)
(3.4534e-06 0 0)
(3.46831e-06 0 0)
(3.48327e-06 0 0)
(3.49827e-06 0 0)
(3.51332e-06 0 0)
(3.52841e-06 0 0)
(3.54355e-06 0 0)
(3.55873e-06 0 0)
(3.57396e-06 0 0)
(3.58924e-06 0 0)
(3.60457e-06 0 0)
(3.61995e-06 0 0)
(3.63537e-06 0 0)
(3.65084e-06 0 0)
(3.66637e-06 0 0)
(3.68194e-06 0 0)
(3.69756e-06 0 0)
(3.71323e-06 0 0)
(3.72895e-06 0 0)
(3.74472e-06 0 0)
(3.76054e-06 0 0)
(3.7764e-06 0 0)
(3.79232e-06 0 0)
(3.8083e-06 0 0)
(3.82432e-06 0 0)
(3.84039e-06 0 0)
(3.85652e-06 0 0)
(3.87269e-06 0 0)
(3.88892e-06 0 0)
(3.90521e-06 0 0)
(3.92155e-06 0 0)
(3.93794e-06 0 0)
(3.95439e-06 0 0)
(3.97089e-06 0 0)
(3.98745e-06 0 0)
(4.00407e-06 0 0)
(4.02075e-06 0 0)
(4.03748e-06 0 0)
(4.05427e-06 0 0)
(4.07113e-06 0 0)
(4.08804e-06 0 0)
(4.10501e-06 0 0)
(4.12205e-06 0 0)
(4.13915e-06 0 0)
(4.15631e-06 0 0)
(4.17354e-06 0 0)
(4.19083e-06 0 0)
(4.2082e-06 0 0)
(4.22563e-06 0 0)
(4.24312e-06 0 0)
(4.26069e-06 0 0)
(4.27833e-06 0 0)
(4.29604e-06 0 0)
(4.31382e-06 0 0)
(4.33167e-06 0 0)
(4.3496e-06 0 0)
(4.3676e-06 0 0)
(4.38568e-06 0 0)
(4.40384e-06 0 0)
(4.42208e-06 0 0)
(4.44039e-06 0 0)
(4.45879e-06 0 0)
(4.47727e-06 0 0)
(4.49584e-06 0 0)
(4.51448e-06 0 0)
(4.53321e-06 0 0)
(4.55203e-06 0 0)
(4.57094e-06 0 0)
(4.58994e-06 0 0)
(4.60903e-06 0 0)
(4.62822e-06 0 0)
(4.6475e-06 0 0)
(4.66687e-06 0 0)
(4.68633e-06 0 0)
(4.7059e-06 0 0)
(4.72557e-06 0 0)
(4.74533e-06 0 0)
(4.76521e-06 0 0)
(4.78518e-06 0 0)
(4.80527e-06 0 0)
(4.82546e-06 0 0)
(4.84575e-06 0 0)
(4.86616e-06 0 0)
(4.88668e-06 0 0)
(4.90731e-06 0 0)
(4.92806e-06 0 0)
(4.94893e-06 0 0)
(4.96991e-06 0 0)
(4.99101e-06 0 0)
(5.01223e-06 0 0)
(5.03356e-06 0 0)
(5.05501e-06 0 0)
(5.07658e-06 0 0)
(5.09827e-06 0 0)
(5.12007e-06 0 0)
(5.14199e-06 0 0)
(5.16401e-06 0 0)
(5.18613e-06 0 0)
(5.20835e-06 0 0)
(5.23066e-06 0 0)
(5.25304e-06 0 0)
(5.27549e-06 0 0)
(5.29799e-06 0 0)
(5.32051e-06 0 0)
(5.34302e-06 0 0)
(5.3655e-06 0 0)
(5.3879e-06 0 0)
(5.41019e-06 0 0)
(5.43231e-06 0 0)
(5.45418e-06 0 0)
(5.47574e-06 0 0)
(5.49691e-06 0 0)
(5.5176e-06 0 0)
(5.53771e-06 0 0)
(5.55714e-06 0 0)
(5.57579e-06 0 0)
(5.59354e-06 0 0)
(5.61029e-06 0 0)
(5.62597e-06 0 0)
(5.64049e-06 0 0)
(5.6538e-06 0 0)
(5.66588e-06 0 0)
(5.6767e-06 0 0)
(5.68631e-06 0 0)
(5.69478e-06 0 0)
(5.70224e-06 0 0)
(5.70892e-06 0 0)
(5.7152e-06 0 0)
(5.72164e-06 0 0)
(5.72922e-06 0 0)
(5.73961e-06 0 0)
(5.75568e-06 0 0)
(5.78243e-06 0 0)
(5.82834e-06 0 0)
(5.90745e-06 0 0)
(6.04147e-06 0 0)
(6.26011e-06 0 0)
(6.59467e-06 0 0)
(7.05942e-06 0 0)
(7.62526e-06 0 0)
(8.21231e-06 0 0)
(8.72521e-06 0 0)
(9.10628e-06 0 0)
(9.354e-06 0 0)
(9.50024e-06 0 0)
(9.58139e-06 0 0)
(9.62481e-06 0 0)
(9.6476e-06 0 0)
(9.65946e-06 0 0)
(9.66563e-06 0 0)
(9.66891e-06 0 0)
(9.67072e-06 0 0)
(9.67182e-06 0 0)
(9.67258e-06 0 0)
(9.6732e-06 0 0)
(9.67378e-06 0 0)
(9.67436e-06 0 0)
(9.67497e-06 0 0)
(9.67561e-06 0 0)
(9.67628e-06 0 0)
(9.67698e-06 0 0)
(9.6777e-06 0 0)
(9.67844e-06 0 0)
(9.67919e-06 0 0)
(9.67994e-06 0 0)
(9.68069e-06 0 0)
(9.68143e-06 0 0)
(9.68215e-06 0 0)
(9.68285e-06 0 0)
(9.68352e-06 0 0)
(9.68416e-06 0 0)
(9.68477e-06 0 0)
(9.68534e-06 0 0)
(9.68588e-06 0 0)
(9.68638e-06 0 0)
(9.68684e-06 0 0)
(9.68726e-06 0 0)
(9.68764e-06 0 0)
(9.68799e-06 0 0)
(9.6883e-06 0 0)
(9.68857e-06 0 0)
(9.68882e-06 0 0)
(9.68904e-06 0 0)
(9.68923e-06 0 0)
(9.6894e-06 0 0)
(9.68955e-06 0 0)
(9.68969e-06 0 0)
(9.6898e-06 0 0)
(9.68991e-06 0 0)
(9.69e-06 0 0)
(9.69009e-06 0 0)
(9.69017e-06 0 0)
(9.69024e-06 0 0)
(9.69032e-06 0 0)
(9.69039e-06 0 0)
(9.69046e-06 0 0)
(9.69054e-06 0 0)
(9.69062e-06 0 0)
(9.6907e-06 0 0)
(9.69079e-06 0 0)
(9.69089e-06 0 0)
(9.69099e-06 0 0)
(9.69109e-06 0 0)
(9.6912e-06 0 0)
(9.69132e-06 0 0)
(9.69144e-06 0 0)
(9.69157e-06 0 0)
(9.6917e-06 0 0)
(9.69184e-06 0 0)
(9.69198e-06 0 0)
(9.69213e-06 0 0)
(9.69228e-06 0 0)
(9.69243e-06 0 0)
(9.69258e-06 0 0)
(9.69274e-06 0 0)
(9.6929e-06 0 0)
(9.69306e-06 0 0)
(9.69321e-06 0 0)
(9.69337e-06 0 0)
(9.69353e-06 0 0)
(9.69369e-06 0 0)
(9.69384e-06 0 0)
(9.694e-06 0 0)
(9.69415e-06 0 0)
(9.6943e-06 0 0)
(9.69444e-06 0 0)
(9.69458e-06 0 0)
(9.69472e-06 0 0)
(9.69486e-06 0 0)
(9.69499e-06 0 0)
(9.69512e-06 0 0)
(9.69524e-06 0 0)
(9.69536e-06 0 0)
(9.69547e-06 0 0)
(9.69558e-06 0 0)
(9.69568e-06 0 0)
(9.69578e-06 0 0)
(9.69588e-06 0 0)
(9.69597e-06 0 0)
(9.69606e-06 0 0)
(9.69614e-06 0 0)
(9.69622e-06 0 0)
(9.6963e-06 0 0)
(9.69637e-06 0 0)
(9.69643e-06 0 0)
(9.6965e-06 0 0)
(9.69656e-06 0 0)
(9.69661e-06 0 0)
(9.69666e-06 0 0)
(9.69671e-06 0 0)
(9.69676e-06 0 0)
(9.6968e-06 0 0)
(9.69684e-06 0 0)
(9.69687e-06 0 0)
(9.6969e-06 0 0)
(9.69693e-06 0 0)
(9.69696e-06 0 0)
(9.69698e-06 0 0)
(9.697e-06 0 0)
(9.69702e-06 0 0)
(9.69703e-06 0 0)
(9.69704e-06 0 0)
(9.69705e-06 0 0)
(9.69705e-06 0 0)
(9.69705e-06 0 0)
(9.69705e-06 0 0)
(9.69705e-06 0 0)
(9.69705e-06 0 0)
(9.69703e-06 0 0)
(9.69702e-06 0 0)
(9.697e-06 0 0)
(9.69698e-06 0 0)
(9.69696e-06 0 0)
(9.69693e-06 0 0)
(9.6969e-06 0 0)
(9.69687e-06 0 0)
(9.69683e-06 0 0)
(9.69679e-06 0 0)
(9.69675e-06 0 0)
(9.69671e-06 0 0)
(9.69666e-06 0 0)
(9.69661e-06 0 0)
(9.69655e-06 0 0)
(9.6965e-06 0 0)
(9.69644e-06 0 0)
(9.69637e-06 0 0)
(9.69631e-06 0 0)
(9.69624e-06 0 0)
(9.69617e-06 0 0)
(9.6961e-06 0 0)
(9.69602e-06 0 0)
(9.69594e-06 0 0)
(9.69586e-06 0 0)
(9.69577e-06 0 0)
(9.69569e-06 0 0)
(9.69559e-06 0 0)
(9.6955e-06 0 0)
(9.6954e-06 0 0)
(9.6953e-06 0 0)
(9.69519e-06 0 0)
(9.69508e-06 0 0)
(9.69497e-06 0 0)
(9.69485e-06 0 0)
(9.69472e-06 0 0)
(9.69459e-06 0 0)
(9.69445e-06 0 0)
(9.6943e-06 0 0)
(9.69415e-06 0 0)
(9.69399e-06 0 0)
(9.69381e-06 0 0)
(9.69363e-06 0 0)
(9.69343e-06 0 0)
(9.69322e-06 0 0)
(9.693e-06 0 0)
(9.69276e-06 0 0)
(9.6925e-06 0 0)
(9.69223e-06 0 0)
(9.69194e-06 0 0)
(9.69164e-06 0 0)
(9.69131e-06 0 0)
(9.69096e-06 0 0)
(9.6906e-06 0 0)
(9.69021e-06 0 0)
(9.6898e-06 0 0)
(9.68936e-06 0 0)
(9.68891e-06 0 0)
(9.68843e-06 0 0)
(9.68793e-06 0 0)
(9.68741e-06 0 0)
(9.68687e-06 0 0)
(9.68631e-06 0 0)
(9.68573e-06 0 0)
(9.68513e-06 0 0)
(9.68452e-06 0 0)
(9.6839e-06 0 0)
(9.68326e-06 0 0)
(9.68262e-06 0 0)
(9.68197e-06 0 0)
(9.68132e-06 0 0)
(9.68068e-06 0 0)
(9.68004e-06 0 0)
(9.6794e-06 0 0)
(9.67878e-06 0 0)
(9.67818e-06 0 0)
(9.67759e-06 0 0)
(9.67704e-06 0 0)
(9.67651e-06 0 0)
(9.67601e-06 0 0)
(9.67556e-06 0 0)
(9.67514e-06 0 0)
(9.67477e-06 0 0)
(9.67445e-06 0 0)
(9.67418e-06 0 0)
(9.67396e-06 0 0)
(9.6738e-06 0 0)
(9.6737e-06 0 0)
(9.67365e-06 0 0)
(9.67364e-06 0 0)
(9.67365e-06 0 0)
(9.67369e-06 0 0)
(9.67385e-06 0 0)
(9.67411e-06 0 0)
(9.67441e-06 0 0)
(9.67477e-06 0 0)
(9.67517e-06 0 0)
(9.67562e-06 0 0)
(9.67611e-06 0 0)
(9.67663e-06 0 0)
(9.67719e-06 0 0)
(9.67777e-06 0 0)
(9.67837e-06 0 0)
(9.67898e-06 0 0)
(9.67961e-06 0 0)
(9.68024e-06 0 0)
(9.68087e-06 0 0)
(9.6815e-06 0 0)
(9.68212e-06 0 0)
(9.68272e-06 0 0)
(9.68331e-06 0 0)
(9.68388e-06 0 0)
(9.68443e-06 0 0)
(9.68496e-06 0 0)
(9.68546e-06 0 0)
(9.68594e-06 0 0)
(9.68639e-06 0 0)
(9.68681e-06 0 0)
(9.6872e-06 0 0)
(9.68757e-06 0 0)
(9.68792e-06 0 0)
(9.68824e-06 0 0)
(9.68853e-06 0 0)
(9.68881e-06 0 0)
(9.68906e-06 0 0)
(9.68929e-06 0 0)
(9.68951e-06 0 0)
(9.68971e-06 0 0)
(9.68989e-06 0 0)
(9.69006e-06 0 0)
(9.69022e-06 0 0)
(9.69038e-06 0 0)
(9.69052e-06 0 0)
(9.69066e-06 0 0)
(9.69079e-06 0 0)
(9.69092e-06 0 0)
(9.69104e-06 0 0)
(9.69117e-06 0 0)
(9.69129e-06 0 0)
(9.69141e-06 0 0)
(9.69153e-06 0 0)
(9.69166e-06 0 0)
(9.69178e-06 0 0)
(9.69191e-06 0 0)
(9.69204e-06 0 0)
(9.69217e-06 0 0)
(9.6923e-06 0 0)
(9.69244e-06 0 0)
(9.69258e-06 0 0)
(9.69272e-06 0 0)
(9.69286e-06 0 0)
(9.693e-06 0 0)
(9.69315e-06 0 0)
(9.6933e-06 0 0)
(9.69344e-06 0 0)
(9.69359e-06 0 0)
(9.69374e-06 0 0)
(9.69389e-06 0 0)
(9.69404e-06 0 0)
(9.69418e-06 0 0)
(9.69433e-06 0 0)
(9.69447e-06 0 0)
(9.69462e-06 0 0)
(9.69476e-06 0 0)
(9.6949e-06 0 0)
(9.69504e-06 0 0)
(9.69517e-06 0 0)
(9.6953e-06 0 0)
(9.69543e-06 0 0)
(9.69555e-06 0 0)
(9.69567e-06 0 0)
(9.69579e-06 0 0)
(9.6959e-06 0 0)
(9.69601e-06 0 0)
(9.69611e-06 0 0)
(9.69622e-06 0 0)
(9.69631e-06 0 0)
(9.6964e-06 0 0)
(9.69649e-06 0 0)
(9.69657e-06 0 0)
(9.69665e-06 0 0)
(9.69672e-06 0 0)
(9.69679e-06 0 0)
(9.69686e-06 0 0)
(9.69692e-06 0 0)
(9.69697e-06 0 0)
(9.69702e-06 0 0)
(9.69707e-06 0 0)
(9.69712e-06 0 0)
(9.69715e-06 0 0)
(9.69719e-06 0 0)
(9.69722e-06 0 0)
(9.69725e-06 0 0)
(9.69727e-06 0 0)
(9.69729e-06 0 0)
(9.6973e-06 0 0)
(9.69732e-06 0 0)
(9.69732e-06 0 0)
(9.69733e-06 0 0)
(9.69733e-06 0 0)
(9.69733e-06 0 0)
(9.69733e-06 0 0)
(9.69733e-06 0 0)
(9.69731e-06 0 0)
(9.6973e-06 0 0)
(9.69728e-06 0 0)
(9.69726e-06 0 0)
(9.69723e-06 0 0)
(9.69721e-06 0 0)
(9.69718e-06 0 0)
(9.69714e-06 0 0)
(9.69711e-06 0 0)
(9.69707e-06 0 0)
(9.69703e-06 0 0)
(9.69699e-06 0 0)
(9.69694e-06 0 0)
(9.69689e-06 0 0)
(9.69684e-06 0 0)
(9.69679e-06 0 0)
(9.69673e-06 0 0)
(9.69667e-06 0 0)
(9.69661e-06 0 0)
(9.69655e-06 0 0)
(9.69648e-06 0 0)
(9.69641e-06 0 0)
(9.69634e-06 0 0)
(9.69626e-06 0 0)
(9.69619e-06 0 0)
(9.69611e-06 0 0)
(9.69602e-06 0 0)
(9.69594e-06 0 0)
(9.69585e-06 0 0)
(9.69576e-06 0 0)
(9.69566e-06 0 0)
(9.69557e-06 0 0)
(9.69546e-06 0 0)
(9.69536e-06 0 0)
(9.69525e-06 0 0)
(9.69513e-06 0 0)
(9.69501e-06 0 0)
(9.69489e-06 0 0)
(9.69475e-06 0 0)
(9.69462e-06 0 0)
(9.69447e-06 0 0)
(9.69432e-06 0 0)
(9.69416e-06 0 0)
(9.69399e-06 0 0)
(9.69382e-06 0 0)
(9.69363e-06 0 0)
(9.69343e-06 0 0)
(9.69322e-06 0 0)
(9.69301e-06 0 0)
(9.69277e-06 0 0)
(9.69253e-06 0 0)
(9.69227e-06 0 0)
(9.692e-06 0 0)
(9.69171e-06 0 0)
(9.6914e-06 0 0)
(9.69109e-06 0 0)
(9.69075e-06 0 0)
(9.6904e-06 0 0)
(9.69003e-06 0 0)
(9.68965e-06 0 0)
(9.68925e-06 0 0)
(9.68883e-06 0 0)
(9.68839e-06 0 0)
(9.68794e-06 0 0)
(9.68748e-06 0 0)
(9.687e-06 0 0)
(9.68651e-06 0 0)
(9.686e-06 0 0)
(9.68548e-06 0 0)
(9.68496e-06 0 0)
(9.68443e-06 0 0)
(9.68389e-06 0 0)
(9.68334e-06 0 0)
(9.6828e-06 0 0)
(9.68225e-06 0 0)
(9.68171e-06 0 0)
(9.68117e-06 0 0)
(9.68064e-06 0 0)
(9.68012e-06 0 0)
(9.67961e-06 0 0)
(9.67912e-06 0 0)
(9.67865e-06 0 0)
(9.6782e-06 0 0)
(9.67778e-06 0 0)
(9.67739e-06 0 0)
(9.67702e-06 0 0)
(9.67669e-06 0 0)
(9.6764e-06 0 0)
(9.67614e-06 0 0)
(9.67592e-06 0 0)
(9.67575e-06 0 0)
(9.67562e-06 0 0)
(9.67554e-06 0 0)
(9.67549e-06 0 0)
(9.67548e-06 0 0)
(9.67548e-06 0 0)
(9.67551e-06 0 0)
(9.67562e-06 0 0)
(9.67581e-06 0 0)
(9.67605e-06 0 0)
(9.67632e-06 0 0)
(9.67663e-06 0 0)
(9.67698e-06 0 0)
(9.67736e-06 0 0)
(9.67778e-06 0 0)
(9.67822e-06 0 0)
(9.67869e-06 0 0)
(9.67917e-06 0 0)
(9.67968e-06 0 0)
(9.68019e-06 0 0)
(9.68072e-06 0 0)
(9.68125e-06 0 0)
(9.68178e-06 0 0)
(9.68232e-06 0 0)
(9.68284e-06 0 0)
(9.68336e-06 0 0)
(9.68387e-06 0 0)
(9.68437e-06 0 0)
(9.68485e-06 0 0)
(9.68532e-06 0 0)
(9.68577e-06 0 0)
(9.6862e-06 0 0)
(9.68661e-06 0 0)
(9.687e-06 0 0)
(9.68737e-06 0 0)
(9.68772e-06 0 0)
(9.68804e-06 0 0)
(9.68835e-06 0 0)
(9.68864e-06 0 0)
(9.68891e-06 0 0)
(9.68917e-06 0 0)
(9.6894e-06 0 0)
(9.68962e-06 0 0)
(9.68983e-06 0 0)
(9.69002e-06 0 0)
(9.6902e-06 0 0)
(9.69037e-06 0 0)
(9.69053e-06 0 0)
(9.69068e-06 0 0)
(9.69082e-06 0 0)
(9.69096e-06 0 0)
(9.69109e-06 0 0)
(9.69121e-06 0 0)
(9.69133e-06 0 0)
(9.69145e-06 0 0)
(9.69157e-06 0 0)
(9.69169e-06 0 0)
(9.6918e-06 0 0)
(9.69191e-06 0 0)
(9.69203e-06 0 0)
(9.69214e-06 0 0)
(9.69226e-06 0 0)
(9.69237e-06 0 0)
(9.69249e-06 0 0)
(9.69261e-06 0 0)
(9.69272e-06 0 0)
(9.69284e-06 0 0)
(9.69296e-06 0 0)
(9.69309e-06 0 0)
(9.69321e-06 0 0)
(9.69333e-06 0 0)
(9.69346e-06 0 0)
(9.69358e-06 0 0)
(9.6937e-06 0 0)
(9.69383e-06 0 0)
(9.69395e-06 0 0)
(9.69408e-06 0 0)
(9.6942e-06 0 0)
(9.69433e-06 0 0)
(9.69445e-06 0 0)
(9.69457e-06 0 0)
(9.69469e-06 0 0)
(9.6948e-06 0 0)
(9.69492e-06 0 0)
(9.69503e-06 0 0)
(9.69514e-06 0 0)
(9.69525e-06 0 0)
(9.69536e-06 0 0)
(9.69546e-06 0 0)
(9.69556e-06 0 0)
(9.69566e-06 0 0)
(9.69575e-06 0 0)
(9.69584e-06 0 0)
(9.69592e-06 0 0)
(9.69601e-06 0 0)
(9.69609e-06 0 0)
(9.69616e-06 0 0)
(9.69623e-06 0 0)
(9.6963e-06 0 0)
(9.69636e-06 0 0)
(9.69642e-06 0 0)
(9.69647e-06 0 0)
(9.69652e-06 0 0)
(9.69657e-06 0 0)
(9.69661e-06 0 0)
(9.69665e-06 0 0)
(9.69668e-06 0 0)
(9.69671e-06 0 0)
(9.69674e-06 0 0)
(9.69676e-06 0 0)
(9.69678e-06 0 0)
(9.69679e-06 0 0)
(9.6968e-06 0 0)
(9.6968e-06 0 0)
(9.69681e-06 0 0)
(9.69681e-06 0 0)
(9.69681e-06 0 0)
(9.6968e-06 0 0)
(9.6968e-06 0 0)
(9.69679e-06 0 0)
)
;

boundaryField
{
    inlet
    {
        type            fixedValue;
        value           uniform (0 0 0);
    }
    outlet
    {
        type            zeroGradient;
    }
    emptyWalls
    {
        type            empty;
    }
}


// ************************************************************************* //
