/*--------------------------------*- C++ -*----------------------------------*\
  =========                 |
  \\      /  F ield         | OpenFOAM: The Open Source CFD Toolbox
   \\    /   O peration     | Website:  https://openfoam.org
    \\  /    A nd           | Version:  9
     \\/     M anipulation  |
\*---------------------------------------------------------------------------*/
FoamFile
{
    format      ascii;
    class       volScalarField;
    location    "200";
    object      Nca;
}
// * * * * * * * * * * * * * * * * * * * * * * * * * * * * * * * * * * * * * //

dimensions      [0 0 0 0 0 0 0];

internalField   nonuniform List<scalar> 
100
(
0.000299875
0.000226279
0.000240653
0.00022258
0.000213617
0.000192461
0.000132577
6.10516e-05
2.67129e-05
1.3805e-05
1.22925e-05
1.22639e-05
1.22636e-05
1.22636e-05
1.22636e-05
1.22636e-05
1.22636e-05
1.22636e-05
1.22636e-05
1.22636e-05
1.22636e-05
1.22636e-05
1.22636e-05
1.22636e-05
1.22636e-05
1.22636e-05
1.22636e-05
1.22636e-05
1.22636e-05
1.22636e-05
1.22636e-05
1.22636e-05
1.22636e-05
1.22636e-05
1.22636e-05
1.22636e-05
1.22636e-05
1.22636e-05
1.22636e-05
1.22636e-05
1.22636e-05
1.22636e-05
1.22636e-05
1.22636e-05
1.22636e-05
1.22636e-05
1.22636e-05
1.22636e-05
1.22636e-05
1.22636e-05
1.22636e-05
1.22636e-05
1.22636e-05
1.22636e-05
1.22636e-05
1.22636e-05
1.22636e-05
1.22636e-05
1.22636e-05
1.22636e-05
1.22636e-05
1.22636e-05
1.22636e-05
1.22636e-05
1.22636e-05
1.22636e-05
1.22636e-05
1.22636e-05
1.22636e-05
1.22636e-05
1.22636e-05
1.22636e-05
1.22636e-05
1.22636e-05
1.22636e-05
1.22636e-05
1.22636e-05
1.22636e-05
1.22636e-05
1.22636e-05
1.22636e-05
1.22636e-05
1.22636e-05
1.22636e-05
1.22636e-05
1.22636e-05
1.22636e-05
1.22636e-05
1.22636e-05
1.22636e-05
1.22636e-05
1.22636e-05
1.22636e-05
1.22636e-05
1.22636e-05
1.22636e-05
1.22636e-05
1.22636e-05
1.22636e-05
1.22636e-05
)
;

boundaryField
{
    inlet
    {
        type            calculated;
        value           uniform 0.000406839;
    }
    outlet
    {
        type            calculated;
        value           uniform 1.22636e-05;
    }
    emptyWalls
    {
        type            empty;
    }
}


// ************************************************************************* //
