/*--------------------------------*- C++ -*----------------------------------*\
  =========                 |
  \\      /  F ield         | OpenFOAM: The Open Source CFD Toolbox
   \\    /   O peration     | Website:  https://openfoam.org
    \\  /    A nd           | Version:  9
     \\/     M anipulation  |
\*---------------------------------------------------------------------------*/
FoamFile
{
    format      ascii;
    class       volVectorField;
    location    "200";
    object      Ub;
}
// * * * * * * * * * * * * * * * * * * * * * * * * * * * * * * * * * * * * * //

dimensions      [0 0 0 0 0 0 0];

internalField   nonuniform List<vector> 
100
(
(0 0 7.53259e-06)
(0 0 4.85553e-06)
(0 0 4.87194e-06)
(0 0 4.89147e-06)
(0 0 4.92622e-06)
(0 0 5.02061e-06)
(0 0 5.54978e-06)
(0 0 7.22109e-06)
(0 0 1.20749e-05)
(0 0 1.58507e-05)
(0 0 1.59889e-05)
(0 0 1.59905e-05)
(0 0 1.59905e-05)
(0 0 1.59905e-05)
(0 0 1.59905e-05)
(0 0 1.59905e-05)
(0 0 1.59905e-05)
(0 0 1.59905e-05)
(0 0 1.59905e-05)
(0 0 1.59905e-05)
(0 0 1.59905e-05)
(0 0 1.59905e-05)
(0 0 1.59905e-05)
(0 0 1.59905e-05)
(0 0 1.59905e-05)
(0 0 1.59905e-05)
(0 0 1.59905e-05)
(0 0 1.59905e-05)
(0 0 1.59905e-05)
(0 0 1.59905e-05)
(0 0 1.59905e-05)
(0 0 1.59905e-05)
(0 0 1.59905e-05)
(0 0 1.59905e-05)
(0 0 1.59905e-05)
(0 0 1.59905e-05)
(0 0 1.59905e-05)
(0 0 1.59905e-05)
(0 0 1.59905e-05)
(0 0 1.59905e-05)
(0 0 1.59905e-05)
(0 0 1.59905e-05)
(0 0 1.59905e-05)
(0 0 1.59905e-05)
(0 0 1.59905e-05)
(0 0 1.59905e-05)
(0 0 1.59905e-05)
(0 0 1.59905e-05)
(0 0 1.59905e-05)
(0 0 1.59905e-05)
(0 0 1.59905e-05)
(0 0 1.59905e-05)
(0 0 1.59905e-05)
(0 0 1.59905e-05)
(0 0 1.59905e-05)
(0 0 1.59905e-05)
(0 0 1.59905e-05)
(0 0 1.59905e-05)
(0 0 1.59905e-05)
(0 0 1.59905e-05)
(0 0 1.59905e-05)
(0 0 1.59905e-05)
(0 0 1.59905e-05)
(0 0 1.59905e-05)
(0 0 1.59905e-05)
(0 0 1.59905e-05)
(0 0 1.59905e-05)
(0 0 1.59905e-05)
(0 0 1.59905e-05)
(0 0 1.59905e-05)
(0 0 1.59905e-05)
(0 0 1.59905e-05)
(0 0 1.59905e-05)
(0 0 1.59905e-05)
(0 0 1.59905e-05)
(0 0 1.59905e-05)
(0 0 1.59905e-05)
(0 0 1.59905e-05)
(0 0 1.59905e-05)
(0 0 1.59905e-05)
(0 0 1.59905e-05)
(0 0 1.59905e-05)
(0 0 1.59905e-05)
(0 0 1.59905e-05)
(0 0 1.59905e-05)
(0 0 1.59905e-05)
(0 0 1.59905e-05)
(0 0 1.59905e-05)
(0 0 1.59905e-05)
(0 0 1.59905e-05)
(0 0 1.59905e-05)
(0 0 1.59905e-05)
(0 0 1.59905e-05)
(0 0 1.59905e-05)
(0 0 1.59905e-05)
(0 0 1.59905e-05)
(0 0 1.59905e-05)
(0 0 1.59905e-05)
(0 0 1.59905e-05)
(0 0 1.59905e-05)
)
;

boundaryField
{
    inlet
    {
        type            fixedValue;
        value           uniform (0 0 4.84716e-06);
    }
    outlet
    {
        type            zeroGradient;
    }
    emptyWalls
    {
        type            empty;
    }
}


// ************************************************************************* //
