/*--------------------------------*- C++ -*----------------------------------*\
  =========                 |
  \\      /  F ield         | OpenFOAM: The Open Source CFD Toolbox
   \\    /   O peration     | Website:  https://openfoam.org
    \\  /    A nd           | Version:  9
     \\/     M anipulation  |
\*---------------------------------------------------------------------------*/
FoamFile
{
    format      ascii;
    class       volScalarField;
    location    "400";
    object      Fa;
}
// * * * * * * * * * * * * * * * * * * * * * * * * * * * * * * * * * * * * * //

dimensions      [0 0 0 0 0 0 0];

internalField   nonuniform List<scalar> 
100
(
0.694888
0.690742
0.684438
0.678157
0.670294
0.662797
0.652775
0.644258
0.633452
0.621479
0.601006
0.555445
0.33756
0.0104632
2.10285e-06
2.25487e-14
2.10811e-31
2.31657e-33
1.35718e-33
1.47496e-33
1.35053e-33
1.51755e-33
1.39137e-33
1.39137e-33
1.39137e-33
1.51755e-33
1.35053e-33
1.51755e-33
1.39137e-33
1.69436e-33
1.39137e-33
1.51755e-33
1.51755e-33
1.47488e-33
1.39137e-33
1.47488e-33
1.51755e-33
1.39137e-33
1.39137e-33
1.47488e-33
1.51755e-33
1.51755e-33
1.51755e-33
1.51755e-33
1.51755e-33
1.39137e-33
1.51755e-33
1.51755e-33
1.39137e-33
1.51755e-33
1.47488e-33
1.39137e-33
1.39137e-33
1.51755e-33
1.39137e-33
1.47488e-33
1.39137e-33
1.39137e-33
1.47488e-33
1.51755e-33
1.47488e-33
1.51755e-33
1.47488e-33
1.39137e-33
1.39137e-33
1.64924e-33
1.51755e-33
1.60473e-33
1.39137e-33
1.39137e-33
1.51755e-33
1.60473e-33
1.51755e-33
1.64924e-33
1.60473e-33
1.64924e-33
1.51755e-33
1.51755e-33
1.51755e-33
1.60473e-33
1.39137e-33
1.64924e-33
1.51755e-33
1.51755e-33
1.60473e-33
1.35053e-33
1.64924e-33
1.51755e-33
1.60473e-33
1.64924e-33
1.60473e-33
1.64924e-33
1.51755e-33
1.60473e-33
1.64924e-33
1.39137e-33
1.60473e-33
1.64924e-33
1.60473e-33
1.64924e-33
)
;

boundaryField
{
    inlet
    {
        type            calculated;
        value           uniform 0.364462;
    }
    outlet
    {
        type            calculated;
        value           uniform 5.9205e-34;
    }
    emptyWalls
    {
        type            empty;
    }
}


// ************************************************************************* //
