/*--------------------------------*- C++ -*----------------------------------*\
  =========                 |
  \\      /  F ield         | OpenFOAM: The Open Source CFD Toolbox
   \\    /   O peration     | Website:  https://openfoam.org
    \\  /    A nd           | Version:  9
     \\/     M anipulation  |
\*---------------------------------------------------------------------------*/
FoamFile
{
    format      ascii;
    class       volScalarField;
    location    "400";
    object      kra;
}
// * * * * * * * * * * * * * * * * * * * * * * * * * * * * * * * * * * * * * //

dimensions      [0 0 0 0 0 0 0];

internalField   nonuniform List<scalar> 
100
(
3.69015e-05
2.64326e-05
2.79426e-05
2.72512e-05
2.79518e-05
2.78623e-05
2.80866e-05
2.80868e-05
2.81108e-05
2.80595e-05
2.79154e-05
2.73718e-05
2.24502e-05
2.02445e-06
4.86162e-10
5.22672e-18
5.1873e-35
1.58761e-36
1.08175e-36
1.17771e-36
1.07838e-36
1.21174e-36
1.11099e-36
1.11099e-36
1.11099e-36
1.21174e-36
1.07838e-36
1.21174e-36
1.11099e-36
1.35292e-36
1.11099e-36
1.21174e-36
1.21174e-36
1.17767e-36
1.11099e-36
1.17767e-36
1.21174e-36
1.11099e-36
1.11099e-36
1.17767e-36
1.21174e-36
1.21174e-36
1.21174e-36
1.21174e-36
1.21174e-36
1.11099e-36
1.21174e-36
1.21174e-36
1.11099e-36
1.21174e-36
1.17767e-36
1.11099e-36
1.11099e-36
1.21174e-36
1.11099e-36
1.17767e-36
1.11099e-36
1.11099e-36
1.17767e-36
1.21174e-36
1.17767e-36
1.21174e-36
1.17767e-36
1.11099e-36
1.11099e-36
1.31689e-36
1.21174e-36
1.28135e-36
1.11099e-36
1.11099e-36
1.21174e-36
1.28135e-36
1.21174e-36
1.31689e-36
1.28135e-36
1.31689e-36
1.21174e-36
1.21174e-36
1.21174e-36
1.28135e-36
1.11099e-36
1.31689e-36
1.21174e-36
1.21174e-36
1.28135e-36
1.07838e-36
1.31689e-36
1.21174e-36
1.28135e-36
1.31689e-36
1.28135e-36
1.31689e-36
1.21174e-36
1.28135e-36
1.31689e-36
1.11099e-36
1.28135e-36
1.31689e-36
1.28135e-36
1.31689e-36
)
;

boundaryField
{
    inlet
    {
        type            calculated;
        value           uniform 9.29179e-06;
    }
    outlet
    {
        type            calculated;
        value           uniform 4.72742e-37;
    }
    emptyWalls
    {
        type            empty;
    }
}


// ************************************************************************* //
