/*--------------------------------*- C++ -*----------------------------------*\
  =========                 |
  \\      /  F ield         | OpenFOAM: The Open Source CFD Toolbox
   \\    /   O peration     | Website:  https://openfoam.org
    \\  /    A nd           | Version:  9
     \\/     M anipulation  |
\*---------------------------------------------------------------------------*/
FoamFile
{
    format      ascii;
    class       volVectorField;
    location    "400";
    object      Ua;
}
// * * * * * * * * * * * * * * * * * * * * * * * * * * * * * * * * * * * * * //

dimensions      [0 0 0 0 0 0 0];

internalField   nonuniform List<vector> 
100
(
(0 0 8.55806e-06)
(0 0 1.11841e-05)
(0 0 1.10867e-05)
(0 0 1.09687e-05)
(0 0 1.08399e-05)
(0 0 1.07019e-05)
(0 0 1.05533e-05)
(0 0 1.03988e-05)
(0 0 1.02302e-05)
(0 0 1.00086e-05)
(0 0 9.63712e-06)
(0 0 8.85803e-06)
(0 0 5.85026e-06)
(0 0 1.72963e-06)
(0 0 3.85289e-08)
(0 0 8.48295e-12)
(0 0 9.08977e-20)
(0 0 8.44046e-37)
(0 0 2.55017e-38)
(0 0 2.28699e-38)
(0 0 2.28259e-38)
(0 0 2.31701e-38)
(0 0 2.35e-38)
(0 0 2.24807e-38)
(0 0 2.24807e-38)
(0 0 2.35e-38)
(0 0 2.31701e-38)
(0 0 2.31701e-38)
(0 0 2.35e-38)
(0 0 2.49284e-38)
(0 0 2.49284e-38)
(0 0 2.35e-38)
(0 0 2.45194e-38)
(0 0 2.38374e-38)
(0 0 2.2818e-38)
(0 0 2.33277e-38)
(0 0 2.4347e-38)
(0 0 2.35e-38)
(0 0 2.24807e-38)
(0 0 2.33277e-38)
(0 0 2.4347e-38)
(0 0 2.45194e-38)
(0 0 2.45194e-38)
(0 0 2.45194e-38)
(0 0 2.45194e-38)
(0 0 2.35e-38)
(0 0 2.35e-38)
(0 0 2.45194e-38)
(0 0 2.35e-38)
(0 0 2.35e-38)
(0 0 2.38374e-38)
(0 0 2.2818e-38)
(0 0 2.24807e-38)
(0 0 2.35e-38)
(0 0 2.35e-38)
(0 0 2.31553e-38)
(0 0 2.31553e-38)
(0 0 2.24807e-38)
(0 0 2.33277e-38)
(0 0 2.4347e-38)
(0 0 2.41747e-38)
(0 0 2.41747e-38)
(0 0 2.38374e-38)
(0 0 2.2818e-38)
(0 0 2.24807e-38)
(0 0 2.45639e-38)
(0 0 2.55833e-38)
(0 0 2.52237e-38)
(0 0 2.42043e-38)
(0 0 2.24807e-38)
(0 0 2.38522e-38)
(0 0 2.55759e-38)
(0 0 2.52237e-38)
(0 0 2.55833e-38)
(0 0 2.62876e-38)
(0 0 2.62876e-38)
(0 0 2.55833e-38)
(0 0 2.45194e-38)
(0 0 2.45194e-38)
(0 0 2.52237e-38)
(0 0 2.42043e-38)
(0 0 2.45639e-38)
(0 0 2.55833e-38)
(0 0 2.45194e-38)
(0 0 2.52237e-38)
(0 0 2.38744e-38)
(0 0 2.4234e-38)
(0 0 2.55833e-38)
(0 0 2.54035e-38)
(0 0 2.64673e-38)
(0 0 2.62876e-38)
(0 0 2.62876e-38)
(0 0 2.55833e-38)
(0 0 2.54035e-38)
(0 0 2.64673e-38)
(0 0 2.45639e-38)
(0 0 2.43841e-38)
(0 0 2.64673e-38)
(0 0 2.62876e-38)
(0 0 1.77469e-38)
)
;

boundaryField
{
    inlet
    {
        type            fixedValue;
        value           uniform (0 0 1.131e-05);
    }
    outlet
    {
        type            zeroGradient;
    }
    emptyWalls
    {
        type            empty;
    }
}


// ************************************************************************* //
