/*--------------------------------*- C++ -*----------------------------------*\
  =========                 |
  \\      /  F ield         | OpenFOAM: The Open Source CFD Toolbox
   \\    /   O peration     | Website:  https://openfoam.org
    \\  /    A nd           | Version:  9
     \\/     M anipulation  |
\*---------------------------------------------------------------------------*/
FoamFile
{
    format      ascii;
    class       surfaceScalarField;
    location    "5850";
    object      phia;
}
// * * * * * * * * * * * * * * * * * * * * * * * * * * * * * * * * * * * * * //

dimensions      [0 2 0 0 0 0 0];

internalField   nonuniform List<scalar> 
999
(
2.74709e-10
2.74645e-10
2.74427e-10
2.74249e-10
2.73916e-10
2.72856e-10
2.69135e-10
2.47323e-10
2.19582e-10
2.15994e-10
2.15101e-10
2.14138e-10
2.12884e-10
2.118e-10
2.10619e-10
2.09339e-10
2.08015e-10
2.06908e-10
2.05908e-10
2.05143e-10
2.0462e-10
2.04379e-10
2.04352e-10
2.04412e-10
2.04526e-10
2.04662e-10
2.04795e-10
2.0491e-10
2.04995e-10
2.05047e-10
2.05063e-10
2.05047e-10
2.05002e-10
2.04935e-10
2.0485e-10
2.04754e-10
2.0465e-10
2.04541e-10
2.04428e-10
2.04313e-10
2.04196e-10
2.04079e-10
2.03961e-10
2.03845e-10
2.03728e-10
2.03611e-10
2.03495e-10
2.03378e-10
2.03261e-10
2.03145e-10
2.03029e-10
2.02915e-10
2.02802e-10
2.02692e-10
2.02583e-10
2.02477e-10
2.02373e-10
2.02272e-10
2.02174e-10
2.02078e-10
2.01984e-10
2.01892e-10
2.01803e-10
2.01715e-10
2.01628e-10
2.01542e-10
2.01457e-10
2.01372e-10
2.01288e-10
2.01204e-10
2.01121e-10
2.01038e-10
2.00956e-10
2.00874e-10
2.00792e-10
2.00711e-10
2.0063e-10
2.0055e-10
2.0047e-10
2.00391e-10
2.00313e-10
2.00237e-10
2.00161e-10
2.00087e-10
2.00015e-10
1.99946e-10
1.99878e-10
1.99813e-10
1.99751e-10
1.99691e-10
1.99634e-10
1.99579e-10
1.99526e-10
1.99475e-10
1.99427e-10
1.99379e-10
1.99334e-10
1.99289e-10
1.99245e-10
1.99202e-10
1.99159e-10
1.99116e-10
1.99073e-10
1.9903e-10
1.98986e-10
1.98941e-10
1.98896e-10
1.98849e-10
1.98802e-10
1.98753e-10
1.98703e-10
1.98653e-10
1.98602e-10
1.98553e-10
1.98503e-10
1.98455e-10
1.98407e-10
1.98363e-10
1.98319e-10
1.98278e-10
1.98239e-10
1.982e-10
1.98163e-10
1.98127e-10
1.98094e-10
1.98061e-10
1.98034e-10
1.9801e-10
1.97994e-10
1.97987e-10
1.9799e-10
1.98005e-10
1.98034e-10
1.98079e-10
1.98139e-10
1.98215e-10
1.98306e-10
1.98411e-10
1.9853e-10
1.98657e-10
1.98793e-10
1.98932e-10
1.99071e-10
1.99206e-10
1.99332e-10
1.99444e-10
1.99537e-10
1.99606e-10
1.99647e-10
1.99655e-10
1.99626e-10
1.99559e-10
1.9945e-10
1.993e-10
1.99109e-10
1.9888e-10
1.98616e-10
1.98322e-10
1.98003e-10
1.97667e-10
1.9732e-10
1.96969e-10
1.96621e-10
1.96282e-10
1.95958e-10
1.95653e-10
1.95372e-10
1.95115e-10
1.94886e-10
1.94683e-10
1.94506e-10
1.94355e-10
1.94227e-10
1.9412e-10
1.94031e-10
1.93958e-10
1.93897e-10
1.93846e-10
1.93803e-10
1.93764e-10
1.93728e-10
1.93693e-10
1.93657e-10
1.93618e-10
1.93577e-10
1.93531e-10
1.93481e-10
1.93426e-10
1.93366e-10
1.933e-10
1.9323e-10
1.93154e-10
1.93074e-10
1.9299e-10
1.92901e-10
1.92808e-10
1.92712e-10
1.92613e-10
1.92511e-10
1.92406e-10
1.92298e-10
1.92189e-10
1.92077e-10
1.91964e-10
1.91849e-10
1.91733e-10
1.91615e-10
1.91497e-10
1.91377e-10
1.91257e-10
1.91137e-10
1.91016e-10
1.90896e-10
1.90776e-10
1.90656e-10
1.90538e-10
1.90421e-10
1.90307e-10
1.90195e-10
1.90086e-10
1.89982e-10
1.89881e-10
1.89786e-10
1.89695e-10
1.89608e-10
1.89523e-10
1.89436e-10
1.8934e-10
1.89222e-10
1.89059e-10
1.8882e-10
1.8846e-10
1.87938e-10
1.87249e-10
1.86479e-10
1.85786e-10
1.85297e-10
1.85013e-10
1.84866e-10
1.84791e-10
1.8475e-10
1.84725e-10
1.84708e-10
1.84696e-10
1.84686e-10
1.84677e-10
1.84668e-10
1.84661e-10
1.84653e-10
1.84646e-10
1.8464e-10
1.84633e-10
1.84626e-10
1.8462e-10
1.84614e-10
1.84608e-10
1.84602e-10
1.84596e-10
1.84591e-10
1.84586e-10
1.84581e-10
1.84576e-10
1.84572e-10
1.84569e-10
1.84565e-10
1.84563e-10
1.84561e-10
1.8456e-10
1.8456e-10
1.8456e-10
1.8456e-10
1.84561e-10
1.84564e-10
1.84568e-10
1.84572e-10
1.84578e-10
1.84585e-10
1.84593e-10
1.84601e-10
1.84611e-10
1.84622e-10
1.84634e-10
1.84647e-10
1.84661e-10
1.84676e-10
1.84691e-10
1.84708e-10
1.84726e-10
1.84744e-10
1.84763e-10
1.84783e-10
1.84803e-10
1.84824e-10
1.84845e-10
1.84867e-10
1.84889e-10
1.84912e-10
1.84935e-10
1.84959e-10
1.84983e-10
1.85008e-10
1.85032e-10
1.85058e-10
1.85084e-10
1.8511e-10
1.85138e-10
1.85165e-10
1.85194e-10
1.85223e-10
1.85254e-10
1.85285e-10
1.85318e-10
1.85352e-10
1.85388e-10
1.85425e-10
1.85465e-10
1.85507e-10
1.85552e-10
1.856e-10
1.85652e-10
1.85707e-10
1.85766e-10
1.8583e-10
1.85899e-10
1.85972e-10
1.86051e-10
1.86135e-10
1.86225e-10
1.86321e-10
1.86422e-10
1.86528e-10
1.86639e-10
1.86755e-10
1.86875e-10
1.86999e-10
1.87126e-10
1.87254e-10
1.87384e-10
1.87513e-10
1.87641e-10
1.87767e-10
1.87888e-10
1.88004e-10
1.88112e-10
1.88212e-10
1.88302e-10
1.8838e-10
1.88445e-10
1.88496e-10
1.8853e-10
1.88549e-10
1.88555e-10
1.88555e-10
1.8855e-10
1.88522e-10
1.88455e-10
1.88374e-10
1.88278e-10
1.88168e-10
1.88045e-10
1.87912e-10
1.8777e-10
1.87622e-10
1.87469e-10
1.87314e-10
1.87159e-10
1.87005e-10
1.86856e-10
1.86712e-10
1.86576e-10
1.86447e-10
1.86328e-10
1.8622e-10
1.86122e-10
1.86035e-10
1.85959e-10
1.85894e-10
1.85839e-10
1.85794e-10
1.85759e-10
1.85732e-10
1.85712e-10
1.857e-10
1.85694e-10
1.85692e-10
1.85692e-10
1.85692e-10
1.85702e-10
1.85714e-10
1.85729e-10
1.85743e-10
1.85758e-10
1.85772e-10
1.85786e-10
1.85798e-10
1.85809e-10
1.85818e-10
1.85825e-10
1.8583e-10
1.85833e-10
1.85835e-10
1.85835e-10
1.85835e-10
1.85833e-10
1.85827e-10
1.85818e-10
1.85808e-10
1.85796e-10
1.85783e-10
1.85768e-10
1.85752e-10
1.85735e-10
1.85717e-10
1.85697e-10
1.85677e-10
1.85656e-10
1.85634e-10
1.85611e-10
1.85588e-10
1.85564e-10
1.85539e-10
1.85514e-10
1.85488e-10
1.85462e-10
1.85436e-10
1.85409e-10
1.85382e-10
1.85355e-10
1.85328e-10
1.853e-10
1.85273e-10
1.85245e-10
1.85218e-10
1.8519e-10
1.85163e-10
1.85136e-10
1.8511e-10
1.85084e-10
1.85058e-10
1.85032e-10
1.85008e-10
1.84983e-10
1.8496e-10
1.84937e-10
1.84915e-10
1.84893e-10
1.84873e-10
1.84853e-10
1.84834e-10
1.84817e-10
1.848e-10
1.84784e-10
1.84769e-10
1.84754e-10
1.84741e-10
1.84729e-10
1.84717e-10
1.84707e-10
1.84697e-10
1.84689e-10
1.84681e-10
1.84673e-10
1.84667e-10
1.84661e-10
1.84656e-10
1.84652e-10
1.84648e-10
1.84644e-10
1.84641e-10
1.84639e-10
1.84637e-10
1.84635e-10
1.84634e-10
1.84633e-10
1.84632e-10
1.84632e-10
1.84632e-10
1.84632e-10
1.84632e-10
1.84632e-10
1.84633e-10
1.84634e-10
1.84635e-10
1.84637e-10
1.84639e-10
1.84641e-10
1.84644e-10
1.84647e-10
1.84651e-10
1.84655e-10
1.8466e-10
1.84666e-10
1.84672e-10
1.84679e-10
1.84686e-10
1.84695e-10
1.84704e-10
1.84715e-10
1.84726e-10
1.84738e-10
1.84752e-10
1.84767e-10
1.84782e-10
1.84799e-10
1.84817e-10
1.84837e-10
1.84857e-10
1.84879e-10
1.84902e-10
1.84926e-10
1.84952e-10
1.84979e-10
1.85007e-10
1.85036e-10
1.85067e-10
1.85099e-10
1.85132e-10
1.85167e-10
1.85203e-10
1.8524e-10
1.85279e-10
1.85319e-10
1.85361e-10
1.85405e-10
1.85451e-10
1.85499e-10
1.85549e-10
1.85601e-10
1.85656e-10
1.85713e-10
1.85773e-10
1.85836e-10
1.85903e-10
1.85972e-10
1.86044e-10
1.8612e-10
1.862e-10
1.86283e-10
1.86369e-10
1.86458e-10
1.86551e-10
1.86647e-10
1.86746e-10
1.86847e-10
1.8695e-10
1.87055e-10
1.87162e-10
1.87268e-10
1.87375e-10
1.87481e-10
1.87586e-10
1.87689e-10
1.87788e-10
1.87883e-10
1.87973e-10
1.88058e-10
1.88135e-10
1.88205e-10
1.88266e-10
1.88318e-10
1.88359e-10
1.88389e-10
1.88407e-10
1.88414e-10
1.88415e-10
1.88415e-10
1.88404e-10
1.8836e-10
1.88304e-10
1.88236e-10
1.88156e-10
1.88065e-10
1.87964e-10
1.87855e-10
1.87739e-10
1.87617e-10
1.8749e-10
1.8736e-10
1.87229e-10
1.87098e-10
1.86968e-10
1.8684e-10
1.86716e-10
1.86597e-10
1.86484e-10
1.86376e-10
1.86276e-10
1.86183e-10
1.86098e-10
1.8602e-10
1.8595e-10
1.85887e-10
1.85832e-10
1.85784e-10
1.85742e-10
1.85706e-10
1.85676e-10
1.85651e-10
1.85631e-10
1.85614e-10
1.85601e-10
1.8559e-10
1.85582e-10
1.85576e-10
1.85572e-10
1.85569e-10
1.85566e-10
1.85565e-10
1.85563e-10
1.85561e-10
1.85559e-10
1.85556e-10
1.85553e-10
1.85548e-10
1.85543e-10
1.85537e-10
1.85529e-10
1.85521e-10
1.85511e-10
1.85501e-10
1.85489e-10
1.85477e-10
1.85463e-10
1.85449e-10
1.85435e-10
1.85419e-10
1.85403e-10
1.85387e-10
1.8537e-10
1.85352e-10
1.85335e-10
1.85317e-10
1.85299e-10
1.8528e-10
1.85262e-10
1.85243e-10
1.85224e-10
1.85206e-10
1.85187e-10
1.85168e-10
1.85149e-10
1.8513e-10
1.85111e-10
1.85092e-10
1.85073e-10
1.85055e-10
1.85036e-10
1.85017e-10
1.84999e-10
1.8498e-10
1.84962e-10
1.84944e-10
1.84925e-10
1.84907e-10
1.84889e-10
1.84872e-10
1.84854e-10
1.84837e-10
1.8482e-10
1.84803e-10
1.84787e-10
1.84771e-10
1.84755e-10
1.8474e-10
1.84725e-10
1.84711e-10
1.84697e-10
1.84683e-10
1.84671e-10
1.84658e-10
1.84647e-10
1.84636e-10
1.84626e-10
1.84616e-10
1.84607e-10
1.84599e-10
1.84591e-10
1.84585e-10
1.84579e-10
1.84574e-10
1.84569e-10
1.84565e-10
1.84562e-10
1.8456e-10
1.84558e-10
1.84558e-10
1.84557e-10
1.84557e-10
1.84557e-10
1.84558e-10
1.84561e-10
1.84563e-10
1.84567e-10
1.8457e-10
1.84574e-10
1.84579e-10
1.84584e-10
1.84589e-10
1.84594e-10
1.846e-10
1.84606e-10
1.84612e-10
1.84619e-10
1.84626e-10
1.84632e-10
1.8464e-10
1.84647e-10
1.84655e-10
1.84662e-10
1.84671e-10
1.84679e-10
1.84688e-10
1.84697e-10
1.84707e-10
1.84718e-10
1.84729e-10
1.84741e-10
1.84753e-10
1.84766e-10
1.84781e-10
1.84796e-10
1.84813e-10
1.8483e-10
1.84849e-10
1.84869e-10
1.84891e-10
1.84915e-10
1.84939e-10
1.84966e-10
1.84995e-10
1.85025e-10
1.85057e-10
1.85092e-10
1.85129e-10
1.85168e-10
1.85209e-10
1.85253e-10
1.85299e-10
1.85348e-10
1.854e-10
1.85454e-10
1.85512e-10
1.85572e-10
1.85635e-10
1.85701e-10
1.8577e-10
1.85842e-10
1.85917e-10
1.85994e-10
1.86075e-10
1.86158e-10
1.86244e-10
1.86332e-10
1.86423e-10
1.86515e-10
1.86609e-10
1.86704e-10
1.868e-10
1.86897e-10
1.86993e-10
1.8709e-10
1.87185e-10
1.87279e-10
1.87371e-10
1.8746e-10
1.87546e-10
1.87628e-10
1.87705e-10
1.87776e-10
1.87842e-10
1.87901e-10
1.87952e-10
1.87996e-10
1.88031e-10
1.88056e-10
1.88071e-10
1.88078e-10
1.88079e-10
1.88079e-10
1.88071e-10
1.88038e-10
1.87993e-10
1.87937e-10
1.87873e-10
1.87799e-10
1.87717e-10
1.87627e-10
1.8753e-10
1.87427e-10
1.8732e-10
1.87209e-10
1.87096e-10
1.86981e-10
1.86866e-10
1.86752e-10
1.86639e-10
1.86529e-10
1.86423e-10
1.8632e-10
1.86222e-10
1.8613e-10
1.86043e-10
1.85962e-10
1.85888e-10
1.85819e-10
1.85757e-10
1.85701e-10
1.8565e-10
1.85606e-10
1.85567e-10
1.85533e-10
1.85504e-10
1.85479e-10
1.85458e-10
1.85441e-10
1.85427e-10
1.85415e-10
1.85407e-10
1.854e-10
1.85395e-10
1.85391e-10
1.85389e-10
1.85387e-10
1.85386e-10
1.85385e-10
1.85385e-10
1.85384e-10
1.85384e-10
1.85384e-10
1.85383e-10
1.85382e-10
1.85381e-10
1.85379e-10
1.85376e-10
1.85373e-10
1.8537e-10
1.85366e-10
1.85361e-10
1.85357e-10
1.85351e-10
1.85346e-10
1.8534e-10
1.85334e-10
1.85328e-10
1.85322e-10
1.85316e-10
1.8531e-10
1.85303e-10
1.85297e-10
1.8529e-10
1.85284e-10
1.85278e-10
1.85272e-10
1.85265e-10
1.85259e-10
1.85253e-10
1.85247e-10
1.85241e-10
1.85234e-10
1.85228e-10
1.85222e-10
1.85215e-10
1.85209e-10
1.85202e-10
1.85195e-10
1.85188e-10
1.85181e-10
1.85173e-10
1.85165e-10
1.85157e-10
1.85149e-10
1.8514e-10
1.8513e-10
1.85121e-10
1.85111e-10
1.851e-10
1.85089e-10
1.85078e-10
1.85067e-10
1.85055e-10
1.85042e-10
1.8503e-10
1.85016e-10
1.85003e-10
1.8499e-10
1.84976e-10
1.84962e-10
1.84948e-10
1.84933e-10
1.84919e-10
1.84905e-10
1.8489e-10
1.84876e-10
1.84862e-10
1.84849e-10
1.84835e-10
1.84822e-10
1.8481e-10
1.84797e-10
1.84786e-10
1.84775e-10
1.84765e-10
1.84755e-10
1.84746e-10
1.84738e-10
1.84731e-10
1.84724e-10
1.84719e-10
1.84714e-10
1.84711e-10
1.84709e-10
1.84708e-10
1.84708e-10
1.84708e-10
1.84708e-10
1.8471e-10
1.84712e-10
1.84716e-10
1.8472e-10
1.84727e-10
1.84733e-10
1.84741e-10
1.84749e-10
1.84759e-10
1.84769e-10
1.84782e-10
1.84795e-10
1.84808e-10
1.84822e-10
1.84837e-10
1.84851e-10
1.84867e-10
1.84885e-10
1.84901e-10
1.84918e-10
1.84938e-10
1.84957e-10
1.84973e-10
1.84995e-10
1.85018e-10
1.85037e-10
1.85059e-10
1.85088e-10
1.85112e-10
1.85134e-10
1.85167e-10
1.852e-10
1.85223e-10
1.85256e-10
1.85301e-10
1.85331e-10
1.85363e-10
1.85421e-10
1.8546e-10
1.85461e-10
1.85396e-10
1.83904e-10
1.78608e-10
1.32283e-10
8.33622e-12
1.29279e-14
5.01882e-21
7.06373e-35
2.66889e-64
6.82957e-127
6.25907e-260
0
0
0
0
0
0
0
0
0
0
0
0
0
0
0
0
0
0
0
0
0
0
0
0
0
0
0
0
0
0
0
0
0
)
;

boundaryField
{
    inlet
    {
        type            calculated;
        value           uniform -2.74882e-10;
    }
    outlet
    {
        type            calculated;
        value           uniform 0;
    }
    emptyWalls
    {
        type            empty;
        value           nonuniform List<scalar> 0();
    }
}


// ************************************************************************* //
