/*--------------------------------*- C++ -*----------------------------------*\
  =========                 |
  \\      /  F ield         | OpenFOAM: The Open Source CFD Toolbox
   \\    /   O peration     | Website:  https://openfoam.org
    \\  /    A nd           | Version:  9
     \\/     M anipulation  |
\*---------------------------------------------------------------------------*/
FoamFile
{
    format      ascii;
    class       volScalarField;
    location    "20600";
    object      Fb;
}
// * * * * * * * * * * * * * * * * * * * * * * * * * * * * * * * * * * * * * //

dimensions      [0 0 0 0 0 0 0];

internalField   nonuniform List<scalar> 
1000
(
0.805264
0.805119
0.805277
0.80514
0.805268
0.805198
0.805258
0.805262
0.805283
0.805307
0.805333
0.805346
0.805381
0.805401
0.805435
0.805477
0.805496
0.805569
0.805538
0.805667
0.805569
0.805739
0.805628
0.805761
0.805699
0.805778
0.805821
0.806164
0.808549
0.825355
0.832745
0.834138
0.834667
0.834957
0.835163
0.835329
0.835453
0.83553
0.835575
0.835622
0.835693
0.835781
0.835843
0.835821
0.835672
0.83539
0.835011
0.834602
0.834233
0.83396
0.833804
0.833747
0.833745
0.833752
0.833774
0.833951
0.834294
0.83468
0.835032
0.835382
0.835669
0.835889
0.836066
0.836172
0.836225
0.836236
0.836211
0.836161
0.836091
0.836011
0.835926
0.83584
0.835755
0.835671
0.835586
0.835496
0.835397
0.835281
0.835144
0.834978
0.834783
0.83456
0.83432
0.834066
0.833803
0.833533
0.833255
0.832973
0.832686
0.832395
0.8321
0.831803
0.831502
0.831199
0.830893
0.830585
0.830275
0.829963
0.829648
0.829332
0.829013
0.828693
0.82837
0.828046
0.82772
0.827391
0.827061
0.826729
0.826395
0.826059
0.825722
0.825382
0.825042
0.824699
0.824355
0.824009
0.823661
0.823311
0.822958
0.822604
0.822247
0.821889
0.821529
0.821167
0.820805
0.820442
0.820079
0.819716
0.819352
0.818988
0.818624
0.818257
0.817889
0.81752
0.817148
0.816775
0.8164
0.816024
0.815647
0.81527
0.814895
0.81452
0.814147
0.813775
0.813404
0.81303
0.812652
0.812265
0.811869
0.811459
0.811033
0.810591
0.810132
0.809657
0.809166
0.808663
0.808148
0.807626
0.807097
0.806567
0.806037
0.805512
0.804997
0.804494
0.804008
0.803544
0.803104
0.802691
0.802308
0.801953
0.801627
0.801328
0.801052
0.800796
0.800554
0.800322
0.800094
0.799866
0.799633
0.799391
0.799138
0.798871
0.798589
0.798291
0.797979
0.797651
0.797311
0.796958
0.796595
0.796225
0.795847
0.795465
0.795079
0.794691
0.794303
0.793914
0.793526
0.793139
0.792754
0.792371
0.791989
0.791609
0.791231
0.790854
0.790478
0.790103
0.789729
0.789356
0.788983
0.78861
0.788237
0.787864
0.78749
0.787116
0.786742
0.786366
0.785991
0.785614
0.785237
0.784858
0.784479
0.784099
0.783718
0.783336
0.782953
0.782569
0.782184
0.781798
0.781411
0.781023
0.780634
0.780244
0.779853
0.779461
0.779068
0.778674
0.778279
0.777883
0.777486
0.777087
0.776688
0.776287
0.775886
0.775483
0.775079
0.774674
0.774268
0.77386
0.773452
0.773042
0.772632
0.77222
0.771808
0.771395
0.770981
0.770567
0.770151
0.769736
0.769319
0.768902
0.768485
0.768066
0.767647
0.767227
0.766806
0.766385
0.765963
0.765541
0.765119
0.764696
0.764273
0.76385
0.763427
0.763003
0.762579
0.762154
0.761727
0.761298
0.760866
0.76043
0.75999
0.759545
0.759094
0.758636
0.758172
0.7577
0.757222
0.756735
0.756242
0.755742
0.755236
0.754724
0.754207
0.753688
0.753166
0.752643
0.752121
0.751602
0.751087
0.750578
0.750076
0.749583
0.749101
0.748631
0.748174
0.74773
0.7473
0.746884
0.746481
0.746092
0.745714
0.745347
0.744989
0.744638
0.744293
0.743951
0.743612
0.743272
0.74293
0.742585
0.742236
0.741882
0.741521
0.741154
0.74078
0.740399
0.740012
0.739617
0.739217
0.738811
0.7384
0.737984
0.737564
0.737141
0.736716
0.736288
0.735858
0.735427
0.734996
0.734564
0.734131
0.733699
0.733267
0.732835
0.732403
0.731972
0.731541
0.73111
0.73068
0.73025
0.729821
0.729391
0.728962
0.728532
0.728103
0.727673
0.727243
0.726813
0.726382
0.725951
0.725519
0.725087
0.724654
0.724221
0.723787
0.723352
0.722916
0.72248
0.722043
0.721605
0.721166
0.720726
0.720286
0.719845
0.719403
0.71896
0.718516
0.718071
0.717625
0.717179
0.716732
0.716283
0.715834
0.715384
0.714933
0.714481
0.714028
0.713574
0.71312
0.712664
0.712207
0.71175
0.711291
0.710832
0.710372
0.70991
0.709448
0.708985
0.708521
0.708057
0.707591
0.707125
0.706658
0.70619
0.705722
0.705252
0.704782
0.704312
0.70384
0.703368
0.702895
0.702422
0.701948
0.701473
0.700998
0.700522
0.700046
0.699569
0.699092
0.698614
0.698135
0.697655
0.697174
0.696693
0.69621
0.695725
0.695238
0.69475
0.694259
0.693766
0.693269
0.69277
0.692267
0.691761
0.69125
0.690736
0.690218
0.689695
0.689169
0.688638
0.688104
0.687566
0.687025
0.686481
0.685934
0.685386
0.684836
0.684285
0.683735
0.683185
0.682637
0.68209
0.681547
0.681007
0.680472
0.679941
0.679416
0.678898
0.678385
0.67788
0.677381
0.67689
0.676406
0.675929
0.675458
0.674993
0.674534
0.67408
0.673631
0.673185
0.672741
0.6723
0.67186
0.67142
0.670979
0.670538
0.670095
0.669649
0.669201
0.66875
0.668295
0.667837
0.667374
0.666909
0.666439
0.665965
0.665488
0.665008
0.664524
0.664038
0.663548
0.663056
0.662562
0.662066
0.661568
0.661069
0.660568
0.660066
0.659563
0.659059
0.658555
0.65805
0.657544
0.657038
0.656532
0.656025
0.655518
0.655011
0.654503
0.653995
0.653487
0.652978
0.652469
0.651959
0.651449
0.650939
0.650427
0.649916
0.649404
0.648891
0.648377
0.647862
0.647347
0.646831
0.646315
0.645797
0.645278
0.644759
0.644239
0.643717
0.643195
0.642672
0.642147
0.641622
0.641096
0.640569
0.64004
0.639511
0.63898
0.638449
0.637916
0.637383
0.636848
0.636312
0.635775
0.635237
0.634697
0.634157
0.633616
0.633073
0.632529
0.631984
0.631438
0.630891
0.630343
0.629793
0.629242
0.628691
0.628138
0.627584
0.627028
0.626472
0.625915
0.625356
0.624797
0.624236
0.623674
0.623111
0.622547
0.621982
0.621416
0.620849
0.620281
0.619712
0.619141
0.61857
0.617998
0.617424
0.61685
0.616274
0.615698
0.61512
0.614541
0.613961
0.61338
0.612797
0.612213
0.611627
0.61104
0.610451
0.60986
0.609267
0.608672
0.608076
0.607476
0.606875
0.60627
0.605664
0.605054
0.604442
0.603827
0.603208
0.602588
0.601964
0.601337
0.600707
0.600075
0.59944
0.598802
0.598162
0.59752
0.596876
0.59623
0.595583
0.594935
0.594286
0.593637
0.592987
0.592337
0.591689
0.59104
0.590394
0.589748
0.589105
0.588463
0.587824
0.587187
0.586554
0.585923
0.585295
0.58467
0.584048
0.58343
0.582814
0.582201
0.58159
0.580982
0.580376
0.579772
0.579169
0.578568
0.577966
0.577366
0.576765
0.576163
0.575561
0.574958
0.574353
0.573746
0.573137
0.572526
0.571912
0.571296
0.570676
0.570054
0.569428
0.5688
0.568168
0.567534
0.566896
0.566255
0.565611
0.564965
0.564315
0.563663
0.563008
0.562351
0.561691
0.56103
0.560365
0.559699
0.559031
0.55836
0.557688
0.557014
0.556338
0.555661
0.554981
0.5543
0.553617
0.552933
0.552247
0.551559
0.55087
0.550178
0.549486
0.548791
0.548095
0.547397
0.546697
0.545995
0.545291
0.544586
0.543878
0.543169
0.542458
0.541744
0.541029
0.540311
0.539592
0.53887
0.538146
0.53742
0.536691
0.53596
0.535227
0.534492
0.533754
0.533014
0.532271
0.531526
0.530779
0.530028
0.529276
0.528521
0.527763
0.527003
0.52624
0.525474
0.524706
0.523935
0.523162
0.522385
0.521606
0.520824
0.52004
0.519252
0.518462
0.517668
0.516872
0.516073
0.515271
0.514467
0.513659
0.512848
0.512034
0.511217
0.510397
0.509574
0.508748
0.507919
0.507087
0.506252
0.505414
0.504572
0.503728
0.50288
0.502029
0.501175
0.500318
0.499458
0.498595
0.497728
0.496859
0.495986
0.495111
0.494232
0.493351
0.492466
0.491579
0.490689
0.489796
0.488901
0.488003
0.487103
0.4862
0.485296
0.48439
0.483483
0.482575
0.481666
0.480756
0.479847
0.47894
0.478034
0.47713
0.47623
0.475335
0.474446
0.473564
0.472691
0.471829
0.470979
0.470144
0.469326
0.468526
0.467747
0.466993
0.466264
0.465564
0.464894
0.464256
0.463652
0.463084
0.462553
0.462059
0.461603
0.461184
0.460802
0.460457
0.460147
0.45987
0.459624
0.459408
0.459218
0.459054
0.458913
0.458793
0.458691
0.458604
0.45853
0.458467
0.458411
0.458361
0.458306
0.458234
0.45813
0.457962
0.457672
0.457158
0.45624
0.4546
0.451683
0.446555
0.437716
0.422999
0.399876
0.366778
0.325487
0.282396
0.245425
0.21887
0.2022
0.192618
0.187391
0.184622
0.183179
0.182435
0.182056
0.181864
0.181768
0.181723
0.181703
0.181695
0.181695
0.181697
0.181701
0.181706
0.181711
0.181715
0.18172
0.181724
0.181728
0.181732
0.181736
0.181739
0.181742
0.181745
0.181748
0.181751
0.181753
0.181755
0.181758
0.18176
0.181762
0.181763
0.181765
0.181767
0.181768
0.18177
0.181772
0.181773
0.181775
0.181776
0.181777
0.181779
0.18178
0.181782
0.181783
0.181785
0.181786
0.181788
0.181789
0.181791
0.181792
0.181794
0.181796
0.181797
0.181799
0.1818
0.181802
0.181803
0.181805
0.181807
0.181808
0.18181
0.181811
0.181813
0.181814
0.181816
0.181817
0.181819
0.18182
0.181821
0.181823
0.181824
0.181825
0.181827
0.181828
0.181829
0.18183
0.181831
0.181832
0.181833
0.181834
0.181835
0.181836
0.181837
0.181838
0.181838
0.181839
0.18184
0.18184
0.181841
0.181841
0.181842
0.181842
0.181843
0.181843
0.181843
0.181843
0.181844
0.181844
0.181844
0.181844
0.181844
0.181844
0.181843
0.181843
0.181843
0.181843
0.181842
0.181842
0.181842
0.181841
0.181841
0.18184
0.181839
0.181839
0.181838
0.181837
0.181836
0.181835
0.181834
0.181833
0.181832
0.181831
0.181829
0.181828
0.181827
0.181825
0.181823
0.181822
0.18182
0.181818
0.181815
0.181813
0.181811
0.181808
0.181805
0.181802
0.181799
0.181796
0.181792
0.181789
0.181784
0.181781
0.181775
0.181772
0.181765
0.181762
0.181754
0.181751
0.181742
0.181739
0.18173
0.181727
0.181716
0.181713
0.181701
0.181698
0.181686
0.181682
0.18167
0.181666
0.181653
0.18165
0.181636
0.181633
0.181616
)
;

boundaryField
{
    inlet
    {
        type            calculated;
        value           uniform 0.805169;
    }
    outlet
    {
        type            calculated;
        value           uniform 0.181618;
    }
    emptyWalls
    {
        type            empty;
    }
}


// ************************************************************************* //
