/*--------------------------------*- C++ -*----------------------------------*\
  =========                 |
  \\      /  F ield         | OpenFOAM: The Open Source CFD Toolbox
   \\    /   O peration     | Website:  https://openfoam.org
    \\  /    A nd           | Version:  9
     \\/     M anipulation  |
\*---------------------------------------------------------------------------*/
FoamFile
{
    format      ascii;
    class       volVectorField;
    location    "20600";
    object      Ua;
}
// * * * * * * * * * * * * * * * * * * * * * * * * * * * * * * * * * * * * * //

dimensions      [0 0 0 0 0 0 0];

internalField   nonuniform List<vector> 
1000
(
(2.7491e-06 0 0)
(2.74887e-06 0 0)
(2.74869e-06 0 0)
(2.74855e-06 0 0)
(2.74825e-06 0 0)
(2.74792e-06 0 0)
(2.74753e-06 0 0)
(2.747e-06 0 0)
(2.74649e-06 0 0)
(2.74586e-06 0 0)
(2.74523e-06 0 0)
(2.74457e-06 0 0)
(2.74383e-06 0 0)
(2.74305e-06 0 0)
(2.74218e-06 0 0)
(2.74128e-06 0 0)
(2.74032e-06 0 0)
(2.73943e-06 0 0)
(2.73853e-06 0 0)
(2.7377e-06 0 0)
(2.73699e-06 0 0)
(2.73621e-06 0 0)
(2.73564e-06 0 0)
(2.73505e-06 0 0)
(2.73446e-06 0 0)
(2.73347e-06 0 0)
(2.73005e-06 0 0)
(2.71724e-06 0 0)
(2.64823e-06 0 0)
(2.40412e-06 0 0)
(2.18111e-06 0 0)
(2.13304e-06 0 0)
(2.11795e-06 0 0)
(2.11024e-06 0 0)
(2.10499e-06 0 0)
(2.1009e-06 0 0)
(2.09764e-06 0 0)
(2.09512e-06 0 0)
(2.09308e-06 0 0)
(2.09113e-06 0 0)
(2.08899e-06 0 0)
(2.08678e-06 0 0)
(2.08504e-06 0 0)
(2.08448e-06 0 0)
(2.08562e-06 0 0)
(2.08853e-06 0 0)
(2.09275e-06 0 0)
(2.0974e-06 0 0)
(2.10155e-06 0 0)
(2.10447e-06 0 0)
(2.10586e-06 0 0)
(2.10594e-06 0 0)
(2.10526e-06 0 0)
(2.10431e-06 0 0)
(2.10287e-06 0 0)
(2.09936e-06 0 0)
(2.09373e-06 0 0)
(2.08759e-06 0 0)
(2.08153e-06 0 0)
(2.07582e-06 0 0)
(2.07079e-06 0 0)
(2.06656e-06 0 0)
(2.06313e-06 0 0)
(2.06057e-06 0 0)
(2.05873e-06 0 0)
(2.05749e-06 0 0)
(2.05672e-06 0 0)
(2.0563e-06 0 0)
(2.05611e-06 0 0)
(2.05604e-06 0 0)
(2.056e-06 0 0)
(2.05591e-06 0 0)
(2.05574e-06 0 0)
(2.05546e-06 0 0)
(2.05509e-06 0 0)
(2.05462e-06 0 0)
(2.05408e-06 0 0)
(2.05351e-06 0 0)
(2.05292e-06 0 0)
(2.05234e-06 0 0)
(2.05181e-06 0 0)
(2.05129e-06 0 0)
(2.05077e-06 0 0)
(2.05024e-06 0 0)
(2.04971e-06 0 0)
(2.04917e-06 0 0)
(2.04863e-06 0 0)
(2.0481e-06 0 0)
(2.04757e-06 0 0)
(2.04706e-06 0 0)
(2.04655e-06 0 0)
(2.04605e-06 0 0)
(2.04556e-06 0 0)
(2.04508e-06 0 0)
(2.04461e-06 0 0)
(2.04415e-06 0 0)
(2.0437e-06 0 0)
(2.04327e-06 0 0)
(2.04284e-06 0 0)
(2.04242e-06 0 0)
(2.04202e-06 0 0)
(2.04163e-06 0 0)
(2.04125e-06 0 0)
(2.04088e-06 0 0)
(2.04053e-06 0 0)
(2.0402e-06 0 0)
(2.03988e-06 0 0)
(2.03957e-06 0 0)
(2.03928e-06 0 0)
(2.039e-06 0 0)
(2.03873e-06 0 0)
(2.03847e-06 0 0)
(2.03823e-06 0 0)
(2.038e-06 0 0)
(2.03779e-06 0 0)
(2.03759e-06 0 0)
(2.03741e-06 0 0)
(2.03725e-06 0 0)
(2.03711e-06 0 0)
(2.03699e-06 0 0)
(2.03689e-06 0 0)
(2.03681e-06 0 0)
(2.03674e-06 0 0)
(2.03668e-06 0 0)
(2.03663e-06 0 0)
(2.03657e-06 0 0)
(2.03651e-06 0 0)
(2.03644e-06 0 0)
(2.03637e-06 0 0)
(2.0363e-06 0 0)
(2.03623e-06 0 0)
(2.03617e-06 0 0)
(2.03613e-06 0 0)
(2.03611e-06 0 0)
(2.0361e-06 0 0)
(2.03611e-06 0 0)
(2.03613e-06 0 0)
(2.03617e-06 0 0)
(2.0362e-06 0 0)
(2.03623e-06 0 0)
(2.03623e-06 0 0)
(2.03622e-06 0 0)
(2.03617e-06 0 0)
(2.0361e-06 0 0)
(2.03602e-06 0 0)
(2.03597e-06 0 0)
(2.03598e-06 0 0)
(2.0361e-06 0 0)
(2.03636e-06 0 0)
(2.03681e-06 0 0)
(2.03748e-06 0 0)
(2.03838e-06 0 0)
(2.03953e-06 0 0)
(2.0409e-06 0 0)
(2.04248e-06 0 0)
(2.04425e-06 0 0)
(2.04618e-06 0 0)
(2.04822e-06 0 0)
(2.05034e-06 0 0)
(2.05249e-06 0 0)
(2.05461e-06 0 0)
(2.05665e-06 0 0)
(2.05856e-06 0 0)
(2.06028e-06 0 0)
(2.06173e-06 0 0)
(2.06287e-06 0 0)
(2.06364e-06 0 0)
(2.06401e-06 0 0)
(2.06394e-06 0 0)
(2.06345e-06 0 0)
(2.06253e-06 0 0)
(2.06121e-06 0 0)
(2.05953e-06 0 0)
(2.05757e-06 0 0)
(2.05538e-06 0 0)
(2.05304e-06 0 0)
(2.05063e-06 0 0)
(2.04821e-06 0 0)
(2.04585e-06 0 0)
(2.04362e-06 0 0)
(2.04154e-06 0 0)
(2.03966e-06 0 0)
(2.038e-06 0 0)
(2.03655e-06 0 0)
(2.03532e-06 0 0)
(2.0343e-06 0 0)
(2.03347e-06 0 0)
(2.03281e-06 0 0)
(2.03229e-06 0 0)
(2.03189e-06 0 0)
(2.03158e-06 0 0)
(2.03134e-06 0 0)
(2.03115e-06 0 0)
(2.03098e-06 0 0)
(2.03082e-06 0 0)
(2.03065e-06 0 0)
(2.03047e-06 0 0)
(2.03026e-06 0 0)
(2.03003e-06 0 0)
(2.02976e-06 0 0)
(2.02947e-06 0 0)
(2.02914e-06 0 0)
(2.02878e-06 0 0)
(2.0284e-06 0 0)
(2.02799e-06 0 0)
(2.02756e-06 0 0)
(2.02711e-06 0 0)
(2.02665e-06 0 0)
(2.02618e-06 0 0)
(2.0257e-06 0 0)
(2.02521e-06 0 0)
(2.02473e-06 0 0)
(2.02424e-06 0 0)
(2.02375e-06 0 0)
(2.02326e-06 0 0)
(2.02278e-06 0 0)
(2.02231e-06 0 0)
(2.02183e-06 0 0)
(2.02137e-06 0 0)
(2.02091e-06 0 0)
(2.02046e-06 0 0)
(2.02002e-06 0 0)
(2.01959e-06 0 0)
(2.01916e-06 0 0)
(2.01874e-06 0 0)
(2.01834e-06 0 0)
(2.01794e-06 0 0)
(2.01755e-06 0 0)
(2.01717e-06 0 0)
(2.01681e-06 0 0)
(2.01645e-06 0 0)
(2.0161e-06 0 0)
(2.01576e-06 0 0)
(2.01543e-06 0 0)
(2.01512e-06 0 0)
(2.01481e-06 0 0)
(2.01451e-06 0 0)
(2.01422e-06 0 0)
(2.01395e-06 0 0)
(2.01368e-06 0 0)
(2.01343e-06 0 0)
(2.01318e-06 0 0)
(2.01295e-06 0 0)
(2.01273e-06 0 0)
(2.01252e-06 0 0)
(2.01233e-06 0 0)
(2.01215e-06 0 0)
(2.01198e-06 0 0)
(2.01182e-06 0 0)
(2.01167e-06 0 0)
(2.01153e-06 0 0)
(2.0114e-06 0 0)
(2.01128e-06 0 0)
(2.01116e-06 0 0)
(2.01105e-06 0 0)
(2.01095e-06 0 0)
(2.01085e-06 0 0)
(2.01075e-06 0 0)
(2.01066e-06 0 0)
(2.01058e-06 0 0)
(2.01049e-06 0 0)
(2.01042e-06 0 0)
(2.01035e-06 0 0)
(2.01029e-06 0 0)
(2.01023e-06 0 0)
(2.01018e-06 0 0)
(2.01013e-06 0 0)
(2.01008e-06 0 0)
(2.01003e-06 0 0)
(2.00998e-06 0 0)
(2.00992e-06 0 0)
(2.00986e-06 0 0)
(2.00981e-06 0 0)
(2.00975e-06 0 0)
(2.00969e-06 0 0)
(2.00965e-06 0 0)
(2.00963e-06 0 0)
(2.00964e-06 0 0)
(2.00969e-06 0 0)
(2.00979e-06 0 0)
(2.00996e-06 0 0)
(2.0102e-06 0 0)
(2.01052e-06 0 0)
(2.01093e-06 0 0)
(2.01145e-06 0 0)
(2.01208e-06 0 0)
(2.01281e-06 0 0)
(2.01365e-06 0 0)
(2.0146e-06 0 0)
(2.01565e-06 0 0)
(2.01679e-06 0 0)
(2.01801e-06 0 0)
(2.0193e-06 0 0)
(2.02064e-06 0 0)
(2.022e-06 0 0)
(2.02338e-06 0 0)
(2.02473e-06 0 0)
(2.02604e-06 0 0)
(2.02728e-06 0 0)
(2.02843e-06 0 0)
(2.02945e-06 0 0)
(2.03033e-06 0 0)
(2.03104e-06 0 0)
(2.03156e-06 0 0)
(2.03187e-06 0 0)
(2.03197e-06 0 0)
(2.03185e-06 0 0)
(2.0315e-06 0 0)
(2.03094e-06 0 0)
(2.03017e-06 0 0)
(2.0292e-06 0 0)
(2.02807e-06 0 0)
(2.02678e-06 0 0)
(2.02538e-06 0 0)
(2.02388e-06 0 0)
(2.02232e-06 0 0)
(2.02072e-06 0 0)
(2.01911e-06 0 0)
(2.01753e-06 0 0)
(2.01598e-06 0 0)
(2.0145e-06 0 0)
(2.01309e-06 0 0)
(2.01177e-06 0 0)
(2.01055e-06 0 0)
(2.00943e-06 0 0)
(2.00841e-06 0 0)
(2.00749e-06 0 0)
(2.00667e-06 0 0)
(2.00594e-06 0 0)
(2.00529e-06 0 0)
(2.00472e-06 0 0)
(2.00421e-06 0 0)
(2.00376e-06 0 0)
(2.00335e-06 0 0)
(2.00299e-06 0 0)
(2.00265e-06 0 0)
(2.00233e-06 0 0)
(2.00203e-06 0 0)
(2.00174e-06 0 0)
(2.00144e-06 0 0)
(2.00115e-06 0 0)
(2.00085e-06 0 0)
(2.00054e-06 0 0)
(2.00022e-06 0 0)
(1.99989e-06 0 0)
(1.99955e-06 0 0)
(1.9992e-06 0 0)
(1.99883e-06 0 0)
(1.99845e-06 0 0)
(1.99806e-06 0 0)
(1.99766e-06 0 0)
(1.99725e-06 0 0)
(1.99684e-06 0 0)
(1.99641e-06 0 0)
(1.99599e-06 0 0)
(1.99556e-06 0 0)
(1.99513e-06 0 0)
(1.99469e-06 0 0)
(1.99426e-06 0 0)
(1.99383e-06 0 0)
(1.99339e-06 0 0)
(1.99296e-06 0 0)
(1.99254e-06 0 0)
(1.99212e-06 0 0)
(1.9917e-06 0 0)
(1.99129e-06 0 0)
(1.99088e-06 0 0)
(1.99048e-06 0 0)
(1.99008e-06 0 0)
(1.98969e-06 0 0)
(1.98931e-06 0 0)
(1.98893e-06 0 0)
(1.98857e-06 0 0)
(1.9882e-06 0 0)
(1.98785e-06 0 0)
(1.9875e-06 0 0)
(1.98716e-06 0 0)
(1.98683e-06 0 0)
(1.9865e-06 0 0)
(1.98618e-06 0 0)
(1.98587e-06 0 0)
(1.98557e-06 0 0)
(1.98528e-06 0 0)
(1.98499e-06 0 0)
(1.98471e-06 0 0)
(1.98444e-06 0 0)
(1.98418e-06 0 0)
(1.98393e-06 0 0)
(1.98369e-06 0 0)
(1.98345e-06 0 0)
(1.98322e-06 0 0)
(1.983e-06 0 0)
(1.98279e-06 0 0)
(1.98259e-06 0 0)
(1.9824e-06 0 0)
(1.98221e-06 0 0)
(1.98203e-06 0 0)
(1.98186e-06 0 0)
(1.9817e-06 0 0)
(1.98154e-06 0 0)
(1.98139e-06 0 0)
(1.98124e-06 0 0)
(1.9811e-06 0 0)
(1.98097e-06 0 0)
(1.98084e-06 0 0)
(1.98072e-06 0 0)
(1.9806e-06 0 0)
(1.98048e-06 0 0)
(1.98037e-06 0 0)
(1.98027e-06 0 0)
(1.98017e-06 0 0)
(1.98007e-06 0 0)
(1.97997e-06 0 0)
(1.97988e-06 0 0)
(1.97979e-06 0 0)
(1.9797e-06 0 0)
(1.97961e-06 0 0)
(1.97952e-06 0 0)
(1.97944e-06 0 0)
(1.97936e-06 0 0)
(1.97929e-06 0 0)
(1.97922e-06 0 0)
(1.97916e-06 0 0)
(1.97912e-06 0 0)
(1.97909e-06 0 0)
(1.97907e-06 0 0)
(1.97908e-06 0 0)
(1.97912e-06 0 0)
(1.97918e-06 0 0)
(1.97929e-06 0 0)
(1.97943e-06 0 0)
(1.97962e-06 0 0)
(1.97986e-06 0 0)
(1.98016e-06 0 0)
(1.98051e-06 0 0)
(1.98092e-06 0 0)
(1.98139e-06 0 0)
(1.98192e-06 0 0)
(1.98251e-06 0 0)
(1.98317e-06 0 0)
(1.98388e-06 0 0)
(1.98464e-06 0 0)
(1.98545e-06 0 0)
(1.98631e-06 0 0)
(1.98719e-06 0 0)
(1.98811e-06 0 0)
(1.98903e-06 0 0)
(1.98997e-06 0 0)
(1.9909e-06 0 0)
(1.9918e-06 0 0)
(1.99268e-06 0 0)
(1.99352e-06 0 0)
(1.99429e-06 0 0)
(1.995e-06 0 0)
(1.99563e-06 0 0)
(1.99616e-06 0 0)
(1.9966e-06 0 0)
(1.99692e-06 0 0)
(1.99712e-06 0 0)
(1.9972e-06 0 0)
(1.99715e-06 0 0)
(1.99697e-06 0 0)
(1.99666e-06 0 0)
(1.99622e-06 0 0)
(1.99566e-06 0 0)
(1.99499e-06 0 0)
(1.99421e-06 0 0)
(1.99333e-06 0 0)
(1.99237e-06 0 0)
(1.99134e-06 0 0)
(1.99025e-06 0 0)
(1.98912e-06 0 0)
(1.98795e-06 0 0)
(1.98677e-06 0 0)
(1.98559e-06 0 0)
(1.98441e-06 0 0)
(1.98326e-06 0 0)
(1.98213e-06 0 0)
(1.98103e-06 0 0)
(1.97999e-06 0 0)
(1.97898e-06 0 0)
(1.97803e-06 0 0)
(1.97714e-06 0 0)
(1.9763e-06 0 0)
(1.97551e-06 0 0)
(1.97478e-06 0 0)
(1.9741e-06 0 0)
(1.97347e-06 0 0)
(1.97288e-06 0 0)
(1.97233e-06 0 0)
(1.97183e-06 0 0)
(1.97135e-06 0 0)
(1.97091e-06 0 0)
(1.97048e-06 0 0)
(1.97008e-06 0 0)
(1.9697e-06 0 0)
(1.96933e-06 0 0)
(1.96897e-06 0 0)
(1.96861e-06 0 0)
(1.96826e-06 0 0)
(1.96791e-06 0 0)
(1.96756e-06 0 0)
(1.96721e-06 0 0)
(1.96685e-06 0 0)
(1.96649e-06 0 0)
(1.96613e-06 0 0)
(1.96576e-06 0 0)
(1.96538e-06 0 0)
(1.965e-06 0 0)
(1.96462e-06 0 0)
(1.96422e-06 0 0)
(1.96383e-06 0 0)
(1.96343e-06 0 0)
(1.96302e-06 0 0)
(1.96261e-06 0 0)
(1.9622e-06 0 0)
(1.96179e-06 0 0)
(1.96137e-06 0 0)
(1.96096e-06 0 0)
(1.96054e-06 0 0)
(1.96013e-06 0 0)
(1.95971e-06 0 0)
(1.9593e-06 0 0)
(1.95889e-06 0 0)
(1.95848e-06 0 0)
(1.95808e-06 0 0)
(1.95767e-06 0 0)
(1.95728e-06 0 0)
(1.95688e-06 0 0)
(1.95649e-06 0 0)
(1.95611e-06 0 0)
(1.95573e-06 0 0)
(1.95535e-06 0 0)
(1.95498e-06 0 0)
(1.95462e-06 0 0)
(1.95426e-06 0 0)
(1.95391e-06 0 0)
(1.95356e-06 0 0)
(1.95322e-06 0 0)
(1.95289e-06 0 0)
(1.95256e-06 0 0)
(1.95224e-06 0 0)
(1.95192e-06 0 0)
(1.95161e-06 0 0)
(1.95131e-06 0 0)
(1.95101e-06 0 0)
(1.95073e-06 0 0)
(1.95044e-06 0 0)
(1.95017e-06 0 0)
(1.9499e-06 0 0)
(1.94964e-06 0 0)
(1.94939e-06 0 0)
(1.94914e-06 0 0)
(1.9489e-06 0 0)
(1.94867e-06 0 0)
(1.94844e-06 0 0)
(1.94822e-06 0 0)
(1.948e-06 0 0)
(1.9478e-06 0 0)
(1.9476e-06 0 0)
(1.9474e-06 0 0)
(1.94721e-06 0 0)
(1.94703e-06 0 0)
(1.94685e-06 0 0)
(1.94668e-06 0 0)
(1.94651e-06 0 0)
(1.94635e-06 0 0)
(1.94619e-06 0 0)
(1.94604e-06 0 0)
(1.94589e-06 0 0)
(1.94575e-06 0 0)
(1.94561e-06 0 0)
(1.94547e-06 0 0)
(1.94534e-06 0 0)
(1.94521e-06 0 0)
(1.94509e-06 0 0)
(1.94497e-06 0 0)
(1.94485e-06 0 0)
(1.94474e-06 0 0)
(1.94463e-06 0 0)
(1.94452e-06 0 0)
(1.94442e-06 0 0)
(1.94432e-06 0 0)
(1.94424e-06 0 0)
(1.94415e-06 0 0)
(1.94408e-06 0 0)
(1.94402e-06 0 0)
(1.94396e-06 0 0)
(1.94392e-06 0 0)
(1.9439e-06 0 0)
(1.94389e-06 0 0)
(1.94391e-06 0 0)
(1.94394e-06 0 0)
(1.944e-06 0 0)
(1.94408e-06 0 0)
(1.94419e-06 0 0)
(1.94433e-06 0 0)
(1.94451e-06 0 0)
(1.94472e-06 0 0)
(1.94496e-06 0 0)
(1.94524e-06 0 0)
(1.94556e-06 0 0)
(1.94591e-06 0 0)
(1.94631e-06 0 0)
(1.94674e-06 0 0)
(1.9472e-06 0 0)
(1.9477e-06 0 0)
(1.94824e-06 0 0)
(1.9488e-06 0 0)
(1.94939e-06 0 0)
(1.95e-06 0 0)
(1.95063e-06 0 0)
(1.95128e-06 0 0)
(1.95193e-06 0 0)
(1.95258e-06 0 0)
(1.95324e-06 0 0)
(1.95388e-06 0 0)
(1.9545e-06 0 0)
(1.95511e-06 0 0)
(1.95568e-06 0 0)
(1.95622e-06 0 0)
(1.95671e-06 0 0)
(1.95715e-06 0 0)
(1.95754e-06 0 0)
(1.95787e-06 0 0)
(1.95812e-06 0 0)
(1.95831e-06 0 0)
(1.95842e-06 0 0)
(1.95845e-06 0 0)
(1.9584e-06 0 0)
(1.95827e-06 0 0)
(1.95806e-06 0 0)
(1.95776e-06 0 0)
(1.95738e-06 0 0)
(1.95692e-06 0 0)
(1.95639e-06 0 0)
(1.95578e-06 0 0)
(1.95511e-06 0 0)
(1.95438e-06 0 0)
(1.95359e-06 0 0)
(1.95276e-06 0 0)
(1.95189e-06 0 0)
(1.95098e-06 0 0)
(1.95005e-06 0 0)
(1.9491e-06 0 0)
(1.94814e-06 0 0)
(1.94718e-06 0 0)
(1.94622e-06 0 0)
(1.94526e-06 0 0)
(1.94432e-06 0 0)
(1.9434e-06 0 0)
(1.9425e-06 0 0)
(1.94163e-06 0 0)
(1.94078e-06 0 0)
(1.93996e-06 0 0)
(1.93918e-06 0 0)
(1.93843e-06 0 0)
(1.93771e-06 0 0)
(1.93702e-06 0 0)
(1.93636e-06 0 0)
(1.93574e-06 0 0)
(1.93514e-06 0 0)
(1.93457e-06 0 0)
(1.93403e-06 0 0)
(1.93351e-06 0 0)
(1.93301e-06 0 0)
(1.93253e-06 0 0)
(1.93206e-06 0 0)
(1.93161e-06 0 0)
(1.93118e-06 0 0)
(1.93075e-06 0 0)
(1.93034e-06 0 0)
(1.92993e-06 0 0)
(1.92953e-06 0 0)
(1.92913e-06 0 0)
(1.92873e-06 0 0)
(1.92834e-06 0 0)
(1.92795e-06 0 0)
(1.92755e-06 0 0)
(1.92716e-06 0 0)
(1.92676e-06 0 0)
(1.92637e-06 0 0)
(1.92597e-06 0 0)
(1.92557e-06 0 0)
(1.92517e-06 0 0)
(1.92476e-06 0 0)
(1.92436e-06 0 0)
(1.92395e-06 0 0)
(1.92354e-06 0 0)
(1.92313e-06 0 0)
(1.92272e-06 0 0)
(1.9223e-06 0 0)
(1.92189e-06 0 0)
(1.92148e-06 0 0)
(1.92106e-06 0 0)
(1.92065e-06 0 0)
(1.92024e-06 0 0)
(1.91983e-06 0 0)
(1.91942e-06 0 0)
(1.91901e-06 0 0)
(1.91861e-06 0 0)
(1.91821e-06 0 0)
(1.91781e-06 0 0)
(1.91741e-06 0 0)
(1.91702e-06 0 0)
(1.91663e-06 0 0)
(1.91624e-06 0 0)
(1.91586e-06 0 0)
(1.91548e-06 0 0)
(1.91511e-06 0 0)
(1.91474e-06 0 0)
(1.91438e-06 0 0)
(1.91402e-06 0 0)
(1.91366e-06 0 0)
(1.91331e-06 0 0)
(1.91297e-06 0 0)
(1.91262e-06 0 0)
(1.91229e-06 0 0)
(1.91196e-06 0 0)
(1.91163e-06 0 0)
(1.91132e-06 0 0)
(1.911e-06 0 0)
(1.91069e-06 0 0)
(1.91039e-06 0 0)
(1.91009e-06 0 0)
(1.9098e-06 0 0)
(1.90951e-06 0 0)
(1.90923e-06 0 0)
(1.90895e-06 0 0)
(1.90868e-06 0 0)
(1.90841e-06 0 0)
(1.90815e-06 0 0)
(1.90789e-06 0 0)
(1.90764e-06 0 0)
(1.90739e-06 0 0)
(1.90715e-06 0 0)
(1.90691e-06 0 0)
(1.90668e-06 0 0)
(1.90645e-06 0 0)
(1.90623e-06 0 0)
(1.90601e-06 0 0)
(1.90579e-06 0 0)
(1.90558e-06 0 0)
(1.90537e-06 0 0)
(1.90517e-06 0 0)
(1.90497e-06 0 0)
(1.90477e-06 0 0)
(1.90458e-06 0 0)
(1.90439e-06 0 0)
(1.90421e-06 0 0)
(1.90402e-06 0 0)
(1.90385e-06 0 0)
(1.90367e-06 0 0)
(1.9035e-06 0 0)
(1.90333e-06 0 0)
(1.90317e-06 0 0)
(1.90301e-06 0 0)
(1.90285e-06 0 0)
(1.9027e-06 0 0)
(1.90255e-06 0 0)
(1.90241e-06 0 0)
(1.90227e-06 0 0)
(1.90215e-06 0 0)
(1.90203e-06 0 0)
(1.90191e-06 0 0)
(1.90181e-06 0 0)
(1.90172e-06 0 0)
(1.90163e-06 0 0)
(1.90157e-06 0 0)
(1.90151e-06 0 0)
(1.90147e-06 0 0)
(1.90144e-06 0 0)
(1.90144e-06 0 0)
(1.90145e-06 0 0)
(1.90148e-06 0 0)
(1.90154e-06 0 0)
(1.90161e-06 0 0)
(1.90171e-06 0 0)
(1.90184e-06 0 0)
(1.90199e-06 0 0)
(1.90217e-06 0 0)
(1.90238e-06 0 0)
(1.90262e-06 0 0)
(1.90288e-06 0 0)
(1.90318e-06 0 0)
(1.9035e-06 0 0)
(1.90385e-06 0 0)
(1.90424e-06 0 0)
(1.90465e-06 0 0)
(1.90508e-06 0 0)
(1.90555e-06 0 0)
(1.90603e-06 0 0)
(1.90654e-06 0 0)
(1.90707e-06 0 0)
(1.90762e-06 0 0)
(1.90819e-06 0 0)
(1.90876e-06 0 0)
(1.90934e-06 0 0)
(1.90993e-06 0 0)
(1.91051e-06 0 0)
(1.9111e-06 0 0)
(1.91167e-06 0 0)
(1.91223e-06 0 0)
(1.91278e-06 0 0)
(1.9133e-06 0 0)
(1.9138e-06 0 0)
(1.91426e-06 0 0)
(1.9147e-06 0 0)
(1.91509e-06 0 0)
(1.91544e-06 0 0)
(1.91574e-06 0 0)
(1.916e-06 0 0)
(1.9162e-06 0 0)
(1.91633e-06 0 0)
(1.91643e-06 0 0)
(1.9165e-06 0 0)
(1.91648e-06 0 0)
(1.91635e-06 0 0)
(1.91613e-06 0 0)
(1.9158e-06 0 0)
(1.9153e-06 0 0)
(1.91455e-06 0 0)
(1.91338e-06 0 0)
(1.91155e-06 0 0)
(1.90872e-06 0 0)
(1.90446e-06 0 0)
(1.89849e-06 0 0)
(1.89109e-06 0 0)
(1.88336e-06 0 0)
(1.87677e-06 0 0)
(1.87214e-06 0 0)
(1.86931e-06 0 0)
(1.86762e-06 0 0)
(1.86653e-06 0 0)
(1.86573e-06 0 0)
(1.86506e-06 0 0)
(1.86446e-06 0 0)
(1.8639e-06 0 0)
(1.86337e-06 0 0)
(1.86285e-06 0 0)
(1.86235e-06 0 0)
(1.86187e-06 0 0)
(1.8614e-06 0 0)
(1.86095e-06 0 0)
(1.86052e-06 0 0)
(1.86011e-06 0 0)
(1.85972e-06 0 0)
(1.85934e-06 0 0)
(1.85898e-06 0 0)
(1.85864e-06 0 0)
(1.85832e-06 0 0)
(1.85802e-06 0 0)
(1.85773e-06 0 0)
(1.85746e-06 0 0)
(1.8572e-06 0 0)
(1.85696e-06 0 0)
(1.85673e-06 0 0)
(1.85651e-06 0 0)
(1.85631e-06 0 0)
(1.85611e-06 0 0)
(1.85592e-06 0 0)
(1.85574e-06 0 0)
(1.85557e-06 0 0)
(1.8554e-06 0 0)
(1.85524e-06 0 0)
(1.85509e-06 0 0)
(1.85494e-06 0 0)
(1.85479e-06 0 0)
(1.85464e-06 0 0)
(1.8545e-06 0 0)
(1.85436e-06 0 0)
(1.85422e-06 0 0)
(1.85408e-06 0 0)
(1.85394e-06 0 0)
(1.8538e-06 0 0)
(1.85366e-06 0 0)
(1.85352e-06 0 0)
(1.85338e-06 0 0)
(1.85324e-06 0 0)
(1.8531e-06 0 0)
(1.85296e-06 0 0)
(1.85282e-06 0 0)
(1.85268e-06 0 0)
(1.85254e-06 0 0)
(1.8524e-06 0 0)
(1.85226e-06 0 0)
(1.85212e-06 0 0)
(1.85198e-06 0 0)
(1.85184e-06 0 0)
(1.8517e-06 0 0)
(1.85156e-06 0 0)
(1.85142e-06 0 0)
(1.85129e-06 0 0)
(1.85115e-06 0 0)
(1.85102e-06 0 0)
(1.85089e-06 0 0)
(1.85076e-06 0 0)
(1.85063e-06 0 0)
(1.85051e-06 0 0)
(1.85039e-06 0 0)
(1.85027e-06 0 0)
(1.85015e-06 0 0)
(1.85004e-06 0 0)
(1.84992e-06 0 0)
(1.84982e-06 0 0)
(1.84971e-06 0 0)
(1.84961e-06 0 0)
(1.84951e-06 0 0)
(1.84942e-06 0 0)
(1.84932e-06 0 0)
(1.84924e-06 0 0)
(1.84915e-06 0 0)
(1.84907e-06 0 0)
(1.84899e-06 0 0)
(1.84892e-06 0 0)
(1.84885e-06 0 0)
(1.84879e-06 0 0)
(1.84872e-06 0 0)
(1.84867e-06 0 0)
(1.84861e-06 0 0)
(1.84856e-06 0 0)
(1.84852e-06 0 0)
(1.84848e-06 0 0)
(1.84844e-06 0 0)
(1.84841e-06 0 0)
(1.84838e-06 0 0)
(1.84835e-06 0 0)
(1.84833e-06 0 0)
(1.84832e-06 0 0)
(1.84831e-06 0 0)
(1.8483e-06 0 0)
(1.84829e-06 0 0)
(1.84829e-06 0 0)
(1.84829e-06 0 0)
(1.84829e-06 0 0)
(1.8483e-06 0 0)
(1.84832e-06 0 0)
(1.84834e-06 0 0)
(1.84836e-06 0 0)
(1.84839e-06 0 0)
(1.84842e-06 0 0)
(1.84845e-06 0 0)
(1.84849e-06 0 0)
(1.84853e-06 0 0)
(1.84857e-06 0 0)
(1.84862e-06 0 0)
(1.84867e-06 0 0)
(1.84872e-06 0 0)
(1.84878e-06 0 0)
(1.84884e-06 0 0)
(1.84891e-06 0 0)
(1.84897e-06 0 0)
(1.84905e-06 0 0)
(1.84912e-06 0 0)
(1.84921e-06 0 0)
(1.84929e-06 0 0)
(1.84938e-06 0 0)
(1.84948e-06 0 0)
(1.84958e-06 0 0)
(1.84969e-06 0 0)
(1.8498e-06 0 0)
(1.84992e-06 0 0)
(1.85004e-06 0 0)
(1.85018e-06 0 0)
(1.85032e-06 0 0)
(1.85047e-06 0 0)
(1.85062e-06 0 0)
(1.85079e-06 0 0)
(1.85097e-06 0 0)
(1.85116e-06 0 0)
(1.85136e-06 0 0)
(1.85157e-06 0 0)
(1.8518e-06 0 0)
(1.85204e-06 0 0)
(1.85229e-06 0 0)
(1.85255e-06 0 0)
(1.85284e-06 0 0)
(1.85313e-06 0 0)
(1.85345e-06 0 0)
(1.85377e-06 0 0)
(1.85412e-06 0 0)
(1.85448e-06 0 0)
(1.85486e-06 0 0)
(1.85525e-06 0 0)
(1.85566e-06 0 0)
(1.85609e-06 0 0)
(1.85654e-06 0 0)
(1.85699e-06 0 0)
(1.85747e-06 0 0)
(1.85796e-06 0 0)
(1.85845e-06 0 0)
(1.85897e-06 0 0)
(1.85949e-06 0 0)
(1.86003e-06 0 0)
(1.86057e-06 0 0)
(1.86112e-06 0 0)
(1.86168e-06 0 0)
(1.86224e-06 0 0)
(1.8628e-06 0 0)
(1.86335e-06 0 0)
)
;

boundaryField
{
    inlet
    {
        type            fixedValue;
        value           uniform (2.74882e-06 0 0);
    }
    outlet
    {
        type            zeroGradient;
    }
    emptyWalls
    {
        type            empty;
    }
}


// ************************************************************************* //
