/*--------------------------------*- C++ -*----------------------------------*\
  =========                 |
  \\      /  F ield         | OpenFOAM: The Open Source CFD Toolbox
   \\    /   O peration     | Website:  https://openfoam.org
    \\  /    A nd           | Version:  9
     \\/     M anipulation  |
\*---------------------------------------------------------------------------*/
FoamFile
{
    format      ascii;
    class       volScalarField;
    location    "8450";
    object      Fa;
}
// * * * * * * * * * * * * * * * * * * * * * * * * * * * * * * * * * * * * * //

dimensions      [0 0 0 0 0 0 0];

internalField   nonuniform List<scalar> 
1000
(
0.194807
0.194783
0.194682
0.194705
0.194363
0.194626
0.194001
0.19448
0.193755
0.193877
0.191951
0.177981
0.155246
0.151444
0.149924
0.149054
0.1484
0.147901
0.147472
0.147119
0.146798
0.146549
0.146286
0.146102
0.145867
0.145732
0.145527
0.145352
0.145206
0.145057
0.144943
0.144843
0.144806
0.144778
0.144749
0.144719
0.144689
0.144658
0.144629
0.144599
0.144571
0.144543
0.144516
0.144489
0.144462
0.144436
0.14441
0.144384
0.144358
0.144333
0.144309
0.144285
0.144263
0.144241
0.144219
0.144199
0.144179
0.14416
0.144142
0.144124
0.144106
0.144089
0.144072
0.144055
0.144038
0.144021
0.144002
0.143982
0.143962
0.143942
0.143923
0.143907
0.143894
0.143886
0.143882
0.143879
0.143878
0.143878
0.143878
0.143881
0.143889
0.143905
0.143934
0.143979
0.144041
0.144123
0.144223
0.144342
0.144477
0.144624
0.144781
0.144943
0.145105
0.145263
0.145411
0.145542
0.145652
0.145732
0.145778
0.145785
0.145749
0.145668
0.145543
0.145377
0.145175
0.144942
0.144688
0.144421
0.14415
0.143883
0.143629
0.143392
0.143179
0.142991
0.142831
0.142697
0.142589
0.142504
0.14244
0.142392
0.142358
0.142335
0.142318
0.142306
0.142295
0.142284
0.142271
0.142254
0.142234
0.14221
0.142181
0.142149
0.142112
0.142071
0.142027
0.141981
0.141932
0.141882
0.14183
0.141776
0.141722
0.141668
0.141613
0.141558
0.141502
0.141447
0.141392
0.141337
0.141281
0.141226
0.141172
0.141117
0.141062
0.141008
0.140954
0.140901
0.140847
0.140794
0.140742
0.14069
0.140638
0.140587
0.140537
0.140487
0.140438
0.14039
0.140343
0.140297
0.140252
0.140207
0.140164
0.140122
0.14008
0.14004
0.140001
0.139963
0.139925
0.139889
0.139853
0.139818
0.139783
0.139749
0.139715
0.139682
0.139649
0.139616
0.139584
0.139551
0.139519
0.139487
0.139455
0.139424
0.139392
0.13936
0.139329
0.139298
0.139267
0.139237
0.139206
0.139176
0.139147
0.139117
0.139088
0.13906
0.139031
0.139003
0.138975
0.138947
0.13892
0.138893
0.138866
0.138839
0.138812
0.138785
0.138759
0.138733
0.138707
0.138683
0.138657
0.138634
0.138609
0.138589
0.138564
0.138546
0.138523
0.138508
0.138487
0.138474
0.138458
0.138448
0.138438
0.138431
0.138429
0.138428
0.138435
0.138443
0.138459
0.138479
0.138505
0.138538
0.138576
0.138621
0.138671
0.138727
0.138788
0.138852
0.138921
0.138992
0.139064
0.139137
0.139207
0.139275
0.139338
0.139395
0.139443
0.139482
0.13951
0.139524
0.139525
0.139511
0.13948
0.139434
0.139371
0.139291
0.139197
0.139087
0.138965
0.138831
0.138687
0.138536
0.13838
0.13822
0.13806
0.1379
0.137743
0.137591
0.137445
0.137306
0.137175
0.137053
0.13694
0.136836
0.13674
0.136653
0.136575
0.136503
0.136438
0.136379
0.136325
0.136275
0.136229
0.136186
0.136144
0.136104
0.136065
0.136026
0.135987
0.135947
0.135907
0.135865
0.135822
0.135778
0.135731
0.135685
0.135636
0.135586
0.135535
0.135482
0.135429
0.135373
0.135319
0.135262
0.135206
0.135149
0.135092
0.135035
0.134978
0.134923
0.134868
0.134814
0.134761
0.13471
0.134661
0.134614
0.13457
0.134528
0.134488
0.13445
0.134414
0.134379
0.134342
0.134303
0.134253
0.134187
0.134088
0.133935
0.133696
0.133338
0.132852
0.132291
0.131781
0.131423
0.131218
0.131111
0.131055
0.131022
0.131
0.130984
0.130971
0.13096
0.13095
0.13094
0.130931
0.130923
0.130915
0.130908
0.130901
0.130895
0.130889
0.130884
0.130879
0.130875
0.130872
0.130868
0.130866
0.130864
0.130863
0.130862
0.130862
0.130862
0.130862
0.130862
0.130864
0.130866
0.130868
0.130871
0.130874
0.130878
0.130881
0.130886
0.13089
0.130895
0.1309
0.130906
0.130912
0.130918
0.130924
0.130931
0.130937
0.130944
0.130952
0.130959
0.130967
0.130975
0.130983
0.130991
0.130999
0.131008
0.131017
0.131026
0.131036
0.131045
0.131055
0.131065
0.131076
0.131087
0.131098
0.131109
0.131121
0.131134
0.131146
0.13116
0.131174
0.131189
0.131204
0.131221
0.131238
0.131256
0.131276
0.131296
0.131318
0.131342
0.131367
0.131394
0.131422
0.131453
0.131486
0.131521
0.131559
0.131599
0.131642
0.131688
0.131736
0.131787
0.131841
0.131898
0.131958
0.13202
0.132085
0.132152
0.13222
0.132291
0.132363
0.132437
0.13251
0.132584
0.132658
0.13273
0.132801
0.13287
0.132936
0.132999
0.133057
0.133111
0.133159
0.133201
0.133236
0.133265
0.133285
0.133297
0.133302
0.133303
0.133302
0.133295
0.13327
0.133235
0.133192
0.133143
0.133087
0.133026
0.132959
0.132889
0.132816
0.13274
0.132662
0.132584
0.132506
0.132429
0.132354
0.132281
0.13221
0.132144
0.132081
0.132021
0.131967
0.131916
0.13187
0.131829
0.131792
0.131759
0.13173
0.131705
0.131683
0.131664
0.131648
0.131635
0.131624
0.131615
0.131607
0.1316
0.131595
0.13159
0.131585
0.131581
0.131577
0.131572
0.131567
0.131562
0.131556
0.13155
0.131542
0.131535
0.131526
0.131517
0.131506
0.131496
0.131484
0.131472
0.131459
0.131446
0.131432
0.131417
0.131403
0.131388
0.131372
0.131357
0.131341
0.131325
0.131309
0.131292
0.131276
0.13126
0.131244
0.131228
0.131211
0.131195
0.13118
0.131164
0.131148
0.131133
0.131117
0.131102
0.131087
0.131072
0.131058
0.131043
0.131029
0.131015
0.131002
0.130988
0.130975
0.130962
0.13095
0.130938
0.130926
0.130914
0.130903
0.130893
0.130883
0.130873
0.130864
0.130855
0.130847
0.130839
0.130832
0.130825
0.130819
0.130814
0.13081
0.130806
0.130802
0.1308
0.130798
0.130797
0.130796
0.130796
0.130796
0.130796
0.130798
0.130801
0.130805
0.130809
0.130813
0.130819
0.130825
0.130831
0.130838
0.130845
0.130853
0.130861
0.13087
0.130879
0.130889
0.130899
0.130909
0.130919
0.13093
0.130941
0.130952
0.130964
0.130976
0.130987
0.131
0.131012
0.131024
0.131037
0.13105
0.131063
0.131076
0.131089
0.131103
0.131116
0.131131
0.131145
0.131159
0.131174
0.131189
0.131205
0.131221
0.131238
0.131255
0.131272
0.131291
0.13131
0.13133
0.13135
0.131372
0.131395
0.131419
0.131444
0.13147
0.131498
0.131527
0.131558
0.131591
0.131625
0.131661
0.131699
0.131739
0.131781
0.131825
0.13187
0.131918
0.131967
0.132019
0.132072
0.132127
0.132182
0.13224
0.132298
0.132357
0.132417
0.132477
0.132537
0.132597
0.132655
0.132713
0.132769
0.132823
0.132874
0.132923
0.132969
0.133011
0.133048
0.133082
0.13311
0.133133
0.133151
0.133163
0.133168
0.13317
0.133169
0.133167
0.133155
0.133131
0.133102
0.133066
0.133026
0.132981
0.132931
0.132878
0.132821
0.132762
0.1327
0.132637
0.132573
0.132509
0.132445
0.132382
0.13232
0.13226
0.132202
0.132146
0.132093
0.132043
0.131996
0.131952
0.131912
0.131875
0.131841
0.13181
0.131782
0.131757
0.131735
0.131715
0.131698
0.131683
0.13167
0.131658
0.131647
0.131638
0.13163
0.131623
0.131616
0.13161
0.131604
0.131598
0.131592
0.131585
0.131579
0.131572
0.131564
0.131557
0.131548
0.131539
0.13153
0.131519
0.131509
0.131497
0.131485
0.131473
0.13146
0.131447
0.131433
0.131419
0.131404
0.131389
0.131374
0.131359
0.131344
0.131328
0.131313
0.131297
0.131282
0.131266
0.131251
0.131236
0.131221
0.131206
0.131192
0.131178
0.131164
0.13115
0.131137
0.131124
0.131111
0.131099
0.131087
0.131076
0.131064
0.131054
0.131043
0.131033
0.131023
0.131014
0.131005
0.130996
0.130988
0.13098
0.130972
0.130965
0.130958
0.130952
0.130946
0.13094
0.130935
0.13093
0.130925
0.130921
0.130917
0.130914
0.130911
0.130908
0.130906
0.130904
0.130903
0.130902
0.130902
0.130902
0.130902
0.130902
0.130904
0.130906
0.130908
0.130911
0.130915
0.130919
0.130923
0.130928
0.130933
0.130939
0.130945
0.130952
0.130959
0.130967
0.130975
0.130983
0.130992
0.131001
0.131011
0.131021
0.131031
0.131041
0.131052
0.131063
0.131074
0.131086
0.131098
0.13111
0.131123
0.131136
0.131149
0.131162
0.131176
0.13119
0.131204
0.131219
0.131234
0.13125
0.131267
0.131284
0.131301
0.131319
0.131338
0.131358
0.131378
0.1314
0.131422
0.131445
0.13147
0.131496
0.131522
0.131551
0.13158
0.131611
0.131643
0.131677
0.131712
0.131749
0.131787
0.131827
0.131868
0.131911
0.131954
0.132
0.132046
0.132093
0.132141
0.13219
0.132239
0.132289
0.132339
0.132389
0.132438
0.132487
0.132535
0.132582
0.132627
0.132671
0.132712
0.132752
0.132788
0.132822
0.132852
0.132879
0.132902
0.132922
0.132937
0.132947
0.132953
0.132955
0.132955
0.132954
0.132948
0.132932
0.13291
0.132885
0.132855
0.132821
0.132783
0.132743
0.132699
0.132653
0.132605
0.132555
0.132503
0.132451
0.132399
0.132346
0.132294
0.132243
0.132193
0.132144
0.132097
0.132052
0.132009
0.131968
0.131929
0.131893
0.13186
0.131829
0.1318
0.131774
0.13175
0.131728
0.131708
0.131691
0.131675
0.131661
0.131648
0.131637
0.131627
0.131618
0.13161
0.131602
0.131595
0.131589
0.131583
0.131577
0.131571
0.131564
0.131558
0.131551
0.131544
0.131537
0.131529
0.131521
0.131512
0.131503
0.131493
0.131483
0.131472
0.13146
0.131448
0.131435
0.131422
0.131409
0.131395
0.131381
0.131366
0.131351
0.131336
0.131321
0.131305
0.13129
0.131274
0.131259
0.131243
0.131227
0.131212
0.131196
0.131181
0.131166
0.131151
0.131137
0.131122
0.131108
0.131095
0.131081
0.131068
0.131055
0.131043
0.131031
0.131019
0.131008
0.130997
0.130986
0.130976
0.130966
0.130957
0.130948
0.130939
0.130931
0.130923
0.130915
0.130908
0.130901
0.130894
0.130888
0.130882
0.130877
0.130872
0.130867
0.130863
0.130858
0.130855
0.130851
0.130849
0.130845
0.130851
)
;

boundaryField
{
    inlet
    {
        type            calculated;
        value           uniform 0.194831;
    }
    outlet
    {
        type            calculated;
        value           uniform 0.130843;
    }
    emptyWalls
    {
        type            empty;
    }
}


// ************************************************************************* //
