/*--------------------------------*- C++ -*----------------------------------*\
  =========                 |
  \\      /  F ield         | OpenFOAM: The Open Source CFD Toolbox
   \\    /   O peration     | Website:  https://openfoam.org
    \\  /    A nd           | Version:  9
     \\/     M anipulation  |
\*---------------------------------------------------------------------------*/
FoamFile
{
    format      ascii;
    class       volScalarField;
    location    "8450";
    object      krb;
}
// * * * * * * * * * * * * * * * * * * * * * * * * * * * * * * * * * * * * * //

dimensions      [0 0 0 0 0 0 0];

internalField   nonuniform List<scalar> 
1000
(
0.098196
0.0994752
0.100993
0.102378
0.103866
0.104992
0.106391
0.10718
0.108687
0.111383
0.121859
0.19662
0.426139
0.488187
0.506458
0.515013
0.520154
0.523586
0.526003
0.527718
0.528942
0.529788
0.530373
0.530725
0.530903
0.530883
0.530669
0.530202
0.529427
0.528233
0.52642
0.523772
0.520215
0.516042
0.511593
0.507016
0.502398
0.497789
0.493219
0.488708
0.484265
0.479898
0.475609
0.4714
0.467271
0.463221
0.459248
0.455351
0.451529
0.447779
0.4441
0.440489
0.436944
0.433464
0.430046
0.42669
0.423392
0.420151
0.416966
0.413835
0.410756
0.407728
0.404749
0.401819
0.398935
0.396096
0.393302
0.390551
0.387841
0.385172
0.382542
0.379951
0.377396
0.374878
0.372394
0.369945
0.367529
0.365147
0.362796
0.360476
0.358187
0.355926
0.353693
0.351486
0.349306
0.347151
0.34502
0.342913
0.34083
0.33877
0.336734
0.334721
0.332732
0.330766
0.328823
0.326904
0.325008
0.323136
0.321288
0.319464
0.317663
0.315886
0.314132
0.3124
0.310689
0.308999
0.307328
0.305674
0.304038
0.302416
0.30081
0.299217
0.297637
0.29607
0.294515
0.292971
0.29144
0.28992
0.288413
0.286917
0.285434
0.283962
0.282503
0.281056
0.279621
0.278199
0.276788
0.27539
0.274004
0.272629
0.271266
0.269914
0.268574
0.267244
0.265925
0.264617
0.263319
0.262031
0.260752
0.259484
0.258225
0.256976
0.255736
0.254505
0.253282
0.252069
0.250864
0.249668
0.24848
0.2473
0.246129
0.244965
0.243809
0.242661
0.241521
0.240388
0.239263
0.238145
0.237034
0.23593
0.234833
0.233743
0.23266
0.231583
0.230513
0.22945
0.228392
0.227341
0.226297
0.225258
0.224225
0.223199
0.222178
0.221162
0.220153
0.219149
0.218151
0.217158
0.21617
0.215188
0.214211
0.213239
0.212272
0.211311
0.210354
0.209402
0.208455
0.207513
0.206576
0.205643
0.204715
0.203791
0.202872
0.201957
0.201047
0.200141
0.199239
0.198341
0.197447
0.196558
0.195672
0.19479
0.193912
0.193038
0.192168
0.191301
0.190438
0.189579
0.188723
0.187871
0.187022
0.186177
0.185335
0.184496
0.18366
0.182828
0.181999
0.181173
0.18035
0.17953
0.178713
0.177899
0.177087
0.176279
0.175473
0.17467
0.173869
0.173071
0.172276
0.171483
0.170692
0.169904
0.169118
0.168334
0.167553
0.166773
0.165996
0.16522
0.164447
0.163675
0.162905
0.162137
0.161371
0.160606
0.159844
0.159082
0.158323
0.157565
0.15681
0.156055
0.155303
0.154552
0.153804
0.153057
0.152312
0.151569
0.150828
0.150088
0.149351
0.148616
0.147882
0.14715
0.14642
0.145692
0.144965
0.14424
0.143516
0.142794
0.142073
0.141352
0.140633
0.139914
0.139196
0.138479
0.137762
0.137045
0.136328
0.135611
0.134894
0.134177
0.133459
0.132742
0.132024
0.131306
0.130588
0.129869
0.12915
0.128431
0.127711
0.12699
0.12627
0.125548
0.124827
0.124104
0.123381
0.122658
0.121933
0.121208
0.120483
0.119757
0.11903
0.118303
0.117575
0.116846
0.116117
0.115388
0.114659
0.113931
0.113203
0.112477
0.111753
0.111031
0.110314
0.109602
0.108898
0.108203
0.107519
0.10685
0.106199
0.10557
0.104965
0.10439
0.103846
0.103338
0.102868
0.102436
0.102043
0.101685
0.101352
0.101031
0.100692
0.100287
0.0997344
0.0988907
0.0975203
0.0952537
0.091573
0.0859062
0.0779494
0.0681791
0.0580536
0.0493275
0.0429848
0.0389516
0.0366102
0.0353245
0.0346403
0.0342825
0.0340971
0.0340015
0.0339523
0.0339271
0.0339141
0.0339075
0.0339041
0.0339024
0.0339015
0.033901
0.0339008
0.0339007
0.0339007
0.0339007
0.0339007
0.0339008
0.0339008
0.0339008
0.0339008
0.0339008
0.0339008
0.0339008
0.0339008
0.0339008
0.0339008
0.0339008
0.0339007
0.0339007
0.0339007
0.0339007
0.0339007
0.0339006
0.0339006
0.0339006
0.0339006
0.0339005
0.0339005
0.0339005
0.0339005
0.0339004
0.0339004
0.0339003
0.0339003
0.0339003
0.0339002
0.0339002
0.0339001
0.0339001
0.0339001
0.0339
0.0339
0.0338999
0.0338998
0.0338997
0.0338997
0.0338996
0.0338995
0.0338994
0.0338993
0.0338992
0.0338991
0.033899
0.0338988
0.0338987
0.0338985
0.0338984
0.0338982
0.033898
0.0338978
0.0338976
0.0338974
0.0338972
0.033897
0.0338967
0.0338965
0.0338962
0.033896
0.0338957
0.0338954
0.0338951
0.0338947
0.0338944
0.0338941
0.0338937
0.0338933
0.0338929
0.0338925
0.0338921
0.0338917
0.0338912
0.0338908
0.0338903
0.0338899
0.0338894
0.0338889
0.0338884
0.033888
0.0338875
0.033887
0.0338865
0.0338861
0.0338856
0.0338852
0.0338848
0.0338845
0.0338841
0.0338838
0.0338835
0.0338833
0.0338831
0.0338829
0.0338828
0.0338828
0.0338827
0.0338827
0.0338827
0.0338828
0.033883
0.0338832
0.0338834
0.0338837
0.033884
0.0338843
0.0338847
0.0338851
0.0338855
0.0338859
0.0338863
0.0338867
0.0338871
0.0338875
0.0338879
0.0338883
0.0338887
0.033889
0.0338893
0.0338896
0.0338899
0.0338902
0.0338904
0.0338906
0.0338908
0.033891
0.0338912
0.0338913
0.0338915
0.0338916
0.0338917
0.0338918
0.0338918
0.0338919
0.033892
0.0338921
0.0338921
0.0338922
0.0338922
0.0338923
0.0338923
0.0338924
0.0338924
0.0338925
0.0338926
0.0338926
0.0338927
0.0338928
0.0338928
0.0338929
0.033893
0.0338931
0.0338932
0.0338932
0.0338933
0.0338934
0.0338935
0.0338936
0.0338937
0.0338938
0.0338938
0.0338939
0.033894
0.0338941
0.0338942
0.0338943
0.0338944
0.0338945
0.0338946
0.0338946
0.0338947
0.0338948
0.0338949
0.033895
0.0338951
0.0338951
0.0338952
0.0338953
0.0338954
0.0338954
0.0338955
0.0338956
0.0338956
0.0338957
0.0338958
0.0338959
0.0338959
0.033896
0.033896
0.0338961
0.0338961
0.0338962
0.0338963
0.0338963
0.0338963
0.0338964
0.0338964
0.0338964
0.0338965
0.0338965
0.0338965
0.0338965
0.0338965
0.0338965
0.0338965
0.0338965
0.0338965
0.0338965
0.0338965
0.0338965
0.0338964
0.0338964
0.0338964
0.0338963
0.0338963
0.0338963
0.0338963
0.0338963
0.0338963
0.0338963
0.0338964
0.0338964
0.0338964
0.0338964
0.0338964
0.0338965
0.0338965
0.0338966
0.0338966
0.0338966
0.0338966
0.0338967
0.0338967
0.0338967
0.0338966
0.0338966
0.0338966
0.0338965
0.0338965
0.0338964
0.0338964
0.0338963
0.0338962
0.0338962
0.0338961
0.033896
0.0338959
0.0338958
0.0338957
0.0338956
0.0338955
0.0338954
0.0338953
0.0338952
0.0338951
0.033895
0.0338949
0.0338948
0.0338946
0.0338945
0.0338944
0.0338943
0.0338941
0.033894
0.0338938
0.0338937
0.0338935
0.0338933
0.0338932
0.033893
0.0338928
0.0338926
0.0338924
0.0338921
0.0338919
0.0338917
0.0338914
0.0338912
0.0338909
0.0338906
0.0338903
0.03389
0.0338897
0.0338894
0.0338891
0.0338887
0.0338884
0.0338881
0.0338878
0.0338874
0.0338871
0.0338868
0.0338865
0.0338862
0.0338859
0.0338856
0.0338854
0.0338852
0.033885
0.0338848
0.0338846
0.0338845
0.0338844
0.0338843
0.0338843
0.0338842
0.0338842
0.0338842
0.0338843
0.0338844
0.0338846
0.0338848
0.033885
0.0338852
0.0338855
0.0338857
0.033886
0.0338863
0.0338867
0.033887
0.0338873
0.0338877
0.033888
0.0338883
0.0338887
0.033889
0.0338893
0.0338896
0.0338899
0.0338901
0.0338904
0.0338906
0.0338908
0.033891
0.0338912
0.0338914
0.0338915
0.0338916
0.0338918
0.0338919
0.033892
0.0338921
0.0338921
0.0338922
0.0338923
0.0338923
0.0338924
0.0338924
0.0338924
0.0338925
0.0338925
0.0338925
0.0338926
0.0338926
0.0338926
0.0338927
0.0338927
0.0338928
0.0338928
0.0338929
0.0338929
0.033893
0.033893
0.0338931
0.0338931
0.0338932
0.0338933
0.0338934
0.0338934
0.0338935
0.0338936
0.0338937
0.0338937
0.0338938
0.0338939
0.033894
0.0338941
0.0338942
0.0338942
0.0338943
0.0338944
0.0338945
0.0338946
0.0338946
0.0338947
0.0338948
0.0338949
0.0338949
0.033895
0.0338951
0.0338951
0.0338952
0.0338952
0.0338953
0.0338954
0.0338954
0.0338955
0.0338955
0.0338956
0.0338956
0.0338957
0.0338957
0.0338957
0.0338958
0.0338958
0.0338958
0.0338959
0.0338959
0.0338959
0.0338959
0.033896
0.033896
0.033896
0.033896
0.0338961
0.0338961
0.0338961
0.0338961
0.0338962
0.0338962
0.0338962
0.0338962
0.0338962
0.0338962
0.0338963
0.0338963
0.0338963
0.0338963
0.0338963
0.0338963
0.0338963
0.0338963
0.0338963
0.0338963
0.0338963
0.0338963
0.0338963
0.0338963
0.0338962
0.0338962
0.0338962
0.0338961
0.0338961
0.0338961
0.033896
0.033896
0.0338959
0.0338959
0.0338958
0.0338957
0.0338957
0.0338956
0.0338955
0.0338954
0.0338954
0.0338953
0.0338952
0.0338951
0.0338951
0.033895
0.0338949
0.0338948
0.0338947
0.0338946
0.0338945
0.0338944
0.0338943
0.0338942
0.0338941
0.033894
0.0338939
0.0338938
0.0338936
0.0338935
0.0338934
0.0338932
0.0338931
0.0338929
0.0338928
0.0338926
0.0338924
0.0338922
0.0338921
0.0338919
0.0338917
0.0338914
0.0338912
0.033891
0.0338908
0.0338905
0.0338903
0.03389
0.0338898
0.0338895
0.0338893
0.033889
0.0338887
0.0338885
0.0338882
0.033888
0.0338877
0.0338875
0.0338872
0.033887
0.0338868
0.0338866
0.0338864
0.0338862
0.033886
0.0338859
0.0338858
0.0338857
0.0338856
0.0338855
0.0338855
0.0338855
0.0338855
0.0338855
0.0338855
0.0338856
0.0338857
0.0338859
0.033886
0.0338862
0.0338864
0.0338866
0.0338869
0.0338871
0.0338873
0.0338876
0.0338879
0.0338881
0.0338884
0.0338887
0.033889
0.0338893
0.0338895
0.0338898
0.03389
0.0338902
0.0338905
0.0338907
0.0338909
0.0338911
0.0338913
0.0338914
0.0338916
0.0338917
0.0338918
0.0338919
0.0338921
0.0338922
0.0338922
0.0338923
0.0338924
0.0338924
0.0338925
0.0338925
0.0338926
0.0338926
0.0338927
0.0338927
0.0338927
0.0338928
0.0338928
0.0338928
0.0338928
0.0338929
0.0338929
0.033893
0.033893
0.0338931
0.0338931
0.0338931
0.0338932
0.0338932
0.0338933
0.0338934
0.0338934
0.0338935
0.0338936
0.0338936
0.0338937
0.0338938
0.0338939
0.033894
0.033894
0.0338941
0.0338942
0.0338943
0.0338944
0.0338945
0.0338946
0.0338946
0.0338947
0.0338948
0.0338949
0.0338949
0.033895
0.0338951
0.0338952
0.0338953
0.0338953
0.0338954
0.0338955
0.0338955
0.0338956
0.0338957
0.0338957
0.0338958
0.0338958
0.0338959
0.033896
0.033896
0.0338961
0.0338961
0.0338961
0.0338962
0.0338962
0.0338963
0.0338963
0.0338964
0.0338964
0.0338964
0.0338965
0.0338965
0.0338965
0.0338966
0.0338966
0.0338966
0.0338967
0.0338967
0.0338967
0.0338967
0.0338967
)
;

boundaryField
{
    inlet
    {
        type            calculated;
        value           uniform 0.0976562;
    }
    outlet
    {
        type            calculated;
        value           uniform 0.0338967;
    }
    emptyWalls
    {
        type            empty;
    }
}


// ************************************************************************* //
