/*--------------------------------*- C++ -*----------------------------------*\
  =========                 |
  \\      /  F ield         | OpenFOAM: The Open Source CFD Toolbox
   \\    /   O peration     | Website:  https://openfoam.org
    \\  /    A nd           | Version:  9
     \\/     M anipulation  |
\*---------------------------------------------------------------------------*/
FoamFile
{
    format      ascii;
    class       surfaceScalarField;
    location    "8450";
    object      phic;
}
// * * * * * * * * * * * * * * * * * * * * * * * * * * * * * * * * * * * * * //

dimensions      [0 2 0 0 0 0 0];

internalField   nonuniform List<scalar> 
999
(
9.04905e-15
4.12486e-14
9.28792e-14
1.59992e-13
2.37828e-13
3.20034e-13
4.02439e-13
4.95048e-13
6.83306e-13
1.32602e-12
3.75941e-12
1.63824e-11
2.0328e-11
2.15338e-11
2.21429e-11
2.25638e-11
2.29035e-11
2.31986e-11
2.34645e-11
2.37086e-11
2.39362e-11
2.41527e-11
2.4364e-11
2.45763e-11
2.47955e-11
2.50324e-11
2.53044e-11
2.56082e-11
2.59633e-11
2.63989e-11
2.69508e-11
2.76449e-11
2.84767e-11
2.94139e-11
3.04224e-11
3.14799e-11
3.25728e-11
3.36921e-11
3.48323e-11
3.59892e-11
3.71602e-11
3.83432e-11
3.9537e-11
4.07403e-11
4.19523e-11
4.31724e-11
4.44001e-11
4.56348e-11
4.68762e-11
4.8124e-11
4.93778e-11
5.06374e-11
5.19025e-11
5.3173e-11
5.44488e-11
5.57296e-11
5.70152e-11
5.83056e-11
5.96007e-11
6.09003e-11
6.22042e-11
6.35126e-11
6.48251e-11
6.61417e-11
6.74625e-11
6.87873e-11
7.01161e-11
7.14488e-11
7.27853e-11
7.41255e-11
7.54692e-11
7.68163e-11
7.81667e-11
7.95203e-11
8.08771e-11
8.22372e-11
8.36006e-11
8.49672e-11
8.63369e-11
8.77096e-11
8.9085e-11
9.04626e-11
9.18421e-11
9.32232e-11
9.46056e-11
9.59893e-11
9.73741e-11
9.87602e-11
1.00148e-10
1.01536e-10
1.02927e-10
1.0432e-10
1.05716e-10
1.07115e-10
1.08518e-10
1.09925e-10
1.11337e-10
1.12755e-10
1.1418e-10
1.15612e-10
1.17052e-10
1.18499e-10
1.19954e-10
1.21417e-10
1.22887e-10
1.24363e-10
1.25845e-10
1.27332e-10
1.28822e-10
1.30315e-10
1.31809e-10
1.33305e-10
1.348e-10
1.36296e-10
1.37792e-10
1.39288e-10
1.40784e-10
1.4228e-10
1.43777e-10
1.45275e-10
1.46774e-10
1.48274e-10
1.49777e-10
1.51283e-10
1.52791e-10
1.54302e-10
1.55817e-10
1.57335e-10
1.58857e-10
1.60382e-10
1.61911e-10
1.63444e-10
1.6498e-10
1.6652e-10
1.68064e-10
1.69611e-10
1.71161e-10
1.72715e-10
1.74273e-10
1.75834e-10
1.77398e-10
1.78965e-10
1.80536e-10
1.8211e-10
1.83687e-10
1.85268e-10
1.86852e-10
1.88439e-10
1.9003e-10
1.91624e-10
1.93221e-10
1.94822e-10
1.96426e-10
1.98034e-10
1.99645e-10
2.01259e-10
2.02877e-10
2.04498e-10
2.06123e-10
2.07751e-10
2.09383e-10
2.11018e-10
2.12657e-10
2.14299e-10
2.15945e-10
2.17594e-10
2.19247e-10
2.20903e-10
2.22563e-10
2.24226e-10
2.25893e-10
2.27564e-10
2.29238e-10
2.30917e-10
2.32598e-10
2.34284e-10
2.35973e-10
2.37666e-10
2.39363e-10
2.41064e-10
2.42768e-10
2.44477e-10
2.4619e-10
2.47907e-10
2.49628e-10
2.51353e-10
2.53083e-10
2.54816e-10
2.56554e-10
2.58297e-10
2.60043e-10
2.61795e-10
2.6355e-10
2.6531e-10
2.67075e-10
2.68844e-10
2.70618e-10
2.72397e-10
2.7418e-10
2.75967e-10
2.7776e-10
2.79557e-10
2.8136e-10
2.83167e-10
2.84979e-10
2.86796e-10
2.88618e-10
2.90445e-10
2.92277e-10
2.94115e-10
2.95958e-10
2.97806e-10
2.99659e-10
3.01518e-10
3.03383e-10
3.05252e-10
3.07128e-10
3.09009e-10
3.10895e-10
3.12788e-10
3.14686e-10
3.16589e-10
3.18499e-10
3.20414e-10
3.22335e-10
3.24262e-10
3.26195e-10
3.28134e-10
3.30078e-10
3.32028e-10
3.33985e-10
3.35946e-10
3.37913e-10
3.39886e-10
3.41864e-10
3.43847e-10
3.45835e-10
3.47829e-10
3.49827e-10
3.5183e-10
3.53839e-10
3.55853e-10
3.57872e-10
3.59897e-10
3.61927e-10
3.63964e-10
3.66008e-10
3.68058e-10
3.70117e-10
3.72184e-10
3.74259e-10
3.76345e-10
3.78441e-10
3.80549e-10
3.82668e-10
3.84801e-10
3.86948e-10
3.8911e-10
3.91287e-10
3.9348e-10
3.9569e-10
3.97917e-10
4.00161e-10
4.02423e-10
4.04702e-10
4.06998e-10
4.09311e-10
4.1164e-10
4.13985e-10
4.16345e-10
4.1872e-10
4.21109e-10
4.2351e-10
4.25925e-10
4.28351e-10
4.30789e-10
4.33238e-10
4.35698e-10
4.38169e-10
4.4065e-10
4.43142e-10
4.45645e-10
4.48159e-10
4.50685e-10
4.53224e-10
4.55776e-10
4.58341e-10
4.60919e-10
4.63513e-10
4.66122e-10
4.68746e-10
4.71388e-10
4.74046e-10
4.76723e-10
4.79418e-10
4.82132e-10
4.84866e-10
4.87619e-10
4.90392e-10
4.93186e-10
4.96e-10
4.98836e-10
5.01692e-10
5.04569e-10
5.07466e-10
5.10381e-10
5.13315e-10
5.16265e-10
5.1923e-10
5.22208e-10
5.25194e-10
5.28185e-10
5.31175e-10
5.34156e-10
5.3712e-10
5.40057e-10
5.42956e-10
5.45802e-10
5.48579e-10
5.51271e-10
5.53858e-10
5.56325e-10
5.58654e-10
5.60831e-10
5.62846e-10
5.64697e-10
5.6639e-10
5.67952e-10
5.69436e-10
5.70939e-10
5.72634e-10
5.74821e-10
5.78024e-10
5.83133e-10
5.91624e-10
6.0579e-10
6.28783e-10
6.63936e-10
7.1268e-10
7.71534e-10
8.31386e-10
8.82058e-10
9.18367e-10
9.4123e-10
9.54425e-10
9.6165e-10
9.65492e-10
9.67506e-10
9.68554e-10
9.69099e-10
9.69384e-10
9.69535e-10
9.69617e-10
9.69664e-10
9.69691e-10
9.69709e-10
9.69721e-10
9.6973e-10
9.69738e-10
9.69744e-10
9.69749e-10
9.69753e-10
9.69757e-10
9.6976e-10
9.69763e-10
9.69764e-10
9.69766e-10
9.69766e-10
9.69766e-10
9.69766e-10
9.69766e-10
9.69765e-10
9.69763e-10
9.6976e-10
9.69758e-10
9.69754e-10
9.69751e-10
9.69747e-10
9.69742e-10
9.69737e-10
9.69732e-10
9.69726e-10
9.6972e-10
9.69714e-10
9.69708e-10
9.69701e-10
9.69694e-10
9.69686e-10
9.69678e-10
9.69671e-10
9.69662e-10
9.69654e-10
9.69645e-10
9.69636e-10
9.69627e-10
9.69618e-10
9.69608e-10
9.69599e-10
9.69589e-10
9.69578e-10
9.69568e-10
9.69557e-10
9.69546e-10
9.69535e-10
9.69524e-10
9.69512e-10
9.69499e-10
9.69487e-10
9.69474e-10
9.6946e-10
9.69446e-10
9.69431e-10
9.69416e-10
9.694e-10
9.69383e-10
9.69365e-10
9.69345e-10
9.69325e-10
9.69304e-10
9.69281e-10
9.69257e-10
9.6923e-10
9.69202e-10
9.69173e-10
9.6914e-10
9.69106e-10
9.69069e-10
9.69029e-10
9.68987e-10
9.68942e-10
9.68894e-10
9.68842e-10
9.68788e-10
9.6873e-10
9.68669e-10
9.68606e-10
9.68539e-10
9.68469e-10
9.68397e-10
9.68322e-10
9.68245e-10
9.68166e-10
9.68086e-10
9.68005e-10
9.67924e-10
9.67843e-10
9.67762e-10
9.67683e-10
9.67606e-10
9.67532e-10
9.67461e-10
9.67394e-10
9.67332e-10
9.67276e-10
9.67226e-10
9.67184e-10
9.67149e-10
9.67122e-10
9.67104e-10
9.67095e-10
9.67092e-10
9.67092e-10
9.67095e-10
9.67115e-10
9.67149e-10
9.67192e-10
9.67243e-10
9.67302e-10
9.67367e-10
9.67438e-10
9.67514e-10
9.67594e-10
9.67677e-10
9.67762e-10
9.67849e-10
9.67935e-10
9.68022e-10
9.68106e-10
9.68189e-10
9.68268e-10
9.68344e-10
9.68416e-10
9.68484e-10
9.68547e-10
9.68605e-10
9.68659e-10
9.68707e-10
9.68751e-10
9.68789e-10
9.68824e-10
9.68854e-10
9.68879e-10
9.68902e-10
9.68921e-10
9.68937e-10
9.6895e-10
9.68961e-10
9.6897e-10
9.68978e-10
9.68985e-10
9.6899e-10
9.68995e-10
9.69e-10
9.69005e-10
9.69009e-10
9.69014e-10
9.6902e-10
9.69026e-10
9.69032e-10
9.6904e-10
9.69048e-10
9.69057e-10
9.69067e-10
9.69077e-10
9.69089e-10
9.69101e-10
9.69114e-10
9.69128e-10
9.69142e-10
9.69157e-10
9.69173e-10
9.69189e-10
9.69205e-10
9.69222e-10
9.6924e-10
9.69257e-10
9.69275e-10
9.69292e-10
9.6931e-10
9.69328e-10
9.69346e-10
9.69364e-10
9.69382e-10
9.694e-10
9.69418e-10
9.69436e-10
9.69454e-10
9.69471e-10
9.69488e-10
9.69506e-10
9.69522e-10
9.69539e-10
9.69556e-10
9.69572e-10
9.69588e-10
9.69604e-10
9.6962e-10
9.69635e-10
9.6965e-10
9.69665e-10
9.69679e-10
9.69693e-10
9.69707e-10
9.6972e-10
9.69733e-10
9.69746e-10
9.69758e-10
9.6977e-10
9.69781e-10
9.69791e-10
9.69801e-10
9.69811e-10
9.6982e-10
9.69828e-10
9.69836e-10
9.69843e-10
9.69849e-10
9.69855e-10
9.6986e-10
9.69864e-10
9.69868e-10
9.6987e-10
9.69872e-10
9.69873e-10
9.69874e-10
9.69874e-10
9.69874e-10
9.69873e-10
9.6987e-10
9.69867e-10
9.69863e-10
9.69858e-10
9.69852e-10
9.69845e-10
9.69838e-10
9.6983e-10
9.69822e-10
9.69813e-10
9.69803e-10
9.69793e-10
9.69783e-10
9.69772e-10
9.69761e-10
9.69749e-10
9.69737e-10
9.69724e-10
9.69712e-10
9.69699e-10
9.69686e-10
9.69673e-10
9.69659e-10
9.69646e-10
9.69632e-10
9.69618e-10
9.69604e-10
9.6959e-10
9.69576e-10
9.69561e-10
9.69547e-10
9.69532e-10
9.69517e-10
9.69501e-10
9.69486e-10
9.6947e-10
9.69454e-10
9.69437e-10
9.6942e-10
9.69403e-10
9.69385e-10
9.69366e-10
9.69347e-10
9.69327e-10
9.69307e-10
9.69285e-10
9.69263e-10
9.69239e-10
9.69215e-10
9.69189e-10
9.69162e-10
9.69134e-10
9.69103e-10
9.69072e-10
9.69038e-10
9.69003e-10
9.68966e-10
9.68927e-10
9.68886e-10
9.68843e-10
9.68798e-10
9.6875e-10
9.68701e-10
9.68649e-10
9.68595e-10
9.68539e-10
9.68481e-10
9.68421e-10
9.6836e-10
9.68297e-10
9.68233e-10
9.68168e-10
9.68102e-10
9.68035e-10
9.67969e-10
9.67902e-10
9.67837e-10
9.67772e-10
9.67709e-10
9.67648e-10
9.6759e-10
9.67534e-10
9.67482e-10
9.67433e-10
9.67389e-10
9.6735e-10
9.67316e-10
9.67287e-10
9.67264e-10
9.67248e-10
9.67238e-10
9.67235e-10
9.67234e-10
9.67235e-10
9.67241e-10
9.67263e-10
9.67293e-10
9.67329e-10
9.67371e-10
9.67419e-10
9.67471e-10
9.67529e-10
9.6759e-10
9.67654e-10
9.67722e-10
9.67791e-10
9.67861e-10
9.67933e-10
9.68004e-10
9.68074e-10
9.68144e-10
9.68212e-10
9.68278e-10
9.68341e-10
9.68401e-10
9.68458e-10
9.68512e-10
9.68563e-10
9.68609e-10
9.68653e-10
9.68692e-10
9.68728e-10
9.68761e-10
9.6879e-10
9.68816e-10
9.68839e-10
9.6886e-10
9.68878e-10
9.68893e-10
9.68907e-10
9.6892e-10
9.6893e-10
9.6894e-10
9.68949e-10
9.68956e-10
9.68964e-10
9.68971e-10
9.68977e-10
9.68984e-10
9.68991e-10
9.68998e-10
9.69005e-10
9.69013e-10
9.69022e-10
9.69031e-10
9.6904e-10
9.69051e-10
9.69062e-10
9.69073e-10
9.69086e-10
9.69099e-10
9.69112e-10
9.69126e-10
9.69141e-10
9.69156e-10
9.69171e-10
9.69187e-10
9.69204e-10
9.6922e-10
9.69237e-10
9.69254e-10
9.69271e-10
9.69288e-10
9.69306e-10
9.69323e-10
9.6934e-10
9.69357e-10
9.69374e-10
9.6939e-10
9.69407e-10
9.69423e-10
9.69439e-10
9.69455e-10
9.6947e-10
9.69485e-10
9.69499e-10
9.69514e-10
9.69528e-10
9.69541e-10
9.69554e-10
9.69567e-10
9.69579e-10
9.69591e-10
9.69603e-10
9.69614e-10
9.69624e-10
9.69634e-10
9.69644e-10
9.69654e-10
9.69663e-10
9.69672e-10
9.6968e-10
9.69688e-10
9.69695e-10
9.69702e-10
9.69709e-10
9.69715e-10
9.69721e-10
9.69726e-10
9.69731e-10
9.69735e-10
9.69739e-10
9.69743e-10
9.69746e-10
9.69748e-10
9.6975e-10
9.69752e-10
9.69753e-10
9.69753e-10
9.69753e-10
9.69753e-10
9.69753e-10
9.69752e-10
9.6975e-10
9.69747e-10
9.69744e-10
9.6974e-10
9.69736e-10
9.69731e-10
9.69726e-10
9.6972e-10
9.69714e-10
9.69707e-10
9.69699e-10
9.69692e-10
9.69683e-10
9.69674e-10
9.69665e-10
9.69656e-10
9.69646e-10
9.69635e-10
9.69625e-10
9.69614e-10
9.69602e-10
9.6959e-10
9.69578e-10
9.69566e-10
9.69553e-10
9.6954e-10
9.69527e-10
9.69513e-10
9.69499e-10
9.69485e-10
9.6947e-10
9.69455e-10
9.69439e-10
9.69424e-10
9.69407e-10
9.69391e-10
9.69374e-10
9.69356e-10
9.69337e-10
9.69318e-10
9.69299e-10
9.69278e-10
9.69257e-10
9.69235e-10
9.69211e-10
9.69187e-10
9.69162e-10
9.69135e-10
9.69107e-10
9.69078e-10
9.69047e-10
9.69015e-10
9.68982e-10
9.68947e-10
9.6891e-10
9.68872e-10
9.68832e-10
9.6879e-10
9.68747e-10
9.68702e-10
9.68656e-10
9.68608e-10
9.68558e-10
9.68508e-10
9.68456e-10
9.68403e-10
9.68349e-10
9.68294e-10
9.68239e-10
9.68184e-10
9.68129e-10
9.68074e-10
9.68019e-10
9.67965e-10
9.67912e-10
9.67861e-10
9.67812e-10
9.67764e-10
9.67719e-10
9.67677e-10
9.67638e-10
9.67603e-10
9.67571e-10
9.67543e-10
9.67519e-10
9.675e-10
9.67486e-10
9.67477e-10
9.67473e-10
9.67472e-10
9.67472e-10
9.67475e-10
9.67488e-10
9.67509e-10
9.67536e-10
9.67566e-10
9.67602e-10
9.67641e-10
9.67685e-10
9.67732e-10
9.67782e-10
9.67834e-10
9.67889e-10
9.67945e-10
9.68002e-10
9.6806e-10
9.68119e-10
9.68177e-10
9.68234e-10
9.6829e-10
9.68345e-10
9.68399e-10
9.6845e-10
9.68499e-10
9.68546e-10
9.6859e-10
9.68631e-10
9.6867e-10
9.68706e-10
9.68739e-10
9.6877e-10
9.68798e-10
9.68823e-10
9.68846e-10
9.68867e-10
9.68885e-10
9.68902e-10
9.68917e-10
9.6893e-10
9.68942e-10
9.68952e-10
9.68962e-10
9.6897e-10
9.68978e-10
9.68986e-10
9.68993e-10
9.69e-10
9.69007e-10
9.69014e-10
9.6902e-10
9.69028e-10
9.69035e-10
9.69043e-10
9.69051e-10
9.6906e-10
9.6907e-10
9.6908e-10
9.69091e-10
9.69102e-10
9.69114e-10
9.69126e-10
9.69139e-10
9.69153e-10
9.69167e-10
9.69182e-10
9.69197e-10
9.69213e-10
9.69229e-10
9.69245e-10
9.69262e-10
9.69279e-10
9.69296e-10
9.69313e-10
9.6933e-10
9.69348e-10
9.69365e-10
9.69382e-10
9.694e-10
9.69417e-10
9.69434e-10
9.69451e-10
9.69467e-10
9.69484e-10
9.695e-10
9.69516e-10
9.69531e-10
9.69546e-10
9.69561e-10
9.69575e-10
9.69589e-10
9.69603e-10
9.69616e-10
9.69629e-10
9.69641e-10
9.69653e-10
9.69665e-10
9.69676e-10
9.69686e-10
9.69697e-10
9.69707e-10
9.69716e-10
9.69725e-10
9.69734e-10
9.69742e-10
9.6975e-10
9.69757e-10
9.69764e-10
9.69771e-10
9.69777e-10
9.69783e-10
9.69789e-10
9.69794e-10
9.69798e-10
9.69803e-10
9.69807e-10
9.6981e-10
9.69813e-10
9.69816e-10
)
;

boundaryField
{
    inlet
    {
        type            calculated;
        value           uniform 0;
    }
    outlet
    {
        type            calculated;
        value           uniform 9.69818e-10;
    }
    emptyWalls
    {
        type            empty;
        value           nonuniform List<scalar> 0();
    }
}


// ************************************************************************* //
