/*--------------------------------*- C++ -*----------------------------------*\
  =========                 |
  \\      /  F ield         | OpenFOAM: The Open Source CFD Toolbox
   \\    /   O peration     | Website:  https://openfoam.org
    \\  /    A nd           | Version:  9
     \\/     M anipulation  |
\*---------------------------------------------------------------------------*/
FoamFile
{
    format      ascii;
    class       volScalarField;
    location    "27050";
    object      kra;
}
// * * * * * * * * * * * * * * * * * * * * * * * * * * * * * * * * * * * * * //

dimensions      [0 0 0 0 0 0 0];

internalField   nonuniform List<scalar> 
1000
(
0.000236624
0.000237345
0.000238334
0.000239287
0.000240303
0.000241248
0.000242284
0.000243238
0.000244288
0.000245275
0.000246328
0.000247359
0.000248412
0.000249474
0.000250539
0.000251611
0.000252689
0.000253758
0.000254826
0.00025588
0.000256906
0.000257921
0.000258872
0.000259825
0.00026066
0.000261521
0.000262219
0.000262948
0.000263524
0.000264097
0.000264569
0.000265009
0.000265391
0.000265776
0.000266296
0.00026763
0.00027241
0.000292868
0.000439909
0.000788202
0.000873344
0.000894978
0.000903837
0.000908748
0.000912001
0.000914408
0.000916301
0.000917859
0.000919169
0.00092029
0.000921266
0.000922126
0.000922884
0.000923555
0.000924139
0.000924642
0.000925072
0.000925453
0.000925807
0.000926155
0.000926487
0.000926785
0.00092703
0.000927216
0.000927323
0.000927332
0.000927316
0.000927301
0.00092732
0.000927492
0.000927665
0.000927717
0.000927714
0.000927695
0.000927604
0.000927365
0.000927014
0.000926636
0.000926363
0.000926092
0.000925997
0.000925997
0.000926132
0.000927089
0.000928463
0.00092993
0.000931418
0.000932828
0.000934054
0.000934998
0.000935589
0.000935838
0.000935873
0.000935859
0.000935794
0.000935488
0.000934442
0.000932853
0.000930815
0.00092842
0.00092576
0.000922918
0.00091996
0.000916936
0.000913876
0.000910809
0.00090776
0.000904768
0.000901863
0.000899067
0.000896382
0.000893801
0.000891305
0.000888875
0.000886489
0.000884128
0.000881776
0.000879419
0.000877048
0.00087466
0.000872252
0.000869825
0.000867382
0.000864928
0.000862465
0.00086
0.000857535
0.000855076
0.000852624
0.000850184
0.000847758
0.000845347
0.000842952
0.000840576
0.000838219
0.000835881
0.000833564
0.000831265
0.000828988
0.00082673
0.000824492
0.000822275
0.000820079
0.000817903
0.000815748
0.000813614
0.0008115
0.000809407
0.000807335
0.000805282
0.000803247
0.000801232
0.000799234
0.000797253
0.00079529
0.000793344
0.000791417
0.000789508
0.000787619
0.000785751
0.000783902
0.000782075
0.000780266
0.000778477
0.000776705
0.000774949
0.000773206
0.000771476
0.000769757
0.000768049
0.000766351
0.000764665
0.000762992
0.000761336
0.000759696
0.000758075
0.000756473
0.00075489
0.000753324
0.000751774
0.000750237
0.000748711
0.000747192
0.000745677
0.000744162
0.000742644
0.000741122
0.000739599
0.000738078
0.000736568
0.00073508
0.000733627
0.000732223
0.000730881
0.000729614
0.000728428
0.00072733
0.00072632
0.000725396
0.000724554
0.000723784
0.000723077
0.00072242
0.000721801
0.000721206
0.000720616
0.000720016
0.000719387
0.000718711
0.000717967
0.000717139
0.000716209
0.000715164
0.000713993
0.000712691
0.000711255
0.000709692
0.00070801
0.000706223
0.000704347
0.000702405
0.000700416
0.000698404
0.000696389
0.000694392
0.000692428
0.000690513
0.000688656
0.000686865
0.000685143
0.000683492
0.00068191
0.000680394
0.000678938
0.000677536
0.000676181
0.000674866
0.000673585
0.000672329
0.000671094
0.000669874
0.000668664
0.00066746
0.000666259
0.000665059
0.000663859
0.000662657
0.000661453
0.000660246
0.000659038
0.000657828
0.000656618
0.000655407
0.000654197
0.000652989
0.000651783
0.000650581
0.000649383
0.000648189
0.000647
0.000645818
0.000644641
0.000643471
0.000642308
0.000641152
0.000640003
0.000638862
0.000637729
0.000636604
0.000635487
0.000634377
0.000633276
0.000632182
0.000631097
0.000630019
0.000628949
0.000627887
0.000626832
0.000625785
0.000624746
0.000623715
0.000622691
0.000621675
0.000620667
0.000619668
0.000618676
0.000617692
0.000616716
0.000615748
0.000614787
0.000613834
0.000612887
0.000611947
0.000611013
0.000610085
0.000609163
0.000608247
0.000607337
0.000606432
0.000605534
0.000604641
0.000603755
0.000602876
0.000602003
0.000601137
0.000600277
0.000599423
0.000598574
0.000597731
0.000596891
0.000596055
0.000595221
0.000594389
0.000593559
0.00059273
0.000591904
0.000591082
0.000590265
0.000589456
0.000588657
0.000587872
0.000587104
0.000586356
0.000585632
0.000584936
0.00058427
0.000583636
0.000583037
0.000582474
0.000581947
0.000581456
0.000580999
0.000580574
0.000580179
0.000579808
0.000579459
0.000579124
0.000578799
0.000578476
0.000578148
0.000577808
0.000577449
0.000577063
0.000576643
0.000576181
0.000575673
0.000575112
0.000574495
0.000573818
0.000573081
0.000572282
0.000571425
0.000570512
0.000569547
0.000568535
0.000567483
0.000566399
0.000565291
0.000564165
0.00056303
0.000561894
0.000560763
0.000559643
0.000558542
0.000557459
0.000556403
0.000555372
0.000554372
0.000553397
0.000552455
0.000551536
0.000550649
0.000549781
0.000548942
0.000548116
0.000547316
0.000546524
0.000545754
0.000544984
0.000544235
0.000543481
0.000542746
0.000542
0.000541273
0.000540531
0.000539808
0.000539067
0.000538345
0.000537603
0.000536882
0.000536139
0.000535418
0.000534674
0.000533954
0.00053321
0.000532491
0.000531748
0.000531032
0.000530293
0.00052958
0.000528845
0.000528136
0.000527407
0.000526703
0.00052598
0.000525282
0.000524567
0.000523875
0.000523168
0.000522482
0.000521784
0.000521105
0.000520416
0.000519743
0.000519063
0.000518398
0.000517727
0.000517069
0.000516408
0.000515757
0.000515105
0.000514462
0.000513819
0.000513184
0.00051255
0.000511923
0.000511298
0.000510679
0.000510062
0.000509451
0.000508843
0.00050824
0.000507639
0.000507043
0.00050645
0.000505862
0.000505276
0.000504694
0.000504115
0.00050354
0.000502969
0.000502401
0.000501836
0.000501274
0.000500716
0.000500161
0.000499609
0.00049906
0.000498514
0.000497971
0.00049743
0.000496892
0.000496355
0.000495821
0.000495289
0.000494759
0.000494232
0.000493708
0.000493186
0.000492669
0.000492156
0.00049165
0.00049115
0.000490658
0.000490175
0.000489703
0.000489241
0.000488795
0.000488361
0.000487944
0.000487542
0.000487159
0.000486792
0.000486445
0.000486114
0.000485803
0.000485507
0.00048523
0.000484965
0.000484717
0.000484476
0.000484249
0.000484024
0.000483809
0.000483589
0.000483372
0.000483145
0.000482915
0.000482667
0.000482409
0.000482127
0.00048183
0.000481502
0.000481154
0.000480771
0.000480364
0.000479919
0.000479448
0.000478939
0.000478404
0.000477832
0.000477238
0.00047661
0.000475964
0.000475289
0.000474603
0.000473894
0.00047318
0.000472451
0.000471723
0.000470987
0.000470259
0.000469527
0.000468809
0.000468093
0.000467394
0.000466699
0.000466025
0.000465356
0.000464709
0.000464068
0.000463449
0.000462835
0.000462242
0.000461653
0.000461084
0.000460515
0.000459967
0.000459415
0.000458883
0.000458345
0.000457825
0.000457297
0.000456787
0.000456265
0.000455761
0.000455243
0.000454744
0.000454227
0.000453732
0.000453216
0.000452722
0.000452206
0.000451714
0.000451197
0.000450708
0.00045019
0.000449702
0.000449184
0.000448699
0.000448181
0.000447698
0.000447182
0.000446702
0.000446187
0.000445711
0.000445198
0.000444726
0.000444215
0.000443748
0.00044324
0.000442778
0.000442274
0.000441817
0.000441316
0.000440865
0.000440368
0.000439923
0.00043943
0.00043899
0.000438502
0.000438069
0.000437585
0.000437158
0.000436678
0.000436258
0.000435782
0.000435368
0.000434897
0.00043449
0.000434022
0.000433622
0.000433158
0.000432765
0.000432304
0.000431919
0.00043146
0.000431082
0.000430627
0.000430256
0.000429802
0.000429439
0.000428987
0.000428631
0.000428182
0.000427832
0.000427385
0.000427041
0.000426597
0.000426259
0.000425817
0.000425484
0.000425045
0.000424716
0.000424281
0.000423954
0.000423524
0.0004232
0.000422775
0.000422453
0.000422034
0.000421713
0.000421302
0.000420984
0.000420583
0.000420268
0.000419878
0.000419568
0.000419191
0.000418888
0.000418527
0.000418233
0.000417891
0.000417608
0.000417286
0.000417017
0.000416716
0.000416464
0.000416185
0.000415951
0.000415694
0.000415478
0.000415243
0.000415044
0.000414828
0.000414646
0.000414446
0.000414277
0.000414089
0.000413931
0.000413749
0.000413596
0.000413415
0.000413262
0.000413074
0.000412916
0.000412715
0.000412544
0.000412323
0.000412133
0.000411885
0.000411672
0.000411392
0.00041115
0.000410832
0.000410559
0.000410201
0.000409895
0.000409494
0.000409155
0.000408713
0.000408344
0.000407863
0.000407466
0.00040695
0.000406532
0.000405986
0.000405552
0.000404983
0.000404541
0.000403956
0.00040351
0.000402917
0.000402474
0.000401878
0.000401444
0.000400852
0.000400429
0.000399844
0.000399436
0.000398863
0.00039847
0.00039791
0.000397533
0.000396988
0.000396626
0.000396095
0.000395748
0.00039523
0.000394896
0.00039439
0.000394066
0.000393571
0.000393256
0.000392769
0.000392462
0.000391981
0.00039168
0.000391204
0.000390908
0.000390436
0.000390142
0.000389673
0.000389382
0.000388914
0.000388624
0.000388158
0.00038787
0.000387405
0.000387118
0.000386654
0.000386367
0.000385904
0.000385619
0.000385157
0.000384873
0.000384412
0.000384129
0.000383671
0.000383389
0.000382932
0.000382653
0.000382199
0.000381922
0.00038147
0.000381195
0.000380746
0.000380474
0.000380027
0.000379759
0.000379315
0.00037905
0.00037861
0.000378348
0.000377911
0.000377652
0.000377219
0.000376963
0.000376534
0.000376282
0.000375856
0.000375608
0.000375185
0.000374941
0.000374522
0.000374281
0.000373866
0.000373628
0.000373216
0.000372983
0.000372574
0.000372344
0.000371939
0.000371712
0.00037131
0.000371087
0.000370688
0.000370467
0.000370072
0.000369854
0.000369462
0.000369247
0.000368858
0.000368646
0.00036826
0.00036805
0.000367666
0.000367459
0.000367078
0.000366874
0.000366495
0.000366294
0.000365918
0.000365719
0.000365346
0.00036515
0.000364781
0.000364588
0.000364223
0.000364034
0.000363673
0.00036349
0.000363134
0.000362956
0.000362607
0.000362436
0.000362095
0.000361932
0.000361599
0.000361446
0.000361122
0.000360979
0.000360667
0.000360534
0.000360233
0.000360113
0.000359823
0.000359715
0.000359438
0.00035934
0.000359075
0.000358989
0.000358734
0.000358658
0.000358412
0.000358345
0.000358106
0.000358044
0.000357811
0.000357752
0.00035752
0.000357462
0.00035723
0.000357171
0.000356934
0.000356869
0.000356621
0.000356546
0.000356287
0.000356199
0.000355926
0.000355821
0.00035553
0.000355406
0.000355094
0.000354949
0.000354615
0.000354448
0.00035409
0.0003539
0.000353519
0.000353305
0.000352902
0.000352667
0.000352242
0.000351987
0.000351544
0.000351272
0.000350813
0.000350528
0.000350055
0.00034976
0.000349279
0.000348977
0.00034849
0.000348186
0.000347697
0.000347393
0.000346905
0.000346604
0.00034612
0.000345824
0.000345345
0.000345057
0.000344585
0.000344305
0.000343841
0.00034357
0.000343115
0.000342851
0.000342405
0.00034215
0.000341712
0.000341464
0.000341034
0.000340793
0.000340369
0.000340135
0.000339716
0.000339488
0.000339073
0.000338849
0.000338439
0.000338218
0.000337811
0.000337593
0.000337188
0.000336972
0.00033657
0.000336355
0.000335954
0.000335741
0.000335341
0.000335128
0.000334729
0.000334518
0.00033412
0.000333909
0.000333512
0.000333302
0.000332905
0.000332696
0.0003323
0.000332093
0.000331697
0.000331491
0.000331096
0.000330893
0.000330498
0.000330297
0.000329902
0.000329704
0.00032931
0.000329115
0.000328721
0.000328529
0.000328136
0.000327947
0.000327554
0.00032737
0.000326977
0.000326797
0.000326403
0.000326229
0.000325833
0.000325666
0.000325268
0.000325107
0.000324707
0.000324553
0.000324151
0.000324004
0.0003236
0.000323459
0.000323052
0.000322919
0.000322509
0.000322384
0.000321971
0.000321852
0.000321437
0.000321325
0.000320908
0.0003208
0.000320383
0.000320279
0.000319864
0.000319761
0.000319348
0.000319246
0.000318836
0.000318735
0.000318328
0.000318227
0.000317823
0.000317723
0.000317321
0.000317222
0.000316824
0.000316726
0.000316331
0.000316233
0.000315844
0.000315743
0.000315362
0.000315257
0.000314887
0.000314778
0.000314417
0.000314305
0.000313955
0.000313841
0.000313501
0.000313386
0.000313056
0.000312942
0.000312622
0.000312509
0.0003122
0.00031209
0.00031179
0.000311683
0.000311394
0.000311292
0.000311011
0.000310915
0.000310643
0.000310553
0.000310287
0.000310205
0.000309945
0.000309869
0.000309615
0.000309543
0.000309294
0.000309227
0.000308981
0.000308918
0.000308673
0.000308611
0.000308367
0.000308305
0.00030806
0.000307998
0.000307748
0.000307685
0.00030743
0.000307365
0.000306827
0.0654386
)
;

boundaryField
{
    inlet
    {
        type            calculated;
        value           uniform 0.000236304;
    }
    outlet
    {
        type            calculated;
        value           uniform 0.000690984;
    }
    emptyWalls
    {
        type            empty;
    }
}


// ************************************************************************* //
