/*--------------------------------*- C++ -*----------------------------------*\
  =========                 |
  \\      /  F ield         | OpenFOAM: The Open Source CFD Toolbox
   \\    /   O peration     | Website:  https://openfoam.org
    \\  /    A nd           | Version:  9
     \\/     M anipulation  |
\*---------------------------------------------------------------------------*/
FoamFile
{
    format      ascii;
    class       volScalarField;
    location    "27050";
    object      krb;
}
// * * * * * * * * * * * * * * * * * * * * * * * * * * * * * * * * * * * * * //

dimensions      [0 0 0 0 0 0 0];

internalField   nonuniform List<scalar> 
1000
(
0.0978036
0.0981187
0.098503
0.098935
0.0993165
0.0997675
0.100148
0.100614
0.101008
0.101473
0.101895
0.102351
0.102803
0.10326
0.103726
0.104195
0.104662
0.105137
0.105606
0.106072
0.106537
0.106979
0.107429
0.107821
0.108245
0.108572
0.108952
0.109222
0.109531
0.10976
0.109995
0.110185
0.110368
0.11054
0.110785
0.111397
0.113617
0.123461
0.203456
0.421464
0.479018
0.495347
0.502659
0.507023
0.510103
0.512505
0.514487
0.516186
0.517673
0.518997
0.520183
0.521256
0.52223
0.523117
0.523926
0.524667
0.525344
0.525964
0.526529
0.527045
0.527514
0.527942
0.528332
0.528687
0.52901
0.529304
0.529568
0.529804
0.530012
0.530189
0.530343
0.530477
0.530591
0.530684
0.530758
0.530816
0.530858
0.530881
0.530882
0.530864
0.530821
0.530757
0.530669
0.530541
0.530383
0.530203
0.530003
0.529786
0.529553
0.529307
0.529048
0.528774
0.528481
0.528165
0.527822
0.527454
0.527071
0.526664
0.526222
0.525737
0.525194
0.524579
0.523871
0.523052
0.522106
0.521024
0.519813
0.518494
0.517102
0.51566
0.514185
0.512686
0.511173
0.509651
0.508125
0.5066
0.505076
0.503557
0.502044
0.500539
0.499041
0.497551
0.49607
0.494599
0.493137
0.491684
0.49024
0.488806
0.487381
0.485966
0.48456
0.483163
0.481775
0.480397
0.479027
0.477667
0.476316
0.474973
0.473639
0.472314
0.470997
0.469689
0.46839
0.467099
0.465816
0.464541
0.463275
0.462016
0.460766
0.459523
0.458288
0.457061
0.455842
0.45463
0.453426
0.452229
0.45104
0.449858
0.448683
0.447515
0.446354
0.445199
0.444052
0.442911
0.441778
0.440651
0.43953
0.438416
0.437309
0.436208
0.435114
0.434026
0.432944
0.431869
0.430799
0.429736
0.428678
0.427626
0.42658
0.42554
0.424505
0.423476
0.422453
0.421436
0.420424
0.419418
0.418418
0.417424
0.416435
0.415452
0.414473
0.4135
0.41253
0.411564
0.410602
0.409643
0.408688
0.407735
0.406786
0.40584
0.404897
0.403958
0.403022
0.402091
0.401163
0.400241
0.399323
0.398411
0.397504
0.396604
0.39571
0.394823
0.393943
0.39307
0.392204
0.391346
0.390495
0.389651
0.388814
0.387982
0.387156
0.386336
0.38552
0.384708
0.383899
0.383094
0.382292
0.381492
0.380695
0.3799
0.379107
0.378317
0.377528
0.376742
0.375959
0.375178
0.3744
0.373624
0.372852
0.372083
0.371317
0.370554
0.369794
0.369038
0.368285
0.367536
0.36679
0.366047
0.365308
0.364571
0.363839
0.363109
0.362383
0.361659
0.360939
0.360222
0.359508
0.358797
0.358089
0.357383
0.356681
0.355981
0.355285
0.354591
0.353899
0.353211
0.352525
0.351842
0.351161
0.350483
0.349808
0.349135
0.348465
0.347797
0.347132
0.346469
0.345809
0.345151
0.344496
0.343843
0.343193
0.342545
0.341899
0.341256
0.340615
0.339976
0.33934
0.338706
0.338074
0.337444
0.336817
0.336192
0.335569
0.334948
0.33433
0.333714
0.3331
0.332488
0.331878
0.33127
0.330665
0.330062
0.32946
0.328861
0.328264
0.327668
0.327075
0.326484
0.325895
0.325308
0.324723
0.32414
0.323559
0.32298
0.322403
0.321828
0.321254
0.320683
0.320114
0.319546
0.31898
0.318416
0.317853
0.317292
0.316732
0.316173
0.315615
0.315058
0.314503
0.313949
0.313396
0.312843
0.312292
0.311743
0.311194
0.310647
0.310101
0.309557
0.309015
0.308474
0.307936
0.3074
0.306866
0.306334
0.305805
0.305279
0.304755
0.304234
0.303716
0.303202
0.30269
0.302181
0.301674
0.301171
0.30067
0.300171
0.299674
0.29918
0.298688
0.298197
0.297708
0.29722
0.296734
0.296248
0.295764
0.295281
0.294798
0.294317
0.293836
0.293356
0.292877
0.292399
0.291922
0.291446
0.290971
0.290497
0.290024
0.289551
0.289081
0.288611
0.288143
0.287675
0.28721
0.286745
0.286282
0.285819
0.285359
0.284899
0.284441
0.283984
0.283529
0.283075
0.282622
0.28217
0.28172
0.28127
0.280823
0.280376
0.279931
0.279486
0.279043
0.278601
0.27816
0.27772
0.277282
0.276844
0.276408
0.275973
0.275539
0.275106
0.274674
0.274243
0.273814
0.273385
0.272957
0.272531
0.272105
0.271681
0.271257
0.270835
0.270413
0.269993
0.269573
0.269155
0.268737
0.268321
0.267905
0.267491
0.267077
0.266665
0.266253
0.265843
0.265433
0.265024
0.264617
0.26421
0.263804
0.263399
0.262995
0.262592
0.26219
0.261789
0.261388
0.260989
0.260591
0.260193
0.259796
0.259401
0.259006
0.258612
0.258219
0.257827
0.257435
0.257045
0.256656
0.256267
0.255879
0.255493
0.255107
0.254721
0.254337
0.253953
0.253571
0.253188
0.252807
0.252426
0.252046
0.251667
0.251288
0.25091
0.250532
0.250155
0.249778
0.249402
0.249026
0.248651
0.248276
0.247902
0.247528
0.247155
0.246782
0.24641
0.246039
0.245669
0.245299
0.24493
0.244562
0.244196
0.24383
0.243465
0.243101
0.242739
0.242378
0.242018
0.241659
0.241302
0.240946
0.240592
0.240239
0.239887
0.239537
0.239188
0.23884
0.238493
0.238148
0.237803
0.23746
0.237118
0.236776
0.236435
0.236096
0.235756
0.235418
0.235079
0.234742
0.234405
0.234068
0.233732
0.233396
0.233061
0.232726
0.232392
0.232058
0.231724
0.231391
0.231058
0.230726
0.230394
0.230063
0.229732
0.229401
0.229071
0.228742
0.228414
0.228086
0.227758
0.227431
0.227105
0.226779
0.226454
0.22613
0.225806
0.225483
0.22516
0.224838
0.224516
0.224196
0.223875
0.223556
0.223236
0.222918
0.2226
0.222283
0.221966
0.22165
0.221334
0.221019
0.220704
0.22039
0.220076
0.219764
0.219451
0.21914
0.218828
0.218517
0.218206
0.217897
0.217587
0.217279
0.21697
0.216662
0.216355
0.216048
0.215741
0.215436
0.21513
0.214825
0.21452
0.214217
0.213913
0.21361
0.213307
0.213006
0.212703
0.212403
0.212101
0.211802
0.211501
0.211203
0.210903
0.210605
0.210307
0.21001
0.209712
0.209416
0.209119
0.208824
0.208528
0.208234
0.207939
0.207646
0.207351
0.207059
0.206766
0.206474
0.206182
0.205891
0.205599
0.20531
0.205019
0.20473
0.20444
0.204152
0.203863
0.203576
0.203287
0.203001
0.202713
0.202427
0.202141
0.201855
0.201569
0.201284
0.200999
0.200715
0.20043
0.200146
0.199862
0.199579
0.199295
0.199012
0.198729
0.198447
0.198164
0.197882
0.1976
0.197319
0.197037
0.196756
0.196476
0.196196
0.195915
0.195636
0.195357
0.195079
0.1948
0.194523
0.194246
0.193969
0.193693
0.193418
0.193143
0.19287
0.192596
0.192324
0.192051
0.19178
0.191509
0.19124
0.19097
0.190702
0.190434
0.190167
0.1899
0.189635
0.189369
0.189105
0.188839
0.188577
0.188312
0.18805
0.187787
0.187526
0.187263
0.187002
0.18674
0.18648
0.186218
0.185959
0.185697
0.185439
0.185177
0.184919
0.184658
0.1844
0.18414
0.183882
0.183622
0.183365
0.183106
0.182849
0.18259
0.182334
0.182075
0.181819
0.181561
0.181306
0.181048
0.180793
0.180536
0.180282
0.180025
0.179772
0.179516
0.179263
0.179007
0.178755
0.1785
0.178248
0.177994
0.177742
0.177489
0.177238
0.176985
0.176734
0.176482
0.176232
0.17598
0.175731
0.175479
0.17523
0.174979
0.174731
0.17448
0.174233
0.173983
0.173735
0.173486
0.173239
0.17299
0.172744
0.172495
0.172249
0.172001
0.171756
0.171508
0.171263
0.171015
0.170771
0.170524
0.17028
0.170034
0.16979
0.169544
0.169301
0.169055
0.168812
0.168567
0.168325
0.16808
0.167838
0.167594
0.167352
0.167108
0.166867
0.166624
0.166383
0.16614
0.165899
0.165657
0.165417
0.165174
0.164935
0.164693
0.164454
0.164212
0.163973
0.163732
0.163494
0.163253
0.163015
0.162774
0.162536
0.162296
0.162059
0.161819
0.161582
0.161343
0.161106
0.160867
0.160631
0.160392
0.160156
0.159918
0.159682
0.159444
0.159208
0.15897
0.158735
0.158497
0.158262
0.158024
0.15779
0.157552
0.157318
0.15708
0.156846
0.156609
0.156374
0.156138
0.155903
0.155667
0.155433
0.155196
0.154962
0.154726
0.154492
0.154256
0.154023
0.153787
0.153554
0.153319
0.153086
0.152851
0.152618
0.152384
0.152152
0.151917
0.151686
0.151452
0.151221
0.150988
0.150757
0.150525
0.150295
0.150063
0.149833
0.149602
0.149373
0.149142
0.148914
0.148684
0.148456
0.148226
0.147999
0.14777
0.147543
0.147315
0.147089
0.14686
0.146635
0.146406
0.146181
0.145953
0.145728
0.145501
0.145276
0.145049
0.144824
0.144597
0.144372
0.144145
0.143921
0.143694
0.143469
0.143242
0.143018
0.142791
0.142567
0.14234
0.142115
0.141889
0.141664
0.141437
0.141213
0.140986
0.140762
0.140535
0.140311
0.140084
0.13986
0.139634
0.13941
0.139183
0.138959
0.138732
0.138508
0.138282
0.138058
0.137832
0.137608
0.137382
0.137158
0.136931
0.136708
0.136482
0.136258
0.136032
0.135808
0.135582
0.135359
0.135132
0.134909
0.134683
0.134459
0.134233
0.13401
0.133783
0.13356
0.133334
0.133111
0.132884
0.132661
0.132434
0.132212
0.131984
0.131763
0.131534
0.131314
0.131084
0.130864
0.130633
0.130414
0.130183
0.129964
0.129733
0.129513
0.129283
0.129063
0.128832
0.128612
0.128381
0.128161
0.12793
0.12771
0.127479
0.127259
0.127027
0.126807
0.126575
0.126355
0.126123
0.125903
0.125671
0.12545
0.125218
0.124998
0.124764
0.124545
0.124309
0.124093
0.123853
0.123642
0.123396
0.12319
0.122938
0.122739
0.12248
0.122287
0.12202
0.121835
0.12156
0.121383
0.1211
0.12093
0.120638
0.120476
0.120177
0.120022
0.119715
0.119567
0.119253
0.119111
0.11879
0.118653
0.118328
0.118195
0.117865
0.117735
0.117402
0.117274
0.116938
0.116813
0.116473
0.11635
0.116008
0.115885
0.115543
0.11542
0.115078
0.114953
0.114611
0.114486
0.114144
0.114018
0.113676
0.113549
0.113207
0.113079
0.112738
0.112609
0.112268
0.112138
0.111797
0.111666
0.111326
0.111195
0.110854
0.110725
0.0624759
)
;

boundaryField
{
    inlet
    {
        type            calculated;
        value           uniform 0.0976562;
    }
    outlet
    {
        type            calculated;
        value           uniform 0.0624759;
    }
    emptyWalls
    {
        type            empty;
    }
}


// ************************************************************************* //
