/*--------------------------------*- C++ -*----------------------------------*\
  =========                 |
  \\      /  F ield         | OpenFOAM: The Open Source CFD Toolbox
   \\    /   O peration     | Website:  https://openfoam.org
    \\  /    A nd           | Version:  9
     \\/     M anipulation  |
\*---------------------------------------------------------------------------*/
FoamFile
{
    format      ascii;
    class       volScalarField;
    location    "27050";
    object      p;
}
// * * * * * * * * * * * * * * * * * * * * * * * * * * * * * * * * * * * * * //

dimensions      [0 0 0 0 0 0 0];

internalField   nonuniform List<scalar> 
1000
(
164273
163847
163423
163001
162580
162161
161744
161328
160915
160503
160093
159684
159278
158873
158470
158069
157669
157272
156876
156482
156089
155699
155310
154922
154536
154151
153767
153385
153003
152623
152243
151864
151486
151108
150731
150355
149984
149631
149338
149201
149105
149017
148930
148844
148759
148675
148591
148507
148423
148339
148256
148173
148090
148007
147925
147842
147759
147677
147595
147513
147430
147348
147266
147184
147102
147021
146939
146857
146775
146693
146612
146530
146448
146367
146285
146204
146122
146040
145959
145877
145796
145714
145632
145551
145469
145388
145306
145224
145143
145061
144979
144898
144816
144734
144652
144571
144489
144407
144325
144243
144161
144078
143996
143913
143831
143748
143665
143582
143498
143414
143331
143246
143162
143078
142993
142908
142823
142737
142651
142565
142479
142393
142306
142219
142132
142045
141957
141870
141782
141693
141605
141516
141427
141338
141249
141159
141069
140979
140889
140798
140707
140616
140525
140433
140342
140250
140158
140065
139973
139880
139787
139694
139600
139506
139413
139318
139224
139129
139035
138940
138844
138749
138653
138557
138461
138365
138269
138172
138075
137978
137880
137783
137685
137587
137489
137390
137292
137193
137094
136995
136895
136795
136696
136596
136495
136395
136294
136193
136092
135991
135889
135788
135686
135583
135481
135379
135276
135173
135070
134967
134863
134759
134656
134552
134447
134343
134238
134133
134028
133923
133818
133712
133607
133501
133395
133288
133182
133075
132968
132861
132754
132646
132538
132431
132322
132214
132105
131997
131888
131779
131669
131560
131450
131340
131230
131119
131009
130898
130787
130676
130565
130453
130342
130230
130118
130006
129893
129781
129668
129555
129442
129328
129215
129101
128987
128873
128759
128644
128529
128414
128299
128184
128069
127953
127837
127721
127605
127489
127372
127256
127139
127022
126904
126787
126669
126551
126433
126315
126197
126078
125960
125841
125722
125602
125483
125363
125243
125123
125003
124883
124762
124642
124521
124400
124279
124157
124036
123914
123792
123670
123547
123425
123302
123180
123057
122933
122810
122687
122563
122439
122315
122191
122066
121942
121817
121692
121567
121442
121317
121191
121065
120939
120813
120687
120561
120434
120307
120180
120053
119926
119798
119671
119543
119415
119287
119159
119031
118902
118773
118644
118515
118386
118257
118127
117998
117868
117738
117608
117478
117347
117217
117086
116955
116824
116692
116561
116429
116297
116165
116033
115901
115768
115636
115503
115370
115236
115103
114969
114836
114702
114568
114433
114299
114164
114029
113895
113759
113624
113489
113353
113217
113081
112945
112809
112673
112536
112399
112262
112125
111988
111851
111713
111575
111437
111299
111161
111023
110884
110745
110606
110467
110328
110189
110049
109909
109770
109630
109489
109349
109209
109068
108927
108786
108645
108503
108362
108220
108079
107937
107794
107652
107510
107367
107224
107081
106938
106795
106652
106508
106364
106220
106076
105932
105788
105643
105499
105354
105209
105064
104918
104773
104627
104482
104336
104190
104043
103897
103750
103604
103457
103310
103163
103015
102868
102720
102572
102424
102276
102128
101980
101831
101682
101533
101384
101235
101086
100936
100787
100637
100487
100337
100187
100036
99885.7
99735
99584.2
99433.2
99282.1
99130.8
98979.4
98827.8
98676.1
98524.3
98372.3
98220.2
98067.9
97915.5
97763
97610.3
97457.4
97304.4
97151.3
96998
96844.6
96691.1
96537.3
96383.5
96229.5
96075.3
95921
95766.5
95611.9
95457.1
95302.2
95147.1
94991.8
94836.4
94680.8
94525.1
94369.2
94213.2
94056.9
93900.6
93744
93587.3
93430.5
93273.5
93116.3
92959
92801.5
92643.8
92486
92328.1
92170
92011.7
91853.3
91694.7
91536
91377.1
91218.1
91058.9
90899.5
90740
90580.4
90420.6
90260.6
90100.5
89940.3
89779.9
89619.3
89458.6
89297.7
89136.7
88975.6
88814.2
88652.8
88491.2
88329.4
88167.5
88005.4
87843.2
87680.8
87518.3
87355.6
87192.8
87029.8
86866.6
86703.4
86539.9
86376.3
86212.6
86048.7
85884.7
85720.5
85556.2
85391.7
85227
85062.2
84897.3
84732.2
84567
84401.6
84236
84070.4
83904.5
83738.5
83572.4
83406.1
83239.7
83073.1
82906.4
82739.5
82572.5
82405.3
82238
82070.5
81902.9
81735.1
81567.2
81399.1
81230.9
81062.6
80894.1
80725.4
80556.6
80387.7
80218.6
80049.4
79880
79710.4
79540.8
79370.9
79201
79030.9
78860.6
78690.2
78519.6
78348.9
78178.1
78007.1
77836
77664.7
77493.2
77321.7
77149.9
76978.1
76806.1
76633.9
76461.6
76289.2
76116.6
75943.9
75771
75598
75424.8
75251.5
75078.1
74904.5
74730.8
74556.9
74382.9
74208.8
74034.5
73860.1
73685.5
73510.8
73336
73161
72985.9
72810.7
72635.3
72459.8
72284.2
72108.4
71932.5
71756.4
71580.3
71403.9
71227.5
71050.9
70874.1
70697.3
70520.3
70343.1
70165.8
69988.4
69810.8
69633.1
69455.2
69277.2
69099
68920.7
68742.3
68563.7
68384.9
68206
68027
67847.8
67668.4
67488.9
67309.3
67129.4
66949.5
66769.4
66589.1
66408.7
66228.1
66047.3
65866.5
65685.4
65504.2
65322.9
65141.4
64959.7
64777.9
64596
64413.9
64231.7
64049.3
63866.7
63684
63501.2
63318.2
63135
62951.8
62768.3
62584.7
62401
62217.1
62033.1
61848.9
61664.6
61480.2
61295.5
61110.8
60925.9
60740.8
60555.6
60370.3
60184.8
59999.1
59813.3
59627.4
59441.3
59255.1
59068.7
58882.2
58695.5
58508.7
58321.7
58134.6
57947.3
57759.9
57572.4
57384.6
57196.8
57008.8
56820.6
56632.4
56443.9
56255.3
56066.6
55877.7
55688.7
55499.5
55310.2
55120.7
54931.1
54741.4
54551.5
54361.4
54171.2
53980.9
53790.4
53599.7
53408.9
53218
53026.9
52835.7
52644.4
52452.8
52261.2
52069.4
51877.4
51685.3
51493.1
51300.7
51108.2
50915.5
50722.7
50529.7
50336.6
50143.4
49950
49756.4
49562.7
49368.9
49174.9
48980.8
48786.5
48592.1
48397.6
48202.9
48008
47813
47617.9
47422.6
47227.2
47031.6
46835.9
46640
46444
46247.9
46051.6
45855.2
45658.6
45461.9
45265
45068
44870.8
44673.5
44476.1
44278.5
44080.8
43883
43685
43486.8
43288.5
43090.1
42891.6
42692.9
42494
42295
42095.9
41896.7
41697.3
41497.8
41298.1
41098.3
40898.4
40698.3
40498.1
40297.7
40097.2
39896.6
39695.8
39494.9
39293.9
39092.7
38891.4
38689.9
38488.3
38286.6
38084.7
37882.7
37680.5
37478.2
37275.8
37073.1
36870.4
36667.5
36464.5
36261.3
36057.9
35854.4
35650.8
35447
35243
35038.9
34834.7
34630.3
34425.7
34221
34016.1
33811.1
33605.9
33400.5
33195
32989.3
32783.5
32577.6
32371.4
32165.1
31958.7
31752.1
31545.3
31338.4
31131.4
30924.2
30716.8
30509.2
30301.6
30093.7
29885.7
29677.6
29469.3
29260.8
29052.2
28843.4
28634.5
28425.4
28216.2
28006.8
27797.3
27587.6
27377.8
27167.8
26957.6
26747.3
26536.9
26326.3
26115.5
25904.6
25693.5
25482.3
25270.9
25059.4
24847.7
24635.8
24423.8
24211.7
23999.4
23786.9
23574.3
23361.5
23148.6
22935.5
22722.3
22508.9
22295.3
22081.6
21867.7
21653.7
21439.5
21225.2
21010.7
20796.1
20581.3
20366.3
20151.2
19936
19720.5
19505
19289.2
19073.3
18857.3
18641.1
18424.7
18208.2
17991.5
17774.7
17557.7
17340.6
17123.3
16905.8
16688.2
16470.4
16252.5
16034.4
15816.1
15597.7
15379.2
15160.4
14941.6
14722.5
14503.3
14284
14064.5
13844.8
13625
13405
13184.9
12964.5
12744.1
12523.5
12302.7
12081.8
11860.7
11639.4
11418
11196.4
10974.7
10752.8
10530.7
10308.5
10086.1
9863.61
9640.92
9418.07
9195.06
8971.88
8748.55
8525.06
8301.4
8077.59
7853.62
7629.48
7405.19
7180.74
6956.12
6731.35
6506.42
6281.33
6056.07
5830.66
5605.09
5379.36
5153.47
4927.43
4701.22
4474.85
4248.33
4021.65
3794.8
3567.8
3340.64
3113.33
2885.85
2658.22
2430.42
2202.47
1974.35
1746.08
1517.65
1289.06
1060.31
831.394
602.32
373.087
143.512
)
;

boundaryField
{
    inlet
    {
        type            darcyGradPressure;
        gradient        uniform 116344;
        Mf              Mf;
        phi             phi;
        value           uniform 164486;
    }
    outlet
    {
        type            fixedValue;
        value           uniform 0;
    }
    emptyWalls
    {
        type            empty;
    }
}


// ************************************************************************* //
