/*--------------------------------*- C++ -*----------------------------------*\
  =========                 |
  \\      /  F ield         | OpenFOAM: The Open Source CFD Toolbox
   \\    /   O peration     | Website:  https://openfoam.org
    \\  /    A nd           | Version:  9
     \\/     M anipulation  |
\*---------------------------------------------------------------------------*/
FoamFile
{
    format      ascii;
    class       volVectorField;
    location    "4750";
    object      Ub;
}
// * * * * * * * * * * * * * * * * * * * * * * * * * * * * * * * * * * * * * //

dimensions      [0 0 0 0 0 0 0];

internalField   nonuniform List<vector> 
1000
(
(1.13632e-05 0 0)
(1.13637e-05 0 0)
(1.13642e-05 0 0)
(1.1367e-05 0 0)
(1.1375e-05 0 0)
(1.14103e-05 0 0)
(1.15752e-05 0 0)
(1.17424e-05 0 0)
(1.17821e-05 0 0)
(1.17949e-05 0 0)
(1.18013e-05 0 0)
(1.1805e-05 0 0)
(1.18072e-05 0 0)
(1.18083e-05 0 0)
(1.18085e-05 0 0)
(1.18073e-05 0 0)
(1.1803e-05 0 0)
(1.1794e-05 0 0)
(1.17802e-05 0 0)
(1.17638e-05 0 0)
(1.17458e-05 0 0)
(1.17269e-05 0 0)
(1.17072e-05 0 0)
(1.16871e-05 0 0)
(1.16665e-05 0 0)
(1.16455e-05 0 0)
(1.16242e-05 0 0)
(1.16027e-05 0 0)
(1.15809e-05 0 0)
(1.15589e-05 0 0)
(1.15367e-05 0 0)
(1.15144e-05 0 0)
(1.14919e-05 0 0)
(1.14693e-05 0 0)
(1.14466e-05 0 0)
(1.14237e-05 0 0)
(1.14007e-05 0 0)
(1.13776e-05 0 0)
(1.13544e-05 0 0)
(1.1331e-05 0 0)
(1.13075e-05 0 0)
(1.12837e-05 0 0)
(1.12598e-05 0 0)
(1.12357e-05 0 0)
(1.12114e-05 0 0)
(1.11871e-05 0 0)
(1.11628e-05 0 0)
(1.11384e-05 0 0)
(1.11138e-05 0 0)
(1.10889e-05 0 0)
(1.10638e-05 0 0)
(1.10383e-05 0 0)
(1.10123e-05 0 0)
(1.09859e-05 0 0)
(1.0959e-05 0 0)
(1.09318e-05 0 0)
(1.09042e-05 0 0)
(1.08764e-05 0 0)
(1.08483e-05 0 0)
(1.08203e-05 0 0)
(1.07922e-05 0 0)
(1.07643e-05 0 0)
(1.07366e-05 0 0)
(1.07092e-05 0 0)
(1.06823e-05 0 0)
(1.06559e-05 0 0)
(1.063e-05 0 0)
(1.06049e-05 0 0)
(1.05803e-05 0 0)
(1.05564e-05 0 0)
(1.05331e-05 0 0)
(1.05102e-05 0 0)
(1.04877e-05 0 0)
(1.04653e-05 0 0)
(1.0443e-05 0 0)
(1.04204e-05 0 0)
(1.03976e-05 0 0)
(1.03743e-05 0 0)
(1.03504e-05 0 0)
(1.03259e-05 0 0)
(1.03009e-05 0 0)
(1.02751e-05 0 0)
(1.02488e-05 0 0)
(1.02219e-05 0 0)
(1.01946e-05 0 0)
(1.01668e-05 0 0)
(1.01387e-05 0 0)
(1.01103e-05 0 0)
(1.00817e-05 0 0)
(1.0053e-05 0 0)
(1.00241e-05 0 0)
(9.99521e-06 0 0)
(9.96623e-06 0 0)
(9.93723e-06 0 0)
(9.9082e-06 0 0)
(9.87916e-06 0 0)
(9.85009e-06 0 0)
(9.82098e-06 0 0)
(9.79184e-06 0 0)
(9.76264e-06 0 0)
(9.73338e-06 0 0)
(9.70404e-06 0 0)
(9.67461e-06 0 0)
(9.64509e-06 0 0)
(9.61546e-06 0 0)
(9.58572e-06 0 0)
(9.55586e-06 0 0)
(9.52587e-06 0 0)
(9.49574e-06 0 0)
(9.46548e-06 0 0)
(9.43509e-06 0 0)
(9.40454e-06 0 0)
(9.37385e-06 0 0)
(9.34301e-06 0 0)
(9.31202e-06 0 0)
(9.28088e-06 0 0)
(9.24957e-06 0 0)
(9.21811e-06 0 0)
(9.18648e-06 0 0)
(9.15469e-06 0 0)
(9.12272e-06 0 0)
(9.09058e-06 0 0)
(9.05826e-06 0 0)
(9.02576e-06 0 0)
(8.99308e-06 0 0)
(8.9602e-06 0 0)
(8.92712e-06 0 0)
(8.89385e-06 0 0)
(8.86036e-06 0 0)
(8.82667e-06 0 0)
(8.79276e-06 0 0)
(8.75862e-06 0 0)
(8.72426e-06 0 0)
(8.68967e-06 0 0)
(8.65483e-06 0 0)
(8.61975e-06 0 0)
(8.58441e-06 0 0)
(8.54881e-06 0 0)
(8.51294e-06 0 0)
(8.4768e-06 0 0)
(8.44038e-06 0 0)
(8.40366e-06 0 0)
(8.36665e-06 0 0)
(8.32933e-06 0 0)
(8.2917e-06 0 0)
(8.25375e-06 0 0)
(8.21547e-06 0 0)
(8.17685e-06 0 0)
(8.13788e-06 0 0)
(8.09857e-06 0 0)
(8.05888e-06 0 0)
(8.01882e-06 0 0)
(7.97837e-06 0 0)
(7.93753e-06 0 0)
(7.8963e-06 0 0)
(7.85465e-06 0 0)
(7.81257e-06 0 0)
(7.77005e-06 0 0)
(7.72709e-06 0 0)
(7.68366e-06 0 0)
(7.63975e-06 0 0)
(7.59537e-06 0 0)
(7.55047e-06 0 0)
(7.50507e-06 0 0)
(7.45916e-06 0 0)
(7.41273e-06 0 0)
(7.36578e-06 0 0)
(7.31831e-06 0 0)
(7.27033e-06 0 0)
(7.22186e-06 0 0)
(7.17296e-06 0 0)
(7.1237e-06 0 0)
(7.07419e-06 0 0)
(7.02456e-06 0 0)
(6.97501e-06 0 0)
(6.92576e-06 0 0)
(6.8771e-06 0 0)
(6.82935e-06 0 0)
(6.7828e-06 0 0)
(6.73766e-06 0 0)
(6.69386e-06 0 0)
(6.65086e-06 0 0)
(6.60714e-06 0 0)
(6.55958e-06 0 0)
(6.50225e-06 0 0)
(6.42471e-06 0 0)
(6.30977e-06 0 0)
(6.13167e-06 0 0)
(5.85789e-06 0 0)
(5.46054e-06 0 0)
(4.94043e-06 0 0)
(4.34994e-06 0 0)
(3.78272e-06 0 0)
(3.32339e-06 0 0)
(3.00395e-06 0 0)
(2.80653e-06 0 0)
(2.69395e-06 0 0)
(2.63283e-06 0 0)
(2.60056e-06 0 0)
(2.58376e-06 0 0)
(2.57508e-06 0 0)
(2.57061e-06 0 0)
(2.56829e-06 0 0)
(2.56707e-06 0 0)
(2.56641e-06 0 0)
(2.56604e-06 0 0)
(2.5658e-06 0 0)
(2.56564e-06 0 0)
(2.56552e-06 0 0)
(2.56541e-06 0 0)
(2.56532e-06 0 0)
(2.56522e-06 0 0)
(2.56513e-06 0 0)
(2.56503e-06 0 0)
(2.56494e-06 0 0)
(2.56484e-06 0 0)
(2.56474e-06 0 0)
(2.56463e-06 0 0)
(2.56452e-06 0 0)
(2.56441e-06 0 0)
(2.56429e-06 0 0)
(2.56415e-06 0 0)
(2.56401e-06 0 0)
(2.56386e-06 0 0)
(2.5637e-06 0 0)
(2.56352e-06 0 0)
(2.56333e-06 0 0)
(2.56313e-06 0 0)
(2.5629e-06 0 0)
(2.56267e-06 0 0)
(2.56242e-06 0 0)
(2.56215e-06 0 0)
(2.56187e-06 0 0)
(2.56157e-06 0 0)
(2.56126e-06 0 0)
(2.56094e-06 0 0)
(2.56061e-06 0 0)
(2.56028e-06 0 0)
(2.55994e-06 0 0)
(2.5596e-06 0 0)
(2.55927e-06 0 0)
(2.55894e-06 0 0)
(2.55863e-06 0 0)
(2.55833e-06 0 0)
(2.55806e-06 0 0)
(2.55781e-06 0 0)
(2.5576e-06 0 0)
(2.55742e-06 0 0)
(2.55729e-06 0 0)
(2.55721e-06 0 0)
(2.55717e-06 0 0)
(2.55716e-06 0 0)
(2.55716e-06 0 0)
(2.5572e-06 0 0)
(2.55734e-06 0 0)
(2.55756e-06 0 0)
(2.55782e-06 0 0)
(2.55813e-06 0 0)
(2.55849e-06 0 0)
(2.55887e-06 0 0)
(2.55929e-06 0 0)
(2.55973e-06 0 0)
(2.56019e-06 0 0)
(2.56065e-06 0 0)
(2.56112e-06 0 0)
(2.56158e-06 0 0)
(2.56203e-06 0 0)
(2.56245e-06 0 0)
(2.56286e-06 0 0)
(2.56323e-06 0 0)
(2.56357e-06 0 0)
(2.56387e-06 0 0)
(2.56414e-06 0 0)
(2.56438e-06 0 0)
(2.56457e-06 0 0)
(2.56473e-06 0 0)
(2.56486e-06 0 0)
(2.56495e-06 0 0)
(2.56502e-06 0 0)
(2.56506e-06 0 0)
(2.56508e-06 0 0)
(2.56508e-06 0 0)
(2.56507e-06 0 0)
(2.56506e-06 0 0)
(2.56503e-06 0 0)
(2.56497e-06 0 0)
(2.56492e-06 0 0)
(2.56486e-06 0 0)
(2.5648e-06 0 0)
(2.56475e-06 0 0)
(2.5647e-06 0 0)
(2.56465e-06 0 0)
(2.5646e-06 0 0)
(2.56456e-06 0 0)
(2.56453e-06 0 0)
(2.5645e-06 0 0)
(2.56448e-06 0 0)
(2.56447e-06 0 0)
(2.56446e-06 0 0)
(2.56445e-06 0 0)
(2.56444e-06 0 0)
(2.56445e-06 0 0)
(2.56446e-06 0 0)
(2.56448e-06 0 0)
(2.5645e-06 0 0)
(2.56452e-06 0 0)
(2.56455e-06 0 0)
(2.56458e-06 0 0)
(2.56461e-06 0 0)
(2.56464e-06 0 0)
(2.56467e-06 0 0)
(2.56471e-06 0 0)
(2.56474e-06 0 0)
(2.56478e-06 0 0)
(2.56482e-06 0 0)
(2.56485e-06 0 0)
(2.56489e-06 0 0)
(2.56493e-06 0 0)
(2.56497e-06 0 0)
(2.56501e-06 0 0)
(2.56504e-06 0 0)
(2.56508e-06 0 0)
(2.56512e-06 0 0)
(2.56516e-06 0 0)
(2.5652e-06 0 0)
(2.56523e-06 0 0)
(2.56527e-06 0 0)
(2.56531e-06 0 0)
(2.56535e-06 0 0)
(2.56539e-06 0 0)
(2.56542e-06 0 0)
(2.56546e-06 0 0)
(2.5655e-06 0 0)
(2.56554e-06 0 0)
(2.56558e-06 0 0)
(2.56562e-06 0 0)
(2.56566e-06 0 0)
(2.56569e-06 0 0)
(2.56573e-06 0 0)
(2.56577e-06 0 0)
(2.56581e-06 0 0)
(2.56585e-06 0 0)
(2.56589e-06 0 0)
(2.56593e-06 0 0)
(2.56597e-06 0 0)
(2.56601e-06 0 0)
(2.56605e-06 0 0)
(2.56609e-06 0 0)
(2.56613e-06 0 0)
(2.56617e-06 0 0)
(2.56621e-06 0 0)
(2.56624e-06 0 0)
(2.56628e-06 0 0)
(2.56632e-06 0 0)
(2.56635e-06 0 0)
(2.56638e-06 0 0)
(2.56641e-06 0 0)
(2.56644e-06 0 0)
(2.56647e-06 0 0)
(2.5665e-06 0 0)
(2.56653e-06 0 0)
(2.56655e-06 0 0)
(2.56658e-06 0 0)
(2.5666e-06 0 0)
(2.56662e-06 0 0)
(2.56663e-06 0 0)
(2.56665e-06 0 0)
(2.56666e-06 0 0)
(2.56667e-06 0 0)
(2.56668e-06 0 0)
(2.56669e-06 0 0)
(2.56669e-06 0 0)
(2.5667e-06 0 0)
(2.5667e-06 0 0)
(2.5667e-06 0 0)
(2.5667e-06 0 0)
(2.5667e-06 0 0)
(2.56669e-06 0 0)
(2.56668e-06 0 0)
(2.56667e-06 0 0)
(2.56666e-06 0 0)
(2.56665e-06 0 0)
(2.56664e-06 0 0)
(2.56663e-06 0 0)
(2.56661e-06 0 0)
(2.5666e-06 0 0)
(2.56658e-06 0 0)
(2.56657e-06 0 0)
(2.56655e-06 0 0)
(2.56653e-06 0 0)
(2.56652e-06 0 0)
(2.5665e-06 0 0)
(2.56649e-06 0 0)
(2.56647e-06 0 0)
(2.56646e-06 0 0)
(2.56644e-06 0 0)
(2.56643e-06 0 0)
(2.56641e-06 0 0)
(2.5664e-06 0 0)
(2.56638e-06 0 0)
(2.56637e-06 0 0)
(2.56635e-06 0 0)
(2.56634e-06 0 0)
(2.56632e-06 0 0)
(2.56631e-06 0 0)
(2.56629e-06 0 0)
(2.56627e-06 0 0)
(2.56625e-06 0 0)
(2.56622e-06 0 0)
(2.5662e-06 0 0)
(2.56617e-06 0 0)
(2.56613e-06 0 0)
(2.5661e-06 0 0)
(2.56606e-06 0 0)
(2.56601e-06 0 0)
(2.56597e-06 0 0)
(2.56592e-06 0 0)
(2.56586e-06 0 0)
(2.5658e-06 0 0)
(2.56574e-06 0 0)
(2.56567e-06 0 0)
(2.56559e-06 0 0)
(2.56551e-06 0 0)
(2.56543e-06 0 0)
(2.56534e-06 0 0)
(2.56524e-06 0 0)
(2.56514e-06 0 0)
(2.56503e-06 0 0)
(2.56492e-06 0 0)
(2.5648e-06 0 0)
(2.56467e-06 0 0)
(2.56453e-06 0 0)
(2.56438e-06 0 0)
(2.56423e-06 0 0)
(2.56407e-06 0 0)
(2.5639e-06 0 0)
(2.56372e-06 0 0)
(2.56353e-06 0 0)
(2.56333e-06 0 0)
(2.56312e-06 0 0)
(2.5629e-06 0 0)
(2.56268e-06 0 0)
(2.56244e-06 0 0)
(2.56219e-06 0 0)
(2.56194e-06 0 0)
(2.56168e-06 0 0)
(2.56141e-06 0 0)
(2.56114e-06 0 0)
(2.56086e-06 0 0)
(2.56059e-06 0 0)
(2.56032e-06 0 0)
(2.56005e-06 0 0)
(2.55979e-06 0 0)
(2.55953e-06 0 0)
(2.55928e-06 0 0)
(2.55905e-06 0 0)
(2.55883e-06 0 0)
(2.55863e-06 0 0)
(2.55846e-06 0 0)
(2.5583e-06 0 0)
(2.55818e-06 0 0)
(2.55808e-06 0 0)
(2.55802e-06 0 0)
(2.55799e-06 0 0)
(2.55799e-06 0 0)
(2.55799e-06 0 0)
(2.55802e-06 0 0)
(2.5581e-06 0 0)
(2.55826e-06 0 0)
(2.55844e-06 0 0)
(2.55867e-06 0 0)
(2.55893e-06 0 0)
(2.55922e-06 0 0)
(2.55953e-06 0 0)
(2.55987e-06 0 0)
(2.56022e-06 0 0)
(2.56059e-06 0 0)
(2.56096e-06 0 0)
(2.56134e-06 0 0)
(2.56171e-06 0 0)
(2.56207e-06 0 0)
(2.56243e-06 0 0)
(2.56277e-06 0 0)
(2.56309e-06 0 0)
(2.56339e-06 0 0)
(2.56366e-06 0 0)
(2.56391e-06 0 0)
(2.56414e-06 0 0)
(2.56434e-06 0 0)
(2.56451e-06 0 0)
(2.56466e-06 0 0)
(2.56479e-06 0 0)
(2.56489e-06 0 0)
(2.56497e-06 0 0)
(2.56504e-06 0 0)
(2.56508e-06 0 0)
(2.56511e-06 0 0)
(2.56513e-06 0 0)
(2.56514e-06 0 0)
(2.56514e-06 0 0)
(2.56513e-06 0 0)
(2.56512e-06 0 0)
(2.56509e-06 0 0)
(2.56506e-06 0 0)
(2.56503e-06 0 0)
(2.565e-06 0 0)
(2.56497e-06 0 0)
(2.56494e-06 0 0)
(2.56492e-06 0 0)
(2.56489e-06 0 0)
(2.56487e-06 0 0)
(2.56485e-06 0 0)
(2.56484e-06 0 0)
(2.56483e-06 0 0)
(2.56482e-06 0 0)
(2.56482e-06 0 0)
(2.56482e-06 0 0)
(2.56482e-06 0 0)
(2.56482e-06 0 0)
(2.56482e-06 0 0)
(2.56483e-06 0 0)
(2.56485e-06 0 0)
(2.56486e-06 0 0)
(2.56488e-06 0 0)
(2.56489e-06 0 0)
(2.56491e-06 0 0)
(2.56493e-06 0 0)
(2.56494e-06 0 0)
(2.56496e-06 0 0)
(2.56498e-06 0 0)
(2.565e-06 0 0)
(2.56501e-06 0 0)
(2.56503e-06 0 0)
(2.56505e-06 0 0)
(2.56507e-06 0 0)
(2.56508e-06 0 0)
(2.5651e-06 0 0)
(2.56511e-06 0 0)
(2.56512e-06 0 0)
(2.56513e-06 0 0)
(2.56514e-06 0 0)
(2.56516e-06 0 0)
(2.56517e-06 0 0)
(2.56518e-06 0 0)
(2.56519e-06 0 0)
(2.5652e-06 0 0)
(2.56521e-06 0 0)
(2.56522e-06 0 0)
(2.56523e-06 0 0)
(2.56524e-06 0 0)
(2.56525e-06 0 0)
(2.56526e-06 0 0)
(2.56527e-06 0 0)
(2.56528e-06 0 0)
(2.5653e-06 0 0)
(2.56531e-06 0 0)
(2.56532e-06 0 0)
(2.56534e-06 0 0)
(2.56536e-06 0 0)
(2.56537e-06 0 0)
(2.56539e-06 0 0)
(2.56541e-06 0 0)
(2.56543e-06 0 0)
(2.56545e-06 0 0)
(2.56547e-06 0 0)
(2.5655e-06 0 0)
(2.56553e-06 0 0)
(2.56555e-06 0 0)
(2.56558e-06 0 0)
(2.56561e-06 0 0)
(2.56564e-06 0 0)
(2.56567e-06 0 0)
(2.56571e-06 0 0)
(2.56574e-06 0 0)
(2.56578e-06 0 0)
(2.56581e-06 0 0)
(2.56585e-06 0 0)
(2.56588e-06 0 0)
(2.56592e-06 0 0)
(2.56595e-06 0 0)
(2.56599e-06 0 0)
(2.56603e-06 0 0)
(2.56606e-06 0 0)
(2.5661e-06 0 0)
(2.56613e-06 0 0)
(2.56616e-06 0 0)
(2.5662e-06 0 0)
(2.56623e-06 0 0)
(2.56626e-06 0 0)
(2.56628e-06 0 0)
(2.56631e-06 0 0)
(2.56633e-06 0 0)
(2.56635e-06 0 0)
(2.56637e-06 0 0)
(2.56639e-06 0 0)
(2.5664e-06 0 0)
(2.56641e-06 0 0)
(2.56642e-06 0 0)
(2.56643e-06 0 0)
(2.56643e-06 0 0)
(2.56644e-06 0 0)
(2.56644e-06 0 0)
(2.56643e-06 0 0)
(2.56643e-06 0 0)
(2.56642e-06 0 0)
(2.56641e-06 0 0)
(2.56639e-06 0 0)
(2.56638e-06 0 0)
(2.56636e-06 0 0)
(2.56633e-06 0 0)
(2.56631e-06 0 0)
(2.56628e-06 0 0)
(2.56625e-06 0 0)
(2.56622e-06 0 0)
(2.56619e-06 0 0)
(2.56616e-06 0 0)
(2.56613e-06 0 0)
(2.56609e-06 0 0)
(2.56605e-06 0 0)
(2.56602e-06 0 0)
(2.56598e-06 0 0)
(2.56594e-06 0 0)
(2.5659e-06 0 0)
(2.56586e-06 0 0)
(2.56582e-06 0 0)
(2.56578e-06 0 0)
(2.56574e-06 0 0)
(2.56569e-06 0 0)
(2.56565e-06 0 0)
(2.56561e-06 0 0)
(2.56556e-06 0 0)
(2.56552e-06 0 0)
(2.56547e-06 0 0)
(2.56542e-06 0 0)
(2.56537e-06 0 0)
(2.56531e-06 0 0)
(2.56526e-06 0 0)
(2.5652e-06 0 0)
(2.56513e-06 0 0)
(2.56506e-06 0 0)
(2.56499e-06 0 0)
(2.56491e-06 0 0)
(2.56482e-06 0 0)
(2.56473e-06 0 0)
(2.56463e-06 0 0)
(2.56452e-06 0 0)
(2.5644e-06 0 0)
(2.56427e-06 0 0)
(2.56414e-06 0 0)
(2.56399e-06 0 0)
(2.56384e-06 0 0)
(2.56367e-06 0 0)
(2.56349e-06 0 0)
(2.56331e-06 0 0)
(2.56311e-06 0 0)
(2.5629e-06 0 0)
(2.56268e-06 0 0)
(2.56245e-06 0 0)
(2.56222e-06 0 0)
(2.56198e-06 0 0)
(2.56173e-06 0 0)
(2.56147e-06 0 0)
(2.56121e-06 0 0)
(2.56095e-06 0 0)
(2.56068e-06 0 0)
(2.56042e-06 0 0)
(2.56016e-06 0 0)
(2.5599e-06 0 0)
(2.55965e-06 0 0)
(2.55941e-06 0 0)
(2.55918e-06 0 0)
(2.55896e-06 0 0)
(2.55876e-06 0 0)
(2.55858e-06 0 0)
(2.55842e-06 0 0)
(2.55829e-06 0 0)
(2.55818e-06 0 0)
(2.55809e-06 0 0)
(2.55804e-06 0 0)
(2.55801e-06 0 0)
(2.558e-06 0 0)
(2.55801e-06 0 0)
(2.55803e-06 0 0)
(2.55811e-06 0 0)
(2.55826e-06 0 0)
(2.55843e-06 0 0)
(2.55863e-06 0 0)
(2.55887e-06 0 0)
(2.55913e-06 0 0)
(2.55941e-06 0 0)
(2.55971e-06 0 0)
(2.56004e-06 0 0)
(2.56037e-06 0 0)
(2.56072e-06 0 0)
(2.56107e-06 0 0)
(2.56142e-06 0 0)
(2.56177e-06 0 0)
(2.56212e-06 0 0)
(2.56245e-06 0 0)
(2.56277e-06 0 0)
(2.56308e-06 0 0)
(2.56337e-06 0 0)
(2.56364e-06 0 0)
(2.56389e-06 0 0)
(2.56412e-06 0 0)
(2.56433e-06 0 0)
(2.56452e-06 0 0)
(2.56468e-06 0 0)
(2.56483e-06 0 0)
(2.56495e-06 0 0)
(2.56506e-06 0 0)
(2.56515e-06 0 0)
(2.56522e-06 0 0)
(2.56528e-06 0 0)
(2.56532e-06 0 0)
(2.56535e-06 0 0)
(2.56537e-06 0 0)
(2.56539e-06 0 0)
(2.56539e-06 0 0)
(2.56539e-06 0 0)
(2.56539e-06 0 0)
(2.56538e-06 0 0)
(2.56537e-06 0 0)
(2.56535e-06 0 0)
(2.56533e-06 0 0)
(2.56531e-06 0 0)
(2.56529e-06 0 0)
(2.56528e-06 0 0)
(2.56526e-06 0 0)
(2.56525e-06 0 0)
(2.56524e-06 0 0)
(2.56524e-06 0 0)
(2.56523e-06 0 0)
(2.56523e-06 0 0)
(2.56523e-06 0 0)
(2.56523e-06 0 0)
(2.56524e-06 0 0)
(2.56525e-06 0 0)
(2.56526e-06 0 0)
(2.56528e-06 0 0)
(2.5653e-06 0 0)
(2.56532e-06 0 0)
(2.56535e-06 0 0)
(2.56537e-06 0 0)
(2.5654e-06 0 0)
(2.56543e-06 0 0)
(2.56546e-06 0 0)
(2.5655e-06 0 0)
(2.56553e-06 0 0)
(2.56556e-06 0 0)
(2.5656e-06 0 0)
(2.56563e-06 0 0)
(2.56567e-06 0 0)
(2.5657e-06 0 0)
(2.56574e-06 0 0)
(2.56577e-06 0 0)
(2.56581e-06 0 0)
(2.56584e-06 0 0)
(2.56587e-06 0 0)
(2.56591e-06 0 0)
(2.56594e-06 0 0)
(2.56597e-06 0 0)
(2.566e-06 0 0)
(2.56603e-06 0 0)
(2.56605e-06 0 0)
(2.56608e-06 0 0)
(2.5661e-06 0 0)
(2.56612e-06 0 0)
(2.56614e-06 0 0)
(2.56616e-06 0 0)
(2.56618e-06 0 0)
(2.56619e-06 0 0)
(2.56621e-06 0 0)
(2.56622e-06 0 0)
(2.56623e-06 0 0)
(2.56623e-06 0 0)
(2.56625e-06 0 0)
(2.56635e-06 0 0)
(2.5674e-06 0 0)
(2.5721e-06 0 0)
(2.59555e-06 0 0)
(2.76619e-06 0 0)
(2.94183e-06 0 0)
(2.96691e-06 0 0)
(2.96725e-06 0 0)
(2.96727e-06 0 0)
(2.96727e-06 0 0)
(2.96727e-06 0 0)
(2.96727e-06 0 0)
(2.96727e-06 0 0)
(2.96727e-06 0 0)
(2.96727e-06 0 0)
(2.96727e-06 0 0)
(2.96727e-06 0 0)
(2.96727e-06 0 0)
(2.96727e-06 0 0)
(2.96727e-06 0 0)
(2.96727e-06 0 0)
(2.96727e-06 0 0)
(2.96727e-06 0 0)
(2.96727e-06 0 0)
(2.96727e-06 0 0)
(2.96727e-06 0 0)
(2.96727e-06 0 0)
(2.96727e-06 0 0)
(2.96727e-06 0 0)
(2.96727e-06 0 0)
(2.96727e-06 0 0)
(2.96727e-06 0 0)
(2.96727e-06 0 0)
(2.96727e-06 0 0)
(2.96727e-06 0 0)
(2.96727e-06 0 0)
(2.96727e-06 0 0)
(2.96727e-06 0 0)
(2.96727e-06 0 0)
(2.96727e-06 0 0)
(2.96727e-06 0 0)
(2.96727e-06 0 0)
(2.96727e-06 0 0)
(2.96727e-06 0 0)
(2.96727e-06 0 0)
(2.96727e-06 0 0)
(2.96727e-06 0 0)
(2.96727e-06 0 0)
(2.96727e-06 0 0)
(2.96727e-06 0 0)
(2.96727e-06 0 0)
(2.96727e-06 0 0)
(2.96727e-06 0 0)
(2.96727e-06 0 0)
(2.96727e-06 0 0)
(2.96727e-06 0 0)
(2.96727e-06 0 0)
(2.96727e-06 0 0)
(2.96727e-06 0 0)
(2.96727e-06 0 0)
(2.96727e-06 0 0)
(2.96727e-06 0 0)
(2.96727e-06 0 0)
(2.96727e-06 0 0)
(2.96727e-06 0 0)
(2.96727e-06 0 0)
(2.96727e-06 0 0)
(2.96727e-06 0 0)
(2.96727e-06 0 0)
(2.96727e-06 0 0)
(2.96727e-06 0 0)
(2.96727e-06 0 0)
(2.96727e-06 0 0)
(2.96727e-06 0 0)
(2.96727e-06 0 0)
(2.96727e-06 0 0)
(2.96727e-06 0 0)
(2.96727e-06 0 0)
(2.96727e-06 0 0)
(2.96727e-06 0 0)
(2.96727e-06 0 0)
(2.96727e-06 0 0)
(2.96727e-06 0 0)
(2.96727e-06 0 0)
(2.96727e-06 0 0)
(2.96727e-06 0 0)
(2.96727e-06 0 0)
(2.96727e-06 0 0)
(2.96727e-06 0 0)
(2.96727e-06 0 0)
(2.96727e-06 0 0)
(2.96727e-06 0 0)
(2.96727e-06 0 0)
(2.96727e-06 0 0)
(2.96727e-06 0 0)
(2.96727e-06 0 0)
(2.96727e-06 0 0)
(2.96727e-06 0 0)
(2.96727e-06 0 0)
(2.96727e-06 0 0)
(2.96727e-06 0 0)
(2.96727e-06 0 0)
(2.96727e-06 0 0)
(2.96727e-06 0 0)
(2.96727e-06 0 0)
(2.96727e-06 0 0)
(2.96727e-06 0 0)
(2.96727e-06 0 0)
(2.96727e-06 0 0)
(2.96727e-06 0 0)
(2.96727e-06 0 0)
(2.96727e-06 0 0)
(2.96727e-06 0 0)
(2.96727e-06 0 0)
(2.96727e-06 0 0)
(2.96727e-06 0 0)
(2.96727e-06 0 0)
(2.96727e-06 0 0)
(2.96727e-06 0 0)
(2.96727e-06 0 0)
(2.96727e-06 0 0)
(2.96727e-06 0 0)
(2.96727e-06 0 0)
(2.96727e-06 0 0)
(2.96727e-06 0 0)
(2.96727e-06 0 0)
(2.96727e-06 0 0)
(2.96727e-06 0 0)
(2.96727e-06 0 0)
(2.96727e-06 0 0)
(2.96727e-06 0 0)
(2.96727e-06 0 0)
(2.96727e-06 0 0)
(2.96727e-06 0 0)
(2.96727e-06 0 0)
(2.96727e-06 0 0)
(2.96727e-06 0 0)
(2.96727e-06 0 0)
(2.96727e-06 0 0)
(2.96727e-06 0 0)
(2.96727e-06 0 0)
(2.96727e-06 0 0)
(2.96727e-06 0 0)
(2.96727e-06 0 0)
(2.96727e-06 0 0)
(2.96727e-06 0 0)
(2.96727e-06 0 0)
(2.96727e-06 0 0)
(2.96727e-06 0 0)
(2.96727e-06 0 0)
(2.96727e-06 0 0)
(2.96727e-06 0 0)
(2.96727e-06 0 0)
(2.96727e-06 0 0)
(2.96727e-06 0 0)
(2.96727e-06 0 0)
(2.96727e-06 0 0)
(2.96727e-06 0 0)
(2.96727e-06 0 0)
(2.96727e-06 0 0)
(2.96727e-06 0 0)
(2.96727e-06 0 0)
(2.96727e-06 0 0)
(2.96727e-06 0 0)
(2.96727e-06 0 0)
(2.96727e-06 0 0)
(2.96727e-06 0 0)
(2.96727e-06 0 0)
(2.96727e-06 0 0)
(2.96727e-06 0 0)
(2.96727e-06 0 0)
(2.96727e-06 0 0)
(2.96727e-06 0 0)
(2.96727e-06 0 0)
(2.96727e-06 0 0)
(2.96727e-06 0 0)
(2.96727e-06 0 0)
(2.96727e-06 0 0)
(2.96727e-06 0 0)
(2.96727e-06 0 0)
(2.96727e-06 0 0)
(2.96727e-06 0 0)
(2.96727e-06 0 0)
(2.96727e-06 0 0)
(2.96727e-06 0 0)
(2.96727e-06 0 0)
(2.96727e-06 0 0)
(2.96727e-06 0 0)
(2.96727e-06 0 0)
(2.96727e-06 0 0)
(2.96727e-06 0 0)
(2.96727e-06 0 0)
(2.96727e-06 0 0)
(2.96727e-06 0 0)
(2.96727e-06 0 0)
(2.96727e-06 0 0)
(2.96727e-06 0 0)
(2.96727e-06 0 0)
(2.96727e-06 0 0)
(2.96727e-06 0 0)
(2.96727e-06 0 0)
(2.96727e-06 0 0)
(2.96727e-06 0 0)
(2.96727e-06 0 0)
(2.96727e-06 0 0)
(2.96727e-06 0 0)
(2.96727e-06 0 0)
(2.96727e-06 0 0)
(2.96727e-06 0 0)
(2.96727e-06 0 0)
(2.96727e-06 0 0)
(2.96727e-06 0 0)
(2.96727e-06 0 0)
(2.96727e-06 0 0)
(2.96727e-06 0 0)
(2.96727e-06 0 0)
(2.96727e-06 0 0)
(2.96727e-06 0 0)
(2.96727e-06 0 0)
(2.96727e-06 0 0)
(2.96727e-06 0 0)
(2.96727e-06 0 0)
(2.96727e-06 0 0)
)
;

boundaryField
{
    inlet
    {
        type            fixedValue;
        value           uniform (1.13622e-05 0 0);
    }
    outlet
    {
        type            zeroGradient;
    }
    emptyWalls
    {
        type            empty;
    }
}


// ************************************************************************* //
