/*--------------------------------*- C++ -*----------------------------------*\
  =========                 |
  \\      /  F ield         | OpenFOAM: The Open Source CFD Toolbox
   \\    /   O peration     | Website:  https://openfoam.org
    \\  /    A nd           | Version:  9
     \\/     M anipulation  |
\*---------------------------------------------------------------------------*/
FoamFile
{
    format      ascii;
    class       volScalarField;
    location    "17300";
    object      Sa;
}
// * * * * * * * * * * * * * * * * * * * * * * * * * * * * * * * * * * * * * //

dimensions      [0 0 0 0 0 0 0];

internalField   nonuniform List<scalar> 
1000
(
0.549374
0.548055
0.546337
0.544635
0.542934
0.541251
0.539512
0.537836
0.536045
0.534411
0.532607
0.531052
0.529343
0.527898
0.526417
0.525151
0.523965
0.522952
0.522043
0.521233
0.520288
0.518306
0.511634
0.483769
0.315582
0.116159
0.0756293
0.062765
0.0562704
0.0520461
0.0489009
0.0463673
0.0442405
0.0423994
0.0407847
0.0393456
0.0380603
0.0368983
0.0358498
0.034895
0.0340249
0.0332249
0.032491
0.0318093
0.0311804
0.0305918
0.0300476
0.0295349
0.0290592
0.0286077
0.0281882
0.027782
0.0273957
0.0270314
0.02669
0.0263714
0.0260758
0.025803
0.0255528
0.0253246
0.0251177
0.0249317
0.0247711
0.0246239
0.024496
0.0243923
0.0243136
0.0242631
0.0242303
0.0241967
0.0241585
0.0241149
0.0240653
0.0240095
0.0239476
0.0238804
0.0238092
0.0237353
0.0236604
0.0235858
0.0235128
0.0234423
0.0233751
0.0233116
0.0232518
0.0231957
0.023143
0.0230933
0.0230461
0.0230009
0.0229572
0.0229146
0.0228725
0.0228308
0.0227891
0.0227474
0.0227055
0.0226634
0.0226212
0.0225787
0.0225362
0.0224937
0.0224512
0.0224087
0.0223665
0.0223244
0.0222826
0.022241
0.0221998
0.0221588
0.0221182
0.022078
0.022038
0.0219984
0.0219592
0.0219203
0.0218818
0.0218436
0.0218057
0.0217681
0.0217309
0.021694
0.0216575
0.0216212
0.0215853
0.0215497
0.0215144
0.0214794
0.0214448
0.0214104
0.0213763
0.0213425
0.0213091
0.0212759
0.021243
0.0212103
0.021178
0.0211459
0.0211141
0.0210825
0.0210513
0.0210202
0.0209895
0.020959
0.0209288
0.0208989
0.0208692
0.0208399
0.0208107
0.0207819
0.0207532
0.0207249
0.0206967
0.0206687
0.0206408
0.0206132
0.0205857
0.0205584
0.0205313
0.0205043
0.0204776
0.0204511
0.0204248
0.0203987
0.0203728
0.0203471
0.0203216
0.0202963
0.020271
0.0202458
0.0202207
0.0201957
0.0201708
0.0201462
0.020122
0.0200983
0.0200752
0.0200529
0.0200315
0.0200111
0.0199917
0.0199734
0.0199561
0.01994
0.0199248
0.0199105
0.0198969
0.0198839
0.0198713
0.019859
0.0198466
0.0198339
0.0198207
0.0198066
0.0197915
0.0197751
0.0197572
0.0197376
0.0197162
0.0196929
0.0196679
0.019641
0.0196126
0.0195827
0.0195517
0.0195198
0.0194874
0.0194548
0.0194222
0.0193899
0.0193582
0.0193273
0.0192973
0.0192683
0.0192404
0.0192136
0.0191879
0.0191632
0.0191395
0.0191166
0.0190945
0.019073
0.019052
0.0190314
0.0190112
0.0189913
0.0189715
0.0189518
0.0189321
0.0189125
0.0188929
0.0188732
0.0188534
0.0188337
0.0188138
0.0187939
0.0187739
0.0187539
0.0187339
0.0187138
0.0186938
0.0186738
0.0186537
0.0186338
0.0186138
0.018594
0.0185741
0.0185544
0.0185347
0.0185152
0.0184956
0.0184763
0.0184569
0.0184377
0.0184186
0.0183996
0.0183806
0.0183618
0.0183431
0.0183245
0.018306
0.0182876
0.0182693
0.0182511
0.018233
0.018215
0.0181971
0.0181793
0.0181616
0.0181441
0.0181266
0.0181092
0.018092
0.0180748
0.0180577
0.0180408
0.0180239
0.0180072
0.0179905
0.017974
0.0179576
0.0179412
0.017925
0.0179089
0.0178929
0.0178769
0.0178611
0.0178454
0.0178298
0.0178143
0.0177988
0.0177835
0.0177682
0.017753
0.0177379
0.0177229
0.0177079
0.017693
0.0176782
0.0176635
0.0176488
0.0176342
0.0176197
0.0176053
0.0175909
0.0175766
0.0175623
0.0175481
0.017534
0.0175199
0.0175059
0.017492
0.0174781
0.0174644
0.0174507
0.0174373
0.017424
0.0174109
0.0173981
0.0173856
0.0173733
0.0173615
0.01735
0.017339
0.0173284
0.0173182
0.0173085
0.0172992
0.0172904
0.0172819
0.0172739
0.0172661
0.0172587
0.0172514
0.0172443
0.0172372
0.0172302
0.0172229
0.0172155
0.0172078
0.0171996
0.0171909
0.0171817
0.0171718
0.0171611
0.0171497
0.0171374
0.0171242
0.0171102
0.0170954
0.0170797
0.0170633
0.0170462
0.0170285
0.0170103
0.0169916
0.0169727
0.0169535
0.0169343
0.0169151
0.016896
0.0168771
0.0168585
0.0168402
0.0168223
0.0168048
0.0167877
0.0167711
0.016755
0.0167392
0.0167239
0.016709
0.0166945
0.0166803
0.0166664
0.0166528
0.0166394
0.0166261
0.0166131
0.0166002
0.0165873
0.0165746
0.0165619
0.0165492
0.0165366
0.016524
0.0165113
0.0164987
0.016486
0.0164733
0.0164606
0.0164478
0.0164351
0.0164223
0.0164095
0.0163967
0.0163838
0.016371
0.0163582
0.0163454
0.0163326
0.0163198
0.016307
0.0162942
0.0162815
0.0162688
0.0162562
0.0162435
0.016231
0.0162184
0.0162059
0.0161934
0.016181
0.0161687
0.0161564
0.0161441
0.0161319
0.0161197
0.0161076
0.0160956
0.0160836
0.0160716
0.0160597
0.0160479
0.0160361
0.0160244
0.0160127
0.0160011
0.0159896
0.0159781
0.0159666
0.0159553
0.0159439
0.0159327
0.0159214
0.0159103
0.0158992
0.0158881
0.0158771
0.0158662
0.0158553
0.0158445
0.0158337
0.015823
0.0158123
0.0158017
0.0157911
0.0157806
0.0157701
0.0157597
0.0157493
0.015739
0.0157286
0.0157184
0.0157082
0.015698
0.0156878
0.0156777
0.0156677
0.0156576
0.0156476
0.0156377
0.0156277
0.0156178
0.0156079
0.0155981
0.0155883
0.0155786
0.0155688
0.0155592
0.0155495
0.0155399
0.0155304
0.015521
0.0155116
0.0155023
0.0154931
0.015484
0.0154751
0.0154662
0.0154576
0.015449
0.0154407
0.0154325
0.0154246
0.0154169
0.0154093
0.015402
0.0153949
0.0153881
0.0153814
0.015375
0.0153687
0.0153626
0.0153567
0.015351
0.0153453
0.0153398
0.0153343
0.0153288
0.0153233
0.0153177
0.0153121
0.0153063
0.0153003
0.0152941
0.0152877
0.0152809
0.0152738
0.0152664
0.0152585
0.0152503
0.0152416
0.0152324
0.0152228
0.0152127
0.0152021
0.0151911
0.0151797
0.0151678
0.0151557
0.0151431
0.0151303
0.0151172
0.0151039
0.0150905
0.015077
0.0150634
0.0150497
0.0150361
0.0150226
0.0150091
0.0149958
0.0149827
0.0149697
0.0149569
0.0149443
0.014932
0.0149198
0.0149079
0.0148962
0.0148847
0.0148734
0.0148623
0.0148514
0.0148407
0.01483
0.0148196
0.0148092
0.014799
0.0147888
0.0147787
0.0147687
0.0147588
0.0147488
0.0147389
0.0147291
0.0147192
0.0147094
0.0146995
0.0146897
0.0146798
0.01467
0.0146601
0.0146502
0.0146403
0.0146304
0.0146205
0.0146105
0.0146006
0.0145906
0.0145807
0.0145707
0.0145607
0.0145508
0.0145408
0.0145308
0.0145209
0.0145109
0.0145009
0.014491
0.0144811
0.0144711
0.0144612
0.0144513
0.0144415
0.0144316
0.0144218
0.0144119
0.0144021
0.0143924
0.0143826
0.0143729
0.0143632
0.0143535
0.0143438
0.0143342
0.0143245
0.0143149
0.0143054
0.0142958
0.0142863
0.0142768
0.0142673
0.0142579
0.0142485
0.0142391
0.0142297
0.0142203
0.014211
0.0142017
0.0141924
0.0141832
0.0141739
0.0141647
0.0141555
0.0141463
0.0141372
0.0141281
0.014119
0.0141099
0.0141008
0.0140918
0.0140827
0.0140737
0.0140647
0.0140558
0.0140468
0.0140379
0.014029
0.01402
0.0140112
0.0140023
0.0139934
0.0139846
0.0139758
0.013967
0.0139582
0.0139495
0.0139407
0.013932
0.0139234
0.0139147
0.0139062
0.0138976
0.0138891
0.0138807
0.0138724
0.0138641
0.013856
0.0138479
0.01384
0.0138322
0.0138246
0.0138172
0.01381
0.0138031
0.0137964
0.01379
0.013784
0.0137782
0.013773
0.013768
0.0137635
0.0137595
0.0137559
0.0137529
0.0137503
0.0137482
0.0137468
0.0137456
0.0137451
0.0137451
0.0137454
0.0137461
0.013747
0.0137487
0.0137503
0.0137522
0.0137548
0.0137566
0.0137593
0.0137616
0.0137634
0.0137658
0.0137658
0.0137652
0.0137623
0.0137541
0.0137376
0.0137069
0.0136532
0.0135649
0.0134312
0.0132526
0.0130521
0.0128716
0.0127438
0.0126701
0.0126329
0.0126149
0.0126061
0.0126014
0.0125986
0.0125966
0.0125949
0.0125933
0.0125916
0.0125898
0.0125879
0.0125859
0.0125838
0.0125816
0.0125793
0.0125769
0.0125745
0.0125721
0.0125697
0.0125672
0.0125648
0.0125624
0.0125601
0.0125578
0.0125556
0.0125534
0.0125514
0.0125494
0.0125475
0.0125457
0.012544
0.0125424
0.0125409
0.0125395
0.0125382
0.012537
0.0125359
0.0125348
0.0125338
0.0125329
0.0125321
0.0125313
0.0125305
0.0125299
0.0125292
0.0125286
0.012528
0.0125275
0.012527
0.0125265
0.012526
0.0125255
0.0125251
0.0125246
0.0125241
0.0125237
0.0125232
0.0125228
0.0125223
0.0125218
0.0125213
0.0125209
0.0125204
0.0125199
0.0125194
0.0125189
0.0125183
0.0125178
0.0125173
0.0125167
0.0125162
0.0125157
0.0125151
0.0125146
0.012514
0.0125135
0.0125129
0.0125124
0.0125118
0.0125113
0.0125108
0.0125103
0.0125097
0.0125092
0.0125087
0.0125082
0.0125077
0.0125073
0.0125068
0.0125064
0.0125059
0.0125055
0.0125051
0.0125047
0.0125043
0.0125039
0.0125036
0.0125032
0.0125029
0.0125026
0.0125023
0.012502
0.0125017
0.0125015
0.0125012
0.012501
0.0125008
0.0125006
0.0125005
0.0125003
0.0125002
0.0125001
0.0125
0.0124999
0.0124998
0.0124998
0.0124997
0.0124997
0.0124997
0.0124997
0.0124997
0.0124997
0.0124998
0.0124999
0.0124999
0.0125001
0.0125002
0.0125003
0.0125004
0.0125006
0.0125008
0.012501
0.0125012
0.0125014
0.0125016
0.0125018
0.0125021
0.0125024
0.0125026
0.0125029
0.0125032
0.0125036
0.0125039
0.0125043
0.0125046
0.012505
0.0125055
0.0125059
0.0125064
0.0125068
0.0125074
0.0125079
0.0125085
0.0125091
0.0125097
0.0125104
0.0125112
0.012512
0.0125128
0.0125137
0.0125146
0.0125156
0.0125166
0.0125177
0.0125189
0.0125202
0.0125215
0.0125229
0.0125243
0.0125258
0.0125274
0.0125291
0.0125309
0.0125327
0.0125346
0.0125366
0.0125386
0.0125407
0.0125429
0.0125451
0.0125474
0.0125497
0.012552
0.0125544
0.0125568
0.0125592
0.0125616
0.012564
0.0125664
0.0125688
0.0125711
0.0125734
0.0125756
0.0125777
0.0125798
0.0125817
0.0125836
0.0125853
0.0125869
0.0125884
0.0125897
0.0125909
0.0125919
0.0125927
0.0125933
0.0125938
0.0125941
0.0125942
0.0125942
0.0125942
0.012594
0.0125934
0.0125926
0.0125916
0.0125905
0.0125892
0.0125878
0.0125863
0.0125846
0.0125829
0.012581
0.0125791
0.0125771
0.012575
0.0125729
0.0125708
0.0125687
0.0125665
0.0125644
0.0125623
0.0125602
0.0125581
0.0125561
0.0125542
0.0125523
0.0125505
0.0125487
0.012547
0.0125454
0.0125438
0.0125424
0.0125409
0.0125396
0.0125383
0.0125372
0.012536
0.012535
0.0125339
0.012533
0.0125321
0.0125312
0.0125304
0.0125296
0.0125289
0.0125282
0.0125275
0.0125269
0.0125262
0.0125256
0.012525
0.0125244
0.0125239
0.0125233
0.0125227
0.0125222
0.0125216
0.0125211
0.0125205
0.01252
0.0125194
0.0125189
0.0125183
0.0125178
0.0125172
0.0125167
0.0125161
0.0125156
0.012515
0.0125145
0.0125139
0.0125134
0.0125128
0.0125123
0.0125116
0.0125112
0.0125106
0.0125102
0.0125095
0.0125091
0.0125084
0.0125081
0.0125074
0.0125072
0.0125065
0.0125062
0.0125055
0.0125053
0.0125047
0.0125045
0.0125038
0.0125039
)
;

boundaryField
{
    inlet
    {
        type            fixedValue;
        value           uniform 0.55;
    }
    outlet
    {
        type            zeroGradient;
    }
    emptyWalls
    {
        type            empty;
    }
}


// ************************************************************************* //
