/*--------------------------------*- C++ -*----------------------------------*\
  =========                 |
  \\      /  F ield         | OpenFOAM: The Open Source CFD Toolbox
   \\    /   O peration     | Website:  https://openfoam.org
    \\  /    A nd           | Version:  9
     \\/     M anipulation  |
\*---------------------------------------------------------------------------*/
FoamFile
{
    format      ascii;
    class       volVectorField;
    location    "17300";
    object      Ua;
}
// * * * * * * * * * * * * * * * * * * * * * * * * * * * * * * * * * * * * * //

dimensions      [0 0 0 0 0 0 0];

internalField   nonuniform List<vector> 
1000
(
(2.749e-06 0 0)
(2.74869e-06 0 0)
(2.7486e-06 0 0)
(2.74838e-06 0 0)
(2.74807e-06 0 0)
(2.74762e-06 0 0)
(2.74705e-06 0 0)
(2.74631e-06 0 0)
(2.74549e-06 0 0)
(2.74462e-06 0 0)
(2.7436e-06 0 0)
(2.7427e-06 0 0)
(2.74162e-06 0 0)
(2.74064e-06 0 0)
(2.73966e-06 0 0)
(2.73867e-06 0 0)
(2.73785e-06 0 0)
(2.73706e-06 0 0)
(2.73636e-06 0 0)
(2.73565e-06 0 0)
(2.7346e-06 0 0)
(2.73179e-06 0 0)
(2.72184e-06 0 0)
(2.67484e-06 0 0)
(2.44442e-06 0 0)
(2.20203e-06 0 0)
(2.13732e-06 0 0)
(2.11768e-06 0 0)
(2.10789e-06 0 0)
(2.10141e-06 0 0)
(2.09647e-06 0 0)
(2.0924e-06 0 0)
(2.08891e-06 0 0)
(2.08583e-06 0 0)
(2.08308e-06 0 0)
(2.0806e-06 0 0)
(2.07837e-06 0 0)
(2.07636e-06 0 0)
(2.07456e-06 0 0)
(2.07295e-06 0 0)
(2.07144e-06 0 0)
(2.07003e-06 0 0)
(2.06867e-06 0 0)
(2.06734e-06 0 0)
(2.06605e-06 0 0)
(2.06481e-06 0 0)
(2.0637e-06 0 0)
(2.06276e-06 0 0)
(2.06193e-06 0 0)
(2.0612e-06 0 0)
(2.06055e-06 0 0)
(2.05988e-06 0 0)
(2.05912e-06 0 0)
(2.05829e-06 0 0)
(2.05745e-06 0 0)
(2.05671e-06 0 0)
(2.0562e-06 0 0)
(2.05606e-06 0 0)
(2.05638e-06 0 0)
(2.05723e-06 0 0)
(2.05864e-06 0 0)
(2.06073e-06 0 0)
(2.06388e-06 0 0)
(2.06738e-06 0 0)
(2.07054e-06 0 0)
(2.07353e-06 0 0)
(2.07619e-06 0 0)
(2.07859e-06 0 0)
(2.08078e-06 0 0)
(2.08267e-06 0 0)
(2.0841e-06 0 0)
(2.08488e-06 0 0)
(2.08486e-06 0 0)
(2.08394e-06 0 0)
(2.08212e-06 0 0)
(2.07949e-06 0 0)
(2.0762e-06 0 0)
(2.07246e-06 0 0)
(2.06849e-06 0 0)
(2.06451e-06 0 0)
(2.06069e-06 0 0)
(2.05719e-06 0 0)
(2.05412e-06 0 0)
(2.05154e-06 0 0)
(2.04947e-06 0 0)
(2.0479e-06 0 0)
(2.04679e-06 0 0)
(2.04609e-06 0 0)
(2.04571e-06 0 0)
(2.04559e-06 0 0)
(2.04564e-06 0 0)
(2.0458e-06 0 0)
(2.046e-06 0 0)
(2.04619e-06 0 0)
(2.04634e-06 0 0)
(2.04642e-06 0 0)
(2.04641e-06 0 0)
(2.04632e-06 0 0)
(2.04615e-06 0 0)
(2.04589e-06 0 0)
(2.04556e-06 0 0)
(2.04516e-06 0 0)
(2.04472e-06 0 0)
(2.04423e-06 0 0)
(2.04372e-06 0 0)
(2.04318e-06 0 0)
(2.04263e-06 0 0)
(2.04207e-06 0 0)
(2.04151e-06 0 0)
(2.04095e-06 0 0)
(2.04039e-06 0 0)
(2.03983e-06 0 0)
(2.03928e-06 0 0)
(2.03874e-06 0 0)
(2.03821e-06 0 0)
(2.03769e-06 0 0)
(2.03717e-06 0 0)
(2.03666e-06 0 0)
(2.03617e-06 0 0)
(2.03568e-06 0 0)
(2.03521e-06 0 0)
(2.03474e-06 0 0)
(2.03429e-06 0 0)
(2.03385e-06 0 0)
(2.03341e-06 0 0)
(2.03299e-06 0 0)
(2.03258e-06 0 0)
(2.03218e-06 0 0)
(2.03179e-06 0 0)
(2.03142e-06 0 0)
(2.03105e-06 0 0)
(2.0307e-06 0 0)
(2.03035e-06 0 0)
(2.03002e-06 0 0)
(2.0297e-06 0 0)
(2.02939e-06 0 0)
(2.02909e-06 0 0)
(2.0288e-06 0 0)
(2.02852e-06 0 0)
(2.02825e-06 0 0)
(2.02799e-06 0 0)
(2.02774e-06 0 0)
(2.02751e-06 0 0)
(2.02728e-06 0 0)
(2.02708e-06 0 0)
(2.02688e-06 0 0)
(2.0267e-06 0 0)
(2.02654e-06 0 0)
(2.02639e-06 0 0)
(2.02625e-06 0 0)
(2.02612e-06 0 0)
(2.026e-06 0 0)
(2.02589e-06 0 0)
(2.02578e-06 0 0)
(2.02567e-06 0 0)
(2.02557e-06 0 0)
(2.02546e-06 0 0)
(2.02536e-06 0 0)
(2.02526e-06 0 0)
(2.02516e-06 0 0)
(2.02507e-06 0 0)
(2.02499e-06 0 0)
(2.02493e-06 0 0)
(2.02487e-06 0 0)
(2.02483e-06 0 0)
(2.02479e-06 0 0)
(2.02476e-06 0 0)
(2.02472e-06 0 0)
(2.02468e-06 0 0)
(2.02463e-06 0 0)
(2.02456e-06 0 0)
(2.0245e-06 0 0)
(2.02444e-06 0 0)
(2.0244e-06 0 0)
(2.0244e-06 0 0)
(2.02447e-06 0 0)
(2.02463e-06 0 0)
(2.02491e-06 0 0)
(2.02532e-06 0 0)
(2.02589e-06 0 0)
(2.02662e-06 0 0)
(2.02752e-06 0 0)
(2.0286e-06 0 0)
(2.02985e-06 0 0)
(2.03125e-06 0 0)
(2.0328e-06 0 0)
(2.03446e-06 0 0)
(2.03621e-06 0 0)
(2.03802e-06 0 0)
(2.03984e-06 0 0)
(2.04164e-06 0 0)
(2.04338e-06 0 0)
(2.045e-06 0 0)
(2.04645e-06 0 0)
(2.04769e-06 0 0)
(2.04868e-06 0 0)
(2.04937e-06 0 0)
(2.04974e-06 0 0)
(2.04976e-06 0 0)
(2.04942e-06 0 0)
(2.04873e-06 0 0)
(2.04769e-06 0 0)
(2.04634e-06 0 0)
(2.0447e-06 0 0)
(2.04284e-06 0 0)
(2.04079e-06 0 0)
(2.03862e-06 0 0)
(2.03638e-06 0 0)
(2.03413e-06 0 0)
(2.03192e-06 0 0)
(2.02979e-06 0 0)
(2.02779e-06 0 0)
(2.02593e-06 0 0)
(2.02424e-06 0 0)
(2.02274e-06 0 0)
(2.02141e-06 0 0)
(2.02027e-06 0 0)
(2.0193e-06 0 0)
(2.01849e-06 0 0)
(2.01782e-06 0 0)
(2.01727e-06 0 0)
(2.01683e-06 0 0)
(2.01647e-06 0 0)
(2.01617e-06 0 0)
(2.01592e-06 0 0)
(2.01571e-06 0 0)
(2.0155e-06 0 0)
(2.01531e-06 0 0)
(2.01511e-06 0 0)
(2.01489e-06 0 0)
(2.01466e-06 0 0)
(2.0144e-06 0 0)
(2.01412e-06 0 0)
(2.01381e-06 0 0)
(2.01347e-06 0 0)
(2.01311e-06 0 0)
(2.01273e-06 0 0)
(2.01232e-06 0 0)
(2.0119e-06 0 0)
(2.01145e-06 0 0)
(2.011e-06 0 0)
(2.01053e-06 0 0)
(2.01005e-06 0 0)
(2.00956e-06 0 0)
(2.00906e-06 0 0)
(2.00857e-06 0 0)
(2.00807e-06 0 0)
(2.00757e-06 0 0)
(2.00707e-06 0 0)
(2.00657e-06 0 0)
(2.00608e-06 0 0)
(2.00559e-06 0 0)
(2.0051e-06 0 0)
(2.00462e-06 0 0)
(2.00414e-06 0 0)
(2.00367e-06 0 0)
(2.00321e-06 0 0)
(2.00275e-06 0 0)
(2.0023e-06 0 0)
(2.00186e-06 0 0)
(2.00142e-06 0 0)
(2.001e-06 0 0)
(2.00058e-06 0 0)
(2.00016e-06 0 0)
(1.99976e-06 0 0)
(1.99936e-06 0 0)
(1.99897e-06 0 0)
(1.99859e-06 0 0)
(1.99822e-06 0 0)
(1.99786e-06 0 0)
(1.9975e-06 0 0)
(1.99716e-06 0 0)
(1.99682e-06 0 0)
(1.99649e-06 0 0)
(1.99617e-06 0 0)
(1.99586e-06 0 0)
(1.99556e-06 0 0)
(1.99526e-06 0 0)
(1.99498e-06 0 0)
(1.9947e-06 0 0)
(1.99444e-06 0 0)
(1.99418e-06 0 0)
(1.99394e-06 0 0)
(1.99371e-06 0 0)
(1.99348e-06 0 0)
(1.99327e-06 0 0)
(1.99306e-06 0 0)
(1.99286e-06 0 0)
(1.99268e-06 0 0)
(1.9925e-06 0 0)
(1.99233e-06 0 0)
(1.99216e-06 0 0)
(1.992e-06 0 0)
(1.99185e-06 0 0)
(1.99171e-06 0 0)
(1.99156e-06 0 0)
(1.99143e-06 0 0)
(1.9913e-06 0 0)
(1.99118e-06 0 0)
(1.99106e-06 0 0)
(1.99095e-06 0 0)
(1.99084e-06 0 0)
(1.99074e-06 0 0)
(1.99064e-06 0 0)
(1.99054e-06 0 0)
(1.99045e-06 0 0)
(1.99036e-06 0 0)
(1.99028e-06 0 0)
(1.9902e-06 0 0)
(1.99012e-06 0 0)
(1.99004e-06 0 0)
(1.98998e-06 0 0)
(1.98992e-06 0 0)
(1.98987e-06 0 0)
(1.98984e-06 0 0)
(1.98983e-06 0 0)
(1.98986e-06 0 0)
(1.98992e-06 0 0)
(1.99002e-06 0 0)
(1.99017e-06 0 0)
(1.99038e-06 0 0)
(1.99065e-06 0 0)
(1.991e-06 0 0)
(1.99142e-06 0 0)
(1.99192e-06 0 0)
(1.99251e-06 0 0)
(1.99318e-06 0 0)
(1.99393e-06 0 0)
(1.99477e-06 0 0)
(1.99568e-06 0 0)
(1.99666e-06 0 0)
(1.9977e-06 0 0)
(1.99879e-06 0 0)
(1.99992e-06 0 0)
(2.00107e-06 0 0)
(2.00223e-06 0 0)
(2.00337e-06 0 0)
(2.00448e-06 0 0)
(2.00554e-06 0 0)
(2.00653e-06 0 0)
(2.00743e-06 0 0)
(2.00822e-06 0 0)
(2.00888e-06 0 0)
(2.0094e-06 0 0)
(2.00976e-06 0 0)
(2.00995e-06 0 0)
(2.00996e-06 0 0)
(2.00978e-06 0 0)
(2.00942e-06 0 0)
(2.00888e-06 0 0)
(2.00816e-06 0 0)
(2.00727e-06 0 0)
(2.00624e-06 0 0)
(2.00507e-06 0 0)
(2.00378e-06 0 0)
(2.0024e-06 0 0)
(2.00095e-06 0 0)
(1.99945e-06 0 0)
(1.99792e-06 0 0)
(1.99639e-06 0 0)
(1.99487e-06 0 0)
(1.99339e-06 0 0)
(1.99195e-06 0 0)
(1.99058e-06 0 0)
(1.98927e-06 0 0)
(1.98805e-06 0 0)
(1.98691e-06 0 0)
(1.98585e-06 0 0)
(1.98488e-06 0 0)
(1.984e-06 0 0)
(1.9832e-06 0 0)
(1.98247e-06 0 0)
(1.98181e-06 0 0)
(1.98122e-06 0 0)
(1.98068e-06 0 0)
(1.9802e-06 0 0)
(1.97975e-06 0 0)
(1.97934e-06 0 0)
(1.97895e-06 0 0)
(1.97859e-06 0 0)
(1.97824e-06 0 0)
(1.97791e-06 0 0)
(1.97757e-06 0 0)
(1.97724e-06 0 0)
(1.97691e-06 0 0)
(1.97657e-06 0 0)
(1.97622e-06 0 0)
(1.97587e-06 0 0)
(1.9755e-06 0 0)
(1.97513e-06 0 0)
(1.97474e-06 0 0)
(1.97435e-06 0 0)
(1.97394e-06 0 0)
(1.97352e-06 0 0)
(1.97309e-06 0 0)
(1.97266e-06 0 0)
(1.97222e-06 0 0)
(1.97177e-06 0 0)
(1.97131e-06 0 0)
(1.97085e-06 0 0)
(1.97039e-06 0 0)
(1.96992e-06 0 0)
(1.96945e-06 0 0)
(1.96898e-06 0 0)
(1.96851e-06 0 0)
(1.96805e-06 0 0)
(1.96758e-06 0 0)
(1.96712e-06 0 0)
(1.96665e-06 0 0)
(1.9662e-06 0 0)
(1.96574e-06 0 0)
(1.96529e-06 0 0)
(1.96485e-06 0 0)
(1.96441e-06 0 0)
(1.96397e-06 0 0)
(1.96354e-06 0 0)
(1.96312e-06 0 0)
(1.9627e-06 0 0)
(1.96229e-06 0 0)
(1.96188e-06 0 0)
(1.96149e-06 0 0)
(1.96109e-06 0 0)
(1.96071e-06 0 0)
(1.96033e-06 0 0)
(1.95996e-06 0 0)
(1.9596e-06 0 0)
(1.95924e-06 0 0)
(1.95889e-06 0 0)
(1.95855e-06 0 0)
(1.95821e-06 0 0)
(1.95788e-06 0 0)
(1.95756e-06 0 0)
(1.95725e-06 0 0)
(1.95695e-06 0 0)
(1.95665e-06 0 0)
(1.95636e-06 0 0)
(1.95607e-06 0 0)
(1.9558e-06 0 0)
(1.95553e-06 0 0)
(1.95527e-06 0 0)
(1.95502e-06 0 0)
(1.95477e-06 0 0)
(1.95454e-06 0 0)
(1.9543e-06 0 0)
(1.95408e-06 0 0)
(1.95386e-06 0 0)
(1.95365e-06 0 0)
(1.95345e-06 0 0)
(1.95325e-06 0 0)
(1.95305e-06 0 0)
(1.95287e-06 0 0)
(1.95269e-06 0 0)
(1.95251e-06 0 0)
(1.95234e-06 0 0)
(1.95217e-06 0 0)
(1.95201e-06 0 0)
(1.95185e-06 0 0)
(1.95169e-06 0 0)
(1.95154e-06 0 0)
(1.9514e-06 0 0)
(1.95126e-06 0 0)
(1.95112e-06 0 0)
(1.95098e-06 0 0)
(1.95085e-06 0 0)
(1.95072e-06 0 0)
(1.9506e-06 0 0)
(1.95047e-06 0 0)
(1.95036e-06 0 0)
(1.95025e-06 0 0)
(1.95014e-06 0 0)
(1.95004e-06 0 0)
(1.94995e-06 0 0)
(1.94987e-06 0 0)
(1.9498e-06 0 0)
(1.94975e-06 0 0)
(1.94971e-06 0 0)
(1.94968e-06 0 0)
(1.94968e-06 0 0)
(1.94971e-06 0 0)
(1.94976e-06 0 0)
(1.94984e-06 0 0)
(1.94996e-06 0 0)
(1.95011e-06 0 0)
(1.9503e-06 0 0)
(1.95053e-06 0 0)
(1.9508e-06 0 0)
(1.95112e-06 0 0)
(1.95149e-06 0 0)
(1.9519e-06 0 0)
(1.95236e-06 0 0)
(1.95286e-06 0 0)
(1.95341e-06 0 0)
(1.954e-06 0 0)
(1.95463e-06 0 0)
(1.95529e-06 0 0)
(1.95598e-06 0 0)
(1.95669e-06 0 0)
(1.95743e-06 0 0)
(1.95817e-06 0 0)
(1.95892e-06 0 0)
(1.95966e-06 0 0)
(1.96038e-06 0 0)
(1.96109e-06 0 0)
(1.96175e-06 0 0)
(1.96238e-06 0 0)
(1.96296e-06 0 0)
(1.96347e-06 0 0)
(1.96391e-06 0 0)
(1.96428e-06 0 0)
(1.96456e-06 0 0)
(1.96474e-06 0 0)
(1.96483e-06 0 0)
(1.96481e-06 0 0)
(1.96469e-06 0 0)
(1.96446e-06 0 0)
(1.96412e-06 0 0)
(1.96367e-06 0 0)
(1.96312e-06 0 0)
(1.96247e-06 0 0)
(1.96172e-06 0 0)
(1.96089e-06 0 0)
(1.95998e-06 0 0)
(1.95899e-06 0 0)
(1.95795e-06 0 0)
(1.95686e-06 0 0)
(1.95572e-06 0 0)
(1.95456e-06 0 0)
(1.95338e-06 0 0)
(1.95219e-06 0 0)
(1.95101e-06 0 0)
(1.94983e-06 0 0)
(1.94868e-06 0 0)
(1.94755e-06 0 0)
(1.94646e-06 0 0)
(1.9454e-06 0 0)
(1.94438e-06 0 0)
(1.94341e-06 0 0)
(1.94248e-06 0 0)
(1.9416e-06 0 0)
(1.94077e-06 0 0)
(1.93999e-06 0 0)
(1.93925e-06 0 0)
(1.93856e-06 0 0)
(1.9379e-06 0 0)
(1.93729e-06 0 0)
(1.93671e-06 0 0)
(1.93616e-06 0 0)
(1.93565e-06 0 0)
(1.93515e-06 0 0)
(1.93468e-06 0 0)
(1.93423e-06 0 0)
(1.93379e-06 0 0)
(1.93337e-06 0 0)
(1.93296e-06 0 0)
(1.93255e-06 0 0)
(1.93215e-06 0 0)
(1.93175e-06 0 0)
(1.93136e-06 0 0)
(1.93096e-06 0 0)
(1.93056e-06 0 0)
(1.93016e-06 0 0)
(1.92976e-06 0 0)
(1.92935e-06 0 0)
(1.92894e-06 0 0)
(1.92853e-06 0 0)
(1.92811e-06 0 0)
(1.92768e-06 0 0)
(1.92725e-06 0 0)
(1.92681e-06 0 0)
(1.92638e-06 0 0)
(1.92593e-06 0 0)
(1.92549e-06 0 0)
(1.92504e-06 0 0)
(1.92459e-06 0 0)
(1.92413e-06 0 0)
(1.92368e-06 0 0)
(1.92322e-06 0 0)
(1.92276e-06 0 0)
(1.9223e-06 0 0)
(1.92185e-06 0 0)
(1.92139e-06 0 0)
(1.92094e-06 0 0)
(1.92048e-06 0 0)
(1.92003e-06 0 0)
(1.91958e-06 0 0)
(1.91913e-06 0 0)
(1.91869e-06 0 0)
(1.91825e-06 0 0)
(1.91781e-06 0 0)
(1.91738e-06 0 0)
(1.91695e-06 0 0)
(1.91652e-06 0 0)
(1.9161e-06 0 0)
(1.91568e-06 0 0)
(1.91527e-06 0 0)
(1.91486e-06 0 0)
(1.91445e-06 0 0)
(1.91406e-06 0 0)
(1.91366e-06 0 0)
(1.91327e-06 0 0)
(1.91289e-06 0 0)
(1.91251e-06 0 0)
(1.91213e-06 0 0)
(1.91176e-06 0 0)
(1.9114e-06 0 0)
(1.91104e-06 0 0)
(1.91069e-06 0 0)
(1.91034e-06 0 0)
(1.91e-06 0 0)
(1.90966e-06 0 0)
(1.90933e-06 0 0)
(1.909e-06 0 0)
(1.90868e-06 0 0)
(1.90836e-06 0 0)
(1.90805e-06 0 0)
(1.90774e-06 0 0)
(1.90744e-06 0 0)
(1.90714e-06 0 0)
(1.90685e-06 0 0)
(1.90656e-06 0 0)
(1.90628e-06 0 0)
(1.906e-06 0 0)
(1.90572e-06 0 0)
(1.90545e-06 0 0)
(1.90518e-06 0 0)
(1.90492e-06 0 0)
(1.90466e-06 0 0)
(1.90441e-06 0 0)
(1.90416e-06 0 0)
(1.90391e-06 0 0)
(1.90367e-06 0 0)
(1.90343e-06 0 0)
(1.90319e-06 0 0)
(1.90295e-06 0 0)
(1.90272e-06 0 0)
(1.9025e-06 0 0)
(1.90227e-06 0 0)
(1.90205e-06 0 0)
(1.90183e-06 0 0)
(1.90162e-06 0 0)
(1.90141e-06 0 0)
(1.9012e-06 0 0)
(1.901e-06 0 0)
(1.9008e-06 0 0)
(1.90061e-06 0 0)
(1.90042e-06 0 0)
(1.90024e-06 0 0)
(1.90007e-06 0 0)
(1.89991e-06 0 0)
(1.89976e-06 0 0)
(1.89961e-06 0 0)
(1.89949e-06 0 0)
(1.89937e-06 0 0)
(1.89927e-06 0 0)
(1.89919e-06 0 0)
(1.89914e-06 0 0)
(1.8991e-06 0 0)
(1.89909e-06 0 0)
(1.8991e-06 0 0)
(1.89914e-06 0 0)
(1.89922e-06 0 0)
(1.89933e-06 0 0)
(1.89947e-06 0 0)
(1.89965e-06 0 0)
(1.89988e-06 0 0)
(1.90013e-06 0 0)
(1.90044e-06 0 0)
(1.90078e-06 0 0)
(1.90117e-06 0 0)
(1.9016e-06 0 0)
(1.90206e-06 0 0)
(1.90258e-06 0 0)
(1.90314e-06 0 0)
(1.90372e-06 0 0)
(1.90433e-06 0 0)
(1.90498e-06 0 0)
(1.90567e-06 0 0)
(1.90636e-06 0 0)
(1.90708e-06 0 0)
(1.90783e-06 0 0)
(1.90855e-06 0 0)
(1.90931e-06 0 0)
(1.91005e-06 0 0)
(1.91077e-06 0 0)
(1.91148e-06 0 0)
(1.9121e-06 0 0)
(1.91269e-06 0 0)
(1.91315e-06 0 0)
(1.91338e-06 0 0)
(1.91326e-06 0 0)
(1.91256e-06 0 0)
(1.91096e-06 0 0)
(1.90803e-06 0 0)
(1.90341e-06 0 0)
(1.89717e-06 0 0)
(1.89016e-06 0 0)
(1.88384e-06 0 0)
(1.8793e-06 0 0)
(1.87664e-06 0 0)
(1.87526e-06 0 0)
(1.87455e-06 0 0)
(1.87414e-06 0 0)
(1.87384e-06 0 0)
(1.87356e-06 0 0)
(1.87327e-06 0 0)
(1.87294e-06 0 0)
(1.87258e-06 0 0)
(1.87217e-06 0 0)
(1.87172e-06 0 0)
(1.87123e-06 0 0)
(1.87071e-06 0 0)
(1.87016e-06 0 0)
(1.86958e-06 0 0)
(1.86898e-06 0 0)
(1.86837e-06 0 0)
(1.86774e-06 0 0)
(1.86711e-06 0 0)
(1.86647e-06 0 0)
(1.86583e-06 0 0)
(1.8652e-06 0 0)
(1.86457e-06 0 0)
(1.86396e-06 0 0)
(1.86336e-06 0 0)
(1.86278e-06 0 0)
(1.86222e-06 0 0)
(1.86168e-06 0 0)
(1.86117e-06 0 0)
(1.86068e-06 0 0)
(1.86021e-06 0 0)
(1.85977e-06 0 0)
(1.85935e-06 0 0)
(1.85896e-06 0 0)
(1.85859e-06 0 0)
(1.85825e-06 0 0)
(1.85793e-06 0 0)
(1.85763e-06 0 0)
(1.85735e-06 0 0)
(1.85709e-06 0 0)
(1.85686e-06 0 0)
(1.85663e-06 0 0)
(1.85643e-06 0 0)
(1.85624e-06 0 0)
(1.85606e-06 0 0)
(1.85589e-06 0 0)
(1.85573e-06 0 0)
(1.85558e-06 0 0)
(1.85544e-06 0 0)
(1.85531e-06 0 0)
(1.85517e-06 0 0)
(1.85505e-06 0 0)
(1.85492e-06 0 0)
(1.8548e-06 0 0)
(1.85468e-06 0 0)
(1.85456e-06 0 0)
(1.85444e-06 0 0)
(1.85432e-06 0 0)
(1.8542e-06 0 0)
(1.85408e-06 0 0)
(1.85396e-06 0 0)
(1.85383e-06 0 0)
(1.85371e-06 0 0)
(1.85358e-06 0 0)
(1.85345e-06 0 0)
(1.85332e-06 0 0)
(1.85318e-06 0 0)
(1.85305e-06 0 0)
(1.85291e-06 0 0)
(1.85277e-06 0 0)
(1.85263e-06 0 0)
(1.85249e-06 0 0)
(1.85235e-06 0 0)
(1.85221e-06 0 0)
(1.85206e-06 0 0)
(1.85192e-06 0 0)
(1.85178e-06 0 0)
(1.85164e-06 0 0)
(1.85149e-06 0 0)
(1.85135e-06 0 0)
(1.85121e-06 0 0)
(1.85108e-06 0 0)
(1.85094e-06 0 0)
(1.8508e-06 0 0)
(1.85067e-06 0 0)
(1.85054e-06 0 0)
(1.85041e-06 0 0)
(1.85028e-06 0 0)
(1.85016e-06 0 0)
(1.85004e-06 0 0)
(1.84992e-06 0 0)
(1.84981e-06 0 0)
(1.8497e-06 0 0)
(1.84959e-06 0 0)
(1.84948e-06 0 0)
(1.84938e-06 0 0)
(1.84928e-06 0 0)
(1.84919e-06 0 0)
(1.8491e-06 0 0)
(1.84902e-06 0 0)
(1.84893e-06 0 0)
(1.84886e-06 0 0)
(1.84878e-06 0 0)
(1.84871e-06 0 0)
(1.84865e-06 0 0)
(1.84858e-06 0 0)
(1.84853e-06 0 0)
(1.84848e-06 0 0)
(1.84843e-06 0 0)
(1.84838e-06 0 0)
(1.84834e-06 0 0)
(1.84831e-06 0 0)
(1.84828e-06 0 0)
(1.84825e-06 0 0)
(1.84823e-06 0 0)
(1.84821e-06 0 0)
(1.8482e-06 0 0)
(1.84819e-06 0 0)
(1.84818e-06 0 0)
(1.84818e-06 0 0)
(1.84818e-06 0 0)
(1.84818e-06 0 0)
(1.84819e-06 0 0)
(1.84821e-06 0 0)
(1.84823e-06 0 0)
(1.84825e-06 0 0)
(1.84827e-06 0 0)
(1.84831e-06 0 0)
(1.84834e-06 0 0)
(1.84838e-06 0 0)
(1.84842e-06 0 0)
(1.84846e-06 0 0)
(1.84851e-06 0 0)
(1.84856e-06 0 0)
(1.84862e-06 0 0)
(1.84868e-06 0 0)
(1.84874e-06 0 0)
(1.84881e-06 0 0)
(1.84887e-06 0 0)
(1.84895e-06 0 0)
(1.84902e-06 0 0)
(1.84911e-06 0 0)
(1.84919e-06 0 0)
(1.84928e-06 0 0)
(1.84937e-06 0 0)
(1.84947e-06 0 0)
(1.84958e-06 0 0)
(1.84968e-06 0 0)
(1.8498e-06 0 0)
(1.84992e-06 0 0)
(1.85005e-06 0 0)
(1.85018e-06 0 0)
(1.85033e-06 0 0)
(1.85048e-06 0 0)
(1.85064e-06 0 0)
(1.85081e-06 0 0)
(1.85099e-06 0 0)
(1.85118e-06 0 0)
(1.85138e-06 0 0)
(1.8516e-06 0 0)
(1.85183e-06 0 0)
(1.85207e-06 0 0)
(1.85233e-06 0 0)
(1.8526e-06 0 0)
(1.85289e-06 0 0)
(1.8532e-06 0 0)
(1.85353e-06 0 0)
(1.85387e-06 0 0)
(1.85423e-06 0 0)
(1.85461e-06 0 0)
(1.85501e-06 0 0)
(1.85543e-06 0 0)
(1.85587e-06 0 0)
(1.85633e-06 0 0)
(1.85681e-06 0 0)
(1.85731e-06 0 0)
(1.85782e-06 0 0)
(1.85835e-06 0 0)
(1.8589e-06 0 0)
(1.85947e-06 0 0)
(1.86005e-06 0 0)
(1.86064e-06 0 0)
(1.86125e-06 0 0)
(1.86186e-06 0 0)
(1.86248e-06 0 0)
(1.86311e-06 0 0)
(1.86374e-06 0 0)
(1.86437e-06 0 0)
(1.865e-06 0 0)
(1.86562e-06 0 0)
(1.86624e-06 0 0)
(1.86685e-06 0 0)
(1.86744e-06 0 0)
(1.86802e-06 0 0)
(1.86858e-06 0 0)
(1.86912e-06 0 0)
(1.86963e-06 0 0)
(1.87012e-06 0 0)
(1.87057e-06 0 0)
(1.87099e-06 0 0)
(1.87137e-06 0 0)
(1.87172e-06 0 0)
(1.87202e-06 0 0)
(1.87228e-06 0 0)
(1.8725e-06 0 0)
(1.87267e-06 0 0)
(1.87279e-06 0 0)
(1.87286e-06 0 0)
(1.87289e-06 0 0)
(1.8729e-06 0 0)
(1.87289e-06 0 0)
(1.87283e-06 0 0)
(1.87268e-06 0 0)
(1.87248e-06 0 0)
(1.87222e-06 0 0)
(1.87193e-06 0 0)
(1.8716e-06 0 0)
(1.87123e-06 0 0)
(1.87082e-06 0 0)
(1.87039e-06 0 0)
(1.86993e-06 0 0)
(1.86944e-06 0 0)
(1.86894e-06 0 0)
(1.86841e-06 0 0)
(1.86787e-06 0 0)
(1.86733e-06 0 0)
(1.86677e-06 0 0)
(1.86621e-06 0 0)
(1.86565e-06 0 0)
(1.86509e-06 0 0)
(1.86454e-06 0 0)
(1.86399e-06 0 0)
(1.86346e-06 0 0)
(1.86293e-06 0 0)
(1.86242e-06 0 0)
(1.86193e-06 0 0)
(1.86145e-06 0 0)
(1.86099e-06 0 0)
(1.86055e-06 0 0)
(1.86012e-06 0 0)
(1.85972e-06 0 0)
(1.85933e-06 0 0)
(1.85896e-06 0 0)
(1.85861e-06 0 0)
(1.85828e-06 0 0)
(1.85797e-06 0 0)
(1.85767e-06 0 0)
(1.85739e-06 0 0)
(1.85713e-06 0 0)
(1.85688e-06 0 0)
(1.85664e-06 0 0)
(1.85642e-06 0 0)
(1.85621e-06 0 0)
(1.856e-06 0 0)
(1.85581e-06 0 0)
(1.85562e-06 0 0)
(1.85545e-06 0 0)
(1.85528e-06 0 0)
(1.85511e-06 0 0)
(1.85495e-06 0 0)
(1.8548e-06 0 0)
(1.85464e-06 0 0)
(1.85449e-06 0 0)
(1.85435e-06 0 0)
(1.8542e-06 0 0)
(1.85405e-06 0 0)
(1.85391e-06 0 0)
(1.85377e-06 0 0)
(1.85362e-06 0 0)
(1.85348e-06 0 0)
(1.85334e-06 0 0)
(1.85319e-06 0 0)
(1.85305e-06 0 0)
(1.85291e-06 0 0)
(1.85276e-06 0 0)
(1.85262e-06 0 0)
(1.85247e-06 0 0)
(1.85233e-06 0 0)
(1.85218e-06 0 0)
(1.85204e-06 0 0)
(1.85189e-06 0 0)
(1.85175e-06 0 0)
(1.8516e-06 0 0)
(1.85146e-06 0 0)
(1.85131e-06 0 0)
(1.85117e-06 0 0)
(1.85103e-06 0 0)
(1.85089e-06 0 0)
(1.85076e-06 0 0)
(1.85062e-06 0 0)
(1.85049e-06 0 0)
(1.85036e-06 0 0)
(1.85023e-06 0 0)
(1.8501e-06 0 0)
(1.84998e-06 0 0)
(1.84986e-06 0 0)
(1.84974e-06 0 0)
(1.84962e-06 0 0)
(1.84951e-06 0 0)
(1.8494e-06 0 0)
(1.8493e-06 0 0)
(1.8492e-06 0 0)
)
;

boundaryField
{
    inlet
    {
        type            fixedValue;
        value           uniform (2.74882e-06 0 0);
    }
    outlet
    {
        type            zeroGradient;
    }
    emptyWalls
    {
        type            empty;
    }
}


// ************************************************************************* //
