/*--------------------------------*- C++ -*----------------------------------*\
  =========                 |
  \\      /  F ield         | OpenFOAM: The Open Source CFD Toolbox
   \\    /   O peration     | Website:  https://openfoam.org
    \\  /    A nd           | Version:  9
     \\/     M anipulation  |
\*---------------------------------------------------------------------------*/
FoamFile
{
    format      ascii;
    class       volScalarField;
    location    "66000";
    object      krc;
}
// * * * * * * * * * * * * * * * * * * * * * * * * * * * * * * * * * * * * * //

dimensions      [0 0 0 0 0 0 0];

internalField   nonuniform List<scalar> 
100
(
3.02165e-24
3.19267e-25
3.29641e-25
5.26579e-25
7.20636e-26
2.36408e-25
7.47005e-26
2.21314e-28
1.65783e-25
1.26219e-25
2.96361e-25
1.96917e-26
7.54749e-26
2.4457e-25
1.73674e-25
2.02737e-25
1.27617e-25
5.08675e-27
2.94313e-25
4.44594e-25
5.52267e-26
2.48781e-25
8.55381e-26
2.31397e-25
1.4458e-25
3.70689e-25
8.8549e-26
4.71475e-25
8.897e-26
4.83191e-25
7.3291e-26
2.81842e-25
8.33657e-25
8.08617e-25
8.91574e-26
1.38787e-24
8.08052e-25
7.54764e-25
3.95269e-25
4.94497e-25
5.66265e-25
2.64933e-24
4.31114e-24
1.10324e-24
4.06504e-24
3.33076e-24
2.39653e-24
6.83222e-24
2.4476e-24
2.02899e-24
4.00983e-24
3.7946e-24
5.5839e-24
1.32678e-24
1.26159e-24
3.32274e-24
5.08731e-25
2.32304e-25
1.97126e-24
1.24612e-24
8.89763e-25
4.49423e-25
1.36633e-25
1.80012e-25
3.21361e-26
7.43891e-25
8.13656e-26
7.36192e-25
1.06526e-25
5.16699e-26
4.47741e-25
5.55916e-25
5.4543e-25
1.8474e-24
4.66736e-24
7.60735e-24
1.72501e-23
3.02085e-23
6.2273e-23
7.92147e-23
1.36647e-22
1.75901e-22
2.95416e-22
4.58572e-22
6.55191e-22
9.68399e-22
1.44212e-21
1.98967e-21
2.84304e-21
3.98637e-21
5.69027e-21
7.70719e-21
1.21115e-20
1.44985e-20
3.34644e-21
6.43588e-20
5.38427e-18
2.48096e-17
6.10531e-16
4.04126e-15
)
;

boundaryField
{
    inlet
    {
        type            calculated;
        value           uniform 3.02165e-24;
    }
    outlet
    {
        type            calculated;
        value           uniform 4.04126e-15;
    }
    emptyWalls
    {
        type            empty;
    }
}


// ************************************************************************* //
