/*--------------------------------*- C++ -*----------------------------------*\
  =========                 |
  \\      /  F ield         | OpenFOAM: The Open Source CFD Toolbox
   \\    /   O peration     | Website:  https://openfoam.org
    \\  /    A nd           | Version:  9
     \\/     M anipulation  |
\*---------------------------------------------------------------------------*/
FoamFile
{
    format      ascii;
    class       volScalarField;
    location    "47000";
    object      krc;
}
// * * * * * * * * * * * * * * * * * * * * * * * * * * * * * * * * * * * * * //

dimensions      [0 0 0 0 0 0 0];

internalField   nonuniform List<scalar> 
100
(
1.54657e-23
2.58254e-24
2.29196e-24
3.07731e-24
4.36985e-25
3.05723e-24
6.46677e-25
3.17712e-26
2.3718e-24
1.26477e-24
2.62511e-24
5.05341e-26
2.7711e-25
1.37956e-24
2.97434e-24
5.54044e-25
1.17802e-24
5.98007e-28
6.74834e-24
1.15242e-23
8.8598e-24
2.22848e-23
2.37184e-23
1.53886e-23
6.56289e-23
4.8595e-23
1.38927e-22
1.16039e-22
2.54572e-22
2.51406e-22
4.81996e-22
5.21476e-22
6.18454e-22
8.0214e-22
1.12742e-21
1.19109e-21
1.46145e-21
1.63316e-21
1.88427e-21
1.98591e-21
1.96709e-21
1.75493e-21
1.61417e-21
1.79389e-21
1.22565e-21
7.0471e-22
3.06538e-22
2.06358e-24
1.14725e-22
3.63009e-22
1.214e-21
2.88519e-21
5.09025e-21
7.54713e-21
1.16447e-20
1.76391e-20
2.3161e-20
3.04633e-20
3.95177e-20
4.77665e-20
5.6095e-20
6.39179e-20
7.07933e-20
7.73647e-20
8.19333e-20
8.48549e-20
8.94894e-20
8.88693e-20
9.08639e-20
8.85454e-20
8.73979e-20
8.36491e-20
7.91267e-20
7.39021e-20
6.89368e-20
6.27477e-20
5.75509e-20
5.13458e-20
4.63831e-20
3.99819e-20
3.51794e-20
2.91201e-20
2.53916e-20
2.1561e-20
1.78715e-20
1.46518e-20
1.20187e-20
9.81055e-21
7.62004e-21
6.10964e-21
4.41668e-21
3.36768e-21
2.77291e-21
1.04487e-21
4.67407e-21
3.13612e-20
4.07534e-19
8.3765e-18
1.06361e-16
5.59842e-16
)
;

boundaryField
{
    inlet
    {
        type            calculated;
        value           uniform 1.54657e-23;
    }
    outlet
    {
        type            calculated;
        value           uniform 5.59842e-16;
    }
    emptyWalls
    {
        type            empty;
    }
}


// ************************************************************************* //
