/*--------------------------------*- C++ -*----------------------------------*\
  =========                 |
  \\      /  F ield         | OpenFOAM: The Open Source CFD Toolbox
   \\    /   O peration     | Website:  https://openfoam.org
    \\  /    A nd           | Version:  9
     \\/     M anipulation  |
\*---------------------------------------------------------------------------*/
FoamFile
{
    format      ascii;
    class       volScalarField;
    location    "16750";
    object      Sb;
}
// * * * * * * * * * * * * * * * * * * * * * * * * * * * * * * * * * * * * * //

dimensions      [0 0 0 0 0 0 0];

internalField   nonuniform List<scalar> 
1000
(
0.350311
0.351021
0.351859
0.352819
0.353603
0.354608
0.355389
0.356408
0.357236
0.35821
0.359079
0.359974
0.360809
0.361612
0.36234
0.363016
0.363603
0.36413
0.364592
0.365082
0.365965
0.368757
0.379929
0.453828
0.618068
0.654652
0.664714
0.66928
0.672043
0.674002
0.67551
0.67673
0.677742
0.678599
0.679326
0.679951
0.680485
0.680944
0.681335
0.681671
0.681954
0.682195
0.682392
0.682558
0.682686
0.682788
0.682858
0.682902
0.682919
0.68291
0.682874
0.68281
0.682717
0.682595
0.682444
0.68226
0.682043
0.681788
0.68149
0.681138
0.68072
0.680215
0.679597
0.678839
0.677921
0.676848
0.675657
0.674395
0.673089
0.671757
0.670408
0.669052
0.667694
0.666338
0.664985
0.663639
0.662299
0.660968
0.659644
0.658329
0.657021
0.65572
0.654425
0.653138
0.65186
0.65059
0.649329
0.648079
0.646839
0.64561
0.644391
0.643184
0.641989
0.640806
0.639635
0.638478
0.637335
0.636204
0.635086
0.633981
0.632887
0.631803
0.630728
0.629662
0.628603
0.62755
0.626503
0.625462
0.624426
0.623395
0.622369
0.621348
0.620333
0.619323
0.618319
0.617322
0.61633
0.615346
0.614367
0.613396
0.612431
0.611473
0.610521
0.609576
0.608638
0.607705
0.606779
0.605859
0.604945
0.604037
0.603135
0.602238
0.601347
0.600461
0.599581
0.598705
0.597835
0.59697
0.59611
0.595255
0.594405
0.59356
0.592719
0.591883
0.591052
0.590225
0.589403
0.588585
0.587772
0.586963
0.586158
0.585358
0.584562
0.583769
0.582981
0.582197
0.581417
0.580641
0.579869
0.579101
0.578336
0.577575
0.576818
0.576065
0.575315
0.574569
0.573826
0.573087
0.572352
0.571619
0.570891
0.570165
0.569443
0.568724
0.568008
0.567296
0.566587
0.56588
0.565177
0.564477
0.563781
0.563087
0.562396
0.561708
0.561023
0.560341
0.559662
0.558986
0.558313
0.557642
0.556974
0.556309
0.555647
0.554987
0.55433
0.553676
0.553024
0.552375
0.551729
0.551085
0.550443
0.549804
0.549168
0.548533
0.5479
0.54727
0.546641
0.546014
0.545389
0.544765
0.544143
0.543523
0.542904
0.542287
0.541672
0.541058
0.540446
0.539836
0.539229
0.538623
0.53802
0.53742
0.536822
0.536227
0.535636
0.535047
0.534462
0.533881
0.533302
0.532727
0.532156
0.531588
0.531022
0.53046
0.5299
0.529343
0.528788
0.528236
0.527685
0.527135
0.526587
0.52604
0.525495
0.52495
0.524406
0.523863
0.523322
0.522781
0.522241
0.521702
0.521164
0.520628
0.520092
0.519558
0.519025
0.518494
0.517964
0.517435
0.516908
0.516382
0.515858
0.515336
0.514815
0.514295
0.513778
0.513261
0.512746
0.512233
0.511721
0.51121
0.510701
0.510194
0.509687
0.509183
0.508679
0.508177
0.507676
0.507176
0.506678
0.506181
0.505685
0.50519
0.504697
0.504205
0.503714
0.503224
0.502735
0.502248
0.501762
0.501276
0.500792
0.500309
0.499828
0.499347
0.498867
0.498389
0.497911
0.497435
0.496959
0.496485
0.496011
0.495539
0.495068
0.494597
0.494128
0.49366
0.493192
0.492726
0.492261
0.491796
0.491333
0.49087
0.490408
0.489948
0.489488
0.489029
0.488571
0.488114
0.487658
0.487202
0.486748
0.486294
0.485842
0.48539
0.484939
0.484489
0.484039
0.483591
0.483143
0.482697
0.482251
0.481806
0.481361
0.480918
0.480475
0.480033
0.479592
0.479151
0.478712
0.478273
0.477835
0.477398
0.476961
0.476525
0.47609
0.475656
0.475222
0.474789
0.474356
0.473925
0.473493
0.473063
0.472633
0.472203
0.471774
0.471345
0.470917
0.470489
0.470062
0.469634
0.469208
0.468781
0.468356
0.46793
0.467505
0.46708
0.466656
0.466232
0.465809
0.465387
0.464965
0.464543
0.464123
0.463703
0.463285
0.462867
0.46245
0.462034
0.46162
0.461206
0.460794
0.460382
0.459972
0.459563
0.459155
0.458749
0.458343
0.457938
0.457534
0.457132
0.456729
0.456328
0.455927
0.455527
0.455127
0.454728
0.454329
0.45393
0.453532
0.453134
0.452736
0.452338
0.45194
0.451543
0.451145
0.450748
0.450351
0.449954
0.449557
0.44916
0.448764
0.448368
0.447972
0.447576
0.44718
0.446785
0.44639
0.445996
0.445601
0.445207
0.444814
0.444421
0.444028
0.443635
0.443243
0.442851
0.44246
0.442069
0.441678
0.441287
0.440897
0.440507
0.440118
0.439728
0.439339
0.438951
0.438562
0.438174
0.437786
0.437399
0.437011
0.436624
0.436237
0.43585
0.435464
0.435078
0.434692
0.434306
0.43392
0.433534
0.433149
0.432764
0.432379
0.431994
0.431609
0.431225
0.430841
0.430456
0.430072
0.429688
0.429304
0.428921
0.428537
0.428154
0.42777
0.427387
0.427004
0.426621
0.426238
0.425855
0.425472
0.425089
0.424706
0.424324
0.423941
0.423558
0.423176
0.422793
0.422411
0.422029
0.421646
0.421264
0.420881
0.420499
0.420117
0.419734
0.419352
0.41897
0.418587
0.418205
0.417823
0.41744
0.417058
0.416675
0.416293
0.41591
0.415527
0.415145
0.414762
0.414379
0.413996
0.413613
0.41323
0.412847
0.412464
0.41208
0.411697
0.411313
0.410929
0.410545
0.410161
0.409777
0.409392
0.409008
0.408623
0.408238
0.407852
0.407467
0.407081
0.406695
0.406308
0.405922
0.405535
0.405147
0.40476
0.404372
0.403983
0.403595
0.403205
0.402816
0.402426
0.402036
0.401645
0.401254
0.400862
0.400471
0.400079
0.399686
0.399293
0.3989
0.398507
0.398113
0.397719
0.397324
0.39693
0.396535
0.39614
0.395744
0.395349
0.394953
0.394557
0.394161
0.393765
0.393368
0.392971
0.392574
0.392177
0.39178
0.391382
0.390984
0.390586
0.390187
0.389788
0.389388
0.388988
0.388588
0.388187
0.387785
0.387383
0.38698
0.386576
0.386172
0.385767
0.385361
0.384954
0.384547
0.384138
0.383729
0.383319
0.382908
0.382496
0.382083
0.381669
0.381254
0.380838
0.380421
0.380003
0.379585
0.379165
0.378744
0.378322
0.377899
0.377475
0.37705
0.376624
0.376197
0.375769
0.37534
0.37491
0.374479
0.374046
0.373613
0.373179
0.372743
0.372306
0.371869
0.37143
0.37099
0.370549
0.370107
0.369663
0.369219
0.368774
0.368328
0.36788
0.367432
0.366983
0.366534
0.366083
0.365633
0.365181
0.36473
0.364278
0.363826
0.363375
0.362925
0.362476
0.362028
0.361582
0.361139
0.360699
0.360264
0.359832
0.359407
0.358989
0.358578
0.358177
0.357787
0.357408
0.357042
0.35669
0.356355
0.356036
0.355736
0.355455
0.355193
0.354952
0.354731
0.35453
0.35435
0.35419
0.354048
0.353924
0.353816
0.353723
0.353644
0.353576
0.353519
0.353468
0.353421
0.353373
0.353318
0.353242
0.353123
0.352926
0.352583
0.351978
0.350913
0.349051
0.345854
0.340555
0.33226
0.320379
0.305382
0.289265
0.27478
0.263818
0.256617
0.252343
0.249963
0.248686
0.248015
0.247667
0.247486
0.247393
0.247346
0.247321
0.247308
0.247302
0.247298
0.247296
0.247296
0.247295
0.247295
0.247294
0.247294
0.247294
0.247294
0.247294
0.247294
0.247294
0.247293
0.247293
0.247293
0.247293
0.247293
0.247292
0.247292
0.247292
0.247291
0.247291
0.247291
0.24729
0.24729
0.247289
0.247289
0.247288
0.247288
0.247287
0.247286
0.247286
0.247285
0.247284
0.247283
0.247283
0.247282
0.247281
0.24728
0.247279
0.247279
0.247278
0.247277
0.247276
0.247275
0.247275
0.247274
0.247273
0.247272
0.247272
0.247271
0.24727
0.24727
0.247269
0.247268
0.247268
0.247268
0.247267
0.247267
0.247267
0.247266
0.247266
0.247266
0.247266
0.247266
0.247266
0.247266
0.247266
0.247266
0.247266
0.247267
0.247267
0.247267
0.247268
0.247268
0.247268
0.247269
0.247269
0.24727
0.24727
0.247271
0.247271
0.247271
0.247272
0.247272
0.247273
0.247273
0.247273
0.247274
0.247274
0.247275
0.247275
0.247275
0.247276
0.247276
0.247276
0.247276
0.247277
0.247277
0.247277
0.247277
0.247278
0.247278
0.247278
0.247278
0.247278
0.247279
0.247279
0.247279
0.247279
0.247279
0.24728
0.24728
0.24728
0.24728
0.24728
0.24728
0.247281
0.247281
0.247281
0.247281
0.247281
0.247282
0.247282
0.247282
0.247282
0.247282
0.247282
0.247283
0.247283
0.247283
0.247283
0.247283
0.247283
0.247284
0.247284
0.247284
0.247284
0.247284
0.247284
0.247284
0.247285
0.247285
0.247285
0.247285
0.247285
0.247285
0.247285
0.247285
0.247286
0.247286
0.247286
0.247286
0.247286
0.247286
0.247286
0.247286
0.247286
0.247286
0.247286
0.247286
0.247286
0.247286
0.247287
0.247287
0.247287
0.247287
0.247287
0.247287
0.247287
0.247287
0.247287
0.247287
0.247287
0.247287
0.247287
0.247287
0.247287
0.247287
0.247287
0.247287
0.247287
0.247286
0.247286
0.247286
0.247286
0.247286
0.247286
0.247286
0.247286
0.247286
0.247286
0.247286
0.247285
0.247285
0.247285
0.247285
0.247285
0.247285
0.247285
0.247285
0.247285
0.247285
0.247285
0.247285
0.247285
0.247286
0.247286
0.247286
0.247286
0.247286
0.247286
0.247286
0.247286
0.247286
0.247286
0.247286
0.247285
0.247285
0.247285
0.247285
0.247285
0.247285
0.247284
0.247284
0.247284
0.247284
0.247283
0.247283
0.247283
0.247282
0.247282
0.247281
0.247281
0.247281
0.24728
0.24728
0.247279
0.247279
0.247278
0.247278
0.247277
0.247276
0.247276
0.247275
0.247275
0.247274
0.247274
0.247273
0.247273
0.247272
0.247272
0.247271
0.247271
0.24727
0.24727
0.24727
0.247269
0.247269
0.247268
0.247268
0.247268
0.247268
0.247267
0.247267
0.247267
0.247267
0.247267
0.247267
0.247267
0.247267
0.247267
0.247267
0.247268
0.247268
0.247268
0.247268
0.247269
0.247269
0.247269
0.24727
0.24727
0.24727
0.247271
0.247271
0.247272
0.247272
0.247273
0.247273
0.247273
0.247274
0.247274
0.247275
0.247275
0.247275
0.247276
0.247276
0.247277
0.247277
0.247277
0.247278
0.247278
0.247278
0.247279
0.247279
0.247279
0.247279
0.247279
0.24728
0.24728
0.24728
)
;

boundaryField
{
    inlet
    {
        type            fixedValue;
        value           uniform 0.35;
    }
    outlet
    {
        type            zeroGradient;
    }
    emptyWalls
    {
        type            empty;
    }
}


// ************************************************************************* //
