/*--------------------------------*- C++ -*----------------------------------*\
  =========                 |
  \\      /  F ield         | OpenFOAM: The Open Source CFD Toolbox
   \\    /   O peration     | Website:  https://openfoam.org
    \\  /    A nd           | Version:  9
     \\/     M anipulation  |
\*---------------------------------------------------------------------------*/
FoamFile
{
    format      ascii;
    class       volVectorField;
    location    "16750";
    object      Ua;
}
// * * * * * * * * * * * * * * * * * * * * * * * * * * * * * * * * * * * * * //

dimensions      [0 0 0 0 0 0 0];

internalField   nonuniform List<vector> 
1000
(
(2.74893e-06 0 0)
(2.74868e-06 0 0)
(2.74849e-06 0 0)
(2.74823e-06 0 0)
(2.7479e-06 0 0)
(2.74734e-06 0 0)
(2.74681e-06 0 0)
(2.74597e-06 0 0)
(2.74513e-06 0 0)
(2.7442e-06 0 0)
(2.74317e-06 0 0)
(2.74226e-06 0 0)
(2.74125e-06 0 0)
(2.74031e-06 0 0)
(2.73937e-06 0 0)
(2.73845e-06 0 0)
(2.73759e-06 0 0)
(2.73679e-06 0 0)
(2.73604e-06 0 0)
(2.7351e-06 0 0)
(2.733e-06 0 0)
(2.72519e-06 0 0)
(2.69179e-06 0 0)
(2.48161e-06 0 0)
(2.2336e-06 0 0)
(2.15167e-06 0 0)
(2.1274e-06 0 0)
(2.1157e-06 0 0)
(2.10806e-06 0 0)
(2.10218e-06 0 0)
(2.09729e-06 0 0)
(2.09306e-06 0 0)
(2.08927e-06 0 0)
(2.08584e-06 0 0)
(2.08273e-06 0 0)
(2.07987e-06 0 0)
(2.07722e-06 0 0)
(2.07479e-06 0 0)
(2.07253e-06 0 0)
(2.07043e-06 0 0)
(2.06849e-06 0 0)
(2.06667e-06 0 0)
(2.06498e-06 0 0)
(2.06338e-06 0 0)
(2.06189e-06 0 0)
(2.06049e-06 0 0)
(2.05918e-06 0 0)
(2.05795e-06 0 0)
(2.05678e-06 0 0)
(2.05566e-06 0 0)
(2.0546e-06 0 0)
(2.05359e-06 0 0)
(2.05266e-06 0 0)
(2.05181e-06 0 0)
(2.05103e-06 0 0)
(2.05033e-06 0 0)
(2.04969e-06 0 0)
(2.04912e-06 0 0)
(2.0486e-06 0 0)
(2.04811e-06 0 0)
(2.04765e-06 0 0)
(2.04723e-06 0 0)
(2.04684e-06 0 0)
(2.04653e-06 0 0)
(2.04632e-06 0 0)
(2.04622e-06 0 0)
(2.04621e-06 0 0)
(2.04625e-06 0 0)
(2.04634e-06 0 0)
(2.04646e-06 0 0)
(2.04659e-06 0 0)
(2.0467e-06 0 0)
(2.04677e-06 0 0)
(2.0468e-06 0 0)
(2.04681e-06 0 0)
(2.04679e-06 0 0)
(2.04676e-06 0 0)
(2.04677e-06 0 0)
(2.04689e-06 0 0)
(2.04726e-06 0 0)
(2.04799e-06 0 0)
(2.04917e-06 0 0)
(2.05083e-06 0 0)
(2.05293e-06 0 0)
(2.05537e-06 0 0)
(2.05803e-06 0 0)
(2.06081e-06 0 0)
(2.06361e-06 0 0)
(2.06635e-06 0 0)
(2.06899e-06 0 0)
(2.07144e-06 0 0)
(2.07363e-06 0 0)
(2.07546e-06 0 0)
(2.07684e-06 0 0)
(2.07765e-06 0 0)
(2.0778e-06 0 0)
(2.07726e-06 0 0)
(2.07601e-06 0 0)
(2.0741e-06 0 0)
(2.0716e-06 0 0)
(2.06863e-06 0 0)
(2.06534e-06 0 0)
(2.06188e-06 0 0)
(2.0584e-06 0 0)
(2.05503e-06 0 0)
(2.0519e-06 0 0)
(2.04908e-06 0 0)
(2.04663e-06 0 0)
(2.04458e-06 0 0)
(2.04293e-06 0 0)
(2.04167e-06 0 0)
(2.04075e-06 0 0)
(2.04013e-06 0 0)
(2.03976e-06 0 0)
(2.03957e-06 0 0)
(2.03951e-06 0 0)
(2.03954e-06 0 0)
(2.03961e-06 0 0)
(2.03968e-06 0 0)
(2.03973e-06 0 0)
(2.03973e-06 0 0)
(2.03968e-06 0 0)
(2.03956e-06 0 0)
(2.03938e-06 0 0)
(2.03914e-06 0 0)
(2.03883e-06 0 0)
(2.03847e-06 0 0)
(2.03806e-06 0 0)
(2.03762e-06 0 0)
(2.03714e-06 0 0)
(2.03663e-06 0 0)
(2.03611e-06 0 0)
(2.03558e-06 0 0)
(2.03503e-06 0 0)
(2.03448e-06 0 0)
(2.03392e-06 0 0)
(2.03337e-06 0 0)
(2.03281e-06 0 0)
(2.03226e-06 0 0)
(2.03172e-06 0 0)
(2.03118e-06 0 0)
(2.03064e-06 0 0)
(2.03012e-06 0 0)
(2.0296e-06 0 0)
(2.02909e-06 0 0)
(2.02859e-06 0 0)
(2.0281e-06 0 0)
(2.02761e-06 0 0)
(2.02714e-06 0 0)
(2.02668e-06 0 0)
(2.02622e-06 0 0)
(2.02578e-06 0 0)
(2.02534e-06 0 0)
(2.02492e-06 0 0)
(2.0245e-06 0 0)
(2.0241e-06 0 0)
(2.02371e-06 0 0)
(2.02332e-06 0 0)
(2.02295e-06 0 0)
(2.02259e-06 0 0)
(2.02224e-06 0 0)
(2.0219e-06 0 0)
(2.02157e-06 0 0)
(2.02125e-06 0 0)
(2.02094e-06 0 0)
(2.02064e-06 0 0)
(2.02036e-06 0 0)
(2.02008e-06 0 0)
(2.01982e-06 0 0)
(2.01957e-06 0 0)
(2.01933e-06 0 0)
(2.01911e-06 0 0)
(2.0189e-06 0 0)
(2.0187e-06 0 0)
(2.01852e-06 0 0)
(2.01835e-06 0 0)
(2.01819e-06 0 0)
(2.01805e-06 0 0)
(2.01791e-06 0 0)
(2.01778e-06 0 0)
(2.01766e-06 0 0)
(2.01754e-06 0 0)
(2.01742e-06 0 0)
(2.01731e-06 0 0)
(2.0172e-06 0 0)
(2.01709e-06 0 0)
(2.01699e-06 0 0)
(2.0169e-06 0 0)
(2.01681e-06 0 0)
(2.01674e-06 0 0)
(2.01667e-06 0 0)
(2.01661e-06 0 0)
(2.01656e-06 0 0)
(2.01651e-06 0 0)
(2.01647e-06 0 0)
(2.01642e-06 0 0)
(2.01637e-06 0 0)
(2.01632e-06 0 0)
(2.01626e-06 0 0)
(2.01621e-06 0 0)
(2.01618e-06 0 0)
(2.01617e-06 0 0)
(2.0162e-06 0 0)
(2.01629e-06 0 0)
(2.01646e-06 0 0)
(2.01672e-06 0 0)
(2.01708e-06 0 0)
(2.01757e-06 0 0)
(2.0182e-06 0 0)
(2.01896e-06 0 0)
(2.01987e-06 0 0)
(2.02092e-06 0 0)
(2.02211e-06 0 0)
(2.02343e-06 0 0)
(2.02486e-06 0 0)
(2.02638e-06 0 0)
(2.02797e-06 0 0)
(2.0296e-06 0 0)
(2.03124e-06 0 0)
(2.03285e-06 0 0)
(2.0344e-06 0 0)
(2.03585e-06 0 0)
(2.03715e-06 0 0)
(2.03828e-06 0 0)
(2.0392e-06 0 0)
(2.03986e-06 0 0)
(2.04025e-06 0 0)
(2.04035e-06 0 0)
(2.04015e-06 0 0)
(2.03964e-06 0 0)
(2.03883e-06 0 0)
(2.03774e-06 0 0)
(2.03639e-06 0 0)
(2.03481e-06 0 0)
(2.03305e-06 0 0)
(2.03114e-06 0 0)
(2.02914e-06 0 0)
(2.02709e-06 0 0)
(2.02503e-06 0 0)
(2.023e-06 0 0)
(2.02104e-06 0 0)
(2.01917e-06 0 0)
(2.01743e-06 0 0)
(2.01583e-06 0 0)
(2.01438e-06 0 0)
(2.01308e-06 0 0)
(2.01193e-06 0 0)
(2.01093e-06 0 0)
(2.01007e-06 0 0)
(2.00934e-06 0 0)
(2.00871e-06 0 0)
(2.00819e-06 0 0)
(2.00774e-06 0 0)
(2.00736e-06 0 0)
(2.00703e-06 0 0)
(2.00674e-06 0 0)
(2.00647e-06 0 0)
(2.00622e-06 0 0)
(2.00597e-06 0 0)
(2.00572e-06 0 0)
(2.00546e-06 0 0)
(2.00518e-06 0 0)
(2.00489e-06 0 0)
(2.00457e-06 0 0)
(2.00424e-06 0 0)
(2.00388e-06 0 0)
(2.0035e-06 0 0)
(2.0031e-06 0 0)
(2.00269e-06 0 0)
(2.00225e-06 0 0)
(2.0018e-06 0 0)
(2.00134e-06 0 0)
(2.00086e-06 0 0)
(2.00038e-06 0 0)
(1.99989e-06 0 0)
(1.99939e-06 0 0)
(1.99889e-06 0 0)
(1.99839e-06 0 0)
(1.99788e-06 0 0)
(1.99738e-06 0 0)
(1.99687e-06 0 0)
(1.99637e-06 0 0)
(1.99588e-06 0 0)
(1.99538e-06 0 0)
(1.9949e-06 0 0)
(1.99441e-06 0 0)
(1.99393e-06 0 0)
(1.99346e-06 0 0)
(1.993e-06 0 0)
(1.99254e-06 0 0)
(1.99209e-06 0 0)
(1.99165e-06 0 0)
(1.99121e-06 0 0)
(1.99078e-06 0 0)
(1.99036e-06 0 0)
(1.98995e-06 0 0)
(1.98955e-06 0 0)
(1.98915e-06 0 0)
(1.98876e-06 0 0)
(1.98838e-06 0 0)
(1.98801e-06 0 0)
(1.98765e-06 0 0)
(1.9873e-06 0 0)
(1.98696e-06 0 0)
(1.98662e-06 0 0)
(1.98629e-06 0 0)
(1.98597e-06 0 0)
(1.98567e-06 0 0)
(1.98537e-06 0 0)
(1.98508e-06 0 0)
(1.98479e-06 0 0)
(1.98452e-06 0 0)
(1.98426e-06 0 0)
(1.984e-06 0 0)
(1.98376e-06 0 0)
(1.98352e-06 0 0)
(1.9833e-06 0 0)
(1.98308e-06 0 0)
(1.98287e-06 0 0)
(1.98267e-06 0 0)
(1.98247e-06 0 0)
(1.98229e-06 0 0)
(1.98211e-06 0 0)
(1.98194e-06 0 0)
(1.98177e-06 0 0)
(1.98161e-06 0 0)
(1.98145e-06 0 0)
(1.9813e-06 0 0)
(1.98116e-06 0 0)
(1.98102e-06 0 0)
(1.98088e-06 0 0)
(1.98075e-06 0 0)
(1.98062e-06 0 0)
(1.9805e-06 0 0)
(1.98038e-06 0 0)
(1.98027e-06 0 0)
(1.98016e-06 0 0)
(1.98005e-06 0 0)
(1.97994e-06 0 0)
(1.97984e-06 0 0)
(1.97975e-06 0 0)
(1.97965e-06 0 0)
(1.97956e-06 0 0)
(1.97948e-06 0 0)
(1.9794e-06 0 0)
(1.97933e-06 0 0)
(1.97928e-06 0 0)
(1.97924e-06 0 0)
(1.97922e-06 0 0)
(1.97923e-06 0 0)
(1.97927e-06 0 0)
(1.97935e-06 0 0)
(1.97946e-06 0 0)
(1.97963e-06 0 0)
(1.97985e-06 0 0)
(1.98012e-06 0 0)
(1.98046e-06 0 0)
(1.98087e-06 0 0)
(1.98135e-06 0 0)
(1.9819e-06 0 0)
(1.98252e-06 0 0)
(1.98321e-06 0 0)
(1.98396e-06 0 0)
(1.98479e-06 0 0)
(1.98566e-06 0 0)
(1.98659e-06 0 0)
(1.98756e-06 0 0)
(1.98857e-06 0 0)
(1.98958e-06 0 0)
(1.99061e-06 0 0)
(1.99162e-06 0 0)
(1.99261e-06 0 0)
(1.99356e-06 0 0)
(1.99444e-06 0 0)
(1.99526e-06 0 0)
(1.99598e-06 0 0)
(1.9966e-06 0 0)
(1.99709e-06 0 0)
(1.99745e-06 0 0)
(1.99767e-06 0 0)
(1.99773e-06 0 0)
(1.99764e-06 0 0)
(1.99738e-06 0 0)
(1.99696e-06 0 0)
(1.99638e-06 0 0)
(1.99565e-06 0 0)
(1.99478e-06 0 0)
(1.99377e-06 0 0)
(1.99265e-06 0 0)
(1.99142e-06 0 0)
(1.99011e-06 0 0)
(1.98873e-06 0 0)
(1.98731e-06 0 0)
(1.98586e-06 0 0)
(1.9844e-06 0 0)
(1.98295e-06 0 0)
(1.98152e-06 0 0)
(1.98013e-06 0 0)
(1.97878e-06 0 0)
(1.9775e-06 0 0)
(1.97627e-06 0 0)
(1.97513e-06 0 0)
(1.97405e-06 0 0)
(1.97305e-06 0 0)
(1.97213e-06 0 0)
(1.97128e-06 0 0)
(1.9705e-06 0 0)
(1.96978e-06 0 0)
(1.96913e-06 0 0)
(1.96853e-06 0 0)
(1.96799e-06 0 0)
(1.96748e-06 0 0)
(1.96702e-06 0 0)
(1.96658e-06 0 0)
(1.96617e-06 0 0)
(1.96579e-06 0 0)
(1.96541e-06 0 0)
(1.96505e-06 0 0)
(1.9647e-06 0 0)
(1.96435e-06 0 0)
(1.96399e-06 0 0)
(1.96364e-06 0 0)
(1.96328e-06 0 0)
(1.96292e-06 0 0)
(1.96255e-06 0 0)
(1.96217e-06 0 0)
(1.96178e-06 0 0)
(1.96138e-06 0 0)
(1.96098e-06 0 0)
(1.96056e-06 0 0)
(1.96014e-06 0 0)
(1.95971e-06 0 0)
(1.95927e-06 0 0)
(1.95883e-06 0 0)
(1.95838e-06 0 0)
(1.95793e-06 0 0)
(1.95747e-06 0 0)
(1.95701e-06 0 0)
(1.95655e-06 0 0)
(1.95609e-06 0 0)
(1.95563e-06 0 0)
(1.95516e-06 0 0)
(1.9547e-06 0 0)
(1.95424e-06 0 0)
(1.95378e-06 0 0)
(1.95333e-06 0 0)
(1.95287e-06 0 0)
(1.95242e-06 0 0)
(1.95198e-06 0 0)
(1.95153e-06 0 0)
(1.9511e-06 0 0)
(1.95066e-06 0 0)
(1.95024e-06 0 0)
(1.94981e-06 0 0)
(1.9494e-06 0 0)
(1.94898e-06 0 0)
(1.94858e-06 0 0)
(1.94818e-06 0 0)
(1.94778e-06 0 0)
(1.94739e-06 0 0)
(1.94701e-06 0 0)
(1.94664e-06 0 0)
(1.94627e-06 0 0)
(1.9459e-06 0 0)
(1.94554e-06 0 0)
(1.94519e-06 0 0)
(1.94485e-06 0 0)
(1.94451e-06 0 0)
(1.94418e-06 0 0)
(1.94386e-06 0 0)
(1.94354e-06 0 0)
(1.94323e-06 0 0)
(1.94292e-06 0 0)
(1.94262e-06 0 0)
(1.94233e-06 0 0)
(1.94204e-06 0 0)
(1.94176e-06 0 0)
(1.94149e-06 0 0)
(1.94122e-06 0 0)
(1.94096e-06 0 0)
(1.94071e-06 0 0)
(1.94046e-06 0 0)
(1.94022e-06 0 0)
(1.93998e-06 0 0)
(1.93975e-06 0 0)
(1.93952e-06 0 0)
(1.9393e-06 0 0)
(1.93908e-06 0 0)
(1.93887e-06 0 0)
(1.93866e-06 0 0)
(1.93846e-06 0 0)
(1.93826e-06 0 0)
(1.93807e-06 0 0)
(1.93787e-06 0 0)
(1.93769e-06 0 0)
(1.9375e-06 0 0)
(1.93732e-06 0 0)
(1.93714e-06 0 0)
(1.93697e-06 0 0)
(1.9368e-06 0 0)
(1.93663e-06 0 0)
(1.93646e-06 0 0)
(1.9363e-06 0 0)
(1.93614e-06 0 0)
(1.93599e-06 0 0)
(1.93584e-06 0 0)
(1.9357e-06 0 0)
(1.93556e-06 0 0)
(1.93543e-06 0 0)
(1.9353e-06 0 0)
(1.93519e-06 0 0)
(1.93508e-06 0 0)
(1.93499e-06 0 0)
(1.93491e-06 0 0)
(1.93485e-06 0 0)
(1.93481e-06 0 0)
(1.93479e-06 0 0)
(1.93479e-06 0 0)
(1.93482e-06 0 0)
(1.93488e-06 0 0)
(1.93496e-06 0 0)
(1.93508e-06 0 0)
(1.93524e-06 0 0)
(1.93543e-06 0 0)
(1.93567e-06 0 0)
(1.93594e-06 0 0)
(1.93625e-06 0 0)
(1.9366e-06 0 0)
(1.937e-06 0 0)
(1.93743e-06 0 0)
(1.93791e-06 0 0)
(1.93842e-06 0 0)
(1.93896e-06 0 0)
(1.93954e-06 0 0)
(1.94014e-06 0 0)
(1.94076e-06 0 0)
(1.94141e-06 0 0)
(1.94206e-06 0 0)
(1.94272e-06 0 0)
(1.94337e-06 0 0)
(1.94402e-06 0 0)
(1.94465e-06 0 0)
(1.94526e-06 0 0)
(1.94584e-06 0 0)
(1.94637e-06 0 0)
(1.94686e-06 0 0)
(1.94729e-06 0 0)
(1.94766e-06 0 0)
(1.94796e-06 0 0)
(1.94818e-06 0 0)
(1.94832e-06 0 0)
(1.94837e-06 0 0)
(1.94833e-06 0 0)
(1.9482e-06 0 0)
(1.94797e-06 0 0)
(1.94764e-06 0 0)
(1.94722e-06 0 0)
(1.94671e-06 0 0)
(1.9461e-06 0 0)
(1.94541e-06 0 0)
(1.94464e-06 0 0)
(1.94379e-06 0 0)
(1.94288e-06 0 0)
(1.94191e-06 0 0)
(1.94088e-06 0 0)
(1.93982e-06 0 0)
(1.93872e-06 0 0)
(1.9376e-06 0 0)
(1.93646e-06 0 0)
(1.93532e-06 0 0)
(1.93418e-06 0 0)
(1.93304e-06 0 0)
(1.93193e-06 0 0)
(1.93083e-06 0 0)
(1.92977e-06 0 0)
(1.92873e-06 0 0)
(1.92774e-06 0 0)
(1.92678e-06 0 0)
(1.92586e-06 0 0)
(1.92498e-06 0 0)
(1.92414e-06 0 0)
(1.92335e-06 0 0)
(1.92259e-06 0 0)
(1.92187e-06 0 0)
(1.9212e-06 0 0)
(1.92055e-06 0 0)
(1.91994e-06 0 0)
(1.91936e-06 0 0)
(1.9188e-06 0 0)
(1.91827e-06 0 0)
(1.91777e-06 0 0)
(1.91728e-06 0 0)
(1.9168e-06 0 0)
(1.91634e-06 0 0)
(1.91589e-06 0 0)
(1.91545e-06 0 0)
(1.91502e-06 0 0)
(1.91459e-06 0 0)
(1.91416e-06 0 0)
(1.91373e-06 0 0)
(1.91331e-06 0 0)
(1.91288e-06 0 0)
(1.91245e-06 0 0)
(1.91202e-06 0 0)
(1.91159e-06 0 0)
(1.91115e-06 0 0)
(1.91071e-06 0 0)
(1.91026e-06 0 0)
(1.90981e-06 0 0)
(1.90935e-06 0 0)
(1.90889e-06 0 0)
(1.90843e-06 0 0)
(1.90796e-06 0 0)
(1.90749e-06 0 0)
(1.90702e-06 0 0)
(1.90654e-06 0 0)
(1.90606e-06 0 0)
(1.90558e-06 0 0)
(1.9051e-06 0 0)
(1.90462e-06 0 0)
(1.90414e-06 0 0)
(1.90365e-06 0 0)
(1.90317e-06 0 0)
(1.90269e-06 0 0)
(1.90221e-06 0 0)
(1.90174e-06 0 0)
(1.90126e-06 0 0)
(1.90079e-06 0 0)
(1.90033e-06 0 0)
(1.89987e-06 0 0)
(1.89941e-06 0 0)
(1.89896e-06 0 0)
(1.89852e-06 0 0)
(1.89809e-06 0 0)
(1.89767e-06 0 0)
(1.89725e-06 0 0)
(1.89685e-06 0 0)
(1.89646e-06 0 0)
(1.89608e-06 0 0)
(1.89571e-06 0 0)
(1.89536e-06 0 0)
(1.89503e-06 0 0)
(1.89471e-06 0 0)
(1.89441e-06 0 0)
(1.89413e-06 0 0)
(1.89386e-06 0 0)
(1.89362e-06 0 0)
(1.89339e-06 0 0)
(1.89319e-06 0 0)
(1.893e-06 0 0)
(1.89283e-06 0 0)
(1.89268e-06 0 0)
(1.89255e-06 0 0)
(1.89243e-06 0 0)
(1.89233e-06 0 0)
(1.89224e-06 0 0)
(1.89217e-06 0 0)
(1.8921e-06 0 0)
(1.89205e-06 0 0)
(1.89201e-06 0 0)
(1.89196e-06 0 0)
(1.89192e-06 0 0)
(1.89187e-06 0 0)
(1.89179e-06 0 0)
(1.89166e-06 0 0)
(1.89142e-06 0 0)
(1.891e-06 0 0)
(1.89025e-06 0 0)
(1.88895e-06 0 0)
(1.88675e-06 0 0)
(1.88324e-06 0 0)
(1.87808e-06 0 0)
(1.87141e-06 0 0)
(1.86421e-06 0 0)
(1.85792e-06 0 0)
(1.85355e-06 0 0)
(1.85106e-06 0 0)
(1.84983e-06 0 0)
(1.84928e-06 0 0)
(1.84905e-06 0 0)
(1.84898e-06 0 0)
(1.84898e-06 0 0)
(1.84902e-06 0 0)
(1.84909e-06 0 0)
(1.84916e-06 0 0)
(1.84924e-06 0 0)
(1.84933e-06 0 0)
(1.84943e-06 0 0)
(1.84953e-06 0 0)
(1.84963e-06 0 0)
(1.84974e-06 0 0)
(1.84986e-06 0 0)
(1.84998e-06 0 0)
(1.8501e-06 0 0)
(1.85024e-06 0 0)
(1.85038e-06 0 0)
(1.85053e-06 0 0)
(1.85069e-06 0 0)
(1.85086e-06 0 0)
(1.85104e-06 0 0)
(1.85123e-06 0 0)
(1.85144e-06 0 0)
(1.85166e-06 0 0)
(1.85189e-06 0 0)
(1.85214e-06 0 0)
(1.85241e-06 0 0)
(1.8527e-06 0 0)
(1.853e-06 0 0)
(1.85332e-06 0 0)
(1.85367e-06 0 0)
(1.85403e-06 0 0)
(1.85442e-06 0 0)
(1.85483e-06 0 0)
(1.85526e-06 0 0)
(1.85571e-06 0 0)
(1.85619e-06 0 0)
(1.85669e-06 0 0)
(1.85722e-06 0 0)
(1.85777e-06 0 0)
(1.85834e-06 0 0)
(1.85893e-06 0 0)
(1.85955e-06 0 0)
(1.86018e-06 0 0)
(1.86083e-06 0 0)
(1.86149e-06 0 0)
(1.86217e-06 0 0)
(1.86285e-06 0 0)
(1.86355e-06 0 0)
(1.86425e-06 0 0)
(1.86495e-06 0 0)
(1.86565e-06 0 0)
(1.86635e-06 0 0)
(1.86704e-06 0 0)
(1.86772e-06 0 0)
(1.86838e-06 0 0)
(1.86903e-06 0 0)
(1.86965e-06 0 0)
(1.87024e-06 0 0)
(1.87081e-06 0 0)
(1.87134e-06 0 0)
(1.87184e-06 0 0)
(1.87229e-06 0 0)
(1.8727e-06 0 0)
(1.87306e-06 0 0)
(1.87337e-06 0 0)
(1.87363e-06 0 0)
(1.87382e-06 0 0)
(1.87396e-06 0 0)
(1.87404e-06 0 0)
(1.87408e-06 0 0)
(1.87408e-06 0 0)
(1.87407e-06 0 0)
(1.87398e-06 0 0)
(1.87379e-06 0 0)
(1.87354e-06 0 0)
(1.87323e-06 0 0)
(1.87288e-06 0 0)
(1.87249e-06 0 0)
(1.87205e-06 0 0)
(1.87158e-06 0 0)
(1.87107e-06 0 0)
(1.87053e-06 0 0)
(1.86997e-06 0 0)
(1.86938e-06 0 0)
(1.86878e-06 0 0)
(1.86816e-06 0 0)
(1.86754e-06 0 0)
(1.86691e-06 0 0)
(1.86628e-06 0 0)
(1.86565e-06 0 0)
(1.86503e-06 0 0)
(1.86442e-06 0 0)
(1.86382e-06 0 0)
(1.86324e-06 0 0)
(1.86267e-06 0 0)
(1.86213e-06 0 0)
(1.8616e-06 0 0)
(1.8611e-06 0 0)
(1.86062e-06 0 0)
(1.86016e-06 0 0)
(1.85973e-06 0 0)
(1.85932e-06 0 0)
(1.85894e-06 0 0)
(1.85858e-06 0 0)
(1.85824e-06 0 0)
(1.85792e-06 0 0)
(1.85762e-06 0 0)
(1.85734e-06 0 0)
(1.85708e-06 0 0)
(1.85684e-06 0 0)
(1.85661e-06 0 0)
(1.8564e-06 0 0)
(1.8562e-06 0 0)
(1.85601e-06 0 0)
(1.85583e-06 0 0)
(1.85566e-06 0 0)
(1.8555e-06 0 0)
(1.85535e-06 0 0)
(1.8552e-06 0 0)
(1.85505e-06 0 0)
(1.85491e-06 0 0)
(1.85477e-06 0 0)
(1.85463e-06 0 0)
(1.8545e-06 0 0)
(1.85436e-06 0 0)
(1.85423e-06 0 0)
(1.85409e-06 0 0)
(1.85396e-06 0 0)
(1.85382e-06 0 0)
(1.85368e-06 0 0)
(1.85355e-06 0 0)
(1.85341e-06 0 0)
(1.85326e-06 0 0)
(1.85312e-06 0 0)
(1.85298e-06 0 0)
(1.85283e-06 0 0)
(1.85269e-06 0 0)
(1.85254e-06 0 0)
(1.85239e-06 0 0)
(1.85225e-06 0 0)
(1.8521e-06 0 0)
(1.85195e-06 0 0)
(1.8518e-06 0 0)
(1.85165e-06 0 0)
(1.8515e-06 0 0)
(1.85136e-06 0 0)
(1.85121e-06 0 0)
(1.85106e-06 0 0)
(1.85092e-06 0 0)
(1.85078e-06 0 0)
(1.85064e-06 0 0)
(1.8505e-06 0 0)
(1.85036e-06 0 0)
(1.85023e-06 0 0)
(1.8501e-06 0 0)
(1.84997e-06 0 0)
(1.84985e-06 0 0)
(1.84972e-06 0 0)
(1.84961e-06 0 0)
(1.84949e-06 0 0)
(1.84938e-06 0 0)
(1.84927e-06 0 0)
(1.84916e-06 0 0)
(1.84906e-06 0 0)
(1.84897e-06 0 0)
(1.84887e-06 0 0)
(1.84878e-06 0 0)
(1.8487e-06 0 0)
(1.84862e-06 0 0)
(1.84854e-06 0 0)
(1.84847e-06 0 0)
(1.8484e-06 0 0)
(1.84834e-06 0 0)
(1.84828e-06 0 0)
(1.84822e-06 0 0)
(1.84817e-06 0 0)
(1.84813e-06 0 0)
(1.84809e-06 0 0)
(1.84805e-06 0 0)
(1.84802e-06 0 0)
(1.84799e-06 0 0)
(1.84797e-06 0 0)
(1.84795e-06 0 0)
(1.84794e-06 0 0)
(1.84793e-06 0 0)
(1.84792e-06 0 0)
(1.84792e-06 0 0)
(1.84792e-06 0 0)
(1.84792e-06 0 0)
(1.84793e-06 0 0)
(1.84795e-06 0 0)
(1.84797e-06 0 0)
(1.848e-06 0 0)
(1.84802e-06 0 0)
(1.84806e-06 0 0)
(1.84809e-06 0 0)
(1.84813e-06 0 0)
(1.84818e-06 0 0)
(1.84822e-06 0 0)
(1.84828e-06 0 0)
(1.84833e-06 0 0)
(1.84839e-06 0 0)
(1.84845e-06 0 0)
(1.84852e-06 0 0)
(1.84859e-06 0 0)
(1.84866e-06 0 0)
(1.84874e-06 0 0)
(1.84882e-06 0 0)
(1.8489e-06 0 0)
(1.84899e-06 0 0)
(1.84909e-06 0 0)
(1.84919e-06 0 0)
(1.84929e-06 0 0)
(1.8494e-06 0 0)
(1.84951e-06 0 0)
(1.84963e-06 0 0)
(1.84976e-06 0 0)
(1.84989e-06 0 0)
(1.85003e-06 0 0)
(1.85017e-06 0 0)
(1.85033e-06 0 0)
(1.85049e-06 0 0)
(1.85067e-06 0 0)
(1.85085e-06 0 0)
(1.85104e-06 0 0)
(1.85125e-06 0 0)
(1.85146e-06 0 0)
(1.85169e-06 0 0)
(1.85193e-06 0 0)
(1.85219e-06 0 0)
(1.85246e-06 0 0)
(1.85275e-06 0 0)
(1.85305e-06 0 0)
(1.85337e-06 0 0)
(1.8537e-06 0 0)
(1.85406e-06 0 0)
(1.85443e-06 0 0)
(1.85482e-06 0 0)
(1.85523e-06 0 0)
(1.85565e-06 0 0)
(1.8561e-06 0 0)
(1.85656e-06 0 0)
(1.85704e-06 0 0)
(1.85754e-06 0 0)
(1.85806e-06 0 0)
(1.85859e-06 0 0)
(1.85914e-06 0 0)
(1.8597e-06 0 0)
(1.86027e-06 0 0)
(1.86086e-06 0 0)
(1.86146e-06 0 0)
(1.86206e-06 0 0)
(1.86267e-06 0 0)
(1.86329e-06 0 0)
(1.8639e-06 0 0)
(1.86452e-06 0 0)
(1.86513e-06 0 0)
(1.86574e-06 0 0)
(1.86634e-06 0 0)
(1.86693e-06 0 0)
(1.86751e-06 0 0)
(1.86807e-06 0 0)
(1.86861e-06 0 0)
(1.86912e-06 0 0)
(1.86962e-06 0 0)
(1.87008e-06 0 0)
(1.87052e-06 0 0)
(1.87092e-06 0 0)
(1.87128e-06 0 0)
(1.87161e-06 0 0)
(1.8719e-06 0 0)
(1.87214e-06 0 0)
(1.87234e-06 0 0)
(1.8725e-06 0 0)
(1.87261e-06 0 0)
(1.87267e-06 0 0)
(1.87269e-06 0 0)
(1.87269e-06 0 0)
(1.87267e-06 0 0)
(1.87261e-06 0 0)
(1.87248e-06 0 0)
(1.87225e-06 0 0)
(1.87199e-06 0 0)
(1.87169e-06 0 0)
(1.87135e-06 0 0)
(1.87098e-06 0 0)
(1.87058e-06 0 0)
(1.87014e-06 0 0)
(1.86968e-06 0 0)
(1.86919e-06 0 0)
(1.86869e-06 0 0)
(1.86816e-06 0 0)
(1.86762e-06 0 0)
(1.86707e-06 0 0)
(1.86652e-06 0 0)
(1.86595e-06 0 0)
(1.86539e-06 0 0)
(1.86483e-06 0 0)
(1.86428e-06 0 0)
(1.86373e-06 0 0)
(1.86319e-06 0 0)
(1.86266e-06 0 0)
(1.86214e-06 0 0)
(1.86164e-06 0 0)
(1.86116e-06 0 0)
(1.86069e-06 0 0)
(1.86024e-06 0 0)
(1.85981e-06 0 0)
(1.8594e-06 0 0)
(1.859e-06 0 0)
(1.85863e-06 0 0)
(1.85827e-06 0 0)
(1.85793e-06 0 0)
(1.85761e-06 0 0)
(1.85731e-06 0 0)
(1.85703e-06 0 0)
(1.85675e-06 0 0)
(1.8565e-06 0 0)
(1.85626e-06 0 0)
(1.85603e-06 0 0)
)
;

boundaryField
{
    inlet
    {
        type            fixedValue;
        value           uniform (2.74882e-06 0 0);
    }
    outlet
    {
        type            zeroGradient;
    }
    emptyWalls
    {
        type            empty;
    }
}


// ************************************************************************* //
