/*--------------------------------*- C++ -*----------------------------------*\
  =========                 |
  \\      /  F ield         | OpenFOAM: The Open Source CFD Toolbox
   \\    /   O peration     | Website:  https://openfoam.org
    \\  /    A nd           | Version:  9
     \\/     M anipulation  |
\*---------------------------------------------------------------------------*/
FoamFile
{
    format      ascii;
    class       volVectorField;
    location    "6800";
    object      Ua;
}
// * * * * * * * * * * * * * * * * * * * * * * * * * * * * * * * * * * * * * //

dimensions      [0 0 0 0 0 0 0];

internalField   nonuniform List<vector> 
1000
(
(2.74894e-06 0 0)
(2.74808e-06 0 0)
(2.74687e-06 0 0)
(2.74531e-06 0 0)
(2.74353e-06 0 0)
(2.74115e-06 0 0)
(2.73693e-06 0 0)
(2.7217e-06 0 0)
(2.65292e-06 0 0)
(2.40476e-06 0 0)
(2.17176e-06 0 0)
(2.11812e-06 0 0)
(2.09907e-06 0 0)
(2.08815e-06 0 0)
(2.0805e-06 0 0)
(2.07464e-06 0 0)
(2.07e-06 0 0)
(2.06624e-06 0 0)
(2.06311e-06 0 0)
(2.06037e-06 0 0)
(2.05786e-06 0 0)
(2.05539e-06 0 0)
(2.05295e-06 0 0)
(2.05074e-06 0 0)
(2.04896e-06 0 0)
(2.04795e-06 0 0)
(2.04762e-06 0 0)
(2.04749e-06 0 0)
(2.04737e-06 0 0)
(2.04732e-06 0 0)
(2.04736e-06 0 0)
(2.04755e-06 0 0)
(2.04785e-06 0 0)
(2.0482e-06 0 0)
(2.04852e-06 0 0)
(2.04878e-06 0 0)
(2.04901e-06 0 0)
(2.04935e-06 0 0)
(2.05e-06 0 0)
(2.05109e-06 0 0)
(2.05274e-06 0 0)
(2.05492e-06 0 0)
(2.05755e-06 0 0)
(2.06049e-06 0 0)
(2.0636e-06 0 0)
(2.06672e-06 0 0)
(2.06973e-06 0 0)
(2.07249e-06 0 0)
(2.0749e-06 0 0)
(2.07683e-06 0 0)
(2.07813e-06 0 0)
(2.07867e-06 0 0)
(2.07834e-06 0 0)
(2.07705e-06 0 0)
(2.07478e-06 0 0)
(2.07158e-06 0 0)
(2.06755e-06 0 0)
(2.06289e-06 0 0)
(2.05781e-06 0 0)
(2.05257e-06 0 0)
(2.04739e-06 0 0)
(2.04251e-06 0 0)
(2.0381e-06 0 0)
(2.03427e-06 0 0)
(2.0311e-06 0 0)
(2.0286e-06 0 0)
(2.02674e-06 0 0)
(2.02546e-06 0 0)
(2.02468e-06 0 0)
(2.02429e-06 0 0)
(2.02419e-06 0 0)
(2.02429e-06 0 0)
(2.02449e-06 0 0)
(2.02471e-06 0 0)
(2.0249e-06 0 0)
(2.025e-06 0 0)
(2.02498e-06 0 0)
(2.02484e-06 0 0)
(2.02455e-06 0 0)
(2.02413e-06 0 0)
(2.02358e-06 0 0)
(2.02292e-06 0 0)
(2.02217e-06 0 0)
(2.02134e-06 0 0)
(2.02044e-06 0 0)
(2.01949e-06 0 0)
(2.01851e-06 0 0)
(2.0175e-06 0 0)
(2.01648e-06 0 0)
(2.01545e-06 0 0)
(2.01442e-06 0 0)
(2.01339e-06 0 0)
(2.01236e-06 0 0)
(2.01134e-06 0 0)
(2.01033e-06 0 0)
(2.00933e-06 0 0)
(2.00834e-06 0 0)
(2.00736e-06 0 0)
(2.00638e-06 0 0)
(2.00542e-06 0 0)
(2.00447e-06 0 0)
(2.00352e-06 0 0)
(2.00258e-06 0 0)
(2.00165e-06 0 0)
(2.00073e-06 0 0)
(1.99981e-06 0 0)
(1.9989e-06 0 0)
(1.99799e-06 0 0)
(1.99709e-06 0 0)
(1.99619e-06 0 0)
(1.99529e-06 0 0)
(1.9944e-06 0 0)
(1.99351e-06 0 0)
(1.99263e-06 0 0)
(1.99175e-06 0 0)
(1.99087e-06 0 0)
(1.98999e-06 0 0)
(1.98913e-06 0 0)
(1.98826e-06 0 0)
(1.98741e-06 0 0)
(1.98657e-06 0 0)
(1.98574e-06 0 0)
(1.98492e-06 0 0)
(1.98412e-06 0 0)
(1.98333e-06 0 0)
(1.98256e-06 0 0)
(1.98182e-06 0 0)
(1.98109e-06 0 0)
(1.98038e-06 0 0)
(1.9797e-06 0 0)
(1.97904e-06 0 0)
(1.97841e-06 0 0)
(1.9778e-06 0 0)
(1.97721e-06 0 0)
(1.97665e-06 0 0)
(1.97611e-06 0 0)
(1.97559e-06 0 0)
(1.97509e-06 0 0)
(1.9746e-06 0 0)
(1.97414e-06 0 0)
(1.97369e-06 0 0)
(1.97325e-06 0 0)
(1.97283e-06 0 0)
(1.97241e-06 0 0)
(1.972e-06 0 0)
(1.9716e-06 0 0)
(1.9712e-06 0 0)
(1.97081e-06 0 0)
(1.97041e-06 0 0)
(1.97002e-06 0 0)
(1.96962e-06 0 0)
(1.96923e-06 0 0)
(1.96884e-06 0 0)
(1.96844e-06 0 0)
(1.96805e-06 0 0)
(1.96765e-06 0 0)
(1.96726e-06 0 0)
(1.96686e-06 0 0)
(1.96646e-06 0 0)
(1.96605e-06 0 0)
(1.96565e-06 0 0)
(1.96524e-06 0 0)
(1.96483e-06 0 0)
(1.96443e-06 0 0)
(1.96402e-06 0 0)
(1.96362e-06 0 0)
(1.96322e-06 0 0)
(1.96284e-06 0 0)
(1.96246e-06 0 0)
(1.96209e-06 0 0)
(1.96174e-06 0 0)
(1.96139e-06 0 0)
(1.96106e-06 0 0)
(1.96075e-06 0 0)
(1.96044e-06 0 0)
(1.96016e-06 0 0)
(1.95989e-06 0 0)
(1.95964e-06 0 0)
(1.95942e-06 0 0)
(1.95923e-06 0 0)
(1.95908e-06 0 0)
(1.95898e-06 0 0)
(1.95893e-06 0 0)
(1.95895e-06 0 0)
(1.95905e-06 0 0)
(1.95924e-06 0 0)
(1.95951e-06 0 0)
(1.95989e-06 0 0)
(1.96037e-06 0 0)
(1.96096e-06 0 0)
(1.96165e-06 0 0)
(1.96244e-06 0 0)
(1.96332e-06 0 0)
(1.96427e-06 0 0)
(1.9653e-06 0 0)
(1.96637e-06 0 0)
(1.96747e-06 0 0)
(1.96856e-06 0 0)
(1.96964e-06 0 0)
(1.97066e-06 0 0)
(1.97159e-06 0 0)
(1.9724e-06 0 0)
(1.97307e-06 0 0)
(1.97355e-06 0 0)
(1.97382e-06 0 0)
(1.97385e-06 0 0)
(1.97362e-06 0 0)
(1.97311e-06 0 0)
(1.97231e-06 0 0)
(1.97121e-06 0 0)
(1.96982e-06 0 0)
(1.96814e-06 0 0)
(1.96619e-06 0 0)
(1.96401e-06 0 0)
(1.96161e-06 0 0)
(1.95904e-06 0 0)
(1.95635e-06 0 0)
(1.95356e-06 0 0)
(1.95074e-06 0 0)
(1.94791e-06 0 0)
(1.94512e-06 0 0)
(1.94241e-06 0 0)
(1.93982e-06 0 0)
(1.93735e-06 0 0)
(1.93504e-06 0 0)
(1.9329e-06 0 0)
(1.93094e-06 0 0)
(1.92915e-06 0 0)
(1.92755e-06 0 0)
(1.92611e-06 0 0)
(1.92483e-06 0 0)
(1.9237e-06 0 0)
(1.9227e-06 0 0)
(1.92181e-06 0 0)
(1.92102e-06 0 0)
(1.92031e-06 0 0)
(1.91967e-06 0 0)
(1.91907e-06 0 0)
(1.91851e-06 0 0)
(1.91797e-06 0 0)
(1.91743e-06 0 0)
(1.91689e-06 0 0)
(1.91634e-06 0 0)
(1.91577e-06 0 0)
(1.91518e-06 0 0)
(1.91456e-06 0 0)
(1.91391e-06 0 0)
(1.91322e-06 0 0)
(1.91251e-06 0 0)
(1.91176e-06 0 0)
(1.91098e-06 0 0)
(1.91018e-06 0 0)
(1.90936e-06 0 0)
(1.90852e-06 0 0)
(1.90767e-06 0 0)
(1.90681e-06 0 0)
(1.90596e-06 0 0)
(1.90511e-06 0 0)
(1.90428e-06 0 0)
(1.90348e-06 0 0)
(1.90269e-06 0 0)
(1.90193e-06 0 0)
(1.90119e-06 0 0)
(1.90046e-06 0 0)
(1.89971e-06 0 0)
(1.89889e-06 0 0)
(1.89791e-06 0 0)
(1.89661e-06 0 0)
(1.89475e-06 0 0)
(1.89196e-06 0 0)
(1.88782e-06 0 0)
(1.88203e-06 0 0)
(1.87484e-06 0 0)
(1.86731e-06 0 0)
(1.86091e-06 0 0)
(1.8565e-06 0 0)
(1.85392e-06 0 0)
(1.85252e-06 0 0)
(1.85173e-06 0 0)
(1.85124e-06 0 0)
(1.8509e-06 0 0)
(1.85062e-06 0 0)
(1.85039e-06 0 0)
(1.85018e-06 0 0)
(1.84998e-06 0 0)
(1.84979e-06 0 0)
(1.84962e-06 0 0)
(1.84945e-06 0 0)
(1.84929e-06 0 0)
(1.84913e-06 0 0)
(1.84898e-06 0 0)
(1.84884e-06 0 0)
(1.8487e-06 0 0)
(1.84857e-06 0 0)
(1.84845e-06 0 0)
(1.84833e-06 0 0)
(1.84821e-06 0 0)
(1.8481e-06 0 0)
(1.84799e-06 0 0)
(1.84789e-06 0 0)
(1.84779e-06 0 0)
(1.8477e-06 0 0)
(1.84761e-06 0 0)
(1.84752e-06 0 0)
(1.84743e-06 0 0)
(1.84735e-06 0 0)
(1.84728e-06 0 0)
(1.8472e-06 0 0)
(1.84713e-06 0 0)
(1.84707e-06 0 0)
(1.84701e-06 0 0)
(1.84695e-06 0 0)
(1.84689e-06 0 0)
(1.84685e-06 0 0)
(1.8468e-06 0 0)
(1.84677e-06 0 0)
(1.84674e-06 0 0)
(1.84672e-06 0 0)
(1.8467e-06 0 0)
(1.84669e-06 0 0)
(1.84669e-06 0 0)
(1.84669e-06 0 0)
(1.8467e-06 0 0)
(1.84672e-06 0 0)
(1.84675e-06 0 0)
(1.84679e-06 0 0)
(1.84684e-06 0 0)
(1.8469e-06 0 0)
(1.84697e-06 0 0)
(1.84705e-06 0 0)
(1.84714e-06 0 0)
(1.84723e-06 0 0)
(1.84733e-06 0 0)
(1.84745e-06 0 0)
(1.84757e-06 0 0)
(1.8477e-06 0 0)
(1.84783e-06 0 0)
(1.84798e-06 0 0)
(1.84812e-06 0 0)
(1.84828e-06 0 0)
(1.84844e-06 0 0)
(1.84861e-06 0 0)
(1.84878e-06 0 0)
(1.84895e-06 0 0)
(1.84912e-06 0 0)
(1.8493e-06 0 0)
(1.84948e-06 0 0)
(1.84967e-06 0 0)
(1.84985e-06 0 0)
(1.85004e-06 0 0)
(1.85022e-06 0 0)
(1.85041e-06 0 0)
(1.8506e-06 0 0)
(1.85078e-06 0 0)
(1.85097e-06 0 0)
(1.85116e-06 0 0)
(1.85135e-06 0 0)
(1.85154e-06 0 0)
(1.85173e-06 0 0)
(1.85193e-06 0 0)
(1.85213e-06 0 0)
(1.85233e-06 0 0)
(1.85254e-06 0 0)
(1.85275e-06 0 0)
(1.85296e-06 0 0)
(1.85318e-06 0 0)
(1.85341e-06 0 0)
(1.85365e-06 0 0)
(1.8539e-06 0 0)
(1.85416e-06 0 0)
(1.85444e-06 0 0)
(1.85473e-06 0 0)
(1.85504e-06 0 0)
(1.85536e-06 0 0)
(1.85571e-06 0 0)
(1.85609e-06 0 0)
(1.85649e-06 0 0)
(1.85692e-06 0 0)
(1.85739e-06 0 0)
(1.85789e-06 0 0)
(1.85843e-06 0 0)
(1.85902e-06 0 0)
(1.85964e-06 0 0)
(1.86031e-06 0 0)
(1.86102e-06 0 0)
(1.86179e-06 0 0)
(1.86259e-06 0 0)
(1.86345e-06 0 0)
(1.86435e-06 0 0)
(1.86529e-06 0 0)
(1.86627e-06 0 0)
(1.86729e-06 0 0)
(1.86833e-06 0 0)
(1.86941e-06 0 0)
(1.8705e-06 0 0)
(1.8716e-06 0 0)
(1.87271e-06 0 0)
(1.8738e-06 0 0)
(1.87489e-06 0 0)
(1.87594e-06 0 0)
(1.87695e-06 0 0)
(1.87791e-06 0 0)
(1.87881e-06 0 0)
(1.87963e-06 0 0)
(1.88037e-06 0 0)
(1.881e-06 0 0)
(1.88153e-06 0 0)
(1.88193e-06 0 0)
(1.88221e-06 0 0)
(1.88235e-06 0 0)
(1.88241e-06 0 0)
(1.88241e-06 0 0)
(1.88234e-06 0 0)
(1.88206e-06 0 0)
(1.88152e-06 0 0)
(1.88085e-06 0 0)
(1.88004e-06 0 0)
(1.87912e-06 0 0)
(1.87809e-06 0 0)
(1.87697e-06 0 0)
(1.87577e-06 0 0)
(1.87451e-06 0 0)
(1.87321e-06 0 0)
(1.87188e-06 0 0)
(1.87054e-06 0 0)
(1.8692e-06 0 0)
(1.86789e-06 0 0)
(1.86661e-06 0 0)
(1.86537e-06 0 0)
(1.8642e-06 0 0)
(1.8631e-06 0 0)
(1.86207e-06 0 0)
(1.86113e-06 0 0)
(1.86027e-06 0 0)
(1.8595e-06 0 0)
(1.85883e-06 0 0)
(1.85824e-06 0 0)
(1.85773e-06 0 0)
(1.85731e-06 0 0)
(1.85696e-06 0 0)
(1.85669e-06 0 0)
(1.85648e-06 0 0)
(1.85633e-06 0 0)
(1.85624e-06 0 0)
(1.85619e-06 0 0)
(1.85617e-06 0 0)
(1.85617e-06 0 0)
(1.85618e-06 0 0)
(1.85623e-06 0 0)
(1.85633e-06 0 0)
(1.85643e-06 0 0)
(1.85654e-06 0 0)
(1.85664e-06 0 0)
(1.85674e-06 0 0)
(1.85683e-06 0 0)
(1.85691e-06 0 0)
(1.85697e-06 0 0)
(1.85702e-06 0 0)
(1.85706e-06 0 0)
(1.85707e-06 0 0)
(1.85708e-06 0 0)
(1.85707e-06 0 0)
(1.85706e-06 0 0)
(1.85701e-06 0 0)
(1.85693e-06 0 0)
(1.85683e-06 0 0)
(1.85672e-06 0 0)
(1.85659e-06 0 0)
(1.85644e-06 0 0)
(1.85627e-06 0 0)
(1.85609e-06 0 0)
(1.8559e-06 0 0)
(1.8557e-06 0 0)
(1.85549e-06 0 0)
(1.85526e-06 0 0)
(1.85503e-06 0 0)
(1.85479e-06 0 0)
(1.85454e-06 0 0)
(1.85429e-06 0 0)
(1.85404e-06 0 0)
(1.85378e-06 0 0)
(1.85351e-06 0 0)
(1.85325e-06 0 0)
(1.85298e-06 0 0)
(1.85272e-06 0 0)
(1.85246e-06 0 0)
(1.85219e-06 0 0)
(1.85193e-06 0 0)
(1.85168e-06 0 0)
(1.85142e-06 0 0)
(1.85117e-06 0 0)
(1.85093e-06 0 0)
(1.85069e-06 0 0)
(1.85046e-06 0 0)
(1.85023e-06 0 0)
(1.85001e-06 0 0)
(1.84979e-06 0 0)
(1.84959e-06 0 0)
(1.84938e-06 0 0)
(1.84919e-06 0 0)
(1.849e-06 0 0)
(1.84882e-06 0 0)
(1.84865e-06 0 0)
(1.84848e-06 0 0)
(1.84833e-06 0 0)
(1.84817e-06 0 0)
(1.84803e-06 0 0)
(1.84789e-06 0 0)
(1.84776e-06 0 0)
(1.84763e-06 0 0)
(1.84751e-06 0 0)
(1.84739e-06 0 0)
(1.84728e-06 0 0)
(1.84717e-06 0 0)
(1.84707e-06 0 0)
(1.84698e-06 0 0)
(1.84689e-06 0 0)
(1.8468e-06 0 0)
(1.84671e-06 0 0)
(1.84663e-06 0 0)
(1.84656e-06 0 0)
(1.84648e-06 0 0)
(1.84641e-06 0 0)
(1.84635e-06 0 0)
(1.84628e-06 0 0)
(1.84623e-06 0 0)
(1.84617e-06 0 0)
(1.84612e-06 0 0)
(1.84607e-06 0 0)
(1.84603e-06 0 0)
(1.84599e-06 0 0)
(1.84595e-06 0 0)
(1.84592e-06 0 0)
(1.8459e-06 0 0)
(1.84588e-06 0 0)
(1.84587e-06 0 0)
(1.84586e-06 0 0)
(1.84586e-06 0 0)
(1.84586e-06 0 0)
(1.84586e-06 0 0)
(1.84587e-06 0 0)
(1.8459e-06 0 0)
(1.84593e-06 0 0)
(1.84597e-06 0 0)
(1.84602e-06 0 0)
(1.84608e-06 0 0)
(1.84615e-06 0 0)
(1.84622e-06 0 0)
(1.8463e-06 0 0)
(1.8464e-06 0 0)
(1.8465e-06 0 0)
(1.8466e-06 0 0)
(1.84672e-06 0 0)
(1.84685e-06 0 0)
(1.84698e-06 0 0)
(1.84712e-06 0 0)
(1.84727e-06 0 0)
(1.84742e-06 0 0)
(1.84759e-06 0 0)
(1.84776e-06 0 0)
(1.84793e-06 0 0)
(1.84812e-06 0 0)
(1.84831e-06 0 0)
(1.84851e-06 0 0)
(1.84871e-06 0 0)
(1.84892e-06 0 0)
(1.84914e-06 0 0)
(1.84936e-06 0 0)
(1.84959e-06 0 0)
(1.84983e-06 0 0)
(1.85007e-06 0 0)
(1.85033e-06 0 0)
(1.85058e-06 0 0)
(1.85085e-06 0 0)
(1.85113e-06 0 0)
(1.85142e-06 0 0)
(1.85171e-06 0 0)
(1.85202e-06 0 0)
(1.85234e-06 0 0)
(1.85268e-06 0 0)
(1.85303e-06 0 0)
(1.8534e-06 0 0)
(1.85378e-06 0 0)
(1.85418e-06 0 0)
(1.85461e-06 0 0)
(1.85505e-06 0 0)
(1.85553e-06 0 0)
(1.85602e-06 0 0)
(1.85654e-06 0 0)
(1.8571e-06 0 0)
(1.85768e-06 0 0)
(1.85829e-06 0 0)
(1.85893e-06 0 0)
(1.8596e-06 0 0)
(1.86031e-06 0 0)
(1.86104e-06 0 0)
(1.86181e-06 0 0)
(1.86261e-06 0 0)
(1.86344e-06 0 0)
(1.86429e-06 0 0)
(1.86517e-06 0 0)
(1.86608e-06 0 0)
(1.867e-06 0 0)
(1.86793e-06 0 0)
(1.86888e-06 0 0)
(1.86983e-06 0 0)
(1.87078e-06 0 0)
(1.87173e-06 0 0)
(1.87266e-06 0 0)
(1.87358e-06 0 0)
(1.87447e-06 0 0)
(1.87532e-06 0 0)
(1.87614e-06 0 0)
(1.87691e-06 0 0)
(1.87762e-06 0 0)
(1.87827e-06 0 0)
(1.87886e-06 0 0)
(1.87936e-06 0 0)
(1.87979e-06 0 0)
(1.88012e-06 0 0)
(1.88036e-06 0 0)
(1.8805e-06 0 0)
(1.88056e-06 0 0)
(1.88058e-06 0 0)
(1.88056e-06 0 0)
(1.88041e-06 0 0)
(1.88009e-06 0 0)
(1.87964e-06 0 0)
(1.87909e-06 0 0)
(1.87846e-06 0 0)
(1.87774e-06 0 0)
(1.87694e-06 0 0)
(1.87609e-06 0 0)
(1.87517e-06 0 0)
(1.87422e-06 0 0)
(1.87323e-06 0 0)
(1.87222e-06 0 0)
(1.87119e-06 0 0)
(1.87017e-06 0 0)
(1.86915e-06 0 0)
(1.86815e-06 0 0)
(1.86718e-06 0 0)
(1.86624e-06 0 0)
(1.86535e-06 0 0)
(1.8645e-06 0 0)
(1.8637e-06 0 0)
(1.86296e-06 0 0)
(1.86227e-06 0 0)
(1.86165e-06 0 0)
(1.86108e-06 0 0)
(1.86057e-06 0 0)
(1.86012e-06 0 0)
(1.85972e-06 0 0)
(1.85937e-06 0 0)
(1.85907e-06 0 0)
(1.85882e-06 0 0)
(1.85861e-06 0 0)
(1.85843e-06 0 0)
(1.85829e-06 0 0)
(1.85818e-06 0 0)
(1.85809e-06 0 0)
(1.85803e-06 0 0)
(1.85798e-06 0 0)
(1.85795e-06 0 0)
(1.85792e-06 0 0)
(1.85791e-06 0 0)
(1.8579e-06 0 0)
(1.85789e-06 0 0)
(1.85788e-06 0 0)
(1.85788e-06 0 0)
(1.85786e-06 0 0)
(1.85785e-06 0 0)
(1.85782e-06 0 0)
(1.85778e-06 0 0)
(1.85773e-06 0 0)
(1.85768e-06 0 0)
(1.8576e-06 0 0)
(1.85752e-06 0 0)
(1.85742e-06 0 0)
(1.85732e-06 0 0)
(1.85719e-06 0 0)
(1.85706e-06 0 0)
(1.85692e-06 0 0)
(1.85676e-06 0 0)
(1.8566e-06 0 0)
(1.85642e-06 0 0)
(1.85624e-06 0 0)
(1.85604e-06 0 0)
(1.85584e-06 0 0)
(1.85563e-06 0 0)
(1.85541e-06 0 0)
(1.85519e-06 0 0)
(1.85496e-06 0 0)
(1.85472e-06 0 0)
(1.85448e-06 0 0)
(1.85424e-06 0 0)
(1.85399e-06 0 0)
(1.85374e-06 0 0)
(1.85349e-06 0 0)
(1.85323e-06 0 0)
(1.85298e-06 0 0)
(1.85272e-06 0 0)
(1.85246e-06 0 0)
(1.85221e-06 0 0)
(1.85196e-06 0 0)
(1.8517e-06 0 0)
(1.85145e-06 0 0)
(1.85121e-06 0 0)
(1.85096e-06 0 0)
(1.85072e-06 0 0)
(1.85049e-06 0 0)
(1.85026e-06 0 0)
(1.85003e-06 0 0)
(1.84981e-06 0 0)
(1.8496e-06 0 0)
(1.84939e-06 0 0)
(1.84919e-06 0 0)
(1.849e-06 0 0)
(1.84881e-06 0 0)
(1.84863e-06 0 0)
(1.84846e-06 0 0)
(1.84829e-06 0 0)
(1.84814e-06 0 0)
(1.84799e-06 0 0)
(1.84785e-06 0 0)
(1.84771e-06 0 0)
(1.84759e-06 0 0)
(1.84747e-06 0 0)
(1.84736e-06 0 0)
(1.84726e-06 0 0)
(1.84716e-06 0 0)
(1.84708e-06 0 0)
(1.84699e-06 0 0)
(1.84692e-06 0 0)
(1.84685e-06 0 0)
(1.84679e-06 0 0)
(1.84673e-06 0 0)
(1.84668e-06 0 0)
(1.84664e-06 0 0)
(1.8466e-06 0 0)
(1.84656e-06 0 0)
(1.84653e-06 0 0)
(1.84651e-06 0 0)
(1.84649e-06 0 0)
(1.84647e-06 0 0)
(1.84646e-06 0 0)
(1.84645e-06 0 0)
(1.84645e-06 0 0)
(1.84645e-06 0 0)
(1.84645e-06 0 0)
(1.84645e-06 0 0)
(1.84646e-06 0 0)
(1.84648e-06 0 0)
(1.8465e-06 0 0)
(1.84653e-06 0 0)
(1.84656e-06 0 0)
(1.84659e-06 0 0)
(1.84663e-06 0 0)
(1.84668e-06 0 0)
(1.84673e-06 0 0)
(1.84679e-06 0 0)
(1.84686e-06 0 0)
(1.84693e-06 0 0)
(1.84701e-06 0 0)
(1.8471e-06 0 0)
(1.84719e-06 0 0)
(1.84729e-06 0 0)
(1.84741e-06 0 0)
(1.84753e-06 0 0)
(1.84766e-06 0 0)
(1.8478e-06 0 0)
(1.84794e-06 0 0)
(1.8481e-06 0 0)
(1.84827e-06 0 0)
(1.84845e-06 0 0)
(1.84864e-06 0 0)
(1.84884e-06 0 0)
(1.84906e-06 0 0)
(1.84928e-06 0 0)
(1.84952e-06 0 0)
(1.84977e-06 0 0)
(1.85003e-06 0 0)
(1.8503e-06 0 0)
(1.85059e-06 0 0)
(1.85089e-06 0 0)
(1.85121e-06 0 0)
(1.85153e-06 0 0)
(1.85188e-06 0 0)
(1.85224e-06 0 0)
(1.85261e-06 0 0)
(1.853e-06 0 0)
(1.85341e-06 0 0)
(1.85384e-06 0 0)
(1.85428e-06 0 0)
(1.85474e-06 0 0)
(1.85523e-06 0 0)
(1.85573e-06 0 0)
(1.85625e-06 0 0)
(1.8568e-06 0 0)
(1.85737e-06 0 0)
(1.85796e-06 0 0)
(1.85857e-06 0 0)
(1.8592e-06 0 0)
(1.85986e-06 0 0)
(1.86054e-06 0 0)
(1.86124e-06 0 0)
(1.86197e-06 0 0)
(1.86271e-06 0 0)
(1.86348e-06 0 0)
(1.86426e-06 0 0)
(1.86506e-06 0 0)
(1.86588e-06 0 0)
(1.86671e-06 0 0)
(1.86755e-06 0 0)
(1.86839e-06 0 0)
(1.86924e-06 0 0)
(1.87009e-06 0 0)
(1.87094e-06 0 0)
(1.87178e-06 0 0)
(1.87261e-06 0 0)
(1.87343e-06 0 0)
(1.87422e-06 0 0)
(1.87499e-06 0 0)
(1.87572e-06 0 0)
(1.87642e-06 0 0)
(1.87708e-06 0 0)
(1.87768e-06 0 0)
(1.87824e-06 0 0)
(1.87874e-06 0 0)
(1.87918e-06 0 0)
(1.87955e-06 0 0)
(1.87984e-06 0 0)
(1.88006e-06 0 0)
(1.8802e-06 0 0)
(1.88027e-06 0 0)
(1.88029e-06 0 0)
(1.88028e-06 0 0)
(1.88022e-06 0 0)
(1.88001e-06 0 0)
(1.87964e-06 0 0)
(1.87921e-06 0 0)
(1.8787e-06 0 0)
(1.87812e-06 0 0)
(1.87747e-06 0 0)
(1.87675e-06 0 0)
(1.87598e-06 0 0)
(1.87516e-06 0 0)
(1.8743e-06 0 0)
(1.8734e-06 0 0)
(1.87248e-06 0 0)
(1.87154e-06 0 0)
(1.87059e-06 0 0)
(1.86964e-06 0 0)
(1.86869e-06 0 0)
(1.86776e-06 0 0)
(1.86684e-06 0 0)
(1.86595e-06 0 0)
(1.86509e-06 0 0)
(1.86426e-06 0 0)
(1.86347e-06 0 0)
(1.86273e-06 0 0)
(1.86202e-06 0 0)
(1.86136e-06 0 0)
(1.86075e-06 0 0)
(1.86018e-06 0 0)
(1.85965e-06 0 0)
(1.85917e-06 0 0)
(1.85873e-06 0 0)
(1.85833e-06 0 0)
(1.85797e-06 0 0)
(1.85765e-06 0 0)
(1.85736e-06 0 0)
(1.8571e-06 0 0)
(1.85686e-06 0 0)
(1.85666e-06 0 0)
(1.85647e-06 0 0)
(1.8563e-06 0 0)
(1.85615e-06 0 0)
(1.85602e-06 0 0)
(1.85589e-06 0 0)
(1.85578e-06 0 0)
(1.85567e-06 0 0)
(1.85557e-06 0 0)
(1.85547e-06 0 0)
(1.85537e-06 0 0)
(1.85527e-06 0 0)
(1.85517e-06 0 0)
(1.85507e-06 0 0)
(1.85496e-06 0 0)
(1.85486e-06 0 0)
(1.85475e-06 0 0)
(1.85463e-06 0 0)
(1.85451e-06 0 0)
(1.85438e-06 0 0)
(1.85425e-06 0 0)
(1.85412e-06 0 0)
(1.85398e-06 0 0)
(1.85384e-06 0 0)
(1.85369e-06 0 0)
(1.85353e-06 0 0)
(1.85338e-06 0 0)
(1.85321e-06 0 0)
(1.85305e-06 0 0)
(1.85288e-06 0 0)
(1.85271e-06 0 0)
(1.85254e-06 0 0)
(1.85236e-06 0 0)
(1.85219e-06 0 0)
(1.85201e-06 0 0)
(1.85183e-06 0 0)
(1.85165e-06 0 0)
(1.85146e-06 0 0)
(1.85128e-06 0 0)
(1.8511e-06 0 0)
(1.85091e-06 0 0)
(1.85073e-06 0 0)
(1.85055e-06 0 0)
(1.85037e-06 0 0)
(1.85018e-06 0 0)
(1.85e-06 0 0)
(1.84982e-06 0 0)
(1.84964e-06 0 0)
(1.84947e-06 0 0)
(1.84929e-06 0 0)
(1.84912e-06 0 0)
(1.84895e-06 0 0)
(1.84878e-06 0 0)
(1.84861e-06 0 0)
(1.84844e-06 0 0)
(1.84828e-06 0 0)
(1.84813e-06 0 0)
(1.84797e-06 0 0)
(1.84782e-06 0 0)
(1.84767e-06 0 0)
(1.84753e-06 0 0)
(1.84739e-06 0 0)
(1.84726e-06 0 0)
(1.84713e-06 0 0)
(1.84701e-06 0 0)
(1.84689e-06 0 0)
(1.84678e-06 0 0)
(1.84667e-06 0 0)
(1.84657e-06 0 0)
(1.84648e-06 0 0)
(1.84639e-06 0 0)
(1.84631e-06 0 0)
(1.84623e-06 0 0)
(1.84616e-06 0 0)
(1.8461e-06 0 0)
(1.84604e-06 0 0)
(1.84599e-06 0 0)
(1.84594e-06 0 0)
(1.84591e-06 0 0)
(1.84587e-06 0 0)
(1.84585e-06 0 0)
(1.84583e-06 0 0)
(1.84582e-06 0 0)
(1.84581e-06 0 0)
(1.84581e-06 0 0)
(1.84581e-06 0 0)
(1.84581e-06 0 0)
(1.84582e-06 0 0)
(1.84583e-06 0 0)
(1.84585e-06 0 0)
(1.84588e-06 0 0)
(1.84591e-06 0 0)
(1.84595e-06 0 0)
(1.84599e-06 0 0)
(1.84604e-06 0 0)
(1.84609e-06 0 0)
(1.84614e-06 0 0)
(1.8462e-06 0 0)
(1.84626e-06 0 0)
(1.84632e-06 0 0)
(1.84639e-06 0 0)
(1.84646e-06 0 0)
(1.84654e-06 0 0)
(1.84662e-06 0 0)
(1.84671e-06 0 0)
(1.8468e-06 0 0)
(1.84689e-06 0 0)
(1.84699e-06 0 0)
(1.8471e-06 0 0)
(1.84721e-06 0 0)
(1.84733e-06 0 0)
(1.84746e-06 0 0)
(1.8476e-06 0 0)
(1.84774e-06 0 0)
(1.84789e-06 0 0)
(1.84805e-06 0 0)
(1.84823e-06 0 0)
(1.84841e-06 0 0)
(1.8486e-06 0 0)
(1.84881e-06 0 0)
(1.84903e-06 0 0)
(1.84927e-06 0 0)
(1.84952e-06 0 0)
(1.84978e-06 0 0)
(1.85006e-06 0 0)
(1.85036e-06 0 0)
)
;

boundaryField
{
    inlet
    {
        type            fixedValue;
        value           uniform (2.74882e-06 0 0);
    }
    outlet
    {
        type            zeroGradient;
    }
    emptyWalls
    {
        type            empty;
    }
}


// ************************************************************************* //
