/*--------------------------------*- C++ -*----------------------------------*\
  =========                 |
  \\      /  F ield         | OpenFOAM: The Open Source CFD Toolbox
   \\    /   O peration     | Website:  https://openfoam.org
    \\  /    A nd           | Version:  9
     \\/     M anipulation  |
\*---------------------------------------------------------------------------*/
FoamFile
{
    format      ascii;
    class       volVectorField;
    location    "26800";
    object      Ub;
}
// * * * * * * * * * * * * * * * * * * * * * * * * * * * * * * * * * * * * * //

dimensions      [0 0 0 0 0 0 0];

internalField   nonuniform List<vector> 
1000
(
(1.1362e-05 0 0)
(1.13623e-05 0 0)
(1.13623e-05 0 0)
(1.13624e-05 0 0)
(1.13624e-05 0 0)
(1.13625e-05 0 0)
(1.13626e-05 0 0)
(1.13627e-05 0 0)
(1.13628e-05 0 0)
(1.1363e-05 0 0)
(1.13632e-05 0 0)
(1.13634e-05 0 0)
(1.13636e-05 0 0)
(1.13639e-05 0 0)
(1.13642e-05 0 0)
(1.13645e-05 0 0)
(1.13649e-05 0 0)
(1.13652e-05 0 0)
(1.13656e-05 0 0)
(1.13659e-05 0 0)
(1.13662e-05 0 0)
(1.13666e-05 0 0)
(1.1367e-05 0 0)
(1.13674e-05 0 0)
(1.13678e-05 0 0)
(1.13681e-05 0 0)
(1.13685e-05 0 0)
(1.13688e-05 0 0)
(1.13691e-05 0 0)
(1.13694e-05 0 0)
(1.13696e-05 0 0)
(1.13698e-05 0 0)
(1.137e-05 0 0)
(1.13702e-05 0 0)
(1.13707e-05 0 0)
(1.13724e-05 0 0)
(1.1379e-05 0 0)
(1.14183e-05 0 0)
(1.15803e-05 0 0)
(1.17344e-05 0 0)
(1.1767e-05 0 0)
(1.17763e-05 0 0)
(1.17807e-05 0 0)
(1.17835e-05 0 0)
(1.17856e-05 0 0)
(1.17869e-05 0 0)
(1.17876e-05 0 0)
(1.17882e-05 0 0)
(1.1789e-05 0 0)
(1.17903e-05 0 0)
(1.17917e-05 0 0)
(1.17923e-05 0 0)
(1.1791e-05 0 0)
(1.17877e-05 0 0)
(1.17826e-05 0 0)
(1.17766e-05 0 0)
(1.1771e-05 0 0)
(1.17665e-05 0 0)
(1.17638e-05 0 0)
(1.17627e-05 0 0)
(1.17628e-05 0 0)
(1.17635e-05 0 0)
(1.17646e-05 0 0)
(1.17677e-05 0 0)
(1.17732e-05 0 0)
(1.1779e-05 0 0)
(1.17845e-05 0 0)
(1.17893e-05 0 0)
(1.17932e-05 0 0)
(1.17961e-05 0 0)
(1.17981e-05 0 0)
(1.17994e-05 0 0)
(1.18e-05 0 0)
(1.18001e-05 0 0)
(1.17999e-05 0 0)
(1.17995e-05 0 0)
(1.17991e-05 0 0)
(1.17986e-05 0 0)
(1.17982e-05 0 0)
(1.17979e-05 0 0)
(1.17978e-05 0 0)
(1.17977e-05 0 0)
(1.17978e-05 0 0)
(1.17979e-05 0 0)
(1.1798e-05 0 0)
(1.17981e-05 0 0)
(1.17982e-05 0 0)
(1.17983e-05 0 0)
(1.17984e-05 0 0)
(1.17984e-05 0 0)
(1.17984e-05 0 0)
(1.17983e-05 0 0)
(1.17981e-05 0 0)
(1.17979e-05 0 0)
(1.17976e-05 0 0)
(1.17973e-05 0 0)
(1.17968e-05 0 0)
(1.17963e-05 0 0)
(1.17956e-05 0 0)
(1.17948e-05 0 0)
(1.17938e-05 0 0)
(1.17927e-05 0 0)
(1.17912e-05 0 0)
(1.17895e-05 0 0)
(1.17875e-05 0 0)
(1.17852e-05 0 0)
(1.17826e-05 0 0)
(1.17798e-05 0 0)
(1.1777e-05 0 0)
(1.17739e-05 0 0)
(1.17709e-05 0 0)
(1.17677e-05 0 0)
(1.17645e-05 0 0)
(1.17612e-05 0 0)
(1.17579e-05 0 0)
(1.17546e-05 0 0)
(1.17512e-05 0 0)
(1.17477e-05 0 0)
(1.17443e-05 0 0)
(1.17408e-05 0 0)
(1.17372e-05 0 0)
(1.17336e-05 0 0)
(1.173e-05 0 0)
(1.17263e-05 0 0)
(1.17227e-05 0 0)
(1.1719e-05 0 0)
(1.17153e-05 0 0)
(1.17117e-05 0 0)
(1.1708e-05 0 0)
(1.17043e-05 0 0)
(1.17006e-05 0 0)
(1.16968e-05 0 0)
(1.16931e-05 0 0)
(1.16893e-05 0 0)
(1.16854e-05 0 0)
(1.16815e-05 0 0)
(1.16776e-05 0 0)
(1.16737e-05 0 0)
(1.16697e-05 0 0)
(1.16658e-05 0 0)
(1.16619e-05 0 0)
(1.1658e-05 0 0)
(1.16541e-05 0 0)
(1.16503e-05 0 0)
(1.16465e-05 0 0)
(1.16427e-05 0 0)
(1.16389e-05 0 0)
(1.1635e-05 0 0)
(1.16311e-05 0 0)
(1.1627e-05 0 0)
(1.16227e-05 0 0)
(1.16182e-05 0 0)
(1.16133e-05 0 0)
(1.16082e-05 0 0)
(1.16028e-05 0 0)
(1.15972e-05 0 0)
(1.15913e-05 0 0)
(1.15854e-05 0 0)
(1.15793e-05 0 0)
(1.15731e-05 0 0)
(1.1567e-05 0 0)
(1.15609e-05 0 0)
(1.15548e-05 0 0)
(1.1549e-05 0 0)
(1.15433e-05 0 0)
(1.15379e-05 0 0)
(1.15328e-05 0 0)
(1.15281e-05 0 0)
(1.15238e-05 0 0)
(1.15199e-05 0 0)
(1.15165e-05 0 0)
(1.15134e-05 0 0)
(1.15108e-05 0 0)
(1.15085e-05 0 0)
(1.15064e-05 0 0)
(1.15045e-05 0 0)
(1.15027e-05 0 0)
(1.15009e-05 0 0)
(1.14991e-05 0 0)
(1.14972e-05 0 0)
(1.14951e-05 0 0)
(1.14929e-05 0 0)
(1.14904e-05 0 0)
(1.14877e-05 0 0)
(1.14849e-05 0 0)
(1.14818e-05 0 0)
(1.14785e-05 0 0)
(1.1475e-05 0 0)
(1.14714e-05 0 0)
(1.14677e-05 0 0)
(1.14639e-05 0 0)
(1.146e-05 0 0)
(1.1456e-05 0 0)
(1.14521e-05 0 0)
(1.14481e-05 0 0)
(1.14442e-05 0 0)
(1.14402e-05 0 0)
(1.14363e-05 0 0)
(1.14324e-05 0 0)
(1.14285e-05 0 0)
(1.14246e-05 0 0)
(1.14208e-05 0 0)
(1.14169e-05 0 0)
(1.14131e-05 0 0)
(1.14094e-05 0 0)
(1.14056e-05 0 0)
(1.14018e-05 0 0)
(1.13981e-05 0 0)
(1.13943e-05 0 0)
(1.13906e-05 0 0)
(1.13868e-05 0 0)
(1.1383e-05 0 0)
(1.13793e-05 0 0)
(1.13755e-05 0 0)
(1.13717e-05 0 0)
(1.13679e-05 0 0)
(1.13641e-05 0 0)
(1.13603e-05 0 0)
(1.13565e-05 0 0)
(1.13527e-05 0 0)
(1.13488e-05 0 0)
(1.13449e-05 0 0)
(1.13411e-05 0 0)
(1.13372e-05 0 0)
(1.13333e-05 0 0)
(1.13294e-05 0 0)
(1.13254e-05 0 0)
(1.13215e-05 0 0)
(1.13175e-05 0 0)
(1.13135e-05 0 0)
(1.13096e-05 0 0)
(1.13056e-05 0 0)
(1.13016e-05 0 0)
(1.12975e-05 0 0)
(1.12935e-05 0 0)
(1.12894e-05 0 0)
(1.12854e-05 0 0)
(1.12813e-05 0 0)
(1.12772e-05 0 0)
(1.12731e-05 0 0)
(1.12689e-05 0 0)
(1.12648e-05 0 0)
(1.12606e-05 0 0)
(1.12564e-05 0 0)
(1.12523e-05 0 0)
(1.12481e-05 0 0)
(1.12439e-05 0 0)
(1.12396e-05 0 0)
(1.12354e-05 0 0)
(1.12312e-05 0 0)
(1.12269e-05 0 0)
(1.12227e-05 0 0)
(1.12184e-05 0 0)
(1.12142e-05 0 0)
(1.12099e-05 0 0)
(1.12056e-05 0 0)
(1.12013e-05 0 0)
(1.11969e-05 0 0)
(1.11926e-05 0 0)
(1.11882e-05 0 0)
(1.11839e-05 0 0)
(1.11795e-05 0 0)
(1.11751e-05 0 0)
(1.11708e-05 0 0)
(1.11664e-05 0 0)
(1.11621e-05 0 0)
(1.11577e-05 0 0)
(1.11534e-05 0 0)
(1.1149e-05 0 0)
(1.11447e-05 0 0)
(1.11403e-05 0 0)
(1.11359e-05 0 0)
(1.11314e-05 0 0)
(1.11269e-05 0 0)
(1.11223e-05 0 0)
(1.11176e-05 0 0)
(1.11128e-05 0 0)
(1.11079e-05 0 0)
(1.11029e-05 0 0)
(1.10978e-05 0 0)
(1.10926e-05 0 0)
(1.10872e-05 0 0)
(1.10817e-05 0 0)
(1.10761e-05 0 0)
(1.10704e-05 0 0)
(1.10647e-05 0 0)
(1.10589e-05 0 0)
(1.1053e-05 0 0)
(1.10472e-05 0 0)
(1.10413e-05 0 0)
(1.10355e-05 0 0)
(1.10298e-05 0 0)
(1.10241e-05 0 0)
(1.10186e-05 0 0)
(1.10133e-05 0 0)
(1.10081e-05 0 0)
(1.10031e-05 0 0)
(1.09983e-05 0 0)
(1.09937e-05 0 0)
(1.09894e-05 0 0)
(1.09852e-05 0 0)
(1.09813e-05 0 0)
(1.09776e-05 0 0)
(1.0974e-05 0 0)
(1.09707e-05 0 0)
(1.09674e-05 0 0)
(1.09642e-05 0 0)
(1.09611e-05 0 0)
(1.09581e-05 0 0)
(1.0955e-05 0 0)
(1.0952e-05 0 0)
(1.09489e-05 0 0)
(1.09457e-05 0 0)
(1.09425e-05 0 0)
(1.09392e-05 0 0)
(1.09357e-05 0 0)
(1.09322e-05 0 0)
(1.09286e-05 0 0)
(1.09249e-05 0 0)
(1.09211e-05 0 0)
(1.09172e-05 0 0)
(1.09132e-05 0 0)
(1.09091e-05 0 0)
(1.0905e-05 0 0)
(1.09009e-05 0 0)
(1.08967e-05 0 0)
(1.08924e-05 0 0)
(1.08882e-05 0 0)
(1.08839e-05 0 0)
(1.08796e-05 0 0)
(1.08753e-05 0 0)
(1.0871e-05 0 0)
(1.08667e-05 0 0)
(1.08624e-05 0 0)
(1.08581e-05 0 0)
(1.08538e-05 0 0)
(1.08495e-05 0 0)
(1.08452e-05 0 0)
(1.0841e-05 0 0)
(1.08367e-05 0 0)
(1.08325e-05 0 0)
(1.08282e-05 0 0)
(1.0824e-05 0 0)
(1.08197e-05 0 0)
(1.08155e-05 0 0)
(1.08112e-05 0 0)
(1.0807e-05 0 0)
(1.08027e-05 0 0)
(1.07985e-05 0 0)
(1.07942e-05 0 0)
(1.079e-05 0 0)
(1.07857e-05 0 0)
(1.07814e-05 0 0)
(1.07772e-05 0 0)
(1.07729e-05 0 0)
(1.07686e-05 0 0)
(1.07643e-05 0 0)
(1.076e-05 0 0)
(1.07556e-05 0 0)
(1.07513e-05 0 0)
(1.07469e-05 0 0)
(1.07426e-05 0 0)
(1.07382e-05 0 0)
(1.07339e-05 0 0)
(1.07295e-05 0 0)
(1.07251e-05 0 0)
(1.07207e-05 0 0)
(1.07162e-05 0 0)
(1.07118e-05 0 0)
(1.07074e-05 0 0)
(1.07029e-05 0 0)
(1.06985e-05 0 0)
(1.0694e-05 0 0)
(1.06895e-05 0 0)
(1.0685e-05 0 0)
(1.06805e-05 0 0)
(1.0676e-05 0 0)
(1.06714e-05 0 0)
(1.06669e-05 0 0)
(1.06624e-05 0 0)
(1.06578e-05 0 0)
(1.06532e-05 0 0)
(1.06486e-05 0 0)
(1.06441e-05 0 0)
(1.06395e-05 0 0)
(1.06349e-05 0 0)
(1.06302e-05 0 0)
(1.06256e-05 0 0)
(1.0621e-05 0 0)
(1.06163e-05 0 0)
(1.06117e-05 0 0)
(1.0607e-05 0 0)
(1.06024e-05 0 0)
(1.05977e-05 0 0)
(1.0593e-05 0 0)
(1.05883e-05 0 0)
(1.05836e-05 0 0)
(1.05789e-05 0 0)
(1.05742e-05 0 0)
(1.05694e-05 0 0)
(1.05647e-05 0 0)
(1.056e-05 0 0)
(1.05553e-05 0 0)
(1.05505e-05 0 0)
(1.05458e-05 0 0)
(1.0541e-05 0 0)
(1.05363e-05 0 0)
(1.05315e-05 0 0)
(1.05267e-05 0 0)
(1.05219e-05 0 0)
(1.0517e-05 0 0)
(1.05122e-05 0 0)
(1.05073e-05 0 0)
(1.05023e-05 0 0)
(1.04973e-05 0 0)
(1.04923e-05 0 0)
(1.04872e-05 0 0)
(1.0482e-05 0 0)
(1.04767e-05 0 0)
(1.04714e-05 0 0)
(1.04661e-05 0 0)
(1.04606e-05 0 0)
(1.04551e-05 0 0)
(1.04496e-05 0 0)
(1.04439e-05 0 0)
(1.04383e-05 0 0)
(1.04325e-05 0 0)
(1.04268e-05 0 0)
(1.0421e-05 0 0)
(1.04152e-05 0 0)
(1.04094e-05 0 0)
(1.04036e-05 0 0)
(1.03978e-05 0 0)
(1.0392e-05 0 0)
(1.03863e-05 0 0)
(1.03807e-05 0 0)
(1.03751e-05 0 0)
(1.03697e-05 0 0)
(1.03643e-05 0 0)
(1.0359e-05 0 0)
(1.03539e-05 0 0)
(1.03488e-05 0 0)
(1.03439e-05 0 0)
(1.03391e-05 0 0)
(1.03345e-05 0 0)
(1.03299e-05 0 0)
(1.03255e-05 0 0)
(1.03212e-05 0 0)
(1.03169e-05 0 0)
(1.03128e-05 0 0)
(1.03087e-05 0 0)
(1.03047e-05 0 0)
(1.03008e-05 0 0)
(1.02968e-05 0 0)
(1.02929e-05 0 0)
(1.0289e-05 0 0)
(1.02851e-05 0 0)
(1.02812e-05 0 0)
(1.02772e-05 0 0)
(1.02732e-05 0 0)
(1.02692e-05 0 0)
(1.02651e-05 0 0)
(1.0261e-05 0 0)
(1.02568e-05 0 0)
(1.02525e-05 0 0)
(1.02482e-05 0 0)
(1.02439e-05 0 0)
(1.02395e-05 0 0)
(1.0235e-05 0 0)
(1.02305e-05 0 0)
(1.0226e-05 0 0)
(1.02214e-05 0 0)
(1.02168e-05 0 0)
(1.02122e-05 0 0)
(1.02076e-05 0 0)
(1.02029e-05 0 0)
(1.01982e-05 0 0)
(1.01935e-05 0 0)
(1.01888e-05 0 0)
(1.01841e-05 0 0)
(1.01794e-05 0 0)
(1.01747e-05 0 0)
(1.01699e-05 0 0)
(1.01652e-05 0 0)
(1.01605e-05 0 0)
(1.01557e-05 0 0)
(1.0151e-05 0 0)
(1.01463e-05 0 0)
(1.01416e-05 0 0)
(1.01368e-05 0 0)
(1.01321e-05 0 0)
(1.01274e-05 0 0)
(1.01227e-05 0 0)
(1.01179e-05 0 0)
(1.01132e-05 0 0)
(1.01085e-05 0 0)
(1.01037e-05 0 0)
(1.0099e-05 0 0)
(1.00942e-05 0 0)
(1.00895e-05 0 0)
(1.00847e-05 0 0)
(1.008e-05 0 0)
(1.00752e-05 0 0)
(1.00704e-05 0 0)
(1.00656e-05 0 0)
(1.00608e-05 0 0)
(1.0056e-05 0 0)
(1.00512e-05 0 0)
(1.00464e-05 0 0)
(1.00416e-05 0 0)
(1.00368e-05 0 0)
(1.00319e-05 0 0)
(1.00271e-05 0 0)
(1.00222e-05 0 0)
(1.00173e-05 0 0)
(1.00124e-05 0 0)
(1.00075e-05 0 0)
(1.00026e-05 0 0)
(9.99773e-06 0 0)
(9.99281e-06 0 0)
(9.98788e-06 0 0)
(9.98293e-06 0 0)
(9.97798e-06 0 0)
(9.97302e-06 0 0)
(9.96804e-06 0 0)
(9.96306e-06 0 0)
(9.95806e-06 0 0)
(9.95306e-06 0 0)
(9.94805e-06 0 0)
(9.94302e-06 0 0)
(9.93799e-06 0 0)
(9.93295e-06 0 0)
(9.92789e-06 0 0)
(9.92283e-06 0 0)
(9.91776e-06 0 0)
(9.91268e-06 0 0)
(9.90759e-06 0 0)
(9.90249e-06 0 0)
(9.89739e-06 0 0)
(9.89227e-06 0 0)
(9.88714e-06 0 0)
(9.88201e-06 0 0)
(9.87687e-06 0 0)
(9.87172e-06 0 0)
(9.86656e-06 0 0)
(9.8614e-06 0 0)
(9.85623e-06 0 0)
(9.85105e-06 0 0)
(9.84586e-06 0 0)
(9.84067e-06 0 0)
(9.83546e-06 0 0)
(9.83026e-06 0 0)
(9.82504e-06 0 0)
(9.81982e-06 0 0)
(9.81458e-06 0 0)
(9.80934e-06 0 0)
(9.80409e-06 0 0)
(9.79882e-06 0 0)
(9.79354e-06 0 0)
(9.78825e-06 0 0)
(9.78294e-06 0 0)
(9.7776e-06 0 0)
(9.77225e-06 0 0)
(9.76687e-06 0 0)
(9.76146e-06 0 0)
(9.75602e-06 0 0)
(9.75055e-06 0 0)
(9.74504e-06 0 0)
(9.7395e-06 0 0)
(9.73392e-06 0 0)
(9.7283e-06 0 0)
(9.72263e-06 0 0)
(9.71693e-06 0 0)
(9.71118e-06 0 0)
(9.70539e-06 0 0)
(9.69956e-06 0 0)
(9.69369e-06 0 0)
(9.68778e-06 0 0)
(9.68184e-06 0 0)
(9.67587e-06 0 0)
(9.66988e-06 0 0)
(9.66386e-06 0 0)
(9.65783e-06 0 0)
(9.65178e-06 0 0)
(9.64574e-06 0 0)
(9.63969e-06 0 0)
(9.63365e-06 0 0)
(9.62763e-06 0 0)
(9.62164e-06 0 0)
(9.61567e-06 0 0)
(9.60974e-06 0 0)
(9.60385e-06 0 0)
(9.59802e-06 0 0)
(9.59224e-06 0 0)
(9.58652e-06 0 0)
(9.58086e-06 0 0)
(9.57528e-06 0 0)
(9.56976e-06 0 0)
(9.56432e-06 0 0)
(9.55895e-06 0 0)
(9.55366e-06 0 0)
(9.54844e-06 0 0)
(9.54329e-06 0 0)
(9.5382e-06 0 0)
(9.53318e-06 0 0)
(9.52822e-06 0 0)
(9.5233e-06 0 0)
(9.51843e-06 0 0)
(9.5136e-06 0 0)
(9.5088e-06 0 0)
(9.50403e-06 0 0)
(9.49927e-06 0 0)
(9.49451e-06 0 0)
(9.48977e-06 0 0)
(9.48501e-06 0 0)
(9.48025e-06 0 0)
(9.47548e-06 0 0)
(9.47068e-06 0 0)
(9.46586e-06 0 0)
(9.46101e-06 0 0)
(9.45614e-06 0 0)
(9.45123e-06 0 0)
(9.44629e-06 0 0)
(9.44131e-06 0 0)
(9.43631e-06 0 0)
(9.43127e-06 0 0)
(9.42619e-06 0 0)
(9.42109e-06 0 0)
(9.41596e-06 0 0)
(9.4108e-06 0 0)
(9.40561e-06 0 0)
(9.4004e-06 0 0)
(9.39516e-06 0 0)
(9.38991e-06 0 0)
(9.38463e-06 0 0)
(9.37934e-06 0 0)
(9.37404e-06 0 0)
(9.36872e-06 0 0)
(9.36339e-06 0 0)
(9.35805e-06 0 0)
(9.3527e-06 0 0)
(9.34734e-06 0 0)
(9.34197e-06 0 0)
(9.3366e-06 0 0)
(9.33123e-06 0 0)
(9.32585e-06 0 0)
(9.32046e-06 0 0)
(9.31507e-06 0 0)
(9.30967e-06 0 0)
(9.30427e-06 0 0)
(9.29887e-06 0 0)
(9.29346e-06 0 0)
(9.28805e-06 0 0)
(9.28263e-06 0 0)
(9.27721e-06 0 0)
(9.27178e-06 0 0)
(9.26635e-06 0 0)
(9.26091e-06 0 0)
(9.25547e-06 0 0)
(9.25002e-06 0 0)
(9.24456e-06 0 0)
(9.23909e-06 0 0)
(9.23362e-06 0 0)
(9.22814e-06 0 0)
(9.22265e-06 0 0)
(9.21716e-06 0 0)
(9.21165e-06 0 0)
(9.20614e-06 0 0)
(9.20062e-06 0 0)
(9.19508e-06 0 0)
(9.18954e-06 0 0)
(9.18399e-06 0 0)
(9.17843e-06 0 0)
(9.17286e-06 0 0)
(9.16728e-06 0 0)
(9.16168e-06 0 0)
(9.15608e-06 0 0)
(9.15047e-06 0 0)
(9.14485e-06 0 0)
(9.13921e-06 0 0)
(9.13357e-06 0 0)
(9.12791e-06 0 0)
(9.12225e-06 0 0)
(9.11657e-06 0 0)
(9.11089e-06 0 0)
(9.10519e-06 0 0)
(9.09948e-06 0 0)
(9.09376e-06 0 0)
(9.08803e-06 0 0)
(9.08229e-06 0 0)
(9.07654e-06 0 0)
(9.07077e-06 0 0)
(9.065e-06 0 0)
(9.05922e-06 0 0)
(9.05343e-06 0 0)
(9.04762e-06 0 0)
(9.04181e-06 0 0)
(9.03598e-06 0 0)
(9.03015e-06 0 0)
(9.02431e-06 0 0)
(9.01845e-06 0 0)
(9.01259e-06 0 0)
(9.00672e-06 0 0)
(9.00083e-06 0 0)
(8.99494e-06 0 0)
(8.98904e-06 0 0)
(8.98313e-06 0 0)
(8.97721e-06 0 0)
(8.97128e-06 0 0)
(8.96534e-06 0 0)
(8.95939e-06 0 0)
(8.95343e-06 0 0)
(8.94746e-06 0 0)
(8.94148e-06 0 0)
(8.9355e-06 0 0)
(8.9295e-06 0 0)
(8.92349e-06 0 0)
(8.91747e-06 0 0)
(8.91144e-06 0 0)
(8.90539e-06 0 0)
(8.89933e-06 0 0)
(8.89325e-06 0 0)
(8.88716e-06 0 0)
(8.88105e-06 0 0)
(8.87493e-06 0 0)
(8.86878e-06 0 0)
(8.86261e-06 0 0)
(8.85642e-06 0 0)
(8.85021e-06 0 0)
(8.84397e-06 0 0)
(8.8377e-06 0 0)
(8.83141e-06 0 0)
(8.82509e-06 0 0)
(8.81875e-06 0 0)
(8.81237e-06 0 0)
(8.80596e-06 0 0)
(8.79952e-06 0 0)
(8.79306e-06 0 0)
(8.78656e-06 0 0)
(8.78003e-06 0 0)
(8.77348e-06 0 0)
(8.7669e-06 0 0)
(8.76029e-06 0 0)
(8.75366e-06 0 0)
(8.74701e-06 0 0)
(8.74034e-06 0 0)
(8.73365e-06 0 0)
(8.72695e-06 0 0)
(8.72023e-06 0 0)
(8.71351e-06 0 0)
(8.70679e-06 0 0)
(8.70006e-06 0 0)
(8.69334e-06 0 0)
(8.68662e-06 0 0)
(8.67991e-06 0 0)
(8.67322e-06 0 0)
(8.66654e-06 0 0)
(8.65989e-06 0 0)
(8.65326e-06 0 0)
(8.64666e-06 0 0)
(8.64009e-06 0 0)
(8.63355e-06 0 0)
(8.62705e-06 0 0)
(8.62059e-06 0 0)
(8.61417e-06 0 0)
(8.60778e-06 0 0)
(8.60144e-06 0 0)
(8.59514e-06 0 0)
(8.58889e-06 0 0)
(8.58267e-06 0 0)
(8.57649e-06 0 0)
(8.57035e-06 0 0)
(8.56424e-06 0 0)
(8.55816e-06 0 0)
(8.55212e-06 0 0)
(8.5461e-06 0 0)
(8.5401e-06 0 0)
(8.53412e-06 0 0)
(8.52815e-06 0 0)
(8.5222e-06 0 0)
(8.51625e-06 0 0)
(8.5103e-06 0 0)
(8.50436e-06 0 0)
(8.4984e-06 0 0)
(8.49244e-06 0 0)
(8.48647e-06 0 0)
(8.48049e-06 0 0)
(8.47449e-06 0 0)
(8.46847e-06 0 0)
(8.46243e-06 0 0)
(8.45636e-06 0 0)
(8.45028e-06 0 0)
(8.44417e-06 0 0)
(8.43803e-06 0 0)
(8.43187e-06 0 0)
(8.42568e-06 0 0)
(8.41946e-06 0 0)
(8.41323e-06 0 0)
(8.40696e-06 0 0)
(8.40067e-06 0 0)
(8.39436e-06 0 0)
(8.38803e-06 0 0)
(8.38167e-06 0 0)
(8.3753e-06 0 0)
(8.3689e-06 0 0)
(8.36248e-06 0 0)
(8.35605e-06 0 0)
(8.3496e-06 0 0)
(8.34313e-06 0 0)
(8.33665e-06 0 0)
(8.33015e-06 0 0)
(8.32364e-06 0 0)
(8.31712e-06 0 0)
(8.31058e-06 0 0)
(8.30403e-06 0 0)
(8.29747e-06 0 0)
(8.2909e-06 0 0)
(8.28432e-06 0 0)
(8.27773e-06 0 0)
(8.27112e-06 0 0)
(8.26451e-06 0 0)
(8.25788e-06 0 0)
(8.25125e-06 0 0)
(8.2446e-06 0 0)
(8.23795e-06 0 0)
(8.23128e-06 0 0)
(8.2246e-06 0 0)
(8.21791e-06 0 0)
(8.21121e-06 0 0)
(8.2045e-06 0 0)
(8.19778e-06 0 0)
(8.19105e-06 0 0)
(8.1843e-06 0 0)
(8.17755e-06 0 0)
(8.17078e-06 0 0)
(8.16399e-06 0 0)
(8.1572e-06 0 0)
(8.15039e-06 0 0)
(8.14357e-06 0 0)
(8.13673e-06 0 0)
(8.12989e-06 0 0)
(8.12302e-06 0 0)
(8.11615e-06 0 0)
(8.10926e-06 0 0)
(8.10235e-06 0 0)
(8.09543e-06 0 0)
(8.0885e-06 0 0)
(8.08155e-06 0 0)
(8.07458e-06 0 0)
(8.0676e-06 0 0)
(8.06061e-06 0 0)
(8.0536e-06 0 0)
(8.04657e-06 0 0)
(8.03953e-06 0 0)
(8.03247e-06 0 0)
(8.0254e-06 0 0)
(8.01831e-06 0 0)
(8.01121e-06 0 0)
(8.00409e-06 0 0)
(7.99695e-06 0 0)
(7.9898e-06 0 0)
(7.98263e-06 0 0)
(7.97545e-06 0 0)
(7.96824e-06 0 0)
(7.96103e-06 0 0)
(7.95379e-06 0 0)
(7.94654e-06 0 0)
(7.93928e-06 0 0)
(7.932e-06 0 0)
(7.9247e-06 0 0)
(7.91738e-06 0 0)
(7.91005e-06 0 0)
(7.90271e-06 0 0)
(7.89534e-06 0 0)
(7.88796e-06 0 0)
(7.88057e-06 0 0)
(7.87315e-06 0 0)
(7.86573e-06 0 0)
(7.85828e-06 0 0)
(7.85082e-06 0 0)
(7.84334e-06 0 0)
(7.83584e-06 0 0)
(7.82833e-06 0 0)
(7.8208e-06 0 0)
(7.81326e-06 0 0)
(7.80569e-06 0 0)
(7.79811e-06 0 0)
(7.79051e-06 0 0)
(7.7829e-06 0 0)
(7.77526e-06 0 0)
(7.7676e-06 0 0)
(7.75993e-06 0 0)
(7.75223e-06 0 0)
(7.74452e-06 0 0)
(7.73678e-06 0 0)
(7.72902e-06 0 0)
(7.72124e-06 0 0)
(7.71344e-06 0 0)
(7.70561e-06 0 0)
(7.69776e-06 0 0)
(7.68988e-06 0 0)
(7.68197e-06 0 0)
(7.67404e-06 0 0)
(7.66608e-06 0 0)
(7.6581e-06 0 0)
(7.65008e-06 0 0)
(7.64204e-06 0 0)
(7.63396e-06 0 0)
(7.62585e-06 0 0)
(7.61772e-06 0 0)
(7.60955e-06 0 0)
(7.60135e-06 0 0)
(7.59312e-06 0 0)
(7.58486e-06 0 0)
(7.57657e-06 0 0)
(7.56825e-06 0 0)
(7.5599e-06 0 0)
(7.55152e-06 0 0)
(7.54311e-06 0 0)
(7.53468e-06 0 0)
(7.52622e-06 0 0)
(7.51773e-06 0 0)
(7.50922e-06 0 0)
(7.50069e-06 0 0)
(7.49214e-06 0 0)
(7.48357e-06 0 0)
(7.47498e-06 0 0)
(7.46638e-06 0 0)
(7.45776e-06 0 0)
(7.44912e-06 0 0)
(7.44048e-06 0 0)
(7.43182e-06 0 0)
(7.42315e-06 0 0)
(7.41448e-06 0 0)
(7.40581e-06 0 0)
(7.39713e-06 0 0)
(7.38846e-06 0 0)
(7.37978e-06 0 0)
(7.37111e-06 0 0)
(7.36245e-06 0 0)
(7.35379e-06 0 0)
(7.34514e-06 0 0)
(7.33649e-06 0 0)
(7.32786e-06 0 0)
(7.31923e-06 0 0)
(7.31061e-06 0 0)
(7.30199e-06 0 0)
(7.29339e-06 0 0)
(7.28479e-06 0 0)
(7.2762e-06 0 0)
(7.26761e-06 0 0)
(7.25904e-06 0 0)
(7.25046e-06 0 0)
(7.2419e-06 0 0)
(7.23333e-06 0 0)
(7.22476e-06 0 0)
(7.21618e-06 0 0)
(7.2076e-06 0 0)
(7.199e-06 0 0)
(7.1904e-06 0 0)
(7.18178e-06 0 0)
(7.17314e-06 0 0)
(7.16448e-06 0 0)
(7.15581e-06 0 0)
(7.14711e-06 0 0)
(7.13839e-06 0 0)
(7.12964e-06 0 0)
(7.12086e-06 0 0)
(7.11206e-06 0 0)
(7.10323e-06 0 0)
(7.09436e-06 0 0)
(7.08546e-06 0 0)
(7.07653e-06 0 0)
(7.06756e-06 0 0)
(7.05856e-06 0 0)
(7.04952e-06 0 0)
(7.04044e-06 0 0)
(7.03133e-06 0 0)
(7.02218e-06 0 0)
(7.013e-06 0 0)
(7.00378e-06 0 0)
(6.99453e-06 0 0)
(6.98525e-06 0 0)
(6.97592e-06 0 0)
(6.96657e-06 0 0)
(6.95717e-06 0 0)
(6.94775e-06 0 0)
(6.9383e-06 0 0)
(6.92881e-06 0 0)
(6.9193e-06 0 0)
(6.90976e-06 0 0)
(6.90018e-06 0 0)
(6.89058e-06 0 0)
(6.88096e-06 0 0)
(6.87131e-06 0 0)
(6.86164e-06 0 0)
(6.85194e-06 0 0)
(6.84223e-06 0 0)
(6.8325e-06 0 0)
(3.51001e-06 0 0)
)
;

boundaryField
{
    inlet
    {
        type            fixedValue;
        value           uniform (1.13622e-05 0 0);
    }
    outlet
    {
        type            zeroGradient;
    }
    emptyWalls
    {
        type            empty;
    }
}


// ************************************************************************* //
