/*--------------------------------*- C++ -*----------------------------------*\
  =========                 |
  \\      /  F ield         | OpenFOAM: The Open Source CFD Toolbox
   \\    /   O peration     | Website:  https://openfoam.org
    \\  /    A nd           | Version:  9
     \\/     M anipulation  |
\*---------------------------------------------------------------------------*/
FoamFile
{
    format      ascii;
    class       volScalarField;
    location    "14600";
    object      krb;
}
// * * * * * * * * * * * * * * * * * * * * * * * * * * * * * * * * * * * * * //

dimensions      [0 0 0 0 0 0 0];

internalField   nonuniform List<scalar> 
1000
(
0.0979751
0.098529
0.0994494
0.100145
0.101081
0.101794
0.102714
0.103491
0.104355
0.10515
0.105945
0.106673
0.107362
0.107969
0.108516
0.108995
0.109498
0.110379
0.113205
0.124995
0.220451
0.432413
0.485041
0.50096
0.50864
0.513445
0.516893
0.519549
0.521685
0.523437
0.524892
0.526107
0.527121
0.527968
0.528671
0.529254
0.529729
0.530115
0.530413
0.530644
0.530797
0.530894
0.53092
0.530888
0.530788
0.530621
0.530383
0.530073
0.529686
0.529213
0.52864
0.527945
0.527091
0.526025
0.524682
0.522999
0.520951
0.518595
0.51605
0.5134
0.51069
0.50795
0.505199
0.50245
0.499712
0.49699
0.494287
0.491602
0.488938
0.486297
0.483679
0.481087
0.478523
0.475989
0.473484
0.471011
0.468568
0.466157
0.463777
0.461431
0.459117
0.456838
0.454593
0.452382
0.450203
0.448056
0.445937
0.443845
0.441778
0.439734
0.43771
0.435705
0.433717
0.431746
0.429792
0.427854
0.425932
0.424026
0.422137
0.420265
0.41841
0.416572
0.414752
0.41295
0.411166
0.409399
0.40765
0.405918
0.404203
0.402506
0.400824
0.399159
0.397509
0.395875
0.394256
0.392652
0.391062
0.389486
0.387925
0.386377
0.384842
0.383321
0.381813
0.380317
0.378834
0.377364
0.375906
0.374459
0.373025
0.371602
0.37019
0.36879
0.367401
0.366023
0.364655
0.363298
0.361952
0.360616
0.35929
0.357974
0.356668
0.355372
0.354085
0.352807
0.35154
0.350281
0.349031
0.34779
0.346558
0.345335
0.34412
0.342914
0.341716
0.340527
0.339345
0.338172
0.337007
0.335849
0.334699
0.333557
0.332422
0.331295
0.330175
0.329063
0.327957
0.326859
0.325768
0.324683
0.323606
0.322535
0.321471
0.320414
0.319363
0.318319
0.317281
0.31625
0.315225
0.314205
0.313192
0.312185
0.311184
0.310189
0.309199
0.308216
0.307238
0.306265
0.305299
0.304337
0.303381
0.30243
0.301484
0.300543
0.299607
0.298675
0.297748
0.296825
0.295906
0.29499
0.294079
0.293172
0.292269
0.29137
0.290476
0.289585
0.288699
0.287817
0.28694
0.286068
0.285201
0.284339
0.283483
0.282632
0.281787
0.280948
0.280115
0.279288
0.278467
0.277652
0.276843
0.27604
0.275242
0.274449
0.27366
0.272877
0.272097
0.271321
0.270548
0.269779
0.269013
0.268249
0.267488
0.26673
0.265974
0.265221
0.26447
0.263722
0.262976
0.262232
0.261492
0.260754
0.260019
0.259287
0.258557
0.257831
0.257108
0.256388
0.25567
0.254956
0.254245
0.253537
0.252832
0.252131
0.251432
0.250736
0.250043
0.249353
0.248666
0.247982
0.247301
0.246622
0.245946
0.245273
0.244603
0.243935
0.24327
0.242607
0.241947
0.24129
0.240635
0.239982
0.239332
0.238685
0.23804
0.237397
0.236756
0.236118
0.235483
0.234849
0.234218
0.233589
0.232962
0.232338
0.231716
0.231096
0.230478
0.229862
0.229248
0.228637
0.228027
0.22742
0.226814
0.226211
0.22561
0.225011
0.224413
0.223818
0.223225
0.222633
0.222044
0.221456
0.22087
0.220287
0.219705
0.219125
0.218546
0.21797
0.217395
0.216822
0.216251
0.215682
0.215114
0.214548
0.213984
0.213422
0.212861
0.212302
0.211745
0.211189
0.210635
0.210083
0.209532
0.208983
0.208435
0.207889
0.207345
0.206802
0.206261
0.205721
0.205183
0.204646
0.204111
0.203578
0.203045
0.202515
0.201985
0.201457
0.200931
0.200406
0.199882
0.19936
0.198838
0.198319
0.1978
0.197282
0.196766
0.196251
0.195737
0.195224
0.194712
0.194201
0.193691
0.193182
0.192674
0.192167
0.191662
0.191157
0.190653
0.19015
0.189649
0.189148
0.188649
0.188151
0.187655
0.187159
0.186665
0.186173
0.185682
0.185192
0.184705
0.184218
0.183734
0.183251
0.18277
0.18229
0.181812
0.181336
0.180861
0.180388
0.179917
0.179447
0.178978
0.178511
0.178045
0.17758
0.177116
0.176653
0.176191
0.17573
0.17527
0.17481
0.174351
0.173893
0.173435
0.172978
0.172521
0.172065
0.17161
0.171155
0.1707
0.170247
0.169794
0.169341
0.168889
0.168438
0.167987
0.167537
0.167088
0.166639
0.166191
0.165744
0.165297
0.164851
0.164406
0.163962
0.163518
0.163075
0.162633
0.162191
0.16175
0.16131
0.16087
0.160431
0.159993
0.159556
0.159119
0.158682
0.158246
0.157811
0.157377
0.156943
0.156509
0.156076
0.155644
0.155212
0.154781
0.15435
0.15392
0.15349
0.153061
0.152632
0.152203
0.151776
0.151348
0.150921
0.150494
0.150068
0.149642
0.149217
0.148792
0.148367
0.147943
0.147519
0.147096
0.146672
0.14625
0.145827
0.145405
0.144983
0.144561
0.14414
0.143719
0.143298
0.142878
0.142458
0.142038
0.141618
0.141198
0.140779
0.14036
0.139941
0.139522
0.139103
0.138685
0.138267
0.137849
0.137431
0.137013
0.136595
0.136177
0.13576
0.135342
0.134925
0.134507
0.13409
0.133673
0.133255
0.132838
0.132421
0.132003
0.131586
0.131169
0.130751
0.130334
0.129917
0.129499
0.129081
0.128664
0.128246
0.127828
0.12741
0.126991
0.126573
0.126154
0.125735
0.125316
0.124897
0.124477
0.124057
0.123637
0.123217
0.122796
0.122375
0.121954
0.121532
0.12111
0.120687
0.120264
0.119841
0.119417
0.118993
0.118568
0.118143
0.117717
0.117291
0.116864
0.116437
0.11601
0.115581
0.115153
0.114724
0.114295
0.113865
0.113435
0.113005
0.112574
0.112144
0.111713
0.111283
0.110853
0.110423
0.109994
0.109565
0.109138
0.108712
0.108288
0.107866
0.107447
0.107031
0.106619
0.106212
0.105811
0.105416
0.105029
0.104651
0.104283
0.103926
0.103582
0.103253
0.102938
0.102641
0.102361
0.1021
0.101858
0.101637
0.101435
0.101254
0.101092
0.100949
0.100824
0.100716
0.100622
0.100541
0.100471
0.100408
0.100347
0.100279
0.100192
0.100063
0.0998546
0.0994983
0.0988778
0.0977955
0.0959335
0.0928237
0.0878947
0.0807079
0.0714359
0.0612457
0.0519179
0.0447713
0.0400448
0.0372293
0.0356591
0.0348162
0.0343731
0.0341428
0.0340238
0.0339625
0.033931
0.0339148
0.0339065
0.0339023
0.0339001
0.033899
0.0338984
0.0338982
0.0338981
0.033898
0.033898
0.0338981
0.0338981
0.0338981
0.0338982
0.0338982
0.0338983
0.0338983
0.0338984
0.0338985
0.0338985
0.0338986
0.0338986
0.0338987
0.0338987
0.0338988
0.0338988
0.0338988
0.0338989
0.0338989
0.0338989
0.033899
0.033899
0.033899
0.033899
0.033899
0.033899
0.033899
0.033899
0.033899
0.0338989
0.0338989
0.0338989
0.0338988
0.0338988
0.0338987
0.0338987
0.0338986
0.0338985
0.0338984
0.0338984
0.0338983
0.0338982
0.0338981
0.033898
0.0338979
0.0338978
0.0338977
0.0338976
0.0338975
0.0338974
0.0338973
0.0338972
0.0338971
0.033897
0.0338969
0.0338968
0.0338967
0.0338966
0.0338965
0.0338964
0.0338963
0.0338962
0.0338961
0.033896
0.033896
0.0338959
0.0338958
0.0338957
0.0338956
0.0338955
0.0338955
0.0338954
0.0338953
0.0338952
0.0338952
0.0338951
0.033895
0.033895
0.0338949
0.0338948
0.0338948
0.0338947
0.0338946
0.0338946
0.0338945
0.0338945
0.0338944
0.0338944
0.0338943
0.0338943
0.0338942
0.0338942
0.0338941
0.0338941
0.033894
0.033894
0.0338939
0.0338938
0.0338938
0.0338937
0.0338937
0.0338936
0.0338935
0.0338934
0.0338934
0.0338933
0.0338932
0.0338931
0.033893
0.0338929
0.0338927
0.0338926
0.0338925
0.0338923
0.0338922
0.033892
0.0338918
0.0338917
0.0338915
0.0338913
0.0338911
0.0338909
0.0338907
0.0338904
0.0338902
0.03389
0.0338897
0.0338895
0.0338892
0.033889
0.0338887
0.0338885
0.0338882
0.033888
0.0338878
0.0338876
0.0338873
0.0338871
0.0338869
0.0338868
0.0338866
0.0338865
0.0338863
0.0338862
0.0338861
0.0338861
0.033886
0.033886
0.033886
0.033886
0.033886
0.033886
0.0338861
0.0338862
0.0338863
0.0338865
0.0338867
0.0338868
0.033887
0.0338872
0.0338874
0.0338877
0.0338879
0.0338881
0.0338884
0.0338886
0.0338889
0.0338891
0.0338894
0.0338896
0.0338899
0.0338901
0.0338903
0.0338905
0.0338907
0.0338909
0.0338911
0.0338913
0.0338914
0.0338916
0.0338917
0.0338918
0.033892
0.0338921
0.0338922
0.0338922
0.0338923
0.0338924
0.0338924
0.0338925
0.0338925
0.0338926
0.0338926
0.0338927
0.0338927
0.0338927
0.0338928
0.0338929
0.0338929
0.033893
0.0338931
0.0338932
0.0338933
0.0338934
0.0338935
0.0338936
0.0338938
0.0338939
0.033894
0.0338941
0.0338943
0.0338944
0.0338945
0.0338946
0.0338947
0.0338948
0.0338949
0.033895
0.0338951
0.0338952
0.0338953
0.0338954
0.0338954
0.0338955
0.0338956
0.0338956
0.0338957
0.0338957
0.0338958
0.0338958
0.0338958
0.0338959
0.0338959
0.0338959
0.033896
0.033896
0.033896
0.033896
0.0338961
0.0338961
0.0338961
0.0338961
0.0338961
0.0338962
0.0338962
0.0338962
0.0338962
0.0338962
0.0338962
0.0338963
0.0338963
0.0338963
0.0338963
0.0338963
0.0338963
0.0338963
0.0338963
0.0338963
0.0338963
0.0338963
0.0338963
0.0338963
0.0338963
0.0338963
0.0338963
0.0338962
0.0338962
0.0338962
0.0338962
0.0338962
0.0338962
0.0338961
0.0338961
0.0338961
0.0338961
0.033896
0.033896
0.033896
0.0338959
0.0338959
0.0338959
0.0338958
0.0338958
0.0338957
0.0338957
0.0338957
0.0338956
0.0338956
0.0338955
0.0338955
0.0338954
0.0338954
0.0338953
0.0338953
0.0338952
0.0338952
0.0338951
0.0338951
0.033895
0.0338949
0.0338949
0.0338948
0.0338947
0.0338947
0.0338946
0.0338945
0.0338944
0.0338943
0.0338942
0.0338941
0.033894
0.0338939
0.0338938
0.0338936
0.0338935
0.0338934
0.0338932
0.0338931
0.0338929
0.0338928
0.0338926
0.0338924
0.0338922
0.033892
0.0338918
0.0338916
0.0338914
0.0338912
0.033891
0.0338908
0.0338905
0.0338903
0.0338901
0.0338898
0.0338896
0.0338893
0.0338891
0.0338889
0.0338886
0.0338884
0.0338882
0.033888
0.0338878
0.0338876
0.0338874
0.0338872
0.0338871
0.0338869
0.0338868
0.0338867
0.0338866
0.0338865
0.0338864
0.0338863
0.0338863
0.0338863
0.0338863
0.0338863
0.0338863
0.0338864
0.0338864
0.0338865
0.0338866
0.0338868
0.0338869
0.0338871
0.0338872
0.0338874
0.0338876
0.0338878
0.033888
0.0338882
0.0338884
0.0338886
0.0338888
0.0338891
0.0338893
0.0338895
0.0338897
0.0338899
0.0338901
0.0338903
0.0338905
0.0338907
0.0338909
0.033891
0.0338912
0.0338913
0.0338915
0.0338916
0.0338918
)
;

boundaryField
{
    inlet
    {
        type            calculated;
        value           uniform 0.0976562;
    }
    outlet
    {
        type            calculated;
        value           uniform 0.0338918;
    }
    emptyWalls
    {
        type            empty;
    }
}


// ************************************************************************* //
