/*--------------------------------*- C++ -*----------------------------------*\
  =========                 |
  \\      /  F ield         | OpenFOAM: The Open Source CFD Toolbox
   \\    /   O peration     | Website:  https://openfoam.org
    \\  /    A nd           | Version:  9
     \\/     M anipulation  |
\*---------------------------------------------------------------------------*/
FoamFile
{
    format      ascii;
    class       volScalarField;
    location    "14600";
    object      Sb;
}
// * * * * * * * * * * * * * * * * * * * * * * * * * * * * * * * * * * * * * //

dimensions      [0 0 0 0 0 0 0];

internalField   nonuniform List<scalar> 
1000
(
0.350408
0.351115
0.352285
0.353166
0.354346
0.355242
0.356392
0.35736
0.358432
0.359415
0.360393
0.361286
0.362129
0.362869
0.363534
0.364115
0.364724
0.365786
0.369167
0.382837
0.475618
0.626065
0.657159
0.666228
0.670552
0.67324
0.675162
0.676638
0.677822
0.678792
0.679595
0.680266
0.680825
0.681291
0.681678
0.681998
0.68226
0.682472
0.682635
0.682762
0.682846
0.6829
0.682914
0.682897
0.682842
0.68275
0.682619
0.682449
0.682236
0.681976
0.681661
0.681279
0.680808
0.680221
0.67948
0.678549
0.677416
0.676108
0.674693
0.673215
0.6717
0.670165
0.668619
0.66707
0.665523
0.66398
0.662444
0.660915
0.659393
0.65788
0.656376
0.654883
0.653403
0.651935
0.650482
0.649042
0.647616
0.646205
0.64481
0.64343
0.642066
0.640719
0.639388
0.638075
0.636778
0.635496
0.634228
0.632974
0.631731
0.630499
0.629277
0.628063
0.626857
0.625659
0.624468
0.623284
0.622108
0.620938
0.619777
0.618623
0.617477
0.616339
0.61521
0.614089
0.612978
0.611874
0.61078
0.609694
0.608616
0.607547
0.606485
0.605432
0.604387
0.603349
0.602318
0.601295
0.600279
0.599271
0.598269
0.597274
0.596285
0.595303
0.594328
0.593359
0.592396
0.59144
0.590489
0.589545
0.588606
0.587673
0.586746
0.585825
0.584909
0.583998
0.583093
0.582194
0.581299
0.58041
0.579526
0.578647
0.577773
0.576904
0.57604
0.575181
0.574326
0.573476
0.572631
0.57179
0.570954
0.570122
0.569294
0.568471
0.567652
0.566837
0.566027
0.565221
0.564418
0.56362
0.562826
0.562035
0.561249
0.560466
0.559687
0.558912
0.55814
0.557373
0.556609
0.555848
0.555091
0.554337
0.553588
0.552841
0.552098
0.551358
0.550622
0.549889
0.549159
0.548432
0.547709
0.546988
0.546271
0.545557
0.544846
0.544137
0.543432
0.54273
0.542031
0.541334
0.54064
0.539949
0.539261
0.538575
0.537891
0.537209
0.53653
0.535853
0.535178
0.534504
0.533833
0.533163
0.532496
0.53183
0.531166
0.530505
0.529846
0.529189
0.528534
0.527883
0.527234
0.526588
0.525945
0.525305
0.524669
0.524036
0.523407
0.522782
0.52216
0.521542
0.520927
0.520316
0.519708
0.519103
0.518501
0.517901
0.517303
0.516708
0.516114
0.515522
0.514932
0.514342
0.513754
0.513167
0.512582
0.511997
0.511413
0.510831
0.510249
0.509669
0.50909
0.508513
0.507936
0.507362
0.506788
0.506217
0.505646
0.505078
0.504511
0.503946
0.503382
0.50282
0.50226
0.501701
0.501144
0.500588
0.500035
0.499482
0.498932
0.498382
0.497835
0.497288
0.496744
0.4962
0.495659
0.495118
0.494579
0.494041
0.493505
0.49297
0.492436
0.491904
0.491373
0.490843
0.490314
0.489787
0.489261
0.488736
0.488212
0.48769
0.487169
0.486648
0.486129
0.485612
0.485095
0.484579
0.484065
0.483551
0.483039
0.482528
0.482018
0.481508
0.481
0.480493
0.479987
0.479482
0.478978
0.478475
0.477973
0.477472
0.476972
0.476473
0.475975
0.475478
0.474981
0.474486
0.473991
0.473498
0.473005
0.472513
0.472023
0.471532
0.471043
0.470555
0.470068
0.469581
0.469095
0.46861
0.468126
0.467643
0.46716
0.466678
0.466197
0.465717
0.465238
0.464759
0.464281
0.463804
0.463328
0.462852
0.462377
0.461903
0.461429
0.460957
0.460484
0.460013
0.459542
0.459072
0.458603
0.458134
0.457665
0.457198
0.45673
0.456264
0.455798
0.455332
0.454867
0.454402
0.453937
0.453473
0.453009
0.452546
0.452083
0.45162
0.451157
0.450695
0.450233
0.449772
0.449311
0.44885
0.44839
0.44793
0.44747
0.447011
0.446553
0.446095
0.445638
0.445182
0.444727
0.444272
0.443818
0.443365
0.442913
0.442462
0.442013
0.441564
0.441116
0.440669
0.440222
0.439777
0.439333
0.438889
0.438447
0.438004
0.437563
0.437122
0.436681
0.436241
0.435801
0.435361
0.434922
0.434482
0.434043
0.433604
0.433164
0.432725
0.432285
0.431846
0.431406
0.430967
0.430527
0.430088
0.429648
0.429208
0.428769
0.428329
0.42789
0.42745
0.427011
0.426571
0.426132
0.425693
0.425254
0.424815
0.424376
0.423938
0.423499
0.42306
0.422622
0.422184
0.421745
0.421307
0.420869
0.420431
0.419993
0.419555
0.419117
0.418679
0.418242
0.417804
0.417366
0.416928
0.41649
0.416052
0.415614
0.415176
0.414737
0.414299
0.413861
0.413422
0.412984
0.412545
0.412106
0.411667
0.411228
0.410788
0.410349
0.409909
0.409469
0.409029
0.408589
0.408148
0.407707
0.407266
0.406824
0.406383
0.405941
0.405499
0.405056
0.404613
0.40417
0.403726
0.403282
0.402838
0.402394
0.401948
0.401503
0.401057
0.400611
0.400164
0.399717
0.399269
0.398821
0.398373
0.397923
0.397474
0.397024
0.396573
0.396122
0.39567
0.395217
0.394764
0.394311
0.393857
0.393402
0.392946
0.39249
0.392033
0.391576
0.391117
0.390658
0.390198
0.389738
0.389277
0.388814
0.388352
0.387888
0.387423
0.386958
0.386491
0.386024
0.385556
0.385087
0.384617
0.384145
0.383673
0.3832
0.382726
0.382251
0.381774
0.381297
0.380818
0.380338
0.379857
0.379375
0.378891
0.378406
0.37792
0.377433
0.376944
0.376454
0.375962
0.37547
0.374975
0.374479
0.373982
0.373483
0.372983
0.372481
0.371978
0.371474
0.370967
0.37046
0.369951
0.369441
0.36893
0.368417
0.367903
0.367388
0.366873
0.366356
0.365839
0.365322
0.364805
0.364288
0.363772
0.363257
0.362744
0.362233
0.361725
0.361221
0.360722
0.360229
0.359743
0.359266
0.358798
0.358343
0.357901
0.357474
0.357064
0.356672
0.356301
0.355951
0.355625
0.355322
0.355044
0.354791
0.354563
0.35436
0.35418
0.354022
0.353886
0.353768
0.353666
0.353578
0.353498
0.35342
0.353335
0.353225
0.353062
0.352798
0.352346
0.351558
0.350177
0.347782
0.343732
0.337171
0.327267
0.313816
0.297984
0.282289
0.26928
0.260095
0.254363
0.251071
0.249274
0.248321
0.247823
0.247565
0.247431
0.247363
0.247328
0.24731
0.247301
0.247296
0.247293
0.247292
0.247292
0.247291
0.247291
0.247291
0.247291
0.247291
0.247292
0.247292
0.247292
0.247292
0.247292
0.247292
0.247292
0.247292
0.247292
0.247293
0.247293
0.247293
0.247293
0.247293
0.247293
0.247293
0.247293
0.247293
0.247293
0.247293
0.247293
0.247293
0.247293
0.247293
0.247293
0.247293
0.247293
0.247293
0.247293
0.247293
0.247293
0.247293
0.247293
0.247293
0.247293
0.247292
0.247292
0.247292
0.247292
0.247292
0.247291
0.247291
0.247291
0.247291
0.247291
0.24729
0.24729
0.24729
0.24729
0.24729
0.247289
0.247289
0.247289
0.247289
0.247288
0.247288
0.247288
0.247288
0.247288
0.247287
0.247287
0.247287
0.247287
0.247287
0.247286
0.247286
0.247286
0.247286
0.247286
0.247286
0.247285
0.247285
0.247285
0.247285
0.247285
0.247285
0.247285
0.247284
0.247284
0.247284
0.247284
0.247284
0.247284
0.247284
0.247284
0.247283
0.247283
0.247283
0.247283
0.247283
0.247283
0.247283
0.247283
0.247282
0.247282
0.247282
0.247282
0.247282
0.247282
0.247282
0.247282
0.247281
0.247281
0.247281
0.247281
0.247281
0.24728
0.24728
0.24728
0.24728
0.247279
0.247279
0.247279
0.247278
0.247278
0.247278
0.247277
0.247277
0.247276
0.247276
0.247275
0.247275
0.247274
0.247274
0.247273
0.247273
0.247272
0.247272
0.247271
0.247271
0.24727
0.24727
0.247269
0.247269
0.247268
0.247268
0.247267
0.247267
0.247267
0.247266
0.247266
0.247266
0.247266
0.247265
0.247265
0.247265
0.247265
0.247265
0.247265
0.247265
0.247265
0.247266
0.247266
0.247266
0.247267
0.247267
0.247267
0.247268
0.247268
0.247269
0.247269
0.24727
0.24727
0.247271
0.247271
0.247272
0.247273
0.247273
0.247274
0.247274
0.247275
0.247275
0.247275
0.247276
0.247276
0.247277
0.247277
0.247277
0.247278
0.247278
0.247278
0.247278
0.247279
0.247279
0.247279
0.247279
0.247279
0.247279
0.247279
0.247279
0.24728
0.24728
0.24728
0.24728
0.24728
0.24728
0.24728
0.24728
0.247281
0.247281
0.247281
0.247281
0.247282
0.247282
0.247282
0.247282
0.247283
0.247283
0.247283
0.247283
0.247284
0.247284
0.247284
0.247284
0.247285
0.247285
0.247285
0.247285
0.247285
0.247286
0.247286
0.247286
0.247286
0.247286
0.247286
0.247286
0.247286
0.247287
0.247287
0.247287
0.247287
0.247287
0.247287
0.247287
0.247287
0.247287
0.247287
0.247287
0.247287
0.247287
0.247287
0.247287
0.247287
0.247287
0.247287
0.247287
0.247287
0.247287
0.247288
0.247288
0.247288
0.247288
0.247288
0.247288
0.247288
0.247288
0.247288
0.247288
0.247288
0.247288
0.247288
0.247288
0.247287
0.247287
0.247287
0.247287
0.247287
0.247287
0.247287
0.247287
0.247287
0.247287
0.247287
0.247287
0.247287
0.247287
0.247287
0.247287
0.247287
0.247287
0.247286
0.247286
0.247286
0.247286
0.247286
0.247286
0.247286
0.247286
0.247286
0.247286
0.247285
0.247285
0.247285
0.247285
0.247285
0.247285
0.247285
0.247285
0.247284
0.247284
0.247284
0.247284
0.247284
0.247284
0.247283
0.247283
0.247283
0.247283
0.247283
0.247282
0.247282
0.247282
0.247282
0.247281
0.247281
0.247281
0.24728
0.24728
0.24728
0.247279
0.247279
0.247278
0.247278
0.247277
0.247277
0.247276
0.247276
0.247276
0.247275
0.247275
0.247274
0.247274
0.247273
0.247272
0.247272
0.247271
0.247271
0.24727
0.24727
0.24727
0.247269
0.247269
0.247268
0.247268
0.247268
0.247267
0.247267
0.247267
0.247266
0.247266
0.247266
0.247266
0.247266
0.247266
0.247266
0.247266
0.247266
0.247266
0.247266
0.247266
0.247267
0.247267
0.247267
0.247268
0.247268
0.247268
0.247269
0.247269
0.247269
0.24727
0.24727
0.247271
0.247271
0.247272
0.247272
0.247273
0.247273
0.247274
0.247274
0.247275
0.247275
0.247275
0.247276
0.247276
0.247277
0.247277
0.247277
0.247277
0.247278
)
;

boundaryField
{
    inlet
    {
        type            fixedValue;
        value           uniform 0.35;
    }
    outlet
    {
        type            zeroGradient;
    }
    emptyWalls
    {
        type            empty;
    }
}


// ************************************************************************* //
