/*--------------------------------*- C++ -*----------------------------------*\
  =========                 |
  \\      /  F ield         | OpenFOAM: The Open Source CFD Toolbox
   \\    /   O peration     | Website:  https://openfoam.org
    \\  /    A nd           | Version:  9
     \\/     M anipulation  |
\*---------------------------------------------------------------------------*/
FoamFile
{
    format      ascii;
    class       volScalarField;
    location    "10400";
    object      Fb;
}
// * * * * * * * * * * * * * * * * * * * * * * * * * * * * * * * * * * * * * //

dimensions      [0 0 0 0 0 0 0];

internalField   nonuniform List<scalar> 
1000
(
0.805297
0.805204
0.805265
0.805245
0.805302
0.805306
0.805383
0.805415
0.805491
0.805536
0.805593
0.805715
0.805851
0.807421
0.820739
0.832239
0.8342
0.834967
0.835418
0.835723
0.835957
0.836136
0.836277
0.836394
0.836478
0.836551
0.836598
0.836643
0.836635
0.836673
0.836635
0.836631
0.836595
0.836541
0.836465
0.836365
0.836225
0.836037
0.835768
0.835409
0.834943
0.834418
0.833855
0.833265
0.832658
0.832036
0.831402
0.830756
0.830098
0.829427
0.828744
0.828051
0.827353
0.826652
0.82595
0.825245
0.82453
0.823796
0.823032
0.822234
0.8214
0.820533
0.819639
0.818726
0.817802
0.816873
0.815946
0.815027
0.814122
0.81324
0.812388
0.811576
0.810811
0.810098
0.809439
0.808834
0.808278
0.807762
0.807274
0.806804
0.806337
0.805861
0.805366
0.804843
0.804286
0.803694
0.803064
0.802399
0.801702
0.800977
0.800229
0.799464
0.798685
0.797899
0.797107
0.796315
0.795524
0.794735
0.793951
0.793171
0.792396
0.791625
0.790858
0.790094
0.789333
0.788573
0.787815
0.787057
0.7863
0.785541
0.784782
0.784021
0.783259
0.782495
0.781729
0.780961
0.780191
0.779419
0.778644
0.777867
0.777088
0.776307
0.775523
0.774738
0.77395
0.77316
0.772368
0.771574
0.770778
0.76998
0.76918
0.768377
0.767573
0.766767
0.765959
0.765149
0.764337
0.763523
0.762707
0.761889
0.76107
0.760249
0.759425
0.7586
0.757774
0.756945
0.756114
0.755282
0.754448
0.753612
0.752774
0.751934
0.751092
0.750248
0.749403
0.748555
0.747706
0.746854
0.746001
0.745146
0.744288
0.743429
0.742568
0.741705
0.74084
0.739973
0.739105
0.738235
0.737363
0.736489
0.735615
0.734738
0.733861
0.732982
0.732102
0.73122
0.730336
0.729451
0.728563
0.727674
0.726783
0.725889
0.724994
0.724096
0.723196
0.722293
0.721388
0.72048
0.719568
0.718652
0.717732
0.716806
0.715874
0.714935
0.713989
0.713035
0.712072
0.7111
0.710119
0.709128
0.708129
0.707122
0.706107
0.705085
0.704057
0.703026
0.701992
0.700957
0.699923
0.698893
0.697868
0.696851
0.695843
0.694846
0.693863
0.692893
0.69194
0.691002
0.690081
0.689175
0.688285
0.687407
0.686541
0.685685
0.684835
0.68399
0.683146
0.682301
0.681452
0.680599
0.679736
0.678866
0.677984
0.677092
0.676187
0.675272
0.674344
0.673406
0.672456
0.671498
0.670529
0.669554
0.66857
0.667581
0.666586
0.665587
0.664584
0.663578
0.66257
0.661559
0.660547
0.659533
0.658518
0.657502
0.656485
0.655468
0.654449
0.653429
0.652408
0.651385
0.650362
0.649336
0.648309
0.647281
0.64625
0.645217
0.644181
0.643144
0.642104
0.641061
0.640015
0.638967
0.637916
0.636861
0.635804
0.634743
0.633679
0.632611
0.63154
0.630466
0.629388
0.628306
0.627221
0.626132
0.625039
0.623943
0.622842
0.621738
0.62063
0.619519
0.618403
0.617284
0.616161
0.615034
0.613903
0.612768
0.611629
0.610487
0.60934
0.60819
0.607035
0.605877
0.604714
0.603548
0.602377
0.601202
0.600023
0.59884
0.597652
0.596461
0.595264
0.594063
0.592858
0.591648
0.590433
0.589214
0.58799
0.586761
0.585527
0.584288
0.583045
0.581796
0.580542
0.579282
0.578018
0.576748
0.575472
0.574192
0.572906
0.571614
0.570317
0.569014
0.567705
0.566391
0.56507
0.563744
0.562411
0.561073
0.559728
0.558377
0.557019
0.555655
0.554285
0.552907
0.551523
0.550132
0.548734
0.547328
0.545915
0.544494
0.543065
0.541629
0.540184
0.538732
0.53727
0.535799
0.53432
0.53283
0.531332
0.529823
0.528304
0.526774
0.525234
0.523683
0.52212
0.520546
0.51896
0.517362
0.515753
0.514132
0.512499
0.510853
0.509197
0.507528
0.505849
0.504159
0.502459
0.50075
0.499031
0.497304
0.495571
0.493831
0.492088
0.490342
0.488596
0.486853
0.485115
0.483385
0.481667
0.479968
0.478292
0.476644
0.475033
0.473465
0.471948
0.47049
0.469101
0.467789
0.466561
0.465423
0.46438
0.463434
0.462586
0.461834
0.461168
0.460572
0.460022
0.459475
0.45886
0.458055
0.456851
0.454883
0.451528
0.445746
0.435902
0.419703
0.394652
0.359621
0.317294
0.27476
0.239596
0.215087
0.200017
0.191462
0.186828
0.184381
0.183107
0.182449
0.18211
0.181937
0.181849
0.181804
0.181781
0.181771
0.181766
0.181764
0.181764
0.181764
0.181765
0.181766
0.181768
0.18177
0.181772
0.181774
0.181776
0.181778
0.18178
0.181783
0.181785
0.181788
0.181791
0.181794
0.181797
0.1818
0.181803
0.181806
0.181809
0.181812
0.181815
0.181818
0.181821
0.181824
0.181828
0.181831
0.181834
0.181837
0.181839
0.181842
0.181845
0.181848
0.18185
0.181853
0.181855
0.181857
0.181859
0.181861
0.181863
0.181865
0.181867
0.181868
0.18187
0.181871
0.181872
0.181873
0.181874
0.181875
0.181876
0.181876
0.181877
0.181877
0.181877
0.181877
0.181877
0.181877
0.181877
0.181877
0.181877
0.181876
0.181876
0.181875
0.181875
0.181874
0.181873
0.181873
0.181872
0.181871
0.18187
0.181869
0.181868
0.181867
0.181866
0.181865
0.181864
0.181863
0.181861
0.18186
0.181859
0.181857
0.181856
0.181855
0.181853
0.181852
0.18185
0.181849
0.181847
0.181845
0.181844
0.181842
0.181841
0.181839
0.181837
0.181835
0.181834
0.181832
0.18183
0.181828
0.181826
0.181824
0.181822
0.18182
0.181818
0.181816
0.181814
0.181812
0.18181
0.181807
0.181805
0.181802
0.181799
0.181797
0.181794
0.181791
0.181787
0.181784
0.18178
0.181776
0.181772
0.181768
0.181763
0.181758
0.181752
0.181746
0.18174
0.181734
0.181727
0.181719
0.181711
0.181703
0.181694
0.181685
0.181675
0.181665
0.181654
0.181643
0.181632
0.18162
0.181608
0.181595
0.181582
0.18157
0.181557
0.181544
0.181531
0.181518
0.181505
0.181493
0.181481
0.18147
0.181459
0.181449
0.181439
0.181431
0.181423
0.181416
0.181411
0.181406
0.181403
0.181401
0.181401
0.181401
0.181401
0.181402
0.181406
0.181412
0.181419
0.181427
0.181436
0.181446
0.181457
0.181468
0.18148
0.181493
0.181506
0.181519
0.181532
0.181546
0.181559
0.181572
0.181585
0.181598
0.18161
0.181621
0.181632
0.181643
0.181653
0.181662
0.18167
0.181678
0.181686
0.181692
0.181698
0.181704
0.181709
0.181713
0.181717
0.181721
0.181724
0.181727
0.181729
0.181732
0.181734
0.181736
0.181737
0.181739
0.181741
0.181742
0.181743
0.181745
0.181746
0.181748
0.18175
0.181751
0.181753
0.181755
0.181757
0.181759
0.181761
0.181764
0.181766
0.181769
0.181771
0.181774
0.181777
0.18178
0.181783
0.181786
0.181789
0.181792
0.181794
0.181797
0.1818
0.181803
0.181806
0.181808
0.181811
0.181814
0.181816
0.181819
0.181821
0.181823
0.181826
0.181828
0.18183
0.181832
0.181834
0.181836
0.181838
0.18184
0.181841
0.181843
0.181844
0.181846
0.181847
0.181848
0.181849
0.18185
0.181851
0.181852
0.181853
0.181854
0.181854
0.181855
0.181855
0.181856
0.181856
0.181856
0.181856
0.181857
0.181857
0.181857
0.181857
0.181856
0.181856
0.181856
0.181856
0.181855
0.181855
0.181854
0.181854
0.181853
0.181852
0.181852
0.181851
0.18185
0.181849
0.181849
0.181848
0.181847
0.181846
0.181845
0.181843
0.181842
0.181841
0.18184
0.181839
0.181838
0.181836
0.181835
0.181833
0.181832
0.18183
0.181829
0.181827
0.181826
0.181824
0.181822
0.18182
0.181818
0.181816
0.181814
0.181812
0.18181
0.181807
0.181805
0.181802
0.1818
0.181797
0.181794
0.18179
0.181787
0.181783
0.181779
0.181775
0.181771
0.181766
0.181762
0.181756
0.181751
0.181745
0.181739
0.181733
0.181726
0.181719
0.181711
0.181704
0.181695
0.181687
0.181678
0.181669
0.181659
0.18165
0.181639
0.181629
0.181618
0.181608
0.181597
0.181586
0.181575
0.181563
0.181552
0.181541
0.18153
0.18152
0.181509
0.181499
0.181489
0.18148
0.181471
0.181463
0.181456
0.181449
0.181443
0.181438
0.181433
0.18143
0.181427
0.181426
0.181425
0.181425
0.181426
0.181426
0.181429
0.181434
0.181439
0.181445
0.181452
0.181459
0.181468
0.181477
0.181486
0.181496
0.181506
0.181517
0.181527
0.181538
0.181549
0.18156
0.181571
0.181581
0.181591
0.181601
0.181611
0.18162
0.181629
0.181637
0.181645
0.181653
0.18166
0.181666
0.181673
0.181678
0.181683
0.181688
0.181693
0.181697
0.181701
0.181704
0.181708
0.181711
0.181713
0.181716
0.181719
0.181721
0.181723
0.181725
0.181728
0.18173
0.181732
0.181734
0.181736
0.181738
0.18174
0.181742
0.181745
0.181747
0.181749
0.181752
0.181754
0.181757
0.181759
0.181762
0.181764
0.181767
0.18177
0.181772
0.181775
0.181778
0.181781
0.181783
0.181786
0.181789
0.181792
0.181795
0.181797
0.1818
0.181803
0.181806
0.181809
0.181811
0.181814
0.181817
0.181819
0.181822
0.181824
0.181827
0.181829
0.181832
0.181834
0.181836
0.181838
0.181841
0.181843
0.181845
0.181847
0.181848
0.18185
0.181852
0.181854
0.181855
0.181856
0.181858
0.181859
0.18186
0.181861
0.181862
0.181863
0.181864
0.181865
0.181865
0.181866
0.181866
0.181867
0.181867
0.181867
0.181867
0.181867
0.181867
0.181867
0.181867
0.181867
0.181866
0.181866
0.181865
0.181864
0.181864
0.181863
0.181862
0.181861
0.18186
0.181859
0.181858
0.181857
0.181855
0.181854
0.181852
0.181851
0.181849
0.181848
0.181846
0.181844
0.181843
0.181841
0.181839
0.181837
0.181834
0.181832
0.18183
0.181827
0.181825
0.181822
0.181819
0.181816
0.181813
0.18181
0.181807
0.181803
0.181799
0.181796
0.181792
0.181787
0.181783
0.181778
0.181773
0.181768
0.181762
0.181757
0.181751
0.181744
0.181738
0.181731
0.181724
0.181716
0.18171
0.1817
0.181694
0.181683
0.181677
0.181665
0.18166
0.181646
0.181641
0.181627
0.181622
0.181607
0.181602
0.181587
0.181582
0.181567
0.181563
0.181543
)
;

boundaryField
{
    inlet
    {
        type            calculated;
        value           uniform 0.805169;
    }
    outlet
    {
        type            calculated;
        value           uniform 0.181545;
    }
    emptyWalls
    {
        type            empty;
    }
}


// ************************************************************************* //
