/*--------------------------------*- C++ -*----------------------------------*\
  =========                 |
  \\      /  F ield         | OpenFOAM: The Open Source CFD Toolbox
   \\    /   O peration     | Website:  https://openfoam.org
    \\  /    A nd           | Version:  9
     \\/     M anipulation  |
\*---------------------------------------------------------------------------*/
FoamFile
{
    format      ascii;
    class       surfaceScalarField;
    location    "12500";
    object      phic;
}
// * * * * * * * * * * * * * * * * * * * * * * * * * * * * * * * * * * * * * //

dimensions      [0 2 0 0 0 0 0];

internalField   nonuniform List<scalar> 
999
(
3.71543e-15
1.66209e-14
3.95023e-14
7.13916e-14
1.1179e-13
1.59931e-13
2.14604e-13
2.73939e-13
3.35526e-13
3.9666e-13
4.54864e-13
5.08786e-13
5.61137e-13
6.33003e-13
8.31134e-13
1.538e-12
4.63344e-12
1.70897e-11
2.04348e-11
2.14369e-11
2.19326e-11
2.22665e-11
2.2531e-11
2.2759e-11
2.29645e-11
2.31546e-11
2.33331e-11
2.35021e-11
2.36634e-11
2.38184e-11
2.39686e-11
2.41156e-11
2.42606e-11
2.44052e-11
2.45506e-11
2.46982e-11
2.48494e-11
2.5011e-11
2.51807e-11
2.53584e-11
2.5546e-11
2.5747e-11
2.59668e-11
2.62137e-11
2.64999e-11
2.6841e-11
2.72528e-11
2.77449e-11
2.83133e-11
2.89419e-11
2.96132e-11
3.03148e-11
3.10387e-11
3.17794e-11
3.25334e-11
3.32982e-11
3.40719e-11
3.48533e-11
3.56413e-11
3.6435e-11
3.72336e-11
3.8036e-11
3.88417e-11
3.96501e-11
4.04609e-11
4.12742e-11
4.20901e-11
4.29086e-11
4.37299e-11
4.45542e-11
4.53814e-11
4.62119e-11
4.70458e-11
4.78835e-11
4.87253e-11
4.95716e-11
5.04228e-11
5.1279e-11
5.21405e-11
5.30069e-11
5.38781e-11
5.47535e-11
5.56325e-11
5.65145e-11
5.73988e-11
5.82849e-11
5.91722e-11
6.00603e-11
6.09488e-11
6.18377e-11
6.27268e-11
6.36163e-11
6.45063e-11
6.5397e-11
6.62886e-11
6.71813e-11
6.80754e-11
6.8971e-11
6.98683e-11
7.07675e-11
7.16687e-11
7.25719e-11
7.34771e-11
7.43843e-11
7.52936e-11
7.62049e-11
7.71181e-11
7.80331e-11
7.895e-11
7.98687e-11
8.0789e-11
8.17111e-11
8.26348e-11
8.35601e-11
8.4487e-11
8.54154e-11
8.63453e-11
8.72768e-11
8.82097e-11
8.91442e-11
9.00802e-11
9.10176e-11
9.19565e-11
9.28969e-11
9.38387e-11
9.47821e-11
9.57268e-11
9.6673e-11
9.76206e-11
9.85697e-11
9.95201e-11
1.00472e-10
1.01425e-10
1.0238e-10
1.03336e-10
1.04293e-10
1.05252e-10
1.06212e-10
1.07174e-10
1.08136e-10
1.09101e-10
1.10066e-10
1.11033e-10
1.12001e-10
1.1297e-10
1.13941e-10
1.14913e-10
1.15886e-10
1.16861e-10
1.17836e-10
1.18814e-10
1.19792e-10
1.20771e-10
1.21752e-10
1.22734e-10
1.23718e-10
1.24702e-10
1.25688e-10
1.26675e-10
1.27664e-10
1.28653e-10
1.29644e-10
1.30636e-10
1.31629e-10
1.32624e-10
1.3362e-10
1.34617e-10
1.35615e-10
1.36615e-10
1.37616e-10
1.38618e-10
1.39622e-10
1.40627e-10
1.41633e-10
1.42641e-10
1.4365e-10
1.4466e-10
1.45671e-10
1.46683e-10
1.47697e-10
1.48712e-10
1.49729e-10
1.50746e-10
1.51765e-10
1.52785e-10
1.53806e-10
1.54828e-10
1.55851e-10
1.56875e-10
1.579e-10
1.58925e-10
1.5995e-10
1.60976e-10
1.62001e-10
1.63026e-10
1.64052e-10
1.65077e-10
1.66101e-10
1.67126e-10
1.6815e-10
1.69174e-10
1.70199e-10
1.71224e-10
1.72249e-10
1.73276e-10
1.74304e-10
1.75334e-10
1.76366e-10
1.77401e-10
1.7844e-10
1.79482e-10
1.80529e-10
1.8158e-10
1.82637e-10
1.83698e-10
1.84765e-10
1.85838e-10
1.86916e-10
1.87998e-10
1.89086e-10
1.90178e-10
1.91273e-10
1.92372e-10
1.93474e-10
1.94578e-10
1.95683e-10
1.96789e-10
1.97896e-10
1.99003e-10
2.00109e-10
2.01216e-10
2.02322e-10
2.03428e-10
2.04533e-10
2.05637e-10
2.06742e-10
2.07846e-10
2.0895e-10
2.10055e-10
2.1116e-10
2.12266e-10
2.13373e-10
2.14482e-10
2.15591e-10
2.16702e-10
2.17815e-10
2.1893e-10
2.20046e-10
2.21164e-10
2.22285e-10
2.23407e-10
2.24532e-10
2.25658e-10
2.26787e-10
2.27918e-10
2.2905e-10
2.30185e-10
2.31322e-10
2.32461e-10
2.33602e-10
2.34745e-10
2.3589e-10
2.37037e-10
2.38185e-10
2.39336e-10
2.40488e-10
2.41643e-10
2.42799e-10
2.43957e-10
2.45117e-10
2.46279e-10
2.47443e-10
2.48609e-10
2.49776e-10
2.50946e-10
2.52117e-10
2.53291e-10
2.54466e-10
2.55643e-10
2.56822e-10
2.58003e-10
2.59186e-10
2.60371e-10
2.61558e-10
2.62747e-10
2.63938e-10
2.65131e-10
2.66326e-10
2.67523e-10
2.68722e-10
2.69923e-10
2.71127e-10
2.72332e-10
2.73539e-10
2.74748e-10
2.7596e-10
2.77173e-10
2.78389e-10
2.79606e-10
2.80826e-10
2.82048e-10
2.83272e-10
2.84499e-10
2.85727e-10
2.86958e-10
2.8819e-10
2.89425e-10
2.90663e-10
2.91902e-10
2.93144e-10
2.94388e-10
2.95634e-10
2.96882e-10
2.98133e-10
2.99386e-10
3.00642e-10
3.019e-10
3.0316e-10
3.04423e-10
3.05688e-10
3.06956e-10
3.08226e-10
3.09499e-10
3.10774e-10
3.12052e-10
3.13332e-10
3.14616e-10
3.15902e-10
3.1719e-10
3.18481e-10
3.19775e-10
3.21072e-10
3.22372e-10
3.23674e-10
3.24979e-10
3.26287e-10
3.27597e-10
3.28911e-10
3.30227e-10
3.31546e-10
3.32868e-10
3.34193e-10
3.3552e-10
3.3685e-10
3.38182e-10
3.39517e-10
3.40854e-10
3.42194e-10
3.43536e-10
3.4488e-10
3.46226e-10
3.47574e-10
3.48924e-10
3.50276e-10
3.51629e-10
3.52984e-10
3.54341e-10
3.557e-10
3.5706e-10
3.58423e-10
3.59787e-10
3.61153e-10
3.62522e-10
3.63894e-10
3.65268e-10
3.66646e-10
3.68027e-10
3.69412e-10
3.70801e-10
3.72195e-10
3.73594e-10
3.74999e-10
3.7641e-10
3.77827e-10
3.79252e-10
3.80683e-10
3.82123e-10
3.83571e-10
3.85027e-10
3.86492e-10
3.87966e-10
3.89449e-10
3.9094e-10
3.92441e-10
3.9395e-10
3.95468e-10
3.96993e-10
3.98527e-10
4.00068e-10
4.01616e-10
4.03171e-10
4.04732e-10
4.06298e-10
4.0787e-10
4.09446e-10
4.11028e-10
4.12613e-10
4.14202e-10
4.15796e-10
4.17393e-10
4.18993e-10
4.20597e-10
4.22205e-10
4.23817e-10
4.25432e-10
4.27051e-10
4.28674e-10
4.30302e-10
4.31934e-10
4.33571e-10
4.35213e-10
4.36861e-10
4.38514e-10
4.40174e-10
4.41839e-10
4.4351e-10
4.45188e-10
4.46873e-10
4.48565e-10
4.50264e-10
4.5197e-10
4.53684e-10
4.55406e-10
4.57136e-10
4.58873e-10
4.60619e-10
4.62372e-10
4.64134e-10
4.65904e-10
4.67683e-10
4.69471e-10
4.71267e-10
4.73072e-10
4.74886e-10
4.76709e-10
4.7854e-10
4.80381e-10
4.82232e-10
4.84091e-10
4.8596e-10
4.87839e-10
4.89727e-10
4.91625e-10
4.93533e-10
4.9545e-10
4.97377e-10
4.99314e-10
5.01262e-10
5.03219e-10
5.05187e-10
5.07164e-10
5.09152e-10
5.11149e-10
5.13156e-10
5.15174e-10
5.172e-10
5.19236e-10
5.21279e-10
5.23331e-10
5.2539e-10
5.27456e-10
5.29527e-10
5.31602e-10
5.33679e-10
5.35755e-10
5.37829e-10
5.39898e-10
5.41956e-10
5.44002e-10
5.4603e-10
5.48032e-10
5.50004e-10
5.51937e-10
5.53826e-10
5.5566e-10
5.57433e-10
5.59134e-10
5.60754e-10
5.62287e-10
5.63723e-10
5.65059e-10
5.66289e-10
5.67409e-10
5.6842e-10
5.69321e-10
5.70119e-10
5.7082e-10
5.71436e-10
5.71983e-10
5.72485e-10
5.72981e-10
5.73535e-10
5.74254e-10
5.7532e-10
5.77054e-10
5.80006e-10
5.8512e-10
5.93952e-10
6.08901e-10
6.33188e-10
6.70031e-10
7.20357e-10
7.79865e-10
8.38935e-10
8.87774e-10
9.22092e-10
9.43399e-10
9.55584e-10
9.62218e-10
9.65727e-10
9.67555e-10
9.68497e-10
9.6898e-10
9.69223e-10
9.69344e-10
9.69401e-10
9.69426e-10
9.69434e-10
9.69433e-10
9.69427e-10
9.69418e-10
9.69408e-10
9.69397e-10
9.69384e-10
9.69371e-10
9.69356e-10
9.69341e-10
9.69325e-10
9.69307e-10
9.69289e-10
9.69268e-10
9.69247e-10
9.69224e-10
9.69199e-10
9.69172e-10
9.69143e-10
9.69112e-10
9.69078e-10
9.69043e-10
9.69005e-10
9.68964e-10
9.68922e-10
9.68876e-10
9.68828e-10
9.68778e-10
9.68726e-10
9.68671e-10
9.68613e-10
9.68554e-10
9.68493e-10
9.6843e-10
9.68366e-10
9.68301e-10
9.68235e-10
9.68168e-10
9.68101e-10
9.68035e-10
9.67969e-10
9.67904e-10
9.67841e-10
9.6778e-10
9.67721e-10
9.67666e-10
9.67614e-10
9.67565e-10
9.67521e-10
9.67483e-10
9.67449e-10
9.67421e-10
9.674e-10
9.67385e-10
9.67377e-10
9.67374e-10
9.67374e-10
9.67376e-10
9.67383e-10
9.67408e-10
9.67437e-10
9.67472e-10
9.67512e-10
9.67557e-10
9.67607e-10
9.67661e-10
9.67718e-10
9.67778e-10
9.67841e-10
9.67906e-10
9.67972e-10
9.68039e-10
9.68106e-10
9.68173e-10
9.68239e-10
9.68303e-10
9.68367e-10
9.68428e-10
9.68486e-10
9.68543e-10
9.68596e-10
9.68646e-10
9.68694e-10
9.68738e-10
9.68779e-10
9.68817e-10
9.68853e-10
9.68885e-10
9.68914e-10
9.68941e-10
9.68965e-10
9.68988e-10
9.69008e-10
9.69026e-10
9.69042e-10
9.69057e-10
9.69071e-10
9.69083e-10
9.69095e-10
9.69106e-10
9.69116e-10
9.69126e-10
9.69136e-10
9.69145e-10
9.69154e-10
9.69163e-10
9.69172e-10
9.69182e-10
9.69191e-10
9.69201e-10
9.69211e-10
9.69221e-10
9.69231e-10
9.69242e-10
9.69253e-10
9.69264e-10
9.69276e-10
9.69287e-10
9.69299e-10
9.69311e-10
9.69323e-10
9.69336e-10
9.69348e-10
9.6936e-10
9.69373e-10
9.69385e-10
9.69397e-10
9.69409e-10
9.69421e-10
9.69433e-10
9.69445e-10
9.69457e-10
9.69468e-10
9.6948e-10
9.69491e-10
9.69501e-10
9.69512e-10
9.69522e-10
9.69532e-10
9.69542e-10
9.69551e-10
9.6956e-10
9.69569e-10
9.69578e-10
9.69586e-10
9.69594e-10
9.69602e-10
9.69609e-10
9.69616e-10
9.69623e-10
9.69629e-10
9.69635e-10
9.69641e-10
9.69647e-10
9.69652e-10
9.69657e-10
9.69661e-10
9.69666e-10
9.6967e-10
9.69673e-10
9.69677e-10
9.6968e-10
9.69683e-10
9.69685e-10
9.69688e-10
9.69689e-10
9.69691e-10
9.69692e-10
9.69693e-10
9.69694e-10
9.69694e-10
9.69695e-10
9.69695e-10
9.69695e-10
9.69694e-10
9.69693e-10
9.69692e-10
9.6969e-10
9.69688e-10
9.69686e-10
9.69683e-10
9.69681e-10
9.69678e-10
9.69674e-10
9.69671e-10
9.69667e-10
9.69663e-10
9.69658e-10
9.69654e-10
9.69649e-10
9.69644e-10
9.69639e-10
9.69633e-10
9.69628e-10
9.69622e-10
9.69616e-10
9.69609e-10
9.69603e-10
9.69596e-10
9.69589e-10
9.69581e-10
9.69574e-10
9.69566e-10
9.69557e-10
9.69549e-10
9.6954e-10
9.6953e-10
9.6952e-10
9.69509e-10
9.69498e-10
9.69486e-10
9.69473e-10
9.6946e-10
9.69445e-10
9.6943e-10
9.69414e-10
9.69396e-10
9.69377e-10
9.69357e-10
9.69336e-10
9.69313e-10
9.69289e-10
9.69263e-10
9.69235e-10
9.69206e-10
9.69175e-10
9.69142e-10
9.69108e-10
9.69071e-10
9.69033e-10
9.68993e-10
9.6895e-10
9.68906e-10
9.6886e-10
9.68813e-10
9.68763e-10
9.68712e-10
9.6866e-10
9.68606e-10
9.68551e-10
9.68495e-10
9.68437e-10
9.6838e-10
9.68322e-10
9.68263e-10
9.68205e-10
9.68147e-10
9.6809e-10
9.68034e-10
9.67979e-10
9.67926e-10
9.67875e-10
9.67827e-10
9.67781e-10
9.67738e-10
9.67698e-10
9.67662e-10
9.67629e-10
9.67601e-10
9.67577e-10
9.67558e-10
9.67544e-10
9.67534e-10
9.6753e-10
9.67529e-10
9.67529e-10
9.67531e-10
9.67543e-10
9.67563e-10
9.67587e-10
9.67616e-10
9.67649e-10
9.67686e-10
9.67726e-10
9.67769e-10
9.67816e-10
9.67864e-10
9.67915e-10
9.67967e-10
9.6802e-10
9.68074e-10
9.68128e-10
9.68183e-10
9.68237e-10
9.6829e-10
9.68342e-10
9.68393e-10
9.68443e-10
9.6849e-10
9.68536e-10
9.6858e-10
9.68622e-10
9.68662e-10
9.68699e-10
9.68735e-10
9.68768e-10
9.68799e-10
9.68828e-10
9.68855e-10
9.6888e-10
9.68903e-10
9.68925e-10
9.68945e-10
9.68964e-10
9.68981e-10
9.68998e-10
9.69013e-10
9.69028e-10
9.69042e-10
9.69055e-10
9.69068e-10
9.6908e-10
9.69093e-10
9.69104e-10
9.69116e-10
9.69128e-10
9.69139e-10
9.69151e-10
9.69163e-10
9.69175e-10
9.69187e-10
9.69199e-10
9.69211e-10
9.69224e-10
9.69237e-10
9.69249e-10
9.69262e-10
9.69275e-10
9.69289e-10
9.69302e-10
9.69315e-10
9.69329e-10
9.69342e-10
9.69356e-10
9.69369e-10
9.69382e-10
9.69395e-10
9.69408e-10
9.69421e-10
9.69434e-10
9.69446e-10
9.69459e-10
9.69471e-10
9.69483e-10
9.69494e-10
9.69505e-10
9.69516e-10
9.69527e-10
9.69537e-10
9.69547e-10
9.69556e-10
9.69566e-10
9.69574e-10
9.69583e-10
9.69591e-10
9.69599e-10
9.69606e-10
9.69613e-10
9.6962e-10
9.69626e-10
9.69632e-10
9.69638e-10
9.69643e-10
9.69648e-10
9.69653e-10
9.69657e-10
9.69661e-10
9.69665e-10
9.69668e-10
9.69671e-10
9.69674e-10
9.69676e-10
9.69678e-10
9.6968e-10
9.69681e-10
9.69683e-10
9.69683e-10
9.69684e-10
9.69684e-10
9.69684e-10
9.69684e-10
9.69684e-10
9.69683e-10
9.69682e-10
9.69681e-10
9.69679e-10
9.69677e-10
9.69674e-10
9.69672e-10
9.69669e-10
9.69665e-10
9.69662e-10
9.69658e-10
9.69654e-10
9.6965e-10
9.69645e-10
9.6964e-10
9.69635e-10
9.69629e-10
9.69623e-10
9.69617e-10
9.69611e-10
9.69604e-10
9.69597e-10
9.69589e-10
9.69581e-10
9.69573e-10
9.69564e-10
9.69555e-10
9.69546e-10
9.69536e-10
9.69525e-10
9.69514e-10
9.69503e-10
9.69491e-10
9.69478e-10
9.69464e-10
9.6945e-10
9.69435e-10
9.69419e-10
9.69403e-10
9.69385e-10
9.69366e-10
9.69347e-10
9.69326e-10
9.69304e-10
9.69281e-10
9.69257e-10
9.69231e-10
9.69204e-10
9.69175e-10
9.69146e-10
9.69114e-10
9.69081e-10
9.69047e-10
9.69011e-10
9.68974e-10
9.68935e-10
9.68895e-10
9.68853e-10
9.6881e-10
9.68765e-10
9.68719e-10
9.68673e-10
9.68624e-10
9.68575e-10
9.68526e-10
9.68475e-10
9.68424e-10
9.68372e-10
9.68321e-10
9.68269e-10
9.68218e-10
9.68166e-10
9.68116e-10
9.68066e-10
9.68018e-10
9.67971e-10
9.67925e-10
9.67882e-10
9.6784e-10
9.67801e-10
9.67764e-10
9.6773e-10
9.67699e-10
9.67671e-10
9.67647e-10
9.67626e-10
9.67609e-10
9.67596e-10
9.67588e-10
9.67583e-10
9.67582e-10
9.67582e-10
9.67586e-10
9.67591e-10
9.67604e-10
9.67619e-10
9.67642e-10
9.67667e-10
9.67698e-10
9.67731e-10
)
;

boundaryField
{
    inlet
    {
        type            calculated;
        value           uniform 0;
    }
    outlet
    {
        type            calculated;
        value           uniform 9.67768e-10;
    }
    emptyWalls
    {
        type            empty;
        value           nonuniform List<scalar> 0();
    }
}


// ************************************************************************* //
