/*--------------------------------*- C++ -*----------------------------------*\
  =========                 |
  \\      /  F ield         | OpenFOAM: The Open Source CFD Toolbox
   \\    /   O peration     | Website:  https://openfoam.org
    \\  /    A nd           | Version:  9
     \\/     M anipulation  |
\*---------------------------------------------------------------------------*/
FoamFile
{
    format      ascii;
    class       volScalarField;
    location    "9400";
    object      p;
}
// * * * * * * * * * * * * * * * * * * * * * * * * * * * * * * * * * * * * * //

dimensions      [0 0 0 0 0 0 0];

internalField   nonuniform List<scalar> 
1000
(
236703
236280
235863
235451
235044
234642
234245
233852
233462
233076
232694
232326
232001
231805
231701
231612
231527
231443
231359
231277
231194
231112
231030
230949
230867
230786
230704
230623
230541
230460
230378
230297
230215
230133
230050
229968
229885
229801
229717
229632
229547
229461
229374
229287
229199
229111
229021
228932
228841
228750
228658
228566
228473
228379
228285
228190
228094
227998
227901
227804
227706
227607
227508
227408
227307
227206
227105
227002
226900
226796
226692
226588
226483
226377
226271
226164
226057
225949
225840
225731
225622
225511
225401
225290
225178
225065
224953
224839
224725
224611
224496
224380
224264
224148
224030
223913
223795
223676
223557
223437
223317
223196
223075
222953
222831
222708
222585
222461
222337
222212
222087
221961
221835
221708
221581
221453
221325
221196
221067
220938
220807
220677
220546
220414
220282
220150
220017
219883
219749
219615
219480
219344
219209
219072
218936
218798
218661
218523
218384
218245
218106
217966
217825
217685
217543
217402
217260
217117
216974
216831
216687
216543
216398
216253
216107
215961
215814
215667
215520
215372
215223
215074
214925
214775
214625
214474
214323
214171
214019
213866
213713
213559
213405
213251
213096
212941
212785
212629
212472
212315
212158
212000
211842
211683
211524
211364
211204
211043
210882
210721
210559
210397
210234
210071
209908
209744
209579
209415
209249
209084
208918
208751
208584
208417
208249
208081
207912
207743
207573
207403
207233
207062
206891
206719
206547
206375
206202
206028
205855
205680
205506
205331
205155
204979
204803
204626
204449
204272
204094
203915
203736
203557
203378
203197
203017
202836
202655
202473
202291
202108
201925
201742
201558
201374
201189
201004
200818
200632
200446
200259
200072
199884
199696
199508
199319
199130
198940
198750
198560
198369
198177
197986
197793
197601
197408
197214
197020
196826
196632
196436
196241
196045
195849
195652
195455
195257
195059
194861
194662
194462
194263
194063
193862
193661
193460
193258
193056
192853
192650
192446
192242
192038
191833
191628
191423
191217
191010
190803
190596
190388
190180
189972
189763
189554
189344
189134
188923
188712
188501
188289
188077
187864
187651
187437
187223
187009
186794
186579
186363
186147
185931
185714
185496
185278
185060
184841
184622
184402
184181
183961
183739
183518
183296
183073
182850
182626
182402
182177
181952
181727
181500
181274
181047
180819
180591
180363
180134
179904
179674
179444
179213
178982
178750
178518
178285
178052
177819
177585
177350
177116
176881
176646
176410
176174
175938
175702
175465
175229
174992
174755
174518
174280
174041
173802
173560
173315
173066
172810
172548
172280
172008
171732
171456
171179
170901
170624
170346
170068
169790
169513
169235
168957
168679
168402
168124
167846
167568
167290
167013
166735
166457
166179
165901
165623
165346
165068
164790
164512
164234
163956
163679
163401
163123
162845
162567
162289
162012
161734
161456
161178
160900
160622
160345
160067
159789
159511
159233
158955
158677
158400
158122
157844
157566
157288
157010
156733
156455
156177
155899
155621
155343
155065
154788
154510
154232
153954
153676
153399
153121
152843
152565
152287
152009
151732
151454
151176
150898
150620
150343
150065
149787
149509
149231
148953
148676
148398
148120
147842
147565
147287
147009
146731
146453
146176
145898
145620
145342
145065
144787
144509
144231
143954
143676
143398
143120
142843
142565
142287
142010
141732
141454
141177
140899
140621
140344
140066
139789
139511
139234
138956
138678
138401
138123
137846
137569
137291
137014
136736
136459
136182
135904
135627
135350
135072
134795
134518
134241
133963
133686
133409
133132
132854
132577
132300
132023
131746
131468
131191
130914
130637
130359
130082
129805
129528
129250
128973
128696
128418
128141
127863
127586
127308
127031
126753
126476
126198
125921
125643
125366
125088
124811
124533
124255
123978
123700
123422
123145
122867
122590
122312
122034
121757
121479
121201
120924
120646
120368
120091
119813
119535
119258
118980
118702
118424
118147
117869
117591
117314
117036
116758
116481
116203
115925
115648
115370
115092
114814
114537
114259
113981
113703
113426
113148
112870
112593
112315
112037
111759
111482
111204
110926
110648
110370
110093
109815
109537
109259
108981
108704
108426
108148
107870
107592
107315
107037
106759
106481
106203
105925
105648
105370
105092
104814
104536
104258
103981
103703
103425
103147
102869
102591
102313
102036
101758
101480
101202
100924
100646
100368
100091
99812.7
99534.8
99256.9
98979.1
98701.2
98423.4
98145.5
97867.6
97589.8
97311.9
97034
96756.2
96478.3
96200.5
95922.6
95644.8
95366.9
95089.1
94811.2
94533.4
94255.5
93977.7
93699.9
93422
93144.2
92866.4
92588.5
92310.7
92032.9
91755.1
91477.2
91199.4
90921.6
90643.8
90366
90088.2
89810.4
89532.6
89254.8
88977
88699.2
88421.4
88143.6
87865.9
87588.1
87310.3
87032.6
86754.8
86477.1
86199.3
85921.6
85643.9
85366.2
85088.5
84810.8
84533.1
84255.4
83977.7
83700
83422.4
83144.7
82867.1
82589.5
82311.9
82034.3
81756.7
81479.2
81201.6
80924.1
80646.6
80369.1
80091.6
79814.1
79536.7
79259.2
78981.8
78704.4
78427
78149.7
77872.3
77595
77317.6
77040.3
76763
76485.7
76208.4
75931.1
75653.9
75376.6
75099.4
74822.1
74544.8
74267.6
73990.3
73713.1
73435.8
73158.6
72881.3
72604
72326.7
72049.4
71772.1
71494.8
71217.5
70940.1
70662.8
70385.4
70108
69830.6
69553.1
69275.7
68998.2
68720.8
68443.3
68165.8
67888.2
67610.7
67333.2
67055.6
66778
66500.5
66222.9
65945.3
65667.7
65390.1
65112.4
64834.8
64557.2
64279.6
64001.9
63724.3
63446.6
63169
62891.3
62613.6
62336
62058.3
61780.6
61503
61225.3
60947.6
60669.9
60392.2
60114.6
59836.9
59559.2
59281.5
59003.8
58726.1
58448.4
58170.7
57892.9
57615.2
57337.5
57059.8
56782.1
56504.3
56226.6
55948.8
55671.1
55393.3
55115.6
54837.8
54560.1
54282.3
54004.5
53726.8
53449
53171.2
52893.4
52615.6
52337.8
52060
51782.2
51504.4
51226.6
50948.8
50671
50393.1
50115.3
49837.5
49559.6
49281.8
49004
48726.1
48448.3
48170.4
47892.6
47614.7
47336.8
47059
46781.1
46503.3
46225.4
45947.5
45669.6
45391.8
45113.9
44836
44558.1
44280.3
44002.4
43724.5
43446.6
43168.7
42890.9
42613
42335.1
42057.2
41779.3
41501.5
41223.6
40945.7
40667.8
40389.9
40112.1
39834.2
39556.3
39278.5
39000.6
38722.7
38444.9
38167
37889.2
37611.3
37333.4
37055.6
36777.7
36499.9
36222.1
35944.2
35666.4
35388.6
35110.7
34832.9
34555.1
34277.3
33999.5
33721.6
33443.8
33166
32888.2
32610.4
32332.7
32054.9
31777.1
31499.3
31221.5
30943.8
30666
30388.3
30110.5
29832.8
29555
29277.3
28999.5
28721.8
28444.1
28166.4
27888.7
27611
27333.3
27055.6
26778
26500.3
26222.7
25945
25667.4
25389.8
25112.2
24834.6
24557
24279.4
24001.9
23724.3
23446.8
23169.2
22891.7
22614.2
22336.8
22059.3
21781.8
21504.4
21227
20949.6
20672.2
20394.8
20117.4
19840
19562.7
19285.3
19008
18730.7
18453.4
18176.1
17898.8
17621.5
17344.2
17066.9
16789.7
16512.4
16235.1
15957.8
15680.6
15403.3
15126
14848.7
14571.4
14294.1
14016.8
13739.5
13462.2
13184.8
12907.5
12630.1
12352.8
12075.4
11798
11520.6
11243.1
10965.7
10688.2
10410.8
10133.3
9855.79
9578.28
9300.76
9023.23
8745.69
8468.14
8190.57
7913
7635.42
7357.83
7080.24
6802.63
6525.02
6247.41
5969.78
5692.16
5414.52
5136.89
4859.25
4581.6
4303.95
4026.3
3748.64
3470.99
3193.32
2915.66
2637.99
2360.32
2082.65
1804.97
1527.29
1249.61
971.924
694.236
416.544
138.849
)
;

boundaryField
{
    inlet
    {
        type            darcyGradPressure;
        gradient        uniform 116344;
        Mf              Mf;
        phi             phi;
        value           uniform 236916;
    }
    outlet
    {
        type            fixedValue;
        value           uniform 0;
    }
    emptyWalls
    {
        type            empty;
    }
}


// ************************************************************************* //
