/*--------------------------------*- C++ -*----------------------------------*\
  =========                 |
  \\      /  F ield         | OpenFOAM: The Open Source CFD Toolbox
   \\    /   O peration     | Website:  https://openfoam.org
    \\  /    A nd           | Version:  9
     \\/     M anipulation  |
\*---------------------------------------------------------------------------*/
FoamFile
{
    format      ascii;
    class       volVectorField;
    location    "9400";
    object      Uc;
}
// * * * * * * * * * * * * * * * * * * * * * * * * * * * * * * * * * * * * * //

dimensions      [0 0 0 0 0 0 0];

internalField   nonuniform List<vector> 
1000
(
(3.53492e-11 0 0)
(1.96708e-10 0 0)
(5.31567e-10 0 0)
(1.01935e-09 0 0)
(1.63339e-09 0 0)
(2.33849e-09 0 0)
(3.08895e-09 0 0)
(3.84017e-09 0 0)
(4.59396e-09 0 0)
(5.59886e-09 0 0)
(8.24416e-09 0 0)
(1.71768e-08 0 0)
(5.96361e-08 0 0)
(1.44035e-07 0 0)
(2.02182e-07 0 0)
(2.1509e-07 0 0)
(2.20912e-07 0 0)
(2.24795e-07 0 0)
(2.27855e-07 0 0)
(2.30474e-07 0 0)
(2.32839e-07 0 0)
(2.3505e-07 0 0)
(2.37146e-07 0 0)
(2.39144e-07 0 0)
(2.41082e-07 0 0)
(2.43028e-07 0 0)
(2.45021e-07 0 0)
(2.47079e-07 0 0)
(2.49249e-07 0 0)
(2.51619e-07 0 0)
(2.54218e-07 0 0)
(2.57077e-07 0 0)
(2.60359e-07 0 0)
(2.64296e-07 0 0)
(2.69163e-07 0 0)
(2.75178e-07 0 0)
(2.82361e-07 0 0)
(2.90512e-07 0 0)
(2.99354e-07 0 0)
(3.08674e-07 0 0)
(3.18339e-07 0 0)
(3.28261e-07 0 0)
(3.38383e-07 0 0)
(3.48668e-07 0 0)
(3.59087e-07 0 0)
(3.69621e-07 0 0)
(3.80256e-07 0 0)
(3.9098e-07 0 0)
(4.01784e-07 0 0)
(4.12662e-07 0 0)
(4.23608e-07 0 0)
(4.34617e-07 0 0)
(4.45687e-07 0 0)
(4.56812e-07 0 0)
(4.67992e-07 0 0)
(4.79223e-07 0 0)
(4.90503e-07 0 0)
(5.0183e-07 0 0)
(5.13204e-07 0 0)
(5.24622e-07 0 0)
(5.36083e-07 0 0)
(5.47586e-07 0 0)
(5.59131e-07 0 0)
(5.70714e-07 0 0)
(5.82336e-07 0 0)
(5.93995e-07 0 0)
(6.05692e-07 0 0)
(6.17423e-07 0 0)
(6.2919e-07 0 0)
(6.4099e-07 0 0)
(6.52824e-07 0 0)
(6.6469e-07 0 0)
(6.76588e-07 0 0)
(6.88519e-07 0 0)
(7.0048e-07 0 0)
(7.12473e-07 0 0)
(7.24495e-07 0 0)
(7.36548e-07 0 0)
(7.48631e-07 0 0)
(7.60743e-07 0 0)
(7.72885e-07 0 0)
(7.85055e-07 0 0)
(7.97254e-07 0 0)
(8.09482e-07 0 0)
(8.21737e-07 0 0)
(8.34019e-07 0 0)
(8.46329e-07 0 0)
(8.58666e-07 0 0)
(8.7103e-07 0 0)
(8.8342e-07 0 0)
(8.95835e-07 0 0)
(9.08277e-07 0 0)
(9.20744e-07 0 0)
(9.33236e-07 0 0)
(9.45753e-07 0 0)
(9.58295e-07 0 0)
(9.70861e-07 0 0)
(9.83453e-07 0 0)
(9.96068e-07 0 0)
(1.00871e-06 0 0)
(1.02137e-06 0 0)
(1.03406e-06 0 0)
(1.04677e-06 0 0)
(1.0595e-06 0 0)
(1.07226e-06 0 0)
(1.08504e-06 0 0)
(1.09785e-06 0 0)
(1.11068e-06 0 0)
(1.12353e-06 0 0)
(1.13641e-06 0 0)
(1.14931e-06 0 0)
(1.16223e-06 0 0)
(1.17518e-06 0 0)
(1.18815e-06 0 0)
(1.20114e-06 0 0)
(1.21416e-06 0 0)
(1.2272e-06 0 0)
(1.24027e-06 0 0)
(1.25335e-06 0 0)
(1.26646e-06 0 0)
(1.27959e-06 0 0)
(1.29274e-06 0 0)
(1.30591e-06 0 0)
(1.3191e-06 0 0)
(1.33232e-06 0 0)
(1.34555e-06 0 0)
(1.35881e-06 0 0)
(1.37208e-06 0 0)
(1.38538e-06 0 0)
(1.39868e-06 0 0)
(1.412e-06 0 0)
(1.42533e-06 0 0)
(1.43867e-06 0 0)
(1.45202e-06 0 0)
(1.46537e-06 0 0)
(1.47873e-06 0 0)
(1.49208e-06 0 0)
(1.50545e-06 0 0)
(1.51881e-06 0 0)
(1.53219e-06 0 0)
(1.54557e-06 0 0)
(1.55897e-06 0 0)
(1.57238e-06 0 0)
(1.58582e-06 0 0)
(1.59928e-06 0 0)
(1.61278e-06 0 0)
(1.62632e-06 0 0)
(1.6399e-06 0 0)
(1.65354e-06 0 0)
(1.66723e-06 0 0)
(1.68099e-06 0 0)
(1.69483e-06 0 0)
(1.70873e-06 0 0)
(1.72271e-06 0 0)
(1.73677e-06 0 0)
(1.7509e-06 0 0)
(1.7651e-06 0 0)
(1.77936e-06 0 0)
(1.79368e-06 0 0)
(1.80805e-06 0 0)
(1.82246e-06 0 0)
(1.83691e-06 0 0)
(1.85137e-06 0 0)
(1.86586e-06 0 0)
(1.88035e-06 0 0)
(1.89485e-06 0 0)
(1.90935e-06 0 0)
(1.92385e-06 0 0)
(1.93835e-06 0 0)
(1.95285e-06 0 0)
(1.96734e-06 0 0)
(1.98184e-06 0 0)
(1.99635e-06 0 0)
(2.01086e-06 0 0)
(2.02538e-06 0 0)
(2.03992e-06 0 0)
(2.05447e-06 0 0)
(2.06905e-06 0 0)
(2.08365e-06 0 0)
(2.09827e-06 0 0)
(2.11293e-06 0 0)
(2.12761e-06 0 0)
(2.14233e-06 0 0)
(2.15708e-06 0 0)
(2.17187e-06 0 0)
(2.18669e-06 0 0)
(2.20155e-06 0 0)
(2.21644e-06 0 0)
(2.23137e-06 0 0)
(2.24633e-06 0 0)
(2.26133e-06 0 0)
(2.27636e-06 0 0)
(2.29143e-06 0 0)
(2.30654e-06 0 0)
(2.32168e-06 0 0)
(2.33685e-06 0 0)
(2.35206e-06 0 0)
(2.3673e-06 0 0)
(2.38257e-06 0 0)
(2.39788e-06 0 0)
(2.41323e-06 0 0)
(2.4286e-06 0 0)
(2.44401e-06 0 0)
(2.45946e-06 0 0)
(2.47494e-06 0 0)
(2.49045e-06 0 0)
(2.50599e-06 0 0)
(2.52157e-06 0 0)
(2.53719e-06 0 0)
(2.55284e-06 0 0)
(2.56852e-06 0 0)
(2.58424e-06 0 0)
(2.59999e-06 0 0)
(2.61578e-06 0 0)
(2.6316e-06 0 0)
(2.64745e-06 0 0)
(2.66335e-06 0 0)
(2.67927e-06 0 0)
(2.69524e-06 0 0)
(2.71124e-06 0 0)
(2.72727e-06 0 0)
(2.74334e-06 0 0)
(2.75945e-06 0 0)
(2.7756e-06 0 0)
(2.79179e-06 0 0)
(2.80801e-06 0 0)
(2.82427e-06 0 0)
(2.84057e-06 0 0)
(2.85692e-06 0 0)
(2.8733e-06 0 0)
(2.88972e-06 0 0)
(2.90618e-06 0 0)
(2.92268e-06 0 0)
(2.93923e-06 0 0)
(2.95581e-06 0 0)
(2.97244e-06 0 0)
(2.98911e-06 0 0)
(3.00583e-06 0 0)
(3.02259e-06 0 0)
(3.03939e-06 0 0)
(3.05624e-06 0 0)
(3.07313e-06 0 0)
(3.09007e-06 0 0)
(3.10705e-06 0 0)
(3.12408e-06 0 0)
(3.14116e-06 0 0)
(3.15829e-06 0 0)
(3.17546e-06 0 0)
(3.19268e-06 0 0)
(3.20996e-06 0 0)
(3.22728e-06 0 0)
(3.24465e-06 0 0)
(3.26207e-06 0 0)
(3.27954e-06 0 0)
(3.29707e-06 0 0)
(3.31464e-06 0 0)
(3.33227e-06 0 0)
(3.34996e-06 0 0)
(3.36769e-06 0 0)
(3.38548e-06 0 0)
(3.40333e-06 0 0)
(3.42124e-06 0 0)
(3.43919e-06 0 0)
(3.45721e-06 0 0)
(3.47529e-06 0 0)
(3.49342e-06 0 0)
(3.51161e-06 0 0)
(3.52987e-06 0 0)
(3.54819e-06 0 0)
(3.56656e-06 0 0)
(3.585e-06 0 0)
(3.60351e-06 0 0)
(3.62207e-06 0 0)
(3.6407e-06 0 0)
(3.6594e-06 0 0)
(3.67816e-06 0 0)
(3.69699e-06 0 0)
(3.71588e-06 0 0)
(3.73485e-06 0 0)
(3.75388e-06 0 0)
(3.77298e-06 0 0)
(3.79214e-06 0 0)
(3.81138e-06 0 0)
(3.83069e-06 0 0)
(3.85006e-06 0 0)
(3.86951e-06 0 0)
(3.88902e-06 0 0)
(3.90861e-06 0 0)
(3.92826e-06 0 0)
(3.94798e-06 0 0)
(3.96777e-06 0 0)
(3.98763e-06 0 0)
(4.00755e-06 0 0)
(4.02755e-06 0 0)
(4.0476e-06 0 0)
(4.06773e-06 0 0)
(4.08792e-06 0 0)
(4.10818e-06 0 0)
(4.12852e-06 0 0)
(4.14892e-06 0 0)
(4.16939e-06 0 0)
(4.18994e-06 0 0)
(4.21058e-06 0 0)
(4.23129e-06 0 0)
(4.2521e-06 0 0)
(4.273e-06 0 0)
(4.29399e-06 0 0)
(4.3151e-06 0 0)
(4.33631e-06 0 0)
(4.35764e-06 0 0)
(4.3791e-06 0 0)
(4.40069e-06 0 0)
(4.42242e-06 0 0)
(4.44431e-06 0 0)
(4.46635e-06 0 0)
(4.48856e-06 0 0)
(4.51094e-06 0 0)
(4.5335e-06 0 0)
(4.55625e-06 0 0)
(4.57919e-06 0 0)
(4.60233e-06 0 0)
(4.62566e-06 0 0)
(4.6492e-06 0 0)
(4.67294e-06 0 0)
(4.69688e-06 0 0)
(4.72103e-06 0 0)
(4.74537e-06 0 0)
(4.76991e-06 0 0)
(4.79464e-06 0 0)
(4.81956e-06 0 0)
(4.84465e-06 0 0)
(4.86993e-06 0 0)
(4.89537e-06 0 0)
(4.92099e-06 0 0)
(4.94676e-06 0 0)
(4.97268e-06 0 0)
(4.99875e-06 0 0)
(5.02496e-06 0 0)
(5.05131e-06 0 0)
(5.0778e-06 0 0)
(5.10441e-06 0 0)
(5.13115e-06 0 0)
(5.15799e-06 0 0)
(5.18493e-06 0 0)
(5.21196e-06 0 0)
(5.23905e-06 0 0)
(5.26618e-06 0 0)
(5.29333e-06 0 0)
(5.32045e-06 0 0)
(5.34749e-06 0 0)
(5.3744e-06 0 0)
(5.40108e-06 0 0)
(5.42747e-06 0 0)
(5.45345e-06 0 0)
(5.47893e-06 0 0)
(5.50376e-06 0 0)
(5.5278e-06 0 0)
(5.55091e-06 0 0)
(5.57294e-06 0 0)
(5.59375e-06 0 0)
(5.61322e-06 0 0)
(5.63126e-06 0 0)
(5.64781e-06 0 0)
(5.66286e-06 0 0)
(5.67649e-06 0 0)
(5.68892e-06 0 0)
(5.70053e-06 0 0)
(5.71205e-06 0 0)
(5.7247e-06 0 0)
(5.74059e-06 0 0)
(5.7634e-06 0 0)
(5.79945e-06 0 0)
(5.85937e-06 0 0)
(5.96034e-06 0 0)
(6.12781e-06 0 0)
(6.39374e-06 0 0)
(6.78542e-06 0 0)
(7.30179e-06 0 0)
(7.89076e-06 0 0)
(8.45903e-06 0 0)
(8.9215e-06 0 0)
(9.2449e-06 0 0)
(9.4459e-06 0 0)
(9.56119e-06 0 0)
(9.62414e-06 0 0)
(9.6576e-06 0 0)
(9.67514e-06 0 0)
(9.6843e-06 0 0)
(9.68909e-06 0 0)
(9.69162e-06 0 0)
(9.69299e-06 0 0)
(9.69376e-06 0 0)
(9.69423e-06 0 0)
(9.69453e-06 0 0)
(9.69475e-06 0 0)
(9.69492e-06 0 0)
(9.69507e-06 0 0)
(9.6952e-06 0 0)
(9.69533e-06 0 0)
(9.69545e-06 0 0)
(9.69556e-06 0 0)
(9.69567e-06 0 0)
(9.69577e-06 0 0)
(9.69587e-06 0 0)
(9.69597e-06 0 0)
(9.69606e-06 0 0)
(9.69614e-06 0 0)
(9.69622e-06 0 0)
(9.6963e-06 0 0)
(9.69636e-06 0 0)
(9.69643e-06 0 0)
(9.69649e-06 0 0)
(9.69654e-06 0 0)
(9.69659e-06 0 0)
(9.69663e-06 0 0)
(9.69667e-06 0 0)
(9.6967e-06 0 0)
(9.69673e-06 0 0)
(9.69675e-06 0 0)
(9.69677e-06 0 0)
(9.69678e-06 0 0)
(9.69679e-06 0 0)
(9.69679e-06 0 0)
(9.69679e-06 0 0)
(9.69679e-06 0 0)
(9.69679e-06 0 0)
(9.69678e-06 0 0)
(9.69677e-06 0 0)
(9.69675e-06 0 0)
(9.69673e-06 0 0)
(9.69671e-06 0 0)
(9.69669e-06 0 0)
(9.69666e-06 0 0)
(9.69663e-06 0 0)
(9.6966e-06 0 0)
(9.69657e-06 0 0)
(9.69654e-06 0 0)
(9.6965e-06 0 0)
(9.69647e-06 0 0)
(9.69643e-06 0 0)
(9.69639e-06 0 0)
(9.69634e-06 0 0)
(9.6963e-06 0 0)
(9.69626e-06 0 0)
(9.69621e-06 0 0)
(9.69616e-06 0 0)
(9.69611e-06 0 0)
(9.69606e-06 0 0)
(9.69601e-06 0 0)
(9.69596e-06 0 0)
(9.6959e-06 0 0)
(9.69584e-06 0 0)
(9.69578e-06 0 0)
(9.69572e-06 0 0)
(9.69566e-06 0 0)
(9.6956e-06 0 0)
(9.69553e-06 0 0)
(9.69546e-06 0 0)
(9.69539e-06 0 0)
(9.69532e-06 0 0)
(9.69524e-06 0 0)
(9.69516e-06 0 0)
(9.69508e-06 0 0)
(9.695e-06 0 0)
(9.69491e-06 0 0)
(9.69482e-06 0 0)
(9.69473e-06 0 0)
(9.69463e-06 0 0)
(9.69453e-06 0 0)
(9.69442e-06 0 0)
(9.69431e-06 0 0)
(9.69419e-06 0 0)
(9.69407e-06 0 0)
(9.69394e-06 0 0)
(9.6938e-06 0 0)
(9.69365e-06 0 0)
(9.69349e-06 0 0)
(9.69332e-06 0 0)
(9.69314e-06 0 0)
(9.69295e-06 0 0)
(9.69274e-06 0 0)
(9.69252e-06 0 0)
(9.69228e-06 0 0)
(9.69202e-06 0 0)
(9.69174e-06 0 0)
(9.69144e-06 0 0)
(9.69112e-06 0 0)
(9.69078e-06 0 0)
(9.69041e-06 0 0)
(9.69002e-06 0 0)
(9.6896e-06 0 0)
(9.68916e-06 0 0)
(9.68868e-06 0 0)
(9.68818e-06 0 0)
(9.68765e-06 0 0)
(9.68709e-06 0 0)
(9.6865e-06 0 0)
(9.68589e-06 0 0)
(9.68525e-06 0 0)
(9.68459e-06 0 0)
(9.68391e-06 0 0)
(9.68321e-06 0 0)
(9.68249e-06 0 0)
(9.68176e-06 0 0)
(9.68102e-06 0 0)
(9.68028e-06 0 0)
(9.67954e-06 0 0)
(9.6788e-06 0 0)
(9.67807e-06 0 0)
(9.67735e-06 0 0)
(9.67666e-06 0 0)
(9.67599e-06 0 0)
(9.67536e-06 0 0)
(9.67476e-06 0 0)
(9.67421e-06 0 0)
(9.67372e-06 0 0)
(9.67327e-06 0 0)
(9.67289e-06 0 0)
(9.67258e-06 0 0)
(9.67234e-06 0 0)
(9.67217e-06 0 0)
(9.67208e-06 0 0)
(9.67204e-06 0 0)
(9.67203e-06 0 0)
(9.67206e-06 0 0)
(9.6722e-06 0 0)
(9.67247e-06 0 0)
(9.67284e-06 0 0)
(9.67327e-06 0 0)
(9.67376e-06 0 0)
(9.67431e-06 0 0)
(9.67492e-06 0 0)
(9.67557e-06 0 0)
(9.67626e-06 0 0)
(9.67698e-06 0 0)
(9.67772e-06 0 0)
(9.67848e-06 0 0)
(9.67924e-06 0 0)
(9.68001e-06 0 0)
(9.68077e-06 0 0)
(9.68152e-06 0 0)
(9.68225e-06 0 0)
(9.68296e-06 0 0)
(9.68363e-06 0 0)
(9.68428e-06 0 0)
(9.68489e-06 0 0)
(9.68546e-06 0 0)
(9.68599e-06 0 0)
(9.68648e-06 0 0)
(9.68693e-06 0 0)
(9.68734e-06 0 0)
(9.68771e-06 0 0)
(9.68805e-06 0 0)
(9.68834e-06 0 0)
(9.68861e-06 0 0)
(9.68884e-06 0 0)
(9.68905e-06 0 0)
(9.68922e-06 0 0)
(9.68938e-06 0 0)
(9.68951e-06 0 0)
(9.68963e-06 0 0)
(9.68973e-06 0 0)
(9.68982e-06 0 0)
(9.6899e-06 0 0)
(9.68997e-06 0 0)
(9.69004e-06 0 0)
(9.6901e-06 0 0)
(9.69016e-06 0 0)
(9.69022e-06 0 0)
(9.69028e-06 0 0)
(9.69035e-06 0 0)
(9.69042e-06 0 0)
(9.69049e-06 0 0)
(9.69056e-06 0 0)
(9.69064e-06 0 0)
(9.69073e-06 0 0)
(9.69082e-06 0 0)
(9.69092e-06 0 0)
(9.69102e-06 0 0)
(9.69113e-06 0 0)
(9.69124e-06 0 0)
(9.69136e-06 0 0)
(9.69148e-06 0 0)
(9.69161e-06 0 0)
(9.69174e-06 0 0)
(9.69188e-06 0 0)
(9.69201e-06 0 0)
(9.69216e-06 0 0)
(9.6923e-06 0 0)
(9.69245e-06 0 0)
(9.6926e-06 0 0)
(9.69275e-06 0 0)
(9.6929e-06 0 0)
(9.69306e-06 0 0)
(9.69321e-06 0 0)
(9.69337e-06 0 0)
(9.69352e-06 0 0)
(9.69368e-06 0 0)
(9.69384e-06 0 0)
(9.69399e-06 0 0)
(9.69415e-06 0 0)
(9.69431e-06 0 0)
(9.69446e-06 0 0)
(9.69461e-06 0 0)
(9.69476e-06 0 0)
(9.69491e-06 0 0)
(9.69506e-06 0 0)
(9.69521e-06 0 0)
(9.69535e-06 0 0)
(9.6955e-06 0 0)
(9.69564e-06 0 0)
(9.69578e-06 0 0)
(9.69591e-06 0 0)
(9.69604e-06 0 0)
(9.69616e-06 0 0)
(9.69629e-06 0 0)
(9.6964e-06 0 0)
(9.69651e-06 0 0)
(9.69662e-06 0 0)
(9.69673e-06 0 0)
(9.69682e-06 0 0)
(9.69692e-06 0 0)
(9.69701e-06 0 0)
(9.69709e-06 0 0)
(9.69717e-06 0 0)
(9.69724e-06 0 0)
(9.6973e-06 0 0)
(9.69737e-06 0 0)
(9.69742e-06 0 0)
(9.69747e-06 0 0)
(9.69752e-06 0 0)
(9.69756e-06 0 0)
(9.6976e-06 0 0)
(9.69763e-06 0 0)
(9.69765e-06 0 0)
(9.69768e-06 0 0)
(9.69769e-06 0 0)
(9.69771e-06 0 0)
(9.69771e-06 0 0)
(9.69772e-06 0 0)
(9.69772e-06 0 0)
(9.69772e-06 0 0)
(9.69771e-06 0 0)
(9.6977e-06 0 0)
(9.69768e-06 0 0)
(9.69766e-06 0 0)
(9.69763e-06 0 0)
(9.6976e-06 0 0)
(9.69756e-06 0 0)
(9.69752e-06 0 0)
(9.69748e-06 0 0)
(9.69743e-06 0 0)
(9.69738e-06 0 0)
(9.69733e-06 0 0)
(9.69727e-06 0 0)
(9.69721e-06 0 0)
(9.69715e-06 0 0)
(9.69708e-06 0 0)
(9.69701e-06 0 0)
(9.69694e-06 0 0)
(9.69687e-06 0 0)
(9.69679e-06 0 0)
(9.69671e-06 0 0)
(9.69662e-06 0 0)
(9.69653e-06 0 0)
(9.69644e-06 0 0)
(9.69635e-06 0 0)
(9.69625e-06 0 0)
(9.69615e-06 0 0)
(9.69605e-06 0 0)
(9.69594e-06 0 0)
(9.69583e-06 0 0)
(9.69572e-06 0 0)
(9.6956e-06 0 0)
(9.69547e-06 0 0)
(9.69534e-06 0 0)
(9.69521e-06 0 0)
(9.69507e-06 0 0)
(9.69492e-06 0 0)
(9.69477e-06 0 0)
(9.69461e-06 0 0)
(9.69444e-06 0 0)
(9.69426e-06 0 0)
(9.69408e-06 0 0)
(9.69388e-06 0 0)
(9.69367e-06 0 0)
(9.69345e-06 0 0)
(9.69322e-06 0 0)
(9.69298e-06 0 0)
(9.69272e-06 0 0)
(9.69244e-06 0 0)
(9.69215e-06 0 0)
(9.69184e-06 0 0)
(9.69152e-06 0 0)
(9.69118e-06 0 0)
(9.69081e-06 0 0)
(9.69043e-06 0 0)
(9.69003e-06 0 0)
(9.68961e-06 0 0)
(9.68916e-06 0 0)
(9.6887e-06 0 0)
(9.68822e-06 0 0)
(9.68771e-06 0 0)
(9.68719e-06 0 0)
(9.68665e-06 0 0)
(9.68609e-06 0 0)
(9.68551e-06 0 0)
(9.68492e-06 0 0)
(9.68431e-06 0 0)
(9.6837e-06 0 0)
(9.68307e-06 0 0)
(9.68244e-06 0 0)
(9.6818e-06 0 0)
(9.68116e-06 0 0)
(9.68053e-06 0 0)
(9.6799e-06 0 0)
(9.67928e-06 0 0)
(9.67867e-06 0 0)
(9.67808e-06 0 0)
(9.67751e-06 0 0)
(9.67697e-06 0 0)
(9.67645e-06 0 0)
(9.67597e-06 0 0)
(9.67552e-06 0 0)
(9.67511e-06 0 0)
(9.67475e-06 0 0)
(9.67444e-06 0 0)
(9.67417e-06 0 0)
(9.67396e-06 0 0)
(9.67381e-06 0 0)
(9.67372e-06 0 0)
(9.67367e-06 0 0)
(9.67366e-06 0 0)
(9.67367e-06 0 0)
(9.67373e-06 0 0)
(9.67389e-06 0 0)
(9.67414e-06 0 0)
(9.67445e-06 0 0)
(9.6748e-06 0 0)
(9.67521e-06 0 0)
(9.67566e-06 0 0)
(9.67615e-06 0 0)
(9.67667e-06 0 0)
(9.67723e-06 0 0)
(9.67781e-06 0 0)
(9.67841e-06 0 0)
(9.67902e-06 0 0)
(9.67964e-06 0 0)
(9.68027e-06 0 0)
(9.6809e-06 0 0)
(9.68152e-06 0 0)
(9.68212e-06 0 0)
(9.68272e-06 0 0)
(9.68329e-06 0 0)
(9.68385e-06 0 0)
(9.68438e-06 0 0)
(9.68489e-06 0 0)
(9.68537e-06 0 0)
(9.68583e-06 0 0)
(9.68625e-06 0 0)
(9.68665e-06 0 0)
(9.68702e-06 0 0)
(9.68736e-06 0 0)
(9.68767e-06 0 0)
(9.68796e-06 0 0)
(9.68823e-06 0 0)
(9.68847e-06 0 0)
(9.68869e-06 0 0)
(9.6889e-06 0 0)
(9.68908e-06 0 0)
(9.68925e-06 0 0)
(9.68941e-06 0 0)
(9.68955e-06 0 0)
(9.68969e-06 0 0)
(9.68982e-06 0 0)
(9.68994e-06 0 0)
(9.69005e-06 0 0)
(9.69017e-06 0 0)
(9.69028e-06 0 0)
(9.69039e-06 0 0)
(9.6905e-06 0 0)
(9.69061e-06 0 0)
(9.69073e-06 0 0)
(9.69084e-06 0 0)
(9.69096e-06 0 0)
(9.69108e-06 0 0)
(9.69121e-06 0 0)
(9.69134e-06 0 0)
(9.69147e-06 0 0)
(9.69161e-06 0 0)
(9.69175e-06 0 0)
(9.69189e-06 0 0)
(9.69204e-06 0 0)
(9.69219e-06 0 0)
(9.69235e-06 0 0)
(9.69251e-06 0 0)
(9.69267e-06 0 0)
(9.69283e-06 0 0)
(9.69299e-06 0 0)
(9.69316e-06 0 0)
(9.69333e-06 0 0)
(9.6935e-06 0 0)
(9.69367e-06 0 0)
(9.69384e-06 0 0)
(9.69401e-06 0 0)
(9.69418e-06 0 0)
(9.69435e-06 0 0)
(9.69452e-06 0 0)
(9.69468e-06 0 0)
(9.69485e-06 0 0)
(9.69502e-06 0 0)
(9.69518e-06 0 0)
(9.69534e-06 0 0)
(9.6955e-06 0 0)
(9.69566e-06 0 0)
(9.69582e-06 0 0)
(9.69597e-06 0 0)
(9.69612e-06 0 0)
(9.69627e-06 0 0)
(9.69641e-06 0 0)
(9.69655e-06 0 0)
(9.69668e-06 0 0)
(9.69682e-06 0 0)
(9.69695e-06 0 0)
(9.69707e-06 0 0)
(9.69719e-06 0 0)
(9.6973e-06 0 0)
(9.69741e-06 0 0)
(9.69752e-06 0 0)
(9.69762e-06 0 0)
(9.69771e-06 0 0)
(9.6978e-06 0 0)
(9.69789e-06 0 0)
(9.69797e-06 0 0)
(9.69804e-06 0 0)
(9.6981e-06 0 0)
(9.69816e-06 0 0)
(9.69822e-06 0 0)
(9.69826e-06 0 0)
(9.6983e-06 0 0)
(9.69834e-06 0 0)
(9.69837e-06 0 0)
(9.69839e-06 0 0)
(9.6984e-06 0 0)
(9.69841e-06 0 0)
(9.69841e-06 0 0)
(9.69841e-06 0 0)
(9.69841e-06 0 0)
(9.6984e-06 0 0)
(9.69837e-06 0 0)
(9.69834e-06 0 0)
(9.6983e-06 0 0)
(9.69826e-06 0 0)
(9.69821e-06 0 0)
(9.69816e-06 0 0)
(9.6981e-06 0 0)
(9.69803e-06 0 0)
(9.69796e-06 0 0)
(9.69788e-06 0 0)
(9.6978e-06 0 0)
(9.69772e-06 0 0)
(9.69763e-06 0 0)
(9.69753e-06 0 0)
(9.69743e-06 0 0)
(9.69733e-06 0 0)
(9.69722e-06 0 0)
(9.69712e-06 0 0)
(9.697e-06 0 0)
(9.69689e-06 0 0)
(9.69677e-06 0 0)
(9.69664e-06 0 0)
(9.69652e-06 0 0)
(9.69639e-06 0 0)
(9.69626e-06 0 0)
(9.69612e-06 0 0)
(9.69598e-06 0 0)
(9.69584e-06 0 0)
(9.6957e-06 0 0)
(9.69555e-06 0 0)
(9.6954e-06 0 0)
(9.69524e-06 0 0)
(9.69509e-06 0 0)
(9.69492e-06 0 0)
(9.69476e-06 0 0)
(9.69459e-06 0 0)
(9.69441e-06 0 0)
(9.69423e-06 0 0)
(9.69405e-06 0 0)
(9.69385e-06 0 0)
(9.69365e-06 0 0)
(9.69345e-06 0 0)
(9.69323e-06 0 0)
(9.69301e-06 0 0)
(9.69278e-06 0 0)
(9.69254e-06 0 0)
(9.69229e-06 0 0)
(9.69203e-06 0 0)
(9.69176e-06 0 0)
(9.69147e-06 0 0)
(9.69118e-06 0 0)
(9.69087e-06 0 0)
(9.69055e-06 0 0)
(9.69021e-06 0 0)
(9.68986e-06 0 0)
(9.68949e-06 0 0)
(9.68911e-06 0 0)
(9.68872e-06 0 0)
(9.68831e-06 0 0)
(9.68789e-06 0 0)
(9.68745e-06 0 0)
(9.68699e-06 0 0)
(9.68653e-06 0 0)
(9.68605e-06 0 0)
(9.68555e-06 0 0)
(9.68505e-06 0 0)
(9.68453e-06 0 0)
(9.68401e-06 0 0)
(9.68348e-06 0 0)
(9.68294e-06 0 0)
(9.6824e-06 0 0)
(9.68186e-06 0 0)
(9.68132e-06 0 0)
(9.68077e-06 0 0)
(9.68024e-06 0 0)
(9.67971e-06 0 0)
(9.67919e-06 0 0)
(9.67869e-06 0 0)
(9.6782e-06 0 0)
(9.67772e-06 0 0)
(9.67727e-06 0 0)
(9.67685e-06 0 0)
(9.67645e-06 0 0)
(9.67608e-06 0 0)
(9.67574e-06 0 0)
(9.67544e-06 0 0)
(9.67518e-06 0 0)
(9.67495e-06 0 0)
(9.67477e-06 0 0)
(9.67463e-06 0 0)
(9.67454e-06 0 0)
(9.67449e-06 0 0)
(9.67448e-06 0 0)
(9.67448e-06 0 0)
(9.6745e-06 0 0)
(9.6746e-06 0 0)
(9.67479e-06 0 0)
(9.67502e-06 0 0)
(9.67529e-06 0 0)
(9.6756e-06 0 0)
(9.67595e-06 0 0)
(9.67634e-06 0 0)
(9.67676e-06 0 0)
(9.67721e-06 0 0)
(9.67768e-06 0 0)
(9.67817e-06 0 0)
(9.67869e-06 0 0)
(9.67921e-06 0 0)
(9.67974e-06 0 0)
(9.68028e-06 0 0)
(9.68082e-06 0 0)
(9.68136e-06 0 0)
(9.6819e-06 0 0)
(9.68242e-06 0 0)
(9.68293e-06 0 0)
(9.68343e-06 0 0)
(9.68392e-06 0 0)
(9.68438e-06 0 0)
(9.68483e-06 0 0)
(9.68525e-06 0 0)
(9.68565e-06 0 0)
(9.68603e-06 0 0)
(9.68639e-06 0 0)
(9.68673e-06 0 0)
(9.68704e-06 0 0)
(9.68734e-06 0 0)
(9.68761e-06 0 0)
(9.68786e-06 0 0)
(9.6881e-06 0 0)
(9.68831e-06 0 0)
(9.68851e-06 0 0)
(9.6887e-06 0 0)
(9.68887e-06 0 0)
(9.68903e-06 0 0)
(9.68918e-06 0 0)
(9.68933e-06 0 0)
(9.68946e-06 0 0)
(9.68959e-06 0 0)
(9.68971e-06 0 0)
(9.68983e-06 0 0)
(9.68995e-06 0 0)
(9.69006e-06 0 0)
(9.69018e-06 0 0)
(9.69029e-06 0 0)
(9.69041e-06 0 0)
(9.69052e-06 0 0)
(9.69064e-06 0 0)
(9.69076e-06 0 0)
(9.69088e-06 0 0)
(9.69101e-06 0 0)
(9.69114e-06 0 0)
)
;

boundaryField
{
    inlet
    {
        type            fixedValue;
        value           uniform (0 0 0);
    }
    outlet
    {
        type            zeroGradient;
    }
    emptyWalls
    {
        type            empty;
    }
}


// ************************************************************************* //
