/*--------------------------------*- C++ -*----------------------------------*\
  =========                 |
  \\      /  F ield         | OpenFOAM: The Open Source CFD Toolbox
   \\    /   O peration     | Website:  https://openfoam.org
    \\  /    A nd           | Version:  9
     \\/     M anipulation  |
\*---------------------------------------------------------------------------*/
FoamFile
{
    format      ascii;
    class       volVectorField;
    location    "11250";
    object      Ub;
}
// * * * * * * * * * * * * * * * * * * * * * * * * * * * * * * * * * * * * * //

dimensions      [0 0 0 0 0 0 0];

internalField   nonuniform List<vector> 
1000
(
(1.13619e-05 0 0)
(1.13621e-05 0 0)
(1.13622e-05 0 0)
(1.13625e-05 0 0)
(1.13631e-05 0 0)
(1.13638e-05 0 0)
(1.13646e-05 0 0)
(1.13655e-05 0 0)
(1.13662e-05 0 0)
(1.1367e-05 0 0)
(1.13676e-05 0 0)
(1.13682e-05 0 0)
(1.13697e-05 0 0)
(1.13739e-05 0 0)
(1.13919e-05 0 0)
(1.15256e-05 0 0)
(1.16923e-05 0 0)
(1.17521e-05 0 0)
(1.17697e-05 0 0)
(1.17782e-05 0 0)
(1.17837e-05 0 0)
(1.17879e-05 0 0)
(1.17912e-05 0 0)
(1.17939e-05 0 0)
(1.17962e-05 0 0)
(1.17981e-05 0 0)
(1.17997e-05 0 0)
(1.18011e-05 0 0)
(1.18022e-05 0 0)
(1.18032e-05 0 0)
(1.18039e-05 0 0)
(1.18045e-05 0 0)
(1.1805e-05 0 0)
(1.18052e-05 0 0)
(1.18053e-05 0 0)
(1.18052e-05 0 0)
(1.18048e-05 0 0)
(1.18042e-05 0 0)
(1.18032e-05 0 0)
(1.18018e-05 0 0)
(1.17997e-05 0 0)
(1.17968e-05 0 0)
(1.17927e-05 0 0)
(1.17874e-05 0 0)
(1.17812e-05 0 0)
(1.17743e-05 0 0)
(1.1767e-05 0 0)
(1.17593e-05 0 0)
(1.17515e-05 0 0)
(1.17434e-05 0 0)
(1.17352e-05 0 0)
(1.17268e-05 0 0)
(1.17184e-05 0 0)
(1.17098e-05 0 0)
(1.17012e-05 0 0)
(1.16925e-05 0 0)
(1.16837e-05 0 0)
(1.16749e-05 0 0)
(1.16659e-05 0 0)
(1.1657e-05 0 0)
(1.16479e-05 0 0)
(1.16388e-05 0 0)
(1.16297e-05 0 0)
(1.16205e-05 0 0)
(1.16113e-05 0 0)
(1.16021e-05 0 0)
(1.15928e-05 0 0)
(1.15835e-05 0 0)
(1.15742e-05 0 0)
(1.15649e-05 0 0)
(1.15556e-05 0 0)
(1.15462e-05 0 0)
(1.15368e-05 0 0)
(1.15273e-05 0 0)
(1.15177e-05 0 0)
(1.15081e-05 0 0)
(1.14984e-05 0 0)
(1.14886e-05 0 0)
(1.14788e-05 0 0)
(1.14691e-05 0 0)
(1.14592e-05 0 0)
(1.14494e-05 0 0)
(1.14395e-05 0 0)
(1.14294e-05 0 0)
(1.14191e-05 0 0)
(1.14085e-05 0 0)
(1.13977e-05 0 0)
(1.13865e-05 0 0)
(1.1375e-05 0 0)
(1.13632e-05 0 0)
(1.13512e-05 0 0)
(1.13389e-05 0 0)
(1.13266e-05 0 0)
(1.13141e-05 0 0)
(1.13017e-05 0 0)
(1.12893e-05 0 0)
(1.1277e-05 0 0)
(1.1265e-05 0 0)
(1.12534e-05 0 0)
(1.12421e-05 0 0)
(1.12313e-05 0 0)
(1.12211e-05 0 0)
(1.12114e-05 0 0)
(1.12023e-05 0 0)
(1.11938e-05 0 0)
(1.11858e-05 0 0)
(1.11783e-05 0 0)
(1.1171e-05 0 0)
(1.1164e-05 0 0)
(1.1157e-05 0 0)
(1.115e-05 0 0)
(1.11429e-05 0 0)
(1.11355e-05 0 0)
(1.11278e-05 0 0)
(1.11198e-05 0 0)
(1.11114e-05 0 0)
(1.11026e-05 0 0)
(1.10935e-05 0 0)
(1.1084e-05 0 0)
(1.10742e-05 0 0)
(1.10642e-05 0 0)
(1.1054e-05 0 0)
(1.10437e-05 0 0)
(1.10332e-05 0 0)
(1.10227e-05 0 0)
(1.10121e-05 0 0)
(1.10015e-05 0 0)
(1.09909e-05 0 0)
(1.09804e-05 0 0)
(1.09698e-05 0 0)
(1.09594e-05 0 0)
(1.09489e-05 0 0)
(1.09385e-05 0 0)
(1.09282e-05 0 0)
(1.09179e-05 0 0)
(1.09076e-05 0 0)
(1.08973e-05 0 0)
(1.0887e-05 0 0)
(1.08768e-05 0 0)
(1.08665e-05 0 0)
(1.08562e-05 0 0)
(1.0846e-05 0 0)
(1.08357e-05 0 0)
(1.08254e-05 0 0)
(1.0815e-05 0 0)
(1.08047e-05 0 0)
(1.07943e-05 0 0)
(1.07839e-05 0 0)
(1.07734e-05 0 0)
(1.0763e-05 0 0)
(1.07525e-05 0 0)
(1.0742e-05 0 0)
(1.07314e-05 0 0)
(1.07208e-05 0 0)
(1.07102e-05 0 0)
(1.06996e-05 0 0)
(1.0689e-05 0 0)
(1.06783e-05 0 0)
(1.06676e-05 0 0)
(1.06568e-05 0 0)
(1.06461e-05 0 0)
(1.06353e-05 0 0)
(1.06245e-05 0 0)
(1.06137e-05 0 0)
(1.06029e-05 0 0)
(1.0592e-05 0 0)
(1.05811e-05 0 0)
(1.05702e-05 0 0)
(1.05593e-05 0 0)
(1.05483e-05 0 0)
(1.05374e-05 0 0)
(1.05264e-05 0 0)
(1.05153e-05 0 0)
(1.05043e-05 0 0)
(1.04932e-05 0 0)
(1.04821e-05 0 0)
(1.0471e-05 0 0)
(1.04599e-05 0 0)
(1.04487e-05 0 0)
(1.04375e-05 0 0)
(1.04263e-05 0 0)
(1.0415e-05 0 0)
(1.04037e-05 0 0)
(1.03924e-05 0 0)
(1.03811e-05 0 0)
(1.03698e-05 0 0)
(1.03584e-05 0 0)
(1.0347e-05 0 0)
(1.03355e-05 0 0)
(1.03241e-05 0 0)
(1.03126e-05 0 0)
(1.03011e-05 0 0)
(1.02896e-05 0 0)
(1.0278e-05 0 0)
(1.02664e-05 0 0)
(1.02548e-05 0 0)
(1.02432e-05 0 0)
(1.02315e-05 0 0)
(1.02198e-05 0 0)
(1.02081e-05 0 0)
(1.01964e-05 0 0)
(1.01847e-05 0 0)
(1.01729e-05 0 0)
(1.01612e-05 0 0)
(1.01494e-05 0 0)
(1.01376e-05 0 0)
(1.01257e-05 0 0)
(1.01139e-05 0 0)
(1.0102e-05 0 0)
(1.00901e-05 0 0)
(1.00782e-05 0 0)
(1.00663e-05 0 0)
(1.00543e-05 0 0)
(1.00423e-05 0 0)
(1.00303e-05 0 0)
(1.00183e-05 0 0)
(1.00062e-05 0 0)
(9.99408e-06 0 0)
(9.98194e-06 0 0)
(9.96975e-06 0 0)
(9.95753e-06 0 0)
(9.94524e-06 0 0)
(9.9329e-06 0 0)
(9.92049e-06 0 0)
(9.90801e-06 0 0)
(9.89544e-06 0 0)
(9.88277e-06 0 0)
(9.87001e-06 0 0)
(9.85714e-06 0 0)
(9.84416e-06 0 0)
(9.83108e-06 0 0)
(9.81788e-06 0 0)
(9.80458e-06 0 0)
(9.79117e-06 0 0)
(9.77767e-06 0 0)
(9.76409e-06 0 0)
(9.75043e-06 0 0)
(9.73672e-06 0 0)
(9.72297e-06 0 0)
(9.7092e-06 0 0)
(9.69544e-06 0 0)
(9.6817e-06 0 0)
(9.66802e-06 0 0)
(9.6544e-06 0 0)
(9.64089e-06 0 0)
(9.6275e-06 0 0)
(9.61424e-06 0 0)
(9.60115e-06 0 0)
(9.58823e-06 0 0)
(9.57549e-06 0 0)
(9.56295e-06 0 0)
(9.55059e-06 0 0)
(9.53841e-06 0 0)
(9.52641e-06 0 0)
(9.51457e-06 0 0)
(9.50286e-06 0 0)
(9.49126e-06 0 0)
(9.47974e-06 0 0)
(9.46829e-06 0 0)
(9.45685e-06 0 0)
(9.44541e-06 0 0)
(9.43394e-06 0 0)
(9.42241e-06 0 0)
(9.41079e-06 0 0)
(9.39908e-06 0 0)
(9.38724e-06 0 0)
(9.37528e-06 0 0)
(9.36318e-06 0 0)
(9.35094e-06 0 0)
(9.33857e-06 0 0)
(9.32605e-06 0 0)
(9.3134e-06 0 0)
(9.30063e-06 0 0)
(9.28773e-06 0 0)
(9.27473e-06 0 0)
(9.26164e-06 0 0)
(9.24845e-06 0 0)
(9.23519e-06 0 0)
(9.22186e-06 0 0)
(9.20848e-06 0 0)
(9.19504e-06 0 0)
(9.18156e-06 0 0)
(9.16805e-06 0 0)
(9.1545e-06 0 0)
(9.14093e-06 0 0)
(9.12734e-06 0 0)
(9.11372e-06 0 0)
(9.10009e-06 0 0)
(9.08644e-06 0 0)
(9.07277e-06 0 0)
(9.05909e-06 0 0)
(9.04538e-06 0 0)
(9.03166e-06 0 0)
(9.01792e-06 0 0)
(9.00415e-06 0 0)
(8.99037e-06 0 0)
(8.97655e-06 0 0)
(8.96271e-06 0 0)
(8.94884e-06 0 0)
(8.93494e-06 0 0)
(8.92101e-06 0 0)
(8.90704e-06 0 0)
(8.89304e-06 0 0)
(8.879e-06 0 0)
(8.86492e-06 0 0)
(8.85081e-06 0 0)
(8.83665e-06 0 0)
(8.82245e-06 0 0)
(8.80821e-06 0 0)
(8.79393e-06 0 0)
(8.7796e-06 0 0)
(8.76523e-06 0 0)
(8.75082e-06 0 0)
(8.73636e-06 0 0)
(8.72185e-06 0 0)
(8.7073e-06 0 0)
(8.6927e-06 0 0)
(8.67806e-06 0 0)
(8.66337e-06 0 0)
(8.64863e-06 0 0)
(8.63384e-06 0 0)
(8.619e-06 0 0)
(8.60412e-06 0 0)
(8.58918e-06 0 0)
(8.5742e-06 0 0)
(8.55917e-06 0 0)
(8.54408e-06 0 0)
(8.52895e-06 0 0)
(8.51376e-06 0 0)
(8.49853e-06 0 0)
(8.48324e-06 0 0)
(8.4679e-06 0 0)
(8.45251e-06 0 0)
(8.43706e-06 0 0)
(8.42156e-06 0 0)
(8.40601e-06 0 0)
(8.3904e-06 0 0)
(8.37474e-06 0 0)
(8.35902e-06 0 0)
(8.34325e-06 0 0)
(8.32741e-06 0 0)
(8.31153e-06 0 0)
(8.29558e-06 0 0)
(8.27957e-06 0 0)
(8.2635e-06 0 0)
(8.24738e-06 0 0)
(8.23119e-06 0 0)
(8.21494e-06 0 0)
(8.19863e-06 0 0)
(8.18225e-06 0 0)
(8.16582e-06 0 0)
(8.14931e-06 0 0)
(8.13275e-06 0 0)
(8.11611e-06 0 0)
(8.09941e-06 0 0)
(8.08265e-06 0 0)
(8.06581e-06 0 0)
(8.04891e-06 0 0)
(8.03194e-06 0 0)
(8.0149e-06 0 0)
(7.99778e-06 0 0)
(7.9806e-06 0 0)
(7.96334e-06 0 0)
(7.94601e-06 0 0)
(7.9286e-06 0 0)
(7.91112e-06 0 0)
(7.89357e-06 0 0)
(7.87594e-06 0 0)
(7.85823e-06 0 0)
(7.84044e-06 0 0)
(7.82258e-06 0 0)
(7.80463e-06 0 0)
(7.7866e-06 0 0)
(7.76849e-06 0 0)
(7.75029e-06 0 0)
(7.73201e-06 0 0)
(7.71364e-06 0 0)
(7.69518e-06 0 0)
(7.67663e-06 0 0)
(7.658e-06 0 0)
(7.63926e-06 0 0)
(7.62043e-06 0 0)
(7.60151e-06 0 0)
(7.58248e-06 0 0)
(7.56334e-06 0 0)
(7.54411e-06 0 0)
(7.52476e-06 0 0)
(7.50531e-06 0 0)
(7.48574e-06 0 0)
(7.46605e-06 0 0)
(7.44624e-06 0 0)
(7.42631e-06 0 0)
(7.40625e-06 0 0)
(7.38605e-06 0 0)
(7.36572e-06 0 0)
(7.34526e-06 0 0)
(7.32466e-06 0 0)
(7.30391e-06 0 0)
(7.28301e-06 0 0)
(7.26197e-06 0 0)
(7.24078e-06 0 0)
(7.21943e-06 0 0)
(7.19794e-06 0 0)
(7.1763e-06 0 0)
(7.15451e-06 0 0)
(7.13258e-06 0 0)
(7.1105e-06 0 0)
(7.08828e-06 0 0)
(7.06593e-06 0 0)
(7.04345e-06 0 0)
(7.02086e-06 0 0)
(6.99817e-06 0 0)
(6.97538e-06 0 0)
(6.95252e-06 0 0)
(6.92959e-06 0 0)
(6.90663e-06 0 0)
(6.88366e-06 0 0)
(6.86071e-06 0 0)
(6.83782e-06 0 0)
(6.81503e-06 0 0)
(6.79238e-06 0 0)
(6.76993e-06 0 0)
(6.74775e-06 0 0)
(6.72591e-06 0 0)
(6.70449e-06 0 0)
(6.68359e-06 0 0)
(6.66329e-06 0 0)
(6.6437e-06 0 0)
(6.62492e-06 0 0)
(6.60705e-06 0 0)
(6.5902e-06 0 0)
(6.57445e-06 0 0)
(6.55988e-06 0 0)
(6.54653e-06 0 0)
(6.53444e-06 0 0)
(6.52361e-06 0 0)
(6.51401e-06 0 0)
(6.50557e-06 0 0)
(6.49815e-06 0 0)
(6.49152e-06 0 0)
(6.48531e-06 0 0)
(6.47895e-06 0 0)
(6.47145e-06 0 0)
(6.46116e-06 0 0)
(6.4452e-06 0 0)
(6.41861e-06 0 0)
(6.37292e-06 0 0)
(6.29417e-06 0 0)
(6.16074e-06 0 0)
(5.94313e-06 0 0)
(5.61038e-06 0 0)
(5.14866e-06 0 0)
(4.58728e-06 0 0)
(4.00582e-06 0 0)
(3.49866e-06 0 0)
(3.12243e-06 0 0)
(2.87813e-06 0 0)
(2.73398e-06 0 0)
(2.65398e-06 0 0)
(2.61115e-06 0 0)
(2.58868e-06 0 0)
(2.57703e-06 0 0)
(2.57102e-06 0 0)
(2.56793e-06 0 0)
(2.56636e-06 0 0)
(2.56556e-06 0 0)
(2.56515e-06 0 0)
(2.56495e-06 0 0)
(2.56486e-06 0 0)
(2.56482e-06 0 0)
(2.56481e-06 0 0)
(2.56481e-06 0 0)
(2.56482e-06 0 0)
(2.56483e-06 0 0)
(2.56485e-06 0 0)
(2.56487e-06 0 0)
(2.56489e-06 0 0)
(2.56492e-06 0 0)
(2.56494e-06 0 0)
(2.56497e-06 0 0)
(2.565e-06 0 0)
(2.56503e-06 0 0)
(2.56506e-06 0 0)
(2.5651e-06 0 0)
(2.56513e-06 0 0)
(2.56517e-06 0 0)
(2.56521e-06 0 0)
(2.56525e-06 0 0)
(2.56528e-06 0 0)
(2.56532e-06 0 0)
(2.56537e-06 0 0)
(2.56541e-06 0 0)
(2.56545e-06 0 0)
(2.56549e-06 0 0)
(2.56553e-06 0 0)
(2.56557e-06 0 0)
(2.56561e-06 0 0)
(2.56565e-06 0 0)
(2.56569e-06 0 0)
(2.56573e-06 0 0)
(2.56577e-06 0 0)
(2.56581e-06 0 0)
(2.56584e-06 0 0)
(2.56588e-06 0 0)
(2.56591e-06 0 0)
(2.56594e-06 0 0)
(2.56597e-06 0 0)
(2.566e-06 0 0)
(2.56603e-06 0 0)
(2.56606e-06 0 0)
(2.56608e-06 0 0)
(2.56611e-06 0 0)
(2.56613e-06 0 0)
(2.56615e-06 0 0)
(2.56616e-06 0 0)
(2.56618e-06 0 0)
(2.5662e-06 0 0)
(2.56621e-06 0 0)
(2.56622e-06 0 0)
(2.56623e-06 0 0)
(2.56624e-06 0 0)
(2.56625e-06 0 0)
(2.56626e-06 0 0)
(2.56627e-06 0 0)
(2.56627e-06 0 0)
(2.56627e-06 0 0)
(2.56628e-06 0 0)
(2.56628e-06 0 0)
(2.56628e-06 0 0)
(2.56628e-06 0 0)
(2.56628e-06 0 0)
(2.56628e-06 0 0)
(2.56627e-06 0 0)
(2.56627e-06 0 0)
(2.56627e-06 0 0)
(2.56626e-06 0 0)
(2.56626e-06 0 0)
(2.56625e-06 0 0)
(2.56625e-06 0 0)
(2.56624e-06 0 0)
(2.56623e-06 0 0)
(2.56622e-06 0 0)
(2.56622e-06 0 0)
(2.56621e-06 0 0)
(2.5662e-06 0 0)
(2.56619e-06 0 0)
(2.56617e-06 0 0)
(2.56616e-06 0 0)
(2.56615e-06 0 0)
(2.56614e-06 0 0)
(2.56612e-06 0 0)
(2.56611e-06 0 0)
(2.5661e-06 0 0)
(2.56608e-06 0 0)
(2.56606e-06 0 0)
(2.56605e-06 0 0)
(2.56603e-06 0 0)
(2.56601e-06 0 0)
(2.566e-06 0 0)
(2.56598e-06 0 0)
(2.56596e-06 0 0)
(2.56594e-06 0 0)
(2.56592e-06 0 0)
(2.5659e-06 0 0)
(2.56588e-06 0 0)
(2.56586e-06 0 0)
(2.56583e-06 0 0)
(2.56581e-06 0 0)
(2.56579e-06 0 0)
(2.56576e-06 0 0)
(2.56574e-06 0 0)
(2.56572e-06 0 0)
(2.56569e-06 0 0)
(2.56566e-06 0 0)
(2.56564e-06 0 0)
(2.56561e-06 0 0)
(2.56558e-06 0 0)
(2.56555e-06 0 0)
(2.56552e-06 0 0)
(2.56549e-06 0 0)
(2.56545e-06 0 0)
(2.56542e-06 0 0)
(2.56538e-06 0 0)
(2.56534e-06 0 0)
(2.5653e-06 0 0)
(2.56526e-06 0 0)
(2.56521e-06 0 0)
(2.56516e-06 0 0)
(2.56511e-06 0 0)
(2.56505e-06 0 0)
(2.56499e-06 0 0)
(2.56493e-06 0 0)
(2.56486e-06 0 0)
(2.56479e-06 0 0)
(2.56471e-06 0 0)
(2.56463e-06 0 0)
(2.56454e-06 0 0)
(2.56444e-06 0 0)
(2.56434e-06 0 0)
(2.56424e-06 0 0)
(2.56412e-06 0 0)
(2.564e-06 0 0)
(2.56388e-06 0 0)
(2.56375e-06 0 0)
(2.56361e-06 0 0)
(2.56346e-06 0 0)
(2.56331e-06 0 0)
(2.56316e-06 0 0)
(2.563e-06 0 0)
(2.56283e-06 0 0)
(2.56266e-06 0 0)
(2.56249e-06 0 0)
(2.56231e-06 0 0)
(2.56213e-06 0 0)
(2.56195e-06 0 0)
(2.56177e-06 0 0)
(2.56159e-06 0 0)
(2.56142e-06 0 0)
(2.56124e-06 0 0)
(2.56107e-06 0 0)
(2.56091e-06 0 0)
(2.56075e-06 0 0)
(2.5606e-06 0 0)
(2.56046e-06 0 0)
(2.56033e-06 0 0)
(2.56021e-06 0 0)
(2.5601e-06 0 0)
(2.56e-06 0 0)
(2.55992e-06 0 0)
(2.55986e-06 0 0)
(2.55981e-06 0 0)
(2.55978e-06 0 0)
(2.55976e-06 0 0)
(2.55976e-06 0 0)
(2.55976e-06 0 0)
(2.55977e-06 0 0)
(2.5598e-06 0 0)
(2.55987e-06 0 0)
(2.55996e-06 0 0)
(2.56006e-06 0 0)
(2.56017e-06 0 0)
(2.56029e-06 0 0)
(2.56043e-06 0 0)
(2.56058e-06 0 0)
(2.56073e-06 0 0)
(2.5609e-06 0 0)
(2.56107e-06 0 0)
(2.56124e-06 0 0)
(2.56142e-06 0 0)
(2.5616e-06 0 0)
(2.56177e-06 0 0)
(2.56195e-06 0 0)
(2.56213e-06 0 0)
(2.5623e-06 0 0)
(2.56246e-06 0 0)
(2.56262e-06 0 0)
(2.56278e-06 0 0)
(2.56293e-06 0 0)
(2.56307e-06 0 0)
(2.5632e-06 0 0)
(2.56332e-06 0 0)
(2.56344e-06 0 0)
(2.56355e-06 0 0)
(2.56365e-06 0 0)
(2.56374e-06 0 0)
(2.56383e-06 0 0)
(2.56391e-06 0 0)
(2.56398e-06 0 0)
(2.56404e-06 0 0)
(2.5641e-06 0 0)
(2.56416e-06 0 0)
(2.56421e-06 0 0)
(2.56426e-06 0 0)
(2.5643e-06 0 0)
(2.56434e-06 0 0)
(2.56437e-06 0 0)
(2.56441e-06 0 0)
(2.56444e-06 0 0)
(2.56447e-06 0 0)
(2.5645e-06 0 0)
(2.56453e-06 0 0)
(2.56456e-06 0 0)
(2.5646e-06 0 0)
(2.56463e-06 0 0)
(2.56466e-06 0 0)
(2.56469e-06 0 0)
(2.56473e-06 0 0)
(2.56476e-06 0 0)
(2.5648e-06 0 0)
(2.56484e-06 0 0)
(2.56488e-06 0 0)
(2.56492e-06 0 0)
(2.56497e-06 0 0)
(2.56501e-06 0 0)
(2.56505e-06 0 0)
(2.5651e-06 0 0)
(2.56514e-06 0 0)
(2.56519e-06 0 0)
(2.56523e-06 0 0)
(2.56528e-06 0 0)
(2.56532e-06 0 0)
(2.56537e-06 0 0)
(2.56541e-06 0 0)
(2.56545e-06 0 0)
(2.5655e-06 0 0)
(2.56554e-06 0 0)
(2.56558e-06 0 0)
(2.56562e-06 0 0)
(2.56566e-06 0 0)
(2.56569e-06 0 0)
(2.56573e-06 0 0)
(2.56577e-06 0 0)
(2.5658e-06 0 0)
(2.56583e-06 0 0)
(2.56586e-06 0 0)
(2.5659e-06 0 0)
(2.56592e-06 0 0)
(2.56595e-06 0 0)
(2.56598e-06 0 0)
(2.56601e-06 0 0)
(2.56603e-06 0 0)
(2.56605e-06 0 0)
(2.56608e-06 0 0)
(2.5661e-06 0 0)
(2.56612e-06 0 0)
(2.56614e-06 0 0)
(2.56615e-06 0 0)
(2.56617e-06 0 0)
(2.56618e-06 0 0)
(2.5662e-06 0 0)
(2.56621e-06 0 0)
(2.56622e-06 0 0)
(2.56623e-06 0 0)
(2.56624e-06 0 0)
(2.56625e-06 0 0)
(2.56626e-06 0 0)
(2.56626e-06 0 0)
(2.56627e-06 0 0)
(2.56627e-06 0 0)
(2.56628e-06 0 0)
(2.56628e-06 0 0)
(2.56628e-06 0 0)
(2.56628e-06 0 0)
(2.56628e-06 0 0)
(2.56628e-06 0 0)
(2.56628e-06 0 0)
(2.56628e-06 0 0)
(2.56627e-06 0 0)
(2.56627e-06 0 0)
(2.56626e-06 0 0)
(2.56626e-06 0 0)
(2.56625e-06 0 0)
(2.56624e-06 0 0)
(2.56623e-06 0 0)
(2.56622e-06 0 0)
(2.56621e-06 0 0)
(2.5662e-06 0 0)
(2.56619e-06 0 0)
(2.56618e-06 0 0)
(2.56616e-06 0 0)
(2.56615e-06 0 0)
(2.56614e-06 0 0)
(2.56612e-06 0 0)
(2.5661e-06 0 0)
(2.56609e-06 0 0)
(2.56607e-06 0 0)
(2.56605e-06 0 0)
(2.56603e-06 0 0)
(2.56602e-06 0 0)
(2.566e-06 0 0)
(2.56597e-06 0 0)
(2.56595e-06 0 0)
(2.56593e-06 0 0)
(2.56591e-06 0 0)
(2.56589e-06 0 0)
(2.56586e-06 0 0)
(2.56584e-06 0 0)
(2.56581e-06 0 0)
(2.56579e-06 0 0)
(2.56576e-06 0 0)
(2.56573e-06 0 0)
(2.5657e-06 0 0)
(2.56567e-06 0 0)
(2.56564e-06 0 0)
(2.56561e-06 0 0)
(2.56557e-06 0 0)
(2.56553e-06 0 0)
(2.5655e-06 0 0)
(2.56546e-06 0 0)
(2.56542e-06 0 0)
(2.56537e-06 0 0)
(2.56533e-06 0 0)
(2.56528e-06 0 0)
(2.56523e-06 0 0)
(2.56517e-06 0 0)
(2.56512e-06 0 0)
(2.56505e-06 0 0)
(2.56499e-06 0 0)
(2.56492e-06 0 0)
(2.56485e-06 0 0)
(2.56477e-06 0 0)
(2.5647e-06 0 0)
(2.56461e-06 0 0)
(2.56452e-06 0 0)
(2.56443e-06 0 0)
(2.56433e-06 0 0)
(2.56423e-06 0 0)
(2.56412e-06 0 0)
(2.56401e-06 0 0)
(2.56389e-06 0 0)
(2.56377e-06 0 0)
(2.56365e-06 0 0)
(2.56352e-06 0 0)
(2.56338e-06 0 0)
(2.56324e-06 0 0)
(2.5631e-06 0 0)
(2.56296e-06 0 0)
(2.56281e-06 0 0)
(2.56266e-06 0 0)
(2.56251e-06 0 0)
(2.56236e-06 0 0)
(2.56221e-06 0 0)
(2.56206e-06 0 0)
(2.56191e-06 0 0)
(2.56176e-06 0 0)
(2.56161e-06 0 0)
(2.56147e-06 0 0)
(2.56133e-06 0 0)
(2.5612e-06 0 0)
(2.56107e-06 0 0)
(2.56095e-06 0 0)
(2.56084e-06 0 0)
(2.56073e-06 0 0)
(2.56064e-06 0 0)
(2.56055e-06 0 0)
(2.56048e-06 0 0)
(2.56041e-06 0 0)
(2.56036e-06 0 0)
(2.56032e-06 0 0)
(2.56029e-06 0 0)
(2.56028e-06 0 0)
(2.56028e-06 0 0)
(2.56028e-06 0 0)
(2.56028e-06 0 0)
(2.56031e-06 0 0)
(2.56036e-06 0 0)
(2.56042e-06 0 0)
(2.5605e-06 0 0)
(2.56058e-06 0 0)
(2.56068e-06 0 0)
(2.56079e-06 0 0)
(2.5609e-06 0 0)
(2.56103e-06 0 0)
(2.56116e-06 0 0)
(2.5613e-06 0 0)
(2.56144e-06 0 0)
(2.56158e-06 0 0)
(2.56173e-06 0 0)
(2.56188e-06 0 0)
(2.56203e-06 0 0)
(2.56218e-06 0 0)
(2.56232e-06 0 0)
(2.56247e-06 0 0)
(2.56261e-06 0 0)
(2.56275e-06 0 0)
(2.56288e-06 0 0)
(2.56301e-06 0 0)
(2.56314e-06 0 0)
(2.56326e-06 0 0)
(2.56337e-06 0 0)
(2.56348e-06 0 0)
(2.56358e-06 0 0)
(2.56367e-06 0 0)
(2.56376e-06 0 0)
(2.56384e-06 0 0)
(2.56392e-06 0 0)
(2.56399e-06 0 0)
(2.56406e-06 0 0)
(2.56412e-06 0 0)
(2.56418e-06 0 0)
(2.56424e-06 0 0)
(2.56429e-06 0 0)
(2.56434e-06 0 0)
(2.56438e-06 0 0)
(2.56442e-06 0 0)
(2.56446e-06 0 0)
(2.5645e-06 0 0)
(2.56453e-06 0 0)
(2.56457e-06 0 0)
(2.5646e-06 0 0)
(2.56464e-06 0 0)
(2.56467e-06 0 0)
(2.5647e-06 0 0)
(2.56473e-06 0 0)
(2.56476e-06 0 0)
(2.56479e-06 0 0)
(2.56482e-06 0 0)
(2.56486e-06 0 0)
(2.56489e-06 0 0)
(2.56492e-06 0 0)
(2.56495e-06 0 0)
(2.56499e-06 0 0)
(2.56502e-06 0 0)
(2.56505e-06 0 0)
(2.56508e-06 0 0)
(2.56512e-06 0 0)
(2.56515e-06 0 0)
(2.56519e-06 0 0)
(2.56522e-06 0 0)
(2.56526e-06 0 0)
(2.56529e-06 0 0)
(2.56532e-06 0 0)
(2.56536e-06 0 0)
(2.56539e-06 0 0)
(2.56543e-06 0 0)
(2.56546e-06 0 0)
(2.56549e-06 0 0)
(2.56553e-06 0 0)
(2.56556e-06 0 0)
(2.56559e-06 0 0)
(2.56562e-06 0 0)
(2.56565e-06 0 0)
(2.56568e-06 0 0)
(2.56571e-06 0 0)
(2.56574e-06 0 0)
(2.56577e-06 0 0)
(2.56579e-06 0 0)
(2.56582e-06 0 0)
(2.56584e-06 0 0)
(2.56587e-06 0 0)
(2.56589e-06 0 0)
(2.56591e-06 0 0)
(2.56593e-06 0 0)
(2.56595e-06 0 0)
(2.56597e-06 0 0)
(2.56599e-06 0 0)
(2.56601e-06 0 0)
(2.56602e-06 0 0)
(2.56604e-06 0 0)
(2.56605e-06 0 0)
(2.56606e-06 0 0)
(2.56607e-06 0 0)
(2.56608e-06 0 0)
(2.56609e-06 0 0)
(2.5661e-06 0 0)
(2.56611e-06 0 0)
(2.56611e-06 0 0)
(2.56612e-06 0 0)
(2.56612e-06 0 0)
(2.56612e-06 0 0)
(2.56613e-06 0 0)
(2.56613e-06 0 0)
(2.56613e-06 0 0)
(2.56613e-06 0 0)
(2.56613e-06 0 0)
(2.56612e-06 0 0)
(2.56612e-06 0 0)
(2.56612e-06 0 0)
(2.56611e-06 0 0)
(2.56611e-06 0 0)
(2.5661e-06 0 0)
(2.56609e-06 0 0)
(2.56609e-06 0 0)
(2.56608e-06 0 0)
(2.56607e-06 0 0)
(2.56606e-06 0 0)
(2.56605e-06 0 0)
(2.56604e-06 0 0)
(2.56602e-06 0 0)
(2.56601e-06 0 0)
(2.566e-06 0 0)
(2.56598e-06 0 0)
(2.56597e-06 0 0)
(2.56595e-06 0 0)
(2.56594e-06 0 0)
(2.56592e-06 0 0)
(2.56591e-06 0 0)
(2.56589e-06 0 0)
(2.56587e-06 0 0)
(2.56585e-06 0 0)
(2.56583e-06 0 0)
(2.56581e-06 0 0)
(2.56579e-06 0 0)
(2.56576e-06 0 0)
(2.56574e-06 0 0)
(2.56572e-06 0 0)
(2.56569e-06 0 0)
(2.56566e-06 0 0)
(2.56564e-06 0 0)
(2.56561e-06 0 0)
(2.56558e-06 0 0)
(2.56554e-06 0 0)
(2.56551e-06 0 0)
(2.56547e-06 0 0)
(2.56544e-06 0 0)
(2.5654e-06 0 0)
(2.56536e-06 0 0)
(2.56531e-06 0 0)
(2.56527e-06 0 0)
(2.56522e-06 0 0)
)
;

boundaryField
{
    inlet
    {
        type            fixedValue;
        value           uniform (1.13622e-05 0 0);
    }
    outlet
    {
        type            zeroGradient;
    }
    emptyWalls
    {
        type            empty;
    }
}


// ************************************************************************* //
