/*--------------------------------*- C++ -*----------------------------------*\
  =========                 |
  \\      /  F ield         | OpenFOAM: The Open Source CFD Toolbox
   \\    /   O peration     | Website:  https://openfoam.org
    \\  /    A nd           | Version:  9
     \\/     M anipulation  |
\*---------------------------------------------------------------------------*/
FoamFile
{
    format      ascii;
    class       volScalarField;
    location    "3800";
    object      krb;
}
// * * * * * * * * * * * * * * * * * * * * * * * * * * * * * * * * * * * * * //

dimensions      [0 0 0 0 0 0 0];

internalField   nonuniform List<scalar> 
1000
(
0.0991674
0.102513
0.106199
0.114328
0.150369
0.372452
0.492564
0.51669
0.525201
0.52884
0.530324
0.530607
0.52958
0.525334
0.517286
0.507716
0.497829
0.488018
0.478461
0.469233
0.460358
0.451835
0.443658
0.435812
0.428283
0.421053
0.414101
0.407407
0.40095
0.39471
0.388672
0.38282
0.377144
0.371633
0.366278
0.361074
0.356014
0.351093
0.346306
0.341647
0.337112
0.332696
0.328393
0.324198
0.320106
0.316113
0.312213
0.308403
0.304678
0.301035
0.297469
0.293978
0.290559
0.287208
0.283923
0.280701
0.277539
0.274436
0.27139
0.268398
0.265458
0.262568
0.259728
0.256934
0.254185
0.251481
0.248819
0.246198
0.243616
0.241073
0.238567
0.236096
0.233661
0.231259
0.22889
0.226552
0.224244
0.221967
0.219718
0.217497
0.215302
0.213135
0.210992
0.208874
0.20678
0.204709
0.20266
0.200633
0.198627
0.196642
0.194676
0.19273
0.190802
0.188892
0.186999
0.185124
0.183264
0.181421
0.179592
0.177778
0.175979
0.174193
0.172421
0.17066
0.168912
0.167176
0.165451
0.163737
0.162033
0.160339
0.158654
0.156978
0.155311
0.153652
0.152
0.150356
0.148718
0.147086
0.14546
0.143838
0.142222
0.14061
0.139002
0.137396
0.135794
0.134194
0.132596
0.131
0.129405
0.127812
0.126218
0.124626
0.123034
0.121445
0.119859
0.118278
0.116705
0.115144
0.113601
0.112082
0.110595
0.109147
0.107738
0.106362
0.10499
0.103555
0.101928
0.0998751
0.0970202
0.092823
0.086685
0.0782937
0.0681596
0.0578049
0.0490065
0.0427001
0.0387414
0.0364694
0.035235
0.0345845
0.0342479
0.0340753
0.0339873
0.0339424
0.0339197
0.0339083
0.0339023
0.0338991
0.0338972
0.0338962
0.0338955
0.033895
0.0338944
0.0338939
0.0338933
0.0338927
0.0338921
0.0338915
0.0338908
0.0338902
0.0338895
0.0338887
0.033888
0.0338873
0.0338866
0.0338859
0.0338852
0.0338846
0.033884
0.0338835
0.0338831
0.0338827
0.0338826
0.0338825
0.0338825
0.0338825
0.0338826
0.033883
0.0338835
0.0338842
0.0338849
0.0338858
0.0338867
0.0338878
0.0338888
0.0338899
0.033891
0.0338921
0.0338932
0.0338943
0.0338952
0.0338961
0.0338969
0.0338976
0.0338982
0.0338987
0.0338991
0.0338995
0.0338997
0.0338998
0.0338999
0.0338999
0.0338999
0.0338998
0.0338997
0.0338995
0.0338993
0.0338991
0.0338989
0.0338987
0.0338985
0.0338983
0.0338981
0.0338979
0.0338978
0.0338976
0.0338975
0.0338973
0.0338972
0.0338971
0.033897
0.0338969
0.0338969
0.0338968
0.0338967
0.0338966
0.0338966
0.0338965
0.0338964
0.0338963
0.0338963
0.0338962
0.0338962
0.0338961
0.033896
0.033896
0.0338959
0.0338958
0.0338957
0.0338956
0.0338955
0.0338954
0.0338953
0.0338953
0.0338952
0.0338951
0.033895
0.0338949
0.0338949
0.0338948
0.0338947
0.0338946
0.0338945
0.0338944
0.0338944
0.0338943
0.0338942
0.0338942
0.0338941
0.033894
0.033894
0.0338939
0.0338939
0.0338938
0.0338938
0.0338938
0.0338938
0.0338937
0.0338937
0.0338937
0.0338937
0.0338937
0.0338937
0.0338937
0.0338937
0.0338937
0.0338938
0.0338938
0.0338939
0.0338939
0.033894
0.033894
0.0338941
0.0338941
0.0338942
0.0338943
0.0338943
0.0338944
0.0338945
0.0338946
0.0338947
0.0338948
0.0338949
0.033895
0.0338951
0.0338951
0.0338952
0.0338953
0.0338954
0.0338955
0.0338956
0.0338957
0.0338958
0.0338958
0.0338959
0.0338959
0.033896
0.0338961
0.0338961
0.0338962
0.0338962
0.0338962
0.0338963
0.0338963
0.0338963
0.0338963
0.0338963
0.0338963
0.0338963
0.0338962
0.0338962
0.0338962
0.0338961
0.0338961
0.033896
0.0338959
0.0338959
0.0338959
0.0338958
0.0338957
0.0338957
0.0338956
0.0338955
0.0338955
0.0338954
0.0338953
0.0338952
0.0338951
0.0338951
0.033895
0.033895
0.0338949
0.0338948
0.0338948
0.0338947
0.0338946
0.0338945
0.0338945
0.0338944
0.0338943
0.0338942
0.0338941
0.033894
0.0338939
0.0338938
0.0338936
0.0338935
0.0338933
0.0338931
0.0338928
0.0338925
0.0338922
0.0338919
0.0338916
0.0338912
0.0338908
0.0338903
0.0338898
0.0338893
0.0338888
0.0338882
0.0338876
0.0338869
0.0338863
0.0338856
0.0338849
0.0338843
0.0338836
0.0338829
0.0338822
0.0338816
0.033881
0.0338804
0.0338799
0.0338795
0.0338791
0.0338788
0.0338786
0.0338784
0.0338784
0.0338784
0.0338785
0.0338786
0.033879
0.0338794
0.03388
0.0338808
0.0338816
0.0338825
0.0338835
0.0338845
0.0338855
0.0338865
0.0338875
0.0338886
0.0338895
0.0338905
0.0338914
0.0338922
0.0338929
0.0338936
0.0338942
0.0338947
0.0338952
0.0338955
0.0338958
0.033896
0.0338961
0.0338962
0.0338963
0.0338963
0.0338963
0.0338963
0.0338963
0.0338962
0.033896
0.0338959
0.0338957
0.0338956
0.0338954
0.0338953
0.0338952
0.0338951
0.033895
0.0338948
0.0338947
0.0338946
0.0338946
0.0338945
0.0338945
0.0338944
0.0338944
0.0338944
0.0338944
0.0338944
0.0338944
0.0338944
0.0338945
0.0338945
0.0338945
0.0338946
0.0338946
0.0338947
0.0338947
0.0338948
0.0338948
0.0338949
0.033895
0.033895
0.0338951
0.0338952
0.0338952
0.0338953
0.0338953
0.0338954
0.0338955
0.0338955
0.0338956
0.0338956
0.0338957
0.0338957
0.0338958
0.0338958
0.0338959
0.0338959
0.0338959
0.033896
0.033896
0.033896
0.0338961
0.0338961
0.0338962
0.0338962
0.0338962
0.0338962
0.0338962
0.0338962
0.0338962
0.0338962
0.0338962
0.0338962
0.0338962
0.0338962
0.0338961
0.0338961
0.0338961
0.033896
0.033896
0.0338959
0.0338959
0.0338959
0.0338958
0.0338958
0.0338957
0.0338957
0.0338956
0.0338956
0.0338955
0.0338955
0.0338954
0.0338954
0.0338953
0.0338953
0.0338953
0.0338953
0.0338952
0.0338952
0.0338952
0.0338952
0.0338952
0.0338952
0.0338952
0.0338952
0.0338952
0.0338952
0.0338952
0.0338952
0.0338952
0.0338952
0.0338953
0.0338953
0.0338954
0.0338954
0.0338954
0.0338955
0.0338955
0.0338956
0.0338956
0.0338956
0.0338957
0.0338957
0.0338957
0.0338957
0.0338957
0.0338957
0.0338958
0.0338958
0.0338958
0.0338957
0.0338957
0.0338957
0.0338957
0.0338956
0.0338956
0.0338955
0.0338955
0.0338954
0.0338953
0.0338952
0.033895
0.0338949
0.0338948
0.0338947
0.0338945
0.0338943
0.033894
0.0338938
0.0338935
0.0338933
0.033893
0.0338927
0.0338924
0.033892
0.0338916
0.0338912
0.0338908
0.0338904
0.0338899
0.0338895
0.0338891
0.0338886
0.033888
0.0338875
0.033887
0.0338865
0.033886
0.0338855
0.0338851
0.0338847
0.0338842
0.0338839
0.0338835
0.0338833
0.0338831
0.033883
0.0338829
0.0338829
0.0338829
0.0338831
0.0338832
0.0338835
0.0338837
0.0338844
0.0338846
0.033886
0.0338878
0.0339067
0.0340598
0.0348941
0.0351481
0.0351561
0.0351562
0.0351562
0.0351562
0.0351562
0.0351562
0.0351562
0.0351563
0.0351563
0.0351563
0.0351563
0.0351563
0.0351563
0.0351563
0.0351563
0.0351562
0.0351562
0.0351563
0.0351563
0.0351563
0.0351563
0.0351563
0.0351563
0.0351563
0.0351563
0.0351563
0.0351563
0.0351562
0.0351563
0.0351563
0.0351563
0.0351563
0.0351563
0.0351562
0.0351562
0.0351562
0.0351563
0.0351562
0.0351562
0.0351563
0.0351563
0.0351563
0.0351563
0.0351563
0.0351563
0.0351563
0.0351563
0.0351563
0.0351563
0.0351563
0.0351563
0.0351563
0.0351563
0.0351563
0.0351563
0.0351563
0.0351563
0.0351563
0.0351562
0.0351562
0.0351563
0.0351563
0.0351563
0.0351563
0.0351563
0.0351563
0.0351563
0.0351563
0.0351562
0.0351563
0.0351562
0.0351563
0.0351563
0.0351563
0.0351563
0.0351563
0.0351563
0.0351563
0.0351563
0.0351563
0.0351563
0.0351563
0.0351563
0.0351563
0.0351563
0.0351563
0.0351563
0.0351563
0.0351563
0.0351563
0.0351563
0.0351563
0.0351563
0.0351562
0.0351562
0.0351562
0.0351562
0.0351562
0.0351562
0.0351562
0.0351562
0.0351563
0.0351563
0.0351563
0.0351563
0.0351563
0.0351563
0.0351563
0.0351563
0.0351563
0.0351563
0.0351563
0.0351563
0.0351563
0.0351563
0.0351563
0.0351563
0.0351563
0.0351563
0.0351563
0.0351563
0.0351563
0.0351563
0.0351563
0.0351563
0.0351563
0.0351563
0.0351563
0.0351563
0.0351563
0.0351563
0.0351563
0.0351563
0.0351563
0.0351562
0.0351562
0.0351562
0.0351562
0.0351562
0.0351562
0.0351562
0.0351563
0.0351563
0.0351563
0.0351563
0.0351563
0.0351563
0.0351563
0.0351563
0.0351563
0.0351563
0.0351563
0.0351563
0.0351563
0.0351563
0.0351563
0.0351563
0.0351562
0.0351562
0.0351563
0.0351562
0.0351563
0.0351562
0.0351563
0.0351562
0.0351563
0.0351563
0.0351563
0.0351563
0.0351563
0.0351563
0.0351563
0.0351562
0.0351562
0.0351562
0.0351562
0.0351562
0.0351562
0.0351562
0.0351562
0.0351562
0.0351562
0.0351562
0.0351562
0.0351562
0.0351562
0.0351562
0.0351563
0.0351563
0.0351562
0.0351562
0.0351562
0.0351562
0.0351562
0.0351563
0.0351563
0.0351563
0.0351563
0.0351563
0.0351563
0.0351563
0.0351563
0.0351563
0.0351563
0.0351563
0.0351563
0.0351563
0.0351563
0.0351563
0.0351563
0.0351563
0.0351563
0.0351563
0.0351563
0.0351563
0.0351562
0.0351562
0.0351562
0.0351562
0.0351563
0.0351563
0.0351563
0.0351563
0.0351563
0.0351563
0.0351563
0.0351563
0.0351563
0.0351563
0.0351563
0.0351563
0.0351563
0.0351563
0.0351563
0.0351563
0.0351563
0.0351563
0.0351563
0.0351563
0.0351563
0.0351563
0.0351563
0.0351563
0.0351563
0.0351563
0.0351563
0.0351563
0.0351563
0.0351563
0.0351563
0.0351563
0.0351563
0.0351562
0.0351563
0.0351562
0.0351563
0.0351563
0.0351563
0.0351562
0.0351562
0.0351562
0.0351562
0.0351563
0.0351563
0.0351563
0.0351563
0.0351563
0.0351562
0.0351562
0.0351562
0.0351562
0.0351562
0.0351562
0.0351562
0.0351563
0.0351563
0.0351563
0.0351563
0.0351562
0.0351563
0.0351562
0.0351563
0.0351563
0.0351562
0.0351563
0.0351563
0.0351563
0.0351562
0.0351563
0.0351563
0.0351563
0.0351563
0.0351563
0.0351563
0.0351563
0.0351563
0.0351563
0.0351563
0.0351563
0.0351563
0.0351563
0.0351563
0.0351562
0.0351562
0.0351562
0.0351562
0.0351563
0.0351563
0.0351562
0.0351562
0.0351562
0.0351562
0.0351563
0.0351563
0.0351563
0.0351563
0.0351563
0.0351563
0.0351562
0.0351563
0.0351563
0.0351563
0.0351562
0.0351562
0.0351563
0.0351563
0.0351563
0.0351563
0.0351563
0.0351563
0.0351563
0.0351563
0.0351563
0.0351563
0.0351563
0.0351563
0.0351563
0.0351563
0.0351563
0.0351563
0.0351563
0.0351563
0.0351563
0.0351563
0.0351563
0.0351563
0.0351563
0.0351563
0.0351563
0.0351563
0.0351563
0.0351563
0.0351563
0.0351563
0.0351563
0.0351563
0.0351563
0.0351563
0.0351563
0.0351563
0.0351563
0.0351563
0.0351563
0.0351562
0.0351562
0.0351562
0.0351562
0.0351562
0.0351562
0.0351562
)
;

boundaryField
{
    inlet
    {
        type            calculated;
        value           uniform 0.0976562;
    }
    outlet
    {
        type            calculated;
        value           uniform 0.0351562;
    }
    emptyWalls
    {
        type            empty;
    }
}


// ************************************************************************* //
