/*--------------------------------*- C++ -*----------------------------------*\
  =========                 |
  \\      /  F ield         | OpenFOAM: The Open Source CFD Toolbox
   \\    /   O peration     | Website:  https://openfoam.org
    \\  /    A nd           | Version:  9
     \\/     M anipulation  |
\*---------------------------------------------------------------------------*/
FoamFile
{
    format      ascii;
    class       surfaceScalarField;
    location    "3800";
    object      phic;
}
// * * * * * * * * * * * * * * * * * * * * * * * * * * * * * * * * * * * * * //

dimensions      [0 2 0 0 0 0 0];

internalField   nonuniform List<scalar> 
999
(
6.89563e-14
2.4472e-13
7.4511e-13
2.32329e-12
9.77727e-12
1.98749e-11
2.1916e-11
2.28741e-11
2.35434e-11
2.4085e-11
2.45819e-11
2.5155e-11
2.61398e-11
2.76193e-11
2.95283e-11
3.17233e-11
3.40899e-11
3.65694e-11
3.91299e-11
4.17533e-11
4.44284e-11
4.71482e-11
4.99084e-11
5.27064e-11
5.55407e-11
5.84089e-11
6.13083e-11
6.42354e-11
6.71869e-11
7.01593e-11
7.31491e-11
7.61537e-11
7.91715e-11
8.22014e-11
8.5243e-11
8.82962e-11
9.13616e-11
9.44402e-11
9.75331e-11
1.00641e-10
1.03764e-10
1.06904e-10
1.10061e-10
1.13234e-10
1.16424e-10
1.1963e-10
1.22853e-10
1.26091e-10
1.29346e-10
1.32616e-10
1.35901e-10
1.39201e-10
1.42516e-10
1.45847e-10
1.49192e-10
1.52552e-10
1.55928e-10
1.59319e-10
1.62724e-10
1.66146e-10
1.69583e-10
1.73035e-10
1.76504e-10
1.79988e-10
1.83489e-10
1.87005e-10
1.90538e-10
1.94088e-10
1.97654e-10
2.01238e-10
2.04839e-10
2.08457e-10
2.12094e-10
2.15748e-10
2.19421e-10
2.23112e-10
2.26822e-10
2.30552e-10
2.34301e-10
2.3807e-10
2.41859e-10
2.45669e-10
2.495e-10
2.53352e-10
2.57226e-10
2.61122e-10
2.65041e-10
2.68983e-10
2.72948e-10
2.76937e-10
2.8095e-10
2.84988e-10
2.89051e-10
2.9314e-10
2.97256e-10
3.01399e-10
3.05569e-10
3.09767e-10
3.13994e-10
3.18251e-10
3.22537e-10
3.26855e-10
3.31205e-10
3.35588e-10
3.40005e-10
3.44456e-10
3.48943e-10
3.53467e-10
3.58028e-10
3.62628e-10
3.67267e-10
3.71949e-10
3.76672e-10
3.8144e-10
3.86253e-10
3.91113e-10
3.96022e-10
4.00982e-10
4.05993e-10
4.1106e-10
4.16181e-10
4.21362e-10
4.26602e-10
4.31905e-10
4.37272e-10
4.42705e-10
4.48208e-10
4.5378e-10
4.59427e-10
4.65148e-10
4.70947e-10
4.76824e-10
4.82772e-10
4.88797e-10
4.94884e-10
5.01033e-10
5.07224e-10
5.13437e-10
5.19651e-10
5.25825e-10
5.31935e-10
5.37953e-10
5.43886e-10
5.49814e-10
5.55934e-10
5.62698e-10
5.70943e-10
5.82143e-10
5.98666e-10
6.2379e-10
6.61007e-10
7.11761e-10
7.72313e-10
8.33161e-10
8.83989e-10
9.19914e-10
9.42228e-10
9.54934e-10
9.61797e-10
9.65378e-10
9.67209e-10
9.68123e-10
9.68564e-10
9.68762e-10
9.68834e-10
9.6884e-10
9.68813e-10
9.68764e-10
9.68702e-10
9.68628e-10
9.68545e-10
9.68455e-10
9.68356e-10
9.68249e-10
9.68134e-10
9.68011e-10
9.67881e-10
9.67743e-10
9.676e-10
9.67453e-10
9.67301e-10
9.67148e-10
9.66995e-10
9.66843e-10
9.66693e-10
9.66549e-10
9.66413e-10
9.66287e-10
9.66174e-10
9.66078e-10
9.66002e-10
9.6595e-10
9.65922e-10
9.65913e-10
9.65912e-10
9.65918e-10
9.65965e-10
9.66068e-10
9.66193e-10
9.66343e-10
9.66515e-10
9.66706e-10
9.66914e-10
9.67135e-10
9.67365e-10
9.67599e-10
9.67833e-10
9.68064e-10
9.68286e-10
9.68497e-10
9.68692e-10
9.68871e-10
9.6903e-10
9.69168e-10
9.69285e-10
9.6938e-10
9.69455e-10
9.69511e-10
9.69548e-10
9.69569e-10
9.69577e-10
9.69579e-10
9.69577e-10
9.69567e-10
9.69529e-10
9.6949e-10
9.6945e-10
9.69408e-10
9.69366e-10
9.69325e-10
9.69286e-10
9.6925e-10
9.69218e-10
9.69189e-10
9.69165e-10
9.69144e-10
9.69127e-10
9.69115e-10
9.69106e-10
9.691e-10
9.69098e-10
9.69097e-10
9.69098e-10
9.691e-10
9.69106e-10
9.69115e-10
9.69125e-10
9.69136e-10
9.69147e-10
9.69159e-10
9.69171e-10
9.69183e-10
9.69195e-10
9.69206e-10
9.69217e-10
9.69228e-10
9.69239e-10
9.69249e-10
9.69259e-10
9.69268e-10
9.69277e-10
9.69285e-10
9.69293e-10
9.693e-10
9.69306e-10
9.69313e-10
9.69318e-10
9.69324e-10
9.69328e-10
9.69333e-10
9.69337e-10
9.69341e-10
9.69344e-10
9.69347e-10
9.6935e-10
9.69353e-10
9.69356e-10
9.69358e-10
9.69361e-10
9.69364e-10
9.69366e-10
9.69369e-10
9.69372e-10
9.69376e-10
9.69379e-10
9.69383e-10
9.69387e-10
9.69392e-10
9.69397e-10
9.69403e-10
9.6941e-10
9.69417e-10
9.69424e-10
9.69432e-10
9.69441e-10
9.69451e-10
9.69461e-10
9.69472e-10
9.69483e-10
9.69496e-10
9.69508e-10
9.69522e-10
9.69535e-10
9.6955e-10
9.69565e-10
9.6958e-10
9.69595e-10
9.69611e-10
9.69626e-10
9.69642e-10
9.69658e-10
9.69673e-10
9.69689e-10
9.69705e-10
9.6972e-10
9.69734e-10
9.69748e-10
9.69762e-10
9.69774e-10
9.69786e-10
9.69797e-10
9.69808e-10
9.69817e-10
9.69825e-10
9.69832e-10
9.69838e-10
9.69843e-10
9.69846e-10
9.69848e-10
9.69848e-10
9.69848e-10
9.69848e-10
9.69847e-10
9.69843e-10
9.69837e-10
9.6983e-10
9.69822e-10
9.69813e-10
9.69802e-10
9.69791e-10
9.69778e-10
9.69765e-10
9.69752e-10
9.69737e-10
9.69722e-10
9.69707e-10
9.69691e-10
9.69675e-10
9.69658e-10
9.69642e-10
9.69625e-10
9.69609e-10
9.69592e-10
9.69576e-10
9.6956e-10
9.69544e-10
9.69528e-10
9.69513e-10
9.69497e-10
9.69482e-10
9.69468e-10
9.69453e-10
9.69439e-10
9.69425e-10
9.6941e-10
9.69396e-10
9.69381e-10
9.69365e-10
9.69349e-10
9.69331e-10
9.69313e-10
9.69292e-10
9.69269e-10
9.69243e-10
9.69214e-10
9.69182e-10
9.69145e-10
9.69104e-10
9.69058e-10
9.69006e-10
9.68949e-10
9.68885e-10
9.68815e-10
9.68738e-10
9.68654e-10
9.68564e-10
9.68466e-10
9.68362e-10
9.68251e-10
9.68134e-10
9.68011e-10
9.67884e-10
9.67752e-10
9.67616e-10
9.67479e-10
9.67339e-10
9.672e-10
9.67062e-10
9.66927e-10
9.66795e-10
9.6667e-10
9.66553e-10
9.66444e-10
9.66347e-10
9.66262e-10
9.66192e-10
9.66139e-10
9.66105e-10
9.66088e-10
9.66084e-10
9.66084e-10
9.66095e-10
9.66148e-10
9.66233e-10
9.6634e-10
9.66467e-10
9.66612e-10
9.66773e-10
9.66948e-10
9.67133e-10
9.67327e-10
9.67526e-10
9.67726e-10
9.67925e-10
9.6812e-10
9.68308e-10
9.68486e-10
9.68654e-10
9.68809e-10
9.6895e-10
9.69076e-10
9.69188e-10
9.69284e-10
9.69366e-10
9.69434e-10
9.69488e-10
9.6953e-10
9.69561e-10
9.6958e-10
9.69591e-10
9.69594e-10
9.69594e-10
9.69593e-10
9.69581e-10
9.69561e-10
9.69538e-10
9.69514e-10
9.69488e-10
9.69463e-10
9.69439e-10
9.69415e-10
9.69393e-10
9.69372e-10
9.69354e-10
9.69338e-10
9.69324e-10
9.69312e-10
9.69303e-10
9.69296e-10
9.69291e-10
9.69289e-10
9.69288e-10
9.69288e-10
9.69288e-10
9.69291e-10
9.69298e-10
9.69306e-10
9.69315e-10
9.69326e-10
9.69337e-10
9.69349e-10
9.69362e-10
9.69376e-10
9.6939e-10
9.69404e-10
9.69419e-10
9.69434e-10
9.6945e-10
9.69465e-10
9.6948e-10
9.69496e-10
9.69511e-10
9.69526e-10
9.69542e-10
9.69556e-10
9.69571e-10
9.69586e-10
9.696e-10
9.69613e-10
9.69627e-10
9.69639e-10
9.69652e-10
9.69664e-10
9.69675e-10
9.69686e-10
9.69696e-10
9.69706e-10
9.69715e-10
9.69723e-10
9.6973e-10
9.69737e-10
9.69743e-10
9.69748e-10
9.69752e-10
9.69755e-10
9.69758e-10
9.69759e-10
9.6976e-10
9.6976e-10
9.69759e-10
9.69758e-10
9.69755e-10
9.6975e-10
9.69745e-10
9.69739e-10
9.69733e-10
9.69725e-10
9.69717e-10
9.69708e-10
9.69699e-10
9.69689e-10
9.69679e-10
9.69668e-10
9.69657e-10
9.69647e-10
9.69636e-10
9.69626e-10
9.69615e-10
9.69605e-10
9.69596e-10
9.69587e-10
9.69578e-10
9.6957e-10
9.69563e-10
9.69556e-10
9.6955e-10
9.69546e-10
9.69542e-10
9.69539e-10
9.69537e-10
9.69536e-10
9.69536e-10
9.69536e-10
9.69536e-10
9.69538e-10
9.69542e-10
9.69547e-10
9.69552e-10
9.69557e-10
9.69564e-10
9.6957e-10
9.69577e-10
9.69585e-10
9.69592e-10
9.696e-10
9.69607e-10
9.69614e-10
9.69621e-10
9.69627e-10
9.69633e-10
9.69639e-10
9.69643e-10
9.69647e-10
9.69649e-10
9.6965e-10
9.69651e-10
9.69651e-10
9.69651e-10
9.6965e-10
9.69645e-10
9.69638e-10
9.6963e-10
9.6962e-10
9.69609e-10
9.69595e-10
9.69579e-10
9.69561e-10
9.69541e-10
9.69518e-10
9.69492e-10
9.69463e-10
9.69431e-10
9.69396e-10
9.69357e-10
9.69315e-10
9.6927e-10
9.6922e-10
9.69166e-10
9.69108e-10
9.69045e-10
9.68979e-10
9.68908e-10
9.68832e-10
9.68753e-10
9.6867e-10
9.68582e-10
9.6849e-10
9.68396e-10
9.68297e-10
9.68197e-10
9.68094e-10
9.6799e-10
9.67886e-10
9.67781e-10
9.67677e-10
9.67575e-10
9.67475e-10
9.6738e-10
9.67291e-10
9.67207e-10
9.67132e-10
9.67066e-10
9.67012e-10
9.66974e-10
9.66953e-10
9.66947e-10
9.66946e-10
9.66951e-10
9.66976e-10
9.67005e-10
9.67073e-10
9.67139e-10
9.67256e-10
9.67365e-10
9.67744e-10
9.68718e-10
9.79946e-10
1.05345e-09
1.1113e-09
1.11439e-09
1.11437e-09
1.11437e-09
1.11437e-09
1.11437e-09
1.11437e-09
1.11437e-09
1.11437e-09
1.11437e-09
1.11437e-09
1.11437e-09
1.11437e-09
1.11437e-09
1.11437e-09
1.11437e-09
1.11437e-09
1.11437e-09
1.11437e-09
1.11437e-09
1.11437e-09
1.11437e-09
1.11437e-09
1.11437e-09
1.11437e-09
1.11437e-09
1.11437e-09
1.11437e-09
1.11437e-09
1.11437e-09
1.11437e-09
1.11437e-09
1.11437e-09
1.11437e-09
1.11437e-09
1.11437e-09
1.11437e-09
1.11437e-09
1.11437e-09
1.11437e-09
1.11437e-09
1.11437e-09
1.11437e-09
1.11437e-09
1.11437e-09
1.11437e-09
1.11437e-09
1.11437e-09
1.11437e-09
1.11437e-09
1.11437e-09
1.11437e-09
1.11437e-09
1.11437e-09
1.11437e-09
1.11437e-09
1.11437e-09
1.11437e-09
1.11437e-09
1.11437e-09
1.11437e-09
1.11437e-09
1.11437e-09
1.11437e-09
1.11437e-09
1.11437e-09
1.11437e-09
1.11437e-09
1.11437e-09
1.11437e-09
1.11437e-09
1.11437e-09
1.11437e-09
1.11437e-09
1.11437e-09
1.11437e-09
1.11437e-09
1.11437e-09
1.11437e-09
1.11437e-09
1.11437e-09
1.11437e-09
1.11437e-09
1.11437e-09
1.11437e-09
1.11437e-09
1.11437e-09
1.11437e-09
1.11437e-09
1.11437e-09
1.11437e-09
1.11437e-09
1.11437e-09
1.11437e-09
1.11437e-09
1.11437e-09
1.11437e-09
1.11437e-09
1.11437e-09
1.11437e-09
1.11437e-09
1.11437e-09
1.11437e-09
1.11437e-09
1.11437e-09
1.11437e-09
1.11437e-09
1.11437e-09
1.11437e-09
1.11437e-09
1.11437e-09
1.11437e-09
1.11437e-09
1.11437e-09
1.11437e-09
1.11437e-09
1.11437e-09
1.11437e-09
1.11437e-09
1.11437e-09
1.11437e-09
1.11437e-09
1.11437e-09
1.11437e-09
1.11437e-09
1.11437e-09
1.11437e-09
1.11437e-09
1.11437e-09
1.11437e-09
1.11437e-09
1.11437e-09
1.11437e-09
1.11437e-09
1.11437e-09
1.11437e-09
1.11437e-09
1.11437e-09
1.11437e-09
1.11437e-09
1.11437e-09
1.11437e-09
1.11437e-09
1.11437e-09
1.11437e-09
1.11437e-09
1.11437e-09
1.11437e-09
1.11437e-09
1.11437e-09
1.11437e-09
1.11437e-09
1.11437e-09
1.11437e-09
1.11437e-09
1.11437e-09
1.11437e-09
1.11437e-09
1.11437e-09
1.11437e-09
1.11437e-09
1.11437e-09
1.11437e-09
1.11437e-09
1.11437e-09
1.11437e-09
1.11437e-09
1.11437e-09
1.11437e-09
1.11437e-09
1.11437e-09
1.11437e-09
1.11437e-09
1.11437e-09
1.11437e-09
1.11437e-09
1.11437e-09
1.11437e-09
1.11437e-09
1.11437e-09
1.11437e-09
1.11437e-09
1.11437e-09
1.11437e-09
1.11437e-09
1.11437e-09
1.11437e-09
1.11437e-09
1.11437e-09
1.11437e-09
1.11437e-09
1.11437e-09
1.11437e-09
1.11437e-09
1.11437e-09
1.11437e-09
1.11437e-09
1.11437e-09
1.11437e-09
1.11437e-09
1.11437e-09
1.11437e-09
1.11437e-09
1.11437e-09
1.11437e-09
1.11437e-09
1.11437e-09
1.11437e-09
1.11437e-09
1.11437e-09
1.11437e-09
1.11437e-09
1.11437e-09
1.11437e-09
1.11437e-09
1.11437e-09
1.11437e-09
1.11437e-09
1.11437e-09
1.11437e-09
1.11437e-09
1.11437e-09
1.11437e-09
1.11437e-09
1.11437e-09
1.11437e-09
1.11437e-09
1.11437e-09
1.11437e-09
1.11437e-09
1.11437e-09
1.11437e-09
1.11437e-09
1.11437e-09
1.11437e-09
1.11437e-09
1.11437e-09
1.11437e-09
1.11437e-09
1.11437e-09
1.11437e-09
1.11437e-09
1.11437e-09
1.11437e-09
1.11437e-09
1.11437e-09
1.11437e-09
1.11437e-09
1.11437e-09
1.11437e-09
1.11437e-09
1.11437e-09
1.11437e-09
1.11437e-09
1.11437e-09
1.11437e-09
1.11437e-09
1.11437e-09
1.11437e-09
1.11437e-09
1.11437e-09
1.11437e-09
1.11437e-09
1.11437e-09
1.11437e-09
1.11437e-09
1.11437e-09
1.11437e-09
1.11437e-09
1.11437e-09
1.11437e-09
1.11437e-09
1.11437e-09
1.11437e-09
1.11437e-09
1.11437e-09
1.11437e-09
1.11437e-09
1.11437e-09
1.11437e-09
1.11437e-09
1.11437e-09
1.11437e-09
1.11437e-09
1.11437e-09
1.11437e-09
1.11437e-09
1.11437e-09
1.11437e-09
1.11437e-09
1.11437e-09
1.11437e-09
1.11437e-09
1.11437e-09
1.11437e-09
1.11437e-09
1.11437e-09
1.11437e-09
1.11437e-09
1.11437e-09
1.11437e-09
1.11437e-09
1.11437e-09
1.11437e-09
1.11437e-09
1.11437e-09
1.11437e-09
1.11437e-09
1.11437e-09
1.11437e-09
1.11437e-09
1.11437e-09
1.11437e-09
1.11437e-09
1.11437e-09
1.11437e-09
1.11437e-09
1.11437e-09
1.11437e-09
1.11437e-09
1.11437e-09
1.11437e-09
1.11437e-09
1.11437e-09
1.11437e-09
1.11437e-09
1.11437e-09
1.11437e-09
1.11437e-09
1.11437e-09
1.11437e-09
1.11437e-09
1.11437e-09
1.11437e-09
1.11437e-09
1.11437e-09
1.11437e-09
1.11437e-09
1.11437e-09
1.11437e-09
1.11437e-09
1.11437e-09
1.11437e-09
1.11437e-09
1.11437e-09
1.11437e-09
1.11437e-09
1.11437e-09
1.11437e-09
1.11437e-09
1.11437e-09
1.11437e-09
1.11437e-09
1.11437e-09
1.11437e-09
1.11437e-09
1.11437e-09
1.11437e-09
1.11437e-09
1.11437e-09
1.11437e-09
1.11437e-09
1.11437e-09
1.11437e-09
1.11437e-09
1.11437e-09
1.11437e-09
1.11437e-09
1.11437e-09
1.11437e-09
1.11437e-09
)
;

boundaryField
{
    inlet
    {
        type            calculated;
        value           uniform 0;
    }
    outlet
    {
        type            calculated;
        value           uniform 1.11437e-09;
    }
    emptyWalls
    {
        type            empty;
        value           nonuniform List<scalar> 0();
    }
}


// ************************************************************************* //
