/*--------------------------------*- C++ -*----------------------------------*\
  =========                 |
  \\      /  F ield         | OpenFOAM: The Open Source CFD Toolbox
   \\    /   O peration     | Website:  https://openfoam.org
    \\  /    A nd           | Version:  9
     \\/     M anipulation  |
\*---------------------------------------------------------------------------*/
FoamFile
{
    format      ascii;
    class       volVectorField;
    location    "3800";
    object      Uc;
}
// * * * * * * * * * * * * * * * * * * * * * * * * * * * * * * * * * * * * * //

dimensions      [0 0 0 0 0 0 0];

internalField   nonuniform List<vector> 
1000
(
(3.44781e-10 0 0)
(1.56838e-09 0 0)
(4.94915e-09 0 0)
(1.5342e-08 0 0)
(6.05028e-08 0 0)
(1.48261e-07 0 0)
(2.08955e-07 0 0)
(2.23951e-07 0 0)
(2.32088e-07 0 0)
(2.38142e-07 0 0)
(2.43334e-07 0 0)
(2.48684e-07 0 0)
(2.56474e-07 0 0)
(2.68795e-07 0 0)
(2.85738e-07 0 0)
(3.06258e-07 0 0)
(3.29066e-07 0 0)
(3.53297e-07 0 0)
(3.78497e-07 0 0)
(4.04416e-07 0 0)
(4.30909e-07 0 0)
(4.57883e-07 0 0)
(4.85283e-07 0 0)
(5.13074e-07 0 0)
(5.41236e-07 0 0)
(5.69748e-07 0 0)
(5.98586e-07 0 0)
(6.27718e-07 0 0)
(6.57112e-07 0 0)
(6.86731e-07 0 0)
(7.16542e-07 0 0)
(7.46514e-07 0 0)
(7.76626e-07 0 0)
(8.06865e-07 0 0)
(8.37222e-07 0 0)
(8.67696e-07 0 0)
(8.98289e-07 0 0)
(9.29009e-07 0 0)
(9.59867e-07 0 0)
(9.9087e-07 0 0)
(1.02203e-06 0 0)
(1.05334e-06 0 0)
(1.08482e-06 0 0)
(1.11647e-06 0 0)
(1.14829e-06 0 0)
(1.18027e-06 0 0)
(1.21241e-06 0 0)
(1.24472e-06 0 0)
(1.27718e-06 0 0)
(1.30981e-06 0 0)
(1.34258e-06 0 0)
(1.37551e-06 0 0)
(1.40859e-06 0 0)
(1.44182e-06 0 0)
(1.47519e-06 0 0)
(1.50872e-06 0 0)
(1.5424e-06 0 0)
(1.57623e-06 0 0)
(1.61021e-06 0 0)
(1.64435e-06 0 0)
(1.67864e-06 0 0)
(1.71309e-06 0 0)
(1.7477e-06 0 0)
(1.78246e-06 0 0)
(1.81738e-06 0 0)
(1.85247e-06 0 0)
(1.88772e-06 0 0)
(1.92313e-06 0 0)
(1.95871e-06 0 0)
(1.99446e-06 0 0)
(2.03038e-06 0 0)
(2.06648e-06 0 0)
(2.10276e-06 0 0)
(2.13921e-06 0 0)
(2.17584e-06 0 0)
(2.21266e-06 0 0)
(2.24967e-06 0 0)
(2.28687e-06 0 0)
(2.32426e-06 0 0)
(2.36185e-06 0 0)
(2.39965e-06 0 0)
(2.43764e-06 0 0)
(2.47585e-06 0 0)
(2.51426e-06 0 0)
(2.55289e-06 0 0)
(2.59174e-06 0 0)
(2.63082e-06 0 0)
(2.67012e-06 0 0)
(2.70965e-06 0 0)
(2.74942e-06 0 0)
(2.78943e-06 0 0)
(2.82969e-06 0 0)
(2.8702e-06 0 0)
(2.91096e-06 0 0)
(2.95198e-06 0 0)
(2.99327e-06 0 0)
(3.03484e-06 0 0)
(3.07668e-06 0 0)
(3.11881e-06 0 0)
(3.16122e-06 0 0)
(3.20394e-06 0 0)
(3.24696e-06 0 0)
(3.2903e-06 0 0)
(3.33397e-06 0 0)
(3.37797e-06 0 0)
(3.42231e-06 0 0)
(3.467e-06 0 0)
(3.51205e-06 0 0)
(3.55747e-06 0 0)
(3.60328e-06 0 0)
(3.64948e-06 0 0)
(3.69608e-06 0 0)
(3.7431e-06 0 0)
(3.79056e-06 0 0)
(3.83846e-06 0 0)
(3.88683e-06 0 0)
(3.93568e-06 0 0)
(3.98502e-06 0 0)
(4.03488e-06 0 0)
(4.08527e-06 0 0)
(4.13621e-06 0 0)
(4.18772e-06 0 0)
(4.23982e-06 0 0)
(4.29253e-06 0 0)
(4.34588e-06 0 0)
(4.39988e-06 0 0)
(4.45456e-06 0 0)
(4.50994e-06 0 0)
(4.56604e-06 0 0)
(4.62288e-06 0 0)
(4.68048e-06 0 0)
(4.73885e-06 0 0)
(4.79798e-06 0 0)
(4.85785e-06 0 0)
(4.91841e-06 0 0)
(4.97959e-06 0 0)
(5.04128e-06 0 0)
(5.10331e-06 0 0)
(5.16544e-06 0 0)
(5.22738e-06 0 0)
(5.2888e-06 0 0)
(5.34944e-06 0 0)
(5.40919e-06 0 0)
(5.4685e-06 0 0)
(5.52874e-06 0 0)
(5.59316e-06 0 0)
(5.66821e-06 0 0)
(5.76543e-06 0 0)
(5.90404e-06 0 0)
(6.11228e-06 0 0)
(6.42398e-06 0 0)
(6.86384e-06 0 0)
(7.42037e-06 0 0)
(8.02737e-06 0 0)
(8.58575e-06 0 0)
(9.01951e-06 0 0)
(9.31071e-06 0 0)
(9.48581e-06 0 0)
(9.58366e-06 0 0)
(9.63587e-06 0 0)
(9.66293e-06 0 0)
(9.67666e-06 0 0)
(9.68343e-06 0 0)
(9.68663e-06 0 0)
(9.68798e-06 0 0)
(9.68837e-06 0 0)
(9.68827e-06 0 0)
(9.68788e-06 0 0)
(9.68733e-06 0 0)
(9.68665e-06 0 0)
(9.68587e-06 0 0)
(9.685e-06 0 0)
(9.68405e-06 0 0)
(9.68302e-06 0 0)
(9.68191e-06 0 0)
(9.68072e-06 0 0)
(9.67946e-06 0 0)
(9.67812e-06 0 0)
(9.67672e-06 0 0)
(9.67527e-06 0 0)
(9.67377e-06 0 0)
(9.67225e-06 0 0)
(9.67072e-06 0 0)
(9.66919e-06 0 0)
(9.66768e-06 0 0)
(9.66621e-06 0 0)
(9.66481e-06 0 0)
(9.6635e-06 0 0)
(9.6623e-06 0 0)
(9.66126e-06 0 0)
(9.6604e-06 0 0)
(9.65976e-06 0 0)
(9.65936e-06 0 0)
(9.65917e-06 0 0)
(9.65913e-06 0 0)
(9.65915e-06 0 0)
(9.65941e-06 0 0)
(9.66016e-06 0 0)
(9.66131e-06 0 0)
(9.66268e-06 0 0)
(9.66429e-06 0 0)
(9.6661e-06 0 0)
(9.6681e-06 0 0)
(9.67025e-06 0 0)
(9.6725e-06 0 0)
(9.67482e-06 0 0)
(9.67716e-06 0 0)
(9.67949e-06 0 0)
(9.68175e-06 0 0)
(9.68391e-06 0 0)
(9.68594e-06 0 0)
(9.68781e-06 0 0)
(9.6895e-06 0 0)
(9.69099e-06 0 0)
(9.69226e-06 0 0)
(9.69333e-06 0 0)
(9.69418e-06 0 0)
(9.69483e-06 0 0)
(9.69529e-06 0 0)
(9.69559e-06 0 0)
(9.69573e-06 0 0)
(9.69578e-06 0 0)
(9.69578e-06 0 0)
(9.69572e-06 0 0)
(9.69548e-06 0 0)
(9.6951e-06 0 0)
(9.6947e-06 0 0)
(9.69429e-06 0 0)
(9.69387e-06 0 0)
(9.69345e-06 0 0)
(9.69306e-06 0 0)
(9.69268e-06 0 0)
(9.69234e-06 0 0)
(9.69204e-06 0 0)
(9.69177e-06 0 0)
(9.69154e-06 0 0)
(9.69136e-06 0 0)
(9.69121e-06 0 0)
(9.6911e-06 0 0)
(9.69103e-06 0 0)
(9.69099e-06 0 0)
(9.69098e-06 0 0)
(9.69098e-06 0 0)
(9.69099e-06 0 0)
(9.69103e-06 0 0)
(9.69111e-06 0 0)
(9.6912e-06 0 0)
(9.69131e-06 0 0)
(9.69142e-06 0 0)
(9.69153e-06 0 0)
(9.69165e-06 0 0)
(9.69177e-06 0 0)
(9.69189e-06 0 0)
(9.692e-06 0 0)
(9.69212e-06 0 0)
(9.69223e-06 0 0)
(9.69233e-06 0 0)
(9.69244e-06 0 0)
(9.69254e-06 0 0)
(9.69263e-06 0 0)
(9.69272e-06 0 0)
(9.69281e-06 0 0)
(9.69289e-06 0 0)
(9.69296e-06 0 0)
(9.69303e-06 0 0)
(9.6931e-06 0 0)
(9.69315e-06 0 0)
(9.69321e-06 0 0)
(9.69326e-06 0 0)
(9.69331e-06 0 0)
(9.69335e-06 0 0)
(9.69339e-06 0 0)
(9.69343e-06 0 0)
(9.69346e-06 0 0)
(9.69349e-06 0 0)
(9.69352e-06 0 0)
(9.69354e-06 0 0)
(9.69357e-06 0 0)
(9.6936e-06 0 0)
(9.69362e-06 0 0)
(9.69365e-06 0 0)
(9.69368e-06 0 0)
(9.69371e-06 0 0)
(9.69374e-06 0 0)
(9.69377e-06 0 0)
(9.69381e-06 0 0)
(9.69385e-06 0 0)
(9.69389e-06 0 0)
(9.69394e-06 0 0)
(9.694e-06 0 0)
(9.69406e-06 0 0)
(9.69413e-06 0 0)
(9.6942e-06 0 0)
(9.69428e-06 0 0)
(9.69437e-06 0 0)
(9.69446e-06 0 0)
(9.69456e-06 0 0)
(9.69466e-06 0 0)
(9.69478e-06 0 0)
(9.6949e-06 0 0)
(9.69502e-06 0 0)
(9.69515e-06 0 0)
(9.69529e-06 0 0)
(9.69543e-06 0 0)
(9.69557e-06 0 0)
(9.69572e-06 0 0)
(9.69587e-06 0 0)
(9.69603e-06 0 0)
(9.69618e-06 0 0)
(9.69634e-06 0 0)
(9.6965e-06 0 0)
(9.69666e-06 0 0)
(9.69681e-06 0 0)
(9.69697e-06 0 0)
(9.69712e-06 0 0)
(9.69727e-06 0 0)
(9.69741e-06 0 0)
(9.69755e-06 0 0)
(9.69768e-06 0 0)
(9.6978e-06 0 0)
(9.69792e-06 0 0)
(9.69803e-06 0 0)
(9.69812e-06 0 0)
(9.69821e-06 0 0)
(9.69829e-06 0 0)
(9.69835e-06 0 0)
(9.6984e-06 0 0)
(9.69844e-06 0 0)
(9.69847e-06 0 0)
(9.69848e-06 0 0)
(9.69848e-06 0 0)
(9.69848e-06 0 0)
(9.69848e-06 0 0)
(9.69845e-06 0 0)
(9.6984e-06 0 0)
(9.69834e-06 0 0)
(9.69826e-06 0 0)
(9.69817e-06 0 0)
(9.69807e-06 0 0)
(9.69796e-06 0 0)
(9.69785e-06 0 0)
(9.69772e-06 0 0)
(9.69759e-06 0 0)
(9.69745e-06 0 0)
(9.6973e-06 0 0)
(9.69715e-06 0 0)
(9.69699e-06 0 0)
(9.69683e-06 0 0)
(9.69667e-06 0 0)
(9.6965e-06 0 0)
(9.69634e-06 0 0)
(9.69617e-06 0 0)
(9.69601e-06 0 0)
(9.69584e-06 0 0)
(9.69568e-06 0 0)
(9.69552e-06 0 0)
(9.69536e-06 0 0)
(9.69521e-06 0 0)
(9.69505e-06 0 0)
(9.6949e-06 0 0)
(9.69475e-06 0 0)
(9.6946e-06 0 0)
(9.69446e-06 0 0)
(9.69432e-06 0 0)
(9.69417e-06 0 0)
(9.69403e-06 0 0)
(9.69388e-06 0 0)
(9.69373e-06 0 0)
(9.69357e-06 0 0)
(9.6934e-06 0 0)
(9.69322e-06 0 0)
(9.69302e-06 0 0)
(9.6928e-06 0 0)
(9.69256e-06 0 0)
(9.69229e-06 0 0)
(9.69198e-06 0 0)
(9.69163e-06 0 0)
(9.69125e-06 0 0)
(9.69081e-06 0 0)
(9.69032e-06 0 0)
(9.68978e-06 0 0)
(9.68917e-06 0 0)
(9.6885e-06 0 0)
(9.68777e-06 0 0)
(9.68696e-06 0 0)
(9.68609e-06 0 0)
(9.68515e-06 0 0)
(9.68414e-06 0 0)
(9.68306e-06 0 0)
(9.68192e-06 0 0)
(9.68073e-06 0 0)
(9.67948e-06 0 0)
(9.67818e-06 0 0)
(9.67684e-06 0 0)
(9.67547e-06 0 0)
(9.67409e-06 0 0)
(9.6727e-06 0 0)
(9.67131e-06 0 0)
(9.66994e-06 0 0)
(9.66861e-06 0 0)
(9.66733e-06 0 0)
(9.66611e-06 0 0)
(9.66498e-06 0 0)
(9.66395e-06 0 0)
(9.66305e-06 0 0)
(9.66227e-06 0 0)
(9.66166e-06 0 0)
(9.66122e-06 0 0)
(9.66097e-06 0 0)
(9.66086e-06 0 0)
(9.66084e-06 0 0)
(9.66089e-06 0 0)
(9.66122e-06 0 0)
(9.66191e-06 0 0)
(9.66287e-06 0 0)
(9.66404e-06 0 0)
(9.66539e-06 0 0)
(9.66692e-06 0 0)
(9.6686e-06 0 0)
(9.6704e-06 0 0)
(9.6723e-06 0 0)
(9.67426e-06 0 0)
(9.67626e-06 0 0)
(9.67826e-06 0 0)
(9.68023e-06 0 0)
(9.68214e-06 0 0)
(9.68397e-06 0 0)
(9.6857e-06 0 0)
(9.68731e-06 0 0)
(9.68879e-06 0 0)
(9.69013e-06 0 0)
(9.69132e-06 0 0)
(9.69236e-06 0 0)
(9.69325e-06 0 0)
(9.694e-06 0 0)
(9.69461e-06 0 0)
(9.69509e-06 0 0)
(9.69545e-06 0 0)
(9.6957e-06 0 0)
(9.69586e-06 0 0)
(9.69592e-06 0 0)
(9.69594e-06 0 0)
(9.69594e-06 0 0)
(9.69587e-06 0 0)
(9.69571e-06 0 0)
(9.69549e-06 0 0)
(9.69526e-06 0 0)
(9.69501e-06 0 0)
(9.69476e-06 0 0)
(9.69451e-06 0 0)
(9.69427e-06 0 0)
(9.69404e-06 0 0)
(9.69382e-06 0 0)
(9.69363e-06 0 0)
(9.69346e-06 0 0)
(9.69331e-06 0 0)
(9.69318e-06 0 0)
(9.69308e-06 0 0)
(9.69299e-06 0 0)
(9.69294e-06 0 0)
(9.6929e-06 0 0)
(9.69288e-06 0 0)
(9.69288e-06 0 0)
(9.69288e-06 0 0)
(9.69289e-06 0 0)
(9.69294e-06 0 0)
(9.69302e-06 0 0)
(9.69311e-06 0 0)
(9.69321e-06 0 0)
(9.69332e-06 0 0)
(9.69343e-06 0 0)
(9.69356e-06 0 0)
(9.69369e-06 0 0)
(9.69383e-06 0 0)
(9.69397e-06 0 0)
(9.69412e-06 0 0)
(9.69427e-06 0 0)
(9.69442e-06 0 0)
(9.69457e-06 0 0)
(9.69473e-06 0 0)
(9.69488e-06 0 0)
(9.69504e-06 0 0)
(9.69519e-06 0 0)
(9.69534e-06 0 0)
(9.69549e-06 0 0)
(9.69564e-06 0 0)
(9.69578e-06 0 0)
(9.69593e-06 0 0)
(9.69606e-06 0 0)
(9.6962e-06 0 0)
(9.69633e-06 0 0)
(9.69646e-06 0 0)
(9.69658e-06 0 0)
(9.69669e-06 0 0)
(9.69681e-06 0 0)
(9.69691e-06 0 0)
(9.69701e-06 0 0)
(9.6971e-06 0 0)
(9.69719e-06 0 0)
(9.69727e-06 0 0)
(9.69734e-06 0 0)
(9.6974e-06 0 0)
(9.69745e-06 0 0)
(9.6975e-06 0 0)
(9.69754e-06 0 0)
(9.69757e-06 0 0)
(9.69758e-06 0 0)
(9.69759e-06 0 0)
(9.6976e-06 0 0)
(9.69759e-06 0 0)
(9.69759e-06 0 0)
(9.69756e-06 0 0)
(9.69752e-06 0 0)
(9.69748e-06 0 0)
(9.69742e-06 0 0)
(9.69736e-06 0 0)
(9.69729e-06 0 0)
(9.69721e-06 0 0)
(9.69713e-06 0 0)
(9.69703e-06 0 0)
(9.69694e-06 0 0)
(9.69684e-06 0 0)
(9.69673e-06 0 0)
(9.69663e-06 0 0)
(9.69652e-06 0 0)
(9.69641e-06 0 0)
(9.69631e-06 0 0)
(9.6962e-06 0 0)
(9.6961e-06 0 0)
(9.696e-06 0 0)
(9.69591e-06 0 0)
(9.69582e-06 0 0)
(9.69574e-06 0 0)
(9.69566e-06 0 0)
(9.69559e-06 0 0)
(9.69553e-06 0 0)
(9.69548e-06 0 0)
(9.69544e-06 0 0)
(9.6954e-06 0 0)
(9.69538e-06 0 0)
(9.69537e-06 0 0)
(9.69536e-06 0 0)
(9.69536e-06 0 0)
(9.69536e-06 0 0)
(9.69537e-06 0 0)
(9.6954e-06 0 0)
(9.69544e-06 0 0)
(9.69549e-06 0 0)
(9.69555e-06 0 0)
(9.69561e-06 0 0)
(9.69567e-06 0 0)
(9.69574e-06 0 0)
(9.69581e-06 0 0)
(9.69589e-06 0 0)
(9.69596e-06 0 0)
(9.69604e-06 0 0)
(9.69611e-06 0 0)
(9.69618e-06 0 0)
(9.69624e-06 0 0)
(9.6963e-06 0 0)
(9.69636e-06 0 0)
(9.69641e-06 0 0)
(9.69645e-06 0 0)
(9.69648e-06 0 0)
(9.6965e-06 0 0)
(9.69651e-06 0 0)
(9.69651e-06 0 0)
(9.69651e-06 0 0)
(9.6965e-06 0 0)
(9.69647e-06 0 0)
(9.69641e-06 0 0)
(9.69634e-06 0 0)
(9.69625e-06 0 0)
(9.69614e-06 0 0)
(9.69602e-06 0 0)
(9.69587e-06 0 0)
(9.6957e-06 0 0)
(9.69551e-06 0 0)
(9.69529e-06 0 0)
(9.69505e-06 0 0)
(9.69477e-06 0 0)
(9.69447e-06 0 0)
(9.69413e-06 0 0)
(9.69377e-06 0 0)
(9.69336e-06 0 0)
(9.69293e-06 0 0)
(9.69245e-06 0 0)
(9.69193e-06 0 0)
(9.69137e-06 0 0)
(9.69077e-06 0 0)
(9.69012e-06 0 0)
(9.68943e-06 0 0)
(9.6887e-06 0 0)
(9.68793e-06 0 0)
(9.68711e-06 0 0)
(9.68626e-06 0 0)
(9.68536e-06 0 0)
(9.68443e-06 0 0)
(9.68346e-06 0 0)
(9.68247e-06 0 0)
(9.68145e-06 0 0)
(9.68042e-06 0 0)
(9.67938e-06 0 0)
(9.67833e-06 0 0)
(9.67729e-06 0 0)
(9.67626e-06 0 0)
(9.67525e-06 0 0)
(9.67428e-06 0 0)
(9.67336e-06 0 0)
(9.67249e-06 0 0)
(9.67169e-06 0 0)
(9.67099e-06 0 0)
(9.67039e-06 0 0)
(9.66993e-06 0 0)
(9.66964e-06 0 0)
(9.6695e-06 0 0)
(9.66947e-06 0 0)
(9.66949e-06 0 0)
(9.66963e-06 0 0)
(9.66991e-06 0 0)
(9.67039e-06 0 0)
(9.67106e-06 0 0)
(9.67198e-06 0 0)
(9.67311e-06 0 0)
(9.67555e-06 0 0)
(9.68231e-06 0 0)
(9.74332e-06 0 0)
(1.0167e-05 0 0)
(1.08237e-05 0 0)
(1.11284e-05 0 0)
(1.11438e-05 0 0)
(1.11437e-05 0 0)
(1.11437e-05 0 0)
(1.11437e-05 0 0)
(1.11437e-05 0 0)
(1.11437e-05 0 0)
(1.11437e-05 0 0)
(1.11437e-05 0 0)
(1.11437e-05 0 0)
(1.11437e-05 0 0)
(1.11437e-05 0 0)
(1.11437e-05 0 0)
(1.11437e-05 0 0)
(1.11437e-05 0 0)
(1.11437e-05 0 0)
(1.11437e-05 0 0)
(1.11437e-05 0 0)
(1.11437e-05 0 0)
(1.11437e-05 0 0)
(1.11437e-05 0 0)
(1.11437e-05 0 0)
(1.11437e-05 0 0)
(1.11437e-05 0 0)
(1.11437e-05 0 0)
(1.11437e-05 0 0)
(1.11437e-05 0 0)
(1.11437e-05 0 0)
(1.11437e-05 0 0)
(1.11437e-05 0 0)
(1.11437e-05 0 0)
(1.11437e-05 0 0)
(1.11437e-05 0 0)
(1.11437e-05 0 0)
(1.11437e-05 0 0)
(1.11437e-05 0 0)
(1.11437e-05 0 0)
(1.11437e-05 0 0)
(1.11437e-05 0 0)
(1.11437e-05 0 0)
(1.11437e-05 0 0)
(1.11437e-05 0 0)
(1.11437e-05 0 0)
(1.11437e-05 0 0)
(1.11437e-05 0 0)
(1.11437e-05 0 0)
(1.11437e-05 0 0)
(1.11437e-05 0 0)
(1.11437e-05 0 0)
(1.11437e-05 0 0)
(1.11437e-05 0 0)
(1.11437e-05 0 0)
(1.11437e-05 0 0)
(1.11437e-05 0 0)
(1.11437e-05 0 0)
(1.11437e-05 0 0)
(1.11437e-05 0 0)
(1.11437e-05 0 0)
(1.11437e-05 0 0)
(1.11437e-05 0 0)
(1.11437e-05 0 0)
(1.11437e-05 0 0)
(1.11437e-05 0 0)
(1.11437e-05 0 0)
(1.11437e-05 0 0)
(1.11437e-05 0 0)
(1.11437e-05 0 0)
(1.11437e-05 0 0)
(1.11437e-05 0 0)
(1.11437e-05 0 0)
(1.11437e-05 0 0)
(1.11437e-05 0 0)
(1.11437e-05 0 0)
(1.11437e-05 0 0)
(1.11437e-05 0 0)
(1.11437e-05 0 0)
(1.11437e-05 0 0)
(1.11437e-05 0 0)
(1.11437e-05 0 0)
(1.11437e-05 0 0)
(1.11437e-05 0 0)
(1.11437e-05 0 0)
(1.11437e-05 0 0)
(1.11437e-05 0 0)
(1.11437e-05 0 0)
(1.11437e-05 0 0)
(1.11437e-05 0 0)
(1.11437e-05 0 0)
(1.11437e-05 0 0)
(1.11437e-05 0 0)
(1.11437e-05 0 0)
(1.11437e-05 0 0)
(1.11437e-05 0 0)
(1.11437e-05 0 0)
(1.11437e-05 0 0)
(1.11437e-05 0 0)
(1.11437e-05 0 0)
(1.11437e-05 0 0)
(1.11437e-05 0 0)
(1.11437e-05 0 0)
(1.11437e-05 0 0)
(1.11437e-05 0 0)
(1.11437e-05 0 0)
(1.11437e-05 0 0)
(1.11437e-05 0 0)
(1.11437e-05 0 0)
(1.11437e-05 0 0)
(1.11437e-05 0 0)
(1.11437e-05 0 0)
(1.11437e-05 0 0)
(1.11437e-05 0 0)
(1.11437e-05 0 0)
(1.11437e-05 0 0)
(1.11437e-05 0 0)
(1.11437e-05 0 0)
(1.11437e-05 0 0)
(1.11437e-05 0 0)
(1.11437e-05 0 0)
(1.11437e-05 0 0)
(1.11437e-05 0 0)
(1.11437e-05 0 0)
(1.11437e-05 0 0)
(1.11437e-05 0 0)
(1.11437e-05 0 0)
(1.11437e-05 0 0)
(1.11437e-05 0 0)
(1.11437e-05 0 0)
(1.11437e-05 0 0)
(1.11437e-05 0 0)
(1.11437e-05 0 0)
(1.11437e-05 0 0)
(1.11437e-05 0 0)
(1.11437e-05 0 0)
(1.11437e-05 0 0)
(1.11437e-05 0 0)
(1.11437e-05 0 0)
(1.11437e-05 0 0)
(1.11437e-05 0 0)
(1.11437e-05 0 0)
(1.11437e-05 0 0)
(1.11437e-05 0 0)
(1.11437e-05 0 0)
(1.11437e-05 0 0)
(1.11437e-05 0 0)
(1.11437e-05 0 0)
(1.11437e-05 0 0)
(1.11437e-05 0 0)
(1.11437e-05 0 0)
(1.11437e-05 0 0)
(1.11437e-05 0 0)
(1.11437e-05 0 0)
(1.11437e-05 0 0)
(1.11437e-05 0 0)
(1.11437e-05 0 0)
(1.11437e-05 0 0)
(1.11437e-05 0 0)
(1.11437e-05 0 0)
(1.11437e-05 0 0)
(1.11437e-05 0 0)
(1.11437e-05 0 0)
(1.11437e-05 0 0)
(1.11437e-05 0 0)
(1.11437e-05 0 0)
(1.11437e-05 0 0)
(1.11437e-05 0 0)
(1.11437e-05 0 0)
(1.11437e-05 0 0)
(1.11437e-05 0 0)
(1.11437e-05 0 0)
(1.11437e-05 0 0)
(1.11437e-05 0 0)
(1.11437e-05 0 0)
(1.11437e-05 0 0)
(1.11437e-05 0 0)
(1.11437e-05 0 0)
(1.11437e-05 0 0)
(1.11437e-05 0 0)
(1.11437e-05 0 0)
(1.11437e-05 0 0)
(1.11437e-05 0 0)
(1.11437e-05 0 0)
(1.11437e-05 0 0)
(1.11437e-05 0 0)
(1.11437e-05 0 0)
(1.11437e-05 0 0)
(1.11437e-05 0 0)
(1.11437e-05 0 0)
(1.11437e-05 0 0)
(1.11437e-05 0 0)
(1.11437e-05 0 0)
(1.11437e-05 0 0)
(1.11437e-05 0 0)
(1.11437e-05 0 0)
(1.11437e-05 0 0)
(1.11437e-05 0 0)
(1.11437e-05 0 0)
(1.11437e-05 0 0)
(1.11437e-05 0 0)
(1.11437e-05 0 0)
(1.11437e-05 0 0)
(1.11437e-05 0 0)
(1.11437e-05 0 0)
(1.11437e-05 0 0)
(1.11437e-05 0 0)
(1.11437e-05 0 0)
(1.11437e-05 0 0)
(1.11437e-05 0 0)
(1.11437e-05 0 0)
(1.11437e-05 0 0)
(1.11437e-05 0 0)
(1.11437e-05 0 0)
(1.11437e-05 0 0)
(1.11437e-05 0 0)
(1.11437e-05 0 0)
(1.11437e-05 0 0)
(1.11437e-05 0 0)
(1.11437e-05 0 0)
(1.11437e-05 0 0)
(1.11437e-05 0 0)
(1.11437e-05 0 0)
(1.11437e-05 0 0)
(1.11437e-05 0 0)
(1.11437e-05 0 0)
(1.11437e-05 0 0)
(1.11437e-05 0 0)
(1.11437e-05 0 0)
(1.11437e-05 0 0)
(1.11437e-05 0 0)
(1.11437e-05 0 0)
(1.11437e-05 0 0)
(1.11437e-05 0 0)
(1.11437e-05 0 0)
(1.11437e-05 0 0)
(1.11437e-05 0 0)
(1.11437e-05 0 0)
(1.11437e-05 0 0)
(1.11437e-05 0 0)
(1.11437e-05 0 0)
(1.11437e-05 0 0)
(1.11437e-05 0 0)
(1.11437e-05 0 0)
(1.11437e-05 0 0)
(1.11437e-05 0 0)
(1.11437e-05 0 0)
(1.11437e-05 0 0)
(1.11437e-05 0 0)
(1.11437e-05 0 0)
(1.11437e-05 0 0)
(1.11437e-05 0 0)
(1.11437e-05 0 0)
(1.11437e-05 0 0)
(1.11437e-05 0 0)
(1.11437e-05 0 0)
(1.11437e-05 0 0)
(1.11437e-05 0 0)
(1.11437e-05 0 0)
(1.11437e-05 0 0)
(1.11437e-05 0 0)
(1.11437e-05 0 0)
(1.11437e-05 0 0)
(1.11437e-05 0 0)
(1.11437e-05 0 0)
(1.11437e-05 0 0)
(1.11437e-05 0 0)
(1.11437e-05 0 0)
(1.11437e-05 0 0)
(1.11437e-05 0 0)
(1.11437e-05 0 0)
(1.11437e-05 0 0)
(1.11437e-05 0 0)
(1.11437e-05 0 0)
(1.11437e-05 0 0)
(1.11437e-05 0 0)
(1.11437e-05 0 0)
(1.11437e-05 0 0)
(1.11437e-05 0 0)
(1.11437e-05 0 0)
(1.11437e-05 0 0)
(1.11437e-05 0 0)
(1.11437e-05 0 0)
(1.11437e-05 0 0)
(1.11437e-05 0 0)
(1.11437e-05 0 0)
(1.11437e-05 0 0)
(1.11437e-05 0 0)
(1.11437e-05 0 0)
(1.11437e-05 0 0)
(1.11437e-05 0 0)
(1.11437e-05 0 0)
(1.11437e-05 0 0)
(1.11437e-05 0 0)
(1.11437e-05 0 0)
(1.11437e-05 0 0)
(1.11437e-05 0 0)
(1.11437e-05 0 0)
(1.11437e-05 0 0)
(1.11437e-05 0 0)
(1.11437e-05 0 0)
(1.11437e-05 0 0)
(1.11437e-05 0 0)
(1.11437e-05 0 0)
(1.11437e-05 0 0)
(1.11437e-05 0 0)
(1.11437e-05 0 0)
(1.11437e-05 0 0)
(1.11437e-05 0 0)
(1.11437e-05 0 0)
(1.11437e-05 0 0)
(1.11437e-05 0 0)
(1.11437e-05 0 0)
(1.11437e-05 0 0)
(1.11437e-05 0 0)
(1.11437e-05 0 0)
(1.11437e-05 0 0)
(1.11437e-05 0 0)
(1.11437e-05 0 0)
(1.11437e-05 0 0)
(1.11437e-05 0 0)
(1.11437e-05 0 0)
(1.11437e-05 0 0)
(1.11437e-05 0 0)
(1.11437e-05 0 0)
(1.11437e-05 0 0)
(1.11437e-05 0 0)
(1.11437e-05 0 0)
(1.11437e-05 0 0)
(1.11437e-05 0 0)
(1.11437e-05 0 0)
(1.11437e-05 0 0)
(1.11437e-05 0 0)
(1.11437e-05 0 0)
(1.11437e-05 0 0)
(1.11437e-05 0 0)
(1.11437e-05 0 0)
(1.11437e-05 0 0)
(1.11437e-05 0 0)
(1.11437e-05 0 0)
(1.11437e-05 0 0)
(1.11437e-05 0 0)
(1.11437e-05 0 0)
(1.11437e-05 0 0)
(1.11437e-05 0 0)
(1.11437e-05 0 0)
(1.11437e-05 0 0)
(1.11437e-05 0 0)
(1.11437e-05 0 0)
(1.11437e-05 0 0)
(1.11437e-05 0 0)
(1.11437e-05 0 0)
(1.11437e-05 0 0)
(1.11437e-05 0 0)
(1.11437e-05 0 0)
(1.11437e-05 0 0)
(1.11437e-05 0 0)
(1.11437e-05 0 0)
(1.11437e-05 0 0)
(1.11437e-05 0 0)
(1.11437e-05 0 0)
(1.11437e-05 0 0)
(1.11437e-05 0 0)
(1.11437e-05 0 0)
(1.11437e-05 0 0)
(1.11437e-05 0 0)
(1.11437e-05 0 0)
(1.11437e-05 0 0)
(1.11437e-05 0 0)
(1.11437e-05 0 0)
(1.11437e-05 0 0)
(1.11437e-05 0 0)
(1.11437e-05 0 0)
(1.11437e-05 0 0)
)
;

boundaryField
{
    inlet
    {
        type            fixedValue;
        value           uniform (0 0 0);
    }
    outlet
    {
        type            zeroGradient;
    }
    emptyWalls
    {
        type            empty;
    }
}


// ************************************************************************* //
