/*--------------------------------*- C++ -*----------------------------------*\
  =========                 |
  \\      /  F ield         | OpenFOAM: The Open Source CFD Toolbox
   \\    /   O peration     | Website:  https://openfoam.org
    \\  /    A nd           | Version:  9
     \\/     M anipulation  |
\*---------------------------------------------------------------------------*/
FoamFile
{
    format      ascii;
    class       volScalarField;
    location    "28650";
    object      krb;
}
// * * * * * * * * * * * * * * * * * * * * * * * * * * * * * * * * * * * * * //

dimensions      [0 0 0 0 0 0 0];

internalField   nonuniform List<scalar> 
1000
(
0.0977847
0.0981009
0.0984447
0.0988633
0.0992142
0.0996334
0.100003
0.100414
0.100812
0.10122
0.101638
0.102055
0.10248
0.102912
0.103345
0.103785
0.104231
0.104671
0.105129
0.105559
0.106027
0.106435
0.106903
0.107286
0.107724
0.108085
0.108464
0.108795
0.109109
0.109391
0.10965
0.109878
0.110086
0.110267
0.110433
0.110588
0.11078
0.111197
0.112608
0.118334
0.156233
0.367172
0.467401
0.490153
0.49913
0.504364
0.507974
0.510792
0.513084
0.514963
0.516556
0.517901
0.519065
0.520127
0.521103
0.522006
0.522843
0.523619
0.524337
0.525001
0.525613
0.526178
0.526697
0.527176
0.527613
0.528018
0.528386
0.528725
0.52903
0.529312
0.529563
0.529792
0.529996
0.530179
0.530338
0.530479
0.530597
0.530699
0.53078
0.530844
0.53089
0.53092
0.530933
0.530929
0.530908
0.53087
0.530815
0.530742
0.530651
0.530543
0.530418
0.530275
0.530116
0.529939
0.529743
0.52953
0.529296
0.529042
0.528767
0.528467
0.528144
0.527792
0.527411
0.526997
0.526544
0.526047
0.525498
0.524884
0.524192
0.523407
0.522513
0.521501
0.520371
0.519137
0.517826
0.516463
0.515064
0.513639
0.512194
0.510735
0.509266
0.507792
0.506318
0.504847
0.503381
0.501923
0.500473
0.499031
0.497598
0.496177
0.494766
0.493369
0.491986
0.490617
0.489264
0.487924
0.486598
0.485285
0.483983
0.482691
0.481407
0.48013
0.47886
0.477596
0.476337
0.475082
0.473833
0.472588
0.471348
0.470113
0.468884
0.467661
0.466445
0.465234
0.464031
0.462835
0.461646
0.460465
0.459291
0.458125
0.456966
0.455814
0.45467
0.453533
0.452403
0.45128
0.450164
0.449054
0.447951
0.446855
0.445765
0.444681
0.443604
0.442533
0.441467
0.440408
0.439355
0.438307
0.437265
0.436229
0.435199
0.434174
0.433155
0.432141
0.431132
0.430129
0.429132
0.428139
0.427152
0.426169
0.425192
0.42422
0.423254
0.422292
0.421335
0.420382
0.419435
0.418492
0.417555
0.416621
0.415693
0.414768
0.413849
0.412934
0.412023
0.411117
0.410216
0.409318
0.408426
0.407537
0.406653
0.405773
0.404897
0.404025
0.403158
0.402294
0.401435
0.400579
0.399728
0.398879
0.398036
0.397196
0.39636
0.395528
0.3947
0.393876
0.393056
0.39224
0.391428
0.390619
0.389814
0.389011
0.388212
0.387415
0.386622
0.38583
0.385041
0.384253
0.383468
0.382684
0.381904
0.381124
0.380348
0.379573
0.378803
0.378034
0.377269
0.376507
0.37575
0.374995
0.374246
0.3735
0.372761
0.372025
0.371297
0.370571
0.369853
0.369139
0.368432
0.367727
0.36703
0.366335
0.365647
0.364959
0.364278
0.363597
0.362921
0.362246
0.361575
0.360903
0.360235
0.359567
0.358902
0.358237
0.357576
0.356914
0.356256
0.355597
0.354942
0.354288
0.353637
0.352986
0.352339
0.351694
0.351051
0.35041
0.349772
0.349136
0.348503
0.347872
0.347244
0.346617
0.345994
0.345372
0.344754
0.344137
0.343523
0.34291
0.342301
0.341693
0.341088
0.340484
0.339884
0.339284
0.338688
0.338093
0.3375
0.336909
0.336321
0.335733
0.33515
0.334566
0.333986
0.333406
0.33283
0.332254
0.331682
0.331109
0.330541
0.329972
0.329407
0.328842
0.328281
0.327719
0.327162
0.326603
0.32605
0.325495
0.324945
0.324393
0.323847
0.323299
0.322756
0.322211
0.321671
0.321129
0.320593
0.320055
0.319522
0.318987
0.318457
0.317925
0.317399
0.31687
0.316347
0.315821
0.315301
0.314779
0.314262
0.313743
0.313229
0.312713
0.312202
0.311689
0.311181
0.310671
0.310166
0.309659
0.309158
0.308654
0.308155
0.307654
0.307158
0.30666
0.306166
0.30567
0.305179
0.304685
0.304195
0.303703
0.303216
0.302725
0.302239
0.30175
0.301266
0.300779
0.300296
0.29981
0.29933
0.298846
0.298368
0.297887
0.297411
0.296933
0.29646
0.295985
0.295516
0.295045
0.29458
0.294113
0.293653
0.29319
0.292734
0.292277
0.291825
0.291372
0.290925
0.290477
0.290034
0.28959
0.289151
0.288711
0.288275
0.287838
0.287405
0.28697
0.28654
0.286107
0.285679
0.285248
0.284821
0.284391
0.283966
0.283537
0.283113
0.282686
0.282264
0.281838
0.281417
0.280993
0.280573
0.280151
0.279732
0.279312
0.278895
0.278477
0.278062
0.277645
0.277233
0.276818
0.276408
0.275995
0.275587
0.275176
0.27477
0.274361
0.273957
0.27355
0.273148
0.272744
0.272344
0.271941
0.271543
0.271142
0.270746
0.270347
0.269953
0.269556
0.269164
0.268769
0.268378
0.267985
0.267596
0.267204
0.266817
0.266427
0.266042
0.265654
0.26527
0.264884
0.264502
0.264117
0.263737
0.263354
0.262975
0.262594
0.262216
0.261837
0.261461
0.261083
0.260709
0.260332
0.25996
0.259585
0.259214
0.258841
0.258472
0.2581
0.257732
0.257362
0.256996
0.256627
0.256262
0.255895
0.255532
0.255166
0.254804
0.25444
0.25408
0.253717
0.253358
0.252997
0.25264
0.25228
0.251924
0.251565
0.251211
0.250854
0.250501
0.250146
0.249794
0.24944
0.24909
0.248738
0.248389
0.248038
0.24769
0.24734
0.246994
0.246645
0.2463
0.245952
0.245608
0.245261
0.244918
0.244572
0.244229
0.243884
0.243542
0.243198
0.242857
0.242513
0.242173
0.241831
0.241492
0.24115
0.240812
0.240471
0.240134
0.239794
0.239459
0.239121
0.238787
0.23845
0.238118
0.237783
0.237453
0.23712
0.236792
0.236462
0.236136
0.235807
0.235484
0.235158
0.234837
0.234513
0.234194
0.233873
0.233556
0.233237
0.232922
0.232605
0.232292
0.231977
0.231665
0.231351
0.231041
0.230728
0.230419
0.230107
0.229799
0.229488
0.229181
0.228871
0.228565
0.228255
0.227949
0.227641
0.227335
0.227027
0.226723
0.226416
0.226112
0.225805
0.225502
0.225197
0.224894
0.22459
0.224288
0.223984
0.223684
0.223381
0.223082
0.22278
0.222481
0.22218
0.221883
0.221583
0.221286
0.220987
0.220692
0.220394
0.220099
0.219802
0.219509
0.219213
0.218921
0.218626
0.218334
0.21804
0.217749
0.217456
0.217167
0.216874
0.216586
0.216294
0.216007
0.215716
0.215429
0.21514
0.214854
0.214565
0.21428
0.213992
0.213708
0.213421
0.213137
0.212851
0.212568
0.212283
0.212001
0.211716
0.211435
0.211152
0.210871
0.210588
0.210309
0.210027
0.209748
0.209467
0.209189
0.208908
0.208631
0.208351
0.208075
0.207796
0.20752
0.207242
0.206967
0.20669
0.206416
0.206139
0.205866
0.20559
0.205317
0.205042
0.20477
0.204496
0.204225
0.203951
0.203681
0.203408
0.203138
0.202866
0.202597
0.202326
0.202058
0.201787
0.20152
0.20125
0.200983
0.200713
0.200447
0.200178
0.199913
0.199645
0.19938
0.199112
0.198847
0.19858
0.198316
0.19805
0.197786
0.19752
0.197256
0.196991
0.196728
0.196462
0.1962
0.195935
0.195673
0.195408
0.195147
0.194883
0.194622
0.194358
0.194098
0.193835
0.193575
0.193313
0.193054
0.192793
0.192535
0.192274
0.192017
0.191758
0.191501
0.191243
0.190988
0.190731
0.190477
0.190221
0.189968
0.189713
0.189462
0.189208
0.188958
0.188706
0.188457
0.188206
0.187958
0.187708
0.187461
0.187212
0.186965
0.186717
0.186472
0.186225
0.18598
0.185733
0.18549
0.185243
0.185
0.184754
0.184511
0.184266
0.184024
0.183779
0.183537
0.183292
0.18305
0.182806
0.182564
0.182321
0.182079
0.181836
0.181595
0.181352
0.181112
0.180869
0.180629
0.180387
0.180147
0.179905
0.179666
0.179424
0.179186
0.178945
0.178706
0.178466
0.178228
0.177988
0.177751
0.177511
0.177274
0.177035
0.176799
0.17656
0.176325
0.176087
0.175851
0.175614
0.175379
0.175141
0.174907
0.17467
0.174436
0.1742
0.173966
0.173731
0.173498
0.173262
0.173029
0.172795
0.172562
0.172328
0.172096
0.171862
0.17163
0.171397
0.171165
0.170932
0.170701
0.170468
0.170238
0.170006
0.169776
0.169544
0.169314
0.169082
0.168853
0.168622
0.168393
0.168162
0.167933
0.167703
0.167474
0.167244
0.167016
0.166786
0.166559
0.166329
0.166102
0.165873
0.165646
0.165417
0.165191
0.164962
0.164736
0.164508
0.164282
0.164055
0.163829
0.163602
0.163377
0.163149
0.162925
0.162698
0.162473
0.162247
0.162023
0.161796
0.161573
0.161347
0.161123
0.160898
0.160674
0.160449
0.160226
0.160001
0.159778
0.159553
0.159331
0.159106
0.158884
0.158659
0.158437
0.158212
0.157991
0.157766
0.157545
0.15732
0.157099
0.156875
0.156654
0.156429
0.156209
0.155984
0.155764
0.155539
0.155319
0.155095
0.154875
0.154651
0.154432
0.154207
0.153989
0.153763
0.153547
0.15332
0.153105
0.152878
0.152664
0.152437
0.152223
0.151997
0.151783
0.151558
0.151345
0.15112
0.150907
0.150682
0.150471
0.150246
0.150035
0.149811
0.149601
0.149377
0.149167
0.148944
0.148735
0.148512
0.148304
0.148081
0.147875
0.14765
0.147446
0.147219
0.14702
0.146788
0.146594
0.146357
0.14617
0.145926
0.145746
0.145495
0.145323
0.145063
0.144901
0.144632
0.144479
0.144201
0.144057
0.14377
0.143634
0.143339
0.143212
0.142909
0.142789
0.142479
0.142366
0.14205
0.141942
0.141622
0.141518
0.141194
0.141093
0.140767
0.140668
0.14034
0.140244
0.139914
0.139818
0.139488
0.139393
0.139062
0.138967
0.138638
0.138541
0.138213
0.138116
0.137788
0.137691
0.137363
0.137265
0.136938
0.13684
0.136514
0.136415
0.13609
0.13599
0.135665
0.135565
0.135241
0.135141
0.134816
0.134716
0.134392
0.134291
0.133968
0.133866
0.133545
0.13344
0.133121
0.133015
0.132696
0.13259
0.132272
0.132165
0.131848
0.13174
0.131424
0.131315
0.130999
0.130889
0.130574
0.130464
0.130149
0.130039
0.129724
0.129614
0.129298
0.129188
0.128874
0.128761
0.128449
0.128335
0.128023
0.127908
0.127597
0.127482
0.127171
0.127054
0.126745
0.126627
0.126318
0.1262
0.125891
0.125772
0.125464
0.125345
0.125036
0.124917
0.124607
0.124489
0.124179
0.124059
0.123751
0.123631
0.0632363
)
;

boundaryField
{
    inlet
    {
        type            calculated;
        value           uniform 0.0976562;
    }
    outlet
    {
        type            calculated;
        value           uniform 0.0632363;
    }
    emptyWalls
    {
        type            empty;
    }
}


// ************************************************************************* //
