/*--------------------------------*- C++ -*----------------------------------*\
  =========                 |
  \\      /  F ield         | OpenFOAM: The Open Source CFD Toolbox
   \\    /   O peration     | Website:  https://openfoam.org
    \\  /    A nd           | Version:  9
     \\/     M anipulation  |
\*---------------------------------------------------------------------------*/
FoamFile
{
    format      ascii;
    class       volScalarField;
    location    "28650";
    object      Sa;
}
// * * * * * * * * * * * * * * * * * * * * * * * * * * * * * * * * * * * * * //

dimensions      [0 0 0 0 0 0 0];

internalField   nonuniform List<scalar> 
1000
(
0.54965
0.548874
0.547947
0.546921
0.545982
0.544958
0.543997
0.542982
0.541982
0.540969
0.539941
0.538911
0.537871
0.536821
0.535768
0.534708
0.533639
0.532581
0.531504
0.530468
0.529392
0.528401
0.52735
0.526421
0.525445
0.524587
0.523734
0.52297
0.522256
0.521612
0.521028
0.520509
0.520044
0.519634
0.519263
0.518914
0.518485
0.517557
0.514419
0.502151
0.432537
0.181243
0.0913439
0.0713607
0.0633287
0.0586581
0.0554173
0.0528801
0.0507882
0.0490246
0.0474912
0.0461459
0.0449438
0.0438312
0.0427948
0.0418228
0.0409091
0.0400478
0.0392364
0.0384696
0.0377462
0.0370615
0.0364145
0.0358003
0.0352195
0.0346659
0.0341416
0.0336407
0.0331659
0.0327109
0.0322791
0.0318644
0.0314696
0.0310901
0.0307282
0.0303797
0.0300473
0.0297268
0.0294206
0.0291251
0.028842
0.0285685
0.0283059
0.0280521
0.0278048
0.0275668
0.0273381
0.0271185
0.026908
0.0267064
0.0265132
0.0263282
0.0261508
0.025981
0.0258185
0.0256634
0.0255153
0.0253746
0.0252408
0.0251143
0.0249945
0.024882
0.0247758
0.0246759
0.0245822
0.0244942
0.0244111
0.0243342
0.0242629
0.0241984
0.0241417
0.0240946
0.0240567
0.0240268
0.0240001
0.0239739
0.0239485
0.0239249
0.0239038
0.0238858
0.0238706
0.0238574
0.0238451
0.0238327
0.0238195
0.0238053
0.02379
0.0237737
0.0237562
0.023737
0.0237156
0.0236914
0.0236639
0.0236328
0.023598
0.0235597
0.0235185
0.0234749
0.0234297
0.0233838
0.0233378
0.0232924
0.0232482
0.0232055
0.0231647
0.0231259
0.0230892
0.0230544
0.0230215
0.0229902
0.0229603
0.0229316
0.0229038
0.0228767
0.02285
0.0228236
0.0227974
0.0227712
0.0227449
0.0227186
0.0226921
0.0226655
0.0226388
0.022612
0.022585
0.0225581
0.0225311
0.0225042
0.0224772
0.0224505
0.0224237
0.0223971
0.0223706
0.0223443
0.022318
0.0222921
0.0222661
0.0222405
0.0222149
0.0221896
0.0221644
0.0221394
0.0221146
0.02209
0.0220655
0.0220413
0.0220172
0.0219934
0.0219696
0.0219461
0.0219226
0.0218995
0.0218763
0.0218535
0.0218307
0.0218082
0.0217857
0.0217636
0.0217415
0.0217198
0.0216981
0.0216768
0.0216555
0.0216345
0.0216135
0.0215928
0.021572
0.0215516
0.021531
0.0215108
0.0214904
0.0214705
0.0214504
0.0214309
0.0214111
0.0213919
0.0213724
0.0213536
0.0213345
0.021316
0.0212971
0.0212789
0.0212601
0.0212419
0.0212231
0.0212048
0.0211859
0.0211675
0.0211486
0.0211305
0.021112
0.0210945
0.0210769
0.0210606
0.0210444
0.0210298
0.0210154
0.0210028
0.0209903
0.0209798
0.0209692
0.0209605
0.0209515
0.0209441
0.0209363
0.0209297
0.0209222
0.0209156
0.0209077
0.0209003
0.020891
0.020882
0.0208705
0.020859
0.0208446
0.02083
0.0208125
0.0207947
0.0207739
0.0207531
0.0207296
0.0207064
0.0206809
0.0206563
0.0206298
0.0206046
0.020578
0.0205532
0.0205274
0.0205037
0.0204792
0.0204569
0.020434
0.0204132
0.020392
0.0203727
0.020353
0.020335
0.0203164
0.0202994
0.0202818
0.0202653
0.0202483
0.0202323
0.0202157
0.0201998
0.0201833
0.0201675
0.020151
0.0201352
0.0201187
0.0201027
0.0200862
0.0200702
0.0200535
0.0200375
0.0200208
0.0200048
0.0199881
0.0199721
0.0199555
0.0199396
0.0199229
0.0199072
0.0198906
0.0198751
0.0198586
0.0198432
0.0198268
0.0198117
0.0197954
0.0197805
0.0197642
0.0197496
0.0197335
0.0197191
0.0197031
0.019689
0.019673
0.0196592
0.0196434
0.0196298
0.019614
0.0196007
0.0195851
0.019572
0.0195566
0.0195438
0.0195284
0.0195159
0.0195007
0.0194883
0.0194733
0.0194611
0.0194463
0.0194343
0.0194196
0.0194078
0.0193932
0.0193816
0.0193671
0.0193556
0.0193413
0.0193301
0.0193159
0.0193048
0.0192908
0.0192799
0.0192661
0.0192553
0.0192416
0.0192309
0.0192173
0.0192067
0.0191932
0.0191826
0.0191692
0.0191587
0.0191453
0.0191349
0.0191216
0.0191114
0.0190984
0.0190885
0.019076
0.0190666
0.0190547
0.019046
0.0190348
0.0190271
0.0190168
0.0190101
0.0190008
0.018995
0.0189868
0.018982
0.0189746
0.0189706
0.018964
0.0189606
0.0189544
0.0189512
0.0189451
0.018942
0.0189356
0.0189319
0.0189248
0.0189202
0.018912
0.0189062
0.0188966
0.0188892
0.0188779
0.0188688
0.0188558
0.018845
0.0188303
0.0188178
0.0188016
0.0187878
0.0187704
0.0187556
0.0187374
0.018722
0.0187035
0.0186879
0.0186694
0.0186541
0.018636
0.0186211
0.0186036
0.0185894
0.0185726
0.0185592
0.0185432
0.0185306
0.0185153
0.0185034
0.0184887
0.0184774
0.0184634
0.0184525
0.0184389
0.0184284
0.0184151
0.0184049
0.0183917
0.0183816
0.0183686
0.0183586
0.0183456
0.0183357
0.0183227
0.0183127
0.0182997
0.0182898
0.0182767
0.0182668
0.0182537
0.0182437
0.0182307
0.0182207
0.0182077
0.0181978
0.0181848
0.0181749
0.0181619
0.0181521
0.0181392
0.0181295
0.0181167
0.018107
0.0180943
0.0180847
0.0180721
0.0180626
0.0180501
0.0180408
0.0180284
0.0180191
0.0180068
0.0179977
0.0179855
0.0179765
0.0179645
0.0179556
0.0179437
0.0179349
0.0179231
0.0179145
0.0179028
0.0178943
0.0178828
0.0178744
0.017863
0.0178547
0.0178434
0.0178353
0.0178241
0.017816
0.0178049
0.017797
0.017786
0.0177782
0.0177674
0.0177597
0.0177489
0.0177413
0.0177307
0.0177232
0.0177126
0.0177052
0.0176947
0.0176874
0.017677
0.0176698
0.0176595
0.0176523
0.0176421
0.017635
0.0176248
0.0176178
0.0176077
0.0176008
0.0175908
0.017584
0.0175742
0.0175676
0.0175581
0.0175518
0.0175426
0.0175367
0.0175278
0.0175224
0.017514
0.017509
0.0175012
0.0174968
0.0174896
0.0174858
0.0174791
0.0174758
0.0174697
0.0174669
0.0174612
0.0174589
0.0174536
0.0174515
0.0174463
0.0174444
0.0174392
0.0174372
0.0174319
0.0174295
0.0174238
0.017421
0.0174146
0.0174111
0.017404
0.0173996
0.0173916
0.0173862
0.0173772
0.0173708
0.0173606
0.0173532
0.017342
0.0173336
0.0173215
0.0173122
0.0172994
0.0172894
0.0172759
0.0172655
0.0172516
0.0172409
0.0172269
0.0172161
0.0172021
0.0171914
0.0171775
0.0171671
0.0171536
0.0171435
0.0171304
0.0171206
0.017108
0.0170987
0.0170864
0.0170775
0.0170657
0.0170572
0.0170457
0.0170375
0.0170263
0.0170184
0.0170075
0.0169998
0.016989
0.0169815
0.0169708
0.0169635
0.0169529
0.0169456
0.0169351
0.0169278
0.0169173
0.0169101
0.0168996
0.0168924
0.0168819
0.0168747
0.0168643
0.0168571
0.0168466
0.0168394
0.016829
0.0168219
0.0168115
0.0168043
0.016794
0.0167869
0.0167766
0.0167695
0.0167592
0.0167522
0.016742
0.0167351
0.016725
0.0167181
0.016708
0.0167012
0.0166912
0.0166845
0.0166746
0.016668
0.0166581
0.0166516
0.0166418
0.0166354
0.0166257
0.0166194
0.0166098
0.0166035
0.016594
0.0165878
0.0165784
0.0165723
0.016563
0.016557
0.0165478
0.0165418
0.0165327
0.0165268
0.0165178
0.016512
0.016503
0.0164973
0.0164884
0.0164828
0.016474
0.0164684
0.0164597
0.0164542
0.0164455
0.0164401
0.0164315
0.0164261
0.0164175
0.0164123
0.0164038
0.0163985
0.0163901
0.0163849
0.0163765
0.0163714
0.0163631
0.0163581
0.0163499
0.016345
0.0163369
0.0163321
0.0163241
0.0163195
0.0163117
0.0163072
0.0162996
0.0162955
0.0162881
0.0162842
0.0162772
0.0162736
0.0162669
0.0162636
0.0162573
0.0162544
0.0162484
0.0162458
0.0162402
0.016238
0.0162327
0.0162308
0.0162257
0.0162241
0.0162192
0.0162178
0.0162131
0.0162117
0.016207
0.0162056
0.0162009
0.0161994
0.0161944
0.0161927
0.0161874
0.0161853
0.0161797
0.0161771
0.0161709
0.0161678
0.016161
0.0161573
0.0161498
0.0161454
0.0161373
0.0161322
0.0161234
0.0161177
0.0161083
0.0161019
0.0160919
0.016085
0.0160745
0.0160671
0.0160562
0.0160485
0.0160374
0.0160295
0.0160182
0.0160102
0.0159988
0.0159909
0.0159795
0.0159717
0.0159605
0.0159528
0.0159418
0.0159343
0.0159236
0.0159163
0.0159058
0.0158988
0.0158886
0.0158819
0.0158719
0.0158654
0.0158556
0.0158493
0.0158397
0.0158336
0.0158242
0.0158183
0.015809
0.0158032
0.015794
0.0157883
0.0157792
0.0157735
0.0157645
0.0157589
0.0157499
0.0157443
0.0157354
0.0157298
0.0157209
0.0157153
0.0157064
0.0157009
0.015692
0.0156865
0.0156776
0.0156722
0.0156633
0.0156578
0.015649
0.0156435
0.0156347
0.0156293
0.0156205
0.0156152
0.0156064
0.0156011
0.0155924
0.0155871
0.0155784
0.0155732
0.0155646
0.0155594
0.0155509
0.0155457
0.0155372
0.0155322
0.0155237
0.0155187
0.0155103
0.0155054
0.0154971
0.0154922
0.0154839
0.0154791
0.0154709
0.0154662
0.015458
0.0154534
0.0154453
0.0154407
0.0154326
0.0154281
0.0154201
0.0154156
0.0154077
0.0154033
0.0153955
0.0153911
0.0153833
0.015379
0.0153713
0.015367
0.0153593
0.0153551
0.0153475
0.0153433
0.0153357
0.0153316
0.0153241
0.01532
0.0153126
0.0153085
0.0153011
0.0152972
0.0152898
0.0152859
0.0152786
0.0152748
0.0152676
0.0152638
0.0152567
0.015253
0.015246
0.0152425
0.0152356
0.0152322
0.0152255
0.0152222
0.0152157
0.0152126
0.0152062
0.0152034
0.0151972
0.0151946
0.0151887
0.0151863
0.0151806
0.0151784
0.0151729
0.015171
0.0151658
0.0151641
0.015159
0.0151576
0.0151527
0.0151514
0.0151467
0.0151455
0.0151408
0.0151397
0.0151351
0.015134
0.0151294
0.0151282
0.0151235
0.0151223
0.0151175
0.0151162
0.015111
0.0151097
0.0151041
0.0151026
0.0150964
0.0150948
0.015088
0.0150862
0.0150788
0.0150768
0.0150686
0.0150664
0.0150576
0.0150552
0.0150456
0.015043
0.0150326
0.0150299
0.0150188
0.0150159
0.0150043
0.015001
0.0149892
0.0149857
0.0149737
0.0149699
0.014958
0.0149539
0.014942
0.0149377
0.014926
0.0149215
0.0149101
0.0149053
0.0148943
0.0148894
0.0148787
0.0148736
0.0148633
0.0148582
0.0148483
0.0148431
0.0148335
0.0148283
0.0148191
0.0148138
0.014805
0.0147997
0.0147911
0.0147858
0.0147774
0.0147721
0.0147639
0.0147587
0.0147506
0.0147454
0.0147375
0.0147323
0.0147245
0.0147192
0.0147115
0.0147063
0.0146986
0.0146935
0.0146858
0.0146806
0.014673
0.0146679
0.0146602
0.0146551
0.0146475
0.0146424
0.0146348
0.0146297
0.0146221
0.0146171
0.0146095
0.0146045
0.0145969
0.0145919
0.0145843
0.0145794
0.0145718
0.0145669
0.0145594
0.0145545
0.014547
0.0145422
0.0145347
0.01453
0.0145224
0.0145178
0.0145103
0.0145057
0.0144982
0.0144937
0.0144862
0.0144818
0.0144742
0.01447
0.0144624
0.0144583
0.0144507
0.0144466
0.014439
0.0144351
0.0144274
0.0144237
0.0144159
0.0144124
0.0144045
0.0144011
0.0143932
0.01439
0.014382
0.0143789
0.0143708
0.0143679
0.0143598
0.014357
0.0143488
0.0143462
0.0143379
0.0143354
0.0143271
0.0143247
0.0143164
0.0143141
0.0143058
0.0143035
0.0142952
0.014293
0.0142847
0.0142827
0.0142685
0.249412
)
;

boundaryField
{
    inlet
    {
        type            fixedValue;
        value           uniform 0.55;
    }
    outlet
    {
        type            zeroGradient;
    }
    emptyWalls
    {
        type            empty;
    }
}


// ************************************************************************* //
