/*--------------------------------*- C++ -*----------------------------------*\
  =========                 |
  \\      /  F ield         | OpenFOAM: The Open Source CFD Toolbox
   \\    /   O peration     | Website:  https://openfoam.org
    \\  /    A nd           | Version:  9
     \\/     M anipulation  |
\*---------------------------------------------------------------------------*/
FoamFile
{
    format      ascii;
    class       volScalarField;
    location    "27800";
    object      krc;
}
// * * * * * * * * * * * * * * * * * * * * * * * * * * * * * * * * * * * * * //

dimensions      [0 0 0 0 0 0 0];

internalField   nonuniform List<scalar> 
1000
(
5.73122e-08
5.1873e-07
1.8281e-06
3.95431e-06
6.88763e-06
1.0629e-05
1.519e-05
2.0583e-05
2.68243e-05
3.39305e-05
4.19184e-05
5.08016e-05
6.05904e-05
7.12895e-05
8.28955e-05
9.53945e-05
0.000108758
0.000122939
0.00013787
0.000153455
0.000169568
0.000186054
0.000202723
0.000219363
0.000235747
0.000251643
0.000266845
0.000281166
0.000294481
0.000306705
0.000317815
0.000327833
0.000336841
0.000345038
0.000353115
0.000364031
0.000391359
0.000495433
0.00103295
0.00735087
0.0333912
0.0420581
0.0448795
0.0462364
0.047086
0.0477124
0.0482207
0.0486586
0.0490492
0.0494064
0.0497376
0.0500485
0.0503421
0.0506215
0.050888
0.0511437
0.0513893
0.051626
0.0518543
0.0520753
0.0522891
0.0524967
0.0526983
0.0528948
0.053086
0.053273
0.0534554
0.0536343
0.0538094
0.0539816
0.0541508
0.0543176
0.054482
0.0546446
0.0548052
0.0549645
0.0551222
0.055279
0.0554349
0.0555905
0.0557456
0.0559022
0.0560601
0.0562183
0.0563769
0.0565362
0.056696
0.0568568
0.0570185
0.0571814
0.0573459
0.0575121
0.0576805
0.0578512
0.0580248
0.0582017
0.0583826
0.0585682
0.0587594
0.0589576
0.0591641
0.0593813
0.0596116
0.0598588
0.0601273
0.060422
0.0607484
0.0611108
0.0615114
0.0619492
0.0624192
0.0629144
0.0634281
0.0639554
0.0644928
0.0650376
0.065588
0.0661426
0.0667003
0.0672603
0.0678221
0.068385
0.0689488
0.0695132
0.0700778
0.0706426
0.0712073
0.0717717
0.0723359
0.0728996
0.0734629
0.0740256
0.0745877
0.0751492
0.0757099
0.0762699
0.0768291
0.0773875
0.077945
0.0785017
0.0790575
0.0796125
0.0801665
0.0807197
0.0812718
0.0818231
0.0823734
0.0829228
0.0834712
0.0840186
0.0845651
0.0851106
0.0856552
0.0861987
0.0867413
0.0872829
0.0878235
0.0883631
0.0889018
0.0894394
0.0899761
0.0905118
0.0910465
0.0915803
0.092113
0.0926448
0.0931756
0.0937055
0.0942343
0.0947622
0.0952891
0.0958151
0.09634
0.096864
0.0973871
0.0979092
0.0984304
0.0989506
0.0994698
0.0999881
0.100505
0.101022
0.101537
0.102052
0.102566
0.103078
0.10359
0.104101
0.104611
0.10512
0.105628
0.106135
0.106641
0.107147
0.107651
0.108155
0.108658
0.10916
0.109661
0.110161
0.11066
0.111158
0.111656
0.112152
0.112648
0.113143
0.113637
0.11413
0.114622
0.115113
0.115603
0.116093
0.116582
0.117069
0.117556
0.118042
0.118528
0.119012
0.119496
0.119978
0.12046
0.120942
0.121422
0.121902
0.122381
0.122859
0.123337
0.123814
0.12429
0.124766
0.125241
0.125715
0.126188
0.126661
0.127133
0.127604
0.128075
0.128544
0.129013
0.129481
0.129949
0.130415
0.130881
0.131346
0.131811
0.132274
0.132737
0.133199
0.133661
0.134122
0.134582
0.135041
0.135499
0.135957
0.136414
0.136871
0.137327
0.137782
0.138236
0.13869
0.139143
0.139595
0.140047
0.140498
0.140949
0.141399
0.141848
0.142296
0.142744
0.143191
0.143638
0.144084
0.144529
0.144974
0.145418
0.145861
0.146304
0.146746
0.147188
0.147628
0.148069
0.148508
0.148947
0.149386
0.149824
0.150261
0.150698
0.151134
0.151569
0.152004
0.152438
0.152872
0.153305
0.153738
0.154169
0.154601
0.155032
0.155462
0.155891
0.15632
0.156749
0.157177
0.157604
0.158031
0.158457
0.158883
0.159308
0.159733
0.160157
0.16058
0.161003
0.161426
0.161848
0.162269
0.16269
0.16311
0.16353
0.163949
0.164368
0.164786
0.165204
0.165621
0.166038
0.166454
0.16687
0.167285
0.1677
0.168114
0.168527
0.168941
0.169353
0.169765
0.170177
0.170588
0.170999
0.171409
0.171819
0.172228
0.172637
0.173045
0.173452
0.173859
0.174266
0.174672
0.175077
0.175482
0.175887
0.176291
0.176695
0.177098
0.1775
0.177903
0.178304
0.178706
0.179107
0.179507
0.179907
0.180307
0.180707
0.181106
0.181505
0.181903
0.182301
0.182699
0.183096
0.183494
0.18389
0.184287
0.184683
0.185078
0.185474
0.185869
0.186263
0.186657
0.187051
0.187445
0.187838
0.18823
0.188622
0.189014
0.189405
0.189796
0.190186
0.190576
0.190966
0.191355
0.191743
0.192132
0.19252
0.192907
0.193294
0.193681
0.194067
0.194453
0.194839
0.195224
0.195609
0.195994
0.196378
0.196762
0.197145
0.197528
0.197911
0.198294
0.198676
0.199058
0.199439
0.19982
0.200201
0.200581
0.200961
0.201341
0.20172
0.202099
0.202478
0.202857
0.203235
0.203612
0.20399
0.204367
0.204744
0.20512
0.205496
0.205872
0.206247
0.206622
0.206997
0.207372
0.207746
0.20812
0.208493
0.208867
0.20924
0.209612
0.209985
0.210356
0.210728
0.2111
0.211471
0.211841
0.212212
0.212582
0.212952
0.213322
0.213691
0.21406
0.214429
0.214797
0.215165
0.215533
0.215901
0.216268
0.216635
0.217002
0.217368
0.217735
0.218101
0.218466
0.218832
0.219197
0.219561
0.219926
0.22029
0.220654
0.221018
0.221381
0.221745
0.222108
0.22247
0.222833
0.223195
0.223557
0.223919
0.22428
0.224641
0.225002
0.225363
0.225723
0.226083
0.226443
0.226803
0.227162
0.227521
0.227879
0.228238
0.228596
0.228954
0.229311
0.229669
0.230025
0.230382
0.230739
0.231095
0.231451
0.231807
0.232162
0.232517
0.232872
0.233227
0.233582
0.233936
0.23429
0.234645
0.234998
0.235353
0.235706
0.23606
0.236413
0.236767
0.23712
0.237473
0.237826
0.238179
0.238531
0.238884
0.239237
0.239589
0.239941
0.240294
0.240646
0.240998
0.241349
0.241701
0.242052
0.242404
0.242754
0.243105
0.243456
0.243806
0.244156
0.244506
0.244856
0.245206
0.245555
0.245904
0.246253
0.246602
0.24695
0.247298
0.247646
0.247994
0.248342
0.24869
0.249037
0.249384
0.249731
0.250078
0.250424
0.250771
0.251117
0.251464
0.25181
0.252156
0.252501
0.252847
0.253192
0.253538
0.253883
0.254228
0.254573
0.254918
0.255262
0.255607
0.255951
0.256295
0.256639
0.256983
0.257327
0.257671
0.258014
0.258358
0.258701
0.259044
0.259387
0.25973
0.260072
0.260415
0.260757
0.2611
0.261442
0.261784
0.262126
0.262468
0.262809
0.263151
0.263492
0.263834
0.264174
0.264516
0.264856
0.265198
0.265538
0.265879
0.266219
0.26656
0.2669
0.26724
0.26758
0.26792
0.268259
0.268599
0.268939
0.269278
0.269617
0.269957
0.270296
0.270635
0.270974
0.271313
0.271652
0.271991
0.272329
0.272668
0.273006
0.273344
0.273682
0.274021
0.274358
0.274697
0.275034
0.275372
0.275709
0.276048
0.276385
0.276722
0.277059
0.277397
0.277734
0.278071
0.278408
0.278745
0.279081
0.279419
0.279755
0.280092
0.280428
0.280764
0.2811
0.281437
0.281772
0.282108
0.282444
0.28278
0.283115
0.283451
0.283786
0.284121
0.284456
0.284792
0.285126
0.285461
0.285796
0.286131
0.286465
0.2868
0.287135
0.28747
0.287804
0.288139
0.288473
0.288808
0.289142
0.289477
0.289811
0.290147
0.290481
0.290816
0.291151
0.291486
0.291821
0.292156
0.292491
0.292827
0.293162
0.293498
0.293832
0.294169
0.294504
0.29484
0.295175
0.295511
0.295846
0.296183
0.296518
0.296854
0.297189
0.297526
0.297861
0.298197
0.298532
0.298868
0.299204
0.29954
0.299875
0.300211
0.300546
0.300882
0.301217
0.301553
0.301888
0.302224
0.302558
0.302894
0.303229
0.303565
0.3039
0.304236
0.304571
0.304907
0.305241
0.305577
0.305912
0.306248
0.306583
0.306919
0.307254
0.30759
0.307925
0.308261
0.308596
0.308932
0.309268
0.309604
0.309939
0.310275
0.310611
0.310947
0.311283
0.311619
0.311955
0.312291
0.312627
0.312964
0.313299
0.313636
0.313972
0.314309
0.314644
0.314982
0.315317
0.315655
0.315991
0.316328
0.316664
0.317002
0.317338
0.317675
0.318012
0.318349
0.318686
0.319024
0.31936
0.319698
0.320035
0.320373
0.32071
0.321048
0.321385
0.321724
0.322061
0.322399
0.322737
0.323075
0.323413
0.323752
0.324089
0.324428
0.324766
0.325106
0.325443
0.325783
0.326121
0.326461
0.326799
0.327139
0.327477
0.327818
0.328156
0.328497
0.328835
0.329176
0.329515
0.329856
0.330195
0.330536
0.330876
0.331217
0.331557
0.331898
0.332238
0.33258
0.33292
0.333262
0.333603
0.333945
0.334286
0.334628
0.334969
0.335312
0.335653
0.335996
0.336337
0.33668
0.337022
0.337365
0.337707
0.33805
0.338392
0.338736
0.339078
0.339423
0.339765
0.340109
0.340452
0.340797
0.341139
0.341484
0.341828
0.342173
0.342516
0.342862
0.343206
0.343551
0.343896
0.344242
0.344587
0.344933
0.345278
0.345626
0.345971
0.346319
0.346665
0.347013
0.34736
0.347709
0.348056
0.348405
0.348753
0.349103
0.349452
0.349803
0.350152
0.350503
0.350853
0.351205
0.351556
0.351909
0.35226
0.352613
0.352965
0.353319
0.353671
0.354026
0.354379
0.354734
0.355088
0.355444
0.355798
0.356154
0.356509
0.356866
0.357221
0.357579
0.357935
0.358292
0.358649
0.359007
0.359364
0.359723
0.360081
0.36044
0.360798
0.361158
0.361517
0.361877
0.362236
0.362597
0.362958
0.363318
0.36368
0.36404
0.364404
0.364763
0.365129
0.365488
0.365856
0.366214
0.366583
0.366942
0.367312
0.367671
0.368042
0.368402
0.368773
0.369134
0.369506
0.369868
0.370241
0.370603
0.370977
0.37134
0.371714
0.372078
0.372453
0.372818
0.373193
0.37356
0.373936
0.374303
0.37468
0.375047
0.375427
0.375792
0.376176
0.376538
0.376929
0.377284
0.377684
0.378031
0.378442
0.378778
0.379203
0.379527
0.379966
0.380277
0.380732
0.381029
0.381499
0.381783
0.382269
0.382539
0.38304
0.383297
0.383814
0.384057
0.384588
0.38482
0.385364
0.385587
0.386141
0.386356
0.386919
0.387129
0.387699
0.387904
0.38848
0.388682
0.389264
0.389462
0.390049
0.390246
0.390836
0.391033
0.391624
0.391823
0.392414
0.392616
0.393208
0.39341
0.394004
0.394208
0.394802
0.395008
0.395603
0.395811
0.396407
0.396617
0.397213
0.397425
0.398022
0.398236
0.398835
0.399049
0.39965
0.399866
0.400467
0.400686
0.401287
0.401509
0.40211
0.402335
0.402936
0.403164
0.403765
0.403996
0.404597
0.404831
0.405433
0.405669
0.406271
0.40651
0.407113
0.407355
0.407958
0.408202
0.408808
0.409052
0.409661
0.409912
0.226455
)
;

boundaryField
{
    inlet
    {
        type            calculated;
        value           uniform 3.08149e-33;
    }
    outlet
    {
        type            calculated;
        value           uniform 0.226455;
    }
    emptyWalls
    {
        type            empty;
    }
}


// ************************************************************************* //
