/*--------------------------------*- C++ -*----------------------------------*\
  =========                 |
  \\      /  F ield         | OpenFOAM: The Open Source CFD Toolbox
   \\    /   O peration     | Website:  https://openfoam.org
    \\  /    A nd           | Version:  9
     \\/     M anipulation  |
\*---------------------------------------------------------------------------*/
FoamFile
{
    format      ascii;
    class       volScalarField;
    location    "24550";
    object      Fb;
}
// * * * * * * * * * * * * * * * * * * * * * * * * * * * * * * * * * * * * * //

dimensions      [0 0 0 0 0 0 0];

internalField   nonuniform List<scalar> 
1000
(
0.805195
0.805188
0.805202
0.805203
0.805211
0.805226
0.805234
0.805242
0.80527
0.80526
0.805318
0.805279
0.805374
0.805299
0.805427
0.805344
0.805465
0.805426
0.805499
0.805512
0.805549
0.805573
0.805605
0.805623
0.805652
0.805669
0.805691
0.805704
0.805717
0.805745
0.805726
0.805829
0.805858
0.80639
0.810936
0.828534
0.832249
0.832611
0.832132
0.831741
0.831957
0.832517
0.833073
0.833875
0.834634
0.835177
0.835523
0.835741
0.835806
0.835731
0.835678
0.835652
0.835659
0.835682
0.835726
0.835792
0.835855
0.835919
0.835985
0.836052
0.836115
0.836174
0.836232
0.836281
0.836333
0.836372
0.836419
0.836448
0.83649
0.83651
0.836545
0.836557
0.836579
0.836594
0.836604
0.836611
0.836612
0.836609
0.836601
0.83659
0.836573
0.836554
0.836529
0.836499
0.836464
0.836425
0.836378
0.836325
0.836263
0.836192
0.836108
0.83601
0.835895
0.835762
0.835608
0.83543
0.835229
0.83501
0.834778
0.834537
0.834288
0.834031
0.833768
0.833497
0.83322
0.832938
0.832651
0.832362
0.832072
0.831785
0.8315
0.831218
0.830937
0.830656
0.830375
0.830092
0.829805
0.829507
0.829194
0.828858
0.828495
0.828103
0.827685
0.827245
0.826789
0.826323
0.825853
0.825382
0.824915
0.824454
0.824004
0.823568
0.823152
0.822761
0.8224
0.822075
0.821787
0.821537
0.821323
0.821142
0.820988
0.820854
0.820732
0.820617
0.820499
0.820374
0.820235
0.820081
0.819907
0.819714
0.8195
0.819268
0.819018
0.818753
0.818475
0.818187
0.817892
0.81759
0.817286
0.81698
0.816674
0.816368
0.816065
0.815763
0.815464
0.815168
0.814874
0.814582
0.814292
0.814003
0.813716
0.813429
0.813143
0.812858
0.812572
0.812286
0.812
0.811714
0.811427
0.811139
0.810851
0.810562
0.810271
0.80998
0.809688
0.809395
0.809101
0.808806
0.80851
0.808213
0.807914
0.807615
0.807314
0.807013
0.80671
0.806406
0.806101
0.805795
0.805488
0.80518
0.804871
0.804561
0.804249
0.803937
0.803623
0.803308
0.802991
0.802674
0.802355
0.802035
0.801714
0.801392
0.801069
0.800746
0.800422
0.800097
0.799772
0.799447
0.799121
0.798794
0.798466
0.798138
0.797808
0.797477
0.797145
0.796812
0.796478
0.796144
0.795809
0.795474
0.79514
0.794805
0.794472
0.794139
0.793806
0.793472
0.793138
0.7928
0.79246
0.792114
0.791763
0.791404
0.791038
0.790662
0.790277
0.789882
0.789477
0.789062
0.788639
0.788208
0.787769
0.787326
0.786878
0.786429
0.78598
0.785533
0.785091
0.784655
0.784229
0.783815
0.783415
0.783029
0.782661
0.78231
0.781977
0.781662
0.781364
0.781082
0.780815
0.78056
0.780314
0.780076
0.779843
0.779613
0.779381
0.779148
0.77891
0.778666
0.778416
0.778157
0.77789
0.777614
0.77733
0.777038
0.776738
0.776432
0.776119
0.775801
0.775479
0.775153
0.774824
0.774493
0.774161
0.773827
0.773493
0.77316
0.772826
0.772493
0.77216
0.771828
0.771497
0.771166
0.770836
0.770507
0.770179
0.76985
0.769523
0.769195
0.768867
0.76854
0.768212
0.767885
0.767556
0.767228
0.766899
0.76657
0.766241
0.76591
0.765579
0.765248
0.764916
0.764583
0.764249
0.763915
0.76358
0.763244
0.762907
0.76257
0.762232
0.761893
0.761553
0.761212
0.760871
0.760529
0.760185
0.759841
0.759496
0.759151
0.758804
0.758456
0.758108
0.757759
0.757408
0.757057
0.756705
0.756353
0.755999
0.755645
0.75529
0.754934
0.754578
0.754221
0.753864
0.753506
0.753147
0.752787
0.752427
0.752067
0.751705
0.751343
0.750981
0.750618
0.750254
0.74989
0.749525
0.749161
0.748795
0.74843
0.748064
0.747698
0.747332
0.746964
0.746596
0.746227
0.745857
0.745484
0.74511
0.744733
0.744352
0.743969
0.743581
0.743189
0.742792
0.74239
0.741983
0.74157
0.741153
0.74073
0.740303
0.73987
0.739434
0.738994
0.738551
0.738106
0.73766
0.737213
0.736767
0.736323
0.735882
0.735444
0.735012
0.734585
0.734165
0.733753
0.73335
0.732955
0.73257
0.732195
0.731829
0.731473
0.731126
0.730788
0.730457
0.730134
0.729817
0.729504
0.729196
0.72889
0.728586
0.728282
0.727978
0.727672
0.727364
0.727053
0.726739
0.726421
0.726098
0.725772
0.725441
0.725105
0.724766
0.724422
0.724075
0.723724
0.72337
0.723013
0.722654
0.722292
0.721929
0.721564
0.721199
0.720832
0.720464
0.720096
0.719727
0.719359
0.71899
0.718621
0.718252
0.717884
0.717515
0.717146
0.716778
0.716409
0.716041
0.715673
0.715304
0.714936
0.714567
0.714198
0.713829
0.713459
0.713089
0.712719
0.712349
0.711978
0.711606
0.711234
0.710861
0.710488
0.710114
0.709739
0.709364
0.708988
0.708612
0.708234
0.707856
0.707477
0.707098
0.706718
0.706337
0.705955
0.705572
0.705189
0.704804
0.704419
0.704034
0.703647
0.70326
0.702871
0.702482
0.702092
0.701702
0.70131
0.700918
0.700525
0.700132
0.699737
0.699342
0.698946
0.69855
0.698152
0.697754
0.697356
0.696956
0.696557
0.696156
0.695755
0.695353
0.694951
0.694548
0.694144
0.69374
0.693335
0.69293
0.692524
0.692118
0.691712
0.691304
0.690896
0.690488
0.690078
0.689668
0.689257
0.688845
0.688432
0.688018
0.687601
0.687184
0.686764
0.686342
0.685918
0.685491
0.685062
0.68463
0.684195
0.683757
0.683316
0.682871
0.682424
0.681973
0.681519
0.681062
0.680603
0.680141
0.679676
0.67921
0.678743
0.678274
0.677804
0.677335
0.676865
0.676397
0.67593
0.675465
0.675002
0.674542
0.674086
0.673633
0.673185
0.672742
0.672303
0.67187
0.671442
0.67102
0.670603
0.670191
0.669785
0.669384
0.668988
0.668596
0.668207
0.667823
0.667441
0.667061
0.666683
0.666307
0.665931
0.665555
0.665179
0.664802
0.664423
0.664044
0.663662
0.663278
0.662892
0.662503
0.662111
0.661717
0.661321
0.660922
0.66052
0.660115
0.659709
0.6593
0.658889
0.658476
0.658062
0.657645
0.657228
0.656809
0.656389
0.655968
0.655546
0.655123
0.654699
0.654275
0.653851
0.653426
0.653
0.652574
0.652148
0.651721
0.651294
0.650866
0.650439
0.65001
0.649582
0.649153
0.648724
0.648294
0.647863
0.647433
0.647001
0.64657
0.646137
0.645704
0.645271
0.644836
0.644401
0.643966
0.643529
0.643092
0.642655
0.642216
0.641777
0.641337
0.640896
0.640454
0.640012
0.639568
0.639124
0.638679
0.638233
0.637786
0.637338
0.63689
0.63644
0.63599
0.635539
0.635087
0.634634
0.63418
0.633725
0.63327
0.632813
0.632356
0.631898
0.631438
0.630978
0.630518
0.630056
0.629593
0.62913
0.628666
0.628201
0.627735
0.627268
0.626801
0.626332
0.625863
0.625393
0.624923
0.624451
0.623979
0.623506
0.623032
0.622558
0.622082
0.621606
0.62113
0.620652
0.620173
0.619694
0.619213
0.618732
0.61825
0.617766
0.617282
0.616796
0.616308
0.61582
0.61533
0.614838
0.614345
0.613849
0.613352
0.612853
0.612352
0.611849
0.611343
0.610835
0.610325
0.609813
0.609298
0.608781
0.608262
0.60774
0.607217
0.606691
0.606163
0.605634
0.605103
0.60457
0.604037
0.603502
0.602966
0.60243
0.601894
0.601357
0.600821
0.600285
0.59975
0.599216
0.598683
0.598152
0.597623
0.597096
0.596571
0.596048
0.595528
0.595011
0.594496
0.593984
0.593475
0.592969
0.592465
0.591964
0.591466
0.59097
0.590476
0.589984
0.589493
0.589004
0.588516
0.588029
0.587542
0.587056
0.586569
0.586082
0.585595
0.585106
0.584617
0.584126
0.583634
0.583139
0.582644
0.582146
0.581646
0.581144
0.58064
0.580134
0.579625
0.579115
0.578602
0.578087
0.57757
0.577052
0.576531
0.576008
0.575484
0.574958
0.57443
0.573901
0.57337
0.572837
0.572304
0.571769
0.571232
0.570695
0.570156
0.569616
0.569075
0.568533
0.56799
0.567446
0.566901
0.566354
0.565807
0.565258
0.564709
0.564158
0.563607
0.563054
0.5625
0.561945
0.561389
0.560832
0.560273
0.559714
0.559153
0.558591
0.558027
0.557463
0.556897
0.55633
0.555761
0.555191
0.55462
0.554047
0.553473
0.552898
0.552321
0.551743
0.551163
0.550582
0.549999
0.549415
0.548829
0.548242
0.547653
0.547062
0.546471
0.545877
0.545282
0.544685
0.544087
0.543487
0.542886
0.542282
0.541678
0.541071
0.540463
0.539854
0.539242
0.538629
0.538014
0.537398
0.53678
0.53616
0.535538
0.534915
0.53429
0.533664
0.533035
0.532405
0.531773
0.53114
0.530504
0.529867
0.529228
0.528587
0.527945
0.5273
0.526654
0.526006
0.525356
0.524704
0.52405
0.523394
0.522736
0.522076
0.521414
0.520749
0.520083
0.519414
0.518743
0.51807
0.517394
0.516716
0.516035
0.515351
0.514665
0.513976
0.513285
0.51259
0.511893
0.511193
0.51049
0.509784
0.509075
0.508363
0.507648
0.506931
0.50621
0.505486
0.504759
0.504029
0.503297
0.502562
0.501824
0.501083
0.50034
0.499594
0.498847
0.498097
0.497344
0.49659
0.495834
0.495077
0.494318
0.493557
0.492796
0.492033
0.491269
0.490505
0.48974
0.488975
0.488209
0.487444
0.486678
0.485913
0.485148
0.484384
0.483621
0.482858
0.482097
0.481338
0.480579
0.479823
0.479068
0.478316
0.477567
0.476821
0.476078
0.475339
0.474605
0.473875
0.473152
0.472435
0.471726
0.471025
0.470333
0.469652
0.468984
0.468328
0.467688
0.467063
0.466457
0.46587
0.465304
0.46476
0.46424
0.463746
0.463277
0.462836
0.462422
0.462037
0.461681
0.461353
0.461054
0.460782
0.460536
0.460317
0.460122
0.45995
0.4598
0.45967
0.459557
0.459461
0.459379
0.459312
0.459256
0.45921
0.459172
0.459142
0.459118
0.4591
0.459085
0.459073
0.459062
0.459049
0.459031
0.459001
0.458951
0.458857
0.458688
0.458378
0.457824
0.456822
0.455035
0.451854
0.446283
0.436712
0.420891
0.396303
0.361717
0.319583
0.276848
0.24119
0.216159
0.200684
0.191877
0.187092
0.184568
0.183246
0.18257
0.182211
0.182046
0.181928
)
;

boundaryField
{
    inlet
    {
        type            calculated;
        value           uniform 0.805169;
    }
    outlet
    {
        type            calculated;
        value           uniform 0.18193;
    }
    emptyWalls
    {
        type            empty;
    }
}


// ************************************************************************* //
