/*--------------------------------*- C++ -*----------------------------------*\
  =========                 |
  \\      /  F ield         | OpenFOAM: The Open Source CFD Toolbox
   \\    /   O peration     | Website:  https://openfoam.org
    \\  /    A nd           | Version:  9
     \\/     M anipulation  |
\*---------------------------------------------------------------------------*/
FoamFile
{
    format      ascii;
    class       volScalarField;
    location    "24550";
    object      Sa;
}
// * * * * * * * * * * * * * * * * * * * * * * * * * * * * * * * * * * * * * //

dimensions      [0 0 0 0 0 0 0];

internalField   nonuniform List<scalar> 
1000
(
0.549571
0.548702
0.547538
0.546378
0.545215
0.544045
0.542873
0.541694
0.540495
0.539309
0.538075
0.536886
0.535617
0.534439
0.533148
0.531979
0.530709
0.529546
0.52835
0.527225
0.526137
0.525114
0.524156
0.523281
0.52248
0.521766
0.521128
0.520567
0.520071
0.519605
0.519116
0.518116
0.515046
0.503241
0.438367
0.189255
0.0918489
0.0707362
0.0624537
0.0577897
0.0544827
0.0518532
0.0496726
0.0477418
0.0460371
0.0445335
0.0431974
0.0419897
0.0409006
0.0399116
0.0389907
0.0381275
0.0373176
0.0365561
0.03584
0.0351633
0.0345272
0.0339265
0.0333593
0.032822
0.0323144
0.0318326
0.0313755
0.0309412
0.0305275
0.0301341
0.0297582
0.0294007
0.029058
0.0287321
0.0284182
0.0281193
0.0278281
0.0275487
0.0272815
0.0270263
0.0267833
0.0265518
0.0263316
0.0261223
0.0259237
0.0257352
0.0255569
0.0253883
0.0252293
0.0250793
0.0249384
0.0248061
0.0246823
0.0245667
0.0244594
0.0243604
0.0242706
0.0241913
0.0241241
0.0240703
0.024029
0.0239957
0.0239629
0.0239289
0.0238942
0.0238592
0.0238241
0.0237891
0.0237544
0.0237199
0.0236857
0.0236516
0.0236175
0.0235832
0.0235487
0.023514
0.0234793
0.0234446
0.02341
0.0233758
0.0233421
0.0233094
0.0232784
0.0232496
0.0232233
0.0231999
0.0231789
0.0231602
0.023143
0.0231268
0.0231111
0.0230955
0.0230798
0.0230635
0.0230465
0.0230282
0.0230083
0.0229861
0.0229614
0.0229336
0.0229026
0.0228683
0.0228309
0.0227907
0.0227482
0.0227041
0.022659
0.0226135
0.0225684
0.0225241
0.0224811
0.0224397
0.0224002
0.0223626
0.0223269
0.022293
0.0222608
0.0222301
0.0222007
0.0221723
0.0221447
0.0221177
0.0220911
0.0220647
0.0220385
0.0220123
0.0219861
0.0219598
0.0219333
0.0219068
0.0218802
0.0218534
0.0218267
0.0217998
0.021773
0.0217462
0.0217195
0.0216928
0.0216662
0.0216397
0.0216133
0.0215871
0.021561
0.0215351
0.0215093
0.0214837
0.0214583
0.021433
0.0214079
0.021383
0.0213582
0.0213336
0.0213092
0.021285
0.021261
0.0212371
0.0212134
0.0211899
0.0211666
0.0211434
0.0211204
0.0210976
0.0210749
0.0210524
0.02103
0.0210079
0.0209859
0.020964
0.0209424
0.0209209
0.0208996
0.0208785
0.0208576
0.0208368
0.0208162
0.0207957
0.0207754
0.0207551
0.020735
0.020715
0.0206951
0.0206753
0.0206556
0.020636
0.0206166
0.0205973
0.0205782
0.0205592
0.0205403
0.0205216
0.0205031
0.0204846
0.0204662
0.0204479
0.0204296
0.0204113
0.0203931
0.0203748
0.0203566
0.0203385
0.0203205
0.0203028
0.0202854
0.0202685
0.0202521
0.0202364
0.0202214
0.0202073
0.0201939
0.0201815
0.0201699
0.0201591
0.0201491
0.0201398
0.0201312
0.020123
0.0201152
0.0201075
0.0200999
0.0200922
0.020084
0.0200754
0.0200659
0.0200556
0.0200441
0.0200314
0.0200173
0.0200019
0.0199849
0.0199665
0.0199468
0.0199257
0.0199035
0.0198803
0.0198563
0.0198317
0.0198068
0.0197818
0.0197568
0.0197321
0.0197077
0.0196839
0.0196607
0.0196382
0.0196164
0.0195954
0.0195751
0.0195555
0.0195365
0.0195182
0.0195004
0.019483
0.0194661
0.0194495
0.0194331
0.019417
0.019401
0.0193851
0.0193693
0.0193535
0.0193378
0.019322
0.0193062
0.0192904
0.0192745
0.0192587
0.0192427
0.0192268
0.0192108
0.0191949
0.0191789
0.019163
0.019147
0.0191311
0.0191152
0.0190993
0.0190835
0.0190678
0.0190521
0.0190364
0.0190209
0.0190054
0.0189899
0.0189746
0.0189593
0.0189441
0.018929
0.0189139
0.018899
0.0188841
0.0188693
0.0188546
0.01884
0.0188255
0.018811
0.0187967
0.0187824
0.0187682
0.0187541
0.0187401
0.0187262
0.0187124
0.0186986
0.018685
0.0186714
0.018658
0.0186446
0.0186313
0.0186181
0.018605
0.0185919
0.0185789
0.018566
0.0185532
0.0185404
0.0185277
0.0185151
0.0185026
0.0184901
0.0184776
0.0184653
0.018453
0.0184407
0.0184285
0.0184164
0.0184044
0.0183924
0.0183804
0.0183685
0.0183566
0.0183448
0.018333
0.0183213
0.0183095
0.0182979
0.0182863
0.0182747
0.0182633
0.018252
0.0182408
0.0182299
0.0182191
0.0182087
0.0181985
0.0181886
0.0181791
0.01817
0.0181613
0.0181531
0.0181452
0.0181378
0.0181308
0.0181243
0.0181181
0.0181122
0.0181066
0.0181013
0.0180961
0.0180911
0.0180861
0.018081
0.0180758
0.0180704
0.0180646
0.0180585
0.0180519
0.0180448
0.018037
0.0180286
0.0180194
0.0180095
0.0179988
0.0179874
0.0179751
0.0179622
0.0179486
0.0179343
0.0179195
0.0179042
0.0178885
0.0178725
0.0178562
0.0178399
0.0178235
0.0178072
0.0177909
0.0177749
0.0177591
0.0177436
0.0177284
0.0177135
0.017699
0.0176848
0.017671
0.0176575
0.0176443
0.0176315
0.0176189
0.0176066
0.0175945
0.0175826
0.0175709
0.0175593
0.0175478
0.0175364
0.0175252
0.0175139
0.0175027
0.0174916
0.0174804
0.0174693
0.0174582
0.017447
0.0174359
0.0174248
0.0174136
0.0174024
0.0173912
0.0173801
0.0173689
0.0173577
0.0173465
0.0173354
0.0173242
0.0173131
0.017302
0.0172909
0.0172798
0.0172688
0.0172578
0.0172468
0.0172359
0.017225
0.0172142
0.0172034
0.0171926
0.017182
0.0171713
0.0171607
0.0171502
0.0171397
0.0171292
0.0171189
0.0171085
0.0170983
0.017088
0.0170779
0.0170678
0.0170577
0.0170477
0.0170378
0.0170279
0.0170181
0.0170084
0.0169987
0.016989
0.0169795
0.0169699
0.0169604
0.016951
0.0169417
0.0169323
0.0169231
0.0169138
0.0169047
0.0168955
0.0168865
0.0168774
0.0168684
0.0168595
0.0168506
0.0168417
0.0168329
0.0168241
0.0168153
0.0168066
0.0167979
0.0167893
0.0167807
0.0167721
0.0167635
0.016755
0.0167465
0.016738
0.0167296
0.0167213
0.016713
0.0167047
0.0166965
0.0166884
0.0166804
0.0166725
0.0166648
0.0166572
0.0166497
0.0166424
0.0166353
0.0166284
0.0166217
0.0166152
0.016609
0.016603
0.0165973
0.0165918
0.0165865
0.0165815
0.0165767
0.0165721
0.0165676
0.0165634
0.0165593
0.0165553
0.0165513
0.0165474
0.0165436
0.0165396
0.0165356
0.0165315
0.0165272
0.0165226
0.0165179
0.0165128
0.0165074
0.0165016
0.0164955
0.0164889
0.0164819
0.0164744
0.0164665
0.0164581
0.0164493
0.01644
0.0164303
0.0164202
0.0164097
0.0163989
0.0163878
0.0163765
0.0163649
0.0163532
0.0163413
0.0163294
0.0163175
0.0163055
0.0162936
0.0162818
0.0162701
0.0162585
0.0162471
0.0162358
0.0162247
0.0162138
0.0162031
0.0161926
0.0161822
0.0161721
0.0161621
0.0161523
0.0161427
0.0161332
0.0161238
0.0161146
0.0161054
0.0160964
0.0160874
0.0160785
0.0160696
0.0160609
0.0160521
0.0160434
0.0160347
0.016026
0.0160173
0.0160087
0.016
0.0159914
0.0159827
0.0159741
0.0159655
0.0159568
0.0159482
0.0159396
0.015931
0.0159224
0.0159137
0.0159052
0.0158966
0.015888
0.0158794
0.0158709
0.0158624
0.0158539
0.0158454
0.015837
0.0158285
0.0158202
0.0158118
0.0158035
0.0157951
0.0157869
0.0157786
0.0157704
0.0157623
0.0157541
0.015746
0.015738
0.01573
0.015722
0.015714
0.0157061
0.0156983
0.0156904
0.0156827
0.0156749
0.0156672
0.0156595
0.0156519
0.0156443
0.0156367
0.0156292
0.0156217
0.0156143
0.0156069
0.0155995
0.0155922
0.0155849
0.0155776
0.0155704
0.0155632
0.015556
0.0155489
0.0155417
0.0155347
0.0155276
0.0155206
0.0155136
0.0155066
0.0154997
0.0154927
0.0154858
0.0154789
0.0154721
0.0154653
0.0154585
0.0154517
0.0154449
0.0154382
0.0154315
0.0154249
0.0154183
0.0154117
0.0154052
0.0153987
0.0153923
0.015386
0.0153797
0.0153735
0.0153674
0.0153614
0.0153556
0.0153498
0.0153441
0.0153386
0.0153332
0.015328
0.0153229
0.0153179
0.0153131
0.0153084
0.0153039
0.0152995
0.0152953
0.0152912
0.0152872
0.0152833
0.0152796
0.0152759
0.0152723
0.0152688
0.0152653
0.0152618
0.0152583
0.0152548
0.0152512
0.0152476
0.0152439
0.0152401
0.0152361
0.015232
0.0152276
0.0152231
0.0152184
0.0152134
0.0152081
0.0152026
0.0151968
0.0151907
0.0151843
0.0151776
0.0151707
0.0151634
0.0151558
0.015148
0.01514
0.0151316
0.0151231
0.0151143
0.0151054
0.0150963
0.0150871
0.0150778
0.0150684
0.0150589
0.0150494
0.0150398
0.0150303
0.0150208
0.0150114
0.015002
0.0149926
0.0149834
0.0149743
0.0149652
0.0149563
0.0149475
0.0149387
0.0149301
0.0149216
0.0149133
0.014905
0.0148968
0.0148887
0.0148808
0.0148728
0.014865
0.0148573
0.0148496
0.0148419
0.0148344
0.0148268
0.0148193
0.0148119
0.0148044
0.014797
0.0147896
0.0147823
0.0147749
0.0147676
0.0147602
0.0147529
0.0147456
0.0147382
0.0147309
0.0147236
0.0147163
0.014709
0.0147017
0.0146944
0.0146871
0.0146798
0.0146726
0.0146653
0.014658
0.0146508
0.0146435
0.0146363
0.0146291
0.0146219
0.0146147
0.0146075
0.0146003
0.0145932
0.0145861
0.0145789
0.0145719
0.0145648
0.0145577
0.0145507
0.0145437
0.0145367
0.0145298
0.0145228
0.0145159
0.014509
0.0145022
0.0144953
0.0144885
0.0144817
0.014475
0.0144682
0.0144615
0.0144548
0.0144481
0.0144415
0.0144349
0.0144283
0.0144217
0.0144152
0.0144086
0.0144021
0.0143956
0.0143892
0.0143827
0.0143763
0.0143699
0.0143635
0.0143572
0.0143508
0.0143445
0.0143382
0.0143319
0.0143256
0.0143194
0.0143132
0.0143069
0.0143007
0.0142945
0.0142884
0.0142822
0.0142761
0.01427
0.0142639
0.0142578
0.0142518
0.0142458
0.0142398
0.0142338
0.0142279
0.014222
0.0142162
0.0142104
0.0142046
0.0141989
0.0141933
0.0141877
0.0141822
0.0141767
0.0141714
0.0141661
0.0141609
0.0141557
0.0141507
0.0141457
0.0141408
0.0141361
0.0141314
0.0141268
0.0141223
0.0141178
0.0141135
0.0141092
0.0141051
0.014101
0.0140969
0.0140929
0.014089
0.0140851
0.0140812
0.0140774
0.0140735
0.0140697
0.0140658
0.014062
0.014058
0.0140541
0.01405
0.0140459
0.0140417
0.0140374
0.0140329
0.0140284
0.0140237
0.0140188
0.0140138
0.0140086
0.0140033
0.0139977
0.013992
0.0139861
0.01398
0.0139737
0.0139673
0.0139606
0.0139538
0.0139468
0.0139397
0.0139324
0.013925
0.0139174
0.0139098
0.0139021
0.0138943
0.0138865
0.0138786
0.0138708
0.013863
0.0138552
0.0138475
0.0138399
0.0138324
0.013825
0.0138178
0.0138108
0.013804
0.0137973
0.013791
0.0137849
0.013779
0.0137735
0.0137682
0.0137632
0.0137586
0.0137542
0.0137501
0.0137463
0.0137428
0.0137396
0.0137366
0.0137339
0.0137315
0.0137292
0.0137271
0.0137253
0.0137235
0.013722
0.0137206
0.0137193
0.0137181
0.013717
0.0137159
0.013715
0.0137141
0.0137132
0.0137124
0.0137115
0.0137107
0.0137098
0.0137089
0.0137078
0.0137064
0.0137043
0.0137013
0.0136962
0.0136881
0.0136736
0.0136492
0.0136071
0.013538
0.013429
0.0132738
0.0130802
0.0128827
0.0127219
0.0126187
0.0125624
0.0125352
0.0125214
0.0125152
0.0125112
0.0125097
0.012508
0.0125076
0.0125065
0.0125064
)
;

boundaryField
{
    inlet
    {
        type            fixedValue;
        value           uniform 0.55;
    }
    outlet
    {
        type            zeroGradient;
    }
    emptyWalls
    {
        type            empty;
    }
}


// ************************************************************************* //
