/*--------------------------------*- C++ -*----------------------------------*\
  =========                 |
  \\      /  F ield         | OpenFOAM: The Open Source CFD Toolbox
   \\    /   O peration     | Website:  https://openfoam.org
    \\  /    A nd           | Version:  9
     \\/     M anipulation  |
\*---------------------------------------------------------------------------*/
FoamFile
{
    format      ascii;
    class       volVectorField;
    location    "24550";
    object      Uc;
}
// * * * * * * * * * * * * * * * * * * * * * * * * * * * * * * * * * * * * * //

dimensions      [0 0 0 0 0 0 0];

internalField   nonuniform List<vector> 
1000
(
(4.31949e-12 0 0)
(2.21587e-11 0 0)
(6.15959e-11 0 0)
(1.25272e-10 0 0)
(2.12394e-10 0 0)
(3.22678e-10 0 0)
(4.56098e-10 0 0)
(6.12714e-10 0 0)
(7.92629e-10 0 0)
(9.95888e-10 0 0)
(1.22244e-09 0 0)
(1.472e-09 0 0)
(1.74406e-09 0 0)
(2.03772e-09 0 0)
(2.35159e-09 0 0)
(2.68375e-09 0 0)
(3.03143e-09 0 0)
(3.39128e-09 0 0)
(3.75899e-09 0 0)
(4.12953e-09 0 0)
(4.49745e-09 0 0)
(4.85687e-09 0 0)
(5.20227e-09 0 0)
(5.52873e-09 0 0)
(5.8324e-09 0 0)
(6.11079e-09 0 0)
(6.36293e-09 0 0)
(6.58953e-09 0 0)
(6.79428e-09 0 0)
(6.99194e-09 0 0)
(7.24622e-09 0 0)
(7.84674e-09 0 0)
(9.96048e-09 0 0)
(1.83579e-08 0 0)
(6.2843e-08 0 0)
(1.46458e-07 0 0)
(2.00576e-07 0 0)
(2.11675e-07 0 0)
(2.1601e-07 0 0)
(2.18525e-07 0 0)
(2.20372e-07 0 0)
(2.21914e-07 0 0)
(2.23282e-07 0 0)
(2.24565e-07 0 0)
(2.25776e-07 0 0)
(2.26897e-07 0 0)
(2.2795e-07 0 0)
(2.28952e-07 0 0)
(2.29894e-07 0 0)
(2.30786e-07 0 0)
(2.31659e-07 0 0)
(2.32517e-07 0 0)
(2.33361e-07 0 0)
(2.34192e-07 0 0)
(2.35012e-07 0 0)
(2.35822e-07 0 0)
(2.36622e-07 0 0)
(2.37412e-07 0 0)
(2.38195e-07 0 0)
(2.38971e-07 0 0)
(2.3974e-07 0 0)
(2.40504e-07 0 0)
(2.41265e-07 0 0)
(2.42023e-07 0 0)
(2.4278e-07 0 0)
(2.43537e-07 0 0)
(2.44296e-07 0 0)
(2.45057e-07 0 0)
(2.45821e-07 0 0)
(2.46591e-07 0 0)
(2.47368e-07 0 0)
(2.48155e-07 0 0)
(2.4896e-07 0 0)
(2.49783e-07 0 0)
(2.50618e-07 0 0)
(2.51466e-07 0 0)
(2.52329e-07 0 0)
(2.53207e-07 0 0)
(2.54102e-07 0 0)
(2.55016e-07 0 0)
(2.55952e-07 0 0)
(2.56911e-07 0 0)
(2.57897e-07 0 0)
(2.58914e-07 0 0)
(2.59967e-07 0 0)
(2.6106e-07 0 0)
(2.62202e-07 0 0)
(2.63403e-07 0 0)
(2.64676e-07 0 0)
(2.6604e-07 0 0)
(2.67521e-07 0 0)
(2.69149e-07 0 0)
(2.70964e-07 0 0)
(2.73005e-07 0 0)
(2.7531e-07 0 0)
(2.77898e-07 0 0)
(2.80765e-07 0 0)
(2.83877e-07 0 0)
(2.87184e-07 0 0)
(2.90639e-07 0 0)
(2.94205e-07 0 0)
(2.97857e-07 0 0)
(3.01576e-07 0 0)
(3.05349e-07 0 0)
(3.09166e-07 0 0)
(3.1302e-07 0 0)
(3.16905e-07 0 0)
(3.20818e-07 0 0)
(3.24755e-07 0 0)
(3.28715e-07 0 0)
(3.32696e-07 0 0)
(3.36696e-07 0 0)
(3.40713e-07 0 0)
(3.44746e-07 0 0)
(3.48793e-07 0 0)
(3.52853e-07 0 0)
(3.56924e-07 0 0)
(3.61005e-07 0 0)
(3.65092e-07 0 0)
(3.69182e-07 0 0)
(3.73275e-07 0 0)
(3.77368e-07 0 0)
(3.81461e-07 0 0)
(3.85555e-07 0 0)
(3.89653e-07 0 0)
(3.93754e-07 0 0)
(3.97862e-07 0 0)
(4.01977e-07 0 0)
(4.06101e-07 0 0)
(4.10234e-07 0 0)
(4.14378e-07 0 0)
(4.18535e-07 0 0)
(4.22706e-07 0 0)
(4.26894e-07 0 0)
(4.31101e-07 0 0)
(4.35329e-07 0 0)
(4.39579e-07 0 0)
(4.43851e-07 0 0)
(4.48146e-07 0 0)
(4.52463e-07 0 0)
(4.56798e-07 0 0)
(4.6115e-07 0 0)
(4.65516e-07 0 0)
(4.69893e-07 0 0)
(4.74277e-07 0 0)
(4.78666e-07 0 0)
(4.83058e-07 0 0)
(4.8745e-07 0 0)
(4.91842e-07 0 0)
(4.96233e-07 0 0)
(5.00622e-07 0 0)
(5.05009e-07 0 0)
(5.09395e-07 0 0)
(5.13781e-07 0 0)
(5.18167e-07 0 0)
(5.22554e-07 0 0)
(5.26944e-07 0 0)
(5.31337e-07 0 0)
(5.35735e-07 0 0)
(5.40138e-07 0 0)
(5.44546e-07 0 0)
(5.48961e-07 0 0)
(5.53382e-07 0 0)
(5.5781e-07 0 0)
(5.62245e-07 0 0)
(5.66687e-07 0 0)
(5.71136e-07 0 0)
(5.75592e-07 0 0)
(5.80054e-07 0 0)
(5.84523e-07 0 0)
(5.88998e-07 0 0)
(5.93479e-07 0 0)
(5.97966e-07 0 0)
(6.02459e-07 0 0)
(6.06957e-07 0 0)
(6.1146e-07 0 0)
(6.15969e-07 0 0)
(6.20483e-07 0 0)
(6.25002e-07 0 0)
(6.29526e-07 0 0)
(6.34055e-07 0 0)
(6.38589e-07 0 0)
(6.43127e-07 0 0)
(6.4767e-07 0 0)
(6.52218e-07 0 0)
(6.5677e-07 0 0)
(6.61326e-07 0 0)
(6.65887e-07 0 0)
(6.70453e-07 0 0)
(6.75022e-07 0 0)
(6.79596e-07 0 0)
(6.84175e-07 0 0)
(6.88757e-07 0 0)
(6.93343e-07 0 0)
(6.97934e-07 0 0)
(7.02529e-07 0 0)
(7.07127e-07 0 0)
(7.1173e-07 0 0)
(7.16337e-07 0 0)
(7.20948e-07 0 0)
(7.25563e-07 0 0)
(7.30182e-07 0 0)
(7.34804e-07 0 0)
(7.3943e-07 0 0)
(7.4406e-07 0 0)
(7.48694e-07 0 0)
(7.53331e-07 0 0)
(7.57972e-07 0 0)
(7.62616e-07 0 0)
(7.67264e-07 0 0)
(7.71915e-07 0 0)
(7.76571e-07 0 0)
(7.8123e-07 0 0)
(7.85892e-07 0 0)
(7.90559e-07 0 0)
(7.9523e-07 0 0)
(7.99904e-07 0 0)
(8.04582e-07 0 0)
(8.09264e-07 0 0)
(8.1395e-07 0 0)
(8.18639e-07 0 0)
(8.23332e-07 0 0)
(8.28028e-07 0 0)
(8.32727e-07 0 0)
(8.3743e-07 0 0)
(8.42136e-07 0 0)
(8.46845e-07 0 0)
(8.51557e-07 0 0)
(8.56274e-07 0 0)
(8.60994e-07 0 0)
(8.65719e-07 0 0)
(8.70448e-07 0 0)
(8.75181e-07 0 0)
(8.79919e-07 0 0)
(8.84661e-07 0 0)
(8.89406e-07 0 0)
(8.94154e-07 0 0)
(8.98905e-07 0 0)
(9.03655e-07 0 0)
(9.08406e-07 0 0)
(9.13155e-07 0 0)
(9.17902e-07 0 0)
(9.22645e-07 0 0)
(9.27384e-07 0 0)
(9.32117e-07 0 0)
(9.36845e-07 0 0)
(9.41568e-07 0 0)
(9.46285e-07 0 0)
(9.50997e-07 0 0)
(9.55705e-07 0 0)
(9.60409e-07 0 0)
(9.65111e-07 0 0)
(9.69812e-07 0 0)
(9.74513e-07 0 0)
(9.79218e-07 0 0)
(9.83927e-07 0 0)
(9.88644e-07 0 0)
(9.9337e-07 0 0)
(9.98108e-07 0 0)
(1.00286e-06 0 0)
(1.00763e-06 0 0)
(1.01241e-06 0 0)
(1.01722e-06 0 0)
(1.02205e-06 0 0)
(1.0269e-06 0 0)
(1.03177e-06 0 0)
(1.03666e-06 0 0)
(1.04157e-06 0 0)
(1.0465e-06 0 0)
(1.05145e-06 0 0)
(1.05642e-06 0 0)
(1.06139e-06 0 0)
(1.06638e-06 0 0)
(1.07137e-06 0 0)
(1.07637e-06 0 0)
(1.08137e-06 0 0)
(1.08637e-06 0 0)
(1.09137e-06 0 0)
(1.09637e-06 0 0)
(1.10136e-06 0 0)
(1.10635e-06 0 0)
(1.11133e-06 0 0)
(1.11631e-06 0 0)
(1.12128e-06 0 0)
(1.12626e-06 0 0)
(1.13122e-06 0 0)
(1.13619e-06 0 0)
(1.14115e-06 0 0)
(1.14611e-06 0 0)
(1.15107e-06 0 0)
(1.15603e-06 0 0)
(1.161e-06 0 0)
(1.16596e-06 0 0)
(1.17093e-06 0 0)
(1.1759e-06 0 0)
(1.18088e-06 0 0)
(1.18586e-06 0 0)
(1.19084e-06 0 0)
(1.19583e-06 0 0)
(1.20082e-06 0 0)
(1.20582e-06 0 0)
(1.21082e-06 0 0)
(1.21583e-06 0 0)
(1.22084e-06 0 0)
(1.22586e-06 0 0)
(1.23088e-06 0 0)
(1.2359e-06 0 0)
(1.24093e-06 0 0)
(1.24596e-06 0 0)
(1.251e-06 0 0)
(1.25604e-06 0 0)
(1.26109e-06 0 0)
(1.26614e-06 0 0)
(1.27119e-06 0 0)
(1.27624e-06 0 0)
(1.2813e-06 0 0)
(1.28637e-06 0 0)
(1.29143e-06 0 0)
(1.2965e-06 0 0)
(1.30157e-06 0 0)
(1.30665e-06 0 0)
(1.31172e-06 0 0)
(1.31681e-06 0 0)
(1.32189e-06 0 0)
(1.32698e-06 0 0)
(1.33207e-06 0 0)
(1.33716e-06 0 0)
(1.34225e-06 0 0)
(1.34735e-06 0 0)
(1.35245e-06 0 0)
(1.35756e-06 0 0)
(1.36266e-06 0 0)
(1.36777e-06 0 0)
(1.37289e-06 0 0)
(1.378e-06 0 0)
(1.38312e-06 0 0)
(1.38824e-06 0 0)
(1.39336e-06 0 0)
(1.39849e-06 0 0)
(1.40362e-06 0 0)
(1.40875e-06 0 0)
(1.41388e-06 0 0)
(1.41902e-06 0 0)
(1.42416e-06 0 0)
(1.4293e-06 0 0)
(1.43444e-06 0 0)
(1.43959e-06 0 0)
(1.44474e-06 0 0)
(1.44989e-06 0 0)
(1.45504e-06 0 0)
(1.4602e-06 0 0)
(1.46536e-06 0 0)
(1.47053e-06 0 0)
(1.47569e-06 0 0)
(1.48086e-06 0 0)
(1.48603e-06 0 0)
(1.49121e-06 0 0)
(1.49639e-06 0 0)
(1.50157e-06 0 0)
(1.50675e-06 0 0)
(1.51194e-06 0 0)
(1.51713e-06 0 0)
(1.52232e-06 0 0)
(1.52752e-06 0 0)
(1.53271e-06 0 0)
(1.53792e-06 0 0)
(1.54312e-06 0 0)
(1.54833e-06 0 0)
(1.55354e-06 0 0)
(1.55876e-06 0 0)
(1.56398e-06 0 0)
(1.5692e-06 0 0)
(1.57442e-06 0 0)
(1.57965e-06 0 0)
(1.58488e-06 0 0)
(1.59011e-06 0 0)
(1.59533e-06 0 0)
(1.60056e-06 0 0)
(1.60579e-06 0 0)
(1.61101e-06 0 0)
(1.61623e-06 0 0)
(1.62145e-06 0 0)
(1.62666e-06 0 0)
(1.63187e-06 0 0)
(1.63707e-06 0 0)
(1.64227e-06 0 0)
(1.64746e-06 0 0)
(1.65265e-06 0 0)
(1.65783e-06 0 0)
(1.66301e-06 0 0)
(1.66818e-06 0 0)
(1.67335e-06 0 0)
(1.67851e-06 0 0)
(1.68368e-06 0 0)
(1.68884e-06 0 0)
(1.69401e-06 0 0)
(1.69919e-06 0 0)
(1.70437e-06 0 0)
(1.70955e-06 0 0)
(1.71475e-06 0 0)
(1.71996e-06 0 0)
(1.72518e-06 0 0)
(1.73042e-06 0 0)
(1.73568e-06 0 0)
(1.74096e-06 0 0)
(1.74625e-06 0 0)
(1.75157e-06 0 0)
(1.75691e-06 0 0)
(1.76227e-06 0 0)
(1.76766e-06 0 0)
(1.77306e-06 0 0)
(1.77849e-06 0 0)
(1.78394e-06 0 0)
(1.7894e-06 0 0)
(1.79488e-06 0 0)
(1.80038e-06 0 0)
(1.80589e-06 0 0)
(1.81141e-06 0 0)
(1.81694e-06 0 0)
(1.82247e-06 0 0)
(1.82801e-06 0 0)
(1.83355e-06 0 0)
(1.83909e-06 0 0)
(1.84463e-06 0 0)
(1.85017e-06 0 0)
(1.85571e-06 0 0)
(1.86124e-06 0 0)
(1.86677e-06 0 0)
(1.8723e-06 0 0)
(1.87782e-06 0 0)
(1.88334e-06 0 0)
(1.88886e-06 0 0)
(1.89437e-06 0 0)
(1.89988e-06 0 0)
(1.90539e-06 0 0)
(1.9109e-06 0 0)
(1.91641e-06 0 0)
(1.92192e-06 0 0)
(1.92743e-06 0 0)
(1.93294e-06 0 0)
(1.93845e-06 0 0)
(1.94397e-06 0 0)
(1.94949e-06 0 0)
(1.95501e-06 0 0)
(1.96054e-06 0 0)
(1.96607e-06 0 0)
(1.9716e-06 0 0)
(1.97714e-06 0 0)
(1.98269e-06 0 0)
(1.98824e-06 0 0)
(1.99379e-06 0 0)
(1.99935e-06 0 0)
(2.00492e-06 0 0)
(2.01049e-06 0 0)
(2.01606e-06 0 0)
(2.02164e-06 0 0)
(2.02723e-06 0 0)
(2.03281e-06 0 0)
(2.03841e-06 0 0)
(2.04401e-06 0 0)
(2.04961e-06 0 0)
(2.05522e-06 0 0)
(2.06083e-06 0 0)
(2.06644e-06 0 0)
(2.07206e-06 0 0)
(2.07769e-06 0 0)
(2.08331e-06 0 0)
(2.08894e-06 0 0)
(2.09458e-06 0 0)
(2.10022e-06 0 0)
(2.10586e-06 0 0)
(2.11151e-06 0 0)
(2.11716e-06 0 0)
(2.12281e-06 0 0)
(2.12847e-06 0 0)
(2.13413e-06 0 0)
(2.13979e-06 0 0)
(2.14546e-06 0 0)
(2.15113e-06 0 0)
(2.1568e-06 0 0)
(2.16248e-06 0 0)
(2.16816e-06 0 0)
(2.17384e-06 0 0)
(2.17953e-06 0 0)
(2.18522e-06 0 0)
(2.19091e-06 0 0)
(2.19661e-06 0 0)
(2.2023e-06 0 0)
(2.20801e-06 0 0)
(2.21371e-06 0 0)
(2.21942e-06 0 0)
(2.22514e-06 0 0)
(2.23085e-06 0 0)
(2.23657e-06 0 0)
(2.24229e-06 0 0)
(2.24802e-06 0 0)
(2.25375e-06 0 0)
(2.25948e-06 0 0)
(2.26522e-06 0 0)
(2.27096e-06 0 0)
(2.2767e-06 0 0)
(2.28245e-06 0 0)
(2.2882e-06 0 0)
(2.29395e-06 0 0)
(2.29971e-06 0 0)
(2.30547e-06 0 0)
(2.31123e-06 0 0)
(2.317e-06 0 0)
(2.32277e-06 0 0)
(2.32855e-06 0 0)
(2.33433e-06 0 0)
(2.34011e-06 0 0)
(2.3459e-06 0 0)
(2.35169e-06 0 0)
(2.35749e-06 0 0)
(2.36329e-06 0 0)
(2.3691e-06 0 0)
(2.3749e-06 0 0)
(2.38072e-06 0 0)
(2.38653e-06 0 0)
(2.39235e-06 0 0)
(2.39818e-06 0 0)
(2.404e-06 0 0)
(2.40983e-06 0 0)
(2.41567e-06 0 0)
(2.4215e-06 0 0)
(2.42734e-06 0 0)
(2.43318e-06 0 0)
(2.43901e-06 0 0)
(2.44485e-06 0 0)
(2.45069e-06 0 0)
(2.45653e-06 0 0)
(2.46237e-06 0 0)
(2.4682e-06 0 0)
(2.47403e-06 0 0)
(2.47986e-06 0 0)
(2.48569e-06 0 0)
(2.49151e-06 0 0)
(2.49732e-06 0 0)
(2.50314e-06 0 0)
(2.50895e-06 0 0)
(2.51475e-06 0 0)
(2.52056e-06 0 0)
(2.52636e-06 0 0)
(2.53215e-06 0 0)
(2.53795e-06 0 0)
(2.54375e-06 0 0)
(2.54954e-06 0 0)
(2.55534e-06 0 0)
(2.56114e-06 0 0)
(2.56695e-06 0 0)
(2.57276e-06 0 0)
(2.57858e-06 0 0)
(2.58441e-06 0 0)
(2.59025e-06 0 0)
(2.5961e-06 0 0)
(2.60197e-06 0 0)
(2.60785e-06 0 0)
(2.61376e-06 0 0)
(2.61968e-06 0 0)
(2.62562e-06 0 0)
(2.63158e-06 0 0)
(2.63756e-06 0 0)
(2.64357e-06 0 0)
(2.6496e-06 0 0)
(2.65566e-06 0 0)
(2.66174e-06 0 0)
(2.66784e-06 0 0)
(2.67397e-06 0 0)
(2.68012e-06 0 0)
(2.68629e-06 0 0)
(2.69247e-06 0 0)
(2.69868e-06 0 0)
(2.70491e-06 0 0)
(2.71115e-06 0 0)
(2.7174e-06 0 0)
(2.72366e-06 0 0)
(2.72994e-06 0 0)
(2.73622e-06 0 0)
(2.74251e-06 0 0)
(2.74881e-06 0 0)
(2.75511e-06 0 0)
(2.76141e-06 0 0)
(2.76771e-06 0 0)
(2.77402e-06 0 0)
(2.78032e-06 0 0)
(2.78663e-06 0 0)
(2.79293e-06 0 0)
(2.79923e-06 0 0)
(2.80553e-06 0 0)
(2.81183e-06 0 0)
(2.81813e-06 0 0)
(2.82443e-06 0 0)
(2.83073e-06 0 0)
(2.83703e-06 0 0)
(2.84333e-06 0 0)
(2.84963e-06 0 0)
(2.85594e-06 0 0)
(2.86224e-06 0 0)
(2.86855e-06 0 0)
(2.87486e-06 0 0)
(2.88118e-06 0 0)
(2.8875e-06 0 0)
(2.89382e-06 0 0)
(2.90015e-06 0 0)
(2.90649e-06 0 0)
(2.91283e-06 0 0)
(2.91917e-06 0 0)
(2.92553e-06 0 0)
(2.93189e-06 0 0)
(2.93825e-06 0 0)
(2.94463e-06 0 0)
(2.95101e-06 0 0)
(2.95739e-06 0 0)
(2.96379e-06 0 0)
(2.97019e-06 0 0)
(2.9766e-06 0 0)
(2.98301e-06 0 0)
(2.98943e-06 0 0)
(2.99586e-06 0 0)
(3.0023e-06 0 0)
(3.00874e-06 0 0)
(3.01519e-06 0 0)
(3.02165e-06 0 0)
(3.02811e-06 0 0)
(3.03458e-06 0 0)
(3.04106e-06 0 0)
(3.04754e-06 0 0)
(3.05403e-06 0 0)
(3.06052e-06 0 0)
(3.06702e-06 0 0)
(3.07353e-06 0 0)
(3.08004e-06 0 0)
(3.08656e-06 0 0)
(3.09309e-06 0 0)
(3.09962e-06 0 0)
(3.10616e-06 0 0)
(3.1127e-06 0 0)
(3.11925e-06 0 0)
(3.12581e-06 0 0)
(3.13237e-06 0 0)
(3.13894e-06 0 0)
(3.14551e-06 0 0)
(3.15209e-06 0 0)
(3.15867e-06 0 0)
(3.16526e-06 0 0)
(3.17186e-06 0 0)
(3.17846e-06 0 0)
(3.18507e-06 0 0)
(3.19169e-06 0 0)
(3.19831e-06 0 0)
(3.20493e-06 0 0)
(3.21157e-06 0 0)
(3.2182e-06 0 0)
(3.22485e-06 0 0)
(3.2315e-06 0 0)
(3.23816e-06 0 0)
(3.24482e-06 0 0)
(3.25149e-06 0 0)
(3.25817e-06 0 0)
(3.26485e-06 0 0)
(3.27154e-06 0 0)
(3.27823e-06 0 0)
(3.28493e-06 0 0)
(3.29164e-06 0 0)
(3.29835e-06 0 0)
(3.30508e-06 0 0)
(3.3118e-06 0 0)
(3.31854e-06 0 0)
(3.32528e-06 0 0)
(3.33203e-06 0 0)
(3.33878e-06 0 0)
(3.34555e-06 0 0)
(3.35232e-06 0 0)
(3.35909e-06 0 0)
(3.36588e-06 0 0)
(3.37267e-06 0 0)
(3.37947e-06 0 0)
(3.38627e-06 0 0)
(3.39308e-06 0 0)
(3.39991e-06 0 0)
(3.40673e-06 0 0)
(3.41357e-06 0 0)
(3.42041e-06 0 0)
(3.42726e-06 0 0)
(3.43411e-06 0 0)
(3.44097e-06 0 0)
(3.44784e-06 0 0)
(3.45471e-06 0 0)
(3.46159e-06 0 0)
(3.46848e-06 0 0)
(3.47537e-06 0 0)
(3.48226e-06 0 0)
(3.48916e-06 0 0)
(3.49606e-06 0 0)
(3.50296e-06 0 0)
(3.50987e-06 0 0)
(3.51678e-06 0 0)
(3.52369e-06 0 0)
(3.5306e-06 0 0)
(3.53752e-06 0 0)
(3.54443e-06 0 0)
(3.55134e-06 0 0)
(3.55826e-06 0 0)
(3.56518e-06 0 0)
(3.57209e-06 0 0)
(3.57901e-06 0 0)
(3.58593e-06 0 0)
(3.59285e-06 0 0)
(3.59977e-06 0 0)
(3.6067e-06 0 0)
(3.61362e-06 0 0)
(3.62055e-06 0 0)
(3.62749e-06 0 0)
(3.63443e-06 0 0)
(3.64138e-06 0 0)
(3.64833e-06 0 0)
(3.6553e-06 0 0)
(3.66228e-06 0 0)
(3.66926e-06 0 0)
(3.67626e-06 0 0)
(3.68328e-06 0 0)
(3.69031e-06 0 0)
(3.69736e-06 0 0)
(3.70443e-06 0 0)
(3.71153e-06 0 0)
(3.71864e-06 0 0)
(3.72578e-06 0 0)
(3.73294e-06 0 0)
(3.74012e-06 0 0)
(3.74734e-06 0 0)
(3.75458e-06 0 0)
(3.76185e-06 0 0)
(3.76915e-06 0 0)
(3.77648e-06 0 0)
(3.78384e-06 0 0)
(3.79123e-06 0 0)
(3.79864e-06 0 0)
(3.80609e-06 0 0)
(3.81356e-06 0 0)
(3.82106e-06 0 0)
(3.82859e-06 0 0)
(3.83614e-06 0 0)
(3.84371e-06 0 0)
(3.85131e-06 0 0)
(3.85893e-06 0 0)
(3.86657e-06 0 0)
(3.87422e-06 0 0)
(3.8819e-06 0 0)
(3.88958e-06 0 0)
(3.89729e-06 0 0)
(3.905e-06 0 0)
(3.91273e-06 0 0)
(3.92047e-06 0 0)
(3.92821e-06 0 0)
(3.93597e-06 0 0)
(3.94373e-06 0 0)
(3.9515e-06 0 0)
(3.95928e-06 0 0)
(3.96706e-06 0 0)
(3.97485e-06 0 0)
(3.98265e-06 0 0)
(3.99045e-06 0 0)
(3.99826e-06 0 0)
(4.00607e-06 0 0)
(4.01389e-06 0 0)
(4.02172e-06 0 0)
(4.02956e-06 0 0)
(4.0374e-06 0 0)
(4.04525e-06 0 0)
(4.05311e-06 0 0)
(4.06098e-06 0 0)
(4.06886e-06 0 0)
(4.07675e-06 0 0)
(4.08465e-06 0 0)
(4.09256e-06 0 0)
(4.10048e-06 0 0)
(4.10842e-06 0 0)
(4.11636e-06 0 0)
(4.12432e-06 0 0)
(4.13229e-06 0 0)
(4.14028e-06 0 0)
(4.14828e-06 0 0)
(4.15629e-06 0 0)
(4.16432e-06 0 0)
(4.17237e-06 0 0)
(4.18042e-06 0 0)
(4.1885e-06 0 0)
(4.19658e-06 0 0)
(4.20468e-06 0 0)
(4.2128e-06 0 0)
(4.22093e-06 0 0)
(4.22908e-06 0 0)
(4.23725e-06 0 0)
(4.24543e-06 0 0)
(4.25362e-06 0 0)
(4.26183e-06 0 0)
(4.27006e-06 0 0)
(4.2783e-06 0 0)
(4.28655e-06 0 0)
(4.29483e-06 0 0)
(4.30312e-06 0 0)
(4.31142e-06 0 0)
(4.31974e-06 0 0)
(4.32807e-06 0 0)
(4.33643e-06 0 0)
(4.34479e-06 0 0)
(4.35318e-06 0 0)
(4.36158e-06 0 0)
(4.36999e-06 0 0)
(4.37842e-06 0 0)
(4.38687e-06 0 0)
(4.39533e-06 0 0)
(4.40381e-06 0 0)
(4.41231e-06 0 0)
(4.42082e-06 0 0)
(4.42935e-06 0 0)
(4.43789e-06 0 0)
(4.44646e-06 0 0)
(4.45503e-06 0 0)
(4.46363e-06 0 0)
(4.47224e-06 0 0)
(4.48087e-06 0 0)
(4.48952e-06 0 0)
(4.49818e-06 0 0)
(4.50686e-06 0 0)
(4.51556e-06 0 0)
(4.52427e-06 0 0)
(4.53301e-06 0 0)
(4.54176e-06 0 0)
(4.55053e-06 0 0)
(4.55931e-06 0 0)
(4.56812e-06 0 0)
(4.57694e-06 0 0)
(4.58579e-06 0 0)
(4.59465e-06 0 0)
(4.60353e-06 0 0)
(4.61243e-06 0 0)
(4.62135e-06 0 0)
(4.63029e-06 0 0)
(4.63925e-06 0 0)
(4.64822e-06 0 0)
(4.65722e-06 0 0)
(4.66624e-06 0 0)
(4.67528e-06 0 0)
(4.68434e-06 0 0)
(4.69342e-06 0 0)
(4.70252e-06 0 0)
(4.71164e-06 0 0)
(4.72079e-06 0 0)
(4.72995e-06 0 0)
(4.73914e-06 0 0)
(4.74835e-06 0 0)
(4.75758e-06 0 0)
(4.76683e-06 0 0)
(4.77611e-06 0 0)
(4.78541e-06 0 0)
(4.79473e-06 0 0)
(4.80407e-06 0 0)
(4.81344e-06 0 0)
(4.82282e-06 0 0)
(4.83223e-06 0 0)
(4.84167e-06 0 0)
(4.85112e-06 0 0)
(4.8606e-06 0 0)
(4.8701e-06 0 0)
(4.87962e-06 0 0)
(4.88916e-06 0 0)
(4.89872e-06 0 0)
(4.90831e-06 0 0)
(4.91792e-06 0 0)
(4.92755e-06 0 0)
(4.93719e-06 0 0)
(4.94686e-06 0 0)
(4.95655e-06 0 0)
(4.96626e-06 0 0)
(4.97599e-06 0 0)
(4.98574e-06 0 0)
(4.99551e-06 0 0)
(5.0053e-06 0 0)
(5.01511e-06 0 0)
(5.02494e-06 0 0)
(5.03479e-06 0 0)
(5.04467e-06 0 0)
(5.05456e-06 0 0)
(5.06447e-06 0 0)
(5.07441e-06 0 0)
(5.08436e-06 0 0)
(5.09434e-06 0 0)
(5.10434e-06 0 0)
(5.11437e-06 0 0)
(5.12442e-06 0 0)
(5.1345e-06 0 0)
(5.1446e-06 0 0)
(5.15473e-06 0 0)
(5.16489e-06 0 0)
(5.17507e-06 0 0)
(5.18529e-06 0 0)
(5.19554e-06 0 0)
(5.20583e-06 0 0)
(5.21615e-06 0 0)
(5.2265e-06 0 0)
(5.23689e-06 0 0)
(5.24731e-06 0 0)
(5.25777e-06 0 0)
(5.26828e-06 0 0)
(5.27882e-06 0 0)
(5.2894e-06 0 0)
(5.30002e-06 0 0)
(5.31068e-06 0 0)
(5.32138e-06 0 0)
(5.33212e-06 0 0)
(5.3429e-06 0 0)
(5.35372e-06 0 0)
(5.36457e-06 0 0)
(5.37546e-06 0 0)
(5.38638e-06 0 0)
(5.39732e-06 0 0)
(5.4083e-06 0 0)
(5.41929e-06 0 0)
(5.4303e-06 0 0)
(5.44132e-06 0 0)
(5.45234e-06 0 0)
(5.46335e-06 0 0)
(5.47435e-06 0 0)
(5.48534e-06 0 0)
(5.49628e-06 0 0)
(5.50719e-06 0 0)
(5.51803e-06 0 0)
(5.52879e-06 0 0)
(5.53947e-06 0 0)
(5.55004e-06 0 0)
(5.56048e-06 0 0)
(5.57078e-06 0 0)
(5.58091e-06 0 0)
(5.59085e-06 0 0)
(5.60057e-06 0 0)
(5.61006e-06 0 0)
(5.61928e-06 0 0)
(5.62822e-06 0 0)
(5.63685e-06 0 0)
(5.64514e-06 0 0)
(5.65307e-06 0 0)
(5.66063e-06 0 0)
(5.66779e-06 0 0)
(5.67456e-06 0 0)
(5.6809e-06 0 0)
(5.68683e-06 0 0)
(5.69232e-06 0 0)
(5.69738e-06 0 0)
(5.70203e-06 0 0)
(5.70626e-06 0 0)
(5.7101e-06 0 0)
(5.71355e-06 0 0)
(5.71664e-06 0 0)
(5.71938e-06 0 0)
(5.7218e-06 0 0)
(5.72392e-06 0 0)
(5.72578e-06 0 0)
(5.72739e-06 0 0)
(5.72878e-06 0 0)
(5.72996e-06 0 0)
(5.73098e-06 0 0)
(5.73184e-06 0 0)
(5.73257e-06 0 0)
(5.7332e-06 0 0)
(5.73372e-06 0 0)
(5.73417e-06 0 0)
(5.73455e-06 0 0)
(5.7349e-06 0 0)
(5.73524e-06 0 0)
(5.73561e-06 0 0)
(5.73606e-06 0 0)
(5.73669e-06 0 0)
(5.73766e-06 0 0)
(5.73929e-06 0 0)
(5.74212e-06 0 0)
(5.7471e-06 0 0)
(5.75597e-06 0 0)
(5.77175e-06 0 0)
(5.79978e-06 0 0)
(5.8492e-06 0 0)
(5.93509e-06 0 0)
(6.08051e-06 0 0)
(6.31611e-06 0 0)
(6.67213e-06 0 0)
(7.15762e-06 0 0)
(7.73484e-06 0 0)
(8.31779e-06 0 0)
(8.81367e-06 0 0)
(9.17368e-06 0 0)
(9.40371e-06 0 0)
(9.53804e-06 0 0)
(9.61216e-06 0 0)
(9.65176e-06 0 0)
(9.67256e-06 0 0)
(9.68341e-06 0 0)
(9.68904e-06 0 0)
(9.69201e-06 0 0)
(9.69353e-06 0 0)
)
;

boundaryField
{
    inlet
    {
        type            fixedValue;
        value           uniform (0 0 0);
    }
    outlet
    {
        type            zeroGradient;
    }
    emptyWalls
    {
        type            empty;
    }
}


// ************************************************************************* //
