/*--------------------------------*- C++ -*----------------------------------*\
  =========                 |
  \\      /  F ield         | OpenFOAM: The Open Source CFD Toolbox
   \\    /   O peration     | Website:  https://openfoam.org
    \\  /    A nd           | Version:  9
     \\/     M anipulation  |
\*---------------------------------------------------------------------------*/
FoamFile
{
    format      ascii;
    class       volScalarField;
    location    "23050";
    object      krc;
}
// * * * * * * * * * * * * * * * * * * * * * * * * * * * * * * * * * * * * * //

dimensions      [0 0 0 0 0 0 0];

internalField   nonuniform List<scalar> 
1000
(
8.51623e-08
7.81018e-07
2.77511e-06
5.98384e-06
1.03887e-05
1.59951e-05
2.28228e-05
3.08918e-05
4.02258e-05
5.08421e-05
6.27494e-05
7.594e-05
9.03862e-05
0.000106031
0.000122778
0.00014049
0.000158968
0.00017797
0.00019719
0.0002163
0.000234947
0.000252804
0.00026959
0.000285099
0.000299214
0.00031192
0.000323349
0.000334076
0.000346621
0.000372792
0.000466569
0.000918893
0.00577176
0.0316779
0.0417521
0.0448842
0.0463762
0.0473138
0.0480071
0.0485732
0.0490608
0.0494971
0.0498947
0.0502638
0.0506085
0.0509344
0.0512427
0.0515368
0.0518174
0.0520867
0.0523449
0.0525941
0.0528342
0.0530669
0.0532923
0.0535118
0.0537252
0.053934
0.0541381
0.0543385
0.0545355
0.0547299
0.0549216
0.0551117
0.0552999
0.0554873
0.0556741
0.0558615
0.0560522
0.0562435
0.0564358
0.0566291
0.0568236
0.0570196
0.0572177
0.0574182
0.0576218
0.0578291
0.0580409
0.0582583
0.0584825
0.0587154
0.0589594
0.0592176
0.0594947
0.0597963
0.0601294
0.0605019
0.0609207
0.0613901
0.0619091
0.0624712
0.0630662
0.0636851
0.0643211
0.0649694
0.0656268
0.0662907
0.0669594
0.0676316
0.0683063
0.0689826
0.06966
0.070338
0.0710163
0.0716947
0.0723728
0.0730504
0.0737275
0.0744039
0.0750795
0.0757541
0.0764279
0.0771006
0.0777722
0.0784428
0.0791122
0.0797804
0.0804475
0.0811133
0.0817778
0.0824411
0.083103
0.0837635
0.0844226
0.0850804
0.0857367
0.0863916
0.0870451
0.0876971
0.0883477
0.0889968
0.0896446
0.0902908
0.0909357
0.0915791
0.0922212
0.0928618
0.093501
0.0941388
0.0947753
0.0954103
0.096044
0.0966763
0.0973072
0.0979367
0.0985649
0.0991917
0.0998171
0.100441
0.101064
0.101685
0.102305
0.102924
0.103541
0.104157
0.104772
0.105386
0.105998
0.106608
0.107218
0.107826
0.108433
0.109038
0.109643
0.110246
0.110848
0.111448
0.112047
0.112645
0.113242
0.113838
0.114432
0.115025
0.115617
0.116207
0.116797
0.117385
0.117972
0.118558
0.119143
0.119726
0.120308
0.120889
0.121469
0.122048
0.122626
0.123202
0.123778
0.124352
0.124925
0.125497
0.126068
0.126638
0.127206
0.127774
0.128341
0.128906
0.12947
0.130034
0.130596
0.131157
0.131717
0.132276
0.132834
0.133391
0.133947
0.134502
0.135056
0.135608
0.13616
0.136711
0.137261
0.13781
0.138358
0.138905
0.13945
0.139995
0.140539
0.141082
0.141624
0.142165
0.142705
0.143243
0.143781
0.144318
0.144854
0.145389
0.145923
0.146456
0.146988
0.147519
0.14805
0.148579
0.149108
0.149636
0.150162
0.150689
0.151214
0.151739
0.152262
0.152785
0.153308
0.153829
0.15435
0.15487
0.15539
0.155908
0.156426
0.156943
0.157459
0.157975
0.158489
0.159003
0.159516
0.160028
0.16054
0.16105
0.16156
0.162069
0.162577
0.163084
0.16359
0.164096
0.164601
0.165105
0.165608
0.166111
0.166613
0.167114
0.167614
0.168114
0.168613
0.169111
0.169608
0.170105
0.170601
0.171097
0.171592
0.172086
0.172579
0.173072
0.173564
0.174055
0.174546
0.175036
0.175525
0.176014
0.176502
0.176989
0.177476
0.177962
0.178447
0.178932
0.179416
0.1799
0.180383
0.180865
0.181347
0.181828
0.182308
0.182788
0.183267
0.183746
0.184223
0.184701
0.185178
0.185654
0.186129
0.186604
0.187078
0.187552
0.188025
0.188498
0.18897
0.189442
0.189912
0.190383
0.190853
0.191322
0.19179
0.192258
0.192726
0.193193
0.193659
0.194125
0.194591
0.195055
0.19552
0.195983
0.196447
0.196909
0.197372
0.197833
0.198294
0.198755
0.199215
0.199675
0.200134
0.200593
0.201051
0.201508
0.201966
0.202422
0.202878
0.203334
0.203789
0.204244
0.204698
0.205152
0.205605
0.206058
0.206511
0.206962
0.207414
0.207865
0.208315
0.208765
0.209215
0.209664
0.210112
0.21056
0.211007
0.211454
0.211901
0.212347
0.212792
0.213237
0.213682
0.214126
0.21457
0.215013
0.215456
0.215898
0.21634
0.216782
0.217223
0.217664
0.218105
0.218545
0.218985
0.219425
0.219864
0.220303
0.220742
0.221181
0.221619
0.222057
0.222495
0.222933
0.22337
0.223807
0.224244
0.22468
0.225117
0.225552
0.225988
0.226423
0.226857
0.227292
0.227726
0.228159
0.228593
0.229025
0.229458
0.22989
0.230321
0.230753
0.231184
0.231614
0.232044
0.232474
0.232904
0.233333
0.233762
0.23419
0.234618
0.235046
0.235474
0.235901
0.236328
0.236755
0.237181
0.237607
0.238033
0.238458
0.238884
0.239309
0.239733
0.240158
0.240582
0.241006
0.241429
0.241853
0.242276
0.242698
0.243121
0.243543
0.243965
0.244387
0.244808
0.24523
0.24565
0.246071
0.246492
0.246912
0.247332
0.247751
0.248171
0.24859
0.249009
0.249428
0.249846
0.250264
0.250682
0.2511
0.251518
0.251935
0.252352
0.252769
0.253186
0.253602
0.254018
0.254434
0.25485
0.255265
0.255681
0.256096
0.256511
0.256925
0.25734
0.257754
0.258168
0.258582
0.258996
0.259409
0.259823
0.260236
0.260649
0.261061
0.261474
0.261886
0.262298
0.26271
0.263122
0.263534
0.263945
0.264356
0.264767
0.265178
0.265589
0.266
0.26641
0.26682
0.267231
0.26764
0.26805
0.26846
0.268869
0.269279
0.269688
0.270097
0.270506
0.270915
0.271323
0.271732
0.27214
0.272548
0.272956
0.273364
0.273771
0.274179
0.274586
0.274993
0.2754
0.275806
0.276213
0.276619
0.277026
0.277432
0.277837
0.278243
0.278649
0.279054
0.279459
0.279864
0.28027
0.280674
0.281079
0.281484
0.281889
0.282293
0.282698
0.283103
0.283507
0.283912
0.284316
0.284721
0.285126
0.28553
0.285935
0.28634
0.286745
0.28715
0.287554
0.28796
0.288365
0.28877
0.289175
0.28958
0.289985
0.290391
0.290796
0.291201
0.291607
0.292012
0.292417
0.292822
0.293227
0.293633
0.294038
0.294443
0.294848
0.295252
0.295657
0.296062
0.296467
0.296871
0.297276
0.29768
0.298085
0.298489
0.298893
0.299298
0.299702
0.300106
0.300511
0.300915
0.301319
0.301723
0.302128
0.302532
0.302936
0.30334
0.303745
0.304149
0.304553
0.304958
0.305362
0.305767
0.306171
0.306576
0.30698
0.307385
0.30779
0.308194
0.308599
0.309004
0.309409
0.309814
0.310219
0.310624
0.311029
0.311434
0.311839
0.312244
0.31265
0.313055
0.313461
0.313866
0.314272
0.314678
0.315084
0.315489
0.315895
0.316301
0.316708
0.317114
0.31752
0.317927
0.318333
0.31874
0.319146
0.319553
0.31996
0.320367
0.320774
0.321181
0.321589
0.321996
0.322404
0.322811
0.323219
0.323627
0.324035
0.324443
0.324852
0.32526
0.325669
0.326078
0.326486
0.326895
0.327305
0.327714
0.328123
0.328533
0.328943
0.329353
0.329763
0.330173
0.330584
0.330994
0.331405
0.331816
0.332227
0.332638
0.33305
0.333462
0.333874
0.334286
0.334698
0.335111
0.335523
0.335936
0.336349
0.336763
0.337176
0.33759
0.338004
0.338418
0.338832
0.339247
0.339662
0.340077
0.340492
0.340907
0.341323
0.341739
0.342155
0.342571
0.342987
0.343404
0.343821
0.344238
0.344655
0.345073
0.345491
0.345909
0.346327
0.346745
0.347164
0.347583
0.348003
0.348422
0.348842
0.349262
0.349683
0.350103
0.350525
0.350946
0.351368
0.351791
0.352213
0.352636
0.35306
0.353484
0.353909
0.354334
0.354759
0.355185
0.355611
0.356038
0.356466
0.356894
0.357323
0.357752
0.358181
0.358611
0.359042
0.359473
0.359905
0.360337
0.36077
0.361204
0.361637
0.362072
0.362507
0.362942
0.363378
0.363814
0.364251
0.364688
0.365126
0.365564
0.366003
0.366442
0.366882
0.367322
0.367762
0.368203
0.368645
0.369087
0.369529
0.369972
0.370416
0.37086
0.371305
0.37175
0.372195
0.372642
0.373088
0.373536
0.373984
0.374432
0.374881
0.375331
0.375781
0.376232
0.376684
0.377136
0.377589
0.378043
0.378497
0.378952
0.379407
0.379864
0.380321
0.380778
0.381237
0.381696
0.382156
0.382616
0.383078
0.38354
0.384003
0.384466
0.384931
0.385396
0.385862
0.386328
0.386796
0.387264
0.387734
0.388204
0.388674
0.389146
0.389619
0.390092
0.390566
0.391042
0.391518
0.391995
0.392473
0.392951
0.393431
0.393912
0.394393
0.394876
0.395359
0.395844
0.396329
0.396816
0.397303
0.397792
0.398281
0.398772
0.399264
0.399757
0.40025
0.400745
0.401241
0.401738
0.402236
0.402736
0.403236
0.403738
0.404241
0.404744
0.40525
0.405756
0.406263
0.406772
0.407282
0.407794
0.408306
0.40882
0.409335
0.409851
0.410369
0.410888
0.411408
0.41193
0.412453
0.412977
0.413503
0.41403
0.414558
0.415088
0.415619
0.416151
0.416685
0.41722
0.417757
0.418294
0.418834
0.419374
0.419916
0.420459
0.421003
0.421549
0.422096
0.422644
0.423193
0.423743
0.424293
0.424845
0.425398
0.425951
0.426505
0.427059
0.427614
0.428168
0.428723
0.429277
0.42983
0.430382
0.430933
0.431482
0.432029
0.432573
0.433114
0.433651
0.434182
0.434709
0.435229
0.435741
0.436245
0.43674
0.437224
0.437696
0.438155
0.438599
0.439028
0.439441
0.439835
0.440211
0.440567
0.440901
0.441215
0.441508
0.441779
0.442028
0.442255
0.442462
0.442648
0.442815
0.442963
0.443094
0.443209
0.443309
0.443395
0.44347
0.443533
0.443587
0.443633
0.443671
0.443703
0.443729
0.443752
0.443773
0.443792
0.443811
0.443834
0.443866
0.443916
0.444001
0.444148
0.444408
0.444871
0.445696
0.447164
0.449754
0.454258
0.461885
0.474242
0.492879
0.518132
0.547712
0.576804
0.600675
0.617364
0.627698
0.633601
0.636814
0.638517
0.639406
0.639867
0.640106
0.64023
0.640294
0.640327
0.640345
0.640355
0.640361
0.640364
0.640366
0.640368
0.64037
0.640371
0.640373
0.640374
0.640375
0.640376
0.640378
0.640379
0.64038
0.640382
0.640383
0.640384
0.640386
0.640387
0.640388
0.64039
0.640391
0.640392
0.640394
0.640395
0.640397
0.640398
0.640399
0.640401
0.640402
0.640403
0.640405
0.640406
0.640407
0.640408
0.64041
0.640411
0.640412
0.640413
0.640414
0.640415
0.640416
0.640417
0.640418
0.640419
0.64042
0.640421
0.640422
0.640423
0.640424
0.640424
0.640425
0.640426
0.640426
0.640427
0.640427
0.640428
0.640428
)
;

boundaryField
{
    inlet
    {
        type            calculated;
        value           uniform 3.08149e-33;
    }
    outlet
    {
        type            calculated;
        value           uniform 0.640428;
    }
    emptyWalls
    {
        type            empty;
    }
}


// ************************************************************************* //
