/*--------------------------------*- C++ -*----------------------------------*\
  =========                 |
  \\      /  F ield         | OpenFOAM: The Open Source CFD Toolbox
   \\    /   O peration     | Website:  https://openfoam.org
    \\  /    A nd           | Version:  9
     \\/     M anipulation  |
\*---------------------------------------------------------------------------*/
FoamFile
{
    format      ascii;
    class       volVectorField;
    location    "23050";
    object      Ub;
}
// * * * * * * * * * * * * * * * * * * * * * * * * * * * * * * * * * * * * * //

dimensions      [0 0 0 0 0 0 0];

internalField   nonuniform List<vector> 
1000
(
(1.13619e-05 0 0)
(1.13621e-05 0 0)
(1.13622e-05 0 0)
(1.13623e-05 0 0)
(1.13624e-05 0 0)
(1.13626e-05 0 0)
(1.13627e-05 0 0)
(1.1363e-05 0 0)
(1.13632e-05 0 0)
(1.13634e-05 0 0)
(1.13637e-05 0 0)
(1.1364e-05 0 0)
(1.13643e-05 0 0)
(1.13646e-05 0 0)
(1.1365e-05 0 0)
(1.13653e-05 0 0)
(1.13658e-05 0 0)
(1.13662e-05 0 0)
(1.13667e-05 0 0)
(1.13672e-05 0 0)
(1.13676e-05 0 0)
(1.1368e-05 0 0)
(1.13683e-05 0 0)
(1.13686e-05 0 0)
(1.13689e-05 0 0)
(1.13692e-05 0 0)
(1.13694e-05 0 0)
(1.13696e-05 0 0)
(1.137e-05 0 0)
(1.13708e-05 0 0)
(1.13741e-05 0 0)
(1.13885e-05 0 0)
(1.14665e-05 0 0)
(1.16333e-05 0 0)
(1.17519e-05 0 0)
(1.17737e-05 0 0)
(1.17775e-05 0 0)
(1.17776e-05 0 0)
(1.17782e-05 0 0)
(1.17796e-05 0 0)
(1.17815e-05 0 0)
(1.17836e-05 0 0)
(1.17858e-05 0 0)
(1.17878e-05 0 0)
(1.17896e-05 0 0)
(1.17914e-05 0 0)
(1.1793e-05 0 0)
(1.17945e-05 0 0)
(1.17959e-05 0 0)
(1.17971e-05 0 0)
(1.17983e-05 0 0)
(1.17994e-05 0 0)
(1.18004e-05 0 0)
(1.18013e-05 0 0)
(1.18021e-05 0 0)
(1.18029e-05 0 0)
(1.18036e-05 0 0)
(1.18042e-05 0 0)
(1.18047e-05 0 0)
(1.18052e-05 0 0)
(1.18056e-05 0 0)
(1.1806e-05 0 0)
(1.18062e-05 0 0)
(1.18065e-05 0 0)
(1.18066e-05 0 0)
(1.18067e-05 0 0)
(1.18068e-05 0 0)
(1.18068e-05 0 0)
(1.18068e-05 0 0)
(1.18066e-05 0 0)
(1.18065e-05 0 0)
(1.18062e-05 0 0)
(1.18058e-05 0 0)
(1.18054e-05 0 0)
(1.18049e-05 0 0)
(1.18044e-05 0 0)
(1.18038e-05 0 0)
(1.18032e-05 0 0)
(1.18026e-05 0 0)
(1.18019e-05 0 0)
(1.18012e-05 0 0)
(1.18003e-05 0 0)
(1.17994e-05 0 0)
(1.17982e-05 0 0)
(1.17968e-05 0 0)
(1.17953e-05 0 0)
(1.17934e-05 0 0)
(1.17913e-05 0 0)
(1.17888e-05 0 0)
(1.17861e-05 0 0)
(1.17831e-05 0 0)
(1.17798e-05 0 0)
(1.17763e-05 0 0)
(1.17728e-05 0 0)
(1.1769e-05 0 0)
(1.17651e-05 0 0)
(1.1761e-05 0 0)
(1.17567e-05 0 0)
(1.1752e-05 0 0)
(1.1747e-05 0 0)
(1.17414e-05 0 0)
(1.17353e-05 0 0)
(1.17287e-05 0 0)
(1.17219e-05 0 0)
(1.1715e-05 0 0)
(1.1708e-05 0 0)
(1.17011e-05 0 0)
(1.16943e-05 0 0)
(1.16876e-05 0 0)
(1.16811e-05 0 0)
(1.16748e-05 0 0)
(1.16689e-05 0 0)
(1.16634e-05 0 0)
(1.16584e-05 0 0)
(1.16539e-05 0 0)
(1.16501e-05 0 0)
(1.16469e-05 0 0)
(1.16442e-05 0 0)
(1.1642e-05 0 0)
(1.16402e-05 0 0)
(1.16386e-05 0 0)
(1.1637e-05 0 0)
(1.16355e-05 0 0)
(1.16338e-05 0 0)
(1.16319e-05 0 0)
(1.16297e-05 0 0)
(1.16272e-05 0 0)
(1.16243e-05 0 0)
(1.16212e-05 0 0)
(1.16177e-05 0 0)
(1.16139e-05 0 0)
(1.16099e-05 0 0)
(1.16057e-05 0 0)
(1.16013e-05 0 0)
(1.15969e-05 0 0)
(1.15923e-05 0 0)
(1.15878e-05 0 0)
(1.15832e-05 0 0)
(1.15786e-05 0 0)
(1.15741e-05 0 0)
(1.15696e-05 0 0)
(1.15651e-05 0 0)
(1.15607e-05 0 0)
(1.15563e-05 0 0)
(1.1552e-05 0 0)
(1.15477e-05 0 0)
(1.15434e-05 0 0)
(1.15391e-05 0 0)
(1.15349e-05 0 0)
(1.15307e-05 0 0)
(1.15264e-05 0 0)
(1.15222e-05 0 0)
(1.1518e-05 0 0)
(1.15138e-05 0 0)
(1.15095e-05 0 0)
(1.15053e-05 0 0)
(1.1501e-05 0 0)
(1.14968e-05 0 0)
(1.14925e-05 0 0)
(1.14882e-05 0 0)
(1.14839e-05 0 0)
(1.14795e-05 0 0)
(1.14752e-05 0 0)
(1.14709e-05 0 0)
(1.14665e-05 0 0)
(1.14621e-05 0 0)
(1.14577e-05 0 0)
(1.14533e-05 0 0)
(1.14488e-05 0 0)
(1.14444e-05 0 0)
(1.14399e-05 0 0)
(1.14354e-05 0 0)
(1.14309e-05 0 0)
(1.14264e-05 0 0)
(1.14219e-05 0 0)
(1.14173e-05 0 0)
(1.14127e-05 0 0)
(1.14081e-05 0 0)
(1.14035e-05 0 0)
(1.13989e-05 0 0)
(1.13943e-05 0 0)
(1.13896e-05 0 0)
(1.13849e-05 0 0)
(1.13803e-05 0 0)
(1.13755e-05 0 0)
(1.13708e-05 0 0)
(1.1366e-05 0 0)
(1.13613e-05 0 0)
(1.13565e-05 0 0)
(1.13517e-05 0 0)
(1.13469e-05 0 0)
(1.1342e-05 0 0)
(1.13372e-05 0 0)
(1.13323e-05 0 0)
(1.13275e-05 0 0)
(1.13226e-05 0 0)
(1.13178e-05 0 0)
(1.13129e-05 0 0)
(1.1308e-05 0 0)
(1.13031e-05 0 0)
(1.12982e-05 0 0)
(1.12933e-05 0 0)
(1.12883e-05 0 0)
(1.12834e-05 0 0)
(1.12784e-05 0 0)
(1.12734e-05 0 0)
(1.12684e-05 0 0)
(1.12634e-05 0 0)
(1.12584e-05 0 0)
(1.12534e-05 0 0)
(1.12485e-05 0 0)
(1.12435e-05 0 0)
(1.12385e-05 0 0)
(1.12336e-05 0 0)
(1.12286e-05 0 0)
(1.12235e-05 0 0)
(1.12184e-05 0 0)
(1.12132e-05 0 0)
(1.12079e-05 0 0)
(1.12025e-05 0 0)
(1.11969e-05 0 0)
(1.11912e-05 0 0)
(1.11854e-05 0 0)
(1.11794e-05 0 0)
(1.11733e-05 0 0)
(1.1167e-05 0 0)
(1.11606e-05 0 0)
(1.1154e-05 0 0)
(1.11474e-05 0 0)
(1.11408e-05 0 0)
(1.11341e-05 0 0)
(1.11274e-05 0 0)
(1.11207e-05 0 0)
(1.11141e-05 0 0)
(1.11076e-05 0 0)
(1.11012e-05 0 0)
(1.1095e-05 0 0)
(1.1089e-05 0 0)
(1.10833e-05 0 0)
(1.10778e-05 0 0)
(1.10726e-05 0 0)
(1.10677e-05 0 0)
(1.1063e-05 0 0)
(1.10587e-05 0 0)
(1.10545e-05 0 0)
(1.10506e-05 0 0)
(1.10468e-05 0 0)
(1.10432e-05 0 0)
(1.10397e-05 0 0)
(1.10363e-05 0 0)
(1.10328e-05 0 0)
(1.10294e-05 0 0)
(1.10259e-05 0 0)
(1.10223e-05 0 0)
(1.10186e-05 0 0)
(1.10148e-05 0 0)
(1.10109e-05 0 0)
(1.10068e-05 0 0)
(1.10026e-05 0 0)
(1.09983e-05 0 0)
(1.09938e-05 0 0)
(1.09893e-05 0 0)
(1.09846e-05 0 0)
(1.09798e-05 0 0)
(1.0975e-05 0 0)
(1.09701e-05 0 0)
(1.09652e-05 0 0)
(1.09602e-05 0 0)
(1.09552e-05 0 0)
(1.09502e-05 0 0)
(1.09452e-05 0 0)
(1.09402e-05 0 0)
(1.09352e-05 0 0)
(1.09302e-05 0 0)
(1.09252e-05 0 0)
(1.09202e-05 0 0)
(1.09153e-05 0 0)
(1.09103e-05 0 0)
(1.09054e-05 0 0)
(1.09004e-05 0 0)
(1.08955e-05 0 0)
(1.08906e-05 0 0)
(1.08857e-05 0 0)
(1.08808e-05 0 0)
(1.08758e-05 0 0)
(1.08709e-05 0 0)
(1.0866e-05 0 0)
(1.08611e-05 0 0)
(1.08562e-05 0 0)
(1.08513e-05 0 0)
(1.08464e-05 0 0)
(1.08414e-05 0 0)
(1.08365e-05 0 0)
(1.08315e-05 0 0)
(1.08266e-05 0 0)
(1.08216e-05 0 0)
(1.08166e-05 0 0)
(1.08116e-05 0 0)
(1.08066e-05 0 0)
(1.08016e-05 0 0)
(1.07966e-05 0 0)
(1.07915e-05 0 0)
(1.07865e-05 0 0)
(1.07814e-05 0 0)
(1.07763e-05 0 0)
(1.07712e-05 0 0)
(1.07661e-05 0 0)
(1.0761e-05 0 0)
(1.07559e-05 0 0)
(1.07508e-05 0 0)
(1.07456e-05 0 0)
(1.07405e-05 0 0)
(1.07353e-05 0 0)
(1.07301e-05 0 0)
(1.07249e-05 0 0)
(1.07197e-05 0 0)
(1.07145e-05 0 0)
(1.07092e-05 0 0)
(1.0704e-05 0 0)
(1.06987e-05 0 0)
(1.06934e-05 0 0)
(1.06881e-05 0 0)
(1.06828e-05 0 0)
(1.06775e-05 0 0)
(1.06722e-05 0 0)
(1.06668e-05 0 0)
(1.06615e-05 0 0)
(1.06561e-05 0 0)
(1.06507e-05 0 0)
(1.06454e-05 0 0)
(1.064e-05 0 0)
(1.06346e-05 0 0)
(1.06292e-05 0 0)
(1.06238e-05 0 0)
(1.06183e-05 0 0)
(1.06129e-05 0 0)
(1.06075e-05 0 0)
(1.0602e-05 0 0)
(1.05966e-05 0 0)
(1.05911e-05 0 0)
(1.05856e-05 0 0)
(1.05802e-05 0 0)
(1.05747e-05 0 0)
(1.05692e-05 0 0)
(1.05637e-05 0 0)
(1.05582e-05 0 0)
(1.05527e-05 0 0)
(1.05472e-05 0 0)
(1.05417e-05 0 0)
(1.05362e-05 0 0)
(1.05306e-05 0 0)
(1.05251e-05 0 0)
(1.05195e-05 0 0)
(1.05139e-05 0 0)
(1.05082e-05 0 0)
(1.05025e-05 0 0)
(1.04967e-05 0 0)
(1.04909e-05 0 0)
(1.04851e-05 0 0)
(1.04791e-05 0 0)
(1.04731e-05 0 0)
(1.0467e-05 0 0)
(1.04608e-05 0 0)
(1.04545e-05 0 0)
(1.04482e-05 0 0)
(1.04418e-05 0 0)
(1.04353e-05 0 0)
(1.04288e-05 0 0)
(1.04222e-05 0 0)
(1.04156e-05 0 0)
(1.04089e-05 0 0)
(1.04022e-05 0 0)
(1.03955e-05 0 0)
(1.03889e-05 0 0)
(1.03823e-05 0 0)
(1.03757e-05 0 0)
(1.03691e-05 0 0)
(1.03627e-05 0 0)
(1.03563e-05 0 0)
(1.03501e-05 0 0)
(1.0344e-05 0 0)
(1.0338e-05 0 0)
(1.03321e-05 0 0)
(1.03264e-05 0 0)
(1.03209e-05 0 0)
(1.03154e-05 0 0)
(1.03102e-05 0 0)
(1.0305e-05 0 0)
(1.03e-05 0 0)
(1.02951e-05 0 0)
(1.02903e-05 0 0)
(1.02855e-05 0 0)
(1.02809e-05 0 0)
(1.02763e-05 0 0)
(1.02717e-05 0 0)
(1.02671e-05 0 0)
(1.02625e-05 0 0)
(1.02579e-05 0 0)
(1.02533e-05 0 0)
(1.02486e-05 0 0)
(1.02439e-05 0 0)
(1.02391e-05 0 0)
(1.02342e-05 0 0)
(1.02293e-05 0 0)
(1.02243e-05 0 0)
(1.02193e-05 0 0)
(1.02142e-05 0 0)
(1.0209e-05 0 0)
(1.02037e-05 0 0)
(1.01984e-05 0 0)
(1.01931e-05 0 0)
(1.01877e-05 0 0)
(1.01823e-05 0 0)
(1.01768e-05 0 0)
(1.01713e-05 0 0)
(1.01658e-05 0 0)
(1.01603e-05 0 0)
(1.01547e-05 0 0)
(1.01492e-05 0 0)
(1.01436e-05 0 0)
(1.0138e-05 0 0)
(1.01325e-05 0 0)
(1.01269e-05 0 0)
(1.01213e-05 0 0)
(1.01157e-05 0 0)
(1.01101e-05 0 0)
(1.01046e-05 0 0)
(1.0099e-05 0 0)
(1.00934e-05 0 0)
(1.00878e-05 0 0)
(1.00823e-05 0 0)
(1.00767e-05 0 0)
(1.00711e-05 0 0)
(1.00655e-05 0 0)
(1.006e-05 0 0)
(1.00544e-05 0 0)
(1.00488e-05 0 0)
(1.00432e-05 0 0)
(1.00376e-05 0 0)
(1.0032e-05 0 0)
(1.00264e-05 0 0)
(1.00208e-05 0 0)
(1.00152e-05 0 0)
(1.00095e-05 0 0)
(1.00039e-05 0 0)
(9.99824e-06 0 0)
(9.99259e-06 0 0)
(9.98692e-06 0 0)
(9.98124e-06 0 0)
(9.97556e-06 0 0)
(9.96986e-06 0 0)
(9.96415e-06 0 0)
(9.95844e-06 0 0)
(9.95271e-06 0 0)
(9.94697e-06 0 0)
(9.94122e-06 0 0)
(9.93546e-06 0 0)
(9.92969e-06 0 0)
(9.92391e-06 0 0)
(9.91811e-06 0 0)
(9.91231e-06 0 0)
(9.90649e-06 0 0)
(9.90066e-06 0 0)
(9.89482e-06 0 0)
(9.88897e-06 0 0)
(9.88311e-06 0 0)
(9.87723e-06 0 0)
(9.87135e-06 0 0)
(9.86545e-06 0 0)
(9.85954e-06 0 0)
(9.85362e-06 0 0)
(9.84768e-06 0 0)
(9.84174e-06 0 0)
(9.83578e-06 0 0)
(9.82982e-06 0 0)
(9.82384e-06 0 0)
(9.81785e-06 0 0)
(9.81185e-06 0 0)
(9.80585e-06 0 0)
(9.79983e-06 0 0)
(9.7938e-06 0 0)
(9.78776e-06 0 0)
(9.78171e-06 0 0)
(9.77565e-06 0 0)
(9.76959e-06 0 0)
(9.76351e-06 0 0)
(9.75742e-06 0 0)
(9.75133e-06 0 0)
(9.74523e-06 0 0)
(9.73912e-06 0 0)
(9.733e-06 0 0)
(9.72687e-06 0 0)
(9.72073e-06 0 0)
(9.71459e-06 0 0)
(9.70844e-06 0 0)
(9.70228e-06 0 0)
(9.69611e-06 0 0)
(9.68994e-06 0 0)
(9.68375e-06 0 0)
(9.67755e-06 0 0)
(9.67134e-06 0 0)
(9.66511e-06 0 0)
(9.65887e-06 0 0)
(9.65261e-06 0 0)
(9.64633e-06 0 0)
(9.64002e-06 0 0)
(9.63369e-06 0 0)
(9.62732e-06 0 0)
(9.62093e-06 0 0)
(9.6145e-06 0 0)
(9.60803e-06 0 0)
(9.60151e-06 0 0)
(9.59496e-06 0 0)
(9.58836e-06 0 0)
(9.58172e-06 0 0)
(9.57503e-06 0 0)
(9.56829e-06 0 0)
(9.5615e-06 0 0)
(9.55467e-06 0 0)
(9.5478e-06 0 0)
(9.54088e-06 0 0)
(9.53393e-06 0 0)
(9.52694e-06 0 0)
(9.51992e-06 0 0)
(9.51287e-06 0 0)
(9.50581e-06 0 0)
(9.49874e-06 0 0)
(9.49165e-06 0 0)
(9.48457e-06 0 0)
(9.4775e-06 0 0)
(9.47045e-06 0 0)
(9.46342e-06 0 0)
(9.45643e-06 0 0)
(9.44947e-06 0 0)
(9.44257e-06 0 0)
(9.43572e-06 0 0)
(9.42893e-06 0 0)
(9.4222e-06 0 0)
(9.41555e-06 0 0)
(9.40898e-06 0 0)
(9.40248e-06 0 0)
(9.39606e-06 0 0)
(9.38972e-06 0 0)
(9.38346e-06 0 0)
(9.37727e-06 0 0)
(9.37116e-06 0 0)
(9.36512e-06 0 0)
(9.35914e-06 0 0)
(9.35321e-06 0 0)
(9.34734e-06 0 0)
(9.3415e-06 0 0)
(9.3357e-06 0 0)
(9.32992e-06 0 0)
(9.32416e-06 0 0)
(9.31841e-06 0 0)
(9.31265e-06 0 0)
(9.30689e-06 0 0)
(9.30112e-06 0 0)
(9.29532e-06 0 0)
(9.2895e-06 0 0)
(9.28365e-06 0 0)
(9.27776e-06 0 0)
(9.27184e-06 0 0)
(9.26588e-06 0 0)
(9.25988e-06 0 0)
(9.25384e-06 0 0)
(9.24775e-06 0 0)
(9.24163e-06 0 0)
(9.23547e-06 0 0)
(9.22927e-06 0 0)
(9.22303e-06 0 0)
(9.21677e-06 0 0)
(9.21047e-06 0 0)
(9.20414e-06 0 0)
(9.19778e-06 0 0)
(9.1914e-06 0 0)
(9.185e-06 0 0)
(9.17858e-06 0 0)
(9.17214e-06 0 0)
(9.16569e-06 0 0)
(9.15922e-06 0 0)
(9.15274e-06 0 0)
(9.14625e-06 0 0)
(9.13975e-06 0 0)
(9.13324e-06 0 0)
(9.12673e-06 0 0)
(9.12021e-06 0 0)
(9.11368e-06 0 0)
(9.10715e-06 0 0)
(9.10061e-06 0 0)
(9.09406e-06 0 0)
(9.08751e-06 0 0)
(9.08096e-06 0 0)
(9.0744e-06 0 0)
(9.06783e-06 0 0)
(9.06125e-06 0 0)
(9.05468e-06 0 0)
(9.04809e-06 0 0)
(9.04149e-06 0 0)
(9.03489e-06 0 0)
(9.02828e-06 0 0)
(9.02166e-06 0 0)
(9.01504e-06 0 0)
(9.0084e-06 0 0)
(9.00176e-06 0 0)
(8.9951e-06 0 0)
(8.98844e-06 0 0)
(8.98176e-06 0 0)
(8.97507e-06 0 0)
(8.96837e-06 0 0)
(8.96166e-06 0 0)
(8.95494e-06 0 0)
(8.94821e-06 0 0)
(8.94146e-06 0 0)
(8.9347e-06 0 0)
(8.92793e-06 0 0)
(8.92115e-06 0 0)
(8.91435e-06 0 0)
(8.90754e-06 0 0)
(8.90072e-06 0 0)
(8.89388e-06 0 0)
(8.88703e-06 0 0)
(8.88017e-06 0 0)
(8.87329e-06 0 0)
(8.8664e-06 0 0)
(8.8595e-06 0 0)
(8.85258e-06 0 0)
(8.84565e-06 0 0)
(8.8387e-06 0 0)
(8.83174e-06 0 0)
(8.82476e-06 0 0)
(8.81777e-06 0 0)
(8.81077e-06 0 0)
(8.80375e-06 0 0)
(8.79672e-06 0 0)
(8.78967e-06 0 0)
(8.78261e-06 0 0)
(8.77554e-06 0 0)
(8.76845e-06 0 0)
(8.76135e-06 0 0)
(8.75423e-06 0 0)
(8.7471e-06 0 0)
(8.73995e-06 0 0)
(8.73279e-06 0 0)
(8.72562e-06 0 0)
(8.71844e-06 0 0)
(8.71124e-06 0 0)
(8.70402e-06 0 0)
(8.6968e-06 0 0)
(8.68956e-06 0 0)
(8.68231e-06 0 0)
(8.67504e-06 0 0)
(8.66776e-06 0 0)
(8.66047e-06 0 0)
(8.65317e-06 0 0)
(8.64585e-06 0 0)
(8.63852e-06 0 0)
(8.63117e-06 0 0)
(8.62382e-06 0 0)
(8.61645e-06 0 0)
(8.60906e-06 0 0)
(8.60166e-06 0 0)
(8.59425e-06 0 0)
(8.58682e-06 0 0)
(8.57937e-06 0 0)
(8.57191e-06 0 0)
(8.56443e-06 0 0)
(8.55693e-06 0 0)
(8.54941e-06 0 0)
(8.54187e-06 0 0)
(8.53431e-06 0 0)
(8.52672e-06 0 0)
(8.51911e-06 0 0)
(8.51147e-06 0 0)
(8.5038e-06 0 0)
(8.4961e-06 0 0)
(8.48838e-06 0 0)
(8.48062e-06 0 0)
(8.47283e-06 0 0)
(8.465e-06 0 0)
(8.45714e-06 0 0)
(8.44925e-06 0 0)
(8.44132e-06 0 0)
(8.43335e-06 0 0)
(8.42535e-06 0 0)
(8.41732e-06 0 0)
(8.40925e-06 0 0)
(8.40115e-06 0 0)
(8.39302e-06 0 0)
(8.38486e-06 0 0)
(8.37668e-06 0 0)
(8.36847e-06 0 0)
(8.36023e-06 0 0)
(8.35198e-06 0 0)
(8.34371e-06 0 0)
(8.33543e-06 0 0)
(8.32714e-06 0 0)
(8.31884e-06 0 0)
(8.31055e-06 0 0)
(8.30225e-06 0 0)
(8.29396e-06 0 0)
(8.28568e-06 0 0)
(8.27742e-06 0 0)
(8.26917e-06 0 0)
(8.26094e-06 0 0)
(8.25274e-06 0 0)
(8.24456e-06 0 0)
(8.23642e-06 0 0)
(8.2283e-06 0 0)
(8.22022e-06 0 0)
(8.21218e-06 0 0)
(8.20417e-06 0 0)
(8.1962e-06 0 0)
(8.18827e-06 0 0)
(8.18037e-06 0 0)
(8.17251e-06 0 0)
(8.16468e-06 0 0)
(8.15688e-06 0 0)
(8.14911e-06 0 0)
(8.14137e-06 0 0)
(8.13365e-06 0 0)
(8.12594e-06 0 0)
(8.11825e-06 0 0)
(8.11057e-06 0 0)
(8.1029e-06 0 0)
(8.09522e-06 0 0)
(8.08755e-06 0 0)
(8.07986e-06 0 0)
(8.07217e-06 0 0)
(8.06446e-06 0 0)
(8.05673e-06 0 0)
(8.04898e-06 0 0)
(8.04121e-06 0 0)
(8.03341e-06 0 0)
(8.02558e-06 0 0)
(8.01771e-06 0 0)
(8.00982e-06 0 0)
(8.00189e-06 0 0)
(7.99393e-06 0 0)
(7.98593e-06 0 0)
(7.97789e-06 0 0)
(7.96982e-06 0 0)
(7.96172e-06 0 0)
(7.95358e-06 0 0)
(7.94541e-06 0 0)
(7.9372e-06 0 0)
(7.92897e-06 0 0)
(7.9207e-06 0 0)
(7.9124e-06 0 0)
(7.90407e-06 0 0)
(7.89571e-06 0 0)
(7.88732e-06 0 0)
(7.87891e-06 0 0)
(7.87048e-06 0 0)
(7.86202e-06 0 0)
(7.85353e-06 0 0)
(7.84502e-06 0 0)
(7.83649e-06 0 0)
(7.82794e-06 0 0)
(7.81937e-06 0 0)
(7.81078e-06 0 0)
(7.80216e-06 0 0)
(7.79353e-06 0 0)
(7.78487e-06 0 0)
(7.7762e-06 0 0)
(7.76751e-06 0 0)
(7.75879e-06 0 0)
(7.75006e-06 0 0)
(7.7413e-06 0 0)
(7.73253e-06 0 0)
(7.72373e-06 0 0)
(7.71492e-06 0 0)
(7.70608e-06 0 0)
(7.69723e-06 0 0)
(7.68835e-06 0 0)
(7.67945e-06 0 0)
(7.67052e-06 0 0)
(7.66158e-06 0 0)
(7.65261e-06 0 0)
(7.64362e-06 0 0)
(7.6346e-06 0 0)
(7.62556e-06 0 0)
(7.61649e-06 0 0)
(7.60741e-06 0 0)
(7.59829e-06 0 0)
(7.58915e-06 0 0)
(7.57999e-06 0 0)
(7.5708e-06 0 0)
(7.56158e-06 0 0)
(7.55233e-06 0 0)
(7.54306e-06 0 0)
(7.53376e-06 0 0)
(7.52443e-06 0 0)
(7.51508e-06 0 0)
(7.5057e-06 0 0)
(7.49628e-06 0 0)
(7.48684e-06 0 0)
(7.47737e-06 0 0)
(7.46787e-06 0 0)
(7.45834e-06 0 0)
(7.44879e-06 0 0)
(7.4392e-06 0 0)
(7.42958e-06 0 0)
(7.41993e-06 0 0)
(7.41025e-06 0 0)
(7.40054e-06 0 0)
(7.39079e-06 0 0)
(7.38102e-06 0 0)
(7.37121e-06 0 0)
(7.36137e-06 0 0)
(7.3515e-06 0 0)
(7.3416e-06 0 0)
(7.33166e-06 0 0)
(7.3217e-06 0 0)
(7.31169e-06 0 0)
(7.30166e-06 0 0)
(7.29159e-06 0 0)
(7.28149e-06 0 0)
(7.27136e-06 0 0)
(7.26119e-06 0 0)
(7.25099e-06 0 0)
(7.24075e-06 0 0)
(7.23048e-06 0 0)
(7.22018e-06 0 0)
(7.20984e-06 0 0)
(7.19947e-06 0 0)
(7.18906e-06 0 0)
(7.17861e-06 0 0)
(7.16814e-06 0 0)
(7.15762e-06 0 0)
(7.14707e-06 0 0)
(7.13649e-06 0 0)
(7.12587e-06 0 0)
(7.11521e-06 0 0)
(7.10452e-06 0 0)
(7.09379e-06 0 0)
(7.08302e-06 0 0)
(7.07222e-06 0 0)
(7.06138e-06 0 0)
(7.0505e-06 0 0)
(7.03959e-06 0 0)
(7.02864e-06 0 0)
(7.01765e-06 0 0)
(7.00662e-06 0 0)
(6.99555e-06 0 0)
(6.98444e-06 0 0)
(6.9733e-06 0 0)
(6.96211e-06 0 0)
(6.95089e-06 0 0)
(6.93963e-06 0 0)
(6.92833e-06 0 0)
(6.91699e-06 0 0)
(6.90561e-06 0 0)
(6.89419e-06 0 0)
(6.88274e-06 0 0)
(6.87126e-06 0 0)
(6.85973e-06 0 0)
(6.84818e-06 0 0)
(6.8366e-06 0 0)
(6.82499e-06 0 0)
(6.81335e-06 0 0)
(6.8017e-06 0 0)
(6.79003e-06 0 0)
(6.77835e-06 0 0)
(6.76666e-06 0 0)
(6.75498e-06 0 0)
(6.7433e-06 0 0)
(6.73165e-06 0 0)
(6.72003e-06 0 0)
(6.70845e-06 0 0)
(6.69693e-06 0 0)
(6.68547e-06 0 0)
(6.6741e-06 0 0)
(6.66284e-06 0 0)
(6.65171e-06 0 0)
(6.64072e-06 0 0)
(6.6299e-06 0 0)
(6.61927e-06 0 0)
(6.60886e-06 0 0)
(6.5987e-06 0 0)
(6.58882e-06 0 0)
(6.57924e-06 0 0)
(6.56999e-06 0 0)
(6.56109e-06 0 0)
(6.55258e-06 0 0)
(6.54447e-06 0 0)
(6.53679e-06 0 0)
(6.52956e-06 0 0)
(6.52278e-06 0 0)
(6.51647e-06 0 0)
(6.51064e-06 0 0)
(6.50528e-06 0 0)
(6.50039e-06 0 0)
(6.49597e-06 0 0)
(6.49199e-06 0 0)
(6.48845e-06 0 0)
(6.48532e-06 0 0)
(6.48258e-06 0 0)
(6.4802e-06 0 0)
(6.47816e-06 0 0)
(6.47644e-06 0 0)
(6.475e-06 0 0)
(6.47381e-06 0 0)
(6.47284e-06 0 0)
(6.47207e-06 0 0)
(6.47149e-06 0 0)
(6.47105e-06 0 0)
(6.47074e-06 0 0)
(6.47053e-06 0 0)
(6.47038e-06 0 0)
(6.47027e-06 0 0)
(6.47016e-06 0 0)
(6.46997e-06 0 0)
(6.46958e-06 0 0)
(6.46878e-06 0 0)
(6.4672e-06 0 0)
(6.46421e-06 0 0)
(6.45867e-06 0 0)
(6.44855e-06 0 0)
(6.43026e-06 0 0)
(6.39754e-06 0 0)
(6.33979e-06 0 0)
(6.23984e-06 0 0)
(6.07232e-06 0 0)
(5.80571e-06 0 0)
(5.41384e-06 0 0)
(4.89978e-06 0 0)
(4.31737e-06 0 0)
(3.75961e-06 0 0)
(3.30897e-06 0 0)
(2.99577e-06 0 0)
(2.802e-06 0 0)
(2.69125e-06 0 0)
(2.63094e-06 0 0)
(2.599e-06 0 0)
(2.58234e-06 0 0)
(2.57374e-06 0 0)
(2.56932e-06 0 0)
(2.56707e-06 0 0)
(2.56593e-06 0 0)
(2.56537e-06 0 0)
(2.56509e-06 0 0)
(2.56497e-06 0 0)
(2.56492e-06 0 0)
(2.56492e-06 0 0)
(2.56493e-06 0 0)
(2.56495e-06 0 0)
(2.56497e-06 0 0)
(2.565e-06 0 0)
(2.56503e-06 0 0)
(2.56505e-06 0 0)
(2.56508e-06 0 0)
(2.5651e-06 0 0)
(2.56513e-06 0 0)
(2.56515e-06 0 0)
(2.56518e-06 0 0)
(2.5652e-06 0 0)
(2.56522e-06 0 0)
(2.56525e-06 0 0)
(2.56527e-06 0 0)
(2.56529e-06 0 0)
(2.56531e-06 0 0)
(2.56534e-06 0 0)
(2.56536e-06 0 0)
(2.56538e-06 0 0)
(2.5654e-06 0 0)
(2.56542e-06 0 0)
(2.56544e-06 0 0)
(2.56547e-06 0 0)
(2.56549e-06 0 0)
(2.56551e-06 0 0)
(2.56553e-06 0 0)
(2.56555e-06 0 0)
(2.56557e-06 0 0)
(2.56559e-06 0 0)
(2.56561e-06 0 0)
(2.56563e-06 0 0)
(2.56565e-06 0 0)
(2.56566e-06 0 0)
(2.56568e-06 0 0)
(2.5657e-06 0 0)
(2.56572e-06 0 0)
(2.56573e-06 0 0)
(2.56575e-06 0 0)
(2.56577e-06 0 0)
(2.56578e-06 0 0)
(2.5658e-06 0 0)
(2.56581e-06 0 0)
(2.56583e-06 0 0)
(2.56584e-06 0 0)
(2.56586e-06 0 0)
(2.56587e-06 0 0)
(2.56588e-06 0 0)
(2.56589e-06 0 0)
(2.5659e-06 0 0)
(2.56591e-06 0 0)
(2.56592e-06 0 0)
(2.56593e-06 0 0)
(2.56594e-06 0 0)
(2.56595e-06 0 0)
)
;

boundaryField
{
    inlet
    {
        type            fixedValue;
        value           uniform (1.13622e-05 0 0);
    }
    outlet
    {
        type            zeroGradient;
    }
    emptyWalls
    {
        type            empty;
    }
}


// ************************************************************************* //
