/*--------------------------------*- C++ -*----------------------------------*\
  =========                 |
  \\      /  F ield         | OpenFOAM: The Open Source CFD Toolbox
   \\    /   O peration     | Website:  https://openfoam.org
    \\  /    A nd           | Version:  9
     \\/     M anipulation  |
\*---------------------------------------------------------------------------*/
FoamFile
{
    format      ascii;
    class       volScalarField;
    location    "1500";
    object      Fb;
}
// * * * * * * * * * * * * * * * * * * * * * * * * * * * * * * * * * * * * * //

dimensions      [0 0 0 0 0 0 0];

internalField   nonuniform List<scalar> 
1000
(
0.803126
0.805574
0.835787
0.841161
0.841113
0.839754
0.835586
0.830743
0.825548
0.820169
0.814671
0.809108
0.803526
0.797938
0.792375
0.78682
0.78127
0.775709
0.77011
0.764475
0.758779
0.753022
0.747201
0.741301
0.73533
0.729279
0.723146
0.71694
0.710648
0.704275
0.697816
0.691262
0.684616
0.677864
0.67101
0.664044
0.656964
0.649764
0.642439
0.634982
0.627386
0.619641
0.611739
0.603668
0.595413
0.586965
0.578307
0.569428
0.560315
0.550953
0.541331
0.531425
0.521174
0.510412
0.498734
0.485267
0.468364
0.445408
0.413287
0.370483
0.320493
0.272399
0.23493
0.210563
0.196621
0.189259
0.185553
0.183744
0.182881
0.182478
0.182295
0.182215
0.182182
0.182172
0.182171
0.182175
0.182181
0.182187
0.182194
0.1822
0.182206
0.182211
0.182216
0.182221
0.182225
0.182229
0.182231
0.182232
0.182232
0.182231
0.182231
0.182228
0.182224
0.182218
0.182211
0.182203
0.182193
0.182183
0.182171
0.182159
0.182145
0.182131
0.182114
0.182097
0.182078
0.182059
0.182038
0.182018
0.181995
0.181972
0.181947
0.181922
0.181896
0.181871
0.181844
0.181818
0.181791
0.181765
0.181737
0.18171
0.181684
0.181658
0.181632
0.181608
0.181583
0.181559
0.181535
0.181512
0.18149
0.181468
0.181446
0.181425
0.181403
0.181382
0.18136
0.181338
0.181315
0.181292
0.181266
0.181241
0.181212
0.181182
0.181149
0.181114
0.181076
0.181035
0.180989
0.180941
0.180888
0.180833
0.180772
0.180708
0.18064
0.18057
0.180497
0.180422
0.180345
0.180269
0.180192
0.180118
0.180047
0.179983
0.179927
0.179885
0.179858
0.179848
0.179846
0.179848
0.179862
0.179939
0.180059
0.180218
0.180415
0.180644
0.1809
0.181173
0.181454
0.18173
0.181993
0.182233
0.182447
0.182628
0.182777
0.182893
0.182979
0.183036
0.183069
0.183081
0.183081
0.18308
0.183061
0.183012
0.182955
0.182894
0.18283
0.182765
0.1827
0.182636
0.182573
0.182513
0.182456
0.182402
0.182352
0.182307
0.182265
0.182227
0.182194
0.182164
0.182138
0.182115
0.182096
0.182079
0.182065
0.182052
0.182042
0.182033
0.182025
0.182018
0.182012
0.182006
0.182
0.181994
0.181989
0.181984
0.181978
0.181973
0.181967
0.181962
0.181956
0.18195
0.181944
0.181939
0.181934
0.18193
0.181926
0.181922
0.181921
0.18192
0.181921
0.181921
0.181923
0.181924
0.181931
0.181933
0.181946
0.18195
0.18197
0.181975
0.182004
0.182011
0.182049
0.182059
0.182105
0.182119
0.182213
0.182442
0.183526
0.204455
0.210204
0.210278
0.21028
0.21028
0.21028
0.21028
0.21028
0.21028
0.21028
0.21028
0.21028
0.21028
0.21028
0.21028
0.21028
0.21028
0.21028
0.21028
0.21028
0.21028
0.21028
0.21028
0.21028
0.21028
0.21028
0.21028
0.21028
0.21028
0.21028
0.21028
0.21028
0.21028
0.21028
0.21028
0.21028
0.21028
0.21028
0.21028
0.21028
0.21028
0.21028
0.21028
0.21028
0.21028
0.21028
0.21028
0.21028
0.21028
0.21028
0.21028
0.21028
0.21028
0.21028
0.21028
0.21028
0.21028
0.21028
0.21028
0.21028
0.21028
0.21028
0.21028
0.21028
0.21028
0.21028
0.21028
0.21028
0.21028
0.21028
0.21028
0.21028
0.21028
0.21028
0.21028
0.21028
0.21028
0.21028
0.21028
0.21028
0.21028
0.21028
0.21028
0.21028
0.21028
0.21028
0.21028
0.21028
0.21028
0.21028
0.21028
0.21028
0.21028
0.21028
0.21028
0.21028
0.21028
0.21028
0.21028
0.21028
0.21028
0.21028
0.21028
0.21028
0.21028
0.21028
0.21028
0.21028
0.21028
0.21028
0.21028
0.21028
0.21028
0.21028
0.21028
0.21028
0.21028
0.21028
0.21028
0.21028
0.21028
0.21028
0.21028
0.21028
0.21028
0.21028
0.21028
0.21028
0.21028
0.21028
0.21028
0.21028
0.21028
0.21028
0.21028
0.21028
0.21028
0.21028
0.21028
0.21028
0.21028
0.21028
0.21028
0.21028
0.21028
0.21028
0.21028
0.21028
0.21028
0.21028
0.21028
0.21028
0.21028
0.21028
0.21028
0.21028
0.21028
0.21028
0.21028
0.21028
0.21028
0.21028
0.21028
0.21028
0.21028
0.21028
0.21028
0.21028
0.21028
0.21028
0.21028
0.21028
0.21028
0.21028
0.21028
0.21028
0.21028
0.21028
0.21028
0.21028
0.21028
0.21028
0.21028
0.21028
0.21028
0.21028
0.21028
0.21028
0.21028
0.21028
0.21028
0.21028
0.21028
0.21028
0.21028
0.21028
0.21028
0.21028
0.21028
0.21028
0.21028
0.21028
0.21028
0.21028
0.21028
0.21028
0.21028
0.21028
0.21028
0.21028
0.21028
0.21028
0.21028
0.21028
0.21028
0.21028
0.21028
0.21028
0.21028
0.21028
0.21028
0.21028
0.21028
0.21028
0.21028
0.21028
0.21028
0.21028
0.21028
0.21028
0.21028
0.21028
0.21028
0.21028
0.21028
0.21028
0.21028
0.21028
0.21028
0.21028
0.21028
0.21028
0.21028
0.21028
0.21028
0.21028
0.21028
0.21028
0.21028
0.21028
0.21028
0.21028
0.21028
0.21028
0.21028
0.21028
0.21028
0.21028
0.21028
0.21028
0.21028
0.21028
0.21028
0.21028
0.21028
0.21028
0.21028
0.21028
0.21028
0.21028
0.21028
0.21028
0.21028
0.21028
0.21028
0.21028
0.21028
0.21028
0.21028
0.21028
0.21028
0.21028
0.21028
0.21028
0.21028
0.21028
0.21028
0.21028
0.21028
0.21028
0.21028
0.21028
0.21028
0.21028
0.21028
0.21028
0.21028
0.21028
0.21028
0.21028
0.21028
0.21028
0.21028
0.21028
0.21028
0.21028
0.21028
0.21028
0.21028
0.21028
0.21028
0.21028
0.21028
0.21028
0.21028
0.21028
0.21028
0.21028
0.21028
0.21028
0.21028
0.21028
0.21028
0.21028
0.21028
0.21028
0.21028
0.21028
0.21028
0.21028
0.21028
0.21028
0.21028
0.21028
0.21028
0.21028
0.21028
0.21028
0.21028
0.21028
0.21028
0.21028
0.21028
0.21028
0.21028
0.21028
0.21028
0.21028
0.21028
0.21028
0.21028
0.21028
0.21028
0.21028
0.21028
0.21028
0.21028
0.21028
0.21028
0.21028
0.21028
0.21028
0.21028
0.21028
0.21028
0.21028
0.21028
0.21028
0.21028
0.21028
0.21028
0.21028
0.21028
0.21028
0.21028
0.21028
0.21028
0.21028
0.21028
0.21028
0.21028
0.21028
0.21028
0.21028
0.21028
0.21028
0.21028
0.21028
0.21028
0.21028
0.21028
0.21028
0.21028
0.21028
0.21028
0.21028
0.21028
0.21028
0.21028
0.21028
0.21028
0.21028
0.21028
0.21028
0.21028
0.21028
0.21028
0.21028
0.21028
0.21028
0.21028
0.21028
0.21028
0.21028
0.21028
0.21028
0.21028
0.21028
0.21028
0.21028
0.21028
0.21028
0.21028
0.21028
0.21028
0.21028
0.21028
0.21028
0.21028
0.21028
0.21028
0.21028
0.21028
0.21028
0.21028
0.21028
0.21028
0.21028
0.21028
0.21028
0.21028
0.21028
0.21028
0.21028
0.21028
0.21028
0.21028
0.21028
0.21028
0.21028
0.21028
0.21028
0.21028
0.21028
0.21028
0.21028
0.21028
0.21028
0.21028
0.21028
0.21028
0.21028
0.21028
0.21028
0.21028
0.21028
0.21028
0.21028
0.21028
0.21028
0.21028
0.21028
0.21028
0.21028
0.21028
0.21028
0.21028
0.21028
0.21028
0.21028
0.21028
0.21028
0.21028
0.21028
0.21028
0.21028
0.21028
0.21028
0.21028
0.21028
0.21028
0.21028
0.21028
0.21028
0.21028
0.21028
0.21028
0.21028
0.21028
0.21028
0.21028
0.21028
0.21028
0.21028
0.21028
0.21028
0.21028
0.21028
0.21028
0.21028
0.21028
0.21028
0.21028
0.21028
0.21028
0.21028
0.21028
0.21028
0.21028
0.21028
0.21028
0.21028
0.21028
0.21028
0.21028
0.21028
0.21028
0.21028
0.21028
0.21028
0.21028
0.21028
0.21028
0.21028
0.21028
0.21028
0.21028
0.21028
0.21028
0.21028
0.21028
0.21028
0.21028
0.21028
0.21028
0.21028
0.21028
0.21028
0.21028
0.21028
0.21028
0.21028
0.21028
0.21028
0.21028
0.21028
0.21028
0.21028
0.21028
0.21028
0.21028
0.21028
0.21028
0.21028
0.21028
0.21028
0.21028
0.21028
0.21028
0.21028
0.21028
0.21028
0.21028
0.21028
0.21028
0.21028
0.21028
0.21028
0.21028
0.21028
0.21028
0.21028
0.21028
0.21028
0.21028
0.21028
0.21028
0.21028
0.21028
0.21028
0.21028
0.21028
0.21028
0.21028
0.21028
0.21028
0.21028
0.21028
0.21028
0.21028
0.21028
0.21028
0.21028
0.21028
0.21028
0.21028
0.21028
0.21028
0.21028
0.21028
0.21028
0.21028
0.21028
0.21028
0.21028
0.21028
0.21028
0.21028
0.21028
0.21028
0.21028
0.21028
0.21028
0.21028
0.21028
0.21028
0.21028
0.21028
0.21028
0.21028
0.21028
0.21028
0.21028
0.21028
0.21028
0.21028
0.21028
0.21028
0.21028
0.21028
0.21028
0.21028
0.21028
0.21028
0.21028
0.21028
0.21028
0.21028
0.21028
0.21028
0.21028
0.21028
0.21028
0.21028
0.21028
0.21028
0.21028
0.21028
0.21028
0.21028
0.21028
0.21028
0.21028
0.21028
0.21028
0.21028
0.21028
0.21028
0.21028
0.21028
0.21028
0.21028
0.21028
0.21028
0.21028
0.21028
0.21028
0.21028
0.21028
0.21028
0.21028
0.21028
0.21028
0.21028
0.21028
0.21028
0.21028
0.21028
0.21028
0.21028
0.21028
0.21028
0.21028
0.21028
0.21028
0.21028
0.21028
0.21028
0.21028
0.21028
0.21028
0.21028
0.21028
0.21028
0.21028
0.21028
0.21028
0.21028
0.21028
0.21028
0.21028
0.21028
0.21028
0.21028
0.21028
0.21028
0.21028
0.21028
0.21028
0.21028
0.21028
0.21028
0.21028
0.21028
0.21028
0.21028
0.21028
0.21028
0.21028
0.21028
0.21028
0.21028
0.21028
0.21028
0.21028
0.21028
0.21028
0.21028
0.21028
0.21028
0.21028
0.21028
0.21028
)
;

boundaryField
{
    inlet
    {
        type            calculated;
        value           uniform 0.805169;
    }
    outlet
    {
        type            calculated;
        value           uniform 0.21028;
    }
    emptyWalls
    {
        type            empty;
    }
}


// ************************************************************************* //
