/*--------------------------------*- C++ -*----------------------------------*\
  =========                 |
  \\      /  F ield         | OpenFOAM: The Open Source CFD Toolbox
   \\    /   O peration     | Website:  https://openfoam.org
    \\  /    A nd           | Version:  9
     \\/     M anipulation  |
\*---------------------------------------------------------------------------*/
FoamFile
{
    format      ascii;
    class       volScalarField;
    location    "22250";
    object      kra;
}
// * * * * * * * * * * * * * * * * * * * * * * * * * * * * * * * * * * * * * //

dimensions      [0 0 0 0 0 0 0];

internalField   nonuniform List<scalar> 
1000
(
0.000236684
0.000237623
0.000238828
0.000240043
0.000241261
0.000242479
0.000243707
0.000244951
0.000246202
0.000247467
0.000248747
0.00025002
0.000251324
0.000252584
0.000253905
0.000255112
0.000256411
0.000257532
0.000258729
0.000259745
0.000260763
0.000261643
0.000262462
0.000263175
0.000263812
0.000264368
0.000264894
0.000265524
0.000266932
0.00027177
0.000291745
0.000432536
0.000786002
0.000874356
0.000896746
0.000905953
0.000911059
0.00091444
0.000916901
0.000918813
0.00092034
0.00092159
0.000922621
0.000923484
0.000924194
0.000924792
0.000925277
0.000925704
0.000926025
0.000926286
0.000926519
0.000926649
0.000926744
0.000926819
0.000926818
0.000926829
0.000926822
0.000926778
0.000926746
0.000926599
0.000926538
0.000926289
0.000926105
0.000925711
0.000925445
0.000925066
0.000924708
0.000924354
0.000924007
0.000923659
0.000923286
0.00092286
0.000922353
0.000921754
0.000921064
0.000920302
0.000919498
0.00091869
0.000917916
0.00091722
0.000916608
0.000916054
0.000915617
0.000915378
0.000915139
0.000914894
0.000914432
0.000913612
0.000912417
0.000910925
0.000909222
0.000907354
0.000905315
0.000903058
0.00090052
0.000897646
0.00089441
0.000890817
0.000886907
0.000882745
0.000878412
0.000873995
0.000869577
0.000865231
0.000861015
0.000856974
0.000853134
0.000849509
0.000846098
0.000842892
0.000839872
0.000837015
0.000834293
0.000831678
0.000829145
0.000826668
0.000824227
0.000821805
0.000819389
0.000816971
0.000814546
0.000812111
0.000809667
0.000807216
0.00080476
0.000802303
0.000799849
0.0007974
0.00079496
0.000792532
0.000790117
0.000787718
0.000785337
0.000782974
0.00078063
0.000778306
0.000776003
0.00077372
0.000771458
0.000769218
0.000766997
0.000764798
0.000762619
0.000760461
0.000758323
0.000756205
0.000754107
0.000752029
0.000749971
0.000747933
0.000745915
0.000743916
0.000741936
0.000739975
0.000738033
0.00073611
0.000734204
0.000732316
0.000730445
0.000728592
0.000726757
0.000724939
0.000723139
0.000721358
0.000719594
0.000717849
0.000716123
0.000714413
0.000712721
0.000711044
0.000709381
0.000707731
0.000706092
0.000704465
0.000702847
0.00070124
0.000699644
0.000698059
0.000696487
0.000694927
0.000693381
0.000691849
0.000690331
0.000688828
0.000687338
0.00068586
0.00068439
0.000682928
0.00068147
0.000680014
0.00067856
0.000677109
0.000675665
0.000674234
0.000672821
0.000671437
0.00067009
0.00066879
0.000667545
0.000666363
0.000665248
0.000664204
0.000663231
0.000662327
0.000661489
0.000660711
0.000659984
0.000659301
0.000658649
0.000658017
0.00065739
0.000656754
0.000656093
0.000655391
0.000654632
0.000653801
0.000652884
0.000651869
0.000650748
0.000649516
0.00064817
0.000646714
0.000645155
0.000643503
0.000641772
0.000639977
0.000638137
0.000636271
0.000634395
0.000632528
0.000630685
0.000628878
0.000627119
0.000625415
0.00062377
0.000622188
0.000620669
0.00061921
0.000617808
0.000616459
0.000615157
0.000613896
0.000612669
0.000611472
0.000610298
0.000609143
0.000608
0.000606867
0.00060574
0.000604617
0.000603495
0.000602373
0.000601249
0.000600125
0.000598998
0.000597869
0.000596739
0.000595609
0.000594478
0.000593347
0.000592218
0.000591091
0.000589966
0.000588845
0.000587728
0.000586615
0.000585506
0.000584404
0.000583306
0.000582215
0.000581129
0.00058005
0.000578977
0.000577911
0.000576851
0.000575798
0.000574752
0.000573713
0.000572681
0.000571655
0.000570637
0.000569625
0.00056862
0.000567622
0.000566631
0.000565647
0.000564669
0.000563699
0.000562735
0.000561777
0.000560827
0.000559883
0.000558947
0.000558017
0.000557094
0.000556178
0.000555269
0.000554367
0.000553472
0.000552583
0.000551701
0.000550825
0.000549956
0.000549092
0.000548234
0.000547381
0.000546533
0.000545691
0.000544853
0.000544021
0.000543193
0.00054237
0.000541552
0.000540738
0.00053993
0.000539126
0.000538327
0.000537532
0.000536742
0.000535955
0.000535171
0.000534391
0.000533614
0.000532839
0.000532068
0.000531299
0.000530535
0.000529775
0.000529022
0.000528277
0.000527542
0.000526819
0.00052611
0.000525419
0.000524747
0.000524097
0.000523471
0.00052287
0.000522297
0.000521752
0.000521236
0.000520749
0.00052029
0.000519857
0.000519448
0.000519062
0.000518694
0.000518341
0.000517998
0.000517661
0.000517324
0.000516982
0.000516628
0.000516258
0.000515864
0.000515442
0.000514986
0.000514491
0.000513953
0.000513369
0.000512737
0.000512055
0.000511322
0.000510541
0.000509713
0.00050884
0.000507928
0.000506981
0.000506005
0.000505006
0.00050399
0.000502963
0.000501932
0.000500903
0.00049988
0.000498869
0.000497874
0.000496898
0.000495944
0.000495012
0.000494106
0.000493224
0.000492366
0.000491533
0.000490723
0.000489933
0.000489164
0.000488412
0.000487676
0.000486954
0.000486244
0.000485543
0.000484852
0.000484166
0.000483487
0.00048281
0.000482137
0.000481466
0.000480796
0.000480126
0.000479458
0.000478788
0.000478118
0.000477448
0.000476778
0.000476107
0.000475436
0.000474765
0.000474094
0.000473423
0.000472754
0.000472085
0.000471417
0.000470751
0.000470087
0.000469424
0.000468763
0.000468105
0.000467449
0.000466795
0.000466144
0.000465496
0.000464852
0.00046421
0.000463571
0.000462935
0.000462303
0.000461674
0.000461048
0.000460426
0.000459807
0.000459191
0.00045858
0.000457971
0.000457366
0.000456765
0.000456167
0.000455573
0.000454983
0.000454396
0.000453813
0.000453234
0.000452658
0.000452086
0.000451518
0.000450954
0.000450393
0.000449835
0.000449281
0.000448731
0.000448184
0.000447641
0.000447101
0.000446564
0.00044603
0.000445499
0.000444972
0.000444447
0.000443925
0.000443406
0.00044289
0.000442376
0.000441865
0.000441357
0.000440851
0.000440347
0.000439846
0.000439347
0.00043885
0.000438355
0.000437862
0.000437371
0.000436883
0.000436396
0.000435911
0.000435429
0.000434949
0.000434473
0.000434
0.000433532
0.000433068
0.00043261
0.000432158
0.000431713
0.000431276
0.000430849
0.000430431
0.000430024
0.000429629
0.000429246
0.000428876
0.00042852
0.000428177
0.000427848
0.000427534
0.000427232
0.000426944
0.000426669
0.000426404
0.00042615
0.000425905
0.000425667
0.000425435
0.000425206
0.000424978
0.000424749
0.000424517
0.000424279
0.000424032
0.000423774
0.000423503
0.000423216
0.000422911
0.000422586
0.000422239
0.000421868
0.000421473
0.000421053
0.000420607
0.000420135
0.000419637
0.000419115
0.000418569
0.000418001
0.000417413
0.000416807
0.000416185
0.00041555
0.000414904
0.000414251
0.000413592
0.00041293
0.000412269
0.000411609
0.000410954
0.000410305
0.000409664
0.000409032
0.00040841
0.000407799
0.000407199
0.000406611
0.000406034
0.000405469
0.000404916
0.000404373
0.000403841
0.000403318
0.000402805
0.000402299
0.0004018
0.000401309
0.000400823
0.000400341
0.000399865
0.000399392
0.000398921
0.000398454
0.000397988
0.000397524
0.000397061
0.000396599
0.000396137
0.000395676
0.000395215
0.000394755
0.000394295
0.000393834
0.000393374
0.000392914
0.000392454
0.000391995
0.000391535
0.000391077
0.000390619
0.000390161
0.000389705
0.000389249
0.000388794
0.000388341
0.000387888
0.000387437
0.000386988
0.000386539
0.000386093
0.000385648
0.000385205
0.000384764
0.000384324
0.000383886
0.000383451
0.000383017
0.000382585
0.000382155
0.000381728
0.000381302
0.000380879
0.000380458
0.000380039
0.000379622
0.000379207
0.000378795
0.000378385
0.000377976
0.000377571
0.000377167
0.000376766
0.000376366
0.00037597
0.000375575
0.000375182
0.000374791
0.000374403
0.000374017
0.000373633
0.00037325
0.00037287
0.000372492
0.000372116
0.000371741
0.000371369
0.000370997
0.000370629
0.00037026
0.000369895
0.00036953
0.000369168
0.000368806
0.000368447
0.000368088
0.000367732
0.000367376
0.000367022
0.000366669
0.000366317
0.000365967
0.000365618
0.00036527
0.000364924
0.00036458
0.000364237
0.000363897
0.000363558
0.000363223
0.000362889
0.000362559
0.000362233
0.000361909
0.000361591
0.000361276
0.000360966
0.000360662
0.000360364
0.000360071
0.000359785
0.000359505
0.000359233
0.000358967
0.000358709
0.000358458
0.000358215
0.000357979
0.00035775
0.000357528
0.000357313
0.000357104
0.000356901
0.000356702
0.000356508
0.000356317
0.00035613
0.000355943
0.000355758
0.000355572
0.000355384
0.000355194
0.000355
0.0003548
0.000354595
0.000354382
0.00035416
0.000353929
0.000353687
0.000353434
0.000353168
0.000352888
0.000352596
0.000352288
0.000351967
0.00035163
0.000351279
0.000350914
0.000350535
0.000350142
0.000349736
0.000349318
0.00034889
0.000348451
0.000348003
0.000347547
0.000347085
0.000346618
0.000346147
0.000345673
0.000345198
0.000344722
0.000344247
0.000343775
0.000343304
0.000342838
0.000342375
0.000341918
0.000341465
0.000341018
0.000340577
0.000340143
0.000339714
0.000339291
0.000338875
0.000338464
0.000338059
0.000337659
0.000337264
0.000336874
0.000336488
0.000336106
0.000335728
0.000335353
0.000334981
0.000334612
0.000334245
0.00033388
0.000333516
0.000333155
0.000332794
0.000332434
0.000332075
0.000331716
0.000331358
0.000331001
0.000330644
0.000330287
0.00032993
0.000329573
0.000329216
0.00032886
0.000328504
0.000328148
0.000327791
0.000327436
0.00032708
0.000326725
0.00032637
0.000326015
0.000325661
0.000325307
0.000324954
0.000324602
0.00032425
0.000323899
0.000323548
0.000323199
0.00032285
0.000322502
0.000322155
0.000321809
0.000321464
0.00032112
0.000320777
0.000320434
0.000320094
0.000319754
0.000319415
0.000319077
0.000318741
0.000318405
0.000318071
0.000317738
0.000317406
0.000317076
0.000316746
0.000316418
0.000316091
0.000315765
0.00031544
0.000315116
0.000314793
0.000314472
0.000314152
0.000313833
0.000313515
0.000313198
0.000312882
0.000312567
0.000312253
0.00031194
0.000311628
0.000311317
0.000311007
0.000310698
0.00031039
0.000310083
0.000309776
0.000309471
0.000309166
0.000308862
0.000308559
0.000308256
0.000307954
0.000307653
0.000307353
0.000307054
0.000306756
0.000306458
0.000306161
0.000305865
0.000305571
0.000305277
0.000304985
0.000304694
0.000304405
0.000304117
0.000303831
0.000303547
0.000303266
0.000302986
0.00030271
0.000302436
0.000302165
0.000301898
0.000301635
0.000301375
0.00030112
0.00030087
0.000300624
0.000300384
0.000300149
0.00029992
0.000299697
0.00029948
0.000299271
0.000299068
0.000298874
0.000298687
0.000298508
0.000298338
0.000298176
0.000298024
0.000297881
0.000297748
0.000297625
0.000297512
0.000297409
0.000297317
0.000297236
0.000297164
0.000297104
0.000297052
0.00029701
0.000296977
0.000296952
0.000296936
0.000296925
0.000296921
0.000296921
0.000296923
0.000296929
0.000296937
0.000296944
0.000296951
0.000296956
0.000296957
0.000296956
0.000296949
0.000296938
0.00029692
0.000296896
0.000296865
0.000296826
0.00029678
0.000296723
0.000296655
0.00029657
0.000296459
0.00029631
0.000296094
0.000295766
0.00029524
0.000294375
0.000292931
0.00029055
0.000286759
0.000281127
0.000273675
0.000265339
0.000257829
0.000252469
0.000249337
0.00024772
0.000246915
0.000246498
0.000246264
0.000246118
0.000246016
0.000245937
0.000245871
0.000245813
0.00024576
0.00024571
0.000245664
0.00024562
0.000245578
0.000245538
0.000245501
0.000245465
0.00024543
0.000245398
0.000245366
0.000245337
0.000245308
0.00024528
0.000245253
0.000245227
0.000245202
0.000245177
0.000245153
0.000245129
0.000245106
0.000245083
0.00024506
0.000245038
0.000245015
0.000244993
0.00024497
0.000244948
0.000244926
0.000244904
0.000244881
0.000244859
0.000244837
0.000244815
0.000244792
0.00024477
0.000244748
0.000244726
0.000244704
0.000244682
0.00024466
0.000244638
0.000244617
0.000244595
0.000244574
0.000244553
0.000244533
0.000244513
0.000244492
0.000244473
0.000244454
0.000244435
0.000244416
0.000244398
0.00024438
0.000244363
0.000244347
0.000244331
0.000244315
0.0002443
0.000244285
0.000244271
0.000244258
0.000244245
0.000244233
0.000244221
0.00024421
0.0002442
0.00024419
0.000244181
0.000244172
0.000244164
0.000244157
0.000244151
0.000244145
0.000244139
0.000244135
0.000244131
0.000244127
0.000244125
0.000244123
0.000244122
0.000244121
0.000244121
0.000244122
0.000244122
0.000244124
0.000244124
0.000244128
0.000244129
0.000244136
0.000244137
0.000244163
)
;

boundaryField
{
    inlet
    {
        type            calculated;
        value           uniform 0.000236304;
    }
    outlet
    {
        type            calculated;
        value           uniform 0.000244146;
    }
    emptyWalls
    {
        type            empty;
    }
}


// ************************************************************************* //
