/*--------------------------------*- C++ -*----------------------------------*\
  =========                 |
  \\      /  F ield         | OpenFOAM: The Open Source CFD Toolbox
   \\    /   O peration     | Website:  https://openfoam.org
    \\  /    A nd           | Version:  9
     \\/     M anipulation  |
\*---------------------------------------------------------------------------*/
FoamFile
{
    format      ascii;
    class       volScalarField;
    location    "22250";
    object      Sa;
}
// * * * * * * * * * * * * * * * * * * * * * * * * * * * * * * * * * * * * * //

dimensions      [0 0 0 0 0 0 0];

internalField   nonuniform List<scalar> 
1000
(
0.549497
0.548551
0.547247
0.545954
0.544665
0.543367
0.54206
0.54075
0.539423
0.538086
0.536745
0.535382
0.534044
0.532665
0.531371
0.529998
0.528785
0.527478
0.526365
0.525209
0.524219
0.523267
0.522439
0.52169
0.521038
0.520456
0.519918
0.519262
0.517825
0.512876
0.492771
0.368439
0.13332
0.081203
0.0662862
0.0593825
0.0551389
0.0520616
0.0496212
0.0475697
0.0457938
0.0442174
0.042804
0.0415185
0.0403465
0.0392676
0.0382749
0.0373551
0.0365034
0.0357103
0.0349734
0.0342829
0.0336382
0.033033
0.0324648
0.0319299
0.0314268
0.0309506
0.0305015
0.0300738
0.0296704
0.0292843
0.028919
0.0285681
0.0282362
0.0279153
0.0276067
0.0273134
0.0270349
0.0267711
0.0265212
0.0262844
0.02606
0.0258473
0.0256461
0.0254563
0.025278
0.0251114
0.0249566
0.0248141
0.0246838
0.0245654
0.0244603
0.0243712
0.0242977
0.0242428
0.0242055
0.0241822
0.0241649
0.0241452
0.0241226
0.0240978
0.0240707
0.0240406
0.0240068
0.0239685
0.0239252
0.0238771
0.0238247
0.0237687
0.0237104
0.0236507
0.0235909
0.0235319
0.0234745
0.0234194
0.0233668
0.0233171
0.0232703
0.0232261
0.0231845
0.023145
0.0231073
0.0230711
0.0230359
0.0230015
0.0229675
0.0229337
0.0229
0.0228662
0.0228322
0.022798
0.0227637
0.0227292
0.0226946
0.02266
0.0226253
0.0225906
0.022556
0.0225215
0.0224872
0.0224531
0.0224191
0.0223853
0.0223518
0.0223185
0.0222855
0.0222527
0.0222201
0.0221878
0.0221558
0.022124
0.0220925
0.0220612
0.0220301
0.0219994
0.0219688
0.0219385
0.0219085
0.0218787
0.0218492
0.0218199
0.0217908
0.021762
0.0217334
0.0217051
0.021677
0.0216491
0.0216214
0.021594
0.0215667
0.0215398
0.021513
0.0214865
0.0214602
0.0214342
0.0214084
0.0213828
0.0213575
0.0213323
0.0213074
0.0212826
0.0212579
0.0212334
0.021209
0.0211848
0.0211606
0.0211367
0.0211128
0.0210892
0.0210657
0.0210424
0.0210193
0.0209964
0.0209737
0.0209511
0.0209287
0.0209063
0.020884
0.0208617
0.0208393
0.0208171
0.0207949
0.0207728
0.020751
0.0207297
0.0207089
0.0206888
0.0206695
0.0206512
0.020634
0.0206178
0.0206027
0.0205886
0.0205756
0.0205635
0.0205521
0.0205415
0.0205313
0.0205215
0.0205117
0.0205018
0.0204914
0.0204804
0.0204686
0.0204556
0.0204412
0.0204253
0.0204077
0.0203884
0.0203673
0.0203444
0.0203199
0.0202938
0.0202665
0.0202382
0.0202091
0.0201795
0.0201498
0.0201201
0.0200908
0.020062
0.0200339
0.0200067
0.0199803
0.019955
0.0199306
0.0199072
0.0198846
0.0198629
0.0198419
0.0198216
0.0198017
0.0197824
0.0197634
0.0197447
0.0197261
0.0197077
0.0196894
0.0196712
0.0196529
0.0196346
0.0196163
0.0195979
0.0195795
0.0195611
0.0195426
0.0195241
0.0195055
0.019487
0.0194684
0.0194499
0.0194314
0.0194129
0.0193945
0.0193761
0.0193578
0.0193396
0.0193214
0.0193033
0.0192853
0.0192674
0.0192496
0.0192318
0.0192142
0.0191966
0.0191792
0.0191618
0.0191446
0.0191275
0.0191104
0.0190935
0.0190766
0.0190599
0.0190432
0.0190267
0.0190102
0.0189939
0.0189776
0.0189615
0.0189454
0.0189295
0.0189136
0.0188979
0.0188823
0.0188667
0.0188513
0.018836
0.0188208
0.0188057
0.0187907
0.0187757
0.0187609
0.0187462
0.0187315
0.0187169
0.0187024
0.018688
0.0186737
0.0186594
0.0186452
0.0186311
0.018617
0.018603
0.0185891
0.0185753
0.0185615
0.0185478
0.0185341
0.0185206
0.018507
0.0184935
0.0184801
0.0184666
0.0184533
0.0184399
0.0184267
0.0184135
0.0184004
0.0183874
0.0183746
0.018362
0.0183497
0.0183376
0.0183259
0.0183145
0.0183036
0.0182931
0.0182831
0.0182735
0.0182645
0.018256
0.0182479
0.0182403
0.0182331
0.0182264
0.0182199
0.0182137
0.0182077
0.0182017
0.0181958
0.0181898
0.0181836
0.018177
0.0181701
0.0181626
0.0181546
0.0181459
0.0181364
0.0181261
0.0181149
0.0181029
0.0180899
0.0180761
0.0180614
0.018046
0.0180298
0.018013
0.0179956
0.0179779
0.0179598
0.0179415
0.0179231
0.0179047
0.0178864
0.0178683
0.0178505
0.017833
0.0178159
0.0177991
0.0177828
0.0177669
0.0177515
0.0177365
0.0177218
0.0177076
0.0176937
0.01768
0.0176667
0.0176536
0.0176408
0.017628
0.0176155
0.017603
0.0175907
0.0175784
0.0175661
0.0175539
0.0175417
0.0175294
0.0175172
0.017505
0.0174927
0.0174805
0.0174682
0.0174559
0.0174436
0.0174313
0.017419
0.0174066
0.0173943
0.017382
0.0173697
0.0173574
0.0173452
0.017333
0.0173208
0.0173086
0.0172964
0.0172844
0.0172723
0.0172603
0.0172483
0.0172364
0.0172246
0.0172127
0.017201
0.0171893
0.0171776
0.017166
0.0171545
0.017143
0.0171316
0.0171202
0.0171089
0.0170977
0.0170865
0.0170753
0.0170643
0.0170533
0.0170423
0.0170314
0.0170206
0.0170099
0.0169992
0.0169885
0.016978
0.0169675
0.016957
0.0169466
0.0169363
0.016926
0.0169158
0.0169056
0.0168955
0.0168855
0.0168755
0.0168655
0.0168556
0.0168458
0.016836
0.0168262
0.0168165
0.0168068
0.0167972
0.0167876
0.016778
0.0167685
0.016759
0.0167495
0.0167401
0.0167307
0.0167214
0.0167121
0.0167028
0.0166935
0.0166844
0.0166752
0.0166661
0.0166571
0.0166482
0.0166394
0.0166307
0.0166222
0.0166138
0.0166055
0.0165975
0.0165896
0.016582
0.0165746
0.0165675
0.0165606
0.016554
0.0165476
0.0165415
0.0165357
0.0165301
0.0165248
0.0165197
0.0165147
0.01651
0.0165054
0.0165009
0.0164964
0.016492
0.0164876
0.016483
0.0164784
0.0164736
0.0164686
0.0164633
0.0164578
0.0164518
0.0164455
0.0164387
0.0164315
0.0164238
0.0164156
0.0164069
0.0163977
0.016388
0.0163778
0.0163671
0.016356
0.0163445
0.0163327
0.0163205
0.016308
0.0162953
0.0162825
0.0162696
0.0162565
0.0162435
0.0162305
0.0162176
0.0162048
0.0161921
0.0161796
0.0161673
0.0161552
0.0161433
0.0161317
0.0161202
0.016109
0.016098
0.0160872
0.0160766
0.0160662
0.016056
0.0160459
0.016036
0.0160262
0.0160164
0.0160068
0.0159973
0.0159878
0.0159784
0.015969
0.0159597
0.0159504
0.0159411
0.0159318
0.0159226
0.0159133
0.015904
0.0158948
0.0158855
0.0158762
0.0158669
0.0158576
0.0158484
0.0158391
0.0158298
0.0158205
0.0158113
0.015802
0.0157927
0.0157835
0.0157743
0.0157651
0.0157559
0.0157467
0.0157376
0.0157285
0.0157194
0.0157103
0.0157013
0.0156923
0.0156833
0.0156744
0.0156655
0.0156567
0.0156478
0.015639
0.0156303
0.0156216
0.0156129
0.0156043
0.0155957
0.0155871
0.0155786
0.0155701
0.0155617
0.0155533
0.0155449
0.0155366
0.0155284
0.0155201
0.015512
0.0155038
0.0154957
0.0154876
0.0154796
0.0154716
0.0154637
0.0154557
0.0154479
0.01544
0.0154322
0.0154245
0.0154167
0.015409
0.0154014
0.0153937
0.0153861
0.0153785
0.015371
0.0153635
0.015356
0.0153485
0.0153411
0.0153336
0.0153263
0.0153189
0.0153115
0.0153042
0.0152969
0.0152896
0.0152824
0.0152752
0.015268
0.0152609
0.0152538
0.0152467
0.0152397
0.0152328
0.0152259
0.0152191
0.0152124
0.0152058
0.0151993
0.0151929
0.0151866
0.0151804
0.0151744
0.0151685
0.0151628
0.0151572
0.0151517
0.0151464
0.0151413
0.0151363
0.0151314
0.0151267
0.0151222
0.0151178
0.0151135
0.0151093
0.0151051
0.0151011
0.0150971
0.0150932
0.0150892
0.0150853
0.0150813
0.0150773
0.0150731
0.0150689
0.0150645
0.01506
0.0150553
0.0150504
0.0150452
0.0150398
0.0150342
0.0150282
0.015022
0.0150155
0.0150086
0.0150014
0.0149939
0.0149861
0.014978
0.0149696
0.014961
0.014952
0.0149429
0.0149335
0.0149239
0.0149141
0.0149042
0.0148941
0.014884
0.0148738
0.0148636
0.0148534
0.0148431
0.0148329
0.0148228
0.0148127
0.0148027
0.0147928
0.014783
0.0147734
0.0147638
0.0147544
0.0147451
0.0147359
0.0147268
0.0147179
0.0147091
0.0147004
0.0146918
0.0146833
0.0146749
0.0146666
0.0146583
0.0146501
0.014642
0.0146339
0.0146259
0.0146179
0.0146099
0.014602
0.0145941
0.0145862
0.0145783
0.0145705
0.0145626
0.0145547
0.0145469
0.014539
0.0145312
0.0145233
0.0145155
0.0145076
0.0144997
0.0144919
0.014484
0.0144761
0.0144683
0.0144604
0.0144526
0.0144447
0.0144369
0.014429
0.0144212
0.0144134
0.0144056
0.0143978
0.01439
0.0143822
0.0143744
0.0143667
0.0143589
0.0143512
0.0143435
0.0143358
0.0143282
0.0143205
0.0143129
0.0143053
0.0142977
0.0142902
0.0142827
0.0142751
0.0142676
0.0142602
0.0142527
0.0142453
0.0142379
0.0142305
0.0142232
0.0142158
0.0142085
0.0142012
0.0141939
0.0141867
0.0141795
0.0141723
0.0141651
0.0141579
0.0141508
0.0141436
0.0141365
0.0141295
0.0141224
0.0141153
0.0141083
0.0141013
0.0140943
0.0140873
0.0140804
0.0140734
0.0140665
0.0140596
0.0140527
0.0140458
0.0140389
0.014032
0.0140252
0.0140184
0.0140116
0.0140047
0.013998
0.0139912
0.0139845
0.0139778
0.0139711
0.0139644
0.0139578
0.0139512
0.0139446
0.0139381
0.0139316
0.0139252
0.0139188
0.0139125
0.0139063
0.0139002
0.0138941
0.0138881
0.0138823
0.0138765
0.0138708
0.0138653
0.0138598
0.0138546
0.0138494
0.0138444
0.0138396
0.0138349
0.0138304
0.013826
0.0138219
0.013818
0.0138142
0.0138107
0.0138074
0.0138043
0.0138014
0.0137988
0.0137965
0.0137943
0.0137924
0.0137908
0.0137894
0.0137881
0.0137872
0.0137864
0.0137858
0.0137855
0.0137852
0.0137851
0.0137851
0.0137852
0.0137853
0.0137855
0.0137856
0.0137858
0.0137859
0.0137859
0.0137859
0.0137858
0.0137855
0.0137851
0.0137845
0.0137838
0.0137829
0.0137818
0.0137805
0.0137789
0.013777
0.0137744
0.0137709
0.0137659
0.0137583
0.013746
0.0137259
0.0136921
0.0136364
0.0135471
0.0134134
0.0132345
0.0130314
0.0128457
0.0127115
0.0126324
0.0125913
0.0125708
0.0125602
0.0125543
0.0125505
0.0125479
0.0125459
0.0125442
0.0125427
0.0125414
0.0125401
0.0125389
0.0125378
0.0125367
0.0125357
0.0125348
0.0125339
0.012533
0.0125321
0.0125313
0.0125306
0.0125298
0.0125291
0.0125284
0.0125278
0.0125271
0.0125265
0.0125259
0.0125253
0.0125247
0.0125241
0.0125235
0.0125229
0.0125224
0.0125218
0.0125212
0.0125207
0.0125201
0.0125195
0.012519
0.0125184
0.0125178
0.0125172
0.0125167
0.0125161
0.0125155
0.012515
0.0125144
0.0125138
0.0125133
0.0125127
0.0125122
0.0125116
0.0125111
0.0125106
0.01251
0.0125095
0.012509
0.0125085
0.012508
0.0125075
0.0125071
0.0125066
0.0125061
0.0125057
0.0125053
0.0125049
0.0125045
0.0125041
0.0125037
0.0125033
0.012503
0.0125027
0.0125024
0.0125021
0.0125018
0.0125015
0.0125013
0.012501
0.0125008
0.0125006
0.0125004
0.0125003
0.0125001
0.0125
0.0124999
0.0124997
0.0124997
0.0124996
0.0124995
0.0124995
0.0124995
0.0124995
0.0124995
0.0124995
0.0124996
0.0124996
0.0124997
0.0124997
0.0124999
0.0124999
0.0125006
)
;

boundaryField
{
    inlet
    {
        type            fixedValue;
        value           uniform 0.55;
    }
    outlet
    {
        type            zeroGradient;
    }
    emptyWalls
    {
        type            empty;
    }
}


// ************************************************************************* //
