/*--------------------------------*- C++ -*----------------------------------*\
  =========                 |
  \\      /  F ield         | OpenFOAM: The Open Source CFD Toolbox
   \\    /   O peration     | Website:  https://openfoam.org
    \\  /    A nd           | Version:  9
     \\/     M anipulation  |
\*---------------------------------------------------------------------------*/
FoamFile
{
    format      ascii;
    class       volVectorField;
    location    "10200";
    object      Ua;
}
// * * * * * * * * * * * * * * * * * * * * * * * * * * * * * * * * * * * * * //

dimensions      [0 0 0 0 0 0 0];

internalField   nonuniform List<vector> 
1000
(
(2.74922e-06 0 0)
(2.74896e-06 0 0)
(2.74816e-06 0 0)
(2.74738e-06 0 0)
(2.74619e-06 0 0)
(2.74476e-06 0 0)
(2.74339e-06 0 0)
(2.74177e-06 0 0)
(2.74033e-06 0 0)
(2.73884e-06 0 0)
(2.73701e-06 0 0)
(2.73252e-06 0 0)
(2.71688e-06 0 0)
(2.63708e-06 0 0)
(2.38795e-06 0 0)
(2.1717e-06 0 0)
(2.12646e-06 0 0)
(2.11032e-06 0 0)
(2.10098e-06 0 0)
(2.09425e-06 0 0)
(2.08901e-06 0 0)
(2.08488e-06 0 0)
(2.08169e-06 0 0)
(2.0792e-06 0 0)
(2.07714e-06 0 0)
(2.07532e-06 0 0)
(2.07381e-06 0 0)
(2.07298e-06 0 0)
(2.0732e-06 0 0)
(2.07481e-06 0 0)
(2.07773e-06 0 0)
(2.08132e-06 0 0)
(2.08449e-06 0 0)
(2.08673e-06 0 0)
(2.08856e-06 0 0)
(2.09008e-06 0 0)
(2.0911e-06 0 0)
(2.09164e-06 0 0)
(2.09156e-06 0 0)
(2.09069e-06 0 0)
(2.08875e-06 0 0)
(2.08561e-06 0 0)
(2.08142e-06 0 0)
(2.07648e-06 0 0)
(2.07112e-06 0 0)
(2.06567e-06 0 0)
(2.06046e-06 0 0)
(2.05574e-06 0 0)
(2.05171e-06 0 0)
(2.04845e-06 0 0)
(2.04601e-06 0 0)
(2.04433e-06 0 0)
(2.04332e-06 0 0)
(2.04287e-06 0 0)
(2.04284e-06 0 0)
(2.04308e-06 0 0)
(2.04349e-06 0 0)
(2.04394e-06 0 0)
(2.04435e-06 0 0)
(2.04467e-06 0 0)
(2.04485e-06 0 0)
(2.04488e-06 0 0)
(2.04475e-06 0 0)
(2.04448e-06 0 0)
(2.04408e-06 0 0)
(2.04357e-06 0 0)
(2.04297e-06 0 0)
(2.04231e-06 0 0)
(2.04159e-06 0 0)
(2.04084e-06 0 0)
(2.04006e-06 0 0)
(2.03927e-06 0 0)
(2.03848e-06 0 0)
(2.03769e-06 0 0)
(2.0369e-06 0 0)
(2.03613e-06 0 0)
(2.03537e-06 0 0)
(2.03462e-06 0 0)
(2.03389e-06 0 0)
(2.03318e-06 0 0)
(2.03248e-06 0 0)
(2.03179e-06 0 0)
(2.03112e-06 0 0)
(2.03047e-06 0 0)
(2.02982e-06 0 0)
(2.02919e-06 0 0)
(2.02858e-06 0 0)
(2.02797e-06 0 0)
(2.02738e-06 0 0)
(2.0268e-06 0 0)
(2.02622e-06 0 0)
(2.02567e-06 0 0)
(2.02512e-06 0 0)
(2.02458e-06 0 0)
(2.02405e-06 0 0)
(2.02353e-06 0 0)
(2.02303e-06 0 0)
(2.02253e-06 0 0)
(2.02204e-06 0 0)
(2.02156e-06 0 0)
(2.02108e-06 0 0)
(2.02061e-06 0 0)
(2.02015e-06 0 0)
(2.0197e-06 0 0)
(2.01926e-06 0 0)
(2.01882e-06 0 0)
(2.01839e-06 0 0)
(2.01798e-06 0 0)
(2.01756e-06 0 0)
(2.01716e-06 0 0)
(2.01677e-06 0 0)
(2.01638e-06 0 0)
(2.01601e-06 0 0)
(2.01564e-06 0 0)
(2.01529e-06 0 0)
(2.01494e-06 0 0)
(2.0146e-06 0 0)
(2.01428e-06 0 0)
(2.01396e-06 0 0)
(2.01365e-06 0 0)
(2.01335e-06 0 0)
(2.01307e-06 0 0)
(2.01278e-06 0 0)
(2.01251e-06 0 0)
(2.01225e-06 0 0)
(2.01199e-06 0 0)
(2.01174e-06 0 0)
(2.01149e-06 0 0)
(2.01124e-06 0 0)
(2.01099e-06 0 0)
(2.01074e-06 0 0)
(2.01048e-06 0 0)
(2.01022e-06 0 0)
(2.00995e-06 0 0)
(2.00969e-06 0 0)
(2.00942e-06 0 0)
(2.00917e-06 0 0)
(2.00893e-06 0 0)
(2.0087e-06 0 0)
(2.00848e-06 0 0)
(2.00829e-06 0 0)
(2.0081e-06 0 0)
(2.00793e-06 0 0)
(2.00778e-06 0 0)
(2.00764e-06 0 0)
(2.00753e-06 0 0)
(2.00745e-06 0 0)
(2.00742e-06 0 0)
(2.00744e-06 0 0)
(2.00755e-06 0 0)
(2.00775e-06 0 0)
(2.00807e-06 0 0)
(2.00852e-06 0 0)
(2.00912e-06 0 0)
(2.00988e-06 0 0)
(2.0108e-06 0 0)
(2.01188e-06 0 0)
(2.01312e-06 0 0)
(2.0145e-06 0 0)
(2.01601e-06 0 0)
(2.01763e-06 0 0)
(2.01932e-06 0 0)
(2.02106e-06 0 0)
(2.02279e-06 0 0)
(2.02449e-06 0 0)
(2.02611e-06 0 0)
(2.02759e-06 0 0)
(2.02889e-06 0 0)
(2.02995e-06 0 0)
(2.03075e-06 0 0)
(2.03122e-06 0 0)
(2.03135e-06 0 0)
(2.0311e-06 0 0)
(2.03048e-06 0 0)
(2.02946e-06 0 0)
(2.02808e-06 0 0)
(2.02636e-06 0 0)
(2.02434e-06 0 0)
(2.02205e-06 0 0)
(2.01957e-06 0 0)
(2.01696e-06 0 0)
(2.01426e-06 0 0)
(2.01156e-06 0 0)
(2.0089e-06 0 0)
(2.00633e-06 0 0)
(2.0039e-06 0 0)
(2.00163e-06 0 0)
(1.99956e-06 0 0)
(1.9977e-06 0 0)
(1.99606e-06 0 0)
(1.99462e-06 0 0)
(1.99339e-06 0 0)
(1.99234e-06 0 0)
(1.99146e-06 0 0)
(1.99073e-06 0 0)
(1.99013e-06 0 0)
(1.98962e-06 0 0)
(1.9892e-06 0 0)
(1.98884e-06 0 0)
(1.98852e-06 0 0)
(1.98822e-06 0 0)
(1.98792e-06 0 0)
(1.98762e-06 0 0)
(1.98731e-06 0 0)
(1.98697e-06 0 0)
(1.98661e-06 0 0)
(1.98621e-06 0 0)
(1.98578e-06 0 0)
(1.98532e-06 0 0)
(1.98482e-06 0 0)
(1.98428e-06 0 0)
(1.98372e-06 0 0)
(1.98313e-06 0 0)
(1.98251e-06 0 0)
(1.98188e-06 0 0)
(1.98122e-06 0 0)
(1.98054e-06 0 0)
(1.97986e-06 0 0)
(1.97916e-06 0 0)
(1.97846e-06 0 0)
(1.97774e-06 0 0)
(1.97703e-06 0 0)
(1.97631e-06 0 0)
(1.97559e-06 0 0)
(1.97488e-06 0 0)
(1.97416e-06 0 0)
(1.97345e-06 0 0)
(1.97275e-06 0 0)
(1.97205e-06 0 0)
(1.97137e-06 0 0)
(1.97069e-06 0 0)
(1.97001e-06 0 0)
(1.96935e-06 0 0)
(1.9687e-06 0 0)
(1.96807e-06 0 0)
(1.96744e-06 0 0)
(1.96682e-06 0 0)
(1.96622e-06 0 0)
(1.96563e-06 0 0)
(1.96504e-06 0 0)
(1.96447e-06 0 0)
(1.96391e-06 0 0)
(1.96336e-06 0 0)
(1.96282e-06 0 0)
(1.96229e-06 0 0)
(1.96177e-06 0 0)
(1.96125e-06 0 0)
(1.96074e-06 0 0)
(1.96024e-06 0 0)
(1.95974e-06 0 0)
(1.95924e-06 0 0)
(1.95876e-06 0 0)
(1.95827e-06 0 0)
(1.9578e-06 0 0)
(1.95732e-06 0 0)
(1.95685e-06 0 0)
(1.95638e-06 0 0)
(1.95592e-06 0 0)
(1.95546e-06 0 0)
(1.95501e-06 0 0)
(1.95456e-06 0 0)
(1.95411e-06 0 0)
(1.95367e-06 0 0)
(1.95324e-06 0 0)
(1.9528e-06 0 0)
(1.95238e-06 0 0)
(1.95196e-06 0 0)
(1.95155e-06 0 0)
(1.95114e-06 0 0)
(1.95073e-06 0 0)
(1.95034e-06 0 0)
(1.94995e-06 0 0)
(1.94956e-06 0 0)
(1.94919e-06 0 0)
(1.94882e-06 0 0)
(1.94845e-06 0 0)
(1.94809e-06 0 0)
(1.94774e-06 0 0)
(1.94739e-06 0 0)
(1.94705e-06 0 0)
(1.94671e-06 0 0)
(1.94638e-06 0 0)
(1.94605e-06 0 0)
(1.94572e-06 0 0)
(1.9454e-06 0 0)
(1.94508e-06 0 0)
(1.94477e-06 0 0)
(1.94445e-06 0 0)
(1.94414e-06 0 0)
(1.94383e-06 0 0)
(1.94353e-06 0 0)
(1.94323e-06 0 0)
(1.94293e-06 0 0)
(1.94264e-06 0 0)
(1.94235e-06 0 0)
(1.94206e-06 0 0)
(1.94179e-06 0 0)
(1.94151e-06 0 0)
(1.94125e-06 0 0)
(1.94099e-06 0 0)
(1.94075e-06 0 0)
(1.94052e-06 0 0)
(1.9403e-06 0 0)
(1.9401e-06 0 0)
(1.93991e-06 0 0)
(1.93976e-06 0 0)
(1.93962e-06 0 0)
(1.93952e-06 0 0)
(1.93946e-06 0 0)
(1.93943e-06 0 0)
(1.93945e-06 0 0)
(1.93952e-06 0 0)
(1.93964e-06 0 0)
(1.93982e-06 0 0)
(1.94006e-06 0 0)
(1.94036e-06 0 0)
(1.94073e-06 0 0)
(1.94117e-06 0 0)
(1.94167e-06 0 0)
(1.94224e-06 0 0)
(1.94287e-06 0 0)
(1.94357e-06 0 0)
(1.94431e-06 0 0)
(1.9451e-06 0 0)
(1.94594e-06 0 0)
(1.9468e-06 0 0)
(1.94767e-06 0 0)
(1.94855e-06 0 0)
(1.94943e-06 0 0)
(1.95028e-06 0 0)
(1.95109e-06 0 0)
(1.95185e-06 0 0)
(1.95254e-06 0 0)
(1.95313e-06 0 0)
(1.95363e-06 0 0)
(1.95401e-06 0 0)
(1.95425e-06 0 0)
(1.95435e-06 0 0)
(1.9543e-06 0 0)
(1.95408e-06 0 0)
(1.95369e-06 0 0)
(1.95312e-06 0 0)
(1.95239e-06 0 0)
(1.95148e-06 0 0)
(1.95041e-06 0 0)
(1.94919e-06 0 0)
(1.94782e-06 0 0)
(1.94633e-06 0 0)
(1.94473e-06 0 0)
(1.94303e-06 0 0)
(1.94127e-06 0 0)
(1.93945e-06 0 0)
(1.9376e-06 0 0)
(1.93573e-06 0 0)
(1.93388e-06 0 0)
(1.93205e-06 0 0)
(1.93025e-06 0 0)
(1.92851e-06 0 0)
(1.92683e-06 0 0)
(1.92523e-06 0 0)
(1.9237e-06 0 0)
(1.92226e-06 0 0)
(1.9209e-06 0 0)
(1.91963e-06 0 0)
(1.91844e-06 0 0)
(1.91733e-06 0 0)
(1.91629e-06 0 0)
(1.91533e-06 0 0)
(1.91444e-06 0 0)
(1.9136e-06 0 0)
(1.91282e-06 0 0)
(1.91208e-06 0 0)
(1.91138e-06 0 0)
(1.91071e-06 0 0)
(1.91007e-06 0 0)
(1.90945e-06 0 0)
(1.90884e-06 0 0)
(1.90825e-06 0 0)
(1.90767e-06 0 0)
(1.90709e-06 0 0)
(1.90651e-06 0 0)
(1.90593e-06 0 0)
(1.90535e-06 0 0)
(1.90478e-06 0 0)
(1.9042e-06 0 0)
(1.90363e-06 0 0)
(1.90306e-06 0 0)
(1.90249e-06 0 0)
(1.90194e-06 0 0)
(1.90139e-06 0 0)
(1.90085e-06 0 0)
(1.90033e-06 0 0)
(1.89983e-06 0 0)
(1.89935e-06 0 0)
(1.89889e-06 0 0)
(1.89844e-06 0 0)
(1.89802e-06 0 0)
(1.89761e-06 0 0)
(1.89721e-06 0 0)
(1.8968e-06 0 0)
(1.89637e-06 0 0)
(1.89589e-06 0 0)
(1.89528e-06 0 0)
(1.89445e-06 0 0)
(1.89322e-06 0 0)
(1.89132e-06 0 0)
(1.88836e-06 0 0)
(1.88393e-06 0 0)
(1.87783e-06 0 0)
(1.87053e-06 0 0)
(1.86326e-06 0 0)
(1.85744e-06 0 0)
(1.85364e-06 0 0)
(1.85151e-06 0 0)
(1.85038e-06 0 0)
(1.84976e-06 0 0)
(1.84938e-06 0 0)
(1.84912e-06 0 0)
(1.84892e-06 0 0)
(1.84876e-06 0 0)
(1.84861e-06 0 0)
(1.84848e-06 0 0)
(1.84835e-06 0 0)
(1.84824e-06 0 0)
(1.84813e-06 0 0)
(1.84803e-06 0 0)
(1.84794e-06 0 0)
(1.84785e-06 0 0)
(1.84777e-06 0 0)
(1.84769e-06 0 0)
(1.84763e-06 0 0)
(1.84756e-06 0 0)
(1.84751e-06 0 0)
(1.84745e-06 0 0)
(1.84741e-06 0 0)
(1.84737e-06 0 0)
(1.84733e-06 0 0)
(1.8473e-06 0 0)
(1.84727e-06 0 0)
(1.84725e-06 0 0)
(1.84723e-06 0 0)
(1.84722e-06 0 0)
(1.84722e-06 0 0)
(1.84721e-06 0 0)
(1.84721e-06 0 0)
(1.84721e-06 0 0)
(1.84722e-06 0 0)
(1.84723e-06 0 0)
(1.84725e-06 0 0)
(1.84727e-06 0 0)
(1.8473e-06 0 0)
(1.84732e-06 0 0)
(1.84735e-06 0 0)
(1.84739e-06 0 0)
(1.84743e-06 0 0)
(1.84747e-06 0 0)
(1.84751e-06 0 0)
(1.84756e-06 0 0)
(1.84761e-06 0 0)
(1.84767e-06 0 0)
(1.84773e-06 0 0)
(1.84779e-06 0 0)
(1.84785e-06 0 0)
(1.84792e-06 0 0)
(1.84799e-06 0 0)
(1.84807e-06 0 0)
(1.84815e-06 0 0)
(1.84823e-06 0 0)
(1.84831e-06 0 0)
(1.8484e-06 0 0)
(1.84849e-06 0 0)
(1.84858e-06 0 0)
(1.84868e-06 0 0)
(1.84878e-06 0 0)
(1.84888e-06 0 0)
(1.84898e-06 0 0)
(1.84909e-06 0 0)
(1.8492e-06 0 0)
(1.84931e-06 0 0)
(1.84943e-06 0 0)
(1.84954e-06 0 0)
(1.84967e-06 0 0)
(1.84979e-06 0 0)
(1.84992e-06 0 0)
(1.85005e-06 0 0)
(1.85019e-06 0 0)
(1.85033e-06 0 0)
(1.85047e-06 0 0)
(1.85063e-06 0 0)
(1.85078e-06 0 0)
(1.85095e-06 0 0)
(1.85112e-06 0 0)
(1.8513e-06 0 0)
(1.85149e-06 0 0)
(1.85169e-06 0 0)
(1.8519e-06 0 0)
(1.85213e-06 0 0)
(1.85237e-06 0 0)
(1.85262e-06 0 0)
(1.85289e-06 0 0)
(1.85318e-06 0 0)
(1.85349e-06 0 0)
(1.85383e-06 0 0)
(1.85418e-06 0 0)
(1.85456e-06 0 0)
(1.85497e-06 0 0)
(1.85541e-06 0 0)
(1.85588e-06 0 0)
(1.85638e-06 0 0)
(1.85691e-06 0 0)
(1.85747e-06 0 0)
(1.85807e-06 0 0)
(1.8587e-06 0 0)
(1.85937e-06 0 0)
(1.86007e-06 0 0)
(1.8608e-06 0 0)
(1.86156e-06 0 0)
(1.86236e-06 0 0)
(1.86318e-06 0 0)
(1.86402e-06 0 0)
(1.86489e-06 0 0)
(1.86578e-06 0 0)
(1.86668e-06 0 0)
(1.86759e-06 0 0)
(1.86851e-06 0 0)
(1.86942e-06 0 0)
(1.87033e-06 0 0)
(1.87123e-06 0 0)
(1.87211e-06 0 0)
(1.87296e-06 0 0)
(1.87378e-06 0 0)
(1.87456e-06 0 0)
(1.8753e-06 0 0)
(1.87598e-06 0 0)
(1.8766e-06 0 0)
(1.87715e-06 0 0)
(1.87763e-06 0 0)
(1.87802e-06 0 0)
(1.87834e-06 0 0)
(1.87856e-06 0 0)
(1.87869e-06 0 0)
(1.87875e-06 0 0)
(1.87876e-06 0 0)
(1.87874e-06 0 0)
(1.8786e-06 0 0)
(1.87831e-06 0 0)
(1.87789e-06 0 0)
(1.8774e-06 0 0)
(1.87682e-06 0 0)
(1.87616e-06 0 0)
(1.87545e-06 0 0)
(1.87467e-06 0 0)
(1.87384e-06 0 0)
(1.87297e-06 0 0)
(1.87207e-06 0 0)
(1.87114e-06 0 0)
(1.8702e-06 0 0)
(1.86925e-06 0 0)
(1.86831e-06 0 0)
(1.86737e-06 0 0)
(1.86645e-06 0 0)
(1.86555e-06 0 0)
(1.86469e-06 0 0)
(1.86385e-06 0 0)
(1.86306e-06 0 0)
(1.86231e-06 0 0)
(1.8616e-06 0 0)
(1.86094e-06 0 0)
(1.86032e-06 0 0)
(1.85976e-06 0 0)
(1.85924e-06 0 0)
(1.85876e-06 0 0)
(1.85833e-06 0 0)
(1.85794e-06 0 0)
(1.85759e-06 0 0)
(1.85728e-06 0 0)
(1.857e-06 0 0)
(1.85676e-06 0 0)
(1.85654e-06 0 0)
(1.85634e-06 0 0)
(1.85617e-06 0 0)
(1.85602e-06 0 0)
(1.85588e-06 0 0)
(1.85575e-06 0 0)
(1.85564e-06 0 0)
(1.85553e-06 0 0)
(1.85543e-06 0 0)
(1.85533e-06 0 0)
(1.85524e-06 0 0)
(1.85514e-06 0 0)
(1.85505e-06 0 0)
(1.85495e-06 0 0)
(1.85485e-06 0 0)
(1.85475e-06 0 0)
(1.85464e-06 0 0)
(1.85452e-06 0 0)
(1.85441e-06 0 0)
(1.85428e-06 0 0)
(1.85415e-06 0 0)
(1.85402e-06 0 0)
(1.85388e-06 0 0)
(1.85374e-06 0 0)
(1.85359e-06 0 0)
(1.85343e-06 0 0)
(1.85328e-06 0 0)
(1.85312e-06 0 0)
(1.85295e-06 0 0)
(1.85279e-06 0 0)
(1.85262e-06 0 0)
(1.85245e-06 0 0)
(1.85227e-06 0 0)
(1.8521e-06 0 0)
(1.85193e-06 0 0)
(1.85175e-06 0 0)
(1.85158e-06 0 0)
(1.85141e-06 0 0)
(1.85123e-06 0 0)
(1.85106e-06 0 0)
(1.85089e-06 0 0)
(1.85073e-06 0 0)
(1.85056e-06 0 0)
(1.8504e-06 0 0)
(1.85024e-06 0 0)
(1.85009e-06 0 0)
(1.84994e-06 0 0)
(1.84979e-06 0 0)
(1.84965e-06 0 0)
(1.84951e-06 0 0)
(1.84937e-06 0 0)
(1.84925e-06 0 0)
(1.84912e-06 0 0)
(1.849e-06 0 0)
(1.84889e-06 0 0)
(1.84878e-06 0 0)
(1.84868e-06 0 0)
(1.84859e-06 0 0)
(1.8485e-06 0 0)
(1.84841e-06 0 0)
(1.84834e-06 0 0)
(1.84827e-06 0 0)
(1.8482e-06 0 0)
(1.84814e-06 0 0)
(1.84809e-06 0 0)
(1.84804e-06 0 0)
(1.848e-06 0 0)
(1.84796e-06 0 0)
(1.84793e-06 0 0)
(1.8479e-06 0 0)
(1.84788e-06 0 0)
(1.84787e-06 0 0)
(1.84786e-06 0 0)
(1.84785e-06 0 0)
(1.84785e-06 0 0)
(1.84785e-06 0 0)
(1.84785e-06 0 0)
(1.84786e-06 0 0)
(1.84788e-06 0 0)
(1.8479e-06 0 0)
(1.84792e-06 0 0)
(1.84795e-06 0 0)
(1.84798e-06 0 0)
(1.84801e-06 0 0)
(1.84805e-06 0 0)
(1.84809e-06 0 0)
(1.84813e-06 0 0)
(1.84818e-06 0 0)
(1.84823e-06 0 0)
(1.84828e-06 0 0)
(1.84833e-06 0 0)
(1.84839e-06 0 0)
(1.84845e-06 0 0)
(1.84851e-06 0 0)
(1.84857e-06 0 0)
(1.84864e-06 0 0)
(1.84871e-06 0 0)
(1.84878e-06 0 0)
(1.84886e-06 0 0)
(1.84894e-06 0 0)
(1.84902e-06 0 0)
(1.8491e-06 0 0)
(1.84919e-06 0 0)
(1.84928e-06 0 0)
(1.84937e-06 0 0)
(1.84947e-06 0 0)
(1.84957e-06 0 0)
(1.84967e-06 0 0)
(1.84977e-06 0 0)
(1.84988e-06 0 0)
(1.85e-06 0 0)
(1.85012e-06 0 0)
(1.85024e-06 0 0)
(1.85037e-06 0 0)
(1.8505e-06 0 0)
(1.85064e-06 0 0)
(1.85079e-06 0 0)
(1.85094e-06 0 0)
(1.8511e-06 0 0)
(1.85127e-06 0 0)
(1.85144e-06 0 0)
(1.85163e-06 0 0)
(1.85182e-06 0 0)
(1.85203e-06 0 0)
(1.85225e-06 0 0)
(1.85249e-06 0 0)
(1.85273e-06 0 0)
(1.853e-06 0 0)
(1.85328e-06 0 0)
(1.85357e-06 0 0)
(1.85389e-06 0 0)
(1.85422e-06 0 0)
(1.85458e-06 0 0)
(1.85495e-06 0 0)
(1.85535e-06 0 0)
(1.85577e-06 0 0)
(1.85622e-06 0 0)
(1.85669e-06 0 0)
(1.85718e-06 0 0)
(1.8577e-06 0 0)
(1.85825e-06 0 0)
(1.85882e-06 0 0)
(1.85942e-06 0 0)
(1.86004e-06 0 0)
(1.86068e-06 0 0)
(1.86135e-06 0 0)
(1.86204e-06 0 0)
(1.86274e-06 0 0)
(1.86347e-06 0 0)
(1.86421e-06 0 0)
(1.86496e-06 0 0)
(1.86573e-06 0 0)
(1.8665e-06 0 0)
(1.86727e-06 0 0)
(1.86804e-06 0 0)
(1.86881e-06 0 0)
(1.86957e-06 0 0)
(1.87032e-06 0 0)
(1.87105e-06 0 0)
(1.87176e-06 0 0)
(1.87244e-06 0 0)
(1.87309e-06 0 0)
(1.8737e-06 0 0)
(1.87427e-06 0 0)
(1.8748e-06 0 0)
(1.87528e-06 0 0)
(1.8757e-06 0 0)
(1.87607e-06 0 0)
(1.87637e-06 0 0)
(1.87661e-06 0 0)
(1.87678e-06 0 0)
(1.87688e-06 0 0)
(1.87693e-06 0 0)
(1.87694e-06 0 0)
(1.87693e-06 0 0)
(1.87683e-06 0 0)
(1.87662e-06 0 0)
(1.87631e-06 0 0)
(1.87593e-06 0 0)
(1.8755e-06 0 0)
(1.875e-06 0 0)
(1.87446e-06 0 0)
(1.87387e-06 0 0)
(1.87323e-06 0 0)
(1.87256e-06 0 0)
(1.87186e-06 0 0)
(1.87113e-06 0 0)
(1.87039e-06 0 0)
(1.86963e-06 0 0)
(1.86887e-06 0 0)
(1.86811e-06 0 0)
(1.86736e-06 0 0)
(1.86662e-06 0 0)
(1.86589e-06 0 0)
(1.86518e-06 0 0)
(1.8645e-06 0 0)
(1.86384e-06 0 0)
(1.86321e-06 0 0)
(1.86261e-06 0 0)
(1.86205e-06 0 0)
(1.86152e-06 0 0)
(1.86102e-06 0 0)
(1.86055e-06 0 0)
(1.86012e-06 0 0)
(1.85972e-06 0 0)
(1.85935e-06 0 0)
(1.85901e-06 0 0)
(1.8587e-06 0 0)
(1.85841e-06 0 0)
(1.85815e-06 0 0)
(1.85791e-06 0 0)
(1.85769e-06 0 0)
(1.85749e-06 0 0)
(1.8573e-06 0 0)
(1.85713e-06 0 0)
(1.85697e-06 0 0)
(1.85682e-06 0 0)
(1.85668e-06 0 0)
(1.85654e-06 0 0)
(1.85641e-06 0 0)
(1.85628e-06 0 0)
(1.85616e-06 0 0)
(1.85603e-06 0 0)
(1.85591e-06 0 0)
(1.85578e-06 0 0)
(1.85565e-06 0 0)
(1.85552e-06 0 0)
(1.85539e-06 0 0)
(1.85525e-06 0 0)
(1.85511e-06 0 0)
(1.85496e-06 0 0)
(1.85481e-06 0 0)
(1.85466e-06 0 0)
(1.85451e-06 0 0)
(1.85435e-06 0 0)
(1.85418e-06 0 0)
(1.85401e-06 0 0)
(1.85384e-06 0 0)
(1.85367e-06 0 0)
(1.85349e-06 0 0)
(1.85331e-06 0 0)
(1.85313e-06 0 0)
(1.85295e-06 0 0)
(1.85276e-06 0 0)
(1.85258e-06 0 0)
(1.85239e-06 0 0)
(1.8522e-06 0 0)
(1.85201e-06 0 0)
(1.85182e-06 0 0)
(1.85163e-06 0 0)
(1.85145e-06 0 0)
(1.85126e-06 0 0)
(1.85107e-06 0 0)
(1.85089e-06 0 0)
(1.85071e-06 0 0)
(1.85052e-06 0 0)
(1.85035e-06 0 0)
(1.85017e-06 0 0)
(1.85e-06 0 0)
(1.84983e-06 0 0)
(1.84966e-06 0 0)
(1.8495e-06 0 0)
(1.84934e-06 0 0)
(1.84918e-06 0 0)
(1.84903e-06 0 0)
(1.84888e-06 0 0)
(1.84874e-06 0 0)
(1.8486e-06 0 0)
(1.84847e-06 0 0)
(1.84834e-06 0 0)
(1.84822e-06 0 0)
(1.8481e-06 0 0)
(1.84799e-06 0 0)
(1.84789e-06 0 0)
(1.84779e-06 0 0)
(1.84769e-06 0 0)
(1.84761e-06 0 0)
(1.84753e-06 0 0)
(1.84745e-06 0 0)
(1.84738e-06 0 0)
(1.84732e-06 0 0)
(1.84727e-06 0 0)
(1.84722e-06 0 0)
(1.84717e-06 0 0)
(1.84714e-06 0 0)
(1.84711e-06 0 0)
(1.84708e-06 0 0)
(1.84706e-06 0 0)
(1.84705e-06 0 0)
(1.84705e-06 0 0)
(1.84705e-06 0 0)
(1.84705e-06 0 0)
(1.84705e-06 0 0)
(1.84706e-06 0 0)
(1.84709e-06 0 0)
(1.84711e-06 0 0)
(1.84715e-06 0 0)
(1.84719e-06 0 0)
(1.84723e-06 0 0)
(1.84728e-06 0 0)
(1.84733e-06 0 0)
(1.84739e-06 0 0)
(1.84746e-06 0 0)
(1.84753e-06 0 0)
(1.8476e-06 0 0)
(1.84767e-06 0 0)
(1.84776e-06 0 0)
(1.84784e-06 0 0)
(1.84793e-06 0 0)
(1.84803e-06 0 0)
(1.84812e-06 0 0)
(1.84823e-06 0 0)
(1.84833e-06 0 0)
(1.84844e-06 0 0)
(1.84856e-06 0 0)
(1.84868e-06 0 0)
(1.84881e-06 0 0)
(1.84894e-06 0 0)
(1.84907e-06 0 0)
(1.84921e-06 0 0)
(1.84936e-06 0 0)
(1.84951e-06 0 0)
(1.84967e-06 0 0)
(1.84984e-06 0 0)
(1.85001e-06 0 0)
(1.8502e-06 0 0)
(1.85039e-06 0 0)
(1.85059e-06 0 0)
(1.85079e-06 0 0)
(1.85101e-06 0 0)
(1.85124e-06 0 0)
(1.85148e-06 0 0)
(1.85173e-06 0 0)
(1.852e-06 0 0)
(1.85228e-06 0 0)
(1.85257e-06 0 0)
(1.85288e-06 0 0)
(1.8532e-06 0 0)
(1.85354e-06 0 0)
(1.8539e-06 0 0)
(1.85428e-06 0 0)
(1.85467e-06 0 0)
(1.85508e-06 0 0)
(1.85551e-06 0 0)
(1.85596e-06 0 0)
(1.85644e-06 0 0)
(1.85693e-06 0 0)
(1.85744e-06 0 0)
(1.85797e-06 0 0)
(1.85851e-06 0 0)
(1.85908e-06 0 0)
(1.85967e-06 0 0)
(1.86027e-06 0 0)
(1.86089e-06 0 0)
(1.86152e-06 0 0)
(1.86217e-06 0 0)
(1.86283e-06 0 0)
(1.8635e-06 0 0)
(1.86418e-06 0 0)
(1.86486e-06 0 0)
(1.86555e-06 0 0)
(1.86624e-06 0 0)
(1.86692e-06 0 0)
(1.86761e-06 0 0)
(1.86828e-06 0 0)
(1.86894e-06 0 0)
(1.86959e-06 0 0)
(1.87022e-06 0 0)
(1.87083e-06 0 0)
(1.87142e-06 0 0)
(1.87197e-06 0 0)
(1.8725e-06 0 0)
(1.87299e-06 0 0)
(1.87344e-06 0 0)
(1.87385e-06 0 0)
(1.87422e-06 0 0)
(1.87454e-06 0 0)
(1.87481e-06 0 0)
(1.87503e-06 0 0)
(1.8752e-06 0 0)
(1.87531e-06 0 0)
(1.87536e-06 0 0)
(1.87538e-06 0 0)
(1.87538e-06 0 0)
(1.87535e-06 0 0)
(1.87523e-06 0 0)
(1.87501e-06 0 0)
(1.87474e-06 0 0)
(1.87442e-06 0 0)
(1.87404e-06 0 0)
(1.87362e-06 0 0)
(1.87316e-06 0 0)
(1.87266e-06 0 0)
(1.87213e-06 0 0)
(1.87157e-06 0 0)
(1.87099e-06 0 0)
(1.87038e-06 0 0)
(1.86976e-06 0 0)
(1.86912e-06 0 0)
(1.86848e-06 0 0)
(1.86784e-06 0 0)
(1.8672e-06 0 0)
(1.86656e-06 0 0)
(1.86593e-06 0 0)
(1.86532e-06 0 0)
(1.86471e-06 0 0)
(1.86413e-06 0 0)
(1.86356e-06 0 0)
(1.86302e-06 0 0)
(1.8625e-06 0 0)
(1.862e-06 0 0)
(1.86152e-06 0 0)
(1.86107e-06 0 0)
(1.86064e-06 0 0)
(1.86024e-06 0 0)
(1.85986e-06 0 0)
(1.8595e-06 0 0)
(1.85917e-06 0 0)
(1.85885e-06 0 0)
(1.85855e-06 0 0)
(1.85827e-06 0 0)
(1.85801e-06 0 0)
)
;

boundaryField
{
    inlet
    {
        type            fixedValue;
        value           uniform (2.74882e-06 0 0);
    }
    outlet
    {
        type            zeroGradient;
    }
    emptyWalls
    {
        type            empty;
    }
}


// ************************************************************************* //
