/*--------------------------------*- C++ -*----------------------------------*\
  =========                 |
  \\      /  F ield         | OpenFOAM: The Open Source CFD Toolbox
   \\    /   O peration     | Website:  https://openfoam.org
    \\  /    A nd           | Version:  9
     \\/     M anipulation  |
\*---------------------------------------------------------------------------*/
FoamFile
{
    format      ascii;
    class       volScalarField;
    location    "9650";
    object      kra;
}
// * * * * * * * * * * * * * * * * * * * * * * * * * * * * * * * * * * * * * //

dimensions      [0 0 0 0 0 0 0];

internalField   nonuniform List<scalar> 
1000
(
0.000237438
0.000239943
0.000243067
0.000246
0.000248885
0.000251643
0.000254248
0.000256581
0.000258666
0.000260621
0.000263543
0.000271938
0.000304913
0.00052703
0.000828745
0.000889475
0.000907411
0.000915633
0.00092027
0.000923261
0.00092509
0.000926321
0.000926925
0.000927278
0.000927256
0.000927035
0.000926862
0.000926073
0.000925737
0.000924684
0.000923529
0.00092216
0.000920441
0.000918354
0.000915624
0.000912146
0.000907649
0.000902344
0.00089639
0.000890155
0.000883817
0.000877482
0.000871205
0.000865002
0.000858864
0.000852788
0.000846796
0.000840951
0.000835334
0.000830024
0.000825063
0.000820447
0.000816133
0.000812055
0.000808141
0.00080433
0.000800571
0.000796821
0.00079304
0.000789178
0.000785184
0.000781
0.000776574
0.000771867
0.000766859
0.000761558
0.000755996
0.000750231
0.000744342
0.000738414
0.000732537
0.000726792
0.000721246
0.00071595
0.000710933
0.000706208
0.00070177
0.000697602
0.000693676
0.000689958
0.000686414
0.000683007
0.000679705
0.000676479
0.000673304
0.000670161
0.000667036
0.000663921
0.000660809
0.0006577
0.000654592
0.000651489
0.000648394
0.000645311
0.000642243
0.000639195
0.00063617
0.00063317
0.000630197
0.000627254
0.000624342
0.00062146
0.000618609
0.00061579
0.000613003
0.000610248
0.000607524
0.000604831
0.00060217
0.000599541
0.000596943
0.000594376
0.000591841
0.000589338
0.000586865
0.000584424
0.000582013
0.000579633
0.000577283
0.000574961
0.000572668
0.000570403
0.000568164
0.000565951
0.000563762
0.000561597
0.000559454
0.000557334
0.000555235
0.000553156
0.000551097
0.000549058
0.000547039
0.000545038
0.000543057
0.000541094
0.00053915
0.000537224
0.000535317
0.000533428
0.000531557
0.000529704
0.000527869
0.000526052
0.000524253
0.00052247
0.000520706
0.000518958
0.000517227
0.000515512
0.000513814
0.000512133
0.000510467
0.000508816
0.000507181
0.000505562
0.000503956
0.000502365
0.000500786
0.000499223
0.000497668
0.00049613
0.000494598
0.000493084
0.000491573
0.000490083
0.000488593
0.00048713
0.000485662
0.000484226
0.000482783
0.000481375
0.000479957
0.000478576
0.000477186
0.000475831
0.00047447
0.000473143
0.000471817
0.000470523
0.00046924
0.000467987
0.000466758
0.00046556
0.000464395
0.000463264
0.000462173
0.000461118
0.000460105
0.000459131
0.000458196
0.000457297
0.000456432
0.000455597
0.000454785
0.000453993
0.000453212
0.000452436
0.000451655
0.00045086
0.000450044
0.000449195
0.000448306
0.000447368
0.000446373
0.000445314
0.000444188
0.00044299
0.000441721
0.000440381
0.000438975
0.000437508
0.000435988
0.000434424
0.000432827
0.000431208
0.00042958
0.000427953
0.000426339
0.000424746
0.000423184
0.000421658
0.000420175
0.000418737
0.000417346
0.000416003
0.000414707
0.000413455
0.000412245
0.000411074
0.000409938
0.000408832
0.000407752
0.000406695
0.000405656
0.000404631
0.000403618
0.000402614
0.000401616
0.000400622
0.00039963
0.000398639
0.000397649
0.000396658
0.000395665
0.000394672
0.000393678
0.000392683
0.000391687
0.000390691
0.000389695
0.0003887
0.000387705
0.000386712
0.000385721
0.000384732
0.000383746
0.000382763
0.000381783
0.000380806
0.000379834
0.000378865
0.000377901
0.000376941
0.000375986
0.000375036
0.000374091
0.00037315
0.000372216
0.000371286
0.000370362
0.000369443
0.00036853
0.000367622
0.00036672
0.000365823
0.000364932
0.000364047
0.000363166
0.000362291
0.000361422
0.000360557
0.000359698
0.000358843
0.000357994
0.000357149
0.000356309
0.000355473
0.000354642
0.000353815
0.000352992
0.000352174
0.000351359
0.000350548
0.000349742
0.000348938
0.000348139
0.000347342
0.00034655
0.00034576
0.000344974
0.000344191
0.000343412
0.000342635
0.000341861
0.000341091
0.000340323
0.000339559
0.000338797
0.000338038
0.000337282
0.000336529
0.000335778
0.00033503
0.000334285
0.000333542
0.000332801
0.000332064
0.000331328
0.000330595
0.000329865
0.000329136
0.00032841
0.000327685
0.000326963
0.000326243
0.000325524
0.000324807
0.000324093
0.000323379
0.000322668
0.000321958
0.00032125
0.000320544
0.000319839
0.000319136
0.000318435
0.000317736
0.00031704
0.000316345
0.000315653
0.000314963
0.000314276
0.000313592
0.000312912
0.000312236
0.000311563
0.000310896
0.000310234
0.000309578
0.000308929
0.000308287
0.000307654
0.00030703
0.000306417
0.000305815
0.000305226
0.00030465
0.000304091
0.000303548
0.000303024
0.00030252
0.000302038
0.000301581
0.000301149
0.000300747
0.000300375
0.000300036
0.000299732
0.000299462
0.00029923
0.000299033
0.000298872
0.000298743
0.000298641
0.000298561
0.000298489
0.000298411
0.000298296
0.0002981
0.000297743
0.000297095
0.000295943
0.000293952
0.000290669
0.000285611
0.000278613
0.000270329
0.000262346
0.000256253
0.00025249
0.000250471
0.000249429
0.000248858
0.000248501
0.000248242
0.000248027
0.000247833
0.000247647
0.000247467
0.00024729
0.000247117
0.000246949
0.000246786
0.000246629
0.00024648
0.00024634
0.000246208
0.000246086
0.000245974
0.000245871
0.000245778
0.000245695
0.000245621
0.000245556
0.000245499
0.000245449
0.000245407
0.000245371
0.000245341
0.000245316
0.000245295
0.000245277
0.000245263
0.000245251
0.000245241
0.000245232
0.000245224
0.000245216
0.000245209
0.000245201
0.000245193
0.000245184
0.000245174
0.000245163
0.000245151
0.000245137
0.000245123
0.000245107
0.00024509
0.000245072
0.000245052
0.000245032
0.000245011
0.000244988
0.000244965
0.000244941
0.000244916
0.000244891
0.000244865
0.000244838
0.000244812
0.000244785
0.000244757
0.00024473
0.000244703
0.000244675
0.000244648
0.000244621
0.000244594
0.000244567
0.00024454
0.000244514
0.000244488
0.000244463
0.000244438
0.000244413
0.00024439
0.000244366
0.000244344
0.000244322
0.000244301
0.000244281
0.000244261
0.000244242
0.000244224
0.000244208
0.000244192
0.000244177
0.000244162
0.000244149
0.000244137
0.000244126
0.000244116
0.000244106
0.000244098
0.000244091
0.000244084
0.000244079
0.000244074
0.00024407
0.000244067
0.000244065
0.000244064
0.000244064
0.000244064
0.000244064
0.000244064
0.000244066
0.000244069
0.000244072
0.000244076
0.00024408
0.000244085
0.00024409
0.000244096
0.000244102
0.000244108
0.000244115
0.000244122
0.00024413
0.000244138
0.000244147
0.000244155
0.000244165
0.000244174
0.000244184
0.000244194
0.000244205
0.000244216
0.000244228
0.000244239
0.000244252
0.000244264
0.000244277
0.000244291
0.000244305
0.000244319
0.000244334
0.000244349
0.000244364
0.00024438
0.000244397
0.000244414
0.000244432
0.00024445
0.00024447
0.00024449
0.000244511
0.000244532
0.000244555
0.000244578
0.000244603
0.000244629
0.000244657
0.000244686
0.000244717
0.00024475
0.000244785
0.000244822
0.000244862
0.000244904
0.000244949
0.000244997
0.000245049
0.000245104
0.000245163
0.000245225
0.000245292
0.000245363
0.00024544
0.00024552
0.000245605
0.000245694
0.000245789
0.000245888
0.000245993
0.000246101
0.000246214
0.000246331
0.000246452
0.000246575
0.000246702
0.000246832
0.000246963
0.000247095
0.000247228
0.000247361
0.000247492
0.000247621
0.000247748
0.000247871
0.000247989
0.0002481
0.000248206
0.000248303
0.000248392
0.000248471
0.00024854
0.000248597
0.000248643
0.000248676
0.000248696
0.000248703
0.000248704
0.000248702
0.000248691
0.000248648
0.000248591
0.000248521
0.000248439
0.000248348
0.000248246
0.000248136
0.000248019
0.000247895
0.000247767
0.000247635
0.000247501
0.000247366
0.000247231
0.000247097
0.000246966
0.000246838
0.000246714
0.000246595
0.000246481
0.000246373
0.000246272
0.000246177
0.000246089
0.000246008
0.000245933
0.000245865
0.000245803
0.000245748
0.000245697
0.000245653
0.000245613
0.000245577
0.000245546
0.000245518
0.000245493
0.000245471
0.000245451
0.000245432
0.000245416
0.0002454
0.000245385
0.000245371
0.000245356
0.000245342
0.000245328
0.000245313
0.000245297
0.000245281
0.000245265
0.000245247
0.000245229
0.000245209
0.000245189
0.000245168
0.000245146
0.000245123
0.000245099
0.000245075
0.00024505
0.000245024
0.000244998
0.000244971
0.000244944
0.000244916
0.000244888
0.000244859
0.000244831
0.000244802
0.000244773
0.000244744
0.000244715
0.000244685
0.000244656
0.000244627
0.000244598
0.00024457
0.000244541
0.000244513
0.000244485
0.000244457
0.00024443
0.000244403
0.000244377
0.000244351
0.000244325
0.0002443
0.000244276
0.000244252
0.000244229
0.000244207
0.000244185
0.000244165
0.000244145
0.000244125
0.000244107
0.000244089
0.000244073
0.000244057
0.000244042
0.000244029
0.000244016
0.000244004
0.000243993
0.000243983
0.000243974
0.000243966
0.000243959
0.000243954
0.000243949
0.000243945
0.000243942
0.00024394
0.000243939
0.000243939
0.000243939
0.000243939
0.000243941
0.000243944
0.000243948
0.000243954
0.000243959
0.000243966
0.000243973
0.000243982
0.00024399
0.000244
0.00024401
0.000244021
0.000244032
0.000244045
0.000244057
0.000244071
0.000244085
0.000244099
0.000244114
0.00024413
0.000244146
0.000244163
0.00024418
0.000244198
0.000244217
0.000244237
0.000244256
0.000244277
0.000244299
0.000244321
0.000244344
0.000244369
0.000244394
0.00024442
0.000244447
0.000244476
0.000244506
0.000244537
0.00024457
0.000244605
0.000244641
0.00024468
0.00024472
0.000244763
0.000244808
0.000244856
0.000244906
0.000244959
0.000245015
0.000245075
0.000245137
0.000245202
0.000245271
0.000245344
0.00024542
0.000245499
0.000245582
0.000245669
0.000245759
0.000245853
0.00024595
0.00024605
0.000246153
0.000246259
0.000246367
0.000246478
0.00024659
0.000246704
0.000246819
0.000246934
0.000247049
0.000247164
0.000247277
0.000247389
0.000247498
0.000247604
0.000247706
0.000247805
0.000247897
0.000247985
0.000248065
0.000248139
0.000248205
0.000248263
0.000248312
0.000248352
0.000248382
0.000248402
0.000248412
0.000248414
0.000248414
0.00024841
0.00024839
0.000248349
0.000248299
0.00024824
0.000248173
0.000248097
0.000248014
0.000247924
0.000247829
0.000247728
0.000247624
0.000247517
0.000247407
0.000247296
0.000247185
0.000247074
0.000246964
0.000246856
0.00024675
0.000246648
0.000246549
0.000246453
0.000246363
0.000246276
0.000246194
0.000246117
0.000246045
0.000245978
0.000245915
0.000245856
0.000245802
0.000245752
0.000245706
0.000245663
0.000245624
0.000245587
0.000245553
0.000245522
0.000245492
0.000245465
0.000245438
0.000245413
0.000245389
0.000245365
0.000245342
0.000245319
0.000245296
0.000245273
0.00024525
0.000245226
0.000245203
0.000245178
0.000245153
0.000245128
0.000245102
0.000245075
0.000245048
0.00024502
0.000244991
0.000244962
0.000244933
0.000244903
0.000244873
0.000244842
0.000244811
0.000244779
0.000244748
0.000244716
0.000244684
0.000244653
0.000244621
0.000244589
0.000244557
0.000244526
0.000244494
0.000244463
0.000244432
0.000244402
0.000244372
0.000244342
0.000244312
0.000244284
0.000244255
0.000244227
0.0002442
0.000244174
0.000244148
0.000244123
0.000244098
0.000244075
0.000244052
0.00024403
0.000244009
0.000243989
0.00024397
0.000243952
0.000243935
0.000243918
0.000243904
0.00024389
0.000243877
0.000243866
0.000243855
0.000243846
0.000243838
0.000243831
0.000243826
0.000243822
0.000243819
0.000243817
0.000243817
0.000243817
0.000243817
0.000243819
0.000243823
0.000243829
0.000243836
0.000243844
0.000243853
0.000243863
0.000243874
0.000243886
0.000243899
0.000243913
0.000243928
0.000243944
0.000243961
0.000243979
0.000243997
0.000244016
0.000244036
0.000244057
0.000244078
0.0002441
0.000244122
0.000244146
0.000244169
0.000244194
0.000244219
0.000244245
0.000244271
0.000244298
0.000244325
0.000244353
0.000244382
0.000244412
0.000244442
0.000244473
0.000244505
0.000244537
0.000244571
0.000244606
0.000244642
0.000244679
0.000244718
0.000244757
0.000244799
0.000244841
0.000244886
0.000244932
0.000244981
0.00024503
0.000245083
0.000245137
0.000245194
0.000245252
0.000245314
0.000245377
0.000245444
0.000245513
0.000245585
0.000245658
0.000245735
0.000245815
0.000245896
0.000245981
0.000246067
0.000246158
0.000246245
0.000246345
0.000246428
0.00024654
0.000246617
0.000246741
0.000246809
0.000246942
0.000247004
0.000247143
0.000247196
0.000247339
0.000247384
0.000247527
0.000247562
0.000247732
)
;

boundaryField
{
    inlet
    {
        type            calculated;
        value           uniform 0.000236304;
    }
    outlet
    {
        type            calculated;
        value           uniform 0.000247714;
    }
    emptyWalls
    {
        type            empty;
    }
}


// ************************************************************************* //
