/*--------------------------------*- C++ -*----------------------------------*\
  =========                 |
  \\      /  F ield         | OpenFOAM: The Open Source CFD Toolbox
   \\    /   O peration     | Website:  https://openfoam.org
    \\  /    A nd           | Version:  9
     \\/     M anipulation  |
\*---------------------------------------------------------------------------*/
FoamFile
{
    format      ascii;
    class       surfaceScalarField;
    location    "27750";
    object      phia;
}
// * * * * * * * * * * * * * * * * * * * * * * * * * * * * * * * * * * * * * //

dimensions      [0 2 0 0 0 0 0];

internalField   nonuniform List<scalar> 
999
(
2.74886e-10
2.74869e-10
2.74871e-10
2.7485e-10
2.74846e-10
2.74823e-10
2.74809e-10
2.74783e-10
2.74747e-10
2.74723e-10
2.74668e-10
2.74639e-10
2.74581e-10
2.74535e-10
2.74481e-10
2.74419e-10
2.7436e-10
2.74298e-10
2.7423e-10
2.74169e-10
2.74098e-10
2.74033e-10
2.73952e-10
2.73891e-10
2.73807e-10
2.73749e-10
2.73683e-10
2.73621e-10
2.73579e-10
2.73517e-10
2.73486e-10
2.73441e-10
2.73412e-10
2.73379e-10
2.73343e-10
2.73257e-10
2.72957e-10
2.71822e-10
2.66311e-10
2.29511e-10
2.16868e-10
2.13635e-10
2.12311e-10
2.11546e-10
2.11005e-10
2.10574e-10
2.1021e-10
2.09889e-10
2.096e-10
2.09336e-10
2.09092e-10
2.08867e-10
2.08658e-10
2.08464e-10
2.08283e-10
2.08113e-10
2.0795e-10
2.07795e-10
2.0765e-10
2.07515e-10
2.07396e-10
2.0729e-10
2.07194e-10
2.07104e-10
2.07015e-10
2.06924e-10
2.06826e-10
2.06728e-10
2.06633e-10
2.06551e-10
2.06486e-10
2.06465e-10
2.06433e-10
2.0639e-10
2.06347e-10
2.06303e-10
2.06244e-10
2.06166e-10
2.06077e-10
2.05999e-10
2.05933e-10
2.05893e-10
2.05885e-10
2.05896e-10
2.05952e-10
2.0621e-10
2.06515e-10
2.0684e-10
2.07172e-10
2.0749e-10
2.07775e-10
2.08011e-10
2.08186e-10
2.08308e-10
2.084e-10
2.08489e-10
2.08568e-10
2.08605e-10
2.08499e-10
2.0831e-10
2.08049e-10
2.07736e-10
2.07394e-10
2.0704e-10
2.06693e-10
2.06367e-10
2.06072e-10
2.05816e-10
2.05602e-10
2.0543e-10
2.05297e-10
2.05198e-10
2.0513e-10
2.05087e-10
2.05065e-10
2.05057e-10
2.05059e-10
2.05065e-10
2.05073e-10
2.05077e-10
2.05078e-10
2.05072e-10
2.0506e-10
2.05042e-10
2.05017e-10
2.04987e-10
2.04952e-10
2.04914e-10
2.04872e-10
2.04828e-10
2.04782e-10
2.04735e-10
2.04688e-10
2.0464e-10
2.04592e-10
2.04545e-10
2.04498e-10
2.04452e-10
2.04407e-10
2.04362e-10
2.04319e-10
2.04276e-10
2.04234e-10
2.04194e-10
2.04154e-10
2.04116e-10
2.04079e-10
2.04044e-10
2.0401e-10
2.03977e-10
2.03946e-10
2.03915e-10
2.03886e-10
2.03858e-10
2.0383e-10
2.03804e-10
2.03778e-10
2.03754e-10
2.03731e-10
2.03709e-10
2.03689e-10
2.03671e-10
2.03655e-10
2.03641e-10
2.03629e-10
2.03618e-10
2.03608e-10
2.03599e-10
2.03591e-10
2.03583e-10
2.03575e-10
2.03566e-10
2.03558e-10
2.03551e-10
2.03544e-10
2.03539e-10
2.03536e-10
2.03535e-10
2.03536e-10
2.0354e-10
2.03545e-10
2.03551e-10
2.03558e-10
2.03565e-10
2.03571e-10
2.03575e-10
2.03577e-10
2.03575e-10
2.03571e-10
2.03565e-10
2.03558e-10
2.03552e-10
2.03552e-10
2.03559e-10
2.03577e-10
2.0361e-10
2.03661e-10
2.0373e-10
2.0382e-10
2.0393e-10
2.0406e-10
2.04207e-10
2.04371e-10
2.04547e-10
2.04734e-10
2.04927e-10
2.05124e-10
2.05319e-10
2.05509e-10
2.05688e-10
2.05852e-10
2.05996e-10
2.06116e-10
2.06207e-10
2.06266e-10
2.06292e-10
2.06282e-10
2.06236e-10
2.06157e-10
2.06047e-10
2.05909e-10
2.05749e-10
2.05571e-10
2.0538e-10
2.05184e-10
2.04986e-10
2.04792e-10
2.04605e-10
2.0443e-10
2.04269e-10
2.04123e-10
2.03993e-10
2.03879e-10
2.03782e-10
2.03699e-10
2.03629e-10
2.03572e-10
2.03525e-10
2.03485e-10
2.03453e-10
2.03425e-10
2.034e-10
2.03378e-10
2.03356e-10
2.03334e-10
2.03311e-10
2.03287e-10
2.03261e-10
2.03234e-10
2.03203e-10
2.03171e-10
2.03137e-10
2.03101e-10
2.03064e-10
2.03025e-10
2.02985e-10
2.02944e-10
2.02902e-10
2.0286e-10
2.02817e-10
2.02775e-10
2.02732e-10
2.02689e-10
2.02647e-10
2.02606e-10
2.02564e-10
2.02524e-10
2.02484e-10
2.02445e-10
2.02407e-10
2.0237e-10
2.02333e-10
2.02298e-10
2.02263e-10
2.0223e-10
2.02197e-10
2.02165e-10
2.02135e-10
2.02105e-10
2.02076e-10
2.02048e-10
2.02021e-10
2.01995e-10
2.0197e-10
2.01947e-10
2.01924e-10
2.01903e-10
2.01883e-10
2.01864e-10
2.01846e-10
2.01829e-10
2.01813e-10
2.01798e-10
2.01785e-10
2.01771e-10
2.01759e-10
2.01747e-10
2.01736e-10
2.01726e-10
2.01716e-10
2.01708e-10
2.017e-10
2.01693e-10
2.01687e-10
2.01682e-10
2.01678e-10
2.01675e-10
2.01673e-10
2.01671e-10
2.0167e-10
2.0167e-10
2.01669e-10
2.01668e-10
2.01667e-10
2.01666e-10
2.01664e-10
2.01662e-10
2.01659e-10
2.01658e-10
2.01658e-10
2.0166e-10
2.01665e-10
2.01674e-10
2.01688e-10
2.01709e-10
2.01737e-10
2.01774e-10
2.0182e-10
2.01876e-10
2.01941e-10
2.02018e-10
2.02105e-10
2.02201e-10
2.02308e-10
2.02422e-10
2.02544e-10
2.02673e-10
2.02805e-10
2.0294e-10
2.03075e-10
2.03209e-10
2.03339e-10
2.03462e-10
2.03576e-10
2.0368e-10
2.0377e-10
2.03845e-10
2.03903e-10
2.03943e-10
2.03963e-10
2.03964e-10
2.03944e-10
2.03906e-10
2.03848e-10
2.03773e-10
2.03682e-10
2.03577e-10
2.03461e-10
2.03335e-10
2.03203e-10
2.03066e-10
2.02928e-10
2.0279e-10
2.02654e-10
2.02522e-10
2.02396e-10
2.02277e-10
2.02165e-10
2.02061e-10
2.01965e-10
2.01878e-10
2.01798e-10
2.01726e-10
2.01662e-10
2.01604e-10
2.01551e-10
2.01504e-10
2.01461e-10
2.01421e-10
2.01385e-10
2.0135e-10
2.01317e-10
2.01286e-10
2.01255e-10
2.01224e-10
2.01193e-10
2.01162e-10
2.0113e-10
2.01097e-10
2.01064e-10
2.0103e-10
2.00995e-10
2.0096e-10
2.00924e-10
2.00887e-10
2.00849e-10
2.00811e-10
2.00773e-10
2.00735e-10
2.00696e-10
2.00657e-10
2.00618e-10
2.0058e-10
2.00542e-10
2.00504e-10
2.00466e-10
2.00429e-10
2.00393e-10
2.00357e-10
2.00321e-10
2.00287e-10
2.00253e-10
2.00219e-10
2.00186e-10
2.00155e-10
2.00123e-10
2.00093e-10
2.00063e-10
2.00035e-10
2.00007e-10
1.9998e-10
1.99953e-10
1.99928e-10
1.99904e-10
1.9988e-10
1.99857e-10
1.99836e-10
1.99814e-10
1.99795e-10
1.99775e-10
1.99757e-10
1.99739e-10
1.99722e-10
1.99706e-10
1.99691e-10
1.99676e-10
1.99663e-10
1.99649e-10
1.99637e-10
1.99625e-10
1.99614e-10
1.99603e-10
1.99594e-10
1.99585e-10
1.99576e-10
1.99568e-10
1.99561e-10
1.99555e-10
1.99549e-10
1.99543e-10
1.99538e-10
1.99533e-10
1.99528e-10
1.99524e-10
1.9952e-10
1.99516e-10
1.99512e-10
1.99509e-10
1.99506e-10
1.99505e-10
1.99504e-10
1.99504e-10
1.99506e-10
1.99511e-10
1.99518e-10
1.99529e-10
1.99542e-10
1.99561e-10
1.99583e-10
1.99611e-10
1.99644e-10
1.99683e-10
1.99728e-10
1.9978e-10
1.99837e-10
1.99901e-10
1.99971e-10
2.00046e-10
2.00127e-10
2.00213e-10
2.00303e-10
2.00396e-10
2.00492e-10
2.0059e-10
2.00688e-10
2.00785e-10
2.0088e-10
2.00972e-10
2.0106e-10
2.01142e-10
2.01218e-10
2.01285e-10
2.01344e-10
2.01392e-10
2.0143e-10
2.01455e-10
2.0147e-10
2.01471e-10
2.01461e-10
2.01437e-10
2.01402e-10
2.01355e-10
2.01298e-10
2.0123e-10
2.01154e-10
2.01069e-10
2.00979e-10
2.00882e-10
2.00781e-10
2.00678e-10
2.00573e-10
2.00467e-10
2.00363e-10
2.00259e-10
2.00158e-10
2.00061e-10
1.99967e-10
1.99877e-10
1.99792e-10
1.99711e-10
1.99636e-10
1.99565e-10
1.99498e-10
1.99436e-10
1.99379e-10
1.99325e-10
1.99274e-10
1.99227e-10
1.99183e-10
1.99141e-10
1.99101e-10
1.99063e-10
1.99027e-10
1.98991e-10
1.98957e-10
1.98923e-10
1.9889e-10
1.98856e-10
1.98823e-10
1.9879e-10
1.98757e-10
1.98724e-10
1.9869e-10
1.98656e-10
1.98622e-10
1.98587e-10
1.98552e-10
1.98517e-10
1.98482e-10
1.98446e-10
1.98411e-10
1.98375e-10
1.9834e-10
1.98304e-10
1.98269e-10
1.98233e-10
1.98198e-10
1.98163e-10
1.98129e-10
1.98095e-10
1.98061e-10
1.98028e-10
1.97995e-10
1.97963e-10
1.97931e-10
1.97899e-10
1.97869e-10
1.97839e-10
1.97809e-10
1.9778e-10
1.97752e-10
1.97724e-10
1.97697e-10
1.97671e-10
1.97646e-10
1.97621e-10
1.97597e-10
1.97573e-10
1.97551e-10
1.97529e-10
1.97507e-10
1.97487e-10
1.97467e-10
1.97447e-10
1.97429e-10
1.97411e-10
1.97393e-10
1.97377e-10
1.97361e-10
1.97345e-10
1.97331e-10
1.97316e-10
1.97303e-10
1.9729e-10
1.97277e-10
1.97265e-10
1.97254e-10
1.97243e-10
1.97233e-10
1.97223e-10
1.97214e-10
1.97205e-10
1.97196e-10
1.97188e-10
1.9718e-10
1.97173e-10
1.97166e-10
1.9716e-10
1.97154e-10
1.97148e-10
1.97144e-10
1.9714e-10
1.97136e-10
1.97134e-10
1.97133e-10
1.97133e-10
1.97135e-10
1.97138e-10
1.97144e-10
1.97151e-10
1.97162e-10
1.97175e-10
1.97191e-10
1.9721e-10
1.97233e-10
1.97259e-10
1.97289e-10
1.97324e-10
1.97362e-10
1.97404e-10
1.97451e-10
1.97501e-10
1.97556e-10
1.97614e-10
1.97675e-10
1.9774e-10
1.97807e-10
1.97877e-10
1.97949e-10
1.98022e-10
1.98095e-10
1.98169e-10
1.98242e-10
1.98314e-10
1.98384e-10
1.98452e-10
1.98516e-10
1.98575e-10
1.98631e-10
1.9868e-10
1.98724e-10
1.98761e-10
1.98791e-10
1.98813e-10
1.98828e-10
1.98834e-10
1.98832e-10
1.98822e-10
1.98803e-10
1.98776e-10
1.98742e-10
1.98699e-10
1.9865e-10
1.98594e-10
1.98532e-10
1.98464e-10
1.98392e-10
1.98316e-10
1.98237e-10
1.98155e-10
1.98071e-10
1.97986e-10
1.979e-10
1.97815e-10
1.9773e-10
1.97647e-10
1.97565e-10
1.97485e-10
1.97408e-10
1.97333e-10
1.97261e-10
1.97192e-10
1.97126e-10
1.97062e-10
1.97002e-10
1.96944e-10
1.9689e-10
1.96837e-10
1.96787e-10
1.9674e-10
1.96694e-10
1.9665e-10
1.96608e-10
1.96567e-10
1.96528e-10
1.9649e-10
1.96452e-10
1.96416e-10
1.9638e-10
1.96344e-10
1.96309e-10
1.96275e-10
1.9624e-10
1.96205e-10
1.96171e-10
1.96136e-10
1.96102e-10
1.96067e-10
1.96033e-10
1.95998e-10
1.95964e-10
1.95929e-10
1.95894e-10
1.95859e-10
1.95825e-10
1.9579e-10
1.95756e-10
1.95721e-10
1.95687e-10
1.95653e-10
1.95619e-10
1.95585e-10
1.95552e-10
1.95519e-10
1.95486e-10
1.95453e-10
1.95421e-10
1.9539e-10
1.95359e-10
1.95328e-10
1.95298e-10
1.95268e-10
1.95239e-10
1.95211e-10
1.95183e-10
1.95155e-10
1.95128e-10
1.95102e-10
1.95076e-10
1.95051e-10
1.95027e-10
1.95003e-10
1.9498e-10
1.94957e-10
1.94935e-10
1.94914e-10
1.94893e-10
1.94873e-10
1.94853e-10
1.94834e-10
1.94815e-10
1.94798e-10
1.9478e-10
1.94764e-10
1.94747e-10
1.94732e-10
1.94717e-10
1.94702e-10
1.94688e-10
1.94675e-10
1.94662e-10
1.94649e-10
1.94637e-10
1.94625e-10
1.94614e-10
1.94603e-10
1.94593e-10
1.94583e-10
1.94574e-10
1.94565e-10
1.94556e-10
1.94548e-10
1.94541e-10
1.94534e-10
1.94528e-10
1.94523e-10
1.94518e-10
1.94514e-10
1.94511e-10
1.94509e-10
1.94509e-10
1.94509e-10
1.94512e-10
1.94515e-10
1.94521e-10
1.94528e-10
1.94537e-10
1.94549e-10
1.94562e-10
1.94578e-10
1.94597e-10
1.94618e-10
1.94642e-10
1.94668e-10
1.94698e-10
1.9473e-10
1.94765e-10
1.94802e-10
1.94843e-10
1.94886e-10
1.94931e-10
1.94979e-10
1.95029e-10
1.9508e-10
1.95133e-10
1.95188e-10
1.95243e-10
1.95299e-10
1.95355e-10
1.95411e-10
1.95467e-10
1.95522e-10
1.95576e-10
1.95629e-10
1.95678e-10
1.95724e-10
1.95767e-10
1.95807e-10
1.95843e-10
1.95874e-10
1.95901e-10
1.95923e-10
1.9594e-10
1.95951e-10
1.95957e-10
1.95956e-10
1.9595e-10
1.95938e-10
1.9592e-10
1.95896e-10
1.95867e-10
1.95832e-10
1.95791e-10
1.95746e-10
1.95696e-10
1.95642e-10
1.95584e-10
1.95522e-10
1.95458e-10
1.95391e-10
1.95322e-10
1.95251e-10
1.95178e-10
1.95105e-10
1.95032e-10
1.94958e-10
1.94885e-10
1.94813e-10
1.94741e-10
1.9467e-10
1.94601e-10
1.94534e-10
1.94468e-10
1.94404e-10
1.94342e-10
1.94281e-10
1.94223e-10
1.94167e-10
1.94112e-10
1.9406e-10
1.94009e-10
1.9396e-10
1.93912e-10
1.93866e-10
1.93822e-10
1.93778e-10
1.93737e-10
1.93695e-10
1.93656e-10
1.93616e-10
1.93578e-10
1.9354e-10
1.93503e-10
1.93466e-10
1.9343e-10
1.93394e-10
1.93358e-10
1.93322e-10
1.93288e-10
1.93252e-10
1.93218e-10
1.93182e-10
1.93148e-10
1.93113e-10
1.93079e-10
1.93044e-10
1.9301e-10
1.92976e-10
1.92942e-10
1.92907e-10
1.92874e-10
1.9284e-10
1.92807e-10
1.92773e-10
1.9274e-10
1.92707e-10
1.92674e-10
1.92642e-10
1.9261e-10
1.92578e-10
1.92547e-10
1.92515e-10
1.92485e-10
1.92454e-10
1.92425e-10
1.92395e-10
1.92366e-10
1.92337e-10
1.92309e-10
1.92281e-10
1.92254e-10
1.92228e-10
1.92201e-10
1.92176e-10
1.92151e-10
1.92126e-10
1.92102e-10
1.92078e-10
1.92055e-10
1.92032e-10
1.9201e-10
1.91988e-10
1.91967e-10
1.91947e-10
1.91927e-10
1.91907e-10
1.91888e-10
1.91869e-10
1.91851e-10
1.91833e-10
1.91816e-10
1.91799e-10
1.91783e-10
1.91767e-10
1.91751e-10
1.91736e-10
1.91722e-10
1.91707e-10
1.91693e-10
1.9168e-10
1.91667e-10
1.91655e-10
1.91642e-10
1.91631e-10
1.91619e-10
1.91609e-10
1.91598e-10
1.91589e-10
1.91579e-10
1.91571e-10
1.91563e-10
1.91556e-10
1.91549e-10
1.91543e-10
1.91538e-10
1.91534e-10
1.91531e-10
1.91529e-10
1.91528e-10
1.91528e-10
1.9153e-10
1.91533e-10
1.91538e-10
1.91544e-10
1.91552e-10
1.91561e-10
1.91573e-10
1.91586e-10
1.91601e-10
1.91618e-10
1.91637e-10
1.91658e-10
1.9168e-10
1.91705e-10
1.91732e-10
1.91761e-10
1.91791e-10
1.91823e-10
1.91857e-10
1.91892e-10
1.91928e-10
1.91966e-10
1.92004e-10
1.92044e-10
1.92084e-10
1.92124e-10
1.92164e-10
1.92205e-10
1.92245e-10
1.92284e-10
1.92323e-10
1.92362e-10
1.92399e-10
1.92435e-10
1.92469e-10
1.92502e-10
1.92531e-10
1.92559e-10
1.92582e-10
)
;

boundaryField
{
    inlet
    {
        type            calculated;
        value           uniform -2.74882e-10;
    }
    outlet
    {
        type            calculated;
        value           uniform 4.16114e-11;
    }
    emptyWalls
    {
        type            empty;
        value           nonuniform List<scalar> 0();
    }
}


// ************************************************************************* //
