/*--------------------------------*- C++ -*----------------------------------*\
  =========                 |
  \\      /  F ield         | OpenFOAM: The Open Source CFD Toolbox
   \\    /   O peration     | Website:  https://openfoam.org
    \\  /    A nd           | Version:  9
     \\/     M anipulation  |
\*---------------------------------------------------------------------------*/
FoamFile
{
    format      ascii;
    class       volScalarField;
    location    "3000";
    object      kra;
}
// * * * * * * * * * * * * * * * * * * * * * * * * * * * * * * * * * * * * * //

dimensions      [0 0 0 0 0 0 0];

internalField   nonuniform List<scalar> 
100
(
4.02841e-05
2.98345e-05
3.22081e-05
3.08443e-05
3.07198e-05
3.03484e-05
3.01739e-05
2.99473e-05
2.97355e-05
2.95352e-05
2.93494e-05
2.91696e-05
2.90085e-05
2.8849e-05
2.87047e-05
2.85622e-05
2.84318e-05
2.82999e-05
2.81778e-05
2.80493e-05
2.79198e-05
2.77596e-05
2.75774e-05
2.73187e-05
2.7395e-05
2.74231e-05
2.74704e-05
2.75086e-05
2.75469e-05
2.75835e-05
2.76185e-05
2.76514e-05
2.76826e-05
2.77123e-05
2.77407e-05
2.77684e-05
2.77954e-05
2.78211e-05
2.78452e-05
2.78679e-05
2.78891e-05
2.79092e-05
2.79289e-05
2.7948e-05
2.79659e-05
2.79826e-05
2.79983e-05
2.80129e-05
2.80267e-05
2.80398e-05
2.80521e-05
2.80632e-05
2.80732e-05
2.80824e-05
2.80907e-05
2.80986e-05
2.81064e-05
2.81135e-05
2.81194e-05
2.81245e-05
2.81285e-05
2.81314e-05
2.81345e-05
2.8137e-05
2.81391e-05
2.81402e-05
2.81401e-05
2.81393e-05
2.81381e-05
2.81365e-05
2.81341e-05
2.81307e-05
2.81269e-05
2.81221e-05
2.81171e-05
2.81126e-05
2.81086e-05
2.81038e-05
2.80981e-05
2.80926e-05
2.80872e-05
2.80818e-05
2.80768e-05
2.80726e-05
2.8068e-05
2.80621e-05
2.80556e-05
2.80476e-05
2.80345e-05
2.80082e-05
2.79538e-05
2.78249e-05
2.7385e-05
2.3493e-05
3.23941e-06
1.54484e-09
5.87041e-17
1.86886e-32
3.2427e-35
3.33293e-35
)
;

boundaryField
{
    inlet
    {
        type            calculated;
        value           uniform 1.18187e-05;
    }
    outlet
    {
        type            calculated;
        value           uniform 4.72862e-37;
    }
    emptyWalls
    {
        type            empty;
    }
}


// ************************************************************************* //
