/*--------------------------------*- C++ -*----------------------------------*\
  =========                 |
  \\      /  F ield         | OpenFOAM: The Open Source CFD Toolbox
   \\    /   O peration     | Website:  https://openfoam.org
    \\  /    A nd           | Version:  9
     \\/     M anipulation  |
\*---------------------------------------------------------------------------*/
FoamFile
{
    format      ascii;
    class       volScalarField;
    location    "3000";
    object      p;
}
// * * * * * * * * * * * * * * * * * * * * * * * * * * * * * * * * * * * * * //

dimensions      [0 0 0 0 0 0 0];

internalField   nonuniform List<scalar> 
100
(
6.0108e+06
6.00273e+06
5.99185e+06
5.98178e+06
5.97125e+06
5.96068e+06
5.94999e+06
5.93923e+06
5.9284e+06
5.91751e+06
5.90655e+06
5.89554e+06
5.88447e+06
5.87335e+06
5.86218e+06
5.85096e+06
5.83971e+06
5.82841e+06
5.81707e+06
5.80569e+06
5.79427e+06
5.78281e+06
5.77129e+06
5.75971e+06
5.7481e+06
5.73654e+06
5.72502e+06
5.71354e+06
5.70209e+06
5.69068e+06
5.6793e+06
5.66795e+06
5.65663e+06
5.64535e+06
5.6341e+06
5.62287e+06
5.61168e+06
5.60052e+06
5.58938e+06
5.57828e+06
5.5672e+06
5.55615e+06
5.54514e+06
5.53415e+06
5.52319e+06
5.51225e+06
5.50135e+06
5.49047e+06
5.47962e+06
5.46879e+06
5.458e+06
5.44722e+06
5.43648e+06
5.42576e+06
5.41507e+06
5.40441e+06
5.39377e+06
5.38316e+06
5.37257e+06
5.36201e+06
5.35147e+06
5.34096e+06
5.33048e+06
5.32001e+06
5.30958e+06
5.29917e+06
5.28878e+06
5.27841e+06
5.26807e+06
5.25776e+06
5.24746e+06
5.23719e+06
5.22694e+06
5.21672e+06
5.20651e+06
5.19633e+06
5.18616e+06
5.17602e+06
5.16589e+06
5.15579e+06
5.1457e+06
5.13562e+06
5.12557e+06
5.11552e+06
5.10549e+06
5.09547e+06
5.08547e+06
5.07548e+06
5.06551e+06
5.05556e+06
5.04567e+06
5.03588e+06
5.02631e+06
5.01735e+06
5.01128e+06
5.00902e+06
5.00701e+06
5.00501e+06
5.00301e+06
5.001e+06
)
;

boundaryField
{
    inlet
    {
        type            darcyGradPressure;
        gradient        uniform 3.98754e+06;
        Mf              Mf;
        phi             phi;
        value           uniform 6.01877e+06;
    }
    outlet
    {
        type            fixedValue;
        value           uniform 5e+06;
    }
    emptyWalls
    {
        type            empty;
    }
}


// ************************************************************************* //
