/*--------------------------------*- C++ -*----------------------------------*\
  =========                 |
  \\      /  F ield         | OpenFOAM: The Open Source CFD Toolbox
   \\    /   O peration     | Website:  https://openfoam.org
    \\  /    A nd           | Version:  9
     \\/     M anipulation  |
\*---------------------------------------------------------------------------*/
FoamFile
{
    format      ascii;
    class       surfaceScalarField;
    location    "3000";
    object      phia;
}
// * * * * * * * * * * * * * * * * * * * * * * * * * * * * * * * * * * * * * //

dimensions      [0 2 0 0 0 0 0];

internalField   nonuniform List<scalar> 
99
(
1.42041e-08
1.41953e-08
1.41855e-08
1.41669e-08
1.4141e-08
1.41405e-08
1.41338e-08
1.41253e-08
1.41136e-08
1.41033e-08
1.40899e-08
1.40777e-08
1.40648e-08
1.40512e-08
1.40383e-08
1.40254e-08
1.4012e-08
1.39984e-08
1.39843e-08
1.39689e-08
1.39508e-08
1.39278e-08
1.38997e-08
1.38707e-08
1.38446e-08
1.38218e-08
1.37984e-08
1.3776e-08
1.37541e-08
1.37324e-08
1.37102e-08
1.36876e-08
1.36646e-08
1.36413e-08
1.3618e-08
1.35948e-08
1.35715e-08
1.35477e-08
1.35234e-08
1.34985e-08
1.34732e-08
1.34479e-08
1.34227e-08
1.33973e-08
1.33714e-08
1.33453e-08
1.33188e-08
1.3292e-08
1.32651e-08
1.32381e-08
1.32107e-08
1.31829e-08
1.31549e-08
1.31266e-08
1.30982e-08
1.307e-08
1.30419e-08
1.30134e-08
1.29847e-08
1.29556e-08
1.29262e-08
1.28968e-08
1.28677e-08
1.28385e-08
1.28093e-08
1.27798e-08
1.27501e-08
1.27204e-08
1.26909e-08
1.26615e-08
1.26321e-08
1.26028e-08
1.25737e-08
1.25449e-08
1.25169e-08
1.24901e-08
1.24641e-08
1.24385e-08
1.24137e-08
1.23902e-08
1.23677e-08
1.23466e-08
1.23271e-08
1.23087e-08
1.22906e-08
1.22722e-08
1.22521e-08
1.22257e-08
1.21823e-08
1.21003e-08
1.19387e-08
1.15879e-08
1.05537e-08
5.20748e-09
1.59569e-10
6.7821e-14
2.57156e-21
8.20092e-37
2.84102e-39
)
;

boundaryField
{
    inlet
    {
        type            calculated;
        value           uniform -1.42126e-08;
    }
    outlet
    {
        type            calculated;
        value           uniform 4.14289e-41;
    }
    emptyWalls
    {
        type            empty;
        value           nonuniform List<scalar> 0();
    }
}


// ************************************************************************* //
