/*--------------------------------*- C++ -*----------------------------------*\
  =========                 |
  \\      /  F ield         | OpenFOAM: The Open Source CFD Toolbox
   \\    /   O peration     | Website:  https://openfoam.org
    \\  /    A nd           | Version:  9
     \\/     M anipulation  |
\*---------------------------------------------------------------------------*/
FoamFile
{
    format      ascii;
    class       surfaceScalarField;
    location    "3000";
    object      phib;
}
// * * * * * * * * * * * * * * * * * * * * * * * * * * * * * * * * * * * * * //

dimensions      [0 2 0 0 0 0 0];

internalField   nonuniform List<scalar> 
99
(
6.09082e-09
6.09044e-09
6.09002e-09
6.09782e-09
6.11225e-09
6.10107e-09
6.09555e-09
6.09137e-09
6.09007e-09
6.087e-09
6.08699e-09
6.08573e-09
6.08505e-09
6.08498e-09
6.08416e-09
6.08316e-09
6.08256e-09
6.08199e-09
6.08142e-09
6.08083e-09
6.0802e-09
6.07949e-09
6.07811e-09
6.07684e-09
6.07871e-09
6.07918e-09
6.08102e-09
6.08211e-09
6.08272e-09
6.08306e-09
6.08363e-09
6.0845e-09
6.08551e-09
6.08657e-09
6.08744e-09
6.08793e-09
6.08827e-09
6.08886e-09
6.08976e-09
6.09097e-09
6.09235e-09
6.09355e-09
6.09436e-09
6.09514e-09
6.09617e-09
6.09729e-09
6.09851e-09
6.09986e-09
6.10106e-09
6.10217e-09
6.10346e-09
6.10497e-09
6.10655e-09
6.10822e-09
6.1098e-09
6.11098e-09
6.11192e-09
6.11307e-09
6.11441e-09
6.11586e-09
6.11763e-09
6.11922e-09
6.12048e-09
6.12164e-09
6.12283e-09
6.12432e-09
6.12602e-09
6.1278e-09
6.12938e-09
6.13098e-09
6.13283e-09
6.13475e-09
6.13685e-09
6.13907e-09
6.14093e-09
6.14218e-09
6.1433e-09
6.14486e-09
6.14647e-09
6.14789e-09
6.14921e-09
6.15035e-09
6.15106e-09
6.15162e-09
6.15269e-09
6.15406e-09
6.15527e-09
6.15661e-09
6.15902e-09
6.16392e-09
6.17406e-09
6.19784e-09
6.28329e-09
7.3154e-09
9.07882e-09
9.14635e-09
9.15047e-09
9.15106e-09
9.15022e-09
)
;

boundaryField
{
    inlet
    {
        type            calculated;
        value           uniform -6.09112e-09;
    }
    outlet
    {
        type            calculated;
        value           uniform 9.14998e-09;
    }
    emptyWalls
    {
        type            empty;
        value           nonuniform List<scalar> 0();
    }
}


// ************************************************************************* //
