/*--------------------------------*- C++ -*----------------------------------*\
  =========                 |
  \\      /  F ield         | OpenFOAM: The Open Source CFD Toolbox
   \\    /   O peration     | Website:  https://openfoam.org
    \\  /    A nd           | Version:  9
     \\/     M anipulation  |
\*---------------------------------------------------------------------------*/
FoamFile
{
    format      ascii;
    class       surfaceScalarField;
    location    "3000";
    object      phic;
}
// * * * * * * * * * * * * * * * * * * * * * * * * * * * * * * * * * * * * * //

dimensions      [0 2 0 0 0 0 0];

internalField   nonuniform List<scalar> 
99
(
8.81163e-12
1.79714e-11
2.82003e-11
3.90568e-11
5.04947e-11
6.21962e-11
7.44009e-11
8.70783e-11
1.00111e-10
1.13395e-10
1.26814e-10
1.40336e-10
1.53919e-10
1.6757e-10
1.81311e-10
1.95157e-10
2.09132e-10
2.23338e-10
2.38054e-10
2.54011e-10
2.72751e-10
2.96432e-10
3.25952e-10
3.56192e-10
3.80471e-10
4.02766e-10
4.24318e-10
4.45595e-10
4.66895e-10
4.88305e-10
5.09876e-10
5.31649e-10
5.53644e-10
5.75865e-10
5.98325e-10
6.21032e-10
6.43988e-10
6.67182e-10
6.90614e-10
7.1428e-10
7.38178e-10
7.6232e-10
7.86691e-10
8.11296e-10
8.36127e-10
8.61165e-10
8.86422e-10
9.11894e-10
9.37572e-10
9.63462e-10
9.89546e-10
1.01582e-09
1.04229e-09
1.06893e-09
1.09575e-09
1.12275e-09
1.14991e-09
1.17722e-09
1.20467e-09
1.23225e-09
1.25993e-09
1.28772e-09
1.31561e-09
1.34357e-09
1.37158e-09
1.39959e-09
1.42759e-09
1.45558e-09
1.48349e-09
1.51127e-09
1.53885e-09
1.56619e-09
1.59319e-09
1.61979e-09
1.6459e-09
1.67146e-09
1.69633e-09
1.72038e-09
1.74353e-09
1.7657e-09
1.78678e-09
1.80675e-09
1.82559e-09
1.8434e-09
1.86043e-09
1.87747e-09
1.89639e-09
1.92147e-09
1.96237e-09
2.03952e-09
2.19095e-09
2.51801e-09
3.46678e-09
7.78085e-09
1.10653e-08
1.11573e-08
1.11533e-08
1.11527e-08
1.11535e-08
)
;

boundaryField
{
    inlet
    {
        type            calculated;
        value           uniform 0;
    }
    outlet
    {
        type            calculated;
        value           uniform 1.11538e-08;
    }
    emptyWalls
    {
        type            empty;
        value           nonuniform List<scalar> 0();
    }
}


// ************************************************************************* //
