/*--------------------------------*- C++ -*----------------------------------*\
  =========                 |
  \\      /  F ield         | OpenFOAM: The Open Source CFD Toolbox
   \\    /   O peration     | Website:  https://openfoam.org
    \\  /    A nd           | Version:  9
     \\/     M anipulation  |
\*---------------------------------------------------------------------------*/
FoamFile
{
    format      ascii;
    class       volVectorField;
    location    "3000";
    object      Ua;
}
// * * * * * * * * * * * * * * * * * * * * * * * * * * * * * * * * * * * * * //

dimensions      [0 0 0 0 0 0 0];

internalField   nonuniform List<vector> 
100
(
(0 0 8.93068e-06)
(0 0 1.12998e-05)
(0 0 1.12924e-05)
(0 0 1.12811e-05)
(0 0 1.12633e-05)
(0 0 1.12528e-05)
(0 0 1.125e-05)
(0 0 1.12439e-05)
(0 0 1.12359e-05)
(0 0 1.12271e-05)
(0 0 1.12177e-05)
(0 0 1.12075e-05)
(0 0 1.11975e-05)
(0 0 1.1187e-05)
(0 0 1.11764e-05)
(0 0 1.11662e-05)
(0 0 1.11557e-05)
(0 0 1.1145e-05)
(0 0 1.11339e-05)
(0 0 1.11222e-05)
(0 0 1.11089e-05)
(0 0 1.10925e-05)
(0 0 1.10722e-05)
(0 0 1.10495e-05)
(0 0 1.10276e-05)
(0 0 1.10081e-05)
(0 0 1.09897e-05)
(0 0 1.09715e-05)
(0 0 1.09539e-05)
(0 0 1.09365e-05)
(0 0 1.09191e-05)
(0 0 1.09012e-05)
(0 0 1.08831e-05)
(0 0 1.08647e-05)
(0 0 1.08461e-05)
(0 0 1.08276e-05)
(0 0 1.08091e-05)
(0 0 1.07904e-05)
(0 0 1.07712e-05)
(0 0 1.07517e-05)
(0 0 1.07317e-05)
(0 0 1.07116e-05)
(0 0 1.06915e-05)
(0 0 1.06713e-05)
(0 0 1.06509e-05)
(0 0 1.06302e-05)
(0 0 1.06093e-05)
(0 0 1.05881e-05)
(0 0 1.05667e-05)
(0 0 1.05453e-05)
(0 0 1.05237e-05)
(0 0 1.05017e-05)
(0 0 1.04795e-05)
(0 0 1.04571e-05)
(0 0 1.04345e-05)
(0 0 1.0412e-05)
(0 0 1.03896e-05)
(0 0 1.03671e-05)
(0 0 1.03443e-05)
(0 0 1.03213e-05)
(0 0 1.0298e-05)
(0 0 1.02746e-05)
(0 0 1.02513e-05)
(0 0 1.02282e-05)
(0 0 1.0205e-05)
(0 0 1.01816e-05)
(0 0 1.0158e-05)
(0 0 1.01344e-05)
(0 0 1.01108e-05)
(0 0 1.00874e-05)
(0 0 1.0064e-05)
(0 0 1.00406e-05)
(0 0 1.00174e-05)
(0 0 9.99436e-06)
(0 0 9.97177e-06)
(0 0 9.94997e-06)
(0 0 9.92896e-06)
(0 0 9.90843e-06)
(0 0 9.88839e-06)
(0 0 9.86915e-06)
(0 0 9.85085e-06)
(0 0 9.83354e-06)
(0 0 9.81736e-06)
(0 0 9.80227e-06)
(0 0 9.78776e-06)
(0 0 9.77324e-06)
(0 0 9.75791e-06)
(0 0 9.73938e-06)
(0 0 9.71164e-06)
(0 0 9.66176e-06)
(0 0 9.56483e-06)
(0 0 9.36094e-06)
(0 0 8.80984e-06)
(0 0 6.27116e-06)
(0 0 2.13548e-06)
(0 0 6.35173e-08)
(0 0 2.69851e-11)
(0 0 1.02319e-18)
(0 0 3.27435e-34)
(0 0 1.14689e-36)
)
;

boundaryField
{
    inlet
    {
        type            fixedValue;
        value           uniform (0 0 1.131e-05);
    }
    outlet
    {
        type            zeroGradient;
    }
    emptyWalls
    {
        type            empty;
    }
}


// ************************************************************************* //
