/*--------------------------------*- C++ -*----------------------------------*\
  =========                 |
  \\      /  F ield         | OpenFOAM: The Open Source CFD Toolbox
   \\    /   O peration     | Website:  https://openfoam.org
    \\  /    A nd           | Version:  9
     \\/     M anipulation  |
\*---------------------------------------------------------------------------*/
FoamFile
{
    format      ascii;
    class       volVectorField;
    location    "3000";
    object      Ub;
}
// * * * * * * * * * * * * * * * * * * * * * * * * * * * * * * * * * * * * * //

dimensions      [0 0 0 0 0 0 0];

internalField   nonuniform List<vector> 
100
(
(0 0 7.21608e-06)
(0 0 4.84677e-06)
(0 0 4.84645e-06)
(0 0 4.84939e-06)
(0 0 4.85823e-06)
(0 0 4.85953e-06)
(0 0 4.85288e-06)
(0 0 4.84902e-06)
(0 0 4.84684e-06)
(0 0 4.8451e-06)
(0 0 4.84388e-06)
(0 0 4.84337e-06)
(0 0 4.8426e-06)
(0 0 4.8423e-06)
(0 0 4.84195e-06)
(0 0 4.84122e-06)
(0 0 4.84059e-06)
(0 0 4.84012e-06)
(0 0 4.83967e-06)
(0 0 4.83921e-06)
(0 0 4.83872e-06)
(0 0 4.83819e-06)
(0 0 4.83736e-06)
(0 0 4.8363e-06)
(0 0 4.83654e-06)
(0 0 4.83747e-06)
(0 0 4.83839e-06)
(0 0 4.83955e-06)
(0 0 4.84023e-06)
(0 0 4.84061e-06)
(0 0 4.84097e-06)
(0 0 4.84154e-06)
(0 0 4.84229e-06)
(0 0 4.84312e-06)
(0 0 4.84388e-06)
(0 0 4.84443e-06)
(0 0 4.84476e-06)
(0 0 4.84513e-06)
(0 0 4.84572e-06)
(0 0 4.84656e-06)
(0 0 4.84759e-06)
(0 0 4.84861e-06)
(0 0 4.84941e-06)
(0 0 4.85005e-06)
(0 0 4.85077e-06)
(0 0 4.85162e-06)
(0 0 4.85256e-06)
(0 0 4.85358e-06)
(0 0 4.85459e-06)
(0 0 4.85551e-06)
(0 0 4.85646e-06)
(0 0 4.85758e-06)
(0 0 4.85881e-06)
(0 0 4.8601e-06)
(0 0 4.8614e-06)
(0 0 4.8625e-06)
(0 0 4.86334e-06)
(0 0 4.86417e-06)
(0 0 4.86516e-06)
(0 0 4.86627e-06)
(0 0 4.86755e-06)
(0 0 4.86889e-06)
(0 0 4.87002e-06)
(0 0 4.87098e-06)
(0 0 4.87192e-06)
(0 0 4.87299e-06)
(0 0 4.87426e-06)
(0 0 4.87564e-06)
(0 0 4.87698e-06)
(0 0 4.87824e-06)
(0 0 4.87962e-06)
(0 0 4.88112e-06)
(0 0 4.88272e-06)
(0 0 4.88443e-06)
(0 0 4.88606e-06)
(0 0 4.8873e-06)
(0 0 4.88824e-06)
(0 0 4.8893e-06)
(0 0 4.89056e-06)
(0 0 4.89177e-06)
(0 0 4.89286e-06)
(0 0 4.89384e-06)
(0 0 4.89458e-06)
(0 0 4.89508e-06)
(0 0 4.89573e-06)
(0 0 4.8967e-06)
(0 0 4.89772e-06)
(0 0 4.89874e-06)
(0 0 4.90023e-06)
(0 0 4.90314e-06)
(0 0 4.90912e-06)
(0 0 4.92262e-06)
(0 0 4.96608e-06)
(0 0 5.41075e-06)
(0 0 6.52306e-06)
(0 0 7.25157e-06)
(0 0 7.28008e-06)
(0 0 7.28195e-06)
(0 0 7.28185e-06)
(0 0 7.28142e-06)
)
;

boundaryField
{
    inlet
    {
        type            fixedValue;
        value           uniform (0 0 4.84716e-06);
    }
    outlet
    {
        type            zeroGradient;
    }
    emptyWalls
    {
        type            empty;
    }
}


// ************************************************************************* //
