/*--------------------------------*- C++ -*----------------------------------*\
  =========                 |
  \\      /  F ield         | OpenFOAM: The Open Source CFD Toolbox
   \\    /   O peration     | Website:  https://openfoam.org
    \\  /    A nd           | Version:  9
     \\/     M anipulation  |
\*---------------------------------------------------------------------------*/
FoamFile
{
    format      ascii;
    class       volVectorField;
    location    "3000";
    object      Uc;
}
// * * * * * * * * * * * * * * * * * * * * * * * * * * * * * * * * * * * * * //

dimensions      [0 0 0 0 0 0 0];

internalField   nonuniform List<vector> 
100
(
(0 0 1.04396e-08)
(0 0 1.06566e-08)
(0 0 1.83711e-08)
(0 0 2.67607e-08)
(0 0 3.56314e-08)
(0 0 4.48383e-08)
(0 0 5.43502e-08)
(0 0 6.42505e-08)
(0 0 7.44801e-08)
(0 0 8.49512e-08)
(0 0 9.55759e-08)
(0 0 1.06295e-07)
(0 0 1.1708e-07)
(0 0 1.27916e-07)
(0 0 1.38815e-07)
(0 0 1.49792e-07)
(0 0 1.60862e-07)
(0 0 1.72074e-07)
(0 0 1.83582e-07)
(0 0 1.95786e-07)
(0 0 2.09592e-07)
(0 0 2.26471e-07)
(0 0 2.47639e-07)
(0 0 2.71417e-07)
(0 0 2.93109e-07)
(0 0 3.1164e-07)
(0 0 3.29086e-07)
(0 0 3.46127e-07)
(0 0 3.63068e-07)
(0 0 3.80062e-07)
(0 0 3.97164e-07)
(0 0 4.1441e-07)
(0 0 4.31824e-07)
(0 0 4.49417e-07)
(0 0 4.67195e-07)
(0 0 4.85167e-07)
(0 0 5.03335e-07)
(0 0 5.21698e-07)
(0 0 5.4025e-07)
(0 0 5.58989e-07)
(0 0 5.77915e-07)
(0 0 5.97029e-07)
(0 0 6.16332e-07)
(0 0 6.35819e-07)
(0 0 6.55489e-07)
(0 0 6.75331e-07)
(0 0 6.95343e-07)
(0 0 7.15527e-07)
(0 0 7.35879e-07)
(0 0 7.56398e-07)
(0 0 7.77077e-07)
(0 0 7.97911e-07)
(0 0 8.18897e-07)
(0 0 8.40027e-07)
(0 0 8.613e-07)
(0 0 8.82715e-07)
(0 0 9.04264e-07)
(0 0 9.25937e-07)
(0 0 9.47725e-07)
(0 0 9.6962e-07)
(0 0 9.91607e-07)
(0 0 1.01368e-06)
(0 0 1.03583e-06)
(0 0 1.05805e-06)
(0 0 1.08032e-06)
(0 0 1.10261e-06)
(0 0 1.1249e-06)
(0 0 1.14718e-06)
(0 0 1.16942e-06)
(0 0 1.19158e-06)
(0 0 1.21361e-06)
(0 0 1.23546e-06)
(0 0 1.25708e-06)
(0 0 1.2784e-06)
(0 0 1.29938e-06)
(0 0 1.31994e-06)
(0 0 1.34e-06)
(0 0 1.35947e-06)
(0 0 1.37825e-06)
(0 0 1.39628e-06)
(0 0 1.41349e-06)
(0 0 1.42982e-06)
(0 0 1.44526e-06)
(0 0 1.45985e-06)
(0 0 1.47371e-06)
(0 0 1.48726e-06)
(0 0 1.50157e-06)
(0 0 1.51908e-06)
(0 0 1.54533e-06)
(0 0 1.5923e-06)
(0 0 1.68325e-06)
(0 0 1.87364e-06)
(0 0 2.38128e-06)
(0 0 4.47529e-06)
(0 0 7.49866e-06)
(0 0 8.84211e-06)
(0 0 8.8771e-06)
(0 0 8.87525e-06)
(0 0 8.87535e-06)
(0 0 8.87578e-06)
)
;

boundaryField
{
    inlet
    {
        type            fixedValue;
        value           uniform (0 0 0);
    }
    outlet
    {
        type            zeroGradient;
    }
    emptyWalls
    {
        type            empty;
    }
}


// ************************************************************************* //
