/*--------------------------------*- C++ -*----------------------------------*\
  =========                 |
  \\      /  F ield         | OpenFOAM: The Open Source CFD Toolbox
   \\    /   O peration     | Website:  https://openfoam.org
    \\  /    A nd           | Version:  9
     \\/     M anipulation  |
\*---------------------------------------------------------------------------*/
FoamFile
{
    format      ascii;
    class       volScalarField;
    location    "16350";
    object      Fa;
}
// * * * * * * * * * * * * * * * * * * * * * * * * * * * * * * * * * * * * * //

dimensions      [0 0 0 0 0 0 0];

internalField   nonuniform List<scalar> 
1000
(
0.194739
0.194803
0.194771
0.194761
0.194736
0.194705
0.194651
0.194608
0.194538
0.194477
0.194411
0.194311
0.194287
0.194111
0.194183
0.193932
0.194083
0.193837
0.193955
0.193757
0.193632
0.19279
0.186739
0.160319
0.152623
0.150873
0.150148
0.149731
0.149528
0.149608
0.14995
0.15037
0.150642
0.150646
0.15044
0.15017
0.149907
0.149463
0.148802
0.148157
0.147581
0.147104
0.146734
0.146463
0.146282
0.146176
0.146121
0.1461
0.14608
0.146075
0.146061
0.146038
0.145999
0.145951
0.145892
0.145828
0.145758
0.145687
0.145615
0.145544
0.145475
0.145411
0.145355
0.145307
0.145267
0.145228
0.145188
0.145148
0.145108
0.145069
0.14503
0.144992
0.144954
0.144917
0.144881
0.144846
0.144811
0.144778
0.144745
0.144713
0.144682
0.144651
0.144622
0.144593
0.144565
0.144539
0.144513
0.144488
0.144464
0.144441
0.144419
0.144398
0.144378
0.144359
0.144341
0.144324
0.144308
0.144292
0.144279
0.144266
0.144254
0.144244
0.144236
0.144228
0.144222
0.144216
0.144211
0.144206
0.144201
0.144195
0.144189
0.144183
0.144177
0.144171
0.144166
0.144163
0.144161
0.14416
0.144161
0.144163
0.144165
0.144167
0.144166
0.144164
0.14416
0.144157
0.144155
0.144158
0.14417
0.144193
0.14423
0.144283
0.144354
0.144442
0.144546
0.144666
0.144799
0.144943
0.145094
0.145249
0.145406
0.145558
0.145702
0.145834
0.145948
0.146039
0.146103
0.146137
0.146138
0.146105
0.146038
0.145939
0.14581
0.145657
0.145485
0.145299
0.145105
0.144911
0.144721
0.14454
0.144372
0.14422
0.144086
0.143969
0.143871
0.143791
0.143726
0.143675
0.143637
0.143608
0.143588
0.143573
0.143561
0.143552
0.143544
0.143535
0.143525
0.143512
0.143498
0.14348
0.14346
0.143437
0.143412
0.143384
0.143354
0.143322
0.143288
0.143253
0.143217
0.14318
0.143143
0.143105
0.143066
0.143028
0.14299
0.142951
0.142913
0.142876
0.142838
0.142801
0.142765
0.142729
0.142693
0.142659
0.142624
0.142591
0.142558
0.142525
0.142493
0.142462
0.142432
0.142402
0.142373
0.142345
0.142317
0.14229
0.142264
0.142238
0.142214
0.14219
0.142166
0.142144
0.142122
0.142101
0.14208
0.142061
0.142041
0.142024
0.142006
0.14199
0.141973
0.141959
0.141944
0.141931
0.141917
0.141906
0.141893
0.141883
0.141872
0.141863
0.141852
0.141843
0.141833
0.141825
0.141815
0.141808
0.141799
0.141792
0.141784
0.141778
0.141771
0.141765
0.141759
0.141753
0.141748
0.141742
0.141737
0.141732
0.141727
0.141723
0.14172
0.141719
0.14172
0.141723
0.14173
0.141741
0.141757
0.141778
0.141806
0.14184
0.141882
0.14193
0.141986
0.142049
0.142119
0.142196
0.142278
0.142364
0.142455
0.142547
0.14264
0.142733
0.142822
0.142908
0.142986
0.143057
0.143118
0.143166
0.143202
0.143223
0.143229
0.143219
0.143192
0.143149
0.143091
0.143018
0.142932
0.142834
0.142726
0.142611
0.14249
0.142365
0.142239
0.142114
0.141992
0.141873
0.14176
0.141653
0.141554
0.141462
0.141378
0.141302
0.141233
0.141172
0.141118
0.14107
0.141028
0.140991
0.140958
0.140928
0.140901
0.140876
0.140852
0.14083
0.140808
0.140787
0.140765
0.140742
0.140719
0.140696
0.140671
0.140645
0.140618
0.140591
0.140562
0.140532
0.140502
0.14047
0.140439
0.140406
0.140373
0.14034
0.140306
0.140272
0.140238
0.140204
0.140169
0.140135
0.140101
0.140067
0.140034
0.14
0.139967
0.139934
0.139902
0.13987
0.139838
0.139807
0.139776
0.139746
0.139716
0.139686
0.139657
0.139629
0.139601
0.139573
0.139546
0.13952
0.139494
0.139468
0.139443
0.139419
0.139395
0.139372
0.139349
0.139326
0.139305
0.139283
0.139263
0.139242
0.139223
0.139204
0.139185
0.139167
0.139149
0.139132
0.139116
0.1391
0.139084
0.139069
0.139054
0.139039
0.139025
0.139011
0.138998
0.138985
0.138972
0.13896
0.138948
0.138936
0.138924
0.138912
0.138901
0.13889
0.13888
0.138869
0.138859
0.138849
0.138839
0.138829
0.138821
0.138811
0.138803
0.138795
0.138788
0.138782
0.138777
0.138773
0.13877
0.138769
0.13877
0.138773
0.138779
0.138788
0.138799
0.138814
0.138832
0.138854
0.138879
0.138909
0.138942
0.13898
0.139021
0.139066
0.139114
0.139166
0.13922
0.139276
0.139334
0.139394
0.139453
0.139513
0.139571
0.139627
0.139681
0.139732
0.139778
0.139819
0.139853
0.139882
0.139903
0.139916
0.13992
0.139917
0.139903
0.139882
0.13985
0.139811
0.139762
0.139706
0.139642
0.139572
0.139495
0.139415
0.139329
0.139241
0.13915
0.139058
0.138966
0.138875
0.138784
0.138696
0.13861
0.138527
0.138449
0.138373
0.138302
0.138234
0.138171
0.138112
0.138057
0.138006
0.137958
0.137913
0.137871
0.137833
0.137796
0.137762
0.13773
0.137699
0.137669
0.13764
0.137612
0.137585
0.137557
0.13753
0.137503
0.137476
0.137449
0.137421
0.137393
0.137365
0.137336
0.137307
0.137277
0.137247
0.137216
0.137185
0.137154
0.137122
0.13709
0.137058
0.137025
0.136992
0.136959
0.136926
0.136893
0.13686
0.136827
0.136794
0.13676
0.136727
0.136695
0.136662
0.136629
0.136597
0.136565
0.136533
0.136501
0.13647
0.136439
0.136408
0.136377
0.136347
0.136317
0.136288
0.136259
0.13623
0.136201
0.136173
0.136145
0.136118
0.136091
0.136064
0.136038
0.136012
0.135987
0.135962
0.135937
0.135913
0.135889
0.135865
0.135842
0.135819
0.135797
0.135775
0.135753
0.135732
0.135711
0.13569
0.13567
0.13565
0.13563
0.135611
0.135592
0.135574
0.135555
0.135537
0.135519
0.135502
0.135484
0.135467
0.13545
0.135434
0.135417
0.135401
0.135385
0.135369
0.135354
0.135339
0.135324
0.135309
0.135294
0.13528
0.135267
0.135253
0.13524
0.135228
0.135216
0.135205
0.135194
0.135185
0.135176
0.135168
0.135161
0.135156
0.135152
0.13515
0.135149
0.13515
0.135153
0.135158
0.135165
0.135174
0.135185
0.135199
0.135215
0.135234
0.135254
0.135277
0.135303
0.13533
0.13536
0.135391
0.135424
0.135459
0.135495
0.135533
0.135571
0.135609
0.135648
0.135687
0.135726
0.135764
0.135801
0.135836
0.13587
0.135901
0.135931
0.135957
0.135981
0.136001
0.136017
0.136029
0.136037
0.136041
0.13604
0.136035
0.136024
0.136009
0.13599
0.135965
0.135936
0.135903
0.135866
0.135823
0.135777
0.135726
0.135667
0.1356
0.135518
0.135412
0.135265
0.135055
0.134747
0.134313
0.133759
0.133164
0.132659
0.13232
0.13212
0.132004
0.13193
0.131876
0.131833
0.131796
0.131764
0.131735
0.131708
0.131683
0.13166
0.131639
0.131619
0.131601
0.131584
0.131569
0.131555
0.131541
0.131529
0.131517
0.131506
0.131496
0.131486
0.131476
0.131467
0.131458
0.131449
0.13144
0.131431
0.131422
0.131413
0.131404
0.131395
0.131386
0.131377
0.131367
0.131357
0.131348
0.131338
0.131328
0.131317
0.131307
0.131296
0.131286
0.131275
0.131264
0.131254
0.131243
0.131232
0.131221
0.131211
0.1312
0.131189
0.131179
0.131168
0.131158
0.131148
0.131138
0.131128
0.131118
0.131109
0.131099
0.13109
0.131081
0.131073
0.131064
0.131056
0.131049
0.131041
0.131034
0.131027
0.13102
0.131013
0.131007
0.131001
0.130996
0.130991
0.130986
0.130981
0.130977
0.130973
0.130969
0.130966
0.130963
0.13096
0.130958
0.130956
0.130954
0.130953
0.130952
0.130952
0.130951
0.130951
0.130951
0.130951
0.130952
0.130953
0.130955
0.130956
0.130958
0.130961
0.130963
0.130966
0.130969
0.130973
0.130976
0.13098
0.130984
0.130989
0.130993
0.130998
0.131003
0.131009
0.131014
0.13102
0.131026
0.131033
0.131039
0.131047
0.131054
0.131062
0.13107
0.131078
0.131087
0.131096
0.131106
0.131116
0.131127
0.131138
0.13115
0.131163
0.131177
0.131191
0.131206
0.131223
0.13124
0.131258
0.131278
0.131298
0.13132
0.131343
0.131368
0.131394
0.131421
0.13145
0.13148
0.131511
0.131544
0.131579
0.131615
0.131653
0.131692
0.131732
0.131773
0.131816
0.13186
0.131905
0.13195
0.131996
0.132043
0.13209
0.132137
0.132184
0.132231
0.132277
0.132323
0.132368
0.132411
0.132454
0.132494
0.132532
0.132569
0.132603
0.132634
0.132663
0.132688
0.132711
0.132729
0.132745
0.132757
0.132765
0.132769
0.13277
0.13277
0.132768
0.132762
0.132747
0.13273
0.132708
0.132684
0.132657
0.132627
0.132594
0.132559
0.132522
0.132484
0.132444
0.132402
0.13236
0.132317
0.132274
0.132231
0.132188
0.132145
0.132103
0.132061
0.132021
0.131981
0.131943
0.131906
0.131871
0.131837
0.131805
0.131774
0.131745
0.131717
0.131691
0.131667
0.131643
0.131622
0.131601
0.131582
0.131564
0.131547
0.131531
0.131516
0.131502
0.131489
0.131476
0.131464
0.131452
0.131441
0.131431
0.13142
0.13141
0.1314
0.131391
0.131381
0.131372
0.131362
0.131353
0.131344
0.131335
0.131325
0.131316
0.131307
0.131298
0.131288
0.131279
0.13127
0.131261
0.131251
0.131242
0.131233
0.131223
0.131214
0.131205
0.131196
0.131187
0.131178
0.131169
0.13116
0.131151
0.131143
0.131134
0.131126
0.131118
0.13111
0.131102
0.131095
0.131087
0.13108
0.131073
0.131067
0.13106
0.131054
0.131048
0.131042
0.131036
0.131031
0.131026
0.131021
0.131017
0.131013
0.131009
0.131005
0.131001
0.130998
0.130995
0.130993
0.130991
0.130989
0.130987
0.130986
0.130984
0.130984
0.130983
0.130983
0.130983
0.130983
0.130983
0.130984
0.130984
0.130986
0.130987
0.13099
0.130991
0.130995
0.130996
0.131001
0.131002
0.131007
0.131009
0.131015
0.131017
0.131024
0.131026
0.131034
0.131036
0.131045
0.131047
0.131057
0.131059
0.13107
0.131073
0.131085
0.131088
0.131101
0.131105
0.131119
0.131123
0.131139
0.131144
0.131162
0.131167
0.131187
0.131192
0.131215
0.131221
0.131258
)
;

boundaryField
{
    inlet
    {
        type            calculated;
        value           uniform 0.194831;
    }
    outlet
    {
        type            calculated;
        value           uniform 0.13125;
    }
    emptyWalls
    {
        type            empty;
    }
}


// ************************************************************************* //
