/*--------------------------------*- C++ -*----------------------------------*\
  =========                 |
  \\      /  F ield         | OpenFOAM: The Open Source CFD Toolbox
   \\    /   O peration     | Website:  https://openfoam.org
    \\  /    A nd           | Version:  9
     \\/     M anipulation  |
\*---------------------------------------------------------------------------*/
FoamFile
{
    format      ascii;
    class       volVectorField;
    location    "16350";
    object      Ub;
}
// * * * * * * * * * * * * * * * * * * * * * * * * * * * * * * * * * * * * * //

dimensions      [0 0 0 0 0 0 0];

internalField   nonuniform List<vector> 
1000
(
(1.13622e-05 0 0)
(1.13624e-05 0 0)
(1.13624e-05 0 0)
(1.13625e-05 0 0)
(1.13626e-05 0 0)
(1.13628e-05 0 0)
(1.13632e-05 0 0)
(1.13635e-05 0 0)
(1.1364e-05 0 0)
(1.13645e-05 0 0)
(1.1365e-05 0 0)
(1.13655e-05 0 0)
(1.13662e-05 0 0)
(1.13668e-05 0 0)
(1.13673e-05 0 0)
(1.13678e-05 0 0)
(1.13681e-05 0 0)
(1.13685e-05 0 0)
(1.13689e-05 0 0)
(1.13696e-05 0 0)
(1.13721e-05 0 0)
(1.13814e-05 0 0)
(1.14381e-05 0 0)
(1.16048e-05 0 0)
(1.17416e-05 0 0)
(1.17664e-05 0 0)
(1.17738e-05 0 0)
(1.17769e-05 0 0)
(1.17772e-05 0 0)
(1.17742e-05 0 0)
(1.17684e-05 0 0)
(1.17617e-05 0 0)
(1.17569e-05 0 0)
(1.17553e-05 0 0)
(1.17563e-05 0 0)
(1.17585e-05 0 0)
(1.17612e-05 0 0)
(1.17664e-05 0 0)
(1.17741e-05 0 0)
(1.17817e-05 0 0)
(1.17885e-05 0 0)
(1.1794e-05 0 0)
(1.17981e-05 0 0)
(1.18008e-05 0 0)
(1.18023e-05 0 0)
(1.18027e-05 0 0)
(1.18024e-05 0 0)
(1.18017e-05 0 0)
(1.18008e-05 0 0)
(1.17997e-05 0 0)
(1.17986e-05 0 0)
(1.17977e-05 0 0)
(1.17969e-05 0 0)
(1.17961e-05 0 0)
(1.17955e-05 0 0)
(1.17948e-05 0 0)
(1.17942e-05 0 0)
(1.17934e-05 0 0)
(1.17924e-05 0 0)
(1.17912e-05 0 0)
(1.17896e-05 0 0)
(1.17875e-05 0 0)
(1.17848e-05 0 0)
(1.17815e-05 0 0)
(1.17776e-05 0 0)
(1.17733e-05 0 0)
(1.17687e-05 0 0)
(1.17639e-05 0 0)
(1.17589e-05 0 0)
(1.17539e-05 0 0)
(1.17487e-05 0 0)
(1.17434e-05 0 0)
(1.17381e-05 0 0)
(1.17327e-05 0 0)
(1.17272e-05 0 0)
(1.17217e-05 0 0)
(1.17161e-05 0 0)
(1.17105e-05 0 0)
(1.17049e-05 0 0)
(1.16992e-05 0 0)
(1.16934e-05 0 0)
(1.16877e-05 0 0)
(1.16819e-05 0 0)
(1.1676e-05 0 0)
(1.16702e-05 0 0)
(1.16643e-05 0 0)
(1.16583e-05 0 0)
(1.16523e-05 0 0)
(1.16463e-05 0 0)
(1.16403e-05 0 0)
(1.16342e-05 0 0)
(1.16281e-05 0 0)
(1.1622e-05 0 0)
(1.16159e-05 0 0)
(1.16097e-05 0 0)
(1.16035e-05 0 0)
(1.15972e-05 0 0)
(1.15909e-05 0 0)
(1.15846e-05 0 0)
(1.15783e-05 0 0)
(1.15719e-05 0 0)
(1.15655e-05 0 0)
(1.15591e-05 0 0)
(1.15526e-05 0 0)
(1.15461e-05 0 0)
(1.15396e-05 0 0)
(1.15331e-05 0 0)
(1.15265e-05 0 0)
(1.152e-05 0 0)
(1.15134e-05 0 0)
(1.15068e-05 0 0)
(1.15002e-05 0 0)
(1.14936e-05 0 0)
(1.1487e-05 0 0)
(1.14804e-05 0 0)
(1.14737e-05 0 0)
(1.1467e-05 0 0)
(1.14603e-05 0 0)
(1.14535e-05 0 0)
(1.14467e-05 0 0)
(1.14399e-05 0 0)
(1.14331e-05 0 0)
(1.14263e-05 0 0)
(1.14196e-05 0 0)
(1.14128e-05 0 0)
(1.1406e-05 0 0)
(1.13992e-05 0 0)
(1.13923e-05 0 0)
(1.13853e-05 0 0)
(1.13781e-05 0 0)
(1.13707e-05 0 0)
(1.13631e-05 0 0)
(1.13552e-05 0 0)
(1.13472e-05 0 0)
(1.13388e-05 0 0)
(1.13303e-05 0 0)
(1.13216e-05 0 0)
(1.13127e-05 0 0)
(1.13038e-05 0 0)
(1.12947e-05 0 0)
(1.12857e-05 0 0)
(1.12767e-05 0 0)
(1.12678e-05 0 0)
(1.12591e-05 0 0)
(1.12506e-05 0 0)
(1.12423e-05 0 0)
(1.12345e-05 0 0)
(1.1227e-05 0 0)
(1.122e-05 0 0)
(1.12134e-05 0 0)
(1.12072e-05 0 0)
(1.12015e-05 0 0)
(1.11961e-05 0 0)
(1.11911e-05 0 0)
(1.11862e-05 0 0)
(1.11816e-05 0 0)
(1.1177e-05 0 0)
(1.11725e-05 0 0)
(1.11679e-05 0 0)
(1.11631e-05 0 0)
(1.11582e-05 0 0)
(1.11531e-05 0 0)
(1.11477e-05 0 0)
(1.11421e-05 0 0)
(1.11362e-05 0 0)
(1.11301e-05 0 0)
(1.11237e-05 0 0)
(1.11172e-05 0 0)
(1.11105e-05 0 0)
(1.11037e-05 0 0)
(1.10967e-05 0 0)
(1.10897e-05 0 0)
(1.10826e-05 0 0)
(1.10755e-05 0 0)
(1.10683e-05 0 0)
(1.10612e-05 0 0)
(1.1054e-05 0 0)
(1.10469e-05 0 0)
(1.10398e-05 0 0)
(1.10327e-05 0 0)
(1.10257e-05 0 0)
(1.10186e-05 0 0)
(1.10117e-05 0 0)
(1.10047e-05 0 0)
(1.09977e-05 0 0)
(1.09908e-05 0 0)
(1.09839e-05 0 0)
(1.0977e-05 0 0)
(1.09701e-05 0 0)
(1.09632e-05 0 0)
(1.09563e-05 0 0)
(1.09494e-05 0 0)
(1.09425e-05 0 0)
(1.09355e-05 0 0)
(1.09286e-05 0 0)
(1.09217e-05 0 0)
(1.09147e-05 0 0)
(1.09078e-05 0 0)
(1.09008e-05 0 0)
(1.08938e-05 0 0)
(1.08868e-05 0 0)
(1.08798e-05 0 0)
(1.08728e-05 0 0)
(1.08658e-05 0 0)
(1.08587e-05 0 0)
(1.08516e-05 0 0)
(1.08445e-05 0 0)
(1.08374e-05 0 0)
(1.08303e-05 0 0)
(1.08232e-05 0 0)
(1.0816e-05 0 0)
(1.08088e-05 0 0)
(1.08017e-05 0 0)
(1.07945e-05 0 0)
(1.07872e-05 0 0)
(1.078e-05 0 0)
(1.07727e-05 0 0)
(1.07655e-05 0 0)
(1.07582e-05 0 0)
(1.07509e-05 0 0)
(1.07435e-05 0 0)
(1.07362e-05 0 0)
(1.07288e-05 0 0)
(1.07215e-05 0 0)
(1.07141e-05 0 0)
(1.07066e-05 0 0)
(1.06992e-05 0 0)
(1.06918e-05 0 0)
(1.06843e-05 0 0)
(1.06768e-05 0 0)
(1.06693e-05 0 0)
(1.06618e-05 0 0)
(1.06543e-05 0 0)
(1.06467e-05 0 0)
(1.06391e-05 0 0)
(1.06316e-05 0 0)
(1.0624e-05 0 0)
(1.06163e-05 0 0)
(1.06087e-05 0 0)
(1.06011e-05 0 0)
(1.05934e-05 0 0)
(1.05857e-05 0 0)
(1.05781e-05 0 0)
(1.05704e-05 0 0)
(1.05627e-05 0 0)
(1.0555e-05 0 0)
(1.05472e-05 0 0)
(1.05395e-05 0 0)
(1.05317e-05 0 0)
(1.0524e-05 0 0)
(1.05162e-05 0 0)
(1.05084e-05 0 0)
(1.05006e-05 0 0)
(1.04928e-05 0 0)
(1.0485e-05 0 0)
(1.04772e-05 0 0)
(1.04693e-05 0 0)
(1.04615e-05 0 0)
(1.04536e-05 0 0)
(1.04457e-05 0 0)
(1.04378e-05 0 0)
(1.04299e-05 0 0)
(1.04219e-05 0 0)
(1.04139e-05 0 0)
(1.04059e-05 0 0)
(1.03977e-05 0 0)
(1.03896e-05 0 0)
(1.03813e-05 0 0)
(1.03729e-05 0 0)
(1.03645e-05 0 0)
(1.0356e-05 0 0)
(1.03473e-05 0 0)
(1.03386e-05 0 0)
(1.03298e-05 0 0)
(1.03209e-05 0 0)
(1.03119e-05 0 0)
(1.03028e-05 0 0)
(1.02937e-05 0 0)
(1.02845e-05 0 0)
(1.02752e-05 0 0)
(1.0266e-05 0 0)
(1.02568e-05 0 0)
(1.02475e-05 0 0)
(1.02384e-05 0 0)
(1.02293e-05 0 0)
(1.02203e-05 0 0)
(1.02114e-05 0 0)
(1.02027e-05 0 0)
(1.01941e-05 0 0)
(1.01857e-05 0 0)
(1.01774e-05 0 0)
(1.01694e-05 0 0)
(1.01615e-05 0 0)
(1.01538e-05 0 0)
(1.01464e-05 0 0)
(1.0139e-05 0 0)
(1.01319e-05 0 0)
(1.01248e-05 0 0)
(1.01179e-05 0 0)
(1.0111e-05 0 0)
(1.01042e-05 0 0)
(1.00975e-05 0 0)
(1.00907e-05 0 0)
(1.0084e-05 0 0)
(1.00771e-05 0 0)
(1.00703e-05 0 0)
(1.00633e-05 0 0)
(1.00563e-05 0 0)
(1.00492e-05 0 0)
(1.00419e-05 0 0)
(1.00346e-05 0 0)
(1.00271e-05 0 0)
(1.00196e-05 0 0)
(1.00119e-05 0 0)
(1.00042e-05 0 0)
(9.99635e-06 0 0)
(9.98844e-06 0 0)
(9.98047e-06 0 0)
(9.97243e-06 0 0)
(9.96434e-06 0 0)
(9.95621e-06 0 0)
(9.94804e-06 0 0)
(9.93985e-06 0 0)
(9.93163e-06 0 0)
(9.92339e-06 0 0)
(9.91515e-06 0 0)
(9.90689e-06 0 0)
(9.89863e-06 0 0)
(9.89037e-06 0 0)
(9.88211e-06 0 0)
(9.87385e-06 0 0)
(9.86559e-06 0 0)
(9.85733e-06 0 0)
(9.84908e-06 0 0)
(9.84082e-06 0 0)
(9.83257e-06 0 0)
(9.82431e-06 0 0)
(9.81606e-06 0 0)
(9.8078e-06 0 0)
(9.79953e-06 0 0)
(9.79127e-06 0 0)
(9.78299e-06 0 0)
(9.77471e-06 0 0)
(9.76642e-06 0 0)
(9.75812e-06 0 0)
(9.74982e-06 0 0)
(9.7415e-06 0 0)
(9.73317e-06 0 0)
(9.72482e-06 0 0)
(9.71647e-06 0 0)
(9.7081e-06 0 0)
(9.69971e-06 0 0)
(9.69131e-06 0 0)
(9.6829e-06 0 0)
(9.67447e-06 0 0)
(9.66602e-06 0 0)
(9.65756e-06 0 0)
(9.64908e-06 0 0)
(9.64059e-06 0 0)
(9.63208e-06 0 0)
(9.62355e-06 0 0)
(9.61501e-06 0 0)
(9.60644e-06 0 0)
(9.59786e-06 0 0)
(9.58927e-06 0 0)
(9.58065e-06 0 0)
(9.57202e-06 0 0)
(9.56337e-06 0 0)
(9.5547e-06 0 0)
(9.54601e-06 0 0)
(9.53731e-06 0 0)
(9.52859e-06 0 0)
(9.51985e-06 0 0)
(9.51109e-06 0 0)
(9.50231e-06 0 0)
(9.49351e-06 0 0)
(9.4847e-06 0 0)
(9.47587e-06 0 0)
(9.46702e-06 0 0)
(9.45815e-06 0 0)
(9.44926e-06 0 0)
(9.44035e-06 0 0)
(9.43143e-06 0 0)
(9.42248e-06 0 0)
(9.41352e-06 0 0)
(9.40454e-06 0 0)
(9.39554e-06 0 0)
(9.38652e-06 0 0)
(9.37748e-06 0 0)
(9.36843e-06 0 0)
(9.35936e-06 0 0)
(9.35027e-06 0 0)
(9.34116e-06 0 0)
(9.33204e-06 0 0)
(9.3229e-06 0 0)
(9.31374e-06 0 0)
(9.30457e-06 0 0)
(9.29538e-06 0 0)
(9.28617e-06 0 0)
(9.27695e-06 0 0)
(9.26771e-06 0 0)
(9.25845e-06 0 0)
(9.24917e-06 0 0)
(9.23988e-06 0 0)
(9.23058e-06 0 0)
(9.22125e-06 0 0)
(9.21192e-06 0 0)
(9.20256e-06 0 0)
(9.19319e-06 0 0)
(9.18379e-06 0 0)
(9.17439e-06 0 0)
(9.16496e-06 0 0)
(9.15551e-06 0 0)
(9.14604e-06 0 0)
(9.13655e-06 0 0)
(9.12704e-06 0 0)
(9.1175e-06 0 0)
(9.10793e-06 0 0)
(9.09833e-06 0 0)
(9.0887e-06 0 0)
(9.07903e-06 0 0)
(9.06932e-06 0 0)
(9.05957e-06 0 0)
(9.04977e-06 0 0)
(9.03992e-06 0 0)
(9.03003e-06 0 0)
(9.02008e-06 0 0)
(9.01007e-06 0 0)
(9.00001e-06 0 0)
(8.98989e-06 0 0)
(8.97971e-06 0 0)
(8.96948e-06 0 0)
(8.95919e-06 0 0)
(8.94884e-06 0 0)
(8.93844e-06 0 0)
(8.92799e-06 0 0)
(8.9175e-06 0 0)
(8.90697e-06 0 0)
(8.8964e-06 0 0)
(8.88581e-06 0 0)
(8.87519e-06 0 0)
(8.86456e-06 0 0)
(8.85393e-06 0 0)
(8.84331e-06 0 0)
(8.83269e-06 0 0)
(8.8221e-06 0 0)
(8.81154e-06 0 0)
(8.80102e-06 0 0)
(8.79054e-06 0 0)
(8.78012e-06 0 0)
(8.76976e-06 0 0)
(8.75947e-06 0 0)
(8.74925e-06 0 0)
(8.7391e-06 0 0)
(8.72903e-06 0 0)
(8.71904e-06 0 0)
(8.70913e-06 0 0)
(8.69928e-06 0 0)
(8.68951e-06 0 0)
(8.67981e-06 0 0)
(8.67016e-06 0 0)
(8.66056e-06 0 0)
(8.651e-06 0 0)
(8.64147e-06 0 0)
(8.63197e-06 0 0)
(8.62247e-06 0 0)
(8.61298e-06 0 0)
(8.60348e-06 0 0)
(8.59396e-06 0 0)
(8.58441e-06 0 0)
(8.57482e-06 0 0)
(8.56519e-06 0 0)
(8.55551e-06 0 0)
(8.54577e-06 0 0)
(8.53598e-06 0 0)
(8.52612e-06 0 0)
(8.5162e-06 0 0)
(8.50621e-06 0 0)
(8.49616e-06 0 0)
(8.48604e-06 0 0)
(8.47585e-06 0 0)
(8.46561e-06 0 0)
(8.4553e-06 0 0)
(8.44493e-06 0 0)
(8.43451e-06 0 0)
(8.42404e-06 0 0)
(8.41352e-06 0 0)
(8.40295e-06 0 0)
(8.39234e-06 0 0)
(8.38169e-06 0 0)
(8.371e-06 0 0)
(8.36027e-06 0 0)
(8.34951e-06 0 0)
(8.33873e-06 0 0)
(8.32791e-06 0 0)
(8.31707e-06 0 0)
(8.30619e-06 0 0)
(8.2953e-06 0 0)
(8.28438e-06 0 0)
(8.27344e-06 0 0)
(8.26247e-06 0 0)
(8.25148e-06 0 0)
(8.24047e-06 0 0)
(8.22943e-06 0 0)
(8.21837e-06 0 0)
(8.20729e-06 0 0)
(8.19619e-06 0 0)
(8.18506e-06 0 0)
(8.1739e-06 0 0)
(8.16272e-06 0 0)
(8.15152e-06 0 0)
(8.14028e-06 0 0)
(8.12902e-06 0 0)
(8.11774e-06 0 0)
(8.10642e-06 0 0)
(8.09507e-06 0 0)
(8.0837e-06 0 0)
(8.07229e-06 0 0)
(8.06085e-06 0 0)
(8.04938e-06 0 0)
(8.03788e-06 0 0)
(8.02634e-06 0 0)
(8.01477e-06 0 0)
(8.00317e-06 0 0)
(7.99153e-06 0 0)
(7.97985e-06 0 0)
(7.96814e-06 0 0)
(7.9564e-06 0 0)
(7.94461e-06 0 0)
(7.93279e-06 0 0)
(7.92093e-06 0 0)
(7.90904e-06 0 0)
(7.8971e-06 0 0)
(7.88513e-06 0 0)
(7.87311e-06 0 0)
(7.86106e-06 0 0)
(7.84896e-06 0 0)
(7.83683e-06 0 0)
(7.82465e-06 0 0)
(7.81243e-06 0 0)
(7.80017e-06 0 0)
(7.78787e-06 0 0)
(7.77552e-06 0 0)
(7.76313e-06 0 0)
(7.7507e-06 0 0)
(7.73822e-06 0 0)
(7.7257e-06 0 0)
(7.71313e-06 0 0)
(7.70052e-06 0 0)
(7.68786e-06 0 0)
(7.67516e-06 0 0)
(7.66241e-06 0 0)
(7.64961e-06 0 0)
(7.63676e-06 0 0)
(7.62387e-06 0 0)
(7.61092e-06 0 0)
(7.59793e-06 0 0)
(7.58489e-06 0 0)
(7.5718e-06 0 0)
(7.55866e-06 0 0)
(7.54547e-06 0 0)
(7.53223e-06 0 0)
(7.51893e-06 0 0)
(7.50559e-06 0 0)
(7.49219e-06 0 0)
(7.47874e-06 0 0)
(7.46523e-06 0 0)
(7.45168e-06 0 0)
(7.43806e-06 0 0)
(7.42439e-06 0 0)
(7.41067e-06 0 0)
(7.39689e-06 0 0)
(7.38306e-06 0 0)
(7.36917e-06 0 0)
(7.35522e-06 0 0)
(7.34121e-06 0 0)
(7.32714e-06 0 0)
(7.31302e-06 0 0)
(7.29883e-06 0 0)
(7.28459e-06 0 0)
(7.27028e-06 0 0)
(7.25592e-06 0 0)
(7.24149e-06 0 0)
(7.227e-06 0 0)
(7.21244e-06 0 0)
(7.19782e-06 0 0)
(7.18313e-06 0 0)
(7.16838e-06 0 0)
(7.15355e-06 0 0)
(7.13867e-06 0 0)
(7.12371e-06 0 0)
(7.10868e-06 0 0)
(7.09358e-06 0 0)
(7.07841e-06 0 0)
(7.06316e-06 0 0)
(7.04785e-06 0 0)
(7.03246e-06 0 0)
(7.017e-06 0 0)
(7.00146e-06 0 0)
(6.98585e-06 0 0)
(6.97017e-06 0 0)
(6.95441e-06 0 0)
(6.93859e-06 0 0)
(6.92271e-06 0 0)
(6.90676e-06 0 0)
(6.89075e-06 0 0)
(6.87469e-06 0 0)
(6.85859e-06 0 0)
(6.84245e-06 0 0)
(6.82628e-06 0 0)
(6.81011e-06 0 0)
(6.79394e-06 0 0)
(6.77778e-06 0 0)
(6.76167e-06 0 0)
(6.74562e-06 0 0)
(6.72966e-06 0 0)
(6.71382e-06 0 0)
(6.69814e-06 0 0)
(6.68266e-06 0 0)
(6.66741e-06 0 0)
(6.65244e-06 0 0)
(6.63781e-06 0 0)
(6.62356e-06 0 0)
(6.60975e-06 0 0)
(6.59644e-06 0 0)
(6.58367e-06 0 0)
(6.57149e-06 0 0)
(6.55995e-06 0 0)
(6.5491e-06 0 0)
(6.53898e-06 0 0)
(6.52961e-06 0 0)
(6.521e-06 0 0)
(6.51317e-06 0 0)
(6.50611e-06 0 0)
(6.4998e-06 0 0)
(6.49424e-06 0 0)
(6.48938e-06 0 0)
(6.48519e-06 0 0)
(6.4816e-06 0 0)
(6.47857e-06 0 0)
(6.47603e-06 0 0)
(6.47391e-06 0 0)
(6.47211e-06 0 0)
(6.47049e-06 0 0)
(6.46887e-06 0 0)
(6.46694e-06 0 0)
(6.4642e-06 0 0)
(6.4598e-06 0 0)
(6.45222e-06 0 0)
(6.43884e-06 0 0)
(6.41501e-06 0 0)
(6.37277e-06 0 0)
(6.29886e-06 0 0)
(6.17256e-06 0 0)
(5.96508e-06 0 0)
(5.64508e-06 0 0)
(5.19597e-06 0 0)
(4.64201e-06 0 0)
(4.05868e-06 0 0)
(3.54134e-06 0 0)
(3.15183e-06 0 0)
(2.89601e-06 0 0)
(2.7439e-06 0 0)
(2.6591e-06 0 0)
(2.61359e-06 0 0)
(2.58971e-06 0 0)
(2.57733e-06 0 0)
(2.57097e-06 0 0)
(2.56773e-06 0 0)
(2.56609e-06 0 0)
(2.56528e-06 0 0)
(2.56489e-06 0 0)
(2.56472e-06 0 0)
(2.56465e-06 0 0)
(2.56464e-06 0 0)
(2.56466e-06 0 0)
(2.56468e-06 0 0)
(2.56472e-06 0 0)
(2.56475e-06 0 0)
(2.56478e-06 0 0)
(2.56481e-06 0 0)
(2.56485e-06 0 0)
(2.56488e-06 0 0)
(2.5649e-06 0 0)
(2.56493e-06 0 0)
(2.56496e-06 0 0)
(2.56499e-06 0 0)
(2.56501e-06 0 0)
(2.56504e-06 0 0)
(2.56507e-06 0 0)
(2.56509e-06 0 0)
(2.56512e-06 0 0)
(2.56514e-06 0 0)
(2.56517e-06 0 0)
(2.5652e-06 0 0)
(2.56522e-06 0 0)
(2.56525e-06 0 0)
(2.56527e-06 0 0)
(2.5653e-06 0 0)
(2.56533e-06 0 0)
(2.56535e-06 0 0)
(2.56538e-06 0 0)
(2.56541e-06 0 0)
(2.56543e-06 0 0)
(2.56546e-06 0 0)
(2.56548e-06 0 0)
(2.56551e-06 0 0)
(2.56553e-06 0 0)
(2.56556e-06 0 0)
(2.56558e-06 0 0)
(2.56561e-06 0 0)
(2.56563e-06 0 0)
(2.56566e-06 0 0)
(2.56568e-06 0 0)
(2.5657e-06 0 0)
(2.56573e-06 0 0)
(2.56575e-06 0 0)
(2.56577e-06 0 0)
(2.56579e-06 0 0)
(2.56581e-06 0 0)
(2.56583e-06 0 0)
(2.56585e-06 0 0)
(2.56587e-06 0 0)
(2.56588e-06 0 0)
(2.5659e-06 0 0)
(2.56592e-06 0 0)
(2.56593e-06 0 0)
(2.56595e-06 0 0)
(2.56596e-06 0 0)
(2.56598e-06 0 0)
(2.56599e-06 0 0)
(2.566e-06 0 0)
(2.56601e-06 0 0)
(2.56603e-06 0 0)
(2.56604e-06 0 0)
(2.56605e-06 0 0)
(2.56606e-06 0 0)
(2.56606e-06 0 0)
(2.56607e-06 0 0)
(2.56608e-06 0 0)
(2.56608e-06 0 0)
(2.56609e-06 0 0)
(2.56609e-06 0 0)
(2.5661e-06 0 0)
(2.5661e-06 0 0)
(2.5661e-06 0 0)
(2.56611e-06 0 0)
(2.56611e-06 0 0)
(2.56611e-06 0 0)
(2.56611e-06 0 0)
(2.56611e-06 0 0)
(2.5661e-06 0 0)
(2.5661e-06 0 0)
(2.5661e-06 0 0)
(2.5661e-06 0 0)
(2.56609e-06 0 0)
(2.56609e-06 0 0)
(2.56608e-06 0 0)
(2.56607e-06 0 0)
(2.56607e-06 0 0)
(2.56606e-06 0 0)
(2.56605e-06 0 0)
(2.56604e-06 0 0)
(2.56603e-06 0 0)
(2.56602e-06 0 0)
(2.56601e-06 0 0)
(2.566e-06 0 0)
(2.56598e-06 0 0)
(2.56597e-06 0 0)
(2.56596e-06 0 0)
(2.56594e-06 0 0)
(2.56593e-06 0 0)
(2.56591e-06 0 0)
(2.5659e-06 0 0)
(2.56588e-06 0 0)
(2.56586e-06 0 0)
(2.56584e-06 0 0)
(2.56583e-06 0 0)
(2.56581e-06 0 0)
(2.56579e-06 0 0)
(2.56576e-06 0 0)
(2.56574e-06 0 0)
(2.56572e-06 0 0)
(2.56569e-06 0 0)
(2.56567e-06 0 0)
(2.56564e-06 0 0)
(2.56561e-06 0 0)
(2.56558e-06 0 0)
(2.56555e-06 0 0)
(2.56552e-06 0 0)
(2.56548e-06 0 0)
(2.56544e-06 0 0)
(2.5654e-06 0 0)
(2.56536e-06 0 0)
(2.56531e-06 0 0)
(2.56526e-06 0 0)
(2.56521e-06 0 0)
(2.56515e-06 0 0)
(2.56509e-06 0 0)
(2.56503e-06 0 0)
(2.56496e-06 0 0)
(2.56489e-06 0 0)
(2.56482e-06 0 0)
(2.56474e-06 0 0)
(2.56465e-06 0 0)
(2.56456e-06 0 0)
(2.56447e-06 0 0)
(2.56437e-06 0 0)
(2.56427e-06 0 0)
(2.56416e-06 0 0)
(2.56405e-06 0 0)
(2.56393e-06 0 0)
(2.56381e-06 0 0)
(2.56369e-06 0 0)
(2.56356e-06 0 0)
(2.56343e-06 0 0)
(2.5633e-06 0 0)
(2.56316e-06 0 0)
(2.56303e-06 0 0)
(2.56289e-06 0 0)
(2.56275e-06 0 0)
(2.56261e-06 0 0)
(2.56246e-06 0 0)
(2.56232e-06 0 0)
(2.56219e-06 0 0)
(2.56205e-06 0 0)
(2.56191e-06 0 0)
(2.56178e-06 0 0)
(2.56166e-06 0 0)
(2.56154e-06 0 0)
(2.56142e-06 0 0)
(2.56131e-06 0 0)
(2.56121e-06 0 0)
(2.56112e-06 0 0)
(2.56103e-06 0 0)
(2.56095e-06 0 0)
(2.56089e-06 0 0)
(2.56083e-06 0 0)
(2.56078e-06 0 0)
(2.56075e-06 0 0)
(2.56073e-06 0 0)
(2.56071e-06 0 0)
(2.56071e-06 0 0)
(2.56071e-06 0 0)
(2.56071e-06 0 0)
(2.56073e-06 0 0)
(2.56077e-06 0 0)
(2.56083e-06 0 0)
(2.56089e-06 0 0)
(2.56096e-06 0 0)
(2.56104e-06 0 0)
(2.56113e-06 0 0)
(2.56123e-06 0 0)
(2.56133e-06 0 0)
(2.56144e-06 0 0)
(2.56156e-06 0 0)
(2.56167e-06 0 0)
(2.5618e-06 0 0)
(2.56192e-06 0 0)
(2.56205e-06 0 0)
(2.56217e-06 0 0)
(2.5623e-06 0 0)
(2.56243e-06 0 0)
(2.56255e-06 0 0)
(2.56268e-06 0 0)
(2.5628e-06 0 0)
(2.56292e-06 0 0)
(2.56304e-06 0 0)
(2.56315e-06 0 0)
(2.56326e-06 0 0)
(2.56337e-06 0 0)
(2.56347e-06 0 0)
(2.56357e-06 0 0)
(2.56366e-06 0 0)
(2.56375e-06 0 0)
(2.56384e-06 0 0)
(2.56392e-06 0 0)
(2.564e-06 0 0)
(2.56408e-06 0 0)
(2.56415e-06 0 0)
(2.56421e-06 0 0)
(2.56428e-06 0 0)
(2.56433e-06 0 0)
(2.56439e-06 0 0)
(2.56444e-06 0 0)
(2.56449e-06 0 0)
(2.56454e-06 0 0)
(2.56459e-06 0 0)
(2.56463e-06 0 0)
(2.56467e-06 0 0)
(2.56471e-06 0 0)
(2.56474e-06 0 0)
(2.56478e-06 0 0)
(2.56481e-06 0 0)
(2.56484e-06 0 0)
(2.56487e-06 0 0)
(2.5649e-06 0 0)
(2.56493e-06 0 0)
(2.56496e-06 0 0)
(2.56499e-06 0 0)
(2.56501e-06 0 0)
(2.56504e-06 0 0)
(2.56507e-06 0 0)
(2.56509e-06 0 0)
(2.56512e-06 0 0)
(2.56515e-06 0 0)
(2.56517e-06 0 0)
(2.5652e-06 0 0)
(2.56523e-06 0 0)
(2.56525e-06 0 0)
(2.56528e-06 0 0)
(2.56531e-06 0 0)
(2.56533e-06 0 0)
(2.56536e-06 0 0)
(2.56539e-06 0 0)
(2.56541e-06 0 0)
(2.56544e-06 0 0)
(2.56546e-06 0 0)
(2.56549e-06 0 0)
(2.56552e-06 0 0)
(2.56554e-06 0 0)
(2.56557e-06 0 0)
(2.56559e-06 0 0)
(2.56562e-06 0 0)
(2.56564e-06 0 0)
(2.56566e-06 0 0)
(2.56569e-06 0 0)
(2.56571e-06 0 0)
(2.56573e-06 0 0)
(2.56575e-06 0 0)
(2.56578e-06 0 0)
(2.5658e-06 0 0)
(2.56582e-06 0 0)
(2.56584e-06 0 0)
(2.56585e-06 0 0)
(2.56587e-06 0 0)
(2.56589e-06 0 0)
(2.56591e-06 0 0)
(2.56592e-06 0 0)
(2.56594e-06 0 0)
(2.56595e-06 0 0)
(2.56596e-06 0 0)
(2.56598e-06 0 0)
(2.56599e-06 0 0)
(2.566e-06 0 0)
(2.56601e-06 0 0)
(2.56602e-06 0 0)
(2.56603e-06 0 0)
(2.56604e-06 0 0)
(2.56604e-06 0 0)
(2.56605e-06 0 0)
(2.56605e-06 0 0)
(2.56606e-06 0 0)
(2.56606e-06 0 0)
(2.56606e-06 0 0)
(2.56607e-06 0 0)
(2.56607e-06 0 0)
(2.56607e-06 0 0)
(2.56607e-06 0 0)
(2.56607e-06 0 0)
(2.56606e-06 0 0)
(2.56606e-06 0 0)
(2.56606e-06 0 0)
(2.56605e-06 0 0)
(2.56605e-06 0 0)
(2.56604e-06 0 0)
(2.56603e-06 0 0)
(2.56603e-06 0 0)
(2.56602e-06 0 0)
(2.56601e-06 0 0)
(2.566e-06 0 0)
(2.56599e-06 0 0)
(2.56598e-06 0 0)
(2.56597e-06 0 0)
(2.56595e-06 0 0)
(2.56594e-06 0 0)
(2.56593e-06 0 0)
(2.56591e-06 0 0)
(2.5659e-06 0 0)
(2.56588e-06 0 0)
(2.56586e-06 0 0)
(2.56584e-06 0 0)
(2.56582e-06 0 0)
(2.5658e-06 0 0)
(2.56578e-06 0 0)
(2.56576e-06 0 0)
(2.56574e-06 0 0)
(2.56571e-06 0 0)
(2.56569e-06 0 0)
(2.56566e-06 0 0)
(2.56563e-06 0 0)
(2.5656e-06 0 0)
(2.56557e-06 0 0)
(2.56553e-06 0 0)
(2.5655e-06 0 0)
(2.56546e-06 0 0)
(2.56542e-06 0 0)
(2.56538e-06 0 0)
(2.56533e-06 0 0)
(2.56529e-06 0 0)
)
;

boundaryField
{
    inlet
    {
        type            fixedValue;
        value           uniform (1.13622e-05 0 0);
    }
    outlet
    {
        type            zeroGradient;
    }
    emptyWalls
    {
        type            empty;
    }
}


// ************************************************************************* //
