/*--------------------------------*- C++ -*----------------------------------*\
  =========                 |
  \\      /  F ield         | OpenFOAM: The Open Source CFD Toolbox
   \\    /   O peration     | Website:  https://openfoam.org
    \\  /    A nd           | Version:  9
     \\/     M anipulation  |
\*---------------------------------------------------------------------------*/
FoamFile
{
    format      ascii;
    class       volScalarField;
    location    "13000";
    object      krc;
}
// * * * * * * * * * * * * * * * * * * * * * * * * * * * * * * * * * * * * * //

dimensions      [0 0 0 0 0 0 0];

internalField   nonuniform List<scalar> 
100
(
5.87317e-23
1.68543e-25
5.36515e-26
8.70602e-26
6.343e-27
6.83611e-26
3.29575e-26
1.10039e-25
1.22399e-25
4.55973e-25
9.78356e-25
1.28684e-28
2.0743e-25
3.58561e-24
2.01404e-24
4.26173e-24
6.34426e-24
1.62471e-24
1.25798e-23
4.31744e-23
5.41535e-23
5.35612e-23
3.156e-23
1.62523e-23
4.79509e-24
7.19772e-24
4.26508e-23
1.10391e-22
1.04423e-22
1.18338e-22
7.32942e-23
4.68865e-23
2.31416e-23
1.4014e-23
1.16852e-23
3.46598e-23
1.17765e-22
3.29422e-22
5.91007e-22
8.46589e-22
9.62077e-22
9.56534e-22
8.39241e-22
6.04157e-22
4.2589e-22
2.98471e-22
1.55415e-22
1.34958e-22
1.95032e-23
1.19206e-22
6.66926e-22
1.22845e-21
1.49053e-21
1.5735e-21
1.53104e-21
1.42928e-21
1.5082e-21
1.55106e-21
1.56309e-21
1.54033e-21
1.42961e-21
1.22301e-21
1.02394e-21
7.49296e-22
6.04724e-22
5.16365e-22
4.4488e-22
4.44351e-22
4.00721e-22
3.75667e-22
3.23135e-22
2.57512e-22
2.00228e-22
1.44655e-22
1.07479e-22
7.43667e-23
5.77838e-23
3.83051e-23
2.15294e-23
3.89714e-24
1.44339e-23
9.1064e-23
1.93507e-22
2.66739e-22
2.66485e-22
2.48459e-22
2.07303e-22
1.70313e-22
1.20868e-22
1.03193e-22
8.8328e-23
9.15922e-23
9.33238e-23
1.08002e-22
9.48147e-23
3.78983e-21
1.12636e-21
1.08726e-19
2.0321e-18
5.56629e-18
)
;

boundaryField
{
    inlet
    {
        type            calculated;
        value           uniform 5.87317e-23;
    }
    outlet
    {
        type            calculated;
        value           uniform 5.56629e-18;
    }
    emptyWalls
    {
        type            empty;
    }
}


// ************************************************************************* //
