/*--------------------------------*- C++ -*----------------------------------*\
  =========                 |
  \\      /  F ield         | OpenFOAM: The Open Source CFD Toolbox
   \\    /   O peration     | Website:  https://openfoam.org
    \\  /    A nd           | Version:  9
     \\/     M anipulation  |
\*---------------------------------------------------------------------------*/
FoamFile
{
    format      ascii;
    class       volScalarField;
    location    "3000";
    object      p;
}
// * * * * * * * * * * * * * * * * * * * * * * * * * * * * * * * * * * * * * //

dimensions      [0 0 0 0 0 0 0];

internalField   nonuniform List<scalar> 
100
(
1.52213e+06
1.50049e+06
1.47884e+06
1.4572e+06
1.43555e+06
1.4139e+06
1.39226e+06
1.37061e+06
1.34897e+06
1.32732e+06
1.30567e+06
1.28403e+06
1.26238e+06
1.24074e+06
1.21909e+06
1.19745e+06
1.1758e+06
1.15415e+06
1.13251e+06
1.11086e+06
1.08922e+06
1.06757e+06
1.04592e+06
1.02428e+06
1.00263e+06
980987
959341
937696
916050
894404
872758
851112
829466
807821
786175
764529
742883
721237
699591
677946
656300
634654
613008
591362
569716
548071
526425
504779
483133
461487
439841
418195
396550
374904
353258
331612
309966
288320
266675
245029
223383
201737
180091
158445
136800
115154
93508
71862.1
50216.5
28570.8
6929.77
6112.3
5897.28
5682.83
5468.39
5253.94
5039.49
4825.05
4610.6
4396.15
4181.71
3967.26
3752.81
3538.37
3323.92
3109.47
2895.03
2680.58
2466.13
2251.69
2037.24
1822.8
1608.35
1393.9
1179.46
965.009
750.562
536.116
321.669
107.223
)
;

boundaryField
{
    inlet
    {
        type            darcyGradPressure;
        gradient        uniform 8.7587e+06;
        Mf              Mf;
        phi             phi;
        value           uniform 1.53295e+06;
    }
    outlet
    {
        type            fixedValue;
        value           uniform 0;
    }
    emptyWalls
    {
        type            empty;
    }
}


// ************************************************************************* //
