/*--------------------------------*- C++ -*----------------------------------*\
  =========                 |
  \\      /  F ield         | OpenFOAM: The Open Source CFD Toolbox
   \\    /   O peration     | Website:  https://openfoam.org
    \\  /    A nd           | Version:  9
     \\/     M anipulation  |
\*---------------------------------------------------------------------------*/
FoamFile
{
    format      ascii;
    class       surfaceScalarField;
    location    "3000";
    object      phia;
}
// * * * * * * * * * * * * * * * * * * * * * * * * * * * * * * * * * * * * * //

dimensions      [0 2 0 0 0 0 0];

internalField   nonuniform List<scalar> 
99
(
5.84748e-10
5.84748e-10
5.84748e-10
5.84748e-10
5.84748e-10
5.84748e-10
5.84748e-10
5.84748e-10
5.84748e-10
5.84748e-10
5.84748e-10
5.84748e-10
5.84748e-10
5.84748e-10
5.84748e-10
5.84748e-10
5.84748e-10
5.84748e-10
5.84748e-10
5.84748e-10
5.84748e-10
5.84748e-10
5.84748e-10
5.84748e-10
5.84748e-10
5.84748e-10
5.84748e-10
5.84748e-10
5.84748e-10
5.84748e-10
5.84748e-10
5.84748e-10
5.84748e-10
5.84748e-10
5.84748e-10
5.84748e-10
5.84748e-10
5.84748e-10
5.84748e-10
5.84748e-10
5.84748e-10
5.84748e-10
5.84748e-10
5.84748e-10
5.84748e-10
5.84748e-10
5.84748e-10
5.84748e-10
5.84748e-10
5.84748e-10
5.84748e-10
5.84748e-10
5.84748e-10
5.84748e-10
5.84748e-10
5.84748e-10
5.84748e-10
5.84748e-10
5.84748e-10
5.84748e-10
5.84748e-10
5.84748e-10
5.84748e-10
5.84748e-10
5.84748e-10
5.84748e-10
5.84748e-10
5.84743e-10
5.84743e-10
5.84595e-10
6.334e-12
6.04816e-14
5.79446e-14
5.79436e-14
5.79436e-14
5.79436e-14
5.79436e-14
5.79436e-14
5.79436e-14
5.79436e-14
5.79436e-14
5.79436e-14
5.79436e-14
5.79436e-14
5.79436e-14
5.79436e-14
5.79436e-14
5.79436e-14
5.79436e-14
5.79436e-14
5.79436e-14
5.79436e-14
5.79436e-14
5.79436e-14
5.79436e-14
5.79436e-14
5.79436e-14
5.79436e-14
5.79436e-14
)
;

boundaryField
{
    inlet
    {
        type            calculated;
        value           uniform -5.84748e-10;
    }
    outlet
    {
        type            calculated;
        value           uniform 5.79554e-14;
    }
    emptyWalls
    {
        type            empty;
        value           nonuniform List<scalar> 0();
    }
}


// ************************************************************************* //
