/*--------------------------------*- C++ -*----------------------------------*\
  =========                 |
  \\      /  F ield         | OpenFOAM: The Open Source CFD Toolbox
   \\    /   O peration     | Website:  https://openfoam.org
    \\  /    A nd           | Version:  9
     \\/     M anipulation  |
\*---------------------------------------------------------------------------*/
FoamFile
{
    format      ascii;
    class       surfaceScalarField;
    location    "3000";
    object      phib;
}
// * * * * * * * * * * * * * * * * * * * * * * * * * * * * * * * * * * * * * //

dimensions      [0 2 0 0 0 0 0];

internalField   nonuniform List<scalar> 
99
(
2.33899e-09
2.33899e-09
2.33899e-09
2.33899e-09
2.33899e-09
2.33899e-09
2.33899e-09
2.33899e-09
2.33899e-09
2.33899e-09
2.33899e-09
2.33899e-09
2.33899e-09
2.33899e-09
2.33899e-09
2.33899e-09
2.33899e-09
2.33899e-09
2.33899e-09
2.33899e-09
2.33899e-09
2.33899e-09
2.33899e-09
2.33899e-09
2.33899e-09
2.33899e-09
2.33899e-09
2.33899e-09
2.33899e-09
2.33899e-09
2.33899e-09
2.33899e-09
2.33899e-09
2.33899e-09
2.33899e-09
2.33899e-09
2.33899e-09
2.33899e-09
2.33899e-09
2.33899e-09
2.33899e-09
2.33899e-09
2.33899e-09
2.33899e-09
2.33899e-09
2.33899e-09
2.33899e-09
2.33899e-09
2.33899e-09
2.33899e-09
2.33899e-09
2.33899e-09
2.33899e-09
2.33899e-09
2.33899e-09
2.33899e-09
2.33899e-09
2.33899e-09
2.33899e-09
2.33899e-09
2.33899e-09
2.33899e-09
2.33899e-09
2.33899e-09
2.33899e-09
2.33899e-09
2.33899e-09
2.339e-09
2.339e-09
2.33915e-09
2.91741e-09
2.92368e-09
2.92368e-09
2.92368e-09
2.92368e-09
2.92368e-09
2.92368e-09
2.92368e-09
2.92368e-09
2.92368e-09
2.92368e-09
2.92368e-09
2.92368e-09
2.92368e-09
2.92368e-09
2.92368e-09
2.92368e-09
2.92368e-09
2.92368e-09
2.92368e-09
2.92368e-09
2.92368e-09
2.92368e-09
2.92368e-09
2.92368e-09
2.92368e-09
2.92368e-09
2.92368e-09
2.92368e-09
)
;

boundaryField
{
    inlet
    {
        type            calculated;
        value           uniform -2.33899e-09;
    }
    outlet
    {
        type            calculated;
        value           uniform 2.92368e-09;
    }
    emptyWalls
    {
        type            empty;
        value           nonuniform List<scalar> 0();
    }
}


// ************************************************************************* //
