/*--------------------------------*- C++ -*----------------------------------*\
  =========                 |
  \\      /  F ield         | OpenFOAM: The Open Source CFD Toolbox
   \\    /   O peration     | Website:  https://openfoam.org
    \\  /    A nd           | Version:  9
     \\/     M anipulation  |
\*---------------------------------------------------------------------------*/
FoamFile
{
    format      ascii;
    class       surfaceScalarField;
    location    "4900";
    object      phic;
}
// * * * * * * * * * * * * * * * * * * * * * * * * * * * * * * * * * * * * * //

dimensions      [0 2 0 0 0 0 0];

internalField   nonuniform List<scalar> 
999
(
3.45085e-14
1.30846e-13
2.64831e-13
5.17339e-13
1.33142e-12
4.21478e-12
1.70969e-11
2.08154e-11
2.20749e-11
2.27997e-11
2.33395e-11
2.37856e-11
2.41736e-11
2.45395e-11
2.49345e-11
2.54742e-11
2.62671e-11
2.7359e-11
2.8764e-11
3.04026e-11
3.21872e-11
3.40671e-11
3.60133e-11
3.80088e-11
4.00432e-11
4.21097e-11
4.42034e-11
4.63211e-11
4.84604e-11
5.06195e-11
5.2797e-11
5.49915e-11
5.72019e-11
5.94276e-11
6.16676e-11
6.39216e-11
6.61887e-11
6.84684e-11
7.07603e-11
7.3064e-11
7.5379e-11
7.77052e-11
8.00421e-11
8.23893e-11
8.47468e-11
8.71142e-11
8.94915e-11
9.18783e-11
9.42746e-11
9.66802e-11
9.90948e-11
1.01518e-10
1.03951e-10
1.06393e-10
1.08843e-10
1.11302e-10
1.1377e-10
1.16247e-10
1.18732e-10
1.21226e-10
1.23729e-10
1.26241e-10
1.28762e-10
1.31291e-10
1.33829e-10
1.36376e-10
1.38931e-10
1.41495e-10
1.44067e-10
1.46647e-10
1.49236e-10
1.51833e-10
1.54439e-10
1.57054e-10
1.59677e-10
1.62309e-10
1.64951e-10
1.676e-10
1.70257e-10
1.72922e-10
1.75594e-10
1.78272e-10
1.80957e-10
1.83647e-10
1.86343e-10
1.89045e-10
1.91754e-10
1.94469e-10
1.97191e-10
1.99921e-10
2.02661e-10
2.0541e-10
2.08171e-10
2.10944e-10
2.13731e-10
2.16534e-10
2.19354e-10
2.22192e-10
2.25049e-10
2.27927e-10
2.30827e-10
2.33748e-10
2.36691e-10
2.39655e-10
2.42638e-10
2.45641e-10
2.48661e-10
2.51696e-10
2.54745e-10
2.57805e-10
2.60876e-10
2.63955e-10
2.67043e-10
2.70137e-10
2.73239e-10
2.76348e-10
2.79465e-10
2.8259e-10
2.85724e-10
2.88869e-10
2.92024e-10
2.95193e-10
2.98374e-10
3.01571e-10
3.04783e-10
3.08011e-10
3.11257e-10
3.14522e-10
3.17805e-10
3.21109e-10
3.24432e-10
3.27776e-10
3.31142e-10
3.34528e-10
3.37937e-10
3.41367e-10
3.44821e-10
3.48297e-10
3.51796e-10
3.55318e-10
3.58865e-10
3.62436e-10
3.66032e-10
3.69654e-10
3.73301e-10
3.76975e-10
3.80676e-10
3.84406e-10
3.88164e-10
3.91951e-10
3.95768e-10
3.99617e-10
4.03497e-10
4.0741e-10
4.11358e-10
4.15339e-10
4.19357e-10
4.2341e-10
4.27501e-10
4.3163e-10
4.35799e-10
4.40009e-10
4.4426e-10
4.48555e-10
4.52895e-10
4.5728e-10
4.61713e-10
4.66193e-10
4.70721e-10
4.75299e-10
4.79926e-10
4.84604e-10
4.89332e-10
4.94109e-10
4.98932e-10
5.03796e-10
5.08695e-10
5.13619e-10
5.18555e-10
5.23486e-10
5.28389e-10
5.33237e-10
5.37997e-10
5.42639e-10
5.47134e-10
5.51473e-10
5.55681e-10
5.59852e-10
5.64198e-10
5.6914e-10
5.75445e-10
5.84436e-10
5.98235e-10
6.19884e-10
6.52889e-10
6.99444e-10
7.57392e-10
8.18575e-10
8.72344e-10
9.12078e-10
9.37627e-10
9.52545e-10
9.6075e-10
9.65113e-10
9.67388e-10
9.68562e-10
9.69164e-10
9.69471e-10
9.69628e-10
9.69708e-10
9.69748e-10
9.69769e-10
9.69779e-10
9.69784e-10
9.69786e-10
9.69786e-10
9.69786e-10
9.69786e-10
9.69785e-10
9.69783e-10
9.69781e-10
9.69779e-10
9.69776e-10
9.69773e-10
9.69768e-10
9.69764e-10
9.69758e-10
9.69752e-10
9.69744e-10
9.69736e-10
9.69726e-10
9.69716e-10
9.69704e-10
9.69691e-10
9.69677e-10
9.69662e-10
9.69645e-10
9.69628e-10
9.69609e-10
9.69589e-10
9.69568e-10
9.69546e-10
9.69523e-10
9.69499e-10
9.69473e-10
9.69447e-10
9.69419e-10
9.69391e-10
9.69362e-10
9.69332e-10
9.69301e-10
9.69269e-10
9.69237e-10
9.69204e-10
9.6917e-10
9.69135e-10
9.69099e-10
9.69062e-10
9.69023e-10
9.68983e-10
9.68941e-10
9.68897e-10
9.6885e-10
9.688e-10
9.68747e-10
9.68689e-10
9.68628e-10
9.68562e-10
9.68492e-10
9.68416e-10
9.68336e-10
9.6825e-10
9.68159e-10
9.68064e-10
9.67963e-10
9.67858e-10
9.6775e-10
9.67638e-10
9.67523e-10
9.67407e-10
9.67291e-10
9.67174e-10
9.6706e-10
9.66948e-10
9.66841e-10
9.66741e-10
9.66647e-10
9.66564e-10
9.66491e-10
9.6643e-10
9.66384e-10
9.66354e-10
9.66339e-10
9.66335e-10
9.66336e-10
9.66344e-10
9.66385e-10
9.66453e-10
9.66539e-10
9.66642e-10
9.66759e-10
9.66889e-10
9.67029e-10
9.67178e-10
9.67333e-10
9.67492e-10
9.67653e-10
9.67813e-10
9.67969e-10
9.68121e-10
9.68265e-10
9.684e-10
9.68526e-10
9.6864e-10
9.68743e-10
9.68834e-10
9.68913e-10
9.68981e-10
9.69037e-10
9.69082e-10
9.69118e-10
9.69144e-10
9.69162e-10
9.69173e-10
9.69178e-10
9.6918e-10
9.6918e-10
9.69178e-10
9.69167e-10
9.69153e-10
9.6914e-10
9.69126e-10
9.69112e-10
9.691e-10
9.69088e-10
9.69079e-10
9.6907e-10
9.69064e-10
9.6906e-10
9.69057e-10
9.69056e-10
9.69056e-10
9.69057e-10
9.69059e-10
9.69066e-10
9.69073e-10
9.69082e-10
9.69092e-10
9.69103e-10
9.69115e-10
9.69128e-10
9.69142e-10
9.69155e-10
9.6917e-10
9.69184e-10
9.69199e-10
9.69214e-10
9.69229e-10
9.69244e-10
9.69259e-10
9.69275e-10
9.6929e-10
9.69305e-10
9.6932e-10
9.69335e-10
9.6935e-10
9.69365e-10
9.6938e-10
9.69395e-10
9.69409e-10
9.69424e-10
9.69439e-10
9.69453e-10
9.69468e-10
9.69482e-10
9.69497e-10
9.69511e-10
9.69525e-10
9.6954e-10
9.69554e-10
9.69569e-10
9.69583e-10
9.69598e-10
9.69612e-10
9.69626e-10
9.69641e-10
9.69655e-10
9.69669e-10
9.69683e-10
9.69696e-10
9.6971e-10
9.69724e-10
9.69737e-10
9.6975e-10
9.69763e-10
9.69775e-10
9.69787e-10
9.69798e-10
9.69809e-10
9.69819e-10
9.69829e-10
9.69839e-10
9.69848e-10
9.69856e-10
9.69864e-10
9.6987e-10
9.69877e-10
9.69882e-10
9.69887e-10
9.69891e-10
9.69894e-10
9.69897e-10
9.69899e-10
9.699e-10
9.69901e-10
9.69901e-10
9.69901e-10
9.699e-10
9.69899e-10
9.69896e-10
9.69893e-10
9.6989e-10
9.69886e-10
9.69881e-10
9.69877e-10
9.69872e-10
9.69866e-10
9.69861e-10
9.69856e-10
9.6985e-10
9.69844e-10
9.69838e-10
9.69833e-10
9.69827e-10
9.69821e-10
9.69816e-10
9.6981e-10
9.69805e-10
9.698e-10
9.69794e-10
9.69789e-10
9.69784e-10
9.69778e-10
9.69773e-10
9.69767e-10
9.69761e-10
9.69754e-10
9.69747e-10
9.69739e-10
9.6973e-10
9.69721e-10
9.69711e-10
9.69699e-10
9.69687e-10
9.69673e-10
9.69658e-10
9.69641e-10
9.69623e-10
9.69603e-10
9.69582e-10
9.69559e-10
9.69535e-10
9.69509e-10
9.69481e-10
9.69451e-10
9.6942e-10
9.69386e-10
9.6935e-10
9.69312e-10
9.69272e-10
9.6923e-10
9.69185e-10
9.69138e-10
9.69089e-10
9.69036e-10
9.68981e-10
9.68922e-10
9.6886e-10
9.68795e-10
9.68726e-10
9.68654e-10
9.68579e-10
9.685e-10
9.68418e-10
9.68333e-10
9.68245e-10
9.68154e-10
9.68061e-10
9.67966e-10
9.67869e-10
9.67771e-10
9.67673e-10
9.67575e-10
9.67478e-10
9.67384e-10
9.67291e-10
9.67203e-10
9.67119e-10
9.6704e-10
9.66968e-10
9.66903e-10
9.66847e-10
9.66801e-10
9.66765e-10
9.6674e-10
9.66727e-10
9.66724e-10
9.66723e-10
9.66728e-10
9.66751e-10
9.66802e-10
9.66864e-10
9.66939e-10
9.67026e-10
9.67123e-10
9.6723e-10
9.67344e-10
9.67465e-10
9.67591e-10
9.6772e-10
9.6785e-10
9.6798e-10
9.68109e-10
9.68235e-10
9.68356e-10
9.68471e-10
9.6858e-10
9.68682e-10
9.68775e-10
9.68861e-10
9.68937e-10
9.69006e-10
9.69065e-10
9.69117e-10
9.6916e-10
9.69196e-10
9.69225e-10
9.69247e-10
9.69264e-10
9.69276e-10
9.69283e-10
9.69287e-10
9.69288e-10
9.69288e-10
9.69287e-10
9.6928e-10
9.69272e-10
9.69263e-10
9.69254e-10
9.69246e-10
9.69237e-10
9.6923e-10
9.69223e-10
9.69217e-10
9.69213e-10
9.69209e-10
9.69206e-10
9.69205e-10
9.69204e-10
9.69204e-10
9.69204e-10
9.69205e-10
9.69209e-10
9.69213e-10
9.69218e-10
9.69223e-10
9.69229e-10
9.69235e-10
9.69241e-10
9.69247e-10
9.69254e-10
9.6926e-10
9.69267e-10
9.69273e-10
9.69279e-10
9.69286e-10
9.69291e-10
9.69297e-10
9.69303e-10
9.69308e-10
9.69313e-10
9.69318e-10
9.69323e-10
9.69327e-10
9.69332e-10
9.69336e-10
9.6934e-10
9.69344e-10
9.69348e-10
9.69352e-10
9.69356e-10
9.6936e-10
9.69364e-10
9.69368e-10
9.69372e-10
9.69377e-10
9.69382e-10
9.69387e-10
9.69392e-10
9.69398e-10
9.69404e-10
9.6941e-10
9.69417e-10
9.69424e-10
9.69432e-10
9.6944e-10
9.69448e-10
9.69457e-10
9.69467e-10
9.69477e-10
9.69487e-10
9.69498e-10
9.69509e-10
9.6952e-10
9.69532e-10
9.69544e-10
9.69557e-10
9.69569e-10
9.69582e-10
9.69595e-10
9.69608e-10
9.69621e-10
9.69634e-10
9.69647e-10
9.6966e-10
9.69673e-10
9.69685e-10
9.69697e-10
9.69708e-10
9.69719e-10
9.6973e-10
9.6974e-10
9.69749e-10
9.69757e-10
9.69765e-10
9.69772e-10
9.69778e-10
9.69783e-10
9.69788e-10
9.69791e-10
9.69793e-10
9.69795e-10
9.69795e-10
9.69796e-10
9.69796e-10
9.69794e-10
9.69791e-10
9.69786e-10
9.69781e-10
9.69775e-10
9.69768e-10
9.6976e-10
9.69751e-10
9.69742e-10
9.69732e-10
9.69721e-10
9.6971e-10
9.69698e-10
9.69685e-10
9.69672e-10
9.69659e-10
9.69646e-10
9.69632e-10
9.69617e-10
9.69603e-10
9.69588e-10
9.69573e-10
9.69558e-10
9.69543e-10
9.69527e-10
9.69511e-10
9.69494e-10
9.69477e-10
9.6946e-10
9.69442e-10
9.69423e-10
9.69404e-10
9.69383e-10
9.69361e-10
9.69338e-10
9.69314e-10
9.69287e-10
9.69259e-10
9.69229e-10
9.69196e-10
9.69161e-10
9.69123e-10
9.69082e-10
9.69039e-10
9.68991e-10
9.68941e-10
9.68887e-10
9.6883e-10
9.68769e-10
9.68704e-10
9.68635e-10
9.68564e-10
9.68488e-10
9.68409e-10
9.68327e-10
9.68242e-10
9.68155e-10
9.68065e-10
9.67974e-10
9.67881e-10
9.67788e-10
9.67694e-10
9.676e-10
9.67508e-10
9.67417e-10
9.67328e-10
9.67242e-10
9.67161e-10
9.67084e-10
9.67013e-10
9.66949e-10
9.66891e-10
9.66842e-10
9.66801e-10
9.6677e-10
9.66749e-10
9.66739e-10
9.66737e-10
9.66737e-10
9.66741e-10
9.66768e-10
9.66813e-10
9.6687e-10
9.66938e-10
9.67017e-10
9.67105e-10
9.67202e-10
9.67306e-10
9.67417e-10
9.67533e-10
9.67653e-10
9.67775e-10
9.67899e-10
9.68022e-10
9.68144e-10
9.68264e-10
9.68379e-10
9.6849e-10
9.68596e-10
9.68696e-10
9.68789e-10
9.68875e-10
9.68954e-10
9.69025e-10
9.69089e-10
9.69146e-10
9.69196e-10
9.69239e-10
9.69276e-10
9.69306e-10
9.69332e-10
9.69352e-10
9.69368e-10
9.6938e-10
9.69388e-10
9.69393e-10
9.69396e-10
9.69397e-10
9.69397e-10
9.69396e-10
9.69393e-10
9.69388e-10
9.69383e-10
9.69378e-10
9.69373e-10
9.69368e-10
9.69364e-10
9.69361e-10
9.69359e-10
9.69358e-10
9.69358e-10
9.69358e-10
9.69359e-10
9.69361e-10
9.69363e-10
9.69368e-10
9.69373e-10
9.6938e-10
9.69387e-10
9.69397e-10
9.69406e-10
9.69416e-10
9.69427e-10
9.69438e-10
9.69449e-10
9.69461e-10
9.69474e-10
9.69486e-10
9.69498e-10
9.69511e-10
9.69523e-10
9.69536e-10
9.69549e-10
9.69562e-10
9.69574e-10
9.69594e-10
9.69643e-10
9.70171e-10
9.72168e-10
9.83671e-10
1.08631e-09
1.11412e-09
1.11438e-09
1.11437e-09
1.11437e-09
1.11437e-09
1.11437e-09
1.11437e-09
1.11437e-09
1.11437e-09
1.11437e-09
1.11437e-09
1.11437e-09
1.11437e-09
1.11437e-09
1.11437e-09
1.11437e-09
1.11437e-09
1.11437e-09
1.11437e-09
1.11437e-09
1.11437e-09
1.11437e-09
1.11437e-09
1.11437e-09
1.11437e-09
1.11437e-09
1.11437e-09
1.11437e-09
1.11437e-09
1.11437e-09
1.11437e-09
1.11437e-09
1.11437e-09
1.11437e-09
1.11437e-09
1.11437e-09
1.11437e-09
1.11437e-09
1.11437e-09
1.11437e-09
1.11437e-09
1.11437e-09
1.11437e-09
1.11437e-09
1.11437e-09
1.11437e-09
1.11437e-09
1.11437e-09
1.11437e-09
1.11437e-09
1.11437e-09
1.11437e-09
1.11437e-09
1.11437e-09
1.11437e-09
1.11437e-09
1.11437e-09
1.11437e-09
1.11437e-09
1.11437e-09
1.11437e-09
1.11437e-09
1.11437e-09
1.11437e-09
1.11437e-09
1.11437e-09
1.11437e-09
1.11437e-09
1.11437e-09
1.11437e-09
1.11437e-09
1.11437e-09
1.11437e-09
1.11437e-09
1.11437e-09
1.11437e-09
1.11437e-09
1.11437e-09
1.11437e-09
1.11437e-09
1.11437e-09
1.11437e-09
1.11437e-09
1.11437e-09
1.11437e-09
1.11437e-09
1.11437e-09
1.11437e-09
1.11437e-09
1.11437e-09
1.11437e-09
1.11437e-09
1.11437e-09
1.11437e-09
1.11437e-09
1.11437e-09
1.11437e-09
1.11437e-09
1.11437e-09
1.11437e-09
1.11437e-09
1.11437e-09
1.11437e-09
1.11437e-09
1.11437e-09
1.11437e-09
1.11437e-09
1.11437e-09
1.11437e-09
1.11437e-09
1.11437e-09
1.11437e-09
1.11437e-09
1.11437e-09
1.11437e-09
1.11437e-09
1.11437e-09
1.11437e-09
1.11437e-09
1.11437e-09
1.11437e-09
1.11437e-09
1.11437e-09
1.11437e-09
1.11437e-09
1.11437e-09
1.11437e-09
1.11437e-09
1.11437e-09
1.11437e-09
1.11437e-09
1.11437e-09
1.11437e-09
1.11437e-09
1.11437e-09
1.11437e-09
1.11437e-09
1.11437e-09
1.11437e-09
1.11437e-09
1.11437e-09
1.11437e-09
1.11437e-09
1.11437e-09
1.11437e-09
1.11437e-09
1.11437e-09
1.11437e-09
1.11437e-09
1.11437e-09
1.11437e-09
1.11437e-09
1.11437e-09
1.11437e-09
1.11437e-09
1.11437e-09
1.11437e-09
1.11437e-09
1.11437e-09
1.11437e-09
1.11437e-09
1.11437e-09
1.11437e-09
1.11437e-09
1.11437e-09
1.11437e-09
1.11437e-09
1.11437e-09
1.11437e-09
1.11437e-09
1.11437e-09
1.11437e-09
1.11437e-09
1.11437e-09
1.11437e-09
1.11437e-09
1.11437e-09
1.11437e-09
1.11437e-09
1.11437e-09
1.11437e-09
1.11437e-09
1.11437e-09
1.11437e-09
1.11437e-09
1.11437e-09
1.11437e-09
1.11437e-09
1.11437e-09
1.11437e-09
1.11437e-09
1.11437e-09
1.11437e-09
)
;

boundaryField
{
    inlet
    {
        type            calculated;
        value           uniform 0;
    }
    outlet
    {
        type            calculated;
        value           uniform 1.11437e-09;
    }
    emptyWalls
    {
        type            empty;
        value           nonuniform List<scalar> 0();
    }
}


// ************************************************************************* //
