/*--------------------------------*- C++ -*----------------------------------*\
  =========                 |
  \\      /  F ield         | OpenFOAM: The Open Source CFD Toolbox
   \\    /   O peration     | Website:  https://openfoam.org
    \\  /    A nd           | Version:  9
     \\/     M anipulation  |
\*---------------------------------------------------------------------------*/
FoamFile
{
    format      ascii;
    class       volScalarField;
    location    "4900";
    object      Sb;
}
// * * * * * * * * * * * * * * * * * * * * * * * * * * * * * * * * * * * * * //

dimensions      [0 0 0 0 0 0 0];

internalField   nonuniform List<scalar> 
1000
(
0.35096
0.354994
0.357274
0.360729
0.365403
0.3807
0.472563
0.634217
0.666092
0.67512
0.679076
0.681115
0.682186
0.682711
0.682898
0.682762
0.682027
0.680235
0.677094
0.673107
0.668832
0.664462
0.660095
0.655781
0.651545
0.647399
0.643348
0.639395
0.635537
0.631772
0.628098
0.62451
0.621006
0.617583
0.614236
0.610963
0.60776
0.604625
0.601554
0.598545
0.595595
0.592702
0.589864
0.587078
0.584342
0.581654
0.579013
0.576416
0.573862
0.57135
0.568877
0.566443
0.564046
0.561685
0.559357
0.557064
0.554802
0.552572
0.550372
0.548201
0.546058
0.543943
0.541854
0.539791
0.537753
0.535739
0.533748
0.53178
0.529834
0.527909
0.526004
0.524119
0.522254
0.520408
0.51858
0.51677
0.514977
0.513201
0.511441
0.509697
0.507967
0.506252
0.50455
0.502862
0.501187
0.499524
0.497873
0.496235
0.494608
0.492993
0.49139
0.489799
0.488219
0.486652
0.485096
0.483551
0.482019
0.480498
0.478989
0.477491
0.476006
0.47453
0.473066
0.471612
0.470167
0.468731
0.467305
0.465884
0.464472
0.463065
0.461664
0.460268
0.458877
0.45749
0.456107
0.454728
0.453352
0.451981
0.450613
0.449249
0.447889
0.446532
0.445179
0.44383
0.442485
0.441143
0.439805
0.43847
0.437138
0.43581
0.434484
0.433162
0.431841
0.430523
0.429208
0.427894
0.426582
0.425271
0.423961
0.422653
0.421345
0.420038
0.418731
0.417424
0.416118
0.41481
0.413502
0.412194
0.410884
0.409573
0.40826
0.406945
0.405629
0.40431
0.402988
0.401663
0.400334
0.399003
0.397667
0.396328
0.394984
0.393635
0.392281
0.390922
0.389557
0.388186
0.386808
0.385424
0.384032
0.382634
0.381228
0.379815
0.378394
0.376966
0.375532
0.374092
0.372647
0.371202
0.369758
0.36832
0.366893
0.365485
0.364103
0.362757
0.361454
0.360202
0.358998
0.357828
0.356653
0.355392
0.353893
0.351884
0.348916
0.344305
0.337154
0.326632
0.312625
0.296468
0.280796
0.268081
0.259269
0.253852
0.250775
0.24911
0.248232
0.247777
0.247542
0.247423
0.247361
0.24733
0.247314
0.247306
0.247302
0.2473
0.247299
0.247298
0.247298
0.247298
0.247298
0.247297
0.247297
0.247297
0.247297
0.247297
0.247297
0.247297
0.247297
0.247297
0.247297
0.247297
0.247297
0.247297
0.247297
0.247297
0.247296
0.247296
0.247296
0.247296
0.247296
0.247296
0.247295
0.247295
0.247295
0.247295
0.247294
0.247294
0.247294
0.247294
0.247293
0.247293
0.247293
0.247292
0.247292
0.247292
0.247291
0.247291
0.247291
0.24729
0.24729
0.247289
0.247289
0.247289
0.247288
0.247288
0.247287
0.247286
0.247286
0.247285
0.247284
0.247284
0.247283
0.247282
0.247281
0.24728
0.247279
0.247278
0.247276
0.247275
0.247274
0.247273
0.247271
0.24727
0.247269
0.247267
0.247266
0.247265
0.247263
0.247262
0.247261
0.24726
0.247259
0.247259
0.247258
0.247258
0.247258
0.247257
0.247257
0.247258
0.247258
0.247259
0.24726
0.247261
0.247262
0.247263
0.247264
0.247266
0.247267
0.247268
0.24727
0.247271
0.247272
0.247274
0.247275
0.247276
0.247277
0.247278
0.247278
0.247279
0.247279
0.24728
0.24728
0.24728
0.24728
0.24728
0.24728
0.24728
0.24728
0.24728
0.24728
0.247279
0.247279
0.247279
0.247279
0.247279
0.247278
0.247278
0.247278
0.247278
0.247278
0.247278
0.247278
0.247278
0.247278
0.247278
0.247278
0.247278
0.247278
0.247278
0.247278
0.247278
0.247279
0.247279
0.247279
0.247279
0.247279
0.24728
0.24728
0.24728
0.24728
0.24728
0.247281
0.247281
0.247281
0.247281
0.247281
0.247282
0.247282
0.247282
0.247282
0.247283
0.247283
0.247283
0.247283
0.247284
0.247284
0.247284
0.247284
0.247284
0.247285
0.247285
0.247285
0.247285
0.247285
0.247286
0.247286
0.247286
0.247286
0.247286
0.247287
0.247287
0.247287
0.247287
0.247287
0.247287
0.247287
0.247288
0.247288
0.247288
0.247288
0.247288
0.247288
0.247288
0.247288
0.247289
0.247289
0.247289
0.247289
0.247289
0.247289
0.247289
0.247289
0.247289
0.247289
0.247289
0.247289
0.247289
0.247289
0.247289
0.247289
0.247289
0.247289
0.247289
0.247289
0.247289
0.247289
0.247289
0.247289
0.247289
0.247288
0.247288
0.247288
0.247288
0.247288
0.247288
0.247288
0.247288
0.247288
0.247288
0.247287
0.247287
0.247287
0.247287
0.247287
0.247287
0.247287
0.247287
0.247287
0.247286
0.247286
0.247286
0.247286
0.247286
0.247286
0.247286
0.247286
0.247286
0.247286
0.247286
0.247286
0.247286
0.247286
0.247286
0.247286
0.247286
0.247286
0.247285
0.247285
0.247285
0.247285
0.247284
0.247284
0.247284
0.247283
0.247283
0.247282
0.247282
0.247281
0.24728
0.24728
0.247279
0.247278
0.247278
0.247277
0.247276
0.247275
0.247274
0.247273
0.247272
0.247271
0.24727
0.247269
0.247268
0.247267
0.247266
0.247265
0.247264
0.247263
0.247262
0.247261
0.24726
0.247259
0.247259
0.247258
0.247258
0.247257
0.247257
0.247257
0.247257
0.247257
0.247257
0.247257
0.247258
0.247259
0.247259
0.24726
0.247261
0.247262
0.247264
0.247265
0.247266
0.247268
0.247269
0.24727
0.247271
0.247273
0.247274
0.247275
0.247276
0.247277
0.247278
0.247279
0.24728
0.24728
0.247281
0.247281
0.247282
0.247282
0.247282
0.247282
0.247282
0.247283
0.247283
0.247283
0.247283
0.247282
0.247282
0.247282
0.247282
0.247282
0.247282
0.247282
0.247282
0.247282
0.247282
0.247282
0.247282
0.247282
0.247282
0.247282
0.247282
0.247282
0.247282
0.247282
0.247282
0.247282
0.247282
0.247282
0.247282
0.247282
0.247282
0.247282
0.247282
0.247282
0.247282
0.247282
0.247282
0.247283
0.247283
0.247283
0.247283
0.247283
0.247283
0.247283
0.247283
0.247283
0.247283
0.247283
0.247283
0.247283
0.247283
0.247283
0.247283
0.247283
0.247283
0.247283
0.247284
0.247284
0.247284
0.247284
0.247284
0.247284
0.247284
0.247284
0.247284
0.247284
0.247284
0.247284
0.247284
0.247284
0.247285
0.247285
0.247285
0.247285
0.247285
0.247285
0.247285
0.247285
0.247285
0.247286
0.247286
0.247286
0.247286
0.247286
0.247286
0.247286
0.247286
0.247287
0.247287
0.247287
0.247287
0.247287
0.247287
0.247287
0.247287
0.247287
0.247287
0.247288
0.247288
0.247288
0.247288
0.247288
0.247288
0.247288
0.247288
0.247288
0.247288
0.247288
0.247288
0.247288
0.247287
0.247287
0.247287
0.247287
0.247287
0.247287
0.247287
0.247287
0.247287
0.247287
0.247287
0.247287
0.247287
0.247287
0.247286
0.247286
0.247286
0.247286
0.247286
0.247286
0.247286
0.247286
0.247286
0.247285
0.247285
0.247285
0.247285
0.247285
0.247284
0.247284
0.247284
0.247284
0.247284
0.247283
0.247283
0.247283
0.247282
0.247282
0.247281
0.247281
0.24728
0.24728
0.247279
0.247279
0.247278
0.247277
0.247277
0.247276
0.247275
0.247274
0.247274
0.247273
0.247272
0.247271
0.24727
0.247269
0.247268
0.247267
0.247266
0.247265
0.247264
0.247263
0.247262
0.247261
0.247261
0.24726
0.247259
0.247258
0.247258
0.247257
0.247257
0.247257
0.247257
0.247257
0.247257
0.247257
0.247257
0.247257
0.247258
0.247258
0.247259
0.24726
0.247261
0.247262
0.247263
0.247264
0.247265
0.247267
0.247268
0.247269
0.24727
0.247272
0.247273
0.247274
0.247275
0.247276
0.247277
0.247278
0.247279
0.24728
0.24728
0.247281
0.247282
0.247282
0.247283
0.247283
0.247283
0.247283
0.247284
0.247284
0.247284
0.247284
0.247284
0.247284
0.247284
0.247284
0.247284
0.247284
0.247284
0.247284
0.247284
0.247284
0.247284
0.247284
0.247284
0.247284
0.247284
0.247284
0.247284
0.247284
0.247284
0.247284
0.247284
0.247284
0.247284
0.247284
0.247284
0.247284
0.247284
0.247284
0.247284
0.247285
0.247285
0.247285
0.247285
0.247285
0.247285
0.247285
0.247285
0.247286
0.247286
0.247286
0.247286
0.24729
0.247302
0.247449
0.248278
0.249794
0.249997
0.25
0.25
0.25
0.25
0.25
0.25
0.25
0.25
0.25
0.25
0.25
0.25
0.25
0.25
0.25
0.25
0.25
0.25
0.25
0.25
0.25
0.25
0.25
0.25
0.25
0.25
0.25
0.25
0.25
0.25
0.25
0.25
0.25
0.25
0.25
0.25
0.25
0.25
0.25
0.25
0.25
0.25
0.25
0.25
0.25
0.25
0.25
0.25
0.25
0.25
0.25
0.25
0.25
0.25
0.25
0.25
0.25
0.25
0.25
0.25
0.25
0.25
0.25
0.25
0.25
0.25
0.25
0.25
0.25
0.25
0.25
0.25
0.25
0.25
0.25
0.25
0.25
0.25
0.25
0.25
0.25
0.25
0.25
0.25
0.25
0.25
0.25
0.25
0.25
0.25
0.25
0.25
0.25
0.25
0.25
0.25
0.25
0.25
0.25
0.25
0.25
0.25
0.25
0.25
0.25
0.25
0.25
0.25
0.25
0.25
0.25
0.25
0.25
0.25
0.25
0.25
0.25
0.25
0.25
0.25
0.25
0.25
0.25
0.25
0.25
0.25
0.25
0.25
0.25
0.25
0.25
0.25
0.25
0.25
0.25
0.25
0.25
0.25
0.25
0.25
0.25
0.25
0.25
0.25
0.25
0.25
0.25
0.25
0.25
0.25
0.25
0.25
0.25
0.25
0.25
0.25
0.25
0.25
0.25
0.25
0.25
0.25
0.25
0.25
0.25
0.25
0.25
0.25
0.25
0.25
0.25
0.25
0.25
0.25
0.25
0.25
0.25
0.25
0.25
0.25
0.25
0.25
0.25
0.25
0.25
0.25
0.25
0.25
0.25
0.25
0.25
0.25
)
;

boundaryField
{
    inlet
    {
        type            fixedValue;
        value           uniform 0.35;
    }
    outlet
    {
        type            zeroGradient;
    }
    emptyWalls
    {
        type            empty;
    }
}


// ************************************************************************* //
