/*--------------------------------*- C++ -*----------------------------------*\
  =========                 |
  \\      /  F ield         | OpenFOAM: The Open Source CFD Toolbox
   \\    /   O peration     | Website:  https://openfoam.org
    \\  /    A nd           | Version:  9
     \\/     M anipulation  |
\*---------------------------------------------------------------------------*/
FoamFile
{
    format      ascii;
    class       volScalarField;
    location    "20400";
    object      Fa;
}
// * * * * * * * * * * * * * * * * * * * * * * * * * * * * * * * * * * * * * //

dimensions      [0 0 0 0 0 0 0];

internalField   nonuniform List<scalar> 
1000
(
0.194794
0.194815
0.194761
0.19481
0.194702
0.194797
0.194633
0.194756
0.194573
0.194656
0.194514
0.194511
0.194427
0.194373
0.194307
0.194247
0.194173
0.194119
0.19405
0.194001
0.193951
0.193901
0.193885
0.193792
0.193839
0.193643
0.193547
0.192525
0.184511
0.158817
0.153911
0.153243
0.1532
0.152609
0.151664
0.150804
0.149783
0.148969
0.148406
0.148026
0.147812
0.147798
0.147786
0.147753
0.147689
0.147612
0.147508
0.147379
0.147255
0.147136
0.146995
0.14688
0.146742
0.146636
0.146506
0.146409
0.146288
0.146199
0.146088
0.146005
0.145906
0.145818
0.145732
0.14565
0.145572
0.145498
0.145427
0.145359
0.145295
0.145234
0.145178
0.145124
0.145074
0.145027
0.144985
0.144945
0.14491
0.144879
0.144854
0.144835
0.144822
0.14481
0.144799
0.14479
0.144781
0.144774
0.144769
0.144765
0.144763
0.144762
0.144761
0.14476
0.144759
0.144756
0.144752
0.144748
0.144743
0.144738
0.144735
0.144734
0.144735
0.14474
0.144745
0.144751
0.144756
0.14476
0.144762
0.144762
0.144759
0.144754
0.144748
0.144743
0.144745
0.144758
0.144789
0.144843
0.14492
0.145023
0.145148
0.145292
0.14545
0.145618
0.145792
0.145968
0.146141
0.146307
0.146462
0.146601
0.146717
0.146805
0.14686
0.146878
0.146857
0.146797
0.146699
0.146567
0.146408
0.146226
0.146031
0.14583
0.145629
0.145436
0.145255
0.145091
0.144947
0.144823
0.14472
0.144637
0.144572
0.144523
0.144488
0.144463
0.144447
0.144437
0.14443
0.144425
0.144419
0.144413
0.144404
0.144393
0.144378
0.14436
0.144339
0.144315
0.144289
0.14426
0.144229
0.144197
0.144163
0.144128
0.144093
0.144057
0.144021
0.143985
0.143949
0.143913
0.143878
0.143843
0.143808
0.143774
0.143741
0.143708
0.143676
0.143644
0.143613
0.143583
0.143553
0.143525
0.143496
0.143469
0.143443
0.143417
0.143392
0.143368
0.143344
0.143322
0.1433
0.143279
0.143258
0.143239
0.14322
0.143202
0.143185
0.143169
0.143154
0.143139
0.143126
0.143114
0.143103
0.143092
0.143083
0.143074
0.143066
0.143058
0.143051
0.143044
0.143037
0.143031
0.143025
0.143019
0.143013
0.143008
0.143004
0.143
0.142996
0.142993
0.14299
0.142988
0.142985
0.142983
0.14298
0.142976
0.142972
0.142968
0.142964
0.14296
0.142957
0.142957
0.14296
0.142967
0.142979
0.142998
0.143025
0.14306
0.143103
0.143156
0.143219
0.143291
0.143371
0.14346
0.143556
0.143658
0.143765
0.143874
0.143984
0.144092
0.144197
0.144296
0.144387
0.144467
0.144534
0.144586
0.144621
0.144639
0.144638
0.144618
0.144579
0.144523
0.144449
0.144361
0.14426
0.144148
0.144029
0.143904
0.143777
0.14365
0.143526
0.143406
0.143291
0.143184
0.143086
0.142996
0.142914
0.142842
0.142779
0.142723
0.142675
0.142633
0.142597
0.142566
0.142539
0.142515
0.142493
0.142473
0.142453
0.142435
0.142416
0.142397
0.142377
0.142356
0.142334
0.142311
0.142287
0.142262
0.142235
0.142208
0.14218
0.142151
0.142121
0.14209
0.142059
0.142028
0.141997
0.141965
0.141933
0.141902
0.14187
0.141839
0.141808
0.141777
0.141746
0.141716
0.141687
0.141657
0.141628
0.1416
0.141572
0.141545
0.141518
0.141492
0.141466
0.141441
0.141416
0.141392
0.141368
0.141345
0.141323
0.141301
0.14128
0.141259
0.141239
0.14122
0.141201
0.141183
0.141165
0.141148
0.141132
0.141117
0.141102
0.141087
0.141074
0.141061
0.141048
0.141036
0.141025
0.141014
0.141004
0.140994
0.140984
0.140975
0.140966
0.140958
0.14095
0.140942
0.140935
0.140928
0.140921
0.140914
0.140908
0.140902
0.140896
0.14089
0.140884
0.140878
0.140873
0.140867
0.140862
0.140858
0.140853
0.14085
0.140848
0.140847
0.140848
0.140851
0.140857
0.140866
0.140878
0.140895
0.140915
0.14094
0.14097
0.141005
0.141045
0.14109
0.14114
0.141194
0.141254
0.141317
0.141384
0.141454
0.141525
0.141599
0.141672
0.141745
0.141816
0.141885
0.141949
0.142009
0.142062
0.142109
0.142147
0.142177
0.142197
0.142208
0.142207
0.142196
0.142175
0.142143
0.142101
0.142049
0.141989
0.141921
0.141846
0.141766
0.141681
0.141593
0.141503
0.141412
0.141321
0.141232
0.141144
0.141059
0.140978
0.140901
0.140828
0.140759
0.140695
0.140636
0.140581
0.140531
0.140484
0.140442
0.140403
0.140367
0.140333
0.140302
0.140273
0.140246
0.14022
0.140194
0.14017
0.140146
0.140122
0.140098
0.140074
0.140049
0.140025
0.139999
0.139974
0.139948
0.139921
0.139894
0.139866
0.139838
0.139809
0.13978
0.139751
0.139722
0.139692
0.139662
0.139632
0.139602
0.139572
0.139542
0.139512
0.139483
0.139453
0.139424
0.139395
0.139366
0.139337
0.139309
0.139281
0.139254
0.139227
0.1392
0.139174
0.139148
0.139122
0.139097
0.139073
0.139049
0.139025
0.139002
0.138979
0.138957
0.138935
0.138914
0.138894
0.138873
0.138854
0.138835
0.138816
0.138798
0.13878
0.138763
0.138747
0.138731
0.138715
0.1387
0.138686
0.138671
0.138658
0.138645
0.138632
0.13862
0.138608
0.138596
0.138585
0.138574
0.138564
0.138554
0.138544
0.138535
0.138525
0.138516
0.138508
0.138499
0.138491
0.138483
0.138476
0.138468
0.138461
0.138454
0.138448
0.138441
0.138436
0.138431
0.138427
0.138423
0.13842
0.138419
0.138419
0.13842
0.138423
0.138428
0.138435
0.138445
0.138456
0.138471
0.138488
0.138508
0.138531
0.138557
0.138586
0.138618
0.138653
0.13869
0.138731
0.138774
0.138819
0.138867
0.138916
0.138966
0.139017
0.139068
0.139119
0.13917
0.139219
0.139266
0.139311
0.139353
0.139392
0.139426
0.139456
0.139481
0.1395
0.139514
0.139521
0.139522
0.139516
0.139504
0.139485
0.139459
0.139427
0.139389
0.139345
0.139296
0.139242
0.139183
0.139121
0.139056
0.138988
0.138918
0.138846
0.138774
0.138702
0.13863
0.138559
0.138489
0.138421
0.138355
0.13829
0.138229
0.13817
0.138113
0.138059
0.138008
0.13796
0.137914
0.13787
0.137829
0.13779
0.137752
0.137717
0.137683
0.13765
0.137619
0.137589
0.137559
0.13753
0.137502
0.137474
0.137447
0.13742
0.137392
0.137365
0.137338
0.137311
0.137283
0.137256
0.137228
0.1372
0.137172
0.137143
0.137115
0.137086
0.137057
0.137028
0.136999
0.13697
0.136941
0.136912
0.136883
0.136853
0.136824
0.136795
0.136766
0.136738
0.136709
0.136681
0.136653
0.136625
0.136597
0.13657
0.136543
0.136516
0.13649
0.136464
0.136438
0.136413
0.136388
0.136363
0.136339
0.136315
0.136291
0.136268
0.136245
0.136223
0.136201
0.13618
0.136158
0.136138
0.136117
0.136097
0.136078
0.136059
0.13604
0.136022
0.136004
0.135986
0.135969
0.135952
0.135936
0.13592
0.135904
0.135889
0.135874
0.135859
0.135845
0.135831
0.135817
0.135804
0.135791
0.135778
0.135765
0.135753
0.135741
0.135729
0.135717
0.135706
0.135695
0.135684
0.135674
0.135663
0.135653
0.135643
0.135634
0.135625
0.135616
0.135608
0.1356
0.135593
0.135587
0.135581
0.135576
0.135572
0.135568
0.135566
0.135565
0.135565
0.135567
0.13557
0.135574
0.135581
0.135588
0.135598
0.135609
0.135623
0.135638
0.135655
0.135674
0.135695
0.135718
0.135742
0.135768
0.135796
0.135825
0.135855
0.135887
0.135919
0.135952
0.135986
0.136019
0.136053
0.136086
0.136118
0.13615
0.13618
0.136209
0.136235
0.136259
0.136281
0.1363
0.136316
0.136328
0.136337
0.136342
0.136343
0.13634
0.136332
0.136321
0.136304
0.136284
0.136259
0.13623
0.136197
0.13616
0.13612
0.136076
0.136029
0.13598
0.135927
0.135873
0.135817
0.13576
0.135702
0.135643
0.135584
0.135526
0.135468
0.135411
0.135355
0.1353
0.135247
0.135196
0.135147
0.135101
0.135056
0.135014
0.134975
0.134937
0.134902
0.13487
0.13484
0.134812
0.134786
0.134761
0.134739
0.134718
0.134699
0.134681
0.134664
0.134648
0.134633
0.134619
0.134605
0.134592
0.134578
0.134564
0.134546
0.134525
0.134496
0.134453
0.134386
0.134276
0.134099
0.133819
0.133411
0.132886
0.132334
0.131885
0.131601
0.131447
0.131368
0.131325
0.1313
0.131282
0.131268
0.131256
0.131245
0.131234
0.131224
0.131214
0.131204
0.131195
0.131185
0.131175
0.131166
0.131157
0.131148
0.131139
0.13113
0.131121
0.131113
0.131105
0.131097
0.131089
0.131082
0.131074
0.131067
0.13106
0.131054
0.131048
0.131042
0.131036
0.13103
0.131025
0.13102
0.131015
0.131011
0.131007
0.131003
0.131
0.130996
0.130993
0.130991
0.130988
0.130986
0.130984
0.130983
0.130982
0.130981
0.13098
0.13098
0.13098
0.13098
0.13098
0.130981
0.130982
0.130983
0.130985
0.130987
0.130989
0.130991
0.130994
0.130997
0.131
0.131003
0.131006
0.13101
0.131014
0.131019
0.131023
0.131028
0.131033
0.131039
0.131044
0.13105
0.131056
0.131063
0.13107
0.131077
0.131085
0.131093
0.131102
0.131111
0.13112
0.131131
0.131142
0.131153
0.131165
0.131178
0.131192
0.131207
0.131222
0.131239
0.131256
0.131275
0.131294
0.131315
0.131337
0.13136
0.131384
0.13141
0.131437
0.131465
0.131494
0.131525
0.131556
0.131589
0.131623
0.131658
0.131695
0.131732
0.13177
0.131809
0.131848
0.131888
0.131929
0.13197
0.132011
0.132052
0.132093
0.132134
0.132174
0.132213
0.132252
0.13229
0.132327
0.132362
0.132395
0.132427
0.132457
0.132485
0.132511
0.132534
0.132555
0.132573
0.132589
0.132601
0.132611
0.132617
0.13262
0.132621
0.132621
0.132618
0.132616
0.132605
0.132597
0.132573
0.13256
0.132533
0.132515
0.132484
0.132463
0.132428
0.132403
0.132366
0.132339
0.1323
0.132271
0.132231
0.132201
0.132161
0.132131
0.132092
0.132062
0.132024
0.131994
0.131959
0.131929
0.131897
0.131868
0.13184
0.131811
0.131786
0.131758
0.131738
0.13171
)
;

boundaryField
{
    inlet
    {
        type            calculated;
        value           uniform 0.194831;
    }
    outlet
    {
        type            calculated;
        value           uniform 0.131701;
    }
    emptyWalls
    {
        type            empty;
    }
}


// ************************************************************************* //
