/*--------------------------------*- C++ -*----------------------------------*\
  =========                 |
  \\      /  F ield         | OpenFOAM: The Open Source CFD Toolbox
   \\    /   O peration     | Website:  https://openfoam.org
    \\  /    A nd           | Version:  9
     \\/     M anipulation  |
\*---------------------------------------------------------------------------*/
FoamFile
{
    format      ascii;
    class       volScalarField;
    location    "20400";
    object      Sa;
}
// * * * * * * * * * * * * * * * * * * * * * * * * * * * * * * * * * * * * * //

dimensions      [0 0 0 0 0 0 0];

internalField   nonuniform List<scalar> 
1000
(
0.549471
0.548405
0.546949
0.54556
0.54409
0.542731
0.541223
0.539866
0.538331
0.536937
0.535415
0.533974
0.532498
0.531059
0.529648
0.52829
0.526988
0.525775
0.524647
0.523631
0.52272
0.521913
0.52122
0.520556
0.519947
0.518767
0.515439
0.502812
0.433977
0.182319
0.0901923
0.0695983
0.0611709
0.0561741
0.0525949
0.0497948
0.0474386
0.0454314
0.0437043
0.0421831
0.0408382
0.0396405
0.0385497
0.0375433
0.0366149
0.0357534
0.0349542
0.0342066
0.0335128
0.0328639
0.0322554
0.0316864
0.0311499
0.0306471
0.0301707
0.0297231
0.0292973
0.0288964
0.0285141
0.0281524
0.027803
0.0274685
0.0271517
0.0268521
0.0265693
0.0263027
0.0260517
0.0258159
0.0255947
0.0253875
0.0251939
0.0250131
0.0248448
0.0246884
0.0245438
0.0244114
0.0242929
0.0241909
0.0241088
0.0240475
0.0240029
0.0239635
0.0239227
0.0238809
0.0238386
0.023796
0.0237534
0.0237109
0.0236686
0.0236264
0.0235845
0.0235427
0.0235011
0.0234596
0.0234183
0.0233772
0.0233363
0.0232958
0.0232557
0.0232161
0.023177
0.0231384
0.0231002
0.0230624
0.0230248
0.0229873
0.02295
0.0229128
0.0228756
0.0228385
0.0228015
0.022765
0.0227293
0.022695
0.0226624
0.022632
0.022604
0.0225785
0.022555
0.0225335
0.0225134
0.0224944
0.0224761
0.022458
0.02244
0.0224216
0.0224023
0.0223819
0.0223596
0.0223352
0.0223082
0.0222782
0.022245
0.0222088
0.0221695
0.0221276
0.0220836
0.022038
0.0219914
0.0219445
0.0218979
0.0218522
0.0218077
0.0217649
0.0217239
0.0216849
0.0216478
0.0216126
0.0215791
0.0215472
0.0215165
0.021487
0.0214583
0.0214303
0.0214027
0.0213754
0.0213482
0.0213212
0.0212941
0.0212669
0.0212396
0.0212122
0.0211847
0.0211572
0.0211295
0.0211018
0.0210741
0.0210464
0.0210187
0.0209912
0.0209636
0.0209362
0.020909
0.0208818
0.0208548
0.020828
0.0208013
0.0207748
0.0207484
0.0207223
0.0206962
0.0206704
0.0206448
0.0206193
0.020594
0.0205689
0.0205439
0.0205192
0.0204946
0.0204702
0.0204459
0.0204219
0.020398
0.0203743
0.0203508
0.0203274
0.0203042
0.0202812
0.0202584
0.0202357
0.0202132
0.0201908
0.0201686
0.0201466
0.0201248
0.0201031
0.0200817
0.0200604
0.0200392
0.0200183
0.0199974
0.0199768
0.0199563
0.0199359
0.0199156
0.0198955
0.0198755
0.0198555
0.0198357
0.019816
0.0197964
0.0197769
0.0197576
0.0197383
0.0197192
0.0197002
0.0196813
0.0196625
0.0196438
0.0196252
0.0196066
0.019588
0.0195695
0.0195511
0.0195327
0.0195144
0.0194963
0.0194785
0.0194609
0.0194438
0.0194271
0.0194111
0.0193956
0.0193809
0.0193668
0.0193536
0.0193412
0.0193295
0.0193185
0.0193082
0.0192985
0.0192893
0.0192805
0.019272
0.0192636
0.0192551
0.0192464
0.0192372
0.0192275
0.0192171
0.0192057
0.0191933
0.0191797
0.0191648
0.0191485
0.019131
0.0191121
0.0190919
0.0190705
0.0190481
0.0190248
0.0190008
0.0189763
0.0189514
0.0189265
0.0189016
0.018877
0.0188528
0.018829
0.0188059
0.0187834
0.0187617
0.0187406
0.0187203
0.0187007
0.0186817
0.0186633
0.0186455
0.0186281
0.0186112
0.0185945
0.0185782
0.0185621
0.0185462
0.0185303
0.0185146
0.0184989
0.0184832
0.0184676
0.0184519
0.0184362
0.0184204
0.0184046
0.0183888
0.018373
0.0183571
0.0183412
0.0183253
0.0183094
0.0182934
0.0182775
0.0182617
0.0182458
0.01823
0.0182142
0.0181985
0.0181828
0.0181672
0.0181517
0.0181362
0.0181208
0.0181054
0.0180901
0.0180749
0.0180598
0.0180448
0.0180298
0.0180149
0.0180001
0.0179853
0.0179707
0.0179561
0.0179416
0.0179272
0.0179128
0.0178986
0.0178844
0.0178703
0.0178562
0.0178423
0.0178284
0.0178147
0.017801
0.0177874
0.0177738
0.0177604
0.017747
0.0177337
0.0177205
0.0177074
0.0176944
0.0176814
0.0176685
0.0176557
0.017643
0.0176303
0.0176177
0.0176051
0.0175926
0.0175802
0.0175679
0.0175556
0.0175433
0.0175311
0.017519
0.0175069
0.0174949
0.0174829
0.017471
0.0174591
0.0174472
0.0174354
0.0174236
0.0174119
0.0174002
0.0173886
0.0173769
0.0173654
0.0173539
0.0173425
0.0173312
0.0173201
0.017309
0.0172982
0.0172876
0.0172772
0.0172671
0.0172573
0.0172478
0.0172386
0.0172298
0.0172214
0.0172133
0.0172056
0.0171983
0.0171913
0.0171847
0.0171783
0.0171722
0.0171664
0.0171607
0.0171551
0.0171495
0.0171439
0.0171383
0.0171324
0.0171263
0.0171199
0.0171131
0.0171058
0.0170981
0.0170897
0.0170807
0.0170711
0.0170608
0.0170498
0.017038
0.0170256
0.0170126
0.0169989
0.0169847
0.01697
0.0169549
0.0169394
0.0169236
0.0169076
0.0168916
0.0168755
0.0168594
0.0168435
0.0168277
0.0168121
0.0167968
0.0167818
0.0167671
0.0167527
0.0167387
0.016725
0.0167116
0.0166985
0.0166857
0.0166733
0.016661
0.016649
0.0166372
0.0166256
0.0166141
0.0166028
0.0165915
0.0165804
0.0165693
0.0165583
0.0165473
0.0165363
0.0165253
0.0165143
0.0165034
0.0164924
0.0164814
0.0164704
0.0164594
0.0164484
0.0164373
0.0164263
0.0164152
0.0164042
0.0163931
0.016382
0.016371
0.0163599
0.0163489
0.0163379
0.0163269
0.0163159
0.016305
0.016294
0.0162832
0.0162723
0.0162615
0.0162507
0.01624
0.0162293
0.0162186
0.016208
0.0161974
0.0161869
0.0161764
0.0161659
0.0161555
0.0161452
0.0161349
0.0161246
0.0161144
0.0161043
0.0160941
0.0160841
0.0160741
0.0160641
0.0160542
0.0160443
0.0160345
0.0160248
0.016015
0.0160054
0.0159958
0.0159862
0.0159767
0.0159672
0.0159578
0.0159484
0.0159391
0.0159298
0.0159206
0.0159114
0.0159023
0.0158932
0.0158841
0.0158751
0.0158661
0.0158572
0.0158483
0.0158394
0.0158306
0.0158218
0.015813
0.0158042
0.0157955
0.0157869
0.0157782
0.0157696
0.015761
0.0157524
0.0157439
0.0157354
0.0157269
0.0157185
0.0157101
0.0157018
0.0156936
0.0156853
0.0156772
0.0156692
0.0156612
0.0156534
0.0156457
0.0156381
0.0156306
0.0156233
0.0156162
0.0156092
0.0156025
0.0155959
0.0155895
0.0155834
0.0155774
0.0155716
0.0155661
0.0155607
0.0155555
0.0155505
0.0155456
0.0155408
0.0155362
0.0155316
0.0155272
0.0155227
0.0155182
0.0155137
0.0155091
0.0155045
0.0154996
0.0154946
0.0154894
0.015484
0.0154782
0.0154722
0.0154658
0.015459
0.0154519
0.0154444
0.0154365
0.0154282
0.0154194
0.0154103
0.0154008
0.0153909
0.0153807
0.0153701
0.0153593
0.0153482
0.0153369
0.0153253
0.0153137
0.0153019
0.0152901
0.0152782
0.0152663
0.0152545
0.0152427
0.015231
0.0152194
0.015208
0.0151967
0.0151855
0.0151745
0.0151638
0.0151531
0.0151427
0.0151324
0.0151223
0.0151124
0.0151026
0.0150929
0.0150834
0.015074
0.0150647
0.0150555
0.0150464
0.0150373
0.0150284
0.0150194
0.0150105
0.0150017
0.0149928
0.014984
0.0149752
0.0149665
0.0149577
0.0149489
0.0149401
0.0149314
0.0149226
0.0149138
0.014905
0.0148962
0.0148874
0.0148786
0.0148698
0.014861
0.0148522
0.0148435
0.0148347
0.0148259
0.0148171
0.0148084
0.0147996
0.0147909
0.0147821
0.0147734
0.0147647
0.0147561
0.0147474
0.0147388
0.0147302
0.0147216
0.0147131
0.0147045
0.014696
0.0146875
0.0146791
0.0146706
0.0146622
0.0146539
0.0146455
0.0146372
0.0146289
0.0146207
0.0146125
0.0146043
0.0145961
0.0145879
0.0145798
0.0145718
0.0145637
0.0145557
0.0145477
0.0145397
0.0145318
0.0145239
0.014516
0.0145082
0.0145003
0.0144925
0.0144848
0.014477
0.0144693
0.0144616
0.0144539
0.0144463
0.0144387
0.0144311
0.0144235
0.0144159
0.0144084
0.0144009
0.0143934
0.0143859
0.0143784
0.014371
0.0143636
0.0143561
0.0143487
0.0143414
0.014334
0.0143267
0.0143193
0.014312
0.0143047
0.0142975
0.0142902
0.014283
0.0142758
0.0142687
0.0142616
0.0142545
0.0142475
0.0142405
0.0142337
0.0142268
0.01422
0.0142133
0.0142067
0.0142002
0.0141937
0.0141874
0.0141811
0.014175
0.0141689
0.014163
0.0141572
0.0141514
0.0141458
0.0141403
0.014135
0.0141297
0.0141245
0.0141194
0.0141144
0.0141094
0.0141045
0.0140997
0.0140949
0.0140901
0.0140854
0.0140806
0.0140758
0.0140709
0.0140661
0.0140611
0.014056
0.0140508
0.0140455
0.0140401
0.0140345
0.0140287
0.0140227
0.0140165
0.0140101
0.0140035
0.0139966
0.0139895
0.0139822
0.0139747
0.0139669
0.0139589
0.0139507
0.0139424
0.0139338
0.0139251
0.0139162
0.0139073
0.0138982
0.0138891
0.01388
0.0138709
0.0138619
0.0138529
0.0138441
0.0138354
0.0138269
0.0138186
0.0138106
0.0138029
0.0137955
0.0137885
0.0137818
0.0137755
0.0137695
0.013764
0.0137589
0.0137541
0.0137498
0.0137458
0.0137422
0.0137389
0.013736
0.0137333
0.0137309
0.0137288
0.0137269
0.0137252
0.0137236
0.0137222
0.013721
0.0137198
0.0137187
0.0137175
0.0137163
0.0137148
0.0137128
0.0137098
0.0137051
0.0136972
0.0136837
0.0136605
0.0136208
0.0135549
0.0134508
0.0133001
0.0131095
0.0129099
0.012744
0.0126346
0.0125745
0.0125447
0.0125302
0.012523
0.0125192
0.012517
0.0125157
0.0125147
0.012514
0.0125133
0.0125127
0.0125122
0.0125116
0.0125111
0.0125106
0.0125101
0.0125096
0.0125091
0.0125086
0.0125081
0.0125077
0.0125072
0.0125068
0.0125063
0.0125059
0.0125055
0.0125051
0.0125047
0.0125044
0.012504
0.0125037
0.0125033
0.012503
0.0125027
0.0125025
0.0125022
0.0125019
0.0125017
0.0125015
0.0125013
0.0125011
0.0125009
0.0125007
0.0125006
0.0125005
0.0125003
0.0125003
0.0125002
0.0125001
0.0125001
0.0125
0.0125
0.0125
0.0125
0.0125
0.0125001
0.0125001
0.0125002
0.0125003
0.0125004
0.0125005
0.0125006
0.0125007
0.0125009
0.0125011
0.0125012
0.0125014
0.0125016
0.0125019
0.0125021
0.0125023
0.0125026
0.0125029
0.0125032
0.0125035
0.0125038
0.0125041
0.0125045
0.0125049
0.0125053
0.0125057
0.0125061
0.0125066
0.0125071
0.0125076
0.0125081
0.0125087
0.0125093
0.01251
0.0125107
0.0125115
0.0125122
0.0125131
0.012514
0.0125149
0.0125159
0.012517
0.0125181
0.0125193
0.0125205
0.0125218
0.0125232
0.0125247
0.0125262
0.0125278
0.0125294
0.0125311
0.0125329
0.0125347
0.0125366
0.0125386
0.0125406
0.0125427
0.0125448
0.0125469
0.012549
0.0125512
0.0125534
0.0125557
0.0125579
0.0125601
0.0125623
0.0125644
0.0125666
0.0125687
0.0125707
0.0125727
0.0125746
0.0125764
0.0125781
0.0125797
0.0125812
0.0125826
0.0125839
0.012585
0.012586
0.0125868
0.0125875
0.012588
0.0125883
0.0125885
0.0125885
0.0125885
0.0125884
0.0125882
0.0125877
0.0125872
0.012586
0.0125852
0.0125838
0.0125828
0.0125811
0.01258
0.0125781
0.0125768
0.0125748
0.0125733
0.0125712
0.0125697
0.0125675
0.0125659
0.0125638
0.0125621
0.01256
0.0125584
0.0125564
0.0125547
0.0125528
0.0125513
0.0125495
0.012548
0.0125464
0.0125449
0.0125435
0.012542
0.0125409
0.0125394
)
;

boundaryField
{
    inlet
    {
        type            fixedValue;
        value           uniform 0.55;
    }
    outlet
    {
        type            zeroGradient;
    }
    emptyWalls
    {
        type            empty;
    }
}


// ************************************************************************* //
