/*--------------------------------*- C++ -*----------------------------------*\
  =========                 |
  \\      /  F ield         | OpenFOAM: The Open Source CFD Toolbox
   \\    /   O peration     | Website:  https://openfoam.org
    \\  /    A nd           | Version:  9
     \\/     M anipulation  |
\*---------------------------------------------------------------------------*/
FoamFile
{
    format      ascii;
    class       surfaceScalarField;
    location    "17650";
    object      phib;
}
// * * * * * * * * * * * * * * * * * * * * * * * * * * * * * * * * * * * * * //

dimensions      [0 2 0 0 0 0 0];

internalField   nonuniform List<scalar> 
999
(
1.1362e-09
1.13621e-09
1.13624e-09
1.13623e-09
1.13628e-09
1.13628e-09
1.13633e-09
1.13636e-09
1.1364e-09
1.13645e-09
1.13649e-09
1.13653e-09
1.13658e-09
1.13663e-09
1.13668e-09
1.13673e-09
1.1368e-09
1.13682e-09
1.13689e-09
1.13691e-09
1.13697e-09
1.13709e-09
1.1375e-09
1.13927e-09
1.15174e-09
1.1718e-09
1.17394e-09
1.17382e-09
1.17362e-09
1.17413e-09
1.17504e-09
1.17597e-09
1.17722e-09
1.17826e-09
1.179e-09
1.17947e-09
1.17977e-09
1.1798e-09
1.1797e-09
1.17962e-09
1.17955e-09
1.17953e-09
1.17955e-09
1.17958e-09
1.17963e-09
1.17967e-09
1.17974e-09
1.17981e-09
1.17988e-09
1.17994e-09
1.18e-09
1.18004e-09
1.18008e-09
1.18011e-09
1.18013e-09
1.18014e-09
1.18014e-09
1.18013e-09
1.18011e-09
1.18008e-09
1.18003e-09
1.17996e-09
1.17988e-09
1.17977e-09
1.17963e-09
1.17945e-09
1.17921e-09
1.17893e-09
1.17858e-09
1.17818e-09
1.17775e-09
1.1773e-09
1.17683e-09
1.17635e-09
1.17585e-09
1.17535e-09
1.17483e-09
1.17432e-09
1.17379e-09
1.17326e-09
1.17273e-09
1.17219e-09
1.17164e-09
1.1711e-09
1.17054e-09
1.16999e-09
1.16943e-09
1.16886e-09
1.16829e-09
1.16772e-09
1.16715e-09
1.16657e-09
1.16599e-09
1.16541e-09
1.16483e-09
1.16424e-09
1.16366e-09
1.16308e-09
1.16249e-09
1.1619e-09
1.16131e-09
1.16072e-09
1.16012e-09
1.15951e-09
1.15891e-09
1.1583e-09
1.1577e-09
1.15709e-09
1.15649e-09
1.15589e-09
1.15529e-09
1.15469e-09
1.15408e-09
1.15346e-09
1.15281e-09
1.15215e-09
1.15145e-09
1.15073e-09
1.14997e-09
1.14919e-09
1.14839e-09
1.14756e-09
1.14672e-09
1.14587e-09
1.14502e-09
1.14418e-09
1.14334e-09
1.14251e-09
1.14171e-09
1.14094e-09
1.14021e-09
1.13952e-09
1.13887e-09
1.13828e-09
1.13774e-09
1.13725e-09
1.1368e-09
1.13639e-09
1.136e-09
1.13563e-09
1.13527e-09
1.13491e-09
1.13454e-09
1.13415e-09
1.13374e-09
1.1333e-09
1.13284e-09
1.13234e-09
1.13182e-09
1.13127e-09
1.1307e-09
1.13011e-09
1.1295e-09
1.12888e-09
1.12824e-09
1.12761e-09
1.12696e-09
1.12632e-09
1.12568e-09
1.12503e-09
1.12439e-09
1.12376e-09
1.12312e-09
1.12249e-09
1.12187e-09
1.12124e-09
1.12062e-09
1.12e-09
1.11939e-09
1.11877e-09
1.11816e-09
1.11754e-09
1.11693e-09
1.11631e-09
1.1157e-09
1.11508e-09
1.11447e-09
1.11385e-09
1.11323e-09
1.11261e-09
1.11199e-09
1.11137e-09
1.11075e-09
1.11012e-09
1.10949e-09
1.10887e-09
1.10824e-09
1.1076e-09
1.10697e-09
1.10634e-09
1.1057e-09
1.10506e-09
1.10443e-09
1.10378e-09
1.10314e-09
1.1025e-09
1.10185e-09
1.10121e-09
1.10056e-09
1.09991e-09
1.09926e-09
1.0986e-09
1.09795e-09
1.09729e-09
1.09663e-09
1.09597e-09
1.09531e-09
1.09465e-09
1.09399e-09
1.09332e-09
1.09265e-09
1.09198e-09
1.09131e-09
1.09064e-09
1.08997e-09
1.08929e-09
1.08861e-09
1.08793e-09
1.08725e-09
1.08657e-09
1.08589e-09
1.0852e-09
1.08452e-09
1.08383e-09
1.08315e-09
1.08246e-09
1.08177e-09
1.08108e-09
1.08039e-09
1.0797e-09
1.079e-09
1.07831e-09
1.07761e-09
1.07691e-09
1.07621e-09
1.07552e-09
1.07482e-09
1.07412e-09
1.07342e-09
1.07272e-09
1.07201e-09
1.07131e-09
1.0706e-09
1.06988e-09
1.06916e-09
1.06844e-09
1.0677e-09
1.06696e-09
1.06621e-09
1.06544e-09
1.06467e-09
1.06388e-09
1.06309e-09
1.06228e-09
1.06146e-09
1.06063e-09
1.05979e-09
1.05895e-09
1.0581e-09
1.05725e-09
1.0564e-09
1.05556e-09
1.05471e-09
1.05388e-09
1.05305e-09
1.05224e-09
1.05145e-09
1.05067e-09
1.04991e-09
1.04917e-09
1.04846e-09
1.04776e-09
1.04709e-09
1.04644e-09
1.04581e-09
1.04519e-09
1.04459e-09
1.04401e-09
1.04343e-09
1.04285e-09
1.04228e-09
1.04171e-09
1.04113e-09
1.04055e-09
1.03996e-09
1.03936e-09
1.03875e-09
1.03813e-09
1.03749e-09
1.03685e-09
1.03619e-09
1.03552e-09
1.03485e-09
1.03416e-09
1.03346e-09
1.03276e-09
1.03205e-09
1.03134e-09
1.03062e-09
1.0299e-09
1.02918e-09
1.02845e-09
1.02772e-09
1.027e-09
1.02627e-09
1.02554e-09
1.02481e-09
1.02409e-09
1.02336e-09
1.02264e-09
1.02191e-09
1.02119e-09
1.02047e-09
1.01974e-09
1.01902e-09
1.0183e-09
1.01758e-09
1.01685e-09
1.01613e-09
1.01541e-09
1.01469e-09
1.01396e-09
1.01324e-09
1.01251e-09
1.01179e-09
1.01106e-09
1.01033e-09
1.0096e-09
1.00887e-09
1.00814e-09
1.00741e-09
1.00667e-09
1.00594e-09
1.0052e-09
1.00446e-09
1.00372e-09
1.00298e-09
1.00224e-09
1.0015e-09
1.00075e-09
1.00001e-09
9.99258e-10
9.98509e-10
9.97758e-10
9.97006e-10
9.96252e-10
9.95497e-10
9.9474e-10
9.93982e-10
9.93222e-10
9.92461e-10
9.91698e-10
9.90934e-10
9.90168e-10
9.894e-10
9.88631e-10
9.8786e-10
9.87088e-10
9.86314e-10
9.85539e-10
9.84762e-10
9.83983e-10
9.83203e-10
9.82421e-10
9.81638e-10
9.80853e-10
9.80066e-10
9.79279e-10
9.78489e-10
9.77699e-10
9.76907e-10
9.76113e-10
9.75319e-10
9.74522e-10
9.73725e-10
9.72926e-10
9.72126e-10
9.71324e-10
9.70521e-10
9.69717e-10
9.68912e-10
9.68106e-10
9.67298e-10
9.66489e-10
9.65679e-10
9.64867e-10
9.64054e-10
9.6324e-10
9.62424e-10
9.61606e-10
9.60786e-10
9.59964e-10
9.5914e-10
9.58312e-10
9.57481e-10
9.56647e-10
9.55809e-10
9.54966e-10
9.54119e-10
9.53266e-10
9.52408e-10
9.51544e-10
9.50675e-10
9.49799e-10
9.48917e-10
9.48029e-10
9.47135e-10
9.46235e-10
9.4533e-10
9.44421e-10
9.43506e-10
9.42588e-10
9.41667e-10
9.40744e-10
9.3982e-10
9.38896e-10
9.37972e-10
9.3705e-10
9.36132e-10
9.35217e-10
9.34308e-10
9.33405e-10
9.32509e-10
9.31621e-10
9.30742e-10
9.29872e-10
9.29012e-10
9.28162e-10
9.27323e-10
9.26493e-10
9.25673e-10
9.24863e-10
9.24061e-10
9.23266e-10
9.22479e-10
9.21697e-10
9.20919e-10
9.20145e-10
9.19372e-10
9.18601e-10
9.17828e-10
9.17055e-10
9.16278e-10
9.15498e-10
9.14713e-10
9.13924e-10
9.13129e-10
9.12328e-10
9.1152e-10
9.10707e-10
9.09887e-10
9.09061e-10
9.08228e-10
9.0739e-10
9.06546e-10
9.05696e-10
9.04842e-10
9.03983e-10
9.0312e-10
9.02254e-10
9.01383e-10
9.0051e-10
8.99634e-10
8.98756e-10
8.97876e-10
8.96994e-10
8.9611e-10
8.95224e-10
8.94338e-10
8.9345e-10
8.92561e-10
8.91671e-10
8.9078e-10
8.89888e-10
8.88996e-10
8.88102e-10
8.87207e-10
8.86312e-10
8.85415e-10
8.84517e-10
8.83618e-10
8.82718e-10
8.81816e-10
8.80914e-10
8.80009e-10
8.79104e-10
8.78196e-10
8.77287e-10
8.76377e-10
8.75465e-10
8.74551e-10
8.73635e-10
8.72717e-10
8.71797e-10
8.70876e-10
8.69952e-10
8.69027e-10
8.68099e-10
8.67169e-10
8.66237e-10
8.65304e-10
8.64367e-10
8.63429e-10
8.62488e-10
8.61546e-10
8.60601e-10
8.59653e-10
8.58704e-10
8.57752e-10
8.56798e-10
8.55841e-10
8.54882e-10
8.53921e-10
8.52957e-10
8.51991e-10
8.51022e-10
8.50051e-10
8.49078e-10
8.48102e-10
8.47124e-10
8.46143e-10
8.4516e-10
8.44174e-10
8.43186e-10
8.42195e-10
8.41201e-10
8.40206e-10
8.39207e-10
8.38206e-10
8.37203e-10
8.36197e-10
8.35188e-10
8.34177e-10
8.33163e-10
8.32147e-10
8.31128e-10
8.30107e-10
8.29083e-10
8.28057e-10
8.27027e-10
8.25996e-10
8.24961e-10
8.23925e-10
8.22885e-10
8.21843e-10
8.20798e-10
8.19751e-10
8.18701e-10
8.17648e-10
8.16593e-10
8.15535e-10
8.14474e-10
8.13411e-10
8.12344e-10
8.11274e-10
8.10202e-10
8.09126e-10
8.08047e-10
8.06964e-10
8.05878e-10
8.04789e-10
8.03695e-10
8.02598e-10
8.01497e-10
8.00391e-10
7.99281e-10
7.98166e-10
7.97046e-10
7.95922e-10
7.94792e-10
7.93657e-10
7.92517e-10
7.91372e-10
7.90221e-10
7.89065e-10
7.87903e-10
7.86736e-10
7.85564e-10
7.84386e-10
7.83204e-10
7.82016e-10
7.80824e-10
7.79627e-10
7.78426e-10
7.77222e-10
7.76013e-10
7.74802e-10
7.73588e-10
7.72371e-10
7.71153e-10
7.69933e-10
7.68712e-10
7.6749e-10
7.66268e-10
7.65046e-10
7.63825e-10
7.62604e-10
7.61385e-10
7.60167e-10
7.5895e-10
7.57735e-10
7.56522e-10
7.5531e-10
7.541e-10
7.52892e-10
7.51685e-10
7.50479e-10
7.49274e-10
7.48069e-10
7.46865e-10
7.45659e-10
7.44453e-10
7.43245e-10
7.42035e-10
7.40823e-10
7.39607e-10
7.38387e-10
7.37163e-10
7.35934e-10
7.34699e-10
7.33459e-10
7.32213e-10
7.3096e-10
7.29701e-10
7.28434e-10
7.2716e-10
7.25879e-10
7.2459e-10
7.23293e-10
7.21989e-10
7.20678e-10
7.19358e-10
7.18031e-10
7.16696e-10
7.15354e-10
7.14005e-10
7.12648e-10
7.11285e-10
7.09915e-10
7.08538e-10
7.07154e-10
7.05764e-10
7.04367e-10
7.02965e-10
7.01556e-10
7.00142e-10
6.98722e-10
6.97297e-10
6.95867e-10
6.94431e-10
6.92992e-10
6.91548e-10
6.901e-10
6.88649e-10
6.87194e-10
6.85737e-10
6.84278e-10
6.82818e-10
6.81358e-10
6.799e-10
6.78443e-10
6.76989e-10
6.75541e-10
6.74099e-10
6.72667e-10
6.71247e-10
6.69841e-10
6.68453e-10
6.67085e-10
6.65741e-10
6.64426e-10
6.63143e-10
6.61898e-10
6.60693e-10
6.59533e-10
6.58423e-10
6.57367e-10
6.56369e-10
6.55431e-10
6.54557e-10
6.53747e-10
6.53002e-10
6.52324e-10
6.51711e-10
6.51163e-10
6.50676e-10
6.50248e-10
6.49874e-10
6.49551e-10
6.49274e-10
6.49038e-10
6.4884e-10
6.48671e-10
6.48525e-10
6.48393e-10
6.48262e-10
6.48115e-10
6.47921e-10
6.47626e-10
6.47138e-10
6.46292e-10
6.44802e-10
6.42164e-10
6.37509e-10
6.2939e-10
6.15553e-10
5.92894e-10
5.58147e-10
5.09946e-10
4.51792e-10
3.92722e-10
3.42781e-10
3.07037e-10
2.84551e-10
2.71583e-10
2.64487e-10
2.60718e-10
2.58747e-10
2.57726e-10
2.57198e-10
2.56925e-10
2.56785e-10
2.56713e-10
2.56675e-10
2.56655e-10
2.56643e-10
2.56637e-10
2.56633e-10
2.5663e-10
2.56628e-10
2.56626e-10
2.56625e-10
2.56623e-10
2.56621e-10
2.56619e-10
2.56617e-10
2.56615e-10
2.56613e-10
2.5661e-10
2.56608e-10
2.56605e-10
2.56602e-10
2.56599e-10
2.56596e-10
2.56593e-10
2.56589e-10
2.56586e-10
2.56582e-10
2.56577e-10
2.56573e-10
2.56568e-10
2.56563e-10
2.56557e-10
2.56551e-10
2.56545e-10
2.56538e-10
2.56531e-10
2.56524e-10
2.56516e-10
2.56507e-10
2.56499e-10
2.56489e-10
2.5648e-10
2.56469e-10
2.56459e-10
2.56448e-10
2.56436e-10
2.56424e-10
2.56411e-10
2.56398e-10
2.56385e-10
2.56372e-10
2.56358e-10
2.56343e-10
2.56329e-10
2.56314e-10
2.56299e-10
2.56285e-10
2.5627e-10
2.56255e-10
2.5624e-10
2.56226e-10
2.56212e-10
2.56198e-10
2.56184e-10
2.56171e-10
2.56158e-10
2.56146e-10
2.56135e-10
2.56125e-10
2.56115e-10
2.56106e-10
2.56098e-10
2.56092e-10
2.56086e-10
2.56081e-10
2.56078e-10
2.56076e-10
2.56075e-10
2.56074e-10
2.56074e-10
2.56074e-10
2.56077e-10
2.56082e-10
2.56087e-10
2.56094e-10
2.56101e-10
2.56109e-10
2.56118e-10
2.56128e-10
2.56138e-10
2.56149e-10
2.5616e-10
2.56172e-10
2.56184e-10
2.56197e-10
2.56209e-10
2.56222e-10
2.56234e-10
2.56247e-10
2.56259e-10
2.56271e-10
2.56283e-10
2.56295e-10
2.56306e-10
2.56317e-10
2.56327e-10
2.56337e-10
2.56347e-10
2.56356e-10
2.56365e-10
2.56373e-10
2.56381e-10
2.56388e-10
2.56395e-10
2.56402e-10
2.56408e-10
2.56414e-10
2.56419e-10
2.56424e-10
2.56429e-10
2.56434e-10
2.56438e-10
2.56442e-10
2.56446e-10
2.56449e-10
2.56453e-10
2.56456e-10
2.56459e-10
2.56462e-10
2.56465e-10
2.56468e-10
2.56471e-10
2.56474e-10
2.56477e-10
2.5648e-10
2.56483e-10
2.56485e-10
2.56488e-10
2.56491e-10
2.56494e-10
2.56497e-10
2.565e-10
2.56503e-10
2.56506e-10
2.56509e-10
2.56511e-10
2.56514e-10
2.56517e-10
2.5652e-10
2.56523e-10
2.56526e-10
2.56529e-10
2.56532e-10
2.56535e-10
2.56538e-10
2.56541e-10
2.56544e-10
2.56547e-10
2.5655e-10
2.56552e-10
2.56555e-10
2.56558e-10
2.56561e-10
2.56563e-10
2.56566e-10
2.56568e-10
2.56571e-10
2.56573e-10
2.56576e-10
2.56578e-10
2.5658e-10
2.56582e-10
2.56584e-10
2.56586e-10
2.56588e-10
2.5659e-10
2.56591e-10
2.56593e-10
2.56594e-10
2.56596e-10
2.56597e-10
2.56598e-10
2.56599e-10
2.566e-10
2.56601e-10
2.56602e-10
2.56602e-10
2.56603e-10
2.56603e-10
2.56604e-10
2.56604e-10
2.56604e-10
2.56604e-10
2.56604e-10
2.56605e-10
2.56605e-10
2.56605e-10
2.56605e-10
2.56605e-10
2.56605e-10
2.56604e-10
2.56604e-10
2.56604e-10
2.56604e-10
2.56604e-10
2.56603e-10
2.56603e-10
2.56603e-10
2.56602e-10
2.56602e-10
2.56601e-10
2.566e-10
2.56599e-10
2.56598e-10
2.56597e-10
2.56596e-10
2.56595e-10
2.56593e-10
2.56592e-10
2.5659e-10
2.56588e-10
2.56586e-10
2.56584e-10
2.56582e-10
2.56579e-10
2.56576e-10
2.56574e-10
2.5657e-10
2.56567e-10
2.56564e-10
2.5656e-10
2.56556e-10
2.56552e-10
2.56548e-10
2.56543e-10
2.56538e-10
2.56533e-10
2.56528e-10
2.56522e-10
2.56516e-10
2.56509e-10
2.56503e-10
2.56496e-10
2.56488e-10
2.5648e-10
2.56472e-10
2.56464e-10
2.56455e-10
2.56445e-10
2.56436e-10
2.56426e-10
2.56415e-10
2.56405e-10
2.56394e-10
2.56382e-10
2.56371e-10
2.56359e-10
2.56347e-10
2.56334e-10
2.56322e-10
2.56309e-10
2.56297e-10
2.56284e-10
2.56271e-10
2.56259e-10
2.56246e-10
2.56234e-10
2.56222e-10
2.5621e-10
2.56198e-10
2.56187e-10
2.56176e-10
2.56166e-10
2.56156e-10
2.56147e-10
2.56138e-10
2.56131e-10
2.56124e-10
)
;

boundaryField
{
    inlet
    {
        type            calculated;
        value           uniform -1.13622e-09;
    }
    outlet
    {
        type            calculated;
        value           uniform 2.56118e-10;
    }
    emptyWalls
    {
        type            empty;
        value           nonuniform List<scalar> 0();
    }
}


// ************************************************************************* //
