/*--------------------------------*- C++ -*----------------------------------*\
  =========                 |
  \\      /  F ield         | OpenFOAM: The Open Source CFD Toolbox
   \\    /   O peration     | Website:  https://openfoam.org
    \\  /    A nd           | Version:  9
     \\/     M anipulation  |
\*---------------------------------------------------------------------------*/
FoamFile
{
    format      ascii;
    class       volScalarField;
    location    "17650";
    object      Sb;
}
// * * * * * * * * * * * * * * * * * * * * * * * * * * * * * * * * * * * * * //

dimensions      [0 0 0 0 0 0 0];

internalField   nonuniform List<scalar> 
1000
(
0.350351
0.350878
0.35183
0.352563
0.353479
0.354267
0.355147
0.355995
0.356867
0.357732
0.358603
0.359449
0.360282
0.361077
0.361828
0.362529
0.363152
0.363742
0.364189
0.364702
0.36504
0.365795
0.367593
0.374575
0.414507
0.583105
0.648137
0.661894
0.667284
0.670397
0.672628
0.674345
0.67575
0.676944
0.67793
0.678751
0.679438
0.680019
0.680495
0.680908
0.681264
0.681573
0.681841
0.682075
0.682272
0.682436
0.682574
0.682682
0.682767
0.682824
0.682859
0.682868
0.682855
0.682816
0.682752
0.682662
0.682546
0.682403
0.682231
0.68203
0.681795
0.681522
0.681204
0.680831
0.680387
0.67985
0.679197
0.678405
0.677465
0.676393
0.675232
0.674017
0.672768
0.671497
0.670215
0.668927
0.667638
0.66635
0.665065
0.663786
0.662514
0.661249
0.659991
0.658742
0.657502
0.656271
0.655048
0.653835
0.65263
0.651435
0.650249
0.649071
0.647903
0.646744
0.645594
0.644453
0.64332
0.642196
0.641081
0.639974
0.638875
0.637784
0.636702
0.635627
0.63456
0.6335
0.632449
0.631405
0.630368
0.62934
0.628318
0.627304
0.626297
0.625296
0.624301
0.623312
0.622328
0.621348
0.620373
0.619403
0.618438
0.617478
0.616523
0.615574
0.614631
0.613693
0.612762
0.611837
0.610919
0.610008
0.609105
0.60821
0.607323
0.606445
0.605575
0.604712
0.603858
0.603011
0.602171
0.601337
0.600509
0.599686
0.598867
0.598053
0.597241
0.596433
0.595627
0.594825
0.594025
0.593228
0.592434
0.591643
0.590855
0.590071
0.58929
0.588512
0.587739
0.586969
0.586203
0.585441
0.584683
0.58393
0.58318
0.582434
0.581692
0.580953
0.580219
0.579488
0.578761
0.578038
0.577318
0.576601
0.575888
0.575178
0.574472
0.573769
0.573069
0.572372
0.571678
0.570988
0.5703
0.569616
0.568934
0.568255
0.56758
0.566907
0.566237
0.56557
0.564905
0.564244
0.563585
0.562929
0.562275
0.561625
0.560976
0.560331
0.559688
0.559047
0.558409
0.557774
0.557141
0.55651
0.555882
0.555256
0.554633
0.554012
0.553394
0.552777
0.552163
0.551551
0.550942
0.550335
0.54973
0.549127
0.548526
0.547927
0.547331
0.546736
0.546144
0.545554
0.544966
0.54438
0.543796
0.543214
0.542634
0.542055
0.541479
0.540905
0.540333
0.539763
0.539194
0.538628
0.538063
0.5375
0.536939
0.53638
0.535823
0.535268
0.534714
0.534162
0.533612
0.533063
0.532516
0.531971
0.531427
0.530885
0.530343
0.529804
0.529265
0.528727
0.528191
0.527655
0.527121
0.526588
0.526055
0.525524
0.524994
0.524465
0.523938
0.523411
0.522887
0.522364
0.521842
0.521323
0.520805
0.520289
0.519776
0.519265
0.518756
0.51825
0.517747
0.517246
0.516747
0.516251
0.515757
0.515266
0.514776
0.514289
0.513804
0.51332
0.512837
0.512356
0.511876
0.511398
0.51092
0.510443
0.509966
0.509491
0.509015
0.508541
0.508067
0.507594
0.507121
0.506649
0.506178
0.505708
0.505238
0.50477
0.504302
0.503835
0.503369
0.502904
0.502441
0.501978
0.501516
0.501056
0.500596
0.500138
0.49968
0.499224
0.498769
0.498315
0.497862
0.49741
0.496959
0.496509
0.49606
0.495612
0.495165
0.494719
0.494274
0.49383
0.493387
0.492945
0.492504
0.492063
0.491624
0.491185
0.490747
0.49031
0.489874
0.489439
0.489004
0.488571
0.488138
0.487706
0.487274
0.486844
0.486414
0.485986
0.485557
0.48513
0.484703
0.484278
0.483853
0.483428
0.483005
0.482582
0.48216
0.481738
0.481317
0.480897
0.480478
0.480059
0.479641
0.479224
0.478807
0.478391
0.477976
0.477562
0.477148
0.476734
0.476322
0.475909
0.475498
0.475087
0.474677
0.474268
0.473859
0.47345
0.473043
0.472636
0.472229
0.471823
0.471418
0.471013
0.470609
0.470205
0.469802
0.4694
0.468998
0.468597
0.468196
0.467796
0.467396
0.466997
0.466599
0.466201
0.465803
0.465406
0.46501
0.464614
0.464218
0.463823
0.463429
0.463034
0.46264
0.462247
0.461854
0.461461
0.461068
0.460676
0.460284
0.459892
0.4595
0.459109
0.458718
0.458327
0.457936
0.457546
0.457156
0.456766
0.456377
0.455988
0.455599
0.455211
0.454823
0.454436
0.454049
0.453663
0.453278
0.452894
0.45251
0.452127
0.451745
0.451363
0.450983
0.450603
0.450225
0.449847
0.44947
0.449094
0.448719
0.448344
0.44797
0.447597
0.447225
0.446853
0.446482
0.446111
0.44574
0.44537
0.445
0.44463
0.44426
0.443891
0.443521
0.443152
0.442783
0.442413
0.442044
0.441675
0.441306
0.440937
0.440568
0.440199
0.43983
0.439461
0.439093
0.438724
0.438356
0.437987
0.437619
0.437251
0.436884
0.436516
0.436149
0.435782
0.435415
0.435048
0.434681
0.434315
0.433949
0.433583
0.433217
0.432852
0.432486
0.432121
0.431756
0.431391
0.431027
0.430662
0.430298
0.429934
0.42957
0.429206
0.428842
0.428478
0.428115
0.427752
0.427388
0.427025
0.426662
0.426299
0.425936
0.425573
0.42521
0.424848
0.424485
0.424122
0.42376
0.423397
0.423035
0.422672
0.42231
0.421947
0.421585
0.421223
0.42086
0.420498
0.420136
0.419773
0.419411
0.419048
0.418686
0.418324
0.417961
0.417599
0.417236
0.416873
0.416511
0.416148
0.415785
0.415422
0.41506
0.414697
0.414334
0.41397
0.413607
0.413244
0.412881
0.412517
0.412153
0.41179
0.411426
0.411062
0.410698
0.410334
0.409969
0.409605
0.40924
0.408875
0.40851
0.408145
0.40778
0.407414
0.407049
0.406683
0.406317
0.405951
0.405584
0.405218
0.404851
0.404484
0.404116
0.403749
0.403381
0.403013
0.402645
0.402276
0.401907
0.401538
0.401168
0.400799
0.400428
0.400058
0.399687
0.399316
0.398944
0.398572
0.398199
0.397826
0.397453
0.397079
0.396704
0.39633
0.395954
0.395579
0.395202
0.394826
0.394448
0.394071
0.393693
0.393314
0.392935
0.392555
0.392175
0.391795
0.391414
0.391033
0.390651
0.390269
0.389886
0.389503
0.38912
0.388736
0.388352
0.387968
0.387583
0.387198
0.386812
0.386426
0.38604
0.385653
0.385266
0.384879
0.384491
0.384102
0.383713
0.383324
0.382934
0.382543
0.382152
0.38176
0.381368
0.380975
0.380581
0.380186
0.37979
0.379394
0.378997
0.378599
0.378199
0.377799
0.377398
0.376996
0.376593
0.376189
0.375784
0.375378
0.374971
0.374562
0.374153
0.373743
0.373331
0.372918
0.372505
0.37209
0.371674
0.371257
0.370839
0.37042
0.37
0.369579
0.369157
0.368734
0.36831
0.367885
0.367459
0.367033
0.366605
0.366177
0.365749
0.36532
0.36489
0.364461
0.364031
0.363601
0.363172
0.362744
0.362317
0.361891
0.361466
0.361044
0.360625
0.36021
0.359799
0.359393
0.358993
0.3586
0.358215
0.357839
0.357473
0.35712
0.356779
0.356452
0.35614
0.355844
0.355566
0.355305
0.355063
0.35484
0.354636
0.354451
0.354284
0.354136
0.354005
0.35389
0.353789
0.353703
0.35363
0.353567
0.353515
0.353469
0.353429
0.353392
0.353354
0.353307
0.353242
0.353138
0.352964
0.352659
0.35212
0.351168
0.349497
0.346616
0.341798
0.334154
0.322981
0.308483
0.29237
0.27737
0.265651
0.257762
0.253
0.250321
0.248877
0.248115
0.247719
0.247513
0.247408
0.247353
0.247325
0.247311
0.247304
0.2473
0.247298
0.247297
0.247296
0.247296
0.247296
0.247295
0.247295
0.247295
0.247295
0.247295
0.247295
0.247295
0.247295
0.247295
0.247295
0.247294
0.247294
0.247294
0.247294
0.247294
0.247293
0.247293
0.247293
0.247293
0.247292
0.247292
0.247292
0.247291
0.247291
0.24729
0.24729
0.24729
0.247289
0.247289
0.247288
0.247287
0.247287
0.247286
0.247286
0.247285
0.247284
0.247284
0.247283
0.247282
0.247281
0.247281
0.24728
0.247279
0.247278
0.247278
0.247277
0.247276
0.247275
0.247275
0.247274
0.247273
0.247272
0.247272
0.247271
0.24727
0.24727
0.247269
0.247268
0.247268
0.247267
0.247267
0.247266
0.247266
0.247266
0.247265
0.247265
0.247265
0.247265
0.247265
0.247265
0.247265
0.247265
0.247265
0.247265
0.247265
0.247265
0.247265
0.247266
0.247266
0.247266
0.247267
0.247267
0.247268
0.247268
0.247269
0.247269
0.24727
0.24727
0.247271
0.247271
0.247272
0.247272
0.247273
0.247273
0.247273
0.247274
0.247274
0.247275
0.247275
0.247276
0.247276
0.247276
0.247277
0.247277
0.247277
0.247278
0.247278
0.247278
0.247278
0.247279
0.247279
0.247279
0.247279
0.24728
0.24728
0.24728
0.24728
0.24728
0.24728
0.247281
0.247281
0.247281
0.247281
0.247281
0.247281
0.247282
0.247282
0.247282
0.247282
0.247282
0.247282
0.247282
0.247282
0.247283
0.247283
0.247283
0.247283
0.247283
0.247283
0.247283
0.247283
0.247284
0.247284
0.247284
0.247284
0.247284
0.247284
0.247284
0.247284
0.247284
0.247285
0.247285
0.247285
0.247285
0.247285
0.247285
0.247285
0.247285
0.247285
0.247285
0.247285
0.247286
0.247286
0.247286
0.247286
0.247286
0.247286
0.247286
0.247286
0.247286
0.247286
0.247286
0.247286
0.247286
0.247286
0.247286
0.247286
0.247286
0.247286
0.247286
0.247286
0.247286
0.247286
0.247286
0.247286
0.247286
0.247286
0.247286
0.247286
0.247286
0.247286
0.247286
0.247286
0.247286
0.247286
0.247286
0.247286
0.247286
0.247287
0.247287
0.247287
0.247287
0.247287
0.247287
0.247287
0.247287
0.247287
0.247287
0.247287
0.247287
0.247287
0.247287
0.247287
0.247287
0.247287
0.247287
0.247287
0.247287
0.247287
0.247286
0.247286
0.247286
0.247286
0.247286
0.247286
0.247285
0.247285
0.247285
0.247285
0.247284
0.247284
0.247284
0.247283
0.247283
0.247283
0.247282
0.247282
0.247282
0.247281
0.247281
0.247281
0.24728
0.24728
0.247279
0.247279
0.247278
0.247278
0.247277
0.247277
0.247276
0.247276
0.247275
0.247275
0.247274
0.247274
0.247273
0.247273
0.247272
0.247272
0.247271
0.247271
0.247271
0.24727
0.24727
0.247269
0.247269
0.247269
0.247268
0.247268
)
;

boundaryField
{
    inlet
    {
        type            fixedValue;
        value           uniform 0.35;
    }
    outlet
    {
        type            zeroGradient;
    }
    emptyWalls
    {
        type            empty;
    }
}


// ************************************************************************* //
