/*--------------------------------*- C++ -*----------------------------------*\
  =========                 |
  \\      /  F ield         | OpenFOAM: The Open Source CFD Toolbox
   \\    /   O peration     | Website:  https://openfoam.org
    \\  /    A nd           | Version:  9
     \\/     M anipulation  |
\*---------------------------------------------------------------------------*/
FoamFile
{
    format      ascii;
    class       volScalarField;
    location    "18950";
    object      krb;
}
// * * * * * * * * * * * * * * * * * * * * * * * * * * * * * * * * * * * * * //

dimensions      [0 0 0 0 0 0 0];

internalField   nonuniform List<scalar> 
1000
(
0.097881
0.0983201
0.098957
0.0995256
0.100192
0.10074
0.10144
0.101995
0.102702
0.103301
0.103987
0.104626
0.105284
0.105916
0.106537
0.107116
0.107667
0.108165
0.10862
0.109019
0.109369
0.109693
0.109996
0.110608
0.112331
0.119285
0.165839
0.387046
0.47297
0.494876
0.504122
0.50937
0.512914
0.5156
0.517777
0.519622
0.521209
0.522597
0.523808
0.524874
0.525807
0.526627
0.527344
0.527973
0.528519
0.528995
0.529405
0.529757
0.530056
0.530304
0.530507
0.530665
0.530784
0.53086
0.530903
0.530902
0.530868
0.530792
0.530676
0.53052
0.530324
0.530086
0.529804
0.529476
0.529099
0.528668
0.528174
0.527606
0.526948
0.526175
0.525256
0.524152
0.522828
0.521268
0.519491
0.517559
0.515534
0.513452
0.511334
0.509198
0.507054
0.50491
0.502771
0.500641
0.498522
0.496418
0.494328
0.492254
0.490196
0.488156
0.486132
0.484127
0.482139
0.48017
0.478219
0.476286
0.474372
0.472475
0.470596
0.468734
0.466888
0.465056
0.463238
0.461433
0.45964
0.45786
0.456092
0.454337
0.452596
0.45087
0.449158
0.447461
0.44578
0.444115
0.442466
0.440835
0.439221
0.437626
0.436049
0.434492
0.432952
0.431432
0.429928
0.428442
0.42697
0.425512
0.424067
0.422633
0.421209
0.419794
0.418388
0.41699
0.415599
0.414216
0.412841
0.411474
0.410114
0.408763
0.407421
0.406087
0.404762
0.403447
0.402141
0.400845
0.399558
0.39828
0.397012
0.395754
0.394505
0.393264
0.392033
0.390811
0.389597
0.388392
0.387195
0.386006
0.384826
0.383653
0.382488
0.381331
0.380181
0.379039
0.377904
0.376777
0.375656
0.374543
0.373437
0.372337
0.371245
0.370159
0.369079
0.368007
0.36694
0.365881
0.364827
0.36378
0.362739
0.361704
0.360675
0.359653
0.358636
0.357625
0.35662
0.35562
0.354626
0.353638
0.352656
0.351679
0.350707
0.349741
0.34878
0.347824
0.346873
0.345928
0.344988
0.344052
0.343122
0.342197
0.341276
0.340361
0.33945
0.338544
0.337643
0.336746
0.335854
0.334967
0.334084
0.333206
0.332332
0.331463
0.330598
0.329737
0.328881
0.328029
0.327181
0.326337
0.325498
0.324663
0.323831
0.323004
0.322181
0.321362
0.320547
0.319736
0.318929
0.318125
0.317324
0.316527
0.315733
0.314942
0.314154
0.313368
0.312586
0.311806
0.311028
0.310254
0.309482
0.308712
0.307946
0.307182
0.306422
0.305665
0.304911
0.304161
0.303414
0.302672
0.301934
0.3012
0.300471
0.299746
0.299026
0.298311
0.297601
0.296896
0.296196
0.2955
0.294809
0.294121
0.293438
0.292758
0.292082
0.291408
0.290738
0.29007
0.289404
0.28874
0.288079
0.287419
0.286761
0.286105
0.28545
0.284798
0.284147
0.283498
0.28285
0.282205
0.281562
0.280921
0.280282
0.279645
0.279011
0.278379
0.277749
0.277122
0.276497
0.275874
0.275254
0.274636
0.274021
0.273407
0.272797
0.272188
0.271582
0.270978
0.270377
0.269778
0.26918
0.268585
0.267993
0.267402
0.266813
0.266227
0.265642
0.26506
0.264479
0.263901
0.263324
0.26275
0.262177
0.261606
0.261037
0.26047
0.259905
0.259342
0.25878
0.258221
0.257663
0.257107
0.256553
0.256001
0.25545
0.254901
0.254354
0.253808
0.253265
0.252723
0.252182
0.251643
0.251106
0.250571
0.250037
0.249505
0.248975
0.248446
0.247919
0.247393
0.246869
0.246346
0.245825
0.245306
0.244788
0.244271
0.243756
0.243243
0.242731
0.242221
0.241712
0.241204
0.240698
0.240194
0.239691
0.239189
0.238689
0.23819
0.237693
0.237197
0.236702
0.236209
0.235718
0.235227
0.234738
0.234251
0.233764
0.233279
0.232796
0.232314
0.231833
0.231353
0.230875
0.230397
0.229921
0.229447
0.228973
0.2285
0.228029
0.227558
0.227089
0.22662
0.226152
0.225686
0.22522
0.224755
0.224291
0.223827
0.223365
0.222904
0.222443
0.221984
0.221525
0.221068
0.220611
0.220156
0.219702
0.219249
0.218798
0.218348
0.217899
0.217452
0.217007
0.216563
0.216121
0.215681
0.215243
0.214806
0.214371
0.213938
0.213506
0.213076
0.212648
0.212222
0.211796
0.211373
0.21095
0.210529
0.210109
0.20969
0.209272
0.208855
0.208438
0.208023
0.207608
0.207194
0.206781
0.206368
0.205956
0.205544
0.205133
0.204722
0.204313
0.203903
0.203495
0.203087
0.20268
0.202273
0.201867
0.201462
0.201058
0.200654
0.200252
0.19985
0.199449
0.199048
0.198649
0.19825
0.197852
0.197455
0.197059
0.196664
0.196269
0.195875
0.195482
0.19509
0.194699
0.194308
0.193919
0.19353
0.193141
0.192754
0.192367
0.191981
0.191596
0.191212
0.190828
0.190445
0.190062
0.189681
0.1893
0.18892
0.18854
0.188161
0.187783
0.187405
0.187028
0.186652
0.186276
0.185901
0.185527
0.185153
0.18478
0.184408
0.184036
0.183665
0.183294
0.182924
0.182555
0.182186
0.181818
0.18145
0.181083
0.180717
0.180351
0.179985
0.179621
0.179257
0.178893
0.17853
0.178167
0.177806
0.177444
0.177083
0.176723
0.176363
0.176004
0.175645
0.175287
0.174929
0.174572
0.174215
0.173859
0.173504
0.173148
0.172794
0.17244
0.172086
0.171733
0.17138
0.171028
0.170676
0.170325
0.169974
0.169624
0.169274
0.168925
0.168576
0.168228
0.16788
0.167532
0.167185
0.166838
0.166492
0.166146
0.165801
0.165456
0.165111
0.164767
0.164422
0.164079
0.163735
0.163392
0.16305
0.162707
0.162365
0.162023
0.161682
0.16134
0.160999
0.160658
0.160318
0.159977
0.159637
0.159297
0.158958
0.158619
0.15828
0.157941
0.157603
0.157265
0.156927
0.15659
0.156253
0.155917
0.155581
0.155245
0.15491
0.154576
0.154242
0.153908
0.153575
0.153243
0.152911
0.15258
0.152249
0.151919
0.15159
0.151261
0.150933
0.150605
0.150277
0.14995
0.149624
0.149298
0.148972
0.148647
0.148322
0.147998
0.147673
0.147349
0.147026
0.146702
0.146378
0.146055
0.145732
0.145409
0.145085
0.144763
0.14444
0.144117
0.143794
0.143471
0.143148
0.142826
0.142503
0.14218
0.141858
0.141535
0.141213
0.14089
0.140568
0.140246
0.139924
0.139601
0.139279
0.138957
0.138636
0.138314
0.137992
0.13767
0.137349
0.137027
0.136706
0.136385
0.136063
0.135742
0.135421
0.1351
0.134779
0.134458
0.134137
0.133816
0.133495
0.133174
0.132853
0.132532
0.132211
0.13189
0.131569
0.131248
0.130927
0.130606
0.130285
0.129964
0.129643
0.129322
0.129001
0.128679
0.128358
0.128036
0.127715
0.127393
0.127071
0.126749
0.126427
0.126105
0.125782
0.12546
0.125137
0.124814
0.124491
0.124168
0.123845
0.123521
0.123197
0.122874
0.122549
0.122225
0.121901
0.121576
0.121251
0.120925
0.1206
0.120274
0.119948
0.119622
0.119296
0.118969
0.118642
0.118314
0.117987
0.117659
0.11733
0.117002
0.116673
0.116344
0.116015
0.115685
0.115355
0.115024
0.114694
0.114363
0.114032
0.1137
0.113368
0.113036
0.112704
0.112372
0.112039
0.111706
0.111373
0.11104
0.110707
0.110374
0.110041
0.109709
0.109376
0.109044
0.108712
0.108381
0.10805
0.107721
0.107393
0.107066
0.106741
0.106418
0.106097
0.105779
0.105465
0.105154
0.104847
0.104546
0.104251
0.103962
0.10368
0.103406
0.103141
0.102886
0.102642
0.102408
0.102187
0.101978
0.101783
0.101601
0.101432
0.101277
0.101136
0.101009
0.100894
0.100792
0.100702
0.100623
0.100554
0.100495
0.100445
0.100402
0.100365
0.100334
0.100308
0.100284
0.100262
0.100238
0.100208
0.100165
0.100096
0.0999793
0.0997751
0.0994145
0.0987767
0.0976584
0.0957327
0.092523
0.087457
0.0801208
0.0707462
0.0605632
0.0513557
0.0443776
0.0398001
0.0370878
0.0355799
0.0347719
0.0343476
0.0341272
0.0340135
0.0339549
0.0339249
0.0339096
0.0339018
0.0338979
0.0338961
0.0338952
0.0338949
0.0338948
0.0338948
0.0338949
0.0338951
0.0338953
0.0338954
0.0338956
0.0338957
0.0338958
0.0338959
0.0338961
0.0338961
0.0338962
0.0338963
0.0338963
0.0338964
0.0338964
0.0338965
0.0338965
0.0338965
0.0338965
0.0338964
0.0338964
0.0338964
0.0338964
0.0338963
0.0338963
0.0338962
0.0338961
0.0338961
0.033896
0.033896
0.0338959
0.0338958
0.0338958
0.0338957
0.0338956
0.0338955
0.0338955
0.0338954
0.0338954
0.0338953
0.0338952
0.0338952
0.0338951
0.0338951
0.033895
0.033895
0.0338949
0.0338949
0.0338948
0.0338948
0.0338948
0.0338947
0.0338947
0.0338947
0.0338947
0.0338946
0.0338946
0.0338946
0.0338946
0.0338946
0.0338946
0.0338946
0.0338946
0.0338946
0.0338946
0.0338946
0.0338946
0.0338946
0.0338946
0.0338946
0.0338946
0.0338946
0.0338946
0.0338946
0.0338946
0.0338947
0.0338947
0.0338947
0.0338947
0.0338947
0.0338947
0.0338948
0.0338948
0.0338948
0.0338948
0.0338948
0.0338949
0.0338949
0.0338949
0.0338949
0.0338949
0.033895
0.033895
0.033895
0.033895
0.033895
0.0338951
0.0338951
0.0338951
0.0338951
0.0338951
0.0338951
0.0338952
0.0338952
0.0338952
0.0338952
0.0338952
0.0338952
0.0338952
0.0338952
0.0338952
0.0338952
0.0338952
0.0338952
0.0338952
0.0338952
0.0338952
0.0338952
0.0338952
0.0338951
0.0338951
0.0338951
0.0338951
0.033895
0.033895
0.0338949
0.0338949
0.0338948
0.0338948
0.0338947
0.0338947
0.0338946
0.0338945
0.0338944
0.0338943
0.0338942
0.0338941
0.033894
0.0338939
0.0338938
0.0338937
0.0338935
0.0338934
0.0338932
0.0338931
0.0338929
0.0338927
0.0338926
0.0338924
0.0338922
0.033892
0.0338918
0.0338916
0.0338914
0.0338912
0.033891
0.0338908
0.0338905
0.0338903
0.0338901
0.0338899
0.0338896
0.0338894
0.0338892
0.033889
0.0338888
0.0338885
0.0338883
0.0338881
0.0338879
0.0338877
0.0338876
0.0338874
0.0338872
0.0338871
0.033887
0.0338868
0.0338867
0.0338866
0.0338866
0.0338865
0.0338865
0.0338865
0.0338865
0.0338866
0.0338866
0.0338867
0.0338868
0.033887
0.0338871
0.0338873
0.0338875
0.0338877
0.0338879
0.0338882
0.0338884
0.0338887
0.0338889
0.0338892
0.0338894
0.0338897
0.0338899
0.0338902
0.0338904
0.0338907
0.0338909
0.0338911
0.0338913
0.0338915
0.0338917
0.0338919
0.0338921
0.0338922
0.0338924
0.0338925
0.0338926
0.0338927
0.0338929
)
;

boundaryField
{
    inlet
    {
        type            calculated;
        value           uniform 0.0976562;
    }
    outlet
    {
        type            calculated;
        value           uniform 0.0338929;
    }
    emptyWalls
    {
        type            empty;
    }
}


// ************************************************************************* //
