/*--------------------------------*- C++ -*----------------------------------*\
  =========                 |
  \\      /  F ield         | OpenFOAM: The Open Source CFD Toolbox
   \\    /   O peration     | Website:  https://openfoam.org
    \\  /    A nd           | Version:  9
     \\/     M anipulation  |
\*---------------------------------------------------------------------------*/
FoamFile
{
    format      ascii;
    class       surfaceScalarField;
    location    "18950";
    object      phic;
}
// * * * * * * * * * * * * * * * * * * * * * * * * * * * * * * * * * * * * * //

dimensions      [0 2 0 0 0 0 0];

internalField   nonuniform List<scalar> 
999
(
1.49919e-15
6.377e-15
1.55533e-14
2.87489e-14
4.58745e-14
6.68938e-14
9.17852e-14
1.20499e-13
1.52906e-13
1.8883e-13
2.27903e-13
2.69679e-13
3.13475e-13
3.5847e-13
4.03689e-13
4.4809e-13
4.90655e-13
5.30524e-13
5.67078e-13
6.00065e-13
6.29851e-13
6.5912e-13
7.00522e-13
8.14101e-13
1.23197e-12
2.92643e-12
1.22344e-11
1.96908e-11
2.10463e-11
2.15972e-11
2.19189e-11
2.21478e-11
2.23318e-11
2.24914e-11
2.26367e-11
2.27726e-11
2.29017e-11
2.30254e-11
2.31446e-11
2.326e-11
2.33719e-11
2.34808e-11
2.35871e-11
2.36911e-11
2.37931e-11
2.38936e-11
2.39927e-11
2.40909e-11
2.41885e-11
2.42857e-11
2.43829e-11
2.44805e-11
2.45786e-11
2.46776e-11
2.47781e-11
2.48805e-11
2.49876e-11
2.50968e-11
2.52084e-11
2.53228e-11
2.54404e-11
2.55616e-11
2.5687e-11
2.58175e-11
2.59541e-11
2.60985e-11
2.62526e-11
2.64196e-11
2.66038e-11
2.68107e-11
2.70472e-11
2.73203e-11
2.7635e-11
2.79924e-11
2.83878e-11
2.88126e-11
2.92592e-11
2.97218e-11
3.01967e-11
3.06811e-11
3.11732e-11
3.16715e-11
3.21751e-11
3.26831e-11
3.3195e-11
3.37102e-11
3.42285e-11
3.47494e-11
3.52727e-11
3.57983e-11
3.6326e-11
3.68558e-11
3.73875e-11
3.79211e-11
3.84565e-11
3.89937e-11
3.95325e-11
4.0073e-11
4.06149e-11
4.11581e-11
4.17024e-11
4.22473e-11
4.27926e-11
4.33382e-11
4.38839e-11
4.44298e-11
4.4976e-11
4.55226e-11
4.60698e-11
4.66178e-11
4.71667e-11
4.77167e-11
4.8268e-11
4.88207e-11
4.93752e-11
4.99318e-11
5.04906e-11
5.10521e-11
5.16164e-11
5.21837e-11
5.2754e-11
5.33272e-11
5.39031e-11
5.44815e-11
5.50619e-11
5.56441e-11
5.62275e-11
5.68118e-11
5.73965e-11
5.79816e-11
5.85666e-11
5.91515e-11
5.97361e-11
6.03205e-11
6.09047e-11
6.14888e-11
6.2073e-11
6.26572e-11
6.32418e-11
6.38268e-11
6.44124e-11
6.49986e-11
6.55857e-11
6.61736e-11
6.67625e-11
6.73523e-11
6.79431e-11
6.85349e-11
6.91277e-11
6.97215e-11
7.03163e-11
7.0912e-11
7.15086e-11
7.21061e-11
7.27044e-11
7.33036e-11
7.39036e-11
7.45044e-11
7.51059e-11
7.57082e-11
7.63112e-11
7.6915e-11
7.75194e-11
7.81246e-11
7.87304e-11
7.93369e-11
7.99441e-11
8.0552e-11
8.11605e-11
8.17697e-11
8.23795e-11
8.299e-11
8.36011e-11
8.42128e-11
8.48252e-11
8.54382e-11
8.60518e-11
8.6666e-11
8.72808e-11
8.78963e-11
8.85123e-11
8.91289e-11
8.97461e-11
9.0364e-11
9.09824e-11
9.16013e-11
9.22209e-11
9.2841e-11
9.34617e-11
9.4083e-11
9.47048e-11
9.53272e-11
9.59501e-11
9.65735e-11
9.71975e-11
9.7822e-11
9.84471e-11
9.90727e-11
9.96988e-11
1.00325e-10
1.00953e-10
1.0158e-10
1.02209e-10
1.02838e-10
1.03467e-10
1.04097e-10
1.04728e-10
1.05359e-10
1.05991e-10
1.06623e-10
1.07256e-10
1.07889e-10
1.08523e-10
1.09157e-10
1.09792e-10
1.10428e-10
1.11064e-10
1.117e-10
1.12338e-10
1.12976e-10
1.13614e-10
1.14253e-10
1.14893e-10
1.15533e-10
1.16173e-10
1.16814e-10
1.17454e-10
1.18095e-10
1.18736e-10
1.19376e-10
1.20016e-10
1.20655e-10
1.21294e-10
1.21932e-10
1.22569e-10
1.23206e-10
1.23843e-10
1.24479e-10
1.25115e-10
1.2575e-10
1.26386e-10
1.27022e-10
1.27659e-10
1.28297e-10
1.28935e-10
1.29576e-10
1.30218e-10
1.30862e-10
1.31509e-10
1.32158e-10
1.3281e-10
1.33465e-10
1.34123e-10
1.34784e-10
1.35448e-10
1.36115e-10
1.36784e-10
1.37456e-10
1.3813e-10
1.38805e-10
1.39482e-10
1.4016e-10
1.40838e-10
1.41517e-10
1.42196e-10
1.42874e-10
1.43553e-10
1.4423e-10
1.44908e-10
1.45584e-10
1.4626e-10
1.46936e-10
1.47611e-10
1.48285e-10
1.4896e-10
1.49634e-10
1.50308e-10
1.50982e-10
1.51656e-10
1.52331e-10
1.53006e-10
1.53682e-10
1.54358e-10
1.55035e-10
1.55712e-10
1.5639e-10
1.57069e-10
1.57749e-10
1.5843e-10
1.59111e-10
1.59793e-10
1.60476e-10
1.6116e-10
1.61845e-10
1.6253e-10
1.63216e-10
1.63903e-10
1.6459e-10
1.65278e-10
1.65967e-10
1.66656e-10
1.67346e-10
1.68037e-10
1.68728e-10
1.6942e-10
1.70113e-10
1.70806e-10
1.715e-10
1.72194e-10
1.72889e-10
1.73584e-10
1.7428e-10
1.74976e-10
1.75674e-10
1.76371e-10
1.77069e-10
1.77768e-10
1.78467e-10
1.79167e-10
1.79868e-10
1.80569e-10
1.8127e-10
1.81972e-10
1.82675e-10
1.83378e-10
1.84082e-10
1.84786e-10
1.85491e-10
1.86196e-10
1.86902e-10
1.87608e-10
1.88315e-10
1.89023e-10
1.89731e-10
1.90439e-10
1.91149e-10
1.91858e-10
1.92569e-10
1.93279e-10
1.93991e-10
1.94703e-10
1.95415e-10
1.96128e-10
1.96842e-10
1.97556e-10
1.9827e-10
1.98986e-10
1.99702e-10
2.00418e-10
2.01135e-10
2.01853e-10
2.02571e-10
2.0329e-10
2.0401e-10
2.0473e-10
2.05451e-10
2.06172e-10
2.06894e-10
2.07617e-10
2.0834e-10
2.09064e-10
2.09789e-10
2.10514e-10
2.1124e-10
2.11967e-10
2.12694e-10
2.13422e-10
2.1415e-10
2.14879e-10
2.15609e-10
2.16338e-10
2.17068e-10
2.17798e-10
2.18528e-10
2.19258e-10
2.19988e-10
2.20718e-10
2.21448e-10
2.22177e-10
2.22906e-10
2.23635e-10
2.24363e-10
2.2509e-10
2.25818e-10
2.26544e-10
2.27271e-10
2.27997e-10
2.28724e-10
2.2945e-10
2.30177e-10
2.30904e-10
2.31632e-10
2.32361e-10
2.33091e-10
2.33823e-10
2.34556e-10
2.35292e-10
2.36029e-10
2.3677e-10
2.37512e-10
2.38258e-10
2.39007e-10
2.39759e-10
2.40514e-10
2.41273e-10
2.42035e-10
2.42801e-10
2.43569e-10
2.44341e-10
2.45115e-10
2.45893e-10
2.46672e-10
2.47454e-10
2.48237e-10
2.49022e-10
2.49808e-10
2.50596e-10
2.51384e-10
2.52172e-10
2.52961e-10
2.53749e-10
2.54538e-10
2.55327e-10
2.56115e-10
2.56904e-10
2.57692e-10
2.58479e-10
2.59267e-10
2.60054e-10
2.60841e-10
2.61628e-10
2.62416e-10
2.63203e-10
2.63991e-10
2.64779e-10
2.65568e-10
2.66357e-10
2.67146e-10
2.67937e-10
2.68728e-10
2.6952e-10
2.70313e-10
2.71108e-10
2.71903e-10
2.72699e-10
2.73496e-10
2.74294e-10
2.75094e-10
2.75894e-10
2.76696e-10
2.77498e-10
2.78302e-10
2.79107e-10
2.79913e-10
2.80721e-10
2.81529e-10
2.82338e-10
2.83149e-10
2.8396e-10
2.84773e-10
2.85587e-10
2.86401e-10
2.87217e-10
2.88034e-10
2.88851e-10
2.8967e-10
2.9049e-10
2.91311e-10
2.92132e-10
2.92955e-10
2.93779e-10
2.94603e-10
2.95429e-10
2.96256e-10
2.97083e-10
2.97912e-10
2.98742e-10
2.99572e-10
3.00404e-10
3.01237e-10
3.0207e-10
3.02905e-10
3.03741e-10
3.04577e-10
3.05415e-10
3.06254e-10
3.07093e-10
3.07934e-10
3.08776e-10
3.09618e-10
3.10462e-10
3.11307e-10
3.12153e-10
3.13e-10
3.13848e-10
3.14697e-10
3.15547e-10
3.16398e-10
3.1725e-10
3.18104e-10
3.18958e-10
3.19814e-10
3.2067e-10
3.21528e-10
3.22387e-10
3.23247e-10
3.24108e-10
3.2497e-10
3.25833e-10
3.26698e-10
3.27564e-10
3.28431e-10
3.29299e-10
3.30168e-10
3.31039e-10
3.31911e-10
3.32784e-10
3.33658e-10
3.34533e-10
3.3541e-10
3.36288e-10
3.37167e-10
3.38048e-10
3.3893e-10
3.39813e-10
3.40697e-10
3.41583e-10
3.4247e-10
3.43357e-10
3.44247e-10
3.45137e-10
3.46028e-10
3.4692e-10
3.47814e-10
3.48708e-10
3.49603e-10
3.50498e-10
3.51395e-10
3.52292e-10
3.5319e-10
3.54088e-10
3.54986e-10
3.55886e-10
3.56785e-10
3.57685e-10
3.58586e-10
3.59486e-10
3.60388e-10
3.6129e-10
3.62192e-10
3.63095e-10
3.63999e-10
3.64903e-10
3.65809e-10
3.66716e-10
3.67624e-10
3.68533e-10
3.69444e-10
3.70358e-10
3.71273e-10
3.7219e-10
3.73111e-10
3.74034e-10
3.7496e-10
3.75889e-10
3.76822e-10
3.77759e-10
3.78699e-10
3.79644e-10
3.80592e-10
3.81545e-10
3.82503e-10
3.83465e-10
3.84431e-10
3.85402e-10
3.86378e-10
3.87357e-10
3.88341e-10
3.8933e-10
3.90322e-10
3.91318e-10
3.92317e-10
3.9332e-10
3.94326e-10
3.95334e-10
3.96346e-10
3.9736e-10
3.98376e-10
3.99394e-10
4.00414e-10
4.01435e-10
4.02458e-10
4.03483e-10
4.04509e-10
4.05536e-10
4.06564e-10
4.07593e-10
4.08624e-10
4.09656e-10
4.10689e-10
4.11724e-10
4.12759e-10
4.13796e-10
4.14835e-10
4.15875e-10
4.16917e-10
4.17961e-10
4.19006e-10
4.20054e-10
4.21103e-10
4.22155e-10
4.23209e-10
4.24265e-10
4.25324e-10
4.26385e-10
4.27449e-10
4.28516e-10
4.29585e-10
4.30657e-10
4.31731e-10
4.32809e-10
4.33889e-10
4.34972e-10
4.36058e-10
4.37148e-10
4.3824e-10
4.39335e-10
4.40433e-10
4.41535e-10
4.42639e-10
4.43747e-10
4.44857e-10
4.45971e-10
4.47088e-10
4.48208e-10
4.49331e-10
4.50458e-10
4.51587e-10
4.5272e-10
4.53856e-10
4.54996e-10
4.56138e-10
4.57284e-10
4.58434e-10
4.59586e-10
4.60742e-10
4.61902e-10
4.63065e-10
4.64231e-10
4.65401e-10
4.66574e-10
4.67751e-10
4.68931e-10
4.70115e-10
4.71303e-10
4.72494e-10
4.73689e-10
4.74887e-10
4.7609e-10
4.77296e-10
4.78506e-10
4.7972e-10
4.80938e-10
4.8216e-10
4.83385e-10
4.84615e-10
4.85849e-10
4.87087e-10
4.88329e-10
4.89575e-10
4.90825e-10
4.92079e-10
4.93338e-10
4.94601e-10
4.95869e-10
4.97141e-10
4.98417e-10
4.99698e-10
5.00983e-10
5.02273e-10
5.03567e-10
5.04866e-10
5.0617e-10
5.07478e-10
5.08791e-10
5.10109e-10
5.11431e-10
5.12758e-10
5.1409e-10
5.15426e-10
5.16768e-10
5.18113e-10
5.19464e-10
5.20819e-10
5.22178e-10
5.23542e-10
5.2491e-10
5.26283e-10
5.27659e-10
5.29039e-10
5.30422e-10
5.31809e-10
5.33198e-10
5.3459e-10
5.35984e-10
5.37379e-10
5.38775e-10
5.4017e-10
5.41564e-10
5.42956e-10
5.44345e-10
5.45729e-10
5.47106e-10
5.48475e-10
5.49833e-10
5.51178e-10
5.52508e-10
5.5382e-10
5.5511e-10
5.56376e-10
5.57612e-10
5.58817e-10
5.59985e-10
5.61114e-10
5.62199e-10
5.63237e-10
5.64223e-10
5.65154e-10
5.66029e-10
5.66844e-10
5.67599e-10
5.68292e-10
5.68923e-10
5.69491e-10
5.70001e-10
5.70453e-10
5.70849e-10
5.71193e-10
5.7149e-10
5.71741e-10
5.71951e-10
5.72127e-10
5.72271e-10
5.72389e-10
5.72487e-10
5.72568e-10
5.72642e-10
5.72719e-10
5.72813e-10
5.72955e-10
5.7319e-10
5.73593e-10
5.74307e-10
5.75581e-10
5.77854e-10
5.81887e-10
5.88959e-10
6.01106e-10
6.21253e-10
6.52786e-10
6.97884e-10
7.54571e-10
8.14996e-10
8.68636e-10
9.08675e-10
9.34662e-10
9.49965e-10
9.58455e-10
9.63014e-10
9.65426e-10
9.667e-10
9.6738e-10
9.67753e-10
9.67967e-10
9.68099e-10
9.6819e-10
9.68259e-10
9.68316e-10
9.68367e-10
9.68414e-10
9.68459e-10
9.68501e-10
9.68542e-10
9.68581e-10
9.68619e-10
9.68655e-10
9.68689e-10
9.68722e-10
9.68753e-10
9.68782e-10
9.6881e-10
9.68836e-10
9.68861e-10
9.68884e-10
9.68906e-10
9.68926e-10
9.68946e-10
9.68964e-10
9.68981e-10
9.68998e-10
9.69013e-10
9.69028e-10
9.69042e-10
9.69056e-10
9.69069e-10
9.69082e-10
9.69094e-10
9.69107e-10
9.69119e-10
9.69131e-10
9.69142e-10
9.69154e-10
9.69166e-10
9.69177e-10
9.69189e-10
9.69201e-10
9.69213e-10
9.69225e-10
9.69237e-10
9.69249e-10
9.69261e-10
9.69273e-10
9.69286e-10
9.69298e-10
9.6931e-10
9.69323e-10
9.69335e-10
9.69348e-10
9.6936e-10
9.69373e-10
9.69385e-10
9.69398e-10
9.6941e-10
9.69422e-10
9.69434e-10
9.69446e-10
9.69458e-10
9.6947e-10
9.69481e-10
9.69492e-10
9.69503e-10
9.69514e-10
9.69525e-10
9.69535e-10
9.69545e-10
9.69555e-10
9.69564e-10
9.69573e-10
9.69582e-10
9.69591e-10
9.69599e-10
9.69607e-10
9.69614e-10
9.69621e-10
9.69628e-10
9.69635e-10
9.69641e-10
9.69646e-10
9.69652e-10
9.69657e-10
9.69661e-10
9.69665e-10
9.69669e-10
9.69673e-10
9.69676e-10
9.69679e-10
9.69681e-10
9.69683e-10
9.69684e-10
9.69686e-10
9.69686e-10
9.69687e-10
9.69687e-10
9.69687e-10
9.69687e-10
9.69686e-10
9.69685e-10
9.69683e-10
9.69681e-10
9.69679e-10
9.69676e-10
9.69673e-10
9.6967e-10
9.69666e-10
9.69662e-10
9.69658e-10
9.69654e-10
9.69649e-10
9.69644e-10
9.69639e-10
9.69633e-10
9.69627e-10
9.69621e-10
9.69614e-10
9.69608e-10
9.69601e-10
9.69593e-10
9.69585e-10
9.69577e-10
9.69569e-10
9.6956e-10
9.69551e-10
9.69541e-10
9.69531e-10
9.6952e-10
9.69509e-10
9.69497e-10
9.69485e-10
9.69472e-10
9.69458e-10
9.69444e-10
9.69429e-10
9.69412e-10
9.69395e-10
9.69377e-10
9.69358e-10
9.69338e-10
9.69317e-10
9.69294e-10
9.6927e-10
9.69245e-10
9.69219e-10
9.69191e-10
9.69163e-10
9.69132e-10
9.69101e-10
9.69067e-10
9.69033e-10
9.68997e-10
9.6896e-10
9.68922e-10
9.68882e-10
9.68841e-10
9.68799e-10
9.68756e-10
9.68713e-10
9.68668e-10
9.68623e-10
9.68577e-10
9.68531e-10
9.68485e-10
9.68438e-10
9.68392e-10
9.68346e-10
9.68301e-10
9.68256e-10
9.68213e-10
9.6817e-10
9.68129e-10
9.68089e-10
9.68052e-10
9.68016e-10
9.67982e-10
9.67951e-10
9.67922e-10
9.67897e-10
9.67874e-10
9.67854e-10
9.67837e-10
9.67823e-10
9.67813e-10
9.67807e-10
9.67804e-10
9.67803e-10
9.67804e-10
9.67805e-10
9.67811e-10
9.6782e-10
9.67839e-10
9.67859e-10
9.67882e-10
9.67907e-10
9.67934e-10
9.67964e-10
9.67996e-10
9.68029e-10
9.68065e-10
9.68102e-10
9.6814e-10
9.68178e-10
9.68218e-10
9.68259e-10
9.68299e-10
9.6834e-10
9.68381e-10
9.68421e-10
9.68461e-10
9.685e-10
9.68539e-10
9.68576e-10
9.68613e-10
9.68648e-10
9.68683e-10
9.68715e-10
9.68748e-10
9.68778e-10
9.68807e-10
9.68835e-10
9.68862e-10
)
;

boundaryField
{
    inlet
    {
        type            calculated;
        value           uniform 0;
    }
    outlet
    {
        type            calculated;
        value           uniform 9.68886e-10;
    }
    emptyWalls
    {
        type            empty;
        value           nonuniform List<scalar> 0();
    }
}


// ************************************************************************* //
