/*--------------------------------*- C++ -*----------------------------------*\
  =========                 |
  \\      /  F ield         | OpenFOAM: The Open Source CFD Toolbox
   \\    /   O peration     | Website:  https://openfoam.org
    \\  /    A nd           | Version:  9
     \\/     M anipulation  |
\*---------------------------------------------------------------------------*/
FoamFile
{
    format      ascii;
    class       volScalarField;
    location    "18950";
    object      Sb;
}
// * * * * * * * * * * * * * * * * * * * * * * * * * * * * * * * * * * * * * //

dimensions      [0 0 0 0 0 0 0];

internalField   nonuniform List<scalar> 
1000
(
0.350287
0.350848
0.35166
0.352381
0.353225
0.353916
0.354798
0.355493
0.356377
0.357124
0.357976
0.358768
0.359581
0.360358
0.36112
0.361829
0.362501
0.363108
0.363661
0.364144
0.364568
0.36496
0.365325
0.366062
0.368126
0.376301
0.425785
0.597706
0.650183
0.662779
0.668012
0.670961
0.672944
0.674442
0.675654
0.676678
0.677559
0.678327
0.678996
0.679585
0.6801
0.680553
0.680948
0.681294
0.681594
0.681856
0.682082
0.682275
0.68244
0.682576
0.682688
0.682774
0.68284
0.682881
0.682905
0.682904
0.682885
0.682844
0.68278
0.682695
0.682587
0.682456
0.682301
0.682121
0.681914
0.681676
0.681404
0.681092
0.680729
0.680304
0.679796
0.679187
0.678455
0.677591
0.676606
0.675533
0.674406
0.673244
0.672061
0.670865
0.669662
0.668456
0.667251
0.666048
0.664849
0.663655
0.662468
0.661286
0.660112
0.658945
0.657785
0.656634
0.65549
0.654354
0.653227
0.652108
0.650997
0.649895
0.6488
0.647713
0.646633
0.64556
0.644493
0.643431
0.642374
0.641323
0.640277
0.639236
0.638202
0.637175
0.636154
0.63514
0.634134
0.633136
0.632145
0.631163
0.63019
0.629227
0.628272
0.627328
0.626393
0.625468
0.624552
0.623644
0.622744
0.62185
0.620963
0.620082
0.619205
0.618332
0.617463
0.616598
0.615736
0.614877
0.614022
0.61317
0.612321
0.611477
0.610636
0.6098
0.608968
0.60814
0.607317
0.606498
0.605685
0.604876
0.604071
0.603272
0.602477
0.601686
0.6009
0.600119
0.599342
0.598569
0.5978
0.597035
0.596275
0.595518
0.594765
0.594016
0.593271
0.592529
0.591791
0.591057
0.590327
0.589599
0.588876
0.588156
0.587439
0.586725
0.586015
0.585308
0.584605
0.583905
0.583207
0.582513
0.581823
0.581135
0.58045
0.579768
0.57909
0.578414
0.577741
0.577071
0.576404
0.57574
0.575079
0.57442
0.573764
0.573111
0.572461
0.571813
0.571168
0.570525
0.569885
0.569248
0.568613
0.567981
0.567351
0.566723
0.566099
0.565476
0.564856
0.564238
0.563623
0.56301
0.5624
0.561792
0.561186
0.560582
0.559981
0.559382
0.558785
0.55819
0.557598
0.557008
0.556419
0.555833
0.55525
0.554668
0.554088
0.553511
0.552935
0.552362
0.55179
0.55122
0.550652
0.550086
0.549521
0.548957
0.548395
0.547834
0.547275
0.546717
0.546159
0.545603
0.545049
0.544495
0.543943
0.543392
0.542843
0.542296
0.54175
0.541206
0.540664
0.540125
0.539588
0.539053
0.538522
0.537993
0.537466
0.536943
0.536423
0.535906
0.535391
0.534879
0.53437
0.533864
0.533359
0.532857
0.532357
0.531858
0.531361
0.530865
0.53037
0.529877
0.529384
0.528892
0.528401
0.52791
0.52742
0.526931
0.526443
0.525956
0.52547
0.524984
0.524499
0.524016
0.523533
0.523052
0.522572
0.522093
0.521615
0.521139
0.520664
0.52019
0.519717
0.519246
0.518776
0.518307
0.51784
0.517373
0.516908
0.516445
0.515982
0.515521
0.515061
0.514602
0.514144
0.513687
0.513232
0.512777
0.512324
0.511872
0.51142
0.51097
0.510521
0.510073
0.509626
0.50918
0.508734
0.50829
0.507847
0.507405
0.506964
0.506524
0.506084
0.505646
0.505208
0.504772
0.504336
0.503902
0.503468
0.503035
0.502603
0.502172
0.501742
0.501313
0.500884
0.500457
0.50003
0.499604
0.499179
0.498755
0.498331
0.497909
0.497487
0.497066
0.496646
0.496227
0.495808
0.49539
0.494973
0.494557
0.494142
0.493727
0.493313
0.4929
0.492488
0.492077
0.491666
0.491256
0.490846
0.490438
0.49003
0.489623
0.489217
0.488811
0.488406
0.488002
0.487598
0.487196
0.486793
0.486392
0.485991
0.485591
0.485192
0.484793
0.484395
0.483998
0.483601
0.483205
0.482809
0.482414
0.482019
0.481625
0.481231
0.480837
0.480444
0.480051
0.479659
0.479267
0.478875
0.478483
0.478092
0.477701
0.477311
0.476921
0.476532
0.476143
0.475754
0.475366
0.474979
0.474592
0.474207
0.473822
0.473438
0.473054
0.472672
0.472291
0.471911
0.471532
0.471154
0.470777
0.470402
0.470027
0.469654
0.469282
0.46891
0.46854
0.468171
0.467802
0.467434
0.467067
0.466701
0.466335
0.46597
0.465605
0.46524
0.464876
0.464512
0.464149
0.463785
0.463422
0.463059
0.462696
0.462333
0.46197
0.461608
0.461245
0.460883
0.460521
0.46016
0.459798
0.459437
0.459076
0.458716
0.458356
0.457996
0.457636
0.457277
0.456919
0.45656
0.456202
0.455845
0.455487
0.455131
0.454774
0.454418
0.454062
0.453707
0.453352
0.452998
0.452643
0.45229
0.451936
0.451583
0.45123
0.450878
0.450525
0.450174
0.449822
0.449471
0.44912
0.448769
0.448419
0.448069
0.447719
0.447369
0.44702
0.446671
0.446323
0.445974
0.445626
0.445278
0.44493
0.444583
0.444236
0.443889
0.443542
0.443195
0.442849
0.442503
0.442157
0.441811
0.441466
0.441121
0.440776
0.440431
0.440086
0.439742
0.439398
0.439054
0.43871
0.438366
0.438022
0.437679
0.437336
0.436993
0.43665
0.436307
0.435965
0.435623
0.43528
0.434938
0.434596
0.434255
0.433913
0.433571
0.43323
0.432889
0.432548
0.432207
0.431866
0.431525
0.431185
0.430844
0.430504
0.430164
0.429824
0.429484
0.429144
0.428804
0.428464
0.428125
0.427785
0.427446
0.427106
0.426767
0.426427
0.426088
0.425749
0.42541
0.425071
0.424732
0.424392
0.424053
0.423714
0.423375
0.423035
0.422696
0.422356
0.422017
0.421677
0.421337
0.420997
0.420657
0.420317
0.419977
0.419637
0.419297
0.418956
0.418616
0.418275
0.417934
0.417594
0.417253
0.416912
0.416571
0.416231
0.41589
0.41555
0.415209
0.414869
0.414529
0.414189
0.413849
0.413509
0.41317
0.412831
0.412492
0.412153
0.411815
0.411476
0.411138
0.4108
0.410463
0.410125
0.409788
0.40945
0.409113
0.408776
0.408438
0.408101
0.407764
0.407426
0.407089
0.406751
0.406413
0.406075
0.405737
0.405399
0.40506
0.404721
0.404381
0.404042
0.403702
0.403361
0.403021
0.40268
0.402338
0.401996
0.401654
0.401312
0.400969
0.400626
0.400283
0.399939
0.399595
0.399251
0.398906
0.398561
0.398216
0.39787
0.397524
0.397178
0.396832
0.396485
0.396138
0.39579
0.395442
0.395094
0.394745
0.394397
0.394047
0.393698
0.393348
0.392997
0.392647
0.392295
0.391944
0.391592
0.39124
0.390887
0.390534
0.39018
0.389826
0.389471
0.389116
0.38876
0.388404
0.388048
0.387691
0.387333
0.386975
0.386616
0.386257
0.385897
0.385537
0.385176
0.384815
0.384452
0.38409
0.383726
0.383362
0.382998
0.382632
0.382267
0.3819
0.381533
0.381165
0.380796
0.380427
0.380056
0.379686
0.379314
0.378942
0.378569
0.378195
0.37782
0.377445
0.377068
0.376691
0.376313
0.375935
0.375555
0.375175
0.374793
0.374411
0.374028
0.373644
0.37326
0.372874
0.372487
0.3721
0.371711
0.371322
0.370932
0.370541
0.370149
0.369756
0.369362
0.368967
0.368572
0.368175
0.367778
0.36738
0.366981
0.366582
0.366182
0.365781
0.36538
0.364978
0.364576
0.364174
0.363772
0.36337
0.362968
0.362567
0.362167
0.361767
0.36137
0.360974
0.36058
0.360189
0.359802
0.359419
0.359041
0.358669
0.358303
0.357945
0.357595
0.357255
0.356925
0.356607
0.356302
0.35601
0.355734
0.355473
0.355227
0.354999
0.354787
0.354593
0.354415
0.354255
0.354111
0.353982
0.353869
0.353769
0.353683
0.353608
0.353544
0.35349
0.353444
0.353405
0.353371
0.353341
0.353313
0.353283
0.353245
0.353191
0.353104
0.352956
0.352697
0.35224
0.351429
0.350001
0.347523
0.343337
0.336579
0.326439
0.312782
0.296878
0.281299
0.268534
0.259605
0.254069
0.250903
0.249179
0.248266
0.247789
0.247542
0.247415
0.24735
0.247317
0.2473
0.247291
0.247287
0.247285
0.247284
0.247284
0.247284
0.247285
0.247285
0.247285
0.247286
0.247286
0.247286
0.247287
0.247287
0.247287
0.247287
0.247287
0.247288
0.247288
0.247288
0.247288
0.247288
0.247288
0.247288
0.247288
0.247288
0.247288
0.247288
0.247288
0.247288
0.247287
0.247287
0.247287
0.247287
0.247287
0.247287
0.247287
0.247287
0.247286
0.247286
0.247286
0.247286
0.247286
0.247286
0.247286
0.247285
0.247285
0.247285
0.247285
0.247285
0.247285
0.247285
0.247285
0.247285
0.247284
0.247284
0.247284
0.247284
0.247284
0.247284
0.247284
0.247284
0.247284
0.247284
0.247284
0.247284
0.247284
0.247284
0.247284
0.247284
0.247284
0.247284
0.247284
0.247284
0.247284
0.247284
0.247284
0.247284
0.247284
0.247284
0.247284
0.247284
0.247284
0.247284
0.247284
0.247284
0.247284
0.247284
0.247284
0.247284
0.247284
0.247284
0.247284
0.247284
0.247285
0.247285
0.247285
0.247285
0.247285
0.247285
0.247285
0.247285
0.247285
0.247285
0.247285
0.247285
0.247285
0.247285
0.247285
0.247285
0.247285
0.247285
0.247285
0.247285
0.247285
0.247285
0.247285
0.247285
0.247285
0.247285
0.247285
0.247285
0.247285
0.247285
0.247285
0.247285
0.247285
0.247285
0.247285
0.247285
0.247285
0.247285
0.247285
0.247284
0.247284
0.247284
0.247284
0.247284
0.247284
0.247284
0.247283
0.247283
0.247283
0.247283
0.247282
0.247282
0.247282
0.247282
0.247281
0.247281
0.247281
0.24728
0.24728
0.247279
0.247279
0.247279
0.247278
0.247278
0.247277
0.247277
0.247276
0.247276
0.247276
0.247275
0.247275
0.247274
0.247274
0.247273
0.247273
0.247272
0.247272
0.247271
0.247271
0.24727
0.24727
0.247269
0.247269
0.247269
0.247268
0.247268
0.247268
0.247267
0.247267
0.247267
0.247267
0.247266
0.247266
0.247266
0.247266
0.247266
0.247266
0.247267
0.247267
0.247267
0.247267
0.247268
0.247268
0.247268
0.247269
0.247269
0.24727
0.24727
0.247271
0.247272
0.247272
0.247273
0.247273
0.247274
0.247274
0.247275
0.247275
0.247276
0.247276
0.247277
0.247277
0.247278
0.247278
0.247278
0.247279
0.247279
0.247279
0.24728
0.24728
0.24728
)
;

boundaryField
{
    inlet
    {
        type            fixedValue;
        value           uniform 0.35;
    }
    outlet
    {
        type            zeroGradient;
    }
    emptyWalls
    {
        type            empty;
    }
}


// ************************************************************************* //
