/*--------------------------------*- C++ -*----------------------------------*\
  =========                 |
  \\      /  F ield         | OpenFOAM: The Open Source CFD Toolbox
   \\    /   O peration     | Website:  https://openfoam.org
    \\  /    A nd           | Version:  9
     \\/     M anipulation  |
\*---------------------------------------------------------------------------*/
FoamFile
{
    format      ascii;
    class       volScalarField;
    location    "15300";
    object      Fb;
}
// * * * * * * * * * * * * * * * * * * * * * * * * * * * * * * * * * * * * * //

dimensions      [0 0 0 0 0 0 0];

internalField   nonuniform List<scalar> 
1000
(
0.805163
0.805273
0.805126
0.805344
0.805114
0.805388
0.805176
0.805397
0.805305
0.805432
0.805432
0.805503
0.805521
0.805567
0.80559
0.805624
0.805646
0.805687
0.805741
0.805967
0.807168
0.818035
0.831501
0.833708
0.834521
0.834976
0.835284
0.835526
0.835726
0.835884
0.836032
0.836148
0.836255
0.836342
0.836418
0.836483
0.836533
0.836581
0.836613
0.836645
0.836649
0.836677
0.836665
0.836675
0.83665
0.836635
0.83661
0.836576
0.836535
0.836484
0.836432
0.836367
0.836295
0.836209
0.836108
0.83598
0.835818
0.835609
0.835349
0.835031
0.83467
0.834284
0.833883
0.83347
0.833048
0.832616
0.832173
0.831712
0.831222
0.830694
0.830125
0.829515
0.828874
0.828213
0.827544
0.826874
0.826209
0.825553
0.824909
0.824283
0.823683
0.823118
0.822595
0.822121
0.8217
0.821332
0.821013
0.820733
0.820484
0.820253
0.820027
0.819795
0.819548
0.819276
0.818976
0.818644
0.818279
0.817882
0.817456
0.817005
0.816534
0.816046
0.815546
0.815038
0.814526
0.814013
0.813501
0.812991
0.812484
0.811982
0.811483
0.810988
0.810497
0.810009
0.809524
0.80904
0.808558
0.808077
0.807597
0.807116
0.806635
0.806154
0.805673
0.80519
0.804707
0.804222
0.803736
0.803249
0.802761
0.802271
0.80178
0.801287
0.800793
0.800298
0.799801
0.799303
0.798803
0.798302
0.7978
0.797296
0.796791
0.796284
0.795775
0.795266
0.794754
0.794242
0.793727
0.793212
0.792694
0.792176
0.791656
0.791134
0.790611
0.790086
0.789561
0.789033
0.788505
0.787975
0.787443
0.78691
0.786376
0.78584
0.785303
0.784764
0.784224
0.783683
0.78314
0.782597
0.782052
0.781507
0.78096
0.780414
0.779866
0.779318
0.77877
0.77822
0.777669
0.777118
0.776565
0.77601
0.775455
0.774898
0.774341
0.773783
0.773224
0.772664
0.772104
0.771543
0.77098
0.770415
0.769847
0.769274
0.768696
0.768111
0.767519
0.766918
0.766307
0.765687
0.765057
0.764416
0.763766
0.763106
0.762439
0.761765
0.761087
0.760404
0.759721
0.759039
0.758361
0.757688
0.757025
0.756373
0.755736
0.755114
0.75451
0.753926
0.753361
0.752816
0.752291
0.751784
0.751293
0.750817
0.750351
0.749895
0.749443
0.748994
0.748543
0.74809
0.74763
0.747162
0.746685
0.746197
0.745699
0.745189
0.744668
0.744137
0.743595
0.743045
0.742487
0.741921
0.74135
0.740773
0.740193
0.73961
0.739025
0.738438
0.737851
0.737262
0.736675
0.736087
0.735501
0.734914
0.734329
0.733743
0.73316
0.732575
0.731993
0.73141
0.730828
0.730245
0.729663
0.72908
0.728498
0.727915
0.727331
0.726747
0.726163
0.725577
0.724991
0.724404
0.723817
0.723228
0.722638
0.722048
0.721456
0.720863
0.72027
0.719675
0.719079
0.718482
0.717883
0.717284
0.716683
0.716081
0.715478
0.714874
0.714269
0.713662
0.713054
0.712445
0.711834
0.711223
0.71061
0.709995
0.70938
0.708763
0.708145
0.707526
0.706905
0.706283
0.70566
0.705036
0.70441
0.703783
0.703155
0.702525
0.701894
0.701262
0.700628
0.699994
0.699358
0.69872
0.698082
0.697443
0.696802
0.69616
0.695517
0.694873
0.694228
0.693582
0.692935
0.692286
0.691637
0.690986
0.690335
0.689682
0.689028
0.688373
0.687717
0.68706
0.686402
0.685742
0.685081
0.684419
0.683756
0.68309
0.682423
0.681755
0.681083
0.68041
0.679733
0.679054
0.678371
0.677684
0.676993
0.676297
0.675598
0.674893
0.674183
0.673468
0.672748
0.672023
0.671294
0.670559
0.669821
0.669078
0.668332
0.667584
0.666833
0.666082
0.66533
0.664578
0.663828
0.66308
0.662336
0.661595
0.66086
0.660131
0.659409
0.658694
0.657986
0.657287
0.656596
0.655914
0.655239
0.654573
0.653913
0.653261
0.652614
0.651971
0.651333
0.650697
0.650063
0.64943
0.648795
0.64816
0.647521
0.64688
0.646234
0.645584
0.644929
0.644268
0.643602
0.64293
0.642252
0.641569
0.640881
0.640187
0.639489
0.638786
0.638079
0.637368
0.636653
0.635935
0.635215
0.634491
0.633766
0.633038
0.632309
0.631578
0.630846
0.630112
0.629377
0.628641
0.627904
0.627166
0.626426
0.625686
0.624945
0.624203
0.62346
0.622716
0.62197
0.621224
0.620476
0.619727
0.618976
0.618224
0.617471
0.616716
0.61596
0.615202
0.614442
0.613681
0.612918
0.612153
0.611387
0.610618
0.609848
0.609076
0.608302
0.607526
0.606748
0.605968
0.605186
0.604401
0.603615
0.602827
0.602036
0.601244
0.600449
0.599652
0.598853
0.598051
0.597248
0.596442
0.595634
0.594823
0.59401
0.593195
0.592378
0.591558
0.590736
0.589911
0.589084
0.588255
0.587423
0.586588
0.585752
0.584912
0.584071
0.583226
0.58238
0.581529
0.580678
0.579822
0.578967
0.578105
0.577245
0.576378
0.575513
0.57464
0.57377
0.572892
0.572016
0.571133
0.570251
0.569364
0.568475
0.567583
0.566688
0.565791
0.56489
0.563988
0.563081
0.562172
0.56126
0.560345
0.559427
0.558505
0.557581
0.556653
0.555722
0.554787
0.553849
0.552908
0.551962
0.551013
0.550059
0.549102
0.54814
0.547174
0.546203
0.545227
0.544247
0.543262
0.542271
0.541276
0.540275
0.539269
0.538257
0.53724
0.536218
0.53519
0.534157
0.533118
0.532074
0.531025
0.529971
0.528912
0.527849
0.526781
0.525709
0.524633
0.523554
0.522471
0.521386
0.520297
0.519206
0.518113
0.517019
0.515922
0.514824
0.513726
0.512626
0.511525
0.510424
0.509322
0.50822
0.507116
0.506013
0.504908
0.503802
0.502695
0.501586
0.500476
0.499364
0.498249
0.497131
0.496011
0.494887
0.493759
0.492628
0.491493
0.490354
0.48921
0.488063
0.486912
0.485758
0.484602
0.483443
0.482284
0.481125
0.479968
0.478814
0.477666
0.476527
0.475397
0.474282
0.473182
0.472103
0.471049
0.470024
0.469032
0.468076
0.467162
0.466292
0.465471
0.464702
0.463989
0.463331
0.462731
0.462187
0.4617
0.461268
0.460889
0.46056
0.460276
0.460032
0.459823
0.45964
0.459476
0.459314
0.459133
0.458893
0.45853
0.457933
0.456903
0.455095
0.451907
0.446334
0.43678
0.420985
0.396441
0.361893
0.319781
0.277026
0.241325
0.216242
0.200733
0.1919
0.187105
0.184569
0.183248
0.182565
0.182214
0.182034
0.181943
0.181896
0.181873
0.181862
0.181857
0.181855
0.181855
0.181856
0.181857
0.181858
0.181859
0.181861
0.181862
0.181863
0.181864
0.181865
0.181866
0.181867
0.181868
0.181869
0.18187
0.18187
0.181871
0.181872
0.181872
0.181872
0.181873
0.181873
0.181873
0.181873
0.181873
0.181873
0.181872
0.181872
0.181872
0.181871
0.181871
0.18187
0.181869
0.181868
0.181867
0.181866
0.181865
0.181864
0.181863
0.181862
0.18186
0.181859
0.181857
0.181856
0.181854
0.181853
0.181851
0.181849
0.181847
0.181845
0.181843
0.181842
0.18184
0.181837
0.181835
0.181833
0.181831
0.181829
0.181827
0.181824
0.181822
0.181819
0.181816
0.181814
0.181811
0.181808
0.181805
0.181801
0.181798
0.181794
0.18179
0.181786
0.181782
0.181778
0.181773
0.181768
0.181762
0.181757
0.181751
0.181744
0.181738
0.181731
0.181724
0.181716
0.181708
0.181699
0.181691
0.181682
0.181672
0.181663
0.181653
0.181643
0.181632
0.181622
0.181611
0.181601
0.18159
0.181579
0.181568
0.181558
0.181547
0.181537
0.181527
0.181518
0.181508
0.181499
0.181491
0.181484
0.181477
0.18147
0.181465
0.18146
0.181456
0.181453
0.181451
0.18145
0.181449
0.181449
0.18145
0.18145
0.181454
0.181458
0.181462
0.181468
0.181475
0.181482
0.181489
0.181498
0.181506
0.181515
0.181525
0.181535
0.181545
0.181555
0.181565
0.181575
0.181585
0.181595
0.181605
0.181615
0.181624
0.181633
0.181642
0.18165
0.181658
0.181665
0.181673
0.181679
0.181686
0.181692
0.181697
0.181702
0.181707
0.181712
0.181716
0.18172
0.181723
0.181727
0.18173
0.181733
0.181736
0.181738
0.18174
0.181743
0.181745
0.181747
0.181749
0.181751
0.181753
0.181755
0.181756
0.181758
0.18176
0.181762
0.181763
0.181765
0.181767
0.181769
0.181771
0.181772
0.181774
0.181776
0.181778
0.18178
0.181782
0.181784
0.181785
0.181787
0.181789
0.181791
0.181793
0.181795
0.181796
0.181798
0.1818
0.181802
0.181804
0.181806
0.181808
0.18181
0.181812
0.181814
0.181816
0.181818
0.18182
0.181822
0.181824
0.181826
0.181828
0.18183
0.181832
0.181833
0.181835
0.181837
0.181839
0.18184
0.181842
0.181843
0.181845
0.181846
0.181847
0.181848
0.181849
0.18185
0.181851
0.181852
0.181852
0.181853
0.181853
0.181854
0.181854
0.181854
0.181854
0.181855
0.181855
0.181855
0.181854
0.181854
0.181854
0.181854
0.181854
0.181853
0.181853
0.181852
0.181852
0.181851
0.18185
0.18185
0.181849
0.181848
0.181847
0.181846
0.181845
0.181844
0.181843
0.181841
0.18184
0.181839
0.181837
0.181836
0.181834
0.181833
0.181831
0.181829
0.181827
0.181825
0.181823
0.181821
0.181819
0.181816
0.181814
0.181811
0.181808
0.181805
0.181801
0.181798
0.181794
0.18179
0.181786
0.181782
0.181777
0.181772
0.181767
0.181762
0.181756
0.18175
0.181743
0.181737
0.18173
0.181723
0.181715
0.181708
0.1817
0.181691
0.181683
0.181674
0.181665
0.181656
0.181647
0.181638
0.181628
0.181619
0.181609
0.1816
0.18159
0.181581
0.181571
0.181562
0.181553
0.181545
0.181536
0.181528
0.181521
0.181514
0.181507
0.181501
0.181495
0.181491
0.181486
0.181483
0.18148
0.181477
0.181476
0.181475
0.181475
0.181475
0.181475
0.181477
0.181478
0.181483
0.181486
0.181492
0.181496
0.181504
0.181509
0.181517
0.181523
0.181532
0.181538
0.181548
0.181555
0.181565
0.181572
0.181582
0.181589
0.181599
0.181607
0.181616
0.181623
0.181632
0.181639
0.181648
0.181654
0.181662
0.181667
0.181675
0.18168
0.181687
0.181691
0.181697
0.181701
0.181707
0.181711
0.181715
0.181719
0.181723
0.181726
)
;

boundaryField
{
    inlet
    {
        type            calculated;
        value           uniform 0.805169;
    }
    outlet
    {
        type            calculated;
        value           uniform 0.181728;
    }
    emptyWalls
    {
        type            empty;
    }
}


// ************************************************************************* //
