/*--------------------------------*- C++ -*----------------------------------*\
  =========                 |
  \\      /  F ield         | OpenFOAM: The Open Source CFD Toolbox
   \\    /   O peration     | Website:  https://openfoam.org
    \\  /    A nd           | Version:  9
     \\/     M anipulation  |
\*---------------------------------------------------------------------------*/
FoamFile
{
    format      ascii;
    class       volScalarField;
    location    "15300";
    object      Sb;
}
// * * * * * * * * * * * * * * * * * * * * * * * * * * * * * * * * * * * * * //

dimensions      [0 0 0 0 0 0 0];

internalField   nonuniform List<scalar> 
1000
(
0.350334
0.351149
0.352054
0.353143
0.353983
0.355104
0.355963
0.357063
0.357985
0.359013
0.359942
0.360866
0.3617
0.362476
0.363157
0.363762
0.364295
0.364863
0.36588
0.369158
0.38245
0.472846
0.625003
0.656708
0.665872
0.670209
0.672895
0.674815
0.676295
0.677486
0.678468
0.679288
0.679976
0.680557
0.681045
0.681457
0.6818
0.682087
0.682321
0.682513
0.682661
0.682776
0.682853
0.682901
0.682914
0.682898
0.682848
0.682764
0.682646
0.682492
0.682301
0.682069
0.681791
0.681458
0.681057
0.680566
0.679957
0.679196
0.678253
0.677125
0.675847
0.674481
0.673062
0.67161
0.670141
0.668662
0.667181
0.6657
0.664223
0.662749
0.661281
0.65982
0.658367
0.656924
0.655492
0.654072
0.652664
0.65127
0.649889
0.648522
0.647169
0.645831
0.644508
0.643202
0.641912
0.640638
0.639379
0.638134
0.636903
0.635685
0.634477
0.633279
0.63209
0.630909
0.629735
0.628568
0.627408
0.626254
0.625108
0.623968
0.622836
0.621711
0.620593
0.619484
0.618383
0.61729
0.616205
0.615129
0.614061
0.613001
0.611949
0.610905
0.609868
0.60884
0.607819
0.606805
0.605798
0.604799
0.603806
0.60282
0.601841
0.600868
0.599902
0.598942
0.597988
0.59704
0.596098
0.595162
0.594232
0.593308
0.59239
0.591477
0.590569
0.589667
0.58877
0.587879
0.586993
0.586112
0.585236
0.584365
0.583499
0.582638
0.581782
0.58093
0.580083
0.579241
0.578403
0.57757
0.576742
0.575917
0.575098
0.574282
0.573471
0.572664
0.571861
0.571062
0.570267
0.569476
0.568689
0.567906
0.567127
0.566352
0.56558
0.564812
0.564048
0.563287
0.56253
0.561777
0.561027
0.560281
0.559538
0.558799
0.558063
0.55733
0.556601
0.555875
0.555152
0.554433
0.553717
0.553003
0.552293
0.551586
0.550882
0.550181
0.549483
0.548788
0.548096
0.547406
0.54672
0.546036
0.545355
0.544676
0.544
0.543326
0.542654
0.541984
0.541317
0.540651
0.539987
0.539325
0.538665
0.538007
0.53735
0.536696
0.536044
0.535394
0.534747
0.534102
0.533459
0.53282
0.532184
0.53155
0.530921
0.530294
0.529671
0.529052
0.528437
0.527825
0.527217
0.526612
0.526011
0.525412
0.524817
0.524224
0.523634
0.523046
0.52246
0.521875
0.521292
0.520711
0.52013
0.519551
0.518973
0.518396
0.51782
0.517246
0.516672
0.516099
0.515528
0.514958
0.51439
0.513822
0.513257
0.512692
0.51213
0.511569
0.511009
0.510451
0.509895
0.509341
0.508788
0.508237
0.507688
0.50714
0.506594
0.506049
0.505506
0.504965
0.504425
0.503886
0.503349
0.502814
0.50228
0.501748
0.501217
0.500687
0.500159
0.499632
0.499106
0.498582
0.498059
0.497537
0.497017
0.496498
0.49598
0.495463
0.494948
0.494434
0.493921
0.493409
0.492898
0.492389
0.491881
0.491374
0.490868
0.490363
0.489859
0.489357
0.488855
0.488355
0.487856
0.487358
0.48686
0.486364
0.485869
0.485375
0.484882
0.48439
0.483899
0.483409
0.48292
0.482432
0.481945
0.481459
0.480974
0.480489
0.480006
0.479524
0.479042
0.478562
0.478082
0.477603
0.477125
0.476648
0.476172
0.475697
0.475222
0.474749
0.474276
0.473804
0.473333
0.472863
0.472394
0.471925
0.471458
0.470991
0.470524
0.470059
0.469595
0.469131
0.468668
0.468205
0.467744
0.467283
0.466823
0.466363
0.465904
0.465446
0.464988
0.464531
0.464075
0.463619
0.463164
0.462709
0.462255
0.461801
0.461347
0.460894
0.460442
0.459989
0.459537
0.459086
0.458634
0.458184
0.457733
0.457283
0.456833
0.456384
0.455936
0.455488
0.45504
0.454594
0.454148
0.453702
0.453258
0.452814
0.452372
0.45193
0.451489
0.45105
0.450611
0.450174
0.449738
0.449303
0.448868
0.448435
0.448003
0.447572
0.447142
0.446712
0.446284
0.445856
0.445428
0.445001
0.444575
0.444149
0.443723
0.443297
0.442872
0.442447
0.442021
0.441596
0.441171
0.440747
0.440322
0.439897
0.439472
0.439048
0.438623
0.438198
0.437774
0.43735
0.436926
0.436502
0.436078
0.435655
0.435231
0.434808
0.434385
0.433963
0.43354
0.433118
0.432696
0.432275
0.431853
0.431432
0.431011
0.43059
0.43017
0.429749
0.429329
0.428909
0.42849
0.42807
0.427651
0.427232
0.426813
0.426394
0.425975
0.425556
0.425138
0.424719
0.424301
0.423883
0.423464
0.423046
0.422628
0.42221
0.421792
0.421374
0.420956
0.420538
0.420121
0.419703
0.419285
0.418867
0.418449
0.418031
0.417613
0.417195
0.416777
0.416359
0.415941
0.415523
0.415104
0.414686
0.414267
0.413849
0.41343
0.413011
0.412592
0.412173
0.411754
0.411334
0.410915
0.410495
0.410075
0.409655
0.409235
0.408814
0.408393
0.407972
0.407551
0.40713
0.406708
0.406286
0.405864
0.405441
0.405018
0.404595
0.404172
0.403748
0.403324
0.4029
0.402475
0.40205
0.401625
0.401199
0.400773
0.400347
0.39992
0.399492
0.399065
0.398637
0.398208
0.397779
0.397349
0.396919
0.396489
0.396058
0.395626
0.395194
0.394761
0.394328
0.393894
0.39346
0.393025
0.392589
0.392153
0.391716
0.391278
0.39084
0.390401
0.389961
0.38952
0.389079
0.388636
0.388193
0.387749
0.387304
0.386858
0.386412
0.385964
0.385515
0.385066
0.384616
0.384164
0.383712
0.383258
0.382804
0.382349
0.381892
0.381435
0.380977
0.380518
0.380057
0.379596
0.379134
0.37867
0.378206
0.377741
0.377275
0.376808
0.37634
0.375871
0.375401
0.37493
0.374458
0.373985
0.373511
0.373035
0.372559
0.372082
0.371604
0.371125
0.370644
0.370163
0.36968
0.369197
0.368712
0.368226
0.367739
0.367252
0.366763
0.366274
0.365784
0.365294
0.364803
0.364313
0.363822
0.363333
0.362844
0.362357
0.361872
0.36139
0.360912
0.360439
0.359971
0.35951
0.359057
0.358613
0.358181
0.357761
0.357356
0.356966
0.356593
0.35624
0.355907
0.355595
0.355305
0.355039
0.354796
0.354576
0.354379
0.354204
0.354051
0.353917
0.353802
0.353703
0.353617
0.353542
0.353475
0.353408
0.353334
0.353236
0.353089
0.352849
0.352435
0.351713
0.350444
0.348237
0.344486
0.338358
0.328991
0.316035
0.30042
0.284521
0.270994
0.261232
0.255042
0.251452
0.24948
0.248431
0.247882
0.247597
0.24745
0.247374
0.247336
0.247316
0.247305
0.2473
0.247298
0.247296
0.247296
0.247295
0.247295
0.247295
0.247295
0.247295
0.247295
0.247295
0.247296
0.247296
0.247296
0.247296
0.247296
0.247296
0.247296
0.247296
0.247296
0.247296
0.247296
0.247296
0.247296
0.247296
0.247296
0.247296
0.247296
0.247296
0.247296
0.247295
0.247295
0.247295
0.247295
0.247295
0.247295
0.247294
0.247294
0.247294
0.247294
0.247293
0.247293
0.247293
0.247293
0.247292
0.247292
0.247292
0.247291
0.247291
0.247291
0.24729
0.24729
0.24729
0.247289
0.247289
0.247289
0.247288
0.247288
0.247288
0.247287
0.247287
0.247287
0.247287
0.247286
0.247286
0.247286
0.247285
0.247285
0.247285
0.247284
0.247284
0.247284
0.247283
0.247283
0.247283
0.247282
0.247282
0.247281
0.247281
0.247281
0.24728
0.24728
0.247279
0.247279
0.247279
0.247278
0.247278
0.247277
0.247277
0.247276
0.247276
0.247275
0.247275
0.247274
0.247273
0.247273
0.247272
0.247272
0.247271
0.247271
0.24727
0.247269
0.247269
0.247268
0.247268
0.247267
0.247267
0.247266
0.247266
0.247265
0.247265
0.247265
0.247265
0.247264
0.247264
0.247264
0.247264
0.247264
0.247264
0.247264
0.247264
0.247264
0.247264
0.247264
0.247265
0.247265
0.247265
0.247266
0.247266
0.247267
0.247267
0.247268
0.247268
0.247269
0.247269
0.24727
0.24727
0.247271
0.247272
0.247272
0.247273
0.247273
0.247274
0.247274
0.247275
0.247275
0.247276
0.247276
0.247277
0.247277
0.247277
0.247278
0.247278
0.247278
0.247279
0.247279
0.247279
0.247279
0.24728
0.24728
0.24728
0.24728
0.24728
0.24728
0.247281
0.247281
0.247281
0.247281
0.247281
0.247281
0.247281
0.247281
0.247281
0.247282
0.247282
0.247282
0.247282
0.247282
0.247282
0.247282
0.247282
0.247282
0.247282
0.247282
0.247282
0.247283
0.247283
0.247283
0.247283
0.247283
0.247283
0.247283
0.247283
0.247283
0.247283
0.247283
0.247283
0.247283
0.247283
0.247283
0.247283
0.247283
0.247284
0.247284
0.247284
0.247284
0.247284
0.247284
0.247285
0.247285
0.247285
0.247285
0.247286
0.247286
0.247286
0.247286
0.247287
0.247287
0.247287
0.247287
0.247287
0.247288
0.247288
0.247288
0.247288
0.247288
0.247288
0.247288
0.247288
0.247288
0.247288
0.247288
0.247288
0.247288
0.247288
0.247288
0.247288
0.247288
0.247288
0.247288
0.247288
0.247288
0.247288
0.247288
0.247288
0.247288
0.247288
0.247288
0.247288
0.247288
0.247287
0.247287
0.247287
0.247287
0.247287
0.247287
0.247287
0.247287
0.247287
0.247287
0.247287
0.247287
0.247286
0.247286
0.247286
0.247286
0.247286
0.247286
0.247286
0.247286
0.247285
0.247285
0.247285
0.247285
0.247285
0.247285
0.247284
0.247284
0.247284
0.247284
0.247284
0.247283
0.247283
0.247283
0.247283
0.247282
0.247282
0.247282
0.247281
0.247281
0.247281
0.24728
0.24728
0.247279
0.247279
0.247278
0.247278
0.247277
0.247277
0.247276
0.247276
0.247275
0.247275
0.247274
0.247274
0.247273
0.247273
0.247272
0.247272
0.247271
0.247271
0.24727
0.24727
0.24727
0.247269
0.247269
0.247268
0.247268
0.247268
0.247267
0.247267
0.247267
0.247267
0.247266
0.247266
0.247266
0.247266
0.247266
0.247266
0.247266
0.247266
0.247266
0.247267
0.247267
0.247267
0.247267
0.247268
0.247268
0.247269
0.247269
0.247269
0.24727
0.24727
0.247271
0.247271
0.247272
0.247272
0.247273
0.247273
0.247273
0.247274
0.247274
0.247275
0.247275
0.247276
0.247276
0.247276
0.247277
0.247277
0.247277
0.247278
0.247278
0.247278
0.247279
0.247279
0.247279
0.247279
0.24728
0.24728
0.24728
)
;

boundaryField
{
    inlet
    {
        type            fixedValue;
        value           uniform 0.35;
    }
    outlet
    {
        type            zeroGradient;
    }
    emptyWalls
    {
        type            empty;
    }
}


// ************************************************************************* //
