/*--------------------------------*- C++ -*----------------------------------*\
  =========                 |
  \\      /  F ield         | OpenFOAM: The Open Source CFD Toolbox
   \\    /   O peration     | Website:  https://openfoam.org
    \\  /    A nd           | Version:  9
     \\/     M anipulation  |
\*---------------------------------------------------------------------------*/
FoamFile
{
    format      ascii;
    class       volVectorField;
    location    "15300";
    object      Uc;
}
// * * * * * * * * * * * * * * * * * * * * * * * * * * * * * * * * * * * * * //

dimensions      [0 0 0 0 0 0 0];

internalField   nonuniform List<vector> 
1000
(
(1.19062e-11 0 0)
(6.393e-11 0 0)
(1.77583e-10 0 0)
(3.55456e-10 0 0)
(5.93943e-10 0 0)
(8.91294e-10 0 0)
(1.24551e-09 0 0)
(1.65292e-09 0 0)
(2.1076e-09 0 0)
(2.60044e-09 0 0)
(3.11904e-09 0 0)
(3.6483e-09 0 0)
(4.17151e-09 0 0)
(4.6726e-09 0 0)
(5.13874e-09 0 0)
(5.56484e-09 0 0)
(5.96897e-09 0 0)
(6.46932e-09 0 0)
(7.64354e-09 0 0)
(1.16898e-08 0 0)
(2.88611e-08 0 0)
(1.05289e-07 0 0)
(1.85345e-07 0 0)
(2.08089e-07 0 0)
(2.15607e-07 0 0)
(2.19561e-07 0 0)
(2.22309e-07 0 0)
(2.24519e-07 0 0)
(2.26439e-07 0 0)
(2.2818e-07 0 0)
(2.29797e-07 0 0)
(2.31323e-07 0 0)
(2.32776e-07 0 0)
(2.34168e-07 0 0)
(2.3551e-07 0 0)
(2.36808e-07 0 0)
(2.3807e-07 0 0)
(2.39304e-07 0 0)
(2.40517e-07 0 0)
(2.41716e-07 0 0)
(2.42907e-07 0 0)
(2.44098e-07 0 0)
(2.45293e-07 0 0)
(2.46501e-07 0 0)
(2.47728e-07 0 0)
(2.48999e-07 0 0)
(2.50326e-07 0 0)
(2.51698e-07 0 0)
(2.53116e-07 0 0)
(2.54588e-07 0 0)
(2.56126e-07 0 0)
(2.57747e-07 0 0)
(2.59476e-07 0 0)
(2.61349e-07 0 0)
(2.63422e-07 0 0)
(2.6577e-07 0 0)
(2.68491e-07 0 0)
(2.71688e-07 0 0)
(2.75445e-07 0 0)
(2.79782e-07 0 0)
(2.84635e-07 0 0)
(2.8989e-07 0 0)
(2.95437e-07 0 0)
(3.01197e-07 0 0)
(3.07116e-07 0 0)
(3.13159e-07 0 0)
(3.19298e-07 0 0)
(3.25513e-07 0 0)
(3.31788e-07 0 0)
(3.38109e-07 0 0)
(3.44466e-07 0 0)
(3.50856e-07 0 0)
(3.57274e-07 0 0)
(3.6372e-07 0 0)
(3.70194e-07 0 0)
(3.76697e-07 0 0)
(3.83228e-07 0 0)
(3.89787e-07 0 0)
(3.96375e-07 0 0)
(4.02993e-07 0 0)
(4.09643e-07 0 0)
(4.16327e-07 0 0)
(4.23049e-07 0 0)
(4.29811e-07 0 0)
(4.36615e-07 0 0)
(4.43461e-07 0 0)
(4.50348e-07 0 0)
(4.57273e-07 0 0)
(4.64233e-07 0 0)
(4.71221e-07 0 0)
(4.78234e-07 0 0)
(4.85265e-07 0 0)
(4.9231e-07 0 0)
(4.99365e-07 0 0)
(5.06427e-07 0 0)
(5.13493e-07 0 0)
(5.20561e-07 0 0)
(5.27633e-07 0 0)
(5.34707e-07 0 0)
(5.41786e-07 0 0)
(5.48869e-07 0 0)
(5.5596e-07 0 0)
(5.6306e-07 0 0)
(5.70171e-07 0 0)
(5.77293e-07 0 0)
(5.84429e-07 0 0)
(5.91579e-07 0 0)
(5.98743e-07 0 0)
(6.05924e-07 0 0)
(6.1312e-07 0 0)
(6.20332e-07 0 0)
(6.2756e-07 0 0)
(6.34803e-07 0 0)
(6.42061e-07 0 0)
(6.49334e-07 0 0)
(6.56622e-07 0 0)
(6.63923e-07 0 0)
(6.71238e-07 0 0)
(6.78566e-07 0 0)
(6.85907e-07 0 0)
(6.93261e-07 0 0)
(7.00627e-07 0 0)
(7.08005e-07 0 0)
(7.15395e-07 0 0)
(7.22797e-07 0 0)
(7.3021e-07 0 0)
(7.37635e-07 0 0)
(7.4507e-07 0 0)
(7.52517e-07 0 0)
(7.59975e-07 0 0)
(7.67443e-07 0 0)
(7.74922e-07 0 0)
(7.82412e-07 0 0)
(7.89912e-07 0 0)
(7.97423e-07 0 0)
(8.04944e-07 0 0)
(8.12475e-07 0 0)
(8.20016e-07 0 0)
(8.27568e-07 0 0)
(8.35129e-07 0 0)
(8.427e-07 0 0)
(8.50281e-07 0 0)
(8.57872e-07 0 0)
(8.65472e-07 0 0)
(8.73082e-07 0 0)
(8.80702e-07 0 0)
(8.8833e-07 0 0)
(8.95969e-07 0 0)
(9.03616e-07 0 0)
(9.11273e-07 0 0)
(9.18939e-07 0 0)
(9.26614e-07 0 0)
(9.34298e-07 0 0)
(9.41991e-07 0 0)
(9.49693e-07 0 0)
(9.57404e-07 0 0)
(9.65124e-07 0 0)
(9.72853e-07 0 0)
(9.8059e-07 0 0)
(9.88336e-07 0 0)
(9.96091e-07 0 0)
(1.00385e-06 0 0)
(1.01163e-06 0 0)
(1.01941e-06 0 0)
(1.0272e-06 0 0)
(1.03499e-06 0 0)
(1.0428e-06 0 0)
(1.05061e-06 0 0)
(1.05844e-06 0 0)
(1.06627e-06 0 0)
(1.07411e-06 0 0)
(1.08196e-06 0 0)
(1.08982e-06 0 0)
(1.09769e-06 0 0)
(1.10557e-06 0 0)
(1.11345e-06 0 0)
(1.12135e-06 0 0)
(1.12925e-06 0 0)
(1.13716e-06 0 0)
(1.14508e-06 0 0)
(1.15301e-06 0 0)
(1.16094e-06 0 0)
(1.16889e-06 0 0)
(1.17684e-06 0 0)
(1.1848e-06 0 0)
(1.19277e-06 0 0)
(1.20075e-06 0 0)
(1.20874e-06 0 0)
(1.21673e-06 0 0)
(1.22473e-06 0 0)
(1.23274e-06 0 0)
(1.24075e-06 0 0)
(1.24876e-06 0 0)
(1.25678e-06 0 0)
(1.26479e-06 0 0)
(1.2728e-06 0 0)
(1.28081e-06 0 0)
(1.28881e-06 0 0)
(1.29681e-06 0 0)
(1.30481e-06 0 0)
(1.3128e-06 0 0)
(1.32078e-06 0 0)
(1.32877e-06 0 0)
(1.33675e-06 0 0)
(1.34473e-06 0 0)
(1.35271e-06 0 0)
(1.3607e-06 0 0)
(1.3687e-06 0 0)
(1.37672e-06 0 0)
(1.38474e-06 0 0)
(1.39279e-06 0 0)
(1.40087e-06 0 0)
(1.40897e-06 0 0)
(1.4171e-06 0 0)
(1.42527e-06 0 0)
(1.43347e-06 0 0)
(1.44172e-06 0 0)
(1.45e-06 0 0)
(1.45832e-06 0 0)
(1.46668e-06 0 0)
(1.47508e-06 0 0)
(1.48351e-06 0 0)
(1.49196e-06 0 0)
(1.50045e-06 0 0)
(1.50895e-06 0 0)
(1.51747e-06 0 0)
(1.526e-06 0 0)
(1.53454e-06 0 0)
(1.54309e-06 0 0)
(1.55163e-06 0 0)
(1.56017e-06 0 0)
(1.5687e-06 0 0)
(1.57723e-06 0 0)
(1.58575e-06 0 0)
(1.59427e-06 0 0)
(1.60278e-06 0 0)
(1.61128e-06 0 0)
(1.61978e-06 0 0)
(1.62828e-06 0 0)
(1.63678e-06 0 0)
(1.64527e-06 0 0)
(1.65377e-06 0 0)
(1.66228e-06 0 0)
(1.67079e-06 0 0)
(1.6793e-06 0 0)
(1.68782e-06 0 0)
(1.69636e-06 0 0)
(1.7049e-06 0 0)
(1.71345e-06 0 0)
(1.72202e-06 0 0)
(1.73059e-06 0 0)
(1.73918e-06 0 0)
(1.74778e-06 0 0)
(1.75639e-06 0 0)
(1.76502e-06 0 0)
(1.77365e-06 0 0)
(1.7823e-06 0 0)
(1.79096e-06 0 0)
(1.79964e-06 0 0)
(1.80832e-06 0 0)
(1.81702e-06 0 0)
(1.82572e-06 0 0)
(1.83444e-06 0 0)
(1.84317e-06 0 0)
(1.85191e-06 0 0)
(1.86066e-06 0 0)
(1.86942e-06 0 0)
(1.87819e-06 0 0)
(1.88697e-06 0 0)
(1.89576e-06 0 0)
(1.90457e-06 0 0)
(1.91338e-06 0 0)
(1.9222e-06 0 0)
(1.93103e-06 0 0)
(1.93987e-06 0 0)
(1.94872e-06 0 0)
(1.95758e-06 0 0)
(1.96645e-06 0 0)
(1.97533e-06 0 0)
(1.98423e-06 0 0)
(1.99313e-06 0 0)
(2.00203e-06 0 0)
(2.01095e-06 0 0)
(2.01988e-06 0 0)
(2.02882e-06 0 0)
(2.03777e-06 0 0)
(2.04673e-06 0 0)
(2.0557e-06 0 0)
(2.06468e-06 0 0)
(2.07366e-06 0 0)
(2.08266e-06 0 0)
(2.09167e-06 0 0)
(2.10068e-06 0 0)
(2.10971e-06 0 0)
(2.11875e-06 0 0)
(2.12779e-06 0 0)
(2.13685e-06 0 0)
(2.14592e-06 0 0)
(2.15499e-06 0 0)
(2.16408e-06 0 0)
(2.17318e-06 0 0)
(2.18228e-06 0 0)
(2.1914e-06 0 0)
(2.20053e-06 0 0)
(2.20966e-06 0 0)
(2.21881e-06 0 0)
(2.22797e-06 0 0)
(2.23713e-06 0 0)
(2.24631e-06 0 0)
(2.2555e-06 0 0)
(2.2647e-06 0 0)
(2.27391e-06 0 0)
(2.28312e-06 0 0)
(2.29235e-06 0 0)
(2.3016e-06 0 0)
(2.31085e-06 0 0)
(2.32011e-06 0 0)
(2.32938e-06 0 0)
(2.33867e-06 0 0)
(2.34797e-06 0 0)
(2.35727e-06 0 0)
(2.36659e-06 0 0)
(2.37592e-06 0 0)
(2.38526e-06 0 0)
(2.39462e-06 0 0)
(2.40398e-06 0 0)
(2.41336e-06 0 0)
(2.42275e-06 0 0)
(2.43215e-06 0 0)
(2.44156e-06 0 0)
(2.45098e-06 0 0)
(2.46041e-06 0 0)
(2.46986e-06 0 0)
(2.47931e-06 0 0)
(2.48878e-06 0 0)
(2.49826e-06 0 0)
(2.50775e-06 0 0)
(2.51725e-06 0 0)
(2.52675e-06 0 0)
(2.53627e-06 0 0)
(2.54579e-06 0 0)
(2.55532e-06 0 0)
(2.56485e-06 0 0)
(2.57439e-06 0 0)
(2.58393e-06 0 0)
(2.59347e-06 0 0)
(2.60301e-06 0 0)
(2.61256e-06 0 0)
(2.6221e-06 0 0)
(2.63165e-06 0 0)
(2.64119e-06 0 0)
(2.65073e-06 0 0)
(2.66027e-06 0 0)
(2.66982e-06 0 0)
(2.67936e-06 0 0)
(2.68891e-06 0 0)
(2.69846e-06 0 0)
(2.70802e-06 0 0)
(2.71759e-06 0 0)
(2.72717e-06 0 0)
(2.73676e-06 0 0)
(2.74637e-06 0 0)
(2.756e-06 0 0)
(2.76566e-06 0 0)
(2.77534e-06 0 0)
(2.78505e-06 0 0)
(2.7948e-06 0 0)
(2.80458e-06 0 0)
(2.81441e-06 0 0)
(2.82427e-06 0 0)
(2.83418e-06 0 0)
(2.84414e-06 0 0)
(2.85415e-06 0 0)
(2.8642e-06 0 0)
(2.87431e-06 0 0)
(2.88446e-06 0 0)
(2.89465e-06 0 0)
(2.9049e-06 0 0)
(2.91518e-06 0 0)
(2.9255e-06 0 0)
(2.93586e-06 0 0)
(2.94625e-06 0 0)
(2.95667e-06 0 0)
(2.96712e-06 0 0)
(2.97759e-06 0 0)
(2.98807e-06 0 0)
(2.99857e-06 0 0)
(3.00908e-06 0 0)
(3.0196e-06 0 0)
(3.03013e-06 0 0)
(3.04066e-06 0 0)
(3.05119e-06 0 0)
(3.06173e-06 0 0)
(3.07227e-06 0 0)
(3.08281e-06 0 0)
(3.09336e-06 0 0)
(3.10391e-06 0 0)
(3.11446e-06 0 0)
(3.12502e-06 0 0)
(3.13558e-06 0 0)
(3.14615e-06 0 0)
(3.15673e-06 0 0)
(3.16732e-06 0 0)
(3.17792e-06 0 0)
(3.18854e-06 0 0)
(3.19916e-06 0 0)
(3.20981e-06 0 0)
(3.22047e-06 0 0)
(3.23115e-06 0 0)
(3.24184e-06 0 0)
(3.25256e-06 0 0)
(3.26329e-06 0 0)
(3.27405e-06 0 0)
(3.28483e-06 0 0)
(3.29563e-06 0 0)
(3.30645e-06 0 0)
(3.3173e-06 0 0)
(3.32817e-06 0 0)
(3.33906e-06 0 0)
(3.34997e-06 0 0)
(3.36091e-06 0 0)
(3.37187e-06 0 0)
(3.38285e-06 0 0)
(3.39386e-06 0 0)
(3.40489e-06 0 0)
(3.41594e-06 0 0)
(3.42701e-06 0 0)
(3.43811e-06 0 0)
(3.44923e-06 0 0)
(3.46038e-06 0 0)
(3.47155e-06 0 0)
(3.48274e-06 0 0)
(3.49395e-06 0 0)
(3.50519e-06 0 0)
(3.51645e-06 0 0)
(3.52773e-06 0 0)
(3.53904e-06 0 0)
(3.55037e-06 0 0)
(3.56172e-06 0 0)
(3.5731e-06 0 0)
(3.5845e-06 0 0)
(3.59593e-06 0 0)
(3.60737e-06 0 0)
(3.61885e-06 0 0)
(3.63034e-06 0 0)
(3.64186e-06 0 0)
(3.65341e-06 0 0)
(3.66497e-06 0 0)
(3.67657e-06 0 0)
(3.68818e-06 0 0)
(3.69983e-06 0 0)
(3.71149e-06 0 0)
(3.72319e-06 0 0)
(3.7349e-06 0 0)
(3.74665e-06 0 0)
(3.75842e-06 0 0)
(3.77021e-06 0 0)
(3.78203e-06 0 0)
(3.79388e-06 0 0)
(3.80575e-06 0 0)
(3.81766e-06 0 0)
(3.82958e-06 0 0)
(3.84154e-06 0 0)
(3.85352e-06 0 0)
(3.86553e-06 0 0)
(3.87757e-06 0 0)
(3.88964e-06 0 0)
(3.90173e-06 0 0)
(3.91385e-06 0 0)
(3.92601e-06 0 0)
(3.93819e-06 0 0)
(3.9504e-06 0 0)
(3.96264e-06 0 0)
(3.97491e-06 0 0)
(3.98721e-06 0 0)
(3.99955e-06 0 0)
(4.01191e-06 0 0)
(4.0243e-06 0 0)
(4.03673e-06 0 0)
(4.04919e-06 0 0)
(4.06168e-06 0 0)
(4.0742e-06 0 0)
(4.08676e-06 0 0)
(4.09935e-06 0 0)
(4.11197e-06 0 0)
(4.12463e-06 0 0)
(4.13732e-06 0 0)
(4.15005e-06 0 0)
(4.16281e-06 0 0)
(4.17561e-06 0 0)
(4.18844e-06 0 0)
(4.20131e-06 0 0)
(4.21422e-06 0 0)
(4.22716e-06 0 0)
(4.24015e-06 0 0)
(4.25317e-06 0 0)
(4.26622e-06 0 0)
(4.27932e-06 0 0)
(4.29246e-06 0 0)
(4.30563e-06 0 0)
(4.31884e-06 0 0)
(4.3321e-06 0 0)
(4.34539e-06 0 0)
(4.35872e-06 0 0)
(4.37209e-06 0 0)
(4.3855e-06 0 0)
(4.39895e-06 0 0)
(4.41243e-06 0 0)
(4.42596e-06 0 0)
(4.43952e-06 0 0)
(4.45313e-06 0 0)
(4.46677e-06 0 0)
(4.48045e-06 0 0)
(4.49416e-06 0 0)
(4.50791e-06 0 0)
(4.5217e-06 0 0)
(4.53553e-06 0 0)
(4.54939e-06 0 0)
(4.56329e-06 0 0)
(4.57722e-06 0 0)
(4.5912e-06 0 0)
(4.6052e-06 0 0)
(4.61925e-06 0 0)
(4.63333e-06 0 0)
(4.64746e-06 0 0)
(4.66162e-06 0 0)
(4.67583e-06 0 0)
(4.69008e-06 0 0)
(4.70438e-06 0 0)
(4.71873e-06 0 0)
(4.73312e-06 0 0)
(4.74757e-06 0 0)
(4.76208e-06 0 0)
(4.77664e-06 0 0)
(4.79127e-06 0 0)
(4.80596e-06 0 0)
(4.82072e-06 0 0)
(4.83556e-06 0 0)
(4.85047e-06 0 0)
(4.86546e-06 0 0)
(4.88053e-06 0 0)
(4.89569e-06 0 0)
(4.91094e-06 0 0)
(4.92629e-06 0 0)
(4.94173e-06 0 0)
(4.95727e-06 0 0)
(4.97291e-06 0 0)
(4.98866e-06 0 0)
(5.00451e-06 0 0)
(5.02047e-06 0 0)
(5.03653e-06 0 0)
(5.0527e-06 0 0)
(5.06898e-06 0 0)
(5.08537e-06 0 0)
(5.10185e-06 0 0)
(5.11844e-06 0 0)
(5.13512e-06 0 0)
(5.1519e-06 0 0)
(5.16877e-06 0 0)
(5.18573e-06 0 0)
(5.20277e-06 0 0)
(5.21989e-06 0 0)
(5.23707e-06 0 0)
(5.25432e-06 0 0)
(5.27162e-06 0 0)
(5.28897e-06 0 0)
(5.30636e-06 0 0)
(5.32378e-06 0 0)
(5.34121e-06 0 0)
(5.35865e-06 0 0)
(5.37607e-06 0 0)
(5.39346e-06 0 0)
(5.41081e-06 0 0)
(5.42809e-06 0 0)
(5.44528e-06 0 0)
(5.46233e-06 0 0)
(5.47923e-06 0 0)
(5.49593e-06 0 0)
(5.5124e-06 0 0)
(5.52858e-06 0 0)
(5.54444e-06 0 0)
(5.5599e-06 0 0)
(5.57492e-06 0 0)
(5.58944e-06 0 0)
(5.60341e-06 0 0)
(5.61676e-06 0 0)
(5.62945e-06 0 0)
(5.64142e-06 0 0)
(5.65263e-06 0 0)
(5.66304e-06 0 0)
(5.67264e-06 0 0)
(5.68141e-06 0 0)
(5.68936e-06 0 0)
(5.6965e-06 0 0)
(5.70284e-06 0 0)
(5.70842e-06 0 0)
(5.71329e-06 0 0)
(5.71751e-06 0 0)
(5.72116e-06 0 0)
(5.72432e-06 0 0)
(5.7271e-06 0 0)
(5.72965e-06 0 0)
(5.73219e-06 0 0)
(5.73507e-06 0 0)
(5.73889e-06 0 0)
(5.74465e-06 0 0)
(5.75409e-06 0 0)
(5.77029e-06 0 0)
(5.79858e-06 0 0)
(5.84813e-06 0 0)
(5.93398e-06 0 0)
(6.07918e-06 0 0)
(6.31438e-06 0 0)
(6.66986e-06 0 0)
(7.15484e-06 0 0)
(7.73184e-06 0 0)
(8.31501e-06 0 0)
(8.81147e-06 0 0)
(9.17212e-06 0 0)
(9.40267e-06 0 0)
(9.53735e-06 0 0)
(9.61168e-06 0 0)
(9.6514e-06 0 0)
(9.67226e-06 0 0)
(9.68314e-06 0 0)
(9.6888e-06 0 0)
(9.69176e-06 0 0)
(9.69333e-06 0 0)
(9.69418e-06 0 0)
(9.69466e-06 0 0)
(9.69494e-06 0 0)
(9.69513e-06 0 0)
(9.69527e-06 0 0)
(9.69538e-06 0 0)
(9.69547e-06 0 0)
(9.69555e-06 0 0)
(9.69563e-06 0 0)
(9.6957e-06 0 0)
(9.69577e-06 0 0)
(9.69583e-06 0 0)
(9.69589e-06 0 0)
(9.69595e-06 0 0)
(9.69601e-06 0 0)
(9.69606e-06 0 0)
(9.69611e-06 0 0)
(9.69615e-06 0 0)
(9.69619e-06 0 0)
(9.69623e-06 0 0)
(9.69627e-06 0 0)
(9.6963e-06 0 0)
(9.69634e-06 0 0)
(9.69636e-06 0 0)
(9.69639e-06 0 0)
(9.69641e-06 0 0)
(9.69643e-06 0 0)
(9.69644e-06 0 0)
(9.69645e-06 0 0)
(9.69646e-06 0 0)
(9.69647e-06 0 0)
(9.69647e-06 0 0)
(9.69648e-06 0 0)
(9.69648e-06 0 0)
(9.69647e-06 0 0)
(9.69646e-06 0 0)
(9.69645e-06 0 0)
(9.69644e-06 0 0)
(9.69642e-06 0 0)
(9.69641e-06 0 0)
(9.69638e-06 0 0)
(9.69636e-06 0 0)
(9.69634e-06 0 0)
(9.69631e-06 0 0)
(9.69628e-06 0 0)
(9.69624e-06 0 0)
(9.69621e-06 0 0)
(9.69617e-06 0 0)
(9.69613e-06 0 0)
(9.69609e-06 0 0)
(9.69604e-06 0 0)
(9.69599e-06 0 0)
(9.69594e-06 0 0)
(9.69589e-06 0 0)
(9.69584e-06 0 0)
(9.69578e-06 0 0)
(9.69572e-06 0 0)
(9.69565e-06 0 0)
(9.69559e-06 0 0)
(9.69552e-06 0 0)
(9.69545e-06 0 0)
(9.69537e-06 0 0)
(9.69529e-06 0 0)
(9.69521e-06 0 0)
(9.69512e-06 0 0)
(9.69502e-06 0 0)
(9.69493e-06 0 0)
(9.69482e-06 0 0)
(9.69471e-06 0 0)
(9.69459e-06 0 0)
(9.69446e-06 0 0)
(9.69433e-06 0 0)
(9.69418e-06 0 0)
(9.69403e-06 0 0)
(9.69386e-06 0 0)
(9.69369e-06 0 0)
(9.6935e-06 0 0)
(9.6933e-06 0 0)
(9.69308e-06 0 0)
(9.69285e-06 0 0)
(9.6926e-06 0 0)
(9.69234e-06 0 0)
(9.69206e-06 0 0)
(9.69176e-06 0 0)
(9.69145e-06 0 0)
(9.69112e-06 0 0)
(9.69076e-06 0 0)
(9.69039e-06 0 0)
(9.69e-06 0 0)
(9.68959e-06 0 0)
(9.68916e-06 0 0)
(9.68872e-06 0 0)
(9.68825e-06 0 0)
(9.68777e-06 0 0)
(9.68727e-06 0 0)
(9.68676e-06 0 0)
(9.68624e-06 0 0)
(9.6857e-06 0 0)
(9.68516e-06 0 0)
(9.6846e-06 0 0)
(9.68404e-06 0 0)
(9.68348e-06 0 0)
(9.68291e-06 0 0)
(9.68235e-06 0 0)
(9.68179e-06 0 0)
(9.68125e-06 0 0)
(9.68071e-06 0 0)
(9.68018e-06 0 0)
(9.67967e-06 0 0)
(9.67919e-06 0 0)
(9.67872e-06 0 0)
(9.67829e-06 0 0)
(9.67788e-06 0 0)
(9.6775e-06 0 0)
(9.67717e-06 0 0)
(9.67687e-06 0 0)
(9.67661e-06 0 0)
(9.67639e-06 0 0)
(9.67622e-06 0 0)
(9.6761e-06 0 0)
(9.67602e-06 0 0)
(9.67599e-06 0 0)
(9.67598e-06 0 0)
(9.67598e-06 0 0)
(9.67604e-06 0 0)
(9.67618e-06 0 0)
(9.67638e-06 0 0)
(9.67662e-06 0 0)
(9.67691e-06 0 0)
(9.67723e-06 0 0)
(9.67759e-06 0 0)
(9.67798e-06 0 0)
(9.6784e-06 0 0)
(9.67885e-06 0 0)
(9.67931e-06 0 0)
(9.6798e-06 0 0)
(9.6803e-06 0 0)
(9.68081e-06 0 0)
(9.68133e-06 0 0)
(9.68186e-06 0 0)
(9.68238e-06 0 0)
(9.6829e-06 0 0)
(9.68342e-06 0 0)
(9.68392e-06 0 0)
(9.68442e-06 0 0)
(9.6849e-06 0 0)
(9.68537e-06 0 0)
(9.68581e-06 0 0)
(9.68625e-06 0 0)
(9.68666e-06 0 0)
(9.68705e-06 0 0)
(9.68742e-06 0 0)
(9.68777e-06 0 0)
(9.68811e-06 0 0)
(9.68842e-06 0 0)
(9.68871e-06 0 0)
(9.68898e-06 0 0)
(9.68923e-06 0 0)
(9.68947e-06 0 0)
(9.68969e-06 0 0)
(9.68989e-06 0 0)
(9.69008e-06 0 0)
(9.69026e-06 0 0)
(9.69042e-06 0 0)
(9.69057e-06 0 0)
(9.69072e-06 0 0)
(9.69085e-06 0 0)
(9.69098e-06 0 0)
(9.6911e-06 0 0)
(9.69121e-06 0 0)
(9.69132e-06 0 0)
(9.69142e-06 0 0)
(9.69152e-06 0 0)
(9.69162e-06 0 0)
(9.69172e-06 0 0)
(9.69181e-06 0 0)
(9.69191e-06 0 0)
(9.692e-06 0 0)
(9.6921e-06 0 0)
(9.69219e-06 0 0)
(9.69229e-06 0 0)
(9.69238e-06 0 0)
(9.69248e-06 0 0)
(9.69258e-06 0 0)
(9.69268e-06 0 0)
(9.69277e-06 0 0)
(9.69287e-06 0 0)
(9.69298e-06 0 0)
(9.69308e-06 0 0)
(9.69318e-06 0 0)
(9.69329e-06 0 0)
(9.69339e-06 0 0)
(9.6935e-06 0 0)
(9.6936e-06 0 0)
(9.69371e-06 0 0)
(9.69382e-06 0 0)
(9.69392e-06 0 0)
(9.69403e-06 0 0)
(9.69414e-06 0 0)
(9.69424e-06 0 0)
(9.69435e-06 0 0)
(9.69445e-06 0 0)
(9.69455e-06 0 0)
(9.69465e-06 0 0)
(9.69475e-06 0 0)
(9.69485e-06 0 0)
(9.69494e-06 0 0)
(9.69503e-06 0 0)
(9.69512e-06 0 0)
(9.69521e-06 0 0)
(9.6953e-06 0 0)
(9.69538e-06 0 0)
(9.69546e-06 0 0)
(9.69554e-06 0 0)
(9.69562e-06 0 0)
(9.69569e-06 0 0)
(9.69576e-06 0 0)
(9.69583e-06 0 0)
(9.6959e-06 0 0)
(9.69596e-06 0 0)
(9.69602e-06 0 0)
(9.69608e-06 0 0)
(9.69614e-06 0 0)
(9.6962e-06 0 0)
(9.69625e-06 0 0)
(9.6963e-06 0 0)
(9.69635e-06 0 0)
(9.69639e-06 0 0)
(9.69643e-06 0 0)
(9.69647e-06 0 0)
(9.69651e-06 0 0)
(9.69654e-06 0 0)
(9.69657e-06 0 0)
(9.6966e-06 0 0)
(9.69662e-06 0 0)
(9.69664e-06 0 0)
(9.69666e-06 0 0)
(9.69668e-06 0 0)
(9.69669e-06 0 0)
(9.69669e-06 0 0)
(9.6967e-06 0 0)
(9.6967e-06 0 0)
(9.6967e-06 0 0)
(9.6967e-06 0 0)
(9.6967e-06 0 0)
(9.69668e-06 0 0)
(9.69667e-06 0 0)
(9.69665e-06 0 0)
(9.69663e-06 0 0)
(9.69661e-06 0 0)
(9.69658e-06 0 0)
(9.69655e-06 0 0)
(9.69651e-06 0 0)
(9.69648e-06 0 0)
(9.69644e-06 0 0)
(9.69639e-06 0 0)
(9.69635e-06 0 0)
(9.6963e-06 0 0)
(9.69625e-06 0 0)
(9.69619e-06 0 0)
(9.69613e-06 0 0)
(9.69607e-06 0 0)
(9.69601e-06 0 0)
(9.69594e-06 0 0)
(9.69587e-06 0 0)
(9.69579e-06 0 0)
(9.69571e-06 0 0)
(9.69562e-06 0 0)
(9.69553e-06 0 0)
(9.69544e-06 0 0)
(9.69534e-06 0 0)
(9.69523e-06 0 0)
(9.69512e-06 0 0)
(9.695e-06 0 0)
(9.69488e-06 0 0)
(9.69474e-06 0 0)
(9.6946e-06 0 0)
(9.69445e-06 0 0)
(9.69429e-06 0 0)
(9.69412e-06 0 0)
(9.69394e-06 0 0)
(9.69375e-06 0 0)
(9.69355e-06 0 0)
(9.69334e-06 0 0)
(9.69311e-06 0 0)
(9.69287e-06 0 0)
(9.69262e-06 0 0)
(9.69235e-06 0 0)
(9.69207e-06 0 0)
(9.69177e-06 0 0)
(9.69146e-06 0 0)
(9.69113e-06 0 0)
(9.69079e-06 0 0)
(9.69043e-06 0 0)
(9.69006e-06 0 0)
(9.68967e-06 0 0)
(9.68927e-06 0 0)
(9.68886e-06 0 0)
(9.68843e-06 0 0)
(9.68799e-06 0 0)
(9.68754e-06 0 0)
(9.68707e-06 0 0)
(9.6866e-06 0 0)
(9.68612e-06 0 0)
(9.68563e-06 0 0)
(9.68514e-06 0 0)
(9.68464e-06 0 0)
(9.68414e-06 0 0)
(9.68365e-06 0 0)
(9.68315e-06 0 0)
(9.68266e-06 0 0)
(9.68218e-06 0 0)
(9.6817e-06 0 0)
(9.68124e-06 0 0)
(9.68079e-06 0 0)
(9.68035e-06 0 0)
(9.67994e-06 0 0)
(9.67954e-06 0 0)
(9.67917e-06 0 0)
(9.67882e-06 0 0)
(9.6785e-06 0 0)
(9.67821e-06 0 0)
(9.67795e-06 0 0)
(9.67773e-06 0 0)
(9.67753e-06 0 0)
(9.67738e-06 0 0)
(9.67726e-06 0 0)
(9.67718e-06 0 0)
(9.67714e-06 0 0)
(9.67712e-06 0 0)
(9.67713e-06 0 0)
(9.67715e-06 0 0)
(9.67721e-06 0 0)
(9.67734e-06 0 0)
(9.67752e-06 0 0)
(9.67774e-06 0 0)
(9.67799e-06 0 0)
(9.67827e-06 0 0)
(9.67858e-06 0 0)
(9.67892e-06 0 0)
(9.67928e-06 0 0)
(9.67966e-06 0 0)
(9.68005e-06 0 0)
(9.68047e-06 0 0)
(9.68089e-06 0 0)
(9.68133e-06 0 0)
(9.68178e-06 0 0)
(9.68223e-06 0 0)
(9.68268e-06 0 0)
(9.68313e-06 0 0)
(9.68358e-06 0 0)
(9.68402e-06 0 0)
(9.68445e-06 0 0)
(9.68488e-06 0 0)
(9.6853e-06 0 0)
(9.6857e-06 0 0)
(9.6861e-06 0 0)
(9.68648e-06 0 0)
(9.68684e-06 0 0)
(9.68719e-06 0 0)
(9.68752e-06 0 0)
(9.68784e-06 0 0)
(9.68815e-06 0 0)
(9.68843e-06 0 0)
(9.68871e-06 0 0)
(9.68896e-06 0 0)
(9.68921e-06 0 0)
(9.68944e-06 0 0)
(9.68966e-06 0 0)
(9.68986e-06 0 0)
(9.69006e-06 0 0)
(9.69024e-06 0 0)
)
;

boundaryField
{
    inlet
    {
        type            fixedValue;
        value           uniform (0 0 0);
    }
    outlet
    {
        type            zeroGradient;
    }
    emptyWalls
    {
        type            empty;
    }
}


// ************************************************************************* //
