/*--------------------------------*- C++ -*----------------------------------*\
  =========                 |
  \\      /  F ield         | OpenFOAM: The Open Source CFD Toolbox
   \\    /   O peration     | Website:  https://openfoam.org
    \\  /    A nd           | Version:  9
     \\/     M anipulation  |
\*---------------------------------------------------------------------------*/
FoamFile
{
    format      ascii;
    class       volScalarField;
    location    "90000";
    object      krc;
}
// * * * * * * * * * * * * * * * * * * * * * * * * * * * * * * * * * * * * * //

dimensions      [0 0 0 0 0 0 0];

internalField   nonuniform List<scalar> 
100
(
9.60082e-22
7.71382e-24
8.05369e-24
1.1321e-23
1.6794e-24
9.05245e-24
1.38843e-24
6.40392e-26
5.45114e-24
2.05052e-24
6.12084e-24
1.28066e-25
3.04243e-24
4.5927e-24
7.35016e-24
5.575e-24
7.55763e-24
1.2729e-24
6.49143e-24
9.24908e-24
7.84098e-25
8.59634e-24
1.50627e-24
6.28626e-24
6.00679e-24
7.5184e-24
5.31671e-24
6.92983e-24
5.12905e-24
5.9607e-24
4.87796e-24
1.73127e-24
1.00991e-23
8.02253e-24
2.81758e-25
9.34291e-24
8.90503e-25
4.87895e-25
1.73685e-24
3.10823e-24
1.35606e-24
6.04031e-24
2.05407e-23
1.34766e-24
1.06237e-23
2.57296e-24
2.2398e-25
1.99993e-23
1.44163e-25
9.51674e-25
5.13759e-24
2.9711e-24
2.12715e-23
1.42324e-24
4.41772e-25
1.40534e-23
1.67594e-24
3.30359e-24
1.44392e-23
9.54604e-24
9.46472e-24
6.06929e-24
2.35924e-24
5.10774e-24
5.24473e-27
9.6804e-24
6.35178e-24
9.07892e-24
6.0168e-24
9.37148e-26
7.7269e-24
6.12084e-24
9.79288e-25
1.40327e-24
5.3646e-24
3.13347e-24
1.79989e-23
2.88748e-23
9.89687e-23
7.77002e-23
1.85777e-22
1.30139e-22
2.98821e-22
5.21702e-22
6.58858e-22
9.65446e-22
1.44199e-21
2.09368e-21
2.84603e-21
4.12591e-21
5.54932e-21
7.85606e-21
1.2112e-20
1.42321e-20
3.3668e-21
6.45197e-20
5.38714e-18
2.49222e-17
6.26739e-16
3.99054e-15
)
;

boundaryField
{
    inlet
    {
        type            calculated;
        value           uniform 9.60082e-22;
    }
    outlet
    {
        type            calculated;
        value           uniform 3.99054e-15;
    }
    emptyWalls
    {
        type            empty;
    }
}


// ************************************************************************* //
