/*--------------------------------*- C++ -*----------------------------------*\
  =========                 |
  \\      /  F ield         | OpenFOAM: The Open Source CFD Toolbox
   \\    /   O peration     | Website:  https://openfoam.org
    \\  /    A nd           | Version:  9
     \\/     M anipulation  |
\*---------------------------------------------------------------------------*/
FoamFile
{
    format      ascii;
    class       volScalarField;
    location    "90000";
    object      p;
}
// * * * * * * * * * * * * * * * * * * * * * * * * * * * * * * * * * * * * * //

dimensions      [0 0 0 0 0 0 0];

internalField   nonuniform List<scalar> 
100
(
3.86239e+06
3.82357e+06
3.78475e+06
3.74593e+06
3.70711e+06
3.66829e+06
3.62947e+06
3.59065e+06
3.55183e+06
3.51301e+06
3.47419e+06
3.43537e+06
3.39655e+06
3.35773e+06
3.31891e+06
3.28009e+06
3.24127e+06
3.20245e+06
3.16364e+06
3.12482e+06
3.086e+06
3.04718e+06
3.00836e+06
2.96954e+06
2.93072e+06
2.8919e+06
2.85308e+06
2.81426e+06
2.77544e+06
2.73662e+06
2.6978e+06
2.65898e+06
2.62016e+06
2.58134e+06
2.54252e+06
2.5037e+06
2.46488e+06
2.42606e+06
2.38724e+06
2.34842e+06
2.3096e+06
2.27078e+06
2.23196e+06
2.19314e+06
2.15432e+06
2.1155e+06
2.07668e+06
2.03786e+06
1.99904e+06
1.96022e+06
1.9214e+06
1.88258e+06
1.84376e+06
1.80494e+06
1.76612e+06
1.7273e+06
1.68848e+06
1.64966e+06
1.61084e+06
1.57202e+06
1.5332e+06
1.49438e+06
1.45556e+06
1.41674e+06
1.37792e+06
1.3391e+06
1.30028e+06
1.26146e+06
1.22264e+06
1.18382e+06
1.145e+06
1.10618e+06
1.06736e+06
1.02854e+06
989724
950905
912085
873265
834445
795625
756805
717986
679166
640346
601526
562706
523887
485067
446247
407427
368607
329787
290968
252148
213328
174508
135688
96868.4
58048.5
19228.7
)
;

boundaryField
{
    inlet
    {
        type            darcyGradPressure;
        gradient        uniform 1.56485e+07;
        Mf              Mf;
        phi             phi;
        value           uniform 3.88172e+06;
    }
    outlet
    {
        type            fixedValue;
        value           uniform 0;
    }
    emptyWalls
    {
        type            empty;
    }
}


// ************************************************************************* //
