/*--------------------------------*- C++ -*----------------------------------*\
  =========                 |
  \\      /  F ield         | OpenFOAM: The Open Source CFD Toolbox
   \\    /   O peration     | Website:  https://openfoam.org
    \\  /    A nd           | Version:  9
     \\/     M anipulation  |
\*---------------------------------------------------------------------------*/
FoamFile
{
    format      ascii;
    class       volVectorField;
    location    "10800";
    object      Ua;
}
// * * * * * * * * * * * * * * * * * * * * * * * * * * * * * * * * * * * * * //

dimensions      [0 0 0 0 0 0 0];

internalField   nonuniform List<vector> 
1000
(
(2.74881e-06 0 0)
(2.74848e-06 0 0)
(2.74795e-06 0 0)
(2.7472e-06 0 0)
(2.74639e-06 0 0)
(2.74507e-06 0 0)
(2.74394e-06 0 0)
(2.74237e-06 0 0)
(2.74081e-06 0 0)
(2.73935e-06 0 0)
(2.7378e-06 0 0)
(2.73594e-06 0 0)
(2.73072e-06 0 0)
(2.71218e-06 0 0)
(2.61024e-06 0 0)
(2.35838e-06 0 0)
(2.16625e-06 0 0)
(2.13036e-06 0 0)
(2.11839e-06 0 0)
(2.11314e-06 0 0)
(2.11213e-06 0 0)
(2.11462e-06 0 0)
(2.11855e-06 0 0)
(2.12106e-06 0 0)
(2.12061e-06 0 0)
(2.11802e-06 0 0)
(2.11486e-06 0 0)
(2.11119e-06 0 0)
(2.10497e-06 0 0)
(2.09655e-06 0 0)
(2.08773e-06 0 0)
(2.07906e-06 0 0)
(2.07131e-06 0 0)
(2.06468e-06 0 0)
(2.05931e-06 0 0)
(2.05532e-06 0 0)
(2.05256e-06 0 0)
(2.05081e-06 0 0)
(2.04984e-06 0 0)
(2.04947e-06 0 0)
(2.0496e-06 0 0)
(2.05011e-06 0 0)
(2.0508e-06 0 0)
(2.05141e-06 0 0)
(2.05181e-06 0 0)
(2.05199e-06 0 0)
(2.05196e-06 0 0)
(2.05173e-06 0 0)
(2.05134e-06 0 0)
(2.05081e-06 0 0)
(2.05018e-06 0 0)
(2.04948e-06 0 0)
(2.04874e-06 0 0)
(2.04796e-06 0 0)
(2.04716e-06 0 0)
(2.04636e-06 0 0)
(2.04557e-06 0 0)
(2.04478e-06 0 0)
(2.044e-06 0 0)
(2.04324e-06 0 0)
(2.0425e-06 0 0)
(2.04178e-06 0 0)
(2.04109e-06 0 0)
(2.04042e-06 0 0)
(2.03977e-06 0 0)
(2.03914e-06 0 0)
(2.03853e-06 0 0)
(2.03795e-06 0 0)
(2.03737e-06 0 0)
(2.03681e-06 0 0)
(2.03627e-06 0 0)
(2.03573e-06 0 0)
(2.03519e-06 0 0)
(2.03467e-06 0 0)
(2.03414e-06 0 0)
(2.03362e-06 0 0)
(2.03311e-06 0 0)
(2.0326e-06 0 0)
(2.0321e-06 0 0)
(2.0316e-06 0 0)
(2.03112e-06 0 0)
(2.03064e-06 0 0)
(2.03017e-06 0 0)
(2.02971e-06 0 0)
(2.02927e-06 0 0)
(2.02883e-06 0 0)
(2.02841e-06 0 0)
(2.028e-06 0 0)
(2.02761e-06 0 0)
(2.02722e-06 0 0)
(2.02685e-06 0 0)
(2.02649e-06 0 0)
(2.02615e-06 0 0)
(2.02582e-06 0 0)
(2.0255e-06 0 0)
(2.02519e-06 0 0)
(2.02489e-06 0 0)
(2.02461e-06 0 0)
(2.02434e-06 0 0)
(2.02408e-06 0 0)
(2.02383e-06 0 0)
(2.02359e-06 0 0)
(2.02336e-06 0 0)
(2.02315e-06 0 0)
(2.02294e-06 0 0)
(2.02274e-06 0 0)
(2.02255e-06 0 0)
(2.02235e-06 0 0)
(2.02217e-06 0 0)
(2.02197e-06 0 0)
(2.02178e-06 0 0)
(2.02157e-06 0 0)
(2.02136e-06 0 0)
(2.02114e-06 0 0)
(2.02091e-06 0 0)
(2.02069e-06 0 0)
(2.02047e-06 0 0)
(2.02026e-06 0 0)
(2.02007e-06 0 0)
(2.0199e-06 0 0)
(2.01976e-06 0 0)
(2.01962e-06 0 0)
(2.0195e-06 0 0)
(2.01939e-06 0 0)
(2.01929e-06 0 0)
(2.0192e-06 0 0)
(2.01914e-06 0 0)
(2.01912e-06 0 0)
(2.01917e-06 0 0)
(2.01931e-06 0 0)
(2.01957e-06 0 0)
(2.01997e-06 0 0)
(2.02053e-06 0 0)
(2.02128e-06 0 0)
(2.02222e-06 0 0)
(2.02334e-06 0 0)
(2.02466e-06 0 0)
(2.02615e-06 0 0)
(2.02779e-06 0 0)
(2.02957e-06 0 0)
(2.03143e-06 0 0)
(2.03334e-06 0 0)
(2.03526e-06 0 0)
(2.03713e-06 0 0)
(2.0389e-06 0 0)
(2.04051e-06 0 0)
(2.0419e-06 0 0)
(2.043e-06 0 0)
(2.04377e-06 0 0)
(2.04416e-06 0 0)
(2.04413e-06 0 0)
(2.04366e-06 0 0)
(2.04275e-06 0 0)
(2.0414e-06 0 0)
(2.03964e-06 0 0)
(2.03752e-06 0 0)
(2.0351e-06 0 0)
(2.03243e-06 0 0)
(2.02961e-06 0 0)
(2.02669e-06 0 0)
(2.02377e-06 0 0)
(2.0209e-06 0 0)
(2.01816e-06 0 0)
(2.01559e-06 0 0)
(2.01323e-06 0 0)
(2.0111e-06 0 0)
(2.00922e-06 0 0)
(2.0076e-06 0 0)
(2.00621e-06 0 0)
(2.00506e-06 0 0)
(2.00412e-06 0 0)
(2.00335e-06 0 0)
(2.00275e-06 0 0)
(2.00227e-06 0 0)
(2.00188e-06 0 0)
(2.00157e-06 0 0)
(2.00131e-06 0 0)
(2.00107e-06 0 0)
(2.00084e-06 0 0)
(2.0006e-06 0 0)
(2.00034e-06 0 0)
(2.00005e-06 0 0)
(1.99972e-06 0 0)
(1.99936e-06 0 0)
(1.99896e-06 0 0)
(1.99852e-06 0 0)
(1.99804e-06 0 0)
(1.99752e-06 0 0)
(1.99697e-06 0 0)
(1.99639e-06 0 0)
(1.99579e-06 0 0)
(1.99517e-06 0 0)
(1.99453e-06 0 0)
(1.99387e-06 0 0)
(1.99321e-06 0 0)
(1.99255e-06 0 0)
(1.99188e-06 0 0)
(1.99121e-06 0 0)
(1.99054e-06 0 0)
(1.98987e-06 0 0)
(1.98921e-06 0 0)
(1.98855e-06 0 0)
(1.9879e-06 0 0)
(1.98726e-06 0 0)
(1.98663e-06 0 0)
(1.986e-06 0 0)
(1.98538e-06 0 0)
(1.98478e-06 0 0)
(1.98417e-06 0 0)
(1.98358e-06 0 0)
(1.983e-06 0 0)
(1.98242e-06 0 0)
(1.98186e-06 0 0)
(1.9813e-06 0 0)
(1.98075e-06 0 0)
(1.9802e-06 0 0)
(1.97967e-06 0 0)
(1.97914e-06 0 0)
(1.97862e-06 0 0)
(1.97811e-06 0 0)
(1.9776e-06 0 0)
(1.9771e-06 0 0)
(1.97661e-06 0 0)
(1.97612e-06 0 0)
(1.97564e-06 0 0)
(1.97517e-06 0 0)
(1.9747e-06 0 0)
(1.97424e-06 0 0)
(1.97378e-06 0 0)
(1.97333e-06 0 0)
(1.97288e-06 0 0)
(1.97245e-06 0 0)
(1.97201e-06 0 0)
(1.97159e-06 0 0)
(1.97117e-06 0 0)
(1.97075e-06 0 0)
(1.97034e-06 0 0)
(1.96994e-06 0 0)
(1.96954e-06 0 0)
(1.96915e-06 0 0)
(1.96877e-06 0 0)
(1.96839e-06 0 0)
(1.96802e-06 0 0)
(1.96766e-06 0 0)
(1.9673e-06 0 0)
(1.96695e-06 0 0)
(1.9666e-06 0 0)
(1.96626e-06 0 0)
(1.96593e-06 0 0)
(1.96561e-06 0 0)
(1.96529e-06 0 0)
(1.96497e-06 0 0)
(1.96466e-06 0 0)
(1.96436e-06 0 0)
(1.96406e-06 0 0)
(1.96376e-06 0 0)
(1.96347e-06 0 0)
(1.96318e-06 0 0)
(1.96289e-06 0 0)
(1.96261e-06 0 0)
(1.96232e-06 0 0)
(1.96204e-06 0 0)
(1.96176e-06 0 0)
(1.96148e-06 0 0)
(1.9612e-06 0 0)
(1.96093e-06 0 0)
(1.96065e-06 0 0)
(1.96039e-06 0 0)
(1.96012e-06 0 0)
(1.95986e-06 0 0)
(1.95961e-06 0 0)
(1.95936e-06 0 0)
(1.95912e-06 0 0)
(1.9589e-06 0 0)
(1.95868e-06 0 0)
(1.95848e-06 0 0)
(1.95829e-06 0 0)
(1.95813e-06 0 0)
(1.95799e-06 0 0)
(1.95788e-06 0 0)
(1.95781e-06 0 0)
(1.95778e-06 0 0)
(1.9578e-06 0 0)
(1.95786e-06 0 0)
(1.95799e-06 0 0)
(1.95818e-06 0 0)
(1.95845e-06 0 0)
(1.95878e-06 0 0)
(1.9592e-06 0 0)
(1.95969e-06 0 0)
(1.96026e-06 0 0)
(1.96091e-06 0 0)
(1.96164e-06 0 0)
(1.96244e-06 0 0)
(1.9633e-06 0 0)
(1.96423e-06 0 0)
(1.9652e-06 0 0)
(1.9662e-06 0 0)
(1.96723e-06 0 0)
(1.96827e-06 0 0)
(1.96929e-06 0 0)
(1.97028e-06 0 0)
(1.97123e-06 0 0)
(1.97211e-06 0 0)
(1.97291e-06 0 0)
(1.9736e-06 0 0)
(1.97416e-06 0 0)
(1.97458e-06 0 0)
(1.97484e-06 0 0)
(1.97493e-06 0 0)
(1.97483e-06 0 0)
(1.97455e-06 0 0)
(1.97407e-06 0 0)
(1.97339e-06 0 0)
(1.97253e-06 0 0)
(1.97147e-06 0 0)
(1.97025e-06 0 0)
(1.96887e-06 0 0)
(1.96735e-06 0 0)
(1.96572e-06 0 0)
(1.96399e-06 0 0)
(1.96218e-06 0 0)
(1.96033e-06 0 0)
(1.95846e-06 0 0)
(1.95659e-06 0 0)
(1.95474e-06 0 0)
(1.95293e-06 0 0)
(1.95118e-06 0 0)
(1.9495e-06 0 0)
(1.9479e-06 0 0)
(1.9464e-06 0 0)
(1.94499e-06 0 0)
(1.94368e-06 0 0)
(1.94247e-06 0 0)
(1.94135e-06 0 0)
(1.94033e-06 0 0)
(1.9394e-06 0 0)
(1.93855e-06 0 0)
(1.93777e-06 0 0)
(1.93706e-06 0 0)
(1.9364e-06 0 0)
(1.93579e-06 0 0)
(1.93523e-06 0 0)
(1.93469e-06 0 0)
(1.93418e-06 0 0)
(1.93369e-06 0 0)
(1.93321e-06 0 0)
(1.93274e-06 0 0)
(1.93226e-06 0 0)
(1.93178e-06 0 0)
(1.9313e-06 0 0)
(1.9308e-06 0 0)
(1.9303e-06 0 0)
(1.92978e-06 0 0)
(1.92924e-06 0 0)
(1.92869e-06 0 0)
(1.92812e-06 0 0)
(1.92754e-06 0 0)
(1.92694e-06 0 0)
(1.92633e-06 0 0)
(1.9257e-06 0 0)
(1.92507e-06 0 0)
(1.92442e-06 0 0)
(1.92376e-06 0 0)
(1.92309e-06 0 0)
(1.92241e-06 0 0)
(1.92173e-06 0 0)
(1.92104e-06 0 0)
(1.92035e-06 0 0)
(1.91965e-06 0 0)
(1.91896e-06 0 0)
(1.91826e-06 0 0)
(1.91756e-06 0 0)
(1.91687e-06 0 0)
(1.91617e-06 0 0)
(1.91548e-06 0 0)
(1.9148e-06 0 0)
(1.91411e-06 0 0)
(1.91343e-06 0 0)
(1.91276e-06 0 0)
(1.91209e-06 0 0)
(1.91143e-06 0 0)
(1.91078e-06 0 0)
(1.91013e-06 0 0)
(1.90948e-06 0 0)
(1.90885e-06 0 0)
(1.90822e-06 0 0)
(1.9076e-06 0 0)
(1.90698e-06 0 0)
(1.90637e-06 0 0)
(1.90577e-06 0 0)
(1.90517e-06 0 0)
(1.90458e-06 0 0)
(1.904e-06 0 0)
(1.90342e-06 0 0)
(1.90284e-06 0 0)
(1.90228e-06 0 0)
(1.90172e-06 0 0)
(1.90116e-06 0 0)
(1.90061e-06 0 0)
(1.90006e-06 0 0)
(1.89953e-06 0 0)
(1.899e-06 0 0)
(1.89848e-06 0 0)
(1.89797e-06 0 0)
(1.89747e-06 0 0)
(1.89698e-06 0 0)
(1.89651e-06 0 0)
(1.89604e-06 0 0)
(1.8956e-06 0 0)
(1.89518e-06 0 0)
(1.89478e-06 0 0)
(1.8944e-06 0 0)
(1.89405e-06 0 0)
(1.89373e-06 0 0)
(1.89343e-06 0 0)
(1.89316e-06 0 0)
(1.89293e-06 0 0)
(1.89272e-06 0 0)
(1.89254e-06 0 0)
(1.89239e-06 0 0)
(1.89226e-06 0 0)
(1.89215e-06 0 0)
(1.89203e-06 0 0)
(1.89191e-06 0 0)
(1.89172e-06 0 0)
(1.89144e-06 0 0)
(1.89094e-06 0 0)
(1.89007e-06 0 0)
(1.88857e-06 0 0)
(1.88606e-06 0 0)
(1.88213e-06 0 0)
(1.87653e-06 0 0)
(1.8696e-06 0 0)
(1.86254e-06 0 0)
(1.85676e-06 0 0)
(1.85299e-06 0 0)
(1.85096e-06 0 0)
(1.85e-06 0 0)
(1.8496e-06 0 0)
(1.84946e-06 0 0)
(1.84945e-06 0 0)
(1.84949e-06 0 0)
(1.84957e-06 0 0)
(1.84967e-06 0 0)
(1.84978e-06 0 0)
(1.8499e-06 0 0)
(1.85002e-06 0 0)
(1.85014e-06 0 0)
(1.85027e-06 0 0)
(1.85041e-06 0 0)
(1.85055e-06 0 0)
(1.8507e-06 0 0)
(1.85086e-06 0 0)
(1.85102e-06 0 0)
(1.85119e-06 0 0)
(1.85137e-06 0 0)
(1.85156e-06 0 0)
(1.85177e-06 0 0)
(1.85198e-06 0 0)
(1.85221e-06 0 0)
(1.85246e-06 0 0)
(1.85273e-06 0 0)
(1.85301e-06 0 0)
(1.85332e-06 0 0)
(1.85365e-06 0 0)
(1.854e-06 0 0)
(1.85438e-06 0 0)
(1.85479e-06 0 0)
(1.85523e-06 0 0)
(1.8557e-06 0 0)
(1.85621e-06 0 0)
(1.85675e-06 0 0)
(1.85733e-06 0 0)
(1.85794e-06 0 0)
(1.85859e-06 0 0)
(1.85928e-06 0 0)
(1.86e-06 0 0)
(1.86075e-06 0 0)
(1.86155e-06 0 0)
(1.86237e-06 0 0)
(1.86322e-06 0 0)
(1.8641e-06 0 0)
(1.86501e-06 0 0)
(1.86594e-06 0 0)
(1.86688e-06 0 0)
(1.86783e-06 0 0)
(1.8688e-06 0 0)
(1.86976e-06 0 0)
(1.87071e-06 0 0)
(1.87166e-06 0 0)
(1.87258e-06 0 0)
(1.87348e-06 0 0)
(1.87434e-06 0 0)
(1.87517e-06 0 0)
(1.87594e-06 0 0)
(1.87667e-06 0 0)
(1.87732e-06 0 0)
(1.87791e-06 0 0)
(1.87842e-06 0 0)
(1.87884e-06 0 0)
(1.87917e-06 0 0)
(1.8794e-06 0 0)
(1.87954e-06 0 0)
(1.8796e-06 0 0)
(1.87961e-06 0 0)
(1.87959e-06 0 0)
(1.87944e-06 0 0)
(1.87913e-06 0 0)
(1.8787e-06 0 0)
(1.87819e-06 0 0)
(1.87759e-06 0 0)
(1.87693e-06 0 0)
(1.87619e-06 0 0)
(1.8754e-06 0 0)
(1.87456e-06 0 0)
(1.87367e-06 0 0)
(1.87275e-06 0 0)
(1.87181e-06 0 0)
(1.87085e-06 0 0)
(1.86989e-06 0 0)
(1.86893e-06 0 0)
(1.86797e-06 0 0)
(1.86704e-06 0 0)
(1.86613e-06 0 0)
(1.86525e-06 0 0)
(1.8644e-06 0 0)
(1.8636e-06 0 0)
(1.86284e-06 0 0)
(1.86212e-06 0 0)
(1.86145e-06 0 0)
(1.86082e-06 0 0)
(1.86025e-06 0 0)
(1.85972e-06 0 0)
(1.85923e-06 0 0)
(1.85879e-06 0 0)
(1.8584e-06 0 0)
(1.85804e-06 0 0)
(1.85771e-06 0 0)
(1.85742e-06 0 0)
(1.85716e-06 0 0)
(1.85693e-06 0 0)
(1.85672e-06 0 0)
(1.85653e-06 0 0)
(1.85636e-06 0 0)
(1.85621e-06 0 0)
(1.85606e-06 0 0)
(1.85593e-06 0 0)
(1.8558e-06 0 0)
(1.85567e-06 0 0)
(1.85555e-06 0 0)
(1.85543e-06 0 0)
(1.85531e-06 0 0)
(1.85518e-06 0 0)
(1.85506e-06 0 0)
(1.85493e-06 0 0)
(1.85479e-06 0 0)
(1.85465e-06 0 0)
(1.85451e-06 0 0)
(1.85436e-06 0 0)
(1.8542e-06 0 0)
(1.85404e-06 0 0)
(1.85387e-06 0 0)
(1.8537e-06 0 0)
(1.85352e-06 0 0)
(1.85334e-06 0 0)
(1.85315e-06 0 0)
(1.85296e-06 0 0)
(1.85277e-06 0 0)
(1.85258e-06 0 0)
(1.85238e-06 0 0)
(1.85218e-06 0 0)
(1.85198e-06 0 0)
(1.85179e-06 0 0)
(1.85159e-06 0 0)
(1.85139e-06 0 0)
(1.8512e-06 0 0)
(1.851e-06 0 0)
(1.85081e-06 0 0)
(1.85062e-06 0 0)
(1.85044e-06 0 0)
(1.85026e-06 0 0)
(1.85008e-06 0 0)
(1.84991e-06 0 0)
(1.84974e-06 0 0)
(1.84958e-06 0 0)
(1.84942e-06 0 0)
(1.84927e-06 0 0)
(1.84912e-06 0 0)
(1.84898e-06 0 0)
(1.84884e-06 0 0)
(1.84871e-06 0 0)
(1.84859e-06 0 0)
(1.84847e-06 0 0)
(1.84836e-06 0 0)
(1.84826e-06 0 0)
(1.84816e-06 0 0)
(1.84806e-06 0 0)
(1.84798e-06 0 0)
(1.84789e-06 0 0)
(1.84782e-06 0 0)
(1.84775e-06 0 0)
(1.84768e-06 0 0)
(1.84763e-06 0 0)
(1.84757e-06 0 0)
(1.84752e-06 0 0)
(1.84748e-06 0 0)
(1.84744e-06 0 0)
(1.84741e-06 0 0)
(1.84738e-06 0 0)
(1.84736e-06 0 0)
(1.84734e-06 0 0)
(1.84733e-06 0 0)
(1.84732e-06 0 0)
(1.84732e-06 0 0)
(1.84732e-06 0 0)
(1.84732e-06 0 0)
(1.84732e-06 0 0)
(1.84733e-06 0 0)
(1.84735e-06 0 0)
(1.84737e-06 0 0)
(1.84739e-06 0 0)
(1.84742e-06 0 0)
(1.84745e-06 0 0)
(1.84748e-06 0 0)
(1.84752e-06 0 0)
(1.84756e-06 0 0)
(1.84761e-06 0 0)
(1.84766e-06 0 0)
(1.84771e-06 0 0)
(1.84776e-06 0 0)
(1.84782e-06 0 0)
(1.84789e-06 0 0)
(1.84795e-06 0 0)
(1.84802e-06 0 0)
(1.84809e-06 0 0)
(1.84816e-06 0 0)
(1.84824e-06 0 0)
(1.84832e-06 0 0)
(1.84841e-06 0 0)
(1.84849e-06 0 0)
(1.84858e-06 0 0)
(1.84868e-06 0 0)
(1.84877e-06 0 0)
(1.84887e-06 0 0)
(1.84897e-06 0 0)
(1.84908e-06 0 0)
(1.84919e-06 0 0)
(1.8493e-06 0 0)
(1.84941e-06 0 0)
(1.84953e-06 0 0)
(1.84966e-06 0 0)
(1.84978e-06 0 0)
(1.84991e-06 0 0)
(1.85005e-06 0 0)
(1.85019e-06 0 0)
(1.85034e-06 0 0)
(1.85049e-06 0 0)
(1.85065e-06 0 0)
(1.85082e-06 0 0)
(1.85099e-06 0 0)
(1.85117e-06 0 0)
(1.85137e-06 0 0)
(1.85157e-06 0 0)
(1.85178e-06 0 0)
(1.85201e-06 0 0)
(1.85225e-06 0 0)
(1.85251e-06 0 0)
(1.85278e-06 0 0)
(1.85306e-06 0 0)
(1.85337e-06 0 0)
(1.85369e-06 0 0)
(1.85404e-06 0 0)
(1.8544e-06 0 0)
(1.85479e-06 0 0)
(1.8552e-06 0 0)
(1.85564e-06 0 0)
(1.8561e-06 0 0)
(1.85659e-06 0 0)
(1.8571e-06 0 0)
(1.85764e-06 0 0)
(1.8582e-06 0 0)
(1.85879e-06 0 0)
(1.85941e-06 0 0)
(1.86005e-06 0 0)
(1.86072e-06 0 0)
(1.86141e-06 0 0)
(1.86212e-06 0 0)
(1.86285e-06 0 0)
(1.86359e-06 0 0)
(1.86436e-06 0 0)
(1.86513e-06 0 0)
(1.86591e-06 0 0)
(1.8667e-06 0 0)
(1.86749e-06 0 0)
(1.86827e-06 0 0)
(1.86905e-06 0 0)
(1.86982e-06 0 0)
(1.87057e-06 0 0)
(1.8713e-06 0 0)
(1.87201e-06 0 0)
(1.87268e-06 0 0)
(1.87332e-06 0 0)
(1.87392e-06 0 0)
(1.87447e-06 0 0)
(1.87497e-06 0 0)
(1.87541e-06 0 0)
(1.8758e-06 0 0)
(1.87613e-06 0 0)
(1.87639e-06 0 0)
(1.87657e-06 0 0)
(1.87669e-06 0 0)
(1.87674e-06 0 0)
(1.87676e-06 0 0)
(1.87675e-06 0 0)
(1.87668e-06 0 0)
(1.87648e-06 0 0)
(1.87616e-06 0 0)
(1.87579e-06 0 0)
(1.87534e-06 0 0)
(1.87484e-06 0 0)
(1.87428e-06 0 0)
(1.87367e-06 0 0)
(1.87302e-06 0 0)
(1.87233e-06 0 0)
(1.8716e-06 0 0)
(1.87085e-06 0 0)
(1.87008e-06 0 0)
(1.8693e-06 0 0)
(1.86851e-06 0 0)
(1.86772e-06 0 0)
(1.86693e-06 0 0)
(1.86615e-06 0 0)
(1.86539e-06 0 0)
(1.86465e-06 0 0)
(1.86393e-06 0 0)
(1.86324e-06 0 0)
(1.86257e-06 0 0)
(1.86194e-06 0 0)
(1.86134e-06 0 0)
(1.86077e-06 0 0)
(1.86024e-06 0 0)
(1.85975e-06 0 0)
(1.85929e-06 0 0)
(1.85886e-06 0 0)
(1.85846e-06 0 0)
(1.8581e-06 0 0)
(1.85776e-06 0 0)
(1.85746e-06 0 0)
(1.85717e-06 0 0)
(1.85692e-06 0 0)
(1.85668e-06 0 0)
(1.85646e-06 0 0)
(1.85626e-06 0 0)
(1.85608e-06 0 0)
(1.85591e-06 0 0)
(1.85575e-06 0 0)
(1.8556e-06 0 0)
(1.85546e-06 0 0)
(1.85532e-06 0 0)
(1.85519e-06 0 0)
(1.85506e-06 0 0)
(1.85494e-06 0 0)
(1.85481e-06 0 0)
(1.85469e-06 0 0)
(1.85456e-06 0 0)
(1.85444e-06 0 0)
(1.85431e-06 0 0)
(1.85418e-06 0 0)
(1.85404e-06 0 0)
(1.8539e-06 0 0)
(1.85376e-06 0 0)
(1.85362e-06 0 0)
(1.85348e-06 0 0)
(1.85333e-06 0 0)
(1.85317e-06 0 0)
(1.85302e-06 0 0)
(1.85286e-06 0 0)
(1.8527e-06 0 0)
(1.85254e-06 0 0)
(1.85238e-06 0 0)
(1.85222e-06 0 0)
(1.85205e-06 0 0)
(1.85189e-06 0 0)
(1.85172e-06 0 0)
(1.85156e-06 0 0)
(1.85139e-06 0 0)
(1.85123e-06 0 0)
(1.85107e-06 0 0)
(1.85091e-06 0 0)
(1.85075e-06 0 0)
(1.85059e-06 0 0)
(1.85044e-06 0 0)
(1.85029e-06 0 0)
(1.85014e-06 0 0)
(1.84999e-06 0 0)
(1.84985e-06 0 0)
(1.84972e-06 0 0)
(1.84959e-06 0 0)
(1.84946e-06 0 0)
(1.84933e-06 0 0)
(1.84922e-06 0 0)
(1.8491e-06 0 0)
(1.84899e-06 0 0)
(1.84889e-06 0 0)
(1.84879e-06 0 0)
(1.8487e-06 0 0)
(1.84861e-06 0 0)
(1.84853e-06 0 0)
(1.84846e-06 0 0)
(1.84839e-06 0 0)
(1.84832e-06 0 0)
(1.84826e-06 0 0)
(1.84821e-06 0 0)
(1.84816e-06 0 0)
(1.84812e-06 0 0)
(1.84808e-06 0 0)
(1.84805e-06 0 0)
(1.84802e-06 0 0)
(1.848e-06 0 0)
(1.84798e-06 0 0)
(1.84797e-06 0 0)
(1.84796e-06 0 0)
(1.84796e-06 0 0)
(1.84796e-06 0 0)
(1.84796e-06 0 0)
(1.84796e-06 0 0)
(1.84798e-06 0 0)
(1.84799e-06 0 0)
(1.84802e-06 0 0)
(1.84804e-06 0 0)
(1.84807e-06 0 0)
(1.8481e-06 0 0)
(1.84814e-06 0 0)
(1.84817e-06 0 0)
(1.84822e-06 0 0)
(1.84826e-06 0 0)
(1.84831e-06 0 0)
(1.84836e-06 0 0)
(1.84841e-06 0 0)
(1.84847e-06 0 0)
(1.84853e-06 0 0)
(1.84859e-06 0 0)
(1.84866e-06 0 0)
(1.84873e-06 0 0)
(1.8488e-06 0 0)
(1.84887e-06 0 0)
(1.84895e-06 0 0)
(1.84903e-06 0 0)
(1.84911e-06 0 0)
(1.8492e-06 0 0)
(1.84929e-06 0 0)
(1.84938e-06 0 0)
(1.84947e-06 0 0)
(1.84957e-06 0 0)
(1.84968e-06 0 0)
(1.84978e-06 0 0)
(1.8499e-06 0 0)
(1.85001e-06 0 0)
(1.85013e-06 0 0)
(1.85026e-06 0 0)
(1.85039e-06 0 0)
(1.85053e-06 0 0)
(1.85068e-06 0 0)
(1.85083e-06 0 0)
(1.85099e-06 0 0)
(1.85115e-06 0 0)
(1.85133e-06 0 0)
(1.85151e-06 0 0)
(1.85171e-06 0 0)
(1.85191e-06 0 0)
(1.85213e-06 0 0)
(1.85236e-06 0 0)
(1.8526e-06 0 0)
(1.85286e-06 0 0)
(1.85313e-06 0 0)
(1.85341e-06 0 0)
(1.85371e-06 0 0)
(1.85403e-06 0 0)
(1.85437e-06 0 0)
(1.85472e-06 0 0)
(1.85509e-06 0 0)
(1.85549e-06 0 0)
(1.8559e-06 0 0)
(1.85633e-06 0 0)
(1.85678e-06 0 0)
(1.85725e-06 0 0)
(1.85775e-06 0 0)
(1.85826e-06 0 0)
(1.8588e-06 0 0)
(1.85935e-06 0 0)
(1.85992e-06 0 0)
(1.86052e-06 0 0)
(1.86112e-06 0 0)
(1.86175e-06 0 0)
(1.86239e-06 0 0)
(1.86304e-06 0 0)
(1.8637e-06 0 0)
(1.86437e-06 0 0)
(1.86505e-06 0 0)
(1.86573e-06 0 0)
(1.86642e-06 0 0)
(1.8671e-06 0 0)
(1.86777e-06 0 0)
(1.86844e-06 0 0)
(1.8691e-06 0 0)
(1.86975e-06 0 0)
(1.87037e-06 0 0)
(1.87098e-06 0 0)
(1.87156e-06 0 0)
(1.87211e-06 0 0)
(1.87263e-06 0 0)
(1.87311e-06 0 0)
(1.87356e-06 0 0)
(1.87396e-06 0 0)
(1.87432e-06 0 0)
(1.87463e-06 0 0)
(1.87489e-06 0 0)
(1.8751e-06 0 0)
(1.87525e-06 0 0)
(1.87535e-06 0 0)
(1.87539e-06 0 0)
(1.8754e-06 0 0)
(1.8754e-06 0 0)
(1.87536e-06 0 0)
(1.8752e-06 0 0)
(1.87496e-06 0 0)
(1.87467e-06 0 0)
(1.87433e-06 0 0)
(1.87394e-06 0 0)
(1.87351e-06 0 0)
(1.87303e-06 0 0)
(1.87252e-06 0 0)
(1.87197e-06 0 0)
(1.8714e-06 0 0)
(1.8708e-06 0 0)
(1.87018e-06 0 0)
(1.86955e-06 0 0)
(1.86891e-06 0 0)
(1.86826e-06 0 0)
(1.86761e-06 0 0)
(1.86696e-06 0 0)
(1.86632e-06 0 0)
(1.86569e-06 0 0)
(1.86507e-06 0 0)
(1.86446e-06 0 0)
(1.86388e-06 0 0)
(1.86332e-06 0 0)
(1.86278e-06 0 0)
(1.86226e-06 0 0)
(1.86176e-06 0 0)
(1.8613e-06 0 0)
(1.86085e-06 0 0)
(1.86043e-06 0 0)
(1.86004e-06 0 0)
(1.85967e-06 0 0)
(1.85933e-06 0 0)
(1.859e-06 0 0)
(1.8587e-06 0 0)
(1.85842e-06 0 0)
(1.85816e-06 0 0)
(1.85791e-06 0 0)
(1.85768e-06 0 0)
(1.85746e-06 0 0)
(1.85726e-06 0 0)
(1.85707e-06 0 0)
(1.85688e-06 0 0)
(1.85671e-06 0 0)
(1.85654e-06 0 0)
(1.85638e-06 0 0)
(1.85623e-06 0 0)
(1.85607e-06 0 0)
(1.85592e-06 0 0)
(1.85578e-06 0 0)
(1.85563e-06 0 0)
(1.85548e-06 0 0)
(1.85533e-06 0 0)
(1.85518e-06 0 0)
(1.85503e-06 0 0)
(1.85488e-06 0 0)
(1.85473e-06 0 0)
(1.85457e-06 0 0)
(1.85441e-06 0 0)
(1.85425e-06 0 0)
(1.85409e-06 0 0)
(1.85392e-06 0 0)
(1.85375e-06 0 0)
(1.85358e-06 0 0)
(1.85341e-06 0 0)
(1.85323e-06 0 0)
(1.85306e-06 0 0)
(1.85288e-06 0 0)
(1.8527e-06 0 0)
(1.85252e-06 0 0)
(1.85234e-06 0 0)
(1.85216e-06 0 0)
(1.85197e-06 0 0)
(1.85179e-06 0 0)
(1.85161e-06 0 0)
(1.85143e-06 0 0)
)
;

boundaryField
{
    inlet
    {
        type            fixedValue;
        value           uniform (2.74882e-06 0 0);
    }
    outlet
    {
        type            zeroGradient;
    }
    emptyWalls
    {
        type            empty;
    }
}


// ************************************************************************* //
