/*--------------------------------*- C++ -*----------------------------------*\
  =========                 |
  \\      /  F ield         | OpenFOAM: The Open Source CFD Toolbox
   \\    /   O peration     | Website:  https://openfoam.org
    \\  /    A nd           | Version:  9
     \\/     M anipulation  |
\*---------------------------------------------------------------------------*/
FoamFile
{
    format      ascii;
    class       volScalarField;
    location    "17550";
    object      p;
}
// * * * * * * * * * * * * * * * * * * * * * * * * * * * * * * * * * * * * * //

dimensions      [0 0 0 0 0 0 0];

internalField   nonuniform List<scalar> 
1000
(
201531
201106
200684
200264
199847
199433
199022
198613
198208
197805
197404
197006
196611
196219
195828
195440
195054
194669
194286
193904
193524
193145
192770
192410
192099
191941
191842
191753
191666
191581
191497
191413
191329
191246
191163
191080
190998
190915
190833
190751
190669
190587
190505
190423
190342
190260
190178
190097
190015
189933
189852
189770
189688
189607
189525
189444
189362
189280
189198
189117
189035
188953
188871
188788
188706
188624
188541
188458
188375
188292
188209
188125
188040
187956
187871
187786
187700
187614
187528
187441
187354
187267
187179
187091
187002
186913
186824
186735
186645
186555
186464
186373
186282
186190
186098
186006
185914
185821
185727
185634
185540
185446
185351
185256
185161
185065
184969
184873
184777
184680
184583
184485
184388
184290
184191
184092
183993
183894
183794
183694
183594
183493
183392
183291
183189
183087
182985
182882
182780
182676
182573
182469
182364
182260
182155
182050
181944
181839
181733
181626
181520
181413
181305
181198
181090
180982
180873
180764
180655
180546
180436
180326
180216
180106
179995
179884
179772
179661
179549
179436
179324
179211
179098
178984
178870
178756
178642
178527
178412
178297
178182
178066
177950
177834
177717
177600
177483
177366
177248
177130
177011
176893
176774
176655
176536
176416
176296
176176
176055
175934
175813
175692
175570
175449
175326
175204
175081
174958
174835
174712
174588
174464
174340
174215
174090
173965
173840
173714
173588
173462
173336
173209
173082
172955
172827
172700
172572
172443
172315
172186
172057
171928
171798
171668
171538
171408
171277
171147
171016
170884
170753
170621
170489
170356
170224
170091
169958
169825
169691
169557
169423
169289
169155
169020
168885
168750
168614
168478
168342
168206
168070
167933
167796
167659
167521
167384
167246
167107
166969
166830
166691
166552
166412
166272
166132
165992
165851
165711
165569
165428
165286
165145
165002
164860
164717
164575
164431
164288
164145
164001
163857
163712
163568
163423
163278
163133
162987
162841
162695
162549
162402
162256
162109
161961
161814
161666
161518
161370
161222
161073
160924
160775
160625
160476
160326
160176
160025
159875
159724
159573
159421
159270
159118
158966
158814
158661
158508
158355
158202
158048
157895
157741
157587
157432
157278
157123
156967
156812
156656
156501
156345
156188
156032
155875
155718
155561
155403
155245
155088
154929
154771
154612
154453
154294
154135
153975
153816
153656
153495
153335
153174
153013
152852
152691
152529
152367
152205
152043
151880
151717
151554
151391
151228
151064
150900
150736
150571
150407
150242
150077
149912
149746
149580
149414
149248
149082
148915
148748
148581
148414
148246
148079
147911
147743
147574
147406
147237
147068
146898
146729
146559
146389
146219
146049
145878
145708
145537
145366
145194
145023
144851
144679
144507
144334
144161
143988
143815
143642
143468
143294
143120
142946
142772
142597
142422
142246
142071
141895
141719
141543
141367
141190
141013
140836
140659
140481
140303
140125
139947
139768
139590
139411
139231
139052
138872
138692
138512
138332
138151
137970
137789
137608
137427
137245
137063
136881
136699
136516
136333
136150
135967
135783
135600
135416
135231
135047
134862
134678
134492
134307
134122
133936
133750
133564
133377
133191
133004
132817
132629
132442
132254
132066
131878
131689
131500
131311
131122
130933
130743
130554
130363
130173
129983
129792
129601
129410
129218
129027
128835
128643
128451
128258
128065
127872
127679
127486
127292
127098
126904
126710
126515
126320
126125
125930
125735
125539
125343
125147
124951
124754
124557
124360
124163
123966
123768
123570
123372
123173
122975
122776
122577
122378
122178
121978
121779
121578
121378
121177
120977
120775
120574
120373
120171
119969
119767
119564
119362
119159
118956
118752
118549
118345
118141
117937
117733
117528
117323
117118
116913
116707
116501
116295
116089
115883
115676
115469
115262
115055
114847
114640
114432
114223
114015
113806
113598
113389
113179
112970
112760
112550
112340
112130
111919
111708
111497
111286
111074
110863
110651
110438
110226
110013
109800
109587
109374
109160
108946
108732
108517
108303
108088
107873
107657
107442
107226
107009
106793
106576
106359
106142
105925
105707
105489
105271
105053
104834
104615
104396
104176
103957
103737
103517
103296
103076
102855
102634
102412
102190
101969
101746
101524
101301
101078
100855
100632
100408
100184
99960
99735.6
99510.9
99285.9
99060.8
98835.3
98609.6
98383.6
98157.4
97930.9
97704.2
97477.2
97249.9
97022.4
96794.6
96566.6
96338.3
96109.8
95880.9
95651.9
95422.5
95192.9
94963.1
94732.9
94502.5
94271.9
94041
93809.8
93578.4
93346.7
93114.7
92882.5
92650.1
92417.4
92184.4
91951.2
91717.7
91484
91250.1
91015.9
90781.5
90546.9
90312
90077
89841.7
89606.3
89370.7
89134.9
88898.9
88662.8
88426.6
88190.2
87953.7
87717.1
87480.4
87243.7
87006.8
86769.9
86532.9
86295.9
86058.9
85821.8
85584.7
85347.6
85110.4
84873.2
84636
84398.8
84161.5
83924.1
83686.6
83448.8
83210.7
82971.7
82731.4
82489
82243.1
81992.2
81735
81471.1
81201.5
80928.1
80652.4
80375.7
80098.4
79820.8
79543.1
79265.4
78987.6
78709.9
78432.1
78154.3
77876.5
77598.7
77320.9
77043.2
76765.4
76487.6
76209.9
75932.1
75654.4
75376.6
75098.9
74821.1
74543.4
74265.7
73988
73710.3
73432.6
73154.9
72877.2
72599.6
72321.9
72044.3
71766.6
71489
71211.4
70933.8
70656.2
70378.6
70101.1
69823.5
69546
69268.5
68991
68713.5
68436
68158.5
67881.1
67603.6
67326.2
67048.8
66771.4
66494
66216.6
65939.2
65661.8
65384.5
65107.1
64829.8
64552.4
64275.1
63997.8
63720.4
63443.1
63165.8
62888.4
62611.1
62333.7
62056.4
61779
61501.7
61224.3
60946.9
60669.5
60392.1
60114.7
59837.3
59559.9
59282.5
59005
58727.5
58450.1
58172.6
57895.1
57617.6
57340
57062.5
56785
56507.4
56229.8
55952.3
55674.7
55397.1
55119.5
54841.9
54564.2
54286.6
54009
53731.3
53453.7
53176
52898.4
52620.7
52343.1
52065.4
51787.7
51510
51232.3
50954.7
50677
50399.3
50121.6
49843.9
49566.2
49288.5
49010.8
48733.1
48455.3
48177.6
47899.9
47622.2
47344.5
47066.8
46789
46511.3
46233.6
45955.8
45678.1
45400.4
45122.6
44844.9
44567.1
44289.4
44011.6
43733.9
43456.1
43178.3
42900.6
42622.8
42345
42067.3
41789.5
41511.7
41233.9
40956.2
40678.4
40400.6
40122.8
39845
39567.2
39289.4
39011.6
38733.8
38456
38178.2
37900.4
37622.6
37344.7
37066.9
36789.1
36511.3
36233.5
35955.6
35677.8
35400
35122.2
34844.3
34566.5
34288.7
34010.9
33733
33455.2
33177.4
32899.5
32621.7
32343.8
32066
31788.2
31510.3
31232.5
30954.7
30676.8
30399
30121.2
29843.3
29565.5
29287.6
29009.8
28732
28454.1
28176.3
27898.5
27620.6
27342.8
27065
26787.2
26509.3
26231.5
25953.7
25675.8
25398
25120.2
24842.4
24564.6
24286.7
24008.9
23731.1
23453.3
23175.5
22897.7
22619.9
22342.1
22064.3
21786.5
21508.7
21230.9
20953.1
20675.3
20397.6
20119.8
19842
19564.3
19286.5
19008.7
18731
18453.2
18175.5
17897.8
17620.1
17342.3
17064.6
16786.9
16509.2
16231.5
15953.9
15676.2
15398.5
15120.9
14843.2
14565.6
14288
14010.4
13732.8
13455.2
13177.6
12900.1
12622.5
12345
12067.5
11790
11512.5
11235
10957.5
10680
10402.6
10125.1
9847.69
9570.27
9292.85
9015.45
8738.05
8460.66
8183.28
7905.91
7628.54
7351.17
7073.81
6796.45
6519.1
6241.74
5964.39
5687.03
5409.68
5132.32
4854.97
4577.6
4300.24
4022.86
3745.49
3468.1
3190.71
2913.31
2635.9
2358.48
2081.05
1803.61
1526.16
1248.7
971.23
693.749
416.258
138.756
)
;

boundaryField
{
    inlet
    {
        type            darcyGradPressure;
        gradient        uniform 116344;
        Mf              Mf;
        phi             phi;
        value           uniform 201744;
    }
    outlet
    {
        type            fixedValue;
        value           uniform 0;
    }
    emptyWalls
    {
        type            empty;
    }
}


// ************************************************************************* //
