/*--------------------------------*- C++ -*----------------------------------*\
  =========                 |
  \\      /  F ield         | OpenFOAM: The Open Source CFD Toolbox
   \\    /   O peration     | Website:  https://openfoam.org
    \\  /    A nd           | Version:  9
     \\/     M anipulation  |
\*---------------------------------------------------------------------------*/
FoamFile
{
    format      ascii;
    class       volScalarField;
    location    "110000";
    object      krc;
}
// * * * * * * * * * * * * * * * * * * * * * * * * * * * * * * * * * * * * * //

dimensions      [0 0 0 0 0 0 0];

internalField   nonuniform List<scalar> 
100
(
1.71532e-21
1.19698e-23
1.36224e-23
1.62706e-23
1.79569e-24
1.45223e-23
2.72577e-24
1.26163e-25
1.06626e-23
6.33359e-24
1.46008e-23
9.56473e-26
2.63937e-24
2.98654e-24
9.89259e-24
1.30792e-23
1.5232e-23
7.71294e-24
7.61991e-24
9.67845e-24
5.23089e-24
2.40807e-23
4.29323e-24
1.76302e-24
2.01061e-23
8.46016e-24
1.20776e-23
1.32666e-23
5.33011e-24
2.94803e-23
2.26234e-24
4.89774e-24
2.00773e-23
2.07891e-23
5.69341e-25
1.56261e-23
1.04892e-25
5.25611e-27
6.16053e-24
1.21694e-23
8.89395e-24
4.78409e-24
2.01844e-23
1.13284e-23
5.12159e-24
1.41454e-28
1.03607e-23
1.00204e-23
1.11641e-23
1.53173e-23
4.49213e-25
2.19985e-25
2.0459e-23
1.28148e-23
8.86681e-24
9.82062e-24
9.47728e-24
1.46716e-23
1.08821e-23
1.02976e-23
1.50098e-23
8.93145e-24
3.09855e-24
1.04377e-23
1.00266e-25
1.53363e-23
1.40035e-23
1.68559e-23
1.55257e-23
4.89432e-25
1.32489e-23
9.73666e-24
3.48363e-26
4.9167e-26
1.96007e-25
4.76865e-24
1.24828e-25
2.48076e-25
1.37822e-23
1.37738e-25
1.45804e-23
1.5786e-23
3.94018e-26
9.84721e-24
5.54853e-26
1.37563e-25
9.70117e-26
9.61018e-24
1.17623e-26
9.85904e-24
1.2611e-23
9.71218e-24
5.90162e-26
5.08364e-24
1.01527e-26
4.32305e-26
8.9822e-24
1.46608e-23
1.54047e-23
1.09044e-23
)
;

boundaryField
{
    inlet
    {
        type            calculated;
        value           uniform 1.71532e-21;
    }
    outlet
    {
        type            calculated;
        value           uniform 1.09044e-23;
    }
    emptyWalls
    {
        type            empty;
    }
}


// ************************************************************************* //
