/*--------------------------------*- C++ -*----------------------------------*\
  =========                 |
  \\      /  F ield         | OpenFOAM: The Open Source CFD Toolbox
   \\    /   O peration     | Website:  https://openfoam.org
    \\  /    A nd           | Version:  9
     \\/     M anipulation  |
\*---------------------------------------------------------------------------*/
FoamFile
{
    format      ascii;
    class       volScalarField;
    location    "4600";
    object      kra;
}
// * * * * * * * * * * * * * * * * * * * * * * * * * * * * * * * * * * * * * //

dimensions      [0 0 0 0 0 0 0];

internalField   nonuniform List<scalar> 
100
(
4.07644e-05
3.0122e-05
3.26886e-05
3.12432e-05
3.13337e-05
3.09467e-05
3.07677e-05
3.05463e-05
3.03638e-05
3.01873e-05
3.00248e-05
2.98712e-05
2.97261e-05
2.95882e-05
2.94567e-05
2.93307e-05
2.92097e-05
2.90932e-05
2.89806e-05
2.88715e-05
2.87656e-05
2.86626e-05
2.85621e-05
2.84638e-05
2.83674e-05
2.82726e-05
2.81791e-05
2.80865e-05
2.79945e-05
2.79024e-05
2.78096e-05
2.77153e-05
2.76181e-05
2.75164e-05
2.74074e-05
2.73102e-05
2.73992e-05
2.74124e-05
2.74514e-05
2.7478e-05
2.75073e-05
2.75337e-05
2.75597e-05
2.75845e-05
2.76084e-05
2.76315e-05
2.76539e-05
2.76755e-05
2.76964e-05
2.77167e-05
2.77363e-05
2.77553e-05
2.77736e-05
2.77915e-05
2.78087e-05
2.78254e-05
2.78416e-05
2.78573e-05
2.78725e-05
2.78873e-05
2.79016e-05
2.79154e-05
2.79288e-05
2.79418e-05
2.79543e-05
2.79665e-05
2.79782e-05
2.79894e-05
2.80003e-05
2.80108e-05
2.80208e-05
2.80305e-05
2.80397e-05
2.80485e-05
2.8057e-05
2.80651e-05
2.80727e-05
2.808e-05
2.80869e-05
2.80935e-05
2.80997e-05
2.81055e-05
2.8111e-05
2.81161e-05
2.81208e-05
2.81253e-05
2.81293e-05
2.8133e-05
2.81364e-05
2.81394e-05
2.81421e-05
2.81444e-05
2.81464e-05
2.81481e-05
2.81493e-05
2.81503e-05
2.81508e-05
2.81511e-05
2.81509e-05
7.27331e-05
)
;

boundaryField
{
    inlet
    {
        type            calculated;
        value           uniform 1.22446e-05;
    }
    outlet
    {
        type            calculated;
        value           uniform 8.61337e-06;
    }
    emptyWalls
    {
        type            empty;
    }
}


// ************************************************************************* //
