/*--------------------------------*- C++ -*----------------------------------*\
  =========                 |
  \\      /  F ield         | OpenFOAM: The Open Source CFD Toolbox
   \\    /   O peration     | Website:  https://openfoam.org
    \\  /    A nd           | Version:  9
     \\/     M anipulation  |
\*---------------------------------------------------------------------------*/
FoamFile
{
    format      ascii;
    class       volScalarField;
    location    "4600";
    object      p;
}
// * * * * * * * * * * * * * * * * * * * * * * * * * * * * * * * * * * * * * //

dimensions      [0 0 0 0 0 0 0];

internalField   nonuniform List<scalar> 
100
(
6.1004e+06
6.09243e+06
6.08165e+06
6.07171e+06
6.06132e+06
6.05097e+06
6.04049e+06
6.02996e+06
6.01935e+06
6.00869e+06
5.99797e+06
5.9872e+06
5.97637e+06
5.96551e+06
5.9546e+06
5.94364e+06
5.93265e+06
5.92161e+06
5.91054e+06
5.89944e+06
5.8883e+06
5.87712e+06
5.86591e+06
5.85468e+06
5.84341e+06
5.8321e+06
5.82077e+06
5.80942e+06
5.79803e+06
5.78661e+06
5.77516e+06
5.76369e+06
5.75219e+06
5.74065e+06
5.72909e+06
5.71749e+06
5.70587e+06
5.6943e+06
5.68275e+06
5.67123e+06
5.65973e+06
5.64825e+06
5.6368e+06
5.62538e+06
5.61397e+06
5.60259e+06
5.59123e+06
5.57989e+06
5.56858e+06
5.55728e+06
5.54601e+06
5.53475e+06
5.52352e+06
5.51231e+06
5.50112e+06
5.48994e+06
5.47879e+06
5.46766e+06
5.45655e+06
5.44545e+06
5.43438e+06
5.42333e+06
5.41229e+06
5.40127e+06
5.39028e+06
5.3793e+06
5.36834e+06
5.3574e+06
5.34648e+06
5.33558e+06
5.32469e+06
5.31382e+06
5.30298e+06
5.29215e+06
5.28134e+06
5.27054e+06
5.25977e+06
5.24901e+06
5.23827e+06
5.22755e+06
5.21685e+06
5.20617e+06
5.1955e+06
5.18485e+06
5.17422e+06
5.16361e+06
5.15302e+06
5.14244e+06
5.13188e+06
5.12134e+06
5.11082e+06
5.10031e+06
5.08983e+06
5.07936e+06
5.0689e+06
5.05847e+06
5.04805e+06
5.03766e+06
5.02728e+06
5.01691e+06
)
;

boundaryField
{
    inlet
    {
        type            darcyGradPressure;
        gradient        uniform 3.90469e+06;
        Mf              Mf;
        phi             phi;
        value           uniform 6.10821e+06;
    }
    outlet
    {
        type            fixedValue;
        value           uniform 5e+06;
    }
    emptyWalls
    {
        type            empty;
    }
}


// ************************************************************************* //
