/*--------------------------------*- C++ -*----------------------------------*\
  =========                 |
  \\      /  F ield         | OpenFOAM: The Open Source CFD Toolbox
   \\    /   O peration     | Website:  https://openfoam.org
    \\  /    A nd           | Version:  9
     \\/     M anipulation  |
\*---------------------------------------------------------------------------*/
FoamFile
{
    format      ascii;
    class       surfaceScalarField;
    location    "4600";
    object      phia;
}
// * * * * * * * * * * * * * * * * * * * * * * * * * * * * * * * * * * * * * //

dimensions      [0 2 0 0 0 0 0];

internalField   nonuniform List<scalar> 
99
(
1.42076e-08
1.42022e-08
1.41963e-08
1.419e-08
1.41834e-08
1.41765e-08
1.41694e-08
1.41621e-08
1.41546e-08
1.41469e-08
1.41391e-08
1.41311e-08
1.41229e-08
1.41146e-08
1.41062e-08
1.40976e-08
1.40889e-08
1.408e-08
1.4071e-08
1.40619e-08
1.40527e-08
1.40433e-08
1.40337e-08
1.4024e-08
1.40141e-08
1.40041e-08
1.39938e-08
1.39833e-08
1.39724e-08
1.39613e-08
1.39497e-08
1.39375e-08
1.39246e-08
1.39107e-08
1.38953e-08
1.38764e-08
1.386e-08
1.38437e-08
1.38281e-08
1.38127e-08
1.37975e-08
1.37824e-08
1.37673e-08
1.37523e-08
1.37372e-08
1.37221e-08
1.3707e-08
1.36917e-08
1.36764e-08
1.3661e-08
1.36455e-08
1.36298e-08
1.36141e-08
1.35982e-08
1.35822e-08
1.35661e-08
1.35498e-08
1.35335e-08
1.35171e-08
1.35005e-08
1.34838e-08
1.34671e-08
1.34502e-08
1.34332e-08
1.34161e-08
1.33989e-08
1.33815e-08
1.33641e-08
1.33465e-08
1.33288e-08
1.33109e-08
1.32929e-08
1.32748e-08
1.32565e-08
1.32381e-08
1.32196e-08
1.32009e-08
1.31821e-08
1.31631e-08
1.3144e-08
1.31248e-08
1.31054e-08
1.30859e-08
1.30662e-08
1.30464e-08
1.30265e-08
1.30064e-08
1.29861e-08
1.29657e-08
1.29451e-08
1.29244e-08
1.29035e-08
1.28825e-08
1.28612e-08
1.28398e-08
1.28183e-08
1.27965e-08
1.27745e-08
1.27524e-08
)
;

boundaryField
{
    inlet
    {
        type            calculated;
        value           uniform -1.42126e-08;
    }
    outlet
    {
        type            calculated;
        value           uniform 1.27385e-08;
    }
    emptyWalls
    {
        type            empty;
        value           nonuniform List<scalar> 0();
    }
}


// ************************************************************************* //
