/*--------------------------------*- C++ -*----------------------------------*\
  =========                 |
  \\      /  F ield         | OpenFOAM: The Open Source CFD Toolbox
   \\    /   O peration     | Website:  https://openfoam.org
    \\  /    A nd           | Version:  9
     \\/     M anipulation  |
\*---------------------------------------------------------------------------*/
FoamFile
{
    format      ascii;
    class       surfaceScalarField;
    location    "4600";
    object      phib;
}
// * * * * * * * * * * * * * * * * * * * * * * * * * * * * * * * * * * * * * //

dimensions      [0 2 0 0 0 0 0];

internalField   nonuniform List<scalar> 
99
(
6.09095e-09
6.09071e-09
6.09046e-09
6.0902e-09
6.08992e-09
6.08963e-09
6.08933e-09
6.08902e-09
6.0887e-09
6.08837e-09
6.08804e-09
6.0877e-09
6.08736e-09
6.08701e-09
6.08665e-09
6.08629e-09
6.08592e-09
6.08555e-09
6.08517e-09
6.08479e-09
6.0844e-09
6.084e-09
6.0836e-09
6.08319e-09
6.08278e-09
6.08236e-09
6.08193e-09
6.08149e-09
6.08104e-09
6.08057e-09
6.08009e-09
6.07958e-09
6.07904e-09
6.07845e-09
6.07781e-09
6.07882e-09
6.07914e-09
6.07971e-09
6.08016e-09
6.08065e-09
6.08113e-09
6.08161e-09
6.08209e-09
6.08258e-09
6.08308e-09
6.08358e-09
6.0841e-09
6.08462e-09
6.08517e-09
6.08574e-09
6.08632e-09
6.08693e-09
6.08756e-09
6.08822e-09
6.08889e-09
6.08957e-09
6.09027e-09
6.09097e-09
6.09167e-09
6.09237e-09
6.09307e-09
6.09377e-09
6.09446e-09
6.09516e-09
6.09586e-09
6.09657e-09
6.09728e-09
6.098e-09
6.09874e-09
6.09949e-09
6.10025e-09
6.10103e-09
6.10183e-09
6.10265e-09
6.10349e-09
6.10434e-09
6.10521e-09
6.1061e-09
6.107e-09
6.10792e-09
6.10885e-09
6.10979e-09
6.11074e-09
6.11171e-09
6.11268e-09
6.11366e-09
6.11466e-09
6.11566e-09
6.11668e-09
6.1177e-09
6.11875e-09
6.1198e-09
6.12088e-09
6.12197e-09
6.12308e-09
6.12421e-09
6.12536e-09
6.12653e-09
6.12773e-09
)
;

boundaryField
{
    inlet
    {
        type            calculated;
        value           uniform -6.09112e-09;
    }
    outlet
    {
        type            calculated;
        value           uniform 6.12753e-09;
    }
    emptyWalls
    {
        type            empty;
        value           nonuniform List<scalar> 0();
    }
}


// ************************************************************************* //
