/*--------------------------------*- C++ -*----------------------------------*\
  =========                 |
  \\      /  F ield         | OpenFOAM: The Open Source CFD Toolbox
   \\    /   O peration     | Website:  https://openfoam.org
    \\  /    A nd           | Version:  9
     \\/     M anipulation  |
\*---------------------------------------------------------------------------*/
FoamFile
{
    format      ascii;
    class       surfaceScalarField;
    location    "4600";
    object      phic;
}
// * * * * * * * * * * * * * * * * * * * * * * * * * * * * * * * * * * * * * //

dimensions      [0 2 0 0 0 0 0];

internalField   nonuniform List<scalar> 
99
(
5.19781e-12
1.07875e-11
1.69942e-11
2.35442e-11
3.04286e-11
3.75833e-11
4.4983e-11
5.26018e-11
6.04218e-11
6.84281e-11
7.66089e-11
8.49548e-11
9.34579e-11
1.02112e-10
1.10913e-10
1.19856e-10
1.28939e-10
1.38161e-10
1.47523e-10
1.57025e-10
1.6667e-10
1.76464e-10
1.86413e-10
1.96527e-10
2.06821e-10
2.17312e-10
2.28025e-10
2.38994e-10
2.50264e-10
2.61899e-10
2.73988e-10
2.86658e-10
3.00098e-10
3.14596e-10
3.30613e-10
3.4856e-10
3.64586e-10
3.80337e-10
3.95482e-10
4.10403e-10
4.25118e-10
4.39737e-10
4.54299e-10
4.68848e-10
4.8341e-10
4.98007e-10
5.12654e-10
5.27364e-10
5.42146e-10
5.57008e-10
5.71955e-10
5.86991e-10
6.02122e-10
6.17349e-10
6.32675e-10
6.48103e-10
6.63635e-10
6.79271e-10
6.95014e-10
7.10865e-10
7.26824e-10
7.42892e-10
7.59071e-10
7.75361e-10
7.91764e-10
8.08279e-10
8.24908e-10
8.41651e-10
8.58509e-10
8.75483e-10
8.92573e-10
9.09781e-10
9.27107e-10
9.44553e-10
9.62118e-10
9.79805e-10
9.97614e-10
1.01555e-09
1.0336e-09
1.05179e-09
1.0701e-09
1.08854e-09
1.1071e-09
1.12581e-09
1.14464e-09
1.16361e-09
1.18272e-09
1.20197e-09
1.22136e-09
1.24089e-09
1.26057e-09
1.2804e-09
1.30038e-09
1.32052e-09
1.34081e-09
1.36127e-09
1.38189e-09
1.40269e-09
1.42366e-09
)
;

boundaryField
{
    inlet
    {
        type            calculated;
        value           uniform 0;
    }
    outlet
    {
        type            calculated;
        value           uniform 1.43775e-09;
    }
    emptyWalls
    {
        type            empty;
        value           nonuniform List<scalar> 0();
    }
}


// ************************************************************************* //
