/*--------------------------------*- C++ -*----------------------------------*\
  =========                 |
  \\      /  F ield         | OpenFOAM: The Open Source CFD Toolbox
   \\    /   O peration     | Website:  https://openfoam.org
    \\  /    A nd           | Version:  9
     \\/     M anipulation  |
\*---------------------------------------------------------------------------*/
FoamFile
{
    format      ascii;
    class       volVectorField;
    location    "4600";
    object      Ua;
}
// * * * * * * * * * * * * * * * * * * * * * * * * * * * * * * * * * * * * * //

dimensions      [0 0 0 0 0 0 0];

internalField   nonuniform List<vector> 
100
(
(0 0 8.97964e-06)
(0 0 1.13039e-05)
(0 0 1.12994e-05)
(0 0 1.12945e-05)
(0 0 1.12894e-05)
(0 0 1.12841e-05)
(0 0 1.12785e-05)
(0 0 1.12728e-05)
(0 0 1.12669e-05)
(0 0 1.12608e-05)
(0 0 1.12546e-05)
(0 0 1.12483e-05)
(0 0 1.12419e-05)
(0 0 1.12354e-05)
(0 0 1.12287e-05)
(0 0 1.12219e-05)
(0 0 1.1215e-05)
(0 0 1.12081e-05)
(0 0 1.1201e-05)
(0 0 1.11938e-05)
(0 0 1.11864e-05)
(0 0 1.1179e-05)
(0 0 1.11715e-05)
(0 0 1.11638e-05)
(0 0 1.1156e-05)
(0 0 1.11481e-05)
(0 0 1.114e-05)
(0 0 1.11317e-05)
(0 0 1.11232e-05)
(0 0 1.11145e-05)
(0 0 1.11054e-05)
(0 0 1.10959e-05)
(0 0 1.1086e-05)
(0 0 1.10753e-05)
(0 0 1.10637e-05)
(0 0 1.105e-05)
(0 0 1.1036e-05)
(0 0 1.1023e-05)
(0 0 1.10103e-05)
(0 0 1.09979e-05)
(0 0 1.09857e-05)
(0 0 1.09737e-05)
(0 0 1.09617e-05)
(0 0 1.09497e-05)
(0 0 1.09377e-05)
(0 0 1.09257e-05)
(0 0 1.09137e-05)
(0 0 1.09016e-05)
(0 0 1.08894e-05)
(0 0 1.08772e-05)
(0 0 1.08649e-05)
(0 0 1.08525e-05)
(0 0 1.084e-05)
(0 0 1.08274e-05)
(0 0 1.08147e-05)
(0 0 1.08019e-05)
(0 0 1.07891e-05)
(0 0 1.07761e-05)
(0 0 1.07631e-05)
(0 0 1.07499e-05)
(0 0 1.07367e-05)
(0 0 1.07234e-05)
(0 0 1.071e-05)
(0 0 1.06966e-05)
(0 0 1.0683e-05)
(0 0 1.06693e-05)
(0 0 1.06556e-05)
(0 0 1.06417e-05)
(0 0 1.06278e-05)
(0 0 1.06137e-05)
(0 0 1.05996e-05)
(0 0 1.05853e-05)
(0 0 1.0571e-05)
(0 0 1.05565e-05)
(0 0 1.05419e-05)
(0 0 1.05272e-05)
(0 0 1.05124e-05)
(0 0 1.04975e-05)
(0 0 1.04824e-05)
(0 0 1.04673e-05)
(0 0 1.0452e-05)
(0 0 1.04367e-05)
(0 0 1.04212e-05)
(0 0 1.04056e-05)
(0 0 1.03899e-05)
(0 0 1.03741e-05)
(0 0 1.03581e-05)
(0 0 1.03421e-05)
(0 0 1.03259e-05)
(0 0 1.03096e-05)
(0 0 1.02932e-05)
(0 0 1.02766e-05)
(0 0 1.02599e-05)
(0 0 1.02431e-05)
(0 0 1.02261e-05)
(0 0 1.0209e-05)
(0 0 1.01918e-05)
(0 0 1.01744e-05)
(0 0 1.01568e-05)
(0 0 1.01425e-05)
)
;

boundaryField
{
    inlet
    {
        type            fixedValue;
        value           uniform (0 0 1.131e-05);
    }
    outlet
    {
        type            zeroGradient;
    }
    emptyWalls
    {
        type            empty;
    }
}


// ************************************************************************* //
