/*--------------------------------*- C++ -*----------------------------------*\
  =========                 |
  \\      /  F ield         | OpenFOAM: The Open Source CFD Toolbox
   \\    /   O peration     | Website:  https://openfoam.org
    \\  /    A nd           | Version:  9
     \\/     M anipulation  |
\*---------------------------------------------------------------------------*/
FoamFile
{
    format      ascii;
    class       volVectorField;
    location    "4600";
    object      Ub;
}
// * * * * * * * * * * * * * * * * * * * * * * * * * * * * * * * * * * * * * //

dimensions      [0 0 0 0 0 0 0];

internalField   nonuniform List<vector> 
100
(
(0 0 7.17144e-06)
(0 0 4.84693e-06)
(0 0 4.84674e-06)
(0 0 4.84653e-06)
(0 0 4.84631e-06)
(0 0 4.84609e-06)
(0 0 4.84585e-06)
(0 0 4.84561e-06)
(0 0 4.84536e-06)
(0 0 4.8451e-06)
(0 0 4.84484e-06)
(0 0 4.84457e-06)
(0 0 4.8443e-06)
(0 0 4.84403e-06)
(0 0 4.84374e-06)
(0 0 4.84346e-06)
(0 0 4.84317e-06)
(0 0 4.84287e-06)
(0 0 4.84257e-06)
(0 0 4.84227e-06)
(0 0 4.84196e-06)
(0 0 4.84165e-06)
(0 0 4.84134e-06)
(0 0 4.84101e-06)
(0 0 4.84069e-06)
(0 0 4.84036e-06)
(0 0 4.84002e-06)
(0 0 4.83967e-06)
(0 0 4.83932e-06)
(0 0 4.83895e-06)
(0 0 4.83857e-06)
(0 0 4.83818e-06)
(0 0 4.83776e-06)
(0 0 4.83731e-06)
(0 0 4.83682e-06)
(0 0 4.83697e-06)
(0 0 4.8375e-06)
(0 0 4.83785e-06)
(0 0 4.83826e-06)
(0 0 4.83863e-06)
(0 0 4.83902e-06)
(0 0 4.8394e-06)
(0 0 4.83978e-06)
(0 0 4.84017e-06)
(0 0 4.84056e-06)
(0 0 4.84096e-06)
(0 0 4.84136e-06)
(0 0 4.84178e-06)
(0 0 4.84221e-06)
(0 0 4.84265e-06)
(0 0 4.84311e-06)
(0 0 4.84358e-06)
(0 0 4.84408e-06)
(0 0 4.84459e-06)
(0 0 4.84512e-06)
(0 0 4.84566e-06)
(0 0 4.84621e-06)
(0 0 4.84676e-06)
(0 0 4.84732e-06)
(0 0 4.84788e-06)
(0 0 4.84843e-06)
(0 0 4.84899e-06)
(0 0 4.84954e-06)
(0 0 4.8501e-06)
(0 0 4.85065e-06)
(0 0 4.85121e-06)
(0 0 4.85178e-06)
(0 0 4.85235e-06)
(0 0 4.85293e-06)
(0 0 4.85352e-06)
(0 0 4.85412e-06)
(0 0 4.85474e-06)
(0 0 4.85537e-06)
(0 0 4.85601e-06)
(0 0 4.85667e-06)
(0 0 4.85734e-06)
(0 0 4.85803e-06)
(0 0 4.85873e-06)
(0 0 4.85944e-06)
(0 0 4.86016e-06)
(0 0 4.8609e-06)
(0 0 4.86164e-06)
(0 0 4.8624e-06)
(0 0 4.86316e-06)
(0 0 4.86393e-06)
(0 0 4.86471e-06)
(0 0 4.86549e-06)
(0 0 4.86629e-06)
(0 0 4.86709e-06)
(0 0 4.86791e-06)
(0 0 4.86873e-06)
(0 0 4.86957e-06)
(0 0 4.87041e-06)
(0 0 4.87127e-06)
(0 0 4.87215e-06)
(0 0 4.87304e-06)
(0 0 4.87395e-06)
(0 0 4.87488e-06)
(0 0 4.87582e-06)
(0 0 4.87621e-06)
)
;

boundaryField
{
    inlet
    {
        type            fixedValue;
        value           uniform (0 0 4.84716e-06);
    }
    outlet
    {
        type            zeroGradient;
    }
    emptyWalls
    {
        type            empty;
    }
}


// ************************************************************************* //
