/*--------------------------------*- C++ -*----------------------------------*\
  =========                 |
  \\      /  F ield         | OpenFOAM: The Open Source CFD Toolbox
   \\    /   O peration     | Website:  https://openfoam.org
    \\  /    A nd           | Version:  9
     \\/     M anipulation  |
\*---------------------------------------------------------------------------*/
FoamFile
{
    format      ascii;
    class       volVectorField;
    location    "4600";
    object      Uc;
}
// * * * * * * * * * * * * * * * * * * * * * * * * * * * * * * * * * * * * * //

dimensions      [0 0 0 0 0 0 0];

internalField   nonuniform List<vector> 
100
(
(0 0 6.11987e-09)
(0 0 6.36036e-09)
(0 0 1.1054e-08)
(0 0 1.61297e-08)
(0 0 2.14751e-08)
(0 0 2.70611e-08)
(0 0 3.28521e-08)
(0 0 3.88278e-08)
(0 0 4.49707e-08)
(0 0 5.12677e-08)
(0 0 5.77084e-08)
(0 0 6.42842e-08)
(0 0 7.09882e-08)
(0 0 7.78149e-08)
(0 0 8.47598e-08)
(0 0 9.18198e-08)
(0 0 9.89923e-08)
(0 0 1.06276e-07)
(0 0 1.1367e-07)
(0 0 1.21176e-07)
(0 0 1.28794e-07)
(0 0 1.36529e-07)
(0 0 1.44384e-07)
(0 0 1.52367e-07)
(0 0 1.60487e-07)
(0 0 1.68757e-07)
(0 0 1.77194e-07)
(0 0 1.85821e-07)
(0 0 1.94669e-07)
(0 0 2.03783e-07)
(0 0 2.13223e-07)
(0 0 2.23074e-07)
(0 0 2.33463e-07)
(0 0 2.44579e-07)
(0 0 2.56721e-07)
(0 0 2.70234e-07)
(0 0 2.83752e-07)
(0 0 2.96395e-07)
(0 0 3.08689e-07)
(0 0 3.20651e-07)
(0 0 3.32443e-07)
(0 0 3.44115e-07)
(0 0 3.55726e-07)
(0 0 3.67309e-07)
(0 0 3.78892e-07)
(0 0 3.90494e-07)
(0 0 4.0213e-07)
(0 0 4.1381e-07)
(0 0 4.25545e-07)
(0 0 4.3734e-07)
(0 0 4.492e-07)
(0 0 4.6113e-07)
(0 0 4.73133e-07)
(0 0 4.85212e-07)
(0 0 4.97369e-07)
(0 0 5.09606e-07)
(0 0 5.21924e-07)
(0 0 5.34325e-07)
(0 0 5.46811e-07)
(0 0 5.59381e-07)
(0 0 5.72038e-07)
(0 0 5.84781e-07)
(0 0 5.97612e-07)
(0 0 6.10531e-07)
(0 0 6.23539e-07)
(0 0 6.36637e-07)
(0 0 6.49824e-07)
(0 0 6.63103e-07)
(0 0 6.76472e-07)
(0 0 6.89933e-07)
(0 0 7.03487e-07)
(0 0 7.17134e-07)
(0 0 7.30875e-07)
(0 0 7.4471e-07)
(0 0 7.5864e-07)
(0 0 7.72666e-07)
(0 0 7.8679e-07)
(0 0 8.01011e-07)
(0 0 8.1533e-07)
(0 0 8.2975e-07)
(0 0 8.4427e-07)
(0 0 8.58892e-07)
(0 0 8.73617e-07)
(0 0 8.88447e-07)
(0 0 9.03382e-07)
(0 0 9.18424e-07)
(0 0 9.33575e-07)
(0 0 9.48837e-07)
(0 0 9.6421e-07)
(0 0 9.79697e-07)
(0 0 9.95299e-07)
(0 0 1.01102e-06)
(0 0 1.02686e-06)
(0 0 1.04282e-06)
(0 0 1.05891e-06)
(0 0 1.07512e-06)
(0 0 1.09147e-06)
(0 0 1.10795e-06)
(0 0 1.12457e-06)
(0 0 1.13852e-06)
)
;

boundaryField
{
    inlet
    {
        type            fixedValue;
        value           uniform (0 0 0);
    }
    outlet
    {
        type            zeroGradient;
    }
    emptyWalls
    {
        type            empty;
    }
}


// ************************************************************************* //
