/*--------------------------------*- C++ -*----------------------------------*\
  =========                 |
  \\      /  F ield         | OpenFOAM: The Open Source CFD Toolbox
   \\    /   O peration     | Website:  https://openfoam.org
    \\  /    A nd           | Version:  9
     \\/     M anipulation  |
\*---------------------------------------------------------------------------*/
FoamFile
{
    format      ascii;
    class       volScalarField;
    location    "9550";
    object      Fa;
}
// * * * * * * * * * * * * * * * * * * * * * * * * * * * * * * * * * * * * * //

dimensions      [0 0 0 0 0 0 0];

internalField   nonuniform List<scalar> 
1000
(
0.19505
0.194599
0.194833
0.194563
0.194585
0.194428
0.194358
0.194231
0.194149
0.194012
0.193838
0.193124
0.18887
0.163327
0.152569
0.150289
0.149265
0.148639
0.148154
0.147805
0.147468
0.147209
0.146975
0.146757
0.14658
0.146439
0.146335
0.146208
0.146164
0.14607
0.146004
0.145924
0.145881
0.145871
0.14593
0.146064
0.146291
0.14657
0.146849
0.147109
0.147344
0.147552
0.14773
0.147871
0.147963
0.147992
0.147947
0.147822
0.14762
0.147348
0.147024
0.146665
0.146294
0.145931
0.145594
0.145296
0.145046
0.144848
0.144701
0.144602
0.144542
0.144516
0.144513
0.144527
0.144549
0.144573
0.144595
0.144611
0.144619
0.144617
0.144605
0.144584
0.144554
0.144517
0.144475
0.144427
0.144376
0.144321
0.144266
0.144208
0.14415
0.144092
0.144034
0.143975
0.143917
0.143859
0.143801
0.143744
0.143687
0.143631
0.143576
0.143522
0.143468
0.143417
0.143366
0.143317
0.14327
0.143224
0.143179
0.143136
0.143095
0.143055
0.143016
0.142978
0.142941
0.142905
0.142869
0.142834
0.142799
0.142765
0.14273
0.142696
0.142662
0.142629
0.142595
0.142562
0.14253
0.142497
0.142466
0.142435
0.142404
0.142374
0.142345
0.142316
0.142288
0.14226
0.142234
0.142208
0.142183
0.142158
0.142135
0.142112
0.142089
0.142068
0.142047
0.142026
0.142006
0.141987
0.141968
0.141948
0.141929
0.14191
0.141891
0.141872
0.141853
0.141833
0.141815
0.141797
0.141779
0.141763
0.141748
0.141734
0.141721
0.141709
0.141698
0.141688
0.141681
0.141675
0.141673
0.141675
0.141681
0.141694
0.141713
0.141741
0.141778
0.141825
0.141882
0.141949
0.142026
0.142112
0.142208
0.142311
0.142419
0.142532
0.142647
0.14276
0.142871
0.142975
0.143069
0.143151
0.143217
0.143265
0.143291
0.143295
0.143273
0.143227
0.143154
0.14306
0.142939
0.142801
0.142641
0.142473
0.142288
0.142103
0.14191
0.141725
0.141537
0.141365
0.141196
0.141045
0.140902
0.140777
0.140663
0.140565
0.140478
0.140404
0.14034
0.140285
0.140239
0.140198
0.140163
0.14013
0.140101
0.140073
0.140046
0.140018
0.13999
0.13996
0.139928
0.139895
0.139859
0.139822
0.139782
0.13974
0.139697
0.139652
0.139605
0.139557
0.139508
0.139458
0.139407
0.139355
0.139303
0.13925
0.139197
0.139144
0.139091
0.139038
0.138985
0.138932
0.138879
0.138827
0.138775
0.138723
0.138673
0.138622
0.138573
0.138524
0.138475
0.138428
0.138381
0.138335
0.138289
0.138245
0.138201
0.138158
0.138116
0.138074
0.138033
0.137993
0.137953
0.137914
0.137876
0.137838
0.137801
0.137764
0.137728
0.137692
0.137657
0.137622
0.137588
0.137554
0.13752
0.137487
0.137454
0.137421
0.137389
0.137357
0.137325
0.137293
0.137262
0.137231
0.137201
0.137171
0.137141
0.137111
0.137081
0.137052
0.137024
0.136995
0.136967
0.136939
0.136911
0.136884
0.136856
0.13683
0.136803
0.136776
0.13675
0.136724
0.136698
0.136672
0.136646
0.136621
0.136595
0.13657
0.136545
0.13652
0.136495
0.13647
0.136446
0.136422
0.136398
0.136375
0.136352
0.13633
0.136308
0.136287
0.136267
0.136247
0.136229
0.136213
0.136197
0.136184
0.136172
0.136163
0.136156
0.136152
0.136151
0.136154
0.13616
0.136169
0.136183
0.136201
0.136222
0.136248
0.136278
0.136312
0.136349
0.13639
0.136434
0.13648
0.136528
0.136578
0.136627
0.136677
0.136726
0.136773
0.136816
0.136856
0.136891
0.13692
0.136943
0.136958
0.136964
0.136961
0.136949
0.136927
0.136894
0.136851
0.136798
0.136735
0.136663
0.136582
0.136494
0.136399
0.136299
0.136194
0.136087
0.135978
0.135869
0.13576
0.135652
0.135546
0.135441
0.135335
0.135224
0.135103
0.134958
0.134769
0.134508
0.13414
0.133648
0.133066
0.132506
0.132089
0.131836
0.131699
0.131625
0.131582
0.131556
0.131538
0.131525
0.131516
0.131509
0.131504
0.131499
0.131496
0.131493
0.13149
0.131487
0.131484
0.131481
0.131477
0.131473
0.131468
0.131463
0.131457
0.131451
0.131444
0.131436
0.131427
0.131418
0.131409
0.131399
0.131388
0.131377
0.131366
0.131354
0.131342
0.13133
0.131317
0.131305
0.131292
0.131279
0.131266
0.131253
0.13124
0.131227
0.131214
0.131201
0.131188
0.131175
0.131162
0.13115
0.131138
0.131126
0.131114
0.131103
0.131091
0.131081
0.13107
0.13106
0.13105
0.13104
0.131031
0.131023
0.131014
0.131006
0.130999
0.130992
0.130986
0.13098
0.130974
0.130969
0.130964
0.13096
0.130956
0.130953
0.13095
0.130948
0.130946
0.130944
0.130943
0.130943
0.130942
0.130942
0.130942
0.130942
0.130943
0.130944
0.130946
0.130947
0.130949
0.130952
0.130954
0.130957
0.130959
0.130962
0.130965
0.130969
0.130972
0.130976
0.13098
0.130984
0.130988
0.130993
0.130997
0.131002
0.131007
0.131012
0.131018
0.131023
0.131029
0.131035
0.131041
0.131047
0.131053
0.13106
0.131067
0.131074
0.131081
0.131089
0.131096
0.131104
0.131112
0.131121
0.13113
0.131139
0.131148
0.131158
0.131169
0.131179
0.131191
0.131203
0.131215
0.131228
0.131242
0.131257
0.131272
0.131289
0.131307
0.131326
0.131346
0.131368
0.131391
0.131416
0.131442
0.131471
0.131501
0.131533
0.131568
0.131605
0.131643
0.131685
0.131728
0.131774
0.131823
0.131873
0.131926
0.131981
0.132038
0.132097
0.132157
0.132219
0.132282
0.132346
0.13241
0.132475
0.132539
0.132602
0.132665
0.132726
0.132784
0.132841
0.132894
0.132943
0.132989
0.13303
0.133066
0.133097
0.133123
0.133142
0.133155
0.133161
0.133162
0.133162
0.13316
0.133146
0.13312
0.133089
0.133051
0.133008
0.132961
0.132908
0.132852
0.132793
0.132731
0.132667
0.132602
0.132536
0.13247
0.132405
0.13234
0.132277
0.132216
0.132158
0.132102
0.132049
0.131999
0.131952
0.131909
0.131869
0.131832
0.131799
0.131769
0.131741
0.131717
0.131695
0.131676
0.131659
0.131644
0.131631
0.13162
0.131609
0.1316
0.131592
0.131585
0.131578
0.131571
0.131565
0.131559
0.131552
0.131546
0.131539
0.131532
0.131525
0.131518
0.13151
0.131501
0.131492
0.131483
0.131473
0.131463
0.131452
0.131441
0.13143
0.131418
0.131406
0.131394
0.131381
0.131368
0.131355
0.131341
0.131328
0.131314
0.131301
0.131287
0.131273
0.131259
0.131245
0.131231
0.131218
0.131204
0.13119
0.131176
0.131163
0.13115
0.131136
0.131123
0.13111
0.131098
0.131085
0.131073
0.131061
0.131049
0.131038
0.131027
0.131016
0.131005
0.130995
0.130986
0.130976
0.130967
0.130959
0.13095
0.130943
0.130935
0.130929
0.130922
0.130916
0.130911
0.130906
0.130902
0.130898
0.130894
0.130891
0.130888
0.130886
0.130885
0.130884
0.130883
0.130883
0.130883
0.130883
0.130883
0.130884
0.130886
0.130888
0.130891
0.130894
0.130898
0.130901
0.130905
0.13091
0.130914
0.130919
0.130925
0.13093
0.130936
0.130942
0.130949
0.130955
0.130963
0.13097
0.130977
0.130985
0.130993
0.131002
0.13101
0.131019
0.131028
0.131038
0.131048
0.131058
0.131069
0.13108
0.131092
0.131104
0.131116
0.131129
0.131143
0.131157
0.131172
0.131188
0.131205
0.131222
0.131241
0.13126
0.13128
0.131302
0.131325
0.131349
0.131375
0.131402
0.13143
0.13146
0.131492
0.131525
0.13156
0.131597
0.131636
0.131676
0.131718
0.131761
0.131807
0.131854
0.131903
0.131952
0.132004
0.132056
0.13211
0.132164
0.132219
0.132275
0.13233
0.132386
0.132441
0.132495
0.132549
0.132601
0.132652
0.132701
0.132747
0.132791
0.132832
0.132869
0.132903
0.132933
0.132959
0.132981
0.132998
0.13301
0.133017
0.13302
0.13302
0.133019
0.133014
0.132998
0.132975
0.132948
0.132917
0.132882
0.132843
0.1328
0.132755
0.132707
0.132657
0.132605
0.132552
0.132499
0.132445
0.132391
0.132337
0.132284
0.132233
0.132183
0.132134
0.132088
0.132043
0.132001
0.131961
0.131923
0.131888
0.131855
0.131825
0.131796
0.13177
0.131746
0.131724
0.131703
0.131685
0.131667
0.131651
0.131637
0.131623
0.13161
0.131598
0.131586
0.131575
0.131564
0.131553
0.131543
0.131532
0.131522
0.131511
0.1315
0.131489
0.131478
0.131467
0.131455
0.131443
0.13143
0.131417
0.131404
0.131391
0.131377
0.131363
0.131349
0.131335
0.13132
0.131306
0.131291
0.131276
0.131261
0.131246
0.131231
0.131215
0.1312
0.131185
0.13117
0.131155
0.13114
0.131125
0.131111
0.131096
0.131082
0.131068
0.131054
0.131041
0.131027
0.131014
0.131001
0.130989
0.130977
0.130965
0.130953
0.130942
0.130932
0.130921
0.130912
0.130902
0.130893
0.130885
0.130877
0.130869
0.130863
0.130856
0.13085
0.130845
0.130841
0.130836
0.130833
0.13083
0.130828
0.130826
0.130825
0.130824
0.130824
0.130824
0.130825
0.130826
0.130829
0.130831
0.130835
0.130839
0.130844
0.130849
0.130854
0.13086
0.130867
0.130874
0.130881
0.130889
0.130897
0.130906
0.130915
0.130924
0.130934
0.130944
0.130954
0.130964
0.130975
0.130986
0.130998
0.13101
0.131022
0.131034
0.131046
0.131059
0.131072
0.131086
0.131099
0.131114
0.131128
0.131143
0.131158
0.131174
0.13119
0.131206
0.131223
0.131241
0.131259
0.131279
0.131298
0.131319
0.13134
0.131362
0.131385
0.131409
0.131434
0.13146
0.131487
0.131516
0.131545
0.131576
0.131608
0.131641
0.131676
0.131711
0.131748
0.131787
0.131826
0.131867
0.131909
0.131952
0.131996
0.132041
0.132086
0.132133
0.132179
0.132227
0.132274
0.132322
0.132369
0.132417
0.132463
0.132509
0.132554
0.132598
0.13264
0.132681
0.132719
0.132756
0.132789
0.132821
0.132849
0.132875
0.132897
0.132915
0.13293
0.132941
0.132948
0.132951
0.132951
0.13295
0.132948
0.132935
0.132929
0.132897
0.132887
0.132842
0.13283
0.132776
0.132761
0.132699
0.132682
0.132613
0.132596
0.132522
)
;

boundaryField
{
    inlet
    {
        type            calculated;
        value           uniform 0.194831;
    }
    outlet
    {
        type            calculated;
        value           uniform 0.132513;
    }
    emptyWalls
    {
        type            empty;
    }
}


// ************************************************************************* //
