/*--------------------------------*- C++ -*----------------------------------*\
  =========                 |
  \\      /  F ield         | OpenFOAM: The Open Source CFD Toolbox
   \\    /   O peration     | Website:  https://openfoam.org
    \\  /    A nd           | Version:  9
     \\/     M anipulation  |
\*---------------------------------------------------------------------------*/
FoamFile
{
    format      ascii;
    class       volVectorField;
    location    "130999.999994";
    object      U;
}
// * * * * * * * * * * * * * * * * * * * * * * * * * * * * * * * * * * * * * //

dimensions      [0 0 0 0 0 0 0];

internalField   nonuniform List<vector> 
100
(
(2.92374e-05 0 0)
(2.92374e-05 0 0)
(2.92374e-05 0 0)
(2.92374e-05 0 0)
(2.92374e-05 0 0)
(2.92374e-05 0 0)
(2.92374e-05 0 0)
(2.92374e-05 0 0)
(2.92374e-05 0 0)
(2.92374e-05 0 0)
(2.92374e-05 0 0)
(2.92374e-05 0 0)
(2.92374e-05 0 0)
(2.92374e-05 0 0)
(2.92374e-05 0 0)
(2.92374e-05 0 0)
(2.92374e-05 0 0)
(2.92374e-05 0 0)
(2.92374e-05 0 0)
(2.92374e-05 0 0)
(2.92374e-05 0 0)
(2.92374e-05 0 0)
(2.92374e-05 0 0)
(2.92374e-05 0 0)
(2.92374e-05 0 0)
(2.92374e-05 0 0)
(2.92374e-05 0 0)
(2.92374e-05 0 0)
(2.92374e-05 0 0)
(2.92374e-05 0 0)
(2.92374e-05 0 0)
(2.92374e-05 0 0)
(2.92374e-05 0 0)
(2.92374e-05 0 0)
(2.92374e-05 0 0)
(2.92374e-05 0 0)
(2.92374e-05 0 0)
(2.92374e-05 0 0)
(2.92374e-05 0 0)
(2.92374e-05 0 0)
(2.92374e-05 0 0)
(2.92374e-05 0 0)
(2.92374e-05 0 0)
(2.92374e-05 0 0)
(2.92374e-05 0 0)
(2.92374e-05 0 0)
(2.92374e-05 0 0)
(2.92374e-05 0 0)
(2.92374e-05 0 0)
(2.92374e-05 0 0)
(2.92374e-05 0 0)
(2.92374e-05 0 0)
(2.92374e-05 0 0)
(2.92374e-05 0 0)
(2.92374e-05 0 0)
(2.92374e-05 0 0)
(2.92374e-05 0 0)
(2.92374e-05 0 0)
(2.92374e-05 0 0)
(2.92374e-05 0 0)
(2.92374e-05 0 0)
(2.92374e-05 0 0)
(2.92374e-05 0 0)
(2.92374e-05 0 0)
(2.92374e-05 0 0)
(2.92374e-05 0 0)
(2.92374e-05 0 0)
(2.92374e-05 0 0)
(2.92374e-05 0 0)
(2.92374e-05 0 0)
(2.92374e-05 0 0)
(2.92374e-05 0 0)
(2.92374e-05 0 0)
(2.92374e-05 0 0)
(2.92374e-05 0 0)
(2.92374e-05 0 0)
(2.92374e-05 0 0)
(2.92374e-05 0 0)
(2.92374e-05 0 0)
(2.92374e-05 0 0)
(2.92374e-05 0 0)
(2.92374e-05 0 0)
(2.92374e-05 0 0)
(2.92374e-05 0 0)
(2.92374e-05 0 0)
(2.92374e-05 0 0)
(2.92374e-05 0 0)
(2.92374e-05 0 0)
(2.92374e-05 0 0)
(2.92374e-05 0 0)
(2.92374e-05 0 0)
(2.92374e-05 0 0)
(2.92374e-05 0 0)
(2.92374e-05 0 0)
(2.92374e-05 0 0)
(2.92374e-05 0 0)
(2.92374e-05 0 0)
(2.92374e-05 0 0)
(2.92374e-05 0 0)
(2.92374e-05 0 0)
)
;

boundaryField
{
    inlet
    {
        type            calculated;
        value           uniform (2.92374e-05 0 0);
    }
    outlet
    {
        type            calculated;
        value           uniform (2.92374e-05 0 0);
    }
    emptyWalls
    {
        type            empty;
    }
}


// ************************************************************************* //
