/*--------------------------------*- C++ -*----------------------------------*\
  =========                 |
  \\      /  F ield         | OpenFOAM: The Open Source CFD Toolbox
   \\    /   O peration     | Website:  https://openfoam.org
    \\  /    A nd           | Version:  9
     \\/     M anipulation  |
\*---------------------------------------------------------------------------*/
FoamFile
{
    format      ascii;
    class       volScalarField;
    location    "16400";
    object      krb;
}
// * * * * * * * * * * * * * * * * * * * * * * * * * * * * * * * * * * * * * //

dimensions      [0 0 0 0 0 0 0];

internalField   nonuniform List<scalar> 
1000
(
0.0979248
0.0984629
0.0991808
0.0998917
0.100607
0.101324
0.102061
0.1028
0.103549
0.104302
0.105027
0.10578
0.106421
0.107146
0.107656
0.108291
0.108678
0.109166
0.109504
0.110043
0.111305
0.115894
0.140562
0.318069
0.4614
0.492033
0.503297
0.509402
0.513457
0.516482
0.518883
0.520856
0.52248
0.523814
0.524902
0.525804
0.52657
0.52725
0.527859
0.528404
0.528873
0.529267
0.529607
0.529935
0.530222
0.530452
0.530618
0.53073
0.530766
0.530741
0.530647
0.530487
0.530262
0.529973
0.529619
0.529197
0.528701
0.528119
0.527432
0.52661
0.525612
0.524386
0.522883
0.521082
0.519015
0.516773
0.51443
0.512027
0.509591
0.507139
0.504684
0.502233
0.499794
0.497369
0.494962
0.492575
0.490209
0.487865
0.485544
0.483246
0.480971
0.47872
0.476492
0.474287
0.472105
0.469946
0.467809
0.465695
0.463603
0.461532
0.459483
0.457455
0.455448
0.453461
0.451494
0.449547
0.447619
0.44571
0.44382
0.441949
0.440096
0.438261
0.436443
0.434643
0.43286
0.431093
0.429343
0.427609
0.425891
0.424188
0.422501
0.420829
0.419172
0.417529
0.415901
0.414288
0.412688
0.411102
0.409531
0.407972
0.406427
0.404895
0.403376
0.401869
0.400375
0.398893
0.397422
0.395964
0.394517
0.393082
0.391658
0.390246
0.388845
0.387455
0.386076
0.384707
0.383349
0.381999
0.380659
0.379327
0.378004
0.376688
0.37538
0.37408
0.372788
0.371503
0.370227
0.368959
0.367699
0.366448
0.365205
0.363973
0.362749
0.361537
0.360334
0.359143
0.357962
0.356793
0.355635
0.354489
0.353353
0.352229
0.351114
0.350009
0.348913
0.347826
0.346746
0.345672
0.344605
0.343544
0.342488
0.341437
0.34039
0.339349
0.338312
0.337279
0.336251
0.335228
0.33421
0.333197
0.332189
0.331187
0.33019
0.329199
0.328214
0.327234
0.32626
0.325292
0.324329
0.323372
0.322421
0.321475
0.320535
0.319601
0.318671
0.317747
0.316828
0.315915
0.315006
0.314103
0.313204
0.31231
0.311421
0.310536
0.309656
0.308781
0.307911
0.307044
0.306183
0.305325
0.304472
0.303623
0.302779
0.301938
0.301102
0.30027
0.299442
0.298618
0.297798
0.296982
0.29617
0.295361
0.294557
0.293756
0.292959
0.292166
0.291377
0.290591
0.289808
0.28903
0.288255
0.287483
0.286715
0.28595
0.285189
0.284431
0.283677
0.282925
0.282178
0.281433
0.280692
0.279953
0.279219
0.278487
0.277758
0.277032
0.27631
0.27559
0.274874
0.274161
0.27345
0.272743
0.272039
0.271337
0.270638
0.269943
0.26925
0.26856
0.267872
0.267188
0.266506
0.265827
0.265151
0.264477
0.263806
0.263138
0.262472
0.261809
0.261149
0.260491
0.259836
0.259183
0.258532
0.257884
0.257238
0.256594
0.255952
0.255313
0.254675
0.254039
0.253405
0.252773
0.252143
0.251514
0.250888
0.250263
0.24964
0.249019
0.248399
0.247782
0.247167
0.246554
0.245943
0.245335
0.244729
0.244126
0.243526
0.242928
0.242333
0.241742
0.241153
0.240567
0.239985
0.239406
0.238829
0.238256
0.237686
0.237118
0.236554
0.235991
0.235431
0.234874
0.234318
0.233764
0.233212
0.232662
0.232113
0.231566
0.23102
0.230475
0.229931
0.229388
0.228847
0.228307
0.227768
0.22723
0.226693
0.226158
0.225624
0.225091
0.224559
0.224029
0.223501
0.222974
0.222448
0.221924
0.221401
0.22088
0.22036
0.219842
0.219326
0.218811
0.218297
0.217785
0.217275
0.216766
0.216259
0.215753
0.215248
0.214745
0.214244
0.213743
0.213245
0.212747
0.212251
0.211757
0.211263
0.210771
0.21028
0.209791
0.209303
0.208816
0.20833
0.207846
0.207363
0.206881
0.2064
0.205921
0.205442
0.204965
0.204489
0.204015
0.203541
0.203069
0.202597
0.202127
0.201658
0.20119
0.200723
0.200257
0.199793
0.199329
0.198867
0.198405
0.197945
0.197486
0.197027
0.19657
0.196114
0.195659
0.195204
0.194751
0.194299
0.193848
0.193398
0.192948
0.1925
0.192053
0.191606
0.191161
0.190717
0.190273
0.189831
0.189389
0.188948
0.188508
0.18807
0.187632
0.187194
0.186758
0.186323
0.185889
0.185455
0.185022
0.18459
0.18416
0.183729
0.1833
0.182872
0.182444
0.182017
0.181591
0.181166
0.180742
0.180318
0.179895
0.179473
0.179052
0.178631
0.178211
0.177792
0.177374
0.176956
0.176539
0.176122
0.175706
0.175291
0.174876
0.174461
0.174048
0.173634
0.173222
0.17281
0.172398
0.171987
0.171576
0.171166
0.170756
0.170347
0.169939
0.169531
0.169124
0.168717
0.168311
0.167906
0.167501
0.167097
0.166694
0.166292
0.165891
0.16549
0.165091
0.164692
0.164294
0.163898
0.163502
0.163107
0.162713
0.16232
0.161928
0.161537
0.161147
0.160757
0.160369
0.159981
0.159594
0.159207
0.158821
0.158436
0.158051
0.157667
0.157283
0.156899
0.156516
0.156133
0.155751
0.155369
0.154987
0.154605
0.154223
0.153842
0.153461
0.15308
0.152699
0.152319
0.151938
0.151558
0.151179
0.150799
0.15042
0.150041
0.149662
0.149283
0.148905
0.148527
0.148149
0.147772
0.147394
0.147018
0.146641
0.146265
0.145889
0.145513
0.145137
0.144762
0.144387
0.144013
0.143638
0.143264
0.14289
0.142516
0.142143
0.141769
0.141396
0.141023
0.14065
0.140278
0.139905
0.139533
0.139161
0.138789
0.138417
0.138045
0.137674
0.137302
0.136931
0.136559
0.136188
0.135817
0.135446
0.135074
0.134703
0.134332
0.133961
0.13359
0.133219
0.132848
0.132477
0.132106
0.131735
0.131364
0.130993
0.130622
0.130251
0.129879
0.129508
0.129137
0.128765
0.128393
0.128022
0.12765
0.127278
0.126905
0.126533
0.126161
0.125788
0.125415
0.125042
0.124669
0.124295
0.123922
0.123548
0.123174
0.122799
0.122425
0.12205
0.121674
0.121299
0.120923
0.120547
0.120171
0.119794
0.119417
0.11904
0.118662
0.118284
0.117906
0.117527
0.117148
0.116768
0.116388
0.116008
0.115628
0.115247
0.114866
0.114484
0.114102
0.11372
0.113337
0.112955
0.112572
0.112189
0.111805
0.111422
0.111038
0.110655
0.110272
0.109889
0.109507
0.109125
0.108744
0.108364
0.107985
0.107608
0.107233
0.106861
0.106491
0.106125
0.105763
0.105406
0.105055
0.10471
0.104373
0.104044
0.103725
0.103417
0.10312
0.102836
0.102566
0.102311
0.102072
0.101849
0.101642
0.101453
0.10128
0.101124
0.100985
0.100861
0.100753
0.100658
0.100577
0.100507
0.100447
0.100396
0.100351
0.10031
0.100269
0.100221
0.100156
0.100057
0.0998938
0.0996111
0.099115
0.098244
0.0967317
0.0941693
0.0900112
0.083723
0.0751778
0.0651497
0.0552898
0.0472189
0.0415965
0.0381267
0.0361494
0.035075
0.0345065
0.03421
0.0340566
0.0339776
0.033937
0.0339163
0.0339058
0.0339004
0.0338978
0.0338966
0.033896
0.0338958
0.0338958
0.0338959
0.033896
0.0338961
0.0338963
0.0338964
0.0338965
0.0338966
0.0338968
0.0338968
0.0338969
0.033897
0.0338971
0.0338972
0.0338972
0.0338973
0.0338973
0.0338973
0.0338974
0.0338974
0.0338974
0.0338974
0.0338974
0.0338974
0.0338974
0.0338974
0.0338973
0.0338973
0.0338973
0.0338972
0.0338972
0.0338971
0.0338971
0.0338971
0.033897
0.0338969
0.0338969
0.0338968
0.0338968
0.0338967
0.0338966
0.0338966
0.0338965
0.0338964
0.0338964
0.0338963
0.0338963
0.0338962
0.0338961
0.0338961
0.033896
0.033896
0.0338959
0.0338958
0.0338958
0.0338957
0.0338957
0.0338956
0.0338956
0.0338955
0.0338955
0.0338955
0.0338954
0.0338954
0.0338953
0.0338953
0.0338953
0.0338952
0.0338952
0.0338952
0.0338952
0.0338951
0.0338951
0.0338951
0.0338951
0.0338951
0.0338951
0.033895
0.033895
0.033895
0.033895
0.033895
0.033895
0.033895
0.033895
0.0338949
0.0338949
0.0338949
0.0338949
0.0338949
0.0338949
0.0338949
0.0338949
0.0338949
0.0338949
0.0338949
0.0338949
0.0338949
0.0338949
0.0338949
0.0338949
0.0338949
0.0338949
0.0338949
0.0338949
0.0338949
0.0338949
0.0338949
0.0338949
0.0338949
0.0338949
0.0338949
0.0338949
0.0338949
0.0338949
0.0338949
0.0338949
0.0338949
0.0338949
0.0338949
0.0338948
0.0338948
0.0338948
0.0338948
0.0338947
0.0338947
0.0338946
0.0338946
0.0338945
0.0338945
0.0338944
0.0338944
0.0338943
0.0338942
0.0338941
0.033894
0.0338939
0.0338938
0.0338936
0.0338935
0.0338934
0.0338932
0.0338931
0.0338929
0.0338927
0.0338925
0.0338923
0.0338921
0.0338919
0.0338917
0.0338915
0.0338913
0.033891
0.0338908
0.0338905
0.0338903
0.03389
0.0338898
0.0338895
0.0338893
0.0338891
0.0338888
0.0338886
0.0338884
0.0338881
0.0338879
0.0338877
0.0338875
0.0338873
0.0338872
0.033887
0.0338869
0.0338867
0.0338866
0.0338865
0.0338864
0.0338864
0.0338864
0.0338863
0.0338863
0.0338863
0.0338863
0.0338863
0.0338864
0.0338865
0.0338865
0.0338867
0.0338868
0.0338869
0.0338871
0.0338872
0.0338874
0.0338876
0.0338878
0.0338881
0.0338883
0.0338885
0.0338888
0.0338891
0.0338893
0.0338896
0.0338899
0.0338902
0.0338904
0.0338907
0.033891
0.0338913
0.0338915
0.0338917
0.033892
0.0338922
0.0338924
0.0338926
0.0338928
0.0338929
0.0338931
0.0338932
0.0338934
0.0338935
0.0338936
0.0338937
0.0338938
0.0338939
0.0338939
0.033894
0.033894
0.0338941
0.0338941
0.0338942
0.0338942
0.0338943
0.0338943
0.0338943
0.0338944
0.0338944
0.0338944
0.0338945
0.0338945
0.0338945
0.0338945
0.0338946
0.0338946
0.0338946
0.0338947
0.0338947
0.0338947
0.0338948
0.0338948
0.0338948
0.0338949
0.0338949
0.0338949
0.033895
0.033895
0.0338951
0.0338951
0.0338951
0.0338952
0.0338952
0.0338952
0.0338952
0.0338953
0.0338953
0.0338953
0.0338954
0.0338954
0.0338954
0.0338955
0.0338955
0.0338955
0.0338955
0.0338956
0.0338956
0.0338956
0.0338956
0.0338956
0.0338956
0.0338957
0.0338957
0.0338957
0.0338957
0.0338957
0.0338957
0.0338957
0.0338957
0.0338957
0.0338957
0.0338957
0.0338957
0.0338957
0.0338957
0.0338957
0.0338957
0.0338957
0.0338957
0.0338957
0.0338957
0.0338957
0.0338957
0.0338957
0.0338957
0.0338957
0.0338957
0.0338957
0.0338957
0.0338956
0.0338956
0.0338956
0.0338956
0.0338956
0.0338956
0.0338955
0.0338955
0.0338955
0.0338955
0.0338954
0.0338954
0.0338954
0.0338953
0.0338953
0.0338953
0.0338952
)
;

boundaryField
{
    inlet
    {
        type            calculated;
        value           uniform 0.0976562;
    }
    outlet
    {
        type            calculated;
        value           uniform 0.0338952;
    }
    emptyWalls
    {
        type            empty;
    }
}


// ************************************************************************* //
