/*--------------------------------*- C++ -*----------------------------------*\
  =========                 |
  \\      /  F ield         | OpenFOAM: The Open Source CFD Toolbox
   \\    /   O peration     | Website:  https://openfoam.org
    \\  /    A nd           | Version:  9
     \\/     M anipulation  |
\*---------------------------------------------------------------------------*/
FoamFile
{
    format      ascii;
    class       volScalarField;
    location    "10000";
    object      krc;
}
// * * * * * * * * * * * * * * * * * * * * * * * * * * * * * * * * * * * * * //

dimensions      [0 0 0 0 0 0 0];

internalField   nonuniform List<scalar> 
1000
(
5.32679e-07
5.63719e-06
1.8906e-05
3.86332e-05
6.43285e-05
9.50657e-05
0.000129222
0.000164677
0.000199339
0.000232856
0.000273327
0.000372666
0.00079226
0.00469828
0.0301907
0.0423399
0.0460924
0.0480146
0.049309
0.050305
0.0511349
0.0518491
0.0524814
0.0530468
0.0535625
0.0540381
0.0544882
0.0549204
0.0553445
0.0557663
0.0562041
0.0566693
0.0571536
0.0576689
0.0582361
0.0588864
0.0596598
0.0605941
0.0617034
0.0629637
0.06433
0.0657636
0.0672396
0.0687423
0.0702612
0.0717896
0.0733226
0.0748572
0.0763909
0.0779222
0.0794498
0.0809728
0.0824907
0.0840029
0.085509
0.0870087
0.088502
0.0899886
0.0914684
0.0929413
0.0944073
0.0958663
0.0973183
0.0987634
0.100202
0.101633
0.103057
0.104475
0.105885
0.107289
0.108687
0.110077
0.111461
0.112839
0.11421
0.115574
0.116933
0.118285
0.119631
0.12097
0.122304
0.123632
0.124953
0.126269
0.127579
0.128883
0.130182
0.131475
0.132762
0.134044
0.135321
0.136592
0.137858
0.139119
0.140374
0.141625
0.14287
0.144111
0.145346
0.146577
0.147803
0.149024
0.150241
0.151453
0.15266
0.153863
0.155061
0.156255
0.157445
0.15863
0.159811
0.160988
0.162161
0.163329
0.164494
0.165654
0.16681
0.167962
0.16911
0.170255
0.171396
0.172532
0.173666
0.174795
0.175921
0.177044
0.178163
0.179279
0.180392
0.181502
0.182609
0.183712
0.184813
0.185911
0.187006
0.188098
0.189187
0.190273
0.191356
0.192437
0.193515
0.19459
0.195662
0.196731
0.197797
0.19886
0.19992
0.200978
0.202033
0.203085
0.204135
0.205182
0.206227
0.207269
0.208308
0.209345
0.21038
0.211412
0.212443
0.213471
0.214496
0.21552
0.216541
0.217561
0.218578
0.219593
0.220607
0.221618
0.222627
0.223635
0.22464
0.225644
0.226645
0.227645
0.228643
0.22964
0.230634
0.231627
0.232618
0.233608
0.234596
0.235582
0.236567
0.23755
0.238531
0.239511
0.240489
0.241466
0.242442
0.243416
0.244389
0.24536
0.24633
0.247299
0.248266
0.249232
0.250197
0.25116
0.252122
0.253084
0.254044
0.255002
0.25596
0.256917
0.257872
0.258827
0.25978
0.260733
0.261685
0.262635
0.263585
0.264534
0.265482
0.266429
0.267375
0.26832
0.269265
0.270209
0.271152
0.272094
0.273036
0.273977
0.274917
0.275857
0.276796
0.277735
0.278673
0.27961
0.280547
0.281484
0.28242
0.283355
0.28429
0.285225
0.28616
0.287094
0.288027
0.288961
0.289894
0.290827
0.291759
0.292692
0.293624
0.294556
0.295488
0.29642
0.297351
0.298283
0.299215
0.300146
0.301078
0.30201
0.302941
0.303873
0.304805
0.305737
0.306669
0.307601
0.308534
0.309466
0.310399
0.311332
0.312265
0.313199
0.314133
0.315067
0.316002
0.316936
0.317872
0.318807
0.319743
0.32068
0.321617
0.322554
0.323492
0.324431
0.32537
0.32631
0.327251
0.328192
0.329135
0.330078
0.331022
0.331968
0.332915
0.333863
0.334812
0.335762
0.336714
0.337668
0.338623
0.33958
0.340538
0.341498
0.34246
0.343423
0.344389
0.345356
0.346325
0.347295
0.348268
0.349242
0.350218
0.351196
0.352175
0.353157
0.35414
0.355125
0.356113
0.357102
0.358092
0.359085
0.36008
0.361078
0.362077
0.363078
0.364082
0.365088
0.366097
0.367108
0.368122
0.369138
0.370158
0.37118
0.372205
0.373233
0.374264
0.375299
0.376336
0.377377
0.378422
0.37947
0.380521
0.381576
0.382635
0.383699
0.384765
0.385836
0.386911
0.38799
0.389074
0.390162
0.391254
0.392351
0.393453
0.39456
0.395671
0.396788
0.397909
0.399036
0.400167
0.401305
0.402448
0.403596
0.40475
0.40591
0.407075
0.408246
0.409422
0.410605
0.411793
0.412987
0.414186
0.41539
0.4166
0.417813
0.419031
0.420252
0.421475
0.422699
0.423922
0.425143
0.426359
0.427569
0.428767
0.429951
0.431116
0.432256
0.433367
0.434442
0.435475
0.436461
0.437392
0.438264
0.439071
0.439812
0.440484
0.44109
0.441633
0.442124
0.44258
0.443029
0.443524
0.444151
0.44506
0.44651
0.448943
0.45309
0.460086
0.471487
0.488927
0.513085
0.542214
0.571824
0.596911
0.614917
0.626275
0.632838
0.636433
0.638342
0.639341
0.639858
0.640125
0.640262
0.640332
0.640367
0.640385
0.640395
0.640399
0.640401
0.640401
0.640401
0.640401
0.6404
0.6404
0.640399
0.640398
0.640398
0.640397
0.640396
0.640395
0.640394
0.640393
0.640392
0.640391
0.64039
0.640389
0.640388
0.640387
0.640385
0.640384
0.640383
0.640381
0.640379
0.640378
0.640376
0.640374
0.640371
0.640369
0.640366
0.640364
0.640361
0.640358
0.640354
0.640351
0.640347
0.640343
0.640339
0.640334
0.64033
0.640325
0.64032
0.640315
0.64031
0.640304
0.640299
0.640293
0.640288
0.640282
0.640277
0.640271
0.640266
0.640261
0.640256
0.640251
0.640247
0.640243
0.64024
0.640236
0.640234
0.640232
0.64023
0.640229
0.640229
0.640229
0.64023
0.640231
0.640232
0.640235
0.640238
0.640242
0.640246
0.640251
0.640256
0.640262
0.640268
0.640274
0.64028
0.640286
0.640293
0.6403
0.640306
0.640312
0.640319
0.640325
0.64033
0.640336
0.640341
0.640346
0.640351
0.640355
0.640359
0.640363
0.640366
0.640369
0.640372
0.640374
0.640376
0.640378
0.64038
0.640381
0.640382
0.640384
0.640384
0.640385
0.640386
0.640387
0.640387
0.640388
0.640389
0.640389
0.64039
0.64039
0.640391
0.640391
0.640392
0.640392
0.640393
0.640393
0.640394
0.640395
0.640395
0.640396
0.640397
0.640398
0.640398
0.640399
0.6404
0.640401
0.640402
0.640403
0.640404
0.640405
0.640406
0.640406
0.640407
0.640408
0.640409
0.64041
0.640411
0.640412
0.640413
0.640414
0.640415
0.640416
0.640416
0.640417
0.640418
0.640419
0.64042
0.64042
0.640421
0.640422
0.640422
0.640423
0.640424
0.640424
0.640425
0.640425
0.640426
0.640426
0.640427
0.640427
0.640427
0.640428
0.640428
0.640428
0.640429
0.640429
0.640429
0.640429
0.640429
0.640429
0.640429
0.64043
0.64043
0.64043
0.64043
0.640429
0.640429
0.640429
0.640429
0.640429
0.640429
0.640429
0.640428
0.640428
0.640428
0.640428
0.640427
0.640427
0.640427
0.640426
0.640426
0.640426
0.640425
0.640425
0.640425
0.640424
0.640424
0.640424
0.640423
0.640423
0.640422
0.640422
0.640421
0.640421
0.64042
0.64042
0.640419
0.640419
0.640418
0.640418
0.640417
0.640417
0.640416
0.640415
0.640414
0.640413
0.640412
0.640411
0.64041
0.640408
0.640407
0.640406
0.640404
0.640402
0.6404
0.640399
0.640397
0.640394
0.640392
0.64039
0.640388
0.640385
0.640383
0.64038
0.640377
0.640374
0.640371
0.640368
0.640364
0.640361
0.640357
0.640354
0.64035
0.640346
0.640341
0.640337
0.640333
0.640328
0.640323
0.640319
0.640314
0.640309
0.640304
0.6403
0.640295
0.64029
0.640286
0.640281
0.640277
0.640273
0.640269
0.640265
0.640262
0.640259
0.640257
0.640254
0.640252
0.640251
0.64025
0.640249
0.640249
0.640249
0.640249
0.64025
0.640251
0.640254
0.640256
0.640259
0.640262
0.640266
0.64027
0.640274
0.640278
0.640283
0.640288
0.640293
0.640297
0.640302
0.640307
0.640312
0.640317
0.640322
0.640326
0.64033
0.640334
0.640338
0.640342
0.640345
0.640349
0.640352
0.640355
0.640357
0.64036
0.640362
0.640364
0.640366
0.640367
0.640369
0.64037
0.640371
0.640372
0.640373
0.640374
0.640375
0.640376
0.640377
0.640378
0.640378
0.640379
0.64038
0.64038
0.640381
0.640382
0.640383
0.640383
0.640384
0.640385
0.640386
0.640387
0.640388
0.640388
0.640389
0.64039
0.640391
0.640392
0.640393
0.640394
0.640395
0.640397
0.640398
0.640399
0.6404
0.640401
0.640402
0.640403
0.640404
0.640406
0.640407
0.640408
0.640409
0.64041
0.640411
0.640412
0.640413
0.640414
0.640416
0.640417
0.640418
0.640419
0.64042
0.640421
0.640422
0.640422
0.640423
0.640424
0.640425
0.640426
0.640427
0.640427
0.640428
0.640429
0.640429
0.64043
0.640431
0.640431
0.640432
0.640432
0.640433
0.640433
0.640433
0.640434
0.640434
0.640434
0.640434
0.640434
0.640434
0.640435
0.640435
0.640435
0.640435
0.640435
0.640435
0.640434
0.640434
0.640434
0.640434
0.640434
0.640433
0.640433
0.640433
0.640432
0.640432
0.640431
0.640431
0.640431
0.64043
0.64043
0.640429
0.640428
0.640428
0.640427
0.640427
0.640426
0.640425
0.640424
0.640424
0.640423
0.640422
0.640421
0.64042
0.640419
0.640418
0.640417
0.640416
0.640414
0.640413
0.640412
0.64041
0.640409
0.640408
0.640406
0.640404
0.640403
0.640401
0.640399
0.640397
0.640395
0.640393
0.64039
0.640388
0.640385
0.640383
0.64038
0.640377
0.640374
0.640371
0.640368
0.640365
0.640361
0.640358
0.640354
0.64035
0.640346
0.640342
0.640338
0.640334
0.64033
0.640326
0.640322
0.640317
0.640313
0.640309
0.640305
0.6403
0.640296
0.640292
0.640289
0.640285
0.640281
0.640278
0.640275
0.640272
0.64027
0.640267
0.640265
0.640264
0.640262
0.640261
0.640261
0.64026
0.64026
0.64026
0.640261
0.640261
0.640263
0.640265
0.640267
0.640269
0.640272
0.640275
0.640278
0.640282
0.640285
0.640289
0.640293
0.640297
0.640301
0.640305
0.640309
0.640313
0.640317
0.640321
0.640325
0.640328
0.640332
0.640336
0.640339
0.640342
0.640345
0.640348
0.640351
0.640353
0.640356
0.640358
0.64036
0.640362
0.640364
0.640366
0.640367
0.640369
0.64037
0.640371
0.640373
0.640374
0.640375
0.640376
0.640377
0.640378
0.640379
0.64038
0.640381
0.640382
0.640383
0.640384
0.640385
0.640386
0.640387
0.640388
0.64039
0.640391
0.640392
0.640393
0.640394
0.640395
0.640397
0.640398
0.640399
0.6404
0.640401
0.640403
0.640404
0.640405
0.640407
0.640408
0.640409
0.64041
0.640411
0.640413
0.640414
0.640415
0.640416
0.640418
0.640419
0.64042
0.640421
0.640422
0.640423
0.640424
0.640425
0.640427
0.640427
0.640429
0.640429
0.64043
0.640431
0.640432
0.640432
)
;

boundaryField
{
    inlet
    {
        type            calculated;
        value           uniform 3.08149e-33;
    }
    outlet
    {
        type            calculated;
        value           uniform 0.640432;
    }
    emptyWalls
    {
        type            empty;
    }
}


// ************************************************************************* //
