/*--------------------------------*- C++ -*----------------------------------*\
  =========                 |
  \\      /  F ield         | OpenFOAM: The Open Source CFD Toolbox
   \\    /   O peration     | Website:  https://openfoam.org
    \\  /    A nd           | Version:  9
     \\/     M anipulation  |
\*---------------------------------------------------------------------------*/
FoamFile
{
    format      ascii;
    class       volVectorField;
    location    "10000";
    object      Uc;
}
// * * * * * * * * * * * * * * * * * * * * * * * * * * * * * * * * * * * * * //

dimensions      [0 0 0 0 0 0 0];

internalField   nonuniform List<vector> 
1000
(
(3.06889e-11 0 0)
(1.7046e-10 0 0)
(4.6349e-10 0 0)
(8.96056e-10 0 0)
(1.44834e-09 0 0)
(2.09501e-09 0 0)
(2.80015e-09 0 0)
(3.52176e-09 0 0)
(4.22574e-09 0 0)
(4.94004e-09 0 0)
(5.99605e-09 0 0)
(9.01458e-09 0 0)
(1.96913e-08 0 0)
(7.18684e-08 0 0)
(1.56432e-07 0 0)
(2.04713e-07 0 0)
(2.15506e-07 0 0)
(2.20866e-07 0 0)
(2.24637e-07 0 0)
(2.27709e-07 0 0)
(2.30377e-07 0 0)
(2.32771e-07 0 0)
(2.34948e-07 0 0)
(2.36957e-07 0 0)
(2.38855e-07 0 0)
(2.40677e-07 0 0)
(2.42463e-07 0 0)
(2.44243e-07 0 0)
(2.46047e-07 0 0)
(2.47908e-07 0 0)
(2.49905e-07 0 0)
(2.52084e-07 0 0)
(2.54441e-07 0 0)
(2.57039e-07 0 0)
(2.60004e-07 0 0)
(2.63519e-07 0 0)
(2.67823e-07 0 0)
(2.73136e-07 0 0)
(2.79545e-07 0 0)
(2.86929e-07 0 0)
(2.95041e-07 0 0)
(3.0366e-07 0 0)
(3.12639e-07 0 0)
(3.21881e-07 0 0)
(3.31325e-07 0 0)
(3.40927e-07 0 0)
(3.5066e-07 0 0)
(3.60503e-07 0 0)
(3.7044e-07 0 0)
(3.8046e-07 0 0)
(3.90556e-07 0 0)
(4.00719e-07 0 0)
(4.10945e-07 0 0)
(4.2123e-07 0 0)
(4.3157e-07 0 0)
(4.41962e-07 0 0)
(4.52403e-07 0 0)
(4.62892e-07 0 0)
(4.73426e-07 0 0)
(4.84003e-07 0 0)
(4.94623e-07 0 0)
(5.05283e-07 0 0)
(5.15982e-07 0 0)
(5.26719e-07 0 0)
(5.37494e-07 0 0)
(5.48306e-07 0 0)
(5.59152e-07 0 0)
(5.70034e-07 0 0)
(5.80949e-07 0 0)
(5.91897e-07 0 0)
(6.02877e-07 0 0)
(6.13889e-07 0 0)
(6.24931e-07 0 0)
(6.36004e-07 0 0)
(6.47107e-07 0 0)
(6.58239e-07 0 0)
(6.69399e-07 0 0)
(6.80588e-07 0 0)
(6.91805e-07 0 0)
(7.0305e-07 0 0)
(7.14321e-07 0 0)
(7.25618e-07 0 0)
(7.36942e-07 0 0)
(7.48291e-07 0 0)
(7.59666e-07 0 0)
(7.71066e-07 0 0)
(7.82491e-07 0 0)
(7.93941e-07 0 0)
(8.05415e-07 0 0)
(8.16913e-07 0 0)
(8.28436e-07 0 0)
(8.39983e-07 0 0)
(8.51554e-07 0 0)
(8.6315e-07 0 0)
(8.74769e-07 0 0)
(8.86413e-07 0 0)
(8.98079e-07 0 0)
(9.09768e-07 0 0)
(9.21478e-07 0 0)
(9.3321e-07 0 0)
(9.44962e-07 0 0)
(9.56735e-07 0 0)
(9.68528e-07 0 0)
(9.80341e-07 0 0)
(9.92176e-07 0 0)
(1.00403e-06 0 0)
(1.01591e-06 0 0)
(1.0278e-06 0 0)
(1.03971e-06 0 0)
(1.05164e-06 0 0)
(1.06358e-06 0 0)
(1.07552e-06 0 0)
(1.08748e-06 0 0)
(1.09944e-06 0 0)
(1.1114e-06 0 0)
(1.12337e-06 0 0)
(1.13534e-06 0 0)
(1.14731e-06 0 0)
(1.15928e-06 0 0)
(1.17127e-06 0 0)
(1.18326e-06 0 0)
(1.19527e-06 0 0)
(1.20729e-06 0 0)
(1.21934e-06 0 0)
(1.23141e-06 0 0)
(1.24352e-06 0 0)
(1.25566e-06 0 0)
(1.26786e-06 0 0)
(1.2801e-06 0 0)
(1.2924e-06 0 0)
(1.30477e-06 0 0)
(1.3172e-06 0 0)
(1.32969e-06 0 0)
(1.34225e-06 0 0)
(1.35487e-06 0 0)
(1.36754e-06 0 0)
(1.38027e-06 0 0)
(1.39304e-06 0 0)
(1.40585e-06 0 0)
(1.41868e-06 0 0)
(1.43154e-06 0 0)
(1.44441e-06 0 0)
(1.45728e-06 0 0)
(1.47016e-06 0 0)
(1.48303e-06 0 0)
(1.4959e-06 0 0)
(1.50876e-06 0 0)
(1.52162e-06 0 0)
(1.53448e-06 0 0)
(1.54734e-06 0 0)
(1.5602e-06 0 0)
(1.57306e-06 0 0)
(1.58593e-06 0 0)
(1.59881e-06 0 0)
(1.61171e-06 0 0)
(1.62463e-06 0 0)
(1.63756e-06 0 0)
(1.65052e-06 0 0)
(1.6635e-06 0 0)
(1.6765e-06 0 0)
(1.68953e-06 0 0)
(1.70259e-06 0 0)
(1.71568e-06 0 0)
(1.72879e-06 0 0)
(1.74193e-06 0 0)
(1.7551e-06 0 0)
(1.7683e-06 0 0)
(1.78152e-06 0 0)
(1.79477e-06 0 0)
(1.80805e-06 0 0)
(1.82135e-06 0 0)
(1.83468e-06 0 0)
(1.84804e-06 0 0)
(1.86142e-06 0 0)
(1.87482e-06 0 0)
(1.88825e-06 0 0)
(1.90171e-06 0 0)
(1.91519e-06 0 0)
(1.92869e-06 0 0)
(1.94222e-06 0 0)
(1.95577e-06 0 0)
(1.96934e-06 0 0)
(1.98294e-06 0 0)
(1.99656e-06 0 0)
(2.01021e-06 0 0)
(2.02388e-06 0 0)
(2.03757e-06 0 0)
(2.05129e-06 0 0)
(2.06503e-06 0 0)
(2.0788e-06 0 0)
(2.09259e-06 0 0)
(2.1064e-06 0 0)
(2.12024e-06 0 0)
(2.1341e-06 0 0)
(2.14798e-06 0 0)
(2.16189e-06 0 0)
(2.17583e-06 0 0)
(2.18979e-06 0 0)
(2.20377e-06 0 0)
(2.21778e-06 0 0)
(2.23181e-06 0 0)
(2.24588e-06 0 0)
(2.25996e-06 0 0)
(2.27408e-06 0 0)
(2.28822e-06 0 0)
(2.30239e-06 0 0)
(2.31658e-06 0 0)
(2.3308e-06 0 0)
(2.34505e-06 0 0)
(2.35933e-06 0 0)
(2.37364e-06 0 0)
(2.38797e-06 0 0)
(2.40233e-06 0 0)
(2.41672e-06 0 0)
(2.43114e-06 0 0)
(2.44559e-06 0 0)
(2.46006e-06 0 0)
(2.47457e-06 0 0)
(2.4891e-06 0 0)
(2.50366e-06 0 0)
(2.51825e-06 0 0)
(2.53288e-06 0 0)
(2.54753e-06 0 0)
(2.56221e-06 0 0)
(2.57692e-06 0 0)
(2.59166e-06 0 0)
(2.60643e-06 0 0)
(2.62123e-06 0 0)
(2.63607e-06 0 0)
(2.65093e-06 0 0)
(2.66583e-06 0 0)
(2.68075e-06 0 0)
(2.69571e-06 0 0)
(2.7107e-06 0 0)
(2.72572e-06 0 0)
(2.74078e-06 0 0)
(2.75587e-06 0 0)
(2.77099e-06 0 0)
(2.78615e-06 0 0)
(2.80134e-06 0 0)
(2.81657e-06 0 0)
(2.83183e-06 0 0)
(2.84713e-06 0 0)
(2.86246e-06 0 0)
(2.87783e-06 0 0)
(2.89323e-06 0 0)
(2.90867e-06 0 0)
(2.92414e-06 0 0)
(2.93966e-06 0 0)
(2.9552e-06 0 0)
(2.97079e-06 0 0)
(2.98641e-06 0 0)
(3.00206e-06 0 0)
(3.01776e-06 0 0)
(3.03349e-06 0 0)
(3.04925e-06 0 0)
(3.06505e-06 0 0)
(3.08089e-06 0 0)
(3.09676e-06 0 0)
(3.11266e-06 0 0)
(3.1286e-06 0 0)
(3.14456e-06 0 0)
(3.16056e-06 0 0)
(3.17659e-06 0 0)
(3.19264e-06 0 0)
(3.20872e-06 0 0)
(3.22482e-06 0 0)
(3.24095e-06 0 0)
(3.25711e-06 0 0)
(3.27329e-06 0 0)
(3.28949e-06 0 0)
(3.30572e-06 0 0)
(3.32197e-06 0 0)
(3.33826e-06 0 0)
(3.35457e-06 0 0)
(3.37092e-06 0 0)
(3.38731e-06 0 0)
(3.40373e-06 0 0)
(3.4202e-06 0 0)
(3.43672e-06 0 0)
(3.4533e-06 0 0)
(3.46994e-06 0 0)
(3.48664e-06 0 0)
(3.50342e-06 0 0)
(3.52028e-06 0 0)
(3.53723e-06 0 0)
(3.55426e-06 0 0)
(3.5714e-06 0 0)
(3.58864e-06 0 0)
(3.60598e-06 0 0)
(3.62344e-06 0 0)
(3.64101e-06 0 0)
(3.6587e-06 0 0)
(3.6765e-06 0 0)
(3.69442e-06 0 0)
(3.71244e-06 0 0)
(3.73058e-06 0 0)
(3.74882e-06 0 0)
(3.76716e-06 0 0)
(3.78559e-06 0 0)
(3.80411e-06 0 0)
(3.82271e-06 0 0)
(3.84139e-06 0 0)
(3.86013e-06 0 0)
(3.87894e-06 0 0)
(3.89781e-06 0 0)
(3.91674e-06 0 0)
(3.93572e-06 0 0)
(3.95474e-06 0 0)
(3.97382e-06 0 0)
(3.99294e-06 0 0)
(4.01211e-06 0 0)
(4.03133e-06 0 0)
(4.0506e-06 0 0)
(4.06993e-06 0 0)
(4.0893e-06 0 0)
(4.10874e-06 0 0)
(4.12824e-06 0 0)
(4.1478e-06 0 0)
(4.16743e-06 0 0)
(4.18714e-06 0 0)
(4.20692e-06 0 0)
(4.22678e-06 0 0)
(4.24673e-06 0 0)
(4.26677e-06 0 0)
(4.2869e-06 0 0)
(4.30712e-06 0 0)
(4.32744e-06 0 0)
(4.34786e-06 0 0)
(4.36838e-06 0 0)
(4.38901e-06 0 0)
(4.40974e-06 0 0)
(4.43058e-06 0 0)
(4.45154e-06 0 0)
(4.4726e-06 0 0)
(4.49379e-06 0 0)
(4.51509e-06 0 0)
(4.5365e-06 0 0)
(4.55804e-06 0 0)
(4.5797e-06 0 0)
(4.60148e-06 0 0)
(4.62338e-06 0 0)
(4.64542e-06 0 0)
(4.66758e-06 0 0)
(4.68988e-06 0 0)
(4.7123e-06 0 0)
(4.73486e-06 0 0)
(4.75755e-06 0 0)
(4.78038e-06 0 0)
(4.80335e-06 0 0)
(4.82646e-06 0 0)
(4.84971e-06 0 0)
(4.87311e-06 0 0)
(4.89665e-06 0 0)
(4.92034e-06 0 0)
(4.94417e-06 0 0)
(4.96815e-06 0 0)
(4.99228e-06 0 0)
(5.01656e-06 0 0)
(5.04099e-06 0 0)
(5.06556e-06 0 0)
(5.09029e-06 0 0)
(5.11515e-06 0 0)
(5.14014e-06 0 0)
(5.16526e-06 0 0)
(5.1905e-06 0 0)
(5.21586e-06 0 0)
(5.2413e-06 0 0)
(5.26682e-06 0 0)
(5.29239e-06 0 0)
(5.31796e-06 0 0)
(5.34351e-06 0 0)
(5.36898e-06 0 0)
(5.39432e-06 0 0)
(5.41946e-06 0 0)
(5.44431e-06 0 0)
(5.46877e-06 0 0)
(5.49275e-06 0 0)
(5.51611e-06 0 0)
(5.53874e-06 0 0)
(5.5605e-06 0 0)
(5.58127e-06 0 0)
(5.60092e-06 0 0)
(5.61931e-06 0 0)
(5.63637e-06 0 0)
(5.65202e-06 0 0)
(5.66625e-06 0 0)
(5.6791e-06 0 0)
(5.69065e-06 0 0)
(5.70114e-06 0 0)
(5.71094e-06 0 0)
(5.72073e-06 0 0)
(5.73167e-06 0 0)
(5.74574e-06 0 0)
(5.76639e-06 0 0)
(5.79948e-06 0 0)
(5.85501e-06 0 0)
(5.94918e-06 0 0)
(6.1064e-06 0 0)
(6.35815e-06 0 0)
(6.73338e-06 0 0)
(7.23601e-06 0 0)
(7.82063e-06 0 0)
(8.39684e-06 0 0)
(8.87541e-06 0 0)
(9.21579e-06 0 0)
(9.42992e-06 0 0)
(9.55364e-06 0 0)
(9.62142e-06 0 0)
(9.65743e-06 0 0)
(9.67623e-06 0 0)
(9.68595e-06 0 0)
(9.69092e-06 0 0)
(9.69345e-06 0 0)
(9.69471e-06 0 0)
(9.69532e-06 0 0)
(9.69559e-06 0 0)
(9.6957e-06 0 0)
(9.69571e-06 0 0)
(9.69567e-06 0 0)
(9.69561e-06 0 0)
(9.69553e-06 0 0)
(9.69545e-06 0 0)
(9.69536e-06 0 0)
(9.69527e-06 0 0)
(9.69517e-06 0 0)
(9.69507e-06 0 0)
(9.69497e-06 0 0)
(9.69486e-06 0 0)
(9.69475e-06 0 0)
(9.69464e-06 0 0)
(9.69453e-06 0 0)
(9.69441e-06 0 0)
(9.69428e-06 0 0)
(9.69415e-06 0 0)
(9.69402e-06 0 0)
(9.69387e-06 0 0)
(9.69372e-06 0 0)
(9.69356e-06 0 0)
(9.69339e-06 0 0)
(9.69321e-06 0 0)
(9.69302e-06 0 0)
(9.69282e-06 0 0)
(9.6926e-06 0 0)
(9.69237e-06 0 0)
(9.69212e-06 0 0)
(9.69185e-06 0 0)
(9.69156e-06 0 0)
(9.69125e-06 0 0)
(9.69091e-06 0 0)
(9.69055e-06 0 0)
(9.69017e-06 0 0)
(9.68976e-06 0 0)
(9.68932e-06 0 0)
(9.68885e-06 0 0)
(9.68835e-06 0 0)
(9.68783e-06 0 0)
(9.68727e-06 0 0)
(9.68669e-06 0 0)
(9.68607e-06 0 0)
(9.68544e-06 0 0)
(9.68477e-06 0 0)
(9.68408e-06 0 0)
(9.68338e-06 0 0)
(9.68265e-06 0 0)
(9.68191e-06 0 0)
(9.68116e-06 0 0)
(9.68041e-06 0 0)
(9.67965e-06 0 0)
(9.67889e-06 0 0)
(9.67815e-06 0 0)
(9.67741e-06 0 0)
(9.6767e-06 0 0)
(9.67601e-06 0 0)
(9.67535e-06 0 0)
(9.67473e-06 0 0)
(9.67416e-06 0 0)
(9.67364e-06 0 0)
(9.67317e-06 0 0)
(9.67277e-06 0 0)
(9.67244e-06 0 0)
(9.67219e-06 0 0)
(9.67201e-06 0 0)
(9.67191e-06 0 0)
(9.67188e-06 0 0)
(9.67188e-06 0 0)
(9.6719e-06 0 0)
(9.67204e-06 0 0)
(9.67233e-06 0 0)
(9.6727e-06 0 0)
(9.67314e-06 0 0)
(9.67365e-06 0 0)
(9.67422e-06 0 0)
(9.67485e-06 0 0)
(9.67553e-06 0 0)
(9.67624e-06 0 0)
(9.67699e-06 0 0)
(9.67777e-06 0 0)
(9.67856e-06 0 0)
(9.67936e-06 0 0)
(9.68017e-06 0 0)
(9.68097e-06 0 0)
(9.68176e-06 0 0)
(9.68253e-06 0 0)
(9.68328e-06 0 0)
(9.684e-06 0 0)
(9.68468e-06 0 0)
(9.68533e-06 0 0)
(9.68594e-06 0 0)
(9.68652e-06 0 0)
(9.68705e-06 0 0)
(9.68753e-06 0 0)
(9.68798e-06 0 0)
(9.68839e-06 0 0)
(9.68875e-06 0 0)
(9.68908e-06 0 0)
(9.68937e-06 0 0)
(9.68963e-06 0 0)
(9.68986e-06 0 0)
(9.69006e-06 0 0)
(9.69024e-06 0 0)
(9.69039e-06 0 0)
(9.69052e-06 0 0)
(9.69064e-06 0 0)
(9.69074e-06 0 0)
(9.69083e-06 0 0)
(9.69092e-06 0 0)
(9.69099e-06 0 0)
(9.69106e-06 0 0)
(9.69113e-06 0 0)
(9.69119e-06 0 0)
(9.69125e-06 0 0)
(9.69132e-06 0 0)
(9.69139e-06 0 0)
(9.69145e-06 0 0)
(9.69153e-06 0 0)
(9.6916e-06 0 0)
(9.69169e-06 0 0)
(9.69177e-06 0 0)
(9.69186e-06 0 0)
(9.69196e-06 0 0)
(9.69206e-06 0 0)
(9.69216e-06 0 0)
(9.69227e-06 0 0)
(9.69238e-06 0 0)
(9.6925e-06 0 0)
(9.69262e-06 0 0)
(9.69275e-06 0 0)
(9.69287e-06 0 0)
(9.693e-06 0 0)
(9.69314e-06 0 0)
(9.69327e-06 0 0)
(9.6934e-06 0 0)
(9.69354e-06 0 0)
(9.69368e-06 0 0)
(9.69381e-06 0 0)
(9.69395e-06 0 0)
(9.69409e-06 0 0)
(9.69422e-06 0 0)
(9.69436e-06 0 0)
(9.69449e-06 0 0)
(9.69463e-06 0 0)
(9.69476e-06 0 0)
(9.69489e-06 0 0)
(9.69501e-06 0 0)
(9.69514e-06 0 0)
(9.69526e-06 0 0)
(9.69538e-06 0 0)
(9.6955e-06 0 0)
(9.69561e-06 0 0)
(9.69572e-06 0 0)
(9.69582e-06 0 0)
(9.69592e-06 0 0)
(9.69602e-06 0 0)
(9.69611e-06 0 0)
(9.6962e-06 0 0)
(9.69629e-06 0 0)
(9.69637e-06 0 0)
(9.69644e-06 0 0)
(9.69651e-06 0 0)
(9.69658e-06 0 0)
(9.69664e-06 0 0)
(9.6967e-06 0 0)
(9.69675e-06 0 0)
(9.69679e-06 0 0)
(9.69684e-06 0 0)
(9.69687e-06 0 0)
(9.69691e-06 0 0)
(9.69693e-06 0 0)
(9.69696e-06 0 0)
(9.69698e-06 0 0)
(9.69699e-06 0 0)
(9.697e-06 0 0)
(9.69701e-06 0 0)
(9.69702e-06 0 0)
(9.69702e-06 0 0)
(9.69702e-06 0 0)
(9.69702e-06 0 0)
(9.69701e-06 0 0)
(9.69699e-06 0 0)
(9.69698e-06 0 0)
(9.69696e-06 0 0)
(9.69694e-06 0 0)
(9.69691e-06 0 0)
(9.69688e-06 0 0)
(9.69686e-06 0 0)
(9.69682e-06 0 0)
(9.69679e-06 0 0)
(9.69675e-06 0 0)
(9.69672e-06 0 0)
(9.69668e-06 0 0)
(9.69663e-06 0 0)
(9.69659e-06 0 0)
(9.69654e-06 0 0)
(9.69649e-06 0 0)
(9.69644e-06 0 0)
(9.69639e-06 0 0)
(9.69634e-06 0 0)
(9.69628e-06 0 0)
(9.69622e-06 0 0)
(9.69616e-06 0 0)
(9.6961e-06 0 0)
(9.69604e-06 0 0)
(9.69597e-06 0 0)
(9.6959e-06 0 0)
(9.69583e-06 0 0)
(9.69576e-06 0 0)
(9.69568e-06 0 0)
(9.6956e-06 0 0)
(9.69553e-06 0 0)
(9.69544e-06 0 0)
(9.69536e-06 0 0)
(9.69527e-06 0 0)
(9.69518e-06 0 0)
(9.69508e-06 0 0)
(9.69498e-06 0 0)
(9.69487e-06 0 0)
(9.69476e-06 0 0)
(9.69464e-06 0 0)
(9.69452e-06 0 0)
(9.69439e-06 0 0)
(9.69425e-06 0 0)
(9.6941e-06 0 0)
(9.69395e-06 0 0)
(9.69379e-06 0 0)
(9.69362e-06 0 0)
(9.69343e-06 0 0)
(9.69324e-06 0 0)
(9.69303e-06 0 0)
(9.69281e-06 0 0)
(9.69258e-06 0 0)
(9.69233e-06 0 0)
(9.69207e-06 0 0)
(9.6918e-06 0 0)
(9.6915e-06 0 0)
(9.69119e-06 0 0)
(9.69086e-06 0 0)
(9.69051e-06 0 0)
(9.69014e-06 0 0)
(9.68975e-06 0 0)
(9.68934e-06 0 0)
(9.68891e-06 0 0)
(9.68846e-06 0 0)
(9.68798e-06 0 0)
(9.68749e-06 0 0)
(9.68697e-06 0 0)
(9.68644e-06 0 0)
(9.68588e-06 0 0)
(9.68531e-06 0 0)
(9.68472e-06 0 0)
(9.68412e-06 0 0)
(9.68351e-06 0 0)
(9.68289e-06 0 0)
(9.68225e-06 0 0)
(9.68162e-06 0 0)
(9.68098e-06 0 0)
(9.68035e-06 0 0)
(9.67972e-06 0 0)
(9.6791e-06 0 0)
(9.67849e-06 0 0)
(9.67791e-06 0 0)
(9.67734e-06 0 0)
(9.6768e-06 0 0)
(9.67628e-06 0 0)
(9.67581e-06 0 0)
(9.67536e-06 0 0)
(9.67496e-06 0 0)
(9.67461e-06 0 0)
(9.67431e-06 0 0)
(9.67405e-06 0 0)
(9.67385e-06 0 0)
(9.67371e-06 0 0)
(9.67363e-06 0 0)
(9.6736e-06 0 0)
(9.67359e-06 0 0)
(9.67361e-06 0 0)
(9.67369e-06 0 0)
(9.67389e-06 0 0)
(9.67415e-06 0 0)
(9.67448e-06 0 0)
(9.67485e-06 0 0)
(9.67528e-06 0 0)
(9.67575e-06 0 0)
(9.67625e-06 0 0)
(9.67679e-06 0 0)
(9.67736e-06 0 0)
(9.67796e-06 0 0)
(9.67857e-06 0 0)
(9.6792e-06 0 0)
(9.67983e-06 0 0)
(9.68046e-06 0 0)
(9.6811e-06 0 0)
(9.68172e-06 0 0)
(9.68234e-06 0 0)
(9.68294e-06 0 0)
(9.68351e-06 0 0)
(9.68407e-06 0 0)
(9.6846e-06 0 0)
(9.68511e-06 0 0)
(9.68559e-06 0 0)
(9.68604e-06 0 0)
(9.68646e-06 0 0)
(9.68685e-06 0 0)
(9.68722e-06 0 0)
(9.68755e-06 0 0)
(9.68786e-06 0 0)
(9.68814e-06 0 0)
(9.6884e-06 0 0)
(9.68863e-06 0 0)
(9.68884e-06 0 0)
(9.68904e-06 0 0)
(9.68921e-06 0 0)
(9.68937e-06 0 0)
(9.68951e-06 0 0)
(9.68965e-06 0 0)
(9.68977e-06 0 0)
(9.68988e-06 0 0)
(9.68999e-06 0 0)
(9.69009e-06 0 0)
(9.69018e-06 0 0)
(9.69028e-06 0 0)
(9.69037e-06 0 0)
(9.69046e-06 0 0)
(9.69055e-06 0 0)
(9.69064e-06 0 0)
(9.69074e-06 0 0)
(9.69083e-06 0 0)
(9.69093e-06 0 0)
(9.69104e-06 0 0)
(9.69114e-06 0 0)
(9.69125e-06 0 0)
(9.69136e-06 0 0)
(9.69148e-06 0 0)
(9.6916e-06 0 0)
(9.69172e-06 0 0)
(9.69185e-06 0 0)
(9.69198e-06 0 0)
(9.69211e-06 0 0)
(9.69225e-06 0 0)
(9.69239e-06 0 0)
(9.69253e-06 0 0)
(9.69267e-06 0 0)
(9.69281e-06 0 0)
(9.69296e-06 0 0)
(9.69311e-06 0 0)
(9.69326e-06 0 0)
(9.69341e-06 0 0)
(9.69356e-06 0 0)
(9.69371e-06 0 0)
(9.69386e-06 0 0)
(9.69401e-06 0 0)
(9.69416e-06 0 0)
(9.6943e-06 0 0)
(9.69445e-06 0 0)
(9.6946e-06 0 0)
(9.69474e-06 0 0)
(9.69489e-06 0 0)
(9.69503e-06 0 0)
(9.69517e-06 0 0)
(9.69531e-06 0 0)
(9.69544e-06 0 0)
(9.69558e-06 0 0)
(9.69571e-06 0 0)
(9.69583e-06 0 0)
(9.69596e-06 0 0)
(9.69608e-06 0 0)
(9.6962e-06 0 0)
(9.69631e-06 0 0)
(9.69642e-06 0 0)
(9.69653e-06 0 0)
(9.69663e-06 0 0)
(9.69673e-06 0 0)
(9.69682e-06 0 0)
(9.69691e-06 0 0)
(9.69699e-06 0 0)
(9.69707e-06 0 0)
(9.69714e-06 0 0)
(9.69721e-06 0 0)
(9.69728e-06 0 0)
(9.69734e-06 0 0)
(9.69739e-06 0 0)
(9.69744e-06 0 0)
(9.69749e-06 0 0)
(9.69753e-06 0 0)
(9.69756e-06 0 0)
(9.69759e-06 0 0)
(9.69761e-06 0 0)
(9.69763e-06 0 0)
(9.69765e-06 0 0)
(9.69766e-06 0 0)
(9.69766e-06 0 0)
(9.69766e-06 0 0)
(9.69766e-06 0 0)
(9.69766e-06 0 0)
(9.69765e-06 0 0)
(9.69763e-06 0 0)
(9.69761e-06 0 0)
(9.69758e-06 0 0)
(9.69755e-06 0 0)
(9.69751e-06 0 0)
(9.69748e-06 0 0)
(9.69743e-06 0 0)
(9.69739e-06 0 0)
(9.69734e-06 0 0)
(9.69728e-06 0 0)
(9.69723e-06 0 0)
(9.69717e-06 0 0)
(9.6971e-06 0 0)
(9.69704e-06 0 0)
(9.69697e-06 0 0)
(9.69689e-06 0 0)
(9.69681e-06 0 0)
(9.69673e-06 0 0)
(9.69665e-06 0 0)
(9.69656e-06 0 0)
(9.69647e-06 0 0)
(9.69638e-06 0 0)
(9.69628e-06 0 0)
(9.69618e-06 0 0)
(9.69607e-06 0 0)
(9.69596e-06 0 0)
(9.69585e-06 0 0)
(9.69573e-06 0 0)
(9.69561e-06 0 0)
(9.69548e-06 0 0)
(9.69534e-06 0 0)
(9.6952e-06 0 0)
(9.69505e-06 0 0)
(9.6949e-06 0 0)
(9.69474e-06 0 0)
(9.69457e-06 0 0)
(9.69439e-06 0 0)
(9.6942e-06 0 0)
(9.69401e-06 0 0)
(9.6938e-06 0 0)
(9.69359e-06 0 0)
(9.69336e-06 0 0)
(9.69312e-06 0 0)
(9.69287e-06 0 0)
(9.6926e-06 0 0)
(9.69232e-06 0 0)
(9.69203e-06 0 0)
(9.69173e-06 0 0)
(9.6914e-06 0 0)
(9.69106e-06 0 0)
(9.69071e-06 0 0)
(9.69034e-06 0 0)
(9.68995e-06 0 0)
(9.68955e-06 0 0)
(9.68913e-06 0 0)
(9.68869e-06 0 0)
(9.68824e-06 0 0)
(9.68777e-06 0 0)
(9.68729e-06 0 0)
(9.68679e-06 0 0)
(9.68629e-06 0 0)
(9.68576e-06 0 0)
(9.68523e-06 0 0)
(9.68469e-06 0 0)
(9.68414e-06 0 0)
(9.68358e-06 0 0)
(9.68302e-06 0 0)
(9.68246e-06 0 0)
(9.6819e-06 0 0)
(9.68134e-06 0 0)
(9.68078e-06 0 0)
(9.68024e-06 0 0)
(9.67971e-06 0 0)
(9.67919e-06 0 0)
(9.67868e-06 0 0)
(9.6782e-06 0 0)
(9.67774e-06 0 0)
(9.6773e-06 0 0)
(9.6769e-06 0 0)
(9.67652e-06 0 0)
(9.67618e-06 0 0)
(9.67588e-06 0 0)
(9.67561e-06 0 0)
(9.67539e-06 0 0)
(9.67521e-06 0 0)
(9.67507e-06 0 0)
(9.67499e-06 0 0)
(9.67494e-06 0 0)
(9.67493e-06 0 0)
(9.67493e-06 0 0)
(9.67496e-06 0 0)
(9.67507e-06 0 0)
(9.67526e-06 0 0)
(9.6755e-06 0 0)
(9.67577e-06 0 0)
(9.67609e-06 0 0)
(9.67645e-06 0 0)
(9.67684e-06 0 0)
(9.67726e-06 0 0)
(9.6777e-06 0 0)
(9.67817e-06 0 0)
(9.67867e-06 0 0)
(9.67917e-06 0 0)
(9.67969e-06 0 0)
(9.68022e-06 0 0)
(9.68075e-06 0 0)
(9.68128e-06 0 0)
(9.68181e-06 0 0)
(9.68233e-06 0 0)
(9.68285e-06 0 0)
(9.68335e-06 0 0)
(9.68384e-06 0 0)
(9.68431e-06 0 0)
(9.68477e-06 0 0)
(9.6852e-06 0 0)
(9.68562e-06 0 0)
(9.68602e-06 0 0)
(9.68639e-06 0 0)
(9.68674e-06 0 0)
(9.68708e-06 0 0)
(9.68739e-06 0 0)
(9.68768e-06 0 0)
(9.68796e-06 0 0)
(9.68822e-06 0 0)
(9.68846e-06 0 0)
(9.68868e-06 0 0)
(9.68889e-06 0 0)
(9.68909e-06 0 0)
(9.68927e-06 0 0)
(9.68944e-06 0 0)
(9.68961e-06 0 0)
(9.68977e-06 0 0)
(9.68992e-06 0 0)
(9.69006e-06 0 0)
(9.6902e-06 0 0)
(9.69034e-06 0 0)
(9.69047e-06 0 0)
(9.69061e-06 0 0)
(9.69074e-06 0 0)
(9.69087e-06 0 0)
(9.691e-06 0 0)
(9.69114e-06 0 0)
(9.69127e-06 0 0)
(9.69141e-06 0 0)
(9.69155e-06 0 0)
(9.69169e-06 0 0)
(9.69183e-06 0 0)
(9.69197e-06 0 0)
(9.69212e-06 0 0)
(9.69227e-06 0 0)
(9.69242e-06 0 0)
(9.69258e-06 0 0)
(9.69273e-06 0 0)
(9.69289e-06 0 0)
(9.69305e-06 0 0)
(9.69321e-06 0 0)
(9.69337e-06 0 0)
(9.69354e-06 0 0)
(9.6937e-06 0 0)
(9.69387e-06 0 0)
(9.69403e-06 0 0)
(9.69419e-06 0 0)
(9.69436e-06 0 0)
(9.69452e-06 0 0)
(9.69468e-06 0 0)
(9.69484e-06 0 0)
(9.69501e-06 0 0)
(9.69516e-06 0 0)
(9.69532e-06 0 0)
(9.69548e-06 0 0)
(9.69563e-06 0 0)
(9.69578e-06 0 0)
(9.69593e-06 0 0)
(9.69607e-06 0 0)
(9.69622e-06 0 0)
(9.69636e-06 0 0)
(9.69649e-06 0 0)
(9.69662e-06 0 0)
(9.69675e-06 0 0)
(9.69688e-06 0 0)
(9.697e-06 0 0)
(9.69711e-06 0 0)
(9.69722e-06 0 0)
(9.69733e-06 0 0)
(9.69743e-06 0 0)
)
;

boundaryField
{
    inlet
    {
        type            fixedValue;
        value           uniform (0 0 0);
    }
    outlet
    {
        type            zeroGradient;
    }
    emptyWalls
    {
        type            empty;
    }
}


// ************************************************************************* //
