/*--------------------------------*- C++ -*----------------------------------*\
  =========                 |
  \\      /  F ield         | OpenFOAM: The Open Source CFD Toolbox
   \\    /   O peration     | Website:  https://openfoam.org
    \\  /    A nd           | Version:  9
     \\/     M anipulation  |
\*---------------------------------------------------------------------------*/
FoamFile
{
    format      ascii;
    class       volScalarField;
    location    "1600";
    object      kra;
}
// * * * * * * * * * * * * * * * * * * * * * * * * * * * * * * * * * * * * * //

dimensions      [0 0 0 0 0 0 0];

internalField   nonuniform List<scalar> 
100
(
3.94614e-05
2.86856e-05
3.10005e-05
2.95058e-05
2.94583e-05
2.8988e-05
2.87081e-05
2.83954e-05
2.81151e-05
2.78346e-05
2.75528e-05
2.72715e-05
2.75095e-05
2.7532e-05
2.76268e-05
2.76842e-05
2.77479e-05
2.78019e-05
2.7853e-05
2.78991e-05
2.79414e-05
2.79797e-05
2.80143e-05
2.80454e-05
2.8073e-05
2.80973e-05
2.81183e-05
2.81361e-05
2.81506e-05
2.8162e-05
2.81701e-05
2.81751e-05
2.81768e-05
2.81751e-05
2.81701e-05
2.81616e-05
2.81493e-05
2.8133e-05
2.81124e-05
2.80869e-05
2.80558e-05
2.8018e-05
2.7972e-05
2.79153e-05
2.78441e-05
2.77519e-05
2.76265e-05
2.7443e-05
2.71436e-05
2.65627e-05
2.50779e-05
1.97876e-05
6.42428e-06
1.39325e-07
6.95517e-12
3.21199e-21
2.78984e-35
2.78969e-35
2.95698e-35
3.04239e-35
2.95668e-35
3.04206e-35
2.95633e-35
2.78854e-35
2.78611e-35
3.27629e-35
2.79434e-35
1.57113e-35
2.20818e-36
1.1474e-36
1.21274e-36
1.28138e-36
1.21174e-36
1.31689e-36
1.28135e-36
1.31689e-36
1.21174e-36
1.21174e-36
1.21174e-36
1.28135e-36
1.11099e-36
1.31689e-36
1.21174e-36
1.21174e-36
1.28135e-36
1.07838e-36
1.31689e-36
1.21174e-36
1.28135e-36
1.31689e-36
1.28135e-36
1.31689e-36
1.21174e-36
1.28135e-36
1.31689e-36
1.11099e-36
1.28135e-36
1.31689e-36
1.28135e-36
1.31689e-36
)
;

boundaryField
{
    inlet
    {
        type            calculated;
        value           uniform 1.11267e-05;
    }
    outlet
    {
        type            calculated;
        value           uniform 4.72742e-37;
    }
    emptyWalls
    {
        type            empty;
    }
}


// ************************************************************************* //
