/*--------------------------------*- C++ -*----------------------------------*\
  =========                 |
  \\      /  F ield         | OpenFOAM: The Open Source CFD Toolbox
   \\    /   O peration     | Website:  https://openfoam.org
    \\  /    A nd           | Version:  9
     \\/     M anipulation  |
\*---------------------------------------------------------------------------*/
FoamFile
{
    format      ascii;
    class       volScalarField;
    location    "1600";
    object      p;
}
// * * * * * * * * * * * * * * * * * * * * * * * * * * * * * * * * * * * * * //

dimensions      [0 0 0 0 0 0 0];

internalField   nonuniform List<scalar> 
100
(
5.59003e+06
5.5818e+06
5.5705e+06
5.56005e+06
5.5491e+06
5.53815e+06
5.52704e+06
5.51584e+06
5.50455e+06
5.49317e+06
5.4817e+06
5.47014e+06
5.4585e+06
5.447e+06
5.43555e+06
5.42417e+06
5.41285e+06
5.40159e+06
5.39039e+06
5.37926e+06
5.36818e+06
5.35715e+06
5.34619e+06
5.33528e+06
5.32442e+06
5.31362e+06
5.30288e+06
5.29218e+06
5.28155e+06
5.27096e+06
5.26044e+06
5.24996e+06
5.23954e+06
5.22918e+06
5.21887e+06
5.20862e+06
5.19842e+06
5.18829e+06
5.17821e+06
5.1682e+06
5.15825e+06
5.14838e+06
5.13857e+06
5.12884e+06
5.11921e+06
5.10967e+06
5.10024e+06
5.09096e+06
5.08186e+06
5.07304e+06
5.06466e+06
5.05714e+06
5.05153e+06
5.04851e+06
5.04642e+06
5.04442e+06
5.04241e+06
5.04041e+06
5.03841e+06
5.0364e+06
5.0344e+06
5.0324e+06
5.0304e+06
5.02839e+06
5.02639e+06
5.02439e+06
5.02239e+06
5.0204e+06
5.0186e+06
5.01775e+06
5.01716e+06
5.01658e+06
5.016e+06
5.01541e+06
5.01483e+06
5.01425e+06
5.01367e+06
5.01309e+06
5.01251e+06
5.01192e+06
5.01134e+06
5.01076e+06
5.01018e+06
5.0096e+06
5.00902e+06
5.00843e+06
5.00785e+06
5.00727e+06
5.00669e+06
5.00611e+06
5.00553e+06
5.00494e+06
5.00436e+06
5.00378e+06
5.0032e+06
5.00262e+06
5.00204e+06
5.00145e+06
5.00087e+06
5.00029e+06
)
;

boundaryField
{
    inlet
    {
        type            darcyGradPressure;
        gradient        uniform 4.13019e+06;
        Mf              Mf;
        phi             phi;
        value           uniform 5.59829e+06;
    }
    outlet
    {
        type            fixedValue;
        value           uniform 5e+06;
    }
    emptyWalls
    {
        type            empty;
    }
}


// ************************************************************************* //
