/*--------------------------------*- C++ -*----------------------------------*\
  =========                 |
  \\      /  F ield         | OpenFOAM: The Open Source CFD Toolbox
   \\    /   O peration     | Website:  https://openfoam.org
    \\  /    A nd           | Version:  9
     \\/     M anipulation  |
\*---------------------------------------------------------------------------*/
FoamFile
{
    format      ascii;
    class       surfaceScalarField;
    location    "1600";
    object      phia;
}
// * * * * * * * * * * * * * * * * * * * * * * * * * * * * * * * * * * * * * //

dimensions      [0 2 0 0 0 0 0];

internalField   nonuniform List<scalar> 
99
(
1.41941e-08
1.41744e-08
1.41524e-08
1.41291e-08
1.41043e-08
1.40782e-08
1.40507e-08
1.40216e-08
1.39908e-08
1.39574e-08
1.39205e-08
1.38735e-08
1.38313e-08
1.37875e-08
1.37441e-08
1.36997e-08
1.36546e-08
1.36085e-08
1.35614e-08
1.35133e-08
1.34641e-08
1.34137e-08
1.33621e-08
1.33093e-08
1.32552e-08
1.31997e-08
1.31428e-08
1.30845e-08
1.30245e-08
1.29629e-08
1.28996e-08
1.28343e-08
1.27669e-08
1.26973e-08
1.26252e-08
1.25503e-08
1.24723e-08
1.23906e-08
1.23045e-08
1.22133e-08
1.21157e-08
1.201e-08
1.18938e-08
1.17635e-08
1.16135e-08
1.14344e-08
1.12103e-08
1.09103e-08
1.04696e-08
9.73039e-09
8.24194e-09
4.86116e-09
8.47661e-10
1.27152e-11
6.09185e-16
2.81246e-25
2.44281e-39
2.44267e-39
2.58914e-39
2.66391e-39
2.58885e-39
2.6636e-39
2.58852e-39
2.44158e-39
2.43929e-39
2.86667e-39
2.42901e-39
1.23253e-39
8.22372e-41
2.97168e-41
3.0852e-41
3.25831e-41
3.0812e-41
3.34858e-41
3.25821e-41
3.34858e-41
3.0812e-41
3.0812e-41
3.0812e-41
3.25821e-41
2.825e-41
3.34858e-41
3.0812e-41
3.0812e-41
3.25821e-41
2.74209e-41
3.34858e-41
3.0812e-41
3.25821e-41
3.34858e-41
3.25821e-41
3.34858e-41
3.0812e-41
3.25821e-41
3.34858e-41
2.825e-41
3.25821e-41
3.34858e-41
3.25821e-41
)
;

boundaryField
{
    inlet
    {
        type            calculated;
        value           uniform -1.42126e-08;
    }
    outlet
    {
        type            calculated;
        value           uniform 1.20208e-41;
    }
    emptyWalls
    {
        type            empty;
        value           nonuniform List<scalar> 0();
    }
}


// ************************************************************************* //
