/*--------------------------------*- C++ -*----------------------------------*\
  =========                 |
  \\      /  F ield         | OpenFOAM: The Open Source CFD Toolbox
   \\    /   O peration     | Website:  https://openfoam.org
    \\  /    A nd           | Version:  9
     \\/     M anipulation  |
\*---------------------------------------------------------------------------*/
FoamFile
{
    format      ascii;
    class       surfaceScalarField;
    location    "1600";
    object      phib;
}
// * * * * * * * * * * * * * * * * * * * * * * * * * * * * * * * * * * * * * //

dimensions      [0 2 0 0 0 0 0];

internalField   nonuniform List<scalar> 
99
(
6.09044e-09
6.08959e-09
6.08863e-09
6.08764e-09
6.08658e-09
6.08547e-09
6.0843e-09
6.08308e-09
6.08177e-09
6.08037e-09
6.0788e-09
6.08131e-09
6.08222e-09
6.08382e-09
6.08521e-09
6.08677e-09
6.08836e-09
6.09004e-09
6.0918e-09
6.09364e-09
6.09557e-09
6.0976e-09
6.09973e-09
6.10197e-09
6.10433e-09
6.10683e-09
6.10947e-09
6.11228e-09
6.11525e-09
6.11842e-09
6.12177e-09
6.12532e-09
6.12909e-09
6.13307e-09
6.13727e-09
6.14173e-09
6.14646e-09
6.1515e-09
6.15692e-09
6.16279e-09
6.16923e-09
6.1764e-09
6.18454e-09
6.19402e-09
6.20543e-09
6.21977e-09
6.23891e-09
6.26671e-09
6.31244e-09
6.40353e-09
6.64879e-09
7.49941e-09
8.87197e-09
9.18645e-09
9.19191e-09
9.19255e-09
9.19297e-09
9.19326e-09
9.19352e-09
9.1938e-09
9.19408e-09
9.19438e-09
9.19474e-09
9.19552e-09
9.20031e-09
9.24401e-09
9.66389e-09
1.32168e-08
1.95078e-08
2.00787e-08
2.00939e-08
2.00942e-08
2.00942e-08
2.00942e-08
2.00942e-08
2.00942e-08
2.00942e-08
2.00942e-08
2.00942e-08
2.00942e-08
2.00942e-08
2.00942e-08
2.00942e-08
2.00942e-08
2.00942e-08
2.00942e-08
2.00942e-08
2.00942e-08
2.00942e-08
2.00942e-08
2.00942e-08
2.00942e-08
2.00942e-08
2.00942e-08
2.00942e-08
2.00942e-08
2.00942e-08
2.00942e-08
2.00942e-08
)
;

boundaryField
{
    inlet
    {
        type            calculated;
        value           uniform -6.09112e-09;
    }
    outlet
    {
        type            calculated;
        value           uniform 2.00942e-08;
    }
    emptyWalls
    {
        type            empty;
        value           nonuniform List<scalar> 0();
    }
}


// ************************************************************************* //
