/*--------------------------------*- C++ -*----------------------------------*\
  =========                 |
  \\      /  F ield         | OpenFOAM: The Open Source CFD Toolbox
   \\    /   O peration     | Website:  https://openfoam.org
    \\  /    A nd           | Version:  9
     \\/     M anipulation  |
\*---------------------------------------------------------------------------*/
FoamFile
{
    format      ascii;
    class       surfaceScalarField;
    location    "1600";
    object      phic;
}
// * * * * * * * * * * * * * * * * * * * * * * * * * * * * * * * * * * * * * //

dimensions      [0 2 0 0 0 0 0];

internalField   nonuniform List<scalar> 
99
(
1.91589e-11
3.97275e-11
6.26602e-11
8.70344e-11
1.1289e-10
1.40113e-10
1.68771e-10
1.9902e-10
2.31197e-10
2.65938e-10
3.0447e-10
3.48955e-10
3.90234e-10
4.32401e-10
4.74464e-10
5.17292e-10
5.60807e-10
6.05206e-10
6.50518e-10
6.9681e-10
7.44116e-10
7.92476e-10
8.41924e-10
8.92499e-10
9.44242e-10
9.972e-10
1.05142e-09
1.10698e-09
1.16393e-09
1.22237e-09
1.2824e-09
1.34414e-09
1.40773e-09
1.47336e-09
1.54126e-09
1.61169e-09
1.68501e-09
1.76168e-09
1.8423e-09
1.92766e-09
2.01884e-09
2.11736e-09
2.22541e-09
2.34622e-09
2.48486e-09
2.64954e-09
2.85456e-09
3.12675e-09
3.52169e-09
4.16981e-09
5.41301e-09
7.94317e-09
1.05841e-08
1.11046e-08
1.11118e-08
1.11112e-08
1.11108e-08
1.11105e-08
1.11102e-08
1.11099e-08
1.11097e-08
1.11094e-08
1.1109e-08
1.11082e-08
1.11034e-08
1.10597e-08
1.06398e-08
7.08697e-09
7.95985e-10
2.25066e-10
2.09878e-10
2.09499e-10
2.0949e-10
2.0949e-10
2.0949e-10
2.0949e-10
2.0949e-10
2.0949e-10
2.0949e-10
2.0949e-10
2.0949e-10
2.0949e-10
2.0949e-10
2.0949e-10
2.0949e-10
2.0949e-10
2.0949e-10
2.0949e-10
2.0949e-10
2.0949e-10
2.0949e-10
2.0949e-10
2.0949e-10
2.0949e-10
2.0949e-10
2.0949e-10
2.0949e-10
2.0949e-10
2.0949e-10
)
;

boundaryField
{
    inlet
    {
        type            calculated;
        value           uniform 0;
    }
    outlet
    {
        type            calculated;
        value           uniform 2.0949e-10;
    }
    emptyWalls
    {
        type            empty;
        value           nonuniform List<scalar> 0();
    }
}


// ************************************************************************* //
