/*--------------------------------*- C++ -*----------------------------------*\
  =========                 |
  \\      /  F ield         | OpenFOAM: The Open Source CFD Toolbox
   \\    /   O peration     | Website:  https://openfoam.org
    \\  /    A nd           | Version:  9
     \\/     M anipulation  |
\*---------------------------------------------------------------------------*/
FoamFile
{
    format      ascii;
    class       volVectorField;
    location    "1600";
    object      Ua;
}
// * * * * * * * * * * * * * * * * * * * * * * * * * * * * * * * * * * * * * //

dimensions      [0 0 0 0 0 0 0];

internalField   nonuniform List<vector> 
100
(
(0 0 8.84516e-06)
(0 0 1.12875e-05)
(0 0 1.12709e-05)
(0 0 1.12529e-05)
(0 0 1.12337e-05)
(0 0 1.12134e-05)
(0 0 1.11921e-05)
(0 0 1.11696e-05)
(0 0 1.11458e-05)
(0 0 1.11202e-05)
(0 0 1.10923e-05)
(0 0 1.10589e-05)
(0 0 1.10234e-05)
(0 0 1.09892e-05)
(0 0 1.09545e-05)
(0 0 1.09195e-05)
(0 0 1.08839e-05)
(0 0 1.08476e-05)
(0 0 1.08106e-05)
(0 0 1.07727e-05)
(0 0 1.07339e-05)
(0 0 1.06943e-05)
(0 0 1.06537e-05)
(0 0 1.06122e-05)
(0 0 1.05697e-05)
(0 0 1.05261e-05)
(0 0 1.04814e-05)
(0 0 1.04355e-05)
(0 0 1.03885e-05)
(0 0 1.03401e-05)
(0 0 1.02904e-05)
(0 0 1.02392e-05)
(0 0 1.01864e-05)
(0 0 1.01319e-05)
(0 0 1.00755e-05)
(0 0 1.0017e-05)
(0 0 9.95617e-06)
(0 0 9.8926e-06)
(0 0 9.82585e-06)
(0 0 9.75532e-06)
(0 0 9.68018e-06)
(0 0 9.59929e-06)
(0 0 9.511e-06)
(0 0 9.41293e-06)
(0 0 9.30139e-06)
(0 0 9.17046e-06)
(0 0 9.01004e-06)
(0 0 8.80149e-06)
(0 0 8.50679e-06)
(0 0 8.03732e-06)
(0 0 7.15096e-06)
(0 0 5.21356e-06)
(0 0 2.27147e-06)
(0 0 3.42333e-07)
(0 0 5.05945e-09)
(0 0 2.42387e-13)
(0 0 1.11904e-22)
(0 0 1.94387e-36)
(0 0 2.00209e-36)
(0 0 2.09012e-36)
(0 0 2.09001e-36)
(0 0 2.08989e-36)
(0 0 2.08975e-36)
(0 0 2.00141e-36)
(0 0 1.94204e-36)
(0 0 2.11117e-36)
(0 0 2.10708e-36)
(0 0 1.45688e-36)
(0 0 5.23128e-37)
(0 0 4.45451e-38)
(0 0 2.40996e-38)
(0 0 2.524e-38)
(0 0 2.52241e-38)
(0 0 2.55833e-38)
(0 0 2.62876e-38)
(0 0 2.62876e-38)
(0 0 2.55833e-38)
(0 0 2.45194e-38)
(0 0 2.45194e-38)
(0 0 2.52237e-38)
(0 0 2.42043e-38)
(0 0 2.45639e-38)
(0 0 2.55833e-38)
(0 0 2.45194e-38)
(0 0 2.52237e-38)
(0 0 2.38744e-38)
(0 0 2.4234e-38)
(0 0 2.55833e-38)
(0 0 2.52237e-38)
(0 0 2.62876e-38)
(0 0 2.62876e-38)
(0 0 2.62876e-38)
(0 0 2.55833e-38)
(0 0 2.52237e-38)
(0 0 2.62876e-38)
(0 0 2.45639e-38)
(0 0 2.42043e-38)
(0 0 2.62876e-38)
(0 0 2.62876e-38)
(0 0 1.77469e-38)
)
;

boundaryField
{
    inlet
    {
        type            fixedValue;
        value           uniform (0 0 1.131e-05);
    }
    outlet
    {
        type            zeroGradient;
    }
    emptyWalls
    {
        type            empty;
    }
}


// ************************************************************************* //
