/*--------------------------------*- C++ -*----------------------------------*\
  =========                 |
  \\      /  F ield         | OpenFOAM: The Open Source CFD Toolbox
   \\    /   O peration     | Website:  https://openfoam.org
    \\  /    A nd           | Version:  9
     \\/     M anipulation  |
\*---------------------------------------------------------------------------*/
FoamFile
{
    format      ascii;
    class       volVectorField;
    location    "1600";
    object      Ub;
}
// * * * * * * * * * * * * * * * * * * * * * * * * * * * * * * * * * * * * * //

dimensions      [0 0 0 0 0 0 0];

internalField   nonuniform List<vector> 
100
(
(0 0 7.28911e-06)
(0 0 4.84628e-06)
(0 0 4.84556e-06)
(0 0 4.84479e-06)
(0 0 4.84397e-06)
(0 0 4.8431e-06)
(0 0 4.8422e-06)
(0 0 4.84125e-06)
(0 0 4.84024e-06)
(0 0 4.83916e-06)
(0 0 4.83798e-06)
(0 0 4.83835e-06)
(0 0 4.83971e-06)
(0 0 4.84071e-06)
(0 0 4.8419e-06)
(0 0 4.84308e-06)
(0 0 4.84433e-06)
(0 0 4.84563e-06)
(0 0 4.847e-06)
(0 0 4.84843e-06)
(0 0 4.84993e-06)
(0 0 4.85151e-06)
(0 0 4.85316e-06)
(0 0 4.8549e-06)
(0 0 4.85673e-06)
(0 0 4.85867e-06)
(0 0 4.86071e-06)
(0 0 4.86288e-06)
(0 0 4.86518e-06)
(0 0 4.86762e-06)
(0 0 4.87021e-06)
(0 0 4.87296e-06)
(0 0 4.87587e-06)
(0 0 4.87896e-06)
(0 0 4.88221e-06)
(0 0 4.88566e-06)
(0 0 4.88931e-06)
(0 0 4.8932e-06)
(0 0 4.89737e-06)
(0 0 4.90186e-06)
(0 0 4.90675e-06)
(0 0 4.91217e-06)
(0 0 4.91826e-06)
(0 0 4.92527e-06)
(0 0 4.93359e-06)
(0 0 4.94383e-06)
(0 0 4.95715e-06)
(0 0 4.97583e-06)
(0 0 5.00508e-06)
(0 0 5.05953e-06)
(0 0 5.19335e-06)
(0 0 5.62939e-06)
(0 0 6.51396e-06)
(0 0 7.18522e-06)
(0 0 7.31252e-06)
(0 0 7.31495e-06)
(0 0 7.31537e-06)
(0 0 7.31565e-06)
(0 0 7.31587e-06)
(0 0 7.31608e-06)
(0 0 7.3163e-06)
(0 0 7.31654e-06)
(0 0 7.3168e-06)
(0 0 7.31725e-06)
(0 0 7.31947e-06)
(0 0 7.33876e-06)
(0 0 7.52322e-06)
(0 0 9.10392e-06)
(0 0 1.30207e-05)
(0 0 1.57509e-05)
(0 0 1.59841e-05)
(0 0 1.59903e-05)
(0 0 1.59905e-05)
(0 0 1.59905e-05)
(0 0 1.59905e-05)
(0 0 1.59905e-05)
(0 0 1.59905e-05)
(0 0 1.59905e-05)
(0 0 1.59905e-05)
(0 0 1.59905e-05)
(0 0 1.59905e-05)
(0 0 1.59905e-05)
(0 0 1.59905e-05)
(0 0 1.59905e-05)
(0 0 1.59905e-05)
(0 0 1.59905e-05)
(0 0 1.59905e-05)
(0 0 1.59905e-05)
(0 0 1.59905e-05)
(0 0 1.59905e-05)
(0 0 1.59905e-05)
(0 0 1.59905e-05)
(0 0 1.59905e-05)
(0 0 1.59905e-05)
(0 0 1.59905e-05)
(0 0 1.59905e-05)
(0 0 1.59905e-05)
(0 0 1.59905e-05)
(0 0 1.59905e-05)
(0 0 1.59905e-05)
)
;

boundaryField
{
    inlet
    {
        type            fixedValue;
        value           uniform (0 0 4.84716e-06);
    }
    outlet
    {
        type            zeroGradient;
    }
    emptyWalls
    {
        type            empty;
    }
}


// ************************************************************************* //
