/*--------------------------------*- C++ -*----------------------------------*\
  =========                 |
  \\      /  F ield         | OpenFOAM: The Open Source CFD Toolbox
   \\    /   O peration     | Website:  https://openfoam.org
    \\  /    A nd           | Version:  9
     \\/     M anipulation  |
\*---------------------------------------------------------------------------*/
FoamFile
{
    format      ascii;
    class       volVectorField;
    location    "1600";
    object      Uc;
}
// * * * * * * * * * * * * * * * * * * * * * * * * * * * * * * * * * * * * * //

dimensions      [0 0 0 0 0 0 0];

internalField   nonuniform List<vector> 
100
(
(0 0 2.29295e-08)
(0 0 2.34301e-08)
(0 0 4.07388e-08)
(0 0 5.95616e-08)
(0 0 7.95472e-08)
(0 0 1.00666e-07)
(0 0 1.22901e-07)
(0 0 1.4634e-07)
(0 0 1.71178e-07)
(0 0 1.97804e-07)
(0 0 2.26958e-07)
(0 0 2.5999e-07)
(0 0 2.94114e-07)
(0 0 3.27316e-07)
(0 0 3.6083e-07)
(0 0 3.94608e-07)
(0 0 4.28962e-07)
(0 0 4.63942e-07)
(0 0 4.99637e-07)
(0 0 5.36085e-07)
(0 0 5.73327e-07)
(0 0 6.11391e-07)
(0 0 6.50307e-07)
(0 0 6.90105e-07)
(0 0 7.30816e-07)
(0 0 7.72475e-07)
(0 0 8.15122e-07)
(0 0 8.58801e-07)
(0 0 9.03567e-07)
(0 0 9.49482e-07)
(0 0 9.96619e-07)
(0 0 1.04507e-06)
(0 0 1.09494e-06)
(0 0 1.14635e-06)
(0 0 1.19948e-06)
(0 0 1.25452e-06)
(0 0 1.31171e-06)
(0 0 1.3714e-06)
(0 0 1.43398e-06)
(0 0 1.50002e-06)
(0 0 1.57026e-06)
(0 0 1.64574e-06)
(0 0 1.72793e-06)
(0 0 1.81899e-06)
(0 0 1.92222e-06)
(0 0 2.04291e-06)
(0 0 2.19001e-06)
(0 0 2.37989e-06)
(0 0 2.64533e-06)
(0 0 3.06035e-06)
(0 0 3.81288e-06)
(0 0 5.31425e-06)
(0 0 7.37177e-06)
(0 0 8.62965e-06)
(0 0 8.83962e-06)
(0 0 8.84225e-06)
(0 0 8.84183e-06)
(0 0 8.84155e-06)
(0 0 8.84133e-06)
(0 0 8.84112e-06)
(0 0 8.8409e-06)
(0 0 8.84066e-06)
(0 0 8.8404e-06)
(0 0 8.83995e-06)
(0 0 8.83773e-06)
(0 0 8.81844e-06)
(0 0 8.63398e-06)
(0 0 7.05328e-06)
(0 0 3.13653e-06)
(0 0 4.06263e-07)
(0 0 1.73058e-07)
(0 0 1.66865e-07)
(0 0 1.66711e-07)
(0 0 1.66707e-07)
(0 0 1.66707e-07)
(0 0 1.66707e-07)
(0 0 1.66707e-07)
(0 0 1.66707e-07)
(0 0 1.66707e-07)
(0 0 1.66707e-07)
(0 0 1.66707e-07)
(0 0 1.66707e-07)
(0 0 1.66707e-07)
(0 0 1.66707e-07)
(0 0 1.66707e-07)
(0 0 1.66707e-07)
(0 0 1.66707e-07)
(0 0 1.66707e-07)
(0 0 1.66707e-07)
(0 0 1.66707e-07)
(0 0 1.66707e-07)
(0 0 1.66707e-07)
(0 0 1.66707e-07)
(0 0 1.66707e-07)
(0 0 1.66707e-07)
(0 0 1.66707e-07)
(0 0 1.66707e-07)
(0 0 1.66707e-07)
(0 0 1.66707e-07)
(0 0 1.66707e-07)
)
;

boundaryField
{
    inlet
    {
        type            fixedValue;
        value           uniform (0 0 0);
    }
    outlet
    {
        type            zeroGradient;
    }
    emptyWalls
    {
        type            empty;
    }
}


// ************************************************************************* //
