/*--------------------------------*- C++ -*----------------------------------*\
  =========                 |
  \\      /  F ield         | OpenFOAM: The Open Source CFD Toolbox
   \\    /   O peration     | Website:  https://openfoam.org
    \\  /    A nd           | Version:  9
     \\/     M anipulation  |
\*---------------------------------------------------------------------------*/
FoamFile
{
    format      ascii;
    class       volScalarField;
    location    "28350";
    object      krc;
}
// * * * * * * * * * * * * * * * * * * * * * * * * * * * * * * * * * * * * * //

dimensions      [0 0 0 0 0 0 0];

internalField   nonuniform List<scalar> 
1000
(
5.49995e-08
4.97326e-07
1.7507e-06
3.7876e-06
6.59903e-06
1.01857e-05
1.45584e-05
1.97288e-05
2.57126e-05
3.25252e-05
4.01837e-05
4.87011e-05
5.80895e-05
6.83543e-05
7.94963e-05
9.15056e-05
0.000104361
0.000118026
0.000132445
0.000147538
0.000163199
0.000179293
0.000195653
0.000212089
0.000228385
0.000244324
0.000259689
0.000274293
0.000287976
0.000300641
0.000312222
0.000322726
0.000332182
0.000340697
0.000348516
0.000356557
0.000368827
0.000403734
0.000542468
0.00135892
0.0118894
0.0359646
0.0428302
0.0452015
0.0464099
0.0471958
0.0477873
0.0482743
0.0486966
0.0490758
0.0494232
0.0497467
0.0500503
0.050338
0.0506116
0.0508733
0.0511242
0.0513657
0.0515982
0.0518231
0.0520405
0.0522513
0.0524556
0.0526546
0.052848
0.0530369
0.0532211
0.0534014
0.0535777
0.0537508
0.0539205
0.0540876
0.0542519
0.0544142
0.054574
0.0547323
0.0548886
0.0550438
0.0551977
0.0553509
0.0555034
0.0556557
0.0558081
0.0559624
0.0561172
0.0562724
0.056428
0.0565845
0.0567416
0.0568996
0.0570586
0.057219
0.0573808
0.0575443
0.05771
0.057878
0.0580488
0.0582228
0.0584008
0.0585832
0.058771
0.0589654
0.0591678
0.0593801
0.059605
0.0598457
0.0601064
0.0603918
0.060707
0.0610566
0.061443
0.061866
0.0623214
0.0628026
0.0633031
0.0638176
0.0643426
0.0648753
0.0654139
0.0659569
0.0665031
0.0670519
0.0676024
0.0681544
0.0687072
0.0692607
0.0698145
0.0703686
0.0709226
0.0714764
0.07203
0.0725833
0.0731361
0.0736884
0.0742401
0.0747912
0.0753417
0.0758914
0.0764404
0.0769886
0.077536
0.0780826
0.0786284
0.0791733
0.0797174
0.0802606
0.0808028
0.0813442
0.0818847
0.0824243
0.082963
0.0835007
0.0840375
0.0845733
0.0851083
0.0856423
0.0861753
0.0867074
0.0872386
0.0877688
0.0882981
0.0888264
0.0893538
0.0898802
0.0904056
0.0909302
0.0914537
0.0919764
0.0924981
0.0930188
0.0935387
0.0940575
0.0945755
0.0950925
0.0956086
0.0961238
0.096638
0.0971514
0.0976638
0.0981752
0.0986857
0.0991953
0.0997039
0.100212
0.100718
0.101224
0.101729
0.102233
0.102736
0.103238
0.103739
0.104239
0.104739
0.105237
0.105735
0.106232
0.106728
0.107223
0.107717
0.108211
0.108704
0.109196
0.109687
0.110177
0.110667
0.111156
0.111644
0.112132
0.112618
0.113104
0.113589
0.114073
0.114556
0.115038
0.11552
0.116001
0.116481
0.11696
0.117438
0.117915
0.118392
0.118868
0.119343
0.119817
0.12029
0.120763
0.121235
0.121706
0.122176
0.122646
0.123115
0.123583
0.12405
0.124517
0.124983
0.125448
0.125912
0.126376
0.126839
0.127301
0.127762
0.128223
0.128683
0.129143
0.129601
0.130059
0.130517
0.130973
0.131429
0.131884
0.132339
0.132792
0.133245
0.133698
0.13415
0.134601
0.135051
0.135501
0.13595
0.136398
0.136846
0.137293
0.137739
0.138185
0.13863
0.139074
0.139518
0.139961
0.140404
0.140846
0.141287
0.141727
0.142167
0.142607
0.143045
0.143483
0.143921
0.144358
0.144794
0.145229
0.145664
0.146099
0.146533
0.146966
0.147398
0.14783
0.148262
0.148692
0.149123
0.149552
0.149981
0.15041
0.150838
0.151265
0.151692
0.152118
0.152543
0.152968
0.153393
0.153817
0.15424
0.154663
0.155085
0.155507
0.155928
0.156349
0.156769
0.157188
0.157607
0.158025
0.158443
0.15886
0.159277
0.159693
0.160108
0.160523
0.160938
0.161351
0.161765
0.162177
0.162589
0.163001
0.163412
0.163823
0.164233
0.164643
0.165052
0.165461
0.165869
0.166277
0.166685
0.167092
0.167498
0.167905
0.168311
0.168716
0.169122
0.169526
0.169931
0.170335
0.170738
0.171141
0.171544
0.171946
0.172348
0.172749
0.17315
0.17355
0.17395
0.17435
0.174749
0.175147
0.175545
0.175943
0.17634
0.176736
0.177132
0.177528
0.177923
0.178318
0.178712
0.179106
0.1795
0.179893
0.180285
0.180678
0.181069
0.181461
0.181852
0.182242
0.182633
0.183022
0.183412
0.183801
0.184189
0.184577
0.184965
0.185353
0.18574
0.186126
0.186513
0.186898
0.187284
0.187669
0.188054
0.188438
0.188822
0.189206
0.189589
0.189972
0.190354
0.190736
0.191118
0.191499
0.19188
0.192261
0.192641
0.193021
0.193401
0.19378
0.194159
0.194537
0.194915
0.195293
0.19567
0.196047
0.196424
0.1968
0.197176
0.197552
0.197927
0.198302
0.198677
0.199051
0.199425
0.199798
0.200172
0.200545
0.200917
0.201289
0.201662
0.202033
0.202404
0.202775
0.203146
0.203516
0.203886
0.204256
0.204625
0.204994
0.205363
0.205731
0.2061
0.206467
0.206835
0.207202
0.207569
0.207936
0.208302
0.208668
0.209034
0.209399
0.209764
0.210129
0.210494
0.210858
0.211222
0.211585
0.211948
0.212311
0.212674
0.213036
0.213398
0.213759
0.214121
0.214482
0.214843
0.215203
0.215563
0.215922
0.216282
0.216641
0.217
0.217358
0.217717
0.218074
0.218432
0.21879
0.219147
0.219504
0.219861
0.220218
0.220574
0.22093
0.221287
0.221642
0.221998
0.222354
0.222709
0.223064
0.22342
0.223775
0.22413
0.224484
0.224839
0.225193
0.225548
0.225901
0.226255
0.226609
0.226962
0.227315
0.227668
0.228021
0.228373
0.228725
0.229077
0.229429
0.22978
0.230131
0.230482
0.230833
0.231184
0.231533
0.231884
0.232233
0.232583
0.232932
0.233281
0.233629
0.233978
0.234326
0.234675
0.235022
0.23537
0.235717
0.236065
0.236412
0.236759
0.237105
0.237452
0.237798
0.238145
0.23849
0.238836
0.239182
0.239527
0.239872
0.240218
0.240562
0.240907
0.241251
0.241596
0.24194
0.242284
0.242627
0.242971
0.243314
0.243658
0.244001
0.244344
0.244686
0.245029
0.245371
0.245714
0.246055
0.246398
0.246739
0.247081
0.247422
0.247763
0.248104
0.248445
0.248785
0.249126
0.249466
0.249807
0.250146
0.250487
0.250826
0.251166
0.251505
0.251845
0.252183
0.252523
0.252861
0.2532
0.253538
0.253877
0.254215
0.254553
0.254891
0.255229
0.255566
0.255904
0.256241
0.256578
0.256915
0.257252
0.257589
0.257926
0.258262
0.258598
0.258934
0.259271
0.259606
0.259943
0.260278
0.260614
0.260949
0.261285
0.261619
0.261955
0.262289
0.262625
0.262959
0.263294
0.263628
0.263963
0.264296
0.264631
0.264964
0.265298
0.265631
0.265965
0.266298
0.266631
0.266964
0.267297
0.267629
0.267962
0.268294
0.268627
0.268958
0.269291
0.269622
0.269954
0.270285
0.270617
0.270948
0.27128
0.271611
0.271942
0.272273
0.272604
0.272935
0.273266
0.273597
0.273928
0.274259
0.27459
0.274921
0.275252
0.275582
0.275914
0.276244
0.276576
0.276907
0.277238
0.277569
0.2779
0.278231
0.278562
0.278893
0.279225
0.279555
0.279887
0.280217
0.280549
0.280879
0.28121
0.281541
0.281872
0.282202
0.282533
0.282863
0.283194
0.283524
0.283854
0.284184
0.284515
0.284844
0.285175
0.285504
0.285834
0.286163
0.286493
0.286822
0.287153
0.287481
0.287811
0.28814
0.28847
0.288799
0.289128
0.289457
0.289787
0.290115
0.290445
0.290773
0.291103
0.291431
0.291761
0.292089
0.292419
0.292747
0.293077
0.293405
0.293734
0.294062
0.294392
0.29472
0.295049
0.295378
0.295707
0.296035
0.296364
0.296693
0.297022
0.29735
0.297679
0.298007
0.298337
0.298665
0.298994
0.299322
0.299651
0.299979
0.300308
0.300636
0.300966
0.301294
0.301623
0.301951
0.30228
0.302608
0.302937
0.303265
0.303595
0.303923
0.304252
0.30458
0.304909
0.305237
0.305567
0.305895
0.306224
0.306552
0.306882
0.30721
0.307539
0.307867
0.308197
0.308525
0.308855
0.309183
0.309512
0.309841
0.31017
0.310499
0.310828
0.311157
0.311487
0.311815
0.312145
0.312474
0.312804
0.313132
0.313462
0.313791
0.314121
0.31445
0.31478
0.315109
0.315439
0.315768
0.316099
0.316428
0.316758
0.317087
0.317418
0.317747
0.318078
0.318407
0.318737
0.319067
0.319397
0.319727
0.320057
0.320387
0.320718
0.321047
0.321378
0.321707
0.322038
0.322368
0.322699
0.323029
0.32336
0.32369
0.324021
0.324351
0.324682
0.325012
0.325344
0.325674
0.326006
0.326336
0.326668
0.326999
0.327331
0.327662
0.327995
0.328326
0.328659
0.328991
0.329324
0.329656
0.32999
0.330322
0.330657
0.330989
0.331324
0.331657
0.331993
0.332326
0.332662
0.332996
0.333332
0.333667
0.334003
0.334338
0.334675
0.33501
0.335347
0.335683
0.336021
0.336357
0.336695
0.337031
0.337369
0.337706
0.338044
0.338381
0.33872
0.339057
0.339396
0.339734
0.340073
0.340411
0.34075
0.341088
0.341428
0.341767
0.342107
0.342445
0.342786
0.343125
0.343466
0.343805
0.344146
0.344486
0.344827
0.345167
0.345509
0.345849
0.346191
0.346532
0.346874
0.347216
0.347558
0.3479
0.348243
0.348586
0.348929
0.349272
0.349615
0.349959
0.350303
0.350647
0.350991
0.351336
0.35168
0.352026
0.352369
0.352718
0.35306
0.35341
0.353751
0.354103
0.354444
0.354797
0.355138
0.355491
0.355833
0.356186
0.356529
0.356883
0.357226
0.357581
0.357924
0.358279
0.358623
0.358979
0.359324
0.35968
0.360025
0.360381
0.360728
0.361085
0.361431
0.361789
0.362135
0.362495
0.36284
0.363203
0.363545
0.363914
0.364249
0.364627
0.364954
0.365343
0.365659
0.36606
0.366364
0.36678
0.367071
0.367501
0.367778
0.368224
0.368487
0.368948
0.369197
0.369673
0.369909
0.3704
0.370622
0.371127
0.371338
0.371855
0.372056
0.372583
0.372777
0.373312
0.3735
0.374042
0.374225
0.374773
0.374952
0.375505
0.375681
0.376238
0.376413
0.376971
0.377147
0.377706
0.377883
0.378442
0.37862
0.379179
0.379359
0.379919
0.380099
0.38066
0.380842
0.381402
0.381586
0.382146
0.382332
0.382893
0.383079
0.383641
0.383828
0.384391
0.384579
0.385143
0.385332
0.385896
0.386088
0.386651
0.386846
0.387408
0.387606
0.388168
0.388368
0.38893
0.389132
0.389694
0.389899
0.390461
0.390668
0.39123
0.39144
0.392003
0.392215
0.392778
0.392992
0.393557
0.393771
0.394338
0.394554
0.395122
0.395341
0.395908
0.396131
0.396698
0.396924
0.397491
0.397719
0.398287
0.398518
0.399086
0.39932
0.399889
0.400125
0.400694
0.400933
0.401502
0.401751
0.216314
)
;

boundaryField
{
    inlet
    {
        type            calculated;
        value           uniform 3.08149e-33;
    }
    outlet
    {
        type            calculated;
        value           uniform 0.216314;
    }
    emptyWalls
    {
        type            empty;
    }
}


// ************************************************************************* //
