/*--------------------------------*- C++ -*----------------------------------*\
  =========                 |
  \\      /  F ield         | OpenFOAM: The Open Source CFD Toolbox
   \\    /   O peration     | Website:  https://openfoam.org
    \\  /    A nd           | Version:  9
     \\/     M anipulation  |
\*---------------------------------------------------------------------------*/
FoamFile
{
    format      ascii;
    class       surfaceScalarField;
    location    "27300";
    object      phia;
}
// * * * * * * * * * * * * * * * * * * * * * * * * * * * * * * * * * * * * * //

dimensions      [0 2 0 0 0 0 0];

internalField   nonuniform List<scalar> 
999
(
2.74882e-10
2.74867e-10
2.74872e-10
2.74843e-10
2.74841e-10
2.74813e-10
2.74793e-10
2.74771e-10
2.74738e-10
2.74708e-10
2.7467e-10
2.7462e-10
2.74576e-10
2.74514e-10
2.74466e-10
2.74398e-10
2.74349e-10
2.74274e-10
2.74215e-10
2.74146e-10
2.74068e-10
2.74012e-10
2.73928e-10
2.73872e-10
2.73797e-10
2.73731e-10
2.73667e-10
2.73608e-10
2.73554e-10
2.73509e-10
2.73468e-10
2.73433e-10
2.73397e-10
2.73367e-10
2.73293e-10
2.73123e-10
2.72401e-10
2.69377e-10
2.49782e-10
2.19822e-10
2.15711e-10
2.1531e-10
2.15608e-10
2.15417e-10
2.14627e-10
2.13732e-10
2.12559e-10
2.11294e-10
2.10338e-10
2.09678e-10
2.09213e-10
2.08958e-10
2.09011e-10
2.09008e-10
2.08963e-10
2.08879e-10
2.08758e-10
2.08612e-10
2.08449e-10
2.08273e-10
2.081e-10
2.07924e-10
2.07753e-10
2.07585e-10
2.07422e-10
2.07266e-10
2.07116e-10
2.06971e-10
2.06833e-10
2.06699e-10
2.06571e-10
2.06447e-10
2.06329e-10
2.06215e-10
2.06106e-10
2.06e-10
2.05901e-10
2.05804e-10
2.05714e-10
2.05627e-10
2.05543e-10
2.05463e-10
2.05385e-10
2.0531e-10
2.05239e-10
2.05171e-10
2.05105e-10
2.05045e-10
2.04988e-10
2.04938e-10
2.04895e-10
2.04855e-10
2.04821e-10
2.0479e-10
2.04759e-10
2.04729e-10
2.04699e-10
2.04668e-10
2.04639e-10
2.04612e-10
2.04588e-10
2.04568e-10
2.04555e-10
2.0455e-10
2.04553e-10
2.04564e-10
2.0458e-10
2.04601e-10
2.0462e-10
2.04634e-10
2.04641e-10
2.04639e-10
2.04631e-10
2.04619e-10
2.04608e-10
2.04601e-10
2.04601e-10
2.04612e-10
2.04641e-10
2.04696e-10
2.04789e-10
2.04925e-10
2.05105e-10
2.05322e-10
2.05567e-10
2.05827e-10
2.0609e-10
2.06349e-10
2.06598e-10
2.06836e-10
2.07057e-10
2.07258e-10
2.07431e-10
2.07569e-10
2.07663e-10
2.07706e-10
2.07694e-10
2.07625e-10
2.07501e-10
2.07329e-10
2.07116e-10
2.06872e-10
2.06609e-10
2.06339e-10
2.0607e-10
2.05813e-10
2.05574e-10
2.05359e-10
2.0517e-10
2.0501e-10
2.04878e-10
2.04772e-10
2.04691e-10
2.04631e-10
2.04588e-10
2.04558e-10
2.04539e-10
2.04526e-10
2.04517e-10
2.0451e-10
2.04501e-10
2.04491e-10
2.04477e-10
2.04459e-10
2.04437e-10
2.04411e-10
2.04381e-10
2.04347e-10
2.0431e-10
2.04271e-10
2.04229e-10
2.04185e-10
2.04141e-10
2.04095e-10
2.04049e-10
2.04002e-10
2.03956e-10
2.0391e-10
2.03864e-10
2.03819e-10
2.03775e-10
2.03731e-10
2.03688e-10
2.03646e-10
2.03605e-10
2.03565e-10
2.03526e-10
2.03488e-10
2.03452e-10
2.03416e-10
2.03382e-10
2.03349e-10
2.03317e-10
2.03287e-10
2.03257e-10
2.03228e-10
2.032e-10
2.03174e-10
2.03148e-10
2.03123e-10
2.031e-10
2.03079e-10
2.03058e-10
2.03039e-10
2.03022e-10
2.03007e-10
2.02992e-10
2.02979e-10
2.02968e-10
2.02957e-10
2.02946e-10
2.02936e-10
2.02927e-10
2.02918e-10
2.02909e-10
2.02901e-10
2.02894e-10
2.02888e-10
2.02884e-10
2.0288e-10
2.02879e-10
2.02878e-10
2.0288e-10
2.02882e-10
2.02885e-10
2.02889e-10
2.02893e-10
2.02895e-10
2.02897e-10
2.02897e-10
2.02895e-10
2.02892e-10
2.02888e-10
2.02884e-10
2.02882e-10
2.02884e-10
2.02892e-10
2.02907e-10
2.02933e-10
2.0297e-10
2.03021e-10
2.03086e-10
2.03167e-10
2.03263e-10
2.03375e-10
2.03501e-10
2.03639e-10
2.03789e-10
2.03949e-10
2.04115e-10
2.04285e-10
2.04456e-10
2.04624e-10
2.04785e-10
2.04937e-10
2.05075e-10
2.05196e-10
2.05296e-10
2.05372e-10
2.05422e-10
2.05445e-10
2.0544e-10
2.05406e-10
2.05344e-10
2.05257e-10
2.05147e-10
2.05016e-10
2.04869e-10
2.04709e-10
2.04541e-10
2.04368e-10
2.04195e-10
2.04025e-10
2.03861e-10
2.03705e-10
2.0356e-10
2.03426e-10
2.03305e-10
2.03196e-10
2.031e-10
2.03016e-10
2.02943e-10
2.0288e-10
2.02825e-10
2.02778e-10
2.02738e-10
2.02702e-10
2.0267e-10
2.02641e-10
2.02614e-10
2.02587e-10
2.02561e-10
2.02534e-10
2.02506e-10
2.02477e-10
2.02447e-10
2.02416e-10
2.02383e-10
2.02348e-10
2.02313e-10
2.02276e-10
2.02237e-10
2.02198e-10
2.02159e-10
2.02118e-10
2.02077e-10
2.02036e-10
2.01995e-10
2.01954e-10
2.01913e-10
2.01872e-10
2.01831e-10
2.01791e-10
2.01752e-10
2.01713e-10
2.01675e-10
2.01638e-10
2.01601e-10
2.01566e-10
2.01531e-10
2.01496e-10
2.01463e-10
2.01431e-10
2.01399e-10
2.01369e-10
2.01339e-10
2.0131e-10
2.01282e-10
2.01255e-10
2.01229e-10
2.01204e-10
2.0118e-10
2.01158e-10
2.01136e-10
2.01115e-10
2.01095e-10
2.01076e-10
2.01058e-10
2.01041e-10
2.01025e-10
2.0101e-10
2.00995e-10
2.00982e-10
2.00969e-10
2.00956e-10
2.00945e-10
2.00934e-10
2.00924e-10
2.00914e-10
2.00906e-10
2.00898e-10
2.0089e-10
2.00884e-10
2.00879e-10
2.00874e-10
2.0087e-10
2.00866e-10
2.00863e-10
2.0086e-10
2.00857e-10
2.00854e-10
2.00851e-10
2.00848e-10
2.00846e-10
2.00843e-10
2.0084e-10
2.00838e-10
2.00838e-10
2.00839e-10
2.00843e-10
2.00849e-10
2.0086e-10
2.00875e-10
2.00896e-10
2.00923e-10
2.00958e-10
2.01e-10
2.0105e-10
2.01108e-10
2.01175e-10
2.0125e-10
2.01334e-10
2.01426e-10
2.01525e-10
2.0163e-10
2.01741e-10
2.01856e-10
2.01974e-10
2.02093e-10
2.02212e-10
2.02329e-10
2.02442e-10
2.02549e-10
2.02649e-10
2.02739e-10
2.02818e-10
2.02885e-10
2.02937e-10
2.02974e-10
2.02996e-10
2.03e-10
2.02989e-10
2.0296e-10
2.02916e-10
2.02856e-10
2.02783e-10
2.02696e-10
2.02599e-10
2.02492e-10
2.02378e-10
2.02259e-10
2.02136e-10
2.02011e-10
2.01886e-10
2.01763e-10
2.01643e-10
2.01527e-10
2.01416e-10
2.01311e-10
2.01213e-10
2.01121e-10
2.01036e-10
2.00957e-10
2.00885e-10
2.00819e-10
2.00759e-10
2.00704e-10
2.00654e-10
2.00608e-10
2.00565e-10
2.00525e-10
2.00488e-10
2.00453e-10
2.00419e-10
2.00386e-10
2.00354e-10
2.00323e-10
2.00291e-10
2.00259e-10
2.00227e-10
2.00195e-10
2.00162e-10
2.00128e-10
2.00094e-10
2.00059e-10
2.00024e-10
1.99988e-10
1.99952e-10
1.99916e-10
1.99879e-10
1.99842e-10
1.99805e-10
1.99767e-10
1.9973e-10
1.99693e-10
1.99656e-10
1.99619e-10
1.99582e-10
1.99546e-10
1.99511e-10
1.99475e-10
1.9944e-10
1.99406e-10
1.99373e-10
1.9934e-10
1.99307e-10
1.99275e-10
1.99244e-10
1.99214e-10
1.99184e-10
1.99155e-10
1.99127e-10
1.99099e-10
1.99072e-10
1.99047e-10
1.99021e-10
1.98997e-10
1.98973e-10
1.98951e-10
1.98928e-10
1.98907e-10
1.98887e-10
1.98867e-10
1.98848e-10
1.9883e-10
1.98812e-10
1.98796e-10
1.9878e-10
1.98764e-10
1.98749e-10
1.98735e-10
1.98722e-10
1.98709e-10
1.98697e-10
1.98685e-10
1.98674e-10
1.98664e-10
1.98654e-10
1.98645e-10
1.98636e-10
1.98628e-10
1.9862e-10
1.98613e-10
1.98606e-10
1.986e-10
1.98593e-10
1.98588e-10
1.98582e-10
1.98577e-10
1.98572e-10
1.98568e-10
1.98565e-10
1.98562e-10
1.98561e-10
1.9856e-10
1.98562e-10
1.98565e-10
1.98571e-10
1.98579e-10
1.9859e-10
1.98605e-10
1.98623e-10
1.98646e-10
1.98673e-10
1.98704e-10
1.98741e-10
1.98783e-10
1.9883e-10
1.98883e-10
1.98941e-10
1.99004e-10
1.99072e-10
1.99144e-10
1.99221e-10
1.99301e-10
1.99384e-10
1.9947e-10
1.99557e-10
1.99645e-10
1.99732e-10
1.99819e-10
1.99903e-10
1.99985e-10
2.00062e-10
2.00134e-10
2.002e-10
2.00259e-10
2.0031e-10
2.00352e-10
2.00385e-10
2.00409e-10
2.00422e-10
2.00424e-10
2.00416e-10
2.00397e-10
2.00368e-10
2.00328e-10
2.00279e-10
2.00221e-10
2.00155e-10
2.00081e-10
2.00001e-10
1.99916e-10
1.99826e-10
1.99733e-10
1.99637e-10
1.9954e-10
1.99443e-10
1.99346e-10
1.9925e-10
1.99156e-10
1.99065e-10
1.98977e-10
1.98892e-10
1.98811e-10
1.98733e-10
1.9866e-10
1.9859e-10
1.98525e-10
1.98463e-10
1.98405e-10
1.9835e-10
1.98298e-10
1.98249e-10
1.98203e-10
1.98159e-10
1.98118e-10
1.98078e-10
1.98039e-10
1.98002e-10
1.97966e-10
1.9793e-10
1.97895e-10
1.9786e-10
1.97827e-10
1.97792e-10
1.97758e-10
1.97724e-10
1.9769e-10
1.97655e-10
1.97621e-10
1.97585e-10
1.97551e-10
1.97515e-10
1.9748e-10
1.97444e-10
1.97409e-10
1.97373e-10
1.97338e-10
1.97301e-10
1.97266e-10
1.9723e-10
1.97195e-10
1.97159e-10
1.97125e-10
1.9709e-10
1.97056e-10
1.97021e-10
1.96988e-10
1.96955e-10
1.96922e-10
1.9689e-10
1.96858e-10
1.96827e-10
1.96796e-10
1.96766e-10
1.96737e-10
1.96708e-10
1.96679e-10
1.96652e-10
1.96625e-10
1.96599e-10
1.96573e-10
1.96548e-10
1.96524e-10
1.965e-10
1.96477e-10
1.96455e-10
1.96434e-10
1.96413e-10
1.96392e-10
1.96373e-10
1.96354e-10
1.96336e-10
1.96318e-10
1.96301e-10
1.96285e-10
1.96269e-10
1.96254e-10
1.96239e-10
1.96225e-10
1.96212e-10
1.96199e-10
1.96187e-10
1.96175e-10
1.96163e-10
1.96152e-10
1.96142e-10
1.96132e-10
1.96123e-10
1.96114e-10
1.96105e-10
1.96097e-10
1.96089e-10
1.96082e-10
1.96075e-10
1.96069e-10
1.96063e-10
1.96058e-10
1.96054e-10
1.96051e-10
1.96048e-10
1.96047e-10
1.96047e-10
1.96049e-10
1.96052e-10
1.96057e-10
1.96064e-10
1.96073e-10
1.96085e-10
1.96099e-10
1.96116e-10
1.96136e-10
1.96159e-10
1.96186e-10
1.96216e-10
1.96249e-10
1.96286e-10
1.96326e-10
1.9637e-10
1.96417e-10
1.96468e-10
1.96521e-10
1.96578e-10
1.96637e-10
1.96698e-10
1.96761e-10
1.96826e-10
1.96892e-10
1.96958e-10
1.97024e-10
1.9709e-10
1.97155e-10
1.97218e-10
1.97279e-10
1.97337e-10
1.97392e-10
1.97443e-10
1.97489e-10
1.9753e-10
1.97566e-10
1.97595e-10
1.97618e-10
1.97635e-10
1.97644e-10
1.97646e-10
1.97641e-10
1.97629e-10
1.97609e-10
1.97583e-10
1.97549e-10
1.97508e-10
1.97462e-10
1.97409e-10
1.97351e-10
1.97288e-10
1.97221e-10
1.9715e-10
1.97075e-10
1.96998e-10
1.9692e-10
1.9684e-10
1.96759e-10
1.96678e-10
1.96597e-10
1.96517e-10
1.96438e-10
1.9636e-10
1.96284e-10
1.9621e-10
1.96139e-10
1.9607e-10
1.96003e-10
1.95939e-10
1.95877e-10
1.95818e-10
1.95761e-10
1.95707e-10
1.95655e-10
1.95605e-10
1.95557e-10
1.95511e-10
1.95466e-10
1.95423e-10
1.95382e-10
1.95342e-10
1.95302e-10
1.95264e-10
1.95227e-10
1.9519e-10
1.95153e-10
1.95118e-10
1.95082e-10
1.95047e-10
1.95012e-10
1.94977e-10
1.94942e-10
1.94908e-10
1.94873e-10
1.94838e-10
1.94804e-10
1.94769e-10
1.94735e-10
1.947e-10
1.94665e-10
1.94631e-10
1.94597e-10
1.94562e-10
1.94528e-10
1.94494e-10
1.9446e-10
1.94426e-10
1.94393e-10
1.9436e-10
1.94327e-10
1.94294e-10
1.94262e-10
1.9423e-10
1.94199e-10
1.94168e-10
1.94137e-10
1.94107e-10
1.94077e-10
1.94048e-10
1.94019e-10
1.93991e-10
1.93963e-10
1.93936e-10
1.93909e-10
1.93883e-10
1.93857e-10
1.93832e-10
1.93808e-10
1.93784e-10
1.93761e-10
1.93738e-10
1.93716e-10
1.93694e-10
1.93673e-10
1.93653e-10
1.93633e-10
1.93614e-10
1.93595e-10
1.93577e-10
1.93559e-10
1.93542e-10
1.93525e-10
1.93509e-10
1.93494e-10
1.93478e-10
1.93464e-10
1.93449e-10
1.93436e-10
1.93422e-10
1.93409e-10
1.93397e-10
1.93385e-10
1.93373e-10
1.93362e-10
1.93351e-10
1.93341e-10
1.93331e-10
1.93322e-10
1.93313e-10
1.93304e-10
1.93296e-10
1.93289e-10
1.93282e-10
1.93276e-10
1.93271e-10
1.93267e-10
1.93263e-10
1.93261e-10
1.9326e-10
1.93259e-10
1.93261e-10
1.93263e-10
1.93268e-10
1.93274e-10
1.93281e-10
1.93291e-10
1.93303e-10
1.93316e-10
1.93332e-10
1.93351e-10
1.93371e-10
1.93394e-10
1.93419e-10
1.93447e-10
1.93477e-10
1.9351e-10
1.93545e-10
1.93582e-10
1.93622e-10
1.93663e-10
1.93706e-10
1.93751e-10
1.93797e-10
1.93845e-10
1.93893e-10
1.93942e-10
1.93991e-10
1.94041e-10
1.9409e-10
1.94139e-10
1.94187e-10
1.94234e-10
1.9428e-10
1.94324e-10
1.94366e-10
1.94405e-10
1.94441e-10
1.94472e-10
1.94501e-10
1.94524e-10
1.94545e-10
1.94559e-10
1.9457e-10
1.94574e-10
1.94576e-10
1.94571e-10
1.94563e-10
1.94546e-10
1.94528e-10
1.94501e-10
1.94468e-10
1.94431e-10
1.9439e-10
1.94345e-10
1.94296e-10
1.94244e-10
1.94188e-10
1.94129e-10
1.94068e-10
1.94004e-10
1.93937e-10
1.9387e-10
1.93801e-10
1.93731e-10
1.93661e-10
1.9359e-10
1.9352e-10
1.9345e-10
1.9338e-10
1.93312e-10
1.93244e-10
1.93178e-10
1.93113e-10
1.9305e-10
1.92988e-10
1.92927e-10
1.92869e-10
1.92812e-10
1.92757e-10
1.92703e-10
1.92651e-10
1.92601e-10
1.92552e-10
1.92505e-10
1.92459e-10
1.92414e-10
1.9237e-10
1.92328e-10
1.92286e-10
1.92245e-10
1.92205e-10
1.92166e-10
1.92127e-10
1.92089e-10
1.92052e-10
1.92014e-10
1.91978e-10
1.91941e-10
1.91905e-10
1.91869e-10
1.91833e-10
1.91797e-10
1.91761e-10
1.91726e-10
1.91691e-10
1.91655e-10
1.9162e-10
1.91585e-10
1.9155e-10
1.91515e-10
1.9148e-10
1.91445e-10
1.9141e-10
1.91376e-10
1.91341e-10
1.91308e-10
1.91273e-10
1.9124e-10
1.91206e-10
1.91173e-10
1.9114e-10
1.91107e-10
1.91074e-10
1.91042e-10
1.9101e-10
1.90979e-10
1.90948e-10
1.90917e-10
1.90887e-10
1.90857e-10
1.90827e-10
1.90798e-10
1.90769e-10
1.90741e-10
1.90713e-10
1.90686e-10
1.90659e-10
1.90632e-10
1.90606e-10
1.90581e-10
1.90556e-10
1.90531e-10
1.90507e-10
1.90483e-10
1.9046e-10
1.90437e-10
1.90415e-10
1.90393e-10
1.90371e-10
1.9035e-10
1.9033e-10
1.9031e-10
1.9029e-10
1.90271e-10
)
;

boundaryField
{
    inlet
    {
        type            calculated;
        value           uniform -2.74882e-10;
    }
    outlet
    {
        type            calculated;
        value           uniform 3.74848e-11;
    }
    emptyWalls
    {
        type            empty;
        value           nonuniform List<scalar> 0();
    }
}


// ************************************************************************* //
