/*--------------------------------*- C++ -*----------------------------------*\
  =========                 |
  \\      /  F ield         | OpenFOAM: The Open Source CFD Toolbox
   \\    /   O peration     | Website:  https://openfoam.org
    \\  /    A nd           | Version:  9
     \\/     M anipulation  |
\*---------------------------------------------------------------------------*/
FoamFile
{
    format      ascii;
    class       volScalarField;
    location    "11650";
    object      Fa;
}
// * * * * * * * * * * * * * * * * * * * * * * * * * * * * * * * * * * * * * //

dimensions      [0 0 0 0 0 0 0];

internalField   nonuniform List<scalar> 
1000
(
0.194677
0.194985
0.194565
0.194915
0.19449
0.194707
0.194417
0.194447
0.19427
0.194221
0.194108
0.194051
0.19396
0.193797
0.193137
0.189208
0.164249
0.152807
0.150477
0.149477
0.14887
0.148434
0.148085
0.147798
0.147534
0.147315
0.147096
0.146923
0.146759
0.146631
0.146532
0.146442
0.14637
0.146281
0.146245
0.146162
0.146123
0.146126
0.146189
0.146322
0.146547
0.146758
0.147001
0.147218
0.147413
0.147605
0.147772
0.147905
0.147992
0.148015
0.147964
0.147834
0.147627
0.147357
0.147038
0.146693
0.146341
0.146001
0.145689
0.145417
0.145192
0.145016
0.144887
0.144802
0.144755
0.144736
0.144739
0.144755
0.144777
0.144801
0.144821
0.144834
0.14484
0.144836
0.144824
0.144803
0.144775
0.144741
0.144702
0.144659
0.144614
0.144566
0.144518
0.144469
0.14442
0.144371
0.144323
0.144275
0.144227
0.14418
0.144133
0.144088
0.144042
0.143998
0.143953
0.14391
0.143867
0.143825
0.143783
0.143742
0.143702
0.143662
0.143623
0.143584
0.143546
0.143508
0.143471
0.143435
0.143399
0.143364
0.14333
0.143297
0.143264
0.143232
0.143201
0.143171
0.143141
0.143113
0.143085
0.143059
0.143033
0.143008
0.142984
0.142962
0.14294
0.142919
0.142899
0.14288
0.142862
0.142844
0.142828
0.142812
0.142798
0.142784
0.14277
0.142757
0.142745
0.142733
0.142721
0.142708
0.142696
0.142683
0.14267
0.142657
0.142645
0.142632
0.14262
0.14261
0.1426
0.142591
0.142583
0.142575
0.142568
0.142562
0.142556
0.142552
0.14255
0.14255
0.142555
0.142565
0.142582
0.142607
0.142641
0.142685
0.142741
0.142808
0.142887
0.142975
0.143075
0.143182
0.143299
0.143418
0.143543
0.143666
0.143789
0.143902
0.14401
0.144102
0.144181
0.144238
0.144276
0.144287
0.144275
0.144233
0.144167
0.144075
0.143959
0.143822
0.143667
0.143498
0.14332
0.143137
0.142952
0.14277
0.142595
0.142429
0.142274
0.142132
0.142005
0.141892
0.141793
0.141708
0.141636
0.141575
0.141525
0.141483
0.141448
0.141418
0.141393
0.14137
0.141349
0.141329
0.141308
0.141286
0.141263
0.141238
0.141211
0.141182
0.14115
0.141116
0.141081
0.141043
0.141004
0.140963
0.140922
0.140879
0.140835
0.140791
0.140746
0.140702
0.140657
0.140613
0.140569
0.140525
0.140481
0.140439
0.140396
0.140355
0.140313
0.140273
0.140233
0.140194
0.140155
0.140116
0.140078
0.140041
0.140004
0.139968
0.139932
0.139896
0.139861
0.139826
0.139791
0.139757
0.139723
0.13969
0.139657
0.139624
0.139592
0.13956
0.139529
0.139498
0.139467
0.139437
0.139408
0.139378
0.13935
0.139322
0.139294
0.139267
0.139241
0.139215
0.13919
0.139165
0.13914
0.139117
0.139093
0.13907
0.139048
0.139027
0.139005
0.138985
0.138964
0.138944
0.138925
0.138906
0.138887
0.138868
0.13885
0.138832
0.138814
0.138796
0.138778
0.138761
0.138743
0.138726
0.138709
0.138692
0.138675
0.138658
0.138641
0.138625
0.138609
0.138593
0.138578
0.138563
0.138549
0.138535
0.138522
0.138511
0.138501
0.138492
0.138485
0.138481
0.138479
0.13848
0.138484
0.138492
0.138505
0.138521
0.138542
0.138568
0.138599
0.138635
0.138676
0.138722
0.138773
0.138827
0.138886
0.138948
0.139012
0.139078
0.139145
0.139211
0.139277
0.13934
0.139399
0.139454
0.139502
0.139544
0.139577
0.139601
0.139614
0.139616
0.139607
0.139585
0.139551
0.139505
0.139446
0.139376
0.139295
0.139204
0.139104
0.138997
0.138883
0.138764
0.138643
0.138519
0.138395
0.138272
0.138151
0.138033
0.13792
0.137811
0.137708
0.13761
0.13752
0.137434
0.137356
0.137282
0.137216
0.137153
0.137097
0.137044
0.136996
0.136951
0.136909
0.136869
0.136831
0.136796
0.136761
0.136726
0.136693
0.136659
0.136625
0.136591
0.136556
0.136521
0.136485
0.136448
0.136411
0.136372
0.136333
0.136293
0.136252
0.13621
0.136168
0.136125
0.136082
0.136037
0.135995
0.135948
0.135907
0.135858
0.135818
0.135768
0.135729
0.135677
0.135641
0.135588
0.135551
0.135501
0.135462
0.135415
0.135373
0.135331
0.135286
0.135247
0.1352
0.135164
0.135118
0.135079
0.135038
0.134996
0.134958
0.134915
0.134879
0.134837
0.1348
0.134762
0.134721
0.134687
0.134646
0.134612
0.134575
0.134538
0.134506
0.134469
0.134437
0.134404
0.134371
0.134343
0.134311
0.134285
0.134258
0.134233
0.134211
0.134188
0.134171
0.134152
0.134136
0.134125
0.134111
0.134103
0.134094
0.134087
0.134083
0.134075
0.13407
0.13406
0.134043
0.134016
0.133964
0.133875
0.13372
0.133468
0.133091
0.13259
0.132052
0.131601
0.131315
0.131167
0.131096
0.131069
0.131057
0.131056
0.131058
0.131062
0.13107
0.131076
0.131083
0.13109
0.131098
0.131106
0.131115
0.131124
0.131133
0.131143
0.131153
0.131164
0.131175
0.131188
0.131201
0.131215
0.13123
0.131247
0.131264
0.131283
0.131304
0.131326
0.13135
0.131376
0.131403
0.131433
0.131466
0.1315
0.131537
0.131576
0.131618
0.131662
0.131709
0.131758
0.131809
0.131863
0.131919
0.131977
0.132036
0.132098
0.13216
0.132224
0.132288
0.132352
0.132417
0.132481
0.132544
0.132606
0.132667
0.132725
0.13278
0.132832
0.132881
0.132925
0.132965
0.133
0.133029
0.133052
0.133069
0.13308
0.133084
0.133085
0.133084
0.133081
0.133062
0.133036
0.133004
0.132967
0.132926
0.13288
0.13283
0.132776
0.13272
0.132661
0.132601
0.13254
0.132477
0.132415
0.132353
0.132292
0.132233
0.132175
0.132119
0.132065
0.132015
0.131967
0.131922
0.13188
0.131841
0.131805
0.131772
0.131741
0.131714
0.131689
0.131667
0.131647
0.131629
0.131613
0.131598
0.131586
0.131574
0.131563
0.131554
0.131545
0.131536
0.131528
0.13152
0.131513
0.131505
0.131497
0.131489
0.131481
0.131473
0.131464
0.131455
0.131446
0.131436
0.131425
0.131415
0.131404
0.131392
0.131381
0.131369
0.131356
0.131344
0.131331
0.131318
0.131305
0.131292
0.131279
0.131266
0.131253
0.13124
0.131227
0.131214
0.131202
0.131189
0.131177
0.131165
0.131154
0.131143
0.131132
0.131121
0.131111
0.131101
0.131091
0.131082
0.131073
0.131064
0.131056
0.131048
0.131041
0.131034
0.131027
0.13102
0.131014
0.131009
0.131003
0.130998
0.130993
0.130989
0.130985
0.130981
0.130977
0.130974
0.130971
0.130968
0.130965
0.130963
0.130961
0.13096
0.130958
0.130957
0.130956
0.130956
0.130955
0.130955
0.130955
0.130955
0.130955
0.130956
0.130958
0.130959
0.130961
0.130963
0.130965
0.130968
0.13097
0.130974
0.130977
0.13098
0.130984
0.130988
0.130993
0.130997
0.131002
0.131007
0.131013
0.131018
0.131024
0.13103
0.131037
0.131043
0.13105
0.131057
0.131065
0.131073
0.131081
0.131089
0.131098
0.131107
0.131117
0.131127
0.131137
0.131148
0.13116
0.131172
0.131184
0.131198
0.131212
0.131228
0.131244
0.131261
0.131279
0.131298
0.131319
0.131341
0.131364
0.131389
0.131415
0.131443
0.131472
0.131504
0.131537
0.131572
0.131608
0.131647
0.131687
0.131729
0.131773
0.131818
0.131865
0.131914
0.131964
0.132016
0.132068
0.132122
0.132176
0.132231
0.132286
0.132341
0.132396
0.132451
0.132504
0.132557
0.132608
0.132658
0.132705
0.13275
0.132792
0.132831
0.132867
0.132899
0.132927
0.132951
0.132971
0.132986
0.132996
0.133001
0.133002
0.133002
0.133001
0.132992
0.132974
0.13295
0.132923
0.132891
0.132856
0.132817
0.132774
0.132729
0.132682
0.132632
0.132581
0.132529
0.132476
0.132422
0.132369
0.132316
0.132263
0.132212
0.132162
0.132113
0.132066
0.132021
0.131977
0.131936
0.131897
0.131861
0.131826
0.131793
0.131763
0.131735
0.131708
0.131684
0.131661
0.131639
0.13162
0.131601
0.131584
0.131568
0.131553
0.131538
0.131525
0.131512
0.131499
0.131487
0.131475
0.131463
0.131452
0.13144
0.131429
0.131417
0.131405
0.131394
0.131382
0.13137
0.131358
0.131345
0.131333
0.13132
0.131308
0.131295
0.131282
0.131269
0.131256
0.131243
0.13123
0.131217
0.131204
0.131191
0.131179
0.131166
0.131154
0.131141
0.131129
0.131117
0.131106
0.131095
0.131084
0.131073
0.131063
0.131053
0.131043
0.131034
0.131025
0.131016
0.131008
0.131
0.130993
0.130986
0.130979
0.130973
0.130967
0.130962
0.130957
0.130952
0.130948
0.130944
0.13094
0.130937
0.130934
0.130932
0.13093
0.130928
0.130926
0.130925
0.130924
0.130924
0.130924
0.130924
0.130924
0.130924
0.130925
0.130926
0.130928
0.13093
0.130932
0.130934
0.130937
0.13094
0.130943
0.130946
0.13095
0.130954
0.130958
0.130962
0.130967
0.130971
0.130976
0.130982
0.130987
0.130993
0.130999
0.131005
0.131011
0.131018
0.131025
0.131032
0.13104
0.131047
0.131055
0.131064
0.131072
0.131081
0.131091
0.1311
0.13111
0.131121
0.131132
0.131144
0.131156
0.131168
0.131182
0.131195
0.13121
0.131226
0.131242
0.131259
0.131277
0.131296
0.131316
0.131337
0.13136
0.131383
0.131408
0.131434
0.131461
0.13149
0.13152
0.131551
0.131584
0.131618
0.131653
0.13169
0.131728
0.131768
0.131808
0.13185
0.131893
0.131937
0.131982
0.132027
0.132073
0.13212
0.132167
0.132214
0.13226
0.132307
0.132353
0.132399
0.132443
0.132486
0.132528
0.132569
0.132607
0.132643
0.132677
0.132709
0.132738
0.132763
0.132786
0.132805
0.132821
0.132833
0.132841
0.132846
0.132847
0.132847
0.132845
0.132838
0.13283
0.132805
0.13279
0.132758
0.132736
0.132699
0.132671
0.132629
0.132596
0.13255
0.132514
0.132465
0.132426
0.132376
0.132335
0.132285
0.132245
0.132194
0.132155
0.132107
0.132069
0.132023
0.131988
0.131944
0.131913
0.131872
0.131844
0.131806
0.131782
0.131747
0.131726
0.131695
0.131677
0.131649
0.131633
0.131608
0.131594
0.131572
0.13156
0.131541
0.131529
)
;

boundaryField
{
    inlet
    {
        type            calculated;
        value           uniform 0.194831;
    }
    outlet
    {
        type            calculated;
        value           uniform 0.131521;
    }
    emptyWalls
    {
        type            empty;
    }
}


// ************************************************************************* //
