/*--------------------------------*- C++ -*----------------------------------*\
  =========                 |
  \\      /  F ield         | OpenFOAM: The Open Source CFD Toolbox
   \\    /   O peration     | Website:  https://openfoam.org
    \\  /    A nd           | Version:  9
     \\/     M anipulation  |
\*---------------------------------------------------------------------------*/
FoamFile
{
    format      ascii;
    class       volScalarField;
    location    "11650";
    object      krc;
}
// * * * * * * * * * * * * * * * * * * * * * * * * * * * * * * * * * * * * * //

dimensions      [0 0 0 0 0 0 0];

internalField   nonuniform List<scalar> 
1000
(
3.76675e-07
3.85727e-06
1.32771e-05
2.7582e-05
4.65991e-05
7.0066e-05
9.73896e-05
0.000127567
0.00015919
0.000190663
0.000220599
0.000248692
0.000279258
0.000339451
0.000564098
0.00201968
0.0186736
0.0392017
0.0446906
0.0469968
0.0483995
0.049427
0.0502606
0.0509717
0.0515996
0.0521625
0.0526752
0.0531451
0.053582
0.0539927
0.0543841
0.0547617
0.0551305
0.055495
0.0558594
0.0562395
0.0566327
0.0570361
0.0574551
0.0578988
0.0583816
0.0589247
0.0595563
0.0603067
0.0611957
0.0622189
0.0633476
0.0645477
0.0657941
0.0670706
0.0683669
0.0696756
0.0709918
0.0723124
0.0736348
0.0749573
0.0762784
0.0775973
0.0789132
0.0802256
0.0815339
0.082838
0.0841375
0.0854322
0.0867221
0.0880069
0.0892867
0.0905613
0.0918308
0.0930951
0.0943541
0.0956079
0.0968566
0.0981001
0.0993384
0.100572
0.1018
0.103023
0.10424
0.105453
0.106661
0.107864
0.109062
0.110255
0.111443
0.112626
0.113805
0.114978
0.116147
0.117312
0.118472
0.119627
0.120777
0.121924
0.123065
0.124202
0.125335
0.126464
0.127588
0.128708
0.129824
0.130936
0.132044
0.133147
0.134247
0.135342
0.136434
0.137522
0.138606
0.139686
0.140762
0.141834
0.142903
0.143968
0.14503
0.146088
0.147142
0.148193
0.149241
0.150285
0.151325
0.152362
0.153396
0.154427
0.155454
0.156478
0.157499
0.158517
0.159532
0.160543
0.161552
0.162557
0.16356
0.164559
0.165556
0.16655
0.16754
0.168528
0.169514
0.170496
0.171476
0.172453
0.173427
0.174399
0.175368
0.176334
0.177298
0.178259
0.179218
0.180174
0.181128
0.182079
0.183028
0.183975
0.184919
0.185861
0.186801
0.187738
0.188673
0.189605
0.190536
0.191464
0.19239
0.193314
0.194235
0.195154
0.196071
0.196986
0.197899
0.19881
0.199719
0.200625
0.20153
0.202433
0.203334
0.204233
0.20513
0.206025
0.206919
0.207811
0.208702
0.209591
0.210478
0.211364
0.212249
0.213132
0.214014
0.214894
0.215773
0.216651
0.217527
0.218402
0.219275
0.220146
0.221017
0.221885
0.222752
0.223618
0.224482
0.225344
0.226205
0.227064
0.227922
0.228779
0.229634
0.230488
0.23134
0.232191
0.233041
0.233889
0.234737
0.235583
0.236427
0.237271
0.238114
0.238955
0.239796
0.240635
0.241473
0.24231
0.243147
0.243982
0.244816
0.245649
0.246481
0.247313
0.248143
0.248972
0.249801
0.250628
0.251455
0.252281
0.253106
0.25393
0.254753
0.255575
0.256397
0.257218
0.258038
0.258857
0.259676
0.260493
0.26131
0.262127
0.262942
0.263757
0.264572
0.265385
0.266198
0.267011
0.267823
0.268634
0.269445
0.270255
0.271064
0.271873
0.272682
0.27349
0.274297
0.275104
0.275911
0.276717
0.277523
0.278328
0.279133
0.279937
0.280742
0.281545
0.282349
0.283152
0.283955
0.284757
0.285559
0.286361
0.287163
0.287964
0.288766
0.289566
0.290367
0.291168
0.291968
0.292769
0.293569
0.294369
0.295169
0.295968
0.296768
0.297568
0.298368
0.299167
0.299967
0.300766
0.301566
0.302366
0.303165
0.303965
0.304765
0.305565
0.306365
0.307165
0.307966
0.308766
0.309567
0.310368
0.311169
0.31197
0.312772
0.313574
0.314376
0.315178
0.315981
0.316784
0.317588
0.318391
0.319196
0.32
0.320805
0.32161
0.322416
0.323221
0.324028
0.324835
0.325642
0.326449
0.327258
0.328066
0.328875
0.329685
0.330495
0.331306
0.332118
0.33293
0.333743
0.334556
0.335371
0.336186
0.337002
0.33782
0.338638
0.339457
0.340278
0.341099
0.341922
0.342746
0.343572
0.344398
0.345227
0.346056
0.346888
0.34772
0.348554
0.34939
0.350227
0.351066
0.351906
0.352748
0.353591
0.354436
0.355282
0.35613
0.35698
0.35783
0.358683
0.359537
0.360392
0.361249
0.362108
0.362968
0.36383
0.364694
0.365559
0.366426
0.367295
0.368166
0.369039
0.369914
0.370791
0.37167
0.372551
0.373434
0.37432
0.375208
0.376098
0.376991
0.377886
0.378784
0.379685
0.380588
0.381494
0.382403
0.383314
0.384229
0.385146
0.386067
0.386991
0.387917
0.388847
0.389781
0.390717
0.391657
0.3926
0.393547
0.394498
0.395452
0.39641
0.397372
0.398337
0.399306
0.40028
0.401257
0.402238
0.403224
0.404214
0.405208
0.406207
0.40721
0.408217
0.409229
0.410245
0.411265
0.412291
0.41332
0.414354
0.415392
0.416434
0.41748
0.418529
0.419582
0.420638
0.421696
0.422756
0.423816
0.424876
0.425934
0.426989
0.42804
0.429083
0.430116
0.431136
0.43214
0.433124
0.434084
0.435015
0.435913
0.436772
0.437589
0.438359
0.439079
0.439745
0.440354
0.440907
0.441402
0.441843
0.442232
0.442577
0.442886
0.443176
0.44347
0.443811
0.44427
0.444968
0.446118
0.448083
0.451476
0.457275
0.466899
0.482028
0.50384
0.53159
0.561636
0.588778
0.609368
0.622899
0.630929
0.635398
0.637793
0.639051
0.639705
0.640042
0.640216
0.640305
0.64035
0.640373
0.640384
0.64039
0.640393
0.640394
0.640394
0.640393
0.640392
0.640391
0.64039
0.640389
0.640388
0.640387
0.640385
0.640384
0.640382
0.640381
0.640379
0.640377
0.640374
0.640372
0.64037
0.640367
0.640364
0.640361
0.640357
0.640354
0.64035
0.640346
0.640342
0.640338
0.640333
0.640328
0.640323
0.640318
0.640313
0.640308
0.640303
0.640297
0.640292
0.640287
0.640281
0.640276
0.640271
0.640266
0.640262
0.640257
0.640253
0.640249
0.640246
0.640243
0.64024
0.640238
0.640237
0.640236
0.640235
0.640235
0.640236
0.640236
0.640237
0.640239
0.640242
0.640245
0.640249
0.640253
0.640257
0.640262
0.640267
0.640273
0.640278
0.640284
0.640289
0.640295
0.640301
0.640307
0.640312
0.640318
0.640323
0.640328
0.640333
0.640338
0.640342
0.640347
0.640351
0.640354
0.640358
0.640361
0.640364
0.640366
0.640369
0.640371
0.640373
0.640374
0.640376
0.640377
0.640379
0.64038
0.640381
0.640382
0.640383
0.640384
0.640384
0.640385
0.640386
0.640387
0.640387
0.640388
0.640389
0.64039
0.64039
0.640391
0.640392
0.640393
0.640394
0.640395
0.640395
0.640396
0.640397
0.640398
0.640399
0.6404
0.640401
0.640402
0.640403
0.640404
0.640405
0.640406
0.640407
0.640408
0.640409
0.64041
0.640411
0.640412
0.640413
0.640414
0.640415
0.640415
0.640416
0.640417
0.640418
0.640418
0.640419
0.64042
0.64042
0.640421
0.640422
0.640422
0.640423
0.640423
0.640424
0.640424
0.640425
0.640425
0.640425
0.640426
0.640426
0.640426
0.640427
0.640427
0.640427
0.640427
0.640428
0.640428
0.640428
0.640428
0.640428
0.640429
0.640429
0.640429
0.640429
0.640429
0.640429
0.640429
0.640429
0.640429
0.640429
0.640429
0.640429
0.640429
0.640429
0.640428
0.640428
0.640428
0.640428
0.640428
0.640427
0.640427
0.640427
0.640426
0.640426
0.640426
0.640425
0.640425
0.640424
0.640424
0.640423
0.640423
0.640423
0.640422
0.640421
0.640421
0.64042
0.64042
0.640419
0.640419
0.640418
0.640417
0.640417
0.640416
0.640415
0.640414
0.640413
0.640413
0.640411
0.64041
0.640409
0.640408
0.640406
0.640405
0.640403
0.640401
0.640399
0.640397
0.640395
0.640392
0.64039
0.640387
0.640384
0.640381
0.640378
0.640375
0.640371
0.640368
0.640364
0.64036
0.640356
0.640352
0.640348
0.640344
0.64034
0.640335
0.640331
0.640326
0.640322
0.640317
0.640312
0.640308
0.640303
0.640299
0.640294
0.64029
0.640285
0.640281
0.640277
0.640274
0.64027
0.640267
0.640264
0.640261
0.640259
0.640257
0.640256
0.640254
0.640254
0.640253
0.640253
0.640253
0.640253
0.640254
0.640256
0.640258
0.64026
0.640263
0.640266
0.640269
0.640273
0.640277
0.640281
0.640285
0.64029
0.640294
0.640299
0.640303
0.640308
0.640312
0.640317
0.640321
0.640326
0.64033
0.640334
0.640338
0.640342
0.640345
0.640348
0.640352
0.640355
0.640357
0.64036
0.640362
0.640365
0.640367
0.640369
0.640371
0.640373
0.640374
0.640376
0.640377
0.640378
0.64038
0.640381
0.640382
0.640383
0.640384
0.640385
0.640386
0.640387
0.640388
0.640389
0.64039
0.640391
0.640392
0.640393
0.640394
0.640395
0.640396
0.640397
0.640398
0.640399
0.640401
0.640402
0.640403
0.640404
0.640405
0.640406
0.640407
0.640408
0.640409
0.64041
0.640411
0.640412
0.640413
0.640414
0.640415
0.640416
0.640417
0.640418
0.640419
0.64042
0.640421
0.640422
0.640423
0.640423
0.640424
0.640425
0.640425
0.640426
0.640427
0.640427
0.640428
0.640428
0.640429
0.640429
0.640429
0.64043
0.64043
0.64043
0.640431
0.640431
0.640431
0.640431
0.640431
0.640432
0.640432
0.640432
0.640432
0.640432
0.640432
0.640432
0.640432
0.640432
0.640432
0.640431
0.640431
0.640431
0.640431
0.640431
0.64043
0.64043
0.64043
0.64043
0.640429
0.640429
0.640429
0.640428
0.640428
0.640427
0.640427
0.640426
0.640426
0.640425
0.640425
0.640424
0.640424
0.640423
0.640423
0.640422
0.640422
0.640421
0.64042
0.64042
0.640419
0.640418
0.640417
0.640416
0.640415
0.640414
0.640413
0.640412
0.640411
0.64041
0.640409
0.640408
0.640406
0.640405
0.640403
0.640402
0.6404
0.640398
0.640396
0.640394
0.640392
0.64039
0.640388
0.640385
0.640383
0.64038
0.640377
0.640374
0.640371
0.640368
0.640365
0.640362
0.640359
0.640355
0.640351
0.640348
0.640344
0.64034
0.640336
0.640333
0.640329
0.640325
0.640321
0.640317
0.640313
0.640309
0.640305
0.640301
0.640298
0.640294
0.640291
0.640288
0.640285
0.640282
0.640279
0.640277
0.640275
0.640273
0.640271
0.64027
0.640269
0.640268
0.640268
0.640268
0.640268
0.640268
0.640269
0.640269
0.640271
0.640273
0.640275
0.640277
0.64028
0.640283
0.640286
0.640289
0.640293
0.640296
0.6403
0.640304
0.640308
0.640311
0.640316
0.640319
0.640323
0.640327
0.640331
0.640334
0.640338
0.640341
0.640345
0.640347
0.640351
0.640353
0.640356
0.640358
0.640361
0.640363
0.640366
0.640367
0.64037
0.640371
0.640373
0.640374
0.640376
0.640377
0.640379
0.64038
)
;

boundaryField
{
    inlet
    {
        type            calculated;
        value           uniform 3.08149e-33;
    }
    outlet
    {
        type            calculated;
        value           uniform 0.64038;
    }
    emptyWalls
    {
        type            empty;
    }
}


// ************************************************************************* //
