/*--------------------------------*- C++ -*----------------------------------*\
  =========                 |
  \\      /  F ield         | OpenFOAM: The Open Source CFD Toolbox
   \\    /   O peration     | Website:  https://openfoam.org
    \\  /    A nd           | Version:  9
     \\/     M anipulation  |
\*---------------------------------------------------------------------------*/
FoamFile
{
    format      ascii;
    class       volVectorField;
    location    "11650";
    object      Ub;
}
// * * * * * * * * * * * * * * * * * * * * * * * * * * * * * * * * * * * * * //

dimensions      [0 0 0 0 0 0 0];

internalField   nonuniform List<vector> 
1000
(
(1.13617e-05 0 0)
(1.1362e-05 0 0)
(1.13625e-05 0 0)
(1.13626e-05 0 0)
(1.13632e-05 0 0)
(1.13637e-05 0 0)
(1.13643e-05 0 0)
(1.13651e-05 0 0)
(1.13658e-05 0 0)
(1.13665e-05 0 0)
(1.13671e-05 0 0)
(1.13676e-05 0 0)
(1.13683e-05 0 0)
(1.13704e-05 0 0)
(1.13778e-05 0 0)
(1.14166e-05 0 0)
(1.15798e-05 0 0)
(1.17369e-05 0 0)
(1.17713e-05 0 0)
(1.1782e-05 0 0)
(1.17874e-05 0 0)
(1.17909e-05 0 0)
(1.17935e-05 0 0)
(1.17955e-05 0 0)
(1.17971e-05 0 0)
(1.17984e-05 0 0)
(1.17996e-05 0 0)
(1.18004e-05 0 0)
(1.1801e-05 0 0)
(1.18013e-05 0 0)
(1.18012e-05 0 0)
(1.18009e-05 0 0)
(1.18004e-05 0 0)
(1.17999e-05 0 0)
(1.17992e-05 0 0)
(1.17983e-05 0 0)
(1.1797e-05 0 0)
(1.1795e-05 0 0)
(1.17921e-05 0 0)
(1.1788e-05 0 0)
(1.17826e-05 0 0)
(1.17765e-05 0 0)
(1.17699e-05 0 0)
(1.17627e-05 0 0)
(1.17548e-05 0 0)
(1.17463e-05 0 0)
(1.17374e-05 0 0)
(1.17284e-05 0 0)
(1.17198e-05 0 0)
(1.17118e-05 0 0)
(1.17046e-05 0 0)
(1.16983e-05 0 0)
(1.16929e-05 0 0)
(1.16883e-05 0 0)
(1.16842e-05 0 0)
(1.16805e-05 0 0)
(1.16767e-05 0 0)
(1.16728e-05 0 0)
(1.16684e-05 0 0)
(1.16634e-05 0 0)
(1.16577e-05 0 0)
(1.16514e-05 0 0)
(1.16443e-05 0 0)
(1.16366e-05 0 0)
(1.16284e-05 0 0)
(1.16197e-05 0 0)
(1.16107e-05 0 0)
(1.16015e-05 0 0)
(1.15922e-05 0 0)
(1.15828e-05 0 0)
(1.15734e-05 0 0)
(1.15641e-05 0 0)
(1.15549e-05 0 0)
(1.15457e-05 0 0)
(1.15367e-05 0 0)
(1.15277e-05 0 0)
(1.15188e-05 0 0)
(1.151e-05 0 0)
(1.15012e-05 0 0)
(1.14924e-05 0 0)
(1.14837e-05 0 0)
(1.14749e-05 0 0)
(1.14661e-05 0 0)
(1.14574e-05 0 0)
(1.14486e-05 0 0)
(1.14397e-05 0 0)
(1.14309e-05 0 0)
(1.1422e-05 0 0)
(1.14131e-05 0 0)
(1.14041e-05 0 0)
(1.13952e-05 0 0)
(1.13862e-05 0 0)
(1.13771e-05 0 0)
(1.13681e-05 0 0)
(1.1359e-05 0 0)
(1.13499e-05 0 0)
(1.13408e-05 0 0)
(1.13316e-05 0 0)
(1.13224e-05 0 0)
(1.13132e-05 0 0)
(1.13039e-05 0 0)
(1.12946e-05 0 0)
(1.12853e-05 0 0)
(1.1276e-05 0 0)
(1.12667e-05 0 0)
(1.12573e-05 0 0)
(1.12479e-05 0 0)
(1.12384e-05 0 0)
(1.1229e-05 0 0)
(1.12195e-05 0 0)
(1.121e-05 0 0)
(1.12004e-05 0 0)
(1.11909e-05 0 0)
(1.11813e-05 0 0)
(1.11716e-05 0 0)
(1.1162e-05 0 0)
(1.11523e-05 0 0)
(1.11426e-05 0 0)
(1.11328e-05 0 0)
(1.11231e-05 0 0)
(1.11133e-05 0 0)
(1.11034e-05 0 0)
(1.10936e-05 0 0)
(1.10837e-05 0 0)
(1.10738e-05 0 0)
(1.10638e-05 0 0)
(1.10539e-05 0 0)
(1.10439e-05 0 0)
(1.10339e-05 0 0)
(1.10238e-05 0 0)
(1.10137e-05 0 0)
(1.10036e-05 0 0)
(1.09935e-05 0 0)
(1.09833e-05 0 0)
(1.09731e-05 0 0)
(1.09629e-05 0 0)
(1.09527e-05 0 0)
(1.09425e-05 0 0)
(1.09322e-05 0 0)
(1.09219e-05 0 0)
(1.09116e-05 0 0)
(1.09013e-05 0 0)
(1.0891e-05 0 0)
(1.08807e-05 0 0)
(1.08704e-05 0 0)
(1.086e-05 0 0)
(1.08496e-05 0 0)
(1.08392e-05 0 0)
(1.08288e-05 0 0)
(1.08183e-05 0 0)
(1.08078e-05 0 0)
(1.07973e-05 0 0)
(1.07867e-05 0 0)
(1.07762e-05 0 0)
(1.07656e-05 0 0)
(1.0755e-05 0 0)
(1.07443e-05 0 0)
(1.07336e-05 0 0)
(1.07228e-05 0 0)
(1.07119e-05 0 0)
(1.0701e-05 0 0)
(1.06899e-05 0 0)
(1.06787e-05 0 0)
(1.06673e-05 0 0)
(1.06558e-05 0 0)
(1.06441e-05 0 0)
(1.06323e-05 0 0)
(1.06203e-05 0 0)
(1.06082e-05 0 0)
(1.05959e-05 0 0)
(1.05836e-05 0 0)
(1.05711e-05 0 0)
(1.05587e-05 0 0)
(1.05462e-05 0 0)
(1.05337e-05 0 0)
(1.05213e-05 0 0)
(1.0509e-05 0 0)
(1.04968e-05 0 0)
(1.04849e-05 0 0)
(1.04731e-05 0 0)
(1.04616e-05 0 0)
(1.04504e-05 0 0)
(1.04395e-05 0 0)
(1.0429e-05 0 0)
(1.04187e-05 0 0)
(1.04088e-05 0 0)
(1.03991e-05 0 0)
(1.03896e-05 0 0)
(1.03804e-05 0 0)
(1.03713e-05 0 0)
(1.03623e-05 0 0)
(1.03534e-05 0 0)
(1.03445e-05 0 0)
(1.03355e-05 0 0)
(1.03264e-05 0 0)
(1.03171e-05 0 0)
(1.03078e-05 0 0)
(1.02982e-05 0 0)
(1.02884e-05 0 0)
(1.02785e-05 0 0)
(1.02683e-05 0 0)
(1.0258e-05 0 0)
(1.02475e-05 0 0)
(1.02368e-05 0 0)
(1.0226e-05 0 0)
(1.0215e-05 0 0)
(1.0204e-05 0 0)
(1.01928e-05 0 0)
(1.01816e-05 0 0)
(1.01704e-05 0 0)
(1.01591e-05 0 0)
(1.01478e-05 0 0)
(1.01365e-05 0 0)
(1.01251e-05 0 0)
(1.01138e-05 0 0)
(1.01025e-05 0 0)
(1.00911e-05 0 0)
(1.00798e-05 0 0)
(1.00685e-05 0 0)
(1.00572e-05 0 0)
(1.00459e-05 0 0)
(1.00346e-05 0 0)
(1.00233e-05 0 0)
(1.0012e-05 0 0)
(1.00007e-05 0 0)
(9.98945e-06 0 0)
(9.97813e-06 0 0)
(9.96681e-06 0 0)
(9.95546e-06 0 0)
(9.9441e-06 0 0)
(9.93272e-06 0 0)
(9.92132e-06 0 0)
(9.90989e-06 0 0)
(9.89844e-06 0 0)
(9.88697e-06 0 0)
(9.87547e-06 0 0)
(9.86394e-06 0 0)
(9.85238e-06 0 0)
(9.8408e-06 0 0)
(9.82919e-06 0 0)
(9.81755e-06 0 0)
(9.80588e-06 0 0)
(9.79419e-06 0 0)
(9.78247e-06 0 0)
(9.77072e-06 0 0)
(9.75894e-06 0 0)
(9.74714e-06 0 0)
(9.73531e-06 0 0)
(9.72346e-06 0 0)
(9.71158e-06 0 0)
(9.69967e-06 0 0)
(9.68774e-06 0 0)
(9.67578e-06 0 0)
(9.66379e-06 0 0)
(9.65177e-06 0 0)
(9.63973e-06 0 0)
(9.62767e-06 0 0)
(9.61557e-06 0 0)
(9.60345e-06 0 0)
(9.5913e-06 0 0)
(9.57912e-06 0 0)
(9.56691e-06 0 0)
(9.55468e-06 0 0)
(9.54241e-06 0 0)
(9.53012e-06 0 0)
(9.51779e-06 0 0)
(9.50544e-06 0 0)
(9.49306e-06 0 0)
(9.48064e-06 0 0)
(9.4682e-06 0 0)
(9.45573e-06 0 0)
(9.44322e-06 0 0)
(9.43069e-06 0 0)
(9.41812e-06 0 0)
(9.40552e-06 0 0)
(9.39289e-06 0 0)
(9.38023e-06 0 0)
(9.36754e-06 0 0)
(9.35482e-06 0 0)
(9.34206e-06 0 0)
(9.32927e-06 0 0)
(9.31645e-06 0 0)
(9.3036e-06 0 0)
(9.29072e-06 0 0)
(9.27781e-06 0 0)
(9.26486e-06 0 0)
(9.25189e-06 0 0)
(9.23889e-06 0 0)
(9.22585e-06 0 0)
(9.21279e-06 0 0)
(9.19969e-06 0 0)
(9.18657e-06 0 0)
(9.17341e-06 0 0)
(9.16023e-06 0 0)
(9.14702e-06 0 0)
(9.13377e-06 0 0)
(9.1205e-06 0 0)
(9.10719e-06 0 0)
(9.09386e-06 0 0)
(9.08049e-06 0 0)
(9.06709e-06 0 0)
(9.05365e-06 0 0)
(9.04018e-06 0 0)
(9.02668e-06 0 0)
(9.01315e-06 0 0)
(8.99957e-06 0 0)
(8.98596e-06 0 0)
(8.97231e-06 0 0)
(8.95861e-06 0 0)
(8.94487e-06 0 0)
(8.93109e-06 0 0)
(8.91725e-06 0 0)
(8.90336e-06 0 0)
(8.88942e-06 0 0)
(8.87541e-06 0 0)
(8.86133e-06 0 0)
(8.84719e-06 0 0)
(8.83297e-06 0 0)
(8.81867e-06 0 0)
(8.80429e-06 0 0)
(8.78983e-06 0 0)
(8.77528e-06 0 0)
(8.76064e-06 0 0)
(8.74592e-06 0 0)
(8.7311e-06 0 0)
(8.7162e-06 0 0)
(8.70121e-06 0 0)
(8.68615e-06 0 0)
(8.67101e-06 0 0)
(8.65579e-06 0 0)
(8.64052e-06 0 0)
(8.62519e-06 0 0)
(8.60981e-06 0 0)
(8.5944e-06 0 0)
(8.57897e-06 0 0)
(8.56352e-06 0 0)
(8.54807e-06 0 0)
(8.53263e-06 0 0)
(8.51722e-06 0 0)
(8.50184e-06 0 0)
(8.4865e-06 0 0)
(8.47123e-06 0 0)
(8.45601e-06 0 0)
(8.44087e-06 0 0)
(8.4258e-06 0 0)
(8.41081e-06 0 0)
(8.39591e-06 0 0)
(8.38108e-06 0 0)
(8.36633e-06 0 0)
(8.35165e-06 0 0)
(8.33703e-06 0 0)
(8.32246e-06 0 0)
(8.30793e-06 0 0)
(8.29343e-06 0 0)
(8.27893e-06 0 0)
(8.26443e-06 0 0)
(8.2499e-06 0 0)
(8.23534e-06 0 0)
(8.22072e-06 0 0)
(8.20604e-06 0 0)
(8.19128e-06 0 0)
(8.17643e-06 0 0)
(8.16147e-06 0 0)
(8.14641e-06 0 0)
(8.13124e-06 0 0)
(8.11594e-06 0 0)
(8.10053e-06 0 0)
(8.08499e-06 0 0)
(8.06933e-06 0 0)
(8.05355e-06 0 0)
(8.03765e-06 0 0)
(8.02163e-06 0 0)
(8.0055e-06 0 0)
(7.98925e-06 0 0)
(7.97291e-06 0 0)
(7.95646e-06 0 0)
(7.93992e-06 0 0)
(7.92328e-06 0 0)
(7.90656e-06 0 0)
(7.88975e-06 0 0)
(7.87286e-06 0 0)
(7.8559e-06 0 0)
(7.83885e-06 0 0)
(7.82173e-06 0 0)
(7.80454e-06 0 0)
(7.78728e-06 0 0)
(7.76994e-06 0 0)
(7.75253e-06 0 0)
(7.73506e-06 0 0)
(7.7175e-06 0 0)
(7.69988e-06 0 0)
(7.68218e-06 0 0)
(7.66441e-06 0 0)
(7.64656e-06 0 0)
(7.62863e-06 0 0)
(7.61062e-06 0 0)
(7.59253e-06 0 0)
(7.57435e-06 0 0)
(7.55608e-06 0 0)
(7.53773e-06 0 0)
(7.51929e-06 0 0)
(7.50075e-06 0 0)
(7.48212e-06 0 0)
(7.46339e-06 0 0)
(7.44456e-06 0 0)
(7.42563e-06 0 0)
(7.4066e-06 0 0)
(7.38747e-06 0 0)
(7.36822e-06 0 0)
(7.34888e-06 0 0)
(7.32942e-06 0 0)
(7.30985e-06 0 0)
(7.29016e-06 0 0)
(7.27036e-06 0 0)
(7.25044e-06 0 0)
(7.23041e-06 0 0)
(7.21027e-06 0 0)
(7.19001e-06 0 0)
(7.16963e-06 0 0)
(7.14912e-06 0 0)
(7.12851e-06 0 0)
(7.10777e-06 0 0)
(7.08692e-06 0 0)
(7.06596e-06 0 0)
(7.04488e-06 0 0)
(7.02371e-06 0 0)
(7.00242e-06 0 0)
(6.98105e-06 0 0)
(6.95959e-06 0 0)
(6.93806e-06 0 0)
(6.91647e-06 0 0)
(6.89484e-06 0 0)
(6.8732e-06 0 0)
(6.85156e-06 0 0)
(6.82996e-06 0 0)
(6.80844e-06 0 0)
(6.78705e-06 0 0)
(6.76584e-06 0 0)
(6.74488e-06 0 0)
(6.72424e-06 0 0)
(6.70399e-06 0 0)
(6.68422e-06 0 0)
(6.66503e-06 0 0)
(6.64651e-06 0 0)
(6.62876e-06 0 0)
(6.61188e-06 0 0)
(6.59596e-06 0 0)
(6.58107e-06 0 0)
(6.56727e-06 0 0)
(6.55463e-06 0 0)
(6.54316e-06 0 0)
(6.53285e-06 0 0)
(6.52368e-06 0 0)
(6.51554e-06 0 0)
(6.50831e-06 0 0)
(6.50178e-06 0 0)
(6.49561e-06 0 0)
(6.48925e-06 0 0)
(6.48177e-06 0 0)
(6.47156e-06 0 0)
(6.4559e-06 0 0)
(6.43003e-06 0 0)
(6.38587e-06 0 0)
(6.30995e-06 0 0)
(6.18133e-06 0 0)
(5.97097e-06 0 0)
(5.64748e-06 0 0)
(5.19475e-06 0 0)
(4.638e-06 0 0)
(4.05367e-06 0 0)
(3.53716e-06 0 0)
(3.14943e-06 0 0)
(2.89535e-06 0 0)
(2.74449e-06 0 0)
(2.66044e-06 0 0)
(2.61533e-06 0 0)
(2.59161e-06 0 0)
(2.57927e-06 0 0)
(2.57288e-06 0 0)
(2.56957e-06 0 0)
(2.56787e-06 0 0)
(2.56698e-06 0 0)
(2.56651e-06 0 0)
(2.56626e-06 0 0)
(2.56611e-06 0 0)
(2.56602e-06 0 0)
(2.56596e-06 0 0)
(2.56592e-06 0 0)
(2.56588e-06 0 0)
(2.56584e-06 0 0)
(2.56581e-06 0 0)
(2.56577e-06 0 0)
(2.56573e-06 0 0)
(2.56569e-06 0 0)
(2.56564e-06 0 0)
(2.56559e-06 0 0)
(2.56554e-06 0 0)
(2.56548e-06 0 0)
(2.56542e-06 0 0)
(2.56535e-06 0 0)
(2.56528e-06 0 0)
(2.5652e-06 0 0)
(2.56512e-06 0 0)
(2.56503e-06 0 0)
(2.56493e-06 0 0)
(2.56483e-06 0 0)
(2.56472e-06 0 0)
(2.5646e-06 0 0)
(2.56448e-06 0 0)
(2.56434e-06 0 0)
(2.5642e-06 0 0)
(2.56406e-06 0 0)
(2.5639e-06 0 0)
(2.56374e-06 0 0)
(2.56357e-06 0 0)
(2.5634e-06 0 0)
(2.56322e-06 0 0)
(2.56304e-06 0 0)
(2.56285e-06 0 0)
(2.56266e-06 0 0)
(2.56246e-06 0 0)
(2.56227e-06 0 0)
(2.56207e-06 0 0)
(2.56188e-06 0 0)
(2.56168e-06 0 0)
(2.56149e-06 0 0)
(2.56131e-06 0 0)
(2.56113e-06 0 0)
(2.56096e-06 0 0)
(2.5608e-06 0 0)
(2.56065e-06 0 0)
(2.56051e-06 0 0)
(2.56038e-06 0 0)
(2.56027e-06 0 0)
(2.56018e-06 0 0)
(2.5601e-06 0 0)
(2.56004e-06 0 0)
(2.56e-06 0 0)
(2.55998e-06 0 0)
(2.55997e-06 0 0)
(2.55996e-06 0 0)
(2.55997e-06 0 0)
(2.56001e-06 0 0)
(2.56008e-06 0 0)
(2.56017e-06 0 0)
(2.56027e-06 0 0)
(2.56039e-06 0 0)
(2.56052e-06 0 0)
(2.56066e-06 0 0)
(2.56081e-06 0 0)
(2.56097e-06 0 0)
(2.56113e-06 0 0)
(2.56131e-06 0 0)
(2.56148e-06 0 0)
(2.56166e-06 0 0)
(2.56184e-06 0 0)
(2.56201e-06 0 0)
(2.56219e-06 0 0)
(2.56236e-06 0 0)
(2.56253e-06 0 0)
(2.56269e-06 0 0)
(2.56284e-06 0 0)
(2.56298e-06 0 0)
(2.56312e-06 0 0)
(2.56325e-06 0 0)
(2.56337e-06 0 0)
(2.56348e-06 0 0)
(2.56358e-06 0 0)
(2.56368e-06 0 0)
(2.56376e-06 0 0)
(2.56384e-06 0 0)
(2.56391e-06 0 0)
(2.56397e-06 0 0)
(2.56403e-06 0 0)
(2.56408e-06 0 0)
(2.56413e-06 0 0)
(2.56417e-06 0 0)
(2.5642e-06 0 0)
(2.56423e-06 0 0)
(2.56426e-06 0 0)
(2.56429e-06 0 0)
(2.56431e-06 0 0)
(2.56434e-06 0 0)
(2.56436e-06 0 0)
(2.56438e-06 0 0)
(2.5644e-06 0 0)
(2.56443e-06 0 0)
(2.56445e-06 0 0)
(2.56447e-06 0 0)
(2.56449e-06 0 0)
(2.56452e-06 0 0)
(2.56454e-06 0 0)
(2.56457e-06 0 0)
(2.5646e-06 0 0)
(2.56463e-06 0 0)
(2.56466e-06 0 0)
(2.56469e-06 0 0)
(2.56473e-06 0 0)
(2.56476e-06 0 0)
(2.5648e-06 0 0)
(2.56483e-06 0 0)
(2.56487e-06 0 0)
(2.56491e-06 0 0)
(2.56495e-06 0 0)
(2.56499e-06 0 0)
(2.56503e-06 0 0)
(2.56507e-06 0 0)
(2.56511e-06 0 0)
(2.56515e-06 0 0)
(2.56519e-06 0 0)
(2.56524e-06 0 0)
(2.56528e-06 0 0)
(2.56532e-06 0 0)
(2.56536e-06 0 0)
(2.5654e-06 0 0)
(2.56544e-06 0 0)
(2.56547e-06 0 0)
(2.56551e-06 0 0)
(2.56555e-06 0 0)
(2.56558e-06 0 0)
(2.56562e-06 0 0)
(2.56565e-06 0 0)
(2.56568e-06 0 0)
(2.56571e-06 0 0)
(2.56574e-06 0 0)
(2.56577e-06 0 0)
(2.5658e-06 0 0)
(2.56583e-06 0 0)
(2.56585e-06 0 0)
(2.56588e-06 0 0)
(2.5659e-06 0 0)
(2.56592e-06 0 0)
(2.56594e-06 0 0)
(2.56596e-06 0 0)
(2.56598e-06 0 0)
(2.566e-06 0 0)
(2.56601e-06 0 0)
(2.56603e-06 0 0)
(2.56604e-06 0 0)
(2.56606e-06 0 0)
(2.56607e-06 0 0)
(2.56608e-06 0 0)
(2.56609e-06 0 0)
(2.5661e-06 0 0)
(2.56611e-06 0 0)
(2.56612e-06 0 0)
(2.56613e-06 0 0)
(2.56613e-06 0 0)
(2.56614e-06 0 0)
(2.56614e-06 0 0)
(2.56615e-06 0 0)
(2.56615e-06 0 0)
(2.56615e-06 0 0)
(2.56615e-06 0 0)
(2.56615e-06 0 0)
(2.56615e-06 0 0)
(2.56615e-06 0 0)
(2.56615e-06 0 0)
(2.56615e-06 0 0)
(2.56614e-06 0 0)
(2.56614e-06 0 0)
(2.56613e-06 0 0)
(2.56613e-06 0 0)
(2.56612e-06 0 0)
(2.56611e-06 0 0)
(2.5661e-06 0 0)
(2.56609e-06 0 0)
(2.56608e-06 0 0)
(2.56607e-06 0 0)
(2.56606e-06 0 0)
(2.56605e-06 0 0)
(2.56603e-06 0 0)
(2.56602e-06 0 0)
(2.56601e-06 0 0)
(2.56599e-06 0 0)
(2.56597e-06 0 0)
(2.56596e-06 0 0)
(2.56594e-06 0 0)
(2.56592e-06 0 0)
(2.5659e-06 0 0)
(2.56588e-06 0 0)
(2.56585e-06 0 0)
(2.56583e-06 0 0)
(2.56581e-06 0 0)
(2.56578e-06 0 0)
(2.56576e-06 0 0)
(2.56573e-06 0 0)
(2.5657e-06 0 0)
(2.56567e-06 0 0)
(2.56564e-06 0 0)
(2.56561e-06 0 0)
(2.56558e-06 0 0)
(2.56554e-06 0 0)
(2.5655e-06 0 0)
(2.56547e-06 0 0)
(2.56543e-06 0 0)
(2.56539e-06 0 0)
(2.56534e-06 0 0)
(2.5653e-06 0 0)
(2.56525e-06 0 0)
(2.5652e-06 0 0)
(2.56515e-06 0 0)
(2.5651e-06 0 0)
(2.56504e-06 0 0)
(2.56498e-06 0 0)
(2.56491e-06 0 0)
(2.56484e-06 0 0)
(2.56477e-06 0 0)
(2.56469e-06 0 0)
(2.56461e-06 0 0)
(2.56452e-06 0 0)
(2.56443e-06 0 0)
(2.56433e-06 0 0)
(2.56422e-06 0 0)
(2.56411e-06 0 0)
(2.564e-06 0 0)
(2.56387e-06 0 0)
(2.56375e-06 0 0)
(2.56361e-06 0 0)
(2.56347e-06 0 0)
(2.56333e-06 0 0)
(2.56318e-06 0 0)
(2.56303e-06 0 0)
(2.56287e-06 0 0)
(2.56271e-06 0 0)
(2.56255e-06 0 0)
(2.56238e-06 0 0)
(2.56222e-06 0 0)
(2.56205e-06 0 0)
(2.56188e-06 0 0)
(2.56172e-06 0 0)
(2.56156e-06 0 0)
(2.5614e-06 0 0)
(2.56125e-06 0 0)
(2.5611e-06 0 0)
(2.56095e-06 0 0)
(2.56082e-06 0 0)
(2.56069e-06 0 0)
(2.56057e-06 0 0)
(2.56046e-06 0 0)
(2.56036e-06 0 0)
(2.56028e-06 0 0)
(2.56021e-06 0 0)
(2.56015e-06 0 0)
(2.5601e-06 0 0)
(2.56007e-06 0 0)
(2.56005e-06 0 0)
(2.56004e-06 0 0)
(2.56004e-06 0 0)
(2.56005e-06 0 0)
(2.56007e-06 0 0)
(2.56013e-06 0 0)
(2.5602e-06 0 0)
(2.56028e-06 0 0)
(2.56037e-06 0 0)
(2.56048e-06 0 0)
(2.56059e-06 0 0)
(2.56072e-06 0 0)
(2.56085e-06 0 0)
(2.56099e-06 0 0)
(2.56114e-06 0 0)
(2.56129e-06 0 0)
(2.56145e-06 0 0)
(2.56161e-06 0 0)
(2.56177e-06 0 0)
(2.56192e-06 0 0)
(2.56208e-06 0 0)
(2.56224e-06 0 0)
(2.56239e-06 0 0)
(2.56254e-06 0 0)
(2.56269e-06 0 0)
(2.56283e-06 0 0)
(2.56296e-06 0 0)
(2.56309e-06 0 0)
(2.56321e-06 0 0)
(2.56333e-06 0 0)
(2.56344e-06 0 0)
(2.56354e-06 0 0)
(2.56364e-06 0 0)
(2.56373e-06 0 0)
(2.56381e-06 0 0)
(2.56389e-06 0 0)
(2.56396e-06 0 0)
(2.56403e-06 0 0)
(2.5641e-06 0 0)
(2.56415e-06 0 0)
(2.56421e-06 0 0)
(2.56426e-06 0 0)
(2.56431e-06 0 0)
(2.56435e-06 0 0)
(2.5644e-06 0 0)
(2.56444e-06 0 0)
(2.56448e-06 0 0)
(2.56451e-06 0 0)
(2.56455e-06 0 0)
(2.56458e-06 0 0)
(2.56462e-06 0 0)
(2.56465e-06 0 0)
(2.56469e-06 0 0)
(2.56472e-06 0 0)
(2.56476e-06 0 0)
(2.56479e-06 0 0)
(2.56483e-06 0 0)
(2.56486e-06 0 0)
(2.5649e-06 0 0)
(2.56493e-06 0 0)
(2.56497e-06 0 0)
(2.56501e-06 0 0)
(2.56505e-06 0 0)
(2.56508e-06 0 0)
(2.56512e-06 0 0)
(2.56516e-06 0 0)
(2.5652e-06 0 0)
(2.56524e-06 0 0)
(2.56528e-06 0 0)
(2.56532e-06 0 0)
(2.56536e-06 0 0)
(2.5654e-06 0 0)
(2.56543e-06 0 0)
(2.56547e-06 0 0)
(2.56551e-06 0 0)
(2.56555e-06 0 0)
(2.56559e-06 0 0)
(2.56562e-06 0 0)
(2.56566e-06 0 0)
(2.56569e-06 0 0)
(2.56573e-06 0 0)
(2.56576e-06 0 0)
(2.56579e-06 0 0)
(2.56582e-06 0 0)
(2.56585e-06 0 0)
(2.56588e-06 0 0)
(2.56591e-06 0 0)
(2.56594e-06 0 0)
(2.56596e-06 0 0)
(2.56599e-06 0 0)
(2.56601e-06 0 0)
(2.56603e-06 0 0)
(2.56605e-06 0 0)
(2.56607e-06 0 0)
(2.56609e-06 0 0)
(2.56611e-06 0 0)
(2.56613e-06 0 0)
(2.56614e-06 0 0)
(2.56616e-06 0 0)
(2.56617e-06 0 0)
(2.56618e-06 0 0)
(2.56619e-06 0 0)
(2.5662e-06 0 0)
(2.56621e-06 0 0)
(2.56622e-06 0 0)
(2.56622e-06 0 0)
(2.56623e-06 0 0)
(2.56623e-06 0 0)
(2.56624e-06 0 0)
(2.56624e-06 0 0)
(2.56624e-06 0 0)
(2.56624e-06 0 0)
(2.56624e-06 0 0)
(2.56624e-06 0 0)
(2.56624e-06 0 0)
(2.56624e-06 0 0)
(2.56623e-06 0 0)
(2.56623e-06 0 0)
(2.56622e-06 0 0)
(2.56622e-06 0 0)
(2.56621e-06 0 0)
(2.5662e-06 0 0)
(2.56619e-06 0 0)
(2.56619e-06 0 0)
(2.56618e-06 0 0)
(2.56616e-06 0 0)
(2.56615e-06 0 0)
(2.56614e-06 0 0)
(2.56613e-06 0 0)
(2.56611e-06 0 0)
(2.5661e-06 0 0)
(2.56608e-06 0 0)
(2.56607e-06 0 0)
(2.56605e-06 0 0)
(2.56603e-06 0 0)
(2.56601e-06 0 0)
(2.566e-06 0 0)
(2.56598e-06 0 0)
(2.56596e-06 0 0)
(2.56593e-06 0 0)
(2.56591e-06 0 0)
(2.56589e-06 0 0)
(2.56587e-06 0 0)
(2.56584e-06 0 0)
(2.56582e-06 0 0)
(2.56579e-06 0 0)
(2.56576e-06 0 0)
(2.56573e-06 0 0)
(2.56571e-06 0 0)
(2.56567e-06 0 0)
(2.56564e-06 0 0)
(2.56561e-06 0 0)
(2.56558e-06 0 0)
(2.56554e-06 0 0)
(2.5655e-06 0 0)
(2.56546e-06 0 0)
(2.56542e-06 0 0)
(2.56538e-06 0 0)
(2.56534e-06 0 0)
(2.56529e-06 0 0)
(2.56524e-06 0 0)
(2.56518e-06 0 0)
(2.56513e-06 0 0)
(2.56507e-06 0 0)
(2.56501e-06 0 0)
(2.56494e-06 0 0)
(2.56487e-06 0 0)
(2.5648e-06 0 0)
(2.56473e-06 0 0)
(2.56464e-06 0 0)
(2.56456e-06 0 0)
(2.56447e-06 0 0)
(2.56438e-06 0 0)
(2.56428e-06 0 0)
(2.56418e-06 0 0)
(2.56407e-06 0 0)
(2.56397e-06 0 0)
(2.56385e-06 0 0)
(2.56373e-06 0 0)
(2.56361e-06 0 0)
(2.56349e-06 0 0)
(2.56336e-06 0 0)
(2.56323e-06 0 0)
(2.56309e-06 0 0)
(2.56296e-06 0 0)
(2.56282e-06 0 0)
(2.56268e-06 0 0)
(2.56254e-06 0 0)
(2.5624e-06 0 0)
(2.56226e-06 0 0)
(2.56212e-06 0 0)
(2.56198e-06 0 0)
(2.56184e-06 0 0)
(2.56171e-06 0 0)
(2.56158e-06 0 0)
(2.56145e-06 0 0)
(2.56133e-06 0 0)
(2.56121e-06 0 0)
(2.5611e-06 0 0)
(2.561e-06 0 0)
(2.56091e-06 0 0)
(2.56082e-06 0 0)
(2.56074e-06 0 0)
(2.56067e-06 0 0)
(2.56062e-06 0 0)
(2.56057e-06 0 0)
(2.56053e-06 0 0)
(2.56051e-06 0 0)
(2.56049e-06 0 0)
(2.56049e-06 0 0)
(2.56049e-06 0 0)
(2.56049e-06 0 0)
(2.56051e-06 0 0)
(2.56055e-06 0 0)
(2.5606e-06 0 0)
(2.56067e-06 0 0)
(2.56074e-06 0 0)
(2.56083e-06 0 0)
(2.56092e-06 0 0)
(2.56102e-06 0 0)
(2.56113e-06 0 0)
(2.56124e-06 0 0)
(2.56136e-06 0 0)
(2.56149e-06 0 0)
(2.56162e-06 0 0)
(2.56175e-06 0 0)
(2.56189e-06 0 0)
(2.56202e-06 0 0)
(2.56216e-06 0 0)
(2.56229e-06 0 0)
(2.56243e-06 0 0)
(2.56256e-06 0 0)
(2.56269e-06 0 0)
(2.56282e-06 0 0)
(2.56294e-06 0 0)
(2.56306e-06 0 0)
(2.56318e-06 0 0)
(2.56329e-06 0 0)
(2.56339e-06 0 0)
(2.5635e-06 0 0)
(2.56359e-06 0 0)
(2.56368e-06 0 0)
(2.56377e-06 0 0)
(2.56385e-06 0 0)
(2.56393e-06 0 0)
(2.564e-06 0 0)
(2.56407e-06 0 0)
(2.56413e-06 0 0)
(2.56419e-06 0 0)
(2.56424e-06 0 0)
(2.5643e-06 0 0)
(2.56434e-06 0 0)
(2.56439e-06 0 0)
(2.56444e-06 0 0)
)
;

boundaryField
{
    inlet
    {
        type            fixedValue;
        value           uniform (1.13622e-05 0 0);
    }
    outlet
    {
        type            zeroGradient;
    }
    emptyWalls
    {
        type            empty;
    }
}


// ************************************************************************* //
