/*--------------------------------*- C++ -*----------------------------------*\
  =========                 |
  \\      /  F ield         | OpenFOAM: The Open Source CFD Toolbox
   \\    /   O peration     | Website:  https://openfoam.org
    \\  /    A nd           | Version:  9
     \\/     M anipulation  |
\*---------------------------------------------------------------------------*/
FoamFile
{
    format      ascii;
    class       volVectorField;
    location    "3100";
    object      Uc;
}
// * * * * * * * * * * * * * * * * * * * * * * * * * * * * * * * * * * * * * //

dimensions      [0 0 0 0 0 0 0];

internalField   nonuniform List<vector> 
1000
(
(6.29284e-10 0 0)
(3.69765e-09 0 0)
(1.38486e-08 0 0)
(5.85036e-08 0 0)
(1.47878e-07 0 0)
(2.1107e-07 0 0)
(2.27026e-07 0 0)
(2.35945e-07 0 0)
(2.43001e-07 0 0)
(2.50441e-07 0 0)
(2.62397e-07 0 0)
(2.81363e-07 0 0)
(3.05771e-07 0 0)
(3.33579e-07 0 0)
(3.63385e-07 0 0)
(3.9449e-07 0 0)
(4.26523e-07 0 0)
(4.59278e-07 0 0)
(4.92629e-07 0 0)
(5.26498e-07 0 0)
(5.60834e-07 0 0)
(5.95601e-07 0 0)
(6.30776e-07 0 0)
(6.66343e-07 0 0)
(7.02293e-07 0 0)
(7.38624e-07 0 0)
(7.75335e-07 0 0)
(8.12419e-07 0 0)
(8.49865e-07 0 0)
(8.87657e-07 0 0)
(9.25767e-07 0 0)
(9.64161e-07 0 0)
(1.0028e-06 0 0)
(1.04166e-06 0 0)
(1.0807e-06 0 0)
(1.1199e-06 0 0)
(1.15923e-06 0 0)
(1.1987e-06 0 0)
(1.2383e-06 0 0)
(1.27804e-06 0 0)
(1.31793e-06 0 0)
(1.35799e-06 0 0)
(1.39825e-06 0 0)
(1.43871e-06 0 0)
(1.4794e-06 0 0)
(1.52033e-06 0 0)
(1.56151e-06 0 0)
(1.60294e-06 0 0)
(1.64464e-06 0 0)
(1.68659e-06 0 0)
(1.72881e-06 0 0)
(1.77128e-06 0 0)
(1.81401e-06 0 0)
(1.857e-06 0 0)
(1.90025e-06 0 0)
(1.94376e-06 0 0)
(1.98753e-06 0 0)
(2.03155e-06 0 0)
(2.07584e-06 0 0)
(2.1204e-06 0 0)
(2.16523e-06 0 0)
(2.21033e-06 0 0)
(2.2557e-06 0 0)
(2.30137e-06 0 0)
(2.34732e-06 0 0)
(2.39357e-06 0 0)
(2.44013e-06 0 0)
(2.48699e-06 0 0)
(2.53417e-06 0 0)
(2.58168e-06 0 0)
(2.62951e-06 0 0)
(2.67769e-06 0 0)
(2.72621e-06 0 0)
(2.77509e-06 0 0)
(2.82433e-06 0 0)
(2.87395e-06 0 0)
(2.92395e-06 0 0)
(2.97435e-06 0 0)
(3.02515e-06 0 0)
(3.07637e-06 0 0)
(3.12802e-06 0 0)
(3.18011e-06 0 0)
(3.23266e-06 0 0)
(3.28568e-06 0 0)
(3.3392e-06 0 0)
(3.39322e-06 0 0)
(3.44776e-06 0 0)
(3.50285e-06 0 0)
(3.55851e-06 0 0)
(3.61474e-06 0 0)
(3.67158e-06 0 0)
(3.72904e-06 0 0)
(3.78715e-06 0 0)
(3.84594e-06 0 0)
(3.90543e-06 0 0)
(3.96566e-06 0 0)
(4.02666e-06 0 0)
(4.08845e-06 0 0)
(4.15108e-06 0 0)
(4.21457e-06 0 0)
(4.27897e-06 0 0)
(4.34429e-06 0 0)
(4.41059e-06 0 0)
(4.47789e-06 0 0)
(4.54622e-06 0 0)
(4.61559e-06 0 0)
(4.68603e-06 0 0)
(4.75752e-06 0 0)
(4.83003e-06 0 0)
(4.90345e-06 0 0)
(4.97765e-06 0 0)
(5.05241e-06 0 0)
(5.12746e-06 0 0)
(5.20255e-06 0 0)
(5.27754e-06 0 0)
(5.35276e-06 0 0)
(5.42946e-06 0 0)
(5.5108e-06 0 0)
(5.60334e-06 0 0)
(5.7193e-06 0 0)
(5.8791e-06 0 0)
(6.11262e-06 0 0)
(6.45434e-06 0 0)
(6.92582e-06 0 0)
(7.50726e-06 0 0)
(8.12285e-06 0 0)
(8.67149e-06 0 0)
(9.08502e-06 0 0)
(9.35562e-06 0 0)
(9.51523e-06 0 0)
(9.60324e-06 0 0)
(9.64982e-06 0 0)
(9.6739e-06 0 0)
(9.68615e-06 0 0)
(9.6923e-06 0 0)
(9.69536e-06 0 0)
(9.69685e-06 0 0)
(9.69754e-06 0 0)
(9.69782e-06 0 0)
(9.69789e-06 0 0)
(9.69785e-06 0 0)
(9.69775e-06 0 0)
(9.69761e-06 0 0)
(9.69746e-06 0 0)
(9.69729e-06 0 0)
(9.69711e-06 0 0)
(9.69693e-06 0 0)
(9.69674e-06 0 0)
(9.69655e-06 0 0)
(9.69636e-06 0 0)
(9.69617e-06 0 0)
(9.69598e-06 0 0)
(9.6958e-06 0 0)
(9.69561e-06 0 0)
(9.69542e-06 0 0)
(9.69525e-06 0 0)
(9.69507e-06 0 0)
(9.69491e-06 0 0)
(9.69474e-06 0 0)
(9.69458e-06 0 0)
(9.69443e-06 0 0)
(9.69428e-06 0 0)
(9.69413e-06 0 0)
(9.694e-06 0 0)
(9.69386e-06 0 0)
(9.69374e-06 0 0)
(9.69361e-06 0 0)
(9.69349e-06 0 0)
(9.69338e-06 0 0)
(9.69327e-06 0 0)
(9.69316e-06 0 0)
(9.69306e-06 0 0)
(9.69295e-06 0 0)
(9.69284e-06 0 0)
(9.69272e-06 0 0)
(9.69259e-06 0 0)
(9.69244e-06 0 0)
(9.69226e-06 0 0)
(9.69204e-06 0 0)
(9.69178e-06 0 0)
(9.69145e-06 0 0)
(9.69106e-06 0 0)
(9.6906e-06 0 0)
(9.69004e-06 0 0)
(9.68939e-06 0 0)
(9.68863e-06 0 0)
(9.68776e-06 0 0)
(9.68677e-06 0 0)
(9.68567e-06 0 0)
(9.68445e-06 0 0)
(9.68312e-06 0 0)
(9.68166e-06 0 0)
(9.6801e-06 0 0)
(9.67844e-06 0 0)
(9.67669e-06 0 0)
(9.67486e-06 0 0)
(9.67298e-06 0 0)
(9.67104e-06 0 0)
(9.66908e-06 0 0)
(9.66712e-06 0 0)
(9.66517e-06 0 0)
(9.66327e-06 0 0)
(9.66144e-06 0 0)
(9.65972e-06 0 0)
(9.65813e-06 0 0)
(9.65672e-06 0 0)
(9.65552e-06 0 0)
(9.65457e-06 0 0)
(9.65389e-06 0 0)
(9.65351e-06 0 0)
(9.65337e-06 0 0)
(9.65334e-06 0 0)
(9.65345e-06 0 0)
(9.65405e-06 0 0)
(9.65527e-06 0 0)
(9.65691e-06 0 0)
(9.65888e-06 0 0)
(9.66116e-06 0 0)
(9.66369e-06 0 0)
(9.66645e-06 0 0)
(9.66936e-06 0 0)
(9.67237e-06 0 0)
(9.67542e-06 0 0)
(9.67845e-06 0 0)
(9.68139e-06 0 0)
(9.6842e-06 0 0)
(9.68682e-06 0 0)
(9.68922e-06 0 0)
(9.69138e-06 0 0)
(9.69327e-06 0 0)
(9.69489e-06 0 0)
(9.69623e-06 0 0)
(9.6973e-06 0 0)
(9.69812e-06 0 0)
(9.6987e-06 0 0)
(9.69906e-06 0 0)
(9.69923e-06 0 0)
(9.69929e-06 0 0)
(9.6993e-06 0 0)
(9.69919e-06 0 0)
(9.69884e-06 0 0)
(9.69836e-06 0 0)
(9.69784e-06 0 0)
(9.69729e-06 0 0)
(9.69673e-06 0 0)
(9.69618e-06 0 0)
(9.69565e-06 0 0)
(9.69514e-06 0 0)
(9.69466e-06 0 0)
(9.69423e-06 0 0)
(9.69384e-06 0 0)
(9.69349e-06 0 0)
(9.69319e-06 0 0)
(9.69294e-06 0 0)
(9.69273e-06 0 0)
(9.69257e-06 0 0)
(9.69244e-06 0 0)
(9.69235e-06 0 0)
(9.6923e-06 0 0)
(9.69228e-06 0 0)
(9.69227e-06 0 0)
(9.69227e-06 0 0)
(9.69229e-06 0 0)
(9.69235e-06 0 0)
(9.69245e-06 0 0)
(9.69255e-06 0 0)
(9.69267e-06 0 0)
(9.6928e-06 0 0)
(9.69293e-06 0 0)
(9.69308e-06 0 0)
(9.69322e-06 0 0)
(9.69337e-06 0 0)
(9.69353e-06 0 0)
(9.69369e-06 0 0)
(9.69385e-06 0 0)
(9.69402e-06 0 0)
(9.69419e-06 0 0)
(9.69436e-06 0 0)
(9.69452e-06 0 0)
(9.69469e-06 0 0)
(9.69486e-06 0 0)
(9.69503e-06 0 0)
(9.69519e-06 0 0)
(9.69536e-06 0 0)
(9.69552e-06 0 0)
(9.69568e-06 0 0)
(9.69583e-06 0 0)
(9.69598e-06 0 0)
(9.69613e-06 0 0)
(9.69627e-06 0 0)
(9.69641e-06 0 0)
(9.69655e-06 0 0)
(9.69668e-06 0 0)
(9.6968e-06 0 0)
(9.69692e-06 0 0)
(9.69704e-06 0 0)
(9.69715e-06 0 0)
(9.69725e-06 0 0)
(9.69735e-06 0 0)
(9.69744e-06 0 0)
(9.69753e-06 0 0)
(9.69761e-06 0 0)
(9.69768e-06 0 0)
(9.69774e-06 0 0)
(9.69779e-06 0 0)
(9.69784e-06 0 0)
(9.69787e-06 0 0)
(9.69789e-06 0 0)
(9.6979e-06 0 0)
(9.69791e-06 0 0)
(9.69791e-06 0 0)
(9.6979e-06 0 0)
(9.69788e-06 0 0)
(9.69783e-06 0 0)
(9.69777e-06 0 0)
(9.6977e-06 0 0)
(9.69762e-06 0 0)
(9.69753e-06 0 0)
(9.69742e-06 0 0)
(9.69731e-06 0 0)
(9.6972e-06 0 0)
(9.69707e-06 0 0)
(9.69694e-06 0 0)
(9.69681e-06 0 0)
(9.69667e-06 0 0)
(9.69653e-06 0 0)
(9.69639e-06 0 0)
(9.69625e-06 0 0)
(9.69612e-06 0 0)
(9.69598e-06 0 0)
(9.69586e-06 0 0)
(9.69573e-06 0 0)
(9.69562e-06 0 0)
(9.69551e-06 0 0)
(9.69541e-06 0 0)
(9.69532e-06 0 0)
(9.69524e-06 0 0)
(9.69517e-06 0 0)
(9.69512e-06 0 0)
(9.69508e-06 0 0)
(9.69505e-06 0 0)
(9.69504e-06 0 0)
(9.69503e-06 0 0)
(9.69503e-06 0 0)
(9.69504e-06 0 0)
(9.69506e-06 0 0)
(9.69511e-06 0 0)
(9.69517e-06 0 0)
(9.69525e-06 0 0)
(9.69533e-06 0 0)
(9.69543e-06 0 0)
(9.69552e-06 0 0)
(9.69563e-06 0 0)
(9.69574e-06 0 0)
(9.69585e-06 0 0)
(9.69597e-06 0 0)
(9.69608e-06 0 0)
(9.69619e-06 0 0)
(9.6963e-06 0 0)
(9.6964e-06 0 0)
(9.69649e-06 0 0)
(9.69658e-06 0 0)
(9.69666e-06 0 0)
(9.69672e-06 0 0)
(9.69678e-06 0 0)
(9.69682e-06 0 0)
(9.69685e-06 0 0)
(9.69687e-06 0 0)
(9.69688e-06 0 0)
(9.69688e-06 0 0)
(9.69688e-06 0 0)
(9.69685e-06 0 0)
(9.6968e-06 0 0)
(9.69673e-06 0 0)
(9.69664e-06 0 0)
(9.69654e-06 0 0)
(9.69642e-06 0 0)
(9.69628e-06 0 0)
(9.69613e-06 0 0)
(9.69595e-06 0 0)
(9.69574e-06 0 0)
(9.69552e-06 0 0)
(9.69526e-06 0 0)
(9.69498e-06 0 0)
(9.69466e-06 0 0)
(9.69431e-06 0 0)
(9.69391e-06 0 0)
(9.69348e-06 0 0)
(9.693e-06 0 0)
(9.69246e-06 0 0)
(9.69188e-06 0 0)
(9.69124e-06 0 0)
(9.69054e-06 0 0)
(9.68979e-06 0 0)
(9.68896e-06 0 0)
(9.68808e-06 0 0)
(9.68713e-06 0 0)
(9.68612e-06 0 0)
(9.68506e-06 0 0)
(9.68393e-06 0 0)
(9.68275e-06 0 0)
(9.68151e-06 0 0)
(9.68023e-06 0 0)
(9.67891e-06 0 0)
(9.67756e-06 0 0)
(9.67618e-06 0 0)
(9.6748e-06 0 0)
(9.67342e-06 0 0)
(9.67206e-06 0 0)
(9.67074e-06 0 0)
(9.66946e-06 0 0)
(9.66826e-06 0 0)
(9.66715e-06 0 0)
(9.66616e-06 0 0)
(9.66531e-06 0 0)
(9.66462e-06 0 0)
(9.66413e-06 0 0)
(9.66384e-06 0 0)
(9.66373e-06 0 0)
(9.66372e-06 0 0)
(9.6638e-06 0 0)
(9.66423e-06 0 0)
(9.66515e-06 0 0)
(9.66644e-06 0 0)
(9.66805e-06 0 0)
(9.66996e-06 0 0)
(9.67216e-06 0 0)
(9.67462e-06 0 0)
(9.67729e-06 0 0)
(9.68016e-06 0 0)
(9.68316e-06 0 0)
(9.68625e-06 0 0)
(9.68938e-06 0 0)
(9.69248e-06 0 0)
(9.69552e-06 0 0)
(9.69844e-06 0 0)
(9.70121e-06 0 0)
(9.70378e-06 0 0)
(9.70614e-06 0 0)
(9.70825e-06 0 0)
(9.71012e-06 0 0)
(9.71172e-06 0 0)
(9.71306e-06 0 0)
(9.71415e-06 0 0)
(9.715e-06 0 0)
(9.71561e-06 0 0)
(9.716e-06 0 0)
(9.7162e-06 0 0)
(9.71627e-06 0 0)
(9.71627e-06 0 0)
(9.71619e-06 0 0)
(9.71588e-06 0 0)
(9.71534e-06 0 0)
(9.71474e-06 0 0)
(9.71408e-06 0 0)
(9.71339e-06 0 0)
(9.71268e-06 0 0)
(9.71196e-06 0 0)
(9.71124e-06 0 0)
(9.71053e-06 0 0)
(9.70985e-06 0 0)
(9.7092e-06 0 0)
(9.70858e-06 0 0)
(9.708e-06 0 0)
(9.70747e-06 0 0)
(9.70697e-06 0 0)
(9.70653e-06 0 0)
(9.70613e-06 0 0)
(9.70577e-06 0 0)
(9.70546e-06 0 0)
(9.70519e-06 0 0)
(9.70496e-06 0 0)
(9.70476e-06 0 0)
(9.70459e-06 0 0)
(9.70446e-06 0 0)
(9.70435e-06 0 0)
(9.70427e-06 0 0)
(9.7042e-06 0 0)
(9.70416e-06 0 0)
(9.70413e-06 0 0)
(9.70412e-06 0 0)
(9.70412e-06 0 0)
(9.70412e-06 0 0)
(9.70412e-06 0 0)
(9.70414e-06 0 0)
(9.70415e-06 0 0)
(9.70418e-06 0 0)
(9.70422e-06 0 0)
(9.70426e-06 0 0)
(9.7043e-06 0 0)
(9.70435e-06 0 0)
(9.70441e-06 0 0)
(9.70447e-06 0 0)
(9.70453e-06 0 0)
(9.7046e-06 0 0)
(9.70467e-06 0 0)
(9.70475e-06 0 0)
(9.70483e-06 0 0)
(9.70493e-06 0 0)
(9.70503e-06 0 0)
(9.70514e-06 0 0)
(9.70526e-06 0 0)
(9.70539e-06 0 0)
(9.70554e-06 0 0)
(9.7057e-06 0 0)
(9.70588e-06 0 0)
(9.70606e-06 0 0)
(9.70624e-06 0 0)
(9.70644e-06 0 0)
(9.70664e-06 0 0)
(9.70689e-06 0 0)
(9.70734e-06 0 0)
(9.71082e-06 0 0)
(9.72577e-06 0 0)
(9.80314e-06 0 0)
(1.04025e-05 0 0)
(1.10395e-05 0 0)
(1.11433e-05 0 0)
(1.11437e-05 0 0)
(1.11437e-05 0 0)
(1.11437e-05 0 0)
(1.11437e-05 0 0)
(1.11437e-05 0 0)
(1.11437e-05 0 0)
(1.11437e-05 0 0)
(1.11437e-05 0 0)
(1.11437e-05 0 0)
(1.11437e-05 0 0)
(1.11437e-05 0 0)
(1.11437e-05 0 0)
(1.11437e-05 0 0)
(1.11437e-05 0 0)
(1.11437e-05 0 0)
(1.11437e-05 0 0)
(1.11437e-05 0 0)
(1.11437e-05 0 0)
(1.11437e-05 0 0)
(1.11437e-05 0 0)
(1.11437e-05 0 0)
(1.11437e-05 0 0)
(1.11437e-05 0 0)
(1.11437e-05 0 0)
(1.11437e-05 0 0)
(1.11437e-05 0 0)
(1.11437e-05 0 0)
(1.11437e-05 0 0)
(1.11437e-05 0 0)
(1.11437e-05 0 0)
(1.11437e-05 0 0)
(1.11437e-05 0 0)
(1.11437e-05 0 0)
(1.11437e-05 0 0)
(1.11437e-05 0 0)
(1.11437e-05 0 0)
(1.11437e-05 0 0)
(1.11437e-05 0 0)
(1.11437e-05 0 0)
(1.11437e-05 0 0)
(1.11437e-05 0 0)
(1.11437e-05 0 0)
(1.11437e-05 0 0)
(1.11437e-05 0 0)
(1.11437e-05 0 0)
(1.11437e-05 0 0)
(1.11437e-05 0 0)
(1.11437e-05 0 0)
(1.11437e-05 0 0)
(1.11437e-05 0 0)
(1.11437e-05 0 0)
(1.11437e-05 0 0)
(1.11437e-05 0 0)
(1.11437e-05 0 0)
(1.11437e-05 0 0)
(1.11437e-05 0 0)
(1.11437e-05 0 0)
(1.11437e-05 0 0)
(1.11437e-05 0 0)
(1.11437e-05 0 0)
(1.11437e-05 0 0)
(1.11437e-05 0 0)
(1.11437e-05 0 0)
(1.11437e-05 0 0)
(1.11437e-05 0 0)
(1.11437e-05 0 0)
(1.11437e-05 0 0)
(1.11437e-05 0 0)
(1.11437e-05 0 0)
(1.11437e-05 0 0)
(1.11437e-05 0 0)
(1.11437e-05 0 0)
(1.11437e-05 0 0)
(1.11437e-05 0 0)
(1.11437e-05 0 0)
(1.11437e-05 0 0)
(1.11437e-05 0 0)
(1.11437e-05 0 0)
(1.11437e-05 0 0)
(1.11437e-05 0 0)
(1.11437e-05 0 0)
(1.11437e-05 0 0)
(1.11437e-05 0 0)
(1.11437e-05 0 0)
(1.11437e-05 0 0)
(1.11437e-05 0 0)
(1.11437e-05 0 0)
(1.11437e-05 0 0)
(1.11437e-05 0 0)
(1.11437e-05 0 0)
(1.11437e-05 0 0)
(1.11437e-05 0 0)
(1.11437e-05 0 0)
(1.11437e-05 0 0)
(1.11437e-05 0 0)
(1.11437e-05 0 0)
(1.11437e-05 0 0)
(1.11437e-05 0 0)
(1.11437e-05 0 0)
(1.11437e-05 0 0)
(1.11437e-05 0 0)
(1.11437e-05 0 0)
(1.11437e-05 0 0)
(1.11437e-05 0 0)
(1.11437e-05 0 0)
(1.11437e-05 0 0)
(1.11437e-05 0 0)
(1.11437e-05 0 0)
(1.11437e-05 0 0)
(1.11437e-05 0 0)
(1.11437e-05 0 0)
(1.11437e-05 0 0)
(1.11437e-05 0 0)
(1.11437e-05 0 0)
(1.11437e-05 0 0)
(1.11437e-05 0 0)
(1.11437e-05 0 0)
(1.11437e-05 0 0)
(1.11437e-05 0 0)
(1.11437e-05 0 0)
(1.11437e-05 0 0)
(1.11437e-05 0 0)
(1.11437e-05 0 0)
(1.11437e-05 0 0)
(1.11437e-05 0 0)
(1.11437e-05 0 0)
(1.11437e-05 0 0)
(1.11437e-05 0 0)
(1.11437e-05 0 0)
(1.11437e-05 0 0)
(1.11437e-05 0 0)
(1.11437e-05 0 0)
(1.11437e-05 0 0)
(1.11437e-05 0 0)
(1.11437e-05 0 0)
(1.11437e-05 0 0)
(1.11437e-05 0 0)
(1.11437e-05 0 0)
(1.11437e-05 0 0)
(1.11437e-05 0 0)
(1.11437e-05 0 0)
(1.11437e-05 0 0)
(1.11437e-05 0 0)
(1.11437e-05 0 0)
(1.11437e-05 0 0)
(1.11437e-05 0 0)
(1.11437e-05 0 0)
(1.11437e-05 0 0)
(1.11437e-05 0 0)
(1.11437e-05 0 0)
(1.11437e-05 0 0)
(1.11437e-05 0 0)
(1.11437e-05 0 0)
(1.11437e-05 0 0)
(1.11437e-05 0 0)
(1.11437e-05 0 0)
(1.11437e-05 0 0)
(1.11437e-05 0 0)
(1.11437e-05 0 0)
(1.11437e-05 0 0)
(1.11437e-05 0 0)
(1.11437e-05 0 0)
(1.11437e-05 0 0)
(1.11437e-05 0 0)
(1.11437e-05 0 0)
(1.11437e-05 0 0)
(1.11437e-05 0 0)
(1.11437e-05 0 0)
(1.11437e-05 0 0)
(1.11437e-05 0 0)
(1.11437e-05 0 0)
(1.11437e-05 0 0)
(1.11437e-05 0 0)
(1.11437e-05 0 0)
(1.11437e-05 0 0)
(1.11437e-05 0 0)
(1.11437e-05 0 0)
(1.11437e-05 0 0)
(1.11437e-05 0 0)
(1.11437e-05 0 0)
(1.11437e-05 0 0)
(1.11437e-05 0 0)
(1.11437e-05 0 0)
(1.11437e-05 0 0)
(1.11437e-05 0 0)
(1.11437e-05 0 0)
(1.11437e-05 0 0)
(1.11437e-05 0 0)
(1.11437e-05 0 0)
(1.11437e-05 0 0)
(1.11437e-05 0 0)
(1.11437e-05 0 0)
(1.11437e-05 0 0)
(1.11437e-05 0 0)
(1.11437e-05 0 0)
(1.11437e-05 0 0)
(1.11437e-05 0 0)
(1.11437e-05 0 0)
(1.11437e-05 0 0)
(1.11437e-05 0 0)
(1.11437e-05 0 0)
(1.11437e-05 0 0)
(1.11437e-05 0 0)
(1.11437e-05 0 0)
(1.11437e-05 0 0)
(1.11437e-05 0 0)
(1.11437e-05 0 0)
(1.11437e-05 0 0)
(1.11437e-05 0 0)
(1.11437e-05 0 0)
(1.11437e-05 0 0)
(1.11437e-05 0 0)
(1.11437e-05 0 0)
(1.11437e-05 0 0)
(1.11437e-05 0 0)
(1.11437e-05 0 0)
(1.11437e-05 0 0)
(1.11437e-05 0 0)
(1.11437e-05 0 0)
(1.11437e-05 0 0)
(1.11437e-05 0 0)
(1.11437e-05 0 0)
(1.11437e-05 0 0)
(1.11437e-05 0 0)
(1.11437e-05 0 0)
(1.11437e-05 0 0)
(1.11437e-05 0 0)
(1.11437e-05 0 0)
(1.11437e-05 0 0)
(1.11437e-05 0 0)
(1.11437e-05 0 0)
(1.11437e-05 0 0)
(1.11437e-05 0 0)
(1.11437e-05 0 0)
(1.11437e-05 0 0)
(1.11437e-05 0 0)
(1.11437e-05 0 0)
(1.11437e-05 0 0)
(1.11437e-05 0 0)
(1.11437e-05 0 0)
(1.11437e-05 0 0)
(1.11437e-05 0 0)
(1.11437e-05 0 0)
(1.11437e-05 0 0)
(1.11437e-05 0 0)
(1.11437e-05 0 0)
(1.11437e-05 0 0)
(1.11437e-05 0 0)
(1.11437e-05 0 0)
(1.11437e-05 0 0)
(1.11437e-05 0 0)
(1.11437e-05 0 0)
(1.11437e-05 0 0)
(1.11437e-05 0 0)
(1.11437e-05 0 0)
(1.11437e-05 0 0)
(1.11437e-05 0 0)
(1.11437e-05 0 0)
(1.11437e-05 0 0)
(1.11437e-05 0 0)
(1.11437e-05 0 0)
(1.11437e-05 0 0)
(1.11437e-05 0 0)
(1.11437e-05 0 0)
(1.11437e-05 0 0)
(1.11437e-05 0 0)
(1.11437e-05 0 0)
(1.11437e-05 0 0)
(1.11437e-05 0 0)
(1.11437e-05 0 0)
(1.11437e-05 0 0)
(1.11437e-05 0 0)
(1.11437e-05 0 0)
(1.11437e-05 0 0)
(1.11437e-05 0 0)
(1.11437e-05 0 0)
(1.11437e-05 0 0)
(1.11437e-05 0 0)
(1.11437e-05 0 0)
(1.11437e-05 0 0)
(1.11437e-05 0 0)
(1.11437e-05 0 0)
(1.11437e-05 0 0)
(1.11437e-05 0 0)
(1.11437e-05 0 0)
(1.11437e-05 0 0)
(1.11437e-05 0 0)
(1.11437e-05 0 0)
(1.11437e-05 0 0)
(1.11437e-05 0 0)
(1.11437e-05 0 0)
(1.11437e-05 0 0)
(1.11437e-05 0 0)
(1.11437e-05 0 0)
(1.11437e-05 0 0)
(1.11437e-05 0 0)
(1.11437e-05 0 0)
(1.11437e-05 0 0)
(1.11437e-05 0 0)
(1.11437e-05 0 0)
(1.11437e-05 0 0)
(1.11437e-05 0 0)
(1.11437e-05 0 0)
(1.11437e-05 0 0)
(1.11437e-05 0 0)
(1.11437e-05 0 0)
(1.11437e-05 0 0)
(1.11437e-05 0 0)
(1.11437e-05 0 0)
(1.11437e-05 0 0)
(1.11437e-05 0 0)
(1.11437e-05 0 0)
(1.11437e-05 0 0)
(1.11437e-05 0 0)
(1.11437e-05 0 0)
(1.11437e-05 0 0)
(1.11437e-05 0 0)
(1.11437e-05 0 0)
(1.11437e-05 0 0)
(1.11437e-05 0 0)
(1.11437e-05 0 0)
(1.11437e-05 0 0)
(1.11437e-05 0 0)
(1.11437e-05 0 0)
(1.11437e-05 0 0)
(1.11437e-05 0 0)
(1.11437e-05 0 0)
(1.11437e-05 0 0)
(1.11437e-05 0 0)
(1.11437e-05 0 0)
(1.11437e-05 0 0)
(1.11437e-05 0 0)
(1.11437e-05 0 0)
(1.11437e-05 0 0)
(1.11437e-05 0 0)
(1.11437e-05 0 0)
(1.11437e-05 0 0)
(1.11437e-05 0 0)
(1.11437e-05 0 0)
(1.11437e-05 0 0)
(1.11437e-05 0 0)
(1.11437e-05 0 0)
(1.11437e-05 0 0)
(1.11437e-05 0 0)
(1.11437e-05 0 0)
(1.11437e-05 0 0)
(1.11437e-05 0 0)
(1.11437e-05 0 0)
(1.11437e-05 0 0)
(1.11437e-05 0 0)
(1.11437e-05 0 0)
(1.11437e-05 0 0)
(1.11437e-05 0 0)
(1.11437e-05 0 0)
(1.11437e-05 0 0)
(1.11437e-05 0 0)
(1.11437e-05 0 0)
(1.11437e-05 0 0)
(1.11437e-05 0 0)
(1.11437e-05 0 0)
(1.11437e-05 0 0)
(1.11437e-05 0 0)
(1.11437e-05 0 0)
(1.11437e-05 0 0)
(1.11437e-05 0 0)
(1.11437e-05 0 0)
(1.11437e-05 0 0)
(1.11437e-05 0 0)
(1.11437e-05 0 0)
(1.11437e-05 0 0)
(1.11437e-05 0 0)
(1.11437e-05 0 0)
(1.11437e-05 0 0)
(1.11437e-05 0 0)
(1.11437e-05 0 0)
(1.11437e-05 0 0)
(1.11437e-05 0 0)
(1.11437e-05 0 0)
(1.11437e-05 0 0)
(1.11437e-05 0 0)
(1.11437e-05 0 0)
(1.11437e-05 0 0)
(1.11437e-05 0 0)
(1.11437e-05 0 0)
(1.11437e-05 0 0)
(1.11437e-05 0 0)
(1.11437e-05 0 0)
(1.11437e-05 0 0)
(1.11437e-05 0 0)
(1.11437e-05 0 0)
(1.11437e-05 0 0)
(1.11437e-05 0 0)
(1.11437e-05 0 0)
(1.11437e-05 0 0)
(1.11437e-05 0 0)
(1.11437e-05 0 0)
(1.11437e-05 0 0)
(1.11437e-05 0 0)
(1.11437e-05 0 0)
(1.11437e-05 0 0)
(1.11437e-05 0 0)
(1.11437e-05 0 0)
(1.11437e-05 0 0)
(1.11437e-05 0 0)
(1.11437e-05 0 0)
(1.11437e-05 0 0)
(1.11437e-05 0 0)
(1.11437e-05 0 0)
(1.11437e-05 0 0)
(1.11437e-05 0 0)
(1.11437e-05 0 0)
(1.11437e-05 0 0)
(1.11437e-05 0 0)
(1.11437e-05 0 0)
(1.11437e-05 0 0)
(1.11437e-05 0 0)
(1.11437e-05 0 0)
(1.11437e-05 0 0)
(1.11437e-05 0 0)
(1.11437e-05 0 0)
(1.11437e-05 0 0)
(1.11437e-05 0 0)
(1.11437e-05 0 0)
(1.11437e-05 0 0)
(1.11437e-05 0 0)
(1.11437e-05 0 0)
(1.11437e-05 0 0)
(1.11437e-05 0 0)
(1.11437e-05 0 0)
(1.11437e-05 0 0)
(1.11437e-05 0 0)
(1.11437e-05 0 0)
(1.11437e-05 0 0)
(1.11437e-05 0 0)
(1.11437e-05 0 0)
(1.11437e-05 0 0)
(1.11437e-05 0 0)
(1.11437e-05 0 0)
(1.11437e-05 0 0)
(1.11437e-05 0 0)
(1.11437e-05 0 0)
(1.11437e-05 0 0)
(1.11437e-05 0 0)
(1.11437e-05 0 0)
(1.11437e-05 0 0)
(1.11437e-05 0 0)
(1.11437e-05 0 0)
(1.11437e-05 0 0)
(1.11437e-05 0 0)
(1.11437e-05 0 0)
(1.11437e-05 0 0)
(1.11437e-05 0 0)
(1.11437e-05 0 0)
(1.11437e-05 0 0)
(1.11437e-05 0 0)
(1.11437e-05 0 0)
(1.11437e-05 0 0)
(1.11437e-05 0 0)
(1.11437e-05 0 0)
(1.11437e-05 0 0)
(1.11437e-05 0 0)
(1.11437e-05 0 0)
(1.11437e-05 0 0)
(1.11437e-05 0 0)
(1.11437e-05 0 0)
(1.11437e-05 0 0)
(1.11437e-05 0 0)
(1.11437e-05 0 0)
(1.11437e-05 0 0)
(1.11437e-05 0 0)
(1.11437e-05 0 0)
(1.11437e-05 0 0)
(1.11437e-05 0 0)
(1.11437e-05 0 0)
(1.11437e-05 0 0)
(1.11437e-05 0 0)
(1.11437e-05 0 0)
(1.11437e-05 0 0)
(1.11437e-05 0 0)
(1.11437e-05 0 0)
(1.11437e-05 0 0)
(1.11437e-05 0 0)
)
;

boundaryField
{
    inlet
    {
        type            fixedValue;
        value           uniform (0 0 0);
    }
    outlet
    {
        type            zeroGradient;
    }
    emptyWalls
    {
        type            empty;
    }
}


// ************************************************************************* //
