/*--------------------------------*- C++ -*----------------------------------*\
  =========                 |
  \\      /  F ield         | OpenFOAM: The Open Source CFD Toolbox
   \\    /   O peration     | Website:  https://openfoam.org
    \\  /    A nd           | Version:  9
     \\/     M anipulation  |
\*---------------------------------------------------------------------------*/
FoamFile
{
    format      ascii;
    class       volScalarField;
    location    "7750";
    object      p;
}
// * * * * * * * * * * * * * * * * * * * * * * * * * * * * * * * * * * * * * //

dimensions      [0 0 0 0 0 0 0];

internalField   nonuniform List<scalar> 
1000
(
243822
243401
242986
242577
242175
241778
241385
240997
240617
240259
239967
239831
239737
239650
239566
239482
239399
239317
239235
239153
239072
238990
238908
238827
238745
238663
238582
238500
238417
238334
238251
238167
238082
237997
237911
237824
237736
237647
237558
237468
237377
237285
237192
237099
237005
236910
236815
236718
236621
236524
236425
236326
236226
236125
236024
235922
235819
235716
235611
235506
235401
235295
235188
235080
234972
234863
234753
234643
234532
234420
234308
234195
234082
233967
233852
233737
233621
233504
233387
233269
233150
233031
232911
232790
232669
232547
232425
232302
232179
232055
231930
231805
231679
231552
231425
231298
231170
231041
230912
230782
230651
230520
230389
230256
230124
229990
229856
229722
229586
229450
229314
229177
229040
228901
228763
228623
228483
228343
228202
228060
227918
227775
227632
227488
227344
227199
227053
226907
226761
226614
226466
226318
226169
226020
225870
225720
225569
225418
225266
225113
224960
224807
224652
224498
224343
224187
224031
223874
223717
223559
223400
223241
223082
222922
222762
222601
222439
222277
222115
221951
221788
221624
221459
221294
221128
220962
220795
220628
220460
220292
220123
219954
219784
219613
219443
219271
219099
218927
218754
218580
218406
218232
218057
217882
217705
217529
217352
217174
216996
216818
216639
216459
216279
216099
215917
215736
215554
215371
215188
215004
214820
214636
214451
214265
214079
213892
213705
213517
213329
213141
212951
212762
212571
212381
212190
211998
211806
211613
211420
211226
211032
210837
210642
210446
210250
210053
209856
209658
209460
209261
209062
208862
208661
208461
208259
208057
207855
207652
207449
207245
207041
206836
206630
206424
206218
206011
205804
205596
205387
205178
204969
204759
204548
204338
204126
203914
203702
203489
203275
203061
202846
202631
202416
202200
201983
201766
201548
201330
201111
200891
200671
200451
200230
200008
199786
199563
199340
199115
198891
198666
198440
198213
197986
197759
197531
197302
197073
196843
196612
196381
196150
195918
195685
195452
195218
194984
194750
194515
194280
194044
193808
193572
193336
193099
192862
192624
192385
192145
191903
191656
191405
191147
190883
190613
190340
190064
189787
189510
189232
188955
188677
188400
188122
187844
187566
187289
187011
186733
186456
186178
185900
185622
185345
185067
184789
184511
184233
183956
183678
183400
183122
182845
182567
182289
182011
181733
181456
181178
180900
180622
180344
180066
179789
179511
179233
178955
178677
178399
178121
177844
177566
177288
177010
176732
176454
176176
175898
175621
175343
175065
174787
174509
174231
173953
173675
173397
173119
172842
172564
172286
172008
171730
171452
171174
170896
170618
170341
170063
169785
169507
169229
168951
168673
168395
168118
167840
167562
167284
167006
166728
166451
166173
165895
165617
165339
165061
164784
164506
164228
163950
163672
163394
163117
162839
162561
162283
162006
161728
161450
161172
160894
160617
160339
160061
159783
159506
159228
158950
158672
158395
158117
157839
157562
157284
157006
156729
156451
156173
155896
155618
155340
155063
154785
154507
154230
153952
153675
153397
153120
152842
152565
152287
152010
151732
151455
151178
150900
150623
150346
150068
149791
149514
149237
148959
148682
148405
148128
147851
147574
147296
147019
146742
146465
146188
145911
145633
145356
145079
144802
144524
144247
143970
143693
143415
143138
142861
142583
142306
142028
141751
141473
141196
140918
140641
140363
140086
139808
139531
139253
138975
138698
138420
138142
137865
137587
137309
137032
136754
136477
136199
135921
135644
135366
135088
134811
134533
134255
133978
133700
133422
133145
132867
132589
132312
132034
131756
131479
131201
130923
130646
130368
130090
129812
129535
129257
128979
128702
128424
128146
127868
127591
127313
127035
126758
126480
126202
125924
125646
125369
125091
124813
124535
124258
123980
123702
123424
123146
122869
122591
122313
122035
121757
121480
121202
120924
120646
120368
120090
119813
119535
119257
118979
118701
118423
118145
117868
117590
117312
117034
116756
116478
116201
115923
115645
115367
115089
114811
114533
114255
113978
113700
113422
113144
112866
112588
112310
112033
111755
111477
111199
110921
110643
110365
110088
109810
109532
109254
108976
108698
108421
108143
107865
107587
107309
107031
106754
106476
106198
105920
105642
105365
105087
104809
104531
104253
103976
103698
103420
103142
102865
102587
102309
102031
101754
101476
101198
100920
100643
100365
100087
99809.5
99531.8
99254.1
98976.4
98698.7
98421.1
98143.4
97865.8
97588.1
97310.5
97032.9
96755.2
96477.6
96200.1
95922.5
95644.9
95367.4
95089.8
94812.3
94534.8
94257.3
93979.9
93702.4
93425
93147.6
92870.2
92592.8
92315.4
92038.1
91760.7
91483.4
91206.1
90928.8
90651.5
90374.2
90097
89819.7
89542.4
89265.2
88988
88710.7
88433.5
88156.2
87879
87601.8
87324.5
87047.3
86770
86492.7
86215.4
85938.1
85660.8
85383.5
85106.1
84828.8
84551.4
84274
83996.5
83719.1
83441.6
83164.2
82886.7
82609.2
82331.6
82054.1
81776.5
81499
81221.4
80943.8
80666.2
80388.6
80110.9
79833.3
79555.7
79278
79000.4
78722.7
78445.1
78167.4
77889.8
77612.1
77334.5
77056.8
76779.1
76501.5
76223.8
75946.1
75668.5
75390.8
75113.1
74835.5
74557.8
74280.1
74002.5
73724.8
73447.1
73169.4
72891.7
72614.1
72336.4
72058.7
71781
71503.3
71225.6
70947.9
70670.2
70392.5
70114.8
69837.1
69559.4
69281.6
69003.9
68726.2
68448.4
68170.7
67892.9
67615.2
67337.4
67059.7
66781.9
66504.1
66226.4
65948.6
65670.8
65393
65115.2
64837.4
64559.6
64281.8
64004
63726.2
63448.4
63170.6
62892.7
62614.9
62337.1
62059.2
61781.4
61503.6
61225.7
60947.9
60670
60392.2
60114.3
59836.5
59558.6
59280.8
59002.9
58725
58447.2
58169.3
57891.4
57613.6
57335.7
57057.8
56780
56502.1
56224.2
55946.3
55668.4
55390.6
55112.7
54834.8
54556.9
54279.1
54001.2
53723.3
53445.4
53167.5
52889.7
52611.8
52333.9
52056
51778.1
51500.3
51222.4
50944.5
50666.7
50388.8
50110.9
49833
49555.2
49277.3
48999.5
48721.6
48443.7
48165.9
47888
47610.2
47332.4
47054.5
46776.7
46498.8
46221
45943.2
45665.4
45387.6
45109.7
44831.9
44554.1
44276.3
43998.5
43720.7
43443
43165.2
42887.4
42609.7
42331.9
42054.1
41776.4
41498.7
41220.9
40943.2
40665.5
40387.8
40110.1
39832.4
39554.7
39277.1
38999.4
38721.8
38444.1
38166.5
37888.9
37611.3
37333.7
37056.2
36778.6
36501.1
36223.6
35946
35668.5
35391.1
35113.6
34836.2
34558.7
34281.3
34003.9
33726.5
33449.1
33171.8
32894.4
32617.1
32339.8
32062.5
31785.2
31507.9
31230.6
30953.3
30676
30398.8
30121.5
29844.3
29567
29289.7
29012.5
28735.2
28458
28180.7
27903.4
27626.2
27348.9
27071.6
26794.3
26516.9
26239.6
25962.3
25684.9
25407.5
25130.1
24852.7
24575.3
24297.9
24020.4
23743
23465.5
23188
22910.5
22633
22355.4
22077.9
21800.3
21522.8
21245.2
20967.6
20690
20412.4
20134.8
19857.2
19579.6
19302
19024.4
18746.8
18469.1
18191.5
17913.9
17636.2
17358.6
17081
16803.3
16525.7
16248
15970.4
15692.7
15415.1
15137.4
14859.8
14582.1
14304.5
14026.8
13749.2
13471.5
13193.8
12916.1
12638.5
12360.8
12083.1
11805.4
11527.7
11250.1
10972.4
10694.7
10417
10139.3
9861.55
9583.83
9306.11
9028.39
8750.66
8472.92
8195.19
7917.44
7639.7
7361.94
7084.19
6806.42
6528.66
6250.89
5973.11
5695.33
5417.55
5139.76
4861.97
4584.17
4306.37
4028.56
3750.75
3472.94
3195.12
2917.3
2639.48
2361.65
2083.82
1805.98
1528.15
1250.31
972.466
694.622
416.775
138.926
)
;

boundaryField
{
    inlet
    {
        type            darcyGradPressure;
        gradient        uniform 116344;
        Mf              Mf;
        phi             phi;
        value           uniform 244036;
    }
    outlet
    {
        type            fixedValue;
        value           uniform 0;
    }
    emptyWalls
    {
        type            empty;
    }
}


// ************************************************************************* //
