/*--------------------------------*- C++ -*----------------------------------*\
  =========                 |
  \\      /  F ield         | OpenFOAM: The Open Source CFD Toolbox
   \\    /   O peration     | Website:  https://openfoam.org
    \\  /    A nd           | Version:  9
     \\/     M anipulation  |
\*---------------------------------------------------------------------------*/
FoamFile
{
    format      ascii;
    class       volScalarField;
    location    "7750";
    object      Sa;
}
// * * * * * * * * * * * * * * * * * * * * * * * * * * * * * * * * * * * * * //

dimensions      [0 0 0 0 0 0 0];

internalField   nonuniform List<scalar> 
1000
(
0.548457
0.544748
0.540768
0.536786
0.533548
0.530027
0.527579
0.524059
0.517411
0.494657
0.369154
0.125811
0.0720554
0.0557451
0.0476328
0.0425025
0.0388361
0.0360902
0.0339474
0.0322515
0.030859
0.0296919
0.0286561
0.0277439
0.0268583
0.026059
0.0253496
0.0247491
0.0243031
0.024063
0.0239538
0.0238493
0.0237412
0.0236318
0.0235225
0.0234141
0.0233071
0.0232017
0.0230981
0.0229964
0.0228964
0.0227983
0.0227019
0.0226071
0.022514
0.0224226
0.0223326
0.0222443
0.0221575
0.0220722
0.0219883
0.021906
0.021825
0.0217454
0.0216672
0.0215903
0.0215147
0.0214403
0.0213671
0.021295
0.0212241
0.0211542
0.0210855
0.0210177
0.0209509
0.020885
0.02082
0.0207558
0.0206924
0.0206299
0.0205683
0.0205078
0.0204483
0.0203899
0.0203326
0.0202763
0.0202207
0.020166
0.0201119
0.0200587
0.0200065
0.0199554
0.0199058
0.0198578
0.0198116
0.0197674
0.0197251
0.0196848
0.0196461
0.019609
0.0195732
0.0195384
0.0195042
0.0194702
0.0194361
0.0194014
0.0193656
0.0193284
0.0192891
0.0192476
0.0192035
0.0191566
0.0191068
0.0190544
0.0189995
0.0189427
0.0188843
0.0188252
0.0187658
0.0187068
0.0186488
0.0185923
0.0185376
0.0184852
0.018435
0.0183871
0.0183416
0.0182982
0.0182567
0.018217
0.0181787
0.0181416
0.0181055
0.0180701
0.0180352
0.0180007
0.0179664
0.0179321
0.0178978
0.0178635
0.0178291
0.0177946
0.01776
0.0177253
0.0176907
0.0176559
0.0176213
0.0175866
0.0175522
0.0175177
0.0174835
0.0174493
0.0174155
0.0173816
0.0173483
0.0173147
0.0172818
0.0172487
0.0172162
0.0171835
0.0171515
0.0171191
0.0170875
0.0170556
0.0170243
0.0169928
0.0169618
0.0169308
0.0169001
0.0168695
0.0168391
0.0168089
0.0167788
0.016749
0.0167193
0.0166898
0.0166604
0.0166313
0.0166023
0.0165735
0.0165449
0.0165165
0.0164883
0.0164602
0.0164324
0.0164047
0.0163773
0.01635
0.0163229
0.0162961
0.0162694
0.0162429
0.0162166
0.0161904
0.0161645
0.0161387
0.0161131
0.0160877
0.0160625
0.0160374
0.0160125
0.0159877
0.0159631
0.0159386
0.0159143
0.0158901
0.0158661
0.0158422
0.0158184
0.0157947
0.0157712
0.0157477
0.0157244
0.0157012
0.0156781
0.0156552
0.0156323
0.0156095
0.0155869
0.0155643
0.0155418
0.0155195
0.0154972
0.015475
0.0154529
0.0154308
0.0154089
0.015387
0.0153653
0.0153436
0.0153221
0.0153006
0.0152793
0.015258
0.0152369
0.0152159
0.015195
0.0151742
0.0151535
0.015133
0.0151126
0.0150924
0.0150723
0.0150524
0.0150327
0.0150132
0.0149939
0.0149749
0.0149561
0.0149377
0.0149196
0.0149018
0.0148844
0.0148674
0.0148507
0.0148345
0.0148186
0.0148031
0.0147879
0.014773
0.0147584
0.014744
0.0147297
0.0147155
0.0147013
0.014687
0.0146725
0.0146578
0.0146427
0.0146271
0.014611
0.0145943
0.0145769
0.0145587
0.0145396
0.0145196
0.0144987
0.0144769
0.0144543
0.0144307
0.0144063
0.0143811
0.0143553
0.014329
0.0143022
0.0142751
0.0142478
0.0142204
0.0141931
0.0141659
0.0141391
0.0141126
0.0140866
0.0140611
0.0140362
0.014012
0.0139884
0.0139657
0.0139436
0.0139225
0.0139022
0.0138828
0.0138644
0.0138471
0.0138308
0.0138156
0.0138017
0.0137889
0.0137773
0.0137667
0.013757
0.0137476
0.0137379
0.0137265
0.0137113
0.0136886
0.0136522
0.0135931
0.0134995
0.0133609
0.0131785
0.0129764
0.012797
0.0126713
0.0125992
0.0125627
0.012545
0.0125361
0.0125314
0.0125286
0.0125268
0.0125254
0.0125243
0.0125232
0.0125222
0.0125213
0.0125203
0.0125194
0.0125185
0.0125175
0.0125166
0.0125157
0.0125148
0.0125139
0.012513
0.0125121
0.0125112
0.0125103
0.0125095
0.0125086
0.0125078
0.012507
0.0125061
0.0125053
0.0125045
0.0125037
0.012503
0.0125022
0.0125014
0.0125007
0.0125
0.0124992
0.0124985
0.0124978
0.0124971
0.0124965
0.0124958
0.0124952
0.0124946
0.012494
0.0124935
0.0124929
0.0124924
0.0124919
0.0124915
0.0124911
0.0124907
0.0124903
0.01249
0.0124897
0.0124895
0.0124893
0.0124892
0.0124891
0.012489
0.012489
0.012489
0.012489
0.012489
0.0124891
0.0124893
0.0124895
0.0124898
0.0124901
0.0124904
0.0124908
0.0124912
0.0124916
0.012492
0.0124925
0.012493
0.0124935
0.0124941
0.0124946
0.0124952
0.0124958
0.0124964
0.012497
0.0124977
0.0124983
0.012499
0.0124996
0.0125003
0.012501
0.0125016
0.0125023
0.012503
0.0125037
0.0125044
0.0125051
0.0125058
0.0125066
0.0125073
0.012508
0.0125088
0.0125095
0.0125103
0.0125111
0.0125119
0.0125127
0.0125135
0.0125144
0.0125153
0.0125162
0.0125171
0.0125181
0.0125191
0.0125202
0.0125213
0.0125224
0.0125237
0.012525
0.0125264
0.0125278
0.0125294
0.012531
0.0125328
0.0125347
0.0125367
0.0125388
0.0125411
0.0125435
0.012546
0.0125487
0.0125516
0.0125545
0.0125577
0.0125609
0.0125644
0.0125679
0.0125715
0.0125753
0.0125791
0.012583
0.0125869
0.0125908
0.0125947
0.0125986
0.0126023
0.012606
0.0126095
0.0126128
0.0126159
0.0126188
0.0126213
0.0126236
0.0126254
0.0126269
0.012628
0.0126286
0.0126288
0.0126288
0.0126287
0.0126282
0.0126266
0.0126246
0.0126222
0.0126193
0.0126161
0.0126126
0.0126088
0.0126047
0.0126005
0.0125962
0.0125917
0.0125873
0.0125828
0.0125785
0.0125742
0.0125701
0.0125661
0.0125623
0.0125588
0.0125555
0.0125525
0.0125497
0.0125473
0.012545
0.0125431
0.0125413
0.0125398
0.0125386
0.0125375
0.0125366
0.0125359
0.0125354
0.0125349
0.0125346
0.0125344
0.0125342
0.012534
0.012534
0.0125339
0.0125339
0.0125338
0.0125338
0.0125337
0.0125336
0.0125335
0.0125333
0.0125331
0.0125328
0.0125325
0.0125321
0.0125317
0.0125312
0.0125306
0.01253
0.0125294
0.0125287
0.012528
0.0125272
0.0125265
0.0125256
0.0125248
0.0125239
0.0125231
0.0125222
0.0125213
0.0125204
0.0125195
0.0125186
0.0125177
0.0125168
0.0125159
0.012515
0.0125141
0.0125133
0.0125124
0.0125116
0.0125108
0.01251
0.0125092
0.0125085
0.0125078
0.0125071
0.0125064
0.0125057
0.0125051
0.0125044
0.0125038
0.0125033
0.0125027
0.0125022
0.0125017
0.0125012
0.0125007
0.0125002
0.0124998
0.0124994
0.012499
0.0124986
0.0124982
0.0124979
0.0124975
0.0124972
0.0124969
0.0124967
0.0124964
0.0124962
0.012496
0.0124958
0.0124956
0.0124955
0.0124953
0.0124952
0.0124951
0.0124951
0.0124951
0.0124951
0.0124951
0.0124951
0.0124951
0.0124952
0.0124954
0.0124955
0.0124957
0.0124959
0.0124962
0.0124965
0.0124968
0.0124971
0.0124975
0.0124979
0.0124983
0.0124987
0.0124992
0.0124997
0.0125002
0.0125007
0.0125012
0.0125018
0.0125024
0.012503
0.0125036
0.0125042
0.0125048
0.0125055
0.0125062
0.0125068
0.0125075
0.0125082
0.0125089
0.0125096
0.0125104
0.0125111
0.0125118
0.0125126
0.0125134
0.0125142
0.012515
0.0125159
0.0125168
0.0125177
0.0125186
0.0125196
0.0125206
0.0125217
0.0125228
0.012524
0.0125252
0.0125265
0.0125279
0.0125294
0.0125309
0.0125325
0.0125343
0.0125361
0.012538
0.01254
0.0125421
0.0125444
0.0125467
0.0125492
0.0125517
0.0125544
0.0125571
0.0125599
0.0125629
0.0125659
0.0125689
0.012572
0.0125752
0.0125783
0.0125815
0.0125846
0.0125877
0.0125907
0.0125937
0.0125966
0.0125993
0.0126019
0.0126043
0.0126065
0.0126084
0.0126102
0.0126116
0.0126128
0.0126137
0.0126143
0.0126145
0.0126146
0.0126145
0.0126143
0.0126135
0.0126121
0.0126104
0.0126084
0.0126061
0.0126035
0.0126007
0.0125978
0.0125946
0.0125913
0.0125879
0.0125844
0.0125809
0.0125774
0.0125739
0.0125704
0.0125671
0.0125638
0.0125607
0.0125577
0.0125549
0.0125523
0.0125499
0.0125476
0.0125456
0.0125437
0.012542
0.0125405
0.0125392
0.0125381
0.0125371
0.0125362
0.0125355
0.0125349
0.0125344
0.0125339
0.0125336
0.0125333
0.0125331
0.012533
0.0125328
0.0125327
0.0125326
0.0125325
0.0125324
0.0125322
0.0125321
0.0125319
0.0125317
0.0125315
0.0125312
0.0125308
0.0125305
0.01253
0.0125296
0.0125291
0.0125285
0.0125279
0.0125273
0.0125266
0.0125259
0.0125252
0.0125244
0.0125236
0.0125228
0.0125219
0.0125211
0.0125202
0.0125193
0.0125184
0.0125175
0.0125166
0.0125157
0.0125148
0.0125139
0.012513
0.0125121
0.0125112
0.0125103
0.0125095
0.0125086
0.0125078
0.012507
0.0125063
0.0125055
0.0125048
0.012504
0.0125033
0.0125027
0.012502
0.0125014
0.0125008
0.0125002
0.0124996
0.0124991
0.0124986
0.0124981
0.0124976
0.0124971
0.0124967
0.0124963
0.0124959
0.0124955
0.0124951
0.0124948
0.0124945
0.0124942
0.0124939
0.0124936
0.0124933
0.0124931
0.0124929
0.0124927
0.0124925
0.0124923
0.0124922
0.012492
0.0124919
0.0124918
0.0124918
0.0124917
0.0124917
0.0124917
0.0124917
0.0124917
0.0124918
0.0124918
0.012492
0.0124921
0.0124923
0.0124925
0.0124927
0.012493
0.0124933
0.0124936
0.0124939
0.0124943
0.0124947
0.0124951
0.0124956
0.0124961
0.0124966
0.0124971
0.0124977
0.0124983
0.0124989
0.0124996
0.0125003
0.012501
0.0125017
0.0125025
0.0125033
0.0125041
0.012505
0.0125059
0.0125068
0.0125078
0.0125088
0.0125098
0.0125109
0.012512
0.0125132
0.0125144
0.0125157
0.012517
0.0125184
0.0125198
0.0125213
0.0125229
0.0125245
0.0125262
0.012528
0.0125299
0.0125318
0.0125338
0.0125359
0.0125381
0.0125403
0.0125427
0.0125451
0.0125476
0.0125502
0.0125528
0.0125555
0.0125582
0.0125611
0.0125639
0.0125668
0.0125697
0.0125726
0.0125756
0.0125785
0.0125814
0.0125842
0.012587
0.0125897
0.0125923
0.0125949
0.0125973
0.0125995
0.0126016
0.0126036
0.0126053
0.0126069
0.0126082
0.0126093
0.0126102
0.0126108
0.0126112
0.0126113
0.0126113
0.0126113
0.012611
0.0126101
0.012609
0.0126076
0.0126059
0.0126041
0.012602
0.0125998
0.0125974
0.0125949
0.0125922
0.0125895
0.0125867
0.0125839
0.012581
0.0125781
0.0125753
0.0125725
0.0125698
0.0125672
0.0125646
0.0125622
0.0125598
0.0125576
0.0125555
0.0125536
0.0125518
0.0125501
0.0125486
0.0125471
0.0125459
0.0125447
0.0125436
0.0125427
0.0125418
0.0125411
0.0125404
0.0125398
0.0125393
0.0125388
0.0125383
0.0125379
0.0125375
0.0125372
0.0125369
0.0125365
0.0125362
0.0125359
0.0125355
0.0125352
0.0125348
0.0125344
0.012534
0.0125336
0.0125331
0.0125326
0.0125321
0.0125315
0.012531
0.0125304
0.0125297
0.012529
0.0125283
0.0125276
0.0125269
0.0125261
0.0125253
0.0125245
0.0125237
0.0125228
0.0125219
0.0125211
0.0125202
0.0125193
0.0125184
0.0125175
0.0125166
0.0125157
0.0125148
0.0125139
0.012513
0.0125121
0.0125112
0.0125104
0.0125095
0.0125087
0.0125078
0.0125071
0.0125062
0.0125055
0.0125047
0.0125041
0.0125032
0.0125027
0.0125019
0.0125015
0.0125007
0.0125003
0.0124995
0.0124993
0.0124985
0.0124983
0.0124975
0.0124976
)
;

boundaryField
{
    inlet
    {
        type            fixedValue;
        value           uniform 0.55;
    }
    outlet
    {
        type            zeroGradient;
    }
    emptyWalls
    {
        type            empty;
    }
}


// ************************************************************************* //
