/*--------------------------------*- C++ -*----------------------------------*\
  =========                 |
  \\      /  F ield         | OpenFOAM: The Open Source CFD Toolbox
   \\    /   O peration     | Website:  https://openfoam.org
    \\  /    A nd           | Version:  9
     \\/     M anipulation  |
\*---------------------------------------------------------------------------*/
FoamFile
{
    format      ascii;
    class       volScalarField;
    location    "7750";
    object      Sb;
}
// * * * * * * * * * * * * * * * * * * * * * * * * * * * * * * * * * * * * * //

dimensions      [0 0 0 0 0 0 0];

internalField   nonuniform List<scalar> 
1000
(
0.350757
0.352633
0.354589
0.356714
0.358245
0.360246
0.361347
0.36338
0.366788
0.379358
0.456174
0.623488
0.659862
0.670122
0.674877
0.677665
0.679499
0.680738
0.681594
0.68217
0.682553
0.682779
0.682894
0.682878
0.682735
0.682408
0.68185
0.680946
0.679548
0.677555
0.675097
0.672423
0.669645
0.666822
0.663992
0.661174
0.658382
0.655624
0.652903
0.650223
0.647584
0.644988
0.642432
0.639919
0.637446
0.635012
0.632617
0.630261
0.627941
0.625657
0.623407
0.621191
0.619008
0.616857
0.614737
0.612647
0.610586
0.608553
0.606548
0.60457
0.602617
0.60069
0.598788
0.59691
0.595055
0.593223
0.591413
0.589625
0.587857
0.586111
0.584384
0.582676
0.580987
0.579317
0.577664
0.576028
0.57441
0.572808
0.571223
0.569653
0.568099
0.56656
0.565035
0.563523
0.562025
0.560539
0.559066
0.557605
0.556155
0.554718
0.553293
0.551879
0.550477
0.549087
0.54771
0.546344
0.544991
0.543651
0.542324
0.541009
0.539708
0.538419
0.537143
0.535879
0.534627
0.533387
0.532157
0.530938
0.529727
0.528525
0.52733
0.526143
0.524962
0.523788
0.52262
0.521457
0.5203
0.519149
0.518003
0.516863
0.515729
0.514601
0.51348
0.512364
0.511255
0.510152
0.509056
0.507965
0.506881
0.505804
0.504732
0.503666
0.502607
0.501553
0.500505
0.499462
0.498425
0.497393
0.496366
0.495345
0.494328
0.493316
0.492309
0.491307
0.490309
0.489316
0.488327
0.487342
0.486362
0.485386
0.484413
0.483446
0.482481
0.481521
0.480565
0.479612
0.478663
0.477717
0.476776
0.475837
0.474902
0.473971
0.473043
0.472118
0.471196
0.470277
0.469361
0.468449
0.467539
0.466632
0.465728
0.464827
0.463928
0.463032
0.462139
0.461248
0.460359
0.459473
0.45859
0.457708
0.456829
0.455952
0.455078
0.454205
0.453334
0.452466
0.451599
0.450735
0.449872
0.449011
0.448152
0.447294
0.446438
0.445584
0.444732
0.443881
0.443031
0.442183
0.441336
0.440491
0.439647
0.438804
0.437963
0.437123
0.436283
0.435445
0.434608
0.433772
0.432937
0.432102
0.431269
0.430436
0.429604
0.428773
0.427942
0.427112
0.426283
0.425454
0.424625
0.423797
0.422969
0.422141
0.421314
0.420486
0.419659
0.418832
0.418005
0.417178
0.41635
0.415523
0.414695
0.413867
0.413038
0.412209
0.411379
0.410549
0.409718
0.408886
0.408053
0.40722
0.406385
0.405549
0.404712
0.403874
0.403034
0.402193
0.40135
0.400506
0.39966
0.398813
0.397964
0.397113
0.39626
0.395406
0.394549
0.39369
0.39283
0.391968
0.391103
0.390237
0.389368
0.388497
0.387625
0.386749
0.385872
0.384991
0.384109
0.383224
0.382336
0.381445
0.380551
0.379654
0.378754
0.37785
0.376943
0.376032
0.375117
0.374199
0.373277
0.372351
0.371422
0.370491
0.369556
0.368621
0.367685
0.36675
0.365818
0.36489
0.36397
0.363061
0.362167
0.361293
0.360444
0.359625
0.358842
0.3581
0.357404
0.356757
0.356161
0.355611
0.355099
0.354604
0.354091
0.353492
0.352694
0.351498
0.349572
0.34639
0.34119
0.333071
0.321393
0.306525
0.290365
0.275668
0.264429
0.256989
0.252549
0.250071
0.24874
0.24804
0.247677
0.247489
0.247393
0.247343
0.247318
0.247305
0.247299
0.247295
0.247294
0.247293
0.247293
0.247293
0.247293
0.247293
0.247293
0.247293
0.247294
0.247294
0.247294
0.247294
0.247294
0.247294
0.247295
0.247295
0.247295
0.247295
0.247295
0.247295
0.247296
0.247296
0.247296
0.247296
0.247296
0.247296
0.247297
0.247297
0.247297
0.247297
0.247297
0.247297
0.247297
0.247297
0.247298
0.247298
0.247298
0.247298
0.247298
0.247298
0.247298
0.247298
0.247298
0.247298
0.247298
0.247298
0.247298
0.247298
0.247298
0.247298
0.247298
0.247298
0.247298
0.247298
0.247297
0.247297
0.247297
0.247297
0.247297
0.247296
0.247296
0.247296
0.247295
0.247295
0.247295
0.247294
0.247294
0.247294
0.247293
0.247293
0.247292
0.247292
0.247292
0.247291
0.247291
0.24729
0.24729
0.24729
0.247289
0.247289
0.247288
0.247288
0.247288
0.247287
0.247287
0.247286
0.247286
0.247286
0.247285
0.247285
0.247285
0.247284
0.247284
0.247283
0.247283
0.247283
0.247282
0.247282
0.247282
0.247281
0.247281
0.247281
0.24728
0.24728
0.247279
0.247279
0.247279
0.247278
0.247278
0.247277
0.247277
0.247276
0.247276
0.247275
0.247275
0.247274
0.247273
0.247273
0.247272
0.247271
0.247271
0.24727
0.247269
0.247268
0.247267
0.247267
0.247266
0.247265
0.247264
0.247263
0.247263
0.247262
0.247261
0.247261
0.24726
0.247259
0.247259
0.247259
0.247258
0.247258
0.247258
0.247258
0.247258
0.247258
0.247258
0.247258
0.247258
0.247259
0.24726
0.24726
0.247261
0.247262
0.247263
0.247264
0.247265
0.247266
0.247267
0.247268
0.247269
0.24727
0.24727
0.247271
0.247272
0.247273
0.247274
0.247275
0.247275
0.247276
0.247276
0.247277
0.247277
0.247278
0.247278
0.247278
0.247279
0.247279
0.247279
0.247279
0.247279
0.247279
0.247279
0.247279
0.247279
0.247279
0.247279
0.247279
0.247279
0.247279
0.247279
0.247279
0.247279
0.247279
0.24728
0.24728
0.24728
0.24728
0.24728
0.24728
0.24728
0.24728
0.24728
0.24728
0.247281
0.247281
0.247281
0.247281
0.247281
0.247281
0.247281
0.247282
0.247282
0.247282
0.247282
0.247282
0.247282
0.247282
0.247283
0.247283
0.247283
0.247283
0.247283
0.247283
0.247283
0.247284
0.247284
0.247284
0.247284
0.247284
0.247284
0.247284
0.247285
0.247285
0.247285
0.247286
0.247286
0.247286
0.247286
0.247287
0.247287
0.247287
0.247287
0.247288
0.247288
0.247288
0.247288
0.247289
0.247289
0.247289
0.247289
0.247289
0.247289
0.247289
0.247289
0.247289
0.247289
0.247289
0.247289
0.247289
0.247289
0.247289
0.247289
0.247289
0.247289
0.247289
0.247289
0.247289
0.247289
0.247289
0.247289
0.247289
0.247289
0.247288
0.247288
0.247288
0.247288
0.247288
0.247288
0.247288
0.247288
0.247287
0.247287
0.247287
0.247287
0.247287
0.247287
0.247287
0.247286
0.247286
0.247286
0.247286
0.247286
0.247286
0.247285
0.247285
0.247285
0.247285
0.247285
0.247285
0.247284
0.247284
0.247284
0.247284
0.247284
0.247283
0.247283
0.247283
0.247283
0.247283
0.247282
0.247282
0.247282
0.247282
0.247281
0.247281
0.247281
0.24728
0.24728
0.24728
0.247279
0.247279
0.247278
0.247278
0.247277
0.247277
0.247277
0.247276
0.247275
0.247275
0.247274
0.247274
0.247273
0.247272
0.247272
0.247271
0.24727
0.24727
0.247269
0.247268
0.247268
0.247267
0.247266
0.247266
0.247265
0.247265
0.247264
0.247264
0.247263
0.247263
0.247263
0.247262
0.247262
0.247262
0.247262
0.247262
0.247262
0.247262
0.247262
0.247263
0.247263
0.247263
0.247264
0.247264
0.247265
0.247266
0.247266
0.247267
0.247268
0.247269
0.247269
0.24727
0.247271
0.247272
0.247272
0.247273
0.247274
0.247274
0.247275
0.247275
0.247276
0.247276
0.247277
0.247277
0.247278
0.247278
0.247278
0.247278
0.247279
0.247279
0.247279
0.247279
0.247279
0.247279
0.247279
0.247279
0.24728
0.24728
0.24728
0.24728
0.24728
0.24728
0.24728
0.24728
0.24728
0.24728
0.24728
0.24728
0.24728
0.24728
0.24728
0.24728
0.24728
0.24728
0.24728
0.247281
0.247281
0.247281
0.247281
0.247281
0.247281
0.247281
0.247281
0.247282
0.247282
0.247282
0.247282
0.247282
0.247283
0.247283
0.247283
0.247283
0.247283
0.247284
0.247284
0.247284
0.247284
0.247285
0.247285
0.247285
0.247285
0.247285
0.247286
0.247286
0.247286
0.247286
0.247286
0.247287
0.247287
0.247287
0.247287
0.247287
0.247287
0.247288
0.247288
0.247288
0.247288
0.247288
0.247288
0.247288
0.247288
0.247288
0.247288
0.247288
0.247289
0.247289
0.247289
0.247289
0.247289
0.247289
0.247289
0.247289
0.247289
0.247289
0.247289
0.247289
0.247289
0.247289
0.247289
0.247289
0.247289
0.247289
0.247289
0.247289
0.247289
0.247289
0.247289
0.247288
0.247288
0.247288
0.247288
0.247288
0.247288
0.247288
0.247288
0.247288
0.247288
0.247288
0.247288
0.247287
0.247287
0.247287
0.247287
0.247287
0.247287
0.247287
0.247287
0.247286
0.247286
0.247286
0.247286
0.247286
0.247285
0.247285
0.247285
0.247285
0.247285
0.247284
0.247284
0.247284
0.247284
0.247283
0.247283
0.247283
0.247283
0.247282
0.247282
0.247282
0.247281
0.247281
0.24728
0.24728
0.24728
0.247279
0.247279
0.247278
0.247278
0.247277
0.247277
0.247276
0.247276
0.247275
0.247274
0.247274
0.247273
0.247273
0.247272
0.247271
0.247271
0.24727
0.247269
0.247269
0.247268
0.247268
0.247267
0.247267
0.247266
0.247266
0.247265
0.247265
0.247264
0.247264
0.247264
0.247263
0.247263
0.247263
0.247263
0.247263
0.247263
0.247263
0.247263
0.247263
0.247264
0.247264
0.247264
0.247265
0.247265
0.247266
0.247266
0.247267
0.247267
0.247268
0.247268
0.247269
0.24727
0.24727
0.247271
0.247271
0.247272
0.247272
0.247273
0.247274
0.247274
0.247275
0.247275
0.247275
0.247276
0.247276
0.247276
0.247277
0.247277
0.247277
0.247277
0.247278
0.247278
0.247278
0.247278
0.247278
0.247278
0.247279
0.247279
0.247279
0.247279
0.247279
0.247279
0.247279
0.247279
0.247279
0.247279
0.247279
0.247279
0.247279
0.24728
0.24728
0.24728
0.24728
0.24728
0.24728
0.24728
0.24728
0.24728
0.247281
0.247281
0.247281
0.247281
0.247281
0.247281
0.247282
0.247282
0.247282
0.247282
0.247282
0.247283
0.247283
0.247283
0.247283
0.247283
0.247284
0.247284
0.247284
0.247284
0.247285
0.247285
0.247285
0.247285
0.247285
0.247286
0.247286
0.247286
0.247286
0.247286
0.247286
0.247287
0.247287
0.247287
0.247287
0.247287
0.247287
0.247287
0.247287
0.247288
0.247288
0.247288
0.247288
)
;

boundaryField
{
    inlet
    {
        type            fixedValue;
        value           uniform 0.35;
    }
    outlet
    {
        type            zeroGradient;
    }
    emptyWalls
    {
        type            empty;
    }
}


// ************************************************************************* //
