/*--------------------------------*- C++ -*----------------------------------*\
  =========                 |
  \\      /  F ield         | OpenFOAM: The Open Source CFD Toolbox
   \\    /   O peration     | Website:  https://openfoam.org
    \\  /    A nd           | Version:  9
     \\/     M anipulation  |
\*---------------------------------------------------------------------------*/
FoamFile
{
    format      ascii;
    class       volVectorField;
    location    "7750";
    object      Ub;
}
// * * * * * * * * * * * * * * * * * * * * * * * * * * * * * * * * * * * * * //

dimensions      [0 0 0 0 0 0 0];

internalField   nonuniform List<vector> 
1000
(
(1.13622e-05 0 0)
(1.13625e-05 0 0)
(1.13631e-05 0 0)
(1.13638e-05 0 0)
(1.13645e-05 0 0)
(1.13657e-05 0 0)
(1.13665e-05 0 0)
(1.13685e-05 0 0)
(1.13734e-05 0 0)
(1.13926e-05 0 0)
(1.15323e-05 0 0)
(1.17018e-05 0 0)
(1.17592e-05 0 0)
(1.17763e-05 0 0)
(1.17847e-05 0 0)
(1.17902e-05 0 0)
(1.17941e-05 0 0)
(1.17971e-05 0 0)
(1.17994e-05 0 0)
(1.18011e-05 0 0)
(1.18025e-05 0 0)
(1.18034e-05 0 0)
(1.18041e-05 0 0)
(1.18045e-05 0 0)
(1.18044e-05 0 0)
(1.18038e-05 0 0)
(1.18023e-05 0 0)
(1.17996e-05 0 0)
(1.1795e-05 0 0)
(1.17882e-05 0 0)
(1.17795e-05 0 0)
(1.17696e-05 0 0)
(1.1759e-05 0 0)
(1.17478e-05 0 0)
(1.17363e-05 0 0)
(1.17244e-05 0 0)
(1.17123e-05 0 0)
(1.17e-05 0 0)
(1.16876e-05 0 0)
(1.1675e-05 0 0)
(1.16622e-05 0 0)
(1.16494e-05 0 0)
(1.16365e-05 0 0)
(1.16235e-05 0 0)
(1.16104e-05 0 0)
(1.15972e-05 0 0)
(1.1584e-05 0 0)
(1.15707e-05 0 0)
(1.15573e-05 0 0)
(1.15439e-05 0 0)
(1.15304e-05 0 0)
(1.15168e-05 0 0)
(1.15032e-05 0 0)
(1.14895e-05 0 0)
(1.14757e-05 0 0)
(1.14619e-05 0 0)
(1.1448e-05 0 0)
(1.14341e-05 0 0)
(1.14201e-05 0 0)
(1.1406e-05 0 0)
(1.13919e-05 0 0)
(1.13777e-05 0 0)
(1.13635e-05 0 0)
(1.13492e-05 0 0)
(1.13349e-05 0 0)
(1.13205e-05 0 0)
(1.13061e-05 0 0)
(1.12917e-05 0 0)
(1.12772e-05 0 0)
(1.12627e-05 0 0)
(1.12482e-05 0 0)
(1.12335e-05 0 0)
(1.12188e-05 0 0)
(1.1204e-05 0 0)
(1.11891e-05 0 0)
(1.11741e-05 0 0)
(1.1159e-05 0 0)
(1.11439e-05 0 0)
(1.11288e-05 0 0)
(1.11136e-05 0 0)
(1.10983e-05 0 0)
(1.10828e-05 0 0)
(1.10672e-05 0 0)
(1.10514e-05 0 0)
(1.10353e-05 0 0)
(1.1019e-05 0 0)
(1.10023e-05 0 0)
(1.09855e-05 0 0)
(1.09683e-05 0 0)
(1.0951e-05 0 0)
(1.09335e-05 0 0)
(1.09159e-05 0 0)
(1.08982e-05 0 0)
(1.08805e-05 0 0)
(1.08629e-05 0 0)
(1.08455e-05 0 0)
(1.08282e-05 0 0)
(1.08113e-05 0 0)
(1.07947e-05 0 0)
(1.07786e-05 0 0)
(1.0763e-05 0 0)
(1.07479e-05 0 0)
(1.07333e-05 0 0)
(1.07192e-05 0 0)
(1.07055e-05 0 0)
(1.06922e-05 0 0)
(1.06792e-05 0 0)
(1.06664e-05 0 0)
(1.06537e-05 0 0)
(1.06409e-05 0 0)
(1.0628e-05 0 0)
(1.06149e-05 0 0)
(1.06015e-05 0 0)
(1.05877e-05 0 0)
(1.05735e-05 0 0)
(1.0559e-05 0 0)
(1.05441e-05 0 0)
(1.05288e-05 0 0)
(1.05133e-05 0 0)
(1.04974e-05 0 0)
(1.04813e-05 0 0)
(1.0465e-05 0 0)
(1.04486e-05 0 0)
(1.0432e-05 0 0)
(1.04154e-05 0 0)
(1.03987e-05 0 0)
(1.0382e-05 0 0)
(1.03652e-05 0 0)
(1.03485e-05 0 0)
(1.03318e-05 0 0)
(1.03152e-05 0 0)
(1.02985e-05 0 0)
(1.02819e-05 0 0)
(1.02653e-05 0 0)
(1.02487e-05 0 0)
(1.0232e-05 0 0)
(1.02154e-05 0 0)
(1.01988e-05 0 0)
(1.01822e-05 0 0)
(1.01656e-05 0 0)
(1.01489e-05 0 0)
(1.01322e-05 0 0)
(1.01154e-05 0 0)
(1.00987e-05 0 0)
(1.00818e-05 0 0)
(1.0065e-05 0 0)
(1.00481e-05 0 0)
(1.00311e-05 0 0)
(1.00142e-05 0 0)
(9.99712e-06 0 0)
(9.98004e-06 0 0)
(9.96292e-06 0 0)
(9.94574e-06 0 0)
(9.92853e-06 0 0)
(9.91126e-06 0 0)
(9.89395e-06 0 0)
(9.87659e-06 0 0)
(9.85919e-06 0 0)
(9.84174e-06 0 0)
(9.82423e-06 0 0)
(9.80669e-06 0 0)
(9.78909e-06 0 0)
(9.77144e-06 0 0)
(9.75374e-06 0 0)
(9.73599e-06 0 0)
(9.71819e-06 0 0)
(9.70034e-06 0 0)
(9.68243e-06 0 0)
(9.66446e-06 0 0)
(9.64644e-06 0 0)
(9.62837e-06 0 0)
(9.61023e-06 0 0)
(9.59203e-06 0 0)
(9.57377e-06 0 0)
(9.55545e-06 0 0)
(9.53707e-06 0 0)
(9.51862e-06 0 0)
(9.50011e-06 0 0)
(9.48154e-06 0 0)
(9.46289e-06 0 0)
(9.44419e-06 0 0)
(9.42541e-06 0 0)
(9.40657e-06 0 0)
(9.38765e-06 0 0)
(9.36867e-06 0 0)
(9.34962e-06 0 0)
(9.33051e-06 0 0)
(9.31132e-06 0 0)
(9.29206e-06 0 0)
(9.27273e-06 0 0)
(9.25334e-06 0 0)
(9.23387e-06 0 0)
(9.21433e-06 0 0)
(9.19473e-06 0 0)
(9.17505e-06 0 0)
(9.1553e-06 0 0)
(9.13548e-06 0 0)
(9.11559e-06 0 0)
(9.09562e-06 0 0)
(9.07559e-06 0 0)
(9.05548e-06 0 0)
(9.0353e-06 0 0)
(9.01504e-06 0 0)
(8.99471e-06 0 0)
(8.97431e-06 0 0)
(8.95382e-06 0 0)
(8.93326e-06 0 0)
(8.91263e-06 0 0)
(8.89191e-06 0 0)
(8.87112e-06 0 0)
(8.85024e-06 0 0)
(8.82929e-06 0 0)
(8.80825e-06 0 0)
(8.78713e-06 0 0)
(8.76593e-06 0 0)
(8.74464e-06 0 0)
(8.72327e-06 0 0)
(8.7018e-06 0 0)
(8.68025e-06 0 0)
(8.65861e-06 0 0)
(8.63687e-06 0 0)
(8.61504e-06 0 0)
(8.59311e-06 0 0)
(8.57108e-06 0 0)
(8.54895e-06 0 0)
(8.52671e-06 0 0)
(8.50437e-06 0 0)
(8.48192e-06 0 0)
(8.45936e-06 0 0)
(8.43669e-06 0 0)
(8.4139e-06 0 0)
(8.39099e-06 0 0)
(8.36796e-06 0 0)
(8.3448e-06 0 0)
(8.3215e-06 0 0)
(8.29807e-06 0 0)
(8.2745e-06 0 0)
(8.25077e-06 0 0)
(8.22689e-06 0 0)
(8.20285e-06 0 0)
(8.17864e-06 0 0)
(8.15426e-06 0 0)
(8.1297e-06 0 0)
(8.10496e-06 0 0)
(8.08003e-06 0 0)
(8.05492e-06 0 0)
(8.02962e-06 0 0)
(8.00413e-06 0 0)
(7.97846e-06 0 0)
(7.9526e-06 0 0)
(7.92657e-06 0 0)
(7.90036e-06 0 0)
(7.87399e-06 0 0)
(7.84745e-06 0 0)
(7.82077e-06 0 0)
(7.79395e-06 0 0)
(7.76699e-06 0 0)
(7.73992e-06 0 0)
(7.71275e-06 0 0)
(7.68548e-06 0 0)
(7.65812e-06 0 0)
(7.63069e-06 0 0)
(7.60319e-06 0 0)
(7.57563e-06 0 0)
(7.548e-06 0 0)
(7.52032e-06 0 0)
(7.49259e-06 0 0)
(7.46479e-06 0 0)
(7.43692e-06 0 0)
(7.40898e-06 0 0)
(7.38095e-06 0 0)
(7.3528e-06 0 0)
(7.32453e-06 0 0)
(7.2961e-06 0 0)
(7.26752e-06 0 0)
(7.23875e-06 0 0)
(7.20977e-06 0 0)
(7.18058e-06 0 0)
(7.15114e-06 0 0)
(7.12146e-06 0 0)
(7.09153e-06 0 0)
(7.06135e-06 0 0)
(7.03092e-06 0 0)
(7.00029e-06 0 0)
(6.96947e-06 0 0)
(6.93851e-06 0 0)
(6.90747e-06 0 0)
(6.87642e-06 0 0)
(6.84548e-06 0 0)
(6.81476e-06 0 0)
(6.78441e-06 0 0)
(6.7546e-06 0 0)
(6.72552e-06 0 0)
(6.69737e-06 0 0)
(6.67034e-06 0 0)
(6.64465e-06 0 0)
(6.62046e-06 0 0)
(6.59791e-06 0 0)
(6.57702e-06 0 0)
(6.55767e-06 0 0)
(6.5395e-06 0 0)
(6.52178e-06 0 0)
(6.50311e-06 0 0)
(6.48099e-06 0 0)
(6.45105e-06 0 0)
(6.40575e-06 0 0)
(6.33257e-06 0 0)
(6.21175e-06 0 0)
(6.01529e-06 0 0)
(5.71114e-06 0 0)
(5.27865e-06 0 0)
(4.73443e-06 0 0)
(4.14734e-06 0 0)
(3.61346e-06 0 0)
(3.20238e-06 0 0)
(2.92764e-06 0 0)
(2.76234e-06 0 0)
(2.66953e-06 0 0)
(2.61952e-06 0 0)
(2.59321e-06 0 0)
(2.57955e-06 0 0)
(2.57251e-06 0 0)
(2.56891e-06 0 0)
(2.56709e-06 0 0)
(2.56618e-06 0 0)
(2.56573e-06 0 0)
(2.56553e-06 0 0)
(2.56545e-06 0 0)
(2.56544e-06 0 0)
(2.56545e-06 0 0)
(2.56549e-06 0 0)
(2.56553e-06 0 0)
(2.56557e-06 0 0)
(2.56562e-06 0 0)
(2.56567e-06 0 0)
(2.56572e-06 0 0)
(2.56577e-06 0 0)
(2.56582e-06 0 0)
(2.56587e-06 0 0)
(2.56591e-06 0 0)
(2.56596e-06 0 0)
(2.56601e-06 0 0)
(2.56605e-06 0 0)
(2.5661e-06 0 0)
(2.56614e-06 0 0)
(2.56619e-06 0 0)
(2.56623e-06 0 0)
(2.56627e-06 0 0)
(2.56631e-06 0 0)
(2.56635e-06 0 0)
(2.56639e-06 0 0)
(2.56643e-06 0 0)
(2.56647e-06 0 0)
(2.56651e-06 0 0)
(2.56655e-06 0 0)
(2.56659e-06 0 0)
(2.56662e-06 0 0)
(2.56666e-06 0 0)
(2.56669e-06 0 0)
(2.56673e-06 0 0)
(2.56676e-06 0 0)
(2.56679e-06 0 0)
(2.56681e-06 0 0)
(2.56684e-06 0 0)
(2.56687e-06 0 0)
(2.56689e-06 0 0)
(2.56691e-06 0 0)
(2.56693e-06 0 0)
(2.56695e-06 0 0)
(2.56696e-06 0 0)
(2.56698e-06 0 0)
(2.56699e-06 0 0)
(2.56699e-06 0 0)
(2.567e-06 0 0)
(2.567e-06 0 0)
(2.567e-06 0 0)
(2.567e-06 0 0)
(2.567e-06 0 0)
(2.56699e-06 0 0)
(2.56698e-06 0 0)
(2.56697e-06 0 0)
(2.56695e-06 0 0)
(2.56694e-06 0 0)
(2.56692e-06 0 0)
(2.56689e-06 0 0)
(2.56687e-06 0 0)
(2.56684e-06 0 0)
(2.56681e-06 0 0)
(2.56678e-06 0 0)
(2.56675e-06 0 0)
(2.56671e-06 0 0)
(2.56668e-06 0 0)
(2.56664e-06 0 0)
(2.5666e-06 0 0)
(2.56656e-06 0 0)
(2.56652e-06 0 0)
(2.56648e-06 0 0)
(2.56643e-06 0 0)
(2.56639e-06 0 0)
(2.56634e-06 0 0)
(2.5663e-06 0 0)
(2.56625e-06 0 0)
(2.56621e-06 0 0)
(2.56616e-06 0 0)
(2.56611e-06 0 0)
(2.56606e-06 0 0)
(2.56602e-06 0 0)
(2.56597e-06 0 0)
(2.56592e-06 0 0)
(2.56587e-06 0 0)
(2.56583e-06 0 0)
(2.56578e-06 0 0)
(2.56573e-06 0 0)
(2.56568e-06 0 0)
(2.56563e-06 0 0)
(2.56558e-06 0 0)
(2.56553e-06 0 0)
(2.56548e-06 0 0)
(2.56543e-06 0 0)
(2.56538e-06 0 0)
(2.56533e-06 0 0)
(2.56527e-06 0 0)
(2.56522e-06 0 0)
(2.56516e-06 0 0)
(2.5651e-06 0 0)
(2.56504e-06 0 0)
(2.56498e-06 0 0)
(2.56492e-06 0 0)
(2.56485e-06 0 0)
(2.56478e-06 0 0)
(2.56471e-06 0 0)
(2.56464e-06 0 0)
(2.56456e-06 0 0)
(2.56447e-06 0 0)
(2.56438e-06 0 0)
(2.56429e-06 0 0)
(2.56419e-06 0 0)
(2.56408e-06 0 0)
(2.56397e-06 0 0)
(2.56385e-06 0 0)
(2.56372e-06 0 0)
(2.56358e-06 0 0)
(2.56344e-06 0 0)
(2.56329e-06 0 0)
(2.56313e-06 0 0)
(2.56296e-06 0 0)
(2.56279e-06 0 0)
(2.56261e-06 0 0)
(2.56242e-06 0 0)
(2.56222e-06 0 0)
(2.56202e-06 0 0)
(2.56181e-06 0 0)
(2.5616e-06 0 0)
(2.56138e-06 0 0)
(2.56117e-06 0 0)
(2.56095e-06 0 0)
(2.56073e-06 0 0)
(2.56052e-06 0 0)
(2.56031e-06 0 0)
(2.56011e-06 0 0)
(2.55992e-06 0 0)
(2.55973e-06 0 0)
(2.55956e-06 0 0)
(2.5594e-06 0 0)
(2.55926e-06 0 0)
(2.55914e-06 0 0)
(2.55904e-06 0 0)
(2.55896e-06 0 0)
(2.5589e-06 0 0)
(2.55887e-06 0 0)
(2.55886e-06 0 0)
(2.55886e-06 0 0)
(2.55887e-06 0 0)
(2.55891e-06 0 0)
(2.55899e-06 0 0)
(2.55911e-06 0 0)
(2.55925e-06 0 0)
(2.55941e-06 0 0)
(2.55959e-06 0 0)
(2.55979e-06 0 0)
(2.56e-06 0 0)
(2.56023e-06 0 0)
(2.56046e-06 0 0)
(2.56071e-06 0 0)
(2.56095e-06 0 0)
(2.5612e-06 0 0)
(2.56145e-06 0 0)
(2.5617e-06 0 0)
(2.56194e-06 0 0)
(2.56217e-06 0 0)
(2.56239e-06 0 0)
(2.5626e-06 0 0)
(2.5628e-06 0 0)
(2.56298e-06 0 0)
(2.56315e-06 0 0)
(2.56331e-06 0 0)
(2.56344e-06 0 0)
(2.56357e-06 0 0)
(2.56368e-06 0 0)
(2.56378e-06 0 0)
(2.56386e-06 0 0)
(2.56393e-06 0 0)
(2.56399e-06 0 0)
(2.56404e-06 0 0)
(2.56408e-06 0 0)
(2.56411e-06 0 0)
(2.56414e-06 0 0)
(2.56415e-06 0 0)
(2.56417e-06 0 0)
(2.56418e-06 0 0)
(2.56418e-06 0 0)
(2.56419e-06 0 0)
(2.56419e-06 0 0)
(2.5642e-06 0 0)
(2.5642e-06 0 0)
(2.5642e-06 0 0)
(2.5642e-06 0 0)
(2.56421e-06 0 0)
(2.56421e-06 0 0)
(2.56422e-06 0 0)
(2.56424e-06 0 0)
(2.56425e-06 0 0)
(2.56427e-06 0 0)
(2.56429e-06 0 0)
(2.56432e-06 0 0)
(2.56434e-06 0 0)
(2.56437e-06 0 0)
(2.56441e-06 0 0)
(2.56444e-06 0 0)
(2.56448e-06 0 0)
(2.56452e-06 0 0)
(2.56456e-06 0 0)
(2.5646e-06 0 0)
(2.56465e-06 0 0)
(2.56469e-06 0 0)
(2.56474e-06 0 0)
(2.56479e-06 0 0)
(2.56483e-06 0 0)
(2.56488e-06 0 0)
(2.56493e-06 0 0)
(2.56498e-06 0 0)
(2.56503e-06 0 0)
(2.56508e-06 0 0)
(2.56513e-06 0 0)
(2.56517e-06 0 0)
(2.56522e-06 0 0)
(2.56527e-06 0 0)
(2.56531e-06 0 0)
(2.56536e-06 0 0)
(2.5654e-06 0 0)
(2.56545e-06 0 0)
(2.56549e-06 0 0)
(2.56553e-06 0 0)
(2.56557e-06 0 0)
(2.56561e-06 0 0)
(2.56565e-06 0 0)
(2.56569e-06 0 0)
(2.56573e-06 0 0)
(2.56577e-06 0 0)
(2.56581e-06 0 0)
(2.56584e-06 0 0)
(2.56588e-06 0 0)
(2.56592e-06 0 0)
(2.56595e-06 0 0)
(2.56599e-06 0 0)
(2.56602e-06 0 0)
(2.56605e-06 0 0)
(2.56608e-06 0 0)
(2.56611e-06 0 0)
(2.56614e-06 0 0)
(2.56617e-06 0 0)
(2.5662e-06 0 0)
(2.56622e-06 0 0)
(2.56624e-06 0 0)
(2.56627e-06 0 0)
(2.56629e-06 0 0)
(2.5663e-06 0 0)
(2.56632e-06 0 0)
(2.56633e-06 0 0)
(2.56635e-06 0 0)
(2.56636e-06 0 0)
(2.56637e-06 0 0)
(2.56638e-06 0 0)
(2.56639e-06 0 0)
(2.56639e-06 0 0)
(2.5664e-06 0 0)
(2.5664e-06 0 0)
(2.5664e-06 0 0)
(2.5664e-06 0 0)
(2.5664e-06 0 0)
(2.5664e-06 0 0)
(2.5664e-06 0 0)
(2.56639e-06 0 0)
(2.56639e-06 0 0)
(2.56638e-06 0 0)
(2.56637e-06 0 0)
(2.56635e-06 0 0)
(2.56634e-06 0 0)
(2.56632e-06 0 0)
(2.56631e-06 0 0)
(2.56629e-06 0 0)
(2.56627e-06 0 0)
(2.56625e-06 0 0)
(2.56623e-06 0 0)
(2.5662e-06 0 0)
(2.56618e-06 0 0)
(2.56615e-06 0 0)
(2.56612e-06 0 0)
(2.56609e-06 0 0)
(2.56606e-06 0 0)
(2.56603e-06 0 0)
(2.566e-06 0 0)
(2.56597e-06 0 0)
(2.56593e-06 0 0)
(2.5659e-06 0 0)
(2.56586e-06 0 0)
(2.56583e-06 0 0)
(2.56579e-06 0 0)
(2.56575e-06 0 0)
(2.56571e-06 0 0)
(2.56567e-06 0 0)
(2.56563e-06 0 0)
(2.56559e-06 0 0)
(2.56555e-06 0 0)
(2.56551e-06 0 0)
(2.56547e-06 0 0)
(2.56543e-06 0 0)
(2.56538e-06 0 0)
(2.56534e-06 0 0)
(2.5653e-06 0 0)
(2.56525e-06 0 0)
(2.5652e-06 0 0)
(2.56515e-06 0 0)
(2.5651e-06 0 0)
(2.56504e-06 0 0)
(2.56499e-06 0 0)
(2.56493e-06 0 0)
(2.56487e-06 0 0)
(2.56481e-06 0 0)
(2.56474e-06 0 0)
(2.56467e-06 0 0)
(2.5646e-06 0 0)
(2.56452e-06 0 0)
(2.56444e-06 0 0)
(2.56435e-06 0 0)
(2.56426e-06 0 0)
(2.56417e-06 0 0)
(2.56407e-06 0 0)
(2.56396e-06 0 0)
(2.56385e-06 0 0)
(2.56373e-06 0 0)
(2.5636e-06 0 0)
(2.56347e-06 0 0)
(2.56334e-06 0 0)
(2.5632e-06 0 0)
(2.56305e-06 0 0)
(2.56289e-06 0 0)
(2.56274e-06 0 0)
(2.56257e-06 0 0)
(2.56241e-06 0 0)
(2.56224e-06 0 0)
(2.56206e-06 0 0)
(2.56189e-06 0 0)
(2.56171e-06 0 0)
(2.56154e-06 0 0)
(2.56136e-06 0 0)
(2.56119e-06 0 0)
(2.56102e-06 0 0)
(2.56086e-06 0 0)
(2.5607e-06 0 0)
(2.56055e-06 0 0)
(2.5604e-06 0 0)
(2.56027e-06 0 0)
(2.56015e-06 0 0)
(2.56004e-06 0 0)
(2.55994e-06 0 0)
(2.55986e-06 0 0)
(2.5598e-06 0 0)
(2.55975e-06 0 0)
(2.55972e-06 0 0)
(2.5597e-06 0 0)
(2.5597e-06 0 0)
(2.5597e-06 0 0)
(2.55971e-06 0 0)
(2.55976e-06 0 0)
(2.55984e-06 0 0)
(2.55993e-06 0 0)
(2.56005e-06 0 0)
(2.56017e-06 0 0)
(2.56032e-06 0 0)
(2.56047e-06 0 0)
(2.56064e-06 0 0)
(2.56081e-06 0 0)
(2.561e-06 0 0)
(2.56119e-06 0 0)
(2.56138e-06 0 0)
(2.56158e-06 0 0)
(2.56177e-06 0 0)
(2.56197e-06 0 0)
(2.56216e-06 0 0)
(2.56235e-06 0 0)
(2.56253e-06 0 0)
(2.5627e-06 0 0)
(2.56286e-06 0 0)
(2.56302e-06 0 0)
(2.56316e-06 0 0)
(2.5633e-06 0 0)
(2.56343e-06 0 0)
(2.56354e-06 0 0)
(2.56364e-06 0 0)
(2.56374e-06 0 0)
(2.56382e-06 0 0)
(2.56389e-06 0 0)
(2.56396e-06 0 0)
(2.56401e-06 0 0)
(2.56406e-06 0 0)
(2.5641e-06 0 0)
(2.56414e-06 0 0)
(2.56417e-06 0 0)
(2.56419e-06 0 0)
(2.56421e-06 0 0)
(2.56422e-06 0 0)
(2.56423e-06 0 0)
(2.56424e-06 0 0)
(2.56425e-06 0 0)
(2.56426e-06 0 0)
(2.56426e-06 0 0)
(2.56427e-06 0 0)
(2.56428e-06 0 0)
(2.56428e-06 0 0)
(2.56429e-06 0 0)
(2.5643e-06 0 0)
(2.56431e-06 0 0)
(2.56433e-06 0 0)
(2.56434e-06 0 0)
(2.56436e-06 0 0)
(2.56438e-06 0 0)
(2.5644e-06 0 0)
(2.56443e-06 0 0)
(2.56446e-06 0 0)
(2.56449e-06 0 0)
(2.56452e-06 0 0)
(2.56456e-06 0 0)
(2.56459e-06 0 0)
(2.56463e-06 0 0)
(2.56467e-06 0 0)
(2.56471e-06 0 0)
(2.56476e-06 0 0)
(2.5648e-06 0 0)
(2.56485e-06 0 0)
(2.5649e-06 0 0)
(2.56495e-06 0 0)
(2.565e-06 0 0)
(2.56505e-06 0 0)
(2.5651e-06 0 0)
(2.56515e-06 0 0)
(2.5652e-06 0 0)
(2.56525e-06 0 0)
(2.5653e-06 0 0)
(2.56535e-06 0 0)
(2.5654e-06 0 0)
(2.56545e-06 0 0)
(2.5655e-06 0 0)
(2.56555e-06 0 0)
(2.5656e-06 0 0)
(2.56564e-06 0 0)
(2.56569e-06 0 0)
(2.56573e-06 0 0)
(2.56578e-06 0 0)
(2.56582e-06 0 0)
(2.56586e-06 0 0)
(2.5659e-06 0 0)
(2.56594e-06 0 0)
(2.56598e-06 0 0)
(2.56601e-06 0 0)
(2.56605e-06 0 0)
(2.56608e-06 0 0)
(2.56611e-06 0 0)
(2.56615e-06 0 0)
(2.56618e-06 0 0)
(2.5662e-06 0 0)
(2.56623e-06 0 0)
(2.56626e-06 0 0)
(2.56628e-06 0 0)
(2.5663e-06 0 0)
(2.56633e-06 0 0)
(2.56635e-06 0 0)
(2.56637e-06 0 0)
(2.56639e-06 0 0)
(2.56641e-06 0 0)
(2.56642e-06 0 0)
(2.56644e-06 0 0)
(2.56645e-06 0 0)
(2.56647e-06 0 0)
(2.56648e-06 0 0)
(2.56649e-06 0 0)
(2.5665e-06 0 0)
(2.56651e-06 0 0)
(2.56652e-06 0 0)
(2.56653e-06 0 0)
(2.56653e-06 0 0)
(2.56654e-06 0 0)
(2.56654e-06 0 0)
(2.56655e-06 0 0)
(2.56655e-06 0 0)
(2.56655e-06 0 0)
(2.56655e-06 0 0)
(2.56655e-06 0 0)
(2.56655e-06 0 0)
(2.56654e-06 0 0)
(2.56654e-06 0 0)
(2.56653e-06 0 0)
(2.56652e-06 0 0)
(2.56651e-06 0 0)
(2.5665e-06 0 0)
(2.56649e-06 0 0)
(2.56647e-06 0 0)
(2.56646e-06 0 0)
(2.56644e-06 0 0)
(2.56642e-06 0 0)
(2.5664e-06 0 0)
(2.56637e-06 0 0)
(2.56635e-06 0 0)
(2.56633e-06 0 0)
(2.5663e-06 0 0)
(2.56627e-06 0 0)
(2.56624e-06 0 0)
(2.56621e-06 0 0)
(2.56617e-06 0 0)
(2.56614e-06 0 0)
(2.5661e-06 0 0)
(2.56606e-06 0 0)
(2.56603e-06 0 0)
(2.56598e-06 0 0)
(2.56594e-06 0 0)
(2.5659e-06 0 0)
(2.56585e-06 0 0)
(2.5658e-06 0 0)
(2.56575e-06 0 0)
(2.5657e-06 0 0)
(2.56565e-06 0 0)
(2.56559e-06 0 0)
(2.56554e-06 0 0)
(2.56548e-06 0 0)
(2.56541e-06 0 0)
(2.56535e-06 0 0)
(2.56528e-06 0 0)
(2.56521e-06 0 0)
(2.56514e-06 0 0)
(2.56506e-06 0 0)
(2.56498e-06 0 0)
(2.5649e-06 0 0)
(2.56481e-06 0 0)
(2.56472e-06 0 0)
(2.56462e-06 0 0)
(2.56452e-06 0 0)
(2.56442e-06 0 0)
(2.56431e-06 0 0)
(2.5642e-06 0 0)
(2.56409e-06 0 0)
(2.56396e-06 0 0)
(2.56384e-06 0 0)
(2.56371e-06 0 0)
(2.56357e-06 0 0)
(2.56344e-06 0 0)
(2.56329e-06 0 0)
(2.56315e-06 0 0)
(2.563e-06 0 0)
(2.56284e-06 0 0)
(2.56269e-06 0 0)
(2.56253e-06 0 0)
(2.56237e-06 0 0)
(2.5622e-06 0 0)
(2.56204e-06 0 0)
(2.56188e-06 0 0)
(2.56172e-06 0 0)
(2.56156e-06 0 0)
(2.5614e-06 0 0)
(2.56124e-06 0 0)
(2.56109e-06 0 0)
(2.56095e-06 0 0)
(2.56081e-06 0 0)
(2.56067e-06 0 0)
(2.56055e-06 0 0)
(2.56043e-06 0 0)
(2.56032e-06 0 0)
(2.56022e-06 0 0)
(2.56014e-06 0 0)
(2.56006e-06 0 0)
(2.56e-06 0 0)
(2.55995e-06 0 0)
(2.55992e-06 0 0)
(2.5599e-06 0 0)
(2.55989e-06 0 0)
(2.55989e-06 0 0)
(2.55989e-06 0 0)
(2.55991e-06 0 0)
(2.55995e-06 0 0)
(2.56002e-06 0 0)
(2.5601e-06 0 0)
(2.56019e-06 0 0)
(2.56029e-06 0 0)
(2.56041e-06 0 0)
(2.56053e-06 0 0)
(2.56066e-06 0 0)
(2.5608e-06 0 0)
(2.56095e-06 0 0)
(2.5611e-06 0 0)
(2.56126e-06 0 0)
(2.56142e-06 0 0)
(2.56158e-06 0 0)
(2.56174e-06 0 0)
(2.56189e-06 0 0)
(2.56205e-06 0 0)
(2.5622e-06 0 0)
(2.56235e-06 0 0)
(2.56249e-06 0 0)
(2.56262e-06 0 0)
(2.56275e-06 0 0)
(2.56288e-06 0 0)
(2.56299e-06 0 0)
(2.5631e-06 0 0)
(2.5632e-06 0 0)
(2.5633e-06 0 0)
(2.56338e-06 0 0)
(2.56346e-06 0 0)
(2.56353e-06 0 0)
(2.5636e-06 0 0)
(2.56366e-06 0 0)
(2.56371e-06 0 0)
(2.56376e-06 0 0)
(2.5638e-06 0 0)
(2.56384e-06 0 0)
(2.56387e-06 0 0)
(2.5639e-06 0 0)
(2.56393e-06 0 0)
(2.56395e-06 0 0)
(2.56397e-06 0 0)
(2.564e-06 0 0)
(2.56402e-06 0 0)
(2.56403e-06 0 0)
(2.56405e-06 0 0)
(2.56407e-06 0 0)
(2.56409e-06 0 0)
(2.56411e-06 0 0)
(2.56413e-06 0 0)
(2.56415e-06 0 0)
(2.56417e-06 0 0)
(2.56419e-06 0 0)
(2.56422e-06 0 0)
(2.56424e-06 0 0)
(2.56427e-06 0 0)
(2.5643e-06 0 0)
(2.56433e-06 0 0)
(2.56436e-06 0 0)
(2.5644e-06 0 0)
(2.56443e-06 0 0)
(2.56447e-06 0 0)
(2.56451e-06 0 0)
(2.56455e-06 0 0)
(2.56459e-06 0 0)
(2.56463e-06 0 0)
(2.56468e-06 0 0)
(2.56472e-06 0 0)
(2.56477e-06 0 0)
(2.56482e-06 0 0)
(2.56487e-06 0 0)
(2.56492e-06 0 0)
(2.56497e-06 0 0)
(2.56502e-06 0 0)
(2.56507e-06 0 0)
(2.56512e-06 0 0)
(2.56517e-06 0 0)
(2.56522e-06 0 0)
(2.56527e-06 0 0)
(2.56532e-06 0 0)
(2.56537e-06 0 0)
(2.56542e-06 0 0)
(2.56547e-06 0 0)
(2.56552e-06 0 0)
(2.56557e-06 0 0)
(2.56561e-06 0 0)
(2.56566e-06 0 0)
(2.56571e-06 0 0)
(2.56575e-06 0 0)
(2.56579e-06 0 0)
(2.56583e-06 0 0)
(2.56587e-06 0 0)
(2.56591e-06 0 0)
(2.56595e-06 0 0)
(2.56599e-06 0 0)
(2.56602e-06 0 0)
(2.56606e-06 0 0)
(2.56609e-06 0 0)
(2.56612e-06 0 0)
(2.56615e-06 0 0)
(2.56617e-06 0 0)
(2.5662e-06 0 0)
(2.56622e-06 0 0)
(2.56625e-06 0 0)
)
;

boundaryField
{
    inlet
    {
        type            fixedValue;
        value           uniform (1.13622e-05 0 0);
    }
    outlet
    {
        type            zeroGradient;
    }
    emptyWalls
    {
        type            empty;
    }
}


// ************************************************************************* //
