/*--------------------------------*- C++ -*----------------------------------*\
  =========                 |
  \\      /  F ield         | OpenFOAM: The Open Source CFD Toolbox
   \\    /   O peration     | Website:  https://openfoam.org
    \\  /    A nd           | Version:  9
     \\/     M anipulation  |
\*---------------------------------------------------------------------------*/
FoamFile
{
    format      ascii;
    class       volVectorField;
    location    "7750";
    object      Uc;
}
// * * * * * * * * * * * * * * * * * * * * * * * * * * * * * * * * * * * * * //

dimensions      [0 0 0 0 0 0 0];

internalField   nonuniform List<vector> 
1000
(
(5.54288e-11 0 0)
(3.06462e-10 0 0)
(8.05807e-10 0 0)
(1.49421e-09 0 0)
(2.30915e-09 0 0)
(3.18506e-09 0 0)
(4.13064e-09 0 0)
(5.61146e-09 0 0)
(9.90529e-09 0 0)
(2.55827e-08 0 0)
(1.01217e-07 0 0)
(1.84148e-07 0 0)
(2.09891e-07 0 0)
(2.19102e-07 0 0)
(2.24424e-07 0 0)
(2.28396e-07 0 0)
(2.31726e-07 0 0)
(2.34667e-07 0 0)
(2.37335e-07 0 0)
(2.39805e-07 0 0)
(2.4215e-07 0 0)
(2.44451e-07 0 0)
(2.46793e-07 0 0)
(2.49295e-07 0 0)
(2.52149e-07 0 0)
(2.55471e-07 0 0)
(2.5942e-07 0 0)
(2.6435e-07 0 0)
(2.70652e-07 0 0)
(2.7854e-07 0 0)
(2.87887e-07 0 0)
(2.98322e-07 0 0)
(3.09493e-07 0 0)
(3.21172e-07 0 0)
(3.33218e-07 0 0)
(3.4554e-07 0 0)
(3.58079e-07 0 0)
(3.70797e-07 0 0)
(3.83664e-07 0 0)
(3.96662e-07 0 0)
(4.09776e-07 0 0)
(4.22994e-07 0 0)
(4.36308e-07 0 0)
(4.49712e-07 0 0)
(4.632e-07 0 0)
(4.76767e-07 0 0)
(4.90408e-07 0 0)
(5.04121e-07 0 0)
(5.17902e-07 0 0)
(5.31748e-07 0 0)
(5.45656e-07 0 0)
(5.59626e-07 0 0)
(5.73654e-07 0 0)
(5.87739e-07 0 0)
(6.01879e-07 0 0)
(6.16072e-07 0 0)
(6.30318e-07 0 0)
(6.44614e-07 0 0)
(6.5896e-07 0 0)
(6.73355e-07 0 0)
(6.87797e-07 0 0)
(7.02285e-07 0 0)
(7.1682e-07 0 0)
(7.314e-07 0 0)
(7.46024e-07 0 0)
(7.60691e-07 0 0)
(7.75402e-07 0 0)
(7.90155e-07 0 0)
(8.04951e-07 0 0)
(8.19788e-07 0 0)
(8.34664e-07 0 0)
(8.49578e-07 0 0)
(8.64528e-07 0 0)
(8.79514e-07 0 0)
(8.94536e-07 0 0)
(9.09594e-07 0 0)
(9.24687e-07 0 0)
(9.39816e-07 0 0)
(9.54981e-07 0 0)
(9.70181e-07 0 0)
(9.85413e-07 0 0)
(1.00067e-06 0 0)
(1.01596e-06 0 0)
(1.03127e-06 0 0)
(1.0466e-06 0 0)
(1.06194e-06 0 0)
(1.0773e-06 0 0)
(1.09267e-06 0 0)
(1.10806e-06 0 0)
(1.12346e-06 0 0)
(1.13889e-06 0 0)
(1.15433e-06 0 0)
(1.1698e-06 0 0)
(1.18531e-06 0 0)
(1.20085e-06 0 0)
(1.21643e-06 0 0)
(1.23207e-06 0 0)
(1.24777e-06 0 0)
(1.26353e-06 0 0)
(1.27937e-06 0 0)
(1.29529e-06 0 0)
(1.31129e-06 0 0)
(1.32738e-06 0 0)
(1.34357e-06 0 0)
(1.35984e-06 0 0)
(1.37619e-06 0 0)
(1.39261e-06 0 0)
(1.4091e-06 0 0)
(1.42564e-06 0 0)
(1.44223e-06 0 0)
(1.45885e-06 0 0)
(1.47549e-06 0 0)
(1.49215e-06 0 0)
(1.50881e-06 0 0)
(1.52548e-06 0 0)
(1.54215e-06 0 0)
(1.55882e-06 0 0)
(1.57549e-06 0 0)
(1.59217e-06 0 0)
(1.60886e-06 0 0)
(1.62556e-06 0 0)
(1.64227e-06 0 0)
(1.65901e-06 0 0)
(1.67578e-06 0 0)
(1.69257e-06 0 0)
(1.7094e-06 0 0)
(1.72627e-06 0 0)
(1.74318e-06 0 0)
(1.76013e-06 0 0)
(1.77712e-06 0 0)
(1.79416e-06 0 0)
(1.81125e-06 0 0)
(1.82838e-06 0 0)
(1.84556e-06 0 0)
(1.86278e-06 0 0)
(1.88005e-06 0 0)
(1.89736e-06 0 0)
(1.91472e-06 0 0)
(1.93212e-06 0 0)
(1.94957e-06 0 0)
(1.96706e-06 0 0)
(1.98459e-06 0 0)
(2.00216e-06 0 0)
(2.01977e-06 0 0)
(2.03743e-06 0 0)
(2.05513e-06 0 0)
(2.07287e-06 0 0)
(2.09066e-06 0 0)
(2.10849e-06 0 0)
(2.12636e-06 0 0)
(2.14427e-06 0 0)
(2.16223e-06 0 0)
(2.18023e-06 0 0)
(2.19828e-06 0 0)
(2.21637e-06 0 0)
(2.2345e-06 0 0)
(2.25268e-06 0 0)
(2.27091e-06 0 0)
(2.28918e-06 0 0)
(2.3075e-06 0 0)
(2.32587e-06 0 0)
(2.34428e-06 0 0)
(2.36275e-06 0 0)
(2.38125e-06 0 0)
(2.39981e-06 0 0)
(2.41842e-06 0 0)
(2.43707e-06 0 0)
(2.45578e-06 0 0)
(2.47453e-06 0 0)
(2.49333e-06 0 0)
(2.51218e-06 0 0)
(2.53109e-06 0 0)
(2.55004e-06 0 0)
(2.56904e-06 0 0)
(2.5881e-06 0 0)
(2.6072e-06 0 0)
(2.62636e-06 0 0)
(2.64557e-06 0 0)
(2.66483e-06 0 0)
(2.68415e-06 0 0)
(2.70352e-06 0 0)
(2.72294e-06 0 0)
(2.74242e-06 0 0)
(2.76195e-06 0 0)
(2.78154e-06 0 0)
(2.80118e-06 0 0)
(2.82088e-06 0 0)
(2.84064e-06 0 0)
(2.86046e-06 0 0)
(2.88033e-06 0 0)
(2.90027e-06 0 0)
(2.92026e-06 0 0)
(2.94032e-06 0 0)
(2.96043e-06 0 0)
(2.98061e-06 0 0)
(3.00086e-06 0 0)
(3.02117e-06 0 0)
(3.04154e-06 0 0)
(3.06198e-06 0 0)
(3.08248e-06 0 0)
(3.10305e-06 0 0)
(3.1237e-06 0 0)
(3.14441e-06 0 0)
(3.16519e-06 0 0)
(3.18604e-06 0 0)
(3.20697e-06 0 0)
(3.22797e-06 0 0)
(3.24904e-06 0 0)
(3.27019e-06 0 0)
(3.29141e-06 0 0)
(3.31271e-06 0 0)
(3.3341e-06 0 0)
(3.35556e-06 0 0)
(3.3771e-06 0 0)
(3.39872e-06 0 0)
(3.42043e-06 0 0)
(3.44222e-06 0 0)
(3.46409e-06 0 0)
(3.48605e-06 0 0)
(3.5081e-06 0 0)
(3.53023e-06 0 0)
(3.55246e-06 0 0)
(3.57477e-06 0 0)
(3.59718e-06 0 0)
(3.61968e-06 0 0)
(3.64227e-06 0 0)
(3.66495e-06 0 0)
(3.68773e-06 0 0)
(3.71061e-06 0 0)
(3.73359e-06 0 0)
(3.75666e-06 0 0)
(3.77984e-06 0 0)
(3.80311e-06 0 0)
(3.82649e-06 0 0)
(3.84996e-06 0 0)
(3.87354e-06 0 0)
(3.89723e-06 0 0)
(3.92101e-06 0 0)
(3.9449e-06 0 0)
(3.96889e-06 0 0)
(3.99298e-06 0 0)
(4.01718e-06 0 0)
(4.04148e-06 0 0)
(4.06588e-06 0 0)
(4.09039e-06 0 0)
(4.11501e-06 0 0)
(4.13973e-06 0 0)
(4.16457e-06 0 0)
(4.18952e-06 0 0)
(4.21459e-06 0 0)
(4.23979e-06 0 0)
(4.26512e-06 0 0)
(4.29059e-06 0 0)
(4.31621e-06 0 0)
(4.34199e-06 0 0)
(4.36792e-06 0 0)
(4.39404e-06 0 0)
(4.42033e-06 0 0)
(4.44682e-06 0 0)
(4.47352e-06 0 0)
(4.50044e-06 0 0)
(4.52759e-06 0 0)
(4.55497e-06 0 0)
(4.58262e-06 0 0)
(4.61052e-06 0 0)
(4.6387e-06 0 0)
(4.66716e-06 0 0)
(4.6959e-06 0 0)
(4.72493e-06 0 0)
(4.75425e-06 0 0)
(4.78387e-06 0 0)
(4.81378e-06 0 0)
(4.84398e-06 0 0)
(4.87447e-06 0 0)
(4.90523e-06 0 0)
(4.93627e-06 0 0)
(4.96756e-06 0 0)
(4.9991e-06 0 0)
(5.03088e-06 0 0)
(5.06287e-06 0 0)
(5.09507e-06 0 0)
(5.12743e-06 0 0)
(5.15995e-06 0 0)
(5.19257e-06 0 0)
(5.22526e-06 0 0)
(5.25797e-06 0 0)
(5.29062e-06 0 0)
(5.32316e-06 0 0)
(5.35546e-06 0 0)
(5.38741e-06 0 0)
(5.41886e-06 0 0)
(5.44966e-06 0 0)
(5.47963e-06 0 0)
(5.50857e-06 0 0)
(5.53628e-06 0 0)
(5.56257e-06 0 0)
(5.58727e-06 0 0)
(5.61027e-06 0 0)
(5.63155e-06 0 0)
(5.65123e-06 0 0)
(5.6697e-06 0 0)
(5.68771e-06 0 0)
(5.70669e-06 0 0)
(5.72919e-06 0 0)
(5.75967e-06 0 0)
(5.80581e-06 0 0)
(5.88038e-06 0 0)
(6.00345e-06 0 0)
(6.20347e-06 0 0)
(6.51282e-06 0 0)
(6.95206e-06 0 0)
(7.50369e-06 0 0)
(8.09736e-06 0 0)
(8.63596e-06 0 0)
(9.04986e-06 0 0)
(9.32613e-06 0 0)
(9.49225e-06 0 0)
(9.58557e-06 0 0)
(9.63592e-06 0 0)
(9.66252e-06 0 0)
(9.67644e-06 0 0)
(9.68372e-06 0 0)
(9.68756e-06 0 0)
(9.68962e-06 0 0)
(9.69078e-06 0 0)
(9.69146e-06 0 0)
(9.69191e-06 0 0)
(9.69223e-06 0 0)
(9.69249e-06 0 0)
(9.69271e-06 0 0)
(9.69292e-06 0 0)
(9.69312e-06 0 0)
(9.69331e-06 0 0)
(9.6935e-06 0 0)
(9.69368e-06 0 0)
(9.69387e-06 0 0)
(9.69405e-06 0 0)
(9.69423e-06 0 0)
(9.6944e-06 0 0)
(9.69458e-06 0 0)
(9.69475e-06 0 0)
(9.69492e-06 0 0)
(9.69509e-06 0 0)
(9.69526e-06 0 0)
(9.69542e-06 0 0)
(9.69558e-06 0 0)
(9.69574e-06 0 0)
(9.6959e-06 0 0)
(9.69606e-06 0 0)
(9.69621e-06 0 0)
(9.69636e-06 0 0)
(9.69651e-06 0 0)
(9.69666e-06 0 0)
(9.6968e-06 0 0)
(9.69694e-06 0 0)
(9.69708e-06 0 0)
(9.69721e-06 0 0)
(9.69734e-06 0 0)
(9.69746e-06 0 0)
(9.69758e-06 0 0)
(9.6977e-06 0 0)
(9.69781e-06 0 0)
(9.69791e-06 0 0)
(9.69801e-06 0 0)
(9.6981e-06 0 0)
(9.69819e-06 0 0)
(9.69827e-06 0 0)
(9.69834e-06 0 0)
(9.6984e-06 0 0)
(9.69846e-06 0 0)
(9.69851e-06 0 0)
(9.69855e-06 0 0)
(9.69858e-06 0 0)
(9.6986e-06 0 0)
(9.69862e-06 0 0)
(9.69862e-06 0 0)
(9.69863e-06 0 0)
(9.69863e-06 0 0)
(9.69862e-06 0 0)
(9.69859e-06 0 0)
(9.69856e-06 0 0)
(9.69852e-06 0 0)
(9.69847e-06 0 0)
(9.69841e-06 0 0)
(9.69835e-06 0 0)
(9.69828e-06 0 0)
(9.69821e-06 0 0)
(9.69813e-06 0 0)
(9.69805e-06 0 0)
(9.69796e-06 0 0)
(9.69786e-06 0 0)
(9.69776e-06 0 0)
(9.69766e-06 0 0)
(9.69755e-06 0 0)
(9.69744e-06 0 0)
(9.69733e-06 0 0)
(9.69721e-06 0 0)
(9.69709e-06 0 0)
(9.69697e-06 0 0)
(9.69684e-06 0 0)
(9.69672e-06 0 0)
(9.69659e-06 0 0)
(9.69646e-06 0 0)
(9.69633e-06 0 0)
(9.6962e-06 0 0)
(9.69607e-06 0 0)
(9.69594e-06 0 0)
(9.6958e-06 0 0)
(9.69567e-06 0 0)
(9.69553e-06 0 0)
(9.69539e-06 0 0)
(9.69525e-06 0 0)
(9.69511e-06 0 0)
(9.69496e-06 0 0)
(9.69482e-06 0 0)
(9.69467e-06 0 0)
(9.69452e-06 0 0)
(9.69437e-06 0 0)
(9.69421e-06 0 0)
(9.69405e-06 0 0)
(9.69388e-06 0 0)
(9.69371e-06 0 0)
(9.69354e-06 0 0)
(9.69336e-06 0 0)
(9.69317e-06 0 0)
(9.69297e-06 0 0)
(9.69277e-06 0 0)
(9.69255e-06 0 0)
(9.69233e-06 0 0)
(9.69209e-06 0 0)
(9.69184e-06 0 0)
(9.69157e-06 0 0)
(9.69129e-06 0 0)
(9.69099e-06 0 0)
(9.69068e-06 0 0)
(9.69034e-06 0 0)
(9.68998e-06 0 0)
(9.68959e-06 0 0)
(9.68918e-06 0 0)
(9.68875e-06 0 0)
(9.68828e-06 0 0)
(9.68779e-06 0 0)
(9.68727e-06 0 0)
(9.68671e-06 0 0)
(9.68613e-06 0 0)
(9.68551e-06 0 0)
(9.68487e-06 0 0)
(9.68419e-06 0 0)
(9.68349e-06 0 0)
(9.68276e-06 0 0)
(9.68201e-06 0 0)
(9.68124e-06 0 0)
(9.68046e-06 0 0)
(9.67966e-06 0 0)
(9.67885e-06 0 0)
(9.67804e-06 0 0)
(9.67723e-06 0 0)
(9.67644e-06 0 0)
(9.67566e-06 0 0)
(9.6749e-06 0 0)
(9.67418e-06 0 0)
(9.67349e-06 0 0)
(9.67285e-06 0 0)
(9.67226e-06 0 0)
(9.67173e-06 0 0)
(9.67127e-06 0 0)
(9.67089e-06 0 0)
(9.67058e-06 0 0)
(9.67036e-06 0 0)
(9.67023e-06 0 0)
(9.67018e-06 0 0)
(9.67016e-06 0 0)
(9.67018e-06 0 0)
(9.67032e-06 0 0)
(9.67062e-06 0 0)
(9.67103e-06 0 0)
(9.67154e-06 0 0)
(9.67212e-06 0 0)
(9.67278e-06 0 0)
(9.67351e-06 0 0)
(9.67429e-06 0 0)
(9.67512e-06 0 0)
(9.67598e-06 0 0)
(9.67688e-06 0 0)
(9.67779e-06 0 0)
(9.6787e-06 0 0)
(9.67962e-06 0 0)
(9.68052e-06 0 0)
(9.6814e-06 0 0)
(9.68225e-06 0 0)
(9.68306e-06 0 0)
(9.68383e-06 0 0)
(9.68456e-06 0 0)
(9.68523e-06 0 0)
(9.68585e-06 0 0)
(9.68642e-06 0 0)
(9.68694e-06 0 0)
(9.68739e-06 0 0)
(9.6878e-06 0 0)
(9.68815e-06 0 0)
(9.68846e-06 0 0)
(9.68872e-06 0 0)
(9.68894e-06 0 0)
(9.68912e-06 0 0)
(9.68927e-06 0 0)
(9.68938e-06 0 0)
(9.68947e-06 0 0)
(9.68954e-06 0 0)
(9.6896e-06 0 0)
(9.68963e-06 0 0)
(9.68966e-06 0 0)
(9.68968e-06 0 0)
(9.68969e-06 0 0)
(9.6897e-06 0 0)
(9.68971e-06 0 0)
(9.68972e-06 0 0)
(9.68973e-06 0 0)
(9.68975e-06 0 0)
(9.68978e-06 0 0)
(9.68981e-06 0 0)
(9.68986e-06 0 0)
(9.68992e-06 0 0)
(9.68999e-06 0 0)
(9.69007e-06 0 0)
(9.69016e-06 0 0)
(9.69026e-06 0 0)
(9.69037e-06 0 0)
(9.69049e-06 0 0)
(9.69062e-06 0 0)
(9.69076e-06 0 0)
(9.69091e-06 0 0)
(9.69107e-06 0 0)
(9.69123e-06 0 0)
(9.6914e-06 0 0)
(9.69157e-06 0 0)
(9.69175e-06 0 0)
(9.69193e-06 0 0)
(9.69211e-06 0 0)
(9.6923e-06 0 0)
(9.69248e-06 0 0)
(9.69267e-06 0 0)
(9.69286e-06 0 0)
(9.69305e-06 0 0)
(9.69324e-06 0 0)
(9.69342e-06 0 0)
(9.6936e-06 0 0)
(9.69378e-06 0 0)
(9.69396e-06 0 0)
(9.69414e-06 0 0)
(9.69431e-06 0 0)
(9.69448e-06 0 0)
(9.69464e-06 0 0)
(9.6948e-06 0 0)
(9.69496e-06 0 0)
(9.69511e-06 0 0)
(9.69525e-06 0 0)
(9.69539e-06 0 0)
(9.69552e-06 0 0)
(9.69565e-06 0 0)
(9.69577e-06 0 0)
(9.69589e-06 0 0)
(9.69601e-06 0 0)
(9.69612e-06 0 0)
(9.69622e-06 0 0)
(9.69632e-06 0 0)
(9.69642e-06 0 0)
(9.69651e-06 0 0)
(9.6966e-06 0 0)
(9.69668e-06 0 0)
(9.69676e-06 0 0)
(9.69684e-06 0 0)
(9.69691e-06 0 0)
(9.69698e-06 0 0)
(9.69705e-06 0 0)
(9.69711e-06 0 0)
(9.69718e-06 0 0)
(9.69724e-06 0 0)
(9.69729e-06 0 0)
(9.69734e-06 0 0)
(9.69739e-06 0 0)
(9.69743e-06 0 0)
(9.69747e-06 0 0)
(9.69751e-06 0 0)
(9.69754e-06 0 0)
(9.69757e-06 0 0)
(9.69759e-06 0 0)
(9.69761e-06 0 0)
(9.69762e-06 0 0)
(9.69763e-06 0 0)
(9.69763e-06 0 0)
(9.69763e-06 0 0)
(9.69763e-06 0 0)
(9.69762e-06 0 0)
(9.6976e-06 0 0)
(9.69757e-06 0 0)
(9.69754e-06 0 0)
(9.6975e-06 0 0)
(9.69746e-06 0 0)
(9.69741e-06 0 0)
(9.69735e-06 0 0)
(9.69729e-06 0 0)
(9.69722e-06 0 0)
(9.69715e-06 0 0)
(9.69707e-06 0 0)
(9.69699e-06 0 0)
(9.6969e-06 0 0)
(9.69681e-06 0 0)
(9.69671e-06 0 0)
(9.6966e-06 0 0)
(9.6965e-06 0 0)
(9.69639e-06 0 0)
(9.69627e-06 0 0)
(9.69615e-06 0 0)
(9.69603e-06 0 0)
(9.69591e-06 0 0)
(9.69578e-06 0 0)
(9.69565e-06 0 0)
(9.69552e-06 0 0)
(9.69538e-06 0 0)
(9.69525e-06 0 0)
(9.69511e-06 0 0)
(9.69496e-06 0 0)
(9.69482e-06 0 0)
(9.69467e-06 0 0)
(9.69453e-06 0 0)
(9.69437e-06 0 0)
(9.69422e-06 0 0)
(9.69406e-06 0 0)
(9.6939e-06 0 0)
(9.69373e-06 0 0)
(9.69356e-06 0 0)
(9.69339e-06 0 0)
(9.69321e-06 0 0)
(9.69302e-06 0 0)
(9.69283e-06 0 0)
(9.69263e-06 0 0)
(9.69242e-06 0 0)
(9.6922e-06 0 0)
(9.69197e-06 0 0)
(9.69173e-06 0 0)
(9.69147e-06 0 0)
(9.6912e-06 0 0)
(9.69092e-06 0 0)
(9.69062e-06 0 0)
(9.69031e-06 0 0)
(9.68997e-06 0 0)
(9.68962e-06 0 0)
(9.68925e-06 0 0)
(9.68885e-06 0 0)
(9.68844e-06 0 0)
(9.688e-06 0 0)
(9.68754e-06 0 0)
(9.68706e-06 0 0)
(9.68655e-06 0 0)
(9.68603e-06 0 0)
(9.68548e-06 0 0)
(9.68492e-06 0 0)
(9.68433e-06 0 0)
(9.68373e-06 0 0)
(9.68311e-06 0 0)
(9.68249e-06 0 0)
(9.68185e-06 0 0)
(9.6812e-06 0 0)
(9.68055e-06 0 0)
(9.6799e-06 0 0)
(9.67925e-06 0 0)
(9.67861e-06 0 0)
(9.67798e-06 0 0)
(9.67737e-06 0 0)
(9.67679e-06 0 0)
(9.67622e-06 0 0)
(9.67569e-06 0 0)
(9.6752e-06 0 0)
(9.67475e-06 0 0)
(9.67434e-06 0 0)
(9.67398e-06 0 0)
(9.67368e-06 0 0)
(9.67343e-06 0 0)
(9.67325e-06 0 0)
(9.67313e-06 0 0)
(9.67308e-06 0 0)
(9.67306e-06 0 0)
(9.67306e-06 0 0)
(9.67311e-06 0 0)
(9.67329e-06 0 0)
(9.67359e-06 0 0)
(9.67394e-06 0 0)
(9.67435e-06 0 0)
(9.67482e-06 0 0)
(9.67535e-06 0 0)
(9.67592e-06 0 0)
(9.67654e-06 0 0)
(9.67719e-06 0 0)
(9.67787e-06 0 0)
(9.67857e-06 0 0)
(9.67929e-06 0 0)
(9.68001e-06 0 0)
(9.68074e-06 0 0)
(9.68146e-06 0 0)
(9.68217e-06 0 0)
(9.68286e-06 0 0)
(9.68352e-06 0 0)
(9.68417e-06 0 0)
(9.68478e-06 0 0)
(9.68535e-06 0 0)
(9.68589e-06 0 0)
(9.6864e-06 0 0)
(9.68686e-06 0 0)
(9.68728e-06 0 0)
(9.68767e-06 0 0)
(9.68801e-06 0 0)
(9.68832e-06 0 0)
(9.68859e-06 0 0)
(9.68883e-06 0 0)
(9.68904e-06 0 0)
(9.68921e-06 0 0)
(9.68936e-06 0 0)
(9.68949e-06 0 0)
(9.68959e-06 0 0)
(9.68968e-06 0 0)
(9.68975e-06 0 0)
(9.68981e-06 0 0)
(9.68985e-06 0 0)
(9.68989e-06 0 0)
(9.68992e-06 0 0)
(9.68994e-06 0 0)
(9.68996e-06 0 0)
(9.68998e-06 0 0)
(9.69001e-06 0 0)
(9.69004e-06 0 0)
(9.69007e-06 0 0)
(9.6901e-06 0 0)
(9.69015e-06 0 0)
(9.6902e-06 0 0)
(9.69026e-06 0 0)
(9.69033e-06 0 0)
(9.69041e-06 0 0)
(9.69049e-06 0 0)
(9.69059e-06 0 0)
(9.69069e-06 0 0)
(9.69081e-06 0 0)
(9.69093e-06 0 0)
(9.69106e-06 0 0)
(9.6912e-06 0 0)
(9.69135e-06 0 0)
(9.6915e-06 0 0)
(9.69166e-06 0 0)
(9.69182e-06 0 0)
(9.69199e-06 0 0)
(9.69217e-06 0 0)
(9.69234e-06 0 0)
(9.69252e-06 0 0)
(9.69271e-06 0 0)
(9.69289e-06 0 0)
(9.69308e-06 0 0)
(9.69326e-06 0 0)
(9.69345e-06 0 0)
(9.69364e-06 0 0)
(9.69382e-06 0 0)
(9.694e-06 0 0)
(9.69419e-06 0 0)
(9.69436e-06 0 0)
(9.69454e-06 0 0)
(9.69471e-06 0 0)
(9.69488e-06 0 0)
(9.69505e-06 0 0)
(9.69521e-06 0 0)
(9.69537e-06 0 0)
(9.69553e-06 0 0)
(9.69568e-06 0 0)
(9.69582e-06 0 0)
(9.69596e-06 0 0)
(9.6961e-06 0 0)
(9.69623e-06 0 0)
(9.69636e-06 0 0)
(9.69649e-06 0 0)
(9.6966e-06 0 0)
(9.69672e-06 0 0)
(9.69683e-06 0 0)
(9.69694e-06 0 0)
(9.69704e-06 0 0)
(9.69713e-06 0 0)
(9.69723e-06 0 0)
(9.69732e-06 0 0)
(9.6974e-06 0 0)
(9.69749e-06 0 0)
(9.69757e-06 0 0)
(9.69764e-06 0 0)
(9.69771e-06 0 0)
(9.69778e-06 0 0)
(9.69784e-06 0 0)
(9.6979e-06 0 0)
(9.69796e-06 0 0)
(9.69801e-06 0 0)
(9.69807e-06 0 0)
(9.69811e-06 0 0)
(9.69815e-06 0 0)
(9.69819e-06 0 0)
(9.69823e-06 0 0)
(9.69826e-06 0 0)
(9.69829e-06 0 0)
(9.69831e-06 0 0)
(9.69833e-06 0 0)
(9.69834e-06 0 0)
(9.69835e-06 0 0)
(9.69836e-06 0 0)
(9.69836e-06 0 0)
(9.69836e-06 0 0)
(9.69836e-06 0 0)
(9.69835e-06 0 0)
(9.69833e-06 0 0)
(9.69831e-06 0 0)
(9.69828e-06 0 0)
(9.69824e-06 0 0)
(9.6982e-06 0 0)
(9.69815e-06 0 0)
(9.6981e-06 0 0)
(9.69804e-06 0 0)
(9.69798e-06 0 0)
(9.69791e-06 0 0)
(9.69783e-06 0 0)
(9.69775e-06 0 0)
(9.69766e-06 0 0)
(9.69757e-06 0 0)
(9.69747e-06 0 0)
(9.69736e-06 0 0)
(9.69725e-06 0 0)
(9.69713e-06 0 0)
(9.69701e-06 0 0)
(9.69688e-06 0 0)
(9.69675e-06 0 0)
(9.6966e-06 0 0)
(9.69646e-06 0 0)
(9.69631e-06 0 0)
(9.69615e-06 0 0)
(9.69598e-06 0 0)
(9.69581e-06 0 0)
(9.69564e-06 0 0)
(9.69545e-06 0 0)
(9.69526e-06 0 0)
(9.69506e-06 0 0)
(9.69485e-06 0 0)
(9.69464e-06 0 0)
(9.69442e-06 0 0)
(9.69419e-06 0 0)
(9.69395e-06 0 0)
(9.6937e-06 0 0)
(9.69344e-06 0 0)
(9.69316e-06 0 0)
(9.69288e-06 0 0)
(9.69258e-06 0 0)
(9.69228e-06 0 0)
(9.69195e-06 0 0)
(9.69162e-06 0 0)
(9.69126e-06 0 0)
(9.6909e-06 0 0)
(9.69052e-06 0 0)
(9.69012e-06 0 0)
(9.6897e-06 0 0)
(9.68927e-06 0 0)
(9.68882e-06 0 0)
(9.68836e-06 0 0)
(9.68788e-06 0 0)
(9.68738e-06 0 0)
(9.68686e-06 0 0)
(9.68634e-06 0 0)
(9.68579e-06 0 0)
(9.68524e-06 0 0)
(9.68467e-06 0 0)
(9.68409e-06 0 0)
(9.6835e-06 0 0)
(9.68291e-06 0 0)
(9.68231e-06 0 0)
(9.68171e-06 0 0)
(9.6811e-06 0 0)
(9.6805e-06 0 0)
(9.67991e-06 0 0)
(9.67932e-06 0 0)
(9.67875e-06 0 0)
(9.67819e-06 0 0)
(9.67765e-06 0 0)
(9.67713e-06 0 0)
(9.67663e-06 0 0)
(9.67616e-06 0 0)
(9.67573e-06 0 0)
(9.67533e-06 0 0)
(9.67497e-06 0 0)
(9.67465e-06 0 0)
(9.67437e-06 0 0)
(9.67414e-06 0 0)
(9.67396e-06 0 0)
(9.67383e-06 0 0)
(9.67375e-06 0 0)
(9.67372e-06 0 0)
(9.67372e-06 0 0)
(9.67373e-06 0 0)
(9.67381e-06 0 0)
(9.67398e-06 0 0)
(9.67422e-06 0 0)
(9.67451e-06 0 0)
(9.67484e-06 0 0)
(9.67523e-06 0 0)
(9.67565e-06 0 0)
(9.67611e-06 0 0)
(9.6766e-06 0 0)
(9.67712e-06 0 0)
(9.67767e-06 0 0)
(9.67823e-06 0 0)
(9.67881e-06 0 0)
(9.67939e-06 0 0)
(9.67998e-06 0 0)
(9.68057e-06 0 0)
(9.68115e-06 0 0)
(9.68173e-06 0 0)
(9.68229e-06 0 0)
(9.68283e-06 0 0)
(9.68336e-06 0 0)
(9.68386e-06 0 0)
(9.68434e-06 0 0)
(9.6848e-06 0 0)
(9.68522e-06 0 0)
(9.68563e-06 0 0)
(9.686e-06 0 0)
(9.68634e-06 0 0)
(9.68666e-06 0 0)
(9.68695e-06 0 0)
(9.68722e-06 0 0)
(9.68746e-06 0 0)
(9.68768e-06 0 0)
(9.68787e-06 0 0)
(9.68805e-06 0 0)
(9.6882e-06 0 0)
(9.68834e-06 0 0)
(9.68847e-06 0 0)
(9.68858e-06 0 0)
(9.68868e-06 0 0)
(9.68877e-06 0 0)
(9.68886e-06 0 0)
(9.68893e-06 0 0)
(9.68901e-06 0 0)
(9.68908e-06 0 0)
(9.68914e-06 0 0)
(9.68921e-06 0 0)
(9.68928e-06 0 0)
(9.68935e-06 0 0)
(9.68942e-06 0 0)
(9.6895e-06 0 0)
(9.68958e-06 0 0)
(9.68966e-06 0 0)
(9.68975e-06 0 0)
(9.68985e-06 0 0)
(9.68995e-06 0 0)
(9.69006e-06 0 0)
(9.69017e-06 0 0)
(9.69029e-06 0 0)
(9.69042e-06 0 0)
(9.69055e-06 0 0)
(9.69069e-06 0 0)
(9.69083e-06 0 0)
(9.69098e-06 0 0)
(9.69113e-06 0 0)
(9.69129e-06 0 0)
(9.69145e-06 0 0)
(9.69162e-06 0 0)
(9.69179e-06 0 0)
(9.69197e-06 0 0)
(9.69214e-06 0 0)
(9.69232e-06 0 0)
(9.69251e-06 0 0)
(9.69269e-06 0 0)
(9.69287e-06 0 0)
(9.69306e-06 0 0)
(9.69324e-06 0 0)
(9.69343e-06 0 0)
(9.69362e-06 0 0)
(9.6938e-06 0 0)
(9.69398e-06 0 0)
(9.69416e-06 0 0)
(9.69434e-06 0 0)
(9.69452e-06 0 0)
(9.69469e-06 0 0)
(9.69487e-06 0 0)
(9.69503e-06 0 0)
(9.6952e-06 0 0)
(9.69536e-06 0 0)
(9.69551e-06 0 0)
(9.69567e-06 0 0)
(9.69581e-06 0 0)
(9.69596e-06 0 0)
(9.6961e-06 0 0)
(9.69623e-06 0 0)
(9.69636e-06 0 0)
(9.69648e-06 0 0)
(9.6966e-06 0 0)
(9.69671e-06 0 0)
(9.69682e-06 0 0)
(9.69692e-06 0 0)
(9.69702e-06 0 0)
(9.69711e-06 0 0)
(9.69719e-06 0 0)
)
;

boundaryField
{
    inlet
    {
        type            fixedValue;
        value           uniform (0 0 0);
    }
    outlet
    {
        type            zeroGradient;
    }
    emptyWalls
    {
        type            empty;
    }
}


// ************************************************************************* //
