/*--------------------------------*- C++ -*----------------------------------*\
  =========                 |
  \\      /  F ield         | OpenFOAM: The Open Source CFD Toolbox
   \\    /   O peration     | Website:  https://openfoam.org
    \\  /    A nd           | Version:  9
     \\/     M anipulation  |
\*---------------------------------------------------------------------------*/
FoamFile
{
    format      ascii;
    class       surfaceScalarField;
    location    "20850";
    object      phia;
}
// * * * * * * * * * * * * * * * * * * * * * * * * * * * * * * * * * * * * * //

dimensions      [0 2 0 0 0 0 0];

internalField   nonuniform List<scalar> 
999
(
2.7486e-10
2.74859e-10
2.74851e-10
2.74828e-10
2.7481e-10
2.74779e-10
2.74735e-10
2.74695e-10
2.74631e-10
2.74582e-10
2.74498e-10
2.74442e-10
2.7434e-10
2.74268e-10
2.74174e-10
2.74076e-10
2.74012e-10
2.73906e-10
2.73849e-10
2.73762e-10
2.73694e-10
2.73624e-10
2.73564e-10
2.73504e-10
2.73446e-10
2.73342e-10
2.73011e-10
2.71778e-10
2.65924e-10
2.28752e-10
2.16469e-10
2.13289e-10
2.11943e-10
2.11141e-10
2.1056e-10
2.10092e-10
2.09693e-10
2.09341e-10
2.09024e-10
2.08735e-10
2.08469e-10
2.08224e-10
2.07997e-10
2.07789e-10
2.07593e-10
2.07412e-10
2.07246e-10
2.07086e-10
2.06939e-10
2.06803e-10
2.06675e-10
2.0656e-10
2.06458e-10
2.06362e-10
2.06271e-10
2.06184e-10
2.06101e-10
2.06017e-10
2.0593e-10
2.05841e-10
2.0576e-10
2.05683e-10
2.05616e-10
2.0556e-10
2.05513e-10
2.05474e-10
2.05436e-10
2.05396e-10
2.05349e-10
2.05296e-10
2.05239e-10
2.05184e-10
2.05138e-10
2.05112e-10
2.05118e-10
2.05154e-10
2.05229e-10
2.05367e-10
2.05567e-10
2.05826e-10
2.06139e-10
2.06474e-10
2.06797e-10
2.07089e-10
2.07351e-10
2.07587e-10
2.078e-10
2.07984e-10
2.08126e-10
2.08213e-10
2.0823e-10
2.0817e-10
2.08033e-10
2.07823e-10
2.07554e-10
2.07241e-10
2.06901e-10
2.06553e-10
2.06212e-10
2.05892e-10
2.05603e-10
2.05351e-10
2.0514e-10
2.04971e-10
2.04843e-10
2.0475e-10
2.04689e-10
2.04654e-10
2.04638e-10
2.04636e-10
2.04642e-10
2.04651e-10
2.0466e-10
2.04665e-10
2.04666e-10
2.0466e-10
2.04647e-10
2.04626e-10
2.046e-10
2.04567e-10
2.0453e-10
2.04488e-10
2.04443e-10
2.04395e-10
2.04345e-10
2.04294e-10
2.04242e-10
2.0419e-10
2.04137e-10
2.04085e-10
2.04034e-10
2.03983e-10
2.03932e-10
2.03882e-10
2.03833e-10
2.03785e-10
2.03738e-10
2.03692e-10
2.03647e-10
2.03602e-10
2.03559e-10
2.03517e-10
2.03475e-10
2.03435e-10
2.03396e-10
2.03358e-10
2.03322e-10
2.03286e-10
2.03252e-10
2.03219e-10
2.03187e-10
2.03156e-10
2.03127e-10
2.03098e-10
2.03071e-10
2.03045e-10
2.03021e-10
2.02997e-10
2.02975e-10
2.02955e-10
2.02936e-10
2.02919e-10
2.02904e-10
2.0289e-10
2.02878e-10
2.02867e-10
2.02857e-10
2.02848e-10
2.02839e-10
2.02831e-10
2.02822e-10
2.02814e-10
2.02806e-10
2.02799e-10
2.02791e-10
2.02785e-10
2.02779e-10
2.02775e-10
2.02771e-10
2.02769e-10
2.02768e-10
2.02768e-10
2.02768e-10
2.02767e-10
2.02765e-10
2.02762e-10
2.02757e-10
2.02752e-10
2.02745e-10
2.0274e-10
2.02738e-10
2.02742e-10
2.02753e-10
2.02774e-10
2.02808e-10
2.02856e-10
2.02921e-10
2.03003e-10
2.03101e-10
2.03217e-10
2.0335e-10
2.03497e-10
2.03656e-10
2.03827e-10
2.04005e-10
2.04187e-10
2.04369e-10
2.04548e-10
2.04719e-10
2.04877e-10
2.05018e-10
2.05138e-10
2.05233e-10
2.05299e-10
2.05333e-10
2.05334e-10
2.05302e-10
2.05236e-10
2.05139e-10
2.05012e-10
2.04861e-10
2.04688e-10
2.045e-10
2.04301e-10
2.04096e-10
2.03891e-10
2.0369e-10
2.03497e-10
2.03315e-10
2.03147e-10
2.02993e-10
2.02856e-10
2.02735e-10
2.02631e-10
2.02541e-10
2.02465e-10
2.02402e-10
2.02349e-10
2.02305e-10
2.02268e-10
2.02237e-10
2.0221e-10
2.02185e-10
2.02162e-10
2.02139e-10
2.02116e-10
2.02091e-10
2.02065e-10
2.02037e-10
2.02006e-10
2.01974e-10
2.01939e-10
2.01902e-10
2.01863e-10
2.01822e-10
2.0178e-10
2.01737e-10
2.01692e-10
2.01647e-10
2.01601e-10
2.01555e-10
2.01508e-10
2.01461e-10
2.01415e-10
2.01368e-10
2.01322e-10
2.01276e-10
2.01231e-10
2.01186e-10
2.01142e-10
2.01098e-10
2.01055e-10
2.01013e-10
2.00972e-10
2.00931e-10
2.00892e-10
2.00853e-10
2.00815e-10
2.00778e-10
2.00742e-10
2.00707e-10
2.00672e-10
2.00639e-10
2.00606e-10
2.00575e-10
2.00544e-10
2.00514e-10
2.00486e-10
2.00458e-10
2.00431e-10
2.00405e-10
2.00381e-10
2.00357e-10
2.00335e-10
2.00313e-10
2.00293e-10
2.00274e-10
2.00256e-10
2.00239e-10
2.00222e-10
2.00207e-10
2.00193e-10
2.00179e-10
2.00166e-10
2.00154e-10
2.00142e-10
2.00131e-10
2.0012e-10
2.0011e-10
2.001e-10
2.00091e-10
2.00082e-10
2.00074e-10
2.00067e-10
2.0006e-10
2.00053e-10
2.00046e-10
2.0004e-10
2.00034e-10
2.00028e-10
2.00021e-10
2.00015e-10
2.00009e-10
2.00003e-10
1.99997e-10
1.99993e-10
1.99989e-10
1.99988e-10
1.99989e-10
1.99993e-10
2.00001e-10
2.00015e-10
2.00034e-10
2.00059e-10
2.00092e-10
2.00133e-10
2.00182e-10
2.0024e-10
2.00307e-10
2.00382e-10
2.00466e-10
2.00558e-10
2.00658e-10
2.00764e-10
2.00876e-10
2.00992e-10
2.0111e-10
2.0123e-10
2.01349e-10
2.01465e-10
2.01576e-10
2.01681e-10
2.01777e-10
2.01862e-10
2.01935e-10
2.01994e-10
2.02037e-10
2.02063e-10
2.02071e-10
2.02062e-10
2.02034e-10
2.01988e-10
2.01925e-10
2.01846e-10
2.01751e-10
2.01644e-10
2.01525e-10
2.01397e-10
2.01263e-10
2.01123e-10
2.00981e-10
2.00839e-10
2.00697e-10
2.00559e-10
2.00426e-10
2.00299e-10
2.00178e-10
2.00065e-10
1.9996e-10
1.99863e-10
1.99773e-10
1.99692e-10
1.99619e-10
1.99552e-10
1.99492e-10
1.99437e-10
1.99388e-10
1.99343e-10
1.99302e-10
1.99264e-10
1.99228e-10
1.99194e-10
1.99161e-10
1.99129e-10
1.99097e-10
1.99066e-10
1.99034e-10
1.99001e-10
1.98968e-10
1.98934e-10
1.989e-10
1.98864e-10
1.98828e-10
1.9879e-10
1.98752e-10
1.98713e-10
1.98673e-10
1.98633e-10
1.98592e-10
1.9855e-10
1.98509e-10
1.98467e-10
1.98425e-10
1.98383e-10
1.98341e-10
1.98299e-10
1.98257e-10
1.98216e-10
1.98175e-10
1.98134e-10
1.98094e-10
1.98054e-10
1.98015e-10
1.97976e-10
1.97937e-10
1.979e-10
1.97863e-10
1.97826e-10
1.9779e-10
1.97755e-10
1.9772e-10
1.97687e-10
1.97653e-10
1.97621e-10
1.97589e-10
1.97558e-10
1.97528e-10
1.97498e-10
1.9747e-10
1.97442e-10
1.97414e-10
1.97388e-10
1.97362e-10
1.97337e-10
1.97313e-10
1.9729e-10
1.97267e-10
1.97245e-10
1.97224e-10
1.97204e-10
1.97184e-10
1.97166e-10
1.97147e-10
1.9713e-10
1.97113e-10
1.97097e-10
1.97081e-10
1.97066e-10
1.97052e-10
1.97038e-10
1.97024e-10
1.97011e-10
1.96999e-10
1.96987e-10
1.96975e-10
1.96964e-10
1.96953e-10
1.96942e-10
1.96932e-10
1.96922e-10
1.96912e-10
1.96903e-10
1.96893e-10
1.96884e-10
1.96876e-10
1.96868e-10
1.9686e-10
1.96853e-10
1.96847e-10
1.96842e-10
1.96839e-10
1.96837e-10
1.96837e-10
1.9684e-10
1.96845e-10
1.96853e-10
1.96864e-10
1.9688e-10
1.96899e-10
1.96923e-10
1.96951e-10
1.96985e-10
1.97023e-10
1.97066e-10
1.97115e-10
1.97169e-10
1.97228e-10
1.97291e-10
1.97359e-10
1.97431e-10
1.97507e-10
1.97585e-10
1.97666e-10
1.97748e-10
1.97831e-10
1.97913e-10
1.97994e-10
1.98073e-10
1.98149e-10
1.9822e-10
1.98286e-10
1.98346e-10
1.98399e-10
1.98444e-10
1.9848e-10
1.98506e-10
1.98522e-10
1.98528e-10
1.98522e-10
1.98506e-10
1.98479e-10
1.98441e-10
1.98392e-10
1.98334e-10
1.98266e-10
1.98189e-10
1.98105e-10
1.98014e-10
1.97918e-10
1.97817e-10
1.97712e-10
1.97605e-10
1.97497e-10
1.97389e-10
1.97281e-10
1.97175e-10
1.9707e-10
1.96969e-10
1.96872e-10
1.96778e-10
1.96688e-10
1.96603e-10
1.96522e-10
1.96446e-10
1.96374e-10
1.96307e-10
1.96243e-10
1.96184e-10
1.96128e-10
1.96076e-10
1.96027e-10
1.9598e-10
1.95936e-10
1.95893e-10
1.95853e-10
1.95813e-10
1.95775e-10
1.95738e-10
1.95701e-10
1.95665e-10
1.95629e-10
1.95593e-10
1.95557e-10
1.9552e-10
1.95484e-10
1.95447e-10
1.95409e-10
1.95372e-10
1.95333e-10
1.95295e-10
1.95256e-10
1.95216e-10
1.95177e-10
1.95137e-10
1.95096e-10
1.95056e-10
1.95015e-10
1.94974e-10
1.94934e-10
1.94893e-10
1.94852e-10
1.94811e-10
1.94771e-10
1.9473e-10
1.9469e-10
1.9465e-10
1.94611e-10
1.94571e-10
1.94532e-10
1.94494e-10
1.94456e-10
1.94418e-10
1.94381e-10
1.94344e-10
1.94308e-10
1.94273e-10
1.94237e-10
1.94203e-10
1.94169e-10
1.94135e-10
1.94103e-10
1.9407e-10
1.94039e-10
1.94008e-10
1.93977e-10
1.93948e-10
1.93918e-10
1.9389e-10
1.93862e-10
1.93835e-10
1.93808e-10
1.93782e-10
1.93757e-10
1.93732e-10
1.93708e-10
1.93685e-10
1.93662e-10
1.9364e-10
1.93618e-10
1.93597e-10
1.93577e-10
1.93557e-10
1.93537e-10
1.93519e-10
1.935e-10
1.93483e-10
1.93465e-10
1.93449e-10
1.93432e-10
1.93416e-10
1.93401e-10
1.93386e-10
1.93371e-10
1.93357e-10
1.93343e-10
1.93329e-10
1.93316e-10
1.93303e-10
1.9329e-10
1.93278e-10
1.93267e-10
1.93255e-10
1.93245e-10
1.93235e-10
1.93225e-10
1.93217e-10
1.93209e-10
1.93202e-10
1.93196e-10
1.93192e-10
1.93189e-10
1.93188e-10
1.93188e-10
1.9319e-10
1.93195e-10
1.93202e-10
1.93211e-10
1.93223e-10
1.93238e-10
1.93255e-10
1.93276e-10
1.933e-10
1.93327e-10
1.93357e-10
1.93391e-10
1.93428e-10
1.93467e-10
1.9351e-10
1.93556e-10
1.93604e-10
1.93655e-10
1.93708e-10
1.93763e-10
1.93819e-10
1.93876e-10
1.93934e-10
1.93992e-10
1.94049e-10
1.94106e-10
1.94161e-10
1.94214e-10
1.94264e-10
1.94312e-10
1.94355e-10
1.94395e-10
1.9443e-10
1.94459e-10
1.94483e-10
1.94501e-10
1.94512e-10
1.94517e-10
1.94514e-10
1.94505e-10
1.94488e-10
1.94464e-10
1.94433e-10
1.94395e-10
1.9435e-10
1.94298e-10
1.9424e-10
1.94177e-10
1.94108e-10
1.94034e-10
1.93956e-10
1.93875e-10
1.9379e-10
1.93703e-10
1.93614e-10
1.93524e-10
1.93433e-10
1.93342e-10
1.93252e-10
1.93162e-10
1.93073e-10
1.92986e-10
1.92901e-10
1.92818e-10
1.92737e-10
1.92659e-10
1.92584e-10
1.92511e-10
1.92441e-10
1.92374e-10
1.92309e-10
1.92247e-10
1.92188e-10
1.9213e-10
1.92075e-10
1.92022e-10
1.91971e-10
1.91922e-10
1.91874e-10
1.91827e-10
1.91782e-10
1.91738e-10
1.91694e-10
1.91651e-10
1.91609e-10
1.91567e-10
1.91526e-10
1.91485e-10
1.91444e-10
1.91403e-10
1.91362e-10
1.91321e-10
1.9128e-10
1.91239e-10
1.91198e-10
1.91156e-10
1.91115e-10
1.91073e-10
1.91032e-10
1.9099e-10
1.90948e-10
1.90906e-10
1.90863e-10
1.90821e-10
1.90779e-10
1.90737e-10
1.90695e-10
1.90653e-10
1.90611e-10
1.90569e-10
1.90527e-10
1.90485e-10
1.90444e-10
1.90403e-10
1.90362e-10
1.90322e-10
1.90282e-10
1.90242e-10
1.90203e-10
1.90164e-10
1.90125e-10
1.90087e-10
1.90049e-10
1.90012e-10
1.89975e-10
1.89939e-10
1.89903e-10
1.89868e-10
1.89834e-10
1.898e-10
1.89767e-10
1.89734e-10
1.89702e-10
1.89671e-10
1.8964e-10
1.89611e-10
1.89582e-10
1.89554e-10
1.89528e-10
1.89502e-10
1.89477e-10
1.89453e-10
1.89431e-10
1.89409e-10
1.89389e-10
1.89371e-10
1.89353e-10
1.89337e-10
1.89323e-10
1.8931e-10
1.89298e-10
1.89288e-10
1.89279e-10
1.89272e-10
1.89266e-10
1.89262e-10
1.89259e-10
1.89257e-10
1.89257e-10
1.89258e-10
1.89259e-10
1.89262e-10
1.89266e-10
1.89271e-10
1.89276e-10
1.89282e-10
1.8929e-10
1.89298e-10
1.89306e-10
1.89315e-10
1.89324e-10
1.89334e-10
1.89343e-10
1.89353e-10
1.89358e-10
1.8936e-10
1.89357e-10
1.89337e-10
1.89296e-10
1.89206e-10
1.89047e-10
1.88771e-10
1.88338e-10
1.87734e-10
1.87014e-10
1.86336e-10
1.85834e-10
1.8555e-10
1.85418e-10
1.85369e-10
1.85367e-10
1.85379e-10
1.85408e-10
1.85439e-10
1.85476e-10
1.85516e-10
1.85558e-10
1.85602e-10
1.85648e-10
1.85696e-10
1.85746e-10
1.85798e-10
1.85851e-10
1.85906e-10
1.85962e-10
1.86019e-10
1.86077e-10
1.86136e-10
1.86196e-10
1.86256e-10
1.86317e-10
1.86377e-10
1.86438e-10
1.86498e-10
1.86557e-10
1.86615e-10
1.86672e-10
1.86727e-10
1.86781e-10
1.86832e-10
1.86881e-10
1.86928e-10
1.86971e-10
1.87012e-10
1.87049e-10
1.87082e-10
1.87112e-10
1.87137e-10
1.87158e-10
1.87175e-10
1.87187e-10
1.87194e-10
1.87196e-10
1.87197e-10
1.87196e-10
1.87192e-10
1.87177e-10
1.87157e-10
1.87134e-10
1.87108e-10
1.87078e-10
1.87045e-10
1.87008e-10
1.86969e-10
1.86928e-10
1.86884e-10
1.86838e-10
1.8679e-10
1.86741e-10
1.86691e-10
1.8664e-10
1.86589e-10
1.86537e-10
1.86486e-10
1.86435e-10
1.86384e-10
1.86334e-10
1.86285e-10
1.86237e-10
1.86191e-10
1.86145e-10
1.86102e-10
1.8606e-10
1.86019e-10
1.8598e-10
1.85943e-10
1.85908e-10
1.85874e-10
1.85842e-10
1.85811e-10
1.85782e-10
1.85754e-10
1.85728e-10
1.85703e-10
1.8568e-10
1.85657e-10
1.85636e-10
1.85615e-10
1.85596e-10
1.85577e-10
1.85559e-10
1.85542e-10
1.85525e-10
1.85509e-10
1.85493e-10
1.85478e-10
1.85463e-10
1.85448e-10
1.85433e-10
1.85419e-10
1.85405e-10
1.8539e-10
1.85376e-10
1.85362e-10
1.85348e-10
1.85334e-10
1.8532e-10
1.85306e-10
1.85292e-10
1.85278e-10
1.85264e-10
1.8525e-10
1.85236e-10
1.85222e-10
1.85208e-10
1.85194e-10
1.8518e-10
1.85166e-10
1.85153e-10
1.85139e-10
1.85126e-10
1.85113e-10
1.85099e-10
1.85087e-10
1.85074e-10
1.85061e-10
1.85049e-10
1.85037e-10
1.85025e-10
1.85014e-10
1.85003e-10
1.84992e-10
1.84981e-10
1.84971e-10
1.84961e-10
1.84951e-10
1.84942e-10
1.84933e-10
1.84924e-10
1.84916e-10
1.84908e-10
1.84901e-10
1.84893e-10
1.84887e-10
1.8488e-10
1.84874e-10
1.84869e-10
1.84864e-10
1.84859e-10
1.84855e-10
1.84851e-10
1.84847e-10
1.84844e-10
1.84841e-10
1.84839e-10
1.84837e-10
)
;

boundaryField
{
    inlet
    {
        type            calculated;
        value           uniform -2.74882e-10;
    }
    outlet
    {
        type            calculated;
        value           uniform 1.84836e-10;
    }
    emptyWalls
    {
        type            empty;
        value           nonuniform List<scalar> 0();
    }
}


// ************************************************************************* //
