/*--------------------------------*- C++ -*----------------------------------*\
  =========                 |
  \\      /  F ield         | OpenFOAM: The Open Source CFD Toolbox
   \\    /   O peration     | Website:  https://openfoam.org
    \\  /    A nd           | Version:  9
     \\/     M anipulation  |
\*---------------------------------------------------------------------------*/
FoamFile
{
    format      ascii;
    class       volScalarField;
    location    "27700";
    object      krc;
}
// * * * * * * * * * * * * * * * * * * * * * * * * * * * * * * * * * * * * * //

dimensions      [0 0 0 0 0 0 0];

internalField   nonuniform List<scalar> 
1000
(
5.77483e-08
5.22773e-07
1.84272e-06
3.98579e-06
6.9421e-06
1.07127e-05
1.53091e-05
2.07441e-05
2.7034e-05
3.41955e-05
4.22455e-05
5.11976e-05
6.10617e-05
7.18425e-05
8.35356e-05
9.61261e-05
0.000109584
0.000123861
0.000138886
0.000154561
0.000170756
0.00018731
0.000204031
0.000220703
0.000237096
0.000252978
0.000268142
0.000282405
0.000295648
0.000307787
0.00031881
0.000328739
0.00033767
0.000345836
0.000354081
0.000366092
0.000398819
0.000527264
0.00125307
0.0105443
0.0353125
0.0426453
0.0451345
0.0463863
0.0471934
0.0477991
0.0482957
0.0487265
0.0491123
0.049466
0.0497945
0.0501033
0.0503952
0.0506732
0.0509385
0.0511931
0.0514377
0.0516735
0.0519011
0.0521213
0.0523345
0.0525415
0.0527426
0.0529386
0.0531294
0.0533161
0.0534982
0.0536768
0.0538517
0.0540238
0.0541929
0.0543597
0.0545242
0.0546869
0.0548476
0.055007
0.055165
0.0553221
0.0554781
0.055634
0.0557896
0.0559471
0.0561053
0.056264
0.0564231
0.056583
0.0567436
0.0569051
0.0570677
0.0572317
0.0573973
0.0575649
0.0577348
0.0579075
0.0580832
0.0582625
0.0584462
0.0586348
0.0588295
0.0590316
0.0592429
0.0594657
0.059703
0.0599589
0.060238
0.0605456
0.0608868
0.0612655
0.0616826
0.0621354
0.0626178
0.0631227
0.063644
0.0641774
0.0647198
0.0652688
0.0658229
0.0663807
0.0669414
0.0675041
0.0680684
0.0686338
0.0691999
0.0697664
0.0703331
0.0708999
0.0714666
0.072033
0.072599
0.0731646
0.0737297
0.0742941
0.074858
0.0754211
0.0759835
0.0765451
0.0771059
0.0776659
0.0782251
0.0787833
0.0793407
0.0798972
0.0804527
0.0810073
0.081561
0.0821137
0.0826655
0.0832163
0.0837662
0.0843151
0.0848629
0.0854099
0.0859558
0.0865008
0.0870447
0.0875877
0.0881297
0.0886707
0.0892106
0.0897496
0.0902877
0.0908247
0.0913607
0.0918958
0.0924298
0.0929629
0.093495
0.0940262
0.0945563
0.0950855
0.0956136
0.0961409
0.0966671
0.0971924
0.0977167
0.09824
0.0987624
0.0992838
0.0998043
0.100324
0.100842
0.10136
0.101877
0.102393
0.102908
0.103421
0.103934
0.104446
0.104957
0.105468
0.105977
0.106485
0.106992
0.107498
0.108004
0.108508
0.109012
0.109514
0.110016
0.110517
0.111017
0.111516
0.112014
0.112511
0.113008
0.113504
0.113999
0.114493
0.114987
0.115479
0.115971
0.116462
0.116953
0.117442
0.117931
0.118419
0.118906
0.119393
0.119878
0.120363
0.120847
0.12133
0.121812
0.122294
0.122774
0.123254
0.123733
0.124211
0.124688
0.125165
0.125641
0.126115
0.12659
0.127063
0.127536
0.128008
0.128479
0.128949
0.129419
0.129888
0.130356
0.130823
0.13129
0.131756
0.132221
0.132686
0.13315
0.133613
0.134076
0.134537
0.134998
0.135459
0.135918
0.136377
0.136835
0.137293
0.13775
0.138206
0.138661
0.139116
0.13957
0.140024
0.140477
0.140929
0.14138
0.141831
0.142281
0.142731
0.143179
0.143628
0.144075
0.144522
0.144968
0.145414
0.145859
0.146303
0.146747
0.14719
0.147632
0.148074
0.148515
0.148956
0.149396
0.149835
0.150274
0.150712
0.15115
0.151587
0.152023
0.152459
0.152894
0.153328
0.153762
0.154196
0.154629
0.155061
0.155492
0.155924
0.156354
0.156784
0.157213
0.157642
0.15807
0.158498
0.158925
0.159352
0.159778
0.160203
0.160628
0.161053
0.161477
0.1619
0.162323
0.162745
0.163167
0.163588
0.164008
0.164428
0.164848
0.165267
0.165685
0.166103
0.16652
0.166936
0.167353
0.167768
0.168183
0.168598
0.169012
0.169425
0.169838
0.17025
0.170662
0.171074
0.171485
0.171896
0.172306
0.172716
0.173125
0.173534
0.173943
0.174351
0.174759
0.175167
0.175574
0.175981
0.176387
0.176793
0.177199
0.177604
0.178008
0.178413
0.178817
0.17922
0.179623
0.180026
0.180428
0.180829
0.181231
0.181631
0.182032
0.182431
0.182831
0.183229
0.183628
0.184026
0.184423
0.18482
0.185217
0.185613
0.186009
0.186404
0.186799
0.187194
0.187588
0.187982
0.188375
0.188768
0.189161
0.189553
0.189945
0.190336
0.190727
0.191118
0.191508
0.191898
0.192288
0.192677
0.193066
0.193454
0.193842
0.19423
0.194617
0.195004
0.19539
0.195777
0.196163
0.196548
0.196933
0.197318
0.197702
0.198086
0.19847
0.198853
0.199236
0.199619
0.200001
0.200383
0.200765
0.201146
0.201527
0.201907
0.202287
0.202667
0.203047
0.203426
0.203805
0.204183
0.204562
0.204939
0.205317
0.205694
0.206071
0.206448
0.206824
0.2072
0.207575
0.20795
0.208326
0.2087
0.209074
0.209448
0.209822
0.210196
0.210569
0.210941
0.211314
0.211686
0.212058
0.212429
0.212801
0.213172
0.213542
0.213913
0.214283
0.214653
0.215022
0.215391
0.215761
0.216129
0.216498
0.216866
0.217233
0.217601
0.217968
0.218335
0.218702
0.219068
0.219434
0.2198
0.220165
0.22053
0.220895
0.221259
0.221624
0.221987
0.222351
0.222714
0.223077
0.22344
0.223802
0.224164
0.224526
0.224887
0.225249
0.22561
0.225971
0.226331
0.226692
0.227052
0.227412
0.227771
0.228131
0.22849
0.22885
0.229209
0.229568
0.229927
0.230286
0.230644
0.231003
0.231361
0.231719
0.232077
0.232435
0.232793
0.233151
0.233508
0.233865
0.234222
0.234579
0.234936
0.235292
0.235648
0.236004
0.23636
0.236716
0.237071
0.237426
0.237781
0.238135
0.238489
0.238844
0.239197
0.239551
0.239904
0.240258
0.24061
0.240963
0.241316
0.241668
0.24202
0.242372
0.242724
0.243076
0.243427
0.243778
0.244129
0.24448
0.24483
0.245181
0.245531
0.245882
0.246231
0.246581
0.246931
0.24728
0.247629
0.247979
0.248328
0.248677
0.249025
0.249374
0.249722
0.25007
0.250418
0.250766
0.251113
0.251461
0.251808
0.252156
0.252502
0.25285
0.253196
0.253543
0.253889
0.254235
0.254581
0.254928
0.255273
0.255619
0.255964
0.25631
0.256655
0.257
0.257345
0.25769
0.258034
0.258379
0.258723
0.259068
0.259411
0.259756
0.260099
0.260443
0.260786
0.26113
0.261473
0.261816
0.262159
0.262502
0.262845
0.263188
0.26353
0.263873
0.264214
0.264557
0.264899
0.265241
0.265582
0.265924
0.266266
0.266607
0.266948
0.26729
0.267631
0.267972
0.268312
0.268654
0.268994
0.269335
0.269675
0.270016
0.270356
0.270696
0.271036
0.271376
0.271715
0.272055
0.272395
0.272734
0.273073
0.273413
0.273752
0.274091
0.274429
0.274768
0.275107
0.275445
0.275783
0.276122
0.276459
0.276798
0.277135
0.277473
0.27781
0.278148
0.278485
0.278823
0.279159
0.279497
0.279834
0.280171
0.280507
0.280845
0.281181
0.281519
0.281855
0.282192
0.282529
0.282866
0.283202
0.28354
0.283876
0.284214
0.28455
0.284888
0.285224
0.285562
0.285899
0.286237
0.286573
0.286911
0.287248
0.287586
0.287923
0.288261
0.288598
0.288936
0.289273
0.289611
0.289948
0.290285
0.290622
0.29096
0.291297
0.291634
0.291971
0.292309
0.292645
0.292983
0.293319
0.293657
0.293993
0.29433
0.294666
0.295003
0.29534
0.295677
0.296013
0.29635
0.296686
0.297023
0.297359
0.297696
0.298031
0.298368
0.298704
0.299041
0.299377
0.299714
0.30005
0.300387
0.300723
0.301059
0.301395
0.301732
0.302068
0.302405
0.302741
0.303078
0.303414
0.303751
0.304087
0.304424
0.30476
0.305097
0.305433
0.30577
0.306106
0.306444
0.30678
0.307117
0.307453
0.307791
0.308127
0.308464
0.3088
0.309138
0.309474
0.309812
0.310148
0.310485
0.310822
0.31116
0.311496
0.311834
0.31217
0.312508
0.312845
0.313183
0.313519
0.313857
0.314194
0.314532
0.314869
0.315207
0.315544
0.315883
0.31622
0.316558
0.316895
0.317234
0.317571
0.31791
0.318247
0.318586
0.318923
0.319262
0.3196
0.319939
0.320277
0.320616
0.320954
0.321294
0.321632
0.321971
0.322309
0.322649
0.322987
0.323327
0.323666
0.324006
0.324345
0.324685
0.325024
0.325364
0.325703
0.326044
0.326383
0.326724
0.327063
0.327404
0.327743
0.328085
0.328424
0.328766
0.329105
0.329447
0.329787
0.330128
0.330468
0.33081
0.33115
0.331492
0.331833
0.332175
0.332515
0.332857
0.333198
0.333541
0.333881
0.334224
0.334565
0.334908
0.33525
0.335593
0.335934
0.336278
0.33662
0.336963
0.337306
0.33765
0.337993
0.338337
0.33868
0.339025
0.339369
0.339714
0.340058
0.340404
0.340749
0.341095
0.341441
0.341788
0.342133
0.342481
0.342827
0.343176
0.343522
0.343871
0.344219
0.344568
0.344916
0.345266
0.345614
0.345965
0.346314
0.346665
0.347014
0.347366
0.347716
0.348068
0.348418
0.348771
0.349121
0.349474
0.349825
0.350179
0.35053
0.350884
0.351236
0.35159
0.351943
0.352298
0.35265
0.353006
0.353359
0.353714
0.354068
0.354424
0.354778
0.355135
0.355489
0.355846
0.356202
0.356559
0.356915
0.357273
0.357629
0.357987
0.358344
0.358703
0.359061
0.35942
0.359779
0.360139
0.360498
0.360858
0.361218
0.361579
0.361939
0.3623
0.362661
0.363024
0.363385
0.363748
0.36411
0.364474
0.364837
0.365201
0.365565
0.365929
0.366295
0.366658
0.367026
0.367388
0.367759
0.36812
0.368493
0.368854
0.369228
0.36959
0.369964
0.370327
0.370702
0.371066
0.371441
0.371806
0.372182
0.372547
0.372925
0.373291
0.373669
0.374036
0.374414
0.374783
0.375161
0.375531
0.375911
0.376281
0.376661
0.377032
0.377414
0.377785
0.37817
0.378538
0.378929
0.379292
0.379691
0.380047
0.380455
0.380802
0.381223
0.381559
0.381993
0.382317
0.382766
0.383077
0.383541
0.383838
0.384318
0.384601
0.385098
0.385367
0.385879
0.386135
0.386662
0.386906
0.387447
0.38768
0.388232
0.388457
0.389019
0.389237
0.389808
0.39002
0.390599
0.390806
0.391391
0.391595
0.392185
0.392387
0.392981
0.393182
0.393778
0.39398
0.394577
0.394782
0.395379
0.395585
0.396184
0.39639
0.396991
0.397199
0.3978
0.398011
0.398612
0.398825
0.399427
0.399642
0.400244
0.400462
0.401066
0.401284
0.40189
0.40211
0.402718
0.402939
0.403548
0.403772
0.40438
0.404609
0.405217
0.405449
0.406058
0.406292
0.406902
0.40714
0.40775
0.407991
0.408602
0.408846
0.409458
0.409706
0.410317
0.410569
0.411182
0.411442
0.2296
)
;

boundaryField
{
    inlet
    {
        type            calculated;
        value           uniform 3.08149e-33;
    }
    outlet
    {
        type            calculated;
        value           uniform 0.2296;
    }
    emptyWalls
    {
        type            empty;
    }
}


// ************************************************************************* //
