/*--------------------------------*- C++ -*----------------------------------*\
  =========                 |
  \\      /  F ield         | OpenFOAM: The Open Source CFD Toolbox
   \\    /   O peration     | Website:  https://openfoam.org
    \\  /    A nd           | Version:  9
     \\/     M anipulation  |
\*---------------------------------------------------------------------------*/
FoamFile
{
    format      ascii;
    class       volScalarField;
    location    "27700";
    object      Sa;
}
// * * * * * * * * * * * * * * * * * * * * * * * * * * * * * * * * * * * * * //

dimensions      [0 0 0 0 0 0 0];

internalField   nonuniform List<scalar> 
1000
(
0.549621
0.548855
0.547842
0.546837
0.545798
0.544805
0.543742
0.542748
0.541657
0.540653
0.539545
0.538512
0.537406
0.536332
0.535233
0.534133
0.533034
0.531936
0.53084
0.529761
0.528695
0.527651
0.526646
0.525667
0.524762
0.523875
0.523108
0.522331
0.521712
0.521067
0.520571
0.520071
0.519668
0.519278
0.518905
0.518354
0.516906
0.511679
0.489182
0.346827
0.126909
0.0803155
0.0667269
0.0604061
0.0565313
0.0537334
0.0515131
0.0496438
0.0480162
0.0465635
0.0452493
0.0440456
0.042936
0.0419058
0.0409469
0.0400503
0.0392117
0.0384242
0.0376841
0.0369853
0.0363256
0.0357002
0.035108
0.0345456
0.034014
0.0335104
0.0330349
0.0325818
0.0321484
0.031732
0.0313342
0.0309528
0.0305856
0.0302335
0.0298981
0.0295782
0.0292734
0.0289842
0.028721
0.0284752
0.0282421
0.0280166
0.0277989
0.0275878
0.0273815
0.0271789
0.02698
0.0267858
0.0265983
0.026419
0.0262468
0.0260744
0.0258981
0.0257247
0.0255557
0.0253927
0.025237
0.0250898
0.0249516
0.024823
0.0247039
0.0245943
0.0244939
0.0244027
0.0243206
0.0242481
0.0241858
0.0241346
0.0240941
0.0240623
0.0240345
0.0240058
0.023976
0.0239451
0.0239135
0.023881
0.0238481
0.0238146
0.0237808
0.0237468
0.0237127
0.0236785
0.0236443
0.0236101
0.0235761
0.0235421
0.0235084
0.0234748
0.0234415
0.0234083
0.0233754
0.0233427
0.0233102
0.023278
0.023246
0.0232143
0.0231828
0.0231515
0.0231205
0.0230898
0.0230593
0.0230291
0.0229991
0.0229693
0.0229398
0.0229106
0.0228815
0.0228526
0.022824
0.0227956
0.0227674
0.0227395
0.0227118
0.0226844
0.0226573
0.0226304
0.0226039
0.0225775
0.0225514
0.0225254
0.0224997
0.022474
0.0224485
0.0224232
0.0223979
0.0223728
0.0223479
0.0223233
0.0222989
0.0222748
0.0222509
0.0222273
0.022204
0.0221808
0.0221578
0.0221349
0.022112
0.0220891
0.0220662
0.0220431
0.02202
0.0219969
0.0219738
0.021951
0.0219287
0.021907
0.0218863
0.0218666
0.0218483
0.0218313
0.0218157
0.0218015
0.0217886
0.0217768
0.021766
0.021756
0.0217466
0.0217376
0.0217286
0.0217195
0.0217099
0.0216996
0.0216883
0.0216756
0.0216613
0.0216452
0.0216271
0.0216069
0.0215845
0.0215602
0.021534
0.0215061
0.0214768
0.0214465
0.0214154
0.0213841
0.0213527
0.0213216
0.021291
0.0212613
0.0212324
0.0212047
0.021178
0.0211524
0.0211279
0.0211044
0.0210818
0.02106
0.0210389
0.0210184
0.0209984
0.0209787
0.0209593
0.0209401
0.020921
0.020902
0.0208829
0.0208639
0.0208448
0.0208257
0.0208064
0.0207872
0.0207678
0.0207485
0.0207291
0.0207098
0.0206903
0.020671
0.0206516
0.0206323
0.020613
0.0205939
0.0205746
0.0205557
0.0205366
0.0205179
0.020499
0.0204804
0.0204617
0.0204434
0.0204249
0.0204069
0.0203886
0.0203708
0.0203527
0.0203351
0.0203173
0.0202999
0.0202823
0.0202652
0.0202478
0.0202309
0.0202137
0.020197
0.0201801
0.0201636
0.020147
0.0201307
0.0201143
0.0200983
0.0200822
0.0200664
0.0200505
0.0200349
0.0200192
0.0200038
0.0199883
0.0199731
0.0199578
0.0199427
0.0199276
0.0199127
0.0198978
0.019883
0.0198684
0.0198538
0.0198394
0.019825
0.0198108
0.0197966
0.0197825
0.0197685
0.0197545
0.0197406
0.0197266
0.0197127
0.0196988
0.0196849
0.0196711
0.0196573
0.0196437
0.0196303
0.019617
0.0196041
0.0195916
0.0195794
0.0195678
0.0195567
0.0195461
0.0195362
0.0195269
0.0195182
0.0195101
0.0195026
0.0194957
0.0194892
0.0194832
0.0194775
0.0194719
0.0194666
0.0194611
0.0194556
0.0194498
0.0194436
0.0194368
0.0194294
0.0194212
0.0194121
0.0194021
0.0193911
0.0193789
0.0193658
0.0193515
0.0193362
0.01932
0.0193029
0.019285
0.0192665
0.0192475
0.0192282
0.0192086
0.019189
0.0191693
0.0191499
0.0191306
0.0191118
0.0190933
0.0190753
0.0190578
0.0190408
0.0190242
0.0190082
0.0189925
0.0189774
0.0189626
0.0189483
0.0189341
0.0189204
0.0189067
0.0188934
0.0188801
0.018867
0.0188539
0.018841
0.018828
0.0188151
0.0188022
0.0187893
0.0187764
0.0187635
0.0187505
0.0187376
0.0187246
0.0187117
0.0186986
0.0186858
0.0186727
0.0186598
0.0186468
0.018634
0.018621
0.0186083
0.0185953
0.0185827
0.0185698
0.0185573
0.0185445
0.0185321
0.0185194
0.0185071
0.0184945
0.0184824
0.0184699
0.0184579
0.0184456
0.0184338
0.0184215
0.0184098
0.0183977
0.0183862
0.0183742
0.0183629
0.018351
0.0183398
0.018328
0.018317
0.0183053
0.0182945
0.018283
0.0182723
0.0182609
0.0182503
0.018239
0.0182287
0.0182175
0.0182072
0.0181961
0.018186
0.018175
0.0181651
0.0181542
0.0181443
0.0181335
0.0181239
0.0181131
0.0181036
0.018093
0.0180836
0.018073
0.0180637
0.0180532
0.018044
0.0180336
0.0180245
0.018014
0.0180051
0.0179947
0.0179858
0.0179755
0.0179668
0.0179565
0.017948
0.0179379
0.0179297
0.0179199
0.017912
0.0179026
0.0178952
0.0178862
0.0178794
0.0178711
0.0178648
0.0178572
0.0178516
0.0178446
0.0178397
0.0178335
0.0178291
0.0178235
0.0178196
0.0178146
0.0178111
0.0178064
0.017803
0.0177985
0.017795
0.0177904
0.0177866
0.0177816
0.0177772
0.0177716
0.0177664
0.01776
0.0177537
0.0177463
0.0177388
0.0177302
0.0177215
0.0177117
0.0177018
0.0176907
0.0176797
0.0176676
0.0176556
0.0176426
0.0176298
0.0176162
0.017603
0.0175889
0.0175755
0.0175613
0.017548
0.0175338
0.0175208
0.0175068
0.0174942
0.0174807
0.0174686
0.0174555
0.017444
0.0174314
0.0174205
0.0174082
0.017398
0.017386
0.0173763
0.0173647
0.0173553
0.017344
0.017335
0.0173237
0.0173151
0.0173039
0.0172955
0.0172844
0.0172761
0.0172649
0.0172568
0.0172456
0.0172375
0.0172264
0.0172183
0.0172071
0.0171991
0.0171878
0.0171799
0.0171686
0.0171606
0.0171494
0.0171414
0.0171302
0.0171223
0.0171111
0.0171032
0.017092
0.0170842
0.0170731
0.0170653
0.0170543
0.0170466
0.0170356
0.017028
0.0170171
0.0170095
0.0169987
0.0169912
0.0169805
0.0169731
0.0169624
0.0169552
0.0169446
0.0169374
0.0169269
0.0169199
0.0169095
0.0169025
0.0168922
0.0168853
0.0168751
0.0168683
0.0168582
0.0168515
0.0168415
0.0168349
0.016825
0.0168184
0.0168086
0.0168022
0.0167924
0.0167861
0.0167764
0.0167702
0.0167606
0.0167544
0.0167449
0.0167388
0.0167293
0.0167233
0.016714
0.016708
0.0166987
0.0166928
0.0166836
0.0166778
0.0166686
0.0166629
0.0166537
0.0166481
0.016639
0.0166334
0.0166244
0.0166189
0.01661
0.0166047
0.0165959
0.0165907
0.0165821
0.0165771
0.0165688
0.016564
0.0165559
0.0165514
0.0165437
0.0165396
0.0165322
0.0165284
0.0165215
0.0165181
0.0165116
0.0165086
0.0165025
0.0164999
0.0164942
0.016492
0.0164866
0.0164847
0.0164795
0.0164779
0.0164729
0.0164713
0.0164663
0.0164648
0.0164598
0.0164581
0.0164528
0.0164508
0.0164452
0.0164428
0.0164367
0.0164338
0.0164271
0.0164235
0.0164161
0.0164118
0.0164037
0.0163986
0.0163897
0.0163838
0.0163742
0.0163676
0.0163572
0.0163499
0.0163389
0.0163311
0.0163195
0.0163113
0.0162994
0.0162908
0.0162787
0.0162699
0.0162577
0.016249
0.0162368
0.0162281
0.0162161
0.0162075
0.0161957
0.0161874
0.0161759
0.0161679
0.0161566
0.0161489
0.016138
0.0161306
0.0161199
0.0161128
0.0161024
0.0160955
0.0160853
0.0160787
0.0160687
0.0160622
0.0160524
0.0160461
0.0160364
0.0160302
0.0160205
0.0160144
0.0160048
0.0159987
0.0159892
0.0159832
0.0159737
0.0159676
0.0159582
0.0159521
0.0159427
0.0159367
0.0159272
0.0159212
0.0159118
0.0159058
0.0158964
0.0158904
0.015881
0.0158751
0.0158657
0.0158598
0.0158505
0.0158446
0.0158353
0.0158295
0.0158202
0.0158145
0.0158052
0.0157995
0.0157904
0.0157847
0.0157756
0.01577
0.015761
0.0157554
0.0157465
0.015741
0.0157321
0.0157267
0.0157179
0.0157125
0.0157038
0.0156985
0.0156898
0.0156847
0.015676
0.0156709
0.0156623
0.0156573
0.0156488
0.0156439
0.0156354
0.0156305
0.0156222
0.0156174
0.0156091
0.0156043
0.0155961
0.0155914
0.0155832
0.0155786
0.0155704
0.0155659
0.0155578
0.0155533
0.0155453
0.0155408
0.0155329
0.0155285
0.0155206
0.0155162
0.0155084
0.0155041
0.0154963
0.015492
0.0154843
0.0154802
0.0154725
0.0154684
0.0154609
0.0154569
0.0154494
0.0154456
0.0154382
0.0154345
0.0154273
0.0154238
0.0154168
0.0154134
0.0154067
0.0154035
0.015397
0.0153941
0.0153877
0.0153851
0.0153791
0.0153767
0.0153709
0.0153688
0.0153632
0.0153614
0.0153561
0.0153545
0.0153494
0.0153479
0.015343
0.0153417
0.015337
0.0153358
0.015331
0.0153298
0.0153251
0.0153239
0.015319
0.0153177
0.0153126
0.0153111
0.0153058
0.015304
0.0152984
0.0152962
0.0152902
0.0152876
0.0152811
0.015278
0.0152711
0.0152675
0.01526
0.0152559
0.0152479
0.0152433
0.0152348
0.0152297
0.0152207
0.0152152
0.0152057
0.0151998
0.01519
0.0151838
0.0151737
0.0151672
0.0151569
0.0151503
0.0151399
0.0151332
0.0151227
0.0151161
0.0151056
0.015099
0.0150886
0.0150821
0.0150719
0.0150655
0.0150554
0.0150493
0.0150393
0.0150333
0.0150236
0.0150178
0.0150082
0.0150026
0.0149932
0.0149878
0.0149785
0.0149732
0.0149642
0.014959
0.01495
0.0149449
0.0149361
0.0149311
0.0149223
0.0149174
0.0149086
0.0149038
0.0148951
0.0148903
0.0148816
0.0148769
0.0148682
0.0148635
0.0148548
0.0148501
0.0148415
0.0148368
0.0148282
0.0148236
0.0148149
0.0148103
0.0148016
0.0147971
0.0147884
0.014784
0.0147752
0.0147709
0.0147621
0.0147578
0.014749
0.0147448
0.014736
0.0147319
0.014723
0.0147191
0.0147101
0.0147063
0.0146973
0.0146937
0.0146846
0.0146811
0.0146719
0.0146686
0.0146594
0.0146562
0.014647
0.014644
0.0146346
0.0146318
0.0146224
0.0146197
0.0146103
0.0146077
0.0145983
0.0145958
0.0145864
0.0145839
0.0145746
0.0145722
0.0145629
0.0145606
0.0145513
0.014549
0.0145398
0.0145375
0.0145284
0.0145261
0.014517
0.0145148
0.0145058
0.0145036
0.0144946
0.0144924
0.0144836
0.0144814
0.0144726
0.0144703
0.0144618
0.0144593
0.014451
0.0144485
0.0144404
0.0144377
0.0144298
0.014427
0.0144194
0.0144165
0.0144091
0.0144061
0.0143989
0.014396
0.0143889
0.014386
0.0143792
0.0143763
0.0143696
0.0143669
0.0143604
0.0143577
0.0143514
0.0143489
0.0143428
0.0143404
0.0143345
0.0143323
0.0143265
0.0143245
0.0143189
0.014317
0.0143115
0.0143098
0.0143045
0.0143029
0.0142977
0.0142962
0.014291
0.0142897
0.0142845
0.0142832
0.0142781
0.0142768
0.0142716
0.0142703
0.014265
0.0142636
0.0142582
0.0142568
0.0142511
0.0142497
0.0142437
0.0142421
0.0142358
0.0142341
0.0142273
0.0142255
0.0142182
0.0142163
0.0142085
0.0142064
0.014198
0.0141957
0.0141868
0.0141844
0.0141683
0.229173
)
;

boundaryField
{
    inlet
    {
        type            fixedValue;
        value           uniform 0.55;
    }
    outlet
    {
        type            zeroGradient;
    }
    emptyWalls
    {
        type            empty;
    }
}


// ************************************************************************* //
