/*--------------------------------*- C++ -*----------------------------------*\
  =========                 |
  \\      /  F ield         | OpenFOAM: The Open Source CFD Toolbox
   \\    /   O peration     | Website:  https://openfoam.org
    \\  /    A nd           | Version:  9
     \\/     M anipulation  |
\*---------------------------------------------------------------------------*/
FoamFile
{
    format      ascii;
    class       volScalarField;
    location    "20800";
    object      Fb;
}
// * * * * * * * * * * * * * * * * * * * * * * * * * * * * * * * * * * * * * //

dimensions      [0 0 0 0 0 0 0];

internalField   nonuniform List<scalar> 
1000
(
0.805235
0.805201
0.805207
0.805216
0.805216
0.805224
0.805246
0.805252
0.805276
0.805301
0.80531
0.805369
0.805349
0.805459
0.805384
0.805547
0.805432
0.805596
0.805516
0.805622
0.805607
0.805662
0.80567
0.805707
0.805717
0.805751
0.805806
0.806028
0.807261
0.818623
0.831577
0.833699
0.834461
0.834872
0.835151
0.835364
0.835538
0.835685
0.835812
0.835923
0.83602
0.836104
0.83618
0.836245
0.836302
0.836351
0.836392
0.836418
0.83644
0.83646
0.836471
0.83649
0.836506
0.836522
0.836536
0.836548
0.836536
0.836531
0.836501
0.836486
0.836444
0.836427
0.836409
0.836396
0.836383
0.836361
0.836323
0.836259
0.836162
0.836029
0.835871
0.835639
0.835324
0.834978
0.834626
0.834326
0.834047
0.833742
0.833448
0.833143
0.832826
0.832511
0.832217
0.831964
0.83176
0.831604
0.831489
0.831404
0.831336
0.831271
0.831198
0.831106
0.830987
0.830838
0.830655
0.830439
0.830192
0.829915
0.829614
0.829293
0.828957
0.828611
0.828258
0.827903
0.827548
0.827195
0.826846
0.826501
0.82616
0.825824
0.825492
0.825164
0.824838
0.824514
0.824192
0.823871
0.82355
0.823229
0.822908
0.822586
0.822264
0.82194
0.821616
0.82129
0.820963
0.820635
0.820306
0.819975
0.819643
0.81931
0.818976
0.81864
0.818303
0.817965
0.817625
0.817284
0.816942
0.816598
0.816253
0.815906
0.815558
0.815209
0.814858
0.814506
0.814152
0.813798
0.813441
0.813084
0.812725
0.812365
0.812003
0.811639
0.811274
0.810908
0.810539
0.810169
0.809797
0.809424
0.80905
0.808676
0.8083
0.807924
0.807548
0.807171
0.806794
0.806416
0.806037
0.805657
0.805276
0.804893
0.80451
0.804124
0.803738
0.803351
0.802964
0.802577
0.802191
0.801806
0.801421
0.801037
0.800651
0.800264
0.799873
0.799477
0.799073
0.79866
0.798236
0.797801
0.797353
0.796892
0.796419
0.795934
0.795438
0.794933
0.79442
0.793902
0.79338
0.792859
0.79234
0.791826
0.791321
0.790829
0.790351
0.789891
0.789452
0.789035
0.78864
0.78827
0.787922
0.787595
0.787288
0.786997
0.786719
0.78645
0.786188
0.785927
0.785665
0.785398
0.785124
0.784841
0.784548
0.784242
0.783925
0.783596
0.783256
0.782905
0.782544
0.782175
0.781799
0.781417
0.78103
0.78064
0.780248
0.779854
0.779459
0.779064
0.77867
0.778276
0.777883
0.777492
0.777102
0.776712
0.776324
0.775937
0.775551
0.775166
0.774781
0.774397
0.774013
0.773629
0.773245
0.772861
0.772477
0.772092
0.771707
0.771321
0.770934
0.770547
0.770159
0.769771
0.769382
0.768991
0.7686
0.768209
0.767816
0.767422
0.767028
0.766632
0.766236
0.765838
0.76544
0.765041
0.76464
0.764239
0.763837
0.763434
0.76303
0.762625
0.762219
0.761812
0.761404
0.760994
0.760584
0.760173
0.759761
0.759347
0.758933
0.758517
0.758101
0.757683
0.757265
0.756846
0.756426
0.756005
0.755583
0.755161
0.754738
0.754314
0.75389
0.753464
0.753039
0.752612
0.752185
0.751757
0.751329
0.7509
0.75047
0.75004
0.74961
0.749179
0.748748
0.748316
0.747885
0.747453
0.74702
0.746586
0.746152
0.745716
0.745278
0.744837
0.744393
0.743946
0.743495
0.743039
0.742578
0.742111
0.741639
0.74116
0.740675
0.740185
0.739688
0.739186
0.738678
0.738166
0.737651
0.737132
0.736612
0.73609
0.73557
0.735051
0.734535
0.734024
0.733518
0.733019
0.732529
0.732048
0.731577
0.731117
0.730668
0.73023
0.729804
0.72939
0.728986
0.728591
0.728206
0.727827
0.727456
0.727089
0.726725
0.726363
0.726002
0.72564
0.725276
0.724908
0.724537
0.724161
0.72378
0.723393
0.723001
0.722603
0.722199
0.72179
0.721376
0.720957
0.720534
0.720107
0.719677
0.719244
0.718808
0.718371
0.717931
0.717491
0.717049
0.716607
0.716164
0.715721
0.715278
0.714835
0.714392
0.71395
0.713507
0.713065
0.712622
0.71218
0.711738
0.711296
0.710854
0.710412
0.70997
0.709528
0.709085
0.708642
0.708198
0.707754
0.70731
0.706865
0.706419
0.705973
0.705526
0.705079
0.704631
0.704182
0.703732
0.703281
0.70283
0.702378
0.701925
0.701471
0.701016
0.700561
0.700104
0.699647
0.699189
0.69873
0.69827
0.697809
0.697347
0.696884
0.696421
0.695956
0.695491
0.695025
0.694557
0.694089
0.69362
0.69315
0.692679
0.692207
0.691734
0.69126
0.690785
0.690309
0.689833
0.689356
0.688877
0.688398
0.687919
0.687438
0.686956
0.686474
0.685991
0.685507
0.685023
0.684538
0.684052
0.683565
0.683078
0.68259
0.682101
0.681612
0.681122
0.680632
0.68014
0.679648
0.679156
0.678662
0.678168
0.677673
0.677176
0.676678
0.676179
0.675678
0.675175
0.67467
0.674163
0.673653
0.673141
0.672625
0.672107
0.671585
0.67106
0.670531
0.669998
0.669462
0.668923
0.66838
0.667833
0.667284
0.666732
0.666177
0.66562
0.665061
0.664501
0.663941
0.66338
0.662819
0.662259
0.661701
0.661145
0.660592
0.660042
0.659496
0.658954
0.658417
0.657886
0.657359
0.656839
0.656324
0.655816
0.655313
0.654815
0.654324
0.653837
0.653355
0.652877
0.652402
0.651931
0.651461
0.650994
0.650527
0.650061
0.649595
0.649128
0.648659
0.648188
0.647716
0.64724
0.646762
0.646281
0.645796
0.645309
0.644817
0.644323
0.643825
0.643324
0.64282
0.642313
0.641804
0.641292
0.640777
0.640261
0.639742
0.639222
0.638701
0.638177
0.637653
0.637128
0.636601
0.636074
0.635546
0.635017
0.634488
0.633958
0.633427
0.632896
0.632365
0.631833
0.6313
0.630767
0.630233
0.629699
0.629164
0.628629
0.628093
0.627556
0.627018
0.62648
0.625941
0.625401
0.62486
0.624319
0.623776
0.623233
0.622688
0.622143
0.621596
0.621049
0.6205
0.619951
0.6194
0.618848
0.618295
0.617741
0.617186
0.61663
0.616072
0.615513
0.614953
0.614392
0.61383
0.613266
0.612701
0.612135
0.611568
0.611
0.61043
0.609859
0.609286
0.608713
0.608138
0.607562
0.606984
0.606406
0.605826
0.605244
0.604662
0.604078
0.603493
0.602906
0.602318
0.601729
0.601139
0.600547
0.599955
0.599361
0.598765
0.598169
0.597571
0.596971
0.596371
0.595769
0.595167
0.594562
0.593957
0.59335
0.592742
0.592133
0.591523
0.590911
0.590298
0.589683
0.589067
0.58845
0.587831
0.587211
0.586589
0.585965
0.585339
0.584712
0.584082
0.583451
0.582817
0.582181
0.581543
0.580902
0.580258
0.579612
0.578963
0.578312
0.577658
0.577
0.57634
0.575677
0.575011
0.574342
0.57367
0.572996
0.572319
0.571639
0.570957
0.570273
0.569587
0.568899
0.568209
0.567519
0.566827
0.566134
0.56544
0.564747
0.564053
0.563359
0.562666
0.561974
0.561283
0.560593
0.559904
0.559217
0.558532
0.557848
0.557167
0.556487
0.55581
0.555135
0.554461
0.553789
0.55312
0.552451
0.551784
0.551118
0.550453
0.549788
0.549123
0.548458
0.547793
0.547127
0.54646
0.545791
0.545121
0.544449
0.543775
0.543098
0.542418
0.541736
0.54105
0.540362
0.53967
0.538975
0.538277
0.537575
0.53687
0.536161
0.535449
0.534733
0.534015
0.533293
0.532568
0.531839
0.531108
0.530373
0.529636
0.528896
0.528153
0.527407
0.526659
0.525908
0.525154
0.524398
0.523639
0.522877
0.522114
0.521347
0.520578
0.519807
0.519033
0.518257
0.517478
0.516696
0.515912
0.515126
0.514337
0.513545
0.51275
0.511953
0.511153
0.51035
0.509544
0.508736
0.507925
0.50711
0.506293
0.505473
0.50465
0.503823
0.502994
0.502162
0.501327
0.500488
0.499646
0.498802
0.497954
0.497103
0.49625
0.495393
0.494533
0.49367
0.492804
0.491935
0.491064
0.490189
0.489313
0.488433
0.487552
0.486668
0.485782
0.484895
0.484007
0.483117
0.482227
0.481337
0.480447
0.479559
0.478672
0.477788
0.476907
0.476031
0.47516
0.474297
0.473442
0.472597
0.471765
0.470945
0.470142
0.469356
0.468591
0.467849
0.467131
0.466439
0.465777
0.465146
0.464547
0.463984
0.463456
0.462965
0.46251
0.462092
0.461711
0.461367
0.461056
0.46078
0.460535
0.460319
0.46013
0.459967
0.459826
0.459707
0.459604
0.459516
0.459441
0.459378
0.45932
0.459271
0.459218
0.459162
0.459084
0.458976
0.458799
0.458502
0.457976
0.45706
0.455425
0.45254
0.447481
0.438769
0.424265
0.401421
0.368611
0.32744
0.284187
0.246817
0.219822
0.202806
0.192993
0.18763
0.184775
0.183282
0.182504
0.182098
0.181884
0.18177
0.181707
0.181669
0.181646
0.18163
0.181617
0.181606
0.181596
0.181587
0.181578
0.18157
0.181562
0.181555
0.181548
0.181541
0.181535
0.18153
0.181525
0.18152
0.181517
0.181513
0.181511
0.181509
0.181508
0.181508
0.181507
0.181507
0.181509
0.181511
0.181514
0.181517
0.181521
0.181525
0.18153
0.181535
0.181541
0.181547
0.181553
0.18156
0.181567
0.181574
0.181581
0.181588
0.181595
0.181603
0.18161
0.181617
0.181624
0.181631
0.181638
0.181644
0.181651
0.181657
0.181663
0.181669
0.181674
0.18168
0.181685
0.181689
0.181694
0.181698
0.181702
0.181706
0.18171
0.181713
0.181717
0.18172
0.181723
0.181726
0.181728
0.181731
0.181734
0.181736
0.181738
0.181741
0.181743
0.181745
0.181747
0.18175
0.181752
0.181754
0.181756
0.181758
0.18176
0.181762
0.181765
0.181767
0.181769
0.181771
0.181773
0.181775
0.181778
0.18178
0.181782
0.181784
0.181786
0.181789
0.181791
0.181793
0.181795
0.181797
0.1818
0.181802
0.181804
0.181806
0.181808
0.18181
0.181812
0.181814
0.181816
0.181818
0.18182
0.181822
0.181824
0.181825
0.181827
0.181829
0.18183
0.181832
0.181833
0.181834
0.181836
0.181837
0.181838
0.181839
0.18184
0.181841
0.181842
0.181843
0.181844
0.181845
0.181845
0.181846
0.181846
0.181847
0.181847
0.181848
0.181848
0.181848
0.181848
0.181848
0.181848
0.181848
0.181848
0.181848
0.181848
0.181848
0.181847
0.181847
0.181846
0.181846
0.181843
)
;

boundaryField
{
    inlet
    {
        type            calculated;
        value           uniform 0.805169;
    }
    outlet
    {
        type            calculated;
        value           uniform 0.181845;
    }
    emptyWalls
    {
        type            empty;
    }
}


// ************************************************************************* //
