/*--------------------------------*- C++ -*----------------------------------*\
  =========                 |
  \\      /  F ield         | OpenFOAM: The Open Source CFD Toolbox
   \\    /   O peration     | Website:  https://openfoam.org
    \\  /    A nd           | Version:  9
     \\/     M anipulation  |
\*---------------------------------------------------------------------------*/
FoamFile
{
    format      ascii;
    class       volVectorField;
    location    "20800";
    object      Ub;
}
// * * * * * * * * * * * * * * * * * * * * * * * * * * * * * * * * * * * * * //

dimensions      [0 0 0 0 0 0 0];

internalField   nonuniform List<vector> 
1000
(
(1.13621e-05 0 0)
(1.13623e-05 0 0)
(1.13623e-05 0 0)
(1.13624e-05 0 0)
(1.13624e-05 0 0)
(1.13626e-05 0 0)
(1.13628e-05 0 0)
(1.1363e-05 0 0)
(1.13633e-05 0 0)
(1.13635e-05 0 0)
(1.13639e-05 0 0)
(1.13643e-05 0 0)
(1.13647e-05 0 0)
(1.13652e-05 0 0)
(1.13656e-05 0 0)
(1.13661e-05 0 0)
(1.13664e-05 0 0)
(1.13669e-05 0 0)
(1.13673e-05 0 0)
(1.13677e-05 0 0)
(1.13682e-05 0 0)
(1.13685e-05 0 0)
(1.13689e-05 0 0)
(1.13692e-05 0 0)
(1.13696e-05 0 0)
(1.137e-05 0 0)
(1.13713e-05 0 0)
(1.1376e-05 0 0)
(1.13989e-05 0 0)
(1.15448e-05 0 0)
(1.17109e-05 0 0)
(1.176e-05 0 0)
(1.17739e-05 0 0)
(1.17804e-05 0 0)
(1.17846e-05 0 0)
(1.17877e-05 0 0)
(1.17902e-05 0 0)
(1.17923e-05 0 0)
(1.17941e-05 0 0)
(1.17957e-05 0 0)
(1.1797e-05 0 0)
(1.17982e-05 0 0)
(1.17993e-05 0 0)
(1.18002e-05 0 0)
(1.1801e-05 0 0)
(1.18017e-05 0 0)
(1.18023e-05 0 0)
(1.18027e-05 0 0)
(1.1803e-05 0 0)
(1.18033e-05 0 0)
(1.18035e-05 0 0)
(1.18037e-05 0 0)
(1.18039e-05 0 0)
(1.18041e-05 0 0)
(1.18044e-05 0 0)
(1.18044e-05 0 0)
(1.18044e-05 0 0)
(1.18042e-05 0 0)
(1.18039e-05 0 0)
(1.18036e-05 0 0)
(1.18032e-05 0 0)
(1.18028e-05 0 0)
(1.18026e-05 0 0)
(1.18024e-05 0 0)
(1.18022e-05 0 0)
(1.18018e-05 0 0)
(1.18013e-05 0 0)
(1.18003e-05 0 0)
(1.1799e-05 0 0)
(1.17971e-05 0 0)
(1.17949e-05 0 0)
(1.17916e-05 0 0)
(1.17871e-05 0 0)
(1.17824e-05 0 0)
(1.17776e-05 0 0)
(1.17732e-05 0 0)
(1.17691e-05 0 0)
(1.17649e-05 0 0)
(1.17607e-05 0 0)
(1.17564e-05 0 0)
(1.1752e-05 0 0)
(1.17476e-05 0 0)
(1.17436e-05 0 0)
(1.174e-05 0 0)
(1.17371e-05 0 0)
(1.17349e-05 0 0)
(1.17332e-05 0 0)
(1.1732e-05 0 0)
(1.1731e-05 0 0)
(1.173e-05 0 0)
(1.1729e-05 0 0)
(1.17276e-05 0 0)
(1.1726e-05 0 0)
(1.17238e-05 0 0)
(1.17213e-05 0 0)
(1.17182e-05 0 0)
(1.17147e-05 0 0)
(1.17109e-05 0 0)
(1.17066e-05 0 0)
(1.17021e-05 0 0)
(1.16974e-05 0 0)
(1.16925e-05 0 0)
(1.16875e-05 0 0)
(1.16825e-05 0 0)
(1.16775e-05 0 0)
(1.16726e-05 0 0)
(1.16676e-05 0 0)
(1.16628e-05 0 0)
(1.1658e-05 0 0)
(1.16532e-05 0 0)
(1.16485e-05 0 0)
(1.16439e-05 0 0)
(1.16393e-05 0 0)
(1.16347e-05 0 0)
(1.16302e-05 0 0)
(1.16256e-05 0 0)
(1.16211e-05 0 0)
(1.16166e-05 0 0)
(1.16121e-05 0 0)
(1.16075e-05 0 0)
(1.1603e-05 0 0)
(1.15984e-05 0 0)
(1.15938e-05 0 0)
(1.15892e-05 0 0)
(1.15846e-05 0 0)
(1.158e-05 0 0)
(1.15753e-05 0 0)
(1.15707e-05 0 0)
(1.1566e-05 0 0)
(1.15613e-05 0 0)
(1.15566e-05 0 0)
(1.15518e-05 0 0)
(1.15471e-05 0 0)
(1.15423e-05 0 0)
(1.15375e-05 0 0)
(1.15327e-05 0 0)
(1.15279e-05 0 0)
(1.1523e-05 0 0)
(1.15181e-05 0 0)
(1.15133e-05 0 0)
(1.15083e-05 0 0)
(1.15034e-05 0 0)
(1.14985e-05 0 0)
(1.14935e-05 0 0)
(1.14885e-05 0 0)
(1.14835e-05 0 0)
(1.14785e-05 0 0)
(1.14734e-05 0 0)
(1.14684e-05 0 0)
(1.14633e-05 0 0)
(1.14582e-05 0 0)
(1.1453e-05 0 0)
(1.14479e-05 0 0)
(1.14427e-05 0 0)
(1.14375e-05 0 0)
(1.14323e-05 0 0)
(1.1427e-05 0 0)
(1.14218e-05 0 0)
(1.14165e-05 0 0)
(1.14112e-05 0 0)
(1.14059e-05 0 0)
(1.14006e-05 0 0)
(1.13953e-05 0 0)
(1.139e-05 0 0)
(1.13847e-05 0 0)
(1.13793e-05 0 0)
(1.1374e-05 0 0)
(1.13686e-05 0 0)
(1.13632e-05 0 0)
(1.13578e-05 0 0)
(1.13524e-05 0 0)
(1.1347e-05 0 0)
(1.13416e-05 0 0)
(1.13361e-05 0 0)
(1.13306e-05 0 0)
(1.13252e-05 0 0)
(1.13197e-05 0 0)
(1.13143e-05 0 0)
(1.13089e-05 0 0)
(1.13034e-05 0 0)
(1.1298e-05 0 0)
(1.12925e-05 0 0)
(1.1287e-05 0 0)
(1.12814e-05 0 0)
(1.12757e-05 0 0)
(1.12699e-05 0 0)
(1.12639e-05 0 0)
(1.12577e-05 0 0)
(1.12514e-05 0 0)
(1.12449e-05 0 0)
(1.12382e-05 0 0)
(1.12314e-05 0 0)
(1.12244e-05 0 0)
(1.12173e-05 0 0)
(1.121e-05 0 0)
(1.12027e-05 0 0)
(1.11954e-05 0 0)
(1.1188e-05 0 0)
(1.11807e-05 0 0)
(1.11735e-05 0 0)
(1.11664e-05 0 0)
(1.11594e-05 0 0)
(1.11527e-05 0 0)
(1.11462e-05 0 0)
(1.114e-05 0 0)
(1.11342e-05 0 0)
(1.11286e-05 0 0)
(1.11234e-05 0 0)
(1.11184e-05 0 0)
(1.11138e-05 0 0)
(1.11095e-05 0 0)
(1.11054e-05 0 0)
(1.11014e-05 0 0)
(1.10976e-05 0 0)
(1.10939e-05 0 0)
(1.10902e-05 0 0)
(1.10865e-05 0 0)
(1.10827e-05 0 0)
(1.10789e-05 0 0)
(1.10749e-05 0 0)
(1.10707e-05 0 0)
(1.10664e-05 0 0)
(1.10619e-05 0 0)
(1.10573e-05 0 0)
(1.10525e-05 0 0)
(1.10475e-05 0 0)
(1.10425e-05 0 0)
(1.10372e-05 0 0)
(1.10319e-05 0 0)
(1.10266e-05 0 0)
(1.10211e-05 0 0)
(1.10156e-05 0 0)
(1.10101e-05 0 0)
(1.10045e-05 0 0)
(1.0999e-05 0 0)
(1.09934e-05 0 0)
(1.09878e-05 0 0)
(1.09823e-05 0 0)
(1.09767e-05 0 0)
(1.09712e-05 0 0)
(1.09657e-05 0 0)
(1.09602e-05 0 0)
(1.09547e-05 0 0)
(1.09493e-05 0 0)
(1.09438e-05 0 0)
(1.09384e-05 0 0)
(1.09329e-05 0 0)
(1.09275e-05 0 0)
(1.09221e-05 0 0)
(1.09167e-05 0 0)
(1.09113e-05 0 0)
(1.09058e-05 0 0)
(1.09004e-05 0 0)
(1.0895e-05 0 0)
(1.08896e-05 0 0)
(1.08841e-05 0 0)
(1.08787e-05 0 0)
(1.08732e-05 0 0)
(1.08677e-05 0 0)
(1.08622e-05 0 0)
(1.08567e-05 0 0)
(1.08512e-05 0 0)
(1.08457e-05 0 0)
(1.08402e-05 0 0)
(1.08346e-05 0 0)
(1.08291e-05 0 0)
(1.08235e-05 0 0)
(1.08179e-05 0 0)
(1.08123e-05 0 0)
(1.08067e-05 0 0)
(1.08011e-05 0 0)
(1.07955e-05 0 0)
(1.07898e-05 0 0)
(1.07842e-05 0 0)
(1.07785e-05 0 0)
(1.07728e-05 0 0)
(1.07671e-05 0 0)
(1.07614e-05 0 0)
(1.07557e-05 0 0)
(1.07499e-05 0 0)
(1.07442e-05 0 0)
(1.07384e-05 0 0)
(1.07326e-05 0 0)
(1.07268e-05 0 0)
(1.0721e-05 0 0)
(1.07151e-05 0 0)
(1.07093e-05 0 0)
(1.07034e-05 0 0)
(1.06976e-05 0 0)
(1.06917e-05 0 0)
(1.06858e-05 0 0)
(1.06799e-05 0 0)
(1.06739e-05 0 0)
(1.0668e-05 0 0)
(1.0662e-05 0 0)
(1.06561e-05 0 0)
(1.06501e-05 0 0)
(1.06441e-05 0 0)
(1.06381e-05 0 0)
(1.06321e-05 0 0)
(1.06261e-05 0 0)
(1.06201e-05 0 0)
(1.06141e-05 0 0)
(1.0608e-05 0 0)
(1.0602e-05 0 0)
(1.05959e-05 0 0)
(1.05899e-05 0 0)
(1.05838e-05 0 0)
(1.05777e-05 0 0)
(1.05717e-05 0 0)
(1.05656e-05 0 0)
(1.05595e-05 0 0)
(1.05534e-05 0 0)
(1.05473e-05 0 0)
(1.05412e-05 0 0)
(1.05351e-05 0 0)
(1.05289e-05 0 0)
(1.05228e-05 0 0)
(1.05166e-05 0 0)
(1.05104e-05 0 0)
(1.05041e-05 0 0)
(1.04978e-05 0 0)
(1.04914e-05 0 0)
(1.0485e-05 0 0)
(1.04785e-05 0 0)
(1.04719e-05 0 0)
(1.04652e-05 0 0)
(1.04585e-05 0 0)
(1.04517e-05 0 0)
(1.04447e-05 0 0)
(1.04377e-05 0 0)
(1.04306e-05 0 0)
(1.04235e-05 0 0)
(1.04163e-05 0 0)
(1.0409e-05 0 0)
(1.04017e-05 0 0)
(1.03943e-05 0 0)
(1.0387e-05 0 0)
(1.03796e-05 0 0)
(1.03723e-05 0 0)
(1.0365e-05 0 0)
(1.03578e-05 0 0)
(1.03507e-05 0 0)
(1.03437e-05 0 0)
(1.03368e-05 0 0)
(1.033e-05 0 0)
(1.03233e-05 0 0)
(1.03168e-05 0 0)
(1.03105e-05 0 0)
(1.03043e-05 0 0)
(1.02983e-05 0 0)
(1.02925e-05 0 0)
(1.02868e-05 0 0)
(1.02812e-05 0 0)
(1.02757e-05 0 0)
(1.02704e-05 0 0)
(1.02651e-05 0 0)
(1.026e-05 0 0)
(1.02548e-05 0 0)
(1.02497e-05 0 0)
(1.02446e-05 0 0)
(1.02395e-05 0 0)
(1.02344e-05 0 0)
(1.02292e-05 0 0)
(1.02239e-05 0 0)
(1.02186e-05 0 0)
(1.02132e-05 0 0)
(1.02078e-05 0 0)
(1.02022e-05 0 0)
(1.01966e-05 0 0)
(1.01909e-05 0 0)
(1.01852e-05 0 0)
(1.01793e-05 0 0)
(1.01734e-05 0 0)
(1.01674e-05 0 0)
(1.01614e-05 0 0)
(1.01554e-05 0 0)
(1.01492e-05 0 0)
(1.01431e-05 0 0)
(1.01369e-05 0 0)
(1.01307e-05 0 0)
(1.01245e-05 0 0)
(1.01183e-05 0 0)
(1.0112e-05 0 0)
(1.01058e-05 0 0)
(1.00995e-05 0 0)
(1.00933e-05 0 0)
(1.0087e-05 0 0)
(1.00808e-05 0 0)
(1.00745e-05 0 0)
(1.00683e-05 0 0)
(1.00621e-05 0 0)
(1.00558e-05 0 0)
(1.00496e-05 0 0)
(1.00433e-05 0 0)
(1.00371e-05 0 0)
(1.00309e-05 0 0)
(1.00246e-05 0 0)
(1.00184e-05 0 0)
(1.00121e-05 0 0)
(1.00059e-05 0 0)
(9.99965e-06 0 0)
(9.99339e-06 0 0)
(9.98712e-06 0 0)
(9.98085e-06 0 0)
(9.97457e-06 0 0)
(9.96829e-06 0 0)
(9.96199e-06 0 0)
(9.95568e-06 0 0)
(9.94937e-06 0 0)
(9.94304e-06 0 0)
(9.93671e-06 0 0)
(9.93036e-06 0 0)
(9.924e-06 0 0)
(9.91763e-06 0 0)
(9.91125e-06 0 0)
(9.90486e-06 0 0)
(9.89845e-06 0 0)
(9.89204e-06 0 0)
(9.88561e-06 0 0)
(9.87917e-06 0 0)
(9.87272e-06 0 0)
(9.86625e-06 0 0)
(9.85977e-06 0 0)
(9.85328e-06 0 0)
(9.84678e-06 0 0)
(9.84026e-06 0 0)
(9.83373e-06 0 0)
(9.82719e-06 0 0)
(9.82064e-06 0 0)
(9.81407e-06 0 0)
(9.80749e-06 0 0)
(9.8009e-06 0 0)
(9.79429e-06 0 0)
(9.78767e-06 0 0)
(9.78103e-06 0 0)
(9.77439e-06 0 0)
(9.76773e-06 0 0)
(9.76105e-06 0 0)
(9.75437e-06 0 0)
(9.74767e-06 0 0)
(9.74096e-06 0 0)
(9.73423e-06 0 0)
(9.7275e-06 0 0)
(9.72075e-06 0 0)
(9.71399e-06 0 0)
(9.70722e-06 0 0)
(9.70044e-06 0 0)
(9.69364e-06 0 0)
(9.68684e-06 0 0)
(9.68002e-06 0 0)
(9.67319e-06 0 0)
(9.66636e-06 0 0)
(9.65951e-06 0 0)
(9.65265e-06 0 0)
(9.64579e-06 0 0)
(9.63891e-06 0 0)
(9.63202e-06 0 0)
(9.62513e-06 0 0)
(9.61823e-06 0 0)
(9.61131e-06 0 0)
(9.60439e-06 0 0)
(9.59746e-06 0 0)
(9.59052e-06 0 0)
(9.58357e-06 0 0)
(9.5766e-06 0 0)
(9.56963e-06 0 0)
(9.56264e-06 0 0)
(9.55563e-06 0 0)
(9.5486e-06 0 0)
(9.54156e-06 0 0)
(9.53449e-06 0 0)
(9.52739e-06 0 0)
(9.52027e-06 0 0)
(9.51311e-06 0 0)
(9.50591e-06 0 0)
(9.49868e-06 0 0)
(9.49141e-06 0 0)
(9.48409e-06 0 0)
(9.47672e-06 0 0)
(9.46931e-06 0 0)
(9.46185e-06 0 0)
(9.45434e-06 0 0)
(9.44677e-06 0 0)
(9.43916e-06 0 0)
(9.4315e-06 0 0)
(9.42379e-06 0 0)
(9.41604e-06 0 0)
(9.40824e-06 0 0)
(9.40042e-06 0 0)
(9.39256e-06 0 0)
(9.38468e-06 0 0)
(9.37678e-06 0 0)
(9.36887e-06 0 0)
(9.36095e-06 0 0)
(9.35304e-06 0 0)
(9.34515e-06 0 0)
(9.33728e-06 0 0)
(9.32943e-06 0 0)
(9.32163e-06 0 0)
(9.31387e-06 0 0)
(9.30617e-06 0 0)
(9.29852e-06 0 0)
(9.29095e-06 0 0)
(9.28345e-06 0 0)
(9.27602e-06 0 0)
(9.26868e-06 0 0)
(9.26142e-06 0 0)
(9.25424e-06 0 0)
(9.24714e-06 0 0)
(9.24012e-06 0 0)
(9.23318e-06 0 0)
(9.22631e-06 0 0)
(9.2195e-06 0 0)
(9.21276e-06 0 0)
(9.20606e-06 0 0)
(9.1994e-06 0 0)
(9.19278e-06 0 0)
(9.18618e-06 0 0)
(9.17959e-06 0 0)
(9.17301e-06 0 0)
(9.16643e-06 0 0)
(9.15984e-06 0 0)
(9.15322e-06 0 0)
(9.14658e-06 0 0)
(9.13991e-06 0 0)
(9.1332e-06 0 0)
(9.12645e-06 0 0)
(9.11966e-06 0 0)
(9.11282e-06 0 0)
(9.10594e-06 0 0)
(9.09901e-06 0 0)
(9.09203e-06 0 0)
(9.08501e-06 0 0)
(9.07794e-06 0 0)
(9.07083e-06 0 0)
(9.06367e-06 0 0)
(9.05648e-06 0 0)
(9.04926e-06 0 0)
(9.042e-06 0 0)
(9.03471e-06 0 0)
(9.0274e-06 0 0)
(9.02006e-06 0 0)
(9.0127e-06 0 0)
(9.00532e-06 0 0)
(8.99792e-06 0 0)
(8.99051e-06 0 0)
(8.98308e-06 0 0)
(8.97564e-06 0 0)
(8.96819e-06 0 0)
(8.96073e-06 0 0)
(8.95326e-06 0 0)
(8.94578e-06 0 0)
(8.93829e-06 0 0)
(8.9308e-06 0 0)
(8.9233e-06 0 0)
(8.91579e-06 0 0)
(8.90828e-06 0 0)
(8.90075e-06 0 0)
(8.89322e-06 0 0)
(8.88568e-06 0 0)
(8.87814e-06 0 0)
(8.87058e-06 0 0)
(8.86302e-06 0 0)
(8.85544e-06 0 0)
(8.84786e-06 0 0)
(8.84026e-06 0 0)
(8.83265e-06 0 0)
(8.82503e-06 0 0)
(8.8174e-06 0 0)
(8.80976e-06 0 0)
(8.80211e-06 0 0)
(8.79444e-06 0 0)
(8.78675e-06 0 0)
(8.77906e-06 0 0)
(8.77134e-06 0 0)
(8.76362e-06 0 0)
(8.75588e-06 0 0)
(8.74812e-06 0 0)
(8.74035e-06 0 0)
(8.73256e-06 0 0)
(8.72476e-06 0 0)
(8.71694e-06 0 0)
(8.70911e-06 0 0)
(8.70126e-06 0 0)
(8.69339e-06 0 0)
(8.6855e-06 0 0)
(8.6776e-06 0 0)
(8.66969e-06 0 0)
(8.66175e-06 0 0)
(8.6538e-06 0 0)
(8.64583e-06 0 0)
(8.63784e-06 0 0)
(8.62984e-06 0 0)
(8.62181e-06 0 0)
(8.61377e-06 0 0)
(8.60571e-06 0 0)
(8.59764e-06 0 0)
(8.58954e-06 0 0)
(8.58143e-06 0 0)
(8.5733e-06 0 0)
(8.56515e-06 0 0)
(8.55699e-06 0 0)
(8.5488e-06 0 0)
(8.5406e-06 0 0)
(8.53238e-06 0 0)
(8.52414e-06 0 0)
(8.51588e-06 0 0)
(8.50761e-06 0 0)
(8.49931e-06 0 0)
(8.491e-06 0 0)
(8.48267e-06 0 0)
(8.47432e-06 0 0)
(8.46596e-06 0 0)
(8.45757e-06 0 0)
(8.44917e-06 0 0)
(8.44075e-06 0 0)
(8.43232e-06 0 0)
(8.42386e-06 0 0)
(8.41539e-06 0 0)
(8.4069e-06 0 0)
(8.39839e-06 0 0)
(8.38987e-06 0 0)
(8.38132e-06 0 0)
(8.37276e-06 0 0)
(8.36419e-06 0 0)
(8.35559e-06 0 0)
(8.34698e-06 0 0)
(8.33834e-06 0 0)
(8.32969e-06 0 0)
(8.32102e-06 0 0)
(8.31233e-06 0 0)
(8.30362e-06 0 0)
(8.29488e-06 0 0)
(8.28613e-06 0 0)
(8.27735e-06 0 0)
(8.26855e-06 0 0)
(8.25972e-06 0 0)
(8.25086e-06 0 0)
(8.24198e-06 0 0)
(8.23307e-06 0 0)
(8.22412e-06 0 0)
(8.21515e-06 0 0)
(8.20614e-06 0 0)
(8.1971e-06 0 0)
(8.18802e-06 0 0)
(8.1789e-06 0 0)
(8.16975e-06 0 0)
(8.16055e-06 0 0)
(8.15132e-06 0 0)
(8.14204e-06 0 0)
(8.13272e-06 0 0)
(8.12337e-06 0 0)
(8.11397e-06 0 0)
(8.10453e-06 0 0)
(8.09505e-06 0 0)
(8.08554e-06 0 0)
(8.07598e-06 0 0)
(8.06639e-06 0 0)
(8.05677e-06 0 0)
(8.04712e-06 0 0)
(8.03744e-06 0 0)
(8.02773e-06 0 0)
(8.018e-06 0 0)
(8.00825e-06 0 0)
(7.99849e-06 0 0)
(7.98871e-06 0 0)
(7.97893e-06 0 0)
(7.96914e-06 0 0)
(7.95935e-06 0 0)
(7.94957e-06 0 0)
(7.93979e-06 0 0)
(7.93002e-06 0 0)
(7.92026e-06 0 0)
(7.91053e-06 0 0)
(7.90081e-06 0 0)
(7.89112e-06 0 0)
(7.88145e-06 0 0)
(7.87181e-06 0 0)
(7.86219e-06 0 0)
(7.8526e-06 0 0)
(7.84304e-06 0 0)
(7.83351e-06 0 0)
(7.82401e-06 0 0)
(7.81453e-06 0 0)
(7.80508e-06 0 0)
(7.79564e-06 0 0)
(7.78623e-06 0 0)
(7.77683e-06 0 0)
(7.76744e-06 0 0)
(7.75806e-06 0 0)
(7.74868e-06 0 0)
(7.73929e-06 0 0)
(7.72991e-06 0 0)
(7.72051e-06 0 0)
(7.71109e-06 0 0)
(7.70166e-06 0 0)
(7.6922e-06 0 0)
(7.68271e-06 0 0)
(7.6732e-06 0 0)
(7.66365e-06 0 0)
(7.65406e-06 0 0)
(7.64443e-06 0 0)
(7.63475e-06 0 0)
(7.62504e-06 0 0)
(7.61528e-06 0 0)
(7.60547e-06 0 0)
(7.59561e-06 0 0)
(7.58571e-06 0 0)
(7.57576e-06 0 0)
(7.56576e-06 0 0)
(7.55571e-06 0 0)
(7.54561e-06 0 0)
(7.53547e-06 0 0)
(7.52528e-06 0 0)
(7.51505e-06 0 0)
(7.50477e-06 0 0)
(7.49445e-06 0 0)
(7.48409e-06 0 0)
(7.47369e-06 0 0)
(7.46324e-06 0 0)
(7.45276e-06 0 0)
(7.44224e-06 0 0)
(7.43167e-06 0 0)
(7.42108e-06 0 0)
(7.41044e-06 0 0)
(7.39977e-06 0 0)
(7.38906e-06 0 0)
(7.37832e-06 0 0)
(7.36754e-06 0 0)
(7.35672e-06 0 0)
(7.34587e-06 0 0)
(7.33499e-06 0 0)
(7.32407e-06 0 0)
(7.31311e-06 0 0)
(7.30212e-06 0 0)
(7.2911e-06 0 0)
(7.28003e-06 0 0)
(7.26893e-06 0 0)
(7.2578e-06 0 0)
(7.24662e-06 0 0)
(7.23541e-06 0 0)
(7.22416e-06 0 0)
(7.21287e-06 0 0)
(7.20154e-06 0 0)
(7.19017e-06 0 0)
(7.17876e-06 0 0)
(7.16732e-06 0 0)
(7.15582e-06 0 0)
(7.14429e-06 0 0)
(7.13272e-06 0 0)
(7.1211e-06 0 0)
(7.10944e-06 0 0)
(7.09774e-06 0 0)
(7.086e-06 0 0)
(7.07421e-06 0 0)
(7.06238e-06 0 0)
(7.0505e-06 0 0)
(7.03859e-06 0 0)
(7.02662e-06 0 0)
(7.01462e-06 0 0)
(7.00257e-06 0 0)
(6.99048e-06 0 0)
(6.97834e-06 0 0)
(6.96617e-06 0 0)
(6.95395e-06 0 0)
(6.94169e-06 0 0)
(6.92939e-06 0 0)
(6.91706e-06 0 0)
(6.90468e-06 0 0)
(6.89228e-06 0 0)
(6.87984e-06 0 0)
(6.86737e-06 0 0)
(6.85487e-06 0 0)
(6.84236e-06 0 0)
(6.82982e-06 0 0)
(6.81727e-06 0 0)
(6.80471e-06 0 0)
(6.79215e-06 0 0)
(6.7796e-06 0 0)
(6.76706e-06 0 0)
(6.75455e-06 0 0)
(6.74208e-06 0 0)
(6.72965e-06 0 0)
(6.71729e-06 0 0)
(6.70501e-06 0 0)
(6.69283e-06 0 0)
(6.68078e-06 0 0)
(6.66887e-06 0 0)
(6.65712e-06 0 0)
(6.64557e-06 0 0)
(6.63424e-06 0 0)
(6.62316e-06 0 0)
(6.61237e-06 0 0)
(6.6019e-06 0 0)
(6.59178e-06 0 0)
(6.58203e-06 0 0)
(6.57269e-06 0 0)
(6.56379e-06 0 0)
(6.55536e-06 0 0)
(6.54741e-06 0 0)
(6.53996e-06 0 0)
(6.53303e-06 0 0)
(6.52661e-06 0 0)
(6.52071e-06 0 0)
(6.51533e-06 0 0)
(6.51047e-06 0 0)
(6.50609e-06 0 0)
(6.50218e-06 0 0)
(6.49871e-06 0 0)
(6.49566e-06 0 0)
(6.49299e-06 0 0)
(6.49068e-06 0 0)
(6.48868e-06 0 0)
(6.48698e-06 0 0)
(6.48552e-06 0 0)
(6.48428e-06 0 0)
(6.48321e-06 0 0)
(6.4823e-06 0 0)
(6.4815e-06 0 0)
(6.48076e-06 0 0)
(6.48001e-06 0 0)
(6.47916e-06 0 0)
(6.47803e-06 0 0)
(6.47636e-06 0 0)
(6.47367e-06 0 0)
(6.4691e-06 0 0)
(6.46113e-06 0 0)
(6.44704e-06 0 0)
(6.42211e-06 0 0)
(6.37818e-06 0 0)
(6.30168e-06 0 0)
(6.17149e-06 0 0)
(5.95848e-06 0 0)
(5.63148e-06 0 0)
(5.17533e-06 0 0)
(4.61684e-06 0 0)
(4.0337e-06 0 0)
(3.52089e-06 0 0)
(3.13766e-06 0 0)
(2.88737e-06 0 0)
(2.73907e-06 0 0)
(2.65651e-06 0 0)
(2.61217e-06 0 0)
(2.58882e-06 0 0)
(2.57663e-06 0 0)
(2.57026e-06 0 0)
(2.56692e-06 0 0)
(2.56514e-06 0 0)
(2.56415e-06 0 0)
(2.56359e-06 0 0)
(2.56323e-06 0 0)
(2.56299e-06 0 0)
(2.5628e-06 0 0)
(2.56264e-06 0 0)
(2.5625e-06 0 0)
(2.56237e-06 0 0)
(2.56225e-06 0 0)
(2.56214e-06 0 0)
(2.56203e-06 0 0)
(2.56192e-06 0 0)
(2.56182e-06 0 0)
(2.56173e-06 0 0)
(2.56165e-06 0 0)
(2.56157e-06 0 0)
(2.5615e-06 0 0)
(2.56144e-06 0 0)
(2.56138e-06 0 0)
(2.56134e-06 0 0)
(2.5613e-06 0 0)
(2.56128e-06 0 0)
(2.56127e-06 0 0)
(2.56126e-06 0 0)
(2.56125e-06 0 0)
(2.56125e-06 0 0)
(2.56127e-06 0 0)
(2.5613e-06 0 0)
(2.56134e-06 0 0)
(2.56139e-06 0 0)
(2.56144e-06 0 0)
(2.56151e-06 0 0)
(2.56157e-06 0 0)
(2.56165e-06 0 0)
(2.56173e-06 0 0)
(2.56181e-06 0 0)
(2.5619e-06 0 0)
(2.56199e-06 0 0)
(2.56209e-06 0 0)
(2.56219e-06 0 0)
(2.56229e-06 0 0)
(2.56239e-06 0 0)
(2.56249e-06 0 0)
(2.56259e-06 0 0)
(2.5627e-06 0 0)
(2.5628e-06 0 0)
(2.5629e-06 0 0)
(2.563e-06 0 0)
(2.56309e-06 0 0)
(2.56318e-06 0 0)
(2.56327e-06 0 0)
(2.56336e-06 0 0)
(2.56345e-06 0 0)
(2.56353e-06 0 0)
(2.5636e-06 0 0)
(2.56368e-06 0 0)
(2.56375e-06 0 0)
(2.56382e-06 0 0)
(2.56388e-06 0 0)
(2.56394e-06 0 0)
(2.564e-06 0 0)
(2.56406e-06 0 0)
(2.56411e-06 0 0)
(2.56416e-06 0 0)
(2.5642e-06 0 0)
(2.56425e-06 0 0)
(2.56429e-06 0 0)
(2.56433e-06 0 0)
(2.56437e-06 0 0)
(2.56441e-06 0 0)
(2.56444e-06 0 0)
(2.56448e-06 0 0)
(2.56451e-06 0 0)
(2.56454e-06 0 0)
(2.56458e-06 0 0)
(2.56461e-06 0 0)
(2.56464e-06 0 0)
(2.56467e-06 0 0)
(2.5647e-06 0 0)
(2.56473e-06 0 0)
(2.56476e-06 0 0)
(2.56479e-06 0 0)
(2.56482e-06 0 0)
(2.56485e-06 0 0)
(2.56488e-06 0 0)
(2.56491e-06 0 0)
(2.56494e-06 0 0)
(2.56497e-06 0 0)
(2.565e-06 0 0)
(2.56503e-06 0 0)
(2.56506e-06 0 0)
(2.56509e-06 0 0)
(2.56513e-06 0 0)
(2.56516e-06 0 0)
(2.56519e-06 0 0)
(2.56522e-06 0 0)
(2.56525e-06 0 0)
(2.56528e-06 0 0)
(2.56531e-06 0 0)
(2.56534e-06 0 0)
(2.56538e-06 0 0)
(2.56541e-06 0 0)
(2.56544e-06 0 0)
(2.56547e-06 0 0)
(2.56549e-06 0 0)
(2.56552e-06 0 0)
(2.56555e-06 0 0)
(2.56558e-06 0 0)
(2.56561e-06 0 0)
(2.56564e-06 0 0)
(2.56566e-06 0 0)
(2.56569e-06 0 0)
(2.56571e-06 0 0)
(2.56574e-06 0 0)
(2.56576e-06 0 0)
(2.56578e-06 0 0)
(2.5658e-06 0 0)
(2.56583e-06 0 0)
(2.56585e-06 0 0)
(2.56587e-06 0 0)
(2.56588e-06 0 0)
(2.5659e-06 0 0)
(2.56592e-06 0 0)
(2.56593e-06 0 0)
(2.56595e-06 0 0)
(2.56596e-06 0 0)
(2.56598e-06 0 0)
(2.56599e-06 0 0)
(2.566e-06 0 0)
(2.56601e-06 0 0)
(2.56602e-06 0 0)
(2.56603e-06 0 0)
(2.56604e-06 0 0)
(2.56604e-06 0 0)
(2.56605e-06 0 0)
(2.56605e-06 0 0)
(2.56606e-06 0 0)
(2.56606e-06 0 0)
(2.56606e-06 0 0)
(2.56606e-06 0 0)
(2.56606e-06 0 0)
(2.56606e-06 0 0)
(2.56606e-06 0 0)
(2.56606e-06 0 0)
(2.56606e-06 0 0)
(2.56605e-06 0 0)
(2.56605e-06 0 0)
(2.56604e-06 0 0)
(2.56604e-06 0 0)
(2.56603e-06 0 0)
(2.56602e-06 0 0)
)
;

boundaryField
{
    inlet
    {
        type            fixedValue;
        value           uniform (1.13622e-05 0 0);
    }
    outlet
    {
        type            zeroGradient;
    }
    emptyWalls
    {
        type            empty;
    }
}


// ************************************************************************* //
