/*--------------------------------*- C++ -*----------------------------------*\
  =========                 |
  \\      /  F ield         | OpenFOAM: The Open Source CFD Toolbox
   \\    /   O peration     | Website:  https://openfoam.org
    \\  /    A nd           | Version:  9
     \\/     M anipulation  |
\*---------------------------------------------------------------------------*/
FoamFile
{
    format      ascii;
    class       volScalarField;
    location    "1000";
    object      kra;
}
// * * * * * * * * * * * * * * * * * * * * * * * * * * * * * * * * * * * * * //

dimensions      [0 0 0 0 0 0 0];

internalField   nonuniform List<scalar> 
100
(
3.87327e-05
2.82229e-05
3.02476e-05
2.8929e-05
2.8686e-05
2.82424e-05
2.78889e-05
2.73093e-05
2.74466e-05
2.7545e-05
2.76609e-05
2.7746e-05
2.78243e-05
2.7891e-05
2.79487e-05
2.79966e-05
2.80395e-05
2.80755e-05
2.81019e-05
2.81197e-05
2.81315e-05
2.81398e-05
2.81417e-05
2.81398e-05
2.81331e-05
2.81213e-05
2.81016e-05
2.80626e-05
2.79779e-05
2.77642e-05
2.68563e-05
1.63184e-05
2.85768e-07
7.84543e-12
1.11312e-21
2.98276e-35
3.06905e-35
2.8139e-35
2.81404e-35
2.98298e-35
3.06905e-35
3.03471e-35
1.03739e-35
1.33931e-36
1.21311e-36
1.111e-36
1.21174e-36
1.21174e-36
1.11099e-36
1.21174e-36
1.17767e-36
1.11099e-36
1.11099e-36
1.21174e-36
1.11099e-36
1.17767e-36
1.11099e-36
1.11099e-36
1.17767e-36
1.21174e-36
1.17767e-36
1.21174e-36
1.17767e-36
1.11099e-36
1.11099e-36
1.31689e-36
1.21174e-36
1.28135e-36
1.11099e-36
1.11099e-36
1.21174e-36
1.28135e-36
1.21174e-36
1.31689e-36
1.28135e-36
1.31689e-36
1.21174e-36
1.21174e-36
1.21174e-36
1.28135e-36
1.11099e-36
1.31689e-36
1.21174e-36
1.21174e-36
1.28135e-36
1.07838e-36
1.31689e-36
1.21174e-36
1.28135e-36
1.31689e-36
1.28135e-36
1.31689e-36
1.21174e-36
1.28135e-36
1.31689e-36
1.11099e-36
1.28135e-36
1.31689e-36
1.28135e-36
1.31689e-36
)
;

boundaryField
{
    inlet
    {
        type            calculated;
        value           uniform 1.05548e-05;
    }
    outlet
    {
        type            calculated;
        value           uniform 4.72742e-37;
    }
    emptyWalls
    {
        type            empty;
    }
}


// ************************************************************************* //
