/*--------------------------------*- C++ -*----------------------------------*\
  =========                 |
  \\      /  F ield         | OpenFOAM: The Open Source CFD Toolbox
   \\    /   O peration     | Website:  https://openfoam.org
    \\  /    A nd           | Version:  9
     \\/     M anipulation  |
\*---------------------------------------------------------------------------*/
FoamFile
{
    format      ascii;
    class       volScalarField;
    location    "1000";
    object      p;
}
// * * * * * * * * * * * * * * * * * * * * * * * * * * * * * * * * * * * * * //

dimensions      [0 0 0 0 0 0 0];

internalField   nonuniform List<scalar> 
100
(
5.38668e+06
5.3783e+06
5.36684e+06
5.35617e+06
5.34501e+06
5.33374e+06
5.32235e+06
5.31082e+06
5.29921e+06
5.28774e+06
5.27636e+06
5.26509e+06
5.2539e+06
5.2428e+06
5.23179e+06
5.22086e+06
5.21001e+06
5.19924e+06
5.18855e+06
5.17793e+06
5.16739e+06
5.15691e+06
5.1465e+06
5.13615e+06
5.12586e+06
5.11563e+06
5.10545e+06
5.09534e+06
5.08533e+06
5.07551e+06
5.06606e+06
5.0577e+06
5.05427e+06
5.0522e+06
5.0502e+06
5.04819e+06
5.04619e+06
5.04419e+06
5.04218e+06
5.04018e+06
5.03817e+06
5.03617e+06
5.03417e+06
5.03288e+06
5.03228e+06
5.0317e+06
5.03112e+06
5.03054e+06
5.02995e+06
5.02937e+06
5.02879e+06
5.02821e+06
5.02763e+06
5.02705e+06
5.02646e+06
5.02588e+06
5.0253e+06
5.02472e+06
5.02414e+06
5.02356e+06
5.02297e+06
5.02239e+06
5.02181e+06
5.02123e+06
5.02065e+06
5.02007e+06
5.01949e+06
5.0189e+06
5.01832e+06
5.01774e+06
5.01716e+06
5.01658e+06
5.016e+06
5.01541e+06
5.01483e+06
5.01425e+06
5.01367e+06
5.01309e+06
5.01251e+06
5.01192e+06
5.01134e+06
5.01076e+06
5.01018e+06
5.0096e+06
5.00902e+06
5.00843e+06
5.00785e+06
5.00727e+06
5.00669e+06
5.00611e+06
5.00553e+06
5.00494e+06
5.00436e+06
5.00378e+06
5.0032e+06
5.00262e+06
5.00204e+06
5.00145e+06
5.00087e+06
5.00029e+06
)
;

boundaryField
{
    inlet
    {
        type            darcyGradPressure;
        gradient        uniform 4.25563e+06;
        Mf              Mf;
        phi             phi;
        value           uniform 5.39519e+06;
    }
    outlet
    {
        type            fixedValue;
        value           uniform 5e+06;
    }
    emptyWalls
    {
        type            empty;
    }
}


// ************************************************************************* //
