/*--------------------------------*- C++ -*----------------------------------*\
  =========                 |
  \\      /  F ield         | OpenFOAM: The Open Source CFD Toolbox
   \\    /   O peration     | Website:  https://openfoam.org
    \\  /    A nd           | Version:  9
     \\/     M anipulation  |
\*---------------------------------------------------------------------------*/
FoamFile
{
    format      ascii;
    class       surfaceScalarField;
    location    "1000";
    object      phia;
}
// * * * * * * * * * * * * * * * * * * * * * * * * * * * * * * * * * * * * * //

dimensions      [0 2 0 0 0 0 0];

internalField   nonuniform List<scalar> 
99
(
1.41796e-08
1.41454e-08
1.41071e-08
1.40612e-08
1.40121e-08
1.39748e-08
1.39204e-08
1.38554e-08
1.37897e-08
1.37281e-08
1.36599e-08
1.35892e-08
1.35167e-08
1.34422e-08
1.33651e-08
1.3287e-08
1.32091e-08
1.31296e-08
1.30481e-08
1.2966e-08
1.28855e-08
1.28069e-08
1.27304e-08
1.26563e-08
1.25828e-08
1.25064e-08
1.24122e-08
1.22618e-08
1.19776e-08
1.13873e-08
9.48308e-09
1.2455e-09
1.28973e-11
3.43716e-16
4.8764e-26
2.61343e-39
2.68904e-39
2.46549e-39
2.46574e-39
2.65135e-39
2.68902e-39
2.62435e-39
3.29664e-40
3.33858e-41
2.95583e-41
2.82505e-41
3.0812e-41
3.0812e-41
2.825e-41
3.0812e-41
2.90978e-41
2.825e-41
2.825e-41
3.0812e-41
2.825e-41
2.99456e-41
2.825e-41
2.825e-41
3.03788e-41
3.0812e-41
2.99456e-41
3.0812e-41
2.90978e-41
2.825e-41
2.825e-41
3.34858e-41
3.0812e-41
3.25821e-41
2.825e-41
2.825e-41
3.1697e-41
3.25821e-41
3.0812e-41
3.34858e-41
3.25821e-41
3.34858e-41
3.0812e-41
3.0812e-41
3.0812e-41
3.25821e-41
2.825e-41
3.34858e-41
3.0812e-41
3.0812e-41
3.25821e-41
2.74209e-41
3.34858e-41
3.0812e-41
3.30339e-41
3.34858e-41
3.25821e-41
3.34858e-41
3.0812e-41
3.30339e-41
3.34858e-41
2.825e-41
3.30339e-41
3.34858e-41
3.25821e-41
)
;

boundaryField
{
    inlet
    {
        type            calculated;
        value           uniform -1.42126e-08;
    }
    outlet
    {
        type            calculated;
        value           uniform 1.20208e-41;
    }
    emptyWalls
    {
        type            empty;
        value           nonuniform List<scalar> 0();
    }
}


// ************************************************************************* //
