/*--------------------------------*- C++ -*----------------------------------*\
  =========                 |
  \\      /  F ield         | OpenFOAM: The Open Source CFD Toolbox
   \\    /   O peration     | Website:  https://openfoam.org
    \\  /    A nd           | Version:  9
     \\/     M anipulation  |
\*---------------------------------------------------------------------------*/
FoamFile
{
    format      ascii;
    class       surfaceScalarField;
    location    "1000";
    object      phic;
}
// * * * * * * * * * * * * * * * * * * * * * * * * * * * * * * * * * * * * * //

dimensions      [0 2 0 0 0 0 0];

internalField   nonuniform List<scalar> 
99
(
3.4297e-11
6.98866e-11
1.09882e-10
1.50133e-10
1.92715e-10
2.38549e-10
2.98106e-10
3.67321e-10
4.30788e-10
4.94081e-10
5.59283e-10
6.26281e-10
6.95484e-10
7.66724e-10
8.39883e-10
9.14709e-10
9.90866e-10
1.06788e-09
1.14528e-09
1.22254e-09
1.29908e-09
1.37412e-09
1.44694e-09
1.51729e-09
1.58608e-09
1.65775e-09
1.74661e-09
1.88897e-09
2.15637e-09
2.70657e-09
4.42105e-09
1.0443e-08
1.11507e-08
1.11534e-08
1.11571e-08
1.11578e-08
1.11578e-08
1.11579e-08
1.11582e-08
1.11582e-08
1.11573e-08
1.10345e-08
2.34051e-09
2.34721e-10
2.09758e-10
2.09493e-10
2.0949e-10
2.0949e-10
2.0949e-10
2.0949e-10
2.0949e-10
2.0949e-10
2.0949e-10
2.0949e-10
2.0949e-10
2.0949e-10
2.0949e-10
2.0949e-10
2.0949e-10
2.0949e-10
2.0949e-10
2.0949e-10
2.0949e-10
2.0949e-10
2.0949e-10
2.0949e-10
2.0949e-10
2.0949e-10
2.0949e-10
2.0949e-10
2.0949e-10
2.0949e-10
2.0949e-10
2.0949e-10
2.0949e-10
2.0949e-10
2.0949e-10
2.0949e-10
2.0949e-10
2.0949e-10
2.0949e-10
2.0949e-10
2.0949e-10
2.0949e-10
2.0949e-10
2.0949e-10
2.0949e-10
2.0949e-10
2.0949e-10
2.0949e-10
2.0949e-10
2.0949e-10
2.0949e-10
2.0949e-10
2.0949e-10
2.0949e-10
2.0949e-10
2.0949e-10
2.0949e-10
)
;

boundaryField
{
    inlet
    {
        type            calculated;
        value           uniform 0;
    }
    outlet
    {
        type            calculated;
        value           uniform 2.0949e-10;
    }
    emptyWalls
    {
        type            empty;
        value           nonuniform List<scalar> 0();
    }
}


// ************************************************************************* //
