/*--------------------------------*- C++ -*----------------------------------*\
  =========                 |
  \\      /  F ield         | OpenFOAM: The Open Source CFD Toolbox
   \\    /   O peration     | Website:  https://openfoam.org
    \\  /    A nd           | Version:  9
     \\/     M anipulation  |
\*---------------------------------------------------------------------------*/
FoamFile
{
    format      ascii;
    class       volVectorField;
    location    "1000";
    object      Ua;
}
// * * * * * * * * * * * * * * * * * * * * * * * * * * * * * * * * * * * * * //

dimensions      [0 0 0 0 0 0 0];

internalField   nonuniform List<vector> 
100
(
(0 0 8.76714e-06)
(0 0 1.12702e-05)
(0 0 1.12413e-05)
(0 0 1.12078e-05)
(0 0 1.117e-05)
(0 0 1.11357e-05)
(0 0 1.10992e-05)
(0 0 1.10516e-05)
(0 0 1.09996e-05)
(0 0 1.0949e-05)
(0 0 1.08973e-05)
(0 0 1.0842e-05)
(0 0 1.07851e-05)
(0 0 1.07266e-05)
(0 0 1.06663e-05)
(0 0 1.06045e-05)
(0 0 1.05425e-05)
(0 0 1.04798e-05)
(0 0 1.04158e-05)
(0 0 1.03507e-05)
(0 0 1.0286e-05)
(0 0 1.02227e-05)
(0 0 1.0161e-05)
(0 0 1.01011e-05)
(0 0 1.00423e-05)
(0 0 9.98269e-06)
(0 0 9.91482e-06)
(0 0 9.81748e-06)
(0 0 9.64455e-06)
(0 0 9.29662e-06)
(0 0 8.30407e-06)
(0 0 4.26877e-06)
(0 0 5.00701e-07)
(0 0 5.13182e-09)
(0 0 1.3676e-13)
(0 0 1.94026e-23)
(0 0 2.10979e-36)
(0 0 2.05092e-36)
(0 0 1.96207e-36)
(0 0 2.03603e-36)
(0 0 2.12487e-36)
(0 0 2.11412e-36)
(0 0 1.17536e-36)
(0 0 1.44453e-37)
(0 0 2.50447e-38)
(0 0 2.30014e-38)
(0 0 2.35002e-38)
(0 0 2.45194e-38)
(0 0 2.35e-38)
(0 0 2.35e-38)
(0 0 2.38374e-38)
(0 0 2.2818e-38)
(0 0 2.24807e-38)
(0 0 2.35e-38)
(0 0 2.35e-38)
(0 0 2.31553e-38)
(0 0 2.31553e-38)
(0 0 2.24807e-38)
(0 0 2.33277e-38)
(0 0 2.4347e-38)
(0 0 2.41747e-38)
(0 0 2.41747e-38)
(0 0 2.38374e-38)
(0 0 2.2818e-38)
(0 0 2.24807e-38)
(0 0 2.45639e-38)
(0 0 2.55833e-38)
(0 0 2.52237e-38)
(0 0 2.42043e-38)
(0 0 2.24807e-38)
(0 0 2.38522e-38)
(0 0 2.55759e-38)
(0 0 2.52237e-38)
(0 0 2.55833e-38)
(0 0 2.62876e-38)
(0 0 2.62876e-38)
(0 0 2.55833e-38)
(0 0 2.45194e-38)
(0 0 2.45194e-38)
(0 0 2.52237e-38)
(0 0 2.42043e-38)
(0 0 2.45639e-38)
(0 0 2.55833e-38)
(0 0 2.45194e-38)
(0 0 2.52237e-38)
(0 0 2.38744e-38)
(0 0 2.4234e-38)
(0 0 2.55833e-38)
(0 0 2.54035e-38)
(0 0 2.64673e-38)
(0 0 2.62876e-38)
(0 0 2.62876e-38)
(0 0 2.55833e-38)
(0 0 2.54035e-38)
(0 0 2.64673e-38)
(0 0 2.45639e-38)
(0 0 2.43841e-38)
(0 0 2.64673e-38)
(0 0 2.62876e-38)
(0 0 1.77469e-38)
)
;

boundaryField
{
    inlet
    {
        type            fixedValue;
        value           uniform (0 0 1.131e-05);
    }
    outlet
    {
        type            zeroGradient;
    }
    emptyWalls
    {
        type            empty;
    }
}


// ************************************************************************* //
