/*--------------------------------*- C++ -*----------------------------------*\
  =========                 |
  \\      /  F ield         | OpenFOAM: The Open Source CFD Toolbox
   \\    /   O peration     | Website:  https://openfoam.org
    \\  /    A nd           | Version:  9
     \\/     M anipulation  |
\*---------------------------------------------------------------------------*/
FoamFile
{
    format      ascii;
    class       volVectorField;
    location    "1000";
    object      Ub;
}
// * * * * * * * * * * * * * * * * * * * * * * * * * * * * * * * * * * * * * //

dimensions      [0 0 0 0 0 0 0];

internalField   nonuniform List<vector> 
100
(
(0 0 7.34868e-06)
(0 0 4.84558e-06)
(0 0 4.84434e-06)
(0 0 4.84593e-06)
(0 0 4.85076e-06)
(0 0 4.84995e-06)
(0 0 4.8445e-06)
(0 0 4.84079e-06)
(0 0 4.84001e-06)
(0 0 4.84021e-06)
(0 0 4.84075e-06)
(0 0 4.84343e-06)
(0 0 4.84621e-06)
(0 0 4.8488e-06)
(0 0 4.85167e-06)
(0 0 4.85454e-06)
(0 0 4.85655e-06)
(0 0 4.85822e-06)
(0 0 4.86086e-06)
(0 0 4.86441e-06)
(0 0 4.86788e-06)
(0 0 4.87088e-06)
(0 0 4.87376e-06)
(0 0 4.8767e-06)
(0 0 4.88008e-06)
(0 0 4.88383e-06)
(0 0 4.88782e-06)
(0 0 4.89317e-06)
(0 0 4.90306e-06)
(0 0 4.92568e-06)
(0 0 5.01713e-06)
(0 0 5.97421e-06)
(0 0 7.06464e-06)
(0 0 7.27754e-06)
(0 0 7.28014e-06)
(0 0 7.27841e-06)
(0 0 7.27813e-06)
(0 0 7.27807e-06)
(0 0 7.27792e-06)
(0 0 7.27781e-06)
(0 0 7.27813e-06)
(0 0 7.32735e-06)
(0 0 1.08355e-05)
(0 0 1.51325e-05)
(0 0 1.59803e-05)
(0 0 1.59904e-05)
(0 0 1.59905e-05)
(0 0 1.59905e-05)
(0 0 1.59905e-05)
(0 0 1.59905e-05)
(0 0 1.59905e-05)
(0 0 1.59905e-05)
(0 0 1.59905e-05)
(0 0 1.59905e-05)
(0 0 1.59905e-05)
(0 0 1.59905e-05)
(0 0 1.59905e-05)
(0 0 1.59905e-05)
(0 0 1.59905e-05)
(0 0 1.59905e-05)
(0 0 1.59905e-05)
(0 0 1.59905e-05)
(0 0 1.59905e-05)
(0 0 1.59905e-05)
(0 0 1.59905e-05)
(0 0 1.59905e-05)
(0 0 1.59905e-05)
(0 0 1.59905e-05)
(0 0 1.59905e-05)
(0 0 1.59905e-05)
(0 0 1.59905e-05)
(0 0 1.59905e-05)
(0 0 1.59905e-05)
(0 0 1.59905e-05)
(0 0 1.59905e-05)
(0 0 1.59905e-05)
(0 0 1.59905e-05)
(0 0 1.59905e-05)
(0 0 1.59905e-05)
(0 0 1.59905e-05)
(0 0 1.59905e-05)
(0 0 1.59905e-05)
(0 0 1.59905e-05)
(0 0 1.59905e-05)
(0 0 1.59905e-05)
(0 0 1.59905e-05)
(0 0 1.59905e-05)
(0 0 1.59905e-05)
(0 0 1.59905e-05)
(0 0 1.59905e-05)
(0 0 1.59905e-05)
(0 0 1.59905e-05)
(0 0 1.59905e-05)
(0 0 1.59905e-05)
(0 0 1.59905e-05)
(0 0 1.59905e-05)
(0 0 1.59905e-05)
(0 0 1.59905e-05)
(0 0 1.59905e-05)
(0 0 1.59905e-05)
)
;

boundaryField
{
    inlet
    {
        type            fixedValue;
        value           uniform (0 0 4.84716e-06);
    }
    outlet
    {
        type            zeroGradient;
    }
    emptyWalls
    {
        type            empty;
    }
}


// ************************************************************************* //
