/*--------------------------------*- C++ -*----------------------------------*\
  =========                 |
  \\      /  F ield         | OpenFOAM: The Open Source CFD Toolbox
   \\    /   O peration     | Website:  https://openfoam.org
    \\  /    A nd           | Version:  9
     \\/     M anipulation  |
\*---------------------------------------------------------------------------*/
FoamFile
{
    format      ascii;
    class       volVectorField;
    location    "1000";
    object      Uc;
}
// * * * * * * * * * * * * * * * * * * * * * * * * * * * * * * * * * * * * * //

dimensions      [0 0 0 0 0 0 0];

internalField   nonuniform List<vector> 
100
(
(0 0 4.13864e-08)
(0 0 4.14534e-08)
(0 0 7.15278e-08)
(0 0 1.03457e-07)
(0 0 1.36415e-07)
(0 0 1.71594e-07)
(0 0 2.13528e-07)
(0 0 2.64765e-07)
(0 0 3.17557e-07)
(0 0 3.67994e-07)
(0 0 4.1912e-07)
(0 0 4.71721e-07)
(0 0 5.25913e-07)
(0 0 5.81794e-07)
(0 0 6.39249e-07)
(0 0 6.9813e-07)
(0 0 7.58204e-07)
(0 0 8.19148e-07)
(0 0 8.80588e-07)
(0 0 9.42126e-07)
(0 0 1.00332e-06)
(0 0 1.06363e-06)
(0 0 1.12246e-06)
(0 0 1.17943e-06)
(0 0 1.23479e-06)
(0 0 1.29068e-06)
(0 0 1.35455e-06)
(0 0 1.44655e-06)
(0 0 1.60959e-06)
(0 0 1.9349e-06)
(0 0 2.83599e-06)
(0 0 5.91423e-06)
(0 0 8.59186e-06)
(0 0 8.87452e-06)
(0 0 8.87706e-06)
(0 0 8.87879e-06)
(0 0 8.87907e-06)
(0 0 8.87913e-06)
(0 0 8.87928e-06)
(0 0 8.87939e-06)
(0 0 8.87907e-06)
(0 0 8.82985e-06)
(0 0 5.32175e-06)
(0 0 1.02465e-06)
(0 0 1.76853e-07)
(0 0 1.66815e-07)
(0 0 1.66708e-07)
(0 0 1.66707e-07)
(0 0 1.66707e-07)
(0 0 1.66707e-07)
(0 0 1.66707e-07)
(0 0 1.66707e-07)
(0 0 1.66707e-07)
(0 0 1.66707e-07)
(0 0 1.66707e-07)
(0 0 1.66707e-07)
(0 0 1.66707e-07)
(0 0 1.66707e-07)
(0 0 1.66707e-07)
(0 0 1.66707e-07)
(0 0 1.66707e-07)
(0 0 1.66707e-07)
(0 0 1.66707e-07)
(0 0 1.66707e-07)
(0 0 1.66707e-07)
(0 0 1.66707e-07)
(0 0 1.66707e-07)
(0 0 1.66707e-07)
(0 0 1.66707e-07)
(0 0 1.66707e-07)
(0 0 1.66707e-07)
(0 0 1.66707e-07)
(0 0 1.66707e-07)
(0 0 1.66707e-07)
(0 0 1.66707e-07)
(0 0 1.66707e-07)
(0 0 1.66707e-07)
(0 0 1.66707e-07)
(0 0 1.66707e-07)
(0 0 1.66707e-07)
(0 0 1.66707e-07)
(0 0 1.66707e-07)
(0 0 1.66707e-07)
(0 0 1.66707e-07)
(0 0 1.66707e-07)
(0 0 1.66707e-07)
(0 0 1.66707e-07)
(0 0 1.66707e-07)
(0 0 1.66707e-07)
(0 0 1.66707e-07)
(0 0 1.66707e-07)
(0 0 1.66707e-07)
(0 0 1.66707e-07)
(0 0 1.66707e-07)
(0 0 1.66707e-07)
(0 0 1.66707e-07)
(0 0 1.66707e-07)
(0 0 1.66707e-07)
(0 0 1.66707e-07)
(0 0 1.66707e-07)
)
;

boundaryField
{
    inlet
    {
        type            fixedValue;
        value           uniform (0 0 0);
    }
    outlet
    {
        type            zeroGradient;
    }
    emptyWalls
    {
        type            empty;
    }
}


// ************************************************************************* //
