/*--------------------------------*- C++ -*----------------------------------*\
  =========                 |
  \\      /  F ield         | OpenFOAM: The Open Source CFD Toolbox
   \\    /   O peration     | Website:  https://openfoam.org
    \\  /    A nd           | Version:  9
     \\/     M anipulation  |
\*---------------------------------------------------------------------------*/
FoamFile
{
    format      ascii;
    class       volScalarField;
    location    "3800";
    object      kra;
}
// * * * * * * * * * * * * * * * * * * * * * * * * * * * * * * * * * * * * * //

dimensions      [0 0 0 0 0 0 0];

internalField   nonuniform List<scalar> 
100
(
4.05568e-05
3.01268e-05
3.25537e-05
3.12042e-05
3.11254e-05
3.07754e-05
3.06073e-05
3.03845e-05
3.01866e-05
2.99934e-05
2.98183e-05
2.96467e-05
2.94906e-05
2.93391e-05
2.91993e-05
2.90627e-05
2.89381e-05
2.88138e-05
2.86997e-05
2.85854e-05
2.84797e-05
2.83723e-05
2.82736e-05
2.81729e-05
2.80788e-05
2.79789e-05
2.78779e-05
2.77533e-05
2.76077e-05
2.74026e-05
2.73415e-05
2.74101e-05
2.74299e-05
2.74681e-05
2.74992e-05
2.75298e-05
2.7559e-05
2.75878e-05
2.76153e-05
2.76419e-05
2.76666e-05
2.76907e-05
2.77135e-05
2.7736e-05
2.77577e-05
2.77792e-05
2.77994e-05
2.78189e-05
2.78378e-05
2.78565e-05
2.78744e-05
2.7892e-05
2.79089e-05
2.79246e-05
2.79391e-05
2.79534e-05
2.79669e-05
2.79804e-05
2.79933e-05
2.80058e-05
2.80169e-05
2.80275e-05
2.80373e-05
2.80471e-05
2.8056e-05
2.8065e-05
2.8073e-05
2.80804e-05
2.80872e-05
2.80939e-05
2.81002e-05
2.81064e-05
2.81118e-05
2.81167e-05
2.81204e-05
2.81243e-05
2.81272e-05
2.8131e-05
2.81331e-05
2.81362e-05
2.81369e-05
2.81389e-05
2.81381e-05
2.814e-05
2.81389e-05
2.81378e-05
2.81418e-05
2.81269e-05
2.81443e-05
2.81211e-05
2.8139e-05
2.81154e-05
2.81335e-05
2.81088e-05
2.81255e-05
2.81021e-05
2.81176e-05
2.80942e-05
2.81118e-05
7.45859e-05
)
;

boundaryField
{
    inlet
    {
        type            calculated;
        value           uniform 1.20585e-05;
    }
    outlet
    {
        type            calculated;
        value           uniform 8.31817e-06;
    }
    emptyWalls
    {
        type            empty;
    }
}


// ************************************************************************* //
