/*--------------------------------*- C++ -*----------------------------------*\
  =========                 |
  \\      /  F ield         | OpenFOAM: The Open Source CFD Toolbox
   \\    /   O peration     | Website:  https://openfoam.org
    \\  /    A nd           | Version:  9
     \\/     M anipulation  |
\*---------------------------------------------------------------------------*/
FoamFile
{
    format      ascii;
    class       volScalarField;
    location    "3800";
    object      p;
}
// * * * * * * * * * * * * * * * * * * * * * * * * * * * * * * * * * * * * * //

dimensions      [0 0 0 0 0 0 0];

internalField   nonuniform List<scalar> 
100
(
6.0893e+06
6.08129e+06
6.07051e+06
6.06054e+06
6.05013e+06
6.0397e+06
6.02914e+06
6.01852e+06
6.00784e+06
5.99709e+06
5.98628e+06
5.97542e+06
5.9645e+06
5.95354e+06
5.94252e+06
5.93147e+06
5.92037e+06
5.90923e+06
5.89805e+06
5.88684e+06
5.8756e+06
5.86432e+06
5.853e+06
5.84166e+06
5.83028e+06
5.81888e+06
5.80745e+06
5.79598e+06
5.78446e+06
5.7729e+06
5.7613e+06
5.7497e+06
5.73816e+06
5.72664e+06
5.71515e+06
5.70369e+06
5.69226e+06
5.68085e+06
5.66947e+06
5.65811e+06
5.64678e+06
5.63547e+06
5.62419e+06
5.61294e+06
5.60171e+06
5.5905e+06
5.57931e+06
5.56815e+06
5.55701e+06
5.5459e+06
5.53481e+06
5.52374e+06
5.51269e+06
5.50167e+06
5.49067e+06
5.47969e+06
5.46874e+06
5.4578e+06
5.44689e+06
5.436e+06
5.42513e+06
5.41428e+06
5.40346e+06
5.39265e+06
5.38187e+06
5.37111e+06
5.36037e+06
5.34965e+06
5.33895e+06
5.32827e+06
5.31761e+06
5.30698e+06
5.29636e+06
5.28576e+06
5.27519e+06
5.26463e+06
5.2541e+06
5.24358e+06
5.23309e+06
5.22261e+06
5.21216e+06
5.20172e+06
5.1913e+06
5.18091e+06
5.17053e+06
5.16017e+06
5.14983e+06
5.13951e+06
5.1292e+06
5.11892e+06
5.10866e+06
5.09841e+06
5.08818e+06
5.07797e+06
5.06777e+06
5.0576e+06
5.04744e+06
5.0373e+06
5.02717e+06
5.01706e+06
)
;

boundaryField
{
    inlet
    {
        type            darcyGradPressure;
        gradient        uniform 3.94043e+06;
        Mf              Mf;
        phi             phi;
        value           uniform 6.09718e+06;
    }
    outlet
    {
        type            fixedValue;
        value           uniform 5e+06;
    }
    emptyWalls
    {
        type            empty;
    }
}


// ************************************************************************* //
