/*--------------------------------*- C++ -*----------------------------------*\
  =========                 |
  \\      /  F ield         | OpenFOAM: The Open Source CFD Toolbox
   \\    /   O peration     | Website:  https://openfoam.org
    \\  /    A nd           | Version:  9
     \\/     M anipulation  |
\*---------------------------------------------------------------------------*/
FoamFile
{
    format      ascii;
    class       surfaceScalarField;
    location    "3800";
    object      phia;
}
// * * * * * * * * * * * * * * * * * * * * * * * * * * * * * * * * * * * * * //

dimensions      [0 2 0 0 0 0 0];

internalField   nonuniform List<scalar> 
99
(
1.42063e-08
1.41997e-08
1.41924e-08
1.41794e-08
1.41619e-08
1.41605e-08
1.41545e-08
1.41482e-08
1.41389e-08
1.41305e-08
1.41213e-08
1.41112e-08
1.41016e-08
1.40913e-08
1.40806e-08
1.40705e-08
1.40603e-08
1.40498e-08
1.40395e-08
1.4029e-08
1.40182e-08
1.40073e-08
1.39966e-08
1.39856e-08
1.39742e-08
1.39618e-08
1.39476e-08
1.39288e-08
1.39075e-08
1.38816e-08
1.38583e-08
1.38396e-08
1.38215e-08
1.38038e-08
1.3786e-08
1.37684e-08
1.37511e-08
1.37339e-08
1.37165e-08
1.36987e-08
1.36804e-08
1.3662e-08
1.36434e-08
1.36249e-08
1.36063e-08
1.35877e-08
1.35687e-08
1.35495e-08
1.35304e-08
1.35113e-08
1.34921e-08
1.34728e-08
1.34532e-08
1.3433e-08
1.34126e-08
1.33921e-08
1.33716e-08
1.33512e-08
1.33306e-08
1.33097e-08
1.32884e-08
1.32668e-08
1.32452e-08
1.32235e-08
1.32018e-08
1.318e-08
1.31578e-08
1.31354e-08
1.31131e-08
1.30908e-08
1.30685e-08
1.30461e-08
1.30234e-08
1.30004e-08
1.29772e-08
1.2954e-08
1.2931e-08
1.29079e-08
1.28847e-08
1.28614e-08
1.28377e-08
1.2814e-08
1.27903e-08
1.27666e-08
1.27435e-08
1.27186e-08
1.26967e-08
1.2671e-08
1.26474e-08
1.26244e-08
1.26012e-08
1.25774e-08
1.25538e-08
1.25309e-08
1.25088e-08
1.24866e-08
1.24645e-08
1.24431e-08
1.2423e-08
)
;

boundaryField
{
    inlet
    {
        type            calculated;
        value           uniform -1.42126e-08;
    }
    outlet
    {
        type            calculated;
        value           uniform 1.24107e-08;
    }
    emptyWalls
    {
        type            empty;
        value           nonuniform List<scalar> 0();
    }
}


// ************************************************************************* //
