/*--------------------------------*- C++ -*----------------------------------*\
  =========                 |
  \\      /  F ield         | OpenFOAM: The Open Source CFD Toolbox
   \\    /   O peration     | Website:  https://openfoam.org
    \\  /    A nd           | Version:  9
     \\/     M anipulation  |
\*---------------------------------------------------------------------------*/
FoamFile
{
    format      ascii;
    class       surfaceScalarField;
    location    "3800";
    object      phib;
}
// * * * * * * * * * * * * * * * * * * * * * * * * * * * * * * * * * * * * * //

dimensions      [0 2 0 0 0 0 0];

internalField   nonuniform List<scalar> 
99
(
6.0909e-09
6.09062e-09
6.0903e-09
6.09514e-09
6.10411e-09
6.09669e-09
6.0936e-09
6.09058e-09
6.09007e-09
6.08855e-09
6.08754e-09
6.08726e-09
6.08637e-09
6.086e-09
6.086e-09
6.08541e-09
6.08478e-09
6.08436e-09
6.08377e-09
6.08317e-09
6.08288e-09
6.08258e-09
6.08205e-09
6.08162e-09
6.08131e-09
6.08098e-09
6.08032e-09
6.08051e-09
6.07794e-09
6.07762e-09
6.07805e-09
6.07842e-09
6.07881e-09
6.07952e-09
6.08046e-09
6.08126e-09
6.08177e-09
6.08205e-09
6.0824e-09
6.08314e-09
6.08413e-09
6.08516e-09
6.08621e-09
6.08703e-09
6.08768e-09
6.08834e-09
6.0892e-09
6.09003e-09
6.09065e-09
6.09118e-09
6.09162e-09
6.09193e-09
6.09249e-09
6.0935e-09
6.09459e-09
6.09557e-09
6.09642e-09
6.09711e-09
6.09771e-09
6.09858e-09
6.09976e-09
6.10099e-09
6.10213e-09
6.10328e-09
6.10429e-09
6.10526e-09
6.10649e-09
6.10777e-09
6.10892e-09
6.10995e-09
6.11082e-09
6.11166e-09
6.1127e-09
6.11397e-09
6.11528e-09
6.11652e-09
6.11754e-09
6.11849e-09
6.11946e-09
6.12059e-09
6.12187e-09
6.12326e-09
6.12449e-09
6.1257e-09
6.1267e-09
6.12798e-09
6.12937e-09
6.13095e-09
6.1323e-09
6.13371e-09
6.13512e-09
6.13653e-09
6.13787e-09
6.13916e-09
6.1404e-09
6.14163e-09
6.1428e-09
6.1439e-09
6.14487e-09
)
;

boundaryField
{
    inlet
    {
        type            calculated;
        value           uniform -6.09112e-09;
    }
    outlet
    {
        type            calculated;
        value           uniform 6.14465e-09;
    }
    emptyWalls
    {
        type            empty;
        value           nonuniform List<scalar> 0();
    }
}


// ************************************************************************* //
