/*--------------------------------*- C++ -*----------------------------------*\
  =========                 |
  \\      /  F ield         | OpenFOAM: The Open Source CFD Toolbox
   \\    /   O peration     | Website:  https://openfoam.org
    \\  /    A nd           | Version:  9
     \\/     M anipulation  |
\*---------------------------------------------------------------------------*/
FoamFile
{
    format      ascii;
    class       surfaceScalarField;
    location    "3800";
    object      phic;
}
// * * * * * * * * * * * * * * * * * * * * * * * * * * * * * * * * * * * * * //

dimensions      [0 2 0 0 0 0 0];

internalField   nonuniform List<scalar> 
99
(
6.58091e-12
1.3426e-11
2.10458e-11
2.915e-11
3.77145e-11
4.65093e-11
5.56012e-11
6.50081e-11
7.47139e-11
8.46986e-11
9.49042e-11
1.05283e-10
1.15798e-10
1.26411e-10
1.37097e-10
1.4785e-10
1.58671e-10
1.69554e-10
1.80508e-10
1.91537e-10
2.0264e-10
2.13817e-10
2.25083e-10
2.36494e-10
2.48269e-10
2.60976e-10
2.75783e-10
2.94416e-10
3.18304e-10
3.44473e-10
3.67424e-10
3.85756e-10
4.03424e-10
4.20438e-10
4.37266e-10
4.54046e-10
4.70867e-10
4.87768e-10
5.04786e-10
5.21924e-10
5.39184e-10
5.56594e-10
5.74151e-10
5.91854e-10
6.09712e-10
6.27723e-10
6.45883e-10
6.64197e-10
6.82659e-10
7.01276e-10
7.20047e-10
7.38966e-10
7.58029e-10
7.77226e-10
7.96572e-10
8.1606e-10
8.35688e-10
8.55465e-10
8.75383e-10
8.95431e-10
9.15606e-10
9.35914e-10
9.5636e-10
9.76934e-10
9.97645e-10
1.01849e-09
1.03944e-09
1.06051e-09
1.08171e-09
1.10303e-09
1.12446e-09
1.146e-09
1.16766e-09
1.18939e-09
1.21125e-09
1.23318e-09
1.25522e-09
1.27733e-09
1.29955e-09
1.32179e-09
1.34416e-09
1.36647e-09
1.38896e-09
1.41148e-09
1.43355e-09
1.45718e-09
1.47762e-09
1.50181e-09
1.52404e-09
1.54559e-09
1.56743e-09
1.58979e-09
1.61205e-09
1.63364e-09
1.65451e-09
1.67551e-09
1.6964e-09
1.71677e-09
1.73588e-09
)
;

boundaryField
{
    inlet
    {
        type            calculated;
        value           uniform 0;
    }
    outlet
    {
        type            calculated;
        value           uniform 1.74841e-09;
    }
    emptyWalls
    {
        type            empty;
        value           nonuniform List<scalar> 0();
    }
}


// ************************************************************************* //
