/*--------------------------------*- C++ -*----------------------------------*\
  =========                 |
  \\      /  F ield         | OpenFOAM: The Open Source CFD Toolbox
   \\    /   O peration     | Website:  https://openfoam.org
    \\  /    A nd           | Version:  9
     \\/     M anipulation  |
\*---------------------------------------------------------------------------*/
FoamFile
{
    format      ascii;
    class       volVectorField;
    location    "3800";
    object      Ua;
}
// * * * * * * * * * * * * * * * * * * * * * * * * * * * * * * * * * * * * * //

dimensions      [0 0 0 0 0 0 0];

internalField   nonuniform List<vector> 
100
(
(0 0 8.95855e-06)
(0 0 1.13024e-05)
(0 0 1.12968e-05)
(0 0 1.12888e-05)
(0 0 1.12767e-05)
(0 0 1.12691e-05)
(0 0 1.12662e-05)
(0 0 1.12613e-05)
(0 0 1.12551e-05)
(0 0 1.12481e-05)
(0 0 1.1241e-05)
(0 0 1.12333e-05)
(0 0 1.12255e-05)
(0 0 1.12176e-05)
(0 0 1.12093e-05)
(0 0 1.1201e-05)
(0 0 1.11929e-05)
(0 0 1.11847e-05)
(0 0 1.11764e-05)
(0 0 1.11681e-05)
(0 0 1.11596e-05)
(0 0 1.1151e-05)
(0 0 1.11424e-05)
(0 0 1.11338e-05)
(0 0 1.11248e-05)
(0 0 1.11154e-05)
(0 0 1.11048e-05)
(0 0 1.10917e-05)
(0 0 1.10757e-05)
(0 0 1.10569e-05)
(0 0 1.10374e-05)
(0 0 1.10206e-05)
(0 0 1.1006e-05)
(0 0 1.09918e-05)
(0 0 1.09776e-05)
(0 0 1.09636e-05)
(0 0 1.09497e-05)
(0 0 1.09359e-05)
(0 0 1.09222e-05)
(0 0 1.09082e-05)
(0 0 1.08938e-05)
(0 0 1.08792e-05)
(0 0 1.08645e-05)
(0 0 1.08497e-05)
(0 0 1.08349e-05)
(0 0 1.08202e-05)
(0 0 1.08052e-05)
(0 0 1.079e-05)
(0 0 1.07748e-05)
(0 0 1.07596e-05)
(0 0 1.07443e-05)
(0 0 1.0729e-05)
(0 0 1.07135e-05)
(0 0 1.06977e-05)
(0 0 1.06815e-05)
(0 0 1.06652e-05)
(0 0 1.0649e-05)
(0 0 1.06327e-05)
(0 0 1.06164e-05)
(0 0 1.05999e-05)
(0 0 1.0583e-05)
(0 0 1.0566e-05)
(0 0 1.05488e-05)
(0 0 1.05316e-05)
(0 0 1.05143e-05)
(0 0 1.0497e-05)
(0 0 1.04795e-05)
(0 0 1.04618e-05)
(0 0 1.0444e-05)
(0 0 1.04262e-05)
(0 0 1.04084e-05)
(0 0 1.03906e-05)
(0 0 1.03727e-05)
(0 0 1.03545e-05)
(0 0 1.03362e-05)
(0 0 1.03177e-05)
(0 0 1.02993e-05)
(0 0 1.0281e-05)
(0 0 1.02626e-05)
(0 0 1.0244e-05)
(0 0 1.02253e-05)
(0 0 1.02065e-05)
(0 0 1.01876e-05)
(0 0 1.01687e-05)
(0 0 1.01501e-05)
(0 0 1.0131e-05)
(0 0 1.01124e-05)
(0 0 1.00935e-05)
(0 0 1.00739e-05)
(0 0 1.00553e-05)
(0 0 1.0037e-05)
(0 0 1.00182e-05)
(0 0 9.9994e-06)
(0 0 9.98091e-06)
(0 0 9.96301e-06)
(0 0 9.94537e-06)
(0 0 9.92775e-06)
(0 0 9.91042e-06)
(0 0 9.89389e-06)
(0 0 9.881e-06)
)
;

boundaryField
{
    inlet
    {
        type            fixedValue;
        value           uniform (0 0 1.131e-05);
    }
    outlet
    {
        type            zeroGradient;
    }
    emptyWalls
    {
        type            empty;
    }
}


// ************************************************************************* //
