/*--------------------------------*- C++ -*----------------------------------*\
  =========                 |
  \\      /  F ield         | OpenFOAM: The Open Source CFD Toolbox
   \\    /   O peration     | Website:  https://openfoam.org
    \\  /    A nd           | Version:  9
     \\/     M anipulation  |
\*---------------------------------------------------------------------------*/
FoamFile
{
    format      ascii;
    class       volVectorField;
    location    "3800";
    object      Ub;
}
// * * * * * * * * * * * * * * * * * * * * * * * * * * * * * * * * * * * * * //

dimensions      [0 0 0 0 0 0 0];

internalField   nonuniform List<vector> 
100
(
(0 0 7.19088e-06)
(0 0 4.84687e-06)
(0 0 4.84663e-06)
(0 0 4.84843e-06)
(0 0 4.85393e-06)
(0 0 4.85455e-06)
(0 0 4.85036e-06)
(0 0 4.84793e-06)
(0 0 4.84653e-06)
(0 0 4.84572e-06)
(0 0 4.84471e-06)
(0 0 4.8442e-06)
(0 0 4.84373e-06)
(0 0 4.84323e-06)
(0 0 4.84308e-06)
(0 0 4.84285e-06)
(0 0 4.84237e-06)
(0 0 4.84195e-06)
(0 0 4.84154e-06)
(0 0 4.84107e-06)
(0 0 4.84072e-06)
(0 0 4.84048e-06)
(0 0 4.84015e-06)
(0 0 4.83977e-06)
(0 0 4.83947e-06)
(0 0 4.83922e-06)
(0 0 4.83883e-06)
(0 0 4.83864e-06)
(0 0 4.83769e-06)
(0 0 4.83654e-06)
(0 0 4.83659e-06)
(0 0 4.8369e-06)
(0 0 4.83721e-06)
(0 0 4.83764e-06)
(0 0 4.8383e-06)
(0 0 4.839e-06)
(0 0 4.83951e-06)
(0 0 4.83983e-06)
(0 0 4.84008e-06)
(0 0 4.84052e-06)
(0 0 4.84121e-06)
(0 0 4.84201e-06)
(0 0 4.84283e-06)
(0 0 4.84358e-06)
(0 0 4.84416e-06)
(0 0 4.84469e-06)
(0 0 4.84529e-06)
(0 0 4.84596e-06)
(0 0 4.84654e-06)
(0 0 4.84699e-06)
(0 0 4.84738e-06)
(0 0 4.84768e-06)
(0 0 4.84803e-06)
(0 0 4.84865e-06)
(0 0 4.84949e-06)
(0 0 4.85031e-06)
(0 0 4.85104e-06)
(0 0 4.85165e-06)
(0 0 4.85216e-06)
(0 0 4.85275e-06)
(0 0 4.85357e-06)
(0 0 4.85452e-06)
(0 0 4.85547e-06)
(0 0 4.85638e-06)
(0 0 4.85724e-06)
(0 0 4.85803e-06)
(0 0 4.8589e-06)
(0 0 4.8599e-06)
(0 0 4.86087e-06)
(0 0 4.86174e-06)
(0 0 4.86249e-06)
(0 0 4.86317e-06)
(0 0 4.86392e-06)
(0 0 4.86484e-06)
(0 0 4.86587e-06)
(0 0 4.86688e-06)
(0 0 4.86778e-06)
(0 0 4.86856e-06)
(0 0 4.86933e-06)
(0 0 4.87016e-06)
(0 0 4.87112e-06)
(0 0 4.87218e-06)
(0 0 4.87322e-06)
(0 0 4.87419e-06)
(0 0 4.87507e-06)
(0 0 4.87598e-06)
(0 0 4.87704e-06)
(0 0 4.87823e-06)
(0 0 4.8794e-06)
(0 0 4.88049e-06)
(0 0 4.88161e-06)
(0 0 4.88273e-06)
(0 0 4.88383e-06)
(0 0 4.88487e-06)
(0 0 4.88588e-06)
(0 0 4.88686e-06)
(0 0 4.88782e-06)
(0 0 4.88872e-06)
(0 0 4.88954e-06)
(0 0 4.88984e-06)
)
;

boundaryField
{
    inlet
    {
        type            fixedValue;
        value           uniform (0 0 4.84716e-06);
    }
    outlet
    {
        type            zeroGradient;
    }
    emptyWalls
    {
        type            empty;
    }
}


// ************************************************************************* //
