/*--------------------------------*- C++ -*----------------------------------*\
  =========                 |
  \\      /  F ield         | OpenFOAM: The Open Source CFD Toolbox
   \\    /   O peration     | Website:  https://openfoam.org
    \\  /    A nd           | Version:  9
     \\/     M anipulation  |
\*---------------------------------------------------------------------------*/
FoamFile
{
    format      ascii;
    class       volVectorField;
    location    "3800";
    object      Uc;
}
// * * * * * * * * * * * * * * * * * * * * * * * * * * * * * * * * * * * * * //

dimensions      [0 0 0 0 0 0 0];

internalField   nonuniform List<vector> 
100
(
(0 0 7.76939e-09)
(0 0 7.96048e-09)
(0 0 1.37159e-08)
(0 0 1.99723e-08)
(0 0 2.66045e-08)
(0 0 3.35116e-08)
(0 0 4.06285e-08)
(0 0 4.79889e-08)
(0 0 5.55936e-08)
(0 0 6.34282e-08)
(0 0 7.14617e-08)
(0 0 7.9652e-08)
(0 0 8.79654e-08)
(0 0 9.63718e-08)
(0 0 1.04846e-07)
(0 0 1.13377e-07)
(0 0 1.21961e-07)
(0 0 1.30597e-07)
(0 0 1.39285e-07)
(0 0 1.48032e-07)
(0 0 1.56838e-07)
(0 0 1.65703e-07)
(0 0 1.74632e-07)
(0 0 1.83656e-07)
(0 0 1.92881e-07)
(0 0 2.02622e-07)
(0 0 2.1357e-07)
(0 0 2.26875e-07)
(0 0 2.43793e-07)
(0 0 2.6371e-07)
(0 0 2.83255e-07)
(0 0 2.99681e-07)
(0 0 3.14005e-07)
(0 0 3.27804e-07)
(0 0 3.4127e-07)
(0 0 3.54642e-07)
(0 0 3.68011e-07)
(0 0 3.81429e-07)
(0 0 3.94925e-07)
(0 0 4.08515e-07)
(0 0 4.22202e-07)
(0 0 4.35996e-07)
(0 0 4.49909e-07)
(0 0 4.63939e-07)
(0 0 4.78088e-07)
(0 0 4.9236e-07)
(0 0 5.06752e-07)
(0 0 5.21264e-07)
(0 0 5.35897e-07)
(0 0 5.5065e-07)
(0 0 5.65526e-07)
(0 0 5.80523e-07)
(0 0 5.95635e-07)
(0 0 6.10858e-07)
(0 0 6.26194e-07)
(0 0 6.41646e-07)
(0 0 6.5721e-07)
(0 0 6.72888e-07)
(0 0 6.88683e-07)
(0 0 7.04585e-07)
(0 0 7.20589e-07)
(0 0 7.36696e-07)
(0 0 7.52912e-07)
(0 0 7.69233e-07)
(0 0 7.8566e-07)
(0 0 8.02195e-07)
(0 0 8.18823e-07)
(0 0 8.35544e-07)
(0 0 8.52363e-07)
(0 0 8.69278e-07)
(0 0 8.86288e-07)
(0 0 9.03388e-07)
(0 0 9.20578e-07)
(0 0 9.37842e-07)
(0 0 9.55184e-07)
(0 0 9.72606e-07)
(0 0 9.90101e-07)
(0 0 1.00767e-06)
(0 0 1.02531e-06)
(0 0 1.043e-06)
(0 0 1.06075e-06)
(0 0 1.07852e-06)
(0 0 1.09635e-06)
(0 0 1.11426e-06)
(0 0 1.132e-06)
(0 0 1.15019e-06)
(0 0 1.16772e-06)
(0 0 1.18548e-06)
(0 0 1.20395e-06)
(0 0 1.22137e-06)
(0 0 1.23863e-06)
(0 0 1.25622e-06)
(0 0 1.27397e-06)
(0 0 1.29142e-06)
(0 0 1.30831e-06)
(0 0 1.32497e-06)
(0 0 1.34164e-06)
(0 0 1.35806e-06)
(0 0 1.37377e-06)
(0 0 1.38635e-06)
)
;

boundaryField
{
    inlet
    {
        type            fixedValue;
        value           uniform (0 0 0);
    }
    outlet
    {
        type            zeroGradient;
    }
    emptyWalls
    {
        type            empty;
    }
}


// ************************************************************************* //
