/*--------------------------------*- C++ -*----------------------------------*\
  =========                 |
  \\      /  F ield         | OpenFOAM: The Open Source CFD Toolbox
   \\    /   O peration     | Website:  https://openfoam.org
    \\  /    A nd           | Version:  9
     \\/     M anipulation  |
\*---------------------------------------------------------------------------*/
FoamFile
{
    format      ascii;
    class       volScalarField;
    location    "600";
    object      Nca;
}
// * * * * * * * * * * * * * * * * * * * * * * * * * * * * * * * * * * * * * //

dimensions      [0 0 0 0 0 0 0];

internalField   nonuniform List<scalar> 
100
(
0.000276367
0.000214744
0.000240578
0.000238059
0.000244261
0.000242
0.000237859
0.000234821
0.000231818
0.000228967
0.00022627
0.000223739
0.000221384
0.000219136
0.000216812
0.000213821
0.000208877
0.000199271
0.00016852
9.72615e-05
4.63868e-05
4.23592e-05
4.22565e-05
4.22559e-05
4.21616e-05
3.02951e-05
1.54722e-05
1.23438e-05
1.22644e-05
1.22636e-05
1.22636e-05
1.22636e-05
1.22636e-05
1.22636e-05
1.22636e-05
1.22636e-05
1.22636e-05
1.22636e-05
1.22636e-05
1.22636e-05
1.22636e-05
1.22636e-05
1.22636e-05
1.22636e-05
1.22636e-05
1.22636e-05
1.22636e-05
1.22636e-05
1.22636e-05
1.22636e-05
1.22636e-05
1.22636e-05
1.22636e-05
1.22636e-05
1.22636e-05
1.22636e-05
1.22636e-05
1.22636e-05
1.22636e-05
1.22636e-05
1.22636e-05
1.22636e-05
1.22636e-05
1.22636e-05
1.22636e-05
1.22636e-05
1.22636e-05
1.22636e-05
1.22636e-05
1.22636e-05
1.22636e-05
1.22636e-05
1.22636e-05
1.22636e-05
1.22636e-05
1.22636e-05
1.22636e-05
1.22636e-05
1.22636e-05
1.22636e-05
1.22636e-05
1.22636e-05
1.22636e-05
1.22636e-05
1.22636e-05
1.22636e-05
1.22636e-05
1.22636e-05
1.22636e-05
1.22636e-05
1.22636e-05
1.22636e-05
1.22636e-05
1.22636e-05
1.22636e-05
1.22636e-05
1.22636e-05
1.22636e-05
1.22636e-05
1.22636e-05
)
;

boundaryField
{
    inlet
    {
        type            calculated;
        value           uniform 0.000372164;
    }
    outlet
    {
        type            calculated;
        value           uniform 1.22636e-05;
    }
    emptyWalls
    {
        type            empty;
    }
}


// ************************************************************************* //
