/*--------------------------------*- C++ -*----------------------------------*\
  =========                 |
  \\      /  F ield         | OpenFOAM: The Open Source CFD Toolbox
   \\    /   O peration     | Website:  https://openfoam.org
    \\  /    A nd           | Version:  9
     \\/     M anipulation  |
\*---------------------------------------------------------------------------*/
FoamFile
{
    format      ascii;
    class       surfaceScalarField;
    location    "600";
    object      phia;
}
// * * * * * * * * * * * * * * * * * * * * * * * * * * * * * * * * * * * * * //

dimensions      [0 2 0 0 0 0 0];

internalField   nonuniform List<scalar> 
99
(
1.41503e-08
1.40855e-08
1.40136e-08
1.39343e-08
1.38201e-08
1.37178e-08
1.36023e-08
1.34847e-08
1.33591e-08
1.32307e-08
1.31016e-08
1.29747e-08
1.28483e-08
1.27189e-08
1.25626e-08
1.23176e-08
1.18629e-08
1.08589e-08
6.63569e-09
3.00142e-10
3.45594e-13
8.89443e-20
1.14645e-33
2.42991e-39
2.31534e-39
1.34737e-40
2.90519e-41
3.08318e-41
2.82502e-41
3.44019e-41
2.825e-41
3.0812e-41
3.0812e-41
2.90978e-41
2.825e-41
3.03788e-41
3.0812e-41
2.825e-41
2.825e-41
3.03788e-41
3.0812e-41
3.0812e-41
3.0812e-41
3.0812e-41
3.0812e-41
2.825e-41
3.0812e-41
3.0812e-41
2.825e-41
3.0812e-41
2.90978e-41
2.825e-41
2.825e-41
3.0812e-41
2.825e-41
2.99456e-41
2.825e-41
2.825e-41
3.03788e-41
3.0812e-41
2.99456e-41
3.0812e-41
2.90978e-41
2.825e-41
2.825e-41
3.34858e-41
3.0812e-41
3.25821e-41
2.825e-41
2.825e-41
3.1697e-41
3.25821e-41
3.0812e-41
3.34858e-41
3.25821e-41
3.34858e-41
3.0812e-41
3.0812e-41
3.0812e-41
3.25821e-41
2.825e-41
3.34858e-41
3.0812e-41
3.0812e-41
3.25821e-41
2.74209e-41
3.34858e-41
3.0812e-41
3.30339e-41
3.34858e-41
3.25821e-41
3.34858e-41
3.0812e-41
3.30339e-41
3.34858e-41
2.825e-41
3.30339e-41
3.34858e-41
3.25821e-41
)
;

boundaryField
{
    inlet
    {
        type            calculated;
        value           uniform -1.42126e-08;
    }
    outlet
    {
        type            calculated;
        value           uniform 1.20208e-41;
    }
    emptyWalls
    {
        type            empty;
        value           nonuniform List<scalar> 0();
    }
}


// ************************************************************************* //
