/*--------------------------------*- C++ -*----------------------------------*\
  =========                 |
  \\      /  F ield         | OpenFOAM: The Open Source CFD Toolbox
   \\    /   O peration     | Website:  https://openfoam.org
    \\  /    A nd           | Version:  9
     \\/     M anipulation  |
\*---------------------------------------------------------------------------*/
FoamFile
{
    format      ascii;
    class       surfaceScalarField;
    location    "600";
    object      phib;
}
// * * * * * * * * * * * * * * * * * * * * * * * * * * * * * * * * * * * * * //

dimensions      [0 2 0 0 0 0 0];

internalField   nonuniform List<scalar> 
99
(
6.08865e-09
6.08594e-09
6.08287e-09
6.07815e-09
6.0842e-09
6.08776e-09
6.09195e-09
6.09566e-09
6.10182e-09
6.10754e-09
6.11258e-09
6.11653e-09
6.12223e-09
6.12866e-09
6.13777e-09
6.15211e-09
6.18046e-09
6.25634e-09
6.93209e-09
9.03606e-09
9.14087e-09
9.14449e-09
9.14656e-09
9.14925e-09
9.46098e-09
1.91786e-08
2.00833e-08
2.00941e-08
2.00942e-08
2.00942e-08
2.00942e-08
2.00942e-08
2.00942e-08
2.00942e-08
2.00942e-08
2.00942e-08
2.00942e-08
2.00942e-08
2.00942e-08
2.00942e-08
2.00942e-08
2.00942e-08
2.00942e-08
2.00942e-08
2.00942e-08
2.00942e-08
2.00942e-08
2.00942e-08
2.00942e-08
2.00942e-08
2.00942e-08
2.00942e-08
2.00942e-08
2.00942e-08
2.00942e-08
2.00942e-08
2.00942e-08
2.00942e-08
2.00942e-08
2.00942e-08
2.00942e-08
2.00942e-08
2.00942e-08
2.00942e-08
2.00942e-08
2.00942e-08
2.00942e-08
2.00942e-08
2.00942e-08
2.00942e-08
2.00942e-08
2.00942e-08
2.00942e-08
2.00942e-08
2.00942e-08
2.00942e-08
2.00942e-08
2.00942e-08
2.00942e-08
2.00942e-08
2.00942e-08
2.00942e-08
2.00942e-08
2.00942e-08
2.00942e-08
2.00942e-08
2.00942e-08
2.00942e-08
2.00942e-08
2.00942e-08
2.00942e-08
2.00942e-08
2.00942e-08
2.00942e-08
2.00942e-08
2.00942e-08
2.00942e-08
2.00942e-08
2.00942e-08
)
;

boundaryField
{
    inlet
    {
        type            calculated;
        value           uniform -6.09112e-09;
    }
    outlet
    {
        type            calculated;
        value           uniform 2.00942e-08;
    }
    emptyWalls
    {
        type            empty;
        value           nonuniform List<scalar> 0();
    }
}


// ************************************************************************* //
