/*--------------------------------*- C++ -*----------------------------------*\
  =========                 |
  \\      /  F ield         | OpenFOAM: The Open Source CFD Toolbox
   \\    /   O peration     | Website:  https://openfoam.org
    \\  /    A nd           | Version:  9
     \\/     M anipulation  |
\*---------------------------------------------------------------------------*/
FoamFile
{
    format      ascii;
    class       volVectorField;
    location    "600";
    object      Ua;
}
// * * * * * * * * * * * * * * * * * * * * * * * * * * * * * * * * * * * * * //

dimensions      [0 0 0 0 0 0 0];

internalField   nonuniform List<vector> 
100
(
(0 0 8.66257e-06)
(0 0 1.12347e-05)
(0 0 1.11803e-05)
(0 0 1.11201e-05)
(0 0 1.10431e-05)
(0 0 1.0957e-05)
(0 0 1.08703e-05)
(0 0 1.07776e-05)
(0 0 1.06808e-05)
(0 0 1.05797e-05)
(0 0 1.04773e-05)
(0 0 1.03755e-05)
(0 0 1.02747e-05)
(0 0 1.01729e-05)
(0 0 1.00592e-05)
(0 0 9.8995e-06)
(0 0 9.62111e-06)
(0 0 9.04074e-06)
(0 0 6.96088e-06)
(0 0 2.75968e-06)
(0 0 1.1956e-07)
(0 0 1.37508e-10)
(0 0 3.53898e-17)
(0 0 4.56157e-31)
(0 0 1.88807e-36)
(0 0 9.74854e-37)
(0 0 6.51694e-38)
(0 0 2.38269e-38)
(0 0 2.3508e-38)
(0 0 2.49285e-38)
(0 0 2.49284e-38)
(0 0 2.35e-38)
(0 0 2.45194e-38)
(0 0 2.38374e-38)
(0 0 2.2818e-38)
(0 0 2.33277e-38)
(0 0 2.4347e-38)
(0 0 2.35e-38)
(0 0 2.24807e-38)
(0 0 2.33277e-38)
(0 0 2.4347e-38)
(0 0 2.45194e-38)
(0 0 2.45194e-38)
(0 0 2.45194e-38)
(0 0 2.45194e-38)
(0 0 2.35e-38)
(0 0 2.35e-38)
(0 0 2.45194e-38)
(0 0 2.35e-38)
(0 0 2.35e-38)
(0 0 2.38374e-38)
(0 0 2.2818e-38)
(0 0 2.24807e-38)
(0 0 2.35e-38)
(0 0 2.35e-38)
(0 0 2.31553e-38)
(0 0 2.31553e-38)
(0 0 2.24807e-38)
(0 0 2.33277e-38)
(0 0 2.4347e-38)
(0 0 2.41747e-38)
(0 0 2.41747e-38)
(0 0 2.38374e-38)
(0 0 2.2818e-38)
(0 0 2.24807e-38)
(0 0 2.45639e-38)
(0 0 2.55833e-38)
(0 0 2.52237e-38)
(0 0 2.42043e-38)
(0 0 2.24807e-38)
(0 0 2.38522e-38)
(0 0 2.55759e-38)
(0 0 2.52237e-38)
(0 0 2.55833e-38)
(0 0 2.62876e-38)
(0 0 2.62876e-38)
(0 0 2.55833e-38)
(0 0 2.45194e-38)
(0 0 2.45194e-38)
(0 0 2.52237e-38)
(0 0 2.42043e-38)
(0 0 2.45639e-38)
(0 0 2.55833e-38)
(0 0 2.45194e-38)
(0 0 2.52237e-38)
(0 0 2.38744e-38)
(0 0 2.4234e-38)
(0 0 2.55833e-38)
(0 0 2.54035e-38)
(0 0 2.64673e-38)
(0 0 2.62876e-38)
(0 0 2.62876e-38)
(0 0 2.55833e-38)
(0 0 2.54035e-38)
(0 0 2.64673e-38)
(0 0 2.45639e-38)
(0 0 2.43841e-38)
(0 0 2.64673e-38)
(0 0 2.62876e-38)
(0 0 1.77469e-38)
)
;

boundaryField
{
    inlet
    {
        type            fixedValue;
        value           uniform (0 0 1.131e-05);
    }
    outlet
    {
        type            zeroGradient;
    }
    emptyWalls
    {
        type            empty;
    }
}


// ************************************************************************* //
