/*--------------------------------*- C++ -*----------------------------------*\
  =========                 |
  \\      /  F ield         | OpenFOAM: The Open Source CFD Toolbox
   \\    /   O peration     | Website:  https://openfoam.org
    \\  /    A nd           | Version:  9
     \\/     M anipulation  |
\*---------------------------------------------------------------------------*/
FoamFile
{
    format      ascii;
    class       volVectorField;
    location    "600";
    object      Uc;
}
// * * * * * * * * * * * * * * * * * * * * * * * * * * * * * * * * * * * * * //

dimensions      [0 0 0 0 0 0 0];

internalField   nonuniform List<vector> 
100
(
(0 0 7.89646e-08)
(0 0 7.8417e-08)
(0 0 1.35106e-07)
(0 0 1.98395e-07)
(0 0 2.7484e-07)
(0 0 3.5715e-07)
(0 0 4.40709e-07)
(0 0 5.30295e-07)
(0 0 6.23164e-07)
(0 0 7.19508e-07)
(0 0 8.17665e-07)
(0 0 9.15937e-07)
(0 0 1.01287e-06)
(0 0 1.10986e-06)
(0 0 1.21737e-06)
(0 0 1.36771e-06)
(0 0 1.62911e-06)
(0 0 2.16802e-06)
(0 0 3.9488e-06)
(0 0 7.044e-06)
(0 0 8.80527e-06)
(0 0 8.88155e-06)
(0 0 8.87942e-06)
(0 0 8.87753e-06)
(0 0 8.75243e-06)
(0 0 4.76187e-06)
(0 0 5.35389e-07)
(0 0 1.71111e-07)
(0 0 1.66754e-07)
(0 0 1.66707e-07)
(0 0 1.66707e-07)
(0 0 1.66707e-07)
(0 0 1.66707e-07)
(0 0 1.66707e-07)
(0 0 1.66707e-07)
(0 0 1.66707e-07)
(0 0 1.66707e-07)
(0 0 1.66707e-07)
(0 0 1.66707e-07)
(0 0 1.66707e-07)
(0 0 1.66707e-07)
(0 0 1.66707e-07)
(0 0 1.66707e-07)
(0 0 1.66707e-07)
(0 0 1.66707e-07)
(0 0 1.66707e-07)
(0 0 1.66707e-07)
(0 0 1.66707e-07)
(0 0 1.66707e-07)
(0 0 1.66707e-07)
(0 0 1.66707e-07)
(0 0 1.66707e-07)
(0 0 1.66707e-07)
(0 0 1.66707e-07)
(0 0 1.66707e-07)
(0 0 1.66707e-07)
(0 0 1.66707e-07)
(0 0 1.66707e-07)
(0 0 1.66707e-07)
(0 0 1.66707e-07)
(0 0 1.66707e-07)
(0 0 1.66707e-07)
(0 0 1.66707e-07)
(0 0 1.66707e-07)
(0 0 1.66707e-07)
(0 0 1.66707e-07)
(0 0 1.66707e-07)
(0 0 1.66707e-07)
(0 0 1.66707e-07)
(0 0 1.66707e-07)
(0 0 1.66707e-07)
(0 0 1.66707e-07)
(0 0 1.66707e-07)
(0 0 1.66707e-07)
(0 0 1.66707e-07)
(0 0 1.66707e-07)
(0 0 1.66707e-07)
(0 0 1.66707e-07)
(0 0 1.66707e-07)
(0 0 1.66707e-07)
(0 0 1.66707e-07)
(0 0 1.66707e-07)
(0 0 1.66707e-07)
(0 0 1.66707e-07)
(0 0 1.66707e-07)
(0 0 1.66707e-07)
(0 0 1.66707e-07)
(0 0 1.66707e-07)
(0 0 1.66707e-07)
(0 0 1.66707e-07)
(0 0 1.66707e-07)
(0 0 1.66707e-07)
(0 0 1.66707e-07)
(0 0 1.66707e-07)
(0 0 1.66707e-07)
(0 0 1.66707e-07)
(0 0 1.66707e-07)
(0 0 1.66707e-07)
(0 0 1.66707e-07)
(0 0 1.66707e-07)
)
;

boundaryField
{
    inlet
    {
        type            fixedValue;
        value           uniform (0 0 0);
    }
    outlet
    {
        type            zeroGradient;
    }
    emptyWalls
    {
        type            empty;
    }
}


// ************************************************************************* //
