/*--------------------------------*- C++ -*----------------------------------*\
  =========                 |
  \\      /  F ield         | OpenFOAM: The Open Source CFD Toolbox
   \\    /   O peration     | Website:  https://openfoam.org
    \\  /    A nd           | Version:  9
     \\/     M anipulation  |
\*---------------------------------------------------------------------------*/
FoamFile
{
    format      ascii;
    class       volScalarField;
    location    "1000";
    object      kra;
}
// * * * * * * * * * * * * * * * * * * * * * * * * * * * * * * * * * * * * * //

dimensions      [0 0 0 0 0 0 0];

internalField   nonuniform List<scalar> 
100
(
3.87327e-05
2.79076e-05
3.00569e-05
2.85152e-05
2.83556e-05
2.77875e-05
2.73647e-05
2.75138e-05
2.76285e-05
2.77379e-05
2.78266e-05
2.79067e-05
2.79742e-05
2.80326e-05
2.80816e-05
2.8122e-05
2.8154e-05
2.81778e-05
2.81932e-05
2.82001e-05
2.81981e-05
2.81866e-05
2.81646e-05
2.81308e-05
2.80828e-05
2.80167e-05
2.79263e-05
2.77992e-05
2.7611e-05
2.73035e-05
2.67103e-05
2.52013e-05
1.98227e-05
6.32475e-06
1.2924e-07
5.73227e-12
2.09552e-21
2.77842e-35
2.77692e-35
2.93169e-35
2.90365e-35
2.0574e-35
4.11119e-36
1.33089e-36
1.21483e-36
1.11106e-36
1.21174e-36
1.21174e-36
1.11099e-36
1.21174e-36
1.17767e-36
1.11099e-36
1.11099e-36
1.21174e-36
1.11099e-36
1.17767e-36
1.11099e-36
1.11099e-36
1.17767e-36
1.21174e-36
1.17767e-36
1.21174e-36
1.17767e-36
1.11099e-36
1.11099e-36
1.31689e-36
1.21174e-36
1.28135e-36
1.11099e-36
1.11099e-36
1.21174e-36
1.28135e-36
1.21174e-36
1.31689e-36
1.28135e-36
1.31689e-36
1.21174e-36
1.21174e-36
1.21174e-36
1.28135e-36
1.11099e-36
1.31689e-36
1.21174e-36
1.21174e-36
1.28135e-36
1.07838e-36
1.31689e-36
1.21174e-36
1.28135e-36
1.31689e-36
1.28135e-36
1.31689e-36
1.21174e-36
1.28135e-36
1.31689e-36
1.11099e-36
1.28135e-36
1.31689e-36
1.28135e-36
1.31689e-36
)
;

boundaryField
{
    inlet
    {
        type            calculated;
        value           uniform 1.05548e-05;
    }
    outlet
    {
        type            calculated;
        value           uniform 4.72742e-37;
    }
    emptyWalls
    {
        type            empty;
    }
}


// ************************************************************************* //
