/*--------------------------------*- C++ -*----------------------------------*\
  =========                 |
  \\      /  F ield         | OpenFOAM: The Open Source CFD Toolbox
   \\    /   O peration     | Website:  https://openfoam.org
    \\  /    A nd           | Version:  9
     \\/     M anipulation  |
\*---------------------------------------------------------------------------*/
FoamFile
{
    format      ascii;
    class       volScalarField;
    location    "1000";
    object      p;
}
// * * * * * * * * * * * * * * * * * * * * * * * * * * * * * * * * * * * * * //

dimensions      [0 0 0 0 0 0 0];

internalField   nonuniform List<scalar> 
100
(
5.39011e+06
5.38174e+06
5.37014e+06
5.35941e+06
5.34813e+06
5.33683e+06
5.32534e+06
5.31372e+06
5.30223e+06
5.29084e+06
5.27955e+06
5.26836e+06
5.25727e+06
5.24627e+06
5.23537e+06
5.22455e+06
5.21382e+06
5.20318e+06
5.19264e+06
5.18218e+06
5.17181e+06
5.16154e+06
5.15137e+06
5.14129e+06
5.13133e+06
5.12147e+06
5.11174e+06
5.10216e+06
5.09274e+06
5.08353e+06
5.07463e+06
5.06619e+06
5.05864e+06
5.05302e+06
5.05002e+06
5.04793e+06
5.04593e+06
5.04393e+06
5.04193e+06
5.03992e+06
5.03792e+06
5.03593e+06
5.03401e+06
5.0329e+06
5.03228e+06
5.0317e+06
5.03112e+06
5.03054e+06
5.02995e+06
5.02937e+06
5.02879e+06
5.02821e+06
5.02763e+06
5.02705e+06
5.02646e+06
5.02588e+06
5.0253e+06
5.02472e+06
5.02414e+06
5.02356e+06
5.02297e+06
5.02239e+06
5.02181e+06
5.02123e+06
5.02065e+06
5.02007e+06
5.01949e+06
5.0189e+06
5.01832e+06
5.01774e+06
5.01716e+06
5.01658e+06
5.016e+06
5.01541e+06
5.01483e+06
5.01425e+06
5.01367e+06
5.01309e+06
5.01251e+06
5.01192e+06
5.01134e+06
5.01076e+06
5.01018e+06
5.0096e+06
5.00902e+06
5.00843e+06
5.00785e+06
5.00727e+06
5.00669e+06
5.00611e+06
5.00553e+06
5.00494e+06
5.00436e+06
5.00378e+06
5.0032e+06
5.00262e+06
5.00204e+06
5.00145e+06
5.00087e+06
5.00029e+06
)
;

boundaryField
{
    inlet
    {
        type            darcyGradPressure;
        gradient        uniform 4.25563e+06;
        Mf              Mf;
        phi             phi;
        value           uniform 5.39862e+06;
    }
    outlet
    {
        type            fixedValue;
        value           uniform 5e+06;
    }
    emptyWalls
    {
        type            empty;
    }
}


// ************************************************************************* //
