/*--------------------------------*- C++ -*----------------------------------*\
  =========                 |
  \\      /  F ield         | OpenFOAM: The Open Source CFD Toolbox
   \\    /   O peration     | Website:  https://openfoam.org
    \\  /    A nd           | Version:  9
     \\/     M anipulation  |
\*---------------------------------------------------------------------------*/
FoamFile
{
    format      ascii;
    class       surfaceScalarField;
    location    "1000";
    object      phia;
}
// * * * * * * * * * * * * * * * * * * * * * * * * * * * * * * * * * * * * * //

dimensions      [0 2 0 0 0 0 0];

internalField   nonuniform List<scalar> 
99
(
1.41796e-08
1.41441e-08
1.4104e-08
1.40604e-08
1.40126e-08
1.39593e-08
1.38973e-08
1.38257e-08
1.37573e-08
1.36847e-08
1.36101e-08
1.35321e-08
1.34511e-08
1.33668e-08
1.32792e-08
1.3188e-08
1.30928e-08
1.29932e-08
1.28887e-08
1.27786e-08
1.2662e-08
1.25377e-08
1.2404e-08
1.22585e-08
1.20976e-08
1.19158e-08
1.17037e-08
1.14453e-08
1.11099e-08
1.06324e-08
9.85383e-09
8.31802e-09
4.86827e-09
8.3041e-10
1.17735e-11
5.01911e-16
1.8343e-25
2.43203e-39
2.43062e-39
2.56528e-39
2.53277e-39
1.72057e-39
2.011e-40
3.56958e-41
3.09355e-41
2.82529e-41
3.08121e-41
3.0812e-41
2.825e-41
3.0812e-41
2.99456e-41
2.825e-41
2.825e-41
3.0812e-41
2.825e-41
2.99456e-41
2.825e-41
2.825e-41
2.99456e-41
3.0812e-41
2.99456e-41
3.0812e-41
2.99456e-41
2.825e-41
2.825e-41
3.34858e-41
3.0812e-41
3.25821e-41
2.825e-41
2.825e-41
3.0812e-41
3.25821e-41
3.0812e-41
3.34858e-41
3.25821e-41
3.34858e-41
3.0812e-41
3.0812e-41
3.0812e-41
3.25821e-41
2.825e-41
3.34858e-41
3.0812e-41
3.0812e-41
3.25821e-41
2.74209e-41
3.34858e-41
3.0812e-41
3.25821e-41
3.34858e-41
3.25821e-41
3.34858e-41
3.0812e-41
3.25821e-41
3.34858e-41
2.825e-41
3.25821e-41
3.34858e-41
3.25821e-41
)
;

boundaryField
{
    inlet
    {
        type            calculated;
        value           uniform -1.42126e-08;
    }
    outlet
    {
        type            calculated;
        value           uniform 1.20208e-41;
    }
    emptyWalls
    {
        type            empty;
        value           nonuniform List<scalar> 0();
    }
}


// ************************************************************************* //
