/*--------------------------------*- C++ -*----------------------------------*\
  =========                 |
  \\      /  F ield         | OpenFOAM: The Open Source CFD Toolbox
   \\    /   O peration     | Website:  https://openfoam.org
    \\  /    A nd           | Version:  9
     \\/     M anipulation  |
\*---------------------------------------------------------------------------*/
FoamFile
{
    format      ascii;
    class       surfaceScalarField;
    location    "1000";
    object      phic;
}
// * * * * * * * * * * * * * * * * * * * * * * * * * * * * * * * * * * * * * //

dimensions      [0 2 0 0 0 0 0];

internalField   nonuniform List<scalar> 
99
(
3.4297e-11
7.13205e-11
1.13173e-10
1.58617e-10
2.08477e-10
2.64009e-10
3.28684e-10
3.96208e-10
4.62751e-10
5.32192e-10
6.0366e-10
6.77928e-10
7.54972e-10
8.35061e-10
9.18357e-10
1.0051e-09
1.09558e-09
1.19014e-09
1.28924e-09
1.39347e-09
1.50363e-09
1.6208e-09
1.74647e-09
1.88281e-09
2.03303e-09
2.20216e-09
2.39837e-09
2.63591e-09
2.94157e-09
3.37111e-09
4.05574e-09
5.34069e-09
7.92162e-09
1.05752e-08
1.10845e-08
1.10906e-08
1.10894e-08
1.10883e-08
1.10853e-08
1.10631e-08
1.08528e-08
8.91063e-09
1.80287e-09
2.57343e-10
2.10688e-10
2.0952e-10
2.0949e-10
2.0949e-10
2.0949e-10
2.0949e-10
2.0949e-10
2.0949e-10
2.0949e-10
2.0949e-10
2.0949e-10
2.0949e-10
2.0949e-10
2.0949e-10
2.0949e-10
2.0949e-10
2.0949e-10
2.0949e-10
2.0949e-10
2.0949e-10
2.0949e-10
2.0949e-10
2.0949e-10
2.0949e-10
2.0949e-10
2.0949e-10
2.0949e-10
2.0949e-10
2.0949e-10
2.0949e-10
2.0949e-10
2.0949e-10
2.0949e-10
2.0949e-10
2.0949e-10
2.0949e-10
2.0949e-10
2.0949e-10
2.0949e-10
2.0949e-10
2.0949e-10
2.0949e-10
2.0949e-10
2.0949e-10
2.0949e-10
2.0949e-10
2.0949e-10
2.0949e-10
2.0949e-10
2.0949e-10
2.0949e-10
2.0949e-10
2.0949e-10
2.0949e-10
2.0949e-10
)
;

boundaryField
{
    inlet
    {
        type            calculated;
        value           uniform 0;
    }
    outlet
    {
        type            calculated;
        value           uniform 2.0949e-10;
    }
    emptyWalls
    {
        type            empty;
        value           nonuniform List<scalar> 0();
    }
}


// ************************************************************************* //
