/*--------------------------------*- C++ -*----------------------------------*\
  =========                 |
  \\      /  F ield         | OpenFOAM: The Open Source CFD Toolbox
   \\    /   O peration     | Website:  https://openfoam.org
    \\  /    A nd           | Version:  9
     \\/     M anipulation  |
\*---------------------------------------------------------------------------*/
FoamFile
{
    format      ascii;
    class       volVectorField;
    location    "1000";
    object      Ua;
}
// * * * * * * * * * * * * * * * * * * * * * * * * * * * * * * * * * * * * * //

dimensions      [0 0 0 0 0 0 0];

internalField   nonuniform List<vector> 
100
(
(0 0 8.76714e-06)
(0 0 1.12696e-05)
(0 0 1.12395e-05)
(0 0 1.12062e-05)
(0 0 1.11699e-05)
(0 0 1.11297e-05)
(0 0 1.10838e-05)
(0 0 1.10306e-05)
(0 0 1.09749e-05)
(0 0 1.09188e-05)
(0 0 1.08602e-05)
(0 0 1.07995e-05)
(0 0 1.07362e-05)
(0 0 1.06705e-05)
(0 0 1.06021e-05)
(0 0 1.05309e-05)
(0 0 1.04568e-05)
(0 0 1.03793e-05)
(0 0 1.02981e-05)
(0 0 1.02127e-05)
(0 0 1.01225e-05)
(0 0 1.00267e-05)
(0 0 9.92402e-06)
(0 0 9.81293e-06)
(0 0 9.69102e-06)
(0 0 9.55463e-06)
(0 0 9.39788e-06)
(0 0 9.21068e-06)
(0 0 8.97442e-06)
(0 0 8.65099e-06)
(0 0 8.15121e-06)
(0 0 7.23035e-06)
(0 0 5.24666e-06)
(0 0 2.26743e-06)
(0 0 3.35094e-07)
(0 0 4.68473e-09)
(0 0 1.99704e-13)
(0 0 7.29846e-23)
(0 0 1.93479e-36)
(0 0 1.9878e-36)
(0 0 2.02845e-36)
(0 0 1.69235e-36)
(0 0 7.64609e-37)
(0 0 9.42182e-38)
(0 0 2.65117e-38)
(0 0 2.35503e-38)
(0 0 2.35012e-38)
(0 0 2.45194e-38)
(0 0 2.35e-38)
(0 0 2.35e-38)
(0 0 2.41747e-38)
(0 0 2.31553e-38)
(0 0 2.24807e-38)
(0 0 2.35e-38)
(0 0 2.35e-38)
(0 0 2.31553e-38)
(0 0 2.31553e-38)
(0 0 2.24807e-38)
(0 0 2.31553e-38)
(0 0 2.41747e-38)
(0 0 2.41747e-38)
(0 0 2.41747e-38)
(0 0 2.41747e-38)
(0 0 2.31553e-38)
(0 0 2.24807e-38)
(0 0 2.45639e-38)
(0 0 2.55833e-38)
(0 0 2.52237e-38)
(0 0 2.42043e-38)
(0 0 2.24807e-38)
(0 0 2.35e-38)
(0 0 2.52237e-38)
(0 0 2.52237e-38)
(0 0 2.55833e-38)
(0 0 2.62876e-38)
(0 0 2.62876e-38)
(0 0 2.55833e-38)
(0 0 2.45194e-38)
(0 0 2.45194e-38)
(0 0 2.52237e-38)
(0 0 2.42043e-38)
(0 0 2.45639e-38)
(0 0 2.55833e-38)
(0 0 2.45194e-38)
(0 0 2.52237e-38)
(0 0 2.38744e-38)
(0 0 2.4234e-38)
(0 0 2.55833e-38)
(0 0 2.52237e-38)
(0 0 2.62876e-38)
(0 0 2.62876e-38)
(0 0 2.62876e-38)
(0 0 2.55833e-38)
(0 0 2.52237e-38)
(0 0 2.62876e-38)
(0 0 2.45639e-38)
(0 0 2.42043e-38)
(0 0 2.62876e-38)
(0 0 2.62876e-38)
(0 0 1.77469e-38)
)
;

boundaryField
{
    inlet
    {
        type            fixedValue;
        value           uniform (0 0 1.131e-05);
    }
    outlet
    {
        type            zeroGradient;
    }
    emptyWalls
    {
        type            empty;
    }
}


// ************************************************************************* //
