/*--------------------------------*- C++ -*----------------------------------*\
  =========                 |
  \\      /  F ield         | OpenFOAM: The Open Source CFD Toolbox
   \\    /   O peration     | Website:  https://openfoam.org
    \\  /    A nd           | Version:  9
     \\/     M anipulation  |
\*---------------------------------------------------------------------------*/
FoamFile
{
    format      ascii;
    class       volVectorField;
    location    "1000";
    object      Ub;
}
// * * * * * * * * * * * * * * * * * * * * * * * * * * * * * * * * * * * * * //

dimensions      [0 0 0 0 0 0 0];

internalField   nonuniform List<vector> 
100
(
(0 0 7.34868e-06)
(0 0 4.84555e-06)
(0 0 4.84425e-06)
(0 0 4.84281e-06)
(0 0 4.84126e-06)
(0 0 4.83955e-06)
(0 0 4.8376e-06)
(0 0 4.83817e-06)
(0 0 4.8405e-06)
(0 0 4.84248e-06)
(0 0 4.84501e-06)
(0 0 4.84777e-06)
(0 0 4.85082e-06)
(0 0 4.85405e-06)
(0 0 4.85743e-06)
(0 0 4.86094e-06)
(0 0 4.8646e-06)
(0 0 4.86846e-06)
(0 0 4.87259e-06)
(0 0 4.87706e-06)
(0 0 4.88195e-06)
(0 0 4.88735e-06)
(0 0 4.89339e-06)
(0 0 4.90023e-06)
(0 0 4.90812e-06)
(0 0 4.91744e-06)
(0 0 4.92883e-06)
(0 0 4.94344e-06)
(0 0 4.96357e-06)
(0 0 4.99448e-06)
(0 0 5.05093e-06)
(0 0 5.18813e-06)
(0 0 5.63364e-06)
(0 0 6.53011e-06)
(0 0 7.20399e-06)
(0 0 7.32935e-06)
(0 0 7.33208e-06)
(0 0 7.333e-06)
(0 0 7.33462e-06)
(0 0 7.34465e-06)
(0 0 7.43716e-06)
(0 0 8.29358e-06)
(0 0 1.18944e-05)
(0 0 1.53375e-05)
(0 0 1.5971e-05)
(0 0 1.599e-05)
(0 0 1.59905e-05)
(0 0 1.59905e-05)
(0 0 1.59905e-05)
(0 0 1.59905e-05)
(0 0 1.59905e-05)
(0 0 1.59905e-05)
(0 0 1.59905e-05)
(0 0 1.59905e-05)
(0 0 1.59905e-05)
(0 0 1.59905e-05)
(0 0 1.59905e-05)
(0 0 1.59905e-05)
(0 0 1.59905e-05)
(0 0 1.59905e-05)
(0 0 1.59905e-05)
(0 0 1.59905e-05)
(0 0 1.59905e-05)
(0 0 1.59905e-05)
(0 0 1.59905e-05)
(0 0 1.59905e-05)
(0 0 1.59905e-05)
(0 0 1.59905e-05)
(0 0 1.59905e-05)
(0 0 1.59905e-05)
(0 0 1.59905e-05)
(0 0 1.59905e-05)
(0 0 1.59905e-05)
(0 0 1.59905e-05)
(0 0 1.59905e-05)
(0 0 1.59905e-05)
(0 0 1.59905e-05)
(0 0 1.59905e-05)
(0 0 1.59905e-05)
(0 0 1.59905e-05)
(0 0 1.59905e-05)
(0 0 1.59905e-05)
(0 0 1.59905e-05)
(0 0 1.59905e-05)
(0 0 1.59905e-05)
(0 0 1.59905e-05)
(0 0 1.59905e-05)
(0 0 1.59905e-05)
(0 0 1.59905e-05)
(0 0 1.59905e-05)
(0 0 1.59905e-05)
(0 0 1.59905e-05)
(0 0 1.59905e-05)
(0 0 1.59905e-05)
(0 0 1.59905e-05)
(0 0 1.59905e-05)
(0 0 1.59905e-05)
(0 0 1.59905e-05)
(0 0 1.59905e-05)
(0 0 1.59905e-05)
)
;

boundaryField
{
    inlet
    {
        type            fixedValue;
        value           uniform (0 0 4.84716e-06);
    }
    outlet
    {
        type            zeroGradient;
    }
    emptyWalls
    {
        type            empty;
    }
}


// ************************************************************************* //
