/*--------------------------------*- C++ -*----------------------------------*\
  =========                 |
  \\      /  F ield         | OpenFOAM: The Open Source CFD Toolbox
   \\    /   O peration     | Website:  https://openfoam.org
    \\  /    A nd           | Version:  9
     \\/     M anipulation  |
\*---------------------------------------------------------------------------*/
FoamFile
{
    format      ascii;
    class       volVectorField;
    location    "1000";
    object      Uc;
}
// * * * * * * * * * * * * * * * * * * * * * * * * * * * * * * * * * * * * * //

dimensions      [0 0 0 0 0 0 0];

internalField   nonuniform List<vector> 
100
(
(0 0 4.13864e-08)
(0 0 4.20239e-08)
(0 0 7.34074e-08)
(0 0 1.08141e-07)
(0 0 1.46062e-07)
(0 0 1.87996e-07)
(0 0 2.35825e-07)
(0 0 2.88425e-07)
(0 0 3.41769e-07)
(0 0 3.95875e-07)
(0 0 4.51941e-07)
(0 0 5.09927e-07)
(0 0 5.70133e-07)
(0 0 6.32654e-07)
(0 0 6.97663e-07)
(0 0 7.65321e-07)
(0 0 8.35835e-07)
(0 0 9.09459e-07)
(0 0 9.86514e-07)
(0 0 1.06742e-06)
(0 0 1.15272e-06)
(0 0 1.24317e-06)
(0 0 1.33979e-06)
(0 0 1.44404e-06)
(0 0 1.55806e-06)
(0 0 1.68513e-06)
(0 0 1.83049e-06)
(0 0 2.00308e-06)
(0 0 2.21921e-06)
(0 0 2.51174e-06)
(0 0 2.95505e-06)
(0 0 3.73872e-06)
(0 0 5.27691e-06)
(0 0 7.35966e-06)
(0 0 8.61812e-06)
(0 0 8.82317e-06)
(0 0 8.82512e-06)
(0 0 8.8242e-06)
(0 0 8.82258e-06)
(0 0 8.81255e-06)
(0 0 8.72004e-06)
(0 0 7.86362e-06)
(0 0 4.26277e-06)
(0 0 8.19732e-07)
(0 0 1.86224e-07)
(0 0 1.67195e-07)
(0 0 1.66719e-07)
(0 0 1.66707e-07)
(0 0 1.66707e-07)
(0 0 1.66707e-07)
(0 0 1.66707e-07)
(0 0 1.66707e-07)
(0 0 1.66707e-07)
(0 0 1.66707e-07)
(0 0 1.66707e-07)
(0 0 1.66707e-07)
(0 0 1.66707e-07)
(0 0 1.66707e-07)
(0 0 1.66707e-07)
(0 0 1.66707e-07)
(0 0 1.66707e-07)
(0 0 1.66707e-07)
(0 0 1.66707e-07)
(0 0 1.66707e-07)
(0 0 1.66707e-07)
(0 0 1.66707e-07)
(0 0 1.66707e-07)
(0 0 1.66707e-07)
(0 0 1.66707e-07)
(0 0 1.66707e-07)
(0 0 1.66707e-07)
(0 0 1.66707e-07)
(0 0 1.66707e-07)
(0 0 1.66707e-07)
(0 0 1.66707e-07)
(0 0 1.66707e-07)
(0 0 1.66707e-07)
(0 0 1.66707e-07)
(0 0 1.66707e-07)
(0 0 1.66707e-07)
(0 0 1.66707e-07)
(0 0 1.66707e-07)
(0 0 1.66707e-07)
(0 0 1.66707e-07)
(0 0 1.66707e-07)
(0 0 1.66707e-07)
(0 0 1.66707e-07)
(0 0 1.66707e-07)
(0 0 1.66707e-07)
(0 0 1.66707e-07)
(0 0 1.66707e-07)
(0 0 1.66707e-07)
(0 0 1.66707e-07)
(0 0 1.66707e-07)
(0 0 1.66707e-07)
(0 0 1.66707e-07)
(0 0 1.66707e-07)
(0 0 1.66707e-07)
(0 0 1.66707e-07)
(0 0 1.66707e-07)
)
;

boundaryField
{
    inlet
    {
        type            fixedValue;
        value           uniform (0 0 0);
    }
    outlet
    {
        type            zeroGradient;
    }
    emptyWalls
    {
        type            empty;
    }
}


// ************************************************************************* //
