/*--------------------------------*- C++ -*----------------------------------*\
  =========                 |
  \\      /  F ield         | OpenFOAM: The Open Source CFD Toolbox
   \\    /   O peration     | Website:  https://openfoam.org
    \\  /    A nd           | Version:  9
     \\/     M anipulation  |
\*---------------------------------------------------------------------------*/
FoamFile
{
    format      ascii;
    class       volVectorField;
    location    "1550";
    object      Ua;
}
// * * * * * * * * * * * * * * * * * * * * * * * * * * * * * * * * * * * * * //

dimensions      [0 0 0 0 0 0 0];

internalField   nonuniform List<vector> 
1000
(
(2.72874e-06 0 0)
(2.58757e-06 0 0)
(2.33031e-06 0 0)
(2.16547e-06 0 0)
(2.12277e-06 0 0)
(2.09963e-06 0 0)
(2.08116e-06 0 0)
(2.0609e-06 0 0)
(2.03977e-06 0 0)
(2.0188e-06 0 0)
(1.99928e-06 0 0)
(1.98266e-06 0 0)
(1.97006e-06 0 0)
(1.9619e-06 0 0)
(1.95787e-06 0 0)
(1.95717e-06 0 0)
(1.95888e-06 0 0)
(1.96209e-06 0 0)
(1.96609e-06 0 0)
(1.97032e-06 0 0)
(1.97434e-06 0 0)
(1.97783e-06 0 0)
(1.98055e-06 0 0)
(1.98239e-06 0 0)
(1.98329e-06 0 0)
(1.98328e-06 0 0)
(1.98246e-06 0 0)
(1.98094e-06 0 0)
(1.97887e-06 0 0)
(1.97638e-06 0 0)
(1.97359e-06 0 0)
(1.9706e-06 0 0)
(1.96749e-06 0 0)
(1.96432e-06 0 0)
(1.96114e-06 0 0)
(1.95796e-06 0 0)
(1.9548e-06 0 0)
(1.95165e-06 0 0)
(1.94851e-06 0 0)
(1.94537e-06 0 0)
(1.94223e-06 0 0)
(1.9391e-06 0 0)
(1.93598e-06 0 0)
(1.93288e-06 0 0)
(1.92981e-06 0 0)
(1.92676e-06 0 0)
(1.92375e-06 0 0)
(1.92076e-06 0 0)
(1.91779e-06 0 0)
(1.91483e-06 0 0)
(1.91185e-06 0 0)
(1.90887e-06 0 0)
(1.90585e-06 0 0)
(1.9028e-06 0 0)
(1.89968e-06 0 0)
(1.89644e-06 0 0)
(1.89295e-06 0 0)
(1.88895e-06 0 0)
(1.88407e-06 0 0)
(1.87778e-06 0 0)
(1.86984e-06 0 0)
(1.86076e-06 0 0)
(1.85207e-06 0 0)
(1.84543e-06 0 0)
(1.84135e-06 0 0)
(1.83917e-06 0 0)
(1.83804e-06 0 0)
(1.83738e-06 0 0)
(1.83692e-06 0 0)
(1.83655e-06 0 0)
(1.83621e-06 0 0)
(1.83588e-06 0 0)
(1.83555e-06 0 0)
(1.83521e-06 0 0)
(1.83486e-06 0 0)
(1.8345e-06 0 0)
(1.83412e-06 0 0)
(1.83373e-06 0 0)
(1.83333e-06 0 0)
(1.83291e-06 0 0)
(1.83248e-06 0 0)
(1.83204e-06 0 0)
(1.83158e-06 0 0)
(1.83112e-06 0 0)
(1.83066e-06 0 0)
(1.83019e-06 0 0)
(1.82973e-06 0 0)
(1.82926e-06 0 0)
(1.8288e-06 0 0)
(1.82834e-06 0 0)
(1.82789e-06 0 0)
(1.82746e-06 0 0)
(1.82703e-06 0 0)
(1.82662e-06 0 0)
(1.82623e-06 0 0)
(1.82586e-06 0 0)
(1.82552e-06 0 0)
(1.82522e-06 0 0)
(1.82496e-06 0 0)
(1.82476e-06 0 0)
(1.82463e-06 0 0)
(1.82456e-06 0 0)
(1.82454e-06 0 0)
(1.82453e-06 0 0)
(1.82457e-06 0 0)
(1.82473e-06 0 0)
(1.82502e-06 0 0)
(1.82539e-06 0 0)
(1.82583e-06 0 0)
(1.82635e-06 0 0)
(1.82695e-06 0 0)
(1.82763e-06 0 0)
(1.82838e-06 0 0)
(1.82921e-06 0 0)
(1.83011e-06 0 0)
(1.83109e-06 0 0)
(1.83214e-06 0 0)
(1.83326e-06 0 0)
(1.83446e-06 0 0)
(1.83572e-06 0 0)
(1.83705e-06 0 0)
(1.83845e-06 0 0)
(1.83992e-06 0 0)
(1.84143e-06 0 0)
(1.84301e-06 0 0)
(1.84463e-06 0 0)
(1.84629e-06 0 0)
(1.84799e-06 0 0)
(1.84972e-06 0 0)
(1.85146e-06 0 0)
(1.85322e-06 0 0)
(1.85498e-06 0 0)
(1.85674e-06 0 0)
(1.85849e-06 0 0)
(1.86023e-06 0 0)
(1.86194e-06 0 0)
(1.86363e-06 0 0)
(1.86529e-06 0 0)
(1.86692e-06 0 0)
(1.86851e-06 0 0)
(1.87008e-06 0 0)
(1.87161e-06 0 0)
(1.87312e-06 0 0)
(1.87459e-06 0 0)
(1.87605e-06 0 0)
(1.8775e-06 0 0)
(1.87893e-06 0 0)
(1.88038e-06 0 0)
(1.88183e-06 0 0)
(1.88332e-06 0 0)
(1.88484e-06 0 0)
(1.88643e-06 0 0)
(1.88808e-06 0 0)
(1.88983e-06 0 0)
(1.89169e-06 0 0)
(1.89368e-06 0 0)
(1.89582e-06 0 0)
(1.89813e-06 0 0)
(1.90062e-06 0 0)
(1.90332e-06 0 0)
(1.90623e-06 0 0)
(1.90937e-06 0 0)
(1.91274e-06 0 0)
(1.91635e-06 0 0)
(1.9202e-06 0 0)
(1.92427e-06 0 0)
(1.92856e-06 0 0)
(1.93305e-06 0 0)
(1.9377e-06 0 0)
(1.94248e-06 0 0)
(1.94735e-06 0 0)
(1.95224e-06 0 0)
(1.95708e-06 0 0)
(1.96179e-06 0 0)
(1.96626e-06 0 0)
(1.97035e-06 0 0)
(1.97389e-06 0 0)
(1.97666e-06 0 0)
(1.97846e-06 0 0)
(1.97931e-06 0 0)
(1.97953e-06 0 0)
(1.9794e-06 0 0)
(1.97838e-06 0 0)
(1.97418e-06 0 0)
(1.96657e-06 0 0)
(1.95682e-06 0 0)
(1.94473e-06 0 0)
(1.93052e-06 0 0)
(1.91458e-06 0 0)
(1.89742e-06 0 0)
(1.87967e-06 0 0)
(1.86198e-06 0 0)
(1.84497e-06 0 0)
(1.82919e-06 0 0)
(1.81504e-06 0 0)
(1.80278e-06 0 0)
(1.79255e-06 0 0)
(1.78436e-06 0 0)
(1.77813e-06 0 0)
(1.77373e-06 0 0)
(1.77098e-06 0 0)
(1.76962e-06 0 0)
(1.76917e-06 0 0)
(1.76921e-06 0 0)
(1.76977e-06 0 0)
(1.77197e-06 0 0)
(1.77547e-06 0 0)
(1.77917e-06 0 0)
(1.78309e-06 0 0)
(1.78714e-06 0 0)
(1.79124e-06 0 0)
(1.79531e-06 0 0)
(1.7993e-06 0 0)
(1.80315e-06 0 0)
(1.80684e-06 0 0)
(1.81032e-06 0 0)
(1.81357e-06 0 0)
(1.81659e-06 0 0)
(1.81935e-06 0 0)
(1.82186e-06 0 0)
(1.82412e-06 0 0)
(1.82614e-06 0 0)
(1.82792e-06 0 0)
(1.82949e-06 0 0)
(1.83086e-06 0 0)
(1.83204e-06 0 0)
(1.83307e-06 0 0)
(1.83395e-06 0 0)
(1.83471e-06 0 0)
(1.83538e-06 0 0)
(1.83595e-06 0 0)
(1.83647e-06 0 0)
(1.83693e-06 0 0)
(1.83736e-06 0 0)
(1.83776e-06 0 0)
(1.83814e-06 0 0)
(1.83851e-06 0 0)
(1.83889e-06 0 0)
(1.83926e-06 0 0)
(1.83963e-06 0 0)
(1.84001e-06 0 0)
(1.84039e-06 0 0)
(1.84077e-06 0 0)
(1.84114e-06 0 0)
(1.84151e-06 0 0)
(1.84187e-06 0 0)
(1.8422e-06 0 0)
(1.8425e-06 0 0)
(1.84275e-06 0 0)
(1.84293e-06 0 0)
(1.84305e-06 0 0)
(1.84309e-06 0 0)
(1.84309e-06 0 0)
(1.84307e-06 0 0)
(1.84298e-06 0 0)
(1.84281e-06 0 0)
(1.84254e-06 0 0)
(1.84216e-06 0 0)
(1.84164e-06 0 0)
(1.841e-06 0 0)
(1.8402e-06 0 0)
(1.83899e-06 0 0)
(1.8332e-06 0 0)
(1.80957e-06 0 0)
(1.69643e-06 0 0)
(9.00123e-07 0 0)
(9.96255e-08 0 0)
(4.32502e-10 0 0)
(1.1952e-15 0 0)
(1.55022e-27 0 0)
(9.11353e-53 0 0)
(2.90123e-106 0 0)
(1.29789e-219 0 0)
(0 0 0)
(0 0 0)
(0 0 0)
(0 0 0)
(0 0 0)
(0 0 0)
(0 0 0)
(0 0 0)
(0 0 0)
(0 0 0)
(0 0 0)
(0 0 0)
(0 0 0)
(0 0 0)
(0 0 0)
(0 0 0)
(0 0 0)
(0 0 0)
(0 0 0)
(0 0 0)
(0 0 0)
(0 0 0)
(0 0 0)
(0 0 0)
(0 0 0)
(0 0 0)
(0 0 0)
(0 0 0)
(0 0 0)
(0 0 0)
(0 0 0)
(0 0 0)
(0 0 0)
(0 0 0)
(0 0 0)
(0 0 0)
(0 0 0)
(0 0 0)
(0 0 0)
(0 0 0)
(0 0 0)
(0 0 0)
(0 0 0)
(0 0 0)
(0 0 0)
(0 0 0)
(0 0 0)
(0 0 0)
(0 0 0)
(0 0 0)
(0 0 0)
(0 0 0)
(0 0 0)
(0 0 0)
(0 0 0)
(0 0 0)
(0 0 0)
(0 0 0)
(0 0 0)
(0 0 0)
(0 0 0)
(0 0 0)
(0 0 0)
(0 0 0)
(0 0 0)
(0 0 0)
(0 0 0)
(0 0 0)
(0 0 0)
(0 0 0)
(0 0 0)
(0 0 0)
(0 0 0)
(0 0 0)
(0 0 0)
(0 0 0)
(0 0 0)
(0 0 0)
(0 0 0)
(0 0 0)
(0 0 0)
(0 0 0)
(0 0 0)
(0 0 0)
(0 0 0)
(0 0 0)
(0 0 0)
(0 0 0)
(0 0 0)
(0 0 0)
(0 0 0)
(0 0 0)
(0 0 0)
(0 0 0)
(0 0 0)
(0 0 0)
(0 0 0)
(0 0 0)
(0 0 0)
(0 0 0)
(0 0 0)
(0 0 0)
(0 0 0)
(0 0 0)
(0 0 0)
(0 0 0)
(0 0 0)
(0 0 0)
(0 0 0)
(0 0 0)
(0 0 0)
(0 0 0)
(0 0 0)
(0 0 0)
(0 0 0)
(0 0 0)
(0 0 0)
(0 0 0)
(0 0 0)
(0 0 0)
(0 0 0)
(0 0 0)
(0 0 0)
(0 0 0)
(0 0 0)
(0 0 0)
(0 0 0)
(0 0 0)
(0 0 0)
(0 0 0)
(0 0 0)
(0 0 0)
(0 0 0)
(0 0 0)
(0 0 0)
(0 0 0)
(0 0 0)
(0 0 0)
(0 0 0)
(0 0 0)
(0 0 0)
(0 0 0)
(0 0 0)
(0 0 0)
(0 0 0)
(0 0 0)
(0 0 0)
(0 0 0)
(0 0 0)
(0 0 0)
(0 0 0)
(0 0 0)
(0 0 0)
(0 0 0)
(0 0 0)
(0 0 0)
(0 0 0)
(0 0 0)
(0 0 0)
(0 0 0)
(0 0 0)
(0 0 0)
(0 0 0)
(0 0 0)
(0 0 0)
(0 0 0)
(0 0 0)
(0 0 0)
(0 0 0)
(0 0 0)
(0 0 0)
(0 0 0)
(0 0 0)
(0 0 0)
(0 0 0)
(0 0 0)
(0 0 0)
(0 0 0)
(0 0 0)
(0 0 0)
(0 0 0)
(0 0 0)
(0 0 0)
(0 0 0)
(0 0 0)
(0 0 0)
(0 0 0)
(0 0 0)
(0 0 0)
(0 0 0)
(0 0 0)
(0 0 0)
(0 0 0)
(0 0 0)
(0 0 0)
(0 0 0)
(0 0 0)
(0 0 0)
(0 0 0)
(0 0 0)
(0 0 0)
(0 0 0)
(0 0 0)
(0 0 0)
(0 0 0)
(0 0 0)
(0 0 0)
(0 0 0)
(0 0 0)
(0 0 0)
(0 0 0)
(0 0 0)
(0 0 0)
(0 0 0)
(0 0 0)
(0 0 0)
(0 0 0)
(0 0 0)
(0 0 0)
(0 0 0)
(0 0 0)
(0 0 0)
(0 0 0)
(0 0 0)
(0 0 0)
(0 0 0)
(0 0 0)
(0 0 0)
(0 0 0)
(0 0 0)
(0 0 0)
(0 0 0)
(0 0 0)
(0 0 0)
(0 0 0)
(0 0 0)
(0 0 0)
(0 0 0)
(0 0 0)
(0 0 0)
(0 0 0)
(0 0 0)
(0 0 0)
(0 0 0)
(0 0 0)
(0 0 0)
(0 0 0)
(0 0 0)
(0 0 0)
(0 0 0)
(0 0 0)
(0 0 0)
(0 0 0)
(0 0 0)
(0 0 0)
(0 0 0)
(0 0 0)
(0 0 0)
(0 0 0)
(0 0 0)
(0 0 0)
(0 0 0)
(0 0 0)
(0 0 0)
(0 0 0)
(0 0 0)
(0 0 0)
(0 0 0)
(0 0 0)
(0 0 0)
(0 0 0)
(0 0 0)
(0 0 0)
(0 0 0)
(0 0 0)
(0 0 0)
(0 0 0)
(0 0 0)
(0 0 0)
(0 0 0)
(0 0 0)
(0 0 0)
(0 0 0)
(0 0 0)
(0 0 0)
(0 0 0)
(0 0 0)
(0 0 0)
(0 0 0)
(0 0 0)
(0 0 0)
(0 0 0)
(0 0 0)
(0 0 0)
(0 0 0)
(0 0 0)
(0 0 0)
(0 0 0)
(0 0 0)
(0 0 0)
(0 0 0)
(0 0 0)
(0 0 0)
(0 0 0)
(0 0 0)
(0 0 0)
(0 0 0)
(0 0 0)
(0 0 0)
(0 0 0)
(0 0 0)
(0 0 0)
(0 0 0)
(0 0 0)
(0 0 0)
(0 0 0)
(0 0 0)
(0 0 0)
(0 0 0)
(0 0 0)
(0 0 0)
(0 0 0)
(0 0 0)
(0 0 0)
(0 0 0)
(0 0 0)
(0 0 0)
(0 0 0)
(0 0 0)
(0 0 0)
(0 0 0)
(0 0 0)
(0 0 0)
(0 0 0)
(0 0 0)
(0 0 0)
(0 0 0)
(0 0 0)
(0 0 0)
(0 0 0)
(0 0 0)
(0 0 0)
(0 0 0)
(0 0 0)
(0 0 0)
(0 0 0)
(0 0 0)
(0 0 0)
(0 0 0)
(0 0 0)
(0 0 0)
(0 0 0)
(0 0 0)
(0 0 0)
(0 0 0)
(0 0 0)
(0 0 0)
(0 0 0)
(0 0 0)
(0 0 0)
(0 0 0)
(0 0 0)
(0 0 0)
(0 0 0)
(0 0 0)
(0 0 0)
(0 0 0)
(0 0 0)
(0 0 0)
(0 0 0)
(0 0 0)
(0 0 0)
(0 0 0)
(0 0 0)
(0 0 0)
(0 0 0)
(0 0 0)
(0 0 0)
(0 0 0)
(0 0 0)
(0 0 0)
(0 0 0)
(0 0 0)
(0 0 0)
(0 0 0)
(0 0 0)
(0 0 0)
(0 0 0)
(0 0 0)
(0 0 0)
(0 0 0)
(0 0 0)
(0 0 0)
(0 0 0)
(0 0 0)
(0 0 0)
(0 0 0)
(0 0 0)
(0 0 0)
(0 0 0)
(0 0 0)
(0 0 0)
(0 0 0)
(0 0 0)
(0 0 0)
(0 0 0)
(0 0 0)
(0 0 0)
(0 0 0)
(0 0 0)
(0 0 0)
(0 0 0)
(0 0 0)
(0 0 0)
(0 0 0)
(0 0 0)
(0 0 0)
(0 0 0)
(0 0 0)
(0 0 0)
(0 0 0)
(0 0 0)
(0 0 0)
(0 0 0)
(0 0 0)
(0 0 0)
(0 0 0)
(0 0 0)
(0 0 0)
(0 0 0)
(0 0 0)
(0 0 0)
(0 0 0)
(0 0 0)
(0 0 0)
(0 0 0)
(0 0 0)
(0 0 0)
(0 0 0)
(0 0 0)
(0 0 0)
(0 0 0)
(0 0 0)
(0 0 0)
(0 0 0)
(0 0 0)
(0 0 0)
(0 0 0)
(0 0 0)
(0 0 0)
(0 0 0)
(0 0 0)
(0 0 0)
(0 0 0)
(0 0 0)
(0 0 0)
(0 0 0)
(0 0 0)
(0 0 0)
(0 0 0)
(0 0 0)
(0 0 0)
(0 0 0)
(0 0 0)
(0 0 0)
(0 0 0)
(0 0 0)
(0 0 0)
(0 0 0)
(0 0 0)
(0 0 0)
(0 0 0)
(0 0 0)
(0 0 0)
(0 0 0)
(0 0 0)
(0 0 0)
(0 0 0)
(0 0 0)
(0 0 0)
(0 0 0)
(0 0 0)
(0 0 0)
(0 0 0)
(0 0 0)
(0 0 0)
(0 0 0)
(0 0 0)
(0 0 0)
(0 0 0)
(0 0 0)
(0 0 0)
(0 0 0)
(0 0 0)
(0 0 0)
(0 0 0)
(0 0 0)
(0 0 0)
(0 0 0)
(0 0 0)
(0 0 0)
(0 0 0)
(0 0 0)
(0 0 0)
(0 0 0)
(0 0 0)
(0 0 0)
(0 0 0)
(0 0 0)
(0 0 0)
(0 0 0)
(0 0 0)
(0 0 0)
(0 0 0)
(0 0 0)
(0 0 0)
(0 0 0)
(0 0 0)
(0 0 0)
(0 0 0)
(0 0 0)
(0 0 0)
(0 0 0)
(0 0 0)
(0 0 0)
(0 0 0)
(0 0 0)
(0 0 0)
(0 0 0)
(0 0 0)
(0 0 0)
(0 0 0)
(0 0 0)
(0 0 0)
(0 0 0)
(0 0 0)
(0 0 0)
(0 0 0)
(0 0 0)
(0 0 0)
(0 0 0)
(0 0 0)
(0 0 0)
(0 0 0)
(0 0 0)
(0 0 0)
(0 0 0)
(0 0 0)
(0 0 0)
(0 0 0)
(0 0 0)
(0 0 0)
(0 0 0)
(0 0 0)
(0 0 0)
(0 0 0)
(0 0 0)
(0 0 0)
(0 0 0)
(0 0 0)
(0 0 0)
(0 0 0)
(0 0 0)
(0 0 0)
(0 0 0)
(0 0 0)
(0 0 0)
(0 0 0)
(0 0 0)
(0 0 0)
(0 0 0)
(0 0 0)
(0 0 0)
(0 0 0)
(0 0 0)
(0 0 0)
(0 0 0)
(0 0 0)
(0 0 0)
(0 0 0)
(0 0 0)
(0 0 0)
(0 0 0)
(0 0 0)
(0 0 0)
(0 0 0)
(0 0 0)
(0 0 0)
(0 0 0)
(0 0 0)
(0 0 0)
(0 0 0)
(0 0 0)
(0 0 0)
(0 0 0)
(0 0 0)
(0 0 0)
(0 0 0)
(0 0 0)
(0 0 0)
(0 0 0)
(0 0 0)
(0 0 0)
(0 0 0)
(0 0 0)
(0 0 0)
(0 0 0)
(0 0 0)
(0 0 0)
(0 0 0)
(0 0 0)
(0 0 0)
(0 0 0)
(0 0 0)
(0 0 0)
(0 0 0)
(0 0 0)
(0 0 0)
(0 0 0)
(0 0 0)
(0 0 0)
(0 0 0)
(0 0 0)
(0 0 0)
(0 0 0)
(0 0 0)
(0 0 0)
(0 0 0)
(0 0 0)
(0 0 0)
(0 0 0)
(0 0 0)
(0 0 0)
(0 0 0)
(0 0 0)
(0 0 0)
(0 0 0)
(0 0 0)
(0 0 0)
(0 0 0)
(0 0 0)
(0 0 0)
(0 0 0)
(0 0 0)
(0 0 0)
(0 0 0)
(0 0 0)
(0 0 0)
(0 0 0)
(0 0 0)
(0 0 0)
(0 0 0)
(0 0 0)
(0 0 0)
(0 0 0)
(0 0 0)
(0 0 0)
(0 0 0)
(0 0 0)
(0 0 0)
(0 0 0)
(0 0 0)
(0 0 0)
(0 0 0)
(0 0 0)
(0 0 0)
(0 0 0)
(0 0 0)
(0 0 0)
(0 0 0)
(0 0 0)
(0 0 0)
(0 0 0)
(0 0 0)
(0 0 0)
(0 0 0)
(0 0 0)
(0 0 0)
(0 0 0)
(0 0 0)
(0 0 0)
(0 0 0)
(0 0 0)
(0 0 0)
(0 0 0)
(0 0 0)
(0 0 0)
(0 0 0)
(0 0 0)
(0 0 0)
(0 0 0)
(0 0 0)
(0 0 0)
(0 0 0)
(0 0 0)
(0 0 0)
(0 0 0)
(0 0 0)
(0 0 0)
(0 0 0)
(0 0 0)
(0 0 0)
(0 0 0)
(0 0 0)
(0 0 0)
(0 0 0)
(0 0 0)
(0 0 0)
(0 0 0)
(0 0 0)
(0 0 0)
(0 0 0)
(0 0 0)
(0 0 0)
(0 0 0)
(0 0 0)
(0 0 0)
(0 0 0)
(0 0 0)
(0 0 0)
(0 0 0)
(0 0 0)
(0 0 0)
(0 0 0)
(0 0 0)
(0 0 0)
(0 0 0)
)
;

boundaryField
{
    inlet
    {
        type            fixedValue;
        value           uniform (2.74882e-06 0 0);
    }
    outlet
    {
        type            zeroGradient;
    }
    emptyWalls
    {
        type            empty;
    }
}


// ************************************************************************* //
