/*--------------------------------*- C++ -*----------------------------------*\
  =========                 |
  \\      /  F ield         | OpenFOAM: The Open Source CFD Toolbox
   \\    /   O peration     | Website:  https://openfoam.org
    \\  /    A nd           | Version:  9
     \\/     M anipulation  |
\*---------------------------------------------------------------------------*/
FoamFile
{
    format      ascii;
    class       volScalarField;
    location    "26350";
    object      krc;
}
// * * * * * * * * * * * * * * * * * * * * * * * * * * * * * * * * * * * * * //

dimensions      [0 0 0 0 0 0 0];

internalField   nonuniform List<scalar> 
1000
(
6.41576e-08
5.8243e-07
2.05841e-06
4.44964e-06
7.74416e-06
1.19438e-05
1.70622e-05
2.31139e-05
3.01176e-05
3.80915e-05
4.70528e-05
5.70132e-05
6.79792e-05
7.99474e-05
9.29016e-05
0.000106809
0.000121614
0.000137234
0.000153556
0.000170428
0.000187664
0.00020504
0.000222313
0.000239218
0.000255511
0.000270959
0.000285397
0.000298694
0.000310804
0.000321727
0.00033154
0.000340463
0.000349293
0.000361508
0.000393169
0.00051576
0.00118845
0.0096805
0.0348682
0.0425377
0.0451208
0.046413
0.0472448
0.0478692
0.0483813
0.0488256
0.0492233
0.049588
0.0499264
0.0502444
0.0505447
0.0508305
0.0511032
0.0513646
0.0516155
0.0518573
0.0520904
0.0523159
0.0525341
0.0527459
0.0529516
0.0531522
0.0533474
0.0535384
0.053725
0.0539081
0.0540875
0.0542643
0.0544381
0.05461
0.0547796
0.0549476
0.0551139
0.0552792
0.0554436
0.0556076
0.0557712
0.0559369
0.0561035
0.0562706
0.0564383
0.0566066
0.0567756
0.0569457
0.0571171
0.0572901
0.0574651
0.0576423
0.0578224
0.0580057
0.0581928
0.0583845
0.0585816
0.0587853
0.0589973
0.0592196
0.0594548
0.0597067
0.0599798
0.0602795
0.0606116
0.0609816
0.0613928
0.0618448
0.0623331
0.0628502
0.0633884
0.0639421
0.0645071
0.0650805
0.06566
0.0662442
0.0668319
0.0674221
0.0680142
0.0686076
0.0692019
0.0697967
0.0703919
0.0709871
0.0715822
0.0721771
0.0727716
0.0733655
0.0739589
0.0745517
0.0751438
0.075735
0.0763255
0.0769151
0.0775038
0.0780916
0.0786784
0.0792643
0.0798492
0.0804331
0.081016
0.0815979
0.0821787
0.0827584
0.0833371
0.0839148
0.0844914
0.0850669
0.0856413
0.0862146
0.0867869
0.0873581
0.0879281
0.0884971
0.089065
0.0896318
0.0901976
0.0907622
0.0913257
0.0918882
0.0924495
0.0930098
0.093569
0.0941271
0.0946842
0.0952401
0.095795
0.0963488
0.0969016
0.0974533
0.0980039
0.0985534
0.0991019
0.0996494
0.100196
0.100741
0.101285
0.101829
0.102371
0.102912
0.103452
0.103992
0.10453
0.105067
0.105603
0.106138
0.106672
0.107205
0.107737
0.108268
0.108799
0.109328
0.109856
0.110383
0.110909
0.111435
0.111959
0.112482
0.113004
0.113525
0.114046
0.114565
0.115083
0.1156
0.116117
0.116632
0.117146
0.11766
0.118172
0.118684
0.119195
0.119705
0.120214
0.120722
0.12123
0.121736
0.122242
0.122747
0.123251
0.123755
0.124257
0.124759
0.12526
0.125761
0.12626
0.126759
0.127256
0.127753
0.128249
0.128744
0.129239
0.129732
0.130225
0.130717
0.131208
0.131698
0.132187
0.132675
0.133163
0.13365
0.134136
0.134621
0.135105
0.135589
0.136072
0.136554
0.137035
0.137516
0.137996
0.138475
0.138953
0.139431
0.139907
0.140384
0.140859
0.141334
0.141808
0.142281
0.142753
0.143225
0.143696
0.144166
0.144636
0.145105
0.145573
0.146041
0.146508
0.146974
0.147439
0.147904
0.148368
0.148832
0.149294
0.149756
0.150218
0.150678
0.151138
0.151598
0.152057
0.152515
0.152972
0.153429
0.153885
0.15434
0.154795
0.155249
0.155703
0.156156
0.156608
0.15706
0.157511
0.157961
0.158411
0.15886
0.159309
0.159757
0.160204
0.160651
0.161097
0.161543
0.161988
0.162432
0.162876
0.163319
0.163762
0.164204
0.164645
0.165086
0.165526
0.165966
0.166405
0.166844
0.167282
0.167719
0.168156
0.168593
0.169028
0.169464
0.169898
0.170333
0.170766
0.171199
0.171632
0.172064
0.172495
0.172926
0.173357
0.173787
0.174216
0.174644
0.175073
0.1755
0.175927
0.176354
0.176779
0.177205
0.17763
0.178054
0.178478
0.178901
0.179324
0.179746
0.180168
0.180589
0.18101
0.18143
0.18185
0.18227
0.182689
0.183108
0.183526
0.183944
0.184362
0.184779
0.185196
0.185613
0.186029
0.186445
0.18686
0.187275
0.18769
0.188104
0.188518
0.188931
0.189344
0.189757
0.190169
0.190581
0.190992
0.191403
0.191813
0.192223
0.192632
0.193041
0.193449
0.193857
0.194265
0.194672
0.195079
0.195485
0.195891
0.196296
0.196701
0.197106
0.19751
0.197914
0.198318
0.198721
0.199123
0.199526
0.199927
0.200329
0.20073
0.201131
0.201531
0.201931
0.202331
0.20273
0.203129
0.203528
0.203926
0.204324
0.204722
0.205119
0.205516
0.205912
0.206308
0.206704
0.207099
0.207494
0.207889
0.208283
0.208677
0.209071
0.209464
0.209857
0.21025
0.210642
0.211034
0.211426
0.211817
0.212208
0.212599
0.212989
0.213379
0.213768
0.214158
0.214547
0.214935
0.215324
0.215712
0.2161
0.216487
0.216874
0.217261
0.217647
0.218033
0.218419
0.218805
0.21919
0.219575
0.21996
0.220344
0.220728
0.221112
0.221495
0.221879
0.222261
0.222644
0.223026
0.223408
0.22379
0.224172
0.224553
0.224934
0.225314
0.225695
0.226075
0.226455
0.226834
0.227213
0.227592
0.227971
0.22835
0.228728
0.229106
0.229483
0.229861
0.230238
0.230615
0.230991
0.231367
0.231743
0.232119
0.232494
0.232869
0.233244
0.233619
0.233993
0.234367
0.23474
0.235114
0.235487
0.235859
0.236232
0.236604
0.236976
0.237348
0.23772
0.238091
0.238462
0.238833
0.239204
0.239574
0.239945
0.240315
0.240685
0.241055
0.241425
0.241795
0.242165
0.242534
0.242904
0.243273
0.243642
0.244011
0.24438
0.244749
0.245118
0.245487
0.245855
0.246224
0.246592
0.24696
0.247328
0.247696
0.248063
0.24843
0.248798
0.249164
0.249531
0.249898
0.250264
0.25063
0.250996
0.251361
0.251727
0.252092
0.252457
0.252822
0.253186
0.253551
0.253915
0.254279
0.254643
0.255006
0.25537
0.255733
0.256096
0.256459
0.256822
0.257185
0.257548
0.25791
0.258272
0.258634
0.258996
0.259358
0.25972
0.260081
0.260443
0.260804
0.261165
0.261526
0.261887
0.262248
0.262608
0.262969
0.263329
0.263689
0.26405
0.264409
0.264769
0.265129
0.265489
0.265848
0.266207
0.266567
0.266926
0.267285
0.267643
0.268002
0.268361
0.268719
0.269078
0.269436
0.269794
0.270152
0.27051
0.270868
0.271225
0.271583
0.27194
0.272298
0.272655
0.273012
0.273369
0.273726
0.274083
0.27444
0.274796
0.275153
0.275509
0.275866
0.276222
0.276578
0.276934
0.27729
0.277646
0.278002
0.278357
0.278713
0.279069
0.279424
0.27978
0.280135
0.28049
0.280845
0.2812
0.281555
0.28191
0.282265
0.28262
0.282975
0.283329
0.283684
0.284039
0.284393
0.284747
0.285102
0.285456
0.28581
0.286164
0.286518
0.286872
0.287226
0.28758
0.287934
0.288287
0.288641
0.288995
0.289348
0.289701
0.290054
0.290408
0.290761
0.291114
0.291466
0.291819
0.292172
0.292525
0.292877
0.29323
0.293582
0.293934
0.294287
0.294639
0.294992
0.295344
0.295696
0.296049
0.296401
0.296753
0.297106
0.297458
0.297811
0.298163
0.298516
0.298869
0.299222
0.299575
0.299928
0.300281
0.300634
0.300988
0.301341
0.301695
0.302048
0.302402
0.302756
0.30311
0.303464
0.303819
0.304173
0.304527
0.304881
0.305236
0.30559
0.305945
0.306299
0.306654
0.307008
0.307363
0.307717
0.308072
0.308426
0.308781
0.309135
0.30949
0.309845
0.310199
0.310554
0.310908
0.311263
0.311617
0.311972
0.312327
0.312681
0.313036
0.313391
0.313746
0.314101
0.314456
0.31481
0.315166
0.315521
0.315876
0.316231
0.316586
0.316942
0.317297
0.317652
0.318008
0.318364
0.31872
0.319075
0.319431
0.319787
0.320143
0.320499
0.320856
0.321212
0.321569
0.321925
0.322282
0.322639
0.322996
0.323352
0.323709
0.324066
0.324424
0.324781
0.325139
0.325496
0.325854
0.326212
0.32657
0.326927
0.327286
0.327644
0.328002
0.328361
0.328719
0.329078
0.329437
0.329796
0.330155
0.330514
0.330873
0.331233
0.331593
0.331952
0.332312
0.332672
0.333032
0.333392
0.333753
0.334113
0.334474
0.334835
0.335196
0.335557
0.335919
0.33628
0.336642
0.337004
0.337366
0.337728
0.338091
0.338453
0.338816
0.339178
0.339542
0.339904
0.340268
0.340631
0.340996
0.341359
0.341724
0.342088
0.342453
0.342817
0.343182
0.343547
0.343913
0.344278
0.344644
0.34501
0.345376
0.345742
0.346109
0.346475
0.346842
0.347209
0.347577
0.347944
0.348312
0.34868
0.349048
0.349416
0.349785
0.350153
0.350523
0.350892
0.351261
0.35163
0.352
0.35237
0.35274
0.353111
0.353482
0.353852
0.354224
0.354595
0.354967
0.355339
0.355711
0.356083
0.356456
0.356829
0.357203
0.357577
0.357951
0.358325
0.3587
0.359075
0.359451
0.359827
0.360204
0.36058
0.360958
0.361336
0.361714
0.362092
0.362472
0.362851
0.363232
0.363612
0.363993
0.364374
0.364757
0.365138
0.365522
0.365905
0.366289
0.366673
0.367058
0.367442
0.367829
0.368214
0.368601
0.368987
0.369376
0.369762
0.370152
0.370539
0.370929
0.371318
0.371709
0.372098
0.37249
0.37288
0.373272
0.373663
0.374056
0.374448
0.374843
0.375235
0.37563
0.376024
0.37642
0.376814
0.377211
0.377607
0.378005
0.378401
0.3788
0.379198
0.379598
0.379996
0.380397
0.380797
0.381199
0.381599
0.382003
0.382404
0.382809
0.383211
0.383617
0.384021
0.384428
0.384833
0.385241
0.385647
0.386056
0.386464
0.386874
0.387283
0.387694
0.388104
0.388517
0.388929
0.389343
0.389755
0.390171
0.390585
0.391002
0.391417
0.391836
0.392252
0.392672
0.39309
0.393511
0.393931
0.394353
0.394775
0.395199
0.395621
0.396047
0.396471
0.396898
0.397324
0.397752
0.398179
0.398609
0.399038
0.39947
0.399901
0.400334
0.400767
0.401201
0.401636
0.402071
0.402509
0.402944
0.403386
0.40382
0.404266
0.404701
0.40515
0.405586
0.406036
0.406475
0.406926
0.407368
0.407821
0.408264
0.408719
0.409164
0.409622
0.410068
0.410528
0.410977
0.411438
0.411889
0.412353
0.412805
0.413271
0.413726
0.414193
0.414652
0.41512
0.415581
0.416052
0.416514
0.416988
0.41745
0.41793
0.418389
0.418877
0.419332
0.41983
0.420277
0.420787
0.421226
0.42175
0.422177
0.422717
0.423132
0.423688
0.42409
0.424662
0.425051
0.42564
0.426014
0.42662
0.42698
0.427602
0.427947
0.428584
0.428916
0.429566
0.429885
0.430545
0.430853
0.43152
0.431817
0.432488
0.432776
0.433449
0.433724
0.434399
0.434666
0.267212
)
;

boundaryField
{
    inlet
    {
        type            calculated;
        value           uniform 3.08149e-33;
    }
    outlet
    {
        type            calculated;
        value           uniform 0.267212;
    }
    emptyWalls
    {
        type            empty;
    }
}


// ************************************************************************* //
