/*--------------------------------*- C++ -*----------------------------------*\
  =========                 |
  \\      /  F ield         | OpenFOAM: The Open Source CFD Toolbox
   \\    /   O peration     | Website:  https://openfoam.org
    \\  /    A nd           | Version:  9
     \\/     M anipulation  |
\*---------------------------------------------------------------------------*/
FoamFile
{
    format      ascii;
    class       volVectorField;
    location    "26350";
    object      Ua;
}
// * * * * * * * * * * * * * * * * * * * * * * * * * * * * * * * * * * * * * //

dimensions      [0 0 0 0 0 0 0];

internalField   nonuniform List<vector> 
1000
(
(2.74908e-06 0 0)
(2.74883e-06 0 0)
(2.74874e-06 0 0)
(2.74861e-06 0 0)
(2.74842e-06 0 0)
(2.74825e-06 0 0)
(2.74801e-06 0 0)
(2.74781e-06 0 0)
(2.74751e-06 0 0)
(2.74717e-06 0 0)
(2.74679e-06 0 0)
(2.7463e-06 0 0)
(2.74582e-06 0 0)
(2.74526e-06 0 0)
(2.74467e-06 0 0)
(2.74406e-06 0 0)
(2.74338e-06 0 0)
(2.74269e-06 0 0)
(2.74196e-06 0 0)
(2.74125e-06 0 0)
(2.74052e-06 0 0)
(2.73983e-06 0 0)
(2.73912e-06 0 0)
(2.73841e-06 0 0)
(2.73775e-06 0 0)
(2.73703e-06 0 0)
(2.73644e-06 0 0)
(2.73584e-06 0 0)
(2.73531e-06 0 0)
(2.73488e-06 0 0)
(2.73444e-06 0 0)
(2.73408e-06 0 0)
(2.73368e-06 0 0)
(2.73303e-06 0 0)
(2.73103e-06 0 0)
(2.72348e-06 0 0)
(2.68804e-06 0 0)
(2.4726e-06 0 0)
(2.22585e-06 0 0)
(2.1495e-06 0 0)
(2.12745e-06 0 0)
(2.11722e-06 0 0)
(2.11076e-06 0 0)
(2.10595e-06 0 0)
(2.102e-06 0 0)
(2.0986e-06 0 0)
(2.09559e-06 0 0)
(2.09286e-06 0 0)
(2.09037e-06 0 0)
(2.08809e-06 0 0)
(2.08598e-06 0 0)
(2.08403e-06 0 0)
(2.0822e-06 0 0)
(2.08047e-06 0 0)
(2.07884e-06 0 0)
(2.07732e-06 0 0)
(2.07593e-06 0 0)
(2.0747e-06 0 0)
(2.0736e-06 0 0)
(2.07258e-06 0 0)
(2.07159e-06 0 0)
(2.0706e-06 0 0)
(2.06959e-06 0 0)
(2.06853e-06 0 0)
(2.0675e-06 0 0)
(2.06655e-06 0 0)
(2.06584e-06 0 0)
(2.06543e-06 0 0)
(2.06508e-06 0 0)
(2.06464e-06 0 0)
(2.06415e-06 0 0)
(2.06365e-06 0 0)
(2.06305e-06 0 0)
(2.06227e-06 0 0)
(2.06138e-06 0 0)
(2.06056e-06 0 0)
(2.0599e-06 0 0)
(2.05948e-06 0 0)
(2.05937e-06 0 0)
(2.0595e-06 0 0)
(2.06054e-06 0 0)
(2.0629e-06 0 0)
(2.06595e-06 0 0)
(2.06922e-06 0 0)
(2.07255e-06 0 0)
(2.07571e-06 0 0)
(2.07851e-06 0 0)
(2.08078e-06 0 0)
(2.08244e-06 0 0)
(2.08361e-06 0 0)
(2.08458e-06 0 0)
(2.08548e-06 0 0)
(2.08619e-06 0 0)
(2.08608e-06 0 0)
(2.08485e-06 0 0)
(2.08276e-06 0 0)
(2.07997e-06 0 0)
(2.07671e-06 0 0)
(2.07318e-06 0 0)
(2.06958e-06 0 0)
(2.0661e-06 0 0)
(2.06285e-06 0 0)
(2.05996e-06 0 0)
(2.05748e-06 0 0)
(2.05543e-06 0 0)
(2.05379e-06 0 0)
(2.05253e-06 0 0)
(2.05162e-06 0 0)
(2.05101e-06 0 0)
(2.05065e-06 0 0)
(2.05048e-06 0 0)
(2.05044e-06 0 0)
(2.05049e-06 0 0)
(2.05056e-06 0 0)
(2.05063e-06 0 0)
(2.05067e-06 0 0)
(2.05065e-06 0 0)
(2.05057e-06 0 0)
(2.05042e-06 0 0)
(2.05021e-06 0 0)
(2.04993e-06 0 0)
(2.0496e-06 0 0)
(2.04922e-06 0 0)
(2.04881e-06 0 0)
(2.04837e-06 0 0)
(2.0479e-06 0 0)
(2.04742e-06 0 0)
(2.04693e-06 0 0)
(2.04644e-06 0 0)
(2.04595e-06 0 0)
(2.04546e-06 0 0)
(2.04497e-06 0 0)
(2.04449e-06 0 0)
(2.04402e-06 0 0)
(2.04356e-06 0 0)
(2.04311e-06 0 0)
(2.04266e-06 0 0)
(2.04223e-06 0 0)
(2.04181e-06 0 0)
(2.0414e-06 0 0)
(2.041e-06 0 0)
(2.04062e-06 0 0)
(2.04025e-06 0 0)
(2.03989e-06 0 0)
(2.03954e-06 0 0)
(2.03921e-06 0 0)
(2.0389e-06 0 0)
(2.0386e-06 0 0)
(2.03831e-06 0 0)
(2.03803e-06 0 0)
(2.03776e-06 0 0)
(2.0375e-06 0 0)
(2.03725e-06 0 0)
(2.03701e-06 0 0)
(2.03678e-06 0 0)
(2.03657e-06 0 0)
(2.03637e-06 0 0)
(2.03619e-06 0 0)
(2.03603e-06 0 0)
(2.03589e-06 0 0)
(2.03577e-06 0 0)
(2.03566e-06 0 0)
(2.03556e-06 0 0)
(2.03548e-06 0 0)
(2.0354e-06 0 0)
(2.03532e-06 0 0)
(2.03525e-06 0 0)
(2.03517e-06 0 0)
(2.03509e-06 0 0)
(2.03502e-06 0 0)
(2.03495e-06 0 0)
(2.03489e-06 0 0)
(2.03485e-06 0 0)
(2.03482e-06 0 0)
(2.03482e-06 0 0)
(2.03483e-06 0 0)
(2.03487e-06 0 0)
(2.03492e-06 0 0)
(2.03497e-06 0 0)
(2.03503e-06 0 0)
(2.03509e-06 0 0)
(2.03513e-06 0 0)
(2.03515e-06 0 0)
(2.03514e-06 0 0)
(2.03511e-06 0 0)
(2.03505e-06 0 0)
(2.03498e-06 0 0)
(2.03492e-06 0 0)
(2.0349e-06 0 0)
(2.03495e-06 0 0)
(2.0351e-06 0 0)
(2.03538e-06 0 0)
(2.03583e-06 0 0)
(2.03647e-06 0 0)
(2.0373e-06 0 0)
(2.03833e-06 0 0)
(2.03956e-06 0 0)
(2.04097e-06 0 0)
(2.04255e-06 0 0)
(2.04427e-06 0 0)
(2.0461e-06 0 0)
(2.04801e-06 0 0)
(2.04996e-06 0 0)
(2.05191e-06 0 0)
(2.05381e-06 0 0)
(2.05563e-06 0 0)
(2.05731e-06 0 0)
(2.0588e-06 0 0)
(2.06005e-06 0 0)
(2.06103e-06 0 0)
(2.0617e-06 0 0)
(2.06202e-06 0 0)
(2.062e-06 0 0)
(2.06162e-06 0 0)
(2.06089e-06 0 0)
(2.05984e-06 0 0)
(2.0585e-06 0 0)
(2.05692e-06 0 0)
(2.05515e-06 0 0)
(2.05324e-06 0 0)
(2.05125e-06 0 0)
(2.04924e-06 0 0)
(2.04725e-06 0 0)
(2.04533e-06 0 0)
(2.04352e-06 0 0)
(2.04184e-06 0 0)
(2.04031e-06 0 0)
(2.03895e-06 0 0)
(2.03775e-06 0 0)
(2.03672e-06 0 0)
(2.03584e-06 0 0)
(2.0351e-06 0 0)
(2.03449e-06 0 0)
(2.03399e-06 0 0)
(2.03358e-06 0 0)
(2.03323e-06 0 0)
(2.03295e-06 0 0)
(2.03269e-06 0 0)
(2.03247e-06 0 0)
(2.03225e-06 0 0)
(2.03204e-06 0 0)
(2.03181e-06 0 0)
(2.03158e-06 0 0)
(2.03133e-06 0 0)
(2.03106e-06 0 0)
(2.03077e-06 0 0)
(2.03045e-06 0 0)
(2.03012e-06 0 0)
(2.02977e-06 0 0)
(2.0294e-06 0 0)
(2.02901e-06 0 0)
(2.02862e-06 0 0)
(2.02821e-06 0 0)
(2.02779e-06 0 0)
(2.02737e-06 0 0)
(2.02695e-06 0 0)
(2.02652e-06 0 0)
(2.0261e-06 0 0)
(2.02567e-06 0 0)
(2.02525e-06 0 0)
(2.02483e-06 0 0)
(2.02442e-06 0 0)
(2.02401e-06 0 0)
(2.02361e-06 0 0)
(2.02321e-06 0 0)
(2.02283e-06 0 0)
(2.02245e-06 0 0)
(2.02208e-06 0 0)
(2.02172e-06 0 0)
(2.02137e-06 0 0)
(2.02102e-06 0 0)
(2.02069e-06 0 0)
(2.02037e-06 0 0)
(2.02005e-06 0 0)
(2.01974e-06 0 0)
(2.01945e-06 0 0)
(2.01916e-06 0 0)
(2.01888e-06 0 0)
(2.01861e-06 0 0)
(2.01836e-06 0 0)
(2.01811e-06 0 0)
(2.01787e-06 0 0)
(2.01764e-06 0 0)
(2.01743e-06 0 0)
(2.01723e-06 0 0)
(2.01703e-06 0 0)
(2.01685e-06 0 0)
(2.01668e-06 0 0)
(2.01652e-06 0 0)
(2.01636e-06 0 0)
(2.01622e-06 0 0)
(2.01608e-06 0 0)
(2.01595e-06 0 0)
(2.01583e-06 0 0)
(2.01571e-06 0 0)
(2.0156e-06 0 0)
(2.01549e-06 0 0)
(2.01539e-06 0 0)
(2.0153e-06 0 0)
(2.01522e-06 0 0)
(2.01514e-06 0 0)
(2.01507e-06 0 0)
(2.01502e-06 0 0)
(2.01497e-06 0 0)
(2.01493e-06 0 0)
(2.01489e-06 0 0)
(2.01486e-06 0 0)
(2.01484e-06 0 0)
(2.01482e-06 0 0)
(2.01479e-06 0 0)
(2.01477e-06 0 0)
(2.01474e-06 0 0)
(2.01471e-06 0 0)
(2.01467e-06 0 0)
(2.01464e-06 0 0)
(2.01461e-06 0 0)
(2.0146e-06 0 0)
(2.0146e-06 0 0)
(2.01464e-06 0 0)
(2.01471e-06 0 0)
(2.01483e-06 0 0)
(2.01501e-06 0 0)
(2.01527e-06 0 0)
(2.0156e-06 0 0)
(2.01602e-06 0 0)
(2.01654e-06 0 0)
(2.01715e-06 0 0)
(2.01787e-06 0 0)
(2.0187e-06 0 0)
(2.01962e-06 0 0)
(2.02064e-06 0 0)
(2.02174e-06 0 0)
(2.02293e-06 0 0)
(2.02418e-06 0 0)
(2.02547e-06 0 0)
(2.0268e-06 0 0)
(2.02814e-06 0 0)
(2.02947e-06 0 0)
(2.03077e-06 0 0)
(2.03202e-06 0 0)
(2.03319e-06 0 0)
(2.03425e-06 0 0)
(2.03519e-06 0 0)
(2.03599e-06 0 0)
(2.03663e-06 0 0)
(2.03709e-06 0 0)
(2.03736e-06 0 0)
(2.03744e-06 0 0)
(2.03731e-06 0 0)
(2.03699e-06 0 0)
(2.03648e-06 0 0)
(2.03579e-06 0 0)
(2.03494e-06 0 0)
(2.03393e-06 0 0)
(2.03281e-06 0 0)
(2.03158e-06 0 0)
(2.03027e-06 0 0)
(2.02891e-06 0 0)
(2.02752e-06 0 0)
(2.02613e-06 0 0)
(2.02475e-06 0 0)
(2.02341e-06 0 0)
(2.02211e-06 0 0)
(2.02088e-06 0 0)
(2.01972e-06 0 0)
(2.01864e-06 0 0)
(2.01764e-06 0 0)
(2.01672e-06 0 0)
(2.01588e-06 0 0)
(2.01513e-06 0 0)
(2.01445e-06 0 0)
(2.01383e-06 0 0)
(2.01328e-06 0 0)
(2.01279e-06 0 0)
(2.01234e-06 0 0)
(2.01193e-06 0 0)
(2.01155e-06 0 0)
(2.0112e-06 0 0)
(2.01086e-06 0 0)
(2.01054e-06 0 0)
(2.01023e-06 0 0)
(2.00992e-06 0 0)
(2.00962e-06 0 0)
(2.00931e-06 0 0)
(2.00899e-06 0 0)
(2.00867e-06 0 0)
(2.00834e-06 0 0)
(2.008e-06 0 0)
(2.00766e-06 0 0)
(2.00731e-06 0 0)
(2.00694e-06 0 0)
(2.00658e-06 0 0)
(2.0062e-06 0 0)
(2.00582e-06 0 0)
(2.00543e-06 0 0)
(2.00504e-06 0 0)
(2.00465e-06 0 0)
(2.00426e-06 0 0)
(2.00386e-06 0 0)
(2.00347e-06 0 0)
(2.00308e-06 0 0)
(2.00268e-06 0 0)
(2.0023e-06 0 0)
(2.00191e-06 0 0)
(2.00153e-06 0 0)
(2.00116e-06 0 0)
(2.00079e-06 0 0)
(2.00042e-06 0 0)
(2.00006e-06 0 0)
(1.99971e-06 0 0)
(1.99937e-06 0 0)
(1.99903e-06 0 0)
(1.9987e-06 0 0)
(1.99837e-06 0 0)
(1.99806e-06 0 0)
(1.99775e-06 0 0)
(1.99745e-06 0 0)
(1.99715e-06 0 0)
(1.99687e-06 0 0)
(1.99659e-06 0 0)
(1.99633e-06 0 0)
(1.99607e-06 0 0)
(1.99582e-06 0 0)
(1.99558e-06 0 0)
(1.99535e-06 0 0)
(1.99512e-06 0 0)
(1.99491e-06 0 0)
(1.9947e-06 0 0)
(1.99451e-06 0 0)
(1.99432e-06 0 0)
(1.99414e-06 0 0)
(1.99396e-06 0 0)
(1.9938e-06 0 0)
(1.99364e-06 0 0)
(1.99349e-06 0 0)
(1.99334e-06 0 0)
(1.99321e-06 0 0)
(1.99308e-06 0 0)
(1.99295e-06 0 0)
(1.99283e-06 0 0)
(1.99272e-06 0 0)
(1.99262e-06 0 0)
(1.99252e-06 0 0)
(1.99243e-06 0 0)
(1.99235e-06 0 0)
(1.99227e-06 0 0)
(1.99219e-06 0 0)
(1.99212e-06 0 0)
(1.99206e-06 0 0)
(1.992e-06 0 0)
(1.99194e-06 0 0)
(1.99189e-06 0 0)
(1.99184e-06 0 0)
(1.99179e-06 0 0)
(1.99174e-06 0 0)
(1.9917e-06 0 0)
(1.99167e-06 0 0)
(1.99164e-06 0 0)
(1.99162e-06 0 0)
(1.99161e-06 0 0)
(1.99162e-06 0 0)
(1.99165e-06 0 0)
(1.9917e-06 0 0)
(1.99177e-06 0 0)
(1.99188e-06 0 0)
(1.99203e-06 0 0)
(1.99221e-06 0 0)
(1.99245e-06 0 0)
(1.99273e-06 0 0)
(1.99307e-06 0 0)
(1.99346e-06 0 0)
(1.99392e-06 0 0)
(1.99443e-06 0 0)
(1.99501e-06 0 0)
(1.99564e-06 0 0)
(1.99634e-06 0 0)
(1.99709e-06 0 0)
(1.99789e-06 0 0)
(1.99874e-06 0 0)
(1.99963e-06 0 0)
(2.00056e-06 0 0)
(2.0015e-06 0 0)
(2.00246e-06 0 0)
(2.00343e-06 0 0)
(2.00439e-06 0 0)
(2.00532e-06 0 0)
(2.00623e-06 0 0)
(2.00709e-06 0 0)
(2.0079e-06 0 0)
(2.00864e-06 0 0)
(2.0093e-06 0 0)
(2.00987e-06 0 0)
(2.01034e-06 0 0)
(2.0107e-06 0 0)
(2.01095e-06 0 0)
(2.01108e-06 0 0)
(2.01109e-06 0 0)
(2.01098e-06 0 0)
(2.01074e-06 0 0)
(2.01038e-06 0 0)
(2.00991e-06 0 0)
(2.00933e-06 0 0)
(2.00865e-06 0 0)
(2.00788e-06 0 0)
(2.00703e-06 0 0)
(2.00611e-06 0 0)
(2.00514e-06 0 0)
(2.00412e-06 0 0)
(2.00308e-06 0 0)
(2.00202e-06 0 0)
(2.00095e-06 0 0)
(1.99989e-06 0 0)
(1.99884e-06 0 0)
(1.99782e-06 0 0)
(1.99682e-06 0 0)
(1.99587e-06 0 0)
(1.99495e-06 0 0)
(1.99408e-06 0 0)
(1.99326e-06 0 0)
(1.99248e-06 0 0)
(1.99175e-06 0 0)
(1.99107e-06 0 0)
(1.99043e-06 0 0)
(1.98984e-06 0 0)
(1.98928e-06 0 0)
(1.98876e-06 0 0)
(1.98827e-06 0 0)
(1.98782e-06 0 0)
(1.98739e-06 0 0)
(1.98698e-06 0 0)
(1.98658e-06 0 0)
(1.98621e-06 0 0)
(1.98584e-06 0 0)
(1.98549e-06 0 0)
(1.98514e-06 0 0)
(1.9848e-06 0 0)
(1.98446e-06 0 0)
(1.98412e-06 0 0)
(1.98378e-06 0 0)
(1.98344e-06 0 0)
(1.9831e-06 0 0)
(1.98276e-06 0 0)
(1.98241e-06 0 0)
(1.98206e-06 0 0)
(1.9817e-06 0 0)
(1.98135e-06 0 0)
(1.98099e-06 0 0)
(1.98063e-06 0 0)
(1.98026e-06 0 0)
(1.9799e-06 0 0)
(1.97953e-06 0 0)
(1.97917e-06 0 0)
(1.9788e-06 0 0)
(1.97844e-06 0 0)
(1.97807e-06 0 0)
(1.97771e-06 0 0)
(1.97735e-06 0 0)
(1.97699e-06 0 0)
(1.97664e-06 0 0)
(1.97629e-06 0 0)
(1.97595e-06 0 0)
(1.9756e-06 0 0)
(1.97527e-06 0 0)
(1.97494e-06 0 0)
(1.97461e-06 0 0)
(1.97429e-06 0 0)
(1.97398e-06 0 0)
(1.97367e-06 0 0)
(1.97337e-06 0 0)
(1.97307e-06 0 0)
(1.97278e-06 0 0)
(1.9725e-06 0 0)
(1.97222e-06 0 0)
(1.97196e-06 0 0)
(1.97169e-06 0 0)
(1.97144e-06 0 0)
(1.97119e-06 0 0)
(1.97095e-06 0 0)
(1.97072e-06 0 0)
(1.9705e-06 0 0)
(1.97028e-06 0 0)
(1.97007e-06 0 0)
(1.96986e-06 0 0)
(1.96967e-06 0 0)
(1.96948e-06 0 0)
(1.96929e-06 0 0)
(1.96912e-06 0 0)
(1.96895e-06 0 0)
(1.96878e-06 0 0)
(1.96862e-06 0 0)
(1.96847e-06 0 0)
(1.96833e-06 0 0)
(1.96819e-06 0 0)
(1.96806e-06 0 0)
(1.96793e-06 0 0)
(1.9678e-06 0 0)
(1.96769e-06 0 0)
(1.96757e-06 0 0)
(1.96747e-06 0 0)
(1.96737e-06 0 0)
(1.96727e-06 0 0)
(1.96717e-06 0 0)
(1.96708e-06 0 0)
(1.967e-06 0 0)
(1.96692e-06 0 0)
(1.96684e-06 0 0)
(1.96677e-06 0 0)
(1.9667e-06 0 0)
(1.96663e-06 0 0)
(1.96657e-06 0 0)
(1.96652e-06 0 0)
(1.96647e-06 0 0)
(1.96643e-06 0 0)
(1.96639e-06 0 0)
(1.96637e-06 0 0)
(1.96636e-06 0 0)
(1.96636e-06 0 0)
(1.96638e-06 0 0)
(1.96641e-06 0 0)
(1.96647e-06 0 0)
(1.96654e-06 0 0)
(1.96664e-06 0 0)
(1.96677e-06 0 0)
(1.96693e-06 0 0)
(1.96712e-06 0 0)
(1.96735e-06 0 0)
(1.96761e-06 0 0)
(1.9679e-06 0 0)
(1.96824e-06 0 0)
(1.96861e-06 0 0)
(1.96903e-06 0 0)
(1.96948e-06 0 0)
(1.96997e-06 0 0)
(1.9705e-06 0 0)
(1.97106e-06 0 0)
(1.97166e-06 0 0)
(1.97229e-06 0 0)
(1.97294e-06 0 0)
(1.97362e-06 0 0)
(1.97431e-06 0 0)
(1.97502e-06 0 0)
(1.97573e-06 0 0)
(1.97644e-06 0 0)
(1.97715e-06 0 0)
(1.97784e-06 0 0)
(1.97852e-06 0 0)
(1.97917e-06 0 0)
(1.97979e-06 0 0)
(1.98036e-06 0 0)
(1.98089e-06 0 0)
(1.98137e-06 0 0)
(1.98179e-06 0 0)
(1.98214e-06 0 0)
(1.98243e-06 0 0)
(1.98264e-06 0 0)
(1.98277e-06 0 0)
(1.98282e-06 0 0)
(1.98279e-06 0 0)
(1.98268e-06 0 0)
(1.98249e-06 0 0)
(1.98222e-06 0 0)
(1.98186e-06 0 0)
(1.98144e-06 0 0)
(1.98094e-06 0 0)
(1.98038e-06 0 0)
(1.97975e-06 0 0)
(1.97907e-06 0 0)
(1.97835e-06 0 0)
(1.97758e-06 0 0)
(1.97678e-06 0 0)
(1.97595e-06 0 0)
(1.97511e-06 0 0)
(1.97425e-06 0 0)
(1.97338e-06 0 0)
(1.97252e-06 0 0)
(1.97166e-06 0 0)
(1.97081e-06 0 0)
(1.96998e-06 0 0)
(1.96917e-06 0 0)
(1.96838e-06 0 0)
(1.96762e-06 0 0)
(1.96688e-06 0 0)
(1.96617e-06 0 0)
(1.9655e-06 0 0)
(1.96485e-06 0 0)
(1.96423e-06 0 0)
(1.96364e-06 0 0)
(1.96308e-06 0 0)
(1.96254e-06 0 0)
(1.96203e-06 0 0)
(1.96154e-06 0 0)
(1.96107e-06 0 0)
(1.96063e-06 0 0)
(1.9602e-06 0 0)
(1.95978e-06 0 0)
(1.95938e-06 0 0)
(1.95899e-06 0 0)
(1.95861e-06 0 0)
(1.95824e-06 0 0)
(1.95788e-06 0 0)
(1.95752e-06 0 0)
(1.95717e-06 0 0)
(1.95682e-06 0 0)
(1.95647e-06 0 0)
(1.95612e-06 0 0)
(1.95578e-06 0 0)
(1.95543e-06 0 0)
(1.95508e-06 0 0)
(1.95474e-06 0 0)
(1.95439e-06 0 0)
(1.95404e-06 0 0)
(1.95369e-06 0 0)
(1.95334e-06 0 0)
(1.95299e-06 0 0)
(1.95264e-06 0 0)
(1.95229e-06 0 0)
(1.95194e-06 0 0)
(1.95159e-06 0 0)
(1.95124e-06 0 0)
(1.95089e-06 0 0)
(1.95055e-06 0 0)
(1.9502e-06 0 0)
(1.94986e-06 0 0)
(1.94951e-06 0 0)
(1.94918e-06 0 0)
(1.94884e-06 0 0)
(1.94851e-06 0 0)
(1.94818e-06 0 0)
(1.94785e-06 0 0)
(1.94753e-06 0 0)
(1.94721e-06 0 0)
(1.9469e-06 0 0)
(1.94659e-06 0 0)
(1.94629e-06 0 0)
(1.94599e-06 0 0)
(1.9457e-06 0 0)
(1.94541e-06 0 0)
(1.94513e-06 0 0)
(1.94485e-06 0 0)
(1.94458e-06 0 0)
(1.94431e-06 0 0)
(1.94405e-06 0 0)
(1.9438e-06 0 0)
(1.94355e-06 0 0)
(1.94331e-06 0 0)
(1.94307e-06 0 0)
(1.94284e-06 0 0)
(1.94262e-06 0 0)
(1.9424e-06 0 0)
(1.94219e-06 0 0)
(1.94198e-06 0 0)
(1.94178e-06 0 0)
(1.94159e-06 0 0)
(1.9414e-06 0 0)
(1.94121e-06 0 0)
(1.94103e-06 0 0)
(1.94086e-06 0 0)
(1.94069e-06 0 0)
(1.94053e-06 0 0)
(1.94037e-06 0 0)
(1.94022e-06 0 0)
(1.94007e-06 0 0)
(1.93992e-06 0 0)
(1.93978e-06 0 0)
(1.93965e-06 0 0)
(1.93952e-06 0 0)
(1.93939e-06 0 0)
(1.93927e-06 0 0)
(1.93915e-06 0 0)
(1.93903e-06 0 0)
(1.93892e-06 0 0)
(1.93882e-06 0 0)
(1.93871e-06 0 0)
(1.93862e-06 0 0)
(1.93852e-06 0 0)
(1.93844e-06 0 0)
(1.93835e-06 0 0)
(1.93828e-06 0 0)
(1.93821e-06 0 0)
(1.93814e-06 0 0)
(1.93809e-06 0 0)
(1.93804e-06 0 0)
(1.93801e-06 0 0)
(1.93798e-06 0 0)
(1.93797e-06 0 0)
(1.93797e-06 0 0)
(1.93798e-06 0 0)
(1.93801e-06 0 0)
(1.93806e-06 0 0)
(1.93813e-06 0 0)
(1.93822e-06 0 0)
(1.93833e-06 0 0)
(1.93846e-06 0 0)
(1.93862e-06 0 0)
(1.9388e-06 0 0)
(1.939e-06 0 0)
(1.93924e-06 0 0)
(1.9395e-06 0 0)
(1.93978e-06 0 0)
(1.9401e-06 0 0)
(1.94044e-06 0 0)
(1.94081e-06 0 0)
(1.9412e-06 0 0)
(1.94162e-06 0 0)
(1.94206e-06 0 0)
(1.94252e-06 0 0)
(1.943e-06 0 0)
(1.94349e-06 0 0)
(1.94401e-06 0 0)
(1.94453e-06 0 0)
(1.94506e-06 0 0)
(1.94559e-06 0 0)
(1.94613e-06 0 0)
(1.94667e-06 0 0)
(1.94719e-06 0 0)
(1.94771e-06 0 0)
(1.94821e-06 0 0)
(1.94869e-06 0 0)
(1.94915e-06 0 0)
(1.94958e-06 0 0)
(1.94998e-06 0 0)
(1.95034e-06 0 0)
(1.95067e-06 0 0)
(1.95095e-06 0 0)
(1.95118e-06 0 0)
(1.95137e-06 0 0)
(1.9515e-06 0 0)
(1.95158e-06 0 0)
(1.95161e-06 0 0)
(1.95158e-06 0 0)
(1.95149e-06 0 0)
(1.95134e-06 0 0)
(1.95113e-06 0 0)
(1.95087e-06 0 0)
(1.95056e-06 0 0)
(1.95019e-06 0 0)
(1.94977e-06 0 0)
(1.9493e-06 0 0)
(1.94879e-06 0 0)
(1.94824e-06 0 0)
(1.94764e-06 0 0)
(1.94702e-06 0 0)
(1.94637e-06 0 0)
(1.94569e-06 0 0)
(1.94499e-06 0 0)
(1.94428e-06 0 0)
(1.94355e-06 0 0)
(1.94281e-06 0 0)
(1.94208e-06 0 0)
(1.94134e-06 0 0)
(1.9406e-06 0 0)
(1.93987e-06 0 0)
(1.93915e-06 0 0)
(1.93844e-06 0 0)
(1.93775e-06 0 0)
(1.93707e-06 0 0)
(1.9364e-06 0 0)
(1.93576e-06 0 0)
(1.93513e-06 0 0)
(1.93452e-06 0 0)
(1.93393e-06 0 0)
(1.93336e-06 0 0)
(1.93281e-06 0 0)
(1.93227e-06 0 0)
(1.93175e-06 0 0)
(1.93125e-06 0 0)
(1.93077e-06 0 0)
(1.9303e-06 0 0)
(1.92985e-06 0 0)
(1.9294e-06 0 0)
(1.92897e-06 0 0)
(1.92855e-06 0 0)
(1.92814e-06 0 0)
(1.92774e-06 0 0)
(1.92734e-06 0 0)
(1.92695e-06 0 0)
(1.92657e-06 0 0)
(1.92619e-06 0 0)
(1.92582e-06 0 0)
(1.92545e-06 0 0)
(1.92508e-06 0 0)
(1.92471e-06 0 0)
(1.92435e-06 0 0)
(1.92398e-06 0 0)
(1.92362e-06 0 0)
(1.92326e-06 0 0)
(1.9229e-06 0 0)
(1.92254e-06 0 0)
(1.92218e-06 0 0)
(1.92182e-06 0 0)
(1.92146e-06 0 0)
(1.9211e-06 0 0)
(1.92074e-06 0 0)
(1.92038e-06 0 0)
(1.92003e-06 0 0)
(1.91967e-06 0 0)
(1.91932e-06 0 0)
(1.91896e-06 0 0)
(1.91861e-06 0 0)
(1.91826e-06 0 0)
(1.91792e-06 0 0)
(1.91757e-06 0 0)
(1.91723e-06 0 0)
(1.91689e-06 0 0)
(1.91655e-06 0 0)
(1.91622e-06 0 0)
(1.91589e-06 0 0)
(1.91556e-06 0 0)
(1.91524e-06 0 0)
(1.91492e-06 0 0)
(1.9146e-06 0 0)
(1.91429e-06 0 0)
(1.91399e-06 0 0)
(1.91368e-06 0 0)
(1.91339e-06 0 0)
(1.91309e-06 0 0)
(1.91281e-06 0 0)
(1.91252e-06 0 0)
(1.91224e-06 0 0)
(1.91197e-06 0 0)
(1.9117e-06 0 0)
(1.91144e-06 0 0)
(1.91118e-06 0 0)
(1.91092e-06 0 0)
(1.91068e-06 0 0)
(1.91043e-06 0 0)
(1.91019e-06 0 0)
(1.90996e-06 0 0)
(1.90973e-06 0 0)
(1.90951e-06 0 0)
(1.90929e-06 0 0)
(1.90908e-06 0 0)
(1.90887e-06 0 0)
(1.90866e-06 0 0)
(1.90846e-06 0 0)
(1.90827e-06 0 0)
(1.90807e-06 0 0)
(1.90789e-06 0 0)
(1.90771e-06 0 0)
(1.90753e-06 0 0)
(1.90735e-06 0 0)
(1.90718e-06 0 0)
(1.90702e-06 0 0)
(1.90685e-06 0 0)
(1.9067e-06 0 0)
(1.90654e-06 0 0)
(1.90639e-06 0 0)
(1.90625e-06 0 0)
(1.9061e-06 0 0)
(1.90596e-06 0 0)
(1.90583e-06 0 0)
(1.9057e-06 0 0)
(1.90558e-06 0 0)
(1.90546e-06 0 0)
(1.90534e-06 0 0)
(1.90523e-06 0 0)
(1.90513e-06 0 0)
(1.90503e-06 0 0)
(1.90494e-06 0 0)
(1.90486e-06 0 0)
(1.90478e-06 0 0)
(1.90472e-06 0 0)
(1.90466e-06 0 0)
(1.90461e-06 0 0)
(1.90458e-06 0 0)
(1.90455e-06 0 0)
(1.90454e-06 0 0)
(1.90454e-06 0 0)
(1.90456e-06 0 0)
(1.90459e-06 0 0)
(1.90463e-06 0 0)
(1.90469e-06 0 0)
(1.90477e-06 0 0)
(1.90487e-06 0 0)
(1.90498e-06 0 0)
(1.90511e-06 0 0)
(1.90526e-06 0 0)
(1.90543e-06 0 0)
(1.90562e-06 0 0)
(1.90583e-06 0 0)
(1.90606e-06 0 0)
(1.90631e-06 0 0)
(1.90657e-06 0 0)
(1.90685e-06 0 0)
(1.90715e-06 0 0)
(1.90747e-06 0 0)
(1.90779e-06 0 0)
(1.90814e-06 0 0)
(1.90849e-06 0 0)
(1.90885e-06 0 0)
(1.90922e-06 0 0)
(1.9096e-06 0 0)
(1.90999e-06 0 0)
(1.91038e-06 0 0)
(1.91076e-06 0 0)
(1.91115e-06 0 0)
(1.91154e-06 0 0)
(1.91192e-06 0 0)
(1.91229e-06 0 0)
(1.12132e-06 0 0)
)
;

boundaryField
{
    inlet
    {
        type            fixedValue;
        value           uniform (2.74882e-06 0 0);
    }
    outlet
    {
        type            zeroGradient;
    }
    emptyWalls
    {
        type            empty;
    }
}


// ************************************************************************* //
