/*--------------------------------*- C++ -*----------------------------------*\
  =========                 |
  \\      /  F ield         | OpenFOAM: The Open Source CFD Toolbox
   \\    /   O peration     | Website:  https://openfoam.org
    \\  /    A nd           | Version:  9
     \\/     M anipulation  |
\*---------------------------------------------------------------------------*/
FoamFile
{
    format      ascii;
    class       volScalarField;
    location    "29150";
    object      Sa;
}
// * * * * * * * * * * * * * * * * * * * * * * * * * * * * * * * * * * * * * //

dimensions      [0 0 0 0 0 0 0];

internalField   nonuniform List<scalar> 
1000
(
0.54964
0.548915
0.547963
0.547009
0.546031
0.545085
0.544084
0.543138
0.542111
0.54116
0.540112
0.539139
0.538088
0.537076
0.536033
0.53499
0.533946
0.532897
0.531848
0.530807
0.529769
0.528748
0.527748
0.526768
0.525839
0.524924
0.524105
0.523276
0.522586
0.521874
0.521306
0.520732
0.520266
0.519822
0.519444
0.51909
0.518745
0.518256
0.51701
0.512527
0.493804
0.377035
0.137164
0.0830798
0.0680165
0.0613015
0.0572978
0.0544563
0.0522232
0.0503543
0.0487307
0.0472836
0.0459745
0.0447746
0.0436679
0.0426394
0.0416808
0.0407827
0.0399407
0.0391475
0.0384003
0.0376936
0.0370264
0.0363938
0.0357955
0.0352276
0.0346892
0.0341764
0.0336889
0.0332232
0.0327781
0.0323518
0.0319448
0.0315548
0.0311828
0.030827
0.0304887
0.0301624
0.0298485
0.0295467
0.0292566
0.0289757
0.0287038
0.0284402
0.028188
0.0279418
0.027706
0.0274812
0.0272666
0.027063
0.0268795
0.02671
0.0265494
0.0263967
0.0262504
0.0261092
0.0259716
0.0258368
0.0257045
0.025576
0.0254532
0.0253369
0.0252254
0.0251123
0.0249974
0.0248837
0.0247719
0.0246635
0.0245596
0.0244619
0.0243714
0.02429
0.0242187
0.024159
0.0241103
0.0240712
0.0240366
0.0240035
0.0239712
0.02394
0.0239094
0.0238795
0.0238496
0.0238201
0.0237902
0.0237604
0.02373
0.0236996
0.0236686
0.0236377
0.0236061
0.0235748
0.0235429
0.0235114
0.0234794
0.0234479
0.023416
0.0233847
0.023353
0.0233221
0.0232907
0.0232601
0.0232291
0.023199
0.0231684
0.0231387
0.0231085
0.0230792
0.0230494
0.0230207
0.0229913
0.0229631
0.0229342
0.0229064
0.0228779
0.0228506
0.0228226
0.0227957
0.022768
0.0227416
0.0227142
0.0226882
0.0226612
0.0226357
0.0226092
0.0225841
0.0225581
0.0225335
0.022508
0.022484
0.0224588
0.0224352
0.0224104
0.0223871
0.0223626
0.0223396
0.0223153
0.0222925
0.0222686
0.0222461
0.0222226
0.0222005
0.0221776
0.0221559
0.0221335
0.0221123
0.0220903
0.0220693
0.0220476
0.0220267
0.022005
0.0219839
0.0219621
0.0219409
0.021919
0.0218978
0.0218762
0.0218556
0.0218351
0.0218159
0.0217972
0.0217802
0.0217639
0.0217496
0.0217358
0.021724
0.0217126
0.0217029
0.0216933
0.0216851
0.0216764
0.0216689
0.0216602
0.0216524
0.0216428
0.0216335
0.0216218
0.0216101
0.0215953
0.0215801
0.0215615
0.0215425
0.0215198
0.0214971
0.0214707
0.0214449
0.0214158
0.0213879
0.0213573
0.0213287
0.0212979
0.0212697
0.0212398
0.021213
0.0211846
0.0211597
0.0211333
0.0211105
0.0210861
0.0210652
0.0210424
0.0210231
0.0210018
0.0209836
0.0209632
0.0209459
0.020926
0.0209091
0.0208895
0.0208727
0.0208533
0.0208365
0.0208169
0.0208001
0.0207805
0.0207635
0.0207438
0.0207268
0.020707
0.02069
0.0206702
0.0206532
0.0206334
0.0206164
0.0205968
0.0205799
0.0205604
0.0205437
0.0205243
0.0205078
0.0204885
0.0204722
0.0204532
0.0204371
0.0204182
0.0204023
0.0203837
0.020368
0.0203496
0.0203341
0.0203159
0.0203007
0.0202827
0.0202676
0.0202498
0.020235
0.0202174
0.0202028
0.0201854
0.020171
0.0201539
0.0201397
0.0201229
0.0201089
0.0200923
0.0200785
0.0200621
0.0200485
0.0200323
0.0200189
0.0200028
0.0199896
0.0199737
0.0199607
0.0199449
0.0199321
0.0199166
0.019904
0.0198886
0.0198762
0.019861
0.0198488
0.0198338
0.0198218
0.0198069
0.0197949
0.0197801
0.0197682
0.0197534
0.0197415
0.0197268
0.0197149
0.0197003
0.0196887
0.0196743
0.019663
0.0196492
0.0196385
0.0196254
0.0196156
0.0196034
0.0195947
0.0195836
0.0195761
0.0195662
0.0195599
0.0195512
0.019546
0.0195384
0.019534
0.0195272
0.0195234
0.0195169
0.0195134
0.0195068
0.0195029
0.0194958
0.0194911
0.019483
0.019477
0.0194673
0.0194596
0.019448
0.0194383
0.0194247
0.0194129
0.0193973
0.0193835
0.019366
0.0193507
0.0193317
0.0193151
0.0192951
0.0192778
0.0192574
0.0192399
0.0192196
0.0192023
0.0191824
0.0191658
0.0191467
0.0191309
0.0191127
0.0190979
0.0190806
0.0190667
0.0190503
0.0190372
0.0190216
0.0190092
0.0189942
0.0189823
0.0189678
0.0189563
0.0189421
0.0189309
0.0189168
0.0189057
0.0188918
0.0188807
0.0188668
0.0188558
0.0188418
0.0188308
0.0188169
0.0188058
0.0187918
0.0187808
0.0187667
0.0187557
0.0187417
0.0187306
0.0187166
0.0187056
0.0186917
0.0186808
0.0186669
0.018656
0.0186422
0.0186315
0.0186178
0.0186071
0.0185935
0.018583
0.0185695
0.0185591
0.0185457
0.0185354
0.0185222
0.018512
0.0184989
0.0184888
0.0184759
0.018466
0.0184531
0.0184433
0.0184306
0.018421
0.0184085
0.018399
0.0183865
0.0183772
0.0183649
0.0183557
0.0183435
0.0183344
0.0183224
0.0183134
0.0183015
0.0182927
0.0182809
0.0182722
0.0182605
0.0182519
0.0182403
0.0182319
0.0182204
0.0182121
0.0182008
0.0181925
0.0181813
0.0181732
0.018162
0.018154
0.0181429
0.018135
0.018124
0.0181161
0.0181051
0.0180973
0.0180865
0.0180787
0.018068
0.0180604
0.0180498
0.0180425
0.0180322
0.0180251
0.0180152
0.0180085
0.0179991
0.017993
0.0179841
0.0179785
0.0179703
0.0179654
0.0179578
0.0179536
0.0179467
0.0179431
0.0179368
0.0179339
0.0179281
0.0179255
0.0179201
0.0179179
0.0179126
0.0179104
0.0179051
0.0179028
0.0178971
0.0178943
0.0178882
0.0178847
0.0178777
0.0178733
0.0178654
0.0178599
0.0178508
0.0178442
0.0178339
0.017826
0.0178145
0.0178055
0.0177929
0.0177829
0.0177693
0.0177584
0.0177442
0.0177327
0.0177179
0.0177061
0.0176911
0.0176792
0.0176642
0.0176524
0.0176377
0.0176262
0.0176118
0.0176007
0.0175868
0.0175762
0.0175628
0.0175527
0.0175397
0.0175301
0.0175176
0.0175085
0.0174964
0.0174876
0.0174759
0.0174673
0.0174559
0.0174476
0.0174363
0.0174282
0.017417
0.017409
0.0173979
0.01739
0.017379
0.0173711
0.0173601
0.0173522
0.0173412
0.0173333
0.0173223
0.0173144
0.0173034
0.0172955
0.0172845
0.0172767
0.0172657
0.0172578
0.0172469
0.0172391
0.0172282
0.0172204
0.0172096
0.0172019
0.0171911
0.0171834
0.0171727
0.0171651
0.0171545
0.017147
0.0171364
0.017129
0.0171185
0.0171112
0.0171008
0.0170936
0.0170832
0.0170761
0.0170659
0.0170589
0.0170487
0.0170418
0.0170318
0.0170249
0.017015
0.0170083
0.0169984
0.0169918
0.0169821
0.0169755
0.0169659
0.0169594
0.0169499
0.0169435
0.016934
0.0169278
0.0169184
0.0169122
0.0169029
0.0168968
0.0168876
0.0168816
0.0168725
0.0168666
0.0168575
0.0168517
0.0168427
0.0168369
0.016828
0.0168223
0.0168134
0.0168077
0.0167989
0.0167934
0.0167846
0.0167791
0.0167705
0.0167651
0.0167565
0.0167513
0.0167429
0.0167378
0.0167295
0.0167246
0.0167167
0.016712
0.0167043
0.0167
0.0166926
0.0166886
0.0166816
0.016678
0.0166714
0.0166683
0.0166621
0.0166593
0.0166535
0.0166511
0.0166457
0.0166437
0.0166386
0.0166368
0.016632
0.0166304
0.0166257
0.0166243
0.0166196
0.0166181
0.0166133
0.0166116
0.0166065
0.0166045
0.0165991
0.0165967
0.0165908
0.0165877
0.0165812
0.0165775
0.0165703
0.0165658
0.0165578
0.0165527
0.0165439
0.0165379
0.0165284
0.0165217
0.0165114
0.0165041
0.0164933
0.0164854
0.0164741
0.0164658
0.0164541
0.0164456
0.0164337
0.016425
0.0164131
0.0164044
0.0163925
0.0163839
0.0163721
0.0163637
0.0163521
0.016344
0.0163327
0.0163248
0.0163138
0.0163062
0.0162955
0.0162882
0.0162778
0.0162708
0.0162606
0.0162538
0.0162439
0.0162373
0.0162276
0.0162211
0.0162115
0.0162052
0.0161958
0.0161896
0.0161802
0.0161741
0.0161647
0.0161587
0.0161493
0.0161433
0.016134
0.0161281
0.0161188
0.0161128
0.0161036
0.0160976
0.0160884
0.0160825
0.0160732
0.0160673
0.0160581
0.0160523
0.0160431
0.0160372
0.0160281
0.0160223
0.0160132
0.0160074
0.0159983
0.0159926
0.0159836
0.0159779
0.015969
0.0159634
0.0159545
0.0159489
0.0159401
0.0159346
0.0159258
0.0159204
0.0159117
0.0159064
0.0158977
0.0158925
0.0158839
0.0158787
0.0158702
0.0158651
0.0158566
0.0158516
0.0158432
0.0158383
0.01583
0.0158251
0.0158168
0.015812
0.0158038
0.0157991
0.015791
0.0157863
0.0157782
0.0157736
0.0157656
0.0157611
0.0157532
0.0157487
0.0157408
0.0157364
0.0157285
0.0157242
0.0157164
0.0157121
0.0157044
0.0157001
0.0156924
0.0156882
0.0156806
0.0156765
0.0156689
0.0156648
0.0156574
0.0156534
0.015646
0.0156421
0.0156348
0.015631
0.0156239
0.0156203
0.0156133
0.0156098
0.015603
0.0155997
0.0155931
0.0155901
0.0155837
0.0155809
0.0155748
0.0155722
0.0155664
0.0155641
0.0155585
0.0155565
0.0155512
0.0155494
0.0155443
0.0155428
0.0155379
0.0155366
0.0155319
0.0155307
0.0155262
0.015525
0.0155205
0.0155194
0.0155148
0.0155137
0.0155091
0.0155079
0.015503
0.0155017
0.0154964
0.015495
0.0154892
0.0154877
0.0154812
0.0154795
0.0154723
0.0154703
0.0154624
0.0154603
0.0154515
0.0154491
0.0154396
0.0154368
0.0154266
0.0154234
0.0154128
0.0154092
0.0153981
0.0153941
0.0153826
0.0153784
0.0153666
0.0153622
0.0153501
0.0153456
0.0153334
0.0153288
0.0153166
0.015312
0.0152998
0.0152953
0.0152832
0.0152788
0.0152667
0.0152625
0.0152506
0.0152466
0.0152349
0.015231
0.0152195
0.0152158
0.0152045
0.015201
0.0151898
0.0151865
0.0151754
0.0151723
0.0151613
0.0151584
0.0151475
0.0151447
0.0151339
0.0151311
0.0151204
0.0151178
0.0151071
0.0151045
0.0150939
0.0150913
0.0150807
0.0150781
0.0150677
0.0150651
0.0150547
0.0150519
0.0150418
0.0150388
0.015029
0.0150258
0.0150162
0.0150127
0.0150034
0.0149997
0.0149907
0.0149868
0.014978
0.0149739
0.0149654
0.0149611
0.0149528
0.0149484
0.0149403
0.0149357
0.0149278
0.0149232
0.0149154
0.0149107
0.014903
0.0148983
0.0148908
0.0148861
0.0148786
0.0148739
0.0148665
0.0148619
0.0148546
0.0148499
0.0148427
0.0148381
0.0148309
0.0148264
0.0148192
0.0148148
0.0148076
0.0148032
0.0147961
0.0147918
0.0147848
0.0147805
0.0147735
0.0147693
0.0147623
0.0147581
0.0147512
0.0147471
0.0147402
0.0147362
0.0147293
0.0147253
0.0147184
0.0147145
0.0147077
0.0147038
0.014697
0.0146932
0.0146864
0.0146827
0.014676
0.0146723
0.0146656
0.014662
0.0146553
0.0146518
0.0146452
0.0146418
0.0146353
0.0146319
0.0146255
0.0146222
0.0146159
0.0146128
0.0146066
0.0146036
0.0145975
0.0145947
0.0145887
0.0145861
0.0145803
0.0145778
0.0145721
0.0145699
0.0145644
0.0145623
0.014557
0.0145551
0.0145499
0.0145482
0.0145432
0.0145417
0.0145368
0.0145354
0.0145306
0.0145293
0.0145246
0.0145234
0.0145188
0.0145176
0.0145129
0.0145118
0.0145071
0.0145059
0.0145011
0.0144999
0.014495
0.0144937
0.0144885
0.0144872
0.0144817
0.0144803
0.0144744
0.0144729
0.0144666
0.0144649
0.0144523
0.257571
)
;

boundaryField
{
    inlet
    {
        type            fixedValue;
        value           uniform 0.55;
    }
    outlet
    {
        type            zeroGradient;
    }
    emptyWalls
    {
        type            empty;
    }
}


// ************************************************************************* //
