/*--------------------------------*- C++ -*----------------------------------*\
  =========                 |
  \\      /  F ield         | OpenFOAM: The Open Source CFD Toolbox
   \\    /   O peration     | Website:  https://openfoam.org
    \\  /    A nd           | Version:  9
     \\/     M anipulation  |
\*---------------------------------------------------------------------------*/
FoamFile
{
    format      ascii;
    class       volScalarField;
    location    "13700";
    object      Fa;
}
// * * * * * * * * * * * * * * * * * * * * * * * * * * * * * * * * * * * * * //

dimensions      [0 0 0 0 0 0 0];

internalField   nonuniform List<scalar> 
1000
(
0.194801
0.194776
0.194798
0.194695
0.194769
0.194537
0.194697
0.194343
0.194548
0.194198
0.194334
0.194108
0.194131
0.194009
0.193975
0.193873
0.193715
0.193043
0.188838
0.163472
0.152816
0.150621
0.149689
0.149132
0.148727
0.148395
0.14811
0.147865
0.147663
0.147501
0.147369
0.14725
0.147132
0.147018
0.146925
0.146892
0.146936
0.147094
0.147313
0.147609
0.147879
0.148094
0.148214
0.14827
0.148326
0.148385
0.148383
0.148293
0.148107
0.147843
0.147514
0.147156
0.146787
0.14644
0.146116
0.145826
0.14558
0.145383
0.145236
0.145135
0.145075
0.145048
0.145047
0.145062
0.145087
0.145114
0.145139
0.145157
0.145168
0.145169
0.145162
0.145146
0.145123
0.145094
0.145061
0.145023
0.144983
0.144941
0.144898
0.144854
0.14481
0.144765
0.14472
0.144676
0.144632
0.144588
0.144545
0.144502
0.144459
0.144417
0.144376
0.144335
0.144294
0.144255
0.144216
0.144178
0.144141
0.144104
0.144068
0.144034
0.144
0.143967
0.143935
0.143904
0.143874
0.143844
0.143816
0.143788
0.143761
0.143736
0.143711
0.143687
0.143664
0.143641
0.14362
0.1436
0.14358
0.143561
0.143544
0.143527
0.14351
0.143495
0.143481
0.143468
0.143455
0.143444
0.143433
0.143422
0.143412
0.143402
0.143393
0.143383
0.143373
0.143363
0.143352
0.143342
0.143332
0.143322
0.143314
0.143307
0.143301
0.143297
0.143293
0.143289
0.143286
0.143282
0.143279
0.143277
0.143276
0.143278
0.143285
0.143298
0.14332
0.143352
0.143395
0.14345
0.143518
0.143599
0.143692
0.143797
0.143913
0.144036
0.144166
0.144299
0.144434
0.144565
0.144691
0.144806
0.144908
0.144992
0.145055
0.145094
0.145106
0.14509
0.145045
0.144973
0.144873
0.14475
0.144605
0.144444
0.14427
0.144089
0.143905
0.143723
0.143546
0.143378
0.143223
0.14308
0.142953
0.142841
0.142743
0.142661
0.142591
0.142534
0.142487
0.14245
0.142419
0.142393
0.142372
0.142353
0.142336
0.142319
0.142302
0.142284
0.142265
0.142244
0.14222
0.142195
0.142168
0.142139
0.142108
0.142076
0.142042
0.142008
0.141972
0.141935
0.141898
0.141861
0.141823
0.141785
0.141747
0.141709
0.141671
0.141633
0.141595
0.141558
0.141521
0.141484
0.141448
0.141412
0.141376
0.141341
0.141306
0.141271
0.141237
0.141203
0.14117
0.141137
0.141105
0.141073
0.141042
0.141011
0.14098
0.14095
0.140921
0.140892
0.140864
0.140836
0.140809
0.140782
0.140756
0.14073
0.140705
0.14068
0.140656
0.140633
0.14061
0.140587
0.140566
0.140545
0.140524
0.140504
0.140485
0.140466
0.140447
0.14043
0.140412
0.140396
0.140379
0.140364
0.140348
0.140333
0.140318
0.140304
0.140289
0.140275
0.140261
0.140248
0.140234
0.140221
0.140208
0.140195
0.140183
0.140171
0.140159
0.140147
0.140136
0.140125
0.140115
0.140105
0.140096
0.140087
0.14008
0.140074
0.140069
0.140066
0.140066
0.140069
0.140074
0.140084
0.140097
0.140115
0.140138
0.140167
0.140201
0.140241
0.140286
0.140338
0.140395
0.140457
0.140524
0.140595
0.140669
0.140746
0.140825
0.140903
0.140981
0.141056
0.141128
0.141194
0.141254
0.141306
0.141349
0.141381
0.141401
0.141409
0.141404
0.141385
0.141353
0.141307
0.141248
0.141176
0.141093
0.140999
0.140897
0.140787
0.140672
0.140553
0.140431
0.14031
0.140188
0.14007
0.139954
0.139844
0.139738
0.13964
0.139546
0.139461
0.139381
0.139308
0.139242
0.139181
0.139126
0.139077
0.139032
0.138991
0.138953
0.138918
0.138886
0.138855
0.138826
0.138798
0.13877
0.138743
0.138716
0.138689
0.138661
0.138633
0.138604
0.138575
0.138545
0.138514
0.138483
0.138451
0.138419
0.138385
0.138352
0.138317
0.138283
0.138248
0.138213
0.138177
0.138142
0.138106
0.13807
0.138034
0.137998
0.137963
0.137926
0.137891
0.137854
0.13782
0.137783
0.137749
0.137712
0.137679
0.137642
0.137609
0.137573
0.137539
0.137505
0.137471
0.137438
0.137404
0.137371
0.137338
0.137306
0.137273
0.137241
0.13721
0.137178
0.137148
0.137117
0.137087
0.137057
0.137028
0.136999
0.13697
0.136942
0.136914
0.136887
0.13686
0.136833
0.136807
0.136781
0.136756
0.136731
0.136707
0.136683
0.136659
0.136636
0.136613
0.136591
0.136569
0.136548
0.136526
0.136506
0.136485
0.136465
0.136445
0.136426
0.136406
0.136387
0.136368
0.13635
0.136332
0.136313
0.136296
0.136278
0.13626
0.136243
0.136226
0.136209
0.136193
0.136177
0.136161
0.136146
0.136131
0.136116
0.136103
0.136089
0.136077
0.136066
0.136056
0.136047
0.136039
0.136033
0.136029
0.136027
0.136026
0.136029
0.136033
0.136041
0.136051
0.136063
0.13608
0.136098
0.13612
0.136146
0.136174
0.136205
0.136238
0.136275
0.136314
0.136354
0.136397
0.13644
0.136485
0.13653
0.136575
0.136619
0.136662
0.136703
0.136741
0.136777
0.136809
0.136836
0.136858
0.136875
0.136886
0.136891
0.136889
0.136879
0.136863
0.136839
0.136807
0.136768
0.136721
0.136668
0.136608
0.136541
0.136469
0.136392
0.136311
0.136226
0.136138
0.136048
0.135957
0.135866
0.135775
0.135684
0.135596
0.13551
0.135427
0.135348
0.135272
0.135201
0.135134
0.135072
0.135014
0.134962
0.134914
0.134871
0.134832
0.134797
0.134766
0.134738
0.134713
0.134691
0.13467
0.13465
0.134628
0.134602
0.134567
0.134515
0.134433
0.134298
0.134082
0.133749
0.133287
0.132736
0.132218
0.131844
0.131626
0.131514
0.131456
0.131424
0.131404
0.131389
0.131377
0.131366
0.131355
0.131345
0.131334
0.131324
0.131313
0.131302
0.131291
0.13128
0.131269
0.131257
0.131246
0.131235
0.131224
0.131213
0.131201
0.13119
0.131179
0.131169
0.131158
0.131147
0.131137
0.131127
0.131117
0.131107
0.131097
0.131087
0.131078
0.131069
0.13106
0.131052
0.131043
0.131035
0.131027
0.13102
0.131013
0.131006
0.130999
0.130992
0.130986
0.13098
0.130975
0.13097
0.130965
0.13096
0.130956
0.130952
0.130948
0.130945
0.130942
0.130939
0.130937
0.130935
0.130934
0.130933
0.130932
0.130932
0.130931
0.130931
0.130932
0.130932
0.130934
0.130935
0.130937
0.130939
0.130942
0.130945
0.130948
0.130952
0.130956
0.13096
0.130964
0.130969
0.130974
0.130979
0.130985
0.130991
0.130997
0.131003
0.131009
0.131016
0.131023
0.13103
0.131038
0.131045
0.131053
0.131062
0.13107
0.131079
0.131088
0.131098
0.131108
0.131118
0.131129
0.13114
0.131152
0.131164
0.131177
0.131191
0.131206
0.131221
0.131238
0.131255
0.131274
0.131294
0.131315
0.131338
0.131362
0.131387
0.131414
0.131443
0.131473
0.131505
0.131539
0.131575
0.131613
0.131652
0.131693
0.131736
0.131781
0.131827
0.131875
0.131924
0.131975
0.132027
0.132079
0.132133
0.132187
0.132241
0.132295
0.132349
0.132403
0.132456
0.132507
0.132558
0.132606
0.132652
0.132696
0.132737
0.132775
0.13281
0.132841
0.132868
0.132891
0.132909
0.132923
0.132932
0.132936
0.132936
0.132936
0.132935
0.132923
0.132904
0.132881
0.132854
0.132822
0.132787
0.132749
0.132707
0.132663
0.132617
0.132569
0.13252
0.132469
0.132418
0.132366
0.132315
0.132264
0.132213
0.132164
0.132115
0.132069
0.132023
0.13198
0.131939
0.131899
0.131862
0.131826
0.131793
0.131762
0.131733
0.131706
0.131681
0.131657
0.131636
0.131616
0.131597
0.131579
0.131563
0.131548
0.131534
0.131521
0.131508
0.131496
0.131485
0.131474
0.131463
0.131453
0.131443
0.131433
0.131423
0.131413
0.131403
0.131393
0.131383
0.131373
0.131362
0.131352
0.131342
0.131331
0.131321
0.13131
0.1313
0.131289
0.131278
0.131268
0.131257
0.131246
0.131236
0.131225
0.131215
0.131205
0.131194
0.131184
0.131174
0.131165
0.131155
0.131146
0.131137
0.131128
0.131119
0.13111
0.131102
0.131094
0.131086
0.131078
0.131071
0.131064
0.131057
0.131051
0.131044
0.131038
0.131032
0.131027
0.131022
0.131017
0.131012
0.131007
0.131003
0.130999
0.130996
0.130992
0.130989
0.130987
0.130984
0.130982
0.13098
0.130979
0.130978
0.130977
0.130976
0.130976
0.130976
0.130976
0.130976
0.130976
0.130977
0.130979
0.130981
0.130983
0.130985
0.130987
0.13099
0.130993
0.130997
0.131
0.131004
0.131008
0.131012
0.131017
0.131022
0.131027
0.131032
0.131038
0.131043
0.131049
0.131056
0.131062
0.131069
0.131076
0.131083
0.13109
0.131098
0.131106
0.131115
0.131123
0.131133
0.131142
0.131152
0.131163
0.131174
0.131185
0.131197
0.13121
0.131224
0.131238
0.131254
0.13127
0.131287
0.131305
0.131324
0.131344
0.131365
0.131388
0.131412
0.131437
0.131464
0.131492
0.131521
0.131552
0.131584
0.131618
0.131653
0.131689
0.131727
0.131766
0.131807
0.131848
0.131891
0.131934
0.131978
0.132024
0.132069
0.132115
0.132161
0.132207
0.132253
0.132299
0.132344
0.132388
0.132431
0.132473
0.132513
0.132552
0.132588
0.132623
0.132654
0.132683
0.13271
0.132733
0.132753
0.13277
0.132783
0.132792
0.132797
0.1328
0.1328
0.132799
0.132796
0.132784
0.132768
0.132748
0.132724
0.132698
0.132669
0.132637
0.132602
0.132566
0.132527
0.132487
0.132446
0.132403
0.13236
0.132316
0.132272
0.132228
0.132185
0.132141
0.132099
0.132058
0.132017
0.131978
0.13194
0.131904
0.131869
0.131836
0.131804
0.131774
0.131745
0.131718
0.131693
0.131669
0.131646
0.131625
0.131605
0.131586
0.131568
0.131551
0.131535
0.13152
0.131506
0.131492
0.131479
0.131467
0.131455
0.131443
0.131432
0.131421
0.131409
0.131399
0.131388
0.131378
0.131366
0.131357
0.131345
0.131337
0.131324
0.131316
0.131303
0.131295
0.131282
0.131274
0.131261
0.131253
0.13124
0.131233
0.131219
0.131212
0.131198
0.131192
0.131178
0.131173
0.131158
0.131154
0.131139
0.131135
0.131121
0.131118
0.131102
0.131102
)
;

boundaryField
{
    inlet
    {
        type            calculated;
        value           uniform 0.194831;
    }
    outlet
    {
        type            calculated;
        value           uniform 0.131094;
    }
    emptyWalls
    {
        type            empty;
    }
}


// ************************************************************************* //
