/*--------------------------------*- C++ -*----------------------------------*\
  =========                 |
  \\      /  F ield         | OpenFOAM: The Open Source CFD Toolbox
   \\    /   O peration     | Website:  https://openfoam.org
    \\  /    A nd           | Version:  9
     \\/     M anipulation  |
\*---------------------------------------------------------------------------*/
FoamFile
{
    format      ascii;
    class       surfaceScalarField;
    location    "13700";
    object      phib;
}
// * * * * * * * * * * * * * * * * * * * * * * * * * * * * * * * * * * * * * //

dimensions      [0 2 0 0 0 0 0];

internalField   nonuniform List<scalar> 
999
(
1.13623e-09
1.13622e-09
1.13626e-09
1.13626e-09
1.13633e-09
1.13634e-09
1.13643e-09
1.13649e-09
1.13653e-09
1.13663e-09
1.13663e-09
1.13672e-09
1.13674e-09
1.1368e-09
1.13685e-09
1.13695e-09
1.13727e-09
1.13846e-09
1.14552e-09
1.17119e-09
1.1763e-09
1.17767e-09
1.1783e-09
1.17868e-09
1.17896e-09
1.17918e-09
1.17937e-09
1.17951e-09
1.1796e-09
1.17965e-09
1.17968e-09
1.1797e-09
1.17973e-09
1.17974e-09
1.1797e-09
1.17956e-09
1.17929e-09
1.17889e-09
1.17841e-09
1.17788e-09
1.1774e-09
1.17702e-09
1.17674e-09
1.1765e-09
1.17625e-09
1.17603e-09
1.17591e-09
1.17589e-09
1.17596e-09
1.17609e-09
1.17623e-09
1.17634e-09
1.17636e-09
1.17629e-09
1.17614e-09
1.17589e-09
1.17555e-09
1.17513e-09
1.17462e-09
1.17405e-09
1.17341e-09
1.17272e-09
1.172e-09
1.17126e-09
1.1705e-09
1.16974e-09
1.16898e-09
1.16822e-09
1.16748e-09
1.16674e-09
1.16601e-09
1.16529e-09
1.16457e-09
1.16386e-09
1.16315e-09
1.16245e-09
1.16174e-09
1.16104e-09
1.16033e-09
1.15962e-09
1.15891e-09
1.1582e-09
1.15748e-09
1.15677e-09
1.15605e-09
1.15533e-09
1.1546e-09
1.15387e-09
1.15314e-09
1.15241e-09
1.15168e-09
1.15094e-09
1.1502e-09
1.14946e-09
1.14871e-09
1.14796e-09
1.14721e-09
1.14645e-09
1.1457e-09
1.14494e-09
1.14417e-09
1.14341e-09
1.14264e-09
1.14187e-09
1.14109e-09
1.14032e-09
1.13954e-09
1.13876e-09
1.13797e-09
1.13718e-09
1.13639e-09
1.1356e-09
1.1348e-09
1.13401e-09
1.13321e-09
1.1324e-09
1.1316e-09
1.13079e-09
1.12998e-09
1.12916e-09
1.12835e-09
1.12753e-09
1.12671e-09
1.12589e-09
1.12506e-09
1.12423e-09
1.1234e-09
1.12257e-09
1.12174e-09
1.1209e-09
1.12006e-09
1.11923e-09
1.11839e-09
1.11755e-09
1.11671e-09
1.11587e-09
1.11502e-09
1.11418e-09
1.11333e-09
1.11248e-09
1.11162e-09
1.11077e-09
1.10991e-09
1.10905e-09
1.10819e-09
1.10733e-09
1.10646e-09
1.10559e-09
1.10472e-09
1.10385e-09
1.10296e-09
1.10206e-09
1.10115e-09
1.10023e-09
1.09929e-09
1.09833e-09
1.09735e-09
1.09636e-09
1.09535e-09
1.09432e-09
1.09328e-09
1.09223e-09
1.09118e-09
1.09012e-09
1.08906e-09
1.088e-09
1.08696e-09
1.08593e-09
1.08491e-09
1.08393e-09
1.08297e-09
1.08204e-09
1.08115e-09
1.08029e-09
1.07947e-09
1.07868e-09
1.07793e-09
1.0772e-09
1.0765e-09
1.07581e-09
1.07514e-09
1.07447e-09
1.0738e-09
1.07312e-09
1.07243e-09
1.07173e-09
1.07101e-09
1.07027e-09
1.06951e-09
1.06873e-09
1.06793e-09
1.06711e-09
1.06627e-09
1.06541e-09
1.06455e-09
1.06367e-09
1.06278e-09
1.06189e-09
1.06099e-09
1.06008e-09
1.05918e-09
1.05827e-09
1.05736e-09
1.05646e-09
1.05555e-09
1.05465e-09
1.05374e-09
1.05284e-09
1.05194e-09
1.05104e-09
1.05014e-09
1.04924e-09
1.04834e-09
1.04745e-09
1.04655e-09
1.04565e-09
1.04475e-09
1.04385e-09
1.04295e-09
1.04205e-09
1.04115e-09
1.04024e-09
1.03934e-09
1.03843e-09
1.03752e-09
1.03661e-09
1.0357e-09
1.03479e-09
1.03387e-09
1.03296e-09
1.03204e-09
1.03112e-09
1.0302e-09
1.02927e-09
1.02835e-09
1.02742e-09
1.02649e-09
1.02556e-09
1.02463e-09
1.0237e-09
1.02276e-09
1.02182e-09
1.02088e-09
1.01994e-09
1.019e-09
1.01805e-09
1.0171e-09
1.01615e-09
1.0152e-09
1.01425e-09
1.01329e-09
1.01234e-09
1.01138e-09
1.01042e-09
1.00945e-09
1.00849e-09
1.00752e-09
1.00655e-09
1.00558e-09
1.00461e-09
1.00363e-09
1.00265e-09
1.00167e-09
1.00069e-09
9.99709e-10
9.98723e-10
9.97736e-10
9.96746e-10
9.95754e-10
9.94761e-10
9.93766e-10
9.92769e-10
9.9177e-10
9.9077e-10
9.89768e-10
9.88764e-10
9.87759e-10
9.86752e-10
9.85743e-10
9.84732e-10
9.8372e-10
9.82706e-10
9.8169e-10
9.80673e-10
9.79653e-10
9.78632e-10
9.77609e-10
9.76583e-10
9.75556e-10
9.74527e-10
9.73495e-10
9.7246e-10
9.71423e-10
9.70383e-10
9.69339e-10
9.68291e-10
9.67238e-10
9.66181e-10
9.65118e-10
9.64048e-10
9.62972e-10
9.61889e-10
9.60798e-10
9.597e-10
9.58593e-10
9.57478e-10
9.56355e-10
9.55224e-10
9.54085e-10
9.52938e-10
9.51785e-10
9.50627e-10
9.49463e-10
9.48296e-10
9.47126e-10
9.45955e-10
9.44785e-10
9.43616e-10
9.42451e-10
9.41291e-10
9.40138e-10
9.38994e-10
9.37858e-10
9.36734e-10
9.35622e-10
9.34523e-10
9.33437e-10
9.32365e-10
9.31307e-10
9.30261e-10
9.29229e-10
9.28207e-10
9.27197e-10
9.26194e-10
9.25199e-10
9.24209e-10
9.23222e-10
9.22236e-10
9.2125e-10
9.20261e-10
9.19269e-10
9.1827e-10
9.17265e-10
9.16252e-10
9.1523e-10
9.14199e-10
9.13158e-10
9.12108e-10
9.11048e-10
9.09979e-10
9.089e-10
9.07812e-10
9.06717e-10
9.05613e-10
9.04503e-10
9.03386e-10
9.02264e-10
9.01136e-10
9.00004e-10
8.98867e-10
8.97727e-10
8.96583e-10
8.95437e-10
8.94288e-10
8.93137e-10
8.91984e-10
8.90828e-10
8.89671e-10
8.88512e-10
8.87351e-10
8.86188e-10
8.85024e-10
8.83858e-10
8.82689e-10
8.81519e-10
8.80347e-10
8.79173e-10
8.77996e-10
8.76817e-10
8.75636e-10
8.74453e-10
8.73267e-10
8.72078e-10
8.70886e-10
8.69692e-10
8.68495e-10
8.67295e-10
8.66093e-10
8.64887e-10
8.63679e-10
8.62467e-10
8.61252e-10
8.60034e-10
8.58813e-10
8.57589e-10
8.56361e-10
8.5513e-10
8.53896e-10
8.52658e-10
8.51417e-10
8.50173e-10
8.48925e-10
8.47673e-10
8.46418e-10
8.4516e-10
8.43897e-10
8.42631e-10
8.41362e-10
8.40088e-10
8.38811e-10
8.37529e-10
8.36244e-10
8.34955e-10
8.33662e-10
8.32365e-10
8.31064e-10
8.29759e-10
8.28449e-10
8.27136e-10
8.25818e-10
8.24495e-10
8.23169e-10
8.21838e-10
8.20503e-10
8.19163e-10
8.17819e-10
8.1647e-10
8.15117e-10
8.13759e-10
8.12396e-10
8.11029e-10
8.09658e-10
8.08281e-10
8.069e-10
8.05514e-10
8.04123e-10
8.02727e-10
8.01326e-10
7.99921e-10
7.9851e-10
7.97094e-10
7.95674e-10
7.94248e-10
7.92817e-10
7.91382e-10
7.8994e-10
7.88494e-10
7.87042e-10
7.85585e-10
7.84123e-10
7.82654e-10
7.81181e-10
7.79701e-10
7.78216e-10
7.76725e-10
7.75228e-10
7.73726e-10
7.72216e-10
7.70701e-10
7.69179e-10
7.6765e-10
7.66114e-10
7.64571e-10
7.63021e-10
7.61464e-10
7.59899e-10
7.58326e-10
7.56744e-10
7.55154e-10
7.53556e-10
7.51948e-10
7.50332e-10
7.48706e-10
7.4707e-10
7.45425e-10
7.4377e-10
7.42105e-10
7.4043e-10
7.38744e-10
7.37049e-10
7.35343e-10
7.33628e-10
7.31903e-10
7.30168e-10
7.28423e-10
7.26669e-10
7.24906e-10
7.23135e-10
7.21356e-10
7.19569e-10
7.17774e-10
7.15973e-10
7.14165e-10
7.12351e-10
7.10532e-10
7.08708e-10
7.0688e-10
7.05049e-10
7.03214e-10
7.01376e-10
6.99536e-10
6.97695e-10
6.95853e-10
6.94011e-10
6.92169e-10
6.90327e-10
6.88487e-10
6.8665e-10
6.84816e-10
6.82987e-10
6.81165e-10
6.79351e-10
6.77547e-10
6.75755e-10
6.73979e-10
6.72223e-10
6.70491e-10
6.68788e-10
6.67119e-10
6.65489e-10
6.63905e-10
6.62374e-10
6.60902e-10
6.59498e-10
6.58166e-10
6.56914e-10
6.55744e-10
6.54662e-10
6.53671e-10
6.52772e-10
6.51964e-10
6.51247e-10
6.50615e-10
6.50062e-10
6.49582e-10
6.49165e-10
6.48795e-10
6.48452e-10
6.48102e-10
6.47692e-10
6.47134e-10
6.46276e-10
6.4485e-10
6.42389e-10
6.3809e-10
6.30609e-10
6.17827e-10
5.96754e-10
5.64056e-10
5.17882e-10
4.60824e-10
4.01226e-10
3.49413e-10
3.11444e-10
2.87147e-10
2.72982e-10
2.65182e-10
2.61026e-10
2.58851e-10
2.57724e-10
2.57144e-10
2.56846e-10
2.56695e-10
2.56618e-10
2.56581e-10
2.56563e-10
2.56555e-10
2.56553e-10
2.56554e-10
2.56556e-10
2.56558e-10
2.56561e-10
2.56564e-10
2.56568e-10
2.56571e-10
2.56574e-10
2.56578e-10
2.56581e-10
2.56584e-10
2.56587e-10
2.56591e-10
2.56594e-10
2.56597e-10
2.566e-10
2.56603e-10
2.56606e-10
2.56608e-10
2.56611e-10
2.56614e-10
2.56616e-10
2.56619e-10
2.56621e-10
2.56624e-10
2.56626e-10
2.56628e-10
2.5663e-10
2.56632e-10
2.56634e-10
2.56635e-10
2.56637e-10
2.56638e-10
2.56639e-10
2.5664e-10
2.56641e-10
2.56642e-10
2.56643e-10
2.56643e-10
2.56644e-10
2.56644e-10
2.56644e-10
2.56644e-10
2.56644e-10
2.56644e-10
2.56643e-10
2.56643e-10
2.56642e-10
2.56641e-10
2.5664e-10
2.56639e-10
2.56638e-10
2.56637e-10
2.56636e-10
2.56634e-10
2.56633e-10
2.56631e-10
2.56629e-10
2.56628e-10
2.56626e-10
2.56624e-10
2.56622e-10
2.5662e-10
2.56618e-10
2.56615e-10
2.56613e-10
2.56611e-10
2.56608e-10
2.56606e-10
2.56603e-10
2.56601e-10
2.56598e-10
2.56595e-10
2.56593e-10
2.5659e-10
2.56587e-10
2.56584e-10
2.56581e-10
2.56578e-10
2.56575e-10
2.56572e-10
2.56569e-10
2.56566e-10
2.56562e-10
2.56559e-10
2.56555e-10
2.56552e-10
2.56548e-10
2.56544e-10
2.56539e-10
2.56535e-10
2.5653e-10
2.56525e-10
2.5652e-10
2.56514e-10
2.56509e-10
2.56502e-10
2.56496e-10
2.56489e-10
2.56481e-10
2.56473e-10
2.56465e-10
2.56456e-10
2.56447e-10
2.56437e-10
2.56427e-10
2.56416e-10
2.56404e-10
2.56392e-10
2.5638e-10
2.56367e-10
2.56353e-10
2.56339e-10
2.56325e-10
2.5631e-10
2.56295e-10
2.5628e-10
2.56264e-10
2.56248e-10
2.56232e-10
2.56216e-10
2.562e-10
2.56184e-10
2.56168e-10
2.56153e-10
2.56138e-10
2.56123e-10
2.56109e-10
2.56096e-10
2.56083e-10
2.56072e-10
2.56061e-10
2.56052e-10
2.56043e-10
2.56036e-10
2.5603e-10
2.56025e-10
2.56022e-10
2.5602e-10
2.5602e-10
2.5602e-10
2.5602e-10
2.56022e-10
2.56027e-10
2.56033e-10
2.56041e-10
2.5605e-10
2.5606e-10
2.56071e-10
2.56083e-10
2.56096e-10
2.56109e-10
2.56124e-10
2.56138e-10
2.56153e-10
2.56169e-10
2.56184e-10
2.562e-10
2.56215e-10
2.5623e-10
2.56245e-10
2.5626e-10
2.56274e-10
2.56288e-10
2.56301e-10
2.56314e-10
2.56326e-10
2.56337e-10
2.56348e-10
2.56359e-10
2.56368e-10
2.56377e-10
2.56386e-10
2.56393e-10
2.56401e-10
2.56407e-10
2.56414e-10
2.5642e-10
2.56425e-10
2.5643e-10
2.56435e-10
2.56439e-10
2.56443e-10
2.56447e-10
2.5645e-10
2.56454e-10
2.56457e-10
2.5646e-10
2.56463e-10
2.56466e-10
2.56469e-10
2.56472e-10
2.56475e-10
2.56478e-10
2.5648e-10
2.56483e-10
2.56486e-10
2.56489e-10
2.56492e-10
2.56494e-10
2.56497e-10
2.565e-10
2.56503e-10
2.56507e-10
2.5651e-10
2.56513e-10
2.56516e-10
2.5652e-10
2.56523e-10
2.56527e-10
2.5653e-10
2.56534e-10
2.56538e-10
2.56541e-10
2.56545e-10
2.56548e-10
2.56552e-10
2.56555e-10
2.56559e-10
2.56562e-10
2.56565e-10
2.56568e-10
2.56571e-10
2.56574e-10
2.56577e-10
2.5658e-10
2.56582e-10
2.56585e-10
2.56587e-10
2.56589e-10
2.56591e-10
2.56593e-10
2.56595e-10
2.56597e-10
2.56599e-10
2.566e-10
2.56602e-10
2.56603e-10
2.56604e-10
2.56605e-10
2.56606e-10
2.56607e-10
2.56608e-10
2.56609e-10
2.5661e-10
2.5661e-10
2.56611e-10
2.56611e-10
2.56612e-10
2.56612e-10
2.56612e-10
2.56612e-10
2.56612e-10
2.56612e-10
2.56612e-10
2.56612e-10
2.56612e-10
2.56611e-10
2.56611e-10
2.5661e-10
2.5661e-10
2.56609e-10
2.56608e-10
2.56607e-10
2.56606e-10
2.56605e-10
2.56604e-10
2.56603e-10
2.56602e-10
2.566e-10
2.56599e-10
2.56597e-10
2.56596e-10
2.56594e-10
2.56592e-10
2.56591e-10
2.56589e-10
2.56587e-10
2.56585e-10
2.56583e-10
2.56581e-10
2.56579e-10
2.56576e-10
2.56574e-10
2.56571e-10
2.56569e-10
2.56566e-10
2.56563e-10
2.56561e-10
2.56558e-10
2.56554e-10
2.56551e-10
2.56548e-10
2.56544e-10
2.5654e-10
2.56536e-10
2.56532e-10
2.56527e-10
2.56523e-10
2.56518e-10
2.56512e-10
2.56507e-10
2.56501e-10
2.56494e-10
2.56488e-10
2.56481e-10
2.56473e-10
2.56466e-10
2.56457e-10
2.56449e-10
2.5644e-10
2.5643e-10
2.56421e-10
2.5641e-10
2.56399e-10
2.56388e-10
2.56377e-10
2.56365e-10
2.56353e-10
2.5634e-10
2.56327e-10
2.56314e-10
2.56301e-10
2.56287e-10
2.56273e-10
2.5626e-10
2.56246e-10
2.56232e-10
2.56218e-10
2.56205e-10
2.56191e-10
2.56178e-10
2.56165e-10
2.56153e-10
2.56141e-10
2.5613e-10
2.5612e-10
2.5611e-10
2.56101e-10
2.56092e-10
2.56085e-10
2.56078e-10
2.56073e-10
2.56068e-10
2.56065e-10
2.56063e-10
2.56062e-10
2.56062e-10
2.56061e-10
2.56062e-10
2.56064e-10
2.56069e-10
2.56074e-10
2.56081e-10
2.56088e-10
2.56096e-10
2.56106e-10
2.56116e-10
2.56126e-10
2.56137e-10
2.56149e-10
2.56162e-10
2.56174e-10
2.56187e-10
2.562e-10
2.56213e-10
2.56226e-10
2.5624e-10
2.56253e-10
2.56265e-10
2.56278e-10
2.5629e-10
2.56302e-10
2.56314e-10
2.56325e-10
2.56335e-10
2.56346e-10
2.56355e-10
2.56365e-10
2.56374e-10
2.56382e-10
2.5639e-10
2.56397e-10
2.56404e-10
2.56411e-10
2.56417e-10
2.56423e-10
2.56428e-10
2.56433e-10
2.56438e-10
2.56443e-10
2.56447e-10
2.56451e-10
2.56455e-10
2.56459e-10
2.56463e-10
2.56466e-10
2.5647e-10
2.56473e-10
2.56476e-10
2.56479e-10
2.56483e-10
2.56486e-10
2.56489e-10
2.56492e-10
2.56495e-10
2.56499e-10
2.56502e-10
2.56505e-10
2.56508e-10
2.56511e-10
2.56515e-10
2.56518e-10
2.56521e-10
2.56525e-10
2.56528e-10
2.56531e-10
2.56534e-10
2.56538e-10
2.56541e-10
2.56544e-10
2.56547e-10
2.5655e-10
2.56553e-10
2.56556e-10
2.56559e-10
2.56562e-10
2.56565e-10
2.56568e-10
2.5657e-10
2.56573e-10
)
;

boundaryField
{
    inlet
    {
        type            calculated;
        value           uniform -1.13622e-09;
    }
    outlet
    {
        type            calculated;
        value           uniform 2.56576e-10;
    }
    emptyWalls
    {
        type            empty;
        value           nonuniform List<scalar> 0();
    }
}


// ************************************************************************* //
