/*--------------------------------*- C++ -*----------------------------------*\
  =========                 |
  \\      /  F ield         | OpenFOAM: The Open Source CFD Toolbox
   \\    /   O peration     | Website:  https://openfoam.org
    \\  /    A nd           | Version:  9
     \\/     M anipulation  |
\*---------------------------------------------------------------------------*/
FoamFile
{
    format      ascii;
    class       volVectorField;
    location    "7650";
    object      Uc;
}
// * * * * * * * * * * * * * * * * * * * * * * * * * * * * * * * * * * * * * //

dimensions      [0 0 0 0 0 0 0];

internalField   nonuniform List<vector> 
1000
(
(5.71633e-11 0 0)
(3.15614e-10 0 0)
(8.28013e-10 0 0)
(1.53109e-09 0 0)
(2.35936e-09 0 0)
(3.24851e-09 0 0)
(4.23105e-09 0 0)
(5.9146e-09 0 0)
(1.09985e-08 0 0)
(3.05979e-08 0 0)
(1.09201e-07 0 0)
(1.8921e-07 0 0)
(2.11748e-07 0 0)
(2.20163e-07 0 0)
(2.25247e-07 0 0)
(2.29131e-07 0 0)
(2.3242e-07 0 0)
(2.35337e-07 0 0)
(2.37988e-07 0 0)
(2.40451e-07 0 0)
(2.42802e-07 0 0)
(2.45129e-07 0 0)
(2.47523e-07 0 0)
(2.50151e-07 0 0)
(2.53179e-07 0 0)
(2.56726e-07 0 0)
(2.61039e-07 0 0)
(2.66509e-07 0 0)
(2.73496e-07 0 0)
(2.82093e-07 0 0)
(2.92041e-07 0 0)
(3.02942e-07 0 0)
(3.14488e-07 0 0)
(3.26484e-07 0 0)
(3.38811e-07 0 0)
(3.51393e-07 0 0)
(3.64178e-07 0 0)
(3.77131e-07 0 0)
(3.90228e-07 0 0)
(4.03451e-07 0 0)
(4.16787e-07 0 0)
(4.30225e-07 0 0)
(4.43757e-07 0 0)
(4.57378e-07 0 0)
(4.71082e-07 0 0)
(4.84863e-07 0 0)
(4.98719e-07 0 0)
(5.12645e-07 0 0)
(5.2664e-07 0 0)
(5.407e-07 0 0)
(5.54824e-07 0 0)
(5.69009e-07 0 0)
(5.83253e-07 0 0)
(5.97553e-07 0 0)
(6.11906e-07 0 0)
(6.26309e-07 0 0)
(6.40761e-07 0 0)
(6.55262e-07 0 0)
(6.69811e-07 0 0)
(6.84409e-07 0 0)
(6.99054e-07 0 0)
(7.13746e-07 0 0)
(7.28479e-07 0 0)
(7.43251e-07 0 0)
(7.58055e-07 0 0)
(7.72887e-07 0 0)
(7.87744e-07 0 0)
(8.02625e-07 0 0)
(8.17527e-07 0 0)
(8.32452e-07 0 0)
(8.47401e-07 0 0)
(8.62377e-07 0 0)
(8.77383e-07 0 0)
(8.92424e-07 0 0)
(9.07503e-07 0 0)
(9.22626e-07 0 0)
(9.37799e-07 0 0)
(9.5303e-07 0 0)
(9.68326e-07 0 0)
(9.83694e-07 0 0)
(9.99141e-07 0 0)
(1.01467e-06 0 0)
(1.03029e-06 0 0)
(1.046e-06 0 0)
(1.06179e-06 0 0)
(1.07766e-06 0 0)
(1.0936e-06 0 0)
(1.1096e-06 0 0)
(1.12565e-06 0 0)
(1.14174e-06 0 0)
(1.15787e-06 0 0)
(1.17401e-06 0 0)
(1.19016e-06 0 0)
(1.20632e-06 0 0)
(1.22249e-06 0 0)
(1.23866e-06 0 0)
(1.25483e-06 0 0)
(1.27101e-06 0 0)
(1.28719e-06 0 0)
(1.3034e-06 0 0)
(1.31962e-06 0 0)
(1.33586e-06 0 0)
(1.35213e-06 0 0)
(1.36843e-06 0 0)
(1.38476e-06 0 0)
(1.40114e-06 0 0)
(1.41755e-06 0 0)
(1.43401e-06 0 0)
(1.45051e-06 0 0)
(1.46705e-06 0 0)
(1.48364e-06 0 0)
(1.50027e-06 0 0)
(1.51695e-06 0 0)
(1.53367e-06 0 0)
(1.55043e-06 0 0)
(1.56723e-06 0 0)
(1.58407e-06 0 0)
(1.60095e-06 0 0)
(1.61788e-06 0 0)
(1.63484e-06 0 0)
(1.65184e-06 0 0)
(1.66888e-06 0 0)
(1.68596e-06 0 0)
(1.70308e-06 0 0)
(1.72023e-06 0 0)
(1.73743e-06 0 0)
(1.75466e-06 0 0)
(1.77193e-06 0 0)
(1.78924e-06 0 0)
(1.8066e-06 0 0)
(1.82399e-06 0 0)
(1.84142e-06 0 0)
(1.85889e-06 0 0)
(1.8764e-06 0 0)
(1.89395e-06 0 0)
(1.91155e-06 0 0)
(1.92918e-06 0 0)
(1.94686e-06 0 0)
(1.96457e-06 0 0)
(1.98233e-06 0 0)
(2.00013e-06 0 0)
(2.01798e-06 0 0)
(2.03586e-06 0 0)
(2.05379e-06 0 0)
(2.07176e-06 0 0)
(2.08978e-06 0 0)
(2.10783e-06 0 0)
(2.12593e-06 0 0)
(2.14408e-06 0 0)
(2.16226e-06 0 0)
(2.18049e-06 0 0)
(2.19877e-06 0 0)
(2.21709e-06 0 0)
(2.23545e-06 0 0)
(2.25386e-06 0 0)
(2.27231e-06 0 0)
(2.29081e-06 0 0)
(2.30935e-06 0 0)
(2.32794e-06 0 0)
(2.34658e-06 0 0)
(2.36526e-06 0 0)
(2.38398e-06 0 0)
(2.40276e-06 0 0)
(2.42158e-06 0 0)
(2.44045e-06 0 0)
(2.45937e-06 0 0)
(2.47834e-06 0 0)
(2.49735e-06 0 0)
(2.51642e-06 0 0)
(2.53554e-06 0 0)
(2.55471e-06 0 0)
(2.57393e-06 0 0)
(2.5932e-06 0 0)
(2.61253e-06 0 0)
(2.63191e-06 0 0)
(2.65134e-06 0 0)
(2.67083e-06 0 0)
(2.69038e-06 0 0)
(2.70997e-06 0 0)
(2.72963e-06 0 0)
(2.74934e-06 0 0)
(2.76911e-06 0 0)
(2.78894e-06 0 0)
(2.80883e-06 0 0)
(2.82878e-06 0 0)
(2.84879e-06 0 0)
(2.86886e-06 0 0)
(2.88899e-06 0 0)
(2.90919e-06 0 0)
(2.92945e-06 0 0)
(2.94977e-06 0 0)
(2.97015e-06 0 0)
(2.99061e-06 0 0)
(3.01112e-06 0 0)
(3.03171e-06 0 0)
(3.05236e-06 0 0)
(3.07308e-06 0 0)
(3.09387e-06 0 0)
(3.11472e-06 0 0)
(3.13565e-06 0 0)
(3.15665e-06 0 0)
(3.17771e-06 0 0)
(3.19885e-06 0 0)
(3.22006e-06 0 0)
(3.24135e-06 0 0)
(3.2627e-06 0 0)
(3.28414e-06 0 0)
(3.30564e-06 0 0)
(3.32722e-06 0 0)
(3.34887e-06 0 0)
(3.3706e-06 0 0)
(3.3924e-06 0 0)
(3.41428e-06 0 0)
(3.43622e-06 0 0)
(3.45824e-06 0 0)
(3.48033e-06 0 0)
(3.50249e-06 0 0)
(3.52471e-06 0 0)
(3.547e-06 0 0)
(3.56937e-06 0 0)
(3.5918e-06 0 0)
(3.6143e-06 0 0)
(3.63687e-06 0 0)
(3.65952e-06 0 0)
(3.68224e-06 0 0)
(3.70505e-06 0 0)
(3.72794e-06 0 0)
(3.75092e-06 0 0)
(3.77399e-06 0 0)
(3.79718e-06 0 0)
(3.82047e-06 0 0)
(3.84389e-06 0 0)
(3.86744e-06 0 0)
(3.89112e-06 0 0)
(3.91496e-06 0 0)
(3.93896e-06 0 0)
(3.96313e-06 0 0)
(3.98748e-06 0 0)
(4.01202e-06 0 0)
(4.03676e-06 0 0)
(4.06171e-06 0 0)
(4.08686e-06 0 0)
(4.11223e-06 0 0)
(4.13782e-06 0 0)
(4.16362e-06 0 0)
(4.18964e-06 0 0)
(4.21588e-06 0 0)
(4.24232e-06 0 0)
(4.26897e-06 0 0)
(4.29582e-06 0 0)
(4.32286e-06 0 0)
(4.35008e-06 0 0)
(4.37748e-06 0 0)
(4.40506e-06 0 0)
(4.43279e-06 0 0)
(4.46068e-06 0 0)
(4.48873e-06 0 0)
(4.51694e-06 0 0)
(4.54529e-06 0 0)
(4.5738e-06 0 0)
(4.60247e-06 0 0)
(4.6313e-06 0 0)
(4.6603e-06 0 0)
(4.68946e-06 0 0)
(4.7188e-06 0 0)
(4.74832e-06 0 0)
(4.77803e-06 0 0)
(4.80794e-06 0 0)
(4.83806e-06 0 0)
(4.8684e-06 0 0)
(4.89895e-06 0 0)
(4.92973e-06 0 0)
(4.96074e-06 0 0)
(4.99197e-06 0 0)
(5.02344e-06 0 0)
(5.05513e-06 0 0)
(5.08705e-06 0 0)
(5.11918e-06 0 0)
(5.1515e-06 0 0)
(5.18398e-06 0 0)
(5.21659e-06 0 0)
(5.24928e-06 0 0)
(5.28199e-06 0 0)
(5.31465e-06 0 0)
(5.34716e-06 0 0)
(5.3794e-06 0 0)
(5.41121e-06 0 0)
(5.44244e-06 0 0)
(5.4729e-06 0 0)
(5.5024e-06 0 0)
(5.53072e-06 0 0)
(5.55766e-06 0 0)
(5.58305e-06 0 0)
(5.60675e-06 0 0)
(5.62874e-06 0 0)
(5.64911e-06 0 0)
(5.66825e-06 0 0)
(5.68692e-06 0 0)
(5.70655e-06 0 0)
(5.72972e-06 0 0)
(5.76094e-06 0 0)
(5.80796e-06 0 0)
(5.88372e-06 0 0)
(6.00849e-06 0 0)
(6.21092e-06 0 0)
(6.52339e-06 0 0)
(6.96593e-06 0 0)
(7.51991e-06 0 0)
(8.11387e-06 0 0)
(8.65063e-06 0 0)
(9.06166e-06 0 0)
(9.33522e-06 0 0)
(9.4994e-06 0 0)
(9.59151e-06 0 0)
(9.64118e-06 0 0)
(9.6674e-06 0 0)
(9.6811e-06 0 0)
(9.68826e-06 0 0)
(9.69202e-06 0 0)
(9.69403e-06 0 0)
(9.69514e-06 0 0)
(9.69578e-06 0 0)
(9.69618e-06 0 0)
(9.69645e-06 0 0)
(9.69666e-06 0 0)
(9.69684e-06 0 0)
(9.697e-06 0 0)
(9.69714e-06 0 0)
(9.69728e-06 0 0)
(9.69741e-06 0 0)
(9.69753e-06 0 0)
(9.69765e-06 0 0)
(9.69777e-06 0 0)
(9.69788e-06 0 0)
(9.69798e-06 0 0)
(9.69808e-06 0 0)
(9.69817e-06 0 0)
(9.69825e-06 0 0)
(9.69833e-06 0 0)
(9.6984e-06 0 0)
(9.69846e-06 0 0)
(9.69852e-06 0 0)
(9.69856e-06 0 0)
(9.6986e-06 0 0)
(9.69863e-06 0 0)
(9.69865e-06 0 0)
(9.69865e-06 0 0)
(9.69866e-06 0 0)
(9.69866e-06 0 0)
(9.69865e-06 0 0)
(9.69863e-06 0 0)
(9.6986e-06 0 0)
(9.69856e-06 0 0)
(9.69851e-06 0 0)
(9.69845e-06 0 0)
(9.69839e-06 0 0)
(9.69832e-06 0 0)
(9.69824e-06 0 0)
(9.69816e-06 0 0)
(9.69807e-06 0 0)
(9.69797e-06 0 0)
(9.69787e-06 0 0)
(9.69777e-06 0 0)
(9.69765e-06 0 0)
(9.69754e-06 0 0)
(9.69742e-06 0 0)
(9.6973e-06 0 0)
(9.69717e-06 0 0)
(9.69705e-06 0 0)
(9.69692e-06 0 0)
(9.69678e-06 0 0)
(9.69665e-06 0 0)
(9.69652e-06 0 0)
(9.69638e-06 0 0)
(9.69624e-06 0 0)
(9.69611e-06 0 0)
(9.69597e-06 0 0)
(9.69583e-06 0 0)
(9.69569e-06 0 0)
(9.69555e-06 0 0)
(9.69541e-06 0 0)
(9.69527e-06 0 0)
(9.69512e-06 0 0)
(9.69498e-06 0 0)
(9.69484e-06 0 0)
(9.69469e-06 0 0)
(9.69455e-06 0 0)
(9.6944e-06 0 0)
(9.69425e-06 0 0)
(9.6941e-06 0 0)
(9.69394e-06 0 0)
(9.69378e-06 0 0)
(9.69362e-06 0 0)
(9.69345e-06 0 0)
(9.69328e-06 0 0)
(9.6931e-06 0 0)
(9.69291e-06 0 0)
(9.69272e-06 0 0)
(9.69252e-06 0 0)
(9.69231e-06 0 0)
(9.69209e-06 0 0)
(9.69185e-06 0 0)
(9.69161e-06 0 0)
(9.69134e-06 0 0)
(9.69107e-06 0 0)
(9.69077e-06 0 0)
(9.69046e-06 0 0)
(9.69012e-06 0 0)
(9.68976e-06 0 0)
(9.68937e-06 0 0)
(9.68896e-06 0 0)
(9.68852e-06 0 0)
(9.68805e-06 0 0)
(9.68755e-06 0 0)
(9.68702e-06 0 0)
(9.68645e-06 0 0)
(9.68586e-06 0 0)
(9.68523e-06 0 0)
(9.68457e-06 0 0)
(9.68388e-06 0 0)
(9.68316e-06 0 0)
(9.68241e-06 0 0)
(9.68164e-06 0 0)
(9.68084e-06 0 0)
(9.68003e-06 0 0)
(9.67921e-06 0 0)
(9.67838e-06 0 0)
(9.67755e-06 0 0)
(9.67673e-06 0 0)
(9.67591e-06 0 0)
(9.67512e-06 0 0)
(9.67435e-06 0 0)
(9.67361e-06 0 0)
(9.67292e-06 0 0)
(9.67228e-06 0 0)
(9.6717e-06 0 0)
(9.67118e-06 0 0)
(9.67074e-06 0 0)
(9.67038e-06 0 0)
(9.67011e-06 0 0)
(9.66993e-06 0 0)
(9.66984e-06 0 0)
(9.66981e-06 0 0)
(9.66982e-06 0 0)
(9.66987e-06 0 0)
(9.6701e-06 0 0)
(9.67051e-06 0 0)
(9.671e-06 0 0)
(9.67158e-06 0 0)
(9.67224e-06 0 0)
(9.67297e-06 0 0)
(9.67376e-06 0 0)
(9.67461e-06 0 0)
(9.6755e-06 0 0)
(9.67642e-06 0 0)
(9.67737e-06 0 0)
(9.67832e-06 0 0)
(9.67927e-06 0 0)
(9.68022e-06 0 0)
(9.68114e-06 0 0)
(9.68203e-06 0 0)
(9.68289e-06 0 0)
(9.6837e-06 0 0)
(9.68447e-06 0 0)
(9.68518e-06 0 0)
(9.68583e-06 0 0)
(9.68643e-06 0 0)
(9.68697e-06 0 0)
(9.68745e-06 0 0)
(9.68787e-06 0 0)
(9.68824e-06 0 0)
(9.68856e-06 0 0)
(9.68882e-06 0 0)
(9.68905e-06 0 0)
(9.68923e-06 0 0)
(9.68937e-06 0 0)
(9.68948e-06 0 0)
(9.68957e-06 0 0)
(9.68963e-06 0 0)
(9.68967e-06 0 0)
(9.6897e-06 0 0)
(9.68971e-06 0 0)
(9.68972e-06 0 0)
(9.68972e-06 0 0)
(9.68972e-06 0 0)
(9.68972e-06 0 0)
(9.68972e-06 0 0)
(9.68972e-06 0 0)
(9.68972e-06 0 0)
(9.68973e-06 0 0)
(9.68976e-06 0 0)
(9.68979e-06 0 0)
(9.68984e-06 0 0)
(9.6899e-06 0 0)
(9.68998e-06 0 0)
(9.69006e-06 0 0)
(9.69016e-06 0 0)
(9.69027e-06 0 0)
(9.69039e-06 0 0)
(9.69051e-06 0 0)
(9.69065e-06 0 0)
(9.6908e-06 0 0)
(9.69095e-06 0 0)
(9.69111e-06 0 0)
(9.69128e-06 0 0)
(9.69145e-06 0 0)
(9.69163e-06 0 0)
(9.69181e-06 0 0)
(9.692e-06 0 0)
(9.69218e-06 0 0)
(9.69237e-06 0 0)
(9.69256e-06 0 0)
(9.69275e-06 0 0)
(9.69294e-06 0 0)
(9.69312e-06 0 0)
(9.69331e-06 0 0)
(9.69349e-06 0 0)
(9.69368e-06 0 0)
(9.69386e-06 0 0)
(9.69403e-06 0 0)
(9.69421e-06 0 0)
(9.69437e-06 0 0)
(9.69454e-06 0 0)
(9.6947e-06 0 0)
(9.69486e-06 0 0)
(9.69501e-06 0 0)
(9.69516e-06 0 0)
(9.6953e-06 0 0)
(9.69544e-06 0 0)
(9.69558e-06 0 0)
(9.69571e-06 0 0)
(9.69583e-06 0 0)
(9.69595e-06 0 0)
(9.69607e-06 0 0)
(9.69619e-06 0 0)
(9.69629e-06 0 0)
(9.6964e-06 0 0)
(9.6965e-06 0 0)
(9.6966e-06 0 0)
(9.69669e-06 0 0)
(9.69678e-06 0 0)
(9.69687e-06 0 0)
(9.69695e-06 0 0)
(9.69703e-06 0 0)
(9.6971e-06 0 0)
(9.69718e-06 0 0)
(9.69724e-06 0 0)
(9.69731e-06 0 0)
(9.69737e-06 0 0)
(9.69742e-06 0 0)
(9.69748e-06 0 0)
(9.69752e-06 0 0)
(9.69756e-06 0 0)
(9.6976e-06 0 0)
(9.69763e-06 0 0)
(9.69765e-06 0 0)
(9.69767e-06 0 0)
(9.69769e-06 0 0)
(9.6977e-06 0 0)
(9.6977e-06 0 0)
(9.6977e-06 0 0)
(9.6977e-06 0 0)
(9.69769e-06 0 0)
(9.69768e-06 0 0)
(9.69766e-06 0 0)
(9.69763e-06 0 0)
(9.69759e-06 0 0)
(9.69755e-06 0 0)
(9.6975e-06 0 0)
(9.69745e-06 0 0)
(9.69739e-06 0 0)
(9.69733e-06 0 0)
(9.69726e-06 0 0)
(9.69719e-06 0 0)
(9.69711e-06 0 0)
(9.69703e-06 0 0)
(9.69694e-06 0 0)
(9.69685e-06 0 0)
(9.69675e-06 0 0)
(9.69665e-06 0 0)
(9.69654e-06 0 0)
(9.69643e-06 0 0)
(9.69632e-06 0 0)
(9.6962e-06 0 0)
(9.69608e-06 0 0)
(9.69596e-06 0 0)
(9.69583e-06 0 0)
(9.6957e-06 0 0)
(9.69557e-06 0 0)
(9.69544e-06 0 0)
(9.6953e-06 0 0)
(9.69516e-06 0 0)
(9.69502e-06 0 0)
(9.69488e-06 0 0)
(9.69474e-06 0 0)
(9.69459e-06 0 0)
(9.69444e-06 0 0)
(9.69429e-06 0 0)
(9.69413e-06 0 0)
(9.69398e-06 0 0)
(9.69381e-06 0 0)
(9.69365e-06 0 0)
(9.69348e-06 0 0)
(9.6933e-06 0 0)
(9.69312e-06 0 0)
(9.69294e-06 0 0)
(9.69274e-06 0 0)
(9.69254e-06 0 0)
(9.69233e-06 0 0)
(9.69211e-06 0 0)
(9.69188e-06 0 0)
(9.69163e-06 0 0)
(9.69138e-06 0 0)
(9.69111e-06 0 0)
(9.69082e-06 0 0)
(9.69052e-06 0 0)
(9.6902e-06 0 0)
(9.68986e-06 0 0)
(9.6895e-06 0 0)
(9.68912e-06 0 0)
(9.68871e-06 0 0)
(9.68829e-06 0 0)
(9.68784e-06 0 0)
(9.68737e-06 0 0)
(9.68688e-06 0 0)
(9.68636e-06 0 0)
(9.68582e-06 0 0)
(9.68526e-06 0 0)
(9.68468e-06 0 0)
(9.68408e-06 0 0)
(9.68346e-06 0 0)
(9.68283e-06 0 0)
(9.68218e-06 0 0)
(9.68152e-06 0 0)
(9.68086e-06 0 0)
(9.68019e-06 0 0)
(9.67952e-06 0 0)
(9.67886e-06 0 0)
(9.67821e-06 0 0)
(9.67757e-06 0 0)
(9.67695e-06 0 0)
(9.67636e-06 0 0)
(9.67579e-06 0 0)
(9.67526e-06 0 0)
(9.67477e-06 0 0)
(9.67432e-06 0 0)
(9.67392e-06 0 0)
(9.67357e-06 0 0)
(9.67329e-06 0 0)
(9.67306e-06 0 0)
(9.67291e-06 0 0)
(9.67282e-06 0 0)
(9.67279e-06 0 0)
(9.67279e-06 0 0)
(9.67281e-06 0 0)
(9.67293e-06 0 0)
(9.67318e-06 0 0)
(9.67351e-06 0 0)
(9.67391e-06 0 0)
(9.67437e-06 0 0)
(9.67489e-06 0 0)
(9.67547e-06 0 0)
(9.67609e-06 0 0)
(9.67675e-06 0 0)
(9.67745e-06 0 0)
(9.67817e-06 0 0)
(9.67891e-06 0 0)
(9.67965e-06 0 0)
(9.68041e-06 0 0)
(9.68116e-06 0 0)
(9.68189e-06 0 0)
(9.68261e-06 0 0)
(9.68331e-06 0 0)
(9.68398e-06 0 0)
(9.68462e-06 0 0)
(9.68523e-06 0 0)
(9.68579e-06 0 0)
(9.68632e-06 0 0)
(9.6868e-06 0 0)
(9.68725e-06 0 0)
(9.68765e-06 0 0)
(9.68801e-06 0 0)
(9.68833e-06 0 0)
(9.68862e-06 0 0)
(9.68886e-06 0 0)
(9.68908e-06 0 0)
(9.68926e-06 0 0)
(9.68941e-06 0 0)
(9.68953e-06 0 0)
(9.68964e-06 0 0)
(9.68972e-06 0 0)
(9.68979e-06 0 0)
(9.68984e-06 0 0)
(9.68988e-06 0 0)
(9.68991e-06 0 0)
(9.68993e-06 0 0)
(9.68995e-06 0 0)
(9.68996e-06 0 0)
(9.68998e-06 0 0)
(9.68999e-06 0 0)
(9.69001e-06 0 0)
(9.69003e-06 0 0)
(9.69006e-06 0 0)
(9.6901e-06 0 0)
(9.69014e-06 0 0)
(9.69019e-06 0 0)
(9.69025e-06 0 0)
(9.69032e-06 0 0)
(9.69041e-06 0 0)
(9.6905e-06 0 0)
(9.6906e-06 0 0)
(9.69071e-06 0 0)
(9.69083e-06 0 0)
(9.69095e-06 0 0)
(9.69109e-06 0 0)
(9.69123e-06 0 0)
(9.69139e-06 0 0)
(9.69154e-06 0 0)
(9.69171e-06 0 0)
(9.69188e-06 0 0)
(9.69205e-06 0 0)
(9.69223e-06 0 0)
(9.69241e-06 0 0)
(9.69259e-06 0 0)
(9.69278e-06 0 0)
(9.69297e-06 0 0)
(9.69316e-06 0 0)
(9.69335e-06 0 0)
(9.69354e-06 0 0)
(9.69372e-06 0 0)
(9.69391e-06 0 0)
(9.6941e-06 0 0)
(9.69428e-06 0 0)
(9.69446e-06 0 0)
(9.69464e-06 0 0)
(9.69481e-06 0 0)
(9.69498e-06 0 0)
(9.69515e-06 0 0)
(9.69531e-06 0 0)
(9.69547e-06 0 0)
(9.69563e-06 0 0)
(9.69578e-06 0 0)
(9.69593e-06 0 0)
(9.69607e-06 0 0)
(9.6962e-06 0 0)
(9.69634e-06 0 0)
(9.69646e-06 0 0)
(9.69659e-06 0 0)
(9.6967e-06 0 0)
(9.69682e-06 0 0)
(9.69693e-06 0 0)
(9.69703e-06 0 0)
(9.69713e-06 0 0)
(9.69723e-06 0 0)
(9.69732e-06 0 0)
(9.6974e-06 0 0)
(9.69749e-06 0 0)
(9.69756e-06 0 0)
(9.69764e-06 0 0)
(9.69771e-06 0 0)
(9.69778e-06 0 0)
(9.69784e-06 0 0)
(9.6979e-06 0 0)
(9.69796e-06 0 0)
(9.69801e-06 0 0)
(9.69806e-06 0 0)
(9.69811e-06 0 0)
(9.69815e-06 0 0)
(9.69819e-06 0 0)
(9.69823e-06 0 0)
(9.69826e-06 0 0)
(9.69829e-06 0 0)
(9.69831e-06 0 0)
(9.69833e-06 0 0)
(9.69835e-06 0 0)
(9.69836e-06 0 0)
(9.69836e-06 0 0)
(9.69837e-06 0 0)
(9.69837e-06 0 0)
(9.69837e-06 0 0)
(9.69836e-06 0 0)
(9.69835e-06 0 0)
(9.69833e-06 0 0)
(9.6983e-06 0 0)
(9.69827e-06 0 0)
(9.69823e-06 0 0)
(9.69819e-06 0 0)
(9.69814e-06 0 0)
(9.69808e-06 0 0)
(9.69802e-06 0 0)
(9.69796e-06 0 0)
(9.69788e-06 0 0)
(9.69781e-06 0 0)
(9.69772e-06 0 0)
(9.69763e-06 0 0)
(9.69753e-06 0 0)
(9.69743e-06 0 0)
(9.69732e-06 0 0)
(9.69721e-06 0 0)
(9.69709e-06 0 0)
(9.69697e-06 0 0)
(9.69683e-06 0 0)
(9.6967e-06 0 0)
(9.69655e-06 0 0)
(9.69641e-06 0 0)
(9.69625e-06 0 0)
(9.69609e-06 0 0)
(9.69593e-06 0 0)
(9.69575e-06 0 0)
(9.69557e-06 0 0)
(9.69539e-06 0 0)
(9.69519e-06 0 0)
(9.69499e-06 0 0)
(9.69479e-06 0 0)
(9.69457e-06 0 0)
(9.69435e-06 0 0)
(9.69411e-06 0 0)
(9.69387e-06 0 0)
(9.69362e-06 0 0)
(9.69335e-06 0 0)
(9.69308e-06 0 0)
(9.69279e-06 0 0)
(9.69249e-06 0 0)
(9.69218e-06 0 0)
(9.69185e-06 0 0)
(9.69151e-06 0 0)
(9.69115e-06 0 0)
(9.69078e-06 0 0)
(9.69039e-06 0 0)
(9.68998e-06 0 0)
(9.68956e-06 0 0)
(9.68912e-06 0 0)
(9.68866e-06 0 0)
(9.68819e-06 0 0)
(9.68769e-06 0 0)
(9.68719e-06 0 0)
(9.68666e-06 0 0)
(9.68612e-06 0 0)
(9.68556e-06 0 0)
(9.68499e-06 0 0)
(9.68441e-06 0 0)
(9.68382e-06 0 0)
(9.68322e-06 0 0)
(9.68261e-06 0 0)
(9.682e-06 0 0)
(9.68139e-06 0 0)
(9.68077e-06 0 0)
(9.68016e-06 0 0)
(9.67955e-06 0 0)
(9.67896e-06 0 0)
(9.67838e-06 0 0)
(9.67781e-06 0 0)
(9.67726e-06 0 0)
(9.67674e-06 0 0)
(9.67625e-06 0 0)
(9.67578e-06 0 0)
(9.67535e-06 0 0)
(9.67496e-06 0 0)
(9.67461e-06 0 0)
(9.6743e-06 0 0)
(9.67404e-06 0 0)
(9.67383e-06 0 0)
(9.67367e-06 0 0)
(9.67356e-06 0 0)
(9.67351e-06 0 0)
(9.6735e-06 0 0)
(9.6735e-06 0 0)
(9.67353e-06 0 0)
(9.67366e-06 0 0)
(9.67389e-06 0 0)
(9.67417e-06 0 0)
(9.67449e-06 0 0)
(9.67487e-06 0 0)
(9.67529e-06 0 0)
(9.67575e-06 0 0)
(9.67625e-06 0 0)
(9.67677e-06 0 0)
(9.67733e-06 0 0)
(9.6779e-06 0 0)
(9.67849e-06 0 0)
(9.67909e-06 0 0)
(9.6797e-06 0 0)
(9.6803e-06 0 0)
(9.68091e-06 0 0)
(9.6815e-06 0 0)
(9.68208e-06 0 0)
(9.68265e-06 0 0)
(9.68319e-06 0 0)
(9.68372e-06 0 0)
(9.68422e-06 0 0)
(9.68469e-06 0 0)
(9.68513e-06 0 0)
(9.68555e-06 0 0)
(9.68594e-06 0 0)
(9.6863e-06 0 0)
(9.68663e-06 0 0)
(9.68693e-06 0 0)
(9.6872e-06 0 0)
(9.68745e-06 0 0)
(9.68767e-06 0 0)
(9.68787e-06 0 0)
(9.68805e-06 0 0)
(9.68821e-06 0 0)
(9.68835e-06 0 0)
(9.68847e-06 0 0)
(9.68858e-06 0 0)
(9.68868e-06 0 0)
(9.68877e-06 0 0)
(9.68885e-06 0 0)
(9.68892e-06 0 0)
(9.68899e-06 0 0)
(9.68906e-06 0 0)
(9.68912e-06 0 0)
(9.68918e-06 0 0)
(9.68924e-06 0 0)
(9.68931e-06 0 0)
(9.68937e-06 0 0)
(9.68945e-06 0 0)
(9.68952e-06 0 0)
(9.6896e-06 0 0)
(9.68969e-06 0 0)
(9.68978e-06 0 0)
(9.68987e-06 0 0)
(9.68998e-06 0 0)
(9.69009e-06 0 0)
(9.6902e-06 0 0)
(9.69033e-06 0 0)
(9.69046e-06 0 0)
(9.69059e-06 0 0)
(9.69073e-06 0 0)
(9.69088e-06 0 0)
(9.69103e-06 0 0)
(9.69119e-06 0 0)
(9.69135e-06 0 0)
(9.69152e-06 0 0)
(9.69169e-06 0 0)
(9.69186e-06 0 0)
(9.69204e-06 0 0)
(9.69222e-06 0 0)
(9.6924e-06 0 0)
(9.69259e-06 0 0)
(9.69278e-06 0 0)
(9.69296e-06 0 0)
(9.69315e-06 0 0)
(9.69334e-06 0 0)
(9.69353e-06 0 0)
(9.69371e-06 0 0)
(9.6939e-06 0 0)
(9.69408e-06 0 0)
(9.69427e-06 0 0)
(9.69445e-06 0 0)
(9.69462e-06 0 0)
(9.6948e-06 0 0)
(9.69497e-06 0 0)
(9.69514e-06 0 0)
(9.6953e-06 0 0)
(9.69546e-06 0 0)
(9.69562e-06 0 0)
(9.69577e-06 0 0)
(9.69591e-06 0 0)
(9.69606e-06 0 0)
(9.69619e-06 0 0)
(9.69632e-06 0 0)
(9.69645e-06 0 0)
(9.69657e-06 0 0)
(9.69668e-06 0 0)
(9.69679e-06 0 0)
(9.6969e-06 0 0)
(9.697e-06 0 0)
(9.69709e-06 0 0)
(9.69718e-06 0 0)
(9.69726e-06 0 0)
(9.69734e-06 0 0)
(9.69741e-06 0 0)
(9.69748e-06 0 0)
(9.69754e-06 0 0)
(9.6976e-06 0 0)
(9.69765e-06 0 0)
(9.6977e-06 0 0)
(9.69774e-06 0 0)
(9.69778e-06 0 0)
(9.69781e-06 0 0)
(9.69784e-06 0 0)
(9.69787e-06 0 0)
(9.69789e-06 0 0)
(9.69791e-06 0 0)
(9.69792e-06 0 0)
(9.69793e-06 0 0)
(9.69794e-06 0 0)
(9.69794e-06 0 0)
(9.69794e-06 0 0)
(9.69794e-06 0 0)
(9.69793e-06 0 0)
(9.69792e-06 0 0)
(9.69791e-06 0 0)
(9.69789e-06 0 0)
(9.69786e-06 0 0)
(9.69783e-06 0 0)
(9.6978e-06 0 0)
(9.69776e-06 0 0)
)
;

boundaryField
{
    inlet
    {
        type            fixedValue;
        value           uniform (0 0 0);
    }
    outlet
    {
        type            zeroGradient;
    }
    emptyWalls
    {
        type            empty;
    }
}


// ************************************************************************* //
