/*--------------------------------*- C++ -*----------------------------------*\
  =========                 |
  \\      /  F ield         | OpenFOAM: The Open Source CFD Toolbox
   \\    /   O peration     | Website:  https://openfoam.org
    \\  /    A nd           | Version:  9
     \\/     M anipulation  |
\*---------------------------------------------------------------------------*/
FoamFile
{
    format      ascii;
    class       surfaceScalarField;
    location    "18250";
    object      phic;
}
// * * * * * * * * * * * * * * * * * * * * * * * * * * * * * * * * * * * * * //

dimensions      [0 2 0 0 0 0 0];

internalField   nonuniform List<scalar> 
999
(
1.62539e-15
6.94663e-15
1.69171e-14
3.12279e-14
4.97699e-14
7.25075e-14
9.93985e-14
1.30344e-13
1.65208e-13
2.03664e-13
2.45306e-13
2.89476e-13
3.3535e-13
3.81916e-13
4.28051e-13
4.72627e-13
5.14641e-13
5.53338e-13
5.88343e-13
6.19945e-13
6.50831e-13
6.93927e-13
8.11037e-13
1.24083e-12
2.98305e-12
1.25476e-11
1.97389e-11
2.1072e-11
2.16209e-11
2.19417e-11
2.21717e-11
2.23584e-11
2.2522e-11
2.26716e-11
2.28117e-11
2.29446e-11
2.30719e-11
2.31944e-11
2.33129e-11
2.34278e-11
2.35395e-11
2.36485e-11
2.37553e-11
2.38602e-11
2.39635e-11
2.40656e-11
2.4167e-11
2.42679e-11
2.43687e-11
2.44698e-11
2.45715e-11
2.46742e-11
2.47784e-11
2.48848e-11
2.49963e-11
2.511e-11
2.52265e-11
2.53461e-11
2.54692e-11
2.55965e-11
2.57286e-11
2.58667e-11
2.60121e-11
2.6167e-11
2.63343e-11
2.6518e-11
2.67239e-11
2.6959e-11
2.72308e-11
2.75459e-11
2.79063e-11
2.83085e-11
2.87439e-11
2.92037e-11
2.96814e-11
3.01726e-11
3.06744e-11
3.11845e-11
3.17013e-11
3.22238e-11
3.27511e-11
3.32826e-11
3.38178e-11
3.43562e-11
3.48975e-11
3.54414e-11
3.59877e-11
3.65363e-11
3.7087e-11
3.76397e-11
3.81943e-11
3.87509e-11
3.93093e-11
3.98694e-11
4.04314e-11
4.0995e-11
4.15601e-11
4.21266e-11
4.26941e-11
4.32624e-11
4.38312e-11
4.44002e-11
4.49694e-11
4.55388e-11
4.61085e-11
4.66786e-11
4.72494e-11
4.78209e-11
4.83933e-11
4.89669e-11
4.95417e-11
5.01181e-11
5.06963e-11
5.12766e-11
5.18593e-11
5.24446e-11
5.3033e-11
5.36244e-11
5.42189e-11
5.48166e-11
5.54171e-11
5.60202e-11
5.66255e-11
5.72326e-11
5.7841e-11
5.84505e-11
5.90604e-11
5.96707e-11
6.0281e-11
6.08911e-11
6.1501e-11
6.21106e-11
6.27201e-11
6.33294e-11
6.39387e-11
6.45482e-11
6.5158e-11
6.57682e-11
6.6379e-11
6.69906e-11
6.76029e-11
6.82162e-11
6.88304e-11
6.94457e-11
7.0062e-11
7.06793e-11
7.12977e-11
7.19171e-11
7.25376e-11
7.3159e-11
7.37814e-11
7.44047e-11
7.50289e-11
7.5654e-11
7.628e-11
7.69068e-11
7.75343e-11
7.81627e-11
7.87918e-11
7.94217e-11
8.00523e-11
8.06837e-11
8.13158e-11
8.19486e-11
8.25821e-11
8.32163e-11
8.38512e-11
8.44868e-11
8.51231e-11
8.57601e-11
8.63977e-11
8.7036e-11
8.76749e-11
8.83145e-11
8.89548e-11
8.95957e-11
9.02373e-11
9.08795e-11
9.15223e-11
9.21658e-11
9.28099e-11
9.34546e-11
9.40999e-11
9.47459e-11
9.53924e-11
9.60396e-11
9.66874e-11
9.73358e-11
9.79848e-11
9.86344e-11
9.92846e-11
9.99353e-11
1.00587e-10
1.01239e-10
1.01891e-10
1.02544e-10
1.03198e-10
1.03852e-10
1.04507e-10
1.05162e-10
1.05818e-10
1.06474e-10
1.07132e-10
1.07789e-10
1.08448e-10
1.09107e-10
1.09766e-10
1.10426e-10
1.11087e-10
1.11749e-10
1.1241e-10
1.13073e-10
1.13736e-10
1.144e-10
1.15064e-10
1.15729e-10
1.16394e-10
1.1706e-10
1.17727e-10
1.18394e-10
1.19063e-10
1.19731e-10
1.204e-10
1.2107e-10
1.21739e-10
1.22409e-10
1.23079e-10
1.23748e-10
1.24417e-10
1.25086e-10
1.25755e-10
1.26422e-10
1.2709e-10
1.27756e-10
1.28422e-10
1.29088e-10
1.29753e-10
1.30418e-10
1.31083e-10
1.31748e-10
1.32413e-10
1.33079e-10
1.33747e-10
1.34415e-10
1.35085e-10
1.35757e-10
1.36431e-10
1.37108e-10
1.37787e-10
1.3847e-10
1.39156e-10
1.39844e-10
1.40537e-10
1.41232e-10
1.4193e-10
1.42631e-10
1.43334e-10
1.44039e-10
1.44747e-10
1.45455e-10
1.46165e-10
1.46875e-10
1.47586e-10
1.48296e-10
1.49007e-10
1.49717e-10
1.50427e-10
1.51136e-10
1.51844e-10
1.52552e-10
1.53259e-10
1.53966e-10
1.54672e-10
1.55378e-10
1.56084e-10
1.5679e-10
1.57496e-10
1.58202e-10
1.58908e-10
1.59615e-10
1.60322e-10
1.6103e-10
1.61739e-10
1.62449e-10
1.63159e-10
1.6387e-10
1.64582e-10
1.65295e-10
1.66008e-10
1.66723e-10
1.67438e-10
1.68154e-10
1.68872e-10
1.69589e-10
1.70308e-10
1.71028e-10
1.71748e-10
1.72469e-10
1.7319e-10
1.73913e-10
1.74636e-10
1.7536e-10
1.76084e-10
1.7681e-10
1.77535e-10
1.78262e-10
1.78989e-10
1.79717e-10
1.80446e-10
1.81175e-10
1.81904e-10
1.82635e-10
1.83366e-10
1.84097e-10
1.8483e-10
1.85563e-10
1.86296e-10
1.8703e-10
1.87765e-10
1.885e-10
1.89236e-10
1.89973e-10
1.9071e-10
1.91448e-10
1.92187e-10
1.92926e-10
1.93666e-10
1.94406e-10
1.95147e-10
1.95889e-10
1.96631e-10
1.97374e-10
1.98117e-10
1.98861e-10
1.99606e-10
2.00352e-10
2.01098e-10
2.01844e-10
2.02591e-10
2.03339e-10
2.04088e-10
2.04837e-10
2.05587e-10
2.06337e-10
2.07088e-10
2.0784e-10
2.08592e-10
2.09346e-10
2.10099e-10
2.10854e-10
2.11609e-10
2.12365e-10
2.13121e-10
2.13878e-10
2.14636e-10
2.15395e-10
2.16154e-10
2.16914e-10
2.17675e-10
2.18436e-10
2.19199e-10
2.19962e-10
2.20725e-10
2.2149e-10
2.22255e-10
2.2302e-10
2.23787e-10
2.24554e-10
2.25322e-10
2.2609e-10
2.26858e-10
2.27627e-10
2.28396e-10
2.29166e-10
2.29935e-10
2.30704e-10
2.31473e-10
2.32242e-10
2.33011e-10
2.3378e-10
2.34548e-10
2.35316e-10
2.36083e-10
2.3685e-10
2.37617e-10
2.38383e-10
2.3915e-10
2.39916e-10
2.40683e-10
2.41449e-10
2.42217e-10
2.42985e-10
2.43754e-10
2.44525e-10
2.45297e-10
2.46071e-10
2.46847e-10
2.47625e-10
2.48406e-10
2.4919e-10
2.49977e-10
2.50767e-10
2.5156e-10
2.52357e-10
2.53158e-10
2.53962e-10
2.5477e-10
2.55581e-10
2.56396e-10
2.57214e-10
2.58034e-10
2.58858e-10
2.59683e-10
2.60511e-10
2.61341e-10
2.62172e-10
2.63004e-10
2.63837e-10
2.64671e-10
2.65505e-10
2.6634e-10
2.67174e-10
2.68009e-10
2.68843e-10
2.69678e-10
2.70512e-10
2.71346e-10
2.72179e-10
2.73013e-10
2.73847e-10
2.7468e-10
2.75514e-10
2.76348e-10
2.77182e-10
2.78017e-10
2.78852e-10
2.79688e-10
2.80524e-10
2.81362e-10
2.822e-10
2.8304e-10
2.8388e-10
2.84721e-10
2.85564e-10
2.86408e-10
2.87253e-10
2.88099e-10
2.88947e-10
2.89796e-10
2.90646e-10
2.91497e-10
2.9235e-10
2.93204e-10
2.9406e-10
2.94916e-10
2.95774e-10
2.96634e-10
2.97494e-10
2.98356e-10
2.99219e-10
3.00084e-10
3.00949e-10
3.01816e-10
3.02684e-10
3.03553e-10
3.04424e-10
3.05295e-10
3.06168e-10
3.07042e-10
3.07918e-10
3.08794e-10
3.09672e-10
3.1055e-10
3.1143e-10
3.12312e-10
3.13194e-10
3.14078e-10
3.14962e-10
3.15848e-10
3.16735e-10
3.17624e-10
3.18513e-10
3.19404e-10
3.20296e-10
3.21189e-10
3.22084e-10
3.22979e-10
3.23876e-10
3.24774e-10
3.25674e-10
3.26574e-10
3.27476e-10
3.28379e-10
3.29284e-10
3.30189e-10
3.31096e-10
3.32004e-10
3.32914e-10
3.33825e-10
3.34737e-10
3.3565e-10
3.36565e-10
3.37481e-10
3.38398e-10
3.39317e-10
3.40237e-10
3.41158e-10
3.42081e-10
3.43005e-10
3.4393e-10
3.44857e-10
3.45786e-10
3.46716e-10
3.47647e-10
3.4858e-10
3.49514e-10
3.5045e-10
3.51387e-10
3.52325e-10
3.53266e-10
3.54208e-10
3.55151e-10
3.56096e-10
3.57042e-10
3.5799e-10
3.5894e-10
3.59891e-10
3.60844e-10
3.61798e-10
3.62753e-10
3.63711e-10
3.64669e-10
3.65629e-10
3.66591e-10
3.67553e-10
3.68517e-10
3.69483e-10
3.70449e-10
3.71416e-10
3.72385e-10
3.73354e-10
3.74325e-10
3.75296e-10
3.76268e-10
3.77241e-10
3.78214e-10
3.79189e-10
3.80164e-10
3.8114e-10
3.82117e-10
3.83094e-10
3.84073e-10
3.85052e-10
3.86033e-10
3.87015e-10
3.87998e-10
3.88983e-10
3.8997e-10
3.90958e-10
3.91949e-10
3.92942e-10
3.93937e-10
3.94936e-10
3.95937e-10
3.96942e-10
3.9795e-10
3.98963e-10
3.99979e-10
4.00999e-10
4.02024e-10
4.03054e-10
4.04088e-10
4.05127e-10
4.06172e-10
4.07221e-10
4.08276e-10
4.09336e-10
4.10401e-10
4.11471e-10
4.12547e-10
4.13627e-10
4.14712e-10
4.15801e-10
4.16895e-10
4.17993e-10
4.19094e-10
4.202e-10
4.21309e-10
4.22421e-10
4.23536e-10
4.24654e-10
4.25774e-10
4.26897e-10
4.28022e-10
4.29149e-10
4.30278e-10
4.3141e-10
4.32543e-10
4.33678e-10
4.34814e-10
4.35953e-10
4.37094e-10
4.38236e-10
4.39381e-10
4.40528e-10
4.41677e-10
4.42828e-10
4.43982e-10
4.45138e-10
4.46296e-10
4.47458e-10
4.48622e-10
4.4979e-10
4.5096e-10
4.52134e-10
4.53311e-10
4.54491e-10
4.55675e-10
4.56862e-10
4.58053e-10
4.59247e-10
4.60446e-10
4.61648e-10
4.62854e-10
4.64064e-10
4.65278e-10
4.66496e-10
4.67718e-10
4.68944e-10
4.70175e-10
4.7141e-10
4.72648e-10
4.73892e-10
4.75139e-10
4.76391e-10
4.77647e-10
4.78907e-10
4.80172e-10
4.81442e-10
4.82716e-10
4.83994e-10
4.85277e-10
4.86564e-10
4.87856e-10
4.89153e-10
4.90455e-10
4.91761e-10
4.93071e-10
4.94387e-10
4.95707e-10
4.97032e-10
4.98362e-10
4.99697e-10
5.01037e-10
5.02382e-10
5.03732e-10
5.05086e-10
5.06446e-10
5.07811e-10
5.09181e-10
5.10556e-10
5.11936e-10
5.13321e-10
5.14711e-10
5.16106e-10
5.17505e-10
5.1891e-10
5.2032e-10
5.21735e-10
5.23154e-10
5.24578e-10
5.26006e-10
5.27438e-10
5.28875e-10
5.30315e-10
5.31758e-10
5.33205e-10
5.34654e-10
5.36104e-10
5.37556e-10
5.39009e-10
5.40461e-10
5.41912e-10
5.43361e-10
5.44805e-10
5.46243e-10
5.47674e-10
5.49095e-10
5.50505e-10
5.519e-10
5.53277e-10
5.54633e-10
5.55965e-10
5.57269e-10
5.58541e-10
5.59777e-10
5.60972e-10
5.62123e-10
5.63224e-10
5.64274e-10
5.65267e-10
5.66202e-10
5.67075e-10
5.67884e-10
5.68629e-10
5.69309e-10
5.69924e-10
5.70478e-10
5.70971e-10
5.71405e-10
5.71785e-10
5.72112e-10
5.72393e-10
5.72633e-10
5.72834e-10
5.73002e-10
5.73144e-10
5.73264e-10
5.73371e-10
5.73477e-10
5.73601e-10
5.7377e-10
5.74034e-10
5.7448e-10
5.75263e-10
5.76656e-10
5.79138e-10
5.83537e-10
5.91235e-10
6.04409e-10
6.26112e-10
6.59698e-10
7.06912e-10
7.64872e-10
8.24941e-10
8.76745e-10
9.14449e-10
9.38445e-10
9.52372e-10
9.60008e-10
9.64045e-10
9.66136e-10
9.67194e-10
9.67715e-10
9.67958e-10
9.68057e-10
9.68084e-10
9.68074e-10
9.68045e-10
9.68008e-10
9.67967e-10
9.67926e-10
9.67886e-10
9.67848e-10
9.67813e-10
9.6778e-10
9.67751e-10
9.67725e-10
9.67702e-10
9.67684e-10
9.67671e-10
9.67662e-10
9.67658e-10
9.67657e-10
9.67657e-10
9.6766e-10
9.67672e-10
9.67689e-10
9.67709e-10
9.67733e-10
9.6776e-10
9.67791e-10
9.67824e-10
9.67861e-10
9.679e-10
9.67941e-10
9.67984e-10
9.68029e-10
9.68075e-10
9.68123e-10
9.6817e-10
9.68219e-10
9.68267e-10
9.68315e-10
9.68362e-10
9.68409e-10
9.68455e-10
9.685e-10
9.68544e-10
9.68586e-10
9.68626e-10
9.68665e-10
9.68703e-10
9.68738e-10
9.68772e-10
9.68804e-10
9.68834e-10
9.68863e-10
9.6889e-10
9.68915e-10
9.68938e-10
9.68961e-10
9.68981e-10
9.69001e-10
9.69019e-10
9.69037e-10
9.69053e-10
9.69068e-10
9.69083e-10
9.69096e-10
9.6911e-10
9.69122e-10
9.69134e-10
9.69146e-10
9.69158e-10
9.69169e-10
9.6918e-10
9.69191e-10
9.69201e-10
9.69212e-10
9.69223e-10
9.69233e-10
9.69244e-10
9.69255e-10
9.69266e-10
9.69277e-10
9.69287e-10
9.69298e-10
9.6931e-10
9.69321e-10
9.69332e-10
9.69343e-10
9.69354e-10
9.69366e-10
9.69377e-10
9.69388e-10
9.69399e-10
9.69411e-10
9.69422e-10
9.69433e-10
9.69444e-10
9.69455e-10
9.69465e-10
9.69476e-10
9.69486e-10
9.69497e-10
9.69507e-10
9.69517e-10
9.69526e-10
9.69536e-10
9.69545e-10
9.69554e-10
9.69563e-10
9.69571e-10
9.69579e-10
9.69587e-10
9.69595e-10
9.69602e-10
9.69609e-10
9.69615e-10
9.69622e-10
9.69628e-10
9.69634e-10
9.69639e-10
9.69644e-10
9.69649e-10
9.69653e-10
9.69657e-10
9.69661e-10
9.69664e-10
9.69667e-10
9.6967e-10
9.69672e-10
9.69674e-10
9.69676e-10
9.69677e-10
9.69678e-10
9.69679e-10
9.6968e-10
9.6968e-10
9.69679e-10
9.69679e-10
9.69679e-10
9.69678e-10
9.69676e-10
9.69675e-10
9.69672e-10
9.6967e-10
9.69668e-10
9.69665e-10
9.69662e-10
9.69658e-10
9.69654e-10
9.6965e-10
9.69646e-10
9.69642e-10
9.69637e-10
9.69632e-10
9.69627e-10
9.69621e-10
9.69615e-10
9.69609e-10
9.69603e-10
9.69596e-10
9.69589e-10
9.69582e-10
9.69574e-10
9.69566e-10
9.69557e-10
9.69548e-10
9.69539e-10
9.69529e-10
9.69518e-10
9.69507e-10
9.69495e-10
9.69483e-10
9.69469e-10
9.69455e-10
9.69441e-10
9.69425e-10
9.69408e-10
9.69391e-10
9.69372e-10
9.69352e-10
9.69331e-10
9.69309e-10
9.69286e-10
9.69262e-10
9.69236e-10
9.69209e-10
9.6918e-10
9.6915e-10
9.69119e-10
9.69086e-10
9.69052e-10
9.69016e-10
9.68979e-10
9.68941e-10
9.68901e-10
9.6886e-10
9.68818e-10
9.68775e-10
9.68731e-10
9.68686e-10
9.6864e-10
9.68594e-10
9.68547e-10
9.685e-10
9.68453e-10
9.68406e-10
9.68359e-10
9.68313e-10
9.68267e-10
9.68223e-10
9.68179e-10
9.68137e-10
9.68097e-10
9.68058e-10
9.68021e-10
9.67987e-10
9.67955e-10
9.67925e-10
9.67898e-10
9.67875e-10
9.67854e-10
9.67836e-10
9.67822e-10
9.67811e-10
9.67804e-10
9.67801e-10
9.678e-10
9.678e-10
9.67803e-10
9.67807e-10
9.67818e-10
9.67834e-10
9.67855e-10
9.67878e-10
9.67903e-10
9.67931e-10
9.67962e-10
9.67994e-10
9.68028e-10
9.68064e-10
9.68101e-10
9.6814e-10
9.6818e-10
9.68219e-10
9.68261e-10
9.68301e-10
9.68343e-10
9.68383e-10
9.68424e-10
9.68464e-10
9.68504e-10
9.68541e-10
9.6858e-10
9.68616e-10
9.68652e-10
)
;

boundaryField
{
    inlet
    {
        type            calculated;
        value           uniform 0;
    }
    outlet
    {
        type            calculated;
        value           uniform 9.68685e-10;
    }
    emptyWalls
    {
        type            empty;
        value           nonuniform List<scalar> 0();
    }
}


// ************************************************************************* //
