/*--------------------------------*- C++ -*----------------------------------*\
  =========                 |
  \\      /  F ield         | OpenFOAM: The Open Source CFD Toolbox
   \\    /   O peration     | Website:  https://openfoam.org
    \\  /    A nd           | Version:  9
     \\/     M anipulation  |
\*---------------------------------------------------------------------------*/
FoamFile
{
    format      ascii;
    class       volScalarField;
    location    "2600";
    object      kra;
}
// * * * * * * * * * * * * * * * * * * * * * * * * * * * * * * * * * * * * * //

dimensions      [0 0 0 0 0 0 0];

internalField   nonuniform List<scalar> 
100
(
4.011e-05
2.96492e-05
3.19874e-05
3.06159e-05
3.04626e-05
3.00717e-05
2.98997e-05
2.96629e-05
2.94509e-05
2.92438e-05
2.90529e-05
2.8876e-05
2.87041e-05
2.85496e-05
2.83935e-05
2.82497e-05
2.81003e-05
2.79505e-05
2.77667e-05
2.75556e-05
2.72907e-05
2.74362e-05
2.74702e-05
2.75285e-05
2.75533e-05
2.75903e-05
2.76261e-05
2.76613e-05
2.7696e-05
2.77298e-05
2.77623e-05
2.77934e-05
2.7822e-05
2.78488e-05
2.78744e-05
2.7899e-05
2.79223e-05
2.79443e-05
2.79654e-05
2.79841e-05
2.80011e-05
2.80176e-05
2.80334e-05
2.80478e-05
2.80608e-05
2.80727e-05
2.80828e-05
2.80916e-05
2.81008e-05
2.81093e-05
2.81169e-05
2.81235e-05
2.81287e-05
2.81321e-05
2.81348e-05
2.81374e-05
2.81394e-05
2.81401e-05
2.81396e-05
2.81382e-05
2.8136e-05
2.8133e-05
2.81298e-05
2.81261e-05
2.81213e-05
2.81149e-05
2.81084e-05
2.81024e-05
2.80971e-05
2.80921e-05
2.80868e-05
2.80807e-05
2.80739e-05
2.80677e-05
2.80608e-05
2.80505e-05
2.80317e-05
2.79935e-05
2.79115e-05
2.76922e-05
2.66216e-05
1.41763e-05
1.60989e-07
2.11858e-12
6.77143e-23
2.7294e-35
3.33269e-35
3.06656e-35
3.2428e-35
3.33289e-35
3.24307e-35
3.3331e-35
3.06698e-35
3.24316e-35
3.33306e-35
2.81186e-35
3.24303e-35
3.33298e-35
3.24306e-35
3.33322e-35
)
;

boundaryField
{
    inlet
    {
        type            calculated;
        value           uniform 1.16682e-05;
    }
    outlet
    {
        type            calculated;
        value           uniform 4.72862e-37;
    }
    emptyWalls
    {
        type            empty;
    }
}


// ************************************************************************* //
