/*--------------------------------*- C++ -*----------------------------------*\
  =========                 |
  \\      /  F ield         | OpenFOAM: The Open Source CFD Toolbox
   \\    /   O peration     | Website:  https://openfoam.org
    \\  /    A nd           | Version:  9
     \\/     M anipulation  |
\*---------------------------------------------------------------------------*/
FoamFile
{
    format      ascii;
    class       volScalarField;
    location    "2600";
    object      p;
}
// * * * * * * * * * * * * * * * * * * * * * * * * * * * * * * * * * * * * * //

dimensions      [0 0 0 0 0 0 0];

internalField   nonuniform List<scalar> 
100
(
5.90168e+06
5.89358e+06
5.88263e+06
5.87249e+06
5.86188e+06
5.85122e+06
5.84045e+06
5.8296e+06
5.81868e+06
5.8077e+06
5.79665e+06
5.78554e+06
5.77437e+06
5.76316e+06
5.75189e+06
5.74058e+06
5.72922e+06
5.71781e+06
5.70636e+06
5.69484e+06
5.68325e+06
5.67163e+06
5.6601e+06
5.64861e+06
5.63716e+06
5.62574e+06
5.61436e+06
5.60302e+06
5.59172e+06
5.58045e+06
5.56921e+06
5.55801e+06
5.54685e+06
5.53571e+06
5.52462e+06
5.51355e+06
5.50252e+06
5.49152e+06
5.48056e+06
5.46963e+06
5.45872e+06
5.44785e+06
5.43702e+06
5.42621e+06
5.41543e+06
5.40469e+06
5.39397e+06
5.38329e+06
5.37263e+06
5.36201e+06
5.35141e+06
5.34085e+06
5.33031e+06
5.3198e+06
5.30932e+06
5.29887e+06
5.28845e+06
5.27805e+06
5.26769e+06
5.25734e+06
5.24703e+06
5.23674e+06
5.22648e+06
5.21624e+06
5.20603e+06
5.19584e+06
5.18567e+06
5.17553e+06
5.16541e+06
5.1553e+06
5.14522e+06
5.13515e+06
5.1251e+06
5.11507e+06
5.10505e+06
5.09505e+06
5.08507e+06
5.07513e+06
5.06527e+06
5.05556e+06
5.04619e+06
5.03803e+06
5.03512e+06
5.03307e+06
5.03106e+06
5.02906e+06
5.02706e+06
5.02505e+06
5.02305e+06
5.02104e+06
5.01904e+06
5.01703e+06
5.01503e+06
5.01303e+06
5.01102e+06
5.00902e+06
5.00701e+06
5.00501e+06
5.00301e+06
5.001e+06
)
;

boundaryField
{
    inlet
    {
        type            darcyGradPressure;
        gradient        uniform 4.01771e+06;
        Mf              Mf;
        phi             phi;
        value           uniform 5.90971e+06;
    }
    outlet
    {
        type            fixedValue;
        value           uniform 5e+06;
    }
    emptyWalls
    {
        type            empty;
    }
}


// ************************************************************************* //
