/*--------------------------------*- C++ -*----------------------------------*\
  =========                 |
  \\      /  F ield         | OpenFOAM: The Open Source CFD Toolbox
   \\    /   O peration     | Website:  https://openfoam.org
    \\  /    A nd           | Version:  9
     \\/     M anipulation  |
\*---------------------------------------------------------------------------*/
FoamFile
{
    format      ascii;
    class       surfaceScalarField;
    location    "2600";
    object      phia;
}
// * * * * * * * * * * * * * * * * * * * * * * * * * * * * * * * * * * * * * //

dimensions      [0 2 0 0 0 0 0];

internalField   nonuniform List<scalar> 
99
(
1.42025e-08
1.4192e-08
1.41803e-08
1.41576e-08
1.41261e-08
1.41255e-08
1.41188e-08
1.41077e-08
1.40958e-08
1.40806e-08
1.40679e-08
1.40522e-08
1.40381e-08
1.40231e-08
1.40071e-08
1.39907e-08
1.39735e-08
1.39529e-08
1.3927e-08
1.38958e-08
1.38615e-08
1.38377e-08
1.38154e-08
1.37869e-08
1.37599e-08
1.37336e-08
1.37071e-08
1.36805e-08
1.36541e-08
1.36276e-08
1.36009e-08
1.35736e-08
1.35454e-08
1.35169e-08
1.34883e-08
1.34595e-08
1.34304e-08
1.34012e-08
1.33714e-08
1.33406e-08
1.33097e-08
1.32789e-08
1.32479e-08
1.32164e-08
1.31846e-08
1.31522e-08
1.31193e-08
1.30865e-08
1.30542e-08
1.30217e-08
1.29891e-08
1.29562e-08
1.29226e-08
1.28888e-08
1.28551e-08
1.28218e-08
1.27885e-08
1.27549e-08
1.27212e-08
1.26874e-08
1.2654e-08
1.2621e-08
1.25886e-08
1.25567e-08
1.25249e-08
1.24937e-08
1.24638e-08
1.24356e-08
1.24091e-08
1.2384e-08
1.236e-08
1.23368e-08
1.23146e-08
1.22925e-08
1.22673e-08
1.22318e-08
1.21707e-08
1.20526e-08
1.18166e-08
1.12493e-08
9.10892e-09
9.14546e-10
7.20867e-12
9.28027e-17
2.96634e-27
2.39132e-39
2.91986e-39
2.68669e-39
2.88057e-39
2.92005e-39
2.84137e-39
2.92024e-39
2.68708e-39
2.88083e-39
2.9202e-39
2.46356e-39
2.88072e-39
2.92013e-39
2.84135e-39
)
;

boundaryField
{
    inlet
    {
        type            calculated;
        value           uniform -1.42126e-08;
    }
    outlet
    {
        type            calculated;
        value           uniform 4.14292e-41;
    }
    emptyWalls
    {
        type            empty;
        value           nonuniform List<scalar> 0();
    }
}


// ************************************************************************* //
