/*--------------------------------*- C++ -*----------------------------------*\
  =========                 |
  \\      /  F ield         | OpenFOAM: The Open Source CFD Toolbox
   \\    /   O peration     | Website:  https://openfoam.org
    \\  /    A nd           | Version:  9
     \\/     M anipulation  |
\*---------------------------------------------------------------------------*/
FoamFile
{
    format      ascii;
    class       surfaceScalarField;
    location    "2600";
    object      phib;
}
// * * * * * * * * * * * * * * * * * * * * * * * * * * * * * * * * * * * * * //

dimensions      [0 2 0 0 0 0 0];

internalField   nonuniform List<scalar> 
99
(
6.09076e-09
6.09031e-09
6.0898e-09
6.0995e-09
6.11742e-09
6.10399e-09
6.09611e-09
6.09202e-09
6.08856e-09
6.08821e-09
6.08532e-09
6.08538e-09
6.08377e-09
6.0828e-09
6.08265e-09
6.0823e-09
6.08134e-09
6.08048e-09
6.07934e-09
6.07737e-09
6.07866e-09
6.07666e-09
6.07373e-09
6.07764e-09
6.07988e-09
6.08144e-09
6.08306e-09
6.08449e-09
6.08538e-09
6.0861e-09
6.08669e-09
6.08754e-09
6.08896e-09
6.09041e-09
6.09163e-09
6.09272e-09
6.09381e-09
6.09475e-09
6.09594e-09
6.09778e-09
6.09957e-09
6.10089e-09
6.10215e-09
6.1037e-09
6.10531e-09
6.10717e-09
6.10944e-09
6.11127e-09
6.11248e-09
6.11361e-09
6.11475e-09
6.11601e-09
6.11779e-09
6.1198e-09
6.12147e-09
6.12276e-09
6.1241e-09
6.12571e-09
6.12761e-09
6.1296e-09
6.13157e-09
6.13341e-09
6.13506e-09
6.13683e-09
6.13915e-09
6.14175e-09
6.14395e-09
6.14554e-09
6.14662e-09
6.14756e-09
6.14879e-09
6.15045e-09
6.15197e-09
6.15297e-09
6.15408e-09
6.15598e-09
6.15956e-09
6.16677e-09
6.1819e-09
6.2227e-09
6.45376e-09
8.65935e-09
9.16193e-09
9.15335e-09
9.14963e-09
9.14983e-09
9.1504e-09
9.15043e-09
9.15018e-09
9.14994e-09
9.14977e-09
9.14969e-09
9.14968e-09
9.1497e-09
9.14983e-09
9.1499e-09
9.14992e-09
9.14991e-09
9.1498e-09
)
;

boundaryField
{
    inlet
    {
        type            calculated;
        value           uniform -6.09112e-09;
    }
    outlet
    {
        type            calculated;
        value           uniform 9.14951e-09;
    }
    emptyWalls
    {
        type            empty;
        value           nonuniform List<scalar> 0();
    }
}


// ************************************************************************* //
