/*--------------------------------*- C++ -*----------------------------------*\
  =========                 |
  \\      /  F ield         | OpenFOAM: The Open Source CFD Toolbox
   \\    /   O peration     | Website:  https://openfoam.org
    \\  /    A nd           | Version:  9
     \\/     M anipulation  |
\*---------------------------------------------------------------------------*/
FoamFile
{
    format      ascii;
    class       surfaceScalarField;
    location    "2600";
    object      phic;
}
// * * * * * * * * * * * * * * * * * * * * * * * * * * * * * * * * * * * * * //

dimensions      [0 2 0 0 0 0 0];

internalField   nonuniform List<scalar> 
99
(
1.05149e-11
2.14413e-11
3.36709e-11
4.66022e-11
6.02436e-11
7.42248e-11
8.88599e-11
1.03974e-10
1.19375e-10
1.34896e-10
1.50507e-10
1.66157e-10
1.81906e-10
1.97798e-10
2.13948e-10
2.3069e-10
2.4889e-10
2.7032e-10
2.97432e-10
3.30621e-10
3.63562e-10
3.89404e-10
4.14597e-10
4.39232e-10
4.63917e-10
4.8866e-10
5.13595e-10
5.38783e-10
5.64268e-10
5.90064e-10
6.16181e-10
6.42608e-10
6.69348e-10
6.96416e-10
7.23804e-10
7.51505e-10
7.79515e-10
8.07832e-10
8.36441e-10
8.65321e-10
8.94488e-10
9.23943e-10
9.53667e-10
9.83641e-10
1.01387e-09
1.04434e-09
1.07502e-09
1.10594e-09
1.13708e-09
1.16839e-09
1.19989e-09
1.23154e-09
1.2633e-09
1.29517e-09
1.32712e-09
1.35913e-09
1.39114e-09
1.4231e-09
1.45497e-09
1.48669e-09
1.51818e-09
1.54933e-09
1.58006e-09
1.61023e-09
1.63969e-09
1.66832e-09
1.69602e-09
1.72264e-09
1.74807e-09
1.7722e-09
1.79497e-09
1.81649e-09
1.8372e-09
1.85825e-09
1.88235e-09
1.91594e-09
1.97352e-09
2.08436e-09
2.30519e-09
2.83171e-09
4.74106e-09
1.07298e-08
1.11346e-08
1.11504e-08
1.11541e-08
1.11539e-08
1.11533e-08
1.11533e-08
1.11536e-08
1.11538e-08
1.1154e-08
1.1154e-08
1.11541e-08
1.1154e-08
1.11539e-08
1.11538e-08
1.11538e-08
1.11538e-08
1.11539e-08
)
;

boundaryField
{
    inlet
    {
        type            calculated;
        value           uniform 0;
    }
    outlet
    {
        type            calculated;
        value           uniform 1.11542e-08;
    }
    emptyWalls
    {
        type            empty;
        value           nonuniform List<scalar> 0();
    }
}


// ************************************************************************* //
