/*--------------------------------*- C++ -*----------------------------------*\
  =========                 |
  \\      /  F ield         | OpenFOAM: The Open Source CFD Toolbox
   \\    /   O peration     | Website:  https://openfoam.org
    \\  /    A nd           | Version:  9
     \\/     M anipulation  |
\*---------------------------------------------------------------------------*/
FoamFile
{
    format      ascii;
    class       volVectorField;
    location    "2600";
    object      Ua;
}
// * * * * * * * * * * * * * * * * * * * * * * * * * * * * * * * * * * * * * //

dimensions      [0 0 0 0 0 0 0];

internalField   nonuniform List<vector> 
100
(
(0 0 8.91277e-06)
(0 0 1.12978e-05)
(0 0 1.1289e-05)
(0 0 1.12753e-05)
(0 0 1.12537e-05)
(0 0 1.12409e-05)
(0 0 1.1238e-05)
(0 0 1.1231e-05)
(0 0 1.12218e-05)
(0 0 1.1211e-05)
(0 0 1.11999e-05)
(0 0 1.11886e-05)
(0 0 1.11768e-05)
(0 0 1.11652e-05)
(0 0 1.11529e-05)
(0 0 1.114e-05)
(0 0 1.11266e-05)
(0 0 1.11116e-05)
(0 0 1.10931e-05)
(0 0 1.10703e-05)
(0 0 1.10443e-05)
(0 0 1.10212e-05)
(0 0 1.10028e-05)
(0 0 1.09826e-05)
(0 0 1.09605e-05)
(0 0 1.09393e-05)
(0 0 1.09183e-05)
(0 0 1.08972e-05)
(0 0 1.08761e-05)
(0 0 1.0855e-05)
(0 0 1.08339e-05)
(0 0 1.08124e-05)
(0 0 1.07903e-05)
(0 0 1.07678e-05)
(0 0 1.0745e-05)
(0 0 1.07222e-05)
(0 0 1.06992e-05)
(0 0 1.06759e-05)
(0 0 1.06524e-05)
(0 0 1.06284e-05)
(0 0 1.06038e-05)
(0 0 1.05793e-05)
(0 0 1.05547e-05)
(0 0 1.05298e-05)
(0 0 1.05046e-05)
(0 0 1.04791e-05)
(0 0 1.04531e-05)
(0 0 1.0427e-05)
(0 0 1.04011e-05)
(0 0 1.03753e-05)
(0 0 1.03494e-05)
(0 0 1.03233e-05)
(0 0 1.02969e-05)
(0 0 1.027e-05)
(0 0 1.02432e-05)
(0 0 1.02165e-05)
(0 0 1.019e-05)
(0 0 1.01634e-05)
(0 0 1.01366e-05)
(0 0 1.01098e-05)
(0 0 1.0083e-05)
(0 0 1.00566e-05)
(0 0 1.00306e-05)
(0 0 1.0005e-05)
(0 0 9.97964e-06)
(0 0 9.95457e-06)
(0 0 9.93025e-06)
(0 0 9.90713e-06)
(0 0 9.88535e-06)
(0 0 9.86483e-06)
(0 0 9.84531e-06)
(0 0 9.82653e-06)
(0 0 9.80846e-06)
(0 0 9.79085e-06)
(0 0 9.77204e-06)
(0 0 9.74789e-06)
(0 0 9.70944e-06)
(0 0 9.63814e-06)
(0 0 9.49728e-06)
(0 0 9.17766e-06)
(0 0 8.10029e-06)
(0 0 3.98821e-06)
(0 0 3.66754e-07)
(0 0 2.86827e-09)
(0 0 3.6925e-14)
(0 0 1.18027e-24)
(0 0 2.11325e-36)
(0 0 2.23077e-36)
(0 0 2.21514e-36)
(0 0 2.30799e-36)
(0 0 2.29239e-36)
(0 0 2.29247e-36)
(0 0 2.23108e-36)
(0 0 2.2154e-36)
(0 0 2.30816e-36)
(0 0 2.14213e-36)
(0 0 2.12642e-36)
(0 0 2.30808e-36)
(0 0 2.29242e-36)
(0 0 1.14702e-36)
)
;

boundaryField
{
    inlet
    {
        type            fixedValue;
        value           uniform (0 0 1.131e-05);
    }
    outlet
    {
        type            zeroGradient;
    }
    emptyWalls
    {
        type            empty;
    }
}


// ************************************************************************* //
