/*--------------------------------*- C++ -*----------------------------------*\
  =========                 |
  \\      /  F ield         | OpenFOAM: The Open Source CFD Toolbox
   \\    /   O peration     | Website:  https://openfoam.org
    \\  /    A nd           | Version:  9
     \\/     M anipulation  |
\*---------------------------------------------------------------------------*/
FoamFile
{
    format      ascii;
    class       volVectorField;
    location    "2600";
    object      Ub;
}
// * * * * * * * * * * * * * * * * * * * * * * * * * * * * * * * * * * * * * //

dimensions      [0 0 0 0 0 0 0];

internalField   nonuniform List<vector> 
100
(
(0 0 7.23195e-06)
(0 0 4.84669e-06)
(0 0 4.84631e-06)
(0 0 4.84997e-06)
(0 0 4.86096e-06)
(0 0 4.86275e-06)
(0 0 4.85427e-06)
(0 0 4.84951e-06)
(0 0 4.8465e-06)
(0 0 4.84498e-06)
(0 0 4.84369e-06)
(0 0 4.84257e-06)
(0 0 4.84195e-06)
(0 0 4.84092e-06)
(0 0 4.84048e-06)
(0 0 4.84028e-06)
(0 0 4.83976e-06)
(0 0 4.83903e-06)
(0 0 4.83824e-06)
(0 0 4.837e-06)
(0 0 4.83673e-06)
(0 0 4.83645e-06)
(0 0 4.83449e-06)
(0 0 4.83488e-06)
(0 0 4.83732e-06)
(0 0 4.83883e-06)
(0 0 4.8401e-06)
(0 0 4.84132e-06)
(0 0 4.84224e-06)
(0 0 4.84288e-06)
(0 0 4.8434e-06)
(0 0 4.84397e-06)
(0 0 4.84488e-06)
(0 0 4.84602e-06)
(0 0 4.84708e-06)
(0 0 4.848e-06)
(0 0 4.84887e-06)
(0 0 4.84968e-06)
(0 0 4.85052e-06)
(0 0 4.85173e-06)
(0 0 4.85317e-06)
(0 0 4.85441e-06)
(0 0 4.85543e-06)
(0 0 4.85655e-06)
(0 0 4.85781e-06)
(0 0 4.85919e-06)
(0 0 4.86084e-06)
(0 0 4.86247e-06)
(0 0 4.86368e-06)
(0 0 4.86461e-06)
(0 0 4.86551e-06)
(0 0 4.86646e-06)
(0 0 4.86767e-06)
(0 0 4.86918e-06)
(0 0 4.87065e-06)
(0 0 4.87182e-06)
(0 0 4.87287e-06)
(0 0 4.87404e-06)
(0 0 4.87544e-06)
(0 0 4.87699e-06)
(0 0 4.87856e-06)
(0 0 4.88008e-06)
(0 0 4.88147e-06)
(0 0 4.88283e-06)
(0 0 4.88446e-06)
(0 0 4.88641e-06)
(0 0 4.88832e-06)
(0 0 4.88983e-06)
(0 0 4.89089e-06)
(0 0 4.8917e-06)
(0 0 4.89256e-06)
(0 0 4.89371e-06)
(0 0 4.89498e-06)
(0 0 4.89598e-06)
(0 0 4.89682e-06)
(0 0 4.89802e-06)
(0 0 4.9002e-06)
(0 0 4.90449e-06)
(0 0 4.91338e-06)
(0 0 4.93564e-06)
(0 0 5.0438e-06)
(0 0 6.01332e-06)
(0 0 7.09086e-06)
(0 0 7.28742e-06)
(0 0 7.28253e-06)
(0 0 7.28113e-06)
(0 0 7.28143e-06)
(0 0 7.28167e-06)
(0 0 7.28158e-06)
(0 0 7.28139e-06)
(0 0 7.28122e-06)
(0 0 7.28112e-06)
(0 0 7.28109e-06)
(0 0 7.28109e-06)
(0 0 7.28115e-06)
(0 0 7.28123e-06)
(0 0 7.28126e-06)
(0 0 7.28127e-06)
(0 0 7.28122e-06)
(0 0 7.28106e-06)
)
;

boundaryField
{
    inlet
    {
        type            fixedValue;
        value           uniform (0 0 4.84716e-06);
    }
    outlet
    {
        type            zeroGradient;
    }
    emptyWalls
    {
        type            empty;
    }
}


// ************************************************************************* //
