/*--------------------------------*- C++ -*----------------------------------*\
  =========                 |
  \\      /  F ield         | OpenFOAM: The Open Source CFD Toolbox
   \\    /   O peration     | Website:  https://openfoam.org
    \\  /    A nd           | Version:  9
     \\/     M anipulation  |
\*---------------------------------------------------------------------------*/
FoamFile
{
    format      ascii;
    class       volVectorField;
    location    "2600";
    object      Uc;
}
// * * * * * * * * * * * * * * * * * * * * * * * * * * * * * * * * * * * * * //

dimensions      [0 0 0 0 0 0 0];

internalField   nonuniform List<vector> 
100
(
(0 0 1.2485e-08)
(0 0 1.2715e-08)
(0 0 2.19285e-08)
(0 0 3.19397e-08)
(0 0 4.25126e-08)
(0 0 5.35033e-08)
(0 0 6.48893e-08)
(0 0 7.67262e-08)
(0 0 8.88677e-08)
(0 0 1.01171e-07)
(0 0 1.13558e-07)
(0 0 1.25997e-07)
(0 0 1.3849e-07)
(0 0 1.5108e-07)
(0 0 1.63829e-07)
(0 0 1.76916e-07)
(0 0 1.90819e-07)
(0 0 2.06587e-07)
(0 0 2.25901e-07)
(0 0 2.49894e-07)
(0 0 2.76206e-07)
(0 0 2.99595e-07)
(0 0 3.19902e-07)
(0 0 3.39728e-07)
(0 0 3.59352e-07)
(0 0 3.79018e-07)
(0 0 3.98785e-07)
(0 0 4.18728e-07)
(0 0 4.3889e-07)
(0 0 4.59294e-07)
(0 0 4.79949e-07)
(0 0 5.00856e-07)
(0 0 5.2201e-07)
(0 0 5.4342e-07)
(0 0 5.65088e-07)
(0 0 5.87007e-07)
(0 0 6.09174e-07)
(0 0 6.31585e-07)
(0 0 6.54235e-07)
(0 0 6.7711e-07)
(0 0 7.00206e-07)
(0 0 7.23531e-07)
(0 0 7.47077e-07)
(0 0 7.7083e-07)
(0 0 7.94786e-07)
(0 0 8.18939e-07)
(0 0 8.43268e-07)
(0 0 8.67776e-07)
(0 0 8.92468e-07)
(0 0 9.17318e-07)
(0 0 9.42312e-07)
(0 0 9.67438e-07)
(0 0 9.92668e-07)
(0 0 1.01798e-06)
(0 0 1.04338e-06)
(0 0 1.06883e-06)
(0 0 1.0943e-06)
(0 0 1.11975e-06)
(0 0 1.14515e-06)
(0 0 1.17045e-06)
(0 0 1.1956e-06)
(0 0 1.22052e-06)
(0 0 1.24514e-06)
(0 0 1.26937e-06)
(0 0 1.2931e-06)
(0 0 1.31622e-06)
(0 0 1.33863e-06)
(0 0 1.36024e-06)
(0 0 1.38095e-06)
(0 0 1.40067e-06)
(0 0 1.41933e-06)
(0 0 1.43695e-06)
(0 0 1.45376e-06)
(0 0 1.47038e-06)
(0 0 1.48834e-06)
(0 0 1.51129e-06)
(0 0 1.54757e-06)
(0 0 1.61458e-06)
(0 0 1.74654e-06)
(0 0 2.04391e-06)
(0 0 3.01311e-06)
(0 0 6.15567e-06)
(0 0 8.69958e-06)
(0 0 8.86692e-06)
(0 0 8.87467e-06)
(0 0 8.87607e-06)
(0 0 8.87577e-06)
(0 0 8.87553e-06)
(0 0 8.87562e-06)
(0 0 8.87581e-06)
(0 0 8.87598e-06)
(0 0 8.87608e-06)
(0 0 8.87611e-06)
(0 0 8.87611e-06)
(0 0 8.87605e-06)
(0 0 8.87597e-06)
(0 0 8.87594e-06)
(0 0 8.87593e-06)
(0 0 8.87598e-06)
(0 0 8.87614e-06)
)
;

boundaryField
{
    inlet
    {
        type            fixedValue;
        value           uniform (0 0 0);
    }
    outlet
    {
        type            zeroGradient;
    }
    emptyWalls
    {
        type            empty;
    }
}


// ************************************************************************* //
