/*--------------------------------*- C++ -*----------------------------------*\
  =========                 |
  \\      /  F ield         | OpenFOAM: The Open Source CFD Toolbox
   \\    /   O peration     | Website:  https://openfoam.org
    \\  /    A nd           | Version:  9
     \\/     M anipulation  |
\*---------------------------------------------------------------------------*/
FoamFile
{
    format      ascii;
    class       volScalarField;
    location    "11050";
    object      Fb;
}
// * * * * * * * * * * * * * * * * * * * * * * * * * * * * * * * * * * * * * //

dimensions      [0 0 0 0 0 0 0];

internalField   nonuniform List<scalar> 
1000
(
0.804997
0.805357
0.805148
0.805327
0.805273
0.805365
0.805367
0.805448
0.805478
0.805541
0.805575
0.805625
0.805699
0.805999
0.807695
0.822218
0.832514
0.834334
0.835057
0.835483
0.835753
0.835975
0.836135
0.836267
0.836367
0.836443
0.836503
0.836545
0.836573
0.836594
0.836575
0.836598
0.83654
0.836533
0.836488
0.836438
0.836368
0.836284
0.836165
0.836011
0.835793
0.835496
0.835095
0.834608
0.834072
0.833503
0.832913
0.83231
0.831697
0.83107
0.830418
0.82973
0.828996
0.828215
0.827394
0.826544
0.825676
0.824803
0.823931
0.823066
0.822215
0.821384
0.82058
0.819815
0.819098
0.818436
0.817833
0.817291
0.816804
0.816363
0.815956
0.815569
0.815186
0.814794
0.81438
0.813934
0.813451
0.812928
0.812364
0.811762
0.811126
0.81046
0.809771
0.809064
0.808345
0.807619
0.80689
0.806162
0.805436
0.804715
0.803999
0.803288
0.802582
0.801881
0.801184
0.800491
0.799798
0.799109
0.798419
0.79773
0.79704
0.79635
0.795658
0.794964
0.794269
0.793571
0.792871
0.792169
0.791464
0.790757
0.790047
0.789335
0.78862
0.787904
0.787185
0.786464
0.78574
0.785015
0.784289
0.78356
0.78283
0.782098
0.781364
0.780629
0.779892
0.779154
0.778414
0.777672
0.776929
0.776183
0.775436
0.774687
0.773937
0.773184
0.77243
0.771673
0.770915
0.770155
0.769393
0.768629
0.767863
0.767095
0.766326
0.765554
0.764781
0.764005
0.763228
0.762449
0.761668
0.760885
0.760101
0.759314
0.758526
0.757736
0.756945
0.756152
0.755357
0.754561
0.753764
0.752966
0.752167
0.751366
0.750565
0.749763
0.748959
0.748154
0.747347
0.746539
0.745729
0.744917
0.744103
0.743288
0.74247
0.741651
0.74083
0.740006
0.73918
0.738351
0.737517
0.736679
0.735835
0.734985
0.734127
0.733261
0.732386
0.731501
0.730607
0.729703
0.72879
0.727867
0.726936
0.725998
0.725055
0.724107
0.723156
0.722205
0.721256
0.720311
0.719372
0.718443
0.717525
0.716621
0.715732
0.71486
0.714006
0.713171
0.712354
0.711555
0.710773
0.710005
0.70925
0.708504
0.707765
0.70703
0.706296
0.705559
0.704817
0.704068
0.70331
0.702541
0.701761
0.700968
0.700163
0.699346
0.698516
0.697676
0.696826
0.695966
0.695098
0.694223
0.693342
0.692456
0.691566
0.690673
0.689778
0.68888
0.687982
0.687082
0.686182
0.685282
0.684381
0.68348
0.682579
0.681678
0.680777
0.679875
0.678972
0.678069
0.677164
0.676259
0.675352
0.674444
0.673534
0.672623
0.671709
0.670794
0.669877
0.668957
0.668036
0.667112
0.666186
0.665257
0.664326
0.663393
0.662457
0.661519
0.660578
0.659635
0.658689
0.65774
0.656789
0.655836
0.654879
0.653921
0.652959
0.651995
0.651029
0.65006
0.649088
0.648113
0.647136
0.646157
0.645174
0.644189
0.643201
0.642211
0.641217
0.640221
0.639222
0.638221
0.637216
0.636209
0.635199
0.634186
0.63317
0.632152
0.63113
0.630105
0.629077
0.628047
0.627013
0.625976
0.624936
0.623893
0.622846
0.621798
0.620744
0.61969
0.618629
0.617569
0.6165
0.615434
0.614359
0.613287
0.612205
0.611126
0.610038
0.608951
0.607857
0.606763
0.605663
0.604561
0.603455
0.602345
0.601233
0.600115
0.598995
0.597871
0.596743
0.595611
0.594475
0.593335
0.59219
0.591042
0.589889
0.588731
0.587569
0.586401
0.585229
0.58405
0.582867
0.581677
0.580481
0.579279
0.57807
0.576855
0.575632
0.574402
0.573165
0.57192
0.570667
0.569407
0.568138
0.566862
0.565579
0.564288
0.562989
0.561684
0.560372
0.559054
0.557731
0.556402
0.555068
0.55373
0.552389
0.551044
0.549697
0.548349
0.546999
0.545648
0.544296
0.542945
0.541594
0.540244
0.538894
0.537544
0.536195
0.534845
0.533496
0.532145
0.530792
0.529438
0.52808
0.526718
0.525351
0.523978
0.522598
0.52121
0.519814
0.518409
0.516993
0.515566
0.514128
0.512679
0.511216
0.509742
0.508256
0.506757
0.505245
0.503722
0.502186
0.500638
0.49908
0.497511
0.495933
0.494346
0.492751
0.491149
0.489543
0.487933
0.486323
0.484714
0.483111
0.481516
0.479934
0.478369
0.476827
0.475315
0.47384
0.472409
0.471028
0.469707
0.468452
0.467271
0.466171
0.465156
0.464229
0.463391
0.462641
0.461975
0.461384
0.460855
0.460362
0.459866
0.459302
0.458557
0.457437
0.455609
0.452492
0.447119
0.437944
0.422754
0.399017
0.365277
0.323572
0.280525
0.243992
0.217987
0.201765
0.192476
0.187418
0.184739
0.183343
0.18262
0.182249
0.182059
0.181962
0.181912
0.181888
0.181876
0.18187
0.181868
0.181868
0.181868
0.181869
0.181869
0.18187
0.181871
0.181872
0.181873
0.181874
0.181874
0.181875
0.181875
0.181876
0.181877
0.181877
0.181877
0.181878
0.181878
0.181878
0.181878
0.181878
0.181878
0.181878
0.181878
0.181878
0.181878
0.181878
0.181878
0.181877
0.181877
0.181876
0.181876
0.181875
0.181875
0.181874
0.181873
0.181872
0.181871
0.18187
0.181869
0.181867
0.181866
0.181865
0.181863
0.181862
0.18186
0.181858
0.181856
0.181854
0.181852
0.18185
0.181848
0.181846
0.181844
0.181841
0.181839
0.181837
0.181834
0.181831
0.181829
0.181826
0.181823
0.18182
0.181816
0.181813
0.18181
0.181806
0.181802
0.181798
0.181794
0.181789
0.181785
0.18178
0.181774
0.181769
0.181763
0.181756
0.18175
0.181742
0.181735
0.181727
0.181718
0.181709
0.1817
0.18169
0.181679
0.181668
0.181657
0.181645
0.181633
0.18162
0.181607
0.181594
0.181581
0.181567
0.181554
0.18154
0.181526
0.181513
0.181499
0.181486
0.181474
0.181461
0.18145
0.181439
0.181429
0.181419
0.181411
0.181404
0.181398
0.181393
0.181389
0.181387
0.181386
0.181386
0.181386
0.181386
0.18139
0.181395
0.181402
0.18141
0.181419
0.181429
0.181439
0.181451
0.181463
0.181475
0.181489
0.181502
0.181516
0.181529
0.181543
0.181556
0.181569
0.181582
0.181595
0.181607
0.181618
0.181629
0.181639
0.181649
0.181658
0.181666
0.181674
0.181681
0.181688
0.181694
0.1817
0.181705
0.181709
0.181713
0.181717
0.18172
0.181724
0.181726
0.181729
0.181732
0.181734
0.181736
0.181738
0.181741
0.181743
0.181745
0.181747
0.181749
0.181751
0.181753
0.181755
0.181758
0.18176
0.181763
0.181765
0.181768
0.18177
0.181773
0.181776
0.181778
0.181781
0.181784
0.181787
0.18179
0.181793
0.181796
0.181798
0.181801
0.181804
0.181807
0.18181
0.181813
0.181815
0.181818
0.181821
0.181823
0.181826
0.181828
0.18183
0.181832
0.181834
0.181836
0.181838
0.18184
0.181842
0.181844
0.181845
0.181847
0.181848
0.181849
0.181851
0.181852
0.181853
0.181854
0.181855
0.181855
0.181856
0.181857
0.181858
0.181859
0.181859
0.18186
0.181861
0.181861
0.181862
0.181862
0.181863
0.181863
0.181864
0.181864
0.181864
0.181865
0.181865
0.181865
0.181865
0.181864
0.181864
0.181864
0.181863
0.181863
0.181862
0.181861
0.181861
0.18186
0.181859
0.181858
0.181857
0.181856
0.181854
0.181853
0.181852
0.181851
0.181849
0.181848
0.181846
0.181845
0.181843
0.181841
0.18184
0.181838
0.181836
0.181834
0.181832
0.18183
0.181828
0.181826
0.181824
0.181822
0.18182
0.181817
0.181815
0.181812
0.181809
0.181806
0.181803
0.1818
0.181797
0.181793
0.181789
0.181785
0.181781
0.181776
0.181772
0.181767
0.181761
0.181756
0.18175
0.181744
0.181737
0.18173
0.181723
0.181715
0.181707
0.181698
0.18169
0.181681
0.181671
0.181661
0.181651
0.181641
0.18163
0.18162
0.181608
0.181597
0.181586
0.181575
0.181563
0.181552
0.181541
0.18153
0.18152
0.181509
0.181499
0.18149
0.18148
0.181472
0.181464
0.181457
0.18145
0.181445
0.18144
0.181436
0.181433
0.181431
0.18143
0.18143
0.18143
0.18143
0.181433
0.181436
0.181441
0.181447
0.181454
0.181461
0.181469
0.181478
0.181488
0.181498
0.181508
0.181519
0.18153
0.181541
0.181552
0.181563
0.181574
0.181585
0.181596
0.181606
0.181617
0.181626
0.181636
0.181645
0.181653
0.181662
0.181669
0.181676
0.181683
0.181689
0.181695
0.1817
0.181705
0.18171
0.181714
0.181718
0.181722
0.181725
0.181728
0.181731
0.181734
0.181737
0.181739
0.181741
0.181744
0.181746
0.181748
0.18175
0.181752
0.181754
0.181756
0.181758
0.18176
0.181762
0.181764
0.181766
0.181768
0.181771
0.181773
0.181775
0.181777
0.18178
0.181782
0.181784
0.181787
0.181789
0.181792
0.181794
0.181796
0.181799
0.181801
0.181804
0.181806
0.181808
0.181811
0.181813
0.181815
0.181818
0.18182
0.181822
0.181824
0.181826
0.181828
0.18183
0.181831
0.181833
0.181835
0.181837
0.181838
0.18184
0.181841
0.181842
0.181844
0.181845
0.181846
0.181847
0.181848
0.181849
0.18185
0.181851
0.181851
0.181852
0.181853
0.181853
0.181853
0.181854
0.181854
0.181854
0.181854
0.181854
0.181854
0.181854
0.181854
0.181854
0.181854
0.181853
0.181853
0.181852
0.181852
0.181851
0.181851
0.18185
0.181849
0.181848
0.181847
0.181846
0.181845
0.181844
0.181843
0.181842
0.181841
0.18184
0.181839
0.181837
0.181836
0.181835
0.181833
0.181832
0.18183
0.181829
0.181827
0.181825
0.181823
0.181821
0.181819
0.181817
0.181815
0.181813
0.181811
0.181808
0.181805
0.181803
0.1818
0.181797
0.181794
0.18179
0.181787
0.181783
0.181779
0.181775
0.181771
0.181766
0.181761
0.181756
0.181751
0.181745
0.181739
0.181733
0.181727
0.18172
0.181713
0.181706
0.181698
0.18169
0.181682
0.181674
0.181665
0.181656
0.181647
0.181638
0.181628
0.181619
0.181609
0.181599
0.181589
0.181579
0.18157
0.18156
0.18155
0.181541
0.181532
0.181523
0.181514
0.181506
0.181498
0.18149
0.181483
0.181477
0.181471
0.181466
0.181461
0.181457
0.181454
0.181452
0.18145
0.181449
0.181449
0.18145
0.181451
0.181451
0.181455
0.181456
0.181462
)
;

boundaryField
{
    inlet
    {
        type            calculated;
        value           uniform 0.805169;
    }
    outlet
    {
        type            calculated;
        value           uniform 0.181464;
    }
    emptyWalls
    {
        type            empty;
    }
}


// ************************************************************************* //
