/*--------------------------------*- C++ -*----------------------------------*\
  =========                 |
  \\      /  F ield         | OpenFOAM: The Open Source CFD Toolbox
   \\    /   O peration     | Website:  https://openfoam.org
    \\  /    A nd           | Version:  9
     \\/     M anipulation  |
\*---------------------------------------------------------------------------*/
FoamFile
{
    format      ascii;
    class       surfaceScalarField;
    location    "11050";
    object      phia;
}
// * * * * * * * * * * * * * * * * * * * * * * * * * * * * * * * * * * * * * //

dimensions      [0 2 0 0 0 0 0];

internalField   nonuniform List<scalar> 
999
(
2.74908e-10
2.74786e-10
2.74777e-10
2.74649e-10
2.7457e-10
2.74445e-10
2.74321e-10
2.74175e-10
2.74043e-10
2.73912e-10
2.73792e-10
2.7362e-10
2.73121e-10
2.71322e-10
2.62607e-10
2.24032e-10
2.1438e-10
2.11695e-10
2.10397e-10
2.09562e-10
2.08936e-10
2.08424e-10
2.07997e-10
2.07629e-10
2.07313e-10
2.07037e-10
2.06792e-10
2.06579e-10
2.06386e-10
2.06213e-10
2.06054e-10
2.05906e-10
2.05767e-10
2.05629e-10
2.05499e-10
2.05372e-10
2.05252e-10
2.05141e-10
2.0504e-10
2.04952e-10
2.04886e-10
2.04856e-10
2.04865e-10
2.04891e-10
2.04921e-10
2.0495e-10
2.04975e-10
2.04995e-10
2.05015e-10
2.05051e-10
2.05119e-10
2.05237e-10
2.05415e-10
2.05648e-10
2.05926e-10
2.06231e-10
2.06548e-10
2.06864e-10
2.07169e-10
2.07455e-10
2.07713e-10
2.07932e-10
2.08099e-10
2.08201e-10
2.08224e-10
2.0816e-10
2.08005e-10
2.07762e-10
2.07442e-10
2.0706e-10
2.06635e-10
2.06189e-10
2.05743e-10
2.05316e-10
2.04925e-10
2.0458e-10
2.0429e-10
2.04056e-10
2.03876e-10
2.03748e-10
2.03663e-10
2.03615e-10
2.03594e-10
2.03593e-10
2.03603e-10
2.03618e-10
2.03633e-10
2.03643e-10
2.03645e-10
2.03639e-10
2.03622e-10
2.03595e-10
2.03559e-10
2.03514e-10
2.03461e-10
2.03402e-10
2.03339e-10
2.03271e-10
2.03201e-10
2.03128e-10
2.03055e-10
2.02981e-10
2.02907e-10
2.02834e-10
2.02762e-10
2.02691e-10
2.02621e-10
2.02553e-10
2.02486e-10
2.02422e-10
2.02358e-10
2.02297e-10
2.02237e-10
2.02178e-10
2.02121e-10
2.02065e-10
2.0201e-10
2.01955e-10
2.01901e-10
2.01848e-10
2.01796e-10
2.01744e-10
2.01693e-10
2.01642e-10
2.01592e-10
2.01542e-10
2.01494e-10
2.01445e-10
2.01398e-10
2.01351e-10
2.01305e-10
2.0126e-10
2.01217e-10
2.01174e-10
2.01132e-10
2.01091e-10
2.01051e-10
2.01012e-10
2.00974e-10
2.00937e-10
2.00901e-10
2.00867e-10
2.00833e-10
2.00801e-10
2.00769e-10
2.00739e-10
2.0071e-10
2.00681e-10
2.00654e-10
2.00627e-10
2.00602e-10
2.00577e-10
2.00554e-10
2.00531e-10
2.00508e-10
2.00486e-10
2.00465e-10
2.00443e-10
2.00421e-10
2.004e-10
2.00377e-10
2.00355e-10
2.00332e-10
2.0031e-10
2.00287e-10
2.00265e-10
2.00244e-10
2.00223e-10
2.00203e-10
2.00184e-10
2.00166e-10
2.00149e-10
2.00133e-10
2.00118e-10
2.00104e-10
2.00093e-10
2.00084e-10
2.00079e-10
2.00079e-10
2.00085e-10
2.00099e-10
2.00122e-10
2.00156e-10
2.00201e-10
2.00259e-10
2.00331e-10
2.00416e-10
2.00515e-10
2.00627e-10
2.00752e-10
2.00886e-10
2.0103e-10
2.01179e-10
2.01333e-10
2.01487e-10
2.01638e-10
2.01783e-10
2.01916e-10
2.02036e-10
2.02136e-10
2.02215e-10
2.02268e-10
2.02292e-10
2.02285e-10
2.02247e-10
2.02175e-10
2.02072e-10
2.01937e-10
2.01775e-10
2.01588e-10
2.01379e-10
2.01155e-10
2.00918e-10
2.00676e-10
2.00432e-10
2.00191e-10
1.99957e-10
1.99734e-10
1.99524e-10
1.9933e-10
1.99152e-10
1.98993e-10
1.98851e-10
1.98726e-10
1.98617e-10
1.98524e-10
1.98444e-10
1.98376e-10
1.98317e-10
1.98267e-10
1.98223e-10
1.98185e-10
1.98149e-10
1.98115e-10
1.98082e-10
1.98049e-10
1.98015e-10
1.97979e-10
1.97941e-10
1.97901e-10
1.97858e-10
1.97812e-10
1.97764e-10
1.97713e-10
1.9766e-10
1.97604e-10
1.97547e-10
1.97488e-10
1.97427e-10
1.97365e-10
1.97303e-10
1.97239e-10
1.97176e-10
1.97112e-10
1.97047e-10
1.96983e-10
1.96919e-10
1.96856e-10
1.96793e-10
1.9673e-10
1.96668e-10
1.96606e-10
1.96546e-10
1.96485e-10
1.96426e-10
1.96367e-10
1.96309e-10
1.96252e-10
1.96195e-10
1.96139e-10
1.96084e-10
1.96029e-10
1.95976e-10
1.95922e-10
1.9587e-10
1.95818e-10
1.95767e-10
1.95716e-10
1.95666e-10
1.95617e-10
1.95568e-10
1.9552e-10
1.95472e-10
1.95425e-10
1.95378e-10
1.95332e-10
1.95286e-10
1.95241e-10
1.95197e-10
1.95153e-10
1.95109e-10
1.95066e-10
1.95024e-10
1.94982e-10
1.9494e-10
1.94899e-10
1.94859e-10
1.94819e-10
1.9478e-10
1.94742e-10
1.94703e-10
1.94666e-10
1.94629e-10
1.94593e-10
1.94557e-10
1.94522e-10
1.94487e-10
1.94453e-10
1.94419e-10
1.94386e-10
1.94353e-10
1.9432e-10
1.94288e-10
1.94257e-10
1.94225e-10
1.94194e-10
1.94164e-10
1.94133e-10
1.94103e-10
1.94072e-10
1.94043e-10
1.94013e-10
1.93983e-10
1.93954e-10
1.93925e-10
1.93896e-10
1.93867e-10
1.93839e-10
1.93811e-10
1.93784e-10
1.93757e-10
1.93732e-10
1.93706e-10
1.93682e-10
1.93659e-10
1.93638e-10
1.93618e-10
1.936e-10
1.93585e-10
1.93572e-10
1.93563e-10
1.93557e-10
1.93555e-10
1.93557e-10
1.93564e-10
1.93576e-10
1.93593e-10
1.93617e-10
1.93646e-10
1.93682e-10
1.93723e-10
1.93771e-10
1.93825e-10
1.93885e-10
1.9395e-10
1.9402e-10
1.94094e-10
1.94172e-10
1.94253e-10
1.94335e-10
1.94417e-10
1.945e-10
1.9458e-10
1.94656e-10
1.94729e-10
1.94795e-10
1.94853e-10
1.94903e-10
1.94942e-10
1.94969e-10
1.94985e-10
1.94986e-10
1.94973e-10
1.94945e-10
1.94902e-10
1.94843e-10
1.94769e-10
1.9468e-10
1.94577e-10
1.9446e-10
1.94332e-10
1.94193e-10
1.94044e-10
1.93888e-10
1.93726e-10
1.9356e-10
1.93391e-10
1.93221e-10
1.93053e-10
1.92886e-10
1.92723e-10
1.92565e-10
1.92413e-10
1.92267e-10
1.92127e-10
1.91995e-10
1.91871e-10
1.91754e-10
1.91645e-10
1.91542e-10
1.91447e-10
1.91358e-10
1.91275e-10
1.91197e-10
1.91124e-10
1.91056e-10
1.90991e-10
1.90929e-10
1.90869e-10
1.90812e-10
1.90757e-10
1.90703e-10
1.9065e-10
1.90598e-10
1.90546e-10
1.90495e-10
1.90444e-10
1.90393e-10
1.90343e-10
1.90294e-10
1.90245e-10
1.90197e-10
1.9015e-10
1.90104e-10
1.90059e-10
1.90016e-10
1.89974e-10
1.89934e-10
1.89896e-10
1.89859e-10
1.89823e-10
1.89789e-10
1.89754e-10
1.89718e-10
1.89678e-10
1.89631e-10
1.8957e-10
1.89482e-10
1.89347e-10
1.89135e-10
1.88804e-10
1.88311e-10
1.87647e-10
1.86882e-10
1.86172e-10
1.85653e-10
1.85342e-10
1.85177e-10
1.8509e-10
1.85041e-10
1.8501e-10
1.84988e-10
1.8497e-10
1.84955e-10
1.84942e-10
1.84929e-10
1.84918e-10
1.84907e-10
1.84896e-10
1.84887e-10
1.84877e-10
1.84869e-10
1.84861e-10
1.84853e-10
1.84846e-10
1.84839e-10
1.84833e-10
1.84827e-10
1.84821e-10
1.84816e-10
1.84811e-10
1.84807e-10
1.84803e-10
1.84799e-10
1.84796e-10
1.84793e-10
1.8479e-10
1.84788e-10
1.84786e-10
1.84784e-10
1.84783e-10
1.84782e-10
1.84782e-10
1.84782e-10
1.84782e-10
1.84782e-10
1.84783e-10
1.84784e-10
1.84786e-10
1.84788e-10
1.84791e-10
1.84793e-10
1.84797e-10
1.848e-10
1.84804e-10
1.84809e-10
1.84814e-10
1.84819e-10
1.84824e-10
1.8483e-10
1.84837e-10
1.84843e-10
1.8485e-10
1.84858e-10
1.84866e-10
1.84874e-10
1.84882e-10
1.84891e-10
1.849e-10
1.84909e-10
1.84919e-10
1.84929e-10
1.8494e-10
1.8495e-10
1.84962e-10
1.84973e-10
1.84985e-10
1.84997e-10
1.8501e-10
1.85023e-10
1.85037e-10
1.85051e-10
1.85066e-10
1.85082e-10
1.85099e-10
1.85116e-10
1.85134e-10
1.85154e-10
1.85174e-10
1.85196e-10
1.8522e-10
1.85245e-10
1.85271e-10
1.853e-10
1.85331e-10
1.85364e-10
1.85399e-10
1.85437e-10
1.85477e-10
1.8552e-10
1.85566e-10
1.85616e-10
1.85668e-10
1.85724e-10
1.85782e-10
1.85844e-10
1.8591e-10
1.85978e-10
1.8605e-10
1.86125e-10
1.86202e-10
1.86283e-10
1.86365e-10
1.8645e-10
1.86537e-10
1.86625e-10
1.86714e-10
1.86804e-10
1.86894e-10
1.86984e-10
1.87072e-10
1.87159e-10
1.87244e-10
1.87326e-10
1.87404e-10
1.87479e-10
1.87548e-10
1.87612e-10
1.8767e-10
1.87722e-10
1.87766e-10
1.87803e-10
1.87832e-10
1.87852e-10
1.87863e-10
1.87867e-10
1.87867e-10
1.87865e-10
1.87856e-10
1.87822e-10
1.87783e-10
1.87736e-10
1.87681e-10
1.8762e-10
1.87553e-10
1.8748e-10
1.87402e-10
1.87321e-10
1.87237e-10
1.8715e-10
1.87061e-10
1.86972e-10
1.86883e-10
1.86794e-10
1.86707e-10
1.86622e-10
1.86539e-10
1.86459e-10
1.86382e-10
1.86309e-10
1.8624e-10
1.86175e-10
1.86114e-10
1.86057e-10
1.86004e-10
1.85955e-10
1.85911e-10
1.85869e-10
1.85832e-10
1.85798e-10
1.85767e-10
1.85738e-10
1.85713e-10
1.85689e-10
1.85668e-10
1.85649e-10
1.85631e-10
1.85614e-10
1.85598e-10
1.85583e-10
1.85568e-10
1.85555e-10
1.85541e-10
1.85527e-10
1.85514e-10
1.855e-10
1.85486e-10
1.85471e-10
1.85457e-10
1.85442e-10
1.85426e-10
1.8541e-10
1.85394e-10
1.85377e-10
1.8536e-10
1.85342e-10
1.85324e-10
1.85306e-10
1.85287e-10
1.85269e-10
1.8525e-10
1.8523e-10
1.85211e-10
1.85192e-10
1.85172e-10
1.85153e-10
1.85134e-10
1.85115e-10
1.85096e-10
1.85077e-10
1.85059e-10
1.85041e-10
1.85023e-10
1.85006e-10
1.84989e-10
1.84973e-10
1.84957e-10
1.84942e-10
1.84927e-10
1.84912e-10
1.84899e-10
1.84885e-10
1.84873e-10
1.84861e-10
1.84849e-10
1.84838e-10
1.84828e-10
1.84818e-10
1.84809e-10
1.848e-10
1.84792e-10
1.84785e-10
1.84778e-10
1.84772e-10
1.84766e-10
1.84761e-10
1.84756e-10
1.84752e-10
1.84748e-10
1.84745e-10
1.84742e-10
1.8474e-10
1.84739e-10
1.84737e-10
1.84737e-10
1.84736e-10
1.84736e-10
1.84736e-10
1.84736e-10
1.84737e-10
1.84739e-10
1.84741e-10
1.84744e-10
1.84747e-10
1.8475e-10
1.84753e-10
1.84757e-10
1.84761e-10
1.84766e-10
1.84771e-10
1.84776e-10
1.84782e-10
1.84788e-10
1.84794e-10
1.84801e-10
1.84808e-10
1.84815e-10
1.84822e-10
1.8483e-10
1.84838e-10
1.84847e-10
1.84856e-10
1.84865e-10
1.84874e-10
1.84884e-10
1.84894e-10
1.84904e-10
1.84915e-10
1.84926e-10
1.84937e-10
1.84949e-10
1.84961e-10
1.84974e-10
1.84987e-10
1.85001e-10
1.85015e-10
1.8503e-10
1.85045e-10
1.85061e-10
1.85078e-10
1.85095e-10
1.85114e-10
1.85133e-10
1.85153e-10
1.85175e-10
1.85198e-10
1.85222e-10
1.85247e-10
1.85274e-10
1.85303e-10
1.85333e-10
1.85365e-10
1.85399e-10
1.85435e-10
1.85473e-10
1.85513e-10
1.85556e-10
1.856e-10
1.85647e-10
1.85697e-10
1.85749e-10
1.85803e-10
1.8586e-10
1.85919e-10
1.8598e-10
1.86043e-10
1.86109e-10
1.86176e-10
1.86245e-10
1.86316e-10
1.86388e-10
1.86461e-10
1.86535e-10
1.8661e-10
1.86684e-10
1.86759e-10
1.86833e-10
1.86906e-10
1.86977e-10
1.87047e-10
1.87115e-10
1.8718e-10
1.87242e-10
1.873e-10
1.87354e-10
1.87404e-10
1.8745e-10
1.8749e-10
1.87524e-10
1.87553e-10
1.87576e-10
1.87592e-10
1.87602e-10
1.87605e-10
1.87606e-10
1.87606e-10
1.876e-10
1.87576e-10
1.87547e-10
1.87511e-10
1.8747e-10
1.87423e-10
1.87371e-10
1.87315e-10
1.87254e-10
1.8719e-10
1.87123e-10
1.87053e-10
1.86981e-10
1.86908e-10
1.86834e-10
1.8676e-10
1.86686e-10
1.86613e-10
1.86541e-10
1.86471e-10
1.86402e-10
1.86336e-10
1.86272e-10
1.86211e-10
1.86153e-10
1.86098e-10
1.86046e-10
1.85997e-10
1.85951e-10
1.85908e-10
1.85868e-10
1.85831e-10
1.85796e-10
1.85764e-10
1.85735e-10
1.85708e-10
1.85683e-10
1.85659e-10
1.85638e-10
1.85618e-10
1.85599e-10
1.85582e-10
1.85565e-10
1.8555e-10
1.85535e-10
1.8552e-10
1.85506e-10
1.85492e-10
1.85479e-10
1.85466e-10
1.85452e-10
1.85439e-10
1.85425e-10
1.85412e-10
1.85398e-10
1.85384e-10
1.8537e-10
1.85355e-10
1.8534e-10
1.85325e-10
1.8531e-10
1.85295e-10
1.85279e-10
1.85264e-10
1.85248e-10
1.85232e-10
1.85215e-10
1.85199e-10
1.85183e-10
1.85167e-10
1.85151e-10
1.85135e-10
1.85119e-10
1.85103e-10
1.85087e-10
1.85072e-10
1.85056e-10
1.85041e-10
1.85027e-10
1.85012e-10
1.84998e-10
1.84984e-10
1.84971e-10
1.84958e-10
1.84946e-10
1.84934e-10
1.84922e-10
1.84911e-10
1.84901e-10
1.84891e-10
1.84881e-10
1.84872e-10
1.84864e-10
1.84856e-10
1.84849e-10
1.84842e-10
1.84836e-10
1.8483e-10
1.84825e-10
1.8482e-10
1.84816e-10
1.84812e-10
1.84809e-10
1.84806e-10
1.84804e-10
1.84803e-10
1.84801e-10
1.84801e-10
1.848e-10
1.848e-10
1.848e-10
1.84801e-10
1.84802e-10
1.84804e-10
1.84806e-10
1.84809e-10
1.84812e-10
1.84815e-10
1.84818e-10
1.84822e-10
1.84826e-10
1.84831e-10
1.84836e-10
1.84841e-10
1.84846e-10
1.84852e-10
1.84858e-10
1.84864e-10
1.84871e-10
1.84878e-10
1.84885e-10
1.84893e-10
1.84901e-10
1.84909e-10
1.84917e-10
1.84926e-10
1.84935e-10
1.84945e-10
1.84954e-10
1.84965e-10
1.84975e-10
1.84987e-10
1.84998e-10
1.8501e-10
1.85023e-10
1.85036e-10
1.8505e-10
1.85064e-10
1.85079e-10
1.85095e-10
1.85112e-10
1.85129e-10
1.85148e-10
1.85167e-10
1.85188e-10
1.85209e-10
1.85232e-10
1.85256e-10
1.85281e-10
1.85308e-10
1.85336e-10
1.85366e-10
1.85397e-10
1.8543e-10
1.85464e-10
1.85501e-10
1.85539e-10
1.85579e-10
1.85621e-10
1.85665e-10
1.8571e-10
1.85758e-10
1.85807e-10
1.85859e-10
1.85912e-10
1.85967e-10
1.86023e-10
1.86082e-10
1.86141e-10
1.86202e-10
1.86264e-10
1.86328e-10
1.86392e-10
1.86456e-10
1.86521e-10
1.86587e-10
1.86652e-10
1.86717e-10
1.86781e-10
1.86844e-10
1.86906e-10
1.86967e-10
1.87025e-10
1.87082e-10
1.87136e-10
1.87187e-10
1.87235e-10
1.87279e-10
1.8732e-10
1.87357e-10
1.8739e-10
1.87418e-10
1.87441e-10
1.8746e-10
1.87473e-10
1.8748e-10
1.87482e-10
1.87483e-10
1.87481e-10
1.87473e-10
1.87463e-10
1.87442e-10
1.87419e-10
)
;

boundaryField
{
    inlet
    {
        type            calculated;
        value           uniform -2.74882e-10;
    }
    outlet
    {
        type            calculated;
        value           uniform 1.87385e-10;
    }
    emptyWalls
    {
        type            empty;
        value           nonuniform List<scalar> 0();
    }
}


// ************************************************************************* //
