/*--------------------------------*- C++ -*----------------------------------*\
  =========                 |
  \\      /  F ield         | OpenFOAM: The Open Source CFD Toolbox
   \\    /   O peration     | Website:  https://openfoam.org
    \\  /    A nd           | Version:  9
     \\/     M anipulation  |
\*---------------------------------------------------------------------------*/
FoamFile
{
    format      ascii;
    class       volScalarField;
    location    "78000";
    object      krc;
}
// * * * * * * * * * * * * * * * * * * * * * * * * * * * * * * * * * * * * * //

dimensions      [0 0 0 0 0 0 0];

internalField   nonuniform List<scalar> 
100
(
1.34882e-22
3.03093e-24
3.1711e-24
4.03313e-24
6.64474e-25
3.19491e-24
3.88194e-25
1.95e-27
1.84036e-24
5.57556e-25
1.9368e-24
4.15816e-26
7.22915e-25
1.92306e-24
2.53008e-24
1.90872e-24
2.389e-24
3.74811e-25
2.58254e-24
3.0512e-24
2.85689e-25
3.10076e-24
6.78368e-25
2.63274e-24
1.68469e-24
2.99958e-24
1.61551e-24
3.1739e-24
1.49876e-24
2.77656e-24
1.2549e-24
7.27863e-25
3.90737e-24
3.40046e-24
3.61973e-26
4.45976e-24
1.02996e-24
7.98764e-25
1.19071e-25
2.38167e-25
4.01219e-26
4.10344e-24
1.10981e-23
1.6586e-26
7.45825e-24
3.03668e-24
3.81958e-25
1.29709e-23
3.34345e-25
7.24434e-26
4.43856e-24
3.56542e-24
1.18403e-23
8.82922e-28
5.40523e-26
7.48615e-24
8.16794e-26
4.68569e-25
6.71941e-24
4.3144e-24
3.97532e-24
2.58608e-24
1.0062e-24
1.87589e-24
2.32309e-26
4.07962e-24
2.01894e-24
3.73247e-24
1.93768e-24
7.10974e-26
2.91132e-24
2.71386e-24
7.27729e-25
1.53298e-24
4.85717e-24
5.06666e-24
1.76964e-23
2.98892e-23
7.95547e-23
7.90108e-23
1.60542e-22
1.52666e-22
2.97154e-22
4.89866e-22
6.56965e-22
9.66958e-22
1.44094e-21
2.04417e-21
2.8447e-21
4.05505e-21
5.61916e-21
7.77987e-21
1.2112e-20
1.43724e-20
3.35637e-21
6.44424e-20
5.38566e-18
2.48655e-17
6.18554e-16
4.01557e-15
)
;

boundaryField
{
    inlet
    {
        type            calculated;
        value           uniform 1.34882e-22;
    }
    outlet
    {
        type            calculated;
        value           uniform 4.01557e-15;
    }
    emptyWalls
    {
        type            empty;
    }
}


// ************************************************************************* //
