/*--------------------------------*- C++ -*----------------------------------*\
  =========                 |
  \\      /  F ield         | OpenFOAM: The Open Source CFD Toolbox
   \\    /   O peration     | Website:  https://openfoam.org
    \\  /    A nd           | Version:  9
     \\/     M anipulation  |
\*---------------------------------------------------------------------------*/
FoamFile
{
    format      ascii;
    class       volScalarField;
    location    "17100";
    object      Fa;
}
// * * * * * * * * * * * * * * * * * * * * * * * * * * * * * * * * * * * * * //

dimensions      [0 0 0 0 0 0 0];

internalField   nonuniform List<scalar> 
1000
(
0.194848
0.194793
0.19479
0.194762
0.194733
0.194686
0.194659
0.194599
0.194552
0.194495
0.194415
0.194381
0.19425
0.194281
0.194068
0.194176
0.193914
0.194032
0.193825
0.193884
0.193746
0.193621
0.192896
0.187972
0.161947
0.152788
0.150812
0.149953
0.149448
0.149117
0.148874
0.148654
0.148442
0.148281
0.148248
0.148389
0.148686
0.149055
0.149385
0.149587
0.149634
0.149564
0.149453
0.149345
0.149166
0.148749
0.148241
0.147726
0.147264
0.146811
0.146473
0.146179
0.145964
0.145812
0.145715
0.145658
0.145631
0.145623
0.145624
0.145626
0.145623
0.145613
0.145594
0.145568
0.145537
0.145505
0.145474
0.145446
0.145412
0.145376
0.145337
0.145296
0.145255
0.145214
0.145172
0.145131
0.145091
0.145051
0.145012
0.144974
0.144936
0.144899
0.144863
0.144827
0.144792
0.144758
0.144725
0.144693
0.144661
0.144631
0.144601
0.144573
0.144544
0.144518
0.144491
0.144466
0.144441
0.144418
0.144395
0.144373
0.144352
0.144332
0.144313
0.144294
0.144276
0.14426
0.144243
0.144228
0.144214
0.144201
0.14419
0.144179
0.14417
0.144162
0.144155
0.144149
0.144143
0.144137
0.144131
0.144124
0.144118
0.144111
0.144104
0.144098
0.144093
0.144088
0.144085
0.144083
0.144082
0.144082
0.144083
0.144083
0.144081
0.144078
0.144073
0.144068
0.144064
0.144062
0.144068
0.144082
0.144108
0.144148
0.144203
0.144275
0.144363
0.144466
0.144584
0.144713
0.144853
0.144999
0.145149
0.145299
0.145445
0.145583
0.145709
0.145818
0.145905
0.145967
0.146
0.146003
0.145973
0.145911
0.145819
0.145699
0.145556
0.145394
0.145219
0.145036
0.14485
0.144668
0.144493
0.14433
0.144181
0.144047
0.143931
0.143831
0.143748
0.143681
0.143627
0.143585
0.143554
0.14353
0.143512
0.143499
0.143489
0.14348
0.143471
0.143461
0.143449
0.143436
0.14342
0.143402
0.143381
0.143358
0.143332
0.143304
0.143275
0.143243
0.143211
0.143177
0.143142
0.143106
0.14307
0.143034
0.142997
0.14296
0.142923
0.142887
0.142851
0.142814
0.142779
0.142743
0.142709
0.142674
0.14264
0.142607
0.142574
0.142542
0.14251
0.142479
0.142448
0.142418
0.142389
0.14236
0.142332
0.142305
0.142278
0.142252
0.142226
0.142201
0.142177
0.142153
0.142131
0.142108
0.142087
0.142066
0.142046
0.142026
0.142008
0.141989
0.141972
0.141956
0.14194
0.141925
0.141912
0.141898
0.141886
0.141873
0.141862
0.141851
0.141841
0.14183
0.141821
0.141811
0.141803
0.141794
0.141786
0.141778
0.141771
0.141764
0.141757
0.141751
0.141745
0.14174
0.141735
0.141729
0.141724
0.141719
0.141714
0.14171
0.141706
0.141704
0.141703
0.141704
0.141707
0.141714
0.141726
0.141742
0.141763
0.141791
0.141825
0.141866
0.141914
0.14197
0.142032
0.142102
0.142177
0.142259
0.142344
0.142434
0.142526
0.142619
0.142711
0.142801
0.142887
0.142967
0.143039
0.143102
0.143154
0.143194
0.143219
0.14323
0.143226
0.143206
0.143171
0.14312
0.143055
0.142977
0.142887
0.142787
0.142679
0.142565
0.142446
0.142326
0.142206
0.142088
0.141973
0.141862
0.141757
0.141659
0.141568
0.141484
0.141408
0.141339
0.141278
0.141223
0.141174
0.141131
0.141092
0.141058
0.141027
0.141
0.140974
0.14095
0.140928
0.140906
0.140884
0.140862
0.14084
0.140817
0.140793
0.140769
0.140744
0.140717
0.14069
0.140662
0.140632
0.140602
0.140572
0.14054
0.140508
0.140475
0.140442
0.140408
0.140375
0.140341
0.140307
0.140273
0.140239
0.140205
0.140171
0.140138
0.140104
0.140071
0.140039
0.140006
0.139974
0.139943
0.139912
0.139881
0.139851
0.139821
0.139792
0.139763
0.139735
0.139707
0.13968
0.139653
0.139627
0.139601
0.139576
0.139552
0.139528
0.139504
0.139481
0.139459
0.139437
0.139416
0.139395
0.139375
0.139356
0.139337
0.139319
0.139301
0.139284
0.139267
0.139251
0.139236
0.13922
0.139206
0.139192
0.139178
0.139165
0.139152
0.13914
0.139128
0.139116
0.139105
0.139094
0.139083
0.139073
0.139063
0.139053
0.139043
0.139034
0.139025
0.139016
0.139008
0.139
0.138992
0.138984
0.138977
0.13897
0.138963
0.138957
0.138952
0.138948
0.138944
0.138942
0.138942
0.138943
0.138946
0.138952
0.13896
0.138971
0.138985
0.139002
0.139023
0.139048
0.139076
0.139108
0.139144
0.139183
0.139227
0.139274
0.139324
0.139376
0.139432
0.139489
0.139547
0.139607
0.139666
0.139725
0.139782
0.139837
0.139889
0.139937
0.13998
0.140019
0.14005
0.140075
0.140092
0.140102
0.140102
0.140095
0.140078
0.140053
0.140019
0.139976
0.139925
0.139867
0.139801
0.13973
0.139653
0.139572
0.139487
0.139399
0.13931
0.139219
0.139129
0.13904
0.138952
0.138867
0.138784
0.138704
0.138628
0.138555
0.138487
0.138422
0.138362
0.138305
0.138252
0.138203
0.138157
0.138114
0.138074
0.138037
0.138001
0.137968
0.137936
0.137906
0.137877
0.137849
0.137821
0.137794
0.137767
0.13774
0.137713
0.137686
0.137659
0.137631
0.137603
0.137575
0.137546
0.137517
0.137487
0.137457
0.137427
0.137396
0.137365
0.137334
0.137302
0.13727
0.137238
0.137206
0.137174
0.137142
0.137109
0.137077
0.137045
0.137013
0.13698
0.136949
0.136917
0.136886
0.136855
0.136824
0.136793
0.136763
0.136733
0.136703
0.136673
0.136644
0.136615
0.136587
0.136559
0.136532
0.136504
0.136477
0.136451
0.136425
0.136399
0.136374
0.136349
0.136324
0.1363
0.136277
0.136253
0.13623
0.136208
0.136186
0.136164
0.136143
0.136122
0.136102
0.136081
0.136062
0.136042
0.136023
0.136005
0.135987
0.135969
0.135951
0.135934
0.135917
0.1359
0.135883
0.135867
0.135851
0.135836
0.13582
0.135805
0.13579
0.135776
0.135761
0.135747
0.135733
0.135719
0.135705
0.135692
0.135679
0.135666
0.135653
0.135641
0.135629
0.135618
0.135607
0.135596
0.135586
0.135577
0.135569
0.135561
0.135555
0.13555
0.135545
0.135543
0.135541
0.135542
0.135544
0.135548
0.135554
0.135562
0.135572
0.135584
0.135599
0.135616
0.135635
0.135656
0.13568
0.135705
0.135733
0.135763
0.135794
0.135827
0.135861
0.135896
0.135932
0.135968
0.136005
0.136041
0.136077
0.136111
0.136144
0.136176
0.136205
0.136232
0.136255
0.136275
0.136292
0.136304
0.136312
0.136316
0.136314
0.136308
0.136297
0.13628
0.136258
0.136232
0.1362
0.136164
0.136123
0.136078
0.136029
0.135977
0.135922
0.135864
0.135805
0.135744
0.135682
0.13562
0.135557
0.135496
0.135434
0.135375
0.135316
0.13526
0.135206
0.135154
0.135105
0.135058
0.135014
0.134973
0.134934
0.134897
0.134864
0.134831
0.1348
0.13477
0.134737
0.1347
0.134653
0.134586
0.134485
0.134325
0.134075
0.133703
0.133205
0.132646
0.132157
0.131825
0.131641
0.131547
0.131498
0.13147
0.131453
0.13144
0.131429
0.13142
0.131411
0.131403
0.131394
0.131385
0.131377
0.131368
0.131359
0.131349
0.13134
0.131331
0.131321
0.131311
0.131301
0.131291
0.131281
0.131271
0.131261
0.13125
0.13124
0.13123
0.13122
0.13121
0.131199
0.131189
0.131179
0.13117
0.13116
0.13115
0.131141
0.131132
0.131123
0.131114
0.131105
0.131097
0.131089
0.131081
0.131073
0.131065
0.131058
0.131051
0.131044
0.131038
0.131032
0.131026
0.13102
0.131015
0.13101
0.131005
0.131001
0.130997
0.130993
0.13099
0.130986
0.130984
0.130981
0.130979
0.130977
0.130975
0.130974
0.130973
0.130972
0.130972
0.130972
0.130972
0.130972
0.130973
0.130974
0.130975
0.130977
0.130979
0.130981
0.130983
0.130986
0.130989
0.130992
0.130995
0.130999
0.131003
0.131007
0.131012
0.131016
0.131021
0.131026
0.131032
0.131037
0.131043
0.131049
0.131056
0.131063
0.13107
0.131077
0.131085
0.131094
0.131102
0.131111
0.131121
0.131132
0.131142
0.131154
0.131166
0.131179
0.131193
0.131208
0.131224
0.131241
0.131259
0.131278
0.131298
0.131319
0.131342
0.131366
0.131391
0.131418
0.131446
0.131476
0.131507
0.13154
0.131574
0.131609
0.131646
0.131685
0.131724
0.131765
0.131807
0.13185
0.131894
0.131939
0.131985
0.132031
0.132077
0.132124
0.13217
0.132216
0.132262
0.132307
0.132351
0.132394
0.132436
0.132476
0.132514
0.13255
0.132584
0.132615
0.132644
0.132669
0.132692
0.132711
0.132727
0.13274
0.132748
0.132753
0.132755
0.132755
0.132754
0.13275
0.132738
0.132722
0.132702
0.13268
0.132654
0.132626
0.132596
0.132563
0.132528
0.132492
0.132454
0.132414
0.132374
0.132333
0.132292
0.132251
0.132209
0.132168
0.132128
0.132088
0.132049
0.132011
0.131974
0.131938
0.131903
0.13187
0.131839
0.131808
0.13178
0.131752
0.131727
0.131702
0.131679
0.131657
0.131637
0.131618
0.1316
0.131583
0.131566
0.131551
0.131537
0.131523
0.13151
0.131498
0.131486
0.131474
0.131463
0.131452
0.131441
0.131431
0.131421
0.131411
0.131401
0.131391
0.131381
0.131371
0.131361
0.131351
0.131341
0.13133
0.13132
0.13131
0.1313
0.13129
0.131279
0.131269
0.131259
0.131248
0.131238
0.131227
0.131217
0.131207
0.131197
0.131186
0.131176
0.131166
0.131157
0.131147
0.131137
0.131128
0.131119
0.13111
0.131101
0.131092
0.131084
0.131075
0.131067
0.13106
0.131052
0.131045
0.131038
0.131031
0.131025
0.131019
0.131013
0.131007
0.131002
0.130997
0.130993
0.130988
0.130984
0.13098
0.130977
0.130974
0.130971
0.130969
0.130967
0.130965
0.130963
0.130962
0.130961
0.130961
0.130961
0.130961
0.130961
0.130961
0.130962
0.130963
0.130965
0.130965
0.130969
0.13097
0.130974
0.130975
0.13098
0.130982
0.130987
0.130989
0.130996
0.130998
0.131005
0.131008
0.131016
0.131019
0.131028
0.131031
0.131041
0.131044
0.131056
0.131059
0.131072
0.131075
0.13109
0.131094
0.13111
0.131114
0.131142
)
;

boundaryField
{
    inlet
    {
        type            calculated;
        value           uniform 0.194831;
    }
    outlet
    {
        type            calculated;
        value           uniform 0.131134;
    }
    emptyWalls
    {
        type            empty;
    }
}


// ************************************************************************* //
