/*--------------------------------*- C++ -*----------------------------------*\
  =========                 |
  \\      /  F ield         | OpenFOAM: The Open Source CFD Toolbox
   \\    /   O peration     | Website:  https://openfoam.org
    \\  /    A nd           | Version:  9
     \\/     M anipulation  |
\*---------------------------------------------------------------------------*/
FoamFile
{
    format      ascii;
    class       volScalarField;
    location    "800";
    object      Fa;
}
// * * * * * * * * * * * * * * * * * * * * * * * * * * * * * * * * * * * * * //

dimensions      [0 0 0 0 0 0 0];

internalField   nonuniform List<scalar> 
100
(
0.697854
0.695531
0.692864
0.689888
0.686452
0.682049
0.677903
0.673415
0.668774
0.663864
0.658703
0.653253
0.647491
0.641376
0.634862
0.627878
0.62033
0.612081
0.602923
0.592531
0.580354
0.565403
0.545719
0.516936
0.467697
0.364228
0.152929
0.0132097
3.33464e-05
4.36728e-11
1.5074e-23
1.2811e-31
1.10877e-31
3.32128e-32
2.48434e-33
1.50534e-33
1.51834e-33
1.39139e-33
1.39137e-33
1.47488e-33
1.51755e-33
1.51755e-33
1.51755e-33
1.51755e-33
1.51755e-33
1.39137e-33
1.51755e-33
1.51755e-33
1.39137e-33
1.51755e-33
1.47488e-33
1.39137e-33
1.39137e-33
1.51755e-33
1.39137e-33
1.47488e-33
1.39137e-33
1.39137e-33
1.47488e-33
1.51755e-33
1.47488e-33
1.51755e-33
1.47488e-33
1.39137e-33
1.39137e-33
1.64924e-33
1.51755e-33
1.60473e-33
1.39137e-33
1.39137e-33
1.51755e-33
1.60473e-33
1.51755e-33
1.64924e-33
1.60473e-33
1.64924e-33
1.51755e-33
1.51755e-33
1.51755e-33
1.60473e-33
1.39137e-33
1.64924e-33
1.51755e-33
1.51755e-33
1.60473e-33
1.35053e-33
1.64924e-33
1.51755e-33
1.60473e-33
1.64924e-33
1.60473e-33
1.64924e-33
1.51755e-33
1.60473e-33
1.64924e-33
1.39137e-33
1.60473e-33
1.64924e-33
1.60473e-33
1.64924e-33
)
;

boundaryField
{
    inlet
    {
        type            calculated;
        value           uniform 0.382094;
    }
    outlet
    {
        type            calculated;
        value           uniform 5.9205e-34;
    }
    emptyWalls
    {
        type            empty;
    }
}


// ************************************************************************* //
