/*--------------------------------*- C++ -*----------------------------------*\
  =========                 |
  \\      /  F ield         | OpenFOAM: The Open Source CFD Toolbox
   \\    /   O peration     | Website:  https://openfoam.org
    \\  /    A nd           | Version:  9
     \\/     M anipulation  |
\*---------------------------------------------------------------------------*/
FoamFile
{
    format      ascii;
    class       volScalarField;
    location    "800";
    object      Fshear;
}
// * * * * * * * * * * * * * * * * * * * * * * * * * * * * * * * * * * * * * //

dimensions      [0 0 0 0 0 0 0];

internalField   nonuniform List<scalar> 
100
(
0.267505
0.368427
0.316918
0.322321
0.310941
0.308484
0.310962
0.316826
0.321118
0.325902
0.330451
0.335116
0.339817
0.344641
0.349617
0.354808
0.36028
0.366133
0.372505
0.379613
0.38781
0.397728
0.410614
0.429278
0.461384
0.53424
0.764907
1
1
1
1
1
1
1
1
1
1
1
1
1
1
1
1
1
1
1
1
1
1
1
1
1
1
1
1
1
1
1
1
1
1
1
1
1
1
1
1
1
1
1
1
1
1
1
1
1
1
1
1
1
1
1
1
1
1
1
1
1
1
1
1
1
1
1
1
1
1
1
1
1
)
;

boundaryField
{
    inlet
    {
        type            calculated;
        value           uniform 2.78312e-12;
    }
    outlet
    {
        type            calculated;
        value           uniform 2.78312e-12;
    }
    emptyWalls
    {
        type            empty;
    }
}


// ************************************************************************* //
