/*--------------------------------*- C++ -*----------------------------------*\
  =========                 |
  \\      /  F ield         | OpenFOAM: The Open Source CFD Toolbox
   \\    /   O peration     | Website:  https://openfoam.org
    \\  /    A nd           | Version:  9
     \\/     M anipulation  |
\*---------------------------------------------------------------------------*/
FoamFile
{
    format      ascii;
    class       volScalarField;
    location    "800";
    object      kra;
}
// * * * * * * * * * * * * * * * * * * * * * * * * * * * * * * * * * * * * * //

dimensions      [0 0 0 0 0 0 0];

internalField   nonuniform List<scalar> 
100
(
3.83442e-05
2.74983e-05
2.95442e-05
2.79602e-05
2.77027e-05
2.7313e-05
2.76939e-05
2.77386e-05
2.78837e-05
2.7964e-05
2.80466e-05
2.81073e-05
2.81568e-05
2.81917e-05
2.82134e-05
2.82211e-05
2.82141e-05
2.81907e-05
2.81485e-05
2.8083e-05
2.79862e-05
2.78429e-05
2.76201e-05
2.72349e-05
2.64256e-05
2.40799e-05
1.54654e-05
2.49224e-06
7.66302e-09
1.01321e-14
3.49762e-27
2.97587e-35
2.60795e-35
9.62717e-36
1.60964e-36
1.1931e-36
1.21214e-36
1.111e-36
1.11099e-36
1.17767e-36
1.21174e-36
1.21174e-36
1.21174e-36
1.21174e-36
1.21174e-36
1.11099e-36
1.21174e-36
1.21174e-36
1.11099e-36
1.21174e-36
1.17767e-36
1.11099e-36
1.11099e-36
1.21174e-36
1.11099e-36
1.17767e-36
1.11099e-36
1.11099e-36
1.17767e-36
1.21174e-36
1.17767e-36
1.21174e-36
1.17767e-36
1.11099e-36
1.11099e-36
1.31689e-36
1.21174e-36
1.28135e-36
1.11099e-36
1.11099e-36
1.21174e-36
1.28135e-36
1.21174e-36
1.31689e-36
1.28135e-36
1.31689e-36
1.21174e-36
1.21174e-36
1.21174e-36
1.28135e-36
1.11099e-36
1.31689e-36
1.21174e-36
1.21174e-36
1.28135e-36
1.07838e-36
1.31689e-36
1.21174e-36
1.28135e-36
1.31689e-36
1.28135e-36
1.31689e-36
1.21174e-36
1.28135e-36
1.31689e-36
1.11099e-36
1.28135e-36
1.31689e-36
1.28135e-36
1.31689e-36
)
;

boundaryField
{
    inlet
    {
        type            calculated;
        value           uniform 1.0266e-05;
    }
    outlet
    {
        type            calculated;
        value           uniform 4.72742e-37;
    }
    emptyWalls
    {
        type            empty;
    }
}


// ************************************************************************* //
