/*--------------------------------*- C++ -*----------------------------------*\
  =========                 |
  \\      /  F ield         | OpenFOAM: The Open Source CFD Toolbox
   \\    /   O peration     | Website:  https://openfoam.org
    \\  /    A nd           | Version:  9
     \\/     M anipulation  |
\*---------------------------------------------------------------------------*/
FoamFile
{
    format      ascii;
    class       volScalarField;
    location    "800";
    object      p;
}
// * * * * * * * * * * * * * * * * * * * * * * * * * * * * * * * * * * * * * //

dimensions      [0 0 0 0 0 0 0];

internalField   nonuniform List<scalar> 
100
(
5.32343e+06
5.31498e+06
5.30323e+06
5.29234e+06
5.28088e+06
5.26937e+06
5.25777e+06
5.2464e+06
5.23513e+06
5.22399e+06
5.21296e+06
5.20206e+06
5.19126e+06
5.18058e+06
5.17002e+06
5.15957e+06
5.14923e+06
5.13902e+06
5.12894e+06
5.11899e+06
5.10919e+06
5.09956e+06
5.09013e+06
5.08095e+06
5.07214e+06
5.06392e+06
5.05689e+06
5.0523e+06
5.04984e+06
5.04782e+06
5.04582e+06
5.04381e+06
5.04181e+06
5.03984e+06
5.03824e+06
5.03752e+06
5.03693e+06
5.03635e+06
5.03577e+06
5.03519e+06
5.03461e+06
5.03403e+06
5.03344e+06
5.03286e+06
5.03228e+06
5.0317e+06
5.03112e+06
5.03054e+06
5.02995e+06
5.02937e+06
5.02879e+06
5.02821e+06
5.02763e+06
5.02705e+06
5.02646e+06
5.02588e+06
5.0253e+06
5.02472e+06
5.02414e+06
5.02356e+06
5.02297e+06
5.02239e+06
5.02181e+06
5.02123e+06
5.02065e+06
5.02007e+06
5.01949e+06
5.0189e+06
5.01832e+06
5.01774e+06
5.01716e+06
5.01658e+06
5.016e+06
5.01541e+06
5.01483e+06
5.01425e+06
5.01367e+06
5.01309e+06
5.01251e+06
5.01192e+06
5.01134e+06
5.01076e+06
5.01018e+06
5.0096e+06
5.00902e+06
5.00843e+06
5.00785e+06
5.00727e+06
5.00669e+06
5.00611e+06
5.00553e+06
5.00494e+06
5.00436e+06
5.00378e+06
5.0032e+06
5.00262e+06
5.00204e+06
5.00145e+06
5.00087e+06
5.00029e+06
)
;

boundaryField
{
    inlet
    {
        type            darcyGradPressure;
        gradient        uniform 4.32149e+06;
        Mf              Mf;
        phi             phi;
        value           uniform 5.33207e+06;
    }
    outlet
    {
        type            fixedValue;
        value           uniform 5e+06;
    }
    emptyWalls
    {
        type            empty;
    }
}


// ************************************************************************* //
