/*--------------------------------*- C++ -*----------------------------------*\
  =========                 |
  \\      /  F ield         | OpenFOAM: The Open Source CFD Toolbox
   \\    /   O peration     | Website:  https://openfoam.org
    \\  /    A nd           | Version:  9
     \\/     M anipulation  |
\*---------------------------------------------------------------------------*/
FoamFile
{
    format      ascii;
    class       surfaceScalarField;
    location    "800";
    object      phia;
}
// * * * * * * * * * * * * * * * * * * * * * * * * * * * * * * * * * * * * * //

dimensions      [0 2 0 0 0 0 0];

internalField   nonuniform List<scalar> 
99
(
1.4169e-08
1.41219e-08
1.40677e-08
1.40073e-08
1.39375e-08
1.38481e-08
1.3764e-08
1.36728e-08
1.35786e-08
1.34789e-08
1.33741e-08
1.32635e-08
1.31465e-08
1.30223e-08
1.28901e-08
1.27483e-08
1.2595e-08
1.24275e-08
1.22416e-08
1.20306e-08
1.17834e-08
1.14798e-08
1.10801e-08
1.04957e-08
9.49599e-09
7.39519e-09
3.10503e-09
2.68206e-10
6.77057e-13
8.86721e-19
3.06058e-31
2.60111e-39
2.25123e-39
6.74344e-40
5.04414e-41
3.05641e-41
3.08279e-41
2.82504e-41
2.825e-41
2.99456e-41
3.0812e-41
3.0812e-41
3.0812e-41
3.0812e-41
3.0812e-41
2.825e-41
3.0812e-41
3.0812e-41
2.825e-41
3.0812e-41
2.99456e-41
2.825e-41
2.825e-41
3.0812e-41
2.825e-41
2.99456e-41
2.825e-41
2.825e-41
2.99456e-41
3.0812e-41
2.99456e-41
3.0812e-41
2.99456e-41
2.825e-41
2.825e-41
3.34858e-41
3.0812e-41
3.25821e-41
2.825e-41
2.825e-41
3.0812e-41
3.25821e-41
3.0812e-41
3.34858e-41
3.25821e-41
3.34858e-41
3.0812e-41
3.0812e-41
3.0812e-41
3.25821e-41
2.825e-41
3.34858e-41
3.0812e-41
3.0812e-41
3.25821e-41
2.74209e-41
3.34858e-41
3.0812e-41
3.25821e-41
3.34858e-41
3.25821e-41
3.34858e-41
3.0812e-41
3.25821e-41
3.34858e-41
2.825e-41
3.25821e-41
3.34858e-41
3.25821e-41
)
;

boundaryField
{
    inlet
    {
        type            calculated;
        value           uniform -1.42126e-08;
    }
    outlet
    {
        type            calculated;
        value           uniform 1.20208e-41;
    }
    emptyWalls
    {
        type            empty;
        value           nonuniform List<scalar> 0();
    }
}


// ************************************************************************* //
