/*--------------------------------*- C++ -*----------------------------------*\
  =========                 |
  \\      /  F ield         | OpenFOAM: The Open Source CFD Toolbox
   \\    /   O peration     | Website:  https://openfoam.org
    \\  /    A nd           | Version:  9
     \\/     M anipulation  |
\*---------------------------------------------------------------------------*/
FoamFile
{
    format      ascii;
    class       volVectorField;
    location    "800";
    object      Ua;
}
// * * * * * * * * * * * * * * * * * * * * * * * * * * * * * * * * * * * * * //

dimensions      [0 0 0 0 0 0 0];

internalField   nonuniform List<vector> 
100
(
(0 0 8.72447e-06)
(0 0 1.12566e-05)
(0 0 1.12163e-05)
(0 0 1.11707e-05)
(0 0 1.11189e-05)
(0 0 1.10556e-05)
(0 0 1.09865e-05)
(0 0 1.09168e-05)
(0 0 1.0843e-05)
(0 0 1.07658e-05)
(0 0 1.06845e-05)
(0 0 1.05988e-05)
(0 0 1.05082e-05)
(0 0 1.04122e-05)
(0 0 1.03102e-05)
(0 0 1.02012e-05)
(0 0 1.00838e-05)
(0 0 9.95615e-06)
(0 0 9.81553e-06)
(0 0 9.6576e-06)
(0 0 9.47527e-06)
(0 0 9.25612e-06)
(0 0 8.97632e-06)
(0 0 8.58477e-06)
(0 0 7.95445e-06)
(0 0 6.72079e-06)
(0 0 4.17791e-06)
(0 0 1.34217e-06)
(0 0 1.06985e-07)
(0 0 2.69393e-10)
(0 0 3.52815e-16)
(0 0 1.21777e-28)
(0 0 1.93068e-36)
(0 0 1.16405e-36)
(0 0 2.88383e-37)
(0 0 3.2231e-38)
(0 0 2.44271e-38)
(0 0 2.35065e-38)
(0 0 2.24808e-38)
(0 0 2.31553e-38)
(0 0 2.41747e-38)
(0 0 2.45194e-38)
(0 0 2.45194e-38)
(0 0 2.45194e-38)
(0 0 2.45194e-38)
(0 0 2.35e-38)
(0 0 2.35e-38)
(0 0 2.45194e-38)
(0 0 2.35e-38)
(0 0 2.35e-38)
(0 0 2.41747e-38)
(0 0 2.31553e-38)
(0 0 2.24807e-38)
(0 0 2.35e-38)
(0 0 2.35e-38)
(0 0 2.31553e-38)
(0 0 2.31553e-38)
(0 0 2.24807e-38)
(0 0 2.31553e-38)
(0 0 2.41747e-38)
(0 0 2.41747e-38)
(0 0 2.41747e-38)
(0 0 2.41747e-38)
(0 0 2.31553e-38)
(0 0 2.24807e-38)
(0 0 2.45639e-38)
(0 0 2.55833e-38)
(0 0 2.52237e-38)
(0 0 2.42043e-38)
(0 0 2.24807e-38)
(0 0 2.35e-38)
(0 0 2.52237e-38)
(0 0 2.52237e-38)
(0 0 2.55833e-38)
(0 0 2.62876e-38)
(0 0 2.62876e-38)
(0 0 2.55833e-38)
(0 0 2.45194e-38)
(0 0 2.45194e-38)
(0 0 2.52237e-38)
(0 0 2.42043e-38)
(0 0 2.45639e-38)
(0 0 2.55833e-38)
(0 0 2.45194e-38)
(0 0 2.52237e-38)
(0 0 2.38744e-38)
(0 0 2.4234e-38)
(0 0 2.55833e-38)
(0 0 2.52237e-38)
(0 0 2.62876e-38)
(0 0 2.62876e-38)
(0 0 2.62876e-38)
(0 0 2.55833e-38)
(0 0 2.52237e-38)
(0 0 2.62876e-38)
(0 0 2.45639e-38)
(0 0 2.42043e-38)
(0 0 2.62876e-38)
(0 0 2.62876e-38)
(0 0 1.77469e-38)
)
;

boundaryField
{
    inlet
    {
        type            fixedValue;
        value           uniform (0 0 1.131e-05);
    }
    outlet
    {
        type            zeroGradient;
    }
    emptyWalls
    {
        type            empty;
    }
}


// ************************************************************************* //
