/*--------------------------------*- C++ -*----------------------------------*\
  =========                 |
  \\      /  F ield         | OpenFOAM: The Open Source CFD Toolbox
   \\    /   O peration     | Website:  https://openfoam.org
    \\  /    A nd           | Version:  9
     \\/     M anipulation  |
\*---------------------------------------------------------------------------*/
FoamFile
{
    format      ascii;
    class       volVectorField;
    location    "800";
    object      Uc;
}
// * * * * * * * * * * * * * * * * * * * * * * * * * * * * * * * * * * * * * //

dimensions      [0 0 0 0 0 0 0];

internalField   nonuniform List<vector> 
100
(
(0 0 5.48422e-08)
(0 0 5.55888e-08)
(0 0 9.76462e-08)
(0 0 1.45197e-07)
(0 0 1.99209e-07)
(0 0 2.61807e-07)
(0 0 3.28127e-07)
(0 0 3.95626e-07)
(0 0 4.66582e-07)
(0 0 5.40777e-07)
(0 0 6.18797e-07)
(0 0 7.00841e-07)
(0 0 7.87322e-07)
(0 0 8.78689e-07)
(0 0 9.75567e-07)
(0 0 1.07879e-06)
(0 0 1.18953e-06)
(0 0 1.30946e-06)
(0 0 1.44105e-06)
(0 0 1.58819e-06)
(0 0 1.75715e-06)
(0 0 1.95896e-06)
(0 0 2.21438e-06)
(0 0 2.56708e-06)
(0 0 3.12088e-06)
(0 0 4.14415e-06)
(0 0 6.03318e-06)
(0 0 7.96418e-06)
(0 0 8.74871e-06)
(0 0 8.81306e-06)
(0 0 8.80903e-06)
(0 0 8.77495e-06)
(0 0 8.45199e-06)
(0 0 6.06956e-06)
(0 0 2.16918e-06)
(0 0 2.65271e-07)
(0 0 1.69228e-07)
(0 0 1.66769e-07)
(0 0 1.66708e-07)
(0 0 1.66707e-07)
(0 0 1.66707e-07)
(0 0 1.66707e-07)
(0 0 1.66707e-07)
(0 0 1.66707e-07)
(0 0 1.66707e-07)
(0 0 1.66707e-07)
(0 0 1.66707e-07)
(0 0 1.66707e-07)
(0 0 1.66707e-07)
(0 0 1.66707e-07)
(0 0 1.66707e-07)
(0 0 1.66707e-07)
(0 0 1.66707e-07)
(0 0 1.66707e-07)
(0 0 1.66707e-07)
(0 0 1.66707e-07)
(0 0 1.66707e-07)
(0 0 1.66707e-07)
(0 0 1.66707e-07)
(0 0 1.66707e-07)
(0 0 1.66707e-07)
(0 0 1.66707e-07)
(0 0 1.66707e-07)
(0 0 1.66707e-07)
(0 0 1.66707e-07)
(0 0 1.66707e-07)
(0 0 1.66707e-07)
(0 0 1.66707e-07)
(0 0 1.66707e-07)
(0 0 1.66707e-07)
(0 0 1.66707e-07)
(0 0 1.66707e-07)
(0 0 1.66707e-07)
(0 0 1.66707e-07)
(0 0 1.66707e-07)
(0 0 1.66707e-07)
(0 0 1.66707e-07)
(0 0 1.66707e-07)
(0 0 1.66707e-07)
(0 0 1.66707e-07)
(0 0 1.66707e-07)
(0 0 1.66707e-07)
(0 0 1.66707e-07)
(0 0 1.66707e-07)
(0 0 1.66707e-07)
(0 0 1.66707e-07)
(0 0 1.66707e-07)
(0 0 1.66707e-07)
(0 0 1.66707e-07)
(0 0 1.66707e-07)
(0 0 1.66707e-07)
(0 0 1.66707e-07)
(0 0 1.66707e-07)
(0 0 1.66707e-07)
(0 0 1.66707e-07)
(0 0 1.66707e-07)
(0 0 1.66707e-07)
(0 0 1.66707e-07)
(0 0 1.66707e-07)
(0 0 1.66707e-07)
)
;

boundaryField
{
    inlet
    {
        type            fixedValue;
        value           uniform (0 0 0);
    }
    outlet
    {
        type            zeroGradient;
    }
    emptyWalls
    {
        type            empty;
    }
}


// ************************************************************************* //
