/*--------------------------------*- C++ -*----------------------------------*\
  =========                 |
  \\      /  F ield         | OpenFOAM: The Open Source CFD Toolbox
   \\    /   O peration     | Website:  https://openfoam.org
    \\  /    A nd           | Version:  9
     \\/     M anipulation  |
\*---------------------------------------------------------------------------*/
FoamFile
{
    format      ascii;
    class       volScalarField;
    location    "18850";
    object      Sa;
}
// * * * * * * * * * * * * * * * * * * * * * * * * * * * * * * * * * * * * * //

dimensions      [0 0 0 0 0 0 0];

internalField   nonuniform List<scalar> 
1000
(
0.54943
0.548243
0.546671
0.545134
0.543566
0.542055
0.540441
0.538946
0.537273
0.535782
0.534104
0.532607
0.531009
0.529539
0.528082
0.526732
0.525464
0.524324
0.523293
0.522394
0.521597
0.520884
0.520102
0.518631
0.513881
0.495379
0.385523
0.138844
0.0819383
0.0658604
0.0584741
0.0539234
0.0506337
0.0480219
0.0458452
0.0439633
0.0423135
0.040838
0.0395153
0.0383138
0.0372247
0.0362267
0.0353152
0.0344747
0.0337016
0.0329837
0.0323209
0.0316999
0.0311246
0.0305821
0.030077
0.0295988
0.0291516
0.0287269
0.0283279
0.027947
0.0275804
0.0272334
0.0269066
0.0265994
0.0263112
0.0260416
0.0257895
0.0255541
0.0253348
0.0251306
0.0249407
0.0247644
0.0246018
0.0244534
0.0243214
0.0242095
0.024122
0.0240596
0.0240157
0.0239751
0.0239327
0.0238889
0.023844
0.0237984
0.0237524
0.0237064
0.0236606
0.0236154
0.0235712
0.023529
0.0234896
0.0234536
0.0234211
0.0233918
0.0233649
0.0233395
0.0233147
0.0232901
0.0232652
0.0232397
0.0232133
0.0231855
0.0231559
0.0231236
0.0230881
0.0230488
0.0230056
0.0229584
0.0229076
0.0228536
0.0227974
0.0227397
0.0226815
0.0226237
0.022567
0.0225122
0.0224596
0.0224096
0.0223622
0.0223175
0.0222752
0.0222352
0.0221972
0.0221608
0.0221256
0.0220915
0.022058
0.0220249
0.0219921
0.0219593
0.0219264
0.0218935
0.0218604
0.0218272
0.0217938
0.0217603
0.0217267
0.0216931
0.0216595
0.021626
0.0215925
0.0215591
0.0215259
0.0214928
0.0214599
0.0214273
0.0213948
0.0213626
0.0213306
0.0212988
0.0212673
0.021236
0.0212049
0.0211741
0.0211435
0.0211131
0.021083
0.0210531
0.0210234
0.020994
0.0209648
0.0209358
0.020907
0.0208785
0.0208502
0.0208221
0.0207942
0.0207666
0.0207392
0.0207119
0.0206849
0.0206582
0.0206316
0.0206052
0.020579
0.0205531
0.0205273
0.0205018
0.0204765
0.0204514
0.0204265
0.0204018
0.0203774
0.0203531
0.020329
0.0203051
0.0202814
0.0202578
0.0202344
0.0202111
0.020188
0.0201649
0.0201421
0.0201193
0.0200967
0.0200742
0.0200519
0.0200298
0.0200078
0.019986
0.0199643
0.0199427
0.0199212
0.0198998
0.0198784
0.019857
0.0198358
0.0198147
0.0197937
0.019773
0.0197527
0.0197329
0.0197136
0.0196951
0.0196772
0.0196603
0.0196442
0.019629
0.0196147
0.0196014
0.0195888
0.019577
0.0195659
0.0195552
0.019545
0.0195349
0.0195249
0.0195147
0.019504
0.0194928
0.0194807
0.0194676
0.0194533
0.0194376
0.0194205
0.0194018
0.0193815
0.0193597
0.0193364
0.0193118
0.019286
0.0192592
0.0192317
0.0192037
0.0191755
0.0191472
0.0191192
0.0190915
0.0190644
0.019038
0.0190125
0.0189877
0.0189638
0.0189408
0.0189187
0.0188973
0.0188767
0.0188567
0.0188373
0.0188184
0.0187999
0.0187817
0.0187637
0.018746
0.0187284
0.0187108
0.0186933
0.0186758
0.0186583
0.0186408
0.0186232
0.0186056
0.0185879
0.0185702
0.0185524
0.0185347
0.0185169
0.0184991
0.0184812
0.0184634
0.0184457
0.0184279
0.0184102
0.0183926
0.018375
0.0183574
0.01834
0.0183226
0.0183053
0.018288
0.0182709
0.0182538
0.0182368
0.01822
0.0182031
0.0181864
0.0181698
0.0181533
0.0181369
0.0181205
0.0181043
0.0180881
0.0180721
0.0180561
0.0180402
0.0180244
0.0180087
0.0179932
0.0179776
0.0179622
0.0179469
0.0179317
0.0179165
0.0179015
0.0178865
0.0178716
0.0178569
0.0178422
0.0178276
0.0178131
0.0177987
0.0177844
0.0177701
0.017756
0.0177419
0.0177279
0.017714
0.0177002
0.0176864
0.0176727
0.0176591
0.0176455
0.017632
0.0176186
0.0176052
0.0175919
0.0175787
0.0175655
0.0175524
0.0175393
0.0175263
0.0175133
0.0175004
0.0174875
0.0174747
0.0174619
0.0174492
0.0174365
0.0174239
0.0174113
0.0173989
0.0173865
0.0173743
0.0173623
0.0173505
0.0173389
0.0173276
0.0173166
0.0173059
0.0172955
0.0172855
0.0172759
0.0172668
0.017258
0.0172496
0.0172417
0.0172341
0.0172268
0.0172199
0.0172132
0.0172067
0.0172004
0.0171941
0.0171879
0.0171816
0.0171751
0.0171684
0.0171613
0.0171538
0.0171459
0.0171373
0.0171282
0.0171183
0.0171078
0.0170964
0.0170843
0.0170714
0.0170578
0.0170434
0.0170284
0.0170127
0.0169965
0.0169799
0.0169628
0.0169455
0.016928
0.0169104
0.0168929
0.0168754
0.016858
0.0168409
0.016824
0.0168075
0.0167913
0.0167755
0.0167601
0.0167451
0.0167305
0.0167162
0.0167023
0.0166887
0.0166755
0.0166625
0.0166497
0.0166372
0.0166248
0.0166126
0.0166006
0.0165886
0.0165767
0.0165649
0.0165531
0.0165414
0.0165297
0.0165179
0.0165062
0.0164945
0.0164827
0.016471
0.0164592
0.0164474
0.0164356
0.0164238
0.0164119
0.0164001
0.0163883
0.0163764
0.0163646
0.0163528
0.016341
0.0163292
0.0163175
0.0163057
0.016294
0.0162823
0.0162707
0.0162591
0.0162475
0.016236
0.0162245
0.016213
0.0162016
0.0161902
0.0161789
0.0161676
0.0161564
0.0161452
0.0161341
0.016123
0.016112
0.016101
0.01609
0.0160791
0.0160683
0.0160575
0.0160468
0.0160361
0.0160254
0.0160148
0.0160043
0.0159938
0.0159833
0.0159729
0.0159626
0.0159523
0.015942
0.0159318
0.0159216
0.0159115
0.0159015
0.0158915
0.0158815
0.0158716
0.0158617
0.0158519
0.0158421
0.0158323
0.0158226
0.015813
0.0158033
0.0157938
0.0157842
0.0157747
0.0157652
0.0157558
0.0157464
0.015737
0.0157277
0.0157184
0.0157091
0.0156999
0.0156906
0.0156815
0.0156723
0.0156632
0.0156541
0.0156451
0.0156361
0.0156272
0.0156183
0.0156095
0.0156008
0.0155921
0.0155836
0.0155751
0.0155669
0.0155587
0.0155507
0.0155428
0.0155351
0.0155276
0.0155203
0.0155132
0.0155063
0.0154997
0.0154932
0.0154869
0.0154809
0.015475
0.0154694
0.0154639
0.0154585
0.0154533
0.0154482
0.0154432
0.0154383
0.0154333
0.0154284
0.0154234
0.0154183
0.015413
0.0154076
0.0154021
0.0153962
0.0153901
0.0153837
0.0153769
0.0153698
0.0153622
0.0153543
0.0153459
0.0153371
0.0153279
0.0153182
0.0153081
0.0152976
0.0152867
0.0152755
0.015264
0.0152521
0.0152401
0.0152278
0.0152153
0.0152028
0.0151901
0.0151774
0.0151648
0.0151521
0.0151396
0.0151271
0.0151148
0.0151026
0.0150906
0.0150787
0.0150671
0.0150557
0.0150444
0.0150334
0.0150225
0.0150119
0.0150014
0.0149911
0.0149809
0.0149709
0.014961
0.0149513
0.0149416
0.014932
0.0149225
0.0149131
0.0149037
0.0148944
0.0148851
0.0148759
0.0148666
0.0148574
0.0148482
0.014839
0.0148297
0.0148205
0.0148113
0.014802
0.0147928
0.0147835
0.0147742
0.0147649
0.0147556
0.0147463
0.014737
0.0147277
0.0147184
0.0147091
0.0146997
0.0146904
0.0146811
0.0146718
0.0146625
0.0146532
0.0146439
0.0146347
0.0146254
0.0146162
0.014607
0.0145978
0.0145886
0.0145794
0.0145703
0.0145612
0.0145521
0.014543
0.0145339
0.0145249
0.0145159
0.0145069
0.014498
0.014489
0.0144801
0.0144713
0.0144624
0.0144536
0.0144448
0.014436
0.0144273
0.0144186
0.0144099
0.0144013
0.0143926
0.014384
0.0143754
0.0143669
0.0143584
0.0143499
0.0143414
0.014333
0.0143245
0.0143161
0.0143078
0.0142994
0.0142911
0.0142828
0.0142745
0.0142663
0.0142581
0.0142498
0.0142417
0.0142335
0.0142253
0.0142172
0.0142091
0.014201
0.0141929
0.0141848
0.0141768
0.0141688
0.0141607
0.0141527
0.0141448
0.0141368
0.0141288
0.0141209
0.014113
0.0141051
0.0140973
0.0140895
0.0140817
0.0140739
0.0140662
0.0140585
0.0140509
0.0140434
0.0140359
0.0140284
0.0140211
0.0140138
0.0140066
0.0139995
0.0139925
0.0139856
0.0139789
0.0139722
0.0139656
0.0139592
0.0139529
0.0139467
0.0139407
0.0139348
0.013929
0.0139233
0.0139178
0.0139124
0.0139071
0.0139019
0.0138969
0.0138919
0.0138871
0.0138823
0.0138777
0.0138732
0.0138687
0.0138644
0.0138601
0.013856
0.0138519
0.0138479
0.013844
0.0138402
0.0138366
0.013833
0.0138295
0.0138261
0.0138228
0.0138196
0.0138165
0.0138135
0.0138105
0.0138076
0.0138048
0.013802
0.0137992
0.0137964
0.0137937
0.0137909
0.0137881
0.0137853
0.0137825
0.0137796
0.0137767
0.0137737
0.0137706
0.0137673
0.0137636
0.0137593
0.0137537
0.0137461
0.0137346
0.0137165
0.0136867
0.0136376
0.0135584
0.0134373
0.0132697
0.0130699
0.0128756
0.0127264
0.0126342
0.0125854
0.0125612
0.0125491
0.0125426
0.012539
0.0125366
0.012535
0.0125338
0.0125328
0.0125319
0.0125311
0.0125304
0.0125297
0.012529
0.0125284
0.0125278
0.0125273
0.0125267
0.0125262
0.0125256
0.0125251
0.0125246
0.0125241
0.0125236
0.012523
0.0125225
0.012522
0.0125215
0.0125209
0.0125204
0.0125198
0.0125193
0.0125187
0.0125182
0.0125176
0.012517
0.0125165
0.0125159
0.0125153
0.0125147
0.0125142
0.0125136
0.012513
0.0125124
0.0125119
0.0125113
0.0125108
0.0125102
0.0125097
0.0125091
0.0125086
0.0125081
0.0125076
0.0125071
0.0125066
0.0125061
0.0125057
0.0125052
0.0125048
0.0125044
0.012504
0.0125036
0.0125032
0.0125028
0.0125025
0.0125022
0.0125019
0.0125016
0.0125013
0.012501
0.0125008
0.0125006
0.0125004
0.0125002
0.0125
0.0124999
0.0124997
0.0124996
0.0124995
0.0124994
0.0124994
0.0124993
0.0124993
0.0124993
0.0124993
0.0124993
0.0124993
0.0124994
0.0124994
0.0124995
0.0124996
0.0124997
0.0124999
0.0125
0.0125002
0.0125004
0.0125006
0.0125008
0.012501
0.0125012
0.0125015
0.0125017
0.012502
0.0125023
0.0125026
0.0125029
0.0125032
0.0125036
0.0125039
0.0125043
0.0125047
0.0125051
0.0125056
0.012506
0.0125065
0.012507
0.0125075
0.0125081
0.0125087
0.0125093
0.01251
0.0125107
0.0125114
0.0125122
0.012513
0.0125139
0.0125148
0.0125157
0.0125168
0.0125178
0.012519
0.0125202
0.0125215
0.0125228
0.0125242
0.0125257
0.0125272
0.0125288
0.0125305
0.0125323
0.0125341
0.0125359
0.0125379
0.0125399
0.0125419
0.0125441
0.0125462
0.0125484
0.0125506
0.0125529
0.0125552
0.0125574
0.0125597
0.012562
0.0125643
0.0125665
0.0125687
0.0125709
0.012573
0.0125751
0.012577
0.0125789
0.0125807
0.0125824
0.0125839
0.0125854
0.0125867
0.0125878
0.0125888
0.0125897
0.0125903
0.0125908
0.0125912
0.0125913
0.0125914
0.0125913
0.0125913
0.0125909
0.0125902
0.0125894
0.0125884
0.0125873
0.012586
0.0125846
0.0125831
0.0125815
0.0125798
0.012578
0.0125762
0.0125742
0.0125723
0.0125702
0.0125683
0.0125662
0.0125643
0.0125621
0.0125602
0.0125581
0.0125563
0.0125543
0.0125526
0.0125506
0.0125491
0.0125472
0.0125458
0.012544
0.0125427
0.0125411
0.01254
0.0125385
0.0125375
0.0125361
0.0125353
0.012534
0.0125333
0.012532
0.0125314
0.0125303
0.0125298
0.0125288
0.0125283
0.0125273
0.012527
0.012526
0.0125257
0.0125248
0.0125245
0.0125236
0.0125234
0.0125225
0.0125223
0.0125214
0.0125212
0.0125204
0.0125201
0.0125193
0.0125191
0.0125182
0.012518
)
;

boundaryField
{
    inlet
    {
        type            fixedValue;
        value           uniform 0.55;
    }
    outlet
    {
        type            zeroGradient;
    }
    emptyWalls
    {
        type            empty;
    }
}


// ************************************************************************* //
