/*--------------------------------*- C++ -*----------------------------------*\
  =========                 |
  \\      /  F ield         | OpenFOAM: The Open Source CFD Toolbox
   \\    /   O peration     | Website:  https://openfoam.org
    \\  /    A nd           | Version:  9
     \\/     M anipulation  |
\*---------------------------------------------------------------------------*/
FoamFile
{
    format      ascii;
    class       volVectorField;
    location    "18850";
    object      Uc;
}
// * * * * * * * * * * * * * * * * * * * * * * * * * * * * * * * * * * * * * //

dimensions      [0 0 0 0 0 0 0];

internalField   nonuniform List<vector> 
1000
(
(7.58139e-12 0 0)
(3.98513e-11 0 0)
(1.10959e-10 0 0)
(2.24117e-10 0 0)
(3.77451e-10 0 0)
(5.70311e-10 0 0)
(8.02419e-10 0 0)
(1.07331e-09 0 0)
(1.38212e-09 0 0)
(1.7272e-09 0 0)
(2.10567e-09 0 0)
(2.51345e-09 0 0)
(2.9445e-09 0 0)
(3.39117e-09 0 0)
(3.84423e-09 0 0)
(4.29332e-09 0 0)
(4.72817e-09 0 0)
(5.13942e-09 0 0)
(5.51985e-09 0 0)
(5.86539e-09 0 0)
(6.17772e-09 0 0)
(6.47602e-09 0 0)
(6.8569e-09 0 0)
(7.77188e-09 0 0)
(1.09727e-08 0 0)
(2.42579e-08 0 0)
(9.63072e-08 0 0)
(1.78853e-07 0 0)
(2.05836e-07 0 0)
(2.14041e-07 0 0)
(2.18028e-07 0 0)
(2.20638e-07 0 0)
(2.22661e-07 0 0)
(2.2438e-07 0 0)
(2.25919e-07 0 0)
(2.27338e-07 0 0)
(2.28671e-07 0 0)
(2.2994e-07 0 0)
(2.31156e-07 0 0)
(2.32328e-07 0 0)
(2.33463e-07 0 0)
(2.34566e-07 0 0)
(2.3564e-07 0 0)
(2.36689e-07 0 0)
(2.37718e-07 0 0)
(2.38729e-07 0 0)
(2.39727e-07 0 0)
(2.40714e-07 0 0)
(2.41693e-07 0 0)
(2.42667e-07 0 0)
(2.43641e-07 0 0)
(2.44617e-07 0 0)
(2.45599e-07 0 0)
(2.46589e-07 0 0)
(2.47591e-07 0 0)
(2.48618e-07 0 0)
(2.49678e-07 0 0)
(2.50766e-07 0 0)
(2.5188e-07 0 0)
(2.5302e-07 0 0)
(2.54192e-07 0 0)
(2.554e-07 0 0)
(2.56649e-07 0 0)
(2.57949e-07 0 0)
(2.59309e-07 0 0)
(2.60746e-07 0 0)
(2.62281e-07 0 0)
(2.63943e-07 0 0)
(2.65775e-07 0 0)
(2.67831e-07 0 0)
(2.70177e-07 0 0)
(2.72883e-07 0 0)
(2.75999e-07 0 0)
(2.79539e-07 0 0)
(2.83463e-07 0 0)
(2.87694e-07 0 0)
(2.92153e-07 0 0)
(2.96783e-07 0 0)
(3.01542e-07 0 0)
(3.06401e-07 0 0)
(3.1134e-07 0 0)
(3.16343e-07 0 0)
(3.21399e-07 0 0)
(3.265e-07 0 0)
(3.31636e-07 0 0)
(3.36802e-07 0 0)
(3.4199e-07 0 0)
(3.47195e-07 0 0)
(3.52414e-07 0 0)
(3.57646e-07 0 0)
(3.62891e-07 0 0)
(3.6815e-07 0 0)
(3.73425e-07 0 0)
(3.78717e-07 0 0)
(3.84027e-07 0 0)
(3.89355e-07 0 0)
(3.94702e-07 0 0)
(4.00069e-07 0 0)
(4.0546e-07 0 0)
(4.10876e-07 0 0)
(4.16319e-07 0 0)
(4.21793e-07 0 0)
(4.27299e-07 0 0)
(4.32837e-07 0 0)
(4.38406e-07 0 0)
(4.44004e-07 0 0)
(4.49629e-07 0 0)
(4.55275e-07 0 0)
(4.6094e-07 0 0)
(4.66619e-07 0 0)
(4.72309e-07 0 0)
(4.78004e-07 0 0)
(4.83704e-07 0 0)
(4.89406e-07 0 0)
(4.95108e-07 0 0)
(5.00811e-07 0 0)
(5.06514e-07 0 0)
(5.12218e-07 0 0)
(5.17924e-07 0 0)
(5.23633e-07 0 0)
(5.29346e-07 0 0)
(5.35066e-07 0 0)
(5.40793e-07 0 0)
(5.46528e-07 0 0)
(5.52273e-07 0 0)
(5.58028e-07 0 0)
(5.63794e-07 0 0)
(5.69571e-07 0 0)
(5.7536e-07 0 0)
(5.8116e-07 0 0)
(5.86971e-07 0 0)
(5.92793e-07 0 0)
(5.98626e-07 0 0)
(6.0447e-07 0 0)
(6.10324e-07 0 0)
(6.16188e-07 0 0)
(6.22061e-07 0 0)
(6.27944e-07 0 0)
(6.33836e-07 0 0)
(6.39737e-07 0 0)
(6.45646e-07 0 0)
(6.51564e-07 0 0)
(6.5749e-07 0 0)
(6.63425e-07 0 0)
(6.69367e-07 0 0)
(6.75317e-07 0 0)
(6.81275e-07 0 0)
(6.87241e-07 0 0)
(6.93214e-07 0 0)
(6.99195e-07 0 0)
(7.05183e-07 0 0)
(7.11179e-07 0 0)
(7.17182e-07 0 0)
(7.23192e-07 0 0)
(7.2921e-07 0 0)
(7.35234e-07 0 0)
(7.41266e-07 0 0)
(7.47305e-07 0 0)
(7.5335e-07 0 0)
(7.59403e-07 0 0)
(7.65462e-07 0 0)
(7.71527e-07 0 0)
(7.776e-07 0 0)
(7.83679e-07 0 0)
(7.89765e-07 0 0)
(7.95857e-07 0 0)
(8.01956e-07 0 0)
(8.08061e-07 0 0)
(8.14173e-07 0 0)
(8.2029e-07 0 0)
(8.26415e-07 0 0)
(8.32545e-07 0 0)
(8.38681e-07 0 0)
(8.44824e-07 0 0)
(8.50972e-07 0 0)
(8.57127e-07 0 0)
(8.63287e-07 0 0)
(8.69453e-07 0 0)
(8.75624e-07 0 0)
(8.81802e-07 0 0)
(8.87985e-07 0 0)
(8.94174e-07 0 0)
(9.00369e-07 0 0)
(9.0657e-07 0 0)
(9.12778e-07 0 0)
(9.18991e-07 0 0)
(9.25211e-07 0 0)
(9.31436e-07 0 0)
(9.37668e-07 0 0)
(9.43906e-07 0 0)
(9.50149e-07 0 0)
(9.56399e-07 0 0)
(9.62653e-07 0 0)
(9.68914e-07 0 0)
(9.7518e-07 0 0)
(9.81452e-07 0 0)
(9.87729e-07 0 0)
(9.94013e-07 0 0)
(1.0003e-06 0 0)
(1.0066e-06 0 0)
(1.0129e-06 0 0)
(1.01921e-06 0 0)
(1.02553e-06 0 0)
(1.03185e-06 0 0)
(1.03817e-06 0 0)
(1.0445e-06 0 0)
(1.05084e-06 0 0)
(1.05717e-06 0 0)
(1.0635e-06 0 0)
(1.06984e-06 0 0)
(1.07616e-06 0 0)
(1.08249e-06 0 0)
(1.08881e-06 0 0)
(1.09512e-06 0 0)
(1.10143e-06 0 0)
(1.10773e-06 0 0)
(1.11403e-06 0 0)
(1.12032e-06 0 0)
(1.12661e-06 0 0)
(1.1329e-06 0 0)
(1.13919e-06 0 0)
(1.14548e-06 0 0)
(1.15178e-06 0 0)
(1.15808e-06 0 0)
(1.16439e-06 0 0)
(1.17072e-06 0 0)
(1.17707e-06 0 0)
(1.18343e-06 0 0)
(1.18982e-06 0 0)
(1.19623e-06 0 0)
(1.20268e-06 0 0)
(1.20915e-06 0 0)
(1.21565e-06 0 0)
(1.22218e-06 0 0)
(1.22874e-06 0 0)
(1.23533e-06 0 0)
(1.24194e-06 0 0)
(1.24858e-06 0 0)
(1.25524e-06 0 0)
(1.26191e-06 0 0)
(1.2686e-06 0 0)
(1.27529e-06 0 0)
(1.282e-06 0 0)
(1.2887e-06 0 0)
(1.2954e-06 0 0)
(1.3021e-06 0 0)
(1.3088e-06 0 0)
(1.31549e-06 0 0)
(1.32218e-06 0 0)
(1.32886e-06 0 0)
(1.33553e-06 0 0)
(1.3422e-06 0 0)
(1.34886e-06 0 0)
(1.35553e-06 0 0)
(1.36218e-06 0 0)
(1.36884e-06 0 0)
(1.3755e-06 0 0)
(1.38216e-06 0 0)
(1.38882e-06 0 0)
(1.39549e-06 0 0)
(1.40216e-06 0 0)
(1.40883e-06 0 0)
(1.41551e-06 0 0)
(1.4222e-06 0 0)
(1.4289e-06 0 0)
(1.4356e-06 0 0)
(1.44232e-06 0 0)
(1.44904e-06 0 0)
(1.45576e-06 0 0)
(1.4625e-06 0 0)
(1.46924e-06 0 0)
(1.476e-06 0 0)
(1.48276e-06 0 0)
(1.48952e-06 0 0)
(1.4963e-06 0 0)
(1.50308e-06 0 0)
(1.50987e-06 0 0)
(1.51666e-06 0 0)
(1.52346e-06 0 0)
(1.53027e-06 0 0)
(1.53708e-06 0 0)
(1.5439e-06 0 0)
(1.55073e-06 0 0)
(1.55756e-06 0 0)
(1.5644e-06 0 0)
(1.57124e-06 0 0)
(1.57809e-06 0 0)
(1.58495e-06 0 0)
(1.59181e-06 0 0)
(1.59868e-06 0 0)
(1.60555e-06 0 0)
(1.61243e-06 0 0)
(1.61931e-06 0 0)
(1.6262e-06 0 0)
(1.63309e-06 0 0)
(1.63999e-06 0 0)
(1.64689e-06 0 0)
(1.6538e-06 0 0)
(1.66072e-06 0 0)
(1.66764e-06 0 0)
(1.67457e-06 0 0)
(1.6815e-06 0 0)
(1.68843e-06 0 0)
(1.69538e-06 0 0)
(1.70232e-06 0 0)
(1.70928e-06 0 0)
(1.71624e-06 0 0)
(1.7232e-06 0 0)
(1.73017e-06 0 0)
(1.73714e-06 0 0)
(1.74412e-06 0 0)
(1.75111e-06 0 0)
(1.7581e-06 0 0)
(1.76509e-06 0 0)
(1.77209e-06 0 0)
(1.7791e-06 0 0)
(1.78611e-06 0 0)
(1.79313e-06 0 0)
(1.80015e-06 0 0)
(1.80717e-06 0 0)
(1.81421e-06 0 0)
(1.82124e-06 0 0)
(1.82829e-06 0 0)
(1.83534e-06 0 0)
(1.84239e-06 0 0)
(1.84945e-06 0 0)
(1.85652e-06 0 0)
(1.86359e-06 0 0)
(1.87067e-06 0 0)
(1.87775e-06 0 0)
(1.88484e-06 0 0)
(1.89193e-06 0 0)
(1.89904e-06 0 0)
(1.90614e-06 0 0)
(1.91326e-06 0 0)
(1.92037e-06 0 0)
(1.9275e-06 0 0)
(1.93463e-06 0 0)
(1.94177e-06 0 0)
(1.94891e-06 0 0)
(1.95606e-06 0 0)
(1.96322e-06 0 0)
(1.97038e-06 0 0)
(1.97755e-06 0 0)
(1.98473e-06 0 0)
(1.99191e-06 0 0)
(1.99909e-06 0 0)
(2.00628e-06 0 0)
(2.01348e-06 0 0)
(2.02067e-06 0 0)
(2.02787e-06 0 0)
(2.03507e-06 0 0)
(2.04227e-06 0 0)
(2.04947e-06 0 0)
(2.05667e-06 0 0)
(2.06386e-06 0 0)
(2.07105e-06 0 0)
(2.07824e-06 0 0)
(2.08542e-06 0 0)
(2.0926e-06 0 0)
(2.09977e-06 0 0)
(2.10694e-06 0 0)
(2.11411e-06 0 0)
(2.12127e-06 0 0)
(2.12843e-06 0 0)
(2.13558e-06 0 0)
(2.14274e-06 0 0)
(2.1499e-06 0 0)
(2.15707e-06 0 0)
(2.16424e-06 0 0)
(2.17142e-06 0 0)
(2.17861e-06 0 0)
(2.18581e-06 0 0)
(2.19303e-06 0 0)
(2.20028e-06 0 0)
(2.20754e-06 0 0)
(2.21483e-06 0 0)
(2.22214e-06 0 0)
(2.22949e-06 0 0)
(2.23686e-06 0 0)
(2.24427e-06 0 0)
(2.25171e-06 0 0)
(2.25919e-06 0 0)
(2.26669e-06 0 0)
(2.27423e-06 0 0)
(2.2818e-06 0 0)
(2.2894e-06 0 0)
(2.29703e-06 0 0)
(2.30468e-06 0 0)
(2.31235e-06 0 0)
(2.32005e-06 0 0)
(2.32776e-06 0 0)
(2.33548e-06 0 0)
(2.34321e-06 0 0)
(2.35095e-06 0 0)
(2.3587e-06 0 0)
(2.36645e-06 0 0)
(2.3742e-06 0 0)
(2.38195e-06 0 0)
(2.3897e-06 0 0)
(2.39744e-06 0 0)
(2.40518e-06 0 0)
(2.41292e-06 0 0)
(2.42066e-06 0 0)
(2.42839e-06 0 0)
(2.43612e-06 0 0)
(2.44385e-06 0 0)
(2.45157e-06 0 0)
(2.4593e-06 0 0)
(2.46703e-06 0 0)
(2.47476e-06 0 0)
(2.48249e-06 0 0)
(2.49023e-06 0 0)
(2.49797e-06 0 0)
(2.50572e-06 0 0)
(2.51347e-06 0 0)
(2.52124e-06 0 0)
(2.52901e-06 0 0)
(2.53678e-06 0 0)
(2.54457e-06 0 0)
(2.55237e-06 0 0)
(2.56018e-06 0 0)
(2.56799e-06 0 0)
(2.57582e-06 0 0)
(2.58366e-06 0 0)
(2.59151e-06 0 0)
(2.59937e-06 0 0)
(2.60724e-06 0 0)
(2.61512e-06 0 0)
(2.62301e-06 0 0)
(2.63091e-06 0 0)
(2.63882e-06 0 0)
(2.64674e-06 0 0)
(2.65467e-06 0 0)
(2.66262e-06 0 0)
(2.67057e-06 0 0)
(2.67853e-06 0 0)
(2.6865e-06 0 0)
(2.69448e-06 0 0)
(2.70247e-06 0 0)
(2.71047e-06 0 0)
(2.71848e-06 0 0)
(2.7265e-06 0 0)
(2.73452e-06 0 0)
(2.74256e-06 0 0)
(2.75061e-06 0 0)
(2.75866e-06 0 0)
(2.76672e-06 0 0)
(2.7748e-06 0 0)
(2.78288e-06 0 0)
(2.79097e-06 0 0)
(2.79907e-06 0 0)
(2.80718e-06 0 0)
(2.8153e-06 0 0)
(2.82342e-06 0 0)
(2.83156e-06 0 0)
(2.83971e-06 0 0)
(2.84786e-06 0 0)
(2.85602e-06 0 0)
(2.8642e-06 0 0)
(2.87238e-06 0 0)
(2.88057e-06 0 0)
(2.88877e-06 0 0)
(2.89698e-06 0 0)
(2.9052e-06 0 0)
(2.91343e-06 0 0)
(2.92166e-06 0 0)
(2.92991e-06 0 0)
(2.93817e-06 0 0)
(2.94643e-06 0 0)
(2.95471e-06 0 0)
(2.96299e-06 0 0)
(2.97129e-06 0 0)
(2.97959e-06 0 0)
(2.9879e-06 0 0)
(2.99623e-06 0 0)
(3.00456e-06 0 0)
(3.0129e-06 0 0)
(3.02126e-06 0 0)
(3.02962e-06 0 0)
(3.03799e-06 0 0)
(3.04637e-06 0 0)
(3.05477e-06 0 0)
(3.06317e-06 0 0)
(3.07158e-06 0 0)
(3.08001e-06 0 0)
(3.08844e-06 0 0)
(3.09689e-06 0 0)
(3.10534e-06 0 0)
(3.11381e-06 0 0)
(3.12229e-06 0 0)
(3.13077e-06 0 0)
(3.13927e-06 0 0)
(3.14778e-06 0 0)
(3.15631e-06 0 0)
(3.16484e-06 0 0)
(3.17338e-06 0 0)
(3.18194e-06 0 0)
(3.19051e-06 0 0)
(3.19909e-06 0 0)
(3.20768e-06 0 0)
(3.21628e-06 0 0)
(3.22489e-06 0 0)
(3.23351e-06 0 0)
(3.24215e-06 0 0)
(3.25079e-06 0 0)
(3.25944e-06 0 0)
(3.26811e-06 0 0)
(3.27678e-06 0 0)
(3.28546e-06 0 0)
(3.29415e-06 0 0)
(3.30285e-06 0 0)
(3.31155e-06 0 0)
(3.32026e-06 0 0)
(3.32897e-06 0 0)
(3.33769e-06 0 0)
(3.34641e-06 0 0)
(3.35514e-06 0 0)
(3.36387e-06 0 0)
(3.3726e-06 0 0)
(3.38133e-06 0 0)
(3.39007e-06 0 0)
(3.39881e-06 0 0)
(3.40755e-06 0 0)
(3.4163e-06 0 0)
(3.42504e-06 0 0)
(3.4338e-06 0 0)
(3.44255e-06 0 0)
(3.45132e-06 0 0)
(3.46009e-06 0 0)
(3.46887e-06 0 0)
(3.47766e-06 0 0)
(3.48647e-06 0 0)
(3.49529e-06 0 0)
(3.50412e-06 0 0)
(3.51298e-06 0 0)
(3.52186e-06 0 0)
(3.53076e-06 0 0)
(3.53969e-06 0 0)
(3.54864e-06 0 0)
(3.55763e-06 0 0)
(3.56665e-06 0 0)
(3.57571e-06 0 0)
(3.5848e-06 0 0)
(3.59393e-06 0 0)
(3.6031e-06 0 0)
(3.61231e-06 0 0)
(3.62157e-06 0 0)
(3.63087e-06 0 0)
(3.64021e-06 0 0)
(3.64959e-06 0 0)
(3.65901e-06 0 0)
(3.66848e-06 0 0)
(3.67798e-06 0 0)
(3.68752e-06 0 0)
(3.6971e-06 0 0)
(3.70671e-06 0 0)
(3.71635e-06 0 0)
(3.72603e-06 0 0)
(3.73573e-06 0 0)
(3.74545e-06 0 0)
(3.7552e-06 0 0)
(3.76497e-06 0 0)
(3.77475e-06 0 0)
(3.78455e-06 0 0)
(3.79437e-06 0 0)
(3.8042e-06 0 0)
(3.81404e-06 0 0)
(3.82389e-06 0 0)
(3.83375e-06 0 0)
(3.84361e-06 0 0)
(3.85349e-06 0 0)
(3.86338e-06 0 0)
(3.87327e-06 0 0)
(3.88317e-06 0 0)
(3.89308e-06 0 0)
(3.90301e-06 0 0)
(3.91294e-06 0 0)
(3.92288e-06 0 0)
(3.93284e-06 0 0)
(3.94281e-06 0 0)
(3.95279e-06 0 0)
(3.96279e-06 0 0)
(3.9728e-06 0 0)
(3.98284e-06 0 0)
(3.99288e-06 0 0)
(4.00295e-06 0 0)
(4.01304e-06 0 0)
(4.02314e-06 0 0)
(4.03327e-06 0 0)
(4.04342e-06 0 0)
(4.05359e-06 0 0)
(4.06379e-06 0 0)
(4.074e-06 0 0)
(4.08425e-06 0 0)
(4.09451e-06 0 0)
(4.1048e-06 0 0)
(4.11512e-06 0 0)
(4.12546e-06 0 0)
(4.13582e-06 0 0)
(4.14621e-06 0 0)
(4.15663e-06 0 0)
(4.16707e-06 0 0)
(4.17754e-06 0 0)
(4.18803e-06 0 0)
(4.19855e-06 0 0)
(4.2091e-06 0 0)
(4.21967e-06 0 0)
(4.23027e-06 0 0)
(4.24089e-06 0 0)
(4.25155e-06 0 0)
(4.26222e-06 0 0)
(4.27293e-06 0 0)
(4.28366e-06 0 0)
(4.29442e-06 0 0)
(4.3052e-06 0 0)
(4.31602e-06 0 0)
(4.32685e-06 0 0)
(4.33772e-06 0 0)
(4.34862e-06 0 0)
(4.35954e-06 0 0)
(4.37049e-06 0 0)
(4.38147e-06 0 0)
(4.39247e-06 0 0)
(4.40351e-06 0 0)
(4.41457e-06 0 0)
(4.42566e-06 0 0)
(4.43678e-06 0 0)
(4.44793e-06 0 0)
(4.45911e-06 0 0)
(4.47032e-06 0 0)
(4.48155e-06 0 0)
(4.49282e-06 0 0)
(4.50412e-06 0 0)
(4.51545e-06 0 0)
(4.52681e-06 0 0)
(4.5382e-06 0 0)
(4.54962e-06 0 0)
(4.56108e-06 0 0)
(4.57257e-06 0 0)
(4.58409e-06 0 0)
(4.59564e-06 0 0)
(4.60722e-06 0 0)
(4.61884e-06 0 0)
(4.63049e-06 0 0)
(4.64217e-06 0 0)
(4.65389e-06 0 0)
(4.66565e-06 0 0)
(4.67744e-06 0 0)
(4.68926e-06 0 0)
(4.70112e-06 0 0)
(4.71302e-06 0 0)
(4.72495e-06 0 0)
(4.73692e-06 0 0)
(4.74892e-06 0 0)
(4.76097e-06 0 0)
(4.77305e-06 0 0)
(4.78517e-06 0 0)
(4.79733e-06 0 0)
(4.80953e-06 0 0)
(4.82177e-06 0 0)
(4.83404e-06 0 0)
(4.84636e-06 0 0)
(4.85872e-06 0 0)
(4.87113e-06 0 0)
(4.88357e-06 0 0)
(4.89606e-06 0 0)
(4.90859e-06 0 0)
(4.92116e-06 0 0)
(4.93377e-06 0 0)
(4.94643e-06 0 0)
(4.95913e-06 0 0)
(4.97188e-06 0 0)
(4.98468e-06 0 0)
(4.99752e-06 0 0)
(5.0104e-06 0 0)
(5.02333e-06 0 0)
(5.0363e-06 0 0)
(5.04932e-06 0 0)
(5.06239e-06 0 0)
(5.0755e-06 0 0)
(5.08866e-06 0 0)
(5.10186e-06 0 0)
(5.1151e-06 0 0)
(5.12839e-06 0 0)
(5.14172e-06 0 0)
(5.1551e-06 0 0)
(5.16852e-06 0 0)
(5.18198e-06 0 0)
(5.19548e-06 0 0)
(5.20902e-06 0 0)
(5.2226e-06 0 0)
(5.23621e-06 0 0)
(5.24986e-06 0 0)
(5.26354e-06 0 0)
(5.27725e-06 0 0)
(5.29099e-06 0 0)
(5.30475e-06 0 0)
(5.31853e-06 0 0)
(5.33233e-06 0 0)
(5.34614e-06 0 0)
(5.35997e-06 0 0)
(5.37379e-06 0 0)
(5.38762e-06 0 0)
(5.40142e-06 0 0)
(5.41521e-06 0 0)
(5.42897e-06 0 0)
(5.44269e-06 0 0)
(5.45635e-06 0 0)
(5.46994e-06 0 0)
(5.48345e-06 0 0)
(5.49684e-06 0 0)
(5.5101e-06 0 0)
(5.5232e-06 0 0)
(5.53613e-06 0 0)
(5.54884e-06 0 0)
(5.56131e-06 0 0)
(5.5735e-06 0 0)
(5.58536e-06 0 0)
(5.59688e-06 0 0)
(5.60802e-06 0 0)
(5.61872e-06 0 0)
(5.62897e-06 0 0)
(5.63872e-06 0 0)
(5.64794e-06 0 0)
(5.65662e-06 0 0)
(5.66473e-06 0 0)
(5.67227e-06 0 0)
(5.67922e-06 0 0)
(5.68559e-06 0 0)
(5.69137e-06 0 0)
(5.69659e-06 0 0)
(5.70127e-06 0 0)
(5.70544e-06 0 0)
(5.70914e-06 0 0)
(5.71238e-06 0 0)
(5.71521e-06 0 0)
(5.71768e-06 0 0)
(5.71981e-06 0 0)
(5.72167e-06 0 0)
(5.72329e-06 0 0)
(5.72474e-06 0 0)
(5.72606e-06 0 0)
(5.72734e-06 0 0)
(5.72872e-06 0 0)
(5.73041e-06 0 0)
(5.73279e-06 0 0)
(5.73646e-06 0 0)
(5.74254e-06 0 0)
(5.753e-06 0 0)
(5.77131e-06 0 0)
(5.80353e-06 0 0)
(5.85996e-06 0 0)
(5.95735e-06 0 0)
(6.12067e-06 0 0)
(6.38161e-06 0 0)
(6.76777e-06 0 0)
(7.27945e-06 0 0)
(7.86644e-06 0 0)
(8.43634e-06 0 0)
(8.90294e-06 0 0)
(9.23091e-06 0 0)
(9.43557e-06 0 0)
(9.5533e-06 0 0)
(9.61773e-06 0 0)
(9.65203e-06 0 0)
(9.67005e-06 0 0)
(9.67948e-06 0 0)
(9.68443e-06 0 0)
(9.68705e-06 0 0)
(9.68848e-06 0 0)
(9.68928e-06 0 0)
(9.68976e-06 0 0)
(9.69007e-06 0 0)
(9.69029e-06 0 0)
(9.69046e-06 0 0)
(9.6906e-06 0 0)
(9.69073e-06 0 0)
(9.69085e-06 0 0)
(9.69097e-06 0 0)
(9.69108e-06 0 0)
(9.69119e-06 0 0)
(9.6913e-06 0 0)
(9.6914e-06 0 0)
(9.69151e-06 0 0)
(9.69162e-06 0 0)
(9.69173e-06 0 0)
(9.69184e-06 0 0)
(9.69195e-06 0 0)
(9.69206e-06 0 0)
(9.69218e-06 0 0)
(9.6923e-06 0 0)
(9.69241e-06 0 0)
(9.69253e-06 0 0)
(9.69265e-06 0 0)
(9.69277e-06 0 0)
(9.6929e-06 0 0)
(9.69302e-06 0 0)
(9.69314e-06 0 0)
(9.69327e-06 0 0)
(9.69339e-06 0 0)
(9.69352e-06 0 0)
(9.69365e-06 0 0)
(9.69377e-06 0 0)
(9.6939e-06 0 0)
(9.69402e-06 0 0)
(9.69415e-06 0 0)
(9.69427e-06 0 0)
(9.69439e-06 0 0)
(9.69451e-06 0 0)
(9.69463e-06 0 0)
(9.69475e-06 0 0)
(9.69486e-06 0 0)
(9.69497e-06 0 0)
(9.69509e-06 0 0)
(9.69519e-06 0 0)
(9.6953e-06 0 0)
(9.6954e-06 0 0)
(9.6955e-06 0 0)
(9.6956e-06 0 0)
(9.69569e-06 0 0)
(9.69578e-06 0 0)
(9.69587e-06 0 0)
(9.69596e-06 0 0)
(9.69604e-06 0 0)
(9.69612e-06 0 0)
(9.69619e-06 0 0)
(9.69626e-06 0 0)
(9.69633e-06 0 0)
(9.69639e-06 0 0)
(9.69645e-06 0 0)
(9.6965e-06 0 0)
(9.69656e-06 0 0)
(9.6966e-06 0 0)
(9.69665e-06 0 0)
(9.69669e-06 0 0)
(9.69672e-06 0 0)
(9.69676e-06 0 0)
(9.69678e-06 0 0)
(9.69681e-06 0 0)
(9.69683e-06 0 0)
(9.69685e-06 0 0)
(9.69686e-06 0 0)
(9.69687e-06 0 0)
(9.69687e-06 0 0)
(9.69687e-06 0 0)
(9.69688e-06 0 0)
(9.69687e-06 0 0)
(9.69686e-06 0 0)
(9.69685e-06 0 0)
(9.69684e-06 0 0)
(9.69682e-06 0 0)
(9.69679e-06 0 0)
(9.69677e-06 0 0)
(9.69674e-06 0 0)
(9.6967e-06 0 0)
(9.69667e-06 0 0)
(9.69663e-06 0 0)
(9.69659e-06 0 0)
(9.69654e-06 0 0)
(9.69649e-06 0 0)
(9.69644e-06 0 0)
(9.69639e-06 0 0)
(9.69633e-06 0 0)
(9.69627e-06 0 0)
(9.69621e-06 0 0)
(9.69614e-06 0 0)
(9.69607e-06 0 0)
(9.696e-06 0 0)
(9.69592e-06 0 0)
(9.69584e-06 0 0)
(9.69576e-06 0 0)
(9.69567e-06 0 0)
(9.69558e-06 0 0)
(9.69548e-06 0 0)
(9.69538e-06 0 0)
(9.69528e-06 0 0)
(9.69517e-06 0 0)
(9.69505e-06 0 0)
(9.69493e-06 0 0)
(9.6948e-06 0 0)
(9.69466e-06 0 0)
(9.69452e-06 0 0)
(9.69436e-06 0 0)
(9.6942e-06 0 0)
(9.69403e-06 0 0)
(9.69385e-06 0 0)
(9.69366e-06 0 0)
(9.69346e-06 0 0)
(9.69325e-06 0 0)
(9.69302e-06 0 0)
(9.69278e-06 0 0)
(9.69253e-06 0 0)
(9.69227e-06 0 0)
(9.69199e-06 0 0)
(9.6917e-06 0 0)
(9.6914e-06 0 0)
(9.69108e-06 0 0)
(9.69075e-06 0 0)
(9.6904e-06 0 0)
(9.69004e-06 0 0)
(9.68966e-06 0 0)
(9.68927e-06 0 0)
(9.68887e-06 0 0)
(9.68846e-06 0 0)
(9.68804e-06 0 0)
(9.6876e-06 0 0)
(9.68716e-06 0 0)
(9.68671e-06 0 0)
(9.68625e-06 0 0)
(9.68578e-06 0 0)
(9.68531e-06 0 0)
(9.68484e-06 0 0)
(9.68437e-06 0 0)
(9.6839e-06 0 0)
(9.68343e-06 0 0)
(9.68297e-06 0 0)
(9.68251e-06 0 0)
(9.68207e-06 0 0)
(9.68163e-06 0 0)
(9.68121e-06 0 0)
(9.6808e-06 0 0)
(9.68042e-06 0 0)
(9.68005e-06 0 0)
(9.6797e-06 0 0)
(9.67938e-06 0 0)
(9.67909e-06 0 0)
(9.67882e-06 0 0)
(9.67859e-06 0 0)
(9.67838e-06 0 0)
(9.67821e-06 0 0)
(9.67807e-06 0 0)
(9.67796e-06 0 0)
(9.6779e-06 0 0)
(9.67786e-06 0 0)
(9.67785e-06 0 0)
(9.67785e-06 0 0)
(9.67787e-06 0 0)
(9.67795e-06 0 0)
(9.67809e-06 0 0)
(9.67826e-06 0 0)
(9.67847e-06 0 0)
(9.6787e-06 0 0)
(9.67896e-06 0 0)
(9.67925e-06 0 0)
(9.67956e-06 0 0)
(9.67989e-06 0 0)
(9.68025e-06 0 0)
(9.68062e-06 0 0)
(9.681e-06 0 0)
(9.6814e-06 0 0)
(9.6818e-06 0 0)
(9.68222e-06 0 0)
(9.68263e-06 0 0)
(9.68306e-06 0 0)
(9.68348e-06 0 0)
(9.68389e-06 0 0)
(9.68431e-06 0 0)
(9.68472e-06 0 0)
(9.68512e-06 0 0)
(9.68551e-06 0 0)
(9.68589e-06 0 0)
(9.68626e-06 0 0)
(9.68662e-06 0 0)
(9.68696e-06 0 0)
(9.68729e-06 0 0)
(9.68761e-06 0 0)
(9.68791e-06 0 0)
(9.6882e-06 0 0)
(9.68847e-06 0 0)
(9.68873e-06 0 0)
(9.68898e-06 0 0)
(9.68921e-06 0 0)
(9.68943e-06 0 0)
(9.68964e-06 0 0)
(9.68984e-06 0 0)
(9.69002e-06 0 0)
(9.6902e-06 0 0)
(9.69037e-06 0 0)
(9.69053e-06 0 0)
(9.69068e-06 0 0)
(9.69083e-06 0 0)
(9.69097e-06 0 0)
(9.6911e-06 0 0)
(9.69123e-06 0 0)
(9.69135e-06 0 0)
(9.69148e-06 0 0)
(9.6916e-06 0 0)
(9.69171e-06 0 0)
(9.69183e-06 0 0)
(9.69194e-06 0 0)
(9.69206e-06 0 0)
(9.69217e-06 0 0)
(9.69228e-06 0 0)
(9.69239e-06 0 0)
(9.6925e-06 0 0)
(9.69261e-06 0 0)
(9.69272e-06 0 0)
(9.69283e-06 0 0)
(9.69294e-06 0 0)
)
;

boundaryField
{
    inlet
    {
        type            fixedValue;
        value           uniform (0 0 0);
    }
    outlet
    {
        type            zeroGradient;
    }
    emptyWalls
    {
        type            empty;
    }
}


// ************************************************************************* //
