/*--------------------------------*- C++ -*----------------------------------*\
  =========                 |
  \\      /  F ield         | OpenFOAM: The Open Source CFD Toolbox
   \\    /   O peration     | Website:  https://openfoam.org
    \\  /    A nd           | Version:  9
     \\/     M anipulation  |
\*---------------------------------------------------------------------------*/
FoamFile
{
    format      ascii;
    class       volScalarField;
    location    "23300";
    object      krc;
}
// * * * * * * * * * * * * * * * * * * * * * * * * * * * * * * * * * * * * * //

dimensions      [0 0 0 0 0 0 0];

internalField   nonuniform List<scalar> 
1000
(
8.32332e-08
7.6259e-07
2.70873e-06
5.84219e-06
1.0145e-05
1.56223e-05
2.22933e-05
3.01775e-05
3.92983e-05
4.96741e-05
6.13143e-05
7.42149e-05
8.83523e-05
0.000103677
0.000120103
0.000137503
0.0001557
0.000174463
0.000193509
0.000212518
0.000231152
0.00024908
0.000266016
0.000281735
0.000296102
0.000309069
0.000320715
0.000331376
0.000342525
0.000360878
0.000417945
0.000658142
0.00250798
0.0216264
0.0394512
0.0440434
0.0459156
0.0469956
0.0477546
0.0483561
0.0488653
0.0493158
0.0497234
0.0500998
0.0504501
0.0507802
0.0510921
0.0513894
0.0516728
0.0519449
0.0522056
0.0524569
0.0526991
0.0529339
0.0531611
0.0533821
0.0535968
0.0538065
0.0540112
0.0542119
0.0544089
0.054603
0.0547942
0.0549834
0.0551706
0.0553566
0.0555417
0.0557266
0.0559128
0.0561016
0.0562912
0.0564816
0.0566731
0.0568657
0.05706
0.0572564
0.0574552
0.0576572
0.0578628
0.058073
0.0582888
0.0585114
0.0587427
0.058985
0.0592416
0.0595169
0.0598166
0.0601475
0.0605172
0.0609326
0.0613977
0.0619118
0.0624681
0.0630569
0.0636692
0.0642983
0.0649397
0.06559
0.0662469
0.0669085
0.0675736
0.0682412
0.0689105
0.069581
0.0702522
0.0709236
0.0715952
0.0722665
0.0729374
0.0736077
0.0742774
0.0749463
0.0756143
0.0762813
0.0769473
0.0776121
0.0782759
0.0789385
0.0795999
0.08026
0.0809189
0.0815765
0.0822328
0.0828878
0.0835415
0.0841938
0.0848447
0.0854943
0.0861426
0.0867894
0.0874349
0.0880791
0.0887218
0.0893632
0.0900032
0.0906418
0.091279
0.0919148
0.0925493
0.0931823
0.0938139
0.0944441
0.0950729
0.0957003
0.0963263
0.0969508
0.097574
0.0981958
0.0988162
0.0994353
0.100053
0.100669
0.101285
0.101898
0.102511
0.103122
0.103732
0.104341
0.104948
0.105555
0.10616
0.106764
0.107367
0.107968
0.108569
0.109168
0.109766
0.110362
0.110958
0.111552
0.112145
0.112736
0.113327
0.113916
0.114504
0.11509
0.115676
0.11626
0.116843
0.117425
0.118005
0.118585
0.119163
0.11974
0.120316
0.120891
0.121465
0.122037
0.122609
0.123179
0.123748
0.124316
0.124884
0.12545
0.126014
0.126578
0.127141
0.127703
0.128263
0.128823
0.129381
0.129939
0.130495
0.131051
0.131605
0.132159
0.132711
0.133262
0.133812
0.134362
0.13491
0.135457
0.136004
0.136549
0.137093
0.137637
0.138179
0.13872
0.139261
0.1398
0.140339
0.140877
0.141413
0.141949
0.142484
0.143018
0.143551
0.144083
0.144614
0.145144
0.145673
0.146202
0.146729
0.147256
0.147782
0.148307
0.148831
0.149354
0.149876
0.150398
0.150918
0.151438
0.151957
0.152475
0.152992
0.153509
0.154024
0.154539
0.155053
0.155566
0.156078
0.15659
0.1571
0.15761
0.158119
0.158628
0.159135
0.159642
0.160148
0.160653
0.161158
0.161661
0.162164
0.162666
0.163168
0.163668
0.164168
0.164667
0.165166
0.165663
0.16616
0.166656
0.167151
0.167645
0.168139
0.168632
0.169124
0.169616
0.170106
0.170596
0.171086
0.171574
0.172062
0.172549
0.173036
0.173522
0.174008
0.174492
0.174977
0.17546
0.175944
0.176426
0.176908
0.17739
0.177871
0.178352
0.178832
0.179311
0.17979
0.180268
0.180746
0.181223
0.181699
0.182175
0.182651
0.183125
0.183599
0.184073
0.184545
0.185017
0.185489
0.18596
0.18643
0.186899
0.187368
0.187837
0.188305
0.188772
0.189239
0.189705
0.19017
0.190635
0.1911
0.191563
0.192027
0.19249
0.192952
0.193414
0.193875
0.194336
0.194796
0.195256
0.195715
0.196173
0.196632
0.197089
0.197547
0.198003
0.198459
0.198915
0.19937
0.199825
0.200279
0.200733
0.201186
0.201639
0.202091
0.202543
0.202994
0.203445
0.203896
0.204346
0.204795
0.205244
0.205693
0.206141
0.206588
0.207036
0.207482
0.207929
0.208375
0.20882
0.209265
0.209709
0.210154
0.210597
0.21104
0.211483
0.211926
0.212368
0.212809
0.21325
0.213691
0.214131
0.214571
0.21501
0.21545
0.215888
0.216326
0.216764
0.217202
0.217639
0.218075
0.218512
0.218948
0.219383
0.219818
0.220253
0.220687
0.221121
0.221555
0.221988
0.222421
0.222854
0.223286
0.223718
0.224149
0.22458
0.225011
0.225441
0.225871
0.226301
0.22673
0.227159
0.227588
0.228016
0.228444
0.228872
0.229299
0.229726
0.230152
0.230578
0.231004
0.231429
0.231854
0.232279
0.232703
0.233127
0.23355
0.233974
0.234396
0.234819
0.235241
0.235663
0.236084
0.236505
0.236926
0.237346
0.237767
0.238187
0.238606
0.239026
0.239445
0.239864
0.240283
0.240702
0.241121
0.241539
0.241957
0.242375
0.242793
0.243211
0.243629
0.244046
0.244464
0.244881
0.245298
0.245715
0.246131
0.246548
0.246964
0.24738
0.247796
0.248211
0.248627
0.249042
0.249456
0.249871
0.250285
0.250699
0.251113
0.251526
0.251939
0.252352
0.252765
0.253177
0.253589
0.254001
0.254413
0.254824
0.255236
0.255647
0.256057
0.256468
0.256878
0.257288
0.257698
0.258108
0.258518
0.258927
0.259336
0.259745
0.260154
0.260563
0.260971
0.261379
0.261787
0.262195
0.262603
0.263011
0.263418
0.263826
0.264233
0.26464
0.265047
0.265453
0.26586
0.266266
0.266672
0.267078
0.267484
0.26789
0.268296
0.268701
0.269106
0.269512
0.269917
0.270322
0.270726
0.271131
0.271535
0.27194
0.272344
0.272748
0.273152
0.273556
0.273959
0.274363
0.274766
0.27517
0.275573
0.275976
0.276379
0.276782
0.277184
0.277587
0.27799
0.278392
0.278794
0.279196
0.279599
0.280001
0.280402
0.280804
0.281206
0.281607
0.282009
0.28241
0.282812
0.283213
0.283614
0.284015
0.284416
0.284817
0.285218
0.285619
0.286019
0.28642
0.286821
0.287221
0.287622
0.288022
0.288422
0.288823
0.289223
0.289623
0.290023
0.290423
0.290823
0.291223
0.291623
0.292023
0.292422
0.292822
0.293222
0.293621
0.294021
0.29442
0.294819
0.295219
0.295618
0.296017
0.296416
0.296815
0.297214
0.297613
0.298011
0.29841
0.298809
0.299207
0.299606
0.300004
0.300403
0.300801
0.301199
0.301598
0.301996
0.302395
0.302793
0.303192
0.30359
0.303989
0.304387
0.304786
0.305185
0.305584
0.305983
0.306383
0.306782
0.307182
0.307581
0.307981
0.308381
0.308782
0.309182
0.309583
0.309983
0.310384
0.310785
0.311187
0.311588
0.311989
0.312391
0.312793
0.313194
0.313596
0.313998
0.3144
0.314802
0.315205
0.315607
0.316009
0.316411
0.316814
0.317216
0.317619
0.318021
0.318424
0.318827
0.319229
0.319632
0.320035
0.320438
0.320841
0.321244
0.321647
0.322051
0.322454
0.322857
0.323261
0.323665
0.324069
0.324473
0.324877
0.325281
0.325685
0.32609
0.326495
0.3269
0.327305
0.32771
0.328115
0.328521
0.328926
0.329332
0.329738
0.330144
0.330551
0.330957
0.331364
0.331771
0.332178
0.332585
0.332993
0.333401
0.333808
0.334217
0.334625
0.335033
0.335442
0.335851
0.33626
0.336669
0.337079
0.337489
0.337899
0.338309
0.338719
0.33913
0.339541
0.339952
0.340363
0.340775
0.341187
0.341599
0.342011
0.342424
0.342836
0.343249
0.343663
0.344076
0.34449
0.344904
0.345319
0.345733
0.346148
0.346564
0.346979
0.347395
0.347811
0.348228
0.348644
0.349061
0.349479
0.349896
0.350314
0.350733
0.351151
0.35157
0.351989
0.352409
0.352829
0.353249
0.35367
0.354091
0.354512
0.354934
0.355356
0.355779
0.356201
0.356625
0.357048
0.357472
0.357896
0.358321
0.358746
0.359172
0.359598
0.360024
0.360451
0.360878
0.361305
0.361733
0.362162
0.36259
0.36302
0.363449
0.363879
0.364309
0.36474
0.365172
0.365603
0.366035
0.366468
0.366901
0.367334
0.367768
0.368202
0.368637
0.369072
0.369508
0.369944
0.370381
0.370818
0.371255
0.371694
0.372132
0.372572
0.373011
0.373452
0.373893
0.374334
0.374777
0.37522
0.375663
0.376107
0.376552
0.376998
0.377444
0.377891
0.378339
0.378788
0.379237
0.379687
0.380138
0.38059
0.381043
0.381496
0.38195
0.382406
0.382862
0.383318
0.383776
0.384235
0.384694
0.385154
0.385616
0.386078
0.38654
0.387004
0.387469
0.387934
0.3884
0.388867
0.389335
0.389804
0.390273
0.390744
0.391215
0.391687
0.39216
0.392634
0.393109
0.393584
0.394061
0.394538
0.395017
0.395496
0.395976
0.396457
0.396939
0.397422
0.397906
0.398391
0.398877
0.399364
0.399852
0.400341
0.400831
0.401322
0.401815
0.402308
0.402803
0.403298
0.403795
0.404293
0.404792
0.405292
0.405794
0.406296
0.4068
0.407305
0.407811
0.408319
0.408828
0.409338
0.409849
0.410362
0.410876
0.411391
0.411908
0.412426
0.412945
0.413465
0.413987
0.414511
0.415035
0.415561
0.416088
0.416617
0.417147
0.417678
0.418211
0.418745
0.41928
0.419817
0.420355
0.420894
0.421434
0.421976
0.422519
0.423062
0.423607
0.424153
0.4247
0.425248
0.425797
0.426346
0.426895
0.427445
0.427995
0.428546
0.429096
0.429645
0.430194
0.430741
0.431287
0.431831
0.432373
0.432912
0.433447
0.433978
0.434504
0.435024
0.435537
0.436043
0.43654
0.437027
0.437503
0.437967
0.438417
0.438853
0.439273
0.439676
0.44006
0.440426
0.440771
0.441096
0.441401
0.441683
0.441944
0.442184
0.442402
0.4426
0.442778
0.442937
0.443078
0.443202
0.44331
0.443404
0.443485
0.443554
0.443613
0.443662
0.443703
0.443737
0.443766
0.443789
0.443809
0.443826
0.443841
0.443857
0.443877
0.443906
0.443953
0.444033
0.444173
0.444422
0.44487
0.44567
0.447097
0.449619
0.454008
0.461455
0.473553
0.491875
0.516849
0.546321
0.575551
0.599727
0.616739
0.627318
0.633377
0.636678
0.638426
0.639338
0.639808
0.64005
0.640172
0.640234
0.640264
0.640279
0.640285
0.640287
0.640286
0.640285
0.640284
0.640283
0.640281
0.64028
0.640279
0.640278
0.640277
0.640277
0.640276
0.640277
0.640277
0.640277
0.640278
0.640279
0.64028
0.640281
0.640284
0.640285
0.640288
0.64029
0.640293
0.640295
0.640298
0.6403
0.640304
0.640306
0.64031
0.640313
0.640316
0.640319
0.640323
0.640326
0.640329
0.640332
0.640335
0.640338
0.640342
0.640345
0.640347
0.64035
0.640353
0.640356
0.640358
0.640361
)
;

boundaryField
{
    inlet
    {
        type            calculated;
        value           uniform 3.08149e-33;
    }
    outlet
    {
        type            calculated;
        value           uniform 0.640361;
    }
    emptyWalls
    {
        type            empty;
    }
}


// ************************************************************************* //
