/*--------------------------------*- C++ -*----------------------------------*\
  =========                 |
  \\      /  F ield         | OpenFOAM: The Open Source CFD Toolbox
   \\    /   O peration     | Website:  https://openfoam.org
    \\  /    A nd           | Version:  9
     \\/     M anipulation  |
\*---------------------------------------------------------------------------*/
FoamFile
{
    format      ascii;
    class       volScalarField;
    location    "15850";
    object      Fb;
}
// * * * * * * * * * * * * * * * * * * * * * * * * * * * * * * * * * * * * * //

dimensions      [0 0 0 0 0 0 0];

internalField   nonuniform List<scalar> 
1000
(
0.805196
0.805207
0.805216
0.805211
0.805247
0.805214
0.805317
0.80522
0.805436
0.805265
0.805537
0.805367
0.805581
0.805496
0.805614
0.805604
0.80566
0.805673
0.805711
0.805774
0.806077
0.807946
0.82332
0.832565
0.834229
0.834869
0.835224
0.835463
0.83564
0.835778
0.835887
0.835974
0.836047
0.836111
0.836171
0.836227
0.836273
0.836305
0.836326
0.836317
0.836305
0.836304
0.836291
0.836284
0.836284
0.836264
0.83621
0.836131
0.836014
0.835791
0.835486
0.835142
0.834775
0.834436
0.834167
0.833917
0.833646
0.833386
0.833125
0.832874
0.832641
0.832432
0.83225
0.832105
0.83199
0.831893
0.831798
0.831689
0.831554
0.831383
0.83117
0.830913
0.83061
0.830266
0.829884
0.829471
0.829033
0.828577
0.82811
0.827637
0.827162
0.826689
0.82622
0.825756
0.825299
0.824846
0.8244
0.823957
0.823518
0.823082
0.822648
0.822215
0.821783
0.82135
0.820918
0.820484
0.82005
0.819614
0.819178
0.818739
0.8183
0.817858
0.817416
0.816971
0.816525
0.816077
0.815627
0.815176
0.814723
0.814268
0.813812
0.813354
0.812894
0.812432
0.811969
0.811504
0.811037
0.810569
0.810098
0.809626
0.809153
0.808678
0.808201
0.807722
0.807242
0.80676
0.806276
0.805791
0.805304
0.804815
0.804325
0.803833
0.80334
0.802844
0.802348
0.801849
0.801349
0.800846
0.800344
0.799838
0.799333
0.798826
0.798319
0.79781
0.797301
0.796791
0.796282
0.79577
0.795259
0.794745
0.794231
0.793714
0.793197
0.792677
0.792157
0.791636
0.791114
0.790593
0.790071
0.789549
0.789027
0.788502
0.787973
0.78744
0.786899
0.78635
0.785791
0.785221
0.784639
0.784045
0.783438
0.782819
0.782189
0.78155
0.780903
0.780249
0.779592
0.778934
0.778278
0.777628
0.776986
0.776355
0.775741
0.775144
0.774568
0.774015
0.773486
0.772981
0.772501
0.772042
0.771605
0.771184
0.770778
0.770382
0.769991
0.769602
0.769211
0.768815
0.768411
0.767996
0.767569
0.767129
0.766675
0.766208
0.765727
0.765235
0.764731
0.764218
0.763696
0.763168
0.762634
0.762096
0.761554
0.761011
0.760466
0.759921
0.759377
0.758832
0.758289
0.757746
0.757205
0.756665
0.756126
0.755589
0.755052
0.754516
0.75398
0.753445
0.752911
0.752376
0.751841
0.751306
0.750771
0.750236
0.749699
0.749162
0.748625
0.748086
0.747547
0.747007
0.746466
0.745924
0.745381
0.744837
0.744291
0.743745
0.743198
0.742649
0.7421
0.741549
0.740997
0.740444
0.73989
0.739334
0.738778
0.73822
0.737661
0.737101
0.73654
0.735977
0.735413
0.734849
0.734282
0.733715
0.733147
0.732577
0.732006
0.731434
0.730861
0.730286
0.729711
0.729134
0.728556
0.727976
0.727396
0.726814
0.726231
0.725647
0.725062
0.724476
0.723889
0.723301
0.722713
0.722123
0.721532
0.72094
0.720348
0.719754
0.71916
0.718565
0.717969
0.717372
0.716774
0.716175
0.715575
0.714975
0.714373
0.713771
0.713167
0.712563
0.711957
0.71135
0.710742
0.710132
0.70952
0.708905
0.708287
0.707667
0.707042
0.706413
0.70578
0.705142
0.704499
0.70385
0.703195
0.702535
0.701868
0.701197
0.70052
0.699838
0.699152
0.698462
0.697769
0.697073
0.696377
0.695681
0.694985
0.694292
0.693603
0.692918
0.692239
0.691566
0.690902
0.690246
0.6896
0.688964
0.688338
0.687722
0.687118
0.686522
0.685937
0.685359
0.68479
0.684225
0.683668
0.683111
0.68256
0.682006
0.681455
0.680899
0.680343
0.67978
0.679215
0.678643
0.678067
0.677483
0.676894
0.676298
0.675696
0.675088
0.674474
0.673856
0.673232
0.672603
0.671971
0.671335
0.670696
0.670054
0.66941
0.668764
0.668117
0.667468
0.666817
0.666166
0.665515
0.664862
0.664209
0.663556
0.662902
0.662248
0.661594
0.660939
0.660284
0.659628
0.658972
0.658315
0.657658
0.657
0.656341
0.655681
0.655021
0.654359
0.653697
0.653034
0.652369
0.651703
0.651037
0.650369
0.6497
0.649029
0.648357
0.647684
0.64701
0.646334
0.645657
0.644978
0.644298
0.643616
0.642933
0.642249
0.641563
0.640875
0.640186
0.639495
0.638803
0.638109
0.637414
0.636717
0.636018
0.635318
0.634616
0.633913
0.633208
0.632501
0.631792
0.631082
0.630371
0.629657
0.628942
0.628225
0.627507
0.626786
0.626064
0.625341
0.624615
0.623888
0.62316
0.622429
0.621697
0.620963
0.620228
0.61949
0.618751
0.618011
0.617268
0.616524
0.615779
0.615031
0.614282
0.613531
0.612779
0.612024
0.611268
0.610511
0.609751
0.60899
0.608227
0.607462
0.606695
0.605927
0.605156
0.604384
0.603609
0.602832
0.602053
0.601272
0.600488
0.599702
0.598913
0.598121
0.597326
0.596527
0.595726
0.594921
0.594112
0.5933
0.592483
0.591663
0.590838
0.590009
0.589176
0.588339
0.587497
0.586652
0.585802
0.584949
0.584091
0.583231
0.582367
0.5815
0.580631
0.57976
0.578887
0.578012
0.577136
0.57626
0.575384
0.574509
0.573634
0.57276
0.571888
0.571018
0.57015
0.569284
0.568422
0.567562
0.566705
0.565852
0.565001
0.564153
0.563307
0.562464
0.561622
0.560782
0.559943
0.559105
0.558266
0.557427
0.556587
0.555745
0.5549
0.554053
0.553203
0.552349
0.551491
0.550628
0.54976
0.548888
0.54801
0.547128
0.546239
0.545345
0.544445
0.543541
0.54263
0.541714
0.540793
0.539867
0.538935
0.537999
0.537058
0.536112
0.535162
0.534207
0.533248
0.532284
0.531316
0.530345
0.529369
0.528389
0.527406
0.526418
0.525427
0.524431
0.523432
0.522429
0.521421
0.52041
0.519395
0.518376
0.517352
0.516324
0.515292
0.514256
0.513215
0.51217
0.511121
0.510067
0.509008
0.507945
0.506877
0.505804
0.504727
0.503644
0.502557
0.501466
0.500369
0.499267
0.498161
0.49705
0.495935
0.494815
0.493691
0.492562
0.49143
0.490293
0.489155
0.488012
0.486868
0.485721
0.484575
0.483426
0.482281
0.481135
0.479996
0.478859
0.477731
0.476612
0.475503
0.474411
0.473334
0.472281
0.471249
0.470247
0.469276
0.46834
0.467446
0.466591
0.465788
0.465029
0.464325
0.463673
0.463075
0.462535
0.462044
0.461611
0.461225
0.460887
0.460596
0.460341
0.460128
0.459941
0.459778
0.459629
0.459478
0.45931
0.459083
0.458742
0.45818
0.457208
0.455507
0.452506
0.44726
0.438244
0.423264
0.399793
0.366313
0.324752
0.28163
0.244847
0.218555
0.202102
0.192664
0.187517
0.184788
0.183363
0.182623
0.18224
0.182042
0.181938
0.181884
0.181855
0.181838
0.181827
0.18182
0.181814
0.181808
0.181804
0.181799
0.181793
0.181788
0.181782
0.181776
0.18177
0.181763
0.181756
0.181748
0.18174
0.181732
0.181723
0.181714
0.181704
0.181694
0.181684
0.181674
0.181663
0.181652
0.181641
0.18163
0.181619
0.181607
0.181596
0.181584
0.181573
0.181562
0.181552
0.181541
0.181531
0.181521
0.181512
0.181504
0.181496
0.181489
0.181482
0.181477
0.181472
0.181468
0.181465
0.181464
0.181463
0.181462
0.181461
0.181462
0.181465
0.181469
0.181473
0.181478
0.181484
0.181491
0.181498
0.181506
0.181515
0.181523
0.181533
0.181542
0.181552
0.181561
0.181571
0.181581
0.181591
0.181601
0.18161
0.181619
0.181628
0.181637
0.181645
0.181653
0.181661
0.181668
0.181675
0.181681
0.181688
0.181693
0.181698
0.181703
0.181708
0.181712
0.181716
0.18172
0.181723
0.181727
0.18173
0.181732
0.181735
0.181737
0.18174
0.181742
0.181744
0.181746
0.181748
0.18175
0.181752
0.181754
0.181756
0.181758
0.18176
0.181762
0.181764
0.181766
0.181768
0.18177
0.181772
0.181774
0.181776
0.181778
0.18178
0.181782
0.181784
0.181787
0.181789
0.181791
0.181793
0.181795
0.181797
0.1818
0.181802
0.181804
0.181806
0.181808
0.18181
0.181812
0.181814
0.181816
0.181818
0.18182
0.181822
0.181824
0.181825
0.181827
0.181829
0.18183
0.181832
0.181833
0.181835
0.181836
0.181837
0.181839
0.18184
0.181841
0.181842
0.181843
0.181844
0.181845
0.181845
0.181846
0.181847
0.181847
0.181848
0.181848
0.181849
0.181849
0.181849
0.18185
0.18185
0.18185
0.18185
0.18185
0.18185
0.18185
0.18185
0.181849
0.181849
0.181849
0.181848
0.181848
0.181847
0.181846
0.181846
0.181845
0.181844
0.181843
0.181843
0.181842
0.181841
0.18184
0.181838
0.181837
0.181836
0.181835
0.181833
0.181832
0.18183
0.181829
0.181827
0.181825
0.181823
0.181821
0.181819
0.181817
0.181815
0.181813
0.181811
0.181808
0.181806
0.181803
0.181801
0.181798
0.181795
0.181792
0.181788
0.181785
0.181781
0.181777
0.181773
0.181769
0.181764
0.181759
0.181754
0.181748
0.181742
0.181736
0.181729
0.181722
0.181715
0.181707
0.181699
0.181691
0.181683
0.181674
0.181665
0.181656
0.181646
0.181637
0.181627
0.181618
0.181608
0.181598
0.181588
0.181579
0.181569
0.18156
0.181551
0.181542
0.181534
0.181526
0.181518
0.181511
0.181504
0.181498
0.181493
0.181488
0.181483
0.18148
0.181477
0.181475
0.181474
0.181473
0.181473
0.181473
0.181474
0.181476
0.181479
0.181483
0.181487
0.181493
0.181498
0.181505
0.181512
0.181519
0.181526
0.181534
0.181543
0.181551
0.18156
0.181569
0.181577
0.181586
0.181595
0.181604
0.181612
0.181621
0.181629
0.181637
0.181645
0.181652
0.181659
0.181666
0.181673
0.181679
0.181685
0.181691
0.181696
0.181701
0.181706
0.18171
0.181714
0.181718
0.181722
0.181725
0.181729
0.181732
0.181735
0.181737
0.18174
0.181743
0.181745
0.181747
0.181749
0.181752
0.181754
0.181756
0.181758
0.18176
0.181762
0.181764
0.181766
0.181767
0.181769
0.181771
0.181773
0.181775
0.181777
0.181779
0.181781
0.181783
0.181785
0.181787
0.181789
0.181791
0.181793
0.181795
0.181796
0.181799
0.1818
0.181803
0.181804
0.181807
0.181808
0.181811
0.181812
0.181814
0.181815
0.181818
0.181819
0.181821
0.181822
0.181825
0.181825
0.181828
0.181828
)
;

boundaryField
{
    inlet
    {
        type            calculated;
        value           uniform 0.805169;
    }
    outlet
    {
        type            calculated;
        value           uniform 0.18183;
    }
    emptyWalls
    {
        type            empty;
    }
}


// ************************************************************************* //
