/*--------------------------------*- C++ -*----------------------------------*\
  =========                 |
  \\      /  F ield         | OpenFOAM: The Open Source CFD Toolbox
   \\    /   O peration     | Website:  https://openfoam.org
    \\  /    A nd           | Version:  9
     \\/     M anipulation  |
\*---------------------------------------------------------------------------*/
FoamFile
{
    format      ascii;
    class       volScalarField;
    location    "15850";
    object      kra;
}
// * * * * * * * * * * * * * * * * * * * * * * * * * * * * * * * * * * * * * //

dimensions      [0 0 0 0 0 0 0];

internalField   nonuniform List<scalar> 
1000
(
0.000236904
0.000238264
0.000240051
0.000241819
0.000243564
0.000245352
0.000247085
0.000248928
0.000250609
0.000252476
0.00025407
0.000255835
0.000257299
0.000258806
0.000260061
0.000261236
0.000262229
0.000263152
0.000264198
0.000266451
0.000274044
0.000307618
0.000537511
0.000825418
0.000883259
0.000900558
0.000908809
0.000913869
0.000917405
0.000920079
0.000922178
0.000923869
0.000925215
0.000926267
0.000927046
0.000927604
0.000928012
0.000928331
0.000928568
0.000928871
0.000929061
0.000929064
0.000929032
0.00092886
0.000928531
0.00092825
0.000928113
0.000928034
0.000928118
0.000928846
0.00093005
0.000931411
0.000932799
0.000933833
0.000934185
0.000934172
0.000934029
0.000933441
0.000932361
0.000930572
0.000927892
0.000924229
0.000919676
0.000914398
0.000908624
0.000902553
0.000896366
0.000890214
0.000884217
0.000878462
0.000873005
0.000867872
0.000863066
0.00085857
0.000854353
0.000850376
0.000846592
0.000842955
0.000839424
0.000835961
0.000832537
0.000829131
0.000825727
0.000822319
0.000818902
0.000815479
0.000812052
0.000808627
0.000805208
0.000801803
0.000798413
0.000795047
0.000791705
0.000788393
0.00078511
0.000781861
0.000778643
0.000775463
0.000772314
0.000769203
0.000766124
0.000763083
0.000760073
0.000757101
0.00075416
0.000751255
0.000748381
0.000745542
0.000742734
0.000739958
0.000737214
0.000734502
0.00073182
0.000729168
0.000726547
0.000723955
0.000721392
0.000718858
0.000716352
0.000713875
0.000711425
0.000709002
0.000706606
0.000704237
0.000701893
0.000699577
0.000697284
0.000695018
0.000692774
0.000690557
0.000688361
0.000686193
0.000684044
0.000681923
0.00067982
0.000677747
0.00067569
0.000673661
0.000671646
0.000669659
0.000667683
0.000665732
0.000663789
0.00066187
0.000659958
0.000658067
0.000656186
0.000654324
0.000652476
0.000650648
0.000648835
0.000647044
0.00064527
0.000643515
0.000641775
0.000640049
0.000638333
0.000636628
0.000634931
0.000633246
0.000631575
0.000629924
0.0006283
0.000626711
0.000625167
0.000623675
0.000622243
0.000620876
0.000619579
0.000618353
0.000617197
0.000616109
0.000615084
0.000614114
0.00061319
0.000612303
0.000611439
0.000610585
0.000609725
0.000608843
0.000607922
0.000606945
0.000605895
0.000604759
0.000603522
0.000602176
0.000600715
0.000599137
0.000597445
0.000595647
0.000593754
0.000591781
0.000589748
0.000587672
0.000585576
0.000583479
0.000581399
0.000579354
0.000577357
0.000575419
0.000573548
0.000571748
0.000570022
0.000568368
0.000566783
0.000565262
0.000563801
0.000562391
0.000561027
0.000559701
0.000558407
0.000557137
0.000555886
0.000554649
0.000553423
0.000552202
0.000550984
0.000549768
0.000548551
0.000547333
0.000546113
0.000544891
0.000543667
0.000542442
0.000541216
0.00053999
0.000538764
0.00053754
0.000536318
0.000535099
0.000533884
0.000532672
0.000531466
0.000530265
0.00052907
0.00052788
0.000526697
0.000525521
0.000524352
0.000523189
0.000522034
0.000520887
0.000519746
0.000518613
0.000517488
0.000516369
0.000515259
0.000514156
0.00051306
0.000511972
0.000510892
0.000509819
0.000508753
0.000507695
0.000506644
0.0005056
0.000504564
0.000503535
0.000502514
0.000501499
0.000500492
0.000499492
0.000498499
0.000497513
0.000496534
0.000495561
0.000494596
0.000493637
0.000492686
0.00049174
0.000490802
0.00048987
0.000488945
0.000488027
0.000487114
0.000486208
0.000485308
0.000484414
0.000483526
0.000482643
0.000481766
0.000480893
0.000480026
0.000479163
0.000478305
0.000477452
0.000476603
0.000475759
0.000474919
0.000474084
0.000473254
0.000472427
0.000471606
0.000470789
0.000469976
0.000469167
0.000468362
0.000467562
0.000466766
0.000465975
0.000465189
0.000464408
0.000463634
0.000462868
0.000462111
0.000461364
0.000460631
0.00045991
0.000459206
0.000458519
0.000457852
0.000457206
0.000456582
0.00045598
0.000455403
0.000454851
0.000454322
0.000453816
0.000453332
0.000452868
0.000452423
0.000451992
0.000451573
0.000451163
0.000450756
0.000450349
0.000449937
0.000449514
0.000449075
0.000448616
0.000448131
0.000447617
0.000447067
0.00044648
0.00044585
0.000445179
0.000444461
0.000443701
0.000442892
0.000442047
0.000441155
0.000440234
0.000439273
0.000438293
0.000437283
0.000436268
0.000435232
0.000434203
0.000433164
0.000432143
0.000431124
0.000430129
0.000429144
0.000428187
0.000427248
0.000426338
0.000425449
0.000424588
0.000423749
0.000422935
0.000422142
0.00042137
0.000420618
0.000419881
0.000419161
0.000418452
0.000417756
0.000417069
0.00041639
0.000415717
0.000415049
0.000414385
0.000413723
0.000413063
0.000412404
0.000411746
0.000411088
0.000410429
0.00040977
0.000409111
0.000408451
0.00040779
0.000407129
0.000406467
0.000405805
0.000405143
0.000404482
0.000403821
0.00040316
0.0004025
0.000401842
0.000401185
0.000400529
0.000399875
0.000399222
0.000398572
0.000397924
0.000397277
0.000396634
0.000395992
0.000395353
0.000394717
0.000394083
0.000393452
0.000392824
0.000392199
0.000391576
0.000390957
0.00039034
0.000389726
0.000389115
0.000388508
0.000387903
0.000387301
0.000386702
0.000386106
0.000385513
0.000384923
0.000384337
0.000383753
0.000383172
0.000382594
0.000382019
0.000381447
0.000380878
0.000380312
0.000379749
0.000379189
0.000378631
0.000378077
0.000377525
0.000376977
0.000376431
0.000375888
0.000375347
0.000374809
0.000374274
0.000373742
0.000373212
0.000372684
0.000372159
0.000371636
0.000371116
0.000370598
0.000370081
0.000369568
0.000369056
0.000368546
0.000368038
0.000367532
0.000367029
0.000366527
0.000366027
0.000365529
0.000365033
0.000364539
0.000364046
0.000363556
0.000363068
0.000362582
0.000362098
0.000361617
0.000361139
0.000360663
0.000360191
0.000359723
0.000359258
0.000358798
0.000358343
0.000357894
0.000357451
0.000357015
0.000356586
0.000356164
0.000355752
0.000355348
0.000354953
0.000354568
0.000354193
0.000353829
0.000353474
0.00035313
0.000352796
0.000352471
0.000352156
0.000351849
0.000351549
0.000351257
0.000350969
0.000350687
0.000350407
0.000350128
0.00034985
0.000349569
0.000349284
0.000348994
0.000348696
0.000348389
0.00034807
0.000347738
0.000347392
0.000347029
0.000346649
0.00034625
0.000345831
0.000345391
0.000344931
0.000344449
0.000343947
0.000343424
0.000342882
0.000342321
0.000341743
0.000341149
0.000340542
0.000339922
0.000339292
0.000338654
0.000338011
0.000337364
0.000336716
0.000336068
0.000335423
0.000334781
0.000334145
0.000333515
0.000332895
0.00033228
0.000331679
0.000331083
0.000330502
0.000329926
0.000329366
0.00032881
0.000328268
0.000327731
0.000327207
0.000326687
0.000326177
0.000325672
0.000325174
0.000324682
0.000324193
0.000323709
0.000323228
0.00032275
0.000322274
0.0003218
0.000321328
0.000320857
0.000320386
0.000319916
0.000319446
0.000318977
0.000318507
0.000318036
0.000317565
0.000317094
0.000316623
0.000316151
0.000315678
0.000315205
0.000314732
0.000314258
0.000313785
0.000313311
0.000312837
0.000312363
0.000311889
0.000311415
0.000310941
0.000310468
0.000309995
0.000309523
0.000309051
0.00030858
0.00030811
0.000307641
0.000307173
0.000306706
0.000306239
0.000305775
0.000305311
0.00030485
0.000304388
0.000303932
0.000303472
0.000303022
0.000302565
0.000302121
0.000301668
0.000301232
0.000300785
0.000300356
0.000299919
0.000299497
0.000299075
0.000298659
0.000298258
0.000297851
0.000297472
0.000297082
0.000296723
0.000296361
0.000296021
0.000295696
0.000295377
0.000295093
0.000294805
0.000294557
0.000294312
0.000294093
0.000293899
0.00029371
0.000293561
0.00029341
0.000293292
0.000293186
0.000293089
0.000293023
0.000292949
0.000292904
0.000292857
0.000292814
0.000292785
0.00029273
0.000292678
0.000292575
0.000292403
0.000292108
0.000291562
0.000290626
0.000288984
0.000286249
0.000281935
0.000275707
0.000267921
0.000259848
0.000253224
0.000248908
0.000246559
0.000245429
0.000244893
0.000244653
0.000244547
0.000244498
0.000244497
0.0002445
0.000244516
0.000244538
0.000244565
0.000244593
0.000244626
0.000244659
0.000244696
0.000244736
0.000244778
0.000244822
0.00024487
0.000244921
0.000244975
0.000245032
0.000245093
0.000245157
0.000245225
0.000245297
0.000245373
0.000245452
0.000245535
0.000245622
0.000245713
0.000245806
0.000245904
0.000246003
0.000246106
0.000246211
0.000246319
0.000246427
0.000246537
0.000246647
0.000246758
0.000246868
0.000246978
0.000247085
0.000247191
0.000247294
0.000247394
0.000247489
0.000247581
0.000247666
0.000247746
0.000247819
0.000247886
0.000247944
0.000247994
0.000248035
0.000248067
0.000248088
0.000248101
0.000248104
0.000248104
0.000248102
0.000248088
0.000248054
0.000248011
0.00024796
0.000247901
0.000247836
0.000247763
0.000247684
0.0002476
0.000247511
0.000247418
0.000247322
0.000247223
0.000247122
0.000247019
0.000246917
0.000246814
0.000246712
0.000246612
0.000246513
0.000246417
0.000246324
0.000246234
0.000246148
0.000246065
0.000245986
0.000245911
0.000245841
0.000245774
0.000245711
0.000245653
0.000245598
0.000245547
0.000245499
0.000245455
0.000245414
0.000245376
0.000245341
0.000245308
0.000245278
0.000245249
0.000245222
0.000245197
0.000245174
0.000245151
0.00024513
0.000245109
0.000245089
0.00024507
0.000245051
0.000245032
0.000245013
0.000244995
0.000244976
0.000244958
0.00024494
0.000244921
0.000244902
0.000244883
0.000244864
0.000244845
0.000244826
0.000244806
0.000244786
0.000244766
0.000244747
0.000244727
0.000244706
0.000244686
0.000244666
0.000244646
0.000244626
0.000244606
0.000244587
0.000244567
0.000244548
0.000244528
0.000244509
0.000244491
0.000244472
0.000244454
0.000244437
0.000244419
0.000244402
0.000244386
0.000244369
0.000244354
0.000244338
0.000244324
0.000244309
0.000244295
0.000244282
0.000244269
0.000244257
0.000244245
0.000244234
0.000244223
0.000244213
0.000244204
0.000244195
0.000244187
0.000244179
0.000244172
0.000244165
0.000244159
0.000244154
0.000244149
0.000244145
0.000244142
0.000244139
0.000244137
0.000244135
0.000244135
0.000244134
0.000244134
0.000244134
0.000244135
0.000244137
0.000244139
0.000244142
0.000244146
0.000244151
0.000244156
0.000244161
0.000244167
0.000244173
0.00024418
0.000244187
0.000244196
0.000244204
0.000244213
0.000244222
0.000244233
0.000244243
0.000244254
0.000244265
0.000244278
0.00024429
0.000244304
0.000244317
0.000244332
0.000244347
0.000244363
0.000244379
0.000244397
0.000244415
0.000244435
0.000244455
0.000244476
0.000244499
0.000244523
0.000244548
0.000244575
0.000244603
0.000244634
0.000244666
0.0002447
0.000244736
0.000244774
0.000244814
0.000244858
0.000244903
0.000244951
0.000245002
0.000245056
0.000245112
0.000245172
0.000245234
0.000245299
0.000245368
0.000245439
0.000245513
0.00024559
0.00024567
0.000245753
0.000245837
0.000245925
0.000246014
0.000246105
0.000246198
0.000246293
0.000246388
0.000246484
0.00024658
0.000246676
0.000246772
0.000246867
0.00024696
0.000247052
0.000247141
0.000247227
0.000247311
0.00024739
0.000247465
0.000247536
0.000247602
0.000247662
0.000247716
0.000247764
0.000247805
0.00024784
0.000247867
0.000247886
0.000247898
0.000247903
0.000247903
0.000247902
0.000247897
0.000247874
0.000247841
0.000247802
0.000247756
0.000247704
0.000247646
0.000247582
0.000247513
0.00024744
0.000247363
0.000247283
0.0002472
0.000247115
0.000247028
0.00024694
0.000246851
0.000246763
0.000246675
0.000246587
0.000246501
0.000246417
0.000246335
0.000246254
0.000246177
0.000246102
0.00024603
0.000245961
0.000245895
0.000245833
0.000245773
0.000245717
0.000245663
0.000245613
0.000245566
0.000245521
0.000245479
0.00024544
0.000245403
0.000245368
0.000245335
0.000245304
0.000245275
0.000245247
0.000245221
0.000245196
0.000245172
0.000245149
0.000245127
0.000245106
0.000245085
0.000245064
0.000245045
0.000245025
0.000245005
0.000244986
0.000244967
0.000244948
0.000244929
0.00024491
0.000244891
0.000244872
0.000244853
0.000244833
0.000244815
0.000244794
0.000244777
0.000244755
0.000244738
0.000244716
0.0002447
0.000244676
0.000244662
0.000244637
0.000244623
0.000244598
0.000244586
0.00024456
0.000244548
0.000244523
0.000244512
0.000244486
0.000244476
0.00024445
0.000244442
0.000244416
0.000244409
0.000244383
0.000244377
0.000244349
0.000244352
)
;

boundaryField
{
    inlet
    {
        type            calculated;
        value           uniform 0.000236304;
    }
    outlet
    {
        type            calculated;
        value           uniform 0.000244334;
    }
    emptyWalls
    {
        type            empty;
    }
}


// ************************************************************************* //
