/*--------------------------------*- C++ -*----------------------------------*\
  =========                 |
  \\      /  F ield         | OpenFOAM: The Open Source CFD Toolbox
   \\    /   O peration     | Website:  https://openfoam.org
    \\  /    A nd           | Version:  9
     \\/     M anipulation  |
\*---------------------------------------------------------------------------*/
FoamFile
{
    format      ascii;
    class       surfaceScalarField;
    location    "6450";
    object      phib;
}
// * * * * * * * * * * * * * * * * * * * * * * * * * * * * * * * * * * * * * //

dimensions      [0 2 0 0 0 0 0];

internalField   nonuniform List<scalar> 
999
(
1.13625e-09
1.13642e-09
1.1364e-09
1.13661e-09
1.13661e-09
1.13686e-09
1.1375e-09
1.14004e-09
1.15584e-09
1.17519e-09
1.17833e-09
1.17894e-09
1.17902e-09
1.17905e-09
1.1791e-09
1.17923e-09
1.17933e-09
1.17942e-09
1.1795e-09
1.17955e-09
1.17952e-09
1.17939e-09
1.17905e-09
1.17842e-09
1.17747e-09
1.17636e-09
1.17513e-09
1.17384e-09
1.17249e-09
1.1711e-09
1.16969e-09
1.16825e-09
1.16679e-09
1.16531e-09
1.16382e-09
1.16231e-09
1.16079e-09
1.15925e-09
1.15771e-09
1.15615e-09
1.15458e-09
1.15301e-09
1.15142e-09
1.14983e-09
1.14822e-09
1.14661e-09
1.14499e-09
1.14336e-09
1.14172e-09
1.14008e-09
1.13843e-09
1.13676e-09
1.13509e-09
1.13341e-09
1.13172e-09
1.13002e-09
1.12831e-09
1.1266e-09
1.12487e-09
1.12313e-09
1.12139e-09
1.11963e-09
1.11787e-09
1.11609e-09
1.11431e-09
1.11252e-09
1.11073e-09
1.10893e-09
1.10712e-09
1.1053e-09
1.10348e-09
1.10165e-09
1.09982e-09
1.09799e-09
1.09615e-09
1.0943e-09
1.09245e-09
1.0906e-09
1.08874e-09
1.08687e-09
1.085e-09
1.08313e-09
1.08125e-09
1.07937e-09
1.07748e-09
1.07558e-09
1.07369e-09
1.07178e-09
1.06988e-09
1.06796e-09
1.06604e-09
1.06412e-09
1.06219e-09
1.06024e-09
1.05829e-09
1.05634e-09
1.05437e-09
1.0524e-09
1.05043e-09
1.04844e-09
1.04645e-09
1.04446e-09
1.04245e-09
1.04043e-09
1.03839e-09
1.03634e-09
1.03427e-09
1.03218e-09
1.03006e-09
1.02793e-09
1.02577e-09
1.02359e-09
1.02139e-09
1.01918e-09
1.01696e-09
1.01472e-09
1.01249e-09
1.01025e-09
1.00802e-09
1.0058e-09
1.0036e-09
1.00142e-09
9.99267e-10
9.97145e-10
9.95058e-10
9.93007e-10
9.90993e-10
9.89014e-10
9.87067e-10
9.85148e-10
9.8325e-10
9.81367e-10
9.7949e-10
9.77613e-10
9.75726e-10
9.73823e-10
9.71898e-10
9.69946e-10
9.67963e-10
9.65946e-10
9.63895e-10
9.61809e-10
9.59689e-10
9.57538e-10
9.55357e-10
9.5315e-10
9.50919e-10
9.48667e-10
9.46398e-10
9.44114e-10
9.41818e-10
9.39512e-10
9.37198e-10
9.34877e-10
9.3255e-10
9.30219e-10
9.27884e-10
9.25544e-10
9.23201e-10
9.20853e-10
9.18502e-10
9.16145e-10
9.13784e-10
9.11416e-10
9.09042e-10
9.06662e-10
9.04273e-10
9.01877e-10
8.99472e-10
8.97059e-10
8.94635e-10
8.92202e-10
8.89759e-10
8.87305e-10
8.8484e-10
8.82364e-10
8.79876e-10
8.77377e-10
8.74865e-10
8.72341e-10
8.69804e-10
8.67253e-10
8.6469e-10
8.62113e-10
8.59522e-10
8.56916e-10
8.54296e-10
8.51661e-10
8.49011e-10
8.46346e-10
8.43665e-10
8.40967e-10
8.38254e-10
8.35524e-10
8.32778e-10
8.30014e-10
8.27233e-10
8.24434e-10
8.21617e-10
8.18781e-10
8.15927e-10
8.13054e-10
8.10162e-10
8.0725e-10
8.04317e-10
8.01365e-10
7.98391e-10
7.95397e-10
7.9238e-10
7.89342e-10
7.8628e-10
7.83196e-10
7.80087e-10
7.76954e-10
7.73795e-10
7.70612e-10
7.67401e-10
7.64165e-10
7.60901e-10
7.57609e-10
7.54288e-10
7.50937e-10
7.47558e-10
7.44145e-10
7.40704e-10
7.37228e-10
7.33723e-10
7.30184e-10
7.26614e-10
7.23012e-10
7.19377e-10
7.15714e-10
7.1202e-10
7.08304e-10
7.04566e-10
7.00813e-10
6.97054e-10
6.93294e-10
6.89552e-10
6.85838e-10
6.82175e-10
6.78586e-10
6.7509e-10
6.71719e-10
6.68491e-10
6.6543e-10
6.62548e-10
6.59829e-10
6.57236e-10
6.54662e-10
6.51907e-10
6.48606e-10
6.44107e-10
6.37311e-10
6.26425e-10
6.08779e-10
5.81002e-10
5.40224e-10
4.86757e-10
4.2663e-10
3.7015e-10
3.25833e-10
2.95983e-10
2.77992e-10
2.67893e-10
2.62454e-10
2.59591e-10
2.58101e-10
2.5733e-10
2.5693e-10
2.56722e-10
2.56613e-10
2.56555e-10
2.56521e-10
2.565e-10
2.56486e-10
2.56474e-10
2.56464e-10
2.56454e-10
2.56444e-10
2.56433e-10
2.56421e-10
2.56408e-10
2.56394e-10
2.56379e-10
2.56362e-10
2.56345e-10
2.56326e-10
2.56306e-10
2.56284e-10
2.56262e-10
2.56239e-10
2.56214e-10
2.56189e-10
2.56163e-10
2.56136e-10
2.56109e-10
2.56082e-10
2.56056e-10
2.56029e-10
2.56004e-10
2.5598e-10
2.55957e-10
2.55936e-10
2.55917e-10
2.559e-10
2.55887e-10
2.55877e-10
2.5587e-10
2.55867e-10
2.55867e-10
2.55867e-10
2.55869e-10
2.55879e-10
2.55894e-10
2.55913e-10
2.55934e-10
2.55959e-10
2.55986e-10
2.56015e-10
2.56046e-10
2.56079e-10
2.56112e-10
2.56145e-10
2.56179e-10
2.56212e-10
2.56244e-10
2.56275e-10
2.56304e-10
2.56331e-10
2.56356e-10
2.56379e-10
2.56399e-10
2.56417e-10
2.56433e-10
2.56446e-10
2.56456e-10
2.56465e-10
2.56471e-10
2.56475e-10
2.56478e-10
2.56479e-10
2.56478e-10
2.56478e-10
2.56477e-10
2.56474e-10
2.5647e-10
2.56466e-10
2.56461e-10
2.56456e-10
2.56452e-10
2.56447e-10
2.56443e-10
2.56439e-10
2.56435e-10
2.56432e-10
2.56429e-10
2.56426e-10
2.56425e-10
2.56423e-10
2.56423e-10
2.56422e-10
2.56421e-10
2.56422e-10
2.56423e-10
2.56425e-10
2.56427e-10
2.56429e-10
2.56432e-10
2.56435e-10
2.56439e-10
2.56443e-10
2.56447e-10
2.56451e-10
2.56456e-10
2.5646e-10
2.56465e-10
2.5647e-10
2.56476e-10
2.56481e-10
2.56486e-10
2.56492e-10
2.56497e-10
2.56503e-10
2.56508e-10
2.56514e-10
2.56519e-10
2.56525e-10
2.5653e-10
2.56535e-10
2.56541e-10
2.56546e-10
2.56551e-10
2.56556e-10
2.56561e-10
2.56565e-10
2.5657e-10
2.56574e-10
2.56578e-10
2.56582e-10
2.56586e-10
2.5659e-10
2.56594e-10
2.56597e-10
2.56601e-10
2.56604e-10
2.56607e-10
2.5661e-10
2.56613e-10
2.56616e-10
2.56618e-10
2.56621e-10
2.56623e-10
2.56625e-10
2.56628e-10
2.5663e-10
2.56632e-10
2.56634e-10
2.56636e-10
2.56638e-10
2.56639e-10
2.56641e-10
2.56643e-10
2.56644e-10
2.56646e-10
2.56648e-10
2.56649e-10
2.5665e-10
2.56652e-10
2.56653e-10
2.56654e-10
2.56655e-10
2.56656e-10
2.56657e-10
2.56658e-10
2.56658e-10
2.56659e-10
2.56659e-10
2.56659e-10
2.56659e-10
2.56659e-10
2.56659e-10
2.56659e-10
2.56658e-10
2.56657e-10
2.56656e-10
2.56655e-10
2.56653e-10
2.56651e-10
2.56649e-10
2.56647e-10
2.56645e-10
2.56643e-10
2.5664e-10
2.56637e-10
2.56634e-10
2.56631e-10
2.56628e-10
2.56624e-10
2.5662e-10
2.56616e-10
2.56612e-10
2.56608e-10
2.56604e-10
2.56599e-10
2.56595e-10
2.5659e-10
2.56585e-10
2.56581e-10
2.56575e-10
2.5657e-10
2.56565e-10
2.56559e-10
2.56554e-10
2.56548e-10
2.56542e-10
2.56536e-10
2.5653e-10
2.56523e-10
2.56516e-10
2.56509e-10
2.56502e-10
2.56494e-10
2.56485e-10
2.56477e-10
2.56468e-10
2.56458e-10
2.56448e-10
2.56437e-10
2.56425e-10
2.56413e-10
2.564e-10
2.56386e-10
2.56371e-10
2.56356e-10
2.5634e-10
2.56323e-10
2.56305e-10
2.56286e-10
2.56267e-10
2.56247e-10
2.56226e-10
2.56205e-10
2.56183e-10
2.56161e-10
2.56139e-10
2.56116e-10
2.56094e-10
2.56072e-10
2.5605e-10
2.56029e-10
2.56009e-10
2.5599e-10
2.55972e-10
2.55956e-10
2.55941e-10
2.55927e-10
2.55916e-10
2.55906e-10
2.55899e-10
2.55894e-10
2.55892e-10
2.55892e-10
2.55892e-10
2.55893e-10
2.55898e-10
2.55908e-10
2.55921e-10
2.55935e-10
2.55952e-10
2.55971e-10
2.55991e-10
2.56013e-10
2.56036e-10
2.5606e-10
2.56085e-10
2.5611e-10
2.56135e-10
2.5616e-10
2.56184e-10
2.56207e-10
2.5623e-10
2.56251e-10
2.56272e-10
2.56291e-10
2.56308e-10
2.56324e-10
2.56338e-10
2.56351e-10
2.56362e-10
2.56372e-10
2.5638e-10
2.56387e-10
2.56393e-10
2.56398e-10
2.56401e-10
2.56404e-10
2.56406e-10
2.56407e-10
2.56408e-10
2.56408e-10
2.56408e-10
2.56408e-10
2.56408e-10
2.56407e-10
2.56406e-10
2.56405e-10
2.56404e-10
2.56404e-10
2.56403e-10
2.56403e-10
2.56403e-10
2.56403e-10
2.56403e-10
2.56404e-10
2.56405e-10
2.56406e-10
2.56408e-10
2.5641e-10
2.56413e-10
2.56415e-10
2.56418e-10
2.56421e-10
2.56425e-10
2.56429e-10
2.56432e-10
2.56436e-10
2.56441e-10
2.56445e-10
2.5645e-10
2.56454e-10
2.56459e-10
2.56464e-10
2.5647e-10
2.56475e-10
2.5648e-10
2.56485e-10
2.56491e-10
2.56496e-10
2.56502e-10
2.56507e-10
2.56513e-10
2.56518e-10
2.56524e-10
2.5653e-10
2.56535e-10
2.56541e-10
2.56546e-10
2.56551e-10
2.56556e-10
2.56561e-10
2.56566e-10
2.56571e-10
2.56576e-10
2.56581e-10
2.56585e-10
2.5659e-10
2.56594e-10
2.56598e-10
2.56602e-10
2.56605e-10
2.56609e-10
2.56612e-10
2.56615e-10
2.56618e-10
2.56621e-10
2.56624e-10
2.56626e-10
2.56628e-10
2.56631e-10
2.56633e-10
2.56634e-10
2.56636e-10
2.56638e-10
2.56639e-10
2.5664e-10
2.56641e-10
2.56642e-10
2.56643e-10
2.56644e-10
2.56645e-10
2.56645e-10
2.56646e-10
2.56646e-10
2.56646e-10
2.56647e-10
2.56647e-10
2.56647e-10
2.56647e-10
2.56647e-10
2.56647e-10
2.56647e-10
2.56646e-10
2.56646e-10
2.56645e-10
2.56645e-10
2.56644e-10
2.56643e-10
2.56642e-10
2.56641e-10
2.5664e-10
2.56639e-10
2.56638e-10
2.56636e-10
2.56634e-10
2.56632e-10
2.5663e-10
2.56628e-10
2.56625e-10
2.56623e-10
2.5662e-10
2.56617e-10
2.56614e-10
2.5661e-10
2.56606e-10
2.56602e-10
2.56598e-10
2.56593e-10
2.56589e-10
2.56584e-10
2.56578e-10
2.56573e-10
2.56567e-10
2.56561e-10
2.56555e-10
2.56548e-10
2.56541e-10
2.56534e-10
2.56526e-10
2.56518e-10
2.5651e-10
2.56501e-10
2.56492e-10
2.56483e-10
2.56473e-10
2.56463e-10
2.56452e-10
2.56441e-10
2.56429e-10
2.56417e-10
2.56405e-10
2.56391e-10
2.56378e-10
2.56363e-10
2.56349e-10
2.56333e-10
2.56318e-10
2.56301e-10
2.56284e-10
2.56267e-10
2.56249e-10
2.56231e-10
2.56212e-10
2.56194e-10
2.56175e-10
2.56155e-10
2.56136e-10
2.56117e-10
2.56097e-10
2.56078e-10
2.56059e-10
2.56041e-10
2.56023e-10
2.56006e-10
2.5599e-10
2.55975e-10
2.55961e-10
2.55948e-10
2.55936e-10
2.55926e-10
2.55918e-10
2.55911e-10
2.55907e-10
2.55904e-10
2.55903e-10
2.55903e-10
2.55903e-10
2.55905e-10
2.55912e-10
2.55921e-10
2.55932e-10
2.55945e-10
2.55959e-10
2.55976e-10
2.55994e-10
2.56013e-10
2.56033e-10
2.56054e-10
2.56075e-10
2.56098e-10
2.5612e-10
2.56143e-10
2.56165e-10
2.56187e-10
2.56209e-10
2.5623e-10
2.5625e-10
2.56269e-10
2.56287e-10
2.56304e-10
2.5632e-10
2.56335e-10
2.56349e-10
2.56362e-10
2.56373e-10
2.56384e-10
2.56393e-10
2.56401e-10
2.56409e-10
2.56415e-10
2.56421e-10
2.56426e-10
2.56431e-10
2.56434e-10
2.56438e-10
2.5644e-10
2.56443e-10
2.56445e-10
2.56447e-10
2.56449e-10
2.56451e-10
2.56452e-10
2.56454e-10
2.56456e-10
2.56457e-10
2.56459e-10
2.56461e-10
2.56463e-10
2.56465e-10
2.56467e-10
2.56469e-10
2.56471e-10
2.56474e-10
2.56476e-10
2.56479e-10
2.56482e-10
2.56485e-10
2.56489e-10
2.56492e-10
2.56495e-10
2.56499e-10
2.56502e-10
2.56506e-10
2.56509e-10
2.56513e-10
2.56517e-10
2.56521e-10
2.56525e-10
2.56528e-10
2.56532e-10
2.56536e-10
2.5654e-10
2.56544e-10
2.56548e-10
2.56552e-10
2.56556e-10
2.5656e-10
2.56564e-10
2.56568e-10
2.56572e-10
2.56576e-10
2.56579e-10
2.56583e-10
2.56587e-10
2.56591e-10
2.56594e-10
2.56598e-10
2.56602e-10
2.56605e-10
2.56609e-10
2.56612e-10
2.56616e-10
2.56619e-10
2.56622e-10
2.56625e-10
2.56628e-10
2.56631e-10
2.56633e-10
2.56636e-10
2.56639e-10
2.56641e-10
2.56644e-10
2.56646e-10
2.56648e-10
2.5665e-10
2.56651e-10
2.56653e-10
2.56655e-10
2.56656e-10
2.56657e-10
2.56658e-10
2.56659e-10
2.5666e-10
2.56661e-10
2.56661e-10
2.56662e-10
2.56662e-10
2.56662e-10
2.56662e-10
2.56662e-10
2.56662e-10
2.56661e-10
2.56661e-10
2.5666e-10
2.5666e-10
2.56659e-10
2.56658e-10
2.56657e-10
2.56656e-10
2.56655e-10
2.56654e-10
2.56653e-10
2.56651e-10
2.5665e-10
2.56649e-10
2.56647e-10
2.56646e-10
2.56644e-10
2.56642e-10
2.5664e-10
2.56638e-10
2.56636e-10
2.56634e-10
2.56632e-10
2.5663e-10
2.56627e-10
2.56624e-10
2.56621e-10
2.56618e-10
2.56615e-10
2.56612e-10
2.56608e-10
2.56604e-10
2.566e-10
2.56595e-10
2.5659e-10
2.56585e-10
2.5658e-10
2.56574e-10
2.56568e-10
2.56561e-10
2.56554e-10
2.56547e-10
2.56539e-10
2.56531e-10
2.56523e-10
2.56513e-10
2.56504e-10
2.56493e-10
2.56483e-10
2.56472e-10
2.5646e-10
2.56448e-10
2.56435e-10
2.56422e-10
2.56408e-10
2.56394e-10
2.56379e-10
2.56364e-10
2.56348e-10
2.56332e-10
2.56315e-10
2.56298e-10
2.56281e-10
2.56264e-10
2.56246e-10
2.56228e-10
2.5621e-10
2.56192e-10
2.56174e-10
2.56156e-10
2.56139e-10
2.56121e-10
2.56104e-10
2.56088e-10
2.56072e-10
2.56057e-10
2.56042e-10
2.56029e-10
2.56017e-10
2.56005e-10
2.55995e-10
2.55986e-10
2.55979e-10
2.55973e-10
2.55969e-10
2.55966e-10
2.55965e-10
2.55965e-10
2.55965e-10
2.55966e-10
2.55972e-10
2.55979e-10
2.55989e-10
2.56e-10
2.56012e-10
2.56026e-10
2.56041e-10
2.56057e-10
2.56075e-10
2.56093e-10
2.56112e-10
2.56132e-10
2.56152e-10
2.56172e-10
2.56192e-10
2.56212e-10
2.56232e-10
2.56252e-10
2.56271e-10
2.56289e-10
2.56307e-10
2.56324e-10
2.5634e-10
2.56355e-10
2.5637e-10
2.56383e-10
2.56395e-10
2.56406e-10
2.56417e-10
2.56426e-10
2.56435e-10
2.56442e-10
2.56449e-10
2.56455e-10
2.5646e-10
2.56465e-10
2.56469e-10
2.56472e-10
2.56475e-10
2.56478e-10
2.5648e-10
2.56482e-10
2.56483e-10
2.56485e-10
2.56486e-10
2.56487e-10
2.56488e-10
2.56489e-10
)
;

boundaryField
{
    inlet
    {
        type            calculated;
        value           uniform -1.13622e-09;
    }
    outlet
    {
        type            calculated;
        value           uniform 2.56489e-10;
    }
    emptyWalls
    {
        type            empty;
        value           nonuniform List<scalar> 0();
    }
}


// ************************************************************************* //
