/*--------------------------------*- C++ -*----------------------------------*\
  =========                 |
  \\      /  F ield         | OpenFOAM: The Open Source CFD Toolbox
   \\    /   O peration     | Website:  https://openfoam.org
    \\  /    A nd           | Version:  9
     \\/     M anipulation  |
\*---------------------------------------------------------------------------*/
FoamFile
{
    format      ascii;
    class       volScalarField;
    location    "4100";
    object      p;
}
// * * * * * * * * * * * * * * * * * * * * * * * * * * * * * * * * * * * * * //

dimensions      [0 0 0 0 0 0 0];

internalField   nonuniform List<scalar> 
1000
(
269985
269570
269167
268780
268427
268164
268044
267955
267871
267788
267707
267625
267543
267462
267380
267297
267213
267128
267041
266953
266863
266772
266680
266586
266490
266394
266296
266196
266095
265993
265890
265785
265679
265571
265463
265353
265242
265129
265016
264901
264785
264667
264549
264429
264308
264186
264063
263939
263813
263687
263559
263430
263300
263169
263037
262904
262770
262634
262498
262361
262222
262082
261942
261800
261657
261513
261369
261223
261076
260928
260779
260629
260478
260327
260174
260020
259865
259710
259553
259395
259237
259077
258916
258755
258592
258428
258264
258098
257931
257764
257595
257425
257255
257083
256910
256736
256562
256386
256209
256031
255853
255673
255493
255311
255129
254945
254761
254575
254389
254202
254014
253824
253634
253443
253251
253058
252864
252670
252474
252277
252079
251880
251681
251480
251278
251076
250872
250667
250462
250255
250048
249839
249630
249419
249207
248995
248781
248567
248351
248134
247917
247698
247478
247258
247036
246813
246589
246364
246138
245911
245683
245454
245224
244993
244761
244528
244294
244059
243824
243587
243348
243107
242862
242612
242356
242093
241824
241551
241275
240998
240721
240443
240165
239888
239610
239332
239054
238776
238498
238220
237942
237665
237387
237109
236831
236553
236275
235997
235719
235441
235163
234886
234608
234330
234052
233774
233496
233218
232940
232662
232385
232107
231829
231551
231273
230995
230717
230439
230162
229884
229606
229328
229050
228772
228494
228216
227939
227661
227383
227105
226827
226549
226271
225994
225716
225438
225160
224882
224604
224326
224049
223771
223493
223215
222937
222660
222382
222104
221826
221548
221271
220993
220715
220437
220160
219882
219604
219326
219049
218771
218493
218216
217938
217661
217383
217105
216828
216550
216273
215995
215718
215440
215163
214886
214608
214331
214054
213777
213499
213222
212945
212668
212391
212114
211837
211560
211283
211006
210729
210452
210175
209898
209621
209344
209067
208790
208513
208236
207959
207681
207404
207127
206850
206572
206295
206017
205740
205462
205185
204907
204629
204351
204074
203796
203518
203240
202963
202685
202407
202129
201852
201574
201296
201018
200740
200463
200185
199907
199629
199352
199074
198796
198519
198241
197963
197685
197408
197130
196852
196575
196297
196019
195741
195464
195186
194908
194631
194353
194075
193797
193520
193242
192964
192687
192409
192131
191853
191576
191298
191020
190742
190465
190187
189909
189631
189354
189076
188798
188520
188243
187965
187687
187409
187132
186854
186576
186298
186021
185743
185465
185187
184909
184632
184354
184076
183798
183521
183243
182965
182687
182410
182132
181854
181576
181298
181021
180743
180465
180187
179909
179632
179354
179076
178798
178520
178242
177965
177687
177409
177131
176853
176575
176298
176020
175742
175464
175186
174908
174630
174353
174075
173797
173519
173241
172963
172685
172407
172130
171852
171574
171296
171018
170740
170462
170184
169907
169629
169351
169073
168795
168517
168239
167962
167684
167406
167128
166850
166572
166295
166017
165739
165461
165183
164906
164628
164350
164072
163794
163517
163239
162961
162683
162406
162128
161850
161572
161295
161017
160739
160461
160184
159906
159628
159351
159073
158795
158518
158240
157962
157685
157407
157130
156852
156575
156297
156020
155742
155465
155188
154910
154633
154356
154078
153801
153524
153247
152970
152693
152416
152139
151861
151584
151307
151030
150754
150477
150200
149923
149646
149369
149092
148814
148537
148260
147983
147706
147429
147151
146874
146597
146319
146042
145764
145487
145209
144932
144654
144376
144099
143821
143543
143266
142988
142710
142432
142154
141877
141599
141321
141043
140765
140488
140210
139932
139654
139376
139099
138821
138543
138265
137988
137710
137432
137154
136877
136599
136321
136043
135766
135488
135210
134932
134655
134377
134099
133821
133544
133266
132988
132710
132433
132155
131877
131599
131321
131044
130766
130488
130210
129932
129655
129377
129099
128821
128543
128266
127988
127710
127432
127154
126876
126599
126321
126043
125765
125487
125209
124931
124654
124376
124098
123820
123542
123264
122986
122709
122431
122153
121875
121597
121319
121042
120764
120486
120208
119930
119652
119374
119097
118819
118541
118263
117985
117707
117430
117152
116874
116596
116318
116041
115763
115485
115207
114929
114652
114374
114096
113818
113540
113262
112985
112707
112429
112151
111873
111596
111318
111040
110762
110484
110207
109929
109651
109373
109095
108817
108540
108262
107984
107706
107428
107150
106873
106595
106317
106039
105761
105484
105206
104928
104650
104372
104094
103817
103539
103261
102983
102706
102428
102150
101872
101595
101317
101039
100761
100483
100201
99896.6
99586.6
99276.9
98967.1
98657.4
98347.6
98037.8
97728.1
97418.3
97108.6
96798.8
96489.1
96179.3
95869.6
95559.8
95250
94940.3
94630.5
94320.8
94011
93701.3
93391.5
93081.7
92772
92462.2
92152.5
91842.7
91533
91223.2
90913.5
90603.7
90293.9
89984.2
89674.4
89364.7
89054.9
88745.2
88435.4
88125.6
87815.9
87506.1
87196.4
86886.6
86576.9
86267.1
85957.4
85647.6
85337.8
85028.1
84718.3
84408.6
84098.8
83789.1
83479.3
83169.5
82859.8
82550
82240.3
81930.5
81620.8
81311
81001.3
80691.5
80381.7
80072
79762.2
79452.5
79142.7
78833
78523.2
78213.4
77903.7
77593.9
77284.2
76974.4
76664.7
76354.9
76045.2
75735.4
75425.6
75115.9
74806.1
74496.4
74186.6
73876.9
73567.1
73257.3
72947.6
72637.8
72328.1
72018.3
71708.6
71398.8
71089.1
70779.3
70469.5
70159.8
69850
69540.3
69230.5
68920.8
68611
68301.2
67991.5
67681.7
67372
67062.2
66752.5
66442.7
66133
65823.2
65513.4
65203.7
64893.9
64584.2
64274.4
63964.7
63654.9
63345.1
63035.4
62725.6
62415.9
62106.1
61796.4
61486.6
61176.9
60867.1
60557.3
60247.6
59937.8
59628.1
59318.3
59008.6
58698.8
58389
58079.3
57769.5
57459.8
57150
56840.3
56530.5
56220.8
55911
55601.2
55291.5
54981.7
54672
54362.2
54052.5
53742.7
53432.9
53123.2
52813.4
52503.7
52193.9
51884.2
51574.4
51264.7
50954.9
50645.1
50335.4
50025.6
49715.9
49406.1
49096.4
48786.6
48476.9
48167.1
47857.3
47547.6
47237.8
46928.1
46618.3
46308.6
45998.8
45689
45379.3
45069.5
44759.8
44450
44140.3
43830.5
43520.8
43211
42901.2
42591.5
42281.7
41972
41662.2
41352.5
41042.7
40732.9
40423.2
40113.4
39803.7
39493.9
39184.2
38874.4
38564.7
38254.9
37945.1
37635.4
37325.6
37015.9
36706.1
36396.4
36086.6
35776.8
35467.1
35157.3
34847.6
34537.8
34228.1
33918.3
33608.6
33298.8
32989
32679.3
32369.5
32059.8
31750
31440.3
31130.5
30820.7
30511
30201.2
29891.5
29581.7
29272
28962.2
28652.5
28342.7
28032.9
27723.2
27413.4
27103.7
26793.9
26484.2
26174.4
25864.6
25554.9
25245.1
24935.4
24625.6
24315.9
24006.1
23696.4
23386.6
23076.8
22767.1
22457.3
22147.6
21837.8
21528.1
21218.3
20908.5
20598.8
20289
19979.3
19669.5
19359.8
19050
18740.3
18430.5
18120.7
17811
17501.2
17191.5
16881.7
16572
16262.2
15952.4
15642.7
15332.9
15023.2
14713.4
14403.7
14093.9
13784.2
13474.4
13164.6
12854.9
12545.1
12235.4
11925.6
11615.9
11306.1
10996.3
10686.6
10376.8
10067.1
9757.32
9447.57
9137.81
8828.05
8518.3
8208.54
7898.78
7589.03
7279.27
6969.52
6659.76
6350
6040.25
5730.49
5420.73
5110.98
4801.22
4491.47
4181.71
3871.95
3562.2
3252.44
2942.68
2632.93
2323.17
2013.42
1703.66
1393.9
1084.15
774.391
464.634
154.878
)
;

boundaryField
{
    inlet
    {
        type            darcyGradPressure;
        gradient        uniform 116344;
        Mf              Mf;
        phi             phi;
        value           uniform 270198;
    }
    outlet
    {
        type            fixedValue;
        value           uniform 0;
    }
    emptyWalls
    {
        type            empty;
    }
}


// ************************************************************************* //
