/*--------------------------------*- C++ -*----------------------------------*\
  =========                 |
  \\      /  F ield         | OpenFOAM: The Open Source CFD Toolbox
   \\    /   O peration     | Website:  https://openfoam.org
    \\  /    A nd           | Version:  9
     \\/     M anipulation  |
\*---------------------------------------------------------------------------*/
FoamFile
{
    format      ascii;
    class       volScalarField;
    location    "13250";
    object      Fb;
}
// * * * * * * * * * * * * * * * * * * * * * * * * * * * * * * * * * * * * * //

dimensions      [0 0 0 0 0 0 0];

internalField   nonuniform List<scalar> 
1000
(
0.805361
0.805045
0.805312
0.805142
0.805287
0.805255
0.805326
0.805345
0.805407
0.805442
0.805505
0.805542
0.805588
0.805617
0.805637
0.805735
0.805839
0.807034
0.817178
0.831346
0.833648
0.8345
0.834973
0.835308
0.835566
0.83577
0.835951
0.836094
0.836225
0.836331
0.836422
0.8365
0.836564
0.836622
0.836646
0.836693
0.836702
0.836728
0.836719
0.836718
0.836706
0.836677
0.836641
0.836588
0.836526
0.836443
0.836343
0.83621
0.836043
0.835821
0.835538
0.835183
0.834778
0.834343
0.833885
0.833415
0.832932
0.832441
0.83194
0.831431
0.830912
0.830387
0.829852
0.829313
0.828767
0.82822
0.827671
0.827124
0.826575
0.826021
0.825452
0.82486
0.824239
0.823584
0.822898
0.822184
0.821449
0.8207
0.819943
0.819184
0.818428
0.817681
0.816948
0.816236
0.815553
0.814907
0.814304
0.813749
0.813243
0.812787
0.812375
0.811999
0.811651
0.811319
0.810993
0.810661
0.810314
0.809946
0.80955
0.809124
0.808666
0.808179
0.807663
0.807122
0.80656
0.805982
0.805391
0.804791
0.804187
0.803579
0.802972
0.802367
0.801764
0.801165
0.800569
0.799977
0.799388
0.798802
0.798218
0.797636
0.797055
0.796474
0.795894
0.795314
0.794733
0.794151
0.793568
0.792985
0.7924
0.791814
0.791226
0.790638
0.790048
0.789456
0.788864
0.78827
0.787674
0.787078
0.786479
0.78588
0.785279
0.784677
0.784073
0.783468
0.782861
0.782253
0.781644
0.781033
0.780421
0.779807
0.779192
0.778576
0.777957
0.777338
0.776717
0.776094
0.77547
0.774845
0.774218
0.773589
0.772959
0.772327
0.771694
0.77106
0.770424
0.769786
0.769147
0.768507
0.767865
0.767221
0.766576
0.76593
0.765282
0.764632
0.763982
0.76333
0.762677
0.762022
0.761367
0.760711
0.760055
0.759397
0.758738
0.758079
0.757419
0.756757
0.756094
0.75543
0.754764
0.754097
0.753428
0.752759
0.752088
0.751416
0.750742
0.750067
0.74939
0.74871
0.748027
0.747341
0.746649
0.745952
0.745249
0.744538
0.74382
0.743092
0.742356
0.741611
0.740857
0.740094
0.739324
0.738546
0.737761
0.736973
0.736181
0.735387
0.734595
0.733805
0.73302
0.732242
0.731475
0.730718
0.729976
0.729249
0.728539
0.727846
0.727171
0.726514
0.725874
0.725249
0.724639
0.72404
0.72345
0.722867
0.722288
0.721709
0.721129
0.720545
0.719955
0.719357
0.71875
0.718134
0.717506
0.716868
0.716219
0.71556
0.714891
0.714214
0.713528
0.712836
0.712137
0.711434
0.710725
0.710014
0.709299
0.708584
0.707865
0.707147
0.706427
0.705708
0.704988
0.704268
0.703548
0.702828
0.702109
0.701389
0.700669
0.699948
0.699228
0.698507
0.697786
0.697063
0.696341
0.695616
0.694892
0.694166
0.69344
0.692712
0.691982
0.691252
0.690521
0.689788
0.689054
0.688319
0.687582
0.686844
0.686104
0.685363
0.684621
0.683878
0.683133
0.682386
0.681638
0.680888
0.680138
0.679385
0.678631
0.677875
0.677118
0.676359
0.675599
0.674837
0.674073
0.673308
0.67254
0.671772
0.671001
0.670229
0.669455
0.668679
0.667902
0.667122
0.666341
0.665558
0.664773
0.663987
0.663198
0.662408
0.661616
0.660821
0.660025
0.659227
0.658428
0.657626
0.656822
0.656017
0.65521
0.654401
0.65359
0.652777
0.651962
0.651146
0.650328
0.649508
0.648686
0.647862
0.647037
0.64621
0.645381
0.64455
0.643718
0.642883
0.642047
0.641209
0.640369
0.639526
0.638682
0.637836
0.636988
0.636137
0.635284
0.634428
0.63357
0.632709
0.631845
0.630977
0.630107
0.629232
0.628353
0.62747
0.626582
0.62569
0.624793
0.623891
0.622983
0.62207
0.621152
0.620229
0.6193
0.618367
0.617428
0.616485
0.615538
0.614587
0.613633
0.612676
0.611717
0.610757
0.609796
0.608835
0.607875
0.606916
0.605959
0.605006
0.604056
0.60311
0.602168
0.601232
0.600301
0.599376
0.598456
0.597541
0.596632
0.595727
0.594827
0.593931
0.593037
0.592146
0.591255
0.590366
0.589475
0.588583
0.587689
0.586791
0.58589
0.584983
0.584072
0.583154
0.58223
0.5813
0.580363
0.579419
0.578469
0.577511
0.576547
0.575576
0.574599
0.573616
0.572627
0.571632
0.570632
0.569626
0.568616
0.567601
0.566581
0.565557
0.564529
0.563497
0.562461
0.561422
0.560379
0.559332
0.558282
0.557228
0.556171
0.55511
0.554045
0.552976
0.551904
0.550828
0.549748
0.548664
0.547576
0.546484
0.545388
0.544287
0.543181
0.542072
0.540957
0.539838
0.538714
0.537585
0.536452
0.535313
0.534169
0.533019
0.531865
0.530704
0.529539
0.528367
0.527191
0.526008
0.52482
0.523626
0.522425
0.521219
0.520006
0.518787
0.517563
0.516331
0.515094
0.513849
0.512598
0.511341
0.510077
0.508806
0.507529
0.506245
0.504954
0.503656
0.502352
0.501041
0.499724
0.4984
0.49707
0.495734
0.494393
0.493046
0.491694
0.490338
0.488979
0.487617
0.486254
0.48489
0.483528
0.48217
0.480817
0.479473
0.47814
0.476823
0.475523
0.474248
0.473
0.471786
0.470611
0.469478
0.468398
0.467366
0.466403
0.465494
0.464662
0.463891
0.463195
0.462567
0.462006
0.461517
0.46108
0.460709
0.460374
0.460077
0.459792
0.459488
0.459125
0.458602
0.45779
0.456416
0.454042
0.449909
0.442754
0.430691
0.411228
0.382161
0.343598
0.300139
0.25976
0.228702
0.208226
0.196085
0.189337
0.185724
0.183821
0.182832
0.182318
0.18205
0.181908
0.181832
0.181789
0.181762
0.181745
0.18173
0.181718
0.181707
0.181696
0.181685
0.181674
0.181662
0.18165
0.181638
0.181626
0.181613
0.1816
0.181587
0.181575
0.181562
0.181549
0.181537
0.181525
0.181513
0.181502
0.181491
0.181481
0.181472
0.181464
0.181456
0.18145
0.181444
0.18144
0.181437
0.181436
0.181435
0.181435
0.181435
0.181436
0.18144
0.181446
0.181452
0.181459
0.181467
0.181475
0.181485
0.181495
0.181505
0.181516
0.181528
0.18154
0.181551
0.181563
0.181575
0.181587
0.181598
0.181609
0.18162
0.18163
0.18164
0.181649
0.181658
0.181667
0.181674
0.181682
0.181688
0.181694
0.1817
0.181705
0.18171
0.181714
0.181718
0.181721
0.181724
0.181727
0.18173
0.181732
0.181734
0.181736
0.181738
0.18174
0.181741
0.181743
0.181744
0.181746
0.181748
0.181749
0.181751
0.181752
0.181754
0.181756
0.181758
0.18176
0.181761
0.181763
0.181765
0.181768
0.18177
0.181772
0.181774
0.181776
0.181778
0.181781
0.181783
0.181785
0.181788
0.18179
0.181792
0.181794
0.181797
0.181799
0.181801
0.181803
0.181805
0.181808
0.18181
0.181812
0.181814
0.181816
0.181818
0.18182
0.181821
0.181823
0.181825
0.181827
0.181828
0.18183
0.181832
0.181833
0.181834
0.181836
0.181837
0.181839
0.18184
0.181841
0.181842
0.181843
0.181844
0.181845
0.181846
0.181847
0.181847
0.181848
0.181849
0.181849
0.18185
0.18185
0.18185
0.181851
0.181851
0.181851
0.181851
0.181851
0.181851
0.181851
0.18185
0.18185
0.18185
0.181849
0.181849
0.181848
0.181847
0.181847
0.181846
0.181845
0.181844
0.181843
0.181842
0.181841
0.18184
0.181839
0.181838
0.181837
0.181835
0.181834
0.181833
0.181831
0.18183
0.181828
0.181827
0.181825
0.181823
0.181822
0.18182
0.181818
0.181816
0.181814
0.181812
0.18181
0.181807
0.181805
0.181802
0.181799
0.181796
0.181793
0.18179
0.181787
0.181783
0.181779
0.181775
0.18177
0.181765
0.18176
0.181755
0.181749
0.181743
0.181737
0.18173
0.181723
0.181716
0.181708
0.1817
0.181692
0.181683
0.181674
0.181665
0.181656
0.181646
0.181636
0.181626
0.181616
0.181606
0.181595
0.181585
0.181575
0.181564
0.181554
0.181544
0.181534
0.181525
0.181516
0.181507
0.181498
0.18149
0.181483
0.181476
0.18147
0.181465
0.181461
0.181457
0.181454
0.181452
0.181451
0.181451
0.181451
0.181451
0.181453
0.181456
0.181461
0.181466
0.181472
0.181478
0.181486
0.181494
0.181502
0.181511
0.181521
0.18153
0.18154
0.18155
0.181561
0.181571
0.181581
0.181591
0.181601
0.181611
0.181621
0.18163
0.181639
0.181647
0.181656
0.181663
0.181671
0.181678
0.181684
0.18169
0.181696
0.181702
0.181707
0.181711
0.181716
0.18172
0.181723
0.181727
0.18173
0.181733
0.181736
0.181739
0.181741
0.181744
0.181746
0.181748
0.181751
0.181753
0.181755
0.181757
0.181759
0.181761
0.181763
0.181765
0.181767
0.181769
0.181772
0.181774
0.181776
0.181778
0.18178
0.181782
0.181785
0.181787
0.181789
0.181791
0.181794
0.181796
0.181798
0.1818
0.181803
0.181805
0.181807
0.181809
0.181811
0.181813
0.181815
0.181817
0.181819
0.181821
0.181823
0.181825
0.181826
0.181828
0.18183
0.181831
0.181833
0.181834
0.181836
0.181837
0.181839
0.18184
0.181841
0.181842
0.181843
0.181844
0.181845
0.181846
0.181847
0.181848
0.181849
0.181849
0.18185
0.18185
0.181851
0.181851
0.181852
0.181852
0.181852
0.181853
0.181853
0.181853
0.181853
0.181853
0.181853
0.181853
0.181852
0.181852
0.181852
0.181852
0.181851
0.181851
0.18185
0.18185
0.181849
0.181848
0.181848
0.181847
0.181846
0.181845
0.181844
0.181843
0.181842
0.181841
0.18184
0.181839
0.181838
0.181836
0.181835
0.181834
0.181832
0.181831
0.181829
0.181827
0.181825
0.181823
0.181821
0.181819
0.181817
0.181815
0.181812
0.18181
0.181807
0.181804
0.181801
0.181798
0.181794
0.18179
0.181787
0.181782
0.181778
0.181773
0.181769
0.181763
0.181758
0.181752
0.181746
0.18174
0.181734
0.181727
0.18172
0.181713
0.181705
0.181697
0.181689
0.181681
0.181672
0.181663
0.181654
0.181645
0.181636
0.181627
0.181617
0.181608
0.181598
0.181588
0.181579
0.18157
0.18156
0.181551
0.181543
0.181534
0.181526
0.181518
0.181511
0.181504
0.181498
0.181492
0.181486
0.181482
0.181478
0.181474
0.181472
0.18147
0.181469
0.181468
0.181468
0.181469
0.181469
0.181471
)
;

boundaryField
{
    inlet
    {
        type            calculated;
        value           uniform 0.805169;
    }
    outlet
    {
        type            calculated;
        value           uniform 0.181473;
    }
    emptyWalls
    {
        type            empty;
    }
}


// ************************************************************************* //
