/*--------------------------------*- C++ -*----------------------------------*\
  =========                 |
  \\      /  F ield         | OpenFOAM: The Open Source CFD Toolbox
   \\    /   O peration     | Website:  https://openfoam.org
    \\  /    A nd           | Version:  9
     \\/     M anipulation  |
\*---------------------------------------------------------------------------*/
FoamFile
{
    format      ascii;
    class       volScalarField;
    location    "13250";
    object      krc;
}
// * * * * * * * * * * * * * * * * * * * * * * * * * * * * * * * * * * * * * //

dimensions      [0 0 0 0 0 0 0];

internalField   nonuniform List<scalar> 
1000
(
2.82613e-07
2.81713e-06
9.84991e-06
2.06844e-05
3.52369e-05
5.34491e-05
7.51362e-05
9.99022e-05
0.000127072
0.00015568
0.000184571
0.000212558
0.000238705
0.000262834
0.000287609
0.000329283
0.000469245
0.00118852
0.0100531
0.035525
0.0433241
0.0461391
0.0476791
0.0487453
0.0495842
0.0502898
0.0509082
0.0514626
0.0519673
0.0524313
0.0528611
0.0532632
0.0536417
0.0540024
0.0543482
0.0546838
0.0550113
0.0553346
0.0556553
0.05598
0.0563177
0.0566611
0.0570112
0.0573711
0.0577454
0.0581415
0.0585704
0.0590484
0.0595964
0.0602381
0.060992
0.0618607
0.0628267
0.0638623
0.0649443
0.0660573
0.0671908
0.068338
0.069494
0.0706556
0.0718204
0.0729864
0.0741526
0.075318
0.0764817
0.0776432
0.0788023
0.0799583
0.0811112
0.0822607
0.0834066
0.0845487
0.085687
0.0868215
0.0879519
0.0890782
0.0902005
0.0913186
0.0924327
0.0935427
0.0946485
0.0957503
0.096848
0.0979417
0.0990314
0.100117
0.101199
0.102277
0.103351
0.104421
0.105488
0.106551
0.107609
0.108665
0.109716
0.110764
0.111807
0.112847
0.113884
0.114916
0.115945
0.11697
0.117992
0.119009
0.120024
0.121034
0.122041
0.123045
0.124045
0.125042
0.126036
0.127026
0.128013
0.128996
0.129977
0.130954
0.131928
0.132899
0.133867
0.134831
0.135793
0.136752
0.137707
0.13866
0.13961
0.140557
0.141501
0.142442
0.14338
0.144315
0.145248
0.146178
0.147105
0.148029
0.148951
0.14987
0.150786
0.1517
0.152611
0.153519
0.154426
0.155329
0.15623
0.157129
0.158025
0.158919
0.15981
0.160699
0.161585
0.16247
0.163351
0.164231
0.165108
0.165984
0.166856
0.167727
0.168596
0.169462
0.170326
0.171188
0.172048
0.172906
0.173762
0.174615
0.175467
0.176317
0.177165
0.17801
0.178854
0.179696
0.180536
0.181374
0.18221
0.183044
0.183877
0.184707
0.185536
0.186363
0.187188
0.188012
0.188833
0.189653
0.190472
0.191288
0.192103
0.192917
0.193728
0.194538
0.195347
0.196153
0.196959
0.197762
0.198564
0.199365
0.200164
0.200961
0.201757
0.202552
0.203345
0.204137
0.204927
0.205715
0.206502
0.207288
0.208072
0.208855
0.209637
0.210417
0.211195
0.211972
0.212748
0.213522
0.214295
0.215067
0.215838
0.216607
0.217375
0.218141
0.218907
0.219672
0.220435
0.221197
0.221959
0.222719
0.223479
0.224238
0.224995
0.225752
0.226508
0.227264
0.228018
0.228771
0.229524
0.230276
0.231027
0.231777
0.232526
0.233274
0.234021
0.234767
0.235512
0.236256
0.236999
0.237741
0.238482
0.239222
0.239961
0.240699
0.241436
0.242173
0.242908
0.243643
0.244376
0.245109
0.245841
0.246573
0.247303
0.248033
0.248762
0.249491
0.250218
0.250945
0.251672
0.252397
0.253122
0.253847
0.25457
0.255294
0.256016
0.256738
0.257459
0.25818
0.2589
0.25962
0.260339
0.261057
0.261775
0.262493
0.26321
0.263926
0.264642
0.265357
0.266072
0.266787
0.267501
0.268214
0.268927
0.26964
0.270352
0.271064
0.271775
0.272486
0.273197
0.273907
0.274617
0.275326
0.276035
0.276744
0.277452
0.27816
0.278868
0.279576
0.280283
0.28099
0.281696
0.282403
0.283109
0.283815
0.28452
0.285226
0.285931
0.286636
0.287341
0.288046
0.28875
0.289454
0.290158
0.290862
0.291566
0.29227
0.292973
0.293677
0.29438
0.295084
0.295787
0.29649
0.297193
0.297896
0.298599
0.299302
0.300005
0.300708
0.301411
0.302114
0.302817
0.303521
0.304224
0.304927
0.30563
0.306334
0.307037
0.307741
0.308445
0.309149
0.309853
0.310557
0.311261
0.311966
0.312671
0.313375
0.314081
0.314786
0.315492
0.316197
0.316903
0.31761
0.318316
0.319023
0.31973
0.320437
0.321145
0.321853
0.322561
0.32327
0.323978
0.324687
0.325397
0.326106
0.326816
0.327527
0.328238
0.328949
0.32966
0.330372
0.331085
0.331798
0.332511
0.333226
0.33394
0.334656
0.335372
0.336089
0.336806
0.337525
0.338244
0.338964
0.339686
0.340408
0.341131
0.341855
0.34258
0.343306
0.344034
0.344762
0.345492
0.346222
0.346954
0.347687
0.348421
0.349156
0.349892
0.35063
0.351368
0.352108
0.352848
0.35359
0.354332
0.355076
0.355821
0.356567
0.357313
0.358061
0.358811
0.359561
0.360312
0.361065
0.361819
0.362574
0.36333
0.364088
0.364847
0.365608
0.36637
0.367133
0.367898
0.368665
0.369433
0.370202
0.370974
0.371747
0.372522
0.373298
0.374077
0.374857
0.375639
0.376423
0.377209
0.377997
0.378787
0.379579
0.380373
0.381169
0.381967
0.382768
0.383571
0.384376
0.385183
0.385993
0.386805
0.387619
0.388436
0.389255
0.390077
0.390902
0.391729
0.392559
0.393392
0.394227
0.395066
0.395907
0.396751
0.397598
0.398448
0.399301
0.400157
0.401016
0.401879
0.402745
0.403614
0.404486
0.405362
0.406242
0.407125
0.408011
0.408901
0.409794
0.410691
0.411591
0.412495
0.413403
0.414314
0.415229
0.416147
0.417068
0.417993
0.41892
0.419851
0.420784
0.421719
0.422656
0.423595
0.424534
0.425473
0.426411
0.427347
0.42828
0.429207
0.430128
0.43104
0.431942
0.432829
0.4337
0.434551
0.435378
0.436178
0.436947
0.437683
0.43838
0.439037
0.439649
0.440216
0.440735
0.441206
0.44163
0.442006
0.442338
0.442627
0.44288
0.443101
0.4433
0.44349
0.44369
0.443935
0.444282
0.444832
0.445757
0.44736
0.450154
0.454976
0.463095
0.476148
0.495619
0.521592
0.551411
0.580092
0.603132
0.618966
0.62865
0.634139
0.637113
0.638682
0.639499
0.639921
0.640137
0.640247
0.640302
0.640329
0.64034
0.640345
0.640345
0.640344
0.640341
0.640337
0.640333
0.640329
0.640324
0.64032
0.640315
0.64031
0.640305
0.6403
0.640294
0.640289
0.640284
0.640279
0.640274
0.640269
0.640265
0.64026
0.640256
0.640252
0.640248
0.640245
0.640242
0.64024
0.640237
0.640236
0.640235
0.640234
0.640234
0.640234
0.640235
0.640235
0.640237
0.64024
0.640242
0.640246
0.640249
0.640253
0.640257
0.640262
0.640267
0.640272
0.640277
0.640282
0.640288
0.640293
0.640298
0.640304
0.640309
0.640314
0.640319
0.640324
0.640329
0.640333
0.640338
0.640342
0.640346
0.640349
0.640353
0.640356
0.640359
0.640362
0.640364
0.640367
0.640369
0.640371
0.640373
0.640375
0.640376
0.640378
0.640379
0.640381
0.640382
0.640383
0.640384
0.640386
0.640387
0.640388
0.640389
0.64039
0.640391
0.640392
0.640393
0.640394
0.640395
0.640396
0.640397
0.640398
0.640399
0.6404
0.640401
0.640402
0.640403
0.640404
0.640405
0.640406
0.640407
0.640408
0.640409
0.64041
0.640411
0.640412
0.640413
0.640414
0.640414
0.640415
0.640416
0.640417
0.640418
0.640418
0.640419
0.64042
0.64042
0.640421
0.640422
0.640422
0.640423
0.640423
0.640424
0.640424
0.640425
0.640425
0.640425
0.640426
0.640426
0.640426
0.640427
0.640427
0.640427
0.640427
0.640428
0.640428
0.640428
0.640428
0.640428
0.640428
0.640428
0.640428
0.640428
0.640428
0.640428
0.640428
0.640428
0.640428
0.640428
0.640428
0.640428
0.640428
0.640428
0.640427
0.640427
0.640427
0.640427
0.640426
0.640426
0.640426
0.640425
0.640425
0.640425
0.640424
0.640424
0.640424
0.640423
0.640423
0.640422
0.640422
0.640421
0.640421
0.64042
0.64042
0.640419
0.640419
0.640418
0.640417
0.640417
0.640416
0.640415
0.640414
0.640414
0.640413
0.640412
0.640411
0.64041
0.640409
0.640408
0.640407
0.640406
0.640405
0.640404
0.640403
0.640401
0.6404
0.640398
0.640397
0.640395
0.640393
0.640391
0.640389
0.640387
0.640384
0.640382
0.640379
0.640376
0.640373
0.64037
0.640367
0.640363
0.64036
0.640356
0.640352
0.640348
0.640343
0.640339
0.640334
0.64033
0.640325
0.640321
0.640316
0.640311
0.640307
0.640302
0.640298
0.640294
0.64029
0.640286
0.640282
0.640279
0.640276
0.640273
0.64027
0.640268
0.640266
0.640265
0.640264
0.640263
0.640263
0.640263
0.640263
0.640263
0.640264
0.640265
0.640267
0.640269
0.640272
0.640274
0.640277
0.640281
0.640284
0.640288
0.640292
0.640296
0.6403
0.640304
0.640308
0.640313
0.640317
0.640321
0.640325
0.640329
0.640333
0.640337
0.64034
0.640344
0.640347
0.64035
0.640353
0.640356
0.640359
0.640362
0.640364
0.640366
0.640368
0.64037
0.640372
0.640374
0.640375
0.640377
0.640378
0.640379
0.640381
0.640382
0.640383
0.640384
0.640385
0.640386
0.640387
0.640388
0.640389
0.64039
0.640391
0.640391
0.640392
0.640393
0.640394
0.640395
0.640396
0.640397
0.640398
0.640399
0.6404
0.640401
0.640401
0.640402
0.640403
0.640404
0.640405
0.640406
0.640407
0.640408
0.640409
0.64041
0.640411
0.640411
0.640412
0.640413
0.640414
0.640415
0.640415
0.640416
0.640417
0.640418
0.640418
0.640419
0.64042
0.64042
0.640421
0.640422
0.640422
0.640423
0.640423
0.640424
0.640424
0.640425
0.640425
0.640425
0.640426
0.640426
0.640426
0.640427
0.640427
0.640427
0.640427
0.640428
0.640428
0.640428
0.640428
0.640428
0.640428
0.640428
0.640428
0.640428
0.640428
0.640428
0.640428
0.640428
0.640428
0.640428
0.640428
0.640428
0.640428
0.640428
0.640427
0.640427
0.640427
0.640427
0.640426
0.640426
0.640426
0.640425
0.640425
0.640425
0.640424
0.640424
0.640423
0.640423
0.640422
0.640422
0.640421
0.640421
0.64042
0.64042
0.640419
0.640418
0.640418
0.640417
0.640416
0.640415
0.640414
0.640413
0.640412
0.640411
0.64041
0.640409
0.640408
0.640407
0.640405
0.640404
0.640402
0.640401
0.640399
0.640397
0.640395
0.640393
0.640391
0.640389
0.640386
0.640384
0.640381
0.640379
0.640376
0.640373
0.640369
0.640366
0.640363
0.640359
0.640356
0.640352
0.640348
0.640345
0.640341
0.640337
0.640333
0.640329
0.640325
0.640321
0.640317
0.640314
0.64031
0.640306
0.640303
0.640299
0.640296
0.640293
0.64029
0.640287
0.640284
0.640282
0.64028
0.640278
0.640276
0.640275
0.640274
0.640273
0.640273
0.640273
0.640273
0.640273
0.640273
0.640274
)
;

boundaryField
{
    inlet
    {
        type            calculated;
        value           uniform 3.08149e-33;
    }
    outlet
    {
        type            calculated;
        value           uniform 0.640274;
    }
    emptyWalls
    {
        type            empty;
    }
}


// ************************************************************************* //
