/*--------------------------------*- C++ -*----------------------------------*\
  =========                 |
  \\      /  F ield         | OpenFOAM: The Open Source CFD Toolbox
   \\    /   O peration     | Website:  https://openfoam.org
    \\  /    A nd           | Version:  9
     \\/     M anipulation  |
\*---------------------------------------------------------------------------*/
FoamFile
{
    format      ascii;
    class       surfaceScalarField;
    location    "12950";
    object      phia;
}
// * * * * * * * * * * * * * * * * * * * * * * * * * * * * * * * * * * * * * //

dimensions      [0 2 0 0 0 0 0];

internalField   nonuniform List<scalar> 
999
(
2.74884e-10
2.74842e-10
2.74823e-10
2.74722e-10
2.74698e-10
2.74566e-10
2.74507e-10
2.74388e-10
2.7425e-10
2.74152e-10
2.73971e-10
2.73882e-10
2.73734e-10
2.73637e-10
2.73426e-10
2.72755e-10
2.70301e-10
2.56138e-10
2.20523e-10
2.13893e-10
2.11883e-10
2.10861e-10
2.1021e-10
2.09756e-10
2.09413e-10
2.09121e-10
2.08868e-10
2.08699e-10
2.08687e-10
2.08876e-10
2.09242e-10
2.09686e-10
2.10075e-10
2.10312e-10
2.10376e-10
2.10335e-10
2.1028e-10
2.10203e-10
2.09985e-10
2.09487e-10
2.089e-10
2.08245e-10
2.07576e-10
2.06936e-10
2.06356e-10
2.05856e-10
2.05448e-10
2.05138e-10
2.04925e-10
2.04804e-10
2.04758e-10
2.04758e-10
2.04788e-10
2.04834e-10
2.04885e-10
2.04932e-10
2.04969e-10
2.04992e-10
2.04999e-10
2.04991e-10
2.04969e-10
2.04935e-10
2.04891e-10
2.0484e-10
2.04783e-10
2.04723e-10
2.04662e-10
2.04599e-10
2.04535e-10
2.04472e-10
2.0441e-10
2.04348e-10
2.04287e-10
2.04227e-10
2.04167e-10
2.04108e-10
2.04051e-10
2.03993e-10
2.03937e-10
2.03881e-10
2.03826e-10
2.03772e-10
2.03719e-10
2.03666e-10
2.03615e-10
2.03564e-10
2.03515e-10
2.03466e-10
2.03418e-10
2.03371e-10
2.03326e-10
2.03281e-10
2.03237e-10
2.03194e-10
2.03153e-10
2.03112e-10
2.03073e-10
2.03035e-10
2.02998e-10
2.02962e-10
2.02927e-10
2.02894e-10
2.02862e-10
2.02831e-10
2.02801e-10
2.02773e-10
2.02745e-10
2.02719e-10
2.02693e-10
2.02669e-10
2.02646e-10
2.02625e-10
2.02604e-10
2.02585e-10
2.02567e-10
2.0255e-10
2.02534e-10
2.02518e-10
2.02503e-10
2.02488e-10
2.02473e-10
2.02457e-10
2.02441e-10
2.02424e-10
2.02407e-10
2.0239e-10
2.02374e-10
2.02359e-10
2.02346e-10
2.02334e-10
2.02325e-10
2.02317e-10
2.02311e-10
2.02305e-10
2.02299e-10
2.02293e-10
2.02288e-10
2.02286e-10
2.02289e-10
2.02298e-10
2.02317e-10
2.02349e-10
2.02395e-10
2.02458e-10
2.0254e-10
2.0264e-10
2.0276e-10
2.02898e-10
2.03052e-10
2.03222e-10
2.03403e-10
2.03593e-10
2.03787e-10
2.03981e-10
2.04169e-10
2.04347e-10
2.04509e-10
2.04648e-10
2.04759e-10
2.04837e-10
2.04878e-10
2.04879e-10
2.04837e-10
2.04753e-10
2.04627e-10
2.04463e-10
2.04265e-10
2.04038e-10
2.0379e-10
2.03526e-10
2.03256e-10
2.02984e-10
2.02719e-10
2.02465e-10
2.02228e-10
2.0201e-10
2.01814e-10
2.01641e-10
2.01491e-10
2.01364e-10
2.01257e-10
2.0117e-10
2.01099e-10
2.01042e-10
2.00997e-10
2.0096e-10
2.00931e-10
2.00905e-10
2.00882e-10
2.0086e-10
2.00838e-10
2.00814e-10
2.00787e-10
2.00758e-10
2.00727e-10
2.00692e-10
2.00654e-10
2.00613e-10
2.00569e-10
2.00523e-10
2.00475e-10
2.00425e-10
2.00374e-10
2.00322e-10
2.00269e-10
2.00215e-10
2.00161e-10
2.00107e-10
2.00053e-10
1.99998e-10
1.99944e-10
1.99889e-10
1.99835e-10
1.99781e-10
1.99727e-10
1.99674e-10
1.99621e-10
1.99568e-10
1.99515e-10
1.99463e-10
1.99411e-10
1.9936e-10
1.99308e-10
1.99257e-10
1.99207e-10
1.99157e-10
1.99108e-10
1.99059e-10
1.9901e-10
1.98962e-10
1.98915e-10
1.98868e-10
1.98822e-10
1.98776e-10
1.98731e-10
1.98687e-10
1.98644e-10
1.98601e-10
1.98559e-10
1.98518e-10
1.98478e-10
1.98438e-10
1.984e-10
1.98362e-10
1.98325e-10
1.98289e-10
1.98253e-10
1.98219e-10
1.98185e-10
1.98153e-10
1.98121e-10
1.9809e-10
1.9806e-10
1.98031e-10
1.98003e-10
1.97976e-10
1.97949e-10
1.97923e-10
1.97898e-10
1.97874e-10
1.9785e-10
1.97827e-10
1.97804e-10
1.97781e-10
1.97759e-10
1.97738e-10
1.97716e-10
1.97695e-10
1.97674e-10
1.97653e-10
1.97633e-10
1.97614e-10
1.97594e-10
1.97575e-10
1.97557e-10
1.97539e-10
1.97522e-10
1.97505e-10
1.97489e-10
1.97474e-10
1.9746e-10
1.97448e-10
1.97437e-10
1.97429e-10
1.97423e-10
1.97421e-10
1.97422e-10
1.97428e-10
1.97439e-10
1.97456e-10
1.9748e-10
1.97511e-10
1.97549e-10
1.97596e-10
1.97651e-10
1.97714e-10
1.97785e-10
1.97865e-10
1.97952e-10
1.98046e-10
1.98147e-10
1.98252e-10
1.98362e-10
1.98474e-10
1.98586e-10
1.98697e-10
1.98806e-10
1.98909e-10
1.99006e-10
1.99093e-10
1.99169e-10
1.99232e-10
1.9928e-10
1.99311e-10
1.99324e-10
1.99319e-10
1.99293e-10
1.99248e-10
1.99183e-10
1.99099e-10
1.98996e-10
1.98877e-10
1.98742e-10
1.98595e-10
1.98436e-10
1.98269e-10
1.98096e-10
1.9792e-10
1.97743e-10
1.97566e-10
1.97394e-10
1.97226e-10
1.97065e-10
1.96912e-10
1.96768e-10
1.96633e-10
1.96508e-10
1.96393e-10
1.96288e-10
1.96192e-10
1.96104e-10
1.96025e-10
1.95953e-10
1.95889e-10
1.95829e-10
1.95775e-10
1.95725e-10
1.95678e-10
1.95634e-10
1.95592e-10
1.95551e-10
1.95511e-10
1.95471e-10
1.9543e-10
1.9539e-10
1.95348e-10
1.95306e-10
1.95263e-10
1.95218e-10
1.95173e-10
1.95126e-10
1.95077e-10
1.95028e-10
1.94978e-10
1.94927e-10
1.94874e-10
1.94821e-10
1.94768e-10
1.94714e-10
1.94659e-10
1.94604e-10
1.94549e-10
1.94493e-10
1.94438e-10
1.94382e-10
1.94327e-10
1.94271e-10
1.94216e-10
1.94161e-10
1.94106e-10
1.94051e-10
1.93997e-10
1.93943e-10
1.93889e-10
1.93836e-10
1.93783e-10
1.93731e-10
1.93678e-10
1.93627e-10
1.93575e-10
1.93525e-10
1.93474e-10
1.93424e-10
1.93375e-10
1.93326e-10
1.93277e-10
1.93229e-10
1.93182e-10
1.93135e-10
1.93089e-10
1.93043e-10
1.92997e-10
1.92953e-10
1.92909e-10
1.92865e-10
1.92822e-10
1.9278e-10
1.92738e-10
1.92697e-10
1.92656e-10
1.92616e-10
1.92577e-10
1.92538e-10
1.92501e-10
1.92463e-10
1.92427e-10
1.92391e-10
1.92355e-10
1.92321e-10
1.92287e-10
1.92253e-10
1.9222e-10
1.92188e-10
1.92157e-10
1.92126e-10
1.92095e-10
1.92065e-10
1.92035e-10
1.92006e-10
1.91978e-10
1.91949e-10
1.91921e-10
1.91894e-10
1.91867e-10
1.9184e-10
1.91813e-10
1.91787e-10
1.91761e-10
1.91735e-10
1.9171e-10
1.91684e-10
1.91659e-10
1.91635e-10
1.9161e-10
1.91586e-10
1.91563e-10
1.91539e-10
1.91517e-10
1.91495e-10
1.91473e-10
1.91453e-10
1.91433e-10
1.91414e-10
1.91397e-10
1.91381e-10
1.91367e-10
1.91355e-10
1.91345e-10
1.91337e-10
1.91332e-10
1.9133e-10
1.91331e-10
1.91335e-10
1.91344e-10
1.91355e-10
1.91371e-10
1.91391e-10
1.91415e-10
1.91444e-10
1.91476e-10
1.91513e-10
1.91554e-10
1.91599e-10
1.91647e-10
1.91699e-10
1.91754e-10
1.91811e-10
1.9187e-10
1.9193e-10
1.91991e-10
1.92052e-10
1.92113e-10
1.92172e-10
1.92229e-10
1.92282e-10
1.92332e-10
1.92377e-10
1.92417e-10
1.9245e-10
1.92477e-10
1.92496e-10
1.92508e-10
1.92511e-10
1.92505e-10
1.92491e-10
1.92467e-10
1.92434e-10
1.92393e-10
1.92343e-10
1.92285e-10
1.92219e-10
1.92145e-10
1.92066e-10
1.9198e-10
1.91889e-10
1.91794e-10
1.91695e-10
1.91594e-10
1.91489e-10
1.91382e-10
1.91272e-10
1.91155e-10
1.91028e-10
1.90882e-10
1.90701e-10
1.9046e-10
1.90121e-10
1.8964e-10
1.8899e-10
1.88202e-10
1.87404e-10
1.86757e-10
1.86331e-10
1.86085e-10
1.85945e-10
1.8586e-10
1.85803e-10
1.8576e-10
1.85725e-10
1.85697e-10
1.85672e-10
1.8565e-10
1.85631e-10
1.85613e-10
1.85597e-10
1.85583e-10
1.85569e-10
1.85557e-10
1.85545e-10
1.85533e-10
1.85522e-10
1.85511e-10
1.85499e-10
1.85488e-10
1.85476e-10
1.85465e-10
1.85452e-10
1.8544e-10
1.85427e-10
1.85414e-10
1.854e-10
1.85386e-10
1.85371e-10
1.85356e-10
1.85341e-10
1.85326e-10
1.85311e-10
1.85295e-10
1.85279e-10
1.85263e-10
1.85247e-10
1.85231e-10
1.85215e-10
1.85199e-10
1.85183e-10
1.85168e-10
1.85152e-10
1.85137e-10
1.85122e-10
1.85107e-10
1.85093e-10
1.85079e-10
1.85065e-10
1.85051e-10
1.85038e-10
1.85025e-10
1.85012e-10
1.85e-10
1.84988e-10
1.84977e-10
1.84965e-10
1.84955e-10
1.84944e-10
1.84934e-10
1.84924e-10
1.84915e-10
1.84906e-10
1.84897e-10
1.84889e-10
1.84881e-10
1.84873e-10
1.84866e-10
1.8486e-10
1.84853e-10
1.84847e-10
1.84842e-10
1.84836e-10
1.84831e-10
1.84827e-10
1.84823e-10
1.8482e-10
1.84816e-10
1.84814e-10
1.84811e-10
1.8481e-10
1.84808e-10
1.84807e-10
1.84807e-10
1.84807e-10
1.84807e-10
1.84807e-10
1.84808e-10
1.8481e-10
1.84812e-10
1.84814e-10
1.84817e-10
1.8482e-10
1.84824e-10
1.84828e-10
1.84833e-10
1.84838e-10
1.84843e-10
1.84849e-10
1.84855e-10
1.84861e-10
1.84868e-10
1.84875e-10
1.84882e-10
1.8489e-10
1.84897e-10
1.84906e-10
1.84914e-10
1.84923e-10
1.84932e-10
1.84941e-10
1.84951e-10
1.84961e-10
1.84971e-10
1.84981e-10
1.84992e-10
1.85003e-10
1.85015e-10
1.85027e-10
1.85039e-10
1.85052e-10
1.85065e-10
1.85079e-10
1.85093e-10
1.85108e-10
1.85124e-10
1.85141e-10
1.85159e-10
1.85178e-10
1.85198e-10
1.85219e-10
1.85242e-10
1.85266e-10
1.85292e-10
1.8532e-10
1.85349e-10
1.85381e-10
1.85415e-10
1.85451e-10
1.85489e-10
1.85529e-10
1.85573e-10
1.85618e-10
1.85667e-10
1.85718e-10
1.85771e-10
1.85827e-10
1.85886e-10
1.85947e-10
1.86011e-10
1.86077e-10
1.86145e-10
1.86215e-10
1.86287e-10
1.8636e-10
1.86435e-10
1.8651e-10
1.86587e-10
1.86663e-10
1.86739e-10
1.86815e-10
1.86889e-10
1.86962e-10
1.87033e-10
1.87102e-10
1.87168e-10
1.8723e-10
1.87289e-10
1.87343e-10
1.87393e-10
1.87437e-10
1.87476e-10
1.87509e-10
1.87535e-10
1.87555e-10
1.87568e-10
1.87575e-10
1.87577e-10
1.87577e-10
1.87574e-10
1.87557e-10
1.8753e-10
1.87497e-10
1.87457e-10
1.87412e-10
1.87362e-10
1.87306e-10
1.87247e-10
1.87183e-10
1.87116e-10
1.87047e-10
1.86976e-10
1.86903e-10
1.86829e-10
1.86755e-10
1.8668e-10
1.86607e-10
1.86535e-10
1.86464e-10
1.86395e-10
1.86328e-10
1.86264e-10
1.86202e-10
1.86143e-10
1.86088e-10
1.86035e-10
1.85986e-10
1.85939e-10
1.85896e-10
1.85856e-10
1.85818e-10
1.85784e-10
1.85752e-10
1.85722e-10
1.85695e-10
1.8567e-10
1.85646e-10
1.85625e-10
1.85605e-10
1.85586e-10
1.85569e-10
1.85553e-10
1.85537e-10
1.85522e-10
1.85508e-10
1.85494e-10
1.8548e-10
1.85467e-10
1.85453e-10
1.8544e-10
1.85427e-10
1.85413e-10
1.854e-10
1.85386e-10
1.85372e-10
1.85358e-10
1.85344e-10
1.85329e-10
1.85315e-10
1.853e-10
1.85285e-10
1.8527e-10
1.85255e-10
1.85239e-10
1.85224e-10
1.85209e-10
1.85193e-10
1.85178e-10
1.85163e-10
1.85148e-10
1.85133e-10
1.85118e-10
1.85103e-10
1.85089e-10
1.85074e-10
1.8506e-10
1.85047e-10
1.85033e-10
1.8502e-10
1.85007e-10
1.84995e-10
1.84983e-10
1.84971e-10
1.8496e-10
1.84949e-10
1.84938e-10
1.84928e-10
1.84918e-10
1.84908e-10
1.84899e-10
1.8489e-10
1.84882e-10
1.84874e-10
1.84866e-10
1.84859e-10
1.84852e-10
1.84846e-10
1.8484e-10
1.84835e-10
1.84829e-10
1.84825e-10
1.8482e-10
1.84816e-10
1.84812e-10
1.84809e-10
1.84806e-10
1.84804e-10
1.84802e-10
1.848e-10
1.84799e-10
1.84798e-10
1.84797e-10
1.84797e-10
1.84797e-10
1.84797e-10
1.84798e-10
1.84799e-10
1.84801e-10
1.84803e-10
1.84805e-10
1.84808e-10
1.84811e-10
1.84814e-10
1.84818e-10
1.84822e-10
1.84827e-10
1.84832e-10
1.84837e-10
1.84842e-10
1.84848e-10
1.84854e-10
1.8486e-10
1.84867e-10
1.84874e-10
1.84881e-10
1.84889e-10
1.84897e-10
1.84906e-10
1.84914e-10
1.84923e-10
1.84933e-10
1.84943e-10
1.84953e-10
1.84964e-10
1.84976e-10
1.84988e-10
1.85e-10
1.85013e-10
1.85027e-10
1.85042e-10
1.85057e-10
1.85074e-10
1.85091e-10
1.85109e-10
1.85129e-10
1.85149e-10
1.85171e-10
1.85195e-10
1.85219e-10
1.85246e-10
1.85274e-10
1.85303e-10
1.85334e-10
1.85368e-10
1.85403e-10
1.8544e-10
1.85479e-10
1.8552e-10
1.85563e-10
1.85609e-10
1.85656e-10
1.85706e-10
1.85758e-10
1.85812e-10
1.85867e-10
1.85925e-10
1.85984e-10
1.86045e-10
1.86108e-10
1.86172e-10
1.86237e-10
1.86303e-10
1.8637e-10
1.86438e-10
1.86505e-10
1.86573e-10
1.8664e-10
1.86707e-10
1.86772e-10
1.86837e-10
1.869e-10
1.8696e-10
1.87019e-10
1.87075e-10
1.87128e-10
1.87177e-10
1.87223e-10
1.87265e-10
1.87303e-10
1.87336e-10
1.87365e-10
1.87388e-10
1.87407e-10
1.8742e-10
1.87427e-10
1.8743e-10
1.8743e-10
1.8743e-10
1.87425e-10
1.87404e-10
1.8738e-10
1.87351e-10
1.87317e-10
1.87279e-10
1.87237e-10
1.87191e-10
1.87141e-10
1.87089e-10
1.87034e-10
1.86976e-10
1.86917e-10
1.86857e-10
1.86796e-10
1.86734e-10
1.86672e-10
1.8661e-10
1.86549e-10
1.86489e-10
1.8643e-10
1.86373e-10
1.86317e-10
1.86263e-10
1.86211e-10
1.86161e-10
1.86113e-10
1.86068e-10
1.86025e-10
1.85984e-10
1.85945e-10
1.85909e-10
1.85874e-10
1.85842e-10
1.85811e-10
1.85783e-10
1.85756e-10
1.8573e-10
1.85706e-10
1.85683e-10
1.85662e-10
1.85641e-10
1.85622e-10
1.85603e-10
1.85585e-10
1.85567e-10
1.8555e-10
1.85534e-10
1.85517e-10
1.85501e-10
1.85485e-10
1.85469e-10
1.85453e-10
1.85437e-10
1.85421e-10
1.85405e-10
1.85389e-10
1.85373e-10
1.85357e-10
1.8534e-10
1.85324e-10
1.85307e-10
1.85291e-10
1.85274e-10
1.85258e-10
1.85241e-10
1.85225e-10
1.85208e-10
1.85192e-10
1.85175e-10
1.85159e-10
1.85143e-10
1.85128e-10
1.85112e-10
1.85097e-10
1.85082e-10
1.85068e-10
1.85053e-10
1.85039e-10
1.85025e-10
1.85012e-10
1.84999e-10
1.84987e-10
1.84975e-10
1.84963e-10
1.84952e-10
1.84941e-10
)
;

boundaryField
{
    inlet
    {
        type            calculated;
        value           uniform -2.74882e-10;
    }
    outlet
    {
        type            calculated;
        value           uniform 1.84931e-10;
    }
    emptyWalls
    {
        type            empty;
        value           nonuniform List<scalar> 0();
    }
}


// ************************************************************************* //
