/*--------------------------------*- C++ -*----------------------------------*\
  =========                 |
  \\      /  F ield         | OpenFOAM: The Open Source CFD Toolbox
   \\    /   O peration     | Website:  https://openfoam.org
    \\  /    A nd           | Version:  9
     \\/     M anipulation  |
\*---------------------------------------------------------------------------*/
FoamFile
{
    format      ascii;
    class       surfaceScalarField;
    location    "16700";
    object      phia;
}
// * * * * * * * * * * * * * * * * * * * * * * * * * * * * * * * * * * * * * //

dimensions      [0 2 0 0 0 0 0];

internalField   nonuniform List<scalar> 
999
(
2.74867e-10
2.74875e-10
2.7483e-10
2.74826e-10
2.74749e-10
2.74713e-10
2.74628e-10
2.74539e-10
2.74474e-10
2.7435e-10
2.74291e-10
2.74173e-10
2.74089e-10
2.73986e-10
2.73889e-10
2.73797e-10
2.73715e-10
2.73638e-10
2.73564e-10
2.7344e-10
2.73079e-10
2.71759e-10
2.6561e-10
2.2814e-10
2.16143e-10
2.12996e-10
2.11625e-10
2.10786e-10
2.10168e-10
2.0967e-10
2.09239e-10
2.08863e-10
2.08528e-10
2.08219e-10
2.0794e-10
2.07685e-10
2.07449e-10
2.07233e-10
2.07034e-10
2.06848e-10
2.06679e-10
2.06521e-10
2.06372e-10
2.06234e-10
2.06105e-10
2.05985e-10
2.05875e-10
2.05774e-10
2.05681e-10
2.05591e-10
2.05508e-10
2.05426e-10
2.05349e-10
2.05275e-10
2.05202e-10
2.0513e-10
2.05065e-10
2.05005e-10
2.04953e-10
2.0491e-10
2.0488e-10
2.0486e-10
2.04848e-10
2.04843e-10
2.04844e-10
2.04848e-10
2.04849e-10
2.04848e-10
2.0485e-10
2.04861e-10
2.04888e-10
2.04946e-10
2.0505e-10
2.0521e-10
2.05425e-10
2.05685e-10
2.05973e-10
2.06272e-10
2.06569e-10
2.06856e-10
2.07128e-10
2.0738e-10
2.07605e-10
2.07795e-10
2.07936e-10
2.08018e-10
2.08029e-10
2.07964e-10
2.07822e-10
2.07608e-10
2.07333e-10
2.07009e-10
2.06655e-10
2.06287e-10
2.05922e-10
2.05575e-10
2.05257e-10
2.04977e-10
2.0474e-10
2.04546e-10
2.04396e-10
2.04287e-10
2.04212e-10
2.04167e-10
2.04144e-10
2.04139e-10
2.04144e-10
2.04155e-10
2.04167e-10
2.04177e-10
2.04183e-10
2.04183e-10
2.04175e-10
2.0416e-10
2.04138e-10
2.04109e-10
2.04075e-10
2.04035e-10
2.0399e-10
2.03942e-10
2.03892e-10
2.03839e-10
2.03785e-10
2.0373e-10
2.03674e-10
2.03618e-10
2.03561e-10
2.03505e-10
2.0345e-10
2.03395e-10
2.0334e-10
2.03286e-10
2.03233e-10
2.03181e-10
2.0313e-10
2.03079e-10
2.03029e-10
2.02981e-10
2.02933e-10
2.02886e-10
2.02841e-10
2.02796e-10
2.02752e-10
2.0271e-10
2.02668e-10
2.02627e-10
2.02588e-10
2.0255e-10
2.02512e-10
2.02476e-10
2.02441e-10
2.02407e-10
2.02374e-10
2.02342e-10
2.02311e-10
2.02282e-10
2.02253e-10
2.02226e-10
2.022e-10
2.02175e-10
2.02152e-10
2.0213e-10
2.02109e-10
2.0209e-10
2.02072e-10
2.02055e-10
2.0204e-10
2.02026e-10
2.02013e-10
2.02001e-10
2.01989e-10
2.01977e-10
2.01966e-10
2.01955e-10
2.01944e-10
2.01934e-10
2.01924e-10
2.01915e-10
2.01907e-10
2.019e-10
2.01893e-10
2.01888e-10
2.01884e-10
2.0188e-10
2.01876e-10
2.01872e-10
2.01867e-10
2.01862e-10
2.01857e-10
2.01852e-10
2.01849e-10
2.01848e-10
2.01853e-10
2.01864e-10
2.01884e-10
2.01915e-10
2.01958e-10
2.02014e-10
2.02085e-10
2.02171e-10
2.02273e-10
2.02389e-10
2.0252e-10
2.02663e-10
2.02817e-10
2.02979e-10
2.03147e-10
2.03317e-10
2.03486e-10
2.0365e-10
2.03804e-10
2.03945e-10
2.04069e-10
2.0417e-10
2.04247e-10
2.04296e-10
2.04314e-10
2.043e-10
2.04253e-10
2.04175e-10
2.04067e-10
2.0393e-10
2.0377e-10
2.03589e-10
2.03393e-10
2.03186e-10
2.02974e-10
2.02761e-10
2.02551e-10
2.02348e-10
2.02157e-10
2.01978e-10
2.01814e-10
2.01666e-10
2.01534e-10
2.01418e-10
2.01319e-10
2.01233e-10
2.01161e-10
2.011e-10
2.01049e-10
2.01007e-10
2.00971e-10
2.0094e-10
2.00913e-10
2.00888e-10
2.00864e-10
2.00841e-10
2.00816e-10
2.00791e-10
2.00764e-10
2.00734e-10
2.00703e-10
2.00669e-10
2.00633e-10
2.00594e-10
2.00554e-10
2.00512e-10
2.00467e-10
2.00422e-10
2.00375e-10
2.00326e-10
2.00277e-10
2.00228e-10
2.00177e-10
2.00127e-10
2.00076e-10
2.00025e-10
1.99974e-10
1.99924e-10
1.99873e-10
1.99823e-10
1.99774e-10
1.99725e-10
1.99676e-10
1.99629e-10
1.99581e-10
1.99535e-10
1.99489e-10
1.99444e-10
1.994e-10
1.99356e-10
1.99314e-10
1.99272e-10
1.99231e-10
1.9919e-10
1.99151e-10
1.99113e-10
1.99075e-10
1.99038e-10
1.99002e-10
1.98967e-10
1.98933e-10
1.989e-10
1.98868e-10
1.98836e-10
1.98806e-10
1.98776e-10
1.98747e-10
1.9872e-10
1.98693e-10
1.98667e-10
1.98642e-10
1.98618e-10
1.98595e-10
1.98573e-10
1.98552e-10
1.98531e-10
1.98512e-10
1.98493e-10
1.98475e-10
1.98458e-10
1.98441e-10
1.98425e-10
1.98409e-10
1.98394e-10
1.9838e-10
1.98365e-10
1.98352e-10
1.98339e-10
1.98326e-10
1.98314e-10
1.98302e-10
1.9829e-10
1.98279e-10
1.98269e-10
1.98258e-10
1.98248e-10
1.98238e-10
1.98229e-10
1.9822e-10
1.98211e-10
1.98204e-10
1.98196e-10
1.98191e-10
1.98186e-10
1.98184e-10
1.98183e-10
1.98186e-10
1.98193e-10
1.98203e-10
1.98219e-10
1.98239e-10
1.98266e-10
1.98299e-10
1.98339e-10
1.98386e-10
1.98441e-10
1.98503e-10
1.98573e-10
1.98649e-10
1.98733e-10
1.98823e-10
1.98918e-10
1.99017e-10
1.9912e-10
1.99225e-10
1.99331e-10
1.99435e-10
1.99538e-10
1.99636e-10
1.99728e-10
1.99812e-10
1.99887e-10
1.99951e-10
2.00003e-10
2.0004e-10
2.00062e-10
2.00069e-10
2.00058e-10
2.00031e-10
1.99987e-10
1.99926e-10
1.9985e-10
1.99758e-10
1.99653e-10
1.99536e-10
1.99409e-10
1.99273e-10
1.99131e-10
1.98985e-10
1.98836e-10
1.98687e-10
1.98538e-10
1.98393e-10
1.98252e-10
1.98116e-10
1.97987e-10
1.97865e-10
1.97751e-10
1.97644e-10
1.97545e-10
1.97455e-10
1.97371e-10
1.97295e-10
1.97226e-10
1.97163e-10
1.97105e-10
1.97053e-10
1.97004e-10
1.9696e-10
1.96918e-10
1.96879e-10
1.96841e-10
1.96805e-10
1.9677e-10
1.96735e-10
1.967e-10
1.96666e-10
1.9663e-10
1.96595e-10
1.96558e-10
1.96521e-10
1.96483e-10
1.96443e-10
1.96403e-10
1.96362e-10
1.9632e-10
1.96278e-10
1.96234e-10
1.9619e-10
1.96145e-10
1.961e-10
1.96054e-10
1.96008e-10
1.95962e-10
1.95916e-10
1.95869e-10
1.95823e-10
1.95776e-10
1.9573e-10
1.95684e-10
1.95638e-10
1.95592e-10
1.95547e-10
1.95502e-10
1.95458e-10
1.95414e-10
1.9537e-10
1.95327e-10
1.95284e-10
1.95242e-10
1.95201e-10
1.9516e-10
1.9512e-10
1.9508e-10
1.95041e-10
1.95002e-10
1.94964e-10
1.94927e-10
1.94891e-10
1.94855e-10
1.94819e-10
1.94785e-10
1.94751e-10
1.94717e-10
1.94685e-10
1.94653e-10
1.94621e-10
1.94591e-10
1.94561e-10
1.94531e-10
1.94503e-10
1.94475e-10
1.94447e-10
1.94421e-10
1.94394e-10
1.94369e-10
1.94344e-10
1.9432e-10
1.94296e-10
1.94273e-10
1.9425e-10
1.94228e-10
1.94207e-10
1.94186e-10
1.94165e-10
1.94145e-10
1.94125e-10
1.94105e-10
1.94086e-10
1.94068e-10
1.94049e-10
1.94032e-10
1.94014e-10
1.93997e-10
1.9398e-10
1.93963e-10
1.93947e-10
1.93931e-10
1.93915e-10
1.939e-10
1.93885e-10
1.93871e-10
1.93857e-10
1.93844e-10
1.93831e-10
1.9382e-10
1.93809e-10
1.938e-10
1.93792e-10
1.93786e-10
1.93782e-10
1.93779e-10
1.93779e-10
1.93782e-10
1.93788e-10
1.93797e-10
1.93809e-10
1.93825e-10
1.93844e-10
1.93868e-10
1.93896e-10
1.93928e-10
1.93964e-10
1.94004e-10
1.94049e-10
1.94098e-10
1.9415e-10
1.94206e-10
1.94266e-10
1.94328e-10
1.94392e-10
1.94458e-10
1.94526e-10
1.94594e-10
1.94662e-10
1.94729e-10
1.94794e-10
1.94857e-10
1.94916e-10
1.94971e-10
1.95021e-10
1.95065e-10
1.95103e-10
1.95133e-10
1.95155e-10
1.95169e-10
1.95173e-10
1.95168e-10
1.95153e-10
1.95129e-10
1.95094e-10
1.9505e-10
1.94995e-10
1.94932e-10
1.9486e-10
1.94779e-10
1.94691e-10
1.94597e-10
1.94496e-10
1.94391e-10
1.94281e-10
1.94169e-10
1.94054e-10
1.93939e-10
1.93823e-10
1.93707e-10
1.93593e-10
1.93481e-10
1.93372e-10
1.93265e-10
1.93162e-10
1.93063e-10
1.92969e-10
1.92878e-10
1.92792e-10
1.9271e-10
1.92632e-10
1.92558e-10
1.92489e-10
1.92423e-10
1.9236e-10
1.92301e-10
1.92245e-10
1.92192e-10
1.92141e-10
1.92091e-10
1.92044e-10
1.91998e-10
1.91954e-10
1.9191e-10
1.91867e-10
1.91825e-10
1.91783e-10
1.91741e-10
1.91699e-10
1.91657e-10
1.91615e-10
1.91572e-10
1.9153e-10
1.91487e-10
1.91443e-10
1.91399e-10
1.91354e-10
1.9131e-10
1.91264e-10
1.91218e-10
1.91172e-10
1.91125e-10
1.91078e-10
1.91031e-10
1.90983e-10
1.90936e-10
1.90888e-10
1.9084e-10
1.90791e-10
1.90743e-10
1.90695e-10
1.90646e-10
1.90598e-10
1.9055e-10
1.90502e-10
1.90454e-10
1.90407e-10
1.90359e-10
1.90312e-10
1.90266e-10
1.90219e-10
1.90173e-10
1.90128e-10
1.90083e-10
1.90038e-10
1.89994e-10
1.8995e-10
1.89908e-10
1.89865e-10
1.89824e-10
1.89783e-10
1.89743e-10
1.89704e-10
1.89666e-10
1.89629e-10
1.89593e-10
1.89559e-10
1.89525e-10
1.89494e-10
1.89462e-10
1.89434e-10
1.89407e-10
1.89381e-10
1.89359e-10
1.89336e-10
1.89317e-10
1.89298e-10
1.89283e-10
1.89269e-10
1.89256e-10
1.89248e-10
1.89237e-10
1.89232e-10
1.89226e-10
1.89222e-10
1.8922e-10
1.89218e-10
1.89219e-10
1.89218e-10
1.8922e-10
1.89221e-10
1.89221e-10
1.89221e-10
1.89215e-10
1.89204e-10
1.89178e-10
1.89128e-10
1.89038e-10
1.88875e-10
1.88604e-10
1.88177e-10
1.87575e-10
1.86851e-10
1.86143e-10
1.85605e-10
1.85282e-10
1.85119e-10
1.85048e-10
1.85019e-10
1.85012e-10
1.85015e-10
1.85023e-10
1.85035e-10
1.85049e-10
1.85063e-10
1.85079e-10
1.85097e-10
1.85115e-10
1.85135e-10
1.85157e-10
1.8518e-10
1.85204e-10
1.8523e-10
1.85258e-10
1.85288e-10
1.85319e-10
1.85353e-10
1.85389e-10
1.85427e-10
1.85467e-10
1.85509e-10
1.85554e-10
1.85602e-10
1.85651e-10
1.85703e-10
1.85758e-10
1.85815e-10
1.85874e-10
1.85935e-10
1.85998e-10
1.86063e-10
1.8613e-10
1.86197e-10
1.86267e-10
1.86337e-10
1.86407e-10
1.86478e-10
1.86549e-10
1.8662e-10
1.8669e-10
1.86759e-10
1.86827e-10
1.86892e-10
1.86956e-10
1.87017e-10
1.87075e-10
1.8713e-10
1.87182e-10
1.87229e-10
1.87272e-10
1.87309e-10
1.87342e-10
1.87369e-10
1.87391e-10
1.87406e-10
1.87416e-10
1.8742e-10
1.8742e-10
1.8742e-10
1.87416e-10
1.87396e-10
1.87371e-10
1.87341e-10
1.87306e-10
1.87267e-10
1.87224e-10
1.87177e-10
1.87126e-10
1.87072e-10
1.87015e-10
1.86956e-10
1.86895e-10
1.86833e-10
1.8677e-10
1.86706e-10
1.86642e-10
1.86579e-10
1.86516e-10
1.86454e-10
1.86393e-10
1.86334e-10
1.86277e-10
1.86221e-10
1.86168e-10
1.86117e-10
1.86068e-10
1.86022e-10
1.85978e-10
1.85937e-10
1.85898e-10
1.85861e-10
1.85827e-10
1.85795e-10
1.85765e-10
1.85737e-10
1.85711e-10
1.85687e-10
1.85664e-10
1.85642e-10
1.85622e-10
1.85603e-10
1.85586e-10
1.85569e-10
1.85553e-10
1.85537e-10
1.85522e-10
1.85508e-10
1.85494e-10
1.8548e-10
1.85466e-10
1.85453e-10
1.8544e-10
1.85426e-10
1.85413e-10
1.85399e-10
1.85386e-10
1.85372e-10
1.85358e-10
1.85344e-10
1.8533e-10
1.85316e-10
1.85302e-10
1.85287e-10
1.85273e-10
1.85258e-10
1.85243e-10
1.85229e-10
1.85214e-10
1.85199e-10
1.85184e-10
1.85169e-10
1.85154e-10
1.85139e-10
1.85125e-10
1.8511e-10
1.85096e-10
1.85081e-10
1.85067e-10
1.85053e-10
1.8504e-10
1.85026e-10
1.85013e-10
1.85e-10
1.84987e-10
1.84975e-10
1.84963e-10
1.84951e-10
1.8494e-10
1.84929e-10
1.84918e-10
1.84908e-10
1.84898e-10
1.84889e-10
1.8488e-10
1.84871e-10
1.84863e-10
1.84855e-10
1.84848e-10
1.84841e-10
1.84834e-10
1.84828e-10
1.84823e-10
1.84818e-10
1.84813e-10
1.84809e-10
1.84805e-10
1.84802e-10
1.84799e-10
1.84797e-10
1.84795e-10
1.84793e-10
1.84792e-10
1.84792e-10
1.84791e-10
1.84791e-10
1.84791e-10
1.84792e-10
1.84794e-10
1.84796e-10
1.84798e-10
1.84801e-10
1.84804e-10
1.84807e-10
1.84811e-10
1.84816e-10
1.8482e-10
1.84825e-10
1.84831e-10
1.84836e-10
1.84843e-10
1.84849e-10
1.84856e-10
1.84863e-10
1.84871e-10
1.84879e-10
1.84887e-10
1.84896e-10
1.84905e-10
1.84915e-10
1.84925e-10
1.84936e-10
1.84947e-10
1.84959e-10
1.84971e-10
1.84984e-10
1.84997e-10
1.85012e-10
1.85027e-10
1.85043e-10
1.8506e-10
1.85078e-10
1.85097e-10
1.85117e-10
1.85138e-10
1.8516e-10
1.85184e-10
1.85209e-10
1.85236e-10
1.85264e-10
1.85293e-10
1.85325e-10
1.85358e-10
1.85393e-10
1.85429e-10
1.85468e-10
1.85508e-10
1.8555e-10
1.85594e-10
1.8564e-10
1.85688e-10
1.85738e-10
1.85789e-10
1.85842e-10
1.85897e-10
1.85953e-10
1.8601e-10
1.86069e-10
1.86129e-10
1.8619e-10
1.86251e-10
1.86313e-10
1.86375e-10
1.86437e-10
1.86499e-10
1.86561e-10
1.86622e-10
1.86682e-10
1.86741e-10
1.86798e-10
1.86853e-10
1.86906e-10
1.86956e-10
1.87004e-10
1.87049e-10
1.8709e-10
1.87128e-10
1.87162e-10
1.87192e-10
1.87218e-10
1.8724e-10
1.87257e-10
1.87269e-10
1.87276e-10
1.87279e-10
1.8728e-10
1.87279e-10
1.87275e-10
1.87259e-10
1.87239e-10
1.87214e-10
1.87185e-10
1.87151e-10
1.87115e-10
1.87074e-10
1.87031e-10
1.86984e-10
1.86936e-10
1.86885e-10
1.86832e-10
1.86778e-10
1.86722e-10
1.86666e-10
1.86609e-10
1.86553e-10
1.86496e-10
1.8644e-10
1.86384e-10
1.86329e-10
1.86276e-10
1.86224e-10
1.86173e-10
1.86124e-10
1.86077e-10
1.86031e-10
1.85987e-10
1.85946e-10
1.85906e-10
1.85868e-10
1.85832e-10
1.85798e-10
1.85765e-10
1.85735e-10
1.85706e-10
1.85679e-10
1.85653e-10
1.85629e-10
1.85606e-10
1.85584e-10
1.85563e-10
1.85543e-10
1.85525e-10
1.85507e-10
1.8549e-10
1.85473e-10
1.85457e-10
1.85442e-10
1.85427e-10
1.85412e-10
1.85398e-10
1.85384e-10
1.8537e-10
)
;

boundaryField
{
    inlet
    {
        type            calculated;
        value           uniform -2.74882e-10;
    }
    outlet
    {
        type            calculated;
        value           uniform 1.85356e-10;
    }
    emptyWalls
    {
        type            empty;
        value           nonuniform List<scalar> 0();
    }
}


// ************************************************************************* //
