/*--------------------------------*- C++ -*----------------------------------*\
  =========                 |
  \\      /  F ield         | OpenFOAM: The Open Source CFD Toolbox
   \\    /   O peration     | Website:  https://openfoam.org
    \\  /    A nd           | Version:  9
     \\/     M anipulation  |
\*---------------------------------------------------------------------------*/
FoamFile
{
    format      ascii;
    class       volScalarField;
    location    "22400";
    object      Fa;
}
// * * * * * * * * * * * * * * * * * * * * * * * * * * * * * * * * * * * * * //

dimensions      [0 0 0 0 0 0 0];

internalField   nonuniform List<scalar> 
1000
(
0.194803
0.19479
0.194779
0.194773
0.194756
0.194738
0.19473
0.194682
0.194688
0.194598
0.194638
0.194492
0.194568
0.194388
0.194449
0.194296
0.194297
0.194203
0.19416
0.194099
0.194051
0.193995
0.193953
0.193901
0.193867
0.193823
0.193791
0.193759
0.193653
0.193464
0.192278
0.18314
0.160802
0.154775
0.151857
0.15019
0.149387
0.149095
0.149021
0.148981
0.148904
0.148779
0.148616
0.148433
0.148247
0.148061
0.14788
0.147709
0.147545
0.147389
0.147241
0.147097
0.146971
0.146836
0.146723
0.146601
0.146496
0.146386
0.14629
0.146192
0.146102
0.146016
0.145932
0.145856
0.145778
0.145713
0.145641
0.145576
0.145515
0.145457
0.145401
0.14535
0.145301
0.145255
0.145214
0.145176
0.145143
0.145114
0.145089
0.145066
0.145046
0.145026
0.145007
0.144988
0.14497
0.144954
0.144943
0.144936
0.144937
0.14494
0.144946
0.144956
0.144967
0.144979
0.144989
0.144995
0.144996
0.144994
0.144989
0.144984
0.144979
0.144978
0.144983
0.145002
0.145043
0.145112
0.145213
0.145344
0.145502
0.145677
0.145862
0.146051
0.146238
0.146419
0.146593
0.146754
0.146898
0.147019
0.147111
0.147168
0.147185
0.147159
0.14709
0.146979
0.146833
0.146659
0.146464
0.146257
0.146047
0.145842
0.145649
0.145472
0.145315
0.145181
0.145069
0.14498
0.144911
0.144859
0.144823
0.1448
0.144785
0.144777
0.144772
0.144769
0.144766
0.144761
0.144754
0.144743
0.144729
0.144711
0.14469
0.144666
0.144639
0.14461
0.144579
0.144547
0.144513
0.144479
0.144444
0.144408
0.144373
0.144338
0.144303
0.144268
0.144234
0.1442
0.144167
0.144135
0.144103
0.144072
0.144041
0.144012
0.143983
0.143955
0.143927
0.143901
0.143875
0.14385
0.143826
0.143803
0.14378
0.143759
0.143738
0.143718
0.143699
0.14368
0.143663
0.143646
0.14363
0.143615
0.143601
0.143588
0.143576
0.143565
0.143556
0.143547
0.143538
0.143531
0.143524
0.143517
0.143511
0.143504
0.143498
0.143492
0.143487
0.143481
0.143476
0.143472
0.143468
0.143465
0.143463
0.143461
0.14346
0.143459
0.143458
0.143456
0.143454
0.143451
0.143448
0.143443
0.143439
0.143436
0.143435
0.143437
0.143443
0.143456
0.143475
0.143503
0.143541
0.143589
0.143647
0.143716
0.143795
0.143884
0.143982
0.144088
0.1442
0.144316
0.144434
0.144552
0.144668
0.144779
0.144882
0.144974
0.145054
0.145118
0.145165
0.145193
0.145201
0.145188
0.145155
0.145102
0.145031
0.144943
0.14484
0.144727
0.144604
0.144477
0.144346
0.144216
0.144089
0.143967
0.143851
0.143744
0.143645
0.143556
0.143476
0.143406
0.143345
0.143293
0.143247
0.143209
0.143176
0.143147
0.143122
0.1431
0.14308
0.143061
0.143043
0.143025
0.143006
0.142987
0.142967
0.142946
0.142923
0.1429
0.142875
0.142849
0.142822
0.142794
0.142765
0.142736
0.142706
0.142676
0.142645
0.142615
0.142584
0.142553
0.142522
0.142492
0.142461
0.142431
0.142401
0.142372
0.142343
0.142315
0.142287
0.142259
0.142232
0.142206
0.14218
0.142154
0.142129
0.142105
0.142081
0.142058
0.142036
0.142014
0.141992
0.141972
0.141952
0.141932
0.141913
0.141895
0.141878
0.141861
0.141845
0.14183
0.141815
0.141801
0.141788
0.141775
0.141763
0.141751
0.14174
0.14173
0.14172
0.14171
0.141701
0.141693
0.141684
0.141676
0.141669
0.141662
0.141655
0.141649
0.141643
0.141637
0.141631
0.141626
0.141621
0.141616
0.141612
0.141607
0.141602
0.141598
0.141593
0.141589
0.141586
0.141583
0.141581
0.141581
0.141583
0.141587
0.141594
0.141604
0.141618
0.141637
0.14166
0.141689
0.141723
0.141762
0.141808
0.141859
0.141916
0.141977
0.142044
0.142115
0.14219
0.142268
0.142347
0.142428
0.142508
0.142587
0.142663
0.142735
0.142803
0.142864
0.142917
0.142962
0.142998
0.143023
0.143037
0.143039
0.143031
0.14301
0.142978
0.142936
0.142883
0.142821
0.14275
0.142673
0.14259
0.142503
0.142413
0.142321
0.142228
0.142136
0.142046
0.141959
0.141875
0.141796
0.14172
0.14165
0.141584
0.141523
0.141468
0.141416
0.14137
0.141327
0.141288
0.141252
0.14122
0.141189
0.141161
0.141135
0.141109
0.141085
0.141062
0.141038
0.141015
0.140992
0.140969
0.140946
0.140922
0.140897
0.140873
0.140847
0.140821
0.140795
0.140768
0.140741
0.140713
0.140685
0.140657
0.140629
0.1406
0.140571
0.140542
0.140514
0.140485
0.140456
0.140428
0.1404
0.140372
0.140344
0.140316
0.140289
0.140262
0.140236
0.14021
0.140184
0.140159
0.140134
0.14011
0.140086
0.140062
0.140039
0.140017
0.139995
0.139974
0.139953
0.139932
0.139913
0.139893
0.139875
0.139857
0.139839
0.139822
0.139806
0.13979
0.139774
0.13976
0.139745
0.139732
0.139719
0.139706
0.139694
0.139682
0.139671
0.13966
0.13965
0.13964
0.13963
0.139621
0.139612
0.139604
0.139595
0.139588
0.13958
0.139573
0.139566
0.139559
0.139553
0.139546
0.13954
0.139535
0.139529
0.139524
0.139519
0.139514
0.139511
0.139507
0.139505
0.139504
0.139503
0.139505
0.139507
0.139512
0.139519
0.139527
0.139539
0.139553
0.13957
0.13959
0.139614
0.139641
0.139671
0.139704
0.139741
0.139782
0.139825
0.139872
0.139921
0.139973
0.140027
0.140082
0.140138
0.140195
0.140252
0.140309
0.140364
0.140418
0.140468
0.140516
0.14056
0.1406
0.140634
0.140663
0.140686
0.140703
0.140713
0.140715
0.140711
0.140699
0.14068
0.140653
0.14062
0.140581
0.140535
0.140484
0.140427
0.140367
0.140302
0.140235
0.140165
0.140094
0.140022
0.139949
0.139877
0.139805
0.139735
0.139667
0.1396
0.139537
0.139475
0.139417
0.139361
0.139308
0.139258
0.139211
0.139166
0.139125
0.139085
0.139048
0.139012
0.138979
0.138946
0.138916
0.138886
0.138858
0.13883
0.138803
0.138777
0.138751
0.138725
0.138699
0.138673
0.138648
0.138622
0.138596
0.13857
0.138544
0.138517
0.13849
0.138464
0.138436
0.138409
0.138382
0.138354
0.138327
0.138299
0.138271
0.138244
0.138216
0.138189
0.138161
0.138134
0.138106
0.138079
0.138053
0.138026
0.138
0.137974
0.137948
0.137923
0.137898
0.137873
0.137848
0.137824
0.137801
0.137778
0.137755
0.137732
0.13771
0.137689
0.137668
0.137647
0.137627
0.137607
0.137588
0.137569
0.137551
0.137533
0.137516
0.137499
0.137482
0.137466
0.137451
0.137435
0.137421
0.137407
0.137393
0.137379
0.137366
0.137354
0.137341
0.137329
0.137318
0.137307
0.137296
0.137285
0.137275
0.137265
0.137255
0.137246
0.137237
0.137228
0.137219
0.137211
0.137203
0.137195
0.137187
0.13718
0.137173
0.137166
0.13716
0.137154
0.137149
0.137144
0.13714
0.137137
0.137134
0.137133
0.137132
0.137133
0.137135
0.137138
0.137143
0.13715
0.137158
0.137169
0.137181
0.137195
0.137211
0.13723
0.137251
0.137274
0.137299
0.137326
0.137355
0.137387
0.13742
0.137455
0.137491
0.137529
0.137567
0.137607
0.137647
0.137687
0.137728
0.137767
0.137806
0.137844
0.137881
0.137915
0.137947
0.137977
0.138003
0.138027
0.138046
0.138062
0.138073
0.138081
0.138083
0.138081
0.138074
0.138062
0.138046
0.138024
0.137998
0.137967
0.137932
0.137893
0.13785
0.137804
0.137755
0.137702
0.137648
0.137591
0.137533
0.137473
0.137413
0.137352
0.137292
0.137231
0.137171
0.137112
0.137053
0.136996
0.136941
0.136887
0.136835
0.136784
0.136735
0.136688
0.136643
0.136599
0.136558
0.136517
0.136479
0.136442
0.136406
0.136371
0.136338
0.136306
0.136274
0.136244
0.136214
0.136184
0.136156
0.136127
0.136099
0.136071
0.136044
0.136017
0.135989
0.135962
0.135935
0.135908
0.13588
0.135853
0.135826
0.135798
0.135771
0.135743
0.135715
0.135688
0.13566
0.135632
0.135604
0.135576
0.135549
0.135521
0.135493
0.135466
0.135438
0.135411
0.135384
0.135356
0.135329
0.135303
0.135276
0.13525
0.135224
0.135198
0.135172
0.135147
0.135122
0.135097
0.135072
0.135048
0.135024
0.135001
0.134977
0.134954
0.134932
0.13491
0.134888
0.134866
0.134845
0.134824
0.134803
0.134783
0.134764
0.134744
0.134725
0.134706
0.134688
0.134669
0.134652
0.134634
0.134618
0.1346
0.134584
0.134568
0.134552
0.134538
0.134522
0.134508
0.134493
0.134479
0.134466
0.134452
0.13444
0.134428
0.134415
0.134404
0.134393
0.134382
0.134372
0.134362
0.134353
0.134345
0.134337
0.13433
0.134324
0.134319
0.134315
0.134312
0.134309
0.134309
0.134309
0.13431
0.134315
0.134318
0.134324
0.134333
0.134341
0.134352
0.134366
0.134379
0.134396
0.134415
0.134434
0.134458
0.134476
0.134507
0.13453
0.13456
0.134594
0.134619
0.134662
0.134688
0.134732
0.134766
0.134805
0.13485
0.134883
0.134934
0.134961
0.134998
0.135035
0.135054
0.135054
0.13502
0.134929
0.134751
0.134452
0.134021
0.133513
0.133053
0.132743
0.132584
0.132521
0.132506
0.132511
0.132527
0.132543
0.132562
0.132577
0.132591
0.132603
0.132612
0.132618
0.132621
0.132621
0.13262
0.132615
0.132606
0.132594
0.132581
0.132564
0.132545
0.132524
0.132501
0.132476
0.132449
0.132421
0.132391
0.13236
0.132328
0.132295
0.132262
0.132228
0.132194
0.13216
0.132126
0.132093
0.132059
0.132026
0.131994
0.131963
0.131932
0.131903
0.131874
0.131846
0.131819
0.131794
0.131769
0.131745
0.131723
0.131701
0.13168
0.131661
0.131642
0.131624
0.131607
0.131591
0.131575
0.13156
0.131546
0.131532
0.131519
0.131505
0.131493
0.131481
0.131469
0.131457
0.131447
0.131434
0.131425
0.131412
0.131403
0.13139
0.131382
0.131369
0.131361
0.131347
0.13134
0.131326
0.131319
0.131305
0.131298
0.131283
0.131277
0.131262
0.131257
0.131241
0.131236
0.131221
0.131216
0.1312
0.131196
0.13118
0.131176
0.131161
0.131157
0.131141
0.131139
)
;

boundaryField
{
    inlet
    {
        type            calculated;
        value           uniform 0.194831;
    }
    outlet
    {
        type            calculated;
        value           uniform 0.131131;
    }
    emptyWalls
    {
        type            empty;
    }
}


// ************************************************************************* //
