/*--------------------------------*- C++ -*----------------------------------*\
  =========                 |
  \\      /  F ield         | OpenFOAM: The Open Source CFD Toolbox
   \\    /   O peration     | Website:  https://openfoam.org
    \\  /    A nd           | Version:  9
     \\/     M anipulation  |
\*---------------------------------------------------------------------------*/
FoamFile
{
    format      ascii;
    class       volScalarField;
    location    "22400";
    object      krb;
}
// * * * * * * * * * * * * * * * * * * * * * * * * * * * * * * * * * * * * * //

dimensions      [0 0 0 0 0 0 0];

internalField   nonuniform List<scalar> 
1000
(
0.0978384
0.0982189
0.0987217
0.0992237
0.0997318
0.100243
0.100754
0.101288
0.101805
0.102369
0.102882
0.103482
0.103985
0.104604
0.105112
0.105711
0.106229
0.106774
0.107274
0.107755
0.108199
0.10861
0.108978
0.109313
0.109603
0.109866
0.110103
0.110365
0.110891
0.112546
0.119264
0.164867
0.38447
0.471413
0.493356
0.502564
0.50773
0.511187
0.513778
0.515886
0.517677
0.519246
0.520632
0.521871
0.522975
0.523967
0.524855
0.525652
0.526366
0.527008
0.52758
0.528094
0.528549
0.528957
0.529314
0.529632
0.529907
0.530147
0.53035
0.530521
0.53066
0.530769
0.530849
0.5309
0.530926
0.530922
0.530892
0.530833
0.530746
0.530631
0.530487
0.530315
0.530113
0.529881
0.529617
0.529321
0.528989
0.528619
0.528207
0.527748
0.527233
0.526653
0.52599
0.525226
0.524333
0.523288
0.522067
0.520669
0.519116
0.517452
0.515721
0.513945
0.512142
0.510322
0.508495
0.506666
0.50484
0.503019
0.501206
0.499402
0.497608
0.495824
0.494051
0.492289
0.490535
0.48879
0.487053
0.485325
0.483606
0.481898
0.480201
0.478517
0.476847
0.475191
0.473549
0.471922
0.47031
0.468714
0.467135
0.465574
0.46403
0.462505
0.460998
0.459508
0.458035
0.456578
0.455134
0.453703
0.452284
0.450874
0.449474
0.448081
0.446696
0.445318
0.443947
0.442582
0.441225
0.439875
0.438533
0.437198
0.435872
0.434554
0.433245
0.431945
0.430654
0.429372
0.428099
0.426835
0.425581
0.424335
0.423098
0.42187
0.42065
0.419439
0.418236
0.417041
0.415854
0.414675
0.413503
0.412339
0.411182
0.410033
0.408891
0.407756
0.406628
0.405507
0.404393
0.403286
0.402185
0.401091
0.400004
0.398923
0.397849
0.39678
0.395718
0.394663
0.393613
0.392569
0.391532
0.3905
0.389474
0.388454
0.38744
0.386431
0.385428
0.384431
0.383439
0.382452
0.381471
0.380495
0.379525
0.378559
0.377599
0.376644
0.375694
0.374749
0.373809
0.372874
0.371944
0.371018
0.370098
0.369182
0.368271
0.367365
0.366463
0.365566
0.364674
0.363786
0.362903
0.362024
0.361149
0.360278
0.359412
0.35855
0.357693
0.35684
0.355991
0.355146
0.354305
0.353469
0.352636
0.351808
0.350983
0.350162
0.349344
0.34853
0.347718
0.346909
0.346104
0.3453
0.3445
0.343702
0.342906
0.342113
0.341323
0.340535
0.339751
0.338969
0.338191
0.337416
0.336645
0.335878
0.335116
0.334357
0.333604
0.332855
0.332111
0.331373
0.330639
0.329911
0.329188
0.328471
0.327758
0.32705
0.326346
0.325647
0.324951
0.324259
0.32357
0.322883
0.3222
0.321518
0.320839
0.320161
0.319486
0.318812
0.31814
0.31747
0.316801
0.316135
0.31547
0.314807
0.314147
0.313488
0.312832
0.312178
0.311526
0.310877
0.31023
0.309585
0.308944
0.308304
0.307667
0.307033
0.306401
0.305772
0.305145
0.304521
0.303899
0.303279
0.302662
0.302047
0.301434
0.300824
0.300216
0.29961
0.299006
0.298405
0.297806
0.297208
0.296613
0.29602
0.295429
0.294841
0.294254
0.293669
0.293086
0.292505
0.291926
0.291349
0.290774
0.290201
0.28963
0.289061
0.288494
0.287928
0.287365
0.286803
0.286243
0.285685
0.285128
0.284574
0.284021
0.28347
0.282921
0.282373
0.281828
0.281284
0.280741
0.280201
0.279662
0.279124
0.278589
0.278055
0.277522
0.276992
0.276463
0.275935
0.27541
0.274886
0.274363
0.273842
0.273323
0.272805
0.272289
0.271774
0.271261
0.270749
0.270239
0.269731
0.269224
0.268718
0.268214
0.267712
0.267211
0.266711
0.266213
0.265717
0.265222
0.264728
0.264236
0.263745
0.263255
0.262766
0.262279
0.261793
0.261308
0.260823
0.26034
0.259858
0.259377
0.258897
0.258417
0.257939
0.257461
0.256985
0.256509
0.256034
0.255561
0.255088
0.254617
0.254147
0.253678
0.25321
0.252744
0.25228
0.251817
0.251356
0.250897
0.25044
0.249985
0.249531
0.24908
0.248631
0.248184
0.247739
0.247296
0.246855
0.246416
0.245978
0.245543
0.245109
0.244676
0.244245
0.243816
0.243387
0.24296
0.242534
0.242108
0.241684
0.24126
0.240837
0.240415
0.239993
0.239572
0.239152
0.238733
0.238314
0.237896
0.237478
0.237062
0.236646
0.236231
0.235816
0.235403
0.23499
0.234579
0.234168
0.233758
0.233349
0.232941
0.232534
0.232128
0.231723
0.231319
0.230915
0.230513
0.230112
0.229712
0.229312
0.228914
0.228517
0.22812
0.227724
0.22733
0.226936
0.226543
0.226151
0.22576
0.22537
0.22498
0.224592
0.224204
0.223817
0.223431
0.223046
0.222661
0.222278
0.221895
0.221513
0.221132
0.220751
0.220372
0.219993
0.219615
0.219237
0.218861
0.218485
0.21811
0.217736
0.217362
0.216989
0.216617
0.216246
0.215875
0.215505
0.215136
0.214767
0.214399
0.214032
0.213666
0.2133
0.212935
0.212571
0.212207
0.211844
0.211482
0.211121
0.21076
0.2104
0.21004
0.209681
0.209323
0.208966
0.208609
0.208252
0.207897
0.207542
0.207188
0.206834
0.206481
0.206129
0.205777
0.205426
0.205076
0.204726
0.204377
0.204029
0.203681
0.203334
0.202987
0.202641
0.202296
0.201951
0.201606
0.201263
0.200919
0.200577
0.200234
0.199893
0.199552
0.199211
0.19887
0.19853
0.198191
0.197852
0.197513
0.197175
0.196837
0.196499
0.196162
0.195825
0.195489
0.195153
0.194817
0.194482
0.194147
0.193813
0.193479
0.193146
0.192814
0.192482
0.192151
0.19182
0.191491
0.191162
0.190833
0.190506
0.190179
0.189854
0.189529
0.189205
0.188882
0.18856
0.188239
0.187918
0.187599
0.18728
0.186963
0.186646
0.18633
0.186014
0.185699
0.185385
0.185072
0.184759
0.184447
0.184135
0.183824
0.183513
0.183203
0.182893
0.182583
0.182273
0.181964
0.181655
0.181347
0.181039
0.180731
0.180423
0.180115
0.179808
0.179501
0.179195
0.178888
0.178582
0.178276
0.177971
0.177666
0.177361
0.177057
0.176753
0.176449
0.176146
0.175843
0.175541
0.175238
0.174937
0.174635
0.174334
0.174033
0.173733
0.173433
0.173134
0.172835
0.172536
0.172238
0.17194
0.171642
0.171345
0.171048
0.170751
0.170455
0.170159
0.169864
0.169568
0.169274
0.168979
0.168685
0.168391
0.168097
0.167804
0.167511
0.167218
0.166926
0.166634
0.166342
0.166051
0.16576
0.165469
0.165178
0.164888
0.164598
0.164308
0.164019
0.16373
0.163441
0.163152
0.162864
0.162576
0.162288
0.162
0.161713
0.161426
0.161139
0.160853
0.160566
0.16028
0.159994
0.159709
0.159423
0.159138
0.158854
0.158569
0.158285
0.158
0.157716
0.157433
0.157149
0.156866
0.156583
0.1563
0.156018
0.155735
0.155453
0.155171
0.15489
0.154608
0.154327
0.154046
0.153765
0.153484
0.153204
0.152923
0.152643
0.152363
0.152084
0.151804
0.151525
0.151246
0.150966
0.150688
0.150409
0.15013
0.149852
0.149573
0.149295
0.149017
0.148739
0.148461
0.148184
0.147906
0.147628
0.147351
0.147073
0.146796
0.146519
0.146241
0.145964
0.145687
0.14541
0.145133
0.144856
0.144579
0.144303
0.144026
0.143749
0.143473
0.143196
0.14292
0.142644
0.142368
0.142092
0.141816
0.141541
0.141266
0.14099
0.140716
0.140441
0.140166
0.139892
0.139618
0.139344
0.139071
0.138798
0.138525
0.138252
0.13798
0.137707
0.137435
0.137164
0.136892
0.136621
0.13635
0.136079
0.135808
0.135537
0.135267
0.134997
0.134726
0.134456
0.134186
0.133916
0.133646
0.133376
0.133106
0.132836
0.132565
0.132295
0.132025
0.131755
0.131484
0.131214
0.130943
0.130672
0.130402
0.130131
0.12986
0.129589
0.129317
0.129046
0.128775
0.128503
0.128231
0.12796
0.127688
0.127416
0.127144
0.126872
0.126599
0.126327
0.126054
0.125782
0.125509
0.125236
0.124963
0.12469
0.124417
0.124144
0.12387
0.123597
0.123323
0.123049
0.122775
0.122501
0.122227
0.121953
0.121678
0.121403
0.121128
0.120853
0.120578
0.120303
0.120027
0.119751
0.119475
0.119199
0.118923
0.118646
0.118369
0.118092
0.117815
0.117538
0.11726
0.116982
0.116704
0.116425
0.116147
0.115868
0.115589
0.115309
0.11503
0.11475
0.11447
0.114189
0.113909
0.113628
0.113347
0.113066
0.112784
0.112503
0.112221
0.111938
0.111656
0.111374
0.111091
0.110809
0.110526
0.110243
0.10996
0.109677
0.109394
0.109112
0.108829
0.108547
0.108265
0.107984
0.107703
0.107423
0.107143
0.106865
0.106587
0.106311
0.106036
0.105764
0.105493
0.105225
0.104959
0.104697
0.104438
0.104184
0.103934
0.103689
0.10345
0.103217
0.10299
0.102771
0.10256
0.102358
0.102165
0.101982
0.101808
0.101645
0.101492
0.10135
0.101219
0.101099
0.10099
0.10089
0.100801
0.100721
0.100651
0.100588
0.100534
0.100487
0.100446
0.100411
0.100381
0.100356
0.100335
0.100317
0.100302
0.100289
0.100277
0.100267
0.100256
0.100244
0.100227
0.100201
0.100157
0.100082
0.0999498
0.0997149
0.0992975
0.0985594
0.097269
0.0950618
0.0914254
0.0857932
0.0778661
0.0681228
0.0580205
0.0493108
0.0429769
0.0389469
0.0366058
0.0353193
0.0346343
0.0342757
0.0340896
0.0339935
0.033944
0.0339185
0.0339053
0.0338986
0.0338951
0.0338933
0.0338923
0.0338919
0.0338917
0.0338915
0.0338915
0.0338915
0.0338915
0.0338916
0.0338916
0.0338917
0.0338917
0.0338918
0.0338919
0.0338919
0.033892
0.0338921
0.0338922
0.0338922
0.0338923
0.0338924
0.0338924
0.0338925
0.0338926
0.0338926
0.0338927
0.0338927
0.0338927
0.0338928
0.0338928
0.0338928
0.0338929
0.0338929
0.0338929
0.0338929
0.0338929
0.0338929
0.0338929
0.0338929
0.0338929
0.0338929
0.0338929
0.0338929
0.0338929
0.0338929
0.0338929
0.0338929
0.0338929
0.0338929
0.0338929
0.0338929
0.0338929
0.0338929
0.0338929
0.0338929
0.0338929
0.0338929
0.0338929
0.0338929
0.0338929
0.033893
0.033893
0.033893
0.033893
0.0338931
0.0338931
0.0338931
0.0338932
0.0338932
0.0338932
0.0338933
0.0338933
0.0338934
0.0338934
0.0338935
0.0338935
0.0338936
0.0338937
0.0338937
0.0338938
0.0338939
0.0338939
0.033894
0.0338941
)
;

boundaryField
{
    inlet
    {
        type            calculated;
        value           uniform 0.0976562;
    }
    outlet
    {
        type            calculated;
        value           uniform 0.0338941;
    }
    emptyWalls
    {
        type            empty;
    }
}


// ************************************************************************* //
