/*--------------------------------*- C++ -*----------------------------------*\
  =========                 |
  \\      /  F ield         | OpenFOAM: The Open Source CFD Toolbox
   \\    /   O peration     | Website:  https://openfoam.org
    \\  /    A nd           | Version:  9
     \\/     M anipulation  |
\*---------------------------------------------------------------------------*/
FoamFile
{
    format      ascii;
    class       volScalarField;
    location    "22400";
    object      p;
}
// * * * * * * * * * * * * * * * * * * * * * * * * * * * * * * * * * * * * * //

dimensions      [0 0 0 0 0 0 0];

internalField   nonuniform List<scalar> 
1000
(
180601
180176
179752
179331
178912
178495
178080
177667
177256
176848
176441
176037
175635
175235
174837
174442
174048
173656
173267
172879
172492
172107
171724
171342
170961
170580
170201
169822
169445
169072
168711
168396
168231
168131
168041
167955
167869
167784
167700
167616
167532
167449
167365
167282
167200
167117
167034
166952
166870
166788
166705
166623
166541
166460
166378
166296
166214
166132
166051
165969
165887
165806
165724
165642
165561
165479
165398
165316
165234
165153
165071
164989
164908
164826
164744
164662
164580
164498
164417
164334
164252
164170
164088
164006
163923
163840
163758
163675
163592
163508
163424
163340
163256
163172
163087
163002
162917
162831
162745
162659
162573
162486
162399
162312
162224
162137
162049
161960
161872
161783
161694
161604
161515
161425
161335
161244
161154
161063
160972
160880
160788
160696
160604
160512
160419
160326
160232
160139
160045
159951
159856
159761
159666
159571
159476
159380
159284
159187
159091
158994
158897
158799
158702
158604
158505
158407
158308
158209
158110
158011
157911
157811
157711
157611
157510
157409
157308
157207
157105
157003
156901
156798
156696
156593
156490
156386
156283
156179
156075
155970
155866
155761
155656
155550
155445
155339
155233
155127
155020
154913
154806
154699
154592
154484
154376
154268
154159
154051
153942
153833
153723
153614
153504
153394
153284
153173
153062
152951
152840
152729
152617
152505
152393
152281
152168
152055
151942
151829
151716
151602
151488
151374
151260
151145
151030
150915
150800
150685
150569
150453
150337
150221
150104
149987
149870
149753
149636
149518
149400
149282
149164
149045
148927
148808
148689
148569
148450
148330
148210
148090
147970
147849
147728
147607
147486
147365
147243
147122
147000
146878
146755
146633
146510
146387
146263
146140
146016
145892
145768
145644
145519
145395
145269
145144
145019
144893
144767
144641
144515
144388
144261
144135
144007
143880
143752
143625
143497
143368
143240
143111
142983
142854
142724
142595
142465
142335
142205
142075
141945
141814
141683
141552
141421
141289
141158
141026
140894
140761
140629
140496
140363
140230
140097
139963
139830
139696
139562
139427
139293
139158
139023
138888
138753
138617
138482
138346
138210
138073
137937
137800
137663
137526
137389
137251
137114
136976
136838
136699
136561
136422
136283
136144
136005
135866
135726
135586
135446
135306
135165
135025
134884
134743
134602
134460
134319
134177
134035
133893
133751
133608
133465
133323
133179
133036
132893
132749
132605
132461
132317
132172
132028
131883
131738
131593
131447
131302
131156
131010
130864
130718
130571
130425
130278
130131
129984
129836
129689
129541
129393
129245
129097
128948
128800
128651
128502
128353
128203
128054
127904
127754
127604
127454
127304
127153
127002
126851
126700
126549
126397
126246
126094
125942
125789
125637
125484
125331
125178
125025
124872
124718
124564
124410
124256
124101
123947
123792
123637
123482
123327
123171
123015
122859
122703
122547
122390
122234
122077
121920
121763
121605
121448
121290
121132
120974
120815
120657
120498
120339
120180
120021
119862
119702
119542
119382
119222
119062
118901
118740
118580
118419
118257
118096
117934
117772
117610
117448
117286
117123
116961
116798
116635
116471
116308
116144
115980
115817
115652
115488
115323
115159
114994
114829
114664
114498
114332
114167
114001
113835
113668
113502
113335
113168
113001
112834
112666
112499
112331
112163
111995
111827
111658
111490
111321
111152
110983
110813
110644
110474
110304
110134
109964
109793
109623
109452
109281
109110
108939
108767
108596
108424
108252
108080
107907
107735
107562
107389
107216
107043
106869
106696
106522
106348
106174
106000
105825
105651
105476
105301
105126
104951
104775
104600
104424
104248
104072
103896
103719
103542
103366
103189
103012
102834
102657
102479
102302
102124
101946
101767
101589
101410
101232
101053
100874
100694
100515
100335
100155
99975.4
99795.2
99614.9
99434.3
99253.6
99072.8
98891.7
98710.4
98529
98347.4
98165.6
97983.6
97801.4
97619
97436.5
97253.8
97070.8
96887.7
96704.5
96521
96337.4
96153.5
95969.5
95785.3
95601
95416.4
95231.7
95046.8
94861.7
94676.4
94491
94305.3
94119.5
93933.6
93747.4
93561.1
93374.6
93187.9
93001
92814
92626.7
92439.4
92251.8
92064
91876.1
91688
91499.7
91311.3
91122.6
90933.8
90744.8
90555.6
90366.3
90176.8
89987.1
89797.2
89607.1
89416.9
89226.5
89035.9
88845.1
88654.2
88463.1
88271.8
88080.3
87888.6
87696.8
87504.8
87312.6
87120.2
86927.7
86735
86542.1
86349
86155.7
85962.3
85768.7
85574.9
85381
85186.8
84992.5
84798
84603.3
84408.5
84213.5
84018.3
83822.9
83627.3
83431.6
83235.7
83039.6
82843.4
82646.9
82450.3
82253.5
82056.6
81859.4
81662.1
81464.6
81266.9
81069.1
80871.1
80672.8
80474.5
80275.9
80077.2
79878.3
79679.2
79479.9
79280.5
79080.9
78881.1
78681.2
78481
78280.7
78080.2
77879.5
77678.7
77477.7
77276.5
77075.1
76873.6
76671.8
76469.9
76267.9
76065.6
75863.2
75660.6
75457.8
75254.8
75051.7
74848.4
74644.9
74441.3
74237.4
74033.4
73829.3
73624.9
73420.4
73215.7
73010.8
72805.8
72600.6
72395.2
72189.6
71983.9
71778
71572
71365.7
71159.3
70952.7
70746
70539.1
70332
70124.8
69917.3
69709.7
69502
69294
69085.9
68877.7
68669.2
68460.6
68251.8
68042.8
67833.7
67624.3
67414.8
67205.2
66995.3
66785.2
66575
66364.6
66154
65943.2
65732.3
65521.1
65309.8
65098.3
64886.5
64674.6
64462.5
64250.2
64037.7
63825.1
63612.2
63399.1
63185.8
62972.4
62758.7
62544.9
62330.9
62116.6
61902.2
61687.6
61472.8
61257.7
61042.5
60827.1
60611.6
60395.8
60179.8
59963.6
59747.3
59530.7
59314
59097
58879.9
58662.6
58445.1
58227.4
58009.5
57791.4
57573.1
57354.6
57135.9
56917.1
56698
56478.8
56259.3
56039.7
55819.8
55599.8
55379.6
55159.2
54938.6
54717.8
54496.8
54275.6
54054.2
53832.6
53610.8
53388.8
53166.7
52944.3
52721.7
52499
52276
52052.8
51829.5
51605.9
51382.1
51158.2
50934
50709.6
50485.1
50260.3
50035.4
49810.2
49584.8
49359.3
49133.5
48907.5
48681.4
48455
48228.4
48001.6
47774.7
47547.5
47320.1
47092.5
46864.7
46636.7
46408.5
46180.1
45951.5
45722.7
45493.7
45264.5
45035
44805.4
44575.6
44345.5
44115.3
43884.8
43654.2
43423.3
43192.2
42961
42729.5
42497.8
42265.9
42033.8
41801.6
41569.1
41336.4
41103.5
40870.4
40637.1
40403.6
40169.9
39936.1
39702
39467.8
39233.4
38998.8
38764
38529
38293.9
38058.6
37823.2
37587.6
37351.9
37116
36880
36643.9
36407.7
36171.4
35934.9
35698.4
35461.8
35225.2
34988.4
34751.6
34514.8
34277.9
34041
33804
33567.1
33330.1
33093
32856
32619
32381.9
32144.9
31907.8
31670.8
31433.7
31196.6
30959.6
30722.5
30485.5
30248.4
30011.3
29774.1
29536.8
29299.3
29061.4
28822.7
28582.8
28340.7
28095.3
27845
27588.4
27325.2
27056.2
26783.2
26508
26231.7
25954.8
25677.6
25400.4
25123
24845.7
24568.3
24291
24013.6
23736.2
23458.8
23181.5
22904.1
22626.7
22349.3
22072
21794.6
21517.2
21239.8
20962.4
20685
20407.6
20130.2
19852.7
19575.3
19297.9
19020.4
18743
18465.5
18188
17910.5
17633
17355.5
17078
16800.5
16522.9
16245.4
15967.8
15690.3
15412.7
15135.1
14857.5
14579.9
14302.3
14024.7
13747.1
13469.5
13191.8
12914.2
12636.6
12358.9
12081.3
11803.6
11525.9
11248.3
10970.6
10692.9
10415.3
10137.6
9859.89
9582.19
9304.5
9026.8
8749.1
8471.4
8193.69
7915.98
7638.27
7360.55
7082.84
6805.11
6527.39
6249.66
5971.93
5694.19
5416.46
5138.72
4860.97
4583.23
4305.48
4027.73
3749.97
3472.21
3194.45
2916.69
2638.92
2361.15
2083.38
1805.61
1527.83
1250.05
972.264
694.477
416.689
138.897
)
;

boundaryField
{
    inlet
    {
        type            darcyGradPressure;
        gradient        uniform 116344;
        Mf              Mf;
        phi             phi;
        value           uniform 180815;
    }
    outlet
    {
        type            fixedValue;
        value           uniform 0;
    }
    emptyWalls
    {
        type            empty;
    }
}


// ************************************************************************* //
