/*--------------------------------*- C++ -*----------------------------------*\
  =========                 |
  \\      /  F ield         | OpenFOAM: The Open Source CFD Toolbox
   \\    /   O peration     | Website:  https://openfoam.org
    \\  /    A nd           | Version:  9
     \\/     M anipulation  |
\*---------------------------------------------------------------------------*/
FoamFile
{
    format      ascii;
    class       volVectorField;
    location    "22400";
    object      Uc;
}
// * * * * * * * * * * * * * * * * * * * * * * * * * * * * * * * * * * * * * //

dimensions      [0 0 0 0 0 0 0];

internalField   nonuniform List<vector> 
1000
(
(5.24497e-12 0 0)
(2.71206e-11 0 0)
(7.54663e-11 0 0)
(1.53195e-10 0 0)
(2.59221e-10 0 0)
(3.93185e-10 0 0)
(5.55022e-10 0 0)
(7.44768e-10 0 0)
(9.62401e-10 0 0)
(1.20779e-09 0 0)
(1.48045e-09 0 0)
(1.77954e-09 0 0)
(2.10363e-09 0 0)
(2.4505e-09 0 0)
(2.8172e-09 0 0)
(3.19955e-09 0 0)
(3.59251e-09 0 0)
(3.98999e-09 0 0)
(4.38511e-09 0 0)
(4.77086e-09 0 0)
(5.14037e-09 0 0)
(5.48785e-09 0 0)
(5.80891e-09 0 0)
(6.10103e-09 0 0)
(6.36395e-09 0 0)
(6.60133e-09 0 0)
(6.83021e-09 0 0)
(7.12744e-09 0 0)
(7.84474e-09 0 0)
(1.03744e-08 0 0)
(2.06268e-08 0 0)
(7.46756e-08 0 0)
(1.58428e-07 0 0)
(2.03189e-07 0 0)
(2.12672e-07 0 0)
(2.16889e-07 0 0)
(2.1949e-07 0 0)
(2.21401e-07 0 0)
(2.22963e-07 0 0)
(2.24332e-07 0 0)
(2.25585e-07 0 0)
(2.26762e-07 0 0)
(2.27883e-07 0 0)
(2.28961e-07 0 0)
(2.30001e-07 0 0)
(2.31011e-07 0 0)
(2.31993e-07 0 0)
(2.3295e-07 0 0)
(2.33885e-07 0 0)
(2.348e-07 0 0)
(2.35698e-07 0 0)
(2.3658e-07 0 0)
(2.37449e-07 0 0)
(2.38307e-07 0 0)
(2.39154e-07 0 0)
(2.39994e-07 0 0)
(2.40827e-07 0 0)
(2.41657e-07 0 0)
(2.42483e-07 0 0)
(2.43309e-07 0 0)
(2.44136e-07 0 0)
(2.44965e-07 0 0)
(2.45798e-07 0 0)
(2.46638e-07 0 0)
(2.47487e-07 0 0)
(2.48349e-07 0 0)
(2.49234e-07 0 0)
(2.5014e-07 0 0)
(2.5106e-07 0 0)
(2.51998e-07 0 0)
(2.52955e-07 0 0)
(2.53932e-07 0 0)
(2.54932e-07 0 0)
(2.55959e-07 0 0)
(2.57014e-07 0 0)
(2.58104e-07 0 0)
(2.59232e-07 0 0)
(2.60407e-07 0 0)
(2.61638e-07 0 0)
(2.62937e-07 0 0)
(2.64324e-07 0 0)
(2.65822e-07 0 0)
(2.67465e-07 0 0)
(2.69292e-07 0 0)
(2.71353e-07 0 0)
(2.73695e-07 0 0)
(2.76354e-07 0 0)
(2.7934e-07 0 0)
(2.82628e-07 0 0)
(2.86162e-07 0 0)
(2.89885e-07 0 0)
(2.93748e-07 0 0)
(2.97718e-07 0 0)
(3.01771e-07 0 0)
(3.05892e-07 0 0)
(3.10067e-07 0 0)
(3.14289e-07 0 0)
(3.1855e-07 0 0)
(3.22844e-07 0 0)
(3.27167e-07 0 0)
(3.31515e-07 0 0)
(3.35885e-07 0 0)
(3.40274e-07 0 0)
(3.44677e-07 0 0)
(3.49092e-07 0 0)
(3.53514e-07 0 0)
(3.57941e-07 0 0)
(3.62373e-07 0 0)
(3.66809e-07 0 0)
(3.71252e-07 0 0)
(3.75703e-07 0 0)
(3.80163e-07 0 0)
(3.84634e-07 0 0)
(3.89116e-07 0 0)
(3.93611e-07 0 0)
(3.9812e-07 0 0)
(4.02644e-07 0 0)
(4.07185e-07 0 0)
(4.11746e-07 0 0)
(4.16329e-07 0 0)
(4.20936e-07 0 0)
(4.25568e-07 0 0)
(4.30226e-07 0 0)
(4.34909e-07 0 0)
(4.39616e-07 0 0)
(4.44344e-07 0 0)
(4.4909e-07 0 0)
(4.5385e-07 0 0)
(4.58622e-07 0 0)
(4.63402e-07 0 0)
(4.68188e-07 0 0)
(4.72976e-07 0 0)
(4.77765e-07 0 0)
(4.82554e-07 0 0)
(4.87342e-07 0 0)
(4.9213e-07 0 0)
(4.96916e-07 0 0)
(5.01703e-07 0 0)
(5.06491e-07 0 0)
(5.1128e-07 0 0)
(5.16073e-07 0 0)
(5.2087e-07 0 0)
(5.25673e-07 0 0)
(5.30481e-07 0 0)
(5.35297e-07 0 0)
(5.4012e-07 0 0)
(5.44952e-07 0 0)
(5.49791e-07 0 0)
(5.54639e-07 0 0)
(5.59495e-07 0 0)
(5.6436e-07 0 0)
(5.69233e-07 0 0)
(5.74114e-07 0 0)
(5.79002e-07 0 0)
(5.83898e-07 0 0)
(5.88802e-07 0 0)
(5.93712e-07 0 0)
(5.9863e-07 0 0)
(6.03554e-07 0 0)
(6.08484e-07 0 0)
(6.13421e-07 0 0)
(6.18364e-07 0 0)
(6.23313e-07 0 0)
(6.28268e-07 0 0)
(6.33229e-07 0 0)
(6.38196e-07 0 0)
(6.43168e-07 0 0)
(6.48147e-07 0 0)
(6.5313e-07 0 0)
(6.58119e-07 0 0)
(6.63114e-07 0 0)
(6.68114e-07 0 0)
(6.73119e-07 0 0)
(6.7813e-07 0 0)
(6.83146e-07 0 0)
(6.88167e-07 0 0)
(6.93193e-07 0 0)
(6.98224e-07 0 0)
(7.0326e-07 0 0)
(7.08301e-07 0 0)
(7.13347e-07 0 0)
(7.18398e-07 0 0)
(7.23453e-07 0 0)
(7.28514e-07 0 0)
(7.33579e-07 0 0)
(7.38649e-07 0 0)
(7.43724e-07 0 0)
(7.48803e-07 0 0)
(7.53887e-07 0 0)
(7.58976e-07 0 0)
(7.64069e-07 0 0)
(7.69166e-07 0 0)
(7.74268e-07 0 0)
(7.79373e-07 0 0)
(7.84483e-07 0 0)
(7.89598e-07 0 0)
(7.94717e-07 0 0)
(7.9984e-07 0 0)
(8.04968e-07 0 0)
(8.101e-07 0 0)
(8.15237e-07 0 0)
(8.20378e-07 0 0)
(8.25525e-07 0 0)
(8.30675e-07 0 0)
(8.35831e-07 0 0)
(8.4099e-07 0 0)
(8.46155e-07 0 0)
(8.51323e-07 0 0)
(8.56495e-07 0 0)
(8.61672e-07 0 0)
(8.66853e-07 0 0)
(8.72037e-07 0 0)
(8.77226e-07 0 0)
(8.82419e-07 0 0)
(8.87617e-07 0 0)
(8.9282e-07 0 0)
(8.98027e-07 0 0)
(9.0324e-07 0 0)
(9.08458e-07 0 0)
(9.1368e-07 0 0)
(9.18907e-07 0 0)
(9.24137e-07 0 0)
(9.29371e-07 0 0)
(9.34606e-07 0 0)
(9.39841e-07 0 0)
(9.45075e-07 0 0)
(9.50308e-07 0 0)
(9.55537e-07 0 0)
(9.60762e-07 0 0)
(9.65982e-07 0 0)
(9.71197e-07 0 0)
(9.76406e-07 0 0)
(9.8161e-07 0 0)
(9.86808e-07 0 0)
(9.92002e-07 0 0)
(9.97192e-07 0 0)
(1.00238e-06 0 0)
(1.00757e-06 0 0)
(1.01275e-06 0 0)
(1.01794e-06 0 0)
(1.02314e-06 0 0)
(1.02834e-06 0 0)
(1.03356e-06 0 0)
(1.03878e-06 0 0)
(1.04403e-06 0 0)
(1.04929e-06 0 0)
(1.05457e-06 0 0)
(1.05987e-06 0 0)
(1.0652e-06 0 0)
(1.07055e-06 0 0)
(1.07592e-06 0 0)
(1.08132e-06 0 0)
(1.08674e-06 0 0)
(1.09218e-06 0 0)
(1.09764e-06 0 0)
(1.10312e-06 0 0)
(1.10861e-06 0 0)
(1.11412e-06 0 0)
(1.11963e-06 0 0)
(1.12514e-06 0 0)
(1.13066e-06 0 0)
(1.13618e-06 0 0)
(1.1417e-06 0 0)
(1.14721e-06 0 0)
(1.15272e-06 0 0)
(1.15823e-06 0 0)
(1.16373e-06 0 0)
(1.16923e-06 0 0)
(1.17472e-06 0 0)
(1.1802e-06 0 0)
(1.18569e-06 0 0)
(1.19117e-06 0 0)
(1.19664e-06 0 0)
(1.20212e-06 0 0)
(1.2076e-06 0 0)
(1.21308e-06 0 0)
(1.21856e-06 0 0)
(1.22404e-06 0 0)
(1.22953e-06 0 0)
(1.23502e-06 0 0)
(1.24052e-06 0 0)
(1.24602e-06 0 0)
(1.25153e-06 0 0)
(1.25704e-06 0 0)
(1.26256e-06 0 0)
(1.26808e-06 0 0)
(1.27361e-06 0 0)
(1.27914e-06 0 0)
(1.28468e-06 0 0)
(1.29023e-06 0 0)
(1.29578e-06 0 0)
(1.30134e-06 0 0)
(1.3069e-06 0 0)
(1.31246e-06 0 0)
(1.31803e-06 0 0)
(1.32361e-06 0 0)
(1.32919e-06 0 0)
(1.33477e-06 0 0)
(1.34036e-06 0 0)
(1.34595e-06 0 0)
(1.35155e-06 0 0)
(1.35715e-06 0 0)
(1.36275e-06 0 0)
(1.36836e-06 0 0)
(1.37397e-06 0 0)
(1.37958e-06 0 0)
(1.3852e-06 0 0)
(1.39083e-06 0 0)
(1.39645e-06 0 0)
(1.40208e-06 0 0)
(1.40772e-06 0 0)
(1.41336e-06 0 0)
(1.419e-06 0 0)
(1.42464e-06 0 0)
(1.43029e-06 0 0)
(1.43594e-06 0 0)
(1.4416e-06 0 0)
(1.44726e-06 0 0)
(1.45292e-06 0 0)
(1.45858e-06 0 0)
(1.46425e-06 0 0)
(1.46992e-06 0 0)
(1.4756e-06 0 0)
(1.48128e-06 0 0)
(1.48696e-06 0 0)
(1.49265e-06 0 0)
(1.49834e-06 0 0)
(1.50403e-06 0 0)
(1.50973e-06 0 0)
(1.51543e-06 0 0)
(1.52113e-06 0 0)
(1.52683e-06 0 0)
(1.53254e-06 0 0)
(1.53826e-06 0 0)
(1.54397e-06 0 0)
(1.54969e-06 0 0)
(1.55541e-06 0 0)
(1.56114e-06 0 0)
(1.56687e-06 0 0)
(1.5726e-06 0 0)
(1.57834e-06 0 0)
(1.58408e-06 0 0)
(1.58983e-06 0 0)
(1.59558e-06 0 0)
(1.60133e-06 0 0)
(1.60709e-06 0 0)
(1.61284e-06 0 0)
(1.61861e-06 0 0)
(1.62438e-06 0 0)
(1.63015e-06 0 0)
(1.63592e-06 0 0)
(1.6417e-06 0 0)
(1.64748e-06 0 0)
(1.65327e-06 0 0)
(1.65906e-06 0 0)
(1.66486e-06 0 0)
(1.67066e-06 0 0)
(1.67646e-06 0 0)
(1.68227e-06 0 0)
(1.68808e-06 0 0)
(1.69389e-06 0 0)
(1.6997e-06 0 0)
(1.70552e-06 0 0)
(1.71133e-06 0 0)
(1.71715e-06 0 0)
(1.72296e-06 0 0)
(1.72878e-06 0 0)
(1.73458e-06 0 0)
(1.74039e-06 0 0)
(1.74619e-06 0 0)
(1.75199e-06 0 0)
(1.75778e-06 0 0)
(1.76356e-06 0 0)
(1.76934e-06 0 0)
(1.77511e-06 0 0)
(1.78088e-06 0 0)
(1.78665e-06 0 0)
(1.79241e-06 0 0)
(1.79816e-06 0 0)
(1.80392e-06 0 0)
(1.80968e-06 0 0)
(1.81543e-06 0 0)
(1.82119e-06 0 0)
(1.82696e-06 0 0)
(1.83274e-06 0 0)
(1.83852e-06 0 0)
(1.84432e-06 0 0)
(1.85013e-06 0 0)
(1.85596e-06 0 0)
(1.86181e-06 0 0)
(1.86768e-06 0 0)
(1.87357e-06 0 0)
(1.87949e-06 0 0)
(1.88543e-06 0 0)
(1.89139e-06 0 0)
(1.89738e-06 0 0)
(1.90339e-06 0 0)
(1.90943e-06 0 0)
(1.9155e-06 0 0)
(1.92158e-06 0 0)
(1.92769e-06 0 0)
(1.93381e-06 0 0)
(1.93995e-06 0 0)
(1.9461e-06 0 0)
(1.95227e-06 0 0)
(1.95844e-06 0 0)
(1.96462e-06 0 0)
(1.9708e-06 0 0)
(1.97699e-06 0 0)
(1.98318e-06 0 0)
(1.98936e-06 0 0)
(1.99555e-06 0 0)
(2.00173e-06 0 0)
(2.00791e-06 0 0)
(2.01408e-06 0 0)
(2.02026e-06 0 0)
(2.02642e-06 0 0)
(2.03259e-06 0 0)
(2.03875e-06 0 0)
(2.04491e-06 0 0)
(2.05106e-06 0 0)
(2.05722e-06 0 0)
(2.06337e-06 0 0)
(2.06953e-06 0 0)
(2.07568e-06 0 0)
(2.08184e-06 0 0)
(2.088e-06 0 0)
(2.09417e-06 0 0)
(2.10033e-06 0 0)
(2.10651e-06 0 0)
(2.11268e-06 0 0)
(2.11886e-06 0 0)
(2.12505e-06 0 0)
(2.13124e-06 0 0)
(2.13744e-06 0 0)
(2.14365e-06 0 0)
(2.14986e-06 0 0)
(2.15608e-06 0 0)
(2.16231e-06 0 0)
(2.16854e-06 0 0)
(2.17477e-06 0 0)
(2.18102e-06 0 0)
(2.18727e-06 0 0)
(2.19352e-06 0 0)
(2.19979e-06 0 0)
(2.20605e-06 0 0)
(2.21233e-06 0 0)
(2.21861e-06 0 0)
(2.22489e-06 0 0)
(2.23118e-06 0 0)
(2.23748e-06 0 0)
(2.24378e-06 0 0)
(2.25009e-06 0 0)
(2.2564e-06 0 0)
(2.26271e-06 0 0)
(2.26904e-06 0 0)
(2.27536e-06 0 0)
(2.2817e-06 0 0)
(2.28803e-06 0 0)
(2.29437e-06 0 0)
(2.30072e-06 0 0)
(2.30707e-06 0 0)
(2.31343e-06 0 0)
(2.31979e-06 0 0)
(2.32615e-06 0 0)
(2.33252e-06 0 0)
(2.3389e-06 0 0)
(2.34528e-06 0 0)
(2.35166e-06 0 0)
(2.35805e-06 0 0)
(2.36444e-06 0 0)
(2.37084e-06 0 0)
(2.37724e-06 0 0)
(2.38365e-06 0 0)
(2.39006e-06 0 0)
(2.39648e-06 0 0)
(2.4029e-06 0 0)
(2.40932e-06 0 0)
(2.41575e-06 0 0)
(2.42219e-06 0 0)
(2.42863e-06 0 0)
(2.43507e-06 0 0)
(2.44152e-06 0 0)
(2.44797e-06 0 0)
(2.45443e-06 0 0)
(2.46089e-06 0 0)
(2.46735e-06 0 0)
(2.47383e-06 0 0)
(2.4803e-06 0 0)
(2.48678e-06 0 0)
(2.49327e-06 0 0)
(2.49976e-06 0 0)
(2.50626e-06 0 0)
(2.51276e-06 0 0)
(2.51926e-06 0 0)
(2.52577e-06 0 0)
(2.53229e-06 0 0)
(2.53881e-06 0 0)
(2.54534e-06 0 0)
(2.55187e-06 0 0)
(2.55841e-06 0 0)
(2.56495e-06 0 0)
(2.5715e-06 0 0)
(2.57805e-06 0 0)
(2.58461e-06 0 0)
(2.59118e-06 0 0)
(2.59775e-06 0 0)
(2.60433e-06 0 0)
(2.61091e-06 0 0)
(2.61749e-06 0 0)
(2.62409e-06 0 0)
(2.63068e-06 0 0)
(2.63729e-06 0 0)
(2.64389e-06 0 0)
(2.6505e-06 0 0)
(2.65711e-06 0 0)
(2.66373e-06 0 0)
(2.67035e-06 0 0)
(2.67697e-06 0 0)
(2.68359e-06 0 0)
(2.69021e-06 0 0)
(2.69683e-06 0 0)
(2.70345e-06 0 0)
(2.71007e-06 0 0)
(2.71668e-06 0 0)
(2.7233e-06 0 0)
(2.72991e-06 0 0)
(2.73652e-06 0 0)
(2.74312e-06 0 0)
(2.74973e-06 0 0)
(2.75633e-06 0 0)
(2.76292e-06 0 0)
(2.76952e-06 0 0)
(2.77611e-06 0 0)
(2.7827e-06 0 0)
(2.7893e-06 0 0)
(2.79589e-06 0 0)
(2.80249e-06 0 0)
(2.80909e-06 0 0)
(2.8157e-06 0 0)
(2.82232e-06 0 0)
(2.82895e-06 0 0)
(2.83558e-06 0 0)
(2.84223e-06 0 0)
(2.8489e-06 0 0)
(2.85558e-06 0 0)
(2.86228e-06 0 0)
(2.869e-06 0 0)
(2.87574e-06 0 0)
(2.88251e-06 0 0)
(2.8893e-06 0 0)
(2.89612e-06 0 0)
(2.90297e-06 0 0)
(2.90984e-06 0 0)
(2.91674e-06 0 0)
(2.92367e-06 0 0)
(2.93063e-06 0 0)
(2.93761e-06 0 0)
(2.94462e-06 0 0)
(2.95166e-06 0 0)
(2.95872e-06 0 0)
(2.96581e-06 0 0)
(2.97291e-06 0 0)
(2.98004e-06 0 0)
(2.98718e-06 0 0)
(2.99434e-06 0 0)
(3.00151e-06 0 0)
(3.0087e-06 0 0)
(3.01589e-06 0 0)
(3.02309e-06 0 0)
(3.0303e-06 0 0)
(3.03751e-06 0 0)
(3.04473e-06 0 0)
(3.05195e-06 0 0)
(3.05917e-06 0 0)
(3.06639e-06 0 0)
(3.07362e-06 0 0)
(3.08084e-06 0 0)
(3.08806e-06 0 0)
(3.09529e-06 0 0)
(3.10251e-06 0 0)
(3.10974e-06 0 0)
(3.11696e-06 0 0)
(3.12419e-06 0 0)
(3.13142e-06 0 0)
(3.13865e-06 0 0)
(3.14589e-06 0 0)
(3.15313e-06 0 0)
(3.16037e-06 0 0)
(3.16762e-06 0 0)
(3.17487e-06 0 0)
(3.18214e-06 0 0)
(3.1894e-06 0 0)
(3.19668e-06 0 0)
(3.20396e-06 0 0)
(3.21126e-06 0 0)
(3.21856e-06 0 0)
(3.22587e-06 0 0)
(3.23319e-06 0 0)
(3.24052e-06 0 0)
(3.24785e-06 0 0)
(3.2552e-06 0 0)
(3.26256e-06 0 0)
(3.26993e-06 0 0)
(3.27731e-06 0 0)
(3.2847e-06 0 0)
(3.29209e-06 0 0)
(3.2995e-06 0 0)
(3.30692e-06 0 0)
(3.31435e-06 0 0)
(3.32179e-06 0 0)
(3.32924e-06 0 0)
(3.3367e-06 0 0)
(3.34417e-06 0 0)
(3.35165e-06 0 0)
(3.35914e-06 0 0)
(3.36663e-06 0 0)
(3.37414e-06 0 0)
(3.38166e-06 0 0)
(3.38919e-06 0 0)
(3.39672e-06 0 0)
(3.40427e-06 0 0)
(3.41183e-06 0 0)
(3.41939e-06 0 0)
(3.42696e-06 0 0)
(3.43455e-06 0 0)
(3.44214e-06 0 0)
(3.44974e-06 0 0)
(3.45736e-06 0 0)
(3.46498e-06 0 0)
(3.47261e-06 0 0)
(3.48025e-06 0 0)
(3.48789e-06 0 0)
(3.49555e-06 0 0)
(3.50322e-06 0 0)
(3.5109e-06 0 0)
(3.51858e-06 0 0)
(3.52628e-06 0 0)
(3.53398e-06 0 0)
(3.5417e-06 0 0)
(3.54942e-06 0 0)
(3.55716e-06 0 0)
(3.5649e-06 0 0)
(3.57265e-06 0 0)
(3.58042e-06 0 0)
(3.58819e-06 0 0)
(3.59597e-06 0 0)
(3.60376e-06 0 0)
(3.61156e-06 0 0)
(3.61937e-06 0 0)
(3.6272e-06 0 0)
(3.63503e-06 0 0)
(3.64287e-06 0 0)
(3.65072e-06 0 0)
(3.65858e-06 0 0)
(3.66646e-06 0 0)
(3.67434e-06 0 0)
(3.68224e-06 0 0)
(3.69014e-06 0 0)
(3.69806e-06 0 0)
(3.70598e-06 0 0)
(3.71392e-06 0 0)
(3.72187e-06 0 0)
(3.72983e-06 0 0)
(3.7378e-06 0 0)
(3.74579e-06 0 0)
(3.75378e-06 0 0)
(3.76179e-06 0 0)
(3.76981e-06 0 0)
(3.77784e-06 0 0)
(3.78588e-06 0 0)
(3.79393e-06 0 0)
(3.802e-06 0 0)
(3.81008e-06 0 0)
(3.81816e-06 0 0)
(3.82627e-06 0 0)
(3.83438e-06 0 0)
(3.8425e-06 0 0)
(3.85064e-06 0 0)
(3.85879e-06 0 0)
(3.86695e-06 0 0)
(3.87512e-06 0 0)
(3.8833e-06 0 0)
(3.89149e-06 0 0)
(3.89969e-06 0 0)
(3.9079e-06 0 0)
(3.91611e-06 0 0)
(3.92434e-06 0 0)
(3.93257e-06 0 0)
(3.94081e-06 0 0)
(3.94906e-06 0 0)
(3.95732e-06 0 0)
(3.96558e-06 0 0)
(3.97385e-06 0 0)
(3.98212e-06 0 0)
(3.9904e-06 0 0)
(3.99868e-06 0 0)
(4.00697e-06 0 0)
(4.01527e-06 0 0)
(4.02357e-06 0 0)
(4.03188e-06 0 0)
(4.04019e-06 0 0)
(4.04851e-06 0 0)
(4.05684e-06 0 0)
(4.06518e-06 0 0)
(4.07353e-06 0 0)
(4.08189e-06 0 0)
(4.09026e-06 0 0)
(4.09864e-06 0 0)
(4.10704e-06 0 0)
(4.11545e-06 0 0)
(4.12388e-06 0 0)
(4.13233e-06 0 0)
(4.1408e-06 0 0)
(4.14929e-06 0 0)
(4.15781e-06 0 0)
(4.16635e-06 0 0)
(4.17492e-06 0 0)
(4.18352e-06 0 0)
(4.19215e-06 0 0)
(4.20082e-06 0 0)
(4.20951e-06 0 0)
(4.21824e-06 0 0)
(4.22701e-06 0 0)
(4.23582e-06 0 0)
(4.24466e-06 0 0)
(4.25355e-06 0 0)
(4.26247e-06 0 0)
(4.27143e-06 0 0)
(4.28044e-06 0 0)
(4.28948e-06 0 0)
(4.29856e-06 0 0)
(4.30768e-06 0 0)
(4.31684e-06 0 0)
(4.32604e-06 0 0)
(4.33527e-06 0 0)
(4.34454e-06 0 0)
(4.35384e-06 0 0)
(4.36317e-06 0 0)
(4.37253e-06 0 0)
(4.38192e-06 0 0)
(4.39134e-06 0 0)
(4.40078e-06 0 0)
(4.41025e-06 0 0)
(4.41974e-06 0 0)
(4.42925e-06 0 0)
(4.43878e-06 0 0)
(4.44833e-06 0 0)
(4.4579e-06 0 0)
(4.46749e-06 0 0)
(4.47709e-06 0 0)
(4.48671e-06 0 0)
(4.49635e-06 0 0)
(4.50599e-06 0 0)
(4.51566e-06 0 0)
(4.52534e-06 0 0)
(4.53504e-06 0 0)
(4.54475e-06 0 0)
(4.55448e-06 0 0)
(4.56422e-06 0 0)
(4.57399e-06 0 0)
(4.58377e-06 0 0)
(4.59357e-06 0 0)
(4.60338e-06 0 0)
(4.61322e-06 0 0)
(4.62308e-06 0 0)
(4.63296e-06 0 0)
(4.64286e-06 0 0)
(4.65279e-06 0 0)
(4.66274e-06 0 0)
(4.67271e-06 0 0)
(4.6827e-06 0 0)
(4.69273e-06 0 0)
(4.70277e-06 0 0)
(4.71285e-06 0 0)
(4.72295e-06 0 0)
(4.73307e-06 0 0)
(4.74323e-06 0 0)
(4.75342e-06 0 0)
(4.76363e-06 0 0)
(4.77387e-06 0 0)
(4.78414e-06 0 0)
(4.79444e-06 0 0)
(4.80477e-06 0 0)
(4.81513e-06 0 0)
(4.82552e-06 0 0)
(4.83594e-06 0 0)
(4.8464e-06 0 0)
(4.85688e-06 0 0)
(4.86739e-06 0 0)
(4.87794e-06 0 0)
(4.88852e-06 0 0)
(4.89913e-06 0 0)
(4.90977e-06 0 0)
(4.92044e-06 0 0)
(4.93115e-06 0 0)
(4.94189e-06 0 0)
(4.95266e-06 0 0)
(4.96346e-06 0 0)
(4.9743e-06 0 0)
(4.98517e-06 0 0)
(4.99607e-06 0 0)
(5.00701e-06 0 0)
(5.01798e-06 0 0)
(5.02898e-06 0 0)
(5.04001e-06 0 0)
(5.05109e-06 0 0)
(5.06219e-06 0 0)
(5.07333e-06 0 0)
(5.08451e-06 0 0)
(5.09571e-06 0 0)
(5.10696e-06 0 0)
(5.11823e-06 0 0)
(5.12954e-06 0 0)
(5.14089e-06 0 0)
(5.15227e-06 0 0)
(5.16369e-06 0 0)
(5.17514e-06 0 0)
(5.18663e-06 0 0)
(5.19814e-06 0 0)
(5.2097e-06 0 0)
(5.22128e-06 0 0)
(5.2329e-06 0 0)
(5.24456e-06 0 0)
(5.25624e-06 0 0)
(5.26796e-06 0 0)
(5.27971e-06 0 0)
(5.29148e-06 0 0)
(5.30329e-06 0 0)
(5.31512e-06 0 0)
(5.32698e-06 0 0)
(5.33886e-06 0 0)
(5.35076e-06 0 0)
(5.36268e-06 0 0)
(5.37462e-06 0 0)
(5.38657e-06 0 0)
(5.39853e-06 0 0)
(5.41049e-06 0 0)
(5.42245e-06 0 0)
(5.4344e-06 0 0)
(5.44634e-06 0 0)
(5.45826e-06 0 0)
(5.47014e-06 0 0)
(5.48199e-06 0 0)
(5.49378e-06 0 0)
(5.5055e-06 0 0)
(5.51714e-06 0 0)
(5.52869e-06 0 0)
(5.54012e-06 0 0)
(5.55142e-06 0 0)
(5.56256e-06 0 0)
(5.57352e-06 0 0)
(5.58427e-06 0 0)
(5.5948e-06 0 0)
(5.60507e-06 0 0)
(5.61505e-06 0 0)
(5.62472e-06 0 0)
(5.63405e-06 0 0)
(5.64301e-06 0 0)
(5.65157e-06 0 0)
(5.65972e-06 0 0)
(5.66742e-06 0 0)
(5.67467e-06 0 0)
(5.68145e-06 0 0)
(5.68775e-06 0 0)
(5.69356e-06 0 0)
(5.69888e-06 0 0)
(5.70373e-06 0 0)
(5.70811e-06 0 0)
(5.71204e-06 0 0)
(5.71553e-06 0 0)
(5.7186e-06 0 0)
(5.72128e-06 0 0)
(5.7236e-06 0 0)
(5.72559e-06 0 0)
(5.72727e-06 0 0)
(5.72869e-06 0 0)
(5.72985e-06 0 0)
(5.73079e-06 0 0)
(5.73153e-06 0 0)
(5.73212e-06 0 0)
(5.73257e-06 0 0)
(5.73291e-06 0 0)
(5.73317e-06 0 0)
(5.73338e-06 0 0)
(5.7336e-06 0 0)
(5.7339e-06 0 0)
(5.73443e-06 0 0)
(5.73541e-06 0 0)
(5.73724e-06 0 0)
(5.74063e-06 0 0)
(5.74684e-06 0 0)
(5.75813e-06 0 0)
(5.77848e-06 0 0)
(5.81479e-06 0 0)
(5.87868e-06 0 0)
(5.98874e-06 0 0)
(6.17194e-06 0 0)
(6.4604e-06 0 0)
(6.87763e-06 0 0)
(7.41325e-06 0 0)
(8.00437e-06 0 0)
(8.55482e-06 0 0)
(8.98805e-06 0 0)
(9.28275e-06 0 0)
(9.46226e-06 0 0)
(9.56381e-06 0 0)
(9.61871e-06 0 0)
(9.64762e-06 0 0)
(9.6626e-06 0 0)
(9.67027e-06 0 0)
(9.67416e-06 0 0)
(9.67612e-06 0 0)
(9.67709e-06 0 0)
(9.67758e-06 0 0)
(9.67783e-06 0 0)
(9.67797e-06 0 0)
(9.67806e-06 0 0)
(9.67815e-06 0 0)
(9.67828e-06 0 0)
(9.67842e-06 0 0)
(9.67859e-06 0 0)
(9.67878e-06 0 0)
(9.67899e-06 0 0)
(9.67923e-06 0 0)
(9.67949e-06 0 0)
(9.67977e-06 0 0)
(9.68008e-06 0 0)
(9.6804e-06 0 0)
(9.68074e-06 0 0)
(9.68109e-06 0 0)
(9.68145e-06 0 0)
(9.68182e-06 0 0)
(9.6822e-06 0 0)
(9.68258e-06 0 0)
(9.68296e-06 0 0)
(9.68335e-06 0 0)
(9.68374e-06 0 0)
(9.68412e-06 0 0)
(9.6845e-06 0 0)
(9.68487e-06 0 0)
(9.68523e-06 0 0)
(9.68559e-06 0 0)
(9.68594e-06 0 0)
(9.68628e-06 0 0)
(9.68661e-06 0 0)
(9.68692e-06 0 0)
(9.68723e-06 0 0)
(9.68752e-06 0 0)
(9.68781e-06 0 0)
(9.68808e-06 0 0)
(9.68834e-06 0 0)
(9.68858e-06 0 0)
(9.68882e-06 0 0)
(9.68905e-06 0 0)
(9.68926e-06 0 0)
(9.68947e-06 0 0)
(9.68967e-06 0 0)
(9.68986e-06 0 0)
(9.69004e-06 0 0)
(9.69021e-06 0 0)
(9.69038e-06 0 0)
(9.69054e-06 0 0)
(9.69069e-06 0 0)
(9.69084e-06 0 0)
(9.69098e-06 0 0)
(9.69112e-06 0 0)
(9.69126e-06 0 0)
(9.69139e-06 0 0)
(9.69153e-06 0 0)
(9.69165e-06 0 0)
(9.69178e-06 0 0)
(9.69191e-06 0 0)
(9.69203e-06 0 0)
(9.69215e-06 0 0)
(9.69227e-06 0 0)
(9.69239e-06 0 0)
(9.69251e-06 0 0)
(9.69263e-06 0 0)
(9.69275e-06 0 0)
(9.69287e-06 0 0)
(9.69299e-06 0 0)
(9.69311e-06 0 0)
(9.69323e-06 0 0)
(9.69335e-06 0 0)
(9.69346e-06 0 0)
(9.69358e-06 0 0)
(9.6937e-06 0 0)
(9.69381e-06 0 0)
(9.69393e-06 0 0)
(9.69404e-06 0 0)
(9.69415e-06 0 0)
(9.69427e-06 0 0)
(9.69438e-06 0 0)
(9.69449e-06 0 0)
(9.69459e-06 0 0)
(9.6947e-06 0 0)
(9.6948e-06 0 0)
(9.69491e-06 0 0)
(9.69501e-06 0 0)
)
;

boundaryField
{
    inlet
    {
        type            fixedValue;
        value           uniform (0 0 0);
    }
    outlet
    {
        type            zeroGradient;
    }
    emptyWalls
    {
        type            empty;
    }
}


// ************************************************************************* //
