/*--------------------------------*- C++ -*----------------------------------*\
  =========                 |
  \\      /  F ield         | OpenFOAM: The Open Source CFD Toolbox
   \\    /   O peration     | Website:  https://openfoam.org
    \\  /    A nd           | Version:  9
     \\/     M anipulation  |
\*---------------------------------------------------------------------------*/
FoamFile
{
    format      ascii;
    class       volScalarField;
    location    "24700";
    object      kra;
}
// * * * * * * * * * * * * * * * * * * * * * * * * * * * * * * * * * * * * * //

dimensions      [0 0 0 0 0 0 0];

internalField   nonuniform List<scalar> 
1000
(
0.000236657
0.000237466
0.000238544
0.00023963
0.000240707
0.00024181
0.000242884
0.000244019
0.000245095
0.00024627
0.000247355
0.00024856
0.000249669
0.000250872
0.000252018
0.000253195
0.000254354
0.000255501
0.000256623
0.000257716
0.000258756
0.000259748
0.000260673
0.000261528
0.000262311
0.000263006
0.000263654
0.000264174
0.000264715
0.000265102
0.000265626
0.000266343
0.000268684
0.000277186
0.000320818
0.0005985
0.000837782
0.000883906
0.000898699
0.000905983
0.000910721
0.000914416
0.000917352
0.000919474
0.000920972
0.000922458
0.000924651
0.000927947
0.000932183
0.000936743
0.000940862
0.000943945
0.000945774
0.000946531
0.000946666
0.000946619
0.000946128
0.000943607
0.000940627
0.00093774
0.000935203
0.000933136
0.000931567
0.000930463
0.000929768
0.000929403
0.000929273
0.000929266
0.000929291
0.000929288
0.00092926
0.000929205
0.000928936
0.000928566
0.000928092
0.000927538
0.000926914
0.000926238
0.000925513
0.000924753
0.000923954
0.00092313
0.000922271
0.000921389
0.000920471
0.000919526
0.000918539
0.000917514
0.000916435
0.0009153
0.000914084
0.000912778
0.000911344
0.000909762
0.000907991
0.000906021
0.000903836
0.000901468
0.000898952
0.000896341
0.00089367
0.000890964
0.000888239
0.000885507
0.000882776
0.000880051
0.000877337
0.000874637
0.000871953
0.00086929
0.00086665
0.000864035
0.000861449
0.000858891
0.000856364
0.000853864
0.000851391
0.000848939
0.000846508
0.000844093
0.000841693
0.000839307
0.000836937
0.000834582
0.000832247
0.000829937
0.000827655
0.000825406
0.000823191
0.000821009
0.000818854
0.00081672
0.0008146
0.000812491
0.000810388
0.000808288
0.000806188
0.000804087
0.000801985
0.000799892
0.00079782
0.000795791
0.00079383
0.000791966
0.00079022
0.000788608
0.000787136
0.000785799
0.000784586
0.000783478
0.000782456
0.000781498
0.000780583
0.000779689
0.000778796
0.000777881
0.000776918
0.000775882
0.000774746
0.000773482
0.000772068
0.000770483
0.000768717
0.000766766
0.000764636
0.000762342
0.000759907
0.00075736
0.000754734
0.000752065
0.000749387
0.000746732
0.000744129
0.000741599
0.000739159
0.00073682
0.000734589
0.000732464
0.000730441
0.000728515
0.000726674
0.000724909
0.000723206
0.000721555
0.000719944
0.000718363
0.000716804
0.000715258
0.000713719
0.000712184
0.000710648
0.00070911
0.000707568
0.000706022
0.000704473
0.000702921
0.000701367
0.000699813
0.000698259
0.000696709
0.000695161
0.000693619
0.000692083
0.000690554
0.000689032
0.000687519
0.000686015
0.00068452
0.000683035
0.000681561
0.000680096
0.000678643
0.000677199
0.000675767
0.000674345
0.000672935
0.000671535
0.000670146
0.000668769
0.000667402
0.000666047
0.000664702
0.000663368
0.000662044
0.000660731
0.000659428
0.000658136
0.000656854
0.000655582
0.00065432
0.000653069
0.000651828
0.000650599
0.00064938
0.000648172
0.000646974
0.000645787
0.000644609
0.000643441
0.000642281
0.00064113
0.000639987
0.00063885
0.000637721
0.000636599
0.000635484
0.000634376
0.000633276
0.000632183
0.000631099
0.000630022
0.000628955
0.000627896
0.000626846
0.000625802
0.000624766
0.000623735
0.000622709
0.000621685
0.000620664
0.000619645
0.000618628
0.000617615
0.000616606
0.000615606
0.000614617
0.000613644
0.000612692
0.000611765
0.000610869
0.000610008
0.000609186
0.000608407
0.000607671
0.000606982
0.000606338
0.000605739
0.000605181
0.000604663
0.000604179
0.000603723
0.000603288
0.000602867
0.00060245
0.00060203
0.000601595
0.000601137
0.000600644
0.000600109
0.00059952
0.000598871
0.000598154
0.000597366
0.000596502
0.000595562
0.000594546
0.000593459
0.000592303
0.00059109
0.000589824
0.000588518
0.000587181
0.000585824
0.000584458
0.000583094
0.000581739
0.000580403
0.000579093
0.000577813
0.000576568
0.00057536
0.000574191
0.000573061
0.000571968
0.000570911
0.000569887
0.000568894
0.000567928
0.000566986
0.000566065
0.00056516
0.00056427
0.000563391
0.00056252
0.000561656
0.000560796
0.000559939
0.000559083
0.000558229
0.000557374
0.000556518
0.000555662
0.000554805
0.000553947
0.000553089
0.00055223
0.000551372
0.000550514
0.000549657
0.000548801
0.000547947
0.000547095
0.000546246
0.000545399
0.000544555
0.000543715
0.000542878
0.000542046
0.000541217
0.000540393
0.000539573
0.000538757
0.000537946
0.00053714
0.000536339
0.000535542
0.00053475
0.000533964
0.000533182
0.000532405
0.000531633
0.000530866
0.000530104
0.000529347
0.000528595
0.000527848
0.000527106
0.00052637
0.000525639
0.000524912
0.000524191
0.000523475
0.000522764
0.000522058
0.000521357
0.000520661
0.000519969
0.000519282
0.000518599
0.00051792
0.000517246
0.000516575
0.000515909
0.000515246
0.000514587
0.000513932
0.000513281
0.000512634
0.00051199
0.00051135
0.000510713
0.00051008
0.00050945
0.000508824
0.0005082
0.000507579
0.00050696
0.000506344
0.00050573
0.000505118
0.000504509
0.000503903
0.000503301
0.000502702
0.000502109
0.000501522
0.000500942
0.000500371
0.000499811
0.000499262
0.000498728
0.000498209
0.000497707
0.000497224
0.000496759
0.000496316
0.000495893
0.000495492
0.000495112
0.000494753
0.000494414
0.000494093
0.000493789
0.0004935
0.000493223
0.000492955
0.000492693
0.000492433
0.000492172
0.000491906
0.00049163
0.000491341
0.000491034
0.000490705
0.000490351
0.000489968
0.000489554
0.000489106
0.000488621
0.0004881
0.000487541
0.000486944
0.000486311
0.000485642
0.000484941
0.00048421
0.000483453
0.000482673
0.000481874
0.00048106
0.000480237
0.000479407
0.000478576
0.000477747
0.000476924
0.000476109
0.000475305
0.000474515
0.00047374
0.000472981
0.000472239
0.000471514
0.000470806
0.000470115
0.000469441
0.000468781
0.000468136
0.000467505
0.000466885
0.000466276
0.000465676
0.000465084
0.000464499
0.00046392
0.000463346
0.000462776
0.000462208
0.000461643
0.00046108
0.000460518
0.000459956
0.000459395
0.000458835
0.000458274
0.000457714
0.000457153
0.000456593
0.000456032
0.000455472
0.000454912
0.000454353
0.000453794
0.000453237
0.00045268
0.000452125
0.00045157
0.000451018
0.000450466
0.000449917
0.00044937
0.000448825
0.000448281
0.000447741
0.000447203
0.000446668
0.000446134
0.000445604
0.000445076
0.000444551
0.000444028
0.000443509
0.000442993
0.000442479
0.000441969
0.000441461
0.000440957
0.000440455
0.000439957
0.000439462
0.000438969
0.00043848
0.000437994
0.000437511
0.000437031
0.000436554
0.00043608
0.000435609
0.00043514
0.000434675
0.000434212
0.000433752
0.000433295
0.000432841
0.000432389
0.000431939
0.000431492
0.000431048
0.000430606
0.000430166
0.000429729
0.000429293
0.00042886
0.000428429
0.000428
0.000427573
0.000427148
0.000426725
0.000426304
0.000425884
0.000425466
0.00042505
0.000424636
0.000424223
0.000423813
0.000423405
0.000422999
0.000422597
0.000422197
0.000421801
0.00042141
0.000421023
0.000420641
0.000420266
0.000419897
0.000419535
0.000419182
0.000418837
0.000418502
0.000418176
0.000417861
0.000417556
0.000417263
0.000416981
0.00041671
0.000416451
0.000416202
0.000415964
0.000415735
0.000415516
0.000415305
0.000415101
0.000414902
0.000414709
0.000414518
0.000414328
0.000414138
0.000413945
0.000413749
0.000413546
0.000413335
0.000413114
0.000412881
0.000412635
0.000412373
0.000412095
0.000411799
0.000411484
0.000411149
0.000410793
0.000410416
0.000410019
0.0004096
0.000409161
0.000408703
0.000408227
0.000407733
0.000407224
0.0004067
0.000406165
0.000405619
0.000405065
0.000404505
0.000403941
0.000403374
0.000402807
0.000402242
0.000401678
0.00040112
0.000400566
0.000400019
0.000399479
0.000398948
0.000398424
0.000397909
0.000397403
0.000396906
0.000396418
0.000395937
0.000395465
0.000395001
0.000394544
0.000394093
0.000393649
0.00039321
0.000392776
0.000392347
0.000391921
0.000391499
0.00039108
0.000390664
0.000390249
0.000389837
0.000389426
0.000389016
0.000388607
0.000388199
0.000387791
0.000387384
0.000386977
0.000386571
0.000386165
0.00038576
0.000385355
0.00038495
0.000384546
0.000384142
0.000383739
0.000383336
0.000382935
0.000382534
0.000382134
0.000381735
0.000381337
0.00038094
0.000380544
0.00038015
0.000379757
0.000379366
0.000378976
0.000378587
0.0003782
0.000377815
0.000377432
0.00037705
0.00037667
0.000376292
0.000375916
0.000375541
0.000375168
0.000374798
0.000374429
0.000374062
0.000373697
0.000373334
0.000372973
0.000372613
0.000372256
0.000371901
0.000371547
0.000371196
0.000370846
0.000370498
0.000370152
0.000369808
0.000369466
0.000369125
0.000368786
0.000368449
0.000368113
0.000367779
0.000367447
0.000367116
0.000366787
0.000366459
0.000366133
0.000365808
0.000365484
0.000365162
0.000364841
0.000364522
0.000364203
0.000363886
0.00036357
0.000363255
0.000362942
0.00036263
0.000362319
0.000362009
0.000361702
0.000361395
0.000361091
0.000360787
0.000360487
0.000360188
0.000359892
0.000359599
0.000359309
0.000359021
0.000358738
0.000358458
0.000358183
0.000357912
0.000357647
0.000357385
0.000357131
0.000356881
0.000356637
0.0003564
0.000356169
0.000355944
0.000355725
0.000355513
0.000355308
0.000355108
0.000354915
0.000354727
0.000354544
0.000354367
0.000354193
0.000354024
0.000353857
0.000353693
0.00035353
0.000353369
0.000353207
0.000353044
0.000352879
0.000352712
0.00035254
0.000352363
0.000352181
0.000351992
0.000351795
0.00035159
0.000351375
0.00035115
0.000350914
0.000350667
0.000350408
0.000350136
0.000349853
0.000349556
0.000349247
0.000348926
0.000348592
0.000348247
0.00034789
0.000347523
0.000347146
0.000346759
0.000346365
0.000345962
0.000345554
0.00034514
0.000344722
0.000344301
0.000343877
0.000343452
0.000343026
0.000342601
0.000342177
0.000341755
0.000341336
0.00034092
0.000340507
0.000340099
0.000339695
0.000339295
0.000338901
0.000338511
0.000338126
0.000337746
0.00033737
0.000337
0.000336633
0.000336271
0.000335913
0.000335559
0.000335208
0.00033486
0.000334515
0.000334173
0.000333833
0.000333496
0.00033316
0.000332826
0.000332494
0.000332163
0.000331832
0.000331503
0.000331175
0.000330847
0.00033052
0.000330194
0.000329868
0.000329542
0.000329216
0.000328891
0.000328567
0.000328242
0.000327918
0.000327594
0.00032727
0.000326947
0.000326624
0.000326302
0.00032598
0.000325659
0.000325338
0.000325017
0.000324698
0.000324379
0.00032406
0.000323743
0.000323426
0.00032311
0.000322794
0.00032248
0.000322166
0.000321854
0.000321542
0.000321232
0.000320922
0.000320613
0.000320306
0.000319999
0.000319694
0.00031939
0.000319086
0.000318784
0.000318483
0.000318183
0.000317884
0.000317587
0.00031729
0.000316994
0.000316699
0.000316407
0.000316114
0.000315823
0.000315532
0.000315244
0.000314955
0.000314668
0.000314382
0.000314097
0.000313813
0.00031353
0.000313247
0.000312966
0.000312685
0.000312406
0.000312127
0.000311849
0.000311571
0.000311295
0.00031102
0.000310745
0.000310471
0.000310197
0.000309925
0.000309653
0.000309382
0.000309112
0.000308843
0.000308575
0.000308308
0.000308042
0.000307777
0.000307514
0.000307251
0.000306991
0.000306731
0.000306474
0.000306218
0.000305964
0.000305713
0.000305464
0.000305217
0.000304974
0.000304732
0.000304495
0.000304259
0.000304028
0.0003038
0.000303576
0.000303355
0.000303139
0.000302926
0.000302718
0.000302514
0.000302313
0.000302117
0.000301926
0.000301738
0.000301555
0.000301375
0.000301201
0.000301028
0.000300862
0.000300697
0.000300538
0.000300379
0.000300228
0.000300075
0.00029993
0.000299782
0.000299645
0.0002995
0.00029937
0.000299228
0.000299105
0.000298967
0.00029885
0.000298715
0.000298604
0.000298473
0.000298369
0.000298242
0.000298144
0.000298021
0.000297929
0.000297809
0.000297724
0.000297607
0.000297527
0.000297413
0.000297337
0.000297225
0.000297152
0.000297042
0.000296969
0.000296862
0.000296787
0.000296681
0.000296605
0.0002965
0.000296423
0.000296316
0.000296238
0.000296131
0.000296053
0.000295946
0.000295868
0.000295761
0.000295683
0.000295578
0.000295499
0.000295393
0.000295311
0.000295197
0.000295097
0.000294948
0.000294783
0.000294514
0.000294133
0.000293476
0.000292417
0.000290607
0.000287683
0.000283103
0.000276641
0.000268647
0.000260552
0.000254011
0.000249812
0.000247539
0.000246402
0.000245881
0.000245542
)
;

boundaryField
{
    inlet
    {
        type            calculated;
        value           uniform 0.000236304;
    }
    outlet
    {
        type            calculated;
        value           uniform 0.000245523;
    }
    emptyWalls
    {
        type            empty;
    }
}


// ************************************************************************* //
