/*--------------------------------*- C++ -*----------------------------------*\
  =========                 |
  \\      /  F ield         | OpenFOAM: The Open Source CFD Toolbox
   \\    /   O peration     | Website:  https://openfoam.org
    \\  /    A nd           | Version:  9
     \\/     M anipulation  |
\*---------------------------------------------------------------------------*/
FoamFile
{
    format      ascii;
    class       surfaceScalarField;
    location    "24700";
    object      phia;
}
// * * * * * * * * * * * * * * * * * * * * * * * * * * * * * * * * * * * * * //

dimensions      [0 2 0 0 0 0 0];

internalField   nonuniform List<scalar> 
999
(
2.74877e-10
2.74873e-10
2.74872e-10
2.74853e-10
2.74845e-10
2.7481e-10
2.7479e-10
2.74741e-10
2.74712e-10
2.74658e-10
2.7461e-10
2.74563e-10
2.74488e-10
2.74444e-10
2.7436e-10
2.74302e-10
2.74229e-10
2.74154e-10
2.74082e-10
2.74003e-10
2.73922e-10
2.73845e-10
2.73768e-10
2.73702e-10
2.73631e-10
2.73589e-10
2.7352e-10
2.73493e-10
2.73442e-10
2.73403e-10
2.73359e-10
2.73201e-10
2.72671e-10
2.7054e-10
2.57738e-10
2.21404e-10
2.1436e-10
2.12403e-10
2.11496e-10
2.10953e-10
2.10605e-10
2.10356e-10
2.10116e-10
2.09841e-10
2.09585e-10
2.09469e-10
2.09593e-10
2.09971e-10
2.10514e-10
2.11073e-10
2.11509e-10
2.11736e-10
2.1175e-10
2.11616e-10
2.11425e-10
2.11211e-10
2.10766e-10
2.1001e-10
2.09287e-10
2.08623e-10
2.08054e-10
2.07595e-10
2.07244e-10
2.0699e-10
2.0682e-10
2.06715e-10
2.06655e-10
2.06616e-10
2.06591e-10
2.06566e-10
2.06541e-10
2.06503e-10
2.06437e-10
2.06361e-10
2.06273e-10
2.06179e-10
2.06079e-10
2.05978e-10
2.05876e-10
2.05774e-10
2.05674e-10
2.05577e-10
2.05482e-10
2.0539e-10
2.05302e-10
2.05217e-10
2.05135e-10
2.05057e-10
2.04982e-10
2.04911e-10
2.04843e-10
2.04779e-10
2.04719e-10
2.04664e-10
2.04613e-10
2.04569e-10
2.0453e-10
2.04496e-10
2.04464e-10
2.04433e-10
2.04403e-10
2.04374e-10
2.04347e-10
2.04321e-10
2.04296e-10
2.04272e-10
2.04249e-10
2.04227e-10
2.04206e-10
2.04186e-10
2.04168e-10
2.04153e-10
2.0414e-10
2.04129e-10
2.04121e-10
2.04114e-10
2.04109e-10
2.04104e-10
2.041e-10
2.04094e-10
2.04088e-10
2.04081e-10
2.04074e-10
2.04067e-10
2.0406e-10
2.04055e-10
2.04053e-10
2.04055e-10
2.0406e-10
2.04068e-10
2.04078e-10
2.04088e-10
2.04098e-10
2.04105e-10
2.0411e-10
2.04112e-10
2.0411e-10
2.04104e-10
2.04096e-10
2.04088e-10
2.04083e-10
2.04088e-10
2.04108e-10
2.0415e-10
2.04217e-10
2.04313e-10
2.04438e-10
2.04591e-10
2.04767e-10
2.04964e-10
2.05176e-10
2.05398e-10
2.05625e-10
2.05853e-10
2.06076e-10
2.0629e-10
2.06486e-10
2.06661e-10
2.06806e-10
2.06916e-10
2.06985e-10
2.0701e-10
2.06988e-10
2.0692e-10
2.06808e-10
2.06655e-10
2.06469e-10
2.06256e-10
2.06024e-10
2.05782e-10
2.05538e-10
2.053e-10
2.05073e-10
2.04863e-10
2.04673e-10
2.04505e-10
2.0436e-10
2.04238e-10
2.04138e-10
2.04058e-10
2.03994e-10
2.03946e-10
2.03909e-10
2.03882e-10
2.03861e-10
2.03844e-10
2.03829e-10
2.03814e-10
2.03799e-10
2.03781e-10
2.03761e-10
2.03738e-10
2.03711e-10
2.03682e-10
2.03649e-10
2.03613e-10
2.03575e-10
2.03535e-10
2.03493e-10
2.0345e-10
2.03406e-10
2.0336e-10
2.03315e-10
2.03269e-10
2.03223e-10
2.03177e-10
2.03132e-10
2.03087e-10
2.03042e-10
2.02998e-10
2.02955e-10
2.02913e-10
2.02872e-10
2.02831e-10
2.02791e-10
2.02753e-10
2.02715e-10
2.02679e-10
2.02643e-10
2.02609e-10
2.02576e-10
2.02543e-10
2.02512e-10
2.02482e-10
2.02453e-10
2.02425e-10
2.02398e-10
2.02372e-10
2.02347e-10
2.02323e-10
2.02301e-10
2.02279e-10
2.02259e-10
2.02241e-10
2.02224e-10
2.02208e-10
2.02193e-10
2.02179e-10
2.02166e-10
2.02154e-10
2.02143e-10
2.02132e-10
2.02122e-10
2.02112e-10
2.02103e-10
2.02094e-10
2.02086e-10
2.02078e-10
2.02072e-10
2.02066e-10
2.02061e-10
2.02058e-10
2.02055e-10
2.02053e-10
2.02052e-10
2.02051e-10
2.0205e-10
2.02049e-10
2.02048e-10
2.02046e-10
2.02043e-10
2.02039e-10
2.02036e-10
2.02033e-10
2.02031e-10
2.02032e-10
2.02038e-10
2.02049e-10
2.02067e-10
2.02093e-10
2.02129e-10
2.02176e-10
2.02235e-10
2.02306e-10
2.02389e-10
2.02485e-10
2.02593e-10
2.02712e-10
2.02841e-10
2.02979e-10
2.03123e-10
2.03271e-10
2.03422e-10
2.03572e-10
2.03719e-10
2.03859e-10
2.03989e-10
2.04107e-10
2.0421e-10
2.04295e-10
2.0436e-10
2.04403e-10
2.04422e-10
2.04417e-10
2.04388e-10
2.04335e-10
2.0426e-10
2.04164e-10
2.0405e-10
2.03921e-10
2.03778e-10
2.03627e-10
2.0347e-10
2.0331e-10
2.0315e-10
2.02993e-10
2.02841e-10
2.02697e-10
2.02562e-10
2.02436e-10
2.02321e-10
2.02216e-10
2.02122e-10
2.02039e-10
2.01965e-10
2.019e-10
2.01843e-10
2.01793e-10
2.01749e-10
2.0171e-10
2.01674e-10
2.01642e-10
2.01611e-10
2.01583e-10
2.01554e-10
2.01526e-10
2.01498e-10
2.01469e-10
2.01439e-10
2.01408e-10
2.01376e-10
2.01343e-10
2.01308e-10
2.01273e-10
2.01236e-10
2.01198e-10
2.01159e-10
2.0112e-10
2.0108e-10
2.01039e-10
2.00999e-10
2.00958e-10
2.00916e-10
2.00875e-10
2.00834e-10
2.00794e-10
2.00753e-10
2.00713e-10
2.00674e-10
2.00635e-10
2.00596e-10
2.00558e-10
2.00521e-10
2.00484e-10
2.00448e-10
2.00413e-10
2.00379e-10
2.00345e-10
2.00313e-10
2.00281e-10
2.00249e-10
2.00219e-10
2.0019e-10
2.00161e-10
2.00133e-10
2.00106e-10
2.00081e-10
2.00056e-10
2.00032e-10
2.00009e-10
1.99986e-10
1.99965e-10
1.99945e-10
1.99926e-10
1.99907e-10
1.99889e-10
1.99873e-10
1.99857e-10
1.99841e-10
1.99827e-10
1.99813e-10
1.99799e-10
1.99787e-10
1.99775e-10
1.99763e-10
1.99752e-10
1.99742e-10
1.99732e-10
1.99723e-10
1.99715e-10
1.99707e-10
1.99699e-10
1.99692e-10
1.99686e-10
1.99679e-10
1.99673e-10
1.99667e-10
1.99661e-10
1.99656e-10
1.9965e-10
1.99645e-10
1.99641e-10
1.99637e-10
1.99634e-10
1.99632e-10
1.99632e-10
1.99635e-10
1.9964e-10
1.99649e-10
1.99662e-10
1.99679e-10
1.99702e-10
1.9973e-10
1.99765e-10
1.99806e-10
1.99854e-10
1.99909e-10
1.99971e-10
2.00041e-10
2.00117e-10
2.002e-10
2.00288e-10
2.00382e-10
2.00481e-10
2.00583e-10
2.00687e-10
2.00792e-10
2.00898e-10
2.01001e-10
2.01102e-10
2.01198e-10
2.01288e-10
2.01371e-10
2.01444e-10
2.01507e-10
2.01559e-10
2.01599e-10
2.01625e-10
2.01638e-10
2.01636e-10
2.0162e-10
2.01589e-10
2.01545e-10
2.01488e-10
2.01419e-10
2.01338e-10
2.01248e-10
2.01149e-10
2.01044e-10
2.00933e-10
2.00818e-10
2.00701e-10
2.00584e-10
2.00467e-10
2.00352e-10
2.0024e-10
2.00132e-10
2.00028e-10
1.99929e-10
1.99836e-10
1.99749e-10
1.99667e-10
1.99592e-10
1.99521e-10
1.99456e-10
1.99396e-10
1.99341e-10
1.9929e-10
1.99242e-10
1.99198e-10
1.99156e-10
1.99117e-10
1.99079e-10
1.99043e-10
1.99009e-10
1.98974e-10
1.98941e-10
1.98907e-10
1.98874e-10
1.9884e-10
1.98807e-10
1.98772e-10
1.98738e-10
1.98703e-10
1.98667e-10
1.98631e-10
1.98594e-10
1.98557e-10
1.98519e-10
1.98481e-10
1.98443e-10
1.98405e-10
1.98366e-10
1.98327e-10
1.98289e-10
1.9825e-10
1.98211e-10
1.98173e-10
1.98135e-10
1.98097e-10
1.9806e-10
1.98022e-10
1.97986e-10
1.97949e-10
1.97914e-10
1.97879e-10
1.97844e-10
1.9781e-10
1.97777e-10
1.97744e-10
1.97712e-10
1.9768e-10
1.9765e-10
1.9762e-10
1.97591e-10
1.97562e-10
1.97534e-10
1.97507e-10
1.97481e-10
1.97456e-10
1.97431e-10
1.97407e-10
1.97384e-10
1.97362e-10
1.97341e-10
1.9732e-10
1.973e-10
1.9728e-10
1.97262e-10
1.97244e-10
1.97227e-10
1.9721e-10
1.97194e-10
1.97179e-10
1.97165e-10
1.97151e-10
1.97137e-10
1.97124e-10
1.97112e-10
1.971e-10
1.97089e-10
1.97078e-10
1.97068e-10
1.97058e-10
1.97048e-10
1.97039e-10
1.9703e-10
1.97022e-10
1.97014e-10
1.97006e-10
1.96999e-10
1.96992e-10
1.96985e-10
1.96979e-10
1.96974e-10
1.9697e-10
1.96966e-10
1.96963e-10
1.96962e-10
1.96962e-10
1.96964e-10
1.96968e-10
1.96974e-10
1.96983e-10
1.96995e-10
1.9701e-10
1.97028e-10
1.9705e-10
1.97076e-10
1.97106e-10
1.97141e-10
1.9718e-10
1.97223e-10
1.97271e-10
1.97323e-10
1.97379e-10
1.9744e-10
1.97504e-10
1.97572e-10
1.97642e-10
1.97716e-10
1.97791e-10
1.97867e-10
1.97944e-10
1.98022e-10
1.98098e-10
1.98173e-10
1.98245e-10
1.98314e-10
1.98379e-10
1.9844e-10
1.98494e-10
1.98543e-10
1.98584e-10
1.98618e-10
1.98643e-10
1.9866e-10
1.98668e-10
1.98667e-10
1.98656e-10
1.98637e-10
1.98608e-10
1.9857e-10
1.98524e-10
1.98469e-10
1.98407e-10
1.98339e-10
1.98264e-10
1.98184e-10
1.981e-10
1.98012e-10
1.97922e-10
1.97829e-10
1.97736e-10
1.97642e-10
1.97548e-10
1.97456e-10
1.97365e-10
1.97277e-10
1.97191e-10
1.97108e-10
1.97028e-10
1.96951e-10
1.96878e-10
1.96808e-10
1.96742e-10
1.96679e-10
1.96619e-10
1.96562e-10
1.96508e-10
1.96457e-10
1.96409e-10
1.96362e-10
1.96318e-10
1.96275e-10
1.96234e-10
1.96195e-10
1.96156e-10
1.96118e-10
1.96081e-10
1.96044e-10
1.96008e-10
1.95972e-10
1.95937e-10
1.95901e-10
1.95865e-10
1.9583e-10
1.95794e-10
1.95758e-10
1.95722e-10
1.95686e-10
1.95649e-10
1.95613e-10
1.95576e-10
1.9554e-10
1.95503e-10
1.95466e-10
1.95429e-10
1.95393e-10
1.95356e-10
1.95319e-10
1.95283e-10
1.95247e-10
1.95211e-10
1.95176e-10
1.9514e-10
1.95105e-10
1.95071e-10
1.95036e-10
1.95003e-10
1.94969e-10
1.94937e-10
1.94904e-10
1.94872e-10
1.94841e-10
1.9481e-10
1.9478e-10
1.94751e-10
1.94722e-10
1.94693e-10
1.94666e-10
1.94638e-10
1.94612e-10
1.94586e-10
1.94561e-10
1.94536e-10
1.94512e-10
1.94489e-10
1.94466e-10
1.94444e-10
1.94422e-10
1.94401e-10
1.94381e-10
1.94361e-10
1.94342e-10
1.94323e-10
1.94305e-10
1.94288e-10
1.94271e-10
1.94255e-10
1.94239e-10
1.94223e-10
1.94208e-10
1.94194e-10
1.9418e-10
1.94166e-10
1.94153e-10
1.9414e-10
1.94128e-10
1.94116e-10
1.94104e-10
1.94092e-10
1.94082e-10
1.94071e-10
1.94061e-10
1.94051e-10
1.94042e-10
1.94033e-10
1.94024e-10
1.94017e-10
1.94009e-10
1.94003e-10
1.93997e-10
1.93993e-10
1.93989e-10
1.93987e-10
1.93985e-10
1.93986e-10
1.93988e-10
1.93991e-10
1.93997e-10
1.94005e-10
1.94015e-10
1.94027e-10
1.94042e-10
1.94059e-10
1.9408e-10
1.94103e-10
1.94129e-10
1.94158e-10
1.9419e-10
1.94225e-10
1.94262e-10
1.94303e-10
1.94346e-10
1.94392e-10
1.94441e-10
1.94491e-10
1.94543e-10
1.94597e-10
1.94652e-10
1.94708e-10
1.94764e-10
1.94821e-10
1.94877e-10
1.94933e-10
1.94987e-10
1.95039e-10
1.95089e-10
1.95137e-10
1.95181e-10
1.95221e-10
1.95258e-10
1.9529e-10
1.95317e-10
1.95338e-10
1.95355e-10
1.95365e-10
1.95369e-10
1.95367e-10
1.95358e-10
1.95344e-10
1.95323e-10
1.95295e-10
1.95262e-10
1.95222e-10
1.95177e-10
1.95126e-10
1.95071e-10
1.95011e-10
1.94947e-10
1.94879e-10
1.94808e-10
1.94734e-10
1.94658e-10
1.94581e-10
1.94502e-10
1.94422e-10
1.94343e-10
1.94263e-10
1.94184e-10
1.94106e-10
1.94029e-10
1.93954e-10
1.9388e-10
1.93808e-10
1.93738e-10
1.9367e-10
1.93605e-10
1.93541e-10
1.9348e-10
1.93422e-10
1.93365e-10
1.9331e-10
1.93258e-10
1.93207e-10
1.93158e-10
1.9311e-10
1.93065e-10
1.9302e-10
1.92977e-10
1.92935e-10
1.92894e-10
1.92853e-10
1.92814e-10
1.92775e-10
1.92737e-10
1.92699e-10
1.92661e-10
1.92624e-10
1.92587e-10
1.9255e-10
1.92513e-10
1.92477e-10
1.9244e-10
1.92404e-10
1.92367e-10
1.92331e-10
1.92294e-10
1.92257e-10
1.92221e-10
1.92184e-10
1.92148e-10
1.92111e-10
1.92075e-10
1.92039e-10
1.92002e-10
1.91966e-10
1.9193e-10
1.91895e-10
1.91859e-10
1.91824e-10
1.91788e-10
1.91754e-10
1.91719e-10
1.91685e-10
1.91651e-10
1.91617e-10
1.91584e-10
1.91551e-10
1.91518e-10
1.91486e-10
1.91454e-10
1.91423e-10
1.91392e-10
1.91362e-10
1.91332e-10
1.91302e-10
1.91273e-10
1.91244e-10
1.91216e-10
1.91189e-10
1.91162e-10
1.91135e-10
1.91109e-10
1.91083e-10
1.91058e-10
1.91033e-10
1.91009e-10
1.90985e-10
1.90962e-10
1.90939e-10
1.90917e-10
1.90895e-10
1.90874e-10
1.90853e-10
1.90832e-10
1.90812e-10
1.90793e-10
1.90773e-10
1.90755e-10
1.90736e-10
1.90718e-10
1.907e-10
1.90683e-10
1.90666e-10
1.90649e-10
1.90633e-10
1.90617e-10
1.90602e-10
1.90587e-10
1.90572e-10
1.90557e-10
1.90544e-10
1.9053e-10
1.90517e-10
1.90505e-10
1.90493e-10
1.90481e-10
1.90471e-10
1.90461e-10
1.90451e-10
1.90443e-10
1.90436e-10
1.90429e-10
1.90424e-10
1.9042e-10
1.90417e-10
1.90415e-10
1.90415e-10
1.90417e-10
1.9042e-10
1.90425e-10
1.90431e-10
1.9044e-10
1.9045e-10
1.90462e-10
1.90477e-10
1.90493e-10
1.90512e-10
1.90532e-10
1.90555e-10
1.9058e-10
1.90607e-10
1.90635e-10
1.90666e-10
1.90698e-10
1.90732e-10
1.90768e-10
1.90805e-10
1.90843e-10
1.90882e-10
1.90922e-10
1.90963e-10
1.91004e-10
1.91045e-10
1.91086e-10
1.91127e-10
1.91168e-10
1.91207e-10
1.91246e-10
1.91283e-10
1.91319e-10
1.91352e-10
1.91384e-10
1.91414e-10
1.91441e-10
1.91465e-10
1.91487e-10
1.91505e-10
1.9152e-10
1.91531e-10
1.9154e-10
1.91544e-10
1.91545e-10
1.91542e-10
1.91536e-10
1.91526e-10
1.91512e-10
1.91494e-10
1.91473e-10
1.91449e-10
1.91421e-10
1.9139e-10
1.91356e-10
1.91319e-10
1.9128e-10
1.91239e-10
1.91196e-10
1.91151e-10
1.91104e-10
1.91057e-10
1.91008e-10
1.90959e-10
1.9091e-10
1.9086e-10
1.90811e-10
1.90762e-10
1.90713e-10
1.90664e-10
1.90615e-10
1.90566e-10
1.90516e-10
1.90461e-10
1.90399e-10
1.90322e-10
1.90218e-10
1.90066e-10
1.89836e-10
1.89485e-10
1.8897e-10
1.88287e-10
1.87511e-10
1.868e-10
1.86284e-10
1.85977e-10
1.8581e-10
1.8572e-10
1.85665e-10
)
;

boundaryField
{
    inlet
    {
        type            calculated;
        value           uniform -2.74882e-10;
    }
    outlet
    {
        type            calculated;
        value           uniform 1.85631e-10;
    }
    emptyWalls
    {
        type            empty;
        value           nonuniform List<scalar> 0();
    }
}


// ************************************************************************* //
