/*--------------------------------*- C++ -*----------------------------------*\
  =========                 |
  \\      /  F ield         | OpenFOAM: The Open Source CFD Toolbox
   \\    /   O peration     | Website:  https://openfoam.org
    \\  /    A nd           | Version:  9
     \\/     M anipulation  |
\*---------------------------------------------------------------------------*/
FoamFile
{
    format      ascii;
    class       volScalarField;
    location    "16150";
    object      p;
}
// * * * * * * * * * * * * * * * * * * * * * * * * * * * * * * * * * * * * * //

dimensions      [0 0 0 0 0 0 0];

internalField   nonuniform List<scalar> 
1000
(
207577
207153
206731
206312
205896
205483
205074
204667
204263
203862
203464
203069
202676
202286
201898
201512
201127
200745
200364
199984
199609
199250
198941
198787
198689
198601
198514
198429
198345
198261
198178
198095
198012
197929
197847
197765
197683
197601
197519
197437
197355
197273
197192
197110
197028
196947
196865
196783
196702
196620
196539
196457
196375
196293
196212
196130
196048
195966
195884
195801
195719
195636
195553
195470
195387
195303
195219
195134
195049
194964
194878
194792
194706
194619
194532
194444
194356
194268
194179
194090
194000
193911
193820
193730
193639
193547
193455
193363
193271
193178
193085
192991
192897
192803
192708
192613
192518
192422
192326
192229
192133
192035
191938
191840
191742
191644
191545
191446
191346
191246
191146
191046
190945
190844
190742
190640
190538
190435
190333
190229
190126
190022
189917
189812
189707
189602
189496
189390
189284
189177
189070
188963
188855
188747
188638
188530
188421
188311
188202
188092
187982
187871
187760
187649
187537
187425
187313
187201
187088
186975
186861
186747
186633
186519
186404
186289
186174
186058
185942
185826
185710
185593
185476
185358
185240
185122
185004
184885
184766
184647
184527
184407
184287
184167
184046
183925
183803
183682
183560
183437
183315
183192
183069
182945
182821
182697
182573
182448
182323
182198
182073
181947
181821
181695
181568
181441
181314
181186
181058
180930
180802
180673
180544
180415
180286
180156
180026
179896
179765
179634
179503
179371
179240
179108
178975
178843
178710
178577
178443
178310
178176
178042
177907
177772
177637
177502
177366
177231
177094
176958
176821
176684
176547
176410
176272
176134
175996
175858
175719
175580
175441
175301
175162
175022
174881
174741
174600
174459
174318
174176
174034
173892
173750
173607
173464
173321
173178
173034
172890
172746
172601
172456
172311
172166
172020
171874
171728
171581
171434
171287
171140
170992
170844
170696
170548
170399
170250
170101
169952
169802
169652
169502
169352
169201
169050
168899
168747
168595
168443
168291
168139
167986
167833
167679
167526
167372
167218
167064
166909
166754
166599
166444
166288
166132
165976
165820
165663
165506
165349
165192
165034
164876
164718
164560
164401
164242
164083
163923
163764
163604
163443
163283
163122
162961
162800
162639
162477
162315
162153
161990
161828
161665
161501
161338
161174
161010
160846
160682
160517
160352
160187
160021
159856
159690
159523
159357
159190
159023
158856
158689
158521
158353
158185
158017
157848
157679
157510
157340
157171
157001
156831
156660
156490
156319
156148
155976
155805
155633
155461
155289
155116
154943
154770
154597
154423
154249
154075
153901
153727
153552
153377
153202
153026
152851
152675
152499
152322
152145
151969
151792
151614
151437
151259
151081
150903
150724
150546
150367
150187
150008
149828
149649
149469
149288
149108
148927
148746
148565
148383
148201
148019
147837
147654
147472
147289
147105
146922
146738
146554
146370
146185
146000
145815
145630
145444
145258
145072
144886
144699
144513
144326
144138
143951
143763
143575
143386
143198
143009
142820
142631
142441
142251
142061
141871
141680
141490
141299
141107
140916
140724
140532
140340
140147
139954
139762
139568
139375
139181
138987
138793
138598
138404
138209
138014
137818
137622
137427
137230
137034
136837
136640
136443
136246
136048
135850
135652
135454
135255
135056
134857
134657
134458
134258
134058
133857
133657
133456
133255
133053
132852
132650
132448
132245
132043
131840
131637
131433
131230
131026
130822
130617
130413
130208
130003
129797
129592
129386
129180
128973
128767
128560
128353
128145
127938
127730
127522
127314
127105
126896
126687
126478
126268
126058
125848
125638
125427
125216
125005
124794
124582
124370
124158
123945
123733
123520
123307
123093
122880
122666
122452
122237
122022
121807
121592
121377
121161
120945
120729
120512
120296
120079
119861
119644
119426
119208
118990
118771
118553
118334
118114
117895
117675
117455
117235
117014
116793
116572
116351
116129
115908
115686
115463
115241
115018
114795
114571
114348
114124
113900
113675
113451
113226
113000
112775
112549
112323
112097
111870
111643
111416
111188
110961
110733
110504
110276
110047
109818
109588
109358
109128
108898
108667
108436
108205
107973
107742
107509
107277
107044
106811
106578
106345
106111
105877
105643
105408
105173
104939
104703
104468
104232
103997
103761
103525
103288
103052
102816
102579
102342
102106
101869
101632
101395
101158
100921
100684
100447
100210
99973
99735.8
99498.5
99261
99023.2
98784.9
98545.7
98305
98061.7
97814.6
97562
97302.8
97037.2
96766.3
96492.1
96216.1
95939.2
95661.8
95384.2
95106.6
94828.8
94551.1
94273.3
93995.5
93717.7
93439.9
93162.1
92884.3
92606.5
92328.7
92050.9
91773.1
91495.3
91217.4
90939.6
90661.8
90384
90106.2
89828.3
89550.5
89272.7
88994.8
88717
88439.2
88161.3
87883.5
87605.7
87327.8
87050
86772.1
86494.3
86216.5
85938.6
85660.8
85382.9
85105.1
84827.2
84549.4
84271.5
83993.7
83715.9
83438
83160.2
82882.3
82604.5
82326.6
82048.8
81771
81493.1
81215.3
80937.4
80659.6
80381.8
80103.9
79826.1
79548.3
79270.4
78992.6
78714.8
78437
78159.1
77881.3
77603.5
77325.7
77047.9
76770
76492.2
76214.4
75936.6
75658.8
75381
75103.2
74825.4
74547.6
74269.8
73992
73714.2
73436.5
73158.7
72880.9
72603.1
72325.4
72047.6
71769.9
71492.1
71214.4
70936.6
70658.9
70381.2
70103.5
69825.8
69548.1
69270.4
68992.7
68715.1
68437.4
68159.8
67882.1
67604.5
67326.9
67049.3
66771.7
66494.1
66216.6
65939
65661.5
65384
65106.5
64829
64551.5
64274.1
63996.6
63719.2
63441.7
63164.3
62886.9
62609.5
62332.2
62054.8
61777.4
61500.1
61222.7
60945.4
60668.1
60390.7
60113.4
59836.1
59558.8
59281.4
59004.1
58726.8
58449.5
58172.1
57894.8
57617.5
57340.1
57062.7
56785.4
56508
56230.6
55953.2
55675.8
55398.3
55120.9
54843.4
54566
54288.5
54011
53733.5
53456
53178.5
52900.9
52623.4
52345.8
52068.2
51790.6
51513.1
51235.4
50957.8
50680.2
50402.6
50125
49847.3
49569.7
49292
49014.3
48736.7
48459
48181.3
47903.6
47626
47348.3
47070.6
46792.9
46515.2
46237.5
45959.8
45682.1
45404.4
45126.6
44848.9
44571.2
44293.5
44015.8
43738
43460.3
43182.6
42904.8
42627.1
42349.4
42071.6
41793.9
41516.1
41238.4
40960.6
40682.9
40405.1
40127.3
39849.6
39571.8
39294
39016.3
38738.5
38460.7
38182.9
37905.2
37627.4
37349.6
37071.8
36794
36516.2
36238.4
35960.6
35682.8
35405
35127.2
34849.4
34571.6
34293.8
34016
33738.1
33460.3
33182.5
32904.7
32626.9
32349
32071.2
31793.4
31515.6
31237.7
30959.9
30682.1
30404.2
30126.4
29848.6
29570.7
29292.9
29015.1
28737.2
28459.4
28181.6
27903.7
27625.9
27348.1
27070.2
26792.4
26514.6
26236.7
25958.9
25681.1
25403.2
25125.4
24847.6
24569.7
24291.9
24014.1
23736.2
23458.4
23180.6
22902.7
22624.9
22347.1
22069.3
21791.4
21513.6
21235.8
20958
20680.2
20402.4
20124.6
19846.7
19568.9
19291.1
19013.3
18735.5
18457.7
18179.9
17902.1
17624.4
17346.6
17068.8
16791
16513.2
16235.5
15957.7
15679.9
15402.2
15124.4
14846.7
14568.9
14291.2
14013.5
13735.7
13458
13180.3
12902.6
12624.9
12347.2
12069.6
11791.9
11514.2
11236.6
10958.9
10681.3
10403.7
10126.1
9848.49
9570.91
9293.33
9015.77
8738.23
8460.69
8183.16
7905.65
7628.15
7350.66
7073.19
6795.72
6518.27
6240.83
5963.4
5685.97
5408.56
5131.16
4853.77
4576.38
4299.01
4021.63
3744.27
3466.91
3189.55
2912.2
2634.85
2357.5
2080.16
1802.81
1525.46
1248.11
970.76
693.407
416.048
138.685
)
;

boundaryField
{
    inlet
    {
        type            darcyGradPressure;
        gradient        uniform 116344;
        Mf              Mf;
        phi             phi;
        value           uniform 207791;
    }
    outlet
    {
        type            fixedValue;
        value           uniform 0;
    }
    emptyWalls
    {
        type            empty;
    }
}


// ************************************************************************* //
