/*--------------------------------*- C++ -*----------------------------------*\
  =========                 |
  \\      /  F ield         | OpenFOAM: The Open Source CFD Toolbox
   \\    /   O peration     | Website:  https://openfoam.org
    \\  /    A nd           | Version:  9
     \\/     M anipulation  |
\*---------------------------------------------------------------------------*/
FoamFile
{
    format      ascii;
    class       surfaceScalarField;
    location    "16150";
    object      phib;
}
// * * * * * * * * * * * * * * * * * * * * * * * * * * * * * * * * * * * * * //

dimensions      [0 2 0 0 0 0 0];

internalField   nonuniform List<scalar> 
999
(
1.13619e-09
1.13622e-09
1.13624e-09
1.13623e-09
1.1363e-09
1.13629e-09
1.13636e-09
1.13639e-09
1.13644e-09
1.13649e-09
1.13654e-09
1.13659e-09
1.13663e-09
1.13669e-09
1.13674e-09
1.13679e-09
1.13686e-09
1.13688e-09
1.13697e-09
1.1371e-09
1.13766e-09
1.14007e-09
1.15593e-09
1.17467e-09
1.17738e-09
1.17777e-09
1.17783e-09
1.17796e-09
1.17817e-09
1.17841e-09
1.17865e-09
1.17888e-09
1.17909e-09
1.17928e-09
1.17945e-09
1.17961e-09
1.17975e-09
1.17988e-09
1.17999e-09
1.18009e-09
1.18018e-09
1.18026e-09
1.18033e-09
1.18039e-09
1.18044e-09
1.18048e-09
1.18051e-09
1.18054e-09
1.18055e-09
1.18055e-09
1.18054e-09
1.18052e-09
1.18048e-09
1.18043e-09
1.18037e-09
1.18029e-09
1.18019e-09
1.18006e-09
1.1799e-09
1.17969e-09
1.17943e-09
1.1791e-09
1.17871e-09
1.17825e-09
1.17776e-09
1.17725e-09
1.17671e-09
1.17616e-09
1.17559e-09
1.17501e-09
1.17443e-09
1.17383e-09
1.17324e-09
1.17263e-09
1.17203e-09
1.17142e-09
1.17081e-09
1.1702e-09
1.16958e-09
1.16897e-09
1.16834e-09
1.16771e-09
1.16708e-09
1.16644e-09
1.16579e-09
1.16515e-09
1.1645e-09
1.16385e-09
1.16321e-09
1.16256e-09
1.16192e-09
1.16127e-09
1.16062e-09
1.15994e-09
1.15923e-09
1.15849e-09
1.15771e-09
1.1569e-09
1.15606e-09
1.15518e-09
1.15429e-09
1.15339e-09
1.15247e-09
1.15156e-09
1.15065e-09
1.14975e-09
1.14888e-09
1.14803e-09
1.14723e-09
1.14646e-09
1.14576e-09
1.14511e-09
1.14451e-09
1.14398e-09
1.1435e-09
1.14306e-09
1.14265e-09
1.14227e-09
1.14189e-09
1.14152e-09
1.14113e-09
1.14072e-09
1.14028e-09
1.13981e-09
1.1393e-09
1.13876e-09
1.13819e-09
1.13758e-09
1.13695e-09
1.1363e-09
1.13563e-09
1.13495e-09
1.13426e-09
1.13356e-09
1.13286e-09
1.13216e-09
1.13146e-09
1.13076e-09
1.13007e-09
1.12938e-09
1.12869e-09
1.12801e-09
1.12733e-09
1.12666e-09
1.12599e-09
1.12532e-09
1.12465e-09
1.12399e-09
1.12332e-09
1.12266e-09
1.12199e-09
1.12133e-09
1.12066e-09
1.12e-09
1.11933e-09
1.11866e-09
1.11799e-09
1.11732e-09
1.11664e-09
1.11597e-09
1.11529e-09
1.11461e-09
1.11394e-09
1.11325e-09
1.11257e-09
1.11188e-09
1.1112e-09
1.11051e-09
1.10982e-09
1.10913e-09
1.10843e-09
1.10774e-09
1.10704e-09
1.10634e-09
1.10564e-09
1.10493e-09
1.10423e-09
1.10352e-09
1.10281e-09
1.1021e-09
1.10139e-09
1.10067e-09
1.09996e-09
1.09924e-09
1.09852e-09
1.09779e-09
1.09707e-09
1.09634e-09
1.09562e-09
1.09489e-09
1.09415e-09
1.09342e-09
1.09268e-09
1.09195e-09
1.09121e-09
1.09047e-09
1.08972e-09
1.08898e-09
1.08823e-09
1.08749e-09
1.08674e-09
1.08599e-09
1.08524e-09
1.08449e-09
1.08374e-09
1.08299e-09
1.08223e-09
1.08148e-09
1.08072e-09
1.07996e-09
1.0792e-09
1.07844e-09
1.07768e-09
1.07692e-09
1.07615e-09
1.07539e-09
1.07462e-09
1.07385e-09
1.07309e-09
1.07231e-09
1.07154e-09
1.07076e-09
1.06997e-09
1.06918e-09
1.06838e-09
1.06757e-09
1.06675e-09
1.06592e-09
1.06507e-09
1.06422e-09
1.06335e-09
1.06247e-09
1.06158e-09
1.06068e-09
1.05977e-09
1.05885e-09
1.05793e-09
1.05701e-09
1.05609e-09
1.05517e-09
1.05426e-09
1.05336e-09
1.05247e-09
1.0516e-09
1.05074e-09
1.04991e-09
1.04909e-09
1.0483e-09
1.04754e-09
1.0468e-09
1.04608e-09
1.04538e-09
1.0447e-09
1.04404e-09
1.04339e-09
1.04276e-09
1.04213e-09
1.0415e-09
1.04087e-09
1.04024e-09
1.0396e-09
1.03896e-09
1.0383e-09
1.03763e-09
1.03695e-09
1.03626e-09
1.03555e-09
1.03483e-09
1.0341e-09
1.03335e-09
1.0326e-09
1.03183e-09
1.03106e-09
1.03028e-09
1.0295e-09
1.02871e-09
1.02792e-09
1.02712e-09
1.02632e-09
1.02553e-09
1.02473e-09
1.02393e-09
1.02313e-09
1.02233e-09
1.02153e-09
1.02073e-09
1.01994e-09
1.01914e-09
1.01834e-09
1.01755e-09
1.01675e-09
1.01596e-09
1.01516e-09
1.01437e-09
1.01357e-09
1.01278e-09
1.01198e-09
1.01119e-09
1.01039e-09
1.00959e-09
1.00879e-09
1.00799e-09
1.00719e-09
1.00639e-09
1.00559e-09
1.00478e-09
1.00397e-09
1.00317e-09
1.00236e-09
1.00155e-09
1.00073e-09
9.99921e-10
9.99105e-10
9.98288e-10
9.9747e-10
9.9665e-10
9.95828e-10
9.95004e-10
9.94179e-10
9.93352e-10
9.92524e-10
9.91693e-10
9.90861e-10
9.90028e-10
9.89192e-10
9.88355e-10
9.87517e-10
9.86676e-10
9.85834e-10
9.8499e-10
9.84144e-10
9.83297e-10
9.82448e-10
9.81597e-10
9.80744e-10
9.7989e-10
9.79033e-10
9.78176e-10
9.77316e-10
9.76455e-10
9.75591e-10
9.74727e-10
9.7386e-10
9.72992e-10
9.72123e-10
9.71251e-10
9.70378e-10
9.69504e-10
9.68628e-10
9.67751e-10
9.66872e-10
9.65992e-10
9.6511e-10
9.64227e-10
9.63342e-10
9.62456e-10
9.61569e-10
9.6068e-10
9.59789e-10
9.58897e-10
9.58004e-10
9.57109e-10
9.56213e-10
9.55315e-10
9.54416e-10
9.53515e-10
9.52612e-10
9.51707e-10
9.508e-10
9.49891e-10
9.48979e-10
9.48064e-10
9.47146e-10
9.46224e-10
9.45297e-10
9.44367e-10
9.43431e-10
9.4249e-10
9.41544e-10
9.40592e-10
9.39633e-10
9.38668e-10
9.37697e-10
9.36719e-10
9.35735e-10
9.34745e-10
9.33748e-10
9.32746e-10
9.31739e-10
9.30728e-10
9.29713e-10
9.28695e-10
9.27676e-10
9.26655e-10
9.25634e-10
9.24615e-10
9.23598e-10
9.22584e-10
9.21575e-10
9.20572e-10
9.19575e-10
9.18586e-10
9.17606e-10
9.16635e-10
9.15673e-10
9.14722e-10
9.1378e-10
9.12849e-10
9.11928e-10
9.11017e-10
9.10114e-10
9.09219e-10
9.08331e-10
9.07449e-10
9.06572e-10
9.05697e-10
9.04825e-10
9.03953e-10
9.03081e-10
9.02207e-10
9.0133e-10
9.00449e-10
8.99563e-10
8.98672e-10
8.97774e-10
8.96869e-10
8.95958e-10
8.9504e-10
8.94114e-10
8.93181e-10
8.92242e-10
8.91295e-10
8.90343e-10
8.89384e-10
8.88419e-10
8.8745e-10
8.86475e-10
8.85496e-10
8.84513e-10
8.83526e-10
8.82536e-10
8.81543e-10
8.80547e-10
8.79549e-10
8.78549e-10
8.77547e-10
8.76543e-10
8.75537e-10
8.7453e-10
8.73521e-10
8.7251e-10
8.71499e-10
8.70486e-10
8.69471e-10
8.68455e-10
8.67438e-10
8.66419e-10
8.65398e-10
8.64376e-10
8.63352e-10
8.62326e-10
8.61298e-10
8.60269e-10
8.59237e-10
8.58204e-10
8.57168e-10
8.5613e-10
8.5509e-10
8.54048e-10
8.53003e-10
8.51956e-10
8.50907e-10
8.49855e-10
8.488e-10
8.47743e-10
8.46683e-10
8.4562e-10
8.44555e-10
8.43487e-10
8.42417e-10
8.41343e-10
8.40267e-10
8.39188e-10
8.38106e-10
8.37021e-10
8.35933e-10
8.34842e-10
8.33748e-10
8.32651e-10
8.31551e-10
8.30447e-10
8.29341e-10
8.28232e-10
8.27119e-10
8.26004e-10
8.24885e-10
8.23762e-10
8.22637e-10
8.21508e-10
8.20376e-10
8.19241e-10
8.18102e-10
8.1696e-10
8.15815e-10
8.14666e-10
8.13514e-10
8.12359e-10
8.112e-10
8.10037e-10
8.08871e-10
8.07702e-10
8.06529e-10
8.05352e-10
8.04172e-10
8.02988e-10
8.01801e-10
8.0061e-10
7.99415e-10
7.98217e-10
7.97015e-10
7.9581e-10
7.946e-10
7.93387e-10
7.92171e-10
7.9095e-10
7.89725e-10
7.88497e-10
7.87265e-10
7.86028e-10
7.84788e-10
7.83544e-10
7.82296e-10
7.81043e-10
7.79786e-10
7.78525e-10
7.77259e-10
7.75989e-10
7.74714e-10
7.73434e-10
7.72149e-10
7.70859e-10
7.69564e-10
7.68264e-10
7.66958e-10
7.65646e-10
7.64328e-10
7.63004e-10
7.61674e-10
7.60337e-10
7.58994e-10
7.57644e-10
7.56287e-10
7.54923e-10
7.53551e-10
7.52173e-10
7.50787e-10
7.49394e-10
7.47993e-10
7.46586e-10
7.45171e-10
7.43749e-10
7.4232e-10
7.40884e-10
7.39442e-10
7.37994e-10
7.36539e-10
7.35079e-10
7.33613e-10
7.32143e-10
7.30667e-10
7.29187e-10
7.27704e-10
7.26216e-10
7.24726e-10
7.23232e-10
7.21737e-10
7.20239e-10
7.18739e-10
7.17237e-10
7.15734e-10
7.1423e-10
7.12725e-10
7.11219e-10
7.09712e-10
7.08204e-10
7.06695e-10
7.05185e-10
7.03673e-10
7.02161e-10
7.00646e-10
6.9913e-10
6.97611e-10
6.96089e-10
6.94565e-10
6.93038e-10
6.91507e-10
6.89973e-10
6.88437e-10
6.86897e-10
6.85353e-10
6.83808e-10
6.8226e-10
6.80712e-10
6.79165e-10
6.77619e-10
6.76077e-10
6.7454e-10
6.7301e-10
6.71493e-10
6.69989e-10
6.68504e-10
6.67041e-10
6.65605e-10
6.642e-10
6.62831e-10
6.61505e-10
6.60227e-10
6.59002e-10
6.57834e-10
6.56729e-10
6.5569e-10
6.54721e-10
6.53825e-10
6.53003e-10
6.52256e-10
6.51582e-10
6.5098e-10
6.50448e-10
6.49983e-10
6.4958e-10
6.49234e-10
6.48938e-10
6.48685e-10
6.48467e-10
6.48273e-10
6.48089e-10
6.47891e-10
6.47639e-10
6.47271e-10
6.46673e-10
6.4565e-10
6.43856e-10
6.4069e-10
6.35123e-10
6.25473e-10
6.09198e-10
5.83018e-10
5.43972e-10
4.91948e-10
4.32368e-10
3.75295e-10
3.2968e-10
2.98494e-10
2.79496e-10
2.68757e-10
2.62948e-10
2.59884e-10
2.58289e-10
2.57465e-10
2.57042e-10
2.56826e-10
2.56716e-10
2.56661e-10
2.56634e-10
2.56621e-10
2.56616e-10
2.56614e-10
2.56615e-10
2.56616e-10
2.56618e-10
2.5662e-10
2.56623e-10
2.56625e-10
2.56627e-10
2.56629e-10
2.56631e-10
2.56633e-10
2.56634e-10
2.56636e-10
2.56637e-10
2.56639e-10
2.5664e-10
2.56641e-10
2.56642e-10
2.56643e-10
2.56644e-10
2.56645e-10
2.56645e-10
2.56646e-10
2.56646e-10
2.56646e-10
2.56646e-10
2.56646e-10
2.56645e-10
2.56645e-10
2.56644e-10
2.56644e-10
2.56643e-10
2.56642e-10
2.56641e-10
2.5664e-10
2.56638e-10
2.56637e-10
2.56636e-10
2.56634e-10
2.56632e-10
2.5663e-10
2.56628e-10
2.56626e-10
2.56624e-10
2.56622e-10
2.5662e-10
2.56618e-10
2.56615e-10
2.56613e-10
2.5661e-10
2.56608e-10
2.56605e-10
2.56602e-10
2.566e-10
2.56597e-10
2.56594e-10
2.56591e-10
2.56588e-10
2.56585e-10
2.56581e-10
2.56578e-10
2.56575e-10
2.56571e-10
2.56567e-10
2.56563e-10
2.56559e-10
2.56555e-10
2.56551e-10
2.56546e-10
2.56542e-10
2.56537e-10
2.56531e-10
2.56526e-10
2.5652e-10
2.56514e-10
2.56507e-10
2.565e-10
2.56493e-10
2.56485e-10
2.56477e-10
2.56468e-10
2.56459e-10
2.5645e-10
2.5644e-10
2.5643e-10
2.56419e-10
2.56408e-10
2.56396e-10
2.56384e-10
2.56371e-10
2.56358e-10
2.56345e-10
2.56331e-10
2.56317e-10
2.56303e-10
2.56289e-10
2.56274e-10
2.5626e-10
2.56245e-10
2.5623e-10
2.56216e-10
2.56202e-10
2.56188e-10
2.56174e-10
2.5616e-10
2.56148e-10
2.56135e-10
2.56124e-10
2.56113e-10
2.56103e-10
2.56093e-10
2.56085e-10
2.56078e-10
2.56071e-10
2.56066e-10
2.56062e-10
2.56059e-10
2.56058e-10
2.56057e-10
2.56058e-10
2.56058e-10
2.56059e-10
2.56064e-10
2.56069e-10
2.56076e-10
2.56083e-10
2.56092e-10
2.56101e-10
2.56111e-10
2.56122e-10
2.56134e-10
2.56146e-10
2.56159e-10
2.56172e-10
2.56185e-10
2.56199e-10
2.56212e-10
2.56226e-10
2.5624e-10
2.56253e-10
2.56266e-10
2.56279e-10
2.56292e-10
2.56304e-10
2.56316e-10
2.56328e-10
2.56339e-10
2.56349e-10
2.56359e-10
2.56369e-10
2.56378e-10
2.56386e-10
2.56394e-10
2.56402e-10
2.56409e-10
2.56415e-10
2.56422e-10
2.56427e-10
2.56433e-10
2.56438e-10
2.56442e-10
2.56447e-10
2.56451e-10
2.56455e-10
2.56458e-10
2.56462e-10
2.56465e-10
2.56468e-10
2.56472e-10
2.56475e-10
2.56477e-10
2.5648e-10
2.56483e-10
2.56486e-10
2.56488e-10
2.56491e-10
2.56494e-10
2.56496e-10
2.56499e-10
2.56502e-10
2.56504e-10
2.56507e-10
2.5651e-10
2.56512e-10
2.56515e-10
2.56517e-10
2.5652e-10
2.56522e-10
2.56525e-10
2.56528e-10
2.5653e-10
2.56533e-10
2.56535e-10
2.56538e-10
2.56541e-10
2.56543e-10
2.56546e-10
2.56549e-10
2.56552e-10
2.56555e-10
2.56557e-10
2.5656e-10
2.56563e-10
2.56566e-10
2.56569e-10
2.56572e-10
2.56575e-10
2.56577e-10
2.5658e-10
2.56583e-10
2.56585e-10
2.56588e-10
2.5659e-10
2.56592e-10
2.56594e-10
2.56596e-10
2.56598e-10
2.566e-10
2.56602e-10
2.56603e-10
2.56604e-10
2.56606e-10
2.56607e-10
2.56608e-10
2.56609e-10
2.5661e-10
2.5661e-10
2.56611e-10
2.56612e-10
2.56612e-10
2.56612e-10
2.56612e-10
2.56612e-10
2.56612e-10
2.56612e-10
2.56612e-10
2.56612e-10
2.56612e-10
2.56611e-10
2.56611e-10
2.5661e-10
2.5661e-10
2.56609e-10
2.56608e-10
2.56607e-10
2.56606e-10
2.56605e-10
2.56604e-10
2.56603e-10
2.56602e-10
2.566e-10
2.56599e-10
2.56597e-10
2.56596e-10
2.56594e-10
2.56593e-10
2.56591e-10
2.56589e-10
2.56587e-10
2.56585e-10
2.56583e-10
2.56581e-10
2.56578e-10
2.56576e-10
2.56573e-10
2.56571e-10
2.56568e-10
2.56565e-10
2.56562e-10
2.56559e-10
2.56555e-10
2.56551e-10
2.56548e-10
2.56544e-10
2.56539e-10
2.56535e-10
2.5653e-10
2.56525e-10
2.56519e-10
2.56514e-10
2.56508e-10
2.56501e-10
2.56495e-10
2.56488e-10
2.5648e-10
2.56472e-10
2.56464e-10
2.56456e-10
2.56447e-10
2.56437e-10
2.56428e-10
2.56418e-10
2.56407e-10
2.56396e-10
2.56385e-10
2.56374e-10
2.56362e-10
2.5635e-10
2.56338e-10
2.56326e-10
2.56313e-10
2.563e-10
2.56287e-10
2.56275e-10
2.56262e-10
2.56249e-10
2.56236e-10
2.56223e-10
2.56211e-10
2.56199e-10
2.56187e-10
2.56175e-10
2.56165e-10
2.56154e-10
2.56144e-10
2.56135e-10
2.56126e-10
2.56118e-10
2.56111e-10
2.56105e-10
2.56099e-10
2.56095e-10
2.56091e-10
2.56089e-10
2.56087e-10
2.56087e-10
2.56086e-10
2.56087e-10
2.56088e-10
2.5609e-10
2.56093e-10
2.56098e-10
2.56103e-10
)
;

boundaryField
{
    inlet
    {
        type            calculated;
        value           uniform -1.13622e-09;
    }
    outlet
    {
        type            calculated;
        value           uniform 2.5611e-10;
    }
    emptyWalls
    {
        type            empty;
        value           nonuniform List<scalar> 0();
    }
}


// ************************************************************************* //
