/*--------------------------------*- C++ -*----------------------------------*\
  =========                 |
  \\      /  F ield         | OpenFOAM: The Open Source CFD Toolbox
   \\    /   O peration     | Website:  https://openfoam.org
    \\  /    A nd           | Version:  9
     \\/     M anipulation  |
\*---------------------------------------------------------------------------*/
FoamFile
{
    format      ascii;
    class       volScalarField;
    location    "22000";
    object      Fb;
}
// * * * * * * * * * * * * * * * * * * * * * * * * * * * * * * * * * * * * * //

dimensions      [0 0 0 0 0 0 0];

internalField   nonuniform List<scalar> 
1000
(
0.805237
0.805146
0.805261
0.805138
0.805286
0.805168
0.805289
0.805231
0.805284
0.805285
0.805305
0.805325
0.805354
0.805378
0.805414
0.805445
0.805477
0.805516
0.805535
0.8056
0.805572
0.805688
0.805598
0.805743
0.80564
0.805757
0.805702
0.805781
0.805832
0.806157
0.808356
0.824765
0.832682
0.834142
0.834688
0.834975
0.835162
0.835313
0.835446
0.835556
0.835629
0.835666
0.83569
0.835731
0.835802
0.835887
0.83594
0.835911
0.835764
0.835495
0.835135
0.834741
0.834373
0.834085
0.8339
0.833812
0.83379
0.833789
0.833792
0.833873
0.834158
0.834518
0.834862
0.835206
0.835513
0.835747
0.835948
0.836082
0.836162
0.836198
0.836196
0.836167
0.836114
0.836048
0.835973
0.835897
0.83582
0.835746
0.835673
0.835601
0.835524
0.83544
0.835343
0.835229
0.83509
0.834925
0.834732
0.834519
0.83429
0.834051
0.833804
0.833549
0.833289
0.833025
0.832756
0.832484
0.832208
0.831929
0.831648
0.831364
0.831077
0.830789
0.830498
0.830205
0.82991
0.829613
0.829314
0.829013
0.82871
0.828405
0.828098
0.827789
0.827479
0.827166
0.826852
0.826537
0.82622
0.825901
0.825581
0.825259
0.824935
0.824609
0.82428
0.82395
0.823618
0.823284
0.822949
0.822613
0.822276
0.821939
0.821602
0.821265
0.820927
0.820589
0.82025
0.81991
0.819567
0.819223
0.818877
0.818529
0.81818
0.81783
0.81748
0.81713
0.816781
0.816434
0.816088
0.815743
0.815399
0.815052
0.8147
0.814341
0.81397
0.813585
0.813184
0.812766
0.812332
0.811881
0.811415
0.810937
0.810449
0.809952
0.809451
0.808948
0.808446
0.807951
0.807464
0.806991
0.806536
0.806102
0.805692
0.80531
0.804957
0.804632
0.804335
0.804065
0.803817
0.803587
0.803372
0.803165
0.802962
0.802758
0.802548
0.80233
0.8021
0.801856
0.801598
0.801325
0.801037
0.800735
0.80042
0.800094
0.799758
0.799415
0.799066
0.798712
0.798354
0.797995
0.797636
0.797276
0.796917
0.796559
0.796203
0.795848
0.795496
0.795144
0.794794
0.794446
0.794099
0.793752
0.793406
0.793061
0.792716
0.792371
0.792026
0.791681
0.791335
0.790989
0.790642
0.790294
0.789946
0.789597
0.789248
0.788897
0.788546
0.788194
0.787841
0.787487
0.787132
0.786776
0.78642
0.786062
0.785703
0.785344
0.784983
0.784622
0.784259
0.783896
0.783532
0.783166
0.7828
0.782433
0.782065
0.781695
0.781325
0.780953
0.780581
0.780207
0.779832
0.779457
0.77908
0.778702
0.778323
0.777944
0.777563
0.777182
0.7768
0.776418
0.776035
0.775651
0.775267
0.774882
0.774496
0.77411
0.773723
0.773335
0.772946
0.772557
0.772167
0.771777
0.771387
0.770996
0.770605
0.770214
0.769823
0.769431
0.769039
0.768647
0.768253
0.767856
0.767458
0.767055
0.766649
0.766238
0.76582
0.765397
0.764967
0.764529
0.764084
0.763632
0.763172
0.762705
0.762231
0.761751
0.761267
0.760779
0.760288
0.759796
0.759304
0.758815
0.758329
0.757848
0.757375
0.756911
0.756457
0.756014
0.755584
0.755168
0.754766
0.754377
0.754003
0.753642
0.753293
0.752955
0.752627
0.752307
0.751992
0.751682
0.751374
0.751067
0.750758
0.750447
0.750132
0.749811
0.749485
0.749153
0.748814
0.748468
0.748115
0.747756
0.747391
0.74702
0.746644
0.746264
0.745879
0.745492
0.745102
0.744709
0.744315
0.74392
0.743524
0.743127
0.74273
0.742333
0.741937
0.74154
0.741145
0.740749
0.740354
0.739959
0.739565
0.739171
0.738777
0.738383
0.73799
0.737597
0.737203
0.73681
0.736416
0.736022
0.735627
0.735232
0.734837
0.734441
0.734045
0.733648
0.733251
0.732852
0.732454
0.732054
0.731654
0.731253
0.730851
0.730449
0.730045
0.729641
0.729236
0.728831
0.728424
0.728017
0.727608
0.727199
0.72679
0.726379
0.725967
0.725554
0.725141
0.724727
0.724311
0.723895
0.723478
0.72306
0.722641
0.722221
0.721801
0.721379
0.720957
0.720534
0.72011
0.719685
0.719259
0.718833
0.718406
0.717978
0.717549
0.71712
0.71669
0.71626
0.715828
0.715396
0.714964
0.714531
0.714097
0.713663
0.713228
0.712793
0.712357
0.711921
0.711484
0.711046
0.710608
0.71017
0.70973
0.709289
0.708847
0.708404
0.707959
0.707511
0.707062
0.70661
0.706155
0.705697
0.705235
0.70477
0.704301
0.703828
0.703351
0.702869
0.702383
0.701894
0.7014
0.700903
0.700403
0.699899
0.699393
0.698886
0.698377
0.697867
0.697358
0.696849
0.696342
0.695838
0.695336
0.694839
0.694346
0.693859
0.693378
0.692903
0.692435
0.691974
0.691521
0.691075
0.690637
0.690206
0.689782
0.689364
0.688952
0.688545
0.688143
0.687744
0.687348
0.686954
0.686561
0.686169
0.685776
0.685382
0.684986
0.684588
0.684187
0.683783
0.683376
0.682965
0.68255
0.682132
0.68171
0.681284
0.680855
0.680423
0.679988
0.679549
0.679109
0.678666
0.678221
0.677774
0.677325
0.676876
0.676425
0.675973
0.67552
0.675067
0.674613
0.674158
0.673703
0.673248
0.672793
0.672338
0.671882
0.671426
0.67097
0.670513
0.670057
0.6696
0.669143
0.668685
0.668227
0.667769
0.66731
0.666851
0.666391
0.66593
0.665469
0.665008
0.664545
0.664082
0.663619
0.663154
0.662689
0.662223
0.661756
0.661289
0.66082
0.660351
0.65988
0.659409
0.658937
0.658465
0.657991
0.657516
0.65704
0.656564
0.656086
0.655608
0.655128
0.654648
0.654166
0.653684
0.653201
0.652717
0.652231
0.651745
0.651258
0.65077
0.65028
0.64979
0.649299
0.648807
0.648314
0.64782
0.647326
0.64683
0.646333
0.645836
0.645337
0.644838
0.644338
0.643836
0.643335
0.642832
0.642328
0.641824
0.641319
0.640813
0.640306
0.639798
0.63929
0.638781
0.638271
0.63776
0.637248
0.636735
0.636222
0.635707
0.635192
0.634675
0.634157
0.633638
0.633117
0.632594
0.63207
0.631544
0.631017
0.630487
0.629954
0.62942
0.628883
0.628343
0.627801
0.627256
0.626708
0.626158
0.625604
0.625048
0.624489
0.623928
0.623364
0.622798
0.62223
0.62166
0.621088
0.620515
0.619941
0.619366
0.618791
0.618215
0.61764
0.617066
0.616493
0.615921
0.615351
0.614783
0.614217
0.613654
0.613095
0.612538
0.611985
0.611436
0.61089
0.610348
0.60981
0.609276
0.608744
0.608217
0.607692
0.60717
0.606651
0.606134
0.605618
0.605104
0.604592
0.604079
0.603567
0.603054
0.602541
0.602027
0.601512
0.600995
0.600476
0.599955
0.599432
0.598906
0.598378
0.597847
0.597314
0.596777
0.596239
0.595697
0.595153
0.594606
0.594057
0.593506
0.592952
0.592396
0.591839
0.591279
0.590717
0.590154
0.589589
0.589023
0.588455
0.587886
0.587316
0.586745
0.586172
0.585598
0.585023
0.584447
0.583871
0.583293
0.582714
0.582134
0.581553
0.580971
0.580388
0.579804
0.579219
0.578633
0.578045
0.577457
0.576867
0.576277
0.575685
0.575092
0.574497
0.573902
0.573305
0.572707
0.572107
0.571506
0.570904
0.5703
0.569695
0.569088
0.56848
0.56787
0.567259
0.566646
0.566032
0.565416
0.564799
0.56418
0.56356
0.562937
0.562314
0.561688
0.561061
0.560433
0.559802
0.55917
0.558537
0.557901
0.557264
0.556625
0.555985
0.555342
0.554698
0.554053
0.553405
0.552756
0.552105
0.551452
0.550797
0.55014
0.549482
0.548822
0.54816
0.547497
0.546831
0.546164
0.545494
0.544823
0.54415
0.543476
0.542799
0.542121
0.54144
0.540758
0.540074
0.539388
0.5387
0.53801
0.537318
0.536623
0.535927
0.535229
0.534529
0.533826
0.533121
0.532414
0.531705
0.530993
0.530279
0.529562
0.528842
0.52812
0.527395
0.526667
0.525937
0.525203
0.524466
0.523726
0.522983
0.522237
0.521487
0.520735
0.519978
0.519219
0.518456
0.51769
0.51692
0.516147
0.515371
0.514591
0.513808
0.513023
0.512234
0.511442
0.510648
0.509851
0.509051
0.508249
0.507445
0.506638
0.50583
0.50502
0.504208
0.503395
0.502581
0.501765
0.500949
0.500132
0.499314
0.498495
0.497676
0.496857
0.496037
0.495217
0.494398
0.493578
0.492758
0.491938
0.491118
0.490298
0.489478
0.488658
0.487837
0.487017
0.486196
0.485375
0.484554
0.483733
0.482912
0.482091
0.48127
0.48045
0.479629
0.47881
0.477993
0.477177
0.476364
0.475555
0.474749
0.473948
0.473154
0.472368
0.47159
0.470823
0.470067
0.469326
0.468601
0.467894
0.467207
0.466541
0.4659
0.465284
0.464697
0.464139
0.463612
0.463118
0.462656
0.462228
0.461834
0.461474
0.461147
0.460853
0.46059
0.460357
0.460151
0.459971
0.459816
0.459684
0.459571
0.459477
0.459397
0.459331
0.459278
0.459234
0.459199
0.45917
0.459143
0.459116
0.459083
0.459036
0.458959
0.458825
0.458586
0.458156
0.457385
0.456005
0.453545
0.449204
0.441669
0.428967
0.408593
0.378465
0.339093
0.295582
0.255983
0.226086
0.206637
0.195206
0.188888
0.185515
0.183747
0.18283
0.182358
0.182115
0.181991
0.181928
0.181896
0.18188
0.181872
0.181869
0.181867
0.181867
0.181867
0.181868
0.181868
0.181869
0.181869
0.181869
0.181869
0.18187
0.18187
0.18187
0.18187
0.181869
0.181869
0.181869
0.181868
0.181868
0.181867
0.181866
0.181866
0.181865
0.181864
0.181863
0.181862
0.181861
0.18186
0.181858
0.181857
0.181856
0.181855
0.181853
0.181852
0.18185
0.181849
0.181847
0.181846
0.181844
0.181842
0.18184
0.181839
0.181837
0.181835
0.181833
0.181831
0.181829
0.181826
0.181824
0.181822
0.181819
0.181816
0.181814
0.181811
0.181808
0.181805
0.181801
0.181798
0.181794
0.18179
0.181786
0.181782
0.181777
0.181773
0.181768
0.181762
0.181757
0.181751
0.181746
0.181739
0.181733
0.181726
0.18172
0.181713
0.181705
0.181698
0.18169
0.181682
0.181674
0.181666
0.181658
0.18165
0.181642
0.181633
0.181625
0.181616
0.181608
0.1816
0.181592
0.181584
0.181576
0.18157
0.181561
0.181556
0.181547
0.181543
0.181534
0.181532
0.181522
)
;

boundaryField
{
    inlet
    {
        type            calculated;
        value           uniform 0.805169;
    }
    outlet
    {
        type            calculated;
        value           uniform 0.181524;
    }
    emptyWalls
    {
        type            empty;
    }
}


// ************************************************************************* //
