/*--------------------------------*- C++ -*----------------------------------*\
  =========                 |
  \\      /  F ield         | OpenFOAM: The Open Source CFD Toolbox
   \\    /   O peration     | Website:  https://openfoam.org
    \\  /    A nd           | Version:  9
     \\/     M anipulation  |
\*---------------------------------------------------------------------------*/
FoamFile
{
    format      ascii;
    class       volScalarField;
    location    "22000";
    object      p;
}
// * * * * * * * * * * * * * * * * * * * * * * * * * * * * * * * * * * * * * //

dimensions      [0 0 0 0 0 0 0];

internalField   nonuniform List<scalar> 
1000
(
182349
181924
181500
181079
180660
180243
179828
179416
179006
178597
178191
177788
177386
176987
176589
176194
175801
175410
175021
174633
174248
173863
173480
173098
172718
172338
171959
171581
171205
170837
170496
170251
170134
170042
169955
169869
169784
169699
169615
169531
169448
169364
169281
169199
169116
169033
168951
168868
168786
168704
168622
168540
168459
168377
168295
168214
168132
168050
167969
167887
167806
167725
167643
167562
167480
167398
167317
167235
167154
167072
166990
166909
166827
166745
166663
166582
166500
166418
166336
166254
166171
166089
166007
165924
165842
165759
165676
165592
165509
165425
165341
165257
165172
165087
165002
164916
164831
164744
164658
164571
164485
164397
164310
164222
164134
164046
163957
163868
163779
163690
163600
163510
163419
163329
163238
163147
163055
162964
162872
162779
162687
162594
162501
162408
162314
162220
162126
162032
161937
161842
161747
161651
161556
161460
161363
161267
161170
161073
160976
160878
160780
160682
160584
160485
160387
160287
160188
160088
159989
159888
159788
159687
159587
159485
159384
159282
159181
159078
158976
158874
158771
158668
158564
158461
158357
158253
158149
158044
157940
157835
157730
157624
157519
157413
157307
157200
157094
156987
156880
156772
156665
156557
156449
156340
156232
156123
156014
155904
155795
155685
155575
155465
155354
155243
155132
155021
154909
154798
154686
154574
154461
154348
154236
154122
154009
153896
153782
153668
153553
153439
153324
153209
153094
152979
152863
152747
152631
152515
152398
152281
152165
152047
151930
151812
151694
151576
151458
151339
151220
151101
150982
150863
150743
150623
150503
150383
150262
150141
150020
149899
149778
149656
149534
149412
149290
149167
149045
148922
148799
148675
148552
148428
148304
148179
148055
147930
147805
147680
147555
147430
147304
147178
147052
146925
146799
146672
146545
146418
146290
146163
146035
145907
145779
145650
145522
145393
145264
145134
145005
144875
144745
144615
144485
144354
144224
144093
143962
143830
143699
143567
143435
143303
143171
143038
142906
142773
142640
142507
142373
142239
142106
141972
141837
141703
141568
141434
141299
141164
141028
140893
140757
140621
140485
140348
140212
140075
139938
139801
139663
139525
139388
139250
139111
138973
138834
138695
138556
138417
138277
138137
137997
137857
137717
137576
137436
137295
137154
137012
136871
136729
136587
136445
136303
136160
136017
135875
135731
135588
135445
135301
135157
135013
134869
134724
134580
134435
134290
134144
133999
133853
133707
133561
133415
133269
133122
132975
132828
132681
132534
132386
132238
132090
131942
131794
131645
131496
131348
131198
131049
130900
130750
130600
130450
130300
130149
129998
129848
129696
129545
129394
129242
129090
128938
128786
128634
128481
128329
128176
128022
127869
127716
127562
127408
127254
127100
126945
126791
126636
126481
126326
126170
126015
125859
125703
125547
125391
125234
125078
124921
124764
124606
124449
124291
124134
123976
123818
123659
123501
123342
123183
123024
122865
122705
122546
122386
122226
122066
121906
121745
121585
121424
121263
121102
120940
120779
120617
120455
120293
120131
119968
119806
119643
119480
119317
119154
118991
118827
118663
118499
118335
118171
118006
117842
117677
117512
117346
117181
117015
116850
116684
116518
116351
116185
116018
115851
115684
115516
115349
115181
115013
114845
114677
114509
114340
114171
114002
113833
113663
113494
113324
113154
112984
112814
112643
112472
112302
112131
111959
111788
111616
111444
111273
111100
110928
110756
110583
110410
110237
110064
109890
109717
109543
109369
109195
109021
108846
108671
108496
108321
108146
107971
107795
107619
107443
107267
107091
106914
106738
106561
106384
106207
106029
105852
105674
105496
105318
105139
104961
104782
104603
104424
104245
104066
103886
103707
103527
103346
103166
102986
102805
102624
102443
102262
102081
101899
101717
101536
101353
101171
100989
100806
100623
100440
100257
100074
99890.4
99706.8
99522.9
99338.9
99154.7
98970.3
98785.7
98601
98416.1
98231
98045.7
97860.2
97674.6
97488.8
97302.8
97116.7
96930.3
96743.8
96557.2
96370.3
96183.2
95996
95808.6
95621.1
95433.3
95245.4
95057.3
94869.1
94680.6
94492
94303.2
94114.3
93925.1
93735.8
93546.3
93356.7
93166.9
92976.9
92786.7
92596.4
92405.9
92215.3
92024.4
91833.4
91642.3
91450.9
91259.4
91067.8
90875.9
90683.9
90491.8
90299.4
90106.9
89914.2
89721.4
89528.4
89335.2
89141.8
88948.3
88754.6
88560.7
88366.7
88172.4
87978
87783.4
87588.6
87393.7
87198.5
87003.2
86807.7
86612
86416.1
86220.1
86023.8
85827.4
85630.7
85433.9
85236.9
85039.7
84842.3
84644.7
84447
84249
84050.9
83852.5
83654
83455.3
83256.4
83057.3
82858.1
82658.6
82459
82259.1
82059.1
81858.9
81658.6
81458
81257.2
81056.3
80855.2
80653.9
80452.4
80250.7
80048.9
79846.9
79644.6
79442.2
79239.6
79036.9
78833.9
78630.8
78427.5
78224
78020.3
77816.4
77612.3
77408.1
77203.7
76999
76794.2
76589.3
76384.1
76178.7
75973.2
75767.5
75561.6
75355.5
75149.2
74942.7
74736.1
74529.2
74322.2
74115
73907.6
73700
73492.3
73284.3
73076.2
72867.8
72659.3
72450.6
72241.7
72032.6
71823.4
71613.9
71404.3
71194.5
70984.5
70774.3
70563.9
70353.3
70142.5
69931.6
69720.5
69509.1
69297.6
69085.9
68874.1
68662
68449.7
68237.3
68024.6
67811.8
67598.8
67385.6
67172.2
66958.6
66744.9
66530.9
66316.8
66102.5
65887.9
65673.2
65458.3
65243.2
65028
64812.5
64596.8
64381
64165
63948.7
63732.3
63515.7
63298.9
63081.9
62864.8
62647.4
62429.8
62212.1
61994.1
61776
61557.7
61339.2
61120.5
60901.6
60682.5
60463.2
60243.7
60024.1
59804.2
59584.2
59363.9
59143.5
58922.9
58702.1
58481
58259.8
58038.5
57816.9
57595.1
57373.1
57151
56928.7
56706.1
56483.4
56260.5
56037.4
55814.1
55590.6
55366.9
55143.1
54919
54694.8
54470.3
54245.7
54020.9
53795.9
53570.7
53345.3
53119.7
52893.9
52668
52441.8
52215.4
51988.9
51762.1
51535.2
51308
51080.6
50853.1
50625.3
50397.4
50169.2
49940.8
49712.2
49483.5
49254.5
49025.2
48795.8
48566.2
48336.3
48106.3
47876
47645.5
47414.8
47183.9
46952.8
46721.4
46489.8
46258
46026
45793.8
45561.4
45328.8
45095.9
44862.8
44629.6
44396.1
44162.4
43928.5
43694.5
43460.2
43225.7
42991.1
42756.3
42521.3
42286.1
42050.8
41815.3
41579.6
41343.9
41108
40871.9
40635.8
40399.5
40163.1
39926.7
39690.1
39453.5
39216.8
38980.1
38743.2
38506.4
38269.5
38032.5
37795.6
37558.6
37321.5
37084.5
36847.4
36610.4
36373.3
36136.2
35899
35661.9
35424.8
35187.6
34950.5
34713.3
34476
34238.7
34001.2
33763.5
33525.3
33286.4
33046.1
32803.6
32557.6
32306.5
32049.1
31785.1
31515.4
31241.8
30966.1
30689.3
30412
30134.5
29856.8
29579
29301.3
29023.5
28745.7
28467.8
28190
27912.2
27634.4
27356.6
27078.7
26800.9
26523.1
26245.2
25967.4
25689.6
25411.7
25133.9
24856.1
24578.2
24300.4
24022.6
23744.7
23466.9
23189.1
22911.2
22633.4
22355.5
22077.7
21799.9
21522
21244.2
20966.3
20688.5
20410.7
20132.8
19855
19577.2
19299.3
19021.5
18743.7
18465.8
18188
17910.2
17632.3
17354.5
17076.7
16798.9
16521
16243.2
15965.4
15687.6
15409.8
15131.9
14854.1
14576.3
14298.5
14020.7
13742.9
13465.1
13187.3
12909.5
12631.7
12353.9
12076.1
11798.4
11520.6
11242.8
10965.1
10687.3
10409.5
10131.8
9854.04
9576.3
9298.57
9020.85
8743.13
8465.42
8187.72
7910.02
7632.34
7354.66
7077
6799.34
6521.69
6244.05
5966.42
5688.81
5411.2
5133.6
4856.02
4578.44
4300.88
4023.33
3745.79
3468.26
3190.74
2913.24
2635.74
2358.25
2080.78
1803.31
1525.86
1248.41
970.971
693.542
416.12
138.705
)
;

boundaryField
{
    inlet
    {
        type            darcyGradPressure;
        gradient        uniform 116344;
        Mf              Mf;
        phi             phi;
        value           uniform 182563;
    }
    outlet
    {
        type            fixedValue;
        value           uniform 0;
    }
    emptyWalls
    {
        type            empty;
    }
}


// ************************************************************************* //
