/*--------------------------------*- C++ -*----------------------------------*\
  =========                 |
  \\      /  F ield         | OpenFOAM: The Open Source CFD Toolbox
   \\    /   O peration     | Website:  https://openfoam.org
    \\  /    A nd           | Version:  9
     \\/     M anipulation  |
\*---------------------------------------------------------------------------*/
FoamFile
{
    format      ascii;
    class       surfaceScalarField;
    location    "22350";
    object      phib;
}
// * * * * * * * * * * * * * * * * * * * * * * * * * * * * * * * * * * * * * //

dimensions      [0 2 0 0 0 0 0];

internalField   nonuniform List<scalar> 
999
(
1.13623e-09
1.13624e-09
1.13624e-09
1.13625e-09
1.13625e-09
1.13626e-09
1.13628e-09
1.1363e-09
1.13633e-09
1.13634e-09
1.13639e-09
1.1364e-09
1.13646e-09
1.13649e-09
1.13653e-09
1.13659e-09
1.13661e-09
1.13667e-09
1.1367e-09
1.13674e-09
1.13678e-09
1.13682e-09
1.13686e-09
1.13689e-09
1.13692e-09
1.13695e-09
1.13698e-09
1.13703e-09
1.13716e-09
1.13772e-09
1.1401e-09
1.15616e-09
1.17454e-09
1.17709e-09
1.17742e-09
1.17749e-09
1.17764e-09
1.17786e-09
1.17811e-09
1.17835e-09
1.17858e-09
1.17879e-09
1.17899e-09
1.17917e-09
1.17933e-09
1.17949e-09
1.17963e-09
1.17976e-09
1.17988e-09
1.17999e-09
1.18008e-09
1.18018e-09
1.18026e-09
1.18034e-09
1.1804e-09
1.18046e-09
1.18052e-09
1.18056e-09
1.1806e-09
1.18063e-09
1.18066e-09
1.18068e-09
1.18069e-09
1.1807e-09
1.1807e-09
1.1807e-09
1.18069e-09
1.18067e-09
1.18064e-09
1.18061e-09
1.18057e-09
1.18052e-09
1.18046e-09
1.1804e-09
1.18034e-09
1.18028e-09
1.18021e-09
1.18013e-09
1.18004e-09
1.17994e-09
1.17982e-09
1.17969e-09
1.17952e-09
1.17933e-09
1.1791e-09
1.17884e-09
1.17855e-09
1.17822e-09
1.17787e-09
1.1775e-09
1.17713e-09
1.17674e-09
1.17634e-09
1.17592e-09
1.17548e-09
1.17501e-09
1.1745e-09
1.17394e-09
1.17333e-09
1.17267e-09
1.17198e-09
1.17127e-09
1.17056e-09
1.16984e-09
1.16914e-09
1.16845e-09
1.16778e-09
1.16713e-09
1.16651e-09
1.16592e-09
1.16539e-09
1.16492e-09
1.1645e-09
1.16415e-09
1.16386e-09
1.16361e-09
1.16341e-09
1.16323e-09
1.16307e-09
1.1629e-09
1.16273e-09
1.16253e-09
1.16231e-09
1.16206e-09
1.16177e-09
1.16145e-09
1.1611e-09
1.16071e-09
1.1603e-09
1.15987e-09
1.15942e-09
1.15896e-09
1.15849e-09
1.15802e-09
1.15755e-09
1.15707e-09
1.1566e-09
1.15613e-09
1.15567e-09
1.15521e-09
1.15476e-09
1.15431e-09
1.15386e-09
1.15342e-09
1.15298e-09
1.15254e-09
1.1521e-09
1.15166e-09
1.15122e-09
1.15078e-09
1.15035e-09
1.14991e-09
1.14947e-09
1.14903e-09
1.14858e-09
1.14814e-09
1.14769e-09
1.14725e-09
1.1468e-09
1.14635e-09
1.1459e-09
1.14544e-09
1.14499e-09
1.14453e-09
1.14407e-09
1.14361e-09
1.14315e-09
1.14269e-09
1.14222e-09
1.14176e-09
1.14129e-09
1.14082e-09
1.14034e-09
1.13987e-09
1.13939e-09
1.13892e-09
1.13844e-09
1.13796e-09
1.13748e-09
1.13699e-09
1.13651e-09
1.13602e-09
1.13553e-09
1.13504e-09
1.13454e-09
1.13405e-09
1.13355e-09
1.13305e-09
1.13255e-09
1.13205e-09
1.13155e-09
1.13105e-09
1.13055e-09
1.13004e-09
1.12954e-09
1.12903e-09
1.12853e-09
1.12802e-09
1.12751e-09
1.127e-09
1.12649e-09
1.12598e-09
1.12546e-09
1.12495e-09
1.12443e-09
1.12391e-09
1.1234e-09
1.12288e-09
1.12237e-09
1.12186e-09
1.12134e-09
1.12083e-09
1.12031e-09
1.11979e-09
1.11926e-09
1.11872e-09
1.11817e-09
1.11761e-09
1.11703e-09
1.11644e-09
1.11584e-09
1.11522e-09
1.11458e-09
1.11393e-09
1.11327e-09
1.1126e-09
1.11192e-09
1.11124e-09
1.11055e-09
1.10986e-09
1.10918e-09
1.1085e-09
1.10784e-09
1.10719e-09
1.10656e-09
1.10595e-09
1.10536e-09
1.1048e-09
1.10427e-09
1.10377e-09
1.10329e-09
1.10284e-09
1.10242e-09
1.10201e-09
1.10163e-09
1.10125e-09
1.10089e-09
1.10053e-09
1.10017e-09
1.0998e-09
1.09944e-09
1.09906e-09
1.09867e-09
1.09827e-09
1.09786e-09
1.09743e-09
1.09699e-09
1.09653e-09
1.09607e-09
1.09559e-09
1.0951e-09
1.09461e-09
1.0941e-09
1.09359e-09
1.09308e-09
1.09256e-09
1.09204e-09
1.09152e-09
1.091e-09
1.09048e-09
1.08996e-09
1.08944e-09
1.08892e-09
1.0884e-09
1.08789e-09
1.08737e-09
1.08686e-09
1.08634e-09
1.08583e-09
1.08532e-09
1.08481e-09
1.0843e-09
1.08379e-09
1.08328e-09
1.08277e-09
1.08225e-09
1.08174e-09
1.08123e-09
1.08072e-09
1.0802e-09
1.07969e-09
1.07917e-09
1.07866e-09
1.07814e-09
1.07762e-09
1.0771e-09
1.07658e-09
1.07606e-09
1.07554e-09
1.07502e-09
1.07449e-09
1.07397e-09
1.07344e-09
1.07291e-09
1.07238e-09
1.07185e-09
1.07132e-09
1.07079e-09
1.07025e-09
1.06972e-09
1.06918e-09
1.06864e-09
1.0681e-09
1.06756e-09
1.06702e-09
1.06648e-09
1.06593e-09
1.06539e-09
1.06484e-09
1.06429e-09
1.06374e-09
1.06319e-09
1.06264e-09
1.06208e-09
1.06153e-09
1.06097e-09
1.06042e-09
1.05986e-09
1.0593e-09
1.05874e-09
1.05818e-09
1.05762e-09
1.05706e-09
1.0565e-09
1.05593e-09
1.05537e-09
1.0548e-09
1.05424e-09
1.05367e-09
1.0531e-09
1.05253e-09
1.05196e-09
1.05139e-09
1.05082e-09
1.05025e-09
1.04968e-09
1.04911e-09
1.04854e-09
1.04796e-09
1.04739e-09
1.04681e-09
1.04623e-09
1.04564e-09
1.04506e-09
1.04446e-09
1.04386e-09
1.04326e-09
1.04264e-09
1.04203e-09
1.0414e-09
1.04076e-09
1.04012e-09
1.03947e-09
1.03881e-09
1.03815e-09
1.03748e-09
1.0368e-09
1.03612e-09
1.03543e-09
1.03475e-09
1.03406e-09
1.03337e-09
1.03268e-09
1.032e-09
1.03132e-09
1.03065e-09
1.02998e-09
1.02933e-09
1.02869e-09
1.02806e-09
1.02744e-09
1.02684e-09
1.02625e-09
1.02567e-09
1.02511e-09
1.02457e-09
1.02403e-09
1.02351e-09
1.023e-09
1.0225e-09
1.02201e-09
1.02152e-09
1.02103e-09
1.02055e-09
1.02007e-09
1.01959e-09
1.0191e-09
1.01862e-09
1.01812e-09
1.01763e-09
1.01712e-09
1.01661e-09
1.01609e-09
1.01557e-09
1.01504e-09
1.0145e-09
1.01396e-09
1.01341e-09
1.01285e-09
1.01229e-09
1.01173e-09
1.01116e-09
1.01059e-09
1.01002e-09
1.00944e-09
1.00886e-09
1.00828e-09
1.0077e-09
1.00712e-09
1.00654e-09
1.00595e-09
1.00537e-09
1.00479e-09
1.00421e-09
1.00363e-09
1.00304e-09
1.00246e-09
1.00188e-09
1.0013e-09
1.00072e-09
1.00013e-09
9.99552e-10
9.9897e-10
9.98388e-10
9.97805e-10
9.97222e-10
9.96639e-10
9.96055e-10
9.9547e-10
9.94885e-10
9.94299e-10
9.93712e-10
9.93124e-10
9.92536e-10
9.91947e-10
9.91356e-10
9.90765e-10
9.90173e-10
9.8958e-10
9.88985e-10
9.8839e-10
9.87793e-10
9.87196e-10
9.86597e-10
9.85997e-10
9.85396e-10
9.84794e-10
9.84191e-10
9.83587e-10
9.82981e-10
9.82374e-10
9.81766e-10
9.81157e-10
9.80546e-10
9.79934e-10
9.79321e-10
9.78707e-10
9.78091e-10
9.77474e-10
9.76856e-10
9.76237e-10
9.75617e-10
9.74995e-10
9.74372e-10
9.73748e-10
9.73123e-10
9.72496e-10
9.71869e-10
9.7124e-10
9.7061e-10
9.6998e-10
9.69348e-10
9.68715e-10
9.68081e-10
9.67446e-10
9.6681e-10
9.66173e-10
9.65535e-10
9.64897e-10
9.64257e-10
9.63616e-10
9.62975e-10
9.62333e-10
9.61689e-10
9.61045e-10
9.60401e-10
9.59755e-10
9.59108e-10
9.5846e-10
9.57811e-10
9.5716e-10
9.56508e-10
9.55854e-10
9.55198e-10
9.5454e-10
9.53879e-10
9.53216e-10
9.52549e-10
9.51879e-10
9.51206e-10
9.50529e-10
9.49848e-10
9.49162e-10
9.48472e-10
9.47777e-10
9.47078e-10
9.46374e-10
9.45665e-10
9.44952e-10
9.44235e-10
9.43513e-10
9.42788e-10
9.42059e-10
9.41328e-10
9.40594e-10
9.39858e-10
9.39121e-10
9.38383e-10
9.37646e-10
9.3691e-10
9.36175e-10
9.35443e-10
9.34714e-10
9.3399e-10
9.3327e-10
9.32555e-10
9.31846e-10
9.31144e-10
9.30449e-10
9.29761e-10
9.29081e-10
9.28409e-10
9.27745e-10
9.27088e-10
9.26438e-10
9.25796e-10
9.2516e-10
9.24531e-10
9.23906e-10
9.23287e-10
9.22671e-10
9.22059e-10
9.21449e-10
9.2084e-10
9.20232e-10
9.19624e-10
9.19015e-10
9.18405e-10
9.17792e-10
9.17177e-10
9.16558e-10
9.15937e-10
9.15311e-10
9.14681e-10
9.14048e-10
9.1341e-10
9.12768e-10
9.12122e-10
9.11472e-10
9.10818e-10
9.1016e-10
9.09499e-10
9.08835e-10
9.08167e-10
9.07497e-10
9.06824e-10
9.0615e-10
9.05473e-10
9.04794e-10
9.04113e-10
9.03431e-10
9.02748e-10
9.02064e-10
9.01378e-10
9.00691e-10
9.00004e-10
8.99316e-10
8.98627e-10
8.97937e-10
8.97247e-10
8.96556e-10
8.95865e-10
8.95172e-10
8.94479e-10
8.93786e-10
8.93091e-10
8.92396e-10
8.917e-10
8.91003e-10
8.90305e-10
8.89606e-10
8.88907e-10
8.88206e-10
8.87504e-10
8.86801e-10
8.86097e-10
8.85392e-10
8.84686e-10
8.83978e-10
8.83269e-10
8.82559e-10
8.81848e-10
8.81135e-10
8.80421e-10
8.79705e-10
8.78989e-10
8.7827e-10
8.7755e-10
8.76829e-10
8.76107e-10
8.75382e-10
8.74657e-10
8.7393e-10
8.73201e-10
8.72471e-10
8.71739e-10
8.71006e-10
8.70271e-10
8.69535e-10
8.68797e-10
8.68057e-10
8.67316e-10
8.66573e-10
8.65829e-10
8.65083e-10
8.64336e-10
8.63587e-10
8.62836e-10
8.62084e-10
8.61331e-10
8.60575e-10
8.59819e-10
8.5906e-10
8.583e-10
8.57539e-10
8.56776e-10
8.56011e-10
8.55246e-10
8.54478e-10
8.53709e-10
8.52939e-10
8.52167e-10
8.51393e-10
8.50618e-10
8.49842e-10
8.49064e-10
8.48285e-10
8.47504e-10
8.46722e-10
8.45938e-10
8.45153e-10
8.44366e-10
8.43578e-10
8.42788e-10
8.41996e-10
8.41203e-10
8.40408e-10
8.3961e-10
8.38811e-10
8.3801e-10
8.37206e-10
8.364e-10
8.35591e-10
8.3478e-10
8.33966e-10
8.33149e-10
8.32329e-10
8.31506e-10
8.3068e-10
8.2985e-10
8.29016e-10
8.2818e-10
8.27339e-10
8.26495e-10
8.25647e-10
8.24796e-10
8.23941e-10
8.23083e-10
8.22221e-10
8.21355e-10
8.20487e-10
8.19616e-10
8.18741e-10
8.17865e-10
8.16986e-10
8.16105e-10
8.15223e-10
8.14339e-10
8.13454e-10
8.12568e-10
8.11682e-10
8.10797e-10
8.09912e-10
8.09027e-10
8.08144e-10
8.07262e-10
8.06382e-10
8.05505e-10
8.04629e-10
8.03757e-10
8.02887e-10
8.0202e-10
8.01157e-10
8.00296e-10
7.99439e-10
7.98585e-10
7.97734e-10
7.96885e-10
7.9604e-10
7.95197e-10
7.94356e-10
7.93517e-10
7.92679e-10
7.91843e-10
7.91007e-10
7.90172e-10
7.89336e-10
7.885e-10
7.87664e-10
7.86825e-10
7.85985e-10
7.85143e-10
7.84299e-10
7.83452e-10
7.82602e-10
7.81748e-10
7.80891e-10
7.80031e-10
7.79167e-10
7.78299e-10
7.77427e-10
7.76551e-10
7.75671e-10
7.74787e-10
7.73899e-10
7.73008e-10
7.72112e-10
7.71213e-10
7.7031e-10
7.69404e-10
7.68494e-10
7.6758e-10
7.66664e-10
7.65744e-10
7.64821e-10
7.63895e-10
7.62966e-10
7.62034e-10
7.611e-10
7.60162e-10
7.59222e-10
7.5828e-10
7.57334e-10
7.56386e-10
7.55436e-10
7.54482e-10
7.53527e-10
7.52568e-10
7.51607e-10
7.50644e-10
7.49678e-10
7.48709e-10
7.47737e-10
7.46763e-10
7.45786e-10
7.44806e-10
7.43823e-10
7.42838e-10
7.41849e-10
7.40858e-10
7.39864e-10
7.38866e-10
7.37866e-10
7.36862e-10
7.35855e-10
7.34845e-10
7.33832e-10
7.32815e-10
7.31796e-10
7.30772e-10
7.29746e-10
7.28716e-10
7.27682e-10
7.26645e-10
7.25604e-10
7.2456e-10
7.23512e-10
7.22461e-10
7.21405e-10
7.20346e-10
7.19284e-10
7.18218e-10
7.17147e-10
7.16073e-10
7.14995e-10
7.13914e-10
7.12828e-10
7.11738e-10
7.10645e-10
7.09548e-10
7.08447e-10
7.07341e-10
7.06232e-10
7.05119e-10
7.04002e-10
7.02881e-10
7.01756e-10
7.00627e-10
6.99494e-10
6.98358e-10
6.97217e-10
6.96073e-10
6.94926e-10
6.93774e-10
6.9262e-10
6.91462e-10
6.903e-10
6.89136e-10
6.87968e-10
6.86798e-10
6.85626e-10
6.84451e-10
6.83274e-10
6.82096e-10
6.80917e-10
6.79737e-10
6.78557e-10
6.77377e-10
6.76199e-10
6.75023e-10
6.7385e-10
6.72681e-10
6.71517e-10
6.7036e-10
6.6921e-10
6.68071e-10
6.66943e-10
6.65828e-10
6.64728e-10
6.63647e-10
6.62586e-10
6.61548e-10
6.60536e-10
6.59551e-10
6.58597e-10
6.57677e-10
6.56793e-10
6.55949e-10
6.55145e-10
6.54383e-10
6.53666e-10
6.52994e-10
6.52368e-10
6.51788e-10
6.51254e-10
6.50765e-10
6.5032e-10
6.49916e-10
6.49553e-10
6.49228e-10
6.48939e-10
6.48682e-10
6.48454e-10
6.48253e-10
6.48077e-10
6.47921e-10
6.47785e-10
6.47666e-10
6.47558e-10
6.47463e-10
6.47377e-10
6.47294e-10
6.47217e-10
6.47134e-10
6.47037e-10
6.46912e-10
6.46725e-10
6.46434e-10
6.45943e-10
6.45094e-10
6.43605e-10
6.40975e-10
6.36344e-10
6.28279e-10
6.14546e-10
5.92061e-10
5.57559e-10
5.09635e-10
4.51699e-10
3.92707e-10
3.42707e-10
3.06843e-10
2.84245e-10
2.71198e-10
2.64056e-10
2.60262e-10
2.5828e-10
2.57256e-10
2.5673e-10
2.56463e-10
2.56329e-10
2.56264e-10
2.56235e-10
2.56224e-10
2.56223e-10
2.56227e-10
2.56234e-10
2.56242e-10
2.56251e-10
2.5626e-10
2.5627e-10
2.5628e-10
2.5629e-10
2.56299e-10
2.56309e-10
2.56318e-10
2.56327e-10
2.56336e-10
2.56345e-10
2.56353e-10
2.56361e-10
2.56369e-10
2.56376e-10
2.56383e-10
2.5639e-10
2.56396e-10
2.56402e-10
2.56408e-10
2.56413e-10
2.56418e-10
2.56423e-10
2.56427e-10
2.56432e-10
2.56436e-10
2.5644e-10
2.56443e-10
2.56447e-10
2.5645e-10
2.56453e-10
2.56456e-10
2.56459e-10
2.56462e-10
2.56465e-10
2.56468e-10
2.5647e-10
2.56473e-10
2.56476e-10
2.56478e-10
2.56481e-10
2.56483e-10
2.56486e-10
2.56489e-10
2.56491e-10
2.56494e-10
2.56497e-10
2.56499e-10
2.56502e-10
2.56505e-10
2.56508e-10
2.5651e-10
2.56513e-10
2.56516e-10
2.56519e-10
2.56522e-10
2.56524e-10
2.56527e-10
2.5653e-10
2.56533e-10
2.56536e-10
2.56539e-10
2.56541e-10
2.56544e-10
2.56547e-10
2.5655e-10
2.56552e-10
2.56555e-10
2.56558e-10
2.5656e-10
2.56563e-10
2.56565e-10
2.56568e-10
2.5657e-10
2.56573e-10
2.56575e-10
2.56577e-10
2.56579e-10
2.56581e-10
2.56583e-10
2.56585e-10
)
;

boundaryField
{
    inlet
    {
        type            calculated;
        value           uniform -1.13622e-09;
    }
    outlet
    {
        type            calculated;
        value           uniform 2.56587e-10;
    }
    emptyWalls
    {
        type            empty;
        value           nonuniform List<scalar> 0();
    }
}


// ************************************************************************* //
