/*--------------------------------*- C++ -*----------------------------------*\
  =========                 |
  \\      /  F ield         | OpenFOAM: The Open Source CFD Toolbox
   \\    /   O peration     | Website:  https://openfoam.org
    \\  /    A nd           | Version:  9
     \\/     M anipulation  |
\*---------------------------------------------------------------------------*/
FoamFile
{
    format      ascii;
    class       surfaceScalarField;
    location    "22350";
    object      phic;
}
// * * * * * * * * * * * * * * * * * * * * * * * * * * * * * * * * * * * * * //

dimensions      [0 2 0 0 0 0 0];

internalField   nonuniform List<scalar> 
999
(
1.05396e-15
4.39702e-15
1.07715e-14
2.00187e-14
3.20789e-14
4.69389e-14
6.45988e-14
8.50648e-14
1.08327e-13
1.34366e-13
1.63102e-13
1.94443e-13
2.28183e-13
2.64085e-13
3.01779e-13
3.40787e-13
3.80578e-13
4.20429e-13
4.59689e-13
4.97591e-13
5.33524e-13
5.66959e-13
5.97555e-13
6.25173e-13
6.4993e-13
6.72534e-13
6.96058e-13
7.34628e-13
8.52403e-13
1.29051e-12
3.15236e-12
1.3636e-11
1.98106e-11
2.10625e-11
2.1568e-11
2.18573e-11
2.20636e-11
2.22308e-11
2.23763e-11
2.25081e-11
2.26306e-11
2.27462e-11
2.28564e-11
2.29625e-11
2.3065e-11
2.31645e-11
2.32613e-11
2.33558e-11
2.34482e-11
2.35387e-11
2.36275e-11
2.3715e-11
2.38012e-11
2.38863e-11
2.39705e-11
2.40541e-11
2.41371e-11
2.42198e-11
2.43024e-11
2.4385e-11
2.44677e-11
2.45508e-11
2.46345e-11
2.4719e-11
2.48044e-11
2.48922e-11
2.49821e-11
2.50736e-11
2.51667e-11
2.52617e-11
2.53585e-11
2.54576e-11
2.55592e-11
2.56637e-11
2.57715e-11
2.58831e-11
2.59992e-11
2.61205e-11
2.62483e-11
2.63841e-11
2.65301e-11
2.66892e-11
2.68653e-11
2.70631e-11
2.72878e-11
2.75436e-11
2.78329e-11
2.81542e-11
2.85024e-11
2.88713e-11
2.92554e-11
2.96511e-11
3.00555e-11
3.04669e-11
3.08837e-11
3.13048e-11
3.1729e-11
3.21557e-11
3.25843e-11
3.30144e-11
3.34462e-11
3.38795e-11
3.43146e-11
3.47514e-11
3.519e-11
3.56303e-11
3.60725e-11
3.65164e-11
3.69623e-11
3.74104e-11
3.78609e-11
3.83139e-11
3.87697e-11
3.92282e-11
3.96894e-11
4.01531e-11
4.0619e-11
4.10868e-11
4.15561e-11
4.20267e-11
4.24981e-11
4.29701e-11
4.34424e-11
4.3915e-11
4.43876e-11
4.48602e-11
4.53328e-11
4.58055e-11
4.62783e-11
4.67514e-11
4.72248e-11
4.76987e-11
4.81731e-11
4.86482e-11
4.91241e-11
4.96007e-11
5.00782e-11
5.05566e-11
5.10359e-11
5.15161e-11
5.19972e-11
5.24792e-11
5.29621e-11
5.34458e-11
5.39303e-11
5.44156e-11
5.49017e-11
5.53885e-11
5.5876e-11
5.63643e-11
5.68532e-11
5.73428e-11
5.78331e-11
5.8324e-11
5.88155e-11
5.93077e-11
5.98005e-11
6.02938e-11
6.07878e-11
6.12824e-11
6.17776e-11
6.22733e-11
6.27696e-11
6.32665e-11
6.37639e-11
6.42619e-11
6.47605e-11
6.52596e-11
6.57592e-11
6.62594e-11
6.67601e-11
6.72613e-11
6.7763e-11
6.82652e-11
6.8768e-11
6.92713e-11
6.9775e-11
7.02793e-11
7.0784e-11
7.12893e-11
7.1795e-11
7.23012e-11
7.28078e-11
7.33149e-11
7.38224e-11
7.43304e-11
7.48389e-11
7.53478e-11
7.58571e-11
7.6367e-11
7.68774e-11
7.73882e-11
7.78995e-11
7.84113e-11
7.89236e-11
7.94364e-11
7.99496e-11
8.04633e-11
8.09774e-11
8.14919e-11
8.20069e-11
8.25222e-11
8.3038e-11
8.35543e-11
8.4071e-11
8.45882e-11
8.51059e-11
8.56242e-11
8.6143e-11
8.66623e-11
8.7182e-11
8.77022e-11
8.82226e-11
8.87433e-11
8.9264e-11
8.97847e-11
9.03051e-11
9.08253e-11
9.1345e-11
9.18642e-11
9.23829e-11
9.29011e-11
9.34187e-11
9.39358e-11
9.44524e-11
9.49688e-11
9.54849e-11
9.60009e-11
9.65172e-11
9.70337e-11
9.75509e-11
9.80689e-11
9.8588e-11
9.91085e-11
9.96306e-11
1.00155e-10
1.00681e-10
1.01209e-10
1.0174e-10
1.02273e-10
1.02808e-10
1.03346e-10
1.03886e-10
1.04428e-10
1.04972e-10
1.05518e-10
1.06065e-10
1.06613e-10
1.07161e-10
1.0771e-10
1.08259e-10
1.08808e-10
1.09356e-10
1.09905e-10
1.10452e-10
1.11e-10
1.11546e-10
1.12093e-10
1.12638e-10
1.13184e-10
1.13729e-10
1.14274e-10
1.14819e-10
1.15364e-10
1.15908e-10
1.16454e-10
1.16999e-10
1.17545e-10
1.18091e-10
1.18638e-10
1.19185e-10
1.19732e-10
1.2028e-10
1.20829e-10
1.21379e-10
1.21928e-10
1.22479e-10
1.2303e-10
1.23582e-10
1.24134e-10
1.24686e-10
1.25239e-10
1.25793e-10
1.26347e-10
1.26902e-10
1.27457e-10
1.28012e-10
1.28568e-10
1.29124e-10
1.29681e-10
1.30238e-10
1.30795e-10
1.31353e-10
1.31912e-10
1.3247e-10
1.33029e-10
1.33589e-10
1.34148e-10
1.34709e-10
1.35269e-10
1.3583e-10
1.36391e-10
1.36953e-10
1.37515e-10
1.38077e-10
1.3864e-10
1.39203e-10
1.39766e-10
1.4033e-10
1.40894e-10
1.41458e-10
1.42023e-10
1.42588e-10
1.43153e-10
1.43719e-10
1.44285e-10
1.44851e-10
1.45418e-10
1.45985e-10
1.46552e-10
1.4712e-10
1.47688e-10
1.48257e-10
1.48825e-10
1.49394e-10
1.49964e-10
1.50534e-10
1.51104e-10
1.51674e-10
1.52245e-10
1.52816e-10
1.53388e-10
1.5396e-10
1.54532e-10
1.55105e-10
1.55678e-10
1.56252e-10
1.56825e-10
1.574e-10
1.57974e-10
1.58549e-10
1.59125e-10
1.597e-10
1.60277e-10
1.60853e-10
1.6143e-10
1.62008e-10
1.62586e-10
1.63164e-10
1.63742e-10
1.64321e-10
1.64899e-10
1.65478e-10
1.66057e-10
1.66635e-10
1.67213e-10
1.67791e-10
1.68369e-10
1.68946e-10
1.69523e-10
1.70099e-10
1.70674e-10
1.71249e-10
1.71823e-10
1.72397e-10
1.72971e-10
1.73544e-10
1.74116e-10
1.74689e-10
1.75262e-10
1.75835e-10
1.76408e-10
1.76982e-10
1.77557e-10
1.78132e-10
1.7871e-10
1.79288e-10
1.79869e-10
1.80451e-10
1.81036e-10
1.81622e-10
1.82212e-10
1.82803e-10
1.83397e-10
1.83994e-10
1.84593e-10
1.85195e-10
1.85799e-10
1.86405e-10
1.87013e-10
1.87623e-10
1.88234e-10
1.88846e-10
1.8946e-10
1.90074e-10
1.90688e-10
1.91303e-10
1.91918e-10
1.92533e-10
1.93148e-10
1.93763e-10
1.94377e-10
1.94991e-10
1.95605e-10
1.96218e-10
1.9683e-10
1.97443e-10
1.98055e-10
1.98667e-10
1.99278e-10
1.9989e-10
2.00502e-10
2.01113e-10
2.01725e-10
2.02337e-10
2.0295e-10
2.03563e-10
2.04176e-10
2.04789e-10
2.05403e-10
2.06018e-10
2.06633e-10
2.07249e-10
2.07866e-10
2.08483e-10
2.09101e-10
2.09719e-10
2.10338e-10
2.10958e-10
2.11578e-10
2.12199e-10
2.1282e-10
2.13442e-10
2.14065e-10
2.14688e-10
2.15312e-10
2.15936e-10
2.16561e-10
2.17186e-10
2.17812e-10
2.18438e-10
2.19065e-10
2.19693e-10
2.20321e-10
2.20949e-10
2.21578e-10
2.22207e-10
2.22837e-10
2.23467e-10
2.24098e-10
2.2473e-10
2.25361e-10
2.25993e-10
2.26626e-10
2.27259e-10
2.27893e-10
2.28527e-10
2.29161e-10
2.29796e-10
2.30431e-10
2.31067e-10
2.31703e-10
2.3234e-10
2.32977e-10
2.33614e-10
2.34252e-10
2.34891e-10
2.3553e-10
2.36169e-10
2.36809e-10
2.37449e-10
2.38089e-10
2.3873e-10
2.39372e-10
2.40014e-10
2.40656e-10
2.41299e-10
2.41943e-10
2.42586e-10
2.43231e-10
2.43876e-10
2.44521e-10
2.45167e-10
2.45813e-10
2.4646e-10
2.47107e-10
2.47755e-10
2.48403e-10
2.49052e-10
2.49702e-10
2.50352e-10
2.51002e-10
2.51653e-10
2.52305e-10
2.52957e-10
2.53609e-10
2.54263e-10
2.54916e-10
2.55571e-10
2.56225e-10
2.5688e-10
2.57536e-10
2.58192e-10
2.58848e-10
2.59505e-10
2.60161e-10
2.60818e-10
2.61475e-10
2.62132e-10
2.62789e-10
2.63446e-10
2.64102e-10
2.64759e-10
2.65415e-10
2.66071e-10
2.66726e-10
2.67381e-10
2.68036e-10
2.68691e-10
2.69345e-10
2.69999e-10
2.70653e-10
2.71307e-10
2.71961e-10
2.72615e-10
2.73269e-10
2.73924e-10
2.74579e-10
2.75235e-10
2.75892e-10
2.7655e-10
2.7721e-10
2.77871e-10
2.78534e-10
2.79198e-10
2.79865e-10
2.80534e-10
2.81205e-10
2.81879e-10
2.82556e-10
2.83235e-10
2.83917e-10
2.84602e-10
2.85289e-10
2.8598e-10
2.86673e-10
2.87368e-10
2.88067e-10
2.88767e-10
2.8947e-10
2.90175e-10
2.90881e-10
2.9159e-10
2.92299e-10
2.9301e-10
2.93722e-10
2.94435e-10
2.95148e-10
2.95862e-10
2.96577e-10
2.97292e-10
2.98006e-10
2.98721e-10
2.99437e-10
3.00152e-10
3.00867e-10
3.01582e-10
3.02297e-10
3.03012e-10
3.03727e-10
3.04442e-10
3.05157e-10
3.05873e-10
3.06588e-10
3.07304e-10
3.08021e-10
3.08738e-10
3.09455e-10
3.10174e-10
3.10892e-10
3.11612e-10
3.12332e-10
3.13053e-10
3.13775e-10
3.14497e-10
3.15221e-10
3.15945e-10
3.1667e-10
3.17397e-10
3.18124e-10
3.18852e-10
3.19581e-10
3.20312e-10
3.21043e-10
3.21775e-10
3.22508e-10
3.23242e-10
3.23977e-10
3.24713e-10
3.2545e-10
3.26188e-10
3.26927e-10
3.27667e-10
3.28407e-10
3.29149e-10
3.29891e-10
3.30635e-10
3.31379e-10
3.32125e-10
3.32871e-10
3.33618e-10
3.34366e-10
3.35115e-10
3.35864e-10
3.36615e-10
3.37367e-10
3.38119e-10
3.38872e-10
3.39626e-10
3.40381e-10
3.41137e-10
3.41894e-10
3.42652e-10
3.4341e-10
3.4417e-10
3.4493e-10
3.45692e-10
3.46454e-10
3.47217e-10
3.47981e-10
3.48746e-10
3.49511e-10
3.50278e-10
3.51046e-10
3.51814e-10
3.52584e-10
3.53354e-10
3.54126e-10
3.54898e-10
3.55671e-10
3.56445e-10
3.57221e-10
3.57997e-10
3.58774e-10
3.59552e-10
3.60331e-10
3.61112e-10
3.61893e-10
3.62675e-10
3.63459e-10
3.64243e-10
3.65028e-10
3.65815e-10
3.66603e-10
3.67391e-10
3.68181e-10
3.68972e-10
3.69764e-10
3.70558e-10
3.71352e-10
3.72147e-10
3.72944e-10
3.73742e-10
3.74541e-10
3.75341e-10
3.76141e-10
3.76944e-10
3.77747e-10
3.78551e-10
3.79356e-10
3.80162e-10
3.80969e-10
3.81776e-10
3.82585e-10
3.83394e-10
3.84204e-10
3.85015e-10
3.85826e-10
3.86638e-10
3.87451e-10
3.88264e-10
3.89077e-10
3.89891e-10
3.90706e-10
3.91521e-10
3.92336e-10
3.93152e-10
3.93968e-10
3.94785e-10
3.95603e-10
3.96421e-10
3.9724e-10
3.9806e-10
3.98881e-10
3.99702e-10
4.00525e-10
4.0135e-10
4.02175e-10
4.03003e-10
4.03832e-10
4.04663e-10
4.05497e-10
4.06332e-10
4.0717e-10
4.08011e-10
4.08855e-10
4.09701e-10
4.10551e-10
4.11404e-10
4.12261e-10
4.13121e-10
4.13984e-10
4.14852e-10
4.15723e-10
4.16598e-10
4.17477e-10
4.18359e-10
4.19246e-10
4.20136e-10
4.2103e-10
4.21928e-10
4.22829e-10
4.23734e-10
4.24642e-10
4.25553e-10
4.26467e-10
4.27384e-10
4.28304e-10
4.29226e-10
4.3015e-10
4.31077e-10
4.32005e-10
4.32936e-10
4.33868e-10
4.34802e-10
4.35738e-10
4.36675e-10
4.37614e-10
4.38554e-10
4.39495e-10
4.40438e-10
4.41382e-10
4.42328e-10
4.43275e-10
4.44223e-10
4.45172e-10
4.46124e-10
4.47076e-10
4.48031e-10
4.48987e-10
4.49945e-10
4.50904e-10
4.51866e-10
4.52829e-10
4.53795e-10
4.54762e-10
4.55732e-10
4.56704e-10
4.57678e-10
4.58654e-10
4.59633e-10
4.60614e-10
4.61598e-10
4.62584e-10
4.63573e-10
4.64564e-10
4.65558e-10
4.66555e-10
4.67554e-10
4.68556e-10
4.69561e-10
4.70569e-10
4.71579e-10
4.72592e-10
4.73608e-10
4.74627e-10
4.75649e-10
4.76673e-10
4.77701e-10
4.78731e-10
4.79764e-10
4.80801e-10
4.8184e-10
4.82882e-10
4.83927e-10
4.84976e-10
4.86027e-10
4.87081e-10
4.88138e-10
4.89199e-10
4.90262e-10
4.91329e-10
4.92398e-10
4.93471e-10
4.94547e-10
4.95626e-10
4.96709e-10
4.97794e-10
4.98883e-10
4.99975e-10
5.01071e-10
5.0217e-10
5.03272e-10
5.04377e-10
5.05486e-10
5.06598e-10
5.07713e-10
5.08832e-10
5.09955e-10
5.11081e-10
5.1221e-10
5.13342e-10
5.14479e-10
5.15618e-10
5.16761e-10
5.17908e-10
5.19058e-10
5.20211e-10
5.21368e-10
5.22528e-10
5.23691e-10
5.24858e-10
5.26028e-10
5.27201e-10
5.28377e-10
5.29556e-10
5.30738e-10
5.31923e-10
5.33111e-10
5.343e-10
5.35491e-10
5.36685e-10
5.3788e-10
5.39076e-10
5.40272e-10
5.41469e-10
5.42666e-10
5.43861e-10
5.45055e-10
5.46246e-10
5.47434e-10
5.48617e-10
5.49795e-10
5.50964e-10
5.52125e-10
5.53276e-10
5.54413e-10
5.55537e-10
5.56644e-10
5.57732e-10
5.58797e-10
5.59838e-10
5.60852e-10
5.61836e-10
5.62787e-10
5.63702e-10
5.64578e-10
5.65413e-10
5.66204e-10
5.6695e-10
5.6765e-10
5.68301e-10
5.68903e-10
5.69456e-10
5.69959e-10
5.70416e-10
5.70825e-10
5.71189e-10
5.7151e-10
5.7179e-10
5.72032e-10
5.72238e-10
5.72413e-10
5.72559e-10
5.7268e-10
5.72776e-10
5.72852e-10
5.72911e-10
5.72954e-10
5.72987e-10
5.73012e-10
5.73028e-10
5.73046e-10
5.73065e-10
5.73101e-10
5.7317e-10
5.73298e-10
5.73541e-10
5.73986e-10
5.74798e-10
5.76268e-10
5.78902e-10
5.83579e-10
5.91758e-10
6.05711e-10
6.28566e-10
6.63618e-10
7.12242e-10
7.70901e-10
8.30477e-10
8.80852e-10
9.16916e-10
9.39615e-10
9.52716e-10
9.59892e-10
9.63712e-10
9.65718e-10
9.66768e-10
9.67321e-10
9.67618e-10
9.67785e-10
9.67886e-10
9.67953e-10
9.68004e-10
9.68047e-10
9.68087e-10
9.68125e-10
9.68163e-10
9.68202e-10
9.6824e-10
9.68279e-10
9.68317e-10
9.68356e-10
9.68394e-10
9.68432e-10
9.6847e-10
9.68506e-10
9.68542e-10
9.68577e-10
9.68612e-10
9.68645e-10
9.68677e-10
9.68707e-10
9.68737e-10
9.68766e-10
9.68793e-10
9.68819e-10
9.68844e-10
9.68868e-10
9.68891e-10
9.68913e-10
9.68934e-10
9.68954e-10
9.68973e-10
9.68991e-10
9.69009e-10
9.69026e-10
9.69042e-10
9.69058e-10
9.69073e-10
9.69088e-10
9.69102e-10
9.69116e-10
9.69129e-10
9.69143e-10
9.69156e-10
9.69169e-10
9.69182e-10
9.69194e-10
9.69207e-10
9.69219e-10
9.69231e-10
9.69244e-10
9.69256e-10
9.69268e-10
9.6928e-10
9.69292e-10
9.69305e-10
9.69317e-10
9.69329e-10
9.69341e-10
9.69353e-10
9.69365e-10
9.69376e-10
9.69388e-10
9.694e-10
9.69411e-10
9.69423e-10
9.69434e-10
9.69446e-10
9.69456e-10
9.69468e-10
9.69478e-10
9.69489e-10
9.69499e-10
9.69509e-10
9.69519e-10
9.69529e-10
9.69538e-10
9.69547e-10
9.69556e-10
9.69565e-10
9.69573e-10
9.69582e-10
9.69589e-10
9.69597e-10
9.69604e-10
9.69611e-10
9.69617e-10
)
;

boundaryField
{
    inlet
    {
        type            calculated;
        value           uniform 0;
    }
    outlet
    {
        type            calculated;
        value           uniform 9.69623e-10;
    }
    emptyWalls
    {
        type            empty;
        value           nonuniform List<scalar> 0();
    }
}


// ************************************************************************* //
