/*--------------------------------*- C++ -*----------------------------------*\
  =========                 |
  \\      /  F ield         | OpenFOAM: The Open Source CFD Toolbox
   \\    /   O peration     | Website:  https://openfoam.org
    \\  /    A nd           | Version:  9
     \\/     M anipulation  |
\*---------------------------------------------------------------------------*/
FoamFile
{
    format      ascii;
    class       volVectorField;
    location    "22350";
    object      Ua;
}
// * * * * * * * * * * * * * * * * * * * * * * * * * * * * * * * * * * * * * //

dimensions      [0 0 0 0 0 0 0];

internalField   nonuniform List<vector> 
1000
(
(2.74896e-06 0 0)
(2.74863e-06 0 0)
(2.74855e-06 0 0)
(2.74844e-06 0 0)
(2.74825e-06 0 0)
(2.74805e-06 0 0)
(2.74773e-06 0 0)
(2.74736e-06 0 0)
(2.74692e-06 0 0)
(2.74644e-06 0 0)
(2.74587e-06 0 0)
(2.74527e-06 0 0)
(2.74459e-06 0 0)
(2.7438e-06 0 0)
(2.74305e-06 0 0)
(2.74216e-06 0 0)
(2.74137e-06 0 0)
(2.74057e-06 0 0)
(2.73975e-06 0 0)
(2.73901e-06 0 0)
(2.73822e-06 0 0)
(2.73749e-06 0 0)
(2.73679e-06 0 0)
(2.73615e-06 0 0)
(2.73556e-06 0 0)
(2.73502e-06 0 0)
(2.7345e-06 0 0)
(2.73379e-06 0 0)
(2.73211e-06 0 0)
(2.72591e-06 0 0)
(2.69968e-06 0 0)
(2.54572e-06 0 0)
(2.29024e-06 0 0)
(2.14849e-06 0 0)
(2.12531e-06 0 0)
(2.11931e-06 0 0)
(2.11575e-06 0 0)
(2.11203e-06 0 0)
(2.10813e-06 0 0)
(2.10429e-06 0 0)
(2.10065e-06 0 0)
(2.09725e-06 0 0)
(2.09409e-06 0 0)
(2.09113e-06 0 0)
(2.08835e-06 0 0)
(2.08576e-06 0 0)
(2.08331e-06 0 0)
(2.08099e-06 0 0)
(2.07881e-06 0 0)
(2.07676e-06 0 0)
(2.07482e-06 0 0)
(2.07298e-06 0 0)
(2.07123e-06 0 0)
(2.06958e-06 0 0)
(2.06802e-06 0 0)
(2.06655e-06 0 0)
(2.06515e-06 0 0)
(2.06383e-06 0 0)
(2.06259e-06 0 0)
(2.06141e-06 0 0)
(2.06029e-06 0 0)
(2.05924e-06 0 0)
(2.05824e-06 0 0)
(2.05729e-06 0 0)
(2.05638e-06 0 0)
(2.05552e-06 0 0)
(2.05471e-06 0 0)
(2.05394e-06 0 0)
(2.05324e-06 0 0)
(2.0526e-06 0 0)
(2.05202e-06 0 0)
(2.0515e-06 0 0)
(2.05102e-06 0 0)
(2.05055e-06 0 0)
(2.0501e-06 0 0)
(2.04964e-06 0 0)
(2.04918e-06 0 0)
(2.04873e-06 0 0)
(2.04831e-06 0 0)
(2.04792e-06 0 0)
(2.0476e-06 0 0)
(2.04735e-06 0 0)
(2.04719e-06 0 0)
(2.04709e-06 0 0)
(2.04707e-06 0 0)
(2.04711e-06 0 0)
(2.04718e-06 0 0)
(2.04725e-06 0 0)
(2.04729e-06 0 0)
(2.04727e-06 0 0)
(2.0472e-06 0 0)
(2.04713e-06 0 0)
(2.04709e-06 0 0)
(2.04712e-06 0 0)
(2.04727e-06 0 0)
(2.04762e-06 0 0)
(2.04829e-06 0 0)
(2.04937e-06 0 0)
(2.05095e-06 0 0)
(2.05299e-06 0 0)
(2.05543e-06 0 0)
(2.05811e-06 0 0)
(2.06089e-06 0 0)
(2.06367e-06 0 0)
(2.06637e-06 0 0)
(2.06893e-06 0 0)
(2.07133e-06 0 0)
(2.07352e-06 0 0)
(2.07544e-06 0 0)
(2.07698e-06 0 0)
(2.07806e-06 0 0)
(2.07859e-06 0 0)
(2.07849e-06 0 0)
(2.07775e-06 0 0)
(2.07638e-06 0 0)
(2.07444e-06 0 0)
(2.07203e-06 0 0)
(2.06927e-06 0 0)
(2.06629e-06 0 0)
(2.06323e-06 0 0)
(2.06021e-06 0 0)
(2.05734e-06 0 0)
(2.0547e-06 0 0)
(2.05235e-06 0 0)
(2.05034e-06 0 0)
(2.04866e-06 0 0)
(2.04731e-06 0 0)
(2.04628e-06 0 0)
(2.04552e-06 0 0)
(2.045e-06 0 0)
(2.04466e-06 0 0)
(2.04447e-06 0 0)
(2.04437e-06 0 0)
(2.04433e-06 0 0)
(2.04431e-06 0 0)
(2.04428e-06 0 0)
(2.04424e-06 0 0)
(2.04415e-06 0 0)
(2.04401e-06 0 0)
(2.04382e-06 0 0)
(2.04357e-06 0 0)
(2.04328e-06 0 0)
(2.04294e-06 0 0)
(2.04256e-06 0 0)
(2.04214e-06 0 0)
(2.0417e-06 0 0)
(2.04123e-06 0 0)
(2.04075e-06 0 0)
(2.04026e-06 0 0)
(2.03976e-06 0 0)
(2.03926e-06 0 0)
(2.03875e-06 0 0)
(2.03825e-06 0 0)
(2.03775e-06 0 0)
(2.03726e-06 0 0)
(2.03678e-06 0 0)
(2.0363e-06 0 0)
(2.03583e-06 0 0)
(2.03537e-06 0 0)
(2.03492e-06 0 0)
(2.03448e-06 0 0)
(2.03405e-06 0 0)
(2.03363e-06 0 0)
(2.03323e-06 0 0)
(2.03283e-06 0 0)
(2.03244e-06 0 0)
(2.03207e-06 0 0)
(2.03171e-06 0 0)
(2.03136e-06 0 0)
(2.03102e-06 0 0)
(2.03069e-06 0 0)
(2.03038e-06 0 0)
(2.03008e-06 0 0)
(2.02979e-06 0 0)
(2.02951e-06 0 0)
(2.02924e-06 0 0)
(2.02898e-06 0 0)
(2.02874e-06 0 0)
(2.0285e-06 0 0)
(2.02828e-06 0 0)
(2.02808e-06 0 0)
(2.02788e-06 0 0)
(2.02771e-06 0 0)
(2.02755e-06 0 0)
(2.0274e-06 0 0)
(2.02727e-06 0 0)
(2.02715e-06 0 0)
(2.02704e-06 0 0)
(2.02694e-06 0 0)
(2.02684e-06 0 0)
(2.02675e-06 0 0)
(2.02667e-06 0 0)
(2.02658e-06 0 0)
(2.0265e-06 0 0)
(2.02642e-06 0 0)
(2.02634e-06 0 0)
(2.02626e-06 0 0)
(2.0262e-06 0 0)
(2.02614e-06 0 0)
(2.02609e-06 0 0)
(2.02605e-06 0 0)
(2.02603e-06 0 0)
(2.02601e-06 0 0)
(2.026e-06 0 0)
(2.02599e-06 0 0)
(2.02598e-06 0 0)
(2.02596e-06 0 0)
(2.02593e-06 0 0)
(2.02588e-06 0 0)
(2.02583e-06 0 0)
(2.02577e-06 0 0)
(2.02572e-06 0 0)
(2.02568e-06 0 0)
(2.02568e-06 0 0)
(2.02574e-06 0 0)
(2.02587e-06 0 0)
(2.02611e-06 0 0)
(2.02646e-06 0 0)
(2.02694e-06 0 0)
(2.02757e-06 0 0)
(2.02836e-06 0 0)
(2.0293e-06 0 0)
(2.0304e-06 0 0)
(2.03164e-06 0 0)
(2.03302e-06 0 0)
(2.03451e-06 0 0)
(2.0361e-06 0 0)
(2.03777e-06 0 0)
(2.03947e-06 0 0)
(2.04119e-06 0 0)
(2.04288e-06 0 0)
(2.0445e-06 0 0)
(2.04602e-06 0 0)
(2.04739e-06 0 0)
(2.04858e-06 0 0)
(2.04955e-06 0 0)
(2.05027e-06 0 0)
(2.05072e-06 0 0)
(2.05088e-06 0 0)
(2.05073e-06 0 0)
(2.05028e-06 0 0)
(2.04954e-06 0 0)
(2.04853e-06 0 0)
(2.04727e-06 0 0)
(2.0458e-06 0 0)
(2.04417e-06 0 0)
(2.0424e-06 0 0)
(2.04056e-06 0 0)
(2.03867e-06 0 0)
(2.03679e-06 0 0)
(2.03496e-06 0 0)
(2.0332e-06 0 0)
(2.03153e-06 0 0)
(2.02999e-06 0 0)
(2.02858e-06 0 0)
(2.02731e-06 0 0)
(2.02619e-06 0 0)
(2.0252e-06 0 0)
(2.02434e-06 0 0)
(2.02361e-06 0 0)
(2.02298e-06 0 0)
(2.02245e-06 0 0)
(2.022e-06 0 0)
(2.02161e-06 0 0)
(2.02127e-06 0 0)
(2.02098e-06 0 0)
(2.0207e-06 0 0)
(2.02045e-06 0 0)
(2.0202e-06 0 0)
(2.01995e-06 0 0)
(2.01969e-06 0 0)
(2.01942e-06 0 0)
(2.01913e-06 0 0)
(2.01883e-06 0 0)
(2.01851e-06 0 0)
(2.01818e-06 0 0)
(2.01782e-06 0 0)
(2.01745e-06 0 0)
(2.01707e-06 0 0)
(2.01667e-06 0 0)
(2.01626e-06 0 0)
(2.01584e-06 0 0)
(2.01541e-06 0 0)
(2.01498e-06 0 0)
(2.01455e-06 0 0)
(2.01411e-06 0 0)
(2.01367e-06 0 0)
(2.01323e-06 0 0)
(2.0128e-06 0 0)
(2.01236e-06 0 0)
(2.01193e-06 0 0)
(2.01151e-06 0 0)
(2.01109e-06 0 0)
(2.01067e-06 0 0)
(2.01026e-06 0 0)
(2.00986e-06 0 0)
(2.00947e-06 0 0)
(2.00908e-06 0 0)
(2.0087e-06 0 0)
(2.00832e-06 0 0)
(2.00796e-06 0 0)
(2.0076e-06 0 0)
(2.00725e-06 0 0)
(2.00691e-06 0 0)
(2.00658e-06 0 0)
(2.00626e-06 0 0)
(2.00594e-06 0 0)
(2.00563e-06 0 0)
(2.00533e-06 0 0)
(2.00504e-06 0 0)
(2.00476e-06 0 0)
(2.00449e-06 0 0)
(2.00423e-06 0 0)
(2.00398e-06 0 0)
(2.00374e-06 0 0)
(2.0035e-06 0 0)
(2.00328e-06 0 0)
(2.00307e-06 0 0)
(2.00287e-06 0 0)
(2.00267e-06 0 0)
(2.00249e-06 0 0)
(2.00231e-06 0 0)
(2.00215e-06 0 0)
(2.00199e-06 0 0)
(2.00184e-06 0 0)
(2.0017e-06 0 0)
(2.00156e-06 0 0)
(2.00143e-06 0 0)
(2.00131e-06 0 0)
(2.00119e-06 0 0)
(2.00107e-06 0 0)
(2.00097e-06 0 0)
(2.00086e-06 0 0)
(2.00077e-06 0 0)
(2.00067e-06 0 0)
(2.00059e-06 0 0)
(2.00051e-06 0 0)
(2.00043e-06 0 0)
(2.00036e-06 0 0)
(2.00029e-06 0 0)
(2.00022e-06 0 0)
(2.00015e-06 0 0)
(2.00009e-06 0 0)
(2.00002e-06 0 0)
(1.99996e-06 0 0)
(1.9999e-06 0 0)
(1.99984e-06 0 0)
(1.99978e-06 0 0)
(1.99974e-06 0 0)
(1.99971e-06 0 0)
(1.99969e-06 0 0)
(1.9997e-06 0 0)
(1.99975e-06 0 0)
(1.99983e-06 0 0)
(1.99996e-06 0 0)
(2.00014e-06 0 0)
(2.00038e-06 0 0)
(2.00069e-06 0 0)
(2.00107e-06 0 0)
(2.00153e-06 0 0)
(2.00208e-06 0 0)
(2.0027e-06 0 0)
(2.00341e-06 0 0)
(2.00421e-06 0 0)
(2.00508e-06 0 0)
(2.00602e-06 0 0)
(2.00703e-06 0 0)
(2.0081e-06 0 0)
(2.00921e-06 0 0)
(2.01035e-06 0 0)
(2.0115e-06 0 0)
(2.01266e-06 0 0)
(2.01381e-06 0 0)
(2.01492e-06 0 0)
(2.01597e-06 0 0)
(2.01696e-06 0 0)
(2.01785e-06 0 0)
(2.01864e-06 0 0)
(2.01931e-06 0 0)
(2.01984e-06 0 0)
(2.02022e-06 0 0)
(2.02044e-06 0 0)
(2.0205e-06 0 0)
(2.02039e-06 0 0)
(2.0201e-06 0 0)
(2.01966e-06 0 0)
(2.01905e-06 0 0)
(2.0183e-06 0 0)
(2.01741e-06 0 0)
(2.0164e-06 0 0)
(2.01529e-06 0 0)
(2.0141e-06 0 0)
(2.01284e-06 0 0)
(2.01154e-06 0 0)
(2.01022e-06 0 0)
(2.00889e-06 0 0)
(2.00757e-06 0 0)
(2.00628e-06 0 0)
(2.00503e-06 0 0)
(2.00384e-06 0 0)
(2.0027e-06 0 0)
(2.00163e-06 0 0)
(2.00063e-06 0 0)
(1.9997e-06 0 0)
(1.99884e-06 0 0)
(1.99806e-06 0 0)
(1.99734e-06 0 0)
(1.99668e-06 0 0)
(1.99609e-06 0 0)
(1.99555e-06 0 0)
(1.99505e-06 0 0)
(1.9946e-06 0 0)
(1.99418e-06 0 0)
(1.99378e-06 0 0)
(1.99342e-06 0 0)
(1.99307e-06 0 0)
(1.99273e-06 0 0)
(1.9924e-06 0 0)
(1.99208e-06 0 0)
(1.99176e-06 0 0)
(1.99143e-06 0 0)
(1.99111e-06 0 0)
(1.99078e-06 0 0)
(1.99044e-06 0 0)
(1.99009e-06 0 0)
(1.98974e-06 0 0)
(1.98938e-06 0 0)
(1.98901e-06 0 0)
(1.98864e-06 0 0)
(1.98826e-06 0 0)
(1.98787e-06 0 0)
(1.98748e-06 0 0)
(1.98708e-06 0 0)
(1.98668e-06 0 0)
(1.98627e-06 0 0)
(1.98587e-06 0 0)
(1.98546e-06 0 0)
(1.98505e-06 0 0)
(1.98464e-06 0 0)
(1.98424e-06 0 0)
(1.98383e-06 0 0)
(1.98343e-06 0 0)
(1.98303e-06 0 0)
(1.98263e-06 0 0)
(1.98224e-06 0 0)
(1.98185e-06 0 0)
(1.98147e-06 0 0)
(1.98109e-06 0 0)
(1.98071e-06 0 0)
(1.98035e-06 0 0)
(1.97999e-06 0 0)
(1.97963e-06 0 0)
(1.97928e-06 0 0)
(1.97894e-06 0 0)
(1.9786e-06 0 0)
(1.97827e-06 0 0)
(1.97795e-06 0 0)
(1.97764e-06 0 0)
(1.97733e-06 0 0)
(1.97703e-06 0 0)
(1.97674e-06 0 0)
(1.97645e-06 0 0)
(1.97617e-06 0 0)
(1.9759e-06 0 0)
(1.97564e-06 0 0)
(1.97539e-06 0 0)
(1.97515e-06 0 0)
(1.97491e-06 0 0)
(1.97468e-06 0 0)
(1.97446e-06 0 0)
(1.97425e-06 0 0)
(1.97404e-06 0 0)
(1.97384e-06 0 0)
(1.97365e-06 0 0)
(1.97347e-06 0 0)
(1.9733e-06 0 0)
(1.97313e-06 0 0)
(1.97297e-06 0 0)
(1.97281e-06 0 0)
(1.97266e-06 0 0)
(1.97252e-06 0 0)
(1.97238e-06 0 0)
(1.97225e-06 0 0)
(1.97212e-06 0 0)
(1.972e-06 0 0)
(1.97189e-06 0 0)
(1.97177e-06 0 0)
(1.97167e-06 0 0)
(1.97156e-06 0 0)
(1.97146e-06 0 0)
(1.97137e-06 0 0)
(1.97128e-06 0 0)
(1.97119e-06 0 0)
(1.9711e-06 0 0)
(1.97102e-06 0 0)
(1.97094e-06 0 0)
(1.97086e-06 0 0)
(1.97079e-06 0 0)
(1.97073e-06 0 0)
(1.97067e-06 0 0)
(1.97062e-06 0 0)
(1.97058e-06 0 0)
(1.97055e-06 0 0)
(1.97054e-06 0 0)
(1.97055e-06 0 0)
(1.97058e-06 0 0)
(1.97063e-06 0 0)
(1.97071e-06 0 0)
(1.97082e-06 0 0)
(1.97097e-06 0 0)
(1.97115e-06 0 0)
(1.97138e-06 0 0)
(1.97165e-06 0 0)
(1.97196e-06 0 0)
(1.97233e-06 0 0)
(1.97274e-06 0 0)
(1.9732e-06 0 0)
(1.97371e-06 0 0)
(1.97428e-06 0 0)
(1.97488e-06 0 0)
(1.97554e-06 0 0)
(1.97623e-06 0 0)
(1.97696e-06 0 0)
(1.97773e-06 0 0)
(1.97851e-06 0 0)
(1.97932e-06 0 0)
(1.98014e-06 0 0)
(1.98096e-06 0 0)
(1.98178e-06 0 0)
(1.98258e-06 0 0)
(1.98336e-06 0 0)
(1.98411e-06 0 0)
(1.98481e-06 0 0)
(1.98546e-06 0 0)
(1.98604e-06 0 0)
(1.98656e-06 0 0)
(1.987e-06 0 0)
(1.98735e-06 0 0)
(1.98761e-06 0 0)
(1.98777e-06 0 0)
(1.98783e-06 0 0)
(1.98779e-06 0 0)
(1.98764e-06 0 0)
(1.98738e-06 0 0)
(1.98703e-06 0 0)
(1.98657e-06 0 0)
(1.98601e-06 0 0)
(1.98537e-06 0 0)
(1.98465e-06 0 0)
(1.98385e-06 0 0)
(1.98299e-06 0 0)
(1.98207e-06 0 0)
(1.98111e-06 0 0)
(1.98011e-06 0 0)
(1.97909e-06 0 0)
(1.97806e-06 0 0)
(1.97702e-06 0 0)
(1.97598e-06 0 0)
(1.97496e-06 0 0)
(1.97396e-06 0 0)
(1.97298e-06 0 0)
(1.97203e-06 0 0)
(1.97112e-06 0 0)
(1.97025e-06 0 0)
(1.96941e-06 0 0)
(1.96862e-06 0 0)
(1.96787e-06 0 0)
(1.96716e-06 0 0)
(1.96649e-06 0 0)
(1.96586e-06 0 0)
(1.96527e-06 0 0)
(1.96471e-06 0 0)
(1.96418e-06 0 0)
(1.96369e-06 0 0)
(1.96321e-06 0 0)
(1.96276e-06 0 0)
(1.96233e-06 0 0)
(1.96192e-06 0 0)
(1.96152e-06 0 0)
(1.96114e-06 0 0)
(1.96076e-06 0 0)
(1.96039e-06 0 0)
(1.96002e-06 0 0)
(1.95966e-06 0 0)
(1.95929e-06 0 0)
(1.95893e-06 0 0)
(1.95857e-06 0 0)
(1.95821e-06 0 0)
(1.95784e-06 0 0)
(1.95747e-06 0 0)
(1.9571e-06 0 0)
(1.95673e-06 0 0)
(1.95635e-06 0 0)
(1.95597e-06 0 0)
(1.95559e-06 0 0)
(1.9552e-06 0 0)
(1.95482e-06 0 0)
(1.95443e-06 0 0)
(1.95404e-06 0 0)
(1.95365e-06 0 0)
(1.95325e-06 0 0)
(1.95286e-06 0 0)
(1.95247e-06 0 0)
(1.95208e-06 0 0)
(1.95169e-06 0 0)
(1.95131e-06 0 0)
(1.95092e-06 0 0)
(1.95054e-06 0 0)
(1.95016e-06 0 0)
(1.94979e-06 0 0)
(1.94941e-06 0 0)
(1.94905e-06 0 0)
(1.94868e-06 0 0)
(1.94832e-06 0 0)
(1.94797e-06 0 0)
(1.94762e-06 0 0)
(1.94728e-06 0 0)
(1.94694e-06 0 0)
(1.94661e-06 0 0)
(1.94628e-06 0 0)
(1.94596e-06 0 0)
(1.94565e-06 0 0)
(1.94534e-06 0 0)
(1.94504e-06 0 0)
(1.94474e-06 0 0)
(1.94445e-06 0 0)
(1.94417e-06 0 0)
(1.94389e-06 0 0)
(1.94362e-06 0 0)
(1.94336e-06 0 0)
(1.9431e-06 0 0)
(1.94285e-06 0 0)
(1.94261e-06 0 0)
(1.94237e-06 0 0)
(1.94214e-06 0 0)
(1.94191e-06 0 0)
(1.9417e-06 0 0)
(1.94149e-06 0 0)
(1.94128e-06 0 0)
(1.94108e-06 0 0)
(1.94089e-06 0 0)
(1.9407e-06 0 0)
(1.94052e-06 0 0)
(1.94034e-06 0 0)
(1.94017e-06 0 0)
(1.94001e-06 0 0)
(1.93985e-06 0 0)
(1.93969e-06 0 0)
(1.93954e-06 0 0)
(1.9394e-06 0 0)
(1.93925e-06 0 0)
(1.93912e-06 0 0)
(1.93898e-06 0 0)
(1.93885e-06 0 0)
(1.93873e-06 0 0)
(1.9386e-06 0 0)
(1.93849e-06 0 0)
(1.93837e-06 0 0)
(1.93826e-06 0 0)
(1.93815e-06 0 0)
(1.93804e-06 0 0)
(1.93794e-06 0 0)
(1.93785e-06 0 0)
(1.93776e-06 0 0)
(1.93767e-06 0 0)
(1.93759e-06 0 0)
(1.93752e-06 0 0)
(1.93746e-06 0 0)
(1.93741e-06 0 0)
(1.93736e-06 0 0)
(1.93734e-06 0 0)
(1.93732e-06 0 0)
(1.93732e-06 0 0)
(1.93734e-06 0 0)
(1.93738e-06 0 0)
(1.93743e-06 0 0)
(1.93751e-06 0 0)
(1.93762e-06 0 0)
(1.93775e-06 0 0)
(1.93791e-06 0 0)
(1.9381e-06 0 0)
(1.93831e-06 0 0)
(1.93856e-06 0 0)
(1.93884e-06 0 0)
(1.93916e-06 0 0)
(1.9395e-06 0 0)
(1.93988e-06 0 0)
(1.94028e-06 0 0)
(1.94072e-06 0 0)
(1.94118e-06 0 0)
(1.94167e-06 0 0)
(1.94218e-06 0 0)
(1.94272e-06 0 0)
(1.94327e-06 0 0)
(1.94383e-06 0 0)
(1.94441e-06 0 0)
(1.94499e-06 0 0)
(1.94557e-06 0 0)
(1.94615e-06 0 0)
(1.94671e-06 0 0)
(1.94727e-06 0 0)
(1.9478e-06 0 0)
(1.94831e-06 0 0)
(1.94879e-06 0 0)
(1.94924e-06 0 0)
(1.94964e-06 0 0)
(1.95e-06 0 0)
(1.9503e-06 0 0)
(1.95055e-06 0 0)
(1.95074e-06 0 0)
(1.95087e-06 0 0)
(1.95094e-06 0 0)
(1.95094e-06 0 0)
(1.95086e-06 0 0)
(1.95072e-06 0 0)
(1.95051e-06 0 0)
(1.95023e-06 0 0)
(1.94988e-06 0 0)
(1.94946e-06 0 0)
(1.94898e-06 0 0)
(1.94844e-06 0 0)
(1.94785e-06 0 0)
(1.9472e-06 0 0)
(1.94651e-06 0 0)
(1.94577e-06 0 0)
(1.945e-06 0 0)
(1.9442e-06 0 0)
(1.94338e-06 0 0)
(1.94253e-06 0 0)
(1.94168e-06 0 0)
(1.94081e-06 0 0)
(1.93995e-06 0 0)
(1.93908e-06 0 0)
(1.93823e-06 0 0)
(1.93738e-06 0 0)
(1.93655e-06 0 0)
(1.93574e-06 0 0)
(1.93494e-06 0 0)
(1.93417e-06 0 0)
(1.93343e-06 0 0)
(1.93271e-06 0 0)
(1.93201e-06 0 0)
(1.93134e-06 0 0)
(1.9307e-06 0 0)
(1.93008e-06 0 0)
(1.92949e-06 0 0)
(1.92892e-06 0 0)
(1.92837e-06 0 0)
(1.92785e-06 0 0)
(1.92734e-06 0 0)
(1.92685e-06 0 0)
(1.92638e-06 0 0)
(1.92593e-06 0 0)
(1.92549e-06 0 0)
(1.92506e-06 0 0)
(1.92464e-06 0 0)
(1.92422e-06 0 0)
(1.92382e-06 0 0)
(1.92342e-06 0 0)
(1.92303e-06 0 0)
(1.92264e-06 0 0)
(1.92226e-06 0 0)
(1.92187e-06 0 0)
(1.92149e-06 0 0)
(1.92111e-06 0 0)
(1.92073e-06 0 0)
(1.92034e-06 0 0)
(1.91996e-06 0 0)
(1.91958e-06 0 0)
(1.91919e-06 0 0)
(1.91881e-06 0 0)
(1.91842e-06 0 0)
(1.91803e-06 0 0)
(1.91764e-06 0 0)
(1.91726e-06 0 0)
(1.91687e-06 0 0)
(1.91647e-06 0 0)
(1.91608e-06 0 0)
(1.91569e-06 0 0)
(1.9153e-06 0 0)
(1.91491e-06 0 0)
(1.91453e-06 0 0)
(1.91414e-06 0 0)
(1.91375e-06 0 0)
(1.91337e-06 0 0)
(1.91298e-06 0 0)
(1.9126e-06 0 0)
(1.91223e-06 0 0)
(1.91185e-06 0 0)
(1.91148e-06 0 0)
(1.91111e-06 0 0)
(1.91074e-06 0 0)
(1.91038e-06 0 0)
(1.91002e-06 0 0)
(1.90966e-06 0 0)
(1.90931e-06 0 0)
(1.90896e-06 0 0)
(1.90862e-06 0 0)
(1.90828e-06 0 0)
(1.90795e-06 0 0)
(1.90762e-06 0 0)
(1.90729e-06 0 0)
(1.90697e-06 0 0)
(1.90665e-06 0 0)
(1.90634e-06 0 0)
(1.90604e-06 0 0)
(1.90573e-06 0 0)
(1.90544e-06 0 0)
(1.90515e-06 0 0)
(1.90486e-06 0 0)
(1.90458e-06 0 0)
(1.9043e-06 0 0)
(1.90403e-06 0 0)
(1.90376e-06 0 0)
(1.9035e-06 0 0)
(1.90324e-06 0 0)
(1.90299e-06 0 0)
(1.90274e-06 0 0)
(1.9025e-06 0 0)
(1.90226e-06 0 0)
(1.90203e-06 0 0)
(1.9018e-06 0 0)
(1.90157e-06 0 0)
(1.90135e-06 0 0)
(1.90114e-06 0 0)
(1.90092e-06 0 0)
(1.90072e-06 0 0)
(1.90051e-06 0 0)
(1.90031e-06 0 0)
(1.90012e-06 0 0)
(1.89992e-06 0 0)
(1.89974e-06 0 0)
(1.89955e-06 0 0)
(1.89937e-06 0 0)
(1.8992e-06 0 0)
(1.89902e-06 0 0)
(1.89885e-06 0 0)
(1.89869e-06 0 0)
(1.89853e-06 0 0)
(1.89838e-06 0 0)
(1.89823e-06 0 0)
(1.89809e-06 0 0)
(1.89795e-06 0 0)
(1.89782e-06 0 0)
(1.8977e-06 0 0)
(1.89759e-06 0 0)
(1.89749e-06 0 0)
(1.8974e-06 0 0)
(1.89731e-06 0 0)
(1.89725e-06 0 0)
(1.89719e-06 0 0)
(1.89716e-06 0 0)
(1.89713e-06 0 0)
(1.89713e-06 0 0)
(1.89715e-06 0 0)
(1.89719e-06 0 0)
(1.89725e-06 0 0)
(1.89733e-06 0 0)
(1.89744e-06 0 0)
(1.89759e-06 0 0)
(1.89775e-06 0 0)
(1.89794e-06 0 0)
(1.89817e-06 0 0)
(1.89842e-06 0 0)
(1.89871e-06 0 0)
(1.89903e-06 0 0)
(1.89937e-06 0 0)
(1.89975e-06 0 0)
(1.90017e-06 0 0)
(1.9006e-06 0 0)
(1.90106e-06 0 0)
(1.90155e-06 0 0)
(1.90206e-06 0 0)
(1.9026e-06 0 0)
(1.90316e-06 0 0)
(1.90373e-06 0 0)
(1.90433e-06 0 0)
(1.90493e-06 0 0)
(1.90555e-06 0 0)
(1.90618e-06 0 0)
(1.9068e-06 0 0)
(1.90744e-06 0 0)
(1.90807e-06 0 0)
(1.90869e-06 0 0)
(1.90931e-06 0 0)
(1.9099e-06 0 0)
(1.91047e-06 0 0)
(1.91101e-06 0 0)
(1.91148e-06 0 0)
(1.9119e-06 0 0)
(1.91218e-06 0 0)
(1.91225e-06 0 0)
(1.912e-06 0 0)
(1.9112e-06 0 0)
(1.90953e-06 0 0)
(1.90658e-06 0 0)
(1.90198e-06 0 0)
(1.89573e-06 0 0)
(1.88862e-06 0 0)
(1.88208e-06 0 0)
(1.87729e-06 0 0)
(1.87441e-06 0 0)
(1.8729e-06 0 0)
(1.87213e-06 0 0)
(1.87169e-06 0 0)
(1.8714e-06 0 0)
(1.87114e-06 0 0)
(1.87089e-06 0 0)
(1.87063e-06 0 0)
(1.87034e-06 0 0)
(1.87002e-06 0 0)
(1.86968e-06 0 0)
(1.86932e-06 0 0)
(1.86893e-06 0 0)
(1.86852e-06 0 0)
(1.86809e-06 0 0)
(1.86764e-06 0 0)
(1.86718e-06 0 0)
(1.86671e-06 0 0)
(1.86623e-06 0 0)
(1.86575e-06 0 0)
(1.86527e-06 0 0)
(1.86478e-06 0 0)
(1.8643e-06 0 0)
(1.86383e-06 0 0)
(1.86335e-06 0 0)
(1.86289e-06 0 0)
(1.86244e-06 0 0)
(1.862e-06 0 0)
(1.86157e-06 0 0)
(1.86115e-06 0 0)
(1.86075e-06 0 0)
(1.86036e-06 0 0)
(1.85998e-06 0 0)
(1.85962e-06 0 0)
(1.85928e-06 0 0)
(1.85895e-06 0 0)
(1.85864e-06 0 0)
(1.85833e-06 0 0)
(1.85805e-06 0 0)
(1.85778e-06 0 0)
(1.85751e-06 0 0)
(1.85727e-06 0 0)
(1.85703e-06 0 0)
(1.8568e-06 0 0)
(1.85659e-06 0 0)
(1.85638e-06 0 0)
(1.85618e-06 0 0)
(1.85599e-06 0 0)
(1.8558e-06 0 0)
(1.85562e-06 0 0)
(1.85545e-06 0 0)
(1.85528e-06 0 0)
(1.85511e-06 0 0)
(1.85495e-06 0 0)
(1.85479e-06 0 0)
(1.85463e-06 0 0)
(1.85448e-06 0 0)
(1.85433e-06 0 0)
(1.85417e-06 0 0)
(1.85402e-06 0 0)
(1.85387e-06 0 0)
(1.85372e-06 0 0)
(1.85358e-06 0 0)
(1.85343e-06 0 0)
(1.85328e-06 0 0)
(1.85313e-06 0 0)
(1.85298e-06 0 0)
(1.85283e-06 0 0)
(1.85268e-06 0 0)
(1.85253e-06 0 0)
(1.85239e-06 0 0)
(1.85224e-06 0 0)
(1.85209e-06 0 0)
(1.85195e-06 0 0)
(1.8518e-06 0 0)
(1.85166e-06 0 0)
(1.85151e-06 0 0)
(1.85137e-06 0 0)
(1.85123e-06 0 0)
(1.85109e-06 0 0)
(1.85095e-06 0 0)
(1.85082e-06 0 0)
(1.85068e-06 0 0)
(1.85055e-06 0 0)
(1.85042e-06 0 0)
(1.85029e-06 0 0)
(1.85017e-06 0 0)
(1.85005e-06 0 0)
(1.84993e-06 0 0)
(1.84981e-06 0 0)
(1.8497e-06 0 0)
(1.84959e-06 0 0)
(1.84949e-06 0 0)
(1.84939e-06 0 0)
(1.84929e-06 0 0)
(1.84919e-06 0 0)
(1.8491e-06 0 0)
(1.84901e-06 0 0)
(1.84893e-06 0 0)
)
;

boundaryField
{
    inlet
    {
        type            fixedValue;
        value           uniform (2.74882e-06 0 0);
    }
    outlet
    {
        type            zeroGradient;
    }
    emptyWalls
    {
        type            empty;
    }
}


// ************************************************************************* //
