/*--------------------------------*- C++ -*----------------------------------*\
  =========                 |
  \\      /  F ield         | OpenFOAM: The Open Source CFD Toolbox
   \\    /   O peration     | Website:  https://openfoam.org
    \\  /    A nd           | Version:  9
     \\/     M anipulation  |
\*---------------------------------------------------------------------------*/
FoamFile
{
    format      ascii;
    class       volVectorField;
    location    "22350";
    object      Uc;
}
// * * * * * * * * * * * * * * * * * * * * * * * * * * * * * * * * * * * * * //

dimensions      [0 0 0 0 0 0 0];

internalField   nonuniform List<vector> 
1000
(
(5.2698e-12 0 0)
(2.72549e-11 0 0)
(7.58425e-11 0 0)
(1.53951e-10 0 0)
(2.60488e-10 0 0)
(3.95089e-10 0 0)
(5.57689e-10 0 0)
(7.48318e-10 0 0)
(9.66961e-10 0 0)
(1.21347e-09 0 0)
(1.48734e-09 0 0)
(1.78773e-09 0 0)
(2.11313e-09 0 0)
(2.46134e-09 0 0)
(2.82932e-09 0 0)
(3.21283e-09 0 0)
(3.60683e-09 0 0)
(4.00503e-09 0 0)
(4.40059e-09 0 0)
(4.7864e-09 0 0)
(5.15558e-09 0 0)
(5.50241e-09 0 0)
(5.82257e-09 0 0)
(6.11364e-09 0 0)
(6.37552e-09 0 0)
(6.61232e-09 0 0)
(6.84296e-09 0 0)
(7.15343e-09 0 0)
(7.93516e-09 0 0)
(1.07145e-08 0 0)
(2.22143e-08 0 0)
(8.39416e-08 0 0)
(1.67233e-07 0 0)
(2.04366e-07 0 0)
(2.13153e-07 0 0)
(2.17127e-07 0 0)
(2.19605e-07 0 0)
(2.21472e-07 0 0)
(2.23035e-07 0 0)
(2.24422e-07 0 0)
(2.25693e-07 0 0)
(2.26884e-07 0 0)
(2.28013e-07 0 0)
(2.29095e-07 0 0)
(2.30138e-07 0 0)
(2.31147e-07 0 0)
(2.32129e-07 0 0)
(2.33085e-07 0 0)
(2.3402e-07 0 0)
(2.34934e-07 0 0)
(2.35831e-07 0 0)
(2.36712e-07 0 0)
(2.37581e-07 0 0)
(2.38437e-07 0 0)
(2.39284e-07 0 0)
(2.40123e-07 0 0)
(2.40956e-07 0 0)
(2.41785e-07 0 0)
(2.42611e-07 0 0)
(2.43437e-07 0 0)
(2.44263e-07 0 0)
(2.45093e-07 0 0)
(2.45927e-07 0 0)
(2.46767e-07 0 0)
(2.47617e-07 0 0)
(2.48483e-07 0 0)
(2.49372e-07 0 0)
(2.50279e-07 0 0)
(2.51202e-07 0 0)
(2.52142e-07 0 0)
(2.53101e-07 0 0)
(2.54081e-07 0 0)
(2.55084e-07 0 0)
(2.56114e-07 0 0)
(2.57176e-07 0 0)
(2.58273e-07 0 0)
(2.59411e-07 0 0)
(2.60598e-07 0 0)
(2.61844e-07 0 0)
(2.63162e-07 0 0)
(2.64571e-07 0 0)
(2.66096e-07 0 0)
(2.67772e-07 0 0)
(2.69642e-07 0 0)
(2.71754e-07 0 0)
(2.74157e-07 0 0)
(2.76883e-07 0 0)
(2.79935e-07 0 0)
(2.83283e-07 0 0)
(2.86868e-07 0 0)
(2.90633e-07 0 0)
(2.94532e-07 0 0)
(2.98533e-07 0 0)
(3.02612e-07 0 0)
(3.06753e-07 0 0)
(3.10942e-07 0 0)
(3.15169e-07 0 0)
(3.19424e-07 0 0)
(3.237e-07 0 0)
(3.27993e-07 0 0)
(3.32303e-07 0 0)
(3.36628e-07 0 0)
(3.4097e-07 0 0)
(3.4533e-07 0 0)
(3.49707e-07 0 0)
(3.54102e-07 0 0)
(3.58514e-07 0 0)
(3.62944e-07 0 0)
(3.67394e-07 0 0)
(3.71864e-07 0 0)
(3.76356e-07 0 0)
(3.80874e-07 0 0)
(3.85418e-07 0 0)
(3.89989e-07 0 0)
(3.94588e-07 0 0)
(3.99212e-07 0 0)
(4.0386e-07 0 0)
(4.08529e-07 0 0)
(4.13214e-07 0 0)
(4.17914e-07 0 0)
(4.22624e-07 0 0)
(4.27341e-07 0 0)
(4.32063e-07 0 0)
(4.36787e-07 0 0)
(4.41513e-07 0 0)
(4.46239e-07 0 0)
(4.50965e-07 0 0)
(4.55692e-07 0 0)
(4.60419e-07 0 0)
(4.65149e-07 0 0)
(4.69881e-07 0 0)
(4.74618e-07 0 0)
(4.79359e-07 0 0)
(4.84107e-07 0 0)
(4.88862e-07 0 0)
(4.93624e-07 0 0)
(4.98395e-07 0 0)
(5.03174e-07 0 0)
(5.07963e-07 0 0)
(5.1276e-07 0 0)
(5.17567e-07 0 0)
(5.22382e-07 0 0)
(5.27207e-07 0 0)
(5.32039e-07 0 0)
(5.3688e-07 0 0)
(5.41729e-07 0 0)
(5.46586e-07 0 0)
(5.51451e-07 0 0)
(5.56323e-07 0 0)
(5.61202e-07 0 0)
(5.66087e-07 0 0)
(5.7098e-07 0 0)
(5.75879e-07 0 0)
(5.80785e-07 0 0)
(5.85697e-07 0 0)
(5.90616e-07 0 0)
(5.95541e-07 0 0)
(6.00471e-07 0 0)
(6.05408e-07 0 0)
(6.10351e-07 0 0)
(6.153e-07 0 0)
(6.20254e-07 0 0)
(6.25215e-07 0 0)
(6.30181e-07 0 0)
(6.35152e-07 0 0)
(6.40129e-07 0 0)
(6.45112e-07 0 0)
(6.501e-07 0 0)
(6.55094e-07 0 0)
(6.60093e-07 0 0)
(6.65097e-07 0 0)
(6.70107e-07 0 0)
(6.75121e-07 0 0)
(6.80141e-07 0 0)
(6.85166e-07 0 0)
(6.90196e-07 0 0)
(6.95231e-07 0 0)
(7.00272e-07 0 0)
(7.05317e-07 0 0)
(7.10367e-07 0 0)
(7.15421e-07 0 0)
(7.20481e-07 0 0)
(7.25545e-07 0 0)
(7.30613e-07 0 0)
(7.35686e-07 0 0)
(7.40764e-07 0 0)
(7.45846e-07 0 0)
(7.50933e-07 0 0)
(7.56025e-07 0 0)
(7.61121e-07 0 0)
(7.66222e-07 0 0)
(7.71328e-07 0 0)
(7.76439e-07 0 0)
(7.81554e-07 0 0)
(7.86675e-07 0 0)
(7.918e-07 0 0)
(7.9693e-07 0 0)
(8.02065e-07 0 0)
(8.07203e-07 0 0)
(8.12347e-07 0 0)
(8.17494e-07 0 0)
(8.22646e-07 0 0)
(8.27801e-07 0 0)
(8.32962e-07 0 0)
(8.38126e-07 0 0)
(8.43296e-07 0 0)
(8.48471e-07 0 0)
(8.5365e-07 0 0)
(8.58836e-07 0 0)
(8.64026e-07 0 0)
(8.69221e-07 0 0)
(8.74421e-07 0 0)
(8.79624e-07 0 0)
(8.8483e-07 0 0)
(8.90037e-07 0 0)
(8.95243e-07 0 0)
(9.00449e-07 0 0)
(9.05652e-07 0 0)
(9.10851e-07 0 0)
(9.16046e-07 0 0)
(9.21236e-07 0 0)
(9.2642e-07 0 0)
(9.31599e-07 0 0)
(9.36772e-07 0 0)
(9.41941e-07 0 0)
(9.47106e-07 0 0)
(9.52268e-07 0 0)
(9.57429e-07 0 0)
(9.62591e-07 0 0)
(9.67754e-07 0 0)
(9.72923e-07 0 0)
(9.78099e-07 0 0)
(9.83284e-07 0 0)
(9.88482e-07 0 0)
(9.93695e-07 0 0)
(9.98926e-07 0 0)
(1.00418e-06 0 0)
(1.00945e-06 0 0)
(1.01474e-06 0 0)
(1.02006e-06 0 0)
(1.0254e-06 0 0)
(1.03077e-06 0 0)
(1.03616e-06 0 0)
(1.04157e-06 0 0)
(1.047e-06 0 0)
(1.05245e-06 0 0)
(1.05791e-06 0 0)
(1.06339e-06 0 0)
(1.06887e-06 0 0)
(1.07435e-06 0 0)
(1.07984e-06 0 0)
(1.08533e-06 0 0)
(1.09082e-06 0 0)
(1.0963e-06 0 0)
(1.10178e-06 0 0)
(1.10726e-06 0 0)
(1.11273e-06 0 0)
(1.11819e-06 0 0)
(1.12366e-06 0 0)
(1.12911e-06 0 0)
(1.13456e-06 0 0)
(1.14001e-06 0 0)
(1.14546e-06 0 0)
(1.15091e-06 0 0)
(1.15636e-06 0 0)
(1.16181e-06 0 0)
(1.16726e-06 0 0)
(1.17272e-06 0 0)
(1.17818e-06 0 0)
(1.18364e-06 0 0)
(1.18911e-06 0 0)
(1.19458e-06 0 0)
(1.20006e-06 0 0)
(1.20555e-06 0 0)
(1.21104e-06 0 0)
(1.21654e-06 0 0)
(1.22204e-06 0 0)
(1.22754e-06 0 0)
(1.23306e-06 0 0)
(1.23858e-06 0 0)
(1.2441e-06 0 0)
(1.24963e-06 0 0)
(1.25516e-06 0 0)
(1.2607e-06 0 0)
(1.26624e-06 0 0)
(1.27179e-06 0 0)
(1.27734e-06 0 0)
(1.2829e-06 0 0)
(1.28846e-06 0 0)
(1.29403e-06 0 0)
(1.29959e-06 0 0)
(1.30517e-06 0 0)
(1.31074e-06 0 0)
(1.31632e-06 0 0)
(1.32191e-06 0 0)
(1.3275e-06 0 0)
(1.33309e-06 0 0)
(1.33869e-06 0 0)
(1.34428e-06 0 0)
(1.34989e-06 0 0)
(1.35549e-06 0 0)
(1.3611e-06 0 0)
(1.36672e-06 0 0)
(1.37234e-06 0 0)
(1.37796e-06 0 0)
(1.38358e-06 0 0)
(1.38921e-06 0 0)
(1.39484e-06 0 0)
(1.40048e-06 0 0)
(1.40612e-06 0 0)
(1.41176e-06 0 0)
(1.4174e-06 0 0)
(1.42305e-06 0 0)
(1.4287e-06 0 0)
(1.43436e-06 0 0)
(1.44002e-06 0 0)
(1.44568e-06 0 0)
(1.45135e-06 0 0)
(1.45702e-06 0 0)
(1.46269e-06 0 0)
(1.46836e-06 0 0)
(1.47404e-06 0 0)
(1.47972e-06 0 0)
(1.48541e-06 0 0)
(1.4911e-06 0 0)
(1.49679e-06 0 0)
(1.50249e-06 0 0)
(1.50819e-06 0 0)
(1.51389e-06 0 0)
(1.5196e-06 0 0)
(1.52531e-06 0 0)
(1.53102e-06 0 0)
(1.53674e-06 0 0)
(1.54246e-06 0 0)
(1.54819e-06 0 0)
(1.55392e-06 0 0)
(1.55965e-06 0 0)
(1.56539e-06 0 0)
(1.57113e-06 0 0)
(1.57687e-06 0 0)
(1.58262e-06 0 0)
(1.58837e-06 0 0)
(1.59413e-06 0 0)
(1.59989e-06 0 0)
(1.60565e-06 0 0)
(1.61142e-06 0 0)
(1.61719e-06 0 0)
(1.62297e-06 0 0)
(1.62875e-06 0 0)
(1.63453e-06 0 0)
(1.64031e-06 0 0)
(1.6461e-06 0 0)
(1.65189e-06 0 0)
(1.65767e-06 0 0)
(1.66346e-06 0 0)
(1.66924e-06 0 0)
(1.67502e-06 0 0)
(1.6808e-06 0 0)
(1.68658e-06 0 0)
(1.69234e-06 0 0)
(1.69811e-06 0 0)
(1.70386e-06 0 0)
(1.70962e-06 0 0)
(1.71536e-06 0 0)
(1.7211e-06 0 0)
(1.72684e-06 0 0)
(1.73257e-06 0 0)
(1.7383e-06 0 0)
(1.74403e-06 0 0)
(1.74975e-06 0 0)
(1.75548e-06 0 0)
(1.76121e-06 0 0)
(1.76695e-06 0 0)
(1.77269e-06 0 0)
(1.77844e-06 0 0)
(1.78421e-06 0 0)
(1.78999e-06 0 0)
(1.79578e-06 0 0)
(1.8016e-06 0 0)
(1.80743e-06 0 0)
(1.81329e-06 0 0)
(1.81917e-06 0 0)
(1.82507e-06 0 0)
(1.831e-06 0 0)
(1.83696e-06 0 0)
(1.84294e-06 0 0)
(1.84894e-06 0 0)
(1.85497e-06 0 0)
(1.86102e-06 0 0)
(1.86709e-06 0 0)
(1.87318e-06 0 0)
(1.87928e-06 0 0)
(1.8854e-06 0 0)
(1.89153e-06 0 0)
(1.89767e-06 0 0)
(1.90381e-06 0 0)
(1.90996e-06 0 0)
(1.91611e-06 0 0)
(1.92226e-06 0 0)
(1.92841e-06 0 0)
(1.93456e-06 0 0)
(1.9407e-06 0 0)
(1.94684e-06 0 0)
(1.95298e-06 0 0)
(1.95911e-06 0 0)
(1.96524e-06 0 0)
(1.97137e-06 0 0)
(1.97749e-06 0 0)
(1.98361e-06 0 0)
(1.98973e-06 0 0)
(1.99584e-06 0 0)
(2.00196e-06 0 0)
(2.00808e-06 0 0)
(2.01419e-06 0 0)
(2.02031e-06 0 0)
(2.02644e-06 0 0)
(2.03256e-06 0 0)
(2.03869e-06 0 0)
(2.04483e-06 0 0)
(2.05096e-06 0 0)
(2.05711e-06 0 0)
(2.06326e-06 0 0)
(2.06941e-06 0 0)
(2.07558e-06 0 0)
(2.08174e-06 0 0)
(2.08792e-06 0 0)
(2.0941e-06 0 0)
(2.10028e-06 0 0)
(2.10648e-06 0 0)
(2.11268e-06 0 0)
(2.11888e-06 0 0)
(2.12509e-06 0 0)
(2.13131e-06 0 0)
(2.13753e-06 0 0)
(2.14376e-06 0 0)
(2.15e-06 0 0)
(2.15624e-06 0 0)
(2.16248e-06 0 0)
(2.16873e-06 0 0)
(2.17499e-06 0 0)
(2.18125e-06 0 0)
(2.18752e-06 0 0)
(2.19379e-06 0 0)
(2.20007e-06 0 0)
(2.20635e-06 0 0)
(2.21264e-06 0 0)
(2.21893e-06 0 0)
(2.22522e-06 0 0)
(2.23152e-06 0 0)
(2.23783e-06 0 0)
(2.24414e-06 0 0)
(2.25045e-06 0 0)
(2.25677e-06 0 0)
(2.2631e-06 0 0)
(2.26943e-06 0 0)
(2.27576e-06 0 0)
(2.2821e-06 0 0)
(2.28844e-06 0 0)
(2.29478e-06 0 0)
(2.30113e-06 0 0)
(2.30749e-06 0 0)
(2.31385e-06 0 0)
(2.32021e-06 0 0)
(2.32658e-06 0 0)
(2.33296e-06 0 0)
(2.33933e-06 0 0)
(2.34571e-06 0 0)
(2.3521e-06 0 0)
(2.35849e-06 0 0)
(2.36489e-06 0 0)
(2.37129e-06 0 0)
(2.37769e-06 0 0)
(2.3841e-06 0 0)
(2.39051e-06 0 0)
(2.39693e-06 0 0)
(2.40335e-06 0 0)
(2.40978e-06 0 0)
(2.41621e-06 0 0)
(2.42265e-06 0 0)
(2.42909e-06 0 0)
(2.43553e-06 0 0)
(2.44198e-06 0 0)
(2.44844e-06 0 0)
(2.4549e-06 0 0)
(2.46136e-06 0 0)
(2.46783e-06 0 0)
(2.47431e-06 0 0)
(2.48079e-06 0 0)
(2.48728e-06 0 0)
(2.49377e-06 0 0)
(2.50027e-06 0 0)
(2.50677e-06 0 0)
(2.51328e-06 0 0)
(2.51979e-06 0 0)
(2.52631e-06 0 0)
(2.53283e-06 0 0)
(2.53936e-06 0 0)
(2.54589e-06 0 0)
(2.55243e-06 0 0)
(2.55898e-06 0 0)
(2.56553e-06 0 0)
(2.57208e-06 0 0)
(2.57864e-06 0 0)
(2.5852e-06 0 0)
(2.59176e-06 0 0)
(2.59833e-06 0 0)
(2.6049e-06 0 0)
(2.61147e-06 0 0)
(2.61804e-06 0 0)
(2.6246e-06 0 0)
(2.63117e-06 0 0)
(2.63774e-06 0 0)
(2.6443e-06 0 0)
(2.65087e-06 0 0)
(2.65743e-06 0 0)
(2.66398e-06 0 0)
(2.67054e-06 0 0)
(2.67709e-06 0 0)
(2.68364e-06 0 0)
(2.69018e-06 0 0)
(2.69672e-06 0 0)
(2.70326e-06 0 0)
(2.7098e-06 0 0)
(2.71634e-06 0 0)
(2.72288e-06 0 0)
(2.72942e-06 0 0)
(2.73596e-06 0 0)
(2.74252e-06 0 0)
(2.74907e-06 0 0)
(2.75564e-06 0 0)
(2.76221e-06 0 0)
(2.7688e-06 0 0)
(2.7754e-06 0 0)
(2.78202e-06 0 0)
(2.78866e-06 0 0)
(2.79532e-06 0 0)
(2.80199e-06 0 0)
(2.8087e-06 0 0)
(2.81542e-06 0 0)
(2.82217e-06 0 0)
(2.82895e-06 0 0)
(2.83576e-06 0 0)
(2.84259e-06 0 0)
(2.84945e-06 0 0)
(2.85634e-06 0 0)
(2.86326e-06 0 0)
(2.87021e-06 0 0)
(2.87717e-06 0 0)
(2.88417e-06 0 0)
(2.89119e-06 0 0)
(2.89822e-06 0 0)
(2.90528e-06 0 0)
(2.91235e-06 0 0)
(2.91944e-06 0 0)
(2.92655e-06 0 0)
(2.93366e-06 0 0)
(2.94079e-06 0 0)
(2.94792e-06 0 0)
(2.95505e-06 0 0)
(2.9622e-06 0 0)
(2.96934e-06 0 0)
(2.97649e-06 0 0)
(2.98364e-06 0 0)
(2.99079e-06 0 0)
(2.99794e-06 0 0)
(3.00509e-06 0 0)
(3.01224e-06 0 0)
(3.01939e-06 0 0)
(3.02654e-06 0 0)
(3.03369e-06 0 0)
(3.04084e-06 0 0)
(3.04799e-06 0 0)
(3.05515e-06 0 0)
(3.0623e-06 0 0)
(3.06946e-06 0 0)
(3.07663e-06 0 0)
(3.08379e-06 0 0)
(3.09097e-06 0 0)
(3.09814e-06 0 0)
(3.10533e-06 0 0)
(3.11252e-06 0 0)
(3.11972e-06 0 0)
(3.12692e-06 0 0)
(3.13414e-06 0 0)
(3.14136e-06 0 0)
(3.14859e-06 0 0)
(3.15583e-06 0 0)
(3.16308e-06 0 0)
(3.17034e-06 0 0)
(3.1776e-06 0 0)
(3.18488e-06 0 0)
(3.19217e-06 0 0)
(3.19946e-06 0 0)
(3.20677e-06 0 0)
(3.21409e-06 0 0)
(3.22141e-06 0 0)
(3.22875e-06 0 0)
(3.23609e-06 0 0)
(3.24345e-06 0 0)
(3.25082e-06 0 0)
(3.25819e-06 0 0)
(3.26557e-06 0 0)
(3.27297e-06 0 0)
(3.28037e-06 0 0)
(3.28778e-06 0 0)
(3.2952e-06 0 0)
(3.30263e-06 0 0)
(3.31007e-06 0 0)
(3.31752e-06 0 0)
(3.32498e-06 0 0)
(3.33244e-06 0 0)
(3.33992e-06 0 0)
(3.3474e-06 0 0)
(3.3549e-06 0 0)
(3.3624e-06 0 0)
(3.36991e-06 0 0)
(3.37743e-06 0 0)
(3.38496e-06 0 0)
(3.39249e-06 0 0)
(3.40004e-06 0 0)
(3.40759e-06 0 0)
(3.41516e-06 0 0)
(3.42273e-06 0 0)
(3.43031e-06 0 0)
(3.4379e-06 0 0)
(3.4455e-06 0 0)
(3.45311e-06 0 0)
(3.46073e-06 0 0)
(3.46835e-06 0 0)
(3.47599e-06 0 0)
(3.48363e-06 0 0)
(3.49129e-06 0 0)
(3.49895e-06 0 0)
(3.50662e-06 0 0)
(3.5143e-06 0 0)
(3.52199e-06 0 0)
(3.52969e-06 0 0)
(3.5374e-06 0 0)
(3.54512e-06 0 0)
(3.55284e-06 0 0)
(3.56058e-06 0 0)
(3.56833e-06 0 0)
(3.57609e-06 0 0)
(3.58385e-06 0 0)
(3.59163e-06 0 0)
(3.59942e-06 0 0)
(3.60721e-06 0 0)
(3.61502e-06 0 0)
(3.62284e-06 0 0)
(3.63067e-06 0 0)
(3.63851e-06 0 0)
(3.64636e-06 0 0)
(3.65422e-06 0 0)
(3.66209e-06 0 0)
(3.66997e-06 0 0)
(3.67786e-06 0 0)
(3.68577e-06 0 0)
(3.69368e-06 0 0)
(3.70161e-06 0 0)
(3.70955e-06 0 0)
(3.7175e-06 0 0)
(3.72546e-06 0 0)
(3.73343e-06 0 0)
(3.74141e-06 0 0)
(3.74941e-06 0 0)
(3.75741e-06 0 0)
(3.76543e-06 0 0)
(3.77345e-06 0 0)
(3.78149e-06 0 0)
(3.78953e-06 0 0)
(3.79759e-06 0 0)
(3.80565e-06 0 0)
(3.81372e-06 0 0)
(3.82181e-06 0 0)
(3.8299e-06 0 0)
(3.83799e-06 0 0)
(3.8461e-06 0 0)
(3.85421e-06 0 0)
(3.86232e-06 0 0)
(3.87044e-06 0 0)
(3.87857e-06 0 0)
(3.8867e-06 0 0)
(3.89484e-06 0 0)
(3.90298e-06 0 0)
(3.91113e-06 0 0)
(3.91928e-06 0 0)
(3.92744e-06 0 0)
(3.9356e-06 0 0)
(3.94377e-06 0 0)
(3.95194e-06 0 0)
(3.96012e-06 0 0)
(3.96831e-06 0 0)
(3.9765e-06 0 0)
(3.9847e-06 0 0)
(3.99291e-06 0 0)
(4.00114e-06 0 0)
(4.00938e-06 0 0)
(4.01763e-06 0 0)
(4.02589e-06 0 0)
(4.03418e-06 0 0)
(4.04248e-06 0 0)
(4.0508e-06 0 0)
(4.05914e-06 0 0)
(4.06751e-06 0 0)
(4.07591e-06 0 0)
(4.08433e-06 0 0)
(4.09278e-06 0 0)
(4.10126e-06 0 0)
(4.10978e-06 0 0)
(4.11832e-06 0 0)
(4.12691e-06 0 0)
(4.13552e-06 0 0)
(4.14418e-06 0 0)
(4.15287e-06 0 0)
(4.1616e-06 0 0)
(4.17037e-06 0 0)
(4.17918e-06 0 0)
(4.18803e-06 0 0)
(4.19691e-06 0 0)
(4.20583e-06 0 0)
(4.21479e-06 0 0)
(4.22379e-06 0 0)
(4.23282e-06 0 0)
(4.24188e-06 0 0)
(4.25098e-06 0 0)
(4.2601e-06 0 0)
(4.26926e-06 0 0)
(4.27844e-06 0 0)
(4.28765e-06 0 0)
(4.29688e-06 0 0)
(4.30614e-06 0 0)
(4.31541e-06 0 0)
(4.32471e-06 0 0)
(4.33402e-06 0 0)
(4.34335e-06 0 0)
(4.3527e-06 0 0)
(4.36207e-06 0 0)
(4.37145e-06 0 0)
(4.38084e-06 0 0)
(4.39025e-06 0 0)
(4.39967e-06 0 0)
(4.4091e-06 0 0)
(4.41855e-06 0 0)
(4.42801e-06 0 0)
(4.43749e-06 0 0)
(4.44698e-06 0 0)
(4.45648e-06 0 0)
(4.466e-06 0 0)
(4.47554e-06 0 0)
(4.48509e-06 0 0)
(4.49466e-06 0 0)
(4.50425e-06 0 0)
(4.51385e-06 0 0)
(4.52347e-06 0 0)
(4.53312e-06 0 0)
(4.54278e-06 0 0)
(4.55247e-06 0 0)
(4.56218e-06 0 0)
(4.57191e-06 0 0)
(4.58166e-06 0 0)
(4.59143e-06 0 0)
(4.60123e-06 0 0)
(4.61106e-06 0 0)
(4.62091e-06 0 0)
(4.63078e-06 0 0)
(4.64068e-06 0 0)
(4.65061e-06 0 0)
(4.66056e-06 0 0)
(4.67055e-06 0 0)
(4.68055e-06 0 0)
(4.69059e-06 0 0)
(4.70065e-06 0 0)
(4.71074e-06 0 0)
(4.72086e-06 0 0)
(4.731e-06 0 0)
(4.74118e-06 0 0)
(4.75138e-06 0 0)
(4.76161e-06 0 0)
(4.77187e-06 0 0)
(4.78216e-06 0 0)
(4.79248e-06 0 0)
(4.80283e-06 0 0)
(4.8132e-06 0 0)
(4.82361e-06 0 0)
(4.83405e-06 0 0)
(4.84452e-06 0 0)
(4.85501e-06 0 0)
(4.86554e-06 0 0)
(4.8761e-06 0 0)
(4.88668e-06 0 0)
(4.8973e-06 0 0)
(4.90795e-06 0 0)
(4.91863e-06 0 0)
(4.92935e-06 0 0)
(4.94009e-06 0 0)
(4.95087e-06 0 0)
(4.96167e-06 0 0)
(4.97251e-06 0 0)
(4.98339e-06 0 0)
(4.99429e-06 0 0)
(5.00523e-06 0 0)
(5.0162e-06 0 0)
(5.02721e-06 0 0)
(5.03824e-06 0 0)
(5.04931e-06 0 0)
(5.06042e-06 0 0)
(5.07156e-06 0 0)
(5.08273e-06 0 0)
(5.09394e-06 0 0)
(5.10518e-06 0 0)
(5.11645e-06 0 0)
(5.12776e-06 0 0)
(5.1391e-06 0 0)
(5.15048e-06 0 0)
(5.1619e-06 0 0)
(5.17335e-06 0 0)
(5.18483e-06 0 0)
(5.19634e-06 0 0)
(5.20789e-06 0 0)
(5.21948e-06 0 0)
(5.2311e-06 0 0)
(5.24275e-06 0 0)
(5.25443e-06 0 0)
(5.26615e-06 0 0)
(5.27789e-06 0 0)
(5.28967e-06 0 0)
(5.30147e-06 0 0)
(5.31331e-06 0 0)
(5.32517e-06 0 0)
(5.33705e-06 0 0)
(5.34896e-06 0 0)
(5.36088e-06 0 0)
(5.37282e-06 0 0)
(5.38478e-06 0 0)
(5.39674e-06 0 0)
(5.40871e-06 0 0)
(5.42068e-06 0 0)
(5.43264e-06 0 0)
(5.44458e-06 0 0)
(5.45651e-06 0 0)
(5.4684e-06 0 0)
(5.48026e-06 0 0)
(5.49206e-06 0 0)
(5.50379e-06 0 0)
(5.51545e-06 0 0)
(5.527e-06 0 0)
(5.53844e-06 0 0)
(5.54975e-06 0 0)
(5.56091e-06 0 0)
(5.57188e-06 0 0)
(5.58264e-06 0 0)
(5.59318e-06 0 0)
(5.60345e-06 0 0)
(5.61344e-06 0 0)
(5.62311e-06 0 0)
(5.63244e-06 0 0)
(5.6414e-06 0 0)
(5.64995e-06 0 0)
(5.65808e-06 0 0)
(5.66577e-06 0 0)
(5.673e-06 0 0)
(5.67976e-06 0 0)
(5.68602e-06 0 0)
(5.6918e-06 0 0)
(5.69708e-06 0 0)
(5.70188e-06 0 0)
(5.7062e-06 0 0)
(5.71007e-06 0 0)
(5.71349e-06 0 0)
(5.7165e-06 0 0)
(5.71911e-06 0 0)
(5.72135e-06 0 0)
(5.72326e-06 0 0)
(5.72486e-06 0 0)
(5.72619e-06 0 0)
(5.72728e-06 0 0)
(5.72814e-06 0 0)
(5.72881e-06 0 0)
(5.72933e-06 0 0)
(5.72971e-06 0 0)
(5.72999e-06 0 0)
(5.7302e-06 0 0)
(5.73037e-06 0 0)
(5.73056e-06 0 0)
(5.73083e-06 0 0)
(5.73136e-06 0 0)
(5.73234e-06 0 0)
(5.73419e-06 0 0)
(5.73764e-06 0 0)
(5.74392e-06 0 0)
(5.75533e-06 0 0)
(5.77585e-06 0 0)
(5.81241e-06 0 0)
(5.87669e-06 0 0)
(5.98734e-06 0 0)
(6.17139e-06 0 0)
(6.46092e-06 0 0)
(6.8793e-06 0 0)
(7.41572e-06 0 0)
(8.00689e-06 0 0)
(8.55665e-06 0 0)
(8.98884e-06 0 0)
(9.28266e-06 0 0)
(9.46166e-06 0 0)
(9.56304e-06 0 0)
(9.61802e-06 0 0)
(9.64715e-06 0 0)
(9.66243e-06 0 0)
(9.67044e-06 0 0)
(9.6747e-06 0 0)
(9.67702e-06 0 0)
(9.67835e-06 0 0)
(9.67919e-06 0 0)
(9.67978e-06 0 0)
(9.68025e-06 0 0)
(9.68067e-06 0 0)
(9.68106e-06 0 0)
(9.68144e-06 0 0)
(9.68183e-06 0 0)
(9.68221e-06 0 0)
(9.68259e-06 0 0)
(9.68298e-06 0 0)
(9.68337e-06 0 0)
(9.68375e-06 0 0)
(9.68413e-06 0 0)
(9.68451e-06 0 0)
(9.68488e-06 0 0)
(9.68524e-06 0 0)
(9.6856e-06 0 0)
(9.68594e-06 0 0)
(9.68628e-06 0 0)
(9.68661e-06 0 0)
(9.68692e-06 0 0)
(9.68722e-06 0 0)
(9.68751e-06 0 0)
(9.68779e-06 0 0)
(9.68806e-06 0 0)
(9.68832e-06 0 0)
(9.68856e-06 0 0)
(9.6888e-06 0 0)
(9.68902e-06 0 0)
(9.68923e-06 0 0)
(9.68944e-06 0 0)
(9.68963e-06 0 0)
(9.68982e-06 0 0)
(9.69e-06 0 0)
(9.69017e-06 0 0)
(9.69034e-06 0 0)
(9.6905e-06 0 0)
(9.69065e-06 0 0)
(9.6908e-06 0 0)
(9.69095e-06 0 0)
(9.69109e-06 0 0)
(9.69123e-06 0 0)
(9.69136e-06 0 0)
(9.69149e-06 0 0)
(9.69162e-06 0 0)
(9.69175e-06 0 0)
(9.69188e-06 0 0)
(9.692e-06 0 0)
(9.69213e-06 0 0)
(9.69225e-06 0 0)
(9.69238e-06 0 0)
(9.6925e-06 0 0)
(9.69262e-06 0 0)
(9.69274e-06 0 0)
(9.69286e-06 0 0)
(9.69299e-06 0 0)
(9.69311e-06 0 0)
(9.69323e-06 0 0)
(9.69335e-06 0 0)
(9.69347e-06 0 0)
(9.69359e-06 0 0)
(9.69371e-06 0 0)
(9.69382e-06 0 0)
(9.69394e-06 0 0)
(9.69406e-06 0 0)
(9.69417e-06 0 0)
(9.69429e-06 0 0)
(9.6944e-06 0 0)
(9.69451e-06 0 0)
(9.69462e-06 0 0)
(9.69473e-06 0 0)
(9.69483e-06 0 0)
(9.69494e-06 0 0)
(9.69504e-06 0 0)
(9.69514e-06 0 0)
(9.69524e-06 0 0)
(9.69534e-06 0 0)
(9.69543e-06 0 0)
(9.69552e-06 0 0)
(9.69561e-06 0 0)
(9.69569e-06 0 0)
(9.69577e-06 0 0)
(9.69585e-06 0 0)
(9.69593e-06 0 0)
(9.696e-06 0 0)
(9.69607e-06 0 0)
(9.69614e-06 0 0)
(9.6962e-06 0 0)
)
;

boundaryField
{
    inlet
    {
        type            fixedValue;
        value           uniform (0 0 0);
    }
    outlet
    {
        type            zeroGradient;
    }
    emptyWalls
    {
        type            empty;
    }
}


// ************************************************************************* //
