/*--------------------------------*- C++ -*----------------------------------*\
  =========                 |
  \\      /  F ield         | OpenFOAM: The Open Source CFD Toolbox
   \\    /   O peration     | Website:  https://openfoam.org
    \\  /    A nd           | Version:  9
     \\/     M anipulation  |
\*---------------------------------------------------------------------------*/
FoamFile
{
    format      ascii;
    class       volScalarField;
    location    "2350";
    object      Fb;
}
// * * * * * * * * * * * * * * * * * * * * * * * * * * * * * * * * * * * * * //

dimensions      [0 0 0 0 0 0 0];

internalField   nonuniform List<scalar> 
1000
(
0.805522
0.804434
0.810562
0.830902
0.834973
0.835832
0.83606
0.835472
0.834027
0.83129
0.828207
0.824941
0.821574
0.818144
0.814682
0.811228
0.807815
0.804467
0.801195
0.798005
0.794909
0.791918
0.789035
0.786248
0.783525
0.780815
0.778063
0.775216
0.772234
0.769093
0.765786
0.76232
0.758709
0.754975
0.751143
0.747237
0.743276
0.73928
0.735262
0.73123
0.727191
0.723148
0.719099
0.715043
0.710976
0.706894
0.702792
0.698668
0.694516
0.690335
0.686119
0.681868
0.677579
0.673249
0.668878
0.664464
0.660005
0.6555
0.650947
0.646344
0.641691
0.636984
0.632221
0.627401
0.62252
0.617576
0.612565
0.607485
0.602332
0.597103
0.591794
0.586402
0.58092
0.575347
0.569673
0.563898
0.558012
0.552016
0.545905
0.539676
0.53333
0.526872
0.520308
0.513653
0.506912
0.50008
0.49309
0.485769
0.477694
0.468031
0.45529
0.437159
0.410799
0.374296
0.329473
0.283376
0.244633
0.217528
0.200998
0.191778
0.186897
0.184392
0.18313
0.182499
0.182187
0.182033
0.181956
0.181917
0.181897
0.181885
0.181878
0.181873
0.181869
0.181865
0.181862
0.181859
0.181855
0.181852
0.181849
0.181846
0.181843
0.181841
0.181839
0.181837
0.181835
0.181833
0.181832
0.181831
0.181831
0.181831
0.181831
0.181831
0.181832
0.181833
0.181835
0.181838
0.18184
0.181843
0.181846
0.181849
0.181852
0.181855
0.181859
0.181862
0.181866
0.181869
0.181872
0.181875
0.181877
0.18188
0.181881
0.181883
0.181884
0.181885
0.181885
0.181885
0.181885
0.181885
0.181884
0.181882
0.181881
0.181879
0.181876
0.181874
0.181871
0.181868
0.181865
0.181862
0.181859
0.181855
0.181851
0.181847
0.181842
0.181836
0.18183
0.181823
0.181815
0.181806
0.181796
0.181784
0.181771
0.181756
0.181739
0.18172
0.1817
0.181677
0.181652
0.181625
0.181596
0.181565
0.181532
0.181498
0.181461
0.181424
0.181385
0.181347
0.181307
0.181269
0.181231
0.181194
0.18116
0.181129
0.181102
0.18108
0.181064
0.181055
0.181052
0.181051
0.181052
0.181062
0.181093
0.181135
0.181187
0.181249
0.181321
0.1814
0.181485
0.181575
0.181667
0.181759
0.181849
0.181935
0.182016
0.18209
0.182156
0.182213
0.182261
0.1823
0.182329
0.18235
0.182362
0.182368
0.182368
0.182368
0.182364
0.182347
0.182326
0.182303
0.182278
0.182251
0.182225
0.182199
0.182173
0.182148
0.182125
0.182104
0.182084
0.182066
0.182049
0.182035
0.182022
0.182011
0.182003
0.181995
0.181989
0.181985
0.181981
0.181979
0.181977
0.181977
0.181977
0.181977
0.181977
0.181978
0.181979
0.18198
0.181982
0.181983
0.181985
0.181986
0.181987
0.181988
0.181989
0.18199
0.181991
0.181991
0.181992
0.181993
0.181994
0.181994
0.181995
0.181996
0.181997
0.181998
0.181999
0.182001
0.182002
0.182004
0.182007
0.182009
0.182012
0.182015
0.182018
0.182021
0.182025
0.182029
0.182033
0.182037
0.182042
0.182047
0.182052
0.182057
0.182062
0.182067
0.182073
0.182079
0.182085
0.182091
0.182097
0.182103
0.18211
0.182116
0.182122
0.182128
0.182134
0.182139
0.182145
0.18215
0.182155
0.18216
0.182165
0.182169
0.182172
0.182174
0.182177
0.182178
0.182179
0.182179
0.182179
0.182178
0.182177
0.182173
0.182171
0.182164
0.18216
0.182151
0.182145
0.182133
0.182126
0.182112
0.182104
0.182087
0.182078
0.182059
0.182048
0.182026
0.182014
0.181991
0.181978
0.181953
0.181939
0.181912
0.181898
0.18187
0.181856
0.181827
0.181812
0.181782
0.181767
0.181737
0.181722
0.181691
0.181676
0.181647
0.181631
0.181601
0.181586
0.181557
0.181541
0.181513
0.181498
0.181468
0.18145
0.181423
0.181405
0.181372
0.181355
0.181328
0.181304
0.181268
0.181253
0.181219
0.181184
0.181151
0.181135
0.181083
0.181045
0.181021
0.180986
0.180912
0.180904
0.180914
0.18124
0.182567
0.200992
0.210137
0.210277
0.21028
0.21028
0.21028
0.21028
0.21028
0.21028
0.21028
0.21028
0.21028
0.21028
0.21028
0.21028
0.21028
0.21028
0.21028
0.21028
0.21028
0.21028
0.21028
0.21028
0.21028
0.21028
0.21028
0.21028
0.21028
0.21028
0.21028
0.21028
0.21028
0.21028
0.21028
0.21028
0.21028
0.21028
0.21028
0.21028
0.21028
0.21028
0.21028
0.21028
0.21028
0.21028
0.21028
0.21028
0.21028
0.21028
0.21028
0.21028
0.21028
0.21028
0.21028
0.21028
0.21028
0.21028
0.21028
0.21028
0.21028
0.21028
0.21028
0.21028
0.21028
0.21028
0.21028
0.21028
0.21028
0.21028
0.21028
0.21028
0.21028
0.21028
0.21028
0.21028
0.21028
0.21028
0.21028
0.21028
0.21028
0.21028
0.21028
0.21028
0.21028
0.21028
0.21028
0.21028
0.21028
0.21028
0.21028
0.21028
0.21028
0.21028
0.21028
0.21028
0.21028
0.21028
0.21028
0.21028
0.21028
0.21028
0.21028
0.21028
0.21028
0.21028
0.21028
0.21028
0.21028
0.21028
0.21028
0.21028
0.21028
0.21028
0.21028
0.21028
0.21028
0.21028
0.21028
0.21028
0.21028
0.21028
0.21028
0.21028
0.21028
0.21028
0.21028
0.21028
0.21028
0.21028
0.21028
0.21028
0.21028
0.21028
0.21028
0.21028
0.21028
0.21028
0.21028
0.21028
0.21028
0.21028
0.21028
0.21028
0.21028
0.21028
0.21028
0.21028
0.21028
0.21028
0.21028
0.21028
0.21028
0.21028
0.21028
0.21028
0.21028
0.21028
0.21028
0.21028
0.21028
0.21028
0.21028
0.21028
0.21028
0.21028
0.21028
0.21028
0.21028
0.21028
0.21028
0.21028
0.21028
0.21028
0.21028
0.21028
0.21028
0.21028
0.21028
0.21028
0.21028
0.21028
0.21028
0.21028
0.21028
0.21028
0.21028
0.21028
0.21028
0.21028
0.21028
0.21028
0.21028
0.21028
0.21028
0.21028
0.21028
0.21028
0.21028
0.21028
0.21028
0.21028
0.21028
0.21028
0.21028
0.21028
0.21028
0.21028
0.21028
0.21028
0.21028
0.21028
0.21028
0.21028
0.21028
0.21028
0.21028
0.21028
0.21028
0.21028
0.21028
0.21028
0.21028
0.21028
0.21028
0.21028
0.21028
0.21028
0.21028
0.21028
0.21028
0.21028
0.21028
0.21028
0.21028
0.21028
0.21028
0.21028
0.21028
0.21028
0.21028
0.21028
0.21028
0.21028
0.21028
0.21028
0.21028
0.21028
0.21028
0.21028
0.21028
0.21028
0.21028
0.21028
0.21028
0.21028
0.21028
0.21028
0.21028
0.21028
0.21028
0.21028
0.21028
0.21028
0.21028
0.21028
0.21028
0.21028
0.21028
0.21028
0.21028
0.21028
0.21028
0.21028
0.21028
0.21028
0.21028
0.21028
0.21028
0.21028
0.21028
0.21028
0.21028
0.21028
0.21028
0.21028
0.21028
0.21028
0.21028
0.21028
0.21028
0.21028
0.21028
0.21028
0.21028
0.21028
0.21028
0.21028
0.21028
0.21028
0.21028
0.21028
0.21028
0.21028
0.21028
0.21028
0.21028
0.21028
0.21028
0.21028
0.21028
0.21028
0.21028
0.21028
0.21028
0.21028
0.21028
0.21028
0.21028
0.21028
0.21028
0.21028
0.21028
0.21028
0.21028
0.21028
0.21028
0.21028
0.21028
0.21028
0.21028
0.21028
0.21028
0.21028
0.21028
0.21028
0.21028
0.21028
0.21028
0.21028
0.21028
0.21028
0.21028
0.21028
0.21028
0.21028
0.21028
0.21028
0.21028
0.21028
0.21028
0.21028
0.21028
0.21028
0.21028
0.21028
0.21028
0.21028
0.21028
0.21028
0.21028
0.21028
0.21028
0.21028
0.21028
0.21028
0.21028
0.21028
0.21028
0.21028
0.21028
0.21028
0.21028
0.21028
0.21028
0.21028
0.21028
0.21028
0.21028
0.21028
0.21028
0.21028
0.21028
0.21028
0.21028
0.21028
0.21028
0.21028
0.21028
0.21028
0.21028
0.21028
0.21028
0.21028
0.21028
0.21028
0.21028
0.21028
0.21028
0.21028
0.21028
0.21028
0.21028
0.21028
0.21028
0.21028
0.21028
0.21028
0.21028
0.21028
0.21028
0.21028
0.21028
0.21028
0.21028
0.21028
0.21028
0.21028
0.21028
0.21028
0.21028
0.21028
0.21028
0.21028
0.21028
0.21028
0.21028
0.21028
0.21028
0.21028
0.21028
0.21028
0.21028
0.21028
0.21028
0.21028
0.21028
0.21028
0.21028
0.21028
0.21028
0.21028
0.21028
0.21028
0.21028
0.21028
0.21028
0.21028
0.21028
0.21028
0.21028
0.21028
0.21028
0.21028
0.21028
0.21028
0.21028
0.21028
0.21028
0.21028
0.21028
0.21028
0.21028
0.21028
0.21028
0.21028
0.21028
0.21028
0.21028
0.21028
0.21028
0.21028
0.21028
0.21028
0.21028
0.21028
0.21028
0.21028
0.21028
0.21028
0.21028
0.21028
0.21028
0.21028
0.21028
0.21028
0.21028
0.21028
0.21028
0.21028
0.21028
0.21028
0.21028
0.21028
0.21028
0.21028
0.21028
0.21028
0.21028
0.21028
0.21028
0.21028
0.21028
0.21028
0.21028
0.21028
0.21028
0.21028
0.21028
0.21028
0.21028
0.21028
0.21028
0.21028
0.21028
0.21028
0.21028
0.21028
0.21028
0.21028
0.21028
0.21028
0.21028
0.21028
0.21028
0.21028
0.21028
0.21028
0.21028
0.21028
0.21028
0.21028
0.21028
0.21028
0.21028
0.21028
0.21028
0.21028
0.21028
0.21028
0.21028
0.21028
0.21028
0.21028
0.21028
0.21028
0.21028
0.21028
0.21028
0.21028
0.21028
0.21028
0.21028
0.21028
0.21028
0.21028
0.21028
0.21028
0.21028
0.21028
0.21028
0.21028
0.21028
0.21028
0.21028
0.21028
0.21028
0.21028
0.21028
0.21028
0.21028
0.21028
0.21028
0.21028
0.21028
0.21028
0.21028
0.21028
0.21028
0.21028
0.21028
0.21028
0.21028
0.21028
0.21028
0.21028
0.21028
0.21028
0.21028
0.21028
0.21028
0.21028
0.21028
0.21028
0.21028
0.21028
0.21028
0.21028
0.21028
0.21028
0.21028
0.21028
0.21028
0.21028
0.21028
0.21028
0.21028
)
;

boundaryField
{
    inlet
    {
        type            calculated;
        value           uniform 0.805169;
    }
    outlet
    {
        type            calculated;
        value           uniform 0.21028;
    }
    emptyWalls
    {
        type            empty;
    }
}


// ************************************************************************* //
