/*--------------------------------*- C++ -*----------------------------------*\
  =========                 |
  \\      /  F ield         | OpenFOAM: The Open Source CFD Toolbox
   \\    /   O peration     | Website:  https://openfoam.org
    \\  /    A nd           | Version:  9
     \\/     M anipulation  |
\*---------------------------------------------------------------------------*/
FoamFile
{
    format      ascii;
    class       surfaceScalarField;
    location    "2350";
    object      phia;
}
// * * * * * * * * * * * * * * * * * * * * * * * * * * * * * * * * * * * * * //

dimensions      [0 2 0 0 0 0 0];

internalField   nonuniform List<scalar> 
999
(
2.74805e-10
2.70832e-10
2.48832e-10
2.14829e-10
2.09517e-10
2.07598e-10
2.06872e-10
2.06366e-10
2.06777e-10
2.07345e-10
2.0794e-10
2.08519e-10
2.09062e-10
2.09557e-10
2.09976e-10
2.1028e-10
2.10436e-10
2.10425e-10
2.10237e-10
2.09863e-10
2.09289e-10
2.08503e-10
2.07512e-10
2.0635e-10
2.05077e-10
2.03774e-10
2.02524e-10
2.01397e-10
2.00446e-10
1.99695e-10
1.9915e-10
1.98795e-10
1.98603e-10
1.9854e-10
1.98571e-10
1.98661e-10
1.98778e-10
1.98898e-10
1.99002e-10
1.99077e-10
1.99115e-10
1.99114e-10
1.99074e-10
1.98997e-10
1.98889e-10
1.98755e-10
1.98599e-10
1.98426e-10
1.98241e-10
1.98048e-10
1.97848e-10
1.97644e-10
1.97438e-10
1.97231e-10
1.97023e-10
1.96814e-10
1.96604e-10
1.96393e-10
1.96182e-10
1.95969e-10
1.95755e-10
1.95541e-10
1.95325e-10
1.95107e-10
1.94888e-10
1.94669e-10
1.94448e-10
1.94226e-10
1.94003e-10
1.93779e-10
1.93555e-10
1.9333e-10
1.93104e-10
1.92878e-10
1.92651e-10
1.92423e-10
1.92195e-10
1.91966e-10
1.91738e-10
1.9151e-10
1.91282e-10
1.91057e-10
1.90832e-10
1.90609e-10
1.90387e-10
1.90166e-10
1.89942e-10
1.89706e-10
1.89442e-10
1.89118e-10
1.88694e-10
1.88118e-10
1.87375e-10
1.86534e-10
1.85762e-10
1.85213e-10
1.84898e-10
1.84746e-10
1.84676e-10
1.84648e-10
1.84642e-10
1.84643e-10
1.84654e-10
1.84667e-10
1.84684e-10
1.84702e-10
1.84723e-10
1.84744e-10
1.84767e-10
1.8479e-10
1.84813e-10
1.84837e-10
1.8486e-10
1.84883e-10
1.84905e-10
1.84927e-10
1.84948e-10
1.84969e-10
1.84988e-10
1.85006e-10
1.85023e-10
1.85039e-10
1.85053e-10
1.85066e-10
1.85076e-10
1.85085e-10
1.85091e-10
1.85095e-10
1.85096e-10
1.85096e-10
1.85096e-10
1.85094e-10
1.85084e-10
1.85073e-10
1.8506e-10
1.85045e-10
1.85027e-10
1.85009e-10
1.84988e-10
1.84967e-10
1.84944e-10
1.84922e-10
1.84899e-10
1.84876e-10
1.84854e-10
1.84834e-10
1.84814e-10
1.84796e-10
1.84781e-10
1.84767e-10
1.84756e-10
1.84748e-10
1.84742e-10
1.84739e-10
1.84738e-10
1.84738e-10
1.84739e-10
1.84742e-10
1.84752e-10
1.84762e-10
1.84774e-10
1.84788e-10
1.84803e-10
1.8482e-10
1.84838e-10
1.84857e-10
1.84877e-10
1.849e-10
1.84923e-10
1.84949e-10
1.84977e-10
1.85008e-10
1.85042e-10
1.85081e-10
1.85124e-10
1.85173e-10
1.85229e-10
1.85293e-10
1.85365e-10
1.85446e-10
1.85539e-10
1.85642e-10
1.85759e-10
1.85888e-10
1.8603e-10
1.86186e-10
1.86355e-10
1.86539e-10
1.86735e-10
1.86944e-10
1.87165e-10
1.87396e-10
1.87637e-10
1.87884e-10
1.88137e-10
1.88392e-10
1.88647e-10
1.88897e-10
1.89139e-10
1.89369e-10
1.89581e-10
1.89769e-10
1.89928e-10
1.90051e-10
1.90131e-10
1.90167e-10
1.90176e-10
1.90174e-10
1.90141e-10
1.89989e-10
1.89742e-10
1.89425e-10
1.89041e-10
1.88595e-10
1.88093e-10
1.87545e-10
1.86961e-10
1.86355e-10
1.85741e-10
1.85133e-10
1.84543e-10
1.83985e-10
1.83468e-10
1.83001e-10
1.82591e-10
1.8224e-10
1.8195e-10
1.81722e-10
1.81553e-10
1.81441e-10
1.8138e-10
1.81359e-10
1.81356e-10
1.81366e-10
1.81428e-10
1.81561e-10
1.81708e-10
1.81868e-10
1.82037e-10
1.8221e-10
1.82384e-10
1.82556e-10
1.82721e-10
1.8288e-10
1.83029e-10
1.83167e-10
1.83293e-10
1.83407e-10
1.83509e-10
1.83598e-10
1.83675e-10
1.8374e-10
1.83795e-10
1.83839e-10
1.83875e-10
1.83902e-10
1.83921e-10
1.83935e-10
1.83943e-10
1.83947e-10
1.83948e-10
1.83948e-10
1.83946e-10
1.83939e-10
1.8393e-10
1.83921e-10
1.83913e-10
1.83904e-10
1.83897e-10
1.83889e-10
1.83883e-10
1.83877e-10
1.83872e-10
1.83868e-10
1.83864e-10
1.83861e-10
1.83858e-10
1.83855e-10
1.83851e-10
1.83848e-10
1.83843e-10
1.83838e-10
1.83832e-10
1.83825e-10
1.83816e-10
1.83806e-10
1.83795e-10
1.83782e-10
1.83767e-10
1.83751e-10
1.83733e-10
1.83714e-10
1.83692e-10
1.83669e-10
1.83645e-10
1.83619e-10
1.83591e-10
1.83562e-10
1.83531e-10
1.83499e-10
1.83466e-10
1.83431e-10
1.83395e-10
1.83358e-10
1.8332e-10
1.83282e-10
1.83242e-10
1.83202e-10
1.83161e-10
1.8312e-10
1.83079e-10
1.83038e-10
1.82998e-10
1.82958e-10
1.82919e-10
1.82881e-10
1.82844e-10
1.8281e-10
1.82777e-10
1.82747e-10
1.8272e-10
1.82696e-10
1.82676e-10
1.82659e-10
1.82647e-10
1.8264e-10
1.82637e-10
1.82637e-10
1.82637e-10
1.82643e-10
1.82654e-10
1.82681e-10
1.82713e-10
1.82749e-10
1.82793e-10
1.82842e-10
1.82899e-10
1.8296e-10
1.8303e-10
1.83104e-10
1.83186e-10
1.83273e-10
1.83367e-10
1.83466e-10
1.83571e-10
1.8368e-10
1.83797e-10
1.83916e-10
1.84041e-10
1.84169e-10
1.84302e-10
1.84438e-10
1.84578e-10
1.84719e-10
1.84864e-10
1.8501e-10
1.85159e-10
1.85308e-10
1.8546e-10
1.8561e-10
1.85762e-10
1.85915e-10
1.86066e-10
1.86218e-10
1.86371e-10
1.86523e-10
1.86672e-10
1.86826e-10
1.86979e-10
1.87127e-10
1.87279e-10
1.87439e-10
1.87589e-10
1.87739e-10
1.87908e-10
1.88077e-10
1.88226e-10
1.88398e-10
1.88597e-10
1.88767e-10
1.8893e-10
1.89157e-10
1.89381e-10
1.89544e-10
1.89769e-10
1.90065e-10
1.90269e-10
1.90464e-10
1.90827e-10
1.91099e-10
1.91126e-10
1.90936e-10
1.84535e-10
1.62115e-10
2.98589e-11
2.17299e-13
1.77869e-18
1.45269e-29
2.34835e-53
1.42621e-103
8.10715e-210
0
0
0
0
0
0
0
0
0
0
0
0
0
0
0
0
0
0
0
0
0
0
0
0
0
0
0
0
0
0
0
0
0
0
0
0
0
0
0
0
0
0
0
0
0
0
0
0
0
0
0
0
0
0
0
0
0
0
0
0
0
0
0
0
0
0
0
0
0
0
0
0
0
0
0
0
0
0
0
0
0
0
0
0
0
0
0
0
0
0
0
0
0
0
0
0
0
0
0
0
0
0
0
0
0
0
0
0
0
0
0
0
0
0
0
0
0
0
0
0
0
0
0
0
0
0
0
0
0
0
0
0
0
0
0
0
0
0
0
0
0
0
0
0
0
0
0
0
0
0
0
0
0
0
0
0
0
0
0
0
0
0
0
0
0
0
0
0
0
0
0
0
0
0
0
0
0
0
0
0
0
0
0
0
0
0
0
0
0
0
0
0
0
0
0
0
0
0
0
0
0
0
0
0
0
0
0
0
0
0
0
0
0
0
0
0
0
0
0
0
0
0
0
0
0
0
0
0
0
0
0
0
0
0
0
0
0
0
0
0
0
0
0
0
0
0
0
0
0
0
0
0
0
0
0
0
0
0
0
0
0
0
0
0
0
0
0
0
0
0
0
0
0
0
0
0
0
0
0
0
0
0
0
0
0
0
0
0
0
0
0
0
0
0
0
0
0
0
0
0
0
0
0
0
0
0
0
0
0
0
0
0
0
0
0
0
0
0
0
0
0
0
0
0
0
0
0
0
0
0
0
0
0
0
0
0
0
0
0
0
0
0
0
0
0
0
0
0
0
0
0
0
0
0
0
0
0
0
0
0
0
0
0
0
0
0
0
0
0
0
0
0
0
0
0
0
0
0
0
0
0
0
0
0
0
0
0
0
0
0
0
0
0
0
0
0
0
0
0
0
0
0
0
0
0
0
0
0
0
0
0
0
0
0
0
0
0
0
0
0
0
0
0
0
0
0
0
0
0
0
0
0
0
0
0
0
0
0
0
0
0
0
0
0
0
0
0
0
0
0
0
0
0
0
0
0
0
0
0
0
0
0
0
0
0
0
0
0
0
0
0
0
0
0
0
0
0
0
0
0
0
0
0
0
0
0
0
0
0
0
0
0
0
0
0
0
0
0
0
0
0
0
0
0
0
0
0
0
0
0
0
0
0
0
0
0
0
0
0
0
0
0
0
0
0
0
0
0
0
0
0
0
0
0
0
0
0
0
0
0
0
0
0
0
0
0
0
0
0
0
0
0
0
0
0
0
0
0
0
0
0
0
0
0
0
0
0
0
0
0
0
0
0
0
0
0
0
0
0
0
0
0
0
0
0
0
0
0
0
0
0
0
0
0
0
0
0
0
)
;

boundaryField
{
    inlet
    {
        type            calculated;
        value           uniform -2.74882e-10;
    }
    outlet
    {
        type            calculated;
        value           uniform 0;
    }
    emptyWalls
    {
        type            empty;
        value           nonuniform List<scalar> 0();
    }
}


// ************************************************************************* //
