/*--------------------------------*- C++ -*----------------------------------*\
  =========                 |
  \\      /  F ield         | OpenFOAM: The Open Source CFD Toolbox
   \\    /   O peration     | Website:  https://openfoam.org
    \\  /    A nd           | Version:  9
     \\/     M anipulation  |
\*---------------------------------------------------------------------------*/
FoamFile
{
    format      ascii;
    class       surfaceScalarField;
    location    "10050";
    object      phia;
}
// * * * * * * * * * * * * * * * * * * * * * * * * * * * * * * * * * * * * * //

dimensions      [0 2 0 0 0 0 0];

internalField   nonuniform List<scalar> 
999
(
2.74912e-10
2.74797e-10
2.74794e-10
2.74624e-10
2.74537e-10
2.74399e-10
2.74208e-10
2.74131e-10
2.73933e-10
2.73848e-10
2.73554e-10
2.72643e-10
2.69288e-10
2.489e-10
2.19541e-10
2.15538e-10
2.14823e-10
2.14734e-10
2.14252e-10
2.13288e-10
2.12342e-10
2.11303e-10
2.09942e-10
2.08744e-10
2.07759e-10
2.07005e-10
2.06474e-10
2.06133e-10
2.05955e-10
2.05846e-10
2.0579e-10
2.05759e-10
2.05729e-10
2.05686e-10
2.05624e-10
2.05546e-10
2.05462e-10
2.05388e-10
2.05335e-10
2.05281e-10
2.05216e-10
2.05144e-10
2.05066e-10
2.04986e-10
2.04905e-10
2.04823e-10
2.04742e-10
2.04661e-10
2.04582e-10
2.04505e-10
2.04429e-10
2.04355e-10
2.04284e-10
2.04214e-10
2.04145e-10
2.04079e-10
2.04014e-10
2.03951e-10
2.03888e-10
2.03827e-10
2.03768e-10
2.03709e-10
2.03652e-10
2.03596e-10
2.03541e-10
2.03488e-10
2.03435e-10
2.03384e-10
2.03334e-10
2.03285e-10
2.03236e-10
2.03189e-10
2.03142e-10
2.03096e-10
2.03051e-10
2.03007e-10
2.02963e-10
2.02921e-10
2.02879e-10
2.02839e-10
2.02799e-10
2.0276e-10
2.02723e-10
2.02686e-10
2.0265e-10
2.02616e-10
2.02582e-10
2.0255e-10
2.02519e-10
2.02488e-10
2.02459e-10
2.02431e-10
2.02404e-10
2.02378e-10
2.02353e-10
2.02328e-10
2.02304e-10
2.02281e-10
2.02258e-10
2.02235e-10
2.02211e-10
2.02187e-10
2.02162e-10
2.02136e-10
2.02109e-10
2.02082e-10
2.02056e-10
2.02032e-10
2.0201e-10
2.01991e-10
2.01974e-10
2.01959e-10
2.01946e-10
2.01935e-10
2.01925e-10
2.01917e-10
2.01913e-10
2.01914e-10
2.01923e-10
2.01944e-10
2.01978e-10
2.02028e-10
2.02098e-10
2.02187e-10
2.02296e-10
2.02426e-10
2.02576e-10
2.02742e-10
2.02923e-10
2.03115e-10
2.03314e-10
2.03515e-10
2.03714e-10
2.03903e-10
2.04077e-10
2.0423e-10
2.04355e-10
2.04446e-10
2.04499e-10
2.04507e-10
2.0447e-10
2.04385e-10
2.04254e-10
2.04078e-10
2.03863e-10
2.03614e-10
2.03338e-10
2.03044e-10
2.0274e-10
2.02434e-10
2.02134e-10
2.01847e-10
2.01577e-10
2.0133e-10
2.01109e-10
2.00914e-10
2.00745e-10
2.00603e-10
2.00486e-10
2.0039e-10
2.00314e-10
2.00254e-10
2.00208e-10
2.00171e-10
2.00142e-10
2.00117e-10
2.00095e-10
2.00073e-10
2.0005e-10
2.00024e-10
1.99995e-10
1.99962e-10
1.99924e-10
1.99882e-10
1.99836e-10
1.99786e-10
1.99731e-10
1.99673e-10
1.99612e-10
1.99548e-10
1.99481e-10
1.99413e-10
1.99343e-10
1.99272e-10
1.99199e-10
1.99126e-10
1.99053e-10
1.98979e-10
1.98905e-10
1.98832e-10
1.98759e-10
1.98686e-10
1.98613e-10
1.98542e-10
1.98471e-10
1.98401e-10
1.98333e-10
1.98265e-10
1.98199e-10
1.98134e-10
1.9807e-10
1.98007e-10
1.97946e-10
1.97886e-10
1.97828e-10
1.97771e-10
1.97714e-10
1.97659e-10
1.97605e-10
1.97552e-10
1.975e-10
1.97449e-10
1.97398e-10
1.97348e-10
1.97298e-10
1.97249e-10
1.97201e-10
1.97153e-10
1.97105e-10
1.97058e-10
1.97011e-10
1.96965e-10
1.96919e-10
1.96874e-10
1.96829e-10
1.96784e-10
1.9674e-10
1.96696e-10
1.96653e-10
1.96611e-10
1.96569e-10
1.96528e-10
1.96488e-10
1.96448e-10
1.96408e-10
1.9637e-10
1.96332e-10
1.96295e-10
1.96259e-10
1.96223e-10
1.96188e-10
1.96154e-10
1.9612e-10
1.96087e-10
1.96054e-10
1.96022e-10
1.95991e-10
1.95959e-10
1.95928e-10
1.95898e-10
1.95868e-10
1.95838e-10
1.95808e-10
1.95778e-10
1.95749e-10
1.9572e-10
1.95692e-10
1.95664e-10
1.95636e-10
1.95609e-10
1.95583e-10
1.95558e-10
1.95533e-10
1.9551e-10
1.95487e-10
1.95466e-10
1.95447e-10
1.95429e-10
1.95414e-10
1.95402e-10
1.95393e-10
1.95388e-10
1.95387e-10
1.95391e-10
1.954e-10
1.95416e-10
1.95438e-10
1.95468e-10
1.95505e-10
1.95549e-10
1.95602e-10
1.95662e-10
1.9573e-10
1.95806e-10
1.95888e-10
1.95976e-10
1.9607e-10
1.96168e-10
1.96269e-10
1.96371e-10
1.96473e-10
1.96573e-10
1.96669e-10
1.96759e-10
1.96842e-10
1.96914e-10
1.96975e-10
1.97023e-10
1.97054e-10
1.97069e-10
1.97066e-10
1.97043e-10
1.97001e-10
1.96938e-10
1.96855e-10
1.96753e-10
1.96632e-10
1.96494e-10
1.96341e-10
1.96174e-10
1.95995e-10
1.95808e-10
1.95615e-10
1.95418e-10
1.95219e-10
1.95022e-10
1.94827e-10
1.94638e-10
1.94455e-10
1.9428e-10
1.94114e-10
1.93957e-10
1.93811e-10
1.93674e-10
1.93549e-10
1.93432e-10
1.93326e-10
1.93228e-10
1.93138e-10
1.93055e-10
1.92978e-10
1.92908e-10
1.92841e-10
1.92779e-10
1.92719e-10
1.92662e-10
1.92606e-10
1.92551e-10
1.92497e-10
1.92442e-10
1.92387e-10
1.92332e-10
1.92274e-10
1.92217e-10
1.92157e-10
1.92097e-10
1.92034e-10
1.9197e-10
1.91905e-10
1.91838e-10
1.9177e-10
1.91701e-10
1.9163e-10
1.91559e-10
1.91487e-10
1.91413e-10
1.91339e-10
1.91264e-10
1.91189e-10
1.91114e-10
1.91038e-10
1.90962e-10
1.90886e-10
1.9081e-10
1.90734e-10
1.90658e-10
1.90583e-10
1.90508e-10
1.90434e-10
1.9036e-10
1.90287e-10
1.90214e-10
1.90143e-10
1.90073e-10
1.90003e-10
1.89936e-10
1.89869e-10
1.89804e-10
1.89742e-10
1.89681e-10
1.89623e-10
1.89567e-10
1.89514e-10
1.89464e-10
1.89417e-10
1.89374e-10
1.89334e-10
1.89298e-10
1.89265e-10
1.89235e-10
1.89209e-10
1.89184e-10
1.89162e-10
1.89139e-10
1.89113e-10
1.8908e-10
1.89031e-10
1.88953e-10
1.88823e-10
1.88609e-10
1.88266e-10
1.87754e-10
1.87079e-10
1.86331e-10
1.85674e-10
1.85222e-10
1.84969e-10
1.84845e-10
1.84787e-10
1.84762e-10
1.84751e-10
1.84748e-10
1.84749e-10
1.84752e-10
1.84756e-10
1.84761e-10
1.84766e-10
1.84772e-10
1.84778e-10
1.84785e-10
1.84791e-10
1.84799e-10
1.84806e-10
1.84814e-10
1.84822e-10
1.84831e-10
1.8484e-10
1.84849e-10
1.84858e-10
1.84868e-10
1.84878e-10
1.84888e-10
1.84899e-10
1.84909e-10
1.8492e-10
1.84932e-10
1.84943e-10
1.84955e-10
1.84967e-10
1.8498e-10
1.84992e-10
1.85005e-10
1.85019e-10
1.85033e-10
1.85047e-10
1.85062e-10
1.85078e-10
1.85094e-10
1.85111e-10
1.85129e-10
1.85147e-10
1.85167e-10
1.85187e-10
1.85209e-10
1.85233e-10
1.85258e-10
1.85284e-10
1.85313e-10
1.85343e-10
1.85376e-10
1.85411e-10
1.85449e-10
1.8549e-10
1.85533e-10
1.8558e-10
1.8563e-10
1.85683e-10
1.8574e-10
1.85801e-10
1.85865e-10
1.85933e-10
1.86004e-10
1.86079e-10
1.86158e-10
1.86239e-10
1.86324e-10
1.86411e-10
1.86501e-10
1.86594e-10
1.86687e-10
1.86782e-10
1.86878e-10
1.86973e-10
1.87068e-10
1.87162e-10
1.87254e-10
1.87344e-10
1.87429e-10
1.87511e-10
1.87588e-10
1.87659e-10
1.87723e-10
1.8778e-10
1.87829e-10
1.87869e-10
1.87899e-10
1.8792e-10
1.87931e-10
1.87935e-10
1.87935e-10
1.87933e-10
1.87912e-10
1.87875e-10
1.87827e-10
1.87771e-10
1.87707e-10
1.87635e-10
1.87557e-10
1.87472e-10
1.87383e-10
1.8729e-10
1.87193e-10
1.87095e-10
1.86995e-10
1.86895e-10
1.86796e-10
1.86699e-10
1.86603e-10
1.86511e-10
1.86422e-10
1.86338e-10
1.86258e-10
1.86182e-10
1.86112e-10
1.86046e-10
1.85986e-10
1.85931e-10
1.85881e-10
1.85836e-10
1.85795e-10
1.85759e-10
1.85727e-10
1.85698e-10
1.85673e-10
1.85652e-10
1.85632e-10
1.85615e-10
1.85601e-10
1.85588e-10
1.85576e-10
1.85565e-10
1.85556e-10
1.85547e-10
1.85538e-10
1.8553e-10
1.85521e-10
1.85513e-10
1.85504e-10
1.85495e-10
1.85485e-10
1.85475e-10
1.85464e-10
1.85453e-10
1.85441e-10
1.85429e-10
1.85416e-10
1.85402e-10
1.85388e-10
1.85373e-10
1.85358e-10
1.85343e-10
1.85327e-10
1.8531e-10
1.85294e-10
1.85277e-10
1.85259e-10
1.85242e-10
1.85225e-10
1.85207e-10
1.85189e-10
1.85172e-10
1.85154e-10
1.85137e-10
1.85119e-10
1.85102e-10
1.85085e-10
1.85068e-10
1.85051e-10
1.85035e-10
1.85019e-10
1.85004e-10
1.84988e-10
1.84974e-10
1.84959e-10
1.84945e-10
1.84932e-10
1.84919e-10
1.84907e-10
1.84895e-10
1.84884e-10
1.84873e-10
1.84863e-10
1.84853e-10
1.84844e-10
1.84836e-10
1.84829e-10
1.84822e-10
1.84815e-10
1.84809e-10
1.84804e-10
1.84799e-10
1.84795e-10
1.84792e-10
1.84789e-10
1.84787e-10
1.84785e-10
1.84783e-10
1.84783e-10
1.84782e-10
1.84782e-10
1.84782e-10
1.84782e-10
1.84784e-10
1.84786e-10
1.84788e-10
1.8479e-10
1.84793e-10
1.84796e-10
1.848e-10
1.84804e-10
1.84808e-10
1.84812e-10
1.84817e-10
1.84822e-10
1.84827e-10
1.84832e-10
1.84838e-10
1.84844e-10
1.8485e-10
1.84857e-10
1.84864e-10
1.84871e-10
1.84878e-10
1.84886e-10
1.84894e-10
1.84902e-10
1.8491e-10
1.84919e-10
1.84928e-10
1.84937e-10
1.84947e-10
1.84957e-10
1.84967e-10
1.84977e-10
1.84988e-10
1.85e-10
1.85011e-10
1.85024e-10
1.85036e-10
1.85049e-10
1.85063e-10
1.85078e-10
1.85093e-10
1.85108e-10
1.85125e-10
1.85142e-10
1.85161e-10
1.8518e-10
1.85201e-10
1.85222e-10
1.85245e-10
1.8527e-10
1.85296e-10
1.85324e-10
1.85353e-10
1.85384e-10
1.85417e-10
1.85453e-10
1.8549e-10
1.8553e-10
1.85573e-10
1.85617e-10
1.85665e-10
1.85715e-10
1.85767e-10
1.85823e-10
1.85881e-10
1.85942e-10
1.86005e-10
1.86071e-10
1.86139e-10
1.8621e-10
1.86282e-10
1.86357e-10
1.86433e-10
1.86511e-10
1.8659e-10
1.8667e-10
1.8675e-10
1.8683e-10
1.86909e-10
1.86988e-10
1.87066e-10
1.87141e-10
1.87215e-10
1.87285e-10
1.87352e-10
1.87416e-10
1.87474e-10
1.87529e-10
1.87577e-10
1.8762e-10
1.87657e-10
1.87687e-10
1.8771e-10
1.87726e-10
1.87735e-10
1.87737e-10
1.87738e-10
1.87736e-10
1.87725e-10
1.87695e-10
1.8766e-10
1.87619e-10
1.8757e-10
1.87516e-10
1.87457e-10
1.87393e-10
1.87324e-10
1.87253e-10
1.87178e-10
1.87101e-10
1.87022e-10
1.86943e-10
1.86864e-10
1.86785e-10
1.86707e-10
1.8663e-10
1.86555e-10
1.86483e-10
1.86414e-10
1.86347e-10
1.86284e-10
1.86225e-10
1.86169e-10
1.86116e-10
1.86067e-10
1.86022e-10
1.8598e-10
1.85942e-10
1.85906e-10
1.85874e-10
1.85845e-10
1.85818e-10
1.85794e-10
1.85772e-10
1.85752e-10
1.85734e-10
1.85717e-10
1.85701e-10
1.85687e-10
1.85673e-10
1.8566e-10
1.85648e-10
1.85636e-10
1.85624e-10
1.85612e-10
1.856e-10
1.85588e-10
1.85576e-10
1.85564e-10
1.85551e-10
1.85538e-10
1.85524e-10
1.8551e-10
1.85496e-10
1.85481e-10
1.85465e-10
1.8545e-10
1.85433e-10
1.85417e-10
1.854e-10
1.85383e-10
1.85365e-10
1.85347e-10
1.85329e-10
1.8531e-10
1.85292e-10
1.85273e-10
1.85254e-10
1.85235e-10
1.85216e-10
1.85197e-10
1.85178e-10
1.85159e-10
1.8514e-10
1.85121e-10
1.85103e-10
1.85084e-10
1.85066e-10
1.85048e-10
1.8503e-10
1.85012e-10
1.84995e-10
1.84977e-10
1.84961e-10
1.84944e-10
1.84928e-10
1.84913e-10
1.84897e-10
1.84883e-10
1.84868e-10
1.84855e-10
1.84841e-10
1.84829e-10
1.84816e-10
1.84805e-10
1.84794e-10
1.84783e-10
1.84773e-10
1.84764e-10
1.84755e-10
1.84747e-10
1.8474e-10
1.84733e-10
1.84727e-10
1.84722e-10
1.84717e-10
1.84713e-10
1.84709e-10
1.84706e-10
1.84704e-10
1.84702e-10
1.84701e-10
1.84701e-10
1.84701e-10
1.84701e-10
1.84701e-10
1.84703e-10
1.84706e-10
1.84709e-10
1.84712e-10
1.84716e-10
1.84721e-10
1.84726e-10
1.84732e-10
1.84738e-10
1.84744e-10
1.84751e-10
1.84758e-10
1.84766e-10
1.84774e-10
1.84783e-10
1.84792e-10
1.84802e-10
1.84812e-10
1.84822e-10
1.84833e-10
1.84844e-10
1.84856e-10
1.84868e-10
1.8488e-10
1.84893e-10
1.84907e-10
1.84921e-10
1.84935e-10
1.84951e-10
1.84967e-10
1.84983e-10
1.85e-10
1.85018e-10
1.85037e-10
1.85057e-10
1.85078e-10
1.85099e-10
1.85122e-10
1.85146e-10
1.85171e-10
1.85197e-10
1.85225e-10
1.85254e-10
1.85285e-10
1.85318e-10
1.85352e-10
1.85387e-10
1.85425e-10
1.85465e-10
1.85506e-10
1.8555e-10
1.85595e-10
1.85643e-10
1.85692e-10
1.85744e-10
1.85798e-10
1.85853e-10
1.85911e-10
1.85971e-10
1.86032e-10
1.86096e-10
1.86161e-10
1.86227e-10
1.86295e-10
1.86363e-10
1.86433e-10
1.86503e-10
1.86574e-10
1.86645e-10
1.86715e-10
1.86786e-10
1.86855e-10
1.86923e-10
1.8699e-10
1.87055e-10
1.87118e-10
1.87178e-10
1.87235e-10
1.87288e-10
1.87338e-10
1.87385e-10
1.87426e-10
1.87463e-10
1.87495e-10
1.87522e-10
1.87543e-10
1.87559e-10
1.87568e-10
1.87573e-10
1.87574e-10
1.87573e-10
1.87569e-10
1.87551e-10
1.87526e-10
1.87496e-10
1.8746e-10
1.87419e-10
1.87374e-10
1.87324e-10
1.87271e-10
1.87214e-10
1.87155e-10
1.87093e-10
1.87029e-10
1.86964e-10
1.86897e-10
1.86831e-10
1.86764e-10
1.86698e-10
1.86632e-10
1.86568e-10
1.86505e-10
1.86444e-10
1.86384e-10
1.86327e-10
1.86273e-10
1.86221e-10
1.86171e-10
1.86124e-10
1.8608e-10
1.86038e-10
1.85999e-10
1.85962e-10
1.85927e-10
1.85895e-10
1.85865e-10
1.85836e-10
1.8581e-10
1.85785e-10
1.85761e-10
1.85739e-10
1.85718e-10
1.85698e-10
1.85679e-10
1.85661e-10
1.85643e-10
1.85625e-10
1.85608e-10
1.85591e-10
1.85574e-10
1.85557e-10
1.8554e-10
1.85523e-10
1.85505e-10
1.85488e-10
1.8547e-10
1.85453e-10
1.85434e-10
1.85416e-10
1.85397e-10
1.85378e-10
1.85358e-10
1.85339e-10
1.85319e-10
1.85299e-10
1.85279e-10
1.85258e-10
1.85238e-10
1.85217e-10
1.85196e-10
1.85175e-10
1.85155e-10
1.85134e-10
1.85113e-10
1.85092e-10
1.85072e-10
1.85051e-10
1.85031e-10
1.85011e-10
1.84991e-10
1.84971e-10
)
;

boundaryField
{
    inlet
    {
        type            calculated;
        value           uniform -2.74882e-10;
    }
    outlet
    {
        type            calculated;
        value           uniform 1.84952e-10;
    }
    emptyWalls
    {
        type            empty;
        value           nonuniform List<scalar> 0();
    }
}


// ************************************************************************* //
