/*--------------------------------*- C++ -*----------------------------------*\
  =========                 |
  \\      /  F ield         | OpenFOAM: The Open Source CFD Toolbox
   \\    /   O peration     | Website:  https://openfoam.org
    \\  /    A nd           | Version:  9
     \\/     M anipulation  |
\*---------------------------------------------------------------------------*/
FoamFile
{
    format      ascii;
    class       volScalarField;
    location    "10050";
    object      Sb;
}
// * * * * * * * * * * * * * * * * * * * * * * * * * * * * * * * * * * * * * //

dimensions      [0 0 0 0 0 0 0];

internalField   nonuniform List<scalar> 
1000
(
0.350588
0.351808
0.353522
0.354863
0.3566
0.357799
0.359448
0.360503
0.361807
0.362701
0.363881
0.366176
0.373928
0.414685
0.585613
0.651236
0.665321
0.671018
0.674285
0.676548
0.678226
0.679476
0.680468
0.681241
0.681825
0.682255
0.682561
0.682761
0.682872
0.6829
0.682858
0.682729
0.682511
0.682194
0.681752
0.681138
0.68028
0.679092
0.677524
0.675641
0.67359
0.67145
0.669265
0.667061
0.664854
0.662656
0.660473
0.65831
0.656169
0.654052
0.65196
0.649894
0.647854
0.645839
0.643851
0.641887
0.639949
0.638035
0.636146
0.63428
0.632437
0.630617
0.628819
0.627043
0.625288
0.623554
0.62184
0.620146
0.618471
0.616815
0.615178
0.613559
0.611957
0.610372
0.608805
0.607254
0.605719
0.6042
0.602696
0.601208
0.599734
0.598274
0.596829
0.595398
0.59398
0.592576
0.591184
0.589806
0.58844
0.587086
0.585744
0.584413
0.583095
0.581788
0.580492
0.579206
0.577932
0.576668
0.575414
0.57417
0.572937
0.571713
0.570499
0.569294
0.568098
0.566912
0.565735
0.564566
0.563406
0.562254
0.56111
0.559975
0.558847
0.557727
0.556615
0.555511
0.554414
0.553324
0.552241
0.551165
0.550095
0.549031
0.547973
0.546921
0.545875
0.544834
0.543799
0.542769
0.541745
0.540726
0.539713
0.538705
0.537704
0.536708
0.535719
0.534737
0.533761
0.532792
0.53183
0.530875
0.529928
0.528988
0.528055
0.527129
0.526211
0.525298
0.524392
0.523491
0.522596
0.521705
0.520819
0.519936
0.519057
0.518182
0.517309
0.51644
0.515573
0.514709
0.513848
0.51299
0.512134
0.511282
0.510433
0.509587
0.508744
0.507905
0.507069
0.506237
0.505408
0.504583
0.503761
0.502943
0.502128
0.501317
0.500509
0.499704
0.498903
0.498105
0.49731
0.496519
0.49573
0.494945
0.494162
0.493383
0.492606
0.491832
0.491061
0.490292
0.489526
0.488763
0.488003
0.487245
0.486489
0.485736
0.484985
0.484237
0.483491
0.482747
0.482006
0.481267
0.48053
0.479795
0.479063
0.478332
0.477604
0.476877
0.476153
0.475431
0.474711
0.473992
0.473276
0.472561
0.471849
0.471138
0.470429
0.469722
0.469017
0.468313
0.467611
0.466911
0.466213
0.465516
0.464821
0.464127
0.463436
0.462745
0.462056
0.461369
0.460683
0.459999
0.459316
0.458634
0.457954
0.457275
0.456598
0.455922
0.455247
0.454573
0.453901
0.45323
0.45256
0.451891
0.451223
0.450557
0.449891
0.449227
0.448564
0.447902
0.447241
0.446581
0.445921
0.445263
0.444606
0.44395
0.443294
0.44264
0.441986
0.441333
0.440681
0.44003
0.439379
0.43873
0.438081
0.437432
0.436784
0.436137
0.435491
0.434845
0.434199
0.433554
0.43291
0.432266
0.431622
0.430979
0.430335
0.429692
0.42905
0.428407
0.427765
0.427123
0.426481
0.425838
0.425196
0.424554
0.423912
0.42327
0.422628
0.421986
0.421344
0.420703
0.420061
0.419419
0.418778
0.418136
0.417495
0.416855
0.416214
0.415574
0.414934
0.414295
0.413656
0.413017
0.412379
0.411741
0.411104
0.410467
0.40983
0.409193
0.408556
0.407919
0.407282
0.406645
0.406008
0.40537
0.404731
0.404092
0.403452
0.402811
0.402169
0.401527
0.400883
0.400238
0.399591
0.398944
0.398295
0.397645
0.396993
0.39634
0.395686
0.39503
0.394373
0.393714
0.393054
0.392393
0.39173
0.391065
0.390399
0.389731
0.389062
0.388391
0.387718
0.387044
0.386368
0.38569
0.38501
0.384328
0.383645
0.382959
0.382271
0.381581
0.380889
0.380195
0.379498
0.378799
0.378098
0.377394
0.376688
0.375979
0.375268
0.374554
0.373837
0.373118
0.372397
0.371673
0.370947
0.370219
0.369489
0.368757
0.368024
0.36729
0.366555
0.365822
0.365089
0.364359
0.363633
0.362913
0.3622
0.361496
0.360806
0.36013
0.359474
0.358839
0.35823
0.357651
0.357104
0.356593
0.35612
0.355687
0.355295
0.354942
0.354625
0.354339
0.354075
0.353813
0.353525
0.353159
0.352628
0.351782
0.350365
0.347955
0.343912
0.337379
0.327517
0.314103
0.298275
0.282542
0.269468
0.260217
0.254436
0.251114
0.249299
0.248337
0.247834
0.247573
0.247439
0.24737
0.247334
0.247316
0.247306
0.247301
0.247299
0.247297
0.247297
0.247296
0.247296
0.247296
0.247296
0.247296
0.247296
0.247296
0.247296
0.247295
0.247295
0.247295
0.247295
0.247295
0.247295
0.247295
0.247295
0.247295
0.247295
0.247295
0.247294
0.247294
0.247294
0.247294
0.247294
0.247294
0.247294
0.247294
0.247293
0.247293
0.247293
0.247293
0.247293
0.247293
0.247292
0.247292
0.247292
0.247292
0.247291
0.247291
0.24729
0.24729
0.24729
0.247289
0.247289
0.247288
0.247287
0.247287
0.247286
0.247285
0.247285
0.247284
0.247283
0.247282
0.247281
0.24728
0.247279
0.247278
0.247277
0.247276
0.247275
0.247274
0.247273
0.247272
0.247271
0.24727
0.247269
0.247268
0.247267
0.247267
0.247266
0.247265
0.247264
0.247264
0.247264
0.247263
0.247263
0.247263
0.247262
0.247262
0.247262
0.247262
0.247263
0.247263
0.247263
0.247264
0.247264
0.247265
0.247265
0.247266
0.247267
0.247267
0.247268
0.247269
0.247269
0.24727
0.247271
0.247271
0.247272
0.247273
0.247273
0.247274
0.247274
0.247275
0.247275
0.247276
0.247276
0.247276
0.247277
0.247277
0.247277
0.247277
0.247277
0.247278
0.247278
0.247278
0.247278
0.247278
0.247278
0.247278
0.247279
0.247279
0.247279
0.247279
0.247279
0.247279
0.247279
0.247279
0.247279
0.24728
0.24728
0.24728
0.24728
0.24728
0.24728
0.247281
0.247281
0.247281
0.247281
0.247281
0.247282
0.247282
0.247282
0.247282
0.247282
0.247283
0.247283
0.247283
0.247283
0.247283
0.247284
0.247284
0.247284
0.247284
0.247284
0.247285
0.247285
0.247285
0.247285
0.247285
0.247285
0.247285
0.247286
0.247286
0.247286
0.247286
0.247286
0.247286
0.247286
0.247286
0.247286
0.247286
0.247287
0.247287
0.247287
0.247287
0.247287
0.247287
0.247287
0.247287
0.247287
0.247287
0.247287
0.247287
0.247287
0.247287
0.247287
0.247287
0.247287
0.247287
0.247287
0.247287
0.247287
0.247287
0.247287
0.247287
0.247287
0.247287
0.247287
0.247286
0.247286
0.247286
0.247286
0.247286
0.247286
0.247286
0.247286
0.247286
0.247286
0.247286
0.247285
0.247285
0.247285
0.247285
0.247285
0.247285
0.247285
0.247285
0.247285
0.247285
0.247285
0.247285
0.247285
0.247285
0.247285
0.247285
0.247285
0.247285
0.247285
0.247285
0.247285
0.247285
0.247285
0.247285
0.247285
0.247285
0.247285
0.247285
0.247285
0.247285
0.247285
0.247284
0.247284
0.247284
0.247284
0.247283
0.247283
0.247283
0.247282
0.247282
0.247282
0.247281
0.247281
0.24728
0.24728
0.247279
0.247279
0.247278
0.247277
0.247277
0.247276
0.247276
0.247275
0.247274
0.247274
0.247273
0.247272
0.247272
0.247271
0.24727
0.24727
0.247269
0.247268
0.247268
0.247267
0.247267
0.247266
0.247265
0.247265
0.247265
0.247264
0.247264
0.247264
0.247264
0.247263
0.247263
0.247263
0.247263
0.247263
0.247263
0.247264
0.247264
0.247264
0.247265
0.247265
0.247266
0.247266
0.247267
0.247267
0.247268
0.247269
0.247269
0.24727
0.24727
0.247271
0.247272
0.247272
0.247273
0.247273
0.247274
0.247274
0.247275
0.247275
0.247276
0.247276
0.247277
0.247277
0.247277
0.247277
0.247278
0.247278
0.247278
0.247278
0.247279
0.247279
0.247279
0.247279
0.247279
0.247279
0.247279
0.24728
0.24728
0.24728
0.24728
0.24728
0.24728
0.24728
0.24728
0.24728
0.24728
0.247281
0.247281
0.247281
0.247281
0.247281
0.247281
0.247281
0.247281
0.247282
0.247282
0.247282
0.247282
0.247282
0.247282
0.247282
0.247283
0.247283
0.247283
0.247283
0.247283
0.247283
0.247284
0.247284
0.247284
0.247284
0.247284
0.247284
0.247285
0.247285
0.247285
0.247285
0.247285
0.247285
0.247285
0.247286
0.247286
0.247286
0.247286
0.247286
0.247286
0.247286
0.247286
0.247286
0.247287
0.247287
0.247287
0.247287
0.247287
0.247287
0.247287
0.247287
0.247287
0.247287
0.247287
0.247287
0.247287
0.247287
0.247287
0.247287
0.247287
0.247287
0.247287
0.247287
0.247287
0.247287
0.247287
0.247287
0.247287
0.247287
0.247287
0.247287
0.247287
0.247287
0.247287
0.247287
0.247287
0.247287
0.247287
0.247287
0.247287
0.247287
0.247287
0.247287
0.247287
0.247287
0.247287
0.247287
0.247286
0.247286
0.247286
0.247286
0.247286
0.247286
0.247286
0.247286
0.247286
0.247286
0.247286
0.247286
0.247286
0.247285
0.247285
0.247285
0.247285
0.247285
0.247285
0.247284
0.247284
0.247284
0.247284
0.247283
0.247283
0.247283
0.247283
0.247282
0.247282
0.247281
0.247281
0.247281
0.24728
0.24728
0.247279
0.247279
0.247278
0.247278
0.247277
0.247277
0.247276
0.247276
0.247275
0.247275
0.247274
0.247274
0.247273
0.247272
0.247272
0.247271
0.247271
0.24727
0.247269
0.247269
0.247268
0.247268
0.247267
0.247267
0.247267
0.247266
0.247266
0.247265
0.247265
0.247265
0.247265
0.247265
0.247264
0.247264
0.247264
0.247264
0.247264
0.247265
0.247265
0.247265
0.247265
0.247265
0.247266
0.247266
0.247267
0.247267
0.247268
0.247268
0.247269
0.247269
0.24727
0.24727
0.247271
0.247271
0.247272
0.247272
0.247273
0.247273
0.247274
0.247274
0.247275
0.247275
0.247276
0.247276
0.247276
0.247277
0.247277
0.247277
0.247278
0.247278
0.247278
0.247278
0.247279
0.247279
0.247279
0.247279
0.247279
0.24728
0.24728
0.24728
0.24728
0.24728
0.24728
0.24728
0.247281
0.247281
0.247281
0.247281
0.247281
0.247281
0.247281
0.247282
0.247282
0.247282
0.247282
0.247282
0.247282
0.247283
0.247283
0.247283
0.247283
0.247283
0.247283
0.247283
0.247284
0.247284
0.247284
0.247284
0.247284
0.247284
0.247285
0.247285
0.247285
0.247285
0.247285
0.247285
0.247286
)
;

boundaryField
{
    inlet
    {
        type            fixedValue;
        value           uniform 0.35;
    }
    outlet
    {
        type            zeroGradient;
    }
    emptyWalls
    {
        type            empty;
    }
}


// ************************************************************************* //
