/*--------------------------------*- C++ -*----------------------------------*\
  =========                 |
  \\      /  F ield         | OpenFOAM: The Open Source CFD Toolbox
   \\    /   O peration     | Website:  https://openfoam.org
    \\  /    A nd           | Version:  9
     \\/     M anipulation  |
\*---------------------------------------------------------------------------*/
FoamFile
{
    format      ascii;
    class       volVectorField;
    location    "10050";
    object      Ua;
}
// * * * * * * * * * * * * * * * * * * * * * * * * * * * * * * * * * * * * * //

dimensions      [0 0 0 0 0 0 0];

internalField   nonuniform List<vector> 
1000
(
(2.74919e-06 0 0)
(2.74855e-06 0 0)
(2.74796e-06 0 0)
(2.74709e-06 0 0)
(2.74581e-06 0 0)
(2.74468e-06 0 0)
(2.74304e-06 0 0)
(2.7417e-06 0 0)
(2.74032e-06 0 0)
(2.7389e-06 0 0)
(2.73701e-06 0 0)
(2.73098e-06 0 0)
(2.70966e-06 0 0)
(2.59094e-06 0 0)
(2.34221e-06 0 0)
(2.1754e-06 0 0)
(2.15181e-06 0 0)
(2.14779e-06 0 0)
(2.14493e-06 0 0)
(2.1377e-06 0 0)
(2.12815e-06 0 0)
(2.11822e-06 0 0)
(2.10623e-06 0 0)
(2.09343e-06 0 0)
(2.08251e-06 0 0)
(2.07382e-06 0 0)
(2.06739e-06 0 0)
(2.06303e-06 0 0)
(2.06044e-06 0 0)
(2.059e-06 0 0)
(2.05818e-06 0 0)
(2.05774e-06 0 0)
(2.05744e-06 0 0)
(2.05708e-06 0 0)
(2.05655e-06 0 0)
(2.05585e-06 0 0)
(2.05504e-06 0 0)
(2.05425e-06 0 0)
(2.05362e-06 0 0)
(2.05308e-06 0 0)
(2.05249e-06 0 0)
(2.0518e-06 0 0)
(2.05105e-06 0 0)
(2.05026e-06 0 0)
(2.04946e-06 0 0)
(2.04864e-06 0 0)
(2.04782e-06 0 0)
(2.04701e-06 0 0)
(2.04622e-06 0 0)
(2.04543e-06 0 0)
(2.04467e-06 0 0)
(2.04392e-06 0 0)
(2.04319e-06 0 0)
(2.04249e-06 0 0)
(2.0418e-06 0 0)
(2.04112e-06 0 0)
(2.04047e-06 0 0)
(2.03982e-06 0 0)
(2.03919e-06 0 0)
(2.03858e-06 0 0)
(2.03798e-06 0 0)
(2.03738e-06 0 0)
(2.03681e-06 0 0)
(2.03624e-06 0 0)
(2.03569e-06 0 0)
(2.03514e-06 0 0)
(2.03461e-06 0 0)
(2.0341e-06 0 0)
(2.03359e-06 0 0)
(2.03309e-06 0 0)
(2.03261e-06 0 0)
(2.03213e-06 0 0)
(2.03166e-06 0 0)
(2.03119e-06 0 0)
(2.03074e-06 0 0)
(2.03029e-06 0 0)
(2.02985e-06 0 0)
(2.02942e-06 0 0)
(2.029e-06 0 0)
(2.02859e-06 0 0)
(2.02819e-06 0 0)
(2.02779e-06 0 0)
(2.02741e-06 0 0)
(2.02704e-06 0 0)
(2.02668e-06 0 0)
(2.02633e-06 0 0)
(2.02599e-06 0 0)
(2.02566e-06 0 0)
(2.02534e-06 0 0)
(2.02503e-06 0 0)
(2.02474e-06 0 0)
(2.02445e-06 0 0)
(2.02418e-06 0 0)
(2.02391e-06 0 0)
(2.02365e-06 0 0)
(2.0234e-06 0 0)
(2.02316e-06 0 0)
(2.02293e-06 0 0)
(2.0227e-06 0 0)
(2.02246e-06 0 0)
(2.02223e-06 0 0)
(2.02199e-06 0 0)
(2.02174e-06 0 0)
(2.02149e-06 0 0)
(2.02122e-06 0 0)
(2.02095e-06 0 0)
(2.02069e-06 0 0)
(2.02044e-06 0 0)
(2.02021e-06 0 0)
(2.02e-06 0 0)
(2.01982e-06 0 0)
(2.01967e-06 0 0)
(2.01953e-06 0 0)
(2.01941e-06 0 0)
(2.0193e-06 0 0)
(2.01921e-06 0 0)
(2.01915e-06 0 0)
(2.01913e-06 0 0)
(2.01919e-06 0 0)
(2.01933e-06 0 0)
(2.01961e-06 0 0)
(2.02003e-06 0 0)
(2.02063e-06 0 0)
(2.02142e-06 0 0)
(2.02242e-06 0 0)
(2.02361e-06 0 0)
(2.02501e-06 0 0)
(2.02659e-06 0 0)
(2.02832e-06 0 0)
(2.03019e-06 0 0)
(2.03214e-06 0 0)
(2.03415e-06 0 0)
(2.03614e-06 0 0)
(2.03808e-06 0 0)
(2.0399e-06 0 0)
(2.04154e-06 0 0)
(2.04293e-06 0 0)
(2.04401e-06 0 0)
(2.04472e-06 0 0)
(2.04503e-06 0 0)
(2.04489e-06 0 0)
(2.04427e-06 0 0)
(2.04319e-06 0 0)
(2.04166e-06 0 0)
(2.0397e-06 0 0)
(2.03738e-06 0 0)
(2.03476e-06 0 0)
(2.03191e-06 0 0)
(2.02892e-06 0 0)
(2.02587e-06 0 0)
(2.02284e-06 0 0)
(2.0199e-06 0 0)
(2.01712e-06 0 0)
(2.01454e-06 0 0)
(2.01219e-06 0 0)
(2.01011e-06 0 0)
(2.00829e-06 0 0)
(2.00674e-06 0 0)
(2.00545e-06 0 0)
(2.00438e-06 0 0)
(2.00352e-06 0 0)
(2.00284e-06 0 0)
(2.00231e-06 0 0)
(2.00189e-06 0 0)
(2.00156e-06 0 0)
(2.00129e-06 0 0)
(2.00106e-06 0 0)
(2.00084e-06 0 0)
(2.00061e-06 0 0)
(2.00037e-06 0 0)
(2.00009e-06 0 0)
(1.99978e-06 0 0)
(1.99943e-06 0 0)
(1.99903e-06 0 0)
(1.99859e-06 0 0)
(1.99811e-06 0 0)
(1.99758e-06 0 0)
(1.99702e-06 0 0)
(1.99642e-06 0 0)
(1.9958e-06 0 0)
(1.99515e-06 0 0)
(1.99447e-06 0 0)
(1.99378e-06 0 0)
(1.99307e-06 0 0)
(1.99235e-06 0 0)
(1.99163e-06 0 0)
(1.9909e-06 0 0)
(1.99016e-06 0 0)
(1.98942e-06 0 0)
(1.98869e-06 0 0)
(1.98795e-06 0 0)
(1.98722e-06 0 0)
(1.9865e-06 0 0)
(1.98578e-06 0 0)
(1.98507e-06 0 0)
(1.98436e-06 0 0)
(1.98367e-06 0 0)
(1.98299e-06 0 0)
(1.98232e-06 0 0)
(1.98166e-06 0 0)
(1.98102e-06 0 0)
(1.98039e-06 0 0)
(1.97977e-06 0 0)
(1.97916e-06 0 0)
(1.97857e-06 0 0)
(1.97799e-06 0 0)
(1.97742e-06 0 0)
(1.97687e-06 0 0)
(1.97632e-06 0 0)
(1.97579e-06 0 0)
(1.97526e-06 0 0)
(1.97474e-06 0 0)
(1.97423e-06 0 0)
(1.97373e-06 0 0)
(1.97323e-06 0 0)
(1.97274e-06 0 0)
(1.97225e-06 0 0)
(1.97177e-06 0 0)
(1.97129e-06 0 0)
(1.97082e-06 0 0)
(1.97035e-06 0 0)
(1.96988e-06 0 0)
(1.96942e-06 0 0)
(1.96896e-06 0 0)
(1.96851e-06 0 0)
(1.96806e-06 0 0)
(1.96762e-06 0 0)
(1.96718e-06 0 0)
(1.96675e-06 0 0)
(1.96632e-06 0 0)
(1.9659e-06 0 0)
(1.96549e-06 0 0)
(1.96508e-06 0 0)
(1.96468e-06 0 0)
(1.96428e-06 0 0)
(1.96389e-06 0 0)
(1.96351e-06 0 0)
(1.96314e-06 0 0)
(1.96277e-06 0 0)
(1.96241e-06 0 0)
(1.96206e-06 0 0)
(1.96171e-06 0 0)
(1.96137e-06 0 0)
(1.96103e-06 0 0)
(1.96071e-06 0 0)
(1.96038e-06 0 0)
(1.96006e-06 0 0)
(1.95975e-06 0 0)
(1.95944e-06 0 0)
(1.95913e-06 0 0)
(1.95883e-06 0 0)
(1.95853e-06 0 0)
(1.95823e-06 0 0)
(1.95793e-06 0 0)
(1.95764e-06 0 0)
(1.95735e-06 0 0)
(1.95706e-06 0 0)
(1.95678e-06 0 0)
(1.9565e-06 0 0)
(1.95623e-06 0 0)
(1.95596e-06 0 0)
(1.9557e-06 0 0)
(1.95545e-06 0 0)
(1.95521e-06 0 0)
(1.95498e-06 0 0)
(1.95477e-06 0 0)
(1.95456e-06 0 0)
(1.95438e-06 0 0)
(1.95422e-06 0 0)
(1.95408e-06 0 0)
(1.95397e-06 0 0)
(1.9539e-06 0 0)
(1.95387e-06 0 0)
(1.95389e-06 0 0)
(1.95396e-06 0 0)
(1.95408e-06 0 0)
(1.95427e-06 0 0)
(1.95453e-06 0 0)
(1.95486e-06 0 0)
(1.95527e-06 0 0)
(1.95576e-06 0 0)
(1.95632e-06 0 0)
(1.95696e-06 0 0)
(1.95768e-06 0 0)
(1.95847e-06 0 0)
(1.95932e-06 0 0)
(1.96023e-06 0 0)
(1.96119e-06 0 0)
(1.96218e-06 0 0)
(1.9632e-06 0 0)
(1.96422e-06 0 0)
(1.96523e-06 0 0)
(1.96621e-06 0 0)
(1.96714e-06 0 0)
(1.968e-06 0 0)
(1.96878e-06 0 0)
(1.96945e-06 0 0)
(1.96999e-06 0 0)
(1.97039e-06 0 0)
(1.97062e-06 0 0)
(1.97068e-06 0 0)
(1.97055e-06 0 0)
(1.97022e-06 0 0)
(1.96969e-06 0 0)
(1.96897e-06 0 0)
(1.96804e-06 0 0)
(1.96692e-06 0 0)
(1.96563e-06 0 0)
(1.96417e-06 0 0)
(1.96257e-06 0 0)
(1.96084e-06 0 0)
(1.95902e-06 0 0)
(1.95712e-06 0 0)
(1.95516e-06 0 0)
(1.95319e-06 0 0)
(1.95121e-06 0 0)
(1.94924e-06 0 0)
(1.94732e-06 0 0)
(1.94546e-06 0 0)
(1.94367e-06 0 0)
(1.94197e-06 0 0)
(1.94035e-06 0 0)
(1.93884e-06 0 0)
(1.93743e-06 0 0)
(1.93612e-06 0 0)
(1.93491e-06 0 0)
(1.93379e-06 0 0)
(1.93277e-06 0 0)
(1.93183e-06 0 0)
(1.93096e-06 0 0)
(1.93017e-06 0 0)
(1.92943e-06 0 0)
(1.92874e-06 0 0)
(1.9281e-06 0 0)
(1.92749e-06 0 0)
(1.9269e-06 0 0)
(1.92634e-06 0 0)
(1.92578e-06 0 0)
(1.92524e-06 0 0)
(1.92469e-06 0 0)
(1.92415e-06 0 0)
(1.92359e-06 0 0)
(1.92303e-06 0 0)
(1.92246e-06 0 0)
(1.92187e-06 0 0)
(1.92127e-06 0 0)
(1.92065e-06 0 0)
(1.92002e-06 0 0)
(1.91938e-06 0 0)
(1.91872e-06 0 0)
(1.91804e-06 0 0)
(1.91736e-06 0 0)
(1.91666e-06 0 0)
(1.91595e-06 0 0)
(1.91523e-06 0 0)
(1.9145e-06 0 0)
(1.91376e-06 0 0)
(1.91302e-06 0 0)
(1.91227e-06 0 0)
(1.91152e-06 0 0)
(1.91076e-06 0 0)
(1.91e-06 0 0)
(1.90924e-06 0 0)
(1.90848e-06 0 0)
(1.90772e-06 0 0)
(1.90696e-06 0 0)
(1.90621e-06 0 0)
(1.90545e-06 0 0)
(1.90471e-06 0 0)
(1.90397e-06 0 0)
(1.90323e-06 0 0)
(1.9025e-06 0 0)
(1.90179e-06 0 0)
(1.90108e-06 0 0)
(1.90038e-06 0 0)
(1.89969e-06 0 0)
(1.89902e-06 0 0)
(1.89837e-06 0 0)
(1.89773e-06 0 0)
(1.89711e-06 0 0)
(1.89652e-06 0 0)
(1.89595e-06 0 0)
(1.8954e-06 0 0)
(1.89489e-06 0 0)
(1.89441e-06 0 0)
(1.89395e-06 0 0)
(1.89354e-06 0 0)
(1.89316e-06 0 0)
(1.89281e-06 0 0)
(1.8925e-06 0 0)
(1.89222e-06 0 0)
(1.89196e-06 0 0)
(1.89173e-06 0 0)
(1.8915e-06 0 0)
(1.89126e-06 0 0)
(1.89097e-06 0 0)
(1.89055e-06 0 0)
(1.88992e-06 0 0)
(1.88888e-06 0 0)
(1.88716e-06 0 0)
(1.88437e-06 0 0)
(1.8801e-06 0 0)
(1.87416e-06 0 0)
(1.86705e-06 0 0)
(1.86003e-06 0 0)
(1.85448e-06 0 0)
(1.85095e-06 0 0)
(1.84907e-06 0 0)
(1.84816e-06 0 0)
(1.84775e-06 0 0)
(1.84757e-06 0 0)
(1.8475e-06 0 0)
(1.84749e-06 0 0)
(1.8475e-06 0 0)
(1.84754e-06 0 0)
(1.84758e-06 0 0)
(1.84763e-06 0 0)
(1.84769e-06 0 0)
(1.84775e-06 0 0)
(1.84781e-06 0 0)
(1.84788e-06 0 0)
(1.84795e-06 0 0)
(1.84802e-06 0 0)
(1.8481e-06 0 0)
(1.84818e-06 0 0)
(1.84827e-06 0 0)
(1.84835e-06 0 0)
(1.84844e-06 0 0)
(1.84854e-06 0 0)
(1.84863e-06 0 0)
(1.84873e-06 0 0)
(1.84883e-06 0 0)
(1.84893e-06 0 0)
(1.84904e-06 0 0)
(1.84915e-06 0 0)
(1.84926e-06 0 0)
(1.84937e-06 0 0)
(1.84949e-06 0 0)
(1.84961e-06 0 0)
(1.84973e-06 0 0)
(1.84986e-06 0 0)
(1.84999e-06 0 0)
(1.85012e-06 0 0)
(1.85026e-06 0 0)
(1.8504e-06 0 0)
(1.85055e-06 0 0)
(1.8507e-06 0 0)
(1.85086e-06 0 0)
(1.85102e-06 0 0)
(1.8512e-06 0 0)
(1.85138e-06 0 0)
(1.85157e-06 0 0)
(1.85177e-06 0 0)
(1.85198e-06 0 0)
(1.85221e-06 0 0)
(1.85245e-06 0 0)
(1.85271e-06 0 0)
(1.85299e-06 0 0)
(1.85328e-06 0 0)
(1.8536e-06 0 0)
(1.85394e-06 0 0)
(1.8543e-06 0 0)
(1.8547e-06 0 0)
(1.85512e-06 0 0)
(1.85557e-06 0 0)
(1.85605e-06 0 0)
(1.85657e-06 0 0)
(1.85712e-06 0 0)
(1.85771e-06 0 0)
(1.85833e-06 0 0)
(1.85899e-06 0 0)
(1.85968e-06 0 0)
(1.86042e-06 0 0)
(1.86118e-06 0 0)
(1.86198e-06 0 0)
(1.86282e-06 0 0)
(1.86368e-06 0 0)
(1.86456e-06 0 0)
(1.86548e-06 0 0)
(1.8664e-06 0 0)
(1.86735e-06 0 0)
(1.8683e-06 0 0)
(1.86926e-06 0 0)
(1.87021e-06 0 0)
(1.87115e-06 0 0)
(1.87208e-06 0 0)
(1.87299e-06 0 0)
(1.87386e-06 0 0)
(1.8747e-06 0 0)
(1.87549e-06 0 0)
(1.87623e-06 0 0)
(1.87691e-06 0 0)
(1.87751e-06 0 0)
(1.87804e-06 0 0)
(1.87849e-06 0 0)
(1.87884e-06 0 0)
(1.8791e-06 0 0)
(1.87926e-06 0 0)
(1.87933e-06 0 0)
(1.87935e-06 0 0)
(1.87934e-06 0 0)
(1.87922e-06 0 0)
(1.87893e-06 0 0)
(1.87851e-06 0 0)
(1.87799e-06 0 0)
(1.87739e-06 0 0)
(1.87671e-06 0 0)
(1.87596e-06 0 0)
(1.87514e-06 0 0)
(1.87428e-06 0 0)
(1.87336e-06 0 0)
(1.87241e-06 0 0)
(1.87144e-06 0 0)
(1.87045e-06 0 0)
(1.86945e-06 0 0)
(1.86846e-06 0 0)
(1.86747e-06 0 0)
(1.86651e-06 0 0)
(1.86557e-06 0 0)
(1.86467e-06 0 0)
(1.8638e-06 0 0)
(1.86298e-06 0 0)
(1.8622e-06 0 0)
(1.86147e-06 0 0)
(1.86079e-06 0 0)
(1.86016e-06 0 0)
(1.85959e-06 0 0)
(1.85906e-06 0 0)
(1.85858e-06 0 0)
(1.85816e-06 0 0)
(1.85777e-06 0 0)
(1.85743e-06 0 0)
(1.85713e-06 0 0)
(1.85686e-06 0 0)
(1.85662e-06 0 0)
(1.85642e-06 0 0)
(1.85624e-06 0 0)
(1.85608e-06 0 0)
(1.85594e-06 0 0)
(1.85582e-06 0 0)
(1.85571e-06 0 0)
(1.85561e-06 0 0)
(1.85551e-06 0 0)
(1.85542e-06 0 0)
(1.85534e-06 0 0)
(1.85525e-06 0 0)
(1.85517e-06 0 0)
(1.85508e-06 0 0)
(1.85499e-06 0 0)
(1.8549e-06 0 0)
(1.8548e-06 0 0)
(1.8547e-06 0 0)
(1.85459e-06 0 0)
(1.85447e-06 0 0)
(1.85435e-06 0 0)
(1.85422e-06 0 0)
(1.85409e-06 0 0)
(1.85395e-06 0 0)
(1.85381e-06 0 0)
(1.85366e-06 0 0)
(1.85351e-06 0 0)
(1.85335e-06 0 0)
(1.85319e-06 0 0)
(1.85302e-06 0 0)
(1.85285e-06 0 0)
(1.85268e-06 0 0)
(1.85251e-06 0 0)
(1.85233e-06 0 0)
(1.85216e-06 0 0)
(1.85198e-06 0 0)
(1.8518e-06 0 0)
(1.85163e-06 0 0)
(1.85145e-06 0 0)
(1.85128e-06 0 0)
(1.8511e-06 0 0)
(1.85093e-06 0 0)
(1.85076e-06 0 0)
(1.8506e-06 0 0)
(1.85043e-06 0 0)
(1.85027e-06 0 0)
(1.85011e-06 0 0)
(1.84996e-06 0 0)
(1.84981e-06 0 0)
(1.84966e-06 0 0)
(1.84952e-06 0 0)
(1.84939e-06 0 0)
(1.84925e-06 0 0)
(1.84913e-06 0 0)
(1.84901e-06 0 0)
(1.84889e-06 0 0)
(1.84878e-06 0 0)
(1.84868e-06 0 0)
(1.84858e-06 0 0)
(1.84849e-06 0 0)
(1.8484e-06 0 0)
(1.84832e-06 0 0)
(1.84825e-06 0 0)
(1.84818e-06 0 0)
(1.84812e-06 0 0)
(1.84807e-06 0 0)
(1.84802e-06 0 0)
(1.84797e-06 0 0)
(1.84794e-06 0 0)
(1.8479e-06 0 0)
(1.84788e-06 0 0)
(1.84786e-06 0 0)
(1.84784e-06 0 0)
(1.84783e-06 0 0)
(1.84782e-06 0 0)
(1.84782e-06 0 0)
(1.84782e-06 0 0)
(1.84782e-06 0 0)
(1.84783e-06 0 0)
(1.84785e-06 0 0)
(1.84787e-06 0 0)
(1.84789e-06 0 0)
(1.84792e-06 0 0)
(1.84795e-06 0 0)
(1.84798e-06 0 0)
(1.84802e-06 0 0)
(1.84806e-06 0 0)
(1.8481e-06 0 0)
(1.84814e-06 0 0)
(1.84819e-06 0 0)
(1.84824e-06 0 0)
(1.8483e-06 0 0)
(1.84835e-06 0 0)
(1.84841e-06 0 0)
(1.84847e-06 0 0)
(1.84854e-06 0 0)
(1.8486e-06 0 0)
(1.84867e-06 0 0)
(1.84875e-06 0 0)
(1.84882e-06 0 0)
(1.8489e-06 0 0)
(1.84898e-06 0 0)
(1.84906e-06 0 0)
(1.84915e-06 0 0)
(1.84923e-06 0 0)
(1.84932e-06 0 0)
(1.84942e-06 0 0)
(1.84952e-06 0 0)
(1.84962e-06 0 0)
(1.84972e-06 0 0)
(1.84983e-06 0 0)
(1.84994e-06 0 0)
(1.85005e-06 0 0)
(1.85017e-06 0 0)
(1.8503e-06 0 0)
(1.85043e-06 0 0)
(1.85056e-06 0 0)
(1.8507e-06 0 0)
(1.85085e-06 0 0)
(1.851e-06 0 0)
(1.85117e-06 0 0)
(1.85134e-06 0 0)
(1.85152e-06 0 0)
(1.8517e-06 0 0)
(1.8519e-06 0 0)
(1.85212e-06 0 0)
(1.85234e-06 0 0)
(1.85258e-06 0 0)
(1.85283e-06 0 0)
(1.8531e-06 0 0)
(1.85338e-06 0 0)
(1.85369e-06 0 0)
(1.85401e-06 0 0)
(1.85435e-06 0 0)
(1.85472e-06 0 0)
(1.8551e-06 0 0)
(1.85551e-06 0 0)
(1.85595e-06 0 0)
(1.85641e-06 0 0)
(1.8569e-06 0 0)
(1.85741e-06 0 0)
(1.85795e-06 0 0)
(1.85852e-06 0 0)
(1.85911e-06 0 0)
(1.85973e-06 0 0)
(1.86038e-06 0 0)
(1.86105e-06 0 0)
(1.86174e-06 0 0)
(1.86246e-06 0 0)
(1.8632e-06 0 0)
(1.86395e-06 0 0)
(1.86472e-06 0 0)
(1.86551e-06 0 0)
(1.8663e-06 0 0)
(1.8671e-06 0 0)
(1.8679e-06 0 0)
(1.8687e-06 0 0)
(1.86949e-06 0 0)
(1.87027e-06 0 0)
(1.87104e-06 0 0)
(1.87178e-06 0 0)
(1.8725e-06 0 0)
(1.87319e-06 0 0)
(1.87384e-06 0 0)
(1.87445e-06 0 0)
(1.87502e-06 0 0)
(1.87553e-06 0 0)
(1.87599e-06 0 0)
(1.87639e-06 0 0)
(1.87672e-06 0 0)
(1.87699e-06 0 0)
(1.87718e-06 0 0)
(1.87731e-06 0 0)
(1.87736e-06 0 0)
(1.87738e-06 0 0)
(1.87737e-06 0 0)
(1.87731e-06 0 0)
(1.8771e-06 0 0)
(1.87678e-06 0 0)
(1.87639e-06 0 0)
(1.87595e-06 0 0)
(1.87543e-06 0 0)
(1.87487e-06 0 0)
(1.87425e-06 0 0)
(1.87359e-06 0 0)
(1.87289e-06 0 0)
(1.87215e-06 0 0)
(1.87139e-06 0 0)
(1.87062e-06 0 0)
(1.86983e-06 0 0)
(1.86903e-06 0 0)
(1.86824e-06 0 0)
(1.86746e-06 0 0)
(1.86668e-06 0 0)
(1.86593e-06 0 0)
(1.86519e-06 0 0)
(1.86449e-06 0 0)
(1.86381e-06 0 0)
(1.86316e-06 0 0)
(1.86255e-06 0 0)
(1.86197e-06 0 0)
(1.86142e-06 0 0)
(1.86092e-06 0 0)
(1.86045e-06 0 0)
(1.86001e-06 0 0)
(1.85961e-06 0 0)
(1.85924e-06 0 0)
(1.8589e-06 0 0)
(1.8586e-06 0 0)
(1.85832e-06 0 0)
(1.85806e-06 0 0)
(1.85783e-06 0 0)
(1.85762e-06 0 0)
(1.85743e-06 0 0)
(1.85725e-06 0 0)
(1.85709e-06 0 0)
(1.85694e-06 0 0)
(1.8568e-06 0 0)
(1.85667e-06 0 0)
(1.85654e-06 0 0)
(1.85642e-06 0 0)
(1.8563e-06 0 0)
(1.85618e-06 0 0)
(1.85606e-06 0 0)
(1.85594e-06 0 0)
(1.85582e-06 0 0)
(1.8557e-06 0 0)
(1.85557e-06 0 0)
(1.85544e-06 0 0)
(1.85531e-06 0 0)
(1.85517e-06 0 0)
(1.85503e-06 0 0)
(1.85488e-06 0 0)
(1.85473e-06 0 0)
(1.85457e-06 0 0)
(1.85441e-06 0 0)
(1.85425e-06 0 0)
(1.85408e-06 0 0)
(1.85391e-06 0 0)
(1.85374e-06 0 0)
(1.85356e-06 0 0)
(1.85338e-06 0 0)
(1.8532e-06 0 0)
(1.85301e-06 0 0)
(1.85282e-06 0 0)
(1.85264e-06 0 0)
(1.85245e-06 0 0)
(1.85226e-06 0 0)
(1.85207e-06 0 0)
(1.85188e-06 0 0)
(1.85169e-06 0 0)
(1.8515e-06 0 0)
(1.85131e-06 0 0)
(1.85112e-06 0 0)
(1.85093e-06 0 0)
(1.85075e-06 0 0)
(1.85057e-06 0 0)
(1.85039e-06 0 0)
(1.85021e-06 0 0)
(1.85003e-06 0 0)
(1.84986e-06 0 0)
(1.84969e-06 0 0)
(1.84952e-06 0 0)
(1.84936e-06 0 0)
(1.8492e-06 0 0)
(1.84905e-06 0 0)
(1.8489e-06 0 0)
(1.84876e-06 0 0)
(1.84861e-06 0 0)
(1.84848e-06 0 0)
(1.84835e-06 0 0)
(1.84822e-06 0 0)
(1.84811e-06 0 0)
(1.84799e-06 0 0)
(1.84788e-06 0 0)
(1.84778e-06 0 0)
(1.84769e-06 0 0)
(1.8476e-06 0 0)
(1.84751e-06 0 0)
(1.84744e-06 0 0)
(1.84737e-06 0 0)
(1.8473e-06 0 0)
(1.84724e-06 0 0)
(1.84719e-06 0 0)
(1.84715e-06 0 0)
(1.84711e-06 0 0)
(1.84708e-06 0 0)
(1.84705e-06 0 0)
(1.84703e-06 0 0)
(1.84702e-06 0 0)
(1.84701e-06 0 0)
(1.84701e-06 0 0)
(1.84701e-06 0 0)
(1.84701e-06 0 0)
(1.84702e-06 0 0)
(1.84704e-06 0 0)
(1.84707e-06 0 0)
(1.8471e-06 0 0)
(1.84714e-06 0 0)
(1.84719e-06 0 0)
(1.84723e-06 0 0)
(1.84729e-06 0 0)
(1.84735e-06 0 0)
(1.84741e-06 0 0)
(1.84748e-06 0 0)
(1.84755e-06 0 0)
(1.84762e-06 0 0)
(1.8477e-06 0 0)
(1.84779e-06 0 0)
(1.84788e-06 0 0)
(1.84797e-06 0 0)
(1.84807e-06 0 0)
(1.84817e-06 0 0)
(1.84827e-06 0 0)
(1.84838e-06 0 0)
(1.8485e-06 0 0)
(1.84862e-06 0 0)
(1.84874e-06 0 0)
(1.84887e-06 0 0)
(1.849e-06 0 0)
(1.84914e-06 0 0)
(1.84928e-06 0 0)
(1.84943e-06 0 0)
(1.84959e-06 0 0)
(1.84975e-06 0 0)
(1.84992e-06 0 0)
(1.85009e-06 0 0)
(1.85028e-06 0 0)
(1.85047e-06 0 0)
(1.85067e-06 0 0)
(1.85088e-06 0 0)
(1.85111e-06 0 0)
(1.85134e-06 0 0)
(1.85159e-06 0 0)
(1.85184e-06 0 0)
(1.85211e-06 0 0)
(1.8524e-06 0 0)
(1.8527e-06 0 0)
(1.85301e-06 0 0)
(1.85335e-06 0 0)
(1.8537e-06 0 0)
(1.85406e-06 0 0)
(1.85445e-06 0 0)
(1.85485e-06 0 0)
(1.85528e-06 0 0)
(1.85572e-06 0 0)
(1.85619e-06 0 0)
(1.85667e-06 0 0)
(1.85718e-06 0 0)
(1.85771e-06 0 0)
(1.85825e-06 0 0)
(1.85882e-06 0 0)
(1.85941e-06 0 0)
(1.86002e-06 0 0)
(1.86064e-06 0 0)
(1.86128e-06 0 0)
(1.86194e-06 0 0)
(1.86261e-06 0 0)
(1.86329e-06 0 0)
(1.86398e-06 0 0)
(1.86468e-06 0 0)
(1.86539e-06 0 0)
(1.86609e-06 0 0)
(1.8668e-06 0 0)
(1.86751e-06 0 0)
(1.8682e-06 0 0)
(1.86889e-06 0 0)
(1.86957e-06 0 0)
(1.87022e-06 0 0)
(1.87086e-06 0 0)
(1.87148e-06 0 0)
(1.87206e-06 0 0)
(1.87262e-06 0 0)
(1.87313e-06 0 0)
(1.87362e-06 0 0)
(1.87405e-06 0 0)
(1.87445e-06 0 0)
(1.87479e-06 0 0)
(1.87509e-06 0 0)
(1.87533e-06 0 0)
(1.87551e-06 0 0)
(1.87564e-06 0 0)
(1.87571e-06 0 0)
(1.87573e-06 0 0)
(1.87573e-06 0 0)
(1.87571e-06 0 0)
(1.8756e-06 0 0)
(1.87539e-06 0 0)
(1.87511e-06 0 0)
(1.87478e-06 0 0)
(1.8744e-06 0 0)
(1.87397e-06 0 0)
(1.87349e-06 0 0)
(1.87298e-06 0 0)
(1.87243e-06 0 0)
(1.87184e-06 0 0)
(1.87124e-06 0 0)
(1.87061e-06 0 0)
(1.86996e-06 0 0)
(1.8693e-06 0 0)
(1.86864e-06 0 0)
(1.86797e-06 0 0)
(1.86731e-06 0 0)
(1.86665e-06 0 0)
(1.866e-06 0 0)
(1.86536e-06 0 0)
(1.86474e-06 0 0)
(1.86414e-06 0 0)
(1.86356e-06 0 0)
(1.863e-06 0 0)
(1.86247e-06 0 0)
(1.86196e-06 0 0)
(1.86148e-06 0 0)
(1.86102e-06 0 0)
(1.86059e-06 0 0)
(1.86018e-06 0 0)
(1.8598e-06 0 0)
(1.85944e-06 0 0)
(1.85911e-06 0 0)
(1.8588e-06 0 0)
(1.8585e-06 0 0)
(1.85823e-06 0 0)
(1.85797e-06 0 0)
(1.85773e-06 0 0)
(1.8575e-06 0 0)
(1.85729e-06 0 0)
(1.85708e-06 0 0)
(1.85689e-06 0 0)
(1.8567e-06 0 0)
(1.85652e-06 0 0)
(1.85634e-06 0 0)
(1.85616e-06 0 0)
(1.85599e-06 0 0)
(1.85582e-06 0 0)
(1.85565e-06 0 0)
(1.85548e-06 0 0)
(1.85531e-06 0 0)
(1.85514e-06 0 0)
(1.85497e-06 0 0)
(1.85479e-06 0 0)
(1.85461e-06 0 0)
(1.85443e-06 0 0)
(1.85425e-06 0 0)
(1.85406e-06 0 0)
(1.85387e-06 0 0)
(1.85368e-06 0 0)
(1.85349e-06 0 0)
(1.85329e-06 0 0)
(1.85309e-06 0 0)
(1.85289e-06 0 0)
(1.85269e-06 0 0)
(1.85248e-06 0 0)
(1.85227e-06 0 0)
(1.85207e-06 0 0)
(1.85186e-06 0 0)
(1.85165e-06 0 0)
(1.85144e-06 0 0)
(1.85124e-06 0 0)
(1.85103e-06 0 0)
(1.85082e-06 0 0)
(1.85062e-06 0 0)
(1.85041e-06 0 0)
(1.85021e-06 0 0)
(1.85001e-06 0 0)
(1.84981e-06 0 0)
(1.84962e-06 0 0)
)
;

boundaryField
{
    inlet
    {
        type            fixedValue;
        value           uniform (2.74882e-06 0 0);
    }
    outlet
    {
        type            zeroGradient;
    }
    emptyWalls
    {
        type            empty;
    }
}


// ************************************************************************* //
