/*--------------------------------*- C++ -*----------------------------------*\
  =========                 |
  \\      /  F ield         | OpenFOAM: The Open Source CFD Toolbox
   \\    /   O peration     | Website:  https://openfoam.org
    \\  /    A nd           | Version:  9
     \\/     M anipulation  |
\*---------------------------------------------------------------------------*/
FoamFile
{
    format      ascii;
    class       surfaceScalarField;
    location    "18300";
    object      phia;
}
// * * * * * * * * * * * * * * * * * * * * * * * * * * * * * * * * * * * * * //

dimensions      [0 2 0 0 0 0 0];

internalField   nonuniform List<scalar> 
999
(
2.7486e-10
2.74873e-10
2.74833e-10
2.74817e-10
2.74788e-10
2.74725e-10
2.74704e-10
2.74608e-10
2.74555e-10
2.74457e-10
2.74368e-10
2.74276e-10
2.74182e-10
2.74089e-10
2.73999e-10
2.73909e-10
2.73824e-10
2.73737e-10
2.73681e-10
2.73588e-10
2.73556e-10
2.73442e-10
2.73217e-10
2.7235e-10
2.68844e-10
2.46773e-10
2.21804e-10
2.18107e-10
2.15985e-10
2.13867e-10
2.12064e-10
2.10607e-10
2.09621e-10
2.09203e-10
2.0905e-10
2.08979e-10
2.08916e-10
2.0882e-10
2.08678e-10
2.08504e-10
2.08305e-10
2.08086e-10
2.07873e-10
2.07665e-10
2.07456e-10
2.07253e-10
2.07062e-10
2.06876e-10
2.067e-10
2.06531e-10
2.06369e-10
2.06214e-10
2.06066e-10
2.05925e-10
2.05786e-10
2.05654e-10
2.05528e-10
2.05408e-10
2.05294e-10
2.05185e-10
2.05083e-10
2.04987e-10
2.04896e-10
2.0481e-10
2.0473e-10
2.04656e-10
2.04587e-10
2.04524e-10
2.04469e-10
2.04423e-10
2.04389e-10
2.04364e-10
2.04344e-10
2.04324e-10
2.04305e-10
2.04286e-10
2.04269e-10
2.04254e-10
2.0424e-10
2.04228e-10
2.04219e-10
2.04212e-10
2.04207e-10
2.04203e-10
2.04201e-10
2.04199e-10
2.04196e-10
2.04192e-10
2.04187e-10
2.04181e-10
2.04173e-10
2.04166e-10
2.0416e-10
2.04157e-10
2.04158e-10
2.0416e-10
2.04165e-10
2.0417e-10
2.04176e-10
2.0418e-10
2.04182e-10
2.04182e-10
2.04177e-10
2.04169e-10
2.04161e-10
2.04156e-10
2.04163e-10
2.0419e-10
2.04243e-10
2.04327e-10
2.04446e-10
2.04597e-10
2.04779e-10
2.04986e-10
2.05212e-10
2.05451e-10
2.05698e-10
2.05946e-10
2.06189e-10
2.06421e-10
2.06634e-10
2.0682e-10
2.0697e-10
2.07078e-10
2.07136e-10
2.07139e-10
2.07085e-10
2.06976e-10
2.06813e-10
2.06604e-10
2.06358e-10
2.06083e-10
2.05793e-10
2.05497e-10
2.05206e-10
2.04928e-10
2.04672e-10
2.04441e-10
2.0424e-10
2.0407e-10
2.0393e-10
2.03818e-10
2.03733e-10
2.0367e-10
2.03626e-10
2.03597e-10
2.03579e-10
2.03568e-10
2.0356e-10
2.03555e-10
2.03548e-10
2.03539e-10
2.03526e-10
2.03509e-10
2.03487e-10
2.0346e-10
2.03429e-10
2.03393e-10
2.03353e-10
2.0331e-10
2.03264e-10
2.03215e-10
2.03165e-10
2.03114e-10
2.03061e-10
2.03008e-10
2.02955e-10
2.02901e-10
2.02848e-10
2.02795e-10
2.02743e-10
2.02692e-10
2.02641e-10
2.02591e-10
2.02542e-10
2.02493e-10
2.02446e-10
2.02399e-10
2.02354e-10
2.02309e-10
2.02266e-10
2.02223e-10
2.02182e-10
2.02141e-10
2.02102e-10
2.02064e-10
2.02026e-10
2.0199e-10
2.01955e-10
2.01921e-10
2.01888e-10
2.01856e-10
2.01826e-10
2.01796e-10
2.01767e-10
2.01739e-10
2.01713e-10
2.01687e-10
2.01662e-10
2.01639e-10
2.01617e-10
2.01596e-10
2.01576e-10
2.01558e-10
2.01541e-10
2.01524e-10
2.0151e-10
2.01496e-10
2.01483e-10
2.0147e-10
2.01459e-10
2.01447e-10
2.01437e-10
2.01426e-10
2.01416e-10
2.01407e-10
2.01397e-10
2.01389e-10
2.01381e-10
2.01373e-10
2.01366e-10
2.0136e-10
2.01355e-10
2.0135e-10
2.01345e-10
2.0134e-10
2.01334e-10
2.01329e-10
2.01322e-10
2.01316e-10
2.0131e-10
2.01305e-10
2.01302e-10
2.01303e-10
2.01308e-10
2.01318e-10
2.01337e-10
2.01364e-10
2.01401e-10
2.01449e-10
2.0151e-10
2.01583e-10
2.01669e-10
2.01768e-10
2.01878e-10
2.02e-10
2.02132e-10
2.02272e-10
2.02419e-10
2.02569e-10
2.02721e-10
2.02871e-10
2.03015e-10
2.03152e-10
2.03278e-10
2.03388e-10
2.03481e-10
2.03553e-10
2.03603e-10
2.03627e-10
2.03625e-10
2.03597e-10
2.03542e-10
2.03461e-10
2.03357e-10
2.0323e-10
2.03085e-10
2.02924e-10
2.02752e-10
2.02571e-10
2.02386e-10
2.02201e-10
2.02018e-10
2.0184e-10
2.01671e-10
2.01511e-10
2.01363e-10
2.01227e-10
2.01104e-10
2.00995e-10
2.00897e-10
2.00812e-10
2.00738e-10
2.00673e-10
2.00617e-10
2.00569e-10
2.00527e-10
2.00491e-10
2.00458e-10
2.00427e-10
2.00399e-10
2.00372e-10
2.00345e-10
2.00317e-10
2.00289e-10
2.0026e-10
2.00229e-10
2.00196e-10
2.00162e-10
2.00127e-10
2.00089e-10
2.0005e-10
2.0001e-10
1.99968e-10
1.99926e-10
1.99882e-10
1.99837e-10
1.99792e-10
1.99746e-10
1.997e-10
1.99654e-10
1.99607e-10
1.99561e-10
1.99515e-10
1.99469e-10
1.99423e-10
1.99378e-10
1.99333e-10
1.99288e-10
1.99245e-10
1.99201e-10
1.99158e-10
1.99116e-10
1.99075e-10
1.99034e-10
1.98994e-10
1.98955e-10
1.98916e-10
1.98878e-10
1.98841e-10
1.98804e-10
1.98768e-10
1.98733e-10
1.98699e-10
1.98665e-10
1.98632e-10
1.986e-10
1.98569e-10
1.98538e-10
1.98508e-10
1.98479e-10
1.98451e-10
1.98423e-10
1.98396e-10
1.9837e-10
1.98345e-10
1.98321e-10
1.98298e-10
1.98275e-10
1.98253e-10
1.98232e-10
1.98212e-10
1.98192e-10
1.98173e-10
1.98155e-10
1.98138e-10
1.98121e-10
1.98104e-10
1.98089e-10
1.98073e-10
1.98059e-10
1.98044e-10
1.98031e-10
1.98018e-10
1.98005e-10
1.97992e-10
1.97981e-10
1.97969e-10
1.97958e-10
1.97947e-10
1.97936e-10
1.97926e-10
1.97916e-10
1.97906e-10
1.97897e-10
1.97888e-10
1.9788e-10
1.97873e-10
1.97867e-10
1.97862e-10
1.97859e-10
1.97858e-10
1.9786e-10
1.97866e-10
1.97875e-10
1.97889e-10
1.97907e-10
1.9793e-10
1.9796e-10
1.97996e-10
1.98038e-10
1.98086e-10
1.98142e-10
1.98204e-10
1.98273e-10
1.98348e-10
1.98428e-10
1.98514e-10
1.98605e-10
1.98699e-10
1.98796e-10
1.98894e-10
1.98992e-10
1.9909e-10
1.99184e-10
1.99275e-10
1.9936e-10
1.99439e-10
1.99509e-10
1.99569e-10
1.99619e-10
1.99656e-10
1.9968e-10
1.9969e-10
1.99685e-10
1.99666e-10
1.99632e-10
1.99584e-10
1.99522e-10
1.99446e-10
1.99358e-10
1.99259e-10
1.99151e-10
1.99034e-10
1.9891e-10
1.98782e-10
1.9865e-10
1.98517e-10
1.98384e-10
1.98252e-10
1.98123e-10
1.97997e-10
1.97876e-10
1.97761e-10
1.97652e-10
1.97549e-10
1.97452e-10
1.97362e-10
1.97279e-10
1.97203e-10
1.97132e-10
1.97067e-10
1.97007e-10
1.96952e-10
1.96902e-10
1.96855e-10
1.96811e-10
1.9677e-10
1.96731e-10
1.96694e-10
1.96658e-10
1.96623e-10
1.96589e-10
1.96554e-10
1.9652e-10
1.96486e-10
1.96451e-10
1.96415e-10
1.96379e-10
1.96343e-10
1.96305e-10
1.96267e-10
1.96228e-10
1.96188e-10
1.96147e-10
1.96106e-10
1.96064e-10
1.96022e-10
1.95979e-10
1.95936e-10
1.95892e-10
1.95848e-10
1.95804e-10
1.9576e-10
1.95716e-10
1.95672e-10
1.95628e-10
1.95584e-10
1.95541e-10
1.95497e-10
1.95454e-10
1.95411e-10
1.95369e-10
1.95327e-10
1.95285e-10
1.95244e-10
1.95203e-10
1.95163e-10
1.95124e-10
1.95084e-10
1.95046e-10
1.95008e-10
1.9497e-10
1.94933e-10
1.94897e-10
1.94861e-10
1.94826e-10
1.94792e-10
1.94758e-10
1.94725e-10
1.94692e-10
1.9466e-10
1.94629e-10
1.94598e-10
1.94568e-10
1.94539e-10
1.9451e-10
1.94482e-10
1.94455e-10
1.94429e-10
1.94403e-10
1.94378e-10
1.94353e-10
1.94329e-10
1.94306e-10
1.94283e-10
1.94261e-10
1.9424e-10
1.94219e-10
1.94199e-10
1.94179e-10
1.9416e-10
1.94141e-10
1.94123e-10
1.94106e-10
1.94088e-10
1.94072e-10
1.94056e-10
1.9404e-10
1.94025e-10
1.9401e-10
1.93995e-10
1.93981e-10
1.93967e-10
1.93954e-10
1.93941e-10
1.93928e-10
1.93916e-10
1.93905e-10
1.93894e-10
1.93884e-10
1.93875e-10
1.93866e-10
1.93859e-10
1.93853e-10
1.93849e-10
1.93846e-10
1.93845e-10
1.93846e-10
1.93849e-10
1.93855e-10
1.93864e-10
1.93875e-10
1.9389e-10
1.93909e-10
1.93931e-10
1.93957e-10
1.93986e-10
1.9402e-10
1.94057e-10
1.94099e-10
1.94144e-10
1.94193e-10
1.94245e-10
1.94301e-10
1.94359e-10
1.94421e-10
1.94484e-10
1.94548e-10
1.94614e-10
1.9468e-10
1.94746e-10
1.94812e-10
1.94875e-10
1.94937e-10
1.94995e-10
1.95049e-10
1.95099e-10
1.95144e-10
1.95182e-10
1.95214e-10
1.95239e-10
1.95256e-10
1.95265e-10
1.95265e-10
1.95257e-10
1.9524e-10
1.95213e-10
1.95177e-10
1.95133e-10
1.9508e-10
1.95019e-10
1.9495e-10
1.94874e-10
1.94791e-10
1.94703e-10
1.94609e-10
1.94512e-10
1.94411e-10
1.94307e-10
1.94202e-10
1.94096e-10
1.9399e-10
1.93884e-10
1.93779e-10
1.93677e-10
1.93576e-10
1.93479e-10
1.93384e-10
1.93293e-10
1.93205e-10
1.93121e-10
1.93041e-10
1.92965e-10
1.92892e-10
1.92823e-10
1.92757e-10
1.92695e-10
1.92635e-10
1.92579e-10
1.92525e-10
1.92473e-10
1.92424e-10
1.92376e-10
1.9233e-10
1.92285e-10
1.92241e-10
1.92198e-10
1.92156e-10
1.92114e-10
1.92073e-10
1.92032e-10
1.9199e-10
1.91949e-10
1.91908e-10
1.91866e-10
1.91825e-10
1.91783e-10
1.9174e-10
1.91697e-10
1.91654e-10
1.91611e-10
1.91567e-10
1.91522e-10
1.91478e-10
1.91433e-10
1.91388e-10
1.91343e-10
1.91297e-10
1.91252e-10
1.91206e-10
1.9116e-10
1.91114e-10
1.91068e-10
1.91023e-10
1.90977e-10
1.90931e-10
1.90886e-10
1.90841e-10
1.90796e-10
1.90751e-10
1.90707e-10
1.90663e-10
1.90619e-10
1.90576e-10
1.90533e-10
1.9049e-10
1.90448e-10
1.90406e-10
1.90365e-10
1.90324e-10
1.90284e-10
1.90244e-10
1.90204e-10
1.90165e-10
1.90127e-10
1.90089e-10
1.90052e-10
1.90015e-10
1.89979e-10
1.89944e-10
1.89909e-10
1.89875e-10
1.89841e-10
1.89808e-10
1.89776e-10
1.89745e-10
1.89714e-10
1.89684e-10
1.89655e-10
1.89626e-10
1.89599e-10
1.89573e-10
1.89547e-10
1.89523e-10
1.89499e-10
1.89477e-10
1.89457e-10
1.89437e-10
1.89419e-10
1.89403e-10
1.89387e-10
1.89374e-10
1.89362e-10
1.89351e-10
1.89343e-10
1.89336e-10
1.8933e-10
1.89326e-10
1.89324e-10
1.89323e-10
1.89324e-10
1.89326e-10
1.89329e-10
1.89335e-10
1.8934e-10
1.89347e-10
1.89356e-10
1.89365e-10
1.89375e-10
1.89386e-10
1.89398e-10
1.8941e-10
1.89422e-10
1.89433e-10
1.89442e-10
1.89448e-10
1.89437e-10
1.89414e-10
1.89352e-10
1.89235e-10
1.89024e-10
1.88672e-10
1.88153e-10
1.87475e-10
1.86767e-10
1.8618e-10
1.85811e-10
1.85629e-10
1.85557e-10
1.85551e-10
1.85565e-10
1.85601e-10
1.85641e-10
1.85683e-10
1.85736e-10
1.85789e-10
1.85844e-10
1.85901e-10
1.8596e-10
1.8602e-10
1.86083e-10
1.86146e-10
1.86211e-10
1.86276e-10
1.86342e-10
1.86408e-10
1.86475e-10
1.86541e-10
1.86607e-10
1.86672e-10
1.86735e-10
1.86798e-10
1.86858e-10
1.86916e-10
1.86972e-10
1.87024e-10
1.87074e-10
1.8712e-10
1.87162e-10
1.872e-10
1.87234e-10
1.87263e-10
1.87287e-10
1.87305e-10
1.87317e-10
1.87324e-10
1.87326e-10
1.87327e-10
1.87326e-10
1.87317e-10
1.87297e-10
1.87273e-10
1.87244e-10
1.87212e-10
1.87175e-10
1.87134e-10
1.8709e-10
1.87043e-10
1.86993e-10
1.8694e-10
1.86886e-10
1.86829e-10
1.86771e-10
1.86712e-10
1.86653e-10
1.86593e-10
1.86534e-10
1.86475e-10
1.86417e-10
1.8636e-10
1.86304e-10
1.86249e-10
1.86197e-10
1.86146e-10
1.86097e-10
1.86051e-10
1.86006e-10
1.85964e-10
1.85924e-10
1.85886e-10
1.8585e-10
1.85816e-10
1.85785e-10
1.85755e-10
1.85727e-10
1.85701e-10
1.85676e-10
1.85653e-10
1.85632e-10
1.85611e-10
1.85592e-10
1.85574e-10
1.85557e-10
1.8554e-10
1.85525e-10
1.85509e-10
1.85495e-10
1.85481e-10
1.85467e-10
1.85453e-10
1.8544e-10
1.85426e-10
1.85413e-10
1.854e-10
1.85386e-10
1.85373e-10
1.8536e-10
1.85346e-10
1.85333e-10
1.85319e-10
1.85306e-10
1.85292e-10
1.85278e-10
1.85264e-10
1.8525e-10
1.85236e-10
1.85221e-10
1.85207e-10
1.85193e-10
1.85179e-10
1.85164e-10
1.8515e-10
1.85136e-10
1.85122e-10
1.85108e-10
1.85095e-10
1.85081e-10
1.85068e-10
1.85054e-10
1.85041e-10
1.85029e-10
1.85016e-10
1.85004e-10
1.84992e-10
1.8498e-10
1.84969e-10
1.84958e-10
1.84947e-10
1.84937e-10
1.84927e-10
1.84917e-10
1.84908e-10
1.84899e-10
1.84891e-10
1.84883e-10
1.84875e-10
1.84868e-10
1.84861e-10
1.84855e-10
1.84849e-10
1.84843e-10
1.84838e-10
1.84834e-10
1.84829e-10
1.84826e-10
1.84822e-10
1.84819e-10
1.84817e-10
1.84815e-10
1.84813e-10
1.84812e-10
1.84811e-10
1.84811e-10
1.84811e-10
1.84811e-10
1.84811e-10
1.84813e-10
1.84814e-10
1.84816e-10
1.84819e-10
1.84821e-10
1.84825e-10
1.84828e-10
1.84832e-10
1.84836e-10
1.84841e-10
1.84846e-10
1.84851e-10
1.84857e-10
1.84863e-10
1.84869e-10
1.84875e-10
1.84882e-10
1.8489e-10
1.84898e-10
1.84906e-10
1.84914e-10
1.84923e-10
1.84932e-10
1.84942e-10
1.84953e-10
1.84964e-10
1.84975e-10
1.84987e-10
1.85e-10
1.85013e-10
1.85027e-10
1.85042e-10
1.85058e-10
1.85075e-10
1.85092e-10
1.85111e-10
1.85131e-10
1.85152e-10
1.85174e-10
1.85198e-10
1.85223e-10
1.85249e-10
1.85277e-10
1.85307e-10
1.85338e-10
1.8537e-10
1.85405e-10
1.85441e-10
1.85479e-10
1.85519e-10
1.8556e-10
1.85603e-10
1.85648e-10
1.85695e-10
1.85743e-10
1.85793e-10
1.85844e-10
1.85897e-10
1.85951e-10
1.86006e-10
1.86062e-10
1.86119e-10
1.86177e-10
1.86235e-10
1.86294e-10
1.86353e-10
1.86411e-10
1.8647e-10
1.86527e-10
1.86584e-10
1.8664e-10
1.86694e-10
1.86747e-10
1.86798e-10
1.86846e-10
1.86893e-10
1.86936e-10
1.86977e-10
1.87015e-10
1.87049e-10
1.87079e-10
1.87106e-10
1.87129e-10
1.87148e-10
1.87162e-10
1.87172e-10
1.87177e-10
1.87179e-10
1.87179e-10
1.87178e-10
1.87172e-10
1.87162e-10
1.87144e-10
1.87123e-10
1.87094e-10
1.87063e-10
1.87028e-10
1.86992e-10
1.86951e-10
1.8691e-10
1.86865e-10
1.86819e-10
)
;

boundaryField
{
    inlet
    {
        type            calculated;
        value           uniform -2.74882e-10;
    }
    outlet
    {
        type            calculated;
        value           uniform 1.8677e-10;
    }
    emptyWalls
    {
        type            empty;
        value           nonuniform List<scalar> 0();
    }
}


// ************************************************************************* //
