/*--------------------------------*- C++ -*----------------------------------*\
  =========                 |
  \\      /  F ield         | OpenFOAM: The Open Source CFD Toolbox
   \\    /   O peration     | Website:  https://openfoam.org
    \\  /    A nd           | Version:  9
     \\/     M anipulation  |
\*---------------------------------------------------------------------------*/
FoamFile
{
    format      ascii;
    class       surfaceScalarField;
    location    "18300";
    object      phic;
}
// * * * * * * * * * * * * * * * * * * * * * * * * * * * * * * * * * * * * * //

dimensions      [0 2 0 0 0 0 0];

internalField   nonuniform List<scalar> 
999
(
1.61584e-15
6.90351e-15
1.68139e-14
3.10399e-14
4.94767e-14
7.20825e-14
9.88271e-14
1.29606e-13
1.64286e-13
2.02559e-13
2.44006e-13
2.88004e-13
3.33731e-13
3.80192e-13
4.26276e-13
4.70856e-13
5.12929e-13
5.51715e-13
5.86851e-13
6.18501e-13
6.49122e-13
6.90202e-13
7.97183e-13
1.1889e-12
2.74e-12
1.12629e-11
1.95225e-11
2.09993e-11
2.15648e-11
2.18982e-11
2.21412e-11
2.23416e-11
2.25146e-11
2.26665e-11
2.2806e-11
2.2937e-11
2.30618e-11
2.31822e-11
2.3299e-11
2.34127e-11
2.35237e-11
2.36324e-11
2.37389e-11
2.38434e-11
2.39467e-11
2.40488e-11
2.415e-11
2.42508e-11
2.43514e-11
2.44523e-11
2.45538e-11
2.46562e-11
2.476e-11
2.48659e-11
2.49765e-11
2.50897e-11
2.52056e-11
2.53245e-11
2.54468e-11
2.55732e-11
2.57042e-11
2.5841e-11
2.59848e-11
2.61376e-11
2.63021e-11
2.64821e-11
2.66829e-11
2.69114e-11
2.71751e-11
2.74807e-11
2.78316e-11
2.82253e-11
2.86539e-11
2.91085e-11
2.9582e-11
3.00698e-11
3.05686e-11
3.1076e-11
3.15904e-11
3.21107e-11
3.26357e-11
3.3165e-11
3.3698e-11
3.42342e-11
3.47734e-11
3.53153e-11
3.58597e-11
3.64065e-11
3.69555e-11
3.75066e-11
3.80596e-11
3.86146e-11
3.91713e-11
3.97296e-11
4.02895e-11
4.0851e-11
4.1414e-11
4.19784e-11
4.25443e-11
4.31117e-11
4.36805e-11
4.42507e-11
4.48224e-11
4.53955e-11
4.59699e-11
4.65454e-11
4.71219e-11
4.76989e-11
4.82763e-11
4.88539e-11
4.94315e-11
5.00091e-11
5.05868e-11
5.11646e-11
5.17427e-11
5.23212e-11
5.29004e-11
5.34804e-11
5.40613e-11
5.46435e-11
5.52272e-11
5.58127e-11
5.64002e-11
5.69902e-11
5.75828e-11
5.81784e-11
5.8777e-11
5.93787e-11
5.99834e-11
6.05909e-11
6.1201e-11
6.18132e-11
6.24272e-11
6.30425e-11
6.36587e-11
6.42755e-11
6.48924e-11
6.55094e-11
6.61261e-11
6.67425e-11
6.73586e-11
6.79744e-11
6.859e-11
6.92054e-11
6.98209e-11
7.04365e-11
7.10525e-11
7.16689e-11
7.2286e-11
7.29037e-11
7.35223e-11
7.41417e-11
7.47621e-11
7.53835e-11
7.60058e-11
7.66292e-11
7.72535e-11
7.78788e-11
7.85051e-11
7.91323e-11
7.97604e-11
8.03894e-11
8.10193e-11
8.16499e-11
8.22814e-11
8.29136e-11
8.35467e-11
8.41804e-11
8.48149e-11
8.54501e-11
8.60859e-11
8.67225e-11
8.73598e-11
8.79977e-11
8.86364e-11
8.92756e-11
8.99156e-11
9.05562e-11
9.11974e-11
9.18393e-11
9.24818e-11
9.3125e-11
9.37688e-11
9.44132e-11
9.50583e-11
9.57039e-11
9.63502e-11
9.69971e-11
9.76446e-11
9.82927e-11
9.89414e-11
9.95907e-11
1.00241e-10
1.00891e-10
1.01542e-10
1.02194e-10
1.02846e-10
1.03499e-10
1.04152e-10
1.04806e-10
1.05461e-10
1.06116e-10
1.06772e-10
1.07428e-10
1.08085e-10
1.08742e-10
1.094e-10
1.10058e-10
1.10717e-10
1.11377e-10
1.12037e-10
1.12698e-10
1.13359e-10
1.14021e-10
1.14684e-10
1.15347e-10
1.1601e-10
1.16675e-10
1.1734e-10
1.18005e-10
1.18671e-10
1.19337e-10
1.20005e-10
1.20672e-10
1.2134e-10
1.22009e-10
1.22679e-10
1.23349e-10
1.2402e-10
1.24691e-10
1.25363e-10
1.26036e-10
1.26709e-10
1.27382e-10
1.28056e-10
1.28729e-10
1.29403e-10
1.30076e-10
1.30749e-10
1.31422e-10
1.32094e-10
1.32766e-10
1.33437e-10
1.34107e-10
1.34777e-10
1.35447e-10
1.36116e-10
1.36785e-10
1.37453e-10
1.38122e-10
1.38791e-10
1.39461e-10
1.40131e-10
1.40803e-10
1.41476e-10
1.42152e-10
1.42829e-10
1.43509e-10
1.44191e-10
1.44877e-10
1.45565e-10
1.46257e-10
1.46952e-10
1.4765e-10
1.48351e-10
1.49055e-10
1.49762e-10
1.50471e-10
1.51181e-10
1.51894e-10
1.52608e-10
1.53322e-10
1.54037e-10
1.54752e-10
1.55468e-10
1.56183e-10
1.56897e-10
1.57611e-10
1.58325e-10
1.59038e-10
1.5975e-10
1.60462e-10
1.61173e-10
1.61884e-10
1.62595e-10
1.63305e-10
1.64016e-10
1.64726e-10
1.65437e-10
1.66149e-10
1.6686e-10
1.67572e-10
1.68285e-10
1.68999e-10
1.69713e-10
1.70428e-10
1.71144e-10
1.71861e-10
1.72579e-10
1.73297e-10
1.74017e-10
1.74737e-10
1.75458e-10
1.7618e-10
1.76903e-10
1.77627e-10
1.78351e-10
1.79076e-10
1.79802e-10
1.80529e-10
1.81256e-10
1.81985e-10
1.82713e-10
1.83443e-10
1.84173e-10
1.84904e-10
1.85636e-10
1.86368e-10
1.87101e-10
1.87834e-10
1.88569e-10
1.89304e-10
1.90039e-10
1.90775e-10
1.91512e-10
1.92249e-10
1.92988e-10
1.93726e-10
1.94466e-10
1.95206e-10
1.95946e-10
1.96687e-10
1.97429e-10
1.98172e-10
1.98915e-10
1.99659e-10
2.00403e-10
2.01148e-10
2.01894e-10
2.0264e-10
2.03387e-10
2.04135e-10
2.04883e-10
2.05632e-10
2.06382e-10
2.07132e-10
2.07883e-10
2.08634e-10
2.09386e-10
2.10139e-10
2.10892e-10
2.11646e-10
2.12401e-10
2.13156e-10
2.13912e-10
2.14669e-10
2.15426e-10
2.16184e-10
2.16943e-10
2.17703e-10
2.18463e-10
2.19223e-10
2.19985e-10
2.20747e-10
2.2151e-10
2.22274e-10
2.23038e-10
2.23803e-10
2.24569e-10
2.25336e-10
2.26103e-10
2.26871e-10
2.2764e-10
2.28409e-10
2.2918e-10
2.29951e-10
2.30723e-10
2.31495e-10
2.32268e-10
2.33042e-10
2.33816e-10
2.34591e-10
2.35366e-10
2.36141e-10
2.36916e-10
2.37692e-10
2.38468e-10
2.39243e-10
2.40018e-10
2.40794e-10
2.41569e-10
2.42343e-10
2.43118e-10
2.43891e-10
2.44665e-10
2.45438e-10
2.46212e-10
2.46984e-10
2.47757e-10
2.48531e-10
2.49304e-10
2.50078e-10
2.50853e-10
2.51628e-10
2.52405e-10
2.53183e-10
2.53963e-10
2.54745e-10
2.55529e-10
2.56316e-10
2.57106e-10
2.57898e-10
2.58694e-10
2.59493e-10
2.60296e-10
2.61102e-10
2.61912e-10
2.62725e-10
2.63542e-10
2.64362e-10
2.65186e-10
2.66013e-10
2.66843e-10
2.67675e-10
2.68509e-10
2.69346e-10
2.70184e-10
2.71024e-10
2.71865e-10
2.72707e-10
2.73549e-10
2.74392e-10
2.75236e-10
2.76079e-10
2.76922e-10
2.77766e-10
2.78609e-10
2.79452e-10
2.80295e-10
2.81137e-10
2.8198e-10
2.82823e-10
2.83666e-10
2.84509e-10
2.85352e-10
2.86195e-10
2.8704e-10
2.87884e-10
2.8873e-10
2.89576e-10
2.90423e-10
2.91271e-10
2.9212e-10
2.9297e-10
2.93821e-10
2.94674e-10
2.95528e-10
2.96383e-10
2.97239e-10
2.98097e-10
2.98956e-10
2.99816e-10
3.00678e-10
3.01541e-10
3.02405e-10
3.03271e-10
3.04138e-10
3.05006e-10
3.05876e-10
3.06748e-10
3.0762e-10
3.08494e-10
3.09369e-10
3.10245e-10
3.11123e-10
3.12002e-10
3.12882e-10
3.13764e-10
3.14647e-10
3.15531e-10
3.16416e-10
3.17303e-10
3.1819e-10
3.19079e-10
3.1997e-10
3.20861e-10
3.21754e-10
3.22648e-10
3.23544e-10
3.2444e-10
3.25338e-10
3.26237e-10
3.27138e-10
3.28039e-10
3.28942e-10
3.29847e-10
3.30752e-10
3.31659e-10
3.32567e-10
3.33477e-10
3.34387e-10
3.353e-10
3.36213e-10
3.37128e-10
3.38044e-10
3.38961e-10
3.3988e-10
3.408e-10
3.41721e-10
3.42644e-10
3.43568e-10
3.44494e-10
3.45421e-10
3.46349e-10
3.47279e-10
3.4821e-10
3.49142e-10
3.50076e-10
3.51012e-10
3.51949e-10
3.52887e-10
3.53827e-10
3.54769e-10
3.55712e-10
3.56656e-10
3.57602e-10
3.5855e-10
3.59499e-10
3.6045e-10
3.61402e-10
3.62356e-10
3.63312e-10
3.64269e-10
3.65228e-10
3.66188e-10
3.6715e-10
3.68114e-10
3.6908e-10
3.70047e-10
3.71016e-10
3.71986e-10
3.72958e-10
3.73932e-10
3.74907e-10
3.75884e-10
3.76862e-10
3.77842e-10
3.78823e-10
3.79806e-10
3.8079e-10
3.81775e-10
3.82761e-10
3.83748e-10
3.84736e-10
3.85726e-10
3.86716e-10
3.87708e-10
3.887e-10
3.89693e-10
3.90687e-10
3.91682e-10
3.92678e-10
3.93675e-10
3.94674e-10
3.95673e-10
3.96673e-10
3.97675e-10
3.98678e-10
3.99683e-10
4.0069e-10
4.01699e-10
4.0271e-10
4.03723e-10
4.04739e-10
4.05758e-10
4.0678e-10
4.07805e-10
4.08834e-10
4.09867e-10
4.10904e-10
4.11946e-10
4.12992e-10
4.14042e-10
4.15098e-10
4.16159e-10
4.17225e-10
4.18296e-10
4.19373e-10
4.20455e-10
4.21542e-10
4.22635e-10
4.23733e-10
4.24837e-10
4.25945e-10
4.27058e-10
4.28177e-10
4.29299e-10
4.30426e-10
4.31557e-10
4.32692e-10
4.33831e-10
4.34972e-10
4.36118e-10
4.37266e-10
4.38417e-10
4.39571e-10
4.40727e-10
4.41886e-10
4.43047e-10
4.4421e-10
4.45375e-10
4.46543e-10
4.47713e-10
4.48885e-10
4.50059e-10
4.51235e-10
4.52414e-10
4.53596e-10
4.5478e-10
4.55966e-10
4.57156e-10
4.58348e-10
4.59543e-10
4.60742e-10
4.61943e-10
4.63148e-10
4.64356e-10
4.65568e-10
4.66784e-10
4.68003e-10
4.69227e-10
4.70454e-10
4.71685e-10
4.7292e-10
4.7416e-10
4.75404e-10
4.76652e-10
4.77904e-10
4.79161e-10
4.80423e-10
4.81689e-10
4.8296e-10
4.84235e-10
4.85515e-10
4.86799e-10
4.88088e-10
4.89383e-10
4.90682e-10
4.91985e-10
4.93294e-10
4.94607e-10
4.95926e-10
4.97249e-10
4.98577e-10
4.99911e-10
5.01249e-10
5.02592e-10
5.03941e-10
5.05294e-10
5.06653e-10
5.08016e-10
5.09385e-10
5.10759e-10
5.12138e-10
5.13522e-10
5.14911e-10
5.16306e-10
5.17705e-10
5.19109e-10
5.20518e-10
5.21932e-10
5.2335e-10
5.24773e-10
5.26201e-10
5.27632e-10
5.29068e-10
5.30507e-10
5.3195e-10
5.33395e-10
5.34843e-10
5.36293e-10
5.37744e-10
5.39195e-10
5.40646e-10
5.42096e-10
5.43542e-10
5.44984e-10
5.46421e-10
5.4785e-10
5.49269e-10
5.50676e-10
5.52068e-10
5.53443e-10
5.54795e-10
5.56124e-10
5.57424e-10
5.58692e-10
5.59924e-10
5.61114e-10
5.6226e-10
5.63357e-10
5.64401e-10
5.6539e-10
5.66319e-10
5.67188e-10
5.67992e-10
5.68732e-10
5.69408e-10
5.7002e-10
5.7057e-10
5.7106e-10
5.71492e-10
5.7187e-10
5.72196e-10
5.72477e-10
5.72717e-10
5.7292e-10
5.7309e-10
5.73234e-10
5.73357e-10
5.73468e-10
5.73579e-10
5.73708e-10
5.73883e-10
5.74152e-10
5.74603e-10
5.75388e-10
5.76783e-10
5.79259e-10
5.83642e-10
5.91306e-10
6.0442e-10
6.26031e-10
6.59499e-10
7.06607e-10
7.64532e-10
8.24685e-10
8.76671e-10
9.14573e-10
9.38735e-10
9.52773e-10
9.60482e-10
9.64566e-10
9.66688e-10
9.67772e-10
9.68307e-10
9.68563e-10
9.68672e-10
9.68706e-10
9.687e-10
9.68672e-10
9.68634e-10
9.6859e-10
9.68542e-10
9.68492e-10
9.6844e-10
9.68388e-10
9.68336e-10
9.68284e-10
9.68233e-10
9.68182e-10
9.68131e-10
9.68083e-10
9.68035e-10
9.67989e-10
9.67946e-10
9.67905e-10
9.67866e-10
9.6783e-10
9.67797e-10
9.67768e-10
9.67741e-10
9.67719e-10
9.67701e-10
9.67687e-10
9.67678e-10
9.67673e-10
9.67672e-10
9.67672e-10
9.67674e-10
9.67681e-10
9.67698e-10
9.67718e-10
9.67741e-10
9.67767e-10
9.67797e-10
9.6783e-10
9.67866e-10
9.67904e-10
9.67944e-10
9.67986e-10
9.6803e-10
9.68076e-10
9.68122e-10
9.68169e-10
9.68217e-10
9.68265e-10
9.68313e-10
9.6836e-10
9.68406e-10
9.68452e-10
9.68497e-10
9.6854e-10
9.68583e-10
9.68623e-10
9.68662e-10
9.687e-10
9.68736e-10
9.68769e-10
9.68802e-10
9.68832e-10
9.68861e-10
9.68888e-10
9.68914e-10
9.68937e-10
9.6896e-10
9.68981e-10
9.69001e-10
9.69019e-10
9.69037e-10
9.69053e-10
9.69068e-10
9.69083e-10
9.69097e-10
9.6911e-10
9.69123e-10
9.69135e-10
9.69147e-10
9.69158e-10
9.69169e-10
9.6918e-10
9.69191e-10
9.69202e-10
9.69212e-10
9.69223e-10
9.69233e-10
9.69244e-10
9.69254e-10
9.69265e-10
9.69275e-10
9.69286e-10
9.69297e-10
9.69308e-10
9.69318e-10
9.69329e-10
9.6934e-10
9.69351e-10
9.69362e-10
9.69374e-10
9.69385e-10
9.69396e-10
9.69407e-10
9.69418e-10
9.69428e-10
9.69439e-10
9.6945e-10
9.69461e-10
9.69471e-10
9.69481e-10
9.69492e-10
9.69502e-10
9.69511e-10
9.69521e-10
9.6953e-10
9.6954e-10
9.69549e-10
9.69557e-10
9.69566e-10
9.69574e-10
9.69582e-10
9.69589e-10
9.69597e-10
9.69604e-10
9.69611e-10
9.69617e-10
9.69623e-10
9.69629e-10
9.69635e-10
9.6964e-10
9.69645e-10
9.69649e-10
9.69653e-10
9.69657e-10
9.69661e-10
9.69664e-10
9.69667e-10
9.6967e-10
9.69672e-10
9.69674e-10
9.69675e-10
9.69676e-10
9.69677e-10
9.69678e-10
9.69678e-10
9.69678e-10
9.69678e-10
9.69678e-10
9.69677e-10
9.69676e-10
9.69674e-10
9.69672e-10
9.6967e-10
9.69668e-10
9.69665e-10
9.69662e-10
9.69658e-10
9.69655e-10
9.69651e-10
9.69647e-10
9.69642e-10
9.69638e-10
9.69633e-10
9.69628e-10
9.69622e-10
9.69616e-10
9.6961e-10
9.69604e-10
9.69597e-10
9.6959e-10
9.69583e-10
9.69575e-10
9.69567e-10
9.69559e-10
9.6955e-10
9.6954e-10
9.69531e-10
9.6952e-10
9.69509e-10
9.69498e-10
9.69485e-10
9.69472e-10
9.69459e-10
9.69444e-10
9.69429e-10
9.69412e-10
9.69395e-10
9.69377e-10
9.69357e-10
9.69337e-10
9.69315e-10
9.69291e-10
9.69267e-10
9.69241e-10
9.69214e-10
9.69185e-10
9.69155e-10
9.69123e-10
9.6909e-10
9.69056e-10
9.6902e-10
9.68983e-10
9.68944e-10
9.68905e-10
9.68864e-10
9.68822e-10
9.68779e-10
9.68735e-10
9.6869e-10
9.68645e-10
9.68599e-10
9.68553e-10
9.68506e-10
9.6846e-10
9.68413e-10
9.68367e-10
9.68321e-10
9.68277e-10
9.68233e-10
9.6819e-10
9.68148e-10
9.68108e-10
9.6807e-10
9.68033e-10
9.67999e-10
9.67967e-10
9.67938e-10
9.67911e-10
9.67887e-10
9.67866e-10
9.67848e-10
9.67833e-10
9.67822e-10
9.67815e-10
9.6781e-10
9.67809e-10
9.67809e-10
9.6781e-10
9.67816e-10
9.67823e-10
9.67837e-10
9.67854e-10
9.67877e-10
9.67901e-10
9.67929e-10
9.67958e-10
9.6799e-10
9.68023e-10
9.68058e-10
9.68094e-10
)
;

boundaryField
{
    inlet
    {
        type            calculated;
        value           uniform 0;
    }
    outlet
    {
        type            calculated;
        value           uniform 9.68133e-10;
    }
    emptyWalls
    {
        type            empty;
        value           nonuniform List<scalar> 0();
    }
}


// ************************************************************************* //
