/*--------------------------------*- C++ -*----------------------------------*\
  =========                 |
  \\      /  F ield         | OpenFOAM: The Open Source CFD Toolbox
   \\    /   O peration     | Website:  https://openfoam.org
    \\  /    A nd           | Version:  9
     \\/     M anipulation  |
\*---------------------------------------------------------------------------*/
FoamFile
{
    format      ascii;
    class       volScalarField;
    location    "18300";
    object      Sb;
}
// * * * * * * * * * * * * * * * * * * * * * * * * * * * * * * * * * * * * * //

dimensions      [0 0 0 0 0 0 0];

internalField   nonuniform List<scalar> 
1000
(
0.350269
0.350938
0.351665
0.352562
0.353259
0.354166
0.354899
0.355782
0.356585
0.35744
0.358277
0.359115
0.359928
0.360723
0.361473
0.362183
0.362829
0.363418
0.363944
0.364384
0.36483
0.365178
0.36593
0.367849
0.3754
0.420082
0.590883
0.648801
0.661919
0.667442
0.67069
0.67292
0.674584
0.675893
0.676931
0.677802
0.678546
0.679194
0.67976
0.680261
0.680697
0.681082
0.681417
0.681707
0.681959
0.682172
0.682356
0.682507
0.682633
0.68273
0.682806
0.682855
0.682884
0.682888
0.682872
0.682832
0.682768
0.68268
0.682569
0.682432
0.68227
0.68208
0.68186
0.681606
0.681313
0.680973
0.680574
0.680099
0.679526
0.678832
0.678002
0.677035
0.675958
0.674812
0.673624
0.672408
0.671176
0.669935
0.668689
0.667443
0.666199
0.664958
0.663723
0.662493
0.661271
0.660056
0.65885
0.657651
0.656461
0.655279
0.654106
0.652942
0.651786
0.650639
0.6495
0.648369
0.647247
0.646133
0.645027
0.643929
0.64284
0.641758
0.640685
0.63962
0.638563
0.637513
0.63647
0.635434
0.634404
0.633379
0.63236
0.631345
0.630336
0.629331
0.628333
0.62734
0.626353
0.625372
0.624398
0.623431
0.622471
0.621518
0.620574
0.619637
0.61871
0.617791
0.616881
0.615981
0.615089
0.614205
0.613329
0.61246
0.611598
0.610742
0.609891
0.609045
0.608202
0.607363
0.606527
0.605695
0.604865
0.604038
0.603215
0.602395
0.601578
0.600765
0.599956
0.59915
0.598349
0.597552
0.596759
0.59597
0.595186
0.594406
0.59363
0.592859
0.592091
0.591329
0.59057
0.589815
0.589064
0.588317
0.587574
0.586835
0.586099
0.585367
0.584639
0.583914
0.583193
0.582475
0.58176
0.581049
0.580341
0.579636
0.578934
0.578236
0.577541
0.576849
0.57616
0.575474
0.574791
0.574111
0.573434
0.57276
0.572088
0.57142
0.570754
0.570092
0.569432
0.568774
0.56812
0.567468
0.566819
0.566172
0.565528
0.564887
0.564248
0.563612
0.562978
0.562347
0.561718
0.561092
0.560468
0.559846
0.559227
0.55861
0.557995
0.557383
0.556773
0.556165
0.55556
0.554957
0.554356
0.553757
0.55316
0.552566
0.551974
0.551384
0.550795
0.55021
0.549626
0.549044
0.548464
0.547886
0.54731
0.546737
0.546165
0.545595
0.545027
0.544461
0.543898
0.543335
0.542775
0.542217
0.54166
0.541105
0.540551
0.539999
0.539448
0.538898
0.538349
0.537802
0.537256
0.536711
0.536167
0.535624
0.535082
0.534542
0.534003
0.533465
0.532929
0.532394
0.531862
0.531331
0.530802
0.530276
0.529751
0.52923
0.528711
0.528194
0.52768
0.527169
0.526661
0.526155
0.525652
0.525152
0.524653
0.524157
0.523663
0.523171
0.522681
0.522192
0.521704
0.521217
0.520732
0.520247
0.519763
0.51928
0.518798
0.518316
0.517835
0.517354
0.516875
0.516396
0.515918
0.51544
0.514964
0.514489
0.514014
0.513541
0.513069
0.512597
0.512127
0.511658
0.511191
0.510724
0.510259
0.509795
0.509332
0.50887
0.50841
0.50795
0.507492
0.507035
0.506579
0.506124
0.50567
0.505217
0.504766
0.504315
0.503865
0.503417
0.502969
0.502523
0.502077
0.501632
0.501189
0.500746
0.500304
0.499863
0.499423
0.498984
0.498546
0.498109
0.497673
0.497237
0.496802
0.496369
0.495936
0.495504
0.495073
0.494642
0.494213
0.493784
0.493356
0.492929
0.492503
0.492078
0.491653
0.491229
0.490806
0.490384
0.489963
0.489542
0.489122
0.488703
0.488284
0.487867
0.48745
0.487034
0.486618
0.486203
0.485789
0.485376
0.484963
0.484551
0.48414
0.48373
0.48332
0.482911
0.482502
0.482094
0.481687
0.481281
0.480875
0.48047
0.480065
0.479662
0.479258
0.478856
0.478454
0.478053
0.477652
0.477252
0.476853
0.476454
0.476056
0.475659
0.475262
0.474865
0.47447
0.474074
0.473679
0.473285
0.472891
0.472498
0.472105
0.471712
0.47132
0.470928
0.470536
0.470144
0.469753
0.469363
0.468972
0.468582
0.468192
0.467802
0.467413
0.467024
0.466636
0.466248
0.46586
0.465473
0.465087
0.464701
0.464316
0.463932
0.463548
0.463165
0.462783
0.462403
0.462023
0.461644
0.461266
0.460889
0.460513
0.460138
0.459764
0.459391
0.459019
0.458648
0.458278
0.457908
0.457539
0.457171
0.456803
0.456436
0.456069
0.455703
0.455337
0.454971
0.454605
0.45424
0.453874
0.453509
0.453144
0.452779
0.452414
0.452049
0.451685
0.45132
0.450956
0.450591
0.450227
0.449863
0.4495
0.449136
0.448773
0.44841
0.448047
0.447685
0.447323
0.446961
0.446599
0.446238
0.445877
0.445516
0.445156
0.444796
0.444436
0.444077
0.443718
0.443359
0.443
0.442642
0.442284
0.441926
0.441569
0.441212
0.440855
0.440498
0.440142
0.439785
0.43943
0.439074
0.438718
0.438363
0.438008
0.437653
0.437298
0.436944
0.436589
0.436235
0.435881
0.435528
0.435174
0.434821
0.434467
0.434114
0.433761
0.433408
0.433056
0.432703
0.432351
0.431998
0.431646
0.431294
0.430942
0.43059
0.430239
0.429887
0.429535
0.429184
0.428833
0.428481
0.42813
0.427779
0.427428
0.427077
0.426727
0.426376
0.426025
0.425675
0.425324
0.424973
0.424623
0.424273
0.423922
0.423572
0.423222
0.422871
0.422521
0.422171
0.421821
0.42147
0.42112
0.42077
0.42042
0.42007
0.41972
0.41937
0.41902
0.418669
0.418319
0.417969
0.417619
0.417269
0.416918
0.416568
0.416218
0.415867
0.415517
0.415166
0.414816
0.414465
0.414114
0.413763
0.413412
0.413061
0.41271
0.412358
0.412007
0.411655
0.411303
0.41095
0.410598
0.410245
0.409892
0.409539
0.409186
0.408832
0.408478
0.408124
0.40777
0.407415
0.40706
0.406705
0.40635
0.405994
0.405639
0.405283
0.404927
0.404571
0.404214
0.403858
0.403501
0.403145
0.402788
0.402432
0.402075
0.401718
0.401361
0.401005
0.400648
0.400291
0.399934
0.399577
0.399221
0.398864
0.398507
0.39815
0.397793
0.397436
0.397079
0.396721
0.396364
0.396006
0.395648
0.395289
0.394931
0.394572
0.394212
0.393852
0.393492
0.393131
0.39277
0.392409
0.392046
0.391684
0.39132
0.390956
0.390592
0.390227
0.389861
0.389495
0.389128
0.38876
0.388392
0.388023
0.387654
0.387284
0.386913
0.386542
0.38617
0.385797
0.385424
0.38505
0.384676
0.384301
0.383925
0.383549
0.383172
0.382794
0.382415
0.382036
0.381656
0.381276
0.380895
0.380513
0.38013
0.379746
0.379362
0.378977
0.378591
0.378204
0.377817
0.377429
0.377039
0.376649
0.376259
0.375867
0.375474
0.375081
0.374686
0.374291
0.373895
0.373497
0.373099
0.3727
0.3723
0.371899
0.371497
0.371094
0.37069
0.370286
0.36988
0.369473
0.369065
0.368657
0.368247
0.367837
0.367426
0.367014
0.366601
0.366188
0.365774
0.365359
0.364944
0.364529
0.364114
0.363698
0.363283
0.362869
0.362455
0.362042
0.361631
0.361221
0.360814
0.36041
0.360009
0.359613
0.359221
0.358836
0.358457
0.358086
0.357724
0.357372
0.357031
0.356702
0.356387
0.356086
0.3558
0.355531
0.355279
0.355044
0.354828
0.354629
0.354449
0.354285
0.35414
0.35401
0.353896
0.353797
0.353712
0.353638
0.353575
0.353522
0.353477
0.353439
0.353405
0.353373
0.353339
0.353297
0.353238
0.353143
0.352982
0.352701
0.352203
0.351321
0.349773
0.347093
0.342589
0.335382
0.324707
0.310598
0.294554
0.279246
0.267011
0.258624
0.253498
0.250592
0.249018
0.248186
0.247752
0.247527
0.247411
0.247351
0.24732
0.247303
0.247295
0.24729
0.247288
0.247286
0.247285
0.247284
0.247283
0.247283
0.247282
0.247282
0.247281
0.247281
0.24728
0.24728
0.247279
0.247279
0.247278
0.247278
0.247277
0.247277
0.247276
0.247276
0.247275
0.247275
0.247275
0.247274
0.247274
0.247274
0.247274
0.247274
0.247273
0.247273
0.247273
0.247273
0.247273
0.247273
0.247273
0.247273
0.247274
0.247274
0.247274
0.247274
0.247274
0.247274
0.247275
0.247275
0.247275
0.247275
0.247276
0.247276
0.247276
0.247276
0.247276
0.247277
0.247277
0.247277
0.247277
0.247277
0.247278
0.247278
0.247278
0.247278
0.247278
0.247278
0.247278
0.247278
0.247278
0.247279
0.247279
0.247279
0.247279
0.247279
0.247279
0.247279
0.247279
0.247279
0.247279
0.247279
0.247279
0.247279
0.247279
0.247279
0.247279
0.24728
0.24728
0.24728
0.24728
0.24728
0.24728
0.24728
0.24728
0.24728
0.24728
0.247281
0.247281
0.247281
0.247281
0.247281
0.247281
0.247281
0.247282
0.247282
0.247282
0.247282
0.247282
0.247282
0.247283
0.247283
0.247283
0.247283
0.247283
0.247284
0.247284
0.247284
0.247284
0.247284
0.247284
0.247285
0.247285
0.247285
0.247285
0.247285
0.247285
0.247285
0.247286
0.247286
0.247286
0.247286
0.247286
0.247286
0.247286
0.247286
0.247286
0.247286
0.247286
0.247286
0.247287
0.247287
0.247287
0.247287
0.247287
0.247287
0.247287
0.247287
0.247287
0.247287
0.247287
0.247287
0.247287
0.247287
0.247287
0.247287
0.247287
0.247287
0.247287
0.247287
0.247286
0.247286
0.247286
0.247286
0.247286
0.247286
0.247286
0.247286
0.247286
0.247286
0.247286
0.247286
0.247286
0.247286
0.247286
0.247285
0.247285
0.247285
0.247285
0.247285
0.247285
0.247285
0.247285
0.247284
0.247284
0.247284
0.247284
0.247284
0.247283
0.247283
0.247283
0.247283
0.247282
0.247282
0.247282
0.247282
0.247281
0.247281
0.247281
0.247281
0.24728
0.24728
0.24728
0.24728
0.247279
0.247279
0.247279
0.247279
0.247278
0.247278
0.247278
0.247278
0.247277
0.247277
0.247277
0.247276
0.247276
0.247275
0.247275
0.247275
0.247274
0.247274
0.247273
0.247273
0.247272
0.247272
0.247272
0.247271
0.247271
0.247271
0.24727
0.24727
0.24727
0.247269
0.247269
0.247269
0.247269
0.247269
0.247269
0.247269
0.247269
0.247269
0.247269
0.247269
0.247269
0.247269
0.247269
0.24727
0.24727
0.24727
0.24727
0.247271
0.247271
0.247271
)
;

boundaryField
{
    inlet
    {
        type            fixedValue;
        value           uniform 0.35;
    }
    outlet
    {
        type            zeroGradient;
    }
    emptyWalls
    {
        type            empty;
    }
}


// ************************************************************************* //
