/*--------------------------------*- C++ -*----------------------------------*\
  =========                 |
  \\      /  F ield         | OpenFOAM: The Open Source CFD Toolbox
   \\    /   O peration     | Website:  https://openfoam.org
    \\  /    A nd           | Version:  9
     \\/     M anipulation  |
\*---------------------------------------------------------------------------*/
FoamFile
{
    format      ascii;
    class       volScalarField;
    location    "22600";
    object      Sb;
}
// * * * * * * * * * * * * * * * * * * * * * * * * * * * * * * * * * * * * * //

dimensions      [0 0 0 0 0 0 0];

internalField   nonuniform List<scalar> 
1000
(
0.350231
0.350716
0.351328
0.35199
0.352589
0.353282
0.353869
0.354595
0.355187
0.35592
0.356547
0.357259
0.357931
0.358624
0.35931
0.35999
0.360654
0.361305
0.361923
0.362515
0.363064
0.363567
0.364034
0.364418
0.364816
0.365079
0.365429
0.365656
0.366184
0.36753
0.372679
0.399984
0.550621
0.642328
0.659866
0.666032
0.669263
0.671383
0.672966
0.674239
0.675284
0.676149
0.676865
0.67748
0.678028
0.678541
0.679027
0.679484
0.679904
0.680283
0.680645
0.681002
0.681324
0.68161
0.681857
0.682069
0.682247
0.682395
0.682516
0.682615
0.682693
0.682753
0.682798
0.682829
0.682846
0.682849
0.682841
0.682819
0.682782
0.682731
0.682665
0.682585
0.682488
0.682376
0.682247
0.682101
0.681937
0.681754
0.681549
0.681321
0.681066
0.68078
0.680456
0.680084
0.679654
0.67915
0.678559
0.677871
0.677086
0.676219
0.675296
0.674338
0.673356
0.672358
0.67135
0.670337
0.669321
0.668304
0.667289
0.666276
0.665265
0.664259
0.663257
0.66226
0.661268
0.660281
0.659299
0.658323
0.657352
0.656387
0.655428
0.654474
0.653527
0.652585
0.651648
0.650718
0.649793
0.648875
0.647961
0.647054
0.646151
0.645255
0.644363
0.643476
0.642595
0.641719
0.640848
0.639983
0.639123
0.638268
0.637418
0.636573
0.635734
0.634899
0.634069
0.633243
0.632421
0.631603
0.630787
0.629975
0.629165
0.628358
0.627554
0.626753
0.625956
0.625162
0.624372
0.623586
0.622805
0.622028
0.621256
0.620489
0.619728
0.618973
0.618225
0.617482
0.616747
0.616017
0.615294
0.614577
0.613866
0.61316
0.612458
0.611761
0.611067
0.610376
0.609688
0.609002
0.608318
0.607637
0.606957
0.606279
0.605603
0.604928
0.604256
0.603586
0.602919
0.602254
0.601591
0.600932
0.600275
0.599621
0.59897
0.598322
0.597677
0.597035
0.596396
0.59576
0.595127
0.594496
0.593869
0.593244
0.592622
0.592002
0.591386
0.590772
0.59016
0.589551
0.588945
0.58834
0.587739
0.587139
0.586543
0.585948
0.585356
0.584766
0.584178
0.583592
0.583009
0.582428
0.581849
0.581272
0.580698
0.580125
0.579555
0.578986
0.57842
0.577856
0.577294
0.576734
0.576175
0.575619
0.575065
0.574513
0.573962
0.573414
0.572867
0.572323
0.57178
0.571239
0.570699
0.570162
0.569626
0.569092
0.56856
0.56803
0.567502
0.566975
0.56645
0.565926
0.565405
0.564885
0.564367
0.56385
0.563336
0.562822
0.562311
0.561801
0.561293
0.560786
0.560281
0.559777
0.559275
0.558775
0.558276
0.557779
0.557283
0.556789
0.556296
0.555805
0.555315
0.554827
0.55434
0.553854
0.553369
0.552885
0.552402
0.55192
0.551439
0.550958
0.550479
0.55
0.549522
0.549045
0.548568
0.548093
0.547619
0.547145
0.546673
0.546203
0.545734
0.545266
0.544801
0.544337
0.543875
0.543416
0.542959
0.542504
0.542051
0.541601
0.541153
0.540708
0.540265
0.539824
0.539385
0.538948
0.538512
0.538079
0.537646
0.537215
0.536785
0.536356
0.535928
0.535501
0.535074
0.534648
0.534222
0.533797
0.533372
0.532948
0.532525
0.532102
0.53168
0.531258
0.530837
0.530417
0.529998
0.52958
0.529162
0.528746
0.52833
0.527916
0.527502
0.527089
0.526678
0.526267
0.525858
0.525449
0.525041
0.524635
0.524229
0.523825
0.523421
0.523018
0.522616
0.522215
0.521815
0.521416
0.521018
0.520621
0.520224
0.519829
0.519434
0.51904
0.518647
0.518254
0.517863
0.517472
0.517082
0.516693
0.516305
0.515917
0.515531
0.515145
0.514759
0.514375
0.513991
0.513608
0.513226
0.512844
0.512464
0.512083
0.511704
0.511326
0.510948
0.51057
0.510194
0.509818
0.509443
0.509069
0.508695
0.508322
0.507949
0.507578
0.507207
0.506836
0.506466
0.506097
0.505729
0.505361
0.504994
0.504628
0.504262
0.503897
0.503532
0.503168
0.502805
0.502443
0.502081
0.501719
0.501358
0.500998
0.500639
0.50028
0.499922
0.499564
0.499207
0.498851
0.498495
0.49814
0.497785
0.497431
0.497078
0.496725
0.496372
0.49602
0.495669
0.495317
0.494967
0.494616
0.494266
0.493916
0.493567
0.493218
0.492869
0.49252
0.492172
0.491824
0.491476
0.491129
0.490782
0.490435
0.490088
0.489742
0.489397
0.489052
0.488707
0.488363
0.48802
0.487677
0.487336
0.486995
0.486655
0.486316
0.485978
0.485641
0.485305
0.48497
0.484636
0.484303
0.483971
0.483641
0.483311
0.482982
0.482655
0.482328
0.482001
0.481676
0.481351
0.481027
0.480703
0.48038
0.480057
0.479734
0.479412
0.47909
0.478768
0.478447
0.478125
0.477804
0.477483
0.477162
0.476842
0.476521
0.476201
0.475881
0.475561
0.475241
0.474922
0.474603
0.474284
0.473966
0.473648
0.47333
0.473013
0.472696
0.472379
0.472063
0.471747
0.471431
0.471116
0.470801
0.470487
0.470173
0.469859
0.469546
0.469233
0.468921
0.468609
0.468297
0.467986
0.467675
0.467364
0.467054
0.466744
0.466434
0.466125
0.465815
0.465507
0.465198
0.46489
0.464583
0.464275
0.463968
0.463661
0.463354
0.463048
0.462742
0.462436
0.462131
0.461826
0.461521
0.461216
0.460912
0.460608
0.460304
0.46
0.459697
0.459394
0.459091
0.458789
0.458487
0.458184
0.457883
0.457581
0.45728
0.456979
0.456678
0.456377
0.456077
0.455777
0.455477
0.455177
0.454878
0.454579
0.45428
0.453981
0.453682
0.453384
0.453086
0.452788
0.452491
0.452193
0.451896
0.451599
0.451302
0.451006
0.450709
0.450413
0.450117
0.449822
0.449526
0.449231
0.448936
0.448641
0.448346
0.448052
0.447757
0.447463
0.447169
0.446875
0.446581
0.446288
0.445994
0.445701
0.445408
0.445115
0.444822
0.444529
0.444236
0.443943
0.44365
0.443357
0.443064
0.442772
0.442479
0.442186
0.441894
0.441601
0.441308
0.441016
0.440723
0.440431
0.440138
0.439846
0.439554
0.439262
0.43897
0.438679
0.438388
0.438097
0.437806
0.437515
0.437225
0.436935
0.436646
0.436357
0.436068
0.43578
0.435492
0.435205
0.434918
0.434631
0.434345
0.43406
0.433775
0.43349
0.433205
0.432921
0.432637
0.432354
0.432071
0.431788
0.431505
0.431222
0.43094
0.430657
0.430375
0.430093
0.429811
0.429528
0.429246
0.428964
0.428682
0.428399
0.428117
0.427835
0.427552
0.42727
0.426987
0.426705
0.426422
0.426139
0.425856
0.425574
0.425291
0.425008
0.424725
0.424442
0.424159
0.423877
0.423594
0.423311
0.423028
0.422745
0.422462
0.42218
0.421897
0.421614
0.421332
0.421049
0.420766
0.420484
0.420201
0.419918
0.419636
0.419353
0.419071
0.418788
0.418506
0.418223
0.41794
0.417658
0.417375
0.417093
0.41681
0.416527
0.416245
0.415962
0.415679
0.415396
0.415113
0.414831
0.414548
0.414265
0.413982
0.413699
0.413415
0.413132
0.412849
0.412566
0.412282
0.411999
0.411715
0.411431
0.411148
0.410864
0.41058
0.410296
0.410012
0.409727
0.409443
0.409159
0.408874
0.40859
0.408305
0.40802
0.407735
0.40745
0.407165
0.406879
0.406594
0.406308
0.406022
0.405737
0.405451
0.405164
0.404878
0.404592
0.404305
0.404018
0.403732
0.403445
0.403157
0.40287
0.402583
0.402295
0.402007
0.401719
0.401431
0.401143
0.400854
0.400565
0.400276
0.399987
0.399698
0.399408
0.399119
0.398829
0.398538
0.398248
0.397957
0.397667
0.397375
0.397084
0.396792
0.3965
0.396208
0.395916
0.395623
0.39533
0.395036
0.394743
0.394449
0.394154
0.39386
0.393564
0.393269
0.392973
0.392677
0.392381
0.392084
0.391787
0.391489
0.391191
0.390893
0.390595
0.390296
0.389996
0.389697
0.389397
0.389097
0.388796
0.388496
0.388194
0.387893
0.387591
0.387289
0.386987
0.386685
0.386382
0.386079
0.385776
0.385473
0.385169
0.384865
0.384561
0.384256
0.383952
0.383647
0.383341
0.383036
0.38273
0.382424
0.382118
0.381811
0.381504
0.381196
0.380888
0.38058
0.380272
0.379962
0.379653
0.379343
0.379032
0.378721
0.378409
0.378097
0.377784
0.377471
0.377157
0.376842
0.376527
0.376211
0.375895
0.375577
0.37526
0.374941
0.374622
0.374302
0.373981
0.37366
0.373338
0.373015
0.372692
0.372368
0.372043
0.371718
0.371392
0.371065
0.370737
0.370409
0.37008
0.369751
0.36942
0.369089
0.368758
0.368425
0.368092
0.367759
0.367425
0.36709
0.366755
0.366419
0.366082
0.365745
0.365408
0.36507
0.364732
0.364393
0.364054
0.363715
0.363376
0.363037
0.362698
0.362359
0.362021
0.361683
0.361347
0.361011
0.360676
0.360343
0.360012
0.359683
0.359357
0.359034
0.358714
0.358399
0.358089
0.357784
0.357485
0.357193
0.356909
0.356633
0.356365
0.356108
0.355862
0.355626
0.355403
0.355191
0.354993
0.354807
0.354635
0.354476
0.354331
0.354198
0.354078
0.35397
0.353874
0.35379
0.353715
0.35365
0.353593
0.353545
0.353504
0.353469
0.35344
0.353415
0.353394
0.353377
0.353363
0.35335
0.353339
0.353327
0.353313
0.353293
0.353262
0.35321
0.353119
0.352958
0.352669
0.352154
0.351239
0.34963
0.346849
0.342186
0.334755
0.323823
0.309509
0.293423
0.278268
0.266299
0.258171
0.253236
0.25045
0.248944
0.24815
0.247736
0.247521
0.247411
0.247354
0.247324
0.247309
0.247301
0.247297
0.247295
0.247293
0.247293
0.247292
0.247292
0.247291
0.247291
0.24729
0.24729
0.247289
0.247289
0.247288
0.247288
0.247287
0.247286
0.247286
0.247285
0.247285
0.247284
0.247283
0.247283
0.247282
0.247281
0.24728
0.24728
0.247279
0.247278
0.247278
0.247277
0.247276
0.247275
0.247275
0.247274
0.247273
0.247273
0.247272
0.247272
0.247271
0.247271
0.24727
0.24727
0.247269
0.247269
0.247269
0.247268
0.247268
0.247268
0.247268
0.247267
0.247267
0.247267
0.247267
0.247267
0.247267
0.247267
0.247267
0.247267
0.247268
0.247268
0.247268
0.247268
0.247269
0.247269
0.247269
0.247269
0.24727
0.24727
0.24727
0.247271
0.247271
0.247272
0.247272
0.247272
0.247272
0.247273
)
;

boundaryField
{
    inlet
    {
        type            fixedValue;
        value           uniform 0.35;
    }
    outlet
    {
        type            zeroGradient;
    }
    emptyWalls
    {
        type            empty;
    }
}


// ************************************************************************* //
