/*--------------------------------*- C++ -*----------------------------------*\
  =========                 |
  \\      /  F ield         | OpenFOAM: The Open Source CFD Toolbox
   \\    /   O peration     | Website:  https://openfoam.org
    \\  /    A nd           | Version:  9
     \\/     M anipulation  |
\*---------------------------------------------------------------------------*/
FoamFile
{
    format      ascii;
    class       volVectorField;
    location    "22600";
    object      Uc;
}
// * * * * * * * * * * * * * * * * * * * * * * * * * * * * * * * * * * * * * //

dimensions      [0 0 0 0 0 0 0];

internalField   nonuniform List<vector> 
1000
(
(5.14684e-12 0 0)
(2.65931e-11 0 0)
(7.39922e-11 0 0)
(1.50235e-10 0 0)
(2.54262e-10 0 0)
(3.85721e-10 0 0)
(5.44553e-10 0 0)
(7.30788e-10 0 0)
(9.44467e-10 0 0)
(1.18542e-09 0 0)
(1.45331e-09 0 0)
(1.74729e-09 0 0)
(2.06607e-09 0 0)
(2.40767e-09 0 0)
(2.76921e-09 0 0)
(3.14694e-09 0 0)
(3.53597e-09 0 0)
(3.93046e-09 0 0)
(4.32384e-09 0 0)
(4.70912e-09 0 0)
(5.07961e-09 0 0)
(5.42931e-09 0 0)
(5.75375e-09 0 0)
(6.04993e-09 0 0)
(6.3171e-09 0 0)
(6.55749e-09 0 0)
(6.78202e-09 0 0)
(7.04042e-09 0 0)
(7.56039e-09 0 0)
(9.30369e-09 0 0)
(1.5922e-08 0 0)
(4.97332e-08 0 0)
(1.32293e-07 0 0)
(1.9687e-07 0 0)
(2.10825e-07 0 0)
(2.15923e-07 0 0)
(2.18791e-07 0 0)
(2.20825e-07 0 0)
(2.22467e-07 0 0)
(2.23891e-07 0 0)
(2.25165e-07 0 0)
(2.26321e-07 0 0)
(2.27382e-07 0 0)
(2.28375e-07 0 0)
(2.2933e-07 0 0)
(2.30272e-07 0 0)
(2.31213e-07 0 0)
(2.32152e-07 0 0)
(2.3308e-07 0 0)
(2.33993e-07 0 0)
(2.34923e-07 0 0)
(2.35872e-07 0 0)
(2.36809e-07 0 0)
(2.37728e-07 0 0)
(2.38625e-07 0 0)
(2.39499e-07 0 0)
(2.40353e-07 0 0)
(2.41188e-07 0 0)
(2.4201e-07 0 0)
(2.42823e-07 0 0)
(2.4363e-07 0 0)
(2.44435e-07 0 0)
(2.45245e-07 0 0)
(2.46061e-07 0 0)
(2.46886e-07 0 0)
(2.47724e-07 0 0)
(2.48585e-07 0 0)
(2.4947e-07 0 0)
(2.50373e-07 0 0)
(2.51295e-07 0 0)
(2.52234e-07 0 0)
(2.53194e-07 0 0)
(2.54175e-07 0 0)
(2.55181e-07 0 0)
(2.56213e-07 0 0)
(2.57277e-07 0 0)
(2.58375e-07 0 0)
(2.59514e-07 0 0)
(2.60701e-07 0 0)
(2.61947e-07 0 0)
(2.63264e-07 0 0)
(2.64672e-07 0 0)
(2.66197e-07 0 0)
(2.67872e-07 0 0)
(2.6974e-07 0 0)
(2.71848e-07 0 0)
(2.74242e-07 0 0)
(2.76953e-07 0 0)
(2.79985e-07 0 0)
(2.83306e-07 0 0)
(2.86859e-07 0 0)
(2.90588e-07 0 0)
(2.94448e-07 0 0)
(2.9841e-07 0 0)
(3.0245e-07 0 0)
(3.06554e-07 0 0)
(3.10708e-07 0 0)
(3.14906e-07 0 0)
(3.1914e-07 0 0)
(3.23406e-07 0 0)
(3.27699e-07 0 0)
(3.32016e-07 0 0)
(3.36356e-07 0 0)
(3.40715e-07 0 0)
(3.45093e-07 0 0)
(3.49488e-07 0 0)
(3.53899e-07 0 0)
(3.58324e-07 0 0)
(3.62763e-07 0 0)
(3.67216e-07 0 0)
(3.71681e-07 0 0)
(3.76159e-07 0 0)
(3.80648e-07 0 0)
(3.85149e-07 0 0)
(3.89662e-07 0 0)
(3.94186e-07 0 0)
(3.98721e-07 0 0)
(4.03266e-07 0 0)
(4.07821e-07 0 0)
(4.12387e-07 0 0)
(4.16961e-07 0 0)
(4.21544e-07 0 0)
(4.26136e-07 0 0)
(4.30736e-07 0 0)
(4.35344e-07 0 0)
(4.39961e-07 0 0)
(4.44586e-07 0 0)
(4.4922e-07 0 0)
(4.53863e-07 0 0)
(4.58514e-07 0 0)
(4.63175e-07 0 0)
(4.67845e-07 0 0)
(4.72523e-07 0 0)
(4.7721e-07 0 0)
(4.81903e-07 0 0)
(4.86601e-07 0 0)
(4.91302e-07 0 0)
(4.96004e-07 0 0)
(5.00705e-07 0 0)
(5.05405e-07 0 0)
(5.10101e-07 0 0)
(5.14796e-07 0 0)
(5.19488e-07 0 0)
(5.24179e-07 0 0)
(5.28871e-07 0 0)
(5.33564e-07 0 0)
(5.3826e-07 0 0)
(5.4296e-07 0 0)
(5.47667e-07 0 0)
(5.52382e-07 0 0)
(5.57108e-07 0 0)
(5.61847e-07 0 0)
(5.66601e-07 0 0)
(5.71373e-07 0 0)
(5.76166e-07 0 0)
(5.80981e-07 0 0)
(5.85819e-07 0 0)
(5.90681e-07 0 0)
(5.95567e-07 0 0)
(6.00475e-07 0 0)
(6.05404e-07 0 0)
(6.1035e-07 0 0)
(6.15312e-07 0 0)
(6.20285e-07 0 0)
(6.25267e-07 0 0)
(6.30254e-07 0 0)
(6.35244e-07 0 0)
(6.40235e-07 0 0)
(6.45224e-07 0 0)
(6.5021e-07 0 0)
(6.55193e-07 0 0)
(6.60173e-07 0 0)
(6.65149e-07 0 0)
(6.70123e-07 0 0)
(6.75095e-07 0 0)
(6.80066e-07 0 0)
(6.85037e-07 0 0)
(6.9001e-07 0 0)
(6.94985e-07 0 0)
(6.99963e-07 0 0)
(7.04946e-07 0 0)
(7.09934e-07 0 0)
(7.14927e-07 0 0)
(7.19927e-07 0 0)
(7.24933e-07 0 0)
(7.29945e-07 0 0)
(7.34965e-07 0 0)
(7.39991e-07 0 0)
(7.45024e-07 0 0)
(7.50064e-07 0 0)
(7.5511e-07 0 0)
(7.60162e-07 0 0)
(7.6522e-07 0 0)
(7.70285e-07 0 0)
(7.75355e-07 0 0)
(7.8043e-07 0 0)
(7.85511e-07 0 0)
(7.90597e-07 0 0)
(7.95688e-07 0 0)
(8.00784e-07 0 0)
(8.05885e-07 0 0)
(8.10991e-07 0 0)
(8.16102e-07 0 0)
(8.21217e-07 0 0)
(8.26337e-07 0 0)
(8.31461e-07 0 0)
(8.36589e-07 0 0)
(8.41722e-07 0 0)
(8.46859e-07 0 0)
(8.52001e-07 0 0)
(8.57147e-07 0 0)
(8.62297e-07 0 0)
(8.67451e-07 0 0)
(8.72609e-07 0 0)
(8.77772e-07 0 0)
(8.82938e-07 0 0)
(8.88109e-07 0 0)
(8.93283e-07 0 0)
(8.98462e-07 0 0)
(9.03644e-07 0 0)
(9.08831e-07 0 0)
(9.14021e-07 0 0)
(9.19216e-07 0 0)
(9.24414e-07 0 0)
(9.29616e-07 0 0)
(9.34822e-07 0 0)
(9.40031e-07 0 0)
(9.45244e-07 0 0)
(9.50461e-07 0 0)
(9.55682e-07 0 0)
(9.60906e-07 0 0)
(9.66133e-07 0 0)
(9.71365e-07 0 0)
(9.76599e-07 0 0)
(9.81838e-07 0 0)
(9.8708e-07 0 0)
(9.92326e-07 0 0)
(9.97576e-07 0 0)
(1.00283e-06 0 0)
(1.00809e-06 0 0)
(1.01335e-06 0 0)
(1.01862e-06 0 0)
(1.02389e-06 0 0)
(1.02916e-06 0 0)
(1.03444e-06 0 0)
(1.03972e-06 0 0)
(1.045e-06 0 0)
(1.05029e-06 0 0)
(1.05558e-06 0 0)
(1.06088e-06 0 0)
(1.06618e-06 0 0)
(1.07148e-06 0 0)
(1.07679e-06 0 0)
(1.0821e-06 0 0)
(1.08742e-06 0 0)
(1.09274e-06 0 0)
(1.09806e-06 0 0)
(1.10339e-06 0 0)
(1.10872e-06 0 0)
(1.11406e-06 0 0)
(1.1194e-06 0 0)
(1.12474e-06 0 0)
(1.13008e-06 0 0)
(1.13542e-06 0 0)
(1.14076e-06 0 0)
(1.1461e-06 0 0)
(1.15143e-06 0 0)
(1.15676e-06 0 0)
(1.16209e-06 0 0)
(1.1674e-06 0 0)
(1.17272e-06 0 0)
(1.17802e-06 0 0)
(1.18332e-06 0 0)
(1.18862e-06 0 0)
(1.19391e-06 0 0)
(1.1992e-06 0 0)
(1.20448e-06 0 0)
(1.20977e-06 0 0)
(1.21506e-06 0 0)
(1.22035e-06 0 0)
(1.22564e-06 0 0)
(1.23095e-06 0 0)
(1.23626e-06 0 0)
(1.24159e-06 0 0)
(1.24694e-06 0 0)
(1.2523e-06 0 0)
(1.25768e-06 0 0)
(1.26309e-06 0 0)
(1.26851e-06 0 0)
(1.27396e-06 0 0)
(1.27944e-06 0 0)
(1.28494e-06 0 0)
(1.29046e-06 0 0)
(1.29601e-06 0 0)
(1.30157e-06 0 0)
(1.30715e-06 0 0)
(1.31275e-06 0 0)
(1.31837e-06 0 0)
(1.32399e-06 0 0)
(1.32962e-06 0 0)
(1.33525e-06 0 0)
(1.34089e-06 0 0)
(1.34652e-06 0 0)
(1.35216e-06 0 0)
(1.35779e-06 0 0)
(1.36342e-06 0 0)
(1.36905e-06 0 0)
(1.37466e-06 0 0)
(1.38028e-06 0 0)
(1.38589e-06 0 0)
(1.39149e-06 0 0)
(1.39709e-06 0 0)
(1.40269e-06 0 0)
(1.40829e-06 0 0)
(1.41388e-06 0 0)
(1.41948e-06 0 0)
(1.42507e-06 0 0)
(1.43067e-06 0 0)
(1.43627e-06 0 0)
(1.44187e-06 0 0)
(1.44747e-06 0 0)
(1.45308e-06 0 0)
(1.45869e-06 0 0)
(1.46431e-06 0 0)
(1.46993e-06 0 0)
(1.47556e-06 0 0)
(1.4812e-06 0 0)
(1.48683e-06 0 0)
(1.49248e-06 0 0)
(1.49813e-06 0 0)
(1.50378e-06 0 0)
(1.50945e-06 0 0)
(1.51511e-06 0 0)
(1.52078e-06 0 0)
(1.52646e-06 0 0)
(1.53214e-06 0 0)
(1.53783e-06 0 0)
(1.54352e-06 0 0)
(1.54921e-06 0 0)
(1.55491e-06 0 0)
(1.56061e-06 0 0)
(1.56632e-06 0 0)
(1.57203e-06 0 0)
(1.57775e-06 0 0)
(1.58347e-06 0 0)
(1.58919e-06 0 0)
(1.59492e-06 0 0)
(1.60065e-06 0 0)
(1.60639e-06 0 0)
(1.61213e-06 0 0)
(1.61787e-06 0 0)
(1.62362e-06 0 0)
(1.62937e-06 0 0)
(1.63512e-06 0 0)
(1.64088e-06 0 0)
(1.64664e-06 0 0)
(1.6524e-06 0 0)
(1.65817e-06 0 0)
(1.66394e-06 0 0)
(1.66972e-06 0 0)
(1.6755e-06 0 0)
(1.68128e-06 0 0)
(1.68706e-06 0 0)
(1.69285e-06 0 0)
(1.69865e-06 0 0)
(1.70444e-06 0 0)
(1.71024e-06 0 0)
(1.71604e-06 0 0)
(1.72185e-06 0 0)
(1.72766e-06 0 0)
(1.73347e-06 0 0)
(1.73929e-06 0 0)
(1.74511e-06 0 0)
(1.75093e-06 0 0)
(1.75676e-06 0 0)
(1.76259e-06 0 0)
(1.76842e-06 0 0)
(1.77426e-06 0 0)
(1.7801e-06 0 0)
(1.78594e-06 0 0)
(1.79179e-06 0 0)
(1.79764e-06 0 0)
(1.8035e-06 0 0)
(1.80935e-06 0 0)
(1.81522e-06 0 0)
(1.82108e-06 0 0)
(1.82695e-06 0 0)
(1.83283e-06 0 0)
(1.83871e-06 0 0)
(1.84459e-06 0 0)
(1.85047e-06 0 0)
(1.85636e-06 0 0)
(1.86226e-06 0 0)
(1.86816e-06 0 0)
(1.87406e-06 0 0)
(1.87996e-06 0 0)
(1.88588e-06 0 0)
(1.89179e-06 0 0)
(1.89771e-06 0 0)
(1.90363e-06 0 0)
(1.90956e-06 0 0)
(1.91549e-06 0 0)
(1.92142e-06 0 0)
(1.92736e-06 0 0)
(1.93329e-06 0 0)
(1.93923e-06 0 0)
(1.94517e-06 0 0)
(1.95111e-06 0 0)
(1.95704e-06 0 0)
(1.96298e-06 0 0)
(1.96891e-06 0 0)
(1.97484e-06 0 0)
(1.98077e-06 0 0)
(1.98669e-06 0 0)
(1.9926e-06 0 0)
(1.99851e-06 0 0)
(2.00442e-06 0 0)
(2.01032e-06 0 0)
(2.01621e-06 0 0)
(2.0221e-06 0 0)
(2.02799e-06 0 0)
(2.03387e-06 0 0)
(2.03976e-06 0 0)
(2.04564e-06 0 0)
(2.05152e-06 0 0)
(2.05741e-06 0 0)
(2.0633e-06 0 0)
(2.0692e-06 0 0)
(2.0751e-06 0 0)
(2.08102e-06 0 0)
(2.08695e-06 0 0)
(2.0929e-06 0 0)
(2.09886e-06 0 0)
(2.10484e-06 0 0)
(2.11085e-06 0 0)
(2.11687e-06 0 0)
(2.12292e-06 0 0)
(2.12899e-06 0 0)
(2.13509e-06 0 0)
(2.14121e-06 0 0)
(2.14736e-06 0 0)
(2.15354e-06 0 0)
(2.15974e-06 0 0)
(2.16596e-06 0 0)
(2.1722e-06 0 0)
(2.17846e-06 0 0)
(2.18474e-06 0 0)
(2.19104e-06 0 0)
(2.19735e-06 0 0)
(2.20367e-06 0 0)
(2.20999e-06 0 0)
(2.21633e-06 0 0)
(2.22267e-06 0 0)
(2.22902e-06 0 0)
(2.23536e-06 0 0)
(2.24171e-06 0 0)
(2.24805e-06 0 0)
(2.25439e-06 0 0)
(2.26073e-06 0 0)
(2.26707e-06 0 0)
(2.27341e-06 0 0)
(2.27974e-06 0 0)
(2.28607e-06 0 0)
(2.29239e-06 0 0)
(2.29871e-06 0 0)
(2.30504e-06 0 0)
(2.31136e-06 0 0)
(2.31768e-06 0 0)
(2.324e-06 0 0)
(2.33032e-06 0 0)
(2.33665e-06 0 0)
(2.34298e-06 0 0)
(2.34931e-06 0 0)
(2.35564e-06 0 0)
(2.36198e-06 0 0)
(2.36832e-06 0 0)
(2.37467e-06 0 0)
(2.38103e-06 0 0)
(2.38739e-06 0 0)
(2.39376e-06 0 0)
(2.40013e-06 0 0)
(2.40651e-06 0 0)
(2.4129e-06 0 0)
(2.41929e-06 0 0)
(2.42569e-06 0 0)
(2.4321e-06 0 0)
(2.43851e-06 0 0)
(2.44493e-06 0 0)
(2.45136e-06 0 0)
(2.45779e-06 0 0)
(2.46423e-06 0 0)
(2.47068e-06 0 0)
(2.47713e-06 0 0)
(2.48359e-06 0 0)
(2.49006e-06 0 0)
(2.49653e-06 0 0)
(2.50301e-06 0 0)
(2.50949e-06 0 0)
(2.51598e-06 0 0)
(2.52248e-06 0 0)
(2.52898e-06 0 0)
(2.53548e-06 0 0)
(2.542e-06 0 0)
(2.54851e-06 0 0)
(2.55504e-06 0 0)
(2.56156e-06 0 0)
(2.5681e-06 0 0)
(2.57464e-06 0 0)
(2.58118e-06 0 0)
(2.58773e-06 0 0)
(2.59429e-06 0 0)
(2.60085e-06 0 0)
(2.60741e-06 0 0)
(2.61398e-06 0 0)
(2.62056e-06 0 0)
(2.62714e-06 0 0)
(2.63373e-06 0 0)
(2.64032e-06 0 0)
(2.64692e-06 0 0)
(2.65352e-06 0 0)
(2.66013e-06 0 0)
(2.66674e-06 0 0)
(2.67336e-06 0 0)
(2.67998e-06 0 0)
(2.68661e-06 0 0)
(2.69324e-06 0 0)
(2.69988e-06 0 0)
(2.70652e-06 0 0)
(2.71317e-06 0 0)
(2.71982e-06 0 0)
(2.72648e-06 0 0)
(2.73315e-06 0 0)
(2.73982e-06 0 0)
(2.74649e-06 0 0)
(2.75317e-06 0 0)
(2.75986e-06 0 0)
(2.76655e-06 0 0)
(2.77325e-06 0 0)
(2.77995e-06 0 0)
(2.78666e-06 0 0)
(2.79338e-06 0 0)
(2.8001e-06 0 0)
(2.80683e-06 0 0)
(2.81356e-06 0 0)
(2.8203e-06 0 0)
(2.82704e-06 0 0)
(2.83379e-06 0 0)
(2.84055e-06 0 0)
(2.84731e-06 0 0)
(2.85408e-06 0 0)
(2.86086e-06 0 0)
(2.86764e-06 0 0)
(2.87443e-06 0 0)
(2.88123e-06 0 0)
(2.88803e-06 0 0)
(2.89484e-06 0 0)
(2.90165e-06 0 0)
(2.90847e-06 0 0)
(2.91529e-06 0 0)
(2.92212e-06 0 0)
(2.92896e-06 0 0)
(2.93579e-06 0 0)
(2.94264e-06 0 0)
(2.94948e-06 0 0)
(2.95633e-06 0 0)
(2.96318e-06 0 0)
(2.97003e-06 0 0)
(2.97688e-06 0 0)
(2.98373e-06 0 0)
(2.99059e-06 0 0)
(2.99744e-06 0 0)
(3.00429e-06 0 0)
(3.01114e-06 0 0)
(3.01799e-06 0 0)
(3.02483e-06 0 0)
(3.03168e-06 0 0)
(3.03852e-06 0 0)
(3.04536e-06 0 0)
(3.0522e-06 0 0)
(3.05904e-06 0 0)
(3.06588e-06 0 0)
(3.07272e-06 0 0)
(3.07956e-06 0 0)
(3.08641e-06 0 0)
(3.09325e-06 0 0)
(3.10011e-06 0 0)
(3.10697e-06 0 0)
(3.11384e-06 0 0)
(3.12072e-06 0 0)
(3.12761e-06 0 0)
(3.13451e-06 0 0)
(3.14143e-06 0 0)
(3.14837e-06 0 0)
(3.15532e-06 0 0)
(3.1623e-06 0 0)
(3.1693e-06 0 0)
(3.17632e-06 0 0)
(3.18337e-06 0 0)
(3.19045e-06 0 0)
(3.19755e-06 0 0)
(3.20468e-06 0 0)
(3.21184e-06 0 0)
(3.21903e-06 0 0)
(3.22625e-06 0 0)
(3.2335e-06 0 0)
(3.24077e-06 0 0)
(3.24808e-06 0 0)
(3.25541e-06 0 0)
(3.26277e-06 0 0)
(3.27015e-06 0 0)
(3.27755e-06 0 0)
(3.28498e-06 0 0)
(3.29242e-06 0 0)
(3.29988e-06 0 0)
(3.30736e-06 0 0)
(3.31485e-06 0 0)
(3.32236e-06 0 0)
(3.32987e-06 0 0)
(3.3374e-06 0 0)
(3.34493e-06 0 0)
(3.35246e-06 0 0)
(3.36001e-06 0 0)
(3.36755e-06 0 0)
(3.3751e-06 0 0)
(3.38265e-06 0 0)
(3.39021e-06 0 0)
(3.39777e-06 0 0)
(3.40533e-06 0 0)
(3.41289e-06 0 0)
(3.42045e-06 0 0)
(3.42802e-06 0 0)
(3.43559e-06 0 0)
(3.44316e-06 0 0)
(3.45074e-06 0 0)
(3.45832e-06 0 0)
(3.4659e-06 0 0)
(3.4735e-06 0 0)
(3.48109e-06 0 0)
(3.4887e-06 0 0)
(3.49631e-06 0 0)
(3.50393e-06 0 0)
(3.51156e-06 0 0)
(3.5192e-06 0 0)
(3.52685e-06 0 0)
(3.53451e-06 0 0)
(3.54218e-06 0 0)
(3.54985e-06 0 0)
(3.55754e-06 0 0)
(3.56525e-06 0 0)
(3.57296e-06 0 0)
(3.58068e-06 0 0)
(3.58842e-06 0 0)
(3.59617e-06 0 0)
(3.60393e-06 0 0)
(3.6117e-06 0 0)
(3.61948e-06 0 0)
(3.62728e-06 0 0)
(3.63509e-06 0 0)
(3.64291e-06 0 0)
(3.65074e-06 0 0)
(3.65859e-06 0 0)
(3.66644e-06 0 0)
(3.67431e-06 0 0)
(3.68219e-06 0 0)
(3.69009e-06 0 0)
(3.69799e-06 0 0)
(3.70591e-06 0 0)
(3.71384e-06 0 0)
(3.72178e-06 0 0)
(3.72973e-06 0 0)
(3.73769e-06 0 0)
(3.74567e-06 0 0)
(3.75365e-06 0 0)
(3.76165e-06 0 0)
(3.76966e-06 0 0)
(3.77768e-06 0 0)
(3.78572e-06 0 0)
(3.79376e-06 0 0)
(3.80182e-06 0 0)
(3.80989e-06 0 0)
(3.81797e-06 0 0)
(3.82606e-06 0 0)
(3.83417e-06 0 0)
(3.84228e-06 0 0)
(3.85041e-06 0 0)
(3.85855e-06 0 0)
(3.8667e-06 0 0)
(3.87487e-06 0 0)
(3.88304e-06 0 0)
(3.89123e-06 0 0)
(3.89943e-06 0 0)
(3.90765e-06 0 0)
(3.91587e-06 0 0)
(3.92411e-06 0 0)
(3.93236e-06 0 0)
(3.94062e-06 0 0)
(3.9489e-06 0 0)
(3.95719e-06 0 0)
(3.96549e-06 0 0)
(3.9738e-06 0 0)
(3.98213e-06 0 0)
(3.99047e-06 0 0)
(3.99882e-06 0 0)
(4.00719e-06 0 0)
(4.01557e-06 0 0)
(4.02397e-06 0 0)
(4.03237e-06 0 0)
(4.04079e-06 0 0)
(4.04923e-06 0 0)
(4.05768e-06 0 0)
(4.06614e-06 0 0)
(4.07462e-06 0 0)
(4.08312e-06 0 0)
(4.09162e-06 0 0)
(4.10015e-06 0 0)
(4.10869e-06 0 0)
(4.11724e-06 0 0)
(4.12581e-06 0 0)
(4.13439e-06 0 0)
(4.14299e-06 0 0)
(4.1516e-06 0 0)
(4.16023e-06 0 0)
(4.16888e-06 0 0)
(4.17754e-06 0 0)
(4.18621e-06 0 0)
(4.19491e-06 0 0)
(4.20361e-06 0 0)
(4.21234e-06 0 0)
(4.22107e-06 0 0)
(4.22983e-06 0 0)
(4.2386e-06 0 0)
(4.24738e-06 0 0)
(4.25617e-06 0 0)
(4.26498e-06 0 0)
(4.27381e-06 0 0)
(4.28265e-06 0 0)
(4.2915e-06 0 0)
(4.30036e-06 0 0)
(4.30924e-06 0 0)
(4.31812e-06 0 0)
(4.32702e-06 0 0)
(4.33593e-06 0 0)
(4.34485e-06 0 0)
(4.35379e-06 0 0)
(4.36273e-06 0 0)
(4.37168e-06 0 0)
(4.38065e-06 0 0)
(4.38962e-06 0 0)
(4.39861e-06 0 0)
(4.4076e-06 0 0)
(4.41661e-06 0 0)
(4.42563e-06 0 0)
(4.43466e-06 0 0)
(4.44371e-06 0 0)
(4.45277e-06 0 0)
(4.46184e-06 0 0)
(4.47093e-06 0 0)
(4.48004e-06 0 0)
(4.48916e-06 0 0)
(4.4983e-06 0 0)
(4.50747e-06 0 0)
(4.51666e-06 0 0)
(4.52587e-06 0 0)
(4.5351e-06 0 0)
(4.54437e-06 0 0)
(4.55366e-06 0 0)
(4.56299e-06 0 0)
(4.57235e-06 0 0)
(4.58174e-06 0 0)
(4.59116e-06 0 0)
(4.60063e-06 0 0)
(4.61013e-06 0 0)
(4.61968e-06 0 0)
(4.62927e-06 0 0)
(4.6389e-06 0 0)
(4.64857e-06 0 0)
(4.6583e-06 0 0)
(4.66806e-06 0 0)
(4.67788e-06 0 0)
(4.68774e-06 0 0)
(4.69765e-06 0 0)
(4.7076e-06 0 0)
(4.71761e-06 0 0)
(4.72766e-06 0 0)
(4.73776e-06 0 0)
(4.7479e-06 0 0)
(4.75808e-06 0 0)
(4.76832e-06 0 0)
(4.77859e-06 0 0)
(4.7889e-06 0 0)
(4.79926e-06 0 0)
(4.80965e-06 0 0)
(4.82008e-06 0 0)
(4.83055e-06 0 0)
(4.84105e-06 0 0)
(4.85158e-06 0 0)
(4.86214e-06 0 0)
(4.87274e-06 0 0)
(4.88336e-06 0 0)
(4.89402e-06 0 0)
(4.9047e-06 0 0)
(4.91541e-06 0 0)
(4.92614e-06 0 0)
(4.9369e-06 0 0)
(4.94769e-06 0 0)
(4.9585e-06 0 0)
(4.96934e-06 0 0)
(4.9802e-06 0 0)
(4.99109e-06 0 0)
(5.00201e-06 0 0)
(5.01295e-06 0 0)
(5.02392e-06 0 0)
(5.03491e-06 0 0)
(5.04594e-06 0 0)
(5.05699e-06 0 0)
(5.06808e-06 0 0)
(5.07919e-06 0 0)
(5.09033e-06 0 0)
(5.1015e-06 0 0)
(5.11271e-06 0 0)
(5.12395e-06 0 0)
(5.13522e-06 0 0)
(5.14652e-06 0 0)
(5.15786e-06 0 0)
(5.16923e-06 0 0)
(5.18063e-06 0 0)
(5.19207e-06 0 0)
(5.20355e-06 0 0)
(5.21506e-06 0 0)
(5.2266e-06 0 0)
(5.23818e-06 0 0)
(5.24979e-06 0 0)
(5.26143e-06 0 0)
(5.27311e-06 0 0)
(5.28482e-06 0 0)
(5.29656e-06 0 0)
(5.30833e-06 0 0)
(5.32013e-06 0 0)
(5.33196e-06 0 0)
(5.34381e-06 0 0)
(5.35568e-06 0 0)
(5.36757e-06 0 0)
(5.37948e-06 0 0)
(5.3914e-06 0 0)
(5.40332e-06 0 0)
(5.41526e-06 0 0)
(5.42718e-06 0 0)
(5.4391e-06 0 0)
(5.45101e-06 0 0)
(5.46289e-06 0 0)
(5.47474e-06 0 0)
(5.48654e-06 0 0)
(5.49828e-06 0 0)
(5.50996e-06 0 0)
(5.52155e-06 0 0)
(5.53304e-06 0 0)
(5.54441e-06 0 0)
(5.55564e-06 0 0)
(5.56671e-06 0 0)
(5.57759e-06 0 0)
(5.58826e-06 0 0)
(5.5987e-06 0 0)
(5.60888e-06 0 0)
(5.61877e-06 0 0)
(5.62834e-06 0 0)
(5.63756e-06 0 0)
(5.64641e-06 0 0)
(5.65486e-06 0 0)
(5.6629e-06 0 0)
(5.6705e-06 0 0)
(5.67765e-06 0 0)
(5.68432e-06 0 0)
(5.69053e-06 0 0)
(5.69625e-06 0 0)
(5.70151e-06 0 0)
(5.7063e-06 0 0)
(5.71063e-06 0 0)
(5.71452e-06 0 0)
(5.71799e-06 0 0)
(5.72106e-06 0 0)
(5.72376e-06 0 0)
(5.72612e-06 0 0)
(5.72816e-06 0 0)
(5.72992e-06 0 0)
(5.73141e-06 0 0)
(5.73267e-06 0 0)
(5.73373e-06 0 0)
(5.73462e-06 0 0)
(5.73536e-06 0 0)
(5.73597e-06 0 0)
(5.73649e-06 0 0)
(5.73693e-06 0 0)
(5.73733e-06 0 0)
(5.73775e-06 0 0)
(5.73827e-06 0 0)
(5.73901e-06 0 0)
(5.7402e-06 0 0)
(5.7422e-06 0 0)
(5.74573e-06 0 0)
(5.75203e-06 0 0)
(5.76329e-06 0 0)
(5.7834e-06 0 0)
(5.81908e-06 0 0)
(5.88173e-06 0 0)
(5.98964e-06 0 0)
(6.16946e-06 0 0)
(6.45336e-06 0 0)
(6.86578e-06 0 0)
(7.39834e-06 0 0)
(7.99027e-06 0 0)
(8.54565e-06 0 0)
(8.98585e-06 0 0)
(9.28703e-06 0 0)
(9.47128e-06 0 0)
(9.57583e-06 0 0)
(9.6325e-06 0 0)
(9.66241e-06 0 0)
(9.67794e-06 0 0)
(9.68592e-06 0 0)
(9.68997e-06 0 0)
(9.69198e-06 0 0)
(9.69294e-06 0 0)
(9.69336e-06 0 0)
(9.69348e-06 0 0)
(9.69346e-06 0 0)
(9.69335e-06 0 0)
(9.69319e-06 0 0)
(9.69301e-06 0 0)
(9.6928e-06 0 0)
(9.69257e-06 0 0)
(9.69233e-06 0 0)
(9.69207e-06 0 0)
(9.69181e-06 0 0)
(9.69152e-06 0 0)
(9.69123e-06 0 0)
(9.69092e-06 0 0)
(9.69059e-06 0 0)
(9.69026e-06 0 0)
(9.68991e-06 0 0)
(9.68955e-06 0 0)
(9.68918e-06 0 0)
(9.68879e-06 0 0)
(9.6884e-06 0 0)
(9.688e-06 0 0)
(9.68759e-06 0 0)
(9.68717e-06 0 0)
(9.68674e-06 0 0)
(9.68631e-06 0 0)
(9.68588e-06 0 0)
(9.68545e-06 0 0)
(9.68501e-06 0 0)
(9.68457e-06 0 0)
(9.68414e-06 0 0)
(9.68371e-06 0 0)
(9.68329e-06 0 0)
(9.68288e-06 0 0)
(9.68247e-06 0 0)
(9.68208e-06 0 0)
(9.6817e-06 0 0)
(9.68134e-06 0 0)
(9.68099e-06 0 0)
(9.68067e-06 0 0)
(9.68036e-06 0 0)
(9.68007e-06 0 0)
(9.67981e-06 0 0)
(9.67958e-06 0 0)
(9.67937e-06 0 0)
(9.67919e-06 0 0)
(9.67904e-06 0 0)
(9.67892e-06 0 0)
(9.67883e-06 0 0)
(9.67878e-06 0 0)
(9.67876e-06 0 0)
(9.67876e-06 0 0)
(9.67877e-06 0 0)
(9.6788e-06 0 0)
(9.67885e-06 0 0)
(9.67896e-06 0 0)
(9.67911e-06 0 0)
(9.67929e-06 0 0)
(9.6795e-06 0 0)
(9.67973e-06 0 0)
(9.67998e-06 0 0)
(9.68024e-06 0 0)
(9.68053e-06 0 0)
(9.68083e-06 0 0)
(9.68115e-06 0 0)
(9.68148e-06 0 0)
(9.68182e-06 0 0)
(9.68217e-06 0 0)
(9.68252e-06 0 0)
(9.68288e-06 0 0)
(9.68325e-06 0 0)
(9.68361e-06 0 0)
(9.68398e-06 0 0)
(9.68434e-06 0 0)
(9.6847e-06 0 0)
(9.68506e-06 0 0)
(9.6854e-06 0 0)
(9.68575e-06 0 0)
)
;

boundaryField
{
    inlet
    {
        type            fixedValue;
        value           uniform (0 0 0);
    }
    outlet
    {
        type            zeroGradient;
    }
    emptyWalls
    {
        type            empty;
    }
}


// ************************************************************************* //
