/*--------------------------------*- C++ -*----------------------------------*\
  =========                 |
  \\      /  F ield         | OpenFOAM: The Open Source CFD Toolbox
   \\    /   O peration     | Website:  https://openfoam.org
    \\  /    A nd           | Version:  9
     \\/     M anipulation  |
\*---------------------------------------------------------------------------*/
FoamFile
{
    format      ascii;
    class       volScalarField;
    location    "12450";
    object      Fa;
}
// * * * * * * * * * * * * * * * * * * * * * * * * * * * * * * * * * * * * * //

dimensions      [0 0 0 0 0 0 0];

internalField   nonuniform List<scalar> 
1000
(
0.19496
0.194581
0.194919
0.194575
0.194759
0.194543
0.194558
0.194423
0.194369
0.194256
0.194186
0.194079
0.194011
0.193899
0.193762
0.193244
0.190462
0.169032
0.15362
0.1508
0.149649
0.14898
0.148493
0.148112
0.147791
0.147515
0.147278
0.147059
0.14688
0.146704
0.146561
0.14642
0.146303
0.146179
0.146099
0.145977
0.145917
0.145808
0.145722
0.145635
0.145555
0.145476
0.145413
0.145353
0.145309
0.145272
0.145256
0.145251
0.145267
0.145283
0.145296
0.145309
0.145328
0.145367
0.14544
0.145556
0.145716
0.145912
0.14613
0.146357
0.146581
0.146797
0.147
0.147185
0.147347
0.147475
0.147561
0.147594
0.147568
0.147477
0.147325
0.147116
0.146861
0.146574
0.14627
0.145964
0.145669
0.145397
0.145155
0.144951
0.144785
0.144657
0.144564
0.144503
0.144467
0.14445
0.144448
0.144454
0.144465
0.144475
0.144484
0.144487
0.144484
0.144476
0.14446
0.144439
0.144412
0.144381
0.144346
0.144308
0.144268
0.144226
0.144184
0.144141
0.144098
0.144056
0.144013
0.143971
0.143929
0.143888
0.143847
0.143806
0.143766
0.143726
0.143686
0.143646
0.143607
0.143568
0.143529
0.14349
0.143452
0.143414
0.143376
0.143339
0.143302
0.143266
0.143231
0.143195
0.143161
0.143127
0.143093
0.143061
0.143028
0.142997
0.142966
0.142936
0.142907
0.142879
0.142851
0.142824
0.142798
0.142773
0.142748
0.142725
0.142702
0.14268
0.142658
0.142638
0.142619
0.1426
0.142582
0.142565
0.142548
0.142533
0.142518
0.142503
0.142489
0.142476
0.142462
0.142448
0.142435
0.142421
0.142407
0.142393
0.14238
0.142366
0.142354
0.142342
0.142331
0.142321
0.142311
0.142302
0.142294
0.142286
0.14228
0.142274
0.14227
0.142268
0.14227
0.142276
0.142289
0.142308
0.142335
0.14237
0.142416
0.142471
0.142538
0.142613
0.142699
0.142794
0.142896
0.143005
0.143119
0.143235
0.143351
0.143465
0.143574
0.143674
0.143763
0.143838
0.143897
0.143936
0.143954
0.143949
0.143921
0.143868
0.143793
0.143695
0.143579
0.143444
0.143297
0.143137
0.142974
0.142803
0.142637
0.142471
0.142315
0.142163
0.142026
0.141896
0.141783
0.141679
0.141591
0.141511
0.141445
0.141387
0.141339
0.141298
0.141263
0.141233
0.141207
0.141183
0.141161
0.14114
0.141119
0.141098
0.141075
0.141051
0.141025
0.140998
0.140969
0.140939
0.140906
0.140872
0.140837
0.1408
0.140763
0.140724
0.140685
0.140644
0.140604
0.140563
0.140522
0.140481
0.140439
0.140398
0.140357
0.140316
0.140275
0.140234
0.140194
0.140154
0.140115
0.140075
0.140036
0.139998
0.139959
0.139922
0.139884
0.139847
0.13981
0.139774
0.139738
0.139703
0.139667
0.139633
0.139599
0.139565
0.139531
0.139499
0.139466
0.139434
0.139403
0.139372
0.139342
0.139312
0.139283
0.139254
0.139226
0.139199
0.139172
0.139145
0.139119
0.139094
0.13907
0.139046
0.139023
0.139
0.138978
0.138956
0.138935
0.138915
0.138895
0.138876
0.138857
0.138839
0.138821
0.138803
0.138786
0.13877
0.138753
0.138737
0.138721
0.138705
0.13869
0.138674
0.138659
0.138644
0.13863
0.138615
0.138601
0.138587
0.138574
0.13856
0.138547
0.138535
0.138522
0.138511
0.1385
0.13849
0.138481
0.138473
0.138467
0.138463
0.13846
0.13846
0.138463
0.138468
0.138478
0.13849
0.138507
0.138529
0.138554
0.138584
0.138619
0.138659
0.138704
0.138752
0.138805
0.138862
0.138922
0.138985
0.13905
0.139116
0.139183
0.139248
0.139313
0.139374
0.139432
0.139485
0.139532
0.139572
0.139603
0.139626
0.139639
0.139641
0.139632
0.139611
0.139579
0.139535
0.13948
0.139414
0.139338
0.139252
0.139158
0.139057
0.13895
0.138838
0.138723
0.138606
0.138489
0.138372
0.138257
0.138145
0.138036
0.137932
0.137832
0.137738
0.137649
0.137566
0.137489
0.137417
0.13735
0.137289
0.137232
0.13718
0.137131
0.137085
0.137043
0.137003
0.136965
0.136928
0.136893
0.136858
0.136825
0.136791
0.136758
0.136724
0.13669
0.136655
0.13662
0.136584
0.136548
0.136511
0.136473
0.136435
0.136395
0.136356
0.136315
0.136275
0.136234
0.136193
0.136151
0.136109
0.136067
0.136025
0.135983
0.135941
0.135899
0.135857
0.135816
0.135774
0.135733
0.135692
0.135651
0.135611
0.13557
0.13553
0.13549
0.135451
0.135412
0.135373
0.135334
0.135296
0.135258
0.13522
0.135183
0.135145
0.135109
0.13507
0.135036
0.134997
0.134964
0.134925
0.134893
0.134854
0.134822
0.134786
0.134753
0.13472
0.134683
0.134655
0.134616
0.134591
0.134553
0.134528
0.134493
0.134465
0.134438
0.134406
0.134384
0.134352
0.134332
0.134306
0.134284
0.134266
0.134242
0.13423
0.134209
0.134198
0.134186
0.134173
0.134169
0.134158
0.134156
0.134152
0.134148
0.134151
0.134146
0.134149
0.134146
0.134141
0.134134
0.134108
0.134069
0.133989
0.133851
0.133624
0.133267
0.132792
0.132252
0.13178
0.131472
0.131302
0.13123
0.131197
0.131187
0.131191
0.131193
0.131206
0.131215
0.131226
0.131239
0.131254
0.131268
0.131285
0.131302
0.131321
0.131341
0.131363
0.131387
0.131412
0.131439
0.131469
0.1315
0.131533
0.131569
0.131607
0.131647
0.13169
0.131735
0.131782
0.131831
0.131882
0.131935
0.131991
0.132047
0.132106
0.132165
0.132225
0.132286
0.132348
0.132409
0.132469
0.132529
0.132588
0.132645
0.1327
0.132752
0.132801
0.132847
0.132889
0.132927
0.13296
0.132987
0.133009
0.133025
0.133035
0.133038
0.133039
0.133039
0.133034
0.133016
0.132991
0.132961
0.132926
0.132886
0.132843
0.132795
0.132744
0.13269
0.132634
0.132575
0.132516
0.132455
0.132395
0.132334
0.132274
0.132216
0.132158
0.132103
0.13205
0.131999
0.13195
0.131904
0.131861
0.131821
0.131784
0.13175
0.131718
0.131689
0.131662
0.131638
0.131616
0.131597
0.131579
0.131563
0.131548
0.131535
0.131523
0.131512
0.131502
0.131492
0.131483
0.131475
0.131466
0.131458
0.13145
0.131442
0.131434
0.131426
0.131418
0.131409
0.1314
0.131391
0.131382
0.131372
0.131362
0.131352
0.131342
0.131331
0.13132
0.131309
0.131298
0.131287
0.131276
0.131264
0.131253
0.131242
0.13123
0.131219
0.131208
0.131197
0.131186
0.131175
0.131165
0.131154
0.131144
0.131134
0.131124
0.131115
0.131105
0.131096
0.131088
0.131079
0.131071
0.131063
0.131055
0.131048
0.131041
0.131034
0.131027
0.131021
0.131015
0.13101
0.131004
0.130999
0.130994
0.13099
0.130985
0.130981
0.130978
0.130974
0.130971
0.130968
0.130965
0.130963
0.130961
0.130959
0.130958
0.130956
0.130955
0.130955
0.130954
0.130954
0.130954
0.130954
0.130955
0.130955
0.130957
0.130958
0.13096
0.130962
0.130964
0.130966
0.130969
0.130972
0.130975
0.130978
0.130982
0.130986
0.13099
0.130994
0.130999
0.131004
0.131009
0.131014
0.131019
0.131025
0.131031
0.131037
0.131043
0.131049
0.131056
0.131063
0.13107
0.131078
0.131086
0.131094
0.131103
0.131111
0.131121
0.131131
0.131142
0.131153
0.131164
0.131177
0.13119
0.131204
0.131219
0.131235
0.131253
0.131271
0.13129
0.131311
0.131334
0.131357
0.131383
0.131409
0.131438
0.131468
0.1315
0.131534
0.131569
0.131606
0.131646
0.131686
0.131729
0.131773
0.131819
0.131866
0.131915
0.131964
0.132015
0.132067
0.132119
0.132172
0.132225
0.132278
0.132331
0.132384
0.132435
0.132486
0.132535
0.132582
0.132627
0.13267
0.13271
0.132747
0.132781
0.132812
0.132839
0.132861
0.13288
0.132894
0.132904
0.132909
0.132911
0.132911
0.132909
0.132902
0.132885
0.132863
0.132838
0.132809
0.132776
0.13274
0.132701
0.132659
0.132615
0.132569
0.132522
0.132473
0.132424
0.132375
0.132325
0.132276
0.132228
0.13218
0.132133
0.132088
0.132045
0.132003
0.131963
0.131924
0.131888
0.131854
0.131822
0.131792
0.131763
0.131737
0.131713
0.13169
0.131669
0.131649
0.131631
0.131614
0.131598
0.131584
0.13157
0.131557
0.131544
0.131533
0.131521
0.13151
0.131499
0.131489
0.131479
0.131468
0.131458
0.131447
0.131437
0.131426
0.131416
0.131405
0.131394
0.131382
0.131371
0.13136
0.131348
0.131336
0.131324
0.131312
0.1313
0.131288
0.131276
0.131264
0.131252
0.13124
0.131228
0.131216
0.131204
0.131193
0.131181
0.13117
0.131159
0.131148
0.131138
0.131128
0.131118
0.131108
0.131099
0.13109
0.131081
0.131073
0.131065
0.131057
0.131049
0.131042
0.131036
0.131029
0.131023
0.131017
0.131012
0.131007
0.131002
0.130997
0.130993
0.130989
0.130985
0.130982
0.130979
0.130976
0.130974
0.130971
0.13097
0.130968
0.130966
0.130965
0.130965
0.130964
0.130964
0.130964
0.130964
0.130964
0.130964
0.130965
0.130967
0.130968
0.13097
0.130972
0.130974
0.130977
0.13098
0.130983
0.130986
0.13099
0.130994
0.130998
0.131003
0.131007
0.131012
0.131018
0.131023
0.131029
0.131035
0.131041
0.131048
0.131055
0.131062
0.13107
0.131078
0.131086
0.131095
0.131104
0.131114
0.131124
0.131135
0.131146
0.131158
0.13117
0.131183
0.131197
0.131212
0.131227
0.131243
0.131261
0.131279
0.131298
0.131318
0.13134
0.131362
0.131386
0.131411
0.131438
0.131465
0.131494
0.131525
0.131557
0.13159
0.131624
0.131661
0.131698
0.131737
0.131776
0.131818
0.13186
0.131903
0.131947
0.131992
0.132038
0.132084
0.132131
0.132178
0.132225
0.132272
0.132319
0.132365
0.13241
0.132455
0.132498
0.13254
0.13258
0.132619
0.132655
0.132689
0.132721
0.13275
0.132776
0.132799
0.132818
0.132835
0.132848
0.132857
0.132862
0.132864
0.132864
0.132863
0.13286
0.132848
0.132832
0.132811
0.13279
0.132761
0.132735
0.132698
0.132669
0.132626
0.132595
0.132545
0.132515
0.132459
0.13243
0.13237
0.132343
0.13228
0.132256
0.132191
0.13217
0.132104
)
;

boundaryField
{
    inlet
    {
        type            calculated;
        value           uniform 0.194831;
    }
    outlet
    {
        type            calculated;
        value           uniform 0.132096;
    }
    emptyWalls
    {
        type            empty;
    }
}


// ************************************************************************* //
