/*--------------------------------*- C++ -*----------------------------------*\
  =========                 |
  \\      /  F ield         | OpenFOAM: The Open Source CFD Toolbox
   \\    /   O peration     | Website:  https://openfoam.org
    \\  /    A nd           | Version:  9
     \\/     M anipulation  |
\*---------------------------------------------------------------------------*/
FoamFile
{
    format      ascii;
    class       volVectorField;
    location    "7200";
    object      Uc;
}
// * * * * * * * * * * * * * * * * * * * * * * * * * * * * * * * * * * * * * //

dimensions      [0 0 0 0 0 0 0];

internalField   nonuniform List<vector> 
1000
(
(6.6052e-11 0 0)
(3.6195e-10 0 0)
(9.38182e-10 0 0)
(1.71146e-09 0 0)
(2.60432e-09 0 0)
(3.57706e-09 0 0)
(4.91032e-09 0 0)
(8.40588e-09 0 0)
(2.00735e-08 0 0)
(7.51787e-08 0 0)
(1.60361e-07 0 0)
(2.06971e-07 0 0)
(2.18078e-07 0 0)
(2.24105e-07 0 0)
(2.2852e-07 0 0)
(2.32155e-07 0 0)
(2.35308e-07 0 0)
(2.38121e-07 0 0)
(2.40697e-07 0 0)
(2.43149e-07 0 0)
(2.45596e-07 0 0)
(2.48157e-07 0 0)
(2.51083e-07 0 0)
(2.54577e-07 0 0)
(2.58811e-07 0 0)
(2.64179e-07 0 0)
(2.71117e-07 0 0)
(2.79828e-07 0 0)
(2.90107e-07 0 0)
(3.01521e-07 0 0)
(3.13694e-07 0 0)
(3.26391e-07 0 0)
(3.39467e-07 0 0)
(3.52832e-07 0 0)
(3.66427e-07 0 0)
(3.8021e-07 0 0)
(3.94155e-07 0 0)
(4.08239e-07 0 0)
(4.2245e-07 0 0)
(4.36775e-07 0 0)
(4.51205e-07 0 0)
(4.65734e-07 0 0)
(4.80355e-07 0 0)
(4.95063e-07 0 0)
(5.09854e-07 0 0)
(5.24724e-07 0 0)
(5.39669e-07 0 0)
(5.54687e-07 0 0)
(5.69776e-07 0 0)
(5.84933e-07 0 0)
(6.00156e-07 0 0)
(6.15443e-07 0 0)
(6.30792e-07 0 0)
(6.46201e-07 0 0)
(6.6167e-07 0 0)
(6.77195e-07 0 0)
(6.92776e-07 0 0)
(7.08411e-07 0 0)
(7.241e-07 0 0)
(7.39841e-07 0 0)
(7.55633e-07 0 0)
(7.71475e-07 0 0)
(7.87365e-07 0 0)
(8.03303e-07 0 0)
(8.19289e-07 0 0)
(8.35322e-07 0 0)
(8.514e-07 0 0)
(8.67524e-07 0 0)
(8.83692e-07 0 0)
(8.99905e-07 0 0)
(9.16162e-07 0 0)
(9.32462e-07 0 0)
(9.48805e-07 0 0)
(9.6519e-07 0 0)
(9.81618e-07 0 0)
(9.98088e-07 0 0)
(1.0146e-06 0 0)
(1.03115e-06 0 0)
(1.04775e-06 0 0)
(1.06439e-06 0 0)
(1.08106e-06 0 0)
(1.09778e-06 0 0)
(1.11454e-06 0 0)
(1.13134e-06 0 0)
(1.14818e-06 0 0)
(1.16506e-06 0 0)
(1.18198e-06 0 0)
(1.19894e-06 0 0)
(1.21594e-06 0 0)
(1.23298e-06 0 0)
(1.25006e-06 0 0)
(1.26718e-06 0 0)
(1.28434e-06 0 0)
(1.30154e-06 0 0)
(1.31878e-06 0 0)
(1.33606e-06 0 0)
(1.35338e-06 0 0)
(1.37074e-06 0 0)
(1.38814e-06 0 0)
(1.40558e-06 0 0)
(1.42305e-06 0 0)
(1.44056e-06 0 0)
(1.45812e-06 0 0)
(1.4757e-06 0 0)
(1.49333e-06 0 0)
(1.51099e-06 0 0)
(1.52869e-06 0 0)
(1.54643e-06 0 0)
(1.5642e-06 0 0)
(1.58202e-06 0 0)
(1.59987e-06 0 0)
(1.61775e-06 0 0)
(1.63567e-06 0 0)
(1.65361e-06 0 0)
(1.67158e-06 0 0)
(1.68957e-06 0 0)
(1.70758e-06 0 0)
(1.72561e-06 0 0)
(1.74366e-06 0 0)
(1.76173e-06 0 0)
(1.77982e-06 0 0)
(1.79792e-06 0 0)
(1.81606e-06 0 0)
(1.83421e-06 0 0)
(1.85241e-06 0 0)
(1.87064e-06 0 0)
(1.88891e-06 0 0)
(1.90724e-06 0 0)
(1.92563e-06 0 0)
(1.94409e-06 0 0)
(1.96263e-06 0 0)
(1.98127e-06 0 0)
(1.99999e-06 0 0)
(2.01883e-06 0 0)
(2.03777e-06 0 0)
(2.05683e-06 0 0)
(2.076e-06 0 0)
(2.09528e-06 0 0)
(2.11468e-06 0 0)
(2.13418e-06 0 0)
(2.15377e-06 0 0)
(2.17345e-06 0 0)
(2.1932e-06 0 0)
(2.21301e-06 0 0)
(2.23287e-06 0 0)
(2.25277e-06 0 0)
(2.27271e-06 0 0)
(2.29266e-06 0 0)
(2.31264e-06 0 0)
(2.33262e-06 0 0)
(2.35262e-06 0 0)
(2.37264e-06 0 0)
(2.39267e-06 0 0)
(2.41271e-06 0 0)
(2.43278e-06 0 0)
(2.45288e-06 0 0)
(2.47301e-06 0 0)
(2.49317e-06 0 0)
(2.51338e-06 0 0)
(2.53364e-06 0 0)
(2.55395e-06 0 0)
(2.57433e-06 0 0)
(2.59476e-06 0 0)
(2.61526e-06 0 0)
(2.63582e-06 0 0)
(2.65646e-06 0 0)
(2.67717e-06 0 0)
(2.69795e-06 0 0)
(2.71881e-06 0 0)
(2.73975e-06 0 0)
(2.76076e-06 0 0)
(2.78184e-06 0 0)
(2.803e-06 0 0)
(2.82424e-06 0 0)
(2.84556e-06 0 0)
(2.86695e-06 0 0)
(2.88842e-06 0 0)
(2.90996e-06 0 0)
(2.93158e-06 0 0)
(2.95328e-06 0 0)
(2.97505e-06 0 0)
(2.9969e-06 0 0)
(3.01883e-06 0 0)
(3.04083e-06 0 0)
(3.06292e-06 0 0)
(3.08508e-06 0 0)
(3.10732e-06 0 0)
(3.12965e-06 0 0)
(3.15206e-06 0 0)
(3.17455e-06 0 0)
(3.19713e-06 0 0)
(3.21979e-06 0 0)
(3.24255e-06 0 0)
(3.26538e-06 0 0)
(3.28831e-06 0 0)
(3.31133e-06 0 0)
(3.33444e-06 0 0)
(3.35765e-06 0 0)
(3.38095e-06 0 0)
(3.40435e-06 0 0)
(3.42784e-06 0 0)
(3.45144e-06 0 0)
(3.47513e-06 0 0)
(3.49893e-06 0 0)
(3.52283e-06 0 0)
(3.54684e-06 0 0)
(3.57095e-06 0 0)
(3.59517e-06 0 0)
(3.6195e-06 0 0)
(3.64395e-06 0 0)
(3.66851e-06 0 0)
(3.69318e-06 0 0)
(3.71797e-06 0 0)
(3.74288e-06 0 0)
(3.76791e-06 0 0)
(3.79306e-06 0 0)
(3.81834e-06 0 0)
(3.84374e-06 0 0)
(3.86928e-06 0 0)
(3.89494e-06 0 0)
(3.92073e-06 0 0)
(3.94666e-06 0 0)
(3.97273e-06 0 0)
(3.99894e-06 0 0)
(4.02529e-06 0 0)
(4.05179e-06 0 0)
(4.07843e-06 0 0)
(4.10523e-06 0 0)
(4.13218e-06 0 0)
(4.15928e-06 0 0)
(4.18654e-06 0 0)
(4.21397e-06 0 0)
(4.24156e-06 0 0)
(4.26933e-06 0 0)
(4.29726e-06 0 0)
(4.32538e-06 0 0)
(4.35368e-06 0 0)
(4.38217e-06 0 0)
(4.41085e-06 0 0)
(4.43972e-06 0 0)
(4.4688e-06 0 0)
(4.49808e-06 0 0)
(4.52756e-06 0 0)
(4.55726e-06 0 0)
(4.58718e-06 0 0)
(4.61732e-06 0 0)
(4.64769e-06 0 0)
(4.6783e-06 0 0)
(4.70915e-06 0 0)
(4.74024e-06 0 0)
(4.77157e-06 0 0)
(4.80316e-06 0 0)
(4.83499e-06 0 0)
(4.86709e-06 0 0)
(4.89946e-06 0 0)
(4.93209e-06 0 0)
(4.96498e-06 0 0)
(4.99813e-06 0 0)
(5.03153e-06 0 0)
(5.06517e-06 0 0)
(5.09904e-06 0 0)
(5.13312e-06 0 0)
(5.16739e-06 0 0)
(5.20179e-06 0 0)
(5.23629e-06 0 0)
(5.27079e-06 0 0)
(5.30523e-06 0 0)
(5.33948e-06 0 0)
(5.37342e-06 0 0)
(5.40689e-06 0 0)
(5.4397e-06 0 0)
(5.47163e-06 0 0)
(5.50248e-06 0 0)
(5.53199e-06 0 0)
(5.55998e-06 0 0)
(5.58627e-06 0 0)
(5.61081e-06 0 0)
(5.63366e-06 0 0)
(5.65516e-06 0 0)
(5.67607e-06 0 0)
(5.69787e-06 0 0)
(5.7233e-06 0 0)
(5.75711e-06 0 0)
(5.80753e-06 0 0)
(5.88814e-06 0 0)
(6.02016e-06 0 0)
(6.23299e-06 0 0)
(6.55875e-06 0 0)
(7.01465e-06 0 0)
(7.57651e-06 0 0)
(8.16797e-06 0 0)
(8.69238e-06 0 0)
(9.08694e-06 0 0)
(9.3457e-06 0 0)
(9.49916e-06 0 0)
(9.58425e-06 0 0)
(9.62945e-06 0 0)
(9.65276e-06 0 0)
(9.66439e-06 0 0)
(9.66991e-06 0 0)
(9.67228e-06 0 0)
(9.67303e-06 0 0)
(9.67295e-06 0 0)
(9.67247e-06 0 0)
(9.67179e-06 0 0)
(9.67106e-06 0 0)
(9.67033e-06 0 0)
(9.66963e-06 0 0)
(9.66899e-06 0 0)
(9.66843e-06 0 0)
(9.66798e-06 0 0)
(9.66765e-06 0 0)
(9.66745e-06 0 0)
(9.66737e-06 0 0)
(9.66735e-06 0 0)
(9.66738e-06 0 0)
(9.66758e-06 0 0)
(9.66799e-06 0 0)
(9.66854e-06 0 0)
(9.6692e-06 0 0)
(9.66996e-06 0 0)
(9.67081e-06 0 0)
(9.67175e-06 0 0)
(9.67277e-06 0 0)
(9.67384e-06 0 0)
(9.67496e-06 0 0)
(9.67611e-06 0 0)
(9.67727e-06 0 0)
(9.67843e-06 0 0)
(9.67958e-06 0 0)
(9.6807e-06 0 0)
(9.68178e-06 0 0)
(9.6828e-06 0 0)
(9.68376e-06 0 0)
(9.68466e-06 0 0)
(9.68548e-06 0 0)
(9.68623e-06 0 0)
(9.68689e-06 0 0)
(9.68748e-06 0 0)
(9.68799e-06 0 0)
(9.68842e-06 0 0)
(9.68878e-06 0 0)
(9.68907e-06 0 0)
(9.6893e-06 0 0)
(9.68947e-06 0 0)
(9.68959e-06 0 0)
(9.68966e-06 0 0)
(9.6897e-06 0 0)
(9.68972e-06 0 0)
(9.68972e-06 0 0)
(9.68971e-06 0 0)
(9.68966e-06 0 0)
(9.68959e-06 0 0)
(9.68952e-06 0 0)
(9.68945e-06 0 0)
(9.68939e-06 0 0)
(9.68933e-06 0 0)
(9.68929e-06 0 0)
(9.68926e-06 0 0)
(9.68924e-06 0 0)
(9.68923e-06 0 0)
(9.68923e-06 0 0)
(9.68924e-06 0 0)
(9.68926e-06 0 0)
(9.68931e-06 0 0)
(9.68939e-06 0 0)
(9.68948e-06 0 0)
(9.68958e-06 0 0)
(9.6897e-06 0 0)
(9.68983e-06 0 0)
(9.68997e-06 0 0)
(9.69012e-06 0 0)
(9.69028e-06 0 0)
(9.69045e-06 0 0)
(9.69063e-06 0 0)
(9.69082e-06 0 0)
(9.69101e-06 0 0)
(9.69121e-06 0 0)
(9.69141e-06 0 0)
(9.69161e-06 0 0)
(9.69182e-06 0 0)
(9.69203e-06 0 0)
(9.69224e-06 0 0)
(9.69245e-06 0 0)
(9.69266e-06 0 0)
(9.69286e-06 0 0)
(9.69307e-06 0 0)
(9.69327e-06 0 0)
(9.69347e-06 0 0)
(9.69367e-06 0 0)
(9.69386e-06 0 0)
(9.69405e-06 0 0)
(9.69424e-06 0 0)
(9.69442e-06 0 0)
(9.69459e-06 0 0)
(9.69476e-06 0 0)
(9.69493e-06 0 0)
(9.69509e-06 0 0)
(9.69524e-06 0 0)
(9.69539e-06 0 0)
(9.69554e-06 0 0)
(9.69567e-06 0 0)
(9.69581e-06 0 0)
(9.69594e-06 0 0)
(9.69606e-06 0 0)
(9.69618e-06 0 0)
(9.69629e-06 0 0)
(9.6964e-06 0 0)
(9.69651e-06 0 0)
(9.69661e-06 0 0)
(9.69671e-06 0 0)
(9.6968e-06 0 0)
(9.69689e-06 0 0)
(9.69698e-06 0 0)
(9.69706e-06 0 0)
(9.69714e-06 0 0)
(9.69721e-06 0 0)
(9.69728e-06 0 0)
(9.69735e-06 0 0)
(9.69741e-06 0 0)
(9.69748e-06 0 0)
(9.69753e-06 0 0)
(9.69759e-06 0 0)
(9.69764e-06 0 0)
(9.69768e-06 0 0)
(9.69773e-06 0 0)
(9.69776e-06 0 0)
(9.69779e-06 0 0)
(9.69782e-06 0 0)
(9.69785e-06 0 0)
(9.69786e-06 0 0)
(9.69787e-06 0 0)
(9.69788e-06 0 0)
(9.69788e-06 0 0)
(9.69788e-06 0 0)
(9.69788e-06 0 0)
(9.69787e-06 0 0)
(9.69784e-06 0 0)
(9.69781e-06 0 0)
(9.69778e-06 0 0)
(9.69773e-06 0 0)
(9.69768e-06 0 0)
(9.69763e-06 0 0)
(9.69756e-06 0 0)
(9.69749e-06 0 0)
(9.69742e-06 0 0)
(9.69733e-06 0 0)
(9.69724e-06 0 0)
(9.69715e-06 0 0)
(9.69705e-06 0 0)
(9.69695e-06 0 0)
(9.69684e-06 0 0)
(9.69672e-06 0 0)
(9.6966e-06 0 0)
(9.69648e-06 0 0)
(9.69635e-06 0 0)
(9.69622e-06 0 0)
(9.69609e-06 0 0)
(9.69595e-06 0 0)
(9.69582e-06 0 0)
(9.69568e-06 0 0)
(9.69554e-06 0 0)
(9.69539e-06 0 0)
(9.69525e-06 0 0)
(9.6951e-06 0 0)
(9.69496e-06 0 0)
(9.69481e-06 0 0)
(9.69466e-06 0 0)
(9.69451e-06 0 0)
(9.69435e-06 0 0)
(9.6942e-06 0 0)
(9.69404e-06 0 0)
(9.69389e-06 0 0)
(9.69373e-06 0 0)
(9.69356e-06 0 0)
(9.69339e-06 0 0)
(9.69322e-06 0 0)
(9.69305e-06 0 0)
(9.69286e-06 0 0)
(9.69267e-06 0 0)
(9.69248e-06 0 0)
(9.69227e-06 0 0)
(9.69206e-06 0 0)
(9.69183e-06 0 0)
(9.69159e-06 0 0)
(9.69134e-06 0 0)
(9.69107e-06 0 0)
(9.69078e-06 0 0)
(9.69048e-06 0 0)
(9.69016e-06 0 0)
(9.68981e-06 0 0)
(9.68944e-06 0 0)
(9.68905e-06 0 0)
(9.68863e-06 0 0)
(9.68819e-06 0 0)
(9.68771e-06 0 0)
(9.68721e-06 0 0)
(9.68668e-06 0 0)
(9.68612e-06 0 0)
(9.68553e-06 0 0)
(9.68491e-06 0 0)
(9.68427e-06 0 0)
(9.68359e-06 0 0)
(9.6829e-06 0 0)
(9.68219e-06 0 0)
(9.68146e-06 0 0)
(9.68071e-06 0 0)
(9.67996e-06 0 0)
(9.6792e-06 0 0)
(9.67844e-06 0 0)
(9.67768e-06 0 0)
(9.67694e-06 0 0)
(9.67622e-06 0 0)
(9.67552e-06 0 0)
(9.67485e-06 0 0)
(9.67423e-06 0 0)
(9.67365e-06 0 0)
(9.67312e-06 0 0)
(9.67265e-06 0 0)
(9.67224e-06 0 0)
(9.67191e-06 0 0)
(9.67166e-06 0 0)
(9.67149e-06 0 0)
(9.6714e-06 0 0)
(9.67137e-06 0 0)
(9.67137e-06 0 0)
(9.67142e-06 0 0)
(9.6716e-06 0 0)
(9.67195e-06 0 0)
(9.67238e-06 0 0)
(9.6729e-06 0 0)
(9.67349e-06 0 0)
(9.67416e-06 0 0)
(9.67488e-06 0 0)
(9.67565e-06 0 0)
(9.67647e-06 0 0)
(9.67732e-06 0 0)
(9.67819e-06 0 0)
(9.67908e-06 0 0)
(9.67996e-06 0 0)
(9.68084e-06 0 0)
(9.68171e-06 0 0)
(9.68255e-06 0 0)
(9.68336e-06 0 0)
(9.68414e-06 0 0)
(9.68487e-06 0 0)
(9.68555e-06 0 0)
(9.68618e-06 0 0)
(9.68676e-06 0 0)
(9.68729e-06 0 0)
(9.68776e-06 0 0)
(9.68818e-06 0 0)
(9.68855e-06 0 0)
(9.68887e-06 0 0)
(9.68914e-06 0 0)
(9.68937e-06 0 0)
(9.68955e-06 0 0)
(9.6897e-06 0 0)
(9.68981e-06 0 0)
(9.6899e-06 0 0)
(9.68995e-06 0 0)
(9.68999e-06 0 0)
(9.69001e-06 0 0)
(9.69001e-06 0 0)
(9.69002e-06 0 0)
(9.69001e-06 0 0)
(9.68999e-06 0 0)
(9.68996e-06 0 0)
(9.68993e-06 0 0)
(9.6899e-06 0 0)
(9.68989e-06 0 0)
(9.68987e-06 0 0)
(9.68987e-06 0 0)
(9.68987e-06 0 0)
(9.68987e-06 0 0)
(9.68988e-06 0 0)
(9.68991e-06 0 0)
(9.68996e-06 0 0)
(9.69003e-06 0 0)
(9.6901e-06 0 0)
(9.69019e-06 0 0)
(9.69028e-06 0 0)
(9.69039e-06 0 0)
(9.69051e-06 0 0)
(9.69064e-06 0 0)
(9.69078e-06 0 0)
(9.69093e-06 0 0)
(9.69109e-06 0 0)
(9.69125e-06 0 0)
(9.69143e-06 0 0)
(9.6916e-06 0 0)
(9.69179e-06 0 0)
(9.69198e-06 0 0)
(9.69217e-06 0 0)
(9.69236e-06 0 0)
(9.69256e-06 0 0)
(9.69276e-06 0 0)
(9.69296e-06 0 0)
(9.69316e-06 0 0)
(9.69335e-06 0 0)
(9.69355e-06 0 0)
(9.69375e-06 0 0)
(9.69395e-06 0 0)
(9.69414e-06 0 0)
(9.69433e-06 0 0)
(9.69452e-06 0 0)
(9.6947e-06 0 0)
(9.69488e-06 0 0)
(9.69506e-06 0 0)
(9.69523e-06 0 0)
(9.69539e-06 0 0)
(9.69556e-06 0 0)
(9.69571e-06 0 0)
(9.69587e-06 0 0)
(9.69601e-06 0 0)
(9.69616e-06 0 0)
(9.69629e-06 0 0)
(9.69642e-06 0 0)
(9.69655e-06 0 0)
(9.69667e-06 0 0)
(9.69679e-06 0 0)
(9.6969e-06 0 0)
(9.69701e-06 0 0)
(9.69711e-06 0 0)
(9.69721e-06 0 0)
(9.6973e-06 0 0)
(9.69739e-06 0 0)
(9.69748e-06 0 0)
(9.69756e-06 0 0)
(9.69764e-06 0 0)
(9.69771e-06 0 0)
(9.69778e-06 0 0)
(9.69785e-06 0 0)
(9.69791e-06 0 0)
(9.69798e-06 0 0)
(9.69803e-06 0 0)
(9.69809e-06 0 0)
(9.69814e-06 0 0)
(9.69819e-06 0 0)
(9.69824e-06 0 0)
(9.69828e-06 0 0)
(9.69832e-06 0 0)
(9.69835e-06 0 0)
(9.69838e-06 0 0)
(9.69841e-06 0 0)
(9.69843e-06 0 0)
(9.69845e-06 0 0)
(9.69847e-06 0 0)
(9.69848e-06 0 0)
(9.69848e-06 0 0)
(9.69848e-06 0 0)
(9.69849e-06 0 0)
(9.69848e-06 0 0)
(9.69848e-06 0 0)
(9.69846e-06 0 0)
(9.69843e-06 0 0)
(9.6984e-06 0 0)
(9.69837e-06 0 0)
(9.69832e-06 0 0)
(9.69827e-06 0 0)
(9.69822e-06 0 0)
(9.69816e-06 0 0)
(9.69809e-06 0 0)
(9.69802e-06 0 0)
(9.69794e-06 0 0)
(9.69785e-06 0 0)
(9.69776e-06 0 0)
(9.69766e-06 0 0)
(9.69756e-06 0 0)
(9.69745e-06 0 0)
(9.69733e-06 0 0)
(9.69721e-06 0 0)
(9.69708e-06 0 0)
(9.69695e-06 0 0)
(9.69681e-06 0 0)
(9.69666e-06 0 0)
(9.69651e-06 0 0)
(9.69636e-06 0 0)
(9.6962e-06 0 0)
(9.69603e-06 0 0)
(9.69586e-06 0 0)
(9.69568e-06 0 0)
(9.6955e-06 0 0)
(9.69531e-06 0 0)
(9.69511e-06 0 0)
(9.69491e-06 0 0)
(9.6947e-06 0 0)
(9.69448e-06 0 0)
(9.69425e-06 0 0)
(9.69402e-06 0 0)
(9.69377e-06 0 0)
(9.69352e-06 0 0)
(9.69325e-06 0 0)
(9.69297e-06 0 0)
(9.69268e-06 0 0)
(9.69238e-06 0 0)
(9.69206e-06 0 0)
(9.69173e-06 0 0)
(9.69138e-06 0 0)
(9.69101e-06 0 0)
(9.69063e-06 0 0)
(9.69022e-06 0 0)
(9.6898e-06 0 0)
(9.68936e-06 0 0)
(9.68889e-06 0 0)
(9.68841e-06 0 0)
(9.68791e-06 0 0)
(9.68738e-06 0 0)
(9.68683e-06 0 0)
(9.68627e-06 0 0)
(9.68568e-06 0 0)
(9.68508e-06 0 0)
(9.68446e-06 0 0)
(9.68383e-06 0 0)
(9.68318e-06 0 0)
(9.68252e-06 0 0)
(9.68185e-06 0 0)
(9.68117e-06 0 0)
(9.68049e-06 0 0)
(9.67982e-06 0 0)
(9.67914e-06 0 0)
(9.67848e-06 0 0)
(9.67782e-06 0 0)
(9.67719e-06 0 0)
(9.67657e-06 0 0)
(9.67598e-06 0 0)
(9.67542e-06 0 0)
(9.6749e-06 0 0)
(9.67441e-06 0 0)
(9.67397e-06 0 0)
(9.67357e-06 0 0)
(9.67323e-06 0 0)
(9.67294e-06 0 0)
(9.67272e-06 0 0)
(9.67255e-06 0 0)
(9.67245e-06 0 0)
(9.67241e-06 0 0)
(9.6724e-06 0 0)
(9.67241e-06 0 0)
(9.67249e-06 0 0)
(9.6727e-06 0 0)
(9.67298e-06 0 0)
(9.67334e-06 0 0)
(9.67375e-06 0 0)
(9.67422e-06 0 0)
(9.67474e-06 0 0)
(9.6753e-06 0 0)
(9.67591e-06 0 0)
(9.67654e-06 0 0)
(9.6772e-06 0 0)
(9.67788e-06 0 0)
(9.67857e-06 0 0)
(9.67927e-06 0 0)
(9.67997e-06 0 0)
(9.68066e-06 0 0)
(9.68134e-06 0 0)
(9.682e-06 0 0)
(9.68264e-06 0 0)
(9.68326e-06 0 0)
(9.68384e-06 0 0)
(9.6844e-06 0 0)
(9.68492e-06 0 0)
(9.6854e-06 0 0)
(9.68585e-06 0 0)
(9.68626e-06 0 0)
(9.68663e-06 0 0)
(9.68697e-06 0 0)
(9.68728e-06 0 0)
(9.68755e-06 0 0)
(9.68779e-06 0 0)
(9.68799e-06 0 0)
(9.68818e-06 0 0)
(9.68833e-06 0 0)
(9.68847e-06 0 0)
(9.68858e-06 0 0)
(9.68868e-06 0 0)
(9.68876e-06 0 0)
(9.68883e-06 0 0)
(9.68889e-06 0 0)
(9.68894e-06 0 0)
(9.68898e-06 0 0)
(9.68902e-06 0 0)
(9.68906e-06 0 0)
(9.68909e-06 0 0)
(9.68913e-06 0 0)
(9.68917e-06 0 0)
(9.68921e-06 0 0)
(9.68926e-06 0 0)
(9.68931e-06 0 0)
(9.68937e-06 0 0)
(9.68943e-06 0 0)
(9.6895e-06 0 0)
(9.68958e-06 0 0)
(9.68967e-06 0 0)
(9.68977e-06 0 0)
(9.68987e-06 0 0)
(9.68998e-06 0 0)
(9.6901e-06 0 0)
(9.69023e-06 0 0)
(9.69036e-06 0 0)
(9.6905e-06 0 0)
(9.69065e-06 0 0)
(9.6908e-06 0 0)
(9.69096e-06 0 0)
(9.69113e-06 0 0)
(9.6913e-06 0 0)
(9.69147e-06 0 0)
(9.69165e-06 0 0)
(9.69183e-06 0 0)
(9.69202e-06 0 0)
(9.69221e-06 0 0)
(9.6924e-06 0 0)
(9.69259e-06 0 0)
(9.69278e-06 0 0)
(9.69298e-06 0 0)
(9.69317e-06 0 0)
(9.69337e-06 0 0)
(9.69356e-06 0 0)
(9.69376e-06 0 0)
(9.69395e-06 0 0)
(9.69414e-06 0 0)
(9.69433e-06 0 0)
(9.69451e-06 0 0)
(9.6947e-06 0 0)
(9.69488e-06 0 0)
(9.69505e-06 0 0)
(9.69523e-06 0 0)
(9.69539e-06 0 0)
(9.69556e-06 0 0)
(9.69572e-06 0 0)
(9.69587e-06 0 0)
(9.69602e-06 0 0)
(9.69616e-06 0 0)
(9.6963e-06 0 0)
(9.69643e-06 0 0)
(9.69656e-06 0 0)
(9.69668e-06 0 0)
(9.6968e-06 0 0)
(9.69691e-06 0 0)
(9.69701e-06 0 0)
(9.69711e-06 0 0)
(9.6972e-06 0 0)
(9.69729e-06 0 0)
(9.69737e-06 0 0)
(9.69745e-06 0 0)
(9.69752e-06 0 0)
(9.69758e-06 0 0)
(9.69764e-06 0 0)
(9.6977e-06 0 0)
(9.69775e-06 0 0)
(9.6978e-06 0 0)
(9.69784e-06 0 0)
(9.69788e-06 0 0)
(9.69791e-06 0 0)
(9.69794e-06 0 0)
(9.69796e-06 0 0)
(9.69798e-06 0 0)
(9.698e-06 0 0)
(9.69801e-06 0 0)
(9.69802e-06 0 0)
(9.69803e-06 0 0)
(9.69803e-06 0 0)
(9.69803e-06 0 0)
(9.69803e-06 0 0)
(9.69803e-06 0 0)
(9.69802e-06 0 0)
(9.698e-06 0 0)
(9.69798e-06 0 0)
(9.69796e-06 0 0)
(9.69793e-06 0 0)
(9.6979e-06 0 0)
(9.69786e-06 0 0)
(9.69782e-06 0 0)
(9.69778e-06 0 0)
(9.69772e-06 0 0)
(9.69767e-06 0 0)
(9.69761e-06 0 0)
(9.69754e-06 0 0)
(9.69747e-06 0 0)
(9.69739e-06 0 0)
(9.6973e-06 0 0)
(9.69721e-06 0 0)
(9.69711e-06 0 0)
(9.697e-06 0 0)
(9.69688e-06 0 0)
(9.69676e-06 0 0)
(9.69663e-06 0 0)
(9.6965e-06 0 0)
(9.69635e-06 0 0)
(9.6962e-06 0 0)
(9.69603e-06 0 0)
(9.69586e-06 0 0)
(9.69568e-06 0 0)
(9.69549e-06 0 0)
(9.69529e-06 0 0)
(9.69508e-06 0 0)
(9.69486e-06 0 0)
(9.69463e-06 0 0)
(9.69438e-06 0 0)
(9.69413e-06 0 0)
(9.69386e-06 0 0)
(9.69359e-06 0 0)
(9.6933e-06 0 0)
(9.693e-06 0 0)
(9.69268e-06 0 0)
(9.69236e-06 0 0)
(9.69202e-06 0 0)
(9.69166e-06 0 0)
(9.69129e-06 0 0)
(9.69091e-06 0 0)
(9.69051e-06 0 0)
(9.69009e-06 0 0)
(9.68966e-06 0 0)
(9.68921e-06 0 0)
(9.68875e-06 0 0)
(9.68827e-06 0 0)
(9.68778e-06 0 0)
(9.68727e-06 0 0)
(9.68675e-06 0 0)
(9.68621e-06 0 0)
(9.68565e-06 0 0)
(9.68509e-06 0 0)
(9.68451e-06 0 0)
(9.68392e-06 0 0)
(9.68332e-06 0 0)
(9.68271e-06 0 0)
(9.6821e-06 0 0)
(9.68148e-06 0 0)
(9.68086e-06 0 0)
(9.68024e-06 0 0)
(9.67962e-06 0 0)
(9.67901e-06 0 0)
(9.67841e-06 0 0)
(9.67781e-06 0 0)
(9.67723e-06 0 0)
(9.67667e-06 0 0)
(9.67613e-06 0 0)
(9.67561e-06 0 0)
(9.67512e-06 0 0)
(9.67466e-06 0 0)
(9.67423e-06 0 0)
(9.67384e-06 0 0)
(9.67349e-06 0 0)
(9.67319e-06 0 0)
(9.67293e-06 0 0)
(9.67273e-06 0 0)
(9.67257e-06 0 0)
(9.67247e-06 0 0)
(9.67242e-06 0 0)
(9.67241e-06 0 0)
(9.67242e-06 0 0)
(9.67245e-06 0 0)
(9.67259e-06 0 0)
(9.67283e-06 0 0)
(9.67312e-06 0 0)
(9.67346e-06 0 0)
(9.67386e-06 0 0)
(9.6743e-06 0 0)
(9.67478e-06 0 0)
(9.67531e-06 0 0)
(9.67587e-06 0 0)
(9.67646e-06 0 0)
(9.67708e-06 0 0)
(9.67771e-06 0 0)
(9.67837e-06 0 0)
(9.67903e-06 0 0)
(9.6797e-06 0 0)
(9.68037e-06 0 0)
(9.68104e-06 0 0)
(9.6817e-06 0 0)
(9.68234e-06 0 0)
(9.68297e-06 0 0)
(9.68358e-06 0 0)
(9.68417e-06 0 0)
(9.68473e-06 0 0)
(9.68527e-06 0 0)
(9.68578e-06 0 0)
(9.68626e-06 0 0)
(9.68671e-06 0 0)
(9.68713e-06 0 0)
(9.68753e-06 0 0)
(9.68789e-06 0 0)
(9.68823e-06 0 0)
(9.68854e-06 0 0)
(9.68882e-06 0 0)
(9.68908e-06 0 0)
(9.68932e-06 0 0)
(9.68953e-06 0 0)
(9.68973e-06 0 0)
(9.68991e-06 0 0)
(9.69007e-06 0 0)
(9.69022e-06 0 0)
(9.69036e-06 0 0)
(9.69049e-06 0 0)
(9.69061e-06 0 0)
(9.69072e-06 0 0)
(9.69083e-06 0 0)
(9.69093e-06 0 0)
(9.69103e-06 0 0)
(9.69112e-06 0 0)
)
;

boundaryField
{
    inlet
    {
        type            fixedValue;
        value           uniform (0 0 0);
    }
    outlet
    {
        type            zeroGradient;
    }
    emptyWalls
    {
        type            empty;
    }
}


// ************************************************************************* //
