/*--------------------------------*- C++ -*----------------------------------*\
  =========                 |
  \\      /  F ield         | OpenFOAM: The Open Source CFD Toolbox
   \\    /   O peration     | Website:  https://openfoam.org
    \\  /    A nd           | Version:  9
     \\/     M anipulation  |
\*---------------------------------------------------------------------------*/
FoamFile
{
    format      ascii;
    class       volScalarField;
    location    "2700";
    object      kra;
}
// * * * * * * * * * * * * * * * * * * * * * * * * * * * * * * * * * * * * * //

dimensions      [0 0 0 0 0 0 0];

internalField   nonuniform List<scalar> 
1000
(
0.000242108
0.000258228
0.000294294
0.00051206
0.000866789
0.000920838
0.00092887
0.000927746
0.00092591
0.000912541
0.000892713
0.000870734
0.000848911
0.000827902
0.000807923
0.000789019
0.000771154
0.000754273
0.000738299
0.000723158
0.000708785
0.000695123
0.000682127
0.000669749
0.000657947
0.000646678
0.0006359
0.000625576
0.000615675
0.000606173
0.000597043
0.00058826
0.000579804
0.000571655
0.000563796
0.000556211
0.000548891
0.00054182
0.000534987
0.000528379
0.000521982
0.000515783
0.000509766
0.00050392
0.000498234
0.000492697
0.000487302
0.00048204
0.000476905
0.000471892
0.000466995
0.00046221
0.000457529
0.000452949
0.000448464
0.000444068
0.000439759
0.000435533
0.000431388
0.000427322
0.000423335
0.000419424
0.000415585
0.000411817
0.000408112
0.000404468
0.000400879
0.000397345
0.000393862
0.000390434
0.000387064
0.000383757
0.000380521
0.000377363
0.000374291
0.00037131
0.000368427
0.000365643
0.000362959
0.000360376
0.000357888
0.000355491
0.000353176
0.000350936
0.00034876
0.000346635
0.000344554
0.000342498
0.000340464
0.000338427
0.00033639
0.000334324
0.000332236
0.000330093
0.000327914
0.00032565
0.000323356
0.000320939
0.000318512
0.000315924
0.000313289
0.000310422
0.000307254
0.000303539
0.000298825
0.000292698
0.000284711
0.000275125
0.000265303
0.00025707
0.000251466
0.000248181
0.0002463
0.000245146
0.000244396
0.000243875
0.000243481
0.000243189
0.000243006
0.000242922
0.000242903
0.000242905
0.000242921
0.000243026
0.000243159
0.000243311
0.000243475
0.000243646
0.000243818
0.000243988
0.000244151
0.000244303
0.000244443
0.00024457
0.000244682
0.000244779
0.000244861
0.000244929
0.000244983
0.000245025
0.000245055
0.000245074
0.000245084
0.000245088
0.000245088
0.000245087
0.000245078
0.000245061
0.000245041
0.000245019
0.000244995
0.00024497
0.000244944
0.000244916
0.000244888
0.000244859
0.000244828
0.000244798
0.000244766
0.000244735
0.000244702
0.000244669
0.000244636
0.000244603
0.00024457
0.000244536
0.000244503
0.000244469
0.000244436
0.000244403
0.000244371
0.000244339
0.000244308
0.000244278
0.000244248
0.00024422
0.000244192
0.000244166
0.000244141
0.000244116
0.000244093
0.000244071
0.000244049
0.000244029
0.000244009
0.00024399
0.000243972
0.000243955
0.000243939
0.000243924
0.00024391
0.000243898
0.000243888
0.00024388
0.000243875
0.000243872
0.000243871
0.000243872
0.000243872
0.000243878
0.000243889
0.000243903
0.00024392
0.00024394
0.000243961
0.000243985
0.000244011
0.000244038
0.000244067
0.000244096
0.000244126
0.000244157
0.000244188
0.000244218
0.000244248
0.000244278
0.000244306
0.000244334
0.00024436
0.000244384
0.000244407
0.000244427
0.000244445
0.000244461
0.000244474
0.000244484
0.000244492
0.000244496
0.000244497
0.000244497
0.000244497
0.000244493
0.000244482
0.000244468
0.000244451
0.000244432
0.00024441
0.000244387
0.000244362
0.000244336
0.000244309
0.000244281
0.000244254
0.000244227
0.0002442
0.000244176
0.000244152
0.000244131
0.000244112
0.000244096
0.000244082
0.000244071
0.000244063
0.000244059
0.000244057
0.000244057
0.000244057
0.000244059
0.00024407
0.000244082
0.000244099
0.000244116
0.000244139
0.000244162
0.000244189
0.000244218
0.000244252
0.000244288
0.000244329
0.000244373
0.000244424
0.000244479
0.000244542
0.000244611
0.00024469
0.000244777
0.000244875
0.000244983
0.000245105
0.000245239
0.000245388
0.000245549
0.000245729
0.000245921
0.000246131
0.000246355
0.000246597
0.000246851
0.000247122
0.000247404
0.0002477
0.000248003
0.000248316
0.000248632
0.000248952
0.000249268
0.00024958
0.00024988
0.000250167
0.000250432
0.000250672
0.000250877
0.000251044
0.00025116
0.000251224
0.00025124
0.00025124
0.000251226
0.000251129
0.000250879
0.000250544
0.000250133
0.000249644
0.000249087
0.000248466
0.000247797
0.000247087
0.000246355
0.000245611
0.000244874
0.000244153
0.000243467
0.000242822
0.000242231
0.000241698
0.000241232
0.00024083
0.000240498
0.00024023
0.00024003
0.000239888
0.000239806
0.000239771
0.000239768
0.000239772
0.000239804
0.000239926
0.000240075
0.000240242
0.000240421
0.000240607
0.000240797
0.000240986
0.000241172
0.000241352
0.000241524
0.000241686
0.000241837
0.000241976
0.000242103
0.000242217
0.000242318
0.000242406
0.000242483
0.000242548
0.000242603
0.000242648
0.000242684
0.000242713
0.000242734
0.000242749
0.000242759
0.000242765
0.000242768
0.000242768
0.000242768
0.000242766
0.00024276
0.000242752
0.000242745
0.000242737
0.00024273
0.000242722
0.000242715
0.000242708
0.000242701
0.000242693
0.000242685
0.000242677
0.000242668
0.000242658
0.000242647
0.000242634
0.000242621
0.000242605
0.000242588
0.000242569
0.000242548
0.000242525
0.0002425
0.000242472
0.000242442
0.00024241
0.000242376
0.000242339
0.000242301
0.000242259
0.000242216
0.000242171
0.000242124
0.000242075
0.000242025
0.000241972
0.000241919
0.000241864
0.000241809
0.000241751
0.000241695
0.000241637
0.000241579
0.000241522
0.000241465
0.000241409
0.000241355
0.000241303
0.000241252
0.000241204
0.00024116
0.000241119
0.000241083
0.000241051
0.000241025
0.000241005
0.000240993
0.000240987
0.000240986
0.000240986
0.000240993
0.000240997
0.000241021
0.00024103
0.000241075
0.000241107
0.000241169
0.000241207
0.00024133
0.000241388
0.000241475
0.000241586
0.000241742
0.000241793
0.000241942
0.000242121
0.00024225
0.000242313
0.000242611
0.000242746
0.000242756
0.000242182
0.000239554
0.000226904
2.92115e-05
7.50567e-08
7.56449e-14
9.37147e-27
3.77834e-54
2.45528e-112
9.07779e-236
0
0
0
0
0
0
0
0
0
0
0
0
0
0
0
0
0
0
0
0
0
0
0
0
0
0
0
0
0
0
0
0
0
0
0
0
0
0
0
0
0
0
0
0
0
0
0
0
0
0
0
0
0
0
0
0
0
0
0
0
0
0
0
0
0
0
0
0
0
0
0
0
0
0
0
0
0
0
0
0
0
0
0
0
0
0
0
0
0
0
0
0
0
0
0
0
0
0
0
0
0
0
0
0
0
0
0
0
0
0
0
0
0
0
0
0
0
0
0
0
0
0
0
0
0
0
0
0
0
0
0
0
0
0
0
0
0
0
0
0
0
0
0
0
0
0
0
0
0
0
0
0
0
0
0
0
0
0
0
0
0
0
0
0
0
0
0
0
0
0
0
0
0
0
0
0
0
0
0
0
0
0
0
0
0
0
0
0
0
0
0
0
0
0
0
0
0
0
0
0
0
0
0
0
0
0
0
0
0
0
0
0
0
0
0
0
0
0
0
0
0
0
0
0
0
0
0
0
0
0
0
0
0
0
0
0
0
0
0
0
0
0
0
0
0
0
0
0
0
0
0
0
0
0
0
0
0
0
0
0
0
0
0
0
0
0
0
0
0
0
0
0
0
0
0
0
0
0
0
0
0
0
0
0
0
0
0
0
0
0
0
0
0
0
0
0
0
0
0
0
0
0
0
0
0
0
0
0
0
0
0
0
0
0
0
0
0
0
0
0
0
0
0
0
0
0
0
0
0
0
0
0
0
0
0
0
0
0
0
0
0
0
0
0
0
0
0
0
0
0
0
0
0
0
0
0
0
0
0
0
0
0
0
0
0
0
0
0
0
0
0
0
0
0
0
0
0
0
0
0
0
0
0
0
0
0
0
0
0
0
0
0
0
0
0
0
0
0
0
0
0
0
0
0
0
0
0
0
0
0
0
0
0
0
0
0
0
0
0
0
0
0
0
0
0
0
0
0
0
0
0
0
0
0
0
0
0
0
0
0
0
0
0
0
0
0
0
0
0
0
0
0
0
0
0
0
0
0
0
0
0
0
0
0
0
0
0
0
0
0
0
0
0
0
0
0
0
0
0
0
0
0
0
0
0
0
0
0
0
0
0
0
0
0
0
0
0
0
0
0
0
0
0
0
0
0
0
0
0
0
0
0
0
0
0
0
0
0
0
0
0
0
0
0
0
0
0
0
0
0
0
0
0
0
0
0
0
0
0
0
0
0
)
;

boundaryField
{
    inlet
    {
        type            calculated;
        value           uniform 0.000236304;
    }
    outlet
    {
        type            calculated;
        value           uniform 0;
    }
    emptyWalls
    {
        type            empty;
    }
}


// ************************************************************************* //
