/*--------------------------------*- C++ -*----------------------------------*\
  =========                 |
  \\      /  F ield         | OpenFOAM: The Open Source CFD Toolbox
   \\    /   O peration     | Website:  https://openfoam.org
    \\  /    A nd           | Version:  9
     \\/     M anipulation  |
\*---------------------------------------------------------------------------*/
FoamFile
{
    format      ascii;
    class       surfaceScalarField;
    location    "2700";
    object      phib;
}
// * * * * * * * * * * * * * * * * * * * * * * * * * * * * * * * * * * * * * //

dimensions      [0 2 0 0 0 0 0];

internalField   nonuniform List<scalar> 
999
(
1.13674e-09
1.13752e-09
1.14203e-09
1.17067e-09
1.17765e-09
1.17935e-09
1.17998e-09
1.18014e-09
1.17987e-09
1.17805e-09
1.17527e-09
1.17214e-09
1.16879e-09
1.16531e-09
1.16172e-09
1.15805e-09
1.15432e-09
1.15052e-09
1.14668e-09
1.14279e-09
1.13886e-09
1.13488e-09
1.13087e-09
1.12682e-09
1.12272e-09
1.1186e-09
1.11443e-09
1.11024e-09
1.10601e-09
1.10174e-09
1.09745e-09
1.09312e-09
1.08876e-09
1.08436e-09
1.07993e-09
1.07547e-09
1.07097e-09
1.06644e-09
1.06187e-09
1.05727e-09
1.05264e-09
1.04797e-09
1.04327e-09
1.03853e-09
1.03377e-09
1.02897e-09
1.02414e-09
1.01929e-09
1.01439e-09
1.00947e-09
1.00451e-09
9.99525e-10
9.945e-10
9.89441e-10
9.84346e-10
9.79216e-10
9.74048e-10
9.68842e-10
9.63597e-10
9.5831e-10
9.5298e-10
9.47606e-10
9.42187e-10
9.36723e-10
9.31212e-10
9.25653e-10
9.20046e-10
9.14389e-10
9.08678e-10
9.02912e-10
8.97085e-10
8.91192e-10
8.85228e-10
8.79187e-10
8.73063e-10
8.66852e-10
8.60547e-10
8.54146e-10
8.47644e-10
8.4104e-10
8.34331e-10
8.27514e-10
8.20588e-10
8.13551e-10
8.06402e-10
7.9914e-10
7.91765e-10
7.84276e-10
7.76672e-10
7.68954e-10
7.61122e-10
7.53181e-10
7.45135e-10
7.36991e-10
7.28767e-10
7.20479e-10
7.12157e-10
7.03819e-10
6.95474e-10
6.87069e-10
6.78423e-10
6.69117e-10
6.5827e-10
6.44309e-10
6.24664e-10
5.9583e-10
5.54414e-10
4.99804e-10
4.37319e-10
3.77544e-10
3.30067e-10
2.97998e-10
2.78793e-10
2.68162e-10
2.62552e-10
2.59679e-10
2.58236e-10
2.57521e-10
2.57167e-10
2.5699e-10
2.569e-10
2.56855e-10
2.56828e-10
2.56797e-10
2.56772e-10
2.56748e-10
2.56723e-10
2.56698e-10
2.56673e-10
2.5665e-10
2.56627e-10
2.56607e-10
2.56588e-10
2.56571e-10
2.56556e-10
2.56543e-10
2.56532e-10
2.56523e-10
2.56517e-10
2.56512e-10
2.56508e-10
2.56506e-10
2.56505e-10
2.56505e-10
2.56505e-10
2.56505e-10
2.56507e-10
2.5651e-10
2.56513e-10
2.56516e-10
2.5652e-10
2.56523e-10
2.56527e-10
2.56531e-10
2.56535e-10
2.5654e-10
2.56544e-10
2.56548e-10
2.56553e-10
2.56557e-10
2.56562e-10
2.56567e-10
2.56571e-10
2.56576e-10
2.56581e-10
2.56585e-10
2.5659e-10
2.56595e-10
2.56599e-10
2.56604e-10
2.56609e-10
2.56613e-10
2.56618e-10
2.56622e-10
2.56626e-10
2.5663e-10
2.56634e-10
2.56637e-10
2.56641e-10
2.56644e-10
2.56648e-10
2.56651e-10
2.56654e-10
2.56657e-10
2.56659e-10
2.56662e-10
2.56664e-10
2.56667e-10
2.56669e-10
2.56671e-10
2.56672e-10
2.56674e-10
2.56675e-10
2.56675e-10
2.56675e-10
2.56675e-10
2.56675e-10
2.56674e-10
2.56674e-10
2.56672e-10
2.56669e-10
2.56667e-10
2.56663e-10
2.5666e-10
2.56656e-10
2.56651e-10
2.56647e-10
2.56642e-10
2.56637e-10
2.56632e-10
2.56627e-10
2.56621e-10
2.56616e-10
2.56611e-10
2.56606e-10
2.56601e-10
2.56596e-10
2.56591e-10
2.56587e-10
2.56583e-10
2.56579e-10
2.56575e-10
2.56571e-10
2.56568e-10
2.56566e-10
2.56564e-10
2.56562e-10
2.56561e-10
2.56561e-10
2.5656e-10
2.56559e-10
2.5656e-10
2.56561e-10
2.56562e-10
2.56564e-10
2.56567e-10
2.56569e-10
2.56572e-10
2.56575e-10
2.56579e-10
2.56582e-10
2.56585e-10
2.56589e-10
2.56592e-10
2.56595e-10
2.56599e-10
2.56602e-10
2.56604e-10
2.56606e-10
2.56608e-10
2.5661e-10
2.56611e-10
2.56612e-10
2.56612e-10
2.56612e-10
2.56611e-10
2.56611e-10
2.56611e-10
2.56609e-10
2.56607e-10
2.56604e-10
2.56601e-10
2.56598e-10
2.56594e-10
2.56591e-10
2.56586e-10
2.56581e-10
2.56576e-10
2.5657e-10
2.56563e-10
2.56556e-10
2.56548e-10
2.56538e-10
2.56528e-10
2.56516e-10
2.56503e-10
2.56489e-10
2.56473e-10
2.56455e-10
2.56435e-10
2.56413e-10
2.56389e-10
2.56363e-10
2.56335e-10
2.56304e-10
2.56271e-10
2.56236e-10
2.56199e-10
2.56161e-10
2.5612e-10
2.56078e-10
2.56035e-10
2.5599e-10
2.55946e-10
2.55901e-10
2.55857e-10
2.55813e-10
2.55772e-10
2.55733e-10
2.55698e-10
2.55667e-10
2.55641e-10
2.55621e-10
2.55608e-10
2.55603e-10
2.55602e-10
2.55602e-10
2.55608e-10
2.55635e-10
2.55677e-10
2.5573e-10
2.55793e-10
2.55867e-10
2.55951e-10
2.56042e-10
2.56139e-10
2.56241e-10
2.56346e-10
2.56451e-10
2.56555e-10
2.56655e-10
2.56749e-10
2.56837e-10
2.56917e-10
2.56988e-10
2.5705e-10
2.57102e-10
2.57145e-10
2.57178e-10
2.57203e-10
2.57219e-10
2.57227e-10
2.5723e-10
2.5723e-10
2.57228e-10
2.57216e-10
2.57197e-10
2.57174e-10
2.5715e-10
2.57124e-10
2.57097e-10
2.5707e-10
2.57043e-10
2.57017e-10
2.56992e-10
2.56968e-10
2.56946e-10
2.56925e-10
2.56906e-10
2.56889e-10
2.56873e-10
2.56859e-10
2.56848e-10
2.56837e-10
2.56829e-10
2.56821e-10
2.56815e-10
2.56811e-10
2.56807e-10
2.56804e-10
2.56802e-10
2.56801e-10
2.568e-10
2.568e-10
2.56799e-10
2.56799e-10
2.568e-10
2.56801e-10
2.56802e-10
2.56803e-10
2.56804e-10
2.56805e-10
2.56807e-10
2.56808e-10
2.5681e-10
2.56811e-10
2.56813e-10
2.56815e-10
2.56816e-10
2.56819e-10
2.56821e-10
2.56824e-10
2.56826e-10
2.56829e-10
2.56832e-10
2.56834e-10
2.56837e-10
2.56841e-10
2.56845e-10
2.56849e-10
2.56854e-10
2.56858e-10
2.56863e-10
2.56868e-10
2.56873e-10
2.56879e-10
2.56884e-10
2.5689e-10
2.56897e-10
2.56903e-10
2.5691e-10
2.56917e-10
2.56925e-10
2.56933e-10
2.56941e-10
2.56949e-10
2.56956e-10
2.56964e-10
2.56972e-10
2.5698e-10
2.56988e-10
2.56996e-10
2.57004e-10
2.57011e-10
2.57018e-10
2.57025e-10
2.57032e-10
2.57038e-10
2.57043e-10
2.57047e-10
2.57051e-10
2.57055e-10
2.57057e-10
2.57059e-10
2.57059e-10
2.57059e-10
2.57059e-10
2.57057e-10
2.57056e-10
2.57053e-10
2.57049e-10
2.57043e-10
2.57037e-10
2.57029e-10
2.57018e-10
2.57005e-10
2.56994e-10
2.5698e-10
2.56961e-10
2.56946e-10
2.56932e-10
2.56908e-10
2.56886e-10
2.56873e-10
2.5685e-10
2.56816e-10
2.56806e-10
2.56805e-10
2.5705e-10
2.58013e-10
2.62781e-10
2.93821e-10
2.96689e-10
2.96725e-10
2.96727e-10
2.96727e-10
2.96727e-10
2.96727e-10
2.96727e-10
2.96727e-10
2.96727e-10
2.96727e-10
2.96727e-10
2.96727e-10
2.96727e-10
2.96727e-10
2.96727e-10
2.96727e-10
2.96727e-10
2.96727e-10
2.96727e-10
2.96727e-10
2.96727e-10
2.96727e-10
2.96727e-10
2.96727e-10
2.96727e-10
2.96727e-10
2.96727e-10
2.96727e-10
2.96727e-10
2.96727e-10
2.96727e-10
2.96727e-10
2.96727e-10
2.96727e-10
2.96727e-10
2.96727e-10
2.96727e-10
2.96727e-10
2.96727e-10
2.96727e-10
2.96727e-10
2.96727e-10
2.96727e-10
2.96727e-10
2.96727e-10
2.96727e-10
2.96727e-10
2.96727e-10
2.96727e-10
2.96727e-10
2.96727e-10
2.96727e-10
2.96727e-10
2.96727e-10
2.96727e-10
2.96727e-10
2.96727e-10
2.96727e-10
2.96727e-10
2.96727e-10
2.96727e-10
2.96727e-10
2.96727e-10
2.96727e-10
2.96727e-10
2.96727e-10
2.96727e-10
2.96727e-10
2.96727e-10
2.96727e-10
2.96727e-10
2.96727e-10
2.96727e-10
2.96727e-10
2.96727e-10
2.96727e-10
2.96727e-10
2.96727e-10
2.96727e-10
2.96727e-10
2.96727e-10
2.96727e-10
2.96727e-10
2.96727e-10
2.96727e-10
2.96727e-10
2.96727e-10
2.96727e-10
2.96727e-10
2.96727e-10
2.96727e-10
2.96727e-10
2.96727e-10
2.96727e-10
2.96727e-10
2.96727e-10
2.96727e-10
2.96727e-10
2.96727e-10
2.96727e-10
2.96727e-10
2.96727e-10
2.96727e-10
2.96727e-10
2.96727e-10
2.96727e-10
2.96727e-10
2.96727e-10
2.96727e-10
2.96727e-10
2.96727e-10
2.96727e-10
2.96727e-10
2.96727e-10
2.96727e-10
2.96727e-10
2.96727e-10
2.96727e-10
2.96727e-10
2.96727e-10
2.96727e-10
2.96727e-10
2.96727e-10
2.96727e-10
2.96727e-10
2.96727e-10
2.96727e-10
2.96727e-10
2.96727e-10
2.96727e-10
2.96727e-10
2.96727e-10
2.96727e-10
2.96727e-10
2.96727e-10
2.96727e-10
2.96727e-10
2.96727e-10
2.96727e-10
2.96727e-10
2.96727e-10
2.96727e-10
2.96727e-10
2.96727e-10
2.96727e-10
2.96727e-10
2.96727e-10
2.96727e-10
2.96727e-10
2.96727e-10
2.96727e-10
2.96727e-10
2.96727e-10
2.96727e-10
2.96727e-10
2.96727e-10
2.96727e-10
2.96727e-10
2.96727e-10
2.96727e-10
2.96727e-10
2.96727e-10
2.96727e-10
2.96727e-10
2.96727e-10
2.96727e-10
2.96727e-10
2.96727e-10
2.96727e-10
2.96727e-10
2.96727e-10
2.96727e-10
2.96727e-10
2.96727e-10
2.96727e-10
2.96727e-10
2.96727e-10
2.96727e-10
2.96727e-10
2.96727e-10
2.96727e-10
2.96727e-10
2.96727e-10
2.96727e-10
2.96727e-10
2.96727e-10
2.96727e-10
2.96727e-10
2.96727e-10
2.96727e-10
2.96727e-10
2.96727e-10
2.96727e-10
2.96727e-10
2.96727e-10
2.96727e-10
2.96727e-10
2.96727e-10
2.96727e-10
2.96727e-10
2.96727e-10
2.96727e-10
2.96727e-10
2.96727e-10
2.96727e-10
2.96727e-10
2.96727e-10
2.96727e-10
2.96727e-10
2.96727e-10
2.96727e-10
2.96727e-10
2.96727e-10
2.96727e-10
2.96727e-10
2.96727e-10
2.96727e-10
2.96727e-10
2.96727e-10
2.96727e-10
2.96727e-10
2.96727e-10
2.96727e-10
2.96727e-10
2.96727e-10
2.96727e-10
2.96727e-10
2.96727e-10
2.96727e-10
2.96727e-10
2.96727e-10
2.96727e-10
2.96727e-10
2.96727e-10
2.96727e-10
2.96727e-10
2.96727e-10
2.96727e-10
2.96727e-10
2.96727e-10
2.96727e-10
2.96727e-10
2.96727e-10
2.96727e-10
2.96727e-10
2.96727e-10
2.96727e-10
2.96727e-10
2.96727e-10
2.96727e-10
2.96727e-10
2.96727e-10
2.96727e-10
2.96727e-10
2.96727e-10
2.96727e-10
2.96727e-10
2.96727e-10
2.96727e-10
2.96727e-10
2.96727e-10
2.96727e-10
2.96727e-10
2.96727e-10
2.96727e-10
2.96727e-10
2.96727e-10
2.96727e-10
2.96727e-10
2.96727e-10
2.96727e-10
2.96727e-10
2.96727e-10
2.96727e-10
2.96727e-10
2.96727e-10
2.96727e-10
2.96727e-10
2.96727e-10
2.96727e-10
2.96727e-10
2.96727e-10
2.96727e-10
2.96727e-10
2.96727e-10
2.96727e-10
2.96727e-10
2.96727e-10
2.96727e-10
2.96727e-10
2.96727e-10
2.96727e-10
2.96727e-10
2.96727e-10
2.96727e-10
2.96727e-10
2.96727e-10
2.96727e-10
2.96727e-10
2.96727e-10
2.96727e-10
2.96727e-10
2.96727e-10
2.96727e-10
2.96727e-10
2.96727e-10
2.96727e-10
2.96727e-10
2.96727e-10
2.96727e-10
2.96727e-10
2.96727e-10
2.96727e-10
2.96727e-10
2.96727e-10
2.96727e-10
2.96727e-10
2.96727e-10
2.96727e-10
2.96727e-10
2.96727e-10
2.96727e-10
2.96727e-10
2.96727e-10
2.96727e-10
2.96727e-10
2.96727e-10
2.96727e-10
2.96727e-10
2.96727e-10
2.96727e-10
2.96727e-10
2.96727e-10
2.96727e-10
2.96727e-10
2.96727e-10
2.96727e-10
2.96727e-10
2.96727e-10
2.96727e-10
2.96727e-10
2.96727e-10
2.96727e-10
2.96727e-10
2.96727e-10
2.96727e-10
2.96727e-10
2.96727e-10
2.96727e-10
2.96727e-10
2.96727e-10
2.96727e-10
2.96727e-10
2.96727e-10
2.96727e-10
2.96727e-10
2.96727e-10
2.96727e-10
2.96727e-10
2.96727e-10
2.96727e-10
2.96727e-10
2.96727e-10
2.96727e-10
2.96727e-10
2.96727e-10
2.96727e-10
2.96727e-10
2.96727e-10
2.96727e-10
2.96727e-10
2.96727e-10
2.96727e-10
2.96727e-10
2.96727e-10
2.96727e-10
2.96727e-10
2.96727e-10
2.96727e-10
2.96727e-10
2.96727e-10
2.96727e-10
2.96727e-10
2.96727e-10
2.96727e-10
2.96727e-10
2.96727e-10
2.96727e-10
2.96727e-10
2.96727e-10
2.96727e-10
2.96727e-10
2.96727e-10
2.96727e-10
2.96727e-10
2.96727e-10
2.96727e-10
2.96727e-10
2.96727e-10
2.96727e-10
2.96727e-10
2.96727e-10
2.96727e-10
2.96727e-10
2.96727e-10
2.96727e-10
2.96727e-10
2.96727e-10
2.96727e-10
2.96727e-10
2.96727e-10
2.96727e-10
2.96727e-10
2.96727e-10
2.96727e-10
2.96727e-10
2.96727e-10
2.96727e-10
2.96727e-10
2.96727e-10
2.96727e-10
2.96727e-10
2.96727e-10
2.96727e-10
2.96727e-10
2.96727e-10
2.96727e-10
2.96727e-10
2.96727e-10
2.96727e-10
2.96727e-10
2.96727e-10
2.96727e-10
2.96727e-10
2.96727e-10
2.96727e-10
2.96727e-10
2.96727e-10
2.96727e-10
2.96727e-10
2.96727e-10
2.96727e-10
2.96727e-10
2.96727e-10
2.96727e-10
2.96727e-10
2.96727e-10
2.96727e-10
2.96727e-10
2.96727e-10
2.96727e-10
2.96727e-10
2.96727e-10
2.96727e-10
2.96727e-10
2.96727e-10
2.96727e-10
2.96727e-10
2.96727e-10
2.96727e-10
2.96727e-10
2.96727e-10
2.96727e-10
2.96727e-10
2.96727e-10
2.96727e-10
2.96727e-10
2.96727e-10
2.96727e-10
2.96727e-10
2.96727e-10
2.96727e-10
2.96727e-10
2.96727e-10
2.96727e-10
2.96727e-10
2.96727e-10
2.96727e-10
2.96727e-10
2.96727e-10
2.96727e-10
2.96727e-10
2.96727e-10
2.96727e-10
2.96727e-10
2.96727e-10
2.96727e-10
2.96727e-10
2.96727e-10
2.96727e-10
2.96727e-10
2.96727e-10
2.96727e-10
2.96727e-10
2.96727e-10
2.96727e-10
2.96727e-10
2.96727e-10
2.96727e-10
2.96727e-10
2.96727e-10
2.96727e-10
2.96727e-10
2.96727e-10
2.96727e-10
2.96727e-10
2.96727e-10
2.96727e-10
2.96727e-10
2.96727e-10
2.96727e-10
2.96727e-10
2.96727e-10
2.96727e-10
2.96727e-10
2.96727e-10
2.96727e-10
2.96727e-10
2.96727e-10
2.96727e-10
2.96727e-10
2.96727e-10
2.96727e-10
2.96727e-10
2.96727e-10
2.96727e-10
2.96727e-10
2.96727e-10
2.96727e-10
2.96727e-10
2.96727e-10
2.96727e-10
2.96727e-10
2.96727e-10
2.96727e-10
2.96727e-10
2.96727e-10
2.96727e-10
2.96727e-10
2.96727e-10
2.96727e-10
2.96727e-10
2.96727e-10
2.96727e-10
2.96727e-10
2.96727e-10
2.96727e-10
)
;

boundaryField
{
    inlet
    {
        type            calculated;
        value           uniform -1.13622e-09;
    }
    outlet
    {
        type            calculated;
        value           uniform 2.96727e-10;
    }
    emptyWalls
    {
        type            empty;
        value           nonuniform List<scalar> 0();
    }
}


// ************************************************************************* //
