/*--------------------------------*- C++ -*----------------------------------*\
  =========                 |
  \\      /  F ield         | OpenFOAM: The Open Source CFD Toolbox
   \\    /   O peration     | Website:  https://openfoam.org
    \\  /    A nd           | Version:  9
     \\/     M anipulation  |
\*---------------------------------------------------------------------------*/
FoamFile
{
    format      ascii;
    class       volScalarField;
    location    "2100";
    object      krb;
}
// * * * * * * * * * * * * * * * * * * * * * * * * * * * * * * * * * * * * * //

dimensions      [0 0 0 0 0 0 0];

internalField   nonuniform List<scalar> 
1000
(
0.101563
0.117123
0.210221
0.473834
0.52096
0.529939
0.530412
0.522291
0.505353
0.488044
0.471405
0.455729
0.441057
0.427344
0.414514
0.402489
0.391191
0.380551
0.370504
0.360996
0.351977
0.343403
0.335236
0.327439
0.319984
0.312841
0.305989
0.299402
0.293063
0.286955
0.281061
0.275367
0.26986
0.264527
0.259356
0.25434
0.249465
0.244726
0.240114
0.235622
0.231241
0.226968
0.222794
0.218718
0.214729
0.210827
0.207005
0.203258
0.199586
0.19598
0.19244
0.18896
0.185538
0.182171
0.178854
0.175586
0.172363
0.169182
0.166041
0.162935
0.159864
0.156823
0.153811
0.150825
0.147862
0.144921
0.141998
0.13909
0.136197
0.133316
0.130448
0.127594
0.124756
0.121936
0.119138
0.116356
0.113571
0.110722
0.107675
0.10417
0.0997659
0.0938498
0.0858313
0.0756571
0.0643654
0.053877
0.045788
0.0404688
0.0373539
0.0356603
0.0347796
0.0343334
0.0341111
0.034002
0.033949
0.0339234
0.0339109
0.0339049
0.033902
0.0339006
0.0339
0.0338996
0.0338994
0.0338993
0.0338991
0.033899
0.0338988
0.0338986
0.0338983
0.033898
0.0338977
0.0338973
0.0338969
0.0338964
0.0338958
0.0338952
0.0338944
0.0338937
0.0338928
0.033892
0.0338911
0.0338902
0.0338892
0.0338881
0.0338869
0.0338858
0.0338847
0.0338837
0.0338826
0.0338816
0.0338807
0.0338798
0.033879
0.0338785
0.0338782
0.0338781
0.0338782
0.0338782
0.0338783
0.0338791
0.0338803
0.0338818
0.0338836
0.0338856
0.0338879
0.0338904
0.033893
0.0338957
0.0338984
0.0339011
0.0339037
0.0339061
0.0339082
0.03391
0.0339116
0.0339129
0.0339138
0.0339145
0.033915
0.0339152
0.0339152
0.0339152
0.033915
0.0339145
0.0339138
0.033913
0.0339122
0.0339113
0.0339105
0.0339096
0.0339088
0.033908
0.0339072
0.0339065
0.0339058
0.0339052
0.0339047
0.0339042
0.0339038
0.0339034
0.0339031
0.0339028
0.0339025
0.0339024
0.0339022
0.033902
0.0339019
0.0339017
0.0339016
0.0339015
0.0339014
0.0339013
0.0339013
0.0339012
0.0339012
0.0339011
0.033901
0.0339009
0.0339008
0.0339007
0.0339006
0.0339005
0.0339004
0.0339003
0.0339002
0.0339001
0.0339
0.0338999
0.0338998
0.0338998
0.0338997
0.0338996
0.0338995
0.0338994
0.0338994
0.0338994
0.0338993
0.0338993
0.0338993
0.0338993
0.0338993
0.0338993
0.0338994
0.0338994
0.0338995
0.0338995
0.0338996
0.0338997
0.0338998
0.0338999
0.0339
0.0339001
0.0339002
0.0339003
0.0339005
0.0339006
0.0339008
0.0339009
0.0339011
0.0339013
0.0339014
0.0339015
0.0339017
0.0339018
0.033902
0.0339022
0.0339024
0.0339025
0.0339026
0.0339028
0.0339029
0.033903
0.0339032
0.0339033
0.0339033
0.0339033
0.0339034
0.0339034
0.0339035
0.0339035
0.0339035
0.0339034
0.0339033
0.0339032
0.033903
0.0339029
0.0339027
0.0339025
0.0339022
0.033902
0.0339017
0.0339014
0.0339011
0.0339007
0.0339003
0.0338999
0.0338994
0.033899
0.0338985
0.033898
0.0338975
0.033897
0.0338965
0.0338959
0.0338953
0.0338948
0.0338942
0.0338936
0.0338931
0.0338925
0.0338919
0.0338914
0.0338908
0.0338902
0.0338896
0.033889
0.0338884
0.0338879
0.0338873
0.0338868
0.0338862
0.0338856
0.033885
0.0338845
0.0338839
0.0338833
0.0338826
0.033882
0.0338813
0.0338806
0.0338799
0.0338792
0.0338784
0.0338776
0.0338767
0.0338757
0.0338748
0.0338738
0.0338727
0.0338716
0.0338705
0.0338692
0.033868
0.0338667
0.0338654
0.0338642
0.0338629
0.0338616
0.0338603
0.0338591
0.033858
0.033857
0.0338562
0.0338556
0.0338553
0.0338552
0.0338553
0.0338554
0.0338561
0.0338566
0.033859
0.03386
0.0338648
0.0338663
0.0338725
0.0338747
0.033881
0.0338837
0.0338907
0.0338926
0.0338993
0.0339044
0.0339286
0.0344511
0.0350843
0.0351553
0.0351562
0.0351562
0.0351562
0.0351562
0.0351562
0.0351562
0.0351562
0.0351562
0.0351562
0.0351562
0.0351562
0.0351562
0.0351562
0.0351562
0.0351562
0.0351562
0.0351562
0.0351562
0.0351562
0.0351562
0.0351563
0.0351563
0.0351563
0.0351563
0.0351563
0.0351562
0.0351563
0.0351562
0.0351562
0.0351562
0.0351562
0.0351562
0.0351563
0.0351562
0.0351562
0.0351562
0.0351563
0.0351562
0.0351563
0.0351563
0.0351562
0.0351562
0.0351562
0.0351563
0.0351562
0.0351562
0.0351563
0.0351563
0.0351563
0.0351563
0.0351562
0.0351562
0.0351562
0.0351562
0.0351562
0.0351562
0.0351562
0.0351562
0.0351563
0.0351563
0.0351563
0.0351563
0.0351563
0.0351562
0.0351562
0.0351562
0.0351562
0.0351562
0.0351562
0.0351562
0.0351562
0.0351562
0.0351562
0.0351562
0.0351562
0.0351563
0.0351563
0.0351563
0.0351563
0.0351563
0.0351563
0.0351562
0.0351563
0.0351563
0.0351563
0.0351563
0.0351563
0.0351563
0.0351563
0.0351563
0.0351562
0.0351562
0.0351562
0.0351562
0.0351562
0.0351562
0.0351563
0.0351562
0.0351562
0.0351562
0.0351562
0.0351562
0.0351562
0.0351563
0.0351562
0.0351562
0.0351563
0.0351563
0.0351563
0.0351563
0.0351563
0.0351563
0.0351563
0.0351563
0.0351563
0.0351563
0.0351563
0.0351563
0.0351563
0.0351563
0.0351563
0.0351563
0.0351563
0.0351563
0.0351563
0.0351563
0.0351562
0.0351562
0.0351562
0.0351563
0.0351563
0.0351563
0.0351563
0.0351563
0.0351563
0.0351563
0.0351562
0.0351563
0.0351563
0.0351563
0.0351563
0.0351563
0.0351562
0.0351563
0.0351563
0.0351563
0.0351563
0.0351563
0.0351563
0.0351563
0.0351563
0.0351563
0.0351563
0.0351563
0.0351563
0.0351563
0.0351563
0.0351563
0.0351563
0.0351563
0.0351562
0.0351562
0.0351562
0.0351562
0.0351562
0.0351563
0.0351563
0.0351563
0.0351562
0.0351563
0.0351563
0.0351563
0.0351563
0.0351563
0.0351563
0.0351563
0.0351563
0.0351563
0.0351563
0.0351563
0.0351563
0.0351563
0.0351563
0.0351563
0.0351563
0.0351562
0.0351563
0.0351563
0.0351563
0.0351563
0.0351563
0.0351563
0.0351563
0.0351563
0.0351563
0.0351563
0.0351563
0.0351563
0.0351563
0.0351563
0.0351563
0.0351563
0.0351563
0.0351563
0.0351563
0.0351563
0.0351563
0.0351562
0.0351563
0.0351563
0.0351563
0.0351563
0.0351563
0.0351563
0.0351562
0.0351562
0.0351562
0.0351562
0.0351562
0.0351562
0.0351562
0.0351562
0.0351563
0.0351563
0.0351563
0.0351563
0.0351563
0.0351563
0.0351563
0.0351563
0.0351563
0.0351563
0.0351563
0.0351563
0.0351563
0.0351562
0.0351562
0.0351563
0.0351563
0.0351562
0.0351563
0.0351562
0.0351563
0.0351562
0.0351563
0.0351563
0.0351563
0.0351563
0.0351562
0.0351563
0.0351563
0.0351563
0.0351563
0.0351563
0.0351562
0.0351562
0.0351562
0.0351562
0.0351562
0.0351563
0.0351563
0.0351563
0.0351563
0.0351563
0.0351563
0.0351562
0.0351562
0.0351563
0.0351563
0.0351563
0.0351563
0.0351563
0.0351563
0.0351563
0.0351563
0.0351562
0.0351562
0.0351562
0.0351562
0.0351562
0.0351562
0.0351563
0.0351563
0.0351563
0.0351562
0.0351562
0.0351562
0.0351562
0.0351562
0.0351563
0.0351563
0.0351563
0.0351563
0.0351563
0.0351563
0.0351563
0.0351563
0.0351563
0.0351563
0.0351563
0.0351563
0.0351563
0.0351563
0.0351563
0.0351563
0.0351563
0.0351563
0.0351563
0.0351563
0.0351563
0.0351563
0.0351563
0.0351563
0.0351563
0.0351563
0.0351562
0.0351563
0.0351562
0.0351562
0.0351563
0.0351563
0.0351563
0.0351563
0.0351563
0.0351563
0.0351563
0.0351563
0.0351563
0.0351563
0.0351563
0.0351563
0.0351563
0.0351563
0.0351563
0.0351563
0.0351563
0.0351563
0.0351563
0.0351563
0.0351563
0.0351563
0.0351562
0.0351563
0.0351563
0.0351563
0.0351562
0.0351562
0.0351562
0.0351562
0.0351562
0.0351562
0.0351562
0.0351562
0.0351562
0.0351562
0.0351562
0.0351562
0.0351563
0.0351563
0.0351563
0.0351563
0.0351563
0.0351563
0.0351563
0.0351563
0.0351563
0.0351563
0.0351563
0.0351563
0.0351563
0.0351562
0.0351562
0.0351563
0.0351563
0.0351563
0.0351562
0.0351562
0.0351563
0.0351562
0.0351563
0.0351563
0.0351562
0.0351562
0.0351562
0.0351562
0.0351562
0.0351563
0.0351562
0.0351563
0.0351563
0.0351563
0.0351563
0.0351563
0.0351563
0.0351562
0.0351562
0.0351563
0.0351563
0.0351563
0.0351563
0.0351563
0.0351563
0.0351563
0.0351563
0.0351563
0.0351563
0.0351563
0.0351563
0.0351563
0.0351563
0.0351563
0.0351563
0.0351563
0.0351563
0.0351563
0.0351563
0.0351563
0.0351563
0.0351563
0.0351563
0.0351563
0.0351563
0.0351562
0.0351563
0.0351563
0.0351563
0.0351562
0.0351563
0.0351563
0.0351563
0.0351563
0.0351563
0.0351563
0.0351563
0.0351562
0.0351563
0.0351563
0.0351562
0.0351562
0.0351562
0.0351562
0.0351562
0.0351563
0.0351563
0.0351563
0.0351563
0.0351563
0.0351563
0.0351563
0.0351563
0.0351562
0.0351563
0.0351563
0.0351563
0.0351563
0.0351563
0.0351563
0.0351562
0.0351562
0.0351562
0.0351562
0.0351562
0.0351562
0.0351562
0.0351563
0.0351563
0.0351562
0.0351563
0.0351563
0.0351563
0.0351563
0.0351563
0.0351563
0.0351563
0.0351563
0.0351563
0.0351562
0.0351562
0.0351562
0.0351562
0.0351562
0.0351562
0.0351562
0.0351562
0.0351562
0.0351562
0.0351563
0.0351563
0.0351563
0.0351563
0.0351563
0.0351563
0.0351563
0.0351563
0.0351563
0.0351562
0.0351562
0.0351562
0.0351562
0.0351562
0.0351562
0.0351562
0.0351562
0.0351562
0.0351562
0.0351562
0.0351563
0.0351563
0.0351563
0.0351563
0.0351563
0.0351563
0.0351563
0.0351563
0.0351563
0.0351563
0.0351563
0.0351563
0.0351563
0.0351563
0.0351563
0.0351563
0.0351562
0.0351562
0.0351562
0.0351562
0.0351562
0.0351562
0.0351562
0.0351562
0.0351563
0.0351562
0.0351563
0.0351563
0.0351563
0.0351563
0.0351562
0.0351562
0.0351562
0.0351562
0.0351562
0.0351562
0.0351562
0.0351563
0.0351563
0.0351562
0.0351562
0.0351562
0.0351563
0.0351563
0.0351563
0.0351562
0.0351562
0.0351562
0.0351562
0.0351562
0.0351562
0.0351562
0.0351562
0.0351562
0.0351563
0.0351563
0.0351563
0.0351563
0.0351563
0.0351563
0.0351563
0.0351563
0.0351563
0.0351563
0.0351563
0.0351563
0.0351563
0.0351563
0.0351563
0.0351562
0.0351562
0.0351562
0.0351562
0.0351563
0.0351563
0.0351563
0.0351562
0.0351563
0.0351563
0.0351563
0.0351563
0.0351563
0.0351563
0.0351563
0.0351563
0.0351563
0.0351562
0.0351562
0.0351563
0.0351563
0.0351563
0.0351563
0.0351563
0.0351563
0.0351563
0.0351563
0.0351563
0.0351563
0.0351563
0.0351563
0.0351563
0.0351563
0.0351563
0.0351563
0.0351563
0.0351563
0.0351563
0.0351563
0.0351563
0.0351563
0.0351563
0.0351563
0.0351563
0.0351563
0.0351563
0.0351563
0.0351563
0.0351563
0.0351563
0.0351563
0.0351563
0.0351563
0.0351563
0.0351563
0.0351563
0.0351563
0.0351563
0.0351563
0.0351563
0.0351562
0.0351562
0.0351562
0.0351562
0.0351562
0.0351562
0.0351562
0.0351562
0.0351562
)
;

boundaryField
{
    inlet
    {
        type            calculated;
        value           uniform 0.0976562;
    }
    outlet
    {
        type            calculated;
        value           uniform 0.0351562;
    }
    emptyWalls
    {
        type            empty;
    }
}


// ************************************************************************* //
