/*--------------------------------*- C++ -*----------------------------------*\
  =========                 |
  \\      /  F ield         | OpenFOAM: The Open Source CFD Toolbox
   \\    /   O peration     | Website:  https://openfoam.org
    \\  /    A nd           | Version:  9
     \\/     M anipulation  |
\*---------------------------------------------------------------------------*/
FoamFile
{
    format      ascii;
    class       volScalarField;
    location    "2100";
    object      p;
}
// * * * * * * * * * * * * * * * * * * * * * * * * * * * * * * * * * * * * * //

dimensions      [0 0 0 0 0 0 0];

internalField   nonuniform List<scalar> 
1000
(
288967
288585
288303
288177
288091
288008
287927
287845
287761
287674
287585
287493
287398
287300
287200
287097
286991
286884
286773
286660
286545
286427
286308
286185
286061
285934
285805
285674
285541
285406
285269
285129
284987
284844
284698
284551
284401
284249
284095
283940
283782
283623
283461
283298
283133
282965
282796
282625
282452
282278
282101
281922
281742
281560
281375
281189
281001
280812
280620
280426
280231
280034
279834
279633
279430
279225
279019
278810
278599
278386
278172
277955
277737
277516
277293
277069
276842
276614
276383
276150
275914
275674
275429
275178
274919
274653
274381
274107
273830
273553
273276
272998
272720
272442
272165
271887
271609
271331
271053
270775
270498
270220
269942
269664
269386
269109
268831
268553
268275
267998
267720
267442
267165
266887
266609
266332
266054
265777
265499
265222
264944
264667
264390
264113
263835
263558
263281
263004
262727
262450
262174
261897
261620
261343
261067
260790
260514
260237
259960
259684
259407
259130
258853
258576
258299
258022
257744
257467
257189
256911
256633
256355
256077
255799
255520
255242
254963
254685
254406
254127
253849
253570
253292
253013
252734
252456
252177
251899
251621
251342
251064
250786
250507
250229
249951
249673
249395
249117
248839
248560
248282
248004
247726
247448
247170
246892
246614
246336
246058
245780
245502
245224
244946
244668
244390
244112
243834
243556
243278
243000
242722
242444
242166
241888
241610
241332
241054
240776
240498
240220
239942
239664
239386
239108
238830
238552
238274
237996
237718
237440
237161
236883
236605
236327
236049
235771
235493
235215
234937
234659
234381
234103
233824
233546
233268
232990
232712
232434
232156
231877
231599
231321
231043
230765
230486
230208
229930
229652
229373
229095
228817
228539
228260
227982
227704
227426
227147
226869
226591
226312
226034
225756
225478
225199
224921
224643
224365
224086
223808
223530
223252
222974
222696
222417
222139
221861
221583
221305
221027
220749
220471
220193
219915
219638
219360
219082
218804
218526
218249
217971
217693
217416
217138
216861
216583
216306
216028
215751
215473
215196
214919
214641
214364
214087
213810
213532
213255
212978
212701
212424
212147
211870
211593
211316
211039
210763
210486
210209
209933
209656
209380
209103
208827
208550
208274
207998
207722
207446
207170
206894
206618
206342
206067
205791
205515
205240
204964
204688
204413
204137
203861
203585
203309
203033
202756
202480
202203
201926
201648
201371
201093
200815
200536
200254
199948
199638
199328
199018
198709
198399
198089
197779
197470
197160
196850
196540
196231
195921
195611
195301
194992
194682
194372
194062
193753
193443
193133
192823
192513
192204
191894
191584
191274
190965
190655
190345
190035
189726
189416
189106
188796
188487
188177
187867
187557
187248
186938
186628
186318
186009
185699
185389
185079
184770
184460
184150
183840
183531
183221
182911
182601
182292
181982
181672
181362
181053
180743
180433
180123
179813
179504
179194
178884
178574
178265
177955
177645
177335
177026
176716
176406
176096
175787
175477
175167
174857
174548
174238
173928
173618
173309
172999
172689
172379
172070
171760
171450
171140
170831
170521
170211
169901
169592
169282
168972
168662
168353
168043
167733
167423
167113
166804
166494
166184
165874
165565
165255
164945
164635
164326
164016
163706
163396
163087
162777
162467
162157
161848
161538
161228
160918
160609
160299
159989
159679
159370
159060
158750
158440
158131
157821
157511
157201
156892
156582
156272
155962
155653
155343
155033
154723
154413
154104
153794
153484
153174
152865
152555
152245
151935
151626
151316
151006
150696
150387
150077
149767
149457
149148
148838
148528
148218
147909
147599
147289
146979
146670
146360
146050
145740
145431
145121
144811
144501
144192
143882
143572
143262
142953
142643
142333
142023
141713
141404
141094
140784
140474
140165
139855
139545
139235
138926
138616
138306
137996
137687
137377
137067
136757
136448
136138
135828
135518
135209
134899
134589
134279
133970
133660
133350
133040
132731
132421
132111
131801
131492
131182
130872
130562
130252
129943
129633
129323
129013
128704
128394
128084
127774
127465
127155
126845
126535
126226
125916
125606
125296
124987
124677
124367
124057
123748
123438
123128
122818
122509
122199
121889
121579
121270
120960
120650
120340
120031
119721
119411
119101
118792
118482
118172
117862
117552
117243
116933
116623
116313
116004
115694
115384
115074
114765
114455
114145
113835
113526
113216
112906
112596
112287
111977
111667
111357
111048
110738
110428
110118
109809
109499
109189
108879
108570
108260
107950
107640
107331
107021
106711
106401
106092
105782
105472
105162
104852
104543
104233
103923
103613
103304
102994
102684
102374
102065
101755
101445
101135
100826
100516
100206
99896.4
99586.6
99276.9
98967.1
98657.4
98347.6
98037.8
97728.1
97418.3
97108.6
96798.8
96489.1
96179.3
95869.6
95559.8
95250
94940.3
94630.5
94320.8
94011
93701.3
93391.5
93081.7
92772
92462.2
92152.5
91842.7
91533
91223.2
90913.5
90603.7
90293.9
89984.2
89674.4
89364.7
89054.9
88745.2
88435.4
88125.6
87815.9
87506.1
87196.4
86886.6
86576.9
86267.1
85957.4
85647.6
85337.8
85028.1
84718.3
84408.6
84098.8
83789.1
83479.3
83169.5
82859.8
82550
82240.3
81930.5
81620.8
81311
81001.3
80691.5
80381.7
80072
79762.2
79452.5
79142.7
78833
78523.2
78213.4
77903.7
77593.9
77284.2
76974.4
76664.7
76354.9
76045.2
75735.4
75425.6
75115.9
74806.1
74496.4
74186.6
73876.9
73567.1
73257.3
72947.6
72637.8
72328.1
72018.3
71708.6
71398.8
71089.1
70779.3
70469.5
70159.8
69850
69540.3
69230.5
68920.8
68611
68301.2
67991.5
67681.7
67372
67062.2
66752.5
66442.7
66133
65823.2
65513.4
65203.7
64893.9
64584.2
64274.4
63964.7
63654.9
63345.1
63035.4
62725.6
62415.9
62106.1
61796.4
61486.6
61176.9
60867.1
60557.3
60247.6
59937.8
59628.1
59318.3
59008.6
58698.8
58389
58079.3
57769.5
57459.8
57150
56840.3
56530.5
56220.8
55911
55601.2
55291.5
54981.7
54672
54362.2
54052.5
53742.7
53432.9
53123.2
52813.4
52503.7
52193.9
51884.2
51574.4
51264.7
50954.9
50645.1
50335.4
50025.6
49715.9
49406.1
49096.4
48786.6
48476.9
48167.1
47857.3
47547.6
47237.8
46928.1
46618.3
46308.6
45998.8
45689
45379.3
45069.5
44759.8
44450
44140.3
43830.5
43520.8
43211
42901.2
42591.5
42281.7
41972
41662.2
41352.5
41042.7
40732.9
40423.2
40113.4
39803.7
39493.9
39184.2
38874.4
38564.7
38254.9
37945.1
37635.4
37325.6
37015.9
36706.1
36396.4
36086.6
35776.8
35467.1
35157.3
34847.6
34537.8
34228.1
33918.3
33608.6
33298.8
32989
32679.3
32369.5
32059.8
31750
31440.3
31130.5
30820.7
30511
30201.2
29891.5
29581.7
29272
28962.2
28652.5
28342.7
28032.9
27723.2
27413.4
27103.7
26793.9
26484.2
26174.4
25864.6
25554.9
25245.1
24935.4
24625.6
24315.9
24006.1
23696.4
23386.6
23076.8
22767.1
22457.3
22147.6
21837.8
21528.1
21218.3
20908.5
20598.8
20289
19979.3
19669.5
19359.8
19050
18740.3
18430.5
18120.7
17811
17501.2
17191.5
16881.7
16572
16262.2
15952.4
15642.7
15332.9
15023.2
14713.4
14403.7
14093.9
13784.2
13474.4
13164.6
12854.9
12545.1
12235.4
11925.6
11615.9
11306.1
10996.3
10686.6
10376.8
10067.1
9757.32
9447.57
9137.81
8828.05
8518.3
8208.54
7898.78
7589.03
7279.27
6969.52
6659.76
6350
6040.25
5730.49
5420.73
5110.98
4801.22
4491.47
4181.71
3871.95
3562.2
3252.44
2942.68
2632.93
2323.17
2013.42
1703.66
1393.9
1084.15
774.391
464.634
154.878
)
;

boundaryField
{
    inlet
    {
        type            darcyGradPressure;
        gradient        uniform 116344;
        Mf              Mf;
        phi             phi;
        value           uniform 289180;
    }
    outlet
    {
        type            fixedValue;
        value           uniform 0;
    }
    emptyWalls
    {
        type            empty;
    }
}


// ************************************************************************* //
