/*--------------------------------*- C++ -*----------------------------------*\
  =========                 |
  \\      /  F ield         | OpenFOAM: The Open Source CFD Toolbox
   \\    /   O peration     | Website:  https://openfoam.org
    \\  /    A nd           | Version:  9
     \\/     M anipulation  |
\*---------------------------------------------------------------------------*/
FoamFile
{
    format      ascii;
    class       surfaceScalarField;
    location    "2100";
    object      phia;
}
// * * * * * * * * * * * * * * * * * * * * * * * * * * * * * * * * * * * * * //

dimensions      [0 2 0 0 0 0 0];

internalField   nonuniform List<scalar> 
999
(
2.74098e-10
2.67917e-10
2.24284e-10
2.11752e-10
2.08145e-10
2.06395e-10
2.05219e-10
2.04932e-10
2.0475e-10
2.04547e-10
2.04335e-10
2.04115e-10
2.03893e-10
2.03668e-10
2.03442e-10
2.03214e-10
2.02984e-10
2.02754e-10
2.02526e-10
2.02299e-10
2.02074e-10
2.01851e-10
2.01627e-10
2.01403e-10
2.01181e-10
2.00963e-10
2.00751e-10
2.00544e-10
2.00339e-10
2.00132e-10
1.99921e-10
1.99704e-10
1.99482e-10
1.99259e-10
1.99037e-10
1.98824e-10
1.98615e-10
1.9842e-10
1.98229e-10
1.98051e-10
1.97875e-10
1.97704e-10
1.97537e-10
1.97365e-10
1.97199e-10
1.97023e-10
1.96855e-10
1.96676e-10
1.965e-10
1.96323e-10
1.96138e-10
1.9596e-10
1.9577e-10
1.95585e-10
1.95394e-10
1.95198e-10
1.95006e-10
1.948e-10
1.94598e-10
1.9439e-10
1.94172e-10
1.93958e-10
1.93731e-10
1.93502e-10
1.93269e-10
1.93025e-10
1.92782e-10
1.9253e-10
1.92274e-10
1.92018e-10
1.91754e-10
1.91491e-10
1.91229e-10
1.90963e-10
1.90703e-10
1.90442e-10
1.90177e-10
1.89907e-10
1.89607e-10
1.89253e-10
1.88799e-10
1.88191e-10
1.87424e-10
1.86569e-10
1.85806e-10
1.85279e-10
1.84988e-10
1.84857e-10
1.84802e-10
1.84787e-10
1.84788e-10
1.84797e-10
1.84814e-10
1.8483e-10
1.84849e-10
1.84869e-10
1.84891e-10
1.84913e-10
1.84937e-10
1.84962e-10
1.84988e-10
1.85017e-10
1.85049e-10
1.85085e-10
1.85126e-10
1.85172e-10
1.85226e-10
1.85288e-10
1.8536e-10
1.85444e-10
1.85541e-10
1.85652e-10
1.85778e-10
1.8592e-10
1.86079e-10
1.86254e-10
1.86447e-10
1.86657e-10
1.86883e-10
1.87124e-10
1.87379e-10
1.87647e-10
1.87926e-10
1.88212e-10
1.88504e-10
1.88799e-10
1.89093e-10
1.89382e-10
1.89661e-10
1.89925e-10
1.90164e-10
1.90372e-10
1.90538e-10
1.90653e-10
1.90714e-10
1.90732e-10
1.90734e-10
1.90713e-10
1.90587e-10
1.90304e-10
1.89946e-10
1.89507e-10
1.88993e-10
1.88409e-10
1.87768e-10
1.87082e-10
1.86367e-10
1.85641e-10
1.84922e-10
1.84228e-10
1.83575e-10
1.82977e-10
1.82446e-10
1.81988e-10
1.81608e-10
1.81308e-10
1.81086e-10
1.80938e-10
1.80859e-10
1.80832e-10
1.80828e-10
1.80841e-10
1.80931e-10
1.81102e-10
1.81294e-10
1.81503e-10
1.81721e-10
1.81944e-10
1.82166e-10
1.82384e-10
1.82593e-10
1.82791e-10
1.82976e-10
1.83145e-10
1.83298e-10
1.83434e-10
1.83553e-10
1.83655e-10
1.83741e-10
1.83812e-10
1.83869e-10
1.83913e-10
1.83947e-10
1.8397e-10
1.83984e-10
1.83992e-10
1.83995e-10
1.83995e-10
1.83994e-10
1.83985e-10
1.83972e-10
1.83958e-10
1.83944e-10
1.83931e-10
1.83918e-10
1.83906e-10
1.83896e-10
1.83886e-10
1.83879e-10
1.83872e-10
1.83867e-10
1.83863e-10
1.8386e-10
1.83858e-10
1.83856e-10
1.83855e-10
1.83854e-10
1.83853e-10
1.83852e-10
1.8385e-10
1.83847e-10
1.83843e-10
1.83837e-10
1.8383e-10
1.83822e-10
1.83811e-10
1.83799e-10
1.83784e-10
1.83768e-10
1.8375e-10
1.83731e-10
1.83709e-10
1.83686e-10
1.83661e-10
1.83635e-10
1.83607e-10
1.83577e-10
1.83546e-10
1.83514e-10
1.8348e-10
1.83445e-10
1.83408e-10
1.83371e-10
1.83332e-10
1.83292e-10
1.83252e-10
1.8321e-10
1.83168e-10
1.83126e-10
1.83083e-10
1.8304e-10
1.82998e-10
1.82955e-10
1.82914e-10
1.82873e-10
1.82833e-10
1.82795e-10
1.82759e-10
1.82725e-10
1.82694e-10
1.82666e-10
1.82642e-10
1.82621e-10
1.82605e-10
1.82594e-10
1.82587e-10
1.82585e-10
1.82585e-10
1.82586e-10
1.82593e-10
1.82617e-10
1.82645e-10
1.8268e-10
1.82722e-10
1.82771e-10
1.82826e-10
1.82889e-10
1.82958e-10
1.83034e-10
1.83117e-10
1.83206e-10
1.83302e-10
1.83404e-10
1.83512e-10
1.83626e-10
1.83745e-10
1.8387e-10
1.84e-10
1.84134e-10
1.84273e-10
1.84415e-10
1.84561e-10
1.84709e-10
1.84861e-10
1.85014e-10
1.85169e-10
1.85326e-10
1.85483e-10
1.8564e-10
1.85798e-10
1.85955e-10
1.86112e-10
1.86269e-10
1.86424e-10
1.86579e-10
1.86732e-10
1.86885e-10
1.87037e-10
1.87189e-10
1.8734e-10
1.87492e-10
1.87645e-10
1.87799e-10
1.87956e-10
1.88116e-10
1.88279e-10
1.88448e-10
1.88622e-10
1.88803e-10
1.88992e-10
1.89189e-10
1.89396e-10
1.89614e-10
1.89843e-10
1.90083e-10
1.90337e-10
1.90603e-10
1.90882e-10
1.91174e-10
1.91478e-10
1.91794e-10
1.9212e-10
1.92456e-10
1.92798e-10
1.93146e-10
1.93494e-10
1.9384e-10
1.94179e-10
1.94504e-10
1.9481e-10
1.95089e-10
1.9533e-10
1.95519e-10
1.95638e-10
1.95687e-10
1.95697e-10
1.95662e-10
1.95591e-10
1.95358e-10
1.95045e-10
1.94495e-10
1.93812e-10
1.92843e-10
1.91797e-10
1.9067e-10
1.8953e-10
1.88329e-10
1.87022e-10
1.85834e-10
1.84699e-10
1.83116e-10
1.7965e-10
1.63208e-10
3.11006e-11
2.77939e-13
3.23047e-18
6.67197e-29
7.16713e-52
4.17584e-100
3.58943e-202
0
0
0
0
0
0
0
0
0
0
0
0
0
0
0
0
0
0
0
0
0
0
0
0
0
0
0
0
0
0
0
0
0
0
0
0
0
0
0
0
0
0
0
0
0
0
0
0
0
0
0
0
0
0
0
0
0
0
0
0
0
0
0
0
0
0
0
0
0
0
0
0
0
0
0
0
0
0
0
0
0
0
0
0
0
0
0
0
0
0
0
0
0
0
0
0
0
0
0
0
0
0
0
0
0
0
0
0
0
0
0
0
0
0
0
0
0
0
0
0
0
0
0
0
0
0
0
0
0
0
0
0
0
0
0
0
0
0
0
0
0
0
0
0
0
0
0
0
0
0
0
0
0
0
0
0
0
0
0
0
0
0
0
0
0
0
0
0
0
0
0
0
0
0
0
0
0
0
0
0
0
0
0
0
0
0
0
0
0
0
0
0
0
0
0
0
0
0
0
0
0
0
0
0
0
0
0
0
0
0
0
0
0
0
0
0
0
0
0
0
0
0
0
0
0
0
0
0
0
0
0
0
0
0
0
0
0
0
0
0
0
0
0
0
0
0
0
0
0
0
0
0
0
0
0
0
0
0
0
0
0
0
0
0
0
0
0
0
0
0
0
0
0
0
0
0
0
0
0
0
0
0
0
0
0
0
0
0
0
0
0
0
0
0
0
0
0
0
0
0
0
0
0
0
0
0
0
0
0
0
0
0
0
0
0
0
0
0
0
0
0
0
0
0
0
0
0
0
0
0
0
0
0
0
0
0
0
0
0
0
0
0
0
0
0
0
0
0
0
0
0
0
0
0
0
0
0
0
0
0
0
0
0
0
0
0
0
0
0
0
0
0
0
0
0
0
0
0
0
0
0
0
0
0
0
0
0
0
0
0
0
0
0
0
0
0
0
0
0
0
0
0
0
0
0
0
0
0
0
0
0
0
0
0
0
0
0
0
0
0
0
0
0
0
0
0
0
0
0
0
0
0
0
0
0
0
0
0
0
0
0
0
0
0
0
0
0
0
0
0
0
0
0
0
0
0
0
0
0
0
0
0
0
0
0
0
0
0
0
0
0
0
0
0
0
0
0
0
0
0
0
0
0
0
0
0
0
0
0
0
0
0
0
0
0
0
0
0
0
0
0
0
0
0
0
0
0
0
0
0
0
0
0
0
0
0
0
0
0
0
0
0
0
0
0
0
0
0
0
0
0
0
0
0
0
0
0
0
0
0
0
0
0
0
0
0
0
0
0
0
0
0
0
0
0
0
0
0
0
0
0
0
0
0
0
0
0
0
0
0
0
0
0
0
0
0
0
0
0
0
0
0
0
0
0
0
0
0
0
0
0
0
0
0
0
0
0
0
0
0
0
0
0
0
0
0
0
0
0
0
0
0
0
0
0
0
0
0
0
0
0
0
0
0
0
0
0
0
0
0
0
0
0
0
0
0
0
0
0
)
;

boundaryField
{
    inlet
    {
        type            calculated;
        value           uniform -2.74882e-10;
    }
    outlet
    {
        type            calculated;
        value           uniform 0;
    }
    emptyWalls
    {
        type            empty;
        value           nonuniform List<scalar> 0();
    }
}


// ************************************************************************* //
