/*--------------------------------*- C++ -*----------------------------------*\
  =========                 |
  \\      /  F ield         | OpenFOAM: The Open Source CFD Toolbox
   \\    /   O peration     | Website:  https://openfoam.org
    \\  /    A nd           | Version:  9
     \\/     M anipulation  |
\*---------------------------------------------------------------------------*/
FoamFile
{
    format      ascii;
    class       volScalarField;
    location    "800";
    object      Fshear;
}
// * * * * * * * * * * * * * * * * * * * * * * * * * * * * * * * * * * * * * //

dimensions      [0 0 0 0 0 0 0];

internalField   nonuniform List<scalar> 
100
(
0.267505
0.37182
0.320977
0.327025
0.316297
0.311974
0.309421
0.312578
0.317371
0.321343
0.325686
0.329868
0.334007
0.33807
0.342055
0.34595
0.349722
0.353338
0.356797
0.360188
0.363883
0.368971
0.377897
0.396338
0.45989
0.88377
1
1
1
1
1
1
1
1
1
1
1
1
1
1
1
1
1
1
1
1
1
1
1
1
1
1
1
1
1
1
1
1
1
1
1
1
1
1
1
1
1
1
1
1
1
1
1
1
1
1
1
1
1
1
1
1
1
1
1
1
1
1
1
1
1
1
1
1
1
1
1
1
1
1
)
;

boundaryField
{
    inlet
    {
        type            calculated;
        value           uniform 2.78312e-12;
    }
    outlet
    {
        type            calculated;
        value           uniform 2.78312e-12;
    }
    emptyWalls
    {
        type            empty;
    }
}


// ************************************************************************* //
