/*--------------------------------*- C++ -*----------------------------------*\
  =========                 |
  \\      /  F ield         | OpenFOAM: The Open Source CFD Toolbox
   \\    /   O peration     | Website:  https://openfoam.org
    \\  /    A nd           | Version:  9
     \\/     M anipulation  |
\*---------------------------------------------------------------------------*/
FoamFile
{
    format      ascii;
    class       volScalarField;
    location    "800";
    object      kra;
}
// * * * * * * * * * * * * * * * * * * * * * * * * * * * * * * * * * * * * * //

dimensions      [0 0 0 0 0 0 0];

internalField   nonuniform List<scalar> 
100
(
3.83442e-05
2.78333e-05
2.97689e-05
2.84727e-05
2.81406e-05
2.75338e-05
2.72857e-05
2.75624e-05
2.76664e-05
2.77977e-05
2.78783e-05
2.79486e-05
2.80075e-05
2.80544e-05
2.80917e-05
2.81149e-05
2.81282e-05
2.81345e-05
2.8133e-05
2.81263e-05
2.81078e-05
2.8063e-05
2.796e-05
2.76763e-05
2.61769e-05
1.10832e-05
6.0676e-08
2.11685e-13
4.87046e-25
3.42965e-35
2.81602e-35
3.07114e-35
3.06624e-35
2.41909e-35
1.95684e-36
1.18667e-36
1.21183e-36
1.11099e-36
1.11099e-36
1.17767e-36
1.21174e-36
1.21174e-36
1.21174e-36
1.21174e-36
1.21174e-36
1.11099e-36
1.21174e-36
1.21174e-36
1.11099e-36
1.21174e-36
1.17767e-36
1.11099e-36
1.11099e-36
1.21174e-36
1.11099e-36
1.17767e-36
1.11099e-36
1.11099e-36
1.17767e-36
1.21174e-36
1.17767e-36
1.21174e-36
1.17767e-36
1.11099e-36
1.11099e-36
1.31689e-36
1.21174e-36
1.28135e-36
1.11099e-36
1.11099e-36
1.21174e-36
1.28135e-36
1.21174e-36
1.31689e-36
1.28135e-36
1.31689e-36
1.21174e-36
1.21174e-36
1.21174e-36
1.28135e-36
1.11099e-36
1.31689e-36
1.21174e-36
1.21174e-36
1.28135e-36
1.07838e-36
1.31689e-36
1.21174e-36
1.28135e-36
1.31689e-36
1.28135e-36
1.31689e-36
1.21174e-36
1.28135e-36
1.31689e-36
1.11099e-36
1.28135e-36
1.31689e-36
1.28135e-36
1.31689e-36
)
;

boundaryField
{
    inlet
    {
        type            calculated;
        value           uniform 1.0266e-05;
    }
    outlet
    {
        type            calculated;
        value           uniform 4.72742e-37;
    }
    emptyWalls
    {
        type            empty;
    }
}


// ************************************************************************* //
