/*--------------------------------*- C++ -*----------------------------------*\
  =========                 |
  \\      /  F ield         | OpenFOAM: The Open Source CFD Toolbox
   \\    /   O peration     | Website:  https://openfoam.org
    \\  /    A nd           | Version:  9
     \\/     M anipulation  |
\*---------------------------------------------------------------------------*/
FoamFile
{
    format      ascii;
    class       surfaceScalarField;
    location    "800";
    object      phia;
}
// * * * * * * * * * * * * * * * * * * * * * * * * * * * * * * * * * * * * * //

dimensions      [0 2 0 0 0 0 0];

internalField   nonuniform List<scalar> 
99
(
1.4169e-08
1.4124e-08
1.40741e-08
1.40142e-08
1.39417e-08
1.38742e-08
1.37915e-08
1.37214e-08
1.36417e-08
1.35547e-08
1.34624e-08
1.33661e-08
1.32681e-08
1.3169e-08
1.30688e-08
1.29677e-08
1.28689e-08
1.27733e-08
1.26806e-08
1.25851e-08
1.24674e-08
1.22784e-08
1.19231e-08
1.11624e-08
8.3632e-09
6.47917e-10
2.69391e-12
9.27474e-18
2.13386e-29
2.73634e-39
2.46747e-39
2.69099e-39
2.68178e-39
1.4918e-39
4.63527e-41
3.02408e-41
3.0815e-41
2.82501e-41
2.825e-41
3.03788e-41
3.0812e-41
3.0812e-41
3.0812e-41
3.0812e-41
3.0812e-41
2.825e-41
3.0812e-41
3.0812e-41
2.825e-41
3.0812e-41
2.90978e-41
2.825e-41
2.825e-41
3.0812e-41
2.825e-41
2.99456e-41
2.825e-41
2.825e-41
3.03788e-41
3.0812e-41
2.99456e-41
3.0812e-41
2.90978e-41
2.825e-41
2.825e-41
3.34858e-41
3.0812e-41
3.25821e-41
2.825e-41
2.825e-41
3.1697e-41
3.25821e-41
3.0812e-41
3.34858e-41
3.25821e-41
3.34858e-41
3.0812e-41
3.0812e-41
3.0812e-41
3.25821e-41
2.825e-41
3.34858e-41
3.0812e-41
3.0812e-41
3.25821e-41
2.74209e-41
3.34858e-41
3.0812e-41
3.30339e-41
3.34858e-41
3.25821e-41
3.34858e-41
3.0812e-41
3.30339e-41
3.34858e-41
2.825e-41
3.30339e-41
3.34858e-41
3.25821e-41
)
;

boundaryField
{
    inlet
    {
        type            calculated;
        value           uniform -1.42126e-08;
    }
    outlet
    {
        type            calculated;
        value           uniform 1.20208e-41;
    }
    emptyWalls
    {
        type            empty;
        value           nonuniform List<scalar> 0();
    }
}


// ************************************************************************* //
