/*--------------------------------*- C++ -*----------------------------------*\
  =========                 |
  \\      /  F ield         | OpenFOAM: The Open Source CFD Toolbox
   \\    /   O peration     | Website:  https://openfoam.org
    \\  /    A nd           | Version:  9
     \\/     M anipulation  |
\*---------------------------------------------------------------------------*/
FoamFile
{
    format      ascii;
    class       volVectorField;
    location    "800";
    object      Ua;
}
// * * * * * * * * * * * * * * * * * * * * * * * * * * * * * * * * * * * * * //

dimensions      [0 0 0 0 0 0 0];

internalField   nonuniform List<vector> 
100
(
(0 0 8.72447e-06)
(0 0 1.12574e-05)
(0 0 1.12196e-05)
(0 0 1.1176e-05)
(0 0 1.11233e-05)
(0 0 1.10676e-05)
(0 0 1.10078e-05)
(0 0 1.0947e-05)
(0 0 1.08874e-05)
(0 0 1.08211e-05)
(0 0 1.07498e-05)
(0 0 1.06747e-05)
(0 0 1.05974e-05)
(0 0 1.0519e-05)
(0 0 1.04397e-05)
(0 0 1.03596e-05)
(0 0 1.02801e-05)
(0 0 1.02027e-05)
(0 0 1.01278e-05)
(0 0 1.00529e-05)
(0 0 9.96807e-06)
(0 0 9.84605e-06)
(0 0 9.62947e-06)
(0 0 9.18544e-06)
(0 0 7.76901e-06)
(0 0 3.58541e-06)
(0 0 2.5887e-07)
(0 0 1.07188e-09)
(0 0 3.6903e-15)
(0 0 8.49036e-27)
(0 0 2.07053e-36)
(0 0 2.05249e-36)
(0 0 2.13776e-36)
(0 0 1.66062e-36)
(0 0 6.12013e-37)
(0 0 3.04756e-38)
(0 0 2.42933e-38)
(0 0 2.35012e-38)
(0 0 2.24807e-38)
(0 0 2.33277e-38)
(0 0 2.4347e-38)
(0 0 2.45194e-38)
(0 0 2.45194e-38)
(0 0 2.45194e-38)
(0 0 2.45194e-38)
(0 0 2.35e-38)
(0 0 2.35e-38)
(0 0 2.45194e-38)
(0 0 2.35e-38)
(0 0 2.35e-38)
(0 0 2.38374e-38)
(0 0 2.2818e-38)
(0 0 2.24807e-38)
(0 0 2.35e-38)
(0 0 2.35e-38)
(0 0 2.31553e-38)
(0 0 2.31553e-38)
(0 0 2.24807e-38)
(0 0 2.33277e-38)
(0 0 2.4347e-38)
(0 0 2.41747e-38)
(0 0 2.41747e-38)
(0 0 2.38374e-38)
(0 0 2.2818e-38)
(0 0 2.24807e-38)
(0 0 2.45639e-38)
(0 0 2.55833e-38)
(0 0 2.52237e-38)
(0 0 2.42043e-38)
(0 0 2.24807e-38)
(0 0 2.38522e-38)
(0 0 2.55759e-38)
(0 0 2.52237e-38)
(0 0 2.55833e-38)
(0 0 2.62876e-38)
(0 0 2.62876e-38)
(0 0 2.55833e-38)
(0 0 2.45194e-38)
(0 0 2.45194e-38)
(0 0 2.52237e-38)
(0 0 2.42043e-38)
(0 0 2.45639e-38)
(0 0 2.55833e-38)
(0 0 2.45194e-38)
(0 0 2.52237e-38)
(0 0 2.38744e-38)
(0 0 2.4234e-38)
(0 0 2.55833e-38)
(0 0 2.54035e-38)
(0 0 2.64673e-38)
(0 0 2.62876e-38)
(0 0 2.62876e-38)
(0 0 2.55833e-38)
(0 0 2.54035e-38)
(0 0 2.64673e-38)
(0 0 2.45639e-38)
(0 0 2.43841e-38)
(0 0 2.64673e-38)
(0 0 2.62876e-38)
(0 0 1.77469e-38)
)
;

boundaryField
{
    inlet
    {
        type            fixedValue;
        value           uniform (0 0 1.131e-05);
    }
    outlet
    {
        type            zeroGradient;
    }
    emptyWalls
    {
        type            empty;
    }
}


// ************************************************************************* //
