/*--------------------------------*- C++ -*----------------------------------*\
  =========                 |
  \\      /  F ield         | OpenFOAM: The Open Source CFD Toolbox
   \\    /   O peration     | Website:  https://openfoam.org
    \\  /    A nd           | Version:  9
     \\/     M anipulation  |
\*---------------------------------------------------------------------------*/
FoamFile
{
    format      ascii;
    class       volScalarField;
    location    "13450";
    object      krb;
}
// * * * * * * * * * * * * * * * * * * * * * * * * * * * * * * * * * * * * * //

dimensions      [0 0 0 0 0 0 0];

internalField   nonuniform List<scalar> 
1000
(
0.0979869
0.0986775
0.0995855
0.100466
0.101359
0.102247
0.103149
0.104046
0.104923
0.105787
0.106553
0.107337
0.107899
0.108584
0.108993
0.109838
0.111642
0.118641
0.163201
0.383793
0.474055
0.496933
0.506974
0.51286
0.516844
0.519756
0.521999
0.523789
0.525246
0.526453
0.527446
0.52827
0.52895
0.529498
0.52994
0.530278
0.530539
0.530709
0.530813
0.530833
0.530785
0.530654
0.530441
0.530142
0.529751
0.529257
0.528641
0.527873
0.526902
0.525658
0.52406
0.52205
0.519644
0.516966
0.514141
0.511233
0.508282
0.505314
0.502346
0.499391
0.496455
0.493544
0.490662
0.48781
0.48499
0.482204
0.479451
0.476732
0.474046
0.471394
0.468776
0.46619
0.463636
0.461115
0.458625
0.456165
0.453736
0.451337
0.448967
0.446625
0.444312
0.442026
0.439767
0.437534
0.435328
0.433147
0.430992
0.428861
0.426754
0.424671
0.422611
0.420573
0.418558
0.416564
0.414592
0.41264
0.410708
0.408797
0.406905
0.405033
0.40318
0.401347
0.399531
0.397733
0.395952
0.394187
0.392438
0.390703
0.388982
0.387275
0.385583
0.383904
0.382239
0.380588
0.378952
0.37733
0.375722
0.37413
0.372553
0.370992
0.369447
0.367919
0.366408
0.364914
0.363437
0.361977
0.360533
0.359106
0.357694
0.356295
0.354911
0.353539
0.352177
0.350827
0.349486
0.348153
0.346829
0.345513
0.344205
0.342905
0.341612
0.340327
0.339049
0.33778
0.336519
0.335266
0.334022
0.332787
0.33156
0.330342
0.329133
0.327932
0.326741
0.325558
0.324383
0.323217
0.322059
0.32091
0.319768
0.318634
0.317508
0.31639
0.315279
0.314175
0.313079
0.31199
0.310908
0.309833
0.308764
0.307703
0.306648
0.3056
0.304558
0.303522
0.302493
0.30147
0.300454
0.299443
0.298439
0.29744
0.296447
0.29546
0.294479
0.293504
0.292534
0.29157
0.290611
0.289658
0.28871
0.287767
0.28683
0.285897
0.28497
0.284048
0.283131
0.282219
0.281312
0.280409
0.279512
0.278619
0.277731
0.276847
0.275968
0.275094
0.274224
0.273359
0.272498
0.271641
0.270789
0.269941
0.269097
0.268257
0.267421
0.26659
0.265763
0.264939
0.26412
0.263304
0.262493
0.261685
0.260881
0.260081
0.259285
0.258493
0.257704
0.256919
0.256137
0.255359
0.254585
0.253814
0.253046
0.252282
0.251522
0.250765
0.250011
0.24926
0.248513
0.247769
0.247028
0.24629
0.245555
0.244823
0.244094
0.243367
0.242644
0.241923
0.241204
0.240488
0.239775
0.239064
0.238355
0.237649
0.236945
0.236244
0.235545
0.234848
0.234154
0.233462
0.232773
0.232087
0.231404
0.230723
0.230046
0.229372
0.228701
0.228034
0.22737
0.226709
0.226053
0.225399
0.22475
0.224104
0.223461
0.222822
0.222186
0.221553
0.220923
0.220296
0.219672
0.21905
0.218431
0.217813
0.217198
0.216584
0.215972
0.215362
0.214753
0.214145
0.21354
0.212935
0.212332
0.21173
0.21113
0.210532
0.209935
0.209339
0.208745
0.208153
0.207563
0.206974
0.206387
0.205801
0.205218
0.204636
0.204056
0.203478
0.202902
0.202327
0.201754
0.201183
0.200614
0.200046
0.19948
0.198916
0.198354
0.197793
0.197234
0.196676
0.19612
0.195566
0.195013
0.194462
0.193912
0.193364
0.192817
0.192272
0.191728
0.191185
0.190645
0.190105
0.189567
0.18903
0.188495
0.187961
0.187428
0.186897
0.186367
0.185838
0.185311
0.184785
0.18426
0.183737
0.183214
0.182693
0.182174
0.181655
0.181138
0.180621
0.180106
0.179592
0.17908
0.178568
0.178057
0.177548
0.17704
0.176533
0.176026
0.175521
0.175017
0.174514
0.174012
0.173512
0.173012
0.172513
0.172015
0.171518
0.171022
0.170527
0.170033
0.169539
0.169047
0.168556
0.168065
0.167576
0.167087
0.1666
0.166113
0.165627
0.165141
0.164657
0.164173
0.163691
0.163209
0.162728
0.162247
0.161768
0.161289
0.160811
0.160334
0.159857
0.159381
0.158906
0.158432
0.157958
0.157485
0.157013
0.156541
0.15607
0.155599
0.155129
0.15466
0.154191
0.153723
0.153255
0.152788
0.152321
0.151855
0.151389
0.150924
0.150459
0.149994
0.14953
0.149066
0.148602
0.148139
0.147676
0.147213
0.146751
0.146289
0.145827
0.145366
0.144905
0.144444
0.143983
0.143523
0.143063
0.142604
0.142145
0.141686
0.141228
0.14077
0.140313
0.139856
0.1394
0.138944
0.138489
0.138034
0.13758
0.137126
0.136673
0.13622
0.135768
0.135316
0.134865
0.134414
0.133963
0.133513
0.133063
0.132613
0.132163
0.131713
0.131264
0.130814
0.130364
0.129915
0.129464
0.129015
0.128564
0.128114
0.127663
0.127211
0.12676
0.126308
0.125856
0.125403
0.12495
0.124496
0.124042
0.123588
0.123133
0.122678
0.122222
0.121766
0.121309
0.120852
0.120395
0.119937
0.119479
0.11902
0.11856
0.118101
0.117641
0.11718
0.116719
0.116257
0.115795
0.115333
0.11487
0.114407
0.113944
0.11348
0.113016
0.112552
0.112088
0.111624
0.111161
0.110697
0.110235
0.109773
0.109313
0.108854
0.108397
0.107944
0.107493
0.107046
0.106605
0.106169
0.10574
0.10532
0.104909
0.10451
0.104123
0.10375
0.103393
0.103054
0.102733
0.102433
0.102154
0.101897
0.101662
0.10145
0.10126
0.101092
0.100944
0.100815
0.100703
0.100605
0.100517
0.100433
0.100344
0.100234
0.100078
0.0998299
0.0994128
0.0986925
0.0974451
0.0953155
0.0917993
0.0863252
0.0785566
0.0688999
0.0587533
0.0498878
0.0433674
0.0391847
0.0367424
0.0353965
0.0346788
0.0343029
0.0341078
0.0340071
0.0339552
0.0339286
0.0339149
0.0339078
0.0339042
0.0339023
0.0339013
0.0339008
0.0339005
0.0339004
0.0339003
0.0339002
0.0339002
0.0339001
0.0339001
0.0339001
0.0339
0.0339
0.0339
0.0338999
0.0338999
0.0338999
0.0338998
0.0338998
0.0338997
0.0338997
0.0338996
0.0338996
0.0338996
0.0338995
0.0338994
0.0338994
0.0338993
0.0338992
0.0338992
0.0338991
0.033899
0.0338989
0.0338987
0.0338986
0.0338985
0.0338983
0.0338982
0.033898
0.0338978
0.0338976
0.0338974
0.0338972
0.0338969
0.0338967
0.0338964
0.0338961
0.0338958
0.0338955
0.0338952
0.0338949
0.0338945
0.0338941
0.0338938
0.0338934
0.033893
0.0338926
0.0338922
0.0338918
0.0338914
0.0338909
0.0338905
0.0338901
0.0338897
0.0338893
0.0338889
0.0338885
0.0338881
0.0338877
0.0338873
0.033887
0.0338867
0.0338864
0.0338861
0.0338858
0.0338856
0.0338854
0.0338852
0.0338851
0.033885
0.0338849
0.0338848
0.0338848
0.0338847
0.0338848
0.0338848
0.0338849
0.0338851
0.0338852
0.0338854
0.0338856
0.0338858
0.033886
0.0338862
0.0338865
0.0338868
0.033887
0.0338873
0.0338876
0.0338879
0.0338881
0.0338884
0.0338887
0.0338889
0.0338892
0.0338894
0.0338897
0.0338899
0.0338901
0.0338903
0.0338905
0.0338907
0.0338909
0.033891
0.0338912
0.0338913
0.0338915
0.0338916
0.0338917
0.0338918
0.033892
0.0338921
0.0338922
0.0338923
0.0338924
0.0338924
0.0338925
0.0338926
0.0338927
0.0338928
0.0338929
0.0338929
0.033893
0.0338931
0.0338932
0.0338933
0.0338934
0.0338934
0.0338935
0.0338936
0.0338937
0.0338937
0.0338938
0.0338939
0.033894
0.0338941
0.0338941
0.0338942
0.0338943
0.0338943
0.0338944
0.0338945
0.0338945
0.0338946
0.0338947
0.0338947
0.0338948
0.0338948
0.0338949
0.033895
0.033895
0.0338951
0.0338951
0.0338951
0.0338952
0.0338952
0.0338953
0.0338953
0.0338954
0.0338954
0.0338954
0.0338955
0.0338955
0.0338955
0.0338955
0.0338956
0.0338956
0.0338956
0.0338957
0.0338957
0.0338957
0.0338957
0.0338957
0.0338958
0.0338958
0.0338958
0.0338958
0.0338958
0.0338958
0.0338958
0.0338958
0.0338958
0.0338958
0.0338957
0.0338957
0.0338957
0.0338957
0.0338956
0.0338956
0.0338956
0.0338955
0.0338955
0.0338954
0.0338954
0.0338954
0.0338953
0.0338953
0.0338953
0.0338953
0.0338953
0.0338953
0.0338953
0.0338953
0.0338954
0.0338954
0.0338954
0.0338955
0.0338955
0.0338956
0.0338956
0.0338956
0.0338957
0.0338957
0.0338957
0.0338958
0.0338958
0.0338958
0.0338958
0.0338958
0.0338958
0.0338958
0.0338957
0.0338957
0.0338956
0.0338956
0.0338955
0.0338955
0.0338954
0.0338953
0.0338952
0.0338951
0.033895
0.0338949
0.0338948
0.0338947
0.0338945
0.0338944
0.0338942
0.0338941
0.0338939
0.0338938
0.0338936
0.0338934
0.0338932
0.033893
0.0338928
0.0338926
0.0338924
0.0338921
0.0338919
0.0338917
0.0338914
0.0338912
0.0338909
0.0338907
0.0338904
0.0338901
0.0338898
0.0338896
0.0338893
0.033889
0.0338888
0.0338885
0.0338883
0.033888
0.0338878
0.0338876
0.0338874
0.0338871
0.033887
0.0338868
0.0338866
0.0338865
0.0338864
0.0338863
0.0338862
0.0338862
0.0338861
0.0338861
0.0338861
0.0338861
0.0338861
0.0338862
0.0338863
0.0338864
0.0338865
0.0338867
0.0338868
0.033887
0.0338872
0.0338874
0.0338876
0.0338878
0.0338881
0.0338883
0.0338885
0.0338888
0.033889
0.0338892
0.0338895
0.0338897
0.03389
0.0338902
0.0338904
0.0338906
0.0338908
0.033891
0.0338912
0.0338914
0.0338915
0.0338917
0.0338918
0.033892
0.0338921
0.0338922
0.0338923
0.0338924
0.0338925
0.0338926
0.0338927
0.0338928
0.0338929
0.033893
0.033893
0.0338931
0.0338932
0.0338932
0.0338933
0.0338934
0.0338934
0.0338935
0.0338935
0.0338936
0.0338937
0.0338937
0.0338938
0.0338938
0.0338939
0.0338939
0.033894
0.0338941
0.0338941
0.0338942
0.0338942
0.0338943
0.0338943
0.0338944
0.0338944
0.0338945
0.0338946
0.0338946
0.0338947
0.0338947
0.0338948
0.0338948
0.0338949
0.0338949
0.033895
0.033895
0.0338951
0.0338951
0.0338952
0.0338952
0.0338953
0.0338953
0.0338954
0.0338954
0.0338954
0.0338955
0.0338955
0.0338955
0.0338956
0.0338956
0.0338956
0.0338956
0.0338957
0.0338957
0.0338957
0.0338957
0.0338957
0.0338958
0.0338958
0.0338958
0.0338958
0.0338958
0.0338958
0.0338958
0.0338958
0.0338958
0.0338958
0.0338958
0.0338958
0.0338958
0.0338958
0.0338958
0.0338958
0.0338958
0.0338958
0.0338958
0.0338958
0.0338958
0.0338958
0.0338958
0.0338958
0.0338958
0.0338958
0.0338958
0.0338958
0.0338958
0.0338958
0.0338958
0.0338958
0.0338958
0.0338958
0.0338958
0.0338958
0.0338958
0.0338957
0.0338957
0.0338957
0.0338957
0.0338957
0.0338957
0.0338956
0.0338956
0.0338955
0.0338955
0.0338954
0.0338954
0.0338953
0.0338953
0.0338952
0.0338952
0.033895
)
;

boundaryField
{
    inlet
    {
        type            calculated;
        value           uniform 0.0976562;
    }
    outlet
    {
        type            calculated;
        value           uniform 0.033895;
    }
    emptyWalls
    {
        type            empty;
    }
}


// ************************************************************************* //
