/*--------------------------------*- C++ -*----------------------------------*\
  =========                 |
  \\      /  F ield         | OpenFOAM: The Open Source CFD Toolbox
   \\    /   O peration     | Website:  https://openfoam.org
    \\  /    A nd           | Version:  9
     \\/     M anipulation  |
\*---------------------------------------------------------------------------*/
FoamFile
{
    format      ascii;
    class       volScalarField;
    location    "24850";
    object      Fb;
}
// * * * * * * * * * * * * * * * * * * * * * * * * * * * * * * * * * * * * * //

dimensions      [0 0 0 0 0 0 0];

internalField   nonuniform List<scalar> 
1000
(
0.80521
0.805178
0.805232
0.805174
0.805261
0.805172
0.805285
0.805185
0.805292
0.805232
0.805296
0.805297
0.80532
0.805347
0.805371
0.805392
0.805428
0.805451
0.805481
0.805513
0.80553
0.805575
0.805564
0.80565
0.805592
0.805718
0.805638
0.80575
0.805697
0.805761
0.805744
0.805787
0.805835
0.806089
0.807662
0.821692
0.832181
0.833974
0.834625
0.834969
0.835194
0.835361
0.835496
0.835607
0.835697
0.835769
0.835828
0.835885
0.835945
0.836009
0.836069
0.836111
0.836129
0.836127
0.836116
0.836116
0.836145
0.836195
0.836245
0.836286
0.83631
0.836281
0.836126
0.8359
0.835611
0.835285
0.834953
0.834648
0.834394
0.834206
0.834084
0.834009
0.83396
0.83391
0.833877
0.83398
0.8342
0.834456
0.834727
0.834995
0.835241
0.835454
0.835626
0.835754
0.83584
0.835885
0.835895
0.835874
0.835826
0.835757
0.83567
0.83557
0.835457
0.835334
0.835197
0.835047
0.834879
0.834694
0.834494
0.834285
0.83407
0.83385
0.833626
0.833399
0.83317
0.832938
0.832704
0.832468
0.83223
0.831989
0.831747
0.831502
0.831256
0.831008
0.830758
0.830506
0.830253
0.829998
0.829741
0.829483
0.829223
0.828961
0.828698
0.828433
0.828166
0.827898
0.827628
0.827356
0.827083
0.826809
0.826533
0.826256
0.825977
0.825698
0.825416
0.825133
0.824849
0.824562
0.824273
0.823983
0.82369
0.823397
0.823102
0.822806
0.82251
0.822213
0.821916
0.821619
0.821322
0.821024
0.820725
0.820423
0.82012
0.819815
0.819508
0.819199
0.818889
0.818578
0.818266
0.817955
0.817644
0.817335
0.817027
0.816722
0.816418
0.816113
0.815806
0.815494
0.815174
0.814844
0.8145
0.814142
0.813767
0.813377
0.812971
0.812551
0.812119
0.811677
0.811228
0.810773
0.810316
0.80986
0.809409
0.808965
0.808534
0.808118
0.807721
0.807346
0.806996
0.806673
0.806376
0.806106
0.805861
0.805638
0.805434
0.805245
0.805066
0.804894
0.804723
0.804549
0.804369
0.804181
0.803981
0.803768
0.803543
0.803304
0.803051
0.802787
0.802512
0.802227
0.801934
0.801635
0.80133
0.801021
0.80071
0.800397
0.800084
0.799771
0.799459
0.799147
0.798837
0.798528
0.798221
0.797915
0.797611
0.797307
0.797005
0.796703
0.796402
0.796101
0.795801
0.7955
0.795199
0.794899
0.794598
0.794296
0.793994
0.793691
0.793388
0.793084
0.792779
0.792473
0.792167
0.79186
0.791551
0.791242
0.790932
0.790621
0.790309
0.789997
0.789683
0.789368
0.789053
0.788736
0.788419
0.7881
0.787781
0.787461
0.787139
0.786817
0.786494
0.786169
0.785844
0.785517
0.78519
0.784861
0.784532
0.784202
0.78387
0.783539
0.783206
0.782873
0.782539
0.782205
0.78187
0.781534
0.781198
0.780861
0.780523
0.780184
0.779845
0.779505
0.779164
0.778822
0.77848
0.778137
0.777794
0.777451
0.777109
0.776766
0.776423
0.77608
0.775737
0.775392
0.775047
0.774699
0.774348
0.773994
0.773636
0.773272
0.772903
0.772527
0.772144
0.771754
0.771357
0.770953
0.770541
0.770122
0.769697
0.769267
0.768832
0.768394
0.767954
0.767514
0.767074
0.766636
0.766203
0.765776
0.765356
0.764946
0.764545
0.764157
0.763781
0.763419
0.76307
0.762734
0.762413
0.762104
0.761806
0.761519
0.761242
0.760971
0.760706
0.760445
0.760186
0.759927
0.759667
0.759404
0.759137
0.758866
0.758589
0.758307
0.758018
0.757722
0.757421
0.757113
0.7568
0.756482
0.756159
0.755832
0.755501
0.755168
0.754832
0.754494
0.754154
0.753814
0.753472
0.75313
0.752788
0.752447
0.752105
0.751763
0.751422
0.751081
0.750741
0.750401
0.750061
0.749722
0.749383
0.749044
0.748705
0.748366
0.748027
0.747688
0.747349
0.74701
0.74667
0.74633
0.745989
0.745648
0.745306
0.744964
0.744621
0.744278
0.743934
0.743589
0.743244
0.742898
0.742551
0.742204
0.741856
0.741507
0.741157
0.740806
0.740455
0.740103
0.73975
0.739397
0.739042
0.738687
0.738331
0.737974
0.737616
0.737258
0.736898
0.736538
0.736177
0.735816
0.735453
0.73509
0.734726
0.734361
0.733996
0.73363
0.733264
0.732896
0.732529
0.73216
0.731791
0.731421
0.731051
0.73068
0.730308
0.729936
0.729564
0.729191
0.728817
0.728443
0.728069
0.727694
0.727319
0.726943
0.726567
0.72619
0.725813
0.725435
0.725056
0.724676
0.724294
0.723911
0.723525
0.723138
0.722747
0.722354
0.721957
0.721557
0.721154
0.720746
0.720334
0.719918
0.719498
0.719073
0.718645
0.718212
0.717777
0.717338
0.716896
0.716452
0.716006
0.71556
0.715113
0.714666
0.714221
0.713778
0.713338
0.712901
0.712468
0.712041
0.71162
0.711205
0.710796
0.710395
0.710001
0.709615
0.709237
0.708866
0.708502
0.708145
0.707795
0.70745
0.70711
0.706775
0.706443
0.706113
0.705786
0.705459
0.705132
0.704805
0.704477
0.704147
0.703815
0.70348
0.703142
0.7028
0.702456
0.702108
0.701756
0.701401
0.701043
0.700682
0.700317
0.699951
0.699581
0.69921
0.698836
0.698461
0.698084
0.697706
0.697327
0.696947
0.696566
0.696185
0.695803
0.695421
0.695038
0.694656
0.694273
0.69389
0.693507
0.693124
0.692741
0.692358
0.691975
0.691591
0.691208
0.690824
0.69044
0.690055
0.689671
0.689286
0.6889
0.688514
0.688128
0.687741
0.687354
0.686966
0.686578
0.686189
0.685799
0.685409
0.685018
0.684626
0.684234
0.683841
0.683447
0.683053
0.682658
0.682262
0.681865
0.681467
0.681069
0.68067
0.68027
0.679869
0.679468
0.679066
0.678663
0.678259
0.677854
0.677449
0.677042
0.676635
0.676227
0.675819
0.67541
0.674999
0.674589
0.674177
0.673765
0.673352
0.672938
0.672524
0.672108
0.671693
0.671276
0.670859
0.670441
0.670023
0.669604
0.669184
0.668764
0.668343
0.667922
0.6675
0.667077
0.666654
0.66623
0.665805
0.66538
0.664954
0.664527
0.6641
0.663671
0.663241
0.66281
0.662378
0.661944
0.661508
0.661071
0.660632
0.660191
0.659747
0.659302
0.658853
0.658403
0.65795
0.657494
0.657035
0.656574
0.65611
0.655643
0.655174
0.654702
0.654229
0.653753
0.653275
0.652796
0.652316
0.651834
0.651352
0.65087
0.650388
0.649907
0.649426
0.648947
0.64847
0.647995
0.647522
0.647052
0.646586
0.646123
0.645664
0.645209
0.644758
0.644311
0.643869
0.643431
0.642997
0.642567
0.642141
0.641719
0.6413
0.640885
0.640472
0.640061
0.639653
0.639245
0.638839
0.638434
0.638029
0.637623
0.637217
0.636811
0.636403
0.635993
0.635582
0.635169
0.634755
0.634337
0.633918
0.633497
0.633073
0.632647
0.632218
0.631788
0.631355
0.630921
0.630484
0.630046
0.629606
0.629165
0.628722
0.628278
0.627832
0.627386
0.626938
0.62649
0.62604
0.62559
0.625139
0.624688
0.624236
0.623783
0.623329
0.622875
0.622421
0.621966
0.62151
0.621054
0.620598
0.62014
0.619683
0.619224
0.618766
0.618306
0.617846
0.617385
0.616924
0.616461
0.615998
0.615535
0.61507
0.614605
0.614139
0.613672
0.613204
0.612736
0.612266
0.611796
0.611325
0.610853
0.61038
0.609906
0.609431
0.608955
0.608478
0.608
0.607522
0.607042
0.606561
0.606079
0.605597
0.605113
0.604628
0.604143
0.603656
0.603168
0.60268
0.60219
0.601699
0.601207
0.600715
0.600221
0.599726
0.599231
0.598734
0.598236
0.597738
0.597238
0.596738
0.596236
0.595734
0.59523
0.594726
0.59422
0.593714
0.593207
0.592699
0.59219
0.591679
0.591168
0.590656
0.590143
0.589629
0.589114
0.588598
0.588081
0.587563
0.587043
0.586523
0.586001
0.585478
0.584953
0.584427
0.583899
0.58337
0.58284
0.582307
0.581773
0.581237
0.580699
0.580159
0.579617
0.579072
0.578526
0.577977
0.577427
0.576874
0.576318
0.575761
0.575201
0.574639
0.574075
0.573509
0.572942
0.572372
0.5718
0.571227
0.570653
0.570077
0.5695
0.568923
0.568344
0.567765
0.567186
0.566606
0.566027
0.565448
0.564869
0.564291
0.563714
0.563138
0.562563
0.56199
0.561418
0.560847
0.560279
0.559712
0.559147
0.558584
0.558022
0.557462
0.556904
0.556348
0.555793
0.55524
0.554687
0.554136
0.553585
0.553035
0.552486
0.551936
0.551387
0.550837
0.550286
0.549735
0.549183
0.548629
0.548075
0.547518
0.54696
0.5464
0.545839
0.545275
0.544709
0.54414
0.54357
0.542997
0.542421
0.541844
0.541264
0.540682
0.540097
0.53951
0.538921
0.538329
0.537736
0.53714
0.536542
0.535942
0.535341
0.534737
0.534131
0.533524
0.532914
0.532303
0.53169
0.531076
0.530459
0.529841
0.529221
0.5286
0.527977
0.527352
0.526725
0.526097
0.525467
0.524836
0.524203
0.523568
0.522931
0.522292
0.521652
0.52101
0.520366
0.51972
0.519073
0.518423
0.517772
0.517118
0.516463
0.515806
0.515147
0.514485
0.513822
0.513157
0.512489
0.511819
0.511148
0.510474
0.509798
0.509119
0.508439
0.507756
0.507072
0.506384
0.505695
0.505002
0.50431
0.503612
0.502915
0.502212
0.501511
0.500803
0.500097
0.499384
0.498674
0.497957
0.497242
0.496519
0.4958
0.495073
0.49435
0.493617
0.49289
0.492153
0.491421
0.490679
0.489944
0.489198
0.488459
0.487709
0.486966
0.486213
0.485466
0.48471
0.483961
0.483203
0.482451
0.481692
0.480939
0.48018
0.479426
0.478669
0.477916
0.477162
0.476411
0.475663
0.474918
0.474177
0.473441
0.472712
0.471989
0.471274
0.470568
0.469873
0.469191
0.468521
0.467866
0.467228
0.466607
0.466007
0.465427
0.464871
0.464338
0.46383
0.463349
0.462894
0.462468
0.46207
0.461698
0.461355
0.46104
0.46075
0.460488
0.46025
0.460036
0.459842
0.45967
0.459515
0.45938
0.459258
0.459152
0.459057
0.458974
0.458899
0.458834
0.458775
0.458724
0.458677
0.458636
0.458593
0.45856
0.458516
0.458479
0.458419
0.458363
0.458215
0.458101
0.457656
0.457358
0.455903
0.455037
0.450367
0.447666
0.433611
0.426414
0.38878
0.37547
0.303467
)
;

boundaryField
{
    inlet
    {
        type            calculated;
        value           uniform 0.805169;
    }
    outlet
    {
        type            calculated;
        value           uniform 0.303738;
    }
    emptyWalls
    {
        type            empty;
    }
}


// ************************************************************************* //
