/*--------------------------------*- C++ -*----------------------------------*\
  =========                 |
  \\      /  F ield         | OpenFOAM: The Open Source CFD Toolbox
   \\    /   O peration     | Website:  https://openfoam.org
    \\  /    A nd           | Version:  9
     \\/     M anipulation  |
\*---------------------------------------------------------------------------*/
FoamFile
{
    format      ascii;
    class       surfaceScalarField;
    location    "24850";
    object      phic;
}
// * * * * * * * * * * * * * * * * * * * * * * * * * * * * * * * * * * * * * //

dimensions      [0 2 0 0 0 0 0];

internalField   nonuniform List<scalar> 
999
(
8.42006e-16
3.47302e-15
8.51991e-15
1.58757e-14
2.54968e-14
3.73714e-14
5.15057e-14
6.79094e-14
8.6588e-14
1.07555e-13
1.30784e-13
1.5626e-13
1.83911e-13
2.13644e-13
2.45316e-13
2.78713e-13
3.13562e-13
3.49512e-13
3.86122e-13
4.229e-13
4.59275e-13
4.94709e-13
5.2861e-13
5.60583e-13
5.90199e-13
6.17297e-13
6.41797e-13
6.63744e-13
6.83563e-13
7.02429e-13
7.25797e-13
7.78322e-13
9.68437e-13
1.67196e-12
5.19135e-12
1.74034e-11
2.04065e-11
2.1266e-11
2.1659e-11
2.19024e-11
2.20829e-11
2.22318e-11
2.23623e-11
2.2481e-11
2.25915e-11
2.26959e-11
2.27957e-11
2.28918e-11
2.29849e-11
2.30755e-11
2.31637e-11
2.32495e-11
2.33333e-11
2.34151e-11
2.34956e-11
2.35751e-11
2.36539e-11
2.37319e-11
2.38091e-11
2.38854e-11
2.39607e-11
2.4033e-11
2.41035e-11
2.41724e-11
2.42401e-11
2.43074e-11
2.43749e-11
2.44433e-11
2.45132e-11
2.45849e-11
2.46584e-11
2.47335e-11
2.48107e-11
2.48896e-11
2.49709e-11
2.50578e-11
2.51471e-11
2.52385e-11
2.53318e-11
2.54268e-11
2.55233e-11
2.56213e-11
2.5721e-11
2.58227e-11
2.59268e-11
2.60337e-11
2.61444e-11
2.62596e-11
2.63806e-11
2.6509e-11
2.66469e-11
2.67971e-11
2.6963e-11
2.71485e-11
2.73577e-11
2.7594e-11
2.78589e-11
2.81508e-11
2.84656e-11
2.8798e-11
2.91437e-11
2.94995e-11
2.98632e-11
3.02332e-11
3.06082e-11
3.09874e-11
3.13702e-11
3.1756e-11
3.21444e-11
3.25351e-11
3.2928e-11
3.33227e-11
3.37191e-11
3.41171e-11
3.45166e-11
3.49174e-11
3.53196e-11
3.57229e-11
3.61274e-11
3.65331e-11
3.69398e-11
3.73475e-11
3.77562e-11
3.81659e-11
3.85764e-11
3.89879e-11
3.94002e-11
3.98134e-11
4.02274e-11
4.06423e-11
4.10579e-11
4.14743e-11
4.18915e-11
4.23094e-11
4.2728e-11
4.31473e-11
4.35674e-11
4.39881e-11
4.44094e-11
4.48314e-11
4.52541e-11
4.56774e-11
4.61013e-11
4.65259e-11
4.69512e-11
4.73771e-11
4.78036e-11
4.82309e-11
4.86587e-11
4.90871e-11
4.95161e-11
4.99456e-11
5.03757e-11
5.08063e-11
5.12373e-11
5.16689e-11
5.21011e-11
5.25338e-11
5.2967e-11
5.34009e-11
5.38354e-11
5.42705e-11
5.47063e-11
5.51427e-11
5.55797e-11
5.60172e-11
5.64551e-11
5.68932e-11
5.73313e-11
5.77692e-11
5.8207e-11
5.86444e-11
5.90813e-11
5.95179e-11
5.99541e-11
6.039e-11
6.08257e-11
6.12612e-11
6.16968e-11
6.21325e-11
6.25685e-11
6.30051e-11
6.34424e-11
6.38806e-11
6.43201e-11
6.4761e-11
6.52035e-11
6.56479e-11
6.60943e-11
6.65428e-11
6.69934e-11
6.74462e-11
6.7901e-11
6.83577e-11
6.8816e-11
6.92757e-11
6.97365e-11
7.01982e-11
7.06604e-11
7.11228e-11
7.15854e-11
7.20479e-11
7.251e-11
7.29719e-11
7.34334e-11
7.38944e-11
7.43551e-11
7.48154e-11
7.52755e-11
7.57355e-11
7.61953e-11
7.66552e-11
7.71152e-11
7.75754e-11
7.80358e-11
7.84966e-11
7.89579e-11
7.94196e-11
7.98817e-11
8.03444e-11
8.08076e-11
8.12714e-11
8.17356e-11
8.22004e-11
8.26658e-11
8.31316e-11
8.35979e-11
8.40647e-11
8.4532e-11
8.49997e-11
8.54679e-11
8.59365e-11
8.64054e-11
8.68748e-11
8.73446e-11
8.78147e-11
8.82852e-11
8.87561e-11
8.92273e-11
8.96989e-11
9.01709e-11
9.06431e-11
9.11157e-11
9.15887e-11
9.20619e-11
9.25355e-11
9.30094e-11
9.34837e-11
9.39582e-11
9.44331e-11
9.49082e-11
9.53837e-11
9.58595e-11
9.63356e-11
9.6812e-11
9.72887e-11
9.77658e-11
9.82431e-11
9.87207e-11
9.91985e-11
9.96767e-11
1.00155e-10
1.00634e-10
1.01113e-10
1.01592e-10
1.02072e-10
1.02552e-10
1.03032e-10
1.03512e-10
1.03993e-10
1.04474e-10
1.04955e-10
1.05437e-10
1.05919e-10
1.06401e-10
1.06884e-10
1.07367e-10
1.0785e-10
1.08333e-10
1.08817e-10
1.09301e-10
1.09785e-10
1.1027e-10
1.10755e-10
1.1124e-10
1.11725e-10
1.12211e-10
1.12697e-10
1.13184e-10
1.13671e-10
1.14158e-10
1.14646e-10
1.15133e-10
1.15621e-10
1.1611e-10
1.16598e-10
1.17086e-10
1.17575e-10
1.18063e-10
1.1855e-10
1.19037e-10
1.19524e-10
1.20011e-10
1.20496e-10
1.20982e-10
1.21466e-10
1.2195e-10
1.22434e-10
1.22917e-10
1.23399e-10
1.23882e-10
1.24364e-10
1.24847e-10
1.25329e-10
1.25812e-10
1.26296e-10
1.26781e-10
1.27267e-10
1.27754e-10
1.28243e-10
1.28733e-10
1.29226e-10
1.2972e-10
1.30217e-10
1.30715e-10
1.31216e-10
1.31719e-10
1.32224e-10
1.32731e-10
1.33239e-10
1.3375e-10
1.34261e-10
1.34774e-10
1.35287e-10
1.35801e-10
1.36316e-10
1.36831e-10
1.37345e-10
1.3786e-10
1.38374e-10
1.38888e-10
1.39402e-10
1.39915e-10
1.40428e-10
1.4094e-10
1.41452e-10
1.41963e-10
1.42474e-10
1.42985e-10
1.43496e-10
1.44007e-10
1.44518e-10
1.45028e-10
1.45539e-10
1.4605e-10
1.46562e-10
1.47073e-10
1.47585e-10
1.48097e-10
1.4861e-10
1.49123e-10
1.49637e-10
1.50151e-10
1.50666e-10
1.51181e-10
1.51696e-10
1.52212e-10
1.52728e-10
1.53245e-10
1.53762e-10
1.5428e-10
1.54798e-10
1.55316e-10
1.55835e-10
1.56354e-10
1.56873e-10
1.57393e-10
1.57913e-10
1.58434e-10
1.58955e-10
1.59476e-10
1.59997e-10
1.60519e-10
1.61041e-10
1.61564e-10
1.62086e-10
1.62609e-10
1.63133e-10
1.63656e-10
1.6418e-10
1.64704e-10
1.65229e-10
1.65753e-10
1.66278e-10
1.66803e-10
1.67329e-10
1.67855e-10
1.68381e-10
1.68907e-10
1.69434e-10
1.6996e-10
1.70487e-10
1.71015e-10
1.71542e-10
1.7207e-10
1.72598e-10
1.73127e-10
1.73656e-10
1.74184e-10
1.74714e-10
1.75243e-10
1.75773e-10
1.76303e-10
1.76833e-10
1.77364e-10
1.77895e-10
1.78426e-10
1.78958e-10
1.7949e-10
1.80022e-10
1.80554e-10
1.81087e-10
1.8162e-10
1.82153e-10
1.82687e-10
1.83221e-10
1.83755e-10
1.8429e-10
1.84825e-10
1.8536e-10
1.85896e-10
1.86432e-10
1.86968e-10
1.87504e-10
1.88041e-10
1.88578e-10
1.89116e-10
1.89653e-10
1.90191e-10
1.90728e-10
1.91266e-10
1.91803e-10
1.9234e-10
1.92878e-10
1.93414e-10
1.93951e-10
1.94487e-10
1.95022e-10
1.95557e-10
1.96092e-10
1.96626e-10
1.97159e-10
1.97692e-10
1.98225e-10
1.98757e-10
1.99289e-10
1.9982e-10
2.00352e-10
2.00884e-10
2.01415e-10
2.01948e-10
2.0248e-10
2.03014e-10
2.03548e-10
2.04084e-10
2.04621e-10
2.05159e-10
2.05699e-10
2.0624e-10
2.06784e-10
2.07329e-10
2.07877e-10
2.08427e-10
2.08979e-10
2.09533e-10
2.10089e-10
2.10648e-10
2.11209e-10
2.11772e-10
2.12336e-10
2.12902e-10
2.1347e-10
2.14039e-10
2.14609e-10
2.1518e-10
2.15751e-10
2.16323e-10
2.16896e-10
2.17469e-10
2.18042e-10
2.18614e-10
2.19187e-10
2.1976e-10
2.20332e-10
2.20904e-10
2.21476e-10
2.22047e-10
2.22618e-10
2.23189e-10
2.2376e-10
2.2433e-10
2.24901e-10
2.25471e-10
2.26042e-10
2.26612e-10
2.27183e-10
2.27753e-10
2.28325e-10
2.28896e-10
2.29468e-10
2.3004e-10
2.30612e-10
2.31185e-10
2.31758e-10
2.32332e-10
2.32907e-10
2.33481e-10
2.34057e-10
2.34633e-10
2.35209e-10
2.35786e-10
2.36364e-10
2.36942e-10
2.37521e-10
2.381e-10
2.3868e-10
2.3926e-10
2.39841e-10
2.40422e-10
2.41003e-10
2.41586e-10
2.42168e-10
2.42751e-10
2.43335e-10
2.43919e-10
2.44503e-10
2.45088e-10
2.45673e-10
2.46259e-10
2.46845e-10
2.47431e-10
2.48018e-10
2.48605e-10
2.49193e-10
2.49781e-10
2.5037e-10
2.50958e-10
2.51548e-10
2.52137e-10
2.52727e-10
2.53318e-10
2.53908e-10
2.545e-10
2.55091e-10
2.55683e-10
2.56275e-10
2.56868e-10
2.57461e-10
2.58054e-10
2.58648e-10
2.59243e-10
2.59837e-10
2.60432e-10
2.61027e-10
2.61623e-10
2.62219e-10
2.62816e-10
2.63413e-10
2.6401e-10
2.64608e-10
2.65207e-10
2.65805e-10
2.66404e-10
2.67004e-10
2.67604e-10
2.68204e-10
2.68805e-10
2.69406e-10
2.70008e-10
2.70611e-10
2.71213e-10
2.71816e-10
2.7242e-10
2.73024e-10
2.73629e-10
2.74234e-10
2.74839e-10
2.75445e-10
2.76052e-10
2.76659e-10
2.77266e-10
2.77873e-10
2.78481e-10
2.79089e-10
2.79698e-10
2.80306e-10
2.80915e-10
2.81524e-10
2.82133e-10
2.82742e-10
2.83351e-10
2.8396e-10
2.84569e-10
2.85177e-10
2.85786e-10
2.86394e-10
2.87002e-10
2.87609e-10
2.88216e-10
2.88823e-10
2.8943e-10
2.90037e-10
2.90643e-10
2.91249e-10
2.91856e-10
2.92462e-10
2.93068e-10
2.93675e-10
2.94282e-10
2.9489e-10
2.95498e-10
2.96107e-10
2.96717e-10
2.97328e-10
2.97941e-10
2.98554e-10
2.9917e-10
2.99787e-10
3.00406e-10
3.01027e-10
3.0165e-10
3.02276e-10
3.02903e-10
3.03533e-10
3.04166e-10
3.04801e-10
3.05439e-10
3.06078e-10
3.06721e-10
3.07366e-10
3.08013e-10
3.08662e-10
3.09313e-10
3.09966e-10
3.10621e-10
3.11278e-10
3.11936e-10
3.12595e-10
3.13255e-10
3.13917e-10
3.14579e-10
3.15242e-10
3.15906e-10
3.1657e-10
3.17234e-10
3.17899e-10
3.18564e-10
3.19229e-10
3.19894e-10
3.2056e-10
3.21225e-10
3.2189e-10
3.22556e-10
3.23222e-10
3.23887e-10
3.24553e-10
3.2522e-10
3.25886e-10
3.26553e-10
3.2722e-10
3.27887e-10
3.28555e-10
3.29223e-10
3.29892e-10
3.30561e-10
3.31231e-10
3.31902e-10
3.32573e-10
3.33245e-10
3.33918e-10
3.34592e-10
3.35266e-10
3.35941e-10
3.36617e-10
3.37294e-10
3.37972e-10
3.3865e-10
3.3933e-10
3.4001e-10
3.40691e-10
3.41373e-10
3.42056e-10
3.4274e-10
3.43424e-10
3.44109e-10
3.44796e-10
3.45483e-10
3.4617e-10
3.46859e-10
3.47549e-10
3.48239e-10
3.4893e-10
3.49622e-10
3.50315e-10
3.51008e-10
3.51703e-10
3.52398e-10
3.53094e-10
3.53791e-10
3.54488e-10
3.55186e-10
3.55885e-10
3.56585e-10
3.57286e-10
3.57987e-10
3.5869e-10
3.59393e-10
3.60096e-10
3.60801e-10
3.61506e-10
3.62213e-10
3.6292e-10
3.63627e-10
3.64336e-10
3.65045e-10
3.65756e-10
3.66467e-10
3.67178e-10
3.67891e-10
3.68605e-10
3.69319e-10
3.70034e-10
3.7075e-10
3.71467e-10
3.72185e-10
3.72904e-10
3.73623e-10
3.74344e-10
3.75065e-10
3.75787e-10
3.7651e-10
3.77234e-10
3.77959e-10
3.78685e-10
3.79412e-10
3.8014e-10
3.80869e-10
3.81599e-10
3.8233e-10
3.83061e-10
3.83794e-10
3.84528e-10
3.85262e-10
3.85998e-10
3.86735e-10
3.87472e-10
3.88211e-10
3.8895e-10
3.89691e-10
3.90432e-10
3.91174e-10
3.91917e-10
3.92661e-10
3.93406e-10
3.94151e-10
3.94898e-10
3.95644e-10
3.96392e-10
3.9714e-10
3.97889e-10
3.98638e-10
3.99388e-10
4.00138e-10
4.00889e-10
4.0164e-10
4.02391e-10
4.03143e-10
4.03895e-10
4.04648e-10
4.05401e-10
4.06155e-10
4.06909e-10
4.07664e-10
4.08419e-10
4.09175e-10
4.09931e-10
4.10689e-10
4.11447e-10
4.12206e-10
4.12967e-10
4.13728e-10
4.14491e-10
4.15255e-10
4.16021e-10
4.16789e-10
4.17558e-10
4.1833e-10
4.19104e-10
4.1988e-10
4.20658e-10
4.21439e-10
4.22223e-10
4.23009e-10
4.23799e-10
4.24592e-10
4.25388e-10
4.26187e-10
4.26989e-10
4.27795e-10
4.28604e-10
4.29416e-10
4.30232e-10
4.31051e-10
4.31874e-10
4.327e-10
4.33529e-10
4.34362e-10
4.35197e-10
4.36035e-10
4.36876e-10
4.3772e-10
4.38567e-10
4.39415e-10
4.40267e-10
4.4112e-10
4.41975e-10
4.42833e-10
4.43692e-10
4.44553e-10
4.45416e-10
4.4628e-10
4.47146e-10
4.48013e-10
4.48881e-10
4.49751e-10
4.50622e-10
4.51495e-10
4.52368e-10
4.53243e-10
4.5412e-10
4.54997e-10
4.55876e-10
4.56756e-10
4.57638e-10
4.58521e-10
4.59406e-10
4.60292e-10
4.6118e-10
4.62069e-10
4.6296e-10
4.63853e-10
4.64748e-10
4.65645e-10
4.66543e-10
4.67444e-10
4.68346e-10
4.69251e-10
4.70157e-10
4.71066e-10
4.71977e-10
4.7289e-10
4.73805e-10
4.74723e-10
4.75643e-10
4.76565e-10
4.7749e-10
4.78417e-10
4.79346e-10
4.80278e-10
4.81212e-10
4.82149e-10
4.83088e-10
4.84029e-10
4.84973e-10
4.8592e-10
4.86869e-10
4.8782e-10
4.88774e-10
4.89731e-10
4.9069e-10
4.91652e-10
4.92616e-10
4.93583e-10
4.94553e-10
4.95525e-10
4.965e-10
4.97477e-10
4.98457e-10
4.9944e-10
5.00425e-10
5.01413e-10
5.02404e-10
5.03398e-10
5.04394e-10
5.05393e-10
5.06395e-10
5.074e-10
5.08407e-10
5.09417e-10
5.1043e-10
5.11446e-10
5.12465e-10
5.13486e-10
5.1451e-10
5.15537e-10
5.16567e-10
5.176e-10
5.18636e-10
5.19674e-10
5.20715e-10
5.21759e-10
5.22806e-10
5.23856e-10
5.24908e-10
5.25963e-10
5.27021e-10
5.28081e-10
5.29144e-10
5.3021e-10
5.31277e-10
5.32347e-10
5.3342e-10
5.34494e-10
5.3557e-10
5.36648e-10
5.37727e-10
5.38808e-10
5.39889e-10
5.40972e-10
5.42054e-10
5.43137e-10
5.44218e-10
5.45299e-10
5.46378e-10
5.47455e-10
5.48529e-10
5.49598e-10
5.50663e-10
5.51721e-10
5.52772e-10
5.53814e-10
5.54847e-10
5.55867e-10
5.56875e-10
5.57866e-10
5.5884e-10
5.59795e-10
5.60728e-10
5.61637e-10
5.6252e-10
5.63374e-10
5.64197e-10
5.64986e-10
5.65741e-10
5.66458e-10
5.67137e-10
5.67775e-10
5.68372e-10
5.68927e-10
5.69439e-10
5.6991e-10
5.70339e-10
5.70727e-10
5.71075e-10
5.71386e-10
5.71659e-10
5.71899e-10
5.72107e-10
5.72286e-10
5.72437e-10
5.72564e-10
5.72668e-10
5.72753e-10
5.72821e-10
5.72874e-10
5.72914e-10
5.72943e-10
5.72962e-10
5.72974e-10
5.7298e-10
5.72983e-10
5.72985e-10
5.72989e-10
5.72994e-10
5.73018e-10
5.73058e-10
5.7316e-10
5.73316e-10
5.73682e-10
5.74201e-10
5.75348e-10
5.77104e-10
5.80598e-10
5.86266e-10
5.9662e-10
6.13526e-10
6.4055e-10
6.82178e-10
7.31526e-10
)
;

boundaryField
{
    inlet
    {
        type            calculated;
        value           uniform 0;
    }
    outlet
    {
        type            calculated;
        value           uniform 7.94946e-10;
    }
    emptyWalls
    {
        type            empty;
        value           nonuniform List<scalar> 0();
    }
}


// ************************************************************************* //
