/*--------------------------------*- C++ -*----------------------------------*\
  =========                 |
  \\      /  F ield         | OpenFOAM: The Open Source CFD Toolbox
   \\    /   O peration     | Website:  https://openfoam.org
    \\  /    A nd           | Version:  9
     \\/     M anipulation  |
\*---------------------------------------------------------------------------*/
FoamFile
{
    format      ascii;
    class       volVectorField;
    location    "24850";
    object      Uc;
}
// * * * * * * * * * * * * * * * * * * * * * * * * * * * * * * * * * * * * * //

dimensions      [0 0 0 0 0 0 0];

internalField   nonuniform List<vector> 
1000
(
(4.21003e-12 0 0)
(2.15751e-11 0 0)
(5.99646e-11 0 0)
(1.21978e-10 0 0)
(2.06863e-10 0 0)
(3.14341e-10 0 0)
(4.44385e-10 0 0)
(5.97075e-10 0 0)
(7.72487e-10 0 0)
(9.70717e-10 0 0)
(1.1917e-09 0 0)
(1.43522e-09 0 0)
(1.70086e-09 0 0)
(1.98778e-09 0 0)
(2.2948e-09 0 0)
(2.62014e-09 0 0)
(2.96137e-09 0 0)
(3.31537e-09 0 0)
(3.67817e-09 0 0)
(4.04511e-09 0 0)
(4.41087e-09 0 0)
(4.76992e-09 0 0)
(5.1166e-09 0 0)
(5.44597e-09 0 0)
(5.75391e-09 0 0)
(6.03748e-09 0 0)
(6.29547e-09 0 0)
(6.52771e-09 0 0)
(6.73653e-09 0 0)
(6.92996e-09 0 0)
(7.14113e-09 0 0)
(7.52059e-09 0 0)
(8.73379e-09 0 0)
(1.3202e-08 0 0)
(3.43166e-08 0 0)
(1.12974e-07 0 0)
(1.89049e-07 0 0)
(2.08362e-07 0 0)
(2.14625e-07 0 0)
(2.17807e-07 0 0)
(2.19927e-07 0 0)
(2.21574e-07 0 0)
(2.2297e-07 0 0)
(2.24216e-07 0 0)
(2.25362e-07 0 0)
(2.26437e-07 0 0)
(2.27458e-07 0 0)
(2.28437e-07 0 0)
(2.29383e-07 0 0)
(2.30302e-07 0 0)
(2.31196e-07 0 0)
(2.32066e-07 0 0)
(2.32914e-07 0 0)
(2.33742e-07 0 0)
(2.34553e-07 0 0)
(2.35353e-07 0 0)
(2.36145e-07 0 0)
(2.36929e-07 0 0)
(2.37705e-07 0 0)
(2.38472e-07 0 0)
(2.3923e-07 0 0)
(2.39969e-07 0 0)
(2.40682e-07 0 0)
(2.41379e-07 0 0)
(2.42063e-07 0 0)
(2.42738e-07 0 0)
(2.43411e-07 0 0)
(2.44091e-07 0 0)
(2.44782e-07 0 0)
(2.4549e-07 0 0)
(2.46217e-07 0 0)
(2.4696e-07 0 0)
(2.47721e-07 0 0)
(2.48501e-07 0 0)
(2.49302e-07 0 0)
(2.50143e-07 0 0)
(2.51024e-07 0 0)
(2.51928e-07 0 0)
(2.52852e-07 0 0)
(2.53793e-07 0 0)
(2.5475e-07 0 0)
(2.55723e-07 0 0)
(2.56712e-07 0 0)
(2.57719e-07 0 0)
(2.58747e-07 0 0)
(2.59803e-07 0 0)
(2.60891e-07 0 0)
(2.6202e-07 0 0)
(2.63201e-07 0 0)
(2.64448e-07 0 0)
(2.65779e-07 0 0)
(2.6722e-07 0 0)
(2.688e-07 0 0)
(2.70557e-07 0 0)
(2.72531e-07 0 0)
(2.74759e-07 0 0)
(2.77265e-07 0 0)
(2.80048e-07 0 0)
(2.83082e-07 0 0)
(2.86318e-07 0 0)
(2.89709e-07 0 0)
(2.93216e-07 0 0)
(2.96814e-07 0 0)
(3.00482e-07 0 0)
(3.04207e-07 0 0)
(3.07978e-07 0 0)
(3.11788e-07 0 0)
(3.15631e-07 0 0)
(3.19502e-07 0 0)
(3.23398e-07 0 0)
(3.27316e-07 0 0)
(3.31253e-07 0 0)
(3.35209e-07 0 0)
(3.39181e-07 0 0)
(3.43168e-07 0 0)
(3.4717e-07 0 0)
(3.51185e-07 0 0)
(3.55212e-07 0 0)
(3.59252e-07 0 0)
(3.63303e-07 0 0)
(3.67364e-07 0 0)
(3.71437e-07 0 0)
(3.75519e-07 0 0)
(3.7961e-07 0 0)
(3.83712e-07 0 0)
(3.87822e-07 0 0)
(3.91941e-07 0 0)
(3.96068e-07 0 0)
(4.00204e-07 0 0)
(4.04348e-07 0 0)
(4.08501e-07 0 0)
(4.12661e-07 0 0)
(4.16829e-07 0 0)
(4.21004e-07 0 0)
(4.25187e-07 0 0)
(4.29377e-07 0 0)
(4.33574e-07 0 0)
(4.37777e-07 0 0)
(4.41987e-07 0 0)
(4.46204e-07 0 0)
(4.50427e-07 0 0)
(4.54657e-07 0 0)
(4.58893e-07 0 0)
(4.63136e-07 0 0)
(4.67385e-07 0 0)
(4.71641e-07 0 0)
(4.75904e-07 0 0)
(4.80173e-07 0 0)
(4.84448e-07 0 0)
(4.88729e-07 0 0)
(4.93016e-07 0 0)
(4.97309e-07 0 0)
(5.01607e-07 0 0)
(5.0591e-07 0 0)
(5.10218e-07 0 0)
(5.14531e-07 0 0)
(5.1885e-07 0 0)
(5.23174e-07 0 0)
(5.27504e-07 0 0)
(5.3184e-07 0 0)
(5.36181e-07 0 0)
(5.40529e-07 0 0)
(5.44884e-07 0 0)
(5.49245e-07 0 0)
(5.53612e-07 0 0)
(5.57985e-07 0 0)
(5.62362e-07 0 0)
(5.66741e-07 0 0)
(5.71122e-07 0 0)
(5.75503e-07 0 0)
(5.79881e-07 0 0)
(5.84257e-07 0 0)
(5.88629e-07 0 0)
(5.92996e-07 0 0)
(5.9736e-07 0 0)
(6.01721e-07 0 0)
(6.06078e-07 0 0)
(6.10434e-07 0 0)
(6.1479e-07 0 0)
(6.19146e-07 0 0)
(6.23505e-07 0 0)
(6.27868e-07 0 0)
(6.32237e-07 0 0)
(6.36615e-07 0 0)
(6.41004e-07 0 0)
(6.45405e-07 0 0)
(6.49822e-07 0 0)
(6.54257e-07 0 0)
(6.58711e-07 0 0)
(6.63185e-07 0 0)
(6.67681e-07 0 0)
(6.72198e-07 0 0)
(6.76736e-07 0 0)
(6.81293e-07 0 0)
(6.85868e-07 0 0)
(6.90458e-07 0 0)
(6.95061e-07 0 0)
(6.99673e-07 0 0)
(7.04293e-07 0 0)
(7.08916e-07 0 0)
(7.13541e-07 0 0)
(7.18166e-07 0 0)
(7.2279e-07 0 0)
(7.2741e-07 0 0)
(7.32026e-07 0 0)
(7.36639e-07 0 0)
(7.41248e-07 0 0)
(7.45853e-07 0 0)
(7.50455e-07 0 0)
(7.55055e-07 0 0)
(7.59654e-07 0 0)
(7.64252e-07 0 0)
(7.68852e-07 0 0)
(7.73453e-07 0 0)
(7.78056e-07 0 0)
(7.82662e-07 0 0)
(7.87273e-07 0 0)
(7.91887e-07 0 0)
(7.96506e-07 0 0)
(8.01131e-07 0 0)
(8.0576e-07 0 0)
(8.10395e-07 0 0)
(8.15035e-07 0 0)
(8.1968e-07 0 0)
(8.24331e-07 0 0)
(8.28987e-07 0 0)
(8.33648e-07 0 0)
(8.38313e-07 0 0)
(8.42984e-07 0 0)
(8.47659e-07 0 0)
(8.52338e-07 0 0)
(8.57022e-07 0 0)
(8.61709e-07 0 0)
(8.66401e-07 0 0)
(8.71097e-07 0 0)
(8.75796e-07 0 0)
(8.805e-07 0 0)
(8.85207e-07 0 0)
(8.89917e-07 0 0)
(8.94631e-07 0 0)
(8.99349e-07 0 0)
(9.0407e-07 0 0)
(9.08794e-07 0 0)
(9.13522e-07 0 0)
(9.18253e-07 0 0)
(9.22987e-07 0 0)
(9.27725e-07 0 0)
(9.32466e-07 0 0)
(9.37209e-07 0 0)
(9.41956e-07 0 0)
(9.46707e-07 0 0)
(9.5146e-07 0 0)
(9.56216e-07 0 0)
(9.60976e-07 0 0)
(9.65738e-07 0 0)
(9.70504e-07 0 0)
(9.75272e-07 0 0)
(9.80044e-07 0 0)
(9.84819e-07 0 0)
(9.89596e-07 0 0)
(9.94376e-07 0 0)
(9.99159e-07 0 0)
(1.00395e-06 0 0)
(1.00873e-06 0 0)
(1.01353e-06 0 0)
(1.01832e-06 0 0)
(1.02312e-06 0 0)
(1.02792e-06 0 0)
(1.03272e-06 0 0)
(1.03753e-06 0 0)
(1.04233e-06 0 0)
(1.04715e-06 0 0)
(1.05196e-06 0 0)
(1.05678e-06 0 0)
(1.0616e-06 0 0)
(1.06642e-06 0 0)
(1.07125e-06 0 0)
(1.07608e-06 0 0)
(1.08092e-06 0 0)
(1.08575e-06 0 0)
(1.09059e-06 0 0)
(1.09543e-06 0 0)
(1.10027e-06 0 0)
(1.10512e-06 0 0)
(1.10997e-06 0 0)
(1.11482e-06 0 0)
(1.11968e-06 0 0)
(1.12454e-06 0 0)
(1.1294e-06 0 0)
(1.13427e-06 0 0)
(1.13914e-06 0 0)
(1.14402e-06 0 0)
(1.14889e-06 0 0)
(1.15377e-06 0 0)
(1.15866e-06 0 0)
(1.16354e-06 0 0)
(1.16842e-06 0 0)
(1.1733e-06 0 0)
(1.17819e-06 0 0)
(1.18306e-06 0 0)
(1.18794e-06 0 0)
(1.19281e-06 0 0)
(1.19767e-06 0 0)
(1.20254e-06 0 0)
(1.20739e-06 0 0)
(1.21224e-06 0 0)
(1.21708e-06 0 0)
(1.22192e-06 0 0)
(1.22675e-06 0 0)
(1.23158e-06 0 0)
(1.23641e-06 0 0)
(1.24123e-06 0 0)
(1.24605e-06 0 0)
(1.25088e-06 0 0)
(1.25571e-06 0 0)
(1.26054e-06 0 0)
(1.26539e-06 0 0)
(1.27024e-06 0 0)
(1.27511e-06 0 0)
(1.27999e-06 0 0)
(1.28488e-06 0 0)
(1.2898e-06 0 0)
(1.29473e-06 0 0)
(1.29968e-06 0 0)
(1.30466e-06 0 0)
(1.30966e-06 0 0)
(1.31468e-06 0 0)
(1.31971e-06 0 0)
(1.32477e-06 0 0)
(1.32985e-06 0 0)
(1.33495e-06 0 0)
(1.34005e-06 0 0)
(1.34517e-06 0 0)
(1.35031e-06 0 0)
(1.35544e-06 0 0)
(1.36059e-06 0 0)
(1.36573e-06 0 0)
(1.37088e-06 0 0)
(1.37603e-06 0 0)
(1.38117e-06 0 0)
(1.38631e-06 0 0)
(1.39145e-06 0 0)
(1.39659e-06 0 0)
(1.40171e-06 0 0)
(1.40684e-06 0 0)
(1.41196e-06 0 0)
(1.41708e-06 0 0)
(1.42219e-06 0 0)
(1.4273e-06 0 0)
(1.43241e-06 0 0)
(1.43752e-06 0 0)
(1.44262e-06 0 0)
(1.44773e-06 0 0)
(1.45284e-06 0 0)
(1.45795e-06 0 0)
(1.46306e-06 0 0)
(1.46817e-06 0 0)
(1.47329e-06 0 0)
(1.47841e-06 0 0)
(1.48354e-06 0 0)
(1.48867e-06 0 0)
(1.4938e-06 0 0)
(1.49894e-06 0 0)
(1.50408e-06 0 0)
(1.50923e-06 0 0)
(1.51438e-06 0 0)
(1.51954e-06 0 0)
(1.5247e-06 0 0)
(1.52987e-06 0 0)
(1.53504e-06 0 0)
(1.54021e-06 0 0)
(1.54539e-06 0 0)
(1.55057e-06 0 0)
(1.55575e-06 0 0)
(1.56094e-06 0 0)
(1.56614e-06 0 0)
(1.57133e-06 0 0)
(1.57653e-06 0 0)
(1.58174e-06 0 0)
(1.58694e-06 0 0)
(1.59215e-06 0 0)
(1.59737e-06 0 0)
(1.60258e-06 0 0)
(1.6078e-06 0 0)
(1.61302e-06 0 0)
(1.61825e-06 0 0)
(1.62348e-06 0 0)
(1.62871e-06 0 0)
(1.63394e-06 0 0)
(1.63918e-06 0 0)
(1.64442e-06 0 0)
(1.64966e-06 0 0)
(1.65491e-06 0 0)
(1.66016e-06 0 0)
(1.66541e-06 0 0)
(1.67066e-06 0 0)
(1.67592e-06 0 0)
(1.68118e-06 0 0)
(1.68644e-06 0 0)
(1.6917e-06 0 0)
(1.69697e-06 0 0)
(1.70224e-06 0 0)
(1.70751e-06 0 0)
(1.71279e-06 0 0)
(1.71806e-06 0 0)
(1.72334e-06 0 0)
(1.72863e-06 0 0)
(1.73391e-06 0 0)
(1.7392e-06 0 0)
(1.74449e-06 0 0)
(1.74978e-06 0 0)
(1.75508e-06 0 0)
(1.76038e-06 0 0)
(1.76568e-06 0 0)
(1.77099e-06 0 0)
(1.7763e-06 0 0)
(1.78161e-06 0 0)
(1.78692e-06 0 0)
(1.79224e-06 0 0)
(1.79756e-06 0 0)
(1.80288e-06 0 0)
(1.8082e-06 0 0)
(1.81353e-06 0 0)
(1.81887e-06 0 0)
(1.8242e-06 0 0)
(1.82954e-06 0 0)
(1.83488e-06 0 0)
(1.84022e-06 0 0)
(1.84557e-06 0 0)
(1.85092e-06 0 0)
(1.85628e-06 0 0)
(1.86164e-06 0 0)
(1.867e-06 0 0)
(1.87236e-06 0 0)
(1.87773e-06 0 0)
(1.8831e-06 0 0)
(1.88847e-06 0 0)
(1.89384e-06 0 0)
(1.89922e-06 0 0)
(1.90459e-06 0 0)
(1.90997e-06 0 0)
(1.91534e-06 0 0)
(1.92072e-06 0 0)
(1.92609e-06 0 0)
(1.93146e-06 0 0)
(1.93682e-06 0 0)
(1.94219e-06 0 0)
(1.94754e-06 0 0)
(1.9529e-06 0 0)
(1.95824e-06 0 0)
(1.96359e-06 0 0)
(1.96892e-06 0 0)
(1.97426e-06 0 0)
(1.97958e-06 0 0)
(1.98491e-06 0 0)
(1.99023e-06 0 0)
(1.99554e-06 0 0)
(2.00086e-06 0 0)
(2.00618e-06 0 0)
(2.0115e-06 0 0)
(2.01682e-06 0 0)
(2.02214e-06 0 0)
(2.02747e-06 0 0)
(2.03281e-06 0 0)
(2.03816e-06 0 0)
(2.04352e-06 0 0)
(2.0489e-06 0 0)
(2.05429e-06 0 0)
(2.05969e-06 0 0)
(2.06512e-06 0 0)
(2.07056e-06 0 0)
(2.07603e-06 0 0)
(2.08152e-06 0 0)
(2.08703e-06 0 0)
(2.09256e-06 0 0)
(2.09811e-06 0 0)
(2.10369e-06 0 0)
(2.10929e-06 0 0)
(2.1149e-06 0 0)
(2.12054e-06 0 0)
(2.12619e-06 0 0)
(2.13186e-06 0 0)
(2.13754e-06 0 0)
(2.14324e-06 0 0)
(2.14894e-06 0 0)
(2.15465e-06 0 0)
(2.16037e-06 0 0)
(2.1661e-06 0 0)
(2.17182e-06 0 0)
(2.17755e-06 0 0)
(2.18328e-06 0 0)
(2.18901e-06 0 0)
(2.19473e-06 0 0)
(2.20046e-06 0 0)
(2.20618e-06 0 0)
(2.2119e-06 0 0)
(2.21761e-06 0 0)
(2.22333e-06 0 0)
(2.22904e-06 0 0)
(2.23474e-06 0 0)
(2.24045e-06 0 0)
(2.24616e-06 0 0)
(2.25186e-06 0 0)
(2.25756e-06 0 0)
(2.26327e-06 0 0)
(2.26897e-06 0 0)
(2.27468e-06 0 0)
(2.28039e-06 0 0)
(2.2861e-06 0 0)
(2.29182e-06 0 0)
(2.29754e-06 0 0)
(2.30326e-06 0 0)
(2.30899e-06 0 0)
(2.31472e-06 0 0)
(2.32045e-06 0 0)
(2.32619e-06 0 0)
(2.33194e-06 0 0)
(2.33769e-06 0 0)
(2.34345e-06 0 0)
(2.34921e-06 0 0)
(2.35498e-06 0 0)
(2.36075e-06 0 0)
(2.36653e-06 0 0)
(2.37231e-06 0 0)
(2.3781e-06 0 0)
(2.3839e-06 0 0)
(2.3897e-06 0 0)
(2.3955e-06 0 0)
(2.40131e-06 0 0)
(2.40713e-06 0 0)
(2.41294e-06 0 0)
(2.41877e-06 0 0)
(2.4246e-06 0 0)
(2.43043e-06 0 0)
(2.43627e-06 0 0)
(2.44211e-06 0 0)
(2.44795e-06 0 0)
(2.4538e-06 0 0)
(2.45966e-06 0 0)
(2.46552e-06 0 0)
(2.47138e-06 0 0)
(2.47725e-06 0 0)
(2.48312e-06 0 0)
(2.48899e-06 0 0)
(2.49487e-06 0 0)
(2.50075e-06 0 0)
(2.50664e-06 0 0)
(2.51253e-06 0 0)
(2.51842e-06 0 0)
(2.52432e-06 0 0)
(2.53023e-06 0 0)
(2.53613e-06 0 0)
(2.54204e-06 0 0)
(2.54795e-06 0 0)
(2.55387e-06 0 0)
(2.55979e-06 0 0)
(2.56572e-06 0 0)
(2.57165e-06 0 0)
(2.57758e-06 0 0)
(2.58351e-06 0 0)
(2.58945e-06 0 0)
(2.5954e-06 0 0)
(2.60135e-06 0 0)
(2.6073e-06 0 0)
(2.61325e-06 0 0)
(2.61921e-06 0 0)
(2.62518e-06 0 0)
(2.63115e-06 0 0)
(2.63712e-06 0 0)
(2.64309e-06 0 0)
(2.64907e-06 0 0)
(2.65506e-06 0 0)
(2.66105e-06 0 0)
(2.66704e-06 0 0)
(2.67304e-06 0 0)
(2.67904e-06 0 0)
(2.68505e-06 0 0)
(2.69106e-06 0 0)
(2.69707e-06 0 0)
(2.70309e-06 0 0)
(2.70912e-06 0 0)
(2.71515e-06 0 0)
(2.72118e-06 0 0)
(2.72722e-06 0 0)
(2.73326e-06 0 0)
(2.73931e-06 0 0)
(2.74537e-06 0 0)
(2.75142e-06 0 0)
(2.75749e-06 0 0)
(2.76355e-06 0 0)
(2.76962e-06 0 0)
(2.7757e-06 0 0)
(2.78177e-06 0 0)
(2.78785e-06 0 0)
(2.79394e-06 0 0)
(2.80002e-06 0 0)
(2.80611e-06 0 0)
(2.8122e-06 0 0)
(2.81829e-06 0 0)
(2.82438e-06 0 0)
(2.83047e-06 0 0)
(2.83656e-06 0 0)
(2.84264e-06 0 0)
(2.84873e-06 0 0)
(2.85482e-06 0 0)
(2.8609e-06 0 0)
(2.86698e-06 0 0)
(2.87305e-06 0 0)
(2.87913e-06 0 0)
(2.8852e-06 0 0)
(2.89127e-06 0 0)
(2.89733e-06 0 0)
(2.9034e-06 0 0)
(2.90946e-06 0 0)
(2.91552e-06 0 0)
(2.92159e-06 0 0)
(2.92765e-06 0 0)
(2.93372e-06 0 0)
(2.93979e-06 0 0)
(2.94586e-06 0 0)
(2.95194e-06 0 0)
(2.95803e-06 0 0)
(2.96412e-06 0 0)
(2.97023e-06 0 0)
(2.97634e-06 0 0)
(2.98248e-06 0 0)
(2.98862e-06 0 0)
(2.99478e-06 0 0)
(3.00097e-06 0 0)
(3.00717e-06 0 0)
(3.01339e-06 0 0)
(3.01963e-06 0 0)
(3.0259e-06 0 0)
(3.03218e-06 0 0)
(3.0385e-06 0 0)
(3.04484e-06 0 0)
(3.0512e-06 0 0)
(3.05759e-06 0 0)
(3.064e-06 0 0)
(3.07043e-06 0 0)
(3.07689e-06 0 0)
(3.08337e-06 0 0)
(3.08987e-06 0 0)
(3.0964e-06 0 0)
(3.10294e-06 0 0)
(3.10949e-06 0 0)
(3.11607e-06 0 0)
(3.12265e-06 0 0)
(3.12925e-06 0 0)
(3.13586e-06 0 0)
(3.14248e-06 0 0)
(3.14911e-06 0 0)
(3.15574e-06 0 0)
(3.16238e-06 0 0)
(3.16902e-06 0 0)
(3.17567e-06 0 0)
(3.18231e-06 0 0)
(3.18896e-06 0 0)
(3.19562e-06 0 0)
(3.20227e-06 0 0)
(3.20892e-06 0 0)
(3.21558e-06 0 0)
(3.22223e-06 0 0)
(3.22889e-06 0 0)
(3.23555e-06 0 0)
(3.2422e-06 0 0)
(3.24886e-06 0 0)
(3.25553e-06 0 0)
(3.26219e-06 0 0)
(3.26886e-06 0 0)
(3.27553e-06 0 0)
(3.28221e-06 0 0)
(3.28889e-06 0 0)
(3.29558e-06 0 0)
(3.30227e-06 0 0)
(3.30896e-06 0 0)
(3.31567e-06 0 0)
(3.32238e-06 0 0)
(3.32909e-06 0 0)
(3.33582e-06 0 0)
(3.34255e-06 0 0)
(3.34929e-06 0 0)
(3.35604e-06 0 0)
(3.36279e-06 0 0)
(3.36956e-06 0 0)
(3.37633e-06 0 0)
(3.38311e-06 0 0)
(3.3899e-06 0 0)
(3.3967e-06 0 0)
(3.40351e-06 0 0)
(3.41032e-06 0 0)
(3.41714e-06 0 0)
(3.42398e-06 0 0)
(3.43082e-06 0 0)
(3.43767e-06 0 0)
(3.44452e-06 0 0)
(3.45139e-06 0 0)
(3.45827e-06 0 0)
(3.46515e-06 0 0)
(3.47204e-06 0 0)
(3.47894e-06 0 0)
(3.48585e-06 0 0)
(3.49276e-06 0 0)
(3.49968e-06 0 0)
(3.50662e-06 0 0)
(3.51356e-06 0 0)
(3.5205e-06 0 0)
(3.52746e-06 0 0)
(3.53442e-06 0 0)
(3.54139e-06 0 0)
(3.54837e-06 0 0)
(3.55536e-06 0 0)
(3.56235e-06 0 0)
(3.56936e-06 0 0)
(3.57637e-06 0 0)
(3.58339e-06 0 0)
(3.59041e-06 0 0)
(3.59745e-06 0 0)
(3.60449e-06 0 0)
(3.61154e-06 0 0)
(3.6186e-06 0 0)
(3.62566e-06 0 0)
(3.63273e-06 0 0)
(3.63982e-06 0 0)
(3.64691e-06 0 0)
(3.654e-06 0 0)
(3.66111e-06 0 0)
(3.66823e-06 0 0)
(3.67535e-06 0 0)
(3.68248e-06 0 0)
(3.68962e-06 0 0)
(3.69677e-06 0 0)
(3.70392e-06 0 0)
(3.71109e-06 0 0)
(3.71826e-06 0 0)
(3.72544e-06 0 0)
(3.73263e-06 0 0)
(3.73983e-06 0 0)
(3.74704e-06 0 0)
(3.75426e-06 0 0)
(3.76149e-06 0 0)
(3.76872e-06 0 0)
(3.77597e-06 0 0)
(3.78322e-06 0 0)
(3.79049e-06 0 0)
(3.79776e-06 0 0)
(3.80505e-06 0 0)
(3.81234e-06 0 0)
(3.81964e-06 0 0)
(3.82695e-06 0 0)
(3.83428e-06 0 0)
(3.84161e-06 0 0)
(3.84895e-06 0 0)
(3.8563e-06 0 0)
(3.86366e-06 0 0)
(3.87103e-06 0 0)
(3.87842e-06 0 0)
(3.88581e-06 0 0)
(3.89321e-06 0 0)
(3.90061e-06 0 0)
(3.90803e-06 0 0)
(3.91546e-06 0 0)
(3.92289e-06 0 0)
(3.93034e-06 0 0)
(3.93779e-06 0 0)
(3.94525e-06 0 0)
(3.95271e-06 0 0)
(3.96018e-06 0 0)
(3.96766e-06 0 0)
(3.97514e-06 0 0)
(3.98263e-06 0 0)
(3.99013e-06 0 0)
(3.99763e-06 0 0)
(4.00513e-06 0 0)
(4.01264e-06 0 0)
(4.02015e-06 0 0)
(4.02767e-06 0 0)
(4.03519e-06 0 0)
(4.04272e-06 0 0)
(4.05025e-06 0 0)
(4.05778e-06 0 0)
(4.06532e-06 0 0)
(4.07286e-06 0 0)
(4.08041e-06 0 0)
(4.08797e-06 0 0)
(4.09553e-06 0 0)
(4.1031e-06 0 0)
(4.11068e-06 0 0)
(4.11827e-06 0 0)
(4.12586e-06 0 0)
(4.13347e-06 0 0)
(4.14109e-06 0 0)
(4.14873e-06 0 0)
(4.15638e-06 0 0)
(4.16405e-06 0 0)
(4.17174e-06 0 0)
(4.17944e-06 0 0)
(4.18717e-06 0 0)
(4.19492e-06 0 0)
(4.20269e-06 0 0)
(4.21049e-06 0 0)
(4.21831e-06 0 0)
(4.22616e-06 0 0)
(4.23404e-06 0 0)
(4.24195e-06 0 0)
(4.2499e-06 0 0)
(4.25787e-06 0 0)
(4.26588e-06 0 0)
(4.27392e-06 0 0)
(4.28199e-06 0 0)
(4.2901e-06 0 0)
(4.29824e-06 0 0)
(4.30642e-06 0 0)
(4.31463e-06 0 0)
(4.32287e-06 0 0)
(4.33115e-06 0 0)
(4.33945e-06 0 0)
(4.34779e-06 0 0)
(4.35616e-06 0 0)
(4.36456e-06 0 0)
(4.37298e-06 0 0)
(4.38143e-06 0 0)
(4.38991e-06 0 0)
(4.39841e-06 0 0)
(4.40693e-06 0 0)
(4.41548e-06 0 0)
(4.42404e-06 0 0)
(4.43263e-06 0 0)
(4.44123e-06 0 0)
(4.44985e-06 0 0)
(4.45848e-06 0 0)
(4.46713e-06 0 0)
(4.47579e-06 0 0)
(4.48447e-06 0 0)
(4.49316e-06 0 0)
(4.50187e-06 0 0)
(4.51059e-06 0 0)
(4.51932e-06 0 0)
(4.52806e-06 0 0)
(4.53682e-06 0 0)
(4.54558e-06 0 0)
(4.55437e-06 0 0)
(4.56316e-06 0 0)
(4.57197e-06 0 0)
(4.5808e-06 0 0)
(4.58964e-06 0 0)
(4.59849e-06 0 0)
(4.60736e-06 0 0)
(4.61625e-06 0 0)
(4.62515e-06 0 0)
(4.63407e-06 0 0)
(4.64301e-06 0 0)
(4.65196e-06 0 0)
(4.66094e-06 0 0)
(4.66993e-06 0 0)
(4.67895e-06 0 0)
(4.68798e-06 0 0)
(4.69704e-06 0 0)
(4.70612e-06 0 0)
(4.71521e-06 0 0)
(4.72433e-06 0 0)
(4.73348e-06 0 0)
(4.74264e-06 0 0)
(4.75183e-06 0 0)
(4.76104e-06 0 0)
(4.77028e-06 0 0)
(4.77953e-06 0 0)
(4.78881e-06 0 0)
(4.79812e-06 0 0)
(4.80745e-06 0 0)
(4.8168e-06 0 0)
(4.82618e-06 0 0)
(4.83559e-06 0 0)
(4.84501e-06 0 0)
(4.85447e-06 0 0)
(4.86394e-06 0 0)
(4.87345e-06 0 0)
(4.88297e-06 0 0)
(4.89253e-06 0 0)
(4.90211e-06 0 0)
(4.91171e-06 0 0)
(4.92134e-06 0 0)
(4.931e-06 0 0)
(4.94068e-06 0 0)
(4.95039e-06 0 0)
(4.96012e-06 0 0)
(4.96988e-06 0 0)
(4.97967e-06 0 0)
(4.98949e-06 0 0)
(4.99933e-06 0 0)
(5.00919e-06 0 0)
(5.01909e-06 0 0)
(5.02901e-06 0 0)
(5.03896e-06 0 0)
(5.04894e-06 0 0)
(5.05894e-06 0 0)
(5.06897e-06 0 0)
(5.07903e-06 0 0)
(5.08912e-06 0 0)
(5.09924e-06 0 0)
(5.10938e-06 0 0)
(5.11955e-06 0 0)
(5.12975e-06 0 0)
(5.13998e-06 0 0)
(5.15024e-06 0 0)
(5.16052e-06 0 0)
(5.17084e-06 0 0)
(5.18118e-06 0 0)
(5.19155e-06 0 0)
(5.20195e-06 0 0)
(5.21237e-06 0 0)
(5.22283e-06 0 0)
(5.23331e-06 0 0)
(5.24382e-06 0 0)
(5.25436e-06 0 0)
(5.26492e-06 0 0)
(5.27551e-06 0 0)
(5.28613e-06 0 0)
(5.29677e-06 0 0)
(5.30743e-06 0 0)
(5.31812e-06 0 0)
(5.32883e-06 0 0)
(5.33957e-06 0 0)
(5.35032e-06 0 0)
(5.36109e-06 0 0)
(5.37187e-06 0 0)
(5.38267e-06 0 0)
(5.39348e-06 0 0)
(5.4043e-06 0 0)
(5.41513e-06 0 0)
(5.42595e-06 0 0)
(5.43678e-06 0 0)
(5.44759e-06 0 0)
(5.45839e-06 0 0)
(5.46917e-06 0 0)
(5.47992e-06 0 0)
(5.49063e-06 0 0)
(5.50131e-06 0 0)
(5.51192e-06 0 0)
(5.52247e-06 0 0)
(5.53293e-06 0 0)
(5.54331e-06 0 0)
(5.55357e-06 0 0)
(5.56371e-06 0 0)
(5.5737e-06 0 0)
(5.58353e-06 0 0)
(5.59318e-06 0 0)
(5.60261e-06 0 0)
(5.61183e-06 0 0)
(5.62079e-06 0 0)
(5.62947e-06 0 0)
(5.63785e-06 0 0)
(5.64591e-06 0 0)
(5.65363e-06 0 0)
(5.66099e-06 0 0)
(5.66797e-06 0 0)
(5.67456e-06 0 0)
(5.68074e-06 0 0)
(5.68649e-06 0 0)
(5.69183e-06 0 0)
(5.69675e-06 0 0)
(5.70125e-06 0 0)
(5.70533e-06 0 0)
(5.70901e-06 0 0)
(5.71231e-06 0 0)
(5.71523e-06 0 0)
(5.71779e-06 0 0)
(5.72003e-06 0 0)
(5.72196e-06 0 0)
(5.72361e-06 0 0)
(5.725e-06 0 0)
(5.72616e-06 0 0)
(5.7271e-06 0 0)
(5.72787e-06 0 0)
(5.72847e-06 0 0)
(5.72894e-06 0 0)
(5.72928e-06 0 0)
(5.72952e-06 0 0)
(5.72968e-06 0 0)
(5.72977e-06 0 0)
(5.72982e-06 0 0)
(5.72984e-06 0 0)
(5.72987e-06 0 0)
(5.72991e-06 0 0)
(5.73006e-06 0 0)
(5.73038e-06 0 0)
(5.73109e-06 0 0)
(5.73238e-06 0 0)
(5.73499e-06 0 0)
(5.73941e-06 0 0)
(5.74774e-06 0 0)
(5.76226e-06 0 0)
(5.78851e-06 0 0)
(5.83432e-06 0 0)
(5.91443e-06 0 0)
(6.05073e-06 0 0)
(6.27038e-06 0 0)
(6.61364e-06 0 0)
(7.06852e-06 0 0)
(7.63236e-06 0 0)
)
;

boundaryField
{
    inlet
    {
        type            fixedValue;
        value           uniform (0 0 0);
    }
    outlet
    {
        type            zeroGradient;
    }
    emptyWalls
    {
        type            empty;
    }
}


// ************************************************************************* //
