/*--------------------------------*- C++ -*----------------------------------*\
  =========                 |
  \\      /  F ield         | OpenFOAM: The Open Source CFD Toolbox
   \\    /   O peration     | Website:  https://openfoam.org
    \\  /    A nd           | Version:  9
     \\/     M anipulation  |
\*---------------------------------------------------------------------------*/
FoamFile
{
    format      ascii;
    class       surfaceScalarField;
    location    "2250";
    object      phic;
}
// * * * * * * * * * * * * * * * * * * * * * * * * * * * * * * * * * * * * * //

dimensions      [0 2 0 0 0 0 0];

internalField   nonuniform List<scalar> 
999
(
3.62883e-13
2.3667e-12
1.27652e-11
2.11041e-11
2.29569e-11
2.4107e-11
2.52822e-11
2.74124e-11
3.08068e-11
3.47214e-11
3.89434e-11
4.33602e-11
4.79152e-11
5.25767e-11
5.73252e-11
6.2149e-11
6.70398e-11
7.19927e-11
7.70043e-11
8.20712e-11
8.71918e-11
9.23635e-11
9.75846e-11
1.02854e-10
1.08169e-10
1.1353e-10
1.18935e-10
1.24385e-10
1.29877e-10
1.35412e-10
1.4099e-10
1.46611e-10
1.52274e-10
1.57981e-10
1.63733e-10
1.69529e-10
1.7537e-10
1.81257e-10
1.87191e-10
1.93173e-10
1.99203e-10
2.05283e-10
2.11413e-10
2.17596e-10
2.23832e-10
2.30122e-10
2.36469e-10
2.42873e-10
2.49337e-10
2.55861e-10
2.62449e-10
2.69101e-10
2.7582e-10
2.82608e-10
2.89468e-10
2.96402e-10
3.03412e-10
3.10502e-10
3.17675e-10
3.24935e-10
3.32286e-10
3.39731e-10
3.47277e-10
3.54927e-10
3.62687e-10
3.70563e-10
3.78559e-10
3.86681e-10
3.94936e-10
4.03331e-10
4.11874e-10
4.20572e-10
4.29433e-10
4.38462e-10
4.47665e-10
4.57043e-10
4.66595e-10
4.76316e-10
4.86194e-10
4.96215e-10
5.06382e-10
5.16747e-10
5.27479e-10
5.39008e-10
5.52233e-10
5.68832e-10
5.91547e-10
6.24073e-10
6.6977e-10
7.28584e-10
7.93968e-10
8.54508e-10
9.01047e-10
9.316e-10
9.49496e-10
9.5924e-10
9.64316e-10
9.66891e-10
9.68176e-10
9.6881e-10
9.69121e-10
9.69274e-10
9.69351e-10
9.69391e-10
9.69415e-10
9.69432e-10
9.69446e-10
9.69461e-10
9.69476e-10
9.69493e-10
9.6951e-10
9.69528e-10
9.69547e-10
9.69567e-10
9.69586e-10
9.69605e-10
9.69623e-10
9.6964e-10
9.69656e-10
9.6967e-10
9.69683e-10
9.69693e-10
9.69702e-10
9.69708e-10
9.69711e-10
9.69712e-10
9.69712e-10
9.69712e-10
9.6971e-10
9.69704e-10
9.69696e-10
9.69687e-10
9.69676e-10
9.69664e-10
9.69651e-10
9.69638e-10
9.69623e-10
9.69608e-10
9.69591e-10
9.69573e-10
9.69554e-10
9.69534e-10
9.69512e-10
9.69489e-10
9.69462e-10
9.69433e-10
9.69399e-10
9.69361e-10
9.69318e-10
9.69268e-10
9.69211e-10
9.69146e-10
9.69072e-10
9.68988e-10
9.68893e-10
9.68787e-10
9.6867e-10
9.68542e-10
9.68402e-10
9.6825e-10
9.68087e-10
9.67913e-10
9.67729e-10
9.67536e-10
9.67335e-10
9.67129e-10
9.66918e-10
9.66705e-10
9.66493e-10
9.66285e-10
9.66084e-10
9.65893e-10
9.65719e-10
9.65565e-10
9.65437e-10
9.65342e-10
9.65285e-10
9.65263e-10
9.6526e-10
9.65266e-10
9.65306e-10
9.65469e-10
9.65697e-10
9.65983e-10
9.66324e-10
9.66717e-10
9.67155e-10
9.67629e-10
9.68129e-10
9.68644e-10
9.69161e-10
9.69668e-10
9.70153e-10
9.70607e-10
9.71021e-10
9.71389e-10
9.71706e-10
9.71971e-10
9.72181e-10
9.7234e-10
9.72448e-10
9.72511e-10
9.72535e-10
9.7254e-10
9.7254e-10
9.72506e-10
9.72386e-10
9.72262e-10
9.72125e-10
9.71979e-10
9.7183e-10
9.7168e-10
9.71531e-10
9.71388e-10
9.71251e-10
9.71123e-10
9.71004e-10
9.70895e-10
9.70797e-10
9.7071e-10
9.70634e-10
9.70569e-10
9.70514e-10
9.70469e-10
9.70433e-10
9.70404e-10
9.70383e-10
9.70368e-10
9.70358e-10
9.70353e-10
9.70351e-10
9.70351e-10
9.70352e-10
9.70356e-10
9.70364e-10
9.70373e-10
9.70381e-10
9.7039e-10
9.70398e-10
9.70405e-10
9.70411e-10
9.70417e-10
9.70422e-10
9.70426e-10
9.70429e-10
9.70432e-10
9.70434e-10
9.70437e-10
9.70438e-10
9.7044e-10
9.70442e-10
9.70444e-10
9.70447e-10
9.70451e-10
9.70456e-10
9.70461e-10
9.70467e-10
9.70475e-10
9.70484e-10
9.70495e-10
9.70506e-10
9.7052e-10
9.70534e-10
9.7055e-10
9.70567e-10
9.70585e-10
9.70605e-10
9.70626e-10
9.70648e-10
9.70671e-10
9.70696e-10
9.70721e-10
9.70748e-10
9.70775e-10
9.70804e-10
9.70833e-10
9.70863e-10
9.70894e-10
9.70926e-10
9.70958e-10
9.7099e-10
9.71023e-10
9.71056e-10
9.71088e-10
9.7112e-10
9.71152e-10
9.71183e-10
9.71214e-10
9.71243e-10
9.71271e-10
9.71297e-10
9.7132e-10
9.71342e-10
9.71361e-10
9.71376e-10
9.71389e-10
9.71399e-10
9.71404e-10
9.71406e-10
9.71406e-10
9.71406e-10
9.71401e-10
9.71386e-10
9.71366e-10
9.7134e-10
9.7131e-10
9.71274e-10
9.71233e-10
9.71187e-10
9.71136e-10
9.7108e-10
9.71019e-10
9.70952e-10
9.70881e-10
9.70804e-10
9.70724e-10
9.70638e-10
9.70549e-10
9.70455e-10
9.70358e-10
9.70257e-10
9.70152e-10
9.70045e-10
9.69935e-10
9.69822e-10
9.69708e-10
9.69591e-10
9.69473e-10
9.69354e-10
9.69234e-10
9.69113e-10
9.68992e-10
9.68871e-10
9.68749e-10
9.68628e-10
9.68508e-10
9.68387e-10
9.68267e-10
9.68147e-10
9.68028e-10
9.67909e-10
9.67789e-10
9.6767e-10
9.67549e-10
9.67427e-10
9.67304e-10
9.67178e-10
9.6705e-10
9.66919e-10
9.66783e-10
9.66643e-10
9.66497e-10
9.66345e-10
9.66187e-10
9.66022e-10
9.6585e-10
9.65669e-10
9.65479e-10
9.65281e-10
9.65074e-10
9.64858e-10
9.64634e-10
9.64402e-10
9.64164e-10
9.63915e-10
9.63666e-10
9.63417e-10
9.63158e-10
9.62894e-10
9.62666e-10
9.62437e-10
9.62161e-10
9.61946e-10
9.61868e-10
9.62028e-10
9.62846e-10
9.74462e-10
1.04821e-09
1.11067e-09
1.11439e-09
1.11437e-09
1.11437e-09
1.11437e-09
1.11437e-09
1.11437e-09
1.11437e-09
1.11437e-09
1.11437e-09
1.11437e-09
1.11437e-09
1.11437e-09
1.11437e-09
1.11437e-09
1.11437e-09
1.11437e-09
1.11437e-09
1.11437e-09
1.11437e-09
1.11437e-09
1.11437e-09
1.11437e-09
1.11437e-09
1.11437e-09
1.11437e-09
1.11437e-09
1.11437e-09
1.11437e-09
1.11437e-09
1.11437e-09
1.11437e-09
1.11437e-09
1.11437e-09
1.11437e-09
1.11437e-09
1.11437e-09
1.11437e-09
1.11437e-09
1.11437e-09
1.11437e-09
1.11437e-09
1.11437e-09
1.11437e-09
1.11437e-09
1.11437e-09
1.11437e-09
1.11437e-09
1.11437e-09
1.11437e-09
1.11437e-09
1.11437e-09
1.11437e-09
1.11437e-09
1.11437e-09
1.11437e-09
1.11437e-09
1.11437e-09
1.11437e-09
1.11437e-09
1.11437e-09
1.11437e-09
1.11437e-09
1.11437e-09
1.11437e-09
1.11437e-09
1.11437e-09
1.11437e-09
1.11437e-09
1.11437e-09
1.11437e-09
1.11437e-09
1.11437e-09
1.11437e-09
1.11437e-09
1.11437e-09
1.11437e-09
1.11437e-09
1.11437e-09
1.11437e-09
1.11437e-09
1.11437e-09
1.11437e-09
1.11437e-09
1.11437e-09
1.11437e-09
1.11437e-09
1.11437e-09
1.11437e-09
1.11437e-09
1.11437e-09
1.11437e-09
1.11437e-09
1.11437e-09
1.11437e-09
1.11437e-09
1.11437e-09
1.11437e-09
1.11437e-09
1.11437e-09
1.11437e-09
1.11437e-09
1.11437e-09
1.11437e-09
1.11437e-09
1.11437e-09
1.11437e-09
1.11437e-09
1.11437e-09
1.11437e-09
1.11437e-09
1.11437e-09
1.11437e-09
1.11437e-09
1.11437e-09
1.11437e-09
1.11437e-09
1.11437e-09
1.11437e-09
1.11437e-09
1.11437e-09
1.11437e-09
1.11437e-09
1.11437e-09
1.11437e-09
1.11437e-09
1.11437e-09
1.11437e-09
1.11437e-09
1.11437e-09
1.11437e-09
1.11437e-09
1.11437e-09
1.11437e-09
1.11437e-09
1.11437e-09
1.11437e-09
1.11437e-09
1.11437e-09
1.11437e-09
1.11437e-09
1.11437e-09
1.11437e-09
1.11437e-09
1.11437e-09
1.11437e-09
1.11437e-09
1.11437e-09
1.11437e-09
1.11437e-09
1.11437e-09
1.11437e-09
1.11437e-09
1.11437e-09
1.11437e-09
1.11437e-09
1.11437e-09
1.11437e-09
1.11437e-09
1.11437e-09
1.11437e-09
1.11437e-09
1.11437e-09
1.11437e-09
1.11437e-09
1.11437e-09
1.11437e-09
1.11437e-09
1.11437e-09
1.11437e-09
1.11437e-09
1.11437e-09
1.11437e-09
1.11437e-09
1.11437e-09
1.11437e-09
1.11437e-09
1.11437e-09
1.11437e-09
1.11437e-09
1.11437e-09
1.11437e-09
1.11437e-09
1.11437e-09
1.11437e-09
1.11437e-09
1.11437e-09
1.11437e-09
1.11437e-09
1.11437e-09
1.11437e-09
1.11437e-09
1.11437e-09
1.11437e-09
1.11437e-09
1.11437e-09
1.11437e-09
1.11437e-09
1.11437e-09
1.11437e-09
1.11437e-09
1.11437e-09
1.11437e-09
1.11437e-09
1.11437e-09
1.11437e-09
1.11437e-09
1.11437e-09
1.11437e-09
1.11437e-09
1.11437e-09
1.11437e-09
1.11437e-09
1.11437e-09
1.11437e-09
1.11437e-09
1.11437e-09
1.11437e-09
1.11437e-09
1.11437e-09
1.11437e-09
1.11437e-09
1.11437e-09
1.11437e-09
1.11437e-09
1.11437e-09
1.11437e-09
1.11437e-09
1.11437e-09
1.11437e-09
1.11437e-09
1.11437e-09
1.11437e-09
1.11437e-09
1.11437e-09
1.11437e-09
1.11437e-09
1.11437e-09
1.11437e-09
1.11437e-09
1.11437e-09
1.11437e-09
1.11437e-09
1.11437e-09
1.11437e-09
1.11437e-09
1.11437e-09
1.11437e-09
1.11437e-09
1.11437e-09
1.11437e-09
1.11437e-09
1.11437e-09
1.11437e-09
1.11437e-09
1.11437e-09
1.11437e-09
1.11437e-09
1.11437e-09
1.11437e-09
1.11437e-09
1.11437e-09
1.11437e-09
1.11437e-09
1.11437e-09
1.11437e-09
1.11437e-09
1.11437e-09
1.11437e-09
1.11437e-09
1.11437e-09
1.11437e-09
1.11437e-09
1.11437e-09
1.11437e-09
1.11437e-09
1.11437e-09
1.11437e-09
1.11437e-09
1.11437e-09
1.11437e-09
1.11437e-09
1.11437e-09
1.11437e-09
1.11437e-09
1.11437e-09
1.11437e-09
1.11437e-09
1.11437e-09
1.11437e-09
1.11437e-09
1.11437e-09
1.11437e-09
1.11437e-09
1.11437e-09
1.11437e-09
1.11437e-09
1.11437e-09
1.11437e-09
1.11437e-09
1.11437e-09
1.11437e-09
1.11437e-09
1.11437e-09
1.11437e-09
1.11437e-09
1.11437e-09
1.11437e-09
1.11437e-09
1.11437e-09
1.11437e-09
1.11437e-09
1.11437e-09
1.11437e-09
1.11437e-09
1.11437e-09
1.11437e-09
1.11437e-09
1.11437e-09
1.11437e-09
1.11437e-09
1.11437e-09
1.11437e-09
1.11437e-09
1.11437e-09
1.11437e-09
1.11437e-09
1.11437e-09
1.11437e-09
1.11437e-09
1.11437e-09
1.11437e-09
1.11437e-09
1.11437e-09
1.11437e-09
1.11437e-09
1.11437e-09
1.11437e-09
1.11437e-09
1.11437e-09
1.11437e-09
1.11437e-09
1.11437e-09
1.11437e-09
1.11437e-09
1.11437e-09
1.11437e-09
1.11437e-09
1.11437e-09
1.11437e-09
1.11437e-09
1.11437e-09
1.11437e-09
1.11437e-09
1.11437e-09
1.11437e-09
1.11437e-09
1.11437e-09
1.11437e-09
1.11437e-09
1.11437e-09
1.11437e-09
1.11437e-09
1.11437e-09
1.11437e-09
1.11437e-09
1.11437e-09
1.11437e-09
1.11437e-09
1.11437e-09
1.11437e-09
1.11437e-09
1.11437e-09
1.11437e-09
1.11437e-09
1.11437e-09
1.11437e-09
1.11437e-09
1.11437e-09
1.11437e-09
1.11437e-09
1.11437e-09
1.11437e-09
1.11437e-09
1.11437e-09
1.11437e-09
1.11437e-09
1.11437e-09
1.11437e-09
1.11437e-09
1.11437e-09
1.11437e-09
1.11437e-09
1.11437e-09
1.11437e-09
1.11437e-09
1.11437e-09
1.11437e-09
1.11437e-09
1.11437e-09
1.11437e-09
1.11437e-09
1.11437e-09
1.11437e-09
1.11437e-09
1.11437e-09
1.11437e-09
1.11437e-09
1.11437e-09
1.11437e-09
1.11437e-09
1.11437e-09
1.11437e-09
1.11437e-09
1.11437e-09
1.11437e-09
1.11437e-09
1.11437e-09
1.11437e-09
1.11437e-09
1.11437e-09
1.11437e-09
1.11437e-09
1.11437e-09
1.11437e-09
1.11437e-09
1.11437e-09
1.11437e-09
1.11437e-09
1.11437e-09
1.11437e-09
1.11437e-09
1.11437e-09
1.11437e-09
1.11437e-09
1.11437e-09
1.11437e-09
1.11437e-09
1.11437e-09
1.11437e-09
1.11437e-09
1.11437e-09
1.11437e-09
1.11437e-09
1.11437e-09
1.11437e-09
1.11437e-09
1.11437e-09
1.11437e-09
1.11437e-09
1.11437e-09
1.11437e-09
1.11437e-09
1.11437e-09
1.11437e-09
1.11437e-09
1.11437e-09
1.11437e-09
1.11437e-09
1.11437e-09
1.11437e-09
1.11437e-09
1.11437e-09
1.11437e-09
1.11437e-09
1.11437e-09
1.11437e-09
1.11437e-09
1.11437e-09
1.11437e-09
1.11437e-09
1.11437e-09
1.11437e-09
1.11437e-09
1.11437e-09
1.11437e-09
1.11437e-09
1.11437e-09
1.11437e-09
1.11437e-09
1.11437e-09
1.11437e-09
1.11437e-09
1.11437e-09
1.11437e-09
1.11437e-09
1.11437e-09
1.11437e-09
1.11437e-09
1.11437e-09
1.11437e-09
1.11437e-09
1.11437e-09
1.11437e-09
1.11437e-09
1.11437e-09
1.11437e-09
1.11437e-09
1.11437e-09
1.11437e-09
1.11437e-09
1.11437e-09
1.11437e-09
1.11437e-09
1.11437e-09
1.11437e-09
1.11437e-09
1.11437e-09
1.11437e-09
1.11437e-09
1.11437e-09
1.11437e-09
1.11437e-09
1.11437e-09
1.11437e-09
1.11437e-09
1.11437e-09
1.11437e-09
1.11437e-09
1.11437e-09
1.11437e-09
1.11437e-09
1.11437e-09
1.11437e-09
1.11437e-09
1.11437e-09
1.11437e-09
1.11437e-09
1.11437e-09
1.11437e-09
1.11437e-09
1.11437e-09
1.11437e-09
1.11437e-09
1.11437e-09
1.11437e-09
1.11437e-09
1.11437e-09
1.11437e-09
1.11437e-09
1.11437e-09
1.11437e-09
1.11437e-09
1.11437e-09
1.11437e-09
1.11437e-09
1.11437e-09
1.11437e-09
1.11437e-09
1.11437e-09
1.11437e-09
1.11437e-09
1.11437e-09
1.11437e-09
1.11437e-09
1.11437e-09
1.11437e-09
1.11437e-09
1.11437e-09
1.11437e-09
1.11437e-09
1.11437e-09
1.11437e-09
1.11437e-09
1.11437e-09
1.11437e-09
1.11437e-09
1.11437e-09
1.11437e-09
1.11437e-09
1.11437e-09
1.11437e-09
1.11437e-09
1.11437e-09
1.11437e-09
1.11437e-09
1.11437e-09
1.11437e-09
1.11437e-09
1.11437e-09
1.11437e-09
1.11437e-09
1.11437e-09
1.11437e-09
1.11437e-09
1.11437e-09
1.11437e-09
1.11437e-09
1.11437e-09
1.11437e-09
1.11437e-09
1.11437e-09
1.11437e-09
1.11437e-09
1.11437e-09
1.11437e-09
1.11437e-09
1.11437e-09
1.11437e-09
1.11437e-09
1.11437e-09
1.11437e-09
1.11437e-09
1.11437e-09
1.11437e-09
1.11437e-09
1.11437e-09
1.11437e-09
1.11437e-09
1.11437e-09
1.11437e-09
1.11437e-09
1.11437e-09
1.11437e-09
1.11437e-09
1.11437e-09
1.11437e-09
1.11437e-09
1.11437e-09
1.11437e-09
1.11437e-09
)
;

boundaryField
{
    inlet
    {
        type            calculated;
        value           uniform 0;
    }
    outlet
    {
        type            calculated;
        value           uniform 1.11437e-09;
    }
    emptyWalls
    {
        type            empty;
        value           nonuniform List<scalar> 0();
    }
}


// ************************************************************************* //
