/*--------------------------------*- C++ -*----------------------------------*\
  =========                 |
  \\      /  F ield         | OpenFOAM: The Open Source CFD Toolbox
   \\    /   O peration     | Website:  https://openfoam.org
    \\  /    A nd           | Version:  9
     \\/     M anipulation  |
\*---------------------------------------------------------------------------*/
FoamFile
{
    format      ascii;
    class       volScalarField;
    location    "1350";
    object      Fb;
}
// * * * * * * * * * * * * * * * * * * * * * * * * * * * * * * * * * * * * * //

dimensions      [0 0 0 0 0 0 0];

internalField   nonuniform List<scalar> 
1000
(
0.804637
0.823236
0.835553
0.837971
0.836441
0.832978
0.828328
0.823263
0.817966
0.812511
0.80691
0.801193
0.795376
0.789459
0.783459
0.777377
0.771207
0.764957
0.758625
0.752202
0.745699
0.739106
0.732417
0.725649
0.71877
0.711807
0.704736
0.697558
0.690281
0.682869
0.675359
0.667695
0.659917
0.651979
0.643894
0.63565
0.627216
0.618617
0.609786
0.600768
0.591487
0.581972
0.572178
0.562088
0.55171
0.540961
0.52984
0.518115
0.50543
0.490888
0.472784
0.448458
0.414651
0.370011
0.318509
0.269818
0.232651
0.208933
0.195599
0.188651
0.185198
0.18353
0.18273
0.182349
0.182161
0.182066
0.18201
0.181971
0.181939
0.181911
0.181883
0.181856
0.181828
0.1818
0.181772
0.181744
0.181715
0.181688
0.181661
0.181635
0.181609
0.181585
0.18156
0.181536
0.181512
0.18149
0.181468
0.181447
0.181425
0.181405
0.181384
0.181363
0.181341
0.181321
0.181298
0.181276
0.181251
0.181225
0.181196
0.181165
0.181131
0.181095
0.181054
0.181011
0.180962
0.180909
0.180851
0.180789
0.180722
0.180652
0.180577
0.180498
0.180416
0.180332
0.180245
0.18016
0.180075
0.179993
0.179917
0.179849
0.179791
0.179752
0.17973
0.179726
0.179727
0.179734
0.179778
0.179892
0.180053
0.180255
0.180499
0.180777
0.18108
0.181394
0.181708
0.182007
0.182283
0.182526
0.182734
0.182902
0.183033
0.183127
0.183189
0.183221
0.183232
0.183232
0.183227
0.183196
0.183136
0.183068
0.182996
0.182921
0.182845
0.182769
0.182695
0.182623
0.182554
0.182489
0.182429
0.182373
0.182322
0.182276
0.182236
0.182199
0.182168
0.182141
0.182118
0.182099
0.182083
0.182069
0.182057
0.182048
0.18204
0.182033
0.182026
0.18202
0.182015
0.18201
0.182005
0.182
0.181994
0.181988
0.181982
0.181976
0.18197
0.181963
0.181957
0.18195
0.181943
0.181937
0.181931
0.181926
0.181921
0.181916
0.181913
0.181911
0.181911
0.181911
0.181912
0.181913
0.181919
0.181921
0.181934
0.181938
0.181959
0.181965
0.181994
0.182002
0.182043
0.182058
0.182105
0.182125
0.182176
0.182198
0.182257
0.18228
0.18235
0.182377
0.182456
0.182479
0.182564
0.182592
0.182675
0.182703
0.182794
0.182819
0.182907
0.182937
0.183026
0.183051
0.183146
0.183313
0.184191
0.200773
0.21011
0.210276
0.21028
0.21028
0.21028
0.21028
0.21028
0.21028
0.21028
0.21028
0.21028
0.21028
0.21028
0.21028
0.21028
0.21028
0.21028
0.21028
0.21028
0.21028
0.21028
0.21028
0.21028
0.21028
0.21028
0.21028
0.21028
0.21028
0.21028
0.21028
0.21028
0.21028
0.21028
0.21028
0.21028
0.21028
0.21028
0.21028
0.21028
0.21028
0.21028
0.21028
0.21028
0.21028
0.21028
0.21028
0.21028
0.21028
0.21028
0.21028
0.21028
0.21028
0.21028
0.21028
0.21028
0.21028
0.21028
0.21028
0.21028
0.21028
0.21028
0.21028
0.21028
0.21028
0.21028
0.21028
0.21028
0.21028
0.21028
0.21028
0.21028
0.21028
0.21028
0.21028
0.21028
0.21028
0.21028
0.21028
0.21028
0.21028
0.21028
0.21028
0.21028
0.21028
0.21028
0.21028
0.21028
0.21028
0.21028
0.21028
0.21028
0.21028
0.21028
0.21028
0.21028
0.21028
0.21028
0.21028
0.21028
0.21028
0.21028
0.21028
0.21028
0.21028
0.21028
0.21028
0.21028
0.21028
0.21028
0.21028
0.21028
0.21028
0.21028
0.21028
0.21028
0.21028
0.21028
0.21028
0.21028
0.21028
0.21028
0.21028
0.21028
0.21028
0.21028
0.21028
0.21028
0.21028
0.21028
0.21028
0.21028
0.21028
0.21028
0.21028
0.21028
0.21028
0.21028
0.21028
0.21028
0.21028
0.21028
0.21028
0.21028
0.21028
0.21028
0.21028
0.21028
0.21028
0.21028
0.21028
0.21028
0.21028
0.21028
0.21028
0.21028
0.21028
0.21028
0.21028
0.21028
0.21028
0.21028
0.21028
0.21028
0.21028
0.21028
0.21028
0.21028
0.21028
0.21028
0.21028
0.21028
0.21028
0.21028
0.21028
0.21028
0.21028
0.21028
0.21028
0.21028
0.21028
0.21028
0.21028
0.21028
0.21028
0.21028
0.21028
0.21028
0.21028
0.21028
0.21028
0.21028
0.21028
0.21028
0.21028
0.21028
0.21028
0.21028
0.21028
0.21028
0.21028
0.21028
0.21028
0.21028
0.21028
0.21028
0.21028
0.21028
0.21028
0.21028
0.21028
0.21028
0.21028
0.21028
0.21028
0.21028
0.21028
0.21028
0.21028
0.21028
0.21028
0.21028
0.21028
0.21028
0.21028
0.21028
0.21028
0.21028
0.21028
0.21028
0.21028
0.21028
0.21028
0.21028
0.21028
0.21028
0.21028
0.21028
0.21028
0.21028
0.21028
0.21028
0.21028
0.21028
0.21028
0.21028
0.21028
0.21028
0.21028
0.21028
0.21028
0.21028
0.21028
0.21028
0.21028
0.21028
0.21028
0.21028
0.21028
0.21028
0.21028
0.21028
0.21028
0.21028
0.21028
0.21028
0.21028
0.21028
0.21028
0.21028
0.21028
0.21028
0.21028
0.21028
0.21028
0.21028
0.21028
0.21028
0.21028
0.21028
0.21028
0.21028
0.21028
0.21028
0.21028
0.21028
0.21028
0.21028
0.21028
0.21028
0.21028
0.21028
0.21028
0.21028
0.21028
0.21028
0.21028
0.21028
0.21028
0.21028
0.21028
0.21028
0.21028
0.21028
0.21028
0.21028
0.21028
0.21028
0.21028
0.21028
0.21028
0.21028
0.21028
0.21028
0.21028
0.21028
0.21028
0.21028
0.21028
0.21028
0.21028
0.21028
0.21028
0.21028
0.21028
0.21028
0.21028
0.21028
0.21028
0.21028
0.21028
0.21028
0.21028
0.21028
0.21028
0.21028
0.21028
0.21028
0.21028
0.21028
0.21028
0.21028
0.21028
0.21028
0.21028
0.21028
0.21028
0.21028
0.21028
0.21028
0.21028
0.21028
0.21028
0.21028
0.21028
0.21028
0.21028
0.21028
0.21028
0.21028
0.21028
0.21028
0.21028
0.21028
0.21028
0.21028
0.21028
0.21028
0.21028
0.21028
0.21028
0.21028
0.21028
0.21028
0.21028
0.21028
0.21028
0.21028
0.21028
0.21028
0.21028
0.21028
0.21028
0.21028
0.21028
0.21028
0.21028
0.21028
0.21028
0.21028
0.21028
0.21028
0.21028
0.21028
0.21028
0.21028
0.21028
0.21028
0.21028
0.21028
0.21028
0.21028
0.21028
0.21028
0.21028
0.21028
0.21028
0.21028
0.21028
0.21028
0.21028
0.21028
0.21028
0.21028
0.21028
0.21028
0.21028
0.21028
0.21028
0.21028
0.21028
0.21028
0.21028
0.21028
0.21028
0.21028
0.21028
0.21028
0.21028
0.21028
0.21028
0.21028
0.21028
0.21028
0.21028
0.21028
0.21028
0.21028
0.21028
0.21028
0.21028
0.21028
0.21028
0.21028
0.21028
0.21028
0.21028
0.21028
0.21028
0.21028
0.21028
0.21028
0.21028
0.21028
0.21028
0.21028
0.21028
0.21028
0.21028
0.21028
0.21028
0.21028
0.21028
0.21028
0.21028
0.21028
0.21028
0.21028
0.21028
0.21028
0.21028
0.21028
0.21028
0.21028
0.21028
0.21028
0.21028
0.21028
0.21028
0.21028
0.21028
0.21028
0.21028
0.21028
0.21028
0.21028
0.21028
0.21028
0.21028
0.21028
0.21028
0.21028
0.21028
0.21028
0.21028
0.21028
0.21028
0.21028
0.21028
0.21028
0.21028
0.21028
0.21028
0.21028
0.21028
0.21028
0.21028
0.21028
0.21028
0.21028
0.21028
0.21028
0.21028
0.21028
0.21028
0.21028
0.21028
0.21028
0.21028
0.21028
0.21028
0.21028
0.21028
0.21028
0.21028
0.21028
0.21028
0.21028
0.21028
0.21028
0.21028
0.21028
0.21028
0.21028
0.21028
0.21028
0.21028
0.21028
0.21028
0.21028
0.21028
0.21028
0.21028
0.21028
0.21028
0.21028
0.21028
0.21028
0.21028
0.21028
0.21028
0.21028
0.21028
0.21028
0.21028
0.21028
0.21028
0.21028
0.21028
0.21028
0.21028
0.21028
0.21028
0.21028
0.21028
0.21028
0.21028
0.21028
0.21028
0.21028
0.21028
0.21028
0.21028
0.21028
0.21028
0.21028
0.21028
0.21028
0.21028
0.21028
0.21028
0.21028
0.21028
0.21028
0.21028
0.21028
0.21028
0.21028
0.21028
0.21028
0.21028
0.21028
0.21028
0.21028
0.21028
0.21028
0.21028
0.21028
0.21028
0.21028
0.21028
0.21028
0.21028
0.21028
0.21028
0.21028
0.21028
0.21028
0.21028
0.21028
0.21028
0.21028
0.21028
0.21028
0.21028
0.21028
0.21028
0.21028
0.21028
0.21028
0.21028
0.21028
0.21028
0.21028
0.21028
0.21028
0.21028
0.21028
0.21028
0.21028
0.21028
0.21028
0.21028
0.21028
0.21028
0.21028
0.21028
0.21028
0.21028
0.21028
0.21028
0.21028
0.21028
0.21028
0.21028
0.21028
0.21028
0.21028
0.21028
0.21028
0.21028
0.21028
0.21028
0.21028
0.21028
0.21028
0.21028
0.21028
0.21028
0.21028
0.21028
0.21028
0.21028
0.21028
0.21028
0.21028
0.21028
0.21028
0.21028
0.21028
0.21028
0.21028
0.21028
0.21028
0.21028
0.21028
0.21028
0.21028
0.21028
0.21028
0.21028
0.21028
0.21028
0.21028
0.21028
0.21028
0.21028
0.21028
0.21028
0.21028
0.21028
0.21028
0.21028
0.21028
0.21028
0.21028
0.21028
0.21028
0.21028
0.21028
0.21028
0.21028
0.21028
0.21028
0.21028
0.21028
0.21028
0.21028
0.21028
0.21028
0.21028
0.21028
0.21028
0.21028
0.21028
0.21028
0.21028
0.21028
0.21028
0.21028
0.21028
0.21028
0.21028
0.21028
0.21028
0.21028
0.21028
0.21028
0.21028
0.21028
0.21028
0.21028
0.21028
0.21028
0.21028
0.21028
0.21028
0.21028
0.21028
0.21028
0.21028
0.21028
0.21028
0.21028
0.21028
0.21028
0.21028
0.21028
0.21028
0.21028
0.21028
0.21028
0.21028
0.21028
0.21028
0.21028
0.21028
0.21028
0.21028
0.21028
0.21028
0.21028
0.21028
0.21028
0.21028
0.21028
0.21028
)
;

boundaryField
{
    inlet
    {
        type            calculated;
        value           uniform 0.805169;
    }
    outlet
    {
        type            calculated;
        value           uniform 0.21028;
    }
    emptyWalls
    {
        type            empty;
    }
}


// ************************************************************************* //
