/*--------------------------------*- C++ -*----------------------------------*\
  =========                 |
  \\      /  F ield         | OpenFOAM: The Open Source CFD Toolbox
   \\    /   O peration     | Website:  https://openfoam.org
    \\  /    A nd           | Version:  9
     \\/     M anipulation  |
\*---------------------------------------------------------------------------*/
FoamFile
{
    format      ascii;
    class       volScalarField;
    location    "28450";
    object      Fb;
}
// * * * * * * * * * * * * * * * * * * * * * * * * * * * * * * * * * * * * * //

dimensions      [0 0 0 0 0 0 0];

internalField   nonuniform List<scalar> 
1000
(
0.8052
0.805204
0.805189
0.805224
0.805188
0.80525
0.805194
0.805276
0.805203
0.805296
0.805231
0.805303
0.80528
0.805311
0.805325
0.805339
0.805362
0.805386
0.805407
0.805437
0.805463
0.805485
0.805519
0.805525
0.80558
0.805556
0.805646
0.805591
0.805695
0.805642
0.805718
0.805699
0.805738
0.805741
0.805763
0.80577
0.80579
0.805829
0.806006
0.806951
0.814954
0.830656
0.833127
0.83397
0.83441
0.834704
0.834929
0.835115
0.835276
0.835417
0.835544
0.835659
0.835764
0.835859
0.835945
0.836023
0.836093
0.836157
0.836216
0.836271
0.836322
0.836368
0.836405
0.836432
0.836451
0.836465
0.836477
0.836488
0.836507
0.836529
0.836549
0.836564
0.836569
0.836555
0.836523
0.836501
0.836486
0.836468
0.836451
0.836448
0.836459
0.836475
0.836474
0.836472
0.836444
0.836394
0.83633
0.836213
0.835973
0.835705
0.835422
0.835136
0.834861
0.834608
0.834391
0.834214
0.834074
0.833952
0.833828
0.833704
0.833614
0.833618
0.83368
0.833786
0.833921
0.834068
0.834214
0.834343
0.834445
0.834511
0.834534
0.834511
0.834444
0.834337
0.834197
0.834028
0.833838
0.833628
0.833406
0.833174
0.832938
0.832697
0.832459
0.832219
0.831985
0.831751
0.831524
0.831297
0.831075
0.830852
0.830635
0.830416
0.8302
0.829982
0.829767
0.829549
0.829333
0.829113
0.828896
0.828675
0.828455
0.828232
0.82801
0.827784
0.82756
0.827332
0.827105
0.826875
0.826645
0.826412
0.826179
0.825944
0.825709
0.825471
0.825233
0.824993
0.824752
0.824511
0.824268
0.824024
0.823779
0.823533
0.823286
0.823036
0.822785
0.822532
0.822278
0.822022
0.821764
0.821506
0.821247
0.820987
0.820727
0.820467
0.820206
0.819945
0.819683
0.819419
0.819155
0.818888
0.81862
0.818349
0.818077
0.817804
0.81753
0.817255
0.816981
0.816707
0.816434
0.816162
0.815893
0.815625
0.815359
0.815092
0.814823
0.81455
0.814271
0.813982
0.813683
0.813371
0.813045
0.812705
0.812351
0.811984
0.811605
0.811215
0.810818
0.810413
0.810006
0.809596
0.809189
0.808786
0.808392
0.808008
0.807639
0.807287
0.806956
0.806646
0.80636
0.806097
0.805858
0.80564
0.805444
0.805263
0.805098
0.804942
0.804794
0.804647
0.804501
0.804349
0.804192
0.804026
0.803851
0.803663
0.803466
0.803256
0.803037
0.802806
0.802568
0.80232
0.802068
0.801808
0.801547
0.801279
0.801012
0.800741
0.800473
0.800201
0.799934
0.799663
0.799397
0.799128
0.798865
0.798598
0.798338
0.798072
0.797814
0.79755
0.797292
0.797029
0.796772
0.796509
0.796253
0.795989
0.795732
0.795468
0.79521
0.794945
0.794686
0.794419
0.79416
0.793891
0.79363
0.793359
0.793097
0.792825
0.792562
0.792287
0.792022
0.791746
0.79148
0.791202
0.790935
0.790654
0.790386
0.790103
0.789833
0.789548
0.789277
0.78899
0.788717
0.788427
0.788153
0.787861
0.787585
0.787292
0.787015
0.786719
0.786441
0.786144
0.785865
0.785567
0.785286
0.784987
0.784705
0.784403
0.784119
0.783816
0.78353
0.783226
0.782938
0.782633
0.782344
0.782039
0.781748
0.781444
0.781153
0.78085
0.780558
0.780255
0.779963
0.779659
0.779363
0.779056
0.778756
0.778443
0.778134
0.777812
0.777492
0.777158
0.776825
0.776478
0.776131
0.77577
0.775409
0.775034
0.774661
0.774275
0.773893
0.7735
0.773113
0.772716
0.77233
0.771936
0.771557
0.771171
0.770805
0.770434
0.770087
0.769735
0.769412
0.769083
0.768785
0.768482
0.76821
0.76793
0.767683
0.767424
0.767197
0.766953
0.766741
0.766506
0.766301
0.766069
0.765867
0.765632
0.765426
0.765184
0.76497
0.764718
0.764494
0.764231
0.763996
0.763721
0.763477
0.763192
0.762938
0.762644
0.762383
0.762083
0.761817
0.761512
0.761242
0.760934
0.760662
0.760352
0.760079
0.759769
0.759496
0.759186
0.758914
0.758605
0.758333
0.758024
0.757753
0.757445
0.757174
0.756866
0.756596
0.756289
0.756018
0.755711
0.75544
0.755132
0.754861
0.754552
0.754281
0.753971
0.753699
0.753388
0.753114
0.752803
0.752528
0.752215
0.751939
0.751625
0.751348
0.751032
0.750753
0.750436
0.750156
0.749838
0.749556
0.749236
0.748954
0.748632
0.748348
0.748024
0.747739
0.747414
0.747127
0.7468
0.746512
0.746184
0.745894
0.745565
0.745273
0.744943
0.74465
0.744318
0.744024
0.743691
0.743396
0.743061
0.742765
0.742429
0.742131
0.741794
0.741495
0.741156
0.740856
0.740517
0.740216
0.739876
0.739574
0.739233
0.738931
0.738589
0.738286
0.737944
0.73764
0.737296
0.73699
0.736644
0.736335
0.735986
0.735674
0.735321
0.735004
0.734644
0.734321
0.733955
0.733625
0.733251
0.732912
0.732531
0.732184
0.731794
0.731439
0.731042
0.73068
0.730276
0.729909
0.729501
0.72913
0.72872
0.728349
0.727939
0.72757
0.727164
0.7268
0.726401
0.726046
0.725657
0.725312
0.724935
0.724604
0.724241
0.723925
0.723577
0.723276
0.722943
0.722656
0.722337
0.722063
0.721756
0.721492
0.721194
0.720938
0.720646
0.720395
0.720105
0.719855
0.719566
0.719314
0.719022
0.718767
0.71847
0.71821
0.717908
0.717642
0.717333
0.717061
0.716746
0.716467
0.716146
0.715862
0.715536
0.715248
0.714918
0.714625
0.714292
0.713996
0.71366
0.713363
0.713025
0.712726
0.712386
0.712087
0.711747
0.711446
0.711106
0.710805
0.710465
0.710164
0.709823
0.709523
0.709182
0.708881
0.70854
0.708238
0.707897
0.707595
0.707253
0.706951
0.706608
0.706305
0.705962
0.705659
0.705314
0.70501
0.704665
0.704359
0.704013
0.703706
0.703359
0.703051
0.702703
0.702394
0.702044
0.701734
0.701383
0.701071
0.700719
0.700406
0.700052
0.699738
0.699383
0.699067
0.698711
0.698394
0.698036
0.697718
0.697358
0.697039
0.696678
0.696358
0.695996
0.695674
0.69531
0.694987
0.694623
0.694298
0.693932
0.693607
0.69324
0.692913
0.692545
0.692217
0.691847
0.691518
0.691148
0.690818
0.690447
0.690115
0.689743
0.689411
0.689038
0.688705
0.68833
0.687996
0.687621
0.687285
0.686908
0.686571
0.686192
0.685853
0.685472
0.68513
0.684747
0.684402
0.684015
0.683666
0.683275
0.682922
0.682526
0.682168
0.681767
0.681404
0.680998
0.68063
0.680218
0.679845
0.679428
0.67905
0.678629
0.678246
0.677822
0.677436
0.677009
0.676621
0.676193
0.675805
0.675377
0.67499
0.674563
0.674179
0.673756
0.673377
0.672959
0.672585
0.672174
0.671808
0.671405
0.671046
0.670652
0.670303
0.669918
0.669578
0.669202
0.66887
0.668503
0.66818
0.66782
0.667503
0.66715
0.666839
0.66649
0.666183
0.665837
0.665532
0.665187
0.664883
0.664538
0.664232
0.663885
0.663578
0.663228
0.662918
0.662565
0.66225
0.661893
0.661575
0.661214
0.660892
0.660527
0.6602
0.659832
0.659502
0.65913
0.658796
0.658421
0.658086
0.657708
0.65737
0.65699
0.65665
0.656269
0.655927
0.655544
0.655202
0.654818
0.654474
0.654089
0.653745
0.653359
0.653014
0.652628
0.652282
0.651895
0.651549
0.651161
0.650814
0.650426
0.650078
0.649689
0.64934
0.64895
0.648601
0.64821
0.647859
0.647468
0.647116
0.646723
0.646371
0.645977
0.645623
0.645228
0.644873
0.644477
0.64412
0.643723
0.643365
0.642966
0.642607
0.642207
0.641847
0.641445
0.641083
0.64068
0.640317
0.639913
0.639548
0.639142
0.638776
0.638369
0.638002
0.637593
0.637224
0.636814
0.636444
0.636032
0.635661
0.635248
0.634875
0.634461
0.634087
0.633671
0.633295
0.632878
0.632502
0.632083
0.631705
0.631285
0.630906
0.630485
0.630104
0.629682
0.6293
0.628877
0.628493
0.628069
0.627684
0.627258
0.626871
0.626443
0.626056
0.625626
0.625236
0.624804
0.624413
0.623979
0.623584
0.623148
0.622751
0.622312
0.621911
0.621469
0.621065
0.620619
0.620212
0.619763
0.619352
0.618898
0.618484
0.618026
0.617608
0.617146
0.616724
0.616259
0.615833
0.615365
0.614936
0.614465
0.614034
0.61356
0.613127
0.612653
0.612219
0.611744
0.611309
0.610833
0.610399
0.609924
0.609494
0.609021
0.608593
0.608123
0.607698
0.607232
0.606812
0.606349
0.605934
0.605476
0.605066
0.604613
0.604209
0.603761
0.603363
0.602918
0.602526
0.602086
0.601699
0.601261
0.600879
0.600444
0.600066
0.599631
0.599256
0.598822
0.598449
0.598014
0.597643
0.597206
0.596835
0.596395
0.596024
0.595581
0.595209
0.594762
0.594389
0.593937
0.593563
0.593107
0.59273
0.59227
0.591891
0.591426
0.591046
0.590577
0.590195
0.589721
0.589338
0.588859
0.588476
0.587992
0.587609
0.587121
0.586737
0.586246
0.58586
0.585368
0.584979
0.584485
0.584096
0.5836
0.583209
0.582711
0.58232
0.581819
0.581427
0.580924
0.580531
0.580027
0.579633
0.579127
0.578731
0.578224
0.577827
0.577317
0.576921
0.576405
0.576013
0.575489
0.575104
0.574568
0.574193
0.573641
0.57328
0.57271
0.572365
0.571774
0.571446
0.570835
0.570523
0.569891
0.569597
0.568943
0.568667
0.567991
0.567733
0.567036
0.566794
0.566077
0.56585
0.565114
0.564901
0.564149
0.563946
0.563182
0.562986
0.56221
0.562021
0.561235
0.561051
0.560257
0.560076
0.559275
0.559096
0.558289
0.55811
0.557301
0.557119
0.556308
0.556123
0.555312
0.555124
0.55431
0.55412
0.553304
0.553111
0.552294
0.552098
0.55128
0.55108
0.55026
0.550058
0.549236
0.549031
0.548206
0.547999
0.547171
0.546961
0.546131
0.545917
0.545086
0.544866
0.544035
0.543809
0.542977
0.542746
0.541911
0.541676
0.540838
0.540598
0.539758
0.539512
0.53867
0.538419
0.537574
0.537318
0.536469
0.536209
0.535357
0.535093
0.534235
0.53397
0.533108
0.532838
0.531975
0.531698
0.530836
0.530553
0.52969
0.529404
0.528539
0.528251
0.527385
0.527093
0.526227
0.525933
0.525066
0.52477
0.523904
0.523606
0.52274
0.522443
0.521574
0.521342
0.00734686
)
;

boundaryField
{
    inlet
    {
        type            calculated;
        value           uniform 0.805169;
    }
    outlet
    {
        type            calculated;
        value           uniform 0.573172;
    }
    emptyWalls
    {
        type            empty;
    }
}


// ************************************************************************* //
