/*--------------------------------*- C++ -*----------------------------------*\
  =========                 |
  \\      /  F ield         | OpenFOAM: The Open Source CFD Toolbox
   \\    /   O peration     | Website:  https://openfoam.org
    \\  /    A nd           | Version:  9
     \\/     M anipulation  |
\*---------------------------------------------------------------------------*/
FoamFile
{
    format      ascii;
    class       volVectorField;
    location    "28450";
    object      Uc;
}
// * * * * * * * * * * * * * * * * * * * * * * * * * * * * * * * * * * * * * //

dimensions      [0 0 0 0 0 0 0];

internalField   nonuniform List<vector> 
1000
(
(3.16667e-12 0 0)
(1.60622e-11 0 0)
(4.45404e-11 0 0)
(9.07633e-11 0 0)
(1.5428e-10 0 0)
(2.34901e-10 0 0)
(3.32604e-10 0 0)
(4.47457e-10 0 0)
(5.79565e-10 0 0)
(7.29046e-10 0 0)
(8.96031e-10 0 0)
(1.08056e-09 0 0)
(1.28265e-09 0 0)
(1.50219e-09 0 0)
(1.73891e-09 0 0)
(1.9924e-09 0 0)
(2.26194e-09 0 0)
(2.54656e-09 0 0)
(2.84491e-09 0 0)
(3.15518e-09 0 0)
(3.47511e-09 0 0)
(3.80189e-09 0 0)
(4.13221e-09 0 0)
(4.46225e-09 0 0)
(4.78797e-09 0 0)
(5.10514e-09 0 0)
(5.40979e-09 0 0)
(5.69848e-09 0 0)
(5.9683e-09 0 0)
(6.21754e-09 0 0)
(6.44515e-09 0 0)
(6.65119e-09 0 0)
(6.83662e-09 0 0)
(7.0036e-09 0 0)
(7.15846e-09 0 0)
(7.32486e-09 0 0)
(7.60758e-09 0 0)
(8.46752e-09 0 0)
(1.16456e-08 0 0)
(2.57176e-08 0 0)
(9.95523e-08 0 0)
(1.81111e-07 0 0)
(2.05706e-07 0 0)
(2.13236e-07 0 0)
(2.16734e-07 0 0)
(2.18913e-07 0 0)
(2.20534e-07 0 0)
(2.21873e-07 0 0)
(2.23048e-07 0 0)
(2.24119e-07 0 0)
(2.25116e-07 0 0)
(2.2606e-07 0 0)
(2.26963e-07 0 0)
(2.27832e-07 0 0)
(2.28673e-07 0 0)
(2.29491e-07 0 0)
(2.30287e-07 0 0)
(2.31066e-07 0 0)
(2.31828e-07 0 0)
(2.32577e-07 0 0)
(2.33311e-07 0 0)
(2.34034e-07 0 0)
(2.34744e-07 0 0)
(2.35444e-07 0 0)
(2.36134e-07 0 0)
(2.36815e-07 0 0)
(2.3749e-07 0 0)
(2.38158e-07 0 0)
(2.38822e-07 0 0)
(2.39483e-07 0 0)
(2.40139e-07 0 0)
(2.40793e-07 0 0)
(2.41443e-07 0 0)
(2.42088e-07 0 0)
(2.4273e-07 0 0)
(2.43373e-07 0 0)
(2.44018e-07 0 0)
(2.44665e-07 0 0)
(2.45316e-07 0 0)
(2.45972e-07 0 0)
(2.46636e-07 0 0)
(2.47305e-07 0 0)
(2.4798e-07 0 0)
(2.48667e-07 0 0)
(2.49362e-07 0 0)
(2.50062e-07 0 0)
(2.50769e-07 0 0)
(2.5147e-07 0 0)
(2.52162e-07 0 0)
(2.52858e-07 0 0)
(2.53562e-07 0 0)
(2.54279e-07 0 0)
(2.55012e-07 0 0)
(2.55767e-07 0 0)
(2.56547e-07 0 0)
(2.57355e-07 0 0)
(2.58193e-07 0 0)
(2.59059e-07 0 0)
(2.59954e-07 0 0)
(2.60882e-07 0 0)
(2.61857e-07 0 0)
(2.62891e-07 0 0)
(2.6399e-07 0 0)
(2.65161e-07 0 0)
(2.66415e-07 0 0)
(2.67766e-07 0 0)
(2.69234e-07 0 0)
(2.70843e-07 0 0)
(2.72621e-07 0 0)
(2.74596e-07 0 0)
(2.76787e-07 0 0)
(2.79199e-07 0 0)
(2.81817e-07 0 0)
(2.84609e-07 0 0)
(2.87537e-07 0 0)
(2.90566e-07 0 0)
(2.93674e-07 0 0)
(2.96843e-07 0 0)
(3.00061e-07 0 0)
(3.0332e-07 0 0)
(3.06613e-07 0 0)
(3.09935e-07 0 0)
(3.13283e-07 0 0)
(3.16654e-07 0 0)
(3.20045e-07 0 0)
(3.23455e-07 0 0)
(3.26882e-07 0 0)
(3.30324e-07 0 0)
(3.33781e-07 0 0)
(3.37252e-07 0 0)
(3.40734e-07 0 0)
(3.44228e-07 0 0)
(3.47733e-07 0 0)
(3.51248e-07 0 0)
(3.54773e-07 0 0)
(3.58307e-07 0 0)
(3.6185e-07 0 0)
(3.654e-07 0 0)
(3.68959e-07 0 0)
(3.72526e-07 0 0)
(3.761e-07 0 0)
(3.79682e-07 0 0)
(3.8327e-07 0 0)
(3.86865e-07 0 0)
(3.90467e-07 0 0)
(3.94076e-07 0 0)
(3.97691e-07 0 0)
(4.01312e-07 0 0)
(4.04939e-07 0 0)
(4.08572e-07 0 0)
(4.12211e-07 0 0)
(4.15855e-07 0 0)
(4.19506e-07 0 0)
(4.23162e-07 0 0)
(4.26823e-07 0 0)
(4.3049e-07 0 0)
(4.34162e-07 0 0)
(4.37839e-07 0 0)
(4.41522e-07 0 0)
(4.4521e-07 0 0)
(4.48903e-07 0 0)
(4.52601e-07 0 0)
(4.56303e-07 0 0)
(4.6001e-07 0 0)
(4.63722e-07 0 0)
(4.67438e-07 0 0)
(4.71158e-07 0 0)
(4.74883e-07 0 0)
(4.78613e-07 0 0)
(4.82347e-07 0 0)
(4.86085e-07 0 0)
(4.89828e-07 0 0)
(4.93576e-07 0 0)
(4.97328e-07 0 0)
(5.01085e-07 0 0)
(5.04846e-07 0 0)
(5.08611e-07 0 0)
(5.12381e-07 0 0)
(5.16154e-07 0 0)
(5.19931e-07 0 0)
(5.23712e-07 0 0)
(5.27496e-07 0 0)
(5.31284e-07 0 0)
(5.35076e-07 0 0)
(5.38871e-07 0 0)
(5.42671e-07 0 0)
(5.46474e-07 0 0)
(5.50283e-07 0 0)
(5.54096e-07 0 0)
(5.57914e-07 0 0)
(5.61737e-07 0 0)
(5.65565e-07 0 0)
(5.69397e-07 0 0)
(5.73234e-07 0 0)
(5.77073e-07 0 0)
(5.80914e-07 0 0)
(5.84756e-07 0 0)
(5.88597e-07 0 0)
(5.92436e-07 0 0)
(5.96271e-07 0 0)
(6.00103e-07 0 0)
(6.0393e-07 0 0)
(6.07752e-07 0 0)
(6.11571e-07 0 0)
(6.15385e-07 0 0)
(6.19197e-07 0 0)
(6.23007e-07 0 0)
(6.26816e-07 0 0)
(6.30625e-07 0 0)
(6.34437e-07 0 0)
(6.38252e-07 0 0)
(6.42072e-07 0 0)
(6.459e-07 0 0)
(6.49738e-07 0 0)
(6.53587e-07 0 0)
(6.57449e-07 0 0)
(6.61327e-07 0 0)
(6.65221e-07 0 0)
(6.69134e-07 0 0)
(6.73064e-07 0 0)
(6.77013e-07 0 0)
(6.8098e-07 0 0)
(6.84964e-07 0 0)
(6.88962e-07 0 0)
(6.92974e-07 0 0)
(6.96998e-07 0 0)
(7.01029e-07 0 0)
(7.05068e-07 0 0)
(7.0911e-07 0 0)
(7.13154e-07 0 0)
(7.17198e-07 0 0)
(7.21241e-07 0 0)
(7.25282e-07 0 0)
(7.29319e-07 0 0)
(7.33352e-07 0 0)
(7.37382e-07 0 0)
(7.41409e-07 0 0)
(7.45432e-07 0 0)
(7.49452e-07 0 0)
(7.53471e-07 0 0)
(7.57488e-07 0 0)
(7.61505e-07 0 0)
(7.65522e-07 0 0)
(7.69541e-07 0 0)
(7.73561e-07 0 0)
(7.77583e-07 0 0)
(7.81609e-07 0 0)
(7.85637e-07 0 0)
(7.8967e-07 0 0)
(7.93706e-07 0 0)
(7.97746e-07 0 0)
(8.0179e-07 0 0)
(8.05838e-07 0 0)
(8.09891e-07 0 0)
(8.13947e-07 0 0)
(8.18008e-07 0 0)
(8.22072e-07 0 0)
(8.2614e-07 0 0)
(8.30212e-07 0 0)
(8.34288e-07 0 0)
(8.38366e-07 0 0)
(8.42449e-07 0 0)
(8.46534e-07 0 0)
(8.50622e-07 0 0)
(8.54714e-07 0 0)
(8.58808e-07 0 0)
(8.62906e-07 0 0)
(8.67006e-07 0 0)
(8.71108e-07 0 0)
(8.75214e-07 0 0)
(8.79322e-07 0 0)
(8.83433e-07 0 0)
(8.87546e-07 0 0)
(8.91661e-07 0 0)
(8.95779e-07 0 0)
(8.999e-07 0 0)
(9.04023e-07 0 0)
(9.08148e-07 0 0)
(9.12276e-07 0 0)
(9.16406e-07 0 0)
(9.20539e-07 0 0)
(9.24674e-07 0 0)
(9.28811e-07 0 0)
(9.3295e-07 0 0)
(9.37092e-07 0 0)
(9.41236e-07 0 0)
(9.45382e-07 0 0)
(9.4953e-07 0 0)
(9.53681e-07 0 0)
(9.57833e-07 0 0)
(9.61988e-07 0 0)
(9.66144e-07 0 0)
(9.70303e-07 0 0)
(9.74464e-07 0 0)
(9.78627e-07 0 0)
(9.82792e-07 0 0)
(9.86959e-07 0 0)
(9.91129e-07 0 0)
(9.95301e-07 0 0)
(9.99475e-07 0 0)
(1.00365e-06 0 0)
(1.00783e-06 0 0)
(1.01201e-06 0 0)
(1.01619e-06 0 0)
(1.02038e-06 0 0)
(1.02456e-06 0 0)
(1.02875e-06 0 0)
(1.03294e-06 0 0)
(1.03714e-06 0 0)
(1.04133e-06 0 0)
(1.04553e-06 0 0)
(1.04973e-06 0 0)
(1.05393e-06 0 0)
(1.05813e-06 0 0)
(1.06234e-06 0 0)
(1.06655e-06 0 0)
(1.07076e-06 0 0)
(1.07497e-06 0 0)
(1.07919e-06 0 0)
(1.08341e-06 0 0)
(1.08764e-06 0 0)
(1.09186e-06 0 0)
(1.09609e-06 0 0)
(1.10031e-06 0 0)
(1.10454e-06 0 0)
(1.10876e-06 0 0)
(1.11298e-06 0 0)
(1.1172e-06 0 0)
(1.12142e-06 0 0)
(1.12563e-06 0 0)
(1.12984e-06 0 0)
(1.13404e-06 0 0)
(1.13823e-06 0 0)
(1.14242e-06 0 0)
(1.14661e-06 0 0)
(1.15078e-06 0 0)
(1.15496e-06 0 0)
(1.15913e-06 0 0)
(1.1633e-06 0 0)
(1.16746e-06 0 0)
(1.17163e-06 0 0)
(1.17579e-06 0 0)
(1.17996e-06 0 0)
(1.18414e-06 0 0)
(1.18832e-06 0 0)
(1.19251e-06 0 0)
(1.19671e-06 0 0)
(1.20092e-06 0 0)
(1.20514e-06 0 0)
(1.20938e-06 0 0)
(1.21364e-06 0 0)
(1.21791e-06 0 0)
(1.2222e-06 0 0)
(1.22651e-06 0 0)
(1.23084e-06 0 0)
(1.23518e-06 0 0)
(1.23955e-06 0 0)
(1.24392e-06 0 0)
(1.24832e-06 0 0)
(1.25272e-06 0 0)
(1.25714e-06 0 0)
(1.26157e-06 0 0)
(1.266e-06 0 0)
(1.27044e-06 0 0)
(1.27488e-06 0 0)
(1.27932e-06 0 0)
(1.28376e-06 0 0)
(1.28821e-06 0 0)
(1.29265e-06 0 0)
(1.29708e-06 0 0)
(1.30151e-06 0 0)
(1.30594e-06 0 0)
(1.31037e-06 0 0)
(1.31479e-06 0 0)
(1.31921e-06 0 0)
(1.32362e-06 0 0)
(1.32803e-06 0 0)
(1.33244e-06 0 0)
(1.33685e-06 0 0)
(1.34126e-06 0 0)
(1.34566e-06 0 0)
(1.35007e-06 0 0)
(1.35448e-06 0 0)
(1.35888e-06 0 0)
(1.36329e-06 0 0)
(1.36771e-06 0 0)
(1.37212e-06 0 0)
(1.37654e-06 0 0)
(1.38096e-06 0 0)
(1.38538e-06 0 0)
(1.38981e-06 0 0)
(1.39424e-06 0 0)
(1.39867e-06 0 0)
(1.40311e-06 0 0)
(1.40755e-06 0 0)
(1.41199e-06 0 0)
(1.41644e-06 0 0)
(1.42089e-06 0 0)
(1.42535e-06 0 0)
(1.4298e-06 0 0)
(1.43426e-06 0 0)
(1.43873e-06 0 0)
(1.44319e-06 0 0)
(1.44766e-06 0 0)
(1.45213e-06 0 0)
(1.4566e-06 0 0)
(1.46108e-06 0 0)
(1.46556e-06 0 0)
(1.47004e-06 0 0)
(1.47452e-06 0 0)
(1.47901e-06 0 0)
(1.48349e-06 0 0)
(1.48798e-06 0 0)
(1.49247e-06 0 0)
(1.49697e-06 0 0)
(1.50146e-06 0 0)
(1.50596e-06 0 0)
(1.51046e-06 0 0)
(1.51496e-06 0 0)
(1.51947e-06 0 0)
(1.52397e-06 0 0)
(1.52848e-06 0 0)
(1.53299e-06 0 0)
(1.5375e-06 0 0)
(1.54201e-06 0 0)
(1.54652e-06 0 0)
(1.55104e-06 0 0)
(1.55556e-06 0 0)
(1.56008e-06 0 0)
(1.5646e-06 0 0)
(1.56912e-06 0 0)
(1.57365e-06 0 0)
(1.57818e-06 0 0)
(1.58271e-06 0 0)
(1.58724e-06 0 0)
(1.59177e-06 0 0)
(1.5963e-06 0 0)
(1.60084e-06 0 0)
(1.60538e-06 0 0)
(1.60992e-06 0 0)
(1.61446e-06 0 0)
(1.619e-06 0 0)
(1.62355e-06 0 0)
(1.6281e-06 0 0)
(1.63265e-06 0 0)
(1.6372e-06 0 0)
(1.64175e-06 0 0)
(1.6463e-06 0 0)
(1.65086e-06 0 0)
(1.65542e-06 0 0)
(1.65998e-06 0 0)
(1.66454e-06 0 0)
(1.66911e-06 0 0)
(1.67368e-06 0 0)
(1.67825e-06 0 0)
(1.68282e-06 0 0)
(1.6874e-06 0 0)
(1.69197e-06 0 0)
(1.69655e-06 0 0)
(1.70113e-06 0 0)
(1.70572e-06 0 0)
(1.7103e-06 0 0)
(1.71489e-06 0 0)
(1.71947e-06 0 0)
(1.72406e-06 0 0)
(1.72865e-06 0 0)
(1.73324e-06 0 0)
(1.73782e-06 0 0)
(1.7424e-06 0 0)
(1.74698e-06 0 0)
(1.75156e-06 0 0)
(1.75613e-06 0 0)
(1.7607e-06 0 0)
(1.76527e-06 0 0)
(1.76983e-06 0 0)
(1.77438e-06 0 0)
(1.77893e-06 0 0)
(1.78348e-06 0 0)
(1.78802e-06 0 0)
(1.79255e-06 0 0)
(1.79708e-06 0 0)
(1.80161e-06 0 0)
(1.80614e-06 0 0)
(1.81066e-06 0 0)
(1.81518e-06 0 0)
(1.81971e-06 0 0)
(1.82424e-06 0 0)
(1.82877e-06 0 0)
(1.8333e-06 0 0)
(1.83784e-06 0 0)
(1.8424e-06 0 0)
(1.84696e-06 0 0)
(1.85153e-06 0 0)
(1.85611e-06 0 0)
(1.86071e-06 0 0)
(1.86533e-06 0 0)
(1.86996e-06 0 0)
(1.87461e-06 0 0)
(1.87928e-06 0 0)
(1.88397e-06 0 0)
(1.88867e-06 0 0)
(1.89339e-06 0 0)
(1.89814e-06 0 0)
(1.90289e-06 0 0)
(1.90767e-06 0 0)
(1.91246e-06 0 0)
(1.91727e-06 0 0)
(1.92208e-06 0 0)
(1.92691e-06 0 0)
(1.93175e-06 0 0)
(1.93659e-06 0 0)
(1.94145e-06 0 0)
(1.9463e-06 0 0)
(1.95116e-06 0 0)
(1.95602e-06 0 0)
(1.96089e-06 0 0)
(1.96575e-06 0 0)
(1.97061e-06 0 0)
(1.97547e-06 0 0)
(1.98033e-06 0 0)
(1.98518e-06 0 0)
(1.99004e-06 0 0)
(1.99488e-06 0 0)
(1.99973e-06 0 0)
(2.00457e-06 0 0)
(2.00942e-06 0 0)
(2.01425e-06 0 0)
(2.01909e-06 0 0)
(2.02393e-06 0 0)
(2.02876e-06 0 0)
(2.0336e-06 0 0)
(2.03844e-06 0 0)
(2.04327e-06 0 0)
(2.04811e-06 0 0)
(2.05295e-06 0 0)
(2.05779e-06 0 0)
(2.06263e-06 0 0)
(2.06748e-06 0 0)
(2.07233e-06 0 0)
(2.07718e-06 0 0)
(2.08203e-06 0 0)
(2.08689e-06 0 0)
(2.09175e-06 0 0)
(2.09662e-06 0 0)
(2.10149e-06 0 0)
(2.10636e-06 0 0)
(2.11124e-06 0 0)
(2.11611e-06 0 0)
(2.121e-06 0 0)
(2.12589e-06 0 0)
(2.13078e-06 0 0)
(2.13567e-06 0 0)
(2.14057e-06 0 0)
(2.14547e-06 0 0)
(2.15037e-06 0 0)
(2.15528e-06 0 0)
(2.16019e-06 0 0)
(2.1651e-06 0 0)
(2.17002e-06 0 0)
(2.17494e-06 0 0)
(2.17986e-06 0 0)
(2.18478e-06 0 0)
(2.18971e-06 0 0)
(2.19464e-06 0 0)
(2.19957e-06 0 0)
(2.20451e-06 0 0)
(2.20945e-06 0 0)
(2.21439e-06 0 0)
(2.21933e-06 0 0)
(2.22427e-06 0 0)
(2.22922e-06 0 0)
(2.23417e-06 0 0)
(2.23912e-06 0 0)
(2.24408e-06 0 0)
(2.24903e-06 0 0)
(2.25399e-06 0 0)
(2.25895e-06 0 0)
(2.26392e-06 0 0)
(2.26888e-06 0 0)
(2.27385e-06 0 0)
(2.27882e-06 0 0)
(2.2838e-06 0 0)
(2.28877e-06 0 0)
(2.29375e-06 0 0)
(2.29873e-06 0 0)
(2.30371e-06 0 0)
(2.3087e-06 0 0)
(2.31368e-06 0 0)
(2.31867e-06 0 0)
(2.32367e-06 0 0)
(2.32866e-06 0 0)
(2.33366e-06 0 0)
(2.33866e-06 0 0)
(2.34366e-06 0 0)
(2.34866e-06 0 0)
(2.35367e-06 0 0)
(2.35868e-06 0 0)
(2.36369e-06 0 0)
(2.3687e-06 0 0)
(2.37372e-06 0 0)
(2.37874e-06 0 0)
(2.38376e-06 0 0)
(2.38879e-06 0 0)
(2.39382e-06 0 0)
(2.39885e-06 0 0)
(2.40388e-06 0 0)
(2.40892e-06 0 0)
(2.41396e-06 0 0)
(2.419e-06 0 0)
(2.42404e-06 0 0)
(2.42909e-06 0 0)
(2.43414e-06 0 0)
(2.43919e-06 0 0)
(2.44425e-06 0 0)
(2.4493e-06 0 0)
(2.45436e-06 0 0)
(2.45942e-06 0 0)
(2.46448e-06 0 0)
(2.46954e-06 0 0)
(2.4746e-06 0 0)
(2.47966e-06 0 0)
(2.48472e-06 0 0)
(2.48978e-06 0 0)
(2.49483e-06 0 0)
(2.49989e-06 0 0)
(2.50494e-06 0 0)
(2.50998e-06 0 0)
(2.51503e-06 0 0)
(2.52007e-06 0 0)
(2.5251e-06 0 0)
(2.53014e-06 0 0)
(2.53517e-06 0 0)
(2.54019e-06 0 0)
(2.54521e-06 0 0)
(2.55023e-06 0 0)
(2.55525e-06 0 0)
(2.56026e-06 0 0)
(2.56528e-06 0 0)
(2.57029e-06 0 0)
(2.5753e-06 0 0)
(2.58032e-06 0 0)
(2.58533e-06 0 0)
(2.59035e-06 0 0)
(2.59538e-06 0 0)
(2.60041e-06 0 0)
(2.60545e-06 0 0)
(2.6105e-06 0 0)
(2.61555e-06 0 0)
(2.62062e-06 0 0)
(2.62571e-06 0 0)
(2.6308e-06 0 0)
(2.63591e-06 0 0)
(2.64104e-06 0 0)
(2.64619e-06 0 0)
(2.65135e-06 0 0)
(2.65653e-06 0 0)
(2.66173e-06 0 0)
(2.66695e-06 0 0)
(2.67219e-06 0 0)
(2.67745e-06 0 0)
(2.68273e-06 0 0)
(2.68803e-06 0 0)
(2.69334e-06 0 0)
(2.69867e-06 0 0)
(2.70402e-06 0 0)
(2.70938e-06 0 0)
(2.71476e-06 0 0)
(2.72015e-06 0 0)
(2.72555e-06 0 0)
(2.73096e-06 0 0)
(2.73638e-06 0 0)
(2.74181e-06 0 0)
(2.74724e-06 0 0)
(2.75268e-06 0 0)
(2.75812e-06 0 0)
(2.76357e-06 0 0)
(2.76901e-06 0 0)
(2.77446e-06 0 0)
(2.77991e-06 0 0)
(2.78536e-06 0 0)
(2.7908e-06 0 0)
(2.79625e-06 0 0)
(2.8017e-06 0 0)
(2.80714e-06 0 0)
(2.81258e-06 0 0)
(2.81803e-06 0 0)
(2.82347e-06 0 0)
(2.82891e-06 0 0)
(2.83435e-06 0 0)
(2.8398e-06 0 0)
(2.84524e-06 0 0)
(2.85068e-06 0 0)
(2.85613e-06 0 0)
(2.86157e-06 0 0)
(2.86702e-06 0 0)
(2.87247e-06 0 0)
(2.87793e-06 0 0)
(2.88339e-06 0 0)
(2.88885e-06 0 0)
(2.89431e-06 0 0)
(2.89978e-06 0 0)
(2.90525e-06 0 0)
(2.91073e-06 0 0)
(2.91621e-06 0 0)
(2.92169e-06 0 0)
(2.92719e-06 0 0)
(2.93268e-06 0 0)
(2.93818e-06 0 0)
(2.94369e-06 0 0)
(2.9492e-06 0 0)
(2.95471e-06 0 0)
(2.96023e-06 0 0)
(2.96576e-06 0 0)
(2.97129e-06 0 0)
(2.97682e-06 0 0)
(2.98236e-06 0 0)
(2.9879e-06 0 0)
(2.99345e-06 0 0)
(2.99901e-06 0 0)
(3.00457e-06 0 0)
(3.01013e-06 0 0)
(3.0157e-06 0 0)
(3.02127e-06 0 0)
(3.02685e-06 0 0)
(3.03243e-06 0 0)
(3.03801e-06 0 0)
(3.0436e-06 0 0)
(3.0492e-06 0 0)
(3.05479e-06 0 0)
(3.0604e-06 0 0)
(3.066e-06 0 0)
(3.07161e-06 0 0)
(3.07723e-06 0 0)
(3.08285e-06 0 0)
(3.08847e-06 0 0)
(3.0941e-06 0 0)
(3.09973e-06 0 0)
(3.10536e-06 0 0)
(3.111e-06 0 0)
(3.11664e-06 0 0)
(3.12229e-06 0 0)
(3.12794e-06 0 0)
(3.1336e-06 0 0)
(3.13926e-06 0 0)
(3.14492e-06 0 0)
(3.15059e-06 0 0)
(3.15626e-06 0 0)
(3.16193e-06 0 0)
(3.16761e-06 0 0)
(3.17329e-06 0 0)
(3.17898e-06 0 0)
(3.18467e-06 0 0)
(3.19037e-06 0 0)
(3.19607e-06 0 0)
(3.20178e-06 0 0)
(3.20748e-06 0 0)
(3.2132e-06 0 0)
(3.21892e-06 0 0)
(3.22464e-06 0 0)
(3.23036e-06 0 0)
(3.2361e-06 0 0)
(3.24183e-06 0 0)
(3.24757e-06 0 0)
(3.25332e-06 0 0)
(3.25907e-06 0 0)
(3.26482e-06 0 0)
(3.27058e-06 0 0)
(3.27634e-06 0 0)
(3.28211e-06 0 0)
(3.28788e-06 0 0)
(3.29366e-06 0 0)
(3.29944e-06 0 0)
(3.30523e-06 0 0)
(3.31102e-06 0 0)
(3.31682e-06 0 0)
(3.32261e-06 0 0)
(3.32842e-06 0 0)
(3.33422e-06 0 0)
(3.34003e-06 0 0)
(3.34585e-06 0 0)
(3.35166e-06 0 0)
(3.35748e-06 0 0)
(3.3633e-06 0 0)
(3.36913e-06 0 0)
(3.37495e-06 0 0)
(3.38078e-06 0 0)
(3.3866e-06 0 0)
(3.39243e-06 0 0)
(3.39826e-06 0 0)
(3.40409e-06 0 0)
(3.40991e-06 0 0)
(3.41574e-06 0 0)
(3.42156e-06 0 0)
(3.42739e-06 0 0)
(3.43321e-06 0 0)
(3.43904e-06 0 0)
(3.44486e-06 0 0)
(3.45068e-06 0 0)
(3.4565e-06 0 0)
(3.46232e-06 0 0)
(3.46814e-06 0 0)
(3.47396e-06 0 0)
(3.47978e-06 0 0)
(3.4856e-06 0 0)
(3.49142e-06 0 0)
(3.49725e-06 0 0)
(3.50309e-06 0 0)
(3.50892e-06 0 0)
(3.51477e-06 0 0)
(3.52062e-06 0 0)
(3.52648e-06 0 0)
(3.53234e-06 0 0)
(3.53822e-06 0 0)
(3.5441e-06 0 0)
(3.55001e-06 0 0)
(3.55592e-06 0 0)
(3.56186e-06 0 0)
(3.5678e-06 0 0)
(3.57377e-06 0 0)
(3.57975e-06 0 0)
(3.58575e-06 0 0)
(3.59178e-06 0 0)
(3.59782e-06 0 0)
(3.60388e-06 0 0)
(3.60997e-06 0 0)
(3.61608e-06 0 0)
(3.62221e-06 0 0)
(3.62836e-06 0 0)
(3.63454e-06 0 0)
(3.64074e-06 0 0)
(3.64696e-06 0 0)
(3.6532e-06 0 0)
(3.65946e-06 0 0)
(3.66574e-06 0 0)
(3.67204e-06 0 0)
(3.67836e-06 0 0)
(3.6847e-06 0 0)
(3.69105e-06 0 0)
(3.69742e-06 0 0)
(3.7038e-06 0 0)
(3.7102e-06 0 0)
(3.71661e-06 0 0)
(3.72302e-06 0 0)
(3.72945e-06 0 0)
(3.73589e-06 0 0)
(3.74233e-06 0 0)
(3.74878e-06 0 0)
(3.75524e-06 0 0)
(3.7617e-06 0 0)
(3.76817e-06 0 0)
(3.77464e-06 0 0)
(3.78111e-06 0 0)
(3.78759e-06 0 0)
(3.79407e-06 0 0)
(3.80056e-06 0 0)
(3.80705e-06 0 0)
(3.81354e-06 0 0)
(3.82004e-06 0 0)
(3.82654e-06 0 0)
(3.83304e-06 0 0)
(3.83955e-06 0 0)
(3.84606e-06 0 0)
(3.85258e-06 0 0)
(3.8591e-06 0 0)
(3.86563e-06 0 0)
(3.87216e-06 0 0)
(3.8787e-06 0 0)
(3.88524e-06 0 0)
(3.8918e-06 0 0)
(3.89835e-06 0 0)
(3.90492e-06 0 0)
(3.91149e-06 0 0)
(3.91807e-06 0 0)
(3.92466e-06 0 0)
(3.93126e-06 0 0)
(3.93787e-06 0 0)
(3.94448e-06 0 0)
(3.9511e-06 0 0)
(3.95773e-06 0 0)
(3.96438e-06 0 0)
(3.97103e-06 0 0)
(3.97768e-06 0 0)
(3.98435e-06 0 0)
(3.99103e-06 0 0)
(3.99772e-06 0 0)
(4.00441e-06 0 0)
(4.01112e-06 0 0)
(4.01783e-06 0 0)
(4.02456e-06 0 0)
(4.03129e-06 0 0)
(4.03804e-06 0 0)
(4.04479e-06 0 0)
(4.05155e-06 0 0)
(4.05832e-06 0 0)
(4.06511e-06 0 0)
(4.0719e-06 0 0)
(4.0787e-06 0 0)
(4.08551e-06 0 0)
(4.09233e-06 0 0)
(4.09915e-06 0 0)
(4.10599e-06 0 0)
(4.11284e-06 0 0)
(4.11969e-06 0 0)
(4.12656e-06 0 0)
(4.13343e-06 0 0)
(4.14032e-06 0 0)
(4.14721e-06 0 0)
(4.15411e-06 0 0)
(4.16102e-06 0 0)
(4.16795e-06 0 0)
(4.17488e-06 0 0)
(4.18182e-06 0 0)
(4.18877e-06 0 0)
(4.19573e-06 0 0)
(4.20269e-06 0 0)
(4.20967e-06 0 0)
(4.21666e-06 0 0)
(4.22366e-06 0 0)
(4.23066e-06 0 0)
(4.23768e-06 0 0)
(4.24471e-06 0 0)
(4.25174e-06 0 0)
(4.25879e-06 0 0)
(4.26585e-06 0 0)
(4.27291e-06 0 0)
(4.27999e-06 0 0)
(4.28708e-06 0 0)
(4.29418e-06 0 0)
(4.30128e-06 0 0)
(4.3084e-06 0 0)
(4.31553e-06 0 0)
(4.32267e-06 0 0)
(4.32982e-06 0 0)
(4.33698e-06 0 0)
(4.34416e-06 0 0)
(4.35134e-06 0 0)
(4.35853e-06 0 0)
(4.36574e-06 0 0)
(4.37295e-06 0 0)
(4.38018e-06 0 0)
(4.38742e-06 0 0)
(4.39467e-06 0 0)
(4.40193e-06 0 0)
(4.40921e-06 0 0)
(4.41649e-06 0 0)
(4.42379e-06 0 0)
(4.43109e-06 0 0)
(4.43841e-06 0 0)
(4.44574e-06 0 0)
(4.45308e-06 0 0)
(4.46043e-06 0 0)
(4.4678e-06 0 0)
(4.47517e-06 0 0)
(4.48255e-06 0 0)
(4.48995e-06 0 0)
(4.49735e-06 0 0)
(4.50477e-06 0 0)
(4.51219e-06 0 0)
(4.51962e-06 0 0)
(4.52706e-06 0 0)
(4.53452e-06 0 0)
(4.54198e-06 0 0)
(4.54945e-06 0 0)
(4.55692e-06 0 0)
(4.56441e-06 0 0)
(4.5719e-06 0 0)
(4.57941e-06 0 0)
(4.58692e-06 0 0)
(4.59443e-06 0 0)
(4.60196e-06 0 0)
(4.60949e-06 0 0)
(4.61704e-06 0 0)
(4.62459e-06 0 0)
(4.63215e-06 0 0)
(4.63972e-06 0 0)
(4.64729e-06 0 0)
(4.65488e-06 0 0)
(4.66248e-06 0 0)
(4.67009e-06 0 0)
(4.67771e-06 0 0)
(4.68534e-06 0 0)
(4.69299e-06 0 0)
(4.70065e-06 0 0)
(4.70833e-06 0 0)
(4.71602e-06 0 0)
(4.72373e-06 0 0)
(4.73145e-06 0 0)
(4.7392e-06 0 0)
(4.74696e-06 0 0)
(4.75474e-06 0 0)
(4.76254e-06 0 0)
(4.77037e-06 0 0)
(4.77822e-06 0 0)
(4.78609e-06 0 0)
(4.79399e-06 0 0)
(4.80191e-06 0 0)
(4.80987e-06 0 0)
(4.81785e-06 0 0)
(4.82586e-06 0 0)
(5.13643e-06 0 0)
)
;

boundaryField
{
    inlet
    {
        type            fixedValue;
        value           uniform (0 0 0);
    }
    outlet
    {
        type            zeroGradient;
    }
    emptyWalls
    {
        type            empty;
    }
}


// ************************************************************************* //
