/*--------------------------------*- C++ -*----------------------------------*\
  =========                 |
  \\      /  F ield         | OpenFOAM: The Open Source CFD Toolbox
   \\    /   O peration     | Website:  https://openfoam.org
    \\  /    A nd           | Version:  9
     \\/     M anipulation  |
\*---------------------------------------------------------------------------*/
FoamFile
{
    format      ascii;
    class       volScalarField;
    location    "4400";
    object      kra;
}
// * * * * * * * * * * * * * * * * * * * * * * * * * * * * * * * * * * * * * //

dimensions      [0 0 0 0 0 0 0];

internalField   nonuniform List<scalar> 
100
(
4.0717e-05
3.02997e-05
3.27569e-05
3.14167e-05
3.13667e-05
3.10279e-05
3.08636e-05
3.06407e-05
3.04487e-05
3.02633e-05
3.00935e-05
2.99292e-05
2.97783e-05
2.9632e-05
2.94961e-05
2.93651e-05
2.92412e-05
2.91245e-05
2.90085e-05
2.89028e-05
2.87953e-05
2.86961e-05
2.85971e-05
2.85045e-05
2.84105e-05
2.83237e-05
2.82348e-05
2.81521e-05
2.80675e-05
2.79878e-05
2.79009e-05
2.78096e-05
2.76917e-05
2.75546e-05
2.73526e-05
2.73576e-05
2.74014e-05
2.74268e-05
2.74575e-05
2.74871e-05
2.75133e-05
2.75398e-05
2.75634e-05
2.75885e-05
2.7611e-05
2.76352e-05
2.76563e-05
2.76782e-05
2.7698e-05
2.77186e-05
2.7738e-05
2.77579e-05
2.77761e-05
2.77947e-05
2.78114e-05
2.78286e-05
2.78439e-05
2.78601e-05
2.78743e-05
2.78903e-05
2.79035e-05
2.79184e-05
2.79304e-05
2.79438e-05
2.79551e-05
2.79678e-05
2.79786e-05
2.79904e-05
2.79995e-05
2.80103e-05
2.80187e-05
2.80289e-05
2.80382e-05
2.80451e-05
2.80598e-05
2.80563e-05
2.80828e-05
2.80678e-05
2.80958e-05
2.80801e-05
2.81093e-05
2.80914e-05
2.81187e-05
2.81012e-05
2.81277e-05
2.8109e-05
2.81343e-05
2.81156e-05
2.81398e-05
2.81203e-05
2.81435e-05
2.81238e-05
2.81461e-05
2.81263e-05
2.8148e-05
2.81279e-05
2.81487e-05
2.81285e-05
2.81513e-05
7.28689e-05
)
;

boundaryField
{
    inlet
    {
        type            calculated;
        value           uniform 1.22019e-05;
    }
    outlet
    {
        type            calculated;
        value           uniform 8.59106e-06;
    }
    emptyWalls
    {
        type            empty;
    }
}


// ************************************************************************* //
