/*--------------------------------*- C++ -*----------------------------------*\
  =========                 |
  \\      /  F ield         | OpenFOAM: The Open Source CFD Toolbox
   \\    /   O peration     | Website:  https://openfoam.org
    \\  /    A nd           | Version:  9
     \\/     M anipulation  |
\*---------------------------------------------------------------------------*/
FoamFile
{
    format      ascii;
    class       volScalarField;
    location    "4400";
    object      p;
}
// * * * * * * * * * * * * * * * * * * * * * * * * * * * * * * * * * * * * * //

dimensions      [0 0 0 0 0 0 0];

internalField   nonuniform List<scalar> 
100
(
6.09879e+06
6.09081e+06
6.08009e+06
6.07018e+06
6.05984e+06
6.04949e+06
6.03901e+06
6.02848e+06
6.01787e+06
6.00721e+06
5.99649e+06
5.98571e+06
5.97489e+06
5.96402e+06
5.9531e+06
5.94214e+06
5.93114e+06
5.9201e+06
5.90902e+06
5.8979e+06
5.88676e+06
5.87558e+06
5.86437e+06
5.85313e+06
5.84186e+06
5.83056e+06
5.81923e+06
5.80788e+06
5.7965e+06
5.78509e+06
5.77366e+06
5.76221e+06
5.75072e+06
5.73919e+06
5.72761e+06
5.716e+06
5.70442e+06
5.69287e+06
5.68134e+06
5.66985e+06
5.65837e+06
5.64692e+06
5.63549e+06
5.62409e+06
5.61271e+06
5.60135e+06
5.59001e+06
5.57869e+06
5.5674e+06
5.55613e+06
5.54487e+06
5.53364e+06
5.52243e+06
5.51124e+06
5.50007e+06
5.48892e+06
5.47779e+06
5.46668e+06
5.45559e+06
5.44452e+06
5.43347e+06
5.42244e+06
5.41143e+06
5.40044e+06
5.38947e+06
5.37851e+06
5.36758e+06
5.35666e+06
5.34577e+06
5.33489e+06
5.32403e+06
5.31319e+06
5.30237e+06
5.29157e+06
5.28078e+06
5.27001e+06
5.25926e+06
5.24854e+06
5.23782e+06
5.22713e+06
5.21645e+06
5.20579e+06
5.19515e+06
5.18453e+06
5.17392e+06
5.16333e+06
5.15276e+06
5.14221e+06
5.13167e+06
5.12116e+06
5.11065e+06
5.10017e+06
5.0897e+06
5.07926e+06
5.06882e+06
5.05841e+06
5.04801e+06
5.03763e+06
5.02726e+06
5.01693e+06
)
;

boundaryField
{
    inlet
    {
        type            darcyGradPressure;
        gradient        uniform 3.91283e+06;
        Mf              Mf;
        phi             phi;
        value           uniform 6.10662e+06;
    }
    outlet
    {
        type            fixedValue;
        value           uniform 5e+06;
    }
    emptyWalls
    {
        type            empty;
    }
}


// ************************************************************************* //
