/*--------------------------------*- C++ -*----------------------------------*\
  =========                 |
  \\      /  F ield         | OpenFOAM: The Open Source CFD Toolbox
   \\    /   O peration     | Website:  https://openfoam.org
    \\  /    A nd           | Version:  9
     \\/     M anipulation  |
\*---------------------------------------------------------------------------*/
FoamFile
{
    format      ascii;
    class       surfaceScalarField;
    location    "4400";
    object      phia;
}
// * * * * * * * * * * * * * * * * * * * * * * * * * * * * * * * * * * * * * //

dimensions      [0 2 0 0 0 0 0];

internalField   nonuniform List<scalar> 
99
(
1.42073e-08
1.42018e-08
1.41957e-08
1.4186e-08
1.41733e-08
1.41704e-08
1.41654e-08
1.41588e-08
1.41516e-08
1.41441e-08
1.41362e-08
1.41279e-08
1.41199e-08
1.4111e-08
1.41028e-08
1.40935e-08
1.40857e-08
1.4076e-08
1.40673e-08
1.40583e-08
1.40487e-08
1.40397e-08
1.40307e-08
1.40213e-08
1.40122e-08
1.40029e-08
1.39932e-08
1.39836e-08
1.39741e-08
1.39641e-08
1.39529e-08
1.39394e-08
1.3922e-08
1.39002e-08
1.38776e-08
1.38574e-08
1.38408e-08
1.38244e-08
1.38093e-08
1.37943e-08
1.37792e-08
1.37637e-08
1.37484e-08
1.37332e-08
1.37181e-08
1.3703e-08
1.36874e-08
1.36717e-08
1.36558e-08
1.36402e-08
1.36246e-08
1.36089e-08
1.35929e-08
1.35768e-08
1.35604e-08
1.35437e-08
1.3527e-08
1.351e-08
1.34933e-08
1.34764e-08
1.34594e-08
1.34421e-08
1.34245e-08
1.3407e-08
1.33893e-08
1.33717e-08
1.33539e-08
1.33358e-08
1.33174e-08
1.32991e-08
1.32806e-08
1.32624e-08
1.32446e-08
1.32253e-08
1.32081e-08
1.31874e-08
1.31689e-08
1.31506e-08
1.31317e-08
1.31123e-08
1.30926e-08
1.30734e-08
1.30543e-08
1.30347e-08
1.30144e-08
1.29944e-08
1.29746e-08
1.29546e-08
1.29341e-08
1.29136e-08
1.28932e-08
1.28728e-08
1.28522e-08
1.28317e-08
1.28112e-08
1.27907e-08
1.27703e-08
1.27497e-08
1.27291e-08
)
;

boundaryField
{
    inlet
    {
        type            calculated;
        value           uniform -1.42126e-08;
    }
    outlet
    {
        type            calculated;
        value           uniform 1.27162e-08;
    }
    emptyWalls
    {
        type            empty;
        value           nonuniform List<scalar> 0();
    }
}


// ************************************************************************* //
