/*--------------------------------*- C++ -*----------------------------------*\
  =========                 |
  \\      /  F ield         | OpenFOAM: The Open Source CFD Toolbox
   \\    /   O peration     | Website:  https://openfoam.org
    \\  /    A nd           | Version:  9
     \\/     M anipulation  |
\*---------------------------------------------------------------------------*/
FoamFile
{
    format      ascii;
    class       surfaceScalarField;
    location    "4400";
    object      phib;
}
// * * * * * * * * * * * * * * * * * * * * * * * * * * * * * * * * * * * * * //

dimensions      [0 2 0 0 0 0 0];

internalField   nonuniform List<scalar> 
99
(
6.09093e-09
6.0907e-09
6.09044e-09
6.09343e-09
6.09901e-09
6.09454e-09
6.09184e-09
6.09062e-09
6.0898e-09
6.08893e-09
6.08836e-09
6.08794e-09
6.08711e-09
6.08702e-09
6.08613e-09
6.0863e-09
6.08496e-09
6.08531e-09
6.08469e-09
6.08429e-09
6.08447e-09
6.08392e-09
6.08333e-09
6.0831e-09
6.0826e-09
6.08214e-09
6.08199e-09
6.08174e-09
6.08128e-09
6.08078e-09
6.08026e-09
6.07971e-09
6.07904e-09
6.0781e-09
6.0771e-09
6.07773e-09
6.07828e-09
6.07931e-09
6.07957e-09
6.08e-09
6.08069e-09
6.08167e-09
6.08245e-09
6.08307e-09
6.08346e-09
6.08377e-09
6.08456e-09
6.08525e-09
6.08605e-09
6.08646e-09
6.08675e-09
6.08705e-09
6.08744e-09
6.08795e-09
6.08859e-09
6.08942e-09
6.09014e-09
6.09101e-09
6.09147e-09
6.09209e-09
6.09267e-09
6.09335e-09
6.09436e-09
6.09512e-09
6.09596e-09
6.09658e-09
6.09732e-09
6.09821e-09
6.09937e-09
6.10032e-09
6.10123e-09
6.10186e-09
6.10221e-09
6.10296e-09
6.10375e-09
6.1047e-09
6.10558e-09
6.10644e-09
6.10722e-09
6.108e-09
6.10878e-09
6.10959e-09
6.11049e-09
6.11146e-09
6.11254e-09
6.11362e-09
6.1147e-09
6.11581e-09
6.11702e-09
6.11826e-09
6.11951e-09
6.12073e-09
6.12188e-09
6.12297e-09
6.12397e-09
6.12495e-09
6.12592e-09
6.12691e-09
6.12793e-09
)
;

boundaryField
{
    inlet
    {
        type            calculated;
        value           uniform -6.09112e-09;
    }
    outlet
    {
        type            calculated;
        value           uniform 6.12768e-09;
    }
    emptyWalls
    {
        type            empty;
        value           nonuniform List<scalar> 0();
    }
}


// ************************************************************************* //
