/*--------------------------------*- C++ -*----------------------------------*\
  =========                 |
  \\      /  F ield         | OpenFOAM: The Open Source CFD Toolbox
   \\    /   O peration     | Website:  https://openfoam.org
    \\  /    A nd           | Version:  9
     \\/     M anipulation  |
\*---------------------------------------------------------------------------*/
FoamFile
{
    format      ascii;
    class       surfaceScalarField;
    location    "4400";
    object      phic;
}
// * * * * * * * * * * * * * * * * * * * * * * * * * * * * * * * * * * * * * //

dimensions      [0 2 0 0 0 0 0];

internalField   nonuniform List<scalar> 
99
(
5.49113e-12
1.12049e-11
1.75587e-11
2.43066e-11
3.14511e-11
3.88325e-11
4.64489e-11
5.42935e-11
6.23669e-11
7.06682e-11
7.91769e-11
8.78668e-11
9.67112e-11
1.05678e-10
1.14754e-10
1.23903e-10
1.33127e-10
1.42404e-10
1.51743e-10
1.61136e-10
1.70583e-10
1.80094e-10
1.89664e-10
1.99294e-10
2.08986e-10
2.18725e-10
2.28509e-10
2.38363e-10
2.48388e-10
2.58886e-10
2.70534e-10
2.84593e-10
3.0267e-10
3.25461e-10
3.49071e-10
3.68605e-10
3.84693e-10
4.00055e-10
4.14833e-10
4.29402e-10
4.43888e-10
4.58372e-10
4.72897e-10
4.87493e-10
5.02171e-10
5.16947e-10
5.3182e-10
5.46799e-10
5.6188e-10
5.77079e-10
5.92392e-10
6.07822e-10
6.23361e-10
6.39008e-10
6.54772e-10
6.70644e-10
6.86631e-10
7.02724e-10
7.18935e-10
7.35264e-10
7.51694e-10
7.68235e-10
7.84881e-10
8.0163e-10
8.18501e-10
8.3546e-10
8.52553e-10
8.69717e-10
8.87004e-10
9.04361e-10
9.21871e-10
9.39497e-10
9.56954e-10
9.75493e-10
9.91917e-10
1.0116e-09
1.02928e-09
1.04674e-09
1.06478e-09
1.08343e-09
1.10231e-09
1.12076e-09
1.13899e-09
1.15761e-09
1.17676e-09
1.19576e-09
1.21448e-09
1.23333e-09
1.25258e-09
1.27186e-09
1.29105e-09
1.31025e-09
1.32961e-09
1.34905e-09
1.36857e-09
1.38805e-09
1.40757e-09
1.42712e-09
1.44673e-09
)
;

boundaryField
{
    inlet
    {
        type            calculated;
        value           uniform 0;
    }
    outlet
    {
        type            calculated;
        value           uniform 1.45983e-09;
    }
    emptyWalls
    {
        type            empty;
        value           nonuniform List<scalar> 0();
    }
}


// ************************************************************************* //
