/*--------------------------------*- C++ -*----------------------------------*\
  =========                 |
  \\      /  F ield         | OpenFOAM: The Open Source CFD Toolbox
   \\    /   O peration     | Website:  https://openfoam.org
    \\  /    A nd           | Version:  9
     \\/     M anipulation  |
\*---------------------------------------------------------------------------*/
FoamFile
{
    format      ascii;
    class       volVectorField;
    location    "4400";
    object      Ua;
}
// * * * * * * * * * * * * * * * * * * * * * * * * * * * * * * * * * * * * * //

dimensions      [0 0 0 0 0 0 0];

internalField   nonuniform List<vector> 
100
(
(0 0 8.97484e-06)
(0 0 1.13036e-05)
(0 0 1.1299e-05)
(0 0 1.12927e-05)
(0 0 1.12838e-05)
(0 0 1.12776e-05)
(0 0 1.12745e-05)
(0 0 1.12699e-05)
(0 0 1.12643e-05)
(0 0 1.12585e-05)
(0 0 1.12524e-05)
(0 0 1.12459e-05)
(0 0 1.12395e-05)
(0 0 1.12327e-05)
(0 0 1.1226e-05)
(0 0 1.1219e-05)
(0 0 1.12121e-05)
(0 0 1.12052e-05)
(0 0 1.11979e-05)
(0 0 1.11908e-05)
(0 0 1.11834e-05)
(0 0 1.1176e-05)
(0 0 1.11689e-05)
(0 0 1.11616e-05)
(0 0 1.11542e-05)
(0 0 1.11468e-05)
(0 0 1.11393e-05)
(0 0 1.11316e-05)
(0 0 1.1124e-05)
(0 0 1.11162e-05)
(0 0 1.11078e-05)
(0 0 1.1098e-05)
(0 0 1.10857e-05)
(0 0 1.10701e-05)
(0 0 1.10524e-05)
(0 0 1.10354e-05)
(0 0 1.10207e-05)
(0 0 1.10076e-05)
(0 0 1.09951e-05)
(0 0 1.09832e-05)
(0 0 1.09711e-05)
(0 0 1.0959e-05)
(0 0 1.09467e-05)
(0 0 1.09346e-05)
(0 0 1.09225e-05)
(0 0 1.09105e-05)
(0 0 1.08983e-05)
(0 0 1.08858e-05)
(0 0 1.08733e-05)
(0 0 1.08607e-05)
(0 0 1.08483e-05)
(0 0 1.08358e-05)
(0 0 1.08233e-05)
(0 0 1.08105e-05)
(0 0 1.07975e-05)
(0 0 1.07844e-05)
(0 0 1.07711e-05)
(0 0 1.07577e-05)
(0 0 1.07443e-05)
(0 0 1.07309e-05)
(0 0 1.07174e-05)
(0 0 1.07038e-05)
(0 0 1.06899e-05)
(0 0 1.06759e-05)
(0 0 1.06619e-05)
(0 0 1.06479e-05)
(0 0 1.06338e-05)
(0 0 1.06195e-05)
(0 0 1.0605e-05)
(0 0 1.05903e-05)
(0 0 1.05757e-05)
(0 0 1.05611e-05)
(0 0 1.05468e-05)
(0 0 1.0532e-05)
(0 0 1.05175e-05)
(0 0 1.05024e-05)
(0 0 1.04868e-05)
(0 0 1.04722e-05)
(0 0 1.04574e-05)
(0 0 1.04422e-05)
(0 0 1.04266e-05)
(0 0 1.04111e-05)
(0 0 1.03959e-05)
(0 0 1.03805e-05)
(0 0 1.03646e-05)
(0 0 1.03486e-05)
(0 0 1.03327e-05)
(0 0 1.03169e-05)
(0 0 1.03008e-05)
(0 0 1.02845e-05)
(0 0 1.02682e-05)
(0 0 1.02519e-05)
(0 0 1.02357e-05)
(0 0 1.02193e-05)
(0 0 1.0203e-05)
(0 0 1.01867e-05)
(0 0 1.01704e-05)
(0 0 1.01541e-05)
(0 0 1.01377e-05)
(0 0 1.01244e-05)
)
;

boundaryField
{
    inlet
    {
        type            fixedValue;
        value           uniform (0 0 1.131e-05);
    }
    outlet
    {
        type            zeroGradient;
    }
    emptyWalls
    {
        type            empty;
    }
}


// ************************************************************************* //
