/*--------------------------------*- C++ -*----------------------------------*\
  =========                 |
  \\      /  F ield         | OpenFOAM: The Open Source CFD Toolbox
   \\    /   O peration     | Website:  https://openfoam.org
    \\  /    A nd           | Version:  9
     \\/     M anipulation  |
\*---------------------------------------------------------------------------*/
FoamFile
{
    format      ascii;
    class       volVectorField;
    location    "4400";
    object      Ub;
}
// * * * * * * * * * * * * * * * * * * * * * * * * * * * * * * * * * * * * * //

dimensions      [0 0 0 0 0 0 0];

internalField   nonuniform List<vector> 
100
(
(0 0 7.17589e-06)
(0 0 4.84692e-06)
(0 0 4.84672e-06)
(0 0 4.84781e-06)
(0 0 4.85122e-06)
(0 0 4.85166e-06)
(0 0 4.84881e-06)
(0 0 4.84725e-06)
(0 0 4.84643e-06)
(0 0 4.84576e-06)
(0 0 4.84519e-06)
(0 0 4.84479e-06)
(0 0 4.8443e-06)
(0 0 4.84393e-06)
(0 0 4.84354e-06)
(0 0 4.84326e-06)
(0 0 4.84279e-06)
(0 0 4.84239e-06)
(0 0 4.84229e-06)
(0 0 4.84188e-06)
(0 0 4.8418e-06)
(0 0 4.84165e-06)
(0 0 4.8412e-06)
(0 0 4.84087e-06)
(0 0 4.84058e-06)
(0 0 4.84019e-06)
(0 0 4.83995e-06)
(0 0 4.83979e-06)
(0 0 4.83951e-06)
(0 0 4.83913e-06)
(0 0 4.83873e-06)
(0 0 4.8383e-06)
(0 0 4.83781e-06)
(0 0 4.83717e-06)
(0 0 4.8364e-06)
(0 0 4.83625e-06)
(0 0 4.83672e-06)
(0 0 4.83735e-06)
(0 0 4.83786e-06)
(0 0 4.83814e-06)
(0 0 4.83858e-06)
(0 0 4.83925e-06)
(0 0 4.83995e-06)
(0 0 4.8405e-06)
(0 0 4.84091e-06)
(0 0 4.84119e-06)
(0 0 4.84162e-06)
(0 0 4.84221e-06)
(0 0 4.84281e-06)
(0 0 4.84329e-06)
(0 0 4.84357e-06)
(0 0 4.8438e-06)
(0 0 4.84408e-06)
(0 0 4.84443e-06)
(0 0 4.84489e-06)
(0 0 4.84548e-06)
(0 0 4.84609e-06)
(0 0 4.84672e-06)
(0 0 4.84725e-06)
(0 0 4.84768e-06)
(0 0 4.84816e-06)
(0 0 4.84867e-06)
(0 0 4.84934e-06)
(0 0 4.85004e-06)
(0 0 4.85068e-06)
(0 0 4.85126e-06)
(0 0 4.8518e-06)
(0 0 4.85245e-06)
(0 0 4.85326e-06)
(0 0 4.8541e-06)
(0 0 4.85484e-06)
(0 0 4.85546e-06)
(0 0 4.85584e-06)
(0 0 4.85628e-06)
(0 0 4.85689e-06)
(0 0 4.85759e-06)
(0 0 4.85832e-06)
(0 0 4.85901e-06)
(0 0 4.85966e-06)
(0 0 4.86028e-06)
(0 0 4.8609e-06)
(0 0 4.86154e-06)
(0 0 4.86222e-06)
(0 0 4.86296e-06)
(0 0 4.86378e-06)
(0 0 4.86463e-06)
(0 0 4.86549e-06)
(0 0 4.86637e-06)
(0 0 4.86729e-06)
(0 0 4.86826e-06)
(0 0 4.86925e-06)
(0 0 4.87024e-06)
(0 0 4.87118e-06)
(0 0 4.87207e-06)
(0 0 4.8729e-06)
(0 0 4.87369e-06)
(0 0 4.87447e-06)
(0 0 4.87525e-06)
(0 0 4.87605e-06)
(0 0 4.87635e-06)
)
;

boundaryField
{
    inlet
    {
        type            fixedValue;
        value           uniform (0 0 4.84716e-06);
    }
    outlet
    {
        type            zeroGradient;
    }
    emptyWalls
    {
        type            empty;
    }
}


// ************************************************************************* //
