/*--------------------------------*- C++ -*----------------------------------*\
  =========                 |
  \\      /  F ield         | OpenFOAM: The Open Source CFD Toolbox
   \\    /   O peration     | Website:  https://openfoam.org
    \\  /    A nd           | Version:  9
     \\/     M anipulation  |
\*---------------------------------------------------------------------------*/
FoamFile
{
    format      ascii;
    class       volVectorField;
    location    "4400";
    object      Uc;
}
// * * * * * * * * * * * * * * * * * * * * * * * * * * * * * * * * * * * * * //

dimensions      [0 0 0 0 0 0 0];

internalField   nonuniform List<vector> 
100
(
(0 0 6.46924e-09)
(0 0 6.64312e-09)
(0 0 1.14446e-08)
(0 0 1.66577e-08)
(0 0 2.21853e-08)
(0 0 2.7965e-08)
(0 0 3.39324e-08)
(0 0 4.00841e-08)
(0 0 4.64177e-08)
(0 0 5.2933e-08)
(0 0 5.96215e-08)
(0 0 6.64646e-08)
(0 0 7.34413e-08)
(0 0 8.0528e-08)
(0 0 8.77069e-08)
(0 0 9.49583e-08)
(0 0 1.02269e-07)
(0 0 1.0963e-07)
(0 0 1.17037e-07)
(0 0 1.24491e-07)
(0 0 1.31986e-07)
(0 0 1.3953e-07)
(0 0 1.47122e-07)
(0 0 1.54761e-07)
(0 0 1.6245e-07)
(0 0 1.70181e-07)
(0 0 1.77949e-07)
(0 0 1.85762e-07)
(0 0 1.93672e-07)
(0 0 2.01838e-07)
(0 0 2.1065e-07)
(0 0 2.20878e-07)
(0 0 2.33665e-07)
(0 0 2.49925e-07)
(0 0 2.68387e-07)
(0 0 2.85554e-07)
(0 0 2.99727e-07)
(0 0 3.12241e-07)
(0 0 3.24234e-07)
(0 0 3.35911e-07)
(0 0 3.47471e-07)
(0 0 3.58998e-07)
(0 0 3.7054e-07)
(0 0 3.82127e-07)
(0 0 3.93775e-07)
(0 0 4.05494e-07)
(0 0 4.17291e-07)
(0 0 4.29169e-07)
(0 0 4.41129e-07)
(0 0 4.53177e-07)
(0 0 4.65318e-07)
(0 0 4.7755e-07)
(0 0 4.89872e-07)
(0 0 5.02281e-07)
(0 0 5.14779e-07)
(0 0 5.27366e-07)
(0 0 5.40042e-07)
(0 0 5.52807e-07)
(0 0 5.6566e-07)
(0 0 5.78608e-07)
(0 0 5.91642e-07)
(0 0 6.04761e-07)
(0 0 6.17965e-07)
(0 0 6.31253e-07)
(0 0 6.4463e-07)
(0 0 6.5809e-07)
(0 0 6.71639e-07)
(0 0 6.8527e-07)
(0 0 6.98977e-07)
(0 0 7.12761e-07)
(0 0 7.26635e-07)
(0 0 7.40615e-07)
(0 0 7.54574e-07)
(0 0 7.68896e-07)
(0 0 7.82808e-07)
(0 0 7.97176e-07)
(0 0 8.12044e-07)
(0 0 8.26024e-07)
(0 0 8.40147e-07)
(0 0 8.54744e-07)
(0 0 8.69676e-07)
(0 0 8.84531e-07)
(0 0 8.99125e-07)
(0 0 9.13786e-07)
(0 0 9.28816e-07)
(0 0 9.43994e-07)
(0 0 9.59001e-07)
(0 0 9.73953e-07)
(0 0 9.89115e-07)
(0 0 1.00444e-06)
(0 0 1.01975e-06)
(0 0 1.03502e-06)
(0 0 1.05037e-06)
(0 0 1.06581e-06)
(0 0 1.08131e-06)
(0 0 1.09682e-06)
(0 0 1.11234e-06)
(0 0 1.12789e-06)
(0 0 1.14347e-06)
(0 0 1.15648e-06)
)
;

boundaryField
{
    inlet
    {
        type            fixedValue;
        value           uniform (0 0 0);
    }
    outlet
    {
        type            zeroGradient;
    }
    emptyWalls
    {
        type            empty;
    }
}


// ************************************************************************* //
