/*--------------------------------*- C++ -*----------------------------------*\
  =========                 |
  \\      /  F ield         | OpenFOAM: The Open Source CFD Toolbox
   \\    /   O peration     | Website:  https://openfoam.org
    \\  /    A nd           | Version:  9
     \\/     M anipulation  |
\*---------------------------------------------------------------------------*/
FoamFile
{
    format      ascii;
    class       volScalarField;
    location    "98000";
    object      p;
}
// * * * * * * * * * * * * * * * * * * * * * * * * * * * * * * * * * * * * * //

dimensions      [0 0 0 0 0 0 0];

internalField   nonuniform List<scalar> 
100
(
4.40055e+06
4.35631e+06
4.31208e+06
4.26785e+06
4.22361e+06
4.17938e+06
4.13515e+06
4.09092e+06
4.04668e+06
4.00245e+06
3.95822e+06
3.91398e+06
3.86975e+06
3.82552e+06
3.78128e+06
3.73705e+06
3.69282e+06
3.64859e+06
3.60435e+06
3.56012e+06
3.51589e+06
3.47165e+06
3.42742e+06
3.38319e+06
3.33895e+06
3.29472e+06
3.25049e+06
3.20625e+06
3.16202e+06
3.11779e+06
3.07356e+06
3.02932e+06
2.98509e+06
2.94086e+06
2.89662e+06
2.85239e+06
2.80816e+06
2.76392e+06
2.71969e+06
2.67546e+06
2.63123e+06
2.58699e+06
2.54276e+06
2.49853e+06
2.45429e+06
2.41006e+06
2.36583e+06
2.32159e+06
2.27736e+06
2.23313e+06
2.1889e+06
2.14466e+06
2.10043e+06
2.0562e+06
2.01196e+06
1.96773e+06
1.9235e+06
1.87926e+06
1.83503e+06
1.7908e+06
1.74656e+06
1.70233e+06
1.6581e+06
1.61387e+06
1.56963e+06
1.5254e+06
1.48117e+06
1.43693e+06
1.3927e+06
1.34847e+06
1.30423e+06
1.26e+06
1.21577e+06
1.17154e+06
1.1273e+06
1.08307e+06
1.03884e+06
994603
950370
906137
861904
817671
773438
729205
684972
640739
596506
552273
508040
463807
419574
375341
331108
286875
242642
198409
154176
109943
65709.8
21476.8
)
;

boundaryField
{
    inlet
    {
        type            darcyGradPressure;
        gradient        uniform 1.67102e+07;
        Mf              Mf;
        phi             phi;
        value           uniform 4.42118e+06;
    }
    outlet
    {
        type            fixedValue;
        value           uniform 0;
    }
    emptyWalls
    {
        type            empty;
    }
}


// ************************************************************************* //
