/*--------------------------------*- C++ -*----------------------------------*\
  =========                 |
  \\      /  F ield         | OpenFOAM: The Open Source CFD Toolbox
   \\    /   O peration     | Website:  https://openfoam.org
    \\  /    A nd           | Version:  9
     \\/     M anipulation  |
\*---------------------------------------------------------------------------*/
FoamFile
{
    format      ascii;
    class       surfaceScalarField;
    location    "25350";
    object      phic;
}
// * * * * * * * * * * * * * * * * * * * * * * * * * * * * * * * * * * * * * //

dimensions      [0 2 0 0 0 0 0];

internalField   nonuniform List<scalar> 
999
(
8.07313e-16
3.32325e-15
8.15363e-15
1.52002e-14
2.44204e-14
3.58055e-14
4.93579e-14
6.50907e-14
8.30103e-14
1.0313e-13
1.25435e-13
1.49913e-13
1.76507e-13
2.05139e-13
2.35701e-13
2.67991e-13
3.01813e-13
3.36824e-13
3.72667e-13
4.08879e-13
4.44946e-13
4.8033e-13
5.14497e-13
5.46956e-13
5.77319e-13
6.05301e-13
6.30776e-13
6.53697e-13
6.74282e-13
6.92942e-13
7.1162e-13
7.38413e-13
8.10539e-13
1.07907e-12
2.12348e-12
7.86656e-12
1.86305e-11
2.07295e-11
2.13927e-11
2.17259e-11
2.19441e-11
2.21116e-11
2.22524e-11
2.23761e-11
2.24865e-11
2.25864e-11
2.2679e-11
2.27677e-11
2.28553e-11
2.29431e-11
2.30308e-11
2.31176e-11
2.32027e-11
2.32904e-11
2.33797e-11
2.3467e-11
2.35521e-11
2.36345e-11
2.37145e-11
2.37922e-11
2.3868e-11
2.39423e-11
2.40159e-11
2.40873e-11
2.4159e-11
2.4231e-11
2.43032e-11
2.43755e-11
2.44483e-11
2.45217e-11
2.45956e-11
2.46703e-11
2.47458e-11
2.48224e-11
2.4901e-11
2.4981e-11
2.50621e-11
2.51446e-11
2.52284e-11
2.53136e-11
2.54005e-11
2.54891e-11
2.55797e-11
2.56725e-11
2.57677e-11
2.58657e-11
2.59669e-11
2.60717e-11
2.61807e-11
2.62948e-11
2.6415e-11
2.65429e-11
2.66803e-11
2.68298e-11
2.69948e-11
2.71788e-11
2.73859e-11
2.76191e-11
2.78799e-11
2.81667e-11
2.84756e-11
2.88015e-11
2.91402e-11
2.94886e-11
2.98447e-11
3.02067e-11
3.05736e-11
3.09445e-11
3.13188e-11
3.1696e-11
3.20758e-11
3.24578e-11
3.28418e-11
3.32277e-11
3.36152e-11
3.40044e-11
3.43949e-11
3.47868e-11
3.518e-11
3.55743e-11
3.59696e-11
3.6366e-11
3.67633e-11
3.71615e-11
3.75607e-11
3.79608e-11
3.83618e-11
3.87638e-11
3.91667e-11
3.95706e-11
3.99753e-11
4.0381e-11
4.07875e-11
4.11947e-11
4.16026e-11
4.2011e-11
4.24196e-11
4.28282e-11
4.32367e-11
4.3645e-11
4.40531e-11
4.44609e-11
4.48686e-11
4.52764e-11
4.56844e-11
4.60926e-11
4.65013e-11
4.69106e-11
4.73206e-11
4.77315e-11
4.81435e-11
4.85569e-11
4.89718e-11
4.93884e-11
4.98071e-11
5.02277e-11
5.06506e-11
5.10755e-11
5.15025e-11
5.19313e-11
5.23618e-11
5.27936e-11
5.32265e-11
5.36602e-11
5.40944e-11
5.45289e-11
5.49634e-11
5.53978e-11
5.58321e-11
5.62661e-11
5.66998e-11
5.71333e-11
5.75665e-11
5.79996e-11
5.84327e-11
5.88658e-11
5.92991e-11
5.97326e-11
6.01665e-11
6.06007e-11
6.10355e-11
6.14707e-11
6.19065e-11
6.23429e-11
6.27799e-11
6.32175e-11
6.36557e-11
6.40944e-11
6.45338e-11
6.49737e-11
6.54142e-11
6.58552e-11
6.62968e-11
6.67388e-11
6.71813e-11
6.76243e-11
6.80678e-11
6.85117e-11
6.8956e-11
6.94008e-11
6.9846e-11
7.02916e-11
7.07376e-11
7.1184e-11
7.16308e-11
7.2078e-11
7.25256e-11
7.29735e-11
7.34219e-11
7.38706e-11
7.43196e-11
7.4769e-11
7.52188e-11
7.5669e-11
7.61195e-11
7.65703e-11
7.70215e-11
7.74731e-11
7.7925e-11
7.83773e-11
7.88299e-11
7.92828e-11
7.9736e-11
8.01896e-11
8.06435e-11
8.10977e-11
8.15522e-11
8.2007e-11
8.24622e-11
8.29176e-11
8.33734e-11
8.38295e-11
8.42859e-11
8.47427e-11
8.51998e-11
8.56572e-11
8.6115e-11
8.65731e-11
8.70315e-11
8.74903e-11
8.79493e-11
8.84087e-11
8.88683e-11
8.93282e-11
8.97884e-11
9.02489e-11
9.07097e-11
9.11708e-11
9.16322e-11
9.2094e-11
9.25562e-11
9.30188e-11
9.34817e-11
9.39451e-11
9.44088e-11
9.48728e-11
9.53371e-11
9.58016e-11
9.62661e-11
9.67306e-11
9.7195e-11
9.76592e-11
9.8123e-11
9.85864e-11
9.90493e-11
9.95116e-11
9.99734e-11
1.00435e-10
1.00895e-10
1.01355e-10
1.01815e-10
1.02275e-10
1.02734e-10
1.03193e-10
1.03652e-10
1.04112e-10
1.04572e-10
1.05032e-10
1.05494e-10
1.05957e-10
1.06421e-10
1.06887e-10
1.07355e-10
1.07824e-10
1.08296e-10
1.0877e-10
1.09246e-10
1.09724e-10
1.10203e-10
1.10685e-10
1.11169e-10
1.11654e-10
1.1214e-10
1.12627e-10
1.13115e-10
1.13603e-10
1.14092e-10
1.14581e-10
1.1507e-10
1.15558e-10
1.16047e-10
1.16535e-10
1.17022e-10
1.17509e-10
1.17995e-10
1.18481e-10
1.18967e-10
1.19453e-10
1.19938e-10
1.20423e-10
1.20908e-10
1.21393e-10
1.21878e-10
1.22363e-10
1.22848e-10
1.23334e-10
1.2382e-10
1.24306e-10
1.24792e-10
1.2528e-10
1.25767e-10
1.26255e-10
1.26743e-10
1.27232e-10
1.27721e-10
1.28211e-10
1.28701e-10
1.29191e-10
1.29682e-10
1.30174e-10
1.30665e-10
1.31157e-10
1.3165e-10
1.32142e-10
1.32636e-10
1.33129e-10
1.33623e-10
1.34117e-10
1.34611e-10
1.35106e-10
1.35601e-10
1.36096e-10
1.36591e-10
1.37087e-10
1.37583e-10
1.38079e-10
1.38576e-10
1.39073e-10
1.3957e-10
1.40067e-10
1.40565e-10
1.41063e-10
1.41561e-10
1.42059e-10
1.42558e-10
1.43057e-10
1.43556e-10
1.44056e-10
1.44555e-10
1.45055e-10
1.45555e-10
1.46055e-10
1.46556e-10
1.47057e-10
1.47558e-10
1.48059e-10
1.48561e-10
1.49063e-10
1.49565e-10
1.50067e-10
1.5057e-10
1.51072e-10
1.51575e-10
1.52079e-10
1.52582e-10
1.53086e-10
1.53591e-10
1.54095e-10
1.546e-10
1.55105e-10
1.5561e-10
1.56115e-10
1.56621e-10
1.57127e-10
1.57633e-10
1.5814e-10
1.58647e-10
1.59154e-10
1.59661e-10
1.60169e-10
1.60677e-10
1.61186e-10
1.61695e-10
1.62204e-10
1.62713e-10
1.63222e-10
1.63731e-10
1.64241e-10
1.6475e-10
1.6526e-10
1.65769e-10
1.66278e-10
1.66786e-10
1.67294e-10
1.67802e-10
1.68309e-10
1.68816e-10
1.69322e-10
1.69828e-10
1.70333e-10
1.70837e-10
1.71341e-10
1.71845e-10
1.72348e-10
1.72852e-10
1.73355e-10
1.73858e-10
1.74362e-10
1.74865e-10
1.7537e-10
1.75875e-10
1.76382e-10
1.76889e-10
1.77398e-10
1.77909e-10
1.78421e-10
1.78935e-10
1.79451e-10
1.79969e-10
1.80489e-10
1.81011e-10
1.81536e-10
1.82062e-10
1.82591e-10
1.83122e-10
1.83654e-10
1.84188e-10
1.84723e-10
1.8526e-10
1.85798e-10
1.86336e-10
1.86875e-10
1.87415e-10
1.87955e-10
1.88496e-10
1.89036e-10
1.89576e-10
1.90116e-10
1.90655e-10
1.91195e-10
1.91734e-10
1.92272e-10
1.92811e-10
1.93349e-10
1.93886e-10
1.94424e-10
1.94961e-10
1.95498e-10
1.96035e-10
1.96572e-10
1.97109e-10
1.97646e-10
1.98183e-10
1.98721e-10
1.99259e-10
1.99797e-10
2.00335e-10
2.00874e-10
2.01413e-10
2.01953e-10
2.02493e-10
2.03033e-10
2.03574e-10
2.04116e-10
2.04658e-10
2.052e-10
2.05743e-10
2.06286e-10
2.0683e-10
2.07374e-10
2.07919e-10
2.08464e-10
2.0901e-10
2.09556e-10
2.10102e-10
2.10649e-10
2.11196e-10
2.11743e-10
2.12291e-10
2.1284e-10
2.13388e-10
2.13937e-10
2.14487e-10
2.15036e-10
2.15586e-10
2.16137e-10
2.16687e-10
2.17238e-10
2.1779e-10
2.18341e-10
2.18893e-10
2.19446e-10
2.19998e-10
2.20551e-10
2.21104e-10
2.21658e-10
2.22212e-10
2.22766e-10
2.23321e-10
2.23875e-10
2.24431e-10
2.24986e-10
2.25542e-10
2.26098e-10
2.26654e-10
2.27211e-10
2.27768e-10
2.28325e-10
2.28883e-10
2.29441e-10
2.29999e-10
2.30557e-10
2.31116e-10
2.31676e-10
2.32235e-10
2.32795e-10
2.33355e-10
2.33916e-10
2.34477e-10
2.35038e-10
2.356e-10
2.36162e-10
2.36724e-10
2.37287e-10
2.3785e-10
2.38414e-10
2.38978e-10
2.39542e-10
2.40107e-10
2.40672e-10
2.41237e-10
2.41803e-10
2.42369e-10
2.42936e-10
2.43503e-10
2.4407e-10
2.44637e-10
2.45205e-10
2.45773e-10
2.4634e-10
2.46908e-10
2.47476e-10
2.48044e-10
2.48612e-10
2.4918e-10
2.49747e-10
2.50314e-10
2.50881e-10
2.51448e-10
2.52014e-10
2.5258e-10
2.53145e-10
2.5371e-10
2.54275e-10
2.5484e-10
2.55404e-10
2.55967e-10
2.56531e-10
2.57095e-10
2.57658e-10
2.58222e-10
2.58786e-10
2.5935e-10
2.59915e-10
2.6048e-10
2.61047e-10
2.61614e-10
2.62183e-10
2.62752e-10
2.63324e-10
2.63896e-10
2.64471e-10
2.65048e-10
2.65626e-10
2.66207e-10
2.6679e-10
2.67375e-10
2.67962e-10
2.68552e-10
2.69144e-10
2.69738e-10
2.70334e-10
2.70932e-10
2.71533e-10
2.72135e-10
2.72739e-10
2.73344e-10
2.73951e-10
2.7456e-10
2.75169e-10
2.75779e-10
2.7639e-10
2.77002e-10
2.77614e-10
2.78227e-10
2.78839e-10
2.79452e-10
2.80065e-10
2.80678e-10
2.81291e-10
2.81904e-10
2.82517e-10
2.8313e-10
2.83742e-10
2.84355e-10
2.84967e-10
2.8558e-10
2.86193e-10
2.86805e-10
2.87418e-10
2.88031e-10
2.88644e-10
2.89257e-10
2.89871e-10
2.90485e-10
2.911e-10
2.91714e-10
2.9233e-10
2.92946e-10
2.93562e-10
2.94179e-10
2.94797e-10
2.95415e-10
2.96034e-10
2.96654e-10
2.97274e-10
2.97895e-10
2.98516e-10
2.99138e-10
2.99761e-10
3.00385e-10
3.01009e-10
3.01633e-10
3.02259e-10
3.02885e-10
3.03512e-10
3.04139e-10
3.04767e-10
3.05396e-10
3.06025e-10
3.06655e-10
3.07286e-10
3.07917e-10
3.08548e-10
3.09181e-10
3.09814e-10
3.10447e-10
3.11081e-10
3.11715e-10
3.12351e-10
3.12986e-10
3.13623e-10
3.14259e-10
3.14897e-10
3.15535e-10
3.16173e-10
3.16812e-10
3.17452e-10
3.18092e-10
3.18733e-10
3.19374e-10
3.20016e-10
3.20658e-10
3.21301e-10
3.21944e-10
3.22588e-10
3.23233e-10
3.23878e-10
3.24524e-10
3.2517e-10
3.25817e-10
3.26464e-10
3.27112e-10
3.27761e-10
3.2841e-10
3.2906e-10
3.2971e-10
3.30361e-10
3.31013e-10
3.31665e-10
3.32318e-10
3.32971e-10
3.33626e-10
3.3428e-10
3.34936e-10
3.35592e-10
3.36249e-10
3.36906e-10
3.37564e-10
3.38223e-10
3.38882e-10
3.39542e-10
3.40203e-10
3.40865e-10
3.41527e-10
3.42189e-10
3.42853e-10
3.43517e-10
3.44181e-10
3.44846e-10
3.45512e-10
3.46178e-10
3.46845e-10
3.47512e-10
3.4818e-10
3.48847e-10
3.49516e-10
3.50184e-10
3.50853e-10
3.51522e-10
3.52191e-10
3.5286e-10
3.53529e-10
3.54199e-10
3.54868e-10
3.55538e-10
3.56207e-10
3.56877e-10
3.57546e-10
3.58216e-10
3.58885e-10
3.59555e-10
3.60225e-10
3.60896e-10
3.61566e-10
3.62237e-10
3.62908e-10
3.6358e-10
3.64253e-10
3.64926e-10
3.65601e-10
3.66276e-10
3.66953e-10
3.67631e-10
3.6831e-10
3.68991e-10
3.69674e-10
3.70358e-10
3.71045e-10
3.71734e-10
3.72425e-10
3.73118e-10
3.73814e-10
3.74512e-10
3.75214e-10
3.75918e-10
3.76624e-10
3.77334e-10
3.78046e-10
3.78761e-10
3.79478e-10
3.80199e-10
3.80922e-10
3.81648e-10
3.82376e-10
3.83106e-10
3.83839e-10
3.84574e-10
3.85311e-10
3.86049e-10
3.8679e-10
3.87532e-10
3.88275e-10
3.8902e-10
3.89766e-10
3.90513e-10
3.91261e-10
3.9201e-10
3.9276e-10
3.93511e-10
3.94262e-10
3.95014e-10
3.95766e-10
3.9652e-10
3.97273e-10
3.98027e-10
3.98782e-10
3.99538e-10
4.00294e-10
4.0105e-10
4.01808e-10
4.02566e-10
4.03324e-10
4.04084e-10
4.04845e-10
4.05606e-10
4.06368e-10
4.07131e-10
4.07896e-10
4.08661e-10
4.09428e-10
4.10195e-10
4.10964e-10
4.11734e-10
4.12505e-10
4.13277e-10
4.14051e-10
4.14826e-10
4.15603e-10
4.16381e-10
4.1716e-10
4.1794e-10
4.18722e-10
4.19505e-10
4.2029e-10
4.21076e-10
4.21864e-10
4.22653e-10
4.23443e-10
4.24235e-10
4.25028e-10
4.25823e-10
4.26619e-10
4.27416e-10
4.28215e-10
4.29016e-10
4.29817e-10
4.30621e-10
4.31425e-10
4.32232e-10
4.33039e-10
4.33848e-10
4.34659e-10
4.35471e-10
4.36284e-10
4.37099e-10
4.37915e-10
4.38733e-10
4.39552e-10
4.40373e-10
4.41196e-10
4.42019e-10
4.42845e-10
4.43672e-10
4.445e-10
4.4533e-10
4.46161e-10
4.46994e-10
4.47829e-10
4.48665e-10
4.49503e-10
4.50342e-10
4.51183e-10
4.52026e-10
4.5287e-10
4.53716e-10
4.54563e-10
4.55413e-10
4.56264e-10
4.57116e-10
4.57971e-10
4.58827e-10
4.59685e-10
4.60545e-10
4.61406e-10
4.62269e-10
4.63135e-10
4.64002e-10
4.64871e-10
4.65741e-10
4.66614e-10
4.67489e-10
4.68365e-10
4.69244e-10
4.70124e-10
4.71007e-10
4.71891e-10
4.72777e-10
4.73666e-10
4.74556e-10
4.75449e-10
4.76343e-10
4.77239e-10
4.78138e-10
4.79038e-10
4.79941e-10
4.80845e-10
4.81751e-10
4.8266e-10
4.8357e-10
4.84482e-10
4.85396e-10
4.86312e-10
4.8723e-10
4.88149e-10
4.89071e-10
4.89994e-10
4.90919e-10
4.91846e-10
4.92774e-10
4.93704e-10
4.94636e-10
4.9557e-10
4.96506e-10
4.97443e-10
4.98382e-10
4.99323e-10
5.00266e-10
5.01211e-10
5.02158e-10
5.03106e-10
5.04057e-10
5.0501e-10
5.05965e-10
5.06923e-10
5.07882e-10
5.08845e-10
5.0981e-10
5.10778e-10
5.11748e-10
5.12722e-10
5.13698e-10
5.14678e-10
5.15661e-10
5.16648e-10
5.17638e-10
5.18632e-10
5.19629e-10
5.20631e-10
5.21637e-10
5.22647e-10
5.23661e-10
5.24679e-10
5.25702e-10
5.26729e-10
5.2776e-10
5.28796e-10
5.29836e-10
5.3088e-10
5.31929e-10
5.32981e-10
5.34038e-10
5.35098e-10
5.36162e-10
5.37229e-10
5.383e-10
5.39372e-10
5.40447e-10
5.41524e-10
5.42602e-10
5.43681e-10
5.4476e-10
5.45839e-10
5.46916e-10
5.47991e-10
5.49062e-10
5.5013e-10
5.51192e-10
5.52248e-10
5.53296e-10
5.54334e-10
5.55361e-10
5.56376e-10
5.57375e-10
5.5836e-10
5.59324e-10
5.6027e-10
5.6119e-10
5.62087e-10
5.62955e-10
5.63794e-10
5.64603e-10
5.65377e-10
5.66115e-10
5.66817e-10
5.6748e-10
5.68103e-10
5.68687e-10
5.69229e-10
5.69731e-10
5.70193e-10
5.70614e-10
5.70998e-10
5.71344e-10
5.71655e-10
5.71933e-10
5.72179e-10
5.72395e-10
5.72585e-10
5.72751e-10
5.72894e-10
5.73018e-10
5.73123e-10
5.73215e-10
5.73292e-10
5.73356e-10
5.73411e-10
5.73456e-10
5.73498e-10
)
;

boundaryField
{
    inlet
    {
        type            calculated;
        value           uniform 0;
    }
    outlet
    {
        type            calculated;
        value           uniform 6.54504e-10;
    }
    emptyWalls
    {
        type            empty;
        value           nonuniform List<scalar> 0();
    }
}


// ************************************************************************* //
