/*--------------------------------*- C++ -*----------------------------------*\
  =========                 |
  \\      /  F ield         | OpenFOAM: The Open Source CFD Toolbox
   \\    /   O peration     | Website:  https://openfoam.org
    \\  /    A nd           | Version:  9
     \\/     M anipulation  |
\*---------------------------------------------------------------------------*/
FoamFile
{
    format      ascii;
    class       surfaceScalarField;
    location    "19450";
    object      phib;
}
// * * * * * * * * * * * * * * * * * * * * * * * * * * * * * * * * * * * * * //

dimensions      [0 2 0 0 0 0 0];

internalField   nonuniform List<scalar> 
999
(
1.13622e-09
1.13624e-09
1.13625e-09
1.13626e-09
1.13628e-09
1.13628e-09
1.13631e-09
1.13632e-09
1.13637e-09
1.13638e-09
1.13644e-09
1.13647e-09
1.13652e-09
1.13658e-09
1.13661e-09
1.13669e-09
1.13672e-09
1.13678e-09
1.13681e-09
1.13685e-09
1.13687e-09
1.1369e-09
1.13694e-09
1.137e-09
1.13719e-09
1.1379e-09
1.14145e-09
1.16649e-09
1.17475e-09
1.17682e-09
1.17769e-09
1.17821e-09
1.17858e-09
1.17887e-09
1.17912e-09
1.17933e-09
1.17952e-09
1.17968e-09
1.17982e-09
1.17995e-09
1.18005e-09
1.18015e-09
1.18023e-09
1.1803e-09
1.18037e-09
1.18042e-09
1.18046e-09
1.18049e-09
1.18051e-09
1.18052e-09
1.18052e-09
1.18052e-09
1.18051e-09
1.1805e-09
1.1805e-09
1.18049e-09
1.18048e-09
1.18046e-09
1.18042e-09
1.18038e-09
1.18032e-09
1.18025e-09
1.18018e-09
1.1801e-09
1.18003e-09
1.17995e-09
1.17988e-09
1.17979e-09
1.17968e-09
1.17954e-09
1.17935e-09
1.17911e-09
1.17879e-09
1.17837e-09
1.17785e-09
1.17722e-09
1.17651e-09
1.17577e-09
1.17503e-09
1.17429e-09
1.17358e-09
1.17288e-09
1.17219e-09
1.17154e-09
1.17092e-09
1.17037e-09
1.16988e-09
1.16947e-09
1.16913e-09
1.16885e-09
1.16864e-09
1.16845e-09
1.16829e-09
1.16813e-09
1.16795e-09
1.16775e-09
1.16751e-09
1.16723e-09
1.1669e-09
1.16653e-09
1.16612e-09
1.16567e-09
1.16519e-09
1.16469e-09
1.16416e-09
1.16362e-09
1.16308e-09
1.16253e-09
1.16198e-09
1.16144e-09
1.1609e-09
1.16037e-09
1.15984e-09
1.15932e-09
1.1588e-09
1.15829e-09
1.15778e-09
1.15728e-09
1.15678e-09
1.15627e-09
1.15577e-09
1.15527e-09
1.15477e-09
1.15427e-09
1.15377e-09
1.15327e-09
1.15276e-09
1.15226e-09
1.15175e-09
1.15124e-09
1.15073e-09
1.15021e-09
1.1497e-09
1.14918e-09
1.14866e-09
1.14814e-09
1.14762e-09
1.14709e-09
1.14657e-09
1.14604e-09
1.14551e-09
1.14498e-09
1.14444e-09
1.14391e-09
1.14337e-09
1.14283e-09
1.14229e-09
1.14175e-09
1.1412e-09
1.14065e-09
1.14011e-09
1.13955e-09
1.139e-09
1.13845e-09
1.13789e-09
1.13733e-09
1.13677e-09
1.13621e-09
1.13564e-09
1.13508e-09
1.13451e-09
1.13394e-09
1.13336e-09
1.13279e-09
1.13221e-09
1.13164e-09
1.13106e-09
1.13048e-09
1.1299e-09
1.12932e-09
1.12874e-09
1.12816e-09
1.12757e-09
1.12699e-09
1.1264e-09
1.12581e-09
1.12523e-09
1.12463e-09
1.12404e-09
1.12345e-09
1.12286e-09
1.12227e-09
1.12167e-09
1.12108e-09
1.12049e-09
1.1199e-09
1.11931e-09
1.11871e-09
1.11811e-09
1.1175e-09
1.11687e-09
1.11624e-09
1.11559e-09
1.11493e-09
1.11425e-09
1.11355e-09
1.11283e-09
1.11211e-09
1.11136e-09
1.11061e-09
1.10984e-09
1.10907e-09
1.10829e-09
1.10752e-09
1.10674e-09
1.10598e-09
1.10522e-09
1.10449e-09
1.10377e-09
1.10308e-09
1.10241e-09
1.10177e-09
1.10117e-09
1.10059e-09
1.10005e-09
1.09953e-09
1.09904e-09
1.09857e-09
1.09812e-09
1.09769e-09
1.09726e-09
1.09683e-09
1.09641e-09
1.09598e-09
1.09554e-09
1.09509e-09
1.09462e-09
1.09414e-09
1.09365e-09
1.09314e-09
1.09261e-09
1.09207e-09
1.09151e-09
1.09094e-09
1.09036e-09
1.08978e-09
1.08918e-09
1.08858e-09
1.08798e-09
1.08737e-09
1.08676e-09
1.08615e-09
1.08554e-09
1.08493e-09
1.08432e-09
1.08372e-09
1.08311e-09
1.08251e-09
1.08191e-09
1.08131e-09
1.08071e-09
1.08011e-09
1.07951e-09
1.07892e-09
1.07832e-09
1.07773e-09
1.07713e-09
1.07654e-09
1.07594e-09
1.07535e-09
1.07475e-09
1.07415e-09
1.07356e-09
1.07296e-09
1.07236e-09
1.07176e-09
1.07116e-09
1.07055e-09
1.06995e-09
1.06934e-09
1.06874e-09
1.06813e-09
1.06752e-09
1.06691e-09
1.0663e-09
1.06569e-09
1.06507e-09
1.06446e-09
1.06384e-09
1.06322e-09
1.0626e-09
1.06198e-09
1.06136e-09
1.06073e-09
1.06011e-09
1.05948e-09
1.05885e-09
1.05823e-09
1.05759e-09
1.05696e-09
1.05633e-09
1.05569e-09
1.05506e-09
1.05442e-09
1.05378e-09
1.05314e-09
1.0525e-09
1.05185e-09
1.05121e-09
1.05056e-09
1.04991e-09
1.04926e-09
1.04861e-09
1.04796e-09
1.04731e-09
1.04665e-09
1.046e-09
1.04534e-09
1.04469e-09
1.04403e-09
1.04337e-09
1.04271e-09
1.04205e-09
1.04138e-09
1.04072e-09
1.04006e-09
1.03939e-09
1.03873e-09
1.03806e-09
1.0374e-09
1.03673e-09
1.03606e-09
1.03539e-09
1.03472e-09
1.03405e-09
1.03338e-09
1.0327e-09
1.03202e-09
1.03134e-09
1.03065e-09
1.02996e-09
1.02926e-09
1.02856e-09
1.02785e-09
1.02713e-09
1.0264e-09
1.02567e-09
1.02493e-09
1.02418e-09
1.02342e-09
1.02265e-09
1.02188e-09
1.0211e-09
1.02032e-09
1.01953e-09
1.01874e-09
1.01795e-09
1.01716e-09
1.01637e-09
1.01559e-09
1.01481e-09
1.01404e-09
1.01327e-09
1.01252e-09
1.01178e-09
1.01105e-09
1.01033e-09
1.00963e-09
1.00895e-09
1.00828e-09
1.00762e-09
1.00698e-09
1.00635e-09
1.00574e-09
1.00513e-09
1.00453e-09
1.00395e-09
1.00336e-09
1.00278e-09
1.0022e-09
1.00162e-09
1.00104e-09
1.00046e-09
9.99871e-10
9.99277e-10
9.98676e-10
9.98068e-10
9.97452e-10
9.96829e-10
9.96198e-10
9.95559e-10
9.94914e-10
9.94261e-10
9.93602e-10
9.92937e-10
9.92268e-10
9.91593e-10
9.90914e-10
9.90232e-10
9.89548e-10
9.8886e-10
9.88171e-10
9.87481e-10
9.86789e-10
9.86097e-10
9.85404e-10
9.8471e-10
9.84017e-10
9.83323e-10
9.82629e-10
9.81936e-10
9.81242e-10
9.80549e-10
9.79856e-10
9.79162e-10
9.78468e-10
9.77774e-10
9.7708e-10
9.76386e-10
9.75691e-10
9.74995e-10
9.74299e-10
9.73602e-10
9.72904e-10
9.72206e-10
9.71506e-10
9.70806e-10
9.70104e-10
9.69401e-10
9.68698e-10
9.67993e-10
9.67286e-10
9.66579e-10
9.6587e-10
9.6516e-10
9.64449e-10
9.63736e-10
9.63022e-10
9.62307e-10
9.6159e-10
9.60872e-10
9.60152e-10
9.59431e-10
9.58709e-10
9.57985e-10
9.57259e-10
9.56533e-10
9.55805e-10
9.55075e-10
9.54344e-10
9.53611e-10
9.52877e-10
9.52142e-10
9.51405e-10
9.50666e-10
9.49926e-10
9.49185e-10
9.48442e-10
9.47697e-10
9.46952e-10
9.46204e-10
9.45455e-10
9.44705e-10
9.43953e-10
9.432e-10
9.42446e-10
9.4169e-10
9.40932e-10
9.40174e-10
9.39414e-10
9.38652e-10
9.3789e-10
9.37126e-10
9.3636e-10
9.35594e-10
9.34826e-10
9.34057e-10
9.33287e-10
9.32515e-10
9.31743e-10
9.30969e-10
9.30194e-10
9.29417e-10
9.2864e-10
9.27861e-10
9.27081e-10
9.263e-10
9.25517e-10
9.24733e-10
9.23948e-10
9.2316e-10
9.2237e-10
9.21579e-10
9.20785e-10
9.19988e-10
9.19188e-10
9.18386e-10
9.17579e-10
9.1677e-10
9.15956e-10
9.15138e-10
9.14316e-10
9.13489e-10
9.12657e-10
9.11821e-10
9.10979e-10
9.10133e-10
9.09282e-10
9.08427e-10
9.07566e-10
9.06702e-10
9.05834e-10
9.04962e-10
9.04088e-10
9.0321e-10
9.02331e-10
9.01451e-10
9.0057e-10
8.99689e-10
8.98809e-10
8.97931e-10
8.97055e-10
8.96182e-10
8.95313e-10
8.94448e-10
8.93589e-10
8.92735e-10
8.91887e-10
8.91046e-10
8.90212e-10
8.89385e-10
8.88565e-10
8.87753e-10
8.86947e-10
8.86149e-10
8.85356e-10
8.8457e-10
8.83788e-10
8.83012e-10
8.82239e-10
8.81469e-10
8.80701e-10
8.79935e-10
8.79169e-10
8.78403e-10
8.77636e-10
8.76867e-10
8.76095e-10
8.75321e-10
8.74543e-10
8.7376e-10
8.72974e-10
8.72183e-10
8.71387e-10
8.70586e-10
8.6978e-10
8.68969e-10
8.68154e-10
8.67334e-10
8.66509e-10
8.6568e-10
8.64846e-10
8.64009e-10
8.63168e-10
8.62324e-10
8.61477e-10
8.60626e-10
8.59773e-10
8.58918e-10
8.5806e-10
8.572e-10
8.56338e-10
8.55475e-10
8.54609e-10
8.53742e-10
8.52874e-10
8.52004e-10
8.51133e-10
8.5026e-10
8.49386e-10
8.48511e-10
8.47634e-10
8.46756e-10
8.45877e-10
8.44996e-10
8.44114e-10
8.43231e-10
8.42345e-10
8.41459e-10
8.4057e-10
8.3968e-10
8.38789e-10
8.37895e-10
8.37e-10
8.36103e-10
8.35204e-10
8.34303e-10
8.334e-10
8.32495e-10
8.31589e-10
8.3068e-10
8.29769e-10
8.28855e-10
8.2794e-10
8.27022e-10
8.26103e-10
8.25181e-10
8.24256e-10
8.2333e-10
8.22401e-10
8.2147e-10
8.20536e-10
8.196e-10
8.18662e-10
8.17721e-10
8.16778e-10
8.15833e-10
8.14885e-10
8.13935e-10
8.12982e-10
8.12026e-10
8.11068e-10
8.10108e-10
8.09145e-10
8.08179e-10
8.07211e-10
8.0624e-10
8.05267e-10
8.04291e-10
8.03312e-10
8.02331e-10
8.01347e-10
8.0036e-10
7.99371e-10
7.98379e-10
7.97384e-10
7.96387e-10
7.95387e-10
7.94384e-10
7.93378e-10
7.92369e-10
7.91358e-10
7.90344e-10
7.89328e-10
7.88308e-10
7.87286e-10
7.8626e-10
7.85232e-10
7.84201e-10
7.83168e-10
7.82131e-10
7.81091e-10
7.80049e-10
7.79003e-10
7.77954e-10
7.76903e-10
7.75848e-10
7.7479e-10
7.73729e-10
7.72664e-10
7.71596e-10
7.70525e-10
7.6945e-10
7.68372e-10
7.67289e-10
7.66203e-10
7.65112e-10
7.64018e-10
7.62919e-10
7.61816e-10
7.60708e-10
7.59595e-10
7.58478e-10
7.57356e-10
7.56228e-10
7.55096e-10
7.53958e-10
7.52815e-10
7.51667e-10
7.50513e-10
7.49354e-10
7.4819e-10
7.4702e-10
7.45845e-10
7.44664e-10
7.43479e-10
7.42289e-10
7.41093e-10
7.39894e-10
7.3869e-10
7.37481e-10
7.36269e-10
7.35053e-10
7.33833e-10
7.3261e-10
7.31385e-10
7.30157e-10
7.28926e-10
7.27694e-10
7.26459e-10
7.25224e-10
7.23987e-10
7.22749e-10
7.2151e-10
7.20271e-10
7.19032e-10
7.17792e-10
7.16552e-10
7.15312e-10
7.14072e-10
7.12831e-10
7.11591e-10
7.1035e-10
7.09108e-10
7.07866e-10
7.06623e-10
7.05378e-10
7.04132e-10
7.02884e-10
7.01634e-10
7.00382e-10
6.99126e-10
6.97868e-10
6.96606e-10
6.95341e-10
6.94071e-10
6.92798e-10
6.91521e-10
6.90239e-10
6.88952e-10
6.87661e-10
6.86366e-10
6.85068e-10
6.83766e-10
6.8246e-10
6.81152e-10
6.79842e-10
6.78531e-10
6.77219e-10
6.75909e-10
6.74601e-10
6.73297e-10
6.71998e-10
6.70707e-10
6.69426e-10
6.68157e-10
6.66903e-10
6.65667e-10
6.64452e-10
6.63261e-10
6.62098e-10
6.60967e-10
6.59871e-10
6.58815e-10
6.57801e-10
6.56833e-10
6.55915e-10
6.55048e-10
6.54236e-10
6.53481e-10
6.52783e-10
6.52142e-10
6.51559e-10
6.51032e-10
6.5056e-10
6.50141e-10
6.49772e-10
6.49451e-10
6.49174e-10
6.48935e-10
6.48732e-10
6.48562e-10
6.48421e-10
6.48303e-10
6.48205e-10
6.4812e-10
6.48042e-10
6.47962e-10
6.47866e-10
6.4773e-10
6.47512e-10
6.47137e-10
6.46477e-10
6.45301e-10
6.43206e-10
6.39488e-10
6.32954e-10
6.21689e-10
6.02899e-10
5.73222e-10
5.30208e-10
4.75148e-10
4.1516e-10
3.60694e-10
3.1924e-10
2.91952e-10
2.75748e-10
2.66728e-10
2.61892e-10
2.59352e-10
2.58033e-10
2.57352e-10
2.57003e-10
2.56823e-10
2.56732e-10
2.56686e-10
2.56663e-10
2.56651e-10
2.56646e-10
2.56644e-10
2.56643e-10
2.56643e-10
2.56643e-10
2.56644e-10
2.56644e-10
2.56645e-10
2.56645e-10
2.56645e-10
2.56645e-10
2.56645e-10
2.56645e-10
2.56644e-10
2.56644e-10
2.56643e-10
2.56643e-10
2.56642e-10
2.56641e-10
2.5664e-10
2.56638e-10
2.56637e-10
2.56636e-10
2.56634e-10
2.56632e-10
2.56631e-10
2.56629e-10
2.56627e-10
2.56625e-10
2.56622e-10
2.5662e-10
2.56618e-10
2.56615e-10
2.56613e-10
2.5661e-10
2.56607e-10
2.56604e-10
2.56601e-10
2.56598e-10
2.56595e-10
2.56592e-10
2.56589e-10
2.56585e-10
2.56582e-10
2.56578e-10
2.56574e-10
2.5657e-10
2.56566e-10
2.56561e-10
2.56557e-10
2.56552e-10
2.56547e-10
2.56541e-10
2.56536e-10
2.5653e-10
2.56524e-10
2.56517e-10
2.5651e-10
2.56503e-10
2.56496e-10
2.56488e-10
2.5648e-10
2.56471e-10
2.56462e-10
2.56453e-10
2.56443e-10
2.56433e-10
2.56423e-10
2.56412e-10
2.56401e-10
2.56389e-10
2.56377e-10
2.56365e-10
2.56353e-10
2.5634e-10
2.56328e-10
2.56315e-10
2.56302e-10
2.56289e-10
2.56275e-10
2.56262e-10
2.56249e-10
2.56236e-10
2.56224e-10
2.56211e-10
2.56199e-10
2.56187e-10
2.56176e-10
2.56165e-10
2.56155e-10
2.56145e-10
2.56136e-10
2.56128e-10
2.5612e-10
2.56114e-10
2.56108e-10
2.56103e-10
2.56099e-10
2.56096e-10
2.56094e-10
2.56093e-10
2.56093e-10
2.56093e-10
2.56094e-10
2.56095e-10
2.56099e-10
2.56104e-10
2.56109e-10
2.56116e-10
2.56123e-10
2.56131e-10
2.56139e-10
2.56148e-10
2.56158e-10
2.56168e-10
2.56178e-10
2.56189e-10
2.562e-10
2.56211e-10
2.56222e-10
2.56233e-10
2.56245e-10
2.56256e-10
2.56267e-10
2.56278e-10
2.56289e-10
2.563e-10
2.5631e-10
2.5632e-10
2.5633e-10
2.56339e-10
2.56348e-10
2.56356e-10
2.56365e-10
2.56372e-10
2.5638e-10
2.56387e-10
2.56394e-10
2.564e-10
2.56406e-10
2.56412e-10
2.56417e-10
2.56422e-10
2.56427e-10
2.56432e-10
2.56436e-10
2.5644e-10
2.56444e-10
2.56448e-10
2.56452e-10
2.56455e-10
2.56459e-10
2.56462e-10
2.56466e-10
2.56469e-10
2.56472e-10
2.56475e-10
2.56478e-10
2.56481e-10
2.56484e-10
2.56487e-10
2.5649e-10
2.56493e-10
2.56496e-10
2.56499e-10
2.56503e-10
2.56506e-10
2.56509e-10
2.56512e-10
2.56515e-10
2.56518e-10
2.56521e-10
2.56523e-10
2.56526e-10
2.56529e-10
2.56532e-10
2.56535e-10
2.56538e-10
2.56541e-10
2.56543e-10
2.56546e-10
2.56549e-10
2.56552e-10
2.56554e-10
2.56557e-10
2.5656e-10
2.56563e-10
2.56566e-10
2.56568e-10
2.56571e-10
2.56574e-10
2.56576e-10
2.56579e-10
2.56582e-10
2.56584e-10
2.56587e-10
2.56589e-10
2.56592e-10
2.56594e-10
2.56596e-10
2.56598e-10
)
;

boundaryField
{
    inlet
    {
        type            calculated;
        value           uniform -1.13622e-09;
    }
    outlet
    {
        type            calculated;
        value           uniform 2.566e-10;
    }
    emptyWalls
    {
        type            empty;
        value           nonuniform List<scalar> 0();
    }
}


// ************************************************************************* //
