/*--------------------------------*- C++ -*----------------------------------*\
  =========                 |
  \\      /  F ield         | OpenFOAM: The Open Source CFD Toolbox
   \\    /   O peration     | Website:  https://openfoam.org
    \\  /    A nd           | Version:  9
     \\/     M anipulation  |
\*---------------------------------------------------------------------------*/
FoamFile
{
    format      ascii;
    class       volScalarField;
    location    "9900";
    object      krc;
}
// * * * * * * * * * * * * * * * * * * * * * * * * * * * * * * * * * * * * * //

dimensions      [0 0 0 0 0 0 0];

internalField   nonuniform List<scalar> 
1000
(
5.45096e-07
5.78089e-06
1.93489e-05
3.9488e-05
6.56737e-05
9.69089e-05
0.000131486
0.000167206
0.00020201
0.000236018
0.000280045
0.000399904
0.000941866
0.00673398
0.0335634
0.0431234
0.0464616
0.0482598
0.0495023
0.0504715
0.051285
0.0519878
0.0526114
0.0531701
0.0536809
0.0541536
0.054603
0.0550361
0.0554634
0.0558908
0.0563427
0.0568187
0.0573172
0.0578538
0.0584536
0.0591524
0.0599922
0.0610049
0.0621899
0.063511
0.064922
0.0663897
0.067893
0.0694184
0.0709571
0.072503
0.0740522
0.0756017
0.0771496
0.0786943
0.0802348
0.0817703
0.0833003
0.0848244
0.086342
0.0878531
0.0893575
0.090855
0.0923456
0.093829
0.0953054
0.0967747
0.0982369
0.099692
0.10114
0.102581
0.104015
0.105442
0.106862
0.108276
0.109682
0.111082
0.112475
0.113862
0.115242
0.116615
0.117982
0.119343
0.120697
0.122046
0.123388
0.124724
0.126054
0.127378
0.128696
0.130009
0.131315
0.132616
0.133912
0.135202
0.136486
0.137765
0.139038
0.140307
0.14157
0.142827
0.14408
0.145327
0.14657
0.147807
0.149039
0.150267
0.15149
0.152708
0.153922
0.155131
0.156336
0.157537
0.158733
0.159925
0.161113
0.162297
0.163478
0.164654
0.165827
0.166995
0.168161
0.169322
0.170479
0.171633
0.172783
0.173929
0.175072
0.176211
0.177346
0.178477
0.179605
0.180729
0.18185
0.182967
0.184081
0.185192
0.186299
0.187403
0.188504
0.189602
0.190697
0.191789
0.192878
0.193964
0.195047
0.196127
0.197205
0.19828
0.199352
0.200421
0.201488
0.202552
0.203613
0.204672
0.205729
0.206783
0.207834
0.208883
0.20993
0.210974
0.212016
0.213056
0.214093
0.215128
0.216161
0.217192
0.21822
0.219247
0.220271
0.221293
0.222314
0.223332
0.224348
0.225363
0.226375
0.227385
0.228394
0.229401
0.230406
0.231409
0.23241
0.23341
0.234408
0.235405
0.236399
0.237392
0.238384
0.239374
0.240362
0.241349
0.242335
0.243319
0.244301
0.245282
0.246262
0.24724
0.248217
0.249193
0.250168
0.251141
0.252113
0.253084
0.254053
0.255022
0.255989
0.256955
0.25792
0.258884
0.259847
0.260809
0.26177
0.26273
0.263689
0.264647
0.265604
0.266561
0.267516
0.268471
0.269425
0.270378
0.27133
0.272282
0.273233
0.274183
0.275133
0.276082
0.27703
0.277978
0.278925
0.279872
0.280818
0.281764
0.282709
0.283653
0.284598
0.285542
0.286485
0.287428
0.288371
0.289313
0.290255
0.291197
0.292138
0.29308
0.294021
0.294961
0.295902
0.296842
0.297782
0.298722
0.299661
0.300601
0.30154
0.302479
0.303419
0.304358
0.305297
0.306236
0.307176
0.308116
0.309056
0.309996
0.310936
0.311878
0.312819
0.313761
0.314704
0.315648
0.316592
0.317537
0.318483
0.31943
0.320378
0.321327
0.322277
0.323228
0.324179
0.325132
0.326086
0.327041
0.327997
0.328953
0.329911
0.33087
0.331829
0.33279
0.333751
0.334714
0.335677
0.336641
0.337607
0.338573
0.339541
0.34051
0.34148
0.342451
0.343424
0.344398
0.345373
0.34635
0.347328
0.348308
0.34929
0.350274
0.351259
0.352246
0.353235
0.354226
0.35522
0.356215
0.357212
0.358212
0.359214
0.360218
0.361225
0.362234
0.363245
0.364259
0.365276
0.366295
0.367317
0.368342
0.369369
0.3704
0.371434
0.37247
0.37351
0.374553
0.3756
0.376649
0.377702
0.378759
0.379819
0.380882
0.38195
0.383021
0.384097
0.385176
0.38626
0.387347
0.388439
0.389535
0.390636
0.391741
0.392852
0.393967
0.395086
0.396211
0.397341
0.398476
0.399616
0.400762
0.401913
0.40307
0.404233
0.405401
0.406575
0.407755
0.408941
0.410132
0.411329
0.412533
0.413741
0.414956
0.416174
0.417398
0.418625
0.419857
0.421091
0.422326
0.423561
0.424794
0.426023
0.427245
0.428457
0.429655
0.430834
0.431991
0.433117
0.434209
0.43526
0.436263
0.437213
0.438103
0.438928
0.439686
0.440375
0.440996
0.441555
0.442059
0.442528
0.442989
0.443496
0.444135
0.44506
0.446533
0.449002
0.453205
0.460289
0.471818
0.489419
0.513728
0.54293
0.572484
0.597417
0.615248
0.626465
0.632937
0.636477
0.638358
0.63934
0.639849
0.640111
0.640245
0.640313
0.640347
0.640364
0.640372
0.640376
0.640377
0.640376
0.640375
0.640373
0.640371
0.640369
0.640366
0.640363
0.64036
0.640357
0.640353
0.64035
0.640346
0.640342
0.640337
0.640333
0.640328
0.640323
0.640318
0.640312
0.640306
0.640301
0.640295
0.640289
0.640283
0.640277
0.640271
0.640265
0.640259
0.640254
0.640248
0.640243
0.640238
0.640234
0.64023
0.640226
0.640223
0.640221
0.640219
0.640218
0.640218
0.640218
0.640218
0.640218
0.64022
0.640223
0.640226
0.640231
0.640235
0.64024
0.640246
0.640251
0.640258
0.640264
0.640271
0.640277
0.640284
0.640291
0.640298
0.640304
0.640311
0.640317
0.640323
0.640328
0.640334
0.640339
0.640344
0.640348
0.640352
0.640356
0.640359
0.640362
0.640365
0.640368
0.64037
0.640372
0.640374
0.640375
0.640377
0.640378
0.640379
0.64038
0.640381
0.640382
0.640383
0.640384
0.640385
0.640385
0.640386
0.640387
0.640388
0.640388
0.640389
0.64039
0.640391
0.640392
0.640393
0.640394
0.640395
0.640396
0.640397
0.640398
0.640399
0.6404
0.640401
0.640402
0.640403
0.640404
0.640405
0.640407
0.640408
0.640409
0.64041
0.640411
0.640412
0.640413
0.640414
0.640415
0.640416
0.640417
0.640418
0.640419
0.64042
0.640421
0.640422
0.640422
0.640423
0.640424
0.640425
0.640425
0.640426
0.640427
0.640427
0.640428
0.640428
0.640428
0.640429
0.640429
0.640429
0.64043
0.64043
0.64043
0.64043
0.640431
0.640431
0.640431
0.640431
0.640431
0.640431
0.640431
0.640431
0.64043
0.64043
0.64043
0.64043
0.64043
0.64043
0.64043
0.640429
0.640429
0.640429
0.640429
0.640428
0.640428
0.640428
0.640427
0.640427
0.640427
0.640426
0.640426
0.640426
0.640425
0.640425
0.640425
0.640424
0.640424
0.640423
0.640423
0.640422
0.640422
0.640421
0.640421
0.64042
0.64042
0.640419
0.640418
0.640418
0.640417
0.640416
0.640416
0.640415
0.640414
0.640414
0.640413
0.640412
0.640411
0.64041
0.640409
0.640408
0.640407
0.640406
0.640405
0.640404
0.640402
0.640401
0.6404
0.640398
0.640396
0.640395
0.640393
0.640391
0.640389
0.640386
0.640384
0.640381
0.640379
0.640376
0.640372
0.640369
0.640365
0.640362
0.640357
0.640353
0.640349
0.640344
0.640339
0.640335
0.640329
0.640324
0.640319
0.640314
0.640308
0.640303
0.640298
0.640292
0.640287
0.640282
0.640278
0.640273
0.640269
0.640265
0.640261
0.640258
0.640255
0.640252
0.64025
0.640248
0.640247
0.640246
0.640245
0.640245
0.640245
0.640246
0.640247
0.640249
0.640251
0.640254
0.640258
0.640261
0.640265
0.64027
0.640274
0.640279
0.640284
0.640289
0.640294
0.640299
0.640304
0.640309
0.640314
0.640319
0.640323
0.640328
0.640332
0.640336
0.64034
0.640343
0.640347
0.64035
0.640353
0.640356
0.640358
0.64036
0.640362
0.640364
0.640366
0.640368
0.640369
0.64037
0.640371
0.640372
0.640373
0.640374
0.640375
0.640376
0.640377
0.640377
0.640378
0.640379
0.640379
0.64038
0.640381
0.640382
0.640382
0.640383
0.640384
0.640385
0.640386
0.640387
0.640388
0.640389
0.64039
0.640391
0.640392
0.640393
0.640394
0.640395
0.640396
0.640397
0.640398
0.640399
0.640401
0.640402
0.640403
0.640404
0.640405
0.640406
0.640407
0.640409
0.64041
0.640411
0.640412
0.640413
0.640414
0.640415
0.640416
0.640417
0.640419
0.64042
0.64042
0.640421
0.640422
0.640423
0.640424
0.640425
0.640426
0.640427
0.640427
0.640428
0.640429
0.640429
0.64043
0.640431
0.640431
0.640432
0.640432
0.640433
0.640433
0.640433
0.640434
0.640434
0.640434
0.640434
0.640435
0.640435
0.640435
0.640435
0.640435
0.640435
0.640435
0.640435
0.640435
0.640434
0.640434
0.640434
0.640434
0.640433
0.640433
0.640433
0.640432
0.640432
0.640432
0.640431
0.640431
0.64043
0.64043
0.640429
0.640428
0.640428
0.640427
0.640427
0.640426
0.640425
0.640424
0.640424
0.640423
0.640422
0.640421
0.64042
0.64042
0.640419
0.640418
0.640417
0.640416
0.640414
0.640413
0.640412
0.640411
0.64041
0.640408
0.640407
0.640405
0.640403
0.640402
0.6404
0.640398
0.640396
0.640394
0.640391
0.640389
0.640386
0.640384
0.640381
0.640378
0.640375
0.640372
0.640368
0.640365
0.640361
0.640357
0.640354
0.64035
0.640345
0.640341
0.640337
0.640333
0.640328
0.640324
0.640319
0.640315
0.64031
0.640306
0.640302
0.640297
0.640293
0.640289
0.640285
0.640282
0.640278
0.640275
0.640272
0.640269
0.640266
0.640264
0.640262
0.640261
0.640259
0.640259
0.640258
0.640258
0.640258
0.640258
0.640259
0.64026
0.640262
0.640264
0.640266
0.640269
0.640272
0.640275
0.640279
0.640282
0.640286
0.64029
0.640294
0.640298
0.640303
0.640307
0.640311
0.640315
0.640319
0.640323
0.640327
0.640331
0.640334
0.640338
0.640341
0.640344
0.640347
0.64035
0.640353
0.640355
0.640357
0.64036
0.640362
0.640363
0.640365
0.640367
0.640368
0.64037
0.640371
0.640372
0.640373
0.640375
0.640376
0.640377
0.640378
0.640379
0.64038
0.640381
0.640382
0.640383
0.640384
0.640385
0.640386
0.640387
0.640388
0.640389
0.64039
0.640391
0.640392
0.640393
0.640395
0.640396
0.640397
0.640398
0.640399
0.640401
0.640402
0.640403
0.640404
0.640406
0.640407
0.640408
0.64041
0.640411
0.640412
0.640413
0.640415
0.640416
0.640417
0.640418
0.640419
0.64042
0.640422
0.640423
0.640424
0.640425
0.640426
0.640427
0.640428
0.640429
0.64043
0.640431
0.640431
0.640432
0.640433
0.640434
0.640434
0.640435
0.640436
0.640436
0.640437
0.640437
0.640438
0.640438
0.640438
0.640439
0.640439
0.640439
0.640439
0.640439
0.640439
0.640439
0.640439
0.640439
0.640439
0.640439
0.640438
0.640438
0.640438
0.640438
0.640437
0.640437
0.640435
)
;

boundaryField
{
    inlet
    {
        type            calculated;
        value           uniform 3.08149e-33;
    }
    outlet
    {
        type            calculated;
        value           uniform 0.640435;
    }
    emptyWalls
    {
        type            empty;
    }
}


// ************************************************************************* //
