/*--------------------------------*- C++ -*----------------------------------*\
  =========                 |
  \\      /  F ield         | OpenFOAM: The Open Source CFD Toolbox
   \\    /   O peration     | Website:  https://openfoam.org
    \\  /    A nd           | Version:  9
     \\/     M anipulation  |
\*---------------------------------------------------------------------------*/
FoamFile
{
    format      ascii;
    class       surfaceScalarField;
    location    "26750";
    object      phia;
}
// * * * * * * * * * * * * * * * * * * * * * * * * * * * * * * * * * * * * * //

dimensions      [0 2 0 0 0 0 0];

internalField   nonuniform List<scalar> 
999
(
2.74868e-10
2.74868e-10
2.74864e-10
2.7485e-10
2.7484e-10
2.74821e-10
2.74794e-10
2.74773e-10
2.74734e-10
2.74708e-10
2.74657e-10
2.74622e-10
2.74559e-10
2.7451e-10
2.74449e-10
2.74383e-10
2.74334e-10
2.74254e-10
2.74201e-10
2.74121e-10
2.74051e-10
2.73978e-10
2.73902e-10
2.73831e-10
2.73763e-10
2.73695e-10
2.73634e-10
2.73573e-10
2.73529e-10
2.73473e-10
2.73451e-10
2.73402e-10
2.73378e-10
2.73324e-10
2.73169e-10
2.7263e-10
2.70441e-10
2.57125e-10
2.21179e-10
2.14353e-10
2.12445e-10
2.11581e-10
2.11103e-10
2.10795e-10
2.10515e-10
2.1021e-10
2.09957e-10
2.09903e-10
2.10144e-10
2.10647e-10
2.11265e-10
2.11813e-10
2.12154e-10
2.12243e-10
2.12126e-10
2.11905e-10
2.11664e-10
2.11261e-10
2.1045e-10
2.09673e-10
2.08976e-10
2.08394e-10
2.07937e-10
2.07598e-10
2.07363e-10
2.07209e-10
2.07108e-10
2.07041e-10
2.07049e-10
2.07026e-10
2.06981e-10
2.06935e-10
2.06881e-10
2.06801e-10
2.06707e-10
2.06605e-10
2.06498e-10
2.06387e-10
2.06275e-10
2.06162e-10
2.06052e-10
2.05943e-10
2.05837e-10
2.05734e-10
2.05635e-10
2.05539e-10
2.05446e-10
2.05357e-10
2.05271e-10
2.05189e-10
2.0511e-10
2.05035e-10
2.04963e-10
2.04895e-10
2.0483e-10
2.04769e-10
2.04711e-10
2.04658e-10
2.04608e-10
2.04561e-10
2.04518e-10
2.0448e-10
2.04446e-10
2.04416e-10
2.04391e-10
2.0437e-10
2.0435e-10
2.04332e-10
2.04315e-10
2.043e-10
2.04288e-10
2.04279e-10
2.04272e-10
2.04267e-10
2.04263e-10
2.0426e-10
2.04256e-10
2.04252e-10
2.04246e-10
2.0424e-10
2.04233e-10
2.04227e-10
2.04222e-10
2.04219e-10
2.0422e-10
2.04224e-10
2.04233e-10
2.04245e-10
2.04259e-10
2.04273e-10
2.04285e-10
2.04295e-10
2.043e-10
2.04301e-10
2.04298e-10
2.04292e-10
2.04284e-10
2.04274e-10
2.04268e-10
2.0427e-10
2.04286e-10
2.04325e-10
2.04391e-10
2.04489e-10
2.0462e-10
2.0478e-10
2.04966e-10
2.05173e-10
2.05395e-10
2.05625e-10
2.05859e-10
2.06092e-10
2.06319e-10
2.06534e-10
2.06732e-10
2.06907e-10
2.0705e-10
2.07157e-10
2.07221e-10
2.0724e-10
2.0721e-10
2.07132e-10
2.0701e-10
2.06848e-10
2.06652e-10
2.06432e-10
2.06195e-10
2.05951e-10
2.05707e-10
2.05471e-10
2.05249e-10
2.05045e-10
2.04863e-10
2.04705e-10
2.0457e-10
2.04457e-10
2.04367e-10
2.04295e-10
2.0424e-10
2.04198e-10
2.04167e-10
2.04144e-10
2.04126e-10
2.0411e-10
2.04096e-10
2.04082e-10
2.04066e-10
2.04047e-10
2.04026e-10
2.04001e-10
2.03973e-10
2.03941e-10
2.03907e-10
2.0387e-10
2.03831e-10
2.0379e-10
2.03747e-10
2.03703e-10
2.03659e-10
2.03614e-10
2.03568e-10
2.03523e-10
2.03478e-10
2.03433e-10
2.03388e-10
2.03345e-10
2.03302e-10
2.03259e-10
2.03218e-10
2.03177e-10
2.03138e-10
2.03099e-10
2.03062e-10
2.03026e-10
2.02991e-10
2.02957e-10
2.02924e-10
2.02892e-10
2.02861e-10
2.02831e-10
2.02802e-10
2.02775e-10
2.02748e-10
2.02722e-10
2.02697e-10
2.02674e-10
2.02652e-10
2.02631e-10
2.02611e-10
2.02593e-10
2.02576e-10
2.02561e-10
2.02546e-10
2.02533e-10
2.0252e-10
2.02509e-10
2.02498e-10
2.02487e-10
2.02477e-10
2.02468e-10
2.02459e-10
2.02451e-10
2.02443e-10
2.02437e-10
2.02431e-10
2.02427e-10
2.02424e-10
2.02422e-10
2.02421e-10
2.02422e-10
2.02423e-10
2.02424e-10
2.02425e-10
2.02425e-10
2.02425e-10
2.02423e-10
2.02421e-10
2.02417e-10
2.02414e-10
2.0241e-10
2.02409e-10
2.02411e-10
2.02418e-10
2.02431e-10
2.02452e-10
2.02483e-10
2.02524e-10
2.02578e-10
2.02645e-10
2.02725e-10
2.02819e-10
2.02925e-10
2.03044e-10
2.03174e-10
2.03314e-10
2.03461e-10
2.03614e-10
2.03771e-10
2.03927e-10
2.04082e-10
2.0423e-10
2.0437e-10
2.04497e-10
2.0461e-10
2.04705e-10
2.04779e-10
2.0483e-10
2.04858e-10
2.04861e-10
2.04838e-10
2.04791e-10
2.0472e-10
2.04627e-10
2.04516e-10
2.04387e-10
2.04246e-10
2.04095e-10
2.03937e-10
2.03776e-10
2.03616e-10
2.03458e-10
2.03306e-10
2.03162e-10
2.03026e-10
2.02901e-10
2.02787e-10
2.02683e-10
2.0259e-10
2.02508e-10
2.02436e-10
2.02373e-10
2.02317e-10
2.02269e-10
2.02226e-10
2.02188e-10
2.02154e-10
2.02123e-10
2.02094e-10
2.02065e-10
2.02038e-10
2.0201e-10
2.01982e-10
2.01953e-10
2.01924e-10
2.01893e-10
2.01861e-10
2.01828e-10
2.01793e-10
2.01758e-10
2.01721e-10
2.01684e-10
2.01645e-10
2.01607e-10
2.01567e-10
2.01527e-10
2.01487e-10
2.01447e-10
2.01407e-10
2.01367e-10
2.01328e-10
2.01288e-10
2.01249e-10
2.01211e-10
2.01173e-10
2.01136e-10
2.01099e-10
2.01063e-10
2.01028e-10
2.00994e-10
2.0096e-10
2.00927e-10
2.00895e-10
2.00864e-10
2.00833e-10
2.00803e-10
2.00775e-10
2.00747e-10
2.0072e-10
2.00694e-10
2.00668e-10
2.00644e-10
2.00621e-10
2.00598e-10
2.00577e-10
2.00556e-10
2.00537e-10
2.00518e-10
2.005e-10
2.00483e-10
2.00467e-10
2.00451e-10
2.00437e-10
2.00423e-10
2.00409e-10
2.00396e-10
2.00384e-10
2.00373e-10
2.00362e-10
2.00352e-10
2.00343e-10
2.00334e-10
2.00326e-10
2.00319e-10
2.00313e-10
2.00307e-10
2.00301e-10
2.00296e-10
2.00292e-10
2.00287e-10
2.00283e-10
2.00279e-10
2.00275e-10
2.00271e-10
2.00267e-10
2.00264e-10
2.00261e-10
2.0026e-10
2.0026e-10
2.00262e-10
2.00267e-10
2.00275e-10
2.00287e-10
2.00303e-10
2.00324e-10
2.00352e-10
2.00386e-10
2.00426e-10
2.00474e-10
2.0053e-10
2.00593e-10
2.00664e-10
2.00742e-10
2.00827e-10
2.00919e-10
2.01017e-10
2.01119e-10
2.01226e-10
2.01335e-10
2.01446e-10
2.01557e-10
2.01667e-10
2.01773e-10
2.01875e-10
2.01971e-10
2.02059e-10
2.02138e-10
2.02206e-10
2.02262e-10
2.02306e-10
2.02335e-10
2.02349e-10
2.02349e-10
2.02334e-10
2.02304e-10
2.02259e-10
2.02201e-10
2.02131e-10
2.02049e-10
2.01957e-10
2.01857e-10
2.01749e-10
2.01637e-10
2.01521e-10
2.01404e-10
2.01286e-10
2.01169e-10
2.01054e-10
2.00943e-10
2.00836e-10
2.00734e-10
2.00637e-10
2.00546e-10
2.00461e-10
2.00382e-10
2.00309e-10
2.00242e-10
2.0018e-10
2.00122e-10
2.00069e-10
2.00021e-10
1.99975e-10
1.99933e-10
1.99893e-10
1.99856e-10
1.9982e-10
1.99785e-10
1.99751e-10
1.99718e-10
1.99685e-10
1.99652e-10
1.99619e-10
1.99586e-10
1.99553e-10
1.99519e-10
1.99485e-10
1.9945e-10
1.99414e-10
1.99379e-10
1.99342e-10
1.99306e-10
1.99269e-10
1.99231e-10
1.99194e-10
1.99156e-10
1.99119e-10
1.99081e-10
1.99044e-10
1.99006e-10
1.98969e-10
1.98932e-10
1.98896e-10
1.98859e-10
1.98824e-10
1.98788e-10
1.98753e-10
1.98719e-10
1.98685e-10
1.98652e-10
1.9862e-10
1.98588e-10
1.98557e-10
1.98526e-10
1.98497e-10
1.98468e-10
1.98439e-10
1.98412e-10
1.98385e-10
1.98359e-10
1.98334e-10
1.9831e-10
1.98286e-10
1.98263e-10
1.98241e-10
1.9822e-10
1.98199e-10
1.98179e-10
1.9816e-10
1.98142e-10
1.98124e-10
1.98107e-10
1.98091e-10
1.98076e-10
1.98061e-10
1.98046e-10
1.98033e-10
1.9802e-10
1.98008e-10
1.97996e-10
1.97985e-10
1.97974e-10
1.97964e-10
1.97955e-10
1.97946e-10
1.97937e-10
1.97929e-10
1.97922e-10
1.97914e-10
1.97908e-10
1.97901e-10
1.97895e-10
1.9789e-10
1.97884e-10
1.9788e-10
1.97876e-10
1.97873e-10
1.9787e-10
1.97869e-10
1.9787e-10
1.97871e-10
1.97875e-10
1.97881e-10
1.97889e-10
1.97901e-10
1.97915e-10
1.97933e-10
1.97955e-10
1.9798e-10
1.9801e-10
1.98045e-10
1.98084e-10
1.98128e-10
1.98177e-10
1.9823e-10
1.98288e-10
1.9835e-10
1.98417e-10
1.98488e-10
1.98561e-10
1.98638e-10
1.98717e-10
1.98798e-10
1.9888e-10
1.98962e-10
1.99043e-10
1.99123e-10
1.992e-10
1.99274e-10
1.99344e-10
1.9941e-10
1.99469e-10
1.99521e-10
1.99567e-10
1.99604e-10
1.99632e-10
1.99652e-10
1.99662e-10
1.99662e-10
1.99653e-10
1.99634e-10
1.99605e-10
1.99567e-10
1.9952e-10
1.99465e-10
1.99402e-10
1.99332e-10
1.99256e-10
1.99175e-10
1.9909e-10
1.99001e-10
1.98909e-10
1.98816e-10
1.98722e-10
1.98629e-10
1.98535e-10
1.98444e-10
1.98354e-10
1.98266e-10
1.98182e-10
1.98101e-10
1.98023e-10
1.97948e-10
1.97877e-10
1.9781e-10
1.97746e-10
1.97686e-10
1.97629e-10
1.97575e-10
1.97524e-10
1.97476e-10
1.9743e-10
1.97386e-10
1.97344e-10
1.97303e-10
1.97264e-10
1.97227e-10
1.9719e-10
1.97154e-10
1.97118e-10
1.97083e-10
1.97048e-10
1.97014e-10
1.96979e-10
1.96945e-10
1.9691e-10
1.96876e-10
1.96841e-10
1.96806e-10
1.96771e-10
1.96736e-10
1.96701e-10
1.96665e-10
1.9663e-10
1.96595e-10
1.96559e-10
1.96524e-10
1.96488e-10
1.96453e-10
1.96418e-10
1.96383e-10
1.96348e-10
1.96314e-10
1.9628e-10
1.96246e-10
1.96213e-10
1.9618e-10
1.96147e-10
1.96115e-10
1.96084e-10
1.96053e-10
1.96022e-10
1.95992e-10
1.95963e-10
1.95934e-10
1.95906e-10
1.95878e-10
1.95851e-10
1.95825e-10
1.95799e-10
1.95774e-10
1.9575e-10
1.95726e-10
1.95703e-10
1.95681e-10
1.95659e-10
1.95638e-10
1.95617e-10
1.95597e-10
1.95578e-10
1.9556e-10
1.95542e-10
1.95524e-10
1.95508e-10
1.95491e-10
1.95476e-10
1.9546e-10
1.95446e-10
1.95432e-10
1.95419e-10
1.95405e-10
1.95393e-10
1.95381e-10
1.9537e-10
1.95358e-10
1.95348e-10
1.95337e-10
1.95328e-10
1.95318e-10
1.95309e-10
1.95301e-10
1.95293e-10
1.95285e-10
1.95278e-10
1.95271e-10
1.95265e-10
1.95259e-10
1.95255e-10
1.95251e-10
1.95248e-10
1.95246e-10
1.95245e-10
1.95246e-10
1.95248e-10
1.95252e-10
1.95258e-10
1.95265e-10
1.95275e-10
1.95288e-10
1.95302e-10
1.9532e-10
1.9534e-10
1.95363e-10
1.95389e-10
1.95419e-10
1.95451e-10
1.95488e-10
1.95526e-10
1.95569e-10
1.95613e-10
1.95662e-10
1.95712e-10
1.95765e-10
1.9582e-10
1.95878e-10
1.95936e-10
1.95997e-10
1.96058e-10
1.9612e-10
1.9618e-10
1.96242e-10
1.96301e-10
1.96359e-10
1.96415e-10
1.96469e-10
1.96518e-10
1.96565e-10
1.96607e-10
1.96645e-10
1.96678e-10
1.96705e-10
1.96726e-10
1.96742e-10
1.9675e-10
1.96753e-10
1.96749e-10
1.96738e-10
1.9672e-10
1.96695e-10
1.96665e-10
1.96627e-10
1.96584e-10
1.96536e-10
1.96482e-10
1.96423e-10
1.9636e-10
1.96293e-10
1.96223e-10
1.96151e-10
1.96076e-10
1.95999e-10
1.95921e-10
1.95843e-10
1.95764e-10
1.95686e-10
1.95609e-10
1.95532e-10
1.95457e-10
1.95383e-10
1.95312e-10
1.95242e-10
1.95175e-10
1.95109e-10
1.95046e-10
1.94986e-10
1.94927e-10
1.94871e-10
1.94817e-10
1.94766e-10
1.94716e-10
1.94668e-10
1.94622e-10
1.94577e-10
1.94534e-10
1.94492e-10
1.94452e-10
1.94412e-10
1.94373e-10
1.94335e-10
1.94298e-10
1.94262e-10
1.94225e-10
1.9419e-10
1.94154e-10
1.94119e-10
1.94084e-10
1.94049e-10
1.94014e-10
1.93979e-10
1.93944e-10
1.9391e-10
1.93875e-10
1.9384e-10
1.93805e-10
1.93771e-10
1.93736e-10
1.93701e-10
1.93667e-10
1.93632e-10
1.93598e-10
1.93564e-10
1.9353e-10
1.93496e-10
1.93462e-10
1.93429e-10
1.93396e-10
1.93363e-10
1.9333e-10
1.93298e-10
1.93266e-10
1.93234e-10
1.93203e-10
1.93173e-10
1.93142e-10
1.93112e-10
1.93083e-10
1.93054e-10
1.93026e-10
1.92998e-10
1.9297e-10
1.92943e-10
1.92917e-10
1.92891e-10
1.92866e-10
1.92841e-10
1.92817e-10
1.92793e-10
1.9277e-10
1.92747e-10
1.92725e-10
1.92704e-10
1.92683e-10
1.92662e-10
1.92642e-10
1.92622e-10
1.92603e-10
1.92585e-10
1.92567e-10
1.92549e-10
1.92532e-10
1.92516e-10
1.92499e-10
1.92484e-10
1.92468e-10
1.92453e-10
1.92439e-10
1.92425e-10
1.92411e-10
1.92398e-10
1.92385e-10
1.92373e-10
1.92361e-10
1.92349e-10
1.92338e-10
1.92327e-10
1.92317e-10
1.92307e-10
1.92298e-10
1.92289e-10
1.92281e-10
1.92274e-10
1.92268e-10
1.92262e-10
1.92258e-10
1.92254e-10
1.92252e-10
1.9225e-10
1.9225e-10
1.92252e-10
1.92255e-10
1.92259e-10
1.92266e-10
1.92274e-10
1.92284e-10
1.92296e-10
1.9231e-10
1.92326e-10
1.92344e-10
1.92365e-10
1.92387e-10
1.92412e-10
1.9244e-10
1.92469e-10
1.92501e-10
1.92534e-10
1.9257e-10
1.92608e-10
1.92647e-10
1.92688e-10
1.9273e-10
1.92773e-10
1.92817e-10
1.92861e-10
1.92906e-10
1.92951e-10
1.92996e-10
1.9304e-10
1.93084e-10
1.93127e-10
1.9317e-10
1.9321e-10
1.9325e-10
1.93286e-10
1.9332e-10
1.93351e-10
1.93379e-10
1.93402e-10
1.93423e-10
1.93438e-10
1.93451e-10
1.93457e-10
1.93461e-10
1.93457e-10
1.93452e-10
1.93439e-10
1.93425e-10
1.93403e-10
1.93378e-10
1.93347e-10
1.93313e-10
1.93271e-10
1.93227e-10
1.93177e-10
1.93125e-10
1.93069e-10
1.93012e-10
1.92951e-10
1.92889e-10
1.92824e-10
1.92758e-10
1.92691e-10
1.92622e-10
1.92553e-10
1.92484e-10
1.92414e-10
1.92345e-10
1.92276e-10
1.92208e-10
1.9214e-10
1.92074e-10
1.92009e-10
1.91944e-10
1.91882e-10
1.9182e-10
1.91761e-10
1.91702e-10
1.91646e-10
1.9159e-10
1.91536e-10
1.91484e-10
1.91433e-10
1.91383e-10
1.91335e-10
1.91288e-10
1.91242e-10
1.91197e-10
1.91153e-10
1.91109e-10
1.91067e-10
1.91025e-10
1.90985e-10
1.90944e-10
1.90905e-10
1.90865e-10
1.90826e-10
1.90788e-10
1.90749e-10
1.90711e-10
1.90673e-10
1.90636e-10
1.90598e-10
1.90561e-10
1.90523e-10
1.90486e-10
1.90449e-10
1.90412e-10
1.90375e-10
1.90339e-10
1.90302e-10
1.90266e-10
1.90229e-10
)
;

boundaryField
{
    inlet
    {
        type            calculated;
        value           uniform -2.74882e-10;
    }
    outlet
    {
        type            calculated;
        value           uniform 3.40047e-11;
    }
    emptyWalls
    {
        type            empty;
        value           nonuniform List<scalar> 0();
    }
}


// ************************************************************************* //
