/*--------------------------------*- C++ -*----------------------------------*\
  =========                 |
  \\      /  F ield         | OpenFOAM: The Open Source CFD Toolbox
   \\    /   O peration     | Website:  https://openfoam.org
    \\  /    A nd           | Version:  9
     \\/     M anipulation  |
\*---------------------------------------------------------------------------*/
FoamFile
{
    format      ascii;
    class       volScalarField;
    location    "9000";
    object      Fb;
}
// * * * * * * * * * * * * * * * * * * * * * * * * * * * * * * * * * * * * * //

dimensions      [0 0 0 0 0 0 0];

internalField   nonuniform List<scalar> 
1000
(
0.805232
0.805206
0.805277
0.805307
0.805372
0.8054
0.805459
0.805495
0.805502
0.805729
0.805732
0.807398
0.821314
0.832435
0.834388
0.835129
0.835573
0.835856
0.836097
0.836261
0.836407
0.836499
0.836585
0.836646
0.83665
0.836709
0.836659
0.836671
0.836624
0.836564
0.836455
0.83631
0.836077
0.835748
0.83527
0.834692
0.834056
0.833382
0.83268
0.831958
0.831222
0.830475
0.829719
0.828955
0.828184
0.827406
0.826618
0.825819
0.825006
0.824182
0.823351
0.822515
0.821678
0.820838
0.819989
0.819125
0.818236
0.817316
0.816364
0.815378
0.814365
0.81333
0.812279
0.81122
0.810159
0.809103
0.808058
0.807032
0.806032
0.805067
0.804145
0.803272
0.802451
0.801685
0.800969
0.800298
0.799662
0.79905
0.798449
0.797846
0.79723
0.79659
0.79592
0.795216
0.794475
0.793697
0.792884
0.792041
0.791172
0.790281
0.789374
0.788455
0.787529
0.786599
0.785668
0.784738
0.783811
0.782887
0.781968
0.781052
0.780141
0.779231
0.778326
0.77742
0.776518
0.775613
0.774711
0.773806
0.772902
0.771995
0.771088
0.770178
0.769267
0.768354
0.767439
0.766522
0.765603
0.764681
0.763757
0.762831
0.761902
0.760971
0.760037
0.7591
0.758161
0.757218
0.756273
0.755324
0.754373
0.753418
0.75246
0.7515
0.750536
0.74957
0.748601
0.747629
0.746655
0.745678
0.744698
0.743716
0.742731
0.741744
0.740754
0.739762
0.738767
0.73777
0.73677
0.735769
0.734764
0.733758
0.732749
0.731738
0.730724
0.729708
0.72869
0.727669
0.726646
0.725621
0.724593
0.723563
0.72253
0.721495
0.720458
0.719417
0.718375
0.71733
0.716282
0.715232
0.714179
0.713124
0.712066
0.711006
0.709944
0.70888
0.707813
0.706744
0.705672
0.704599
0.703523
0.702444
0.701362
0.700278
0.699191
0.698101
0.697008
0.695912
0.694812
0.69371
0.692604
0.691494
0.69038
0.689262
0.68814
0.687012
0.685879
0.684739
0.683592
0.682438
0.681276
0.680105
0.678926
0.677738
0.676541
0.675334
0.67412
0.672897
0.671667
0.670431
0.669189
0.667943
0.666694
0.665445
0.664195
0.662949
0.661706
0.660469
0.65924
0.65802
0.65681
0.655612
0.654427
0.653255
0.652096
0.650949
0.649814
0.648689
0.647573
0.646464
0.645359
0.644257
0.643155
0.642049
0.640939
0.639823
0.638697
0.637562
0.636415
0.635256
0.634084
0.6329
0.631703
0.630493
0.629271
0.628038
0.626794
0.62554
0.624277
0.623005
0.621726
0.620439
0.619147
0.617848
0.616545
0.615237
0.613924
0.612607
0.611287
0.609962
0.608633
0.607301
0.605965
0.604625
0.603281
0.601933
0.60058
0.599223
0.597862
0.596495
0.595124
0.593747
0.592365
0.590978
0.589585
0.588186
0.586781
0.585371
0.583954
0.58253
0.5811
0.579664
0.578221
0.57677
0.575313
0.573849
0.572378
0.570899
0.569413
0.56792
0.566418
0.564909
0.563391
0.561865
0.560331
0.558788
0.557236
0.555676
0.554107
0.552528
0.55094
0.549343
0.547736
0.546119
0.544492
0.542855
0.541207
0.539549
0.53788
0.5362
0.534509
0.532807
0.531094
0.529369
0.527632
0.525883
0.524122
0.522349
0.520564
0.518766
0.516956
0.515132
0.513296
0.511446
0.509585
0.50771
0.505825
0.503923
0.502016
0.500089
0.498162
0.496214
0.494272
0.49231
0.490359
0.488396
0.486446
0.484498
0.482568
0.480662
0.47878
0.476947
0.475151
0.473427
0.471766
0.470192
0.468711
0.467328
0.466061
0.464894
0.463841
0.462877
0.461981
0.461113
0.460174
0.459037
0.457436
0.454946
0.45083
0.443868
0.432221
0.413419
0.38516
0.347246
0.303867
0.262889
0.230902
0.209581
0.196853
0.189749
0.185939
0.183933
0.182889
0.182347
0.182065
0.181916
0.181836
0.181792
0.181765
0.181747
0.181732
0.18172
0.181709
0.181697
0.181685
0.181673
0.18166
0.181647
0.181633
0.181618
0.181603
0.181588
0.181572
0.181556
0.18154
0.181524
0.181508
0.181492
0.181477
0.181462
0.181447
0.181434
0.181421
0.18141
0.1814
0.181391
0.181384
0.181378
0.181374
0.181373
0.181372
0.181372
0.181373
0.181377
0.181384
0.181393
0.181403
0.181415
0.181428
0.181442
0.181457
0.181473
0.181489
0.181506
0.181523
0.18154
0.181556
0.181573
0.181589
0.181604
0.181619
0.181633
0.181646
0.181658
0.181669
0.181679
0.181688
0.181696
0.181703
0.181709
0.181714
0.181718
0.181722
0.181725
0.181727
0.181729
0.18173
0.181731
0.181731
0.181732
0.181732
0.181732
0.181732
0.181732
0.181732
0.181732
0.181732
0.181732
0.181733
0.181733
0.181734
0.181734
0.181735
0.181736
0.181737
0.181739
0.18174
0.181742
0.181744
0.181746
0.181748
0.18175
0.181752
0.181754
0.181757
0.181759
0.181762
0.181765
0.181767
0.18177
0.181773
0.181776
0.181778
0.181781
0.181784
0.181787
0.18179
0.181793
0.181796
0.181799
0.181801
0.181804
0.181807
0.18181
0.181813
0.181816
0.181818
0.181821
0.181824
0.181826
0.181829
0.181832
0.181834
0.181837
0.181839
0.181841
0.181844
0.181846
0.181848
0.18185
0.181852
0.181854
0.181856
0.181857
0.181859
0.18186
0.181862
0.181863
0.181864
0.181865
0.181866
0.181867
0.181868
0.181869
0.181869
0.18187
0.18187
0.18187
0.18187
0.18187
0.18187
0.18187
0.18187
0.18187
0.181869
0.181869
0.181868
0.181867
0.181867
0.181866
0.181865
0.181864
0.181863
0.181862
0.18186
0.181859
0.181858
0.181856
0.181855
0.181853
0.181852
0.18185
0.181849
0.181847
0.181845
0.181843
0.181841
0.181839
0.181837
0.181835
0.181833
0.181831
0.181829
0.181826
0.181824
0.181821
0.181819
0.181816
0.181813
0.18181
0.181807
0.181803
0.1818
0.181796
0.181792
0.181788
0.181783
0.181779
0.181774
0.181768
0.181763
0.181757
0.18175
0.181744
0.181736
0.181729
0.181721
0.181712
0.181703
0.181694
0.181684
0.181673
0.181662
0.181651
0.181639
0.181627
0.181615
0.181602
0.181589
0.181575
0.181562
0.181549
0.181535
0.181522
0.181509
0.181496
0.181483
0.181471
0.18146
0.181449
0.181438
0.181429
0.181421
0.181413
0.181407
0.181401
0.181397
0.181394
0.181393
0.181392
0.181393
0.181393
0.181394
0.181399
0.181405
0.181412
0.18142
0.18143
0.18144
0.181451
0.181463
0.181475
0.181488
0.181501
0.181515
0.181528
0.181542
0.181555
0.181568
0.181581
0.181593
0.181605
0.181616
0.181627
0.181637
0.181647
0.181655
0.181663
0.18167
0.181677
0.181683
0.181689
0.181694
0.181698
0.181702
0.181705
0.181709
0.181711
0.181714
0.181716
0.181718
0.18172
0.181722
0.181724
0.181725
0.181727
0.181728
0.18173
0.181732
0.181734
0.181736
0.181738
0.18174
0.181742
0.181744
0.181746
0.181749
0.181751
0.181754
0.181757
0.18176
0.181763
0.181766
0.181769
0.181772
0.181775
0.181778
0.181781
0.181785
0.181788
0.181791
0.181794
0.181798
0.181801
0.181804
0.181808
0.181811
0.181814
0.181817
0.18182
0.181824
0.181827
0.18183
0.181833
0.181836
0.181839
0.181841
0.181844
0.181847
0.18185
0.181852
0.181855
0.181857
0.18186
0.181862
0.181864
0.181866
0.181868
0.18187
0.181872
0.181874
0.181875
0.181877
0.181878
0.18188
0.181881
0.181882
0.181883
0.181883
0.181884
0.181884
0.181885
0.181885
0.181885
0.181885
0.181885
0.181885
0.181884
0.181884
0.181883
0.181882
0.181881
0.18188
0.181879
0.181878
0.181876
0.181875
0.181873
0.181871
0.18187
0.181868
0.181866
0.181864
0.181862
0.18186
0.181857
0.181855
0.181853
0.18185
0.181848
0.181845
0.181843
0.18184
0.181838
0.181835
0.181832
0.181829
0.181826
0.181824
0.181821
0.181818
0.181815
0.181811
0.181808
0.181805
0.181801
0.181798
0.181794
0.18179
0.181786
0.181782
0.181778
0.181774
0.181769
0.181764
0.181759
0.181754
0.181748
0.181743
0.181737
0.18173
0.181724
0.181717
0.181709
0.181702
0.181694
0.181686
0.181677
0.181668
0.181659
0.18165
0.18164
0.18163
0.181619
0.181609
0.181598
0.181587
0.181576
0.181565
0.181554
0.181543
0.181532
0.181521
0.18151
0.181499
0.181489
0.181479
0.18147
0.181461
0.181452
0.181444
0.181437
0.181431
0.181425
0.18142
0.181417
0.181414
0.181412
0.181411
0.181411
0.181411
0.181411
0.181414
0.181418
0.181423
0.18143
0.181436
0.181444
0.181453
0.181462
0.181472
0.181482
0.181493
0.181504
0.181515
0.181527
0.181538
0.18155
0.181561
0.181572
0.181583
0.181594
0.181604
0.181614
0.181623
0.181632
0.18164
0.181648
0.181655
0.181662
0.181668
0.181674
0.181679
0.181684
0.181688
0.181692
0.181696
0.181699
0.181702
0.181705
0.181707
0.18171
0.181712
0.181714
0.181716
0.181718
0.18172
0.181722
0.181724
0.181725
0.181727
0.181729
0.181731
0.181733
0.181736
0.181738
0.18174
0.181743
0.181745
0.181748
0.181751
0.181753
0.181756
0.181759
0.181762
0.181765
0.181768
0.181771
0.181774
0.181777
0.18178
0.181783
0.181787
0.18179
0.181793
0.181796
0.181799
0.181802
0.181805
0.181808
0.181811
0.181813
0.181816
0.181819
0.181821
0.181824
0.181826
0.181829
0.181831
0.181833
0.181836
0.181838
0.18184
0.181842
0.181844
0.181845
0.181847
0.181849
0.18185
0.181852
0.181853
0.181854
0.181856
0.181857
0.181858
0.181859
0.18186
0.181861
0.181861
0.181862
0.181863
0.181863
0.181863
0.181864
0.181864
0.181864
0.181864
0.181864
0.181864
0.181864
0.181863
0.181863
0.181862
0.181862
0.181861
0.18186
0.181859
0.181858
0.181857
0.181855
0.181854
0.181852
0.181852
0.181849
0.181848
0.181846
0.181845
0.181842
0.181841
0.181838
0.181837
0.181833
0.181832
0.181829
0.181828
0.181824
0.181823
0.181819
0.181818
0.181813
0.181812
0.181807
0.181806
0.181801
0.1818
0.181794
0.181793
0.181787
0.181786
0.18178
0.181778
0.181771
0.18177
0.181763
0.181761
0.181753
0.181751
0.181743
0.18174
0.181731
0.181729
0.181716
)
;

boundaryField
{
    inlet
    {
        type            calculated;
        value           uniform 0.805169;
    }
    outlet
    {
        type            calculated;
        value           uniform 0.181717;
    }
    emptyWalls
    {
        type            empty;
    }
}


// ************************************************************************* //
