/*--------------------------------*- C++ -*----------------------------------*\
  =========                 |
  \\      /  F ield         | OpenFOAM: The Open Source CFD Toolbox
   \\    /   O peration     | Website:  https://openfoam.org
    \\  /    A nd           | Version:  9
     \\/     M anipulation  |
\*---------------------------------------------------------------------------*/
FoamFile
{
    format      ascii;
    class       volScalarField;
    location    "9000";
    object      p;
}
// * * * * * * * * * * * * * * * * * * * * * * * * * * * * * * * * * * * * * //

dimensions      [0 0 0 0 0 0 0];

internalField   nonuniform List<scalar> 
1000
(
238444
238021
237605
237193
236788
236387
235991
235598
235210
234825
234449
234101
233832
233708
233616
233530
233445
233362
233279
233196
233114
233032
232950
232868
232786
232705
232623
232542
232460
232378
232297
232215
232132
232050
231967
231884
231800
231715
231630
231544
231458
231371
231283
231194
231105
231015
230924
230833
230741
230649
230555
230461
230367
230272
230176
230079
229982
229885
229786
229687
229588
229488
229387
229285
229184
229081
228978
228874
228770
228665
228560
228454
228347
228240
228132
228024
227915
227805
227695
227584
227473
227361
227248
227135
227021
226907
226792
226677
226561
226444
226327
226209
226091
225973
225853
225734
225613
225492
225371
225249
225127
225004
224880
224756
224632
224507
224381
224255
224129
224001
223874
223746
223617
223488
223358
223228
223097
222966
222834
222702
222569
222436
222302
222168
222034
221898
221763
221626
221490
221352
221215
221077
220938
220799
220659
220519
220379
220237
220096
219954
219811
219668
219525
219381
219236
219092
218946
218800
218654
218507
218360
218212
218064
217915
217766
217617
217467
217316
217165
217014
216862
216709
216557
216403
216250
216095
215941
215786
215630
215474
215317
215161
215003
214845
214687
214528
214369
214209
214049
213889
213728
213566
213404
213242
213079
212916
212752
212588
212424
212259
212093
211927
211761
211594
211427
211259
211091
210923
210754
210584
210415
210244
210074
209903
209731
209559
209387
209214
209041
208867
208693
208519
208344
208168
207993
207816
207640
207463
207285
207108
206929
206751
206571
206392
206212
206031
205850
205669
205487
205305
205122
204939
204755
204571
204386
204201
204016
203830
203643
203456
203269
203081
202893
202704
202515
202326
202136
201945
201755
201563
201371
201179
200987
200794
200600
200406
200212
200017
199822
199626
199430
199234
199037
198839
198641
198443
198244
198045
197845
197645
197445
197244
197042
196840
196638
196435
196232
196029
195824
195620
195415
195209
195004
194797
194590
194383
194175
193967
193759
193550
193340
193130
192920
192709
192497
192286
192073
191861
191647
191434
191220
191005
190790
190574
190358
190142
189925
189708
189490
189271
189053
188833
188614
188393
188173
187951
187730
187508
187285
187062
186838
186614
186390
186165
185939
185713
185487
185260
185032
184804
184576
184347
184117
183887
183657
183426
183194
182962
182730
182497
182264
182030
181796
181562
181327
181092
180857
180621
180385
180149
179912
179676
179439
179202
178964
178726
178488
178248
178006
177761
177511
177255
176992
176723
176451
176175
175899
175621
175344
175066
174789
174511
174233
173956
173678
173400
173123
172845
172567
172290
172012
171734
171457
171179
170902
170624
170347
170069
169792
169514
169237
168959
168682
168404
168127
167850
167572
167295
167018
166741
166463
166186
165909
165632
165355
165077
164800
164523
164246
163969
163691
163414
163137
162860
162583
162305
162028
161751
161474
161196
160919
160642
160364
160087
159810
159532
159255
158977
158700
158422
158145
157867
157590
157312
157034
156757
156479
156202
155924
155646
155369
155091
154813
154536
154258
153980
153703
153425
153147
152870
152592
152314
152037
151759
151481
151204
150926
150648
150371
150093
149815
149538
149260
148982
148705
148427
148149
147872
147594
147316
147038
146761
146483
146205
145928
145650
145372
145094
144817
144539
144261
143983
143706
143428
143150
142872
142595
142317
142039
141761
141483
141206
140928
140650
140372
140094
139817
139539
139261
138983
138705
138428
138150
137872
137594
137316
137038
136761
136483
136205
135927
135649
135371
135093
134816
134538
134260
133982
133704
133426
133148
132871
132593
132315
132037
131759
131481
131203
130925
130648
130370
130092
129814
129536
129258
128980
128703
128425
128147
127869
127591
127313
127035
126758
126480
126202
125924
125646
125368
125091
124813
124535
124257
123979
123701
123424
123146
122868
122590
122312
122034
121757
121479
121201
120923
120645
120368
120090
119812
119534
119257
118979
118701
118423
118145
117868
117590
117312
117035
116757
116479
116201
115924
115646
115368
115091
114813
114535
114258
113980
113703
113425
113147
112870
112592
112315
112037
111760
111482
111205
110927
110650
110373
110095
109818
109541
109263
108986
108709
108431
108154
107877
107600
107322
107045
106768
106491
106213
105936
105659
105382
105104
104827
104550
104273
103995
103718
103441
103164
102886
102609
102332
102054
101777
101499
101222
100944
100667
100390
100112
99834.5
99557
99279.4
99001.9
98724.3
98446.7
98169.1
97891.5
97613.9
97336.3
97058.7
96781.1
96503.4
96225.8
95948.1
95670.5
95392.8
95115.2
94837.5
94559.9
94282.2
94004.5
93726.9
93449.2
93171.5
92893.8
92616.2
92338.5
92060.8
91783.1
91505.4
91227.7
90950
90672.3
90394.6
90116.9
89839.2
89561.5
89283.8
89006.1
88728.4
88450.6
88172.9
87895.2
87617.4
87339.7
87061.9
86784.2
86506.4
86228.7
85950.9
85673.1
85395.3
85117.6
84839.8
84562
84284.2
84006.4
83728.6
83450.8
83173
82895.2
82617.4
82339.5
82061.7
81783.9
81506.1
81228.2
80950.4
80672.5
80394.7
80116.8
79839
79561.1
79283.3
79005.4
78727.5
78449.7
78171.8
77893.9
77616.1
77338.2
77060.3
76782.4
76504.6
76226.7
75948.8
75670.9
75393
75115.2
74837.3
74559.4
74281.5
74003.6
73725.7
73447.8
73170
72892.1
72614.2
72336.3
72058.4
71780.6
71502.7
71224.8
70947
70669.1
70391.2
70113.4
69835.5
69557.6
69279.8
69001.9
68724.1
68446.2
68168.4
67890.5
67612.7
67334.9
67057
66779.2
66501.4
66223.5
65945.7
65667.9
65390.1
65112.3
64834.5
64556.7
64278.9
64001.1
63723.3
63445.5
63167.7
62890
62612.2
62334.4
62056.7
61778.9
61501.2
61223.4
60945.7
60667.9
60390.2
60112.5
59834.8
59557.1
59279.4
59001.7
58724
58446.3
58168.7
57891
57613.4
57335.7
57058.1
56780.5
56502.9
56225.3
55947.7
55670.1
55392.6
55115.1
54837.5
54560
54282.5
54005
53727.6
53450.1
53172.7
52895.3
52617.8
52340.5
52063.1
51785.7
51508.4
51231
50953.7
50676.4
50399.1
50121.8
49844.5
49567.2
49289.9
49012.7
48735.4
48458.2
48180.9
47903.7
47626.4
47349.2
47071.9
46794.6
46517.4
46240.1
45962.8
45685.5
45408.2
45130.9
44853.6
44576.2
44298.9
44021.5
43744.1
43466.7
43189.3
42911.9
42634.4
42357
42079.5
41802
41524.5
41247
40969.5
40691.9
40414.4
40136.8
39859.2
39581.7
39304.1
39026.5
38748.9
38471.2
38193.6
37916
37638.4
37360.7
37083.1
36805.5
36527.8
36250.2
35972.5
35694.9
35417.2
35139.5
34861.9
34584.2
34306.5
34028.9
33751.2
33473.5
33195.8
32918.2
32640.5
32362.8
32085.1
31807.4
31529.7
31252
30974.3
30696.6
30418.9
30141.2
29863.5
29585.7
29308
29030.3
28752.5
28474.8
28197.1
27919.3
27641.6
27363.8
27086
26808.3
26530.5
26252.7
25975
25697.2
25419.4
25141.6
24863.8
24586
24308.2
24030.4
23752.6
23474.8
23197
22919.2
22641.4
22363.6
22085.8
21807.9
21530.1
21252.3
20974.4
20696.6
20418.8
20140.9
19863.1
19585.3
19307.4
19029.6
18751.7
18473.9
18196
17918.2
17640.3
17362.5
17084.6
16806.8
16528.9
16251
15973.2
15695.3
15417.5
15139.6
14861.8
14583.9
14306.1
14028.2
13750.4
13472.5
13194.6
12916.8
12638.9
12361.1
12083.3
11805.4
11527.6
11249.7
10971.9
10694
10416.2
10138.4
9860.55
9582.72
9304.9
9027.07
8749.25
8471.44
8193.62
7915.81
7638
7360.2
7082.4
6804.6
6526.8
6249.01
5971.23
5693.44
5415.66
5137.89
4860.12
4582.35
4304.59
4026.83
3749.08
3471.33
3193.59
2915.85
2638.12
2360.4
2082.68
1804.96
1527.26
1249.56
971.864
694.178
416.5
138.831
)
;

boundaryField
{
    inlet
    {
        type            darcyGradPressure;
        gradient        uniform 116344;
        Mf              Mf;
        phi             phi;
        value           uniform 238657;
    }
    outlet
    {
        type            fixedValue;
        value           uniform 0;
    }
    emptyWalls
    {
        type            empty;
    }
}


// ************************************************************************* //
