/*--------------------------------*- C++ -*----------------------------------*\
  =========                 |
  \\      /  F ield         | OpenFOAM: The Open Source CFD Toolbox
   \\    /   O peration     | Website:  https://openfoam.org
    \\  /    A nd           | Version:  9
     \\/     M anipulation  |
\*---------------------------------------------------------------------------*/
FoamFile
{
    format      ascii;
    class       volScalarField;
    location    "2000";
    object      p;
}
// * * * * * * * * * * * * * * * * * * * * * * * * * * * * * * * * * * * * * //

dimensions      [0 0 0 0 0 0 0];

internalField   nonuniform List<scalar> 
100
(
1.02238e+06
1.00074e+06
979092
957447
935801
914155
892509
870863
849217
827571
805926
784280
762634
740988
719342
697696
676051
654405
632759
611113
589467
567821
546176
524530
502884
481238
459592
437946
416301
394655
373009
351363
329717
308071
286426
264780
243134
221488
199842
178196
156551
134905
113259
91613.1
69967.3
48321.5
28047.3
11292.7
11044
10829.5
10615.1
10400.7
10186.2
9971.76
9757.32
9542.87
9328.42
9113.98
8899.53
8685.08
8470.64
8256.19
8041.74
7827.3
7612.85
7398.41
7183.96
6969.51
6755.07
6540.62
6326.17
6111.73
5897.28
5682.83
5468.39
5253.94
5039.49
4825.05
4610.6
4396.15
4181.71
3967.26
3752.81
3538.37
3323.92
3109.47
2895.03
2680.58
2466.13
2251.69
2037.24
1822.8
1608.35
1393.9
1179.46
965.009
750.563
536.116
321.669
107.223
)
;

boundaryField
{
    inlet
    {
        type            darcyGradPressure;
        gradient        uniform 8.7587e+06;
        Mf              Mf;
        phi             phi;
        value           uniform 1.0332e+06;
    }
    outlet
    {
        type            fixedValue;
        value           uniform 0;
    }
    emptyWalls
    {
        type            empty;
    }
}


// ************************************************************************* //
