/*--------------------------------*- C++ -*----------------------------------*\
  =========                 |
  \\      /  F ield         | OpenFOAM: The Open Source CFD Toolbox
   \\    /   O peration     | Website:  https://openfoam.org
    \\  /    A nd           | Version:  9
     \\/     M anipulation  |
\*---------------------------------------------------------------------------*/
FoamFile
{
    format      ascii;
    class       volVectorField;
    location    "2000";
    object      Ub;
}
// * * * * * * * * * * * * * * * * * * * * * * * * * * * * * * * * * * * * * //

dimensions      [0 0 0 0 0 0 0];

internalField   nonuniform List<vector> 
100
(
(2.33835e-05 0 0)
(2.33899e-05 0 0)
(2.33899e-05 0 0)
(2.33899e-05 0 0)
(2.33899e-05 0 0)
(2.33899e-05 0 0)
(2.33899e-05 0 0)
(2.33899e-05 0 0)
(2.33899e-05 0 0)
(2.33899e-05 0 0)
(2.33899e-05 0 0)
(2.33899e-05 0 0)
(2.33899e-05 0 0)
(2.33899e-05 0 0)
(2.33899e-05 0 0)
(2.33899e-05 0 0)
(2.33899e-05 0 0)
(2.33899e-05 0 0)
(2.33899e-05 0 0)
(2.33899e-05 0 0)
(2.33899e-05 0 0)
(2.33899e-05 0 0)
(2.33899e-05 0 0)
(2.33899e-05 0 0)
(2.33899e-05 0 0)
(2.33899e-05 0 0)
(2.33899e-05 0 0)
(2.33899e-05 0 0)
(2.33899e-05 0 0)
(2.33899e-05 0 0)
(2.33899e-05 0 0)
(2.33899e-05 0 0)
(2.33899e-05 0 0)
(2.33899e-05 0 0)
(2.33899e-05 0 0)
(2.33899e-05 0 0)
(2.33899e-05 0 0)
(2.33899e-05 0 0)
(2.33899e-05 0 0)
(2.33899e-05 0 0)
(2.33899e-05 0 0)
(2.33899e-05 0 0)
(2.33899e-05 0 0)
(2.33899e-05 0 0)
(2.33899e-05 0 0)
(2.36072e-05 0 0)
(2.43803e-05 0 0)
(2.70853e-05 0 0)
(2.92357e-05 0 0)
(2.92368e-05 0 0)
(2.92368e-05 0 0)
(2.92368e-05 0 0)
(2.92368e-05 0 0)
(2.92368e-05 0 0)
(2.92368e-05 0 0)
(2.92368e-05 0 0)
(2.92368e-05 0 0)
(2.92368e-05 0 0)
(2.92368e-05 0 0)
(2.92368e-05 0 0)
(2.92368e-05 0 0)
(2.92368e-05 0 0)
(2.92368e-05 0 0)
(2.92368e-05 0 0)
(2.92368e-05 0 0)
(2.92368e-05 0 0)
(2.92368e-05 0 0)
(2.92368e-05 0 0)
(2.92368e-05 0 0)
(2.92368e-05 0 0)
(2.92368e-05 0 0)
(2.92368e-05 0 0)
(2.92368e-05 0 0)
(2.92368e-05 0 0)
(2.92368e-05 0 0)
(2.92368e-05 0 0)
(2.92368e-05 0 0)
(2.92368e-05 0 0)
(2.92368e-05 0 0)
(2.92368e-05 0 0)
(2.92368e-05 0 0)
(2.92368e-05 0 0)
(2.92368e-05 0 0)
(2.92368e-05 0 0)
(2.92368e-05 0 0)
(2.92368e-05 0 0)
(2.92368e-05 0 0)
(2.92368e-05 0 0)
(2.92368e-05 0 0)
(2.92368e-05 0 0)
(2.92368e-05 0 0)
(2.92368e-05 0 0)
(2.92368e-05 0 0)
(2.92368e-05 0 0)
(2.92368e-05 0 0)
(2.92368e-05 0 0)
(2.92368e-05 0 0)
(2.92368e-05 0 0)
(2.92368e-05 0 0)
(2.92368e-05 0 0)
)
;

boundaryField
{
    inlet
    {
        type            fixedValue;
        value           uniform (2.33899e-05 0 0);
    }
    outlet
    {
        type            zeroGradient;
    }
    emptyWalls
    {
        type            empty;
    }
}


// ************************************************************************* //
