/*--------------------------------*- C++ -*----------------------------------*\
  =========                 |
  \\      /  F ield         | OpenFOAM: The Open Source CFD Toolbox
   \\    /   O peration     | Website:  https://openfoam.org
    \\  /    A nd           | Version:  9
     \\/     M anipulation  |
\*---------------------------------------------------------------------------*/
FoamFile
{
    format      ascii;
    class       volScalarField;
    location    "2750";
    object      Sb;
}
// * * * * * * * * * * * * * * * * * * * * * * * * * * * * * * * * * * * * * //

dimensions      [0 0 0 0 0 0 0];

internalField   nonuniform List<scalar> 
1000
(
0.353619
0.360932
0.379289
0.484434
0.648193
0.674643
0.680784
0.682638
0.682771
0.680689
0.674471
0.667039
0.65945
0.651987
0.644758
0.637799
0.631115
0.624698
0.618535
0.612608
0.606905
0.601408
0.596104
0.59098
0.586023
0.581222
0.576568
0.572049
0.567658
0.563387
0.559228
0.555173
0.551218
0.547357
0.543583
0.539892
0.53628
0.532742
0.529275
0.525874
0.522536
0.519259
0.516039
0.512872
0.509757
0.506691
0.503672
0.500696
0.497763
0.49487
0.492016
0.489198
0.486414
0.483664
0.480945
0.478256
0.475596
0.472963
0.470356
0.467773
0.465213
0.462676
0.460159
0.457662
0.455183
0.452722
0.450276
0.447846
0.445431
0.443028
0.440637
0.438257
0.435886
0.433524
0.43117
0.428822
0.426479
0.424141
0.421805
0.419472
0.417139
0.414806
0.412471
0.410134
0.407791
0.405442
0.403086
0.40072
0.398344
0.395956
0.393555
0.391139
0.388709
0.386263
0.383801
0.381325
0.378838
0.376344
0.373849
0.371361
0.368884
0.366413
0.363922
0.361331
0.358472
0.355022
0.350431
0.343875
0.334386
0.321333
0.305273
0.288405
0.273625
0.26274
0.255782
0.251758
0.249573
0.248431
0.247848
0.247555
0.247411
0.247341
0.247308
0.247295
0.24729
0.247289
0.24729
0.247293
0.247295
0.247297
0.247299
0.2473
0.247301
0.247302
0.247302
0.247302
0.247302
0.247302
0.247301
0.2473
0.2473
0.247299
0.247298
0.247297
0.247296
0.247295
0.247295
0.247294
0.247293
0.247293
0.247292
0.247292
0.247292
0.247291
0.247291
0.247291
0.247291
0.247291
0.247291
0.247291
0.247291
0.247291
0.247291
0.247291
0.247291
0.247291
0.247292
0.247292
0.247292
0.247292
0.247292
0.247292
0.247292
0.247293
0.247293
0.247293
0.247293
0.247293
0.247294
0.247294
0.247294
0.247294
0.247294
0.247295
0.247295
0.247295
0.247295
0.247295
0.247295
0.247295
0.247296
0.247296
0.247296
0.247296
0.247296
0.247296
0.247296
0.247296
0.247296
0.247296
0.247296
0.247296
0.247296
0.247296
0.247296
0.247295
0.247295
0.247295
0.247295
0.247295
0.247294
0.247294
0.247294
0.247293
0.247293
0.247293
0.247293
0.247292
0.247292
0.247291
0.247291
0.247291
0.24729
0.24729
0.247289
0.247289
0.247288
0.247288
0.247288
0.247287
0.247287
0.247287
0.247286
0.247286
0.247286
0.247285
0.247285
0.247285
0.247284
0.247284
0.247284
0.247284
0.247284
0.247284
0.247283
0.247283
0.247283
0.247283
0.247283
0.247283
0.247283
0.247283
0.247283
0.247283
0.247284
0.247284
0.247284
0.247284
0.247284
0.247284
0.247284
0.247284
0.247284
0.247284
0.247284
0.247285
0.247285
0.247285
0.247285
0.247285
0.247285
0.247285
0.247285
0.247285
0.247285
0.247285
0.247285
0.247284
0.247284
0.247284
0.247284
0.247284
0.247284
0.247284
0.247283
0.247283
0.247283
0.247283
0.247282
0.247282
0.247281
0.247281
0.24728
0.24728
0.247279
0.247278
0.247277
0.247276
0.247275
0.247274
0.247273
0.247272
0.24727
0.247269
0.247267
0.247266
0.247264
0.247262
0.247261
0.247259
0.247258
0.247256
0.247255
0.247253
0.247252
0.247251
0.24725
0.247249
0.247249
0.247249
0.247249
0.247249
0.247249
0.247251
0.247252
0.247254
0.247257
0.24726
0.247263
0.247266
0.24727
0.247274
0.247278
0.247282
0.247285
0.247289
0.247293
0.247296
0.247299
0.247301
0.247304
0.247305
0.247307
0.247308
0.247309
0.247309
0.24731
0.24731
0.24731
0.24731
0.247309
0.247308
0.247308
0.247307
0.247306
0.247305
0.247304
0.247303
0.247302
0.247301
0.2473
0.247299
0.247298
0.247297
0.247297
0.247296
0.247295
0.247295
0.247295
0.247294
0.247294
0.247294
0.247294
0.247293
0.247293
0.247293
0.247294
0.247294
0.247294
0.247294
0.247294
0.247294
0.247295
0.247295
0.247295
0.247295
0.247296
0.247296
0.247296
0.247296
0.247296
0.247296
0.247297
0.247297
0.247297
0.247297
0.247297
0.247297
0.247297
0.247297
0.247297
0.247297
0.247297
0.247297
0.247297
0.247297
0.247298
0.247298
0.247298
0.247298
0.247298
0.247298
0.247298
0.247299
0.247299
0.247299
0.247299
0.2473
0.2473
0.2473
0.2473
0.247301
0.247301
0.247301
0.247302
0.247302
0.247302
0.247302
0.247303
0.247303
0.247303
0.247303
0.247304
0.247304
0.247304
0.247304
0.247304
0.247304
0.247304
0.247304
0.247304
0.247304
0.247304
0.247304
0.247304
0.247304
0.247303
0.247303
0.247303
0.247302
0.247302
0.247301
0.247301
0.2473
0.247299
0.247299
0.247305
0.247322
0.247524
0.248804
0.249921
0.249999
0.25
0.25
0.25
0.25
0.25
0.25
0.25
0.25
0.25
0.25
0.25
0.25
0.25
0.25
0.25
0.25
0.25
0.25
0.25
0.25
0.25
0.25
0.25
0.25
0.25
0.25
0.25
0.25
0.25
0.25
0.25
0.25
0.25
0.25
0.25
0.25
0.25
0.25
0.25
0.25
0.25
0.25
0.25
0.25
0.25
0.25
0.25
0.25
0.25
0.25
0.25
0.25
0.25
0.25
0.25
0.25
0.25
0.25
0.25
0.25
0.25
0.25
0.25
0.25
0.25
0.25
0.25
0.25
0.25
0.25
0.25
0.25
0.25
0.25
0.25
0.25
0.25
0.25
0.25
0.25
0.25
0.25
0.25
0.25
0.25
0.25
0.25
0.25
0.25
0.25
0.25
0.25
0.25
0.25
0.25
0.25
0.25
0.25
0.25
0.25
0.25
0.25
0.25
0.25
0.25
0.25
0.25
0.25
0.25
0.25
0.25
0.25
0.25
0.25
0.25
0.25
0.25
0.25
0.25
0.25
0.25
0.25
0.25
0.25
0.25
0.25
0.25
0.25
0.25
0.25
0.25
0.25
0.25
0.25
0.25
0.25
0.25
0.25
0.25
0.25
0.25
0.25
0.25
0.25
0.25
0.25
0.25
0.25
0.25
0.25
0.25
0.25
0.25
0.25
0.25
0.25
0.25
0.25
0.25
0.25
0.25
0.25
0.25
0.25
0.25
0.25
0.25
0.25
0.25
0.25
0.25
0.25
0.25
0.25
0.25
0.25
0.25
0.25
0.25
0.25
0.25
0.25
0.25
0.25
0.25
0.25
0.25
0.25
0.25
0.25
0.25
0.25
0.25
0.25
0.25
0.25
0.25
0.25
0.25
0.25
0.25
0.25
0.25
0.25
0.25
0.25
0.25
0.25
0.25
0.25
0.25
0.25
0.25
0.25
0.25
0.25
0.25
0.25
0.25
0.25
0.25
0.25
0.25
0.25
0.25
0.25
0.25
0.25
0.25
0.25
0.25
0.25
0.25
0.25
0.25
0.25
0.25
0.25
0.25
0.25
0.25
0.25
0.25
0.25
0.25
0.25
0.25
0.25
0.25
0.25
0.25
0.25
0.25
0.25
0.25
0.25
0.25
0.25
0.25
0.25
0.25
0.25
0.25
0.25
0.25
0.25
0.25
0.25
0.25
0.25
0.25
0.25
0.25
0.25
0.25
0.25
0.25
0.25
0.25
0.25
0.25
0.25
0.25
0.25
0.25
0.25
0.25
0.25
0.25
0.25
0.25
0.25
0.25
0.25
0.25
0.25
0.25
0.25
0.25
0.25
0.25
0.25
0.25
0.25
0.25
0.25
0.25
0.25
0.25
0.25
0.25
0.25
0.25
0.25
0.25
0.25
0.25
0.25
0.25
0.25
0.25
0.25
0.25
0.25
0.25
0.25
0.25
0.25
0.25
0.25
0.25
0.25
0.25
0.25
0.25
0.25
0.25
0.25
0.25
0.25
0.25
0.25
0.25
0.25
0.25
0.25
0.25
0.25
0.25
0.25
0.25
0.25
0.25
0.25
0.25
0.25
0.25
0.25
0.25
0.25
0.25
0.25
0.25
0.25
0.25
0.25
0.25
0.25
0.25
0.25
0.25
0.25
0.25
0.25
0.25
0.25
0.25
0.25
0.25
0.25
0.25
0.25
0.25
0.25
0.25
0.25
0.25
0.25
0.25
0.25
0.25
0.25
0.25
0.25
0.25
0.25
0.25
0.25
0.25
0.25
0.25
0.25
0.25
0.25
0.25
0.25
0.25
0.25
0.25
0.25
0.25
0.25
0.25
0.25
0.25
0.25
0.25
0.25
0.25
0.25
0.25
0.25
0.25
0.25
0.25
0.25
0.25
0.25
0.25
0.25
0.25
0.25
0.25
0.25
0.25
0.25
0.25
0.25
0.25
0.25
0.25
0.25
0.25
0.25
0.25
0.25
0.25
0.25
0.25
0.25
0.25
0.25
0.25
0.25
0.25
0.25
0.25
0.25
0.25
0.25
0.25
0.25
0.25
0.25
0.25
0.25
0.25
0.25
0.25
0.25
0.25
0.25
0.25
0.25
0.25
0.25
0.25
0.25
0.25
0.25
0.25
0.25
0.25
0.25
0.25
0.25
0.25
0.25
0.25
0.25
0.25
0.25
0.25
0.25
0.25
0.25
0.25
0.25
0.25
0.25
0.25
0.25
0.25
0.25
0.25
0.25
0.25
0.25
0.25
0.25
0.25
0.25
0.25
0.25
0.25
0.25
0.25
0.25
0.25
0.25
0.25
0.25
0.25
0.25
0.25
0.25
0.25
0.25
0.25
0.25
0.25
0.25
0.25
0.25
0.25
0.25
0.25
0.25
)
;

boundaryField
{
    inlet
    {
        type            fixedValue;
        value           uniform 0.35;
    }
    outlet
    {
        type            zeroGradient;
    }
    emptyWalls
    {
        type            empty;
    }
}


// ************************************************************************* //
