/*--------------------------------*- C++ -*----------------------------------*\
  =========                 |
  \\      /  F ield         | OpenFOAM: The Open Source CFD Toolbox
   \\    /   O peration     | Website:  https://openfoam.org
    \\  /    A nd           | Version:  9
     \\/     M anipulation  |
\*---------------------------------------------------------------------------*/
FoamFile
{
    format      ascii;
    class       volScalarField;
    location    "4650";
    object      kra;
}
// * * * * * * * * * * * * * * * * * * * * * * * * * * * * * * * * * * * * * //

dimensions      [0 0 0 0 0 0 0];

internalField   nonuniform List<scalar> 
1000
(
0.000239041
0.000245342
0.000251201
0.000257151
0.00027103
0.00031855
0.00060846
0.000864854
0.000908758
0.000921073
0.000925585
0.000927099
0.000926971
0.000925992
0.0009251
0.000920952
0.000913802
0.000904361
0.000892375
0.000879617
0.000866727
0.000854002
0.000841578
0.000829539
0.000817951
0.000806842
0.000796181
0.000785897
0.000775921
0.000766223
0.000756831
0.00074781
0.000739232
0.000731147
0.000723567
0.000716465
0.000709782
0.000703448
0.000697385
0.000691523
0.000685796
0.000680146
0.000674515
0.000668846
0.000663085
0.000657181
0.000651091
0.000644787
0.00063826
0.000631525
0.00062462
0.000617604
0.000610554
0.000603558
0.000596702
0.000590065
0.000583715
0.000577695
0.000572031
0.000566727
0.000561771
0.000557135
0.000552781
0.000548668
0.000544752
0.000540991
0.000537347
0.000533787
0.000530286
0.000526823
0.000523384
0.000519963
0.000516553
0.000513155
0.000509771
0.000506403
0.000503056
0.000499733
0.000496439
0.000493176
0.000489948
0.000486756
0.000483603
0.000480489
0.000477414
0.000474379
0.000471383
0.000468426
0.000465507
0.000462624
0.000459778
0.000456967
0.00045419
0.000451445
0.000448733
0.000446051
0.000443401
0.000440781
0.00043819
0.000435629
0.000433097
0.000430593
0.000428116
0.000425667
0.000423245
0.000420849
0.000418481
0.000416136
0.00041382
0.000411527
0.000409262
0.000407019
0.000404807
0.000402614
0.000400454
0.00039831
0.000396201
0.000394106
0.000392047
0.00039
0.000387988
0.000385988
0.000384019
0.000382066
0.000380137
0.000378226
0.000376335
0.000374465
0.00037261
0.000370775
0.000368957
0.000367154
0.000365369
0.000363597
0.000361841
0.000360099
0.00035837
0.000356655
0.000354951
0.00035326
0.000351579
0.00034991
0.000348251
0.000346602
0.000344964
0.000343334
0.000341714
0.000340102
0.0003385
0.000336905
0.000335321
0.000333744
0.000332177
0.000330618
0.000329068
0.000327528
0.000325995
0.000324474
0.000322958
0.000321457
0.000319957
0.000318481
0.000316994
0.000315547
0.000314071
0.000312661
0.000311194
0.000309828
0.000308382
0.000307061
0.00030567
0.000304388
0.000303101
0.000301861
0.000300716
0.000299551
0.000298536
0.000297476
0.000296484
0.000295419
0.00029413
0.000292507
0.000290045
0.000286426
0.000281069
0.000273852
0.0002656
0.000257813
0.000252141
0.000248779
0.000247077
0.000246357
0.000246009
0.000245934
0.000245945
0.000245996
0.000246085
0.000246201
0.00024633
0.000246478
0.000246636
0.000246809
0.000246995
0.000247192
0.000247401
0.000247622
0.000247851
0.00024809
0.000248333
0.000248583
0.000248833
0.000249083
0.000249328
0.000249568
0.000249797
0.000250016
0.000250216
0.000250397
0.00025055
0.000250673
0.000250757
0.000250804
0.000250815
0.000250816
0.000250808
0.000250745
0.0002506
0.000250416
0.000250199
0.000249948
0.00024967
0.000249366
0.000249042
0.000248703
0.000248356
0.000248005
0.000247658
0.000247318
0.000246991
0.000246682
0.000246394
0.00024613
0.000245893
0.000245684
0.000245503
0.00024535
0.000245226
0.000245127
0.000245053
0.000245001
0.00024497
0.000244954
0.000244951
0.000244951
0.000244956
0.000244985
0.000245022
0.000245062
0.000245103
0.000245144
0.000245183
0.00024522
0.000245253
0.000245282
0.000245306
0.000245326
0.000245341
0.000245351
0.000245356
0.000245358
0.000245358
0.000245357
0.000245349
0.000245335
0.000245317
0.000245297
0.000245275
0.000245252
0.000245226
0.0002452
0.000245172
0.000245144
0.000245115
0.000245086
0.000245056
0.000245026
0.000244996
0.000244966
0.000244936
0.000244906
0.000244876
0.000244846
0.000244817
0.000244788
0.000244759
0.00024473
0.000244701
0.000244673
0.000244645
0.000244617
0.000244589
0.000244561
0.000244533
0.000244505
0.000244477
0.00024445
0.000244422
0.000244394
0.000244367
0.000244339
0.000244311
0.000244283
0.000244256
0.000244228
0.0002442
0.000244173
0.000244145
0.000244118
0.000244091
0.000244064
0.000244038
0.000244012
0.000243986
0.000243961
0.000243937
0.000243913
0.00024389
0.000243868
0.000243847
0.000243827
0.000243808
0.00024379
0.000243774
0.000243759
0.000243745
0.000243732
0.000243721
0.000243711
0.000243703
0.000243696
0.00024369
0.000243686
0.000243684
0.000243683
0.000243682
0.000243682
0.000243683
0.000243686
0.000243692
0.000243697
0.000243705
0.000243713
0.000243722
0.000243731
0.000243742
0.000243752
0.000243764
0.000243775
0.000243787
0.000243799
0.000243811
0.000243823
0.000243835
0.000243846
0.000243858
0.000243868
0.000243879
0.000243889
0.0002439
0.000243909
0.000243919
0.000243929
0.000243939
0.000243948
0.000243959
0.000243969
0.000243981
0.000243993
0.000244007
0.000244021
0.000244039
0.000244056
0.000244078
0.0002441
0.000244126
0.000244153
0.000244185
0.000244218
0.000244256
0.000244295
0.000244339
0.000244385
0.000244436
0.000244488
0.000244546
0.000244606
0.000244671
0.000244739
0.000244812
0.000244888
0.00024497
0.000245055
0.000245147
0.000245242
0.000245345
0.000245453
0.000245568
0.000245689
0.000245818
0.000245953
0.000246096
0.000246246
0.000246405
0.00024657
0.000246743
0.000246922
0.000247108
0.000247299
0.000247496
0.000247695
0.000247898
0.000248101
0.000248305
0.000248506
0.000248704
0.000248895
0.000249079
0.000249252
0.000249413
0.000249559
0.000249688
0.000249797
0.000249885
0.000249948
0.000249986
0.000249998
0.000249999
0.000249995
0.000249968
0.000249873
0.000249746
0.00024959
0.000249408
0.000249202
0.000248976
0.000248731
0.000248472
0.000248201
0.000247925
0.000247645
0.000247366
0.000247092
0.000246825
0.000246569
0.000246328
0.000246101
0.000245892
0.000245701
0.00024553
0.000245378
0.000245247
0.000245133
0.000245039
0.000244961
0.0002449
0.000244854
0.000244821
0.0002448
0.000244789
0.000244786
0.000244786
0.000244788
0.000244802
0.000244824
0.000244848
0.000244873
0.000244898
0.000244923
0.000244946
0.000244967
0.000244986
0.000245002
0.000245016
0.000245027
0.000245035
0.000245041
0.000245043
0.000245044
0.000245044
0.000245043
0.000245039
0.000245031
0.000245021
0.00024501
0.000244998
0.000244986
0.000244973
0.000244959
0.000244945
0.000244932
0.000244918
0.000244904
0.000244891
0.000244878
0.000244866
0.000244854
0.000244843
0.000244832
0.000244821
0.000244811
0.000244802
0.000244793
0.000244785
0.000244777
0.000244769
0.000244762
0.000244755
0.000244748
0.000244741
0.000244734
0.000244727
0.00024472
0.000244713
0.000244706
0.000244698
0.00024469
0.000244681
0.000244672
0.000244662
0.000244651
0.00024464
0.000244627
0.000244614
0.0002446
0.000244586
0.00024457
0.000244553
0.000244536
0.000244517
0.000244498
0.000244477
0.000244456
0.000244434
0.000244411
0.000244387
0.000244363
0.000244339
0.000244314
0.000244288
0.000244262
0.000244236
0.000244211
0.000244185
0.000244159
0.000244134
0.000244109
0.000244085
0.000244062
0.000244039
0.000244018
0.000243998
0.000243979
0.000243961
0.000243945
0.00024393
0.000243917
0.000243906
0.000243897
0.000243889
0.000243883
0.00024388
0.000243878
0.000243878
0.000243878
0.000243879
0.000243884
0.000243892
0.000243902
0.000243914
0.000243928
0.000243942
0.000243959
0.000243977
0.000243997
0.000244017
0.00024404
0.000244063
0.000244087
0.000244111
0.000244137
0.000244163
0.00024419
0.000244217
0.000244245
0.000244273
0.000244302
0.00024433
0.000244359
0.000244388
0.000244418
0.000244447
0.000244478
0.000244509
0.000244541
0.000244574
0.000244608
0.000244644
0.000244682
0.000244721
0.000244764
0.000244809
0.000244858
0.00024491
0.000244967
0.000245028
0.000245095
0.000245167
0.000245246
0.00024533
0.000245422
0.000245521
0.000245627
0.000245741
0.000245864
0.000245993
0.000246131
0.000246277
0.00024643
0.00024659
0.000246758
0.000246932
0.000247112
0.000247295
0.000247484
0.000247675
0.000247869
0.000248063
0.000248256
0.000248447
0.000248634
0.000248816
0.000248991
0.000249156
0.000249311
0.000249453
0.000249581
0.000249692
0.000249786
0.000249859
0.000249911
0.000249939
0.000249947
0.000249947
0.000249942
0.00024991
0.00024982
0.000249704
0.000249564
0.000249401
0.000249218
0.000249015
0.000248795
0.000248561
0.000248317
0.000248064
0.000247806
0.000247546
0.000247287
0.000247032
0.000246783
0.000246543
0.000246314
0.000246098
0.000245895
0.000245707
0.000245536
0.00024538
0.00024524
0.000245117
0.000245009
0.000244916
0.000244838
0.000244773
0.00024472
0.000244679
0.000244648
0.000244626
0.000244612
0.000244605
0.000244603
0.000244603
0.000244604
0.000244613
0.000244628
0.000244643
0.000244659
0.000244675
0.00024469
0.000244704
0.000244716
0.000244727
0.000244736
0.000244742
0.000244746
0.000244748
0.000244749
0.000244748
0.000244747
0.000244741
0.000244731
0.00024472
0.000244706
0.000244691
0.000244674
0.000244655
0.000244635
0.000244614
0.000244592
0.000244569
0.000244545
0.000244521
0.000244496
0.000244471
0.000244446
0.00024442
0.000244395
0.00024437
0.000244345
0.00024432
0.000244296
0.000244273
0.00024425
0.000244228
0.000244206
0.000244186
0.000244166
0.000244147
0.00024413
0.000244113
0.000244098
0.000244084
0.000244072
0.00024406
0.00024405
0.000244042
0.000244035
0.000244029
0.000244025
0.000244023
0.000244022
0.000244022
0.000244022
0.000244024
0.000244025
0.00024403
0.000244042
0.000244045
0.000244054
0.000244071
0.00024408
0.000244071
0.000244029
0.000243431
0.000240863
0.000228467
3.31281e-05
9.6496e-08
1.23196e-13
2.67438e-26
3.52903e-53
2.95291e-110
2.5382e-231
0
0
0
0
0
0
0
0
0
0
0
0
0
0
0
0
0
0
0
0
0
0
0
0
0
0
0
0
0
0
0
0
0
0
0
0
0
0
0
0
0
0
0
0
0
0
0
0
0
0
0
0
0
0
0
0
0
0
0
0
0
0
0
0
0
0
0
0
0
0
0
0
0
0
0
0
0
0
0
0
0
0
0
0
0
0
0
0
0
0
0
0
0
0
0
0
0
0
0
0
0
0
0
0
0
0
0
0
0
0
0
0
0
0
0
0
0
0
0
0
0
0
0
0
0
0
0
0
0
0
0
0
0
0
0
0
0
0
0
0
0
0
0
0
0
0
0
0
0
0
0
0
0
0
0
0
0
0
0
0
0
0
0
0
0
0
0
0
0
0
0
0
0
0
0
0
0
0
0
0
0
0
0
0
0
0
0
0
0
0
0
0
0
0
0
0
0
0
0
0
0
0
0
0
0
0
0
0
0
0
0
0
0
0
0
0
0
0
0
0
0
0
0
0
0
0
0
0
)
;

boundaryField
{
    inlet
    {
        type            calculated;
        value           uniform 0.000236304;
    }
    outlet
    {
        type            calculated;
        value           uniform 0;
    }
    emptyWalls
    {
        type            empty;
    }
}


// ************************************************************************* //
