/*--------------------------------*- C++ -*----------------------------------*\
  =========                 |
  \\      /  F ield         | OpenFOAM: The Open Source CFD Toolbox
   \\    /   O peration     | Website:  https://openfoam.org
    \\  /    A nd           | Version:  9
     \\/     M anipulation  |
\*---------------------------------------------------------------------------*/
FoamFile
{
    format      ascii;
    class       volScalarField;
    location    "26950";
    object      Sa;
}
// * * * * * * * * * * * * * * * * * * * * * * * * * * * * * * * * * * * * * //

dimensions      [0 0 0 0 0 0 0];

internalField   nonuniform List<scalar> 
1000
(
0.549609
0.548822
0.547785
0.546725
0.545689
0.54461
0.543582
0.542476
0.541449
0.540315
0.539272
0.538126
0.537047
0.535908
0.534792
0.533663
0.532531
0.531405
0.53029
0.529184
0.528109
0.527062
0.526055
0.525104
0.524192
0.523376
0.522575
0.521919
0.521242
0.520732
0.520192
0.519782
0.519362
0.518973
0.518368
0.51674
0.510819
0.484522
0.321105
0.119337
0.0782938
0.0657917
0.0597811
0.0560151
0.053266
0.051065
0.049208
0.0475837
0.0461351
0.044822
0.0436227
0.0425168
0.0414925
0.040537
0.0396434
0.0388047
0.0380186
0.0372804
0.0365886
0.0359382
0.0353251
0.0347419
0.034186
0.0336558
0.0331528
0.0326731
0.0322194
0.0317882
0.0313844
0.0310154
0.0306704
0.0303457
0.0300384
0.0297439
0.0294591
0.0291804
0.0289064
0.0286368
0.0283722
0.0281125
0.0278622
0.0276196
0.0273734
0.0271251
0.0268829
0.0266487
0.0264241
0.0262104
0.0260086
0.0258189
0.0256416
0.0254761
0.025322
0.0251785
0.0250452
0.0249212
0.0248058
0.0246983
0.024598
0.0245044
0.0244174
0.0243372
0.0242644
0.0242003
0.0241461
0.0241022
0.0240668
0.0240351
0.0240025
0.0239687
0.0239342
0.0238992
0.0238638
0.0238283
0.0237928
0.0237572
0.0237217
0.0236863
0.0236511
0.0236161
0.0235813
0.0235467
0.0235123
0.0234781
0.0234442
0.0234105
0.0233771
0.023344
0.0233111
0.0232785
0.0232462
0.0232141
0.0231823
0.0231508
0.0231196
0.0230885
0.0230577
0.0230272
0.0229968
0.0229668
0.022937
0.0229074
0.0228782
0.0228492
0.0228206
0.0227922
0.0227642
0.0227363
0.0227087
0.0226813
0.022654
0.0226269
0.0225999
0.0225731
0.0225464
0.0225199
0.0224936
0.0224676
0.0224419
0.0224166
0.0223915
0.0223666
0.022342
0.0223176
0.0222933
0.022269
0.0222448
0.0222205
0.0221961
0.0221717
0.0221472
0.0221227
0.0220985
0.0220747
0.0220516
0.0220295
0.0220086
0.021989
0.0219709
0.0219544
0.0219393
0.0219255
0.021913
0.0219015
0.0218908
0.0218806
0.0218708
0.0218611
0.0218511
0.0218407
0.0218293
0.0218168
0.0218029
0.0217872
0.0217695
0.0217496
0.0217276
0.0217033
0.0216769
0.0216485
0.0216185
0.0215872
0.0215549
0.021522
0.0214889
0.0214559
0.0214235
0.0213917
0.0213609
0.0213312
0.0213026
0.0212752
0.0212491
0.021224
0.0211999
0.0211768
0.0211545
0.0211328
0.0211117
0.021091
0.0210706
0.0210505
0.0210305
0.0210105
0.0209906
0.0209707
0.0209507
0.0209307
0.0209106
0.0208905
0.0208703
0.02085
0.0208297
0.0208094
0.0207892
0.0207689
0.0207486
0.0207284
0.0207083
0.0206882
0.0206682
0.0206483
0.0206285
0.0206088
0.0205892
0.0205697
0.0205503
0.020531
0.0205119
0.0204929
0.020474
0.0204552
0.0204365
0.020418
0.0203996
0.0203813
0.0203631
0.020345
0.0203271
0.0203093
0.0202916
0.020274
0.0202565
0.0202392
0.020222
0.0202049
0.0201879
0.0201711
0.0201544
0.0201378
0.0201214
0.020105
0.0200888
0.0200726
0.0200565
0.0200406
0.0200247
0.0200089
0.0199932
0.0199776
0.0199621
0.0199467
0.0199314
0.0199162
0.0199011
0.0198861
0.0198712
0.0198564
0.0198417
0.019827
0.0198125
0.0197979
0.0197834
0.0197689
0.0197544
0.01974
0.0197255
0.0197112
0.0196969
0.0196828
0.0196689
0.0196552
0.0196419
0.019629
0.0196166
0.0196047
0.0195934
0.0195827
0.0195727
0.0195633
0.0195546
0.0195465
0.0195389
0.0195319
0.0195254
0.0195192
0.0195133
0.0195076
0.0195019
0.0194961
0.01949
0.0194836
0.0194767
0.0194691
0.0194608
0.0194516
0.0194413
0.0194301
0.0194177
0.0194043
0.0193897
0.0193741
0.0193574
0.0193398
0.0193215
0.0193024
0.0192828
0.0192629
0.0192426
0.0192223
0.019202
0.0191819
0.0191621
0.0191426
0.0191235
0.019105
0.0190869
0.0190693
0.0190523
0.0190358
0.0190198
0.0190042
0.018989
0.0189743
0.0189598
0.0189457
0.0189317
0.018918
0.0189044
0.018891
0.0188776
0.0188643
0.0188511
0.0188378
0.0188246
0.0188114
0.0187981
0.0187849
0.0187716
0.0187583
0.018745
0.0187317
0.0187184
0.0187051
0.0186918
0.0186785
0.0186652
0.0186519
0.0186387
0.0186255
0.0186123
0.0185992
0.0185861
0.0185731
0.0185601
0.0185472
0.0185343
0.0185215
0.0185088
0.0184961
0.0184835
0.018471
0.0184584
0.0184461
0.0184337
0.0184215
0.0184092
0.0183972
0.018385
0.0183731
0.0183611
0.0183494
0.0183375
0.0183259
0.0183141
0.0183027
0.0182911
0.0182798
0.0182683
0.0182572
0.0182458
0.0182349
0.0182236
0.0182128
0.0182016
0.0181909
0.0181799
0.0181693
0.0181584
0.0181479
0.0181371
0.0181268
0.018116
0.0181058
0.0180952
0.0180851
0.0180746
0.0180646
0.0180543
0.0180443
0.018034
0.0180241
0.0180139
0.018004
0.017994
0.0179841
0.0179742
0.0179644
0.0179546
0.017945
0.0179354
0.017926
0.0179167
0.0179077
0.0178988
0.0178902
0.0178818
0.0178737
0.0178659
0.0178584
0.0178513
0.0178445
0.0178381
0.017832
0.0178263
0.0178209
0.0178158
0.017811
0.0178064
0.017802
0.0177978
0.0177936
0.0177895
0.0177854
0.0177812
0.0177768
0.0177722
0.0177673
0.0177621
0.0177564
0.0177503
0.0177436
0.0177364
0.0177286
0.0177202
0.0177111
0.0177014
0.0176911
0.0176802
0.0176687
0.0176566
0.0176441
0.0176312
0.0176179
0.0176043
0.0175904
0.0175764
0.0175623
0.0175482
0.0175341
0.0175201
0.0175063
0.0174926
0.0174791
0.0174659
0.0174529
0.0174401
0.0174277
0.0174155
0.0174036
0.0173919
0.0173805
0.0173693
0.0173584
0.0173475
0.017337
0.0173265
0.0173162
0.0173059
0.0172958
0.0172857
0.0172757
0.0172657
0.0172559
0.017246
0.0172362
0.0172262
0.0172165
0.0172066
0.0171968
0.0171869
0.0171771
0.0171672
0.0171574
0.0171475
0.0171378
0.0171279
0.0171181
0.0171082
0.0170985
0.0170886
0.017079
0.0170691
0.0170595
0.0170497
0.0170402
0.0170305
0.0170209
0.0170113
0.0170019
0.0169923
0.016983
0.0169735
0.0169642
0.0169548
0.0169457
0.0169364
0.0169273
0.0169181
0.0169091
0.0169
0.0168911
0.0168821
0.0168733
0.0168644
0.0168557
0.0168469
0.0168383
0.0168295
0.0168211
0.0168124
0.0168041
0.0167955
0.0167873
0.0167788
0.0167707
0.0167622
0.0167543
0.0167458
0.016738
0.0167296
0.0167219
0.0167136
0.0167059
0.0166977
0.0166902
0.016682
0.0166745
0.0166664
0.016659
0.0166509
0.0166437
0.0166356
0.0166284
0.0166204
0.0166133
0.0166054
0.0165984
0.0165905
0.0165836
0.0165758
0.016569
0.0165613
0.0165547
0.0165471
0.0165407
0.0165333
0.0165272
0.0165201
0.0165142
0.0165074
0.0165019
0.0164954
0.0164903
0.0164842
0.0164796
0.0164738
0.0164696
0.0164642
0.0164605
0.0164555
0.0164522
0.0164474
0.0164445
0.01644
0.0164374
0.016433
0.0164306
0.0164263
0.0164239
0.0164195
0.016417
0.0164124
0.0164097
0.0164047
0.0164017
0.0163962
0.0163926
0.0163866
0.0163824
0.0163757
0.0163707
0.0163633
0.0163575
0.0163493
0.0163426
0.0163338
0.0163263
0.0163167
0.0163084
0.0162983
0.0162894
0.0162788
0.0162693
0.0162584
0.0162485
0.0162374
0.0162272
0.0162161
0.0162058
0.0161947
0.0161844
0.0161735
0.0161634
0.0161528
0.0161428
0.0161325
0.0161228
0.0161128
0.0161034
0.0160937
0.0160846
0.0160752
0.0160665
0.0160573
0.0160489
0.0160399
0.0160317
0.016023
0.016015
0.0160063
0.0159985
0.01599
0.0159824
0.0159739
0.0159664
0.0159579
0.0159505
0.015942
0.0159347
0.0159262
0.015919
0.0159104
0.0159033
0.0158946
0.0158877
0.0158789
0.0158721
0.0158631
0.0158565
0.0158474
0.0158409
0.0158318
0.0158254
0.0158162
0.0158099
0.0158007
0.0157945
0.0157852
0.0157792
0.0157699
0.0157639
0.0157546
0.0157488
0.0157395
0.0157337
0.0157245
0.0157188
0.0157096
0.015704
0.0156948
0.0156893
0.0156802
0.0156748
0.0156658
0.0156604
0.0156514
0.0156461
0.0156372
0.015632
0.0156232
0.015618
0.0156093
0.0156042
0.0155955
0.0155905
0.0155819
0.015577
0.0155684
0.0155635
0.0155551
0.0155503
0.0155418
0.0155371
0.0155287
0.015524
0.0155157
0.0155111
0.0155029
0.0154983
0.0154901
0.0154856
0.0154775
0.015473
0.0154649
0.0154605
0.0154524
0.0154481
0.0154401
0.0154358
0.0154279
0.0154236
0.0154157
0.0154116
0.0154038
0.0153997
0.015392
0.015388
0.0153805
0.0153766
0.0153692
0.0153655
0.0153582
0.0153547
0.0153476
0.0153443
0.0153374
0.0153343
0.0153277
0.0153248
0.0153184
0.0153159
0.0153097
0.0153074
0.0153016
0.0152995
0.0152939
0.0152921
0.0152867
0.0152851
0.0152799
0.0152785
0.0152735
0.0152722
0.0152672
0.015266
0.0152611
0.0152598
0.0152549
0.0152535
0.0152484
0.0152469
0.0152416
0.0152399
0.0152342
0.0152322
0.0152262
0.0152237
0.0152173
0.0152144
0.0152076
0.0152042
0.0151968
0.0151928
0.0151849
0.0151805
0.015172
0.0151671
0.0151581
0.0151527
0.0151433
0.0151375
0.0151277
0.0151215
0.0151114
0.0151049
0.0150946
0.0150879
0.0150774
0.0150706
0.01506
0.0150532
0.0150426
0.0150358
0.0150253
0.0150186
0.0150082
0.0150016
0.0149914
0.014985
0.0149749
0.0149687
0.0149588
0.0149528
0.014943
0.0149372
0.0149277
0.014922
0.0149127
0.0149072
0.0148979
0.0148926
0.0148835
0.0148783
0.0148693
0.0148642
0.0148553
0.0148502
0.0148414
0.0148364
0.0148276
0.0148227
0.0148139
0.014809
0.0148003
0.0147954
0.0147867
0.0147818
0.0147731
0.0147683
0.0147596
0.0147548
0.0147461
0.0147413
0.0147326
0.0147279
0.0147192
0.0147144
0.0147057
0.014701
0.0146924
0.0146877
0.014679
0.0146744
0.0146657
0.0146612
0.0146525
0.014648
0.0146394
0.0146349
0.0146263
0.0146218
0.0146133
0.0146089
0.0146004
0.014596
0.0145876
0.0145832
0.0145748
0.0145706
0.0145622
0.014558
0.0145497
0.0145455
0.0145372
0.0145331
0.0145249
0.0145208
0.0145127
0.0145086
0.0145005
0.0144965
0.0144885
0.0144845
0.0144765
0.0144726
0.0144646
0.0144608
0.0144529
0.014449
0.0144412
0.0144373
0.0144295
0.0144257
0.014418
0.0144142
0.0144065
0.0144028
0.0143951
0.0143914
0.0143838
0.0143802
0.0143725
0.014369
0.0143614
0.0143579
0.0143503
0.0143469
0.0143393
0.014336
0.0143284
0.0143252
0.0143177
0.0143146
0.0143071
0.0143042
0.0142967
0.014294
0.0142865
0.014284
0.0142766
0.0142743
0.014267
0.0142649
0.0142577
0.0142557
0.0142487
0.0142469
0.0142401
0.0142384
0.0142318
0.0142302
0.0142239
0.0142224
0.0142163
0.0142148
0.0142089
0.0142075
0.0142018
0.0142004
0.0141949
0.0141935
0.014188
0.0141867
0.0141812
0.0141799
0.0141744
0.014173
0.0141675
0.0141661
0.0141604
0.0141589
0.0141529
0.0141514
0.0141451
0.0141435
0.0141369
0.0141351
0.014128
0.0141261
0.0141185
0.0141164
0.0141083
0.0141061
0.0140973
0.014095
0.0140857
0.0140832
0.0140733
0.0140707
0.0140603
0.0140575
0.0140465
0.0140436
0.0140321
0.0140291
0.0140172
0.0140141
0.0139949
0.215359
)
;

boundaryField
{
    inlet
    {
        type            fixedValue;
        value           uniform 0.55;
    }
    outlet
    {
        type            zeroGradient;
    }
    emptyWalls
    {
        type            empty;
    }
}


// ************************************************************************* //
