/*--------------------------------*- C++ -*----------------------------------*\
  =========                 |
  \\      /  F ield         | OpenFOAM: The Open Source CFD Toolbox
   \\    /   O peration     | Website:  https://openfoam.org
    \\  /    A nd           | Version:  9
     \\/     M anipulation  |
\*---------------------------------------------------------------------------*/
FoamFile
{
    format      ascii;
    class       volVectorField;
    location    "26950";
    object      Ua;
}
// * * * * * * * * * * * * * * * * * * * * * * * * * * * * * * * * * * * * * //

dimensions      [0 0 0 0 0 0 0];

internalField   nonuniform List<vector> 
1000
(
(2.74904e-06 0 0)
(2.74882e-06 0 0)
(2.74873e-06 0 0)
(2.74861e-06 0 0)
(2.74843e-06 0 0)
(2.74822e-06 0 0)
(2.74799e-06 0 0)
(2.74773e-06 0 0)
(2.74748e-06 0 0)
(2.74713e-06 0 0)
(2.74681e-06 0 0)
(2.74637e-06 0 0)
(2.74593e-06 0 0)
(2.74546e-06 0 0)
(2.7449e-06 0 0)
(2.74436e-06 0 0)
(2.74372e-06 0 0)
(2.74305e-06 0 0)
(2.74234e-06 0 0)
(2.7416e-06 0 0)
(2.74089e-06 0 0)
(2.74017e-06 0 0)
(2.73948e-06 0 0)
(2.73878e-06 0 0)
(2.73812e-06 0 0)
(2.73745e-06 0 0)
(2.73683e-06 0 0)
(2.73627e-06 0 0)
(2.73569e-06 0 0)
(2.73524e-06 0 0)
(2.73476e-06 0 0)
(2.73434e-06 0 0)
(2.73396e-06 0 0)
(2.73351e-06 0 0)
(2.73278e-06 0 0)
(2.73039e-06 0 0)
(2.72143e-06 0 0)
(2.67683e-06 0 0)
(2.44893e-06 0 0)
(2.20651e-06 0 0)
(2.14104e-06 0 0)
(2.12192e-06 0 0)
(2.1129e-06 0 0)
(2.10722e-06 0 0)
(2.10303e-06 0 0)
(2.09964e-06 0 0)
(2.09673e-06 0 0)
(2.09416e-06 0 0)
(2.09185e-06 0 0)
(2.0898e-06 0 0)
(2.088e-06 0 0)
(2.08641e-06 0 0)
(2.08493e-06 0 0)
(2.08347e-06 0 0)
(2.08195e-06 0 0)
(2.08044e-06 0 0)
(2.07903e-06 0 0)
(2.07785e-06 0 0)
(2.07698e-06 0 0)
(2.07638e-06 0 0)
(2.07586e-06 0 0)
(2.07516e-06 0 0)
(2.07413e-06 0 0)
(2.07293e-06 0 0)
(2.07165e-06 0 0)
(2.0704e-06 0 0)
(2.06934e-06 0 0)
(2.06856e-06 0 0)
(2.06892e-06 0 0)
(2.07084e-06 0 0)
(2.07372e-06 0 0)
(2.0772e-06 0 0)
(2.081e-06 0 0)
(2.08473e-06 0 0)
(2.08806e-06 0 0)
(2.0907e-06 0 0)
(2.09252e-06 0 0)
(2.09354e-06 0 0)
(2.09394e-06 0 0)
(2.09403e-06 0 0)
(2.094e-06 0 0)
(2.09351e-06 0 0)
(2.09138e-06 0 0)
(2.08771e-06 0 0)
(2.08351e-06 0 0)
(2.07908e-06 0 0)
(2.07465e-06 0 0)
(2.07047e-06 0 0)
(2.06667e-06 0 0)
(2.06338e-06 0 0)
(2.06063e-06 0 0)
(2.0584e-06 0 0)
(2.05668e-06 0 0)
(2.05541e-06 0 0)
(2.05451e-06 0 0)
(2.05394e-06 0 0)
(2.0536e-06 0 0)
(2.05343e-06 0 0)
(2.05336e-06 0 0)
(2.05333e-06 0 0)
(2.0533e-06 0 0)
(2.05324e-06 0 0)
(2.05312e-06 0 0)
(2.05296e-06 0 0)
(2.05275e-06 0 0)
(2.05249e-06 0 0)
(2.0522e-06 0 0)
(2.05187e-06 0 0)
(2.05149e-06 0 0)
(2.05107e-06 0 0)
(2.05062e-06 0 0)
(2.05015e-06 0 0)
(2.04967e-06 0 0)
(2.04917e-06 0 0)
(2.04868e-06 0 0)
(2.04819e-06 0 0)
(2.04769e-06 0 0)
(2.04721e-06 0 0)
(2.04673e-06 0 0)
(2.04626e-06 0 0)
(2.0458e-06 0 0)
(2.04536e-06 0 0)
(2.04492e-06 0 0)
(2.04449e-06 0 0)
(2.04407e-06 0 0)
(2.04367e-06 0 0)
(2.04327e-06 0 0)
(2.04289e-06 0 0)
(2.04253e-06 0 0)
(2.04218e-06 0 0)
(2.04185e-06 0 0)
(2.04153e-06 0 0)
(2.04122e-06 0 0)
(2.04093e-06 0 0)
(2.04064e-06 0 0)
(2.04037e-06 0 0)
(2.04011e-06 0 0)
(2.03986e-06 0 0)
(2.03961e-06 0 0)
(2.03938e-06 0 0)
(2.03917e-06 0 0)
(2.03897e-06 0 0)
(2.03879e-06 0 0)
(2.03863e-06 0 0)
(2.03849e-06 0 0)
(2.03838e-06 0 0)
(2.03828e-06 0 0)
(2.03819e-06 0 0)
(2.03812e-06 0 0)
(2.03805e-06 0 0)
(2.03798e-06 0 0)
(2.03791e-06 0 0)
(2.03784e-06 0 0)
(2.03777e-06 0 0)
(2.0377e-06 0 0)
(2.03764e-06 0 0)
(2.03759e-06 0 0)
(2.03755e-06 0 0)
(2.03755e-06 0 0)
(2.03757e-06 0 0)
(2.03762e-06 0 0)
(2.03768e-06 0 0)
(2.03776e-06 0 0)
(2.03785e-06 0 0)
(2.03793e-06 0 0)
(2.038e-06 0 0)
(2.03806e-06 0 0)
(2.03808e-06 0 0)
(2.03808e-06 0 0)
(2.03804e-06 0 0)
(2.03797e-06 0 0)
(2.03789e-06 0 0)
(2.03784e-06 0 0)
(2.03783e-06 0 0)
(2.03792e-06 0 0)
(2.03815e-06 0 0)
(2.03855e-06 0 0)
(2.03915e-06 0 0)
(2.03998e-06 0 0)
(2.04104e-06 0 0)
(2.04233e-06 0 0)
(2.04382e-06 0 0)
(2.0455e-06 0 0)
(2.04733e-06 0 0)
(2.04927e-06 0 0)
(2.0513e-06 0 0)
(2.05338e-06 0 0)
(2.05544e-06 0 0)
(2.05746e-06 0 0)
(2.05937e-06 0 0)
(2.06113e-06 0 0)
(2.06269e-06 0 0)
(2.06398e-06 0 0)
(2.06496e-06 0 0)
(2.0656e-06 0 0)
(2.06587e-06 0 0)
(2.06574e-06 0 0)
(2.06523e-06 0 0)
(2.06434e-06 0 0)
(2.06312e-06 0 0)
(2.06159e-06 0 0)
(2.05982e-06 0 0)
(2.05787e-06 0 0)
(2.0558e-06 0 0)
(2.05368e-06 0 0)
(2.05156e-06 0 0)
(2.0495e-06 0 0)
(2.04754e-06 0 0)
(2.04573e-06 0 0)
(2.04407e-06 0 0)
(2.0426e-06 0 0)
(2.04131e-06 0 0)
(2.0402e-06 0 0)
(2.03926e-06 0 0)
(2.03849e-06 0 0)
(2.03785e-06 0 0)
(2.03734e-06 0 0)
(2.03692e-06 0 0)
(2.03659e-06 0 0)
(2.03631e-06 0 0)
(2.03607e-06 0 0)
(2.03586e-06 0 0)
(2.03566e-06 0 0)
(2.03546e-06 0 0)
(2.03525e-06 0 0)
(2.03502e-06 0 0)
(2.03477e-06 0 0)
(2.0345e-06 0 0)
(2.0342e-06 0 0)
(2.03388e-06 0 0)
(2.03354e-06 0 0)
(2.03318e-06 0 0)
(2.0328e-06 0 0)
(2.0324e-06 0 0)
(2.03199e-06 0 0)
(2.03157e-06 0 0)
(2.03114e-06 0 0)
(2.03071e-06 0 0)
(2.03027e-06 0 0)
(2.02984e-06 0 0)
(2.0294e-06 0 0)
(2.02897e-06 0 0)
(2.02854e-06 0 0)
(2.02811e-06 0 0)
(2.02769e-06 0 0)
(2.02728e-06 0 0)
(2.02687e-06 0 0)
(2.02648e-06 0 0)
(2.02609e-06 0 0)
(2.02571e-06 0 0)
(2.02534e-06 0 0)
(2.02498e-06 0 0)
(2.02464e-06 0 0)
(2.0243e-06 0 0)
(2.02397e-06 0 0)
(2.02365e-06 0 0)
(2.02334e-06 0 0)
(2.02304e-06 0 0)
(2.02275e-06 0 0)
(2.02247e-06 0 0)
(2.0222e-06 0 0)
(2.02194e-06 0 0)
(2.02169e-06 0 0)
(2.02145e-06 0 0)
(2.02123e-06 0 0)
(2.02101e-06 0 0)
(2.02081e-06 0 0)
(2.02062e-06 0 0)
(2.02044e-06 0 0)
(2.02027e-06 0 0)
(2.02012e-06 0 0)
(2.01997e-06 0 0)
(2.01983e-06 0 0)
(2.0197e-06 0 0)
(2.01958e-06 0 0)
(2.01947e-06 0 0)
(2.01936e-06 0 0)
(2.01925e-06 0 0)
(2.01916e-06 0 0)
(2.01906e-06 0 0)
(2.01898e-06 0 0)
(2.01891e-06 0 0)
(2.01884e-06 0 0)
(2.01879e-06 0 0)
(2.01874e-06 0 0)
(2.0187e-06 0 0)
(2.01868e-06 0 0)
(2.01866e-06 0 0)
(2.01865e-06 0 0)
(2.01864e-06 0 0)
(2.01864e-06 0 0)
(2.01863e-06 0 0)
(2.01862e-06 0 0)
(2.0186e-06 0 0)
(2.01857e-06 0 0)
(2.01855e-06 0 0)
(2.01852e-06 0 0)
(2.01849e-06 0 0)
(2.01847e-06 0 0)
(2.01848e-06 0 0)
(2.01851e-06 0 0)
(2.01859e-06 0 0)
(2.01871e-06 0 0)
(2.01891e-06 0 0)
(2.01918e-06 0 0)
(2.01955e-06 0 0)
(2.02001e-06 0 0)
(2.02057e-06 0 0)
(2.02125e-06 0 0)
(2.02204e-06 0 0)
(2.02294e-06 0 0)
(2.02395e-06 0 0)
(2.02506e-06 0 0)
(2.02626e-06 0 0)
(2.02754e-06 0 0)
(2.02888e-06 0 0)
(2.03026e-06 0 0)
(2.03167e-06 0 0)
(2.03308e-06 0 0)
(2.03446e-06 0 0)
(2.0358e-06 0 0)
(2.03706e-06 0 0)
(2.03822e-06 0 0)
(2.03926e-06 0 0)
(2.04015e-06 0 0)
(2.04086e-06 0 0)
(2.04139e-06 0 0)
(2.04172e-06 0 0)
(2.04184e-06 0 0)
(2.04174e-06 0 0)
(2.04143e-06 0 0)
(2.04092e-06 0 0)
(2.04021e-06 0 0)
(2.03932e-06 0 0)
(2.03827e-06 0 0)
(2.03709e-06 0 0)
(2.0358e-06 0 0)
(2.03443e-06 0 0)
(2.03301e-06 0 0)
(2.03155e-06 0 0)
(2.0301e-06 0 0)
(2.02867e-06 0 0)
(2.02728e-06 0 0)
(2.02595e-06 0 0)
(2.02469e-06 0 0)
(2.02351e-06 0 0)
(2.02242e-06 0 0)
(2.02141e-06 0 0)
(2.0205e-06 0 0)
(2.01968e-06 0 0)
(2.01894e-06 0 0)
(2.01828e-06 0 0)
(2.0177e-06 0 0)
(2.01717e-06 0 0)
(2.0167e-06 0 0)
(2.01628e-06 0 0)
(2.0159e-06 0 0)
(2.01554e-06 0 0)
(2.01521e-06 0 0)
(2.0149e-06 0 0)
(2.0146e-06 0 0)
(2.0143e-06 0 0)
(2.01401e-06 0 0)
(2.01371e-06 0 0)
(2.01341e-06 0 0)
(2.0131e-06 0 0)
(2.01278e-06 0 0)
(2.01246e-06 0 0)
(2.01212e-06 0 0)
(2.01178e-06 0 0)
(2.01143e-06 0 0)
(2.01107e-06 0 0)
(2.0107e-06 0 0)
(2.01032e-06 0 0)
(2.00994e-06 0 0)
(2.00956e-06 0 0)
(2.00917e-06 0 0)
(2.00878e-06 0 0)
(2.00839e-06 0 0)
(2.00801e-06 0 0)
(2.00762e-06 0 0)
(2.00723e-06 0 0)
(2.00685e-06 0 0)
(2.00647e-06 0 0)
(2.00609e-06 0 0)
(2.00572e-06 0 0)
(2.00536e-06 0 0)
(2.005e-06 0 0)
(2.00465e-06 0 0)
(2.0043e-06 0 0)
(2.00396e-06 0 0)
(2.00363e-06 0 0)
(2.00331e-06 0 0)
(2.00299e-06 0 0)
(2.00268e-06 0 0)
(2.00238e-06 0 0)
(2.00209e-06 0 0)
(2.0018e-06 0 0)
(2.00153e-06 0 0)
(2.00126e-06 0 0)
(2.001e-06 0 0)
(2.00075e-06 0 0)
(2.0005e-06 0 0)
(2.00027e-06 0 0)
(2.00004e-06 0 0)
(1.99983e-06 0 0)
(1.99962e-06 0 0)
(1.99942e-06 0 0)
(1.99923e-06 0 0)
(1.99905e-06 0 0)
(1.99887e-06 0 0)
(1.99871e-06 0 0)
(1.99855e-06 0 0)
(1.9984e-06 0 0)
(1.99825e-06 0 0)
(1.99811e-06 0 0)
(1.99798e-06 0 0)
(1.99785e-06 0 0)
(1.99774e-06 0 0)
(1.99762e-06 0 0)
(1.99752e-06 0 0)
(1.99742e-06 0 0)
(1.99733e-06 0 0)
(1.99724e-06 0 0)
(1.99716e-06 0 0)
(1.99709e-06 0 0)
(1.99702e-06 0 0)
(1.99696e-06 0 0)
(1.9969e-06 0 0)
(1.99684e-06 0 0)
(1.99679e-06 0 0)
(1.99674e-06 0 0)
(1.99669e-06 0 0)
(1.99664e-06 0 0)
(1.9966e-06 0 0)
(1.99656e-06 0 0)
(1.99653e-06 0 0)
(1.9965e-06 0 0)
(1.99648e-06 0 0)
(1.99648e-06 0 0)
(1.99649e-06 0 0)
(1.99653e-06 0 0)
(1.99659e-06 0 0)
(1.99668e-06 0 0)
(1.99681e-06 0 0)
(1.99699e-06 0 0)
(1.99721e-06 0 0)
(1.99748e-06 0 0)
(1.99781e-06 0 0)
(1.9982e-06 0 0)
(1.99866e-06 0 0)
(1.99918e-06 0 0)
(1.99976e-06 0 0)
(2.00042e-06 0 0)
(2.00113e-06 0 0)
(2.00191e-06 0 0)
(2.00275e-06 0 0)
(2.00364e-06 0 0)
(2.00457e-06 0 0)
(2.00553e-06 0 0)
(2.00653e-06 0 0)
(2.00754e-06 0 0)
(2.00856e-06 0 0)
(2.00956e-06 0 0)
(2.01055e-06 0 0)
(2.0115e-06 0 0)
(2.01241e-06 0 0)
(2.01326e-06 0 0)
(2.01403e-06 0 0)
(2.01471e-06 0 0)
(2.0153e-06 0 0)
(2.01578e-06 0 0)
(2.01614e-06 0 0)
(2.01638e-06 0 0)
(2.0165e-06 0 0)
(2.01648e-06 0 0)
(2.01633e-06 0 0)
(2.01605e-06 0 0)
(2.01564e-06 0 0)
(2.01511e-06 0 0)
(2.01448e-06 0 0)
(2.01374e-06 0 0)
(2.01291e-06 0 0)
(2.012e-06 0 0)
(2.01103e-06 0 0)
(2.01e-06 0 0)
(2.00894e-06 0 0)
(2.00786e-06 0 0)
(2.00677e-06 0 0)
(2.00568e-06 0 0)
(2.0046e-06 0 0)
(2.00354e-06 0 0)
(2.00252e-06 0 0)
(2.00153e-06 0 0)
(2.00059e-06 0 0)
(1.99969e-06 0 0)
(1.99884e-06 0 0)
(1.99805e-06 0 0)
(1.9973e-06 0 0)
(1.99661e-06 0 0)
(1.99596e-06 0 0)
(1.99536e-06 0 0)
(1.9948e-06 0 0)
(1.99428e-06 0 0)
(1.99379e-06 0 0)
(1.99334e-06 0 0)
(1.99291e-06 0 0)
(1.99251e-06 0 0)
(1.99212e-06 0 0)
(1.99175e-06 0 0)
(1.99139e-06 0 0)
(1.99105e-06 0 0)
(1.9907e-06 0 0)
(1.99037e-06 0 0)
(1.99003e-06 0 0)
(1.9897e-06 0 0)
(1.98936e-06 0 0)
(1.98902e-06 0 0)
(1.98868e-06 0 0)
(1.98834e-06 0 0)
(1.98799e-06 0 0)
(1.98764e-06 0 0)
(1.98729e-06 0 0)
(1.98693e-06 0 0)
(1.98657e-06 0 0)
(1.98621e-06 0 0)
(1.98584e-06 0 0)
(1.98548e-06 0 0)
(1.98511e-06 0 0)
(1.98474e-06 0 0)
(1.98437e-06 0 0)
(1.984e-06 0 0)
(1.98364e-06 0 0)
(1.98327e-06 0 0)
(1.98291e-06 0 0)
(1.98255e-06 0 0)
(1.98219e-06 0 0)
(1.98184e-06 0 0)
(1.98149e-06 0 0)
(1.98115e-06 0 0)
(1.98081e-06 0 0)
(1.98048e-06 0 0)
(1.98015e-06 0 0)
(1.97983e-06 0 0)
(1.97952e-06 0 0)
(1.97921e-06 0 0)
(1.9789e-06 0 0)
(1.97861e-06 0 0)
(1.97832e-06 0 0)
(1.97804e-06 0 0)
(1.97776e-06 0 0)
(1.9775e-06 0 0)
(1.97723e-06 0 0)
(1.97698e-06 0 0)
(1.97674e-06 0 0)
(1.9765e-06 0 0)
(1.97627e-06 0 0)
(1.97604e-06 0 0)
(1.97583e-06 0 0)
(1.97562e-06 0 0)
(1.97542e-06 0 0)
(1.97522e-06 0 0)
(1.97504e-06 0 0)
(1.97485e-06 0 0)
(1.97468e-06 0 0)
(1.97451e-06 0 0)
(1.97435e-06 0 0)
(1.9742e-06 0 0)
(1.97405e-06 0 0)
(1.97391e-06 0 0)
(1.97378e-06 0 0)
(1.97365e-06 0 0)
(1.97352e-06 0 0)
(1.97341e-06 0 0)
(1.97329e-06 0 0)
(1.97319e-06 0 0)
(1.97309e-06 0 0)
(1.97299e-06 0 0)
(1.9729e-06 0 0)
(1.97281e-06 0 0)
(1.97273e-06 0 0)
(1.97265e-06 0 0)
(1.97257e-06 0 0)
(1.9725e-06 0 0)
(1.97244e-06 0 0)
(1.97238e-06 0 0)
(1.97232e-06 0 0)
(1.97227e-06 0 0)
(1.97222e-06 0 0)
(1.97219e-06 0 0)
(1.97216e-06 0 0)
(1.97214e-06 0 0)
(1.97213e-06 0 0)
(1.97214e-06 0 0)
(1.97216e-06 0 0)
(1.97221e-06 0 0)
(1.97227e-06 0 0)
(1.97236e-06 0 0)
(1.97247e-06 0 0)
(1.97262e-06 0 0)
(1.97279e-06 0 0)
(1.973e-06 0 0)
(1.97325e-06 0 0)
(1.97354e-06 0 0)
(1.97386e-06 0 0)
(1.97423e-06 0 0)
(1.97464e-06 0 0)
(1.97509e-06 0 0)
(1.97559e-06 0 0)
(1.97613e-06 0 0)
(1.9767e-06 0 0)
(1.97731e-06 0 0)
(1.97796e-06 0 0)
(1.97864e-06 0 0)
(1.97934e-06 0 0)
(1.98007e-06 0 0)
(1.98081e-06 0 0)
(1.98156e-06 0 0)
(1.98232e-06 0 0)
(1.98307e-06 0 0)
(1.98382e-06 0 0)
(1.98454e-06 0 0)
(1.98525e-06 0 0)
(1.98591e-06 0 0)
(1.98654e-06 0 0)
(1.98712e-06 0 0)
(1.98765e-06 0 0)
(1.98811e-06 0 0)
(1.98851e-06 0 0)
(1.98883e-06 0 0)
(1.98908e-06 0 0)
(1.98924e-06 0 0)
(1.98932e-06 0 0)
(1.98932e-06 0 0)
(1.98922e-06 0 0)
(1.98904e-06 0 0)
(1.98877e-06 0 0)
(1.98842e-06 0 0)
(1.98799e-06 0 0)
(1.98748e-06 0 0)
(1.9869e-06 0 0)
(1.98626e-06 0 0)
(1.98556e-06 0 0)
(1.98482e-06 0 0)
(1.98403e-06 0 0)
(1.9832e-06 0 0)
(1.98235e-06 0 0)
(1.98148e-06 0 0)
(1.9806e-06 0 0)
(1.97971e-06 0 0)
(1.97882e-06 0 0)
(1.97795e-06 0 0)
(1.97709e-06 0 0)
(1.97624e-06 0 0)
(1.97542e-06 0 0)
(1.97462e-06 0 0)
(1.97385e-06 0 0)
(1.97311e-06 0 0)
(1.9724e-06 0 0)
(1.97173e-06 0 0)
(1.97108e-06 0 0)
(1.97046e-06 0 0)
(1.96988e-06 0 0)
(1.96932e-06 0 0)
(1.96879e-06 0 0)
(1.96829e-06 0 0)
(1.96781e-06 0 0)
(1.96735e-06 0 0)
(1.96691e-06 0 0)
(1.96649e-06 0 0)
(1.96608e-06 0 0)
(1.96569e-06 0 0)
(1.96531e-06 0 0)
(1.96493e-06 0 0)
(1.96457e-06 0 0)
(1.96421e-06 0 0)
(1.96385e-06 0 0)
(1.9635e-06 0 0)
(1.96315e-06 0 0)
(1.9628e-06 0 0)
(1.96246e-06 0 0)
(1.96211e-06 0 0)
(1.96177e-06 0 0)
(1.96142e-06 0 0)
(1.96107e-06 0 0)
(1.96072e-06 0 0)
(1.96038e-06 0 0)
(1.96003e-06 0 0)
(1.95968e-06 0 0)
(1.95933e-06 0 0)
(1.95898e-06 0 0)
(1.95863e-06 0 0)
(1.95828e-06 0 0)
(1.95793e-06 0 0)
(1.95758e-06 0 0)
(1.95723e-06 0 0)
(1.95689e-06 0 0)
(1.95655e-06 0 0)
(1.95621e-06 0 0)
(1.95587e-06 0 0)
(1.95554e-06 0 0)
(1.95521e-06 0 0)
(1.95488e-06 0 0)
(1.95456e-06 0 0)
(1.95424e-06 0 0)
(1.95393e-06 0 0)
(1.95362e-06 0 0)
(1.95332e-06 0 0)
(1.95302e-06 0 0)
(1.95273e-06 0 0)
(1.95244e-06 0 0)
(1.95216e-06 0 0)
(1.95189e-06 0 0)
(1.95162e-06 0 0)
(1.95135e-06 0 0)
(1.9511e-06 0 0)
(1.95084e-06 0 0)
(1.9506e-06 0 0)
(1.95036e-06 0 0)
(1.95013e-06 0 0)
(1.9499e-06 0 0)
(1.94968e-06 0 0)
(1.94947e-06 0 0)
(1.94926e-06 0 0)
(1.94906e-06 0 0)
(1.94886e-06 0 0)
(1.94867e-06 0 0)
(1.94849e-06 0 0)
(1.94831e-06 0 0)
(1.94814e-06 0 0)
(1.94797e-06 0 0)
(1.94781e-06 0 0)
(1.94765e-06 0 0)
(1.9475e-06 0 0)
(1.94736e-06 0 0)
(1.94722e-06 0 0)
(1.94708e-06 0 0)
(1.94695e-06 0 0)
(1.94683e-06 0 0)
(1.94671e-06 0 0)
(1.94659e-06 0 0)
(1.94648e-06 0 0)
(1.94637e-06 0 0)
(1.94626e-06 0 0)
(1.94616e-06 0 0)
(1.94607e-06 0 0)
(1.94598e-06 0 0)
(1.94589e-06 0 0)
(1.94581e-06 0 0)
(1.94573e-06 0 0)
(1.94566e-06 0 0)
(1.94559e-06 0 0)
(1.94553e-06 0 0)
(1.94548e-06 0 0)
(1.94543e-06 0 0)
(1.9454e-06 0 0)
(1.94537e-06 0 0)
(1.94535e-06 0 0)
(1.94535e-06 0 0)
(1.94536e-06 0 0)
(1.94539e-06 0 0)
(1.94543e-06 0 0)
(1.94549e-06 0 0)
(1.94557e-06 0 0)
(1.94567e-06 0 0)
(1.94579e-06 0 0)
(1.94593e-06 0 0)
(1.94611e-06 0 0)
(1.9463e-06 0 0)
(1.94653e-06 0 0)
(1.94678e-06 0 0)
(1.94706e-06 0 0)
(1.94737e-06 0 0)
(1.94771e-06 0 0)
(1.94807e-06 0 0)
(1.94847e-06 0 0)
(1.94889e-06 0 0)
(1.94933e-06 0 0)
(1.94981e-06 0 0)
(1.9503e-06 0 0)
(1.95081e-06 0 0)
(1.95134e-06 0 0)
(1.95189e-06 0 0)
(1.95245e-06 0 0)
(1.95301e-06 0 0)
(1.95358e-06 0 0)
(1.95415e-06 0 0)
(1.95471e-06 0 0)
(1.95527e-06 0 0)
(1.95581e-06 0 0)
(1.95634e-06 0 0)
(1.95684e-06 0 0)
(1.95732e-06 0 0)
(1.95776e-06 0 0)
(1.95817e-06 0 0)
(1.95854e-06 0 0)
(1.95887e-06 0 0)
(1.95914e-06 0 0)
(1.95937e-06 0 0)
(1.95954e-06 0 0)
(1.95966e-06 0 0)
(1.95972e-06 0 0)
(1.95972e-06 0 0)
(1.95966e-06 0 0)
(1.95953e-06 0 0)
(1.95935e-06 0 0)
(1.95911e-06 0 0)
(1.9588e-06 0 0)
(1.95844e-06 0 0)
(1.95803e-06 0 0)
(1.95757e-06 0 0)
(1.95705e-06 0 0)
(1.9565e-06 0 0)
(1.9559e-06 0 0)
(1.95527e-06 0 0)
(1.9546e-06 0 0)
(1.95391e-06 0 0)
(1.9532e-06 0 0)
(1.95247e-06 0 0)
(1.95173e-06 0 0)
(1.95099e-06 0 0)
(1.95023e-06 0 0)
(1.94948e-06 0 0)
(1.94874e-06 0 0)
(1.948e-06 0 0)
(1.94727e-06 0 0)
(1.94655e-06 0 0)
(1.94585e-06 0 0)
(1.94516e-06 0 0)
(1.9445e-06 0 0)
(1.94385e-06 0 0)
(1.94322e-06 0 0)
(1.94262e-06 0 0)
(1.94203e-06 0 0)
(1.94147e-06 0 0)
(1.94092e-06 0 0)
(1.94039e-06 0 0)
(1.93989e-06 0 0)
(1.9394e-06 0 0)
(1.93892e-06 0 0)
(1.93847e-06 0 0)
(1.93802e-06 0 0)
(1.93759e-06 0 0)
(1.93717e-06 0 0)
(1.93677e-06 0 0)
(1.93637e-06 0 0)
(1.93598e-06 0 0)
(1.9356e-06 0 0)
(1.93522e-06 0 0)
(1.93485e-06 0 0)
(1.93449e-06 0 0)
(1.93413e-06 0 0)
(1.93377e-06 0 0)
(1.93341e-06 0 0)
(1.93306e-06 0 0)
(1.93271e-06 0 0)
(1.93236e-06 0 0)
(1.93201e-06 0 0)
(1.93166e-06 0 0)
(1.93131e-06 0 0)
(1.93096e-06 0 0)
(1.93061e-06 0 0)
(1.93026e-06 0 0)
(1.92992e-06 0 0)
(1.92957e-06 0 0)
(1.92922e-06 0 0)
(1.92888e-06 0 0)
(1.92853e-06 0 0)
(1.92819e-06 0 0)
(1.92785e-06 0 0)
(1.92751e-06 0 0)
(1.92717e-06 0 0)
(1.92684e-06 0 0)
(1.9265e-06 0 0)
(1.92617e-06 0 0)
(1.92585e-06 0 0)
(1.92552e-06 0 0)
(1.9252e-06 0 0)
(1.92488e-06 0 0)
(1.92456e-06 0 0)
(1.92425e-06 0 0)
(1.92395e-06 0 0)
(1.92364e-06 0 0)
(1.92334e-06 0 0)
(1.92305e-06 0 0)
(1.92276e-06 0 0)
(1.92247e-06 0 0)
(1.92219e-06 0 0)
(1.92191e-06 0 0)
(1.92164e-06 0 0)
(1.92138e-06 0 0)
(1.92112e-06 0 0)
(1.92086e-06 0 0)
(1.92061e-06 0 0)
(1.92036e-06 0 0)
(1.92012e-06 0 0)
(1.91988e-06 0 0)
(1.91965e-06 0 0)
(1.91943e-06 0 0)
(1.91921e-06 0 0)
(1.91899e-06 0 0)
(1.91878e-06 0 0)
(1.91857e-06 0 0)
(1.91837e-06 0 0)
(1.91818e-06 0 0)
(1.91798e-06 0 0)
(1.9178e-06 0 0)
(1.91761e-06 0 0)
(1.91744e-06 0 0)
(1.91726e-06 0 0)
(1.91709e-06 0 0)
(1.91693e-06 0 0)
(1.91677e-06 0 0)
(1.91661e-06 0 0)
(1.91646e-06 0 0)
(1.91631e-06 0 0)
(1.91617e-06 0 0)
(1.91602e-06 0 0)
(1.91589e-06 0 0)
(1.91575e-06 0 0)
(1.91563e-06 0 0)
(1.9155e-06 0 0)
(1.91538e-06 0 0)
(1.91527e-06 0 0)
(1.91516e-06 0 0)
(1.91505e-06 0 0)
(1.91495e-06 0 0)
(1.91486e-06 0 0)
(1.91477e-06 0 0)
(1.91469e-06 0 0)
(1.91461e-06 0 0)
(1.91455e-06 0 0)
(1.91449e-06 0 0)
(1.91445e-06 0 0)
(1.91441e-06 0 0)
(1.91438e-06 0 0)
(1.91437e-06 0 0)
(1.91437e-06 0 0)
(1.91438e-06 0 0)
(1.91441e-06 0 0)
(1.91446e-06 0 0)
(1.91452e-06 0 0)
(1.91459e-06 0 0)
(1.91469e-06 0 0)
(1.9148e-06 0 0)
(1.91493e-06 0 0)
(1.91509e-06 0 0)
(1.91526e-06 0 0)
(1.91545e-06 0 0)
(1.91566e-06 0 0)
(1.9159e-06 0 0)
(1.91615e-06 0 0)
(1.91642e-06 0 0)
(1.91672e-06 0 0)
(1.91703e-06 0 0)
(1.91735e-06 0 0)
(1.9177e-06 0 0)
(1.91806e-06 0 0)
(1.91843e-06 0 0)
(1.91881e-06 0 0)
(1.9192e-06 0 0)
(1.9196e-06 0 0)
(1.92e-06 0 0)
(1.92041e-06 0 0)
(1.92082e-06 0 0)
(1.92123e-06 0 0)
(1.92163e-06 0 0)
(1.92203e-06 0 0)
(1.92242e-06 0 0)
(1.92281e-06 0 0)
(1.92317e-06 0 0)
(1.92353e-06 0 0)
(1.92386e-06 0 0)
(1.92417e-06 0 0)
(1.92446e-06 0 0)
(1.92472e-06 0 0)
(1.92494e-06 0 0)
(1.92514e-06 0 0)
(1.92529e-06 0 0)
(1.92541e-06 0 0)
(1.92549e-06 0 0)
(1.92553e-06 0 0)
(1.92553e-06 0 0)
(1.92548e-06 0 0)
(1.92539e-06 0 0)
(1.92525e-06 0 0)
(1.92507e-06 0 0)
(1.92485e-06 0 0)
(1.92459e-06 0 0)
(1.92428e-06 0 0)
(1.92393e-06 0 0)
(1.92354e-06 0 0)
(1.92311e-06 0 0)
(1.92264e-06 0 0)
(1.92213e-06 0 0)
(1.92158e-06 0 0)
(1.92101e-06 0 0)
(1.92041e-06 0 0)
(1.91979e-06 0 0)
(1.94416e-06 0 0)
)
;

boundaryField
{
    inlet
    {
        type            fixedValue;
        value           uniform (2.74882e-06 0 0);
    }
    outlet
    {
        type            zeroGradient;
    }
    emptyWalls
    {
        type            empty;
    }
}


// ************************************************************************* //
