/*--------------------------------*- C++ -*----------------------------------*\
  =========                 |
  \\      /  F ield         | OpenFOAM: The Open Source CFD Toolbox
   \\    /   O peration     | Website:  https://openfoam.org
    \\  /    A nd           | Version:  9
     \\/     M anipulation  |
\*---------------------------------------------------------------------------*/
FoamFile
{
    format      ascii;
    class       surfaceScalarField;
    location    "14400";
    object      phib;
}
// * * * * * * * * * * * * * * * * * * * * * * * * * * * * * * * * * * * * * //

dimensions      [0 2 0 0 0 0 0];

internalField   nonuniform List<scalar> 
999
(
1.13622e-09
1.13624e-09
1.13624e-09
1.13628e-09
1.13627e-09
1.13634e-09
1.13634e-09
1.13643e-09
1.13648e-09
1.13653e-09
1.13664e-09
1.13666e-09
1.13676e-09
1.13679e-09
1.13685e-09
1.1369e-09
1.13699e-09
1.1373e-09
1.13845e-09
1.1453e-09
1.17105e-09
1.17626e-09
1.17765e-09
1.17827e-09
1.17865e-09
1.17892e-09
1.17914e-09
1.17933e-09
1.17948e-09
1.17959e-09
1.17966e-09
1.17969e-09
1.17972e-09
1.17975e-09
1.17978e-09
1.17979e-09
1.17973e-09
1.17956e-09
1.17926e-09
1.17885e-09
1.17836e-09
1.17785e-09
1.17739e-09
1.17704e-09
1.17678e-09
1.17656e-09
1.17634e-09
1.17613e-09
1.17604e-09
1.17606e-09
1.17618e-09
1.17636e-09
1.17656e-09
1.17674e-09
1.17684e-09
1.17683e-09
1.17672e-09
1.17651e-09
1.1762e-09
1.1758e-09
1.17533e-09
1.17478e-09
1.17417e-09
1.17352e-09
1.17283e-09
1.17213e-09
1.17141e-09
1.17068e-09
1.16996e-09
1.16924e-09
1.16853e-09
1.16783e-09
1.16714e-09
1.16646e-09
1.16578e-09
1.16511e-09
1.16444e-09
1.16377e-09
1.1631e-09
1.16243e-09
1.16177e-09
1.1611e-09
1.16043e-09
1.15975e-09
1.15908e-09
1.1584e-09
1.15772e-09
1.15704e-09
1.15635e-09
1.15567e-09
1.15498e-09
1.15429e-09
1.15359e-09
1.15289e-09
1.15219e-09
1.15149e-09
1.15079e-09
1.15008e-09
1.14937e-09
1.14865e-09
1.14794e-09
1.14722e-09
1.1465e-09
1.14578e-09
1.14505e-09
1.14432e-09
1.14359e-09
1.14286e-09
1.14212e-09
1.14138e-09
1.14064e-09
1.13989e-09
1.13915e-09
1.1384e-09
1.13764e-09
1.13689e-09
1.13613e-09
1.13537e-09
1.13461e-09
1.13385e-09
1.13308e-09
1.13231e-09
1.13154e-09
1.13077e-09
1.12999e-09
1.12921e-09
1.12843e-09
1.12765e-09
1.12686e-09
1.12608e-09
1.12529e-09
1.1245e-09
1.12371e-09
1.12292e-09
1.12213e-09
1.12134e-09
1.12054e-09
1.11975e-09
1.11895e-09
1.11815e-09
1.11734e-09
1.11654e-09
1.11573e-09
1.11492e-09
1.11411e-09
1.1133e-09
1.11248e-09
1.11167e-09
1.11085e-09
1.11003e-09
1.1092e-09
1.10837e-09
1.10752e-09
1.10666e-09
1.10578e-09
1.10489e-09
1.10398e-09
1.10305e-09
1.10211e-09
1.10114e-09
1.10016e-09
1.09917e-09
1.09817e-09
1.09716e-09
1.09615e-09
1.09513e-09
1.09413e-09
1.09313e-09
1.09215e-09
1.09119e-09
1.09025e-09
1.08934e-09
1.08847e-09
1.08763e-09
1.08682e-09
1.08605e-09
1.08532e-09
1.08461e-09
1.08394e-09
1.08328e-09
1.08265e-09
1.08202e-09
1.0814e-09
1.08078e-09
1.08015e-09
1.07951e-09
1.07885e-09
1.07818e-09
1.07748e-09
1.07677e-09
1.07604e-09
1.07528e-09
1.07451e-09
1.07372e-09
1.07292e-09
1.0721e-09
1.07127e-09
1.07044e-09
1.0696e-09
1.06875e-09
1.0679e-09
1.06704e-09
1.06619e-09
1.06534e-09
1.06448e-09
1.06363e-09
1.06278e-09
1.06193e-09
1.06109e-09
1.06024e-09
1.05939e-09
1.05855e-09
1.05771e-09
1.05687e-09
1.05603e-09
1.05518e-09
1.05434e-09
1.0535e-09
1.05266e-09
1.05182e-09
1.05097e-09
1.05013e-09
1.04928e-09
1.04844e-09
1.04759e-09
1.04674e-09
1.04589e-09
1.04504e-09
1.04418e-09
1.04333e-09
1.04247e-09
1.04162e-09
1.04076e-09
1.03989e-09
1.03903e-09
1.03817e-09
1.0373e-09
1.03643e-09
1.03556e-09
1.03469e-09
1.03381e-09
1.03294e-09
1.03206e-09
1.03118e-09
1.0303e-09
1.02941e-09
1.02853e-09
1.02764e-09
1.02675e-09
1.02586e-09
1.02497e-09
1.02407e-09
1.02317e-09
1.02228e-09
1.02137e-09
1.02047e-09
1.01957e-09
1.01866e-09
1.01775e-09
1.01684e-09
1.01593e-09
1.01502e-09
1.0141e-09
1.01318e-09
1.01226e-09
1.01134e-09
1.01041e-09
1.00949e-09
1.00856e-09
1.00763e-09
1.0067e-09
1.00577e-09
1.00484e-09
1.0039e-09
1.00296e-09
1.00203e-09
1.00109e-09
1.00014e-09
9.99202e-10
9.98257e-10
9.97311e-10
9.96363e-10
9.95414e-10
9.94463e-10
9.9351e-10
9.92555e-10
9.91599e-10
9.90641e-10
9.89682e-10
9.8872e-10
9.87756e-10
9.86789e-10
9.8582e-10
9.84848e-10
9.83871e-10
9.82891e-10
9.81906e-10
9.80915e-10
9.79919e-10
9.78916e-10
9.77906e-10
9.76888e-10
9.75863e-10
9.7483e-10
9.73788e-10
9.72738e-10
9.7168e-10
9.70615e-10
9.69542e-10
9.68462e-10
9.67377e-10
9.66287e-10
9.65193e-10
9.64097e-10
9.63001e-10
9.61905e-10
9.60811e-10
9.59721e-10
9.58637e-10
9.5756e-10
9.56493e-10
9.55435e-10
9.5439e-10
9.53357e-10
9.52338e-10
9.51333e-10
9.50343e-10
9.49367e-10
9.48405e-10
9.47457e-10
9.4652e-10
9.45595e-10
9.44678e-10
9.43769e-10
9.42865e-10
9.41965e-10
9.41066e-10
9.40167e-10
9.39265e-10
9.3836e-10
9.37448e-10
9.3653e-10
9.35604e-10
9.3467e-10
9.33727e-10
9.32774e-10
9.31812e-10
9.3084e-10
9.29859e-10
9.28869e-10
9.27872e-10
9.26866e-10
9.25853e-10
9.24834e-10
9.23809e-10
9.22778e-10
9.21743e-10
9.20704e-10
9.19662e-10
9.18616e-10
9.17568e-10
9.16517e-10
9.15465e-10
9.14411e-10
9.13355e-10
9.12298e-10
9.11239e-10
9.10179e-10
9.09118e-10
9.08056e-10
9.06992e-10
9.05927e-10
9.04861e-10
9.03793e-10
9.02724e-10
9.01654e-10
9.00581e-10
8.99507e-10
8.98431e-10
8.97353e-10
8.96273e-10
8.95191e-10
8.94107e-10
8.93021e-10
8.91932e-10
8.90841e-10
8.89748e-10
8.88652e-10
8.87554e-10
8.86453e-10
8.8535e-10
8.84244e-10
8.83135e-10
8.82024e-10
8.8091e-10
8.79794e-10
8.78674e-10
8.77552e-10
8.76427e-10
8.753e-10
8.74169e-10
8.73036e-10
8.719e-10
8.7076e-10
8.69618e-10
8.68473e-10
8.67325e-10
8.66174e-10
8.6502e-10
8.63863e-10
8.62702e-10
8.61539e-10
8.60372e-10
8.59203e-10
8.5803e-10
8.56854e-10
8.55675e-10
8.54492e-10
8.53306e-10
8.52117e-10
8.50925e-10
8.49729e-10
8.4853e-10
8.47327e-10
8.46121e-10
8.44912e-10
8.43699e-10
8.42483e-10
8.41263e-10
8.4004e-10
8.38814e-10
8.37584e-10
8.3635e-10
8.35113e-10
8.33872e-10
8.32628e-10
8.3138e-10
8.30129e-10
8.28874e-10
8.27615e-10
8.26353e-10
8.25087e-10
8.23817e-10
8.22544e-10
8.21266e-10
8.19986e-10
8.18701e-10
8.17412e-10
8.1612e-10
8.14823e-10
8.13523e-10
8.12218e-10
8.10909e-10
8.09596e-10
8.08278e-10
8.06957e-10
8.0563e-10
8.04298e-10
8.02962e-10
8.0162e-10
8.00273e-10
7.9892e-10
7.97562e-10
7.96197e-10
7.94827e-10
7.93449e-10
7.92066e-10
7.90675e-10
7.89278e-10
7.87872e-10
7.8646e-10
7.8504e-10
7.83612e-10
7.82177e-10
7.80734e-10
7.79283e-10
7.77824e-10
7.76359e-10
7.74885e-10
7.73405e-10
7.71918e-10
7.70423e-10
7.68923e-10
7.67417e-10
7.65906e-10
7.64389e-10
7.62869e-10
7.61344e-10
7.59816e-10
7.58284e-10
7.56751e-10
7.55215e-10
7.53678e-10
7.5214e-10
7.50602e-10
7.49064e-10
7.47525e-10
7.45988e-10
7.4445e-10
7.42913e-10
7.41376e-10
7.3984e-10
7.38304e-10
7.36767e-10
7.3523e-10
7.33692e-10
7.32152e-10
7.3061e-10
7.29064e-10
7.27515e-10
7.25961e-10
7.24402e-10
7.22836e-10
7.21264e-10
7.19684e-10
7.18096e-10
7.16498e-10
7.14892e-10
7.13275e-10
7.11649e-10
7.10011e-10
7.08363e-10
7.06704e-10
7.05034e-10
7.03353e-10
7.01661e-10
6.99959e-10
6.98247e-10
6.96525e-10
6.94794e-10
6.93054e-10
6.91307e-10
6.89553e-10
6.87794e-10
6.86031e-10
6.84265e-10
6.82498e-10
6.80732e-10
6.7897e-10
6.77215e-10
6.7547e-10
6.73738e-10
6.72023e-10
6.70331e-10
6.68666e-10
6.67035e-10
6.65443e-10
6.63896e-10
6.62401e-10
6.60965e-10
6.59593e-10
6.58292e-10
6.57069e-10
6.55927e-10
6.5487e-10
6.539e-10
6.53018e-10
6.52224e-10
6.51517e-10
6.50895e-10
6.50351e-10
6.4988e-10
6.49473e-10
6.4912e-10
6.48807e-10
6.48517e-10
6.48218e-10
6.47862e-10
6.47368e-10
6.46594e-10
6.45296e-10
6.43047e-10
6.39104e-10
6.32219e-10
6.20401e-10
6.00778e-10
5.69989e-10
5.25782e-10
4.69918e-10
4.09992e-10
3.56456e-10
3.16287e-10
2.9013e-10
2.74707e-10
2.66159e-10
2.61586e-10
2.59188e-10
2.57943e-10
2.57301e-10
2.56972e-10
2.56803e-10
2.56718e-10
2.56674e-10
2.56653e-10
2.56642e-10
2.56638e-10
2.56636e-10
2.56636e-10
2.56637e-10
2.56637e-10
2.56638e-10
2.56639e-10
2.5664e-10
2.56641e-10
2.56642e-10
2.56643e-10
2.56643e-10
2.56644e-10
2.56644e-10
2.56645e-10
2.56645e-10
2.56645e-10
2.56645e-10
2.56645e-10
2.56645e-10
2.56645e-10
2.56644e-10
2.56644e-10
2.56643e-10
2.56642e-10
2.56642e-10
2.56641e-10
2.56639e-10
2.56638e-10
2.56637e-10
2.56636e-10
2.56634e-10
2.56632e-10
2.56631e-10
2.56629e-10
2.56627e-10
2.56625e-10
2.56622e-10
2.5662e-10
2.56618e-10
2.56615e-10
2.56612e-10
2.5661e-10
2.56607e-10
2.56604e-10
2.56601e-10
2.56597e-10
2.56594e-10
2.56591e-10
2.56587e-10
2.56583e-10
2.56579e-10
2.56575e-10
2.56571e-10
2.56566e-10
2.56562e-10
2.56557e-10
2.56551e-10
2.56546e-10
2.5654e-10
2.56534e-10
2.56527e-10
2.5652e-10
2.56513e-10
2.56505e-10
2.56496e-10
2.56488e-10
2.56478e-10
2.56469e-10
2.56458e-10
2.56448e-10
2.56436e-10
2.56424e-10
2.56412e-10
2.56399e-10
2.56386e-10
2.56372e-10
2.56358e-10
2.56343e-10
2.56328e-10
2.56312e-10
2.56296e-10
2.5628e-10
2.56264e-10
2.56248e-10
2.56231e-10
2.56215e-10
2.56199e-10
2.56183e-10
2.56167e-10
2.56151e-10
2.56137e-10
2.56122e-10
2.56109e-10
2.56096e-10
2.56084e-10
2.56073e-10
2.56063e-10
2.56054e-10
2.56046e-10
2.5604e-10
2.56035e-10
2.56031e-10
2.56029e-10
2.56028e-10
2.56028e-10
2.56028e-10
2.5603e-10
2.56034e-10
2.5604e-10
2.56047e-10
2.56056e-10
2.56066e-10
2.56076e-10
2.56088e-10
2.561e-10
2.56113e-10
2.56127e-10
2.56141e-10
2.56156e-10
2.56171e-10
2.56186e-10
2.56201e-10
2.56217e-10
2.56232e-10
2.56246e-10
2.56261e-10
2.56275e-10
2.56289e-10
2.56302e-10
2.56315e-10
2.56327e-10
2.56338e-10
2.56349e-10
2.56359e-10
2.56369e-10
2.56378e-10
2.56387e-10
2.56394e-10
2.56402e-10
2.56408e-10
2.56415e-10
2.56421e-10
2.56426e-10
2.56431e-10
2.56435e-10
2.5644e-10
2.56444e-10
2.56448e-10
2.56451e-10
2.56454e-10
2.56458e-10
2.56461e-10
2.56464e-10
2.56466e-10
2.56469e-10
2.56472e-10
2.56475e-10
2.56478e-10
2.5648e-10
2.56483e-10
2.56486e-10
2.56489e-10
2.56492e-10
2.56494e-10
2.56497e-10
2.565e-10
2.56503e-10
2.56506e-10
2.56509e-10
2.56512e-10
2.56516e-10
2.56519e-10
2.56522e-10
2.56525e-10
2.56528e-10
2.56532e-10
2.56535e-10
2.56538e-10
2.56541e-10
2.56544e-10
2.56547e-10
2.5655e-10
2.56553e-10
2.56556e-10
2.56559e-10
2.56562e-10
2.56565e-10
2.56568e-10
2.5657e-10
2.56573e-10
2.56575e-10
2.56578e-10
2.5658e-10
2.56582e-10
2.56585e-10
2.56587e-10
2.56589e-10
2.56591e-10
2.56593e-10
2.56595e-10
2.56597e-10
2.56598e-10
2.566e-10
2.56602e-10
2.56604e-10
2.56606e-10
2.56607e-10
2.56609e-10
2.56611e-10
2.56612e-10
2.56614e-10
2.56615e-10
2.56617e-10
2.56618e-10
2.56619e-10
2.5662e-10
2.56621e-10
2.56622e-10
2.56622e-10
2.56623e-10
2.56623e-10
2.56624e-10
2.56624e-10
2.56624e-10
2.56624e-10
2.56624e-10
2.56623e-10
2.56622e-10
2.56622e-10
2.56621e-10
2.5662e-10
2.56619e-10
2.56618e-10
2.56616e-10
2.56615e-10
2.56614e-10
2.56612e-10
2.5661e-10
2.56609e-10
2.56607e-10
2.56605e-10
2.56603e-10
2.56601e-10
2.56598e-10
2.56596e-10
2.56594e-10
2.56591e-10
2.56589e-10
2.56586e-10
2.56583e-10
2.5658e-10
2.56577e-10
2.56574e-10
2.56571e-10
2.56568e-10
2.56564e-10
2.5656e-10
2.56556e-10
2.56552e-10
2.56548e-10
2.56543e-10
2.56539e-10
2.56534e-10
2.56528e-10
2.56523e-10
2.56517e-10
2.5651e-10
2.56504e-10
2.56497e-10
2.56489e-10
2.56482e-10
2.56473e-10
2.56465e-10
2.56456e-10
2.56447e-10
2.56437e-10
2.56426e-10
2.56416e-10
2.56405e-10
2.56393e-10
2.56381e-10
2.56369e-10
2.56356e-10
2.56343e-10
2.5633e-10
2.56317e-10
2.56303e-10
2.56289e-10
2.56275e-10
2.56261e-10
2.56247e-10
2.56232e-10
2.56218e-10
2.56204e-10
2.56191e-10
2.56177e-10
2.56164e-10
2.56152e-10
2.5614e-10
2.56128e-10
2.56117e-10
2.56107e-10
2.56097e-10
2.56089e-10
2.56081e-10
2.56074e-10
2.56069e-10
2.56064e-10
2.5606e-10
2.56058e-10
2.56056e-10
2.56056e-10
2.56056e-10
2.56056e-10
2.56057e-10
2.56062e-10
2.56067e-10
2.56073e-10
2.5608e-10
2.56088e-10
2.56097e-10
2.56107e-10
2.56118e-10
2.56129e-10
2.5614e-10
2.56153e-10
2.56165e-10
2.56178e-10
2.56191e-10
2.56204e-10
2.56217e-10
2.5623e-10
2.56243e-10
2.56256e-10
2.56269e-10
2.56281e-10
2.56293e-10
2.56305e-10
2.56316e-10
2.56327e-10
2.56337e-10
2.56347e-10
2.56357e-10
2.56366e-10
2.56374e-10
2.56383e-10
2.5639e-10
2.56397e-10
2.56404e-10
2.56411e-10
2.56417e-10
2.56423e-10
2.56428e-10
2.56433e-10
2.56438e-10
2.56443e-10
2.56447e-10
2.56451e-10
2.56455e-10
2.56459e-10
2.56463e-10
2.56467e-10
2.5647e-10
2.56473e-10
2.56477e-10
2.5648e-10
2.56484e-10
2.56487e-10
2.5649e-10
2.56493e-10
2.56496e-10
2.565e-10
2.56503e-10
2.56506e-10
2.56509e-10
2.56512e-10
2.56515e-10
2.56518e-10
2.56521e-10
2.56525e-10
2.56528e-10
2.56531e-10
2.56534e-10
2.56537e-10
2.5654e-10
2.56543e-10
2.56545e-10
2.56548e-10
2.56551e-10
2.56554e-10
2.56556e-10
2.56559e-10
2.56562e-10
2.56564e-10
2.56566e-10
2.56569e-10
2.56571e-10
2.56573e-10
2.56576e-10
2.56578e-10
2.5658e-10
2.56582e-10
2.56584e-10
)
;

boundaryField
{
    inlet
    {
        type            calculated;
        value           uniform -1.13622e-09;
    }
    outlet
    {
        type            calculated;
        value           uniform 2.56586e-10;
    }
    emptyWalls
    {
        type            empty;
        value           nonuniform List<scalar> 0();
    }
}


// ************************************************************************* //
