/*--------------------------------*- C++ -*----------------------------------*\
  =========                 |
  \\      /  F ield         | OpenFOAM: The Open Source CFD Toolbox
   \\    /   O peration     | Website:  https://openfoam.org
    \\  /    A nd           | Version:  9
     \\/     M anipulation  |
\*---------------------------------------------------------------------------*/
FoamFile
{
    format      ascii;
    class       volVectorField;
    location    "17450";
    object      Ua;
}
// * * * * * * * * * * * * * * * * * * * * * * * * * * * * * * * * * * * * * //

dimensions      [0 0 0 0 0 0 0];

internalField   nonuniform List<vector> 
1000
(
(2.74909e-06 0 0)
(2.74876e-06 0 0)
(2.74857e-06 0 0)
(2.74825e-06 0 0)
(2.74788e-06 0 0)
(2.74747e-06 0 0)
(2.74691e-06 0 0)
(2.74642e-06 0 0)
(2.74566e-06 0 0)
(2.7449e-06 0 0)
(2.74399e-06 0 0)
(2.74293e-06 0 0)
(2.74192e-06 0 0)
(2.74081e-06 0 0)
(2.73978e-06 0 0)
(2.73881e-06 0 0)
(2.73789e-06 0 0)
(2.73705e-06 0 0)
(2.7363e-06 0 0)
(2.73561e-06 0 0)
(2.73474e-06 0 0)
(2.73278e-06 0 0)
(2.72526e-06 0 0)
(2.6929e-06 0 0)
(2.48459e-06 0 0)
(2.23657e-06 0 0)
(2.15333e-06 0 0)
(2.12874e-06 0 0)
(2.11696e-06 0 0)
(2.10928e-06 0 0)
(2.1034e-06 0 0)
(2.09849e-06 0 0)
(2.09423e-06 0 0)
(2.09044e-06 0 0)
(2.08699e-06 0 0)
(2.08384e-06 0 0)
(2.08095e-06 0 0)
(2.07829e-06 0 0)
(2.07582e-06 0 0)
(2.07354e-06 0 0)
(2.07142e-06 0 0)
(2.06945e-06 0 0)
(2.0676e-06 0 0)
(2.06587e-06 0 0)
(2.06428e-06 0 0)
(2.06279e-06 0 0)
(2.06137e-06 0 0)
(2.06005e-06 0 0)
(2.05881e-06 0 0)
(2.05764e-06 0 0)
(2.05654e-06 0 0)
(2.05548e-06 0 0)
(2.05448e-06 0 0)
(2.05354e-06 0 0)
(2.05266e-06 0 0)
(2.05186e-06 0 0)
(2.05114e-06 0 0)
(2.05049e-06 0 0)
(2.0499e-06 0 0)
(2.04937e-06 0 0)
(2.04888e-06 0 0)
(2.04842e-06 0 0)
(2.04798e-06 0 0)
(2.04756e-06 0 0)
(2.04716e-06 0 0)
(2.04682e-06 0 0)
(2.04657e-06 0 0)
(2.04643e-06 0 0)
(2.04642e-06 0 0)
(2.04649e-06 0 0)
(2.04662e-06 0 0)
(2.04676e-06 0 0)
(2.0469e-06 0 0)
(2.04701e-06 0 0)
(2.04707e-06 0 0)
(2.04709e-06 0 0)
(2.04707e-06 0 0)
(2.04703e-06 0 0)
(2.047e-06 0 0)
(2.04702e-06 0 0)
(2.04716e-06 0 0)
(2.04756e-06 0 0)
(2.04834e-06 0 0)
(2.04958e-06 0 0)
(2.05131e-06 0 0)
(2.05347e-06 0 0)
(2.05596e-06 0 0)
(2.05866e-06 0 0)
(2.06146e-06 0 0)
(2.06427e-06 0 0)
(2.067e-06 0 0)
(2.06962e-06 0 0)
(2.07204e-06 0 0)
(2.0742e-06 0 0)
(2.076e-06 0 0)
(2.07733e-06 0 0)
(2.07809e-06 0 0)
(2.07821e-06 0 0)
(2.07762e-06 0 0)
(2.07634e-06 0 0)
(2.0744e-06 0 0)
(2.07189e-06 0 0)
(2.06893e-06 0 0)
(2.06567e-06 0 0)
(2.06225e-06 0 0)
(2.05882e-06 0 0)
(2.05552e-06 0 0)
(2.05245e-06 0 0)
(2.0497e-06 0 0)
(2.04732e-06 0 0)
(2.04533e-06 0 0)
(2.04373e-06 0 0)
(2.04251e-06 0 0)
(2.04162e-06 0 0)
(2.04102e-06 0 0)
(2.04065e-06 0 0)
(2.04046e-06 0 0)
(2.0404e-06 0 0)
(2.04041e-06 0 0)
(2.04046e-06 0 0)
(2.04051e-06 0 0)
(2.04053e-06 0 0)
(2.04051e-06 0 0)
(2.04044e-06 0 0)
(2.0403e-06 0 0)
(2.0401e-06 0 0)
(2.03983e-06 0 0)
(2.03951e-06 0 0)
(2.03913e-06 0 0)
(2.03872e-06 0 0)
(2.03826e-06 0 0)
(2.03778e-06 0 0)
(2.03727e-06 0 0)
(2.03675e-06 0 0)
(2.03622e-06 0 0)
(2.03568e-06 0 0)
(2.03513e-06 0 0)
(2.03459e-06 0 0)
(2.03405e-06 0 0)
(2.03351e-06 0 0)
(2.03298e-06 0 0)
(2.03246e-06 0 0)
(2.03194e-06 0 0)
(2.03143e-06 0 0)
(2.03093e-06 0 0)
(2.03043e-06 0 0)
(2.02995e-06 0 0)
(2.02947e-06 0 0)
(2.02901e-06 0 0)
(2.02855e-06 0 0)
(2.02811e-06 0 0)
(2.02767e-06 0 0)
(2.02725e-06 0 0)
(2.02683e-06 0 0)
(2.02643e-06 0 0)
(2.02603e-06 0 0)
(2.02565e-06 0 0)
(2.02527e-06 0 0)
(2.02491e-06 0 0)
(2.02456e-06 0 0)
(2.02421e-06 0 0)
(2.02388e-06 0 0)
(2.02356e-06 0 0)
(2.02324e-06 0 0)
(2.02294e-06 0 0)
(2.02265e-06 0 0)
(2.02236e-06 0 0)
(2.02209e-06 0 0)
(2.02183e-06 0 0)
(2.02157e-06 0 0)
(2.02133e-06 0 0)
(2.0211e-06 0 0)
(2.02089e-06 0 0)
(2.02068e-06 0 0)
(2.02049e-06 0 0)
(2.02032e-06 0 0)
(2.02015e-06 0 0)
(2.02e-06 0 0)
(2.01985e-06 0 0)
(2.01972e-06 0 0)
(2.01959e-06 0 0)
(2.01947e-06 0 0)
(2.01935e-06 0 0)
(2.01923e-06 0 0)
(2.01912e-06 0 0)
(2.019e-06 0 0)
(2.0189e-06 0 0)
(2.01879e-06 0 0)
(2.0187e-06 0 0)
(2.01861e-06 0 0)
(2.01853e-06 0 0)
(2.01845e-06 0 0)
(2.01839e-06 0 0)
(2.01834e-06 0 0)
(2.01828e-06 0 0)
(2.01823e-06 0 0)
(2.01817e-06 0 0)
(2.01811e-06 0 0)
(2.01805e-06 0 0)
(2.01798e-06 0 0)
(2.01792e-06 0 0)
(2.01786e-06 0 0)
(2.01784e-06 0 0)
(2.01785e-06 0 0)
(2.01792e-06 0 0)
(2.01807e-06 0 0)
(2.01831e-06 0 0)
(2.01866e-06 0 0)
(2.01913e-06 0 0)
(2.01974e-06 0 0)
(2.02049e-06 0 0)
(2.02139e-06 0 0)
(2.02244e-06 0 0)
(2.02363e-06 0 0)
(2.02494e-06 0 0)
(2.02637e-06 0 0)
(2.02789e-06 0 0)
(2.02949e-06 0 0)
(2.03112e-06 0 0)
(2.03277e-06 0 0)
(2.03439e-06 0 0)
(2.03595e-06 0 0)
(2.0374e-06 0 0)
(2.03872e-06 0 0)
(2.03985e-06 0 0)
(2.04077e-06 0 0)
(2.04145e-06 0 0)
(2.04184e-06 0 0)
(2.04195e-06 0 0)
(2.04175e-06 0 0)
(2.04124e-06 0 0)
(2.04043e-06 0 0)
(2.03934e-06 0 0)
(2.03799e-06 0 0)
(2.03642e-06 0 0)
(2.03467e-06 0 0)
(2.03278e-06 0 0)
(2.03079e-06 0 0)
(2.02875e-06 0 0)
(2.02671e-06 0 0)
(2.0247e-06 0 0)
(2.02277e-06 0 0)
(2.02093e-06 0 0)
(2.01922e-06 0 0)
(2.01765e-06 0 0)
(2.01623e-06 0 0)
(2.01496e-06 0 0)
(2.01385e-06 0 0)
(2.01288e-06 0 0)
(2.01205e-06 0 0)
(2.01134e-06 0 0)
(2.01075e-06 0 0)
(2.01025e-06 0 0)
(2.00983e-06 0 0)
(2.00947e-06 0 0)
(2.00916e-06 0 0)
(2.00889e-06 0 0)
(2.00864e-06 0 0)
(2.0084e-06 0 0)
(2.00817e-06 0 0)
(2.00793e-06 0 0)
(2.00768e-06 0 0)
(2.00741e-06 0 0)
(2.00713e-06 0 0)
(2.00683e-06 0 0)
(2.00651e-06 0 0)
(2.00616e-06 0 0)
(2.00579e-06 0 0)
(2.00541e-06 0 0)
(2.005e-06 0 0)
(2.00458e-06 0 0)
(2.00414e-06 0 0)
(2.0037e-06 0 0)
(2.00323e-06 0 0)
(2.00277e-06 0 0)
(2.00229e-06 0 0)
(2.00181e-06 0 0)
(2.00132e-06 0 0)
(2.00084e-06 0 0)
(2.00035e-06 0 0)
(1.99986e-06 0 0)
(1.99937e-06 0 0)
(1.99889e-06 0 0)
(1.99841e-06 0 0)
(1.99793e-06 0 0)
(1.99746e-06 0 0)
(1.99699e-06 0 0)
(1.99653e-06 0 0)
(1.99608e-06 0 0)
(1.99563e-06 0 0)
(1.99518e-06 0 0)
(1.99474e-06 0 0)
(1.99431e-06 0 0)
(1.99389e-06 0 0)
(1.99348e-06 0 0)
(1.99307e-06 0 0)
(1.99267e-06 0 0)
(1.99227e-06 0 0)
(1.99189e-06 0 0)
(1.99151e-06 0 0)
(1.99114e-06 0 0)
(1.99078e-06 0 0)
(1.99042e-06 0 0)
(1.99008e-06 0 0)
(1.98974e-06 0 0)
(1.98941e-06 0 0)
(1.98909e-06 0 0)
(1.98878e-06 0 0)
(1.98847e-06 0 0)
(1.98818e-06 0 0)
(1.98789e-06 0 0)
(1.98761e-06 0 0)
(1.98734e-06 0 0)
(1.98708e-06 0 0)
(1.98683e-06 0 0)
(1.98659e-06 0 0)
(1.98636e-06 0 0)
(1.98614e-06 0 0)
(1.98593e-06 0 0)
(1.98572e-06 0 0)
(1.98553e-06 0 0)
(1.98534e-06 0 0)
(1.98516e-06 0 0)
(1.98498e-06 0 0)
(1.98482e-06 0 0)
(1.98466e-06 0 0)
(1.9845e-06 0 0)
(1.98435e-06 0 0)
(1.98421e-06 0 0)
(1.98407e-06 0 0)
(1.98394e-06 0 0)
(1.98381e-06 0 0)
(1.98369e-06 0 0)
(1.98357e-06 0 0)
(1.98346e-06 0 0)
(1.98335e-06 0 0)
(1.98325e-06 0 0)
(1.98315e-06 0 0)
(1.98306e-06 0 0)
(1.98296e-06 0 0)
(1.98287e-06 0 0)
(1.98279e-06 0 0)
(1.9827e-06 0 0)
(1.98263e-06 0 0)
(1.98256e-06 0 0)
(1.9825e-06 0 0)
(1.98246e-06 0 0)
(1.98243e-06 0 0)
(1.98242e-06 0 0)
(1.98245e-06 0 0)
(1.9825e-06 0 0)
(1.9826e-06 0 0)
(1.98274e-06 0 0)
(1.98293e-06 0 0)
(1.98318e-06 0 0)
(1.98349e-06 0 0)
(1.98387e-06 0 0)
(1.98431e-06 0 0)
(1.98484e-06 0 0)
(1.98543e-06 0 0)
(1.9861e-06 0 0)
(1.98684e-06 0 0)
(1.98765e-06 0 0)
(1.98853e-06 0 0)
(1.98946e-06 0 0)
(1.99044e-06 0 0)
(1.99145e-06 0 0)
(1.9925e-06 0 0)
(1.99355e-06 0 0)
(1.99461e-06 0 0)
(1.99565e-06 0 0)
(1.99666e-06 0 0)
(1.99761e-06 0 0)
(1.9985e-06 0 0)
(1.99931e-06 0 0)
(2.00002e-06 0 0)
(2.00061e-06 0 0)
(2.00108e-06 0 0)
(2.0014e-06 0 0)
(2.00158e-06 0 0)
(2.00159e-06 0 0)
(2.00144e-06 0 0)
(2.00113e-06 0 0)
(2.00066e-06 0 0)
(2.00002e-06 0 0)
(1.99924e-06 0 0)
(1.99832e-06 0 0)
(1.99728e-06 0 0)
(1.99612e-06 0 0)
(1.99487e-06 0 0)
(1.99355e-06 0 0)
(1.99217e-06 0 0)
(1.99076e-06 0 0)
(1.98933e-06 0 0)
(1.9879e-06 0 0)
(1.98649e-06 0 0)
(1.98511e-06 0 0)
(1.98377e-06 0 0)
(1.98249e-06 0 0)
(1.98127e-06 0 0)
(1.98012e-06 0 0)
(1.97904e-06 0 0)
(1.97804e-06 0 0)
(1.97711e-06 0 0)
(1.97626e-06 0 0)
(1.97548e-06 0 0)
(1.97476e-06 0 0)
(1.97411e-06 0 0)
(1.97351e-06 0 0)
(1.97297e-06 0 0)
(1.97247e-06 0 0)
(1.972e-06 0 0)
(1.97157e-06 0 0)
(1.97117e-06 0 0)
(1.97079e-06 0 0)
(1.97042e-06 0 0)
(1.97006e-06 0 0)
(1.96971e-06 0 0)
(1.96937e-06 0 0)
(1.96902e-06 0 0)
(1.96867e-06 0 0)
(1.96832e-06 0 0)
(1.96796e-06 0 0)
(1.96759e-06 0 0)
(1.96722e-06 0 0)
(1.96683e-06 0 0)
(1.96644e-06 0 0)
(1.96604e-06 0 0)
(1.96562e-06 0 0)
(1.9652e-06 0 0)
(1.96478e-06 0 0)
(1.96434e-06 0 0)
(1.9639e-06 0 0)
(1.96345e-06 0 0)
(1.963e-06 0 0)
(1.96255e-06 0 0)
(1.96209e-06 0 0)
(1.96163e-06 0 0)
(1.96116e-06 0 0)
(1.9607e-06 0 0)
(1.96024e-06 0 0)
(1.95978e-06 0 0)
(1.95932e-06 0 0)
(1.95886e-06 0 0)
(1.95841e-06 0 0)
(1.95796e-06 0 0)
(1.95751e-06 0 0)
(1.95707e-06 0 0)
(1.95663e-06 0 0)
(1.9562e-06 0 0)
(1.95577e-06 0 0)
(1.95534e-06 0 0)
(1.95493e-06 0 0)
(1.95451e-06 0 0)
(1.95411e-06 0 0)
(1.95371e-06 0 0)
(1.95331e-06 0 0)
(1.95293e-06 0 0)
(1.95255e-06 0 0)
(1.95217e-06 0 0)
(1.9518e-06 0 0)
(1.95144e-06 0 0)
(1.95109e-06 0 0)
(1.95074e-06 0 0)
(1.9504e-06 0 0)
(1.95007e-06 0 0)
(1.94974e-06 0 0)
(1.94942e-06 0 0)
(1.94911e-06 0 0)
(1.9488e-06 0 0)
(1.94851e-06 0 0)
(1.94821e-06 0 0)
(1.94793e-06 0 0)
(1.94765e-06 0 0)
(1.94739e-06 0 0)
(1.94712e-06 0 0)
(1.94687e-06 0 0)
(1.94662e-06 0 0)
(1.94638e-06 0 0)
(1.94614e-06 0 0)
(1.94592e-06 0 0)
(1.94569e-06 0 0)
(1.94548e-06 0 0)
(1.94527e-06 0 0)
(1.94506e-06 0 0)
(1.94487e-06 0 0)
(1.94467e-06 0 0)
(1.94448e-06 0 0)
(1.9443e-06 0 0)
(1.94412e-06 0 0)
(1.94395e-06 0 0)
(1.94378e-06 0 0)
(1.94362e-06 0 0)
(1.94346e-06 0 0)
(1.9433e-06 0 0)
(1.94315e-06 0 0)
(1.943e-06 0 0)
(1.94285e-06 0 0)
(1.94271e-06 0 0)
(1.94257e-06 0 0)
(1.94243e-06 0 0)
(1.9423e-06 0 0)
(1.94218e-06 0 0)
(1.94205e-06 0 0)
(1.94193e-06 0 0)
(1.94182e-06 0 0)
(1.94172e-06 0 0)
(1.94162e-06 0 0)
(1.94153e-06 0 0)
(1.94146e-06 0 0)
(1.94139e-06 0 0)
(1.94134e-06 0 0)
(1.94131e-06 0 0)
(1.9413e-06 0 0)
(1.9413e-06 0 0)
(1.94134e-06 0 0)
(1.9414e-06 0 0)
(1.94148e-06 0 0)
(1.9416e-06 0 0)
(1.94176e-06 0 0)
(1.94195e-06 0 0)
(1.94218e-06 0 0)
(1.94245e-06 0 0)
(1.94276e-06 0 0)
(1.94311e-06 0 0)
(1.94351e-06 0 0)
(1.94394e-06 0 0)
(1.94442e-06 0 0)
(1.94493e-06 0 0)
(1.94548e-06 0 0)
(1.94607e-06 0 0)
(1.94668e-06 0 0)
(1.94732e-06 0 0)
(1.94798e-06 0 0)
(1.94866e-06 0 0)
(1.94934e-06 0 0)
(1.95002e-06 0 0)
(1.9507e-06 0 0)
(1.95136e-06 0 0)
(1.95201e-06 0 0)
(1.95262e-06 0 0)
(1.9532e-06 0 0)
(1.95373e-06 0 0)
(1.9542e-06 0 0)
(1.95462e-06 0 0)
(1.95496e-06 0 0)
(1.95523e-06 0 0)
(1.95541e-06 0 0)
(1.95551e-06 0 0)
(1.95552e-06 0 0)
(1.95543e-06 0 0)
(1.95525e-06 0 0)
(1.95496e-06 0 0)
(1.95458e-06 0 0)
(1.9541e-06 0 0)
(1.95353e-06 0 0)
(1.95287e-06 0 0)
(1.95212e-06 0 0)
(1.9513e-06 0 0)
(1.95041e-06 0 0)
(1.94946e-06 0 0)
(1.94845e-06 0 0)
(1.9474e-06 0 0)
(1.94631e-06 0 0)
(1.9452e-06 0 0)
(1.94407e-06 0 0)
(1.94294e-06 0 0)
(1.9418e-06 0 0)
(1.94068e-06 0 0)
(1.93957e-06 0 0)
(1.93848e-06 0 0)
(1.93743e-06 0 0)
(1.9364e-06 0 0)
(1.93541e-06 0 0)
(1.93446e-06 0 0)
(1.93355e-06 0 0)
(1.93268e-06 0 0)
(1.93185e-06 0 0)
(1.93107e-06 0 0)
(1.93033e-06 0 0)
(1.92962e-06 0 0)
(1.92896e-06 0 0)
(1.92833e-06 0 0)
(1.92773e-06 0 0)
(1.92717e-06 0 0)
(1.92663e-06 0 0)
(1.92611e-06 0 0)
(1.92562e-06 0 0)
(1.92515e-06 0 0)
(1.92469e-06 0 0)
(1.92424e-06 0 0)
(1.92381e-06 0 0)
(1.92339e-06 0 0)
(1.92297e-06 0 0)
(1.92255e-06 0 0)
(1.92214e-06 0 0)
(1.92173e-06 0 0)
(1.92132e-06 0 0)
(1.92091e-06 0 0)
(1.9205e-06 0 0)
(1.92008e-06 0 0)
(1.91966e-06 0 0)
(1.91924e-06 0 0)
(1.91881e-06 0 0)
(1.91838e-06 0 0)
(1.91794e-06 0 0)
(1.9175e-06 0 0)
(1.91706e-06 0 0)
(1.91661e-06 0 0)
(1.91616e-06 0 0)
(1.91571e-06 0 0)
(1.91525e-06 0 0)
(1.91479e-06 0 0)
(1.91433e-06 0 0)
(1.91387e-06 0 0)
(1.9134e-06 0 0)
(1.91294e-06 0 0)
(1.91248e-06 0 0)
(1.91201e-06 0 0)
(1.91155e-06 0 0)
(1.91109e-06 0 0)
(1.91063e-06 0 0)
(1.91017e-06 0 0)
(1.90971e-06 0 0)
(1.90926e-06 0 0)
(1.90881e-06 0 0)
(1.90836e-06 0 0)
(1.90791e-06 0 0)
(1.90747e-06 0 0)
(1.90703e-06 0 0)
(1.90659e-06 0 0)
(1.90616e-06 0 0)
(1.90573e-06 0 0)
(1.90531e-06 0 0)
(1.90489e-06 0 0)
(1.90448e-06 0 0)
(1.90407e-06 0 0)
(1.90366e-06 0 0)
(1.90326e-06 0 0)
(1.90286e-06 0 0)
(1.90247e-06 0 0)
(1.90209e-06 0 0)
(1.9017e-06 0 0)
(1.90133e-06 0 0)
(1.90096e-06 0 0)
(1.90059e-06 0 0)
(1.90023e-06 0 0)
(1.89988e-06 0 0)
(1.89953e-06 0 0)
(1.89919e-06 0 0)
(1.89885e-06 0 0)
(1.89852e-06 0 0)
(1.8982e-06 0 0)
(1.89788e-06 0 0)
(1.89757e-06 0 0)
(1.89727e-06 0 0)
(1.89697e-06 0 0)
(1.89668e-06 0 0)
(1.8964e-06 0 0)
(1.89613e-06 0 0)
(1.89587e-06 0 0)
(1.89562e-06 0 0)
(1.89538e-06 0 0)
(1.89515e-06 0 0)
(1.89493e-06 0 0)
(1.89472e-06 0 0)
(1.89453e-06 0 0)
(1.89435e-06 0 0)
(1.89418e-06 0 0)
(1.89403e-06 0 0)
(1.8939e-06 0 0)
(1.89378e-06 0 0)
(1.89368e-06 0 0)
(1.89359e-06 0 0)
(1.89352e-06 0 0)
(1.89347e-06 0 0)
(1.89344e-06 0 0)
(1.89342e-06 0 0)
(1.89342e-06 0 0)
(1.89343e-06 0 0)
(1.89346e-06 0 0)
(1.8935e-06 0 0)
(1.89355e-06 0 0)
(1.89362e-06 0 0)
(1.8937e-06 0 0)
(1.89379e-06 0 0)
(1.89389e-06 0 0)
(1.894e-06 0 0)
(1.89411e-06 0 0)
(1.89423e-06 0 0)
(1.89435e-06 0 0)
(1.89445e-06 0 0)
(1.8945e-06 0 0)
(1.89446e-06 0 0)
(1.89427e-06 0 0)
(1.89378e-06 0 0)
(1.89279e-06 0 0)
(1.89099e-06 0 0)
(1.88793e-06 0 0)
(1.88328e-06 0 0)
(1.87706e-06 0 0)
(1.87012e-06 0 0)
(1.8639e-06 0 0)
(1.85953e-06 0 0)
(1.85713e-06 0 0)
(1.85609e-06 0 0)
(1.85584e-06 0 0)
(1.85595e-06 0 0)
(1.85627e-06 0 0)
(1.8567e-06 0 0)
(1.85717e-06 0 0)
(1.8577e-06 0 0)
(1.85825e-06 0 0)
(1.85883e-06 0 0)
(1.85943e-06 0 0)
(1.86006e-06 0 0)
(1.8607e-06 0 0)
(1.86135e-06 0 0)
(1.86202e-06 0 0)
(1.8627e-06 0 0)
(1.86338e-06 0 0)
(1.86407e-06 0 0)
(1.86476e-06 0 0)
(1.86545e-06 0 0)
(1.86613e-06 0 0)
(1.8668e-06 0 0)
(1.86746e-06 0 0)
(1.86811e-06 0 0)
(1.86874e-06 0 0)
(1.86934e-06 0 0)
(1.86992e-06 0 0)
(1.87047e-06 0 0)
(1.87098e-06 0 0)
(1.87145e-06 0 0)
(1.87189e-06 0 0)
(1.87228e-06 0 0)
(1.87262e-06 0 0)
(1.87292e-06 0 0)
(1.87316e-06 0 0)
(1.87333e-06 0 0)
(1.87345e-06 0 0)
(1.87351e-06 0 0)
(1.87353e-06 0 0)
(1.87353e-06 0 0)
(1.8735e-06 0 0)
(1.87338e-06 0 0)
(1.87316e-06 0 0)
(1.87289e-06 0 0)
(1.87258e-06 0 0)
(1.87223e-06 0 0)
(1.87183e-06 0 0)
(1.87139e-06 0 0)
(1.87092e-06 0 0)
(1.87042e-06 0 0)
(1.86989e-06 0 0)
(1.86933e-06 0 0)
(1.86876e-06 0 0)
(1.86816e-06 0 0)
(1.86756e-06 0 0)
(1.86695e-06 0 0)
(1.86633e-06 0 0)
(1.86572e-06 0 0)
(1.8651e-06 0 0)
(1.8645e-06 0 0)
(1.86391e-06 0 0)
(1.86333e-06 0 0)
(1.86277e-06 0 0)
(1.86222e-06 0 0)
(1.86169e-06 0 0)
(1.86119e-06 0 0)
(1.86071e-06 0 0)
(1.86025e-06 0 0)
(1.85981e-06 0 0)
(1.8594e-06 0 0)
(1.85901e-06 0 0)
(1.85865e-06 0 0)
(1.8583e-06 0 0)
(1.85798e-06 0 0)
(1.85769e-06 0 0)
(1.85741e-06 0 0)
(1.85715e-06 0 0)
(1.8569e-06 0 0)
(1.85668e-06 0 0)
(1.85647e-06 0 0)
(1.85627e-06 0 0)
(1.85609e-06 0 0)
(1.85591e-06 0 0)
(1.85575e-06 0 0)
(1.85559e-06 0 0)
(1.85545e-06 0 0)
(1.8553e-06 0 0)
(1.85517e-06 0 0)
(1.85504e-06 0 0)
(1.85491e-06 0 0)
(1.85478e-06 0 0)
(1.85466e-06 0 0)
(1.85453e-06 0 0)
(1.85441e-06 0 0)
(1.85429e-06 0 0)
(1.85416e-06 0 0)
(1.85404e-06 0 0)
(1.85391e-06 0 0)
(1.85379e-06 0 0)
(1.85366e-06 0 0)
(1.85353e-06 0 0)
(1.8534e-06 0 0)
(1.85327e-06 0 0)
(1.85313e-06 0 0)
(1.853e-06 0 0)
(1.85286e-06 0 0)
(1.85272e-06 0 0)
(1.85258e-06 0 0)
(1.85244e-06 0 0)
(1.8523e-06 0 0)
(1.85216e-06 0 0)
(1.85202e-06 0 0)
(1.85188e-06 0 0)
(1.85174e-06 0 0)
(1.8516e-06 0 0)
(1.85146e-06 0 0)
(1.85132e-06 0 0)
(1.85118e-06 0 0)
(1.85104e-06 0 0)
(1.85091e-06 0 0)
(1.85077e-06 0 0)
(1.85064e-06 0 0)
(1.85051e-06 0 0)
(1.85039e-06 0 0)
(1.85026e-06 0 0)
(1.85014e-06 0 0)
(1.85002e-06 0 0)
(1.84991e-06 0 0)
(1.84979e-06 0 0)
(1.84968e-06 0 0)
(1.84958e-06 0 0)
(1.84947e-06 0 0)
(1.84937e-06 0 0)
(1.84928e-06 0 0)
(1.84919e-06 0 0)
(1.8491e-06 0 0)
(1.84901e-06 0 0)
(1.84893e-06 0 0)
(1.84886e-06 0 0)
(1.84878e-06 0 0)
(1.84872e-06 0 0)
(1.84865e-06 0 0)
(1.84859e-06 0 0)
(1.84854e-06 0 0)
(1.84849e-06 0 0)
(1.84844e-06 0 0)
(1.8484e-06 0 0)
(1.84836e-06 0 0)
(1.84832e-06 0 0)
(1.84829e-06 0 0)
(1.84827e-06 0 0)
(1.84825e-06 0 0)
(1.84823e-06 0 0)
(1.84822e-06 0 0)
(1.84821e-06 0 0)
(1.84821e-06 0 0)
(1.84821e-06 0 0)
(1.84821e-06 0 0)
(1.84821e-06 0 0)
(1.84822e-06 0 0)
(1.84824e-06 0 0)
(1.84826e-06 0 0)
(1.84828e-06 0 0)
(1.84831e-06 0 0)
(1.84834e-06 0 0)
(1.84837e-06 0 0)
(1.84841e-06 0 0)
(1.84845e-06 0 0)
(1.8485e-06 0 0)
(1.84855e-06 0 0)
(1.8486e-06 0 0)
(1.84866e-06 0 0)
(1.84872e-06 0 0)
(1.84878e-06 0 0)
(1.84885e-06 0 0)
(1.84892e-06 0 0)
(1.84899e-06 0 0)
(1.84907e-06 0 0)
(1.84916e-06 0 0)
(1.84924e-06 0 0)
(1.84934e-06 0 0)
(1.84943e-06 0 0)
(1.84953e-06 0 0)
(1.84964e-06 0 0)
(1.84975e-06 0 0)
(1.84987e-06 0 0)
(1.85e-06 0 0)
(1.85013e-06 0 0)
(1.85027e-06 0 0)
(1.85042e-06 0 0)
(1.85058e-06 0 0)
(1.85074e-06 0 0)
(1.85092e-06 0 0)
(1.85111e-06 0 0)
(1.85131e-06 0 0)
(1.85152e-06 0 0)
(1.85174e-06 0 0)
(1.85198e-06 0 0)
(1.85223e-06 0 0)
(1.8525e-06 0 0)
(1.85278e-06 0 0)
(1.85308e-06 0 0)
(1.8534e-06 0 0)
(1.85373e-06 0 0)
(1.85408e-06 0 0)
(1.85445e-06 0 0)
(1.85484e-06 0 0)
(1.85524e-06 0 0)
(1.85567e-06 0 0)
(1.85611e-06 0 0)
(1.85657e-06 0 0)
(1.85705e-06 0 0)
(1.85755e-06 0 0)
(1.85806e-06 0 0)
(1.85859e-06 0 0)
(1.85914e-06 0 0)
(1.8597e-06 0 0)
(1.86027e-06 0 0)
(1.86085e-06 0 0)
(1.86145e-06 0 0)
(1.86205e-06 0 0)
(1.86266e-06 0 0)
(1.86327e-06 0 0)
(1.86388e-06 0 0)
(1.8645e-06 0 0)
(1.86511e-06 0 0)
(1.86571e-06 0 0)
(1.86631e-06 0 0)
(1.86689e-06 0 0)
(1.86747e-06 0 0)
(1.86802e-06 0 0)
(1.86856e-06 0 0)
(1.86907e-06 0 0)
(1.86956e-06 0 0)
(1.87002e-06 0 0)
(1.87045e-06 0 0)
(1.87085e-06 0 0)
(1.87121e-06 0 0)
(1.87153e-06 0 0)
(1.87181e-06 0 0)
(1.87206e-06 0 0)
(1.87226e-06 0 0)
(1.87241e-06 0 0)
(1.87252e-06 0 0)
(1.87258e-06 0 0)
(1.8726e-06 0 0)
(1.87261e-06 0 0)
(1.8726e-06 0 0)
(1.87253e-06 0 0)
(1.87238e-06 0 0)
(1.87218e-06 0 0)
(1.87192e-06 0 0)
(1.87164e-06 0 0)
(1.87131e-06 0 0)
(1.87095e-06 0 0)
(1.87056e-06 0 0)
(1.87014e-06 0 0)
(1.86969e-06 0 0)
(1.86922e-06 0 0)
(1.86873e-06 0 0)
(1.86822e-06 0 0)
(1.8677e-06 0 0)
(1.86716e-06 0 0)
(1.86663e-06 0 0)
(1.86608e-06 0 0)
(1.86554e-06 0 0)
(1.865e-06 0 0)
(1.86446e-06 0 0)
(1.86393e-06 0 0)
(1.86341e-06 0 0)
(1.86289e-06 0 0)
(1.8624e-06 0 0)
(1.86191e-06 0 0)
(1.86144e-06 0 0)
(1.86099e-06 0 0)
(1.86055e-06 0 0)
(1.86013e-06 0 0)
(1.85973e-06 0 0)
(1.85935e-06 0 0)
(1.85899e-06 0 0)
(1.85864e-06 0 0)
(1.85831e-06 0 0)
(1.858e-06 0 0)
(1.8577e-06 0 0)
(1.85742e-06 0 0)
(1.85715e-06 0 0)
(1.8569e-06 0 0)
(1.85666e-06 0 0)
(1.85643e-06 0 0)
(1.85622e-06 0 0)
(1.85601e-06 0 0)
(1.85581e-06 0 0)
(1.85563e-06 0 0)
(1.85544e-06 0 0)
(1.85527e-06 0 0)
(1.8551e-06 0 0)
)
;

boundaryField
{
    inlet
    {
        type            fixedValue;
        value           uniform (2.74882e-06 0 0);
    }
    outlet
    {
        type            zeroGradient;
    }
    emptyWalls
    {
        type            empty;
    }
}


// ************************************************************************* //
