/*--------------------------------*- C++ -*----------------------------------*\
  =========                 |
  \\      /  F ield         | OpenFOAM: The Open Source CFD Toolbox
   \\    /   O peration     | Website:  https://openfoam.org
    \\  /    A nd           | Version:  9
     \\/     M anipulation  |
\*---------------------------------------------------------------------------*/
FoamFile
{
    format      ascii;
    class       volVectorField;
    location    "17450";
    object      Uc;
}
// * * * * * * * * * * * * * * * * * * * * * * * * * * * * * * * * * * * * * //

dimensions      [0 0 0 0 0 0 0];

internalField   nonuniform List<vector> 
1000
(
(8.95186e-12 0 0)
(4.74217e-11 0 0)
(1.31984e-10 0 0)
(2.65795e-10 0 0)
(4.46481e-10 0 0)
(6.73158e-10 0 0)
(9.452e-10 0 0)
(1.26159e-09 0 0)
(1.62031e-09 0 0)
(2.01806e-09 0 0)
(2.44954e-09 0 0)
(2.9074e-09 0 0)
(3.38211e-09 0 0)
(3.86216e-09 0 0)
(4.33526e-09 0 0)
(4.78932e-09 0 0)
(5.21412e-09 0 0)
(5.60284e-09 0 0)
(5.95511e-09 0 0)
(6.28937e-09 0 0)
(6.70609e-09 0 0)
(7.68269e-09 0 0)
(1.10698e-08 0 0)
(2.51218e-08 0 0)
(9.8908e-08 0 0)
(1.81047e-07 0 0)
(2.06391e-07 0 0)
(2.14472e-07 0 0)
(2.18485e-07 0 0)
(2.21159e-07 0 0)
(2.23256e-07 0 0)
(2.25051e-07 0 0)
(2.26665e-07 0 0)
(2.28157e-07 0 0)
(2.29562e-07 0 0)
(2.30899e-07 0 0)
(2.3218e-07 0 0)
(2.33415e-07 0 0)
(2.34611e-07 0 0)
(2.35772e-07 0 0)
(2.36903e-07 0 0)
(2.3801e-07 0 0)
(2.39097e-07 0 0)
(2.40168e-07 0 0)
(2.41227e-07 0 0)
(2.4228e-07 0 0)
(2.43329e-07 0 0)
(2.4438e-07 0 0)
(2.45436e-07 0 0)
(2.46502e-07 0 0)
(2.47582e-07 0 0)
(2.48692e-07 0 0)
(2.49841e-07 0 0)
(2.51024e-07 0 0)
(2.52239e-07 0 0)
(2.53488e-07 0 0)
(2.54776e-07 0 0)
(2.56111e-07 0 0)
(2.57503e-07 0 0)
(2.58965e-07 0 0)
(2.60517e-07 0 0)
(2.62185e-07 0 0)
(2.6401e-07 0 0)
(2.66047e-07 0 0)
(2.68365e-07 0 0)
(2.71046e-07 0 0)
(2.74163e-07 0 0)
(2.77757e-07 0 0)
(2.81809e-07 0 0)
(2.86245e-07 0 0)
(2.90971e-07 0 0)
(2.95908e-07 0 0)
(3.01003e-07 0 0)
(3.0622e-07 0 0)
(3.11533e-07 0 0)
(3.16923e-07 0 0)
(3.22378e-07 0 0)
(3.27885e-07 0 0)
(3.33439e-07 0 0)
(3.39031e-07 0 0)
(3.44656e-07 0 0)
(3.50307e-07 0 0)
(3.55979e-07 0 0)
(3.61667e-07 0 0)
(3.67368e-07 0 0)
(3.73081e-07 0 0)
(3.78807e-07 0 0)
(3.84546e-07 0 0)
(3.90302e-07 0 0)
(3.96074e-07 0 0)
(4.01864e-07 0 0)
(4.07673e-07 0 0)
(4.13502e-07 0 0)
(4.19352e-07 0 0)
(4.25227e-07 0 0)
(4.31129e-07 0 0)
(4.37061e-07 0 0)
(4.43026e-07 0 0)
(4.49024e-07 0 0)
(4.55058e-07 0 0)
(4.61125e-07 0 0)
(4.67225e-07 0 0)
(4.73353e-07 0 0)
(4.79506e-07 0 0)
(4.85679e-07 0 0)
(4.91868e-07 0 0)
(4.98069e-07 0 0)
(5.04277e-07 0 0)
(5.10489e-07 0 0)
(5.16704e-07 0 0)
(5.22919e-07 0 0)
(5.29135e-07 0 0)
(5.3535e-07 0 0)
(5.41567e-07 0 0)
(5.47786e-07 0 0)
(5.54008e-07 0 0)
(5.60235e-07 0 0)
(5.66469e-07 0 0)
(5.72711e-07 0 0)
(5.78961e-07 0 0)
(5.85223e-07 0 0)
(5.91495e-07 0 0)
(5.97779e-07 0 0)
(6.04076e-07 0 0)
(6.10385e-07 0 0)
(6.16706e-07 0 0)
(6.2304e-07 0 0)
(6.29386e-07 0 0)
(6.35744e-07 0 0)
(6.42114e-07 0 0)
(6.48495e-07 0 0)
(6.54887e-07 0 0)
(6.61289e-07 0 0)
(6.67702e-07 0 0)
(6.74125e-07 0 0)
(6.80558e-07 0 0)
(6.87e-07 0 0)
(6.93451e-07 0 0)
(6.99912e-07 0 0)
(7.06382e-07 0 0)
(7.12861e-07 0 0)
(7.19348e-07 0 0)
(7.25844e-07 0 0)
(7.32349e-07 0 0)
(7.38862e-07 0 0)
(7.45383e-07 0 0)
(7.51913e-07 0 0)
(7.58451e-07 0 0)
(7.64997e-07 0 0)
(7.71552e-07 0 0)
(7.78114e-07 0 0)
(7.84684e-07 0 0)
(7.91262e-07 0 0)
(7.97848e-07 0 0)
(8.04442e-07 0 0)
(8.11043e-07 0 0)
(8.17652e-07 0 0)
(8.24269e-07 0 0)
(8.30893e-07 0 0)
(8.37525e-07 0 0)
(8.44164e-07 0 0)
(8.5081e-07 0 0)
(8.57464e-07 0 0)
(8.64125e-07 0 0)
(8.70793e-07 0 0)
(8.77468e-07 0 0)
(8.84151e-07 0 0)
(8.90841e-07 0 0)
(8.97537e-07 0 0)
(9.04241e-07 0 0)
(9.10952e-07 0 0)
(9.17669e-07 0 0)
(9.24393e-07 0 0)
(9.31124e-07 0 0)
(9.37861e-07 0 0)
(9.44605e-07 0 0)
(9.51356e-07 0 0)
(9.58113e-07 0 0)
(9.64877e-07 0 0)
(9.71648e-07 0 0)
(9.78425e-07 0 0)
(9.85209e-07 0 0)
(9.92e-07 0 0)
(9.98798e-07 0 0)
(1.0056e-06 0 0)
(1.01241e-06 0 0)
(1.01923e-06 0 0)
(1.02606e-06 0 0)
(1.03289e-06 0 0)
(1.03973e-06 0 0)
(1.04657e-06 0 0)
(1.05343e-06 0 0)
(1.06028e-06 0 0)
(1.06715e-06 0 0)
(1.07402e-06 0 0)
(1.0809e-06 0 0)
(1.08778e-06 0 0)
(1.09467e-06 0 0)
(1.10157e-06 0 0)
(1.10848e-06 0 0)
(1.11539e-06 0 0)
(1.12231e-06 0 0)
(1.12923e-06 0 0)
(1.13616e-06 0 0)
(1.14309e-06 0 0)
(1.15002e-06 0 0)
(1.15695e-06 0 0)
(1.16388e-06 0 0)
(1.1708e-06 0 0)
(1.17772e-06 0 0)
(1.18464e-06 0 0)
(1.19155e-06 0 0)
(1.19845e-06 0 0)
(1.20535e-06 0 0)
(1.21225e-06 0 0)
(1.21914e-06 0 0)
(1.22603e-06 0 0)
(1.23291e-06 0 0)
(1.2398e-06 0 0)
(1.2467e-06 0 0)
(1.2536e-06 0 0)
(1.26051e-06 0 0)
(1.26743e-06 0 0)
(1.27438e-06 0 0)
(1.28134e-06 0 0)
(1.28832e-06 0 0)
(1.29533e-06 0 0)
(1.30237e-06 0 0)
(1.30945e-06 0 0)
(1.31655e-06 0 0)
(1.32369e-06 0 0)
(1.33086e-06 0 0)
(1.33807e-06 0 0)
(1.3453e-06 0 0)
(1.35257e-06 0 0)
(1.35985e-06 0 0)
(1.36716e-06 0 0)
(1.37449e-06 0 0)
(1.38182e-06 0 0)
(1.38917e-06 0 0)
(1.39652e-06 0 0)
(1.40388e-06 0 0)
(1.41123e-06 0 0)
(1.41858e-06 0 0)
(1.42593e-06 0 0)
(1.43327e-06 0 0)
(1.44061e-06 0 0)
(1.44793e-06 0 0)
(1.45525e-06 0 0)
(1.46257e-06 0 0)
(1.46988e-06 0 0)
(1.47719e-06 0 0)
(1.4845e-06 0 0)
(1.4918e-06 0 0)
(1.49911e-06 0 0)
(1.50642e-06 0 0)
(1.51373e-06 0 0)
(1.52104e-06 0 0)
(1.52837e-06 0 0)
(1.5357e-06 0 0)
(1.54303e-06 0 0)
(1.55038e-06 0 0)
(1.55773e-06 0 0)
(1.56509e-06 0 0)
(1.57246e-06 0 0)
(1.57985e-06 0 0)
(1.58724e-06 0 0)
(1.59464e-06 0 0)
(1.60204e-06 0 0)
(1.60946e-06 0 0)
(1.61689e-06 0 0)
(1.62433e-06 0 0)
(1.63177e-06 0 0)
(1.63922e-06 0 0)
(1.64669e-06 0 0)
(1.65416e-06 0 0)
(1.66164e-06 0 0)
(1.66912e-06 0 0)
(1.67661e-06 0 0)
(1.68412e-06 0 0)
(1.69163e-06 0 0)
(1.69914e-06 0 0)
(1.70666e-06 0 0)
(1.7142e-06 0 0)
(1.72173e-06 0 0)
(1.72928e-06 0 0)
(1.73683e-06 0 0)
(1.74439e-06 0 0)
(1.75195e-06 0 0)
(1.75953e-06 0 0)
(1.76711e-06 0 0)
(1.77469e-06 0 0)
(1.78229e-06 0 0)
(1.78989e-06 0 0)
(1.79749e-06 0 0)
(1.80511e-06 0 0)
(1.81273e-06 0 0)
(1.82035e-06 0 0)
(1.82799e-06 0 0)
(1.83563e-06 0 0)
(1.84328e-06 0 0)
(1.85093e-06 0 0)
(1.85859e-06 0 0)
(1.86626e-06 0 0)
(1.87393e-06 0 0)
(1.88162e-06 0 0)
(1.8893e-06 0 0)
(1.897e-06 0 0)
(1.9047e-06 0 0)
(1.91241e-06 0 0)
(1.92012e-06 0 0)
(1.92784e-06 0 0)
(1.93557e-06 0 0)
(1.94331e-06 0 0)
(1.95105e-06 0 0)
(1.9588e-06 0 0)
(1.96655e-06 0 0)
(1.97431e-06 0 0)
(1.98208e-06 0 0)
(1.98986e-06 0 0)
(1.99764e-06 0 0)
(2.00543e-06 0 0)
(2.01322e-06 0 0)
(2.02103e-06 0 0)
(2.02884e-06 0 0)
(2.03665e-06 0 0)
(2.04448e-06 0 0)
(2.05231e-06 0 0)
(2.06015e-06 0 0)
(2.06799e-06 0 0)
(2.07585e-06 0 0)
(2.08371e-06 0 0)
(2.09158e-06 0 0)
(2.09945e-06 0 0)
(2.10733e-06 0 0)
(2.11522e-06 0 0)
(2.12312e-06 0 0)
(2.13103e-06 0 0)
(2.13894e-06 0 0)
(2.14686e-06 0 0)
(2.15479e-06 0 0)
(2.16273e-06 0 0)
(2.17068e-06 0 0)
(2.17863e-06 0 0)
(2.18659e-06 0 0)
(2.19456e-06 0 0)
(2.20253e-06 0 0)
(2.21051e-06 0 0)
(2.21849e-06 0 0)
(2.22648e-06 0 0)
(2.23447e-06 0 0)
(2.24247e-06 0 0)
(2.25046e-06 0 0)
(2.25846e-06 0 0)
(2.26645e-06 0 0)
(2.27445e-06 0 0)
(2.28244e-06 0 0)
(2.29043e-06 0 0)
(2.29842e-06 0 0)
(2.3064e-06 0 0)
(2.31438e-06 0 0)
(2.32236e-06 0 0)
(2.33033e-06 0 0)
(2.3383e-06 0 0)
(2.34627e-06 0 0)
(2.35424e-06 0 0)
(2.36221e-06 0 0)
(2.37018e-06 0 0)
(2.37816e-06 0 0)
(2.38615e-06 0 0)
(2.39415e-06 0 0)
(2.40216e-06 0 0)
(2.41019e-06 0 0)
(2.41824e-06 0 0)
(2.4263e-06 0 0)
(2.4344e-06 0 0)
(2.44252e-06 0 0)
(2.45067e-06 0 0)
(2.45885e-06 0 0)
(2.46707e-06 0 0)
(2.47532e-06 0 0)
(2.48362e-06 0 0)
(2.49194e-06 0 0)
(2.50031e-06 0 0)
(2.50872e-06 0 0)
(2.51716e-06 0 0)
(2.52563e-06 0 0)
(2.53414e-06 0 0)
(2.54268e-06 0 0)
(2.55125e-06 0 0)
(2.55984e-06 0 0)
(2.56845e-06 0 0)
(2.57708e-06 0 0)
(2.58573e-06 0 0)
(2.59439e-06 0 0)
(2.60305e-06 0 0)
(2.61172e-06 0 0)
(2.6204e-06 0 0)
(2.62908e-06 0 0)
(2.63776e-06 0 0)
(2.64644e-06 0 0)
(2.65511e-06 0 0)
(2.66379e-06 0 0)
(2.67246e-06 0 0)
(2.68114e-06 0 0)
(2.68981e-06 0 0)
(2.69847e-06 0 0)
(2.70714e-06 0 0)
(2.71581e-06 0 0)
(2.72449e-06 0 0)
(2.73316e-06 0 0)
(2.74184e-06 0 0)
(2.75053e-06 0 0)
(2.75922e-06 0 0)
(2.76792e-06 0 0)
(2.77662e-06 0 0)
(2.78534e-06 0 0)
(2.79407e-06 0 0)
(2.80281e-06 0 0)
(2.81156e-06 0 0)
(2.82032e-06 0 0)
(2.8291e-06 0 0)
(2.83789e-06 0 0)
(2.84669e-06 0 0)
(2.85551e-06 0 0)
(2.86434e-06 0 0)
(2.87318e-06 0 0)
(2.88204e-06 0 0)
(2.89091e-06 0 0)
(2.8998e-06 0 0)
(2.9087e-06 0 0)
(2.91761e-06 0 0)
(2.92654e-06 0 0)
(2.93548e-06 0 0)
(2.94444e-06 0 0)
(2.95341e-06 0 0)
(2.96239e-06 0 0)
(2.97139e-06 0 0)
(2.9804e-06 0 0)
(2.98942e-06 0 0)
(2.99846e-06 0 0)
(3.00751e-06 0 0)
(3.01657e-06 0 0)
(3.02565e-06 0 0)
(3.03473e-06 0 0)
(3.04384e-06 0 0)
(3.05295e-06 0 0)
(3.06208e-06 0 0)
(3.07122e-06 0 0)
(3.08037e-06 0 0)
(3.08953e-06 0 0)
(3.09871e-06 0 0)
(3.1079e-06 0 0)
(3.11711e-06 0 0)
(3.12632e-06 0 0)
(3.13555e-06 0 0)
(3.14479e-06 0 0)
(3.15405e-06 0 0)
(3.16332e-06 0 0)
(3.1726e-06 0 0)
(3.18189e-06 0 0)
(3.1912e-06 0 0)
(3.20052e-06 0 0)
(3.20986e-06 0 0)
(3.2192e-06 0 0)
(3.22856e-06 0 0)
(3.23794e-06 0 0)
(3.24733e-06 0 0)
(3.25673e-06 0 0)
(3.26614e-06 0 0)
(3.27557e-06 0 0)
(3.28501e-06 0 0)
(3.29447e-06 0 0)
(3.30394e-06 0 0)
(3.31342e-06 0 0)
(3.32292e-06 0 0)
(3.33243e-06 0 0)
(3.34196e-06 0 0)
(3.3515e-06 0 0)
(3.36105e-06 0 0)
(3.37062e-06 0 0)
(3.38021e-06 0 0)
(3.3898e-06 0 0)
(3.39942e-06 0 0)
(3.40905e-06 0 0)
(3.41869e-06 0 0)
(3.42835e-06 0 0)
(3.43803e-06 0 0)
(3.44772e-06 0 0)
(3.45742e-06 0 0)
(3.46715e-06 0 0)
(3.47689e-06 0 0)
(3.48664e-06 0 0)
(3.49641e-06 0 0)
(3.5062e-06 0 0)
(3.516e-06 0 0)
(3.52582e-06 0 0)
(3.53566e-06 0 0)
(3.54552e-06 0 0)
(3.55539e-06 0 0)
(3.56528e-06 0 0)
(3.57519e-06 0 0)
(3.58511e-06 0 0)
(3.59505e-06 0 0)
(3.60501e-06 0 0)
(3.61499e-06 0 0)
(3.62498e-06 0 0)
(3.63499e-06 0 0)
(3.64501e-06 0 0)
(3.65506e-06 0 0)
(3.66512e-06 0 0)
(3.67519e-06 0 0)
(3.68528e-06 0 0)
(3.69538e-06 0 0)
(3.7055e-06 0 0)
(3.71563e-06 0 0)
(3.72578e-06 0 0)
(3.73593e-06 0 0)
(3.7461e-06 0 0)
(3.75628e-06 0 0)
(3.76647e-06 0 0)
(3.77667e-06 0 0)
(3.78688e-06 0 0)
(3.7971e-06 0 0)
(3.80732e-06 0 0)
(3.81756e-06 0 0)
(3.82781e-06 0 0)
(3.83806e-06 0 0)
(3.84833e-06 0 0)
(3.85861e-06 0 0)
(3.8689e-06 0 0)
(3.8792e-06 0 0)
(3.88952e-06 0 0)
(3.89985e-06 0 0)
(3.9102e-06 0 0)
(3.92057e-06 0 0)
(3.93096e-06 0 0)
(3.94138e-06 0 0)
(3.95182e-06 0 0)
(3.96229e-06 0 0)
(3.97279e-06 0 0)
(3.98333e-06 0 0)
(3.9939e-06 0 0)
(4.00451e-06 0 0)
(4.01516e-06 0 0)
(4.02586e-06 0 0)
(4.0366e-06 0 0)
(4.0474e-06 0 0)
(4.05824e-06 0 0)
(4.06914e-06 0 0)
(4.08009e-06 0 0)
(4.09109e-06 0 0)
(4.10215e-06 0 0)
(4.11327e-06 0 0)
(4.12445e-06 0 0)
(4.13568e-06 0 0)
(4.14697e-06 0 0)
(4.15831e-06 0 0)
(4.1697e-06 0 0)
(4.18114e-06 0 0)
(4.19264e-06 0 0)
(4.20418e-06 0 0)
(4.21576e-06 0 0)
(4.22739e-06 0 0)
(4.23905e-06 0 0)
(4.25076e-06 0 0)
(4.26249e-06 0 0)
(4.27426e-06 0 0)
(4.28606e-06 0 0)
(4.29789e-06 0 0)
(4.30974e-06 0 0)
(4.32162e-06 0 0)
(4.33352e-06 0 0)
(4.34545e-06 0 0)
(4.3574e-06 0 0)
(4.36936e-06 0 0)
(4.38135e-06 0 0)
(4.39337e-06 0 0)
(4.4054e-06 0 0)
(4.41746e-06 0 0)
(4.42953e-06 0 0)
(4.44164e-06 0 0)
(4.45376e-06 0 0)
(4.46592e-06 0 0)
(4.4781e-06 0 0)
(4.4903e-06 0 0)
(4.50254e-06 0 0)
(4.51481e-06 0 0)
(4.52711e-06 0 0)
(4.53945e-06 0 0)
(4.55181e-06 0 0)
(4.56422e-06 0 0)
(4.57666e-06 0 0)
(4.58914e-06 0 0)
(4.60165e-06 0 0)
(4.61421e-06 0 0)
(4.62681e-06 0 0)
(4.63945e-06 0 0)
(4.65213e-06 0 0)
(4.66486e-06 0 0)
(4.67763e-06 0 0)
(4.69044e-06 0 0)
(4.7033e-06 0 0)
(4.71621e-06 0 0)
(4.72916e-06 0 0)
(4.74216e-06 0 0)
(4.75521e-06 0 0)
(4.76831e-06 0 0)
(4.78145e-06 0 0)
(4.79464e-06 0 0)
(4.80788e-06 0 0)
(4.82117e-06 0 0)
(4.83451e-06 0 0)
(4.8479e-06 0 0)
(4.86134e-06 0 0)
(4.87483e-06 0 0)
(4.88838e-06 0 0)
(4.90197e-06 0 0)
(4.91562e-06 0 0)
(4.92932e-06 0 0)
(4.94307e-06 0 0)
(4.95687e-06 0 0)
(4.97073e-06 0 0)
(4.98464e-06 0 0)
(4.9986e-06 0 0)
(5.01262e-06 0 0)
(5.0267e-06 0 0)
(5.04083e-06 0 0)
(5.05501e-06 0 0)
(5.06925e-06 0 0)
(5.08354e-06 0 0)
(5.09789e-06 0 0)
(5.11229e-06 0 0)
(5.12675e-06 0 0)
(5.14127e-06 0 0)
(5.15584e-06 0 0)
(5.17046e-06 0 0)
(5.18514e-06 0 0)
(5.19987e-06 0 0)
(5.21465e-06 0 0)
(5.22948e-06 0 0)
(5.24436e-06 0 0)
(5.25929e-06 0 0)
(5.27427e-06 0 0)
(5.28928e-06 0 0)
(5.30433e-06 0 0)
(5.31942e-06 0 0)
(5.33454e-06 0 0)
(5.34968e-06 0 0)
(5.36484e-06 0 0)
(5.38001e-06 0 0)
(5.39518e-06 0 0)
(5.41033e-06 0 0)
(5.42546e-06 0 0)
(5.44055e-06 0 0)
(5.45558e-06 0 0)
(5.47054e-06 0 0)
(5.48539e-06 0 0)
(5.50012e-06 0 0)
(5.51469e-06 0 0)
(5.52907e-06 0 0)
(5.54323e-06 0 0)
(5.55713e-06 0 0)
(5.57073e-06 0 0)
(5.58397e-06 0 0)
(5.59683e-06 0 0)
(5.60924e-06 0 0)
(5.62117e-06 0 0)
(5.63258e-06 0 0)
(5.64342e-06 0 0)
(5.65365e-06 0 0)
(5.66325e-06 0 0)
(5.67218e-06 0 0)
(5.68043e-06 0 0)
(5.688e-06 0 0)
(5.69488e-06 0 0)
(5.70109e-06 0 0)
(5.70664e-06 0 0)
(5.71155e-06 0 0)
(5.71585e-06 0 0)
(5.71959e-06 0 0)
(5.72282e-06 0 0)
(5.72558e-06 0 0)
(5.72792e-06 0 0)
(5.7299e-06 0 0)
(5.73159e-06 0 0)
(5.73306e-06 0 0)
(5.73445e-06 0 0)
(5.73591e-06 0 0)
(5.7377e-06 0 0)
(5.74024e-06 0 0)
(5.74431e-06 0 0)
(5.75126e-06 0 0)
(5.76343e-06 0 0)
(5.78497e-06 0 0)
(5.82306e-06 0 0)
(5.88976e-06 0 0)
(6.00425e-06 0 0)
(6.1941e-06 0 0)
(6.49147e-06 0 0)
(6.91853e-06 0 0)
(7.46151e-06 0 0)
(8.05395e-06 0 0)
(8.59903e-06 0 0)
(9.02326e-06 0 0)
(9.30926e-06 0 0)
(9.48231e-06 0 0)
(9.57976e-06 0 0)
(9.63225e-06 0 0)
(9.65974e-06 0 0)
(9.67387e-06 0 0)
(9.68096e-06 0 0)
(9.68439e-06 0 0)
(9.68592e-06 0 0)
(9.68647e-06 0 0)
(9.68651e-06 0 0)
(9.68627e-06 0 0)
(9.68589e-06 0 0)
(9.68544e-06 0 0)
(9.68495e-06 0 0)
(9.68442e-06 0 0)
(9.68389e-06 0 0)
(9.68335e-06 0 0)
(9.68281e-06 0 0)
(9.68228e-06 0 0)
(9.68175e-06 0 0)
(9.68122e-06 0 0)
(9.68072e-06 0 0)
(9.68022e-06 0 0)
(9.67975e-06 0 0)
(9.67929e-06 0 0)
(9.67886e-06 0 0)
(9.67846e-06 0 0)
(9.67809e-06 0 0)
(9.67775e-06 0 0)
(9.67744e-06 0 0)
(9.67717e-06 0 0)
(9.67695e-06 0 0)
(9.67676e-06 0 0)
(9.67663e-06 0 0)
(9.67654e-06 0 0)
(9.67649e-06 0 0)
(9.67648e-06 0 0)
(9.67649e-06 0 0)
(9.67652e-06 0 0)
(9.67662e-06 0 0)
(9.6768e-06 0 0)
(9.67702e-06 0 0)
(9.67727e-06 0 0)
(9.67756e-06 0 0)
(9.67788e-06 0 0)
(9.67823e-06 0 0)
(9.6786e-06 0 0)
(9.67901e-06 0 0)
(9.67944e-06 0 0)
(9.67988e-06 0 0)
(9.68035e-06 0 0)
(9.68082e-06 0 0)
(9.68131e-06 0 0)
(9.6818e-06 0 0)
(9.68229e-06 0 0)
(9.68278e-06 0 0)
(9.68327e-06 0 0)
(9.68376e-06 0 0)
(9.68423e-06 0 0)
(9.6847e-06 0 0)
(9.68515e-06 0 0)
(9.68559e-06 0 0)
(9.68601e-06 0 0)
(9.68642e-06 0 0)
(9.6868e-06 0 0)
(9.68717e-06 0 0)
(9.68752e-06 0 0)
(9.68786e-06 0 0)
(9.68817e-06 0 0)
(9.68846e-06 0 0)
(9.68874e-06 0 0)
(9.689e-06 0 0)
(9.68924e-06 0 0)
(9.68947e-06 0 0)
(9.68968e-06 0 0)
(9.68987e-06 0 0)
(9.69006e-06 0 0)
(9.69023e-06 0 0)
(9.69039e-06 0 0)
(9.69054e-06 0 0)
(9.69068e-06 0 0)
(9.69081e-06 0 0)
(9.69094e-06 0 0)
(9.69106e-06 0 0)
(9.69117e-06 0 0)
(9.69128e-06 0 0)
(9.69139e-06 0 0)
(9.69149e-06 0 0)
(9.69159e-06 0 0)
(9.69169e-06 0 0)
(9.69179e-06 0 0)
(9.69189e-06 0 0)
(9.69199e-06 0 0)
(9.69209e-06 0 0)
(9.69219e-06 0 0)
(9.69229e-06 0 0)
(9.69239e-06 0 0)
(9.69249e-06 0 0)
(9.69259e-06 0 0)
(9.6927e-06 0 0)
(9.6928e-06 0 0)
(9.69291e-06 0 0)
(9.69301e-06 0 0)
(9.69312e-06 0 0)
(9.69323e-06 0 0)
(9.69334e-06 0 0)
(9.69345e-06 0 0)
(9.69356e-06 0 0)
(9.69367e-06 0 0)
(9.69378e-06 0 0)
(9.69389e-06 0 0)
(9.694e-06 0 0)
(9.69411e-06 0 0)
(9.69422e-06 0 0)
(9.69432e-06 0 0)
(9.69443e-06 0 0)
(9.69454e-06 0 0)
(9.69464e-06 0 0)
(9.69474e-06 0 0)
(9.69485e-06 0 0)
(9.69495e-06 0 0)
(9.69504e-06 0 0)
(9.69514e-06 0 0)
(9.69523e-06 0 0)
(9.69532e-06 0 0)
(9.69541e-06 0 0)
(9.6955e-06 0 0)
(9.69558e-06 0 0)
(9.69566e-06 0 0)
(9.69574e-06 0 0)
(9.69582e-06 0 0)
(9.69589e-06 0 0)
(9.69596e-06 0 0)
(9.69603e-06 0 0)
(9.69609e-06 0 0)
(9.69616e-06 0 0)
(9.69621e-06 0 0)
(9.69627e-06 0 0)
(9.69632e-06 0 0)
(9.69637e-06 0 0)
(9.69642e-06 0 0)
(9.69646e-06 0 0)
(9.6965e-06 0 0)
(9.69653e-06 0 0)
(9.69656e-06 0 0)
(9.69659e-06 0 0)
(9.69662e-06 0 0)
(9.69664e-06 0 0)
(9.69666e-06 0 0)
(9.69668e-06 0 0)
(9.69669e-06 0 0)
(9.6967e-06 0 0)
(9.6967e-06 0 0)
(9.69671e-06 0 0)
(9.69671e-06 0 0)
(9.69671e-06 0 0)
(9.6967e-06 0 0)
(9.6967e-06 0 0)
(9.69668e-06 0 0)
(9.69667e-06 0 0)
(9.69665e-06 0 0)
(9.69663e-06 0 0)
(9.6966e-06 0 0)
(9.69658e-06 0 0)
(9.69655e-06 0 0)
(9.69651e-06 0 0)
(9.69648e-06 0 0)
(9.69644e-06 0 0)
(9.6964e-06 0 0)
(9.69635e-06 0 0)
(9.6963e-06 0 0)
(9.69625e-06 0 0)
(9.6962e-06 0 0)
(9.69615e-06 0 0)
(9.69609e-06 0 0)
(9.69603e-06 0 0)
(9.69596e-06 0 0)
(9.69589e-06 0 0)
(9.69582e-06 0 0)
(9.69574e-06 0 0)
(9.69566e-06 0 0)
(9.69558e-06 0 0)
(9.69549e-06 0 0)
(9.6954e-06 0 0)
(9.6953e-06 0 0)
(9.6952e-06 0 0)
(9.69509e-06 0 0)
(9.69497e-06 0 0)
(9.69485e-06 0 0)
(9.69472e-06 0 0)
(9.69458e-06 0 0)
(9.69443e-06 0 0)
(9.69428e-06 0 0)
(9.69411e-06 0 0)
(9.69394e-06 0 0)
(9.69376e-06 0 0)
(9.69356e-06 0 0)
(9.69335e-06 0 0)
(9.69313e-06 0 0)
(9.6929e-06 0 0)
(9.69265e-06 0 0)
(9.69239e-06 0 0)
(9.69212e-06 0 0)
(9.69183e-06 0 0)
(9.69152e-06 0 0)
(9.6912e-06 0 0)
(9.69087e-06 0 0)
(9.69051e-06 0 0)
(9.69015e-06 0 0)
(9.68977e-06 0 0)
(9.68937e-06 0 0)
(9.68896e-06 0 0)
(9.68854e-06 0 0)
(9.68811e-06 0 0)
(9.68766e-06 0 0)
(9.68721e-06 0 0)
(9.68674e-06 0 0)
(9.68627e-06 0 0)
(9.68579e-06 0 0)
(9.6853e-06 0 0)
(9.68482e-06 0 0)
(9.68433e-06 0 0)
(9.68384e-06 0 0)
(9.68336e-06 0 0)
(9.68288e-06 0 0)
(9.68241e-06 0 0)
(9.68194e-06 0 0)
(9.68149e-06 0 0)
(9.68105e-06 0 0)
(9.68063e-06 0 0)
(9.68022e-06 0 0)
(9.67984e-06 0 0)
(9.67947e-06 0 0)
(9.67913e-06 0 0)
(9.67882e-06 0 0)
(9.67854e-06 0 0)
(9.67828e-06 0 0)
(9.67806e-06 0 0)
(9.67787e-06 0 0)
(9.67772e-06 0 0)
(9.67759e-06 0 0)
(9.67751e-06 0 0)
(9.67746e-06 0 0)
(9.67745e-06 0 0)
(9.67744e-06 0 0)
(9.67746e-06 0 0)
(9.67751e-06 0 0)
(9.67763e-06 0 0)
(9.67779e-06 0 0)
(9.67799e-06 0 0)
(9.67822e-06 0 0)
(9.67848e-06 0 0)
(9.67876e-06 0 0)
(9.67907e-06 0 0)
(9.67941e-06 0 0)
(9.67976e-06 0 0)
(9.68013e-06 0 0)
(9.68052e-06 0 0)
(9.68092e-06 0 0)
(9.68133e-06 0 0)
(9.68175e-06 0 0)
(9.68218e-06 0 0)
(9.68261e-06 0 0)
(9.68303e-06 0 0)
(9.68346e-06 0 0)
(9.68389e-06 0 0)
(9.68431e-06 0 0)
(9.68472e-06 0 0)
(9.68512e-06 0 0)
(9.68551e-06 0 0)
(9.6859e-06 0 0)
(9.68627e-06 0 0)
(9.68663e-06 0 0)
(9.68697e-06 0 0)
(9.6873e-06 0 0)
(9.68762e-06 0 0)
(9.68792e-06 0 0)
(9.68821e-06 0 0)
(9.68848e-06 0 0)
(9.68874e-06 0 0)
(9.68899e-06 0 0)
(9.68922e-06 0 0)
(9.68945e-06 0 0)
(9.68966e-06 0 0)
(9.68986e-06 0 0)
(9.69004e-06 0 0)
(9.69022e-06 0 0)
(9.6904e-06 0 0)
(9.69056e-06 0 0)
(9.69071e-06 0 0)
(9.69086e-06 0 0)
(9.69101e-06 0 0)
(9.69114e-06 0 0)
(9.69128e-06 0 0)
)
;

boundaryField
{
    inlet
    {
        type            fixedValue;
        value           uniform (0 0 0);
    }
    outlet
    {
        type            zeroGradient;
    }
    emptyWalls
    {
        type            empty;
    }
}


// ************************************************************************* //
