/*--------------------------------*- C++ -*----------------------------------*\
  =========                 |
  \\      /  F ield         | OpenFOAM: The Open Source CFD Toolbox
   \\    /   O peration     | Website:  https://openfoam.org
    \\  /    A nd           | Version:  9
     \\/     M anipulation  |
\*---------------------------------------------------------------------------*/
FoamFile
{
    format      ascii;
    class       volScalarField;
    location    "23650";
    object      p;
}
// * * * * * * * * * * * * * * * * * * * * * * * * * * * * * * * * * * * * * //

dimensions      [0 0 0 0 0 0 0];

internalField   nonuniform List<scalar> 
1000
(
175217
174791
174368
173946
173526
173109
172693
172279
171868
171458
171051
170645
170242
169840
169441
169044
168648
168255
167863
167474
167086
166699
166314
165931
165548
165167
164786
164407
164028
163650
163274
162902
162546
162248
162107
162011
161922
161835
161750
161665
161581
161497
161413
161329
161246
161163
161080
160997
160915
160832
160750
160668
160585
160503
160421
160339
160257
160176
160094
160012
159930
159849
159767
159685
159604
159522
159440
159359
159277
159195
159114
159032
158951
158869
158787
158706
158624
158542
158460
158379
158297
158215
158133
158051
157969
157887
157805
157722
157640
157558
157475
157392
157309
157226
157143
157060
156976
156892
156808
156723
156639
156554
156468
156383
156297
156211
156124
156038
155951
155864
155776
155688
155600
155512
155423
155335
155245
155156
155066
154976
154886
154796
154705
154614
154523
154432
154340
154248
154156
154063
153971
153878
153784
153691
153597
153503
153409
153315
153220
153125
153030
152934
152838
152742
152646
152550
152453
152356
152259
152161
152064
151966
151868
151769
151670
151572
151472
151373
151273
151174
151073
150973
150873
150772
150671
150569
150468
150366
150264
150162
150059
149957
149854
149751
149647
149544
149440
149336
149232
149127
149022
148917
148812
148707
148601
148495
148389
148283
148176
148070
147963
147855
147748
147640
147532
147424
147316
147207
147099
146990
146881
146771
146661
146552
146442
146331
146221
146110
145999
145888
145777
145665
145554
145442
145330
145217
145105
144992
144879
144766
144653
144539
144426
144312
144197
144083
143968
143854
143739
143623
143508
143392
143276
143160
143044
142927
142810
142693
142576
142459
142341
142223
142105
141987
141868
141750
141631
141512
141392
141273
141153
141033
140913
140793
140672
140551
140430
140309
140188
140066
139944
139822
139700
139578
139455
139332
139209
139086
138963
138839
138715
138591
138467
138343
138218
138093
137968
137843
137718
137592
137466
137340
137214
137088
136961
136834
136707
136580
136453
136325
136197
136070
135941
135813
135684
135556
135427
135298
135168
135039
134909
134779
134649
134519
134388
134257
134127
133996
133864
133733
133601
133469
133337
133205
133073
132940
132807
132674
132541
132408
132274
132141
132007
131873
131738
131604
131469
131334
131199
131064
130929
130793
130657
130521
130385
130249
130112
129976
129839
129702
129564
129427
129289
129151
129014
128875
128737
128599
128460
128321
128182
128043
127904
127764
127624
127484
127344
127204
127064
126923
126783
126642
126501
126359
126218
126076
125934
125792
125650
125508
125365
125222
125079
124936
124793
124649
124506
124362
124218
124073
123929
123784
123639
123494
123349
123204
123058
122912
122766
122620
122474
122327
122181
122034
121887
121740
121592
121445
121297
121149
121001
120852
120704
120555
120406
120257
120108
119959
119809
119659
119509
119359
119209
119059
118908
118757
118606
118455
118304
118152
118000
117849
117696
117544
117392
117239
117086
116933
116780
116627
116474
116320
116166
116012
115858
115703
115549
115394
115239
115084
114929
114774
114618
114462
114306
114150
113994
113838
113681
113524
113367
113210
113053
112895
112737
112580
112422
112263
112105
111947
111788
111629
111470
111311
111151
110992
110832
110672
110512
110352
110191
110031
109870
109709
109548
109387
109225
109064
108902
108740
108578
108416
108253
108091
107928
107765
107602
107438
107275
107111
106948
106784
106620
106455
106291
106126
105962
105797
105632
105466
105301
105135
104970
104804
104638
104472
104305
104139
103972
103805
103638
103471
103304
103136
102969
102801
102633
102465
102297
102128
101960
101791
101622
101453
101283
101114
100944
100774
100604
100434
100264
100093
99922.5
99751.6
99580.6
99409.3
99237.9
99066.3
98894.5
98722.6
98550.4
98378.1
98205.6
98033
97860.2
97687.2
97514
97340.7
97167.2
96993.5
96819.6
96645.6
96471.4
96297.1
96122.6
95947.9
95773
95598
95422.8
95247.4
95071.9
94896.1
94720.3
94544.2
94368
94191.6
94015.1
93838.4
93661.5
93484.4
93307.2
93129.8
92952.2
92774.5
92596.6
92418.5
92240.3
92061.9
91883.3
91704.6
91525.7
91346.6
91167.3
90987.9
90808.3
90628.6
90448.7
90268.6
90088.3
89907.9
89727.3
89546.5
89365.6
89184.5
89003.3
88821.8
88640.2
88458.5
88276.5
88094.4
87912.2
87729.7
87547.1
87364.4
87181.4
86998.3
86815.1
86631.6
86448
86264.3
86080.3
85896.2
85712
85527.5
85342.9
85158.2
84973.3
84788.2
84602.9
84417.5
84231.9
84046.1
83860.2
83674.1
83487.9
83301.5
83114.9
82928.1
82741.2
82554.1
82366.9
82179.5
81991.9
81804.2
81616.3
81428.2
81240
81051.6
80863
80674.3
80485.4
80296.4
80107.2
79917.8
79728.2
79538.5
79348.7
79158.6
78968.4
78778.1
78587.6
78396.9
78206
78015
77823.9
77632.5
77441.1
77249.4
77057.6
76865.6
76673.5
76481.3
76288.8
76096.2
75903.5
75710.6
75517.5
75324.3
75130.9
74937.4
74743.7
74549.9
74355.9
74161.7
73967.4
73773
73578.4
73383.6
73188.6
72993.5
72798.3
72602.9
72407.3
72211.6
72015.7
71819.6
71623.3
71426.9
71230.4
71033.6
70836.7
70639.7
70442.4
70245
70047.4
69849.6
69651.7
69453.6
69255.3
69056.8
68858.2
68659.3
68460.3
68261.2
68061.8
67862.3
67662.6
67462.7
67262.7
67062.4
66862
66661.5
66460.7
66259.8
66058.7
65857.4
65655.9
65454.3
65252.5
65050.6
64848.4
64646.1
64443.6
64240.9
64038.1
63835.1
63631.9
63428.6
63225.1
63021.4
62817.5
62613.5
62409.3
62204.9
62000.4
61795.6
61590.7
61385.7
61180.4
60975
60769.4
60563.7
60357.8
60151.7
59945.4
59738.9
59532.3
59325.5
59118.6
58911.4
58704.1
58496.6
58288.9
58081.1
57873.1
57664.9
57456.6
57248
57039.3
56830.4
56621.4
56412.2
56202.8
55993.2
55783.4
55573.5
55363.4
55153.1
54942.7
54732.1
54521.3
54310.3
54099.1
53887.8
53676.3
53464.6
53252.8
53040.8
52828.6
52616.2
52403.6
52190.9
51978
51764.9
51551.7
51338.3
51124.7
50910.9
50696.9
50482.8
50268.5
50054
49839.4
49624.5
49409.5
49194.3
48979
48763.4
48547.7
48331.8
48115.8
47899.5
47683.1
47466.5
47249.7
47032.8
46815.6
46598.3
46380.8
46163.2
45945.3
45727.3
45509.1
45290.7
45072.2
44853.4
44634.5
44415.4
44196.2
43976.7
43757.1
43537.3
43317.3
43097.2
42876.8
42656.3
42435.6
42214.7
41993.7
41772.5
41551
41329.5
41107.7
40885.8
40663.6
40441.4
40218.9
39996.2
39773.4
39550.4
39327.2
39103.9
38880.4
38656.7
38432.8
38208.7
37984.5
37760.1
37535.5
37310.7
37085.8
36860.7
36635.4
36409.9
36184.2
35958.4
35732.4
35506.2
35279.8
35053.2
34826.4
34599.5
34372.4
34145.1
33917.6
33689.9
33462
33233.9
33005.7
32777.2
32548.5
32319.7
32090.6
31861.4
31632
31402.3
31172.5
30942.4
30712.2
30481.8
30251.1
30020.3
29789.2
29558
29326.5
29094.9
28863
28630.9
28398.7
28166.2
27933.6
27700.7
27467.7
27234.4
27001
26767.4
26533.5
26299.5
26065.3
25831
25596.4
25361.7
25126.8
24891.8
24656.6
24421.2
24185.7
23950.1
23714.3
23478.4
23242.3
23006.2
22770
22533.6
22297.2
22060.6
21824
21587.4
21350.6
21113.8
20877
20640.1
20403.2
20166.2
19929.2
19692.2
19455.1
19218.1
18981
18743.9
18506.8
18269.7
18032.5
17795.4
17558.3
17321.1
17084
16846.8
16609.6
16372.4
16135.1
15897.8
15660.4
15422.8
15184.8
14946.1
14706.4
14464.7
14220.1
13971
13715.9
13454.2
13186.3
12913.9
12638.8
12362.3
12085.1
11807.6
11529.9
11252.2
10974.4
10696.6
10418.7
10140.9
9863.09
9585.26
9307.43
9029.59
8751.76
8473.92
8196.08
7918.25
7640.41
7362.57
7084.73
6806.89
6529.05
6251.22
5973.38
5695.54
5417.7
5139.86
4862.02
4584.19
4306.35
4028.51
3750.68
3472.84
3195.01
2917.18
2639.34
2361.51
2083.68
1805.85
1528.03
1250.2
972.375
694.552
416.73
138.909
)
;

boundaryField
{
    inlet
    {
        type            darcyGradPressure;
        gradient        uniform 116344;
        Mf              Mf;
        phi             phi;
        value           uniform 175430;
    }
    outlet
    {
        type            fixedValue;
        value           uniform 0;
    }
    emptyWalls
    {
        type            empty;
    }
}


// ************************************************************************* //
