/*--------------------------------*- C++ -*----------------------------------*\
  =========                 |
  \\      /  F ield         | OpenFOAM: The Open Source CFD Toolbox
   \\    /   O peration     | Website:  https://openfoam.org
    \\  /    A nd           | Version:  9
     \\/     M anipulation  |
\*---------------------------------------------------------------------------*/
FoamFile
{
    format      ascii;
    class       volVectorField;
    location    "121000";
    object      Uc;
}
// * * * * * * * * * * * * * * * * * * * * * * * * * * * * * * * * * * * * * //

dimensions      [0 0 0 0 0 0 0];

internalField   nonuniform List<vector> 
100
(
(0 0 0)
(-1.69407e-21 0 0)
(0 0 0)
(0 0 0)
(0 0 0)
(-1.69407e-21 0 0)
(3.38813e-21 0 0)
(-1.69407e-21 0 0)
(-1.69407e-21 0 0)
(0 0 0)
(-3.38813e-21 0 0)
(-3.38813e-21 0 0)
(1.69407e-21 0 0)
(0 0 0)
(0 0 0)
(0 0 0)
(0 0 0)
(0 0 0)
(-1.69407e-21 0 0)
(0 0 0)
(1.69407e-21 0 0)
(1.69407e-21 0 0)
(0 0 0)
(1.69407e-21 0 0)
(0 0 0)
(-5.0822e-21 0 0)
(-1.69407e-21 0 0)
(0 0 0)
(-1.69407e-21 0 0)
(1.69407e-21 0 0)
(0 0 0)
(-5.0822e-21 0 0)
(-3.38813e-21 0 0)
(-1.69407e-21 0 0)
(1.69407e-21 0 0)
(-1.69407e-21 0 0)
(0 0 0)
(-3.38813e-21 0 0)
(-3.38813e-21 0 0)
(-3.38813e-21 0 0)
(-1.69407e-21 0 0)
(-3.38813e-21 0 0)
(-1.69407e-21 0 0)
(0 0 0)
(0 0 0)
(0 0 0)
(-1.69407e-21 0 0)
(3.38813e-21 0 0)
(0 0 0)
(-5.0822e-21 0 0)
(-3.38813e-21 0 0)
(-1.69407e-21 0 0)
(-5.0822e-21 0 0)
(-3.38813e-21 0 0)
(-3.38813e-21 0 0)
(3.38813e-21 0 0)
(0 0 0)
(-3.38813e-21 0 0)
(1.69407e-21 0 0)
(0 0 0)
(0 0 0)
(0 0 0)
(1.69407e-21 0 0)
(-5.0822e-21 0 0)
(1.69407e-21 0 0)
(-1.69407e-21 0 0)
(0 0 0)
(-3.38813e-21 0 0)
(-1.69407e-21 0 0)
(-1.69407e-21 0 0)
(3.38813e-21 0 0)
(0 0 0)
(-1.69407e-21 0 0)
(-1.69407e-21 0 0)
(3.38813e-21 0 0)
(1.69407e-21 0 0)
(-1.69407e-21 0 0)
(-3.38813e-21 0 0)
(-1.69407e-21 0 0)
(0 0 0)
(0 0 0)
(-1.69407e-21 0 0)
(-1.69407e-21 0 0)
(-1.69407e-21 0 0)
(0 0 0)
(-1.69407e-21 0 0)
(0 0 0)
(1.69407e-21 0 0)
(1.69407e-21 0 0)
(0 0 0)
(-3.38813e-21 0 0)
(-1.69407e-21 0 0)
(5.0822e-21 0 0)
(3.38813e-21 0 0)
(0 0 0)
(-1.69407e-21 0 0)
(9.82558e-20 0 0)
(2.03288e-19 0 0)
(1.11808e-19 0 0)
(1.86347e-20 0 0)
)
;

boundaryField
{
    inlet
    {
        type            fixedValue;
        value           uniform (0 0 0);
    }
    outlet
    {
        type            zeroGradient;
    }
    emptyWalls
    {
        type            empty;
    }
}


// ************************************************************************* //
