/*--------------------------------*- C++ -*----------------------------------*\
  =========                 |
  \\      /  F ield         | OpenFOAM: The Open Source CFD Toolbox
   \\    /   O peration     | Website:  https://openfoam.org
    \\  /    A nd           | Version:  9
     \\/     M anipulation  |
\*---------------------------------------------------------------------------*/
FoamFile
{
    format      ascii;
    class       volScalarField;
    location    "25200";
    object      p;
}
// * * * * * * * * * * * * * * * * * * * * * * * * * * * * * * * * * * * * * //

dimensions      [0 0 0 0 0 0 0];

internalField   nonuniform List<scalar> 
1000
(
169121
168695
168271
167849
167429
167011
166595
166180
165767
165357
164948
164541
164136
163733
163332
162933
162535
162140
161746
161355
160964
160576
160189
159804
159420
159037
158655
158274
157894
157515
157137
156759
156382
156009
155647
155327
155148
155045
154956
154869
154783
154698
154614
154529
154445
154362
154278
154195
154112
154029
153946
153864
153781
153699
153617
153535
153452
153370
153288
153207
153125
153043
152961
152879
152798
152716
152634
152553
152471
152389
152308
152226
152144
152063
151981
151900
151818
151736
151655
151573
151491
151410
151328
151246
151164
151082
151000
150919
150837
150755
150672
150590
150508
150426
150343
150261
150178
150095
150012
149929
149846
149762
149678
149594
149510
149426
149341
149256
149170
149085
148999
148913
148827
148740
148654
148567
148480
148392
148304
148216
148128
148040
147951
147862
147773
147684
147594
147505
147415
147324
147234
147143
147052
146961
146869
146778
146686
146593
146501
146408
146315
146222
146128
146035
145941
145846
145752
145657
145562
145467
145372
145276
145180
145084
144988
144891
144794
144697
144600
144503
144405
144307
144209
144111
144012
143913
143814
143715
143615
143516
143416
143315
143215
143114
143014
142913
142811
142710
142608
142506
142404
142301
142199
142096
141993
141890
141786
141682
141579
141474
141370
141265
141161
141056
140950
140845
140739
140634
140528
140421
140315
140208
140101
139994
139887
139779
139671
139564
139455
139347
139238
139130
139021
138912
138802
138693
138583
138473
138363
138252
138141
138031
137920
137808
137697
137585
137474
137361
137249
137137
137024
136911
136798
136685
136572
136458
136344
136230
136116
136002
135887
135772
135657
135542
135427
135311
135196
135080
134964
134848
134731
134614
134498
134381
134264
134146
134029
133911
133793
133675
133556
133438
133319
133200
133081
132962
132842
132722
132602
132482
132362
132241
132120
132000
131878
131757
131635
131514
131392
131270
131147
131025
130902
130779
130656
130533
130409
130286
130162
130038
129914
129789
129665
129540
129415
129290
129165
129039
128913
128787
128661
128535
128409
128282
128155
128028
127901
127774
127646
127518
127390
127262
127134
127005
126877
126748
126619
126490
126360
126231
126101
125971
125841
125710
125580
125449
125318
125187
125056
124925
124793
124661
124529
124397
124265
124132
124000
123867
123734
123601
123467
123334
123200
123066
122932
122798
122663
122529
122394
122259
122124
121989
121853
121717
121582
121446
121309
121173
121037
120900
120763
120626
120489
120351
120214
120076
119938
119800
119662
119523
119385
119246
119107
118968
118829
118689
118549
118410
118270
118130
117989
117849
117708
117568
117427
117286
117144
117003
116861
116720
116578
116436
116294
116151
116009
115866
115723
115580
115437
115294
115150
115007
114863
114719
114574
114430
114285
114141
113996
113851
113705
113560
113414
113268
113122
112976
112830
112683
112537
112390
112243
112095
111948
111800
111653
111505
111357
111208
111060
110911
110763
110614
110465
110315
110166
110016
109867
109717
109567
109416
109266
109115
108965
108814
108662
108511
108360
108208
108056
107904
107752
107600
107448
107295
107142
106989
106836
106683
106530
106376
106222
106068
105914
105760
105605
105451
105296
105141
104986
104831
104675
104520
104364
104208
104052
103896
103739
103583
103426
103269
103112
102955
102798
102640
102482
102324
102166
102008
101850
101691
101533
101374
101215
101056
100896
100737
100577
100417
100258
100097
99937.1
99776.7
99616
99455.3
99294.4
99133.3
98972
98810.6
98649.1
98487.3
98325.5
98163.4
98001.2
97838.9
97676.4
97513.7
97350.9
97187.9
97024.7
96861.4
96698
96534.3
96370.6
96206.6
96042.6
95878.3
95713.9
95549.4
95384.7
95219.8
95054.8
94889.7
94724.4
94559
94393.4
94227.6
94061.7
93895.7
93729.5
93563.2
93396.7
93230.1
93063.3
92896.3
92729.3
92562
92394.7
92227.1
92059.5
91891.6
91723.7
91555.5
91387.2
91218.8
91050.2
90881.4
90712.5
90543.4
90374.1
90204.7
90035.1
89865.4
89695.5
89525.4
89355.2
89184.8
89014.2
88843.4
88672.5
88501.5
88330.2
88158.8
87987.3
87815.5
87643.6
87471.6
87299.3
87127
86954.4
86781.7
86608.8
86435.8
86262.6
86089.2
85915.7
85742
85568.2
85394.2
85220
85045.7
84871.3
84696.6
84521.8
84346.9
84171.8
83996.5
83821.1
83645.5
83469.7
83293.8
83117.8
82941.6
82765.2
82588.6
82412
82235.1
82058.1
81880.9
81703.6
81526.1
81348.5
81170.7
80992.7
80814.6
80636.3
80457.8
80279.3
80100.5
79921.6
79742.5
79563.3
79383.9
79204.4
79024.7
78844.8
78664.8
78484.6
78304.3
78123.8
77943.1
77762.3
77581.4
77400.2
77219
77037.5
76855.9
76674.2
76492.3
76310.2
76128
75945.6
75763.1
75580.4
75397.6
75214.6
75031.4
74848.1
74664.6
74481
74297.3
74113.3
73929.2
73745
73560.6
73376
73191.3
73006.5
72821.4
72636.3
72450.9
72265.4
72079.8
71894
71708.1
71522
71335.7
71149.3
70962.7
70776
70589.1
70402.1
70214.9
70027.6
69840.1
69652.4
69464.6
69276.7
69088.6
68900.3
68711.9
68523.3
68334.6
68145.7
67956.7
67767.5
67578.2
67388.7
67199.1
67009.3
66819.4
66629.3
66439.1
66248.7
66058.2
65867.5
65676.7
65485.7
65294.6
65103.3
64911.9
64720.4
64528.7
64336.8
64144.8
63952.7
63760.4
63568
63375.4
63182.7
62989.8
62796.8
62603.7
62410.4
62216.9
62023.3
61829.5
61635.6
61441.6
61247.4
61053
60858.5
60663.8
60469
60274
60078.8
59883.5
59688
59492.4
59296.6
59100.7
58904.6
58708.3
58511.8
58315.2
58118.4
57921.5
57724.4
57527.1
57329.7
57132.1
56934.3
56736.4
56538.3
56340.1
56141.6
55943
55744.3
55545.4
55346.3
55147.1
54947.7
54748.1
54548.4
54348.5
54148.4
53948.2
53747.8
53547.3
53346.6
53145.7
52944.7
52743.5
52542.2
52340.7
52139
51937.2
51735.2
51533.1
51330.8
51128.3
50925.7
50722.9
50519.9
50316.8
50113.6
49910.1
49706.5
49502.8
49298.9
49094.8
48890.5
48686.1
48481.6
48276.9
48072
47866.9
47661.7
47456.3
47250.8
47045.1
46839.3
46633.2
46427
46220.7
46014.2
45807.5
45600.7
45393.7
45186.5
44979.2
44771.7
44564.1
44356.3
44148.3
43940.2
43731.9
43523.5
43314.8
43106.1
42897.1
42688
42478.7
42269.3
42059.7
41850
41640.1
41430
41219.7
41009.3
40798.8
40588
40377.1
40166.1
39954.9
39743.5
39531.9
39320.2
39108.4
38896.3
38684.1
38471.8
38259.2
38046.6
37833.7
37620.7
37407.5
37194.2
36980.7
36767
36553.2
36339.2
36125
35910.7
35696.2
35481.6
35266.7
35051.8
34836.6
34621.3
34405.8
34190.2
33974.4
33758.5
33542.3
33326
33109.6
32893
32676.2
32459.2
32242.1
32024.9
31807.4
31589.8
31372.1
31154.1
30936
30717.8
30499.4
30280.8
30062.1
29843.2
29624.1
29404.9
29185.5
28966
28746.3
28526.4
28306.4
28086.2
27865.9
27645.4
27424.7
27203.9
26982.9
26761.7
26540.4
26319
26097.3
25875.5
25653.5
25431.4
25209.1
24986.6
24764
24541.2
24318.2
24095.1
23871.7
23648.2
23424.6
23200.7
22976.7
22752.5
22528.2
22303.6
22078.9
21854
21628.9
21403.6
21178.2
20952.6
20726.7
20500.7
20274.5
20048.2
19821.6
19594.9
19367.9
19140.8
18913.5
18686
18458.3
18230.4
18002.4
17774.1
17545.7
17317
17088.2
16859.2
16630
16400.6
16171.1
15941.3
15711.4
15481.2
15250.9
15020.4
14789.7
14558.8
14327.8
14096.5
13865.1
13633.4
13401.6
13169.6
12937.4
12705
12472.5
12239.8
12006.8
11773.7
11540.5
11307
11073.4
10839.6
10605.6
10371.4
10137.1
9902.59
9667.93
9433.11
9198.14
8963.01
8727.73
8492.3
8256.74
8021.04
7785.22
7549.27
7313.2
7077.02
6840.74
6604.36
6367.89
6131.34
5894.71
5658.01
5421.24
5184.42
4947.54
4710.62
4473.65
4236.65
3999.62
3762.56
3525.47
3288.36
3051.24
2814.1
2576.94
2339.78
2102.61
1865.42
1628.23
1391.04
1153.84
916.634
679.422
442.203
204.964
)
;

boundaryField
{
    inlet
    {
        type            darcyGradPressure;
        gradient        uniform 116344;
        Mf              Mf;
        phi             phi;
        value           uniform 169334;
    }
    outlet
    {
        type            fixedValue;
        value           uniform 0;
    }
    emptyWalls
    {
        type            empty;
    }
}


// ************************************************************************* //
