/*--------------------------------*- C++ -*----------------------------------*\
  =========                 |
  \\      /  F ield         | OpenFOAM: The Open Source CFD Toolbox
   \\    /   O peration     | Website:  https://openfoam.org
    \\  /    A nd           | Version:  9
     \\/     M anipulation  |
\*---------------------------------------------------------------------------*/
FoamFile
{
    format      ascii;
    class       volVectorField;
    location    "25200";
    object      Uc;
}
// * * * * * * * * * * * * * * * * * * * * * * * * * * * * * * * * * * * * * //

dimensions      [0 0 0 0 0 0 0];

internalField   nonuniform List<vector> 
1000
(
(4.0873e-12 0 0)
(2.09236e-11 0 0)
(5.81415e-11 0 0)
(1.18299e-10 0 0)
(2.00678e-10 0 0)
(3.0501e-10 0 0)
(4.31272e-10 0 0)
(5.79536e-10 0 0)
(7.49897e-10 0 0)
(9.4245e-10 0 0)
(1.15717e-09 0 0)
(1.39391e-09 0 0)
(1.65227e-09 0 0)
(1.93161e-09 0 0)
(2.23084e-09 0 0)
(2.54843e-09 0 0)
(2.88225e-09 0 0)
(3.22935e-09 0 0)
(3.58627e-09 0 0)
(3.94856e-09 0 0)
(4.31132e-09 0 0)
(4.66922e-09 0 0)
(5.01674e-09 0 0)
(5.34887e-09 0 0)
(5.66124e-09 0 0)
(5.95062e-09 0 0)
(6.21514e-09 0 0)
(6.45428e-09 0 0)
(6.66909e-09 0 0)
(6.86378e-09 0 0)
(7.05429e-09 0 0)
(7.30996e-09 0 0)
(7.94403e-09 0 0)
(1.02018e-08 0 0)
(1.93201e-08 0 0)
(6.78183e-08 0 0)
(1.51537e-07 0 0)
(2.01629e-07 0 0)
(2.11865e-07 0 0)
(2.16063e-07 0 0)
(2.18608e-07 0 0)
(2.20507e-07 0 0)
(2.22081e-07 0 0)
(2.23442e-07 0 0)
(2.24665e-07 0 0)
(2.25765e-07 0 0)
(2.26776e-07 0 0)
(2.27748e-07 0 0)
(2.28687e-07 0 0)
(2.296e-07 0 0)
(2.30492e-07 0 0)
(2.31366e-07 0 0)
(2.32222e-07 0 0)
(2.33063e-07 0 0)
(2.33888e-07 0 0)
(2.34699e-07 0 0)
(2.35497e-07 0 0)
(2.36284e-07 0 0)
(2.3706e-07 0 0)
(2.37827e-07 0 0)
(2.38586e-07 0 0)
(2.39339e-07 0 0)
(2.40086e-07 0 0)
(2.40828e-07 0 0)
(2.41567e-07 0 0)
(2.42304e-07 0 0)
(2.43041e-07 0 0)
(2.43778e-07 0 0)
(2.44517e-07 0 0)
(2.45257e-07 0 0)
(2.46002e-07 0 0)
(2.46752e-07 0 0)
(2.47509e-07 0 0)
(2.48276e-07 0 0)
(2.49061e-07 0 0)
(2.49861e-07 0 0)
(2.50673e-07 0 0)
(2.51497e-07 0 0)
(2.52335e-07 0 0)
(2.53188e-07 0 0)
(2.54057e-07 0 0)
(2.54944e-07 0 0)
(2.5585e-07 0 0)
(2.56779e-07 0 0)
(2.57732e-07 0 0)
(2.58712e-07 0 0)
(2.59725e-07 0 0)
(2.60775e-07 0 0)
(2.61868e-07 0 0)
(2.63014e-07 0 0)
(2.64224e-07 0 0)
(2.65512e-07 0 0)
(2.66901e-07 0 0)
(2.68415e-07 0 0)
(2.70089e-07 0 0)
(2.71959e-07 0 0)
(2.74062e-07 0 0)
(2.76429e-07 0 0)
(2.79069e-07 0 0)
(2.81966e-07 0 0)
(2.85078e-07 0 0)
(2.88359e-07 0 0)
(2.91766e-07 0 0)
(2.95271e-07 0 0)
(2.98853e-07 0 0)
(3.02496e-07 0 0)
(3.0619e-07 0 0)
(3.09924e-07 0 0)
(3.13692e-07 0 0)
(3.17489e-07 0 0)
(3.2131e-07 0 0)
(3.2515e-07 0 0)
(3.29007e-07 0 0)
(3.32875e-07 0 0)
(3.36751e-07 0 0)
(3.40633e-07 0 0)
(3.4452e-07 0 0)
(3.48411e-07 0 0)
(3.52309e-07 0 0)
(3.56214e-07 0 0)
(3.6013e-07 0 0)
(3.64056e-07 0 0)
(3.67993e-07 0 0)
(3.71942e-07 0 0)
(3.75903e-07 0 0)
(3.79879e-07 0 0)
(3.8387e-07 0 0)
(3.87879e-07 0 0)
(3.91908e-07 0 0)
(3.95958e-07 0 0)
(4.00031e-07 0 0)
(4.04127e-07 0 0)
(4.08245e-07 0 0)
(4.12384e-07 0 0)
(4.16541e-07 0 0)
(4.20714e-07 0 0)
(4.249e-07 0 0)
(4.29096e-07 0 0)
(4.33298e-07 0 0)
(4.37505e-07 0 0)
(4.41713e-07 0 0)
(4.45923e-07 0 0)
(4.50133e-07 0 0)
(4.54341e-07 0 0)
(4.58549e-07 0 0)
(4.62755e-07 0 0)
(4.66962e-07 0 0)
(4.7117e-07 0 0)
(4.75379e-07 0 0)
(4.79591e-07 0 0)
(4.83806e-07 0 0)
(4.88026e-07 0 0)
(4.92251e-07 0 0)
(4.96482e-07 0 0)
(5.0072e-07 0 0)
(5.04964e-07 0 0)
(5.09215e-07 0 0)
(5.13473e-07 0 0)
(5.17739e-07 0 0)
(5.22011e-07 0 0)
(5.26291e-07 0 0)
(5.30577e-07 0 0)
(5.3487e-07 0 0)
(5.3917e-07 0 0)
(5.43475e-07 0 0)
(5.47787e-07 0 0)
(5.52105e-07 0 0)
(5.56428e-07 0 0)
(5.60757e-07 0 0)
(5.65091e-07 0 0)
(5.69431e-07 0 0)
(5.73776e-07 0 0)
(5.78126e-07 0 0)
(5.82481e-07 0 0)
(5.86841e-07 0 0)
(5.91205e-07 0 0)
(5.95575e-07 0 0)
(5.99949e-07 0 0)
(6.04328e-07 0 0)
(6.08711e-07 0 0)
(6.13099e-07 0 0)
(6.17492e-07 0 0)
(6.21889e-07 0 0)
(6.2629e-07 0 0)
(6.30695e-07 0 0)
(6.35105e-07 0 0)
(6.3952e-07 0 0)
(6.43938e-07 0 0)
(6.48361e-07 0 0)
(6.52787e-07 0 0)
(6.57218e-07 0 0)
(6.61653e-07 0 0)
(6.66093e-07 0 0)
(6.70536e-07 0 0)
(6.74983e-07 0 0)
(6.79434e-07 0 0)
(6.83889e-07 0 0)
(6.88347e-07 0 0)
(6.9281e-07 0 0)
(6.97276e-07 0 0)
(7.01745e-07 0 0)
(7.06218e-07 0 0)
(7.10695e-07 0 0)
(7.15176e-07 0 0)
(7.1966e-07 0 0)
(7.24149e-07 0 0)
(7.28641e-07 0 0)
(7.33137e-07 0 0)
(7.37637e-07 0 0)
(7.4214e-07 0 0)
(7.46648e-07 0 0)
(7.51159e-07 0 0)
(7.55674e-07 0 0)
(7.60193e-07 0 0)
(7.64714e-07 0 0)
(7.69239e-07 0 0)
(7.73767e-07 0 0)
(7.78299e-07 0 0)
(7.82833e-07 0 0)
(7.87371e-07 0 0)
(7.91913e-07 0 0)
(7.96458e-07 0 0)
(8.01008e-07 0 0)
(8.05562e-07 0 0)
(8.1012e-07 0 0)
(8.14683e-07 0 0)
(8.1925e-07 0 0)
(8.23821e-07 0 0)
(8.28395e-07 0 0)
(8.32972e-07 0 0)
(8.3755e-07 0 0)
(8.42128e-07 0 0)
(8.46705e-07 0 0)
(8.5128e-07 0 0)
(8.55852e-07 0 0)
(8.60419e-07 0 0)
(8.64982e-07 0 0)
(8.6954e-07 0 0)
(8.74093e-07 0 0)
(8.78639e-07 0 0)
(8.83181e-07 0 0)
(8.87719e-07 0 0)
(8.92253e-07 0 0)
(8.96784e-07 0 0)
(9.01315e-07 0 0)
(9.05845e-07 0 0)
(9.10379e-07 0 0)
(9.14917e-07 0 0)
(9.19461e-07 0 0)
(9.24015e-07 0 0)
(9.28579e-07 0 0)
(9.33157e-07 0 0)
(9.37751e-07 0 0)
(9.42363e-07 0 0)
(9.46993e-07 0 0)
(9.51644e-07 0 0)
(9.56316e-07 0 0)
(9.61008e-07 0 0)
(9.65722e-07 0 0)
(9.70455e-07 0 0)
(9.75207e-07 0 0)
(9.79976e-07 0 0)
(9.84758e-07 0 0)
(9.89553e-07 0 0)
(9.94357e-07 0 0)
(9.99167e-07 0 0)
(1.00398e-06 0 0)
(1.0088e-06 0 0)
(1.01362e-06 0 0)
(1.01843e-06 0 0)
(1.02324e-06 0 0)
(1.02805e-06 0 0)
(1.03286e-06 0 0)
(1.03766e-06 0 0)
(1.04245e-06 0 0)
(1.04724e-06 0 0)
(1.05203e-06 0 0)
(1.05681e-06 0 0)
(1.0616e-06 0 0)
(1.06638e-06 0 0)
(1.07116e-06 0 0)
(1.07594e-06 0 0)
(1.08072e-06 0 0)
(1.0855e-06 0 0)
(1.09028e-06 0 0)
(1.09507e-06 0 0)
(1.09986e-06 0 0)
(1.10466e-06 0 0)
(1.10945e-06 0 0)
(1.11426e-06 0 0)
(1.11907e-06 0 0)
(1.12388e-06 0 0)
(1.12869e-06 0 0)
(1.13351e-06 0 0)
(1.13834e-06 0 0)
(1.14317e-06 0 0)
(1.148e-06 0 0)
(1.15284e-06 0 0)
(1.15768e-06 0 0)
(1.16253e-06 0 0)
(1.16738e-06 0 0)
(1.17224e-06 0 0)
(1.17709e-06 0 0)
(1.18195e-06 0 0)
(1.18682e-06 0 0)
(1.19169e-06 0 0)
(1.19656e-06 0 0)
(1.20143e-06 0 0)
(1.20631e-06 0 0)
(1.21119e-06 0 0)
(1.21607e-06 0 0)
(1.22096e-06 0 0)
(1.22585e-06 0 0)
(1.23074e-06 0 0)
(1.23564e-06 0 0)
(1.24053e-06 0 0)
(1.24543e-06 0 0)
(1.25034e-06 0 0)
(1.25524e-06 0 0)
(1.26015e-06 0 0)
(1.26506e-06 0 0)
(1.26997e-06 0 0)
(1.27489e-06 0 0)
(1.27981e-06 0 0)
(1.28473e-06 0 0)
(1.28965e-06 0 0)
(1.29458e-06 0 0)
(1.29951e-06 0 0)
(1.30444e-06 0 0)
(1.30938e-06 0 0)
(1.31431e-06 0 0)
(1.31925e-06 0 0)
(1.32419e-06 0 0)
(1.32914e-06 0 0)
(1.33408e-06 0 0)
(1.33903e-06 0 0)
(1.34398e-06 0 0)
(1.34893e-06 0 0)
(1.35389e-06 0 0)
(1.35885e-06 0 0)
(1.36381e-06 0 0)
(1.36878e-06 0 0)
(1.37374e-06 0 0)
(1.37871e-06 0 0)
(1.38368e-06 0 0)
(1.38866e-06 0 0)
(1.39364e-06 0 0)
(1.39862e-06 0 0)
(1.4036e-06 0 0)
(1.40859e-06 0 0)
(1.41357e-06 0 0)
(1.41856e-06 0 0)
(1.42356e-06 0 0)
(1.42855e-06 0 0)
(1.43355e-06 0 0)
(1.43856e-06 0 0)
(1.44356e-06 0 0)
(1.44857e-06 0 0)
(1.45358e-06 0 0)
(1.4586e-06 0 0)
(1.46361e-06 0 0)
(1.46863e-06 0 0)
(1.47366e-06 0 0)
(1.47868e-06 0 0)
(1.48371e-06 0 0)
(1.48874e-06 0 0)
(1.49377e-06 0 0)
(1.4988e-06 0 0)
(1.50383e-06 0 0)
(1.50885e-06 0 0)
(1.51388e-06 0 0)
(1.5189e-06 0 0)
(1.52391e-06 0 0)
(1.52893e-06 0 0)
(1.53393e-06 0 0)
(1.53893e-06 0 0)
(1.54393e-06 0 0)
(1.54892e-06 0 0)
(1.55391e-06 0 0)
(1.55888e-06 0 0)
(1.56386e-06 0 0)
(1.56883e-06 0 0)
(1.5738e-06 0 0)
(1.57877e-06 0 0)
(1.58373e-06 0 0)
(1.5887e-06 0 0)
(1.59367e-06 0 0)
(1.59865e-06 0 0)
(1.60363e-06 0 0)
(1.60862e-06 0 0)
(1.61363e-06 0 0)
(1.61864e-06 0 0)
(1.62367e-06 0 0)
(1.62872e-06 0 0)
(1.63378e-06 0 0)
(1.63887e-06 0 0)
(1.64397e-06 0 0)
(1.6491e-06 0 0)
(1.65425e-06 0 0)
(1.65941e-06 0 0)
(1.6646e-06 0 0)
(1.66981e-06 0 0)
(1.67504e-06 0 0)
(1.68029e-06 0 0)
(1.68555e-06 0 0)
(1.69083e-06 0 0)
(1.69612e-06 0 0)
(1.70142e-06 0 0)
(1.70673e-06 0 0)
(1.71204e-06 0 0)
(1.71736e-06 0 0)
(1.72268e-06 0 0)
(1.72801e-06 0 0)
(1.73333e-06 0 0)
(1.73865e-06 0 0)
(1.74396e-06 0 0)
(1.74928e-06 0 0)
(1.75459e-06 0 0)
(1.75989e-06 0 0)
(1.76519e-06 0 0)
(1.77049e-06 0 0)
(1.77579e-06 0 0)
(1.78108e-06 0 0)
(1.78637e-06 0 0)
(1.79166e-06 0 0)
(1.79694e-06 0 0)
(1.80223e-06 0 0)
(1.80751e-06 0 0)
(1.8128e-06 0 0)
(1.81809e-06 0 0)
(1.82338e-06 0 0)
(1.82867e-06 0 0)
(1.83397e-06 0 0)
(1.83927e-06 0 0)
(1.84457e-06 0 0)
(1.84987e-06 0 0)
(1.85518e-06 0 0)
(1.8605e-06 0 0)
(1.86582e-06 0 0)
(1.87114e-06 0 0)
(1.87647e-06 0 0)
(1.8818e-06 0 0)
(1.88714e-06 0 0)
(1.89248e-06 0 0)
(1.89783e-06 0 0)
(1.90318e-06 0 0)
(1.90853e-06 0 0)
(1.91389e-06 0 0)
(1.91926e-06 0 0)
(1.92463e-06 0 0)
(1.93e-06 0 0)
(1.93537e-06 0 0)
(1.94075e-06 0 0)
(1.94614e-06 0 0)
(1.95152e-06 0 0)
(1.95691e-06 0 0)
(1.96231e-06 0 0)
(1.9677e-06 0 0)
(1.97311e-06 0 0)
(1.97851e-06 0 0)
(1.98392e-06 0 0)
(1.98933e-06 0 0)
(1.99474e-06 0 0)
(2.00016e-06 0 0)
(2.00558e-06 0 0)
(2.011e-06 0 0)
(2.01643e-06 0 0)
(2.02186e-06 0 0)
(2.02729e-06 0 0)
(2.03272e-06 0 0)
(2.03816e-06 0 0)
(2.0436e-06 0 0)
(2.04905e-06 0 0)
(2.0545e-06 0 0)
(2.05995e-06 0 0)
(2.0654e-06 0 0)
(2.07085e-06 0 0)
(2.07631e-06 0 0)
(2.08177e-06 0 0)
(2.08724e-06 0 0)
(2.09271e-06 0 0)
(2.09818e-06 0 0)
(2.10365e-06 0 0)
(2.10912e-06 0 0)
(2.1146e-06 0 0)
(2.12009e-06 0 0)
(2.12557e-06 0 0)
(2.13106e-06 0 0)
(2.13655e-06 0 0)
(2.14204e-06 0 0)
(2.14754e-06 0 0)
(2.15304e-06 0 0)
(2.15855e-06 0 0)
(2.16405e-06 0 0)
(2.16956e-06 0 0)
(2.17508e-06 0 0)
(2.1806e-06 0 0)
(2.18612e-06 0 0)
(2.19164e-06 0 0)
(2.19717e-06 0 0)
(2.2027e-06 0 0)
(2.20823e-06 0 0)
(2.21377e-06 0 0)
(2.21931e-06 0 0)
(2.22486e-06 0 0)
(2.2304e-06 0 0)
(2.23596e-06 0 0)
(2.24151e-06 0 0)
(2.24707e-06 0 0)
(2.25263e-06 0 0)
(2.2582e-06 0 0)
(2.26377e-06 0 0)
(2.26934e-06 0 0)
(2.27491e-06 0 0)
(2.28049e-06 0 0)
(2.28607e-06 0 0)
(2.29164e-06 0 0)
(2.29722e-06 0 0)
(2.3028e-06 0 0)
(2.30838e-06 0 0)
(2.31395e-06 0 0)
(2.31953e-06 0 0)
(2.3251e-06 0 0)
(2.33066e-06 0 0)
(2.33623e-06 0 0)
(2.34179e-06 0 0)
(2.34735e-06 0 0)
(2.3529e-06 0 0)
(2.35845e-06 0 0)
(2.36399e-06 0 0)
(2.36953e-06 0 0)
(2.37506e-06 0 0)
(2.3806e-06 0 0)
(2.38613e-06 0 0)
(2.39166e-06 0 0)
(2.39719e-06 0 0)
(2.40271e-06 0 0)
(2.40824e-06 0 0)
(2.41378e-06 0 0)
(2.41932e-06 0 0)
(2.42486e-06 0 0)
(2.43041e-06 0 0)
(2.43598e-06 0 0)
(2.44155e-06 0 0)
(2.44713e-06 0 0)
(2.45273e-06 0 0)
(2.45835e-06 0 0)
(2.46398e-06 0 0)
(2.46964e-06 0 0)
(2.47531e-06 0 0)
(2.481e-06 0 0)
(2.48672e-06 0 0)
(2.49245e-06 0 0)
(2.49821e-06 0 0)
(2.504e-06 0 0)
(2.5098e-06 0 0)
(2.51563e-06 0 0)
(2.52148e-06 0 0)
(2.52734e-06 0 0)
(2.53323e-06 0 0)
(2.53914e-06 0 0)
(2.54506e-06 0 0)
(2.55099e-06 0 0)
(2.55694e-06 0 0)
(2.5629e-06 0 0)
(2.56887e-06 0 0)
(2.57484e-06 0 0)
(2.58082e-06 0 0)
(2.58681e-06 0 0)
(2.5928e-06 0 0)
(2.59879e-06 0 0)
(2.60479e-06 0 0)
(2.61078e-06 0 0)
(2.61678e-06 0 0)
(2.62277e-06 0 0)
(2.62876e-06 0 0)
(2.63475e-06 0 0)
(2.64074e-06 0 0)
(2.64672e-06 0 0)
(2.65271e-06 0 0)
(2.65869e-06 0 0)
(2.66468e-06 0 0)
(2.67066e-06 0 0)
(2.67664e-06 0 0)
(2.68263e-06 0 0)
(2.68861e-06 0 0)
(2.6946e-06 0 0)
(2.70059e-06 0 0)
(2.70658e-06 0 0)
(2.71257e-06 0 0)
(2.71857e-06 0 0)
(2.72457e-06 0 0)
(2.73058e-06 0 0)
(2.73659e-06 0 0)
(2.74261e-06 0 0)
(2.74863e-06 0 0)
(2.75466e-06 0 0)
(2.76069e-06 0 0)
(2.76673e-06 0 0)
(2.77278e-06 0 0)
(2.77883e-06 0 0)
(2.78489e-06 0 0)
(2.79095e-06 0 0)
(2.79702e-06 0 0)
(2.8031e-06 0 0)
(2.80918e-06 0 0)
(2.81527e-06 0 0)
(2.82137e-06 0 0)
(2.82747e-06 0 0)
(2.83357e-06 0 0)
(2.83969e-06 0 0)
(2.8458e-06 0 0)
(2.85193e-06 0 0)
(2.85806e-06 0 0)
(2.86419e-06 0 0)
(2.87033e-06 0 0)
(2.87648e-06 0 0)
(2.88263e-06 0 0)
(2.88879e-06 0 0)
(2.89495e-06 0 0)
(2.90112e-06 0 0)
(2.90729e-06 0 0)
(2.91347e-06 0 0)
(2.91965e-06 0 0)
(2.92584e-06 0 0)
(2.93203e-06 0 0)
(2.93823e-06 0 0)
(2.94443e-06 0 0)
(2.95064e-06 0 0)
(2.95685e-06 0 0)
(2.96306e-06 0 0)
(2.96929e-06 0 0)
(2.97551e-06 0 0)
(2.98174e-06 0 0)
(2.98798e-06 0 0)
(2.99422e-06 0 0)
(3.00047e-06 0 0)
(3.00672e-06 0 0)
(3.01298e-06 0 0)
(3.01924e-06 0 0)
(3.0255e-06 0 0)
(3.03177e-06 0 0)
(3.03805e-06 0 0)
(3.04433e-06 0 0)
(3.05062e-06 0 0)
(3.05691e-06 0 0)
(3.0632e-06 0 0)
(3.0695e-06 0 0)
(3.07581e-06 0 0)
(3.08212e-06 0 0)
(3.08844e-06 0 0)
(3.09476e-06 0 0)
(3.10109e-06 0 0)
(3.10742e-06 0 0)
(3.11376e-06 0 0)
(3.1201e-06 0 0)
(3.12645e-06 0 0)
(3.13281e-06 0 0)
(3.13917e-06 0 0)
(3.14554e-06 0 0)
(3.15191e-06 0 0)
(3.15829e-06 0 0)
(3.16467e-06 0 0)
(3.17106e-06 0 0)
(3.17746e-06 0 0)
(3.18386e-06 0 0)
(3.19027e-06 0 0)
(3.19668e-06 0 0)
(3.2031e-06 0 0)
(3.20953e-06 0 0)
(3.21596e-06 0 0)
(3.22239e-06 0 0)
(3.22884e-06 0 0)
(3.23528e-06 0 0)
(3.24173e-06 0 0)
(3.24819e-06 0 0)
(3.25465e-06 0 0)
(3.26111e-06 0 0)
(3.26758e-06 0 0)
(3.27405e-06 0 0)
(3.28053e-06 0 0)
(3.287e-06 0 0)
(3.29348e-06 0 0)
(3.29995e-06 0 0)
(3.30643e-06 0 0)
(3.31291e-06 0 0)
(3.31939e-06 0 0)
(3.32587e-06 0 0)
(3.33235e-06 0 0)
(3.33883e-06 0 0)
(3.3453e-06 0 0)
(3.35178e-06 0 0)
(3.35825e-06 0 0)
(3.36473e-06 0 0)
(3.3712e-06 0 0)
(3.37768e-06 0 0)
(3.38415e-06 0 0)
(3.39063e-06 0 0)
(3.3971e-06 0 0)
(3.40358e-06 0 0)
(3.41007e-06 0 0)
(3.41656e-06 0 0)
(3.42305e-06 0 0)
(3.42955e-06 0 0)
(3.43606e-06 0 0)
(3.44258e-06 0 0)
(3.44911e-06 0 0)
(3.45565e-06 0 0)
(3.4622e-06 0 0)
(3.46878e-06 0 0)
(3.47536e-06 0 0)
(3.48197e-06 0 0)
(3.48859e-06 0 0)
(3.49524e-06 0 0)
(3.50191e-06 0 0)
(3.5086e-06 0 0)
(3.51531e-06 0 0)
(3.52205e-06 0 0)
(3.52882e-06 0 0)
(3.53561e-06 0 0)
(3.54242e-06 0 0)
(3.54927e-06 0 0)
(3.55614e-06 0 0)
(3.56304e-06 0 0)
(3.56996e-06 0 0)
(3.57691e-06 0 0)
(3.58388e-06 0 0)
(3.59088e-06 0 0)
(3.5979e-06 0 0)
(3.60494e-06 0 0)
(3.61199e-06 0 0)
(3.61907e-06 0 0)
(3.62617e-06 0 0)
(3.63328e-06 0 0)
(3.64041e-06 0 0)
(3.64754e-06 0 0)
(3.65469e-06 0 0)
(3.66186e-06 0 0)
(3.66903e-06 0 0)
(3.6762e-06 0 0)
(3.68339e-06 0 0)
(3.69058e-06 0 0)
(3.69778e-06 0 0)
(3.70498e-06 0 0)
(3.71218e-06 0 0)
(3.71939e-06 0 0)
(3.72661e-06 0 0)
(3.73383e-06 0 0)
(3.74105e-06 0 0)
(3.74828e-06 0 0)
(3.75551e-06 0 0)
(3.76274e-06 0 0)
(3.76998e-06 0 0)
(3.77722e-06 0 0)
(3.78447e-06 0 0)
(3.79173e-06 0 0)
(3.79899e-06 0 0)
(3.80626e-06 0 0)
(3.81353e-06 0 0)
(3.82081e-06 0 0)
(3.82811e-06 0 0)
(3.8354e-06 0 0)
(3.84271e-06 0 0)
(3.85003e-06 0 0)
(3.85736e-06 0 0)
(3.86469e-06 0 0)
(3.87204e-06 0 0)
(3.8794e-06 0 0)
(3.88677e-06 0 0)
(3.89415e-06 0 0)
(3.90154e-06 0 0)
(3.90894e-06 0 0)
(3.91635e-06 0 0)
(3.92378e-06 0 0)
(3.93121e-06 0 0)
(3.93866e-06 0 0)
(3.94612e-06 0 0)
(3.95359e-06 0 0)
(3.96108e-06 0 0)
(3.96857e-06 0 0)
(3.97608e-06 0 0)
(3.9836e-06 0 0)
(3.99113e-06 0 0)
(3.99867e-06 0 0)
(4.00623e-06 0 0)
(4.01379e-06 0 0)
(4.02137e-06 0 0)
(4.02896e-06 0 0)
(4.03657e-06 0 0)
(4.04418e-06 0 0)
(4.05181e-06 0 0)
(4.05944e-06 0 0)
(4.06709e-06 0 0)
(4.07475e-06 0 0)
(4.08243e-06 0 0)
(4.09011e-06 0 0)
(4.09781e-06 0 0)
(4.10552e-06 0 0)
(4.11324e-06 0 0)
(4.12097e-06 0 0)
(4.12871e-06 0 0)
(4.13647e-06 0 0)
(4.14424e-06 0 0)
(4.15202e-06 0 0)
(4.15981e-06 0 0)
(4.16761e-06 0 0)
(4.17543e-06 0 0)
(4.18326e-06 0 0)
(4.1911e-06 0 0)
(4.19896e-06 0 0)
(4.20682e-06 0 0)
(4.2147e-06 0 0)
(4.22259e-06 0 0)
(4.23049e-06 0 0)
(4.23841e-06 0 0)
(4.24634e-06 0 0)
(4.25428e-06 0 0)
(4.26224e-06 0 0)
(4.27021e-06 0 0)
(4.27819e-06 0 0)
(4.28619e-06 0 0)
(4.2942e-06 0 0)
(4.30222e-06 0 0)
(4.31025e-06 0 0)
(4.31831e-06 0 0)
(4.32637e-06 0 0)
(4.33445e-06 0 0)
(4.34254e-06 0 0)
(4.35065e-06 0 0)
(4.35877e-06 0 0)
(4.36691e-06 0 0)
(4.37506e-06 0 0)
(4.38323e-06 0 0)
(4.39141e-06 0 0)
(4.3996e-06 0 0)
(4.40782e-06 0 0)
(4.41604e-06 0 0)
(4.42429e-06 0 0)
(4.43254e-06 0 0)
(4.44082e-06 0 0)
(4.44911e-06 0 0)
(4.45741e-06 0 0)
(4.46573e-06 0 0)
(4.47407e-06 0 0)
(4.48242e-06 0 0)
(4.49079e-06 0 0)
(4.49917e-06 0 0)
(4.50757e-06 0 0)
(4.51598e-06 0 0)
(4.52441e-06 0 0)
(4.53285e-06 0 0)
(4.54131e-06 0 0)
(4.54978e-06 0 0)
(4.55826e-06 0 0)
(4.56676e-06 0 0)
(4.57527e-06 0 0)
(4.5838e-06 0 0)
(4.59234e-06 0 0)
(4.60089e-06 0 0)
(4.60945e-06 0 0)
(4.61803e-06 0 0)
(4.62662e-06 0 0)
(4.63522e-06 0 0)
(4.64383e-06 0 0)
(4.65245e-06 0 0)
(4.66109e-06 0 0)
(4.66974e-06 0 0)
(4.6784e-06 0 0)
(4.68707e-06 0 0)
(4.69576e-06 0 0)
(4.70446e-06 0 0)
(4.71317e-06 0 0)
(4.7219e-06 0 0)
(4.73064e-06 0 0)
(4.7394e-06 0 0)
(4.74817e-06 0 0)
(4.75697e-06 0 0)
(4.76578e-06 0 0)
(4.77461e-06 0 0)
(4.78346e-06 0 0)
(4.79233e-06 0 0)
(4.80123e-06 0 0)
(4.81015e-06 0 0)
(4.8191e-06 0 0)
(4.82807e-06 0 0)
(4.83708e-06 0 0)
(4.84611e-06 0 0)
(4.85518e-06 0 0)
(4.86428e-06 0 0)
(4.87341e-06 0 0)
(4.88258e-06 0 0)
(4.89179e-06 0 0)
(4.90104e-06 0 0)
(4.91032e-06 0 0)
(4.91965e-06 0 0)
(4.92902e-06 0 0)
(4.93843e-06 0 0)
(4.94789e-06 0 0)
(4.95739e-06 0 0)
(4.96694e-06 0 0)
(4.97653e-06 0 0)
(4.98617e-06 0 0)
(4.99585e-06 0 0)
(5.00558e-06 0 0)
(5.01535e-06 0 0)
(5.02517e-06 0 0)
(5.03503e-06 0 0)
(5.04494e-06 0 0)
(5.05489e-06 0 0)
(5.06488e-06 0 0)
(5.07491e-06 0 0)
(5.08498e-06 0 0)
(5.09509e-06 0 0)
(5.10524e-06 0 0)
(5.11543e-06 0 0)
(5.12565e-06 0 0)
(5.1359e-06 0 0)
(5.14618e-06 0 0)
(5.1565e-06 0 0)
(5.16685e-06 0 0)
(5.17723e-06 0 0)
(5.18763e-06 0 0)
(5.19806e-06 0 0)
(5.20852e-06 0 0)
(5.21901e-06 0 0)
(5.22952e-06 0 0)
(5.24005e-06 0 0)
(5.25061e-06 0 0)
(5.26118e-06 0 0)
(5.27178e-06 0 0)
(5.2824e-06 0 0)
(5.29304e-06 0 0)
(5.30371e-06 0 0)
(5.31439e-06 0 0)
(5.32508e-06 0 0)
(5.3358e-06 0 0)
(5.34653e-06 0 0)
(5.35727e-06 0 0)
(5.36803e-06 0 0)
(5.3788e-06 0 0)
(5.38957e-06 0 0)
(5.40036e-06 0 0)
(5.41114e-06 0 0)
(5.42193e-06 0 0)
(5.43271e-06 0 0)
(5.44349e-06 0 0)
(5.45426e-06 0 0)
(5.465e-06 0 0)
(5.47573e-06 0 0)
(5.48642e-06 0 0)
(5.49707e-06 0 0)
(5.50767e-06 0 0)
(5.51821e-06 0 0)
(5.52868e-06 0 0)
(5.53907e-06 0 0)
(5.54936e-06 0 0)
(5.55953e-06 0 0)
(5.56957e-06 0 0)
(5.57947e-06 0 0)
(5.5892e-06 0 0)
(5.59874e-06 0 0)
(5.60807e-06 0 0)
(5.61717e-06 0 0)
(5.62601e-06 0 0)
(5.63458e-06 0 0)
(5.64285e-06 0 0)
(5.65081e-06 0 0)
(5.65843e-06 0 0)
(5.66568e-06 0 0)
(5.67257e-06 0 0)
(5.67906e-06 0 0)
(5.68516e-06 0 0)
(5.69086e-06 0 0)
(5.69616e-06 0 0)
(5.70104e-06 0 0)
(5.70553e-06 0 0)
(5.70962e-06 0 0)
(5.71333e-06 0 0)
(5.71667e-06 0 0)
(5.71966e-06 0 0)
(5.72233e-06 0 0)
(5.72468e-06 0 0)
(5.72675e-06 0 0)
(5.72855e-06 0 0)
(5.73011e-06 0 0)
(5.73146e-06 0 0)
(5.73262e-06 0 0)
(5.7336e-06 0 0)
(5.73443e-06 0 0)
(5.73513e-06 0 0)
(5.73572e-06 0 0)
(5.7362e-06 0 0)
(5.73661e-06 0 0)
(5.73696e-06 0 0)
(5.73728e-06 0 0)
(5.7376e-06 0 0)
(5.73793e-06 0 0)
(5.73831e-06 0 0)
(5.73883e-06 0 0)
(6.10057e-06 0 0)
)
;

boundaryField
{
    inlet
    {
        type            fixedValue;
        value           uniform (0 0 0);
    }
    outlet
    {
        type            zeroGradient;
    }
    emptyWalls
    {
        type            empty;
    }
}


// ************************************************************************* //
