/*--------------------------------*- C++ -*----------------------------------*\
  =========                 |
  \\      /  F ield         | OpenFOAM: The Open Source CFD Toolbox
   \\    /   O peration     | Website:  https://openfoam.org
    \\  /    A nd           | Version:  9
     \\/     M anipulation  |
\*---------------------------------------------------------------------------*/
FoamFile
{
    format      ascii;
    class       volScalarField;
    location    "29450";
    object      p;
}
// * * * * * * * * * * * * * * * * * * * * * * * * * * * * * * * * * * * * * //

dimensions      [0 0 0 0 0 0 0];

internalField   nonuniform List<scalar> 
1000
(
159204
158779
158354
157931
157510
157091
156673
156256
155841
155428
155016
154606
154198
153791
153386
152983
152581
152181
151783
151386
150991
150597
150205
149815
149426
149038
148652
148267
147883
147501
147119
146738
146358
145979
145601
145222
144845
144468
144092
143718
143354
143021
142806
142697
142606
142519
142433
142347
142262
142178
142094
142010
141926
141843
141760
141677
141594
141511
141428
141346
141263
141181
141098
141016
140934
140852
140770
140688
140606
140524
140442
140360
140278
140196
140115
140033
139951
139870
139788
139706
139625
139543
139462
139380
139298
139217
139135
139054
138972
138890
138809
138727
138645
138564
138482
138400
138319
138237
138155
138073
137991
137909
137827
137745
137663
137581
137499
137417
137335
137252
137170
137087
137005
136922
136839
136756
136673
136590
136506
136422
136338
136254
136170
136085
136001
135916
135830
135745
135659
135574
135487
135401
135315
135228
135141
135054
134967
134879
134791
134704
134615
134527
134439
134350
134261
134172
134083
133993
133903
133813
133723
133633
133543
133452
133361
133270
133178
133087
132995
132903
132811
132718
132626
132533
132440
132346
132253
132159
132065
131971
131877
131782
131688
131593
131497
131402
131307
131211
131115
131019
130923
130826
130729
130632
130535
130438
130341
130243
130145
130047
129949
129850
129751
129653
129553
129454
129355
129255
129155
129055
128955
128855
128754
128653
128552
128451
128350
128248
128147
128045
127943
127840
127738
127635
127532
127429
127326
127223
127119
127015
126911
126807
126703
126598
126493
126389
126283
126178
126073
125967
125861
125755
125649
125543
125436
125330
125223
125116
125009
124901
124794
124686
124578
124470
124361
124253
124144
124035
123926
123817
123708
123598
123489
123379
123269
123158
123048
122938
122827
122716
122605
122494
122382
122271
122159
122047
121935
121823
121710
121598
121485
121372
121259
121146
121033
120919
120806
120692
120578
120464
120349
120235
120120
120005
119890
119775
119660
119544
119428
119312
119196
119080
118963
118847
118730
118613
118496
118378
118261
118143
118025
117907
117789
117671
117552
117434
117315
117196
117077
116957
116838
116718
116598
116478
116358
116238
116117
115996
115876
115755
115633
115512
115391
115269
115147
115025
114903
114781
114658
114536
114413
114290
114167
114043
113920
113796
113673
113549
113424
113300
113176
113051
112926
112802
112676
112551
112426
112300
112175
112049
111923
111797
111670
111544
111417
111290
111163
111036
110909
110781
110654
110526
110398
110270
110142
110014
109885
109756
109627
109498
109369
109240
109111
108981
108851
108721
108591
108461
108331
108200
108069
107938
107807
107676
107545
107414
107282
107150
107018
106886
106754
106622
106489
106356
106224
106091
105958
105824
105691
105558
105424
105290
105156
105022
104888
104753
104619
104484
104350
104215
104080
103944
103809
103674
103538
103402
103266
103130
102994
102857
102721
102584
102447
102310
102173
102036
101898
101761
101623
101485
101347
101209
101070
100932
100793
100654
100515
100376
100236
100097
99957.1
99817.3
99677.3
99537.2
99396.9
99256.5
99115.9
98975.2
98834.4
98693.3
98552.2
98410.9
98269.4
98127.8
97986.1
97844.2
97702.1
97559.9
97417.6
97275.1
97132.4
96989.7
96846.7
96703.6
96560.4
96417
96273.5
96129.8
95986
95842
95697.9
95553.7
95409.3
95264.7
95120
94975.1
94830.2
94685
94539.7
94394.3
94248.7
94103
93957.1
93811.1
93664.9
93518.6
93372.2
93225.6
93078.8
92931.9
92784.9
92637.7
92490.4
92343
92195.3
92047.6
91899.7
91751.7
91603.5
91455.2
91306.7
91158.1
91009.3
90860.4
90711.4
90562.2
90412.9
90263.4
90113.8
89964.1
89814.2
89664.1
89514
89363.6
89213.2
89062.6
88911.8
88761
88609.9
88458.8
88307.5
88156
88004.5
87852.7
87700.9
87548.9
87396.7
87244.4
87092
86939.5
86786.8
86633.9
86480.9
86327.8
86174.6
86021.2
85867.7
85714
85560.2
85406.3
85252.2
85098
84943.7
84789.2
84634.6
84479.9
84325
84170
84014.9
83859.6
83704.3
83548.8
83393.1
83237.3
83081.5
82925.4
82769.3
82613
82456.6
82300
82143.3
81986.5
81829.6
81672.5
81515.3
81357.9
81200.5
81042.8
80885.1
80727.2
80569.1
80411
80252.6
80094.2
79935.5
79776.8
79617.9
79458.8
79299.6
79140.3
78980.8
78821.2
78661.4
78501.5
78341.4
78181.2
78020.9
77860.3
77699.7
77538.9
77378
77216.9
77055.7
76894.3
76732.8
76571.2
76409.4
76247.5
76085.4
75923.2
75760.9
75598.4
75435.7
75273
75110.1
74947
74783.9
74620.5
74457.1
74293.5
74129.8
73965.9
73801.9
73637.7
73473.4
73309
73144.4
72979.7
72814.9
72649.9
72484.8
72319.5
72154.1
71988.6
71822.9
71657.1
71491.2
71325.1
71158.9
70992.5
70826
70659.4
70492.6
70325.7
70158.6
69991.4
69824.1
69656.7
69489.1
69321.3
69153.4
68985.4
68817.3
68649
68480.6
68312
68143.3
67974.5
67805.5
67636.4
67467.2
67297.8
67128.3
66958.7
66788.9
66619
66448.9
66278.8
66108.4
65938
65767.4
65596.7
65425.8
65254.8
65083.7
64912.4
64741
64569.5
64397.8
64226
64054.1
63882
63709.8
63537.5
63365
63192.4
63019.7
62846.8
62673.8
62500.7
62327.4
62154
61980.5
61806.8
61633
61459.1
61285
61110.8
60936.5
60762
60587.4
60412.7
60237.9
60062.9
59887.8
59712.5
59537.2
59361.7
59186
59010.3
58834.4
58658.4
58482.3
58306
58129.6
57953.1
57776.5
57599.7
57422.8
57245.8
57068.7
56891.4
56714
56536.5
56358.9
56181.1
56003.3
55825.3
55647.1
55468.9
55290.5
55112
54933.3
54754.6
54575.7
54396.7
54217.5
54038.2
53858.8
53679.2
53499.6
53319.7
53139.8
52959.7
52779.5
52599.1
52418.6
52237.9
52057.2
51876.2
51695.2
51514
51332.6
51151.1
50969.5
50787.7
50605.8
50423.8
50241.6
50059.3
49876.8
49694.2
49511.4
49328.6
49145.5
48962.4
48779.1
48595.6
48412
48228.3
48044.5
47860.5
47676.4
47492.1
47307.7
47123.2
46938.5
46753.7
46568.7
46383.6
46198.4
46013.1
45827.6
45642
45456.2
45270.3
45084.3
44898.1
44711.8
44525.4
44338.8
44152.1
43965.3
43778.3
43591.2
43403.9
43216.5
43029
42841.4
42653.6
42465.6
42277.6
42089.4
41901.1
41712.6
41524
41335.2
41146.4
40957.4
40768.2
40578.9
40389.5
40200
40010.3
39820.5
39630.5
39440.4
39250.2
39059.9
38869.4
38678.8
38488
38297.1
38106.1
37914.9
37723.6
37532.2
37340.6
37148.9
36957.1
36765.1
36573
36380.8
36188.4
35995.9
35803.3
35610.5
35417.6
35224.6
35031.4
34838.1
34644.6
34451.1
34257.4
34063.5
33869.6
33675.5
33481.2
33286.9
33092.4
32897.7
32703
32508.1
32313
32117.9
31922.6
31727.1
31531.6
31335.9
31140
30944.1
30748
30551.8
30355.4
30158.9
29962.3
29765.5
29568.7
29371.6
29174.5
28977.2
28779.8
28582.3
28384.6
28186.8
27988.9
27790.9
27592.7
27394.4
27195.9
26997.4
26798.7
26599.9
26400.9
26201.9
26002.7
25803.4
25603.9
25404.3
25204.6
25004.8
24804.9
24604.8
24404.6
24204.3
24003.8
23803.2
23602.5
23401.7
23200.7
22999.6
22798.4
22597.1
22395.6
22194
21992.2
21790.4
21588.3
21386.2
21183.9
20981.5
20779
20576.3
20373.5
20170.5
19967.4
19764.2
19560.8
19357.3
19153.7
18949.9
18745.9
18541.9
18337.6
18133.3
17928.8
17724.1
17519.3
17314.4
17109.3
16904.1
16698.7
16493.2
16287.5
16081.7
15875.8
15669.7
15463.5
15257.1
15050.6
14843.9
14637.1
14430.2
14223.1
14015.9
13808.5
13601
13393.4
13185.6
12977.6
12769.6
12561.4
12353
12144.5
11935.9
11727.1
11518.2
11309.1
11099.9
10890.6
10681.1
10471.5
10261.7
10051.8
9841.73
9631.54
9421.21
9210.73
9000.12
8789.36
8578.47
8367.43
8156.25
7944.92
7733.46
7521.85
7310.1
7098.21
6886.18
6674.01
6461.69
6249.23
6036.63
5823.88
5611
5397.97
5184.8
4971.49
4758.03
4544.43
4330.69
4116.81
3902.78
3688.61
3474.3
3259.85
3045.25
2830.51
2615.63
2400.6
2185.43
1970.12
1754.67
1539.07
1323.33
1107.45
891.419
675.249
458.938
242.341
)
;

boundaryField
{
    inlet
    {
        type            darcyGradPressure;
        gradient        uniform 116344;
        Mf              Mf;
        phi             phi;
        value           uniform 159418;
    }
    outlet
    {
        type            fixedValue;
        value           uniform 0;
    }
    emptyWalls
    {
        type            empty;
    }
}


// ************************************************************************* //
