/*--------------------------------*- C++ -*----------------------------------*\
  =========                 |
  \\      /  F ield         | OpenFOAM: The Open Source CFD Toolbox
   \\    /   O peration     | Website:  https://openfoam.org
    \\  /    A nd           | Version:  9
     \\/     M anipulation  |
\*---------------------------------------------------------------------------*/
FoamFile
{
    format      ascii;
    class       volScalarField;
    location    "23950";
    object      p;
}
// * * * * * * * * * * * * * * * * * * * * * * * * * * * * * * * * * * * * * //

dimensions      [0 0 0 0 0 0 0];

internalField   nonuniform List<scalar> 
1000
(
173921
173496
173072
172650
172230
171813
171397
170983
170571
170161
169754
169348
168944
168542
168143
167745
167349
166955
166564
166173
165785
165398
165013
164629
164246
163865
163484
163104
162725
162347
161970
161595
161230
160897
160682
160573
160482
160395
160309
160224
160139
160055
159971
159888
159805
159722
159639
159556
159474
159391
159309
159227
159144
159062
158980
158898
158816
158734
158653
158571
158489
158407
158326
158244
158162
158081
157999
157918
157836
157755
157673
157591
157510
157428
157347
157265
157183
157102
157020
156938
156856
156774
156693
156611
156529
156447
156364
156282
156200
156117
156035
155952
155870
155787
155703
155620
155536
155453
155369
155284
155200
155115
155030
154944
154859
154773
154686
154600
154513
154426
154339
154252
154164
154076
153988
153899
153810
153721
153632
153543
153453
153363
153272
153182
153091
153000
152909
152817
152725
152633
152541
152448
152355
152262
152169
152076
151982
151888
151793
151699
151604
151509
151414
151319
151223
151127
151031
150935
150838
150741
150644
150547
150449
150352
150254
150155
150057
149958
149859
149760
149660
149561
149461
149361
149260
149159
149058
148957
148856
148754
148652
148550
148448
148345
148242
148139
148036
147932
147829
147725
147621
147516
147412
147307
147202
147096
146991
146885
146779
146673
146566
146460
146353
146246
146139
146031
145923
145815
145707
145599
145490
145381
145272
145163
145053
144944
144834
144723
144613
144502
144392
144281
144169
144058
143946
143834
143722
143610
143497
143385
143272
143158
143045
142931
142818
142704
142589
142475
142360
142246
142131
142015
141900
141784
141668
141552
141436
141319
141203
141086
140969
140851
140734
140616
140498
140380
140262
140143
140024
139905
139786
139667
139547
139428
139308
139188
139067
138947
138826
138705
138584
138463
138341
138219
138097
137975
137853
137731
137608
137485
137362
137239
137115
136992
136868
136744
136620
136496
136371
136246
136122
135996
135871
135746
135620
135494
135368
135242
135115
134989
134862
134735
134608
134480
134352
134224
134096
133968
133840
133711
133582
133453
133324
133194
133064
132935
132805
132674
132544
132413
132282
132151
132020
131889
131757
131625
131493
131361
131229
131096
130964
130831
130698
130564
130431
130297
130163
130029
129895
129761
129626
129491
129356
129221
129086
128950
128814
128678
128542
128406
128270
128133
127996
127859
127722
127584
127447
127309
127171
127033
126894
126756
126617
126478
126339
126200
126061
125921
125781
125641
125501
125361
125220
125079
124939
124798
124656
124515
124373
124231
124089
123947
123805
123662
123520
123377
123234
123091
122947
122804
122660
122516
122372
122228
122083
121938
121794
121649
121504
121358
121213
121067
120921
120775
120629
120482
120336
120189
120042
119895
119748
119600
119453
119305
119157
119009
118860
118712
118563
118415
118266
118117
117967
117818
117668
117518
117368
117218
117068
116918
116767
116616
116465
116314
116163
116012
115860
115708
115556
115404
115252
115099
114947
114794
114641
114488
114335
114181
114027
113873
113719
113565
113411
113256
113101
112946
112791
112636
112480
112325
112169
112013
111856
111700
111543
111387
111230
111073
110915
110758
110600
110443
110285
110126
109968
109810
109651
109492
109333
109174
109015
108855
108695
108536
108376
108215
108055
107894
107734
107573
107412
107251
107089
106928
106766
106604
106442
106280
106117
105955
105792
105629
105466
105303
105139
104976
104812
104648
104484
104319
104155
103990
103825
103661
103495
103330
103165
102999
102833
102667
102501
102335
102168
102002
101835
101668
101501
101333
101166
100998
100830
100662
100494
100326
100157
99988.8
99820
99651
99481.8
99312.5
99143.1
98973.4
98803.6
98633.6
98463.5
98293.2
98122.7
97952.1
97781.3
97610.3
97439.2
97267.9
97096.5
96924.8
96753.1
96581.1
96409
96236.7
96064.3
95891.7
95718.9
95546
95372.9
95199.6
95026.2
94852.7
94678.9
94505
94331
94156.7
93982.4
93807.8
93633.1
93458.3
93283.3
93108.1
92932.8
92757.3
92581.7
92405.9
92230
92053.9
91877.6
91701.2
91524.7
91348
91171.1
90994.1
90817
90639.6
90462.2
90284.5
90106.7
89928.8
89750.7
89572.4
89394
89215.4
89036.7
88857.8
88678.7
88499.4
88320
88140.5
87960.7
87780.8
87600.7
87420.5
87240
87059.4
86878.7
86697.7
86516.6
86335.3
86153.8
85972.2
85790.4
85608.4
85426.3
85243.9
85061.4
84878.8
84695.9
84512.9
84329.7
84146.4
83962.9
83779.2
83595.3
83411.3
83227.1
83042.8
82858.3
82673.6
82488.7
82303.7
82118.5
81933.1
81747.6
81561.9
81376.1
81190.1
81003.9
80817.5
80631
80444.3
80257.5
80070.5
79883.3
79696
79508.5
79320.8
79132.9
78944.9
78756.8
78568.4
78379.9
78191.2
78002.4
77813.4
77624.2
77434.9
77245.4
77055.7
76865.9
76675.9
76485.7
76295.4
76104.9
75914.2
75723.4
75532.4
75341.2
75149.9
74958.4
74766.7
74574.9
74382.9
74190.8
73998.4
73806
73613.3
73420.5
73227.5
73034.4
72841
72647.6
72453.9
72260.1
72066.1
71872
71677.7
71483.2
71288.6
71093.8
70898.8
70703.7
70508.4
70313
70117.3
69921.5
69725.6
69529.5
69333.2
69136.8
68940.2
68743.4
68546.4
68349.3
68152.1
67954.6
67757.1
67559.3
67361.4
67163.3
66965
66766.6
66568
66369.3
66170.4
65971.3
65772.1
65572.7
65373.1
65173.4
64973.5
64773.4
64573.2
64372.8
64172.3
63971.6
63770.7
63569.7
63368.5
63167.1
62965.6
62763.9
62562.1
62360.1
62157.9
61955.6
61753.1
61550.5
61347.7
61144.7
60941.6
60738.3
60534.9
60331.3
60127.5
59923.6
59719.6
59515.3
59311
59106.4
58901.7
58696.9
58491.9
58286.7
58081.4
57875.9
57670.3
57464.5
57258.5
57052.4
56846.1
56639.7
56433.1
56226.3
56019.3
55812.2
55604.9
55397.5
55189.9
54982.1
54774.1
54566
54357.7
54149.2
53940.6
53731.7
53522.7
53313.5
53104.2
52894.6
52684.9
52475
52265
52054.7
51844.3
51633.7
51422.9
51211.9
51000.7
50789.4
50577.9
50366.2
50154.3
49942.3
49730.1
49517.7
49305.1
49092.3
48879.4
48666.3
48453
48239.5
48025.9
47812
47598
47383.8
47169.5
46955
46740.3
46525.4
46310.3
46095.1
45879.6
45664
45448.3
45232.3
45016.2
44799.9
44583.4
44366.7
44149.9
43932.9
43715.7
43498.3
43280.7
43063
42845.1
42627
42408.7
42190.3
41971.6
41752.8
41533.8
41314.6
41095.3
40875.7
40656
40436.1
40216
39995.8
39775.3
39554.7
39333.9
39112.9
38891.7
38670.3
38448.8
38227
38005.1
37783
37560.7
37338.3
37115.6
36892.8
36669.8
36446.6
36223.2
35999.6
35775.9
35551.9
35327.8
35103.5
34879
34654.3
34429.4
34204.4
33979.1
33753.7
33528.1
33302.3
33076.3
32850.1
32623.8
32397.2
32170.5
31943.5
31716.4
31489.1
31261.6
31033.9
30806.1
30578
30349.8
30121.3
29892.7
29663.9
29434.9
29205.7
28976.3
28746.7
28516.9
28287
28056.8
27826.5
27595.9
27365.2
27134.3
26903.2
26671.9
26440.4
26208.8
25976.9
25744.9
25512.6
25280.2
25047.6
24814.8
24581.8
24348.7
24115.3
23881.8
23648.1
23414.2
23180.2
22946
22711.6
22477
22242.3
22007.5
21772.5
21537.3
21302
21066.6
20831
20595.3
20359.5
20123.6
19887.6
19651.5
19415.3
19179
18942.6
18706.2
18469.7
18233.2
17996.6
17760
17523.3
17286.6
17049.9
16813.2
16576.4
16339.6
16102.9
15866.1
15629.3
15392.5
15155.6
14918.8
14682
14445.2
14208.4
13971.5
13734.7
13497.8
13261
13024.1
12787.2
12550.2
12313.1
12075.8
11838.1
11599.9
11360.5
11119.4
10875.3
10626.8
10372.5
10111.5
9844.26
9572.41
9297.75
9021.62
8744.77
8467.57
8190.2
7912.74
7635.23
7357.69
7080.13
6802.56
6524.98
6247.38
5969.78
5692.17
5414.56
5136.94
4859.31
4581.67
4304.03
4026.38
3748.73
3471.08
3193.41
2915.75
2638.08
2360.4
2082.72
1805.04
1527.35
1249.66
971.962
694.263
416.561
138.855
)
;

boundaryField
{
    inlet
    {
        type            darcyGradPressure;
        gradient        uniform 116344;
        Mf              Mf;
        phi             phi;
        value           uniform 174135;
    }
    outlet
    {
        type            fixedValue;
        value           uniform 0;
    }
    emptyWalls
    {
        type            empty;
    }
}


// ************************************************************************* //
