/*--------------------------------*- C++ -*----------------------------------*\
  =========                 |
  \\      /  F ield         | OpenFOAM: The Open Source CFD Toolbox
   \\    /   O peration     | Website:  https://openfoam.org
    \\  /    A nd           | Version:  9
     \\/     M anipulation  |
\*---------------------------------------------------------------------------*/
FoamFile
{
    format      ascii;
    class       volScalarField;
    location    "105000";
    object      krc;
}
// * * * * * * * * * * * * * * * * * * * * * * * * * * * * * * * * * * * * * //

dimensions      [0 0 0 0 0 0 0];

internalField   nonuniform List<scalar> 
100
(
9.58399e-22
6.53069e-24
7.5641e-24
9.35299e-24
8.82963e-25
7.99942e-24
1.68163e-24
6.62835e-26
5.68565e-24
3.50167e-24
8.61845e-24
6.36821e-26
1.74846e-24
1.32732e-24
4.47469e-24
8.73175e-24
9.07798e-24
6.82565e-24
2.71076e-24
4.38514e-24
3.38571e-24
1.44625e-23
2.73278e-24
3.76736e-25
1.23906e-23
4.67415e-24
5.8455e-24
8.18882e-24
2.24796e-24
2.21361e-23
3.39083e-25
3.94845e-24
1.38692e-23
1.47777e-23
8.46678e-26
1.02026e-23
7.9584e-26
3.70642e-27
2.98139e-24
5.89114e-24
3.99664e-24
3.60019e-24
1.29184e-23
5.26578e-24
3.37157e-24
5.24581e-26
4.90748e-24
6.07819e-24
6.59424e-24
8.2257e-24
4.47425e-25
2.94143e-25
1.25971e-23
6.06117e-24
4.71634e-24
5.69876e-24
4.99412e-24
7.4797e-24
7.03271e-24
6.10105e-24
9.21139e-24
5.34861e-24
1.95828e-24
6.14962e-24
9.48719e-26
8.47021e-24
8.2086e-24
9.33427e-24
8.99915e-24
2.8301e-25
8.05414e-24
5.86677e-24
6.9474e-26
1.33546e-27
1.75248e-25
2.47963e-24
1.16968e-25
8.13656e-26
8.28842e-24
2.90075e-26
8.74057e-24
8.40044e-24
3.78589e-26
5.92625e-24
6.8197e-26
2.62167e-26
1.12132e-25
5.85879e-24
2.61659e-26
5.8683e-24
6.80679e-24
5.69576e-24
7.41009e-26
2.64218e-24
2.19566e-26
2.38052e-27
4.28055e-24
7.49044e-24
9.17379e-24
6.66742e-24
)
;

boundaryField
{
    inlet
    {
        type            calculated;
        value           uniform 9.58399e-22;
    }
    outlet
    {
        type            calculated;
        value           uniform 6.66742e-24;
    }
    emptyWalls
    {
        type            empty;
    }
}


// ************************************************************************* //
