/*--------------------------------*- C++ -*----------------------------------*\
  =========                 |
  \\      /  F ield         | OpenFOAM: The Open Source CFD Toolbox
   \\    /   O peration     | Website:  https://openfoam.org
    \\  /    A nd           | Version:  9
     \\/     M anipulation  |
\*---------------------------------------------------------------------------*/
FoamFile
{
    format      ascii;
    class       volScalarField;
    location    "1300";
    object      Sa;
}
// * * * * * * * * * * * * * * * * * * * * * * * * * * * * * * * * * * * * * //

dimensions      [0 0 0 0 0 0 0];

internalField   nonuniform List<scalar> 
1000
(
0.517487
0.298584
0.054844
0.0287337
0.0240072
0.0234038
0.0228204
0.0222747
0.0217767
0.0213171
0.0208968
0.0205079
0.0201466
0.0198117
0.0194962
0.0192008
0.0189219
0.0186566
0.0184061
0.0181665
0.0179379
0.01772
0.01751
0.0173092
0.0171162
0.0169294
0.0167502
0.0165764
0.0164078
0.0162455
0.0160866
0.0159333
0.0157842
0.0156383
0.0154981
0.0153596
0.0152263
0.0150952
0.0149672
0.0148428
0.0147192
0.0146002
0.0144807
0.0143659
0.01425
0.014136
0.0140178
0.0138896
0.0137415
0.013555
0.0133275
0.0130672
0.0128309
0.0126602
0.0125688
0.0125287
0.0125142
0.0125143
0.0125161
0.0125213
0.012528
0.0125347
0.0125418
0.0125486
0.0125555
0.0125622
0.0125688
0.012575
0.0125814
0.0125872
0.0125932
0.0125987
0.0126044
0.0126096
0.0126151
0.0126201
0.0126255
0.0126305
0.0126359
0.0126411
0.0126469
0.0126526
0.0126589
0.0126654
0.0126727
0.0126804
0.0126891
0.0126984
0.0127089
0.0127202
0.0127328
0.0127464
0.0127615
0.0127775
0.0127951
0.0128136
0.0128334
0.0128539
0.0128754
0.0128973
0.0129197
0.0129419
0.012964
0.012985
0.0130048
0.013022
0.0130362
0.0130458
0.0130506
0.0130513
0.0130508
0.013047
0.0130338
0.013001
0.0129575
0.0129029
0.0128376
0.0127639
0.012684
0.0126015
0.0125195
0.0124418
0.0123708
0.0123087
0.0122564
0.0122147
0.0121828
0.0121607
0.0121469
0.0121406
0.0121392
0.01214
0.0121425
0.0121548
0.0121723
0.0121911
0.0122108
0.0122312
0.0122516
0.0122718
0.0122915
0.0123104
0.0123283
0.0123451
0.0123606
0.0123748
0.0123876
0.012399
0.0124091
0.0124178
0.0124253
0.0124317
0.012437
0.0124415
0.0124451
0.0124481
0.0124505
0.0124525
0.0124542
0.0124556
0.0124569
0.012458
0.0124591
0.0124602
0.0124614
0.0124626
0.0124638
0.0124652
0.0124665
0.012468
0.0124696
0.0124712
0.0124728
0.0124744
0.012476
0.0124776
0.012479
0.0124804
0.0124816
0.0124827
0.0124835
0.012484
0.0124841
0.0124841
0.0124838
0.0124836
0.0124821
0.0124815
0.0124781
0.0124769
0.0124713
0.0124695
0.0124617
0.0124592
0.0124492
0.0124455
0.0124335
0.0124287
0.0124151
0.012409
0.0123939
0.0123867
0.0123701
0.012362
0.0123441
0.0123355
0.0123162
0.0123074
0.0122876
0.0122782
0.0122575
0.0122493
0.0122276
0.0122191
0.0121982
0.0121901
0.0121685
0.0121612
0.0121409
0.0121331
0.0121126
0.0121065
0.0120805
0.0120343
0.011484
0.00836601
0.00115901
1.1794e-05
4.12547e-10
1.26029e-19
4.49737e-40
3.5441e-83
2.23508e-175
0
0
0
0
0
0
0
0
0
0
0
0
0
0
0
0
0
0
0
0
0
0
0
0
0
0
0
0
0
0
0
0
0
0
0
0
0
0
0
0
0
0
0
0
0
0
0
0
0
0
0
0
0
0
0
0
0
0
0
0
0
0
0
0
0
0
0
0
0
0
0
0
0
0
0
0
0
0
0
0
0
0
0
0
0
0
0
0
0
0
0
0
0
0
0
0
0
0
0
0
0
0
0
0
0
0
0
0
0
0
0
0
0
0
0
0
0
0
0
0
0
0
0
0
0
0
0
0
0
0
0
0
0
0
0
0
0
0
0
0
0
0
0
0
0
0
0
0
0
0
0
0
0
0
0
0
0
0
0
0
0
0
0
0
0
0
0
0
0
0
0
0
0
0
0
0
0
0
0
0
0
0
0
0
0
0
0
0
0
0
0
0
0
0
0
0
0
0
0
0
0
0
0
0
0
0
0
0
0
0
0
0
0
0
0
0
0
0
0
0
0
0
0
0
0
0
0
0
0
0
0
0
0
0
0
0
0
0
0
0
0
0
0
0
0
0
0
0
0
0
0
0
0
0
0
0
0
0
0
0
0
0
0
0
0
0
0
0
0
0
0
0
0
0
0
0
0
0
0
0
0
0
0
0
0
0
0
0
0
0
0
0
0
0
0
0
0
0
0
0
0
0
0
0
0
0
0
0
0
0
0
0
0
0
0
0
0
0
0
0
0
0
0
0
0
0
0
0
0
0
0
0
0
0
0
0
0
0
0
0
0
0
0
0
0
0
0
0
0
0
0
0
0
0
0
0
0
0
0
0
0
0
0
0
0
0
0
0
0
0
0
0
0
0
0
0
0
0
0
0
0
0
0
0
0
0
0
0
0
0
0
0
0
0
0
0
0
0
0
0
0
0
0
0
0
0
0
0
0
0
0
0
0
0
0
0
0
0
0
0
0
0
0
0
0
0
0
0
0
0
0
0
0
0
0
0
0
0
0
0
0
0
0
0
0
0
0
0
0
0
0
0
0
0
0
0
0
0
0
0
0
0
0
0
0
0
0
0
0
0
0
0
0
0
0
0
0
0
0
0
0
0
0
0
0
0
0
0
0
0
0
0
0
0
0
0
0
0
0
0
0
0
0
0
0
0
0
0
0
0
0
0
0
0
0
0
0
0
0
0
0
0
0
0
0
0
0
0
0
0
0
0
0
0
0
0
0
0
0
0
0
0
0
0
0
0
0
0
0
0
0
0
0
0
0
0
0
0
0
0
0
0
0
0
0
0
0
0
0
0
0
0
0
0
0
0
0
0
0
0
0
0
0
0
0
0
0
0
0
0
0
0
0
0
0
0
0
0
0
0
0
0
0
0
0
0
0
0
0
0
0
0
0
0
0
0
0
0
0
0
0
0
0
0
0
0
0
0
0
0
0
0
0
0
0
0
0
0
0
0
0
0
0
0
0
0
0
0
0
0
0
0
0
0
0
0
0
0
0
0
0
0
0
0
0
0
0
0
0
0
0
0
0
0
0
0
0
0
0
0
0
0
0
0
0
0
0
0
0
0
0
0
0
0
0
0
0
0
0
0
0
0
0
0
0
0
0
0
0
0
0
0
0
0
0
0
0
0
0
0
0
0
0
0
0
0
0
0
0
0
0
0
0
0
0
0
0
0
0
0
0
0
0
0
0
0
0
0
0
0
0
0
0
0
0
0
0
0
0
0
0
0
0
0
0
0
0
)
;

boundaryField
{
    inlet
    {
        type            fixedValue;
        value           uniform 0.55;
    }
    outlet
    {
        type            zeroGradient;
    }
    emptyWalls
    {
        type            empty;
    }
}


// ************************************************************************* //
