/*--------------------------------*- C++ -*----------------------------------*\
  =========                 |
  \\      /  F ield         | OpenFOAM: The Open Source CFD Toolbox
   \\    /   O peration     | Website:  https://openfoam.org
    \\  /    A nd           | Version:  9
     \\/     M anipulation  |
\*---------------------------------------------------------------------------*/
FoamFile
{
    format      ascii;
    class       volScalarField;
    location    "25100";
    object      kra;
}
// * * * * * * * * * * * * * * * * * * * * * * * * * * * * * * * * * * * * * //

dimensions      [0 0 0 0 0 0 0];

internalField   nonuniform List<scalar> 
1000
(
0.000236626
0.000237471
0.000238487
0.000239578
0.000240629
0.000241701
0.000242782
0.000243864
0.000244961
0.000246071
0.000247185
0.000248318
0.00024946
0.000250602
0.000251766
0.000252899
0.000254073
0.000255167
0.000256331
0.000257359
0.000258461
0.000259411
0.000260383
0.000261234
0.000262045
0.000262764
0.00026342
0.000263995
0.000264509
0.000264962
0.000265391
0.000265908
0.000267046
0.000270963
0.000286698
0.000393848
0.000753386
0.000862522
0.000891794
0.000904625
0.000911438
0.00091548
0.000918131
0.000920049
0.000921519
0.000922705
0.000923664
0.000924464
0.000925121
0.000925658
0.000926105
0.000926463
0.000926736
0.000926972
0.000927122
0.000927224
0.000927302
0.000927319
0.000927308
0.000927256
0.000927226
0.000927097
0.000927041
0.000926847
0.000926757
0.000926509
0.000926354
0.000926084
0.0009259
0.000925623
0.000925423
0.000925129
0.000924926
0.000924644
0.000924346
0.000923998
0.0009236
0.000923164
0.0009227
0.000922217
0.000921723
0.000921228
0.00092074
0.000920257
0.000919775
0.000919272
0.000918732
0.00091812
0.000917434
0.000916629
0.000915736
0.000914754
0.000913625
0.000912459
0.000911227
0.000909897
0.000908484
0.000907022
0.000905544
0.00090414
0.00090288
0.000901775
0.000900746
0.000899693
0.000898541
0.000897261
0.000895862
0.000894362
0.000892761
0.000891037
0.000889144
0.000887027
0.000884637
0.000881945
0.000878945
0.00087566
0.000872134
0.000868428
0.000864611
0.000860752
0.000856916
0.000853159
0.000849525
0.000846046
0.00084274
0.000839616
0.000836671
0.000833896
0.000831274
0.000828786
0.000826409
0.000824121
0.0008219
0.000819727
0.000817584
0.000815458
0.000813338
0.000811218
0.000809091
0.000806956
0.000804813
0.000802663
0.000800507
0.000798349
0.00079619
0.000794034
0.000791884
0.00078974
0.000787607
0.000785485
0.000783376
0.00078128
0.0007792
0.000777135
0.000775086
0.000773054
0.000771038
0.00076904
0.000767058
0.000765092
0.000763144
0.000761213
0.000759299
0.000757402
0.000755521
0.000753659
0.000751813
0.000749984
0.000748171
0.000746376
0.000744596
0.000742832
0.000741083
0.000739349
0.00073763
0.000735927
0.000734238
0.000732566
0.000730909
0.000729268
0.000727644
0.000726036
0.000724445
0.000722869
0.000721308
0.00071976
0.000718225
0.000716701
0.000715187
0.000713683
0.000712189
0.000710704
0.000709229
0.000707766
0.000706315
0.000704876
0.000703452
0.000702042
0.000700646
0.000699263
0.000697894
0.000696535
0.000695186
0.000693843
0.000692504
0.000691165
0.000689827
0.000688489
0.000687154
0.000685824
0.000684508
0.000683211
0.000681944
0.000680713
0.000679532
0.000678404
0.000677339
0.000676338
0.000675408
0.000674545
0.00067375
0.000673016
0.00067234
0.000671711
0.000671124
0.000670564
0.000670021
0.000669481
0.000668931
0.000668355
0.000667737
0.000667063
0.000666318
0.00066549
0.000664566
0.00066354
0.000662406
0.000661163
0.000659814
0.000658364
0.000656823
0.000655204
0.000653522
0.000651794
0.000650036
0.000648265
0.000646498
0.00064475
0.000643033
0.000641356
0.000639729
0.000638156
0.000636641
0.000635182
0.000633781
0.000632433
0.000631134
0.000629881
0.000628667
0.000627488
0.000626337
0.00062521
0.000624101
0.000623006
0.000621921
0.000620843
0.000619769
0.000618698
0.000617626
0.000616555
0.000615482
0.000614407
0.000613331
0.000612254
0.000611175
0.000610097
0.000609018
0.000607941
0.000606864
0.00060579
0.000604719
0.000603651
0.000602587
0.000601527
0.000600472
0.000599422
0.000598377
0.000597339
0.000596305
0.000595279
0.000594258
0.000593244
0.000592236
0.000591235
0.000590241
0.000589253
0.000588272
0.000587299
0.000586331
0.000585371
0.000584417
0.000583469
0.000582529
0.000581595
0.000580668
0.000579747
0.000578834
0.000577927
0.000577027
0.000576134
0.000575247
0.000574368
0.000573495
0.000572629
0.000571769
0.000570916
0.000570068
0.000569226
0.00056839
0.00056756
0.000566734
0.000565913
0.000565098
0.000564287
0.000563481
0.000562681
0.000561885
0.000561094
0.000560309
0.000559529
0.000558754
0.000557983
0.000557218
0.000556456
0.000555698
0.000554944
0.000554192
0.000553443
0.000552696
0.000551952
0.00055121
0.000550472
0.000549739
0.000549012
0.000548292
0.000547583
0.000546885
0.000546203
0.000545537
0.000544892
0.000544269
0.00054367
0.000543098
0.000542554
0.000542038
0.000541552
0.000541095
0.000540666
0.000540263
0.000539886
0.00053953
0.000539193
0.00053887
0.000538557
0.000538249
0.00053794
0.000537625
0.000537298
0.000536952
0.000536583
0.000536183
0.000535749
0.000535275
0.000534756
0.000534191
0.000533576
0.000532911
0.000532195
0.00053143
0.000530617
0.00052976
0.000528864
0.000527932
0.000526972
0.000525988
0.000524988
0.000523977
0.000522961
0.000521947
0.00052094
0.000519943
0.000518963
0.000518
0.000517059
0.00051614
0.000515245
0.000514375
0.000513528
0.000512705
0.000511903
0.000511123
0.000510361
0.000509617
0.000508888
0.000508173
0.000507468
0.000506775
0.000506088
0.00050541
0.000504735
0.000504065
0.000503397
0.000502732
0.000502068
0.000501405
0.000500741
0.000500079
0.000499416
0.000498753
0.000498089
0.000497426
0.000496762
0.000496099
0.000495436
0.000494774
0.000494113
0.000493453
0.000492794
0.000492137
0.000491482
0.000490829
0.000490177
0.000489529
0.000488883
0.00048824
0.000487599
0.000486962
0.000486327
0.000485696
0.000485068
0.000484444
0.000483823
0.000483205
0.000482591
0.000481981
0.000481374
0.00048077
0.00048017
0.000479574
0.000478982
0.000478393
0.000477808
0.000477227
0.00047665
0.000476076
0.000475506
0.00047494
0.000474377
0.000473819
0.000473263
0.000472711
0.000472163
0.000471618
0.000471077
0.000470538
0.000470003
0.000469471
0.000468942
0.000468417
0.000467894
0.000467374
0.000466856
0.000466342
0.000465831
0.000465322
0.000464815
0.000464312
0.00046381
0.000463311
0.000462815
0.00046232
0.000461828
0.000461337
0.000460849
0.000460362
0.000459878
0.000459396
0.000458916
0.00045844
0.000457966
0.000457497
0.000457032
0.000456572
0.000456118
0.000455671
0.000455233
0.000454803
0.000454383
0.000453974
0.000453577
0.000453193
0.000452822
0.000452466
0.000452124
0.000451796
0.000451484
0.000451186
0.000450903
0.000450633
0.000450376
0.000450131
0.000449896
0.000449669
0.00044945
0.000449234
0.000449022
0.000448809
0.000448594
0.000448373
0.000448145
0.000447907
0.000447655
0.000447388
0.000447102
0.000446797
0.000446469
0.000446118
0.000445741
0.000445338
0.000444908
0.000444452
0.000443968
0.000443459
0.000442925
0.000442367
0.000441787
0.000441188
0.000440572
0.000439942
0.000439299
0.000438648
0.00043799
0.000437329
0.000436666
0.000436005
0.000435348
0.000434696
0.000434051
0.000433415
0.000432789
0.000432173
0.000431569
0.000430976
0.000430396
0.000429826
0.000429268
0.000428721
0.000428185
0.000427658
0.00042714
0.00042663
0.000426128
0.000425632
0.000425143
0.000424658
0.000424178
0.000423701
0.000423228
0.000422757
0.000422288
0.000421821
0.000421355
0.00042089
0.000420426
0.000419963
0.0004195
0.000419037
0.000418574
0.000418111
0.000417649
0.000417187
0.000416726
0.000416265
0.000415804
0.000415344
0.000414885
0.000414426
0.000413969
0.000413512
0.000413057
0.000412603
0.00041215
0.000411699
0.00041125
0.000410802
0.000410356
0.000409912
0.000409469
0.000409029
0.000408591
0.000408155
0.000407721
0.000407289
0.000406859
0.000406432
0.000406007
0.000405584
0.000405164
0.000404745
0.00040433
0.000403916
0.000403506
0.000403097
0.000402691
0.000402287
0.000401886
0.000401487
0.00040109
0.000400696
0.000400303
0.000399914
0.000399526
0.000399141
0.000398757
0.000398376
0.000397997
0.00039762
0.000397245
0.000396872
0.000396501
0.000396132
0.000395764
0.000395399
0.000395034
0.000394672
0.000394311
0.000393953
0.000393595
0.000393239
0.000392885
0.000392532
0.000392181
0.000391831
0.000391482
0.000391136
0.000390791
0.000390448
0.000390107
0.000389768
0.000389432
0.000389098
0.000388767
0.00038844
0.000388117
0.000387798
0.000387483
0.000387173
0.000386869
0.000386571
0.000386279
0.000385994
0.000385717
0.000385446
0.000385184
0.000384929
0.000384683
0.000384445
0.000384216
0.000383994
0.000383781
0.000383575
0.000383376
0.000383184
0.000382999
0.000382818
0.000382643
0.000382471
0.000382302
0.000382134
0.000381967
0.000381798
0.000381628
0.000381455
0.000381277
0.000381093
0.000380901
0.000380701
0.000380491
0.00038027
0.000380038
0.000379792
0.000379532
0.000379258
0.000378968
0.000378663
0.000378342
0.000378006
0.000377654
0.000377286
0.000376904
0.000376508
0.000376098
0.000375676
0.000375242
0.000374799
0.000374347
0.000373887
0.000373421
0.000372951
0.000372477
0.000372001
0.000371525
0.000371048
0.000370574
0.000370101
0.000369633
0.000369168
0.000368708
0.000368253
0.000367804
0.000367361
0.000366925
0.000366494
0.00036607
0.000365652
0.00036524
0.000364834
0.000364434
0.000364038
0.000363648
0.000363262
0.000362881
0.000362503
0.000362129
0.000361758
0.000361389
0.000361023
0.00036066
0.000360298
0.000359937
0.000359578
0.000359221
0.000358864
0.000358508
0.000358152
0.000357798
0.000357443
0.00035709
0.000356736
0.000356384
0.000356031
0.000355679
0.000355327
0.000354976
0.000354625
0.000354275
0.000353926
0.000353577
0.000353228
0.000352881
0.000352534
0.000352188
0.000351843
0.000351499
0.000351156
0.000350814
0.000350473
0.000350134
0.000349795
0.000349458
0.000349122
0.000348787
0.000348454
0.000348122
0.000347792
0.000347463
0.000347135
0.000346809
0.000346485
0.000346162
0.00034584
0.00034552
0.000345202
0.000344885
0.000344569
0.000344255
0.000343943
0.000343632
0.000343322
0.000343014
0.000342708
0.000342403
0.000342099
0.000341797
0.000341496
0.000341196
0.000340898
0.000340601
0.000340305
0.000340011
0.000339718
0.000339426
0.000339135
0.000338846
0.000338557
0.00033827
0.000337983
0.000337698
0.000337414
0.00033713
0.000336848
0.000336567
0.000336287
0.000336008
0.000335729
0.000335453
0.000335177
0.000334903
0.000334629
0.000334358
0.000334087
0.00033382
0.000333552
0.000333289
0.000333025
0.000332767
0.000332508
0.000332255
0.000332001
0.000331756
0.000331507
0.00033127
0.000331028
0.0003308
0.000330565
0.000330347
0.00033012
0.000329912
0.000329693
0.000329496
0.000329285
0.0003291
0.000328896
0.000328722
0.000328526
0.000328361
0.000328173
0.000328017
0.000327834
0.000327685
0.000327506
0.000327363
0.000327187
0.000327046
0.000326871
0.00032673
0.000326554
0.00032641
0.00032623
0.000326079
0.000325894
0.000325733
0.00032554
0.000325367
0.000325162
0.000324974
0.000324757
0.00032455
0.000324318
0.000324092
0.000323844
0.000323596
0.000323332
0.000323062
0.00032278
0.00032249
0.000322188
0.000321879
0.000321559
0.000321232
0.000320896
0.000320553
0.000320202
0.000319846
0.000319483
0.000319116
0.000318744
0.000318369
0.000317991
0.000317611
0.000317229
0.000316847
0.000316465
0.000316083
0.000315702
0.000315322
0.000314945
0.00031457
0.000314197
0.000313827
0.000313461
0.000313097
0.000312737
0.000312381
0.000312028
0.000311679
0.000311332
0.00031099
0.00031065
0.000310314
0.00030998
0.000309649
0.000309321
0.000308995
0.000308672
0.00030835
0.000308031
0.000307713
0.000307397
0.000307082
0.000306768
0.000306456
0.000306144
0.000305834
0.000305524
0.000305215
0.000304907
0.000304599
0.000304292
0.000303986
0.00030368
0.000303374
0.000303069
0.000302765
0.000302461
0.000302158
0.000301856
0.000301555
0.000301254
0.000300955
0.000300656
0.00030036
0.000300064
0.00029977
0.000299477
0.000299188
0.000298899
0.000298615
0.000298331
0.000298053
0.000297775
0.000297504
0.000297233
0.000296971
0.00029671
0.000296459
0.000296208
0.000295969
0.000295731
0.000295507
0.000295284
0.000295076
0.000294869
0.000294679
0.000294492
0.000294321
0.000294154
0.000294003
0.000293857
0.000293728
0.000293602
0.000293493
0.000293389
0.000293299
0.000293215
0.000293143
0.000293076
0.00029302
0.000292971
0.000292927
0.000292892
0.000292861
0.000292835
0.000292815
0.000292799
0.000292786
0.000292777
0.00029277
0.000292766
0.000292765
0.000292765
0.000292766
0.000292768
0.000292768
0.000292767
0.000292762
0.000292743
0.000292723
0.000292497
0.0445235
)
;

boundaryField
{
    inlet
    {
        type            calculated;
        value           uniform 0.000236304;
    }
    outlet
    {
        type            calculated;
        value           uniform 2.244e-05;
    }
    emptyWalls
    {
        type            empty;
    }
}


// ************************************************************************* //
