/*--------------------------------*- C++ -*----------------------------------*\
  =========                 |
  \\      /  F ield         | OpenFOAM: The Open Source CFD Toolbox
   \\    /   O peration     | Website:  https://openfoam.org
    \\  /    A nd           | Version:  9
     \\/     M anipulation  |
\*---------------------------------------------------------------------------*/
FoamFile
{
    format      ascii;
    class       volScalarField;
    location    "1200";
    object      kra;
}
// * * * * * * * * * * * * * * * * * * * * * * * * * * * * * * * * * * * * * //

dimensions      [0 0 0 0 0 0 0];

internalField   nonuniform List<scalar> 
100
(
3.90287e-05
2.85235e-05
3.0619e-05
2.92652e-05
2.90023e-05
2.85631e-05
2.83319e-05
2.80172e-05
2.76305e-05
2.72865e-05
2.75176e-05
2.75827e-05
2.76842e-05
2.77382e-05
2.77999e-05
2.78565e-05
2.79108e-05
2.79581e-05
2.79968e-05
2.80311e-05
2.80613e-05
2.80865e-05
2.81067e-05
2.81226e-05
2.81316e-05
2.81373e-05
2.81392e-05
2.81379e-05
2.8134e-05
2.81282e-05
2.81192e-05
2.81062e-05
2.80869e-05
2.80536e-05
2.79841e-05
2.78199e-05
2.7232e-05
2.12251e-05
1.30334e-06
1.89621e-10
7.95959e-19
3.42603e-35
3.06884e-35
3.06882e-35
3.0688e-35
2.81368e-35
3.06909e-35
3.06942e-35
2.81429e-35
3.06779e-35
2.74105e-35
2.9813e-36
1.1315e-36
1.21196e-36
1.11099e-36
1.17767e-36
1.11099e-36
1.11099e-36
1.17767e-36
1.21174e-36
1.17767e-36
1.21174e-36
1.17767e-36
1.11099e-36
1.11099e-36
1.31689e-36
1.21174e-36
1.28135e-36
1.11099e-36
1.11099e-36
1.21174e-36
1.28135e-36
1.21174e-36
1.31689e-36
1.28135e-36
1.31689e-36
1.21174e-36
1.21174e-36
1.21174e-36
1.28135e-36
1.11099e-36
1.31689e-36
1.21174e-36
1.21174e-36
1.28135e-36
1.07838e-36
1.31689e-36
1.21174e-36
1.28135e-36
1.31689e-36
1.28135e-36
1.31689e-36
1.21174e-36
1.28135e-36
1.31689e-36
1.11099e-36
1.28135e-36
1.31689e-36
1.28135e-36
1.31689e-36
)
;

boundaryField
{
    inlet
    {
        type            calculated;
        value           uniform 1.07824e-05;
    }
    outlet
    {
        type            calculated;
        value           uniform 4.72742e-37;
    }
    emptyWalls
    {
        type            empty;
    }
}


// ************************************************************************* //
