/*--------------------------------*- C++ -*----------------------------------*\
  =========                 |
  \\      /  F ield         | OpenFOAM: The Open Source CFD Toolbox
   \\    /   O peration     | Website:  https://openfoam.org
    \\  /    A nd           | Version:  9
     \\/     M anipulation  |
\*---------------------------------------------------------------------------*/
FoamFile
{
    format      ascii;
    class       volScalarField;
    location    "1200";
    object      p;
}
// * * * * * * * * * * * * * * * * * * * * * * * * * * * * * * * * * * * * * //

dimensions      [0 0 0 0 0 0 0];

internalField   nonuniform List<scalar> 
100
(
5.45361e+06
5.44529e+06
5.43394e+06
5.42338e+06
5.41233e+06
5.40117e+06
5.3899e+06
5.37854e+06
5.36708e+06
5.3555e+06
5.3439e+06
5.33246e+06
5.32109e+06
5.3098e+06
5.29859e+06
5.28744e+06
5.27637e+06
5.26537e+06
5.25444e+06
5.24358e+06
5.23278e+06
5.22205e+06
5.21139e+06
5.20078e+06
5.19024e+06
5.17976e+06
5.16933e+06
5.15896e+06
5.14864e+06
5.13837e+06
5.12814e+06
5.11797e+06
5.10783e+06
5.09775e+06
5.08775e+06
5.0779e+06
5.06835e+06
5.05958e+06
5.05454e+06
5.05239e+06
5.05039e+06
5.04838e+06
5.04638e+06
5.04438e+06
5.04237e+06
5.04037e+06
5.03836e+06
5.03636e+06
5.03436e+06
5.03235e+06
5.03035e+06
5.02837e+06
5.02763e+06
5.02705e+06
5.02646e+06
5.02588e+06
5.0253e+06
5.02472e+06
5.02414e+06
5.02356e+06
5.02297e+06
5.02239e+06
5.02181e+06
5.02123e+06
5.02065e+06
5.02007e+06
5.01949e+06
5.0189e+06
5.01832e+06
5.01774e+06
5.01716e+06
5.01658e+06
5.016e+06
5.01541e+06
5.01483e+06
5.01425e+06
5.01367e+06
5.01309e+06
5.01251e+06
5.01192e+06
5.01134e+06
5.01076e+06
5.01018e+06
5.0096e+06
5.00902e+06
5.00843e+06
5.00785e+06
5.00727e+06
5.00669e+06
5.00611e+06
5.00553e+06
5.00494e+06
5.00436e+06
5.00378e+06
5.0032e+06
5.00262e+06
5.00204e+06
5.00145e+06
5.00087e+06
5.00029e+06
)
;

boundaryField
{
    inlet
    {
        type            darcyGradPressure;
        gradient        uniform 4.2049e+06;
        Mf              Mf;
        phi             phi;
        value           uniform 5.46202e+06;
    }
    outlet
    {
        type            fixedValue;
        value           uniform 5e+06;
    }
    emptyWalls
    {
        type            empty;
    }
}


// ************************************************************************* //
