/*--------------------------------*- C++ -*----------------------------------*\
  =========                 |
  \\      /  F ield         | OpenFOAM: The Open Source CFD Toolbox
   \\    /   O peration     | Website:  https://openfoam.org
    \\  /    A nd           | Version:  9
     \\/     M anipulation  |
\*---------------------------------------------------------------------------*/
FoamFile
{
    format      ascii;
    class       surfaceScalarField;
    location    "1200";
    object      phia;
}
// * * * * * * * * * * * * * * * * * * * * * * * * * * * * * * * * * * * * * //

dimensions      [0 2 0 0 0 0 0];

internalField   nonuniform List<scalar> 
99
(
1.41862e-08
1.4159e-08
1.41283e-08
1.40843e-08
1.40344e-08
1.40161e-08
1.39887e-08
1.39493e-08
1.38961e-08
1.38334e-08
1.37844e-08
1.3734e-08
1.36754e-08
1.36159e-08
1.35556e-08
1.34952e-08
1.34338e-08
1.33692e-08
1.33028e-08
1.32362e-08
1.31692e-08
1.31014e-08
1.30332e-08
1.29641e-08
1.28947e-08
1.28263e-08
1.27593e-08
1.26939e-08
1.26308e-08
1.25703e-08
1.25108e-08
1.24482e-08
1.2371e-08
1.22488e-08
1.20187e-08
1.15528e-08
1.02118e-08
3.35343e-09
6.11053e-11
8.31332e-15
3.48688e-23
2.84531e-39
2.68883e-39
2.68881e-39
2.68878e-39
2.46528e-39
2.68923e-39
2.68939e-39
2.46586e-39
2.68773e-39
2.08585e-39
6.64698e-41
2.89232e-41
3.08194e-41
2.82501e-41
2.99456e-41
2.825e-41
2.825e-41
3.03788e-41
3.0812e-41
2.99456e-41
3.0812e-41
2.90978e-41
2.825e-41
2.825e-41
3.34858e-41
3.0812e-41
3.25821e-41
2.825e-41
2.825e-41
3.1697e-41
3.25821e-41
3.0812e-41
3.34858e-41
3.25821e-41
3.34858e-41
3.0812e-41
3.0812e-41
3.0812e-41
3.25821e-41
2.825e-41
3.34858e-41
3.0812e-41
3.0812e-41
3.25821e-41
2.74209e-41
3.34858e-41
3.0812e-41
3.30339e-41
3.34858e-41
3.25821e-41
3.34858e-41
3.0812e-41
3.30339e-41
3.34858e-41
2.825e-41
3.30339e-41
3.34858e-41
3.25821e-41
)
;

boundaryField
{
    inlet
    {
        type            calculated;
        value           uniform -1.42126e-08;
    }
    outlet
    {
        type            calculated;
        value           uniform 1.20208e-41;
    }
    emptyWalls
    {
        type            empty;
        value           nonuniform List<scalar> 0();
    }
}


// ************************************************************************* //
