/*--------------------------------*- C++ -*----------------------------------*\
  =========                 |
  \\      /  F ield         | OpenFOAM: The Open Source CFD Toolbox
   \\    /   O peration     | Website:  https://openfoam.org
    \\  /    A nd           | Version:  9
     \\/     M anipulation  |
\*---------------------------------------------------------------------------*/
FoamFile
{
    format      ascii;
    class       surfaceScalarField;
    location    "1200";
    object      phib;
}
// * * * * * * * * * * * * * * * * * * * * * * * * * * * * * * * * * * * * * //

dimensions      [0 2 0 0 0 0 0];

internalField   nonuniform List<scalar> 
99
(
6.09013e-09
6.08897e-09
6.08763e-09
6.09878e-09
6.11397e-09
6.09854e-09
6.08936e-09
6.08306e-09
6.07915e-09
6.08253e-09
6.08023e-09
6.07744e-09
6.08184e-09
6.08566e-09
6.08894e-09
6.09079e-09
6.09218e-09
6.09545e-09
6.09945e-09
6.1025e-09
6.10519e-09
6.10804e-09
6.11079e-09
6.11443e-09
6.11875e-09
6.12273e-09
6.12656e-09
6.13041e-09
6.13414e-09
6.13759e-09
6.14153e-09
6.14606e-09
6.15104e-09
6.15788e-09
6.17126e-09
6.20137e-09
6.3169e-09
7.89961e-09
9.11047e-09
9.14581e-09
9.14755e-09
9.14663e-09
9.14634e-09
9.14641e-09
9.14643e-09
9.14622e-09
9.1456e-09
9.14522e-09
9.14514e-09
9.15132e-09
1.007e-08
1.96896e-08
2.00899e-08
2.00942e-08
2.00942e-08
2.00942e-08
2.00942e-08
2.00942e-08
2.00942e-08
2.00942e-08
2.00942e-08
2.00942e-08
2.00942e-08
2.00942e-08
2.00942e-08
2.00942e-08
2.00942e-08
2.00942e-08
2.00942e-08
2.00942e-08
2.00942e-08
2.00942e-08
2.00942e-08
2.00942e-08
2.00942e-08
2.00942e-08
2.00942e-08
2.00942e-08
2.00942e-08
2.00942e-08
2.00942e-08
2.00942e-08
2.00942e-08
2.00942e-08
2.00942e-08
2.00942e-08
2.00942e-08
2.00942e-08
2.00942e-08
2.00942e-08
2.00942e-08
2.00942e-08
2.00942e-08
2.00942e-08
2.00942e-08
2.00942e-08
2.00942e-08
2.00942e-08
2.00942e-08
)
;

boundaryField
{
    inlet
    {
        type            calculated;
        value           uniform -6.09112e-09;
    }
    outlet
    {
        type            calculated;
        value           uniform 2.00942e-08;
    }
    emptyWalls
    {
        type            empty;
        value           nonuniform List<scalar> 0();
    }
}


// ************************************************************************* //
