/*--------------------------------*- C++ -*----------------------------------*\
  =========                 |
  \\      /  F ield         | OpenFOAM: The Open Source CFD Toolbox
   \\    /   O peration     | Website:  https://openfoam.org
    \\  /    A nd           | Version:  9
     \\/     M anipulation  |
\*---------------------------------------------------------------------------*/
FoamFile
{
    format      ascii;
    class       surfaceScalarField;
    location    "1200";
    object      phic;
}
// * * * * * * * * * * * * * * * * * * * * * * * * * * * * * * * * * * * * * //

dimensions      [0 2 0 0 0 0 0];

internalField   nonuniform List<scalar> 
99
(
2.73552e-11
5.57419e-11
8.77791e-11
1.20676e-10
1.55365e-10
1.89049e-10
2.25705e-10
2.71364e-10
3.28455e-10
3.8784e-10
4.39087e-10
4.9228e-10
5.46448e-10
6.02166e-10
6.59232e-10
7.17781e-10
7.77777e-10
8.39056e-10
9.01504e-10
9.65005e-10
1.02936e-09
1.09433e-09
1.15972e-09
1.22517e-09
1.29029e-09
1.35472e-09
1.41792e-09
1.47943e-09
1.53881e-09
1.59583e-09
1.65141e-09
1.70951e-09
1.78175e-09
1.89703e-09
2.11379e-09
2.54954e-09
3.77505e-09
9.0507e-09
1.11322e-08
1.11579e-08
1.11562e-08
1.11571e-08
1.11574e-08
1.11573e-08
1.11573e-08
1.11575e-08
1.11581e-08
1.11585e-08
1.11586e-08
1.11524e-08
1.02337e-08
6.14115e-10
2.13875e-10
2.09534e-10
2.0949e-10
2.0949e-10
2.0949e-10
2.0949e-10
2.0949e-10
2.0949e-10
2.0949e-10
2.0949e-10
2.0949e-10
2.0949e-10
2.0949e-10
2.0949e-10
2.0949e-10
2.0949e-10
2.0949e-10
2.0949e-10
2.0949e-10
2.0949e-10
2.0949e-10
2.0949e-10
2.0949e-10
2.0949e-10
2.0949e-10
2.0949e-10
2.0949e-10
2.0949e-10
2.0949e-10
2.0949e-10
2.0949e-10
2.0949e-10
2.0949e-10
2.0949e-10
2.0949e-10
2.0949e-10
2.0949e-10
2.0949e-10
2.0949e-10
2.0949e-10
2.0949e-10
2.0949e-10
2.0949e-10
2.0949e-10
2.0949e-10
2.0949e-10
2.0949e-10
)
;

boundaryField
{
    inlet
    {
        type            calculated;
        value           uniform 0;
    }
    outlet
    {
        type            calculated;
        value           uniform 2.0949e-10;
    }
    emptyWalls
    {
        type            empty;
        value           nonuniform List<scalar> 0();
    }
}


// ************************************************************************* //
