/*--------------------------------*- C++ -*----------------------------------*\
  =========                 |
  \\      /  F ield         | OpenFOAM: The Open Source CFD Toolbox
   \\    /   O peration     | Website:  https://openfoam.org
    \\  /    A nd           | Version:  9
     \\/     M anipulation  |
\*---------------------------------------------------------------------------*/
FoamFile
{
    format      ascii;
    class       volVectorField;
    location    "1200";
    object      Ua;
}
// * * * * * * * * * * * * * * * * * * * * * * * * * * * * * * * * * * * * * //

dimensions      [0 0 0 0 0 0 0];

internalField   nonuniform List<vector> 
100
(
(0 0 8.79913e-06)
(0 0 1.12782e-05)
(0 0 1.12552e-05)
(0 0 1.12254e-05)
(0 0 1.11881e-05)
(0 0 1.1161e-05)
(0 0 1.11428e-05)
(0 0 1.11162e-05)
(0 0 1.10794e-05)
(0 0 1.10332e-05)
(0 0 1.09888e-05)
(0 0 1.09492e-05)
(0 0 1.09059e-05)
(0 0 1.08589e-05)
(0 0 1.08112e-05)
(0 0 1.07631e-05)
(0 0 1.07147e-05)
(0 0 1.06646e-05)
(0 0 1.06125e-05)
(0 0 1.05595e-05)
(0 0 1.05064e-05)
(0 0 1.04527e-05)
(0 0 1.03986e-05)
(0 0 1.0344e-05)
(0 0 1.02889e-05)
(0 0 1.02341e-05)
(0 0 1.01802e-05)
(0 0 1.01275e-05)
(0 0 1.00764e-05)
(0 0 1.00272e-05)
(0 0 9.97946e-06)
(0 0 9.93086e-06)
(0 0 9.87521e-06)
(0 0 9.7959e-06)
(0 0 9.65573e-06)
(0 0 9.37881e-06)
(0 0 8.65987e-06)
(0 0 5.39743e-06)
(0 0 1.3586e-06)
(0 0 2.43163e-08)
(0 0 3.30776e-12)
(0 0 1.38738e-20)
(0 0 2.20197e-36)
(0 0 2.1397e-36)
(0 0 2.13967e-36)
(0 0 2.05074e-36)
(0 0 2.05092e-36)
(0 0 2.14009e-36)
(0 0 2.05121e-36)
(0 0 2.05055e-36)
(0 0 1.89935e-36)
(0 0 8.56383e-37)
(0 0 3.79557e-38)
(0 0 2.37708e-38)
(0 0 2.3503e-38)
(0 0 2.31553e-38)
(0 0 2.31553e-38)
(0 0 2.24807e-38)
(0 0 2.33277e-38)
(0 0 2.4347e-38)
(0 0 2.41747e-38)
(0 0 2.41747e-38)
(0 0 2.38374e-38)
(0 0 2.2818e-38)
(0 0 2.24807e-38)
(0 0 2.45639e-38)
(0 0 2.55833e-38)
(0 0 2.52237e-38)
(0 0 2.42043e-38)
(0 0 2.24807e-38)
(0 0 2.38522e-38)
(0 0 2.55759e-38)
(0 0 2.52237e-38)
(0 0 2.55833e-38)
(0 0 2.62876e-38)
(0 0 2.62876e-38)
(0 0 2.55833e-38)
(0 0 2.45194e-38)
(0 0 2.45194e-38)
(0 0 2.52237e-38)
(0 0 2.42043e-38)
(0 0 2.45639e-38)
(0 0 2.55833e-38)
(0 0 2.45194e-38)
(0 0 2.52237e-38)
(0 0 2.38744e-38)
(0 0 2.4234e-38)
(0 0 2.55833e-38)
(0 0 2.54035e-38)
(0 0 2.64673e-38)
(0 0 2.62876e-38)
(0 0 2.62876e-38)
(0 0 2.55833e-38)
(0 0 2.54035e-38)
(0 0 2.64673e-38)
(0 0 2.45639e-38)
(0 0 2.43841e-38)
(0 0 2.64673e-38)
(0 0 2.62876e-38)
(0 0 1.77469e-38)
)
;

boundaryField
{
    inlet
    {
        type            fixedValue;
        value           uniform (0 0 1.131e-05);
    }
    outlet
    {
        type            zeroGradient;
    }
    emptyWalls
    {
        type            empty;
    }
}


// ************************************************************************* //
