/*--------------------------------*- C++ -*----------------------------------*\
  =========                 |
  \\      /  F ield         | OpenFOAM: The Open Source CFD Toolbox
   \\    /   O peration     | Website:  https://openfoam.org
    \\  /    A nd           | Version:  9
     \\/     M anipulation  |
\*---------------------------------------------------------------------------*/
FoamFile
{
    format      ascii;
    class       volVectorField;
    location    "1200";
    object      Ub;
}
// * * * * * * * * * * * * * * * * * * * * * * * * * * * * * * * * * * * * * //

dimensions      [0 0 0 0 0 0 0];

internalField   nonuniform List<vector> 
100
(
(0 0 7.32517e-06)
(0 0 4.84591e-06)
(0 0 4.84492e-06)
(0 0 4.84882e-06)
(0 0 4.8593e-06)
(0 0 4.85921e-06)
(0 0 4.84941e-06)
(0 0 4.84325e-06)
(0 0 4.83919e-06)
(0 0 4.83898e-06)
(0 0 4.83941e-06)
(0 0 4.83738e-06)
(0 0 4.83803e-06)
(0 0 4.8413e-06)
(0 0 4.84412e-06)
(0 0 4.84616e-06)
(0 0 4.84745e-06)
(0 0 4.8493e-06)
(0 0 4.8522e-06)
(0 0 4.855e-06)
(0 0 4.85729e-06)
(0 0 4.85949e-06)
(0 0 4.86172e-06)
(0 0 4.86426e-06)
(0 0 4.86743e-06)
(0 0 4.87073e-06)
(0 0 4.87384e-06)
(0 0 4.87689e-06)
(0 0 4.87991e-06)
(0 0 4.88277e-06)
(0 0 4.88571e-06)
(0 0 4.88908e-06)
(0 0 4.89286e-06)
(0 0 4.89757e-06)
(0 0 4.90561e-06)
(0 0 4.92291e-06)
(0 0 4.98086e-06)
(0 0 5.65657e-06)
(0 0 6.7681e-06)
(0 0 7.26394e-06)
(0 0 7.27869e-06)
(0 0 7.27902e-06)
(0 0 7.27854e-06)
(0 0 7.27845e-06)
(0 0 7.27849e-06)
(0 0 7.27841e-06)
(0 0 7.27809e-06)
(0 0 7.27769e-06)
(0 0 7.2775e-06)
(0 0 7.27993e-06)
(0 0 7.64792e-06)
(0 0 1.1841e-05)
(0 0 1.58278e-05)
(0 0 1.59887e-05)
(0 0 1.59905e-05)
(0 0 1.59905e-05)
(0 0 1.59905e-05)
(0 0 1.59905e-05)
(0 0 1.59905e-05)
(0 0 1.59905e-05)
(0 0 1.59905e-05)
(0 0 1.59905e-05)
(0 0 1.59905e-05)
(0 0 1.59905e-05)
(0 0 1.59905e-05)
(0 0 1.59905e-05)
(0 0 1.59905e-05)
(0 0 1.59905e-05)
(0 0 1.59905e-05)
(0 0 1.59905e-05)
(0 0 1.59905e-05)
(0 0 1.59905e-05)
(0 0 1.59905e-05)
(0 0 1.59905e-05)
(0 0 1.59905e-05)
(0 0 1.59905e-05)
(0 0 1.59905e-05)
(0 0 1.59905e-05)
(0 0 1.59905e-05)
(0 0 1.59905e-05)
(0 0 1.59905e-05)
(0 0 1.59905e-05)
(0 0 1.59905e-05)
(0 0 1.59905e-05)
(0 0 1.59905e-05)
(0 0 1.59905e-05)
(0 0 1.59905e-05)
(0 0 1.59905e-05)
(0 0 1.59905e-05)
(0 0 1.59905e-05)
(0 0 1.59905e-05)
(0 0 1.59905e-05)
(0 0 1.59905e-05)
(0 0 1.59905e-05)
(0 0 1.59905e-05)
(0 0 1.59905e-05)
(0 0 1.59905e-05)
(0 0 1.59905e-05)
(0 0 1.59905e-05)
(0 0 1.59905e-05)
)
;

boundaryField
{
    inlet
    {
        type            fixedValue;
        value           uniform (0 0 4.84716e-06);
    }
    outlet
    {
        type            zeroGradient;
    }
    emptyWalls
    {
        type            empty;
    }
}


// ************************************************************************* //
