/*--------------------------------*- C++ -*----------------------------------*\
  =========                 |
  \\      /  F ield         | OpenFOAM: The Open Source CFD Toolbox
   \\    /   O peration     | Website:  https://openfoam.org
    \\  /    A nd           | Version:  9
     \\/     M anipulation  |
\*---------------------------------------------------------------------------*/
FoamFile
{
    format      ascii;
    class       volVectorField;
    location    "1200";
    object      Uc;
}
// * * * * * * * * * * * * * * * * * * * * * * * * * * * * * * * * * * * * * //

dimensions      [0 0 0 0 0 0 0];

internalField   nonuniform List<vector> 
100
(
(0 0 3.29026e-08)
(0 0 3.30633e-08)
(0 0 5.71052e-08)
(0 0 8.29416e-08)
(0 0 1.09833e-07)
(0 0 1.37038e-07)
(0 0 1.65025e-07)
(0 0 1.97778e-07)
(0 0 2.38661e-07)
(0 0 2.85005e-07)
(0 0 3.29024e-07)
(0 0 3.70579e-07)
(0 0 4.13297e-07)
(0 0 4.57019e-07)
(0 0 5.01894e-07)
(0 0 5.47896e-07)
(0 0 5.95064e-07)
(0 0 6.43317e-07)
(0 0 6.92547e-07)
(0 0 7.4266e-07)
(0 0 7.93531e-07)
(0 0 8.44988e-07)
(0 0 8.96858e-07)
(0 0 9.48916e-07)
(0 0 1.00087e-06)
(0 0 1.05241e-06)
(0 0 1.1032e-06)
(0 0 1.15282e-06)
(0 0 1.20092e-06)
(0 0 1.24724e-06)
(0 0 1.29204e-06)
(0 0 1.33727e-06)
(0 0 1.38913e-06)
(0 0 1.46374e-06)
(0 0 1.59585e-06)
(0 0 1.85548e-06)
(0 0 2.51647e-06)
(0 0 5.1032e-06)
(0 0 8.0305e-06)
(0 0 8.86894e-06)
(0 0 8.8785e-06)
(0 0 8.87818e-06)
(0 0 8.87866e-06)
(0 0 8.87875e-06)
(0 0 8.87871e-06)
(0 0 8.87879e-06)
(0 0 8.87911e-06)
(0 0 8.87951e-06)
(0 0 8.8797e-06)
(0 0 8.87727e-06)
(0 0 8.50928e-06)
(0 0 4.31622e-06)
(0 0 3.29447e-07)
(0 0 1.68469e-07)
(0 0 1.66724e-07)
(0 0 1.66707e-07)
(0 0 1.66707e-07)
(0 0 1.66707e-07)
(0 0 1.66707e-07)
(0 0 1.66707e-07)
(0 0 1.66707e-07)
(0 0 1.66707e-07)
(0 0 1.66707e-07)
(0 0 1.66707e-07)
(0 0 1.66707e-07)
(0 0 1.66707e-07)
(0 0 1.66707e-07)
(0 0 1.66707e-07)
(0 0 1.66707e-07)
(0 0 1.66707e-07)
(0 0 1.66707e-07)
(0 0 1.66707e-07)
(0 0 1.66707e-07)
(0 0 1.66707e-07)
(0 0 1.66707e-07)
(0 0 1.66707e-07)
(0 0 1.66707e-07)
(0 0 1.66707e-07)
(0 0 1.66707e-07)
(0 0 1.66707e-07)
(0 0 1.66707e-07)
(0 0 1.66707e-07)
(0 0 1.66707e-07)
(0 0 1.66707e-07)
(0 0 1.66707e-07)
(0 0 1.66707e-07)
(0 0 1.66707e-07)
(0 0 1.66707e-07)
(0 0 1.66707e-07)
(0 0 1.66707e-07)
(0 0 1.66707e-07)
(0 0 1.66707e-07)
(0 0 1.66707e-07)
(0 0 1.66707e-07)
(0 0 1.66707e-07)
(0 0 1.66707e-07)
(0 0 1.66707e-07)
(0 0 1.66707e-07)
(0 0 1.66707e-07)
(0 0 1.66707e-07)
)
;

boundaryField
{
    inlet
    {
        type            fixedValue;
        value           uniform (0 0 0);
    }
    outlet
    {
        type            zeroGradient;
    }
    emptyWalls
    {
        type            empty;
    }
}


// ************************************************************************* //
