/*--------------------------------*- C++ -*----------------------------------*\
  =========                 |
  \\      /  F ield         | OpenFOAM: The Open Source CFD Toolbox
   \\    /   O peration     | Website:  https://openfoam.org
    \\  /    A nd           | Version:  9
     \\/     M anipulation  |
\*---------------------------------------------------------------------------*/
FoamFile
{
    format      ascii;
    class       volScalarField;
    location    "5150";
    object      kra;
}
// * * * * * * * * * * * * * * * * * * * * * * * * * * * * * * * * * * * * * //

dimensions      [0 0 0 0 0 0 0];

internalField   nonuniform List<scalar> 
1000
(
0.000238754
0.000244346
0.00024972
0.000254534
0.000261205
0.000278652
0.000358863
0.000735641
0.000896784
0.000933968
0.000949417
0.000952893
0.000952354
0.000951392
0.000946986
0.000941665
0.000934939
0.000926163
0.000915715
0.000904043
0.000891132
0.000878378
0.000866228
0.000854773
0.000843953
0.000833645
0.000823727
0.000814096
0.000804676
0.000795419
0.000786302
0.000777321
0.000768487
0.000759813
0.000751315
0.000743005
0.00073489
0.000726975
0.000719261
0.000711746
0.000704423
0.000697288
0.000690325
0.000683537
0.000676901
0.00067043
0.000664093
0.000657919
0.00065186
0.000645965
0.00064017
0.000634536
0.000628989
0.000623601
0.000618292
0.000613133
0.000608053
0.000603109
0.000598249
0.000593505
0.000588854
0.0005843
0.000579842
0.000575468
0.000571187
0.000566984
0.000562866
0.000558825
0.00055486
0.000550969
0.000547147
0.000543395
0.000539708
0.000536084
0.000532521
0.000529014
0.000525565
0.000522168
0.000518822
0.000515527
0.000512279
0.000509078
0.000505922
0.000502811
0.000499743
0.000496719
0.000493737
0.000490797
0.000487899
0.000485041
0.000482226
0.000479449
0.000476713
0.000474016
0.000471357
0.000468738
0.000466155
0.00046361
0.000461101
0.000458627
0.00045619
0.000453787
0.000451418
0.000449081
0.000446776
0.000444503
0.000442259
0.000440044
0.000437857
0.000435696
0.00043356
0.000431448
0.000429358
0.00042729
0.000425242
0.000423215
0.000421207
0.000419218
0.00041725
0.000415301
0.000413374
0.000411468
0.000409583
0.000407719
0.000405875
0.000404052
0.000402249
0.000400464
0.000398698
0.00039695
0.000395222
0.000393515
0.000391831
0.000390173
0.000388543
0.000386946
0.000385383
0.000383859
0.000382375
0.000380932
0.000379533
0.000378176
0.00037686
0.000375583
0.00037434
0.000373128
0.000371941
0.000370772
0.000369615
0.00036846
0.0003673
0.000366125
0.000364927
0.000363695
0.000362421
0.000361097
0.000359716
0.000358271
0.000356757
0.000355173
0.000353517
0.000351793
0.000350004
0.000348158
0.000346264
0.000344332
0.000342374
0.000340404
0.000338434
0.000336475
0.000334541
0.00033264
0.000330781
0.000328971
0.000327212
0.00032551
0.000323863
0.000322273
0.000320736
0.000319248
0.000317808
0.000316408
0.000315046
0.000313716
0.000312416
0.00031114
0.000309887
0.000308657
0.000307445
0.000306257
0.000305092
0.000303957
0.000302855
0.000301793
0.000300776
0.000299804
0.000298878
0.000297979
0.000297078
0.000296105
0.00029494
0.000293375
0.00029108
0.000287597
0.000282434
0.000275401
0.00026711
0.000259128
0.000253049
0.000249328
0.00024738
0.00024643
0.000245965
0.000245725
0.00024559
0.000245505
0.000245445
0.000245397
0.000245354
0.000245314
0.000245274
0.000245235
0.000245196
0.000245156
0.000245115
0.000245075
0.000245033
0.000244991
0.000244949
0.000244907
0.000244864
0.000244821
0.000244778
0.000244734
0.000244691
0.000244648
0.000244605
0.000244563
0.000244521
0.00024448
0.000244439
0.000244399
0.00024436
0.000244322
0.000244286
0.00024425
0.000244216
0.000244183
0.000244152
0.000244122
0.000244094
0.000244068
0.000244043
0.00024402
0.000243998
0.000243978
0.00024396
0.000243943
0.000243928
0.000243915
0.000243902
0.000243892
0.000243882
0.000243874
0.000243867
0.000243861
0.000243856
0.000243852
0.000243849
0.000243846
0.000243844
0.000243843
0.000243842
0.000243842
0.000243842
0.000243842
0.000243842
0.000243843
0.000243843
0.000243844
0.000243844
0.000243846
0.000243847
0.000243848
0.000243849
0.000243851
0.000243852
0.000243855
0.000243857
0.00024386
0.000243863
0.000243868
0.000243872
0.000243879
0.000243886
0.000243894
0.000243903
0.000243915
0.000243927
0.000243942
0.000243957
0.000243975
0.000243994
0.000244016
0.000244039
0.000244065
0.000244092
0.000244123
0.000244154
0.000244189
0.000244224
0.000244263
0.000244303
0.000244346
0.000244389
0.000244436
0.000244484
0.000244534
0.000244586
0.00024464
0.000244694
0.000244752
0.00024481
0.000244871
0.000244932
0.000244997
0.000245063
0.000245132
0.000245203
0.000245278
0.000245355
0.000245437
0.000245523
0.000245614
0.00024571
0.000245813
0.000245921
0.000246037
0.000246159
0.00024629
0.000246428
0.000246575
0.000246729
0.000246893
0.000247063
0.000247241
0.000247425
0.000247616
0.000247811
0.00024801
0.000248212
0.000248415
0.000248616
0.000248815
0.000249008
0.000249195
0.000249371
0.000249536
0.000249687
0.000249821
0.000249935
0.000250029
0.000250097
0.00025014
0.000250157
0.000250159
0.000250157
0.00025014
0.000250056
0.000249936
0.000249787
0.000249613
0.000249416
0.000249198
0.000248963
0.000248714
0.000248455
0.000248189
0.00024792
0.000247652
0.000247389
0.000247133
0.000246888
0.000246656
0.000246439
0.000246239
0.000246057
0.000245893
0.000245747
0.000245621
0.000245512
0.000245421
0.000245346
0.000245285
0.000245239
0.000245205
0.000245182
0.000245168
0.000245162
0.00024516
0.000245161
0.000245164
0.000245177
0.000245193
0.000245209
0.000245225
0.00024524
0.000245254
0.000245265
0.000245274
0.000245279
0.000245283
0.000245283
0.000245283
0.000245283
0.000245278
0.000245267
0.000245254
0.000245238
0.000245221
0.000245201
0.00024518
0.000245158
0.000245134
0.000245109
0.000245083
0.000245056
0.000245029
0.000245001
0.000244973
0.000244945
0.000244916
0.000244887
0.000244859
0.00024483
0.000244801
0.000244772
0.000244743
0.000244714
0.000244686
0.000244657
0.000244629
0.0002446
0.000244572
0.000244544
0.000244516
0.000244488
0.00024446
0.000244432
0.000244404
0.000244376
0.000244348
0.00024432
0.000244293
0.000244265
0.000244238
0.000244211
0.000244183
0.000244157
0.00024413
0.000244104
0.000244078
0.000244053
0.000244028
0.000244003
0.000243979
0.000243956
0.000243934
0.000243912
0.000243891
0.000243871
0.000243852
0.000243834
0.000243817
0.000243802
0.000243787
0.000243773
0.000243761
0.00024375
0.000243741
0.000243732
0.000243725
0.000243719
0.000243715
0.000243711
0.000243709
0.000243708
0.000243708
0.000243708
0.000243709
0.000243713
0.000243717
0.000243723
0.000243729
0.000243736
0.000243743
0.000243752
0.000243761
0.00024377
0.00024378
0.00024379
0.0002438
0.000243811
0.000243821
0.000243832
0.000243842
0.000243853
0.000243863
0.000243874
0.000243885
0.000243896
0.000243906
0.000243918
0.000243929
0.000243941
0.000243953
0.000243967
0.00024398
0.000243995
0.000244011
0.000244028
0.000244046
0.000244067
0.000244088
0.000244112
0.000244138
0.000244166
0.000244196
0.000244229
0.000244264
0.000244303
0.000244344
0.000244389
0.000244436
0.000244487
0.00024454
0.000244599
0.00024466
0.000244726
0.000244795
0.000244869
0.000244946
0.00024503
0.000245117
0.00024521
0.000245307
0.00024541
0.000245518
0.000245633
0.000245752
0.000245878
0.000246009
0.000246147
0.000246289
0.000246438
0.000246591
0.000246749
0.000246911
0.000247078
0.000247247
0.00024742
0.000247593
0.000247767
0.00024794
0.000248112
0.00024828
0.000248445
0.000248602
0.000248754
0.000248895
0.000249027
0.000249145
0.000249251
0.000249341
0.000249415
0.000249469
0.000249504
0.000249519
0.000249521
0.000249519
0.00024951
0.000249448
0.000249359
0.000249247
0.000249115
0.000248964
0.000248796
0.000248612
0.000248416
0.000248208
0.000247993
0.000247772
0.000247548
0.000247325
0.000247103
0.000246886
0.000246676
0.000246475
0.000246284
0.000246104
0.000245937
0.000245783
0.000245643
0.000245517
0.000245406
0.000245307
0.000245222
0.000245149
0.000245089
0.000245039
0.000244999
0.000244968
0.000244945
0.00024493
0.00024492
0.000244916
0.000244915
0.000244915
0.000244916
0.000244925
0.000244935
0.000244945
0.000244956
0.000244966
0.000244976
0.000244984
0.000244991
0.000244996
0.000245
0.000245002
0.000245003
0.000245003
0.000245003
0.000245001
0.000244996
0.000244989
0.000244982
0.000244973
0.000244964
0.000244954
0.000244943
0.000244932
0.000244921
0.00024491
0.000244898
0.000244887
0.000244876
0.000244865
0.000244854
0.000244844
0.000244833
0.000244823
0.000244814
0.000244804
0.000244795
0.000244786
0.000244778
0.000244769
0.000244761
0.000244753
0.000244745
0.000244737
0.000244729
0.00024472
0.000244712
0.000244703
0.000244694
0.000244684
0.000244675
0.000244664
0.000244653
0.000244642
0.00024463
0.000244617
0.000244603
0.000244589
0.000244574
0.000244558
0.000244542
0.000244524
0.000244506
0.000244487
0.000244468
0.000244447
0.000244426
0.000244405
0.000244383
0.00024436
0.000244337
0.000244314
0.00024429
0.000244266
0.000244242
0.000244219
0.000244195
0.000244172
0.000244149
0.000244126
0.000244104
0.000244083
0.000244063
0.000244043
0.000244025
0.000244008
0.000243992
0.000243977
0.000243964
0.000243952
0.000243942
0.000243933
0.000243926
0.000243921
0.000243918
0.000243916
0.000243915
0.000243916
0.000243916
0.00024392
0.000243927
0.000243935
0.000243945
0.000243957
0.00024397
0.000243985
0.000244001
0.000244019
0.000244037
0.000244057
0.000244078
0.0002441
0.000244122
0.000244146
0.00024417
0.000244195
0.000244221
0.000244248
0.000244274
0.000244302
0.00024433
0.00024436
0.000244389
0.00024442
0.000244451
0.000244484
0.000244517
0.000244552
0.000244589
0.000244627
0.000244667
0.00024471
0.000244754
0.000244803
0.000244853
0.000244908
0.000244966
0.000245029
0.000245095
0.000245167
0.000245243
0.000245325
0.000245412
0.000245506
0.000245604
0.00024571
0.000245821
0.000245939
0.000246062
0.000246192
0.000246327
0.000246468
0.000246614
0.000246766
0.000246921
0.000247081
0.000247242
0.000247408
0.000247573
0.000247741
0.000247907
0.000248072
0.000248234
0.000248393
0.000248546
0.000248693
0.000248832
0.000248963
0.000249082
0.000249191
0.000249286
0.000249367
0.000249431
0.00024948
0.000249509
0.000249521
0.000249522
0.00024952
0.000249508
0.000249449
0.000249366
0.000249263
0.000249141
0.000249002
0.000248847
0.000248677
0.000248495
0.000248301
0.000248099
0.00024789
0.000247677
0.000247461
0.000247246
0.000247032
0.000246823
0.000246619
0.000246422
0.000246234
0.000246056
0.000245889
0.000245733
0.000245589
0.000245457
0.000245337
0.00024523
0.000245134
0.00024505
0.000244976
0.000244913
0.00024486
0.000244816
0.000244779
0.00024475
0.000244728
0.000244711
0.000244699
0.000244691
0.000244687
0.000244685
0.000244685
0.000244686
0.000244688
0.000244686
0.000244672
0.000244485
0.000243688
0.000238352
0.00015665
6.13895e-06
1.5953e-09
1.66559e-17
9.08683e-35
2.64594e-71
7.39752e-150
1.07021e-315
0
0
0
0
0
0
0
0
0
0
0
0
0
0
0
0
0
0
0
0
0
0
0
0
0
0
0
0
0
0
0
0
0
0
0
0
0
0
0
0
0
0
0
0
0
0
0
0
0
0
0
0
0
0
0
0
0
0
0
0
0
0
0
0
0
0
0
0
0
0
0
0
0
0
0
0
0
0
0
0
0
0
0
0
0
0
0
0
0
0
0
0
0
0
0
0
0
0
0
0
0
0
0
0
0
0
0
0
0
0
0
0
0
0
0
0
0
0
0
0
0
0
0
0
0
0
0
0
0
0
0
0
0
0
0
0
0
0
0
0
0
0
0
0
0
0
0
)
;

boundaryField
{
    inlet
    {
        type            calculated;
        value           uniform 0.000236304;
    }
    outlet
    {
        type            calculated;
        value           uniform 0;
    }
    emptyWalls
    {
        type            empty;
    }
}


// ************************************************************************* //
