/*--------------------------------*- C++ -*----------------------------------*\
  =========                 |
  \\      /  F ield         | OpenFOAM: The Open Source CFD Toolbox
   \\    /   O peration     | Website:  https://openfoam.org
    \\  /    A nd           | Version:  9
     \\/     M anipulation  |
\*---------------------------------------------------------------------------*/
FoamFile
{
    format      ascii;
    class       surfaceScalarField;
    location    "5150";
    object      phia;
}
// * * * * * * * * * * * * * * * * * * * * * * * * * * * * * * * * * * * * * //

dimensions      [0 2 0 0 0 0 0];

internalField   nonuniform List<scalar> 
999
(
2.74901e-10
2.74703e-10
2.74517e-10
2.74109e-10
2.72941e-10
2.69087e-10
2.47157e-10
2.18995e-10
2.15296e-10
2.14507e-10
2.13738e-10
2.12669e-10
2.11691e-10
2.10794e-10
2.0958e-10
2.08331e-10
2.07051e-10
2.05919e-10
2.05082e-10
2.04559e-10
2.042e-10
2.03996e-10
2.03928e-10
2.03966e-10
2.04071e-10
2.04211e-10
2.04358e-10
2.0449e-10
2.04594e-10
2.04663e-10
2.04696e-10
2.04694e-10
2.04663e-10
2.04608e-10
2.04534e-10
2.04447e-10
2.04349e-10
2.04246e-10
2.04138e-10
2.04027e-10
2.03914e-10
2.03798e-10
2.03681e-10
2.03561e-10
2.03438e-10
2.03313e-10
2.03187e-10
2.03059e-10
2.0293e-10
2.028e-10
2.0267e-10
2.0254e-10
2.0241e-10
2.02281e-10
2.02153e-10
2.02027e-10
2.01902e-10
2.0178e-10
2.01659e-10
2.01542e-10
2.01426e-10
2.01314e-10
2.01203e-10
2.01094e-10
2.00989e-10
2.00884e-10
2.00783e-10
2.00683e-10
2.00585e-10
2.00489e-10
2.00395e-10
2.00302e-10
2.0021e-10
2.0012e-10
2.0003e-10
1.9994e-10
1.99851e-10
1.99762e-10
1.99672e-10
1.99583e-10
1.99493e-10
1.99403e-10
1.99312e-10
1.99221e-10
1.9913e-10
1.9904e-10
1.9895e-10
1.9886e-10
1.98771e-10
1.98683e-10
1.98596e-10
1.98511e-10
1.98427e-10
1.98344e-10
1.98264e-10
1.98185e-10
1.98108e-10
1.98034e-10
1.97961e-10
1.97891e-10
1.97823e-10
1.97757e-10
1.97694e-10
1.97632e-10
1.97573e-10
1.97515e-10
1.97459e-10
1.97405e-10
1.97351e-10
1.97298e-10
1.97246e-10
1.97195e-10
1.97143e-10
1.97091e-10
1.97038e-10
1.96985e-10
1.96932e-10
1.96879e-10
1.96826e-10
1.96773e-10
1.96722e-10
1.96672e-10
1.96623e-10
1.96575e-10
1.96529e-10
1.96484e-10
1.9644e-10
1.96398e-10
1.96356e-10
1.96317e-10
1.96279e-10
1.96245e-10
1.96215e-10
1.96191e-10
1.96174e-10
1.96167e-10
1.9617e-10
1.96185e-10
1.96214e-10
1.96256e-10
1.96314e-10
1.96385e-10
1.96471e-10
1.96568e-10
1.96677e-10
1.96795e-10
1.96919e-10
1.97045e-10
1.97172e-10
1.97294e-10
1.97407e-10
1.97508e-10
1.97592e-10
1.97654e-10
1.9769e-10
1.97695e-10
1.97668e-10
1.97604e-10
1.97502e-10
1.9736e-10
1.97179e-10
1.9696e-10
1.96706e-10
1.9642e-10
1.96107e-10
1.95772e-10
1.95422e-10
1.95063e-10
1.94701e-10
1.94343e-10
1.93994e-10
1.93659e-10
1.93343e-10
1.93047e-10
1.92775e-10
1.92528e-10
1.92306e-10
1.92109e-10
1.91935e-10
1.91784e-10
1.91652e-10
1.91537e-10
1.91438e-10
1.91351e-10
1.91274e-10
1.91205e-10
1.91143e-10
1.91083e-10
1.91027e-10
1.90972e-10
1.90917e-10
1.90862e-10
1.90807e-10
1.90751e-10
1.90696e-10
1.90639e-10
1.90582e-10
1.90522e-10
1.90454e-10
1.90372e-10
1.90262e-10
1.901e-10
1.89853e-10
1.89475e-10
1.88926e-10
1.88216e-10
1.87442e-10
1.86771e-10
1.8631e-10
1.86046e-10
1.85907e-10
1.8583e-10
1.85782e-10
1.85748e-10
1.8572e-10
1.85694e-10
1.85669e-10
1.85644e-10
1.85619e-10
1.85594e-10
1.85569e-10
1.85543e-10
1.85517e-10
1.8549e-10
1.85463e-10
1.85435e-10
1.85408e-10
1.8538e-10
1.85351e-10
1.85323e-10
1.85294e-10
1.85265e-10
1.85237e-10
1.85208e-10
1.85179e-10
1.8515e-10
1.85122e-10
1.85094e-10
1.85066e-10
1.85038e-10
1.85011e-10
1.84985e-10
1.84959e-10
1.84935e-10
1.8491e-10
1.84887e-10
1.84865e-10
1.84843e-10
1.84823e-10
1.84804e-10
1.84785e-10
1.84768e-10
1.84752e-10
1.84737e-10
1.84723e-10
1.84711e-10
1.84699e-10
1.84688e-10
1.84679e-10
1.8467e-10
1.84663e-10
1.84656e-10
1.8465e-10
1.84645e-10
1.8464e-10
1.84637e-10
1.84634e-10
1.84631e-10
1.84629e-10
1.84628e-10
1.84627e-10
1.84626e-10
1.84626e-10
1.84626e-10
1.84626e-10
1.84626e-10
1.84626e-10
1.84626e-10
1.84627e-10
1.84627e-10
1.84628e-10
1.84629e-10
1.84629e-10
1.8463e-10
1.84631e-10
1.84632e-10
1.84634e-10
1.84635e-10
1.84637e-10
1.84639e-10
1.84642e-10
1.84645e-10
1.84648e-10
1.84653e-10
1.84658e-10
1.84664e-10
1.84671e-10
1.84679e-10
1.84688e-10
1.84698e-10
1.84709e-10
1.84721e-10
1.84735e-10
1.8475e-10
1.84767e-10
1.84784e-10
1.84804e-10
1.84824e-10
1.84846e-10
1.8487e-10
1.84895e-10
1.84921e-10
1.84948e-10
1.84977e-10
1.85008e-10
1.85039e-10
1.85072e-10
1.85106e-10
1.85141e-10
1.85178e-10
1.85215e-10
1.85254e-10
1.85293e-10
1.85334e-10
1.85377e-10
1.8542e-10
1.85465e-10
1.85512e-10
1.85561e-10
1.85612e-10
1.85665e-10
1.85721e-10
1.8578e-10
1.85842e-10
1.85908e-10
1.85979e-10
1.86054e-10
1.86133e-10
1.86218e-10
1.86307e-10
1.86402e-10
1.86503e-10
1.86609e-10
1.8672e-10
1.86836e-10
1.86956e-10
1.87081e-10
1.8721e-10
1.87341e-10
1.87475e-10
1.87609e-10
1.87744e-10
1.87877e-10
1.88007e-10
1.88133e-10
1.88254e-10
1.88368e-10
1.88473e-10
1.88567e-10
1.8865e-10
1.88719e-10
1.88773e-10
1.8881e-10
1.8883e-10
1.88836e-10
1.88836e-10
1.88833e-10
1.88802e-10
1.88728e-10
1.88639e-10
1.88532e-10
1.88408e-10
1.88271e-10
1.8812e-10
1.87959e-10
1.8779e-10
1.87615e-10
1.87437e-10
1.87258e-10
1.87081e-10
1.86908e-10
1.86742e-10
1.86583e-10
1.86433e-10
1.86294e-10
1.86166e-10
1.86051e-10
1.85948e-10
1.85857e-10
1.85778e-10
1.85711e-10
1.85656e-10
1.85611e-10
1.85575e-10
1.85548e-10
1.85529e-10
1.85517e-10
1.8551e-10
1.85508e-10
1.85507e-10
1.85508e-10
1.85513e-10
1.85524e-10
1.85534e-10
1.85545e-10
1.85556e-10
1.85565e-10
1.85573e-10
1.8558e-10
1.85585e-10
1.85588e-10
1.85589e-10
1.85589e-10
1.85589e-10
1.85588e-10
1.85582e-10
1.85574e-10
1.85564e-10
1.85553e-10
1.85541e-10
1.85528e-10
1.85513e-10
1.85497e-10
1.85481e-10
1.85464e-10
1.85447e-10
1.85429e-10
1.8541e-10
1.85392e-10
1.85373e-10
1.85354e-10
1.85334e-10
1.85315e-10
1.85296e-10
1.85277e-10
1.85257e-10
1.85238e-10
1.85219e-10
1.852e-10
1.85181e-10
1.85162e-10
1.85143e-10
1.85124e-10
1.85105e-10
1.85086e-10
1.85067e-10
1.85048e-10
1.8503e-10
1.85011e-10
1.84992e-10
1.84974e-10
1.84955e-10
1.84937e-10
1.84918e-10
1.849e-10
1.84882e-10
1.84864e-10
1.84846e-10
1.84828e-10
1.8481e-10
1.84793e-10
1.84776e-10
1.84759e-10
1.84742e-10
1.84726e-10
1.8471e-10
1.84695e-10
1.8468e-10
1.84666e-10
1.84652e-10
1.84639e-10
1.84627e-10
1.84615e-10
1.84604e-10
1.84594e-10
1.84585e-10
1.84576e-10
1.84569e-10
1.84562e-10
1.84556e-10
1.8455e-10
1.84546e-10
1.84543e-10
1.8454e-10
1.84538e-10
1.84537e-10
1.84537e-10
1.84537e-10
1.84537e-10
1.84538e-10
1.84541e-10
1.84544e-10
1.84548e-10
1.84553e-10
1.84558e-10
1.84563e-10
1.84569e-10
1.84575e-10
1.84581e-10
1.84588e-10
1.84595e-10
1.84602e-10
1.84609e-10
1.84616e-10
1.84623e-10
1.8463e-10
1.84637e-10
1.84644e-10
1.84651e-10
1.84658e-10
1.84666e-10
1.84673e-10
1.84681e-10
1.84689e-10
1.84697e-10
1.84705e-10
1.84714e-10
1.84724e-10
1.84734e-10
1.84745e-10
1.84757e-10
1.8477e-10
1.84784e-10
1.84799e-10
1.84815e-10
1.84833e-10
1.84853e-10
1.84874e-10
1.84897e-10
1.84922e-10
1.84948e-10
1.84977e-10
1.85007e-10
1.8504e-10
1.85075e-10
1.85113e-10
1.85152e-10
1.85195e-10
1.8524e-10
1.85288e-10
1.85338e-10
1.85392e-10
1.85449e-10
1.85509e-10
1.85572e-10
1.85639e-10
1.8571e-10
1.85784e-10
1.85862e-10
1.85944e-10
1.8603e-10
1.8612e-10
1.86213e-10
1.8631e-10
1.86411e-10
1.86514e-10
1.86621e-10
1.86731e-10
1.86843e-10
1.86957e-10
1.87072e-10
1.87187e-10
1.87303e-10
1.87418e-10
1.87531e-10
1.87642e-10
1.87749e-10
1.87852e-10
1.87949e-10
1.8804e-10
1.88123e-10
1.88198e-10
1.88263e-10
1.88317e-10
1.8836e-10
1.8839e-10
1.88406e-10
1.88412e-10
1.88412e-10
1.88409e-10
1.88392e-10
1.88334e-10
1.88268e-10
1.88187e-10
1.88092e-10
1.87986e-10
1.87869e-10
1.87743e-10
1.87608e-10
1.87467e-10
1.87322e-10
1.87174e-10
1.87025e-10
1.86877e-10
1.86731e-10
1.86588e-10
1.86451e-10
1.8632e-10
1.86197e-10
1.86081e-10
1.85974e-10
1.85876e-10
1.85788e-10
1.85708e-10
1.85638e-10
1.85577e-10
1.85524e-10
1.8548e-10
1.85443e-10
1.85413e-10
1.85389e-10
1.85371e-10
1.85358e-10
1.8535e-10
1.85345e-10
1.85344e-10
1.85343e-10
1.85343e-10
1.85346e-10
1.85353e-10
1.8536e-10
1.85367e-10
1.85374e-10
1.85381e-10
1.85387e-10
1.85392e-10
1.85396e-10
1.85399e-10
1.85401e-10
1.85402e-10
1.85402e-10
1.85402e-10
1.85402e-10
1.85399e-10
1.85395e-10
1.8539e-10
1.85385e-10
1.85379e-10
1.85372e-10
1.85366e-10
1.85358e-10
1.85351e-10
1.85344e-10
1.85336e-10
1.85329e-10
1.85321e-10
1.85314e-10
1.85306e-10
1.85299e-10
1.85292e-10
1.85285e-10
1.85279e-10
1.85273e-10
1.85266e-10
1.8526e-10
1.85255e-10
1.85249e-10
1.85243e-10
1.85238e-10
1.85232e-10
1.85227e-10
1.85222e-10
1.85216e-10
1.8521e-10
1.85205e-10
1.85199e-10
1.85192e-10
1.85186e-10
1.85179e-10
1.85172e-10
1.85165e-10
1.85157e-10
1.85148e-10
1.8514e-10
1.8513e-10
1.85121e-10
1.8511e-10
1.85099e-10
1.85088e-10
1.85076e-10
1.85064e-10
1.85051e-10
1.85038e-10
1.85024e-10
1.8501e-10
1.84995e-10
1.8498e-10
1.84965e-10
1.84949e-10
1.84934e-10
1.84918e-10
1.84902e-10
1.84886e-10
1.8487e-10
1.84854e-10
1.84839e-10
1.84824e-10
1.84809e-10
1.84795e-10
1.84781e-10
1.84767e-10
1.84755e-10
1.84743e-10
1.84732e-10
1.84722e-10
1.84712e-10
1.84704e-10
1.84697e-10
1.8469e-10
1.84685e-10
1.84681e-10
1.84678e-10
1.84676e-10
1.84676e-10
1.84675e-10
1.84676e-10
1.84677e-10
1.84681e-10
1.84686e-10
1.84692e-10
1.84699e-10
1.84708e-10
1.84717e-10
1.84727e-10
1.84739e-10
1.84751e-10
1.84763e-10
1.84777e-10
1.84791e-10
1.84806e-10
1.84822e-10
1.84838e-10
1.84854e-10
1.84871e-10
1.84889e-10
1.84906e-10
1.84925e-10
1.84943e-10
1.84963e-10
1.84982e-10
1.85002e-10
1.85023e-10
1.85044e-10
1.85066e-10
1.85089e-10
1.85113e-10
1.85138e-10
1.85164e-10
1.85192e-10
1.85221e-10
1.85252e-10
1.85285e-10
1.8532e-10
1.85358e-10
1.85398e-10
1.85441e-10
1.85487e-10
1.85537e-10
1.8559e-10
1.85646e-10
1.85706e-10
1.85771e-10
1.85839e-10
1.85911e-10
1.85987e-10
1.86068e-10
1.86152e-10
1.86241e-10
1.86333e-10
1.86429e-10
1.86528e-10
1.8663e-10
1.86735e-10
1.86842e-10
1.86951e-10
1.87061e-10
1.87172e-10
1.87283e-10
1.87393e-10
1.87502e-10
1.87609e-10
1.87713e-10
1.87813e-10
1.87908e-10
1.87998e-10
1.88081e-10
1.88157e-10
1.88224e-10
1.88283e-10
1.88331e-10
1.88369e-10
1.88395e-10
1.88408e-10
1.88413e-10
1.88413e-10
1.88409e-10
1.88388e-10
1.88337e-10
1.88275e-10
1.882e-10
1.88114e-10
1.88016e-10
1.87908e-10
1.87791e-10
1.87665e-10
1.87534e-10
1.87397e-10
1.87256e-10
1.87114e-10
1.8697e-10
1.86827e-10
1.86686e-10
1.86548e-10
1.86415e-10
1.86286e-10
1.86164e-10
1.86049e-10
1.85941e-10
1.85841e-10
1.85749e-10
1.85665e-10
1.85589e-10
1.85521e-10
1.85461e-10
1.85409e-10
1.85363e-10
1.85324e-10
1.85292e-10
1.85265e-10
1.85243e-10
1.85226e-10
1.85213e-10
1.85203e-10
1.85196e-10
1.85192e-10
1.8519e-10
1.8519e-10
1.8519e-10
1.85191e-10
1.85192e-10
1.85186e-10
1.85163e-10
1.84807e-10
1.83457e-10
1.73735e-10
6.64588e-11
2.59318e-12
6.73263e-16
7.02897e-24
3.83475e-41
1.11662e-77
3.12184e-156
0
0
0
0
0
0
0
0
0
0
0
0
0
0
0
0
0
0
0
0
0
0
0
0
0
0
0
0
0
0
0
0
0
0
0
0
0
0
0
0
0
0
0
0
0
0
0
0
0
0
0
0
0
0
0
0
0
0
0
0
0
0
0
0
0
0
0
0
0
0
0
0
0
0
0
0
0
0
0
0
0
0
0
0
0
0
0
0
0
0
0
0
0
0
0
0
0
0
0
0
0
0
0
0
0
0
0
0
0
0
0
0
0
0
0
0
0
0
0
0
0
0
0
0
0
0
0
0
0
0
0
0
0
0
0
0
0
0
0
0
0
0
0
0
0
0
0
)
;

boundaryField
{
    inlet
    {
        type            calculated;
        value           uniform -2.74882e-10;
    }
    outlet
    {
        type            calculated;
        value           uniform 0;
    }
    emptyWalls
    {
        type            empty;
        value           nonuniform List<scalar> 0();
    }
}


// ************************************************************************* //
