/*--------------------------------*- C++ -*----------------------------------*\
  =========                 |
  \      /  F ield         | OpenFOAM: The Open Source CFD Toolbox
   \    /   O peration     | Website:  https://openfoam.org
    \  /    A nd           | Version:  9
     \/     M anipulation  |
\*---------------------------------------------------------------------------*/
FoamFile
{
    format      ascii;
    class       volScalarField;
    location    "0";
    object      K;
}
// * * * * * * * * * * * * * * * * * * * * * * * * * * * * * * * * * * * * * //

dimensions      [0 0 0 0 0 0 0];

internalField   nonuniform List<scalar> 
3300
(
    4.389792894159751e-12
    2.083444432465e-12
    2.8939107810415e-12
    3.1591044736762504e-12
    2.633654172215e-12
    1.63785102982325e-12
    3.3705108464610003e-12
    3.748226131837e-12
    9.366565822919251e-12
    2.2048335310567503e-11
    1.7835653204517503e-11
    2.9049149758365004e-11
    1.568749867857975e-11
    1.058877163763925e-11
    1.4510683933735e-11
    1.111299568690025e-11
    4.047885653416001e-11
    8.155028649072251e-11
    3.5858895855282505e-10
    7.533333587395e-10
    9.172879657986e-10
    2.2539995825545003e-10
    1.2886099620372002e-10
    1.1672082801733752e-10
    1.339881367664675e-10
    1.2481145251916e-10
    8.31275626357e-11
    6.100180319224751e-11
    3.2324353421745005e-11
    2.4810398073345504e-11
    7.6522134334965e-12
    2.5346238209847503e-11
    5.36306211030425e-11
    1.5401564792795502e-10
    3.9428177988980003e-10
    3.6803381453382505e-10
    2.38770745777685e-10
    1.4046309380694252e-10
    8.7773356031955e-11
    3.32056019093975e-11
    3.3380558737405e-11
    3.850861220420501e-11
    3.651747717529725e-11
    1.1103279427011751e-11
    7.340422157252251e-12
    5.1477573904845e-11
    2.3377570489864255e-10
    7.028058465494e-11
    3.9361215243075e-11
    4.87637568875875e-11
    1.55969163907975e-10
    1.4573358497901501e-10
    9.916592981858753e-11
    2.1360153693477502e-11
    1.5697360509655e-11
    9.8079499976865e-12
    7.5820727945655e-12
    4.6246460972442505e-12
    1.88136448486525e-12
    5.106499061928e-12
    9.824599393757501e-12
    1.2596489445295252e-11
    2.04068351318425e-11
    9.134231741558e-12
    1.9904589864472503e-11
    8.55148560791525e-12
    4.4606243794007504e-12
    3.911497787972501e-12
    9.005675112500001e-13
    4.563868893122e-13
    5.897787023477251e-13
    2.888842929896e-13
    4.1663830667387504e-13
    1.9236911578940004e-13
    3.24697518969175e-13
    2.3481397288332505e-13
    2.6372441057187504e-12
    4.08473490212975e-12
    2.42418710371475e-12
    8.734564814681751e-13
    1.03728747638395e-12
    8.393141166355e-12
    3.25858140769975e-11
    5.741105547677501e-11
    5.6953789238802504e-11
    1.5823528784327004e-10
    4.4511005695557503e-10
    1.5001056513806003e-10
    1.2001056412631e-10
    1.1433817311339501e-10
    1.1383656934617001e-10
    2.40652117664475e-10
    2.18813478882075e-10
    1.4829978294367503e-10
    4.071048743267e-11
    1.5544387398155e-11
    6.331100632958751e-12
    3.4568617005945e-12
    1.778212988665025e-11
    1.1145351967290752e-11
    1.7034419523412504e-11
    2.0738125545186503e-11
    1.83609924771075e-11
    8.950185349957501e-12
    5.2668296866295e-12
    3.1682631219002504e-12
    9.573688948582e-13
    1.171349903801825e-12
    3.9504356131198755e-12
    3.8717346482155e-12
    2.6094696167485e-12
    7.58201111185925e-13
    2.5552850602702503e-12
    1.821221132232425e-12
    2.0430299233300003e-12
    7.43254157807425e-12
    3.6248952616525003e-12
    4.497214560748251e-12
    8.93202349392925e-12
    1.9994713232920254e-11
    2.552658610638125e-11
    1.5534912934475e-11
    6.565615814813001e-12
    4.754954515159751e-12
    1.01939258310835e-11
    1.7355292961325e-11
    4.5508587767197505e-11
    5.5246436602885007e-11
    3.1807699074195e-10
    6.6242834703815e-10
    1.6939541651967e-09
    7.194152722267501e-10
    2.775020818976175e-10
    3.4511893589277506e-10
    4.54612647949625e-10
    3.2113818008772504e-10
    1.391401724694575e-10
    1.21924652520495e-10
    5.965852656170001e-11
    3.0181027418052504e-11
    2.1214409795150004e-11
    2.3040267246315004e-11
    2.7355540029400003e-11
    6.960049580891001e-11
    2.7575031771320004e-10
    4.5766125402332506e-10
    2.8001629367745004e-10
    1.1989516811945752e-10
    5.83720967132325e-11
    3.0210758482465e-11
    3.3781817078102504e-11
    2.41110050075675e-11
    4.2264348822355e-11
    3.74759203361675e-11
    6.463000464695501e-11
    6.7035926267695e-11
    1.099569491807875e-10
    1.5007659030683e-10
    6.821944468905501e-11
    1.6120849297685001e-10
    4.3677055507057507e-10
    2.02066377404375e-10
    6.021347353329001e-11
    4.0479991495955e-11
    2.0496817863720002e-11
    9.592847597143251e-12
    2.092504388359e-12
    1.16501114217675e-12
    8.91462897076675e-13
    4.536027786829001e-12
    1.188903321615625e-11
    5.8459908213850005e-12
    1.3533592857111251e-11
    3.23675066430375e-11
    2.8348113465292504e-11
    8.066679275256249e-12
    1.234629945412875e-11
    1.012260828611725e-11
    2.9078239322632503e-12
    1.1720893560843502e-12
    1.02266127307795e-12
    4.695001391993e-13
    2.0390402858897501e-13
    1.9564002633642501e-13
    4.1050951298087507e-13
    1.7772440767152502e-12
    3.554664072508725e-12
    1.9762596274685e-12
    1.93534425475875e-12
    1.82576122614325e-12
    2.0962892392145e-12
    7.2138221036365005e-12
    2.5676931534595005e-11
    5.9726476230905e-11
    6.47299059579975e-11
    5.930661438600251e-11
    4.23262042401825e-11
    1.932849806118e-10
    1.0970974956722001e-10
    1.0521692928246502e-10
    7.32446854210775e-11
    1.2868312795197752e-10
    2.0720800106655002e-10
    2.9196290153162e-10
    5.733313788224001e-11
    3.2851873794828e-11
    1.939916176946e-11
    4.3163485294820004e-12
    1.167544327557025e-11
    8.52571704055225e-12
    2.0679941482035002e-11
    1.2083153627341502e-11
    7.24240586971275e-12
    5.0953912401865005e-12
    8.1600644252105e-12
    3.3658254280942502e-12
    9.979348967197502e-13
    8.692568760958501e-13
    2.2972638327182503e-12
    4.9215644393575e-12
    4.88606727556475e-12
    8.08029388217975e-13
    2.6214242186814003e-12
    2.8608340466420005e-12
    2.1864890942180004e-12
    1.7980202925652001e-12
    1.1374863448014002e-12
    9.923096806405751e-13
    4.17212202572825e-12
    1.0398885127411002e-11
    4.37355060395e-12
    5.29491999105575e-12
    3.4234420103482505e-12
    4.599333981907501e-12
    9.552114805244e-12
    2.2181903042681254e-11
    2.16123125966275e-11
    5.096314013472e-11
    3.595840239700501e-10
    1.3698937052176754e-09
    6.82779445676625e-09
    3.882427962171e-09
    1.19506690435495e-09
    9.650451842856001e-10
    7.3417471017825e-10
    1.415405919928e-10
    1.0911757091413752e-10
    7.558855423933e-11
    6.46438955924025e-11
    4.0946534812947504e-11
    1.365867058153675e-10
    9.719857223928501e-11
    1.1095018878990751e-10
    6.3338023354925e-11
    1.194536679812025e-10
    4.4224575880815e-10
    2.186678830222425e-10
    1.2701841040262002e-10
    5.865077918007001e-11
    7.26388132072075e-11
    4.8442093911035e-11
    5.2703727412764996e-11
    9.166908772021e-11
    1.2897399892157e-10
    9.4602569190965e-11
    8.967555200037501e-11
    5.183444537012501e-10
    4.323876286952751e-10
    1.33683448870675e-10
    3.5713475174335754e-10
    2.76848516615275e-10
    2.2041572418654253e-10
    3.649741055730001e-11
    6.136511433206e-11
    2.20920066665925e-11
    4.4218136206282505e-12
    4.15662732991825e-12
    1.9967649328726e-12
    3.917339140254376e-12
    4.8856897774025e-12
    5.375526951583251e-12
    8.24841626633475e-12
    1.8215840732760003e-11
    2.91287697955925e-11
    4.2795214865425004e-11
    3.8541920865580004e-11
    1.3799783342279e-11
    1.6101809079919753e-11
    5.160908143457e-12
    3.94268703156075e-12
    2.78814961290525e-12
    1.3008478109572003e-12
    5.653205223963e-13
    2.54563788501275e-13
    8.584680773110752e-13
    3.888535290282226e-12
    4.9656305647025e-12
    4.575171632215251e-12
    6.58978309912175e-12
    2.4504664038855005e-12
    5.522210894354001e-12
    1.7482008978428503e-11
    4.2357810458865e-11
    3.3838195071615005e-11
    3.16918589518575e-11
    4.7558353442050005e-11
    9.15238866296975e-11
    1.1482566387743002e-10
    1.52919373526315e-10
    6.513407572243001e-11
    1.2352526940151752e-10
    3.9279586816932004e-10
    3.32904279670325e-10
    1.3737469005117003e-10
    6.720237088224001e-11
    3.214011951471751e-11
    1.1661142756953252e-11
    8.152842613962752e-12
    9.4980363430205e-12
    1.4907992113924252e-11
    2.07282760506525e-11
    2.3983859678828502e-11
    4.350871106516e-11
    4.093866409963001e-11
    1.3566775685765502e-11
    4.910214821407501e-12
    1.24958849514015e-12
    8.119644981459e-13
    1.4570491485715001e-12
    3.832706766317e-12
    3.3384925873007506e-12
    1.6936390899331751e-12
    1.089308450257775e-12
    3.5274982684837505e-12
    2.7874994771813755e-12
    1.429606019099225e-12
    9.2132004094075e-13
    1.91350857674625e-12
    4.19968185888075e-12
    5.423323647002251e-12
    1.8787022592635e-12
    1.3526062632332252e-11
    1.0856430171215752e-11
    5.644700412425251e-12
    1.1870994725540501e-11
    4.4810536917107505e-11
    1.3900395238097503e-10
    8.45983991027725e-11
    5.657093701765001e-10
    2.7894104074210003e-09
    7.895388867308251e-09
    1.1750619690639502e-08
    2.0753672054469752e-09
    1.4345196634791002e-09
    5.784480826712501e-10
    4.6385888561650007e-10
    1.814888045416325e-10
    4.898255778319751e-11
    3.2514432382016756e-11
    3.31929199449925e-11
    2.7308241730247504e-11
    4.625346812787251e-11
    1.1992275262569252e-10
    9.7322924575085e-11
    8.834426648792251e-11
    9.9482016678495e-11
    8.8285667916985e-11
    5.9475304251055e-11
    4.7108760532735005e-11
    6.529435206635001e-11
    1.022555919015675e-10
    6.0871998105215e-11
    1.1321663347527503e-10
    1.6538342526667502e-10
    1.091528040759475e-10
    9.029173756273001e-11
    4.5396547299565007e-10
    3.136994924448e-10
    1.3445184267897252e-10
    7.711219110295251e-11
    1.587320310132425e-10
    2.08413774608325e-10
    3.5175969604765e-11
    1.4207999492241502e-11
    1.7452435821744005e-11
    9.29761442656475e-12
    7.002016026915251e-12
    4.19798928542125e-12
    3.013678858113e-12
    6.3931978469947505e-12
    7.07021982887e-12
    9.073804895207251e-12
    1.38768965943245e-11
    1.2394303403440751e-11
    5.017863480355e-11
    3.52281531742525e-11
    1.8464841481350005e-11
    1.49306938171325e-11
    1.057049875273975e-11
    1.000932922974325e-11
    3.13794089043105e-12
    1.9961769733166252e-12
    1.0203856746789751e-12
    1.4153674299193002e-12
    1.7150644545837001e-12
    2.4613645044257504e-12
    2.154965036900225e-11
    1.9877276762145002e-11
    2.2833013353315e-11
    7.582141879196501e-12
    7.780886026042252e-12
    3.8051691389387506e-11
    5.2745869037675e-11
    8.24065411458025e-11
    8.814749865498502e-11
    1.1192290039438752e-10
    9.752423225520252e-11
    6.274362412441751e-11
    1.5397212461042501e-10
    1.60600893647205e-10
    6.77249714426725e-10
    2.63907484844025e-10
    2.81715035407575e-10
    2.0546114682555002e-10
    7.05549740054225e-11
    7.6592699350915e-11
    3.526167155682875e-11
    2.02963984145725e-11
    3.66529249962975e-11
    2.8814582763037503e-11
    7.386977796621501e-11
    1.3946788035122252e-10
    9.405919389506752e-11
    8.251872965193e-11
    6.546287908905801e-11
    1.56489371179405e-11
    4.8511548638272504e-12
    1.674654139872725e-12
    3.8849988973675e-12
    4.1360623156544995e-12
    2.6476734176915003e-12
    3.20887995031175e-12
    2.5458550081387506e-12
    3.2474242397932503e-12
    3.6415027134832505e-12
    3.1796398802410005e-12
    2.9597713803512253e-12
    6.03285241169875e-12
    8.841848312008251e-12
    1.4546955832318252e-11
    8.456291921013752e-12
    1.94092727986685e-11
    1.544804147830075e-11
    1.0134589534979251e-11
    1.3821764591478251e-11
    4.1472811662672503e-11
    8.120592427827e-11
    1.515989441701625e-10
    6.520799627760001e-10
    3.5507057698832505e-09
    6.327601989860251e-09
    8.595263058195001e-09
    2.4316309727050003e-09
    1.1974399614298e-09
    1.7610906096025002e-09
    6.874493200014e-10
    2.96771043810725e-10
    6.583185516861251e-11
    6.27201353498775e-11
    6.43173720185975e-11
    4.4310240823255004e-11
    3.7458106370602503e-11
    8.515055801604001e-11
    1.083912447115025e-10
    5.613244699546e-11
    1.87919325360525e-11
    1.9694301182325002e-11
    1.77087348681375e-11
    5.1431040471250007e-11
    2.2049124849207504e-11
    9.58144616572e-11
    1.1191303116138752e-10
    8.631845837617752e-11
    1.514466125588075e-10
    1.136144375844225e-10
    8.476933421833251e-11
    9.89874940859475e-10
    4.876920963882001e-10
    1.198250472189925e-10
    1.9101276242512754e-10
    1.402237649066925e-10
    6.328139863058751e-11
    3.02534182421075e-11
    1.927886815573125e-11
    5.2511277369265005e-12
    9.074661051170002e-12
    1.1346886639767252e-11
    5.240577526849501e-12
    3.5544190687995006e-12
    5.7218358702450005e-12
    2.3649692384065004e-12
    5.7812437182885e-12
    1.4356408083479e-11
    2.6115002114382502e-11
    2.3164718274445002e-11
    2.2606292398222504e-11
    2.1258821343650002e-11
    2.1256156650740003e-11
    3.39811755847025e-11
    1.5999033354766e-11
    1.089715556119025e-11
    3.6150235613442503e-12
    1.7064138251283751e-12
    2.6021071689305e-12
    4.5823095549825004e-12
    5.2699730373400005e-12
    2.3445868049532502e-11
    2.73824583624075e-11
    2.5502714899062503e-11
    2.1849568957947505e-11
    2.140745199263e-11
    1.193473269956275e-10
    1.0818426222241001e-10
    8.57905037568425e-11
    1.6162573947500753e-10
    8.3315127408865e-11
    1.6381609237394502e-10
    1.8585591547105004e-10
    7.3087147789315e-10
    7.600972375760501e-10
    1.964312920922e-09
    6.173678964684001e-10
    2.0025978963064251e-10
    6.865112494047501e-11
    3.0722653392400755e-11
    1.5783025452095002e-11
    2.86621524593525e-11
    7.62292895187725e-11
    1.0640326043523001e-10
    4.3107896839947506e-11
    4.58282522240675e-11
    4.51721456142275e-11
    2.24155201243325e-11
    4.6869135555495e-11
    5.0341526494215006e-11
    2.08267512575265e-11
    1.4504217118811751e-11
    1.1553385536442751e-11
    8.315682491154501e-12
    5.417606893787e-12
    5.7124181546547494e-12
    4.2454726326925e-12
    1.1055208860377e-11
    5.658529675166501e-12
    1.04919075830525e-11
    6.5695487041635006e-12
    5.1177524548562504e-12
    2.111157238729e-11
    4.373461780853e-11
    4.9111203235352506e-11
    1.72948685822825e-11
    2.3332766639352503e-11
    1.3699351559962751e-11
    3.4530965882050006e-12
    7.875090322335501e-12
    1.932800459953e-11
    5.90242062837075e-11
    2.3909228538882503e-10
    2.55949922276125e-10
    1.246094046465675e-09
    2.6877326344385003e-09
    2.9095411788052503e-09
    2.3606070374205004e-09
    2.15699242408925e-09
    1.663370152322175e-09
    8.729205821162751e-10
    1.843315384149525e-10
    1.1120429686657501e-10
    1.3109687093987e-10
    2.0441846235910002e-10
    1.0390313698550501e-10
    3.6754726134692504e-11
    4.7856601663310006e-11
    6.267424341642751e-11
    2.25614860804025e-10
    7.912938830890501e-11
    2.0922206479102504e-11
    2.1564639266621e-11
    2.0505478115677502e-11
    3.8411474278402496e-11
    6.256689083447001e-11
    2.0976882029922502e-10
    3.0034592673415003e-10
    1.5128312871416253e-10
    2.1064076703477503e-10
    3.9237065226551505e-10
    2.4716270263608e-09
    8.943661786944501e-10
    1.37504223734295e-10
    1.6273060010935752e-10
    7.4269975364365e-11
    5.5271233050797505e-11
    2.3686504623155005e-11
    1.2762966134847501e-11
    9.248739517440502e-12
    1.3683331327495502e-11
    1.5354002491660253e-11
    8.174744909298001e-12
    6.430900784363001e-12
    2.7681619487720004e-12
    1.32642836943155e-12
    3.1128597151465e-12
    1.6223143897730002e-11
    8.91500893623725e-12
    9.987259157446999e-12
    2.2259610916015003e-11
    1.83251178151525e-11
    1.54117202335525e-11
    6.598213891412e-11
    8.661068636530751e-11
    6.7896622077625e-11
    1.5812295129864753e-11
    1.0135791114097001e-11
    8.245265513699501e-12
    5.864976758368751e-12
    1.525349422278825e-11
    2.8814039955222498e-11
    1.167786123765525e-11
    2.01915871601125e-11
    3.3445794367535e-11
    5.399375953127751e-11
    6.22524323980075e-11
    1.189441194814125e-10
    5.243010292784001e-11
    6.742442862474e-11
    1.48773604820005e-10
    5.15671618674025e-10
    3.7105478675512505e-10
    1.120385678051475e-09
    2.18316563000525e-09
    1.4045579057452252e-09
    2.2151801882031251e-10
    9.576790355052252e-11
    8.0233163327625e-11
    9.85629196822875e-11
    2.5733309528107502e-11
    4.990742828071001e-11
    8.427167814430751e-11
    2.50859371894725e-10
    1.5065023947495502e-10
    4.97062192929225e-11
    2.1130397949237502e-11
    1.5350851739025e-11
    1.142700013864475e-11
    2.3245571965797504e-11
    2.8366050796270003e-11
    4.794685579909501e-11
    2.3155293156930002e-11
    6.872023424455751e-12
    4.13915385289175e-12
    5.620935299361251e-12
    3.1626894725635e-12
    2.3348779469895003e-12
    5.9882064689150005e-12
    3.24375288511725e-12
    3.8787294671042505e-12
    3.3460894294025004e-12
    2.281694870929925e-11
    4.2862646399897504e-11
    9.82262801446575e-11
    1.2749539043351002e-10
    3.6494227729657503e-11
    1.4219218342854252e-11
    7.900498662694001e-12
    6.326659478108751e-12
    3.7900544085992504e-11
    3.86448816388525e-11
    1.0810224889618001e-10
    1.660100475429275e-10
    2.3995700291120255e-10
    3.392230314254925e-10
    1.3384197342573752e-09
    8.267594653362001e-10
    3.3298668776587506e-10
    4.9377401122445e-10
    3.49681482308675e-10
    1.686519425246975e-10
    1.34142614936e-10
    3.0025068863570004e-10
    1.80131020138575e-10
    1.1134360109037002e-10
    4.827868408563751e-11
    3.09870970233275e-11
    4.20919086487625e-11
    2.711522420585e-10
    3.5195939997740505e-10
    6.536753242904501e-11
    3.684727486715e-11
    4.145235767728e-11
    9.470471575251501e-11
    1.9347844225168253e-10
    8.1552778472055e-10
    6.156057449162501e-10
    1.816874722019225e-10
    1.7792786190982001e-10
    6.7199656843165e-10
    9.390772584160002e-10
    3.95785604268175e-10
    1.1429719112336251e-10
    3.0299704944877504e-10
    1.1563782773408251e-10
    4.2167630338955005e-11
    1.8654639168481253e-11
    8.928394083493501e-12
    1.1135606099703252e-11
    1.237905543845575e-11
    2.1062423606950003e-11
    1.122259351936525e-11
    6.3815077405062505e-12
    2.786359580769875e-12
    1.4163166034030752e-12
    7.939783144650502e-12
    1.54622507065125e-11
    7.4025514462955e-12
    1.5001357525412502e-11
    1.1997760088809002e-11
    2.088836241183725e-11
    5.2705109105385e-11
    6.997293598924751e-11
    4.3519024413645004e-11
    9.650163167790752e-11
    2.8919001715485752e-11
    2.18819893883525e-11
    6.58704932158075e-12
    2.56359495445625e-12
    9.175598631677502e-12
    1.3126474659320002e-11
    1.2434710510651002e-11
    1.2808512645142501e-11
    2.6867703842210005e-11
    2.743903374058e-11
    4.0755688519810005e-11
    7.85679029704525e-11
    8.6320308857365e-11
    1.0259514286293251e-10
    3.5635996760669256e-10
    1.3931885493292252e-09
    1.0705388962075502e-09
    1.780481925331725e-09
    1.5847372851255003e-09
    1.0136282108438752e-09
    1.1449104753256501e-09
    6.06529751518625e-10
    3.8208858924912504e-10
    2.7144313770117504e-10
    2.257804171876e-10
    7.84244043226325e-11
    2.138485144906e-10
    3.4417938491117507e-10
    5.1885395285487506e-11
    4.4366890220675004e-11
    2.2055243773667504e-11
    1.2611932327632e-11
    7.017305936140501e-12
    2.801739793477075e-11
    2.5092475556335005e-11
    2.460843902385e-11
    2.4527486640167504e-11
    6.929277312397001e-12
    8.84915154442825e-12
    1.57002768680065e-12
    1.971949486686575e-12
    3.886089447614e-12
    2.18718734245275e-12
    2.1563607931772503e-12
    1.4485063404867001e-12
    3.875825445294001e-12
    1.5390141155598e-11
    5.062672265483251e-11
    3.3165508150335007e-10
    4.95602039906875e-10
    2.301574466961825e-10
    1.0616385751573252e-10
    1.1346607833935e-11
    3.4001728262425e-12
    1.8263968047484503e-11
    9.310118744775749e-11
    8.049839896450001e-11
    1.5489045674107501e-10
    4.3682162835135e-11
    6.6792452289585e-11
    3.48469047034625e-10
    6.906370822604001e-10
    9.097466381324751e-10
    8.445043462702001e-10
    3.451640876337501e-10
    3.763395142958001e-10
    2.93565023470675e-10
    4.742060362245251e-10
    1.149509044442e-10
    7.29191487705725e-11
    4.9480189184140007e-11
    4.6862991957952505e-11
    1.0424816537118502e-10
    5.422299714078501e-10
    2.67735266863075e-10
    6.07401698254175e-11
    7.679000999166749e-11
    3.5869036492190004e-11
    4.4896497936537504e-11
    2.8111844027272505e-10
    1.7665181942908501e-09
    8.8797387648035e-10
    7.05651393154125e-10
    2.7181446759280006e-10
    2.41154708355e-10
    2.9577869243257506e-10
    1.80112762057525e-10
    8.344330407245251e-11
    1.5675855450948002e-10
    1.01139356976185e-10
    2.2209475212375e-11
    1.36110490650035e-11
    8.095546781781251e-12
    2.88511482713025e-12
    1.2058552096780751e-11
    2.21450537939675e-11
    1.8917913295297502e-11
    1.6153067408813503e-11
    1.6538732361371002e-11
    4.887411958561e-12
    4.7414657409570006e-12
    1.7970415113824254e-11
    1.2047636725082752e-11
    9.27475728293675e-12
    1.573336593894725e-11
    1.4845053547775002e-11
    6.1993439051005e-11
    9.40072817294875e-11
    1.345051365371725e-10
    8.646807594845751e-11
    3.1783938895747505e-11
    2.5420282130430003e-11
    1.790357573333175e-11
    1.2655356952832e-11
    6.1830942129660004e-12
    1.8074784720107502e-11
    1.2176709021565001e-11
    1.329934167723975e-11
    3.517777814171225e-11
    1.7759734129665e-11
    2.4945473330800002e-11
    2.9273798174527504e-11
    7.150066858456501e-11
    7.537900574965751e-11
    1.1097999387356751e-10
    4.610392457484e-10
    1.115163373409525e-09
    2.257962079604e-09
    1.410796988117e-09
    1.617350165574e-09
    1.012245531300575e-09
    1.2380822031162752e-09
    9.187495992059e-10
    3.6066445825272503e-10
    3.29715530488025e-10
    1.9788206934320002e-10
    8.621224075601501e-11
    7.26959067201125e-11
    8.45672123264925e-11
    3.959018144867501e-11
    1.592868299463375e-11
    7.096360959778751e-12
    1.949736063781e-11
    4.9978462085227503e-11
    2.6092401570812506e-11
    1.6922403728862503e-11
    1.2601480809885001e-11
    1.1316546150217003e-11
    8.336200626561501e-12
    4.85548252249775e-13
    1.1771498053051e-12
    3.62161374168e-12
    2.3752137489913252e-12
    1.082156710564325e-12
    6.136422610109e-13
    5.0197213634672515e-12
    2.5920250072285254e-11
    1.09671210212355e-10
    3.0720701751575e-10
    4.1258599960407505e-10
    1.9490674232452503e-10
    3.290098803285251e-10
    1.1425275490177999e-10
    1.74954113968425e-11
    1.9412238503185004e-11
    1.20875454360265e-10
    3.0524896168855e-10
    1.5228756990273752e-10
    6.600385122672001e-11
    6.50716281506225e-11
    8.203984979368752e-11
    2.423182909257e-10
    6.09242803670325e-10
    1.3897760152886501e-09
    1.4655564274175e-09
    1.0946625091602752e-09
    2.310703260756e-10
    2.363010195656e-10
    3.6424476925430007e-10
    1.7443316650452001e-10
    1.80924506471775e-10
    2.9261150752438004e-10
    3.3379769198765005e-10
    7.277495927644251e-10
    3.0812584310805e-10
    1.724251970314225e-10
    1.058319058637775e-10
    7.037076477147751e-11
    5.9726278846245e-11
    2.7077893832027504e-10
    5.697695726327e-10
    5.517520541370751e-10
    3.28975338013025e-10
    1.280759233916525e-10
    1.3211606663178002e-10
    2.4504170577205e-10
    9.280520915008751e-11
    4.2767951109262505e-11
    6.782832698526502e-11
    6.95785910462665e-11
    9.88047652369525e-12
    3.68336799986925e-12
    1.3747597305483252e-12
    4.251813614895001e-12
    2.1732692566145002e-11
    1.0902082775765501e-11
    1.544771826092e-11
    3.0292845827942505e-11
    2.1703454963382502e-11
    1.5038695301159753e-11
    4.4762523098562505e-12
    3.636182950165425e-11
    1.935939122777825e-11
    1.234306234570475e-11
    2.091136759396025e-11
    4.1689021884620006e-11
    3.904831121081e-11
    3.47357672706495e-11
    2.2117390333868503e-11
    2.6020380842995e-11
    1.51249499302715e-11
    9.661406691486001e-12
    1.87077479785625e-11
    2.6527067265215005e-11
    1.06132103258555e-11
    1.331191508008175e-11
    1.6828002047909253e-11
    1.2325593803294751e-11
    9.4655073510525e-12
    7.513244763623502e-12
    1.277579860505575e-11
    3.459987780147251e-11
    5.709869425232501e-11
    1.1892566401570253e-10
    2.56360482368925e-10
    1.13579722557345e-09
    1.4241179853587502e-09
    2.40294851429875e-09
    1.7785591520125e-09
    1.1878263415645e-09
    1.2953304162485501e-09
    2.959674415137e-09
    3.0731952677195006e-09
    1.53267362681895e-09
    2.4887639625420003e-10
    1.7126020809502002e-10
    2.9757829772396e-10
    1.7146208325603503e-10
    6.825117427315001e-11
    5.330493641404251e-11
    3.0052574415941e-11
    1.6893370912684753e-11
    1.099510276409875e-11
    1.3706933598215002e-11
    1.5715026436725e-11
    1.7192213755233004e-11
    2.5359240924325002e-11
    1.357748627087875e-11
    9.103476744221751e-12
    1.2233220249723e-12
    1.5437232200857503e-12
    1.1989514344637502e-12
    4.864806480374501e-13
    1.4065115204175752e-12
    2.2308451282823754e-12
    1.1839235533746501e-11
    2.0574858823667502e-11
    1.197732337457425e-10
    5.18195675013775e-10
    3.7985098739720005e-10
    1.0921816307149001e-10
    1.7730151103747503e-10
    1.4115653079060502e-10
    3.5243919273970006e-11
    2.6378634000895e-11
    3.5153388799661005e-11
    6.16697528816875e-11
    3.45700233716475e-11
    7.844939815520501e-11
    4.886136360195751e-11
    3.758095364837e-11
    1.669509308709825e-10
    2.0622921988377503e-10
    3.2910931285100003e-10
    4.35617335194525e-10
    8.11045425822775e-10
    3.6102049083320003e-10
    2.1192944213375003e-10
    6.642635309145001e-10
    9.118791326529501e-10
    1.046092559335725e-09
    8.5929289845905e-10
    4.2470541772807503e-10
    3.7881521139385e-10
    3.4379201751592504e-10
    4.3702789532105e-10
    2.3459610956485005e-10
    1.6834044485813499e-10
    7.1850532894415e-11
    1.8335110413565003e-10
    5.2904961073635e-10
    7.068751780461251e-10
    3.1866815779865005e-10
    1.298286498262875e-10
    5.32507049787075e-11
    1.0816240187131502e-10
    4.031164705405751e-11
    1.9993906423122503e-11
    1.224329426930775e-11
    3.9749668253955e-12
    3.24585996636275e-12
    1.6247185349318002e-12
    1.35510836052955e-12
    5.037550132881751e-12
    1.1464794366418251e-11
    1.21161366040275e-11
    1.2253096884985002e-11
    1.70522334889775e-11
    1.6665063478387502e-11
    7.41830027485525e-12
    1.3522045854501251e-11
    6.8278660087055e-11
    7.34356057334625e-11
    2.43112517451375e-11
    2.451556954132e-11
    3.3607945865725e-11
    9.537177721098501e-12
    8.600750351743002e-12
    7.6298300130525e-12
    6.317846253039751e-12
    1.216304260116825e-11
    1.219756517820225e-11
    2.0340809963072502e-11
    1.95650191646415e-11
    1.3547256810199752e-11
    1.1471552323715001e-11
    1.23013919766705e-11
    1.541214214326325e-11
    7.37263533376425e-12
    4.45439195876125e-12
    1.1186217993835501e-11
    8.271006940671752e-11
    2.9141863800475253e-10
    3.5741846751902504e-10
    4.5522824135800005e-10
    2.43926235712225e-09
    1.3510220046059002e-09
    9.66570227514925e-10
    8.550668928884502e-10
    9.96744420489125e-10
    1.7941476055360003e-09
    1.106519405686475e-09
    1.8644964852833e-09
    7.8657540279175e-10
    6.242124562847252e-10
    3.9194622590035e-10
    3.3148311011832506e-10
    2.23060209841975e-10
    9.525820701223751e-11
    1.1280582665165e-10
    2.25310888427625e-11
    1.0386126676450251e-11
    2.9756625725970004e-11
    4.8762819310452503e-11
    1.7449625557647253e-11
    7.60276610885825e-12
    9.75937116555225e-12
    1.0653807415801e-11
    2.44571091396445e-11
    1.002772054543875e-12
    5.156891365626001e-12
    3.5395165269695003e-12
    1.7277770136110001e-12
    3.811374419187501e-12
    4.1860401115664995e-12
    6.501034021369251e-12
    1.91494948476425e-11
    1.1289398357542251e-10
    7.9695290129125e-11
    2.188265556158e-10
    2.4884629509355006e-10
    1.3490930630160502e-10
    5.7200495390720005e-11
    2.2425167299590002e-11
    1.3367856360034001e-11
    7.824290912776251e-12
    2.1118998985122502e-11
    3.1573551521270005e-11
    7.352376265723501e-11
    3.124426456222501e-11
    2.7950896575508505e-11
    4.91206283528675e-11
    4.03906996103875e-11
    4.9139379895567506e-11
    1.015666207458375e-10
    3.3929707534607505e-10
    1.8100691456732502e-10
    1.086933419336325e-10
    3.336121504072501e-10
    1.1916842247442e-09
    2.0731508224460003e-09
    2.5268764730797502e-09
    5.985435681750251e-10
    6.226252368875001e-10
    2.8173551406605e-10
    2.8684185522025003e-10
    2.2207244765717e-10