/*--------------------------------*- C++ -*----------------------------------*\
  =========                 |
  \\      /  F ield         | OpenFOAM: The Open Source CFD Toolbox
   \\    /   O peration     | Website:  https://openfoam.org
    \\  /    A nd           | Version:  9
     \\/     M anipulation  |
\*---------------------------------------------------------------------------*/
FoamFile
{
    format      ascii;
    class       volScalarField;
    location    "7100";
    object      Fb;
}
// * * * * * * * * * * * * * * * * * * * * * * * * * * * * * * * * * * * * * //

dimensions      [0 0 0 0 0 0 0];

internalField   nonuniform List<scalar> 
1000
(
0.805417
0.804837
0.805653
0.804904
0.80576
0.805154
0.805782
0.805632
0.806608
0.812545
0.831024
0.833351
0.834302
0.834877
0.835266
0.83556
0.835772
0.835947
0.836087
0.836115
0.836261
0.83618
0.836241
0.836193
0.836073
0.835831
0.835414
0.834784
0.834055
0.833263
0.832426
0.83156
0.830669
0.829762
0.828838
0.827903
0.826956
0.826
0.825033
0.824058
0.823073
0.82208
0.821079
0.82007
0.819053
0.818029
0.816997
0.815959
0.814913
0.813862
0.812804
0.81174
0.810671
0.809596
0.808516
0.807431
0.806341
0.805247
0.804148
0.803044
0.801937
0.800824
0.79971
0.79859
0.797468
0.79634
0.795211
0.794076
0.79294
0.791797
0.790654
0.789504
0.788354
0.787196
0.78604
0.784877
0.783714
0.782547
0.781378
0.780204
0.779026
0.777843
0.776654
0.775459
0.774258
0.773052
0.771841
0.770626
0.769408
0.768185
0.766956
0.76572
0.764475
0.763217
0.761945
0.760658
0.759353
0.758031
0.756693
0.755338
0.75397
0.752589
0.751201
0.749806
0.74841
0.747017
0.745631
0.744257
0.742899
0.741563
0.740251
0.738968
0.737716
0.736497
0.735309
0.734151
0.733019
0.731909
0.730814
0.72973
0.728647
0.72756
0.726463
0.725351
0.724218
0.723063
0.721884
0.720679
0.719449
0.718195
0.716919
0.715623
0.714309
0.712981
0.711641
0.710291
0.708934
0.707571
0.706205
0.704837
0.703467
0.702097
0.700727
0.699358
0.697988
0.696619
0.695249
0.693879
0.692508
0.691136
0.689762
0.688386
0.687007
0.685625
0.68424
0.682851
0.681458
0.680061
0.67866
0.677254
0.675843
0.674428
0.673008
0.671583
0.670152
0.668717
0.667277
0.665831
0.66438
0.662924
0.661462
0.659995
0.658523
0.657045
0.655562
0.654073
0.652579
0.651079
0.649573
0.648062
0.646544
0.645021
0.643492
0.641957
0.640416
0.638868
0.637314
0.635753
0.634186
0.632612
0.631031
0.629442
0.627847
0.626244
0.624634
0.623015
0.621389
0.619755
0.618113
0.616463
0.614804
0.613137
0.611462
0.609777
0.608084
0.606382
0.604672
0.602951
0.601222
0.599484
0.597736
0.595979
0.594212
0.592436
0.59065
0.588855
0.587049
0.585233
0.583407
0.581571
0.579724
0.577867
0.575998
0.574119
0.572228
0.570326
0.568412
0.566487
0.564549
0.562599
0.560637
0.558662
0.556673
0.554671
0.552655
0.550624
0.54858
0.54652
0.544446
0.542356
0.54025
0.538128
0.535989
0.533833
0.53166
0.529468
0.527259
0.525031
0.522785
0.520519
0.518233
0.515928
0.513602
0.511256
0.508891
0.506507
0.504103
0.501683
0.499245
0.496794
0.494332
0.491865
0.489398
0.486938
0.484495
0.482079
0.479703
0.477382
0.475134
0.472973
0.470917
0.468978
0.467162
0.465468
0.463876
0.46234
0.460763
0.458971
0.456654
0.45327
0.447911
0.439117
0.424756
0.402274
0.369908
0.329037
0.285702
0.247914
0.220413
0.202996
0.192936
0.187438
0.184527
0.183017
0.182245
0.181858
0.18167
0.181586
0.181554
0.181549
0.181557
0.181573
0.181591
0.18161
0.181629
0.181646
0.181663
0.181678
0.181692
0.181703
0.181714
0.181722
0.18173
0.181736
0.18174
0.181744
0.181746
0.181747
0.181747
0.181747
0.181747
0.181747
0.181745
0.181744
0.181742
0.18174
0.181739
0.181737
0.181736
0.181735
0.181734
0.181734
0.181734
0.181734
0.181734
0.181735
0.181736
0.181737
0.181739
0.181741
0.181743
0.181746
0.181749
0.181752
0.181755
0.181758
0.181762
0.181765
0.181769
0.181772
0.181776
0.18178
0.181783
0.181787
0.181791
0.181795
0.181798
0.181802
0.181805
0.181809
0.181812
0.181815
0.181819
0.181822
0.181824
0.181827
0.18183
0.181832
0.181835
0.181837
0.181839
0.181841
0.181843
0.181845
0.181847
0.181849
0.18185
0.181852
0.181853
0.181854
0.181856
0.181857
0.181858
0.181859
0.18186
0.181861
0.181862
0.181863
0.181863
0.181864
0.181865
0.181866
0.181866
0.181867
0.181867
0.181868
0.181868
0.181868
0.181869
0.181869
0.181869
0.181869
0.181869
0.181869
0.181869
0.181868
0.181868
0.181868
0.181867
0.181867
0.181866
0.181865
0.181864
0.181863
0.181861
0.18186
0.181859
0.181857
0.181855
0.181853
0.181852
0.18185
0.181847
0.181845
0.181843
0.181841
0.181838
0.181836
0.181834
0.181831
0.181829
0.181826
0.181823
0.181821
0.181818
0.181816
0.181813
0.18181
0.181807
0.181805
0.181802
0.181799
0.181796
0.181794
0.181791
0.181788
0.181785
0.181782
0.181779
0.181776
0.181772
0.181769
0.181765
0.181762
0.181758
0.181754
0.181749
0.181744
0.181739
0.181734
0.181728
0.181722
0.181716
0.181709
0.181701
0.181693
0.181684
0.181675
0.181665
0.181655
0.181644
0.181632
0.18162
0.181607
0.181594
0.18158
0.181566
0.181552
0.181537
0.181522
0.181507
0.181492
0.181477
0.181463
0.181448
0.181435
0.181422
0.18141
0.181398
0.181388
0.181379
0.181372
0.181366
0.181362
0.181359
0.181358
0.181358
0.181358
0.18136
0.181365
0.181373
0.181383
0.181394
0.181406
0.18142
0.181435
0.181451
0.181468
0.181485
0.181503
0.181521
0.181539
0.181556
0.181573
0.181589
0.181605
0.18162
0.181634
0.181646
0.181658
0.181669
0.181678
0.181687
0.181694
0.181701
0.181706
0.18171
0.181714
0.181717
0.181719
0.18172
0.181721
0.181722
0.181722
0.181723
0.181723
0.181723
0.181722
0.181722
0.181721
0.181721
0.181721
0.181721
0.181721
0.181721
0.181722
0.181722
0.181723
0.181724
0.181725
0.181727
0.181728
0.18173
0.181732
0.181734
0.181737
0.181739
0.181742
0.181745
0.181748
0.181751
0.181755
0.181758
0.181762
0.181765
0.181769
0.181773
0.181776
0.18178
0.181784
0.181788
0.181791
0.181795
0.181799
0.181802
0.181806
0.181809
0.181813
0.181816
0.18182
0.181823
0.181826
0.181829
0.181832
0.181835
0.181838
0.18184
0.181843
0.181845
0.181848
0.18185
0.181852
0.181854
0.181856
0.181858
0.18186
0.181862
0.181864
0.181865
0.181867
0.181868
0.181869
0.181871
0.181872
0.181873
0.181874
0.181876
0.181877
0.181878
0.181878
0.181879
0.18188
0.181881
0.181881
0.181882
0.181883
0.181883
0.181883
0.181884
0.181884
0.181884
0.181884
0.181884
0.181884
0.181884
0.181884
0.181883
0.181883
0.181882
0.181881
0.181881
0.18188
0.181878
0.181877
0.181876
0.181874
0.181873
0.181871
0.181869
0.181867
0.181865
0.181863
0.181861
0.181858
0.181856
0.181853
0.181851
0.181848
0.181845
0.181842
0.181839
0.181836
0.181832
0.181829
0.181825
0.181822
0.181818
0.181814
0.18181
0.181806
0.181801
0.181797
0.181792
0.181787
0.181782
0.181777
0.181771
0.181765
0.181759
0.181753
0.181746
0.181739
0.181731
0.181723
0.181715
0.181707
0.181698
0.181688
0.181678
0.181668
0.181657
0.181646
0.181635
0.181623
0.181611
0.181598
0.181585
0.181572
0.181559
0.181546
0.181533
0.181519
0.181506
0.181493
0.181481
0.181468
0.181456
0.181445
0.181434
0.181424
0.181415
0.181406
0.181399
0.181393
0.181388
0.181384
0.181381
0.18138
0.181379
0.181379
0.18138
0.181383
0.181388
0.181394
0.181402
0.181411
0.181421
0.181432
0.181444
0.181456
0.181469
0.181482
0.181496
0.18151
0.181524
0.181537
0.181551
0.181564
0.181577
0.181589
0.181601
0.181612
0.181623
0.181632
0.181641
0.18165
0.181657
0.181664
0.18167
0.181676
0.181681
0.181685
0.181688
0.181691
0.181694
0.181696
0.181698
0.1817
0.181701
0.181702
0.181703
0.181704
0.181705
0.181705
0.181706
0.181706
0.181707
0.181708
0.181709
0.181709
0.18171
0.181712
0.181713
0.181714
0.181716
0.181717
0.181719
0.181721
0.181724
0.181726
0.181728
0.181731
0.181734
0.181736
0.181739
0.181743
0.181746
0.181749
0.181752
0.181756
0.181759
0.181763
0.181766
0.18177
0.181774
0.181778
0.181781
0.181785
0.181789
0.181792
0.181796
0.1818
0.181803
0.181807
0.181811
0.181814
0.181817
0.181821
0.181824
0.181827
0.18183
0.181833
0.181836
0.181839
0.181842
0.181844
0.181847
0.181849
0.181852
0.181854
0.181856
0.181858
0.18186
0.181861
0.181863
0.181864
0.181866
0.181867
0.181868
0.181869
0.18187
0.181871
0.181872
0.181873
0.181873
0.181874
0.181875
0.181875
0.181875
0.181876
0.181876
0.181876
0.181876
0.181876
0.181876
0.181876
0.181876
0.181876
0.181875
0.181875
0.181875
0.181874
0.181873
0.181873
0.181872
0.181871
0.18187
0.181869
0.181868
0.181866
0.181865
0.181863
0.181862
0.18186
0.181858
0.181856
0.181853
0.181851
0.181848
0.181846
0.181843
0.18184
0.181837
0.181833
0.18183
0.181826
0.181822
0.181818
0.181814
0.181809
0.181805
0.1818
0.181795
0.181789
0.181784
0.181778
0.181772
0.181765
0.181759
0.181752
0.181745
0.181737
0.181729
0.181721
0.181713
0.181704
0.181695
0.181686
0.181676
0.181666
0.181656
0.181645
0.181635
0.181623
0.181612
0.181601
0.181589
0.181577
0.181565
0.181553
0.181541
0.181529
0.181517
0.181505
0.181493
0.181482
0.181471
0.18146
0.181449
0.181439
0.18143
0.181421
0.181413
0.181406
0.181399
0.181394
0.181389
0.181386
0.181383
0.181382
0.181382
0.181382
0.181382
0.181383
0.181387
0.181392
0.181399
0.181406
0.181414
0.181424
0.181434
0.181445
0.181456
0.181468
0.18148
0.181493
0.181506
0.18152
0.181533
0.181546
0.181559
0.181572
0.181584
0.181596
0.181608
0.181619
0.18163
0.18164
0.18165
0.181659
0.181667
0.181675
0.181682
0.181689
0.181695
0.1817
0.181706
0.18171
0.181715
0.181718
0.181722
0.181725
0.181728
0.18173
0.181733
0.181735
0.181737
0.181738
0.181741
0.181742
0.181745
0.181746
0.181748
0.181749
0.181752
0.181752
0.181755
0.181756
0.181759
0.18176
0.181763
0.181764
0.181767
0.181768
0.181771
0.181773
0.181776
0.181778
0.181781
0.181782
0.181786
0.181787
0.181791
0.181793
0.181796
0.181798
0.181801
0.181803
0.181807
0.181809
)
;

boundaryField
{
    inlet
    {
        type            calculated;
        value           uniform 0.805169;
    }
    outlet
    {
        type            calculated;
        value           uniform 0.18181;
    }
    emptyWalls
    {
        type            empty;
    }
}


// ************************************************************************* //
