/*--------------------------------*- C++ -*----------------------------------*\
  =========                 |
  \\      /  F ield         | OpenFOAM: The Open Source CFD Toolbox
   \\    /   O peration     | Website:  https://openfoam.org
    \\  /    A nd           | Version:  9
     \\/     M anipulation  |
\*---------------------------------------------------------------------------*/
FoamFile
{
    format      ascii;
    class       surfaceScalarField;
    location    "7100";
    object      phic;
}
// * * * * * * * * * * * * * * * * * * * * * * * * * * * * * * * * * * * * * //

dimensions      [0 2 0 0 0 0 0];

internalField   nonuniform List<scalar> 
999
(
1.36635e-14
6.10182e-14
1.32003e-13
2.18957e-13
3.13698e-13
4.19386e-13
6.09587e-13
1.23853e-12
3.47753e-12
1.53963e-11
2.03022e-11
2.16031e-11
2.22678e-11
2.27331e-11
2.31109e-11
2.34387e-11
2.37319e-11
2.40003e-11
2.42538e-11
2.45029e-11
2.47606e-11
2.50437e-11
2.53908e-11
2.58043e-11
2.63259e-11
2.70054e-11
2.78718e-11
2.8906e-11
3.00592e-11
3.12909e-11
3.25768e-11
3.39018e-11
3.52566e-11
3.6635e-11
3.80329e-11
3.94474e-11
4.08762e-11
4.23179e-11
4.37713e-11
4.52354e-11
4.67096e-11
4.81931e-11
4.96855e-11
5.11862e-11
5.26948e-11
5.42112e-11
5.57348e-11
5.72655e-11
5.8803e-11
6.03472e-11
6.18977e-11
6.34545e-11
6.50173e-11
6.6586e-11
6.81604e-11
6.97405e-11
7.13261e-11
7.29171e-11
7.45134e-11
7.61149e-11
7.77215e-11
7.93331e-11
8.09496e-11
8.25711e-11
8.41974e-11
8.58284e-11
8.74641e-11
8.91044e-11
9.07493e-11
9.23988e-11
9.40526e-11
9.57108e-11
9.73735e-11
9.90405e-11
1.00712e-10
1.02388e-10
1.04068e-10
1.05752e-10
1.07441e-10
1.09134e-10
1.10831e-10
1.12531e-10
1.14236e-10
1.15944e-10
1.17656e-10
1.19372e-10
1.21092e-10
1.22816e-10
1.24543e-10
1.26275e-10
1.2801e-10
1.29748e-10
1.31489e-10
1.33233e-10
1.34979e-10
1.36727e-10
1.38477e-10
1.40228e-10
1.41981e-10
1.43736e-10
1.45493e-10
1.47253e-10
1.49015e-10
1.50781e-10
1.52551e-10
1.54325e-10
1.56105e-10
1.57892e-10
1.59686e-10
1.61488e-10
1.63299e-10
1.6512e-10
1.66951e-10
1.68793e-10
1.70646e-10
1.7251e-10
1.74384e-10
1.76266e-10
1.78158e-10
1.80056e-10
1.8196e-10
1.83869e-10
1.85782e-10
1.87698e-10
1.89615e-10
1.91533e-10
1.93453e-10
1.95373e-10
1.97293e-10
1.99215e-10
2.01138e-10
2.03062e-10
2.04989e-10
2.06918e-10
2.08851e-10
2.10787e-10
2.12728e-10
2.14674e-10
2.16624e-10
2.18581e-10
2.20543e-10
2.22511e-10
2.24485e-10
2.26466e-10
2.28453e-10
2.30447e-10
2.32447e-10
2.34453e-10
2.36466e-10
2.38486e-10
2.40511e-10
2.42543e-10
2.44582e-10
2.46627e-10
2.48678e-10
2.50735e-10
2.52798e-10
2.54868e-10
2.56944e-10
2.59026e-10
2.61115e-10
2.6321e-10
2.65312e-10
2.6742e-10
2.69535e-10
2.71656e-10
2.73784e-10
2.75919e-10
2.78061e-10
2.8021e-10
2.82366e-10
2.84529e-10
2.86699e-10
2.88876e-10
2.91061e-10
2.93253e-10
2.95453e-10
2.97661e-10
2.99876e-10
3.021e-10
3.04331e-10
3.0657e-10
3.08817e-10
3.11073e-10
3.13337e-10
3.1561e-10
3.17891e-10
3.20181e-10
3.22479e-10
3.24787e-10
3.27103e-10
3.29428e-10
3.31763e-10
3.34107e-10
3.3646e-10
3.38823e-10
3.41195e-10
3.43577e-10
3.45969e-10
3.48371e-10
3.50783e-10
3.53205e-10
3.55638e-10
3.58081e-10
3.60536e-10
3.63001e-10
3.65477e-10
3.67965e-10
3.70464e-10
3.72976e-10
3.75499e-10
3.78034e-10
3.80583e-10
3.83144e-10
3.85718e-10
3.88305e-10
3.90906e-10
3.93521e-10
3.96151e-10
3.98794e-10
4.01453e-10
4.04127e-10
4.06816e-10
4.09521e-10
4.12242e-10
4.1498e-10
4.17734e-10
4.20505e-10
4.23294e-10
4.261e-10
4.28924e-10
4.31767e-10
4.3463e-10
4.37511e-10
4.40413e-10
4.43335e-10
4.46277e-10
4.4924e-10
4.52225e-10
4.55231e-10
4.58259e-10
4.61311e-10
4.64386e-10
4.67484e-10
4.70607e-10
4.73755e-10
4.76927e-10
4.80124e-10
4.83347e-10
4.86596e-10
4.89871e-10
4.93172e-10
4.96499e-10
4.99851e-10
5.03228e-10
5.06627e-10
5.10047e-10
5.13487e-10
5.16942e-10
5.20408e-10
5.2388e-10
5.27348e-10
5.30803e-10
5.34234e-10
5.37626e-10
5.40962e-10
5.44223e-10
5.47385e-10
5.50427e-10
5.53326e-10
5.56061e-10
5.58621e-10
5.61003e-10
5.63225e-10
5.65335e-10
5.67439e-10
5.69731e-10
5.72563e-10
5.76548e-10
5.82727e-10
5.92798e-10
6.09322e-10
6.35634e-10
6.74794e-10
7.27088e-10
7.87245e-10
8.4518e-10
8.91729e-10
9.237e-10
9.43257e-10
9.54363e-10
9.60417e-10
9.6366e-10
9.65401e-10
9.66357e-10
9.66908e-10
9.6725e-10
9.67487e-10
9.67669e-10
9.67821e-10
9.67957e-10
9.68081e-10
9.68197e-10
9.68305e-10
9.68406e-10
9.68498e-10
9.68582e-10
9.68657e-10
9.68724e-10
9.68783e-10
9.68833e-10
9.68875e-10
9.68909e-10
9.68936e-10
9.68956e-10
9.6897e-10
9.68979e-10
9.68984e-10
9.68985e-10
9.68985e-10
9.68984e-10
9.68978e-10
9.6897e-10
9.68961e-10
9.68952e-10
9.68944e-10
9.68936e-10
9.68929e-10
9.68923e-10
9.68919e-10
9.68916e-10
9.68915e-10
9.68915e-10
9.68915e-10
9.68916e-10
9.68921e-10
9.68928e-10
9.68937e-10
9.68947e-10
9.68958e-10
9.68971e-10
9.68985e-10
9.69e-10
9.69016e-10
9.69032e-10
9.6905e-10
9.69068e-10
9.69087e-10
9.69106e-10
9.69126e-10
9.69146e-10
9.69166e-10
9.69186e-10
9.69207e-10
9.69227e-10
9.69248e-10
9.69268e-10
9.69288e-10
9.69308e-10
9.69328e-10
9.69348e-10
9.69367e-10
9.69386e-10
9.69404e-10
9.69422e-10
9.6944e-10
9.69457e-10
9.69473e-10
9.69489e-10
9.69505e-10
9.6952e-10
9.69535e-10
9.69549e-10
9.69562e-10
9.69576e-10
9.69588e-10
9.69601e-10
9.69612e-10
9.69624e-10
9.69635e-10
9.69645e-10
9.69656e-10
9.69665e-10
9.69675e-10
9.69684e-10
9.69693e-10
9.69701e-10
9.69709e-10
9.69717e-10
9.69724e-10
9.69731e-10
9.69738e-10
9.69744e-10
9.6975e-10
9.69756e-10
9.69761e-10
9.69766e-10
9.69771e-10
9.69775e-10
9.69778e-10
9.69781e-10
9.69783e-10
9.69785e-10
9.69786e-10
9.69787e-10
9.69787e-10
9.69788e-10
9.69787e-10
9.69785e-10
9.69783e-10
9.6978e-10
9.69776e-10
9.69771e-10
9.69766e-10
9.6976e-10
9.69753e-10
9.69746e-10
9.69738e-10
9.69729e-10
9.6972e-10
9.6971e-10
9.697e-10
9.69689e-10
9.69678e-10
9.69666e-10
9.69654e-10
9.69641e-10
9.69628e-10
9.69615e-10
9.69602e-10
9.69588e-10
9.69574e-10
9.6956e-10
9.69546e-10
9.69531e-10
9.69517e-10
9.69502e-10
9.69487e-10
9.69472e-10
9.69457e-10
9.69442e-10
9.69426e-10
9.69411e-10
9.69395e-10
9.69379e-10
9.69363e-10
9.69346e-10
9.69329e-10
9.69311e-10
9.69293e-10
9.69275e-10
9.69255e-10
9.69235e-10
9.69213e-10
9.69191e-10
9.69168e-10
9.69143e-10
9.69116e-10
9.69088e-10
9.69058e-10
9.69027e-10
9.68992e-10
9.68956e-10
9.68917e-10
9.68875e-10
9.68831e-10
9.68784e-10
9.68733e-10
9.6868e-10
9.68624e-10
9.68564e-10
9.68502e-10
9.68437e-10
9.68368e-10
9.68298e-10
9.68225e-10
9.6815e-10
9.68073e-10
9.67996e-10
9.67917e-10
9.67838e-10
9.6776e-10
9.67683e-10
9.67608e-10
9.67535e-10
9.67465e-10
9.674e-10
9.67339e-10
9.67283e-10
9.67233e-10
9.67191e-10
9.67156e-10
9.67129e-10
9.67111e-10
9.67101e-10
9.67099e-10
9.67098e-10
9.67101e-10
9.67122e-10
9.67158e-10
9.67203e-10
9.67258e-10
9.6732e-10
9.67389e-10
9.67465e-10
9.67547e-10
9.67632e-10
9.67722e-10
9.67813e-10
9.67906e-10
9.67999e-10
9.68091e-10
9.68182e-10
9.6827e-10
9.68354e-10
9.68434e-10
9.6851e-10
9.68581e-10
9.68646e-10
9.68705e-10
9.68759e-10
9.68806e-10
9.68849e-10
9.68885e-10
9.68916e-10
9.68943e-10
9.68964e-10
9.68981e-10
9.68995e-10
9.69005e-10
9.69011e-10
9.69015e-10
9.69017e-10
9.69017e-10
9.69017e-10
9.69016e-10
9.69012e-10
9.69007e-10
9.69002e-10
9.68997e-10
9.68993e-10
9.6899e-10
9.68987e-10
9.68986e-10
9.68985e-10
9.68984e-10
9.68984e-10
9.68986e-10
9.6899e-10
9.68995e-10
9.69003e-10
9.69011e-10
9.69021e-10
9.69032e-10
9.69044e-10
9.69057e-10
9.69071e-10
9.69086e-10
9.69102e-10
9.69119e-10
9.69136e-10
9.69154e-10
9.69173e-10
9.69192e-10
9.69212e-10
9.69231e-10
9.69251e-10
9.69272e-10
9.69292e-10
9.69312e-10
9.69332e-10
9.69353e-10
9.69373e-10
9.69392e-10
9.69412e-10
9.69431e-10
9.6945e-10
9.69469e-10
9.69487e-10
9.69505e-10
9.69522e-10
9.69539e-10
9.69555e-10
9.69571e-10
9.69586e-10
9.69601e-10
9.69615e-10
9.69629e-10
9.69642e-10
9.69654e-10
9.69667e-10
9.69678e-10
9.69689e-10
9.697e-10
9.6971e-10
9.6972e-10
9.69729e-10
9.69738e-10
9.69747e-10
9.69755e-10
9.69763e-10
9.69771e-10
9.69778e-10
9.69785e-10
9.69791e-10
9.69797e-10
9.69803e-10
9.69809e-10
9.69814e-10
9.69819e-10
9.69824e-10
9.69828e-10
9.69832e-10
9.69835e-10
9.69839e-10
9.69841e-10
9.69844e-10
9.69846e-10
9.69848e-10
9.69849e-10
9.6985e-10
9.6985e-10
9.6985e-10
9.6985e-10
9.6985e-10
9.69848e-10
9.69846e-10
9.69843e-10
9.69839e-10
9.69835e-10
9.6983e-10
9.69825e-10
9.69819e-10
9.69812e-10
9.69805e-10
9.69797e-10
9.69789e-10
9.69779e-10
9.6977e-10
9.69759e-10
9.69748e-10
9.69737e-10
9.69724e-10
9.69712e-10
9.69698e-10
9.69684e-10
9.6967e-10
9.69655e-10
9.69639e-10
9.69623e-10
9.69607e-10
9.6959e-10
9.69572e-10
9.69553e-10
9.69534e-10
9.69515e-10
9.69495e-10
9.69474e-10
9.69452e-10
9.6943e-10
9.69406e-10
9.69382e-10
9.69357e-10
9.69331e-10
9.69303e-10
9.69275e-10
9.69245e-10
9.69213e-10
9.6918e-10
9.69145e-10
9.69109e-10
9.69071e-10
9.69031e-10
9.68989e-10
9.68945e-10
9.68898e-10
9.6885e-10
9.68799e-10
9.68747e-10
9.68692e-10
9.68635e-10
9.68576e-10
9.68515e-10
9.68452e-10
9.68387e-10
9.68321e-10
9.68254e-10
9.68185e-10
9.68116e-10
9.68047e-10
9.67977e-10
9.67908e-10
9.6784e-10
9.67772e-10
9.67707e-10
9.67643e-10
9.67582e-10
9.67524e-10
9.6747e-10
9.67419e-10
9.67374e-10
9.67333e-10
9.67297e-10
9.67267e-10
9.67244e-10
9.67227e-10
9.67217e-10
9.67213e-10
9.67212e-10
9.67212e-10
9.67218e-10
9.67243e-10
9.67274e-10
9.67311e-10
9.67355e-10
9.67404e-10
9.67458e-10
9.67517e-10
9.67581e-10
9.67647e-10
9.67716e-10
9.67787e-10
9.67859e-10
9.67932e-10
9.68004e-10
9.68076e-10
9.68146e-10
9.68214e-10
9.6828e-10
9.68343e-10
9.68402e-10
9.68458e-10
9.68511e-10
9.6856e-10
9.68604e-10
9.68645e-10
9.68682e-10
9.68715e-10
9.68745e-10
9.68771e-10
9.68794e-10
9.68814e-10
9.68831e-10
9.68845e-10
9.68857e-10
9.68868e-10
9.68876e-10
9.68883e-10
9.68888e-10
9.68893e-10
9.68897e-10
9.689e-10
9.68903e-10
9.68906e-10
9.68909e-10
9.68911e-10
9.68915e-10
9.68918e-10
9.68922e-10
9.68927e-10
9.68932e-10
9.68939e-10
9.68946e-10
9.68954e-10
9.68962e-10
9.68972e-10
9.68982e-10
9.68993e-10
9.69005e-10
9.69018e-10
9.69032e-10
9.69046e-10
9.69061e-10
9.69076e-10
9.69092e-10
9.69109e-10
9.69126e-10
9.69144e-10
9.69162e-10
9.69181e-10
9.69199e-10
9.69218e-10
9.69238e-10
9.69257e-10
9.69277e-10
9.69296e-10
9.69316e-10
9.69336e-10
9.69356e-10
9.69375e-10
9.69395e-10
9.69414e-10
9.69433e-10
9.69452e-10
9.6947e-10
9.69488e-10
9.69506e-10
9.69523e-10
9.6954e-10
9.69557e-10
9.69573e-10
9.69588e-10
9.69603e-10
9.69618e-10
9.69632e-10
9.69645e-10
9.69658e-10
9.6967e-10
9.69682e-10
9.69693e-10
9.69703e-10
9.69713e-10
9.69722e-10
9.69731e-10
9.69739e-10
9.69747e-10
9.69754e-10
9.6976e-10
9.69766e-10
9.69772e-10
9.69777e-10
9.69781e-10
9.69785e-10
9.69789e-10
9.69792e-10
9.69795e-10
9.69798e-10
9.698e-10
9.69801e-10
9.69803e-10
9.69804e-10
9.69804e-10
9.69805e-10
9.69805e-10
9.69805e-10
9.69804e-10
9.69803e-10
9.69802e-10
9.698e-10
9.69798e-10
9.69795e-10
9.69792e-10
9.69788e-10
9.69784e-10
9.6978e-10
9.69775e-10
9.69769e-10
9.69763e-10
9.69757e-10
9.69749e-10
9.69742e-10
9.69733e-10
9.69724e-10
9.69714e-10
9.69703e-10
9.69692e-10
9.6968e-10
9.69667e-10
9.69654e-10
9.69639e-10
9.69624e-10
9.69608e-10
9.6959e-10
9.69572e-10
9.69554e-10
9.69534e-10
9.69513e-10
9.69491e-10
9.69468e-10
9.69444e-10
9.69418e-10
9.69392e-10
9.69365e-10
9.69336e-10
9.69306e-10
9.69275e-10
9.69242e-10
9.69208e-10
9.69173e-10
9.69136e-10
9.69097e-10
9.69058e-10
9.69016e-10
9.68973e-10
9.68928e-10
9.68882e-10
9.68834e-10
9.68784e-10
9.68733e-10
9.6868e-10
9.68626e-10
9.68571e-10
9.68513e-10
9.68455e-10
9.68395e-10
9.68335e-10
9.68273e-10
9.6821e-10
9.68148e-10
9.68085e-10
9.68021e-10
9.67958e-10
9.67896e-10
9.67834e-10
9.67773e-10
9.67713e-10
9.67655e-10
9.676e-10
9.67547e-10
9.67496e-10
9.67449e-10
9.67405e-10
9.67365e-10
9.67329e-10
9.67298e-10
9.67271e-10
9.6725e-10
9.67234e-10
9.67224e-10
9.67219e-10
9.67218e-10
9.67218e-10
9.67221e-10
9.67238e-10
9.67262e-10
9.67292e-10
9.67328e-10
9.67369e-10
9.67415e-10
9.67465e-10
9.6752e-10
9.67578e-10
9.67639e-10
9.67703e-10
9.67769e-10
9.67836e-10
9.67905e-10
9.67974e-10
9.68043e-10
9.68111e-10
9.68178e-10
9.68244e-10
9.68308e-10
9.6837e-10
9.6843e-10
9.68487e-10
9.68541e-10
9.68592e-10
9.6864e-10
9.68685e-10
9.68727e-10
9.68766e-10
9.68802e-10
9.68835e-10
9.68865e-10
9.68893e-10
9.68918e-10
9.68941e-10
9.68962e-10
9.68981e-10
9.68998e-10
9.69013e-10
9.69027e-10
9.6904e-10
9.69052e-10
9.69064e-10
9.69074e-10
9.69084e-10
9.69093e-10
9.69103e-10
9.69111e-10
9.6912e-10
9.69129e-10
9.69138e-10
9.69148e-10
9.69157e-10
9.69167e-10
9.69176e-10
9.69187e-10
9.69197e-10
9.69208e-10
9.69219e-10
9.6923e-10
9.69242e-10
9.69254e-10
9.69266e-10
9.69279e-10
9.69291e-10
9.69305e-10
9.69318e-10
9.69332e-10
9.69345e-10
9.69359e-10
9.69373e-10
9.69387e-10
9.69401e-10
9.69415e-10
9.69429e-10
9.69444e-10
)
;

boundaryField
{
    inlet
    {
        type            calculated;
        value           uniform 0;
    }
    outlet
    {
        type            calculated;
        value           uniform 9.69458e-10;
    }
    emptyWalls
    {
        type            empty;
        value           nonuniform List<scalar> 0();
    }
}


// ************************************************************************* //
