/*--------------------------------*- C++ -*----------------------------------*\
  =========                 |
  \\      /  F ield         | OpenFOAM: The Open Source CFD Toolbox
   \\    /   O peration     | Website:  https://openfoam.org
    \\  /    A nd           | Version:  9
     \\/     M anipulation  |
\*---------------------------------------------------------------------------*/
FoamFile
{
    format      ascii;
    class       volScalarField;
    location    "3950";
    object      Fb;
}
// * * * * * * * * * * * * * * * * * * * * * * * * * * * * * * * * * * * * * //

dimensions      [0 0 0 0 0 0 0];

internalField   nonuniform List<scalar> 
1000
(
0.805438
0.804718
0.806134
0.805126
0.808235
0.826893
0.834061
0.835545
0.836223
0.836535
0.836727
0.836787
0.836594
0.836515
0.835646
0.83435
0.832864
0.831263
0.829587
0.827856
0.826082
0.824273
0.822437
0.820578
0.818696
0.81679
0.814858
0.812907
0.810944
0.808975
0.807002
0.805023
0.803028
0.801007
0.79895
0.796851
0.794703
0.79251
0.790272
0.788
0.785701
0.783388
0.781069
0.778758
0.776456
0.774177
0.771919
0.769697
0.767509
0.76537
0.76328
0.761249
0.759273
0.757352
0.755474
0.753628
0.751796
0.74996
0.748103
0.746208
0.744263
0.742259
0.740192
0.738061
0.73587
0.733622
0.731326
0.72899
0.726621
0.724227
0.721814
0.71939
0.716957
0.71452
0.71208
0.709639
0.707196
0.704751
0.702304
0.699851
0.697396
0.69493
0.69246
0.689974
0.687485
0.684977
0.682464
0.67993
0.677389
0.674829
0.672257
0.669671
0.667064
0.664449
0.661809
0.659162
0.65649
0.653807
0.651103
0.648381
0.645644
0.642883
0.640108
0.637311
0.634494
0.631658
0.628799
0.625921
0.623019
0.620094
0.617148
0.614176
0.611182
0.608162
0.605115
0.602044
0.598944
0.595816
0.592661
0.589474
0.586258
0.583009
0.579727
0.576412
0.573059
0.569673
0.566246
0.562782
0.559277
0.555729
0.55214
0.548504
0.544824
0.541096
0.537317
0.53349
0.529609
0.52568
0.5217
0.51767
0.513597
0.509482
0.505338
0.501174
0.49701
0.492867
0.488768
0.484735
0.480777
0.47687
0.472929
0.468752
0.463929
0.457712
0.44882
0.435275
0.414483
0.384116
0.344292
0.299824
0.258915
0.227803
0.207516
0.195613
0.189065
0.185591
0.183784
0.182855
0.18238
0.182139
0.182017
0.181955
0.181923
0.181906
0.181898
0.181894
0.181891
0.18189
0.181889
0.181888
0.181887
0.181887
0.181886
0.181885
0.181883
0.181881
0.181879
0.181876
0.181873
0.18187
0.181866
0.181862
0.181857
0.181851
0.181845
0.181839
0.181833
0.181826
0.181819
0.181812
0.181804
0.181797
0.181788
0.18178
0.181771
0.181762
0.181752
0.181742
0.18173
0.181719
0.181705
0.181692
0.181677
0.181661
0.181643
0.181625
0.181604
0.181583
0.18156
0.181537
0.181512
0.181486
0.18146
0.181433
0.181405
0.181378
0.181351
0.181325
0.181299
0.181276
0.181254
0.181234
0.181217
0.181204
0.181194
0.181189
0.181187
0.181187
0.181188
0.181193
0.181208
0.181229
0.181254
0.181282
0.181315
0.18135
0.181388
0.181427
0.181468
0.181508
0.181548
0.181587
0.181624
0.181659
0.181691
0.181721
0.181746
0.181768
0.181787
0.181802
0.181814
0.181823
0.181829
0.181832
0.181833
0.181833
0.181832
0.18183
0.181824
0.181818
0.181811
0.181803
0.181796
0.181789
0.181783
0.181776
0.181771
0.181765
0.181761
0.181757
0.181754
0.181751
0.181749
0.181748
0.181747
0.181747
0.181746
0.181746
0.181747
0.181748
0.181749
0.181751
0.181752
0.181754
0.181756
0.181757
0.181759
0.181761
0.181762
0.181764
0.181766
0.181767
0.181769
0.18177
0.181772
0.181773
0.181774
0.181775
0.181776
0.181777
0.181778
0.181779
0.18178
0.181781
0.181781
0.181782
0.181783
0.181783
0.181784
0.181784
0.181785
0.181785
0.181786
0.181787
0.181787
0.181788
0.181789
0.18179
0.18179
0.181791
0.181792
0.181793
0.181795
0.181796
0.181798
0.181799
0.181801
0.181803
0.181805
0.181807
0.181809
0.181811
0.181814
0.181816
0.181819
0.181822
0.181824
0.181827
0.18183
0.181833
0.181836
0.181839
0.181842
0.181845
0.181848
0.181851
0.181854
0.181857
0.18186
0.181863
0.181865
0.181867
0.18187
0.181872
0.181874
0.181876
0.181877
0.181879
0.18188
0.181881
0.181881
0.181882
0.181882
0.181882
0.181882
0.181882
0.181881
0.18188
0.181879
0.181877
0.181876
0.181874
0.181872
0.18187
0.181867
0.181865
0.181862
0.181859
0.181857
0.181854
0.181851
0.181848
0.181845
0.181841
0.181838
0.181835
0.181832
0.181829
0.181826
0.181823
0.18182
0.181817
0.181814
0.181811
0.181808
0.181805
0.181802
0.181799
0.181796
0.181793
0.181789
0.181786
0.181782
0.181778
0.181774
0.181769
0.181764
0.181758
0.181752
0.181745
0.181737
0.181728
0.181718
0.181708
0.181696
0.181684
0.18167
0.181654
0.181638
0.18162
0.181601
0.181581
0.18156
0.181538
0.181515
0.181491
0.181467
0.181442
0.181417
0.181392
0.181367
0.181343
0.181319
0.181296
0.181275
0.181256
0.181238
0.181223
0.18121
0.1812
0.181193
0.18119
0.181189
0.181189
0.181189
0.181197
0.181211
0.181229
0.18125
0.181275
0.181303
0.181333
0.181365
0.181399
0.181434
0.18147
0.181505
0.18154
0.181574
0.181607
0.181638
0.181667
0.181694
0.181718
0.18174
0.181759
0.181775
0.181789
0.181801
0.18181
0.181818
0.181823
0.181826
0.181828
0.181829
0.181829
0.181829
0.181827
0.181824
0.18182
0.181816
0.181812
0.181808
0.181804
0.1818
0.181797
0.181793
0.18179
0.181787
0.181785
0.181783
0.181782
0.18178
0.18178
0.181779
0.181779
0.181779
0.18178
0.18178
0.181782
0.181783
0.181785
0.181787
0.181789
0.181791
0.181794
0.181796
0.181799
0.181802
0.181804
0.181807
0.18181
0.181813
0.181816
0.181818
0.181821
0.181824
0.181827
0.18183
0.181833
0.181835
0.181838
0.18184
0.181843
0.181845
0.181847
0.181849
0.181851
0.181853
0.181855
0.181857
0.181859
0.18186
0.181861
0.181862
0.181863
0.181864
0.181865
0.181865
0.181866
0.181866
0.181866
0.181865
0.181865
0.181865
0.181864
0.181863
0.181862
0.181861
0.18186
0.181858
0.181857
0.181855
0.181853
0.181851
0.181849
0.181847
0.181845
0.181844
0.181842
0.18184
0.181838
0.181836
0.181835
0.181833
0.181832
0.18183
0.181829
0.181828
0.181827
0.181826
0.181826
0.181825
0.181825
0.181825
0.181825
0.181825
0.181826
0.181826
0.181827
0.181828
0.181829
0.18183
0.181831
0.181832
0.181833
0.181835
0.181836
0.181837
0.181838
0.181839
0.18184
0.181841
0.181843
0.181843
0.181844
0.181844
0.181844
0.181844
0.181844
0.181844
0.181844
0.181843
0.181841
0.181841
0.181838
0.181836
0.181833
0.181831
0.181826
0.181824
0.181818
0.181814
0.181807
0.181803
0.181794
0.181789
0.181779
0.181773
0.181761
0.181753
0.18174
0.181731
0.181716
0.181706
0.181689
0.181676
0.181659
0.181647
0.181624
0.181609
0.181593
0.181576
0.181548
0.181538
0.181521
0.181494
0.181471
0.181475
0.181501
0.181987
0.183559
0.204231
0.210208
0.210278
0.21028
0.21028
0.21028
0.21028
0.21028
0.21028
0.21028
0.21028
0.21028
0.21028
0.21028
0.21028
0.21028
0.21028
0.21028
0.21028
0.21028
0.21028
0.21028
0.21028
0.21028
0.21028
0.21028
0.21028
0.21028
0.21028
0.21028
0.21028
0.21028
0.21028
0.21028
0.21028
0.21028
0.21028
0.21028
0.21028
0.21028
0.21028
0.21028
0.21028
0.21028
0.21028
0.21028
0.21028
0.21028
0.21028
0.21028
0.21028
0.21028
0.21028
0.21028
0.21028
0.21028
0.21028
0.21028
0.21028
0.21028
0.21028
0.21028
0.21028
0.21028
0.21028
0.21028
0.21028
0.21028
0.21028
0.21028
0.21028
0.21028
0.21028
0.21028
0.21028
0.21028
0.21028
0.21028
0.21028
0.21028
0.21028
0.21028
0.21028
0.21028
0.21028
0.21028
0.21028
0.21028
0.21028
0.21028
0.21028
0.21028
0.21028
0.21028
0.21028
0.21028
0.21028
0.21028
0.21028
0.21028
0.21028
0.21028
0.21028
0.21028
0.21028
0.21028
0.21028
0.21028
0.21028
0.21028
0.21028
0.21028
0.21028
0.21028
0.21028
0.21028
0.21028
0.21028
0.21028
0.21028
0.21028
0.21028
0.21028
0.21028
0.21028
0.21028
0.21028
0.21028
0.21028
0.21028
0.21028
0.21028
0.21028
0.21028
0.21028
0.21028
0.21028
0.21028
0.21028
0.21028
0.21028
0.21028
0.21028
0.21028
0.21028
0.21028
0.21028
0.21028
0.21028
0.21028
0.21028
0.21028
0.21028
0.21028
0.21028
0.21028
0.21028
0.21028
0.21028
0.21028
0.21028
0.21028
0.21028
0.21028
0.21028
0.21028
0.21028
0.21028
0.21028
0.21028
0.21028
0.21028
0.21028
0.21028
0.21028
0.21028
0.21028
0.21028
0.21028
0.21028
0.21028
0.21028
0.21028
0.21028
0.21028
0.21028
0.21028
0.21028
0.21028
0.21028
0.21028
0.21028
0.21028
0.21028
0.21028
0.21028
0.21028
0.21028
0.21028
0.21028
0.21028
0.21028
0.21028
0.21028
0.21028
0.21028
0.21028
0.21028
0.21028
0.21028
0.21028
0.21028
0.21028
0.21028
0.21028
0.21028
0.21028
0.21028
0.21028
0.21028
0.21028
0.21028
0.21028
0.21028
0.21028
0.21028
0.21028
0.21028
0.21028
0.21028
0.21028
0.21028
0.21028
0.21028
0.21028
0.21028
0.21028
0.21028
0.21028
0.21028
0.21028
0.21028
0.21028
0.21028
0.21028
0.21028
0.21028
0.21028
0.21028
0.21028
0.21028
0.21028
0.21028
0.21028
0.21028
0.21028
0.21028
0.21028
0.21028
0.21028
0.21028
0.21028
0.21028
0.21028
0.21028
0.21028
0.21028
0.21028
0.21028
0.21028
0.21028
0.21028
0.21028
0.21028
0.21028
0.21028
0.21028
0.21028
0.21028
0.21028
0.21028
0.21028
0.21028
0.21028
0.21028
0.21028
0.21028
0.21028
0.21028
0.21028
0.21028
0.21028
0.21028
0.21028
0.21028
0.21028
0.21028
0.21028
0.21028
0.21028
0.21028
0.21028
0.21028
0.21028
0.21028
0.21028
0.21028
0.21028
0.21028
0.21028
0.21028
0.21028
0.21028
0.21028
0.21028
0.21028
0.21028
0.21028
0.21028
0.21028
0.21028
0.21028
0.21028
0.21028
0.21028
0.21028
0.21028
0.21028
0.21028
0.21028
0.21028
0.21028
0.21028
0.21028
0.21028
0.21028
0.21028
0.21028
0.21028
0.21028
0.21028
0.21028
0.21028
0.21028
0.21028
0.21028
0.21028
0.21028
)
;

boundaryField
{
    inlet
    {
        type            calculated;
        value           uniform 0.805169;
    }
    outlet
    {
        type            calculated;
        value           uniform 0.21028;
    }
    emptyWalls
    {
        type            empty;
    }
}


// ************************************************************************* //
