/*--------------------------------*- C++ -*----------------------------------*\
  =========                 |
  \\      /  F ield         | OpenFOAM: The Open Source CFD Toolbox
   \\    /   O peration     | Website:  https://openfoam.org
    \\  /    A nd           | Version:  9
     \\/     M anipulation  |
\*---------------------------------------------------------------------------*/
FoamFile
{
    format      ascii;
    class       volScalarField;
    location    "3950";
    object      krc;
}
// * * * * * * * * * * * * * * * * * * * * * * * * * * * * * * * * * * * * * //

dimensions      [0 0 0 0 0 0 0];

internalField   nonuniform List<scalar> 
1000
(
5.47747e-06
5.25136e-05
0.000144872
0.000428567
0.00216535
0.0214576
0.04263
0.0484172
0.0511674
0.0529522
0.0542676
0.0553798
0.0565783
0.0584095
0.0609479
0.0640681
0.0675599
0.0712325
0.0749853
0.0787646
0.0825416
0.0862999
0.0900301
0.0937264
0.0973855
0.101006
0.104587
0.108127
0.111628
0.115089
0.118512
0.121897
0.125244
0.128554
0.131829
0.135069
0.138275
0.141448
0.144589
0.147699
0.150778
0.153829
0.156851
0.159845
0.162813
0.165756
0.168674
0.171567
0.174438
0.177286
0.180113
0.182919
0.185705
0.188472
0.19122
0.19395
0.196662
0.199358
0.202036
0.204698
0.207344
0.209974
0.21259
0.21519
0.217776
0.220349
0.222908
0.225455
0.227989
0.230512
0.233023
0.235524
0.238014
0.240495
0.242966
0.245429
0.247883
0.250329
0.252767
0.255198
0.257623
0.26004
0.262452
0.264857
0.267258
0.269653
0.272043
0.274429
0.276811
0.279189
0.281565
0.283937
0.286307
0.288674
0.29104
0.293404
0.295768
0.29813
0.300493
0.302856
0.305219
0.307583
0.309949
0.312317
0.314686
0.317059
0.319435
0.321815
0.324199
0.326587
0.328981
0.331381
0.333787
0.3362
0.33862
0.341048
0.343484
0.34593
0.348386
0.350852
0.35333
0.35582
0.358323
0.36084
0.363371
0.365917
0.36848
0.37106
0.373658
0.376274
0.378911
0.381569
0.384248
0.38695
0.389676
0.392427
0.395203
0.398004
0.400829
0.403678
0.406548
0.409435
0.412333
0.415234
0.418126
0.420995
0.423824
0.4266
0.429317
0.431992
0.434684
0.437531
0.440811
0.445029
0.451042
0.460168
0.47412
0.494456
0.52126
0.551764
0.58083
0.603938
0.619646
0.629154
0.634488
0.63735
0.638847
0.639618
0.640012
0.640212
0.640313
0.640364
0.64039
0.640403
0.640409
0.640412
0.640414
0.640414
0.640414
0.640415
0.640414
0.640414
0.640414
0.640413
0.640413
0.640412
0.640411
0.64041
0.640409
0.640407
0.640406
0.640404
0.640402
0.6404
0.640398
0.640395
0.640393
0.64039
0.640387
0.640384
0.640381
0.640378
0.640375
0.640371
0.640368
0.640364
0.64036
0.640356
0.640352
0.640347
0.640342
0.640336
0.64033
0.640324
0.640317
0.640309
0.640301
0.640293
0.640284
0.640274
0.640264
0.640254
0.640243
0.640233
0.640222
0.640211
0.6402
0.64019
0.64018
0.64017
0.640161
0.640154
0.640147
0.640142
0.640138
0.640136
0.640135
0.640135
0.640136
0.640138
0.640145
0.640153
0.640163
0.640175
0.640189
0.640203
0.640219
0.640235
0.640251
0.640268
0.640285
0.640301
0.640317
0.640331
0.640345
0.640357
0.640368
0.640378
0.640386
0.640393
0.640399
0.640403
0.640406
0.640408
0.640409
0.64041
0.640411
0.640411
0.640409
0.640407
0.640405
0.640403
0.640401
0.640399
0.640397
0.640395
0.640393
0.640392
0.64039
0.640389
0.640389
0.640388
0.640388
0.640388
0.640388
0.640388
0.640389
0.640389
0.64039
0.64039
0.640391
0.640392
0.640393
0.640394
0.640395
0.640396
0.640397
0.640398
0.640398
0.640399
0.6404
0.640401
0.640401
0.640402
0.640403
0.640403
0.640404
0.640404
0.640405
0.640405
0.640405
0.640406
0.640406
0.640406
0.640406
0.640407
0.640407
0.640407
0.640407
0.640407
0.640407
0.640407
0.640407
0.640407
0.640408
0.640408
0.640408
0.640408
0.640408
0.640408
0.640409
0.640409
0.640409
0.640409
0.64041
0.64041
0.640411
0.640411
0.640412
0.640412
0.640413
0.640414
0.640415
0.640415
0.640416
0.640417
0.640418
0.640419
0.64042
0.640421
0.640422
0.640423
0.640425
0.640426
0.640427
0.640428
0.640429
0.64043
0.640431
0.640432
0.640433
0.640434
0.640435
0.640436
0.640437
0.640437
0.640438
0.640438
0.640439
0.640439
0.64044
0.64044
0.64044
0.64044
0.64044
0.64044
0.64044
0.640439
0.640439
0.640438
0.640438
0.640437
0.640436
0.640435
0.640434
0.640433
0.640432
0.640431
0.64043
0.640429
0.640428
0.640427
0.640425
0.640424
0.640423
0.640422
0.640421
0.64042
0.640418
0.640417
0.640416
0.640415
0.640414
0.640413
0.640412
0.640411
0.64041
0.640409
0.640408
0.640407
0.640405
0.640404
0.640403
0.640401
0.6404
0.640398
0.640395
0.640393
0.64039
0.640387
0.640384
0.64038
0.640376
0.640371
0.640365
0.64036
0.640353
0.640347
0.64034
0.640332
0.640324
0.640316
0.640307
0.640298
0.640288
0.640278
0.640269
0.640258
0.640248
0.640238
0.640229
0.640219
0.64021
0.640201
0.640193
0.640185
0.640178
0.640172
0.640167
0.640163
0.64016
0.640159
0.640159
0.640159
0.64016
0.640163
0.640168
0.640176
0.640184
0.640194
0.640205
0.640218
0.640231
0.640244
0.640258
0.640273
0.640287
0.640301
0.640314
0.640328
0.64034
0.640352
0.640363
0.640372
0.640381
0.640389
0.640396
0.640401
0.640406
0.64041
0.640413
0.640415
0.640416
0.640417
0.640418
0.640418
0.640418
0.640417
0.640416
0.640415
0.640413
0.640412
0.64041
0.640408
0.640407
0.640405
0.640404
0.640403
0.640402
0.640401
0.6404
0.6404
0.6404
0.640399
0.640399
0.640399
0.640399
0.640399
0.6404
0.6404
0.640401
0.640402
0.640403
0.640403
0.640404
0.640405
0.640406
0.640407
0.640408
0.640409
0.640411
0.640412
0.640413
0.640414
0.640415
0.640416
0.640418
0.640419
0.64042
0.640421
0.640422
0.640423
0.640424
0.640425
0.640426
0.640427
0.640428
0.640428
0.640429
0.64043
0.64043
0.640431
0.640432
0.640432
0.640433
0.640433
0.640433
0.640433
0.640433
0.640434
0.640434
0.640434
0.640434
0.640434
0.640433
0.640433
0.640433
0.640432
0.640432
0.640431
0.640431
0.64043
0.640429
0.640428
0.640428
0.640427
0.640426
0.640426
0.640425
0.640424
0.640423
0.640422
0.640422
0.640421
0.64042
0.64042
0.640419
0.640419
0.640418
0.640418
0.640418
0.640418
0.640417
0.640417
0.640417
0.640417
0.640417
0.640417
0.640418
0.640418
0.640418
0.640419
0.640419
0.64042
0.64042
0.640421
0.640421
0.640422
0.640422
0.640423
0.640424
0.640424
0.640424
0.640425
0.640425
0.640425
0.640425
0.640426
0.640426
0.640426
0.640426
0.640425
0.640425
0.640424
0.640424
0.640423
0.640422
0.640421
0.64042
0.640418
0.640417
0.640415
0.640413
0.64041
0.640408
0.640405
0.640402
0.640398
0.640396
0.640391
0.640387
0.640382
0.640378
0.640372
0.640368
0.640361
0.640356
0.640349
0.640344
0.640335
0.640329
0.640322
0.640315
0.640304
0.6403
0.640294
0.640283
0.640274
0.640275
0.640285
0.64048
0.641117
0.651695
0.659674
0.660157
0.660156
0.660156
0.660156
0.660156
0.660156
0.660156
0.660156
0.660156
0.660156
0.660156
0.660156
0.660156
0.660156
0.660156
0.660156
0.660156
0.660156
0.660156
0.660156
0.660156
0.660156
0.660156
0.660156
0.660156
0.660156
0.660156
0.660156
0.660156
0.660156
0.660156
0.660156
0.660156
0.660156
0.660156
0.660156
0.660156
0.660156
0.660156
0.660156
0.660156
0.660156
0.660156
0.660156
0.660156
0.660156
0.660156
0.660156
0.660156
0.660156
0.660156
0.660156
0.660156
0.660156
0.660156
0.660156
0.660156
0.660156
0.660156
0.660156
0.660156
0.660156
0.660156
0.660156
0.660156
0.660156
0.660156
0.660156
0.660156
0.660156
0.660156
0.660156
0.660156
0.660156
0.660156
0.660156
0.660156
0.660156
0.660156
0.660156
0.660156
0.660156
0.660156
0.660156
0.660156
0.660156
0.660156
0.660156
0.660156
0.660156
0.660156
0.660156
0.660156
0.660156
0.660156
0.660156
0.660156
0.660156
0.660156
0.660156
0.660156
0.660156
0.660156
0.660156
0.660156
0.660156
0.660156
0.660156
0.660156
0.660156
0.660156
0.660156
0.660156
0.660156
0.660156
0.660156
0.660156
0.660156
0.660156
0.660156
0.660156
0.660156
0.660156
0.660156
0.660156
0.660156
0.660156
0.660156
0.660156
0.660156
0.660156
0.660156
0.660156
0.660156
0.660156
0.660156
0.660156
0.660156
0.660156
0.660156
0.660156
0.660156
0.660156
0.660156
0.660156
0.660156
0.660156
0.660156
0.660156
0.660156
0.660156
0.660156
0.660156
0.660156
0.660156
0.660156
0.660156
0.660156
0.660156
0.660156
0.660156
0.660156
0.660156
0.660156
0.660156
0.660156
0.660156
0.660156
0.660156
0.660156
0.660156
0.660156
0.660156
0.660156
0.660156
0.660156
0.660156
0.660156
0.660156
0.660156
0.660156
0.660156
0.660156
0.660156
0.660156
0.660156
0.660156
0.660156
0.660156
0.660156
0.660156
0.660156
0.660156
0.660156
0.660156
0.660156
0.660156
0.660156
0.660156
0.660156
0.660156
0.660156
0.660156
0.660156
0.660156
0.660156
0.660156
0.660156
0.660156
0.660156
0.660156
0.660156
0.660156
0.660156
0.660156
0.660156
0.660156
0.660156
0.660156
0.660156
0.660156
0.660156
0.660156
0.660156
0.660156
0.660156
0.660156
0.660156
0.660156
0.660156
0.660156
0.660156
0.660156
0.660156
0.660156
0.660156
0.660156
0.660156
0.660156
0.660156
0.660156
0.660156
0.660156
0.660156
0.660156
0.660156
0.660156
0.660156
0.660156
0.660156
0.660156
0.660156
0.660156
0.660156
0.660156
0.660156
0.660156
0.660156
0.660156
0.660156
0.660156
0.660156
0.660156
0.660156
0.660156
0.660156
0.660156
0.660156
0.660156
0.660156
0.660156
0.660156
0.660156
0.660156
0.660156
0.660156
0.660156
0.660156
0.660156
0.660156
0.660156
0.660156
0.660156
0.660156
0.660156
0.660156
0.660156
0.660156
0.660156
0.660156
0.660156
0.660156
0.660156
0.660156
0.660156
0.660156
0.660156
0.660156
0.660156
0.660156
0.660156
0.660156
0.660156
0.660156
0.660156
0.660156
0.660156
0.660156
0.660156
0.660156
0.660156
0.660156
0.660156
0.660156
0.660156
0.660156
0.660156
0.660156
0.660156
0.660156
0.660156
0.660156
0.660156
0.660156
0.660156
0.660156
0.660156
0.660156
0.660156
0.660156
0.660156
0.660156
0.660156
0.660156
0.660156
0.660156
0.660156
0.660156
0.660156
0.660156
0.660156
0.660156
0.660156
0.660156
0.660156
0.660156
)
;

boundaryField
{
    inlet
    {
        type            calculated;
        value           uniform 3.08149e-33;
    }
    outlet
    {
        type            calculated;
        value           uniform 0.660156;
    }
    emptyWalls
    {
        type            empty;
    }
}


// ************************************************************************* //
