/*--------------------------------*- C++ -*----------------------------------*\
  =========                 |
  \\      /  F ield         | OpenFOAM: The Open Source CFD Toolbox
   \\    /   O peration     | Website:  https://openfoam.org
    \\  /    A nd           | Version:  9
     \\/     M anipulation  |
\*---------------------------------------------------------------------------*/
FoamFile
{
    format      ascii;
    class       surfaceScalarField;
    location    "3950";
    object      phic;
}
// * * * * * * * * * * * * * * * * * * * * * * * * * * * * * * * * * * * * * //

dimensions      [0 2 0 0 0 0 0];

internalField   nonuniform List<scalar> 
999
(
6.18432e-14
2.15777e-13
5.9914e-13
1.83877e-12
7.04702e-12
1.89771e-11
2.15895e-11
2.26607e-11
2.33651e-11
2.39189e-11
2.4401e-11
2.48986e-11
2.5607e-11
2.67931e-11
2.84156e-11
3.03945e-11
3.25929e-11
3.49281e-11
3.73558e-11
3.98511e-11
4.23991e-11
4.49905e-11
4.76189e-11
5.02798e-11
5.29698e-11
5.56862e-11
5.84268e-11
6.11902e-11
6.39753e-11
6.67814e-11
6.96074e-11
7.2452e-11
7.53137e-11
7.8191e-11
8.10826e-11
8.39871e-11
8.69035e-11
8.98312e-11
9.27702e-11
9.57207e-11
9.86831e-11
1.01658e-10
1.04646e-10
1.07649e-10
1.10667e-10
1.13701e-10
1.16752e-10
1.1982e-10
1.22908e-10
1.26016e-10
1.29146e-10
1.323e-10
1.35476e-10
1.38677e-10
1.41899e-10
1.45143e-10
1.48405e-10
1.51684e-10
1.54976e-10
1.58279e-10
1.61591e-10
1.64911e-10
1.68237e-10
1.7157e-10
1.74909e-10
1.78256e-10
1.8161e-10
1.84974e-10
1.8835e-10
1.91738e-10
1.95139e-10
1.98556e-10
2.01988e-10
2.05438e-10
2.08905e-10
2.12391e-10
2.15895e-10
2.19418e-10
2.22961e-10
2.26522e-10
2.30102e-10
2.33702e-10
2.37322e-10
2.4096e-10
2.44618e-10
2.48296e-10
2.51994e-10
2.55711e-10
2.5945e-10
2.63208e-10
2.66989e-10
2.7079e-10
2.74614e-10
2.78459e-10
2.82328e-10
2.86219e-10
2.90134e-10
2.94074e-10
2.98038e-10
3.02027e-10
3.06042e-10
3.10083e-10
3.14151e-10
3.18247e-10
3.22371e-10
3.26525e-10
3.30708e-10
3.34923e-10
3.39168e-10
3.43447e-10
3.47758e-10
3.52103e-10
3.56484e-10
3.609e-10
3.65354e-10
3.69846e-10
3.74377e-10
3.7895e-10
3.83564e-10
3.88221e-10
3.92923e-10
3.97671e-10
4.02467e-10
4.07313e-10
4.12209e-10
4.17158e-10
4.22161e-10
4.27221e-10
4.32339e-10
4.37516e-10
4.42755e-10
4.48058e-10
4.53426e-10
4.58862e-10
4.64369e-10
4.69946e-10
4.75594e-10
4.81313e-10
4.871e-10
4.92952e-10
4.98864e-10
5.04823e-10
5.10816e-10
5.16819e-10
5.22806e-10
5.28743e-10
5.34598e-10
5.4035e-10
5.46008e-10
5.51651e-10
5.57487e-10
5.63953e-10
5.7188e-10
5.82722e-10
5.98804e-10
6.23381e-10
6.59945e-10
7.10073e-10
7.70279e-10
8.31245e-10
8.82583e-10
9.19121e-10
9.41949e-10
9.55012e-10
9.62098e-10
9.65826e-10
9.67753e-10
9.68738e-10
9.69237e-10
9.69487e-10
9.69612e-10
9.69674e-10
9.69704e-10
9.69717e-10
9.69723e-10
9.69725e-10
9.69724e-10
9.69723e-10
9.69721e-10
9.69719e-10
9.69715e-10
9.6971e-10
9.69704e-10
9.69697e-10
9.69688e-10
9.69678e-10
9.69665e-10
9.6965e-10
9.69633e-10
9.69614e-10
9.69592e-10
9.69568e-10
9.69541e-10
9.69513e-10
9.69482e-10
9.6945e-10
9.69415e-10
9.69379e-10
9.69342e-10
9.69303e-10
9.69262e-10
9.6922e-10
9.69177e-10
9.69132e-10
9.69084e-10
9.69034e-10
9.68981e-10
9.68925e-10
9.68865e-10
9.68801e-10
9.68731e-10
9.68656e-10
9.68574e-10
9.68486e-10
9.68392e-10
9.6829e-10
9.68182e-10
9.68067e-10
9.67946e-10
9.67819e-10
9.67687e-10
9.67551e-10
9.67411e-10
9.67269e-10
9.67126e-10
9.66984e-10
9.66845e-10
9.6671e-10
9.66581e-10
9.66462e-10
9.66353e-10
9.66259e-10
9.6618e-10
9.6612e-10
9.66081e-10
9.66063e-10
9.66058e-10
9.66058e-10
9.66072e-10
9.66133e-10
9.66229e-10
9.66349e-10
9.66492e-10
9.66654e-10
9.66833e-10
9.67026e-10
9.6723e-10
9.67441e-10
9.67656e-10
9.6787e-10
9.6808e-10
9.68283e-10
9.68476e-10
9.68655e-10
9.68819e-10
9.68966e-10
9.69096e-10
9.69207e-10
9.69299e-10
9.69374e-10
9.69433e-10
9.69475e-10
9.69503e-10
9.69518e-10
9.69523e-10
9.69525e-10
9.69525e-10
9.69506e-10
9.69478e-10
9.69447e-10
9.69414e-10
9.6938e-10
9.69346e-10
9.69314e-10
9.69284e-10
9.69256e-10
9.69231e-10
9.69209e-10
9.6919e-10
9.69175e-10
9.69162e-10
9.69153e-10
9.69147e-10
9.69144e-10
9.69143e-10
9.69143e-10
9.69144e-10
9.69146e-10
9.69154e-10
9.69162e-10
9.69171e-10
9.6918e-10
9.6919e-10
9.69201e-10
9.69211e-10
9.69221e-10
9.69232e-10
9.69242e-10
9.69252e-10
9.69261e-10
9.6927e-10
9.69279e-10
9.69287e-10
9.69294e-10
9.69302e-10
9.69308e-10
9.69315e-10
9.6932e-10
9.69326e-10
9.69331e-10
9.69335e-10
9.69339e-10
9.69343e-10
9.69346e-10
9.69349e-10
9.69352e-10
9.69355e-10
9.69357e-10
9.6936e-10
9.69362e-10
9.69364e-10
9.69366e-10
9.69369e-10
9.69371e-10
9.69373e-10
9.69376e-10
9.69379e-10
9.69383e-10
9.69387e-10
9.69391e-10
9.69396e-10
9.69401e-10
9.69406e-10
9.69413e-10
9.69419e-10
9.69427e-10
9.69435e-10
9.69444e-10
9.69453e-10
9.69463e-10
9.69474e-10
9.69485e-10
9.69497e-10
9.6951e-10
9.69523e-10
9.69536e-10
9.6955e-10
9.69565e-10
9.69579e-10
9.69594e-10
9.6961e-10
9.69625e-10
9.6964e-10
9.69655e-10
9.69671e-10
9.69686e-10
9.697e-10
9.69715e-10
9.69729e-10
9.69743e-10
9.69755e-10
9.69768e-10
9.69779e-10
9.6979e-10
9.69799e-10
9.69808e-10
9.69815e-10
9.69822e-10
9.69827e-10
9.69832e-10
9.69835e-10
9.69836e-10
9.69837e-10
9.69837e-10
9.69837e-10
9.69835e-10
9.69831e-10
9.69825e-10
9.69818e-10
9.6981e-10
9.69801e-10
9.69791e-10
9.6978e-10
9.69768e-10
9.69755e-10
9.69742e-10
9.69728e-10
9.69714e-10
9.69699e-10
9.69683e-10
9.69668e-10
9.69652e-10
9.69636e-10
9.6962e-10
9.69604e-10
9.69588e-10
9.69573e-10
9.69557e-10
9.69541e-10
9.69526e-10
9.69511e-10
9.69496e-10
9.69481e-10
9.69466e-10
9.69452e-10
9.69437e-10
9.69423e-10
9.69408e-10
9.69392e-10
9.69376e-10
9.69359e-10
9.69341e-10
9.69321e-10
9.693e-10
9.69276e-10
9.6925e-10
9.6922e-10
9.69188e-10
9.69151e-10
9.69111e-10
9.69066e-10
9.69015e-10
9.68959e-10
9.68898e-10
9.6883e-10
9.68757e-10
9.68677e-10
9.68591e-10
9.68499e-10
9.68401e-10
9.68297e-10
9.68187e-10
9.68072e-10
9.67953e-10
9.67829e-10
9.67702e-10
9.67573e-10
9.67442e-10
9.67311e-10
9.67181e-10
9.67053e-10
9.66928e-10
9.66808e-10
9.66694e-10
9.66588e-10
9.66491e-10
9.66405e-10
9.66331e-10
9.66272e-10
9.66229e-10
9.66203e-10
9.66193e-10
9.66191e-10
9.66192e-10
9.66208e-10
9.66273e-10
9.66357e-10
9.66461e-10
9.66582e-10
9.6672e-10
9.66872e-10
9.67036e-10
9.6721e-10
9.6739e-10
9.67575e-10
9.67761e-10
9.67946e-10
9.68127e-10
9.68302e-10
9.68469e-10
9.68626e-10
9.68772e-10
9.68906e-10
9.69026e-10
9.69133e-10
9.69227e-10
9.69307e-10
9.69375e-10
9.6943e-10
9.69474e-10
9.69507e-10
9.69531e-10
9.69545e-10
9.69553e-10
9.69555e-10
9.69555e-10
9.69553e-10
9.6954e-10
9.69521e-10
9.69502e-10
9.69481e-10
9.6946e-10
9.69438e-10
9.69418e-10
9.69398e-10
9.6938e-10
9.69364e-10
9.69349e-10
9.69336e-10
9.69326e-10
9.69317e-10
9.69311e-10
9.69306e-10
9.69304e-10
9.69303e-10
9.69303e-10
9.69303e-10
9.69305e-10
9.69312e-10
9.6932e-10
9.69328e-10
9.69338e-10
9.69349e-10
9.69361e-10
9.69373e-10
9.69386e-10
9.69399e-10
9.69413e-10
9.69428e-10
9.69442e-10
9.69457e-10
9.69472e-10
9.69487e-10
9.69502e-10
9.69517e-10
9.69532e-10
9.69547e-10
9.69561e-10
9.69575e-10
9.69589e-10
9.69603e-10
9.69616e-10
9.69629e-10
9.69642e-10
9.69654e-10
9.69665e-10
9.69676e-10
9.69687e-10
9.69696e-10
9.69705e-10
9.69713e-10
9.69721e-10
9.69728e-10
9.69734e-10
9.6974e-10
9.69744e-10
9.69748e-10
9.6975e-10
9.69752e-10
9.69753e-10
9.69753e-10
9.69754e-10
9.69753e-10
9.69751e-10
9.69748e-10
9.69743e-10
9.69738e-10
9.69732e-10
9.69725e-10
9.69718e-10
9.6971e-10
9.69701e-10
9.69692e-10
9.69683e-10
9.69673e-10
9.69663e-10
9.69653e-10
9.69643e-10
9.69633e-10
9.69623e-10
9.69613e-10
9.69604e-10
9.69595e-10
9.69586e-10
9.69578e-10
9.69571e-10
9.69565e-10
9.69559e-10
9.69554e-10
9.69549e-10
9.69546e-10
9.69543e-10
9.69542e-10
9.69541e-10
9.69541e-10
9.69541e-10
9.69542e-10
9.69544e-10
9.69548e-10
9.69552e-10
9.69557e-10
9.69563e-10
9.69569e-10
9.69575e-10
9.69582e-10
9.69588e-10
9.69595e-10
9.69602e-10
9.69609e-10
9.69615e-10
9.69622e-10
9.69627e-10
9.69632e-10
9.69636e-10
9.69639e-10
9.69642e-10
9.69644e-10
9.69645e-10
9.69645e-10
9.69645e-10
9.69643e-10
9.6964e-10
9.69636e-10
9.69627e-10
9.69617e-10
9.69607e-10
9.69593e-10
9.69578e-10
9.69561e-10
9.69541e-10
9.69519e-10
9.69494e-10
9.69466e-10
9.69435e-10
9.69401e-10
9.69364e-10
9.69324e-10
9.6928e-10
9.69232e-10
9.6918e-10
9.69125e-10
9.69065e-10
9.69e-10
9.68934e-10
9.68864e-10
9.68784e-10
9.68705e-10
9.68628e-10
9.68537e-10
9.68439e-10
9.68357e-10
9.68269e-10
9.68151e-10
9.68053e-10
9.67983e-10
9.67868e-10
9.67738e-10
9.67679e-10
9.67733e-10
9.68108e-10
9.74469e-10
9.95392e-10
1.09982e-09
1.11436e-09
1.11438e-09
1.11437e-09
1.11437e-09
1.11437e-09
1.11437e-09
1.11437e-09
1.11437e-09
1.11437e-09
1.11437e-09
1.11437e-09
1.11437e-09
1.11437e-09
1.11437e-09
1.11437e-09
1.11437e-09
1.11437e-09
1.11437e-09
1.11437e-09
1.11437e-09
1.11437e-09
1.11437e-09
1.11437e-09
1.11437e-09
1.11437e-09
1.11437e-09
1.11437e-09
1.11437e-09
1.11437e-09
1.11437e-09
1.11437e-09
1.11437e-09
1.11437e-09
1.11437e-09
1.11437e-09
1.11437e-09
1.11437e-09
1.11437e-09
1.11437e-09
1.11437e-09
1.11437e-09
1.11437e-09
1.11437e-09
1.11437e-09
1.11437e-09
1.11437e-09
1.11437e-09
1.11437e-09
1.11437e-09
1.11437e-09
1.11437e-09
1.11437e-09
1.11437e-09
1.11437e-09
1.11437e-09
1.11437e-09
1.11437e-09
1.11437e-09
1.11437e-09
1.11437e-09
1.11437e-09
1.11437e-09
1.11437e-09
1.11437e-09
1.11437e-09
1.11437e-09
1.11437e-09
1.11437e-09
1.11437e-09
1.11437e-09
1.11437e-09
1.11437e-09
1.11437e-09
1.11437e-09
1.11437e-09
1.11437e-09
1.11437e-09
1.11437e-09
1.11437e-09
1.11437e-09
1.11437e-09
1.11437e-09
1.11437e-09
1.11437e-09
1.11437e-09
1.11437e-09
1.11437e-09
1.11437e-09
1.11437e-09
1.11437e-09
1.11437e-09
1.11437e-09
1.11437e-09
1.11437e-09
1.11437e-09
1.11437e-09
1.11437e-09
1.11437e-09
1.11437e-09
1.11437e-09
1.11437e-09
1.11437e-09
1.11437e-09
1.11437e-09
1.11437e-09
1.11437e-09
1.11437e-09
1.11437e-09
1.11437e-09
1.11437e-09
1.11437e-09
1.11437e-09
1.11437e-09
1.11437e-09
1.11437e-09
1.11437e-09
1.11437e-09
1.11437e-09
1.11437e-09
1.11437e-09
1.11437e-09
1.11437e-09
1.11437e-09
1.11437e-09
1.11437e-09
1.11437e-09
1.11437e-09
1.11437e-09
1.11437e-09
1.11437e-09
1.11437e-09
1.11437e-09
1.11437e-09
1.11437e-09
1.11437e-09
1.11437e-09
1.11437e-09
1.11437e-09
1.11437e-09
1.11437e-09
1.11437e-09
1.11437e-09
1.11437e-09
1.11437e-09
1.11437e-09
1.11437e-09
1.11437e-09
1.11437e-09
1.11437e-09
1.11437e-09
1.11437e-09
1.11437e-09
1.11437e-09
1.11437e-09
1.11437e-09
1.11437e-09
1.11437e-09
1.11437e-09
1.11437e-09
1.11437e-09
1.11437e-09
1.11437e-09
1.11437e-09
1.11437e-09
1.11437e-09
1.11437e-09
1.11437e-09
1.11437e-09
1.11437e-09
1.11437e-09
1.11437e-09
1.11437e-09
1.11437e-09
1.11437e-09
1.11437e-09
1.11437e-09
1.11437e-09
1.11437e-09
1.11437e-09
1.11437e-09
1.11437e-09
1.11437e-09
1.11437e-09
1.11437e-09
1.11437e-09
1.11437e-09
1.11437e-09
1.11437e-09
1.11437e-09
1.11437e-09
1.11437e-09
1.11437e-09
1.11437e-09
1.11437e-09
1.11437e-09
1.11437e-09
1.11437e-09
1.11437e-09
1.11437e-09
1.11437e-09
1.11437e-09
1.11437e-09
1.11437e-09
1.11437e-09
1.11437e-09
1.11437e-09
1.11437e-09
1.11437e-09
1.11437e-09
1.11437e-09
1.11437e-09
1.11437e-09
1.11437e-09
1.11437e-09
1.11437e-09
1.11437e-09
1.11437e-09
1.11437e-09
1.11437e-09
1.11437e-09
1.11437e-09
1.11437e-09
1.11437e-09
1.11437e-09
1.11437e-09
1.11437e-09
1.11437e-09
1.11437e-09
1.11437e-09
1.11437e-09
1.11437e-09
1.11437e-09
1.11437e-09
1.11437e-09
1.11437e-09
1.11437e-09
1.11437e-09
1.11437e-09
1.11437e-09
1.11437e-09
1.11437e-09
1.11437e-09
1.11437e-09
1.11437e-09
1.11437e-09
1.11437e-09
1.11437e-09
1.11437e-09
1.11437e-09
1.11437e-09
1.11437e-09
1.11437e-09
1.11437e-09
1.11437e-09
1.11437e-09
1.11437e-09
1.11437e-09
1.11437e-09
1.11437e-09
1.11437e-09
1.11437e-09
1.11437e-09
1.11437e-09
1.11437e-09
1.11437e-09
1.11437e-09
1.11437e-09
1.11437e-09
1.11437e-09
1.11437e-09
1.11437e-09
1.11437e-09
1.11437e-09
1.11437e-09
1.11437e-09
1.11437e-09
1.11437e-09
1.11437e-09
1.11437e-09
1.11437e-09
1.11437e-09
1.11437e-09
1.11437e-09
1.11437e-09
1.11437e-09
1.11437e-09
1.11437e-09
1.11437e-09
1.11437e-09
1.11437e-09
1.11437e-09
1.11437e-09
1.11437e-09
1.11437e-09
1.11437e-09
1.11437e-09
1.11437e-09
1.11437e-09
1.11437e-09
1.11437e-09
1.11437e-09
1.11437e-09
1.11437e-09
1.11437e-09
1.11437e-09
1.11437e-09
1.11437e-09
1.11437e-09
1.11437e-09
1.11437e-09
1.11437e-09
1.11437e-09
1.11437e-09
1.11437e-09
1.11437e-09
1.11437e-09
1.11437e-09
1.11437e-09
1.11437e-09
1.11437e-09
1.11437e-09
1.11437e-09
1.11437e-09
1.11437e-09
1.11437e-09
1.11437e-09
1.11437e-09
1.11437e-09
1.11437e-09
1.11437e-09
1.11437e-09
1.11437e-09
1.11437e-09
1.11437e-09
1.11437e-09
1.11437e-09
1.11437e-09
1.11437e-09
1.11437e-09
1.11437e-09
1.11437e-09
1.11437e-09
1.11437e-09
1.11437e-09
1.11437e-09
1.11437e-09
)
;

boundaryField
{
    inlet
    {
        type            calculated;
        value           uniform 0;
    }
    outlet
    {
        type            calculated;
        value           uniform 1.11437e-09;
    }
    emptyWalls
    {
        type            empty;
        value           nonuniform List<scalar> 0();
    }
}


// ************************************************************************* //
