/*--------------------------------*- C++ -*----------------------------------*\
  =========                 |
  \\      /  F ield         | OpenFOAM: The Open Source CFD Toolbox
   \\    /   O peration     | Website:  https://openfoam.org
    \\  /    A nd           | Version:  9
     \\/     M anipulation  |
\*---------------------------------------------------------------------------*/
FoamFile
{
    format      ascii;
    class       volVectorField;
    location    "3950";
    object      Ua;
}
// * * * * * * * * * * * * * * * * * * * * * * * * * * * * * * * * * * * * * //

dimensions      [0 0 0 0 0 0 0];

internalField   nonuniform List<vector> 
1000
(
(2.74962e-06 0 0)
(2.74663e-06 0 0)
(2.74012e-06 0 0)
(2.72296e-06 0 0)
(2.6453e-06 0 0)
(2.38672e-06 0 0)
(2.15333e-06 0 0)
(2.10202e-06 0 0)
(2.08219e-06 0 0)
(2.07074e-06 0 0)
(2.06315e-06 0 0)
(2.0575e-06 0 0)
(2.05234e-06 0 0)
(2.0474e-06 0 0)
(2.04461e-06 0 0)
(2.04403e-06 0 0)
(2.04383e-06 0 0)
(2.04361e-06 0 0)
(2.04337e-06 0 0)
(2.04314e-06 0 0)
(2.04293e-06 0 0)
(2.04273e-06 0 0)
(2.04252e-06 0 0)
(2.04231e-06 0 0)
(2.04212e-06 0 0)
(2.04199e-06 0 0)
(2.04194e-06 0 0)
(2.04193e-06 0 0)
(2.04187e-06 0 0)
(2.0417e-06 0 0)
(2.04138e-06 0 0)
(2.04099e-06 0 0)
(2.04065e-06 0 0)
(2.04051e-06 0 0)
(2.04071e-06 0 0)
(2.04137e-06 0 0)
(2.04257e-06 0 0)
(2.04429e-06 0 0)
(2.0465e-06 0 0)
(2.04909e-06 0 0)
(2.05192e-06 0 0)
(2.05485e-06 0 0)
(2.05771e-06 0 0)
(2.06036e-06 0 0)
(2.06269e-06 0 0)
(2.0646e-06 0 0)
(2.06599e-06 0 0)
(2.06676e-06 0 0)
(2.0668e-06 0 0)
(2.06601e-06 0 0)
(2.06427e-06 0 0)
(2.06153e-06 0 0)
(2.05776e-06 0 0)
(2.05303e-06 0 0)
(2.04746e-06 0 0)
(2.04124e-06 0 0)
(2.03463e-06 0 0)
(2.02789e-06 0 0)
(2.0213e-06 0 0)
(2.01511e-06 0 0)
(2.00951e-06 0 0)
(2.00464e-06 0 0)
(2.00058e-06 0 0)
(1.99734e-06 0 0)
(1.99489e-06 0 0)
(1.99315e-06 0 0)
(1.99201e-06 0 0)
(1.99136e-06 0 0)
(1.99106e-06 0 0)
(1.99101e-06 0 0)
(1.99108e-06 0 0)
(1.99119e-06 0 0)
(1.99125e-06 0 0)
(1.99123e-06 0 0)
(1.99107e-06 0 0)
(1.99075e-06 0 0)
(1.99028e-06 0 0)
(1.98964e-06 0 0)
(1.98886e-06 0 0)
(1.98794e-06 0 0)
(1.98691e-06 0 0)
(1.98578e-06 0 0)
(1.98458e-06 0 0)
(1.98332e-06 0 0)
(1.98202e-06 0 0)
(1.98068e-06 0 0)
(1.97932e-06 0 0)
(1.97795e-06 0 0)
(1.97657e-06 0 0)
(1.97518e-06 0 0)
(1.97379e-06 0 0)
(1.9724e-06 0 0)
(1.97102e-06 0 0)
(1.96963e-06 0 0)
(1.96825e-06 0 0)
(1.96686e-06 0 0)
(1.96549e-06 0 0)
(1.96411e-06 0 0)
(1.96274e-06 0 0)
(1.96138e-06 0 0)
(1.96001e-06 0 0)
(1.95865e-06 0 0)
(1.95729e-06 0 0)
(1.95593e-06 0 0)
(1.95458e-06 0 0)
(1.95322e-06 0 0)
(1.95187e-06 0 0)
(1.95051e-06 0 0)
(1.94915e-06 0 0)
(1.9478e-06 0 0)
(1.94644e-06 0 0)
(1.94508e-06 0 0)
(1.94371e-06 0 0)
(1.94235e-06 0 0)
(1.94098e-06 0 0)
(1.9396e-06 0 0)
(1.93822e-06 0 0)
(1.93684e-06 0 0)
(1.93545e-06 0 0)
(1.93406e-06 0 0)
(1.93266e-06 0 0)
(1.93125e-06 0 0)
(1.92984e-06 0 0)
(1.92843e-06 0 0)
(1.92702e-06 0 0)
(1.92559e-06 0 0)
(1.92418e-06 0 0)
(1.92276e-06 0 0)
(1.92134e-06 0 0)
(1.91992e-06 0 0)
(1.9185e-06 0 0)
(1.91709e-06 0 0)
(1.91567e-06 0 0)
(1.91427e-06 0 0)
(1.91287e-06 0 0)
(1.91147e-06 0 0)
(1.91009e-06 0 0)
(1.90871e-06 0 0)
(1.90734e-06 0 0)
(1.90598e-06 0 0)
(1.90463e-06 0 0)
(1.9033e-06 0 0)
(1.90198e-06 0 0)
(1.90069e-06 0 0)
(1.89942e-06 0 0)
(1.89819e-06 0 0)
(1.89699e-06 0 0)
(1.89584e-06 0 0)
(1.89473e-06 0 0)
(1.89365e-06 0 0)
(1.89258e-06 0 0)
(1.89145e-06 0 0)
(1.89014e-06 0 0)
(1.88845e-06 0 0)
(1.88605e-06 0 0)
(1.88252e-06 0 0)
(1.87744e-06 0 0)
(1.8708e-06 0 0)
(1.86339e-06 0 0)
(1.85666e-06 0 0)
(1.85179e-06 0 0)
(1.84896e-06 0 0)
(1.84755e-06 0 0)
(1.84694e-06 0 0)
(1.8467e-06 0 0)
(1.84663e-06 0 0)
(1.84664e-06 0 0)
(1.84668e-06 0 0)
(1.84673e-06 0 0)
(1.84679e-06 0 0)
(1.84685e-06 0 0)
(1.8469e-06 0 0)
(1.84695e-06 0 0)
(1.84699e-06 0 0)
(1.84702e-06 0 0)
(1.84705e-06 0 0)
(1.84708e-06 0 0)
(1.84711e-06 0 0)
(1.84714e-06 0 0)
(1.84718e-06 0 0)
(1.84722e-06 0 0)
(1.84727e-06 0 0)
(1.84734e-06 0 0)
(1.84742e-06 0 0)
(1.84752e-06 0 0)
(1.84764e-06 0 0)
(1.84779e-06 0 0)
(1.84797e-06 0 0)
(1.84817e-06 0 0)
(1.8484e-06 0 0)
(1.84866e-06 0 0)
(1.84896e-06 0 0)
(1.84928e-06 0 0)
(1.84963e-06 0 0)
(1.85e-06 0 0)
(1.85041e-06 0 0)
(1.85083e-06 0 0)
(1.85128e-06 0 0)
(1.85175e-06 0 0)
(1.85223e-06 0 0)
(1.85273e-06 0 0)
(1.85326e-06 0 0)
(1.8538e-06 0 0)
(1.85436e-06 0 0)
(1.85495e-06 0 0)
(1.85557e-06 0 0)
(1.85622e-06 0 0)
(1.85691e-06 0 0)
(1.85765e-06 0 0)
(1.85845e-06 0 0)
(1.8593e-06 0 0)
(1.86022e-06 0 0)
(1.86122e-06 0 0)
(1.86229e-06 0 0)
(1.86345e-06 0 0)
(1.86469e-06 0 0)
(1.86602e-06 0 0)
(1.86744e-06 0 0)
(1.86894e-06 0 0)
(1.87051e-06 0 0)
(1.87216e-06 0 0)
(1.87386e-06 0 0)
(1.87562e-06 0 0)
(1.87741e-06 0 0)
(1.87921e-06 0 0)
(1.88102e-06 0 0)
(1.88281e-06 0 0)
(1.88455e-06 0 0)
(1.88623e-06 0 0)
(1.8878e-06 0 0)
(1.88925e-06 0 0)
(1.89054e-06 0 0)
(1.89164e-06 0 0)
(1.89252e-06 0 0)
(1.89314e-06 0 0)
(1.89351e-06 0 0)
(1.89366e-06 0 0)
(1.89369e-06 0 0)
(1.89361e-06 0 0)
(1.89314e-06 0 0)
(1.89215e-06 0 0)
(1.89077e-06 0 0)
(1.88911e-06 0 0)
(1.88718e-06 0 0)
(1.88503e-06 0 0)
(1.88267e-06 0 0)
(1.88015e-06 0 0)
(1.87752e-06 0 0)
(1.87483e-06 0 0)
(1.87211e-06 0 0)
(1.86942e-06 0 0)
(1.86681e-06 0 0)
(1.86431e-06 0 0)
(1.86196e-06 0 0)
(1.85979e-06 0 0)
(1.85783e-06 0 0)
(1.85608e-06 0 0)
(1.85457e-06 0 0)
(1.85328e-06 0 0)
(1.85223e-06 0 0)
(1.85139e-06 0 0)
(1.85077e-06 0 0)
(1.85033e-06 0 0)
(1.85007e-06 0 0)
(1.84995e-06 0 0)
(1.84992e-06 0 0)
(1.84993e-06 0 0)
(1.85006e-06 0 0)
(1.85036e-06 0 0)
(1.85075e-06 0 0)
(1.85117e-06 0 0)
(1.85161e-06 0 0)
(1.85204e-06 0 0)
(1.85247e-06 0 0)
(1.85288e-06 0 0)
(1.85326e-06 0 0)
(1.8536e-06 0 0)
(1.85391e-06 0 0)
(1.85418e-06 0 0)
(1.8544e-06 0 0)
(1.85458e-06 0 0)
(1.85473e-06 0 0)
(1.85483e-06 0 0)
(1.8549e-06 0 0)
(1.85493e-06 0 0)
(1.85494e-06 0 0)
(1.85494e-06 0 0)
(1.85493e-06 0 0)
(1.85487e-06 0 0)
(1.85478e-06 0 0)
(1.85468e-06 0 0)
(1.85456e-06 0 0)
(1.85444e-06 0 0)
(1.85432e-06 0 0)
(1.85419e-06 0 0)
(1.85406e-06 0 0)
(1.85393e-06 0 0)
(1.8538e-06 0 0)
(1.85368e-06 0 0)
(1.85356e-06 0 0)
(1.85345e-06 0 0)
(1.85334e-06 0 0)
(1.85323e-06 0 0)
(1.85313e-06 0 0)
(1.85304e-06 0 0)
(1.85295e-06 0 0)
(1.85287e-06 0 0)
(1.85279e-06 0 0)
(1.85272e-06 0 0)
(1.85266e-06 0 0)
(1.8526e-06 0 0)
(1.85254e-06 0 0)
(1.85249e-06 0 0)
(1.85245e-06 0 0)
(1.8524e-06 0 0)
(1.85236e-06 0 0)
(1.85233e-06 0 0)
(1.8523e-06 0 0)
(1.85226e-06 0 0)
(1.85223e-06 0 0)
(1.8522e-06 0 0)
(1.85217e-06 0 0)
(1.85214e-06 0 0)
(1.85211e-06 0 0)
(1.85208e-06 0 0)
(1.85204e-06 0 0)
(1.852e-06 0 0)
(1.85196e-06 0 0)
(1.85191e-06 0 0)
(1.85186e-06 0 0)
(1.8518e-06 0 0)
(1.85173e-06 0 0)
(1.85166e-06 0 0)
(1.85158e-06 0 0)
(1.85149e-06 0 0)
(1.8514e-06 0 0)
(1.8513e-06 0 0)
(1.85119e-06 0 0)
(1.85107e-06 0 0)
(1.85094e-06 0 0)
(1.85081e-06 0 0)
(1.85066e-06 0 0)
(1.85051e-06 0 0)
(1.85036e-06 0 0)
(1.85019e-06 0 0)
(1.85002e-06 0 0)
(1.84984e-06 0 0)
(1.84966e-06 0 0)
(1.84947e-06 0 0)
(1.84928e-06 0 0)
(1.84909e-06 0 0)
(1.8489e-06 0 0)
(1.8487e-06 0 0)
(1.8485e-06 0 0)
(1.84831e-06 0 0)
(1.84811e-06 0 0)
(1.84792e-06 0 0)
(1.84774e-06 0 0)
(1.84756e-06 0 0)
(1.84738e-06 0 0)
(1.84721e-06 0 0)
(1.84705e-06 0 0)
(1.8469e-06 0 0)
(1.84676e-06 0 0)
(1.84663e-06 0 0)
(1.84652e-06 0 0)
(1.84641e-06 0 0)
(1.84632e-06 0 0)
(1.84625e-06 0 0)
(1.84619e-06 0 0)
(1.84614e-06 0 0)
(1.84611e-06 0 0)
(1.8461e-06 0 0)
(1.84609e-06 0 0)
(1.84609e-06 0 0)
(1.84611e-06 0 0)
(1.84615e-06 0 0)
(1.84621e-06 0 0)
(1.84629e-06 0 0)
(1.84639e-06 0 0)
(1.8465e-06 0 0)
(1.84662e-06 0 0)
(1.84675e-06 0 0)
(1.8469e-06 0 0)
(1.84705e-06 0 0)
(1.84722e-06 0 0)
(1.84739e-06 0 0)
(1.84757e-06 0 0)
(1.84776e-06 0 0)
(1.84795e-06 0 0)
(1.84815e-06 0 0)
(1.84835e-06 0 0)
(1.84855e-06 0 0)
(1.84875e-06 0 0)
(1.84896e-06 0 0)
(1.84916e-06 0 0)
(1.84936e-06 0 0)
(1.84956e-06 0 0)
(1.84976e-06 0 0)
(1.84996e-06 0 0)
(1.85016e-06 0 0)
(1.85035e-06 0 0)
(1.85054e-06 0 0)
(1.85073e-06 0 0)
(1.85092e-06 0 0)
(1.85111e-06 0 0)
(1.85129e-06 0 0)
(1.85149e-06 0 0)
(1.85168e-06 0 0)
(1.85188e-06 0 0)
(1.8521e-06 0 0)
(1.85232e-06 0 0)
(1.85256e-06 0 0)
(1.85283e-06 0 0)
(1.85311e-06 0 0)
(1.85343e-06 0 0)
(1.85378e-06 0 0)
(1.85417e-06 0 0)
(1.85461e-06 0 0)
(1.85509e-06 0 0)
(1.85563e-06 0 0)
(1.85624e-06 0 0)
(1.8569e-06 0 0)
(1.85764e-06 0 0)
(1.85845e-06 0 0)
(1.85933e-06 0 0)
(1.8603e-06 0 0)
(1.86134e-06 0 0)
(1.86246e-06 0 0)
(1.86367e-06 0 0)
(1.86494e-06 0 0)
(1.86629e-06 0 0)
(1.86772e-06 0 0)
(1.8692e-06 0 0)
(1.87074e-06 0 0)
(1.87232e-06 0 0)
(1.87395e-06 0 0)
(1.8756e-06 0 0)
(1.87726e-06 0 0)
(1.87892e-06 0 0)
(1.88056e-06 0 0)
(1.88217e-06 0 0)
(1.88373e-06 0 0)
(1.88521e-06 0 0)
(1.88661e-06 0 0)
(1.8879e-06 0 0)
(1.88906e-06 0 0)
(1.89008e-06 0 0)
(1.89092e-06 0 0)
(1.89157e-06 0 0)
(1.89201e-06 0 0)
(1.89224e-06 0 0)
(1.89232e-06 0 0)
(1.89233e-06 0 0)
(1.89223e-06 0 0)
(1.89172e-06 0 0)
(1.89077e-06 0 0)
(1.88958e-06 0 0)
(1.88815e-06 0 0)
(1.88651e-06 0 0)
(1.88467e-06 0 0)
(1.88266e-06 0 0)
(1.88052e-06 0 0)
(1.87827e-06 0 0)
(1.87596e-06 0 0)
(1.8736e-06 0 0)
(1.87125e-06 0 0)
(1.86892e-06 0 0)
(1.86666e-06 0 0)
(1.86449e-06 0 0)
(1.86244e-06 0 0)
(1.86051e-06 0 0)
(1.85874e-06 0 0)
(1.85713e-06 0 0)
(1.85569e-06 0 0)
(1.85441e-06 0 0)
(1.85331e-06 0 0)
(1.85237e-06 0 0)
(1.85159e-06 0 0)
(1.85096e-06 0 0)
(1.85047e-06 0 0)
(1.85012e-06 0 0)
(1.84987e-06 0 0)
(1.84974e-06 0 0)
(1.84968e-06 0 0)
(1.84966e-06 0 0)
(1.84968e-06 0 0)
(1.84978e-06 0 0)
(1.84998e-06 0 0)
(1.85022e-06 0 0)
(1.85048e-06 0 0)
(1.85075e-06 0 0)
(1.85102e-06 0 0)
(1.85128e-06 0 0)
(1.85154e-06 0 0)
(1.85177e-06 0 0)
(1.852e-06 0 0)
(1.85219e-06 0 0)
(1.85237e-06 0 0)
(1.85252e-06 0 0)
(1.85264e-06 0 0)
(1.85274e-06 0 0)
(1.85281e-06 0 0)
(1.85286e-06 0 0)
(1.85288e-06 0 0)
(1.85288e-06 0 0)
(1.85288e-06 0 0)
(1.85287e-06 0 0)
(1.85281e-06 0 0)
(1.85272e-06 0 0)
(1.85262e-06 0 0)
(1.8525e-06 0 0)
(1.85237e-06 0 0)
(1.85223e-06 0 0)
(1.85208e-06 0 0)
(1.85192e-06 0 0)
(1.85175e-06 0 0)
(1.85157e-06 0 0)
(1.85139e-06 0 0)
(1.85121e-06 0 0)
(1.85102e-06 0 0)
(1.85083e-06 0 0)
(1.85064e-06 0 0)
(1.85045e-06 0 0)
(1.85026e-06 0 0)
(1.85007e-06 0 0)
(1.84989e-06 0 0)
(1.8497e-06 0 0)
(1.84952e-06 0 0)
(1.84934e-06 0 0)
(1.84916e-06 0 0)
(1.84899e-06 0 0)
(1.84882e-06 0 0)
(1.84866e-06 0 0)
(1.84851e-06 0 0)
(1.84836e-06 0 0)
(1.84822e-06 0 0)
(1.84808e-06 0 0)
(1.84795e-06 0 0)
(1.84783e-06 0 0)
(1.84772e-06 0 0)
(1.84762e-06 0 0)
(1.84753e-06 0 0)
(1.84744e-06 0 0)
(1.84737e-06 0 0)
(1.84731e-06 0 0)
(1.84726e-06 0 0)
(1.84722e-06 0 0)
(1.84719e-06 0 0)
(1.84717e-06 0 0)
(1.84716e-06 0 0)
(1.84716e-06 0 0)
(1.84716e-06 0 0)
(1.84718e-06 0 0)
(1.84721e-06 0 0)
(1.84726e-06 0 0)
(1.84732e-06 0 0)
(1.8474e-06 0 0)
(1.84748e-06 0 0)
(1.84757e-06 0 0)
(1.84766e-06 0 0)
(1.84777e-06 0 0)
(1.84788e-06 0 0)
(1.848e-06 0 0)
(1.84812e-06 0 0)
(1.84824e-06 0 0)
(1.84837e-06 0 0)
(1.8485e-06 0 0)
(1.84863e-06 0 0)
(1.84875e-06 0 0)
(1.84888e-06 0 0)
(1.849e-06 0 0)
(1.84912e-06 0 0)
(1.84923e-06 0 0)
(1.84933e-06 0 0)
(1.84943e-06 0 0)
(1.84952e-06 0 0)
(1.84959e-06 0 0)
(1.84966e-06 0 0)
(1.84972e-06 0 0)
(1.84977e-06 0 0)
(1.84981e-06 0 0)
(1.84983e-06 0 0)
(1.84985e-06 0 0)
(1.84985e-06 0 0)
(1.84985e-06 0 0)
(1.84985e-06 0 0)
(1.84983e-06 0 0)
(1.84979e-06 0 0)
(1.84974e-06 0 0)
(1.84968e-06 0 0)
(1.84962e-06 0 0)
(1.84954e-06 0 0)
(1.84947e-06 0 0)
(1.84938e-06 0 0)
(1.8493e-06 0 0)
(1.84921e-06 0 0)
(1.84913e-06 0 0)
(1.84904e-06 0 0)
(1.84896e-06 0 0)
(1.84888e-06 0 0)
(1.84881e-06 0 0)
(1.84874e-06 0 0)
(1.84868e-06 0 0)
(1.84863e-06 0 0)
(1.84859e-06 0 0)
(1.84857e-06 0 0)
(1.84855e-06 0 0)
(1.84855e-06 0 0)
(1.84855e-06 0 0)
(1.84856e-06 0 0)
(1.84859e-06 0 0)
(1.84864e-06 0 0)
(1.84872e-06 0 0)
(1.84883e-06 0 0)
(1.84896e-06 0 0)
(1.84912e-06 0 0)
(1.84929e-06 0 0)
(1.8495e-06 0 0)
(1.84973e-06 0 0)
(1.85e-06 0 0)
(1.8503e-06 0 0)
(1.85063e-06 0 0)
(1.851e-06 0 0)
(1.85141e-06 0 0)
(1.85186e-06 0 0)
(1.85235e-06 0 0)
(1.85288e-06 0 0)
(1.85347e-06 0 0)
(1.8541e-06 0 0)
(1.85477e-06 0 0)
(1.8555e-06 0 0)
(1.85629e-06 0 0)
(1.85712e-06 0 0)
(1.85799e-06 0 0)
(1.85894e-06 0 0)
(1.85995e-06 0 0)
(1.86093e-06 0 0)
(1.862e-06 0 0)
(1.8632e-06 0 0)
(1.86434e-06 0 0)
(1.86542e-06 0 0)
(1.86673e-06 0 0)
(1.8681e-06 0 0)
(1.86917e-06 0 0)
(1.87034e-06 0 0)
(1.8719e-06 0 0)
(1.87309e-06 0 0)
(1.87312e-06 0 0)
(1.8704e-06 0 0)
(1.82763e-06 0 0)
(1.65438e-06 0 0)
(8.55273e-07 0 0)
(9.48392e-08 0 0)
(3.29351e-10 0 0)
(6.49989e-16 0 0)
(3.18137e-28 0 0)
(2.92991e-54 0 0)
(1.07306e-109 0 0)
(5.81102e-227 0 0)
(0 0 0)
(0 0 0)
(0 0 0)
(0 0 0)
(0 0 0)
(0 0 0)
(0 0 0)
(0 0 0)
(0 0 0)
(0 0 0)
(0 0 0)
(0 0 0)
(0 0 0)
(0 0 0)
(0 0 0)
(0 0 0)
(0 0 0)
(0 0 0)
(0 0 0)
(0 0 0)
(0 0 0)
(0 0 0)
(0 0 0)
(0 0 0)
(0 0 0)
(0 0 0)
(0 0 0)
(0 0 0)
(0 0 0)
(0 0 0)
(0 0 0)
(0 0 0)
(0 0 0)
(0 0 0)
(0 0 0)
(0 0 0)
(0 0 0)
(0 0 0)
(0 0 0)
(0 0 0)
(0 0 0)
(0 0 0)
(0 0 0)
(0 0 0)
(0 0 0)
(0 0 0)
(0 0 0)
(0 0 0)
(0 0 0)
(0 0 0)
(0 0 0)
(0 0 0)
(0 0 0)
(0 0 0)
(0 0 0)
(0 0 0)
(0 0 0)
(0 0 0)
(0 0 0)
(0 0 0)
(0 0 0)
(0 0 0)
(0 0 0)
(0 0 0)
(0 0 0)
(0 0 0)
(0 0 0)
(0 0 0)
(0 0 0)
(0 0 0)
(0 0 0)
(0 0 0)
(0 0 0)
(0 0 0)
(0 0 0)
(0 0 0)
(0 0 0)
(0 0 0)
(0 0 0)
(0 0 0)
(0 0 0)
(0 0 0)
(0 0 0)
(0 0 0)
(0 0 0)
(0 0 0)
(0 0 0)
(0 0 0)
(0 0 0)
(0 0 0)
(0 0 0)
(0 0 0)
(0 0 0)
(0 0 0)
(0 0 0)
(0 0 0)
(0 0 0)
(0 0 0)
(0 0 0)
(0 0 0)
(0 0 0)
(0 0 0)
(0 0 0)
(0 0 0)
(0 0 0)
(0 0 0)
(0 0 0)
(0 0 0)
(0 0 0)
(0 0 0)
(0 0 0)
(0 0 0)
(0 0 0)
(0 0 0)
(0 0 0)
(0 0 0)
(0 0 0)
(0 0 0)
(0 0 0)
(0 0 0)
(0 0 0)
(0 0 0)
(0 0 0)
(0 0 0)
(0 0 0)
(0 0 0)
(0 0 0)
(0 0 0)
(0 0 0)
(0 0 0)
(0 0 0)
(0 0 0)
(0 0 0)
(0 0 0)
(0 0 0)
(0 0 0)
(0 0 0)
(0 0 0)
(0 0 0)
(0 0 0)
(0 0 0)
(0 0 0)
(0 0 0)
(0 0 0)
(0 0 0)
(0 0 0)
(0 0 0)
(0 0 0)
(0 0 0)
(0 0 0)
(0 0 0)
(0 0 0)
(0 0 0)
(0 0 0)
(0 0 0)
(0 0 0)
(0 0 0)
(0 0 0)
(0 0 0)
(0 0 0)
(0 0 0)
(0 0 0)
(0 0 0)
(0 0 0)
(0 0 0)
(0 0 0)
(0 0 0)
(0 0 0)
(0 0 0)
(0 0 0)
(0 0 0)
(0 0 0)
(0 0 0)
(0 0 0)
(0 0 0)
(0 0 0)
(0 0 0)
(0 0 0)
(0 0 0)
(0 0 0)
(0 0 0)
(0 0 0)
(0 0 0)
(0 0 0)
(0 0 0)
(0 0 0)
(0 0 0)
(0 0 0)
(0 0 0)
(0 0 0)
(0 0 0)
(0 0 0)
(0 0 0)
(0 0 0)
(0 0 0)
(0 0 0)
(0 0 0)
(0 0 0)
(0 0 0)
(0 0 0)
(0 0 0)
(0 0 0)
(0 0 0)
(0 0 0)
(0 0 0)
(0 0 0)
(0 0 0)
(0 0 0)
(0 0 0)
(0 0 0)
(0 0 0)
(0 0 0)
(0 0 0)
(0 0 0)
(0 0 0)
(0 0 0)
(0 0 0)
(0 0 0)
(0 0 0)
(0 0 0)
(0 0 0)
(0 0 0)
(0 0 0)
(0 0 0)
(0 0 0)
(0 0 0)
(0 0 0)
(0 0 0)
(0 0 0)
(0 0 0)
(0 0 0)
(0 0 0)
(0 0 0)
(0 0 0)
(0 0 0)
(0 0 0)
(0 0 0)
(0 0 0)
(0 0 0)
(0 0 0)
(0 0 0)
(0 0 0)
(0 0 0)
(0 0 0)
(0 0 0)
(0 0 0)
(0 0 0)
(0 0 0)
(0 0 0)
(0 0 0)
(0 0 0)
(0 0 0)
(0 0 0)
(0 0 0)
(0 0 0)
(0 0 0)
(0 0 0)
(0 0 0)
(0 0 0)
(0 0 0)
(0 0 0)
(0 0 0)
(0 0 0)
(0 0 0)
(0 0 0)
(0 0 0)
(0 0 0)
(0 0 0)
(0 0 0)
(0 0 0)
(0 0 0)
(0 0 0)
(0 0 0)
(0 0 0)
(0 0 0)
(0 0 0)
(0 0 0)
(0 0 0)
(0 0 0)
(0 0 0)
(0 0 0)
(0 0 0)
(0 0 0)
(0 0 0)
(0 0 0)
(0 0 0)
(0 0 0)
(0 0 0)
(0 0 0)
(0 0 0)
(0 0 0)
(0 0 0)
(0 0 0)
(0 0 0)
(0 0 0)
(0 0 0)
(0 0 0)
(0 0 0)
(0 0 0)
(0 0 0)
(0 0 0)
(0 0 0)
(0 0 0)
(0 0 0)
(0 0 0)
(0 0 0)
(0 0 0)
(0 0 0)
(0 0 0)
(0 0 0)
(0 0 0)
(0 0 0)
(0 0 0)
(0 0 0)
(0 0 0)
(0 0 0)
(0 0 0)
(0 0 0)
(0 0 0)
(0 0 0)
(0 0 0)
(0 0 0)
(0 0 0)
(0 0 0)
(0 0 0)
(0 0 0)
(0 0 0)
(0 0 0)
(0 0 0)
(0 0 0)
(0 0 0)
(0 0 0)
(0 0 0)
(0 0 0)
(0 0 0)
(0 0 0)
(0 0 0)
(0 0 0)
(0 0 0)
(0 0 0)
)
;

boundaryField
{
    inlet
    {
        type            fixedValue;
        value           uniform (2.74882e-06 0 0);
    }
    outlet
    {
        type            zeroGradient;
    }
    emptyWalls
    {
        type            empty;
    }
}


// ************************************************************************* //
