/*--------------------------------*- C++ -*----------------------------------*\
  =========                 |
  \\      /  F ield         | OpenFOAM: The Open Source CFD Toolbox
   \\    /   O peration     | Website:  https://openfoam.org
    \\  /    A nd           | Version:  9
     \\/     M anipulation  |
\*---------------------------------------------------------------------------*/
FoamFile
{
    format      ascii;
    class       volScalarField;
    location    "20350";
    object      Sb;
}
// * * * * * * * * * * * * * * * * * * * * * * * * * * * * * * * * * * * * * //

dimensions      [0 0 0 0 0 0 0];

internalField   nonuniform List<scalar> 
1000
(
0.35026
0.350794
0.351519
0.352212
0.352956
0.353629
0.354413
0.355074
0.3559
0.35657
0.357404
0.358109
0.358905
0.359638
0.360381
0.361092
0.361777
0.362413
0.36301
0.363542
0.364026
0.36445
0.364825
0.365174
0.365512
0.366194
0.368141
0.375856
0.422562
0.59357
0.648914
0.661841
0.667271
0.670382
0.672463
0.674001
0.675213
0.676222
0.677087
0.677848
0.678519
0.679118
0.679647
0.68012
0.680537
0.680909
0.681235
0.681524
0.681777
0.681999
0.682191
0.682357
0.682498
0.682616
0.682713
0.682788
0.682846
0.682883
0.682904
0.682904
0.682888
0.682852
0.682798
0.682724
0.682632
0.68252
0.682388
0.682234
0.682059
0.68186
0.681634
0.68138
0.681091
0.68076
0.680378
0.67993
0.679399
0.678768
0.678022
0.677161
0.676201
0.675177
0.674111
0.673019
0.671911
0.670792
0.669668
0.668542
0.667417
0.666294
0.665174
0.664058
0.662948
0.661843
0.660744
0.659651
0.658565
0.657486
0.656415
0.65535
0.654293
0.653243
0.652201
0.651165
0.650135
0.649111
0.648092
0.647078
0.646068
0.645063
0.644062
0.643066
0.642076
0.641093
0.640115
0.639144
0.63818
0.637222
0.636273
0.635331
0.634398
0.633473
0.632557
0.631651
0.630754
0.629865
0.628986
0.628114
0.627249
0.626392
0.625539
0.624692
0.623849
0.62301
0.622175
0.621343
0.620514
0.619687
0.618864
0.618044
0.617227
0.616414
0.615604
0.614798
0.613996
0.613198
0.612405
0.611616
0.610831
0.610051
0.609275
0.608503
0.607736
0.606973
0.606215
0.60546
0.60471
0.603963
0.60322
0.602482
0.601747
0.601015
0.600288
0.599564
0.598843
0.598126
0.597413
0.596703
0.595996
0.595292
0.594592
0.593895
0.593202
0.592511
0.591824
0.59114
0.590458
0.58978
0.589105
0.588433
0.587764
0.587098
0.586434
0.585774
0.585116
0.584461
0.583809
0.58316
0.582513
0.581869
0.581228
0.580589
0.579953
0.57932
0.578689
0.57806
0.577435
0.576811
0.57619
0.575572
0.574956
0.574342
0.573731
0.573122
0.572515
0.571911
0.571309
0.57071
0.570113
0.569518
0.568925
0.568334
0.567746
0.56716
0.566576
0.565994
0.565414
0.564837
0.564261
0.563688
0.563116
0.562547
0.56198
0.561415
0.560852
0.560291
0.559732
0.559174
0.558619
0.558065
0.557512
0.556961
0.556412
0.555863
0.555316
0.55477
0.554225
0.553681
0.553138
0.552597
0.552056
0.551517
0.55098
0.550444
0.549909
0.549377
0.548846
0.548318
0.547792
0.547268
0.546747
0.546229
0.545714
0.545201
0.544692
0.544185
0.543681
0.54318
0.542682
0.542186
0.541693
0.541201
0.540712
0.540224
0.539739
0.539254
0.53877
0.538288
0.537807
0.537326
0.536846
0.536367
0.535888
0.535411
0.534934
0.534458
0.533982
0.533508
0.533034
0.532562
0.53209
0.53162
0.531151
0.530682
0.530216
0.52975
0.529286
0.528822
0.528361
0.5279
0.527441
0.526983
0.526526
0.526071
0.525616
0.525163
0.524712
0.524261
0.523812
0.523363
0.522916
0.52247
0.522025
0.521582
0.521139
0.520697
0.520257
0.519817
0.519379
0.518941
0.518505
0.518069
0.517635
0.517201
0.516769
0.516338
0.515907
0.515477
0.515049
0.514621
0.514194
0.513769
0.513344
0.51292
0.512497
0.512075
0.511653
0.511233
0.510814
0.510395
0.509977
0.50956
0.509144
0.508729
0.508315
0.507902
0.507489
0.507077
0.506666
0.506256
0.505847
0.505438
0.50503
0.504624
0.504217
0.503812
0.503407
0.503004
0.502601
0.502199
0.501797
0.501397
0.500997
0.500598
0.500199
0.499802
0.499405
0.499009
0.498613
0.498219
0.497825
0.497432
0.497039
0.496648
0.496257
0.495866
0.495477
0.495088
0.4947
0.494312
0.493925
0.493539
0.493153
0.492768
0.492383
0.491999
0.491615
0.491231
0.490848
0.490465
0.490083
0.489701
0.489319
0.488938
0.488557
0.488176
0.487796
0.487416
0.487037
0.486658
0.48628
0.485902
0.485525
0.485149
0.484774
0.484399
0.484025
0.483652
0.483281
0.48291
0.482541
0.482172
0.481805
0.481439
0.481074
0.480711
0.480348
0.479987
0.479627
0.479268
0.478909
0.478552
0.478196
0.47784
0.477485
0.47713
0.476776
0.476423
0.47607
0.475717
0.475365
0.475012
0.47466
0.474309
0.473957
0.473606
0.473255
0.472904
0.472553
0.472203
0.471852
0.471503
0.471153
0.470804
0.470454
0.470106
0.469757
0.46941
0.469062
0.468715
0.468368
0.468022
0.467676
0.467331
0.466986
0.466641
0.466297
0.465953
0.46561
0.465267
0.464925
0.464583
0.464241
0.4639
0.463559
0.463219
0.462879
0.46254
0.4622
0.461862
0.461523
0.461185
0.460848
0.46051
0.460173
0.459837
0.4595
0.459164
0.458829
0.458493
0.458158
0.457824
0.457489
0.457155
0.456821
0.456488
0.456155
0.455822
0.455489
0.455157
0.454825
0.454493
0.454162
0.453831
0.4535
0.453169
0.452839
0.452509
0.452179
0.45185
0.45152
0.451191
0.450863
0.450534
0.450206
0.449878
0.44955
0.449222
0.448895
0.448568
0.448241
0.447915
0.447588
0.447262
0.446936
0.44661
0.446285
0.44596
0.445635
0.44531
0.444985
0.444661
0.444337
0.444013
0.443689
0.443366
0.443042
0.442719
0.442396
0.442073
0.441751
0.441428
0.441106
0.440784
0.440462
0.440141
0.439819
0.439498
0.439177
0.438856
0.438535
0.438214
0.437893
0.437572
0.437252
0.436931
0.436611
0.43629
0.43597
0.435649
0.435329
0.435008
0.434688
0.434367
0.434047
0.433726
0.433406
0.433085
0.432765
0.432445
0.432124
0.431804
0.431484
0.431164
0.430844
0.430524
0.430205
0.429885
0.429566
0.429247
0.428929
0.42861
0.428292
0.427975
0.427658
0.427341
0.427024
0.426708
0.426393
0.426077
0.425762
0.425448
0.425134
0.42482
0.424507
0.424193
0.423881
0.423568
0.423256
0.422943
0.422631
0.422319
0.422007
0.421696
0.421384
0.421072
0.42076
0.420448
0.420136
0.419824
0.419512
0.419199
0.418887
0.418574
0.418262
0.417949
0.417636
0.417323
0.417009
0.416696
0.416382
0.416069
0.415755
0.415441
0.415127
0.414813
0.414499
0.414185
0.413871
0.413556
0.413242
0.412927
0.412613
0.412298
0.411983
0.411669
0.411354
0.411039
0.410724
0.410409
0.410093
0.409778
0.409463
0.409147
0.408832
0.408516
0.4082
0.407884
0.407568
0.407252
0.406936
0.40662
0.406303
0.405986
0.405669
0.405352
0.405035
0.404718
0.4044
0.404083
0.403765
0.403447
0.403129
0.40281
0.402491
0.402173
0.401853
0.401534
0.401215
0.400895
0.400575
0.400255
0.399934
0.399614
0.399293
0.398971
0.39865
0.398328
0.398006
0.397684
0.397361
0.397038
0.396715
0.396392
0.396068
0.395744
0.39542
0.395095
0.39477
0.394445
0.394119
0.393793
0.393467
0.39314
0.392813
0.392485
0.392158
0.39183
0.391501
0.391172
0.390843
0.390513
0.390183
0.389853
0.389522
0.38919
0.388859
0.388526
0.388194
0.387861
0.387527
0.387193
0.386859
0.386524
0.386188
0.385853
0.385516
0.385179
0.384842
0.384504
0.384165
0.383826
0.383487
0.383147
0.382806
0.382464
0.382122
0.38178
0.381437
0.381093
0.380748
0.380403
0.380057
0.379711
0.379363
0.379015
0.378667
0.378317
0.377967
0.377616
0.377265
0.376912
0.376559
0.376205
0.375851
0.375495
0.375139
0.374782
0.374424
0.374066
0.373706
0.373346
0.372986
0.372624
0.372262
0.371899
0.371535
0.371171
0.370806
0.37044
0.370074
0.369706
0.369339
0.36897
0.368601
0.368232
0.367861
0.367491
0.367119
0.366747
0.366375
0.366002
0.365629
0.365256
0.364882
0.364508
0.364134
0.36376
0.363386
0.363012
0.362639
0.362266
0.361894
0.361523
0.361154
0.360786
0.36042
0.360057
0.359696
0.359339
0.358987
0.358639
0.358296
0.35796
0.357631
0.35731
0.356998
0.356696
0.356405
0.356125
0.355858
0.355605
0.355365
0.35514
0.35493
0.354735
0.354556
0.354392
0.354244
0.35411
0.35399
0.353884
0.353791
0.35371
0.35364
0.35358
0.353528
0.353485
0.353448
0.353418
0.353393
0.353371
0.353351
0.353332
0.35331
0.353282
0.35324
0.35317
0.353048
0.352833
0.352451
0.351772
0.350571
0.348473
0.344892
0.339015
0.329964
0.317312
0.301855
0.285866
0.272048
0.261941
0.25547
0.251692
0.24961
0.248499
0.247917
0.247615
0.247459
0.247379
0.247338
0.247317
0.247306
0.247301
0.247298
0.247296
0.247296
0.247295
0.247295
0.247295
0.247295
0.247295
0.247295
0.247295
0.247295
0.247295
0.247295
0.247295
0.247295
0.247295
0.247295
0.247294
0.247294
0.247294
0.247294
0.247294
0.247294
0.247293
0.247293
0.247293
0.247293
0.247292
0.247292
0.247292
0.247292
0.247291
0.247291
0.247291
0.247291
0.24729
0.24729
0.24729
0.247289
0.247289
0.247289
0.247289
0.247288
0.247288
0.247288
0.247287
0.247287
0.247287
0.247287
0.247286
0.247286
0.247286
0.247286
0.247285
0.247285
0.247285
0.247285
0.247284
0.247284
0.247284
0.247284
0.247283
0.247283
0.247283
0.247283
0.247282
0.247282
0.247282
0.247282
0.247281
0.247281
0.247281
0.247281
0.24728
0.24728
0.24728
0.247279
0.247279
0.247279
0.247278
0.247278
0.247278
0.247277
0.247277
0.247276
0.247276
0.247276
0.247275
0.247275
0.247274
0.247274
0.247274
0.247273
0.247273
0.247272
0.247272
0.247271
0.247271
0.247271
0.24727
0.24727
0.24727
0.247269
0.247269
0.247269
0.247268
0.247268
0.247268
0.247268
0.247267
0.247267
0.247267
0.247267
0.247267
0.247267
0.247267
0.247267
0.247267
0.247267
0.247267
0.247268
0.247268
0.247268
0.247268
0.247269
0.247269
0.247269
0.24727
0.24727
0.24727
0.247271
0.247271
0.247272
0.247272
0.247272
0.247273
0.247273
0.247274
0.247274
0.247274
0.247275
0.247275
0.247276
0.247276
0.247276
0.247276
0.247277
0.247277
0.247277
0.247278
0.247278
0.247278
0.247279
0.247279
0.247279
0.247279
0.247279
0.24728
0.24728
0.24728
0.24728
0.24728
0.24728
0.24728
0.247281
0.247281
)
;

boundaryField
{
    inlet
    {
        type            fixedValue;
        value           uniform 0.35;
    }
    outlet
    {
        type            zeroGradient;
    }
    emptyWalls
    {
        type            empty;
    }
}


// ************************************************************************* //
