/*--------------------------------*- C++ -*----------------------------------*\
  =========                 |
  \\      /  F ield         | OpenFOAM: The Open Source CFD Toolbox
   \\    /   O peration     | Website:  https://openfoam.org
    \\  /    A nd           | Version:  9
     \\/     M anipulation  |
\*---------------------------------------------------------------------------*/
FoamFile
{
    format      ascii;
    class       volScalarField;
    location    "2200";
    object      kra;
}
// * * * * * * * * * * * * * * * * * * * * * * * * * * * * * * * * * * * * * //

dimensions      [0 0 0 0 0 0 0];

internalField   nonuniform List<scalar> 
100
(
3.98973e-05
2.94244e-05
3.17177e-05
3.03388e-05
3.0147e-05
2.97385e-05
2.9553e-05
2.93232e-05
2.9102e-05
2.89005e-05
2.87039e-05
2.85209e-05
2.83475e-05
2.81697e-05
2.79927e-05
2.77822e-05
2.75176e-05
2.73154e-05
2.74502e-05
2.74843e-05
2.7546e-05
2.75852e-05
2.76293e-05
2.76721e-05
2.77133e-05
2.77515e-05
2.77872e-05
2.78212e-05
2.78537e-05
2.78846e-05
2.79135e-05
2.79394e-05
2.79627e-05
2.79846e-05
2.80055e-05
2.80247e-05
2.80425e-05
2.80589e-05
2.80728e-05
2.80843e-05
2.80955e-05
2.81057e-05
2.81151e-05
2.81233e-05
2.81298e-05
2.81342e-05
2.81371e-05
2.81398e-05
2.81408e-05
2.81404e-05
2.81393e-05
2.81368e-05
2.81326e-05
2.8128e-05
2.81235e-05
2.81177e-05
2.81112e-05
2.81046e-05
2.80974e-05
2.80895e-05
2.80814e-05
2.80741e-05
2.80654e-05
2.80517e-05
2.80247e-05
2.79691e-05
2.78403e-05
2.74174e-05
2.38558e-05
3.76822e-06
2.30216e-09
1.37433e-16
9.91246e-32
3.33308e-35
3.2432e-35
3.33311e-35
3.06695e-35
3.06698e-35
3.06717e-35
3.24366e-35
2.81254e-35
3.33389e-35
3.06769e-35
3.06768e-35
3.24381e-35
2.72984e-35
3.33354e-35
3.06734e-35
3.24356e-35
3.33355e-35
3.24366e-35
3.33362e-35
3.06532e-35
2.93155e-35
3.23206e-36
1.1284e-36
1.28155e-36
1.31689e-36
1.28135e-36
1.31689e-36
)
;

boundaryField
{
    inlet
    {
        type            calculated;
        value           uniform 1.14874e-05;
    }
    outlet
    {
        type            calculated;
        value           uniform 4.72742e-37;
    }
    emptyWalls
    {
        type            empty;
    }
}


// ************************************************************************* //
