/*--------------------------------*- C++ -*----------------------------------*\
  =========                 |
  \\      /  F ield         | OpenFOAM: The Open Source CFD Toolbox
   \\    /   O peration     | Website:  https://openfoam.org
    \\  /    A nd           | Version:  9
     \\/     M anipulation  |
\*---------------------------------------------------------------------------*/
FoamFile
{
    format      ascii;
    class       volScalarField;
    location    "2200";
    object      p;
}
// * * * * * * * * * * * * * * * * * * * * * * * * * * * * * * * * * * * * * //

dimensions      [0 0 0 0 0 0 0];

internalField   nonuniform List<scalar> 
100
(
5.78622e+06
5.77807e+06
5.76704e+06
5.75682e+06
5.74613e+06
5.73535e+06
5.72447e+06
5.71352e+06
5.70249e+06
5.69139e+06
5.68023e+06
5.66901e+06
5.65773e+06
5.6464e+06
5.63501e+06
5.62356e+06
5.61204e+06
5.60045e+06
5.58885e+06
5.57734e+06
5.56588e+06
5.55445e+06
5.54308e+06
5.53174e+06
5.52045e+06
5.5092e+06
5.49799e+06
5.48682e+06
5.4757e+06
5.46461e+06
5.45356e+06
5.44255e+06
5.43158e+06
5.42065e+06
5.40975e+06
5.39889e+06
5.38807e+06
5.37729e+06
5.36654e+06
5.35583e+06
5.34515e+06
5.33451e+06
5.32391e+06
5.31333e+06
5.3028e+06
5.29229e+06
5.28182e+06
5.27138e+06
5.26098e+06
5.2506e+06
5.24026e+06
5.22995e+06
5.21967e+06
5.20942e+06
5.1992e+06
5.189e+06
5.17883e+06
5.16869e+06
5.15857e+06
5.14847e+06
5.13839e+06
5.12833e+06
5.11829e+06
5.10828e+06
5.09829e+06
5.08837e+06
5.07855e+06
5.06896e+06
5.05996e+06
5.0537e+06
5.05142e+06
5.04941e+06
5.0474e+06
5.0454e+06
5.04339e+06
5.04139e+06
5.03939e+06
5.03738e+06
5.03538e+06
5.03337e+06
5.03137e+06
5.02937e+06
5.02736e+06
5.02536e+06
5.02335e+06
5.02135e+06
5.01934e+06
5.01734e+06
5.01534e+06
5.01333e+06
5.01133e+06
5.00932e+06
5.00732e+06
5.00532e+06
5.00335e+06
5.00262e+06
5.00204e+06
5.00145e+06
5.00087e+06
5.00029e+06
)
;

boundaryField
{
    inlet
    {
        type            darcyGradPressure;
        gradient        uniform 4.05459e+06;
        Mf              Mf;
        phi             phi;
        value           uniform 5.79432e+06;
    }
    outlet
    {
        type            fixedValue;
        value           uniform 5e+06;
    }
    emptyWalls
    {
        type            empty;
    }
}


// ************************************************************************* //
