/*--------------------------------*- C++ -*----------------------------------*\
  =========                 |
  \\      /  F ield         | OpenFOAM: The Open Source CFD Toolbox
   \\    /   O peration     | Website:  https://openfoam.org
    \\  /    A nd           | Version:  9
     \\/     M anipulation  |
\*---------------------------------------------------------------------------*/
FoamFile
{
    format      ascii;
    class       surfaceScalarField;
    location    "2200";
    object      phia;
}
// * * * * * * * * * * * * * * * * * * * * * * * * * * * * * * * * * * * * * //

dimensions      [0 2 0 0 0 0 0];

internalField   nonuniform List<scalar> 
99
(
1.42001e-08
1.41873e-08
1.41728e-08
1.41447e-08
1.41052e-08
1.41052e-08
1.40965e-08
1.40841e-08
1.4069e-08
1.4054e-08
1.40353e-08
1.40194e-08
1.39995e-08
1.39798e-08
1.39566e-08
1.39269e-08
1.38904e-08
1.38519e-08
1.38232e-08
1.37945e-08
1.37632e-08
1.3732e-08
1.37013e-08
1.36707e-08
1.36394e-08
1.36072e-08
1.35745e-08
1.35417e-08
1.35087e-08
1.34754e-08
1.34412e-08
1.34059e-08
1.33699e-08
1.3334e-08
1.32979e-08
1.32614e-08
1.32248e-08
1.31875e-08
1.31491e-08
1.31106e-08
1.30724e-08
1.30342e-08
1.2996e-08
1.29576e-08
1.29186e-08
1.28791e-08
1.28399e-08
1.28008e-08
1.27616e-08
1.27226e-08
1.26839e-08
1.26451e-08
1.26069e-08
1.257e-08
1.25341e-08
1.24991e-08
1.24656e-08
1.24337e-08
1.24031e-08
1.23738e-08
1.23461e-08
1.23182e-08
1.22852e-08
1.22364e-08
1.21489e-08
1.19785e-08
1.1622e-08
1.06174e-08
5.55954e-09
1.87921e-10
1.01118e-13
6.02036e-21
4.34378e-36
2.88086e-39
2.84148e-39
2.92025e-39
2.68706e-39
2.68713e-39
2.68744e-39
2.84192e-39
2.46421e-39
2.92098e-39
2.68775e-39
2.68774e-39
2.84205e-39
2.39173e-39
2.92066e-39
2.68743e-39
2.88125e-39
2.92067e-39
2.84192e-39
2.92074e-39
2.62679e-39
2.40958e-39
6.92028e-41
2.88212e-41
3.3038e-41
3.34858e-41
3.25821e-41
)
;

boundaryField
{
    inlet
    {
        type            calculated;
        value           uniform -1.42126e-08;
    }
    outlet
    {
        type            calculated;
        value           uniform 1.20208e-41;
    }
    emptyWalls
    {
        type            empty;
        value           nonuniform List<scalar> 0();
    }
}


// ************************************************************************* //
