/*--------------------------------*- C++ -*----------------------------------*\
  =========                 |
  \\      /  F ield         | OpenFOAM: The Open Source CFD Toolbox
   \\    /   O peration     | Website:  https://openfoam.org
    \\  /    A nd           | Version:  9
     \\/     M anipulation  |
\*---------------------------------------------------------------------------*/
FoamFile
{
    format      ascii;
    class       surfaceScalarField;
    location    "2200";
    object      phib;
}
// * * * * * * * * * * * * * * * * * * * * * * * * * * * * * * * * * * * * * //

dimensions      [0 2 0 0 0 0 0];

internalField   nonuniform List<scalar> 
99
(
6.09067e-09
6.09012e-09
6.08949e-09
6.10175e-09
6.12439e-09
6.10719e-09
6.09789e-09
6.09201e-09
6.08884e-09
6.08547e-09
6.0857e-09
6.08282e-09
6.08342e-09
6.08203e-09
6.08033e-09
6.07849e-09
6.07743e-09
6.0797e-09
6.07891e-09
6.07828e-09
6.08056e-09
6.08256e-09
6.08373e-09
6.08442e-09
6.08548e-09
6.08698e-09
6.08852e-09
6.08975e-09
6.09066e-09
6.09147e-09
6.09275e-09
6.09477e-09
6.09695e-09
6.09875e-09
6.10034e-09
6.1019e-09
6.10332e-09
6.10502e-09
6.10746e-09
6.10979e-09
6.11156e-09
6.11305e-09
6.11426e-09
6.11557e-09
6.11733e-09
6.11947e-09
6.12131e-09
6.12301e-09
6.12502e-09
6.12699e-09
6.12901e-09
6.13146e-09
6.134e-09
6.13605e-09
6.13802e-09
6.14027e-09
6.14241e-09
6.1445e-09
6.14682e-09
6.14927e-09
6.1511e-09
6.15229e-09
6.15372e-09
6.15632e-09
6.16149e-09
6.17204e-09
6.19582e-09
6.27737e-09
7.2143e-09
9.06877e-09
9.1443e-09
9.14878e-09
9.14982e-09
9.14968e-09
9.14962e-09
9.14971e-09
9.14973e-09
9.1496e-09
9.14909e-09
9.1487e-09
9.14848e-09
9.14841e-09
9.14839e-09
9.14845e-09
9.14873e-09
9.14892e-09
9.149e-09
9.14902e-09
9.14901e-09
9.14891e-09
9.14884e-09
9.14885e-09
9.15642e-09
1.0254e-08
1.97421e-08
2.00905e-08
2.00942e-08
2.00942e-08
2.00942e-08
)
;

boundaryField
{
    inlet
    {
        type            calculated;
        value           uniform -6.09112e-09;
    }
    outlet
    {
        type            calculated;
        value           uniform 2.00942e-08;
    }
    emptyWalls
    {
        type            empty;
        value           nonuniform List<scalar> 0();
    }
}


// ************************************************************************* //
