/*--------------------------------*- C++ -*----------------------------------*\
  =========                 |
  \\      /  F ield         | OpenFOAM: The Open Source CFD Toolbox
   \\    /   O peration     | Website:  https://openfoam.org
    \\  /    A nd           | Version:  9
     \\/     M anipulation  |
\*---------------------------------------------------------------------------*/
FoamFile
{
    format      ascii;
    class       surfaceScalarField;
    location    "2200";
    object      phic;
}
// * * * * * * * * * * * * * * * * * * * * * * * * * * * * * * * * * * * * * //

dimensions      [0 2 0 0 0 0 0];

internalField   nonuniform List<scalar> 
99
(
1.29247e-11
2.635e-11
4.14131e-11
5.72612e-11
7.40958e-11
9.13586e-11
1.0932e-10
1.27584e-10
1.45925e-10
1.64302e-10
1.82745e-10
2.01475e-10
2.20849e-10
2.41934e-10
2.66806e-10
2.98378e-10
3.35918e-10
3.7213e-10
4.01665e-10
4.31004e-10
4.60001e-10
4.8922e-10
5.18712e-10
5.48585e-10
5.78855e-10
6.09551e-10
6.40702e-10
6.72304e-10
7.04354e-10
7.36853e-10
7.69779e-10
8.0311e-10
8.36838e-10
8.70975e-10
9.05506e-10
9.404e-10
9.75654e-10
1.01125e-09
1.04713e-09
1.08332e-09
1.1198e-09
1.15652e-09
1.19347e-09
1.23059e-09
1.26784e-09
1.30516e-09
1.34254e-09
1.37989e-09
1.4171e-09
1.45413e-09
1.49087e-09
1.52714e-09
1.56279e-09
1.59768e-09
1.6316e-09
1.66433e-09
1.69571e-09
1.72558e-09
1.75385e-09
1.78064e-09
1.80658e-09
1.83328e-09
1.86482e-09
1.91098e-09
1.99336e-09
2.15316e-09
2.48593e-09
3.40897e-09
7.5299e-09
1.1047e-08
1.11593e-08
1.1155e-08
1.11539e-08
1.11541e-08
1.11541e-08
1.1154e-08
1.1154e-08
1.11541e-08
1.11547e-08
1.1155e-08
1.11553e-08
1.11553e-08
1.11553e-08
1.11553e-08
1.1155e-08
1.11548e-08
1.11547e-08
1.11547e-08
1.11547e-08
1.11548e-08
1.11549e-08
1.11549e-08
1.11473e-08
1.00498e-08
5.61653e-10
2.1321e-10
2.09527e-10
2.0949e-10
2.0949e-10
)
;

boundaryField
{
    inlet
    {
        type            calculated;
        value           uniform 0;
    }
    outlet
    {
        type            calculated;
        value           uniform 2.0949e-10;
    }
    emptyWalls
    {
        type            empty;
        value           nonuniform List<scalar> 0();
    }
}


// ************************************************************************* //
