/*--------------------------------*- C++ -*----------------------------------*\
  =========                 |
  \\      /  F ield         | OpenFOAM: The Open Source CFD Toolbox
   \\    /   O peration     | Website:  https://openfoam.org
    \\  /    A nd           | Version:  9
     \\/     M anipulation  |
\*---------------------------------------------------------------------------*/
FoamFile
{
    format      ascii;
    class       volVectorField;
    location    "2200";
    object      Ua;
}
// * * * * * * * * * * * * * * * * * * * * * * * * * * * * * * * * * * * * * //

dimensions      [0 0 0 0 0 0 0];

internalField   nonuniform List<vector> 
100
(
(0 0 8.89076e-06)
(0 0 1.1295e-05)
(0 0 1.12841e-05)
(0 0 1.12672e-05)
(0 0 1.12403e-05)
(0 0 1.12246e-05)
(0 0 1.12211e-05)
(0 0 1.12127e-05)
(0 0 1.12018e-05)
(0 0 1.11898e-05)
(0 0 1.11764e-05)
(0 0 1.11626e-05)
(0 0 1.11484e-05)
(0 0 1.11326e-05)
(0 0 1.11155e-05)
(0 0 1.10945e-05)
(0 0 1.10681e-05)
(0 0 1.10383e-05)
(0 0 1.10116e-05)
(0 0 1.09887e-05)
(0 0 1.09648e-05)
(0 0 1.094e-05)
(0 0 1.09153e-05)
(0 0 1.0891e-05)
(0 0 1.08664e-05)
(0 0 1.08411e-05)
(0 0 1.08153e-05)
(0 0 1.07892e-05)
(0 0 1.0763e-05)
(0 0 1.07366e-05)
(0 0 1.07098e-05)
(0 0 1.06821e-05)
(0 0 1.06538e-05)
(0 0 1.06252e-05)
(0 0 1.05965e-05)
(0 0 1.05676e-05)
(0 0 1.05385e-05)
(0 0 1.05091e-05)
(0 0 1.0479e-05)
(0 0 1.04484e-05)
(0 0 1.04179e-05)
(0 0 1.03875e-05)
(0 0 1.03571e-05)
(0 0 1.03266e-05)
(0 0 1.02958e-05)
(0 0 1.02646e-05)
(0 0 1.02333e-05)
(0 0 1.02021e-05)
(0 0 1.0171e-05)
(0 0 1.01399e-05)
(0 0 1.01089e-05)
(0 0 1.00781e-05)
(0 0 1.00475e-05)
(0 0 1.00176e-05)
(0 0 9.98862e-06)
(0 0 9.96042e-06)
(0 0 9.93316e-06)
(0 0 9.90711e-06)
(0 0 9.88222e-06)
(0 0 9.85841e-06)
(0 0 9.83573e-06)
(0 0 9.81358e-06)
(0 0 9.78937e-06)
(0 0 9.75685e-06)
(0 0 9.70261e-06)
(0 0 9.59999e-06)
(0 0 9.39035e-06)
(0 0 8.84877e-06)
(0 0 6.4366e-06)
(0 0 2.28684e-06)
(0 0 7.48118e-08)
(0 0 4.02337e-11)
(0 0 2.39542e-18)
(0 0 1.72948e-33)
(0 0 2.27685e-36)
(0 0 2.29252e-36)
(0 0 2.23108e-36)
(0 0 2.13832e-36)
(0 0 2.13847e-36)
(0 0 2.20006e-36)
(0 0 2.11124e-36)
(0 0 2.1427e-36)
(0 0 2.23165e-36)
(0 0 2.13884e-36)
(0 0 2.20023e-36)
(0 0 2.08245e-36)
(0 0 2.11373e-36)
(0 0 2.23139e-36)
(0 0 2.21571e-36)
(0 0 2.30851e-36)
(0 0 2.29286e-36)
(0 0 2.29289e-36)
(0 0 2.20729e-36)
(0 0 2.00391e-36)
(0 0 9.86275e-37)
(0 0 3.90025e-38)
(0 0 2.4613e-38)
(0 0 2.6469e-38)
(0 0 2.62876e-38)
(0 0 1.77469e-38)
)
;

boundaryField
{
    inlet
    {
        type            fixedValue;
        value           uniform (0 0 1.131e-05);
    }
    outlet
    {
        type            zeroGradient;
    }
    emptyWalls
    {
        type            empty;
    }
}


// ************************************************************************* //
