/*--------------------------------*- C++ -*----------------------------------*\
  =========                 |
  \\      /  F ield         | OpenFOAM: The Open Source CFD Toolbox
   \\    /   O peration     | Website:  https://openfoam.org
    \\  /    A nd           | Version:  9
     \\/     M anipulation  |
\*---------------------------------------------------------------------------*/
FoamFile
{
    format      ascii;
    class       volVectorField;
    location    "2200";
    object      Ub;
}
// * * * * * * * * * * * * * * * * * * * * * * * * * * * * * * * * * * * * * //

dimensions      [0 0 0 0 0 0 0];

internalField   nonuniform List<vector> 
100
(
(0 0 7.25105e-06)
(0 0 4.84658e-06)
(0 0 4.84611e-06)
(0 0 4.85074e-06)
(0 0 4.86463e-06)
(0 0 4.86679e-06)
(0 0 4.85624e-06)
(0 0 4.8502e-06)
(0 0 4.8466e-06)
(0 0 4.844e-06)
(0 0 4.84275e-06)
(0 0 4.8417e-06)
(0 0 4.8408e-06)
(0 0 4.84048e-06)
(0 0 4.83925e-06)
(0 0 4.83784e-06)
(0 0 4.83669e-06)
(0 0 4.83717e-06)
(0 0 4.83776e-06)
(0 0 4.83719e-06)
(0 0 4.83785e-06)
(0 0 4.83955e-06)
(0 0 4.84081e-06)
(0 0 4.84155e-06)
(0 0 4.84225e-06)
(0 0 4.84327e-06)
(0 0 4.84448e-06)
(0 0 4.84558e-06)
(0 0 4.84643e-06)
(0 0 4.84711e-06)
(0 0 4.84795e-06)
(0 0 4.84926e-06)
(0 0 4.85093e-06)
(0 0 4.85251e-06)
(0 0 4.85386e-06)
(0 0 4.85512e-06)
(0 0 4.8563e-06)
(0 0 4.85755e-06)
(0 0 4.8592e-06)
(0 0 4.86109e-06)
(0 0 4.86272e-06)
(0 0 4.86402e-06)
(0 0 4.8651e-06)
(0 0 4.8661e-06)
(0 0 4.86732e-06)
(0 0 4.86887e-06)
(0 0 4.87045e-06)
(0 0 4.87186e-06)
(0 0 4.87334e-06)
(0 0 4.87492e-06)
(0 0 4.87651e-06)
(0 0 4.87829e-06)
(0 0 4.88027e-06)
(0 0 4.8821e-06)
(0 0 4.88369e-06)
(0 0 4.88537e-06)
(0 0 4.88712e-06)
(0 0 4.8888e-06)
(0 0 4.89056e-06)
(0 0 4.89246e-06)
(0 0 4.89416e-06)
(0 0 4.89536e-06)
(0 0 4.89641e-06)
(0 0 4.89801e-06)
(0 0 4.9011e-06)
(0 0 4.90736e-06)
(0 0 4.92102e-06)
(0 0 4.96292e-06)
(0 0 5.36816e-06)
(0 0 6.47883e-06)
(0 0 7.24675e-06)
(0 0 7.27858e-06)
(0 0 7.28078e-06)
(0 0 7.28114e-06)
(0 0 7.28106e-06)
(0 0 7.28107e-06)
(0 0 7.28112e-06)
(0 0 7.28107e-06)
(0 0 7.28081e-06)
(0 0 7.28046e-06)
(0 0 7.28022e-06)
(0 0 7.2801e-06)
(0 0 7.28007e-06)
(0 0 7.28008e-06)
(0 0 7.28022e-06)
(0 0 7.2804e-06)
(0 0 7.28051e-06)
(0 0 7.28055e-06)
(0 0 7.28055e-06)
(0 0 7.28051e-06)
(0 0 7.28044e-06)
(0 0 7.28042e-06)
(0 0 7.28344e-06)
(0 0 7.72315e-06)
(0 0 1.19351e-05)
(0 0 1.58489e-05)
(0 0 1.5989e-05)
(0 0 1.59905e-05)
(0 0 1.59905e-05)
(0 0 1.59905e-05)
)
;

boundaryField
{
    inlet
    {
        type            fixedValue;
        value           uniform (0 0 4.84716e-06);
    }
    outlet
    {
        type            zeroGradient;
    }
    emptyWalls
    {
        type            empty;
    }
}


// ************************************************************************* //
