/*--------------------------------*- C++ -*----------------------------------*\
  =========                 |
  \\      /  F ield         | OpenFOAM: The Open Source CFD Toolbox
   \\    /   O peration     | Website:  https://openfoam.org
    \\  /    A nd           | Version:  9
     \\/     M anipulation  |
\*---------------------------------------------------------------------------*/
FoamFile
{
    format      ascii;
    class       volVectorField;
    location    "2200";
    object      Uc;
}
// * * * * * * * * * * * * * * * * * * * * * * * * * * * * * * * * * * * * * //

dimensions      [0 0 0 0 0 0 0];

internalField   nonuniform List<vector> 
100
(
(0 0 1.53871e-08)
(0 0 1.56269e-08)
(0 0 2.69621e-08)
(0 0 3.92613e-08)
(0 0 5.22653e-08)
(0 0 6.58322e-08)
(0 0 7.98475e-08)
(0 0 9.42613e-08)
(0 0 1.08826e-07)
(0 0 1.23435e-07)
(0 0 1.38086e-07)
(0 0 1.52877e-07)
(0 0 1.68038e-07)
(0 0 1.84136e-07)
(0 0 2.02421e-07)
(0 0 2.24879e-07)
(0 0 2.52378e-07)
(0 0 2.81723e-07)
(0 0 3.07883e-07)
(0 0 3.31309e-07)
(0 0 3.5452e-07)
(0 0 3.77683e-07)
(0 0 4.01043e-07)
(0 0 4.24664e-07)
(0 0 4.48594e-07)
(0 0 4.72852e-07)
(0 0 4.9746e-07)
(0 0 5.22428e-07)
(0 0 5.47755e-07)
(0 0 5.73438e-07)
(0 0 5.9947e-07)
(0 0 6.25833e-07)
(0 0 6.52515e-07)
(0 0 6.79517e-07)
(0 0 7.0684e-07)
(0 0 7.34463e-07)
(0 0 7.62374e-07)
(0 0 7.90562e-07)
(0 0 8.19001e-07)
(0 0 8.47678e-07)
(0 0 8.76591e-07)
(0 0 9.05719e-07)
(0 0 9.35033e-07)
(0 0 9.64505e-07)
(0 0 9.94096e-07)
(0 0 1.02377e-06)
(0 0 1.05349e-06)
(0 0 1.08322e-06)
(0 0 1.11289e-06)
(0 0 1.14242e-06)
(0 0 1.17178e-06)
(0 0 1.20083e-06)
(0 0 1.22944e-06)
(0 0 1.25751e-06)
(0 0 1.28489e-06)
(0 0 1.31141e-06)
(0 0 1.33692e-06)
(0 0 1.36129e-06)
(0 0 1.38442e-06)
(0 0 1.40633e-06)
(0 0 1.42731e-06)
(0 0 1.44825e-06)
(0 0 1.47143e-06)
(0 0 1.50234e-06)
(0 0 1.55349e-06)
(0 0 1.64985e-06)
(0 0 1.84584e-06)
(0 0 2.34551e-06)
(0 0 4.35244e-06)
(0 0 7.39153e-06)
(0 0 8.83564e-06)
(0 0 8.87858e-06)
(0 0 8.87642e-06)
(0 0 8.87606e-06)
(0 0 8.87614e-06)
(0 0 8.87613e-06)
(0 0 8.87608e-06)
(0 0 8.87613e-06)
(0 0 8.87639e-06)
(0 0 8.87674e-06)
(0 0 8.87698e-06)
(0 0 8.8771e-06)
(0 0 8.87713e-06)
(0 0 8.87712e-06)
(0 0 8.87698e-06)
(0 0 8.8768e-06)
(0 0 8.87669e-06)
(0 0 8.87665e-06)
(0 0 8.87665e-06)
(0 0 8.87669e-06)
(0 0 8.87676e-06)
(0 0 8.87678e-06)
(0 0 8.87376e-06)
(0 0 8.43405e-06)
(0 0 4.22214e-06)
(0 0 3.08308e-07)
(0 0 1.68202e-07)
(0 0 1.66721e-07)
(0 0 1.66707e-07)
(0 0 1.66707e-07)
)
;

boundaryField
{
    inlet
    {
        type            fixedValue;
        value           uniform (0 0 0);
    }
    outlet
    {
        type            zeroGradient;
    }
    emptyWalls
    {
        type            empty;
    }
}


// ************************************************************************* //
