/*--------------------------------*- C++ -*----------------------------------*\
  =========                 |
  \\      /  F ield         | OpenFOAM: The Open Source CFD Toolbox
   \\    /   O peration     | Website:  https://openfoam.org
    \\  /    A nd           | Version:  9
     \\/     M anipulation  |
\*---------------------------------------------------------------------------*/
FoamFile
{
    format      ascii;
    class       volScalarField;
    location    "11500";
    object      krc;
}
// * * * * * * * * * * * * * * * * * * * * * * * * * * * * * * * * * * * * * //

dimensions      [0 0 0 0 0 0 0];

internalField   nonuniform List<scalar> 
1000
(
3.87821e-07
3.98246e-06
1.36824e-05
2.83888e-05
4.79145e-05
7.19622e-05
9.98761e-05
0.000130575
0.00016256
0.000194201
0.000224154
0.000252555
0.000286013
0.000363841
0.000677556
0.0031851
0.0252987
0.041025
0.0453562
0.0473821
0.0486834
0.0496632
0.0504697
0.051163
0.0517778
0.0523307
0.0528352
0.0532988
0.0537312
0.0541392
0.05453
0.0549087
0.0552802
0.0556491
0.0560233
0.0564162
0.0568199
0.0572361
0.0576728
0.058142
0.0586623
0.0592597
0.0599655
0.0608064
0.0617895
0.0628939
0.0640844
0.0653309
0.0666137
0.0679201
0.0692416
0.0705723
0.0719083
0.073247
0.0745861
0.0759243
0.0772604
0.0785936
0.0799235
0.0812494
0.082571
0.083888
0.0852003
0.0865077
0.08781
0.0891072
0.0903992
0.0916859
0.0929673
0.0942433
0.095514
0.0967794
0.0980395
0.0992942
0.100544
0.101788
0.103027
0.10426
0.105489
0.106712
0.107931
0.109144
0.110352
0.111555
0.112753
0.113947
0.115135
0.116319
0.117497
0.118672
0.119841
0.121006
0.122166
0.123321
0.124472
0.125619
0.126761
0.127899
0.129032
0.130161
0.131286
0.132407
0.133523
0.134636
0.135744
0.136849
0.137949
0.139045
0.140138
0.141226
0.142311
0.143392
0.144469
0.145543
0.146613
0.147679
0.148741
0.149801
0.150856
0.151908
0.152957
0.154002
0.155044
0.156083
0.157118
0.15815
0.159179
0.160205
0.161227
0.162247
0.163263
0.164276
0.165286
0.166293
0.167297
0.168298
0.169296
0.170291
0.171283
0.172272
0.173259
0.174242
0.175223
0.176201
0.177177
0.17815
0.17912
0.180088
0.181054
0.182017
0.182978
0.183937
0.184893
0.185848
0.1868
0.18775
0.188698
0.189644
0.190588
0.191529
0.192469
0.193406
0.194341
0.195274
0.196205
0.197133
0.19806
0.198984
0.199906
0.200826
0.201743
0.202659
0.203573
0.204485
0.205394
0.206302
0.207208
0.208112
0.209015
0.209915
0.210814
0.211711
0.212607
0.2135
0.214392
0.215283
0.216172
0.217059
0.217945
0.218829
0.219711
0.220592
0.221472
0.22235
0.223227
0.224102
0.224975
0.225848
0.226719
0.227588
0.228456
0.229323
0.230188
0.231052
0.231915
0.232776
0.233637
0.234496
0.235353
0.23621
0.237065
0.237919
0.238772
0.239624
0.240474
0.241324
0.242172
0.24302
0.243866
0.244711
0.245555
0.246398
0.247241
0.248082
0.248922
0.249761
0.2506
0.251437
0.252273
0.253109
0.253944
0.254777
0.25561
0.256443
0.257274
0.258104
0.258934
0.259763
0.260591
0.261419
0.262246
0.263072
0.263897
0.264722
0.265546
0.266369
0.267192
0.268014
0.268835
0.269656
0.270476
0.271296
0.272115
0.272934
0.273752
0.27457
0.275387
0.276204
0.27702
0.277836
0.278651
0.279466
0.280281
0.281095
0.281909
0.282722
0.283536
0.284349
0.285161
0.285973
0.286785
0.287597
0.288409
0.28922
0.290031
0.290842
0.291653
0.292463
0.293273
0.294083
0.294893
0.295703
0.296513
0.297322
0.298131
0.298941
0.29975
0.300558
0.301367
0.302176
0.302984
0.303793
0.304602
0.30541
0.306219
0.307027
0.307836
0.308645
0.309454
0.310263
0.311073
0.311883
0.312693
0.313504
0.314315
0.315127
0.31594
0.316753
0.317566
0.318381
0.319196
0.320011
0.320828
0.321645
0.322463
0.323282
0.324102
0.324922
0.325743
0.326565
0.327387
0.32821
0.329034
0.329858
0.330683
0.331509
0.332335
0.333162
0.33399
0.334818
0.335647
0.336477
0.337307
0.338138
0.33897
0.339803
0.340637
0.341472
0.342307
0.343144
0.343982
0.344821
0.345661
0.346502
0.347344
0.348188
0.349032
0.349879
0.350726
0.351575
0.352425
0.353277
0.35413
0.354985
0.355841
0.356699
0.357559
0.35842
0.359283
0.360148
0.361014
0.361882
0.362752
0.363624
0.364498
0.365373
0.366251
0.36713
0.368012
0.368896
0.369782
0.37067
0.37156
0.372453
0.373348
0.374245
0.375145
0.376047
0.376951
0.377859
0.378769
0.379681
0.380596
0.381514
0.382435
0.383359
0.384286
0.385215
0.386148
0.387084
0.388023
0.388965
0.389911
0.39086
0.391813
0.392769
0.393728
0.394691
0.395658
0.396629
0.397604
0.398583
0.399566
0.400552
0.401543
0.402538
0.403537
0.404541
0.40555
0.406562
0.407579
0.408601
0.409627
0.410657
0.411693
0.412732
0.413777
0.414825
0.415878
0.416934
0.417995
0.419059
0.420126
0.421196
0.422268
0.423341
0.424413
0.425485
0.426554
0.427619
0.428677
0.429726
0.430762
0.431783
0.432785
0.433763
0.434714
0.435632
0.436512
0.43735
0.43814
0.438881
0.439567
0.440197
0.440769
0.441283
0.44174
0.442145
0.442503
0.442825
0.443126
0.443432
0.443783
0.444255
0.444969
0.446144
0.44815
0.45161
0.457519
0.467305
0.482652
0.504696
0.532598
0.562626
0.589576
0.609907
0.623208
0.631079
0.63545
0.637789
0.639015
0.63965
0.639975
0.64014
0.640223
0.640262
0.64028
0.640286
0.640286
0.640284
0.64028
0.640275
0.64027
0.640265
0.640259
0.640254
0.64025
0.640245
0.640241
0.640238
0.640234
0.640231
0.640229
0.640227
0.640226
0.640226
0.640226
0.640226
0.640226
0.640228
0.64023
0.640233
0.640236
0.64024
0.640244
0.640248
0.640253
0.640258
0.640263
0.640269
0.640274
0.64028
0.640285
0.640291
0.640296
0.640302
0.640307
0.640312
0.640317
0.640322
0.640326
0.64033
0.640334
0.640338
0.640341
0.640345
0.640347
0.64035
0.640353
0.640355
0.640357
0.640359
0.640361
0.640362
0.640364
0.640365
0.640367
0.640368
0.640369
0.64037
0.640371
0.640373
0.640374
0.640375
0.640376
0.640377
0.640378
0.640379
0.640381
0.640382
0.640383
0.640384
0.640386
0.640387
0.640388
0.64039
0.640391
0.640393
0.640394
0.640396
0.640397
0.640398
0.6404
0.640401
0.640403
0.640404
0.640406
0.640407
0.640408
0.64041
0.640411
0.640412
0.640413
0.640415
0.640416
0.640417
0.640418
0.640419
0.64042
0.640421
0.640422
0.640423
0.640424
0.640424
0.640425
0.640426
0.640426
0.640427
0.640428
0.640428
0.640429
0.640429
0.64043
0.64043
0.64043
0.640431
0.640431
0.640431
0.640431
0.640432
0.640432
0.640432
0.640432
0.640432
0.640432
0.640432
0.640432
0.640432
0.640432
0.640432
0.640432
0.640432
0.640432
0.640431
0.640431
0.640431
0.640431
0.640431
0.64043
0.64043
0.64043
0.640429
0.640429
0.640429
0.640428
0.640428
0.640427
0.640427
0.640427
0.640426
0.640426
0.640425
0.640425
0.640424
0.640424
0.640423
0.640422
0.640422
0.640421
0.640421
0.64042
0.640419
0.640419
0.640418
0.640417
0.640416
0.640416
0.640415
0.640414
0.640413
0.640412
0.640411
0.64041
0.640409
0.640408
0.640407
0.640405
0.640404
0.640402
0.640401
0.640399
0.640397
0.640396
0.640394
0.640391
0.640389
0.640387
0.640384
0.640381
0.640378
0.640375
0.640372
0.640369
0.640365
0.640362
0.640358
0.640354
0.64035
0.640346
0.640341
0.640337
0.640332
0.640328
0.640323
0.640318
0.640314
0.640309
0.640304
0.6403
0.640295
0.64029
0.640286
0.640282
0.640278
0.640274
0.64027
0.640267
0.640264
0.640261
0.640258
0.640256
0.640254
0.640253
0.640252
0.640252
0.640251
0.640251
0.640251
0.640253
0.640254
0.640256
0.640259
0.640262
0.640265
0.640269
0.640273
0.640277
0.640281
0.640286
0.64029
0.640295
0.6403
0.640305
0.640309
0.640314
0.640319
0.640323
0.640327
0.640332
0.640336
0.640339
0.640343
0.640347
0.64035
0.640353
0.640356
0.640358
0.640361
0.640363
0.640365
0.640367
0.640369
0.640371
0.640373
0.640374
0.640375
0.640377
0.640378
0.640379
0.64038
0.640381
0.640382
0.640383
0.640384
0.640385
0.640386
0.640387
0.640388
0.640389
0.64039
0.640391
0.640392
0.640394
0.640395
0.640396
0.640397
0.640398
0.640399
0.6404
0.640401
0.640403
0.640404
0.640405
0.640406
0.640407
0.640408
0.64041
0.640411
0.640412
0.640413
0.640414
0.640415
0.640416
0.640417
0.640418
0.640419
0.64042
0.640421
0.640422
0.640423
0.640423
0.640424
0.640425
0.640426
0.640426
0.640427
0.640427
0.640428
0.640428
0.640429
0.640429
0.64043
0.64043
0.64043
0.640431
0.640431
0.640431
0.640432
0.640432
0.640432
0.640432
0.640432
0.640432
0.640432
0.640432
0.640432
0.640432
0.640432
0.640432
0.640432
0.640432
0.640432
0.640431
0.640431
0.640431
0.640431
0.640431
0.64043
0.64043
0.64043
0.640429
0.640429
0.640428
0.640428
0.640428
0.640427
0.640427
0.640426
0.640426
0.640425
0.640425
0.640424
0.640423
0.640423
0.640422
0.640422
0.640421
0.64042
0.640419
0.640419
0.640418
0.640417
0.640416
0.640415
0.640415
0.640414
0.640413
0.640412
0.64041
0.640409
0.640408
0.640407
0.640405
0.640404
0.640403
0.640401
0.640399
0.640398
0.640396
0.640394
0.640392
0.64039
0.640387
0.640385
0.640383
0.64038
0.640377
0.640374
0.640371
0.640368
0.640365
0.640362
0.640358
0.640355
0.640351
0.640347
0.640344
0.64034
0.640336
0.640332
0.640327
0.640323
0.640319
0.640315
0.640311
0.640307
0.640303
0.640299
0.640295
0.640292
0.640288
0.640285
0.640282
0.640279
0.640276
0.640274
0.640272
0.64027
0.640268
0.640267
0.640266
0.640265
0.640265
0.640265
0.640265
0.640265
0.640267
0.640268
0.64027
0.640272
0.640274
0.640277
0.64028
0.640283
0.640287
0.64029
0.640294
0.640298
0.640302
0.640306
0.64031
0.640314
0.640318
0.640322
0.640326
0.640329
0.640333
0.640337
0.64034
0.640344
0.640347
0.64035
0.640353
0.640356
0.640358
0.640361
0.640363
0.640366
0.640368
0.64037
0.640371
0.640373
0.640375
0.640376
0.640377
0.640379
0.64038
0.640381
0.640382
0.640383
0.640384
0.640385
0.640386
0.640387
0.640388
0.640389
0.64039
0.640391
0.640392
0.640392
0.640393
0.640394
0.640395
0.640396
0.640397
0.640398
0.640399
0.6404
0.640401
0.640402
0.640403
0.640403
0.640405
0.640405
0.640407
0.640407
0.640408
0.640409
0.64041
0.640411
0.640412
0.640413
0.640414
0.640414
0.640416
0.640416
0.640417
0.640417
0.640419
0.640419
)
;

boundaryField
{
    inlet
    {
        type            calculated;
        value           uniform 3.08149e-33;
    }
    outlet
    {
        type            calculated;
        value           uniform 0.640419;
    }
    emptyWalls
    {
        type            empty;
    }
}


// ************************************************************************* //
