/*--------------------------------*- C++ -*----------------------------------*\
  =========                 |
  \\      /  F ield         | OpenFOAM: The Open Source CFD Toolbox
   \\    /   O peration     | Website:  https://openfoam.org
    \\  /    A nd           | Version:  9
     \\/     M anipulation  |
\*---------------------------------------------------------------------------*/
FoamFile
{
    format      ascii;
    class       volScalarField;
    location    "133999.999997";
    object      krc;
}
// * * * * * * * * * * * * * * * * * * * * * * * * * * * * * * * * * * * * * //

dimensions      [0 0 0 0 0 0 0];

internalField   nonuniform List<scalar> 
100
(
1.30472e-28
4.02321e-28
2.75684e-28
2.70495e-28
3.07855e-28
3.24605e-28
4.61004e-28
5.20274e-26
5.98007e-28
4.71853e-29
6.01853e-28
6.51966e-26
6.11521e-30
1.51428e-26
8.73616e-28
9.55277e-29
7.91833e-27
2.86781e-25
2.23785e-24
1.01996e-23
2.83047e-23
4.98863e-23
6.05871e-23
6.7928e-23
7.16847e-23
7.11845e-23
6.22234e-23
5.48908e-23
4.59026e-23
4.54199e-23
4.15931e-23
4.09265e-23
4.03839e-23
4.05777e-23
3.99322e-23
4.11196e-23
4.1026e-23
3.58662e-23
2.79143e-23
1.92661e-23
8.31828e-24
2.10324e-24
1.26821e-26
1.47579e-24
4.87449e-24
8.39043e-24
1.01495e-23
8.76519e-24
8.80195e-24
6.78756e-24
6.85686e-24
8.80148e-24
1.10026e-23
1.28294e-23
2.03144e-23
2.49176e-23
3.34304e-23
2.8329e-23
2.33733e-23
1.44422e-23
1.29947e-23
1.23332e-23
1.05618e-23
5.67667e-24
1.83759e-24
5.16149e-25
1.89929e-26
2.84473e-24
1.00781e-23
2.07712e-23
2.64056e-23
2.99545e-23
2.50298e-23
1.01066e-23
7.56265e-25
2.16864e-24
7.43854e-24
1.48617e-23
1.47475e-23
1.04732e-23
5.337e-24
3.58366e-25
2.67533e-26
4.32017e-25
1.54135e-24
1.12029e-24
9.84111e-25
1.6893e-25
4.14744e-24
2.54959e-24
2.47026e-23
7.56929e-24
2.58506e-25
1.04099e-22
2.19225e-21
4.41749e-18
4.75165e-18
1.51169e-18
4.47581e-17
1.29782e-15
)
;

boundaryField
{
    inlet
    {
        type            calculated;
        value           uniform 1.30472e-28;
    }
    outlet
    {
        type            calculated;
        value           uniform 1.29782e-15;
    }
    emptyWalls
    {
        type            empty;
    }
}


// ************************************************************************* //
