/*--------------------------------*- C++ -*----------------------------------*\
  =========                 |
  \\      /  F ield         | OpenFOAM: The Open Source CFD Toolbox
   \\    /   O peration     | Website:  https://openfoam.org
    \\  /    A nd           | Version:  9
     \\/     M anipulation  |
\*---------------------------------------------------------------------------*/
FoamFile
{
    format      ascii;
    class       volScalarField;
    location    "61000";
    object      krc;
}
// * * * * * * * * * * * * * * * * * * * * * * * * * * * * * * * * * * * * * //

dimensions      [0 0 0 0 0 0 0];

internalField   nonuniform List<scalar> 
100
(
1.71365e-26
8.94137e-27
5.70942e-27
2.4763e-26
7.10346e-28
1.3913e-26
8.6542e-29
6.73012e-29
6.03423e-27
9.97944e-27
3.04695e-26
5.97947e-29
2.65619e-27
3.40495e-26
4.18959e-27
1.1475e-27
7.22956e-28
2.12719e-27
3.05013e-27
8.83775e-27
8.18815e-28
8.08687e-27
1.83392e-27
8.20022e-27
1.03355e-28
2.65994e-26
2.12719e-27
7.11812e-26
1.40988e-26
1.20593e-25
4.48782e-26
1.06372e-25
1.9076e-25
2.65741e-25
2.67849e-25
5.70408e-25
6.79921e-25
8.39545e-25
9.68751e-25
1.09041e-24
1.38233e-24
2.15041e-24
2.61139e-24
2.20509e-24
2.82279e-24
3.20953e-24
3.39583e-24
4.52899e-24
3.84001e-24
3.67626e-24
3.94283e-24
3.66122e-24
3.67686e-24
2.72629e-24
2.14581e-24
2.13937e-24
1.21702e-24
8.86951e-25
8.53412e-25
5.22031e-25
2.60987e-25
6.85255e-26
2.44428e-26
2.56793e-27
3.70386e-26
1.22179e-25
1.86269e-26
1.02415e-25
9.79211e-27
3.30145e-26
3.95266e-26
1.24828e-25
4.77207e-25
1.96333e-24
4.57656e-24
8.77262e-24
1.72469e-23
3.0559e-23
5.55231e-23
7.97971e-23
1.27802e-22
1.85298e-22
2.95133e-22
4.46229e-22
6.55179e-22
9.69533e-22
1.44211e-21
1.9675e-21
2.84331e-21
3.95969e-21
5.7202e-21
7.68015e-21
1.21115e-20
1.45434e-20
3.34353e-21
6.43246e-20
5.38377e-18
2.47867e-17
6.07234e-16
4.05216e-15
)
;

boundaryField
{
    inlet
    {
        type            calculated;
        value           uniform 1.71365e-26;
    }
    outlet
    {
        type            calculated;
        value           uniform 4.05216e-15;
    }
    emptyWalls
    {
        type            empty;
    }
}


// ************************************************************************* //
