/*--------------------------------*- C++ -*----------------------------------*\
  =========                 |
  \\      /  F ield         | OpenFOAM: The Open Source CFD Toolbox
   \\    /   O peration     | Website:  https://openfoam.org
    \\  /    A nd           | Version:  9
     \\/     M anipulation  |
\*---------------------------------------------------------------------------*/
FoamFile
{
    format      ascii;
    class       surfaceScalarField;
    location    "61000";
    object      phic;
}
// * * * * * * * * * * * * * * * * * * * * * * * * * * * * * * * * * * * * * //

dimensions      [0 2 0 0 0 0 0];

internalField   nonuniform List<scalar> 
99
(
2.06795e-25
4.1359e-25
-2.06795e-25
-2.06795e-25
4.1359e-25
0
0
4.1359e-25
-2.06795e-25
-2.06795e-25
0
-2.06795e-25
-2.06795e-25
-2.06795e-25
0
0
0
0
0
2.06795e-25
2.06795e-25
0
0
-2.06795e-25
2.06795e-25
-2.06795e-25
0
0
0
0
0
0
-2.06795e-25
0
0
2.06795e-25
4.1359e-25
4.1359e-25
2.06795e-25
2.06795e-25
0
0
2.06795e-25
0
4.1359e-25
0
-2.06795e-25
2.06795e-25
0
0
-2.06795e-25
4.1359e-25
-4.1359e-25
0
-2.06795e-25
2.06795e-25
0
0
4.1359e-25
-2.06795e-25
0
2.06795e-25
-2.06795e-25
2.06795e-25
0
0
-4.1359e-25
2.06795e-25
4.1359e-25
0
2.06795e-25
2.06795e-25
4.1359e-25
0
0
4.1359e-25
2.06795e-25
-4.1359e-25
0
0
-2.06795e-25
0
0
0
2.06795e-25
0
0
-4.1359e-25
-2.06795e-25
-6.20385e-25
2.06795e-25
-2.06795e-25
2.06795e-25
0
2.06795e-25
2.06795e-25
6.20385e-24
2.50222e-23
7.14684e-22
)
;

boundaryField
{
    inlet
    {
        type            calculated;
        value           uniform 0;
    }
    outlet
    {
        type            calculated;
        value           uniform 1.61859e-21;
    }
    emptyWalls
    {
        type            empty;
        value           nonuniform List<scalar> 0();
    }
}


// ************************************************************************* //
