/*--------------------------------*- C++ -*----------------------------------*\
  =========                 |
  \\      /  F ield         | OpenFOAM: The Open Source CFD Toolbox
   \\    /   O peration     | Website:  https://openfoam.org
    \\  /    A nd           | Version:  9
     \\/     M anipulation  |
\*---------------------------------------------------------------------------*/
FoamFile
{
    format      ascii;
    class       volScalarField;
    location    "93000";
    object      krc;
}
// * * * * * * * * * * * * * * * * * * * * * * * * * * * * * * * * * * * * * //

dimensions      [0 0 0 0 0 0 0];

internalField   nonuniform List<scalar> 
100
(
6.97868e-24
2.53264e-25
3.60154e-25
4.03604e-25
4.16777e-26
2.83846e-25
6.92259e-26
1.39345e-27
4.34808e-25
2.43097e-25
7.08173e-25
2.10552e-27
5.42715e-26
5.75519e-25
4.8197e-26
1.05287e-24
6.37994e-25
3.28763e-24
1.24244e-24
6.9847e-26
7.3754e-25
1.76594e-24
6.26757e-25
1.67716e-24
2.05547e-24
4.45462e-26
1.38021e-26
1.15125e-24
2.62031e-25
7.92853e-24
1.87009e-24
1.31253e-24
2.52459e-24
5.00992e-24
2.86781e-25
7.47823e-25
4.54225e-27
1.05045e-25
2.64205e-26
3.65417e-28
2.87141e-26
8.71786e-25
2.16609e-24
6.89783e-26
6.63067e-25
3.52469e-25
1.14914e-26
2.41397e-25
4.03405e-25
1.86125e-25
2.88887e-25
3.92904e-25
9.66743e-25
1.71982e-26
3.64667e-26
3.02029e-25
8.04723e-26
2.91413e-26
6.21547e-25
3.42933e-25
6.80439e-25
2.39856e-25
9.21831e-26
2.43406e-25
1.13572e-26
3.33982e-25
2.78352e-25
5.21464e-25
2.23831e-25
8.01609e-26
3.68303e-25
3.12999e-25
3.67069e-26
2.20264e-26
3.39048e-26
8.22188e-26
4.53167e-27
3.61144e-27
4.38023e-25
4.38491e-27
4.16878e-25
2.50978e-25
1.78715e-27
2.2183e-25
1.71776e-26
6.10763e-27
3.43108e-26
2.56276e-25
3.5926e-27
2.52238e-25
2.7546e-25
2.27561e-25
1.49886e-26
8.43939e-26
3.72556e-27
3.79506e-26
1.44969e-29
8.9345e-26
5.16487e-25
5.05823e-25
)
;

boundaryField
{
    inlet
    {
        type            calculated;
        value           uniform 6.97868e-24;
    }
    outlet
    {
        type            calculated;
        value           uniform 5.05823e-25;
    }
    emptyWalls
    {
        type            empty;
    }
}


// ************************************************************************* //
