/*--------------------------------*- C++ -*----------------------------------*\
  =========                 |
  \\      /  F ield         | OpenFOAM: The Open Source CFD Toolbox
   \\    /   O peration     | Website:  https://openfoam.org
    \\  /    A nd           | Version:  9
     \\/     M anipulation  |
\*---------------------------------------------------------------------------*/
FoamFile
{
    format      ascii;
    class       volScalarField;
    location    "8150";
    object      Fb;
}
// * * * * * * * * * * * * * * * * * * * * * * * * * * * * * * * * * * * * * //

dimensions      [0 0 0 0 0 0 0];

internalField   nonuniform List<scalar> 
1000
(
0.805073
0.805225
0.805173
0.805306
0.805338
0.805463
0.805511
0.805604
0.805684
0.806093
0.808693
0.826055
0.83318
0.83461
0.835251
0.835582
0.83584
0.836008
0.836126
0.836215
0.836291
0.83633
0.836318
0.836343
0.836241
0.836195
0.83608
0.835909
0.835699
0.835388
0.834945
0.834298
0.833512
0.832615
0.83163
0.830587
0.829516
0.828437
0.827364
0.826304
0.825265
0.824253
0.82328
0.822359
0.8215
0.820712
0.819996
0.819345
0.818747
0.818183
0.817633
0.817077
0.816494
0.815872
0.8152
0.814473
0.81369
0.812856
0.811975
0.811058
0.810108
0.809139
0.808153
0.807164
0.806168
0.805179
0.804191
0.803213
0.802238
0.801273
0.80031
0.799354
0.798398
0.797447
0.796494
0.795543
0.79459
0.793635
0.792679
0.79172
0.790759
0.789794
0.788828
0.787858
0.786886
0.785911
0.784934
0.783954
0.782972
0.781986
0.780999
0.780009
0.779016
0.77802
0.777022
0.776021
0.775017
0.77401
0.773
0.771987
0.770971
0.769951
0.768929
0.767903
0.766873
0.76584
0.764804
0.763764
0.762721
0.761674
0.760623
0.759569
0.758512
0.757452
0.756389
0.755322
0.754253
0.753182
0.752108
0.751031
0.749952
0.748871
0.747787
0.746701
0.745613
0.744522
0.743429
0.742333
0.741235
0.740134
0.739031
0.737925
0.736816
0.735704
0.73459
0.733473
0.732353
0.73123
0.730104
0.728976
0.727845
0.726711
0.725574
0.724435
0.723294
0.72215
0.721003
0.719854
0.718702
0.717547
0.716388
0.715226
0.714061
0.712892
0.711719
0.710542
0.709362
0.708177
0.706989
0.705796
0.704599
0.703397
0.702189
0.700974
0.699752
0.698523
0.697284
0.696036
0.694779
0.693511
0.692233
0.690944
0.689645
0.688337
0.68702
0.685695
0.684364
0.683028
0.681689
0.680349
0.679009
0.677673
0.676341
0.675018
0.673704
0.672402
0.671113
0.669839
0.668581
0.667338
0.666111
0.664899
0.6637
0.662513
0.661335
0.660163
0.658995
0.657827
0.656656
0.65548
0.654296
0.653101
0.651894
0.650673
0.649438
0.648187
0.646921
0.645639
0.644344
0.643034
0.641711
0.640375
0.639029
0.637673
0.636308
0.634935
0.633555
0.632169
0.630778
0.629381
0.62798
0.626575
0.625166
0.623754
0.622338
0.620918
0.619495
0.618068
0.616637
0.615202
0.613763
0.612319
0.61087
0.609416
0.607957
0.606492
0.605022
0.603546
0.602064
0.600576
0.599081
0.59758
0.596072
0.594557
0.593035
0.591506
0.589971
0.588427
0.586876
0.585318
0.583752
0.582178
0.580596
0.579005
0.577407
0.5758
0.574185
0.57256
0.570927
0.569285
0.567634
0.565973
0.564303
0.562623
0.560933
0.559233
0.557522
0.555801
0.554068
0.552325
0.550571
0.548805
0.547027
0.545238
0.543436
0.541622
0.539795
0.537954
0.536101
0.534235
0.532355
0.530461
0.528553
0.526631
0.524693
0.522741
0.520774
0.518792
0.516794
0.514783
0.512754
0.510712
0.508652
0.506579
0.504491
0.502388
0.500276
0.498147
0.496016
0.493868
0.491727
0.489573
0.487435
0.4853
0.483187
0.481103
0.479049
0.477054
0.475109
0.473248
0.471471
0.469794
0.468232
0.466778
0.46545
0.464223
0.463083
0.461981
0.460818
0.459449
0.457581
0.454744
0.450125
0.442394
0.429579
0.409145
0.378988
0.339575
0.295971
0.256251
0.226232
0.206698
0.195216
0.188866
0.185478
0.183698
0.182773
0.182294
0.182044
0.181912
0.181841
0.181802
0.181778
0.181761
0.181747
0.181736
0.181725
0.181714
0.181702
0.18169
0.181678
0.181664
0.18165
0.181636
0.18162
0.181605
0.181588
0.181571
0.181555
0.181537
0.18152
0.181503
0.181486
0.181469
0.181453
0.181437
0.181422
0.181409
0.181396
0.181385
0.181375
0.181367
0.181361
0.181357
0.181355
0.181355
0.181355
0.181356
0.181361
0.181369
0.181379
0.18139
0.181403
0.181418
0.181434
0.181451
0.181468
0.181486
0.181505
0.181523
0.181542
0.18156
0.181578
0.181595
0.181612
0.181627
0.181642
0.181655
0.181667
0.181678
0.181688
0.181697
0.181704
0.181711
0.181716
0.18172
0.181724
0.181727
0.181729
0.181731
0.181732
0.181732
0.181733
0.181733
0.181732
0.181732
0.181732
0.181732
0.181731
0.181731
0.181731
0.181731
0.181731
0.181732
0.181733
0.181734
0.181735
0.181736
0.181738
0.181739
0.181741
0.181743
0.181746
0.181748
0.181751
0.181753
0.181756
0.181759
0.181762
0.181765
0.181768
0.181771
0.181775
0.181778
0.181781
0.181784
0.181788
0.181791
0.181794
0.181797
0.181801
0.181804
0.181807
0.18181
0.181813
0.181817
0.18182
0.181823
0.181826
0.181829
0.181832
0.181835
0.181838
0.181841
0.181844
0.181846
0.181849
0.181852
0.181854
0.181857
0.18186
0.181862
0.181864
0.181867
0.181869
0.181871
0.181873
0.181875
0.181877
0.181878
0.18188
0.181881
0.181883
0.181884
0.181885
0.181885
0.181886
0.181887
0.181887
0.181887
0.181888
0.181888
0.181888
0.181887
0.181887
0.181886
0.181885
0.181884
0.181883
0.181882
0.181881
0.181879
0.181878
0.181876
0.181874
0.181872
0.181871
0.181868
0.181866
0.181864
0.181862
0.18186
0.181857
0.181855
0.181852
0.18185
0.181847
0.181845
0.181842
0.181839
0.181837
0.181834
0.181831
0.181828
0.181825
0.181823
0.18182
0.181817
0.181814
0.181811
0.181808
0.181804
0.181801
0.181798
0.181794
0.181791
0.181787
0.181783
0.181779
0.181775
0.181771
0.181766
0.181762
0.181757
0.181751
0.181746
0.18174
0.181734
0.181727
0.18172
0.181713
0.181705
0.181697
0.181688
0.181679
0.181669
0.181659
0.181648
0.181637
0.181626
0.181614
0.181601
0.181589
0.181575
0.181562
0.181548
0.181534
0.181521
0.181507
0.181493
0.18148
0.181467
0.181454
0.181442
0.18143
0.181419
0.181409
0.1814
0.181392
0.181385
0.181379
0.181375
0.181372
0.18137
0.18137
0.18137
0.181371
0.181372
0.181378
0.181384
0.181392
0.181402
0.181412
0.181424
0.181436
0.18145
0.181464
0.181478
0.181493
0.181508
0.181523
0.181538
0.181553
0.181567
0.181581
0.181594
0.181607
0.181619
0.181631
0.181641
0.181651
0.18166
0.181668
0.181675
0.181681
0.181687
0.181692
0.181696
0.1817
0.181703
0.181706
0.181708
0.18171
0.181712
0.181713
0.181715
0.181716
0.181716
0.181717
0.181718
0.181719
0.18172
0.181721
0.181722
0.181723
0.181724
0.181725
0.181727
0.181729
0.18173
0.181733
0.181735
0.181737
0.18174
0.181742
0.181745
0.181748
0.181751
0.181754
0.181757
0.18176
0.181763
0.181767
0.18177
0.181773
0.181777
0.18178
0.181783
0.181787
0.18179
0.181793
0.181796
0.181799
0.181803
0.181806
0.181809
0.181812
0.181815
0.181817
0.18182
0.181823
0.181825
0.181828
0.18183
0.181833
0.181835
0.181837
0.181839
0.181841
0.181843
0.181845
0.181847
0.181849
0.18185
0.181852
0.181853
0.181855
0.181856
0.181857
0.181859
0.18186
0.181861
0.181862
0.181863
0.181864
0.181864
0.181865
0.181866
0.181866
0.181866
0.181867
0.181867
0.181867
0.181867
0.181867
0.181867
0.181866
0.181866
0.181865
0.181865
0.181864
0.181863
0.181862
0.181861
0.18186
0.181859
0.181857
0.181856
0.181854
0.181852
0.181851
0.181849
0.181847
0.181845
0.181843
0.181841
0.181838
0.181836
0.181834
0.181831
0.181829
0.181826
0.181824
0.181821
0.181819
0.181816
0.181813
0.18181
0.181807
0.181804
0.181801
0.181798
0.181795
0.181792
0.181788
0.181785
0.181781
0.181777
0.181773
0.181769
0.181765
0.18176
0.181755
0.181751
0.181745
0.18174
0.181734
0.181728
0.181722
0.181715
0.181708
0.181701
0.181693
0.181685
0.181677
0.181668
0.181659
0.18165
0.18164
0.18163
0.18162
0.181609
0.181598
0.181587
0.181576
0.181565
0.181554
0.181543
0.181531
0.18152
0.18151
0.181499
0.181489
0.181479
0.18147
0.181461
0.181453
0.181445
0.181439
0.181433
0.181428
0.181424
0.181421
0.181419
0.181419
0.181419
0.181419
0.181419
0.181422
0.181427
0.181432
0.181439
0.181447
0.181455
0.181465
0.181475
0.181485
0.181496
0.181508
0.18152
0.181532
0.181544
0.181556
0.181568
0.18158
0.181592
0.181603
0.181613
0.181624
0.181634
0.181643
0.181651
0.181659
0.181667
0.181673
0.18168
0.181685
0.18169
0.181695
0.181699
0.181702
0.181705
0.181708
0.18171
0.181713
0.181714
0.181716
0.181717
0.181718
0.18172
0.181721
0.181721
0.181722
0.181723
0.181724
0.181725
0.181727
0.181728
0.181729
0.181731
0.181732
0.181734
0.181736
0.181738
0.18174
0.181742
0.181745
0.181747
0.18175
0.181753
0.181756
0.181759
0.181762
0.181765
0.181768
0.181771
0.181775
0.181778
0.181782
0.181785
0.181788
0.181792
0.181795
0.181799
0.181802
0.181805
0.181809
0.181812
0.181815
0.181818
0.181821
0.181824
0.181827
0.18183
0.181833
0.181835
0.181838
0.181841
0.181843
0.181846
0.181848
0.18185
0.181852
0.181854
0.181856
0.181858
0.18186
0.181862
0.181863
0.181865
0.181866
0.181868
0.181869
0.18187
0.181872
0.181873
0.181874
0.181875
0.181876
0.181877
0.181877
0.181878
0.181879
0.181879
0.18188
0.18188
0.18188
0.181881
0.181881
0.181881
0.181881
0.181881
0.181881
0.18188
0.18188
0.181879
0.181879
0.181878
0.181877
0.181876
0.181875
0.181874
0.181873
0.181871
0.18187
0.181868
0.181867
0.181865
0.181863
0.181861
0.181859
0.181856
0.181854
0.181852
0.181849
0.181846
0.181844
0.181841
0.181838
0.181834
0.181831
0.181827
0.181824
0.18182
0.181816
0.181812
0.181808
0.181804
0.181799
0.181794
0.181789
0.181784
0.181779
0.181773
0.181767
0.181761
0.181755
0.181749
0.181742
0.181735
0.181727
0.18172
0.181712
0.181704
0.181695
0.181686
0.181677
0.181668
0.181659
0.181649
0.181639
0.181629
0.181618
0.181608
0.181598
0.181587
0.181576
0.181566
0.181555
0.181544
0.181535
0.181523
0.181515
0.181503
0.181496
0.181484
0.181479
0.181467
0.181464
0.181451
)
;

boundaryField
{
    inlet
    {
        type            calculated;
        value           uniform 0.805169;
    }
    outlet
    {
        type            calculated;
        value           uniform 0.181452;
    }
    emptyWalls
    {
        type            empty;
    }
}


// ************************************************************************* //
