/*--------------------------------*- C++ -*----------------------------------*\
  =========                 |
  \      /  F ield         | OpenFOAM: The Open Source CFD Toolbox
   \    /   O peration     | Website:  https://openfoam.org
    \  /    A nd           | Version:  9
     \/     M anipulation  |
\*---------------------------------------------------------------------------*/
FoamFile
{
    format      ascii;
    class       volScalarField;
    location    "0";
    object      K;
}
// * * * * * * * * * * * * * * * * * * * * * * * * * * * * * * * * * * * * * //

dimensions      [0 0 0 0 0 0 0];

internalField   nonuniform List<scalar> 
13200
(
1.000000e-13
2.809538e-13
4.400990e-13
2.935001e-13
2.928580e-13
3.090509e-13
2.000852e-13
1.714614e-11
2.012892e-11
1.254144e-11
1.861687e-13
3.627279e-13
5.062371e-13
4.291963e-13
4.607391e-13
5.287953e-13
4.350160e-13
3.096835e-13
2.788371e-13
4.039873e-13
7.496209e-13
7.384875e-13
3.733527e-13
3.505269e-13
3.556439e-13
5.090006e-13
2.626184e-13
2.615474e-13
5.506733e-13
3.214613e-13
3.547307e-13
4.588380e-13
3.941104e-13
4.301126e-13
2.716118e-13
6.217960e-13
3.664651e-13
1.823307e-13
3.438319e-13
1.383078e-13
1.673481e-13
1.540312e-13
1.084634e-13
2.220832e-11
3.260036e-13
2.667519e-13
2.290557e-13
3.352030e-13
2.259242e-13
5.188162e-13
4.443092e-13
3.253670e-13
3.175004e-13
3.631036e-13
2.081111e-13
1.916499e-13
3.757375e-13
4.910398e-13
3.061422e-13
4.015966e-13
3.531885e-13
2.498675e-13
4.747147e-13
2.601773e-13
3.027918e-13
3.303529e-13
3.359360e-13
5.671471e-13
4.003956e-13
3.467435e-13
1.415492e-13
1.711431e-13
2.404536e-13
5.807569e-13
3.490186e-13
2.257522e-13
2.416286e-13
1.663053e-13
2.487164e-13
1.798816e-13
1.610427e-13
1.923803e-13
2.377596e-13
2.562605e-13
6.058273e-13
5.830157e-13
7.122238e-13
7.115010e-13
3.348656e-13
2.914906e-13
6.411375e-13
6.612032e-13
5.180375e-13
5.485054e-13
3.522991e-13
2.979398e-13
6.738602e-13
3.074840e-13
2.703365e-13
3.697553e-13
3.342635e-13
2.261171e-13
2.281382e-13
2.673291e-13
4.070594e-13
5.505864e-13
8.241459e-13
1.056213e-12
7.323000e-13
3.826944e-13
3.499325e-13
5.100542e-13
3.923247e-13
5.532229e-13
6.245421e-13
5.494624e-13
7.409586e-13
8.048278e-13
4.742709e-13
1.114674e-12
4.750561e-13
1.025494e-12
4.978120e-13
7.591827e-13
5.057434e-13
6.311161e-13
2.624150e-13
3.337254e-13
3.996751e-13
4.066068e-13
5.063214e-13
4.776691e-13
6.529794e-13
7.578624e-13
2.685628e-13
2.899775e-13
3.306285e-13
3.441684e-13
3.790294e-13
4.900217e-13
6.007136e-13
5.271827e-13
5.938488e-13
5.467784e-13
4.268879e-13
3.710774e-13
4.163550e-13
8.951255e-13
4.915561e-13
3.136060e-13
7.887217e-13
6.779747e-13
7.856481e-13
5.286977e-13
7.711016e-13
7.036604e-13
7.099968e-13
7.855970e-13
3.263774e-13
4.320567e-13
2.745279e-13
2.466166e-13
5.130086e-13
6.707388e-13
6.548690e-13
5.235114e-13
1.225966e-12
6.849266e-13
4.493987e-13
6.956848e-13
9.236320e-13
1.050107e-12
3.860804e-13
9.903238e-13
8.165747e-13
5.157580e-13
6.651289e-13
2.955067e-13
5.462346e-13
6.301510e-13
3.363044e-13
4.946562e-13
3.071851e-13
6.067557e-13
4.849049e-13
5.300899e-13
3.438127e-13
4.311562e-13
9.242415e-13
4.182504e-13
3.520438e-13
4.360930e-13
4.317157e-13
5.780045e-13
5.843616e-13
4.684427e-13
4.202045e-13
4.495957e-13
1.015989e-12
1.379651e-12
4.721982e-13
3.793151e-13
6.704596e-13
4.672641e-13
4.622291e-13
6.015311e-13
2.816201e-13
3.440569e-13
3.935548e-13
3.767755e-13
6.182238e-13
6.710850e-13
5.895491e-13
7.968768e-13
4.099323e-13
5.466010e-13
1.405132e-13
2.058503e-13
4.847577e-13
2.193663e-13
1.000000e-13
1.485723e-13
2.032386e-13
3.698521e-13
5.055080e-13
3.325819e-13
3.033265e-13
4.122122e-13
1.875003e-11
1.884916e-11
1.866836e-11
1.627367e-11
5.912444e-13
4.125702e-13
3.345005e-13
3.370826e-13
3.680200e-13
3.956067e-13
8.382613e-13
4.643422e-13
5.515350e-13
3.144052e-13
2.743196e-13
3.509961e-13
2.272727e-13
2.941168e-13
4.548242e-13
1.851954e-13
4.740585e-13
9.670543e-13
1.738009e-11
1.801307e-11
4.137582e-13
3.089225e-13
4.315017e-13
6.851590e-13
5.431962e-13
4.231722e-13
2.702445e-11
4.683867e-13
2.685845e-13
2.905170e-13
2.406426e-11
2.576166e-11
3.093161e-11
2.442672e-13
5.083218e-13
2.909078e-13
2.744039e-13
4.681452e-13
4.529077e-13
3.247212e-13
4.200513e-13
1.769786e-13
2.062548e-13
3.843847e-13
2.544638e-13
3.260952e-13
3.969799e-13
4.826829e-13
3.351706e-13
3.189670e-13
3.168861e-13
1.960338e-13
2.189397e-13
3.018634e-13
5.677195e-13
2.647459e-13
3.059473e-13
4.269760e-13
2.538767e-13
2.067057e-13
4.755539e-13
7.950176e-13
4.524871e-13
2.658539e-13
3.822813e-13
2.009622e-13
3.326056e-13
7.875338e-13
3.659525e-13
2.158745e-13
3.460039e-13
4.681499e-13
3.269257e-13
3.432013e-13
4.541048e-13
4.769054e-13
3.371220e-13
2.609735e-13
4.794419e-13
4.386106e-13
5.593361e-13
5.718491e-13
3.242942e-13
3.582428e-13
2.393662e-13
4.081275e-13
5.487607e-13
2.601873e-13
1.745450e-13
1.949124e-13
2.963806e-13
2.237609e-13
2.380246e-13
3.765896e-13
2.357569e-13
5.225669e-13
9.004457e-13
4.396167e-13
4.537232e-13
5.591500e-13
2.727142e-13
2.147863e-13
3.934846e-13
5.356217e-13
4.239222e-13
5.550959e-13
6.799430e-13
3.285100e-13
2.884168e-13
5.520843e-13
4.755939e-13
3.812919e-13
2.611957e-13
2.781161e-13
1.910698e-13
2.761846e-13
3.057806e-13
3.377978e-13
4.418087e-13
5.004908e-13
6.979346e-13
5.432721e-13
2.863031e-13
3.228742e-13
4.524724e-13
1.793491e-13
2.395786e-13
3.206772e-13
5.143284e-13
7.158787e-13
3.354626e-13
6.027093e-13
5.525369e-13
6.337248e-13
5.151000e-13
3.953595e-13
6.394570e-13
5.075535e-13
3.899306e-13
3.839392e-13
9.158123e-13
6.160975e-13
4.077658e-13
3.252357e-13
4.643021e-13
4.885341e-13
4.914673e-13
5.058299e-13
7.029810e-13
7.263130e-13
9.751969e-13
6.342422e-13
3.694456e-13
3.931199e-13
4.795392e-13
5.635568e-13
1.047961e-12
6.902626e-13
3.742415e-13
3.538666e-13
9.824075e-13
7.455628e-13
9.668283e-13
6.618973e-13
6.808639e-13
2.243766e-13
4.885827e-13
6.390742e-13
3.721245e-13
6.218242e-13
4.960312e-13
5.399223e-13
1.865948e-13
3.512762e-13
3.202221e-13
2.309029e-13
5.042937e-13
4.014583e-13
2.585298e-13
4.409820e-13
7.906055e-13
2.851016e-13
5.258286e-13
4.368398e-13
6.844856e-13
6.414241e-13
5.212986e-13
4.874161e-13
4.173095e-13
2.593477e-13
6.054743e-13
4.863448e-13
4.390360e-13
4.012557e-13
4.186165e-13
3.663961e-13
7.003215e-13
5.972533e-13
8.141674e-13
3.751837e-13
7.699599e-13
4.637673e-13
4.514533e-13
3.221250e-13
2.810242e-13
2.387696e-13
1.810572e-13
3.054144e-13
1.000000e-13
2.589619e-13
2.755011e-13
2.665211e-13
4.030284e-13
6.561090e-13
3.677324e-13
2.181999e-13
4.592810e-13
2.022353e-11
2.859922e-11
2.340190e-11
2.096575e-11
5.573329e-13
7.077287e-13
9.407605e-13
1.107906e-12
6.925613e-13
3.777804e-13
7.838514e-13
4.039605e-13
5.285731e-13
6.308748e-13
3.370365e-11
3.221140e-11
3.444297e-13
1.051049e-11
7.739576e-12
1.077945e-11
1.212089e-11
1.537250e-11
2.225548e-11
1.523768e-11
2.099032e-11
6.894547e-13
7.030979e-13
5.250402e-13
2.346890e-11
2.057234e-11
2.147730e-11
2.619634e-11
3.199460e-11
3.299804e-11
2.832295e-11
3.154504e-11
2.540381e-11
3.410624e-13
5.753874e-13
4.764927e-13
3.677340e-13
4.052998e-13
5.895793e-13
4.574322e-13
4.059835e-13
1.696323e-13
3.498796e-13
2.747266e-13
4.846294e-13
7.971359e-13
3.767414e-13
9.841198e-13
1.023597e-12
4.186300e-13
3.962107e-13
5.132210e-13
2.794300e-13
3.602614e-13
2.576196e-13
3.044597e-13
4.844921e-13
3.299372e-13
3.780380e-13
5.081372e-13
3.940987e-13
3.058152e-13
2.374490e-13
4.255597e-13
4.696896e-13
4.575067e-13
4.935301e-13
4.387948e-13
3.068575e-13
3.120511e-13
4.134153e-13
4.288733e-13
3.488646e-13
2.533112e-13
6.509429e-13
4.711602e-13
4.662998e-13
4.261196e-13
3.541186e-13
4.472575e-13
3.607437e-13
3.564774e-13
3.580095e-13
3.131433e-13
4.480926e-13
4.600150e-13
7.787471e-13
2.392179e-13
2.266583e-13
3.499632e-13
3.209961e-13
3.365575e-13
4.241173e-13
3.357849e-13
4.024832e-13
7.815208e-13
6.878563e-13
4.952250e-13
3.388082e-13
3.895378e-13
2.611533e-13
3.553515e-13
5.446716e-13
4.555832e-13
5.478069e-13
3.232262e-13
1.345506e-13
3.034805e-13
4.216910e-13
5.704258e-13
4.455414e-13
4.034736e-13
3.224212e-13
3.588145e-13
1.818235e-13
2.349966e-13
4.686852e-13
4.310406e-13
3.162994e-13
4.921230e-13
5.799567e-13
6.074329e-13
6.771137e-13
3.937684e-13
5.447311e-13
2.599212e-13
1.861299e-13
4.146754e-13
5.605046e-13
2.376044e-13
2.986683e-13
4.117269e-13
4.465880e-13
2.900929e-13
3.668935e-13
4.652106e-13
4.420063e-13
4.102943e-13
5.780204e-13
4.432643e-13
8.499748e-13
5.764016e-13
4.059104e-13
7.444852e-13
5.095466e-13
7.689811e-13
4.752484e-13
4.631807e-13
6.579441e-13
3.072578e-13
3.719119e-13
4.726941e-13
5.026406e-13
5.105153e-13
4.931704e-13
1.994467e-12
7.435583e-13
5.067437e-13
6.487112e-13
6.270621e-13
4.141281e-13
5.355266e-13
4.296808e-13
5.435172e-13
3.276030e-13
6.062192e-13
5.837500e-13
7.997317e-13
5.370052e-13
4.543985e-13
3.646222e-13
5.061770e-13
4.483063e-13
2.778791e-13
3.234417e-13
4.579803e-13
1.172124e-12
3.187303e-13
2.044555e-13
3.610418e-13
2.636665e-13
6.754540e-13
2.412276e-13
6.376762e-13
7.619772e-13
1.047106e-12
4.811983e-13
2.634198e-13
2.439483e-13
4.072554e-13
3.261887e-13
3.508823e-13
2.710084e-13
2.191312e-13
2.813688e-13
3.980502e-13
7.655714e-13
1.448451e-12
4.993303e-13
9.395773e-13
5.705016e-13
7.458390e-13
9.903612e-13
4.800998e-13
4.005558e-13
2.365368e-13
3.645462e-13
1.000000e-13
1.449765e-13
1.660579e-13
2.732844e-13
2.534567e-13
5.669735e-13
6.121092e-13
5.914364e-13
7.654988e-13
1.626859e-11
2.057065e-11
2.189005e-11
1.937029e-11
2.551361e-11
1.854706e-11
8.996292e-13
6.706423e-13
6.833180e-13
6.346798e-13
1.948687e-11
2.071074e-11
2.211547e-11
2.579242e-11
2.676574e-11
2.199562e-11
1.688050e-11
1.123615e-11
1.450498e-11
1.307638e-11
1.813968e-11
1.433999e-11
1.436278e-11
1.562408e-11
1.081172e-11
6.816965e-13
2.261100e-11
3.403783e-11
2.619270e-11
2.899931e-11
2.300726e-11
2.517865e-11
2.156102e-11
5.646252e-13
2.898877e-11
2.607240e-11
2.307088e-11
2.123636e-11
5.202928e-13
6.795818e-13
1.223825e-12
6.754156e-13
5.516076e-13
4.783733e-13
7.104166e-13
5.143346e-13
3.654936e-13
1.601302e-13
5.970586e-13
5.135108e-13
2.661829e-13
5.929051e-13
4.901899e-13
2.187700e-13
2.414876e-13
3.125139e-13
4.201601e-13
2.999954e-13
3.214879e-13
3.769102e-13
4.257526e-13
5.739227e-13
2.988401e-13
6.649967e-13
1.060046e-12
3.328750e-13
3.184952e-13
2.710726e-13
4.906283e-13
4.161170e-13
5.067543e-13
5.835346e-13
5.903289e-13
7.406993e-13
2.163441e-13
2.937658e-13
2.731432e-13
4.273955e-13
4.688355e-13
3.305018e-13
3.446750e-13
2.504405e-13
4.356408e-13
5.580493e-13
7.678310e-13
5.401500e-13
4.071728e-13
4.362210e-13
3.560160e-13
3.254738e-13
4.369535e-13
4.264783e-13
2.944202e-13
3.752132e-13
3.290796e-13
7.338021e-13
6.182084e-13
4.789867e-13
9.678455e-13
6.987423e-13
4.852637e-13
2.349680e-13
2.150406e-13
2.868560e-13
3.942754e-13
4.600556e-13
6.572529e-13
3.507973e-13
4.168197e-13
1.621809e-13
2.818869e-13
1.379415e-13
4.336828e-13
8.043539e-13
5.149598e-13
3.692151e-13
4.097380e-13
5.669407e-13
4.566916e-13
3.746334e-13
3.656853e-13
4.472761e-13
5.840581e-13
9.849459e-13
4.933165e-13
4.008231e-13
3.003869e-13
3.366723e-13
3.651470e-13
2.584792e-13
4.451415e-13
4.889181e-13
6.883425e-13
4.770387e-13
9.497823e-13
4.497851e-13
4.167111e-13
6.750745e-13
5.767005e-13
8.616984e-13
5.922259e-13
5.121353e-13
6.978194e-13
1.165991e-12
6.216266e-13
6.676182e-13
3.538599e-13
7.544598e-13
5.729961e-13
5.339316e-13
3.606519e-13
3.795683e-13
5.184955e-13
3.925875e-13
7.018823e-13
5.924759e-13
4.662141e-13
5.440761e-13
8.672431e-13
5.995253e-13
6.140994e-13
5.939464e-13
5.027800e-13
5.368695e-13
2.634148e-13
2.362440e-13
1.975424e-13
3.090368e-13
5.120492e-13
1.836006e-13
6.884520e-13
5.703491e-13
1.034093e-12
1.279682e-12
4.784834e-13
3.610648e-13
3.223320e-13
5.575542e-13
2.580689e-13
2.564472e-13
4.322160e-13
3.243394e-13
1.953248e-13
1.871931e-13
3.625407e-13
2.543372e-13
3.783447e-13
7.422286e-13
6.620192e-13
4.180935e-13
3.476600e-13
2.222029e-13
3.289263e-13
4.849874e-13
3.440552e-13
4.673986e-13
1.783804e-13
2.317624e-13
3.007341e-13
3.059960e-13
2.674985e-13
4.650046e-13
3.276123e-13
2.845420e-13
1.657107e-13
3.346018e-13
5.838560e-13
6.688964e-13
5.083983e-13
6.530104e-13
3.416824e-13
1.000000e-13
2.864315e-13
3.840903e-13
3.548664e-13
3.802011e-13
3.854000e-13
6.372656e-13
6.316718e-13
8.094608e-13
7.430502e-13
1.797353e-11
1.829296e-11
2.351442e-11
1.882537e-11
1.539455e-11
9.294543e-13
4.608487e-13
7.215979e-13
4.668695e-13
3.062634e-11
2.120013e-11
1.586710e-11
2.049564e-11
1.464179e-11
1.222683e-11
1.233488e-11
1.118609e-11
8.566230e-12
8.241092e-12
6.713855e-12
7.343520e-12
8.166774e-12
9.971029e-12
1.029145e-11
1.347592e-11
2.334598e-11
1.704924e-11
2.417053e-11
2.560296e-11
2.604294e-11
2.762164e-11
2.901669e-13
3.332969e-13
2.034496e-13
3.112022e-13
3.935298e-11
3.095511e-11
4.276386e-13
5.366732e-13
9.082957e-13
1.215759e-12
8.333581e-13
7.626915e-13
5.969336e-13
6.604061e-13
8.258377e-13
2.570343e-13
4.119090e-13
2.347472e-13
5.435365e-13
4.977054e-13
3.663624e-13
3.404181e-13
2.699447e-13
3.552161e-13
3.646965e-13
3.584561e-13
1.646316e-13
3.851773e-13
4.598716e-13
5.115119e-13
3.766221e-13
4.989900e-13
5.900648e-13
4.064146e-13
3.055203e-13
4.014169e-13
9.764917e-13
6.805722e-13
1.172798e-12
6.906756e-13
5.396683e-13
2.967973e-13
2.547605e-13
6.375115e-13
5.299281e-13
4.392922e-13
6.043918e-13
3.800587e-13
5.064194e-13
3.912885e-13
3.330133e-13
4.212641e-13
6.691200e-13
3.086034e-13
2.939842e-13
5.024927e-13
3.546520e-13
5.829464e-13
3.039440e-13
4.918615e-13
6.746613e-13
3.326948e-13
2.292096e-13
3.159276e-13
3.585668e-13
3.754576e-13
3.169909e-13
2.885045e-13
4.884104e-13
2.610434e-13
3.560526e-13
3.713017e-13
5.302180e-13
4.532427e-13
3.820807e-13
5.195160e-13
3.867787e-13
1.877774e-13
2.123924e-13
2.659587e-13
4.532171e-13
8.538688e-13
9.327638e-13
4.847175e-13
4.188621e-13
3.835082e-13
2.074150e-13
3.658141e-13
1.560597e-13
6.527838e-12
3.081188e-13
7.137110e-13
6.868903e-13
5.433077e-13
5.182952e-13
3.487173e-13
3.084688e-13
3.401617e-13
4.545647e-13
5.909894e-13
3.421920e-13
2.298889e-13
1.600594e-13
4.130830e-13
4.046287e-13
6.576286e-13
7.586160e-13
5.917745e-13
7.569462e-13
1.067582e-12
8.744422e-13
6.919141e-13
5.062318e-13
9.059396e-13
5.292850e-13
3.810554e-13
3.292680e-13
5.133732e-13
4.940735e-13
3.544508e-13
4.707248e-13
7.202631e-13
1.283483e-12
8.555531e-13
6.153640e-13
8.310482e-13
1.633711e-12
7.374701e-13
6.908057e-13
9.417704e-13
4.111939e-13
2.794368e-13
1.865019e-13
1.375740e-13
3.003057e-13
7.137845e-13
5.167280e-13
7.483565e-13
5.330692e-13
4.938112e-13
4.827401e-13
9.153714e-13
4.823687e-13
4.945432e-13
3.920042e-13
3.961701e-13
3.566305e-13
2.393914e-13
1.895770e-13
6.960329e-14
2.237915e-13
1.990504e-13
1.388549e-13
4.131764e-13
6.879129e-13
3.745710e-13
6.884012e-13
4.446189e-13
5.970050e-13
4.280520e-13
3.295558e-13
2.212854e-13
2.158233e-13
3.627605e-13
5.044208e-13
2.801625e-13
4.079613e-13
4.165820e-13
2.566976e-13
2.678080e-13
3.977545e-13
3.640462e-13
1.696936e-13
4.827379e-13
5.656062e-13
4.532962e-13
4.999212e-13
3.611024e-13
3.166318e-13
1.000000e-13
4.326160e-13
7.813280e-13
3.100571e-13
4.728070e-13
4.832634e-13
7.250027e-13
5.721503e-13
5.382547e-13
5.923084e-13
4.243562e-13
2.908376e-11
2.387942e-11
2.707559e-11
3.322560e-11
3.038523e-11
3.365498e-11
4.362299e-11
3.797914e-11
2.800203e-11
2.494300e-11
2.107460e-11
1.387591e-11
2.057885e-11
2.488694e-11
1.335900e-11
1.632001e-11
1.214285e-11
1.052348e-11
1.212305e-11
1.137074e-11
1.278115e-11
1.319391e-11
1.932169e-11
2.038556e-11
1.919598e-11
1.973704e-11
1.721153e-11
1.814832e-11
2.006481e-11
2.126311e-11
5.352826e-13
2.465009e-13
5.248190e-13
3.532205e-13
2.233819e-13
2.935644e-13
6.173569e-13
6.577778e-13
4.355806e-13
9.153027e-13
9.814913e-13
3.958174e-13
3.744820e-13
6.811060e-13
4.286024e-13
3.259849e-13
6.351828e-13
3.971145e-13
4.397990e-13
2.126666e-13
3.291240e-13
2.957807e-13
3.227965e-13
2.420039e-13
3.355581e-13
2.604004e-13
3.730877e-13
6.365770e-13
4.106378e-13
4.935988e-13
2.195229e-13
2.417860e-13
4.105797e-13
5.137890e-13
2.301775e-13
2.063872e-13
3.858898e-13
1.929907e-12
6.161824e-13
6.359971e-13
6.333368e-13
6.810487e-13
4.074219e-13
6.226750e-13
4.273009e-13
1.682940e-13
3.573881e-13
3.843772e-13
7.252350e-13
6.440633e-13
4.678182e-13
1.317341e-12
3.889099e-13
2.135516e-13
1.921534e-13
3.615244e-13
1.395932e-12
7.284215e-13
7.114306e-13
4.727010e-13
5.462279e-13
2.578228e-13
2.963150e-13
5.816542e-13
3.540094e-13
3.978237e-13
4.226472e-13
3.878231e-13
5.969344e-13
2.325046e-13
2.244709e-13
4.024988e-13
6.925487e-13
6.080270e-13
4.602036e-13
4.585143e-13
3.022063e-13
3.684349e-13
3.751245e-13
3.288283e-13
3.441074e-13
1.781341e-13
3.308854e-13
3.562809e-13
2.307211e-13
2.721661e-13
2.613654e-13
2.439019e-13
5.818535e-12
4.758650e-12
3.315796e-13
5.847899e-13
4.241027e-13
2.864093e-13
2.035497e-13
3.982793e-13
2.818101e-13
6.511761e-13
5.944015e-13
4.273758e-13
3.128298e-13
9.409863e-14
2.013305e-13
2.522459e-13
3.175237e-13
4.819565e-13
4.586942e-13
3.101709e-13
3.499717e-13
4.198496e-13
4.575344e-13
6.255418e-13
5.394092e-13
6.292196e-13
2.563577e-13
3.570727e-13
3.570096e-13
2.670577e-13
9.858857e-13
7.144424e-13
4.154509e-13
5.463109e-13
5.537438e-13
8.284758e-13
4.913282e-13
3.931331e-13
5.523412e-13
6.097376e-13
4.568627e-13
7.744046e-13
6.498073e-13
2.178241e-13
1.900725e-13
3.978742e-13
2.183923e-13
2.828386e-13
4.311874e-13
6.723838e-13
5.541769e-13
4.534958e-13
4.918681e-13
4.113431e-13
1.919560e-13
2.701479e-13
2.382554e-13
5.999657e-13
2.707085e-13
2.156151e-13
1.197786e-13
2.419294e-13
1.433471e-13
1.422841e-13
1.107912e-13
3.357867e-13
6.930797e-13
3.291480e-13
1.025293e-12
4.884446e-13
2.592494e-13
1.833515e-13
3.299979e-13
1.952883e-13
2.545696e-13
2.395926e-13
2.372511e-13
3.449549e-13
4.364960e-13
4.590081e-13
3.165774e-13
2.815047e-13
2.952111e-13
3.699869e-13
2.245377e-13
3.324452e-13
2.907407e-13
2.046957e-13
2.735455e-13
1.404684e-13
3.273799e-13
1.000000e-13
3.288190e-13
2.580588e-13
5.334386e-13
4.275466e-13
5.020561e-13
6.630430e-13
4.733516e-13
4.357152e-13
6.428247e-13
4.640555e-13
4.076582e-13
2.415647e-11
3.253829e-11
4.189880e-11
4.244295e-11
5.064962e-11
3.368560e-11
2.859289e-11
3.560218e-11
3.960478e-11
3.288901e-11
1.686305e-11
1.737423e-11
1.686561e-11
1.936816e-11
1.695915e-11
1.329107e-11
1.325051e-11
9.388280e-12
1.656444e-11
1.951593e-11
1.817102e-11
2.271617e-11
2.711434e-11
1.832234e-11
1.722337e-11
2.361191e-11
1.587321e-11
3.220263e-13
5.384386e-13
6.361811e-13
3.444941e-13
4.023723e-13
4.585911e-13
5.045119e-13
3.551927e-13
6.102279e-13
4.688117e-12
4.577456e-12
6.096086e-13
9.044038e-13
5.261996e-13
8.997244e-13
1.115405e-12
1.263748e-12
4.437991e-13
6.876767e-13
4.873009e-13
3.198332e-13
2.323332e-13
1.963816e-13
2.036292e-13
1.757757e-13
1.944842e-13
2.391003e-13
5.536959e-13
2.023188e-13
4.355139e-13
2.192911e-13
3.406124e-13
4.937491e-13
1.024658e-11
4.284884e-13
4.992294e-13
4.600293e-13
2.992607e-13
3.377496e-13
4.512612e-13
3.202929e-13
3.757717e-13
7.065474e-13
3.562543e-13
3.637107e-13
3.811729e-13
3.869642e-13
4.326005e-13
5.604797e-13
6.096524e-13
5.117770e-13
4.716761e-13
6.671541e-13
4.774120e-13
3.283897e-13
3.411242e-13
2.900842e-13
3.743837e-13
3.122252e-13
7.416885e-13
2.325278e-13
3.860624e-13
3.340824e-13
4.210766e-13
4.807126e-13
3.449757e-13
2.757175e-13
6.164125e-13
7.227102e-13
3.806553e-13
3.257922e-13
3.318082e-13
3.262410e-13
3.236003e-13
6.102618e-13
7.344412e-13
4.572216e-13
4.805660e-13
4.112464e-13
2.447948e-13
2.548198e-13
3.061604e-13
2.703866e-13
1.851993e-13
2.534774e-13
2.773742e-13
2.606884e-13
2.639646e-13
2.504458e-13
2.942002e-13
7.789365e-12
6.072525e-12
2.386236e-13
5.361952e-13
2.582995e-13
3.420410e-13
4.567482e-13
4.444379e-13
4.661050e-13
3.806797e-13
4.663925e-13
2.998036e-13
2.330150e-13
1.355584e-13
2.880172e-13
4.420063e-13
2.961370e-13
3.922086e-13
3.645979e-13
2.904584e-13
3.534343e-13
3.654275e-13
2.540165e-13
4.241850e-13
3.345403e-13
3.324980e-13
2.378470e-13
4.486976e-13
2.578761e-13
2.719696e-13
3.478990e-13
4.361673e-13
3.005990e-13
4.002282e-13
2.505327e-13
3.291388e-13
4.652741e-13
3.754965e-13
2.804698e-13
4.624913e-13
4.774132e-13
4.295098e-13
8.527122e-13
4.505171e-13
2.563603e-13
2.915922e-13
3.755198e-13
2.880084e-13
3.177423e-13
9.081573e-13
1.077820e-12
4.464365e-13
3.301746e-13
5.406070e-13
5.369945e-13
1.982196e-13
4.878832e-13
3.959190e-13
2.685123e-13
4.199181e-13
2.820361e-13
2.429608e-13
3.212555e-13
1.668613e-13
4.041740e-13
5.106842e-13
6.933128e-13
1.101956e-12
8.959854e-13
7.149449e-13
8.492165e-13
3.043738e-13
2.533866e-13
2.805289e-13
2.980954e-13
3.249035e-13
2.962260e-13
4.596458e-13
6.021790e-13
8.796024e-13
5.638867e-13
4.021519e-13
2.635259e-13
2.867699e-13
2.096440e-13
4.075953e-13
5.299797e-13
3.864597e-13
1.963418e-13
1.783353e-13
1.399689e-13
1.000000e-13
4.668953e-13
5.253075e-13
3.519659e-13
4.302233e-13
4.854675e-13
6.089560e-13
1.063993e-12
5.536819e-13
4.672091e-13
7.077130e-13
4.287097e-13
5.001622e-13
2.599581e-11
3.017525e-11
2.529256e-11
3.016133e-11
2.634287e-11
2.423805e-11
2.200011e-11
3.174384e-11
2.530257e-11
2.132527e-11
2.441362e-11
2.158971e-11
2.079458e-11
2.463007e-11
3.194985e-11
2.255342e-11
1.829825e-11
1.692203e-11
1.605298e-11
2.066230e-11
3.187984e-11
2.528060e-11
1.904896e-11
1.537571e-11
2.255046e-13
1.424326e-13
2.078055e-13
4.430888e-13
4.216202e-13
3.205664e-13
4.162313e-13
4.767777e-13
6.804460e-13
6.098915e-13
4.902548e-13
5.867406e-13
7.392573e-13
4.667582e-13
6.688253e-13
7.676141e-13
6.210987e-13
1.131397e-12
4.405440e-13
4.591757e-13
4.740011e-13
4.216897e-13
2.822302e-13
2.621618e-13
2.645595e-13
2.732491e-13
1.248608e-13
1.504514e-13
1.561085e-13
1.678686e-13
2.854865e-13
2.052775e-13
4.283823e-13
3.975134e-13
1.166975e-11
1.005327e-11
8.176007e-12
6.269236e-12
4.608951e-13
2.136716e-13
4.636290e-13
3.636848e-13
3.424166e-13
3.769535e-13
2.951558e-13
3.517882e-13
4.828164e-13
2.777386e-13
1.120164e-12
5.550006e-13
3.398802e-13
9.537000e-13
7.887300e-13
5.810090e-13
3.247795e-13
5.752036e-13
3.747270e-13
1.853828e-13
3.939701e-13
2.785618e-13
3.871392e-13
4.015039e-13
4.364973e-13
3.942549e-13
3.624055e-13
4.509267e-13
2.595668e-13
3.181711e-13
6.110875e-13
5.717439e-13
7.989765e-13
6.266216e-13
4.541594e-13
3.323704e-13
1.955032e-13
3.433831e-13
2.805153e-13
3.834023e-13
1.031761e-12
9.601345e-13
6.105873e-13
3.348945e-13
3.464517e-13
2.390555e-13
6.098286e-13
4.340900e-13
3.387886e-13
3.443287e-13
7.455615e-13
3.864102e-13
4.754498e-13
5.394995e-13
4.615476e-12
4.386121e-12
4.736667e-13
2.981080e-13
4.718263e-13
3.001184e-13
3.046640e-13
2.389939e-13
3.555303e-13
2.453156e-13
4.228965e-13
5.987940e-13
3.667508e-13
4.181557e-13
3.250237e-13
1.639788e-13
2.641098e-13
1.581024e-13
1.826373e-13
5.788436e-13
3.831009e-13
5.366771e-13
6.056596e-13
4.357395e-13
2.745723e-13
1.447667e-13
4.031944e-13
4.180949e-13
2.691877e-13
3.443270e-13
4.432042e-13
2.562605e-13
2.866018e-13
3.569780e-13
3.977660e-13
2.418577e-13
2.301363e-13
3.174985e-13
6.189496e-13
5.788162e-13
4.785503e-13
4.301894e-13
5.784530e-13
5.549931e-13
4.912416e-13
4.126610e-13
3.528344e-13
4.198442e-13
6.269296e-13
6.667728e-13
6.941868e-13
3.341820e-13
3.730799e-13
6.225977e-13
2.681484e-13
3.399439e-13
3.306065e-13
2.080407e-13
2.538042e-13
2.673969e-13
4.877084e-13
5.028151e-13
3.486231e-13
3.820715e-13
6.341620e-13
6.981531e-13
6.305859e-13
5.471415e-13
1.197691e-12
8.844458e-13
4.731894e-13
4.646476e-13
4.623418e-13
3.311201e-13
3.525205e-13
2.747570e-13
2.924082e-13
2.200261e-13
5.683219e-13
6.043994e-13
7.002918e-13
5.870224e-13
5.043774e-13
5.054055e-13
2.393047e-13
4.999865e-13
6.689529e-13
2.811625e-13
2.894650e-13
3.815723e-13
3.149750e-13
1.000000e-13
4.326574e-13
8.950232e-13
5.704041e-13
5.859371e-13
3.739617e-13
4.470642e-13
4.646641e-13
1.039520e-12
8.516611e-13
9.764201e-13
4.822688e-13
4.758191e-13
3.881868e-13
9.299073e-12
9.533334e-12
1.124323e-11
1.085702e-11
1.008062e-11
1.284685e-11
2.233770e-11
3.023702e-11
2.158820e-11
2.326801e-11
2.110694e-11
1.873424e-11
1.965197e-11
1.770016e-11
1.716359e-11
2.084071e-11
1.831151e-11
1.344911e-11
1.533979e-11
1.599053e-11
1.658287e-11
4.762086e-13
3.265733e-13
2.554760e-13
3.494563e-13
4.407296e-13
3.167793e-13
3.972085e-13
4.213779e-13
2.535656e-13
4.964359e-13
3.184682e-13
7.540553e-13
1.005220e-12
6.082943e-13
6.118771e-13
3.646448e-13
9.398081e-13
4.243721e-13
2.575027e-13
5.427391e-13
2.724238e-13
2.623381e-13
4.681557e-13
4.359138e-13
5.820394e-13
2.941574e-13
2.353743e-13
4.992391e-13
2.622562e-13
2.999579e-13
4.111718e-13
8.811958e-13
7.101257e-13
3.897557e-13
6.301185e-13
1.370392e-11
1.747340e-11
1.329353e-11
1.283718e-11
1.178128e-11
9.429554e-12
2.783138e-13
2.147702e-13
8.111344e-13
4.609201e-13
2.999475e-13
3.050844e-13
4.733091e-13
4.418792e-13
4.587145e-13
1.123802e-12
6.566110e-13
6.199618e-13
6.417237e-13
3.593536e-13
4.124628e-13
5.175493e-13
5.012273e-13
4.202179e-13
4.039011e-13
3.678874e-13
4.009274e-13
4.118124e-13
3.770030e-13
4.992391e-13
2.425737e-13
4.276898e-13
8.391630e-13
1.026821e-12
4.030511e-13
4.195050e-13
2.391395e-13
3.935885e-13
4.068465e-13
5.839164e-13
2.589796e-13
1.730941e-13
2.102014e-13
2.044761e-13
3.180785e-13
7.184261e-13
6.431551e-13
5.303628e-13
3.827020e-13
4.291179e-13
7.209592e-13
5.256269e-13
8.178582e-13
5.180784e-13
3.722252e-13
4.668930e-13
2.558815e-13
3.149222e-13
1.009358e-11
8.589746e-12
8.368802e-12
6.871555e-12
4.260813e-13
4.604887e-13
3.722866e-13
4.709727e-13
3.382491e-13
2.746776e-13
3.133521e-13
3.146873e-13
3.173359e-13
5.572706e-13
5.861462e-13
5.677949e-13
3.530806e-13
2.517202e-13
3.211830e-13
2.560096e-13
3.321077e-13
6.094347e-13
4.985956e-13
4.940267e-13
4.896861e-13
2.206429e-13
3.555921e-13
6.864353e-13
3.531110e-13
2.119637e-13
3.623371e-13
5.618190e-13
2.637823e-13
3.851141e-13
4.738334e-13
2.415899e-13
2.937551e-13
6.136295e-13
7.165549e-13
5.110113e-13
8.656895e-13
7.281307e-13
3.622181e-13
2.840659e-13
5.096385e-13
5.034622e-13
2.710132e-13
1.208269e-13
6.170507e-13
5.083323e-13
7.604448e-13
7.526572e-13
3.561310e-13
5.809825e-13
7.000500e-13
6.070645e-13
3.062599e-13
1.945025e-13
2.056868e-13
3.164724e-13
3.424605e-13
3.514289e-13
2.705369e-13
3.167638e-13
3.553833e-13
3.336274e-13
8.574045e-13
8.225096e-13
5.064742e-13
5.837343e-13
6.888086e-13
9.204620e-13
8.442423e-13
5.954053e-13
3.795775e-13
8.034253e-13
5.628550e-13
4.065745e-13
5.400124e-13
9.603474e-13
7.435449e-13
2.885878e-13
5.898143e-13
5.467936e-13
2.073544e-13
3.766918e-13
5.051551e-13
4.745175e-13
2.886799e-13
1.464817e-13
3.590570e-13
4.643599e-13
1.000000e-13
3.761119e-13
3.840828e-13
5.238050e-13
4.031376e-13
8.185570e-13
6.959954e-13
6.270142e-13
4.629132e-13
1.025288e-12
6.143166e-13
6.144886e-13
5.639746e-13
3.544558e-13
2.820496e-13
7.948600e-12
9.172557e-12
1.084144e-11
1.053507e-11
1.375890e-11
1.449123e-11
1.990229e-11
2.958825e-11
2.563530e-11
2.292976e-11
2.836328e-11
2.181157e-11
2.533270e-11
3.185972e-11
2.966324e-13
3.232867e-13
9.098583e-12
1.065356e-11
8.805925e-12
1.110448e-12
3.052658e-13
4.038841e-13
1.074402e-12
7.248059e-13
4.006859e-13
2.825504e-13
3.981958e-13
5.238342e-13
5.203051e-13
1.937752e-13
3.381172e-13
3.666225e-13
3.912974e-13
3.823543e-13
4.046273e-13
5.742618e-13
8.579079e-13
6.314593e-13
3.279614e-13
5.259409e-13
6.312894e-12
2.730796e-13
3.683679e-13
5.070963e-13
2.886054e-13
2.497432e-13
2.213906e-13
2.849992e-13
4.505392e-13
6.782254e-13
4.573985e-13
6.335682e-13
1.238101e-12
5.069037e-13
2.213331e-11
1.761580e-11
1.364652e-11
1.107632e-11
1.342807e-11
1.098791e-11
1.132048e-11
6.014913e-12
5.148268e-13
4.066334e-13
6.494470e-13
4.244199e-13
4.439217e-13
2.607885e-13
4.392123e-13
4.403089e-13
3.018407e-13
1.792105e-13
6.103651e-13
4.097449e-13
4.625375e-13
4.121281e-13
4.280061e-13
5.974376e-13
6.037336e-13
4.418779e-13
3.270263e-13
3.597619e-13
3.834462e-13
4.425040e-13
6.258033e-13
6.072991e-13
5.428691e-13
3.955020e-13
9.422074e-13
6.060858e-13
6.783384e-13
7.984672e-13
2.948235e-13
2.978179e-13
1.934065e-13
4.236657e-13
5.632010e-13
3.690784e-13
4.201964e-13
4.380704e-12
7.362257e-13
5.041898e-13
4.964553e-13
2.073341e-13
3.655758e-13
3.081993e-13
4.573492e-13
5.001140e-13
2.766807e-13
3.029544e-13
3.803877e-13
4.954831e-13
4.784142e-13
6.937081e-12
7.249775e-12
1.038655e-11
9.428293e-12
4.378639e-13
2.517595e-13
4.650517e-13
4.153540e-13
6.763951e-13
8.135017e-13
2.554709e-13
2.902518e-13
4.605555e-13
1.273220e-12
8.847220e-13
5.534614e-13
4.033290e-13
3.691483e-13
3.718001e-13
5.457856e-13
7.048000e-13
4.000406e-13
2.063939e-13
2.644932e-13
4.293962e-13
5.186569e-13
3.699806e-13
9.464320e-13
8.767503e-13
3.952228e-13
4.376104e-13
4.114688e-13
2.956172e-13
4.946301e-13
6.586711e-13
3.502273e-13
3.886155e-13
5.968630e-13
5.809588e-13
8.623887e-13
9.163498e-13
1.332014e-12
3.979867e-13
2.555762e-13
4.617909e-13
3.142091e-13
2.630763e-13
1.632857e-13
1.387639e-13
3.163285e-13
7.954572e-13
6.611191e-13
6.366294e-13
3.022063e-13
4.115295e-13
5.796290e-13
5.966001e-13
4.899502e-13
1.234204e-13
1.922427e-13
2.265833e-13
3.164919e-13
1.667181e-13
5.196352e-13
3.239475e-13
3.631345e-13
2.514135e-13
7.212976e-13
5.279648e-13
5.621677e-13
4.609868e-13
4.690067e-13
7.070818e-13
4.979165e-13
7.289252e-13
1.037598e-12
1.318441e-12
1.042677e-12
5.587025e-13
6.672343e-13
7.329025e-13
4.080660e-13
3.591625e-13
3.143150e-13
1.853204e-13
2.164302e-13
3.165521e-13
1.897019e-13
3.078248e-13
4.496116e-13
8.160876e-13
5.662380e-13
1.000000e-13
5.357196e-13
4.558177e-13
3.162858e-13
3.921630e-13
3.323704e-13
3.458585e-13
4.908489e-13
2.982928e-13
4.635782e-13
4.745898e-13
5.404299e-13
1.228832e-12
5.322603e-13
5.180191e-13
2.276284e-13
3.130349e-13
3.529390e-13
3.061503e-13
1.581699e-11
8.956110e-12
1.907581e-13
1.891558e-13
2.941792e-11
2.482753e-11
2.225433e-11
1.954853e-11
2.249961e-13
1.924286e-13
5.024842e-13
4.748694e-13
6.883835e-13
6.130203e-13
7.336870e-13
2.999350e-13
2.656635e-13
4.627414e-13
4.421609e-13
7.392573e-13
6.217371e-13
1.084927e-12
8.127193e-13
3.455883e-13
4.569037e-13
2.405092e-13
2.558148e-13
3.995689e-13
4.079264e-13
5.774365e-13
4.847923e-13
2.900581e-13
2.687168e-13
8.597554e-13
3.397757e-13
3.023260e-13
6.613903e-12
8.028956e-12