/*--------------------------------*- C++ -*----------------------------------*\
  =========                 |
  \\      /  F ield         | OpenFOAM: The Open Source CFD Toolbox
   \\    /   O peration     | Website:  https://openfoam.org
    \\  /    A nd           | Version:  9
     \\/     M anipulation  |
\*---------------------------------------------------------------------------*/
FoamFile
{
    format      ascii;
    class       volScalarField;
    location    "22100";
    object      kra;
}
// * * * * * * * * * * * * * * * * * * * * * * * * * * * * * * * * * * * * * //

dimensions      [0 0 0 0 0 0 0];

internalField   nonuniform List<scalar> 
1000
(
0.000236679
0.000237663
0.00023882
0.000240099
0.000241281
0.000242535
0.000243762
0.000245012
0.000246274
0.000247548
0.000248832
0.00025013
0.000251428
0.000252724
0.000254013
0.000255271
0.000256518
0.00025768
0.000258853
0.000259855
0.000260902
0.000261723
0.000262584
0.000263245
0.000263904
0.00026444
0.000264988
0.000265698
0.000267511
0.000273948
0.000302965
0.000509104
0.00081452
0.000878394
0.000896429
0.000904658
0.000909592
0.00091306
0.000915708
0.000917848
0.000919637
0.000921188
0.000922545
0.000923728
0.000924713
0.000925501
0.000926109
0.000926604
0.000927067
0.000927541
0.000928039
0.000928556
0.000928944
0.000929079
0.000929077
0.000929007
0.000928865
0.000928809
0.000928827
0.000929147
0.000930307
0.000931903
0.00093374
0.000935694
0.00093761
0.000939266
0.000940504
0.000941242
0.000941534
0.000941571
0.000941552
0.000941453
0.000940893
0.000939304
0.000937158
0.000934614
0.000931823
0.000928919
0.000926016
0.000923194
0.000920493
0.000917926
0.000915465
0.000913072
0.00091068
0.000908246
0.000905729
0.000903138
0.000900483
0.000897787
0.000895053
0.000892277
0.000889457
0.000886592
0.000883682
0.000880734
0.000877752
0.000874746
0.000871722
0.00086869
0.000865657
0.000862629
0.000859612
0.000856611
0.000853628
0.000850667
0.00084773
0.000844818
0.000841933
0.000839074
0.000836243
0.00083344
0.000830666
0.000827919
0.000825201
0.00082251
0.000819847
0.000817211
0.000814603
0.000812021
0.000809466
0.000806937
0.000804435
0.000801959
0.000799509
0.000797085
0.000794687
0.000792314
0.000789966
0.000787642
0.000785342
0.000783065
0.000780811
0.000778579
0.00077637
0.000774185
0.000772023
0.000769885
0.000767771
0.000765681
0.000763614
0.000761571
0.000759549
0.000757546
0.000755561
0.000753592
0.000751636
0.000749693
0.000747763
0.000745845
0.000743942
0.000742055
0.000740185
0.000738334
0.000736502
0.00073469
0.000732897
0.000731121
0.000729362
0.000727615
0.000725879
0.000724148
0.000722419
0.000720692
0.000718967
0.00071725
0.000715547
0.00071387
0.000712232
0.000710647
0.000709129
0.000707688
0.000706333
0.000705068
0.000703894
0.000702808
0.000701804
0.000700874
0.000700008
0.000699191
0.000698412
0.000697653
0.000696898
0.000696128
0.000695322
0.000694462
0.000693526
0.000692496
0.000691355
0.00069009
0.000688691
0.000687154
0.00068548
0.000683677
0.000681758
0.000679738
0.00067764
0.000675486
0.0006733
0.000671105
0.000668925
0.000666779
0.000664683
0.00066265
0.000660689
0.000658806
0.000657002
0.000655275
0.000653624
0.000652041
0.00065052
0.000649054
0.000647633
0.000646251
0.000644899
0.000643571
0.000642259
0.00064096
0.000639668
0.000638379
0.000637092
0.000635804
0.000634515
0.000633223
0.000631928
0.000630631
0.000629333
0.000628033
0.000626734
0.000625435
0.000624139
0.000622845
0.000621555
0.00062027
0.00061899
0.000617715
0.000616448
0.000615186
0.000613932
0.000612685
0.000611446
0.000610215
0.000608992
0.000607777
0.00060657
0.000605371
0.00060418
0.000602998
0.000601824
0.000600659
0.000599501
0.000598352
0.000597211
0.000596079
0.000594954
0.000593838
0.00059273
0.00059163
0.000590538
0.000589454
0.000588378
0.00058731
0.00058625
0.000585198
0.000584154
0.000583119
0.000582092
0.000581073
0.000580063
0.00057906
0.000578065
0.000577077
0.000576097
0.000575123
0.000574156
0.000573195
0.00057224
0.000571291
0.000570348
0.00056941
0.000568477
0.000567551
0.000566629
0.000565714
0.000564805
0.000563901
0.000563003
0.000562111
0.000561223
0.000560339
0.000559459
0.000558583
0.00055771
0.00055684
0.000555973
0.00055511
0.000554252
0.0005534
0.000552556
0.000551723
0.000550904
0.000550101
0.000549317
0.000548557
0.000547822
0.000547115
0.000546439
0.000545796
0.000545186
0.00054461
0.000544068
0.000543559
0.00054308
0.00054263
0.000542205
0.000541799
0.00054141
0.00054103
0.000540654
0.000540275
0.000539886
0.000539479
0.000539049
0.000538587
0.000538087
0.000537543
0.00053695
0.000536304
0.000535601
0.00053484
0.00053402
0.000533143
0.000532212
0.000531229
0.000530201
0.000529134
0.000528034
0.000526909
0.000525767
0.000524616
0.000523463
0.000522315
0.000521178
0.000520059
0.00051896
0.000517886
0.00051684
0.000515823
0.000514835
0.000513877
0.000512947
0.000512045
0.000511169
0.000510316
0.000509485
0.000508673
0.000507877
0.000507095
0.000506325
0.000505565
0.000504812
0.000504065
0.000503322
0.000502582
0.000501845
0.000501108
0.000500371
0.000499635
0.000498898
0.000498161
0.000497423
0.000496684
0.000495945
0.000495206
0.000494466
0.000493727
0.000492989
0.000492252
0.000491515
0.00049078
0.000490047
0.000489316
0.000488588
0.000487861
0.000487138
0.000486417
0.000485699
0.000484985
0.000484274
0.000483566
0.000482862
0.000482162
0.000481465
0.000480772
0.000480082
0.000479397
0.000478716
0.000478038
0.000477364
0.000476695
0.000476029
0.000475367
0.00047471
0.000474056
0.000473407
0.000472762
0.00047212
0.000471483
0.00047085
0.000470222
0.000469597
0.000468977
0.000468361
0.000467748
0.00046714
0.000466536
0.000465936
0.00046534
0.000464747
0.000464158
0.000463573
0.000462991
0.000462413
0.000461838
0.000461267
0.000460698
0.000460133
0.00045957
0.000459011
0.000458454
0.000457901
0.00045735
0.000456802
0.000456256
0.000455713
0.000455172
0.000454633
0.000454096
0.000453562
0.00045303
0.0004525
0.000451973
0.000451448
0.000450926
0.000450408
0.000449894
0.000449386
0.000448882
0.000448386
0.000447897
0.000447418
0.000446948
0.000446489
0.000446042
0.000445608
0.000445189
0.000444784
0.000444394
0.000444021
0.000443663
0.000443321
0.000442995
0.000442684
0.000442387
0.000442103
0.000441831
0.000441568
0.000441314
0.000441065
0.00044082
0.000440575
0.000440329
0.000440077
0.000439817
0.000439547
0.000439263
0.000438962
0.000438642
0.000438299
0.000437933
0.000437541
0.000437121
0.000436672
0.000436195
0.000435687
0.000435151
0.000434587
0.000433995
0.000433379
0.000432739
0.000432079
0.000431402
0.000430709
0.000430005
0.000429293
0.000428575
0.000427856
0.000427137
0.000426421
0.000425712
0.00042501
0.000424317
0.000423636
0.000422967
0.000422311
0.000421669
0.00042104
0.000420424
0.000419822
0.000419233
0.000418656
0.00041809
0.000417535
0.000416989
0.000416452
0.000415922
0.0004154
0.000414883
0.000414371
0.000413864
0.00041336
0.000412859
0.00041236
0.000411862
0.000411366
0.000410871
0.000410377
0.000409883
0.000409389
0.000408895
0.000408402
0.000407908
0.000407415
0.000406921
0.000406428
0.000405935
0.000405443
0.000404951
0.000404459
0.000403969
0.000403479
0.00040299
0.000402502
0.000402016
0.000401531
0.000401048
0.000400566
0.000400086
0.000399607
0.000399131
0.000398656
0.000398183
0.000397713
0.000397245
0.000396778
0.000396314
0.000395852
0.000395393
0.000394936
0.000394481
0.000394028
0.000393578
0.00039313
0.000392685
0.000392242
0.000391801
0.000391363
0.000390928
0.000390494
0.000390064
0.000389636
0.00038921
0.000388786
0.000388365
0.000387947
0.000387531
0.000387117
0.000386705
0.000386296
0.000385889
0.000385484
0.000385081
0.00038468
0.000384282
0.000383885
0.000383491
0.000383098
0.000382707
0.000382318
0.000381931
0.000381545
0.000381161
0.000380779
0.000380398
0.000380019
0.000379641
0.000379265
0.00037889
0.000378516
0.000378144
0.000377773
0.000377404
0.000377037
0.000376671
0.000376307
0.000375946
0.000375586
0.00037523
0.000374876
0.000374526
0.00037418
0.000373838
0.0003735
0.000373168
0.000372841
0.00037252
0.000372206
0.000371899
0.000371599
0.000371306
0.000371022
0.000370746
0.000370478
0.000370218
0.000369967
0.000369724
0.000369489
0.000369261
0.000369041
0.000368827
0.00036862
0.000368417
0.000368219
0.000368024
0.000367831
0.000367639
0.000367447
0.000367253
0.000367056
0.000366855
0.000366649
0.000366436
0.000366214
0.000365982
0.00036574
0.000365485
0.000365218
0.000364936
0.00036464
0.000364327
0.000364
0.000363655
0.000363295
0.000362917
0.000362525
0.000362116
0.000361694
0.000361257
0.000360808
0.000360346
0.000359875
0.000359394
0.000358907
0.000358412
0.000357913
0.000357411
0.000356907
0.000356403
0.0003559
0.000355398
0.0003549
0.000354406
0.000353916
0.000353433
0.000352955
0.000352484
0.000352019
0.000351562
0.000351111
0.000350667
0.000350231
0.0003498
0.000349377
0.000348959
0.000348547
0.00034814
0.000347738
0.00034734
0.000346947
0.000346557
0.00034617
0.000345786
0.000345404
0.000345025
0.000344647
0.000344271
0.000343896
0.000343522
0.000343148
0.000342776
0.000342403
0.000342032
0.00034166
0.000341289
0.000340918
0.000340547
0.000340176
0.000339805
0.000339434
0.000339064
0.000338694
0.000338324
0.000337954
0.000337585
0.000337217
0.000336848
0.000336481
0.000336114
0.000335747
0.000335382
0.000335017
0.000334653
0.00033429
0.000333928
0.000333567
0.000333207
0.000332849
0.000332491
0.000332134
0.000331779
0.000331425
0.000331072
0.00033072
0.00033037
0.000330021
0.000329673
0.000329326
0.000328981
0.000328637
0.000328295
0.000327954
0.000327614
0.000327276
0.000326939
0.000326603
0.000326269
0.000325936
0.000325604
0.000325274
0.000324945
0.000324618
0.000324291
0.000323966
0.000323642
0.00032332
0.000322998
0.000322678
0.000322359
0.000322041
0.000321724
0.000321408
0.000321094
0.00032078
0.000320467
0.000320155
0.000319844
0.000319534
0.000319225
0.000318917
0.00031861
0.000318303
0.000317997
0.000317692
0.000317388
0.000317085
0.000316783
0.000316482
0.000316182
0.000315882
0.000315585
0.000315287
0.000314993
0.000314698
0.000314407
0.000314116
0.000313828
0.000313542
0.000313258
0.000312977
0.000312698
0.000312423
0.000312151
0.000311882
0.000311617
0.000311356
0.000311099
0.000310846
0.000310597
0.000310353
0.000310113
0.000309877
0.000309646
0.00030942
0.000309197
0.000308979
0.000308765
0.000308555
0.000308349
0.000308146
0.000307945
0.000307748
0.000307552
0.000307358
0.000307166
0.000306973
0.000306782
0.000306589
0.000306395
0.0003062
0.000306002
0.000305801
0.000305596
0.000305388
0.000305174
0.000304955
0.00030473
0.000304499
0.000304262
0.000304017
0.000303765
0.000303506
0.000303239
0.000302966
0.000302684
0.000302397
0.000302102
0.000301803
0.000301497
0.000301187
0.000300874
0.000300558
0.00030024
0.000299922
0.000299605
0.00029929
0.000298978
0.000298671
0.00029837
0.000298077
0.000297791
0.000297516
0.00029725
0.000296996
0.000296754
0.000296524
0.000296307
0.000296103
0.000295913
0.000295735
0.00029557
0.000295417
0.000295276
0.000295147
0.000295027
0.000294919
0.000294819
0.000294728
0.000294644
0.000294568
0.000294498
0.000294433
0.000294374
0.000294317
0.000294263
0.000294209
0.000294153
0.000294088
0.000294007
0.000293893
0.000293718
0.000293435
0.000292957
0.000292141
0.000290744
0.000288403
0.000284646
0.000279049
0.000271653
0.000263419
0.000256058
0.000250853
0.000247847
0.000246322
0.000245583
0.00024522
0.000245033
0.000244928
0.000244865
0.000244821
0.000244788
0.000244761
0.000244736
0.000244712
0.000244689
0.000244667
0.000244645
0.000244623
0.000244601
0.00024458
0.000244559
0.000244538
0.000244518
0.000244497
0.000244478
0.000244458
0.000244439
0.00024442
0.000244402
0.000244384
0.000244367
0.00024435
0.000244333
0.000244317
0.000244302
0.000244287
0.000244273
0.000244259
0.000244246
0.000244234
0.000244222
0.000244211
0.0002442
0.00024419
0.00024418
0.000244172
0.000244164
0.000244156
0.000244149
0.000244143
0.000244138
0.000244133
0.000244128
0.000244125
0.000244122
0.00024412
0.000244118
0.000244117
0.000244117
0.000244117
0.000244117
0.000244118
0.00024412
0.000244123
0.000244126
0.000244129
0.000244134
0.000244138
0.000244145
0.000244149
0.000244158
0.000244161
0.000244173
0.000244177
0.00024419
0.000244194
0.00024421
0.000244214
0.000244231
0.000244236
0.000244255
0.000244261
0.000244282
0.000244288
0.000244312
0.000244319
0.000244346
0.000244353
0.000244383
0.000244391
0.000244425
0.000244434
0.000244472
0.000244482
0.000244525
0.000244537
0.000244585
0.000244598
0.000244652
0.000244666
0.000244727
0.000244743
0.00024481
0.000244828
0.000244903
0.000244923
0.000245005
0.000245027
0.000245117
0.000245141
0.00024527
)
;

boundaryField
{
    inlet
    {
        type            calculated;
        value           uniform 0.000236304;
    }
    outlet
    {
        type            calculated;
        value           uniform 0.000245252;
    }
    emptyWalls
    {
        type            empty;
    }
}


// ************************************************************************* //
