/*--------------------------------*- C++ -*----------------------------------*\
  =========                 |
  \\      /  F ield         | OpenFOAM: The Open Source CFD Toolbox
   \\    /   O peration     | Website:  https://openfoam.org
    \\  /    A nd           | Version:  9
     \\/     M anipulation  |
\*---------------------------------------------------------------------------*/
FoamFile
{
    format      ascii;
    class       surfaceScalarField;
    location    "22100";
    object      phib;
}
// * * * * * * * * * * * * * * * * * * * * * * * * * * * * * * * * * * * * * //

dimensions      [0 2 0 0 0 0 0];

internalField   nonuniform List<scalar> 
999
(
1.13621e-09
1.13621e-09
1.13623e-09
1.13622e-09
1.13626e-09
1.13625e-09
1.13629e-09
1.13631e-09
1.13633e-09
1.13636e-09
1.13639e-09
1.13642e-09
1.13645e-09
1.13649e-09
1.13653e-09
1.13657e-09
1.13663e-09
1.13666e-09
1.13673e-09
1.13676e-09
1.1368e-09
1.13685e-09
1.13687e-09
1.13692e-09
1.13693e-09
1.13696e-09
1.13698e-09
1.13705e-09
1.13727e-09
1.13813e-09
1.14291e-09
1.1689e-09
1.17565e-09
1.17735e-09
1.17806e-09
1.17848e-09
1.17877e-09
1.17899e-09
1.17917e-09
1.17932e-09
1.17944e-09
1.17954e-09
1.17962e-09
1.17969e-09
1.17977e-09
1.17984e-09
1.17992e-09
1.17999e-09
1.18003e-09
1.18004e-09
1.18004e-09
1.18002e-09
1.18003e-09
1.18006e-09
1.18009e-09
1.18013e-09
1.18015e-09
1.18015e-09
1.18012e-09
1.17992e-09
1.17961e-09
1.17923e-09
1.1788e-09
1.17834e-09
1.17791e-09
1.17754e-09
1.17724e-09
1.17703e-09
1.17687e-09
1.17673e-09
1.17659e-09
1.17648e-09
1.17653e-09
1.1767e-09
1.17695e-09
1.17725e-09
1.17757e-09
1.17787e-09
1.17814e-09
1.17837e-09
1.17853e-09
1.17862e-09
1.17863e-09
1.17856e-09
1.17841e-09
1.17819e-09
1.17789e-09
1.17755e-09
1.17716e-09
1.17675e-09
1.17633e-09
1.1759e-09
1.17548e-09
1.17505e-09
1.17463e-09
1.17421e-09
1.1738e-09
1.17339e-09
1.17298e-09
1.17258e-09
1.17218e-09
1.17178e-09
1.17138e-09
1.17098e-09
1.17058e-09
1.17018e-09
1.16978e-09
1.16938e-09
1.16897e-09
1.16856e-09
1.16815e-09
1.16774e-09
1.16732e-09
1.16691e-09
1.16649e-09
1.16606e-09
1.16564e-09
1.16521e-09
1.16479e-09
1.16436e-09
1.16392e-09
1.16349e-09
1.16305e-09
1.16261e-09
1.16217e-09
1.16173e-09
1.16128e-09
1.16083e-09
1.16038e-09
1.15993e-09
1.15948e-09
1.15902e-09
1.15856e-09
1.1581e-09
1.15764e-09
1.15718e-09
1.15671e-09
1.15624e-09
1.15577e-09
1.15529e-09
1.15482e-09
1.15434e-09
1.15386e-09
1.15337e-09
1.15289e-09
1.15241e-09
1.15192e-09
1.15144e-09
1.15095e-09
1.15046e-09
1.14998e-09
1.14949e-09
1.149e-09
1.14851e-09
1.14801e-09
1.14752e-09
1.14702e-09
1.14652e-09
1.14602e-09
1.14551e-09
1.14501e-09
1.14451e-09
1.14401e-09
1.14352e-09
1.14302e-09
1.14253e-09
1.14203e-09
1.14152e-09
1.14101e-09
1.14049e-09
1.13994e-09
1.13938e-09
1.1388e-09
1.13821e-09
1.13758e-09
1.13695e-09
1.13629e-09
1.13562e-09
1.13493e-09
1.13423e-09
1.13353e-09
1.13283e-09
1.13213e-09
1.13144e-09
1.13076e-09
1.13009e-09
1.12945e-09
1.12884e-09
1.12826e-09
1.12771e-09
1.1272e-09
1.12672e-09
1.12628e-09
1.12588e-09
1.1255e-09
1.12515e-09
1.12481e-09
1.12449e-09
1.12418e-09
1.12387e-09
1.12356e-09
1.12323e-09
1.1229e-09
1.12255e-09
1.12218e-09
1.12179e-09
1.12139e-09
1.12096e-09
1.12052e-09
1.12007e-09
1.1196e-09
1.11912e-09
1.11863e-09
1.11813e-09
1.11762e-09
1.11712e-09
1.11661e-09
1.1161e-09
1.11558e-09
1.11507e-09
1.11456e-09
1.11406e-09
1.11355e-09
1.11305e-09
1.11254e-09
1.11204e-09
1.11155e-09
1.11105e-09
1.11055e-09
1.11006e-09
1.10956e-09
1.10907e-09
1.10857e-09
1.10808e-09
1.10759e-09
1.10709e-09
1.1066e-09
1.1061e-09
1.1056e-09
1.1051e-09
1.10461e-09
1.10411e-09
1.1036e-09
1.1031e-09
1.1026e-09
1.1021e-09
1.10159e-09
1.10108e-09
1.10057e-09
1.10007e-09
1.09955e-09
1.09904e-09
1.09853e-09
1.09802e-09
1.0975e-09
1.09698e-09
1.09646e-09
1.09594e-09
1.09542e-09
1.0949e-09
1.09438e-09
1.09385e-09
1.09333e-09
1.0928e-09
1.09227e-09
1.09174e-09
1.09121e-09
1.09067e-09
1.09014e-09
1.0896e-09
1.08906e-09
1.08852e-09
1.08798e-09
1.08744e-09
1.0869e-09
1.08636e-09
1.08581e-09
1.08527e-09
1.08472e-09
1.08417e-09
1.08362e-09
1.08308e-09
1.08253e-09
1.08198e-09
1.08142e-09
1.08087e-09
1.08032e-09
1.07976e-09
1.07921e-09
1.07865e-09
1.07809e-09
1.07754e-09
1.07698e-09
1.07642e-09
1.07587e-09
1.07531e-09
1.07475e-09
1.07419e-09
1.07363e-09
1.07306e-09
1.07249e-09
1.07192e-09
1.07134e-09
1.07075e-09
1.07015e-09
1.06955e-09
1.06894e-09
1.06832e-09
1.06769e-09
1.06705e-09
1.0664e-09
1.06574e-09
1.06507e-09
1.0644e-09
1.06372e-09
1.06303e-09
1.06234e-09
1.06165e-09
1.06096e-09
1.06027e-09
1.05958e-09
1.05891e-09
1.05824e-09
1.05758e-09
1.05693e-09
1.0563e-09
1.05568e-09
1.05508e-09
1.0545e-09
1.05394e-09
1.05339e-09
1.05286e-09
1.05235e-09
1.05185e-09
1.05137e-09
1.0509e-09
1.05044e-09
1.04998e-09
1.04953e-09
1.04908e-09
1.04864e-09
1.04819e-09
1.04773e-09
1.04727e-09
1.04681e-09
1.04633e-09
1.04585e-09
1.04536e-09
1.04486e-09
1.04436e-09
1.04384e-09
1.04332e-09
1.04279e-09
1.04225e-09
1.04171e-09
1.04116e-09
1.04061e-09
1.04005e-09
1.0395e-09
1.03893e-09
1.03837e-09
1.03781e-09
1.03724e-09
1.03668e-09
1.03611e-09
1.03554e-09
1.03498e-09
1.03441e-09
1.03385e-09
1.03329e-09
1.03272e-09
1.03216e-09
1.0316e-09
1.03103e-09
1.03047e-09
1.02991e-09
1.02934e-09
1.02878e-09
1.02822e-09
1.02766e-09
1.02709e-09
1.02653e-09
1.02597e-09
1.0254e-09
1.02483e-09
1.02427e-09
1.0237e-09
1.02313e-09
1.02256e-09
1.02199e-09
1.02142e-09
1.02085e-09
1.02028e-09
1.01971e-09
1.01913e-09
1.01855e-09
1.01798e-09
1.0174e-09
1.01682e-09
1.01624e-09
1.01566e-09
1.01507e-09
1.01449e-09
1.01391e-09
1.01332e-09
1.01273e-09
1.01214e-09
1.01155e-09
1.01096e-09
1.01037e-09
1.00977e-09
1.00918e-09
1.00858e-09
1.00798e-09
1.00739e-09
1.00679e-09
1.00618e-09
1.00558e-09
1.00498e-09
1.00437e-09
1.00377e-09
1.00316e-09
1.00255e-09
1.00194e-09
1.00133e-09
1.00072e-09
1.00011e-09
9.99493e-10
9.98879e-10
9.98264e-10
9.97647e-10
9.9703e-10
9.96412e-10
9.95793e-10
9.95174e-10
9.94553e-10
9.93932e-10
9.9331e-10
9.92687e-10
9.92064e-10
9.91439e-10
9.90814e-10
9.90188e-10
9.8956e-10
9.88931e-10
9.88301e-10
9.87668e-10
9.87034e-10
9.86397e-10
9.85757e-10
9.85114e-10
9.84468e-10
9.83817e-10
9.83162e-10
9.82503e-10
9.81838e-10
9.81169e-10
9.80494e-10
9.79814e-10
9.79128e-10
9.78436e-10
9.7774e-10
9.77038e-10
9.76332e-10
9.75621e-10
9.74907e-10
9.74189e-10
9.73469e-10
9.72747e-10
9.72024e-10
9.71301e-10
9.70579e-10
9.69859e-10
9.69142e-10
9.68429e-10
9.67721e-10
9.67019e-10
9.66323e-10
9.65635e-10
9.64955e-10
9.64284e-10
9.63622e-10
9.62969e-10
9.62326e-10
9.61693e-10
9.61069e-10
9.60455e-10
9.59849e-10
9.59251e-10
9.5866e-10
9.58075e-10
9.57496e-10
9.56921e-10
9.56349e-10
9.55779e-10
9.5521e-10
9.54642e-10
9.54072e-10
9.53501e-10
9.52927e-10
9.5235e-10
9.5177e-10
9.51185e-10
9.50595e-10
9.50001e-10
9.49403e-10
9.48799e-10
9.4819e-10
9.47577e-10
9.46959e-10
9.46337e-10
9.45711e-10
9.45081e-10
9.44448e-10
9.43812e-10
9.43173e-10
9.42531e-10
9.41887e-10
9.41242e-10
9.40594e-10
9.39945e-10
9.39296e-10
9.38645e-10
9.37993e-10
9.3734e-10
9.36687e-10
9.36033e-10
9.35379e-10
9.34725e-10
9.3407e-10
9.33414e-10
9.32758e-10
9.32102e-10
9.31445e-10
9.30788e-10
9.30131e-10
9.29472e-10
9.28814e-10
9.28154e-10
9.27494e-10
9.26833e-10
9.26171e-10
9.25509e-10
9.24845e-10
9.24181e-10
9.23516e-10
9.22849e-10
9.22182e-10
9.21514e-10
9.20844e-10
9.20173e-10
9.19501e-10
9.18828e-10
9.18154e-10
9.17478e-10
9.16801e-10
9.16123e-10
9.15444e-10
9.14763e-10
9.14081e-10
9.13398e-10
9.12713e-10
9.12027e-10
9.1134e-10
9.10651e-10
9.09961e-10
9.09269e-10
9.08576e-10
9.07882e-10
9.07186e-10
9.06489e-10
9.0579e-10
9.0509e-10
9.04388e-10
9.03685e-10
9.02981e-10
9.02275e-10
9.01568e-10
9.0086e-10
9.0015e-10
8.99439e-10
8.98726e-10
8.98012e-10
8.97297e-10
8.9658e-10
8.95862e-10
8.95143e-10
8.94422e-10
8.937e-10
8.92977e-10
8.92253e-10
8.91527e-10
8.908e-10
8.90072e-10
8.89343e-10
8.88613e-10
8.87881e-10
8.87148e-10
8.86414e-10
8.85679e-10
8.84942e-10
8.84204e-10
8.83465e-10
8.82724e-10
8.81982e-10
8.81239e-10
8.80494e-10
8.79747e-10
8.78998e-10
8.78247e-10
8.77494e-10
8.76738e-10
8.7598e-10
8.75219e-10
8.74456e-10
8.73689e-10
8.7292e-10
8.72147e-10
8.7137e-10
8.7059e-10
8.69806e-10
8.69019e-10
8.68228e-10
8.67433e-10
8.66634e-10
8.65831e-10
8.65025e-10
8.64216e-10
8.63403e-10
8.62587e-10
8.61768e-10
8.60946e-10
8.60123e-10
8.59297e-10
8.5847e-10
8.57642e-10
8.56813e-10
8.55984e-10
8.55156e-10
8.54328e-10
8.53501e-10
8.52676e-10
8.51854e-10
8.51034e-10
8.50217e-10
8.49403e-10
8.48593e-10
8.47787e-10
8.46986e-10
8.46189e-10
8.45397e-10
8.44609e-10
8.43826e-10
8.43047e-10
8.42273e-10
8.41503e-10
8.40737e-10
8.39975e-10
8.39216e-10
8.38459e-10
8.37705e-10
8.36952e-10
8.36201e-10
8.35451e-10
8.347e-10
8.3395e-10
8.33198e-10
8.32446e-10
8.31691e-10
8.30935e-10
8.30176e-10
8.29414e-10
8.28649e-10
8.27881e-10
8.27109e-10
8.26334e-10
8.25555e-10
8.24772e-10
8.23985e-10
8.23195e-10
8.22401e-10
8.21603e-10
8.20802e-10
8.19998e-10
8.1919e-10
8.18379e-10
8.17565e-10
8.16748e-10
8.15928e-10
8.15106e-10
8.14281e-10
8.13454e-10
8.12625e-10
8.11793e-10
8.1096e-10
8.10124e-10
8.09287e-10
8.08447e-10
8.07606e-10
8.06763e-10
8.05919e-10
8.05073e-10
8.04225e-10
8.03375e-10
8.02524e-10
8.01671e-10
8.00817e-10
7.9996e-10
7.99102e-10
7.98243e-10
7.97381e-10
7.96518e-10
7.95652e-10
7.94785e-10
7.93916e-10
7.93045e-10
7.92173e-10
7.91298e-10
7.90421e-10
7.89541e-10
7.8866e-10
7.87777e-10
7.86891e-10
7.86003e-10
7.85113e-10
7.84221e-10
7.83326e-10
7.82429e-10
7.81529e-10
7.80627e-10
7.79723e-10
7.78816e-10
7.77907e-10
7.76995e-10
7.76081e-10
7.75164e-10
7.74245e-10
7.73323e-10
7.72398e-10
7.71471e-10
7.70541e-10
7.69608e-10
7.68673e-10
7.67735e-10
7.66794e-10
7.6585e-10
7.64904e-10
7.63955e-10
7.63003e-10
7.62048e-10
7.61091e-10
7.6013e-10
7.59167e-10
7.58201e-10
7.57232e-10
7.5626e-10
7.55285e-10
7.54307e-10
7.53326e-10
7.52343e-10
7.51356e-10
7.50366e-10
7.49373e-10
7.48378e-10
7.47379e-10
7.46377e-10
7.45372e-10
7.44364e-10
7.43353e-10
7.42338e-10
7.41321e-10
7.403e-10
7.39277e-10
7.38249e-10
7.37219e-10
7.36185e-10
7.35148e-10
7.34108e-10
7.33064e-10
7.32016e-10
7.30965e-10
7.2991e-10
7.28852e-10
7.27789e-10
7.26723e-10
7.25653e-10
7.24578e-10
7.235e-10
7.22417e-10
7.2133e-10
7.20238e-10
7.19142e-10
7.18041e-10
7.16935e-10
7.15825e-10
7.1471e-10
7.13589e-10
7.12464e-10
7.11334e-10
7.10198e-10
7.09058e-10
7.07912e-10
7.06762e-10
7.05606e-10
7.04445e-10
7.03279e-10
7.02109e-10
7.00934e-10
6.99754e-10
6.9857e-10
6.97382e-10
6.96189e-10
6.94993e-10
6.93793e-10
6.9259e-10
6.91384e-10
6.90175e-10
6.88964e-10
6.87751e-10
6.86537e-10
6.85321e-10
6.84105e-10
6.82889e-10
6.81673e-10
6.80459e-10
6.79246e-10
6.78035e-10
6.76827e-10
6.75624e-10
6.74425e-10
6.73233e-10
6.72047e-10
6.70869e-10
6.697e-10
6.68543e-10
6.67398e-10
6.66267e-10
6.65153e-10
6.64056e-10
6.6298e-10
6.61926e-10
6.60897e-10
6.59896e-10
6.58926e-10
6.57988e-10
6.57085e-10
6.5622e-10
6.55395e-10
6.54613e-10
6.53876e-10
6.53184e-10
6.52539e-10
6.51941e-10
6.5139e-10
6.50888e-10
6.50433e-10
6.50023e-10
6.49657e-10
6.49332e-10
6.49047e-10
6.48798e-10
6.48585e-10
6.48402e-10
6.48248e-10
6.48118e-10
6.4801e-10
6.47921e-10
6.4785e-10
6.47793e-10
6.47747e-10
6.4771e-10
6.47677e-10
6.47645e-10
6.47608e-10
6.47557e-10
6.47475e-10
6.4733e-10
6.47073e-10
6.46609e-10
6.45775e-10
6.4428e-10
6.41609e-10
6.36878e-10
6.28617e-10
6.14541e-10
5.91529e-10
5.56338e-10
5.07729e-10
4.49409e-10
3.90552e-10
3.41102e-10
3.05895e-10
2.8383e-10
2.71135e-10
2.642e-10
2.6052e-10
2.58598e-10
2.57604e-10
2.57093e-10
2.56831e-10
2.56698e-10
2.56631e-10
2.56598e-10
2.56582e-10
2.56576e-10
2.56574e-10
2.56574e-10
2.56575e-10
2.56578e-10
2.5658e-10
2.56582e-10
2.56585e-10
2.56587e-10
2.56589e-10
2.56592e-10
2.56594e-10
2.56596e-10
2.56598e-10
2.56599e-10
2.56601e-10
2.56603e-10
2.56604e-10
2.56606e-10
2.56607e-10
2.56608e-10
2.5661e-10
2.56611e-10
2.56612e-10
2.56612e-10
2.56613e-10
2.56614e-10
2.56614e-10
2.56615e-10
2.56615e-10
2.56616e-10
2.56616e-10
2.56616e-10
2.56616e-10
2.56616e-10
2.56616e-10
2.56616e-10
2.56616e-10
2.56615e-10
2.56615e-10
2.56614e-10
2.56614e-10
2.56613e-10
2.56613e-10
2.56612e-10
2.56611e-10
2.56611e-10
2.5661e-10
2.56609e-10
2.56608e-10
2.56607e-10
2.56605e-10
2.56604e-10
2.56603e-10
2.56602e-10
2.566e-10
2.56599e-10
2.56598e-10
2.56596e-10
2.56594e-10
2.56593e-10
2.56591e-10
2.56589e-10
2.56588e-10
2.56586e-10
2.56584e-10
2.56582e-10
2.5658e-10
2.56577e-10
2.56575e-10
2.56573e-10
2.5657e-10
2.56567e-10
2.56565e-10
2.56562e-10
2.56559e-10
2.56555e-10
2.56552e-10
2.56548e-10
2.56544e-10
2.5654e-10
2.56536e-10
2.56532e-10
2.56527e-10
2.56522e-10
2.56516e-10
2.56511e-10
2.56504e-10
2.56498e-10
2.56492e-10
2.56485e-10
2.56477e-10
2.5647e-10
2.56462e-10
2.56453e-10
)
;

boundaryField
{
    inlet
    {
        type            calculated;
        value           uniform -1.13622e-09;
    }
    outlet
    {
        type            calculated;
        value           uniform 2.56445e-10;
    }
    emptyWalls
    {
        type            empty;
        value           nonuniform List<scalar> 0();
    }
}


// ************************************************************************* //
