/*--------------------------------*- C++ -*----------------------------------*\
  =========                 |
  \\      /  F ield         | OpenFOAM: The Open Source CFD Toolbox
   \\    /   O peration     | Website:  https://openfoam.org
    \\  /    A nd           | Version:  9
     \\/     M anipulation  |
\*---------------------------------------------------------------------------*/
FoamFile
{
    format      ascii;
    class       volScalarField;
    location    "19600";
    object      kra;
}
// * * * * * * * * * * * * * * * * * * * * * * * * * * * * * * * * * * * * * //

dimensions      [0 0 0 0 0 0 0];

internalField   nonuniform List<scalar> 
1000
(
0.000236768
0.000237825
0.000239236
0.000240615
0.000242033
0.000243393
0.000244856
0.000246211
0.00024773
0.000249096
0.000250629
0.000252019
0.000253501
0.000254888
0.000256272
0.000257578
0.000258819
0.00025996
0.000261003
0.000261931
0.000262756
0.000263477
0.000264132
0.00026484
0.000266104
0.000270266
0.000286148
0.000391105
0.000755398
0.000864058
0.000892534
0.000905902
0.000913537
0.000918183
0.000921198
0.000923228
0.000924715
0.000925845
0.000926688
0.000927324
0.000927811
0.000928145
0.000928364
0.000928497
0.000928504
0.000928462
0.000928407
0.000928197
0.000928033
0.000927728
0.000927475
0.000927105
0.000926777
0.000926365
0.000925941
0.000925497
0.000924994
0.00092452
0.000923949
0.000923358
0.000922744
0.000922093
0.000921406
0.000920679
0.000919927
0.00091913
0.000918286
0.000917391
0.000916444
0.000915424
0.000914305
0.000913064
0.000911651
0.000910014
0.00090809
0.000905851
0.00090329
0.000900465
0.000897441
0.000894301
0.0008911
0.000887873
0.000884645
0.000881432
0.000878238
0.000875058
0.000871882
0.000868703
0.000865523
0.000862349
0.000859187
0.000856045
0.000852931
0.000849867
0.000846894
0.00084406
0.000841416
0.000838995
0.000836804
0.000834822
0.000833009
0.000831316
0.000829697
0.000828114
0.000826538
0.000824943
0.000823305
0.000821593
0.00081977
0.000817797
0.000815632
0.00081324
0.000810599
0.000807699
0.000804551
0.000801181
0.000797629
0.000793948
0.000790193
0.000786423
0.000782692
0.000779046
0.000775523
0.000772149
0.000768942
0.000765907
0.00076304
0.000760334
0.000757772
0.000755336
0.000753006
0.000750761
0.00074858
0.000746448
0.000744347
0.000742266
0.000740193
0.000738122
0.000736049
0.00073397
0.000731885
0.000729794
0.000727699
0.000725601
0.000723503
0.000721408
0.000719316
0.000717233
0.000715157
0.000713093
0.00071104
0.000709
0.000706975
0.000704965
0.00070297
0.000700991
0.000699029
0.000697083
0.000695154
0.000693241
0.000691345
0.000689465
0.000687602
0.000685755
0.000683924
0.000682109
0.00068031
0.000678527
0.00067676
0.000675008
0.000673271
0.00067155
0.000669844
0.000668153
0.000666477
0.000664816
0.00066317
0.000661537
0.000659919
0.000658315
0.000656726
0.00065515
0.000653589
0.000652041
0.000650509
0.00064899
0.000647486
0.000645996
0.000644521
0.000643058
0.00064161
0.000640173
0.000638748
0.000637333
0.00063593
0.000634535
0.00063315
0.000631774
0.000630407
0.000629048
0.0006277
0.000626361
0.000625033
0.000623714
0.000622407
0.000621109
0.000619821
0.00061854
0.000617267
0.000615998
0.000614735
0.000613475
0.000612219
0.00061097
0.000609728
0.000608499
0.000607286
0.000606096
0.000604934
0.000603807
0.000602719
0.000601676
0.000600683
0.000599741
0.000598854
0.00059802
0.000597239
0.000596507
0.000595821
0.000595174
0.00059456
0.00059397
0.000593394
0.000592823
0.000592244
0.000591646
0.000591017
0.000590343
0.000589614
0.00058882
0.00058795
0.000586998
0.000585959
0.00058483
0.000583613
0.000582311
0.000580929
0.000579478
0.000577968
0.00057641
0.00057482
0.000573211
0.000571596
0.000569988
0.000568399
0.000566839
0.000565316
0.000563837
0.000562404
0.000561021
0.000559689
0.000558405
0.000557169
0.000555977
0.000554825
0.000553709
0.000552624
0.000551565
0.000550529
0.00054951
0.000548506
0.000547511
0.000546524
0.000545542
0.000544562
0.000543584
0.000542605
0.000541625
0.000540644
0.000539661
0.000538676
0.000537689
0.000536702
0.000535713
0.000534724
0.000533736
0.000532748
0.000531762
0.000530778
0.000529796
0.000528818
0.000527842
0.000526871
0.000525903
0.000524941
0.000523982
0.000523029
0.000522081
0.000521137
0.0005202
0.000519267
0.00051834
0.000517419
0.000516503
0.000515593
0.000514689
0.00051379
0.000512897
0.00051201
0.000511128
0.000510252
0.000509382
0.000508518
0.000507659
0.000506806
0.000505958
0.000505116
0.00050428
0.000503449
0.000502624
0.000501805
0.000500992
0.000500183
0.000499381
0.000498584
0.000497794
0.000497008
0.000496229
0.000495454
0.000494686
0.000493922
0.000493164
0.00049241
0.000491662
0.000490917
0.000490178
0.000489442
0.000488712
0.000487985
0.000487263
0.000486544
0.00048583
0.000485119
0.000484413
0.000483709
0.00048301
0.000482313
0.000481621
0.000480931
0.000480245
0.00047956
0.000478879
0.000478201
0.000477526
0.000476854
0.000476185
0.000475522
0.000474864
0.000474212
0.000473569
0.000472934
0.000472311
0.000471701
0.000471104
0.000470524
0.000469962
0.000469418
0.000468895
0.000468392
0.000467912
0.000467453
0.000467016
0.0004666
0.000466205
0.000465828
0.000465468
0.000465123
0.000464789
0.000464464
0.000464144
0.000463825
0.000463503
0.000463174
0.000462833
0.000462476
0.000462099
0.000461698
0.000461268
0.000460806
0.00046031
0.000459777
0.000459204
0.000458592
0.000457941
0.00045725
0.000456522
0.000455758
0.000454962
0.000454137
0.000453287
0.000452417
0.000451531
0.000450635
0.000449733
0.00044883
0.00044793
0.000447037
0.000446154
0.000445285
0.000444431
0.000443595
0.000442779
0.000441982
0.000441205
0.000440448
0.00043971
0.000438991
0.00043829
0.000437605
0.000436934
0.000436277
0.000435632
0.000434998
0.000434372
0.000433753
0.000433141
0.000432534
0.00043193
0.00043133
0.000430732
0.000430135
0.000429539
0.000428943
0.000428348
0.000427752
0.000427156
0.00042656
0.000425964
0.000425367
0.00042477
0.000424173
0.000423577
0.00042298
0.000422384
0.000421789
0.000421195
0.000420602
0.00042001
0.00041942
0.000418831
0.000418244
0.000417659
0.000417077
0.000416496
0.000415918
0.000415342
0.000414769
0.000414198
0.00041363
0.000413065
0.000412503
0.000411943
0.000411386
0.000410832
0.000410281
0.000409733
0.000409187
0.000408645
0.000408105
0.000407569
0.000407035
0.000406505
0.000405977
0.000405452
0.00040493
0.000404411
0.000403895
0.000403382
0.000402872
0.000402364
0.00040186
0.000401358
0.00040086
0.000400364
0.000399871
0.000399381
0.000398893
0.000398408
0.000397926
0.000397447
0.000396969
0.000396495
0.000396023
0.000395553
0.000395086
0.000394621
0.000394158
0.000393697
0.000393238
0.000392782
0.000392327
0.000391874
0.000391424
0.000390975
0.000390527
0.000390082
0.000389638
0.000389196
0.000388756
0.000388317
0.00038788
0.000387445
0.000387013
0.000386582
0.000386154
0.000385729
0.000385307
0.000384889
0.000384475
0.000384066
0.000383662
0.000383264
0.000382872
0.000382487
0.000382111
0.000381742
0.000381382
0.000381032
0.000380691
0.000380361
0.000380041
0.000379731
0.000379432
0.000379143
0.000378863
0.000378594
0.000378333
0.00037808
0.000377835
0.000377595
0.00037736
0.000377129
0.0003769
0.000376671
0.00037644
0.000376207
0.000375968
0.000375723
0.000375469
0.000375205
0.000374928
0.000374638
0.000374331
0.000374009
0.000373668
0.000373309
0.000372928
0.00037253
0.000372109
0.00037167
0.000371208
0.000370729
0.000370229
0.000369715
0.000369182
0.000368637
0.000368078
0.00036751
0.000366931
0.000366347
0.000365757
0.000365166
0.000364573
0.000363982
0.000363393
0.000362808
0.000362229
0.000361657
0.000361092
0.000360536
0.000359989
0.000359451
0.000358922
0.000358403
0.000357893
0.000357393
0.000356901
0.000356418
0.000355943
0.000355475
0.000355013
0.000354558
0.000354109
0.000353664
0.000353224
0.000352788
0.000352354
0.000351924
0.000351496
0.000351069
0.000350644
0.000350221
0.000349798
0.000349375
0.000348954
0.000348532
0.000348111
0.000347689
0.000347268
0.000346847
0.000346426
0.000346004
0.000345583
0.000345162
0.000344741
0.00034432
0.000343899
0.000343479
0.000343059
0.00034264
0.000342221
0.000341803
0.000341385
0.000340969
0.000340553
0.000340138
0.000339724
0.000339312
0.0003389
0.00033849
0.000338081
0.000337673
0.000337266
0.000336861
0.000336457
0.000336054
0.000335653
0.000335253
0.000334855
0.000334458
0.000334062
0.000333669
0.000333276
0.000332885
0.000332495
0.000332107
0.00033172
0.000331335
0.000330951
0.000330569
0.000330188
0.000329809
0.000329431
0.000329054
0.000328679
0.000328306
0.000327934
0.000327563
0.000327194
0.000326826
0.000326459
0.000326094
0.00032573
0.000325367
0.000325006
0.000324645
0.000324287
0.000323929
0.000323572
0.000323217
0.000322862
0.000322509
0.000322156
0.000321805
0.000321455
0.000321106
0.000320757
0.00032041
0.000320064
0.000319718
0.000319373
0.00031903
0.000318687
0.000318345
0.000318005
0.000317666
0.000317327
0.00031699
0.000316655
0.000316321
0.000315989
0.000315659
0.000315332
0.000315006
0.000314683
0.000314363
0.000314046
0.000313733
0.000313423
0.000313117
0.000312814
0.000312517
0.000312223
0.000311935
0.000311651
0.000311373
0.000311099
0.00031083
0.000310567
0.000310309
0.000310056
0.000309808
0.000309564
0.000309325
0.000309089
0.000308858
0.00030863
0.000308405
0.000308181
0.000307959
0.000307739
0.000307518
0.000307298
0.000307076
0.000306852
0.000306625
0.000306396
0.000306162
0.000305923
0.000305679
0.000305428
0.000305171
0.000304905
0.000304633
0.000304352
0.000304064
0.000303767
0.000303461
0.000303147
0.000302825
0.000302496
0.00030216
0.000301818
0.000301471
0.00030112
0.000300767
0.000300412
0.000300058
0.000299705
0.000299356
0.000299012
0.000298674
0.000298344
0.000298024
0.000297715
0.000297418
0.000297135
0.000296865
0.000296611
0.000296371
0.000296146
0.000295938
0.000295744
0.000295566
0.000295401
0.000295251
0.000295113
0.000294987
0.000294874
0.00029477
0.000294676
0.000294589
0.00029451
0.000294435
0.000294362
0.000294287
0.000294202
0.000294096
0.000293945
0.000293714
0.000293335
0.000292694
0.0002916
0.000289745
0.000286702
0.000281986
0.000275362
0.000267327
0.000259345
0.000253065
0.000249112
0.000247007
0.000245976
0.000245477
0.000245227
0.000245094
0.000245017
0.000244968
0.000244933
0.000244905
0.00024488
0.000244857
0.000244835
0.000244813
0.000244791
0.000244769
0.000244748
0.000244726
0.000244704
0.000244682
0.00024466
0.000244638
0.000244617
0.000244595
0.000244574
0.000244553
0.000244532
0.000244511
0.00024449
0.00024447
0.000244451
0.000244431
0.000244412
0.000244393
0.000244375
0.000244357
0.00024434
0.000244323
0.000244307
0.000244291
0.000244276
0.000244261
0.000244247
0.000244234
0.000244221
0.000244208
0.000244197
0.000244186
0.000244175
0.000244165
0.000244156
0.000244147
0.000244139
0.000244132
0.000244126
0.00024412
0.000244114
0.00024411
0.000244106
0.000244102
0.0002441
0.000244098
0.000244097
0.000244096
0.000244096
0.000244096
0.000244097
0.000244099
0.000244101
0.000244105
0.000244108
0.000244113
0.000244118
0.000244123
0.000244129
0.000244136
0.000244143
0.000244151
0.00024416
0.000244168
0.000244178
0.000244188
0.000244199
0.00024421
0.000244222
0.000244234
0.000244248
0.000244261
0.000244276
0.000244291
0.000244308
0.000244324
0.000244342
0.000244361
0.000244381
0.000244402
0.000244424
0.000244447
0.000244472
0.000244498
0.000244526
0.000244556
0.000244587
0.00024462
0.000244655
0.000244692
0.000244732
0.000244773
0.000244817
0.000244864
0.000244913
0.000244964
0.000245019
0.000245075
0.000245135
0.000245197
0.000245262
0.00024533
0.000245401
0.000245473
0.000245549
0.000245627
0.000245707
0.000245789
0.000245873
0.000245958
0.000246045
0.000246133
0.000246222
0.000246312
0.000246402
0.000246491
0.000246581
0.000246669
0.000246756
0.000246842
0.000246926
0.000247007
0.000247086
0.000247161
0.000247233
0.000247301
0.000247364
0.000247423
0.000247476
0.000247524
0.000247567
0.000247603
0.000247634
0.000247657
0.000247674
0.000247684
0.000247688
0.000247689
0.000247688
0.000247684
0.000247661
0.000247637
0.000247599
0.000247564
0.000247514
0.00024747
0.00024741
0.000247358
0.000247289
0.00024723
0.000247154
0.000247091
0.00024701
0.000246944
0.000246859
0.000246792
0.000246706
0.000246639
0.000246553
0.000246488
0.000246403
0.000246341
0.000246259
0.000246201
0.000246122
0.000246069
0.000245994
0.000245945
0.000245875
0.000245832
0.000245766
0.000245728
0.000245667
0.000245634
0.000245578
0.000245549
0.000245497
0.000245472
0.000245425
0.000245403
0.000245359
0.00024534
0.000245299
0.000245282
0.000245243
0.000245229
0.000245191
0.000245179
0.000245143
0.000245131
0.000245096
0.000245085
0.000245051
0.000245041
)
;

boundaryField
{
    inlet
    {
        type            calculated;
        value           uniform 0.000236304;
    }
    outlet
    {
        type            calculated;
        value           uniform 0.000245023;
    }
    emptyWalls
    {
        type            empty;
    }
}


// ************************************************************************* //
