/*--------------------------------*- C++ -*----------------------------------*\
  =========                 |
  \\      /  F ield         | OpenFOAM: The Open Source CFD Toolbox
   \\    /   O peration     | Website:  https://openfoam.org
    \\  /    A nd           | Version:  9
     \\/     M anipulation  |
\*---------------------------------------------------------------------------*/
FoamFile
{
    format      ascii;
    class       surfaceScalarField;
    location    "19600";
    object      phib;
}
// * * * * * * * * * * * * * * * * * * * * * * * * * * * * * * * * * * * * * //

dimensions      [0 2 0 0 0 0 0];

internalField   nonuniform List<scalar> 
999
(
1.13622e-09
1.13622e-09
1.13623e-09
1.13624e-09
1.13628e-09
1.13628e-09
1.13633e-09
1.13634e-09
1.13637e-09
1.13641e-09
1.13643e-09
1.13649e-09
1.13651e-09
1.13657e-09
1.13661e-09
1.13666e-09
1.13671e-09
1.13676e-09
1.1368e-09
1.13685e-09
1.13689e-09
1.13692e-09
1.13694e-09
1.137e-09
1.1371e-09
1.13765e-09
1.14004e-09
1.15503e-09
1.17423e-09
1.1772e-09
1.17766e-09
1.1777e-09
1.17779e-09
1.17797e-09
1.1782e-09
1.17844e-09
1.17867e-09
1.17889e-09
1.17909e-09
1.17927e-09
1.17943e-09
1.17958e-09
1.17972e-09
1.17985e-09
1.17996e-09
1.18007e-09
1.18016e-09
1.18025e-09
1.18033e-09
1.1804e-09
1.18046e-09
1.18051e-09
1.18055e-09
1.18059e-09
1.18062e-09
1.18065e-09
1.18066e-09
1.18067e-09
1.18067e-09
1.18066e-09
1.18065e-09
1.18062e-09
1.18059e-09
1.18055e-09
1.1805e-09
1.18044e-09
1.18037e-09
1.18028e-09
1.18018e-09
1.18007e-09
1.17993e-09
1.17977e-09
1.17958e-09
1.17936e-09
1.17909e-09
1.17878e-09
1.17842e-09
1.17803e-09
1.17761e-09
1.17718e-09
1.17673e-09
1.17626e-09
1.17578e-09
1.1753e-09
1.1748e-09
1.1743e-09
1.1738e-09
1.1733e-09
1.17281e-09
1.17231e-09
1.17181e-09
1.17131e-09
1.17081e-09
1.1703e-09
1.16976e-09
1.1692e-09
1.16859e-09
1.16794e-09
1.16725e-09
1.16652e-09
1.16577e-09
1.16499e-09
1.16421e-09
1.16342e-09
1.16264e-09
1.16187e-09
1.16112e-09
1.16038e-09
1.15968e-09
1.15902e-09
1.15841e-09
1.15786e-09
1.15737e-09
1.15693e-09
1.15656e-09
1.15623e-09
1.15595e-09
1.15569e-09
1.15545e-09
1.15521e-09
1.15496e-09
1.15469e-09
1.1544e-09
1.15408e-09
1.15372e-09
1.15333e-09
1.1529e-09
1.15245e-09
1.15197e-09
1.15146e-09
1.15093e-09
1.15039e-09
1.14985e-09
1.14929e-09
1.14873e-09
1.14818e-09
1.14762e-09
1.14707e-09
1.14652e-09
1.14597e-09
1.14543e-09
1.1449e-09
1.14437e-09
1.14384e-09
1.14331e-09
1.14279e-09
1.14227e-09
1.14175e-09
1.14122e-09
1.1407e-09
1.14018e-09
1.13966e-09
1.13914e-09
1.13862e-09
1.13809e-09
1.13757e-09
1.13704e-09
1.13651e-09
1.13599e-09
1.13545e-09
1.13492e-09
1.13439e-09
1.13385e-09
1.13331e-09
1.13277e-09
1.13223e-09
1.13169e-09
1.13115e-09
1.1306e-09
1.13005e-09
1.1295e-09
1.12895e-09
1.1284e-09
1.12785e-09
1.12729e-09
1.12673e-09
1.12618e-09
1.12561e-09
1.12505e-09
1.12449e-09
1.12392e-09
1.12335e-09
1.12279e-09
1.12221e-09
1.12164e-09
1.12107e-09
1.12049e-09
1.11991e-09
1.11933e-09
1.11875e-09
1.11816e-09
1.11758e-09
1.11699e-09
1.1164e-09
1.11582e-09
1.11523e-09
1.11463e-09
1.11404e-09
1.11345e-09
1.11286e-09
1.11226e-09
1.11167e-09
1.11107e-09
1.11047e-09
1.10987e-09
1.10927e-09
1.10867e-09
1.10807e-09
1.10747e-09
1.10687e-09
1.10626e-09
1.10566e-09
1.10506e-09
1.10446e-09
1.10385e-09
1.10325e-09
1.10264e-09
1.10202e-09
1.1014e-09
1.10076e-09
1.10012e-09
1.09947e-09
1.0988e-09
1.09812e-09
1.09742e-09
1.09671e-09
1.09599e-09
1.09525e-09
1.0945e-09
1.09375e-09
1.09298e-09
1.09222e-09
1.09145e-09
1.09068e-09
1.08991e-09
1.08916e-09
1.08841e-09
1.08768e-09
1.08697e-09
1.08628e-09
1.08561e-09
1.08496e-09
1.08435e-09
1.08376e-09
1.08319e-09
1.08265e-09
1.08213e-09
1.08163e-09
1.08115e-09
1.08068e-09
1.08022e-09
1.07977e-09
1.07931e-09
1.07885e-09
1.07839e-09
1.07792e-09
1.07744e-09
1.07695e-09
1.07644e-09
1.07592e-09
1.07539e-09
1.07484e-09
1.07428e-09
1.07371e-09
1.07313e-09
1.07255e-09
1.07195e-09
1.07135e-09
1.07074e-09
1.07013e-09
1.06951e-09
1.06889e-09
1.06828e-09
1.06766e-09
1.06704e-09
1.06642e-09
1.0658e-09
1.06519e-09
1.06458e-09
1.06396e-09
1.06335e-09
1.06274e-09
1.06213e-09
1.06152e-09
1.06091e-09
1.0603e-09
1.0597e-09
1.05909e-09
1.05848e-09
1.05787e-09
1.05726e-09
1.05666e-09
1.05605e-09
1.05544e-09
1.05483e-09
1.05421e-09
1.0536e-09
1.05299e-09
1.05237e-09
1.05176e-09
1.05114e-09
1.05052e-09
1.0499e-09
1.04928e-09
1.04866e-09
1.04804e-09
1.04741e-09
1.04679e-09
1.04616e-09
1.04553e-09
1.04491e-09
1.04427e-09
1.04364e-09
1.04301e-09
1.04237e-09
1.04174e-09
1.0411e-09
1.04046e-09
1.03982e-09
1.03918e-09
1.03854e-09
1.03789e-09
1.03725e-09
1.0366e-09
1.03595e-09
1.0353e-09
1.03465e-09
1.034e-09
1.03334e-09
1.03269e-09
1.03203e-09
1.03137e-09
1.03071e-09
1.03005e-09
1.02939e-09
1.02872e-09
1.02806e-09
1.02739e-09
1.02673e-09
1.02606e-09
1.02539e-09
1.02472e-09
1.02405e-09
1.02338e-09
1.02271e-09
1.02203e-09
1.02136e-09
1.02068e-09
1.02001e-09
1.01933e-09
1.01865e-09
1.01797e-09
1.01729e-09
1.01661e-09
1.01593e-09
1.01525e-09
1.01457e-09
1.01388e-09
1.01319e-09
1.0125e-09
1.01181e-09
1.01111e-09
1.01041e-09
1.0097e-09
1.00899e-09
1.00827e-09
1.00755e-09
1.00681e-09
1.00608e-09
1.00533e-09
1.00458e-09
1.00382e-09
1.00305e-09
1.00228e-09
1.0015e-09
1.00072e-09
9.99929e-10
9.99138e-10
9.98344e-10
9.97549e-10
9.96754e-10
9.95961e-10
9.95171e-10
9.94385e-10
9.93605e-10
9.92832e-10
9.92068e-10
9.91313e-10
9.9057e-10
9.89838e-10
9.89118e-10
9.88411e-10
9.87717e-10
9.87036e-10
9.86368e-10
9.85712e-10
9.85067e-10
9.84432e-10
9.83806e-10
9.83187e-10
9.82574e-10
9.81966e-10
9.8136e-10
9.80756e-10
9.80151e-10
9.79544e-10
9.78935e-10
9.78322e-10
9.77703e-10
9.7708e-10
9.7645e-10
9.75813e-10
9.7517e-10
9.74519e-10
9.73863e-10
9.73199e-10
9.7253e-10
9.71855e-10
9.71174e-10
9.70488e-10
9.69798e-10
9.69104e-10
9.68407e-10
9.67707e-10
9.67004e-10
9.66299e-10
9.65592e-10
9.64884e-10
9.64175e-10
9.63465e-10
9.62754e-10
9.62043e-10
9.61332e-10
9.6062e-10
9.59908e-10
9.59196e-10
9.58483e-10
9.57771e-10
9.57058e-10
9.56345e-10
9.55632e-10
9.54918e-10
9.54204e-10
9.53489e-10
9.52774e-10
9.52058e-10
9.51341e-10
9.50623e-10
9.49905e-10
9.49186e-10
9.48465e-10
9.47744e-10
9.47021e-10
9.46297e-10
9.45572e-10
9.44846e-10
9.44119e-10
9.4339e-10
9.4266e-10
9.41928e-10
9.41195e-10
9.40461e-10
9.39726e-10
9.38989e-10
9.3825e-10
9.3751e-10
9.36769e-10
9.36026e-10
9.35281e-10
9.34536e-10
9.33788e-10
9.33039e-10
9.32289e-10
9.31537e-10
9.30784e-10
9.30029e-10
9.29272e-10
9.28514e-10
9.27755e-10
9.26994e-10
9.26231e-10
9.25467e-10
9.24701e-10
9.23934e-10
9.23165e-10
9.22395e-10
9.21623e-10
9.20849e-10
9.20074e-10
9.19298e-10
9.1852e-10
9.17741e-10
9.1696e-10
9.16178e-10
9.15394e-10
9.14609e-10
9.13822e-10
9.13034e-10
9.12245e-10
9.11454e-10
9.10662e-10
9.09868e-10
9.09073e-10
9.08277e-10
9.0748e-10
9.06681e-10
9.05881e-10
9.05079e-10
9.04277e-10
9.03472e-10
9.02667e-10
9.0186e-10
9.01051e-10
9.00241e-10
8.99429e-10
8.98615e-10
8.978e-10
8.96982e-10
8.96161e-10
8.95338e-10
8.94513e-10
8.93684e-10
8.92852e-10
8.92017e-10
8.91178e-10
8.90335e-10
8.89488e-10
8.88637e-10
8.87782e-10
8.86922e-10
8.86057e-10
8.85188e-10
8.84314e-10
8.83436e-10
8.82554e-10
8.81667e-10
8.80777e-10
8.79882e-10
8.78985e-10
8.78085e-10
8.77182e-10
8.76277e-10
8.75371e-10
8.74464e-10
8.73557e-10
8.72651e-10
8.71745e-10
8.70841e-10
8.69939e-10
8.6904e-10
8.68145e-10
8.67254e-10
8.66367e-10
8.65485e-10
8.64609e-10
8.63738e-10
8.62874e-10
8.62015e-10
8.61162e-10
8.60315e-10
8.59474e-10
8.58639e-10
8.57808e-10
8.56982e-10
8.56161e-10
8.55342e-10
8.54527e-10
8.53714e-10
8.52902e-10
8.52091e-10
8.5128e-10
8.50469e-10
8.49656e-10
8.48841e-10
8.48023e-10
8.47203e-10
8.46379e-10
8.45551e-10
8.44719e-10
8.43883e-10
8.43041e-10
8.42196e-10
8.41345e-10
8.4049e-10
8.3963e-10
8.38766e-10
8.37897e-10
8.37023e-10
8.36146e-10
8.35264e-10
8.34379e-10
8.3349e-10
8.32598e-10
8.31703e-10
8.30804e-10
8.29903e-10
8.28999e-10
8.28093e-10
8.27184e-10
8.26273e-10
8.2536e-10
8.24445e-10
8.23528e-10
8.22609e-10
8.21688e-10
8.20766e-10
8.19842e-10
8.18916e-10
8.17988e-10
8.17058e-10
8.16127e-10
8.15194e-10
8.14259e-10
8.13322e-10
8.12383e-10
8.11442e-10
8.105e-10
8.09555e-10
8.08608e-10
8.07659e-10
8.06707e-10
8.05754e-10
8.04798e-10
8.0384e-10
8.0288e-10
8.01917e-10
8.00951e-10
7.99984e-10
7.99013e-10
7.98041e-10
7.97065e-10
7.96087e-10
7.95106e-10
7.94123e-10
7.93137e-10
7.92148e-10
7.91156e-10
7.90162e-10
7.89165e-10
7.88164e-10
7.87161e-10
7.86156e-10
7.85147e-10
7.84135e-10
7.8312e-10
7.82102e-10
7.81082e-10
7.80058e-10
7.79031e-10
7.78001e-10
7.76968e-10
7.75932e-10
7.74892e-10
7.7385e-10
7.72804e-10
7.71755e-10
7.70703e-10
7.69647e-10
7.68588e-10
7.67526e-10
7.66461e-10
7.65392e-10
7.6432e-10
7.63244e-10
7.62165e-10
7.61082e-10
7.59996e-10
7.58907e-10
7.57814e-10
7.56717e-10
7.55617e-10
7.54514e-10
7.53406e-10
7.52295e-10
7.51181e-10
7.50063e-10
7.48941e-10
7.47815e-10
7.46686e-10
7.45552e-10
7.44415e-10
7.43274e-10
7.42129e-10
7.4098e-10
7.39827e-10
7.3867e-10
7.37509e-10
7.36343e-10
7.35173e-10
7.33999e-10
7.3282e-10
7.31636e-10
7.30448e-10
7.29255e-10
7.28057e-10
7.26854e-10
7.25645e-10
7.24432e-10
7.23212e-10
7.21988e-10
7.20757e-10
7.19521e-10
7.18279e-10
7.17031e-10
7.15777e-10
7.14517e-10
7.1325e-10
7.11978e-10
7.10699e-10
7.09415e-10
7.08124e-10
7.06827e-10
7.05524e-10
7.04215e-10
7.02901e-10
7.01581e-10
7.00256e-10
6.98925e-10
6.9759e-10
6.9625e-10
6.94906e-10
6.93558e-10
6.92207e-10
6.90853e-10
6.89496e-10
6.88137e-10
6.86777e-10
6.85416e-10
6.84055e-10
6.82694e-10
6.81334e-10
6.79977e-10
6.78623e-10
6.77273e-10
6.75928e-10
6.74591e-10
6.73261e-10
6.71941e-10
6.70632e-10
6.69336e-10
6.68055e-10
6.66793e-10
6.65551e-10
6.64332e-10
6.63138e-10
6.61973e-10
6.6084e-10
6.59743e-10
6.58685e-10
6.57669e-10
6.56698e-10
6.55774e-10
6.54902e-10
6.54082e-10
6.53318e-10
6.5261e-10
6.51959e-10
6.51364e-10
6.50825e-10
6.50341e-10
6.49911e-10
6.49531e-10
6.492e-10
6.48912e-10
6.48665e-10
6.48455e-10
6.4828e-10
6.48134e-10
6.48014e-10
6.47915e-10
6.47832e-10
6.47761e-10
6.47696e-10
6.47629e-10
6.47544e-10
6.47417e-10
6.47208e-10
6.46845e-10
6.46202e-10
6.45054e-10
6.43004e-10
6.3936e-10
6.32953e-10
6.21895e-10
6.03424e-10
5.74186e-10
5.31659e-10
4.76956e-10
4.16999e-10
3.62216e-10
3.20284e-10
2.92562e-10
2.76053e-10
2.66847e-10
2.61907e-10
2.59311e-10
2.57963e-10
2.57268e-10
2.56911e-10
2.56729e-10
2.56637e-10
2.56591e-10
2.56569e-10
2.56559e-10
2.56555e-10
2.56555e-10
2.56557e-10
2.56559e-10
2.56561e-10
2.56564e-10
2.56567e-10
2.5657e-10
2.56573e-10
2.56576e-10
2.56578e-10
2.56581e-10
2.56584e-10
2.56586e-10
2.56589e-10
2.56591e-10
2.56594e-10
2.56596e-10
2.56598e-10
2.566e-10
2.56602e-10
2.56604e-10
2.56606e-10
2.56607e-10
2.56609e-10
2.5661e-10
2.56611e-10
2.56613e-10
2.56614e-10
2.56615e-10
2.56616e-10
2.56617e-10
2.56617e-10
2.56618e-10
2.56619e-10
2.56619e-10
2.56619e-10
2.5662e-10
2.5662e-10
2.5662e-10
2.5662e-10
2.5662e-10
2.5662e-10
2.5662e-10
2.56619e-10
2.56619e-10
2.56619e-10
2.56618e-10
2.56617e-10
2.56617e-10
2.56616e-10
2.56615e-10
2.56615e-10
2.56614e-10
2.56613e-10
2.56612e-10
2.5661e-10
2.56609e-10
2.56608e-10
2.56607e-10
2.56605e-10
2.56604e-10
2.56602e-10
2.56601e-10
2.56599e-10
2.56598e-10
2.56596e-10
2.56594e-10
2.56592e-10
2.5659e-10
2.56588e-10
2.56586e-10
2.56584e-10
2.56582e-10
2.5658e-10
2.56577e-10
2.56575e-10
2.56572e-10
2.5657e-10
2.56567e-10
2.56564e-10
2.56561e-10
2.56558e-10
2.56554e-10
2.56551e-10
2.56547e-10
2.56543e-10
2.56539e-10
2.56534e-10
2.56529e-10
2.56524e-10
2.56519e-10
2.56514e-10
2.56508e-10
2.56501e-10
2.56495e-10
2.56488e-10
2.5648e-10
2.56473e-10
2.56465e-10
2.56456e-10
2.56447e-10
2.56438e-10
2.56429e-10
2.56419e-10
2.56408e-10
2.56398e-10
2.56387e-10
2.56376e-10
2.56364e-10
2.56352e-10
2.5634e-10
2.56328e-10
2.56316e-10
2.56303e-10
2.56291e-10
2.56278e-10
2.56266e-10
2.56253e-10
2.56241e-10
2.56229e-10
2.56217e-10
2.56206e-10
2.56194e-10
2.56184e-10
2.56173e-10
2.56163e-10
2.56154e-10
2.56146e-10
2.56138e-10
2.56131e-10
2.56124e-10
2.56119e-10
2.56114e-10
2.5611e-10
2.56108e-10
2.56106e-10
2.56105e-10
2.56104e-10
2.56104e-10
2.56105e-10
2.56106e-10
2.5611e-10
2.56114e-10
2.5612e-10
2.56126e-10
2.56132e-10
2.5614e-10
2.56147e-10
2.56156e-10
2.56165e-10
2.56175e-10
2.56184e-10
2.56195e-10
2.56205e-10
2.56216e-10
2.56226e-10
2.56237e-10
2.56248e-10
2.56259e-10
2.5627e-10
2.5628e-10
2.56291e-10
2.56301e-10
2.56311e-10
2.5632e-10
2.5633e-10
2.56339e-10
2.56347e-10
2.56355e-10
2.56363e-10
2.56371e-10
2.56378e-10
2.56385e-10
2.56391e-10
2.56398e-10
2.56403e-10
2.56409e-10
2.56414e-10
2.56419e-10
2.56424e-10
2.56428e-10
2.56433e-10
2.56437e-10
2.56441e-10
2.56445e-10
2.56449e-10
2.56453e-10
2.56456e-10
2.5646e-10
2.56464e-10
2.56467e-10
2.56471e-10
2.56475e-10
2.56478e-10
)
;

boundaryField
{
    inlet
    {
        type            calculated;
        value           uniform -1.13622e-09;
    }
    outlet
    {
        type            calculated;
        value           uniform 2.56482e-10;
    }
    emptyWalls
    {
        type            empty;
        value           nonuniform List<scalar> 0();
    }
}


// ************************************************************************* //
