/*--------------------------------*- C++ -*----------------------------------*\
  =========                 |
  \\      /  F ield         | OpenFOAM: The Open Source CFD Toolbox
   \\    /   O peration     | Website:  https://openfoam.org
    \\  /    A nd           | Version:  9
     \\/     M anipulation  |
\*---------------------------------------------------------------------------*/
FoamFile
{
    format      ascii;
    class       volVectorField;
    location    "19600";
    object      Ua;
}
// * * * * * * * * * * * * * * * * * * * * * * * * * * * * * * * * * * * * * //

dimensions      [0 0 0 0 0 0 0];

internalField   nonuniform List<vector> 
1000
(
(2.74901e-06 0 0)
(2.74877e-06 0 0)
(2.74865e-06 0 0)
(2.74844e-06 0 0)
(2.74809e-06 0 0)
(2.74769e-06 0 0)
(2.7472e-06 0 0)
(2.74665e-06 0 0)
(2.74615e-06 0 0)
(2.74547e-06 0 0)
(2.74486e-06 0 0)
(2.7441e-06 0 0)
(2.74326e-06 0 0)
(2.74242e-06 0 0)
(2.74148e-06 0 0)
(2.7406e-06 0 0)
(2.73968e-06 0 0)
(2.73878e-06 0 0)
(2.73791e-06 0 0)
(2.73709e-06 0 0)
(2.73635e-06 0 0)
(2.7357e-06 0 0)
(2.73515e-06 0 0)
(2.7344e-06 0 0)
(2.73277e-06 0 0)
(2.72669e-06 0 0)
(2.70053e-06 0 0)
(2.55251e-06 0 0)
(2.29813e-06 0 0)
(2.14932e-06 0 0)
(2.12321e-06 0 0)
(2.11663e-06 0 0)
(2.11335e-06 0 0)
(2.10998e-06 0 0)
(2.10623e-06 0 0)
(2.10236e-06 0 0)
(2.09862e-06 0 0)
(2.09509e-06 0 0)
(2.09179e-06 0 0)
(2.0887e-06 0 0)
(2.08582e-06 0 0)
(2.08312e-06 0 0)
(2.0806e-06 0 0)
(2.07822e-06 0 0)
(2.07598e-06 0 0)
(2.07388e-06 0 0)
(2.0719e-06 0 0)
(2.07002e-06 0 0)
(2.06824e-06 0 0)
(2.06656e-06 0 0)
(2.06496e-06 0 0)
(2.06345e-06 0 0)
(2.06203e-06 0 0)
(2.06068e-06 0 0)
(2.05939e-06 0 0)
(2.05817e-06 0 0)
(2.05701e-06 0 0)
(2.05591e-06 0 0)
(2.05485e-06 0 0)
(2.05385e-06 0 0)
(2.0529e-06 0 0)
(2.05201e-06 0 0)
(2.05116e-06 0 0)
(2.05038e-06 0 0)
(2.04966e-06 0 0)
(2.04899e-06 0 0)
(2.04837e-06 0 0)
(2.04782e-06 0 0)
(2.04733e-06 0 0)
(2.0469e-06 0 0)
(2.04653e-06 0 0)
(2.04621e-06 0 0)
(2.04594e-06 0 0)
(2.04571e-06 0 0)
(2.04553e-06 0 0)
(2.0454e-06 0 0)
(2.04532e-06 0 0)
(2.04529e-06 0 0)
(2.04525e-06 0 0)
(2.04522e-06 0 0)
(2.0452e-06 0 0)
(2.0452e-06 0 0)
(2.04525e-06 0 0)
(2.04534e-06 0 0)
(2.04545e-06 0 0)
(2.04557e-06 0 0)
(2.04567e-06 0 0)
(2.04572e-06 0 0)
(2.04573e-06 0 0)
(2.0457e-06 0 0)
(2.04565e-06 0 0)
(2.04557e-06 0 0)
(2.04551e-06 0 0)
(2.0455e-06 0 0)
(2.04563e-06 0 0)
(2.04601e-06 0 0)
(2.04673e-06 0 0)
(2.04786e-06 0 0)
(2.04942e-06 0 0)
(2.05138e-06 0 0)
(2.05365e-06 0 0)
(2.05615e-06 0 0)
(2.05877e-06 0 0)
(2.06143e-06 0 0)
(2.06406e-06 0 0)
(2.06662e-06 0 0)
(2.06903e-06 0 0)
(2.07123e-06 0 0)
(2.07313e-06 0 0)
(2.07466e-06 0 0)
(2.0757e-06 0 0)
(2.0762e-06 0 0)
(2.07608e-06 0 0)
(2.07533e-06 0 0)
(2.07396e-06 0 0)
(2.07203e-06 0 0)
(2.06963e-06 0 0)
(2.06686e-06 0 0)
(2.06385e-06 0 0)
(2.06073e-06 0 0)
(2.05763e-06 0 0)
(2.05466e-06 0 0)
(2.0519e-06 0 0)
(2.04943e-06 0 0)
(2.04727e-06 0 0)
(2.04546e-06 0 0)
(2.044e-06 0 0)
(2.04285e-06 0 0)
(2.042e-06 0 0)
(2.0414e-06 0 0)
(2.04101e-06 0 0)
(2.04077e-06 0 0)
(2.04066e-06 0 0)
(2.04061e-06 0 0)
(2.0406e-06 0 0)
(2.0406e-06 0 0)
(2.04059e-06 0 0)
(2.04053e-06 0 0)
(2.04044e-06 0 0)
(2.04029e-06 0 0)
(2.04008e-06 0 0)
(2.03982e-06 0 0)
(2.03951e-06 0 0)
(2.03916e-06 0 0)
(2.03876e-06 0 0)
(2.03834e-06 0 0)
(2.03788e-06 0 0)
(2.0374e-06 0 0)
(2.03691e-06 0 0)
(2.0364e-06 0 0)
(2.03589e-06 0 0)
(2.03537e-06 0 0)
(2.03486e-06 0 0)
(2.03434e-06 0 0)
(2.03383e-06 0 0)
(2.03332e-06 0 0)
(2.03282e-06 0 0)
(2.03232e-06 0 0)
(2.03184e-06 0 0)
(2.03136e-06 0 0)
(2.03089e-06 0 0)
(2.03043e-06 0 0)
(2.02998e-06 0 0)
(2.02954e-06 0 0)
(2.02911e-06 0 0)
(2.02869e-06 0 0)
(2.02828e-06 0 0)
(2.02788e-06 0 0)
(2.02749e-06 0 0)
(2.02711e-06 0 0)
(2.02674e-06 0 0)
(2.02638e-06 0 0)
(2.02603e-06 0 0)
(2.02569e-06 0 0)
(2.02537e-06 0 0)
(2.02505e-06 0 0)
(2.02475e-06 0 0)
(2.02445e-06 0 0)
(2.02417e-06 0 0)
(2.0239e-06 0 0)
(2.02364e-06 0 0)
(2.02339e-06 0 0)
(2.02315e-06 0 0)
(2.02292e-06 0 0)
(2.02271e-06 0 0)
(2.02251e-06 0 0)
(2.02233e-06 0 0)
(2.02216e-06 0 0)
(2.022e-06 0 0)
(2.02186e-06 0 0)
(2.02173e-06 0 0)
(2.0216e-06 0 0)
(2.02149e-06 0 0)
(2.02138e-06 0 0)
(2.02128e-06 0 0)
(2.02118e-06 0 0)
(2.02109e-06 0 0)
(2.02099e-06 0 0)
(2.0209e-06 0 0)
(2.02082e-06 0 0)
(2.02073e-06 0 0)
(2.02066e-06 0 0)
(2.02059e-06 0 0)
(2.02053e-06 0 0)
(2.02047e-06 0 0)
(2.02043e-06 0 0)
(2.02039e-06 0 0)
(2.02035e-06 0 0)
(2.02031e-06 0 0)
(2.02026e-06 0 0)
(2.02021e-06 0 0)
(2.02015e-06 0 0)
(2.02008e-06 0 0)
(2.02001e-06 0 0)
(2.01995e-06 0 0)
(2.0199e-06 0 0)
(2.01988e-06 0 0)
(2.01991e-06 0 0)
(2.02e-06 0 0)
(2.02018e-06 0 0)
(2.02045e-06 0 0)
(2.02084e-06 0 0)
(2.02137e-06 0 0)
(2.02203e-06 0 0)
(2.02283e-06 0 0)
(2.02378e-06 0 0)
(2.02487e-06 0 0)
(2.02609e-06 0 0)
(2.02744e-06 0 0)
(2.02889e-06 0 0)
(2.03043e-06 0 0)
(2.03203e-06 0 0)
(2.03366e-06 0 0)
(2.03529e-06 0 0)
(2.03689e-06 0 0)
(2.03841e-06 0 0)
(2.03983e-06 0 0)
(2.0411e-06 0 0)
(2.04219e-06 0 0)
(2.04306e-06 0 0)
(2.04369e-06 0 0)
(2.04406e-06 0 0)
(2.04414e-06 0 0)
(2.04393e-06 0 0)
(2.04343e-06 0 0)
(2.04266e-06 0 0)
(2.04161e-06 0 0)
(2.04034e-06 0 0)
(2.03885e-06 0 0)
(2.03721e-06 0 0)
(2.03543e-06 0 0)
(2.03358e-06 0 0)
(2.03168e-06 0 0)
(2.02978e-06 0 0)
(2.02792e-06 0 0)
(2.02613e-06 0 0)
(2.02443e-06 0 0)
(2.02285e-06 0 0)
(2.0214e-06 0 0)
(2.02008e-06 0 0)
(2.01891e-06 0 0)
(2.01787e-06 0 0)
(2.01696e-06 0 0)
(2.01618e-06 0 0)
(2.01552e-06 0 0)
(2.01495e-06 0 0)
(2.01446e-06 0 0)
(2.01405e-06 0 0)
(2.0137e-06 0 0)
(2.01338e-06 0 0)
(2.0131e-06 0 0)
(2.01284e-06 0 0)
(2.01259e-06 0 0)
(2.01234e-06 0 0)
(2.01209e-06 0 0)
(2.01182e-06 0 0)
(2.01155e-06 0 0)
(2.01125e-06 0 0)
(2.01094e-06 0 0)
(2.0106e-06 0 0)
(2.01025e-06 0 0)
(2.00988e-06 0 0)
(2.00949e-06 0 0)
(2.00908e-06 0 0)
(2.00866e-06 0 0)
(2.00823e-06 0 0)
(2.00779e-06 0 0)
(2.00734e-06 0 0)
(2.00688e-06 0 0)
(2.00641e-06 0 0)
(2.00595e-06 0 0)
(2.00548e-06 0 0)
(2.00501e-06 0 0)
(2.00454e-06 0 0)
(2.00407e-06 0 0)
(2.00361e-06 0 0)
(2.00315e-06 0 0)
(2.00269e-06 0 0)
(2.00224e-06 0 0)
(2.0018e-06 0 0)
(2.00136e-06 0 0)
(2.00092e-06 0 0)
(2.0005e-06 0 0)
(2.00008e-06 0 0)
(1.99966e-06 0 0)
(1.99926e-06 0 0)
(1.99886e-06 0 0)
(1.99847e-06 0 0)
(1.99809e-06 0 0)
(1.99772e-06 0 0)
(1.99735e-06 0 0)
(1.99699e-06 0 0)
(1.99665e-06 0 0)
(1.99631e-06 0 0)
(1.99597e-06 0 0)
(1.99565e-06 0 0)
(1.99533e-06 0 0)
(1.99503e-06 0 0)
(1.99473e-06 0 0)
(1.99444e-06 0 0)
(1.99416e-06 0 0)
(1.99389e-06 0 0)
(1.99363e-06 0 0)
(1.99338e-06 0 0)
(1.99314e-06 0 0)
(1.99291e-06 0 0)
(1.99269e-06 0 0)
(1.99248e-06 0 0)
(1.99227e-06 0 0)
(1.99208e-06 0 0)
(1.99189e-06 0 0)
(1.99172e-06 0 0)
(1.99155e-06 0 0)
(1.99139e-06 0 0)
(1.99123e-06 0 0)
(1.99109e-06 0 0)
(1.99095e-06 0 0)
(1.99081e-06 0 0)
(1.99068e-06 0 0)
(1.99056e-06 0 0)
(1.99044e-06 0 0)
(1.99033e-06 0 0)
(1.99022e-06 0 0)
(1.99012e-06 0 0)
(1.99002e-06 0 0)
(1.98992e-06 0 0)
(1.98983e-06 0 0)
(1.98975e-06 0 0)
(1.98966e-06 0 0)
(1.98958e-06 0 0)
(1.9895e-06 0 0)
(1.98942e-06 0 0)
(1.98934e-06 0 0)
(1.98926e-06 0 0)
(1.98919e-06 0 0)
(1.98912e-06 0 0)
(1.98907e-06 0 0)
(1.98902e-06 0 0)
(1.989e-06 0 0)
(1.98899e-06 0 0)
(1.98901e-06 0 0)
(1.98906e-06 0 0)
(1.98916e-06 0 0)
(1.9893e-06 0 0)
(1.98949e-06 0 0)
(1.98974e-06 0 0)
(1.99005e-06 0 0)
(1.99043e-06 0 0)
(1.99089e-06 0 0)
(1.99142e-06 0 0)
(1.99203e-06 0 0)
(1.99271e-06 0 0)
(1.99346e-06 0 0)
(1.99429e-06 0 0)
(1.99518e-06 0 0)
(1.99613e-06 0 0)
(1.99713e-06 0 0)
(1.99817e-06 0 0)
(1.99924e-06 0 0)
(2.00032e-06 0 0)
(2.0014e-06 0 0)
(2.00246e-06 0 0)
(2.00349e-06 0 0)
(2.00447e-06 0 0)
(2.00539e-06 0 0)
(2.00622e-06 0 0)
(2.00695e-06 0 0)
(2.00757e-06 0 0)
(2.00806e-06 0 0)
(2.00842e-06 0 0)
(2.00862e-06 0 0)
(2.00866e-06 0 0)
(2.00855e-06 0 0)
(2.00828e-06 0 0)
(2.00784e-06 0 0)
(2.00726e-06 0 0)
(2.00652e-06 0 0)
(2.00566e-06 0 0)
(2.00467e-06 0 0)
(2.00357e-06 0 0)
(2.00239e-06 0 0)
(2.00114e-06 0 0)
(1.99983e-06 0 0)
(1.99849e-06 0 0)
(1.99714e-06 0 0)
(1.99579e-06 0 0)
(1.99445e-06 0 0)
(1.99315e-06 0 0)
(1.99189e-06 0 0)
(1.99068e-06 0 0)
(1.98953e-06 0 0)
(1.98845e-06 0 0)
(1.98743e-06 0 0)
(1.98649e-06 0 0)
(1.98562e-06 0 0)
(1.98482e-06 0 0)
(1.98408e-06 0 0)
(1.9834e-06 0 0)
(1.98279e-06 0 0)
(1.98222e-06 0 0)
(1.9817e-06 0 0)
(1.98122e-06 0 0)
(1.98078e-06 0 0)
(1.98037e-06 0 0)
(1.97997e-06 0 0)
(1.9796e-06 0 0)
(1.97924e-06 0 0)
(1.97889e-06 0 0)
(1.97854e-06 0 0)
(1.9782e-06 0 0)
(1.97785e-06 0 0)
(1.97751e-06 0 0)
(1.97716e-06 0 0)
(1.9768e-06 0 0)
(1.97643e-06 0 0)
(1.97606e-06 0 0)
(1.97568e-06 0 0)
(1.97529e-06 0 0)
(1.9749e-06 0 0)
(1.9745e-06 0 0)
(1.97409e-06 0 0)
(1.97367e-06 0 0)
(1.97325e-06 0 0)
(1.97283e-06 0 0)
(1.9724e-06 0 0)
(1.97197e-06 0 0)
(1.97154e-06 0 0)
(1.9711e-06 0 0)
(1.97067e-06 0 0)
(1.97024e-06 0 0)
(1.96981e-06 0 0)
(1.96938e-06 0 0)
(1.96895e-06 0 0)
(1.96852e-06 0 0)
(1.9681e-06 0 0)
(1.96769e-06 0 0)
(1.96728e-06 0 0)
(1.96687e-06 0 0)
(1.96647e-06 0 0)
(1.96607e-06 0 0)
(1.96568e-06 0 0)
(1.9653e-06 0 0)
(1.96492e-06 0 0)
(1.96454e-06 0 0)
(1.96418e-06 0 0)
(1.96382e-06 0 0)
(1.96346e-06 0 0)
(1.96312e-06 0 0)
(1.96278e-06 0 0)
(1.96245e-06 0 0)
(1.96212e-06 0 0)
(1.9618e-06 0 0)
(1.96149e-06 0 0)
(1.96118e-06 0 0)
(1.96089e-06 0 0)
(1.96059e-06 0 0)
(1.96031e-06 0 0)
(1.96003e-06 0 0)
(1.95977e-06 0 0)
(1.9595e-06 0 0)
(1.95925e-06 0 0)
(1.959e-06 0 0)
(1.95876e-06 0 0)
(1.95853e-06 0 0)
(1.9583e-06 0 0)
(1.95809e-06 0 0)
(1.95787e-06 0 0)
(1.95767e-06 0 0)
(1.95747e-06 0 0)
(1.95728e-06 0 0)
(1.95709e-06 0 0)
(1.95691e-06 0 0)
(1.95674e-06 0 0)
(1.95657e-06 0 0)
(1.95641e-06 0 0)
(1.95625e-06 0 0)
(1.9561e-06 0 0)
(1.95595e-06 0 0)
(1.95581e-06 0 0)
(1.95567e-06 0 0)
(1.95554e-06 0 0)
(1.95541e-06 0 0)
(1.95528e-06 0 0)
(1.95516e-06 0 0)
(1.95504e-06 0 0)
(1.95492e-06 0 0)
(1.95481e-06 0 0)
(1.9547e-06 0 0)
(1.95459e-06 0 0)
(1.95449e-06 0 0)
(1.95439e-06 0 0)
(1.95429e-06 0 0)
(1.95421e-06 0 0)
(1.95412e-06 0 0)
(1.95405e-06 0 0)
(1.95398e-06 0 0)
(1.95392e-06 0 0)
(1.95388e-06 0 0)
(1.95385e-06 0 0)
(1.95384e-06 0 0)
(1.95384e-06 0 0)
(1.95387e-06 0 0)
(1.95393e-06 0 0)
(1.95401e-06 0 0)
(1.95413e-06 0 0)
(1.95428e-06 0 0)
(1.95446e-06 0 0)
(1.95469e-06 0 0)
(1.95495e-06 0 0)
(1.95526e-06 0 0)
(1.95562e-06 0 0)
(1.95601e-06 0 0)
(1.95645e-06 0 0)
(1.95694e-06 0 0)
(1.95747e-06 0 0)
(1.95803e-06 0 0)
(1.95864e-06 0 0)
(1.95928e-06 0 0)
(1.95995e-06 0 0)
(1.96065e-06 0 0)
(1.96136e-06 0 0)
(1.96209e-06 0 0)
(1.96283e-06 0 0)
(1.96356e-06 0 0)
(1.96429e-06 0 0)
(1.965e-06 0 0)
(1.96568e-06 0 0)
(1.96634e-06 0 0)
(1.96694e-06 0 0)
(1.9675e-06 0 0)
(1.968e-06 0 0)
(1.96843e-06 0 0)
(1.96879e-06 0 0)
(1.96907e-06 0 0)
(1.96926e-06 0 0)
(1.96936e-06 0 0)
(1.96936e-06 0 0)
(1.96927e-06 0 0)
(1.96908e-06 0 0)
(1.96879e-06 0 0)
(1.9684e-06 0 0)
(1.96792e-06 0 0)
(1.96734e-06 0 0)
(1.96668e-06 0 0)
(1.96595e-06 0 0)
(1.96513e-06 0 0)
(1.96426e-06 0 0)
(1.96333e-06 0 0)
(1.96235e-06 0 0)
(1.96134e-06 0 0)
(1.9603e-06 0 0)
(1.95924e-06 0 0)
(1.95817e-06 0 0)
(1.95711e-06 0 0)
(1.95605e-06 0 0)
(1.955e-06 0 0)
(1.95398e-06 0 0)
(1.95298e-06 0 0)
(1.95201e-06 0 0)
(1.95108e-06 0 0)
(1.95019e-06 0 0)
(1.94933e-06 0 0)
(1.94852e-06 0 0)
(1.94775e-06 0 0)
(1.94702e-06 0 0)
(1.94632e-06 0 0)
(1.94567e-06 0 0)
(1.94505e-06 0 0)
(1.94447e-06 0 0)
(1.94392e-06 0 0)
(1.9434e-06 0 0)
(1.9429e-06 0 0)
(1.94243e-06 0 0)
(1.94197e-06 0 0)
(1.94154e-06 0 0)
(1.94112e-06 0 0)
(1.94071e-06 0 0)
(1.94031e-06 0 0)
(1.93992e-06 0 0)
(1.93954e-06 0 0)
(1.93916e-06 0 0)
(1.93878e-06 0 0)
(1.9384e-06 0 0)
(1.93802e-06 0 0)
(1.93764e-06 0 0)
(1.93726e-06 0 0)
(1.93688e-06 0 0)
(1.93649e-06 0 0)
(1.9361e-06 0 0)
(1.93571e-06 0 0)
(1.93532e-06 0 0)
(1.93492e-06 0 0)
(1.93452e-06 0 0)
(1.93411e-06 0 0)
(1.9337e-06 0 0)
(1.93329e-06 0 0)
(1.93288e-06 0 0)
(1.93247e-06 0 0)
(1.93206e-06 0 0)
(1.93164e-06 0 0)
(1.93123e-06 0 0)
(1.93081e-06 0 0)
(1.9304e-06 0 0)
(1.92999e-06 0 0)
(1.92958e-06 0 0)
(1.92917e-06 0 0)
(1.92876e-06 0 0)
(1.92836e-06 0 0)
(1.92795e-06 0 0)
(1.92756e-06 0 0)
(1.92716e-06 0 0)
(1.92677e-06 0 0)
(1.92638e-06 0 0)
(1.92599e-06 0 0)
(1.92561e-06 0 0)
(1.92524e-06 0 0)
(1.92486e-06 0 0)
(1.9245e-06 0 0)
(1.92413e-06 0 0)
(1.92377e-06 0 0)
(1.92342e-06 0 0)
(1.92307e-06 0 0)
(1.92273e-06 0 0)
(1.92239e-06 0 0)
(1.92206e-06 0 0)
(1.92173e-06 0 0)
(1.9214e-06 0 0)
(1.92108e-06 0 0)
(1.92077e-06 0 0)
(1.92046e-06 0 0)
(1.92016e-06 0 0)
(1.91986e-06 0 0)
(1.91957e-06 0 0)
(1.91928e-06 0 0)
(1.919e-06 0 0)
(1.91872e-06 0 0)
(1.91845e-06 0 0)
(1.91819e-06 0 0)
(1.91793e-06 0 0)
(1.91767e-06 0 0)
(1.91742e-06 0 0)
(1.91717e-06 0 0)
(1.91693e-06 0 0)
(1.9167e-06 0 0)
(1.91646e-06 0 0)
(1.91624e-06 0 0)
(1.91601e-06 0 0)
(1.9158e-06 0 0)
(1.91558e-06 0 0)
(1.91537e-06 0 0)
(1.91517e-06 0 0)
(1.91497e-06 0 0)
(1.91477e-06 0 0)
(1.91457e-06 0 0)
(1.91438e-06 0 0)
(1.9142e-06 0 0)
(1.91401e-06 0 0)
(1.91383e-06 0 0)
(1.91366e-06 0 0)
(1.91348e-06 0 0)
(1.91332e-06 0 0)
(1.91315e-06 0 0)
(1.91299e-06 0 0)
(1.91283e-06 0 0)
(1.91268e-06 0 0)
(1.91253e-06 0 0)
(1.91239e-06 0 0)
(1.91225e-06 0 0)
(1.91212e-06 0 0)
(1.912e-06 0 0)
(1.91188e-06 0 0)
(1.91178e-06 0 0)
(1.91169e-06 0 0)
(1.9116e-06 0 0)
(1.91153e-06 0 0)
(1.91148e-06 0 0)
(1.91144e-06 0 0)
(1.91142e-06 0 0)
(1.91141e-06 0 0)
(1.91143e-06 0 0)
(1.91147e-06 0 0)
(1.91153e-06 0 0)
(1.91161e-06 0 0)
(1.91172e-06 0 0)
(1.91186e-06 0 0)
(1.91202e-06 0 0)
(1.91221e-06 0 0)
(1.91243e-06 0 0)
(1.91267e-06 0 0)
(1.91294e-06 0 0)
(1.91324e-06 0 0)
(1.91357e-06 0 0)
(1.91392e-06 0 0)
(1.91429e-06 0 0)
(1.91469e-06 0 0)
(1.9151e-06 0 0)
(1.91554e-06 0 0)
(1.91598e-06 0 0)
(1.91644e-06 0 0)
(1.91691e-06 0 0)
(1.91738e-06 0 0)
(1.91786e-06 0 0)
(1.91833e-06 0 0)
(1.91879e-06 0 0)
(1.91924e-06 0 0)
(1.91967e-06 0 0)
(1.92008e-06 0 0)
(1.92047e-06 0 0)
(1.92083e-06 0 0)
(1.92115e-06 0 0)
(1.92143e-06 0 0)
(1.92167e-06 0 0)
(1.92186e-06 0 0)
(1.92201e-06 0 0)
(1.92209e-06 0 0)
(1.92213e-06 0 0)
(1.9221e-06 0 0)
(1.92202e-06 0 0)
(1.92187e-06 0 0)
(1.92166e-06 0 0)
(1.92139e-06 0 0)
(1.92106e-06 0 0)
(1.92067e-06 0 0)
(1.92023e-06 0 0)
(1.91973e-06 0 0)
(1.91918e-06 0 0)
(1.91858e-06 0 0)
(1.91794e-06 0 0)
(1.91727e-06 0 0)
(1.91656e-06 0 0)
(1.91583e-06 0 0)
(1.91508e-06 0 0)
(1.91431e-06 0 0)
(1.91353e-06 0 0)
(1.91275e-06 0 0)
(1.91197e-06 0 0)
(1.91119e-06 0 0)
(1.91043e-06 0 0)
(1.90968e-06 0 0)
(1.90895e-06 0 0)
(1.90824e-06 0 0)
(1.90756e-06 0 0)
(1.90691e-06 0 0)
(1.90628e-06 0 0)
(1.90569e-06 0 0)
(1.90512e-06 0 0)
(1.90459e-06 0 0)
(1.90409e-06 0 0)
(1.90362e-06 0 0)
(1.90318e-06 0 0)
(1.90277e-06 0 0)
(1.90238e-06 0 0)
(1.90202e-06 0 0)
(1.90169e-06 0 0)
(1.90137e-06 0 0)
(1.90107e-06 0 0)
(1.90078e-06 0 0)
(1.90048e-06 0 0)
(1.90016e-06 0 0)
(1.89977e-06 0 0)
(1.89926e-06 0 0)
(1.89853e-06 0 0)
(1.8974e-06 0 0)
(1.89561e-06 0 0)
(1.89276e-06 0 0)
(1.88844e-06 0 0)
(1.88245e-06 0 0)
(1.87523e-06 0 0)
(1.86801e-06 0 0)
(1.86219e-06 0 0)
(1.8584e-06 0 0)
(1.85627e-06 0 0)
(1.85516e-06 0 0)
(1.85456e-06 0 0)
(1.85421e-06 0 0)
(1.85396e-06 0 0)
(1.85378e-06 0 0)
(1.85361e-06 0 0)
(1.85346e-06 0 0)
(1.85332e-06 0 0)
(1.85317e-06 0 0)
(1.85303e-06 0 0)
(1.85289e-06 0 0)
(1.85274e-06 0 0)
(1.8526e-06 0 0)
(1.85245e-06 0 0)
(1.85231e-06 0 0)
(1.85216e-06 0 0)
(1.85202e-06 0 0)
(1.85187e-06 0 0)
(1.85173e-06 0 0)
(1.85158e-06 0 0)
(1.85144e-06 0 0)
(1.85129e-06 0 0)
(1.85115e-06 0 0)
(1.85101e-06 0 0)
(1.85087e-06 0 0)
(1.85073e-06 0 0)
(1.85059e-06 0 0)
(1.85046e-06 0 0)
(1.85033e-06 0 0)
(1.8502e-06 0 0)
(1.85007e-06 0 0)
(1.84994e-06 0 0)
(1.84982e-06 0 0)
(1.8497e-06 0 0)
(1.84959e-06 0 0)
(1.84948e-06 0 0)
(1.84937e-06 0 0)
(1.84926e-06 0 0)
(1.84916e-06 0 0)
(1.84906e-06 0 0)
(1.84897e-06 0 0)
(1.84888e-06 0 0)
(1.84879e-06 0 0)
(1.84871e-06 0 0)
(1.84863e-06 0 0)
(1.84856e-06 0 0)
(1.84849e-06 0 0)
(1.84842e-06 0 0)
(1.84836e-06 0 0)
(1.8483e-06 0 0)
(1.84825e-06 0 0)
(1.8482e-06 0 0)
(1.84816e-06 0 0)
(1.84812e-06 0 0)
(1.84808e-06 0 0)
(1.84805e-06 0 0)
(1.84803e-06 0 0)
(1.848e-06 0 0)
(1.84799e-06 0 0)
(1.84798e-06 0 0)
(1.84797e-06 0 0)
(1.84796e-06 0 0)
(1.84796e-06 0 0)
(1.84796e-06 0 0)
(1.84797e-06 0 0)
(1.84798e-06 0 0)
(1.848e-06 0 0)
(1.84802e-06 0 0)
(1.84805e-06 0 0)
(1.84807e-06 0 0)
(1.84811e-06 0 0)
(1.84815e-06 0 0)
(1.84819e-06 0 0)
(1.84823e-06 0 0)
(1.84828e-06 0 0)
(1.84833e-06 0 0)
(1.84839e-06 0 0)
(1.84845e-06 0 0)
(1.84851e-06 0 0)
(1.84858e-06 0 0)
(1.84865e-06 0 0)
(1.84873e-06 0 0)
(1.84881e-06 0 0)
(1.84889e-06 0 0)
(1.84898e-06 0 0)
(1.84907e-06 0 0)
(1.84917e-06 0 0)
(1.84927e-06 0 0)
(1.84938e-06 0 0)
(1.84949e-06 0 0)
(1.84961e-06 0 0)
(1.84974e-06 0 0)
(1.84987e-06 0 0)
(1.85001e-06 0 0)
(1.85016e-06 0 0)
(1.85031e-06 0 0)
(1.85048e-06 0 0)
(1.85065e-06 0 0)
(1.85084e-06 0 0)
(1.85104e-06 0 0)
(1.85125e-06 0 0)
(1.85147e-06 0 0)
(1.8517e-06 0 0)
(1.85195e-06 0 0)
(1.85221e-06 0 0)
(1.85249e-06 0 0)
(1.85279e-06 0 0)
(1.8531e-06 0 0)
(1.85342e-06 0 0)
(1.85377e-06 0 0)
(1.85413e-06 0 0)
(1.85451e-06 0 0)
(1.85491e-06 0 0)
(1.85532e-06 0 0)
(1.85576e-06 0 0)
(1.85621e-06 0 0)
(1.85668e-06 0 0)
(1.85717e-06 0 0)
(1.85767e-06 0 0)
(1.85819e-06 0 0)
(1.85872e-06 0 0)
(1.85927e-06 0 0)
(1.85983e-06 0 0)
(1.8604e-06 0 0)
(1.86098e-06 0 0)
(1.86157e-06 0 0)
(1.86216e-06 0 0)
(1.86276e-06 0 0)
(1.86335e-06 0 0)
(1.86395e-06 0 0)
(1.86455e-06 0 0)
(1.86514e-06 0 0)
(1.86572e-06 0 0)
(1.86629e-06 0 0)
(1.86685e-06 0 0)
(1.86739e-06 0 0)
(1.86791e-06 0 0)
(1.86841e-06 0 0)
(1.86889e-06 0 0)
(1.86934e-06 0 0)
(1.86976e-06 0 0)
(1.87015e-06 0 0)
(1.87051e-06 0 0)
(1.87083e-06 0 0)
(1.87111e-06 0 0)
(1.87135e-06 0 0)
(1.87155e-06 0 0)
(1.87171e-06 0 0)
(1.87182e-06 0 0)
(1.87189e-06 0 0)
(1.87192e-06 0 0)
(1.87193e-06 0 0)
(1.87193e-06 0 0)
(1.87189e-06 0 0)
(1.87176e-06 0 0)
(1.87156e-06 0 0)
(1.87134e-06 0 0)
(1.87108e-06 0 0)
(1.87078e-06 0 0)
(1.87045e-06 0 0)
(1.87009e-06 0 0)
(1.8697e-06 0 0)
(1.86929e-06 0 0)
(1.86885e-06 0 0)
(1.86839e-06 0 0)
(1.86792e-06 0 0)
(1.86744e-06 0 0)
(1.86694e-06 0 0)
(1.86644e-06 0 0)
(1.86593e-06 0 0)
(1.86542e-06 0 0)
(1.86491e-06 0 0)
(1.8644e-06 0 0)
(1.8639e-06 0 0)
(1.8634e-06 0 0)
(1.86292e-06 0 0)
(1.86244e-06 0 0)
(1.86198e-06 0 0)
(1.86153e-06 0 0)
(1.8611e-06 0 0)
(1.86068e-06 0 0)
(1.86027e-06 0 0)
(1.85989e-06 0 0)
(1.85952e-06 0 0)
(1.85916e-06 0 0)
(1.85882e-06 0 0)
(1.8585e-06 0 0)
(1.8582e-06 0 0)
(1.85791e-06 0 0)
(1.85763e-06 0 0)
(1.85737e-06 0 0)
(1.85712e-06 0 0)
(1.85688e-06 0 0)
(1.85665e-06 0 0)
(1.85644e-06 0 0)
(1.85623e-06 0 0)
(1.85604e-06 0 0)
(1.85585e-06 0 0)
(1.85567e-06 0 0)
(1.85549e-06 0 0)
(1.85532e-06 0 0)
(1.85516e-06 0 0)
(1.85499e-06 0 0)
(1.85484e-06 0 0)
(1.85468e-06 0 0)
(1.85453e-06 0 0)
(1.85438e-06 0 0)
(1.85423e-06 0 0)
)
;

boundaryField
{
    inlet
    {
        type            fixedValue;
        value           uniform (2.74882e-06 0 0);
    }
    outlet
    {
        type            zeroGradient;
    }
    emptyWalls
    {
        type            empty;
    }
}


// ************************************************************************* //
