/*--------------------------------*- C++ -*----------------------------------*\
  =========                 |
  \\      /  F ield         | OpenFOAM: The Open Source CFD Toolbox
   \\    /   O peration     | Website:  https://openfoam.org
    \\  /    A nd           | Version:  9
     \\/     M anipulation  |
\*---------------------------------------------------------------------------*/
FoamFile
{
    format      ascii;
    class       volScalarField;
    location    "3400";
    object      Fa;
}
// * * * * * * * * * * * * * * * * * * * * * * * * * * * * * * * * * * * * * //

dimensions      [0 0 0 0 0 0 0];

internalField   nonuniform List<scalar> 
1000
(
0.195921
0.193735
0.194391
0.191234
0.168187
0.152179
0.148841
0.147543
0.146544
0.145902
0.145652
0.144891
0.144733
0.144654
0.144569
0.14448
0.144391
0.144303
0.144217
0.144133
0.144051
0.143971
0.143894
0.143818
0.143743
0.143669
0.143596
0.143524
0.143453
0.143383
0.143314
0.143243
0.143173
0.143102
0.14303
0.142958
0.142885
0.142811
0.142734
0.142656
0.142573
0.142489
0.1424
0.142309
0.142218
0.142126
0.142037
0.14195
0.141868
0.14179
0.141717
0.14165
0.141589
0.141535
0.141487
0.141447
0.141412
0.141383
0.141356
0.14133
0.141303
0.141273
0.141239
0.141202
0.141162
0.141124
0.141089
0.141063
0.141048
0.141048
0.141066
0.141104
0.141162
0.141239
0.141335
0.141446
0.141569
0.141701
0.141836
0.14197
0.142097
0.142213
0.142312
0.142389
0.142437
0.14245
0.142424
0.142354
0.142235
0.142065
0.141843
0.14157
0.14125
0.140888
0.140492
0.140072
0.139639
0.139202
0.138773
0.138362
0.137977
0.137625
0.137311
0.137036
0.136802
0.136608
0.136449
0.136324
0.136228
0.136154
0.1361
0.136058
0.136026
0.135998
0.135972
0.135942
0.135909
0.135869
0.135822
0.135767
0.135703
0.135632
0.135552
0.135467
0.135377
0.135282
0.135185
0.135085
0.134982
0.134872
0.134749
0.134598
0.134395
0.134109
0.133703
0.133174
0.132586
0.132074
0.131731
0.131542
0.131446
0.131396
0.131368
0.13135
0.131337
0.131327
0.131319
0.131312
0.131305
0.131299
0.131294
0.131289
0.131284
0.13128
0.131276
0.131273
0.13127
0.131268
0.131266
0.131264
0.131262
0.131261
0.13126
0.131259
0.131258
0.131257
0.131256
0.131255
0.131253
0.131252
0.13125
0.131248
0.131245
0.131242
0.131239
0.131234
0.13123
0.131225
0.131219
0.131212
0.131205
0.131197
0.131188
0.131179
0.131169
0.131158
0.131147
0.131135
0.131122
0.131109
0.131095
0.131081
0.131066
0.131051
0.131036
0.131021
0.131005
0.13099
0.130974
0.130959
0.130944
0.130929
0.130915
0.130901
0.130888
0.130875
0.130863
0.130852
0.130841
0.130832
0.130823
0.130816
0.13081
0.130805
0.130802
0.1308
0.130799
0.130799
0.130799
0.130801
0.130805
0.130811
0.130818
0.130827
0.130836
0.130847
0.130858
0.130871
0.130884
0.130898
0.130912
0.130928
0.130942
0.130959
0.130974
0.130991
0.131006
0.131023
0.131038
0.131054
0.131069
0.131085
0.131099
0.131114
0.131128
0.131143
0.131155
0.131169
0.131181
0.131194
0.131205
0.131217
0.131228
0.13124
0.131251
0.131262
0.131274
0.131287
0.1313
0.131315
0.131332
0.131352
0.131374
0.131401
0.131431
0.131467
0.131508
0.131556
0.13161
0.131672
0.131741
0.131818
0.131904
0.131998
0.1321
0.132211
0.132329
0.132455
0.132587
0.132726
0.132869
0.133017
0.133167
0.133318
0.133469
0.133619
0.133763
0.133903
0.134033
0.134154
0.134262
0.134356
0.134432
0.134489
0.134522
0.134536
0.134536
0.134533
0.134517
0.134439
0.134329
0.134195
0.134038
0.13386
0.133665
0.133456
0.133236
0.133011
0.132784
0.132559
0.13234
0.132131
0.131934
0.131752
0.131587
0.131439
0.131311
0.131201
0.131109
0.131036
0.13098
0.130939
0.130913
0.130899
0.130896
0.130896
0.130898
0.130915
0.130945
0.130978
0.131013
0.131049
0.131085
0.13112
0.131154
0.131186
0.131215
0.131242
0.131266
0.131287
0.131304
0.131319
0.131331
0.13134
0.131346
0.13135
0.131351
0.131351
0.131351
0.13135
0.131344
0.131336
0.131327
0.131317
0.131306
0.131295
0.131282
0.131269
0.131256
0.131242
0.131228
0.131214
0.1312
0.131185
0.13117
0.131156
0.131141
0.131127
0.131112
0.131098
0.131084
0.13107
0.131057
0.131044
0.131031
0.131018
0.131006
0.130994
0.130983
0.130972
0.130961
0.130951
0.130942
0.130933
0.130924
0.130917
0.13091
0.130903
0.130898
0.130893
0.130889
0.130886
0.130884
0.130883
0.130883
0.130883
0.130883
0.130884
0.130888
0.130892
0.130898
0.130904
0.130911
0.130919
0.130928
0.130937
0.130947
0.130957
0.130968
0.130979
0.13099
0.131001
0.131012
0.131023
0.131034
0.131044
0.131054
0.131064
0.131073
0.131081
0.131088
0.131095
0.1311
0.131105
0.131109
0.131111
0.131113
0.131113
0.131114
0.131113
0.131112
0.131109
0.131105
0.131099
0.131093
0.131086
0.131079
0.131071
0.131063
0.131054
0.131046
0.131037
0.131029
0.131021
0.131013
0.131006
0.130999
0.130993
0.130988
0.130983
0.13098
0.130978
0.130977
0.130977
0.130977
0.130977
0.13098
0.130984
0.130991
0.130999
0.131009
0.13102
0.131033
0.131048
0.131065
0.131084
0.131106
0.13113
0.131157
0.131187
0.13122
0.131256
0.131297
0.131341
0.131389
0.131441
0.131498
0.131559
0.131626
0.131696
0.131772
0.131852
0.131938
0.132027
0.132121
0.132219
0.132321
0.132425
0.132532
0.132641
0.132751
0.13286
0.132969
0.133076
0.13318
0.133278
0.133371
0.133456
0.133531
0.133595
0.133647
0.133682
0.133701
0.133705
0.133705
0.1337
0.133668
0.133592
0.133491
0.133368
0.133221
0.133054
0.132867
0.132662
0.132443
0.132212
0.131973
0.131731
0.131487
0.131247
0.131012
0.130788
0.130576
0.130379
0.130198
0.130035
0.129891
0.129766
0.12966
0.129573
0.129503
0.129451
0.129415
0.129395
0.129386
0.129386
0.129387
0.129397
0.129429
0.12947
0.129514
0.129563
0.129613
0.129666
0.129717
0.12977
0.12982
0.129871
0.129916
0.129963
0.130004
0.130043
0.130076
0.130115
0.130142
0.130165
0.13019
0.130221
0.130225
0.130221
0.130102
0.129571
0.126411
0.063685
0.00126456
7.04527e-08
3.26629e-17
2.15107e-37
5.64592e-80
2.63939e-171
0
0
0
0
0
0
0
0
0
0
0
0
0
0
0
0
0
0
0
0
0
0
0
0
0
0
0
0
0
0
0
0
0
0
0
0
0
0
0
0
0
0
0
0
0
0
0
0
0
0
0
0
0
0
0
0
0
0
0
0
0
0
0
0
0
0
0
0
0
0
0
0
0
0
0
0
0
0
0
0
0
0
0
0
0
0
0
0
0
0
0
0
0
0
0
0
0
0
0
0
0
0
0
0
0
0
0
0
0
0
0
0
0
0
0
0
0
0
0
0
0
0
0
0
0
0
0
0
0
0
0
0
0
0
0
0
0
0
0
0
0
0
0
0
0
0
0
0
0
0
0
0
0
0
0
0
0
0
0
0
0
0
0
0
0
0
0
0
0
0
0
0
0
0
0
0
0
0
0
0
0
0
0
0
0
0
0
0
0
0
0
0
0
0
0
0
0
0
0
0
0
0
0
0
0
0
0
0
0
0
0
0
0
0
0
0
0
0
0
0
0
0
0
0
0
0
0
0
0
0
0
0
0
0
0
0
0
0
0
0
0
0
0
0
0
0
0
0
0
0
0
0
0
0
0
0
0
0
0
0
0
0
0
0
0
0
0
0
0
0
0
0
0
0
0
0
0
0
0
0
0
0
0
0
0
0
0
0
0
0
0
0
0
0
0
0
0
0
0
0
0
0
0
0
0
0
0
0
0
0
0
0
0
0
0
0
0
0
0
0
0
0
0
0
0
0
0
0
0
0
0
0
0
0
0
0
0
0
0
0
0
0
0
0
0
0
0
0
0
0
0
0
0
0
0
0
0
0
0
0
0
0
0
0
0
0
0
0
0
0
0
0
0
0
0
0
0
0
0
0
0
0
0
0
0
0
0
0
0
0
0
0
0
0
0
0
0
0
0
0
0
0
0
0
0
0
0
0
0
0
0
0
0
0
0
0
0
0
0
0
0
0
0
0
0
0
0
0
0
0
)
;

boundaryField
{
    inlet
    {
        type            calculated;
        value           uniform 0.194831;
    }
    outlet
    {
        type            calculated;
        value           uniform 0;
    }
    emptyWalls
    {
        type            empty;
    }
}


// ************************************************************************* //
