/*--------------------------------*- C++ -*----------------------------------*\
  =========                 |
  \\      /  F ield         | OpenFOAM: The Open Source CFD Toolbox
   \\    /   O peration     | Website:  https://openfoam.org
    \\  /    A nd           | Version:  9
     \\/     M anipulation  |
\*---------------------------------------------------------------------------*/
FoamFile
{
    format      ascii;
    class       volScalarField;
    location    "3400";
    object      krc;
}
// * * * * * * * * * * * * * * * * * * * * * * * * * * * * * * * * * * * * * //

dimensions      [0 0 0 0 0 0 0];

internalField   nonuniform List<scalar> 
1000
(
8.50013e-06
7.75697e-05
0.000284333
0.00133875
0.014543
0.0409284
0.0482836
0.051463
0.053415
0.0548712
0.0562368
0.0582306
0.0612793
0.0650047
0.0691237
0.0734184
0.0777782
0.0821488
0.0865004
0.0908168
0.0950895
0.099313
0.103485
0.107605
0.111671
0.115685
0.119648
0.12356
0.127423
0.131237
0.135004
0.138727
0.142405
0.146041
0.149636
0.153192
0.156709
0.16019
0.163634
0.167045
0.170423
0.173769
0.177084
0.180369
0.183626
0.186856
0.190059
0.193236
0.196389
0.199518
0.202625
0.205709
0.208772
0.211815
0.214839
0.217844
0.22083
0.2238
0.226753
0.229689
0.232612
0.235519
0.238413
0.241293
0.244161
0.247018
0.249863
0.252697
0.255521
0.258335
0.261141
0.263938
0.266726
0.269508
0.272282
0.27505
0.277813
0.28057
0.283324
0.286073
0.288819
0.291563
0.294305
0.297046
0.299787
0.302528
0.305271
0.308016
0.310764
0.313515
0.316271
0.319032
0.321799
0.324573
0.327355
0.330145
0.332944
0.335752
0.338569
0.341398
0.344237
0.347089
0.349954
0.352833
0.355727
0.358638
0.361566
0.364513
0.36748
0.37047
0.373482
0.376518
0.379581
0.382672
0.385791
0.38894
0.39212
0.395332
0.398575
0.401848
0.405147
0.408465
0.411794
0.415123
0.418437
0.421722
0.424972
0.428195
0.431446
0.434859
0.438718
0.44355
0.450257
0.46022
0.475198
0.496682
0.524473
0.555388
0.584115
0.606406
0.621251
0.630099
0.635008
0.637619
0.638975
0.63967
0.640023
0.640202
0.640292
0.640337
0.64036
0.640371
0.640377
0.64038
0.640382
0.640383
0.640383
0.640383
0.640384
0.640384
0.640384
0.640384
0.640384
0.640384
0.640384
0.640384
0.640385
0.640385
0.640385
0.640385
0.640385
0.640385
0.640385
0.640386
0.640386
0.640387
0.640387
0.640387
0.640388
0.640388
0.640389
0.64039
0.64039
0.640391
0.640392
0.640393
0.640394
0.640395
0.640396
0.640397
0.640398
0.6404
0.640401
0.640402
0.640403
0.640405
0.640406
0.640407
0.640409
0.64041
0.640411
0.640413
0.640414
0.640415
0.640416
0.640417
0.640418
0.640419
0.64042
0.640421
0.640422
0.640422
0.640423
0.640423
0.640423
0.640424
0.640424
0.640424
0.640424
0.640424
0.640424
0.640424
0.640423
0.640423
0.640422
0.640422
0.640421
0.64042
0.64042
0.640419
0.640418
0.640417
0.640416
0.640416
0.640415
0.640414
0.640413
0.640412
0.640411
0.640411
0.64041
0.640409
0.640408
0.640408
0.640407
0.640406
0.640406
0.640405
0.640405
0.640404
0.640404
0.640403
0.640403
0.640402
0.640402
0.640401
0.6404
0.6404
0.640399
0.640398
0.640397
0.640396
0.640394
0.640392
0.64039
0.640387
0.640384
0.64038
0.640376
0.640371
0.640365
0.640359
0.640352
0.640344
0.640335
0.640326
0.640316
0.640306
0.640295
0.640283
0.640271
0.640258
0.640246
0.640233
0.64022
0.640208
0.640195
0.640184
0.640173
0.640162
0.640153
0.640145
0.640139
0.640134
0.640131
0.64013
0.64013
0.64013
0.640131
0.640138
0.640147
0.640158
0.640171
0.640186
0.640203
0.64022
0.640239
0.640258
0.640277
0.640296
0.640314
0.640332
0.640349
0.640364
0.640378
0.64039
0.640401
0.64041
0.640418
0.640424
0.640428
0.640432
0.640434
0.640435
0.640435
0.640435
0.640435
0.640433
0.64043
0.640428
0.640425
0.640421
0.640418
0.640415
0.640412
0.640409
0.640407
0.640405
0.640403
0.640401
0.640399
0.640398
0.640397
0.640396
0.640396
0.640395
0.640395
0.640395
0.640395
0.640395
0.640396
0.640397
0.640397
0.640398
0.640399
0.6404
0.640401
0.640402
0.640403
0.640405
0.640406
0.640407
0.640408
0.640409
0.640411
0.640412
0.640413
0.640415
0.640416
0.640417
0.640418
0.640419
0.640421
0.640422
0.640423
0.640424
0.640425
0.640426
0.640427
0.640428
0.640429
0.64043
0.640431
0.640432
0.640433
0.640434
0.640434
0.640435
0.640436
0.640436
0.640436
0.640437
0.640437
0.640437
0.640437
0.640437
0.640437
0.640437
0.640436
0.640436
0.640435
0.640434
0.640434
0.640432
0.640431
0.64043
0.640428
0.640427
0.640426
0.640425
0.640424
0.640422
0.640421
0.64042
0.640419
0.640418
0.640417
0.640416
0.640415
0.640414
0.640414
0.640413
0.640413
0.640413
0.640413
0.640413
0.640412
0.640412
0.640412
0.640412
0.640412
0.640413
0.640413
0.640414
0.640415
0.640415
0.640416
0.640417
0.640417
0.640418
0.640419
0.64042
0.640421
0.640422
0.640422
0.640423
0.640424
0.640424
0.640425
0.640425
0.640425
0.640426
0.640426
0.640426
0.640426
0.640426
0.640426
0.640425
0.640425
0.640424
0.640423
0.640423
0.640422
0.64042
0.640419
0.640417
0.640416
0.640414
0.640411
0.640409
0.640406
0.640403
0.6404
0.640396
0.640392
0.640387
0.640383
0.640377
0.640372
0.640366
0.640359
0.640353
0.640346
0.640338
0.64033
0.640322
0.640313
0.640304
0.640295
0.640286
0.640277
0.640268
0.640258
0.640249
0.640241
0.640232
0.640224
0.640217
0.640211
0.640205
0.640201
0.640198
0.640196
0.640196
0.640196
0.640197
0.640199
0.640206
0.640214
0.640224
0.640237
0.640251
0.640267
0.640284
0.640303
0.640323
0.640343
0.640363
0.640384
0.640405
0.640425
0.640444
0.640461
0.640478
0.640494
0.640508
0.64052
0.640531
0.64054
0.640547
0.640553
0.640557
0.640561
0.640562
0.640563
0.640563
0.640563
0.640562
0.640559
0.640556
0.640552
0.640548
0.640544
0.640539
0.640535
0.64053
0.640526
0.640522
0.640518
0.640514
0.64051
0.640507
0.640504
0.640501
0.640498
0.640497
0.640494
0.640492
0.640491
0.640492
0.640502
0.640547
0.640818
0.646832
0.658339
0.660148
0.660157
0.660156
0.660156
0.660156
0.660156
0.660156
0.660156
0.660156
0.660156
0.660156
0.660156
0.660156
0.660156
0.660156
0.660156
0.660156
0.660156
0.660156
0.660156
0.660156
0.660156
0.660156
0.660156
0.660156
0.660156
0.660156
0.660156
0.660156
0.660156
0.660156
0.660156
0.660156
0.660156
0.660156
0.660156
0.660156
0.660156
0.660156
0.660156
0.660156
0.660156
0.660156
0.660156
0.660156
0.660156
0.660156
0.660156
0.660156
0.660156
0.660156
0.660156
0.660156
0.660156
0.660156
0.660156
0.660156
0.660156
0.660156
0.660156
0.660156
0.660156
0.660156
0.660156
0.660156
0.660156
0.660156
0.660156
0.660156
0.660156
0.660156
0.660156
0.660156
0.660156
0.660156
0.660156
0.660156
0.660156
0.660156
0.660156
0.660156
0.660156
0.660156
0.660156
0.660156
0.660156
0.660156
0.660156
0.660156
0.660156
0.660156
0.660156
0.660156
0.660156
0.660156
0.660156
0.660156
0.660156
0.660156
0.660156
0.660156
0.660156
0.660156
0.660156
0.660156
0.660156
0.660156
0.660156
0.660156
0.660156
0.660156
0.660156
0.660156
0.660156
0.660156
0.660156
0.660156
0.660156
0.660156
0.660156
0.660156
0.660156
0.660156
0.660156
0.660156
0.660156
0.660156
0.660156
0.660156
0.660156
0.660156
0.660156
0.660156
0.660156
0.660156
0.660156
0.660156
0.660156
0.660156
0.660156
0.660156
0.660156
0.660156
0.660156
0.660156
0.660156
0.660156
0.660156
0.660156
0.660156
0.660156
0.660156
0.660156
0.660156
0.660156
0.660156
0.660156
0.660156
0.660156
0.660156
0.660156
0.660156
0.660156
0.660156
0.660156
0.660156
0.660156
0.660156
0.660156
0.660156
0.660156
0.660156
0.660156
0.660156
0.660156
0.660156
0.660156
0.660156
0.660156
0.660156
0.660156
0.660156
0.660156
0.660156
0.660156
0.660156
0.660156
0.660156
0.660156
0.660156
0.660156
0.660156
0.660156
0.660156
0.660156
0.660156
0.660156
0.660156
0.660156
0.660156
0.660156
0.660156
0.660156
0.660156
0.660156
0.660156
0.660156
0.660156
0.660156
0.660156
0.660156
0.660156
0.660156
0.660156
0.660156
0.660156
0.660156
0.660156
0.660156
0.660156
0.660156
0.660156
0.660156
0.660156
0.660156
0.660156
0.660156
0.660156
0.660156
0.660156
0.660156
0.660156
0.660156
0.660156
0.660156
0.660156
0.660156
0.660156
0.660156
0.660156
0.660156
0.660156
0.660156
0.660156
0.660156
0.660156
0.660156
0.660156
0.660156
0.660156
0.660156
0.660156
0.660156
0.660156
0.660156
0.660156
0.660156
0.660156
0.660156
0.660156
0.660156
0.660156
0.660156
0.660156
0.660156
0.660156
0.660156
0.660156
0.660156
0.660156
0.660156
0.660156
0.660156
0.660156
0.660156
0.660156
0.660156
0.660156
0.660156
0.660156
0.660156
0.660156
0.660156
0.660156
0.660156
0.660156
0.660156
0.660156
0.660156
0.660156
0.660156
0.660156
0.660156
0.660156
0.660156
0.660156
0.660156
0.660156
0.660156
0.660156
0.660156
0.660156
0.660156
0.660156
0.660156
0.660156
0.660156
0.660156
0.660156
0.660156
0.660156
0.660156
0.660156
0.660156
0.660156
0.660156
0.660156
0.660156
0.660156
0.660156
0.660156
0.660156
0.660156
0.660156
0.660156
0.660156
0.660156
0.660156
0.660156
0.660156
0.660156
0.660156
0.660156
0.660156
0.660156
0.660156
0.660156
0.660156
0.660156
0.660156
0.660156
0.660156
0.660156
0.660156
0.660156
0.660156
0.660156
0.660156
0.660156
0.660156
0.660156
0.660156
0.660156
0.660156
0.660156
0.660156
0.660156
0.660156
0.660156
0.660156
0.660156
0.660156
0.660156
0.660156
0.660156
0.660156
0.660156
0.660156
0.660156
0.660156
0.660156
0.660156
0.660156
0.660156
0.660156
0.660156
0.660156
0.660156
0.660156
0.660156
0.660156
0.660156
0.660156
0.660156
0.660156
0.660156
0.660156
0.660156
0.660156
0.660156
0.660156
0.660156
0.660156
0.660156
0.660156
0.660156
0.660156
0.660156
0.660156
0.660156
0.660156
0.660156
0.660156
0.660156
0.660156
0.660156
0.660156
0.660156
0.660156
0.660156
0.660156
0.660156
0.660156
0.660156
0.660156
0.660156
0.660156
0.660156
0.660156
0.660156
0.660156
0.660156
0.660156
0.660156
0.660156
0.660156
0.660156
0.660156
0.660156
0.660156
0.660156
0.660156
0.660156
0.660156
0.660156
)
;

boundaryField
{
    inlet
    {
        type            calculated;
        value           uniform 3.08149e-33;
    }
    outlet
    {
        type            calculated;
        value           uniform 0.660156;
    }
    emptyWalls
    {
        type            empty;
    }
}


// ************************************************************************* //
