/*--------------------------------*- C++ -*----------------------------------*\
  =========                 |
  \\      /  F ield         | OpenFOAM: The Open Source CFD Toolbox
   \\    /   O peration     | Website:  https://openfoam.org
    \\  /    A nd           | Version:  9
     \\/     M anipulation  |
\*---------------------------------------------------------------------------*/
FoamFile
{
    format      ascii;
    class       volVectorField;
    location    "3400";
    object      Uc;
}
// * * * * * * * * * * * * * * * * * * * * * * * * * * * * * * * * * * * * * //

dimensions      [0 0 0 0 0 0 0];

internalField   nonuniform List<vector> 
1000
(
(4.76482e-10 0 0)
(2.41175e-09 0 0)
(8.70515e-09 0 0)
(3.15016e-08 0 0)
(1.14883e-07 0 0)
(1.97188e-07 0 0)
(2.20483e-07 0 0)
(2.30928e-07 0 0)
(2.38108e-07 0 0)
(2.44208e-07 0 0)
(2.50879e-07 0 0)
(2.61517e-07 0 0)
(2.7819e-07 0 0)
(2.99775e-07 0 0)
(3.24668e-07 0 0)
(3.51547e-07 0 0)
(3.79708e-07 0 0)
(4.08778e-07 0 0)
(4.38543e-07 0 0)
(4.68871e-07 0 0)
(4.99677e-07 0 0)
(5.30899e-07 0 0)
(5.62493e-07 0 0)
(5.94427e-07 0 0)
(6.26674e-07 0 0)
(6.59209e-07 0 0)
(6.92018e-07 0 0)
(7.25085e-07 0 0)
(7.58398e-07 0 0)
(7.91942e-07 0 0)
(8.25711e-07 0 0)
(8.59699e-07 0 0)
(8.93899e-07 0 0)
(9.28303e-07 0 0)
(9.62908e-07 0 0)
(9.97712e-07 0 0)
(1.03271e-06 0 0)
(1.0679e-06 0 0)
(1.10329e-06 0 0)
(1.13886e-06 0 0)
(1.17462e-06 0 0)
(1.21058e-06 0 0)
(1.24672e-06 0 0)
(1.28304e-06 0 0)
(1.31956e-06 0 0)
(1.35625e-06 0 0)
(1.39313e-06 0 0)
(1.43019e-06 0 0)
(1.46743e-06 0 0)
(1.50485e-06 0 0)
(1.54245e-06 0 0)
(1.58023e-06 0 0)
(1.61819e-06 0 0)
(1.65632e-06 0 0)
(1.69464e-06 0 0)
(1.73313e-06 0 0)
(1.77181e-06 0 0)
(1.81068e-06 0 0)
(1.84974e-06 0 0)
(1.88899e-06 0 0)
(1.92845e-06 0 0)
(1.96812e-06 0 0)
(2.008e-06 0 0)
(2.0481e-06 0 0)
(2.08841e-06 0 0)
(2.12894e-06 0 0)
(2.16968e-06 0 0)
(2.21063e-06 0 0)
(2.25178e-06 0 0)
(2.29313e-06 0 0)
(2.33467e-06 0 0)
(2.37641e-06 0 0)
(2.41833e-06 0 0)
(2.46045e-06 0 0)
(2.50278e-06 0 0)
(2.54531e-06 0 0)
(2.58806e-06 0 0)
(2.63105e-06 0 0)
(2.67429e-06 0 0)
(2.71779e-06 0 0)
(2.76159e-06 0 0)
(2.8057e-06 0 0)
(2.85014e-06 0 0)
(2.89494e-06 0 0)
(2.94013e-06 0 0)
(2.98574e-06 0 0)
(3.0318e-06 0 0)
(3.07833e-06 0 0)
(3.12537e-06 0 0)
(3.17294e-06 0 0)
(3.22106e-06 0 0)
(3.26975e-06 0 0)
(3.31902e-06 0 0)
(3.36887e-06 0 0)
(3.4193e-06 0 0)
(3.47029e-06 0 0)
(3.52182e-06 0 0)
(3.57387e-06 0 0)
(3.62642e-06 0 0)
(3.67944e-06 0 0)
(3.73293e-06 0 0)
(3.78687e-06 0 0)
(3.84126e-06 0 0)
(3.8961e-06 0 0)
(3.95141e-06 0 0)
(4.0072e-06 0 0)
(4.06351e-06 0 0)
(4.12036e-06 0 0)
(4.17781e-06 0 0)
(4.23587e-06 0 0)
(4.29461e-06 0 0)
(4.35406e-06 0 0)
(4.41428e-06 0 0)
(4.4753e-06 0 0)
(4.53717e-06 0 0)
(4.59992e-06 0 0)
(4.66358e-06 0 0)
(4.72817e-06 0 0)
(4.79368e-06 0 0)
(4.86009e-06 0 0)
(4.92731e-06 0 0)
(4.99521e-06 0 0)
(5.06361e-06 0 0)
(5.13226e-06 0 0)
(5.20086e-06 0 0)
(5.26916e-06 0 0)
(5.33702e-06 0 0)
(5.40478e-06 0 0)
(5.47373e-06 0 0)
(5.54707e-06 0 0)
(5.63128e-06 0 0)
(5.73828e-06 0 0)
(5.88787e-06 0 0)
(6.10912e-06 0 0)
(6.43621e-06 0 0)
(6.89225e-06 0 0)
(7.46158e-06 0 0)
(8.07306e-06 0 0)
(8.62649e-06 0 0)
(9.04984e-06 0 0)
(9.33042e-06 0 0)
(9.49761e-06 0 0)
(9.59051e-06 0 0)
(9.64002e-06 0 0)
(9.6658e-06 0 0)
(9.67905e-06 0 0)
(9.68582e-06 0 0)
(9.68928e-06 0 0)
(9.69105e-06 0 0)
(9.69197e-06 0 0)
(9.69245e-06 0 0)
(9.69272e-06 0 0)
(9.69287e-06 0 0)
(9.69297e-06 0 0)
(9.69303e-06 0 0)
(9.69308e-06 0 0)
(9.69312e-06 0 0)
(9.69314e-06 0 0)
(9.69317e-06 0 0)
(9.69319e-06 0 0)
(9.69321e-06 0 0)
(9.69323e-06 0 0)
(9.69324e-06 0 0)
(9.69325e-06 0 0)
(9.69326e-06 0 0)
(9.69327e-06 0 0)
(9.69328e-06 0 0)
(9.6933e-06 0 0)
(9.69331e-06 0 0)
(9.69333e-06 0 0)
(9.69335e-06 0 0)
(9.69337e-06 0 0)
(9.6934e-06 0 0)
(9.69344e-06 0 0)
(9.69348e-06 0 0)
(9.69352e-06 0 0)
(9.69358e-06 0 0)
(9.69364e-06 0 0)
(9.6937e-06 0 0)
(9.69377e-06 0 0)
(9.69385e-06 0 0)
(9.69394e-06 0 0)
(9.69403e-06 0 0)
(9.69414e-06 0 0)
(9.69425e-06 0 0)
(9.69437e-06 0 0)
(9.69449e-06 0 0)
(9.69463e-06 0 0)
(9.69477e-06 0 0)
(9.69492e-06 0 0)
(9.69507e-06 0 0)
(9.69523e-06 0 0)
(9.69539e-06 0 0)
(9.69556e-06 0 0)
(9.69573e-06 0 0)
(9.6959e-06 0 0)
(9.69607e-06 0 0)
(9.69624e-06 0 0)
(9.69641e-06 0 0)
(9.69658e-06 0 0)
(9.69675e-06 0 0)
(9.69691e-06 0 0)
(9.69707e-06 0 0)
(9.69722e-06 0 0)
(9.69737e-06 0 0)
(9.69751e-06 0 0)
(9.69765e-06 0 0)
(9.69777e-06 0 0)
(9.69789e-06 0 0)
(9.69799e-06 0 0)
(9.69809e-06 0 0)
(9.69817e-06 0 0)
(9.69824e-06 0 0)
(9.69829e-06 0 0)
(9.69833e-06 0 0)
(9.69835e-06 0 0)
(9.69836e-06 0 0)
(9.69837e-06 0 0)
(9.69837e-06 0 0)
(9.69835e-06 0 0)
(9.69831e-06 0 0)
(9.69825e-06 0 0)
(9.69817e-06 0 0)
(9.69808e-06 0 0)
(9.69798e-06 0 0)
(9.69787e-06 0 0)
(9.69775e-06 0 0)
(9.69761e-06 0 0)
(9.69747e-06 0 0)
(9.69732e-06 0 0)
(9.69717e-06 0 0)
(9.69701e-06 0 0)
(9.69685e-06 0 0)
(9.69668e-06 0 0)
(9.69652e-06 0 0)
(9.69635e-06 0 0)
(9.69618e-06 0 0)
(9.69601e-06 0 0)
(9.69584e-06 0 0)
(9.69568e-06 0 0)
(9.69551e-06 0 0)
(9.69535e-06 0 0)
(9.69519e-06 0 0)
(9.69504e-06 0 0)
(9.69489e-06 0 0)
(9.69475e-06 0 0)
(9.69461e-06 0 0)
(9.69448e-06 0 0)
(9.69434e-06 0 0)
(9.69422e-06 0 0)
(9.69409e-06 0 0)
(9.69397e-06 0 0)
(9.69385e-06 0 0)
(9.69373e-06 0 0)
(9.69362e-06 0 0)
(9.6935e-06 0 0)
(9.69337e-06 0 0)
(9.69324e-06 0 0)
(9.69309e-06 0 0)
(9.69293e-06 0 0)
(9.69275e-06 0 0)
(9.69253e-06 0 0)
(9.69229e-06 0 0)
(9.692e-06 0 0)
(9.69166e-06 0 0)
(9.69127e-06 0 0)
(9.69081e-06 0 0)
(9.69029e-06 0 0)
(9.68969e-06 0 0)
(9.68901e-06 0 0)
(9.68824e-06 0 0)
(9.68738e-06 0 0)
(9.68643e-06 0 0)
(9.68539e-06 0 0)
(9.68426e-06 0 0)
(9.68303e-06 0 0)
(9.68172e-06 0 0)
(9.68033e-06 0 0)
(9.67886e-06 0 0)
(9.67733e-06 0 0)
(9.67574e-06 0 0)
(9.6741e-06 0 0)
(9.67244e-06 0 0)
(9.67076e-06 0 0)
(9.66909e-06 0 0)
(9.66744e-06 0 0)
(9.66583e-06 0 0)
(9.66429e-06 0 0)
(9.66284e-06 0 0)
(9.66151e-06 0 0)
(9.66031e-06 0 0)
(9.65928e-06 0 0)
(9.65844e-06 0 0)
(9.65782e-06 0 0)
(9.65744e-06 0 0)
(9.65727e-06 0 0)
(9.65723e-06 0 0)
(9.65727e-06 0 0)
(9.65756e-06 0 0)
(9.65836e-06 0 0)
(9.65959e-06 0 0)
(9.66107e-06 0 0)
(9.66281e-06 0 0)
(9.66477e-06 0 0)
(9.66693e-06 0 0)
(9.66924e-06 0 0)
(9.67167e-06 0 0)
(9.67416e-06 0 0)
(9.67667e-06 0 0)
(9.67915e-06 0 0)
(9.68158e-06 0 0)
(9.68389e-06 0 0)
(9.68607e-06 0 0)
(9.68808e-06 0 0)
(9.68992e-06 0 0)
(9.69155e-06 0 0)
(9.69297e-06 0 0)
(9.69419e-06 0 0)
(9.69521e-06 0 0)
(9.69602e-06 0 0)
(9.69665e-06 0 0)
(9.69711e-06 0 0)
(9.6974e-06 0 0)
(9.69755e-06 0 0)
(9.69761e-06 0 0)
(9.69762e-06 0 0)
(9.69757e-06 0 0)
(9.69738e-06 0 0)
(9.69705e-06 0 0)
(9.69669e-06 0 0)
(9.6963e-06 0 0)
(9.6959e-06 0 0)
(9.6955e-06 0 0)
(9.69511e-06 0 0)
(9.69474e-06 0 0)
(9.69438e-06 0 0)
(9.69406e-06 0 0)
(9.69376e-06 0 0)
(9.6935e-06 0 0)
(9.69327e-06 0 0)
(9.69307e-06 0 0)
(9.69291e-06 0 0)
(9.69277e-06 0 0)
(9.69267e-06 0 0)
(9.6926e-06 0 0)
(9.69256e-06 0 0)
(9.69254e-06 0 0)
(9.69254e-06 0 0)
(9.69254e-06 0 0)
(9.69257e-06 0 0)
(9.69263e-06 0 0)
(9.69271e-06 0 0)
(9.69281e-06 0 0)
(9.69292e-06 0 0)
(9.69304e-06 0 0)
(9.69317e-06 0 0)
(9.69331e-06 0 0)
(9.69345e-06 0 0)
(9.6936e-06 0 0)
(9.69375e-06 0 0)
(9.69391e-06 0 0)
(9.69407e-06 0 0)
(9.69423e-06 0 0)
(9.69439e-06 0 0)
(9.69455e-06 0 0)
(9.69471e-06 0 0)
(9.69488e-06 0 0)
(9.69504e-06 0 0)
(9.6952e-06 0 0)
(9.69536e-06 0 0)
(9.69551e-06 0 0)
(9.69567e-06 0 0)
(9.69582e-06 0 0)
(9.69597e-06 0 0)
(9.69611e-06 0 0)
(9.69625e-06 0 0)
(9.69639e-06 0 0)
(9.69652e-06 0 0)
(9.69665e-06 0 0)
(9.69677e-06 0 0)
(9.69689e-06 0 0)
(9.697e-06 0 0)
(9.69711e-06 0 0)
(9.69721e-06 0 0)
(9.6973e-06 0 0)
(9.69739e-06 0 0)
(9.69747e-06 0 0)
(9.69754e-06 0 0)
(9.69761e-06 0 0)
(9.69766e-06 0 0)
(9.6977e-06 0 0)
(9.69774e-06 0 0)
(9.69776e-06 0 0)
(9.69777e-06 0 0)
(9.69778e-06 0 0)
(9.69778e-06 0 0)
(9.69778e-06 0 0)
(9.69776e-06 0 0)
(9.69772e-06 0 0)
(9.69766e-06 0 0)
(9.6976e-06 0 0)
(9.69753e-06 0 0)
(9.69744e-06 0 0)
(9.69735e-06 0 0)
(9.69724e-06 0 0)
(9.69713e-06 0 0)
(9.69701e-06 0 0)
(9.69689e-06 0 0)
(9.69677e-06 0 0)
(9.69664e-06 0 0)
(9.69652e-06 0 0)
(9.69639e-06 0 0)
(9.69626e-06 0 0)
(9.69613e-06 0 0)
(9.69601e-06 0 0)
(9.69589e-06 0 0)
(9.69578e-06 0 0)
(9.69567e-06 0 0)
(9.69557e-06 0 0)
(9.69548e-06 0 0)
(9.6954e-06 0 0)
(9.69533e-06 0 0)
(9.69527e-06 0 0)
(9.69522e-06 0 0)
(9.69518e-06 0 0)
(9.69516e-06 0 0)
(9.69514e-06 0 0)
(9.69513e-06 0 0)
(9.69513e-06 0 0)
(9.69513e-06 0 0)
(9.69515e-06 0 0)
(9.69518e-06 0 0)
(9.69524e-06 0 0)
(9.6953e-06 0 0)
(9.69537e-06 0 0)
(9.69544e-06 0 0)
(9.69553e-06 0 0)
(9.69562e-06 0 0)
(9.69571e-06 0 0)
(9.6958e-06 0 0)
(9.6959e-06 0 0)
(9.69599e-06 0 0)
(9.69609e-06 0 0)
(9.69618e-06 0 0)
(9.69627e-06 0 0)
(9.69635e-06 0 0)
(9.69643e-06 0 0)
(9.69649e-06 0 0)
(9.69655e-06 0 0)
(9.6966e-06 0 0)
(9.69664e-06 0 0)
(9.69666e-06 0 0)
(9.69668e-06 0 0)
(9.69668e-06 0 0)
(9.69668e-06 0 0)
(9.69668e-06 0 0)
(9.69665e-06 0 0)
(9.69659e-06 0 0)
(9.69652e-06 0 0)
(9.69643e-06 0 0)
(9.69633e-06 0 0)
(9.69621e-06 0 0)
(9.69606e-06 0 0)
(9.6959e-06 0 0)
(9.69571e-06 0 0)
(9.69549e-06 0 0)
(9.69525e-06 0 0)
(9.69498e-06 0 0)
(9.69468e-06 0 0)
(9.69435e-06 0 0)
(9.69398e-06 0 0)
(9.69358e-06 0 0)
(9.69313e-06 0 0)
(9.69264e-06 0 0)
(9.69211e-06 0 0)
(9.69153e-06 0 0)
(9.69089e-06 0 0)
(9.69021e-06 0 0)
(9.68948e-06 0 0)
(9.68869e-06 0 0)
(9.68785e-06 0 0)
(9.68696e-06 0 0)
(9.68601e-06 0 0)
(9.68502e-06 0 0)
(9.68398e-06 0 0)
(9.68289e-06 0 0)
(9.68177e-06 0 0)
(9.68061e-06 0 0)
(9.67942e-06 0 0)
(9.67821e-06 0 0)
(9.677e-06 0 0)
(9.67578e-06 0 0)
(9.67458e-06 0 0)
(9.67339e-06 0 0)
(9.67225e-06 0 0)
(9.67115e-06 0 0)
(9.67013e-06 0 0)
(9.66919e-06 0 0)
(9.66835e-06 0 0)
(9.66765e-06 0 0)
(9.66709e-06 0 0)
(9.6667e-06 0 0)
(9.66649e-06 0 0)
(9.66641e-06 0 0)
(9.6664e-06 0 0)
(9.66647e-06 0 0)
(9.66689e-06 0 0)
(9.66772e-06 0 0)
(9.66883e-06 0 0)
(9.6702e-06 0 0)
(9.67182e-06 0 0)
(9.67368e-06 0 0)
(9.67576e-06 0 0)
(9.67802e-06 0 0)
(9.68045e-06 0 0)
(9.683e-06 0 0)
(9.68565e-06 0 0)
(9.68834e-06 0 0)
(9.69103e-06 0 0)
(9.69369e-06 0 0)
(9.69629e-06 0 0)
(9.69877e-06 0 0)
(9.70112e-06 0 0)
(9.7033e-06 0 0)
(9.70531e-06 0 0)
(9.70712e-06 0 0)
(9.70872e-06 0 0)
(9.71011e-06 0 0)
(9.71129e-06 0 0)
(9.71226e-06 0 0)
(9.71303e-06 0 0)
(9.71361e-06 0 0)
(9.71401e-06 0 0)
(9.71425e-06 0 0)
(9.71436e-06 0 0)
(9.71439e-06 0 0)
(9.71436e-06 0 0)
(9.71421e-06 0 0)
(9.71388e-06 0 0)
(9.71344e-06 0 0)
(9.71294e-06 0 0)
(9.71241e-06 0 0)
(9.71185e-06 0 0)
(9.71127e-06 0 0)
(9.71069e-06 0 0)
(9.71012e-06 0 0)
(9.70955e-06 0 0)
(9.70901e-06 0 0)
(9.70849e-06 0 0)
(9.70799e-06 0 0)
(9.70752e-06 0 0)
(9.70709e-06 0 0)
(9.70669e-06 0 0)
(9.70631e-06 0 0)
(9.70599e-06 0 0)
(9.70572e-06 0 0)
(9.70543e-06 0 0)
(9.70518e-06 0 0)
(9.70507e-06 0 0)
(9.70512e-06 0 0)
(9.70713e-06 0 0)
(9.71661e-06 0 0)
(9.77123e-06 0 0)
(1.0299e-05 0 0)
(1.09587e-05 0 0)
(1.11407e-05 0 0)
(1.11438e-05 0 0)
(1.11437e-05 0 0)
(1.11437e-05 0 0)
(1.11437e-05 0 0)
(1.11437e-05 0 0)
(1.11437e-05 0 0)
(1.11437e-05 0 0)
(1.11437e-05 0 0)
(1.11437e-05 0 0)
(1.11437e-05 0 0)
(1.11437e-05 0 0)
(1.11437e-05 0 0)
(1.11437e-05 0 0)
(1.11437e-05 0 0)
(1.11437e-05 0 0)
(1.11437e-05 0 0)
(1.11437e-05 0 0)
(1.11437e-05 0 0)
(1.11437e-05 0 0)
(1.11437e-05 0 0)
(1.11437e-05 0 0)
(1.11437e-05 0 0)
(1.11437e-05 0 0)
(1.11437e-05 0 0)
(1.11437e-05 0 0)
(1.11437e-05 0 0)
(1.11437e-05 0 0)
(1.11437e-05 0 0)
(1.11437e-05 0 0)
(1.11437e-05 0 0)
(1.11437e-05 0 0)
(1.11437e-05 0 0)
(1.11437e-05 0 0)
(1.11437e-05 0 0)
(1.11437e-05 0 0)
(1.11437e-05 0 0)
(1.11437e-05 0 0)
(1.11437e-05 0 0)
(1.11437e-05 0 0)
(1.11437e-05 0 0)
(1.11437e-05 0 0)
(1.11437e-05 0 0)
(1.11437e-05 0 0)
(1.11437e-05 0 0)
(1.11437e-05 0 0)
(1.11437e-05 0 0)
(1.11437e-05 0 0)
(1.11437e-05 0 0)
(1.11437e-05 0 0)
(1.11437e-05 0 0)
(1.11437e-05 0 0)
(1.11437e-05 0 0)
(1.11437e-05 0 0)
(1.11437e-05 0 0)
(1.11437e-05 0 0)
(1.11437e-05 0 0)
(1.11437e-05 0 0)
(1.11437e-05 0 0)
(1.11437e-05 0 0)
(1.11437e-05 0 0)
(1.11437e-05 0 0)
(1.11437e-05 0 0)
(1.11437e-05 0 0)
(1.11437e-05 0 0)
(1.11437e-05 0 0)
(1.11437e-05 0 0)
(1.11437e-05 0 0)
(1.11437e-05 0 0)
(1.11437e-05 0 0)
(1.11437e-05 0 0)
(1.11437e-05 0 0)
(1.11437e-05 0 0)
(1.11437e-05 0 0)
(1.11437e-05 0 0)
(1.11437e-05 0 0)
(1.11437e-05 0 0)
(1.11437e-05 0 0)
(1.11437e-05 0 0)
(1.11437e-05 0 0)
(1.11437e-05 0 0)
(1.11437e-05 0 0)
(1.11437e-05 0 0)
(1.11437e-05 0 0)
(1.11437e-05 0 0)
(1.11437e-05 0 0)
(1.11437e-05 0 0)
(1.11437e-05 0 0)
(1.11437e-05 0 0)
(1.11437e-05 0 0)
(1.11437e-05 0 0)
(1.11437e-05 0 0)
(1.11437e-05 0 0)
(1.11437e-05 0 0)
(1.11437e-05 0 0)
(1.11437e-05 0 0)
(1.11437e-05 0 0)
(1.11437e-05 0 0)
(1.11437e-05 0 0)
(1.11437e-05 0 0)
(1.11437e-05 0 0)
(1.11437e-05 0 0)
(1.11437e-05 0 0)
(1.11437e-05 0 0)
(1.11437e-05 0 0)
(1.11437e-05 0 0)
(1.11437e-05 0 0)
(1.11437e-05 0 0)
(1.11437e-05 0 0)
(1.11437e-05 0 0)
(1.11437e-05 0 0)
(1.11437e-05 0 0)
(1.11437e-05 0 0)
(1.11437e-05 0 0)
(1.11437e-05 0 0)
(1.11437e-05 0 0)
(1.11437e-05 0 0)
(1.11437e-05 0 0)
(1.11437e-05 0 0)
(1.11437e-05 0 0)
(1.11437e-05 0 0)
(1.11437e-05 0 0)
(1.11437e-05 0 0)
(1.11437e-05 0 0)
(1.11437e-05 0 0)
(1.11437e-05 0 0)
(1.11437e-05 0 0)
(1.11437e-05 0 0)
(1.11437e-05 0 0)
(1.11437e-05 0 0)
(1.11437e-05 0 0)
(1.11437e-05 0 0)
(1.11437e-05 0 0)
(1.11437e-05 0 0)
(1.11437e-05 0 0)
(1.11437e-05 0 0)
(1.11437e-05 0 0)
(1.11437e-05 0 0)
(1.11437e-05 0 0)
(1.11437e-05 0 0)
(1.11437e-05 0 0)
(1.11437e-05 0 0)
(1.11437e-05 0 0)
(1.11437e-05 0 0)
(1.11437e-05 0 0)
(1.11437e-05 0 0)
(1.11437e-05 0 0)
(1.11437e-05 0 0)
(1.11437e-05 0 0)
(1.11437e-05 0 0)
(1.11437e-05 0 0)
(1.11437e-05 0 0)
(1.11437e-05 0 0)
(1.11437e-05 0 0)
(1.11437e-05 0 0)
(1.11437e-05 0 0)
(1.11437e-05 0 0)
(1.11437e-05 0 0)
(1.11437e-05 0 0)
(1.11437e-05 0 0)
(1.11437e-05 0 0)
(1.11437e-05 0 0)
(1.11437e-05 0 0)
(1.11437e-05 0 0)
(1.11437e-05 0 0)
(1.11437e-05 0 0)
(1.11437e-05 0 0)
(1.11437e-05 0 0)
(1.11437e-05 0 0)
(1.11437e-05 0 0)
(1.11437e-05 0 0)
(1.11437e-05 0 0)
(1.11437e-05 0 0)
(1.11437e-05 0 0)
(1.11437e-05 0 0)
(1.11437e-05 0 0)
(1.11437e-05 0 0)
(1.11437e-05 0 0)
(1.11437e-05 0 0)
(1.11437e-05 0 0)
(1.11437e-05 0 0)
(1.11437e-05 0 0)
(1.11437e-05 0 0)
(1.11437e-05 0 0)
(1.11437e-05 0 0)
(1.11437e-05 0 0)
(1.11437e-05 0 0)
(1.11437e-05 0 0)
(1.11437e-05 0 0)
(1.11437e-05 0 0)
(1.11437e-05 0 0)
(1.11437e-05 0 0)
(1.11437e-05 0 0)
(1.11437e-05 0 0)
(1.11437e-05 0 0)
(1.11437e-05 0 0)
(1.11437e-05 0 0)
(1.11437e-05 0 0)
(1.11437e-05 0 0)
(1.11437e-05 0 0)
(1.11437e-05 0 0)
(1.11437e-05 0 0)
(1.11437e-05 0 0)
(1.11437e-05 0 0)
(1.11437e-05 0 0)
(1.11437e-05 0 0)
(1.11437e-05 0 0)
(1.11437e-05 0 0)
(1.11437e-05 0 0)
(1.11437e-05 0 0)
(1.11437e-05 0 0)
(1.11437e-05 0 0)
(1.11437e-05 0 0)
(1.11437e-05 0 0)
(1.11437e-05 0 0)
(1.11437e-05 0 0)
(1.11437e-05 0 0)
(1.11437e-05 0 0)
(1.11437e-05 0 0)
(1.11437e-05 0 0)
(1.11437e-05 0 0)
(1.11437e-05 0 0)
(1.11437e-05 0 0)
(1.11437e-05 0 0)
(1.11437e-05 0 0)
(1.11437e-05 0 0)
(1.11437e-05 0 0)
(1.11437e-05 0 0)
(1.11437e-05 0 0)
(1.11437e-05 0 0)
(1.11437e-05 0 0)
(1.11437e-05 0 0)
(1.11437e-05 0 0)
(1.11437e-05 0 0)
(1.11437e-05 0 0)
(1.11437e-05 0 0)
(1.11437e-05 0 0)
(1.11437e-05 0 0)
(1.11437e-05 0 0)
(1.11437e-05 0 0)
(1.11437e-05 0 0)
(1.11437e-05 0 0)
(1.11437e-05 0 0)
(1.11437e-05 0 0)
(1.11437e-05 0 0)
(1.11437e-05 0 0)
(1.11437e-05 0 0)
(1.11437e-05 0 0)
(1.11437e-05 0 0)
(1.11437e-05 0 0)
(1.11437e-05 0 0)
(1.11437e-05 0 0)
(1.11437e-05 0 0)
(1.11437e-05 0 0)
(1.11437e-05 0 0)
(1.11437e-05 0 0)
(1.11437e-05 0 0)
(1.11437e-05 0 0)
(1.11437e-05 0 0)
(1.11437e-05 0 0)
(1.11437e-05 0 0)
(1.11437e-05 0 0)
(1.11437e-05 0 0)
(1.11437e-05 0 0)
(1.11437e-05 0 0)
(1.11437e-05 0 0)
(1.11437e-05 0 0)
(1.11437e-05 0 0)
(1.11437e-05 0 0)
(1.11437e-05 0 0)
(1.11437e-05 0 0)
(1.11437e-05 0 0)
(1.11437e-05 0 0)
(1.11437e-05 0 0)
(1.11437e-05 0 0)
(1.11437e-05 0 0)
(1.11437e-05 0 0)
(1.11437e-05 0 0)
(1.11437e-05 0 0)
(1.11437e-05 0 0)
(1.11437e-05 0 0)
(1.11437e-05 0 0)
(1.11437e-05 0 0)
(1.11437e-05 0 0)
(1.11437e-05 0 0)
(1.11437e-05 0 0)
(1.11437e-05 0 0)
(1.11437e-05 0 0)
(1.11437e-05 0 0)
(1.11437e-05 0 0)
(1.11437e-05 0 0)
(1.11437e-05 0 0)
(1.11437e-05 0 0)
(1.11437e-05 0 0)
(1.11437e-05 0 0)
(1.11437e-05 0 0)
(1.11437e-05 0 0)
(1.11437e-05 0 0)
(1.11437e-05 0 0)
(1.11437e-05 0 0)
(1.11437e-05 0 0)
(1.11437e-05 0 0)
(1.11437e-05 0 0)
(1.11437e-05 0 0)
(1.11437e-05 0 0)
(1.11437e-05 0 0)
(1.11437e-05 0 0)
(1.11437e-05 0 0)
(1.11437e-05 0 0)
(1.11437e-05 0 0)
(1.11437e-05 0 0)
(1.11437e-05 0 0)
(1.11437e-05 0 0)
(1.11437e-05 0 0)
(1.11437e-05 0 0)
(1.11437e-05 0 0)
(1.11437e-05 0 0)
(1.11437e-05 0 0)
(1.11437e-05 0 0)
(1.11437e-05 0 0)
(1.11437e-05 0 0)
(1.11437e-05 0 0)
(1.11437e-05 0 0)
(1.11437e-05 0 0)
(1.11437e-05 0 0)
(1.11437e-05 0 0)
(1.11437e-05 0 0)
(1.11437e-05 0 0)
(1.11437e-05 0 0)
(1.11437e-05 0 0)
(1.11437e-05 0 0)
(1.11437e-05 0 0)
(1.11437e-05 0 0)
(1.11437e-05 0 0)
(1.11437e-05 0 0)
(1.11437e-05 0 0)
(1.11437e-05 0 0)
(1.11437e-05 0 0)
(1.11437e-05 0 0)
(1.11437e-05 0 0)
(1.11437e-05 0 0)
(1.11437e-05 0 0)
(1.11437e-05 0 0)
(1.11437e-05 0 0)
(1.11437e-05 0 0)
(1.11437e-05 0 0)
(1.11437e-05 0 0)
(1.11437e-05 0 0)
(1.11437e-05 0 0)
(1.11437e-05 0 0)
(1.11437e-05 0 0)
(1.11437e-05 0 0)
(1.11437e-05 0 0)
(1.11437e-05 0 0)
(1.11437e-05 0 0)
(1.11437e-05 0 0)
(1.11437e-05 0 0)
(1.11437e-05 0 0)
(1.11437e-05 0 0)
(1.11437e-05 0 0)
(1.11437e-05 0 0)
(1.11437e-05 0 0)
(1.11437e-05 0 0)
(1.11437e-05 0 0)
(1.11437e-05 0 0)
(1.11437e-05 0 0)
(1.11437e-05 0 0)
(1.11437e-05 0 0)
(1.11437e-05 0 0)
(1.11437e-05 0 0)
(1.11437e-05 0 0)
(1.11437e-05 0 0)
(1.11437e-05 0 0)
(1.11437e-05 0 0)
(1.11437e-05 0 0)
(1.11437e-05 0 0)
(1.11437e-05 0 0)
(1.11437e-05 0 0)
(1.11437e-05 0 0)
(1.11437e-05 0 0)
(1.11437e-05 0 0)
(1.11437e-05 0 0)
(1.11437e-05 0 0)
(1.11437e-05 0 0)
(1.11437e-05 0 0)
(1.11437e-05 0 0)
(1.11437e-05 0 0)
(1.11437e-05 0 0)
(1.11437e-05 0 0)
(1.11437e-05 0 0)
(1.11437e-05 0 0)
(1.11437e-05 0 0)
(1.11437e-05 0 0)
(1.11437e-05 0 0)
(1.11437e-05 0 0)
(1.11437e-05 0 0)
(1.11437e-05 0 0)
(1.11437e-05 0 0)
(1.11437e-05 0 0)
(1.11437e-05 0 0)
(1.11437e-05 0 0)
(1.11437e-05 0 0)
(1.11437e-05 0 0)
(1.11437e-05 0 0)
(1.11437e-05 0 0)
(1.11437e-05 0 0)
(1.11437e-05 0 0)
(1.11437e-05 0 0)
(1.11437e-05 0 0)
(1.11437e-05 0 0)
(1.11437e-05 0 0)
(1.11437e-05 0 0)
(1.11437e-05 0 0)
(1.11437e-05 0 0)
(1.11437e-05 0 0)
(1.11437e-05 0 0)
(1.11437e-05 0 0)
(1.11437e-05 0 0)
(1.11437e-05 0 0)
(1.11437e-05 0 0)
(1.11437e-05 0 0)
(1.11437e-05 0 0)
(1.11437e-05 0 0)
(1.11437e-05 0 0)
(1.11437e-05 0 0)
(1.11437e-05 0 0)
(1.11437e-05 0 0)
(1.11437e-05 0 0)
(1.11437e-05 0 0)
(1.11437e-05 0 0)
(1.11437e-05 0 0)
(1.11437e-05 0 0)
(1.11437e-05 0 0)
(1.11437e-05 0 0)
(1.11437e-05 0 0)
)
;

boundaryField
{
    inlet
    {
        type            fixedValue;
        value           uniform (0 0 0);
    }
    outlet
    {
        type            zeroGradient;
    }
    emptyWalls
    {
        type            empty;
    }
}


// ************************************************************************* //
