/*--------------------------------*- C++ -*----------------------------------*\
  =========                 |
  \\      /  F ield         | OpenFOAM: The Open Source CFD Toolbox
   \\    /   O peration     | Website:  https://openfoam.org
    \\  /    A nd           | Version:  9
     \\/     M anipulation  |
\*---------------------------------------------------------------------------*/
FoamFile
{
    format      ascii;
    class       volScalarField;
    location    "27850";
    object      Fb;
}
// * * * * * * * * * * * * * * * * * * * * * * * * * * * * * * * * * * * * * //

dimensions      [0 0 0 0 0 0 0];

internalField   nonuniform List<scalar> 
1000
(
0.80522
0.805166
0.805237
0.805165
0.805256
0.805176
0.805265
0.805203
0.805259
0.805243
0.805261
0.805279
0.805292
0.80531
0.805335
0.80535
0.805375
0.805403
0.805417
0.805462
0.805458
0.805526
0.80549
0.80559
0.80553
0.80564
0.805596
0.805671
0.805663
0.805699
0.805707
0.805729
0.805739
0.805755
0.805764
0.805781
0.805814
0.805962
0.806697
0.809253
0.830857
0.833869
0.83421
0.834257
0.834362
0.834523
0.834702
0.834876
0.835039
0.835189
0.835327
0.835455
0.835574
0.835684
0.835786
0.83588
0.835967
0.836049
0.836124
0.836194
0.836258
0.836316
0.836369
0.836418
0.836457
0.836498
0.836533
0.836565
0.836594
0.836622
0.836642
0.836661
0.836666
0.836675
0.83667
0.836671
0.836659
0.836662
0.836653
0.836662
0.836654
0.836649
0.836635
0.836615
0.836588
0.836554
0.836514
0.836472
0.836431
0.836394
0.836363
0.836338
0.836317
0.836295
0.836268
0.836229
0.836172
0.836093
0.835986
0.835848
0.835681
0.835487
0.835205
0.834873
0.834535
0.83424
0.833936
0.833614
0.833308
0.832998
0.832683
0.832374
0.832086
0.831833
0.831621
0.831456
0.831335
0.83125
0.831194
0.831156
0.831126
0.831093
0.83105
0.83099
0.830909
0.830804
0.830674
0.83052
0.830343
0.830145
0.82993
0.8297
0.829458
0.829209
0.828955
0.828698
0.828441
0.828185
0.827931
0.82768
0.827432
0.827187
0.826945
0.826706
0.82647
0.826235
0.826001
0.825768
0.825536
0.825304
0.825072
0.82484
0.824607
0.824374
0.82414
0.823905
0.823669
0.823433
0.823195
0.822956
0.822716
0.822476
0.822233
0.82199
0.821746
0.8215
0.821253
0.821004
0.820755
0.820505
0.820253
0.820001
0.819747
0.819493
0.819237
0.818981
0.818723
0.818464
0.818203
0.817941
0.817677
0.817412
0.817145
0.816878
0.816609
0.816339
0.816069
0.815798
0.815526
0.815255
0.814982
0.814709
0.814435
0.81416
0.813884
0.813605
0.813326
0.813045
0.812762
0.812478
0.812194
0.811909
0.811625
0.811341
0.811058
0.810776
0.810497
0.810217
0.809939
0.809659
0.809377
0.80909
0.808797
0.808495
0.808184
0.807861
0.807527
0.807178
0.806819
0.806447
0.806065
0.805671
0.805272
0.804864
0.804454
0.80404
0.80363
0.80322
0.80282
0.802426
0.802048
0.801681
0.801336
0.801006
0.800701
0.800413
0.800152
0.799907
0.799685
0.799477
0.799287
0.799105
0.798935
0.798766
0.798602
0.798434
0.798265
0.798087
0.797904
0.797709
0.797507
0.797293
0.79707
0.796836
0.796594
0.796343
0.796087
0.795822
0.795554
0.795281
0.795006
0.794728
0.79445
0.79417
0.79389
0.79361
0.793331
0.793053
0.792776
0.7925
0.792225
0.79195
0.791677
0.791404
0.791132
0.790861
0.790589
0.790318
0.790048
0.789777
0.789506
0.789234
0.788963
0.788691
0.788418
0.788145
0.787871
0.787597
0.787322
0.787046
0.78677
0.786492
0.786214
0.785935
0.785655
0.785375
0.785094
0.784811
0.784528
0.784244
0.78396
0.783674
0.783388
0.783101
0.782813
0.782523
0.782233
0.781942
0.78165
0.781357
0.781064
0.780769
0.780474
0.780177
0.779881
0.779583
0.779285
0.778985
0.778686
0.778386
0.778085
0.777783
0.777481
0.777177
0.776874
0.776568
0.776263
0.775956
0.77565
0.775341
0.775034
0.774725
0.774418
0.774109
0.773801
0.773492
0.773184
0.772875
0.772566
0.772255
0.771944
0.77163
0.771314
0.770994
0.770672
0.770343
0.770012
0.769673
0.769329
0.768978
0.768622
0.768258
0.76789
0.767513
0.767133
0.766745
0.766356
0.765961
0.765566
0.765166
0.76477
0.764372
0.76398
0.763588
0.763206
0.762826
0.762459
0.762096
0.761748
0.761406
0.761081
0.760762
0.76046
0.760165
0.759886
0.759612
0.759353
0.759096
0.758854
0.758609
0.758376
0.758138
0.757909
0.757672
0.757442
0.757202
0.756966
0.756718
0.756475
0.756217
0.755964
0.755696
0.755433
0.755155
0.754883
0.754595
0.754315
0.75402
0.753734
0.753433
0.753142
0.752837
0.752544
0.752235
0.75194
0.751631
0.751335
0.751025
0.75073
0.750419
0.750124
0.749813
0.74952
0.749209
0.748916
0.748605
0.748313
0.748002
0.747711
0.747399
0.747108
0.746796
0.746505
0.746192
0.7459
0.745587
0.745294
0.74498
0.744687
0.744371
0.744077
0.743761
0.743464
0.743147
0.742849
0.742532
0.742232
0.741913
0.741611
0.741292
0.740988
0.740669
0.740362
0.740042
0.739733
0.739412
0.739101
0.738779
0.738466
0.738144
0.737829
0.737505
0.737188
0.736863
0.736545
0.736219
0.735899
0.735572
0.735251
0.734922
0.7346
0.734269
0.733946
0.733614
0.73329
0.732957
0.732632
0.732297
0.731972
0.731635
0.731309
0.73097
0.730645
0.730304
0.729979
0.729637
0.729311
0.728967
0.728642
0.728296
0.727971
0.727623
0.727297
0.726946
0.726619
0.726263
0.725934
0.725574
0.725242
0.724875
0.724538
0.724165
0.723823
0.723442
0.723093
0.722703
0.722347
0.72195
0.721587
0.721182
0.720812
0.720401
0.720026
0.719609
0.71923
0.71881
0.71843
0.718009
0.717629
0.71721
0.716834
0.71642
0.71605
0.715644
0.715283
0.714886
0.714537
0.714152
0.713815
0.713445
0.713121
0.712764
0.712455
0.712111
0.711815
0.711484
0.711199
0.710877
0.710601
0.710287
0.710017
0.709708
0.709441
0.709134
0.708867
0.708559
0.708291
0.70798
0.707708
0.707393
0.707116
0.706795
0.706512
0.706186
0.705897
0.705564
0.70527
0.704932
0.704633
0.70429
0.703986
0.703639
0.703332
0.702982
0.702672
0.702319
0.702007
0.701653
0.70134
0.700984
0.700669
0.700313
0.699998
0.699641
0.699326
0.698969
0.698653
0.698295
0.697979
0.697622
0.697306
0.696948
0.696631
0.696273
0.695956
0.695597
0.695279
0.69492
0.694602
0.694241
0.693922
0.693561
0.693242
0.692879
0.692559
0.692196
0.691874
0.691509
0.691186
0.690821
0.690497
0.69013
0.689804
0.689436
0.68911
0.68874
0.688412
0.688042
0.687712
0.68734
0.687009
0.686636
0.686304
0.685929
0.685596
0.68522
0.684885
0.684507
0.684171
0.683793
0.683455
0.683075
0.682736
0.682355
0.682015
0.681633
0.681291
0.680908
0.680565
0.68018
0.679837
0.679451
0.679106
0.678719
0.678373
0.677984
0.677637
0.677248
0.6769
0.67651
0.676161
0.675769
0.675419
0.675026
0.674675
0.674281
0.673928
0.673532
0.673177
0.672779
0.672421
0.672021
0.671661
0.671257
0.670893
0.670486
0.670119
0.669707
0.669335
0.668919
0.668543
0.668122
0.66774
0.667314
0.666927
0.666496
0.666105
0.66567
0.665274
0.664834
0.664435
0.663992
0.66359
0.663146
0.662742
0.662297
0.661893
0.661448
0.661046
0.660603
0.660204
0.659765
0.65937
0.658935
0.658546
0.658118
0.657736
0.657315
0.65694
0.656528
0.656161
0.655757
0.655399
0.655003
0.654653
0.654264
0.653922
0.65354
0.653203
0.652827
0.652496
0.652124
0.651795
0.651426
0.651099
0.650731
0.650405
0.650036
0.649709
0.649339
0.649009
0.648637
0.648304
0.647928
0.647593
0.647213
0.646873
0.64649
0.646146
0.645759
0.645411
0.64502
0.644669
0.644275
0.643921
0.643524
0.643167
0.642767
0.642408
0.642006
0.641645
0.641241
0.640878
0.640473
0.640109
0.639702
0.639337
0.638929
0.638563
0.638155
0.637788
0.637378
0.63701
0.6366
0.636231
0.63582
0.635451
0.635039
0.634669
0.634256
0.633885
0.633471
0.633099
0.632685
0.632311
0.631896
0.631521
0.631104
0.630729
0.630311
0.629934
0.629515
0.629136
0.628716
0.628336
0.627914
0.627533
0.62711
0.626727
0.626302
0.625918
0.625492
0.625106
0.624678
0.624291
0.623862
0.623473
0.623042
0.622652
0.622219
0.621828
0.621393
0.621
0.620564
0.62017
0.619732
0.619336
0.618897
0.618499
0.618059
0.617659
0.617217
0.616816
0.616373
0.615971
0.615526
0.615122
0.614676
0.61427
0.613822
0.613415
0.612966
0.612558
0.612107
0.611697
0.611245
0.610834
0.61038
0.609967
0.609512
0.609097
0.60864
0.608223
0.607764
0.607345
0.606884
0.606462
0.605999
0.605575
0.605108
0.604681
0.604212
0.603782
0.603309
0.602876
0.6024
0.601963
0.601483
0.601042
0.600558
0.600114
0.599626
0.599178
0.598686
0.598234
0.597739
0.597284
0.596786
0.596327
0.595826
0.595365
0.594862
0.5944
0.593896
0.593432
0.592926
0.592462
0.591956
0.591492
0.590986
0.590524
0.590018
0.589562
0.589057
0.588605
0.588101
0.587653
0.587153
0.58671
0.586212
0.585775
0.58528
0.584848
0.584357
0.583931
0.583443
0.583022
0.582537
0.582122
0.581638
0.581227
0.580745
0.580338
0.579857
0.579452
0.578971
0.578568
0.578086
0.577684
0.577201
0.576798
0.576313
0.575909
0.575421
0.575016
0.574524
0.574117
0.573622
0.573213
0.572712
0.572303
0.571796
0.571385
0.570873
0.570461
0.569944
0.56953
0.569008
0.568591
0.568067
0.567647
0.567119
0.566696
0.566166
0.565741
0.565208
0.564781
0.564244
0.563816
0.563277
0.562847
0.562306
0.561873
0.56133
0.560895
0.56035
0.559914
0.559366
0.558929
0.558378
0.557942
0.557384
0.556953
0.556385
0.555962
0.55538
0.554968
0.554369
0.553972
0.553352
0.552973
0.552332
0.551969
0.551306
0.550961
0.550276
0.549949
0.549241
0.548932
0.548202
0.547911
0.547158
0.546884
0.54611
0.545851
0.545058
0.544811
0.544002
0.543765
0.542943
0.542713
0.541878
0.541654
0.54081
0.54059
0.539736
0.53952
0.538658
0.538443
0.537576
0.537359
0.536489
0.536269
0.535398
0.535174
0.5343
0.534074
0.533196
0.532967
0.532087
0.531855
0.530973
0.530736
0.529853
0.529612
0.528727
0.528483
0.527595
0.527347
0.526456
0.526207
0.525311
0.525059
0.524161
0.523905
0.523006
0.522743
0.521843
0.521575
0.520674
0.520401
0.519496
0.519219
0.518312
0.518029
0.51712
0.516832
0.51592
0.515627
0.514711
0.514413
0.513493
0.51319
0.512264
0.51196
0.511026
0.51072
0.50978
0.509526
0.00916135
)
;

boundaryField
{
    inlet
    {
        type            calculated;
        value           uniform 0.805169;
    }
    outlet
    {
        type            calculated;
        value           uniform 0.571789;
    }
    emptyWalls
    {
        type            empty;
    }
}


// ************************************************************************* //
