/*--------------------------------*- C++ -*----------------------------------*\
  =========                 |
  \\      /  F ield         | OpenFOAM: The Open Source CFD Toolbox
   \\    /   O peration     | Website:  https://openfoam.org
    \\  /    A nd           | Version:  9
     \\/     M anipulation  |
\*---------------------------------------------------------------------------*/
FoamFile
{
    format      ascii;
    class       volScalarField;
    location    "2000";
    object      kra;
}
// * * * * * * * * * * * * * * * * * * * * * * * * * * * * * * * * * * * * * //

dimensions      [0 0 0 0 0 0 0];

internalField   nonuniform List<scalar> 
100
(
3.97712e-05
2.92919e-05
3.15579e-05
3.01754e-05
2.99588e-05
2.9532e-05
2.93552e-05
2.91196e-05
2.89093e-05
2.86971e-05
2.85058e-05
2.83101e-05
2.81235e-05
2.79056e-05
2.76672e-05
2.73212e-05
2.74169e-05
2.74596e-05
2.75248e-05
2.75768e-05
2.76283e-05
2.76765e-05
2.77216e-05
2.77629e-05
2.78021e-05
2.78388e-05
2.78724e-05
2.79039e-05
2.79342e-05
2.79624e-05
2.79874e-05
2.80098e-05
2.80301e-05
2.80481e-05
2.8065e-05
2.80802e-05
2.80939e-05
2.81056e-05
2.81158e-05
2.81233e-05
2.81286e-05
2.81331e-05
2.81364e-05
2.81383e-05
2.81384e-05
2.8137e-05
2.81343e-05
2.8131e-05
2.81273e-05
2.81225e-05
2.81173e-05
2.81113e-05
2.81038e-05
2.80956e-05
2.80886e-05
2.80821e-05
2.80723e-05
2.80557e-05
2.80228e-05
2.7955e-05
2.77897e-05
2.71611e-05
2.0377e-05
9.48863e-07
9.83767e-11
2.11962e-19
3.0669e-35
3.24363e-35
2.81244e-35
2.81251e-35
3.06761e-35
3.24382e-35
3.06751e-35
3.33352e-35
3.24346e-35
3.33339e-35
3.06722e-35
3.06724e-35
3.06734e-35
3.24382e-35
2.8127e-35
3.33411e-35
3.06793e-35
3.06766e-35
3.20077e-35
8.29492e-36
1.43512e-36
1.21292e-36
1.28137e-36
1.31689e-36
1.28135e-36
1.31689e-36
1.21174e-36
1.28135e-36
1.31689e-36
1.11099e-36
1.28135e-36
1.31689e-36
1.28135e-36
1.31689e-36
)
;

boundaryField
{
    inlet
    {
        type            calculated;
        value           uniform 1.13816e-05;
    }
    outlet
    {
        type            calculated;
        value           uniform 4.72742e-37;
    }
    emptyWalls
    {
        type            empty;
    }
}


// ************************************************************************* //
