/*--------------------------------*- C++ -*----------------------------------*\
  =========                 |
  \\      /  F ield         | OpenFOAM: The Open Source CFD Toolbox
   \\    /   O peration     | Website:  https://openfoam.org
    \\  /    A nd           | Version:  9
     \\/     M anipulation  |
\*---------------------------------------------------------------------------*/
FoamFile
{
    format      ascii;
    class       volScalarField;
    location    "2000";
    object      p;
}
// * * * * * * * * * * * * * * * * * * * * * * * * * * * * * * * * * * * * * //

dimensions      [0 0 0 0 0 0 0];

internalField   nonuniform List<scalar> 
100
(
5.71947e+06
5.7113e+06
5.70022e+06
5.68995e+06
5.6792e+06
5.66836e+06
5.65742e+06
5.6464e+06
5.63531e+06
5.62415e+06
5.61292e+06
5.60163e+06
5.59029e+06
5.57888e+06
5.5674e+06
5.55583e+06
5.54422e+06
5.53269e+06
5.52121e+06
5.50978e+06
5.4984e+06
5.48707e+06
5.47579e+06
5.46455e+06
5.45336e+06
5.44221e+06
5.43111e+06
5.42005e+06
5.40903e+06
5.39806e+06
5.38713e+06
5.37624e+06
5.36539e+06
5.35458e+06
5.34381e+06
5.33308e+06
5.32239e+06
5.31173e+06
5.30112e+06
5.29054e+06
5.28e+06
5.2695e+06
5.25904e+06
5.24861e+06
5.23822e+06
5.22786e+06
5.21753e+06
5.20724e+06
5.19698e+06
5.18675e+06
5.17655e+06
5.16638e+06
5.15624e+06
5.14612e+06
5.13602e+06
5.12595e+06
5.1159e+06
5.10587e+06
5.09589e+06
5.08597e+06
5.07618e+06
5.06668e+06
5.05798e+06
5.05327e+06
5.05115e+06
5.04914e+06
5.04714e+06
5.04513e+06
5.04313e+06
5.04113e+06
5.03912e+06
5.03712e+06
5.03511e+06
5.03311e+06
5.03111e+06
5.0291e+06
5.0271e+06
5.02509e+06
5.02309e+06
5.02108e+06
5.01908e+06
5.01708e+06
5.01507e+06
5.01307e+06
5.01106e+06
5.00906e+06
5.00787e+06
5.00727e+06
5.00669e+06
5.00611e+06
5.00553e+06
5.00494e+06
5.00436e+06
5.00378e+06
5.0032e+06
5.00262e+06
5.00204e+06
5.00145e+06
5.00087e+06
5.00029e+06
)
;

boundaryField
{
    inlet
    {
        type            darcyGradPressure;
        gradient        uniform 4.07647e+06;
        Mf              Mf;
        phi             phi;
        value           uniform 5.72762e+06;
    }
    outlet
    {
        type            fixedValue;
        value           uniform 5e+06;
    }
    emptyWalls
    {
        type            empty;
    }
}


// ************************************************************************* //
