/*--------------------------------*- C++ -*----------------------------------*\
  =========                 |
  \\      /  F ield         | OpenFOAM: The Open Source CFD Toolbox
   \\    /   O peration     | Website:  https://openfoam.org
    \\  /    A nd           | Version:  9
     \\/     M anipulation  |
\*---------------------------------------------------------------------------*/
FoamFile
{
    format      ascii;
    class       surfaceScalarField;
    location    "2000";
    object      phia;
}
// * * * * * * * * * * * * * * * * * * * * * * * * * * * * * * * * * * * * * //

dimensions      [0 2 0 0 0 0 0];

internalField   nonuniform List<scalar> 
99
(
1.41986e-08
1.41841e-08
1.41678e-08
1.41361e-08
1.40918e-08
1.40915e-08
1.40826e-08
1.40697e-08
1.40532e-08
1.40353e-08
1.40164e-08
1.39958e-08
1.39724e-08
1.39433e-08
1.39071e-08
1.38682e-08
1.38317e-08
1.37989e-08
1.37645e-08
1.37306e-08
1.3697e-08
1.36632e-08
1.36284e-08
1.35929e-08
1.35572e-08
1.35207e-08
1.34834e-08
1.34462e-08
1.34087e-08
1.33704e-08
1.3331e-08
1.32911e-08
1.32504e-08
1.32094e-08
1.31684e-08
1.31272e-08
1.30855e-08
1.30436e-08
1.30012e-08
1.29579e-08
1.29145e-08
1.28715e-08
1.28286e-08
1.27856e-08
1.27428e-08
1.27e-08
1.26578e-08
1.26169e-08
1.25771e-08
1.25384e-08
1.25014e-08
1.24655e-08
1.2431e-08
1.23986e-08
1.23682e-08
1.23368e-08
1.22985e-08
1.22404e-08
1.21348e-08
1.19291e-08
1.1483e-08
1.00826e-08
2.80204e-09
4.39959e-11
4.31185e-15
9.28487e-24
2.68703e-39
2.84189e-39
2.46411e-39
2.46423e-39
2.76487e-39
2.84207e-39
2.68758e-39
2.92064e-39
2.84173e-39
2.92052e-39
2.68732e-39
2.68735e-39
2.68753e-39
2.84207e-39
2.46435e-39
2.9212e-39
2.68786e-39
2.68771e-39
2.79861e-39
2.54673e-40
3.44998e-41
3.08505e-41
3.30342e-41
3.34858e-41
3.25821e-41
3.34858e-41
3.0812e-41
3.30339e-41
3.34858e-41
2.825e-41
3.30339e-41
3.34858e-41
3.25821e-41
)
;

boundaryField
{
    inlet
    {
        type            calculated;
        value           uniform -1.42126e-08;
    }
    outlet
    {
        type            calculated;
        value           uniform 1.20208e-41;
    }
    emptyWalls
    {
        type            empty;
        value           nonuniform List<scalar> 0();
    }
}


// ************************************************************************* //
