/*--------------------------------*- C++ -*----------------------------------*\
  =========                 |
  \\      /  F ield         | OpenFOAM: The Open Source CFD Toolbox
   \\    /   O peration     | Website:  https://openfoam.org
    \\  /    A nd           | Version:  9
     \\/     M anipulation  |
\*---------------------------------------------------------------------------*/
FoamFile
{
    format      ascii;
    class       surfaceScalarField;
    location    "2000";
    object      phib;
}
// * * * * * * * * * * * * * * * * * * * * * * * * * * * * * * * * * * * * * //

dimensions      [0 2 0 0 0 0 0];

internalField   nonuniform List<scalar> 
99
(
6.09061e-09
6.08999e-09
6.08929e-09
6.10319e-09
6.12851e-09
6.10941e-09
6.0983e-09
6.09107e-09
6.08735e-09
6.08505e-09
6.08341e-09
6.08223e-09
6.08108e-09
6.0799e-09
6.07795e-09
6.07614e-09
6.07862e-09
6.0791e-09
6.08163e-09
6.08345e-09
6.08462e-09
6.08558e-09
6.08697e-09
6.08851e-09
6.08973e-09
6.09125e-09
6.09295e-09
6.09415e-09
6.09494e-09
6.09616e-09
6.09801e-09
6.10001e-09
6.10223e-09
6.10436e-09
6.10611e-09
6.10776e-09
6.10951e-09
6.11122e-09
6.1132e-09
6.11589e-09
6.11851e-09
6.12074e-09
6.1229e-09
6.12517e-09
6.12752e-09
6.13031e-09
6.13288e-09
6.13491e-09
6.13688e-09
6.13879e-09
6.14055e-09
6.14268e-09
6.14525e-09
6.14733e-09
6.14828e-09
6.14917e-09
6.15104e-09
6.15447e-09
6.16089e-09
6.17381e-09
6.20438e-09
6.33018e-09
8.09281e-09
9.12141e-09
9.15017e-09
9.15097e-09
9.14935e-09
9.14882e-09
9.14868e-09
9.14858e-09
9.14855e-09
9.14859e-09
9.14887e-09
9.14909e-09
9.1492e-09
9.14923e-09
9.14924e-09
9.14917e-09
9.14884e-09
9.14841e-09
9.14814e-09
9.14801e-09
9.14798e-09
9.14894e-09
9.29505e-09
1.82578e-08
2.00728e-08
2.0094e-08
2.00942e-08
2.00942e-08
2.00942e-08
2.00942e-08
2.00942e-08
2.00942e-08
2.00942e-08
2.00942e-08
2.00942e-08
2.00942e-08
2.00942e-08
)
;

boundaryField
{
    inlet
    {
        type            calculated;
        value           uniform -6.09112e-09;
    }
    outlet
    {
        type            calculated;
        value           uniform 2.00942e-08;
    }
    emptyWalls
    {
        type            empty;
        value           nonuniform List<scalar> 0();
    }
}


// ************************************************************************* //
