/*--------------------------------*- C++ -*----------------------------------*\
  =========                 |
  \\      /  F ield         | OpenFOAM: The Open Source CFD Toolbox
   \\    /   O peration     | Website:  https://openfoam.org
    \\  /    A nd           | Version:  9
     \\/     M anipulation  |
\*---------------------------------------------------------------------------*/
FoamFile
{
    format      ascii;
    class       surfaceScalarField;
    location    "2000";
    object      phic;
}
// * * * * * * * * * * * * * * * * * * * * * * * * * * * * * * * * * * * * * //

dimensions      [0 2 0 0 0 0 0];

internalField   nonuniform List<scalar> 
99
(
1.454e-11
2.964e-11
4.66028e-11
6.44082e-11
8.34269e-11
1.0286e-10
1.22883e-10
1.43016e-10
1.63138e-10
1.83347e-10
2.03953e-10
2.2569e-10
2.50248e-10
2.8052e-10
3.18719e-10
3.59369e-10
3.93462e-10
4.25721e-10
4.5765e-10
4.89658e-10
5.22081e-10
5.54979e-10
5.88375e-10
6.22299e-10
6.56777e-10
6.91799e-10
7.27349e-10
7.6343e-10
8.00042e-10
8.37134e-10
8.7468e-10
9.1268e-10
9.51111e-10
9.89956e-10
1.02919e-09
1.06879e-09
1.10871e-09
1.14892e-09
1.18936e-09
1.22996e-09
1.27068e-09
1.31149e-09
1.35228e-09
1.39295e-09
1.43338e-09
1.47347e-09
1.51303e-09
1.55189e-09
1.5898e-09
1.62653e-09
1.66184e-09
1.69552e-09
1.72745e-09
1.75779e-09
1.78726e-09
1.81774e-09
1.85423e-09
1.90884e-09
2.00804e-09
2.20085e-09
2.61639e-09
3.89101e-09
9.40889e-09
1.11383e-08
1.11536e-08
1.11528e-08
1.11544e-08
1.11549e-08
1.11551e-08
1.11552e-08
1.11552e-08
1.11552e-08
1.11549e-08
1.11546e-08
1.11545e-08
1.11545e-08
1.11545e-08
1.11546e-08
1.11549e-08
1.11553e-08
1.11556e-08
1.11557e-08
1.11558e-08
1.11548e-08
1.10087e-08
2.04592e-09
2.30978e-10
2.0972e-10
2.09492e-10
2.0949e-10
2.0949e-10
2.0949e-10
2.0949e-10
2.0949e-10
2.0949e-10
2.0949e-10
2.0949e-10
2.0949e-10
2.0949e-10
)
;

boundaryField
{
    inlet
    {
        type            calculated;
        value           uniform 0;
    }
    outlet
    {
        type            calculated;
        value           uniform 2.0949e-10;
    }
    emptyWalls
    {
        type            empty;
        value           nonuniform List<scalar> 0();
    }
}


// ************************************************************************* //
