/*--------------------------------*- C++ -*----------------------------------*\
  =========                 |
  \\      /  F ield         | OpenFOAM: The Open Source CFD Toolbox
   \\    /   O peration     | Website:  https://openfoam.org
    \\  /    A nd           | Version:  9
     \\/     M anipulation  |
\*---------------------------------------------------------------------------*/
FoamFile
{
    format      ascii;
    class       volVectorField;
    location    "2000";
    object      Ua;
}
// * * * * * * * * * * * * * * * * * * * * * * * * * * * * * * * * * * * * * //

dimensions      [0 0 0 0 0 0 0];

internalField   nonuniform List<vector> 
100
(
(0 0 8.87764e-06)
(0 0 1.12931e-05)
(0 0 1.12809e-05)
(0 0 1.12618e-05)
(0 0 1.12315e-05)
(0 0 1.12138e-05)
(0 0 1.12101e-05)
(0 0 1.12014e-05)
(0 0 1.11897e-05)
(0 0 1.11761e-05)
(0 0 1.11614e-05)
(0 0 1.11457e-05)
(0 0 1.11282e-05)
(0 0 1.11073e-05)
(0 0 1.10813e-05)
(0 0 1.10514e-05)
(0 0 1.10214e-05)
(0 0 1.09939e-05)
(0 0 1.09671e-05)
(0 0 1.09399e-05)
(0 0 1.09131e-05)
(0 0 1.08863e-05)
(0 0 1.0859e-05)
(0 0 1.0831e-05)
(0 0 1.08027e-05)
(0 0 1.0774e-05)
(0 0 1.07446e-05)
(0 0 1.07149e-05)
(0 0 1.06852e-05)
(0 0 1.06551e-05)
(0 0 1.06242e-05)
(0 0 1.05926e-05)
(0 0 1.05605e-05)
(0 0 1.0528e-05)
(0 0 1.04954e-05)
(0 0 1.04627e-05)
(0 0 1.04297e-05)
(0 0 1.03964e-05)
(0 0 1.03629e-05)
(0 0 1.03288e-05)
(0 0 1.02943e-05)
(0 0 1.02599e-05)
(0 0 1.02257e-05)
(0 0 1.01916e-05)
(0 0 1.01575e-05)
(0 0 1.01234e-05)
(0 0 1.00895e-05)
(0 0 1.00565e-05)
(0 0 1.00244e-05)
(0 0 9.99313e-06)
(0 0 9.96301e-06)
(0 0 9.93401e-06)
(0 0 9.90603e-06)
(0 0 9.8794e-06)
(0 0 9.8544e-06)
(0 0 9.82982e-06)
(0 0 9.80207e-06)
(0 0 9.76372e-06)
(0 0 9.6986e-06)
(0 0 9.57472e-06)
(0 0 9.31536e-06)
(0 0 8.58065e-06)
(0 0 5.12662e-06)
(0 0 1.1324e-06)
(0 0 1.75071e-08)
(0 0 1.71563e-12)
(0 0 3.69433e-21)
(0 0 2.19989e-36)
(0 0 2.11119e-36)
(0 0 1.96092e-36)
(0 0 2.08059e-36)
(0 0 2.23093e-36)
(0 0 2.20018e-36)
(0 0 2.23144e-36)
(0 0 2.29277e-36)
(0 0 2.29272e-36)
(0 0 2.23129e-36)
(0 0 2.13851e-36)
(0 0 2.1386e-36)
(0 0 2.20016e-36)
(0 0 2.11136e-36)
(0 0 2.14284e-36)
(0 0 2.23177e-36)
(0 0 2.13887e-36)
(0 0 2.18294e-36)
(0 0 1.21486e-36)
(0 0 1.15058e-37)
(0 0 2.60021e-38)
(0 0 2.54189e-38)
(0 0 2.64675e-38)
(0 0 2.62876e-38)
(0 0 2.62876e-38)
(0 0 2.55833e-38)
(0 0 2.54035e-38)
(0 0 2.64673e-38)
(0 0 2.45639e-38)
(0 0 2.43841e-38)
(0 0 2.64673e-38)
(0 0 2.62876e-38)
(0 0 1.77469e-38)
)
;

boundaryField
{
    inlet
    {
        type            fixedValue;
        value           uniform (0 0 1.131e-05);
    }
    outlet
    {
        type            zeroGradient;
    }
    emptyWalls
    {
        type            empty;
    }
}


// ************************************************************************* //
