/*--------------------------------*- C++ -*----------------------------------*\
  =========                 |
  \\      /  F ield         | OpenFOAM: The Open Source CFD Toolbox
   \\    /   O peration     | Website:  https://openfoam.org
    \\  /    A nd           | Version:  9
     \\/     M anipulation  |
\*---------------------------------------------------------------------------*/
FoamFile
{
    format      ascii;
    class       volVectorField;
    location    "2000";
    object      Ub;
}
// * * * * * * * * * * * * * * * * * * * * * * * * * * * * * * * * * * * * * //

dimensions      [0 0 0 0 0 0 0];

internalField   nonuniform List<vector> 
100
(
(0 0 7.26222e-06)
(0 0 4.84651e-06)
(0 0 4.84598e-06)
(0 0 4.85123e-06)
(0 0 4.86684e-06)
(0 0 4.86931e-06)
(0 0 4.85729e-06)
(0 0 4.85e-06)
(0 0 4.84564e-06)
(0 0 4.84325e-06)
(0 0 4.84168e-06)
(0 0 4.84055e-06)
(0 0 4.83963e-06)
(0 0 4.8387e-06)
(0 0 4.83745e-06)
(0 0 4.83596e-06)
(0 0 4.83622e-06)
(0 0 4.8374e-06)
(0 0 4.8386e-06)
(0 0 4.84033e-06)
(0 0 4.84152e-06)
(0 0 4.84237e-06)
(0 0 4.8433e-06)
(0 0 4.84447e-06)
(0 0 4.84557e-06)
(0 0 4.84666e-06)
(0 0 4.84794e-06)
(0 0 4.84909e-06)
(0 0 4.84989e-06)
(0 0 4.85069e-06)
(0 0 4.85191e-06)
(0 0 4.85344e-06)
(0 0 4.85512e-06)
(0 0 4.85685e-06)
(0 0 4.85839e-06)
(0 0 4.85975e-06)
(0 0 4.8611e-06)
(0 0 4.86247e-06)
(0 0 4.86394e-06)
(0 0 4.8658e-06)
(0 0 4.86791e-06)
(0 0 4.86984e-06)
(0 0 4.87159e-06)
(0 0 4.87335e-06)
(0 0 4.87519e-06)
(0 0 4.87723e-06)
(0 0 4.87936e-06)
(0 0 4.8812e-06)
(0 0 4.88279e-06)
(0 0 4.88433e-06)
(0 0 4.88579e-06)
(0 0 4.88734e-06)
(0 0 4.88921e-06)
(0 0 4.89106e-06)
(0 0 4.89227e-06)
(0 0 4.893e-06)
(0 0 4.8941e-06)
(0 0 4.8962e-06)
(0 0 4.90012e-06)
(0 0 4.90782e-06)
(0 0 4.92512e-06)
(0 0 4.98734e-06)
(0 0 5.73872e-06)
(0 0 6.84932e-06)
(0 0 7.27003e-06)
(0 0 7.28179e-06)
(0 0 7.28146e-06)
(0 0 7.28061e-06)
(0 0 7.28034e-06)
(0 0 7.28025e-06)
(0 0 7.2802e-06)
(0 0 7.2802e-06)
(0 0 7.28033e-06)
(0 0 7.28053e-06)
(0 0 7.28066e-06)
(0 0 7.28072e-06)
(0 0 7.28073e-06)
(0 0 7.2807e-06)
(0 0 7.28054e-06)
(0 0 7.28024e-06)
(0 0 7.27997e-06)
(0 0 7.27981e-06)
(0 0 7.27974e-06)
(0 0 7.28011e-06)
(0 0 7.33863e-06)
(0 0 1.09629e-05)
(0 0 1.52512e-05)
(0 0 1.59819e-05)
(0 0 1.59904e-05)
(0 0 1.59905e-05)
(0 0 1.59905e-05)
(0 0 1.59905e-05)
(0 0 1.59905e-05)
(0 0 1.59905e-05)
(0 0 1.59905e-05)
(0 0 1.59905e-05)
(0 0 1.59905e-05)
(0 0 1.59905e-05)
(0 0 1.59905e-05)
(0 0 1.59905e-05)
)
;

boundaryField
{
    inlet
    {
        type            fixedValue;
        value           uniform (0 0 4.84716e-06);
    }
    outlet
    {
        type            zeroGradient;
    }
    emptyWalls
    {
        type            empty;
    }
}


// ************************************************************************* //
