/*--------------------------------*- C++ -*----------------------------------*\
  =========                 |
  \\      /  F ield         | OpenFOAM: The Open Source CFD Toolbox
   \\    /   O peration     | Website:  https://openfoam.org
    \\  /    A nd           | Version:  9
     \\/     M anipulation  |
\*---------------------------------------------------------------------------*/
FoamFile
{
    format      ascii;
    class       volVectorField;
    location    "2000";
    object      Uc;
}
// * * * * * * * * * * * * * * * * * * * * * * * * * * * * * * * * * * * * * //

dimensions      [0 0 0 0 0 0 0];

internalField   nonuniform List<vector> 
100
(
(0 0 1.7337e-08)
(0 0 1.75786e-08)
(0 0 3.0336e-08)
(0 0 4.41699e-08)
(0 0 5.88217e-08)
(0 0 7.41213e-08)
(0 0 8.98205e-08)
(0 0 1.05798e-07)
(0 0 1.21815e-07)
(0 0 1.37862e-07)
(0 0 1.54102e-07)
(0 0 1.7095e-07)
(0 0 1.89369e-07)
(0 0 2.11186e-07)
(0 0 2.3843e-07)
(0 0 2.69803e-07)
(0 0 2.99542e-07)
(0 0 3.25943e-07)
(0 0 3.51482e-07)
(0 0 3.76922e-07)
(0 0 4.02558e-07)
(0 0 4.28549e-07)
(0 0 4.54926e-07)
(0 0 4.81712e-07)
(0 0 5.08928e-07)
(0 0 5.36582e-07)
(0 0 5.64661e-07)
(0 0 5.93162e-07)
(0 0 6.22086e-07)
(0 0 6.51412e-07)
(0 0 6.81109e-07)
(0 0 7.11168e-07)
(0 0 7.41579e-07)
(0 0 7.72326e-07)
(0 0 8.03393e-07)
(0 0 8.3476e-07)
(0 0 8.66402e-07)
(0 0 8.98284e-07)
(0 0 9.30371e-07)
(0 0 9.62614e-07)
(0 0 9.94972e-07)
(0 0 1.02741e-06)
(0 0 1.05988e-06)
(0 0 1.09229e-06)
(0 0 1.12456e-06)
(0 0 1.1566e-06)
(0 0 1.18829e-06)
(0 0 1.21949e-06)
(0 0 1.25004e-06)
(0 0 1.27973e-06)
(0 0 1.3084e-06)
(0 0 1.33585e-06)
(0 0 1.36196e-06)
(0 0 1.38674e-06)
(0 0 1.41053e-06)
(0 0 1.43438e-06)
(0 0 1.46103e-06)
(0 0 1.49728e-06)
(0 0 1.55848e-06)
(0 0 1.67466e-06)
(0 0 1.91672e-06)
(0 0 2.58921e-06)
(0 0 5.29186e-06)
(0 0 8.17548e-06)
(0 0 8.86966e-06)
(0 0 8.87541e-06)
(0 0 8.87574e-06)
(0 0 8.87659e-06)
(0 0 8.87686e-06)
(0 0 8.87695e-06)
(0 0 8.877e-06)
(0 0 8.877e-06)
(0 0 8.87687e-06)
(0 0 8.87667e-06)
(0 0 8.87654e-06)
(0 0 8.87648e-06)
(0 0 8.87647e-06)
(0 0 8.8765e-06)
(0 0 8.87666e-06)
(0 0 8.87696e-06)
(0 0 8.87723e-06)
(0 0 8.87739e-06)
(0 0 8.87746e-06)
(0 0 8.87709e-06)
(0 0 8.81857e-06)
(0 0 5.19427e-06)
(0 0 9.05951e-07)
(0 0 1.75348e-07)
(0 0 1.66799e-07)
(0 0 1.66708e-07)
(0 0 1.66707e-07)
(0 0 1.66707e-07)
(0 0 1.66707e-07)
(0 0 1.66707e-07)
(0 0 1.66707e-07)
(0 0 1.66707e-07)
(0 0 1.66707e-07)
(0 0 1.66707e-07)
(0 0 1.66707e-07)
(0 0 1.66707e-07)
)
;

boundaryField
{
    inlet
    {
        type            fixedValue;
        value           uniform (0 0 0);
    }
    outlet
    {
        type            zeroGradient;
    }
    emptyWalls
    {
        type            empty;
    }
}


// ************************************************************************* //
