/*--------------------------------*- C++ -*----------------------------------*\
  =========                 |
  \\      /  F ield         | OpenFOAM: The Open Source CFD Toolbox
   \\    /   O peration     | Website:  https://openfoam.org
    \\  /    A nd           | Version:  9
     \\/     M anipulation  |
\*---------------------------------------------------------------------------*/
FoamFile
{
    format      ascii;
    class       volScalarField;
    location    "100000";
    object      krc;
}
// * * * * * * * * * * * * * * * * * * * * * * * * * * * * * * * * * * * * * //

dimensions      [0 0 0 0 0 0 0];

internalField   nonuniform List<scalar> 
100
(
3.33295e-22
2.81199e-24
3.65792e-24
4.02683e-24
3.08971e-25
3.30359e-24
4.95823e-25
2.41247e-26
2.74213e-24
1.87352e-24
4.0114e-24
1.60613e-27
7.78685e-25
1.50368e-25
1.85445e-24
4.58732e-24
4.37364e-24
4.90122e-24
2.74472e-25
1.169e-24
2.04041e-24
7.64377e-24
1.62291e-24
2.80791e-26
7.25343e-24
2.04513e-24
2.17813e-24
4.58295e-24
4.3398e-25
1.52596e-23
6.392e-26
2.65828e-24
8.13231e-24
1.0661e-23
1.20019e-26
4.99868e-24
2.06956e-26
2.30636e-26
1.14771e-24
1.98584e-24
1.0365e-24
2.29957e-24
7.53218e-24
1.58374e-24
1.95586e-24
1.79346e-25
1.91436e-24
2.70223e-24
3.11571e-24
3.36206e-24
3.51072e-25
3.50979e-25
6.18237e-24
2.16401e-24
1.80222e-24
2.7224e-24
1.86172e-24
2.619e-24
3.51903e-24
2.87101e-24
4.63486e-24
2.46753e-24
8.94805e-25
2.57196e-24
5.29266e-26
3.66243e-24
3.62347e-24
4.32354e-24
3.74795e-24
1.81681e-25
3.63453e-24
2.76662e-24
8.03833e-26
4.98647e-27
1.13609e-25
1.12329e-24
5.61158e-26
3.15198e-26
3.79705e-24
6.43083e-27
3.9447e-24
3.59186e-24
2.11727e-26
2.5977e-24
4.41824e-26
1.99884e-27
8.19938e-26
2.63504e-24
1.63443e-26
2.67906e-24
2.98681e-24
2.58178e-24
4.37216e-26
1.10159e-24
1.24008e-26
2.38819e-27
1.44335e-24
2.96163e-24
4.27958e-24
3.29276e-24
)
;

boundaryField
{
    inlet
    {
        type            calculated;
        value           uniform 3.33295e-22;
    }
    outlet
    {
        type            calculated;
        value           uniform 3.29276e-24;
    }
    emptyWalls
    {
        type            empty;
    }
}


// ************************************************************************* //
