/*--------------------------------*- C++ -*----------------------------------*\
  =========                 |
  \\      /  F ield         | OpenFOAM: The Open Source CFD Toolbox
   \\    /   O peration     | Website:  https://openfoam.org
    \\  /    A nd           | Version:  9
     \\/     M anipulation  |
\*---------------------------------------------------------------------------*/
FoamFile
{
    format      ascii;
    class       volScalarField;
    location    "5000";
    object      kra;
}
// * * * * * * * * * * * * * * * * * * * * * * * * * * * * * * * * * * * * * //

dimensions      [0 0 0 0 0 0 0];

internalField   nonuniform List<scalar> 
100
(
0.00545543
0.00545543
0.00545543
0.00545543
0.00545543
0.00545543
0.00545543
0.00545543
0.00545543
0.00545543
0.00545543
0.00545543
0.00545543
0.00545543
0.00545543
0.00545543
0.00545543
0.00545543
0.00545543
0.00545543
0.00545543
0.00545543
0.00545543
0.00545543
0.00545543
0.00545543
0.00545543
0.00545543
0.00545543
0.00545543
0.00545543
0.00545543
0.00545543
0.00545543
0.00545543
0.00545543
0.00545543
0.00545543
0.00545543
0.00545543
0.00545543
0.00545543
0.00545543
0.00545543
0.00545543
0.00545543
0.00545543
0.00545543
0.00545543
0.00545543
0.00545543
0.00545543
0.00545543
0.00545543
0.00545543
0.00545543
0.00545543
0.00545543
0.00545543
0.00545543
0.00545543
0.00545543
0.00545543
0.00545543
0.00545543
0.00545543
0.00545543
0.00545543
0.00545543
0.00545543
0.00545543
0.00545543
0.00545543
0.00545543
0.00545543
0.00545543
0.00545543
0.00545543
0.00545543
0.00545543
0.00545543
0.00545543
0.00545543
0.00545543
0.00545543
0.00545543
0.00545543
0.00545543
0.00545543
0.00545543
0.00545543
0.00545543
0.00545543
0.00545543
0.00545543
0.00545543
0.00545543
0.00545543
0.00545543
0.00545543
)
;

boundaryField
{
    inlet
    {
        type            calculated;
        value           uniform 0.00545543;
    }
    outlet
    {
        type            calculated;
        value           uniform 0.00545543;
    }
    emptyWalls
    {
        type            empty;
    }
}


// ************************************************************************* //
