/*--------------------------------*- C++ -*----------------------------------*\
  =========                 |
  \\      /  F ield         | OpenFOAM: The Open Source CFD Toolbox
   \\    /   O peration     | Website:  https://openfoam.org
    \\  /    A nd           | Version:  9
     \\/     M anipulation  |
\*---------------------------------------------------------------------------*/
FoamFile
{
    format      ascii;
    class       volScalarField;
    location    "95000";
    object      kra;
}
// * * * * * * * * * * * * * * * * * * * * * * * * * * * * * * * * * * * * * //

dimensions      [0 0 0 0 0 0 0];

internalField   nonuniform List<scalar> 
100
(
1.31705e-05
1.31705e-05
1.31705e-05
1.31705e-05
1.31705e-05
1.31705e-05
1.31705e-05
1.31705e-05
1.31705e-05
1.31705e-05
1.31705e-05
1.31705e-05
1.31705e-05
1.31705e-05
1.31705e-05
1.31705e-05
1.31705e-05
1.31705e-05
1.31705e-05
1.31705e-05
1.31705e-05
1.31705e-05
1.31705e-05
1.31705e-05
1.31705e-05
1.31705e-05
1.31705e-05
1.31705e-05
1.31705e-05
1.31705e-05
1.31705e-05
1.31705e-05
1.31705e-05
1.31705e-05
1.31705e-05
1.31705e-05
1.31705e-05
1.31705e-05
1.31705e-05
1.31705e-05
1.31705e-05
1.31705e-05
1.31705e-05
1.31705e-05
1.31705e-05
1.31705e-05
1.31705e-05
1.31705e-05
1.31705e-05
1.31705e-05
1.31705e-05
1.31705e-05
1.31705e-05
1.31705e-05
1.31705e-05
1.31705e-05
1.31705e-05
1.31705e-05
1.31705e-05
1.31705e-05
1.31705e-05
1.31705e-05
1.31705e-05
1.31705e-05
1.31705e-05
1.31705e-05
1.31705e-05
1.31705e-05
1.31705e-05
1.31705e-05
1.31705e-05
1.31705e-05
1.31705e-05
1.31705e-05
1.31705e-05
1.31705e-05
1.31705e-05
1.31705e-05
1.31705e-05
1.31705e-05
1.31705e-05
1.31705e-05
1.31705e-05
1.31705e-05
1.31705e-05
1.31705e-05
1.31705e-05
1.31705e-05
1.31705e-05
1.31705e-05
1.31705e-05
1.31705e-05
1.31705e-05
1.31705e-05
1.31705e-05
1.31705e-05
1.31705e-05
1.31705e-05
1.31705e-05
1.26955e-05
)
;

boundaryField
{
    inlet
    {
        type            calculated;
        value           uniform 1.50589e-05;
    }
    outlet
    {
        type            calculated;
        value           uniform 1.35628e-05;
    }
    emptyWalls
    {
        type            empty;
    }
}


// ************************************************************************* //
