/*--------------------------------*- C++ -*----------------------------------*\
  =========                 |
  \\      /  F ield         | OpenFOAM: The Open Source CFD Toolbox
   \\    /   O peration     | Website:  https://openfoam.org
    \\  /    A nd           | Version:  9
     \\/     M anipulation  |
\*---------------------------------------------------------------------------*/
FoamFile
{
    format      ascii;
    class       volScalarField;
    location    "15050";
    object      Fa;
}
// * * * * * * * * * * * * * * * * * * * * * * * * * * * * * * * * * * * * * //

dimensions      [0 0 0 0 0 0 0];

internalField   nonuniform List<scalar> 
1000
(
0.194794
0.194804
0.194764
0.194737
0.194702
0.194641
0.194628
0.19451
0.19456
0.194324
0.194462
0.194138
0.194299
0.194017
0.194103
0.193929
0.193937
0.19381
0.193659
0.192953
0.188319
0.162486
0.152775
0.150724
0.149841
0.1493
0.148907
0.148611
0.148388
0.148205
0.148032
0.147859
0.147713
0.147643
0.147694
0.147881
0.148171
0.148494
0.14877
0.148942
0.148997
0.148974
0.148934
0.148895
0.148789
0.14849
0.148096
0.147651
0.147198
0.146761
0.146367
0.146026
0.145748
0.145529
0.14537
0.145262
0.145202
0.145181
0.145193
0.145226
0.145262
0.145297
0.145325
0.145345
0.145355
0.145355
0.145345
0.145328
0.145304
0.145274
0.14524
0.145202
0.145163
0.145121
0.145079
0.145036
0.144992
0.144949
0.144906
0.144863
0.14482
0.144779
0.144737
0.144697
0.144657
0.144618
0.14458
0.144543
0.144506
0.14447
0.144435
0.144401
0.144368
0.144335
0.144304
0.144273
0.144243
0.144214
0.144186
0.144159
0.144133
0.144108
0.144084
0.144061
0.144038
0.144017
0.143996
0.143977
0.143958
0.143941
0.143923
0.143907
0.143892
0.143878
0.143864
0.143852
0.14384
0.14383
0.143821
0.143812
0.143803
0.143795
0.143788
0.14378
0.143771
0.143763
0.143754
0.143745
0.143736
0.143728
0.14372
0.143714
0.143709
0.143705
0.143702
0.1437
0.143697
0.143694
0.14369
0.143686
0.143683
0.14368
0.143682
0.143689
0.143705
0.14373
0.143768
0.143819
0.143884
0.143963
0.144056
0.144163
0.144281
0.144409
0.144544
0.144684
0.144826
0.144965
0.145099
0.145222
0.145332
0.145423
0.145492
0.145535
0.145551
0.145537
0.145493
0.145419
0.145317
0.14519
0.145042
0.144877
0.144701
0.144518
0.144334
0.144153
0.143979
0.143817
0.143667
0.143533
0.143415
0.143313
0.143226
0.143155
0.143096
0.14305
0.143013
0.142985
0.142963
0.142945
0.142931
0.142919
0.142907
0.142895
0.142882
0.142867
0.14285
0.142832
0.14281
0.142787
0.142761
0.142734
0.142704
0.142673
0.14264
0.142606
0.142571
0.142536
0.142499
0.142462
0.142425
0.142387
0.142349
0.142312
0.142274
0.142236
0.142199
0.142162
0.142125
0.142089
0.142053
0.142017
0.141982
0.141947
0.141913
0.141879
0.141846
0.141814
0.141781
0.14175
0.141719
0.141688
0.141659
0.14163
0.141601
0.141573
0.141546
0.141519
0.141493
0.141468
0.141443
0.141419
0.141395
0.141372
0.14135
0.141328
0.141307
0.141287
0.141267
0.141248
0.141229
0.141212
0.141194
0.141178
0.141162
0.141147
0.141132
0.141118
0.141103
0.14109
0.141077
0.141064
0.141051
0.141039
0.141027
0.141015
0.141004
0.140993
0.140982
0.140971
0.140961
0.140951
0.140941
0.140932
0.140923
0.140915
0.140907
0.140899
0.140892
0.140885
0.140879
0.140875
0.140872
0.140872
0.140873
0.140878
0.140887
0.140899
0.140916
0.140939
0.140967
0.141002
0.141042
0.14109
0.141143
0.141203
0.141268
0.14134
0.141415
0.141496
0.141578
0.141664
0.141748
0.141834
0.141915
0.141996
0.142068
0.142136
0.142192
0.142242
0.142277
0.142303
0.142313
0.14231
0.142292
0.14226
0.142213
0.142152
0.142079
0.141993
0.141898
0.141793
0.141682
0.141566
0.141446
0.141325
0.141205
0.141086
0.14097
0.140859
0.140753
0.140653
0.140561
0.140475
0.140396
0.140324
0.140258
0.140199
0.140146
0.140099
0.140056
0.140017
0.139982
0.139949
0.139919
0.139891
0.139865
0.139839
0.139814
0.139789
0.139764
0.139738
0.139712
0.139686
0.139658
0.13963
0.139601
0.139571
0.139541
0.139509
0.139477
0.139444
0.139411
0.139377
0.139342
0.139307
0.139272
0.139237
0.139201
0.139166
0.13913
0.139094
0.139058
0.139023
0.138987
0.138952
0.138917
0.138882
0.138847
0.138813
0.138779
0.138745
0.138712
0.138679
0.138646
0.138614
0.138583
0.138551
0.13852
0.13849
0.13846
0.138431
0.138402
0.138373
0.138345
0.138318
0.138291
0.138264
0.138238
0.138212
0.138187
0.138163
0.138138
0.138115
0.138092
0.138069
0.138047
0.138025
0.138004
0.137984
0.137963
0.137944
0.137924
0.137906
0.137887
0.137869
0.137852
0.137835
0.137818
0.137802
0.137786
0.13777
0.137755
0.137739
0.137725
0.13771
0.137696
0.137682
0.137668
0.137655
0.137641
0.137628
0.137616
0.137603
0.137591
0.137579
0.137568
0.137556
0.137546
0.137535
0.137526
0.137517
0.137508
0.137501
0.137495
0.13749
0.137486
0.137484
0.137484
0.137486
0.13749
0.137496
0.137506
0.137518
0.137533
0.137551
0.137573
0.137598
0.137626
0.137658
0.137693
0.137732
0.137773
0.137817
0.137864
0.137913
0.137964
0.138016
0.138068
0.138121
0.138173
0.138225
0.138274
0.138321
0.138365
0.138405
0.13844
0.13847
0.138493
0.138511
0.138521
0.138524
0.138519
0.138506
0.138485
0.138456
0.138418
0.138373
0.138319
0.138259
0.138192
0.138119
0.138041
0.137958
0.137872
0.137782
0.137691
0.137598
0.137505
0.137412
0.137321
0.13723
0.137142
0.137057
0.136974
0.136895
0.136819
0.136747
0.136678
0.136613
0.136552
0.136494
0.13644
0.136388
0.13634
0.136294
0.136251
0.13621
0.136171
0.136133
0.136097
0.136062
0.136028
0.135995
0.135962
0.13593
0.135898
0.135866
0.135834
0.135802
0.13577
0.135738
0.135705
0.135673
0.135639
0.135606
0.135571
0.135539
0.135502
0.13547
0.135432
0.1354
0.135361
0.135329
0.135289
0.135258
0.135217
0.135186
0.135146
0.135112
0.135075
0.135039
0.135004
0.134966
0.134934
0.134894
0.134863
0.134825
0.134792
0.134757
0.134721
0.13469
0.134653
0.134623
0.134588
0.134557
0.134525
0.134492
0.134465
0.134432
0.134405
0.134377
0.134348
0.134324
0.134297
0.134275
0.134252
0.13423
0.134212
0.134192
0.134177
0.13416
0.134147
0.134136
0.134123
0.134116
0.134106
0.1341
0.134095
0.134089
0.134088
0.134083
0.134081
0.13408
0.134075
0.134071
0.13406
0.134043
0.13401
0.13395
0.133847
0.133668
0.133385
0.132971
0.132447
0.13192
0.13151
0.131266
0.131143
0.131086
0.131065
0.131054
0.131055
0.131057
0.131062
0.131068
0.131074
0.131081
0.131088
0.131096
0.131104
0.131112
0.131121
0.13113
0.13114
0.13115
0.131161
0.131173
0.131185
0.131198
0.131212
0.131226
0.131242
0.131259
0.131277
0.131297
0.131317
0.131339
0.131363
0.131388
0.131415
0.131444
0.131474
0.131506
0.13154
0.131576
0.131614
0.131653
0.131695
0.131738
0.131783
0.131829
0.131877
0.131927
0.131977
0.132029
0.132082
0.132135
0.132188
0.132242
0.132295
0.132348
0.132401
0.132452
0.132502
0.132551
0.132597
0.132641
0.132683
0.132722
0.132758
0.132789
0.132817
0.132841
0.132861
0.132876
0.132886
0.132891
0.132892
0.132892
0.132891
0.132882
0.132865
0.132843
0.132817
0.132787
0.132754
0.132717
0.132678
0.132636
0.132592
0.132545
0.132498
0.132449
0.132399
0.132349
0.132298
0.132248
0.132199
0.13215
0.132102
0.132056
0.132011
0.131968
0.131927
0.131888
0.131851
0.131816
0.131783
0.131752
0.131723
0.131696
0.131671
0.131648
0.131626
0.131606
0.131588
0.131571
0.131556
0.131541
0.131528
0.131516
0.131504
0.131493
0.131483
0.131474
0.131464
0.131456
0.131447
0.131439
0.13143
0.131422
0.131414
0.131406
0.131398
0.13139
0.131382
0.131373
0.131365
0.131356
0.131348
0.131339
0.13133
0.131321
0.131312
0.131303
0.131294
0.131284
0.131275
0.131265
0.131256
0.131246
0.131237
0.131227
0.131218
0.131208
0.131199
0.13119
0.13118
0.131171
0.131162
0.131153
0.131144
0.131135
0.131127
0.131118
0.13111
0.131102
0.131094
0.131086
0.131078
0.131071
0.131064
0.131057
0.13105
0.131043
0.131037
0.131031
0.131025
0.13102
0.131015
0.13101
0.131005
0.131
0.130996
0.130992
0.130989
0.130985
0.130982
0.13098
0.130977
0.130975
0.130973
0.130972
0.130971
0.13097
0.13097
0.130969
0.130969
0.130969
0.130969
0.13097
0.130972
0.130973
0.130975
0.130977
0.130979
0.130982
0.130985
0.130988
0.130992
0.130995
0.130999
0.131004
0.131008
0.131013
0.131018
0.131023
0.131029
0.131035
0.131041
0.131048
0.131054
0.131062
0.131069
0.131077
0.131085
0.131094
0.131104
0.131114
0.131124
0.131135
0.131147
0.131159
0.131172
0.131187
0.131201
0.131217
0.131234
0.131252
0.131271
0.131291
0.131313
0.131336
0.13136
0.131385
0.131412
0.13144
0.13147
0.131501
0.131534
0.131568
0.131604
0.131641
0.131679
0.131719
0.13176
0.131802
0.131845
0.13189
0.131935
0.131981
0.132027
0.132074
0.132121
0.132168
0.132215
0.132261
0.132307
0.132352
0.132396
0.132439
0.13248
0.132519
0.132556
0.132591
0.132624
0.132654
0.132681
0.132705
0.132725
0.132743
0.132757
0.132767
0.132773
0.132776
0.132776
0.132776
0.132774
0.132763
0.132748
0.132729
0.132707
0.132682
0.132654
0.132623
0.132589
0.132554
0.132517
0.132478
0.132437
0.132396
0.132354
0.132311
0.132268
0.132225
0.132183
0.132141
0.132099
0.132059
0.132019
0.131981
0.131944
0.131908
0.131874
0.131841
0.13181
0.13178
0.131752
0.131725
0.1317
0.131676
0.131654
0.131633
0.131613
0.131594
0.131577
0.13156
0.131545
0.13153
0.131516
0.131503
0.13149
0.131478
0.131466
0.131455
0.131444
0.131433
0.131423
0.131412
0.131402
0.131392
0.131382
0.131372
0.131362
0.131352
0.131341
0.131331
0.131321
0.131311
0.131301
0.13129
0.13128
0.13127
0.131259
0.131249
0.131239
0.131228
0.131218
0.131207
0.131197
0.131187
0.131177
0.131167
0.131157
0.131147
0.131137
0.131128
0.131119
0.131109
0.1311
0.131091
0.131083
0.131074
0.131066
0.131058
0.13105
0.131043
0.131035
0.131028
0.131022
0.131015
0.131009
0.131003
0.130997
0.130992
0.130987
0.130982
0.130978
0.130974
0.13097
0.130967
0.130963
0.130961
0.130958
0.130956
0.130954
0.130953
0.130951
0.130959
)
;

boundaryField
{
    inlet
    {
        type            calculated;
        value           uniform 0.194831;
    }
    outlet
    {
        type            calculated;
        value           uniform 0.130951;
    }
    emptyWalls
    {
        type            empty;
    }
}


// ************************************************************************* //
