/*--------------------------------*- C++ -*----------------------------------*\
  =========                 |
  \\      /  F ield         | OpenFOAM: The Open Source CFD Toolbox
   \\    /   O peration     | Website:  https://openfoam.org
    \\  /    A nd           | Version:  9
     \\/     M anipulation  |
\*---------------------------------------------------------------------------*/
FoamFile
{
    format      ascii;
    class       volScalarField;
    location    "12750";
    object      krb;
}
// * * * * * * * * * * * * * * * * * * * * * * * * * * * * * * * * * * * * * //

dimensions      [0 0 0 0 0 0 0];

internalField   nonuniform List<scalar> 
1000
(
0.0979908
0.0987396
0.0996868
0.100635
0.101571
0.10253
0.103482
0.10442
0.10535
0.106168
0.10703
0.10763
0.108383
0.108821
0.109711
0.111574
0.118767
0.164545
0.386586
0.47521
0.497968
0.50793
0.513721
0.517616
0.520464
0.522664
0.524415
0.525842
0.527005
0.527954
0.528732
0.529353
0.52985
0.530226
0.530517
0.530703
0.530818
0.530838
0.530784
0.530636
0.530395
0.530055
0.52961
0.52904
0.528318
0.527396
0.526203
0.524649
0.522656
0.520215
0.517441
0.51449
0.511439
0.508337
0.505214
0.502092
0.498982
0.495895
0.492835
0.489807
0.486813
0.483855
0.480933
0.478049
0.475202
0.472392
0.46962
0.466883
0.464183
0.461518
0.458888
0.456293
0.453731
0.451202
0.448705
0.446241
0.443807
0.441404
0.43903
0.436686
0.43437
0.432083
0.429823
0.42759
0.425383
0.423203
0.421048
0.418917
0.416812
0.41473
0.412671
0.410636
0.408622
0.406631
0.40466
0.402711
0.400782
0.398873
0.396985
0.395116
0.393267
0.391436
0.389623
0.387828
0.386049
0.384286
0.382537
0.380804
0.379085
0.377381
0.375691
0.374015
0.372353
0.370707
0.369075
0.367458
0.365857
0.364271
0.362702
0.361149
0.359613
0.358095
0.356593
0.355109
0.353642
0.352191
0.350757
0.349338
0.347933
0.346541
0.345162
0.343794
0.342437
0.341089
0.339751
0.33842
0.337098
0.335784
0.334478
0.333179
0.331888
0.330606
0.329332
0.328066
0.326808
0.32556
0.324319
0.323089
0.321866
0.320653
0.319448
0.318253
0.317066
0.315888
0.314718
0.313557
0.312404
0.311259
0.310121
0.308992
0.30787
0.306756
0.30565
0.30455
0.303458
0.302373
0.301295
0.300224
0.29916
0.298102
0.297051
0.296007
0.294969
0.293937
0.292912
0.291893
0.29088
0.289873
0.288872
0.287877
0.286888
0.285905
0.284928
0.283956
0.28299
0.282029
0.281074
0.280124
0.27918
0.27824
0.277306
0.276377
0.275454
0.274535
0.273621
0.272712
0.271808
0.270909
0.270015
0.269125
0.26824
0.267359
0.266483
0.265612
0.264745
0.263882
0.263024
0.26217
0.26132
0.260475
0.259634
0.258796
0.257963
0.257134
0.256309
0.255488
0.254671
0.253858
0.253048
0.252243
0.251441
0.250643
0.249849
0.249058
0.248272
0.247488
0.246708
0.245932
0.24516
0.24439
0.243625
0.242862
0.242103
0.241347
0.240595
0.239846
0.239099
0.238357
0.237617
0.23688
0.236146
0.235416
0.234688
0.233962
0.23324
0.23252
0.231803
0.231088
0.230375
0.229665
0.228958
0.228253
0.22755
0.226849
0.226151
0.225455
0.224761
0.22407
0.223382
0.222696
0.222013
0.221333
0.220656
0.219981
0.21931
0.218642
0.217977
0.217316
0.216658
0.216003
0.215352
0.214705
0.214061
0.21342
0.212782
0.212148
0.211516
0.210887
0.210261
0.209638
0.209017
0.208398
0.207781
0.207166
0.206552
0.20594
0.20533
0.204721
0.204114
0.203508
0.202904
0.202301
0.201699
0.201099
0.2005
0.199902
0.199306
0.198712
0.198119
0.197528
0.196939
0.196351
0.195765
0.195181
0.194598
0.194017
0.193438
0.19286
0.192284
0.19171
0.191137
0.190567
0.189997
0.18943
0.188864
0.1883
0.187737
0.187176
0.186616
0.186058
0.185501
0.184946
0.184392
0.18384
0.183289
0.182739
0.182191
0.181644
0.181099
0.180555
0.180012
0.17947
0.17893
0.178391
0.177853
0.177317
0.176782
0.176248
0.175715
0.175183
0.174653
0.174123
0.173595
0.173068
0.172542
0.172017
0.171493
0.170971
0.170449
0.169928
0.169409
0.16889
0.168373
0.167856
0.167341
0.166826
0.166313
0.1658
0.165288
0.164778
0.164268
0.163759
0.163251
0.162744
0.162237
0.161732
0.161227
0.160723
0.16022
0.159718
0.159216
0.158716
0.158216
0.157717
0.157218
0.156721
0.156224
0.155727
0.155232
0.154737
0.154243
0.153749
0.153256
0.152764
0.152272
0.151781
0.151291
0.150801
0.150312
0.149823
0.149335
0.148847
0.14836
0.147873
0.147387
0.146902
0.146416
0.145932
0.145447
0.144963
0.14448
0.143997
0.143514
0.143031
0.142549
0.142067
0.141586
0.141105
0.140623
0.140142
0.139662
0.139181
0.138701
0.138221
0.13774
0.13726
0.13678
0.1363
0.13582
0.13534
0.13486
0.13438
0.1339
0.13342
0.13294
0.13246
0.13198
0.1315
0.13102
0.13054
0.13006
0.12958
0.1291
0.12862
0.128139
0.127659
0.12718
0.1267
0.12622
0.12574
0.12526
0.12478
0.1243
0.123821
0.123341
0.122861
0.122381
0.121901
0.121421
0.120941
0.12046
0.119979
0.119498
0.119017
0.118535
0.118053
0.11757
0.117087
0.116603
0.116119
0.115634
0.115149
0.114663
0.114176
0.11369
0.113203
0.112715
0.112228
0.11174
0.111253
0.110766
0.11028
0.109795
0.109311
0.108829
0.10835
0.107874
0.107401
0.106934
0.106473
0.106018
0.105573
0.105137
0.104713
0.104302
0.103906
0.103527
0.103166
0.102826
0.102508
0.102212
0.101939
0.101691
0.101468
0.101268
0.101092
0.100937
0.100801
0.100682
0.100576
0.100475
0.100371
0.100244
0.100069
0.0997946
0.0993376
0.0985524
0.0971979
0.0948968
0.0911259
0.0853226
0.0772265
0.0673902
0.0573281
0.0487688
0.0426149
0.0387318
0.0364881
0.0352592
0.0346061
0.0342646
0.0340876
0.0339963
0.0339494
0.0339252
0.0339128
0.0339065
0.0339032
0.0339016
0.0339007
0.0339003
0.0339001
0.0339
0.0339
0.0339
0.0339
0.0339
0.0339001
0.0339001
0.0339001
0.0339001
0.0339001
0.0339002
0.0339002
0.0339002
0.0339002
0.0339002
0.0339002
0.0339002
0.0339002
0.0339002
0.0339003
0.0339003
0.0339002
0.0339002
0.0339002
0.0339002
0.0339002
0.0339002
0.0339001
0.0339001
0.0339001
0.0339
0.0339
0.0338999
0.0338998
0.0338998
0.0338997
0.0338996
0.0338995
0.0338994
0.0338993
0.0338992
0.0338991
0.0338989
0.0338988
0.0338987
0.0338985
0.0338984
0.0338982
0.0338981
0.0338979
0.0338978
0.0338976
0.0338975
0.0338973
0.0338971
0.033897
0.0338968
0.0338966
0.0338964
0.0338963
0.0338961
0.0338959
0.0338958
0.0338956
0.0338954
0.0338952
0.033895
0.0338948
0.0338947
0.0338945
0.0338943
0.0338941
0.0338939
0.0338936
0.0338934
0.0338932
0.033893
0.0338928
0.0338925
0.0338923
0.033892
0.0338917
0.0338915
0.0338912
0.0338909
0.0338906
0.0338903
0.03389
0.0338897
0.0338894
0.0338891
0.0338888
0.0338884
0.0338881
0.0338878
0.0338875
0.0338872
0.0338869
0.0338866
0.0338863
0.033886
0.0338858
0.0338855
0.0338853
0.0338851
0.0338849
0.0338848
0.0338846
0.0338845
0.0338844
0.0338844
0.0338844
0.0338844
0.0338844
0.0338844
0.0338845
0.0338846
0.0338848
0.0338849
0.0338851
0.0338854
0.0338856
0.0338859
0.0338862
0.0338864
0.0338867
0.0338871
0.0338874
0.0338877
0.033888
0.0338883
0.0338887
0.033889
0.0338893
0.0338896
0.0338899
0.0338902
0.0338904
0.0338907
0.0338909
0.0338912
0.0338914
0.0338916
0.0338917
0.0338919
0.0338921
0.0338922
0.0338924
0.0338925
0.0338926
0.0338927
0.0338928
0.0338929
0.0338929
0.033893
0.0338931
0.0338931
0.0338932
0.0338932
0.0338933
0.0338933
0.0338934
0.0338934
0.0338935
0.0338935
0.0338936
0.0338936
0.0338937
0.0338937
0.0338938
0.0338938
0.0338939
0.0338939
0.033894
0.033894
0.0338941
0.0338941
0.0338942
0.0338942
0.0338943
0.0338944
0.0338944
0.0338945
0.0338945
0.0338946
0.0338946
0.0338946
0.0338947
0.0338947
0.0338948
0.0338948
0.0338949
0.0338949
0.0338949
0.0338949
0.033895
0.033895
0.033895
0.033895
0.033895
0.033895
0.033895
0.0338951
0.0338951
0.0338951
0.0338951
0.0338952
0.0338952
0.0338953
0.0338953
0.0338954
0.0338955
0.0338956
0.0338956
0.0338957
0.0338958
0.0338959
0.033896
0.0338961
0.0338962
0.0338963
0.0338964
0.0338964
0.0338965
0.0338966
0.0338966
0.0338967
0.0338967
0.0338967
0.0338967
0.0338968
0.0338968
0.0338968
0.0338968
0.0338967
0.0338967
0.0338967
0.0338967
0.0338967
0.0338966
0.0338966
0.0338966
0.0338965
0.0338965
0.0338964
0.0338964
0.0338964
0.0338963
0.0338963
0.0338962
0.0338962
0.0338961
0.0338961
0.033896
0.033896
0.0338959
0.0338959
0.0338958
0.0338958
0.0338957
0.0338957
0.0338956
0.0338955
0.0338955
0.0338954
0.0338953
0.0338953
0.0338952
0.0338951
0.033895
0.033895
0.0338949
0.0338948
0.0338947
0.0338946
0.0338945
0.0338943
0.0338942
0.0338941
0.033894
0.0338938
0.0338937
0.0338935
0.0338933
0.0338932
0.033893
0.0338928
0.0338926
0.0338924
0.0338922
0.0338919
0.0338917
0.0338914
0.0338912
0.033891
0.0338907
0.0338904
0.0338902
0.0338899
0.0338896
0.0338894
0.0338891
0.0338888
0.0338886
0.0338883
0.033888
0.0338878
0.0338876
0.0338873
0.0338871
0.0338869
0.0338867
0.0338866
0.0338864
0.0338863
0.0338861
0.033886
0.033886
0.0338859
0.0338859
0.0338858
0.0338858
0.0338858
0.0338858
0.0338859
0.033886
0.0338861
0.0338862
0.0338864
0.0338866
0.0338867
0.0338869
0.0338871
0.0338874
0.0338876
0.0338878
0.033888
0.0338883
0.0338885
0.0338888
0.033889
0.0338893
0.0338895
0.0338897
0.03389
0.0338902
0.0338904
0.0338906
0.0338908
0.033891
0.0338912
0.0338913
0.0338915
0.0338916
0.0338918
0.0338919
0.033892
0.0338921
0.0338922
0.0338923
0.0338924
0.0338925
0.0338926
0.0338927
0.0338928
0.0338928
0.0338929
0.033893
0.033893
0.0338931
0.0338932
0.0338932
0.0338933
0.0338933
0.0338934
0.0338935
0.0338935
0.0338936
0.0338936
0.0338937
0.0338937
0.0338938
0.0338939
0.0338939
0.033894
0.033894
0.0338941
0.0338942
0.0338942
0.0338943
0.0338943
0.0338944
0.0338944
0.0338945
0.0338946
0.0338946
0.0338947
0.0338947
0.0338948
0.0338948
0.0338949
0.0338949
0.033895
0.033895
0.0338951
0.0338951
0.0338952
0.0338952
0.0338953
0.0338953
0.0338954
0.0338954
0.0338955
0.0338955
0.0338956
0.0338956
0.0338957
0.0338957
0.0338958
0.0338958
0.0338959
0.0338959
0.0338959
0.033896
0.033896
0.033896
0.0338961
0.0338961
0.0338961
0.0338962
0.0338962
0.0338962
0.0338962
0.0338962
0.0338962
0.0338962
0.0338962
0.0338962
0.0338962
0.0338962
0.0338962
0.0338962
0.0338962
0.0338962
0.0338962
0.0338961
0.0338961
0.0338961
0.0338961
0.033896
0.033896
0.033896
0.0338959
0.0338959
0.0338959
0.0338958
0.0338958
0.0338957
0.0338957
0.0338957
0.0338956
0.0338956
0.0338956
0.0338955
0.0338955
0.0338954
0.0338954
0.0338952
)
;

boundaryField
{
    inlet
    {
        type            calculated;
        value           uniform 0.0976562;
    }
    outlet
    {
        type            calculated;
        value           uniform 0.0338952;
    }
    emptyWalls
    {
        type            empty;
    }
}


// ************************************************************************* //
