/*--------------------------------*- C++ -*----------------------------------*\
  =========                 |
  \\      /  F ield         | OpenFOAM: The Open Source CFD Toolbox
   \\    /   O peration     | Website:  https://openfoam.org
    \\  /    A nd           | Version:  9
     \\/     M anipulation  |
\*---------------------------------------------------------------------------*/
FoamFile
{
    format      ascii;
    class       volScalarField;
    location    "7500";
    object      Fa;
}
// * * * * * * * * * * * * * * * * * * * * * * * * * * * * * * * * * * * * * //

dimensions      [0 0 0 0 0 0 0];

internalField   nonuniform List<scalar> 
1000
(
0.194768
0.194769
0.194635
0.194548
0.194393
0.194285
0.194143
0.193971
0.193365
0.189415
0.164395
0.152543
0.150056
0.148921
0.148195
0.147683
0.147274
0.146947
0.146678
0.146445
0.146275
0.146054
0.145973
0.14577
0.145626
0.145468
0.145347
0.145235
0.145202
0.145198
0.1452
0.145211
0.145233
0.145262
0.14529
0.145311
0.145327
0.145348
0.145389
0.145464
0.145581
0.145739
0.145931
0.146145
0.146369
0.146594
0.146809
0.147008
0.147183
0.147324
0.147423
0.147468
0.147451
0.147365
0.147208
0.146984
0.146701
0.146373
0.146016
0.14565
0.14529
0.144953
0.144651
0.144392
0.144179
0.144014
0.143894
0.143814
0.143767
0.143746
0.143744
0.143753
0.143768
0.143784
0.143797
0.143803
0.1438
0.143789
0.143769
0.14374
0.143703
0.143659
0.143609
0.143555
0.143497
0.143437
0.143376
0.143313
0.14325
0.143186
0.143123
0.143059
0.142996
0.142934
0.142872
0.14281
0.142748
0.142687
0.142626
0.142565
0.142505
0.142444
0.142384
0.142323
0.142263
0.142203
0.142143
0.142083
0.142023
0.141964
0.141905
0.141846
0.141787
0.141729
0.141672
0.141615
0.141559
0.141504
0.14145
0.141397
0.141345
0.141294
0.141244
0.141195
0.141148
0.141102
0.141057
0.141013
0.140971
0.140929
0.140888
0.140849
0.14081
0.140773
0.140736
0.1407
0.140665
0.14063
0.140597
0.140563
0.140531
0.140498
0.140467
0.140435
0.140404
0.140373
0.140343
0.140313
0.140283
0.140253
0.140224
0.140195
0.140167
0.140138
0.14011
0.140082
0.140054
0.140026
0.139998
0.139971
0.139943
0.139916
0.13989
0.139864
0.139839
0.139815
0.139792
0.139771
0.13975
0.139731
0.139713
0.139696
0.139681
0.139668
0.139657
0.139648
0.139643
0.139641
0.139644
0.139653
0.139667
0.139688
0.139716
0.139752
0.139796
0.139848
0.139908
0.139975
0.140049
0.140129
0.140214
0.140302
0.140392
0.140481
0.140568
0.140649
0.140725
0.140789
0.140844
0.140881
0.140905
0.140906
0.140894
0.140852
0.140798
0.140712
0.140616
0.140487
0.140354
0.14019
0.140027
0.139842
0.139659
0.139465
0.139276
0.139087
0.138902
0.138728
0.138559
0.138406
0.138261
0.138131
0.138012
0.137906
0.137813
0.137729
0.137657
0.137593
0.137537
0.137488
0.137443
0.137403
0.137366
0.13733
0.137296
0.137261
0.137227
0.13719
0.137153
0.137113
0.137071
0.137027
0.136981
0.136931
0.136881
0.136827
0.136772
0.136714
0.136654
0.136594
0.136531
0.136469
0.136404
0.136339
0.136273
0.136206
0.13614
0.136073
0.136005
0.135938
0.13587
0.135803
0.135735
0.135668
0.1356
0.135533
0.135466
0.135398
0.135332
0.135265
0.135199
0.135133
0.135066
0.135001
0.134935
0.13487
0.134805
0.134741
0.134678
0.134614
0.134554
0.134493
0.134435
0.134378
0.134323
0.134272
0.134221
0.134176
0.134131
0.134091
0.134052
0.134015
0.133979
0.133938
0.13389
0.133821
0.133719
0.133557
0.133302
0.132927
0.132425
0.131875
0.1314
0.131089
0.130923
0.13084
0.130805
0.130787
0.130781
0.130781
0.130781
0.130787
0.130791
0.130797
0.130804
0.130811
0.130819
0.130828
0.130837
0.130846
0.130857
0.130867
0.130878
0.130889
0.1309
0.130912
0.130924
0.130936
0.130948
0.13096
0.130973
0.130986
0.130999
0.131011
0.131024
0.131037
0.13105
0.131063
0.131076
0.131089
0.131103
0.131116
0.131129
0.131143
0.131157
0.131171
0.131185
0.131199
0.131214
0.131229
0.131245
0.131261
0.131277
0.131294
0.131312
0.13133
0.131349
0.131369
0.13139
0.131411
0.131435
0.131459
0.131485
0.131513
0.131543
0.131574
0.131608
0.131644
0.131683
0.131725
0.131769
0.131816
0.131867
0.13192
0.131977
0.132037
0.132101
0.132166
0.132235
0.132307
0.132381
0.132456
0.132534
0.132612
0.132691
0.13277
0.132849
0.132926
0.133001
0.133073
0.133141
0.133205
0.133263
0.133316
0.133361
0.133398
0.133427
0.133447
0.133457
0.133459
0.13346
0.133457
0.13344
0.133403
0.133357
0.133303
0.13324
0.13317
0.133094
0.133013
0.132927
0.132839
0.132748
0.132656
0.132564
0.132474
0.132385
0.132299
0.132218
0.13214
0.132067
0.132
0.131939
0.131883
0.131833
0.131789
0.13175
0.131717
0.131689
0.131666
0.131647
0.131632
0.131621
0.131613
0.131607
0.131603
0.131602
0.131601
0.131601
0.131601
0.131603
0.131605
0.131607
0.131609
0.131609
0.131609
0.131609
0.131609
0.131607
0.131603
0.131597
0.131591
0.131583
0.131575
0.131565
0.131554
0.131542
0.13153
0.131516
0.131502
0.131488
0.131472
0.131456
0.13144
0.131423
0.131407
0.131389
0.131372
0.131355
0.131338
0.13132
0.131303
0.131286
0.131269
0.131252
0.131236
0.13122
0.131204
0.131189
0.131174
0.131159
0.131145
0.131131
0.131117
0.131104
0.131092
0.13108
0.131068
0.131056
0.131045
0.131035
0.131025
0.131015
0.131006
0.130997
0.130988
0.13098
0.130972
0.130964
0.130957
0.13095
0.130943
0.130937
0.130931
0.130925
0.130919
0.130914
0.13091
0.130905
0.130901
0.130897
0.130894
0.130891
0.130889
0.130887
0.130885
0.130884
0.130884
0.130884
0.130884
0.130884
0.130885
0.130887
0.130889
0.130892
0.130896
0.1309
0.130905
0.13091
0.130916
0.130922
0.130929
0.130936
0.130944
0.130953
0.130961
0.130971
0.13098
0.13099
0.131001
0.131011
0.131022
0.131034
0.131045
0.131057
0.131069
0.131081
0.131094
0.131106
0.131119
0.131132
0.131145
0.131158
0.131172
0.131185
0.131199
0.131213
0.131228
0.131242
0.131257
0.131273
0.131288
0.131305
0.131322
0.131339
0.131358
0.131377
0.131397
0.131418
0.13144
0.131464
0.131489
0.131515
0.131543
0.131573
0.131604
0.131637
0.131673
0.13171
0.13175
0.131792
0.131836
0.131882
0.131931
0.131981
0.132034
0.132089
0.132146
0.132204
0.132264
0.132325
0.132387
0.13245
0.132512
0.132575
0.132637
0.132698
0.132757
0.132814
0.132869
0.132921
0.132969
0.133013
0.133053
0.133087
0.133116
0.13314
0.133156
0.133166
0.13317
0.13317
0.133169
0.133163
0.133141
0.13311
0.133073
0.13303
0.132981
0.132927
0.132868
0.132805
0.132739
0.13267
0.1326
0.132529
0.132457
0.132386
0.132316
0.132247
0.132181
0.132118
0.132057
0.132
0.131947
0.131898
0.131853
0.131812
0.131775
0.131742
0.131714
0.131688
0.131667
0.131648
0.131633
0.13162
0.13161
0.131602
0.131596
0.131591
0.131588
0.131586
0.131584
0.131583
0.131583
0.131582
0.131582
0.131582
0.131581
0.131581
0.131579
0.131577
0.131574
0.131569
0.131564
0.131558
0.131551
0.131543
0.131535
0.131525
0.131514
0.131502
0.13149
0.131477
0.131463
0.131449
0.131434
0.131418
0.131403
0.131386
0.13137
0.131353
0.131336
0.131319
0.131301
0.131284
0.131267
0.131249
0.131232
0.131215
0.131199
0.131182
0.131166
0.13115
0.131134
0.131119
0.131104
0.13109
0.131076
0.131062
0.131049
0.131036
0.131023
0.131011
0.131
0.130989
0.130978
0.130968
0.130958
0.130948
0.130939
0.130931
0.130922
0.130914
0.130907
0.1309
0.130893
0.130886
0.13088
0.130874
0.130868
0.130863
0.130858
0.130853
0.130849
0.130844
0.130841
0.130837
0.130834
0.130831
0.130829
0.130827
0.130825
0.130824
0.130823
0.130822
0.130822
0.130822
0.130822
0.130823
0.130825
0.130827
0.13083
0.130833
0.130836
0.130841
0.130845
0.130851
0.130857
0.130863
0.13087
0.130877
0.130886
0.130894
0.130903
0.130913
0.130923
0.130934
0.130945
0.130957
0.130969
0.130981
0.130995
0.131009
0.131023
0.131038
0.131053
0.131069
0.131085
0.131102
0.13112
0.131139
0.131158
0.131177
0.131198
0.131219
0.131242
0.131265
0.131289
0.131314
0.131341
0.131368
0.131397
0.131427
0.131458
0.131491
0.131526
0.131562
0.131599
0.131638
0.131679
0.131722
0.131766
0.131812
0.131859
0.131908
0.131959
0.13201
0.132064
0.132118
0.132173
0.132229
0.132286
0.132343
0.1324
0.132457
0.132514
0.13257
0.132624
0.132678
0.13273
0.132779
0.132827
0.132871
0.132913
0.132951
0.132985
0.133015
0.133041
0.133062
0.133078
0.133089
0.133095
0.133096
0.133096
0.133095
0.133085
0.133065
0.133039
0.133009
0.132974
0.132934
0.132891
0.132845
0.132795
0.132743
0.132688
0.132633
0.132576
0.132519
0.132462
0.132405
0.132349
0.132294
0.132241
0.13219
0.132141
0.132094
0.13205
0.132009
0.131971
0.131935
0.131903
0.131873
0.131845
0.131821
0.131799
0.131779
0.131762
0.131746
0.131733
0.131721
0.13171
0.131701
0.131693
0.131686
0.13168
0.131674
0.131669
0.131664
0.131659
0.131654
0.13165
0.131644
0.131639
0.131633
0.131627
0.13162
0.131613
0.131605
0.131597
0.131588
0.131578
0.131568
0.131557
0.131545
0.131533
0.13152
0.131507
0.131493
0.131479
0.131464
0.131449
0.131434
0.131418
0.131402
0.131385
0.131369
0.131352
0.131335
0.131318
0.131301
0.131284
0.131267
0.13125
0.131233
0.131216
0.131199
0.131183
0.131166
0.13115
0.131135
0.131119
0.131104
0.13109
0.131075
0.131062
0.131048
0.131035
0.131023
0.131011
0.130999
0.130988
0.130977
0.130967
0.130958
0.130949
0.13094
0.130932
0.130925
0.130917
0.130911
0.130905
0.130899
0.130894
0.130889
0.130884
0.13088
0.130877
0.130873
0.130871
0.130868
0.130866
0.130864
0.130863
0.130862
0.130861
0.130861
0.130861
0.130861
0.130861
0.130862
0.130863
0.130865
0.130867
0.130869
0.130872
0.130876
0.130879
0.130883
0.130889
0.130892
0.1309
0.130903
0.130914
0.130917
0.130929
0.130932
0.130947
0.130951
0.130967
0.130972
0.13099
0.130995
0.131016
0.131022
0.131045
0.131051
0.131077
0.131084
0.131113
0.13112
0.131152
0.13116
0.131194
0.131204
0.131241
0.131251
0.131292
0.131303
0.131348
0.13136
0.131408
0.131421
0.131473
0.131487
0.131543
0.131558
0.131619
0.131635
0.131716
)
;

boundaryField
{
    inlet
    {
        type            calculated;
        value           uniform 0.194831;
    }
    outlet
    {
        type            calculated;
        value           uniform 0.131708;
    }
    emptyWalls
    {
        type            empty;
    }
}


// ************************************************************************* //
