/*--------------------------------*- C++ -*----------------------------------*\
  =========                 |
  \\      /  F ield         | OpenFOAM: The Open Source CFD Toolbox
   \\    /   O peration     | Website:  https://openfoam.org
    \\  /    A nd           | Version:  9
     \\/     M anipulation  |
\*---------------------------------------------------------------------------*/
FoamFile
{
    format      ascii;
    class       volScalarField;
    location    "7500";
    object      kra;
}
// * * * * * * * * * * * * * * * * * * * * * * * * * * * * * * * * * * * * * //

dimensions      [0 0 0 0 0 0 0];

internalField   nonuniform List<scalar> 
1000
(
0.000237756
0.000241352
0.000245295
0.000248987
0.00025238
0.000255446
0.000258261
0.000262085
0.000272326
0.00031205
0.000568268
0.000844746
0.000897189
0.000913167
0.000920414
0.000924402
0.000926564
0.000927669
0.0009281
0.000928015
0.000927823
0.000926842
0.000926469
0.00092482
0.000923048
0.000920464
0.000917112
0.00091232
0.000906285
0.000899061
0.000891267
0.000883289
0.000875316
0.000867425
0.000859619
0.000851897
0.00084429
0.000836876
0.000829755
0.000823012
0.000816689
0.000810775
0.000805213
0.000799924
0.000794827
0.000789854
0.000784946
0.000780057
0.000775138
0.000770136
0.000764995
0.000759654
0.000754064
0.000748193
0.000742033
0.00073561
0.000728977
0.000722213
0.000715411
0.000708671
0.000702084
0.000695731
0.00068967
0.000683938
0.00067855
0.0006735
0.000668767
0.000664318
0.000660115
0.000656113
0.000652273
0.000648555
0.000644926
0.000641356
0.000637826
0.000634319
0.000630825
0.00062734
0.000623862
0.000620392
0.000616935
0.000613494
0.000610074
0.00060668
0.000603317
0.000599988
0.000596695
0.000593441
0.000590227
0.000587055
0.000583923
0.000580832
0.000577782
0.000574771
0.000571799
0.000568866
0.000565969
0.000563109
0.000560283
0.000557492
0.000554734
0.000552009
0.000549316
0.000546654
0.000544023
0.000541421
0.000538849
0.000536305
0.00053379
0.000531302
0.000528843
0.000526411
0.000524006
0.000521628
0.000519278
0.000516955
0.000514658
0.000512388
0.000510145
0.000507929
0.000505739
0.000503575
0.000501436
0.000499323
0.000497235
0.000495172
0.000493132
0.000491117
0.000489124
0.000487155
0.000485207
0.000483281
0.000481377
0.000479493
0.000477629
0.000475784
0.000473959
0.000472152
0.000470363
0.000468592
0.000466838
0.000465101
0.00046338
0.000461675
0.000459985
0.00045831
0.00045665
0.000455005
0.000453374
0.000451758
0.000450155
0.000448566
0.000446991
0.000445428
0.000443879
0.000442342
0.000440817
0.000439303
0.000437802
0.000436312
0.000434834
0.000433368
0.000431916
0.000430475
0.000429049
0.000427635
0.000426236
0.00042485
0.000423479
0.00042212
0.000420776
0.000419446
0.00041813
0.000416829
0.000415544
0.000414276
0.000413028
0.0004118
0.000410595
0.000409416
0.000408264
0.000407142
0.00040605
0.000404991
0.000403965
0.000402971
0.00040201
0.000401078
0.000400175
0.000399296
0.000398437
0.000397594
0.000396762
0.000395933
0.000395102
0.00039426
0.000393402
0.000392515
0.000391602
0.00039064
0.000389643
0.000388579
0.000387477
0.000386293
0.000385075
0.000383764
0.000382432
0.000381004
0.000379571
0.000378054
0.000376545
0.000374976
0.000373425
0.000371847
0.00037029
0.000368742
0.000367216
0.000365728
0.000364263
0.000362852
0.000361471
0.000360142
0.000358852
0.000357604
0.000356401
0.000355229
0.000354099
0.000352994
0.000351919
0.000350868
0.000349833
0.000348818
0.000347812
0.000346817
0.000345829
0.000344843
0.000343862
0.000342879
0.000341896
0.000340912
0.000339923
0.000338934
0.000337941
0.000336943
0.000335945
0.000334941
0.000333937
0.00033293
0.000331921
0.000330913
0.000329901
0.000328892
0.000327882
0.000326873
0.000325867
0.000324858
0.000323856
0.000322852
0.000321851
0.000320855
0.000319857
0.000318867
0.000317875
0.000316889
0.000315905
0.000314922
0.000313946
0.000312969
0.000311999
0.00031103
0.000310066
0.000309108
0.00030815
0.000307203
0.000306257
0.000305324
0.000304396
0.00030348
0.00030258
0.00030169
0.000300826
0.000299978
0.000299163
0.000298376
0.000297626
0.000296919
0.000296251
0.000295637
0.000295062
0.00029454
0.000294049
0.00029358
0.000293101
0.00029255
0.000291844
0.000290806
0.00028919
0.000286598
0.000282544
0.000276646
0.000269038
0.000260845
0.00025378
0.000248965
0.000246268
0.000244924
0.000244295
0.000243992
0.000243851
0.000243787
0.000243754
0.00024375
0.000243752
0.000243759
0.000243771
0.000243786
0.000243802
0.00024382
0.00024384
0.000243859
0.000243881
0.000243903
0.000243926
0.000243949
0.000243973
0.000243997
0.000244023
0.000244048
0.000244074
0.0002441
0.000244127
0.000244153
0.00024418
0.000244207
0.000244235
0.000244261
0.000244289
0.000244316
0.000244344
0.000244372
0.0002444
0.000244428
0.000244457
0.000244485
0.000244515
0.000244544
0.000244574
0.000244605
0.000244636
0.000244668
0.000244701
0.000244734
0.000244769
0.000244804
0.000244842
0.00024488
0.000244921
0.000244962
0.000245007
0.000245053
0.000245102
0.000245153
0.000245209
0.000245267
0.00024533
0.000245397
0.000245469
0.000245545
0.000245627
0.000245715
0.000245809
0.000245909
0.000246016
0.000246129
0.000246249
0.000246376
0.00024651
0.000246649
0.000246795
0.000246946
0.000247103
0.000247263
0.000247427
0.000247593
0.000247761
0.000247928
0.000248094
0.000248257
0.000248416
0.000248569
0.000248714
0.000248849
0.000248973
0.000249084
0.00024918
0.000249259
0.000249321
0.000249362
0.000249384
0.000249389
0.000249389
0.000249384
0.000249347
0.00024927
0.000249172
0.000249056
0.000248924
0.000248776
0.000248614
0.000248442
0.00024826
0.000248072
0.00024788
0.000247685
0.000247491
0.000247299
0.000247111
0.00024693
0.000246757
0.000246593
0.000246439
0.000246297
0.000246166
0.000246048
0.000245942
0.000245849
0.000245767
0.000245698
0.000245638
0.000245589
0.00024555
0.000245518
0.000245494
0.000245477
0.000245465
0.000245458
0.000245454
0.000245453
0.000245453
0.000245453
0.000245457
0.000245462
0.000245466
0.000245468
0.00024547
0.00024547
0.00024547
0.000245469
0.000245465
0.000245456
0.000245445
0.000245431
0.000245415
0.000245397
0.000245376
0.000245353
0.000245329
0.000245302
0.000245274
0.000245244
0.000245212
0.00024518
0.000245147
0.000245112
0.000245077
0.000245041
0.000245005
0.000244969
0.000244932
0.000244896
0.000244859
0.000244823
0.000244787
0.000244751
0.000244716
0.000244681
0.000244647
0.000244614
0.000244581
0.000244549
0.000244518
0.000244488
0.000244459
0.000244431
0.000244403
0.000244376
0.000244351
0.000244326
0.000244302
0.000244279
0.000244257
0.000244235
0.000244214
0.000244195
0.000244176
0.000244157
0.00024414
0.000244123
0.000244107
0.000244091
0.000244076
0.000244062
0.000244049
0.000244036
0.000244024
0.000244013
0.000244002
0.000243992
0.000243983
0.000243974
0.000243966
0.000243959
0.000243953
0.000243948
0.000243944
0.000243941
0.000243939
0.000243937
0.000243937
0.000243937
0.000243937
0.000243939
0.000243943
0.000243948
0.000243955
0.000243962
0.000243972
0.000243981
0.000243993
0.000244005
0.000244018
0.000244033
0.000244049
0.000244065
0.000244083
0.000244101
0.000244121
0.000244141
0.000244162
0.000244184
0.000244207
0.00024423
0.000244254
0.000244278
0.000244303
0.000244328
0.000244354
0.00024438
0.000244407
0.000244434
0.000244462
0.000244489
0.000244517
0.000244545
0.000244574
0.000244603
0.000244633
0.000244663
0.000244695
0.000244726
0.000244759
0.000244792
0.000244827
0.000244862
0.0002449
0.000244938
0.000244979
0.000245021
0.000245066
0.000245113
0.000245163
0.000245215
0.000245271
0.00024533
0.000245392
0.000245459
0.000245529
0.000245604
0.000245683
0.000245767
0.000245856
0.000245949
0.000246047
0.000246149
0.000246257
0.000246369
0.000246485
0.000246605
0.000246729
0.000246855
0.000246984
0.000247115
0.000247248
0.000247381
0.000247513
0.000247644
0.000247774
0.000247899
0.000248021
0.000248137
0.000248247
0.000248349
0.000248443
0.000248526
0.0002486
0.000248661
0.00024871
0.000248746
0.000248767
0.000248774
0.000248775
0.000248773
0.00024876
0.000248713
0.000248648
0.000248569
0.000248478
0.000248374
0.000248259
0.000248134
0.000248001
0.000247861
0.000247716
0.000247567
0.000247415
0.000247264
0.000247113
0.000246964
0.000246819
0.000246679
0.000246545
0.000246417
0.000246297
0.000246185
0.000246081
0.000245986
0.000245899
0.000245821
0.000245752
0.00024569
0.000245637
0.000245591
0.000245552
0.00024552
0.000245493
0.000245471
0.000245454
0.000245441
0.000245431
0.000245424
0.00024542
0.000245417
0.000245415
0.000245413
0.000245413
0.000245412
0.000245412
0.000245411
0.000245409
0.000245406
0.000245401
0.000245395
0.000245386
0.000245375
0.000245362
0.000245348
0.000245331
0.000245312
0.000245291
0.000245269
0.000245244
0.000245218
0.00024519
0.000245161
0.000245131
0.000245099
0.000245067
0.000245033
0.000244999
0.000244964
0.000244928
0.000244892
0.000244856
0.000244819
0.000244783
0.000244746
0.00024471
0.000244674
0.000244638
0.000244602
0.000244567
0.000244533
0.000244499
0.000244466
0.000244434
0.000244403
0.000244372
0.000244342
0.000244313
0.000244285
0.000244258
0.000244232
0.000244207
0.000244182
0.000244159
0.000244136
0.000244115
0.000244094
0.000244074
0.000244055
0.000244036
0.000244019
0.000244002
0.000243986
0.000243971
0.000243956
0.000243942
0.000243929
0.000243916
0.000243904
0.000243893
0.000243882
0.000243872
0.000243863
0.000243854
0.000243846
0.000243839
0.000243832
0.000243826
0.000243821
0.000243817
0.000243813
0.00024381
0.000243808
0.000243807
0.000243807
0.000243807
0.000243807
0.000243809
0.000243813
0.000243817
0.000243823
0.000243829
0.000243838
0.000243846
0.000243857
0.000243868
0.00024388
0.000243893
0.000243908
0.000243924
0.000243941
0.000243959
0.000243978
0.000243999
0.00024402
0.000244043
0.000244066
0.000244091
0.000244117
0.000244144
0.000244172
0.000244201
0.000244231
0.000244262
0.000244295
0.000244328
0.000244363
0.000244399
0.000244437
0.000244475
0.000244516
0.000244557
0.000244601
0.000244646
0.000244693
0.000244742
0.000244793
0.000244846
0.000244902
0.00024496
0.000245021
0.000245085
0.000245151
0.000245221
0.000245294
0.000245369
0.000245449
0.000245532
0.000245618
0.000245708
0.000245802
0.000245898
0.000245999
0.000246102
0.000246209
0.000246318
0.000246431
0.000246546
0.000246663
0.000246781
0.000246901
0.000247022
0.000247143
0.000247264
0.000247384
0.000247502
0.000247618
0.000247732
0.000247842
0.000247947
0.000248047
0.000248142
0.00024823
0.00024831
0.000248383
0.000248447
0.000248502
0.000248546
0.000248581
0.000248603
0.000248615
0.000248618
0.000248618
0.000248615
0.000248595
0.000248552
0.000248497
0.000248433
0.000248359
0.000248275
0.000248184
0.000248085
0.000247979
0.000247869
0.000247754
0.000247636
0.000247516
0.000247395
0.000247273
0.000247153
0.000247034
0.000246919
0.000246806
0.000246698
0.000246595
0.000246496
0.000246403
0.000246316
0.000246235
0.00024616
0.00024609
0.000246027
0.000245969
0.000245918
0.000245871
0.000245829
0.000245792
0.00024576
0.000245731
0.000245706
0.000245684
0.000245665
0.000245648
0.000245633
0.00024562
0.000245608
0.000245596
0.000245586
0.000245576
0.000245565
0.000245555
0.000245544
0.000245533
0.00024552
0.000245507
0.000245493
0.000245478
0.000245461
0.000245443
0.000245424
0.000245404
0.000245382
0.000245359
0.000245334
0.000245309
0.000245282
0.000245254
0.000245225
0.000245195
0.000245164
0.000245132
0.000245099
0.000245066
0.000245032
0.000244997
0.000244962
0.000244926
0.00024489
0.000244854
0.000244818
0.000244782
0.000244746
0.00024471
0.000244674
0.000244638
0.000244603
0.000244568
0.000244534
0.0002445
0.000244467
0.000244435
0.000244403
0.000244372
0.000244342
0.000244313
0.000244284
0.000244257
0.000244231
0.000244205
0.000244181
0.000244158
0.000244135
0.000244114
0.000244094
0.000244075
0.000244056
0.000244039
0.000244023
0.000244008
0.000243994
0.000243981
0.000243969
0.000243958
0.000243948
0.000243938
0.00024393
0.000243922
0.000243916
0.00024391
0.000243904
0.0002439
0.000243896
0.000243893
0.000243891
0.00024389
0.000243889
0.000243889
0.000243889
0.000243889
0.000243891
0.000243893
0.000243897
0.000243901
0.000243907
0.000243913
0.00024392
0.000243928
0.000243936
0.000243948
0.000243955
0.000243972
0.000243978
0.000244001
0.000244007
0.000244033
0.00024404
0.000244071
0.000244079
0.000244113
0.000244123
0.000244162
0.000244173
0.000244217
0.000244228
0.000244278
0.000244291
0.000244345
0.00024436
0.00024442
0.000244437
0.000244503
0.000244521
0.000244593
0.000244613
0.000244692
0.000244713
0.0002448
0.000244823
0.000244918
0.000244942
0.000245045
0.000245072
0.000245183
0.000245212
0.000245331
0.000245362
0.00024549
0.000245524
0.000245696
)
;

boundaryField
{
    inlet
    {
        type            calculated;
        value           uniform 0.000236304;
    }
    outlet
    {
        type            calculated;
        value           uniform 0.000245679;
    }
    emptyWalls
    {
        type            empty;
    }
}


// ************************************************************************* //
