/*--------------------------------*- C++ -*----------------------------------*\
  =========                 |
  \\      /  F ield         | OpenFOAM: The Open Source CFD Toolbox
   \\    /   O peration     | Website:  https://openfoam.org
    \\  /    A nd           | Version:  9
     \\/     M anipulation  |
\*---------------------------------------------------------------------------*/
FoamFile
{
    format      ascii;
    class       volScalarField;
    location    "7500";
    object      krc;
}
// * * * * * * * * * * * * * * * * * * * * * * * * * * * * * * * * * * * * * //

dimensions      [0 0 0 0 0 0 0];

internalField   nonuniform List<scalar> 
1000
(
1.04443e-06
1.16393e-05
3.62122e-05
7.04495e-05
0.000111467
0.000155492
0.000201957
0.000273211
0.000509286
0.00193698
0.0184252
0.0398409
0.045684
0.0482477
0.0498645
0.051067
0.05204
0.0528561
0.0535631
0.0541896
0.0547684
0.0553254
0.0558877
0.0564988
0.057187
0.0579645
0.0588934
0.0600449
0.0614601
0.0631119
0.0649268
0.0668394
0.0688094
0.0708124
0.072833
0.0748615
0.0768916
0.0789188
0.0809403
0.0829541
0.0849587
0.0869531
0.0889367
0.090909
0.0928698
0.0948186
0.0967555
0.0986804
0.100593
0.102494
0.104383
0.106261
0.108126
0.10998
0.111823
0.113655
0.115475
0.117285
0.119084
0.120872
0.122649
0.124416
0.126172
0.127918
0.129654
0.131379
0.133095
0.134801
0.136497
0.138184
0.139861
0.14153
0.143189
0.14484
0.146482
0.148115
0.149741
0.151358
0.152966
0.154568
0.156161
0.157747
0.159325
0.160895
0.162459
0.164015
0.165564
0.167107
0.168642
0.170171
0.171693
0.173208
0.174717
0.17622
0.177717
0.179208
0.180692
0.182171
0.183644
0.185111
0.186573
0.188029
0.18948
0.190926
0.192366
0.193801
0.195231
0.196656
0.198076
0.199492
0.200903
0.202309
0.20371
0.205108
0.2065
0.207889
0.209273
0.210653
0.212029
0.213401
0.214769
0.216133
0.217493
0.21885
0.220203
0.221552
0.222898
0.22424
0.225579
0.226914
0.228247
0.229576
0.230902
0.232225
0.233544
0.234861
0.236175
0.237487
0.238795
0.240101
0.241404
0.242704
0.244002
0.245298
0.246591
0.247882
0.24917
0.250456
0.251741
0.253022
0.254302
0.25558
0.256856
0.25813
0.259403
0.260673
0.261942
0.263209
0.264474
0.265738
0.267001
0.268262
0.269521
0.270779
0.272036
0.273292
0.274546
0.2758
0.277052
0.278303
0.279553
0.280803
0.282051
0.283298
0.284545
0.285791
0.287037
0.288281
0.289525
0.290769
0.292012
0.293254
0.294497
0.295738
0.29698
0.298221
0.299461
0.300702
0.301942
0.303183
0.304423
0.305664
0.306904
0.308146
0.309387
0.310629
0.311872
0.313115
0.314359
0.315605
0.316851
0.318099
0.319348
0.320598
0.32185
0.323104
0.324359
0.325617
0.326876
0.328137
0.329399
0.330664
0.331931
0.333199
0.33447
0.335742
0.337017
0.338293
0.339572
0.340853
0.342135
0.34342
0.344708
0.345998
0.34729
0.348585
0.349883
0.351184
0.352487
0.353794
0.355104
0.356418
0.357735
0.359057
0.360382
0.361711
0.363044
0.364382
0.365724
0.367071
0.368422
0.369779
0.37114
0.372507
0.373879
0.375257
0.376641
0.378031
0.379427
0.380829
0.382238
0.383653
0.385075
0.386504
0.387941
0.389384
0.390836
0.392296
0.393763
0.395239
0.396723
0.398215
0.399717
0.401227
0.402747
0.404276
0.405814
0.407362
0.408918
0.410483
0.412057
0.413639
0.415228
0.416823
0.418423
0.420025
0.421625
0.423223
0.424811
0.426387
0.427942
0.429469
0.430959
0.432402
0.433789
0.43511
0.436356
0.437519
0.438598
0.439596
0.440528
0.441427
0.442358
0.443436
0.444862
0.446986
0.450394
0.456031
0.46528
0.479831
0.50099
0.528298
0.558411
0.586142
0.607542
0.621787
0.630311
0.635076
0.637637
0.638983
0.639682
0.640043
0.640228
0.640323
0.640371
0.640396
0.640408
0.640414
0.640417
0.640418
0.640418
0.640417
0.640417
0.640416
0.640415
0.640414
0.640413
0.640412
0.640411
0.64041
0.640409
0.640408
0.640407
0.640405
0.640404
0.640403
0.640402
0.640401
0.6404
0.640399
0.640398
0.640397
0.640395
0.640394
0.640393
0.640392
0.640391
0.640389
0.640388
0.640387
0.640386
0.640384
0.640383
0.640381
0.64038
0.640378
0.640377
0.640375
0.640373
0.640371
0.640369
0.640367
0.640365
0.640363
0.64036
0.640358
0.640355
0.640352
0.640349
0.640345
0.640342
0.640338
0.640334
0.64033
0.640325
0.64032
0.640315
0.64031
0.640304
0.640299
0.640293
0.640287
0.640281
0.640275
0.640268
0.640262
0.640256
0.64025
0.640244
0.640238
0.640233
0.640228
0.640224
0.64022
0.640217
0.640214
0.640212
0.640211
0.640211
0.640211
0.640212
0.640212
0.640214
0.640218
0.640222
0.640227
0.640233
0.640239
0.640246
0.640253
0.640261
0.640269
0.640277
0.640285
0.640293
0.640301
0.640309
0.640317
0.640324
0.640331
0.640337
0.640343
0.640348
0.640353
0.640358
0.640362
0.640365
0.640368
0.640371
0.640373
0.640374
0.640376
0.640377
0.640378
0.640378
0.640378
0.640379
0.640379
0.640379
0.640379
0.640379
0.640378
0.640378
0.640378
0.640378
0.640378
0.640378
0.640378
0.640378
0.640378
0.640379
0.640379
0.64038
0.64038
0.640381
0.640382
0.640383
0.640384
0.640385
0.640386
0.640387
0.640388
0.640389
0.64039
0.640392
0.640393
0.640394
0.640396
0.640397
0.640398
0.6404
0.640401
0.640402
0.640404
0.640405
0.640406
0.640407
0.640409
0.64041
0.640411
0.640412
0.640413
0.640414
0.640416
0.640417
0.640418
0.640419
0.64042
0.64042
0.640421
0.640422
0.640423
0.640424
0.640425
0.640425
0.640426
0.640427
0.640427
0.640428
0.640429
0.640429
0.64043
0.640431
0.640431
0.640432
0.640432
0.640432
0.640433
0.640433
0.640434
0.640434
0.640434
0.640434
0.640435
0.640435
0.640435
0.640435
0.640435
0.640435
0.640435
0.640435
0.640435
0.640435
0.640435
0.640435
0.640434
0.640434
0.640434
0.640433
0.640433
0.640433
0.640432
0.640432
0.640431
0.64043
0.64043
0.640429
0.640428
0.640427
0.640427
0.640426
0.640425
0.640424
0.640423
0.640422
0.640421
0.64042
0.640419
0.640418
0.640417
0.640415
0.640414
0.640412
0.640411
0.640409
0.640408
0.640406
0.640405
0.640403
0.640402
0.6404
0.640398
0.640397
0.640395
0.640393
0.640391
0.64039
0.640388
0.640386
0.640384
0.640382
0.64038
0.640378
0.640375
0.640373
0.64037
0.640368
0.640365
0.640361
0.640358
0.640355
0.640351
0.640347
0.640343
0.640339
0.640335
0.64033
0.640325
0.64032
0.640315
0.64031
0.640305
0.6403
0.640295
0.640289
0.640284
0.640279
0.640274
0.640269
0.640265
0.64026
0.640256
0.640253
0.640249
0.640247
0.640244
0.640242
0.640241
0.64024
0.64024
0.64024
0.64024
0.640241
0.640243
0.640245
0.640248
0.640252
0.640256
0.640261
0.640266
0.640271
0.640277
0.640283
0.640289
0.640295
0.640301
0.640307
0.640313
0.640319
0.640325
0.64033
0.640335
0.64034
0.640345
0.640349
0.640353
0.640356
0.64036
0.640362
0.640365
0.640367
0.640369
0.64037
0.640372
0.640373
0.640374
0.640374
0.640375
0.640375
0.640376
0.640376
0.640376
0.640376
0.640376
0.640376
0.640376
0.640376
0.640376
0.640376
0.640376
0.640377
0.640377
0.640377
0.640378
0.640378
0.640379
0.640379
0.64038
0.640381
0.640382
0.640383
0.640384
0.640385
0.640386
0.640387
0.640388
0.64039
0.640391
0.640393
0.640394
0.640395
0.640397
0.640398
0.6404
0.640401
0.640403
0.640404
0.640406
0.640407
0.640408
0.64041
0.640411
0.640413
0.640414
0.640415
0.640416
0.640418
0.640419
0.64042
0.640421
0.640422
0.640423
0.640424
0.640425
0.640426
0.640427
0.640428
0.640429
0.64043
0.64043
0.640431
0.640432
0.640433
0.640433
0.640434
0.640434
0.640435
0.640435
0.640436
0.640436
0.640437
0.640437
0.640438
0.640438
0.640439
0.640439
0.640439
0.64044
0.64044
0.64044
0.64044
0.64044
0.640441
0.640441
0.640441
0.640441
0.640441
0.640441
0.640441
0.640441
0.64044
0.64044
0.64044
0.64044
0.640439
0.640439
0.640438
0.640438
0.640437
0.640437
0.640436
0.640435
0.640434
0.640433
0.640433
0.640432
0.640431
0.64043
0.640428
0.640427
0.640426
0.640425
0.640424
0.640422
0.640421
0.64042
0.640418
0.640417
0.640415
0.640414
0.640412
0.64041
0.640409
0.640407
0.640405
0.640403
0.640401
0.640399
0.640397
0.640395
0.640392
0.64039
0.640388
0.640385
0.640382
0.640379
0.640376
0.640373
0.64037
0.640366
0.640363
0.640359
0.640355
0.640351
0.640347
0.640343
0.640339
0.640334
0.640329
0.640325
0.64032
0.640315
0.640311
0.640306
0.640301
0.640296
0.640291
0.640287
0.640282
0.640278
0.640274
0.64027
0.640266
0.640262
0.640259
0.640256
0.640254
0.640251
0.64025
0.640248
0.640247
0.640247
0.640247
0.640247
0.640247
0.640248
0.640249
0.640252
0.640254
0.640257
0.640261
0.640264
0.640268
0.640272
0.640277
0.640281
0.640286
0.640291
0.640296
0.640301
0.640306
0.64031
0.640315
0.640319
0.640324
0.640328
0.640332
0.640336
0.640339
0.640342
0.640345
0.640348
0.640351
0.640353
0.640355
0.640357
0.640359
0.64036
0.640361
0.640362
0.640364
0.640364
0.640365
0.640366
0.640367
0.640367
0.640367
0.640368
0.640368
0.640369
0.640369
0.64037
0.64037
0.640371
0.640371
0.640372
0.640372
0.640373
0.640374
0.640374
0.640375
0.640376
0.640377
0.640378
0.640379
0.64038
0.640381
0.640382
0.640383
0.640384
0.640385
0.640387
0.640388
0.640389
0.640391
0.640392
0.640394
0.640395
0.640396
0.640398
0.640399
0.640401
0.640402
0.640404
0.640405
0.640407
0.640408
0.640409
0.640411
0.640412
0.640413
0.640415
0.640416
0.640417
0.640418
0.64042
0.640421
0.640422
0.640423
0.640424
0.640425
0.640426
0.640427
0.640428
0.640428
0.640429
0.64043
0.640431
0.640431
0.640432
0.640432
0.640433
0.640433
0.640434
0.640434
0.640435
0.640435
0.640435
0.640436
0.640436
0.640436
0.640436
0.640436
0.640436
0.640437
0.640437
0.640437
0.640437
0.640437
0.640437
0.640437
0.640436
0.640436
0.640436
0.640436
0.640436
0.640435
0.640435
0.640435
0.640434
0.640434
0.640433
0.640433
0.640432
0.640431
0.64043
0.64043
0.640429
0.640428
0.640427
0.640427
0.640425
0.640424
0.640423
0.640422
0.64042
0.640419
0.640417
0.640417
0.640414
0.640414
0.640411
0.64041
0.640407
0.640406
0.640403
0.640402
0.640399
0.640398
0.640394
0.640393
0.640389
0.640388
0.640384
0.640382
0.640378
0.640377
0.640371
0.64037
0.640363
)
;

boundaryField
{
    inlet
    {
        type            calculated;
        value           uniform 3.08149e-33;
    }
    outlet
    {
        type            calculated;
        value           uniform 0.640363;
    }
    emptyWalls
    {
        type            empty;
    }
}


// ************************************************************************* //
