/*--------------------------------*- C++ -*----------------------------------*\
  =========                 |
  \\      /  F ield         | OpenFOAM: The Open Source CFD Toolbox
   \\    /   O peration     | Website:  https://openfoam.org
    \\  /    A nd           | Version:  9
     \\/     M anipulation  |
\*---------------------------------------------------------------------------*/
FoamFile
{
    format      ascii;
    class       volScalarField;
    location    "7500";
    object      p;
}
// * * * * * * * * * * * * * * * * * * * * * * * * * * * * * * * * * * * * * //

dimensions      [0 0 0 0 0 0 0];

internalField   nonuniform List<scalar> 
1000
(
244919
244498
244084
243676
243274
242878
242487
242100
241725
241385
241141
241026
240936
240850
240767
240683
240601
240519
240437
240355
240273
240192
240110
240029
239947
239865
239783
239701
239618
239535
239451
239366
239281
239194
239107
239019
238930
238841
238751
238659
238568
238475
238381
238287
238192
238096
238000
237903
237805
237706
237607
237506
237406
237304
237202
237098
236995
236890
236785
236679
236572
236464
236356
236247
236137
236027
235916
235804
235692
235579
235465
235350
235235
235119
235003
234886
234768
234650
234531
234411
234291
234170
234048
233926
233803
233680
233556
233431
233305
233179
233053
232926
232798
232669
232540
232410
232280
232149
232018
231886
231753
231619
231486
231351
231216
231080
230944
230807
230669
230531
230393
230253
230114
229973
229832
229691
229548
229406
229262
229119
228974
228829
228684
228537
228391
228243
228095
227947
227798
227649
227498
227348
227197
227045
226893
226740
226586
226432
226278
226123
225967
225811
225654
225497
225339
225181
225022
224862
224702
224542
224381
224219
224057
223895
223731
223568
223403
223239
223073
222907
222741
222574
222407
222239
222070
221901
221731
221561
221391
221219
221048
220876
220703
220530
220356
220181
220007
219831
219655
219479
219302
219125
218947
218768
218589
218410
218230
218049
217868
217687
217505
217322
217139
216956
216772
216587
216402
216217
216031
215844
215657
215470
215282
215093
214904
214715
214524
214334
214143
213951
213758
213566
213372
213178
212984
212789
212593
212397
212200
212003
211805
211607
211408
211208
211008
210808
210607
210405
210203
210000
209797
209594
209389
209184
208979
208773
208567
208360
208152
207944
207736
207527
207317
207107
206896
206685
206473
206261
206048
205834
205620
205406
205190
204975
204758
204542
204324
204106
203888
203669
203449
203229
203008
202786
202564
202342
202119
201895
201670
201446
201220
200994
200767
200540
200312
200084
199855
199625
199395
199164
198933
198701
198468
198235
198002
197768
197533
197299
197063
196828
196592
196356
196119
195882
195645
195407
195168
194927
194685
194438
194186
193928
193663
193393
193119
192843
192566
192288
192011
191733
191455
191177
190899
190621
190343
190066
189788
189510
189232
188954
188676
188398
188120
187843
187565
187287
187009
186731
186453
186175
185898
185620
185342
185064
184786
184508
184231
183953
183675
183397
183119
182842
182564
182286
182008
181730
181453
181175
180897
180619
180342
180064
179786
179508
179231
178953
178675
178397
178120
177842
177564
177287
177009
176731
176453
176176
175898
175621
175343
175065
174788
174510
174232
173955
173677
173400
173122
172845
172567
172290
172012
171735
171457
171180
170903
170625
170348
170071
169793
169516
169239
168962
168685
168407
168130
167853
167576
167299
167022
166744
166467
166190
165913
165636
165359
165082
164804
164527
164250
163973
163695
163418
163141
162863
162586
162309
162031
161754
161476
161199
160921
160644
160366
160089
159811
159533
159256
158978
158701
158423
158145
157868
157590
157312
157035
156757
156479
156202
155924
155646
155369
155091
154813
154536
154258
153980
153703
153425
153147
152870
152592
152314
152037
151759
151481
151204
150926
150648
150371
150093
149815
149538
149260
148982
148704
148427
148149
147871
147594
147316
147038
146760
146483
146205
145927
145649
145372
145094
144816
144538
144260
143983
143705
143427
143149
142871
142594
142316
142038
141760
141482
141205
140927
140649
140371
140093
139815
139538
139260
138982
138704
138426
138148
137871
137593
137315
137037
136759
136481
136203
135926
135648
135370
135092
134814
134536
134258
133981
133703
133425
133147
132869
132591
132313
132035
131758
131480
131202
130924
130646
130368
130090
129813
129535
129257
128979
128701
128423
128146
127868
127590
127312
127034
126756
126479
126201
125923
125645
125367
125090
124812
124534
124256
123978
123701
123423
123145
122867
122590
122312
122034
121756
121479
121201
120923
120645
120368
120090
119812
119534
119257
118979
118701
118424
118146
117868
117591
117313
117035
116758
116480
116203
115925
115647
115370
115092
114815
114537
114260
113982
113705
113427
113150
112873
112595
112318
112040
111763
111486
111208
110931
110654
110377
110099
109822
109545
109268
108990
108713
108436
108159
107881
107604
107327
107050
106773
106495
106218
105941
105663
105386
105109
104831
104554
104277
103999
103722
103444
103167
102889
102612
102334
102057
101779
101502
101224
100947
100669
100391
100114
99836.1
99558.5
99280.8
99003.2
98725.5
98447.9
98170.2
97892.5
97614.9
97337.2
97059.5
96781.9
96504.2
96226.5
95948.9
95671.2
95393.5
95115.9
94838.2
94560.5
94282.9
94005.2
93727.5
93449.9
93172.2
92894.5
92616.8
92339.2
92061.5
91783.8
91506.1
91228.4
90950.7
90673
90395.3
90117.6
89839.9
89562.2
89284.5
89006.8
88729
88451.3
88173.5
87895.8
87618.1
87340.3
87062.5
86784.8
86507
86229.2
85951.5
85673.7
85395.9
85118.1
84840.3
84562.5
84284.7
84006.9
83729.1
83451.3
83173.5
82895.6
82617.8
82340
82062.1
81784.3
81506.5
81228.6
80950.8
80672.9
80395.1
80117.2
79839.4
79561.5
79283.7
79005.8
78728
78450.1
78172.2
77894.4
77616.5
77338.6
77060.7
76782.9
76505
76227.1
75949.3
75671.4
75393.5
75115.6
74837.7
74559.9
74282
74004.1
73726.2
73448.3
73170.5
72892.6
72614.7
72336.8
72058.9
71781.1
71503.2
71225.3
70947.4
70669.5
70391.7
70113.8
69835.9
69558.1
69280.2
69002.3
68724.5
68446.6
68168.8
67890.9
67613.1
67335.2
67057.4
66779.5
66501.7
66223.8
65946
65668.2
65390.4
65112.6
64834.7
64556.9
64279.1
64001.3
63723.5
63445.7
63168
62890.2
62612.4
62334.6
62056.9
61779.1
61501.4
61223.6
60945.9
60668.2
60390.5
60112.8
59835.1
59557.4
59279.7
59002
58724.4
58446.7
58169.1
57891.5
57613.9
57336.3
57058.7
56781.1
56503.6
56226
55948.5
55671
55393.5
55116
54838.6
54561.1
54283.7
54006.3
53728.9
53451.5
53174.2
52896.8
52619.5
52342.1
52064.8
51787.5
51510.2
51233
50955.7
50678.4
50401.2
50123.9
49846.7
49569.5
49292.2
49015
48737.7
48460.5
48183.3
47906
47628.7
47351.5
47074.2
46796.9
46519.6
46242.3
45964.9
45687.6
45410.2
45132.8
44855.5
44578
44300.6
44023.2
43745.7
43468.2
43190.8
42913.2
42635.7
42358.2
42080.7
41803.1
41525.6
41248
40970.4
40692.8
40415.2
40137.6
39860
39582.4
39304.8
39027.1
38749.5
38471.9
38194.3
37916.6
37639
37361.4
37083.7
36806.1
36528.4
36250.8
35973.1
35695.5
35417.8
35140.2
34862.5
34584.9
34307.2
34029.6
33751.9
33474.3
33196.6
32918.9
32641.3
32363.6
32085.9
31808.2
31530.5
31252.9
30975.2
30697.5
30419.8
30142.1
29864.4
29586.7
29308.9
29031.2
28753.5
28475.8
28198
27920.3
27642.6
27364.8
27087.1
26809.3
26531.5
26253.8
25976
25698.2
25420.4
25142.6
24864.9
24587.1
24309.3
24031.5
23753.6
23475.8
23198
22920.2
22642.4
22364.6
22086.7
21808.9
21531.1
21253.2
20975.4
20697.5
20419.7
20141.8
19864
19586.1
19308.3
19030.4
18752.6
18474.7
18196.8
17919
17641.1
17363.3
17085.4
16807.5
16529.7
16251.8
15973.9
15696
15418.2
15140.3
14862.4
14584.6
14306.7
14028.8
13751
13473.1
13195.2
12917.4
12639.5
12361.6
12083.8
11805.9
11528
11250.2
10972.3
10694.4
10416.6
10138.7
9860.87
9583.02
9305.17
9027.32
8749.48
8471.63
8193.79
7915.96
7638.13
7360.3
7082.47
6804.65
6526.83
6249.02
5971.21
5693.41
5415.61
5137.82
4860.03
4582.25
4304.48
4026.71
3748.95
3471.19
3193.45
2915.71
2637.98
2360.25
2082.54
1804.83
1527.14
1249.45
971.778
694.113
416.459
138.816
)
;

boundaryField
{
    inlet
    {
        type            darcyGradPressure;
        gradient        uniform 116344;
        Mf              Mf;
        phi             phi;
        value           uniform 245133;
    }
    outlet
    {
        type            fixedValue;
        value           uniform 0;
    }
    emptyWalls
    {
        type            empty;
    }
}


// ************************************************************************* //
