/*--------------------------------*- C++ -*----------------------------------*\
  =========                 |
  \\      /  F ield         | OpenFOAM: The Open Source CFD Toolbox
   \\    /   O peration     | Website:  https://openfoam.org
    \\  /    A nd           | Version:  9
     \\/     M anipulation  |
\*---------------------------------------------------------------------------*/
FoamFile
{
    format      ascii;
    class       volScalarField;
    location    "11150";
    object      p;
}
// * * * * * * * * * * * * * * * * * * * * * * * * * * * * * * * * * * * * * //

dimensions      [0 0 0 0 0 0 0];

internalField   nonuniform List<scalar> 
1000
(
229167
228744
228324
227910
227500
227094
226692
226295
225901
225510
225122
224736
224354
223979
223626
223344
223213
223119
223032
222947
222863
222779
222696
222614
222531
222449
222367
222285
222204
222122
222040
221959
221877
221795
221714
221632
221550
221469
221387
221305
221223
221140
221057
220974
220891
220807
220722
220637
220552
220465
220379
220291
220204
220115
220026
219937
219847
219756
219665
219574
219482
219389
219296
219202
219108
219013
218917
218822
218725
218628
218531
218433
218335
218236
218137
218037
217937
217836
217735
217633
217531
217428
217325
217221
217117
217013
216907
216802
216696
216589
216482
216374
216266
216158
216049
215939
215829
215719
215608
215496
215385
215272
215159
215046
214932
214818
214704
214589
214473
214357
214241
214124
214007
213889
213771
213653
213534
213414
213294
213174
213053
212932
212810
212688
212566
212443
212320
212196
212072
211947
211822
211697
211571
211445
211318
211191
211063
210935
210807
210678
210549
210419
210289
210159
210028
209897
209765
209633
209501
209368
209235
209101
208967
208833
208698
208562
208427
208291
208154
208017
207880
207743
207605
207466
207327
207188
207049
206909
206768
206627
206486
206345
206203
206060
205918
205775
205631
205487
205343
205199
205054
204908
204762
204616
204470
204323
204176
204028
203880
203732
203583
203434
203284
203134
202984
202833
202682
202531
202379
202227
202075
201922
201769
201615
201461
201307
201152
200997
200842
200686
200530
200373
200217
200059
199902
199744
199586
199427
199268
199109
198950
198790
198629
198469
198308
198146
197985
197823
197660
197497
197334
197171
197007
196842
196678
196513
196347
196182
196015
195849
195682
195515
195347
195179
195010
194842
194672
194503
194333
194163
193992
193821
193650
193478
193306
193134
192961
192788
192614
192441
192266
192092
191917
191742
191566
191390
191214
191037
190860
190683
190505
190327
190149
189970
189791
189611
189431
189251
189071
188890
188708
188527
188345
188162
187980
187797
187613
187430
187245
187061
186876
186691
186505
186320
186133
185947
185760
185573
185385
185197
185008
184820
184631
184441
184252
184061
183871
183680
183489
183297
183105
182913
182721
182528
182334
182141
181947
181752
181558
181362
181167
180971
180775
180579
180382
180185
179987
179789
179591
179392
179193
178994
178794
178594
178394
178193
177992
177790
177589
177386
177184
176981
176778
176574
176370
176166
175961
175756
175551
175345
175139
174932
174726
174518
174311
174103
173895
173686
173477
173267
173058
172848
172637
172426
172215
172004
171792
171579
171367
171154
170940
170727
170512
170298
170083
169868
169652
169436
169220
169003
168786
168569
168351
168133
167915
167696
167477
167257
167037
166817
166596
166375
166154
165932
165710
165487
165264
165041
164817
164593
164369
164144
163919
163693
163467
163241
163014
162786
162559
162331
162102
161873
161644
161414
161184
160953
160722
160491
160259
160027
159794
159561
159328
159094
158860
158625
158391
158156
157920
157685
157449
157213
156977
156740
156504
156267
156031
155794
155557
155320
155082
154845
154606
154367
154126
153883
153636
153383
153123
152857
152586
152312
152035
151759
151481
151204
150926
150648
150371
150093
149815
149538
149260
148982
148704
148427
148149
147871
147593
147316
147038
146760
146482
146204
145927
145649
145371
145093
144816
144538
144260
143982
143704
143426
143149
142871
142593
142315
142037
141760
141482
141204
140926
140648
140370
140093
139815
139537
139259
138981
138703
138426
138148
137870
137592
137314
137036
136759
136481
136203
135925
135647
135369
135091
134814
134536
134258
133980
133702
133424
133147
132869
132591
132313
132035
131757
131480
131202
130924
130646
130368
130090
129813
129535
129257
128979
128701
128423
128146
127868
127590
127312
127034
126757
126479
126201
125923
125645
125367
125090
124812
124534
124256
123979
123701
123423
123145
122867
122590
122312
122034
121756
121479
121201
120923
120645
120368
120090
119812
119535
119257
118979
118702
118424
118146
117869
117591
117314
117036
116758
116481
116203
115926
115648
115371
115093
114816
114538
114261
113984
113706
113429
113152
112874
112597
112320
112042
111765
111488
111210
110933
110656
110379
110101
109824
109547
109270
108993
108715
108438
108161
107884
107606
107329
107052
106774
106497
106220
105942
105665
105388
105110
104833
104555
104278
104000
103723
103445
103168
102890
102613
102335
102057
101780
101502
101225
100947
100669
100392
100114
99836.5
99558.8
99281.2
99003.5
98725.8
98448.2
98170.5
97892.8
97615.1
97337.4
97059.7
96782.1
96504.4
96226.7
95949
95671.3
95393.6
95115.8
94838.1
94560.4
94282.7
94005
93727.3
93449.5
93171.8
92894.1
92616.3
92338.6
92060.8
91783.1
91505.3
91227.6
90949.8
90672
90394.3
90116.5
89838.7
89560.9
89283.2
89005.4
88727.6
88449.8
88172
87894.2
87616.4
87338.6
87060.8
86782.9
86505.1
86227.3
85949.5
85671.7
85393.8
85116
84838.2
84560.3
84282.5
84004.7
83726.8
83449
83171.1
82893.3
82615.4
82337.6
82059.7
81781.9
81504
81226.2
80948.3
80670.5
80392.6
80114.8
79836.9
79559.1
79281.2
79003.4
78725.5
78447.7
78169.8
77892
77614.1
77336.3
77058.4
76780.5
76502.7
76224.8
75947
75669.2
75391.3
75113.5
74835.6
74557.8
74279.9
74002.1
73724.2
73446.4
73168.6
72890.7
72612.9
72335.1
72057.2
71779.4
71501.6
71223.8
70945.9
70668.1
70390.3
70112.5
69834.7
69556.8
69279
69001.2
68723.4
68445.6
68167.8
67890
67612.2
67334.4
67056.7
66778.9
66501.1
66223.3
65945.5
65667.8
65390
65112.3
64834.5
64556.7
64279
64001.3
63723.5
63445.8
63168.1
62890.4
62612.7
62335
62057.3
61779.6
61502
61224.3
60946.7
60669
60391.4
60113.8
59836.2
59558.6
59281
59003.5
58725.9
58448.4
58170.9
57893.4
57615.9
57338.4
57061
56783.5
56506.1
56228.7
55951.3
55673.9
55396.5
55119.2
54841.8
54564.5
54287.1
54009.8
53732.5
53455.2
53177.9
52900.6
52623.3
52346
52068.7
51791.4
51514.2
51236.9
50959.6
50682.3
50405
50127.7
49850.4
49573
49295.7
49018.3
48741
48463.6
48186.2
47908.8
47631.4
47354
47076.5
46799.1
46521.6
46244.1
45966.6
45689.1
45411.6
45134
44856.5
44578.9
44301.4
44023.8
43746.2
43468.6
43191
42913.3
42635.7
42358.1
42080.4
41802.8
41525.1
41247.5
40969.8
40692.1
40414.4
40136.8
39859.1
39581.4
39303.7
39026
38748.3
38470.6
38192.9
37915.2
37637.5
37359.8
37082.1
36804.4
36526.6
36248.9
35971.2
35693.5
35415.7
35138
34860.3
34582.5
34304.8
34027.1
33749.3
33471.6
33193.8
32916
32638.3
32360.5
32082.8
31805
31527.2
31249.4
30971.7
30693.9
30416.1
30138.3
29860.5
29582.7
29304.9
29027.1
28749.3
28471.5
28193.7
27915.9
27638.1
27360.3
27082.4
26804.6
26526.8
26249
25971.1
25693.3
25415.5
25137.7
24859.8
24582
24304.2
24026.3
23748.5
23470.7
23192.8
22915
22637.1
22359.3
22081.5
21803.6
21525.8
21247.9
20970.1
20692.3
20414.4
20136.6
19858.7
19580.9
19303
19025.2
18747.4
18469.5
18191.7
17913.9
17636
17358.2
17080.4
16802.5
16524.7
16246.9
15969
15691.2
15413.4
15135.6
14857.7
14579.9
14302.1
14024.3
13746.5
13468.6
13190.8
12913
12635.2
12357.4
12079.6
11801.8
11524
11246.2
10968.4
10690.6
10412.8
10135
9857.25
9579.47
9301.69
9023.92
8746.15
8468.38
8190.62
7912.87
7635.11
7357.37
7079.62
6801.89
6524.16
6246.43
5968.72
5691.01
5413.3
5135.61
4857.92
4580.24
4302.56
4024.9
3747.25
3469.6
3191.97
2914.35
2636.73
2359.13
2081.54
1803.96
1526.4
1248.84
971.298
693.768
416.251
138.746
)
;

boundaryField
{
    inlet
    {
        type            darcyGradPressure;
        gradient        uniform 116344;
        Mf              Mf;
        phi             phi;
        value           uniform 229380;
    }
    outlet
    {
        type            fixedValue;
        value           uniform 0;
    }
    emptyWalls
    {
        type            empty;
    }
}


// ************************************************************************* //
