/*--------------------------------*- C++ -*----------------------------------*\
  =========                 |
  \\      /  F ield         | OpenFOAM: The Open Source CFD Toolbox
   \\    /   O peration     | Website:  https://openfoam.org
    \\  /    A nd           | Version:  9
     \\/     M anipulation  |
\*---------------------------------------------------------------------------*/
FoamFile
{
    format      ascii;
    class       volVectorField;
    location    "11150";
    object      Uc;
}
// * * * * * * * * * * * * * * * * * * * * * * * * * * * * * * * * * * * * * //

dimensions      [0 0 0 0 0 0 0];

internalField   nonuniform List<vector> 
1000
(
(2.39878e-11 0 0)
(1.3247e-10 0 0)
(3.63227e-10 0 0)
(7.10652e-10 0 0)
(1.16272e-09 0 0)
(1.7062e-09 0 0)
(2.32071e-09 0 0)
(2.97772e-09 0 0)
(3.64364e-09 0 0)
(4.28768e-09 0 0)
(4.90229e-09 0 0)
(5.58499e-09 0 0)
(6.93151e-09 0 0)
(1.13106e-08 0 0)
(2.9024e-08 0 0)
(1.05983e-07 0 0)
(1.86302e-07 0 0)
(2.0927e-07 0 0)
(2.17213e-07 0 0)
(2.21635e-07 0 0)
(2.24846e-07 0 0)
(2.27501e-07 0 0)
(2.29843e-07 0 0)
(2.31982e-07 0 0)
(2.33973e-07 0 0)
(2.35846e-07 0 0)
(2.37624e-07 0 0)
(2.39329e-07 0 0)
(2.40984e-07 0 0)
(2.42611e-07 0 0)
(2.4423e-07 0 0)
(2.45862e-07 0 0)
(2.47527e-07 0 0)
(2.49275e-07 0 0)
(2.51145e-07 0 0)
(2.53135e-07 0 0)
(2.55259e-07 0 0)
(2.5757e-07 0 0)
(2.60158e-07 0 0)
(2.63154e-07 0 0)
(2.66739e-07 0 0)
(2.71108e-07 0 0)
(2.76396e-07 0 0)
(2.82587e-07 0 0)
(2.8952e-07 0 0)
(2.96988e-07 0 0)
(3.04832e-07 0 0)
(3.12949e-07 0 0)
(3.2127e-07 0 0)
(3.29751e-07 0 0)
(3.38361e-07 0 0)
(3.47076e-07 0 0)
(3.55881e-07 0 0)
(3.64764e-07 0 0)
(3.73716e-07 0 0)
(3.8273e-07 0 0)
(3.918e-07 0 0)
(4.00921e-07 0 0)
(4.10089e-07 0 0)
(4.19302e-07 0 0)
(4.28556e-07 0 0)
(4.3785e-07 0 0)
(4.47185e-07 0 0)
(4.56558e-07 0 0)
(4.65967e-07 0 0)
(4.7541e-07 0 0)
(4.8488e-07 0 0)
(4.94375e-07 0 0)
(5.03889e-07 0 0)
(5.1342e-07 0 0)
(5.22966e-07 0 0)
(5.32528e-07 0 0)
(5.42105e-07 0 0)
(5.51701e-07 0 0)
(5.61317e-07 0 0)
(5.70954e-07 0 0)
(5.80617e-07 0 0)
(5.90306e-07 0 0)
(6.00027e-07 0 0)
(6.09783e-07 0 0)
(6.19578e-07 0 0)
(6.29417e-07 0 0)
(6.39305e-07 0 0)
(6.49246e-07 0 0)
(6.59242e-07 0 0)
(6.69295e-07 0 0)
(6.79402e-07 0 0)
(6.8956e-07 0 0)
(6.99764e-07 0 0)
(7.10008e-07 0 0)
(7.20285e-07 0 0)
(7.30587e-07 0 0)
(7.40907e-07 0 0)
(7.51238e-07 0 0)
(7.61576e-07 0 0)
(7.71918e-07 0 0)
(7.8226e-07 0 0)
(7.92603e-07 0 0)
(8.02946e-07 0 0)
(8.1329e-07 0 0)
(8.23639e-07 0 0)
(8.33994e-07 0 0)
(8.44358e-07 0 0)
(8.54733e-07 0 0)
(8.65124e-07 0 0)
(8.75531e-07 0 0)
(8.85957e-07 0 0)
(8.96403e-07 0 0)
(9.0687e-07 0 0)
(9.1736e-07 0 0)
(9.27873e-07 0 0)
(9.38409e-07 0 0)
(9.48967e-07 0 0)
(9.59548e-07 0 0)
(9.70151e-07 0 0)
(9.80775e-07 0 0)
(9.9142e-07 0 0)
(1.00209e-06 0 0)
(1.01277e-06 0 0)
(1.02348e-06 0 0)
(1.0342e-06 0 0)
(1.04494e-06 0 0)
(1.0557e-06 0 0)
(1.06648e-06 0 0)
(1.07727e-06 0 0)
(1.08809e-06 0 0)
(1.09892e-06 0 0)
(1.10976e-06 0 0)
(1.12062e-06 0 0)
(1.1315e-06 0 0)
(1.1424e-06 0 0)
(1.15331e-06 0 0)
(1.16424e-06 0 0)
(1.17518e-06 0 0)
(1.18614e-06 0 0)
(1.19712e-06 0 0)
(1.20811e-06 0 0)
(1.21912e-06 0 0)
(1.23015e-06 0 0)
(1.24119e-06 0 0)
(1.25225e-06 0 0)
(1.26333e-06 0 0)
(1.27442e-06 0 0)
(1.28553e-06 0 0)
(1.29666e-06 0 0)
(1.3078e-06 0 0)
(1.31896e-06 0 0)
(1.33013e-06 0 0)
(1.34133e-06 0 0)
(1.35253e-06 0 0)
(1.36376e-06 0 0)
(1.375e-06 0 0)
(1.38626e-06 0 0)
(1.39753e-06 0 0)
(1.40882e-06 0 0)
(1.42012e-06 0 0)
(1.43145e-06 0 0)
(1.44278e-06 0 0)
(1.45414e-06 0 0)
(1.46551e-06 0 0)
(1.4769e-06 0 0)
(1.4883e-06 0 0)
(1.49972e-06 0 0)
(1.51115e-06 0 0)
(1.5226e-06 0 0)
(1.53407e-06 0 0)
(1.54555e-06 0 0)
(1.55705e-06 0 0)
(1.56857e-06 0 0)
(1.5801e-06 0 0)
(1.59164e-06 0 0)
(1.60321e-06 0 0)
(1.61479e-06 0 0)
(1.62639e-06 0 0)
(1.638e-06 0 0)
(1.64963e-06 0 0)
(1.66128e-06 0 0)
(1.67294e-06 0 0)
(1.68462e-06 0 0)
(1.69632e-06 0 0)
(1.70804e-06 0 0)
(1.71977e-06 0 0)
(1.73153e-06 0 0)
(1.7433e-06 0 0)
(1.75508e-06 0 0)
(1.76689e-06 0 0)
(1.77871e-06 0 0)
(1.79055e-06 0 0)
(1.80241e-06 0 0)
(1.81429e-06 0 0)
(1.82618e-06 0 0)
(1.83809e-06 0 0)
(1.85002e-06 0 0)
(1.86196e-06 0 0)
(1.87392e-06 0 0)
(1.8859e-06 0 0)
(1.8979e-06 0 0)
(1.90991e-06 0 0)
(1.92193e-06 0 0)
(1.93397e-06 0 0)
(1.94602e-06 0 0)
(1.95809e-06 0 0)
(1.97016e-06 0 0)
(1.98224e-06 0 0)
(1.99432e-06 0 0)
(2.00641e-06 0 0)
(2.0185e-06 0 0)
(2.03059e-06 0 0)
(2.04269e-06 0 0)
(2.05478e-06 0 0)
(2.06688e-06 0 0)
(2.07898e-06 0 0)
(2.09108e-06 0 0)
(2.10319e-06 0 0)
(2.11531e-06 0 0)
(2.12744e-06 0 0)
(2.13958e-06 0 0)
(2.15175e-06 0 0)
(2.16393e-06 0 0)
(2.17615e-06 0 0)
(2.1884e-06 0 0)
(2.20069e-06 0 0)
(2.21302e-06 0 0)
(2.22541e-06 0 0)
(2.23785e-06 0 0)
(2.25035e-06 0 0)
(2.26292e-06 0 0)
(2.27555e-06 0 0)
(2.28825e-06 0 0)
(2.30101e-06 0 0)
(2.31384e-06 0 0)
(2.32674e-06 0 0)
(2.3397e-06 0 0)
(2.35271e-06 0 0)
(2.36577e-06 0 0)
(2.37887e-06 0 0)
(2.39202e-06 0 0)
(2.40519e-06 0 0)
(2.41839e-06 0 0)
(2.43161e-06 0 0)
(2.44484e-06 0 0)
(2.45808e-06 0 0)
(2.47132e-06 0 0)
(2.48457e-06 0 0)
(2.49782e-06 0 0)
(2.51107e-06 0 0)
(2.52432e-06 0 0)
(2.53757e-06 0 0)
(2.55082e-06 0 0)
(2.56408e-06 0 0)
(2.57734e-06 0 0)
(2.59061e-06 0 0)
(2.60389e-06 0 0)
(2.61719e-06 0 0)
(2.6305e-06 0 0)
(2.64383e-06 0 0)
(2.65718e-06 0 0)
(2.67055e-06 0 0)
(2.68395e-06 0 0)
(2.69738e-06 0 0)
(2.71083e-06 0 0)
(2.72432e-06 0 0)
(2.73783e-06 0 0)
(2.75138e-06 0 0)
(2.76496e-06 0 0)
(2.77857e-06 0 0)
(2.79221e-06 0 0)
(2.80589e-06 0 0)
(2.8196e-06 0 0)
(2.83334e-06 0 0)
(2.84712e-06 0 0)
(2.86092e-06 0 0)
(2.87476e-06 0 0)
(2.88864e-06 0 0)
(2.90254e-06 0 0)
(2.91648e-06 0 0)
(2.93045e-06 0 0)
(2.94445e-06 0 0)
(2.95848e-06 0 0)
(2.97254e-06 0 0)
(2.98664e-06 0 0)
(3.00077e-06 0 0)
(3.01492e-06 0 0)
(3.02911e-06 0 0)
(3.04334e-06 0 0)
(3.05759e-06 0 0)
(3.07188e-06 0 0)
(3.0862e-06 0 0)
(3.10055e-06 0 0)
(3.11493e-06 0 0)
(3.12935e-06 0 0)
(3.1438e-06 0 0)
(3.15828e-06 0 0)
(3.1728e-06 0 0)
(3.18735e-06 0 0)
(3.20194e-06 0 0)
(3.21656e-06 0 0)
(3.23122e-06 0 0)
(3.24591e-06 0 0)
(3.26064e-06 0 0)
(3.2754e-06 0 0)
(3.2902e-06 0 0)
(3.30504e-06 0 0)
(3.31991e-06 0 0)
(3.33482e-06 0 0)
(3.34977e-06 0 0)
(3.36476e-06 0 0)
(3.37979e-06 0 0)
(3.39485e-06 0 0)
(3.40996e-06 0 0)
(3.4251e-06 0 0)
(3.44029e-06 0 0)
(3.45551e-06 0 0)
(3.47078e-06 0 0)
(3.48609e-06 0 0)
(3.50144e-06 0 0)
(3.51683e-06 0 0)
(3.53226e-06 0 0)
(3.54774e-06 0 0)
(3.56326e-06 0 0)
(3.57883e-06 0 0)
(3.59444e-06 0 0)
(3.61009e-06 0 0)
(3.62579e-06 0 0)
(3.64153e-06 0 0)
(3.65732e-06 0 0)
(3.67316e-06 0 0)
(3.68905e-06 0 0)
(3.70498e-06 0 0)
(3.72096e-06 0 0)
(3.73699e-06 0 0)
(3.75306e-06 0 0)
(3.76919e-06 0 0)
(3.78537e-06 0 0)
(3.8016e-06 0 0)
(3.81788e-06 0 0)
(3.83422e-06 0 0)
(3.8506e-06 0 0)
(3.86704e-06 0 0)
(3.88354e-06 0 0)
(3.90009e-06 0 0)
(3.9167e-06 0 0)
(3.93336e-06 0 0)
(3.95009e-06 0 0)
(3.96687e-06 0 0)
(3.98371e-06 0 0)
(4.00061e-06 0 0)
(4.01757e-06 0 0)
(4.03459e-06 0 0)
(4.05167e-06 0 0)
(4.06882e-06 0 0)
(4.08603e-06 0 0)
(4.1033e-06 0 0)
(4.12064e-06 0 0)
(4.13804e-06 0 0)
(4.15551e-06 0 0)
(4.17304e-06 0 0)
(4.19064e-06 0 0)
(4.20831e-06 0 0)
(4.22605e-06 0 0)
(4.24386e-06 0 0)
(4.26173e-06 0 0)
(4.27968e-06 0 0)
(4.29769e-06 0 0)
(4.31577e-06 0 0)
(4.33392e-06 0 0)
(4.35213e-06 0 0)
(4.37042e-06 0 0)
(4.38877e-06 0 0)
(4.40719e-06 0 0)
(4.42568e-06 0 0)
(4.44423e-06 0 0)
(4.46286e-06 0 0)
(4.48155e-06 0 0)
(4.50031e-06 0 0)
(4.51913e-06 0 0)
(4.53803e-06 0 0)
(4.557e-06 0 0)
(4.57604e-06 0 0)
(4.59516e-06 0 0)
(4.61436e-06 0 0)
(4.63364e-06 0 0)
(4.653e-06 0 0)
(4.67245e-06 0 0)
(4.69199e-06 0 0)
(4.71163e-06 0 0)
(4.73136e-06 0 0)
(4.75121e-06 0 0)
(4.77116e-06 0 0)
(4.79124e-06 0 0)
(4.81144e-06 0 0)
(4.83177e-06 0 0)
(4.85223e-06 0 0)
(4.87283e-06 0 0)
(4.89359e-06 0 0)
(4.9145e-06 0 0)
(4.93557e-06 0 0)
(4.95681e-06 0 0)
(4.97821e-06 0 0)
(4.99979e-06 0 0)
(5.02154e-06 0 0)
(5.04346e-06 0 0)
(5.06556e-06 0 0)
(5.08784e-06 0 0)
(5.11029e-06 0 0)
(5.1329e-06 0 0)
(5.15568e-06 0 0)
(5.1786e-06 0 0)
(5.20166e-06 0 0)
(5.22485e-06 0 0)
(5.24814e-06 0 0)
(5.27153e-06 0 0)
(5.29497e-06 0 0)
(5.31845e-06 0 0)
(5.34192e-06 0 0)
(5.36534e-06 0 0)
(5.38868e-06 0 0)
(5.41186e-06 0 0)
(5.43484e-06 0 0)
(5.45753e-06 0 0)
(5.47985e-06 0 0)
(5.5017e-06 0 0)
(5.523e-06 0 0)
(5.54363e-06 0 0)
(5.5635e-06 0 0)
(5.58249e-06 0 0)
(5.60049e-06 0 0)
(5.61741e-06 0 0)
(5.63316e-06 0 0)
(5.64768e-06 0 0)
(5.66094e-06 0 0)
(5.67292e-06 0 0)
(5.68365e-06 0 0)
(5.6932e-06 0 0)
(5.70169e-06 0 0)
(5.70935e-06 0 0)
(5.71655e-06 0 0)
(5.7239e-06 0 0)
(5.7324e-06 0 0)
(5.74376e-06 0 0)
(5.76093e-06 0 0)
(5.78903e-06 0 0)
(5.83678e-06 0 0)
(5.91856e-06 0 0)
(6.05653e-06 0 0)
(6.28078e-06 0 0)
(6.62241e-06 0 0)
(7.09431e-06 0 0)
(7.66487e-06 0 0)
(8.2522e-06 0 0)
(8.7614e-06 0 0)
(9.13721e-06 0 0)
(9.38035e-06 0 0)
(9.52351e-06 0 0)
(9.60292e-06 0 0)
(9.64547e-06 0 0)
(9.66787e-06 0 0)
(9.67957e-06 0 0)
(9.68568e-06 0 0)
(9.68891e-06 0 0)
(9.69064e-06 0 0)
(9.6916e-06 0 0)
(9.69217e-06 0 0)
(9.69254e-06 0 0)
(9.69281e-06 0 0)
(9.69302e-06 0 0)
(9.6932e-06 0 0)
(9.69337e-06 0 0)
(9.69353e-06 0 0)
(9.69368e-06 0 0)
(9.69383e-06 0 0)
(9.69398e-06 0 0)
(9.69412e-06 0 0)
(9.69426e-06 0 0)
(9.6944e-06 0 0)
(9.69453e-06 0 0)
(9.69466e-06 0 0)
(9.69478e-06 0 0)
(9.6949e-06 0 0)
(9.69501e-06 0 0)
(9.69513e-06 0 0)
(9.69523e-06 0 0)
(9.69533e-06 0 0)
(9.69543e-06 0 0)
(9.69553e-06 0 0)
(9.69562e-06 0 0)
(9.6957e-06 0 0)
(9.69578e-06 0 0)
(9.69586e-06 0 0)
(9.69593e-06 0 0)
(9.696e-06 0 0)
(9.69606e-06 0 0)
(9.69612e-06 0 0)
(9.69618e-06 0 0)
(9.69623e-06 0 0)
(9.69628e-06 0 0)
(9.69633e-06 0 0)
(9.69638e-06 0 0)
(9.69642e-06 0 0)
(9.69646e-06 0 0)
(9.69649e-06 0 0)
(9.69653e-06 0 0)
(9.69656e-06 0 0)
(9.69658e-06 0 0)
(9.69661e-06 0 0)
(9.69663e-06 0 0)
(9.69666e-06 0 0)
(9.69667e-06 0 0)
(9.69669e-06 0 0)
(9.6967e-06 0 0)
(9.69672e-06 0 0)
(9.69672e-06 0 0)
(9.69673e-06 0 0)
(9.69674e-06 0 0)
(9.69674e-06 0 0)
(9.69674e-06 0 0)
(9.69674e-06 0 0)
(9.69673e-06 0 0)
(9.69672e-06 0 0)
(9.69671e-06 0 0)
(9.6967e-06 0 0)
(9.69668e-06 0 0)
(9.69666e-06 0 0)
(9.69664e-06 0 0)
(9.69661e-06 0 0)
(9.69658e-06 0 0)
(9.69655e-06 0 0)
(9.69651e-06 0 0)
(9.69648e-06 0 0)
(9.69644e-06 0 0)
(9.69639e-06 0 0)
(9.69635e-06 0 0)
(9.6963e-06 0 0)
(9.69624e-06 0 0)
(9.69619e-06 0 0)
(9.69613e-06 0 0)
(9.69607e-06 0 0)
(9.69601e-06 0 0)
(9.69594e-06 0 0)
(9.69587e-06 0 0)
(9.6958e-06 0 0)
(9.69572e-06 0 0)
(9.69565e-06 0 0)
(9.69556e-06 0 0)
(9.69548e-06 0 0)
(9.69539e-06 0 0)
(9.6953e-06 0 0)
(9.6952e-06 0 0)
(9.6951e-06 0 0)
(9.695e-06 0 0)
(9.69489e-06 0 0)
(9.69477e-06 0 0)
(9.69465e-06 0 0)
(9.69452e-06 0 0)
(9.69439e-06 0 0)
(9.69424e-06 0 0)
(9.69409e-06 0 0)
(9.69393e-06 0 0)
(9.69375e-06 0 0)
(9.69357e-06 0 0)
(9.69337e-06 0 0)
(9.69316e-06 0 0)
(9.69293e-06 0 0)
(9.69268e-06 0 0)
(9.69242e-06 0 0)
(9.69214e-06 0 0)
(9.69184e-06 0 0)
(9.69152e-06 0 0)
(9.69118e-06 0 0)
(9.69081e-06 0 0)
(9.69042e-06 0 0)
(9.69001e-06 0 0)
(9.68957e-06 0 0)
(9.68911e-06 0 0)
(9.68862e-06 0 0)
(9.68811e-06 0 0)
(9.68757e-06 0 0)
(9.68701e-06 0 0)
(9.68643e-06 0 0)
(9.68582e-06 0 0)
(9.6852e-06 0 0)
(9.68456e-06 0 0)
(9.6839e-06 0 0)
(9.68323e-06 0 0)
(9.68255e-06 0 0)
(9.68186e-06 0 0)
(9.68117e-06 0 0)
(9.68048e-06 0 0)
(9.6798e-06 0 0)
(9.67912e-06 0 0)
(9.67845e-06 0 0)
(9.6778e-06 0 0)
(9.67718e-06 0 0)
(9.67658e-06 0 0)
(9.67601e-06 0 0)
(9.67548e-06 0 0)
(9.67499e-06 0 0)
(9.67455e-06 0 0)
(9.67416e-06 0 0)
(9.67382e-06 0 0)
(9.67353e-06 0 0)
(9.67331e-06 0 0)
(9.67316e-06 0 0)
(9.67307e-06 0 0)
(9.67303e-06 0 0)
(9.67302e-06 0 0)
(9.67303e-06 0 0)
(9.67313e-06 0 0)
(9.67334e-06 0 0)
(9.67363e-06 0 0)
(9.67399e-06 0 0)
(9.67439e-06 0 0)
(9.67485e-06 0 0)
(9.67536e-06 0 0)
(9.67591e-06 0 0)
(9.67649e-06 0 0)
(9.67711e-06 0 0)
(9.67775e-06 0 0)
(9.6784e-06 0 0)
(9.67908e-06 0 0)
(9.67976e-06 0 0)
(9.68044e-06 0 0)
(9.68111e-06 0 0)
(9.68178e-06 0 0)
(9.68244e-06 0 0)
(9.68307e-06 0 0)
(9.68369e-06 0 0)
(9.68429e-06 0 0)
(9.68485e-06 0 0)
(9.68539e-06 0 0)
(9.6859e-06 0 0)
(9.68638e-06 0 0)
(9.68683e-06 0 0)
(9.68725e-06 0 0)
(9.68764e-06 0 0)
(9.688e-06 0 0)
(9.68833e-06 0 0)
(9.68863e-06 0 0)
(9.68891e-06 0 0)
(9.68916e-06 0 0)
(9.68939e-06 0 0)
(9.6896e-06 0 0)
(9.68979e-06 0 0)
(9.68997e-06 0 0)
(9.69013e-06 0 0)
(9.69028e-06 0 0)
(9.69042e-06 0 0)
(9.69056e-06 0 0)
(9.69068e-06 0 0)
(9.6908e-06 0 0)
(9.69092e-06 0 0)
(9.69103e-06 0 0)
(9.69114e-06 0 0)
(9.69126e-06 0 0)
(9.69137e-06 0 0)
(9.69148e-06 0 0)
(9.6916e-06 0 0)
(9.69171e-06 0 0)
(9.69184e-06 0 0)
(9.69196e-06 0 0)
(9.69209e-06 0 0)
(9.69222e-06 0 0)
(9.69235e-06 0 0)
(9.69249e-06 0 0)
(9.69263e-06 0 0)
(9.69277e-06 0 0)
(9.69291e-06 0 0)
(9.69306e-06 0 0)
(9.69321e-06 0 0)
(9.69336e-06 0 0)
(9.69351e-06 0 0)
(9.69366e-06 0 0)
(9.69382e-06 0 0)
(9.69397e-06 0 0)
(9.69412e-06 0 0)
(9.69427e-06 0 0)
(9.69442e-06 0 0)
(9.69457e-06 0 0)
(9.69472e-06 0 0)
(9.69486e-06 0 0)
(9.695e-06 0 0)
(9.69513e-06 0 0)
(9.69527e-06 0 0)
(9.6954e-06 0 0)
(9.69552e-06 0 0)
(9.69564e-06 0 0)
(9.69576e-06 0 0)
(9.69587e-06 0 0)
(9.69597e-06 0 0)
(9.69608e-06 0 0)
(9.69617e-06 0 0)
(9.69627e-06 0 0)
(9.69636e-06 0 0)
(9.69644e-06 0 0)
(9.69652e-06 0 0)
(9.6966e-06 0 0)
(9.69667e-06 0 0)
(9.69674e-06 0 0)
(9.6968e-06 0 0)
(9.69686e-06 0 0)
(9.69692e-06 0 0)
(9.69697e-06 0 0)
(9.69702e-06 0 0)
(9.69706e-06 0 0)
(9.6971e-06 0 0)
(9.69714e-06 0 0)
(9.69717e-06 0 0)
(9.6972e-06 0 0)
(9.69723e-06 0 0)
(9.69725e-06 0 0)
(9.69727e-06 0 0)
(9.69728e-06 0 0)
(9.69729e-06 0 0)
(9.6973e-06 0 0)
(9.6973e-06 0 0)
(9.69731e-06 0 0)
(9.69731e-06 0 0)
(9.69731e-06 0 0)
(9.6973e-06 0 0)
(9.69729e-06 0 0)
(9.69727e-06 0 0)
(9.69726e-06 0 0)
(9.69724e-06 0 0)
(9.69721e-06 0 0)
(9.69719e-06 0 0)
(9.69716e-06 0 0)
(9.69712e-06 0 0)
(9.69709e-06 0 0)
(9.69705e-06 0 0)
(9.69701e-06 0 0)
(9.69697e-06 0 0)
(9.69692e-06 0 0)
(9.69687e-06 0 0)
(9.69682e-06 0 0)
(9.69677e-06 0 0)
(9.69671e-06 0 0)
(9.69666e-06 0 0)
(9.69659e-06 0 0)
(9.69653e-06 0 0)
(9.69647e-06 0 0)
(9.6964e-06 0 0)
(9.69633e-06 0 0)
(9.69625e-06 0 0)
(9.69618e-06 0 0)
(9.6961e-06 0 0)
(9.69602e-06 0 0)
(9.69593e-06 0 0)
(9.69585e-06 0 0)
(9.69576e-06 0 0)
(9.69566e-06 0 0)
(9.69557e-06 0 0)
(9.69547e-06 0 0)
(9.69537e-06 0 0)
(9.69526e-06 0 0)
(9.69515e-06 0 0)
(9.69503e-06 0 0)
(9.69491e-06 0 0)
(9.69478e-06 0 0)
(9.69465e-06 0 0)
(9.69451e-06 0 0)
(9.69436e-06 0 0)
(9.69421e-06 0 0)
(9.69404e-06 0 0)
(9.69387e-06 0 0)
(9.69369e-06 0 0)
(9.6935e-06 0 0)
(9.6933e-06 0 0)
(9.69308e-06 0 0)
(9.69286e-06 0 0)
(9.69261e-06 0 0)
(9.69236e-06 0 0)
(9.69209e-06 0 0)
(9.6918e-06 0 0)
(9.6915e-06 0 0)
(9.69118e-06 0 0)
(9.69085e-06 0 0)
(9.6905e-06 0 0)
(9.69012e-06 0 0)
(9.68974e-06 0 0)
(9.68933e-06 0 0)
(9.6889e-06 0 0)
(9.68846e-06 0 0)
(9.688e-06 0 0)
(9.68752e-06 0 0)
(9.68702e-06 0 0)
(9.68651e-06 0 0)
(9.68599e-06 0 0)
(9.68545e-06 0 0)
(9.6849e-06 0 0)
(9.68434e-06 0 0)
(9.68378e-06 0 0)
(9.68321e-06 0 0)
(9.68263e-06 0 0)
(9.68206e-06 0 0)
(9.68149e-06 0 0)
(9.68092e-06 0 0)
(9.68036e-06 0 0)
(9.67981e-06 0 0)
(9.67927e-06 0 0)
(9.67875e-06 0 0)
(9.67826e-06 0 0)
(9.67778e-06 0 0)
(9.67734e-06 0 0)
(9.67692e-06 0 0)
(9.67654e-06 0 0)
(9.67619e-06 0 0)
(9.67589e-06 0 0)
(9.67562e-06 0 0)
(9.6754e-06 0 0)
(9.67523e-06 0 0)
(9.6751e-06 0 0)
(9.67503e-06 0 0)
(9.67499e-06 0 0)
(9.67499e-06 0 0)
(9.67499e-06 0 0)
(9.67506e-06 0 0)
(9.67521e-06 0 0)
(9.67543e-06 0 0)
(9.6757e-06 0 0)
(9.67601e-06 0 0)
(9.67636e-06 0 0)
(9.67676e-06 0 0)
(9.67719e-06 0 0)
(9.67765e-06 0 0)
(9.67814e-06 0 0)
(9.67865e-06 0 0)
(9.67918e-06 0 0)
(9.67973e-06 0 0)
(9.68029e-06 0 0)
(9.68085e-06 0 0)
(9.68142e-06 0 0)
(9.68199e-06 0 0)
(9.68255e-06 0 0)
(9.6831e-06 0 0)
(9.68365e-06 0 0)
(9.68418e-06 0 0)
(9.68469e-06 0 0)
(9.68519e-06 0 0)
(9.68566e-06 0 0)
(9.68612e-06 0 0)
(9.68655e-06 0 0)
(9.68696e-06 0 0)
(9.68735e-06 0 0)
(9.68771e-06 0 0)
(9.68805e-06 0 0)
(9.68837e-06 0 0)
(9.68866e-06 0 0)
(9.68894e-06 0 0)
(9.68919e-06 0 0)
(9.68943e-06 0 0)
(9.68965e-06 0 0)
(9.68986e-06 0 0)
(9.69004e-06 0 0)
(9.69022e-06 0 0)
(9.69038e-06 0 0)
(9.69054e-06 0 0)
(9.69068e-06 0 0)
(9.69082e-06 0 0)
(9.69094e-06 0 0)
(9.69107e-06 0 0)
(9.69119e-06 0 0)
(9.6913e-06 0 0)
(9.69141e-06 0 0)
(9.69152e-06 0 0)
(9.69163e-06 0 0)
(9.69174e-06 0 0)
(9.69185e-06 0 0)
(9.69196e-06 0 0)
(9.69207e-06 0 0)
(9.69218e-06 0 0)
(9.69229e-06 0 0)
(9.6924e-06 0 0)
(9.69252e-06 0 0)
(9.69263e-06 0 0)
(9.69275e-06 0 0)
(9.69287e-06 0 0)
(9.69299e-06 0 0)
(9.69311e-06 0 0)
(9.69324e-06 0 0)
(9.69336e-06 0 0)
(9.69349e-06 0 0)
(9.69361e-06 0 0)
(9.69374e-06 0 0)
(9.69386e-06 0 0)
(9.69399e-06 0 0)
(9.69411e-06 0 0)
(9.69424e-06 0 0)
(9.69436e-06 0 0)
(9.69448e-06 0 0)
(9.69461e-06 0 0)
(9.69473e-06 0 0)
(9.69484e-06 0 0)
(9.69496e-06 0 0)
(9.69507e-06 0 0)
(9.69518e-06 0 0)
(9.69529e-06 0 0)
(9.6954e-06 0 0)
(9.6955e-06 0 0)
(9.6956e-06 0 0)
(9.69569e-06 0 0)
(9.69579e-06 0 0)
(9.69588e-06 0 0)
(9.69596e-06 0 0)
(9.69604e-06 0 0)
(9.69612e-06 0 0)
(9.69619e-06 0 0)
(9.69626e-06 0 0)
(9.69633e-06 0 0)
(9.69639e-06 0 0)
(9.69645e-06 0 0)
(9.6965e-06 0 0)
(9.69655e-06 0 0)
(9.6966e-06 0 0)
(9.69664e-06 0 0)
(9.69667e-06 0 0)
(9.69671e-06 0 0)
(9.69674e-06 0 0)
(9.69676e-06 0 0)
(9.69678e-06 0 0)
(9.6968e-06 0 0)
(9.69681e-06 0 0)
(9.69682e-06 0 0)
(9.69683e-06 0 0)
(9.69683e-06 0 0)
(9.69684e-06 0 0)
(9.69684e-06 0 0)
(9.69683e-06 0 0)
(9.69683e-06 0 0)
(9.69681e-06 0 0)
(9.69679e-06 0 0)
(9.69678e-06 0 0)
(9.69675e-06 0 0)
(9.69673e-06 0 0)
(9.6967e-06 0 0)
(9.69667e-06 0 0)
(9.69664e-06 0 0)
(9.6966e-06 0 0)
(9.69657e-06 0 0)
(9.69653e-06 0 0)
(9.69648e-06 0 0)
(9.69644e-06 0 0)
(9.69639e-06 0 0)
(9.69634e-06 0 0)
(9.69629e-06 0 0)
(9.69624e-06 0 0)
(9.69618e-06 0 0)
(9.69612e-06 0 0)
(9.69606e-06 0 0)
(9.69599e-06 0 0)
(9.69593e-06 0 0)
(9.69586e-06 0 0)
(9.69579e-06 0 0)
(9.69571e-06 0 0)
(9.69563e-06 0 0)
(9.69555e-06 0 0)
(9.69547e-06 0 0)
(9.69538e-06 0 0)
(9.69529e-06 0 0)
(9.69519e-06 0 0)
(9.69509e-06 0 0)
(9.69498e-06 0 0)
(9.69487e-06 0 0)
(9.69476e-06 0 0)
(9.69464e-06 0 0)
(9.69451e-06 0 0)
(9.69438e-06 0 0)
(9.69424e-06 0 0)
(9.69409e-06 0 0)
(9.69394e-06 0 0)
(9.69377e-06 0 0)
(9.6936e-06 0 0)
(9.69342e-06 0 0)
(9.69323e-06 0 0)
(9.69303e-06 0 0)
(9.69281e-06 0 0)
(9.69259e-06 0 0)
(9.69236e-06 0 0)
(9.69211e-06 0 0)
(9.69185e-06 0 0)
(9.69157e-06 0 0)
(9.69129e-06 0 0)
(9.69098e-06 0 0)
(9.69067e-06 0 0)
(9.69034e-06 0 0)
(9.69e-06 0 0)
(9.68964e-06 0 0)
(9.68926e-06 0 0)
(9.68888e-06 0 0)
(9.68847e-06 0 0)
(9.68806e-06 0 0)
(9.68763e-06 0 0)
(9.68719e-06 0 0)
(9.68673e-06 0 0)
(9.68627e-06 0 0)
(9.68579e-06 0 0)
(9.68531e-06 0 0)
(9.68482e-06 0 0)
(9.68432e-06 0 0)
(9.68382e-06 0 0)
(9.68332e-06 0 0)
)
;

boundaryField
{
    inlet
    {
        type            fixedValue;
        value           uniform (0 0 0);
    }
    outlet
    {
        type            zeroGradient;
    }
    emptyWalls
    {
        type            empty;
    }
}


// ************************************************************************* //
