/*--------------------------------*- C++ -*----------------------------------*\
  =========                 |
  \\      /  F ield         | OpenFOAM: The Open Source CFD Toolbox
   \\    /   O peration     | Website:  https://openfoam.org
    \\  /    A nd           | Version:  9
     \\/     M anipulation  |
\*---------------------------------------------------------------------------*/
FoamFile
{
    format      ascii;
    class       volScalarField;
    location    "18700";
    object      krb;
}
// * * * * * * * * * * * * * * * * * * * * * * * * * * * * * * * * * * * * * //

dimensions      [0 0 0 0 0 0 0];

internalField   nonuniform List<scalar> 
1000
(
0.0978804
0.0983395
0.0989537
0.0995744
0.100191
0.10082
0.10146
0.102097
0.102765
0.103396
0.104102
0.104703
0.105432
0.105992
0.106679
0.107202
0.107783
0.108253
0.108713
0.109097
0.109452
0.109766
0.110146
0.110965
0.113818
0.126564
0.232698
0.436012
0.484472
0.499284
0.506438
0.510931
0.514179
0.51673
0.518819
0.520583
0.522091
0.5234
0.524535
0.525528
0.526393
0.52715
0.527805
0.528378
0.528874
0.529301
0.529669
0.529981
0.530242
0.530456
0.530621
0.530746
0.530825
0.53087
0.530871
0.530839
0.530767
0.530657
0.530506
0.530313
0.530075
0.529788
0.52945
0.529056
0.528602
0.528077
0.527458
0.526749
0.525938
0.524978
0.523832
0.52247
0.52087
0.519051
0.517078
0.515018
0.512909
0.510776
0.508633
0.506492
0.504358
0.502234
0.500121
0.498021
0.495932
0.493855
0.49179
0.489737
0.487696
0.485668
0.483652
0.481651
0.479665
0.477695
0.475741
0.473804
0.471884
0.469983
0.468099
0.466234
0.464387
0.462557
0.460746
0.458952
0.457175
0.455414
0.453671
0.451943
0.450231
0.448534
0.446853
0.445186
0.443534
0.441896
0.440272
0.438662
0.437066
0.435483
0.433914
0.432357
0.430813
0.429282
0.427764
0.426257
0.424763
0.423281
0.42181
0.420351
0.418903
0.417467
0.416042
0.414627
0.413224
0.411831
0.410449
0.409076
0.407715
0.406363
0.405021
0.403689
0.402366
0.401054
0.39975
0.398456
0.397171
0.395895
0.394628
0.39337
0.39212
0.390879
0.389646
0.388422
0.387206
0.385998
0.384798
0.383607
0.382423
0.381247
0.380079
0.378919
0.377766
0.37662
0.375482
0.374352
0.373228
0.372112
0.371002
0.3699
0.368804
0.367715
0.366633
0.365557
0.364489
0.363427
0.362371
0.361322
0.360279
0.359242
0.35821
0.357184
0.356163
0.355147
0.354135
0.353128
0.352125
0.351127
0.350133
0.349143
0.348158
0.347177
0.346202
0.345231
0.344266
0.343307
0.342353
0.341405
0.340464
0.33953
0.338603
0.337683
0.33677
0.335865
0.334967
0.334077
0.333194
0.332317
0.331447
0.330584
0.329726
0.328873
0.328025
0.327181
0.326341
0.325504
0.324671
0.323841
0.323014
0.322189
0.321367
0.320548
0.319732
0.318919
0.318109
0.317302
0.316498
0.315697
0.3149
0.314106
0.313316
0.31253
0.311747
0.310968
0.310192
0.309421
0.308652
0.307888
0.307127
0.30637
0.305617
0.304867
0.30412
0.303377
0.302638
0.301901
0.301168
0.300438
0.299712
0.298988
0.298268
0.297551
0.296836
0.296125
0.295417
0.294712
0.294009
0.29331
0.292613
0.29192
0.291229
0.290541
0.289856
0.289173
0.288493
0.287816
0.287142
0.28647
0.285801
0.285134
0.28447
0.283809
0.28315
0.282494
0.28184
0.281189
0.28054
0.279894
0.27925
0.278609
0.27797
0.277333
0.276699
0.276067
0.275437
0.27481
0.274184
0.273562
0.272941
0.272323
0.271707
0.271093
0.270481
0.269872
0.269264
0.268659
0.268056
0.267455
0.266856
0.26626
0.265665
0.265072
0.264482
0.263894
0.263307
0.262723
0.26214
0.26156
0.260982
0.260405
0.259831
0.259258
0.258688
0.258119
0.257552
0.256987
0.256424
0.255863
0.255303
0.254745
0.254189
0.253634
0.253081
0.252529
0.251979
0.25143
0.250882
0.250336
0.24979
0.249246
0.248704
0.248162
0.247622
0.247084
0.246546
0.24601
0.245476
0.244943
0.244412
0.243883
0.243356
0.24283
0.242307
0.241785
0.241266
0.24075
0.240235
0.239724
0.239214
0.238707
0.238203
0.237701
0.237201
0.236704
0.236209
0.235716
0.235225
0.234736
0.234248
0.233763
0.233279
0.232796
0.232314
0.231834
0.231355
0.230876
0.230399
0.229923
0.229447
0.228973
0.228499
0.228026
0.227554
0.227083
0.226613
0.226143
0.225675
0.225208
0.224741
0.224276
0.223812
0.223349
0.222887
0.222427
0.221967
0.221509
0.221052
0.220596
0.220141
0.219688
0.219235
0.218784
0.218334
0.217885
0.217438
0.216991
0.216546
0.216101
0.215658
0.215216
0.214775
0.214336
0.213897
0.213459
0.213022
0.212587
0.212152
0.211719
0.211286
0.210855
0.210424
0.209994
0.209566
0.209138
0.208711
0.208286
0.207861
0.207437
0.207014
0.206592
0.206171
0.205751
0.205332
0.204913
0.204496
0.204079
0.203664
0.203249
0.202835
0.202422
0.20201
0.201599
0.201188
0.200778
0.20037
0.199962
0.199555
0.199148
0.198743
0.198338
0.197934
0.197531
0.197129
0.196727
0.196327
0.195927
0.195528
0.195129
0.194732
0.194335
0.193939
0.193544
0.193149
0.192756
0.192363
0.19197
0.191579
0.191188
0.190798
0.190409
0.19002
0.189632
0.189245
0.188858
0.188473
0.188088
0.187703
0.18732
0.186937
0.186554
0.186173
0.185792
0.185411
0.185031
0.184652
0.184274
0.183896
0.183518
0.183142
0.182765
0.18239
0.182014
0.181639
0.181265
0.180891
0.180518
0.180145
0.179772
0.1794
0.179029
0.178657
0.178287
0.177916
0.177546
0.177177
0.176808
0.17644
0.176072
0.175705
0.175338
0.174972
0.174607
0.174242
0.173878
0.173515
0.173153
0.172792
0.172431
0.172071
0.171712
0.171354
0.170997
0.170641
0.170286
0.169931
0.169578
0.169225
0.168873
0.168522
0.168172
0.167822
0.167473
0.167125
0.166777
0.16643
0.166084
0.165738
0.165392
0.165047
0.164702
0.164357
0.164013
0.163669
0.163325
0.162981
0.162638
0.162295
0.161952
0.16161
0.161267
0.160925
0.160583
0.160242
0.159901
0.15956
0.159219
0.158878
0.158538
0.158198
0.157858
0.157519
0.15718
0.156842
0.156503
0.156165
0.155828
0.15549
0.155153
0.154816
0.15448
0.154144
0.153808
0.153473
0.153138
0.152803
0.152469
0.152135
0.151801
0.151467
0.151134
0.150801
0.150468
0.150135
0.149803
0.149471
0.14914
0.148808
0.148477
0.148146
0.147815
0.147484
0.147154
0.146824
0.146494
0.146164
0.145834
0.145505
0.145176
0.144847
0.144518
0.144189
0.143861
0.143533
0.143204
0.142876
0.142548
0.142221
0.141893
0.141565
0.141238
0.140911
0.140584
0.140257
0.13993
0.139603
0.139276
0.13895
0.138623
0.138297
0.13797
0.137644
0.137318
0.136991
0.136665
0.136339
0.136013
0.135687
0.135361
0.135035
0.134709
0.134383
0.134058
0.133732
0.133406
0.13308
0.132754
0.132428
0.132102
0.131776
0.131451
0.131125
0.130799
0.130473
0.130147
0.12982
0.129494
0.129168
0.128842
0.128515
0.128189
0.127862
0.127535
0.127208
0.126881
0.126554
0.126227
0.1259
0.125572
0.125245
0.124917
0.124589
0.12426
0.123932
0.123603
0.123274
0.122945
0.122616
0.122286
0.121956
0.121626
0.121295
0.120965
0.120634
0.120302
0.11997
0.119639
0.119306
0.118974
0.118641
0.118308
0.117974
0.11764
0.117306
0.116972
0.116637
0.116302
0.115967
0.115631
0.115295
0.114959
0.114623
0.114287
0.11395
0.113613
0.113277
0.112939
0.112602
0.112265
0.111928
0.111591
0.111254
0.110916
0.110579
0.110243
0.109906
0.10957
0.109234
0.108899
0.108564
0.108231
0.107898
0.107566
0.107236
0.106908
0.106581
0.106257
0.105935
0.105617
0.105302
0.104992
0.104687
0.104387
0.104093
0.103806
0.103527
0.103257
0.102997
0.102747
0.102507
0.10228
0.102066
0.101864
0.101676
0.101502
0.101342
0.101196
0.101064
0.100945
0.10084
0.100746
0.100664
0.100593
0.100532
0.10048
0.100436
0.100398
0.100367
0.10034
0.100316
0.100293
0.100269
0.10024
0.100196
0.100126
0.100006
0.0997966
0.0994257
0.09877
0.0976204
0.0956426
0.0923518
0.0871749
0.0797173
0.0702575
0.0600744
0.0509532
0.0440982
0.0396299
0.0369936
0.0355317
0.0347494
0.0343389
0.0341258
0.0340157
0.033959
0.0339299
0.033915
0.0339073
0.0339034
0.0339014
0.0339004
0.0338999
0.0338997
0.0338996
0.0338996
0.0338996
0.0338996
0.0338996
0.0338997
0.0338997
0.0338997
0.0338997
0.0338998
0.0338998
0.0338998
0.0338997
0.0338997
0.0338997
0.0338997
0.0338997
0.0338996
0.0338996
0.0338995
0.0338994
0.0338994
0.0338993
0.0338992
0.0338991
0.033899
0.0338989
0.0338988
0.0338987
0.0338986
0.0338985
0.0338984
0.0338983
0.0338981
0.033898
0.0338979
0.0338978
0.0338976
0.0338975
0.0338974
0.0338972
0.0338971
0.033897
0.0338969
0.0338967
0.0338966
0.0338965
0.0338963
0.0338962
0.0338961
0.033896
0.0338958
0.0338957
0.0338956
0.0338955
0.0338954
0.0338953
0.0338952
0.0338951
0.0338949
0.0338948
0.0338947
0.0338946
0.0338945
0.0338944
0.0338943
0.0338942
0.0338941
0.033894
0.0338939
0.0338938
0.0338937
0.0338936
0.0338935
0.0338934
0.0338933
0.0338931
0.033893
0.0338929
0.0338928
0.0338926
0.0338925
0.0338924
0.0338922
0.0338921
0.0338919
0.0338917
0.0338916
0.0338914
0.0338912
0.033891
0.0338908
0.0338906
0.0338905
0.0338903
0.0338901
0.0338899
0.0338897
0.0338895
0.0338893
0.0338891
0.0338889
0.0338887
0.0338885
0.0338883
0.0338881
0.0338879
0.0338877
0.0338876
0.0338874
0.0338873
0.0338872
0.033887
0.0338869
0.0338868
0.0338868
0.0338867
0.0338867
0.0338866
0.0338866
0.0338866
0.0338866
0.0338867
0.0338867
0.0338867
0.0338868
0.0338869
0.033887
0.0338871
0.0338873
0.0338874
0.0338876
0.0338878
0.0338879
0.0338881
0.0338883
0.0338885
0.0338887
0.0338889
0.0338891
0.0338893
0.0338895
0.0338897
0.0338899
0.0338901
0.0338903
0.0338905
0.0338907
0.0338909
0.0338911
0.0338912
0.0338914
0.0338915
0.0338917
0.0338918
0.0338919
0.0338921
0.0338922
0.0338923
0.0338924
0.0338925
0.0338926
0.0338927
0.0338927
0.0338928
0.0338929
0.033893
0.033893
0.0338931
0.0338931
0.0338932
0.0338932
0.0338932
0.0338933
0.0338933
0.0338933
0.0338933
0.0338934
0.0338934
0.0338934
0.0338934
0.0338935
0.0338935
0.0338935
0.0338936
0.0338936
0.0338937
0.0338938
0.0338938
0.0338939
0.033894
0.0338941
0.0338942
0.0338943
0.0338945
0.0338946
0.0338947
0.0338948
0.033895
0.0338951
0.0338952
0.0338953
0.0338954
0.0338955
0.0338956
0.0338957
0.0338958
0.0338959
0.0338959
0.033896
0.0338961
0.0338961
0.0338962
0.0338962
0.0338963
0.0338963
0.0338963
0.0338963
0.0338964
0.0338964
0.0338964
0.0338964
0.0338964
0.0338964
0.0338964
0.0338964
0.0338964
0.0338964
0.0338964
)
;

boundaryField
{
    inlet
    {
        type            calculated;
        value           uniform 0.0976562;
    }
    outlet
    {
        type            calculated;
        value           uniform 0.0338964;
    }
    emptyWalls
    {
        type            empty;
    }
}


// ************************************************************************* //
