/*--------------------------------*- C++ -*----------------------------------*\
  =========                 |
  \\      /  F ield         | OpenFOAM: The Open Source CFD Toolbox
   \\    /   O peration     | Website:  https://openfoam.org
    \\  /    A nd           | Version:  9
     \\/     M anipulation  |
\*---------------------------------------------------------------------------*/
FoamFile
{
    format      ascii;
    class       volVectorField;
    location    "18700";
    object      Ua;
}
// * * * * * * * * * * * * * * * * * * * * * * * * * * * * * * * * * * * * * //

dimensions      [0 0 0 0 0 0 0];

internalField   nonuniform List<vector> 
1000
(
(2.74905e-06 0 0)
(2.74885e-06 0 0)
(2.74877e-06 0 0)
(2.74852e-06 0 0)
(2.74819e-06 0 0)
(2.74771e-06 0 0)
(2.74717e-06 0 0)
(2.74655e-06 0 0)
(2.74591e-06 0 0)
(2.74515e-06 0 0)
(2.74437e-06 0 0)
(2.74353e-06 0 0)
(2.74256e-06 0 0)
(2.74171e-06 0 0)
(2.74072e-06 0 0)
(2.73984e-06 0 0)
(2.73898e-06 0 0)
(2.73808e-06 0 0)
(2.73728e-06 0 0)
(2.73647e-06 0 0)
(2.73575e-06 0 0)
(2.73505e-06 0 0)
(2.73411e-06 0 0)
(2.73156e-06 0 0)
(2.72224e-06 0 0)
(2.67809e-06 0 0)
(2.45072e-06 0 0)
(2.20697e-06 0 0)
(2.13981e-06 0 0)
(2.11968e-06 0 0)
(2.10977e-06 0 0)
(2.10328e-06 0 0)
(2.09834e-06 0 0)
(2.09427e-06 0 0)
(2.09077e-06 0 0)
(2.08768e-06 0 0)
(2.08492e-06 0 0)
(2.08241e-06 0 0)
(2.08013e-06 0 0)
(2.07806e-06 0 0)
(2.07617e-06 0 0)
(2.07448e-06 0 0)
(2.07297e-06 0 0)
(2.07157e-06 0 0)
(2.07025e-06 0 0)
(2.06899e-06 0 0)
(2.06774e-06 0 0)
(2.06651e-06 0 0)
(2.06529e-06 0 0)
(2.06417e-06 0 0)
(2.0632e-06 0 0)
(2.06236e-06 0 0)
(2.06162e-06 0 0)
(2.06097e-06 0 0)
(2.06035e-06 0 0)
(2.05967e-06 0 0)
(2.05891e-06 0 0)
(2.05807e-06 0 0)
(2.05724e-06 0 0)
(2.05652e-06 0 0)
(2.05604e-06 0 0)
(2.05593e-06 0 0)
(2.05628e-06 0 0)
(2.05713e-06 0 0)
(2.05839e-06 0 0)
(2.06066e-06 0 0)
(2.06408e-06 0 0)
(2.06754e-06 0 0)
(2.07055e-06 0 0)
(2.07332e-06 0 0)
(2.0759e-06 0 0)
(2.07816e-06 0 0)
(2.08019e-06 0 0)
(2.08202e-06 0 0)
(2.08348e-06 0 0)
(2.08434e-06 0 0)
(2.08443e-06 0 0)
(2.08364e-06 0 0)
(2.08198e-06 0 0)
(2.07952e-06 0 0)
(2.07641e-06 0 0)
(2.07285e-06 0 0)
(2.06906e-06 0 0)
(2.06524e-06 0 0)
(2.06157e-06 0 0)
(2.05819e-06 0 0)
(2.0552e-06 0 0)
(2.05268e-06 0 0)
(2.05065e-06 0 0)
(2.04909e-06 0 0)
(2.04798e-06 0 0)
(2.04725e-06 0 0)
(2.04685e-06 0 0)
(2.0467e-06 0 0)
(2.04673e-06 0 0)
(2.04686e-06 0 0)
(2.04704e-06 0 0)
(2.04722e-06 0 0)
(2.04736e-06 0 0)
(2.04744e-06 0 0)
(2.04744e-06 0 0)
(2.04736e-06 0 0)
(2.04719e-06 0 0)
(2.04694e-06 0 0)
(2.04662e-06 0 0)
(2.04624e-06 0 0)
(2.0458e-06 0 0)
(2.04533e-06 0 0)
(2.04482e-06 0 0)
(2.04429e-06 0 0)
(2.04374e-06 0 0)
(2.04319e-06 0 0)
(2.04263e-06 0 0)
(2.04206e-06 0 0)
(2.04151e-06 0 0)
(2.04095e-06 0 0)
(2.0404e-06 0 0)
(2.03986e-06 0 0)
(2.03933e-06 0 0)
(2.0388e-06 0 0)
(2.03829e-06 0 0)
(2.03779e-06 0 0)
(2.03729e-06 0 0)
(2.03681e-06 0 0)
(2.03634e-06 0 0)
(2.03587e-06 0 0)
(2.03542e-06 0 0)
(2.03498e-06 0 0)
(2.03455e-06 0 0)
(2.03413e-06 0 0)
(2.03372e-06 0 0)
(2.03333e-06 0 0)
(2.03295e-06 0 0)
(2.03257e-06 0 0)
(2.03221e-06 0 0)
(2.03187e-06 0 0)
(2.03153e-06 0 0)
(2.03121e-06 0 0)
(2.0309e-06 0 0)
(2.0306e-06 0 0)
(2.03031e-06 0 0)
(2.03004e-06 0 0)
(2.02978e-06 0 0)
(2.02953e-06 0 0)
(2.02929e-06 0 0)
(2.02907e-06 0 0)
(2.02886e-06 0 0)
(2.02867e-06 0 0)
(2.02849e-06 0 0)
(2.02833e-06 0 0)
(2.02818e-06 0 0)
(2.02806e-06 0 0)
(2.02794e-06 0 0)
(2.02784e-06 0 0)
(2.02774e-06 0 0)
(2.02765e-06 0 0)
(2.02756e-06 0 0)
(2.02747e-06 0 0)
(2.02738e-06 0 0)
(2.0273e-06 0 0)
(2.02721e-06 0 0)
(2.02713e-06 0 0)
(2.02706e-06 0 0)
(2.02699e-06 0 0)
(2.02694e-06 0 0)
(2.02689e-06 0 0)
(2.02686e-06 0 0)
(2.02684e-06 0 0)
(2.02682e-06 0 0)
(2.0268e-06 0 0)
(2.02678e-06 0 0)
(2.02674e-06 0 0)
(2.02669e-06 0 0)
(2.02663e-06 0 0)
(2.02656e-06 0 0)
(2.0265e-06 0 0)
(2.02646e-06 0 0)
(2.02647e-06 0 0)
(2.02654e-06 0 0)
(2.02672e-06 0 0)
(2.02702e-06 0 0)
(2.02746e-06 0 0)
(2.02806e-06 0 0)
(2.02884e-06 0 0)
(2.0298e-06 0 0)
(2.03093e-06 0 0)
(2.03224e-06 0 0)
(2.0337e-06 0 0)
(2.0353e-06 0 0)
(2.03702e-06 0 0)
(2.03882e-06 0 0)
(2.04067e-06 0 0)
(2.04253e-06 0 0)
(2.04436e-06 0 0)
(2.04611e-06 0 0)
(2.04773e-06 0 0)
(2.04918e-06 0 0)
(2.05041e-06 0 0)
(2.05137e-06 0 0)
(2.05203e-06 0 0)
(2.05237e-06 0 0)
(2.05235e-06 0 0)
(2.05198e-06 0 0)
(2.05125e-06 0 0)
(2.05019e-06 0 0)
(2.04882e-06 0 0)
(2.04718e-06 0 0)
(2.04533e-06 0 0)
(2.04331e-06 0 0)
(2.04118e-06 0 0)
(2.03899e-06 0 0)
(2.03681e-06 0 0)
(2.03468e-06 0 0)
(2.03264e-06 0 0)
(2.03073e-06 0 0)
(2.02897e-06 0 0)
(2.02737e-06 0 0)
(2.02596e-06 0 0)
(2.02472e-06 0 0)
(2.02366e-06 0 0)
(2.02275e-06 0 0)
(2.022e-06 0 0)
(2.02138e-06 0 0)
(2.02087e-06 0 0)
(2.02045e-06 0 0)
(2.0201e-06 0 0)
(2.01981e-06 0 0)
(2.01956e-06 0 0)
(2.01934e-06 0 0)
(2.01912e-06 0 0)
(2.0189e-06 0 0)
(2.01867e-06 0 0)
(2.01843e-06 0 0)
(2.01817e-06 0 0)
(2.01788e-06 0 0)
(2.01757e-06 0 0)
(2.01723e-06 0 0)
(2.01687e-06 0 0)
(2.01648e-06 0 0)
(2.01608e-06 0 0)
(2.01565e-06 0 0)
(2.01521e-06 0 0)
(2.01475e-06 0 0)
(2.01428e-06 0 0)
(2.0138e-06 0 0)
(2.01331e-06 0 0)
(2.01283e-06 0 0)
(2.01233e-06 0 0)
(2.01184e-06 0 0)
(2.01135e-06 0 0)
(2.01086e-06 0 0)
(2.01037e-06 0 0)
(2.00989e-06 0 0)
(2.00942e-06 0 0)
(2.00895e-06 0 0)
(2.00848e-06 0 0)
(2.00802e-06 0 0)
(2.00757e-06 0 0)
(2.00713e-06 0 0)
(2.0067e-06 0 0)
(2.00627e-06 0 0)
(2.00585e-06 0 0)
(2.00544e-06 0 0)
(2.00504e-06 0 0)
(2.00465e-06 0 0)
(2.00427e-06 0 0)
(2.00389e-06 0 0)
(2.00353e-06 0 0)
(2.00317e-06 0 0)
(2.00283e-06 0 0)
(2.00249e-06 0 0)
(2.00216e-06 0 0)
(2.00184e-06 0 0)
(2.00153e-06 0 0)
(2.00123e-06 0 0)
(2.00094e-06 0 0)
(2.00066e-06 0 0)
(2.00038e-06 0 0)
(2.00012e-06 0 0)
(1.99986e-06 0 0)
(1.99962e-06 0 0)
(1.99939e-06 0 0)
(1.99916e-06 0 0)
(1.99895e-06 0 0)
(1.99874e-06 0 0)
(1.99855e-06 0 0)
(1.99836e-06 0 0)
(1.99819e-06 0 0)
(1.99802e-06 0 0)
(1.99786e-06 0 0)
(1.99771e-06 0 0)
(1.99757e-06 0 0)
(1.99743e-06 0 0)
(1.9973e-06 0 0)
(1.99717e-06 0 0)
(1.99705e-06 0 0)
(1.99693e-06 0 0)
(1.99682e-06 0 0)
(1.99671e-06 0 0)
(1.99661e-06 0 0)
(1.99651e-06 0 0)
(1.99642e-06 0 0)
(1.99634e-06 0 0)
(1.99625e-06 0 0)
(1.99617e-06 0 0)
(1.9961e-06 0 0)
(1.99602e-06 0 0)
(1.99595e-06 0 0)
(1.99587e-06 0 0)
(1.9958e-06 0 0)
(1.99573e-06 0 0)
(1.99566e-06 0 0)
(1.9956e-06 0 0)
(1.99554e-06 0 0)
(1.9955e-06 0 0)
(1.99548e-06 0 0)
(1.99548e-06 0 0)
(1.99552e-06 0 0)
(1.99559e-06 0 0)
(1.99572e-06 0 0)
(1.9959e-06 0 0)
(1.99614e-06 0 0)
(1.99645e-06 0 0)
(1.99685e-06 0 0)
(1.99732e-06 0 0)
(1.99788e-06 0 0)
(1.99853e-06 0 0)
(1.99926e-06 0 0)
(2.00009e-06 0 0)
(2.00099e-06 0 0)
(2.00197e-06 0 0)
(2.00301e-06 0 0)
(2.00412e-06 0 0)
(2.00526e-06 0 0)
(2.00644e-06 0 0)
(2.00762e-06 0 0)
(2.00881e-06 0 0)
(2.00996e-06 0 0)
(2.01107e-06 0 0)
(2.01212e-06 0 0)
(2.01307e-06 0 0)
(2.01392e-06 0 0)
(2.01465e-06 0 0)
(2.01523e-06 0 0)
(2.01566e-06 0 0)
(2.01591e-06 0 0)
(2.01598e-06 0 0)
(2.01587e-06 0 0)
(2.01556e-06 0 0)
(2.01508e-06 0 0)
(2.01441e-06 0 0)
(2.01357e-06 0 0)
(2.01258e-06 0 0)
(2.01145e-06 0 0)
(2.0102e-06 0 0)
(2.00885e-06 0 0)
(2.00743e-06 0 0)
(2.00596e-06 0 0)
(2.00446e-06 0 0)
(2.00295e-06 0 0)
(2.00146e-06 0 0)
(2e-06 0 0)
(1.99858e-06 0 0)
(1.99723e-06 0 0)
(1.99595e-06 0 0)
(1.99474e-06 0 0)
(1.99362e-06 0 0)
(1.99259e-06 0 0)
(1.99165e-06 0 0)
(1.99078e-06 0 0)
(1.99e-06 0 0)
(1.98929e-06 0 0)
(1.98866e-06 0 0)
(1.98808e-06 0 0)
(1.98756e-06 0 0)
(1.98709e-06 0 0)
(1.98666e-06 0 0)
(1.98627e-06 0 0)
(1.9859e-06 0 0)
(1.98555e-06 0 0)
(1.98521e-06 0 0)
(1.98488e-06 0 0)
(1.98456e-06 0 0)
(1.98424e-06 0 0)
(1.98391e-06 0 0)
(1.98359e-06 0 0)
(1.98325e-06 0 0)
(1.9829e-06 0 0)
(1.98255e-06 0 0)
(1.98219e-06 0 0)
(1.98181e-06 0 0)
(1.98143e-06 0 0)
(1.98104e-06 0 0)
(1.98063e-06 0 0)
(1.98022e-06 0 0)
(1.97981e-06 0 0)
(1.97938e-06 0 0)
(1.97895e-06 0 0)
(1.97852e-06 0 0)
(1.97809e-06 0 0)
(1.97765e-06 0 0)
(1.97721e-06 0 0)
(1.97677e-06 0 0)
(1.97633e-06 0 0)
(1.97589e-06 0 0)
(1.97545e-06 0 0)
(1.97502e-06 0 0)
(1.97459e-06 0 0)
(1.97416e-06 0 0)
(1.97374e-06 0 0)
(1.97332e-06 0 0)
(1.9729e-06 0 0)
(1.97249e-06 0 0)
(1.97209e-06 0 0)
(1.97169e-06 0 0)
(1.9713e-06 0 0)
(1.97091e-06 0 0)
(1.97053e-06 0 0)
(1.97015e-06 0 0)
(1.96978e-06 0 0)
(1.96942e-06 0 0)
(1.96906e-06 0 0)
(1.96871e-06 0 0)
(1.96837e-06 0 0)
(1.96803e-06 0 0)
(1.9677e-06 0 0)
(1.96738e-06 0 0)
(1.96706e-06 0 0)
(1.96675e-06 0 0)
(1.96645e-06 0 0)
(1.96615e-06 0 0)
(1.96586e-06 0 0)
(1.96558e-06 0 0)
(1.9653e-06 0 0)
(1.96503e-06 0 0)
(1.96477e-06 0 0)
(1.96452e-06 0 0)
(1.96427e-06 0 0)
(1.96403e-06 0 0)
(1.96379e-06 0 0)
(1.96357e-06 0 0)
(1.96335e-06 0 0)
(1.96313e-06 0 0)
(1.96293e-06 0 0)
(1.96273e-06 0 0)
(1.96253e-06 0 0)
(1.96234e-06 0 0)
(1.96216e-06 0 0)
(1.96198e-06 0 0)
(1.96181e-06 0 0)
(1.96165e-06 0 0)
(1.96148e-06 0 0)
(1.96133e-06 0 0)
(1.96118e-06 0 0)
(1.96103e-06 0 0)
(1.96088e-06 0 0)
(1.96074e-06 0 0)
(1.96061e-06 0 0)
(1.96048e-06 0 0)
(1.96035e-06 0 0)
(1.96022e-06 0 0)
(1.9601e-06 0 0)
(1.95999e-06 0 0)
(1.95987e-06 0 0)
(1.95976e-06 0 0)
(1.95965e-06 0 0)
(1.95955e-06 0 0)
(1.95946e-06 0 0)
(1.95937e-06 0 0)
(1.95929e-06 0 0)
(1.95923e-06 0 0)
(1.95917e-06 0 0)
(1.95914e-06 0 0)
(1.95912e-06 0 0)
(1.95912e-06 0 0)
(1.95915e-06 0 0)
(1.9592e-06 0 0)
(1.95929e-06 0 0)
(1.95942e-06 0 0)
(1.95958e-06 0 0)
(1.95978e-06 0 0)
(1.96003e-06 0 0)
(1.96032e-06 0 0)
(1.96066e-06 0 0)
(1.96105e-06 0 0)
(1.96149e-06 0 0)
(1.96198e-06 0 0)
(1.96252e-06 0 0)
(1.96311e-06 0 0)
(1.96374e-06 0 0)
(1.96441e-06 0 0)
(1.96512e-06 0 0)
(1.96585e-06 0 0)
(1.96662e-06 0 0)
(1.9674e-06 0 0)
(1.96819e-06 0 0)
(1.96898e-06 0 0)
(1.96977e-06 0 0)
(1.97054e-06 0 0)
(1.97128e-06 0 0)
(1.97198e-06 0 0)
(1.97264e-06 0 0)
(1.97324e-06 0 0)
(1.97378e-06 0 0)
(1.97424e-06 0 0)
(1.97462e-06 0 0)
(1.9749e-06 0 0)
(1.97509e-06 0 0)
(1.97518e-06 0 0)
(1.97515e-06 0 0)
(1.97502e-06 0 0)
(1.97477e-06 0 0)
(1.97442e-06 0 0)
(1.97396e-06 0 0)
(1.97339e-06 0 0)
(1.97272e-06 0 0)
(1.97196e-06 0 0)
(1.97112e-06 0 0)
(1.9702e-06 0 0)
(1.96921e-06 0 0)
(1.96817e-06 0 0)
(1.96709e-06 0 0)
(1.96597e-06 0 0)
(1.96484e-06 0 0)
(1.96369e-06 0 0)
(1.96255e-06 0 0)
(1.96141e-06 0 0)
(1.96029e-06 0 0)
(1.95919e-06 0 0)
(1.95813e-06 0 0)
(1.9571e-06 0 0)
(1.95612e-06 0 0)
(1.95518e-06 0 0)
(1.95429e-06 0 0)
(1.95344e-06 0 0)
(1.95265e-06 0 0)
(1.9519e-06 0 0)
(1.95119e-06 0 0)
(1.95053e-06 0 0)
(1.94992e-06 0 0)
(1.94934e-06 0 0)
(1.94879e-06 0 0)
(1.94828e-06 0 0)
(1.9478e-06 0 0)
(1.94734e-06 0 0)
(1.9469e-06 0 0)
(1.94648e-06 0 0)
(1.94608e-06 0 0)
(1.94568e-06 0 0)
(1.9453e-06 0 0)
(1.94493e-06 0 0)
(1.94455e-06 0 0)
(1.94419e-06 0 0)
(1.94382e-06 0 0)
(1.94345e-06 0 0)
(1.94308e-06 0 0)
(1.9427e-06 0 0)
(1.94232e-06 0 0)
(1.94194e-06 0 0)
(1.94155e-06 0 0)
(1.94116e-06 0 0)
(1.94076e-06 0 0)
(1.94036e-06 0 0)
(1.93995e-06 0 0)
(1.93954e-06 0 0)
(1.93913e-06 0 0)
(1.93871e-06 0 0)
(1.93829e-06 0 0)
(1.93786e-06 0 0)
(1.93743e-06 0 0)
(1.937e-06 0 0)
(1.93657e-06 0 0)
(1.93614e-06 0 0)
(1.93571e-06 0 0)
(1.93528e-06 0 0)
(1.93485e-06 0 0)
(1.93442e-06 0 0)
(1.93399e-06 0 0)
(1.93356e-06 0 0)
(1.93314e-06 0 0)
(1.93272e-06 0 0)
(1.9323e-06 0 0)
(1.93188e-06 0 0)
(1.93147e-06 0 0)
(1.93106e-06 0 0)
(1.93066e-06 0 0)
(1.93026e-06 0 0)
(1.92986e-06 0 0)
(1.92947e-06 0 0)
(1.92908e-06 0 0)
(1.9287e-06 0 0)
(1.92832e-06 0 0)
(1.92795e-06 0 0)
(1.92759e-06 0 0)
(1.92722e-06 0 0)
(1.92687e-06 0 0)
(1.92652e-06 0 0)
(1.92617e-06 0 0)
(1.92583e-06 0 0)
(1.9255e-06 0 0)
(1.92517e-06 0 0)
(1.92485e-06 0 0)
(1.92453e-06 0 0)
(1.92422e-06 0 0)
(1.92391e-06 0 0)
(1.92361e-06 0 0)
(1.92332e-06 0 0)
(1.92303e-06 0 0)
(1.92275e-06 0 0)
(1.92248e-06 0 0)
(1.92221e-06 0 0)
(1.92194e-06 0 0)
(1.92168e-06 0 0)
(1.92143e-06 0 0)
(1.92118e-06 0 0)
(1.92094e-06 0 0)
(1.92071e-06 0 0)
(1.92047e-06 0 0)
(1.92025e-06 0 0)
(1.92003e-06 0 0)
(1.91981e-06 0 0)
(1.9196e-06 0 0)
(1.91939e-06 0 0)
(1.91919e-06 0 0)
(1.91899e-06 0 0)
(1.9188e-06 0 0)
(1.91861e-06 0 0)
(1.91843e-06 0 0)
(1.91825e-06 0 0)
(1.91807e-06 0 0)
(1.91789e-06 0 0)
(1.91773e-06 0 0)
(1.91756e-06 0 0)
(1.9174e-06 0 0)
(1.91724e-06 0 0)
(1.91709e-06 0 0)
(1.91694e-06 0 0)
(1.91679e-06 0 0)
(1.91666e-06 0 0)
(1.91653e-06 0 0)
(1.9164e-06 0 0)
(1.91628e-06 0 0)
(1.91617e-06 0 0)
(1.91607e-06 0 0)
(1.91599e-06 0 0)
(1.91591e-06 0 0)
(1.91585e-06 0 0)
(1.9158e-06 0 0)
(1.91577e-06 0 0)
(1.91575e-06 0 0)
(1.91576e-06 0 0)
(1.91579e-06 0 0)
(1.91584e-06 0 0)
(1.91591e-06 0 0)
(1.91601e-06 0 0)
(1.91614e-06 0 0)
(1.9163e-06 0 0)
(1.91648e-06 0 0)
(1.91669e-06 0 0)
(1.91694e-06 0 0)
(1.91721e-06 0 0)
(1.91752e-06 0 0)
(1.91785e-06 0 0)
(1.91821e-06 0 0)
(1.9186e-06 0 0)
(1.91902e-06 0 0)
(1.91945e-06 0 0)
(1.91991e-06 0 0)
(1.92039e-06 0 0)
(1.92089e-06 0 0)
(1.92139e-06 0 0)
(1.9219e-06 0 0)
(1.92242e-06 0 0)
(1.92293e-06 0 0)
(1.92344e-06 0 0)
(1.92394e-06 0 0)
(1.92442e-06 0 0)
(1.92489e-06 0 0)
(1.92532e-06 0 0)
(1.92572e-06 0 0)
(1.92609e-06 0 0)
(1.92642e-06 0 0)
(1.92669e-06 0 0)
(1.92692e-06 0 0)
(1.92709e-06 0 0)
(1.9272e-06 0 0)
(1.92725e-06 0 0)
(1.92724e-06 0 0)
(1.92715e-06 0 0)
(1.927e-06 0 0)
(1.92677e-06 0 0)
(1.92647e-06 0 0)
(1.92611e-06 0 0)
(1.92567e-06 0 0)
(1.92517e-06 0 0)
(1.92461e-06 0 0)
(1.92398e-06 0 0)
(1.9233e-06 0 0)
(1.92256e-06 0 0)
(1.92178e-06 0 0)
(1.92095e-06 0 0)
(1.92009e-06 0 0)
(1.9192e-06 0 0)
(1.91829e-06 0 0)
(1.91735e-06 0 0)
(1.91641e-06 0 0)
(1.91546e-06 0 0)
(1.91451e-06 0 0)
(1.91357e-06 0 0)
(1.91264e-06 0 0)
(1.91173e-06 0 0)
(1.91084e-06 0 0)
(1.90997e-06 0 0)
(1.90913e-06 0 0)
(1.90833e-06 0 0)
(1.90756e-06 0 0)
(1.90682e-06 0 0)
(1.90612e-06 0 0)
(1.90547e-06 0 0)
(1.90485e-06 0 0)
(1.90427e-06 0 0)
(1.90373e-06 0 0)
(1.90323e-06 0 0)
(1.90277e-06 0 0)
(1.90234e-06 0 0)
(1.90195e-06 0 0)
(1.90159e-06 0 0)
(1.90125e-06 0 0)
(1.90095e-06 0 0)
(1.90067e-06 0 0)
(1.90042e-06 0 0)
(1.90018e-06 0 0)
(1.89996e-06 0 0)
(1.89976e-06 0 0)
(1.89957e-06 0 0)
(1.89939e-06 0 0)
(1.89921e-06 0 0)
(1.89904e-06 0 0)
(1.89888e-06 0 0)
(1.89871e-06 0 0)
(1.89852e-06 0 0)
(1.89831e-06 0 0)
(1.89806e-06 0 0)
(1.89772e-06 0 0)
(1.89723e-06 0 0)
(1.89647e-06 0 0)
(1.89526e-06 0 0)
(1.89331e-06 0 0)
(1.89022e-06 0 0)
(1.88558e-06 0 0)
(1.87929e-06 0 0)
(1.87194e-06 0 0)
(1.86488e-06 0 0)
(1.85943e-06 0 0)
(1.85599e-06 0 0)
(1.85409e-06 0 0)
(1.85309e-06 0 0)
(1.85254e-06 0 0)
(1.85219e-06 0 0)
(1.85194e-06 0 0)
(1.85175e-06 0 0)
(1.85157e-06 0 0)
(1.85141e-06 0 0)
(1.85125e-06 0 0)
(1.8511e-06 0 0)
(1.85096e-06 0 0)
(1.85081e-06 0 0)
(1.85067e-06 0 0)
(1.85053e-06 0 0)
(1.8504e-06 0 0)
(1.85026e-06 0 0)
(1.85013e-06 0 0)
(1.85e-06 0 0)
(1.84988e-06 0 0)
(1.84976e-06 0 0)
(1.84964e-06 0 0)
(1.84952e-06 0 0)
(1.84941e-06 0 0)
(1.8493e-06 0 0)
(1.8492e-06 0 0)
(1.8491e-06 0 0)
(1.84901e-06 0 0)
(1.84892e-06 0 0)
(1.84883e-06 0 0)
(1.84875e-06 0 0)
(1.84867e-06 0 0)
(1.8486e-06 0 0)
(1.84853e-06 0 0)
(1.84846e-06 0 0)
(1.8484e-06 0 0)
(1.84835e-06 0 0)
(1.8483e-06 0 0)
(1.84825e-06 0 0)
(1.84821e-06 0 0)
(1.84817e-06 0 0)
(1.84814e-06 0 0)
(1.84811e-06 0 0)
(1.84809e-06 0 0)
(1.84807e-06 0 0)
(1.84806e-06 0 0)
(1.84805e-06 0 0)
(1.84805e-06 0 0)
(1.84805e-06 0 0)
(1.84805e-06 0 0)
(1.84805e-06 0 0)
(1.84806e-06 0 0)
(1.84808e-06 0 0)
(1.8481e-06 0 0)
(1.84813e-06 0 0)
(1.84816e-06 0 0)
(1.84819e-06 0 0)
(1.84823e-06 0 0)
(1.84827e-06 0 0)
(1.84832e-06 0 0)
(1.84837e-06 0 0)
(1.84842e-06 0 0)
(1.84848e-06 0 0)
(1.84854e-06 0 0)
(1.8486e-06 0 0)
(1.84867e-06 0 0)
(1.84874e-06 0 0)
(1.84881e-06 0 0)
(1.84889e-06 0 0)
(1.84897e-06 0 0)
(1.84906e-06 0 0)
(1.84915e-06 0 0)
(1.84924e-06 0 0)
(1.84933e-06 0 0)
(1.84944e-06 0 0)
(1.84954e-06 0 0)
(1.84965e-06 0 0)
(1.84977e-06 0 0)
(1.84989e-06 0 0)
(1.85002e-06 0 0)
(1.85015e-06 0 0)
(1.85029e-06 0 0)
(1.85044e-06 0 0)
(1.85059e-06 0 0)
(1.85076e-06 0 0)
(1.85093e-06 0 0)
(1.85112e-06 0 0)
(1.85131e-06 0 0)
(1.85152e-06 0 0)
(1.85174e-06 0 0)
(1.85197e-06 0 0)
(1.85221e-06 0 0)
(1.85247e-06 0 0)
(1.85275e-06 0 0)
(1.85304e-06 0 0)
(1.85335e-06 0 0)
(1.85367e-06 0 0)
(1.85401e-06 0 0)
(1.85437e-06 0 0)
(1.85475e-06 0 0)
(1.85515e-06 0 0)
(1.85557e-06 0 0)
(1.856e-06 0 0)
(1.85646e-06 0 0)
(1.85693e-06 0 0)
(1.85742e-06 0 0)
(1.85793e-06 0 0)
(1.85846e-06 0 0)
(1.859e-06 0 0)
(1.85955e-06 0 0)
(1.86012e-06 0 0)
(1.86071e-06 0 0)
(1.8613e-06 0 0)
(1.8619e-06 0 0)
(1.86251e-06 0 0)
(1.86312e-06 0 0)
(1.86374e-06 0 0)
(1.86435e-06 0 0)
(1.86496e-06 0 0)
(1.86557e-06 0 0)
(1.86617e-06 0 0)
(1.86676e-06 0 0)
(1.86733e-06 0 0)
(1.86789e-06 0 0)
(1.86843e-06 0 0)
(1.86895e-06 0 0)
(1.86944e-06 0 0)
(1.8699e-06 0 0)
(1.87033e-06 0 0)
(1.87073e-06 0 0)
(1.87109e-06 0 0)
(1.87141e-06 0 0)
(1.87169e-06 0 0)
(1.87193e-06 0 0)
(1.87212e-06 0 0)
(1.87227e-06 0 0)
(1.87237e-06 0 0)
(1.87242e-06 0 0)
(1.87244e-06 0 0)
(1.87244e-06 0 0)
(1.87242e-06 0 0)
(1.87232e-06 0 0)
(1.87215e-06 0 0)
(1.87193e-06 0 0)
(1.87166e-06 0 0)
(1.87136e-06 0 0)
(1.87102e-06 0 0)
(1.87065e-06 0 0)
(1.87025e-06 0 0)
(1.86981e-06 0 0)
(1.86935e-06 0 0)
(1.86887e-06 0 0)
(1.86837e-06 0 0)
(1.86785e-06 0 0)
(1.86733e-06 0 0)
(1.86679e-06 0 0)
(1.86624e-06 0 0)
(1.8657e-06 0 0)
(1.86515e-06 0 0)
(1.86461e-06 0 0)
(1.86407e-06 0 0)
(1.86354e-06 0 0)
(1.86301e-06 0 0)
(1.8625e-06 0 0)
(1.86201e-06 0 0)
(1.86153e-06 0 0)
(1.86106e-06 0 0)
(1.86062e-06 0 0)
(1.86019e-06 0 0)
(1.85978e-06 0 0)
(1.85938e-06 0 0)
(1.85901e-06 0 0)
(1.85866e-06 0 0)
(1.85832e-06 0 0)
(1.858e-06 0 0)
(1.8577e-06 0 0)
(1.85741e-06 0 0)
(1.85714e-06 0 0)
(1.85689e-06 0 0)
(1.85665e-06 0 0)
(1.85642e-06 0 0)
(1.8562e-06 0 0)
(1.856e-06 0 0)
(1.8558e-06 0 0)
(1.85562e-06 0 0)
(1.85544e-06 0 0)
(1.85527e-06 0 0)
(1.85511e-06 0 0)
(1.85495e-06 0 0)
(1.85479e-06 0 0)
(1.85464e-06 0 0)
(1.8545e-06 0 0)
(1.85435e-06 0 0)
(1.85421e-06 0 0)
(1.85407e-06 0 0)
(1.85393e-06 0 0)
(1.85379e-06 0 0)
(1.85365e-06 0 0)
(1.85352e-06 0 0)
(1.85338e-06 0 0)
(1.85324e-06 0 0)
(1.8531e-06 0 0)
(1.85296e-06 0 0)
(1.85282e-06 0 0)
(1.85268e-06 0 0)
(1.85254e-06 0 0)
(1.8524e-06 0 0)
(1.85226e-06 0 0)
(1.85212e-06 0 0)
(1.85198e-06 0 0)
(1.85184e-06 0 0)
(1.8517e-06 0 0)
(1.85157e-06 0 0)
(1.85143e-06 0 0)
(1.85129e-06 0 0)
(1.85115e-06 0 0)
(1.85102e-06 0 0)
(1.85089e-06 0 0)
(1.85075e-06 0 0)
(1.85062e-06 0 0)
(1.8505e-06 0 0)
(1.85037e-06 0 0)
(1.85025e-06 0 0)
(1.85013e-06 0 0)
(1.85001e-06 0 0)
(1.84989e-06 0 0)
(1.84978e-06 0 0)
(1.84967e-06 0 0)
(1.84956e-06 0 0)
(1.84946e-06 0 0)
(1.84936e-06 0 0)
(1.84927e-06 0 0)
(1.84917e-06 0 0)
(1.84909e-06 0 0)
(1.849e-06 0 0)
(1.84892e-06 0 0)
(1.84884e-06 0 0)
(1.84877e-06 0 0)
(1.8487e-06 0 0)
(1.84864e-06 0 0)
(1.84858e-06 0 0)
(1.84852e-06 0 0)
(1.84847e-06 0 0)
(1.84842e-06 0 0)
(1.84838e-06 0 0)
(1.84834e-06 0 0)
)
;

boundaryField
{
    inlet
    {
        type            fixedValue;
        value           uniform (2.74882e-06 0 0);
    }
    outlet
    {
        type            zeroGradient;
    }
    emptyWalls
    {
        type            empty;
    }
}


// ************************************************************************* //
