/*--------------------------------*- C++ -*----------------------------------*\
  =========                 |
  \\      /  F ield         | OpenFOAM: The Open Source CFD Toolbox
   \\    /   O peration     | Website:  https://openfoam.org
    \\  /    A nd           | Version:  9
     \\/     M anipulation  |
\*---------------------------------------------------------------------------*/
FoamFile
{
    format      ascii;
    class       volScalarField;
    location    "42000";
    object      krc;
}
// * * * * * * * * * * * * * * * * * * * * * * * * * * * * * * * * * * * * * //

dimensions      [0 0 0 0 0 0 0];

internalField   nonuniform List<scalar> 
100
(
3.36955e-24
1.24752e-24
9.94261e-25
1.708e-24
2.62513e-25
1.33856e-24
2.94654e-25
4.21922e-26
1.17802e-24
5.55565e-25
1.31919e-24
9.47752e-26
9.03333e-26
5.54746e-25
1.69122e-24
1.24773e-25
1.90554e-25
1.93582e-25
5.2151e-24
8.26448e-24
7.57966e-24
1.80462e-23
2.12744e-23
1.90181e-23
5.98293e-23
5.48792e-23
1.28682e-22
1.2598e-22
2.45562e-22
2.65369e-22
4.62531e-22
5.29593e-22
6.40962e-22
8.25141e-22
1.11607e-21
1.21626e-21
1.46193e-21
1.63187e-21
1.85114e-21
1.94469e-21
1.92842e-21
1.76853e-21
1.65642e-21
1.75496e-21
1.24364e-21
7.03935e-22
2.93337e-22
3.57907e-24
1.22976e-22
3.83977e-22
1.21264e-21
2.88627e-21
5.02392e-21
7.62756e-21
1.17163e-20
1.75247e-20
2.32745e-20
3.05957e-20
3.92942e-20
4.75767e-20
5.58653e-20
6.36945e-20
7.06553e-20
7.71637e-20
8.19143e-20
8.51034e-20
8.92036e-20
8.91368e-20
9.0609e-20
8.85649e-20
8.71482e-20
8.34458e-20
7.91124e-20
7.38964e-20
6.89158e-20
6.28452e-20
5.75296e-20
5.13703e-20
4.62108e-20
3.99872e-20
3.50236e-20
2.92521e-20
2.53881e-20
2.1476e-20
1.78731e-20
1.46525e-20
1.20223e-20
9.76038e-21
7.61936e-21
6.072e-21
4.44249e-21
3.34847e-21
2.77307e-21
1.04528e-21
4.67263e-21
3.13663e-20
4.07991e-19
8.36969e-18
1.06184e-16
5.60182e-16
)
;

boundaryField
{
    inlet
    {
        type            calculated;
        value           uniform 3.36955e-24;
    }
    outlet
    {
        type            calculated;
        value           uniform 5.60182e-16;
    }
    emptyWalls
    {
        type            empty;
    }
}


// ************************************************************************* //
