/*--------------------------------*- C++ -*----------------------------------*\
  =========                 |
  \\      /  F ield         | OpenFOAM: The Open Source CFD Toolbox
   \\    /   O peration     | Website:  https://openfoam.org
    \\  /    A nd           | Version:  9
     \\/     M anipulation  |
\*---------------------------------------------------------------------------*/
FoamFile
{
    format      ascii;
    class       volScalarField;
    location    "21950";
    object      Fb;
}
// * * * * * * * * * * * * * * * * * * * * * * * * * * * * * * * * * * * * * //

dimensions      [0 0 0 0 0 0 0];

internalField   nonuniform List<scalar> 
1000
(
0.805224
0.80516
0.805248
0.805152
0.805287
0.805162
0.805308
0.805204
0.805301
0.805267
0.805308
0.805327
0.805356
0.805383
0.80542
0.805447
0.805483
0.805516
0.805547
0.805588
0.805593
0.805666
0.805609
0.805736
0.805631
0.805774
0.805689
0.805804
0.805837
0.806201
0.80882
0.825978
0.832778
0.834095
0.834614
0.834913
0.835104
0.835215
0.835279
0.83535
0.835452
0.835552
0.835573
0.835445
0.835148
0.83473
0.83428
0.833896
0.833645
0.83354
0.833546
0.8336
0.833659
0.83379
0.834174
0.834608
0.835028
0.835403
0.835716
0.835955
0.836132
0.836231
0.83629
0.836286
0.836272
0.836235
0.836183
0.836128
0.836075
0.83603
0.835993
0.835964
0.83594
0.835919
0.835899
0.835878
0.835853
0.835825
0.835788
0.835744
0.835687
0.835616
0.835526
0.835412
0.83527
0.8351
0.834899
0.834678
0.834443
0.834196
0.83394
0.833678
0.83341
0.833136
0.832859
0.832578
0.832294
0.832007
0.831717
0.831424
0.831129
0.830831
0.83053
0.830228
0.829923
0.829617
0.829308
0.828998
0.828686
0.828372
0.828056
0.827739
0.827419
0.827096
0.826772
0.826445
0.826116
0.825786
0.825454
0.825121
0.824788
0.824455
0.824122
0.823789
0.823456
0.823121
0.822786
0.822448
0.822108
0.821766
0.821422
0.821076
0.82073
0.820382
0.820035
0.819689
0.819344
0.819001
0.81866
0.818319
0.817977
0.817631
0.817277
0.816912
0.816532
0.816136
0.815721
0.815287
0.814837
0.81437
0.81389
0.813399
0.8129
0.812396
0.811891
0.811387
0.81089
0.810403
0.809931
0.809477
0.809046
0.808642
0.808267
0.807922
0.807608
0.807323
0.807065
0.80683
0.806613
0.80641
0.806214
0.80602
0.805823
0.805619
0.805405
0.805177
0.804933
0.804674
0.804399
0.804108
0.803803
0.803485
0.803156
0.802818
0.802473
0.802122
0.801767
0.80141
0.801052
0.800693
0.800336
0.799979
0.799624
0.799271
0.79892
0.79857
0.798222
0.797876
0.797531
0.797186
0.796843
0.7965
0.796158
0.795816
0.795473
0.795131
0.794788
0.794444
0.7941
0.793756
0.79341
0.793064
0.792717
0.792369
0.792021
0.791671
0.791321
0.790969
0.790617
0.790264
0.78991
0.789554
0.789198
0.788841
0.788483
0.788124
0.787764
0.787403
0.787041
0.786678
0.786314
0.785949
0.785583
0.785216
0.784848
0.784479
0.784109
0.783737
0.783365
0.782991
0.782616
0.782241
0.781864
0.781486
0.781108
0.780728
0.780349
0.779968
0.779587
0.779205
0.778823
0.77844
0.778056
0.777672
0.777287
0.776901
0.776514
0.776127
0.775739
0.775351
0.774962
0.774573
0.774183
0.773794
0.773405
0.773016
0.772626
0.772235
0.771843
0.771449
0.771052
0.770652
0.770247
0.769837
0.769421
0.768999
0.768569
0.768132
0.767686
0.767233
0.766772
0.766304
0.765829
0.765348
0.764862
0.764372
0.763879
0.763386
0.762894
0.762404
0.761919
0.76144
0.760969
0.760508
0.760057
0.75962
0.759196
0.758786
0.758391
0.758011
0.757645
0.757293
0.756953
0.756624
0.756305
0.755992
0.755685
0.755382
0.755079
0.754776
0.754472
0.754163
0.75385
0.75353
0.753205
0.752872
0.752532
0.752185
0.751832
0.751471
0.751105
0.750733
0.750356
0.749975
0.749591
0.749203
0.748813
0.748421
0.748028
0.747634
0.74724
0.746845
0.74645
0.746055
0.745661
0.745267
0.744873
0.74448
0.744088
0.743696
0.743304
0.742913
0.742522
0.742131
0.74174
0.741349
0.740958
0.740566
0.740175
0.739783
0.739391
0.738998
0.738605
0.738212
0.737817
0.737422
0.737027
0.736631
0.736234
0.735836
0.735438
0.735039
0.734639
0.734238
0.733837
0.733435
0.733031
0.732628
0.732223
0.731817
0.731411
0.731003
0.730595
0.730186
0.729776
0.729365
0.728954
0.728541
0.728127
0.727713
0.727297
0.726881
0.726464
0.726046
0.725627
0.725207
0.724786
0.724364
0.723942
0.723519
0.723095
0.722671
0.722245
0.721819
0.721393
0.720965
0.720537
0.720108
0.719679
0.719249
0.718818
0.718387
0.717955
0.717523
0.71709
0.716657
0.716223
0.715789
0.715354
0.714919
0.714483
0.714046
0.713608
0.713169
0.712728
0.712285
0.711841
0.711394
0.710944
0.710492
0.710036
0.709577
0.709113
0.708646
0.708175
0.707699
0.707219
0.706735
0.706246
0.705754
0.705257
0.704758
0.704255
0.70375
0.703243
0.702735
0.702227
0.701719
0.701212
0.700707
0.700204
0.699706
0.699211
0.698722
0.698238
0.697761
0.697291
0.696828
0.696373
0.695925
0.695486
0.695054
0.694629
0.694212
0.693801
0.693396
0.692996
0.6926
0.692207
0.691818
0.691429
0.691042
0.690654
0.690266
0.689876
0.689484
0.689089
0.688692
0.68829
0.687886
0.687477
0.687065
0.686648
0.686228
0.685804
0.685377
0.684947
0.684514
0.684078
0.683639
0.683198
0.682756
0.682311
0.681866
0.681419
0.680971
0.680522
0.680072
0.679622
0.679172
0.678721
0.67827
0.677818
0.677367
0.676915
0.676463
0.676011
0.675559
0.675107
0.674654
0.674201
0.673748
0.673294
0.67284
0.672386
0.671931
0.671475
0.671019
0.670563
0.670106
0.669648
0.669189
0.66873
0.66827
0.66781
0.667348
0.666886
0.666423
0.665959
0.665495
0.665029
0.664563
0.664096
0.663627
0.663158
0.662688
0.662217
0.661746
0.661273
0.660799
0.660325
0.659849
0.659373
0.658895
0.658417
0.657937
0.657457
0.656975
0.656493
0.65601
0.655526
0.65504
0.654554
0.654067
0.653579
0.65309
0.652601
0.65211
0.651618
0.651126
0.650632
0.650138
0.649643
0.649147
0.64865
0.648153
0.647654
0.647155
0.646655
0.646154
0.645653
0.64515
0.644647
0.644143
0.643639
0.643133
0.642627
0.64212
0.641612
0.641103
0.640593
0.640082
0.639569
0.639056
0.638541
0.638024
0.637506
0.636985
0.636463
0.635939
0.635413
0.634884
0.634352
0.633818
0.633282
0.632742
0.6322
0.631655
0.631107
0.630556
0.630003
0.629447
0.628888
0.628327
0.627764
0.627199
0.626633
0.626065
0.625496
0.624926
0.624356
0.623786
0.623216
0.622648
0.62208
0.621514
0.62095
0.620389
0.61983
0.619274
0.618721
0.618172
0.617626
0.617085
0.616547
0.616013
0.615483
0.614957
0.614435
0.613916
0.6134
0.612888
0.612377
0.611869
0.611363
0.610858
0.610354
0.609851
0.609348
0.608844
0.60834
0.607834
0.607327
0.606819
0.606308
0.605795
0.60528
0.604763
0.604243
0.60372
0.603194
0.602666
0.602135
0.601601
0.601065
0.600526
0.599985
0.599441
0.598896
0.598348
0.597799
0.597247
0.596694
0.596139
0.595583
0.595026
0.594467
0.593907
0.593345
0.592783
0.59222
0.591655
0.59109
0.590523
0.589956
0.589388
0.588818
0.588248
0.587677
0.587105
0.586532
0.585958
0.585383
0.584807
0.58423
0.583652
0.583073
0.582493
0.581911
0.581329
0.580745
0.58016
0.579574
0.578986
0.578397
0.577807
0.577216
0.576623
0.576029
0.575434
0.574837
0.574238
0.573638
0.573037
0.572435
0.571831
0.571225
0.570618
0.570009
0.569399
0.568787
0.568174
0.567559
0.566943
0.566325
0.565705
0.565084
0.564461
0.563837
0.563211
0.562583
0.561954
0.561323
0.56069
0.560056
0.55942
0.558783
0.558143
0.557502
0.55686
0.556215
0.555569
0.554922
0.554272
0.553621
0.552968
0.552314
0.551657
0.550999
0.55034
0.549678
0.549015
0.54835
0.547683
0.547015
0.546344
0.545672
0.544998
0.544323
0.543645
0.542965
0.542283
0.5416
0.540914
0.540226
0.539536
0.538844
0.538149
0.537452
0.536753
0.536051
0.535347
0.534639
0.53393
0.533217
0.532501
0.531783
0.531061
0.530336
0.529608
0.528878
0.528143
0.527406
0.526665
0.525921
0.525174
0.524424
0.523671
0.522914
0.522155
0.521393
0.520627
0.519859
0.519089
0.518316
0.51754
0.516763
0.515983
0.515201
0.514418
0.513633
0.512847
0.51206
0.511271
0.510482
0.509692
0.508901
0.508109
0.507318
0.506526
0.505734
0.504942
0.50415
0.503358
0.502565
0.501773
0.500981
0.500188
0.499396
0.498603
0.497809
0.497015
0.49622
0.495425
0.494628
0.49383
0.493031
0.492231
0.491428
0.490624
0.489818
0.48901
0.488199
0.487387
0.486572
0.485755
0.484936
0.484115
0.483293
0.482468
0.481643
0.480815
0.479988
0.479161
0.478334
0.477508
0.476684
0.475863
0.475046
0.474233
0.473427
0.472629
0.471839
0.47106
0.470294
0.469541
0.468805
0.468087
0.46739
0.466715
0.466065
0.46544
0.464845
0.464279
0.463745
0.463244
0.462776
0.462343
0.461943
0.461579
0.461247
0.460949
0.460683
0.460446
0.460238
0.460057
0.4599
0.459766
0.459651
0.459556
0.459475
0.459409
0.459354
0.45931
0.459275
0.459245
0.459218
0.45919
0.459156
0.459107
0.459029
0.458894
0.458652
0.458219
0.457442
0.45605
0.453572
0.449201
0.441616
0.428836
0.408353
0.378099
0.338632
0.295111
0.255596
0.225822
0.206483
0.195126
0.188852
0.185503
0.183748
0.182838
0.182368
0.182127
0.182003
0.181939
0.181907
0.181891
0.181882
0.181878
0.181876
0.181875
0.181874
0.181874
0.181873
0.181873
0.181873
0.181872
0.181872
0.181871
0.18187
0.18187
0.181869
0.181868
0.181867
0.181866
0.181864
0.181863
0.181862
0.181861
0.181859
0.181858
0.181856
0.181854
0.181853
0.181851
0.181849
0.181847
0.181845
0.181843
0.181841
0.181839
0.181837
0.181835
0.181832
0.18183
0.181827
0.181824
0.181821
0.181818
0.181815
0.181812
0.181809
0.181805
0.181801
0.181798
0.181793
0.181789
0.181785
0.18178
0.181775
0.18177
0.181764
0.181759
0.181753
0.181747
0.18174
0.181734
0.181727
0.18172
0.181712
0.181705
0.181697
0.181689
0.181681
0.181673
0.181665
0.181656
0.181648
0.181639
0.181631
0.181622
0.181614
0.181605
0.181597
0.181589
0.18158
0.181573
0.181565
0.181558
0.181551
0.181544
0.181538
0.181532
0.181526
0.181522
0.181517
0.181513
0.18151
0.181507
0.181505
0.181503
0.181502
0.181502
0.181502
0.181503
0.181503
0.181505
0.181506
0.18151
)
;

boundaryField
{
    inlet
    {
        type            calculated;
        value           uniform 0.805169;
    }
    outlet
    {
        type            calculated;
        value           uniform 0.181511;
    }
    emptyWalls
    {
        type            empty;
    }
}


// ************************************************************************* //
