/*--------------------------------*- C++ -*----------------------------------*\
  =========                 |
  \\      /  F ield         | OpenFOAM: The Open Source CFD Toolbox
   \\    /   O peration     | Website:  https://openfoam.org
    \\  /    A nd           | Version:  9
     \\/     M anipulation  |
\*---------------------------------------------------------------------------*/
FoamFile
{
    format      ascii;
    class       volVectorField;
    location    "21950";
    object      Uc;
}
// * * * * * * * * * * * * * * * * * * * * * * * * * * * * * * * * * * * * * //

dimensions      [0 0 0 0 0 0 0];

internalField   nonuniform List<vector> 
1000
(
(5.47631e-12 0 0)
(2.83689e-11 0 0)
(7.89542e-11 0 0)
(1.60194e-10 0 0)
(2.7093e-10 0 0)
(4.10778e-10 0 0)
(5.79657e-10 0 0)
(7.77608e-10 0 0)
(1.00455e-09 0 0)
(1.26026e-09 0 0)
(1.54415e-09 0 0)
(1.8551e-09 0 0)
(2.19141e-09 0 0)
(2.55051e-09 0 0)
(2.92881e-09 0 0)
(3.32165e-09 0 0)
(3.72323e-09 0 0)
(4.1268e-09 0 0)
(4.52501e-09 0 0)
(4.91058e-09 0 0)
(5.27669e-09 0 0)
(5.61803e-09 0 0)
(5.93081e-09 0 0)
(6.21345e-09 0 0)
(6.46771e-09 0 0)
(6.70324e-09 0 0)
(6.96561e-09 0 0)
(7.46471e-09 0 0)
(9.1027e-09 0 0)
(1.52338e-08 0 0)
(4.59767e-08 0 0)
(1.27946e-07 0 0)
(1.9546e-07 0 0)
(2.10465e-07 0 0)
(2.15819e-07 0 0)
(2.18794e-07 0 0)
(2.20892e-07 0 0)
(2.22576e-07 0 0)
(2.24034e-07 0 0)
(2.25353e-07 0 0)
(2.26581e-07 0 0)
(2.2774e-07 0 0)
(2.28834e-07 0 0)
(2.29865e-07 0 0)
(2.30836e-07 0 0)
(2.31757e-07 0 0)
(2.32644e-07 0 0)
(2.33515e-07 0 0)
(2.34386e-07 0 0)
(2.3526e-07 0 0)
(2.36138e-07 0 0)
(2.37012e-07 0 0)
(2.37877e-07 0 0)
(2.38757e-07 0 0)
(2.39664e-07 0 0)
(2.40579e-07 0 0)
(2.41491e-07 0 0)
(2.42395e-07 0 0)
(2.4329e-07 0 0)
(2.44173e-07 0 0)
(2.45048e-07 0 0)
(2.45916e-07 0 0)
(2.46781e-07 0 0)
(2.47648e-07 0 0)
(2.48529e-07 0 0)
(2.4943e-07 0 0)
(2.50348e-07 0 0)
(2.51284e-07 0 0)
(2.52238e-07 0 0)
(2.53216e-07 0 0)
(2.54219e-07 0 0)
(2.5525e-07 0 0)
(2.56312e-07 0 0)
(2.57409e-07 0 0)
(2.58546e-07 0 0)
(2.5973e-07 0 0)
(2.60969e-07 0 0)
(2.62275e-07 0 0)
(2.63664e-07 0 0)
(2.65161e-07 0 0)
(2.66797e-07 0 0)
(2.68612e-07 0 0)
(2.70654e-07 0 0)
(2.72974e-07 0 0)
(2.75615e-07 0 0)
(2.78595e-07 0 0)
(2.81893e-07 0 0)
(2.85461e-07 0 0)
(2.89234e-07 0 0)
(2.93162e-07 0 0)
(2.97206e-07 0 0)
(3.01339e-07 0 0)
(3.05545e-07 0 0)
(3.09808e-07 0 0)
(3.14119e-07 0 0)
(3.1847e-07 0 0)
(3.22856e-07 0 0)
(3.27271e-07 0 0)
(3.31714e-07 0 0)
(3.3618e-07 0 0)
(3.40668e-07 0 0)
(3.45176e-07 0 0)
(3.49702e-07 0 0)
(3.54245e-07 0 0)
(3.58804e-07 0 0)
(3.63378e-07 0 0)
(3.67967e-07 0 0)
(3.72569e-07 0 0)
(3.77185e-07 0 0)
(3.81813e-07 0 0)
(3.86453e-07 0 0)
(3.91105e-07 0 0)
(3.95767e-07 0 0)
(4.00441e-07 0 0)
(4.05125e-07 0 0)
(4.09819e-07 0 0)
(4.14524e-07 0 0)
(4.19238e-07 0 0)
(4.23962e-07 0 0)
(4.28696e-07 0 0)
(4.33439e-07 0 0)
(4.38192e-07 0 0)
(4.42955e-07 0 0)
(4.47726e-07 0 0)
(4.52507e-07 0 0)
(4.57297e-07 0 0)
(4.62095e-07 0 0)
(4.66901e-07 0 0)
(4.71714e-07 0 0)
(4.76536e-07 0 0)
(4.81365e-07 0 0)
(4.86201e-07 0 0)
(4.91045e-07 0 0)
(4.95897e-07 0 0)
(5.00757e-07 0 0)
(5.05626e-07 0 0)
(5.10503e-07 0 0)
(5.15388e-07 0 0)
(5.20282e-07 0 0)
(5.25183e-07 0 0)
(5.30092e-07 0 0)
(5.35006e-07 0 0)
(5.39923e-07 0 0)
(5.44842e-07 0 0)
(5.49761e-07 0 0)
(5.54678e-07 0 0)
(5.59592e-07 0 0)
(5.64503e-07 0 0)
(5.69412e-07 0 0)
(5.74318e-07 0 0)
(5.79222e-07 0 0)
(5.84126e-07 0 0)
(5.89031e-07 0 0)
(5.93939e-07 0 0)
(5.9885e-07 0 0)
(6.03768e-07 0 0)
(6.08695e-07 0 0)
(6.13632e-07 0 0)
(6.18583e-07 0 0)
(6.2355e-07 0 0)
(6.28535e-07 0 0)
(6.33542e-07 0 0)
(6.38571e-07 0 0)
(6.43625e-07 0 0)
(6.48703e-07 0 0)
(6.53806e-07 0 0)
(6.58932e-07 0 0)
(6.64079e-07 0 0)
(6.69245e-07 0 0)
(6.74426e-07 0 0)
(6.7962e-07 0 0)
(6.84823e-07 0 0)
(6.90031e-07 0 0)
(6.95243e-07 0 0)
(7.00455e-07 0 0)
(7.05666e-07 0 0)
(7.10873e-07 0 0)
(7.16077e-07 0 0)
(7.21278e-07 0 0)
(7.26474e-07 0 0)
(7.31666e-07 0 0)
(7.36856e-07 0 0)
(7.42045e-07 0 0)
(7.47233e-07 0 0)
(7.52421e-07 0 0)
(7.57611e-07 0 0)
(7.62804e-07 0 0)
(7.68001e-07 0 0)
(7.73203e-07 0 0)
(7.78409e-07 0 0)
(7.83622e-07 0 0)
(7.88841e-07 0 0)
(7.94066e-07 0 0)
(7.99298e-07 0 0)
(8.04537e-07 0 0)
(8.09783e-07 0 0)
(8.15036e-07 0 0)
(8.20295e-07 0 0)
(8.25561e-07 0 0)
(8.30833e-07 0 0)
(8.3611e-07 0 0)
(8.41394e-07 0 0)
(8.46684e-07 0 0)
(8.51979e-07 0 0)
(8.57279e-07 0 0)
(8.62585e-07 0 0)
(8.67895e-07 0 0)
(8.73211e-07 0 0)
(8.78531e-07 0 0)
(8.83857e-07 0 0)
(8.89186e-07 0 0)
(8.94521e-07 0 0)
(8.9986e-07 0 0)
(9.05204e-07 0 0)
(9.10552e-07 0 0)
(9.15905e-07 0 0)
(9.21262e-07 0 0)
(9.26623e-07 0 0)
(9.31989e-07 0 0)
(9.37359e-07 0 0)
(9.42733e-07 0 0)
(9.48112e-07 0 0)
(9.53495e-07 0 0)
(9.58882e-07 0 0)
(9.64273e-07 0 0)
(9.69668e-07 0 0)
(9.75067e-07 0 0)
(9.8047e-07 0 0)
(9.85878e-07 0 0)
(9.91289e-07 0 0)
(9.96705e-07 0 0)
(1.00212e-06 0 0)
(1.00755e-06 0 0)
(1.01297e-06 0 0)
(1.01841e-06 0 0)
(1.02384e-06 0 0)
(1.02928e-06 0 0)
(1.03472e-06 0 0)
(1.04017e-06 0 0)
(1.04562e-06 0 0)
(1.05107e-06 0 0)
(1.05653e-06 0 0)
(1.06199e-06 0 0)
(1.06745e-06 0 0)
(1.07292e-06 0 0)
(1.07839e-06 0 0)
(1.08387e-06 0 0)
(1.08935e-06 0 0)
(1.09484e-06 0 0)
(1.10033e-06 0 0)
(1.10582e-06 0 0)
(1.11131e-06 0 0)
(1.11682e-06 0 0)
(1.12232e-06 0 0)
(1.12783e-06 0 0)
(1.13334e-06 0 0)
(1.13886e-06 0 0)
(1.14438e-06 0 0)
(1.1499e-06 0 0)
(1.15543e-06 0 0)
(1.16096e-06 0 0)
(1.16649e-06 0 0)
(1.17204e-06 0 0)
(1.17758e-06 0 0)
(1.18313e-06 0 0)
(1.18868e-06 0 0)
(1.19424e-06 0 0)
(1.1998e-06 0 0)
(1.20537e-06 0 0)
(1.21094e-06 0 0)
(1.2165e-06 0 0)
(1.22207e-06 0 0)
(1.22764e-06 0 0)
(1.2332e-06 0 0)
(1.23877e-06 0 0)
(1.24433e-06 0 0)
(1.24988e-06 0 0)
(1.25543e-06 0 0)
(1.26097e-06 0 0)
(1.26651e-06 0 0)
(1.27204e-06 0 0)
(1.27756e-06 0 0)
(1.28308e-06 0 0)
(1.28859e-06 0 0)
(1.29411e-06 0 0)
(1.29962e-06 0 0)
(1.30513e-06 0 0)
(1.31064e-06 0 0)
(1.31616e-06 0 0)
(1.32168e-06 0 0)
(1.32722e-06 0 0)
(1.33276e-06 0 0)
(1.33832e-06 0 0)
(1.3439e-06 0 0)
(1.34949e-06 0 0)
(1.35511e-06 0 0)
(1.36075e-06 0 0)
(1.36641e-06 0 0)
(1.3721e-06 0 0)
(1.37781e-06 0 0)
(1.38355e-06 0 0)
(1.38931e-06 0 0)
(1.3951e-06 0 0)
(1.40091e-06 0 0)
(1.40673e-06 0 0)
(1.41257e-06 0 0)
(1.41843e-06 0 0)
(1.4243e-06 0 0)
(1.43017e-06 0 0)
(1.43605e-06 0 0)
(1.44193e-06 0 0)
(1.44782e-06 0 0)
(1.4537e-06 0 0)
(1.45958e-06 0 0)
(1.46546e-06 0 0)
(1.47133e-06 0 0)
(1.47719e-06 0 0)
(1.48306e-06 0 0)
(1.48891e-06 0 0)
(1.49477e-06 0 0)
(1.50061e-06 0 0)
(1.50646e-06 0 0)
(1.5123e-06 0 0)
(1.51814e-06 0 0)
(1.52398e-06 0 0)
(1.52982e-06 0 0)
(1.53567e-06 0 0)
(1.54151e-06 0 0)
(1.54736e-06 0 0)
(1.55321e-06 0 0)
(1.55906e-06 0 0)
(1.56492e-06 0 0)
(1.57079e-06 0 0)
(1.57666e-06 0 0)
(1.58253e-06 0 0)
(1.58842e-06 0 0)
(1.5943e-06 0 0)
(1.6002e-06 0 0)
(1.60609e-06 0 0)
(1.612e-06 0 0)
(1.61791e-06 0 0)
(1.62383e-06 0 0)
(1.62975e-06 0 0)
(1.63568e-06 0 0)
(1.64161e-06 0 0)
(1.64755e-06 0 0)
(1.65349e-06 0 0)
(1.65944e-06 0 0)
(1.6654e-06 0 0)
(1.67135e-06 0 0)
(1.67732e-06 0 0)
(1.68329e-06 0 0)
(1.68926e-06 0 0)
(1.69523e-06 0 0)
(1.70121e-06 0 0)
(1.7072e-06 0 0)
(1.71319e-06 0 0)
(1.71918e-06 0 0)
(1.72518e-06 0 0)
(1.73118e-06 0 0)
(1.73719e-06 0 0)
(1.7432e-06 0 0)
(1.74921e-06 0 0)
(1.75523e-06 0 0)
(1.76125e-06 0 0)
(1.76728e-06 0 0)
(1.77331e-06 0 0)
(1.77934e-06 0 0)
(1.78538e-06 0 0)
(1.79142e-06 0 0)
(1.79747e-06 0 0)
(1.80352e-06 0 0)
(1.80957e-06 0 0)
(1.81563e-06 0 0)
(1.82169e-06 0 0)
(1.82775e-06 0 0)
(1.83382e-06 0 0)
(1.83989e-06 0 0)
(1.84597e-06 0 0)
(1.85205e-06 0 0)
(1.85813e-06 0 0)
(1.86422e-06 0 0)
(1.87031e-06 0 0)
(1.8764e-06 0 0)
(1.8825e-06 0 0)
(1.8886e-06 0 0)
(1.89471e-06 0 0)
(1.90081e-06 0 0)
(1.90693e-06 0 0)
(1.91305e-06 0 0)
(1.91917e-06 0 0)
(1.92529e-06 0 0)
(1.93142e-06 0 0)
(1.93755e-06 0 0)
(1.94369e-06 0 0)
(1.94983e-06 0 0)
(1.95598e-06 0 0)
(1.96213e-06 0 0)
(1.96828e-06 0 0)
(1.97444e-06 0 0)
(1.98061e-06 0 0)
(1.98677e-06 0 0)
(1.99295e-06 0 0)
(1.99912e-06 0 0)
(2.0053e-06 0 0)
(2.01149e-06 0 0)
(2.01768e-06 0 0)
(2.02388e-06 0 0)
(2.03008e-06 0 0)
(2.03628e-06 0 0)
(2.04249e-06 0 0)
(2.0487e-06 0 0)
(2.05492e-06 0 0)
(2.06114e-06 0 0)
(2.06736e-06 0 0)
(2.07358e-06 0 0)
(2.0798e-06 0 0)
(2.08603e-06 0 0)
(2.09225e-06 0 0)
(2.09848e-06 0 0)
(2.1047e-06 0 0)
(2.11091e-06 0 0)
(2.11713e-06 0 0)
(2.12334e-06 0 0)
(2.12955e-06 0 0)
(2.13575e-06 0 0)
(2.14195e-06 0 0)
(2.14814e-06 0 0)
(2.15433e-06 0 0)
(2.16051e-06 0 0)
(2.16669e-06 0 0)
(2.17287e-06 0 0)
(2.17904e-06 0 0)
(2.18521e-06 0 0)
(2.19139e-06 0 0)
(2.19757e-06 0 0)
(2.20375e-06 0 0)
(2.20993e-06 0 0)
(2.21613e-06 0 0)
(2.22233e-06 0 0)
(2.22855e-06 0 0)
(2.23478e-06 0 0)
(2.24102e-06 0 0)
(2.24729e-06 0 0)
(2.25358e-06 0 0)
(2.25988e-06 0 0)
(2.26622e-06 0 0)
(2.27257e-06 0 0)
(2.27896e-06 0 0)
(2.28536e-06 0 0)
(2.2918e-06 0 0)
(2.29826e-06 0 0)
(2.30475e-06 0 0)
(2.31127e-06 0 0)
(2.31781e-06 0 0)
(2.32437e-06 0 0)
(2.33096e-06 0 0)
(2.33756e-06 0 0)
(2.34418e-06 0 0)
(2.35081e-06 0 0)
(2.35746e-06 0 0)
(2.36412e-06 0 0)
(2.37078e-06 0 0)
(2.37746e-06 0 0)
(2.38413e-06 0 0)
(2.39081e-06 0 0)
(2.39749e-06 0 0)
(2.40417e-06 0 0)
(2.41085e-06 0 0)
(2.41752e-06 0 0)
(2.4242e-06 0 0)
(2.43087e-06 0 0)
(2.43754e-06 0 0)
(2.4442e-06 0 0)
(2.45086e-06 0 0)
(2.45753e-06 0 0)
(2.46419e-06 0 0)
(2.47085e-06 0 0)
(2.47751e-06 0 0)
(2.48417e-06 0 0)
(2.49083e-06 0 0)
(2.49749e-06 0 0)
(2.50416e-06 0 0)
(2.51083e-06 0 0)
(2.51751e-06 0 0)
(2.52419e-06 0 0)
(2.53087e-06 0 0)
(2.53756e-06 0 0)
(2.54426e-06 0 0)
(2.55097e-06 0 0)
(2.55768e-06 0 0)
(2.5644e-06 0 0)
(2.57112e-06 0 0)
(2.57786e-06 0 0)
(2.5846e-06 0 0)
(2.59135e-06 0 0)
(2.5981e-06 0 0)
(2.60487e-06 0 0)
(2.61164e-06 0 0)
(2.61842e-06 0 0)
(2.6252e-06 0 0)
(2.632e-06 0 0)
(2.6388e-06 0 0)
(2.64561e-06 0 0)
(2.65243e-06 0 0)
(2.65925e-06 0 0)
(2.66608e-06 0 0)
(2.67292e-06 0 0)
(2.67976e-06 0 0)
(2.68661e-06 0 0)
(2.69347e-06 0 0)
(2.70033e-06 0 0)
(2.70721e-06 0 0)
(2.71408e-06 0 0)
(2.72097e-06 0 0)
(2.72786e-06 0 0)
(2.73475e-06 0 0)
(2.74166e-06 0 0)
(2.74857e-06 0 0)
(2.75548e-06 0 0)
(2.7624e-06 0 0)
(2.76933e-06 0 0)
(2.77626e-06 0 0)
(2.7832e-06 0 0)
(2.79015e-06 0 0)
(2.7971e-06 0 0)
(2.80406e-06 0 0)
(2.81103e-06 0 0)
(2.818e-06 0 0)
(2.82498e-06 0 0)
(2.83196e-06 0 0)
(2.83895e-06 0 0)
(2.84594e-06 0 0)
(2.85295e-06 0 0)
(2.85995e-06 0 0)
(2.86697e-06 0 0)
(2.87399e-06 0 0)
(2.88101e-06 0 0)
(2.88805e-06 0 0)
(2.89509e-06 0 0)
(2.90213e-06 0 0)
(2.90918e-06 0 0)
(2.91624e-06 0 0)
(2.92331e-06 0 0)
(2.93038e-06 0 0)
(2.93745e-06 0 0)
(2.94454e-06 0 0)
(2.95163e-06 0 0)
(2.95873e-06 0 0)
(2.96583e-06 0 0)
(2.97294e-06 0 0)
(2.98006e-06 0 0)
(2.98718e-06 0 0)
(2.99432e-06 0 0)
(3.00146e-06 0 0)
(3.0086e-06 0 0)
(3.01576e-06 0 0)
(3.02292e-06 0 0)
(3.03009e-06 0 0)
(3.03726e-06 0 0)
(3.04445e-06 0 0)
(3.05164e-06 0 0)
(3.05884e-06 0 0)
(3.06604e-06 0 0)
(3.07326e-06 0 0)
(3.08048e-06 0 0)
(3.08771e-06 0 0)
(3.09495e-06 0 0)
(3.10219e-06 0 0)
(3.10944e-06 0 0)
(3.1167e-06 0 0)
(3.12397e-06 0 0)
(3.13124e-06 0 0)
(3.13851e-06 0 0)
(3.1458e-06 0 0)
(3.15308e-06 0 0)
(3.16038e-06 0 0)
(3.16767e-06 0 0)
(3.17497e-06 0 0)
(3.18227e-06 0 0)
(3.18958e-06 0 0)
(3.19688e-06 0 0)
(3.20419e-06 0 0)
(3.2115e-06 0 0)
(3.21881e-06 0 0)
(3.22611e-06 0 0)
(3.23342e-06 0 0)
(3.24073e-06 0 0)
(3.24803e-06 0 0)
(3.25534e-06 0 0)
(3.26265e-06 0 0)
(3.26995e-06 0 0)
(3.27726e-06 0 0)
(3.28457e-06 0 0)
(3.29188e-06 0 0)
(3.29919e-06 0 0)
(3.30651e-06 0 0)
(3.31384e-06 0 0)
(3.32117e-06 0 0)
(3.32851e-06 0 0)
(3.33586e-06 0 0)
(3.34322e-06 0 0)
(3.35059e-06 0 0)
(3.35799e-06 0 0)
(3.36539e-06 0 0)
(3.37282e-06 0 0)
(3.38027e-06 0 0)
(3.38774e-06 0 0)
(3.39524e-06 0 0)
(3.40276e-06 0 0)
(3.41031e-06 0 0)
(3.41789e-06 0 0)
(3.4255e-06 0 0)
(3.43313e-06 0 0)
(3.44081e-06 0 0)
(3.44851e-06 0 0)
(3.45624e-06 0 0)
(3.46401e-06 0 0)
(3.47181e-06 0 0)
(3.47964e-06 0 0)
(3.4875e-06 0 0)
(3.49539e-06 0 0)
(3.5033e-06 0 0)
(3.51125e-06 0 0)
(3.51921e-06 0 0)
(3.5272e-06 0 0)
(3.53521e-06 0 0)
(3.54324e-06 0 0)
(3.55129e-06 0 0)
(3.55935e-06 0 0)
(3.56743e-06 0 0)
(3.57551e-06 0 0)
(3.58361e-06 0 0)
(3.59172e-06 0 0)
(3.59983e-06 0 0)
(3.60795e-06 0 0)
(3.61608e-06 0 0)
(3.62421e-06 0 0)
(3.63235e-06 0 0)
(3.64049e-06 0 0)
(3.64863e-06 0 0)
(3.65678e-06 0 0)
(3.66493e-06 0 0)
(3.67309e-06 0 0)
(3.68125e-06 0 0)
(3.68942e-06 0 0)
(3.69759e-06 0 0)
(3.70577e-06 0 0)
(3.71396e-06 0 0)
(3.72216e-06 0 0)
(3.73036e-06 0 0)
(3.73857e-06 0 0)
(3.74679e-06 0 0)
(3.75502e-06 0 0)
(3.76327e-06 0 0)
(3.77152e-06 0 0)
(3.77979e-06 0 0)
(3.78806e-06 0 0)
(3.79635e-06 0 0)
(3.80466e-06 0 0)
(3.81298e-06 0 0)
(3.82131e-06 0 0)
(3.82965e-06 0 0)
(3.83801e-06 0 0)
(3.84639e-06 0 0)
(3.85478e-06 0 0)
(3.86318e-06 0 0)
(3.87161e-06 0 0)
(3.88004e-06 0 0)
(3.88849e-06 0 0)
(3.89696e-06 0 0)
(3.90544e-06 0 0)
(3.91394e-06 0 0)
(3.92245e-06 0 0)
(3.93098e-06 0 0)
(3.93953e-06 0 0)
(3.94809e-06 0 0)
(3.95666e-06 0 0)
(3.96525e-06 0 0)
(3.97386e-06 0 0)
(3.98248e-06 0 0)
(3.99111e-06 0 0)
(3.99977e-06 0 0)
(4.00843e-06 0 0)
(4.01712e-06 0 0)
(4.02582e-06 0 0)
(4.03453e-06 0 0)
(4.04326e-06 0 0)
(4.052e-06 0 0)
(4.06077e-06 0 0)
(4.06954e-06 0 0)
(4.07833e-06 0 0)
(4.08714e-06 0 0)
(4.09597e-06 0 0)
(4.10481e-06 0 0)
(4.11366e-06 0 0)
(4.12253e-06 0 0)
(4.13142e-06 0 0)
(4.14032e-06 0 0)
(4.14924e-06 0 0)
(4.15818e-06 0 0)
(4.16713e-06 0 0)
(4.1761e-06 0 0)
(4.18509e-06 0 0)
(4.19409e-06 0 0)
(4.20311e-06 0 0)
(4.21215e-06 0 0)
(4.2212e-06 0 0)
(4.23027e-06 0 0)
(4.23936e-06 0 0)
(4.24846e-06 0 0)
(4.25759e-06 0 0)
(4.26673e-06 0 0)
(4.27589e-06 0 0)
(4.28506e-06 0 0)
(4.29426e-06 0 0)
(4.30347e-06 0 0)
(4.3127e-06 0 0)
(4.32195e-06 0 0)
(4.33122e-06 0 0)
(4.34051e-06 0 0)
(4.34982e-06 0 0)
(4.35914e-06 0 0)
(4.36849e-06 0 0)
(4.37786e-06 0 0)
(4.38724e-06 0 0)
(4.39665e-06 0 0)
(4.40608e-06 0 0)
(4.41552e-06 0 0)
(4.42499e-06 0 0)
(4.43448e-06 0 0)
(4.44399e-06 0 0)
(4.45352e-06 0 0)
(4.46307e-06 0 0)
(4.47265e-06 0 0)
(4.48225e-06 0 0)
(4.49187e-06 0 0)
(4.50151e-06 0 0)
(4.51117e-06 0 0)
(4.52085e-06 0 0)
(4.53056e-06 0 0)
(4.54029e-06 0 0)
(4.55004e-06 0 0)
(4.55981e-06 0 0)
(4.56961e-06 0 0)
(4.57943e-06 0 0)
(4.58927e-06 0 0)
(4.59913e-06 0 0)
(4.60901e-06 0 0)
(4.61891e-06 0 0)
(4.62884e-06 0 0)
(4.63878e-06 0 0)
(4.64875e-06 0 0)
(4.65873e-06 0 0)
(4.66874e-06 0 0)
(4.67876e-06 0 0)
(4.68881e-06 0 0)
(4.69887e-06 0 0)
(4.70895e-06 0 0)
(4.71905e-06 0 0)
(4.72917e-06 0 0)
(4.73931e-06 0 0)
(4.74947e-06 0 0)
(4.75964e-06 0 0)
(4.76984e-06 0 0)
(4.78006e-06 0 0)
(4.79029e-06 0 0)
(4.80055e-06 0 0)
(4.81083e-06 0 0)
(4.82113e-06 0 0)
(4.83146e-06 0 0)
(4.84181e-06 0 0)
(4.85218e-06 0 0)
(4.86258e-06 0 0)
(4.87302e-06 0 0)
(4.88348e-06 0 0)
(4.89397e-06 0 0)
(4.90449e-06 0 0)
(4.91506e-06 0 0)
(4.92565e-06 0 0)
(4.93629e-06 0 0)
(4.94697e-06 0 0)
(4.95769e-06 0 0)
(4.96845e-06 0 0)
(4.97926e-06 0 0)
(4.99012e-06 0 0)
(5.00102e-06 0 0)
(5.01198e-06 0 0)
(5.02299e-06 0 0)
(5.03406e-06 0 0)
(5.04518e-06 0 0)
(5.05636e-06 0 0)
(5.06759e-06 0 0)
(5.07889e-06 0 0)
(5.09024e-06 0 0)
(5.10165e-06 0 0)
(5.11313e-06 0 0)
(5.12466e-06 0 0)
(5.13625e-06 0 0)
(5.1479e-06 0 0)
(5.15961e-06 0 0)
(5.17137e-06 0 0)
(5.18319e-06 0 0)
(5.19507e-06 0 0)
(5.20699e-06 0 0)
(5.21897e-06 0 0)
(5.23099e-06 0 0)
(5.24306e-06 0 0)
(5.25518e-06 0 0)
(5.26733e-06 0 0)
(5.27953e-06 0 0)
(5.29176e-06 0 0)
(5.30402e-06 0 0)
(5.31631e-06 0 0)
(5.32863e-06 0 0)
(5.34097e-06 0 0)
(5.35333e-06 0 0)
(5.3657e-06 0 0)
(5.37808e-06 0 0)
(5.39046e-06 0 0)
(5.40285e-06 0 0)
(5.41523e-06 0 0)
(5.4276e-06 0 0)
(5.43995e-06 0 0)
(5.45226e-06 0 0)
(5.46454e-06 0 0)
(5.47676e-06 0 0)
(5.48893e-06 0 0)
(5.50102e-06 0 0)
(5.51302e-06 0 0)
(5.52491e-06 0 0)
(5.53668e-06 0 0)
(5.54829e-06 0 0)
(5.55974e-06 0 0)
(5.571e-06 0 0)
(5.58204e-06 0 0)
(5.59284e-06 0 0)
(5.60336e-06 0 0)
(5.61358e-06 0 0)
(5.62347e-06 0 0)
(5.633e-06 0 0)
(5.64215e-06 0 0)
(5.65089e-06 0 0)
(5.65919e-06 0 0)
(5.66703e-06 0 0)
(5.6744e-06 0 0)
(5.68129e-06 0 0)
(5.68769e-06 0 0)
(5.69359e-06 0 0)
(5.699e-06 0 0)
(5.70393e-06 0 0)
(5.70838e-06 0 0)
(5.71238e-06 0 0)
(5.71595e-06 0 0)
(5.71912e-06 0 0)
(5.7219e-06 0 0)
(5.72433e-06 0 0)
(5.72643e-06 0 0)
(5.72824e-06 0 0)
(5.72979e-06 0 0)
(5.73112e-06 0 0)
(5.73225e-06 0 0)
(5.7332e-06 0 0)
(5.734e-06 0 0)
(5.73468e-06 0 0)
(5.73529e-06 0 0)
(5.73585e-06 0 0)
(5.73642e-06 0 0)
(5.7371e-06 0 0)
(5.738e-06 0 0)
(5.73937e-06 0 0)
(5.74164e-06 0 0)
(5.74557e-06 0 0)
(5.75249e-06 0 0)
(5.76477e-06 0 0)
(5.7866e-06 0 0)
(5.82523e-06 0 0)
(5.89286e-06 0 0)
(6.00888e-06 0 0)
(6.20101e-06 0 0)
(6.50146e-06 0 0)
(6.93184e-06 0 0)
(7.4773e-06 0 0)
(8.07023e-06 0 0)
(8.6137e-06 0 0)
(9.03529e-06 0 0)
(9.31882e-06 0 0)
(9.49022e-06 0 0)
(9.58681e-06 0 0)
(9.639e-06 0 0)
(9.66655e-06 0 0)
(9.68092e-06 0 0)
(9.68837e-06 0 0)
(9.69223e-06 0 0)
(9.69423e-06 0 0)
(9.69528e-06 0 0)
(9.69583e-06 0 0)
(9.69612e-06 0 0)
(9.69629e-06 0 0)
(9.69638e-06 0 0)
(9.69643e-06 0 0)
(9.69647e-06 0 0)
(9.69649e-06 0 0)
(9.6965e-06 0 0)
(9.69651e-06 0 0)
(9.69651e-06 0 0)
(9.69652e-06 0 0)
(9.69652e-06 0 0)
(9.69651e-06 0 0)
(9.6965e-06 0 0)
(9.69649e-06 0 0)
(9.69648e-06 0 0)
(9.69647e-06 0 0)
(9.69645e-06 0 0)
(9.69643e-06 0 0)
(9.6964e-06 0 0)
(9.69638e-06 0 0)
(9.69635e-06 0 0)
(9.69632e-06 0 0)
(9.69629e-06 0 0)
(9.69625e-06 0 0)
(9.69621e-06 0 0)
(9.69617e-06 0 0)
(9.69613e-06 0 0)
(9.69608e-06 0 0)
(9.69603e-06 0 0)
(9.69597e-06 0 0)
(9.69592e-06 0 0)
(9.69586e-06 0 0)
(9.69579e-06 0 0)
(9.69573e-06 0 0)
(9.69565e-06 0 0)
(9.69558e-06 0 0)
(9.69549e-06 0 0)
(9.69541e-06 0 0)
(9.69531e-06 0 0)
(9.69521e-06 0 0)
(9.69511e-06 0 0)
(9.69499e-06 0 0)
(9.69487e-06 0 0)
(9.69474e-06 0 0)
(9.69461e-06 0 0)
(9.69446e-06 0 0)
(9.6943e-06 0 0)
(9.69414e-06 0 0)
(9.69396e-06 0 0)
(9.69377e-06 0 0)
(9.69357e-06 0 0)
(9.69336e-06 0 0)
(9.69314e-06 0 0)
(9.6929e-06 0 0)
(9.69265e-06 0 0)
(9.69239e-06 0 0)
(9.69211e-06 0 0)
(9.69182e-06 0 0)
(9.69152e-06 0 0)
(9.6912e-06 0 0)
(9.69087e-06 0 0)
(9.69052e-06 0 0)
(9.69017e-06 0 0)
(9.6898e-06 0 0)
(9.68942e-06 0 0)
(9.68903e-06 0 0)
(9.68862e-06 0 0)
(9.68821e-06 0 0)
(9.68779e-06 0 0)
(9.68736e-06 0 0)
(9.68693e-06 0 0)
(9.68649e-06 0 0)
(9.68605e-06 0 0)
(9.6856e-06 0 0)
(9.68516e-06 0 0)
(9.68471e-06 0 0)
(9.68427e-06 0 0)
(9.68383e-06 0 0)
(9.6834e-06 0 0)
(9.68298e-06 0 0)
(9.68257e-06 0 0)
(9.68217e-06 0 0)
(9.68178e-06 0 0)
(9.68141e-06 0 0)
(9.68106e-06 0 0)
(9.68073e-06 0 0)
(9.68041e-06 0 0)
(9.68012e-06 0 0)
(9.67986e-06 0 0)
(9.67962e-06 0 0)
(9.6794e-06 0 0)
(9.67922e-06 0 0)
(9.67907e-06 0 0)
(9.67895e-06 0 0)
(9.67886e-06 0 0)
(9.6788e-06 0 0)
(9.67878e-06 0 0)
(9.67877e-06 0 0)
(9.67878e-06 0 0)
(9.67881e-06 0 0)
(9.67887e-06 0 0)
(9.67896e-06 0 0)
(9.67909e-06 0 0)
)
;

boundaryField
{
    inlet
    {
        type            fixedValue;
        value           uniform (0 0 0);
    }
    outlet
    {
        type            zeroGradient;
    }
    emptyWalls
    {
        type            empty;
    }
}


// ************************************************************************* //
