/*--------------------------------*- C++ -*----------------------------------*\
  =========                 |
  \\      /  F ield         | OpenFOAM: The Open Source CFD Toolbox
   \\    /   O peration     | Website:  https://openfoam.org
    \\  /    A nd           | Version:  9
     \\/     M anipulation  |
\*---------------------------------------------------------------------------*/
FoamFile
{
    format      ascii;
    class       volScalarField;
    location    "3250";
    object      krc;
}
// * * * * * * * * * * * * * * * * * * * * * * * * * * * * * * * * * * * * * //

dimensions      [0 0 0 0 0 0 0];

internalField   nonuniform List<scalar> 
1000
(
9.75711e-06
8.9871e-05
0.000364199
0.00206223
0.0214983
0.0434822
0.0493804
0.0521965
0.0540117
0.055468
0.0570968
0.05982
0.0634622
0.0676452
0.0720843
0.0766256
0.0811915
0.0857444
0.0902623
0.094734
0.0991532
0.103516
0.107823
0.112072
0.116263
0.120398
0.124479
0.128506
0.13248
0.136404
0.140279
0.144107
0.147889
0.151626
0.155322
0.158977
0.162592
0.166169
0.169709
0.173214
0.176685
0.180123
0.183529
0.186905
0.190252
0.19357
0.196862
0.200128
0.203368
0.206586
0.20978
0.212953
0.216106
0.219239
0.222353
0.22545
0.228529
0.231593
0.234642
0.237677
0.240697
0.243705
0.2467
0.249683
0.252654
0.255614
0.258563
0.261502
0.264432
0.267353
0.270265
0.27317
0.276068
0.27896
0.281847
0.284729
0.287608
0.290483
0.293356
0.296228
0.299099
0.301971
0.304842
0.307716
0.310592
0.313471
0.316353
0.319241
0.322134
0.325033
0.32794
0.330855
0.333779
0.336713
0.339659
0.342616
0.345586
0.34857
0.351571
0.354588
0.357623
0.360679
0.363755
0.366854
0.369977
0.373125
0.376301
0.379505
0.382739
0.386005
0.389303
0.392634
0.395999
0.399397
0.402824
0.406276
0.409745
0.41322
0.416686
0.420132
0.423548
0.426946
0.430376
0.433972
0.438018
0.443049
0.449982
0.460216
0.475526
0.497377
0.525482
0.556525
0.585143
0.607179
0.62176
0.630408
0.635189
0.637725
0.639038
0.639709
0.64005
0.640221
0.640308
0.640352
0.640374
0.640385
0.640392
0.640395
0.640398
0.6404
0.640401
0.640403
0.640404
0.640405
0.640407
0.640408
0.64041
0.640411
0.640412
0.640413
0.640415
0.640416
0.640417
0.640418
0.640419
0.64042
0.640421
0.640422
0.640422
0.640423
0.640424
0.640424
0.640424
0.640424
0.640424
0.640424
0.640424
0.640424
0.640423
0.640423
0.640422
0.640421
0.64042
0.640419
0.640418
0.640417
0.640416
0.640415
0.640413
0.640412
0.640411
0.640409
0.640408
0.640406
0.640405
0.640404
0.640402
0.640401
0.640399
0.640398
0.640397
0.640396
0.640394
0.640393
0.640392
0.640391
0.64039
0.640389
0.640388
0.640387
0.640386
0.640386
0.640385
0.640384
0.640383
0.640383
0.640382
0.640381
0.64038
0.640379
0.640377
0.640375
0.640373
0.640371
0.640368
0.640364
0.640359
0.640354
0.640349
0.640342
0.640335
0.640327
0.640318
0.640308
0.640298
0.640287
0.640275
0.640263
0.64025
0.640237
0.640224
0.640211
0.640198
0.640185
0.640172
0.64016
0.640149
0.640139
0.64013
0.640123
0.640117
0.640114
0.640112
0.640112
0.640113
0.640114
0.64012
0.640129
0.640142
0.640156
0.640173
0.640191
0.64021
0.640231
0.640252
0.640273
0.640294
0.640315
0.640334
0.640353
0.64037
0.640385
0.640399
0.640411
0.64042
0.640428
0.640435
0.640439
0.640442
0.640444
0.640445
0.640445
0.640445
0.640444
0.640441
0.640438
0.640434
0.640431
0.640427
0.640423
0.64042
0.640416
0.640413
0.64041
0.640408
0.640406
0.640404
0.640402
0.6404
0.640399
0.640398
0.640398
0.640397
0.640397
0.640397
0.640397
0.640397
0.640398
0.640398
0.640399
0.6404
0.6404
0.640401
0.640402
0.640403
0.640404
0.640405
0.640406
0.640408
0.640409
0.64041
0.640411
0.640412
0.640413
0.640415
0.640416
0.640417
0.640418
0.640419
0.64042
0.640421
0.640422
0.640423
0.640425
0.640426
0.640427
0.640428
0.640428
0.640429
0.64043
0.640431
0.640432
0.640432
0.640433
0.640433
0.640434
0.640435
0.640435
0.640435
0.640435
0.640436
0.640436
0.640436
0.640436
0.640436
0.640435
0.640435
0.640435
0.640434
0.640433
0.640433
0.640432
0.640431
0.640431
0.64043
0.640429
0.640428
0.640427
0.640426
0.640425
0.640424
0.640423
0.640422
0.640421
0.64042
0.64042
0.640419
0.640418
0.640418
0.640418
0.640417
0.640417
0.640417
0.640417
0.640417
0.640417
0.640417
0.640417
0.640417
0.640418
0.640418
0.640419
0.640419
0.640419
0.64042
0.640421
0.640421
0.640422
0.640422
0.640422
0.640422
0.640423
0.640423
0.640423
0.640424
0.640424
0.640424
0.640424
0.640424
0.640424
0.640424
0.640424
0.640424
0.640424
0.640423
0.640423
0.640423
0.640422
0.640421
0.64042
0.640419
0.640418
0.640416
0.640415
0.640413
0.640411
0.640409
0.640406
0.640403
0.6404
0.640397
0.640393
0.640389
0.640384
0.640379
0.640374
0.640368
0.640362
0.640355
0.640348
0.64034
0.640332
0.640324
0.640315
0.640306
0.640297
0.640287
0.640277
0.640267
0.640258
0.640248
0.640238
0.640229
0.64022
0.640212
0.640205
0.640198
0.640193
0.640189
0.640187
0.640186
0.640185
0.640186
0.640186
0.640192
0.6402
0.64021
0.640223
0.640237
0.640253
0.640272
0.640291
0.640312
0.640333
0.640356
0.640378
0.6404
0.640422
0.640443
0.640462
0.64048
0.640497
0.640512
0.640525
0.640537
0.640546
0.640554
0.640561
0.640565
0.640568
0.64057
0.64057
0.64057
0.64057
0.640568
0.640565
0.640561
0.640557
0.640552
0.640547
0.640542
0.640537
0.640532
0.640527
0.640523
0.640518
0.640514
0.64051
0.640507
0.640504
0.640501
0.640498
0.640496
0.640494
0.640492
0.64049
0.640489
0.640488
0.640487
0.640486
0.640486
0.640485
0.640485
0.640485
0.640485
0.640485
0.640485
0.640485
0.640485
0.640485
0.640485
0.640485
0.640486
0.640486
0.640487
0.640488
0.640502
0.640562
0.640892
0.648472
0.658924
0.660154
0.660156
0.660156
0.660156
0.660156
0.660156
0.660156
0.660156
0.660156
0.660156
0.660156
0.660156
0.660156
0.660156
0.660156
0.660156
0.660156
0.660156
0.660156
0.660156
0.660156
0.660156
0.660156
0.660156
0.660156
0.660156
0.660156
0.660156
0.660156
0.660156
0.660156
0.660156
0.660156
0.660156
0.660156
0.660156
0.660156
0.660156
0.660156
0.660156
0.660156
0.660156
0.660156
0.660156
0.660156
0.660156
0.660156
0.660156
0.660156
0.660156
0.660156
0.660156
0.660156
0.660156
0.660156
0.660156
0.660156
0.660156
0.660156
0.660156
0.660156
0.660156
0.660156
0.660156
0.660156
0.660156
0.660156
0.660156
0.660156
0.660156
0.660156
0.660156
0.660156
0.660156
0.660156
0.660156
0.660156
0.660156
0.660156
0.660156
0.660156
0.660156
0.660156
0.660156
0.660156
0.660156
0.660156
0.660156
0.660156
0.660156
0.660156
0.660156
0.660156
0.660156
0.660156
0.660156
0.660156
0.660156
0.660156
0.660156
0.660156
0.660156
0.660156
0.660156
0.660156
0.660156
0.660156
0.660156
0.660156
0.660156
0.660156
0.660156
0.660156
0.660156
0.660156
0.660156
0.660156
0.660156
0.660156
0.660156
0.660156
0.660156
0.660156
0.660156
0.660156
0.660156
0.660156
0.660156
0.660156
0.660156
0.660156
0.660156
0.660156
0.660156
0.660156
0.660156
0.660156
0.660156
0.660156
0.660156
0.660156
0.660156
0.660156
0.660156
0.660156
0.660156
0.660156
0.660156
0.660156
0.660156
0.660156
0.660156
0.660156
0.660156
0.660156
0.660156
0.660156
0.660156
0.660156
0.660156
0.660156
0.660156
0.660156
0.660156
0.660156
0.660156
0.660156
0.660156
0.660156
0.660156
0.660156
0.660156
0.660156
0.660156
0.660156
0.660156
0.660156
0.660156
0.660156
0.660156
0.660156
0.660156
0.660156
0.660156
0.660156
0.660156
0.660156
0.660156
0.660156
0.660156
0.660156
0.660156
0.660156
0.660156
0.660156
0.660156
0.660156
0.660156
0.660156
0.660156
0.660156
0.660156
0.660156
0.660156
0.660156
0.660156
0.660156
0.660156
0.660156
0.660156
0.660156
0.660156
0.660156
0.660156
0.660156
0.660156
0.660156
0.660156
0.660156
0.660156
0.660156
0.660156
0.660156
0.660156
0.660156
0.660156
0.660156
0.660156
0.660156
0.660156
0.660156
0.660156
0.660156
0.660156
0.660156
0.660156
0.660156
0.660156
0.660156
0.660156
0.660156
0.660156
0.660156
0.660156
0.660156
0.660156
0.660156
0.660156
0.660156
0.660156
0.660156
0.660156
0.660156
0.660156
0.660156
0.660156
0.660156
0.660156
0.660156
0.660156
0.660156
0.660156
0.660156
0.660156
0.660156
0.660156
0.660156
0.660156
0.660156
0.660156
0.660156
0.660156
0.660156
0.660156
0.660156
0.660156
0.660156
0.660156
0.660156
0.660156
0.660156
0.660156
0.660156
0.660156
0.660156
0.660156
0.660156
0.660156
0.660156
0.660156
0.660156
0.660156
0.660156
0.660156
0.660156
0.660156
0.660156
0.660156
0.660156
0.660156
0.660156
0.660156
0.660156
0.660156
0.660156
0.660156
0.660156
0.660156
0.660156
0.660156
0.660156
0.660156
0.660156
0.660156
0.660156
0.660156
0.660156
0.660156
0.660156
0.660156
0.660156
0.660156
0.660156
0.660156
0.660156
0.660156
0.660156
0.660156
0.660156
0.660156
0.660156
0.660156
0.660156
0.660156
0.660156
0.660156
0.660156
0.660156
0.660156
0.660156
0.660156
0.660156
0.660156
0.660156
0.660156
0.660156
0.660156
0.660156
0.660156
0.660156
0.660156
0.660156
0.660156
0.660156
0.660156
0.660156
0.660156
0.660156
0.660156
0.660156
0.660156
0.660156
0.660156
0.660156
0.660156
0.660156
0.660156
0.660156
0.660156
0.660156
0.660156
0.660156
0.660156
0.660156
0.660156
0.660156
0.660156
0.660156
0.660156
0.660156
0.660156
0.660156
0.660156
0.660156
0.660156
0.660156
0.660156
0.660156
0.660156
0.660156
0.660156
0.660156
0.660156
0.660156
0.660156
0.660156
0.660156
0.660156
0.660156
0.660156
0.660156
0.660156
0.660156
0.660156
0.660156
0.660156
0.660156
0.660156
0.660156
0.660156
0.660156
0.660156
0.660156
0.660156
0.660156
0.660156
0.660156
0.660156
0.660156
0.660156
0.660156
0.660156
0.660156
0.660156
0.660156
0.660156
0.660156
0.660156
0.660156
0.660156
0.660156
0.660156
0.660156
0.660156
0.660156
0.660156
0.660156
0.660156
0.660156
0.660156
0.660156
0.660156
0.660156
0.660156
0.660156
0.660156
0.660156
0.660156
0.660156
0.660156
0.660156
0.660156
0.660156
0.660156
0.660156
0.660156
0.660156
0.660156
0.660156
)
;

boundaryField
{
    inlet
    {
        type            calculated;
        value           uniform 3.08149e-33;
    }
    outlet
    {
        type            calculated;
        value           uniform 0.660156;
    }
    emptyWalls
    {
        type            empty;
    }
}


// ************************************************************************* //
