/*--------------------------------*- C++ -*----------------------------------*\
  =========                 |
  \\      /  F ield         | OpenFOAM: The Open Source CFD Toolbox
   \\    /   O peration     | Website:  https://openfoam.org
    \\  /    A nd           | Version:  9
     \\/     M anipulation  |
\*---------------------------------------------------------------------------*/
FoamFile
{
    format      ascii;
    class       surfaceScalarField;
    location    "3250";
    object      phib;
}
// * * * * * * * * * * * * * * * * * * * * * * * * * * * * * * * * * * * * * //

dimensions      [0 2 0 0 0 0 0];

internalField   nonuniform List<scalar> 
999
(
1.13662e-09
1.13685e-09
1.13838e-09
1.14578e-09
1.17343e-09
1.1785e-09
1.17987e-09
1.18044e-09
1.18065e-09
1.18066e-09
1.1803e-09
1.17883e-09
1.17658e-09
1.17402e-09
1.17128e-09
1.16844e-09
1.16551e-09
1.1625e-09
1.15944e-09
1.15631e-09
1.15313e-09
1.1499e-09
1.14661e-09
1.14329e-09
1.13992e-09
1.13651e-09
1.13307e-09
1.12958e-09
1.12607e-09
1.12253e-09
1.11897e-09
1.11541e-09
1.11184e-09
1.10826e-09
1.10466e-09
1.10103e-09
1.09736e-09
1.09364e-09
1.08986e-09
1.08601e-09
1.0821e-09
1.07814e-09
1.07411e-09
1.07005e-09
1.06596e-09
1.06184e-09
1.05772e-09
1.0536e-09
1.04949e-09
1.0454e-09
1.04134e-09
1.03733e-09
1.03336e-09
1.02946e-09
1.02562e-09
1.02185e-09
1.01814e-09
1.0145e-09
1.0109e-09
1.00733e-09
1.00377e-09
1.0002e-09
9.96595e-10
9.92931e-10
9.89193e-10
9.85365e-10
9.8144e-10
9.77414e-10
9.73285e-10
9.6906e-10
9.64745e-10
9.6035e-10
9.55885e-10
9.5136e-10
9.46785e-10
9.42169e-10
9.3752e-10
9.32842e-10
9.28141e-10
9.23418e-10
9.18674e-10
9.1391e-10
9.09123e-10
9.04312e-10
8.99474e-10
8.94606e-10
8.89707e-10
8.84771e-10
8.79796e-10
8.7478e-10
8.69718e-10
8.64609e-10
8.5945e-10
8.54238e-10
8.48972e-10
8.43649e-10
8.38266e-10
8.32821e-10
8.27312e-10
8.21736e-10
8.1609e-10
8.10372e-10
8.04579e-10
7.98708e-10
7.92756e-10
7.86721e-10
7.80599e-10
7.74388e-10
7.68084e-10
7.61685e-10
7.55189e-10
7.48595e-10
7.41904e-10
7.35119e-10
7.28248e-10
7.21306e-10
7.14312e-10
7.07291e-10
7.00273e-10
6.9328e-10
6.86312e-10
6.79308e-10
6.72078e-10
6.64192e-10
6.54798e-10
6.42378e-10
6.24494e-10
5.97785e-10
5.58826e-10
5.06546e-10
4.45363e-10
3.85232e-10
3.36117e-10
3.0209e-10
2.81274e-10
2.69543e-10
2.63252e-10
2.59973e-10
2.58292e-10
2.5744e-10
2.57011e-10
2.56797e-10
2.56691e-10
2.56641e-10
2.56618e-10
2.56609e-10
2.56606e-10
2.56607e-10
2.5661e-10
2.56614e-10
2.56618e-10
2.56623e-10
2.56628e-10
2.56633e-10
2.56637e-10
2.56642e-10
2.56646e-10
2.56651e-10
2.56656e-10
2.5666e-10
2.56665e-10
2.56669e-10
2.56673e-10
2.56676e-10
2.5668e-10
2.56683e-10
2.56686e-10
2.56689e-10
2.56691e-10
2.56693e-10
2.56694e-10
2.56695e-10
2.56696e-10
2.56696e-10
2.56696e-10
2.56696e-10
2.56696e-10
2.56694e-10
2.56692e-10
2.5669e-10
2.56687e-10
2.56684e-10
2.56681e-10
2.56677e-10
2.56673e-10
2.56669e-10
2.56664e-10
2.56659e-10
2.56655e-10
2.5665e-10
2.56645e-10
2.5664e-10
2.56635e-10
2.5663e-10
2.56625e-10
2.5662e-10
2.56616e-10
2.56611e-10
2.56606e-10
2.56602e-10
2.56598e-10
2.56593e-10
2.56589e-10
2.56585e-10
2.56581e-10
2.56577e-10
2.56573e-10
2.5657e-10
2.56567e-10
2.56563e-10
2.5656e-10
2.56556e-10
2.56553e-10
2.5655e-10
2.56546e-10
2.56542e-10
2.56538e-10
2.56533e-10
2.56527e-10
2.56521e-10
2.56513e-10
2.56505e-10
2.56494e-10
2.56482e-10
2.56468e-10
2.56451e-10
2.56432e-10
2.5641e-10
2.56386e-10
2.56359e-10
2.56329e-10
2.56297e-10
2.56261e-10
2.56223e-10
2.56182e-10
2.56139e-10
2.56094e-10
2.56047e-10
2.55999e-10
2.5595e-10
2.559e-10
2.5585e-10
2.558e-10
2.55752e-10
2.55706e-10
2.55663e-10
2.55623e-10
2.55587e-10
2.55556e-10
2.55531e-10
2.55513e-10
2.55502e-10
2.55498e-10
2.55497e-10
2.55497e-10
2.55504e-10
2.55534e-10
2.55571e-10
2.55617e-10
2.5567e-10
2.5573e-10
2.55795e-10
2.55865e-10
2.55938e-10
2.56012e-10
2.56086e-10
2.56159e-10
2.56229e-10
2.56295e-10
2.56357e-10
2.56413e-10
2.56463e-10
2.56507e-10
2.56544e-10
2.56575e-10
2.566e-10
2.56619e-10
2.56633e-10
2.56641e-10
2.56646e-10
2.56647e-10
2.56647e-10
2.56645e-10
2.56638e-10
2.56627e-10
2.56615e-10
2.56602e-10
2.5659e-10
2.56577e-10
2.56565e-10
2.56553e-10
2.56542e-10
2.56532e-10
2.56523e-10
2.56515e-10
2.56508e-10
2.56502e-10
2.56497e-10
2.56493e-10
2.5649e-10
2.56488e-10
2.56487e-10
2.56487e-10
2.56487e-10
2.56487e-10
2.56487e-10
2.56489e-10
2.56492e-10
2.56495e-10
2.56498e-10
2.56502e-10
2.56506e-10
2.5651e-10
2.56514e-10
2.56518e-10
2.56522e-10
2.56527e-10
2.56531e-10
2.56536e-10
2.56541e-10
2.56545e-10
2.5655e-10
2.56555e-10
2.56559e-10
2.56564e-10
2.56568e-10
2.56573e-10
2.56577e-10
2.56581e-10
2.56586e-10
2.5659e-10
2.56594e-10
2.56597e-10
2.56601e-10
2.56605e-10
2.56608e-10
2.56611e-10
2.56615e-10
2.56618e-10
2.56621e-10
2.56623e-10
2.56626e-10
2.56628e-10
2.5663e-10
2.56632e-10
2.56634e-10
2.56635e-10
2.56636e-10
2.56637e-10
2.56638e-10
2.56638e-10
2.56639e-10
2.56638e-10
2.56638e-10
2.56638e-10
2.56637e-10
2.56635e-10
2.56633e-10
2.56631e-10
2.56629e-10
2.56626e-10
2.56624e-10
2.56621e-10
2.56617e-10
2.56614e-10
2.56611e-10
2.56607e-10
2.56604e-10
2.566e-10
2.56596e-10
2.56593e-10
2.56589e-10
2.56586e-10
2.56583e-10
2.56579e-10
2.56577e-10
2.56574e-10
2.56571e-10
2.56569e-10
2.56567e-10
2.56566e-10
2.56564e-10
2.56563e-10
2.56563e-10
2.56562e-10
2.56562e-10
2.56562e-10
2.56563e-10
2.56564e-10
2.56565e-10
2.56567e-10
2.5657e-10
2.56572e-10
2.56575e-10
2.56578e-10
2.56581e-10
2.56584e-10
2.56588e-10
2.56591e-10
2.56595e-10
2.56598e-10
2.56602e-10
2.56605e-10
2.56607e-10
2.56609e-10
2.56611e-10
2.56613e-10
2.56615e-10
2.56616e-10
2.56617e-10
2.56617e-10
2.56617e-10
2.56617e-10
2.56617e-10
2.56615e-10
2.56613e-10
2.5661e-10
2.56607e-10
2.56603e-10
2.56599e-10
2.56595e-10
2.5659e-10
2.56585e-10
2.56578e-10
2.56571e-10
2.56563e-10
2.56554e-10
2.56544e-10
2.56533e-10
2.56521e-10
2.56507e-10
2.56493e-10
2.56477e-10
2.5646e-10
2.56441e-10
2.56421e-10
2.56399e-10
2.56376e-10
2.56351e-10
2.56324e-10
2.56297e-10
2.56267e-10
2.56237e-10
2.56205e-10
2.56172e-10
2.56138e-10
2.56104e-10
2.56069e-10
2.56033e-10
2.55998e-10
2.55964e-10
2.55931e-10
2.55899e-10
2.55869e-10
2.55841e-10
2.55816e-10
2.55795e-10
2.55778e-10
2.55766e-10
2.5576e-10
2.55758e-10
2.55757e-10
2.55759e-10
2.55766e-10
2.55793e-10
2.55826e-10
2.55866e-10
2.55913e-10
2.55967e-10
2.56028e-10
2.56095e-10
2.56166e-10
2.56241e-10
2.56318e-10
2.56396e-10
2.56474e-10
2.56551e-10
2.56625e-10
2.56696e-10
2.56762e-10
2.56824e-10
2.56879e-10
2.56929e-10
2.56972e-10
2.57009e-10
2.5704e-10
2.57064e-10
2.57083e-10
2.57096e-10
2.57105e-10
2.57108e-10
2.57109e-10
2.5711e-10
2.57108e-10
2.57097e-10
2.57084e-10
2.57069e-10
2.57053e-10
2.57036e-10
2.57019e-10
2.57001e-10
2.56984e-10
2.56967e-10
2.56951e-10
2.56935e-10
2.5692e-10
2.56906e-10
2.56893e-10
2.56881e-10
2.5687e-10
2.5686e-10
2.56852e-10
2.56844e-10
2.56837e-10
2.56831e-10
2.56826e-10
2.56822e-10
2.56819e-10
2.56816e-10
2.56814e-10
2.56812e-10
2.56811e-10
2.5681e-10
2.5681e-10
2.5681e-10
2.5681e-10
2.5681e-10
2.5681e-10
2.56811e-10
2.56811e-10
2.56813e-10
2.56814e-10
2.56815e-10
2.56817e-10
2.5682e-10
2.5683e-10
2.56971e-10
2.57503e-10
2.60577e-10
2.8865e-10
2.96565e-10
2.96723e-10
2.96726e-10
2.96727e-10
2.96727e-10
2.96727e-10
2.96727e-10
2.96727e-10
2.96727e-10
2.96727e-10
2.96727e-10
2.96727e-10
2.96727e-10
2.96727e-10
2.96727e-10
2.96727e-10
2.96727e-10
2.96727e-10
2.96727e-10
2.96727e-10
2.96727e-10
2.96727e-10
2.96727e-10
2.96727e-10
2.96727e-10
2.96727e-10
2.96727e-10
2.96727e-10
2.96727e-10
2.96727e-10
2.96727e-10
2.96727e-10
2.96727e-10
2.96727e-10
2.96727e-10
2.96727e-10
2.96727e-10
2.96727e-10
2.96727e-10
2.96727e-10
2.96727e-10
2.96727e-10
2.96727e-10
2.96727e-10
2.96727e-10
2.96727e-10
2.96727e-10
2.96727e-10
2.96727e-10
2.96727e-10
2.96727e-10
2.96727e-10
2.96727e-10
2.96727e-10
2.96727e-10
2.96727e-10
2.96727e-10
2.96727e-10
2.96727e-10
2.96727e-10
2.96727e-10
2.96727e-10
2.96727e-10
2.96727e-10
2.96727e-10
2.96727e-10
2.96727e-10
2.96727e-10
2.96727e-10
2.96727e-10
2.96727e-10
2.96727e-10
2.96727e-10
2.96727e-10
2.96727e-10
2.96727e-10
2.96727e-10
2.96727e-10
2.96727e-10
2.96727e-10
2.96727e-10
2.96727e-10
2.96727e-10
2.96727e-10
2.96727e-10
2.96727e-10
2.96727e-10
2.96727e-10
2.96727e-10
2.96727e-10
2.96727e-10
2.96727e-10
2.96727e-10
2.96727e-10
2.96727e-10
2.96727e-10
2.96727e-10
2.96727e-10
2.96727e-10
2.96727e-10
2.96727e-10
2.96727e-10
2.96727e-10
2.96727e-10
2.96727e-10
2.96727e-10
2.96727e-10
2.96727e-10
2.96727e-10
2.96727e-10
2.96727e-10
2.96727e-10
2.96727e-10
2.96727e-10
2.96727e-10
2.96727e-10
2.96727e-10
2.96727e-10
2.96727e-10
2.96727e-10
2.96727e-10
2.96727e-10
2.96727e-10
2.96727e-10
2.96727e-10
2.96727e-10
2.96727e-10
2.96727e-10
2.96727e-10
2.96727e-10
2.96727e-10
2.96727e-10
2.96727e-10
2.96727e-10
2.96727e-10
2.96727e-10
2.96727e-10
2.96727e-10
2.96727e-10
2.96727e-10
2.96727e-10
2.96727e-10
2.96727e-10
2.96727e-10
2.96727e-10
2.96727e-10
2.96727e-10
2.96727e-10
2.96727e-10
2.96727e-10
2.96727e-10
2.96727e-10
2.96727e-10
2.96727e-10
2.96727e-10
2.96727e-10
2.96727e-10
2.96727e-10
2.96727e-10
2.96727e-10
2.96727e-10
2.96727e-10
2.96727e-10
2.96727e-10
2.96727e-10
2.96727e-10
2.96727e-10
2.96727e-10
2.96727e-10
2.96727e-10
2.96727e-10
2.96727e-10
2.96727e-10
2.96727e-10
2.96727e-10
2.96727e-10
2.96727e-10
2.96727e-10
2.96727e-10
2.96727e-10
2.96727e-10
2.96727e-10
2.96727e-10
2.96727e-10
2.96727e-10
2.96727e-10
2.96727e-10
2.96727e-10
2.96727e-10
2.96727e-10
2.96727e-10
2.96727e-10
2.96727e-10
2.96727e-10
2.96727e-10
2.96727e-10
2.96727e-10
2.96727e-10
2.96727e-10
2.96727e-10
2.96727e-10
2.96727e-10
2.96727e-10
2.96727e-10
2.96727e-10
2.96727e-10
2.96727e-10
2.96727e-10
2.96727e-10
2.96727e-10
2.96727e-10
2.96727e-10
2.96727e-10
2.96727e-10
2.96727e-10
2.96727e-10
2.96727e-10
2.96727e-10
2.96727e-10
2.96727e-10
2.96727e-10
2.96727e-10
2.96727e-10
2.96727e-10
2.96727e-10
2.96727e-10
2.96727e-10
2.96727e-10
2.96727e-10
2.96727e-10
2.96727e-10
2.96727e-10
2.96727e-10
2.96727e-10
2.96727e-10
2.96727e-10
2.96727e-10
2.96727e-10
2.96727e-10
2.96727e-10
2.96727e-10
2.96727e-10
2.96727e-10
2.96727e-10
2.96727e-10
2.96727e-10
2.96727e-10
2.96727e-10
2.96727e-10
2.96727e-10
2.96727e-10
2.96727e-10
2.96727e-10
2.96727e-10
2.96727e-10
2.96727e-10
2.96727e-10
2.96727e-10
2.96727e-10
2.96727e-10
2.96727e-10
2.96727e-10
2.96727e-10
2.96727e-10
2.96727e-10
2.96727e-10
2.96727e-10
2.96727e-10
2.96727e-10
2.96727e-10
2.96727e-10
2.96727e-10
2.96727e-10
2.96727e-10
2.96727e-10
2.96727e-10
2.96727e-10
2.96727e-10
2.96727e-10
2.96727e-10
2.96727e-10
2.96727e-10
2.96727e-10
2.96727e-10
2.96727e-10
2.96727e-10
2.96727e-10
2.96727e-10
2.96727e-10
2.96727e-10
2.96727e-10
2.96727e-10
2.96727e-10
2.96727e-10
2.96727e-10
2.96727e-10
2.96727e-10
2.96727e-10
2.96727e-10
2.96727e-10
2.96727e-10
2.96727e-10
2.96727e-10
2.96727e-10
2.96727e-10
2.96727e-10
2.96727e-10
2.96727e-10
2.96727e-10
2.96727e-10
2.96727e-10
2.96727e-10
2.96727e-10
2.96727e-10
2.96727e-10
2.96727e-10
2.96727e-10
2.96727e-10
2.96727e-10
2.96727e-10
2.96727e-10
2.96727e-10
2.96727e-10
2.96727e-10
2.96727e-10
2.96727e-10
2.96727e-10
2.96727e-10
2.96727e-10
2.96727e-10
2.96727e-10
2.96727e-10
2.96727e-10
2.96727e-10
2.96727e-10
2.96727e-10
2.96727e-10
2.96727e-10
2.96727e-10
2.96727e-10
2.96727e-10
2.96727e-10
2.96727e-10
2.96727e-10
2.96727e-10
2.96727e-10
2.96727e-10
2.96727e-10
2.96727e-10
2.96727e-10
2.96727e-10
2.96727e-10
2.96727e-10
2.96727e-10
2.96727e-10
2.96727e-10
2.96727e-10
2.96727e-10
2.96727e-10
2.96727e-10
2.96727e-10
2.96727e-10
2.96727e-10
2.96727e-10
2.96727e-10
2.96727e-10
2.96727e-10
2.96727e-10
2.96727e-10
2.96727e-10
2.96727e-10
2.96727e-10
2.96727e-10
2.96727e-10
2.96727e-10
2.96727e-10
2.96727e-10
2.96727e-10
2.96727e-10
2.96727e-10
2.96727e-10
2.96727e-10
2.96727e-10
2.96727e-10
2.96727e-10
2.96727e-10
2.96727e-10
2.96727e-10
2.96727e-10
2.96727e-10
2.96727e-10
2.96727e-10
2.96727e-10
2.96727e-10
2.96727e-10
2.96727e-10
2.96727e-10
2.96727e-10
2.96727e-10
2.96727e-10
2.96727e-10
2.96727e-10
2.96727e-10
2.96727e-10
2.96727e-10
2.96727e-10
2.96727e-10
2.96727e-10
2.96727e-10
2.96727e-10
2.96727e-10
2.96727e-10
2.96727e-10
2.96727e-10
2.96727e-10
2.96727e-10
2.96727e-10
2.96727e-10
2.96727e-10
2.96727e-10
2.96727e-10
2.96727e-10
2.96727e-10
2.96727e-10
2.96727e-10
2.96727e-10
2.96727e-10
2.96727e-10
2.96727e-10
2.96727e-10
2.96727e-10
2.96727e-10
2.96727e-10
2.96727e-10
2.96727e-10
2.96727e-10
2.96727e-10
2.96727e-10
2.96727e-10
2.96727e-10
2.96727e-10
2.96727e-10
2.96727e-10
2.96727e-10
2.96727e-10
2.96727e-10
2.96727e-10
2.96727e-10
2.96727e-10
2.96727e-10
2.96727e-10
2.96727e-10
2.96727e-10
2.96727e-10
2.96727e-10
2.96727e-10
2.96727e-10
2.96727e-10
2.96727e-10
)
;

boundaryField
{
    inlet
    {
        type            calculated;
        value           uniform -1.13622e-09;
    }
    outlet
    {
        type            calculated;
        value           uniform 2.96727e-10;
    }
    emptyWalls
    {
        type            empty;
        value           nonuniform List<scalar> 0();
    }
}


// ************************************************************************* //
