/*--------------------------------*- C++ -*----------------------------------*\
  =========                 |
  \\      /  F ield         | OpenFOAM: The Open Source CFD Toolbox
   \\    /   O peration     | Website:  https://openfoam.org
    \\  /    A nd           | Version:  9
     \\/     M anipulation  |
\*---------------------------------------------------------------------------*/
FoamFile
{
    format      ascii;
    class       volVectorField;
    location    "3250";
    object      Uc;
}
// * * * * * * * * * * * * * * * * * * * * * * * * * * * * * * * * * * * * * //

dimensions      [0 0 0 0 0 0 0];

internalField   nonuniform List<vector> 
1000
(
(5.44784e-10 0 0)
(2.94933e-09 0 0)
(1.09047e-08 0 0)
(4.27685e-08 0 0)
(1.29776e-07 0 0)
(2.04589e-07 0 0)
(2.23905e-07 0 0)
(2.33501e-07 0 0)
(2.40522e-07 0 0)
(2.47007e-07 0 0)
(2.55636e-07 0 0)
(2.70039e-07 0 0)
(2.90753e-07 0 0)
(3.15622e-07 0 0)
(3.43078e-07 0 0)
(3.72136e-07 0 0)
(4.02288e-07 0 0)
(4.33252e-07 0 0)
(4.64862e-07 0 0)
(4.97009e-07 0 0)
(5.29619e-07 0 0)
(5.62637e-07 0 0)
(5.96024e-07 0 0)
(6.29749e-07 0 0)
(6.63784e-07 0 0)
(6.98109e-07 0 0)
(7.32708e-07 0 0)
(7.67564e-07 0 0)
(8.02664e-07 0 0)
(8.38e-07 0 0)
(8.7357e-07 0 0)
(9.0937e-07 0 0)
(9.45397e-07 0 0)
(9.81647e-07 0 0)
(1.01811e-06 0 0)
(1.05479e-06 0 0)
(1.09165e-06 0 0)
(1.1287e-06 0 0)
(1.16591e-06 0 0)
(1.20329e-06 0 0)
(1.24081e-06 0 0)
(1.27849e-06 0 0)
(1.31631e-06 0 0)
(1.35429e-06 0 0)
(1.39243e-06 0 0)
(1.43074e-06 0 0)
(1.46924e-06 0 0)
(1.50793e-06 0 0)
(1.54683e-06 0 0)
(1.58595e-06 0 0)
(1.62533e-06 0 0)
(1.66496e-06 0 0)
(1.70488e-06 0 0)
(1.74511e-06 0 0)
(1.78566e-06 0 0)
(1.82655e-06 0 0)
(1.86781e-06 0 0)
(1.90943e-06 0 0)
(1.95142e-06 0 0)
(1.99376e-06 0 0)
(2.03645e-06 0 0)
(2.07945e-06 0 0)
(2.12274e-06 0 0)
(2.16628e-06 0 0)
(2.21004e-06 0 0)
(2.254e-06 0 0)
(2.29814e-06 0 0)
(2.34243e-06 0 0)
(2.38687e-06 0 0)
(2.43147e-06 0 0)
(2.47622e-06 0 0)
(2.52116e-06 0 0)
(2.56629e-06 0 0)
(2.61163e-06 0 0)
(2.65723e-06 0 0)
(2.70309e-06 0 0)
(2.74925e-06 0 0)
(2.79572e-06 0 0)
(2.84254e-06 0 0)
(2.88972e-06 0 0)
(2.93727e-06 0 0)
(2.98522e-06 0 0)
(3.03357e-06 0 0)
(3.08233e-06 0 0)
(3.13153e-06 0 0)
(3.18116e-06 0 0)
(3.23123e-06 0 0)
(3.28176e-06 0 0)
(3.33275e-06 0 0)
(3.38422e-06 0 0)
(3.43618e-06 0 0)
(3.48865e-06 0 0)
(3.54162e-06 0 0)
(3.59512e-06 0 0)
(3.64916e-06 0 0)
(3.70376e-06 0 0)
(3.75894e-06 0 0)
(3.81473e-06 0 0)
(3.87114e-06 0 0)
(3.92819e-06 0 0)
(3.98592e-06 0 0)
(4.04435e-06 0 0)
(4.10351e-06 0 0)
(4.16343e-06 0 0)
(4.22414e-06 0 0)
(4.28567e-06 0 0)
(4.34805e-06 0 0)
(4.41131e-06 0 0)
(4.47548e-06 0 0)
(4.54059e-06 0 0)
(4.60666e-06 0 0)
(4.6737e-06 0 0)
(4.74172e-06 0 0)
(4.81068e-06 0 0)
(4.88054e-06 0 0)
(4.95118e-06 0 0)
(5.02243e-06 0 0)
(5.09405e-06 0 0)
(5.16577e-06 0 0)
(5.23733e-06 0 0)
(5.3086e-06 0 0)
(5.37992e-06 0 0)
(5.45255e-06 0 0)
(5.52966e-06 0 0)
(5.61779e-06 0 0)
(5.72899e-06 0 0)
(5.8834e-06 0 0)
(6.11045e-06 0 0)
(6.44446e-06 0 0)
(6.90781e-06 0 0)
(7.48284e-06 0 0)
(8.09617e-06 0 0)
(8.64713e-06 0 0)
(9.06557e-06 0 0)
(9.34119e-06 0 0)
(9.50463e-06 0 0)
(9.59513e-06 0 0)
(9.64322e-06 0 0)
(9.66819e-06 0 0)
(9.68101e-06 0 0)
(9.68756e-06 0 0)
(9.69093e-06 0 0)
(9.69267e-06 0 0)
(9.69361e-06 0 0)
(9.69415e-06 0 0)
(9.69449e-06 0 0)
(9.69474e-06 0 0)
(9.69494e-06 0 0)
(9.69512e-06 0 0)
(9.6953e-06 0 0)
(9.69547e-06 0 0)
(9.69565e-06 0 0)
(9.69582e-06 0 0)
(9.696e-06 0 0)
(9.69618e-06 0 0)
(9.69636e-06 0 0)
(9.69654e-06 0 0)
(9.69671e-06 0 0)
(9.69688e-06 0 0)
(9.69704e-06 0 0)
(9.6972e-06 0 0)
(9.69736e-06 0 0)
(9.69751e-06 0 0)
(9.69765e-06 0 0)
(9.69778e-06 0 0)
(9.69791e-06 0 0)
(9.69802e-06 0 0)
(9.69812e-06 0 0)
(9.69821e-06 0 0)
(9.69829e-06 0 0)
(9.69836e-06 0 0)
(9.69841e-06 0 0)
(9.69844e-06 0 0)
(9.69845e-06 0 0)
(9.69846e-06 0 0)
(9.69845e-06 0 0)
(9.69844e-06 0 0)
(9.6984e-06 0 0)
(9.69834e-06 0 0)
(9.69826e-06 0 0)
(9.69817e-06 0 0)
(9.69806e-06 0 0)
(9.69794e-06 0 0)
(9.69781e-06 0 0)
(9.69767e-06 0 0)
(9.69752e-06 0 0)
(9.69736e-06 0 0)
(9.6972e-06 0 0)
(9.69702e-06 0 0)
(9.69685e-06 0 0)
(9.69666e-06 0 0)
(9.69648e-06 0 0)
(9.6963e-06 0 0)
(9.69611e-06 0 0)
(9.69593e-06 0 0)
(9.69575e-06 0 0)
(9.69557e-06 0 0)
(9.69539e-06 0 0)
(9.69522e-06 0 0)
(9.69505e-06 0 0)
(9.69488e-06 0 0)
(9.69472e-06 0 0)
(9.69457e-06 0 0)
(9.69441e-06 0 0)
(9.69427e-06 0 0)
(9.69413e-06 0 0)
(9.69399e-06 0 0)
(9.69386e-06 0 0)
(9.69373e-06 0 0)
(9.69361e-06 0 0)
(9.69349e-06 0 0)
(9.69337e-06 0 0)
(9.69326e-06 0 0)
(9.69315e-06 0 0)
(9.69303e-06 0 0)
(9.69291e-06 0 0)
(9.69278e-06 0 0)
(9.69263e-06 0 0)
(9.69246e-06 0 0)
(9.69226e-06 0 0)
(9.69203e-06 0 0)
(9.69175e-06 0 0)
(9.69142e-06 0 0)
(9.69103e-06 0 0)
(9.69057e-06 0 0)
(9.69004e-06 0 0)
(9.68942e-06 0 0)
(9.68871e-06 0 0)
(9.6879e-06 0 0)
(9.68699e-06 0 0)
(9.68598e-06 0 0)
(9.68486e-06 0 0)
(9.68364e-06 0 0)
(9.68232e-06 0 0)
(9.6809e-06 0 0)
(9.67939e-06 0 0)
(9.6778e-06 0 0)
(9.67614e-06 0 0)
(9.67441e-06 0 0)
(9.67265e-06 0 0)
(9.67085e-06 0 0)
(9.66905e-06 0 0)
(9.66726e-06 0 0)
(9.6655e-06 0 0)
(9.66379e-06 0 0)
(9.66217e-06 0 0)
(9.66067e-06 0 0)
(9.6593e-06 0 0)
(9.6581e-06 0 0)
(9.6571e-06 0 0)
(9.65633e-06 0 0)
(9.65583e-06 0 0)
(9.65557e-06 0 0)
(9.65549e-06 0 0)
(9.65552e-06 0 0)
(9.65569e-06 0 0)
(9.65639e-06 0 0)
(9.65766e-06 0 0)
(9.65922e-06 0 0)
(9.66108e-06 0 0)
(9.6632e-06 0 0)
(9.66554e-06 0 0)
(9.66806e-06 0 0)
(9.67072e-06 0 0)
(9.67345e-06 0 0)
(9.67621e-06 0 0)
(9.67895e-06 0 0)
(9.68161e-06 0 0)
(9.68415e-06 0 0)
(9.68653e-06 0 0)
(9.68873e-06 0 0)
(9.69071e-06 0 0)
(9.69246e-06 0 0)
(9.69398e-06 0 0)
(9.69525e-06 0 0)
(9.6963e-06 0 0)
(9.69711e-06 0 0)
(9.69772e-06 0 0)
(9.69813e-06 0 0)
(9.69837e-06 0 0)
(9.69847e-06 0 0)
(9.69849e-06 0 0)
(9.69847e-06 0 0)
(9.6983e-06 0 0)
(9.69796e-06 0 0)
(9.69754e-06 0 0)
(9.69709e-06 0 0)
(9.69662e-06 0 0)
(9.69614e-06 0 0)
(9.69568e-06 0 0)
(9.69522e-06 0 0)
(9.6948e-06 0 0)
(9.6944e-06 0 0)
(9.69404e-06 0 0)
(9.69371e-06 0 0)
(9.69343e-06 0 0)
(9.69318e-06 0 0)
(9.69297e-06 0 0)
(9.6928e-06 0 0)
(9.69266e-06 0 0)
(9.69256e-06 0 0)
(9.69249e-06 0 0)
(9.69245e-06 0 0)
(9.69244e-06 0 0)
(9.69243e-06 0 0)
(9.69244e-06 0 0)
(9.69248e-06 0 0)
(9.69255e-06 0 0)
(9.69264e-06 0 0)
(9.69274e-06 0 0)
(9.69286e-06 0 0)
(9.69298e-06 0 0)
(9.69311e-06 0 0)
(9.69325e-06 0 0)
(9.6934e-06 0 0)
(9.69355e-06 0 0)
(9.6937e-06 0 0)
(9.69386e-06 0 0)
(9.69402e-06 0 0)
(9.69418e-06 0 0)
(9.69435e-06 0 0)
(9.69451e-06 0 0)
(9.69467e-06 0 0)
(9.69484e-06 0 0)
(9.695e-06 0 0)
(9.69516e-06 0 0)
(9.69532e-06 0 0)
(9.69548e-06 0 0)
(9.69563e-06 0 0)
(9.69579e-06 0 0)
(9.69593e-06 0 0)
(9.69608e-06 0 0)
(9.69622e-06 0 0)
(9.69636e-06 0 0)
(9.6965e-06 0 0)
(9.69662e-06 0 0)
(9.69675e-06 0 0)
(9.69687e-06 0 0)
(9.69698e-06 0 0)
(9.69709e-06 0 0)
(9.69719e-06 0 0)
(9.69729e-06 0 0)
(9.69738e-06 0 0)
(9.69746e-06 0 0)
(9.69754e-06 0 0)
(9.69761e-06 0 0)
(9.69767e-06 0 0)
(9.69772e-06 0 0)
(9.69776e-06 0 0)
(9.69778e-06 0 0)
(9.6978e-06 0 0)
(9.69781e-06 0 0)
(9.69781e-06 0 0)
(9.69781e-06 0 0)
(9.6978e-06 0 0)
(9.69777e-06 0 0)
(9.69772e-06 0 0)
(9.69766e-06 0 0)
(9.6976e-06 0 0)
(9.69752e-06 0 0)
(9.69743e-06 0 0)
(9.69733e-06 0 0)
(9.69722e-06 0 0)
(9.69711e-06 0 0)
(9.69699e-06 0 0)
(9.69687e-06 0 0)
(9.69674e-06 0 0)
(9.69661e-06 0 0)
(9.69648e-06 0 0)
(9.69635e-06 0 0)
(9.69623e-06 0 0)
(9.6961e-06 0 0)
(9.69598e-06 0 0)
(9.69586e-06 0 0)
(9.69575e-06 0 0)
(9.69564e-06 0 0)
(9.69554e-06 0 0)
(9.69546e-06 0 0)
(9.69538e-06 0 0)
(9.69531e-06 0 0)
(9.69525e-06 0 0)
(9.69521e-06 0 0)
(9.69517e-06 0 0)
(9.69515e-06 0 0)
(9.69514e-06 0 0)
(9.69514e-06 0 0)
(9.69514e-06 0 0)
(9.69515e-06 0 0)
(9.69518e-06 0 0)
(9.69524e-06 0 0)
(9.6953e-06 0 0)
(9.69537e-06 0 0)
(9.69544e-06 0 0)
(9.69553e-06 0 0)
(9.69562e-06 0 0)
(9.69571e-06 0 0)
(9.69581e-06 0 0)
(9.69591e-06 0 0)
(9.696e-06 0 0)
(9.6961e-06 0 0)
(9.69619e-06 0 0)
(9.69627e-06 0 0)
(9.69636e-06 0 0)
(9.69644e-06 0 0)
(9.69651e-06 0 0)
(9.69657e-06 0 0)
(9.69663e-06 0 0)
(9.69667e-06 0 0)
(9.6967e-06 0 0)
(9.69671e-06 0 0)
(9.69672e-06 0 0)
(9.69672e-06 0 0)
(9.69672e-06 0 0)
(9.6967e-06 0 0)
(9.69666e-06 0 0)
(9.6966e-06 0 0)
(9.69652e-06 0 0)
(9.69643e-06 0 0)
(9.69632e-06 0 0)
(9.69619e-06 0 0)
(9.69603e-06 0 0)
(9.69586e-06 0 0)
(9.69566e-06 0 0)
(9.69544e-06 0 0)
(9.69519e-06 0 0)
(9.69492e-06 0 0)
(9.69461e-06 0 0)
(9.69427e-06 0 0)
(9.69389e-06 0 0)
(9.69347e-06 0 0)
(9.69301e-06 0 0)
(9.6925e-06 0 0)
(9.69195e-06 0 0)
(9.69134e-06 0 0)
(9.69068e-06 0 0)
(9.68996e-06 0 0)
(9.6892e-06 0 0)
(9.68837e-06 0 0)
(9.68748e-06 0 0)
(9.68654e-06 0 0)
(9.68554e-06 0 0)
(9.68448e-06 0 0)
(9.68337e-06 0 0)
(9.68222e-06 0 0)
(9.68102e-06 0 0)
(9.67979e-06 0 0)
(9.67853e-06 0 0)
(9.67724e-06 0 0)
(9.67595e-06 0 0)
(9.67466e-06 0 0)
(9.67338e-06 0 0)
(9.67213e-06 0 0)
(9.67092e-06 0 0)
(9.66978e-06 0 0)
(9.66871e-06 0 0)
(9.66774e-06 0 0)
(9.6669e-06 0 0)
(9.6662e-06 0 0)
(9.66567e-06 0 0)
(9.66533e-06 0 0)
(9.66517e-06 0 0)
(9.66513e-06 0 0)
(9.66515e-06 0 0)
(9.66532e-06 0 0)
(9.66597e-06 0 0)
(9.66707e-06 0 0)
(9.66841e-06 0 0)
(9.67003e-06 0 0)
(9.67192e-06 0 0)
(9.67406e-06 0 0)
(9.67642e-06 0 0)
(9.67898e-06 0 0)
(9.68168e-06 0 0)
(9.68449e-06 0 0)
(9.68737e-06 0 0)
(9.69027e-06 0 0)
(9.69315e-06 0 0)
(9.69595e-06 0 0)
(9.69864e-06 0 0)
(9.70118e-06 0 0)
(9.70355e-06 0 0)
(9.70572e-06 0 0)
(9.70767e-06 0 0)
(9.70939e-06 0 0)
(9.71088e-06 0 0)
(9.71214e-06 0 0)
(9.71317e-06 0 0)
(9.71397e-06 0 0)
(9.71457e-06 0 0)
(9.71496e-06 0 0)
(9.71518e-06 0 0)
(9.71527e-06 0 0)
(9.71529e-06 0 0)
(9.71525e-06 0 0)
(9.71502e-06 0 0)
(9.71459e-06 0 0)
(9.71407e-06 0 0)
(9.7135e-06 0 0)
(9.7129e-06 0 0)
(9.71227e-06 0 0)
(9.71162e-06 0 0)
(9.71097e-06 0 0)
(9.71034e-06 0 0)
(9.70971e-06 0 0)
(9.70912e-06 0 0)
(9.70855e-06 0 0)
(9.70801e-06 0 0)
(9.70751e-06 0 0)
(9.70705e-06 0 0)
(9.70663e-06 0 0)
(9.70625e-06 0 0)
(9.7059e-06 0 0)
(9.7056e-06 0 0)
(9.70533e-06 0 0)
(9.7051e-06 0 0)
(9.7049e-06 0 0)
(9.70472e-06 0 0)
(9.70458e-06 0 0)
(9.70447e-06 0 0)
(9.70438e-06 0 0)
(9.70431e-06 0 0)
(9.70425e-06 0 0)
(9.70422e-06 0 0)
(9.7042e-06 0 0)
(9.70418e-06 0 0)
(9.70418e-06 0 0)
(9.70419e-06 0 0)
(9.70419e-06 0 0)
(9.70421e-06 0 0)
(9.70423e-06 0 0)
(9.70427e-06 0 0)
(9.7043e-06 0 0)
(9.70434e-06 0 0)
(9.70439e-06 0 0)
(9.70449e-06 0 0)
(9.70476e-06 0 0)
(9.70757e-06 0 0)
(9.71999e-06 0 0)
(9.78672e-06 0 0)
(1.03542e-05 0 0)
(1.1003e-05 0 0)
(1.11425e-05 0 0)
(1.11438e-05 0 0)
(1.11437e-05 0 0)
(1.11437e-05 0 0)
(1.11437e-05 0 0)
(1.11437e-05 0 0)
(1.11437e-05 0 0)
(1.11437e-05 0 0)
(1.11437e-05 0 0)
(1.11437e-05 0 0)
(1.11437e-05 0 0)
(1.11437e-05 0 0)
(1.11437e-05 0 0)
(1.11437e-05 0 0)
(1.11437e-05 0 0)
(1.11437e-05 0 0)
(1.11437e-05 0 0)
(1.11437e-05 0 0)
(1.11437e-05 0 0)
(1.11437e-05 0 0)
(1.11437e-05 0 0)
(1.11437e-05 0 0)
(1.11437e-05 0 0)
(1.11437e-05 0 0)
(1.11437e-05 0 0)
(1.11437e-05 0 0)
(1.11437e-05 0 0)
(1.11437e-05 0 0)
(1.11437e-05 0 0)
(1.11437e-05 0 0)
(1.11437e-05 0 0)
(1.11437e-05 0 0)
(1.11437e-05 0 0)
(1.11437e-05 0 0)
(1.11437e-05 0 0)
(1.11437e-05 0 0)
(1.11437e-05 0 0)
(1.11437e-05 0 0)
(1.11437e-05 0 0)
(1.11437e-05 0 0)
(1.11437e-05 0 0)
(1.11437e-05 0 0)
(1.11437e-05 0 0)
(1.11437e-05 0 0)
(1.11437e-05 0 0)
(1.11437e-05 0 0)
(1.11437e-05 0 0)
(1.11437e-05 0 0)
(1.11437e-05 0 0)
(1.11437e-05 0 0)
(1.11437e-05 0 0)
(1.11437e-05 0 0)
(1.11437e-05 0 0)
(1.11437e-05 0 0)
(1.11437e-05 0 0)
(1.11437e-05 0 0)
(1.11437e-05 0 0)
(1.11437e-05 0 0)
(1.11437e-05 0 0)
(1.11437e-05 0 0)
(1.11437e-05 0 0)
(1.11437e-05 0 0)
(1.11437e-05 0 0)
(1.11437e-05 0 0)
(1.11437e-05 0 0)
(1.11437e-05 0 0)
(1.11437e-05 0 0)
(1.11437e-05 0 0)
(1.11437e-05 0 0)
(1.11437e-05 0 0)
(1.11437e-05 0 0)
(1.11437e-05 0 0)
(1.11437e-05 0 0)
(1.11437e-05 0 0)
(1.11437e-05 0 0)
(1.11437e-05 0 0)
(1.11437e-05 0 0)
(1.11437e-05 0 0)
(1.11437e-05 0 0)
(1.11437e-05 0 0)
(1.11437e-05 0 0)
(1.11437e-05 0 0)
(1.11437e-05 0 0)
(1.11437e-05 0 0)
(1.11437e-05 0 0)
(1.11437e-05 0 0)
(1.11437e-05 0 0)
(1.11437e-05 0 0)
(1.11437e-05 0 0)
(1.11437e-05 0 0)
(1.11437e-05 0 0)
(1.11437e-05 0 0)
(1.11437e-05 0 0)
(1.11437e-05 0 0)
(1.11437e-05 0 0)
(1.11437e-05 0 0)
(1.11437e-05 0 0)
(1.11437e-05 0 0)
(1.11437e-05 0 0)
(1.11437e-05 0 0)
(1.11437e-05 0 0)
(1.11437e-05 0 0)
(1.11437e-05 0 0)
(1.11437e-05 0 0)
(1.11437e-05 0 0)
(1.11437e-05 0 0)
(1.11437e-05 0 0)
(1.11437e-05 0 0)
(1.11437e-05 0 0)
(1.11437e-05 0 0)
(1.11437e-05 0 0)
(1.11437e-05 0 0)
(1.11437e-05 0 0)
(1.11437e-05 0 0)
(1.11437e-05 0 0)
(1.11437e-05 0 0)
(1.11437e-05 0 0)
(1.11437e-05 0 0)
(1.11437e-05 0 0)
(1.11437e-05 0 0)
(1.11437e-05 0 0)
(1.11437e-05 0 0)
(1.11437e-05 0 0)
(1.11437e-05 0 0)
(1.11437e-05 0 0)
(1.11437e-05 0 0)
(1.11437e-05 0 0)
(1.11437e-05 0 0)
(1.11437e-05 0 0)
(1.11437e-05 0 0)
(1.11437e-05 0 0)
(1.11437e-05 0 0)
(1.11437e-05 0 0)
(1.11437e-05 0 0)
(1.11437e-05 0 0)
(1.11437e-05 0 0)
(1.11437e-05 0 0)
(1.11437e-05 0 0)
(1.11437e-05 0 0)
(1.11437e-05 0 0)
(1.11437e-05 0 0)
(1.11437e-05 0 0)
(1.11437e-05 0 0)
(1.11437e-05 0 0)
(1.11437e-05 0 0)
(1.11437e-05 0 0)
(1.11437e-05 0 0)
(1.11437e-05 0 0)
(1.11437e-05 0 0)
(1.11437e-05 0 0)
(1.11437e-05 0 0)
(1.11437e-05 0 0)
(1.11437e-05 0 0)
(1.11437e-05 0 0)
(1.11437e-05 0 0)
(1.11437e-05 0 0)
(1.11437e-05 0 0)
(1.11437e-05 0 0)
(1.11437e-05 0 0)
(1.11437e-05 0 0)
(1.11437e-05 0 0)
(1.11437e-05 0 0)
(1.11437e-05 0 0)
(1.11437e-05 0 0)
(1.11437e-05 0 0)
(1.11437e-05 0 0)
(1.11437e-05 0 0)
(1.11437e-05 0 0)
(1.11437e-05 0 0)
(1.11437e-05 0 0)
(1.11437e-05 0 0)
(1.11437e-05 0 0)
(1.11437e-05 0 0)
(1.11437e-05 0 0)
(1.11437e-05 0 0)
(1.11437e-05 0 0)
(1.11437e-05 0 0)
(1.11437e-05 0 0)
(1.11437e-05 0 0)
(1.11437e-05 0 0)
(1.11437e-05 0 0)
(1.11437e-05 0 0)
(1.11437e-05 0 0)
(1.11437e-05 0 0)
(1.11437e-05 0 0)
(1.11437e-05 0 0)
(1.11437e-05 0 0)
(1.11437e-05 0 0)
(1.11437e-05 0 0)
(1.11437e-05 0 0)
(1.11437e-05 0 0)
(1.11437e-05 0 0)
(1.11437e-05 0 0)
(1.11437e-05 0 0)
(1.11437e-05 0 0)
(1.11437e-05 0 0)
(1.11437e-05 0 0)
(1.11437e-05 0 0)
(1.11437e-05 0 0)
(1.11437e-05 0 0)
(1.11437e-05 0 0)
(1.11437e-05 0 0)
(1.11437e-05 0 0)
(1.11437e-05 0 0)
(1.11437e-05 0 0)
(1.11437e-05 0 0)
(1.11437e-05 0 0)
(1.11437e-05 0 0)
(1.11437e-05 0 0)
(1.11437e-05 0 0)
(1.11437e-05 0 0)
(1.11437e-05 0 0)
(1.11437e-05 0 0)
(1.11437e-05 0 0)
(1.11437e-05 0 0)
(1.11437e-05 0 0)
(1.11437e-05 0 0)
(1.11437e-05 0 0)
(1.11437e-05 0 0)
(1.11437e-05 0 0)
(1.11437e-05 0 0)
(1.11437e-05 0 0)
(1.11437e-05 0 0)
(1.11437e-05 0 0)
(1.11437e-05 0 0)
(1.11437e-05 0 0)
(1.11437e-05 0 0)
(1.11437e-05 0 0)
(1.11437e-05 0 0)
(1.11437e-05 0 0)
(1.11437e-05 0 0)
(1.11437e-05 0 0)
(1.11437e-05 0 0)
(1.11437e-05 0 0)
(1.11437e-05 0 0)
(1.11437e-05 0 0)
(1.11437e-05 0 0)
(1.11437e-05 0 0)
(1.11437e-05 0 0)
(1.11437e-05 0 0)
(1.11437e-05 0 0)
(1.11437e-05 0 0)
(1.11437e-05 0 0)
(1.11437e-05 0 0)
(1.11437e-05 0 0)
(1.11437e-05 0 0)
(1.11437e-05 0 0)
(1.11437e-05 0 0)
(1.11437e-05 0 0)
(1.11437e-05 0 0)
(1.11437e-05 0 0)
(1.11437e-05 0 0)
(1.11437e-05 0 0)
(1.11437e-05 0 0)
(1.11437e-05 0 0)
(1.11437e-05 0 0)
(1.11437e-05 0 0)
(1.11437e-05 0 0)
(1.11437e-05 0 0)
(1.11437e-05 0 0)
(1.11437e-05 0 0)
(1.11437e-05 0 0)
(1.11437e-05 0 0)
(1.11437e-05 0 0)
(1.11437e-05 0 0)
(1.11437e-05 0 0)
(1.11437e-05 0 0)
(1.11437e-05 0 0)
(1.11437e-05 0 0)
(1.11437e-05 0 0)
(1.11437e-05 0 0)
(1.11437e-05 0 0)
(1.11437e-05 0 0)
(1.11437e-05 0 0)
(1.11437e-05 0 0)
(1.11437e-05 0 0)
(1.11437e-05 0 0)
(1.11437e-05 0 0)
(1.11437e-05 0 0)
(1.11437e-05 0 0)
(1.11437e-05 0 0)
(1.11437e-05 0 0)
(1.11437e-05 0 0)
(1.11437e-05 0 0)
(1.11437e-05 0 0)
(1.11437e-05 0 0)
(1.11437e-05 0 0)
(1.11437e-05 0 0)
(1.11437e-05 0 0)
(1.11437e-05 0 0)
(1.11437e-05 0 0)
(1.11437e-05 0 0)
(1.11437e-05 0 0)
(1.11437e-05 0 0)
(1.11437e-05 0 0)
(1.11437e-05 0 0)
(1.11437e-05 0 0)
(1.11437e-05 0 0)
(1.11437e-05 0 0)
(1.11437e-05 0 0)
(1.11437e-05 0 0)
(1.11437e-05 0 0)
(1.11437e-05 0 0)
(1.11437e-05 0 0)
(1.11437e-05 0 0)
(1.11437e-05 0 0)
(1.11437e-05 0 0)
(1.11437e-05 0 0)
(1.11437e-05 0 0)
(1.11437e-05 0 0)
(1.11437e-05 0 0)
(1.11437e-05 0 0)
(1.11437e-05 0 0)
(1.11437e-05 0 0)
(1.11437e-05 0 0)
(1.11437e-05 0 0)
(1.11437e-05 0 0)
(1.11437e-05 0 0)
(1.11437e-05 0 0)
(1.11437e-05 0 0)
(1.11437e-05 0 0)
(1.11437e-05 0 0)
(1.11437e-05 0 0)
(1.11437e-05 0 0)
(1.11437e-05 0 0)
(1.11437e-05 0 0)
(1.11437e-05 0 0)
(1.11437e-05 0 0)
(1.11437e-05 0 0)
(1.11437e-05 0 0)
(1.11437e-05 0 0)
(1.11437e-05 0 0)
(1.11437e-05 0 0)
(1.11437e-05 0 0)
(1.11437e-05 0 0)
(1.11437e-05 0 0)
(1.11437e-05 0 0)
(1.11437e-05 0 0)
(1.11437e-05 0 0)
(1.11437e-05 0 0)
(1.11437e-05 0 0)
(1.11437e-05 0 0)
(1.11437e-05 0 0)
(1.11437e-05 0 0)
(1.11437e-05 0 0)
(1.11437e-05 0 0)
(1.11437e-05 0 0)
(1.11437e-05 0 0)
(1.11437e-05 0 0)
(1.11437e-05 0 0)
(1.11437e-05 0 0)
(1.11437e-05 0 0)
(1.11437e-05 0 0)
(1.11437e-05 0 0)
(1.11437e-05 0 0)
(1.11437e-05 0 0)
(1.11437e-05 0 0)
(1.11437e-05 0 0)
(1.11437e-05 0 0)
(1.11437e-05 0 0)
(1.11437e-05 0 0)
(1.11437e-05 0 0)
(1.11437e-05 0 0)
(1.11437e-05 0 0)
(1.11437e-05 0 0)
(1.11437e-05 0 0)
(1.11437e-05 0 0)
(1.11437e-05 0 0)
(1.11437e-05 0 0)
(1.11437e-05 0 0)
(1.11437e-05 0 0)
(1.11437e-05 0 0)
(1.11437e-05 0 0)
(1.11437e-05 0 0)
(1.11437e-05 0 0)
(1.11437e-05 0 0)
(1.11437e-05 0 0)
(1.11437e-05 0 0)
(1.11437e-05 0 0)
(1.11437e-05 0 0)
(1.11437e-05 0 0)
(1.11437e-05 0 0)
(1.11437e-05 0 0)
(1.11437e-05 0 0)
(1.11437e-05 0 0)
(1.11437e-05 0 0)
(1.11437e-05 0 0)
(1.11437e-05 0 0)
(1.11437e-05 0 0)
(1.11437e-05 0 0)
(1.11437e-05 0 0)
(1.11437e-05 0 0)
(1.11437e-05 0 0)
(1.11437e-05 0 0)
(1.11437e-05 0 0)
(1.11437e-05 0 0)
(1.11437e-05 0 0)
(1.11437e-05 0 0)
(1.11437e-05 0 0)
(1.11437e-05 0 0)
(1.11437e-05 0 0)
(1.11437e-05 0 0)
(1.11437e-05 0 0)
(1.11437e-05 0 0)
(1.11437e-05 0 0)
(1.11437e-05 0 0)
(1.11437e-05 0 0)
(1.11437e-05 0 0)
(1.11437e-05 0 0)
(1.11437e-05 0 0)
(1.11437e-05 0 0)
(1.11437e-05 0 0)
(1.11437e-05 0 0)
(1.11437e-05 0 0)
(1.11437e-05 0 0)
(1.11437e-05 0 0)
(1.11437e-05 0 0)
(1.11437e-05 0 0)
(1.11437e-05 0 0)
(1.11437e-05 0 0)
(1.11437e-05 0 0)
(1.11437e-05 0 0)
(1.11437e-05 0 0)
(1.11437e-05 0 0)
(1.11437e-05 0 0)
(1.11437e-05 0 0)
(1.11437e-05 0 0)
(1.11437e-05 0 0)
(1.11437e-05 0 0)
(1.11437e-05 0 0)
(1.11437e-05 0 0)
(1.11437e-05 0 0)
(1.11437e-05 0 0)
(1.11437e-05 0 0)
(1.11437e-05 0 0)
(1.11437e-05 0 0)
(1.11437e-05 0 0)
(1.11437e-05 0 0)
(1.11437e-05 0 0)
(1.11437e-05 0 0)
(1.11437e-05 0 0)
(1.11437e-05 0 0)
(1.11437e-05 0 0)
(1.11437e-05 0 0)
(1.11437e-05 0 0)
(1.11437e-05 0 0)
(1.11437e-05 0 0)
(1.11437e-05 0 0)
(1.11437e-05 0 0)
(1.11437e-05 0 0)
(1.11437e-05 0 0)
(1.11437e-05 0 0)
(1.11437e-05 0 0)
(1.11437e-05 0 0)
(1.11437e-05 0 0)
(1.11437e-05 0 0)
(1.11437e-05 0 0)
(1.11437e-05 0 0)
(1.11437e-05 0 0)
)
;

boundaryField
{
    inlet
    {
        type            fixedValue;
        value           uniform (0 0 0);
    }
    outlet
    {
        type            zeroGradient;
    }
    emptyWalls
    {
        type            empty;
    }
}


// ************************************************************************* //
