/*--------------------------------*- C++ -*----------------------------------*\
  =========                 |
  \\      /  F ield         | OpenFOAM: The Open Source CFD Toolbox
   \\    /   O peration     | Website:  https://openfoam.org
    \\  /    A nd           | Version:  9
     \\/     M anipulation  |
\*---------------------------------------------------------------------------*/
FoamFile
{
    format      ascii;
    class       volScalarField;
    location    "19850";
    object      krc;
}
// * * * * * * * * * * * * * * * * * * * * * * * * * * * * * * * * * * * * * //

dimensions      [0 0 0 0 0 0 0];

internalField   nonuniform List<scalar> 
1000
(
1.17162e-07
1.0919e-06
3.88938e-06
8.34911e-06
1.44439e-05
2.21849e-05
3.15986e-05
4.27058e-05
5.55224e-05
7.00358e-05
8.61993e-05
0.000103914
0.000123017
0.000143264
0.000164327
0.000185795
0.000207203
0.000228067
0.000247934
0.000266444
0.000283346
0.000298582
0.000312389
0.000326186
0.000346737
0.000406635
0.000655658
0.00256523
0.0220022
0.0396538
0.044238
0.0461527
0.0472803
0.0480885
0.0487337
0.0492851
0.0497723
0.0502154
0.0506224
0.0510025
0.0513582
0.0516953
0.052014
0.0523185
0.0526086
0.0528875
0.0531549
0.0534139
0.0536642
0.0539079
0.0541447
0.0543768
0.0546038
0.0548277
0.0550481
0.0552668
0.0554835
0.0557002
0.0559177
0.05614
0.0563636
0.0565886
0.0568154
0.0570445
0.0572766
0.0575126
0.0577536
0.0580008
0.0582562
0.058522
0.0588019
0.0591006
0.0594246
0.0597825
0.0601845
0.0606408
0.061159
0.0617406
0.0623786
0.0630605
0.0637737
0.0645088
0.0652596
0.0660215
0.0667914
0.067567
0.0683465
0.0691288
0.0699129
0.070698
0.0714836
0.0722692
0.0730545
0.0738393
0.0746232
0.0754061
0.0761878
0.0769683
0.0777474
0.078525
0.079301
0.0800755
0.0808482
0.0816193
0.0823887
0.0831563
0.0839221
0.0846861
0.0854482
0.0862085
0.086967
0.0877236
0.0884783
0.0892312
0.0899822
0.0907313
0.0914785
0.0922238
0.0929672
0.0937088
0.0944486
0.0951864
0.0959224
0.0966565
0.0973887
0.0981191
0.0988477
0.0995744
0.100299
0.101022
0.101744
0.102463
0.103181
0.103897
0.104611
0.105323
0.106034
0.106742
0.107449
0.108154
0.108858
0.109559
0.110259
0.110957
0.111654
0.112348
0.113041
0.113732
0.114422
0.11511
0.115796
0.11648
0.117163
0.117845
0.118525
0.119203
0.11988
0.120556
0.12123
0.121902
0.122573
0.123243
0.123911
0.124578
0.125243
0.125907
0.126569
0.12723
0.127889
0.128547
0.129204
0.129858
0.130512
0.131164
0.131814
0.132463
0.133111
0.133757
0.134401
0.135045
0.135686
0.136327
0.136966
0.137604
0.13824
0.138876
0.139509
0.140142
0.140773
0.141403
0.142032
0.142659
0.143286
0.143911
0.144534
0.145157
0.145778
0.146398
0.147017
0.147634
0.148251
0.148866
0.14948
0.150093
0.150704
0.151315
0.151924
0.152532
0.153139
0.153745
0.15435
0.154953
0.155556
0.156157
0.156758
0.157357
0.157955
0.158552
0.159148
0.159743
0.160336
0.160929
0.161521
0.162112
0.162701
0.16329
0.163877
0.164464
0.165049
0.165634
0.166217
0.1668
0.167381
0.167962
0.168541
0.16912
0.169698
0.170274
0.17085
0.171425
0.171999
0.172571
0.173143
0.173714
0.174285
0.174854
0.175422
0.17599
0.176556
0.177122
0.177686
0.17825
0.178813
0.179376
0.179937
0.180497
0.181057
0.181616
0.182173
0.182731
0.183287
0.183842
0.184397
0.184951
0.185504
0.186056
0.186607
0.187158
0.187708
0.188257
0.188805
0.189352
0.189898
0.190444
0.190989
0.191533
0.192076
0.192619
0.19316
0.193701
0.194241
0.19478
0.195319
0.195857
0.196394
0.19693
0.197466
0.198001
0.198535
0.199069
0.199602
0.200135
0.200667
0.201198
0.201729
0.20226
0.20279
0.203319
0.203848
0.204376
0.204904
0.205432
0.205958
0.206485
0.20701
0.207535
0.20806
0.208584
0.209107
0.209629
0.210151
0.210672
0.211193
0.211713
0.212232
0.212751
0.213269
0.213787
0.214304
0.21482
0.215335
0.215851
0.216365
0.216879
0.217392
0.217905
0.218418
0.218929
0.219441
0.219951
0.220462
0.220971
0.221481
0.221989
0.222498
0.223005
0.223513
0.224019
0.224526
0.225032
0.225537
0.226042
0.226546
0.22705
0.227554
0.228057
0.228559
0.229062
0.229563
0.230065
0.230565
0.231066
0.231566
0.232065
0.232564
0.233063
0.233561
0.234059
0.234556
0.235053
0.23555
0.236046
0.236541
0.237037
0.237532
0.238026
0.23852
0.239014
0.239507
0.24
0.240493
0.240985
0.241477
0.241968
0.242459
0.24295
0.24344
0.24393
0.24442
0.244909
0.245398
0.245886
0.246375
0.246862
0.24735
0.247837
0.248324
0.24881
0.249297
0.249782
0.250268
0.250753
0.251238
0.251723
0.252207
0.252691
0.253174
0.253658
0.254141
0.254624
0.255106
0.255588
0.25607
0.256552
0.257033
0.257514
0.257995
0.258476
0.258956
0.259436
0.259916
0.260395
0.260875
0.261354
0.261832
0.262311
0.262789
0.263267
0.263745
0.264222
0.264699
0.265176
0.265652
0.266129
0.266605
0.26708
0.267556
0.268031
0.268506
0.26898
0.269455
0.269929
0.270403
0.270876
0.27135
0.271823
0.272296
0.272769
0.273241
0.273714
0.274186
0.274659
0.275131
0.275603
0.276075
0.276547
0.277019
0.277491
0.277963
0.278435
0.278907
0.279379
0.279851
0.280323
0.280795
0.281267
0.281739
0.282211
0.282683
0.283155
0.283627
0.284099
0.284571
0.285043
0.285514
0.285986
0.286457
0.286928
0.287399
0.287871
0.288341
0.288812
0.289283
0.289753
0.290224
0.290694
0.291164
0.291634
0.292104
0.292574
0.293044
0.293513
0.293983
0.294452
0.294922
0.295391
0.295861
0.29633
0.2968
0.297269
0.297738
0.298208
0.298677
0.299146
0.299616
0.300085
0.300554
0.301024
0.301493
0.301963
0.302432
0.302901
0.303371
0.303841
0.30431
0.30478
0.305249
0.305719
0.306189
0.306659
0.307129
0.307599
0.308068
0.308539
0.309009
0.309479
0.309949
0.310419
0.31089
0.31136
0.311831
0.312301
0.312772
0.313243
0.313714
0.314185
0.314656
0.315127
0.315598
0.31607
0.316541
0.317013
0.317484
0.317956
0.318428
0.3189
0.319373
0.319845
0.320318
0.32079
0.321263
0.321736
0.322209
0.322683
0.323156
0.32363
0.324104
0.324578
0.325052
0.325526
0.326001
0.326476
0.326951
0.327426
0.327901
0.328377
0.328852
0.329328
0.329805
0.330281
0.330758
0.331235
0.331712
0.332189
0.332667
0.333145
0.333623
0.334102
0.33458
0.335059
0.335539
0.336018
0.336498
0.336978
0.337459
0.337939
0.33842
0.338902
0.339383
0.339865
0.340348
0.34083
0.341313
0.341796
0.342279
0.342763
0.343247
0.343732
0.344216
0.344701
0.345187
0.345672
0.346158
0.346644
0.347131
0.347618
0.348105
0.348593
0.349081
0.349569
0.350058
0.350547
0.351037
0.351527
0.352018
0.352509
0.353
0.353492
0.353985
0.354478
0.354972
0.355466
0.355961
0.356456
0.356952
0.357449
0.357947
0.358445
0.358944
0.359443
0.359943
0.360445
0.360946
0.361449
0.361952
0.362456
0.362961
0.363467
0.363973
0.36448
0.364988
0.365497
0.366006
0.366516
0.367027
0.367539
0.368051
0.368564
0.369077
0.369592
0.370107
0.370623
0.371139
0.371656
0.372174
0.372693
0.373212
0.373732
0.374253
0.374775
0.375297
0.375821
0.376345
0.376869
0.377395
0.377921
0.378449
0.378977
0.379506
0.380036
0.380567
0.381099
0.381632
0.382165
0.3827
0.383236
0.383773
0.38431
0.384849
0.385389
0.38593
0.386472
0.387015
0.387559
0.388105
0.388651
0.389199
0.389747
0.390297
0.390848
0.391401
0.391954
0.392509
0.393065
0.393622
0.394181
0.394741
0.395302
0.395865
0.396428
0.396994
0.39756
0.398128
0.398697
0.399268
0.39984
0.400414
0.400989
0.401566
0.402144
0.402723
0.403304
0.403887
0.404471
0.405057
0.405645
0.406234
0.406824
0.407416
0.40801
0.408606
0.409203
0.409802
0.410403
0.411005
0.41161
0.412216
0.412823
0.413433
0.414044
0.414657
0.415272
0.415888
0.416507
0.417127
0.417749
0.418372
0.418998
0.419625
0.420253
0.420884
0.421515
0.422149
0.422783
0.423419
0.424056
0.424694
0.425333
0.425973
0.426613
0.427254
0.427894
0.428534
0.429173
0.429811
0.430446
0.43108
0.43171
0.432337
0.432958
0.433574
0.434182
0.434783
0.435374
0.435954
0.436521
0.437075
0.437612
0.438132
0.438634
0.439114
0.439573
0.440007
0.440417
0.440801
0.441158
0.441489
0.441792
0.442068
0.442318
0.442542
0.442741
0.442916
0.44307
0.443203
0.443318
0.443415
0.443497
0.443567
0.443624
0.443673
0.443714
0.44375
0.443785
0.443823
0.443875
0.443952
0.444079
0.444299
0.444687
0.445378
0.446611
0.448792
0.452607
0.45913
0.469866
0.486471
0.50981
0.538493
0.568293
0.5941
0.612973
0.625042
0.632079
0.635954
0.63802
0.639103
0.639664
0.639955
0.640104
0.640182
0.640223
0.640244
0.640257
0.640264
0.640268
0.640272
0.640275
0.640279
0.640282
0.640285
0.640288
0.640291
0.640294
0.640298
0.640301
0.640305
0.640308
0.640312
0.640315
0.640319
0.640322
0.640326
0.640329
0.640332
0.640335
0.640338
0.640341
0.640344
0.640347
0.64035
0.640352
0.640354
0.640357
0.640359
0.640361
0.640363
0.640365
0.640367
0.640369
0.640371
0.640372
0.640374
0.640375
0.640377
0.640378
0.64038
0.640381
0.640383
0.640384
0.640385
0.640386
0.640388
0.640389
0.64039
0.640391
0.640393
0.640394
0.640395
0.640396
0.640397
0.640398
0.6404
0.640401
0.640402
0.640403
0.640404
0.640405
0.640406
0.640407
0.640408
0.640409
0.64041
0.640411
0.640412
0.640413
0.640414
0.640415
0.640416
0.640417
0.640418
0.640419
0.64042
0.64042
0.640421
0.640422
0.640423
0.640423
0.640424
0.640424
0.640425
0.640426
0.640426
0.640427
0.640427
0.640428
0.640428
0.640428
0.640429
0.640429
0.640429
0.64043
0.64043
0.64043
0.64043
0.64043
0.64043
0.640431
0.640431
0.640431
0.640431
0.640431
0.640431
0.64043
0.64043
0.64043
0.64043
0.64043
0.64043
0.64043
0.640429
0.640429
0.640429
0.640428
0.640428
0.640428
0.640427
0.640427
0.640427
0.640426
0.640426
0.640425
0.640425
0.640425
0.640424
0.640424
0.640423
0.640422
0.640422
0.640421
0.640421
0.64042
0.640419
0.640418
0.640418
0.640417
0.640416
0.640415
0.640414
0.640413
0.640412
0.640411
0.64041
0.640408
0.640407
0.640406
0.640404
0.640402
0.640401
0.640399
0.640397
0.640395
0.640393
0.640391
0.640389
0.640386
0.640384
0.640381
0.640379
0.640376
0.640373
0.64037
0.640367
0.640364
0.640361
0.640358
0.640355
0.640351
0.640349
0.640344
0.640342
0.640338
0.640336
0.640331
0.640329
0.640324
0.640323
0.640318
0.640317
0.64031
)
;

boundaryField
{
    inlet
    {
        type            calculated;
        value           uniform 3.08149e-33;
    }
    outlet
    {
        type            calculated;
        value           uniform 0.64031;
    }
    emptyWalls
    {
        type            empty;
    }
}


// ************************************************************************* //
