/*--------------------------------*- C++ -*----------------------------------*\
  =========                 |
  \\      /  F ield         | OpenFOAM: The Open Source CFD Toolbox
   \\    /   O peration     | Website:  https://openfoam.org
    \\  /    A nd           | Version:  9
     \\/     M anipulation  |
\*---------------------------------------------------------------------------*/
FoamFile
{
    format      ascii;
    class       volScalarField;
    location    "19900";
    object      Fa;
}
// * * * * * * * * * * * * * * * * * * * * * * * * * * * * * * * * * * * * * //

dimensions      [0 0 0 0 0 0 0];

internalField   nonuniform List<scalar> 
1000
(
0.194878
0.194707
0.194853
0.194714
0.194781
0.194709
0.194698
0.194662
0.194625
0.19458
0.194536
0.194473
0.194413
0.194348
0.194272
0.194227
0.194125
0.194135
0.193976
0.194054
0.193858
0.193957
0.193798
0.193849
0.193733
0.193607
0.192961
0.188717
0.163353
0.15295
0.150853
0.150001
0.149503
0.14914
0.148858
0.148645
0.148485
0.148341
0.148184
0.14801
0.147862
0.147799
0.147871
0.148085
0.148405
0.148759
0.149066
0.14927
0.149349
0.149327
0.149256
0.14918
0.149079
0.148783
0.148349
0.147881
0.147452
0.147027
0.146674
0.146385
0.146144
0.145974
0.145854
0.145775
0.145729
0.145706
0.145697
0.145695
0.145693
0.145685
0.145671
0.145648
0.145619
0.145582
0.145543
0.1455
0.145459
0.145419
0.145384
0.145347
0.145308
0.145269
0.145229
0.14519
0.145151
0.145112
0.145074
0.145037
0.145
0.144964
0.144928
0.144894
0.14486
0.144827
0.144795
0.144764
0.144733
0.144704
0.144675
0.144648
0.144621
0.144595
0.144571
0.144547
0.144525
0.144503
0.144482
0.144463
0.144444
0.144426
0.14441
0.144394
0.144379
0.144365
0.144353
0.144341
0.144332
0.144323
0.144316
0.144311
0.144306
0.144303
0.144299
0.144296
0.144292
0.144288
0.144284
0.144279
0.144274
0.14427
0.144267
0.144264
0.144263
0.144264
0.144265
0.144266
0.144269
0.14427
0.144271
0.144269
0.144265
0.144259
0.144253
0.144248
0.144246
0.144251
0.144267
0.144296
0.144339
0.1444
0.144477
0.144571
0.14468
0.144803
0.144938
0.145081
0.145231
0.145383
0.145534
0.14568
0.145818
0.145941
0.146047
0.146131
0.146189
0.146219
0.146217
0.146184
0.146121
0.146028
0.145909
0.145769
0.145612
0.145444
0.145269
0.145094
0.144923
0.144761
0.14461
0.144473
0.144351
0.144246
0.144156
0.144082
0.144022
0.143974
0.143937
0.143909
0.143888
0.143871
0.143858
0.143848
0.143837
0.143827
0.143815
0.143802
0.143787
0.14377
0.14375
0.143727
0.143703
0.143677
0.143648
0.143619
0.143587
0.143555
0.143522
0.143488
0.143454
0.14342
0.143385
0.143351
0.143316
0.143282
0.143249
0.143215
0.143182
0.14315
0.143118
0.143086
0.143056
0.143025
0.142996
0.142967
0.142938
0.142911
0.142884
0.142857
0.142831
0.142806
0.142782
0.142758
0.142735
0.142713
0.142691
0.14267
0.142649
0.14263
0.142611
0.142593
0.142575
0.142559
0.142543
0.142528
0.142513
0.1425
0.142488
0.142476
0.142465
0.142454
0.142444
0.142435
0.142426
0.142418
0.14241
0.142402
0.142395
0.142388
0.142381
0.142374
0.142368
0.142363
0.142357
0.142353
0.142348
0.142344
0.142339
0.142335
0.14233
0.142326
0.142321
0.142316
0.142311
0.142307
0.142303
0.142301
0.142301
0.142304
0.142311
0.142322
0.142338
0.14236
0.142389
0.142425
0.142469
0.14252
0.142579
0.142646
0.142719
0.1428
0.142886
0.142977
0.143071
0.143167
0.143264
0.14336
0.143453
0.143541
0.143622
0.143694
0.143757
0.143807
0.143844
0.143867
0.143875
0.143866
0.143842
0.143803
0.143748
0.14368
0.143599
0.143508
0.143408
0.143301
0.14319
0.143076
0.142961
0.142848
0.142737
0.142631
0.14253
0.142436
0.142348
0.142267
0.142194
0.142128
0.142069
0.142017
0.141971
0.141929
0.141893
0.141861
0.141832
0.141806
0.141782
0.141759
0.141738
0.141717
0.141696
0.141675
0.141654
0.141632
0.141609
0.141585
0.141561
0.141535
0.141509
0.141481
0.141453
0.141424
0.141395
0.141364
0.141334
0.141302
0.141271
0.141239
0.141208
0.141176
0.141144
0.141112
0.141081
0.141049
0.141018
0.140987
0.140957
0.140926
0.140897
0.140867
0.140838
0.14081
0.140782
0.140754
0.140727
0.1407
0.140674
0.140649
0.140624
0.140599
0.140575
0.140552
0.140529
0.140506
0.140485
0.140464
0.140443
0.140423
0.140404
0.140385
0.140367
0.140349
0.140332
0.140316
0.1403
0.140285
0.14027
0.140256
0.140243
0.14023
0.140218
0.140206
0.140194
0.140183
0.140173
0.140163
0.140153
0.140144
0.140135
0.140126
0.140118
0.14011
0.140102
0.140095
0.140087
0.14008
0.140074
0.140067
0.14006
0.140054
0.140048
0.140042
0.140037
0.140032
0.140028
0.140024
0.140022
0.140021
0.140021
0.140023
0.140028
0.140034
0.140044
0.140057
0.140073
0.140093
0.140116
0.140144
0.140176
0.140213
0.140254
0.140298
0.140347
0.1404
0.140456
0.140516
0.140578
0.140641
0.140707
0.140772
0.140838
0.140902
0.140965
0.141025
0.141081
0.141132
0.141178
0.141218
0.141251
0.141276
0.141293
0.141301
0.1413
0.14129
0.141271
0.141243
0.141206
0.14116
0.141107
0.141047
0.14098
0.140907
0.14083
0.14075
0.140667
0.140582
0.140497
0.140412
0.140327
0.140245
0.140165
0.140088
0.140013
0.139943
0.139876
0.139814
0.139754
0.1397
0.139648
0.139601
0.139556
0.139515
0.139476
0.139441
0.139407
0.139376
0.139345
0.139317
0.139289
0.139262
0.139236
0.13921
0.139184
0.139159
0.139133
0.139107
0.139081
0.139055
0.139028
0.139001
0.138974
0.138946
0.138918
0.138889
0.13886
0.138831
0.138802
0.138772
0.138742
0.138713
0.138683
0.138653
0.138623
0.138593
0.138564
0.138534
0.138505
0.138475
0.138447
0.138418
0.13839
0.138362
0.138334
0.138306
0.13828
0.138253
0.138227
0.138201
0.138175
0.13815
0.138126
0.138102
0.138078
0.138055
0.138032
0.13801
0.137988
0.137967
0.137946
0.137925
0.137905
0.137886
0.137867
0.137848
0.13783
0.137812
0.137795
0.137779
0.137762
0.137747
0.137731
0.137716
0.137702
0.137688
0.137674
0.137661
0.137648
0.137635
0.137623
0.137611
0.1376
0.137589
0.137578
0.137567
0.137557
0.137547
0.137537
0.137528
0.137519
0.13751
0.137501
0.137492
0.137484
0.137476
0.137468
0.137461
0.137454
0.137447
0.137441
0.137436
0.137431
0.137427
0.137424
0.137422
0.137422
0.137422
0.137424
0.137428
0.137434
0.137441
0.137451
0.137462
0.137477
0.137493
0.137512
0.137534
0.137558
0.137585
0.137614
0.137646
0.137681
0.137717
0.137756
0.137796
0.137838
0.137881
0.137925
0.13797
0.138015
0.138059
0.138103
0.138146
0.138188
0.138227
0.138264
0.138297
0.138327
0.138354
0.138376
0.138393
0.138406
0.138413
0.138414
0.13841
0.1384
0.138384
0.138362
0.138335
0.138302
0.138264
0.13822
0.138172
0.138119
0.138063
0.138003
0.13794
0.137875
0.137808
0.137739
0.13767
0.1376
0.13753
0.137461
0.137393
0.137325
0.13726
0.137196
0.137134
0.137075
0.137017
0.136962
0.136909
0.136859
0.136811
0.136765
0.136721
0.136679
0.136639
0.136601
0.136565
0.13653
0.136496
0.136463
0.136432
0.136401
0.136371
0.136342
0.136313
0.136284
0.136256
0.136228
0.1362
0.136172
0.136144
0.136115
0.136087
0.136059
0.136031
0.136002
0.135973
0.135944
0.135915
0.135886
0.135856
0.135827
0.135797
0.135768
0.135738
0.135708
0.135678
0.135649
0.135619
0.135589
0.13556
0.13553
0.135501
0.135472
0.135442
0.135414
0.135385
0.135356
0.135328
0.1353
0.135272
0.135245
0.135218
0.13519
0.135164
0.135137
0.135111
0.135085
0.13506
0.135035
0.13501
0.134985
0.134961
0.134937
0.134914
0.13489
0.134868
0.134845
0.134823
0.1348
0.134779
0.134758
0.134737
0.134717
0.134696
0.134677
0.134657
0.134638
0.134619
0.134601
0.134583
0.134565
0.134548
0.134531
0.134514
0.134498
0.134482
0.134467
0.134452
0.134437
0.134423
0.134409
0.134396
0.134384
0.134371
0.13436
0.13435
0.134339
0.13433
0.134322
0.134314
0.134308
0.134303
0.134297
0.134295
0.134293
0.134291
0.134293
0.134296
0.134298
0.134304
0.134311
0.134318
0.13433
0.134342
0.134353
0.134371
0.134388
0.134409
0.134426
0.13445
0.134477
0.134498
0.134533
0.134554
0.134595
0.134618
0.134661
0.134689
0.13472
0.134754
0.134777
0.134787
0.134772
0.134712
0.134581
0.134345
0.133977
0.133502
0.133009
0.132637
0.13242
0.132337
0.132311
0.132332
0.132349
0.132393
0.132423
0.132457
0.132491
0.132523
0.132553
0.132581
0.132605
0.132627
0.132646
0.132662
0.132675
0.132684
0.132688
0.132689
0.132689
0.132688
0.13268
0.132667
0.132652
0.132634
0.132614
0.13259
0.132564
0.132536
0.132506
0.132474
0.13244
0.132404
0.132368
0.13233
0.132292
0.132254
0.132215
0.132177
0.132138
0.1321
0.132063
0.132026
0.13199
0.131956
0.131922
0.131889
0.131858
0.131828
0.1318
0.131773
0.131747
0.131722
0.131699
0.131677
0.131656
0.131637
0.131618
0.131601
0.131585
0.131569
0.131555
0.131541
0.131528
0.131515
0.131503
0.131491
0.13148
0.131469
0.131459
0.131449
0.131439
0.131429
0.131419
0.131409
0.1314
0.13139
0.13138
0.13137
0.131361
0.131351
0.131341
0.131331
0.131321
0.131311
0.131301
0.131291
0.131281
0.131271
0.131261
0.13125
0.13124
0.13123
0.13122
0.13121
0.1312
0.13119
0.13118
0.13117
0.13116
0.131151
0.131141
0.131132
0.131123
0.131114
0.131105
0.131096
0.131088
0.13108
0.131072
0.131064
0.131057
0.13105
0.131043
0.131036
0.13103
0.131023
0.131017
0.131012
0.131007
0.131001
0.130997
0.130992
0.130988
0.130984
0.130981
0.130978
0.130975
0.130972
0.13097
0.130968
0.130966
0.130965
0.130964
0.130963
0.130963
0.130963
0.130963
0.130963
0.130963
0.130964
0.130966
0.130967
0.13097
0.130972
0.130974
0.130977
0.13098
0.130983
0.130987
0.130991
0.130995
0.130999
0.131004
0.131009
0.131015
0.13102
0.131026
0.131032
0.131039
0.131046
0.131053
0.131061
0.131069
0.131078
0.131085
0.131098
0.131104
0.13112
0.131125
0.131144
0.131149
0.13117
0.131176
0.1312
0.131207
0.131233
0.13124
0.13127
0.131278
0.131311
0.13132
0.131357
0.131366
0.131407
0.131417
0.131461
0.131473
0.131521
0.131533
0.131585
0.131598
0.131653
0.131667
0.131725
0.13174
0.131816
)
;

boundaryField
{
    inlet
    {
        type            calculated;
        value           uniform 0.194831;
    }
    outlet
    {
        type            calculated;
        value           uniform 0.131808;
    }
    emptyWalls
    {
        type            empty;
    }
}


// ************************************************************************* //
