/*--------------------------------*- C++ -*----------------------------------*\
  =========                 |
  \\      /  F ield         | OpenFOAM: The Open Source CFD Toolbox
   \\    /   O peration     | Website:  https://openfoam.org
    \\  /    A nd           | Version:  9
     \\/     M anipulation  |
\*---------------------------------------------------------------------------*/
FoamFile
{
    format      ascii;
    class       volScalarField;
    location    "19900";
    object      krc;
}
// * * * * * * * * * * * * * * * * * * * * * * * * * * * * * * * * * * * * * //

dimensions      [0 0 0 0 0 0 0];

internalField   nonuniform List<scalar> 
1000
(
1.16532e-07
1.08568e-06
3.86723e-06
8.3023e-06
1.43638e-05
2.2063e-05
3.14261e-05
4.24741e-05
5.52233e-05
6.96621e-05
8.57457e-05
0.000103378
0.000122399
0.00014257
0.000163567
0.000184987
0.000206367
0.000227229
0.000247115
0.000265666
0.000282621
0.000297913
0.000311744
0.000325382
0.00034486
0.000399309
0.000621319
0.00221228
0.0198104
0.0390441
0.0440336
0.0460456
0.0472075
0.0480311
0.0486845
0.0492408
0.0497312
0.0501768
0.0505859
0.0509679
0.0513253
0.0516637
0.0519835
0.0522885
0.0525789
0.0528578
0.0531253
0.0533842
0.0536341
0.0538775
0.054114
0.0543458
0.0545724
0.0547962
0.0550167
0.0552354
0.055452
0.0556686
0.0558854
0.0561068
0.0563299
0.0565543
0.0567802
0.0570084
0.0572393
0.057474
0.0577134
0.0579587
0.0582118
0.0584748
0.058751
0.059045
0.0593628
0.0597126
0.0601043
0.0605481
0.0610526
0.0616206
0.0622468
0.0629193
0.0636253
0.0643548
0.065101
0.065859
0.0666256
0.0673982
0.0681751
0.068955
0.0697368
0.0705199
0.0713034
0.0720872
0.0728707
0.0736536
0.0744358
0.075217
0.0759972
0.076776
0.0775535
0.0783296
0.0791041
0.079877
0.0806483
0.0814179
0.0821858
0.082952
0.0837164
0.084479
0.0852397
0.0859987
0.0867558
0.087511
0.0882644
0.0890159
0.0897656
0.0905134
0.0912593
0.0920033
0.0927455
0.0934858
0.0942242
0.0949607
0.0956955
0.0964283
0.0971593
0.0978885
0.0986158
0.0993413
0.100065
0.100787
0.101507
0.102225
0.102942
0.103656
0.104369
0.10508
0.10579
0.106497
0.107203
0.107907
0.10861
0.10931
0.110009
0.110707
0.111402
0.112096
0.112788
0.113479
0.114168
0.114855
0.11554
0.116224
0.116906
0.117586
0.118265
0.118942
0.119618
0.120291
0.120964
0.121635
0.122304
0.122972
0.123638
0.124303
0.124966
0.125628
0.126289
0.126948
0.127606
0.128262
0.128918
0.129571
0.130224
0.130875
0.131525
0.132173
0.13282
0.133465
0.13411
0.134752
0.135394
0.136033
0.136672
0.137309
0.137945
0.138579
0.139212
0.139844
0.140474
0.141103
0.141731
0.142357
0.142982
0.143606
0.144229
0.14485
0.14547
0.146089
0.146707
0.147324
0.147939
0.148553
0.149166
0.149778
0.150389
0.150998
0.151607
0.152214
0.15282
0.153425
0.154029
0.154631
0.155233
0.155834
0.156433
0.157031
0.157628
0.158225
0.15882
0.159414
0.160006
0.160598
0.161189
0.161779
0.162368
0.162955
0.163542
0.164128
0.164712
0.165296
0.165879
0.16646
0.167041
0.167621
0.168199
0.168777
0.169354
0.16993
0.170504
0.171078
0.171651
0.172223
0.172795
0.173365
0.173934
0.174503
0.17507
0.175637
0.176202
0.176767
0.177331
0.177894
0.178456
0.179018
0.179578
0.180138
0.180696
0.181254
0.181811
0.182368
0.182923
0.183478
0.184031
0.184584
0.185136
0.185688
0.186238
0.186788
0.187337
0.187885
0.188433
0.188979
0.189525
0.190071
0.190615
0.191159
0.191701
0.192244
0.192785
0.193325
0.193865
0.194404
0.194943
0.19548
0.196017
0.196553
0.197088
0.197622
0.198156
0.198689
0.199221
0.199753
0.200283
0.200814
0.201343
0.201872
0.2024
0.202927
0.203454
0.20398
0.204506
0.205031
0.205556
0.20608
0.206604
0.207127
0.20765
0.208172
0.208694
0.209215
0.209736
0.210256
0.210776
0.211295
0.211814
0.212333
0.21285
0.213367
0.213884
0.2144
0.214915
0.21543
0.215944
0.216458
0.216971
0.217483
0.217995
0.218506
0.219017
0.219527
0.220037
0.220546
0.221054
0.221562
0.222069
0.222576
0.223083
0.223588
0.224094
0.224599
0.225103
0.225607
0.226111
0.226614
0.227116
0.227618
0.22812
0.228621
0.229122
0.229622
0.230122
0.230622
0.231121
0.231619
0.232117
0.232615
0.233113
0.233609
0.234106
0.234602
0.235098
0.235593
0.236088
0.236582
0.237076
0.23757
0.238063
0.238556
0.239049
0.239541
0.240032
0.240524
0.241015
0.241505
0.241996
0.242485
0.242975
0.243464
0.243953
0.244441
0.244929
0.245417
0.245904
0.246391
0.246878
0.247364
0.24785
0.248336
0.248821
0.249306
0.249791
0.250275
0.250759
0.251243
0.251727
0.25221
0.252693
0.253175
0.253657
0.254139
0.254621
0.255102
0.255583
0.256064
0.256544
0.257025
0.257505
0.257984
0.258464
0.258943
0.259422
0.2599
0.260379
0.260857
0.261335
0.261812
0.26229
0.262767
0.263244
0.26372
0.264197
0.264673
0.265149
0.265625
0.2661
0.266575
0.26705
0.267525
0.268
0.268474
0.268948
0.269422
0.269896
0.270369
0.270842
0.271315
0.271788
0.27226
0.272732
0.273204
0.273676
0.274147
0.274618
0.275089
0.27556
0.27603
0.276501
0.276971
0.277441
0.277911
0.278381
0.278851
0.27932
0.27979
0.280259
0.280729
0.281198
0.281667
0.282137
0.282606
0.283076
0.283545
0.284015
0.284485
0.284954
0.285424
0.285894
0.286364
0.286833
0.287303
0.287773
0.288243
0.288713
0.289182
0.289652
0.290122
0.290592
0.291061
0.291531
0.292
0.292469
0.292938
0.293408
0.293876
0.294345
0.294814
0.295283
0.295751
0.29622
0.296688
0.297157
0.297625
0.298093
0.298562
0.29903
0.299498
0.299966
0.300434
0.300903
0.301371
0.301839
0.302307
0.302775
0.303244
0.303712
0.30418
0.304649
0.305117
0.305585
0.306054
0.306523
0.306991
0.30746
0.307929
0.308397
0.308866
0.309335
0.309804
0.310273
0.310743
0.311212
0.311681
0.312151
0.31262
0.31309
0.313559
0.314029
0.314499
0.314969
0.315439
0.31591
0.31638
0.316851
0.317321
0.317792
0.318263
0.318734
0.319205
0.319676
0.320148
0.320619
0.321091
0.321563
0.322035
0.322507
0.322979
0.323452
0.323924
0.324397
0.32487
0.325343
0.325817
0.32629
0.326764
0.327238
0.327712
0.328187
0.328661
0.329136
0.329611
0.330087
0.330562
0.331038
0.331514
0.33199
0.332466
0.332943
0.33342
0.333897
0.334375
0.334853
0.335331
0.335809
0.336288
0.336766
0.337246
0.337725
0.338205
0.338685
0.339165
0.339646
0.340127
0.340609
0.34109
0.341572
0.342055
0.342537
0.343021
0.343504
0.343988
0.344472
0.344956
0.345441
0.345926
0.346412
0.346898
0.347384
0.347871
0.348358
0.348845
0.349333
0.349821
0.350309
0.350798
0.351287
0.351777
0.352267
0.352758
0.353248
0.35374
0.354231
0.354724
0.355216
0.355709
0.356203
0.356697
0.357191
0.357687
0.358182
0.358678
0.359175
0.359673
0.360171
0.360669
0.361169
0.361669
0.362169
0.362671
0.363173
0.363676
0.36418
0.364685
0.36519
0.365696
0.366203
0.366711
0.36722
0.367729
0.36824
0.368751
0.369263
0.369776
0.37029
0.370805
0.37132
0.371836
0.372354
0.372871
0.37339
0.37391
0.37443
0.374951
0.375473
0.375996
0.37652
0.377044
0.377569
0.378095
0.378622
0.37915
0.379679
0.380208
0.380739
0.38127
0.381802
0.382335
0.382869
0.383404
0.38394
0.384477
0.385015
0.385554
0.386094
0.386635
0.387177
0.38772
0.388264
0.38881
0.389356
0.389904
0.390453
0.391003
0.391554
0.392106
0.39266
0.393215
0.393771
0.394329
0.394887
0.395447
0.396009
0.396572
0.397136
0.397701
0.398268
0.398836
0.399406
0.399977
0.40055
0.401124
0.401699
0.402276
0.402855
0.403435
0.404017
0.4046
0.405185
0.405771
0.406359
0.406949
0.40754
0.408133
0.408727
0.409324
0.409922
0.410521
0.411123
0.411726
0.412331
0.412937
0.413546
0.414156
0.414768
0.415382
0.415997
0.416615
0.417234
0.417854
0.418477
0.419101
0.419727
0.420354
0.420983
0.421614
0.422246
0.42288
0.423514
0.42415
0.424787
0.425425
0.426063
0.426702
0.427341
0.42798
0.428618
0.429256
0.429892
0.430526
0.431158
0.431787
0.432411
0.433031
0.433644
0.434251
0.434849
0.435438
0.436016
0.436581
0.437132
0.437667
0.438185
0.438684
0.439162
0.439618
0.44005
0.440457
0.440838
0.441193
0.441522
0.441823
0.442097
0.442345
0.442567
0.442764
0.442939
0.443092
0.443224
0.443338
0.443435
0.443517
0.443586
0.443644
0.443693
0.443734
0.44377
0.443805
0.443844
0.443896
0.443972
0.444099
0.444318
0.444704
0.445392
0.446618
0.448788
0.452584
0.459075
0.469765
0.486312
0.509596
0.53825
0.568069
0.593934
0.612872
0.624995
0.632065
0.63596
0.638034
0.63912
0.639682
0.63997
0.640118
0.640193
0.64023
0.640248
0.640257
0.640261
0.640262
0.640262
0.640263
0.640263
0.640263
0.640263
0.640263
0.640264
0.640265
0.640267
0.640268
0.64027
0.640272
0.640275
0.640278
0.64028
0.640283
0.640287
0.64029
0.640293
0.640297
0.640301
0.640304
0.640308
0.640312
0.640316
0.640319
0.640323
0.640327
0.64033
0.640334
0.640337
0.64034
0.640343
0.640346
0.640349
0.640352
0.640355
0.640358
0.64036
0.640362
0.640365
0.640367
0.640369
0.640371
0.640373
0.640374
0.640376
0.640378
0.640379
0.640381
0.640382
0.640383
0.640385
0.640386
0.640387
0.640388
0.640389
0.640391
0.640392
0.640393
0.640394
0.640395
0.640396
0.640397
0.640398
0.640399
0.6404
0.640401
0.640402
0.640403
0.640404
0.640405
0.640406
0.640407
0.640407
0.640408
0.640409
0.64041
0.640411
0.640412
0.640413
0.640414
0.640414
0.640415
0.640416
0.640417
0.640418
0.640418
0.640419
0.64042
0.64042
0.640421
0.640422
0.640422
0.640423
0.640423
0.640424
0.640424
0.640425
0.640425
0.640426
0.640426
0.640426
0.640427
0.640427
0.640427
0.640428
0.640428
0.640428
0.640428
0.640428
0.640429
0.640429
0.640429
0.640429
0.640429
0.640429
0.640429
0.640429
0.640429
0.640429
0.640429
0.640429
0.640429
0.640429
0.640428
0.640428
0.640428
0.640428
0.640428
0.640427
0.640427
0.640427
0.640427
0.640426
0.640426
0.640426
0.640425
0.640425
0.640424
0.640424
0.640423
0.640423
0.640422
0.640422
0.640421
0.640421
0.64042
0.640419
0.640418
0.640418
0.640417
0.640416
0.640415
0.640415
0.640413
0.640413
0.640411
0.64041
0.640408
0.640408
0.640406
0.640405
0.640402
0.640402
0.640399
0.640398
0.640395
0.640395
0.640391
0.64039
0.640387
0.640386
0.640382
0.640381
0.640377
0.640376
0.640371
0.64037
0.640365
0.640364
0.640358
)
;

boundaryField
{
    inlet
    {
        type            calculated;
        value           uniform 3.08149e-33;
    }
    outlet
    {
        type            calculated;
        value           uniform 0.640358;
    }
    emptyWalls
    {
        type            empty;
    }
}


// ************************************************************************* //
