/*--------------------------------*- C++ -*----------------------------------*\
  =========                 |
  \\      /  F ield         | OpenFOAM: The Open Source CFD Toolbox
   \\    /   O peration     | Website:  https://openfoam.org
    \\  /    A nd           | Version:  9
     \\/     M anipulation  |
\*---------------------------------------------------------------------------*/
FoamFile
{
    format      ascii;
    class       volScalarField;
    location    "25950";
    object      kra;
}
// * * * * * * * * * * * * * * * * * * * * * * * * * * * * * * * * * * * * * //

dimensions      [0 0 0 0 0 0 0];

internalField   nonuniform List<scalar> 
1000
(
0.00023665
0.000237403
0.00023842
0.000239447
0.00024047
0.000241502
0.000242542
0.000243586
0.000244644
0.000245715
0.000246787
0.000247891
0.000248972
0.000250108
0.000251184
0.000252345
0.000253407
0.000254565
0.000255616
0.000256723
0.000257749
0.000258765
0.00025972
0.000260624
0.00026146
0.000262231
0.000262926
0.000263552
0.000264106
0.000264597
0.000265035
0.000265429
0.000265906
0.000266747
0.000269662
0.000280616
0.000343154
0.000674234
0.000854466
0.000891752
0.000907737
0.000919904
0.000929338
0.000934505
0.000936028
0.000936059
0.000935349
0.000932155
0.00092924
0.000927267
0.000926284
0.000926055
0.000926219
0.000927419
0.00092872
0.000929697
0.000930417
0.000930933
0.00093118
0.000931213
0.000931198
0.000931094
0.000930889
0.000930616
0.00093031
0.000929984
0.000929607
0.000929251
0.000928822
0.000928447
0.000927972
0.000927589
0.000927074
0.000926673
0.000926133
0.000925696
0.000925164
0.000924633
0.000924092
0.000923542
0.000922977
0.000922402
0.000921821
0.000921214
0.000920595
0.000919956
0.000919295
0.000918608
0.000917903
0.000917165
0.000916399
0.000915602
0.00091478
0.000913913
0.000913001
0.000912021
0.000910957
0.000909766
0.000908426
0.000906901
0.000905176
0.000903238
0.000901115
0.000898848
0.000896487
0.000894074
0.000891636
0.000889193
0.000886758
0.000884336
0.000881928
0.000879529
0.000877129
0.000874717
0.000872285
0.000869835
0.000867375
0.000864918
0.000862472
0.000860047
0.000857657
0.000855327
0.000853095
0.000851005
0.000849094
0.000847383
0.000845871
0.000844533
0.000843329
0.000842217
0.000841154
0.000840109
0.000839058
0.000837979
0.000836853
0.000835655
0.000834354
0.000832917
0.00083131
0.000829501
0.000827471
0.000825209
0.000822721
0.000820027
0.000817156
0.000814151
0.000811057
0.000807921
0.00080479
0.000801704
0.000798697
0.000795797
0.000793019
0.000790376
0.000787869
0.000785494
0.000783243
0.000781103
0.000779061
0.0007771
0.000775204
0.000773359
0.000771551
0.000769767
0.000767998
0.000766237
0.000764477
0.000762715
0.000760948
0.000759175
0.000757397
0.000755614
0.000753829
0.000752042
0.000750255
0.00074847
0.00074669
0.000744915
0.000743148
0.000741389
0.00073964
0.000737901
0.000736173
0.000734457
0.000732753
0.000731061
0.000729382
0.000727715
0.000726061
0.000724421
0.000722794
0.000721179
0.000719579
0.000717991
0.000716417
0.000714857
0.000713309
0.000711774
0.000710252
0.000708742
0.000707244
0.000705759
0.000704285
0.000702823
0.000701373
0.000699936
0.000698511
0.000697098
0.000695699
0.000694312
0.000692938
0.000691577
0.000690228
0.000688891
0.000687564
0.000686247
0.000684938
0.000683639
0.000682348
0.000681064
0.000679789
0.000678522
0.000677264
0.000676016
0.000674778
0.000673551
0.000672335
0.00067113
0.000669936
0.000668752
0.000667578
0.00066641
0.000665248
0.000664089
0.000662933
0.000661777
0.000660622
0.000659468
0.00065832
0.000657178
0.00065605
0.000654939
0.000653856
0.000652804
0.000651792
0.000650825
0.000649909
0.000649046
0.000648241
0.000647491
0.000646799
0.000646159
0.000645569
0.000645022
0.000644513
0.000644031
0.000643569
0.000643115
0.000642659
0.000642187
0.000641688
0.000641148
0.000640557
0.000639902
0.000639174
0.000638364
0.000637466
0.000636477
0.000635396
0.000634226
0.000632971
0.000631638
0.000630239
0.000628783
0.000627285
0.000625758
0.000624216
0.000622671
0.000621136
0.000619622
0.000618136
0.000616688
0.000615281
0.000613919
0.000612604
0.000611335
0.000610112
0.000608932
0.000607791
0.000606687
0.000605614
0.000604569
0.000603547
0.000602544
0.000601556
0.00060058
0.000599613
0.000598652
0.000597695
0.00059674
0.000595786
0.000594832
0.000593877
0.000592921
0.000591964
0.000591006
0.000590047
0.000589088
0.000588128
0.000587169
0.000586211
0.000585255
0.000584301
0.000583349
0.0005824
0.000581454
0.000580512
0.000579574
0.000578641
0.000577712
0.000576788
0.000575869
0.000574955
0.000574047
0.000573144
0.000572247
0.000571356
0.00057047
0.00056959
0.000568716
0.000567847
0.000566984
0.000566127
0.000565276
0.000564431
0.000563591
0.000562757
0.00056193
0.000561108
0.000560292
0.000559482
0.000558678
0.00055788
0.000557088
0.000556302
0.000555521
0.000554746
0.000553977
0.000553212
0.000552453
0.000551699
0.000550949
0.000550204
0.000549463
0.000548727
0.000547996
0.000547269
0.000546547
0.00054583
0.000545117
0.000544409
0.000543705
0.000543006
0.000542311
0.00054162
0.000540932
0.000540248
0.000539567
0.000538888
0.000538212
0.000537538
0.000536867
0.000536198
0.000535534
0.000534873
0.000534219
0.000533572
0.000532933
0.000532306
0.000531692
0.000531093
0.000530511
0.000529948
0.000529407
0.000528888
0.000528394
0.000527925
0.000527481
0.000527063
0.00052667
0.000526301
0.000525955
0.000525629
0.000525321
0.000525027
0.000524744
0.000524468
0.000524195
0.000523919
0.000523636
0.00052334
0.000523027
0.000522691
0.000522329
0.000521934
0.000521504
0.000521035
0.000520524
0.00051997
0.000519371
0.000518727
0.000518039
0.000517309
0.000516539
0.000515734
0.000514896
0.000514031
0.000513143
0.000512238
0.000511322
0.000510399
0.000509474
0.000508553
0.000507638
0.000506735
0.000505846
0.000504974
0.00050412
0.000503286
0.000502472
0.000501679
0.000500905
0.000500153
0.000499418
0.000498702
0.000498001
0.000497315
0.000496642
0.000495981
0.00049533
0.000494688
0.000494052
0.000493423
0.000492798
0.000492177
0.000491558
0.000490942
0.000490327
0.000489713
0.000489099
0.000488486
0.000487873
0.00048726
0.000486647
0.000486034
0.000485421
0.000484809
0.000484197
0.000483586
0.000482976
0.000482367
0.000481759
0.000481152
0.000480547
0.000479945
0.000479344
0.000478745
0.000478149
0.000477555
0.000476964
0.000476376
0.000475791
0.000475208
0.000474629
0.000474052
0.000473479
0.000472909
0.000472342
0.000471779
0.000471219
0.000470662
0.000470108
0.000469558
0.000469012
0.000468468
0.000467929
0.000467392
0.00046686
0.00046633
0.000465804
0.000465281
0.000464762
0.000464246
0.000463733
0.000463224
0.000462718
0.000462214
0.000461714
0.000461217
0.000460723
0.000460231
0.000459743
0.000459257
0.000458774
0.000458294
0.000457816
0.000457341
0.000456869
0.000456399
0.000455931
0.000455466
0.000455003
0.000454542
0.000454084
0.000453627
0.000453172
0.000452719
0.000452269
0.00045182
0.000451373
0.000450928
0.000450487
0.000450047
0.000449612
0.00044918
0.000448753
0.00044833
0.000447914
0.000447504
0.000447102
0.000446708
0.000446324
0.00044595
0.000445586
0.000445235
0.000444895
0.000444568
0.000444255
0.000443955
0.000443668
0.000443394
0.000443133
0.000442885
0.000442648
0.000442421
0.000442203
0.000441993
0.000441789
0.00044159
0.000441393
0.000441196
0.000440997
0.000440793
0.000440584
0.000440365
0.000440135
0.000439891
0.000439632
0.000439354
0.000439058
0.00043874
0.0004384
0.000438036
0.000437648
0.000437236
0.000436799
0.000436338
0.000435854
0.000435347
0.00043482
0.000434273
0.000433709
0.00043313
0.000432539
0.000431937
0.000431327
0.000430711
0.000430093
0.000429473
0.000428855
0.00042824
0.00042763
0.000427026
0.00042643
0.000425842
0.000425265
0.000424696
0.000424139
0.000423591
0.000423055
0.000422528
0.000422011
0.000421503
0.000421005
0.000420515
0.000420032
0.000419556
0.000419087
0.000418623
0.000418164
0.000417709
0.000417259
0.000416811
0.000416366
0.000415922
0.000415482
0.000415041
0.000414603
0.000414165
0.000413729
0.000413291
0.000412856
0.000412419
0.000411986
0.000411549
0.000411116
0.00041068
0.000410249
0.000409812
0.000409383
0.000408947
0.00040852
0.000408085
0.000407661
0.000407227
0.000406806
0.000406373
0.000405956
0.000405524
0.000405111
0.000404682
0.000404273
0.000403846
0.000403442
0.000403018
0.000402619
0.000402197
0.000401803
0.000401384
0.000400994
0.000400579
0.000400195
0.000399783
0.000399403
0.000398996
0.00039862
0.000398218
0.000397846
0.000397448
0.00039708
0.000396687
0.000396322
0.000395935
0.000395573
0.000395192
0.000394832
0.000394457
0.0003941
0.000393729
0.000393375
0.00039301
0.000392658
0.000392298
0.000391949
0.000391594
0.000391246
0.000390896
0.000390551
0.000390204
0.000389862
0.000389519
0.000389179
0.00038884
0.000388503
0.000388166
0.000387832
0.000387498
0.000387167
0.000386836
0.000386508
0.000386181
0.000385856
0.000385533
0.000385212
0.000384894
0.000384578
0.000384265
0.000383956
0.00038365
0.000383349
0.000383052
0.00038276
0.000382473
0.000382192
0.000381916
0.000381648
0.000381385
0.000381131
0.000380883
0.000380643
0.00038041
0.000380185
0.000379968
0.000379758
0.000379556
0.000379361
0.000379172
0.00037899
0.000378813
0.000378642
0.000378474
0.000378311
0.000378149
0.00037799
0.000377831
0.000377671
0.00037751
0.000377346
0.000377177
0.000377004
0.000376823
0.000376636
0.000376439
0.000376234
0.000376016
0.000375788
0.000375546
0.000375292
0.000375023
0.000374742
0.000374443
0.000374133
0.000373806
0.000373467
0.000373111
0.000372745
0.000372362
0.000371972
0.000371566
0.000371155
0.000370729
0.000370302
0.000369862
0.000369422
0.000368972
0.000368526
0.000368071
0.000367623
0.000367168
0.000366721
0.00036627
0.000365829
0.000365384
0.000364951
0.000364515
0.000364092
0.000363667
0.000363255
0.000362841
0.000362441
0.000362038
0.000361648
0.000361257
0.000360877
0.000360495
0.000360125
0.000359752
0.00035939
0.000359025
0.000358669
0.00035831
0.00035796
0.000357605
0.00035726
0.000356909
0.000356567
0.000356219
0.000355879
0.000355533
0.000355195
0.000354851
0.000354514
0.000354171
0.000353835
0.000353493
0.000353158
0.000352816
0.000352482
0.000352141
0.000351808
0.000351467
0.000351136
0.000350795
0.000350466
0.000350125
0.000349799
0.000349458
0.000349134
0.000348794
0.000348473
0.000348134
0.000347816
0.000347477
0.000347163
0.000346825
0.000346514
0.000346178
0.00034587
0.000345535
0.000345231
0.000344898
0.000344598
0.000344267
0.00034397
0.000343641
0.000343348
0.00034302
0.000342731
0.000342406
0.000342121
0.000341798
0.000341516
0.000341195
0.000340917
0.000340598
0.000340324
0.000340007
0.000339736
0.000339421
0.000339154
0.000338841
0.000338577
0.000338267
0.000338005
0.000337697
0.000337439
0.000337132
0.000336877
0.000336572
0.00033632
0.000336016
0.000335768
0.000335465
0.000335219
0.000334918
0.000334676
0.000334374
0.000334136
0.000333835
0.000333601
0.000333301
0.000333071
0.000332771
0.000332545
0.000332246
0.000332026
0.000331727
0.000331514
0.000331216
0.000331009
0.000330712
0.000330514
0.000330218
0.000330029
0.000329736
0.000329556
0.000329267
0.000329096
0.000328812
0.000328651
0.000328374
0.000328222
0.000327953
0.00032781
0.000327551
0.000327415
0.000327167
0.000327038
0.000326802
0.000326677
0.000326454
0.000326333
0.000326122
0.000326002
0.000325803
0.000325684
0.000325494
0.000325374
0.000325191
0.000325069
0.000324891
0.000324765
0.000324589
0.000324456
0.00032428
0.000324137
0.000323958
0.000323804
0.000323619
0.000323452
0.000323257
0.000323075
0.000322867
0.00032267
0.000322447
0.000322233
0.000321992
0.000321761
0.000321502
0.000321253
0.000320974
0.000320707
0.000320409
0.000320125
0.000319809
0.000319509
0.000319176
0.000318862
0.000318513
0.000318188
0.000317825
0.000317492
0.000317117
0.000316778
0.000316394
0.000316052
0.000315662
0.00031532
0.000314924
0.000314585
0.000314186
0.000313854
0.000313452
0.000313128
0.000312725
0.000312412
0.000312007
0.000311706
0.000311301
0.000311012
0.000310607
0.00031033
0.000309926
0.00030966
0.000309258
0.000309002
0.000308602
0.000308355
0.000307956
0.000307718
0.000307319
0.000307091
0.000306691
0.000306471
0.00030607
0.000305857
0.000305455
0.000305248
0.000304845
0.000304644
0.000304239
0.000304044
0.000303637
0.000303447
0.000303038
0.000302854
0.000302442
0.000302263
0.000301849
0.000301675
0.00030126
0.000301092
0.000300674
0.000300512
0.000300093
0.000299937
0.000299519
0.000299369
0.000298952
0.000298807
0.000298395
0.000298255
0.000297849
0.000297715
0.000297317
0.000297188
0.000296801
0.000296679
0.000296306
0.000296191
0.000295833
0.000295728
0.000295387
0.000295292
0.000294972
0.000294889
0.00029459
0.000294522
0.000294078
0.0493725
)
;

boundaryField
{
    inlet
    {
        type            calculated;
        value           uniform 0.000236304;
    }
    outlet
    {
        type            calculated;
        value           uniform 2.55831e-05;
    }
    emptyWalls
    {
        type            empty;
    }
}


// ************************************************************************* //
