/*--------------------------------*- C++ -*----------------------------------*\
  =========                 |
  \\      /  F ield         | OpenFOAM: The Open Source CFD Toolbox
   \\    /   O peration     | Website:  https://openfoam.org
    \\  /    A nd           | Version:  9
     \\/     M anipulation  |
\*---------------------------------------------------------------------------*/
FoamFile
{
    format      ascii;
    class       volScalarField;
    location    "25950";
    object      krc;
}
// * * * * * * * * * * * * * * * * * * * * * * * * * * * * * * * * * * * * * //

dimensions      [0 0 0 0 0 0 0];

internalField   nonuniform List<scalar> 
1000
(
6.62621e-08
6.02116e-07
2.12956e-06
4.60244e-06
8.00812e-06
1.23487e-05
1.76386e-05
2.38927e-05
3.11306e-05
3.93708e-05
4.86305e-05
5.89203e-05
7.02448e-05
8.25978e-05
9.59572e-05
0.000110284
0.00012551
0.000141544
0.000158251
0.000175467
0.000192979
0.000210551
0.000227918
0.000244814
0.000260988
0.000276227
0.00029037
0.000303324
0.000315056
0.000325606
0.000335109
0.000344014
0.000354172
0.000374054
0.000442356
0.000746652
0.00346271
0.0260067
0.0404657
0.0443122
0.0459725
0.0469531
0.04765
0.0482055
0.0486779
0.049097
0.0494773
0.0498298
0.0501588
0.0504692
0.0507632
0.0510437
0.0513116
0.0515687
0.0518157
0.052054
0.052284
0.0525068
0.0527225
0.0529322
0.0531361
0.053335
0.053529
0.0537189
0.0539046
0.0540871
0.0542664
0.0544432
0.0546173
0.0547897
0.0549599
0.0551289
0.0552965
0.0554634
0.0556298
0.0557962
0.0559645
0.056134
0.0563039
0.0564745
0.0566458
0.056818
0.0569914
0.0571662
0.0573427
0.0575214
0.0577026
0.0578868
0.0580745
0.0582664
0.0584633
0.0586664
0.0588769
0.0590968
0.0593285
0.0595754
0.0598416
0.0601326
0.0604542
0.0608123
0.0612115
0.0616532
0.0621345
0.0626485
0.0631871
0.0637436
0.0643131
0.0648922
0.0654785
0.06607
0.0666654
0.0672638
0.0678643
0.0684663
0.0690693
0.069673
0.0702771
0.0708814
0.0714855
0.0720894
0.072693
0.073296
0.0738985
0.0745002
0.0751013
0.0757014
0.0763007
0.0768991
0.0774965
0.078093
0.0786885
0.0792829
0.0798764
0.0804688
0.0810601
0.0816505
0.0822398
0.082828
0.0834152
0.0840013
0.0845864
0.0851705
0.0857535
0.0863354
0.0869163
0.0874962
0.088075
0.0886526
0.0892292
0.0898046
0.0903789
0.0909521
0.0915241
0.092095
0.0926647
0.0932333
0.0938008
0.094367
0.0949322
0.0954962
0.0960591
0.0966209
0.0971816
0.0977412
0.0982997
0.0988571
0.0994134
0.0999687
0.100523
0.101076
0.101628
0.102179
0.102729
0.103278
0.103826
0.104372
0.104918
0.105463
0.106007
0.106549
0.107091
0.107631
0.108171
0.10871
0.109247
0.109784
0.110319
0.110854
0.111387
0.11192
0.112451
0.112982
0.113511
0.11404
0.114568
0.115094
0.11562
0.116145
0.116668
0.117191
0.117713
0.118234
0.118754
0.119273
0.119791
0.120308
0.120825
0.12134
0.121855
0.122368
0.122881
0.123393
0.123903
0.124413
0.124922
0.125431
0.125938
0.126444
0.12695
0.127454
0.127958
0.128461
0.128963
0.129465
0.129965
0.130465
0.130963
0.131461
0.131958
0.132454
0.13295
0.133444
0.133938
0.134431
0.134923
0.135415
0.135905
0.136395
0.136884
0.137372
0.137859
0.138346
0.138832
0.139317
0.139801
0.140285
0.140767
0.141249
0.14173
0.14221
0.14269
0.143168
0.143646
0.144123
0.144599
0.145075
0.14555
0.146024
0.146497
0.14697
0.147442
0.147913
0.148384
0.148853
0.149323
0.149791
0.15026
0.150727
0.151194
0.15166
0.152126
0.152591
0.153056
0.15352
0.153983
0.154446
0.154908
0.155369
0.15583
0.15629
0.15675
0.157209
0.157667
0.158124
0.158581
0.159037
0.159493
0.159947
0.160402
0.160855
0.161308
0.16176
0.162212
0.162663
0.163113
0.163563
0.164012
0.164461
0.164908
0.165356
0.165803
0.166249
0.166695
0.16714
0.167584
0.168028
0.168471
0.168914
0.169356
0.169798
0.170239
0.17068
0.17112
0.17156
0.171998
0.172437
0.172875
0.173312
0.173749
0.174185
0.174621
0.175056
0.175491
0.175925
0.176359
0.176792
0.177224
0.177656
0.178088
0.178519
0.17895
0.17938
0.179809
0.180238
0.180667
0.181095
0.181522
0.181949
0.182376
0.182802
0.183228
0.183653
0.184077
0.184501
0.184925
0.185348
0.185771
0.186193
0.186615
0.187036
0.187457
0.187878
0.188298
0.188717
0.189136
0.189555
0.189973
0.19039
0.190808
0.191224
0.191641
0.192057
0.192472
0.192887
0.193302
0.193716
0.19413
0.194543
0.194956
0.195368
0.19578
0.196192
0.196603
0.197014
0.197425
0.197835
0.198244
0.198653
0.199062
0.19947
0.199878
0.200286
0.200693
0.201099
0.201506
0.201911
0.202317
0.202722
0.203126
0.20353
0.203934
0.204337
0.20474
0.205142
0.205544
0.205945
0.206347
0.206747
0.207148
0.207548
0.207948
0.208347
0.208746
0.209145
0.209543
0.209942
0.21034
0.210737
0.211135
0.211532
0.211929
0.212326
0.212722
0.213119
0.213515
0.213911
0.214306
0.214701
0.215096
0.215491
0.215886
0.21628
0.216674
0.217067
0.21746
0.217853
0.218246
0.218638
0.21903
0.219421
0.219812
0.220203
0.220593
0.220984
0.221373
0.221763
0.222152
0.222541
0.222929
0.223317
0.223705
0.224093
0.22448
0.224867
0.225254
0.22564
0.226026
0.226412
0.226798
0.227183
0.227568
0.227953
0.228338
0.228722
0.229106
0.22949
0.229873
0.230256
0.230639
0.231022
0.231405
0.231787
0.232169
0.23255
0.232932
0.233313
0.233694
0.234075
0.234455
0.234835
0.235216
0.235595
0.235975
0.236354
0.236733
0.237112
0.23749
0.237869
0.238247
0.238625
0.239002
0.23938
0.239757
0.240134
0.24051
0.240887
0.241263
0.241639
0.242015
0.242391
0.242766
0.243141
0.243516
0.243891
0.244265
0.24464
0.245014
0.245388
0.245761
0.246135
0.246508
0.246881
0.247254
0.247627
0.247999
0.248371
0.248743
0.249115
0.249487
0.249858
0.25023
0.250601
0.250972
0.251343
0.251713
0.252084
0.252454
0.252824
0.253194
0.253563
0.253933
0.254302
0.254671
0.25504
0.255409
0.255778
0.256146
0.256515
0.256883
0.25725
0.257618
0.257986
0.258353
0.25872
0.259087
0.259454
0.25982
0.260187
0.260553
0.260919
0.261285
0.26165
0.262016
0.262381
0.262746
0.263111
0.263475
0.26384
0.264204
0.264568
0.264932
0.265296
0.26566
0.266024
0.266387
0.266751
0.267114
0.267478
0.267841
0.268204
0.268568
0.268931
0.269294
0.269657
0.270021
0.270384
0.270747
0.27111
0.271473
0.271836
0.2722
0.272563
0.272926
0.273289
0.273652
0.274015
0.274378
0.274741
0.275104
0.275466
0.275829
0.276192
0.276554
0.276916
0.277278
0.277641
0.278002
0.278364
0.278726
0.279088
0.279449
0.279811
0.280172
0.280533
0.280894
0.281255
0.281616
0.281977
0.282337
0.282698
0.283058
0.283419
0.283779
0.28414
0.2845
0.28486
0.28522
0.28558
0.28594
0.2863
0.28666
0.28702
0.28738
0.28774
0.288099
0.288459
0.288819
0.289178
0.289538
0.289898
0.290257
0.290617
0.290976
0.291336
0.291695
0.292054
0.292414
0.292773
0.293132
0.293491
0.293851
0.29421
0.294569
0.294928
0.295287
0.295647
0.296006
0.296365
0.296724
0.297083
0.297442
0.297801
0.29816
0.298519
0.298878
0.299237
0.299596
0.299955
0.300314
0.300673
0.301032
0.301391
0.30175
0.302108
0.302467
0.302826
0.303185
0.303544
0.303903
0.304262
0.304621
0.30498
0.305339
0.305698
0.306057
0.306416
0.306776
0.307135
0.307494
0.307853
0.308212
0.308571
0.308931
0.30929
0.309649
0.310009
0.310368
0.310728
0.311087
0.311447
0.311806
0.312166
0.312525
0.312885
0.313245
0.313605
0.313965
0.314324
0.314684
0.315044
0.315404
0.315764
0.316124
0.316485
0.316845
0.317205
0.317565
0.317925
0.318286
0.318646
0.319006
0.319367
0.319727
0.320087
0.320448
0.320808
0.321169
0.321529
0.32189
0.322251
0.322612
0.322972
0.323333
0.323694
0.324055
0.324417
0.324778
0.325139
0.325501
0.325863
0.326225
0.326587
0.326949
0.327311
0.327674
0.328037
0.3284
0.328763
0.329127
0.32949
0.329855
0.330219
0.330583
0.330948
0.331313
0.331678
0.332044
0.332409
0.332775
0.333142
0.333508
0.333875
0.334242
0.334609
0.334976
0.335344
0.335712
0.336079
0.336448
0.336816
0.337184
0.337553
0.337922
0.338291
0.33866
0.339029
0.339398
0.339768
0.340138
0.340508
0.340878
0.341248
0.341618
0.341989
0.34236
0.342731
0.343102
0.343473
0.343845
0.344216
0.344588
0.34496
0.345333
0.345705
0.346078
0.346451
0.346824
0.347198
0.347572
0.347946
0.34832
0.348694
0.349069
0.349444
0.349819
0.350195
0.350571
0.350947
0.351323
0.3517
0.352077
0.352454
0.352831
0.353209
0.353587
0.353965
0.354344
0.354723
0.355102
0.355482
0.355861
0.356242
0.356622
0.357003
0.357384
0.357765
0.358147
0.358529
0.358911
0.359294
0.359677
0.36006
0.360444
0.360827
0.361212
0.361596
0.361982
0.362367
0.362753
0.363139
0.363525
0.363912
0.364299
0.364686
0.365075
0.365463
0.365851
0.36624
0.36663
0.367019
0.36741
0.3678
0.368192
0.368583
0.368975
0.369367
0.36976
0.370153
0.370546
0.37094
0.371335
0.371729
0.372125
0.37252
0.372917
0.373313
0.373711
0.374108
0.374506
0.374904
0.375304
0.375703
0.376103
0.376503
0.376905
0.377306
0.377708
0.37811
0.378514
0.378917
0.379321
0.379725
0.380131
0.380536
0.380942
0.381348
0.381756
0.382163
0.382572
0.38298
0.38339
0.383799
0.38421
0.38462
0.385033
0.385444
0.385857
0.38627
0.386684
0.387098
0.387513
0.387928
0.388345
0.388761
0.389179
0.389597
0.390016
0.390435
0.390855
0.391276
0.391698
0.39212
0.392543
0.392966
0.393391
0.393816
0.394242
0.394668
0.395096
0.395525
0.395954
0.396384
0.396815
0.397247
0.39768
0.398114
0.398549
0.398984
0.399421
0.399858
0.400297
0.400736
0.401177
0.401619
0.402061
0.402505
0.40295
0.403395
0.403842
0.404289
0.404738
0.405188
0.405639
0.406091
0.406543
0.406997
0.407452
0.407908
0.408365
0.408823
0.409282
0.409742
0.410204
0.410665
0.411129
0.411593
0.412059
0.412525
0.412992
0.413461
0.41393
0.414401
0.414872
0.415347
0.415817
0.416296
0.416767
0.41725
0.417722
0.418208
0.418682
0.41917
0.419647
0.420136
0.420615
0.421106
0.421587
0.422081
0.422564
0.42306
0.423545
0.424042
0.424528
0.425028
0.425516
0.426017
0.426506
0.427008
0.427498
0.428
0.428492
0.428993
0.429486
0.429986
0.430478
0.430978
0.431466
0.431966
0.432447
0.432948
0.433418
0.433921
0.434376
0.43488
0.435317
0.435822
0.436233
0.436738
0.437121
0.437623
0.437973
0.438468
0.438781
0.439267
0.439536
0.44001
0.440234
0.440692
0.44087
0.277843
)
;

boundaryField
{
    inlet
    {
        type            calculated;
        value           uniform 3.08149e-33;
    }
    outlet
    {
        type            calculated;
        value           uniform 0.277843;
    }
    emptyWalls
    {
        type            empty;
    }
}


// ************************************************************************* //
