/*--------------------------------*- C++ -*----------------------------------*\
  =========                 |
  \\      /  F ield         | OpenFOAM: The Open Source CFD Toolbox
   \\    /   O peration     | Website:  https://openfoam.org
    \\  /    A nd           | Version:  9
     \\/     M anipulation  |
\*---------------------------------------------------------------------------*/
FoamFile
{
    format      ascii;
    class       volVectorField;
    location    "16950";
    object      Ub;
}
// * * * * * * * * * * * * * * * * * * * * * * * * * * * * * * * * * * * * * //

dimensions      [0 0 0 0 0 0 0];

internalField   nonuniform List<vector> 
1000
(
(1.1362e-05 0 0)
(1.13624e-05 0 0)
(1.13624e-05 0 0)
(1.13626e-05 0 0)
(1.13628e-05 0 0)
(1.1363e-05 0 0)
(1.13633e-05 0 0)
(1.13636e-05 0 0)
(1.1364e-05 0 0)
(1.13644e-05 0 0)
(1.13648e-05 0 0)
(1.13654e-05 0 0)
(1.1366e-05 0 0)
(1.13666e-05 0 0)
(1.13672e-05 0 0)
(1.13677e-05 0 0)
(1.13681e-05 0 0)
(1.13685e-05 0 0)
(1.13689e-05 0 0)
(1.13692e-05 0 0)
(1.13701e-05 0 0)
(1.13728e-05 0 0)
(1.13839e-05 0 0)
(1.14571e-05 0 0)
(1.16174e-05 0 0)
(1.1723e-05 0 0)
(1.17325e-05 0 0)
(1.17343e-05 0 0)
(1.17409e-05 0 0)
(1.17513e-05 0 0)
(1.17631e-05 0 0)
(1.17753e-05 0 0)
(1.17851e-05 0 0)
(1.17918e-05 0 0)
(1.17961e-05 0 0)
(1.17977e-05 0 0)
(1.17972e-05 0 0)
(1.17963e-05 0 0)
(1.17957e-05 0 0)
(1.17952e-05 0 0)
(1.17952e-05 0 0)
(1.17955e-05 0 0)
(1.1796e-05 0 0)
(1.17964e-05 0 0)
(1.1797e-05 0 0)
(1.17977e-05 0 0)
(1.17984e-05 0 0)
(1.1799e-05 0 0)
(1.17996e-05 0 0)
(1.18001e-05 0 0)
(1.18005e-05 0 0)
(1.18008e-05 0 0)
(1.1801e-05 0 0)
(1.18011e-05 0 0)
(1.18011e-05 0 0)
(1.1801e-05 0 0)
(1.18008e-05 0 0)
(1.18004e-05 0 0)
(1.17999e-05 0 0)
(1.17992e-05 0 0)
(1.17983e-05 0 0)
(1.17971e-05 0 0)
(1.17956e-05 0 0)
(1.17936e-05 0 0)
(1.1791e-05 0 0)
(1.17879e-05 0 0)
(1.17841e-05 0 0)
(1.17799e-05 0 0)
(1.17754e-05 0 0)
(1.17706e-05 0 0)
(1.17657e-05 0 0)
(1.17606e-05 0 0)
(1.17555e-05 0 0)
(1.17502e-05 0 0)
(1.17448e-05 0 0)
(1.17394e-05 0 0)
(1.1734e-05 0 0)
(1.17284e-05 0 0)
(1.17229e-05 0 0)
(1.17173e-05 0 0)
(1.17116e-05 0 0)
(1.17059e-05 0 0)
(1.17002e-05 0 0)
(1.16944e-05 0 0)
(1.16886e-05 0 0)
(1.16827e-05 0 0)
(1.16768e-05 0 0)
(1.16709e-05 0 0)
(1.16649e-05 0 0)
(1.16589e-05 0 0)
(1.16529e-05 0 0)
(1.16468e-05 0 0)
(1.16407e-05 0 0)
(1.16347e-05 0 0)
(1.16286e-05 0 0)
(1.16225e-05 0 0)
(1.16164e-05 0 0)
(1.16103e-05 0 0)
(1.16041e-05 0 0)
(1.1598e-05 0 0)
(1.15917e-05 0 0)
(1.15855e-05 0 0)
(1.15792e-05 0 0)
(1.15729e-05 0 0)
(1.15665e-05 0 0)
(1.15602e-05 0 0)
(1.15539e-05 0 0)
(1.15476e-05 0 0)
(1.15413e-05 0 0)
(1.1535e-05 0 0)
(1.15287e-05 0 0)
(1.15222e-05 0 0)
(1.15157e-05 0 0)
(1.15089e-05 0 0)
(1.15019e-05 0 0)
(1.14946e-05 0 0)
(1.1487e-05 0 0)
(1.14791e-05 0 0)
(1.1471e-05 0 0)
(1.14626e-05 0 0)
(1.1454e-05 0 0)
(1.14454e-05 0 0)
(1.14366e-05 0 0)
(1.14278e-05 0 0)
(1.14191e-05 0 0)
(1.14105e-05 0 0)
(1.1402e-05 0 0)
(1.13938e-05 0 0)
(1.13859e-05 0 0)
(1.13784e-05 0 0)
(1.13713e-05 0 0)
(1.13648e-05 0 0)
(1.13587e-05 0 0)
(1.13531e-05 0 0)
(1.13481e-05 0 0)
(1.13434e-05 0 0)
(1.1339e-05 0 0)
(1.13349e-05 0 0)
(1.1331e-05 0 0)
(1.13271e-05 0 0)
(1.13232e-05 0 0)
(1.13192e-05 0 0)
(1.1315e-05 0 0)
(1.13105e-05 0 0)
(1.13058e-05 0 0)
(1.13008e-05 0 0)
(1.12955e-05 0 0)
(1.12899e-05 0 0)
(1.1284e-05 0 0)
(1.1278e-05 0 0)
(1.12717e-05 0 0)
(1.12653e-05 0 0)
(1.12587e-05 0 0)
(1.12521e-05 0 0)
(1.12454e-05 0 0)
(1.12386e-05 0 0)
(1.12319e-05 0 0)
(1.12251e-05 0 0)
(1.12184e-05 0 0)
(1.12117e-05 0 0)
(1.1205e-05 0 0)
(1.11983e-05 0 0)
(1.11917e-05 0 0)
(1.11851e-05 0 0)
(1.11786e-05 0 0)
(1.11721e-05 0 0)
(1.11656e-05 0 0)
(1.11591e-05 0 0)
(1.11526e-05 0 0)
(1.11462e-05 0 0)
(1.11397e-05 0 0)
(1.11332e-05 0 0)
(1.11268e-05 0 0)
(1.11203e-05 0 0)
(1.11139e-05 0 0)
(1.11074e-05 0 0)
(1.11009e-05 0 0)
(1.10944e-05 0 0)
(1.1088e-05 0 0)
(1.10814e-05 0 0)
(1.10749e-05 0 0)
(1.10684e-05 0 0)
(1.10618e-05 0 0)
(1.10553e-05 0 0)
(1.10487e-05 0 0)
(1.10421e-05 0 0)
(1.10355e-05 0 0)
(1.10288e-05 0 0)
(1.10222e-05 0 0)
(1.10155e-05 0 0)
(1.10088e-05 0 0)
(1.10022e-05 0 0)
(1.09954e-05 0 0)
(1.09887e-05 0 0)
(1.0982e-05 0 0)
(1.09752e-05 0 0)
(1.09684e-05 0 0)
(1.09617e-05 0 0)
(1.09549e-05 0 0)
(1.0948e-05 0 0)
(1.09412e-05 0 0)
(1.09343e-05 0 0)
(1.09275e-05 0 0)
(1.09206e-05 0 0)
(1.09137e-05 0 0)
(1.09067e-05 0 0)
(1.08998e-05 0 0)
(1.08928e-05 0 0)
(1.08859e-05 0 0)
(1.08789e-05 0 0)
(1.08719e-05 0 0)
(1.08648e-05 0 0)
(1.08578e-05 0 0)
(1.08507e-05 0 0)
(1.08436e-05 0 0)
(1.08365e-05 0 0)
(1.08294e-05 0 0)
(1.08223e-05 0 0)
(1.08151e-05 0 0)
(1.0808e-05 0 0)
(1.08008e-05 0 0)
(1.07936e-05 0 0)
(1.07864e-05 0 0)
(1.07792e-05 0 0)
(1.0772e-05 0 0)
(1.07647e-05 0 0)
(1.07575e-05 0 0)
(1.07502e-05 0 0)
(1.0743e-05 0 0)
(1.07357e-05 0 0)
(1.07284e-05 0 0)
(1.07211e-05 0 0)
(1.07138e-05 0 0)
(1.07064e-05 0 0)
(1.06991e-05 0 0)
(1.06917e-05 0 0)
(1.06844e-05 0 0)
(1.0677e-05 0 0)
(1.06697e-05 0 0)
(1.06623e-05 0 0)
(1.06549e-05 0 0)
(1.06474e-05 0 0)
(1.06399e-05 0 0)
(1.06324e-05 0 0)
(1.06248e-05 0 0)
(1.06172e-05 0 0)
(1.06095e-05 0 0)
(1.06016e-05 0 0)
(1.05937e-05 0 0)
(1.05857e-05 0 0)
(1.05776e-05 0 0)
(1.05693e-05 0 0)
(1.0561e-05 0 0)
(1.05525e-05 0 0)
(1.05439e-05 0 0)
(1.05353e-05 0 0)
(1.05266e-05 0 0)
(1.05178e-05 0 0)
(1.05089e-05 0 0)
(1.05001e-05 0 0)
(1.04912e-05 0 0)
(1.04824e-05 0 0)
(1.04736e-05 0 0)
(1.0465e-05 0 0)
(1.04564e-05 0 0)
(1.04479e-05 0 0)
(1.04397e-05 0 0)
(1.04315e-05 0 0)
(1.04236e-05 0 0)
(1.04159e-05 0 0)
(1.04084e-05 0 0)
(1.04012e-05 0 0)
(1.03941e-05 0 0)
(1.03872e-05 0 0)
(1.03806e-05 0 0)
(1.03741e-05 0 0)
(1.03677e-05 0 0)
(1.03614e-05 0 0)
(1.03553e-05 0 0)
(1.03491e-05 0 0)
(1.0343e-05 0 0)
(1.03369e-05 0 0)
(1.03307e-05 0 0)
(1.03245e-05 0 0)
(1.03182e-05 0 0)
(1.03119e-05 0 0)
(1.03054e-05 0 0)
(1.02988e-05 0 0)
(1.0292e-05 0 0)
(1.02852e-05 0 0)
(1.02783e-05 0 0)
(1.02712e-05 0 0)
(1.0264e-05 0 0)
(1.02568e-05 0 0)
(1.02494e-05 0 0)
(1.0242e-05 0 0)
(1.02346e-05 0 0)
(1.0227e-05 0 0)
(1.02195e-05 0 0)
(1.02119e-05 0 0)
(1.02042e-05 0 0)
(1.01966e-05 0 0)
(1.01889e-05 0 0)
(1.01813e-05 0 0)
(1.01736e-05 0 0)
(1.01659e-05 0 0)
(1.01583e-05 0 0)
(1.01506e-05 0 0)
(1.0143e-05 0 0)
(1.01353e-05 0 0)
(1.01277e-05 0 0)
(1.012e-05 0 0)
(1.01124e-05 0 0)
(1.01048e-05 0 0)
(1.00971e-05 0 0)
(1.00895e-05 0 0)
(1.00819e-05 0 0)
(1.00743e-05 0 0)
(1.00666e-05 0 0)
(1.0059e-05 0 0)
(1.00514e-05 0 0)
(1.00437e-05 0 0)
(1.00361e-05 0 0)
(1.00284e-05 0 0)
(1.00207e-05 0 0)
(1.0013e-05 0 0)
(1.00053e-05 0 0)
(9.99763e-06 0 0)
(9.98991e-06 0 0)
(9.98218e-06 0 0)
(9.97443e-06 0 0)
(9.96667e-06 0 0)
(9.9589e-06 0 0)
(9.95111e-06 0 0)
(9.9433e-06 0 0)
(9.93548e-06 0 0)
(9.92765e-06 0 0)
(9.9198e-06 0 0)
(9.91193e-06 0 0)
(9.90405e-06 0 0)
(9.89615e-06 0 0)
(9.88824e-06 0 0)
(9.88031e-06 0 0)
(9.87236e-06 0 0)
(9.8644e-06 0 0)
(9.85642e-06 0 0)
(9.84843e-06 0 0)
(9.84041e-06 0 0)
(9.83239e-06 0 0)
(9.82434e-06 0 0)
(9.81628e-06 0 0)
(9.8082e-06 0 0)
(9.80011e-06 0 0)
(9.79199e-06 0 0)
(9.78386e-06 0 0)
(9.77572e-06 0 0)
(9.76755e-06 0 0)
(9.75937e-06 0 0)
(9.75118e-06 0 0)
(9.74296e-06 0 0)
(9.73473e-06 0 0)
(9.72648e-06 0 0)
(9.71821e-06 0 0)
(9.70993e-06 0 0)
(9.70163e-06 0 0)
(9.69332e-06 0 0)
(9.68499e-06 0 0)
(9.67664e-06 0 0)
(9.66828e-06 0 0)
(9.6599e-06 0 0)
(9.65151e-06 0 0)
(9.6431e-06 0 0)
(9.63468e-06 0 0)
(9.62625e-06 0 0)
(9.6178e-06 0 0)
(9.60933e-06 0 0)
(9.60085e-06 0 0)
(9.59236e-06 0 0)
(9.58385e-06 0 0)
(9.57533e-06 0 0)
(9.5668e-06 0 0)
(9.55825e-06 0 0)
(9.54969e-06 0 0)
(9.54111e-06 0 0)
(9.53253e-06 0 0)
(9.52392e-06 0 0)
(9.51531e-06 0 0)
(9.50667e-06 0 0)
(9.49802e-06 0 0)
(9.48936e-06 0 0)
(9.48067e-06 0 0)
(9.47197e-06 0 0)
(9.46324e-06 0 0)
(9.45448e-06 0 0)
(9.4457e-06 0 0)
(9.43688e-06 0 0)
(9.42803e-06 0 0)
(9.41914e-06 0 0)
(9.41021e-06 0 0)
(9.40122e-06 0 0)
(9.39219e-06 0 0)
(9.38311e-06 0 0)
(9.37397e-06 0 0)
(9.36477e-06 0 0)
(9.35551e-06 0 0)
(9.34619e-06 0 0)
(9.33681e-06 0 0)
(9.32738e-06 0 0)
(9.31788e-06 0 0)
(9.30833e-06 0 0)
(9.29873e-06 0 0)
(9.28909e-06 0 0)
(9.2794e-06 0 0)
(9.26968e-06 0 0)
(9.25994e-06 0 0)
(9.25018e-06 0 0)
(9.24042e-06 0 0)
(9.23065e-06 0 0)
(9.2209e-06 0 0)
(9.21117e-06 0 0)
(9.20148e-06 0 0)
(9.19182e-06 0 0)
(9.18223e-06 0 0)
(9.17269e-06 0 0)
(9.16323e-06 0 0)
(9.15385e-06 0 0)
(9.14455e-06 0 0)
(9.13535e-06 0 0)
(9.12624e-06 0 0)
(9.11722e-06 0 0)
(9.10831e-06 0 0)
(9.09948e-06 0 0)
(9.09075e-06 0 0)
(9.0821e-06 0 0)
(9.07352e-06 0 0)
(9.06502e-06 0 0)
(9.05657e-06 0 0)
(9.04817e-06 0 0)
(9.0398e-06 0 0)
(9.03146e-06 0 0)
(9.02312e-06 0 0)
(9.01479e-06 0 0)
(9.00644e-06 0 0)
(8.99807e-06 0 0)
(8.98967e-06 0 0)
(8.98122e-06 0 0)
(8.97273e-06 0 0)
(8.96418e-06 0 0)
(8.95558e-06 0 0)
(8.94691e-06 0 0)
(8.93817e-06 0 0)
(8.92937e-06 0 0)
(8.92051e-06 0 0)
(8.91157e-06 0 0)
(8.90258e-06 0 0)
(8.89353e-06 0 0)
(8.88441e-06 0 0)
(8.87525e-06 0 0)
(8.86603e-06 0 0)
(8.85676e-06 0 0)
(8.84745e-06 0 0)
(8.83811e-06 0 0)
(8.82872e-06 0 0)
(8.8193e-06 0 0)
(8.80986e-06 0 0)
(8.80038e-06 0 0)
(8.79088e-06 0 0)
(8.78136e-06 0 0)
(8.77182e-06 0 0)
(8.76227e-06 0 0)
(8.75269e-06 0 0)
(8.7431e-06 0 0)
(8.7335e-06 0 0)
(8.72388e-06 0 0)
(8.71425e-06 0 0)
(8.70461e-06 0 0)
(8.69495e-06 0 0)
(8.68528e-06 0 0)
(8.6756e-06 0 0)
(8.6659e-06 0 0)
(8.65619e-06 0 0)
(8.64646e-06 0 0)
(8.63672e-06 0 0)
(8.62696e-06 0 0)
(8.61718e-06 0 0)
(8.60739e-06 0 0)
(8.59758e-06 0 0)
(8.58775e-06 0 0)
(8.5779e-06 0 0)
(8.56804e-06 0 0)
(8.55815e-06 0 0)
(8.54824e-06 0 0)
(8.53831e-06 0 0)
(8.52835e-06 0 0)
(8.51838e-06 0 0)
(8.50838e-06 0 0)
(8.49836e-06 0 0)
(8.48831e-06 0 0)
(8.47824e-06 0 0)
(8.46815e-06 0 0)
(8.45803e-06 0 0)
(8.44788e-06 0 0)
(8.43771e-06 0 0)
(8.42752e-06 0 0)
(8.41729e-06 0 0)
(8.40705e-06 0 0)
(8.39677e-06 0 0)
(8.38647e-06 0 0)
(8.37614e-06 0 0)
(8.36578e-06 0 0)
(8.3554e-06 0 0)
(8.34499e-06 0 0)
(8.33455e-06 0 0)
(8.32408e-06 0 0)
(8.31358e-06 0 0)
(8.30306e-06 0 0)
(8.29251e-06 0 0)
(8.28192e-06 0 0)
(8.27131e-06 0 0)
(8.26067e-06 0 0)
(8.25e-06 0 0)
(8.2393e-06 0 0)
(8.22857e-06 0 0)
(8.2178e-06 0 0)
(8.20701e-06 0 0)
(8.19619e-06 0 0)
(8.18534e-06 0 0)
(8.17446e-06 0 0)
(8.16354e-06 0 0)
(8.1526e-06 0 0)
(8.14163e-06 0 0)
(8.13062e-06 0 0)
(8.11958e-06 0 0)
(8.10851e-06 0 0)
(8.09741e-06 0 0)
(8.08628e-06 0 0)
(8.07512e-06 0 0)
(8.06392e-06 0 0)
(8.05269e-06 0 0)
(8.04143e-06 0 0)
(8.03014e-06 0 0)
(8.01881e-06 0 0)
(8.00746e-06 0 0)
(7.99607e-06 0 0)
(7.98464e-06 0 0)
(7.97319e-06 0 0)
(7.9617e-06 0 0)
(7.95017e-06 0 0)
(7.93862e-06 0 0)
(7.92703e-06 0 0)
(7.9154e-06 0 0)
(7.90374e-06 0 0)
(7.89204e-06 0 0)
(7.88031e-06 0 0)
(7.86854e-06 0 0)
(7.85674e-06 0 0)
(7.84489e-06 0 0)
(7.83301e-06 0 0)
(7.82109e-06 0 0)
(7.80913e-06 0 0)
(7.79713e-06 0 0)
(7.78508e-06 0 0)
(7.77299e-06 0 0)
(7.76085e-06 0 0)
(7.74867e-06 0 0)
(7.73644e-06 0 0)
(7.72415e-06 0 0)
(7.71182e-06 0 0)
(7.69943e-06 0 0)
(7.68699e-06 0 0)
(7.67449e-06 0 0)
(7.66193e-06 0 0)
(7.64931e-06 0 0)
(7.63662e-06 0 0)
(7.62388e-06 0 0)
(7.61107e-06 0 0)
(7.5982e-06 0 0)
(7.58527e-06 0 0)
(7.57227e-06 0 0)
(7.5592e-06 0 0)
(7.54607e-06 0 0)
(7.53287e-06 0 0)
(7.51961e-06 0 0)
(7.50629e-06 0 0)
(7.49291e-06 0 0)
(7.47947e-06 0 0)
(7.46597e-06 0 0)
(7.45242e-06 0 0)
(7.43882e-06 0 0)
(7.42517e-06 0 0)
(7.41148e-06 0 0)
(7.39774e-06 0 0)
(7.38397e-06 0 0)
(7.37016e-06 0 0)
(7.35633e-06 0 0)
(7.34246e-06 0 0)
(7.32857e-06 0 0)
(7.31466e-06 0 0)
(7.30073e-06 0 0)
(7.28679e-06 0 0)
(7.27284e-06 0 0)
(7.25889e-06 0 0)
(7.24492e-06 0 0)
(7.23095e-06 0 0)
(7.21697e-06 0 0)
(7.20299e-06 0 0)
(7.18901e-06 0 0)
(7.17502e-06 0 0)
(7.16103e-06 0 0)
(7.14703e-06 0 0)
(7.13302e-06 0 0)
(7.11899e-06 0 0)
(7.10495e-06 0 0)
(7.09089e-06 0 0)
(7.0768e-06 0 0)
(7.06269e-06 0 0)
(7.04855e-06 0 0)
(7.03436e-06 0 0)
(7.02014e-06 0 0)
(7.00587e-06 0 0)
(6.99155e-06 0 0)
(6.97717e-06 0 0)
(6.96275e-06 0 0)
(6.94826e-06 0 0)
(6.93372e-06 0 0)
(6.91911e-06 0 0)
(6.90445e-06 0 0)
(6.88973e-06 0 0)
(6.87496e-06 0 0)
(6.86013e-06 0 0)
(6.84527e-06 0 0)
(6.83037e-06 0 0)
(6.81544e-06 0 0)
(6.80049e-06 0 0)
(6.78554e-06 0 0)
(6.77061e-06 0 0)
(6.75571e-06 0 0)
(6.74087e-06 0 0)
(6.72611e-06 0 0)
(6.71146e-06 0 0)
(6.69695e-06 0 0)
(6.68261e-06 0 0)
(6.66849e-06 0 0)
(6.65463e-06 0 0)
(6.64108e-06 0 0)
(6.62786e-06 0 0)
(6.61505e-06 0 0)
(6.60267e-06 0 0)
(6.5908e-06 0 0)
(6.57946e-06 0 0)
(6.56872e-06 0 0)
(6.55858e-06 0 0)
(6.5491e-06 0 0)
(6.5403e-06 0 0)
(6.53219e-06 0 0)
(6.52478e-06 0 0)
(6.51808e-06 0 0)
(6.51207e-06 0 0)
(6.50671e-06 0 0)
(6.50199e-06 0 0)
(6.49787e-06 0 0)
(6.49432e-06 0 0)
(6.49127e-06 0 0)
(6.48869e-06 0 0)
(6.48649e-06 0 0)
(6.48462e-06 0 0)
(6.48297e-06 0 0)
(6.48145e-06 0 0)
(6.47988e-06 0 0)
(6.47798e-06 0 0)
(6.47529e-06 0 0)
(6.47101e-06 0 0)
(6.46375e-06 0 0)
(6.45106e-06 0 0)
(6.42863e-06 0 0)
(6.38904e-06 0 0)
(6.31981e-06 0 0)
(6.20125e-06 0 0)
(6.00545e-06 0 0)
(5.70067e-06 0 0)
(5.267e-06 0 0)
(4.72224e-06 0 0)
(4.13625e-06 0 0)
(3.60501e-06 0 0)
(3.19706e-06 0 0)
(2.92495e-06 0 0)
(2.76141e-06 0 0)
(2.66962e-06 0 0)
(2.62015e-06 0 0)
(2.5941e-06 0 0)
(2.58055e-06 0 0)
(2.57356e-06 0 0)
(2.56996e-06 0 0)
(2.56812e-06 0 0)
(2.56719e-06 0 0)
(2.56672e-06 0 0)
(2.56648e-06 0 0)
(2.56637e-06 0 0)
(2.56632e-06 0 0)
(2.56631e-06 0 0)
(2.5663e-06 0 0)
(2.56631e-06 0 0)
(2.56632e-06 0 0)
(2.56633e-06 0 0)
(2.56634e-06 0 0)
(2.56636e-06 0 0)
(2.56637e-06 0 0)
(2.56638e-06 0 0)
(2.56639e-06 0 0)
(2.56639e-06 0 0)
(2.5664e-06 0 0)
(2.56641e-06 0 0)
(2.56641e-06 0 0)
(2.56641e-06 0 0)
(2.56641e-06 0 0)
(2.56641e-06 0 0)
(2.56641e-06 0 0)
(2.56641e-06 0 0)
(2.56641e-06 0 0)
(2.56641e-06 0 0)
(2.5664e-06 0 0)
(2.56639e-06 0 0)
(2.56639e-06 0 0)
(2.56638e-06 0 0)
(2.56637e-06 0 0)
(2.56635e-06 0 0)
(2.56634e-06 0 0)
(2.56633e-06 0 0)
(2.56631e-06 0 0)
(2.5663e-06 0 0)
(2.56628e-06 0 0)
(2.56626e-06 0 0)
(2.56624e-06 0 0)
(2.56622e-06 0 0)
(2.5662e-06 0 0)
(2.56618e-06 0 0)
(2.56615e-06 0 0)
(2.56613e-06 0 0)
(2.56611e-06 0 0)
(2.56608e-06 0 0)
(2.56605e-06 0 0)
(2.56603e-06 0 0)
(2.566e-06 0 0)
(2.56597e-06 0 0)
(2.56594e-06 0 0)
(2.56591e-06 0 0)
(2.56588e-06 0 0)
(2.56585e-06 0 0)
(2.56581e-06 0 0)
(2.56578e-06 0 0)
(2.56574e-06 0 0)
(2.5657e-06 0 0)
(2.56566e-06 0 0)
(2.56562e-06 0 0)
(2.56558e-06 0 0)
(2.56554e-06 0 0)
(2.56549e-06 0 0)
(2.56544e-06 0 0)
(2.56539e-06 0 0)
(2.56533e-06 0 0)
(2.56528e-06 0 0)
(2.56521e-06 0 0)
(2.56515e-06 0 0)
(2.56508e-06 0 0)
(2.56501e-06 0 0)
(2.56494e-06 0 0)
(2.56486e-06 0 0)
(2.56477e-06 0 0)
(2.56469e-06 0 0)
(2.5646e-06 0 0)
(2.5645e-06 0 0)
(2.5644e-06 0 0)
(2.56429e-06 0 0)
(2.56419e-06 0 0)
(2.56407e-06 0 0)
(2.56395e-06 0 0)
(2.56383e-06 0 0)
(2.56371e-06 0 0)
(2.56358e-06 0 0)
(2.56344e-06 0 0)
(2.56331e-06 0 0)
(2.56317e-06 0 0)
(2.56303e-06 0 0)
(2.56289e-06 0 0)
(2.56274e-06 0 0)
(2.5626e-06 0 0)
(2.56246e-06 0 0)
(2.56231e-06 0 0)
(2.56217e-06 0 0)
(2.56203e-06 0 0)
(2.56189e-06 0 0)
(2.56176e-06 0 0)
(2.56163e-06 0 0)
(2.5615e-06 0 0)
(2.56138e-06 0 0)
(2.56127e-06 0 0)
(2.56117e-06 0 0)
(2.56107e-06 0 0)
(2.56098e-06 0 0)
(2.5609e-06 0 0)
(2.56083e-06 0 0)
(2.56076e-06 0 0)
(2.56071e-06 0 0)
(2.56068e-06 0 0)
(2.56065e-06 0 0)
(2.56063e-06 0 0)
(2.56063e-06 0 0)
(2.56063e-06 0 0)
(2.56063e-06 0 0)
(2.56065e-06 0 0)
(2.56069e-06 0 0)
(2.56074e-06 0 0)
(2.5608e-06 0 0)
(2.56087e-06 0 0)
(2.56095e-06 0 0)
(2.56104e-06 0 0)
(2.56113e-06 0 0)
(2.56124e-06 0 0)
(2.56135e-06 0 0)
(2.56146e-06 0 0)
(2.56158e-06 0 0)
(2.56171e-06 0 0)
(2.56183e-06 0 0)
(2.56196e-06 0 0)
(2.56209e-06 0 0)
(2.56222e-06 0 0)
(2.56235e-06 0 0)
(2.56248e-06 0 0)
(2.56261e-06 0 0)
(2.56273e-06 0 0)
(2.56285e-06 0 0)
(2.56297e-06 0 0)
(2.56308e-06 0 0)
(2.5632e-06 0 0)
(2.5633e-06 0 0)
(2.5634e-06 0 0)
(2.5635e-06 0 0)
(2.56359e-06 0 0)
(2.56368e-06 0 0)
(2.56376e-06 0 0)
(2.56384e-06 0 0)
(2.56392e-06 0 0)
(2.56399e-06 0 0)
(2.56405e-06 0 0)
(2.56411e-06 0 0)
(2.56417e-06 0 0)
(2.56422e-06 0 0)
(2.56427e-06 0 0)
(2.56432e-06 0 0)
(2.56437e-06 0 0)
(2.56441e-06 0 0)
(2.56445e-06 0 0)
(2.56449e-06 0 0)
(2.56452e-06 0 0)
(2.56456e-06 0 0)
(2.56459e-06 0 0)
(2.56462e-06 0 0)
(2.56466e-06 0 0)
(2.56469e-06 0 0)
(2.56472e-06 0 0)
(2.56475e-06 0 0)
(2.56478e-06 0 0)
(2.56481e-06 0 0)
(2.56484e-06 0 0)
(2.56486e-06 0 0)
(2.56489e-06 0 0)
(2.56492e-06 0 0)
(2.56495e-06 0 0)
(2.56498e-06 0 0)
(2.56501e-06 0 0)
(2.56504e-06 0 0)
(2.56507e-06 0 0)
(2.5651e-06 0 0)
(2.56513e-06 0 0)
(2.56516e-06 0 0)
(2.56519e-06 0 0)
(2.56522e-06 0 0)
(2.56525e-06 0 0)
(2.56528e-06 0 0)
(2.56531e-06 0 0)
(2.56534e-06 0 0)
(2.56537e-06 0 0)
(2.5654e-06 0 0)
(2.56543e-06 0 0)
(2.56545e-06 0 0)
(2.56548e-06 0 0)
(2.56551e-06 0 0)
(2.56554e-06 0 0)
(2.56557e-06 0 0)
(2.56559e-06 0 0)
(2.56562e-06 0 0)
(2.56565e-06 0 0)
(2.56567e-06 0 0)
(2.5657e-06 0 0)
(2.56573e-06 0 0)
(2.56576e-06 0 0)
(2.56578e-06 0 0)
(2.56581e-06 0 0)
(2.56584e-06 0 0)
(2.56586e-06 0 0)
(2.56589e-06 0 0)
(2.56592e-06 0 0)
(2.56594e-06 0 0)
(2.56596e-06 0 0)
(2.56599e-06 0 0)
(2.56601e-06 0 0)
(2.56603e-06 0 0)
(2.56605e-06 0 0)
(2.56607e-06 0 0)
(2.56609e-06 0 0)
(2.5661e-06 0 0)
(2.56612e-06 0 0)
(2.56613e-06 0 0)
(2.56614e-06 0 0)
(2.56616e-06 0 0)
(2.56617e-06 0 0)
(2.56617e-06 0 0)
(2.56618e-06 0 0)
(2.56619e-06 0 0)
(2.56619e-06 0 0)
(2.56619e-06 0 0)
(2.5662e-06 0 0)
(2.5662e-06 0 0)
(2.5662e-06 0 0)
(2.5662e-06 0 0)
(2.56619e-06 0 0)
(2.56619e-06 0 0)
(2.56619e-06 0 0)
(2.56618e-06 0 0)
(2.56618e-06 0 0)
(2.56617e-06 0 0)
(2.56616e-06 0 0)
(2.56615e-06 0 0)
(2.56614e-06 0 0)
(2.56613e-06 0 0)
(2.56612e-06 0 0)
(2.56611e-06 0 0)
(2.56609e-06 0 0)
(2.56608e-06 0 0)
(2.56606e-06 0 0)
(2.56605e-06 0 0)
(2.56603e-06 0 0)
(2.56602e-06 0 0)
(2.566e-06 0 0)
(2.56598e-06 0 0)
(2.56596e-06 0 0)
(2.56594e-06 0 0)
(2.56592e-06 0 0)
(2.56589e-06 0 0)
(2.56587e-06 0 0)
(2.56585e-06 0 0)
(2.56582e-06 0 0)
(2.56579e-06 0 0)
(2.56577e-06 0 0)
(2.56574e-06 0 0)
(2.5657e-06 0 0)
(2.56567e-06 0 0)
(2.56564e-06 0 0)
(2.5656e-06 0 0)
(2.56556e-06 0 0)
(2.56552e-06 0 0)
(2.56548e-06 0 0)
(2.56543e-06 0 0)
(2.56538e-06 0 0)
(2.56533e-06 0 0)
(2.56528e-06 0 0)
(2.56522e-06 0 0)
(2.56516e-06 0 0)
(2.5651e-06 0 0)
(2.56503e-06 0 0)
(2.56497e-06 0 0)
(2.56489e-06 0 0)
(2.56482e-06 0 0)
(2.56474e-06 0 0)
(2.56465e-06 0 0)
(2.56456e-06 0 0)
(2.56447e-06 0 0)
(2.56438e-06 0 0)
(2.56428e-06 0 0)
(2.56418e-06 0 0)
(2.56407e-06 0 0)
(2.56396e-06 0 0)
(2.56385e-06 0 0)
(2.56374e-06 0 0)
(2.56362e-06 0 0)
(2.5635e-06 0 0)
(2.56338e-06 0 0)
(2.56325e-06 0 0)
(2.56313e-06 0 0)
(2.563e-06 0 0)
(2.56288e-06 0 0)
(2.56275e-06 0 0)
(2.56262e-06 0 0)
(2.5625e-06 0 0)
(2.56237e-06 0 0)
(2.56225e-06 0 0)
(2.56213e-06 0 0)
(2.56201e-06 0 0)
(2.5619e-06 0 0)
(2.56179e-06 0 0)
)
;

boundaryField
{
    inlet
    {
        type            fixedValue;
        value           uniform (1.13622e-05 0 0);
    }
    outlet
    {
        type            zeroGradient;
    }
    emptyWalls
    {
        type            empty;
    }
}


// ************************************************************************* //
