/*--------------------------------*- C++ -*----------------------------------*\
  =========                 |
  \\      /  F ield         | OpenFOAM: The Open Source CFD Toolbox
   \\    /   O peration     | Website:  https://openfoam.org
    \\  /    A nd           | Version:  9
     \\/     M anipulation  |
\*---------------------------------------------------------------------------*/
FoamFile
{
    format      ascii;
    class       volScalarField;
    location    "17400";
    object      Fa;
}
// * * * * * * * * * * * * * * * * * * * * * * * * * * * * * * * * * * * * * //

dimensions      [0 0 0 0 0 0 0];

internalField   nonuniform List<scalar> 
1000
(
0.194802
0.194803
0.194761
0.194791
0.194691
0.194773
0.194593
0.19473
0.19448
0.194611
0.194377
0.194424
0.194273
0.194241
0.194145
0.194093
0.194014
0.193966
0.193909
0.193868
0.193815
0.193715
0.193332
0.191406
0.175683
0.155116
0.151665
0.150395
0.149689
0.149198
0.148811
0.148489
0.148206
0.147951
0.14773
0.147518
0.147329
0.147157
0.146995
0.146848
0.146711
0.146587
0.146467
0.146357
0.146263
0.146158
0.146083
0.145987
0.145925
0.145843
0.145791
0.145727
0.145668
0.145616
0.145562
0.14551
0.145462
0.145411
0.145364
0.145322
0.145286
0.145254
0.145232
0.145216
0.145204
0.145194
0.145188
0.145182
0.145181
0.145179
0.145179
0.145183
0.145196
0.145226
0.145284
0.145381
0.145519
0.145694
0.145895
0.146108
0.146322
0.146529
0.146727
0.146912
0.14708
0.147227
0.147344
0.147423
0.147455
0.147435
0.14736
0.147232
0.147056
0.146842
0.146601
0.146346
0.146088
0.145838
0.145605
0.145396
0.145216
0.145067
0.144949
0.14486
0.144797
0.144756
0.144733
0.144724
0.144723
0.144729
0.144736
0.144743
0.144747
0.144747
0.144743
0.144734
0.144719
0.1447
0.144676
0.144649
0.144618
0.144585
0.144549
0.144513
0.144475
0.144436
0.144397
0.144358
0.144319
0.144281
0.144242
0.144204
0.144167
0.14413
0.144094
0.144058
0.144023
0.143989
0.143956
0.143923
0.143891
0.143859
0.143828
0.143798
0.143769
0.143741
0.143713
0.143686
0.14366
0.143634
0.143609
0.143585
0.143562
0.143539
0.143518
0.143497
0.143476
0.143456
0.143437
0.143419
0.143402
0.143385
0.14337
0.143355
0.143341
0.143328
0.143316
0.143305
0.143295
0.143285
0.143277
0.143268
0.14326
0.143252
0.143244
0.143236
0.143228
0.143221
0.143214
0.143207
0.143202
0.143196
0.143192
0.143188
0.143185
0.143182
0.143178
0.143174
0.14317
0.143165
0.143161
0.143156
0.143153
0.143153
0.143156
0.143165
0.143181
0.143205
0.143238
0.143281
0.143335
0.1434
0.143476
0.143563
0.143659
0.143764
0.143876
0.143994
0.144114
0.144236
0.144355
0.14447
0.144576
0.144672
0.144754
0.14482
0.144867
0.144893
0.144896
0.144877
0.144835
0.14477
0.144684
0.144581
0.14446
0.144328
0.144185
0.144038
0.143887
0.143738
0.143592
0.143454
0.143323
0.143203
0.143094
0.142996
0.14291
0.142835
0.142771
0.142717
0.142671
0.142633
0.142602
0.142576
0.142554
0.142535
0.142518
0.142501
0.142486
0.14247
0.142453
0.142436
0.142417
0.142396
0.142374
0.14235
0.142325
0.142298
0.142269
0.142239
0.142209
0.142177
0.142144
0.142111
0.142077
0.142042
0.142008
0.141973
0.141938
0.141903
0.141868
0.141834
0.141799
0.141765
0.141732
0.141698
0.141665
0.141633
0.1416
0.141569
0.141537
0.141507
0.141477
0.141447
0.141418
0.141389
0.141361
0.141333
0.141306
0.14128
0.141254
0.141229
0.141204
0.14118
0.141157
0.141134
0.141111
0.14109
0.141069
0.141048
0.141028
0.141009
0.140991
0.140973
0.140956
0.14094
0.140924
0.140909
0.140894
0.140881
0.140867
0.140855
0.140842
0.140831
0.140819
0.140808
0.140798
0.140788
0.140778
0.140769
0.14076
0.140752
0.140744
0.140736
0.140728
0.140721
0.140714
0.140707
0.140701
0.140695
0.140689
0.140683
0.140678
0.140673
0.140669
0.140665
0.140663
0.140663
0.140665
0.140669
0.140676
0.140686
0.1407
0.140719
0.140742
0.14077
0.140804
0.140842
0.140887
0.140936
0.140992
0.141052
0.141116
0.141185
0.141258
0.141333
0.141409
0.141487
0.141564
0.14164
0.141712
0.141781
0.141844
0.141901
0.14195
0.14199
0.14202
0.14204
0.142048
0.142044
0.142028
0.142
0.14196
0.141908
0.141846
0.141774
0.141694
0.141606
0.141512
0.141413
0.141311
0.141207
0.141103
0.141
0.140899
0.140801
0.140707
0.140617
0.140533
0.140453
0.14038
0.140311
0.140249
0.140192
0.14014
0.140092
0.140049
0.14001
0.139974
0.139941
0.13991
0.139882
0.139855
0.139829
0.139804
0.13978
0.139756
0.139732
0.139707
0.139683
0.139657
0.139632
0.139605
0.139578
0.13955
0.139522
0.139493
0.139463
0.139432
0.139402
0.13937
0.139338
0.139306
0.139274
0.139241
0.139208
0.139176
0.139143
0.13911
0.139077
0.139044
0.139012
0.138979
0.138947
0.138915
0.138884
0.138853
0.138822
0.138791
0.138761
0.138731
0.138702
0.138673
0.138645
0.138617
0.138589
0.138562
0.138536
0.13851
0.138484
0.138459
0.138434
0.13841
0.138386
0.138363
0.138341
0.138319
0.138297
0.138276
0.138255
0.138236
0.138216
0.138197
0.138178
0.138161
0.138143
0.138126
0.13811
0.138093
0.138078
0.138063
0.138048
0.138034
0.13802
0.138006
0.137993
0.13798
0.137968
0.137956
0.137944
0.137933
0.137921
0.13791
0.1379
0.137889
0.137879
0.137869
0.13786
0.13785
0.137841
0.137832
0.137824
0.137816
0.137808
0.137801
0.137794
0.137788
0.137783
0.137778
0.137775
0.137773
0.137772
0.137773
0.137776
0.137781
0.137788
0.137797
0.137809
0.137824
0.137841
0.137862
0.137885
0.137912
0.137941
0.137974
0.13801
0.138048
0.138089
0.138132
0.138178
0.138225
0.138274
0.138323
0.138373
0.138423
0.138473
0.138521
0.138567
0.138611
0.138652
0.138689
0.138722
0.13875
0.138773
0.13879
0.138801
0.138805
0.138802
0.138793
0.138775
0.138751
0.13872
0.138682
0.138637
0.138585
0.138528
0.138466
0.138398
0.138327
0.138252
0.138175
0.138095
0.138014
0.137932
0.137851
0.137769
0.137689
0.137611
0.137534
0.13746
0.137388
0.13732
0.137254
0.137192
0.137132
0.137076
0.137022
0.136972
0.136925
0.13688
0.136837
0.136797
0.136759
0.136723
0.136688
0.136655
0.136622
0.136591
0.136561
0.136531
0.136502
0.136473
0.136444
0.136415
0.136387
0.136358
0.136329
0.1363
0.13627
0.136241
0.136211
0.13618
0.13615
0.136119
0.136088
0.136056
0.136024
0.135992
0.13596
0.135928
0.135895
0.135863
0.13583
0.135798
0.135765
0.135732
0.1357
0.135667
0.135635
0.135602
0.13557
0.135538
0.135506
0.135475
0.135443
0.135412
0.135381
0.135351
0.13532
0.13529
0.135261
0.135231
0.135202
0.135173
0.135145
0.135117
0.135089
0.135062
0.135034
0.135008
0.134981
0.134956
0.134929
0.134905
0.134879
0.134855
0.13483
0.134807
0.134783
0.13476
0.134737
0.134715
0.134693
0.134671
0.134649
0.134629
0.134608
0.134588
0.134568
0.134548
0.13453
0.134511
0.134492
0.134475
0.134458
0.13444
0.134424
0.134408
0.134393
0.134379
0.134364
0.134351
0.134339
0.134326
0.134316
0.134306
0.134296
0.134289
0.134283
0.134276
0.134273
0.13427
0.134267
0.134269
0.13427
0.134271
0.134277
0.134282
0.134288
0.134299
0.134308
0.13432
0.134336
0.134351
0.134365
0.134387
0.134404
0.134428
0.134446
0.134469
0.134487
0.134507
0.134507
0.134501
0.134447
0.134354
0.134154
0.133852
0.133406
0.132909
0.132463
0.132178
0.132045
0.131995
0.132013
0.132026
0.13208
0.13212
0.132165
0.132213
0.132261
0.132309
0.132356
0.132402
0.132447
0.13249
0.132531
0.132569
0.132606
0.132639
0.132669
0.132697
0.132721
0.132741
0.132758
0.13277
0.132777
0.13278
0.13278
0.13278
0.132776
0.132764
0.132747
0.132727
0.132704
0.132678
0.132649
0.132617
0.132582
0.132545
0.132506
0.132466
0.132424
0.132381
0.132337
0.132293
0.132249
0.132205
0.132161
0.132118
0.132076
0.132035
0.131995
0.131956
0.131919
0.131884
0.13185
0.131818
0.131787
0.131759
0.131732
0.131706
0.131682
0.13166
0.13164
0.13162
0.131602
0.131586
0.13157
0.131556
0.131542
0.13153
0.131518
0.131507
0.131496
0.131486
0.131476
0.131467
0.131457
0.131449
0.13144
0.131431
0.131422
0.131414
0.131405
0.131397
0.131388
0.131379
0.13137
0.131361
0.131352
0.131342
0.131333
0.131323
0.131314
0.131304
0.131294
0.131284
0.131274
0.131264
0.131254
0.131244
0.131234
0.131224
0.131214
0.131204
0.131194
0.131184
0.131175
0.131165
0.131156
0.131146
0.131137
0.131128
0.13112
0.131111
0.131103
0.131094
0.131086
0.131079
0.131071
0.131064
0.131057
0.13105
0.131044
0.131037
0.131032
0.131026
0.131021
0.131015
0.131011
0.131006
0.131002
0.130998
0.130995
0.130991
0.130988
0.130986
0.130983
0.130981
0.13098
0.130978
0.130977
0.130976
0.130976
0.130976
0.130976
0.130976
0.130976
0.130977
0.130978
0.130979
0.130981
0.130983
0.130986
0.130988
0.130991
0.130994
0.130997
0.131001
0.131005
0.131009
0.131013
0.131017
0.131022
0.131027
0.131033
0.131038
0.131044
0.131051
0.131057
0.131064
0.131071
0.131079
0.131087
0.131095
0.131104
0.131114
0.131124
0.131134
0.131146
0.131157
0.13117
0.131183
0.131198
0.131213
0.131229
0.131246
0.131264
0.131283
0.131303
0.131324
0.131347
0.131371
0.131396
0.131422
0.13145
0.131479
0.131509
0.131541
0.131574
0.131609
0.131644
0.131681
0.131719
0.131758
0.131799
0.13184
0.131881
0.131924
0.131967
0.132011
0.132055
0.132098
0.132142
0.132186
0.132229
0.132272
0.132314
0.132354
0.132394
0.132432
0.132468
0.132503
0.132536
0.132566
0.132594
0.132619
0.132641
0.132661
0.132678
0.132691
0.132701
0.132708
0.132712
0.132712
0.132712
0.132712
0.132705
0.132693
0.132677
0.132658
0.132637
0.132613
0.132586
0.132557
0.132526
0.132494
0.132459
0.132424
0.132386
0.13235
0.13231
0.132273
0.132232
0.132195
0.132154
0.132119
0.132078
0.132044
0.132004
0.131972
0.131935
0.131905
0.131869
0.131843
0.131809
0.131785
0.131754
0.131733
0.131704
0.131686
0.13166
0.131644
0.131619
0.131606
0.131583
0.131572
0.131551
0.131542
0.131521
0.131514
0.131495
0.131488
0.13147
0.131464
0.131447
0.131442
0.131425
0.13142
0.131403
0.131399
0.131383
0.131378
0.131362
0.131358
0.131342
0.131338
0.131321
0.131317
)
;

boundaryField
{
    inlet
    {
        type            calculated;
        value           uniform 0.194831;
    }
    outlet
    {
        type            calculated;
        value           uniform 0.131309;
    }
    emptyWalls
    {
        type            empty;
    }
}


// ************************************************************************* //
