/*--------------------------------*- C++ -*----------------------------------*\
  =========                 |
  \\      /  F ield         | OpenFOAM: The Open Source CFD Toolbox
   \\    /   O peration     | Website:  https://openfoam.org
    \\  /    A nd           | Version:  9
     \\/     M anipulation  |
\*---------------------------------------------------------------------------*/
FoamFile
{
    format      ascii;
    class       surfaceScalarField;
    location    "17400";
    object      phib;
}
// * * * * * * * * * * * * * * * * * * * * * * * * * * * * * * * * * * * * * //

dimensions      [0 2 0 0 0 0 0];

internalField   nonuniform List<scalar> 
999
(
1.13621e-09
1.13624e-09
1.13623e-09
1.13627e-09
1.13626e-09
1.1363e-09
1.1363e-09
1.13635e-09
1.13639e-09
1.13643e-09
1.13651e-09
1.13654e-09
1.13662e-09
1.13666e-09
1.13672e-09
1.13677e-09
1.13682e-09
1.13685e-09
1.13689e-09
1.13692e-09
1.13698e-09
1.13716e-09
1.13786e-09
1.14125e-09
1.16607e-09
1.1746e-09
1.17675e-09
1.17765e-09
1.1782e-09
1.17859e-09
1.1789e-09
1.17916e-09
1.17939e-09
1.17958e-09
1.17975e-09
1.1799e-09
1.18003e-09
1.18014e-09
1.18024e-09
1.18033e-09
1.1804e-09
1.18047e-09
1.18052e-09
1.18056e-09
1.18059e-09
1.18062e-09
1.18063e-09
1.18064e-09
1.18063e-09
1.18062e-09
1.1806e-09
1.18057e-09
1.18053e-09
1.18048e-09
1.18043e-09
1.18037e-09
1.18031e-09
1.18024e-09
1.18016e-09
1.18006e-09
1.17995e-09
1.17981e-09
1.17964e-09
1.17944e-09
1.1792e-09
1.17892e-09
1.17858e-09
1.17819e-09
1.17776e-09
1.17729e-09
1.1768e-09
1.17628e-09
1.17573e-09
1.17514e-09
1.17449e-09
1.17378e-09
1.17302e-09
1.1722e-09
1.17136e-09
1.1705e-09
1.16964e-09
1.16879e-09
1.16796e-09
1.16714e-09
1.16634e-09
1.16558e-09
1.16487e-09
1.16421e-09
1.16362e-09
1.16309e-09
1.16265e-09
1.16226e-09
1.16194e-09
1.16166e-09
1.1614e-09
1.16116e-09
1.16091e-09
1.16064e-09
1.16034e-09
1.16e-09
1.15962e-09
1.1592e-09
1.15874e-09
1.15823e-09
1.15769e-09
1.15712e-09
1.15653e-09
1.15592e-09
1.1553e-09
1.15468e-09
1.15405e-09
1.15342e-09
1.1528e-09
1.15218e-09
1.15157e-09
1.15096e-09
1.15036e-09
1.14976e-09
1.14917e-09
1.14858e-09
1.148e-09
1.14741e-09
1.14683e-09
1.14625e-09
1.14567e-09
1.14509e-09
1.14451e-09
1.14392e-09
1.14334e-09
1.14275e-09
1.14216e-09
1.14158e-09
1.14099e-09
1.14039e-09
1.1398e-09
1.1392e-09
1.1386e-09
1.138e-09
1.1374e-09
1.1368e-09
1.13619e-09
1.13559e-09
1.13498e-09
1.13437e-09
1.13375e-09
1.13314e-09
1.13252e-09
1.1319e-09
1.13128e-09
1.13066e-09
1.13004e-09
1.12941e-09
1.12878e-09
1.12815e-09
1.12752e-09
1.12689e-09
1.12626e-09
1.12562e-09
1.12498e-09
1.12434e-09
1.1237e-09
1.12305e-09
1.12241e-09
1.12176e-09
1.12111e-09
1.12046e-09
1.1198e-09
1.11915e-09
1.11849e-09
1.11783e-09
1.11717e-09
1.11651e-09
1.11585e-09
1.11518e-09
1.11452e-09
1.11385e-09
1.11318e-09
1.11252e-09
1.11185e-09
1.11118e-09
1.1105e-09
1.10983e-09
1.10915e-09
1.10848e-09
1.1078e-09
1.10712e-09
1.10644e-09
1.10576e-09
1.10508e-09
1.1044e-09
1.10372e-09
1.10304e-09
1.10236e-09
1.10166e-09
1.10097e-09
1.10026e-09
1.09954e-09
1.09882e-09
1.09807e-09
1.09732e-09
1.09655e-09
1.09576e-09
1.09496e-09
1.09415e-09
1.09332e-09
1.09248e-09
1.09163e-09
1.09078e-09
1.08992e-09
1.08907e-09
1.08822e-09
1.08737e-09
1.08654e-09
1.08573e-09
1.08493e-09
1.08415e-09
1.0834e-09
1.08268e-09
1.08199e-09
1.08132e-09
1.08068e-09
1.08008e-09
1.07949e-09
1.07893e-09
1.07838e-09
1.07785e-09
1.07733e-09
1.07681e-09
1.07629e-09
1.07577e-09
1.07524e-09
1.0747e-09
1.07415e-09
1.07358e-09
1.07299e-09
1.0724e-09
1.07178e-09
1.07115e-09
1.07051e-09
1.06985e-09
1.06919e-09
1.06851e-09
1.06782e-09
1.06713e-09
1.06644e-09
1.06574e-09
1.06503e-09
1.06433e-09
1.06362e-09
1.06291e-09
1.06221e-09
1.0615e-09
1.0608e-09
1.0601e-09
1.0594e-09
1.0587e-09
1.058e-09
1.0573e-09
1.05661e-09
1.05591e-09
1.05522e-09
1.05452e-09
1.05383e-09
1.05314e-09
1.05244e-09
1.05175e-09
1.05105e-09
1.05036e-09
1.04966e-09
1.04897e-09
1.04827e-09
1.04757e-09
1.04687e-09
1.04617e-09
1.04547e-09
1.04476e-09
1.04406e-09
1.04335e-09
1.04265e-09
1.04194e-09
1.04123e-09
1.04052e-09
1.0398e-09
1.03909e-09
1.03837e-09
1.03766e-09
1.03694e-09
1.03622e-09
1.0355e-09
1.03477e-09
1.03405e-09
1.03332e-09
1.0326e-09
1.03187e-09
1.03114e-09
1.03041e-09
1.02967e-09
1.02894e-09
1.0282e-09
1.02747e-09
1.02673e-09
1.02598e-09
1.02524e-09
1.0245e-09
1.02375e-09
1.023e-09
1.02226e-09
1.0215e-09
1.02075e-09
1.02e-09
1.01924e-09
1.01849e-09
1.01773e-09
1.01697e-09
1.01621e-09
1.01545e-09
1.01468e-09
1.01392e-09
1.01315e-09
1.01239e-09
1.01162e-09
1.01085e-09
1.01008e-09
1.00931e-09
1.00853e-09
1.00776e-09
1.00698e-09
1.00621e-09
1.00543e-09
1.00465e-09
1.00387e-09
1.00309e-09
1.00231e-09
1.00153e-09
1.00074e-09
9.99952e-10
9.99161e-10
9.98368e-10
9.97571e-10
9.9677e-10
9.95965e-10
9.95154e-10
9.94338e-10
9.93516e-10
9.92686e-10
9.9185e-10
9.91007e-10
9.90157e-10
9.89299e-10
9.88434e-10
9.87562e-10
9.86683e-10
9.85798e-10
9.84908e-10
9.84014e-10
9.83117e-10
9.82217e-10
9.81316e-10
9.80416e-10
9.79517e-10
9.78622e-10
9.77731e-10
9.76847e-10
9.75971e-10
9.75103e-10
9.74246e-10
9.73401e-10
9.72567e-10
9.71747e-10
9.70939e-10
9.70145e-10
9.69365e-10
9.68597e-10
9.67841e-10
9.67096e-10
9.6636e-10
9.65633e-10
9.64913e-10
9.64198e-10
9.63487e-10
9.62777e-10
9.62067e-10
9.61356e-10
9.60642e-10
9.59924e-10
9.59201e-10
9.58471e-10
9.57735e-10
9.56992e-10
9.56241e-10
9.55483e-10
9.54716e-10
9.53943e-10
9.53162e-10
9.52375e-10
9.51581e-10
9.50781e-10
9.49977e-10
9.49167e-10
9.48353e-10
9.47536e-10
9.46715e-10
9.45892e-10
9.45066e-10
9.44238e-10
9.43409e-10
9.42579e-10
9.41747e-10
9.40915e-10
9.40082e-10
9.39249e-10
9.38415e-10
9.37581e-10
9.36746e-10
9.35911e-10
9.35076e-10
9.3424e-10
9.33403e-10
9.32566e-10
9.31729e-10
9.30891e-10
9.30052e-10
9.29212e-10
9.28371e-10
9.27529e-10
9.26686e-10
9.25841e-10
9.24996e-10
9.24149e-10
9.23301e-10
9.22451e-10
9.216e-10
9.20748e-10
9.19894e-10
9.19038e-10
9.1818e-10
9.17321e-10
9.16461e-10
9.15598e-10
9.14734e-10
9.13867e-10
9.13e-10
9.1213e-10
9.11258e-10
9.10385e-10
9.09509e-10
9.08632e-10
9.07753e-10
9.06872e-10
9.05989e-10
9.05104e-10
9.04217e-10
9.03328e-10
9.02437e-10
9.01544e-10
9.00649e-10
8.99753e-10
8.98854e-10
8.97953e-10
8.9705e-10
8.96145e-10
8.95238e-10
8.94329e-10
8.93418e-10
8.92505e-10
8.9159e-10
8.90672e-10
8.89753e-10
8.88832e-10
8.87909e-10
8.86983e-10
8.86056e-10
8.85127e-10
8.84195e-10
8.83262e-10
8.82327e-10
8.8139e-10
8.8045e-10
8.79509e-10
8.78566e-10
8.77621e-10
8.76674e-10
8.75725e-10
8.74774e-10
8.73822e-10
8.72867e-10
8.7191e-10
8.70951e-10
8.69991e-10
8.69028e-10
8.68063e-10
8.67097e-10
8.66128e-10
8.65156e-10
8.64183e-10
8.63207e-10
8.62228e-10
8.61247e-10
8.60263e-10
8.59276e-10
8.58286e-10
8.57292e-10
8.56294e-10
8.55293e-10
8.54288e-10
8.53278e-10
8.52264e-10
8.51246e-10
8.50222e-10
8.49194e-10
8.4816e-10
8.47122e-10
8.46078e-10
8.4503e-10
8.43976e-10
8.42917e-10
8.41854e-10
8.40786e-10
8.39714e-10
8.38638e-10
8.37558e-10
8.36475e-10
8.3539e-10
8.34302e-10
8.33212e-10
8.32122e-10
8.3103e-10
8.29939e-10
8.28849e-10
8.2776e-10
8.26672e-10
8.25587e-10
8.24505e-10
8.23427e-10
8.22352e-10
8.21281e-10
8.20215e-10
8.19153e-10
8.18097e-10
8.17045e-10
8.15997e-10
8.14955e-10
8.13916e-10
8.12882e-10
8.1185e-10
8.10822e-10
8.09796e-10
8.08772e-10
8.07748e-10
8.06725e-10
8.05701e-10
8.04676e-10
8.0365e-10
8.0262e-10
8.01587e-10
8.00551e-10
7.9951e-10
7.98465e-10
7.97414e-10
7.96358e-10
7.95295e-10
7.94227e-10
7.93153e-10
7.92073e-10
7.90986e-10
7.89893e-10
7.88794e-10
7.87689e-10
7.86578e-10
7.85461e-10
7.84339e-10
7.83211e-10
7.82078e-10
7.8094e-10
7.79797e-10
7.78649e-10
7.77497e-10
7.7634e-10
7.7518e-10
7.74015e-10
7.72846e-10
7.71673e-10
7.70497e-10
7.69317e-10
7.68132e-10
7.66945e-10
7.65753e-10
7.64559e-10
7.6336e-10
7.62158e-10
7.60952e-10
7.59742e-10
7.58528e-10
7.57311e-10
7.5609e-10
7.54864e-10
7.53635e-10
7.52402e-10
7.51164e-10
7.49922e-10
7.48676e-10
7.47425e-10
7.4617e-10
7.4491e-10
7.43646e-10
7.42377e-10
7.41103e-10
7.39824e-10
7.38541e-10
7.37252e-10
7.35958e-10
7.34659e-10
7.33355e-10
7.32045e-10
7.30731e-10
7.29411e-10
7.28085e-10
7.26754e-10
7.25417e-10
7.24074e-10
7.22726e-10
7.21372e-10
7.20013e-10
7.18647e-10
7.17276e-10
7.15899e-10
7.14515e-10
7.13126e-10
7.11731e-10
7.1033e-10
7.08923e-10
7.0751e-10
7.0609e-10
7.04665e-10
7.03234e-10
7.01797e-10
7.00355e-10
6.98906e-10
6.97453e-10
6.95993e-10
6.94529e-10
6.93059e-10
6.91585e-10
6.90107e-10
6.88625e-10
6.8714e-10
6.85652e-10
6.84162e-10
6.8267e-10
6.81179e-10
6.79689e-10
6.78202e-10
6.76719e-10
6.75241e-10
6.73771e-10
6.72311e-10
6.70865e-10
6.69435e-10
6.68024e-10
6.66637e-10
6.65276e-10
6.63946e-10
6.62652e-10
6.61398e-10
6.60189e-10
6.59029e-10
6.57922e-10
6.56871e-10
6.55882e-10
6.54956e-10
6.54096e-10
6.53304e-10
6.52578e-10
6.51918e-10
6.51325e-10
6.50795e-10
6.50325e-10
6.49914e-10
6.49555e-10
6.49243e-10
6.48975e-10
6.48743e-10
6.48544e-10
6.48369e-10
6.48209e-10
6.4805e-10
6.47872e-10
6.47645e-10
6.47313e-10
6.46782e-10
6.45881e-10
6.44314e-10
6.41557e-10
6.36718e-10
6.28309e-10
6.14029e-10
5.90741e-10
5.5522e-10
5.06308e-10
4.47849e-10
3.89105e-10
3.39951e-10
3.05071e-10
2.83258e-10
2.7072e-10
2.63869e-10
2.60226e-10
2.58317e-10
2.5732e-10
2.56799e-10
2.56524e-10
2.56375e-10
2.56292e-10
2.56243e-10
2.56212e-10
2.5619e-10
2.56173e-10
2.5616e-10
2.56148e-10
2.56138e-10
2.56129e-10
2.56121e-10
2.56114e-10
2.56109e-10
2.56104e-10
2.56101e-10
2.561e-10
2.56099e-10
2.56099e-10
2.56099e-10
2.56102e-10
2.56106e-10
2.56111e-10
2.56118e-10
2.56125e-10
2.56133e-10
2.56142e-10
2.56151e-10
2.56161e-10
2.56172e-10
2.56184e-10
2.56196e-10
2.56208e-10
2.5622e-10
2.56233e-10
2.56245e-10
2.56258e-10
2.5627e-10
2.56282e-10
2.56294e-10
2.56306e-10
2.56317e-10
2.56328e-10
2.56339e-10
2.56349e-10
2.56358e-10
2.56367e-10
2.56376e-10
2.56384e-10
2.56391e-10
2.56398e-10
2.56405e-10
2.56411e-10
2.56416e-10
2.56422e-10
2.56426e-10
2.56431e-10
2.56435e-10
2.56438e-10
2.56442e-10
2.56445e-10
2.56448e-10
2.56451e-10
2.56453e-10
2.56456e-10
2.56458e-10
2.5646e-10
2.56463e-10
2.56465e-10
2.56467e-10
2.56469e-10
2.56471e-10
2.56473e-10
2.56475e-10
2.56477e-10
2.5648e-10
2.56482e-10
2.56484e-10
2.56487e-10
2.56489e-10
2.56492e-10
2.56494e-10
2.56497e-10
2.56499e-10
2.56502e-10
2.56505e-10
2.56508e-10
2.5651e-10
2.56513e-10
2.56516e-10
2.56519e-10
2.56522e-10
2.56525e-10
2.56528e-10
2.56531e-10
2.56534e-10
2.56537e-10
2.5654e-10
2.56543e-10
2.56546e-10
2.56549e-10
2.56551e-10
2.56554e-10
2.56557e-10
2.5656e-10
2.56562e-10
2.56565e-10
2.56568e-10
2.5657e-10
2.56573e-10
2.56575e-10
2.56577e-10
2.5658e-10
2.56582e-10
2.56584e-10
2.56586e-10
2.56588e-10
2.5659e-10
2.56592e-10
2.56593e-10
2.56595e-10
2.56597e-10
2.56598e-10
2.56599e-10
2.56601e-10
2.56602e-10
2.56603e-10
2.56604e-10
2.56605e-10
2.56605e-10
2.56606e-10
2.56607e-10
2.56607e-10
2.56607e-10
2.56608e-10
2.56608e-10
2.56608e-10
2.56608e-10
2.56608e-10
2.56608e-10
2.56607e-10
2.56607e-10
2.56607e-10
2.56606e-10
2.56605e-10
2.56605e-10
2.56604e-10
2.56603e-10
2.56602e-10
2.56601e-10
2.566e-10
2.56598e-10
2.56597e-10
2.56596e-10
2.56594e-10
2.56593e-10
2.56591e-10
2.56589e-10
2.56587e-10
2.56585e-10
2.56583e-10
2.56581e-10
2.56579e-10
2.56577e-10
2.56574e-10
2.56572e-10
2.56569e-10
2.56566e-10
2.56563e-10
2.56559e-10
2.56556e-10
2.56552e-10
2.56548e-10
2.56544e-10
2.5654e-10
2.56535e-10
2.5653e-10
2.56525e-10
2.56519e-10
2.56513e-10
2.56507e-10
2.565e-10
2.56493e-10
2.56486e-10
2.56478e-10
2.56469e-10
2.56461e-10
2.56452e-10
2.56442e-10
2.56432e-10
2.56422e-10
2.56411e-10
2.564e-10
2.56388e-10
2.56377e-10
2.56365e-10
2.56352e-10
2.5634e-10
2.56327e-10
2.56315e-10
2.56302e-10
2.56289e-10
2.56276e-10
2.56263e-10
2.5625e-10
2.56238e-10
2.56225e-10
2.56213e-10
2.56201e-10
2.5619e-10
2.56179e-10
2.56168e-10
2.56158e-10
2.56148e-10
2.56139e-10
2.56131e-10
2.56124e-10
2.56117e-10
2.56111e-10
2.56106e-10
2.56101e-10
2.56098e-10
2.56096e-10
2.56094e-10
2.56094e-10
2.56094e-10
2.56094e-10
2.56095e-10
2.56098e-10
2.56102e-10
2.56107e-10
2.56113e-10
2.5612e-10
2.56127e-10
2.56135e-10
2.56144e-10
2.56154e-10
2.56164e-10
2.56174e-10
2.56185e-10
2.56196e-10
2.56207e-10
2.56218e-10
2.5623e-10
2.56241e-10
2.56253e-10
2.56264e-10
2.56276e-10
2.56287e-10
2.56298e-10
2.56308e-10
2.56319e-10
2.56328e-10
2.56338e-10
2.56347e-10
2.56356e-10
2.56365e-10
2.56373e-10
2.56381e-10
2.56388e-10
2.56395e-10
2.56402e-10
2.56408e-10
2.56414e-10
2.56419e-10
2.56425e-10
2.5643e-10
2.56435e-10
2.56439e-10
2.56443e-10
2.56448e-10
2.56451e-10
2.56455e-10
2.56459e-10
2.56462e-10
2.56466e-10
2.56469e-10
2.56472e-10
2.56475e-10
2.56478e-10
2.56482e-10
2.56485e-10
2.56488e-10
2.56491e-10
2.56494e-10
2.56497e-10
2.565e-10
2.56503e-10
2.56506e-10
)
;

boundaryField
{
    inlet
    {
        type            calculated;
        value           uniform -1.13622e-09;
    }
    outlet
    {
        type            calculated;
        value           uniform 2.56509e-10;
    }
    emptyWalls
    {
        type            empty;
        value           nonuniform List<scalar> 0();
    }
}


// ************************************************************************* //
