/*--------------------------------*- C++ -*----------------------------------*\
  =========                 |
  \\      /  F ield         | OpenFOAM: The Open Source CFD Toolbox
   \\    /   O peration     | Website:  https://openfoam.org
    \\  /    A nd           | Version:  9
     \\/     M anipulation  |
\*---------------------------------------------------------------------------*/
FoamFile
{
    format      ascii;
    class       volScalarField;
    location    "9500";
    object      p;
}
// * * * * * * * * * * * * * * * * * * * * * * * * * * * * * * * * * * * * * //

dimensions      [0 0 0 0 0 0 0];

internalField   nonuniform List<scalar> 
1000
(
236275
235852
235435
235023
234616
234214
233816
233423
233033
232646
232264
231893
231559
231335
231225
231136
231050
230965
230882
230799
230717
230634
230552
230470
230389
230307
230225
230144
230062
229981
229899
229818
229736
229654
229572
229490
229407
229324
229241
229156
229072
228986
228900
228813
228725
228637
228548
228459
228369
228278
228186
228094
228001
227908
227814
227719
227624
227528
227432
227335
227237
227139
227040
226941
226841
226740
226639
226537
226435
226332
226229
226125
226020
225915
225809
225703
225596
225488
225380
225272
225163
225053
224943
224832
224721
224609
224497
224384
224270
224156
224042
223927
223811
223695
223579
223462
223344
223226
223107
222988
222868
222748
222627
222506
222385
222262
222140
222017
221893
221769
221644
221519
221393
221267
221140
221013
220886
220757
220629
220500
220370
220240
220110
219979
219847
219715
219583
219450
219317
219183
219048
218914
218778
218643
218507
218370
218233
218095
217957
217819
217680
217541
217401
217260
217120
216978
216837
216695
216552
216409
216266
216122
215977
215833
215687
215542
215396
215249
215102
214955
214807
214659
214510
214361
214212
214062
213911
213761
213610
213458
213306
213154
213001
212847
212694
212539
212385
212230
212074
211918
211762
211605
211448
211290
211132
210973
210814
210655
210495
210334
210173
210012
209850
209688
209525
209362
209199
209035
208870
208706
208541
208375
208209
208043
207876
207708
207541
207373
207204
207035
206866
206696
206526
206355
206184
206012
205841
205668
205496
205322
205149
204975
204800
204626
204450
204275
204098
203922
203745
203568
203390
203212
203033
202854
202675
202495
202315
202134
201953
201771
201589
201407
201224
201041
200857
200673
200489
200304
200119
199933
199747
199561
199374
199186
198999
198810
198622
198433
198244
198054
197864
197673
197482
197290
197098
196906
196714
196520
196327
196133
195939
195744
195549
195353
195157
194961
194764
194566
194369
194171
193972
193773
193574
193374
193174
192973
192772
192571
192369
192167
191964
191761
191557
191353
191149
190944
190739
190533
190327
190121
189914
189707
189499
189291
189082
188873
188664
188454
188244
188033
187822
187610
187398
187186
186973
186760
186546
186332
186117
185902
185687
185471
185254
185038
184821
184603
184385
184167
183948
183728
183509
183289
183068
182847
182625
182404
182181
181958
181735
181512
181287
181063
180838
180612
180386
180160
179933
179706
179478
179250
179021
178792
178562
178332
178101
177870
177638
177406
177174
176941
176708
176474
176240
176005
175770
175535
175299
175064
174828
174591
174355
174118
173882
173645
173407
173170
172931
172692
172450
172205
171956
171701
171439
171171
170898
170623
170347
170070
169792
169515
169237
168960
168682
168404
168127
167849
167571
167293
167016
166738
166460
166183
165905
165627
165349
165072
164794
164516
164238
163961
163683
163405
163127
162850
162572
162294
162016
161739
161461
161183
160905
160627
160350
160072
159794
159516
159238
158961
158683
158405
158127
157849
157572
157294
157016
156738
156460
156182
155905
155627
155349
155071
154793
154515
154238
153960
153682
153404
153126
152848
152570
152293
152015
151737
151459
151181
150903
150626
150348
150070
149792
149514
149236
148959
148681
148403
148125
147847
147569
147291
147014
146736
146458
146180
145902
145624
145347
145069
144791
144513
144235
143958
143680
143402
143124
142846
142568
142291
142013
141735
141457
141179
140902
140624
140346
140068
139790
139513
139235
138957
138679
138402
138124
137846
137568
137291
137013
136735
136457
136180
135902
135624
135346
135069
134791
134513
134236
133958
133680
133403
133125
132847
132570
132292
132015
131737
131459
131182
130904
130627
130349
130072
129794
129517
129240
128962
128685
128407
128130
127853
127575
127298
127021
126744
126466
126189
125912
125635
125357
125080
124803
124526
124248
123971
123694
123417
123140
122862
122585
122308
122030
121753
121476
121199
120921
120644
120366
120089
119812
119534
119257
118979
118702
118424
118147
117869
117591
117314
117036
116759
116481
116204
115926
115648
115371
115093
114815
114538
114260
113982
113705
113427
113149
112872
112594
112316
112039
111761
111483
111206
110928
110650
110373
110095
109817
109540
109262
108984
108707
108429
108151
107873
107596
107318
107040
106763
106485
106207
105929
105652
105374
105096
104818
104541
104263
103985
103707
103430
103152
102874
102596
102319
102041
101763
101485
101207
100930
100652
100374
100096
99818.4
99540.5
99262.7
98984.9
98707.1
98429.2
98151.4
97873.6
97595.7
97317.9
97040.1
96762.2
96484.4
96206.5
95928.7
95650.8
95373
95095.1
94817.3
94539.4
94261.5
93983.7
93705.8
93428
93150.1
92872.2
92594.4
92316.5
92038.6
91760.8
91482.9
91205
90927.2
90649.3
90371.5
90093.6
89815.7
89537.9
89260
88982.2
88704.3
88426.4
88148.6
87870.7
87592.9
87315
87037.2
86759.4
86481.5
86203.7
85925.8
85648
85370.2
85092.3
84814.5
84536.7
84258.8
83981
83703.2
83425.4
83147.6
82869.7
82591.9
82314.1
82036.3
81758.5
81480.7
81202.9
80925.2
80647.4
80369.6
80091.8
79814
79536.3
79258.5
78980.8
78703
78425.3
78147.5
77869.8
77592.1
77314.4
77036.7
76759
76481.3
76203.6
75926
75648.3
75370.7
75093
74815.4
74537.8
74260.2
73982.6
73705
73427.5
73150
72872.4
72594.9
72317.4
72040
71762.5
71485.1
71207.6
70930.2
70652.8
70375.4
70098.1
69820.7
69543.4
69266
68988.7
68711.4
68434.1
68156.8
67879.6
67602.3
67325
67047.8
66770.5
66493.2
66216
65938.7
65661.5
65384.2
65106.9
64829.7
64552.4
64275.1
63997.8
63720.4
63443.1
63165.8
62888.4
62611
62333.6
62056.2
61778.8
61501.4
61223.9
60946.5
60669
60391.5
60114
59836.5
59558.9
59281.4
59003.8
58726.3
58448.7
58171.1
57893.5
57615.9
57338.3
57060.6
56783
56505.4
56227.7
55950.1
55672.5
55394.8
55117.2
54839.5
54561.8
54284.2
54006.5
53728.8
53451.2
53173.5
52895.8
52618.1
52340.4
52062.7
51785
51507.4
51229.7
50952
50674.2
50396.5
50118.8
49841.1
49563.4
49285.7
49007.9
48730.2
48452.5
48174.7
47897
47619.2
47341.5
47063.7
46786
46508.2
46230.4
45952.7
45674.9
45397.1
45119.3
44841.5
44563.7
44285.9
44008.1
43730.3
43452.5
43174.7
42896.9
42619.1
42341.2
42063.4
41785.6
41507.7
41229.9
40952.1
40674.2
40396.4
40118.5
39840.7
39562.8
39284.9
39007.1
38729.2
38451.3
38173.5
37895.6
37617.7
37339.9
37062
36784.1
36506.2
36228.4
35950.5
35672.6
35394.7
35116.8
34839
34561.1
34283.2
34005.3
33727.4
33449.6
33171.7
32893.8
32615.9
32338
32060.2
31782.3
31504.4
31226.6
30948.7
30670.8
30393
30115.1
29837.3
29559.4
29281.6
29003.7
28725.9
28448
28170.2
27892.4
27614.5
27336.7
27058.9
26781
26503.2
26225.4
25947.6
25669.8
25392
25114.2
24836.4
24558.6
24280.8
24003
23725.3
23447.5
23169.7
22891.9
22614.2
22336.4
22058.7
21780.9
21503.2
21225.5
20947.7
20670
20392.3
20114.6
19836.9
19559.2
19281.6
19003.9
18726.2
18448.6
18170.9
17893.3
17615.7
17338.1
17060.5
16782.9
16505.3
16227.7
15950.2
15672.6
15395.1
15117.6
14840.1
14562.6
14285.1
14007.7
13730.2
13452.8
13175.3
12897.9
12620.5
12343.2
12065.8
11788.4
11511.1
11233.7
10956.4
10679.1
10401.8
10124.5
9847.19
9569.9
9292.61
9015.33
8738.05
8460.77
8183.49
7906.22
7628.94
7351.65
7074.37
6797.08
6519.78
6242.47
5965.16
5687.83
5410.5
5133.15
4855.8
4578.43
4301.05
4023.65
3746.25
3468.82
3191.39
2913.94
2636.48
2359.01
2081.52
1804.02
1526.51
1248.99
971.452
693.907
416.352
138.787
)
;

boundaryField
{
    inlet
    {
        type            darcyGradPressure;
        gradient        uniform 116344;
        Mf              Mf;
        phi             phi;
        value           uniform 236489;
    }
    outlet
    {
        type            fixedValue;
        value           uniform 0;
    }
    emptyWalls
    {
        type            empty;
    }
}


// ************************************************************************* //
