/*--------------------------------*- C++ -*----------------------------------*\
  =========                 |
  \\      /  F ield         | OpenFOAM: The Open Source CFD Toolbox
   \\    /   O peration     | Website:  https://openfoam.org
    \\  /    A nd           | Version:  9
     \\/     M anipulation  |
\*---------------------------------------------------------------------------*/
FoamFile
{
    format      ascii;
    class       volScalarField;
    location    "9500";
    object      Sa;
}
// * * * * * * * * * * * * * * * * * * * * * * * * * * * * * * * * * * * * * //

dimensions      [0 0 0 0 0 0 0];

internalField   nonuniform List<scalar> 
1000
(
0.548925
0.545825
0.54272
0.539358
0.536405
0.533392
0.530709
0.528244
0.526107
0.523962
0.520317
0.50915
0.461377
0.23169
0.0931372
0.0650682
0.0541195
0.0478628
0.0435635
0.0403432
0.0377967
0.0357508
0.0340622
0.0326605
0.031458
0.0304264
0.02951
0.0287028
0.0279757
0.0273011
0.0266847
0.0261201
0.0256136
0.0251663
0.0247878
0.0245116
0.0243592
0.0242761
0.0241865
0.0240854
0.0239751
0.0238579
0.0237365
0.0236134
0.0234913
0.0233724
0.0232584
0.0231504
0.023049
0.0229541
0.0228654
0.0227821
0.0227035
0.0226284
0.0225561
0.0224858
0.0224167
0.0223483
0.0222802
0.0222123
0.0221445
0.0220766
0.0220088
0.0219411
0.0218737
0.0218066
0.02174
0.021674
0.0216085
0.0215438
0.0214798
0.0214165
0.021354
0.0212922
0.0212312
0.0211709
0.0211113
0.0210525
0.0209943
0.0209368
0.0208801
0.020824
0.0207687
0.020714
0.0206601
0.0206068
0.0205542
0.0205023
0.020451
0.0204005
0.0203505
0.0203012
0.0202524
0.0202043
0.0201567
0.0201096
0.020063
0.0200169
0.0199712
0.019926
0.0198812
0.0198369
0.019793
0.0197495
0.0197064
0.0196637
0.0196214
0.0195795
0.0195381
0.019497
0.0194563
0.019416
0.0193762
0.0193366
0.0192975
0.0192588
0.0192204
0.0191824
0.0191447
0.0191074
0.0190705
0.0190339
0.0189976
0.0189617
0.0189261
0.0188908
0.0188558
0.0188212
0.0187868
0.0187526
0.0187187
0.0186851
0.0186517
0.0186185
0.0185855
0.0185528
0.0185204
0.0184882
0.0184564
0.0184248
0.0183936
0.0183626
0.0183319
0.0183016
0.0182715
0.0182417
0.0182123
0.0181833
0.0181547
0.0181266
0.0180992
0.0180724
0.0180464
0.0180212
0.0179969
0.0179736
0.0179512
0.0179297
0.0179091
0.0178894
0.0178704
0.0178519
0.017834
0.0178163
0.0177988
0.0177811
0.0177631
0.0177446
0.0177252
0.0177048
0.0176832
0.0176602
0.0176356
0.0176093
0.0175813
0.0175515
0.0175202
0.0174873
0.0174531
0.0174178
0.0173817
0.0173451
0.0173082
0.0172714
0.017235
0.0171992
0.0171641
0.01713
0.017097
0.0170651
0.0170343
0.0170047
0.0169762
0.0169487
0.0169221
0.0168965
0.0168714
0.0168471
0.0168231
0.0167998
0.0167765
0.0167537
0.0167308
0.0167083
0.0166855
0.0166631
0.0166402
0.0166178
0.0165948
0.0165722
0.0165492
0.0165265
0.0165035
0.0164806
0.0164576
0.0164347
0.0164117
0.0163887
0.0163659
0.016343
0.0163202
0.0162974
0.0162748
0.0162521
0.0162296
0.0162072
0.0161848
0.0161626
0.0161404
0.0161183
0.0160964
0.0160745
0.0160528
0.0160312
0.0160097
0.0159883
0.0159671
0.015946
0.0159249
0.0159041
0.0158833
0.0158627
0.0158422
0.0158218
0.0158015
0.0157813
0.0157613
0.0157413
0.0157215
0.0157017
0.0156821
0.0156626
0.0156432
0.0156238
0.0156046
0.0155854
0.0155664
0.0155474
0.0155285
0.0155097
0.0154909
0.0154723
0.0154537
0.0154352
0.0154168
0.0153984
0.0153802
0.0153619
0.0153438
0.0153257
0.0153077
0.0152898
0.0152719
0.0152541
0.0152363
0.0152187
0.0152011
0.0151835
0.015166
0.0151486
0.0151312
0.0151139
0.0150967
0.0150795
0.0150624
0.0150453
0.0150283
0.0150113
0.0149943
0.0149775
0.0149606
0.0149438
0.0149271
0.0149103
0.0148937
0.0148771
0.0148605
0.014844
0.0148275
0.014811
0.0147947
0.0147783
0.0147621
0.0147459
0.0147298
0.0147137
0.0146977
0.0146819
0.0146661
0.0146504
0.0146349
0.0146195
0.0146042
0.0145892
0.0145743
0.0145596
0.0145452
0.014531
0.014517
0.0145033
0.0144898
0.0144767
0.0144638
0.0144511
0.0144387
0.0144266
0.0144147
0.014403
0.0143914
0.01438
0.0143687
0.0143574
0.0143461
0.0143347
0.0143232
0.0143116
0.0142997
0.0142875
0.0142749
0.0142619
0.0142484
0.0142344
0.0142198
0.0142046
0.0141888
0.0141723
0.0141552
0.0141374
0.0141191
0.0141001
0.0140807
0.0140608
0.0140405
0.01402
0.0139993
0.0139786
0.013958
0.0139376
0.0139176
0.0138981
0.0138792
0.0138611
0.013844
0.0138278
0.0138127
0.0137988
0.0137862
0.0137747
0.0137644
0.0137551
0.0137466
0.0137387
0.0137305
0.0137211
0.0137086
0.0136901
0.0136605
0.0136118
0.0135333
0.013413
0.0132464
0.0130479
0.0128555
0.0127085
0.0126184
0.0125713
0.0125485
0.0125376
0.0125322
0.0125295
0.012528
0.0125271
0.0125265
0.012526
0.0125255
0.0125251
0.0125246
0.0125242
0.0125236
0.0125231
0.0125226
0.012522
0.0125214
0.0125208
0.0125201
0.0125195
0.0125188
0.0125181
0.0125174
0.0125167
0.012516
0.0125153
0.0125146
0.0125139
0.0125132
0.0125125
0.0125118
0.0125111
0.0125104
0.0125097
0.012509
0.0125084
0.0125077
0.0125071
0.0125065
0.0125059
0.0125053
0.0125047
0.0125042
0.0125036
0.0125031
0.0125026
0.0125022
0.0125017
0.0125013
0.0125009
0.0125005
0.0125002
0.0124999
0.0124996
0.0124993
0.0124991
0.0124988
0.0124987
0.0124985
0.0124983
0.0124982
0.0124981
0.012498
0.012498
0.012498
0.0124979
0.0124979
0.0124979
0.012498
0.012498
0.0124981
0.0124982
0.0124983
0.0124984
0.0124985
0.0124986
0.0124988
0.0124989
0.0124991
0.0124992
0.0124994
0.0124996
0.0124998
0.0125
0.0125003
0.0125005
0.0125007
0.012501
0.0125012
0.0125015
0.0125018
0.0125021
0.0125024
0.0125027
0.012503
0.0125033
0.0125037
0.012504
0.0125044
0.0125048
0.0125051
0.0125055
0.0125059
0.0125064
0.0125068
0.0125072
0.0125077
0.0125082
0.0125087
0.0125092
0.0125097
0.0125103
0.0125109
0.0125115
0.0125121
0.0125128
0.0125135
0.0125143
0.0125151
0.0125159
0.0125168
0.0125178
0.0125188
0.0125199
0.0125211
0.0125223
0.0125237
0.0125251
0.0125267
0.0125283
0.0125301
0.012532
0.012534
0.0125361
0.0125384
0.0125408
0.0125433
0.0125459
0.0125487
0.0125516
0.0125546
0.0125577
0.012561
0.0125643
0.0125676
0.0125711
0.0125746
0.0125781
0.0125816
0.0125851
0.0125886
0.0125919
0.0125953
0.0125984
0.0126015
0.0126043
0.012607
0.0126095
0.0126117
0.0126136
0.0126152
0.0126165
0.0126175
0.0126181
0.0126183
0.0126184
0.0126183
0.0126181
0.0126171
0.0126156
0.0126138
0.0126116
0.0126092
0.0126065
0.0126036
0.0126005
0.0125972
0.0125937
0.0125902
0.0125866
0.012583
0.0125794
0.0125759
0.0125723
0.0125689
0.0125656
0.0125625
0.0125595
0.0125566
0.012554
0.0125515
0.0125492
0.0125471
0.0125452
0.0125434
0.0125419
0.0125405
0.0125392
0.0125381
0.0125371
0.0125362
0.0125355
0.0125348
0.0125342
0.0125337
0.0125333
0.0125329
0.0125325
0.0125321
0.0125318
0.0125315
0.0125312
0.0125308
0.0125305
0.0125301
0.0125298
0.0125294
0.012529
0.0125285
0.0125281
0.0125276
0.0125271
0.0125266
0.012526
0.0125254
0.0125248
0.0125242
0.0125235
0.0125229
0.0125222
0.0125215
0.0125208
0.0125201
0.0125194
0.0125186
0.0125179
0.0125172
0.0125164
0.0125157
0.0125149
0.0125142
0.0125134
0.0125127
0.0125119
0.0125112
0.0125104
0.0125097
0.012509
0.0125083
0.0125076
0.0125069
0.0125062
0.0125055
0.0125048
0.0125042
0.0125036
0.012503
0.0125024
0.0125018
0.0125012
0.0125007
0.0125001
0.0124996
0.0124992
0.0124987
0.0124983
0.0124979
0.0124975
0.0124971
0.0124968
0.0124964
0.0124962
0.0124959
0.0124957
0.0124954
0.0124953
0.0124951
0.012495
0.0124949
0.0124948
0.0124947
0.0124947
0.0124947
0.0124947
0.0124947
0.0124947
0.0124948
0.0124949
0.012495
0.0124952
0.0124954
0.0124955
0.0124957
0.012496
0.0124962
0.0124965
0.0124967
0.012497
0.0124973
0.0124977
0.012498
0.0124984
0.0124987
0.0124991
0.0124995
0.0124999
0.0125003
0.0125008
0.0125012
0.0125017
0.0125022
0.0125027
0.0125032
0.0125038
0.0125043
0.0125049
0.0125055
0.0125061
0.0125068
0.0125075
0.0125082
0.0125089
0.0125097
0.0125105
0.0125114
0.0125123
0.0125132
0.0125142
0.0125153
0.0125164
0.0125176
0.0125188
0.0125201
0.0125215
0.012523
0.0125245
0.0125262
0.0125279
0.0125297
0.0125316
0.0125336
0.0125357
0.0125379
0.0125402
0.0125426
0.0125451
0.0125477
0.0125503
0.0125531
0.0125559
0.0125587
0.0125617
0.0125646
0.0125676
0.0125706
0.0125737
0.0125767
0.0125797
0.0125826
0.0125856
0.0125884
0.0125911
0.0125938
0.0125963
0.0125986
0.0126008
0.0126028
0.0126046
0.0126062
0.0126076
0.0126087
0.0126095
0.0126101
0.0126105
0.0126105
0.0126105
0.0126104
0.01261
0.012609
0.0126077
0.0126062
0.0126044
0.0126024
0.0126002
0.0125979
0.0125953
0.0125927
0.0125899
0.0125871
0.0125841
0.0125812
0.0125782
0.0125753
0.0125724
0.0125695
0.0125667
0.012564
0.0125614
0.0125589
0.0125566
0.0125543
0.0125522
0.0125502
0.0125483
0.0125466
0.012545
0.0125435
0.0125421
0.0125408
0.0125397
0.0125386
0.0125376
0.0125368
0.0125359
0.0125352
0.0125344
0.0125338
0.0125331
0.0125325
0.0125319
0.0125314
0.0125308
0.0125302
0.0125297
0.0125291
0.0125286
0.012528
0.0125274
0.0125268
0.0125262
0.0125255
0.0125249
0.0125242
0.0125235
0.0125228
0.0125221
0.0125213
0.0125206
0.0125198
0.012519
0.0125182
0.0125174
0.0125166
0.0125158
0.012515
0.0125142
0.0125133
0.0125125
0.0125117
0.0125109
0.0125101
0.0125093
0.0125085
0.0125077
0.0125069
0.0125061
0.0125053
0.0125046
0.0125038
0.0125031
0.0125024
0.0125017
0.012501
0.0125003
0.0124996
0.012499
0.0124984
0.0124978
0.0124972
0.0124967
0.0124961
0.0124956
0.0124952
0.0124947
0.0124943
0.0124939
0.0124935
0.0124932
0.0124929
0.0124926
0.0124923
0.0124921
0.0124919
0.0124918
0.0124917
0.0124916
0.0124915
0.0124915
0.0124915
0.0124915
0.0124916
0.0124916
0.0124918
0.0124919
0.0124921
0.0124924
0.0124926
0.0124929
0.0124932
0.0124936
0.0124939
0.0124943
0.0124947
0.0124951
0.0124956
0.012496
0.0124965
0.012497
0.0124976
0.0124981
0.0124987
0.0124993
0.0124998
0.0125005
0.0125011
0.0125017
0.0125024
0.012503
0.0125037
0.0125044
0.0125051
0.0125058
0.0125066
0.0125074
0.0125081
0.0125089
0.0125098
0.0125106
0.0125115
0.0125124
0.0125133
0.0125143
0.0125153
0.0125163
0.0125174
0.0125185
0.0125196
0.0125208
0.0125221
0.0125234
0.0125248
0.0125262
0.0125277
0.0125292
0.0125308
0.0125325
0.0125342
0.012536
0.0125379
0.0125399
0.0125419
0.012544
0.0125461
0.0125483
0.0125506
0.012553
0.0125554
0.0125578
0.0125603
0.0125628
0.0125654
0.0125679
0.0125705
0.0125731
0.0125757
0.0125783
0.0125808
0.0125833
0.0125857
0.0125881
0.0125903
0.0125925
0.0125946
0.0125966
0.0125984
0.0126
0.0126015
0.0126029
0.012604
0.012605
0.0126058
0.0126063
0.0126066
0.0126067
0.0126067
0.0126067
0.0126064
0.012606
0.0126048
0.0126039
0.0126022
0.012601
0.0125989
0.0125973
0.012595
0.0125931
0.0125906
0.0125885
0.0125858
0.0125835
0.0125807
0.0125784
0.0125757
0.0125732
0.0125707
0.0125682
0.0125658
0.0125633
0.0125613
0.0125588
0.0125571
0.0125546
0.0125533
0.0125508
)
;

boundaryField
{
    inlet
    {
        type            fixedValue;
        value           uniform 0.55;
    }
    outlet
    {
        type            zeroGradient;
    }
    emptyWalls
    {
        type            empty;
    }
}


// ************************************************************************* //
