/*--------------------------------*- C++ -*----------------------------------*\
  =========                 |
  \\      /  F ield         | OpenFOAM: The Open Source CFD Toolbox
   \\    /   O peration     | Website:  https://openfoam.org
    \\  /    A nd           | Version:  9
     \\/     M anipulation  |
\*---------------------------------------------------------------------------*/
FoamFile
{
    format      ascii;
    class       volScalarField;
    location    "9500";
    object      Sb;
}
// * * * * * * * * * * * * * * * * * * * * * * * * * * * * * * * * * * * * * //

dimensions      [0 0 0 0 0 0 0];

internalField   nonuniform List<scalar> 
1000
(
0.350455
0.352149
0.353591
0.355385
0.356833
0.358422
0.359794
0.361094
0.362211
0.363351
0.365284
0.371332
0.398711
0.549687
0.645933
0.664372
0.671123
0.674763
0.67712
0.678774
0.679986
0.680875
0.681536
0.682014
0.682366
0.6826
0.682746
0.6828
0.682769
0.682638
0.682408
0.68208
0.681612
0.680949
0.680013
0.678705
0.676982
0.674946
0.672759
0.670495
0.668199
0.665894
0.663597
0.661314
0.65905
0.656807
0.654587
0.65239
0.650215
0.648065
0.645938
0.643836
0.641759
0.639707
0.637682
0.635682
0.633709
0.631762
0.629841
0.627945
0.626075
0.624229
0.622406
0.620607
0.61883
0.617075
0.615342
0.613629
0.611935
0.610262
0.608607
0.606971
0.605353
0.603752
0.602169
0.600602
0.599052
0.597518
0.595999
0.594496
0.593008
0.591534
0.590075
0.58863
0.587198
0.58578
0.584375
0.582983
0.581603
0.580236
0.578881
0.577537
0.576205
0.574885
0.573576
0.572278
0.57099
0.569713
0.568447
0.56719
0.565944
0.564707
0.56348
0.562263
0.561055
0.559856
0.558666
0.557485
0.556312
0.555148
0.553992
0.552844
0.551705
0.550573
0.549449
0.548332
0.547223
0.546122
0.545028
0.54394
0.54286
0.541787
0.54072
0.539661
0.538607
0.53756
0.53652
0.535486
0.534458
0.533436
0.53242
0.53141
0.530406
0.529408
0.528415
0.527428
0.526446
0.525469
0.524498
0.523532
0.522571
0.521615
0.520664
0.519718
0.518777
0.51784
0.516908
0.51598
0.515057
0.514138
0.513223
0.512312
0.511405
0.510501
0.509601
0.508705
0.507811
0.506922
0.506035
0.505152
0.504273
0.503396
0.502524
0.501654
0.500789
0.499927
0.49907
0.498216
0.497367
0.496523
0.495682
0.494847
0.494016
0.49319
0.492369
0.491552
0.49074
0.489933
0.48913
0.48833
0.487535
0.486742
0.485953
0.485167
0.484383
0.483601
0.482822
0.482044
0.481268
0.480494
0.479721
0.47895
0.47818
0.477412
0.476646
0.475882
0.475119
0.474358
0.473599
0.472842
0.472087
0.471333
0.470583
0.469833
0.469087
0.468342
0.467599
0.466858
0.46612
0.465383
0.464648
0.463915
0.463184
0.462455
0.461728
0.461003
0.460279
0.459557
0.458836
0.458118
0.457401
0.456685
0.455971
0.455258
0.454547
0.453837
0.453129
0.452421
0.451716
0.451011
0.450308
0.449606
0.448905
0.448205
0.447507
0.446809
0.446113
0.445418
0.444724
0.44403
0.443338
0.442647
0.441956
0.441267
0.440578
0.43989
0.439203
0.438517
0.437832
0.437147
0.436463
0.43578
0.435097
0.434415
0.433734
0.433053
0.432373
0.431693
0.431014
0.430336
0.429658
0.42898
0.428303
0.427626
0.426949
0.426273
0.425597
0.424922
0.424246
0.423571
0.422896
0.422221
0.421547
0.420872
0.420198
0.419523
0.418849
0.418175
0.4175
0.416826
0.416151
0.415477
0.414802
0.414127
0.413451
0.412776
0.4121
0.411424
0.410747
0.41007
0.409393
0.408715
0.408037
0.407358
0.406678
0.405998
0.405317
0.404636
0.403954
0.403271
0.402587
0.401902
0.401217
0.40053
0.399843
0.399154
0.398465
0.397774
0.397082
0.396388
0.395694
0.394998
0.3943
0.393601
0.392901
0.392199
0.391495
0.390789
0.390082
0.389372
0.388661
0.387948
0.387232
0.386515
0.385795
0.385074
0.384349
0.383623
0.382894
0.382163
0.381429
0.380693
0.379955
0.379214
0.37847
0.377724
0.376975
0.376224
0.37547
0.374714
0.373956
0.373195
0.372432
0.371666
0.370899
0.37013
0.369359
0.368587
0.367815
0.367042
0.366269
0.365498
0.36473
0.363966
0.363208
0.362458
0.361718
0.360992
0.360281
0.359591
0.358925
0.358287
0.35768
0.357109
0.356576
0.356085
0.355636
0.355229
0.354863
0.354531
0.354222
0.35392
0.353592
0.353185
0.352605
0.351691
0.350171
0.347602
0.343313
0.336434
0.326158
0.31238
0.296421
0.280878
0.268214
0.259396
0.253949
0.25084
0.24915
0.248255
0.247788
0.247547
0.247422
0.247358
0.247325
0.247308
0.2473
0.247295
0.247293
0.247292
0.247292
0.247292
0.247292
0.247292
0.247292
0.247292
0.247292
0.247292
0.247292
0.247292
0.247293
0.247293
0.247293
0.247293
0.247293
0.247293
0.247293
0.247294
0.247294
0.247294
0.247294
0.247294
0.247294
0.247294
0.247295
0.247295
0.247295
0.247295
0.247295
0.247295
0.247295
0.247295
0.247296
0.247296
0.247296
0.247296
0.247296
0.247296
0.247296
0.247296
0.247296
0.247296
0.247296
0.247296
0.247296
0.247296
0.247296
0.247296
0.247296
0.247295
0.247295
0.247295
0.247295
0.247295
0.247294
0.247294
0.247294
0.247294
0.247293
0.247293
0.247293
0.247293
0.247292
0.247292
0.247292
0.247291
0.247291
0.247291
0.247291
0.24729
0.24729
0.24729
0.247289
0.247289
0.247289
0.247288
0.247288
0.247288
0.247288
0.247287
0.247287
0.247287
0.247286
0.247286
0.247286
0.247286
0.247285
0.247285
0.247285
0.247285
0.247284
0.247284
0.247284
0.247284
0.247283
0.247283
0.247283
0.247283
0.247283
0.247282
0.247282
0.247282
0.247282
0.247281
0.247281
0.247281
0.247281
0.247281
0.24728
0.24728
0.24728
0.24728
0.247279
0.247279
0.247279
0.247278
0.247278
0.247277
0.247277
0.247277
0.247276
0.247276
0.247275
0.247275
0.247274
0.247274
0.247273
0.247272
0.247272
0.247271
0.24727
0.24727
0.247269
0.247268
0.247268
0.247267
0.247266
0.247266
0.247265
0.247265
0.247264
0.247263
0.247263
0.247262
0.247262
0.247262
0.247261
0.247261
0.247261
0.247261
0.247261
0.247261
0.247261
0.247261
0.247261
0.247262
0.247262
0.247263
0.247263
0.247264
0.247264
0.247265
0.247266
0.247267
0.247267
0.247268
0.247269
0.24727
0.247271
0.247271
0.247272
0.247273
0.247273
0.247274
0.247275
0.247275
0.247276
0.247276
0.247277
0.247277
0.247277
0.247278
0.247278
0.247278
0.247278
0.247279
0.247279
0.247279
0.247279
0.247279
0.247279
0.247279
0.24728
0.24728
0.24728
0.24728
0.24728
0.24728
0.24728
0.24728
0.24728
0.24728
0.24728
0.24728
0.24728
0.24728
0.24728
0.24728
0.24728
0.24728
0.247281
0.247281
0.247281
0.247281
0.247281
0.247281
0.247281
0.247281
0.247281
0.247281
0.247282
0.247282
0.247282
0.247282
0.247283
0.247283
0.247283
0.247284
0.247284
0.247284
0.247285
0.247285
0.247285
0.247286
0.247286
0.247286
0.247286
0.247287
0.247287
0.247287
0.247287
0.247288
0.247288
0.247288
0.247288
0.247288
0.247288
0.247288
0.247288
0.247288
0.247289
0.247289
0.247289
0.247289
0.247289
0.247289
0.247289
0.247289
0.247289
0.247289
0.247289
0.247289
0.247289
0.247289
0.247289
0.247289
0.247289
0.247289
0.247289
0.247289
0.247289
0.247289
0.247289
0.247288
0.247288
0.247288
0.247288
0.247288
0.247288
0.247288
0.247288
0.247288
0.247288
0.247288
0.247288
0.247288
0.247287
0.247287
0.247287
0.247287
0.247287
0.247287
0.247287
0.247287
0.247287
0.247286
0.247286
0.247286
0.247286
0.247286
0.247286
0.247286
0.247286
0.247285
0.247285
0.247285
0.247285
0.247285
0.247284
0.247284
0.247284
0.247284
0.247284
0.247283
0.247283
0.247283
0.247283
0.247282
0.247282
0.247282
0.247281
0.247281
0.247281
0.24728
0.24728
0.24728
0.247279
0.247279
0.247278
0.247278
0.247277
0.247277
0.247276
0.247276
0.247275
0.247275
0.247274
0.247273
0.247273
0.247272
0.247271
0.247271
0.24727
0.24727
0.247269
0.247268
0.247268
0.247267
0.247267
0.247266
0.247266
0.247265
0.247265
0.247264
0.247264
0.247264
0.247263
0.247263
0.247263
0.247263
0.247263
0.247263
0.247263
0.247263
0.247263
0.247264
0.247264
0.247264
0.247265
0.247265
0.247266
0.247266
0.247267
0.247267
0.247268
0.247269
0.247269
0.24727
0.247271
0.247271
0.247272
0.247272
0.247273
0.247273
0.247274
0.247275
0.247275
0.247275
0.247276
0.247276
0.247277
0.247277
0.247277
0.247278
0.247278
0.247278
0.247278
0.247279
0.247279
0.247279
0.247279
0.247279
0.247279
0.247279
0.24728
0.24728
0.24728
0.24728
0.24728
0.24728
0.24728
0.24728
0.24728
0.247281
0.247281
0.247281
0.247281
0.247281
0.247281
0.247281
0.247282
0.247282
0.247282
0.247282
0.247282
0.247282
0.247283
0.247283
0.247283
0.247283
0.247284
0.247284
0.247284
0.247284
0.247284
0.247285
0.247285
0.247285
0.247285
0.247285
0.247286
0.247286
0.247286
0.247286
0.247286
0.247287
0.247287
0.247287
0.247287
0.247287
0.247287
0.247288
0.247288
0.247288
0.247288
0.247288
0.247288
0.247288
0.247288
0.247288
0.247288
0.247288
0.247289
0.247289
0.247289
0.247289
0.247289
0.247289
0.247289
0.247289
0.247289
0.247289
0.247289
0.247289
0.247289
0.247289
0.247289
0.247289
0.247289
0.247289
0.247288
0.247288
0.247288
0.247288
0.247288
0.247288
0.247288
0.247288
0.247288
0.247288
0.247288
0.247288
0.247287
0.247287
0.247287
0.247287
0.247287
0.247287
0.247287
0.247287
0.247287
0.247286
0.247286
0.247286
0.247286
0.247286
0.247286
0.247285
0.247285
0.247285
0.247285
0.247285
0.247285
0.247284
0.247284
0.247284
0.247284
0.247284
0.247284
0.247283
0.247283
0.247283
0.247283
0.247282
0.247282
0.247282
0.247282
0.247281
0.247281
0.247281
0.24728
0.24728
0.247279
0.247279
0.247279
0.247278
0.247278
0.247277
0.247277
0.247276
0.247276
0.247275
0.247275
0.247274
0.247274
0.247273
0.247273
0.247272
0.247272
0.247271
0.247271
0.24727
0.24727
0.247269
0.247269
0.247268
0.247267
0.247267
0.247267
0.247266
0.247266
0.247265
0.247265
0.247265
0.247265
0.247264
0.247264
0.247264
0.247264
0.247264
0.247264
0.247264
0.247264
0.247264
0.247264
0.247265
0.247265
0.247265
0.247266
0.247266
0.247267
0.247267
0.247267
0.247268
0.247269
0.247269
0.24727
0.24727
0.247271
0.247271
0.247272
0.247272
0.247273
0.247273
0.247274
0.247274
0.247275
0.247275
0.247275
0.247276
)
;

boundaryField
{
    inlet
    {
        type            fixedValue;
        value           uniform 0.35;
    }
    outlet
    {
        type            zeroGradient;
    }
    emptyWalls
    {
        type            empty;
    }
}


// ************************************************************************* //
