/*--------------------------------*- C++ -*----------------------------------*\
  =========                 |
  \\      /  F ield         | OpenFOAM: The Open Source CFD Toolbox
   \\    /   O peration     | Website:  https://openfoam.org
    \\  /    A nd           | Version:  9
     \\/     M anipulation  |
\*---------------------------------------------------------------------------*/
FoamFile
{
    format      ascii;
    class       volVectorField;
    location    "7700";
    object      Ua;
}
// * * * * * * * * * * * * * * * * * * * * * * * * * * * * * * * * * * * * * //

dimensions      [0 0 0 0 0 0 0];

internalField   nonuniform List<vector> 
1000
(
(2.74886e-06 0 0)
(2.74822e-06 0 0)
(2.74705e-06 0 0)
(2.74585e-06 0 0)
(2.74404e-06 0 0)
(2.74203e-06 0 0)
(2.74013e-06 0 0)
(2.73641e-06 0 0)
(2.7264e-06 0 0)
(2.68632e-06 0 0)
(2.46325e-06 0 0)
(2.21249e-06 0 0)
(2.13577e-06 0 0)
(2.11108e-06 0 0)
(2.09785e-06 0 0)
(2.08869e-06 0 0)
(2.08157e-06 0 0)
(2.07578e-06 0 0)
(2.07096e-06 0 0)
(2.06685e-06 0 0)
(2.06334e-06 0 0)
(2.06024e-06 0 0)
(2.05742e-06 0 0)
(2.05475e-06 0 0)
(2.05216e-06 0 0)
(2.04972e-06 0 0)
(2.04752e-06 0 0)
(2.04563e-06 0 0)
(2.04427e-06 0 0)
(2.04358e-06 0 0)
(2.04325e-06 0 0)
(2.04296e-06 0 0)
(2.04265e-06 0 0)
(2.04232e-06 0 0)
(2.04198e-06 0 0)
(2.04162e-06 0 0)
(2.04124e-06 0 0)
(2.04085e-06 0 0)
(2.04045e-06 0 0)
(2.04005e-06 0 0)
(2.03964e-06 0 0)
(2.03924e-06 0 0)
(2.03885e-06 0 0)
(2.03847e-06 0 0)
(2.0381e-06 0 0)
(2.03773e-06 0 0)
(2.03738e-06 0 0)
(2.03704e-06 0 0)
(2.03671e-06 0 0)
(2.03639e-06 0 0)
(2.03608e-06 0 0)
(2.03577e-06 0 0)
(2.03547e-06 0 0)
(2.03517e-06 0 0)
(2.03488e-06 0 0)
(2.03459e-06 0 0)
(2.0343e-06 0 0)
(2.034e-06 0 0)
(2.03368e-06 0 0)
(2.03335e-06 0 0)
(2.03302e-06 0 0)
(2.03272e-06 0 0)
(2.03245e-06 0 0)
(2.03225e-06 0 0)
(2.03212e-06 0 0)
(2.03206e-06 0 0)
(2.03204e-06 0 0)
(2.03204e-06 0 0)
(2.03206e-06 0 0)
(2.03208e-06 0 0)
(2.03213e-06 0 0)
(2.03226e-06 0 0)
(2.03252e-06 0 0)
(2.03296e-06 0 0)
(2.03364e-06 0 0)
(2.03459e-06 0 0)
(2.03582e-06 0 0)
(2.03735e-06 0 0)
(2.03913e-06 0 0)
(2.04115e-06 0 0)
(2.04333e-06 0 0)
(2.04563e-06 0 0)
(2.04798e-06 0 0)
(2.0503e-06 0 0)
(2.0525e-06 0 0)
(2.05451e-06 0 0)
(2.05623e-06 0 0)
(2.05757e-06 0 0)
(2.05842e-06 0 0)
(2.05872e-06 0 0)
(2.0584e-06 0 0)
(2.05742e-06 0 0)
(2.05578e-06 0 0)
(2.0535e-06 0 0)
(2.05064e-06 0 0)
(2.0473e-06 0 0)
(2.0436e-06 0 0)
(2.03966e-06 0 0)
(2.03563e-06 0 0)
(2.03164e-06 0 0)
(2.02782e-06 0 0)
(2.02425e-06 0 0)
(2.02103e-06 0 0)
(2.0182e-06 0 0)
(2.01578e-06 0 0)
(2.01379e-06 0 0)
(2.01219e-06 0 0)
(2.01095e-06 0 0)
(2.01004e-06 0 0)
(2.00939e-06 0 0)
(2.00896e-06 0 0)
(2.00868e-06 0 0)
(2.00851e-06 0 0)
(2.0084e-06 0 0)
(2.00832e-06 0 0)
(2.00821e-06 0 0)
(2.00807e-06 0 0)
(2.00788e-06 0 0)
(2.00762e-06 0 0)
(2.00728e-06 0 0)
(2.00686e-06 0 0)
(2.00638e-06 0 0)
(2.00582e-06 0 0)
(2.00521e-06 0 0)
(2.00454e-06 0 0)
(2.00382e-06 0 0)
(2.00306e-06 0 0)
(2.00228e-06 0 0)
(2.00147e-06 0 0)
(2.00065e-06 0 0)
(1.99981e-06 0 0)
(1.99897e-06 0 0)
(1.99812e-06 0 0)
(1.99727e-06 0 0)
(1.99642e-06 0 0)
(1.99557e-06 0 0)
(1.99472e-06 0 0)
(1.99387e-06 0 0)
(1.99303e-06 0 0)
(1.99219e-06 0 0)
(1.99135e-06 0 0)
(1.99052e-06 0 0)
(1.98968e-06 0 0)
(1.98885e-06 0 0)
(1.98802e-06 0 0)
(1.9872e-06 0 0)
(1.98637e-06 0 0)
(1.98554e-06 0 0)
(1.98472e-06 0 0)
(1.9839e-06 0 0)
(1.98308e-06 0 0)
(1.98226e-06 0 0)
(1.98144e-06 0 0)
(1.98063e-06 0 0)
(1.97982e-06 0 0)
(1.97902e-06 0 0)
(1.97822e-06 0 0)
(1.97743e-06 0 0)
(1.97665e-06 0 0)
(1.97587e-06 0 0)
(1.97511e-06 0 0)
(1.97435e-06 0 0)
(1.97361e-06 0 0)
(1.97287e-06 0 0)
(1.97215e-06 0 0)
(1.97145e-06 0 0)
(1.97075e-06 0 0)
(1.97007e-06 0 0)
(1.9694e-06 0 0)
(1.96875e-06 0 0)
(1.96811e-06 0 0)
(1.96749e-06 0 0)
(1.96688e-06 0 0)
(1.96628e-06 0 0)
(1.96569e-06 0 0)
(1.96512e-06 0 0)
(1.96456e-06 0 0)
(1.96401e-06 0 0)
(1.96347e-06 0 0)
(1.96294e-06 0 0)
(1.96242e-06 0 0)
(1.96191e-06 0 0)
(1.96141e-06 0 0)
(1.96092e-06 0 0)
(1.96044e-06 0 0)
(1.95996e-06 0 0)
(1.95949e-06 0 0)
(1.95902e-06 0 0)
(1.95856e-06 0 0)
(1.9581e-06 0 0)
(1.95765e-06 0 0)
(1.95721e-06 0 0)
(1.95676e-06 0 0)
(1.95632e-06 0 0)
(1.95589e-06 0 0)
(1.95546e-06 0 0)
(1.95503e-06 0 0)
(1.95461e-06 0 0)
(1.95418e-06 0 0)
(1.95376e-06 0 0)
(1.95335e-06 0 0)
(1.95293e-06 0 0)
(1.95252e-06 0 0)
(1.95211e-06 0 0)
(1.9517e-06 0 0)
(1.95129e-06 0 0)
(1.95089e-06 0 0)
(1.95049e-06 0 0)
(1.9501e-06 0 0)
(1.94971e-06 0 0)
(1.94933e-06 0 0)
(1.94897e-06 0 0)
(1.94861e-06 0 0)
(1.94826e-06 0 0)
(1.94793e-06 0 0)
(1.94761e-06 0 0)
(1.9473e-06 0 0)
(1.94702e-06 0 0)
(1.94674e-06 0 0)
(1.94649e-06 0 0)
(1.94627e-06 0 0)
(1.94607e-06 0 0)
(1.94591e-06 0 0)
(1.94578e-06 0 0)
(1.9457e-06 0 0)
(1.94566e-06 0 0)
(1.94569e-06 0 0)
(1.94578e-06 0 0)
(1.94594e-06 0 0)
(1.94617e-06 0 0)
(1.94648e-06 0 0)
(1.94688e-06 0 0)
(1.94736e-06 0 0)
(1.94793e-06 0 0)
(1.94858e-06 0 0)
(1.94931e-06 0 0)
(1.95012e-06 0 0)
(1.95098e-06 0 0)
(1.9519e-06 0 0)
(1.95285e-06 0 0)
(1.95383e-06 0 0)
(1.95481e-06 0 0)
(1.95578e-06 0 0)
(1.95671e-06 0 0)
(1.95758e-06 0 0)
(1.95836e-06 0 0)
(1.95904e-06 0 0)
(1.95958e-06 0 0)
(1.95997e-06 0 0)
(1.96017e-06 0 0)
(1.96019e-06 0 0)
(1.95999e-06 0 0)
(1.95956e-06 0 0)
(1.9589e-06 0 0)
(1.958e-06 0 0)
(1.95686e-06 0 0)
(1.9555e-06 0 0)
(1.95392e-06 0 0)
(1.95215e-06 0 0)
(1.95019e-06 0 0)
(1.94809e-06 0 0)
(1.94587e-06 0 0)
(1.94355e-06 0 0)
(1.94118e-06 0 0)
(1.93878e-06 0 0)
(1.93638e-06 0 0)
(1.93402e-06 0 0)
(1.93172e-06 0 0)
(1.9295e-06 0 0)
(1.92737e-06 0 0)
(1.92536e-06 0 0)
(1.92347e-06 0 0)
(1.92172e-06 0 0)
(1.92009e-06 0 0)
(1.9186e-06 0 0)
(1.91723e-06 0 0)
(1.91598e-06 0 0)
(1.91485e-06 0 0)
(1.91382e-06 0 0)
(1.91288e-06 0 0)
(1.91203e-06 0 0)
(1.91124e-06 0 0)
(1.91051e-06 0 0)
(1.90983e-06 0 0)
(1.90919e-06 0 0)
(1.90858e-06 0 0)
(1.90799e-06 0 0)
(1.90741e-06 0 0)
(1.90685e-06 0 0)
(1.9063e-06 0 0)
(1.90575e-06 0 0)
(1.90521e-06 0 0)
(1.90468e-06 0 0)
(1.90415e-06 0 0)
(1.90364e-06 0 0)
(1.90314e-06 0 0)
(1.90265e-06 0 0)
(1.90217e-06 0 0)
(1.90169e-06 0 0)
(1.9012e-06 0 0)
(1.90067e-06 0 0)
(1.90006e-06 0 0)
(1.89929e-06 0 0)
(1.89821e-06 0 0)
(1.89661e-06 0 0)
(1.89413e-06 0 0)
(1.89037e-06 0 0)
(1.88497e-06 0 0)
(1.87804e-06 0 0)
(1.8705e-06 0 0)
(1.8638e-06 0 0)
(1.85899e-06 0 0)
(1.8561e-06 0 0)
(1.85451e-06 0 0)
(1.85362e-06 0 0)
(1.85307e-06 0 0)
(1.85268e-06 0 0)
(1.85237e-06 0 0)
(1.85209e-06 0 0)
(1.85184e-06 0 0)
(1.85159e-06 0 0)
(1.85136e-06 0 0)
(1.85113e-06 0 0)
(1.8509e-06 0 0)
(1.85067e-06 0 0)
(1.85045e-06 0 0)
(1.85023e-06 0 0)
(1.85002e-06 0 0)
(1.8498e-06 0 0)
(1.84959e-06 0 0)
(1.84938e-06 0 0)
(1.84918e-06 0 0)
(1.84898e-06 0 0)
(1.84878e-06 0 0)
(1.84858e-06 0 0)
(1.84838e-06 0 0)
(1.84819e-06 0 0)
(1.84801e-06 0 0)
(1.84782e-06 0 0)
(1.84764e-06 0 0)
(1.84746e-06 0 0)
(1.84729e-06 0 0)
(1.84712e-06 0 0)
(1.84696e-06 0 0)
(1.8468e-06 0 0)
(1.84665e-06 0 0)
(1.8465e-06 0 0)
(1.84636e-06 0 0)
(1.84623e-06 0 0)
(1.84611e-06 0 0)
(1.84599e-06 0 0)
(1.84588e-06 0 0)
(1.84578e-06 0 0)
(1.84569e-06 0 0)
(1.84561e-06 0 0)
(1.84554e-06 0 0)
(1.84548e-06 0 0)
(1.84543e-06 0 0)
(1.8454e-06 0 0)
(1.84537e-06 0 0)
(1.84536e-06 0 0)
(1.84535e-06 0 0)
(1.84535e-06 0 0)
(1.84535e-06 0 0)
(1.84537e-06 0 0)
(1.84541e-06 0 0)
(1.84546e-06 0 0)
(1.84552e-06 0 0)
(1.84559e-06 0 0)
(1.84567e-06 0 0)
(1.84576e-06 0 0)
(1.84585e-06 0 0)
(1.84596e-06 0 0)
(1.84607e-06 0 0)
(1.84619e-06 0 0)
(1.84631e-06 0 0)
(1.84644e-06 0 0)
(1.84658e-06 0 0)
(1.84672e-06 0 0)
(1.84687e-06 0 0)
(1.84703e-06 0 0)
(1.84718e-06 0 0)
(1.84734e-06 0 0)
(1.84751e-06 0 0)
(1.84768e-06 0 0)
(1.84785e-06 0 0)
(1.84802e-06 0 0)
(1.84819e-06 0 0)
(1.84837e-06 0 0)
(1.84855e-06 0 0)
(1.84872e-06 0 0)
(1.8489e-06 0 0)
(1.84909e-06 0 0)
(1.84927e-06 0 0)
(1.84945e-06 0 0)
(1.84964e-06 0 0)
(1.84982e-06 0 0)
(1.85001e-06 0 0)
(1.8502e-06 0 0)
(1.8504e-06 0 0)
(1.85059e-06 0 0)
(1.85079e-06 0 0)
(1.85099e-06 0 0)
(1.85119e-06 0 0)
(1.8514e-06 0 0)
(1.85161e-06 0 0)
(1.85183e-06 0 0)
(1.85206e-06 0 0)
(1.85229e-06 0 0)
(1.85252e-06 0 0)
(1.85277e-06 0 0)
(1.85303e-06 0 0)
(1.85329e-06 0 0)
(1.85357e-06 0 0)
(1.85386e-06 0 0)
(1.85417e-06 0 0)
(1.8545e-06 0 0)
(1.85484e-06 0 0)
(1.8552e-06 0 0)
(1.85559e-06 0 0)
(1.85599e-06 0 0)
(1.85643e-06 0 0)
(1.85689e-06 0 0)
(1.85739e-06 0 0)
(1.85792e-06 0 0)
(1.85848e-06 0 0)
(1.85908e-06 0 0)
(1.85972e-06 0 0)
(1.86039e-06 0 0)
(1.86111e-06 0 0)
(1.86186e-06 0 0)
(1.86265e-06 0 0)
(1.86349e-06 0 0)
(1.86436e-06 0 0)
(1.86526e-06 0 0)
(1.8662e-06 0 0)
(1.86717e-06 0 0)
(1.86817e-06 0 0)
(1.86918e-06 0 0)
(1.87022e-06 0 0)
(1.87126e-06 0 0)
(1.8723e-06 0 0)
(1.87334e-06 0 0)
(1.87436e-06 0 0)
(1.87536e-06 0 0)
(1.87633e-06 0 0)
(1.87726e-06 0 0)
(1.87813e-06 0 0)
(1.87895e-06 0 0)
(1.87969e-06 0 0)
(1.88036e-06 0 0)
(1.88093e-06 0 0)
(1.8814e-06 0 0)
(1.88177e-06 0 0)
(1.88202e-06 0 0)
(1.88216e-06 0 0)
(1.88221e-06 0 0)
(1.88221e-06 0 0)
(1.88217e-06 0 0)
(1.88194e-06 0 0)
(1.88149e-06 0 0)
(1.88091e-06 0 0)
(1.88023e-06 0 0)
(1.87943e-06 0 0)
(1.87855e-06 0 0)
(1.87758e-06 0 0)
(1.87655e-06 0 0)
(1.87545e-06 0 0)
(1.87431e-06 0 0)
(1.87315e-06 0 0)
(1.87196e-06 0 0)
(1.87077e-06 0 0)
(1.86959e-06 0 0)
(1.86843e-06 0 0)
(1.8673e-06 0 0)
(1.86621e-06 0 0)
(1.86518e-06 0 0)
(1.8642e-06 0 0)
(1.86328e-06 0 0)
(1.86244e-06 0 0)
(1.86166e-06 0 0)
(1.86095e-06 0 0)
(1.86032e-06 0 0)
(1.85976e-06 0 0)
(1.85926e-06 0 0)
(1.85884e-06 0 0)
(1.85847e-06 0 0)
(1.85816e-06 0 0)
(1.85791e-06 0 0)
(1.8577e-06 0 0)
(1.85753e-06 0 0)
(1.8574e-06 0 0)
(1.8573e-06 0 0)
(1.85723e-06 0 0)
(1.85718e-06 0 0)
(1.85715e-06 0 0)
(1.85713e-06 0 0)
(1.85711e-06 0 0)
(1.8571e-06 0 0)
(1.8571e-06 0 0)
(1.85709e-06 0 0)
(1.85709e-06 0 0)
(1.85708e-06 0 0)
(1.85705e-06 0 0)
(1.85702e-06 0 0)
(1.85697e-06 0 0)
(1.85691e-06 0 0)
(1.85684e-06 0 0)
(1.85675e-06 0 0)
(1.85664e-06 0 0)
(1.85652e-06 0 0)
(1.85639e-06 0 0)
(1.85624e-06 0 0)
(1.85609e-06 0 0)
(1.85592e-06 0 0)
(1.85573e-06 0 0)
(1.85554e-06 0 0)
(1.85534e-06 0 0)
(1.85513e-06 0 0)
(1.85492e-06 0 0)
(1.8547e-06 0 0)
(1.85447e-06 0 0)
(1.85424e-06 0 0)
(1.854e-06 0 0)
(1.85377e-06 0 0)
(1.85353e-06 0 0)
(1.85329e-06 0 0)
(1.85305e-06 0 0)
(1.85282e-06 0 0)
(1.85258e-06 0 0)
(1.85235e-06 0 0)
(1.85212e-06 0 0)
(1.85189e-06 0 0)
(1.85167e-06 0 0)
(1.85145e-06 0 0)
(1.85123e-06 0 0)
(1.85102e-06 0 0)
(1.85082e-06 0 0)
(1.85062e-06 0 0)
(1.85042e-06 0 0)
(1.85023e-06 0 0)
(1.85005e-06 0 0)
(1.84987e-06 0 0)
(1.8497e-06 0 0)
(1.84953e-06 0 0)
(1.84937e-06 0 0)
(1.84922e-06 0 0)
(1.84907e-06 0 0)
(1.84892e-06 0 0)
(1.84879e-06 0 0)
(1.84865e-06 0 0)
(1.84852e-06 0 0)
(1.8484e-06 0 0)
(1.84828e-06 0 0)
(1.84817e-06 0 0)
(1.84806e-06 0 0)
(1.84796e-06 0 0)
(1.84786e-06 0 0)
(1.84777e-06 0 0)
(1.84768e-06 0 0)
(1.84759e-06 0 0)
(1.84751e-06 0 0)
(1.84744e-06 0 0)
(1.84736e-06 0 0)
(1.8473e-06 0 0)
(1.84724e-06 0 0)
(1.84718e-06 0 0)
(1.84713e-06 0 0)
(1.84709e-06 0 0)
(1.84705e-06 0 0)
(1.84702e-06 0 0)
(1.847e-06 0 0)
(1.84698e-06 0 0)
(1.84696e-06 0 0)
(1.84696e-06 0 0)
(1.84696e-06 0 0)
(1.84696e-06 0 0)
(1.84696e-06 0 0)
(1.84698e-06 0 0)
(1.84701e-06 0 0)
(1.84704e-06 0 0)
(1.84709e-06 0 0)
(1.84714e-06 0 0)
(1.8472e-06 0 0)
(1.84727e-06 0 0)
(1.84734e-06 0 0)
(1.84742e-06 0 0)
(1.84751e-06 0 0)
(1.84761e-06 0 0)
(1.84771e-06 0 0)
(1.84782e-06 0 0)
(1.84794e-06 0 0)
(1.84806e-06 0 0)
(1.84819e-06 0 0)
(1.84832e-06 0 0)
(1.84846e-06 0 0)
(1.8486e-06 0 0)
(1.84875e-06 0 0)
(1.84891e-06 0 0)
(1.84906e-06 0 0)
(1.84922e-06 0 0)
(1.84939e-06 0 0)
(1.84956e-06 0 0)
(1.84973e-06 0 0)
(1.8499e-06 0 0)
(1.85008e-06 0 0)
(1.85026e-06 0 0)
(1.85044e-06 0 0)
(1.85062e-06 0 0)
(1.85081e-06 0 0)
(1.851e-06 0 0)
(1.8512e-06 0 0)
(1.85139e-06 0 0)
(1.85159e-06 0 0)
(1.8518e-06 0 0)
(1.85201e-06 0 0)
(1.85223e-06 0 0)
(1.85245e-06 0 0)
(1.85268e-06 0 0)
(1.85292e-06 0 0)
(1.85317e-06 0 0)
(1.85342e-06 0 0)
(1.85369e-06 0 0)
(1.85397e-06 0 0)
(1.85427e-06 0 0)
(1.85458e-06 0 0)
(1.8549e-06 0 0)
(1.85525e-06 0 0)
(1.85561e-06 0 0)
(1.85599e-06 0 0)
(1.8564e-06 0 0)
(1.85683e-06 0 0)
(1.85728e-06 0 0)
(1.85776e-06 0 0)
(1.85827e-06 0 0)
(1.8588e-06 0 0)
(1.85936e-06 0 0)
(1.85995e-06 0 0)
(1.86057e-06 0 0)
(1.86122e-06 0 0)
(1.8619e-06 0 0)
(1.8626e-06 0 0)
(1.86333e-06 0 0)
(1.86408e-06 0 0)
(1.86486e-06 0 0)
(1.86565e-06 0 0)
(1.86646e-06 0 0)
(1.86729e-06 0 0)
(1.86812e-06 0 0)
(1.86896e-06 0 0)
(1.86979e-06 0 0)
(1.87062e-06 0 0)
(1.87144e-06 0 0)
(1.87225e-06 0 0)
(1.87303e-06 0 0)
(1.87378e-06 0 0)
(1.8745e-06 0 0)
(1.87517e-06 0 0)
(1.8758e-06 0 0)
(1.87637e-06 0 0)
(1.87689e-06 0 0)
(1.87733e-06 0 0)
(1.87771e-06 0 0)
(1.87801e-06 0 0)
(1.87822e-06 0 0)
(1.87835e-06 0 0)
(1.8784e-06 0 0)
(1.87842e-06 0 0)
(1.8784e-06 0 0)
(1.87829e-06 0 0)
(1.87802e-06 0 0)
(1.87763e-06 0 0)
(1.87715e-06 0 0)
(1.8766e-06 0 0)
(1.87597e-06 0 0)
(1.87527e-06 0 0)
(1.87451e-06 0 0)
(1.8737e-06 0 0)
(1.87284e-06 0 0)
(1.87195e-06 0 0)
(1.87104e-06 0 0)
(1.87011e-06 0 0)
(1.86917e-06 0 0)
(1.86823e-06 0 0)
(1.86731e-06 0 0)
(1.8664e-06 0 0)
(1.86552e-06 0 0)
(1.86467e-06 0 0)
(1.86385e-06 0 0)
(1.86308e-06 0 0)
(1.86235e-06 0 0)
(1.86168e-06 0 0)
(1.86105e-06 0 0)
(1.86047e-06 0 0)
(1.85995e-06 0 0)
(1.85947e-06 0 0)
(1.85905e-06 0 0)
(1.85867e-06 0 0)
(1.85834e-06 0 0)
(1.85806e-06 0 0)
(1.85781e-06 0 0)
(1.8576e-06 0 0)
(1.85742e-06 0 0)
(1.85728e-06 0 0)
(1.85716e-06 0 0)
(1.85706e-06 0 0)
(1.85699e-06 0 0)
(1.85693e-06 0 0)
(1.85688e-06 0 0)
(1.85684e-06 0 0)
(1.85681e-06 0 0)
(1.85679e-06 0 0)
(1.85676e-06 0 0)
(1.85674e-06 0 0)
(1.85671e-06 0 0)
(1.85668e-06 0 0)
(1.85664e-06 0 0)
(1.8566e-06 0 0)
(1.85654e-06 0 0)
(1.85648e-06 0 0)
(1.8564e-06 0 0)
(1.85631e-06 0 0)
(1.85621e-06 0 0)
(1.8561e-06 0 0)
(1.85598e-06 0 0)
(1.85584e-06 0 0)
(1.85569e-06 0 0)
(1.85553e-06 0 0)
(1.85536e-06 0 0)
(1.85518e-06 0 0)
(1.855e-06 0 0)
(1.8548e-06 0 0)
(1.85459e-06 0 0)
(1.85438e-06 0 0)
(1.85416e-06 0 0)
(1.85394e-06 0 0)
(1.85371e-06 0 0)
(1.85348e-06 0 0)
(1.85325e-06 0 0)
(1.85301e-06 0 0)
(1.85277e-06 0 0)
(1.85253e-06 0 0)
(1.85229e-06 0 0)
(1.85206e-06 0 0)
(1.85182e-06 0 0)
(1.85159e-06 0 0)
(1.85135e-06 0 0)
(1.85112e-06 0 0)
(1.8509e-06 0 0)
(1.85068e-06 0 0)
(1.85046e-06 0 0)
(1.85025e-06 0 0)
(1.85004e-06 0 0)
(1.84984e-06 0 0)
(1.84964e-06 0 0)
(1.84945e-06 0 0)
(1.84926e-06 0 0)
(1.84908e-06 0 0)
(1.84891e-06 0 0)
(1.84874e-06 0 0)
(1.84857e-06 0 0)
(1.84842e-06 0 0)
(1.84827e-06 0 0)
(1.84812e-06 0 0)
(1.84798e-06 0 0)
(1.84785e-06 0 0)
(1.84772e-06 0 0)
(1.8476e-06 0 0)
(1.84748e-06 0 0)
(1.84736e-06 0 0)
(1.84726e-06 0 0)
(1.84715e-06 0 0)
(1.84706e-06 0 0)
(1.84696e-06 0 0)
(1.84687e-06 0 0)
(1.84679e-06 0 0)
(1.84671e-06 0 0)
(1.84663e-06 0 0)
(1.84656e-06 0 0)
(1.8465e-06 0 0)
(1.84643e-06 0 0)
(1.84638e-06 0 0)
(1.84632e-06 0 0)
(1.84628e-06 0 0)
(1.84623e-06 0 0)
(1.8462e-06 0 0)
(1.84616e-06 0 0)
(1.84614e-06 0 0)
(1.84611e-06 0 0)
(1.8461e-06 0 0)
(1.84609e-06 0 0)
(1.84608e-06 0 0)
(1.84608e-06 0 0)
(1.84608e-06 0 0)
(1.84608e-06 0 0)
(1.8461e-06 0 0)
(1.84613e-06 0 0)
(1.84616e-06 0 0)
(1.8462e-06 0 0)
(1.84625e-06 0 0)
(1.8463e-06 0 0)
(1.84636e-06 0 0)
(1.84643e-06 0 0)
(1.84651e-06 0 0)
(1.84659e-06 0 0)
(1.84668e-06 0 0)
(1.84678e-06 0 0)
(1.84689e-06 0 0)
(1.847e-06 0 0)
(1.84712e-06 0 0)
(1.84725e-06 0 0)
(1.84739e-06 0 0)
(1.84753e-06 0 0)
(1.84768e-06 0 0)
(1.84784e-06 0 0)
(1.848e-06 0 0)
(1.84818e-06 0 0)
(1.84836e-06 0 0)
(1.84855e-06 0 0)
(1.84874e-06 0 0)
(1.84894e-06 0 0)
(1.84915e-06 0 0)
(1.84937e-06 0 0)
(1.8496e-06 0 0)
(1.84983e-06 0 0)
(1.85008e-06 0 0)
(1.85033e-06 0 0)
(1.85059e-06 0 0)
(1.85087e-06 0 0)
(1.85115e-06 0 0)
(1.85145e-06 0 0)
(1.85175e-06 0 0)
(1.85207e-06 0 0)
(1.85241e-06 0 0)
(1.85276e-06 0 0)
(1.85312e-06 0 0)
(1.8535e-06 0 0)
(1.85389e-06 0 0)
(1.8543e-06 0 0)
(1.85473e-06 0 0)
(1.85518e-06 0 0)
(1.85565e-06 0 0)
(1.85614e-06 0 0)
(1.85665e-06 0 0)
(1.85719e-06 0 0)
(1.85774e-06 0 0)
(1.85832e-06 0 0)
(1.85891e-06 0 0)
(1.85953e-06 0 0)
(1.86017e-06 0 0)
(1.86083e-06 0 0)
(1.86151e-06 0 0)
(1.86221e-06 0 0)
(1.86292e-06 0 0)
(1.86365e-06 0 0)
(1.86439e-06 0 0)
(1.86515e-06 0 0)
(1.86591e-06 0 0)
(1.86668e-06 0 0)
(1.86745e-06 0 0)
(1.86823e-06 0 0)
(1.86899e-06 0 0)
(1.86976e-06 0 0)
(1.87051e-06 0 0)
(1.87124e-06 0 0)
(1.87196e-06 0 0)
(1.87265e-06 0 0)
(1.87331e-06 0 0)
(1.87394e-06 0 0)
(1.87453e-06 0 0)
(1.87508e-06 0 0)
(1.87558e-06 0 0)
(1.87604e-06 0 0)
(1.87644e-06 0 0)
(1.87678e-06 0 0)
(1.87706e-06 0 0)
(1.87727e-06 0 0)
(1.87742e-06 0 0)
(1.8775e-06 0 0)
(1.87753e-06 0 0)
(1.87754e-06 0 0)
(1.87751e-06 0 0)
(1.87738e-06 0 0)
(1.87713e-06 0 0)
(1.8768e-06 0 0)
(1.87641e-06 0 0)
(1.87595e-06 0 0)
(1.87544e-06 0 0)
(1.87488e-06 0 0)
(1.87428e-06 0 0)
(1.87363e-06 0 0)
(1.87295e-06 0 0)
(1.87224e-06 0 0)
(1.8715e-06 0 0)
(1.87076e-06 0 0)
(1.87e-06 0 0)
(1.86924e-06 0 0)
(1.86848e-06 0 0)
(1.86774e-06 0 0)
(1.867e-06 0 0)
(1.86629e-06 0 0)
(1.86559e-06 0 0)
(1.86493e-06 0 0)
(1.86429e-06 0 0)
(1.86368e-06 0 0)
(1.86311e-06 0 0)
(1.86258e-06 0 0)
(1.86207e-06 0 0)
(1.86161e-06 0 0)
(1.86118e-06 0 0)
(1.86079e-06 0 0)
(1.86043e-06 0 0)
(1.8601e-06 0 0)
(1.85981e-06 0 0)
(1.85954e-06 0 0)
(1.85931e-06 0 0)
(1.85909e-06 0 0)
(1.85891e-06 0 0)
(1.85874e-06 0 0)
(1.85859e-06 0 0)
(1.85845e-06 0 0)
(1.85833e-06 0 0)
(1.85823e-06 0 0)
(1.85813e-06 0 0)
(1.85803e-06 0 0)
(1.85795e-06 0 0)
(1.85786e-06 0 0)
(1.85778e-06 0 0)
(1.8577e-06 0 0)
(1.85761e-06 0 0)
(1.85753e-06 0 0)
(1.85743e-06 0 0)
(1.85734e-06 0 0)
(1.85724e-06 0 0)
(1.85713e-06 0 0)
(1.85701e-06 0 0)
(1.85689e-06 0 0)
(1.85676e-06 0 0)
(1.85662e-06 0 0)
(1.85648e-06 0 0)
(1.85632e-06 0 0)
(1.85616e-06 0 0)
(1.85599e-06 0 0)
(1.85582e-06 0 0)
(1.85563e-06 0 0)
(1.85544e-06 0 0)
(1.85524e-06 0 0)
(1.85504e-06 0 0)
(1.85483e-06 0 0)
(1.85461e-06 0 0)
(1.85439e-06 0 0)
(1.85417e-06 0 0)
(1.85394e-06 0 0)
(1.85371e-06 0 0)
(1.85348e-06 0 0)
(1.85324e-06 0 0)
(1.85301e-06 0 0)
(1.85277e-06 0 0)
(1.85253e-06 0 0)
(1.85229e-06 0 0)
(1.85206e-06 0 0)
(1.85182e-06 0 0)
(1.85159e-06 0 0)
(1.85136e-06 0 0)
(1.85113e-06 0 0)
(1.8509e-06 0 0)
(1.85068e-06 0 0)
(1.85046e-06 0 0)
(1.85025e-06 0 0)
(1.85004e-06 0 0)
(1.84983e-06 0 0)
(1.84964e-06 0 0)
(1.84944e-06 0 0)
(1.84926e-06 0 0)
(1.84908e-06 0 0)
(1.8489e-06 0 0)
(1.84873e-06 0 0)
(1.84857e-06 0 0)
(1.84842e-06 0 0)
(1.84827e-06 0 0)
(1.84813e-06 0 0)
(1.84799e-06 0 0)
(1.84786e-06 0 0)
(1.84774e-06 0 0)
(1.84763e-06 0 0)
(1.84752e-06 0 0)
(1.84742e-06 0 0)
(1.84733e-06 0 0)
(1.84724e-06 0 0)
(1.84716e-06 0 0)
(1.84708e-06 0 0)
(1.84701e-06 0 0)
(1.84695e-06 0 0)
(1.84689e-06 0 0)
(1.84684e-06 0 0)
(1.8468e-06 0 0)
(1.84676e-06 0 0)
(1.84672e-06 0 0)
(1.84669e-06 0 0)
(1.84667e-06 0 0)
)
;

boundaryField
{
    inlet
    {
        type            fixedValue;
        value           uniform (2.74882e-06 0 0);
    }
    outlet
    {
        type            zeroGradient;
    }
    emptyWalls
    {
        type            empty;
    }
}


// ************************************************************************* //
