/*--------------------------------*- C++ -*----------------------------------*\
  =========                 |
  \\      /  F ield         | OpenFOAM: The Open Source CFD Toolbox
   \\    /   O peration     | Website:  https://openfoam.org
    \\  /    A nd           | Version:  9
     \\/     M anipulation  |
\*---------------------------------------------------------------------------*/
FoamFile
{
    format      ascii;
    class       volScalarField;
    location    "19550";
    object      Sa;
}
// * * * * * * * * * * * * * * * * * * * * * * * * * * * * * * * * * * * * * //

dimensions      [0 0 0 0 0 0 0];

internalField   nonuniform List<scalar> 
1000
(
0.549447
0.548319
0.546815
0.545316
0.54384
0.542323
0.540858
0.539296
0.537847
0.536237
0.534798
0.533188
0.531751
0.530223
0.528825
0.527443
0.526167
0.524975
0.5239
0.522934
0.522089
0.521344
0.520676
0.519939
0.518524
0.513913
0.495935
0.38988
0.140681
0.0825519
0.0662905
0.0588728
0.0543399
0.0510642
0.0484758
0.0463099
0.0444453
0.0427979
0.041333
0.0400075
0.0388092
0.0377132
0.0367134
0.0357926
0.034947
0.0341631
0.0334395
0.0327644
0.032139
0.0315507
0.0310039
0.0304871
0.0300044
0.0295466
0.029117
0.0287086
0.0283242
0.0279563
0.0276025
0.0272665
0.0269496
0.0266511
0.0263703
0.0261068
0.0258602
0.025629
0.025413
0.0252114
0.0250234
0.0248484
0.0246861
0.0245367
0.024401
0.0242812
0.0241813
0.0241043
0.0240497
0.0240094
0.0239698
0.0239284
0.0238856
0.0238418
0.0237975
0.023753
0.0237088
0.023665
0.0236223
0.0235814
0.0235432
0.0235084
0.0234772
0.0234491
0.0234233
0.023399
0.0233753
0.0233517
0.0233277
0.0233032
0.0232777
0.0232509
0.0232221
0.0231908
0.0231563
0.0231182
0.023076
0.0230299
0.0229801
0.0229272
0.022872
0.0228153
0.0227581
0.0227012
0.0226454
0.0225913
0.0225395
0.0224901
0.0224433
0.0223992
0.0223575
0.022318
0.0222805
0.0222446
0.02221
0.0221763
0.0221433
0.0221108
0.0220785
0.0220462
0.022014
0.0219816
0.021949
0.0219164
0.0218836
0.0218506
0.0218176
0.0217846
0.0217516
0.0217186
0.0216857
0.0216529
0.0216203
0.0215878
0.0215555
0.0215234
0.0214915
0.0214598
0.0214283
0.0213971
0.0213661
0.0213353
0.0213047
0.0212744
0.0212443
0.0212145
0.0211849
0.0211555
0.0211263
0.0210974
0.0210686
0.0210401
0.0210118
0.0209838
0.0209559
0.0209283
0.0209009
0.0208737
0.0208467
0.02082
0.0207934
0.020767
0.0207409
0.0207149
0.0206892
0.0206636
0.0206383
0.0206132
0.0205883
0.0205636
0.0205391
0.0205148
0.0204907
0.0204668
0.0204431
0.0204196
0.0203962
0.0203729
0.0203498
0.0203268
0.020304
0.0202812
0.0202586
0.0202361
0.0202138
0.0201917
0.0201697
0.0201478
0.0201261
0.0201046
0.0200831
0.0200617
0.0200404
0.0200191
0.0199979
0.0199767
0.0199557
0.0199347
0.0199141
0.0198937
0.0198738
0.0198544
0.0198357
0.0198177
0.0198005
0.0197842
0.0197689
0.0197544
0.0197409
0.0197283
0.0197164
0.0197052
0.0196946
0.0196845
0.0196745
0.0196647
0.0196548
0.0196445
0.0196337
0.0196221
0.0196095
0.0195958
0.0195808
0.0195643
0.0195463
0.0195267
0.0195055
0.0194828
0.0194588
0.0194335
0.0194071
0.01938
0.0193523
0.0193243
0.0192962
0.0192682
0.0192407
0.0192136
0.0191872
0.0191615
0.0191367
0.0191128
0.0190897
0.0190675
0.0190461
0.0190255
0.0190055
0.0189861
0.0189672
0.0189487
0.0189306
0.0189127
0.0188951
0.0188776
0.0188602
0.0188428
0.0188254
0.018808
0.0187906
0.0187732
0.0187557
0.0187382
0.0187206
0.0187029
0.0186853
0.0186676
0.0186499
0.0186322
0.0186144
0.0185968
0.0185791
0.0185615
0.0185439
0.0185264
0.0185089
0.0184915
0.0184742
0.0184569
0.0184397
0.0184226
0.0184056
0.0183886
0.0183718
0.018355
0.0183383
0.0183218
0.0183053
0.0182888
0.0182725
0.0182563
0.0182402
0.0182241
0.0182082
0.0181923
0.0181766
0.0181609
0.0181453
0.0181298
0.0181144
0.0180991
0.0180839
0.0180688
0.0180537
0.0180388
0.018024
0.0180092
0.0179946
0.01798
0.0179655
0.0179512
0.0179369
0.0179227
0.0179086
0.0178946
0.0178806
0.0178668
0.017853
0.0178393
0.0178256
0.017812
0.0177985
0.0177851
0.0177717
0.0177584
0.0177451
0.0177319
0.0177188
0.0177057
0.0176927
0.0176798
0.0176668
0.017654
0.0176411
0.0176284
0.0176156
0.0176029
0.0175903
0.0175777
0.0175652
0.0175529
0.0175407
0.0175286
0.0175168
0.0175052
0.0174938
0.0174827
0.017472
0.0174616
0.0174516
0.017442
0.0174329
0.0174241
0.0174158
0.0174079
0.0174003
0.0173931
0.0173863
0.0173797
0.0173734
0.0173672
0.0173611
0.017355
0.0173488
0.0173425
0.017336
0.0173291
0.0173219
0.0173141
0.0173058
0.0172968
0.0172872
0.0172768
0.0172657
0.0172537
0.017241
0.0172275
0.0172133
0.0171984
0.0171829
0.0171668
0.0171502
0.0171333
0.0171161
0.0170987
0.0170812
0.0170636
0.0170462
0.0170289
0.0170118
0.016995
0.0169786
0.0169624
0.0169467
0.0169313
0.0169163
0.0169017
0.0168875
0.0168736
0.0168601
0.0168468
0.0168338
0.0168211
0.0168086
0.0167962
0.016784
0.0167719
0.01676
0.0167481
0.0167362
0.0167244
0.0167127
0.0167009
0.0166891
0.0166774
0.0166656
0.0166538
0.016642
0.0166302
0.0166184
0.0166065
0.0165947
0.0165828
0.0165709
0.0165591
0.0165472
0.0165354
0.0165235
0.0165117
0.0164999
0.0164881
0.0164764
0.0164647
0.016453
0.0164413
0.0164297
0.0164182
0.0164066
0.0163952
0.0163837
0.0163724
0.016361
0.0163497
0.0163385
0.0163273
0.0163162
0.0163051
0.0162941
0.0162831
0.0162722
0.0162613
0.0162505
0.0162397
0.016229
0.0162183
0.0162077
0.0161972
0.0161867
0.0161762
0.0161658
0.0161555
0.0161452
0.0161349
0.0161248
0.0161146
0.0161046
0.0160945
0.0160845
0.0160746
0.0160647
0.0160549
0.0160451
0.0160354
0.0160257
0.0160161
0.0160064
0.0159969
0.0159874
0.0159779
0.0159684
0.015959
0.0159497
0.0159403
0.015931
0.0159218
0.0159125
0.0159033
0.0158941
0.015885
0.0158759
0.0158668
0.0158577
0.0158487
0.0158397
0.0158308
0.0158219
0.0158131
0.0158043
0.0157956
0.015787
0.0157784
0.01577
0.0157617
0.0157535
0.0157455
0.0157376
0.0157299
0.0157224
0.015715
0.0157079
0.015701
0.0156943
0.0156878
0.0156816
0.0156755
0.0156697
0.0156641
0.0156586
0.0156534
0.0156482
0.0156432
0.0156384
0.0156335
0.0156288
0.015624
0.0156192
0.0156143
0.0156093
0.0156042
0.0155988
0.0155933
0.0155874
0.0155813
0.0155748
0.015568
0.0155607
0.0155531
0.015545
0.0155365
0.0155275
0.0155181
0.0155083
0.015498
0.0154874
0.0154764
0.015465
0.0154533
0.0154414
0.0154292
0.0154169
0.0154044
0.0153918
0.0153792
0.0153665
0.0153539
0.0153414
0.0153289
0.0153166
0.0153044
0.0152924
0.0152806
0.0152689
0.0152575
0.0152462
0.0152352
0.0152244
0.0152137
0.0152032
0.015193
0.0151828
0.0151729
0.015163
0.0151533
0.0151436
0.0151341
0.0151247
0.0151153
0.015106
0.0150967
0.0150875
0.0150783
0.0150692
0.01506
0.0150509
0.0150417
0.0150326
0.0150234
0.0150143
0.0150052
0.014996
0.0149868
0.0149777
0.0149685
0.0149593
0.0149502
0.014941
0.0149318
0.0149226
0.0149134
0.0149043
0.0148951
0.014886
0.0148768
0.0148677
0.0148586
0.0148495
0.0148404
0.0148313
0.0148223
0.0148133
0.0148043
0.0147953
0.0147863
0.0147774
0.0147685
0.0147596
0.0147507
0.0147419
0.0147331
0.0147243
0.0147156
0.0147069
0.0146982
0.0146895
0.0146809
0.0146723
0.0146637
0.0146552
0.0146467
0.0146382
0.0146297
0.0146213
0.0146129
0.0146045
0.0145962
0.0145879
0.0145796
0.0145713
0.0145631
0.0145549
0.0145467
0.0145386
0.0145304
0.0145223
0.0145143
0.0145062
0.0144982
0.0144902
0.0144822
0.0144743
0.0144663
0.0144584
0.0144505
0.0144427
0.0144348
0.014427
0.0144192
0.0144114
0.0144036
0.0143958
0.0143881
0.0143804
0.0143726
0.014365
0.0143573
0.0143496
0.014342
0.0143344
0.0143269
0.0143194
0.0143119
0.0143044
0.014297
0.0142897
0.0142824
0.0142751
0.014268
0.0142609
0.0142538
0.0142469
0.0142401
0.0142333
0.0142267
0.0142202
0.0142137
0.0142074
0.0142012
0.0141952
0.0141892
0.0141834
0.0141777
0.0141721
0.0141666
0.0141612
0.0141559
0.0141506
0.0141455
0.0141404
0.0141354
0.0141303
0.0141254
0.0141204
0.0141154
0.0141103
0.0141052
0.0141
0.0140948
0.0140894
0.0140839
0.0140782
0.0140724
0.0140663
0.0140601
0.0140537
0.014047
0.0140401
0.0140329
0.0140255
0.0140178
0.0140099
0.0140017
0.0139932
0.0139846
0.0139757
0.0139665
0.0139572
0.0139477
0.0139381
0.0139284
0.0139185
0.0139086
0.0138987
0.0138887
0.0138788
0.013869
0.0138593
0.0138498
0.0138404
0.0138313
0.0138224
0.0138138
0.0138056
0.0137977
0.0137901
0.013783
0.0137762
0.0137699
0.0137641
0.0137586
0.0137536
0.013749
0.0137448
0.013741
0.0137376
0.0137345
0.0137318
0.0137293
0.0137272
0.0137252
0.0137236
0.013722
0.0137207
0.0137195
0.0137183
0.0137172
0.0137161
0.0137149
0.0137133
0.0137112
0.013708
0.0137029
0.0136942
0.0136794
0.0136537
0.0136101
0.0135381
0.0134258
0.0132666
0.0130714
0.012875
0.0127187
0.0126195
0.0125664
0.0125403
0.0125276
0.0125212
0.0125178
0.0125158
0.0125145
0.0125135
0.0125128
0.0125121
0.0125115
0.012511
0.0125104
0.0125099
0.0125093
0.0125088
0.0125083
0.0125078
0.0125073
0.0125068
0.0125063
0.0125059
0.0125054
0.012505
0.0125046
0.0125041
0.0125037
0.0125034
0.012503
0.0125026
0.0125023
0.012502
0.0125016
0.0125013
0.0125011
0.0125008
0.0125005
0.0125003
0.0125001
0.0124999
0.0124997
0.0124996
0.0124994
0.0124993
0.0124992
0.0124991
0.012499
0.0124989
0.0124989
0.0124989
0.0124988
0.0124988
0.0124988
0.0124989
0.0124989
0.012499
0.0124991
0.0124992
0.0124993
0.0124994
0.0124996
0.0124997
0.0124999
0.0125001
0.0125003
0.0125005
0.0125007
0.012501
0.0125013
0.0125015
0.0125018
0.0125021
0.0125024
0.0125028
0.0125031
0.0125035
0.0125039
0.0125043
0.0125048
0.0125052
0.0125057
0.0125062
0.0125068
0.0125073
0.0125079
0.0125086
0.0125092
0.01251
0.0125107
0.0125115
0.0125124
0.0125133
0.0125142
0.0125153
0.0125163
0.0125175
0.0125187
0.0125199
0.0125213
0.0125227
0.0125241
0.0125257
0.0125273
0.012529
0.0125307
0.0125325
0.0125344
0.0125364
0.0125384
0.0125404
0.0125426
0.0125447
0.0125469
0.0125492
0.0125514
0.0125537
0.012556
0.0125583
0.0125606
0.0125629
0.0125652
0.0125674
0.0125696
0.0125718
0.0125738
0.0125758
0.0125778
0.0125796
0.0125813
0.0125829
0.0125844
0.0125857
0.0125869
0.012588
0.0125889
0.0125896
0.0125902
0.0125906
0.0125908
0.0125908
0.0125908
0.0125908
0.0125906
0.01259
0.0125892
0.0125883
0.0125872
0.0125861
0.0125847
0.0125833
0.0125818
0.0125802
0.0125784
0.0125767
0.0125748
0.0125729
0.012571
0.0125691
0.0125671
0.0125651
0.0125631
0.0125612
0.0125593
0.0125574
0.0125555
0.0125537
0.012552
0.0125502
0.0125486
0.012547
0.0125455
0.0125439
0.0125426
0.0125412
0.01254
0.0125387
0.0125377
0.0125364
0.0125356
0.0125344
0.0125337
0.0125326
0.0125319
0.0125309
0.0125304
0.0125294
0.0125289
0.012528
0.0125276
0.0125267
0.0125263
0.0125255
0.0125252
0.0125243
0.012524
0.0125231
0.0125229
0.012522
0.0125218
0.0125209
0.0125207
0.0125198
0.0125195
0.0125187
0.0125184
0.0125175
0.0125173
0.0125164
0.0125162
0.0125153
0.0125151
)
;

boundaryField
{
    inlet
    {
        type            fixedValue;
        value           uniform 0.55;
    }
    outlet
    {
        type            zeroGradient;
    }
    emptyWalls
    {
        type            empty;
    }
}


// ************************************************************************* //
