/*--------------------------------*- C++ -*----------------------------------*\
  =========                 |
  \\      /  F ield         | OpenFOAM: The Open Source CFD Toolbox
   \\    /   O peration     | Website:  https://openfoam.org
    \\  /    A nd           | Version:  9
     \\/     M anipulation  |
\*---------------------------------------------------------------------------*/
FoamFile
{
    format      ascii;
    class       volVectorField;
    location    "19550";
    object      Ua;
}
// * * * * * * * * * * * * * * * * * * * * * * * * * * * * * * * * * * * * * //

dimensions      [0 0 0 0 0 0 0];

internalField   nonuniform List<vector> 
1000
(
(2.74904e-06 0 0)
(2.74879e-06 0 0)
(2.74862e-06 0 0)
(2.74837e-06 0 0)
(2.74801e-06 0 0)
(2.74763e-06 0 0)
(2.74716e-06 0 0)
(2.7467e-06 0 0)
(2.74619e-06 0 0)
(2.74554e-06 0 0)
(2.74492e-06 0 0)
(2.74408e-06 0 0)
(2.74328e-06 0 0)
(2.7424e-06 0 0)
(2.74146e-06 0 0)
(2.74058e-06 0 0)
(2.73961e-06 0 0)
(2.7387e-06 0 0)
(2.73781e-06 0 0)
(2.73701e-06 0 0)
(2.73631e-06 0 0)
(2.73572e-06 0 0)
(2.73518e-06 0 0)
(2.73444e-06 0 0)
(2.73261e-06 0 0)
(2.72566e-06 0 0)
(2.69605e-06 0 0)
(2.49251e-06 0 0)
(2.24313e-06 0 0)
(2.15665e-06 0 0)
(2.13278e-06 0 0)
(2.12112e-06 0 0)
(2.11351e-06 0 0)
(2.10769e-06 0 0)
(2.10285e-06 0 0)
(2.09864e-06 0 0)
(2.09485e-06 0 0)
(2.09141e-06 0 0)
(2.08826e-06 0 0)
(2.08533e-06 0 0)
(2.0826e-06 0 0)
(2.08007e-06 0 0)
(2.0777e-06 0 0)
(2.07549e-06 0 0)
(2.07341e-06 0 0)
(2.07147e-06 0 0)
(2.06965e-06 0 0)
(2.06794e-06 0 0)
(2.06633e-06 0 0)
(2.06481e-06 0 0)
(2.06338e-06 0 0)
(2.06204e-06 0 0)
(2.06079e-06 0 0)
(2.0596e-06 0 0)
(2.05848e-06 0 0)
(2.05742e-06 0 0)
(2.05641e-06 0 0)
(2.05547e-06 0 0)
(2.05457e-06 0 0)
(2.05373e-06 0 0)
(2.05295e-06 0 0)
(2.05224e-06 0 0)
(2.0516e-06 0 0)
(2.05102e-06 0 0)
(2.0505e-06 0 0)
(2.05001e-06 0 0)
(2.04955e-06 0 0)
(2.0491e-06 0 0)
(2.04866e-06 0 0)
(2.04822e-06 0 0)
(2.0478e-06 0 0)
(2.04742e-06 0 0)
(2.0471e-06 0 0)
(2.04685e-06 0 0)
(2.04672e-06 0 0)
(2.04671e-06 0 0)
(2.04681e-06 0 0)
(2.04697e-06 0 0)
(2.04712e-06 0 0)
(2.04721e-06 0 0)
(2.04724e-06 0 0)
(2.04721e-06 0 0)
(2.04714e-06 0 0)
(2.04707e-06 0 0)
(2.04704e-06 0 0)
(2.04707e-06 0 0)
(2.04726e-06 0 0)
(2.0477e-06 0 0)
(2.04852e-06 0 0)
(2.0498e-06 0 0)
(2.05158e-06 0 0)
(2.0538e-06 0 0)
(2.05634e-06 0 0)
(2.05907e-06 0 0)
(2.06187e-06 0 0)
(2.06465e-06 0 0)
(2.06734e-06 0 0)
(2.06989e-06 0 0)
(2.07225e-06 0 0)
(2.07435e-06 0 0)
(2.07611e-06 0 0)
(2.07741e-06 0 0)
(2.07817e-06 0 0)
(2.0783e-06 0 0)
(2.07776e-06 0 0)
(2.07654e-06 0 0)
(2.07469e-06 0 0)
(2.0723e-06 0 0)
(2.06949e-06 0 0)
(2.06638e-06 0 0)
(2.06314e-06 0 0)
(2.05988e-06 0 0)
(2.05675e-06 0 0)
(2.05384e-06 0 0)
(2.05123e-06 0 0)
(2.04896e-06 0 0)
(2.04706e-06 0 0)
(2.04554e-06 0 0)
(2.04436e-06 0 0)
(2.0435e-06 0 0)
(2.04292e-06 0 0)
(2.04255e-06 0 0)
(2.04235e-06 0 0)
(2.04227e-06 0 0)
(2.04227e-06 0 0)
(2.0423e-06 0 0)
(2.04233e-06 0 0)
(2.04234e-06 0 0)
(2.04231e-06 0 0)
(2.04222e-06 0 0)
(2.04208e-06 0 0)
(2.04187e-06 0 0)
(2.04161e-06 0 0)
(2.04129e-06 0 0)
(2.04093e-06 0 0)
(2.04052e-06 0 0)
(2.04008e-06 0 0)
(2.03962e-06 0 0)
(2.03913e-06 0 0)
(2.03863e-06 0 0)
(2.03811e-06 0 0)
(2.03759e-06 0 0)
(2.03707e-06 0 0)
(2.03654e-06 0 0)
(2.03602e-06 0 0)
(2.03551e-06 0 0)
(2.035e-06 0 0)
(2.03449e-06 0 0)
(2.034e-06 0 0)
(2.03351e-06 0 0)
(2.03303e-06 0 0)
(2.03256e-06 0 0)
(2.0321e-06 0 0)
(2.03165e-06 0 0)
(2.03121e-06 0 0)
(2.03078e-06 0 0)
(2.03036e-06 0 0)
(2.02996e-06 0 0)
(2.02956e-06 0 0)
(2.02917e-06 0 0)
(2.02879e-06 0 0)
(2.02843e-06 0 0)
(2.02807e-06 0 0)
(2.02773e-06 0 0)
(2.02739e-06 0 0)
(2.02707e-06 0 0)
(2.02676e-06 0 0)
(2.02646e-06 0 0)
(2.02617e-06 0 0)
(2.02589e-06 0 0)
(2.02563e-06 0 0)
(2.02537e-06 0 0)
(2.02513e-06 0 0)
(2.02489e-06 0 0)
(2.02467e-06 0 0)
(2.02447e-06 0 0)
(2.02428e-06 0 0)
(2.0241e-06 0 0)
(2.02394e-06 0 0)
(2.02379e-06 0 0)
(2.02366e-06 0 0)
(2.02354e-06 0 0)
(2.02342e-06 0 0)
(2.02332e-06 0 0)
(2.02322e-06 0 0)
(2.02312e-06 0 0)
(2.02303e-06 0 0)
(2.02293e-06 0 0)
(2.02284e-06 0 0)
(2.02276e-06 0 0)
(2.02267e-06 0 0)
(2.0226e-06 0 0)
(2.02253e-06 0 0)
(2.02246e-06 0 0)
(2.02241e-06 0 0)
(2.02236e-06 0 0)
(2.02232e-06 0 0)
(2.02229e-06 0 0)
(2.02225e-06 0 0)
(2.02222e-06 0 0)
(2.02217e-06 0 0)
(2.02212e-06 0 0)
(2.02205e-06 0 0)
(2.02198e-06 0 0)
(2.02191e-06 0 0)
(2.02185e-06 0 0)
(2.02182e-06 0 0)
(2.02183e-06 0 0)
(2.02189e-06 0 0)
(2.02205e-06 0 0)
(2.0223e-06 0 0)
(2.02267e-06 0 0)
(2.02317e-06 0 0)
(2.02382e-06 0 0)
(2.02462e-06 0 0)
(2.02557e-06 0 0)
(2.02667e-06 0 0)
(2.02792e-06 0 0)
(2.02929e-06 0 0)
(2.03078e-06 0 0)
(2.03236e-06 0 0)
(2.03401e-06 0 0)
(2.03569e-06 0 0)
(2.03737e-06 0 0)
(2.03902e-06 0 0)
(2.0406e-06 0 0)
(2.04207e-06 0 0)
(2.04338e-06 0 0)
(2.0445e-06 0 0)
(2.0454e-06 0 0)
(2.04604e-06 0 0)
(2.04639e-06 0 0)
(2.04646e-06 0 0)
(2.04621e-06 0 0)
(2.04567e-06 0 0)
(2.04483e-06 0 0)
(2.04371e-06 0 0)
(2.04236e-06 0 0)
(2.0408e-06 0 0)
(2.03907e-06 0 0)
(2.03722e-06 0 0)
(2.03529e-06 0 0)
(2.03333e-06 0 0)
(2.03138e-06 0 0)
(2.02949e-06 0 0)
(2.02767e-06 0 0)
(2.02596e-06 0 0)
(2.02438e-06 0 0)
(2.02293e-06 0 0)
(2.02164e-06 0 0)
(2.02049e-06 0 0)
(2.01949e-06 0 0)
(2.01862e-06 0 0)
(2.01788e-06 0 0)
(2.01726e-06 0 0)
(2.01673e-06 0 0)
(2.01628e-06 0 0)
(2.01591e-06 0 0)
(2.01558e-06 0 0)
(2.0153e-06 0 0)
(2.01504e-06 0 0)
(2.01479e-06 0 0)
(2.01455e-06 0 0)
(2.01431e-06 0 0)
(2.01406e-06 0 0)
(2.0138e-06 0 0)
(2.01351e-06 0 0)
(2.01321e-06 0 0)
(2.01289e-06 0 0)
(2.01255e-06 0 0)
(2.01219e-06 0 0)
(2.0118e-06 0 0)
(2.0114e-06 0 0)
(2.01099e-06 0 0)
(2.01056e-06 0 0)
(2.01012e-06 0 0)
(2.00966e-06 0 0)
(2.0092e-06 0 0)
(2.00874e-06 0 0)
(2.00827e-06 0 0)
(2.0078e-06 0 0)
(2.00732e-06 0 0)
(2.00685e-06 0 0)
(2.00638e-06 0 0)
(2.00591e-06 0 0)
(2.00545e-06 0 0)
(2.00498e-06 0 0)
(2.00453e-06 0 0)
(2.00408e-06 0 0)
(2.00363e-06 0 0)
(2.0032e-06 0 0)
(2.00276e-06 0 0)
(2.00234e-06 0 0)
(2.00192e-06 0 0)
(2.00151e-06 0 0)
(2.00111e-06 0 0)
(2.00072e-06 0 0)
(2.00033e-06 0 0)
(1.99995e-06 0 0)
(1.99958e-06 0 0)
(1.99922e-06 0 0)
(1.99887e-06 0 0)
(1.99852e-06 0 0)
(1.99819e-06 0 0)
(1.99786e-06 0 0)
(1.99754e-06 0 0)
(1.99723e-06 0 0)
(1.99693e-06 0 0)
(1.99664e-06 0 0)
(1.99636e-06 0 0)
(1.99608e-06 0 0)
(1.99582e-06 0 0)
(1.99557e-06 0 0)
(1.99532e-06 0 0)
(1.99509e-06 0 0)
(1.99486e-06 0 0)
(1.99465e-06 0 0)
(1.99444e-06 0 0)
(1.99425e-06 0 0)
(1.99406e-06 0 0)
(1.99389e-06 0 0)
(1.99372e-06 0 0)
(1.99356e-06 0 0)
(1.9934e-06 0 0)
(1.99325e-06 0 0)
(1.99311e-06 0 0)
(1.99298e-06 0 0)
(1.99285e-06 0 0)
(1.99272e-06 0 0)
(1.99261e-06 0 0)
(1.99249e-06 0 0)
(1.99239e-06 0 0)
(1.99228e-06 0 0)
(1.99219e-06 0 0)
(1.99209e-06 0 0)
(1.992e-06 0 0)
(1.99192e-06 0 0)
(1.99183e-06 0 0)
(1.99175e-06 0 0)
(1.99167e-06 0 0)
(1.99159e-06 0 0)
(1.99151e-06 0 0)
(1.99144e-06 0 0)
(1.99137e-06 0 0)
(1.9913e-06 0 0)
(1.99124e-06 0 0)
(1.99119e-06 0 0)
(1.99116e-06 0 0)
(1.99115e-06 0 0)
(1.99117e-06 0 0)
(1.99122e-06 0 0)
(1.99131e-06 0 0)
(1.99144e-06 0 0)
(1.99163e-06 0 0)
(1.99188e-06 0 0)
(1.99219e-06 0 0)
(1.99258e-06 0 0)
(1.99304e-06 0 0)
(1.99358e-06 0 0)
(1.9942e-06 0 0)
(1.9949e-06 0 0)
(1.99567e-06 0 0)
(1.99652e-06 0 0)
(1.99744e-06 0 0)
(1.99841e-06 0 0)
(1.99944e-06 0 0)
(2.00051e-06 0 0)
(2.00161e-06 0 0)
(2.00272e-06 0 0)
(2.00383e-06 0 0)
(2.00492e-06 0 0)
(2.00597e-06 0 0)
(2.00697e-06 0 0)
(2.0079e-06 0 0)
(2.00875e-06 0 0)
(2.00948e-06 0 0)
(2.0101e-06 0 0)
(2.01058e-06 0 0)
(2.01091e-06 0 0)
(2.01109e-06 0 0)
(2.01111e-06 0 0)
(2.01095e-06 0 0)
(2.01063e-06 0 0)
(2.01015e-06 0 0)
(2.00951e-06 0 0)
(2.00872e-06 0 0)
(2.00779e-06 0 0)
(2.00675e-06 0 0)
(2.0056e-06 0 0)
(2.00436e-06 0 0)
(2.00306e-06 0 0)
(2.00171e-06 0 0)
(2.00033e-06 0 0)
(1.99895e-06 0 0)
(1.99757e-06 0 0)
(1.99622e-06 0 0)
(1.99491e-06 0 0)
(1.99364e-06 0 0)
(1.99244e-06 0 0)
(1.9913e-06 0 0)
(1.99023e-06 0 0)
(1.98924e-06 0 0)
(1.98832e-06 0 0)
(1.98747e-06 0 0)
(1.98669e-06 0 0)
(1.98598e-06 0 0)
(1.98534e-06 0 0)
(1.98474e-06 0 0)
(1.9842e-06 0 0)
(1.98371e-06 0 0)
(1.98325e-06 0 0)
(1.98283e-06 0 0)
(1.98243e-06 0 0)
(1.98206e-06 0 0)
(1.98169e-06 0 0)
(1.98134e-06 0 0)
(1.981e-06 0 0)
(1.98066e-06 0 0)
(1.98032e-06 0 0)
(1.97998e-06 0 0)
(1.97963e-06 0 0)
(1.97928e-06 0 0)
(1.97892e-06 0 0)
(1.97855e-06 0 0)
(1.97817e-06 0 0)
(1.97779e-06 0 0)
(1.97739e-06 0 0)
(1.97699e-06 0 0)
(1.97658e-06 0 0)
(1.97617e-06 0 0)
(1.97575e-06 0 0)
(1.97533e-06 0 0)
(1.9749e-06 0 0)
(1.97446e-06 0 0)
(1.97403e-06 0 0)
(1.9736e-06 0 0)
(1.97316e-06 0 0)
(1.97272e-06 0 0)
(1.97229e-06 0 0)
(1.97186e-06 0 0)
(1.97143e-06 0 0)
(1.971e-06 0 0)
(1.97058e-06 0 0)
(1.97016e-06 0 0)
(1.96974e-06 0 0)
(1.96933e-06 0 0)
(1.96893e-06 0 0)
(1.96853e-06 0 0)
(1.96813e-06 0 0)
(1.96774e-06 0 0)
(1.96736e-06 0 0)
(1.96699e-06 0 0)
(1.96662e-06 0 0)
(1.96625e-06 0 0)
(1.9659e-06 0 0)
(1.96555e-06 0 0)
(1.96521e-06 0 0)
(1.96487e-06 0 0)
(1.96454e-06 0 0)
(1.96422e-06 0 0)
(1.96391e-06 0 0)
(1.9636e-06 0 0)
(1.9633e-06 0 0)
(1.96301e-06 0 0)
(1.96272e-06 0 0)
(1.96244e-06 0 0)
(1.96217e-06 0 0)
(1.96191e-06 0 0)
(1.96165e-06 0 0)
(1.9614e-06 0 0)
(1.96116e-06 0 0)
(1.96093e-06 0 0)
(1.9607e-06 0 0)
(1.96048e-06 0 0)
(1.96027e-06 0 0)
(1.96006e-06 0 0)
(1.95986e-06 0 0)
(1.95967e-06 0 0)
(1.95949e-06 0 0)
(1.95931e-06 0 0)
(1.95913e-06 0 0)
(1.95896e-06 0 0)
(1.9588e-06 0 0)
(1.95864e-06 0 0)
(1.95849e-06 0 0)
(1.95834e-06 0 0)
(1.9582e-06 0 0)
(1.95806e-06 0 0)
(1.95793e-06 0 0)
(1.9578e-06 0 0)
(1.95768e-06 0 0)
(1.95756e-06 0 0)
(1.95744e-06 0 0)
(1.95732e-06 0 0)
(1.95721e-06 0 0)
(1.9571e-06 0 0)
(1.957e-06 0 0)
(1.95689e-06 0 0)
(1.95679e-06 0 0)
(1.9567e-06 0 0)
(1.95661e-06 0 0)
(1.95653e-06 0 0)
(1.95645e-06 0 0)
(1.95638e-06 0 0)
(1.95632e-06 0 0)
(1.95628e-06 0 0)
(1.95625e-06 0 0)
(1.95623e-06 0 0)
(1.95624e-06 0 0)
(1.95627e-06 0 0)
(1.95632e-06 0 0)
(1.9564e-06 0 0)
(1.95652e-06 0 0)
(1.95667e-06 0 0)
(1.95686e-06 0 0)
(1.95708e-06 0 0)
(1.95735e-06 0 0)
(1.95767e-06 0 0)
(1.95802e-06 0 0)
(1.95843e-06 0 0)
(1.95888e-06 0 0)
(1.95937e-06 0 0)
(1.95991e-06 0 0)
(1.9605e-06 0 0)
(1.96112e-06 0 0)
(1.96177e-06 0 0)
(1.96246e-06 0 0)
(1.96318e-06 0 0)
(1.96391e-06 0 0)
(1.96466e-06 0 0)
(1.96541e-06 0 0)
(1.96617e-06 0 0)
(1.96691e-06 0 0)
(1.96764e-06 0 0)
(1.96834e-06 0 0)
(1.969e-06 0 0)
(1.96962e-06 0 0)
(1.97019e-06 0 0)
(1.97069e-06 0 0)
(1.97113e-06 0 0)
(1.97148e-06 0 0)
(1.97175e-06 0 0)
(1.97193e-06 0 0)
(1.97202e-06 0 0)
(1.97201e-06 0 0)
(1.97189e-06 0 0)
(1.97168e-06 0 0)
(1.97136e-06 0 0)
(1.97094e-06 0 0)
(1.97043e-06 0 0)
(1.96982e-06 0 0)
(1.96913e-06 0 0)
(1.96836e-06 0 0)
(1.96751e-06 0 0)
(1.9666e-06 0 0)
(1.96564e-06 0 0)
(1.96463e-06 0 0)
(1.96359e-06 0 0)
(1.96253e-06 0 0)
(1.96145e-06 0 0)
(1.96037e-06 0 0)
(1.95928e-06 0 0)
(1.95821e-06 0 0)
(1.95716e-06 0 0)
(1.95613e-06 0 0)
(1.95514e-06 0 0)
(1.95417e-06 0 0)
(1.95325e-06 0 0)
(1.95236e-06 0 0)
(1.95152e-06 0 0)
(1.95072e-06 0 0)
(1.94996e-06 0 0)
(1.94924e-06 0 0)
(1.94857e-06 0 0)
(1.94793e-06 0 0)
(1.94733e-06 0 0)
(1.94676e-06 0 0)
(1.94622e-06 0 0)
(1.94572e-06 0 0)
(1.94523e-06 0 0)
(1.94477e-06 0 0)
(1.94433e-06 0 0)
(1.94391e-06 0 0)
(1.9435e-06 0 0)
(1.9431e-06 0 0)
(1.94271e-06 0 0)
(1.94232e-06 0 0)
(1.94194e-06 0 0)
(1.94157e-06 0 0)
(1.94119e-06 0 0)
(1.94082e-06 0 0)
(1.94044e-06 0 0)
(1.94007e-06 0 0)
(1.93968e-06 0 0)
(1.9393e-06 0 0)
(1.93892e-06 0 0)
(1.93853e-06 0 0)
(1.93813e-06 0 0)
(1.93774e-06 0 0)
(1.93734e-06 0 0)
(1.93693e-06 0 0)
(1.93653e-06 0 0)
(1.93612e-06 0 0)
(1.93571e-06 0 0)
(1.9353e-06 0 0)
(1.93488e-06 0 0)
(1.93447e-06 0 0)
(1.93405e-06 0 0)
(1.93364e-06 0 0)
(1.93323e-06 0 0)
(1.93281e-06 0 0)
(1.9324e-06 0 0)
(1.93199e-06 0 0)
(1.93158e-06 0 0)
(1.93118e-06 0 0)
(1.93077e-06 0 0)
(1.93037e-06 0 0)
(1.92998e-06 0 0)
(1.92958e-06 0 0)
(1.9292e-06 0 0)
(1.92881e-06 0 0)
(1.92843e-06 0 0)
(1.92805e-06 0 0)
(1.92768e-06 0 0)
(1.92731e-06 0 0)
(1.92695e-06 0 0)
(1.92659e-06 0 0)
(1.92623e-06 0 0)
(1.92588e-06 0 0)
(1.92554e-06 0 0)
(1.9252e-06 0 0)
(1.92487e-06 0 0)
(1.92454e-06 0 0)
(1.92421e-06 0 0)
(1.9239e-06 0 0)
(1.92358e-06 0 0)
(1.92327e-06 0 0)
(1.92297e-06 0 0)
(1.92267e-06 0 0)
(1.92238e-06 0 0)
(1.9221e-06 0 0)
(1.92181e-06 0 0)
(1.92154e-06 0 0)
(1.92127e-06 0 0)
(1.921e-06 0 0)
(1.92074e-06 0 0)
(1.92049e-06 0 0)
(1.92024e-06 0 0)
(1.92e-06 0 0)
(1.91976e-06 0 0)
(1.91952e-06 0 0)
(1.91929e-06 0 0)
(1.91907e-06 0 0)
(1.91885e-06 0 0)
(1.91863e-06 0 0)
(1.91842e-06 0 0)
(1.91821e-06 0 0)
(1.91801e-06 0 0)
(1.91781e-06 0 0)
(1.91762e-06 0 0)
(1.91742e-06 0 0)
(1.91724e-06 0 0)
(1.91705e-06 0 0)
(1.91687e-06 0 0)
(1.9167e-06 0 0)
(1.91652e-06 0 0)
(1.91635e-06 0 0)
(1.91619e-06 0 0)
(1.91602e-06 0 0)
(1.91587e-06 0 0)
(1.91571e-06 0 0)
(1.91556e-06 0 0)
(1.91542e-06 0 0)
(1.91528e-06 0 0)
(1.91514e-06 0 0)
(1.91501e-06 0 0)
(1.91489e-06 0 0)
(1.91478e-06 0 0)
(1.91468e-06 0 0)
(1.91459e-06 0 0)
(1.91451e-06 0 0)
(1.91444e-06 0 0)
(1.91439e-06 0 0)
(1.91435e-06 0 0)
(1.91433e-06 0 0)
(1.91433e-06 0 0)
(1.91435e-06 0 0)
(1.91439e-06 0 0)
(1.91446e-06 0 0)
(1.91455e-06 0 0)
(1.91466e-06 0 0)
(1.9148e-06 0 0)
(1.91497e-06 0 0)
(1.91516e-06 0 0)
(1.91539e-06 0 0)
(1.91564e-06 0 0)
(1.91592e-06 0 0)
(1.91623e-06 0 0)
(1.91657e-06 0 0)
(1.91693e-06 0 0)
(1.91732e-06 0 0)
(1.91773e-06 0 0)
(1.91816e-06 0 0)
(1.91861e-06 0 0)
(1.91907e-06 0 0)
(1.91954e-06 0 0)
(1.92003e-06 0 0)
(1.92052e-06 0 0)
(1.921e-06 0 0)
(1.92149e-06 0 0)
(1.92197e-06 0 0)
(1.92243e-06 0 0)
(1.92288e-06 0 0)
(1.9233e-06 0 0)
(1.9237e-06 0 0)
(1.92406e-06 0 0)
(1.92439e-06 0 0)
(1.92468e-06 0 0)
(1.92492e-06 0 0)
(1.92511e-06 0 0)
(1.92524e-06 0 0)
(1.92532e-06 0 0)
(1.92534e-06 0 0)
(1.9253e-06 0 0)
(1.9252e-06 0 0)
(1.92503e-06 0 0)
(1.92479e-06 0 0)
(1.92449e-06 0 0)
(1.92412e-06 0 0)
(1.92369e-06 0 0)
(1.9232e-06 0 0)
(1.92265e-06 0 0)
(1.92205e-06 0 0)
(1.92139e-06 0 0)
(1.92069e-06 0 0)
(1.91994e-06 0 0)
(1.91916e-06 0 0)
(1.91834e-06 0 0)
(1.9175e-06 0 0)
(1.91664e-06 0 0)
(1.91576e-06 0 0)
(1.91488e-06 0 0)
(1.91399e-06 0 0)
(1.91311e-06 0 0)
(1.91223e-06 0 0)
(1.91136e-06 0 0)
(1.91051e-06 0 0)
(1.90969e-06 0 0)
(1.90889e-06 0 0)
(1.90812e-06 0 0)
(1.90737e-06 0 0)
(1.90667e-06 0 0)
(1.90599e-06 0 0)
(1.90536e-06 0 0)
(1.90476e-06 0 0)
(1.9042e-06 0 0)
(1.90367e-06 0 0)
(1.90319e-06 0 0)
(1.90273e-06 0 0)
(1.90232e-06 0 0)
(1.90193e-06 0 0)
(1.90158e-06 0 0)
(1.90125e-06 0 0)
(1.90095e-06 0 0)
(1.90067e-06 0 0)
(1.90042e-06 0 0)
(1.90019e-06 0 0)
(1.89997e-06 0 0)
(1.89976e-06 0 0)
(1.89957e-06 0 0)
(1.89939e-06 0 0)
(1.89922e-06 0 0)
(1.89905e-06 0 0)
(1.89887e-06 0 0)
(1.89869e-06 0 0)
(1.89849e-06 0 0)
(1.89825e-06 0 0)
(1.89793e-06 0 0)
(1.89748e-06 0 0)
(1.89679e-06 0 0)
(1.89569e-06 0 0)
(1.89391e-06 0 0)
(1.89106e-06 0 0)
(1.88674e-06 0 0)
(1.88074e-06 0 0)
(1.87351e-06 0 0)
(1.86629e-06 0 0)
(1.86049e-06 0 0)
(1.8567e-06 0 0)
(1.85458e-06 0 0)
(1.85347e-06 0 0)
(1.85286e-06 0 0)
(1.85249e-06 0 0)
(1.85224e-06 0 0)
(1.85204e-06 0 0)
(1.85187e-06 0 0)
(1.85171e-06 0 0)
(1.85155e-06 0 0)
(1.8514e-06 0 0)
(1.85126e-06 0 0)
(1.85111e-06 0 0)
(1.85097e-06 0 0)
(1.85083e-06 0 0)
(1.85069e-06 0 0)
(1.85056e-06 0 0)
(1.85042e-06 0 0)
(1.85029e-06 0 0)
(1.85016e-06 0 0)
(1.85003e-06 0 0)
(1.84991e-06 0 0)
(1.84979e-06 0 0)
(1.84967e-06 0 0)
(1.84956e-06 0 0)
(1.84945e-06 0 0)
(1.84934e-06 0 0)
(1.84923e-06 0 0)
(1.84913e-06 0 0)
(1.84903e-06 0 0)
(1.84894e-06 0 0)
(1.84885e-06 0 0)
(1.84877e-06 0 0)
(1.84868e-06 0 0)
(1.84861e-06 0 0)
(1.84853e-06 0 0)
(1.84846e-06 0 0)
(1.8484e-06 0 0)
(1.84834e-06 0 0)
(1.84828e-06 0 0)
(1.84823e-06 0 0)
(1.84818e-06 0 0)
(1.84814e-06 0 0)
(1.8481e-06 0 0)
(1.84807e-06 0 0)
(1.84804e-06 0 0)
(1.84801e-06 0 0)
(1.84799e-06 0 0)
(1.84798e-06 0 0)
(1.84796e-06 0 0)
(1.84796e-06 0 0)
(1.84796e-06 0 0)
(1.84795e-06 0 0)
(1.84796e-06 0 0)
(1.84796e-06 0 0)
(1.84798e-06 0 0)
(1.84799e-06 0 0)
(1.84802e-06 0 0)
(1.84804e-06 0 0)
(1.84807e-06 0 0)
(1.84811e-06 0 0)
(1.84815e-06 0 0)
(1.84819e-06 0 0)
(1.84823e-06 0 0)
(1.84828e-06 0 0)
(1.84834e-06 0 0)
(1.84839e-06 0 0)
(1.84845e-06 0 0)
(1.84852e-06 0 0)
(1.84859e-06 0 0)
(1.84866e-06 0 0)
(1.84874e-06 0 0)
(1.84882e-06 0 0)
(1.8489e-06 0 0)
(1.84899e-06 0 0)
(1.84908e-06 0 0)
(1.84918e-06 0 0)
(1.84928e-06 0 0)
(1.84939e-06 0 0)
(1.84951e-06 0 0)
(1.84963e-06 0 0)
(1.84975e-06 0 0)
(1.84989e-06 0 0)
(1.85003e-06 0 0)
(1.85018e-06 0 0)
(1.85033e-06 0 0)
(1.8505e-06 0 0)
(1.85068e-06 0 0)
(1.85086e-06 0 0)
(1.85106e-06 0 0)
(1.85127e-06 0 0)
(1.85149e-06 0 0)
(1.85173e-06 0 0)
(1.85198e-06 0 0)
(1.85225e-06 0 0)
(1.85253e-06 0 0)
(1.85283e-06 0 0)
(1.85314e-06 0 0)
(1.85347e-06 0 0)
(1.85382e-06 0 0)
(1.85418e-06 0 0)
(1.85457e-06 0 0)
(1.85497e-06 0 0)
(1.85539e-06 0 0)
(1.85583e-06 0 0)
(1.85629e-06 0 0)
(1.85676e-06 0 0)
(1.85726e-06 0 0)
(1.85777e-06 0 0)
(1.85829e-06 0 0)
(1.85883e-06 0 0)
(1.85938e-06 0 0)
(1.85995e-06 0 0)
(1.86053e-06 0 0)
(1.86111e-06 0 0)
(1.8617e-06 0 0)
(1.8623e-06 0 0)
(1.86291e-06 0 0)
(1.86351e-06 0 0)
(1.86411e-06 0 0)
(1.86471e-06 0 0)
(1.8653e-06 0 0)
(1.86589e-06 0 0)
(1.86646e-06 0 0)
(1.86702e-06 0 0)
(1.86757e-06 0 0)
(1.86809e-06 0 0)
(1.86859e-06 0 0)
(1.86907e-06 0 0)
(1.86952e-06 0 0)
(1.86994e-06 0 0)
(1.87032e-06 0 0)
(1.87067e-06 0 0)
(1.87099e-06 0 0)
(1.87126e-06 0 0)
(1.8715e-06 0 0)
(1.87169e-06 0 0)
(1.87184e-06 0 0)
(1.87194e-06 0 0)
(1.872e-06 0 0)
(1.87202e-06 0 0)
(1.87202e-06 0 0)
(1.87201e-06 0 0)
(1.87194e-06 0 0)
(1.87179e-06 0 0)
(1.87159e-06 0 0)
(1.87135e-06 0 0)
(1.87107e-06 0 0)
(1.87076e-06 0 0)
(1.87042e-06 0 0)
(1.87004e-06 0 0)
(1.86964e-06 0 0)
(1.86922e-06 0 0)
(1.86877e-06 0 0)
(1.8683e-06 0 0)
(1.86782e-06 0 0)
(1.86733e-06 0 0)
(1.86682e-06 0 0)
(1.86631e-06 0 0)
(1.8658e-06 0 0)
(1.86528e-06 0 0)
(1.86477e-06 0 0)
(1.86426e-06 0 0)
(1.86375e-06 0 0)
(1.86326e-06 0 0)
(1.86277e-06 0 0)
(1.8623e-06 0 0)
(1.86184e-06 0 0)
(1.86139e-06 0 0)
(1.86096e-06 0 0)
(1.86054e-06 0 0)
(1.86014e-06 0 0)
(1.85976e-06 0 0)
(1.85939e-06 0 0)
(1.85904e-06 0 0)
(1.85871e-06 0 0)
(1.85839e-06 0 0)
(1.85809e-06 0 0)
(1.85781e-06 0 0)
(1.85753e-06 0 0)
(1.85728e-06 0 0)
(1.85703e-06 0 0)
(1.8568e-06 0 0)
(1.85658e-06 0 0)
(1.85637e-06 0 0)
(1.85617e-06 0 0)
(1.85597e-06 0 0)
(1.85579e-06 0 0)
(1.85561e-06 0 0)
(1.85544e-06 0 0)
(1.85527e-06 0 0)
(1.85511e-06 0 0)
(1.85495e-06 0 0)
(1.85479e-06 0 0)
(1.85464e-06 0 0)
(1.85449e-06 0 0)
(1.85434e-06 0 0)
(1.85419e-06 0 0)
(1.85405e-06 0 0)
(1.8539e-06 0 0)
(1.85376e-06 0 0)
(1.85361e-06 0 0)
(1.85347e-06 0 0)
(1.85332e-06 0 0)
(1.85317e-06 0 0)
(1.85303e-06 0 0)
(1.85288e-06 0 0)
(1.85274e-06 0 0)
(1.85259e-06 0 0)
(1.85244e-06 0 0)
(1.8523e-06 0 0)
(1.85215e-06 0 0)
)
;

boundaryField
{
    inlet
    {
        type            fixedValue;
        value           uniform (2.74882e-06 0 0);
    }
    outlet
    {
        type            zeroGradient;
    }
    emptyWalls
    {
        type            empty;
    }
}


// ************************************************************************* //
