/*--------------------------------*- C++ -*----------------------------------*\
  =========                 |
  \\      /  F ield         | OpenFOAM: The Open Source CFD Toolbox
   \\    /   O peration     | Website:  https://openfoam.org
    \\  /    A nd           | Version:  9
     \\/     M anipulation  |
\*---------------------------------------------------------------------------*/
FoamFile
{
    format      ascii;
    class       volScalarField;
    location    "28250";
    object      Fb;
}
// * * * * * * * * * * * * * * * * * * * * * * * * * * * * * * * * * * * * * //

dimensions      [0 0 0 0 0 0 0];

internalField   nonuniform List<scalar> 
1000
(
0.8052
0.805212
0.805205
0.80521
0.805216
0.805216
0.805221
0.805239
0.805225
0.805269
0.805235
0.805306
0.805253
0.805352
0.805287
0.805387
0.805344
0.805407
0.805407
0.805436
0.80546
0.805485
0.805509
0.80554
0.805564
0.805592
0.805618
0.805639
0.805674
0.805671
0.805731
0.805684
0.805774
0.805703
0.80579
0.805744
0.805809
0.805849
0.806125
0.80791
0.823001
0.832402
0.834048
0.834646
0.834959
0.83516
0.835299
0.835399
0.835479
0.835557
0.83564
0.83572
0.835775
0.835795
0.83579
0.835787
0.835815
0.835886
0.835981
0.836061
0.836079
0.835995
0.835797
0.835499
0.835136
0.834759
0.834416
0.834145
0.833964
0.833871
0.833844
0.833848
0.833859
0.833909
0.834179
0.834508
0.834859
0.835179
0.835475
0.835715
0.835909
0.836054
0.836137
0.836194
0.836215
0.836211
0.83619
0.836156
0.836116
0.836075
0.836037
0.836005
0.835979
0.835957
0.835941
0.835926
0.835913
0.835899
0.835885
0.835868
0.835849
0.835825
0.835795
0.835759
0.835716
0.835663
0.835598
0.835518
0.835423
0.835308
0.835173
0.83502
0.83485
0.83467
0.834481
0.834285
0.834084
0.833878
0.833667
0.833453
0.833237
0.833017
0.832795
0.832571
0.832346
0.832118
0.831889
0.831659
0.831426
0.831191
0.830954
0.830714
0.830472
0.830227
0.829981
0.829733
0.829484
0.829234
0.828985
0.828735
0.828485
0.828234
0.827983
0.82773
0.827476
0.827218
0.826959
0.826696
0.826432
0.826164
0.825897
0.825629
0.825363
0.825097
0.824834
0.824571
0.824313
0.824055
0.8238
0.823542
0.823283
0.823015
0.82274
0.822446
0.82214
0.821811
0.821467
0.821101
0.820723
0.820327
0.819924
0.81951
0.819095
0.818675
0.818259
0.817846
0.817445
0.817053
0.816681
0.816327
0.815999
0.815697
0.815424
0.815179
0.814964
0.814774
0.814608
0.81446
0.814328
0.814204
0.814084
0.813964
0.81384
0.813707
0.813563
0.813406
0.813235
0.81305
0.812851
0.812638
0.812414
0.812178
0.811934
0.811682
0.811425
0.811164
0.810899
0.810633
0.810367
0.8101
0.809835
0.80957
0.809307
0.809046
0.808786
0.808528
0.808271
0.808015
0.807761
0.807507
0.807254
0.807001
0.806748
0.806495
0.806243
0.80599
0.805737
0.805483
0.805229
0.804974
0.804718
0.804462
0.804205
0.803947
0.803688
0.803428
0.803168
0.802906
0.802644
0.802381
0.802117
0.801851
0.801586
0.801319
0.801052
0.800783
0.800514
0.800243
0.799972
0.799699
0.799427
0.799151
0.798876
0.798599
0.798322
0.798042
0.797763
0.797482
0.797202
0.796919
0.796638
0.796354
0.796071
0.795786
0.795501
0.795214
0.794928
0.79464
0.794352
0.794061
0.793771
0.793478
0.793187
0.792892
0.7926
0.792305
0.792013
0.791718
0.791427
0.791133
0.790842
0.790548
0.790257
0.789961
0.789667
0.789366
0.789065
0.788755
0.788443
0.788121
0.787795
0.787457
0.787115
0.78676
0.786402
0.78603
0.785657
0.785271
0.784886
0.784489
0.784097
0.783696
0.783302
0.782903
0.782516
0.782127
0.781753
0.781381
0.781029
0.78068
0.780354
0.780033
0.779738
0.779447
0.779181
0.778919
0.778681
0.778443
0.778226
0.778006
0.777803
0.777592
0.777396
0.777187
0.776989
0.776775
0.77657
0.776345
0.77613
0.775892
0.775664
0.775412
0.775172
0.774907
0.774655
0.774379
0.774117
0.773832
0.773564
0.773273
0.772999
0.772705
0.772428
0.772132
0.771854
0.771557
0.771279
0.770983
0.770706
0.770411
0.770134
0.76984
0.769564
0.769271
0.768995
0.768704
0.768428
0.768138
0.767861
0.767572
0.767295
0.767006
0.766727
0.766438
0.766159
0.765869
0.765588
0.765298
0.765016
0.764725
0.764441
0.764149
0.763863
0.76357
0.763283
0.762989
0.762701
0.762404
0.762115
0.761817
0.761526
0.761226
0.760935
0.760632
0.76034
0.760035
0.759742
0.759435
0.759141
0.758831
0.758537
0.758225
0.75793
0.757615
0.757319
0.757003
0.756707
0.756388
0.756091
0.75577
0.755473
0.755149
0.754853
0.754526
0.754229
0.7539
0.753603
0.753272
0.752974
0.752641
0.752343
0.752009
0.751711
0.751376
0.751077
0.750741
0.750442
0.750105
0.749806
0.749468
0.749167
0.748826
0.748522
0.748179
0.747871
0.747522
0.747209
0.746853
0.746533
0.746169
0.74584
0.745468
0.74513
0.744748
0.744401
0.74401
0.743653
0.743254
0.74289
0.742484
0.742114
0.741704
0.741331
0.74092
0.740548
0.740139
0.739772
0.739369
0.739009
0.738616
0.738268
0.737887
0.737554
0.737189
0.736872
0.736525
0.736225
0.735895
0.735612
0.735298
0.735031
0.734731
0.734477
0.734188
0.733943
0.733661
0.733422
0.733144
0.732905
0.732627
0.732387
0.732106
0.731862
0.731575
0.731325
0.731032
0.730774
0.730474
0.730209
0.729901
0.72963
0.729315
0.729037
0.728717
0.728434
0.72811
0.727823
0.727495
0.727205
0.726874
0.726582
0.72625
0.725957
0.725623
0.72533
0.724996
0.724702
0.724368
0.724074
0.72374
0.723446
0.723112
0.722818
0.722484
0.72219
0.721855
0.721561
0.721227
0.720932
0.720597
0.720302
0.719966
0.719671
0.719334
0.719038
0.7187
0.718403
0.718065
0.717766
0.717427
0.717127
0.716786
0.716485
0.716143
0.715841
0.715498
0.715195
0.71485
0.714545
0.714199
0.713893
0.713546
0.713238
0.71289
0.712581
0.712231
0.711921
0.711569
0.711258
0.710905
0.710592
0.710238
0.709923
0.709568
0.709252
0.708896
0.708579
0.708221
0.707903
0.707544
0.707225
0.706864
0.706544
0.706182
0.705861
0.705498
0.705176
0.704812
0.704488
0.704124
0.703799
0.703434
0.703108
0.702742
0.702415
0.702048
0.70172
0.701352
0.701023
0.700653
0.700322
0.69995
0.699617
0.699242
0.698906
0.698528
0.698188
0.697805
0.697461
0.697074
0.696725
0.696332
0.695977
0.695579
0.695218
0.694813
0.694447
0.694036
0.693664
0.693249
0.692872
0.692452
0.692071
0.691648
0.691265
0.69084
0.690456
0.690032
0.689649
0.689226
0.688847
0.688428
0.688054
0.687641
0.687273
0.686869
0.686509
0.686114
0.685764
0.685378
0.685039
0.684664
0.684335
0.683971
0.683652
0.683297
0.682987
0.68264
0.682338
0.681998
0.681701
0.681366
0.681073
0.68074
0.680449
0.680118
0.679826
0.679493
0.679201
0.678865
0.678569
0.67823
0.67793
0.677587
0.677283
0.676936
0.676627
0.676275
0.675962
0.675605
0.675288
0.674928
0.674607
0.674243
0.673919
0.673552
0.673226
0.672857
0.672528
0.672157
0.671827
0.671455
0.671123
0.67075
0.670418
0.670044
0.66971
0.669336
0.669002
0.668627
0.668292
0.667917
0.667582
0.667205
0.66687
0.666493
0.666157
0.66578
0.665443
0.665065
0.664727
0.664348
0.66401
0.66363
0.663291
0.66291
0.66257
0.662188
0.661846
0.661463
0.661121
0.660736
0.660393
0.660007
0.659662
0.659275
0.658929
0.658541
0.658193
0.657804
0.657455
0.657064
0.656714
0.656322
0.65597
0.655576
0.655223
0.654828
0.654474
0.654078
0.653722
0.653324
0.652967
0.652568
0.65221
0.651809
0.65145
0.651048
0.650687
0.650284
0.649921
0.649517
0.649154
0.648748
0.648383
0.647977
0.647611
0.647203
0.646835
0.646426
0.646058
0.645648
0.645278
0.644867
0.644495
0.644083
0.64371
0.643296
0.642922
0.642506
0.642131
0.641713
0.641335
0.640915
0.640535
0.640112
0.639729
0.639304
0.638918
0.638489
0.6381
0.637667
0.637274
0.636838
0.63644
0.636
0.635598
0.635154
0.634748
0.634299
0.633889
0.633437
0.633023
0.632567
0.632151
0.631692
0.631273
0.630812
0.630391
0.629928
0.629507
0.629044
0.628623
0.628161
0.627741
0.627281
0.626863
0.626406
0.625992
0.625539
0.625129
0.624681
0.624276
0.623834
0.623435
0.622998
0.622606
0.622175
0.621789
0.621364
0.620984
0.620565
0.62019
0.619777
0.619407
0.618997
0.618631
0.618225
0.617861
0.617457
0.617095
0.616693
0.616331
0.615928
0.615566
0.615162
0.614799
0.614393
0.614027
0.613619
0.613251
0.61284
0.612468
0.612054
0.611679
0.611261
0.610883
0.610462
0.610081
0.609657
0.609273
0.608845
0.608458
0.608028
0.607638
0.607206
0.606814
0.606379
0.605985
0.605548
0.605152
0.604714
0.604317
0.603876
0.603478
0.603036
0.602636
0.602193
0.601792
0.601347
0.600945
0.6005
0.600096
0.599649
0.599245
0.598797
0.598392
0.597942
0.597535
0.597085
0.596677
0.596225
0.595816
0.595362
0.594951
0.594496
0.594084
0.593628
0.593214
0.592756
0.592341
0.591881
0.591465
0.591003
0.590585
0.590121
0.589702
0.589236
0.588815
0.588348
0.587925
0.587455
0.587031
0.586559
0.586134
0.585659
0.585234
0.584755
0.58433
0.583847
0.583423
0.582936
0.582511
0.582021
0.581596
0.581103
0.580676
0.580181
0.579752
0.579256
0.578825
0.578326
0.577895
0.577392
0.576961
0.576455
0.576024
0.575515
0.575082
0.57457
0.574137
0.573622
0.573188
0.57267
0.572236
0.571713
0.57128
0.570751
0.570321
0.569783
0.56936
0.568809
0.568395
0.567829
0.567427
0.566842
0.566455
0.565848
0.565477
0.564847
0.564494
0.56384
0.563505
0.562825
0.562508
0.561804
0.561504
0.560776
0.560492
0.55974
0.559472
0.558698
0.558443
0.55765
0.557405
0.556597
0.556359
0.555538
0.555306
0.554473
0.554248
0.553405
0.553183
0.552333
0.552114
0.551259
0.551041
0.550183
0.549966
0.549107
0.548889
0.54803
0.547812
0.546953
0.546738
0.545877
0.545665
0.544805
0.544595
0.543736
0.543529
0.542672
0.542471
0.541615
0.541418
0.540563
0.54037
0.539516
0.539326
0.538474
0.538285
0.537436
0.537246
0.536401
0.536209
0.535366
0.535173
0.534331
0.534136
0.533294
0.533096
0.532254
0.532053
0.53121
0.531006
0.530161
0.529953
0.529106
0.528893
0.528043
0.527828
0.526972
0.526755
0.525894
0.525673
0.52481
0.524582
0.523718
0.523483
0.522617
0.522378
0.521508
0.521263
0.520391
0.520142
0.519267
0.519013
0.518135
0.517939
0.00892478
)
;

boundaryField
{
    inlet
    {
        type            calculated;
        value           uniform 0.805169;
    }
    outlet
    {
        type            calculated;
        value           uniform 0.584024;
    }
    emptyWalls
    {
        type            empty;
    }
}


// ************************************************************************* //
