/*--------------------------------*- C++ -*----------------------------------*\
  =========                 |
  \\      /  F ield         | OpenFOAM: The Open Source CFD Toolbox
   \\    /   O peration     | Website:  https://openfoam.org
    \\  /    A nd           | Version:  9
     \\/     M anipulation  |
\*---------------------------------------------------------------------------*/
FoamFile
{
    format      ascii;
    class       volScalarField;
    location    "28250";
    object      p;
}
// * * * * * * * * * * * * * * * * * * * * * * * * * * * * * * * * * * * * * //

dimensions      [0 0 0 0 0 0 0];

internalField   nonuniform List<scalar> 
1000
(
161631
161205
160781
160358
159937
159518
159100
158684
158270
157857
157446
157037
156630
156224
155820
155417
155017
154618
154221
153825
153431
153039
152649
152260
151872
151486
151101
150717
150335
149953
149572
149193
148814
148435
148057
147680
147303
146928
146560
146215
145956
145835
145742
145654
145568
145482
145397
145313
145228
145144
145061
144977
144894
144811
144728
144645
144562
144479
144397
144314
144232
144150
144068
143986
143904
143822
143740
143658
143576
143495
143413
143332
143250
143168
143087
143005
142924
142842
142761
142679
142598
142516
142435
142353
142271
142190
142108
142027
141945
141863
141782
141700
141618
141537
141455
141373
141291
141209
141127
141045
140963
140881
140799
140717
140635
140552
140470
140387
140305
140222
140139
140056
139972
139889
139805
139721
139637
139553
139468
139383
139298
139213
139128
139042
138956
138870
138784
138697
138610
138523
138436
138349
138261
138173
138085
137996
137908
137819
137730
137641
137551
137462
137372
137282
137191
137101
137010
136919
136828
136737
136645
136553
136461
136369
136276
136184
136091
135998
135904
135811
135717
135623
135529
135435
135340
135245
135151
135055
134960
134864
134769
134673
134577
134480
134384
134287
134190
134093
133996
133898
133801
133703
133605
133507
133408
133309
133211
133112
133012
132913
132813
132713
132613
132513
132412
132311
132210
132109
132008
131906
131804
131702
131600
131498
131395
131293
131190
131087
130983
130880
130776
130672
130568
130464
130359
130254
130150
130045
129939
129834
129728
129622
129516
129410
129304
129197
129090
128983
128876
128769
128661
128554
128446
128338
128229
128121
128012
127903
127794
127685
127576
127466
127356
127246
127136
127026
126915
126805
126694
126583
126472
126360
126249
126137
126025
125913
125800
125688
125575
125462
125349
125236
125123
125009
124895
124781
124667
124553
124439
124324
124209
124094
123979
123864
123748
123632
123517
123401
123284
123168
123051
122935
122818
122701
122583
122466
122348
122231
122113
121995
121876
121758
121639
121521
121402
121282
121163
121044
120924
120804
120685
120565
120444
120324
120203
120083
119962
119841
119720
119598
119477
119355
119233
119111
118989
118867
118744
118622
118499
118376
118252
118129
118006
117882
117758
117634
117509
117385
117260
117136
117011
116886
116760
116635
116509
116383
116257
116131
116005
115878
115752
115625
115498
115371
115243
115116
114988
114860
114732
114604
114476
114348
114219
114090
113961
113832
113703
113573
113444
113314
113184
113054
112924
112793
112663
112532
112401
112270
112139
112007
111876
111744
111612
111480
111348
111215
111083
110950
110817
110684
110551
110418
110284
110151
110017
109883
109749
109614
109480
109345
109211
109076
108941
108805
108670
108534
108399
108263
108127
107991
107854
107718
107581
107444
107307
107170
107033
106896
106758
106620
106482
106344
106206
106068
105929
105791
105652
105513
105374
105234
105095
104955
104816
104676
104536
104396
104255
104115
103974
103833
103692
103551
103410
103269
103127
102986
102844
102702
102560
102417
102275
102133
101990
101847
101704
101561
101418
101275
101131
100987
100844
100700
100556
100411
100267
100122
99977.7
99832.9
99687.9
99542.8
99397.5
99252.1
99106.5
98960.8
98814.8
98668.8
98522.6
98376.2
98229.6
98082.9
97936.1
97789.1
97641.9
97494.5
97347.1
97199.4
97051.6
96903.7
96755.5
96607.3
96458.9
96310.3
96161.6
96012.7
95863.6
95714.5
95565.1
95415.7
95266
95116.2
94966.3
94816.2
94666
94515.6
94365.1
94214.4
94063.6
93912.6
93761.5
93610.2
93458.8
93307.2
93155.5
93003.6
92851.6
92699.4
92547.1
92394.6
92242
92089.2
91936.3
91783.2
91630
91476.6
91323.1
91169.5
91015.7
90861.7
90707.6
90553.4
90399
90244.4
90089.7
89934.9
89779.9
89624.8
89469.5
89314
89158.5
89002.7
88846.9
88690.9
88534.7
88378.4
88221.9
88065.3
87908.6
87751.7
87594.7
87437.5
87280.2
87122.7
86965.1
86807.3
86649.4
86491.4
86333.2
86174.8
86016.3
85857.7
85698.9
85540
85381
85221.8
85062.4
84902.9
84743.3
84583.5
84423.6
84263.5
84103.3
83943
83782.5
83621.9
83461.1
83300.2
83139.1
82977.9
82816.6
82655.1
82493.5
82331.7
82169.8
82007.7
81845.6
81683.2
81520.8
81358.1
81195.4
81032.5
80869.5
80706.3
80543
80379.6
80216
80052.3
79888.4
79724.5
79560.3
79396.1
79231.7
79067.2
78902.5
78737.8
78572.9
78407.8
78242.6
78077.3
77911.9
77746.3
77580.6
77414.8
77248.8
77082.7
76916.5
76750.1
76583.6
76417
76250.2
76083.3
75916.2
75749
75581.7
75414.2
75246.6
75078.8
74910.9
74742.8
74574.6
74406.3
74237.8
74069.1
73900.3
73731.4
73562.3
73393.1
73223.7
73054.1
72884.5
72714.6
72544.6
72374.5
72204.2
72033.8
71863.2
71692.5
71521.7
71350.6
71179.5
71008.2
70836.7
70665.2
70493.4
70321.5
70149.5
69977.4
69805.1
69632.6
69460
69287.3
69114.4
68941.4
68768.2
68594.9
68421.5
68247.9
68074.2
67900.3
67726.3
67552.1
67377.8
67203.4
67028.8
66854.1
66679.2
66504.2
66329.1
66153.8
65978.3
65802.8
65627
65451.2
65275.2
65099
64922.8
64746.3
64569.8
64393.1
64216.2
64039.2
63862.1
63684.8
63507.4
63329.9
63152.2
62974.3
62796.3
62618.2
62440
62261.6
62083
61904.4
61725.5
61546.6
61367.5
61188.2
61008.9
60829.3
60649.7
60469.9
60289.9
60109.9
59929.6
59749.3
59568.8
59388.2
59207.4
59026.5
58845.4
58664.2
58482.9
58301.4
58119.8
57938.1
57756.2
57574.2
57392
57209.7
57027.3
56844.7
56662
56479.1
56296.1
56113
55929.7
55746.3
55562.8
55379.1
55195.3
55011.3
54827.3
54643
54458.7
54274.2
54089.5
53904.7
53719.8
53534.8
53349.6
53164.3
52978.8
52793.2
52607.5
52421.7
52235.7
52049.5
51863.3
51676.9
51490.4
51303.7
51116.9
50930
50743
50555.8
50368.5
50181
49993.5
49805.8
49618
49430
49241.9
49053.7
48865.4
48676.9
48488.3
48299.6
48110.7
47921.7
47732.6
47543.3
47353.9
47164.4
46974.8
46785
46595
46405
46214.8
46024.5
45834
45643.4
45452.6
45261.7
45070.7
44879.5
44688.2
44496.7
44305.1
44113.4
43921.5
43729.4
43537.2
43344.9
43152.4
42959.8
42767
42574.1
42381
42187.8
41994.5
41800.9
41607.3
41413.5
41219.5
41025.5
40831.2
40636.8
40442.3
40247.6
40052.8
39857.9
39662.8
39467.5
39272.1
39076.6
38880.9
38685.1
38489.1
38293
38096.8
37900.4
37703.8
37507.2
37310.4
37113.4
36916.3
36719
36521.7
36324.1
36126.5
35928.6
35730.7
35532.6
35334.3
35136
34937.4
34738.8
34539.9
34341
34141.9
33942.6
33743.3
33543.7
33344.1
33144.2
32944.3
32744.2
32544
32343.6
32143
31942.4
31741.6
31540.6
31339.5
31138.3
30936.9
30735.4
30533.7
30331.9
30129.9
29927.8
29725.6
29523.2
29320.7
29118
28915.2
28712.3
28509.2
28305.9
28102.5
27899
27695.4
27491.5
27287.6
27083.5
26879.3
26674.9
26470.4
26265.7
26060.9
25856
25650.9
25445.7
25240.3
25034.8
24829.1
24623.3
24417.4
24211.3
24005.1
23798.7
23592.2
23385.5
23178.7
22971.8
22764.7
22557.5
22350.1
22142.6
21935
21727.2
21519.3
21311.2
21103
20894.6
20686.1
20477.5
20268.7
20059.8
19850.7
19641.5
19432.2
19222.7
19013.1
18803.3
18593.4
18383.3
18173.2
17962.8
17752.4
17541.8
17331
17120.1
16909.1
16697.9
16486.7
16275.2
16063.6
15851.9
15640.1
15428.1
15216
15003.7
14791.3
14578.8
14366.1
14153.3
13940.4
13727.3
13514.1
13300.7
13087.2
12873.6
12659.8
12445.9
12231.9
12017.7
11803.3
11588.8
11374.2
11159.5
10944.6
10729.5
10514.3
10299
10083.5
9867.85
9652.06
9436.13
9220.04
9003.8
8787.41
8570.87
8354.17
8137.32
7920.32
7703.15
7485.84
7268.37
7050.74
6832.95
6615.01
6396.9
6178.64
5960.23
5741.65
5522.92
5304.03
5084.98
4865.77
4646.4
4426.87
4207.19
3987.35
3767.34
3547.18
3326.87
3106.39
2885.76
2664.96
2444.01
2222.91
2001.64
1780.22
1558.64
1336.9
1115
892.943
670.729
448.36
225.674
)
;

boundaryField
{
    inlet
    {
        type            darcyGradPressure;
        gradient        uniform 116344;
        Mf              Mf;
        phi             phi;
        value           uniform 161844;
    }
    outlet
    {
        type            fixedValue;
        value           uniform 0;
    }
    emptyWalls
    {
        type            empty;
    }
}


// ************************************************************************* //
