/*--------------------------------*- C++ -*----------------------------------*\
  =========                 |
  \\      /  F ield         | OpenFOAM: The Open Source CFD Toolbox
   \\    /   O peration     | Website:  https://openfoam.org
    \\  /    A nd           | Version:  9
     \\/     M anipulation  |
\*---------------------------------------------------------------------------*/
FoamFile
{
    format      ascii;
    class       surfaceScalarField;
    location    "21000";
    object      phib;
}
// * * * * * * * * * * * * * * * * * * * * * * * * * * * * * * * * * * * * * //

dimensions      [0 2 0 0 0 0 0];

internalField   nonuniform List<scalar> 
999
(
1.13621e-09
1.13622e-09
1.13624e-09
1.13625e-09
1.13627e-09
1.13628e-09
1.13631e-09
1.13631e-09
1.13635e-09
1.13637e-09
1.1364e-09
1.13645e-09
1.13647e-09
1.13653e-09
1.13656e-09
1.13662e-09
1.13666e-09
1.13671e-09
1.13676e-09
1.1368e-09
1.13684e-09
1.13687e-09
1.13689e-09
1.13692e-09
1.13695e-09
1.13701e-09
1.13712e-09
1.13764e-09
1.13988e-09
1.15068e-09
1.17139e-09
1.17622e-09
1.17783e-09
1.17821e-09
1.17819e-09
1.17815e-09
1.1782e-09
1.17832e-09
1.17849e-09
1.17868e-09
1.17887e-09
1.17905e-09
1.17922e-09
1.17938e-09
1.17952e-09
1.17966e-09
1.17978e-09
1.17989e-09
1.18e-09
1.18009e-09
1.18018e-09
1.18025e-09
1.18032e-09
1.18039e-09
1.18044e-09
1.18049e-09
1.18054e-09
1.18057e-09
1.1806e-09
1.18062e-09
1.18064e-09
1.18065e-09
1.18065e-09
1.18065e-09
1.18064e-09
1.18062e-09
1.18059e-09
1.18056e-09
1.18052e-09
1.18047e-09
1.18041e-09
1.18034e-09
1.18026e-09
1.18016e-09
1.18005e-09
1.17993e-09
1.17978e-09
1.17962e-09
1.17943e-09
1.1792e-09
1.17894e-09
1.17863e-09
1.17828e-09
1.1779e-09
1.1775e-09
1.17709e-09
1.17665e-09
1.17621e-09
1.17575e-09
1.17529e-09
1.17483e-09
1.17438e-09
1.17392e-09
1.17346e-09
1.173e-09
1.17254e-09
1.17208e-09
1.1716e-09
1.17111e-09
1.17058e-09
1.17002e-09
1.16942e-09
1.16876e-09
1.16808e-09
1.16736e-09
1.16662e-09
1.16588e-09
1.16513e-09
1.16439e-09
1.16366e-09
1.16294e-09
1.16225e-09
1.16158e-09
1.16095e-09
1.16037e-09
1.15984e-09
1.15937e-09
1.15896e-09
1.15861e-09
1.15831e-09
1.15805e-09
1.15781e-09
1.1576e-09
1.15739e-09
1.15718e-09
1.15694e-09
1.15669e-09
1.15641e-09
1.15609e-09
1.15574e-09
1.15536e-09
1.15495e-09
1.15451e-09
1.15405e-09
1.15357e-09
1.15308e-09
1.15257e-09
1.15206e-09
1.15155e-09
1.15103e-09
1.15052e-09
1.15001e-09
1.1495e-09
1.149e-09
1.1485e-09
1.148e-09
1.14751e-09
1.14703e-09
1.14654e-09
1.14606e-09
1.14558e-09
1.1451e-09
1.14462e-09
1.14414e-09
1.14366e-09
1.14318e-09
1.1427e-09
1.14222e-09
1.14174e-09
1.14125e-09
1.14077e-09
1.14028e-09
1.13979e-09
1.13931e-09
1.13882e-09
1.13832e-09
1.13783e-09
1.13734e-09
1.13684e-09
1.13634e-09
1.13584e-09
1.13534e-09
1.13484e-09
1.13434e-09
1.13383e-09
1.13332e-09
1.13281e-09
1.1323e-09
1.13179e-09
1.13127e-09
1.13076e-09
1.13024e-09
1.12972e-09
1.1292e-09
1.12868e-09
1.12816e-09
1.12763e-09
1.1271e-09
1.12657e-09
1.12604e-09
1.1255e-09
1.12497e-09
1.12443e-09
1.12389e-09
1.12335e-09
1.12281e-09
1.12227e-09
1.12172e-09
1.12118e-09
1.12063e-09
1.12009e-09
1.11954e-09
1.11899e-09
1.11844e-09
1.11789e-09
1.11734e-09
1.11679e-09
1.11623e-09
1.11567e-09
1.11512e-09
1.11456e-09
1.114e-09
1.11345e-09
1.11289e-09
1.11233e-09
1.11177e-09
1.11122e-09
1.11066e-09
1.1101e-09
1.10953e-09
1.10896e-09
1.10838e-09
1.10779e-09
1.10719e-09
1.10658e-09
1.10596e-09
1.10532e-09
1.10466e-09
1.104e-09
1.10331e-09
1.10262e-09
1.10192e-09
1.1012e-09
1.10048e-09
1.09976e-09
1.09903e-09
1.09831e-09
1.09759e-09
1.09688e-09
1.09618e-09
1.0955e-09
1.09484e-09
1.0942e-09
1.09358e-09
1.09298e-09
1.09242e-09
1.09188e-09
1.09136e-09
1.09087e-09
1.09041e-09
1.08996e-09
1.08953e-09
1.0891e-09
1.08869e-09
1.08829e-09
1.08788e-09
1.08747e-09
1.08705e-09
1.08663e-09
1.08619e-09
1.08574e-09
1.08528e-09
1.08481e-09
1.08432e-09
1.08382e-09
1.08331e-09
1.08279e-09
1.08226e-09
1.08172e-09
1.08117e-09
1.08062e-09
1.08006e-09
1.0795e-09
1.07894e-09
1.07837e-09
1.0778e-09
1.07724e-09
1.07667e-09
1.07611e-09
1.07554e-09
1.07498e-09
1.07441e-09
1.07385e-09
1.07329e-09
1.07273e-09
1.07218e-09
1.07162e-09
1.07106e-09
1.0705e-09
1.06995e-09
1.06939e-09
1.06883e-09
1.06828e-09
1.06772e-09
1.06716e-09
1.0666e-09
1.06604e-09
1.06549e-09
1.06492e-09
1.06436e-09
1.0638e-09
1.06324e-09
1.06267e-09
1.06211e-09
1.06154e-09
1.06097e-09
1.0604e-09
1.05983e-09
1.05926e-09
1.05869e-09
1.05811e-09
1.05754e-09
1.05696e-09
1.05638e-09
1.0558e-09
1.05522e-09
1.05464e-09
1.05405e-09
1.05347e-09
1.05288e-09
1.0523e-09
1.05171e-09
1.05112e-09
1.05053e-09
1.04993e-09
1.04934e-09
1.04874e-09
1.04815e-09
1.04755e-09
1.04695e-09
1.04635e-09
1.04574e-09
1.04514e-09
1.04453e-09
1.04393e-09
1.04332e-09
1.04271e-09
1.0421e-09
1.04149e-09
1.04088e-09
1.04027e-09
1.03966e-09
1.03904e-09
1.03843e-09
1.03781e-09
1.0372e-09
1.03658e-09
1.03596e-09
1.03534e-09
1.03472e-09
1.0341e-09
1.03348e-09
1.03286e-09
1.03224e-09
1.03161e-09
1.03099e-09
1.03037e-09
1.02974e-09
1.02911e-09
1.02848e-09
1.02785e-09
1.02721e-09
1.02657e-09
1.02593e-09
1.02528e-09
1.02463e-09
1.02396e-09
1.0233e-09
1.02262e-09
1.02194e-09
1.02125e-09
1.02056e-09
1.01985e-09
1.01914e-09
1.01843e-09
1.0177e-09
1.01698e-09
1.01624e-09
1.01551e-09
1.01477e-09
1.01404e-09
1.0133e-09
1.01257e-09
1.01184e-09
1.01111e-09
1.0104e-09
1.00969e-09
1.00899e-09
1.0083e-09
1.00762e-09
1.00696e-09
1.0063e-09
1.00566e-09
1.00504e-09
1.00443e-09
1.00383e-09
1.00324e-09
1.00267e-09
1.0021e-09
1.00154e-09
1.00099e-09
1.00045e-09
9.99903e-10
9.99363e-10
9.98823e-10
9.98282e-10
9.97739e-10
9.97193e-10
9.96642e-10
9.96085e-10
9.95523e-10
9.94954e-10
9.94378e-10
9.93796e-10
9.93207e-10
9.92612e-10
9.9201e-10
9.91403e-10
9.9079e-10
9.90172e-10
9.8955e-10
9.88924e-10
9.88294e-10
9.87662e-10
9.87027e-10
9.8639e-10
9.85751e-10
9.85111e-10
9.8447e-10
9.83828e-10
9.83185e-10
9.82542e-10
9.81899e-10
9.81256e-10
9.80613e-10
9.7997e-10
9.79327e-10
9.78683e-10
9.7804e-10
9.77397e-10
9.76753e-10
9.7611e-10
9.75466e-10
9.74821e-10
9.74176e-10
9.73531e-10
9.72885e-10
9.72239e-10
9.71592e-10
9.70944e-10
9.70295e-10
9.69645e-10
9.68995e-10
9.68343e-10
9.67691e-10
9.67037e-10
9.66383e-10
9.65727e-10
9.6507e-10
9.64412e-10
9.63753e-10
9.63093e-10
9.62431e-10
9.61768e-10
9.61104e-10
9.60439e-10
9.59773e-10
9.59105e-10
9.58436e-10
9.57765e-10
9.57094e-10
9.56421e-10
9.55746e-10
9.55071e-10
9.54394e-10
9.53716e-10
9.53036e-10
9.52355e-10
9.51673e-10
9.50989e-10
9.50304e-10
9.49618e-10
9.4893e-10
9.48241e-10
9.47551e-10
9.46859e-10
9.46166e-10
9.45472e-10
9.44776e-10
9.4408e-10
9.43382e-10
9.42682e-10
9.41982e-10
9.4128e-10
9.40577e-10
9.39873e-10
9.39168e-10
9.38462e-10
9.37755e-10
9.37046e-10
9.36337e-10
9.35626e-10
9.34914e-10
9.34202e-10
9.33488e-10
9.32773e-10
9.32058e-10
9.31341e-10
9.30623e-10
9.29904e-10
9.29184e-10
9.28462e-10
9.27739e-10
9.27015e-10
9.26288e-10
9.2556e-10
9.24829e-10
9.24097e-10
9.23361e-10
9.22623e-10
9.21881e-10
9.21137e-10
9.20388e-10
9.19636e-10
9.1888e-10
9.18119e-10
9.17355e-10
9.16585e-10
9.15812e-10
9.15033e-10
9.14251e-10
9.13464e-10
9.12672e-10
9.11877e-10
9.11078e-10
9.10276e-10
9.0947e-10
9.08662e-10
9.07853e-10
9.07041e-10
9.06229e-10
9.05417e-10
9.04605e-10
9.03794e-10
9.02985e-10
9.02179e-10
9.01376e-10
9.00577e-10
8.99782e-10
8.98992e-10
8.98208e-10
8.97429e-10
8.96657e-10
8.95892e-10
8.95133e-10
8.94381e-10
8.93636e-10
8.92897e-10
8.92165e-10
8.91439e-10
8.90718e-10
8.90002e-10
8.89291e-10
8.88583e-10
8.87878e-10
8.87176e-10
8.86475e-10
8.85775e-10
8.85074e-10
8.84373e-10
8.83671e-10
8.82967e-10
8.8226e-10
8.8155e-10
8.80837e-10
8.8012e-10
8.79399e-10
8.78674e-10
8.77945e-10
8.77212e-10
8.76474e-10
8.75732e-10
8.74986e-10
8.74236e-10
8.73482e-10
8.72725e-10
8.71964e-10
8.712e-10
8.70433e-10
8.69663e-10
8.6889e-10
8.68115e-10
8.67338e-10
8.66559e-10
8.65779e-10
8.64996e-10
8.64212e-10
8.63427e-10
8.6264e-10
8.61852e-10
8.61062e-10
8.60272e-10
8.59481e-10
8.58688e-10
8.57894e-10
8.571e-10
8.56304e-10
8.55507e-10
8.54709e-10
8.5391e-10
8.5311e-10
8.52309e-10
8.51506e-10
8.50702e-10
8.49897e-10
8.49091e-10
8.48283e-10
8.47473e-10
8.46662e-10
8.4585e-10
8.45036e-10
8.4422e-10
8.43403e-10
8.42584e-10
8.41764e-10
8.40941e-10
8.40117e-10
8.39291e-10
8.38464e-10
8.37634e-10
8.36803e-10
8.3597e-10
8.35135e-10
8.34297e-10
8.33458e-10
8.32618e-10
8.31775e-10
8.3093e-10
8.30083e-10
8.29234e-10
8.28383e-10
8.2753e-10
8.26675e-10
8.25818e-10
8.24959e-10
8.24097e-10
8.23234e-10
8.22368e-10
8.21501e-10
8.20631e-10
8.19759e-10
8.18885e-10
8.18009e-10
8.1713e-10
8.1625e-10
8.15367e-10
8.14482e-10
8.13595e-10
8.12706e-10
8.11814e-10
8.10921e-10
8.10025e-10
8.09127e-10
8.08227e-10
8.07324e-10
8.0642e-10
8.05513e-10
8.04604e-10
8.03693e-10
8.0278e-10
8.01864e-10
8.00947e-10
8.00027e-10
7.99104e-10
7.9818e-10
7.97253e-10
7.96324e-10
7.95393e-10
7.94459e-10
7.93523e-10
7.92584e-10
7.91643e-10
7.90699e-10
7.89752e-10
7.88803e-10
7.87851e-10
7.86896e-10
7.85937e-10
7.84976e-10
7.84011e-10
7.83043e-10
7.82071e-10
7.81096e-10
7.80116e-10
7.79133e-10
7.78146e-10
7.77155e-10
7.76159e-10
7.7516e-10
7.74156e-10
7.73147e-10
7.72134e-10
7.71117e-10
7.70096e-10
7.69069e-10
7.68039e-10
7.67005e-10
7.65966e-10
7.64924e-10
7.63877e-10
7.62827e-10
7.61774e-10
7.60718e-10
7.59658e-10
7.58596e-10
7.57531e-10
7.56464e-10
7.55396e-10
7.54326e-10
7.53254e-10
7.52182e-10
7.51109e-10
7.50035e-10
7.48962e-10
7.47888e-10
7.46815e-10
7.45742e-10
7.4467e-10
7.43599e-10
7.42529e-10
7.4146e-10
7.40393e-10
7.39326e-10
7.3826e-10
7.37195e-10
7.36131e-10
7.35067e-10
7.34004e-10
7.32941e-10
7.31878e-10
7.30814e-10
7.29749e-10
7.28684e-10
7.27616e-10
7.26547e-10
7.25476e-10
7.24401e-10
7.23324e-10
7.22243e-10
7.21158e-10
7.2007e-10
7.18977e-10
7.17879e-10
7.16776e-10
7.15669e-10
7.14556e-10
7.13437e-10
7.12314e-10
7.11184e-10
7.1005e-10
7.08909e-10
7.07763e-10
7.06611e-10
7.05453e-10
7.0429e-10
7.03121e-10
7.01947e-10
7.00768e-10
6.99584e-10
6.98394e-10
6.972e-10
6.96001e-10
6.94798e-10
6.9359e-10
6.92378e-10
6.91162e-10
6.89942e-10
6.88719e-10
6.87493e-10
6.86264e-10
6.85032e-10
6.83799e-10
6.82563e-10
6.81327e-10
6.8009e-10
6.78853e-10
6.77617e-10
6.76383e-10
6.75152e-10
6.73924e-10
6.72701e-10
6.71485e-10
6.70276e-10
6.69078e-10
6.67892e-10
6.6672e-10
6.65564e-10
6.64427e-10
6.63312e-10
6.62222e-10
6.61159e-10
6.60127e-10
6.59129e-10
6.58168e-10
6.57247e-10
6.56368e-10
6.55535e-10
6.5475e-10
6.54013e-10
6.53328e-10
6.52692e-10
6.52109e-10
6.51577e-10
6.51096e-10
6.50664e-10
6.50277e-10
6.49936e-10
6.49635e-10
6.49374e-10
6.49149e-10
6.48956e-10
6.48793e-10
6.48655e-10
6.48538e-10
6.48442e-10
6.48361e-10
6.48294e-10
6.48235e-10
6.48178e-10
6.48118e-10
6.48041e-10
6.47929e-10
6.47748e-10
6.47439e-10
6.46892e-10
6.45919e-10
6.44185e-10
6.41101e-10
6.35664e-10
6.26224e-10
6.10277e-10
5.84559e-10
5.46055e-10
4.94473e-10
4.3499e-10
3.77579e-10
3.31366e-10
2.99592e-10
2.8016e-10
2.69147e-10
2.63182e-10
2.6003e-10
2.58387e-10
2.57536e-10
2.57097e-10
2.5687e-10
2.56753e-10
2.56692e-10
2.5666e-10
2.56642e-10
2.56632e-10
2.56626e-10
2.56622e-10
2.56619e-10
2.56616e-10
2.56613e-10
2.56611e-10
2.56608e-10
2.56605e-10
2.56602e-10
2.56599e-10
2.56596e-10
2.56592e-10
2.56589e-10
2.56585e-10
2.5658e-10
2.56576e-10
2.56571e-10
2.56566e-10
2.56561e-10
2.56555e-10
2.56549e-10
2.56543e-10
2.56537e-10
2.5653e-10
2.56522e-10
2.56515e-10
2.56507e-10
2.56498e-10
2.56489e-10
2.5648e-10
2.5647e-10
2.5646e-10
2.5645e-10
2.56439e-10
2.56428e-10
2.56417e-10
2.56405e-10
2.56393e-10
2.56381e-10
2.56368e-10
2.56355e-10
2.56342e-10
2.56329e-10
2.56316e-10
2.56303e-10
2.5629e-10
2.56277e-10
2.56263e-10
2.56251e-10
2.56238e-10
2.56225e-10
2.56213e-10
2.56201e-10
2.5619e-10
2.56179e-10
2.56169e-10
2.56159e-10
2.5615e-10
2.56141e-10
2.56133e-10
2.56126e-10
2.5612e-10
2.56115e-10
2.56111e-10
2.56107e-10
2.56105e-10
2.56103e-10
2.56102e-10
2.56102e-10
2.56102e-10
2.56103e-10
2.56106e-10
2.5611e-10
2.56115e-10
2.5612e-10
2.56127e-10
2.56133e-10
2.56141e-10
2.56149e-10
2.56158e-10
2.56167e-10
2.56176e-10
2.56186e-10
2.56197e-10
2.56207e-10
2.56218e-10
2.56228e-10
2.56239e-10
2.5625e-10
2.56261e-10
2.56271e-10
2.56282e-10
2.56292e-10
2.56302e-10
2.56312e-10
2.56322e-10
2.56331e-10
2.5634e-10
2.56349e-10
2.56357e-10
2.56365e-10
2.56373e-10
2.5638e-10
2.56387e-10
2.56394e-10
2.56401e-10
2.56407e-10
2.56413e-10
2.56418e-10
2.56423e-10
2.56428e-10
2.56433e-10
2.56438e-10
2.56442e-10
2.56446e-10
2.5645e-10
2.56454e-10
2.56458e-10
2.56462e-10
2.56465e-10
2.56469e-10
2.56472e-10
2.56475e-10
2.56479e-10
2.56482e-10
2.56485e-10
2.56488e-10
2.56491e-10
2.56494e-10
2.56497e-10
2.565e-10
2.56503e-10
2.56506e-10
2.56509e-10
2.56512e-10
2.56515e-10
2.56518e-10
2.56521e-10
)
;

boundaryField
{
    inlet
    {
        type            calculated;
        value           uniform -1.13622e-09;
    }
    outlet
    {
        type            calculated;
        value           uniform 2.56524e-10;
    }
    emptyWalls
    {
        type            empty;
        value           nonuniform List<scalar> 0();
    }
}


// ************************************************************************* //
