/*--------------------------------*- C++ -*----------------------------------*\
  =========                 |
  \\      /  F ield         | OpenFOAM: The Open Source CFD Toolbox
   \\    /   O peration     | Website:  https://openfoam.org
    \\  /    A nd           | Version:  9
     \\/     M anipulation  |
\*---------------------------------------------------------------------------*/
FoamFile
{
    format      ascii;
    class       volVectorField;
    location    "21000";
    object      Uc;
}
// * * * * * * * * * * * * * * * * * * * * * * * * * * * * * * * * * * * * * //

dimensions      [0 0 0 0 0 0 0];

internalField   nonuniform List<vector> 
1000
(
(6.01721e-12 0 0)
(3.12997e-11 0 0)
(8.71328e-11 0 0)
(1.76588e-10 0 0)
(2.98317e-10 0 0)
(4.51891e-10 0 0)
(6.37196e-10 0 0)
(8.54194e-10 0 0)
(1.10269e-09 0 0)
(1.3822e-09 0 0)
(1.69175e-09 0 0)
(2.02962e-09 0 0)
(2.39333e-09 0 0)
(2.77909e-09 0 0)
(3.18206e-09 0 0)
(3.59601e-09 0 0)
(4.01355e-09 0 0)
(4.42672e-09 0 0)
(4.82733e-09 0 0)
(5.20792e-09 0 0)
(5.56247e-09 0 0)
(5.8869e-09 0 0)
(6.17969e-09 0 0)
(6.44387e-09 0 0)
(6.6967e-09 0 0)
(7.01881e-09 0 0)
(7.78271e-09 0 0)
(1.04604e-08 0 0)
(2.13236e-08 0 0)
(7.86568e-08 0 0)
(1.62298e-07 0 0)
(2.03908e-07 0 0)
(2.13108e-07 0 0)
(2.17273e-07 0 0)
(2.19856e-07 0 0)
(2.21786e-07 0 0)
(2.23398e-07 0 0)
(2.24832e-07 0 0)
(2.26153e-07 0 0)
(2.27394e-07 0 0)
(2.28574e-07 0 0)
(2.29706e-07 0 0)
(2.30797e-07 0 0)
(2.31854e-07 0 0)
(2.32882e-07 0 0)
(2.33883e-07 0 0)
(2.3486e-07 0 0)
(2.35817e-07 0 0)
(2.36756e-07 0 0)
(2.3768e-07 0 0)
(2.3859e-07 0 0)
(2.3949e-07 0 0)
(2.40381e-07 0 0)
(2.41266e-07 0 0)
(2.42146e-07 0 0)
(2.43025e-07 0 0)
(2.43905e-07 0 0)
(2.44787e-07 0 0)
(2.45673e-07 0 0)
(2.46566e-07 0 0)
(2.47469e-07 0 0)
(2.48389e-07 0 0)
(2.49334e-07 0 0)
(2.50304e-07 0 0)
(2.51291e-07 0 0)
(2.52299e-07 0 0)
(2.53329e-07 0 0)
(2.54385e-07 0 0)
(2.55468e-07 0 0)
(2.56584e-07 0 0)
(2.57738e-07 0 0)
(2.58935e-07 0 0)
(2.60185e-07 0 0)
(2.61499e-07 0 0)
(2.62894e-07 0 0)
(2.64392e-07 0 0)
(2.66025e-07 0 0)
(2.67833e-07 0 0)
(2.69869e-07 0 0)
(2.72189e-07 0 0)
(2.74841e-07 0 0)
(2.77853e-07 0 0)
(2.81216e-07 0 0)
(2.8488e-07 0 0)
(2.88776e-07 0 0)
(2.92845e-07 0 0)
(2.97043e-07 0 0)
(3.01342e-07 0 0)
(3.05718e-07 0 0)
(3.10158e-07 0 0)
(3.1465e-07 0 0)
(3.19188e-07 0 0)
(3.23763e-07 0 0)
(3.28373e-07 0 0)
(3.33012e-07 0 0)
(3.37676e-07 0 0)
(3.42364e-07 0 0)
(3.47073e-07 0 0)
(3.51798e-07 0 0)
(3.56537e-07 0 0)
(3.61285e-07 0 0)
(3.6604e-07 0 0)
(3.708e-07 0 0)
(3.75565e-07 0 0)
(3.80334e-07 0 0)
(3.8511e-07 0 0)
(3.89895e-07 0 0)
(3.9469e-07 0 0)
(3.99496e-07 0 0)
(4.04315e-07 0 0)
(4.09147e-07 0 0)
(4.13994e-07 0 0)
(4.18858e-07 0 0)
(4.23741e-07 0 0)
(4.28646e-07 0 0)
(4.33575e-07 0 0)
(4.3853e-07 0 0)
(4.43512e-07 0 0)
(4.48522e-07 0 0)
(4.53558e-07 0 0)
(4.58619e-07 0 0)
(4.63701e-07 0 0)
(4.68802e-07 0 0)
(4.73918e-07 0 0)
(4.79045e-07 0 0)
(4.84179e-07 0 0)
(4.89318e-07 0 0)
(4.9446e-07 0 0)
(4.99602e-07 0 0)
(5.04744e-07 0 0)
(5.09885e-07 0 0)
(5.15024e-07 0 0)
(5.20164e-07 0 0)
(5.25303e-07 0 0)
(5.30444e-07 0 0)
(5.35588e-07 0 0)
(5.40736e-07 0 0)
(5.45888e-07 0 0)
(5.51047e-07 0 0)
(5.56213e-07 0 0)
(5.61387e-07 0 0)
(5.66569e-07 0 0)
(5.71761e-07 0 0)
(5.76961e-07 0 0)
(5.8217e-07 0 0)
(5.87389e-07 0 0)
(5.92616e-07 0 0)
(5.97853e-07 0 0)
(6.03098e-07 0 0)
(6.08351e-07 0 0)
(6.13613e-07 0 0)
(6.18882e-07 0 0)
(6.2416e-07 0 0)
(6.29444e-07 0 0)
(6.34736e-07 0 0)
(6.40035e-07 0 0)
(6.45341e-07 0 0)
(6.50654e-07 0 0)
(6.55973e-07 0 0)
(6.61299e-07 0 0)
(6.66631e-07 0 0)
(6.7197e-07 0 0)
(6.77315e-07 0 0)
(6.82666e-07 0 0)
(6.88023e-07 0 0)
(6.93386e-07 0 0)
(6.98755e-07 0 0)
(7.04131e-07 0 0)
(7.09512e-07 0 0)
(7.14899e-07 0 0)
(7.20291e-07 0 0)
(7.2569e-07 0 0)
(7.31094e-07 0 0)
(7.36503e-07 0 0)
(7.41918e-07 0 0)
(7.47339e-07 0 0)
(7.52765e-07 0 0)
(7.58196e-07 0 0)
(7.63633e-07 0 0)
(7.69075e-07 0 0)
(7.74522e-07 0 0)
(7.79975e-07 0 0)
(7.85432e-07 0 0)
(7.90895e-07 0 0)
(7.96363e-07 0 0)
(8.01836e-07 0 0)
(8.07314e-07 0 0)
(8.12797e-07 0 0)
(8.18284e-07 0 0)
(8.23776e-07 0 0)
(8.29273e-07 0 0)
(8.34774e-07 0 0)
(8.40281e-07 0 0)
(8.45791e-07 0 0)
(8.51307e-07 0 0)
(8.56828e-07 0 0)
(8.62353e-07 0 0)
(8.67884e-07 0 0)
(8.73419e-07 0 0)
(8.7896e-07 0 0)
(8.84505e-07 0 0)
(8.90056e-07 0 0)
(8.95611e-07 0 0)
(9.01172e-07 0 0)
(9.06737e-07 0 0)
(9.12306e-07 0 0)
(9.1788e-07 0 0)
(9.23458e-07 0 0)
(9.29041e-07 0 0)
(9.34629e-07 0 0)
(9.40221e-07 0 0)
(9.45819e-07 0 0)
(9.51422e-07 0 0)
(9.5703e-07 0 0)
(9.62644e-07 0 0)
(9.68263e-07 0 0)
(9.73887e-07 0 0)
(9.79516e-07 0 0)
(9.85148e-07 0 0)
(9.90784e-07 0 0)
(9.96421e-07 0 0)
(1.00206e-06 0 0)
(1.0077e-06 0 0)
(1.01333e-06 0 0)
(1.01896e-06 0 0)
(1.02459e-06 0 0)
(1.03021e-06 0 0)
(1.03583e-06 0 0)
(1.04144e-06 0 0)
(1.04704e-06 0 0)
(1.05264e-06 0 0)
(1.05823e-06 0 0)
(1.06383e-06 0 0)
(1.06942e-06 0 0)
(1.075e-06 0 0)
(1.08059e-06 0 0)
(1.08619e-06 0 0)
(1.09179e-06 0 0)
(1.0974e-06 0 0)
(1.10302e-06 0 0)
(1.10865e-06 0 0)
(1.11431e-06 0 0)
(1.11998e-06 0 0)
(1.12567e-06 0 0)
(1.13139e-06 0 0)
(1.13713e-06 0 0)
(1.1429e-06 0 0)
(1.1487e-06 0 0)
(1.15452e-06 0 0)
(1.16037e-06 0 0)
(1.16624e-06 0 0)
(1.17213e-06 0 0)
(1.17804e-06 0 0)
(1.18396e-06 0 0)
(1.1899e-06 0 0)
(1.19584e-06 0 0)
(1.20179e-06 0 0)
(1.20774e-06 0 0)
(1.2137e-06 0 0)
(1.21965e-06 0 0)
(1.22559e-06 0 0)
(1.23154e-06 0 0)
(1.23747e-06 0 0)
(1.24341e-06 0 0)
(1.24933e-06 0 0)
(1.25525e-06 0 0)
(1.26117e-06 0 0)
(1.26709e-06 0 0)
(1.273e-06 0 0)
(1.27891e-06 0 0)
(1.28481e-06 0 0)
(1.29072e-06 0 0)
(1.29663e-06 0 0)
(1.30255e-06 0 0)
(1.30846e-06 0 0)
(1.31438e-06 0 0)
(1.32031e-06 0 0)
(1.32624e-06 0 0)
(1.33218e-06 0 0)
(1.33812e-06 0 0)
(1.34407e-06 0 0)
(1.35002e-06 0 0)
(1.35598e-06 0 0)
(1.36195e-06 0 0)
(1.36792e-06 0 0)
(1.3739e-06 0 0)
(1.37989e-06 0 0)
(1.38588e-06 0 0)
(1.39188e-06 0 0)
(1.39789e-06 0 0)
(1.4039e-06 0 0)
(1.40991e-06 0 0)
(1.41593e-06 0 0)
(1.42196e-06 0 0)
(1.42799e-06 0 0)
(1.43402e-06 0 0)
(1.44006e-06 0 0)
(1.44611e-06 0 0)
(1.45216e-06 0 0)
(1.45821e-06 0 0)
(1.46427e-06 0 0)
(1.47034e-06 0 0)
(1.4764e-06 0 0)
(1.48248e-06 0 0)
(1.48855e-06 0 0)
(1.49463e-06 0 0)
(1.50072e-06 0 0)
(1.50681e-06 0 0)
(1.5129e-06 0 0)
(1.519e-06 0 0)
(1.5251e-06 0 0)
(1.5312e-06 0 0)
(1.53731e-06 0 0)
(1.54343e-06 0 0)
(1.54955e-06 0 0)
(1.55567e-06 0 0)
(1.56179e-06 0 0)
(1.56792e-06 0 0)
(1.57406e-06 0 0)
(1.5802e-06 0 0)
(1.58634e-06 0 0)
(1.59248e-06 0 0)
(1.59863e-06 0 0)
(1.60479e-06 0 0)
(1.61094e-06 0 0)
(1.61711e-06 0 0)
(1.62327e-06 0 0)
(1.62944e-06 0 0)
(1.63561e-06 0 0)
(1.64179e-06 0 0)
(1.64797e-06 0 0)
(1.65416e-06 0 0)
(1.66034e-06 0 0)
(1.66654e-06 0 0)
(1.67273e-06 0 0)
(1.67894e-06 0 0)
(1.68514e-06 0 0)
(1.69135e-06 0 0)
(1.69756e-06 0 0)
(1.70378e-06 0 0)
(1.71001e-06 0 0)
(1.71623e-06 0 0)
(1.72246e-06 0 0)
(1.7287e-06 0 0)
(1.73494e-06 0 0)
(1.74118e-06 0 0)
(1.74743e-06 0 0)
(1.75369e-06 0 0)
(1.75994e-06 0 0)
(1.76621e-06 0 0)
(1.77248e-06 0 0)
(1.77875e-06 0 0)
(1.78503e-06 0 0)
(1.79131e-06 0 0)
(1.7976e-06 0 0)
(1.80389e-06 0 0)
(1.81018e-06 0 0)
(1.81648e-06 0 0)
(1.82279e-06 0 0)
(1.8291e-06 0 0)
(1.83541e-06 0 0)
(1.84172e-06 0 0)
(1.84803e-06 0 0)
(1.85434e-06 0 0)
(1.86065e-06 0 0)
(1.86696e-06 0 0)
(1.87326e-06 0 0)
(1.87957e-06 0 0)
(1.88586e-06 0 0)
(1.89216e-06 0 0)
(1.89844e-06 0 0)
(1.90473e-06 0 0)
(1.911e-06 0 0)
(1.91728e-06 0 0)
(1.92354e-06 0 0)
(1.92981e-06 0 0)
(1.93607e-06 0 0)
(1.94232e-06 0 0)
(1.94858e-06 0 0)
(1.95484e-06 0 0)
(1.9611e-06 0 0)
(1.96737e-06 0 0)
(1.97364e-06 0 0)
(1.97993e-06 0 0)
(1.98622e-06 0 0)
(1.99253e-06 0 0)
(1.99886e-06 0 0)
(2.00521e-06 0 0)
(2.01157e-06 0 0)
(2.01796e-06 0 0)
(2.02438e-06 0 0)
(2.03082e-06 0 0)
(2.03729e-06 0 0)
(2.04378e-06 0 0)
(2.05031e-06 0 0)
(2.05686e-06 0 0)
(2.06344e-06 0 0)
(2.07004e-06 0 0)
(2.07667e-06 0 0)
(2.08332e-06 0 0)
(2.08999e-06 0 0)
(2.09668e-06 0 0)
(2.10339e-06 0 0)
(2.11011e-06 0 0)
(2.11683e-06 0 0)
(2.12357e-06 0 0)
(2.13031e-06 0 0)
(2.13705e-06 0 0)
(2.14379e-06 0 0)
(2.15054e-06 0 0)
(2.15728e-06 0 0)
(2.16402e-06 0 0)
(2.17076e-06 0 0)
(2.17749e-06 0 0)
(2.18422e-06 0 0)
(2.19094e-06 0 0)
(2.19766e-06 0 0)
(2.20438e-06 0 0)
(2.2111e-06 0 0)
(2.21781e-06 0 0)
(2.22453e-06 0 0)
(2.23124e-06 0 0)
(2.23796e-06 0 0)
(2.24467e-06 0 0)
(2.25139e-06 0 0)
(2.25812e-06 0 0)
(2.26484e-06 0 0)
(2.27157e-06 0 0)
(2.27831e-06 0 0)
(2.28505e-06 0 0)
(2.2918e-06 0 0)
(2.29856e-06 0 0)
(2.30532e-06 0 0)
(2.31209e-06 0 0)
(2.31887e-06 0 0)
(2.32565e-06 0 0)
(2.33245e-06 0 0)
(2.33925e-06 0 0)
(2.34605e-06 0 0)
(2.35287e-06 0 0)
(2.35969e-06 0 0)
(2.36652e-06 0 0)
(2.37336e-06 0 0)
(2.38021e-06 0 0)
(2.38706e-06 0 0)
(2.39392e-06 0 0)
(2.40079e-06 0 0)
(2.40766e-06 0 0)
(2.41455e-06 0 0)
(2.42143e-06 0 0)
(2.42833e-06 0 0)
(2.43523e-06 0 0)
(2.44214e-06 0 0)
(2.44905e-06 0 0)
(2.45597e-06 0 0)
(2.4629e-06 0 0)
(2.46983e-06 0 0)
(2.47677e-06 0 0)
(2.48371e-06 0 0)
(2.49066e-06 0 0)
(2.49762e-06 0 0)
(2.50458e-06 0 0)
(2.51155e-06 0 0)
(2.51853e-06 0 0)
(2.52551e-06 0 0)
(2.5325e-06 0 0)
(2.53949e-06 0 0)
(2.54649e-06 0 0)
(2.5535e-06 0 0)
(2.56051e-06 0 0)
(2.56753e-06 0 0)
(2.57455e-06 0 0)
(2.58158e-06 0 0)
(2.58861e-06 0 0)
(2.59566e-06 0 0)
(2.6027e-06 0 0)
(2.60976e-06 0 0)
(2.61681e-06 0 0)
(2.62388e-06 0 0)
(2.63095e-06 0 0)
(2.63803e-06 0 0)
(2.64511e-06 0 0)
(2.6522e-06 0 0)
(2.6593e-06 0 0)
(2.6664e-06 0 0)
(2.67351e-06 0 0)
(2.68062e-06 0 0)
(2.68774e-06 0 0)
(2.69487e-06 0 0)
(2.702e-06 0 0)
(2.70914e-06 0 0)
(2.71628e-06 0 0)
(2.72344e-06 0 0)
(2.7306e-06 0 0)
(2.73776e-06 0 0)
(2.74493e-06 0 0)
(2.75211e-06 0 0)
(2.7593e-06 0 0)
(2.76649e-06 0 0)
(2.77369e-06 0 0)
(2.7809e-06 0 0)
(2.78812e-06 0 0)
(2.79534e-06 0 0)
(2.80257e-06 0 0)
(2.8098e-06 0 0)
(2.81705e-06 0 0)
(2.8243e-06 0 0)
(2.83156e-06 0 0)
(2.83882e-06 0 0)
(2.8461e-06 0 0)
(2.85338e-06 0 0)
(2.86066e-06 0 0)
(2.86796e-06 0 0)
(2.87526e-06 0 0)
(2.88257e-06 0 0)
(2.88988e-06 0 0)
(2.8972e-06 0 0)
(2.90452e-06 0 0)
(2.91184e-06 0 0)
(2.91917e-06 0 0)
(2.9265e-06 0 0)
(2.93384e-06 0 0)
(2.94117e-06 0 0)
(2.94851e-06 0 0)
(2.95585e-06 0 0)
(2.96318e-06 0 0)
(2.97052e-06 0 0)
(2.97785e-06 0 0)
(2.98519e-06 0 0)
(2.99252e-06 0 0)
(2.99985e-06 0 0)
(3.00718e-06 0 0)
(3.0145e-06 0 0)
(3.02183e-06 0 0)
(3.02916e-06 0 0)
(3.03648e-06 0 0)
(3.04381e-06 0 0)
(3.05114e-06 0 0)
(3.05848e-06 0 0)
(3.06582e-06 0 0)
(3.07317e-06 0 0)
(3.08053e-06 0 0)
(3.0879e-06 0 0)
(3.09528e-06 0 0)
(3.10267e-06 0 0)
(3.11009e-06 0 0)
(3.11752e-06 0 0)
(3.12497e-06 0 0)
(3.13244e-06 0 0)
(3.13994e-06 0 0)
(3.14747e-06 0 0)
(3.15502e-06 0 0)
(3.16261e-06 0 0)
(3.17022e-06 0 0)
(3.17787e-06 0 0)
(3.18555e-06 0 0)
(3.19326e-06 0 0)
(3.201e-06 0 0)
(3.20877e-06 0 0)
(3.21658e-06 0 0)
(3.22442e-06 0 0)
(3.23228e-06 0 0)
(3.24018e-06 0 0)
(3.2481e-06 0 0)
(3.25604e-06 0 0)
(3.26401e-06 0 0)
(3.272e-06 0 0)
(3.28001e-06 0 0)
(3.28803e-06 0 0)
(3.29606e-06 0 0)
(3.30411e-06 0 0)
(3.31217e-06 0 0)
(3.32024e-06 0 0)
(3.32832e-06 0 0)
(3.3364e-06 0 0)
(3.34448e-06 0 0)
(3.35257e-06 0 0)
(3.36067e-06 0 0)
(3.36876e-06 0 0)
(3.37686e-06 0 0)
(3.38496e-06 0 0)
(3.39306e-06 0 0)
(3.40117e-06 0 0)
(3.40928e-06 0 0)
(3.41739e-06 0 0)
(3.4255e-06 0 0)
(3.43362e-06 0 0)
(3.44175e-06 0 0)
(3.44988e-06 0 0)
(3.45802e-06 0 0)
(3.46617e-06 0 0)
(3.47432e-06 0 0)
(3.48248e-06 0 0)
(3.49066e-06 0 0)
(3.49884e-06 0 0)
(3.50703e-06 0 0)
(3.51524e-06 0 0)
(3.52345e-06 0 0)
(3.53168e-06 0 0)
(3.53992e-06 0 0)
(3.54818e-06 0 0)
(3.55644e-06 0 0)
(3.56473e-06 0 0)
(3.57302e-06 0 0)
(3.58133e-06 0 0)
(3.58965e-06 0 0)
(3.59799e-06 0 0)
(3.60634e-06 0 0)
(3.6147e-06 0 0)
(3.62308e-06 0 0)
(3.63148e-06 0 0)
(3.63988e-06 0 0)
(3.6483e-06 0 0)
(3.65674e-06 0 0)
(3.66519e-06 0 0)
(3.67365e-06 0 0)
(3.68213e-06 0 0)
(3.69062e-06 0 0)
(3.69913e-06 0 0)
(3.70765e-06 0 0)
(3.71618e-06 0 0)
(3.72473e-06 0 0)
(3.73329e-06 0 0)
(3.74187e-06 0 0)
(3.75046e-06 0 0)
(3.75906e-06 0 0)
(3.76768e-06 0 0)
(3.77631e-06 0 0)
(3.78495e-06 0 0)
(3.79361e-06 0 0)
(3.80229e-06 0 0)
(3.81097e-06 0 0)
(3.81967e-06 0 0)
(3.82839e-06 0 0)
(3.83712e-06 0 0)
(3.84586e-06 0 0)
(3.85461e-06 0 0)
(3.86339e-06 0 0)
(3.87217e-06 0 0)
(3.88097e-06 0 0)
(3.88979e-06 0 0)
(3.89861e-06 0 0)
(3.90746e-06 0 0)
(3.91632e-06 0 0)
(3.92519e-06 0 0)
(3.93408e-06 0 0)
(3.94298e-06 0 0)
(3.9519e-06 0 0)
(3.96083e-06 0 0)
(3.96978e-06 0 0)
(3.97874e-06 0 0)
(3.98772e-06 0 0)
(3.99671e-06 0 0)
(4.00572e-06 0 0)
(4.01475e-06 0 0)
(4.02379e-06 0 0)
(4.03285e-06 0 0)
(4.04192e-06 0 0)
(4.05101e-06 0 0)
(4.06012e-06 0 0)
(4.06924e-06 0 0)
(4.07838e-06 0 0)
(4.08753e-06 0 0)
(4.09671e-06 0 0)
(4.1059e-06 0 0)
(4.11511e-06 0 0)
(4.12433e-06 0 0)
(4.13358e-06 0 0)
(4.14284e-06 0 0)
(4.15212e-06 0 0)
(4.16141e-06 0 0)
(4.17073e-06 0 0)
(4.18006e-06 0 0)
(4.18942e-06 0 0)
(4.19879e-06 0 0)
(4.20818e-06 0 0)
(4.21759e-06 0 0)
(4.22702e-06 0 0)
(4.23647e-06 0 0)
(4.24593e-06 0 0)
(4.25542e-06 0 0)
(4.26493e-06 0 0)
(4.27445e-06 0 0)
(4.28399e-06 0 0)
(4.29356e-06 0 0)
(4.30314e-06 0 0)
(4.31274e-06 0 0)
(4.32235e-06 0 0)
(4.33199e-06 0 0)
(4.34164e-06 0 0)
(4.35131e-06 0 0)
(4.36099e-06 0 0)
(4.37069e-06 0 0)
(4.38041e-06 0 0)
(4.39015e-06 0 0)
(4.39989e-06 0 0)
(4.40966e-06 0 0)
(4.41944e-06 0 0)
(4.42923e-06 0 0)
(4.43904e-06 0 0)
(4.44886e-06 0 0)
(4.45869e-06 0 0)
(4.46854e-06 0 0)
(4.47841e-06 0 0)
(4.48829e-06 0 0)
(4.49818e-06 0 0)
(4.50809e-06 0 0)
(4.51802e-06 0 0)
(4.52797e-06 0 0)
(4.53793e-06 0 0)
(4.54791e-06 0 0)
(4.55792e-06 0 0)
(4.56794e-06 0 0)
(4.57799e-06 0 0)
(4.58807e-06 0 0)
(4.59817e-06 0 0)
(4.6083e-06 0 0)
(4.61846e-06 0 0)
(4.62865e-06 0 0)
(4.63888e-06 0 0)
(4.64915e-06 0 0)
(4.65945e-06 0 0)
(4.66979e-06 0 0)
(4.68018e-06 0 0)
(4.69061e-06 0 0)
(4.70109e-06 0 0)
(4.71161e-06 0 0)
(4.72219e-06 0 0)
(4.73281e-06 0 0)
(4.74349e-06 0 0)
(4.75422e-06 0 0)
(4.76501e-06 0 0)
(4.77585e-06 0 0)
(4.78675e-06 0 0)
(4.79771e-06 0 0)
(4.80872e-06 0 0)
(4.81979e-06 0 0)
(4.83092e-06 0 0)
(4.8421e-06 0 0)
(4.85333e-06 0 0)
(4.86462e-06 0 0)
(4.87597e-06 0 0)
(4.88736e-06 0 0)
(4.89881e-06 0 0)
(4.9103e-06 0 0)
(4.92184e-06 0 0)
(4.93342e-06 0 0)
(4.94505e-06 0 0)
(4.95672e-06 0 0)
(4.96843e-06 0 0)
(4.98018e-06 0 0)
(4.99197e-06 0 0)
(5.00379e-06 0 0)
(5.01566e-06 0 0)
(5.02755e-06 0 0)
(5.03948e-06 0 0)
(5.05145e-06 0 0)
(5.06344e-06 0 0)
(5.07547e-06 0 0)
(5.08753e-06 0 0)
(5.09962e-06 0 0)
(5.11175e-06 0 0)
(5.12391e-06 0 0)
(5.1361e-06 0 0)
(5.14832e-06 0 0)
(5.16057e-06 0 0)
(5.17286e-06 0 0)
(5.18518e-06 0 0)
(5.19753e-06 0 0)
(5.20992e-06 0 0)
(5.22235e-06 0 0)
(5.2348e-06 0 0)
(5.24729e-06 0 0)
(5.25981e-06 0 0)
(5.27237e-06 0 0)
(5.28495e-06 0 0)
(5.29757e-06 0 0)
(5.31022e-06 0 0)
(5.3229e-06 0 0)
(5.3356e-06 0 0)
(5.34832e-06 0 0)
(5.36107e-06 0 0)
(5.37383e-06 0 0)
(5.3866e-06 0 0)
(5.39938e-06 0 0)
(5.41217e-06 0 0)
(5.42495e-06 0 0)
(5.43771e-06 0 0)
(5.45045e-06 0 0)
(5.46316e-06 0 0)
(5.47582e-06 0 0)
(5.48843e-06 0 0)
(5.50096e-06 0 0)
(5.5134e-06 0 0)
(5.52572e-06 0 0)
(5.53791e-06 0 0)
(5.54995e-06 0 0)
(5.56181e-06 0 0)
(5.57346e-06 0 0)
(5.58487e-06 0 0)
(5.59601e-06 0 0)
(5.60685e-06 0 0)
(5.61736e-06 0 0)
(5.62751e-06 0 0)
(5.63726e-06 0 0)
(5.64659e-06 0 0)
(5.65547e-06 0 0)
(5.66387e-06 0 0)
(5.67177e-06 0 0)
(5.67916e-06 0 0)
(5.68603e-06 0 0)
(5.69238e-06 0 0)
(5.69819e-06 0 0)
(5.70348e-06 0 0)
(5.70827e-06 0 0)
(5.71256e-06 0 0)
(5.71638e-06 0 0)
(5.71977e-06 0 0)
(5.72273e-06 0 0)
(5.72531e-06 0 0)
(5.72754e-06 0 0)
(5.72944e-06 0 0)
(5.73107e-06 0 0)
(5.73245e-06 0 0)
(5.73361e-06 0 0)
(5.73459e-06 0 0)
(5.7354e-06 0 0)
(5.73611e-06 0 0)
(5.73675e-06 0 0)
(5.7374e-06 0 0)
(5.73815e-06 0 0)
(5.73915e-06 0 0)
(5.74068e-06 0 0)
(5.74321e-06 0 0)
(5.7476e-06 0 0)
(5.75536e-06 0 0)
(5.76917e-06 0 0)
(5.79373e-06 0 0)
(5.83714e-06 0 0)
(5.91292e-06 0 0)
(6.04217e-06 0 0)
(6.25417e-06 0 0)
(6.58061e-06 0 0)
(7.03782e-06 0 0)
(7.60036e-06 0 0)
(8.191e-06 0 0)
(8.71335e-06 0 0)
(9.10567e-06 0 0)
(9.36288e-06 0 0)
(9.51564e-06 0 0)
(9.60077e-06 0 0)
(9.64644e-06 0 0)
(9.67043e-06 0 0)
(9.68288e-06 0 0)
(9.68929e-06 0 0)
(9.69257e-06 0 0)
(9.69423e-06 0 0)
(9.69505e-06 0 0)
(9.69545e-06 0 0)
(9.69562e-06 0 0)
(9.69568e-06 0 0)
(9.69568e-06 0 0)
(9.69565e-06 0 0)
(9.69559e-06 0 0)
(9.69553e-06 0 0)
(9.69546e-06 0 0)
(9.69538e-06 0 0)
(9.6953e-06 0 0)
(9.69521e-06 0 0)
(9.69512e-06 0 0)
(9.69503e-06 0 0)
(9.69493e-06 0 0)
(9.69482e-06 0 0)
(9.69471e-06 0 0)
(9.69459e-06 0 0)
(9.69447e-06 0 0)
(9.69434e-06 0 0)
(9.6942e-06 0 0)
(9.69405e-06 0 0)
(9.69389e-06 0 0)
(9.69372e-06 0 0)
(9.69354e-06 0 0)
(9.69336e-06 0 0)
(9.69315e-06 0 0)
(9.69294e-06 0 0)
(9.69272e-06 0 0)
(9.69248e-06 0 0)
(9.69223e-06 0 0)
(9.69196e-06 0 0)
(9.69168e-06 0 0)
(9.69139e-06 0 0)
(9.69108e-06 0 0)
(9.69076e-06 0 0)
(9.69043e-06 0 0)
(9.69008e-06 0 0)
(9.68971e-06 0 0)
(9.68933e-06 0 0)
(9.68894e-06 0 0)
(9.68854e-06 0 0)
(9.68813e-06 0 0)
(9.68771e-06 0 0)
(9.68728e-06 0 0)
(9.68684e-06 0 0)
(9.68639e-06 0 0)
(9.68594e-06 0 0)
(9.68548e-06 0 0)
(9.68503e-06 0 0)
(9.68457e-06 0 0)
(9.68411e-06 0 0)
(9.68366e-06 0 0)
(9.68321e-06 0 0)
(9.68277e-06 0 0)
(9.68234e-06 0 0)
(9.68192e-06 0 0)
(9.68151e-06 0 0)
(9.68112e-06 0 0)
(9.68075e-06 0 0)
(9.68039e-06 0 0)
(9.68006e-06 0 0)
(9.67975e-06 0 0)
(9.67947e-06 0 0)
(9.67921e-06 0 0)
(9.67898e-06 0 0)
(9.67879e-06 0 0)
(9.67862e-06 0 0)
(9.67849e-06 0 0)
(9.67839e-06 0 0)
(9.67833e-06 0 0)
(9.67829e-06 0 0)
(9.67829e-06 0 0)
(9.67829e-06 0 0)
(9.67831e-06 0 0)
(9.67839e-06 0 0)
(9.67852e-06 0 0)
(9.67869e-06 0 0)
(9.67888e-06 0 0)
(9.6791e-06 0 0)
(9.67934e-06 0 0)
(9.67961e-06 0 0)
(9.6799e-06 0 0)
(9.68021e-06 0 0)
(9.68054e-06 0 0)
(9.68088e-06 0 0)
(9.68124e-06 0 0)
(9.68161e-06 0 0)
(9.68199e-06 0 0)
(9.68237e-06 0 0)
(9.68276e-06 0 0)
(9.68315e-06 0 0)
(9.68355e-06 0 0)
(9.68394e-06 0 0)
(9.68433e-06 0 0)
(9.68471e-06 0 0)
(9.68509e-06 0 0)
(9.68546e-06 0 0)
(9.68582e-06 0 0)
(9.68617e-06 0 0)
(9.68651e-06 0 0)
(9.68684e-06 0 0)
(9.68716e-06 0 0)
(9.68747e-06 0 0)
(9.68776e-06 0 0)
(9.68804e-06 0 0)
(9.68831e-06 0 0)
(9.68857e-06 0 0)
(9.68881e-06 0 0)
(9.68904e-06 0 0)
(9.68926e-06 0 0)
(9.68947e-06 0 0)
(9.68967e-06 0 0)
(9.68986e-06 0 0)
(9.69004e-06 0 0)
(9.69022e-06 0 0)
(9.69038e-06 0 0)
(9.69054e-06 0 0)
(9.69069e-06 0 0)
(9.69084e-06 0 0)
(9.69098e-06 0 0)
(9.69111e-06 0 0)
(9.69124e-06 0 0)
(9.69137e-06 0 0)
(9.69149e-06 0 0)
(9.69161e-06 0 0)
(9.69173e-06 0 0)
(9.69185e-06 0 0)
(9.69197e-06 0 0)
(9.69208e-06 0 0)
(9.69219e-06 0 0)
(9.69231e-06 0 0)
(9.69242e-06 0 0)
(9.69253e-06 0 0)
(9.69264e-06 0 0)
(9.69275e-06 0 0)
(9.69286e-06 0 0)
(9.69297e-06 0 0)
(9.69308e-06 0 0)
(9.69319e-06 0 0)
(9.6933e-06 0 0)
(9.69341e-06 0 0)
(9.69352e-06 0 0)
)
;

boundaryField
{
    inlet
    {
        type            fixedValue;
        value           uniform (0 0 0);
    }
    outlet
    {
        type            zeroGradient;
    }
    emptyWalls
    {
        type            empty;
    }
}


// ************************************************************************* //
