/*--------------------------------*- C++ -*----------------------------------*\
  =========                 |
  \\      /  F ield         | OpenFOAM: The Open Source CFD Toolbox
   \\    /   O peration     | Website:  https://openfoam.org
    \\  /    A nd           | Version:  9
     \\/     M anipulation  |
\*---------------------------------------------------------------------------*/
FoamFile
{
    format      ascii;
    class       volScalarField;
    location    "2800";
    object      kra;
}
// * * * * * * * * * * * * * * * * * * * * * * * * * * * * * * * * * * * * * //

dimensions      [0 0 0 0 0 0 0];

internalField   nonuniform List<scalar> 
100
(
4.0201e-05
2.94933e-05
3.19556e-05
3.04911e-05
3.0526e-05
3.01078e-05
2.98914e-05
2.96386e-05
2.94245e-05
2.92181e-05
2.90263e-05
2.88436e-05
2.86694e-05
2.85019e-05
2.83398e-05
2.81816e-05
2.80259e-05
2.78707e-05
2.77138e-05
2.75515e-05
2.73782e-05
2.73662e-05
2.74448e-05
2.74841e-05
2.75328e-05
2.7574e-05
2.76145e-05
2.76521e-05
2.76879e-05
2.77218e-05
2.77539e-05
2.77844e-05
2.78134e-05
2.78409e-05
2.78671e-05
2.78919e-05
2.79156e-05
2.7938e-05
2.79592e-05
2.79793e-05
2.79982e-05
2.8016e-05
2.80327e-05
2.80483e-05
2.80629e-05
2.80764e-05
2.80888e-05
2.81002e-05
2.81106e-05
2.81199e-05
2.81283e-05
2.81356e-05
2.8142e-05
2.81473e-05
2.81517e-05
2.8155e-05
2.81574e-05
2.81588e-05
2.81593e-05
2.81587e-05
2.81572e-05
2.81546e-05
2.8151e-05
2.81463e-05
2.81406e-05
2.81337e-05
2.81256e-05
2.81163e-05
2.81057e-05
2.80938e-05
2.80803e-05
2.80653e-05
2.80485e-05
2.80298e-05
2.80089e-05
2.79855e-05
2.79592e-05
2.79294e-05
2.78954e-05
2.78559e-05
2.78093e-05
2.77529e-05
2.76826e-05
2.75909e-05
2.74643e-05
2.72741e-05
2.69518e-05
2.62939e-05
2.44953e-05
1.7903e-05
4.50831e-06
4.45145e-08
5.20284e-13
1.37116e-23
3.31603e-35
2.79752e-35
3.22646e-35
3.31588e-35
3.22634e-35
3.31576e-35
)
;

boundaryField
{
    inlet
    {
        type            calculated;
        value           uniform 1.17467e-05;
    }
    outlet
    {
        type            calculated;
        value           uniform 4.72862e-37;
    }
    emptyWalls
    {
        type            empty;
    }
}


// ************************************************************************* //
