/*--------------------------------*- C++ -*----------------------------------*\
  =========                 |
  \\      /  F ield         | OpenFOAM: The Open Source CFD Toolbox
   \\    /   O peration     | Website:  https://openfoam.org
    \\  /    A nd           | Version:  9
     \\/     M anipulation  |
\*---------------------------------------------------------------------------*/
FoamFile
{
    format      ascii;
    class       volScalarField;
    location    "2800";
    object      p;
}
// * * * * * * * * * * * * * * * * * * * * * * * * * * * * * * * * * * * * * //

dimensions      [0 0 0 0 0 0 0];

internalField   nonuniform List<scalar> 
100
(
5.9609e+06
5.95282e+06
5.94181e+06
5.93166e+06
5.92103e+06
5.91042e+06
5.89967e+06
5.88886e+06
5.87796e+06
5.86699e+06
5.85596e+06
5.84487e+06
5.83372e+06
5.82251e+06
5.81125e+06
5.79994e+06
5.78858e+06
5.77718e+06
5.76572e+06
5.75421e+06
5.74266e+06
5.73105e+06
5.71946e+06
5.70793e+06
5.69643e+06
5.68498e+06
5.67356e+06
5.66218e+06
5.65083e+06
5.63952e+06
5.62825e+06
5.61701e+06
5.6058e+06
5.59463e+06
5.58349e+06
5.57238e+06
5.56131e+06
5.55026e+06
5.53925e+06
5.52828e+06
5.51733e+06
5.50641e+06
5.49553e+06
5.48467e+06
5.47385e+06
5.46305e+06
5.45229e+06
5.44156e+06
5.43085e+06
5.42018e+06
5.40954e+06
5.39892e+06
5.38834e+06
5.37779e+06
5.36727e+06
5.35677e+06
5.34631e+06
5.33588e+06
5.32548e+06
5.3151e+06
5.30476e+06
5.29445e+06
5.28417e+06
5.27392e+06
5.2637e+06
5.25352e+06
5.24336e+06
5.23324e+06
5.22315e+06
5.21309e+06
5.20307e+06
5.19308e+06
5.18313e+06
5.17321e+06
5.16334e+06
5.1535e+06
5.1437e+06
5.13395e+06
5.12424e+06
5.11458e+06
5.10497e+06
5.09543e+06
5.08596e+06
5.07657e+06
5.06728e+06
5.05812e+06
5.04914e+06
5.04044e+06
5.03221e+06
5.02495e+06
5.0198e+06
5.01707e+06
5.01503e+06
5.01302e+06
5.01102e+06
5.00901e+06
5.00701e+06
5.00501e+06
5.003e+06
5.001e+06
)
;

boundaryField
{
    inlet
    {
        type            darcyGradPressure;
        gradient        uniform 4.00192e+06;
        Mf              Mf;
        phi             phi;
        value           uniform 5.96891e+06;
    }
    outlet
    {
        type            fixedValue;
        value           uniform 5e+06;
    }
    emptyWalls
    {
        type            empty;
    }
}


// ************************************************************************* //
