/*--------------------------------*- C++ -*----------------------------------*\
  =========                 |
  \\      /  F ield         | OpenFOAM: The Open Source CFD Toolbox
   \\    /   O peration     | Website:  https://openfoam.org
    \\  /    A nd           | Version:  9
     \\/     M anipulation  |
\*---------------------------------------------------------------------------*/
FoamFile
{
    format      ascii;
    class       surfaceScalarField;
    location    "2800";
    object      phia;
}
// * * * * * * * * * * * * * * * * * * * * * * * * * * * * * * * * * * * * * //

dimensions      [0 2 0 0 0 0 0];

internalField   nonuniform List<scalar> 
99
(
1.42034e-08
1.41935e-08
1.41825e-08
1.41709e-08
1.41587e-08
1.4146e-08
1.41329e-08
1.41193e-08
1.41053e-08
1.40909e-08
1.40761e-08
1.40609e-08
1.40453e-08
1.40292e-08
1.40127e-08
1.39955e-08
1.39776e-08
1.39589e-08
1.39389e-08
1.39172e-08
1.38928e-08
1.38645e-08
1.38396e-08
1.38143e-08
1.37895e-08
1.37647e-08
1.37398e-08
1.37147e-08
1.36893e-08
1.36637e-08
1.36377e-08
1.36115e-08
1.3585e-08
1.35582e-08
1.35311e-08
1.35037e-08
1.3476e-08
1.34479e-08
1.34196e-08
1.33909e-08
1.33619e-08
1.33325e-08
1.33028e-08
1.32727e-08
1.32422e-08
1.32113e-08
1.318e-08
1.31482e-08
1.31161e-08
1.30835e-08
1.30505e-08
1.3017e-08
1.2983e-08
1.29486e-08
1.29136e-08
1.28781e-08
1.28422e-08
1.28056e-08
1.27685e-08
1.27308e-08
1.26924e-08
1.26534e-08
1.26136e-08
1.25731e-08
1.25317e-08
1.24895e-08
1.24462e-08
1.24019e-08
1.23564e-08
1.23095e-08
1.22611e-08
1.2211e-08
1.21589e-08
1.21045e-08
1.20475e-08
1.19872e-08
1.19229e-08
1.18538e-08
1.17786e-08
1.16954e-08
1.16017e-08
1.14935e-08
1.13647e-08
1.12052e-08
1.09969e-08
1.07051e-08
1.0255e-08
9.45962e-09
7.77609e-09
4.02642e-09
5.37492e-10
3.98938e-12
4.55699e-17
1.20085e-27
2.90416e-39
2.45004e-39
2.8257e-39
2.90402e-39
2.82559e-39
)
;

boundaryField
{
    inlet
    {
        type            calculated;
        value           uniform -1.42126e-08;
    }
    outlet
    {
        type            calculated;
        value           uniform 4.14127e-41;
    }
    emptyWalls
    {
        type            empty;
        value           nonuniform List<scalar> 0();
    }
}


// ************************************************************************* //
