/*--------------------------------*- C++ -*----------------------------------*\
  =========                 |
  \\      /  F ield         | OpenFOAM: The Open Source CFD Toolbox
   \\    /   O peration     | Website:  https://openfoam.org
    \\  /    A nd           | Version:  9
     \\/     M anipulation  |
\*---------------------------------------------------------------------------*/
FoamFile
{
    format      ascii;
    class       surfaceScalarField;
    location    "2800";
    object      phib;
}
// * * * * * * * * * * * * * * * * * * * * * * * * * * * * * * * * * * * * * //

dimensions      [0 2 0 0 0 0 0];

internalField   nonuniform List<scalar> 
99
(
6.09079e-09
6.09036e-09
6.08989e-09
6.0894e-09
6.08888e-09
6.08834e-09
6.08778e-09
6.08721e-09
6.08661e-09
6.086e-09
6.08538e-09
6.08474e-09
6.08408e-09
6.0834e-09
6.08271e-09
6.08199e-09
6.08124e-09
6.08045e-09
6.07961e-09
6.0787e-09
6.07767e-09
6.0792e-09
6.07971e-09
6.08061e-09
6.08137e-09
6.08222e-09
6.08309e-09
6.08402e-09
6.08502e-09
6.08607e-09
6.08718e-09
6.08832e-09
6.08949e-09
6.09067e-09
6.09184e-09
6.09301e-09
6.09418e-09
6.09534e-09
6.09651e-09
6.09769e-09
6.09889e-09
6.10011e-09
6.10137e-09
6.10266e-09
6.10399e-09
6.10536e-09
6.10677e-09
6.10823e-09
6.10975e-09
6.11131e-09
6.11293e-09
6.1146e-09
6.11633e-09
6.11811e-09
6.11994e-09
6.12182e-09
6.12375e-09
6.12573e-09
6.12776e-09
6.12983e-09
6.13196e-09
6.13414e-09
6.13638e-09
6.13869e-09
6.14106e-09
6.14352e-09
6.14606e-09
6.1487e-09
6.15146e-09
6.15434e-09
6.15736e-09
6.16053e-09
6.1639e-09
6.16747e-09
6.17129e-09
6.1754e-09
6.17986e-09
6.18476e-09
6.19021e-09
6.19638e-09
6.20352e-09
6.21202e-09
6.22252e-09
6.23611e-09
6.25491e-09
6.28334e-09
6.33237e-09
6.43591e-09
6.73455e-09
7.74653e-09
8.97211e-09
9.1753e-09
9.17753e-09
9.17778e-09
9.17784e-09
9.1779e-09
9.17798e-09
9.17808e-09
9.17819e-09
)
;

boundaryField
{
    inlet
    {
        type            calculated;
        value           uniform -6.09112e-09;
    }
    outlet
    {
        type            calculated;
        value           uniform 9.17828e-09;
    }
    emptyWalls
    {
        type            empty;
        value           nonuniform List<scalar> 0();
    }
}


// ************************************************************************* //
