/*--------------------------------*- C++ -*----------------------------------*\
  =========                 |
  \\      /  F ield         | OpenFOAM: The Open Source CFD Toolbox
   \\    /   O peration     | Website:  https://openfoam.org
    \\  /    A nd           | Version:  9
     \\/     M anipulation  |
\*---------------------------------------------------------------------------*/
FoamFile
{
    format      ascii;
    class       surfaceScalarField;
    location    "2800";
    object      phic;
}
// * * * * * * * * * * * * * * * * * * * * * * * * * * * * * * * * * * * * * //

dimensions      [0 2 0 0 0 0 0];

internalField   nonuniform List<scalar> 
99
(
9.59529e-12
1.98949e-11
3.13351e-11
4.34201e-11
5.61372e-11
6.93773e-11
8.31011e-11
9.72705e-11
1.11864e-10
1.2687e-10
1.42284e-10
1.58114e-10
1.7438e-10
1.91115e-10
2.08375e-10
2.26244e-10
2.44855e-10
2.6441e-10
2.85234e-10
3.07867e-10
3.33252e-10
3.59982e-10
3.84413e-10
4.08826e-10
4.32818e-10
4.56833e-10
4.80876e-10
5.05063e-10
5.29425e-10
5.54006e-10
5.78828e-10
6.03909e-10
6.29264e-10
6.54903e-10
6.80836e-10
7.07069e-10
7.33609e-10
7.6046e-10
7.87629e-10
8.1512e-10
8.42937e-10
8.71086e-10
8.99572e-10
9.284e-10
9.57576e-10
9.87106e-10
1.017e-09
1.04726e-09
1.07789e-09
1.10891e-09
1.14033e-09
1.17215e-09
1.20439e-09
1.23707e-09
1.27019e-09
1.30377e-09
1.33783e-09
1.3724e-09
1.4075e-09
1.44315e-09
1.47938e-09
1.51623e-09
1.55375e-09
1.59197e-09
1.63095e-09
1.67075e-09
1.71145e-09
1.75314e-09
1.79592e-09
1.83991e-09
1.88528e-09
1.9322e-09
1.98092e-09
2.03172e-09
2.08498e-09
2.14119e-09
2.20097e-09
2.26517e-09
2.33496e-09
2.41196e-09
2.49853e-09
2.5982e-09
2.71648e-09
2.86243e-09
3.05196e-09
3.31532e-09
3.71641e-09
4.40821e-09
5.7931e-09
8.53078e-09
1.07941e-08
1.11245e-08
1.11262e-08
1.1126e-08
1.11259e-08
1.11258e-08
1.11258e-08
1.11257e-08
1.11256e-08
)
;

boundaryField
{
    inlet
    {
        type            calculated;
        value           uniform 0;
    }
    outlet
    {
        type            calculated;
        value           uniform 1.11255e-08;
    }
    emptyWalls
    {
        type            empty;
        value           nonuniform List<scalar> 0();
    }
}


// ************************************************************************* //
