/*--------------------------------*- C++ -*----------------------------------*\
  =========                 |
  \\      /  F ield         | OpenFOAM: The Open Source CFD Toolbox
   \\    /   O peration     | Website:  https://openfoam.org
    \\  /    A nd           | Version:  9
     \\/     M anipulation  |
\*---------------------------------------------------------------------------*/
FoamFile
{
    format      ascii;
    class       volVectorField;
    location    "2800";
    object      Ua;
}
// * * * * * * * * * * * * * * * * * * * * * * * * * * * * * * * * * * * * * //

dimensions      [0 0 0 0 0 0 0];

internalField   nonuniform List<vector> 
100
(
(0 0 8.92215e-06)
(0 0 1.12987e-05)
(0 0 1.12904e-05)
(0 0 1.12815e-05)
(0 0 1.1272e-05)
(0 0 1.12621e-05)
(0 0 1.12518e-05)
(0 0 1.12412e-05)
(0 0 1.12302e-05)
(0 0 1.12189e-05)
(0 0 1.12073e-05)
(0 0 1.11953e-05)
(0 0 1.11831e-05)
(0 0 1.11705e-05)
(0 0 1.11575e-05)
(0 0 1.11441e-05)
(0 0 1.11302e-05)
(0 0 1.11156e-05)
(0 0 1.11002e-05)
(0 0 1.10836e-05)
(0 0 1.10652e-05)
(0 0 1.10443e-05)
(0 0 1.10231e-05)
(0 0 1.10031e-05)
(0 0 1.09832e-05)
(0 0 1.09635e-05)
(0 0 1.09437e-05)
(0 0 1.09238e-05)
(0 0 1.09037e-05)
(0 0 1.08834e-05)
(0 0 1.08629e-05)
(0 0 1.08421e-05)
(0 0 1.08211e-05)
(0 0 1.07999e-05)
(0 0 1.07785e-05)
(0 0 1.07568e-05)
(0 0 1.07348e-05)
(0 0 1.07127e-05)
(0 0 1.06903e-05)
(0 0 1.06676e-05)
(0 0 1.06446e-05)
(0 0 1.06214e-05)
(0 0 1.05979e-05)
(0 0 1.0574e-05)
(0 0 1.05499e-05)
(0 0 1.05255e-05)
(0 0 1.05007e-05)
(0 0 1.04757e-05)
(0 0 1.04503e-05)
(0 0 1.04245e-05)
(0 0 1.03984e-05)
(0 0 1.03719e-05)
(0 0 1.03451e-05)
(0 0 1.03178e-05)
(0 0 1.02902e-05)
(0 0 1.02622e-05)
(0 0 1.02338e-05)
(0 0 1.02049e-05)
(0 0 1.01756e-05)
(0 0 1.01458e-05)
(0 0 1.01156e-05)
(0 0 1.00848e-05)
(0 0 1.00534e-05)
(0 0 1.00215e-05)
(0 0 9.98888e-06)
(0 0 9.95562e-06)
(0 0 9.92159e-06)
(0 0 9.88675e-06)
(0 0 9.85099e-06)
(0 0 9.81423e-06)
(0 0 9.77633e-06)
(0 0 9.73714e-06)
(0 0 9.69648e-06)
(0 0 9.65413e-06)
(0 0 9.60978e-06)
(0 0 9.56307e-06)
(0 0 9.51351e-06)
(0 0 9.46046e-06)
(0 0 9.40303e-06)
(0 0 9.33999e-06)
(0 0 9.26961e-06)
(0 0 9.18929e-06)
(0 0 9.09501e-06)
(0 0 8.98029e-06)
(0 0 8.83392e-06)
(0 0 8.63493e-06)
(0 0 8.33973e-06)
(0 0 7.84418e-06)
(0 0 6.85787e-06)
(0 0 4.69607e-06)
(0 0 1.81592e-06)
(0 0 2.15449e-07)
(0 0 1.58734e-09)
(0 0 1.81317e-14)
(0 0 4.77803e-25)
(0 0 2.13037e-36)
(0 0 2.09915e-36)
(0 0 2.27978e-36)
(0 0 2.27974e-36)
(0 0 1.14074e-36)
)
;

boundaryField
{
    inlet
    {
        type            fixedValue;
        value           uniform (0 0 1.131e-05);
    }
    outlet
    {
        type            zeroGradient;
    }
    emptyWalls
    {
        type            empty;
    }
}


// ************************************************************************* //
