/*--------------------------------*- C++ -*----------------------------------*\
  =========                 |
  \\      /  F ield         | OpenFOAM: The Open Source CFD Toolbox
   \\    /   O peration     | Website:  https://openfoam.org
    \\  /    A nd           | Version:  9
     \\/     M anipulation  |
\*---------------------------------------------------------------------------*/
FoamFile
{
    format      ascii;
    class       volVectorField;
    location    "2800";
    object      Ub;
}
// * * * * * * * * * * * * * * * * * * * * * * * * * * * * * * * * * * * * * //

dimensions      [0 0 0 0 0 0 0];

internalField   nonuniform List<vector> 
100
(
(0 0 7.22367e-06)
(0 0 4.84673e-06)
(0 0 4.84637e-06)
(0 0 4.84599e-06)
(0 0 4.84558e-06)
(0 0 4.84516e-06)
(0 0 4.84473e-06)
(0 0 4.84427e-06)
(0 0 4.84381e-06)
(0 0 4.84333e-06)
(0 0 4.84284e-06)
(0 0 4.84234e-06)
(0 0 4.84182e-06)
(0 0 4.84129e-06)
(0 0 4.84074e-06)
(0 0 4.84018e-06)
(0 0 4.83959e-06)
(0 0 4.83898e-06)
(0 0 4.83834e-06)
(0 0 4.83764e-06)
(0 0 4.83687e-06)
(0 0 4.83707e-06)
(0 0 4.83788e-06)
(0 0 4.83844e-06)
(0 0 4.8391e-06)
(0 0 4.83974e-06)
(0 0 4.84042e-06)
(0 0 4.84114e-06)
(0 0 4.84191e-06)
(0 0 4.84272e-06)
(0 0 4.84358e-06)
(0 0 4.84448e-06)
(0 0 4.8454e-06)
(0 0 4.84633e-06)
(0 0 4.84727e-06)
(0 0 4.8482e-06)
(0 0 4.84913e-06)
(0 0 4.85005e-06)
(0 0 4.85098e-06)
(0 0 4.85192e-06)
(0 0 4.85286e-06)
(0 0 4.85383e-06)
(0 0 4.85482e-06)
(0 0 4.85583e-06)
(0 0 4.85687e-06)
(0 0 4.85794e-06)
(0 0 4.85905e-06)
(0 0 4.8602e-06)
(0 0 4.86138e-06)
(0 0 4.8626e-06)
(0 0 4.86387e-06)
(0 0 4.86518e-06)
(0 0 4.86653e-06)
(0 0 4.86793e-06)
(0 0 4.86936e-06)
(0 0 4.87084e-06)
(0 0 4.87236e-06)
(0 0 4.87391e-06)
(0 0 4.87551e-06)
(0 0 4.87714e-06)
(0 0 4.87881e-06)
(0 0 4.88053e-06)
(0 0 4.88229e-06)
(0 0 4.8841e-06)
(0 0 4.88596e-06)
(0 0 4.88788e-06)
(0 0 4.88987e-06)
(0 0 4.89193e-06)
(0 0 4.89408e-06)
(0 0 4.89632e-06)
(0 0 4.89867e-06)
(0 0 4.90113e-06)
(0 0 4.90374e-06)
(0 0 4.90649e-06)
(0 0 4.90943e-06)
(0 0 4.91259e-06)
(0 0 4.916e-06)
(0 0 4.91972e-06)
(0 0 4.92384e-06)
(0 0 4.92847e-06)
(0 0 4.93376e-06)
(0 0 4.93999e-06)
(0 0 4.94755e-06)
(0 0 4.95713e-06)
(0 0 4.97002e-06)
(0 0 4.98881e-06)
(0 0 5.01963e-06)
(0 0 5.08034e-06)
(0 0 5.24036e-06)
(0 0 5.76184e-06)
(0 0 6.65214e-06)
(0 0 7.22062e-06)
(0 0 7.30236e-06)
(0 0 7.30335e-06)
(0 0 7.30347e-06)
(0 0 7.30352e-06)
(0 0 7.30357e-06)
(0 0 7.30365e-06)
(0 0 7.30373e-06)
(0 0 7.30381e-06)
)
;

boundaryField
{
    inlet
    {
        type            fixedValue;
        value           uniform (0 0 4.84716e-06);
    }
    outlet
    {
        type            zeroGradient;
    }
    emptyWalls
    {
        type            empty;
    }
}


// ************************************************************************* //
