/*--------------------------------*- C++ -*----------------------------------*\
  =========                 |
  \\      /  F ield         | OpenFOAM: The Open Source CFD Toolbox
   \\    /   O peration     | Website:  https://openfoam.org
    \\  /    A nd           | Version:  9
     \\/     M anipulation  |
\*---------------------------------------------------------------------------*/
FoamFile
{
    format      ascii;
    class       volVectorField;
    location    "2800";
    object      Uc;
}
// * * * * * * * * * * * * * * * * * * * * * * * * * * * * * * * * * * * * * //

dimensions      [0 0 0 0 0 0 0];

internalField   nonuniform List<vector> 
100
(
(0 0 1.138e-08)
(0 0 1.17338e-08)
(0 0 2.03838e-08)
(0 0 2.97442e-08)
(0 0 3.96126e-08)
(0 0 4.99407e-08)
(0 0 6.06692e-08)
(0 0 7.17676e-08)
(0 0 8.32121e-08)
(0 0 9.49892e-08)
(0 0 1.07093e-07)
(0 0 1.19525e-07)
(0 0 1.32295e-07)
(0 0 1.45426e-07)
(0 0 1.58952e-07)
(0 0 1.72929e-07)
(0 0 1.87445e-07)
(0 0 2.0263e-07)
(0 0 2.18697e-07)
(0 0 2.35987e-07)
(0 0 2.55093e-07)
(0 0 2.75829e-07)
(0 0 2.96185e-07)
(0 0 3.1562e-07)
(0 0 3.34879e-07)
(0 0 3.53981e-07)
(0 0 3.73103e-07)
(0 0 3.92293e-07)
(0 0 4.1161e-07)
(0 0 4.31084e-07)
(0 0 4.5074e-07)
(0 0 4.70596e-07)
(0 0 4.90664e-07)
(0 0 5.10954e-07)
(0 0 5.31474e-07)
(0 0 5.5223e-07)
(0 0 5.73227e-07)
(0 0 5.94471e-07)
(0 0 6.15965e-07)
(0 0 6.37714e-07)
(0 0 6.5972e-07)
(0 0 6.81988e-07)
(0 0 7.04522e-07)
(0 0 7.27327e-07)
(0 0 7.50406e-07)
(0 0 7.73764e-07)
(0 0 7.97407e-07)
(0 0 8.2134e-07)
(0 0 8.4557e-07)
(0 0 8.70102e-07)
(0 0 8.94946e-07)
(0 0 9.20108e-07)
(0 0 9.45598e-07)
(0 0 9.71426e-07)
(0 0 9.97604e-07)
(0 0 1.02414e-06)
(0 0 1.05106e-06)
(0 0 1.07837e-06)
(0 0 1.10609e-06)
(0 0 1.13423e-06)
(0 0 1.16284e-06)
(0 0 1.19192e-06)
(0 0 1.22151e-06)
(0 0 1.25164e-06)
(0 0 1.28236e-06)
(0 0 1.31371e-06)
(0 0 1.34574e-06)
(0 0 1.37852e-06)
(0 0 1.41213e-06)
(0 0 1.44665e-06)
(0 0 1.48221e-06)
(0 0 1.51893e-06)
(0 0 1.55698e-06)
(0 0 1.59658e-06)
(0 0 1.63798e-06)
(0 0 1.68154e-06)
(0 0 1.72769e-06)
(0 0 1.77702e-06)
(0 0 1.83033e-06)
(0 0 1.88874e-06)
(0 0 1.95382e-06)
(0 0 2.02793e-06)
(0 0 2.11465e-06)
(0 0 2.21978e-06)
(0 0 2.35326e-06)
(0 0 2.53346e-06)
(0 0 2.79784e-06)
(0 0 3.23268e-06)
(0 0 4.05897e-06)
(0 0 5.69929e-06)
(0 0 7.68914e-06)
(0 0 8.72113e-06)
(0 0 8.85325e-06)
(0 0 8.85385e-06)
(0 0 8.85373e-06)
(0 0 8.85368e-06)
(0 0 8.85363e-06)
(0 0 8.85355e-06)
(0 0 8.85347e-06)
(0 0 8.85339e-06)
)
;

boundaryField
{
    inlet
    {
        type            fixedValue;
        value           uniform (0 0 0);
    }
    outlet
    {
        type            zeroGradient;
    }
    emptyWalls
    {
        type            empty;
    }
}


// ************************************************************************* //
