/*--------------------------------*- C++ -*----------------------------------*\
  =========                 |
  \\      /  F ield         | OpenFOAM: The Open Source CFD Toolbox
   \\    /   O peration     | Website:  https://openfoam.org
    \\  /    A nd           | Version:  9
     \\/     M anipulation  |
\*---------------------------------------------------------------------------*/
FoamFile
{
    format      ascii;
    class       volScalarField;
    location    "16250";
    object      p;
}
// * * * * * * * * * * * * * * * * * * * * * * * * * * * * * * * * * * * * * //

dimensions      [0 0 0 0 0 0 0];

internalField   nonuniform List<scalar> 
1000
(
207158
206733
206311
205892
205476
205063
204653
204246
203842
203441
203043
202648
202255
201864
201476
201090
200706
200323
199941
199562
199186
198823
198503
198323
198221
198132
198046
197961
197877
197793
197709
197626
197543
197461
197378
197296
197214
197132
197050
196968
196886
196804
196723
196641
196559
196478
196396
196315
196233
196152
196070
195988
195907
195825
195743
195661
195579
195497
195415
195333
195251
195168
195085
195002
194919
194835
194751
194667
194582
194497
194412
194326
194239
194153
194066
193978
193890
193802
193714
193625
193535
193446
193356
193265
193174
193083
192991
192900
192807
192715
192621
192528
192434
192340
192246
192151
192056
191960
191864
191768
191671
191574
191477
191379
191281
191183
191084
190985
190885
190785
190685
190585
190484
190383
190281
190180
190078
189975
189872
189769
189666
189562
189458
189354
189249
189144
189039
188933
188827
188721
188614
188507
188400
188292
188185
188076
187968
187859
187749
187640
187530
187420
187309
187198
187087
186975
186863
186751
186639
186526
186413
186299
186185
186071
185957
185842
185727
185612
185496
185380
185264
185148
185031
184914
184796
184678
184560
184442
184323
184204
184085
183966
183846
183726
183605
183484
183363
183242
183120
182998
182876
182754
182631
182508
182384
182261
182137
182012
181888
181763
181638
181512
181387
181261
181134
181008
180881
180754
180626
180499
180371
180242
180114
179985
179856
179726
179596
179466
179336
179206
179075
178944
178812
178681
178549
178416
178284
178151
178018
177885
177751
177617
177483
177349
177214
177079
176944
176808
176673
176537
176400
176264
176127
175990
175852
175715
175577
175438
175300
175161
175022
174883
174743
174604
174463
174323
174183
174042
173901
173759
173618
173476
173334
173191
173048
172906
172762
172619
172475
172331
172187
172043
171898
171753
171608
171463
171317
171171
171025
170879
170732
170585
170438
170291
170143
169995
169847
169698
169549
169400
169251
169101
168951
168801
168651
168500
168349
168198
168046
167895
167743
167590
167438
167285
167132
166979
166825
166671
166517
166363
166208
166053
165898
165743
165587
165431
165275
165119
164962
164805
164648
164491
164333
164175
164017
163859
163700
163541
163382
163223
163063
162903
162743
162582
162422
162261
162100
161938
161777
161615
161452
161290
161127
160964
160801
160638
160474
160310
160146
159982
159817
159652
159487
159321
159156
158990
158824
158657
158491
158324
158157
157989
157822
157654
157486
157317
157149
156980
156811
156641
156472
156302
156132
155961
155791
155620
155449
155277
155106
154934
154762
154590
154417
154244
154071
153898
153725
153551
153377
153203
153028
152854
152679
152503
152328
152152
151976
151800
151624
151447
151270
151093
150916
150738
150560
150382
150204
150025
149847
149667
149488
149309
149129
148949
148769
148588
148408
148227
148046
147864
147683
147501
147319
147136
146954
146771
146588
146405
146221
146038
145854
145670
145485
145301
145116
144931
144746
144560
144374
144188
144002
143816
143629
143442
143255
143068
142880
142692
142504
142315
142127
141938
141748
141559
141369
141179
140989
140799
140608
140417
140226
140034
139842
139650
139458
139266
139073
138880
138687
138493
138299
138105
137911
137717
137522
137327
137132
136937
136741
136545
136349
136152
135956
135759
135562
135364
135167
134969
134771
134572
134374
134175
133976
133776
133577
133377
133177
132976
132776
132575
132374
132173
131971
131769
131567
131365
131162
130959
130756
130553
130349
130146
129942
129737
129533
129328
129123
128917
128712
128506
128300
128094
127887
127680
127473
127266
127058
126851
126643
126434
126226
126017
125808
125598
125389
125179
124969
124759
124548
124337
124126
123915
123703
123491
123279
123067
122854
122642
122428
122215
122001
121788
121573
121359
121144
120930
120714
120499
120283
120067
119851
119635
119418
119201
118984
118766
118549
118331
118112
117894
117675
117456
117237
117017
116798
116577
116357
116137
115916
115695
115473
115252
115030
114807
114585
114362
114139
113916
113693
113469
113245
113021
112796
112571
112346
112121
111895
111670
111443
111217
110990
110764
110536
110309
110081
109853
109625
109397
109168
108939
108710
108480
108250
108020
107790
107559
107328
107097
106866
106634
106402
106170
105937
105704
105471
105238
105004
104771
104537
104302
104068
103833
103598
103363
103127
102892
102656
102420
102184
101948
101712
101475
101239
101002
100765
100529
100292
100055
99818
99581.1
99344.1
99107
98870
98632.8
98395.6
98158.2
97920.5
97682.2
97443.1
97202.5
96959.4
96712.4
96460
96201.1
95935.6
95664.9
95390.8
95114.9
94838
94560.8
94283.3
94005.6
93728
93450.3
93172.6
92894.9
92617.2
92339.4
92061.7
91784
91506.2
91228.5
90950.8
90673
90395.3
90117.5
89839.8
89562
89284.3
89006.5
88728.7
88451
88173.2
87895.4
87617.7
87339.9
87062.1
86784.3
86506.5
86228.7
85950.9
85673.1
85395.3
85117.5
84839.7
84561.9
84284.1
84006.3
83728.5
83450.7
83172.9
82895
82617.2
82339.4
82061.6
81783.7
81505.9
81228.1
80950.2
80672.4
80394.6
80116.7
79838.9
79561.1
79283.2
79005.4
78727.5
78449.7
78171.8
77894
77616.2
77338.3
77060.5
76782.6
76504.8
76226.9
75949.1
75671.2
75393.4
75115.6
74837.7
74559.9
74282
74004.2
73726.3
73448.5
73170.7
72892.8
72615
72337.2
72059.3
71781.5
71503.7
71225.8
70948
70670.2
70392.3
70114.5
69836.7
69558.9
69281.1
69003.2
68725.4
68447.6
68169.8
67892
67614.2
67336.4
67058.6
66780.8
66503
66225.2
65947.4
65669.7
65391.9
65114.1
64836.3
64558.6
64280.8
64003.1
63725.3
63447.6
63169.8
62892.1
62614.4
62336.7
62059
61781.3
61503.6
61225.9
60948.2
60670.6
60392.9
60115.3
59837.7
59560
59282.4
59004.8
58727.3
58449.7
58172.2
57894.6
57617.1
57339.6
57062.1
56784.6
56507.1
56229.7
55952.2
55674.8
55397.4
55120
54842.6
54565.2
54287.8
54010.4
53733.1
53455.7
53178.4
52901.1
52623.7
52346.4
52069.1
51791.7
51514.4
51237.1
50959.7
50682.4
50405.1
50127.7
49850.4
49573
49295.7
49018.3
48740.9
48463.5
48186.1
47908.7
47631.3
47353.9
47076.4
46799
46521.5
46244
45966.5
45689
45411.5
45133.9
44856.4
44578.8
44301.3
44023.7
43746.1
43468.5
43190.9
42913.3
42635.7
42358
42080.4
41802.8
41525.1
41247.4
40969.8
40692.1
40414.4
40136.8
39859.1
39581.4
39303.7
39026
38748.3
38470.6
38192.9
37915.2
37637.5
37359.8
37082.1
36804.3
36526.6
36248.9
35971.2
35693.4
35415.7
35138
34860.2
34582.5
34304.8
34027
33749.3
33471.5
33193.8
32916
32638.3
32360.5
32082.7
31805
31527.2
31249.4
30971.7
30693.9
30416.1
30138.3
29860.5
29582.8
29305
29027.2
28749.4
28471.6
28193.8
27916
27638.2
27360.4
27082.6
26804.8
26527
26249.2
25971.3
25693.5
25415.7
25137.9
24860.1
24582.2
24304.4
24026.6
23748.8
23470.9
23193.1
22915.3
22637.5
22359.6
22081.8
21804
21526.1
21248.3
20970.5
20692.6
20414.8
20137
19859.1
19581.3
19303.4
19025.6
18747.8
18469.9
18192.1
17914.3
17636.4
17358.6
17080.8
16802.9
16525.1
16247.3
15969.4
15691.6
15413.8
15136
14858.1
14580.3
14302.5
14024.7
13746.8
13469
13191.2
12913.4
12635.6
12357.8
12080
11802.1
11524.3
11246.5
10968.7
10690.9
10413.1
10135.4
9857.56
9579.77
9301.99
9024.21
8746.43
8468.66
8190.89
7913.13
7635.37
7357.61
7079.86
6802.12
6524.38
6246.65
5968.93
5691.21
5413.49
5135.79
4858.09
4580.41
4302.73
4025.06
3747.39
3469.74
3192.1
2914.47
2636.84
2359.23
2081.63
1804.04
1526.47
1248.9
971.345
693.803
416.272
138.754
)
;

boundaryField
{
    inlet
    {
        type            darcyGradPressure;
        gradient        uniform 116344;
        Mf              Mf;
        phi             phi;
        value           uniform 207371;
    }
    outlet
    {
        type            fixedValue;
        value           uniform 0;
    }
    emptyWalls
    {
        type            empty;
    }
}


// ************************************************************************* //
