/*--------------------------------*- C++ -*----------------------------------*\
  =========                 |
  \\      /  F ield         | OpenFOAM: The Open Source CFD Toolbox
   \\    /   O peration     | Website:  https://openfoam.org
    \\  /    A nd           | Version:  9
     \\/     M anipulation  |
\*---------------------------------------------------------------------------*/
FoamFile
{
    format      ascii;
    class       volScalarField;
    location    "7350";
    object      krb;
}
// * * * * * * * * * * * * * * * * * * * * * * * * * * * * * * * * * * * * * //

dimensions      [0 0 0 0 0 0 0];

internalField   nonuniform List<scalar> 
1000
(
0.0983962
0.0998046
0.101598
0.103148
0.104674
0.105998
0.107323
0.109368
0.115486
0.14548
0.343269
0.474625
0.503058
0.514196
0.520258
0.524047
0.52656
0.528227
0.529308
0.529954
0.530292
0.530387
0.530294
0.529907
0.529124
0.5278
0.525653
0.522398
0.518068
0.513179
0.508064
0.502868
0.497671
0.492518
0.487433
0.482427
0.477508
0.472679
0.467942
0.463297
0.458745
0.454286
0.449919
0.445643
0.441458
0.437362
0.433352
0.429426
0.425583
0.421818
0.418129
0.414514
0.41097
0.407494
0.404084
0.400737
0.397451
0.394225
0.391055
0.38794
0.384879
0.38187
0.378911
0.376001
0.373138
0.370321
0.367548
0.364819
0.362132
0.359486
0.356879
0.354311
0.351781
0.349288
0.34683
0.344407
0.342018
0.339661
0.337337
0.335044
0.332781
0.330548
0.328344
0.326168
0.32402
0.321898
0.319803
0.317733
0.315689
0.313669
0.311672
0.309699
0.307748
0.30582
0.303914
0.302029
0.300165
0.298321
0.296497
0.294693
0.292908
0.291141
0.289393
0.287663
0.285951
0.284255
0.282577
0.280916
0.27927
0.277641
0.276027
0.274429
0.272846
0.271277
0.269723
0.268184
0.266658
0.265146
0.263648
0.262162
0.26069
0.25923
0.257783
0.256348
0.254926
0.253515
0.252116
0.250728
0.249352
0.247986
0.246631
0.245287
0.243954
0.24263
0.241317
0.240013
0.238719
0.237435
0.23616
0.234894
0.233638
0.23239
0.231151
0.22992
0.228698
0.227483
0.226277
0.225078
0.223887
0.222702
0.221525
0.220355
0.219192
0.218036
0.216887
0.215745
0.214609
0.213481
0.212359
0.211244
0.210137
0.209036
0.207943
0.206857
0.205779
0.204707
0.203644
0.202588
0.201539
0.200498
0.199464
0.198436
0.197416
0.196402
0.195394
0.194392
0.193395
0.192404
0.191417
0.190435
0.189457
0.188483
0.187513
0.186546
0.185583
0.184623
0.183667
0.182714
0.181764
0.180818
0.179875
0.178936
0.178
0.177068
0.176139
0.175214
0.174292
0.173374
0.172459
0.171548
0.17064
0.169735
0.168834
0.167936
0.167041
0.16615
0.165261
0.164376
0.163493
0.162613
0.161736
0.160862
0.15999
0.159121
0.158254
0.15739
0.156527
0.155668
0.15481
0.153954
0.1531
0.152249
0.151399
0.15055
0.149704
0.148859
0.148016
0.147174
0.146334
0.145495
0.144657
0.143821
0.142985
0.142151
0.141318
0.140486
0.139654
0.138824
0.137994
0.137165
0.136336
0.135508
0.13468
0.133853
0.133026
0.132199
0.131372
0.130545
0.129718
0.128891
0.128064
0.127236
0.126408
0.125579
0.12475
0.12392
0.12309
0.122259
0.121427
0.120595
0.119761
0.118927
0.118092
0.117257
0.116422
0.115587
0.114752
0.113918
0.113086
0.112257
0.111432
0.110613
0.109802
0.109002
0.108215
0.107444
0.106695
0.105972
0.105279
0.104621
0.104001
0.103423
0.102889
0.102395
0.101934
0.101491
0.101036
0.100512
0.0998267
0.0988162
0.0972152
0.094615
0.0904659
0.0842187
0.0757104
0.0656688
0.0557253
0.0475309
0.0417928
0.0382402
0.0362125
0.0351102
0.0345269
0.0342229
0.0340656
0.0339844
0.0339426
0.0339212
0.0339103
0.0339046
0.0339016
0.0339
0.0338991
0.0338986
0.0338983
0.0338981
0.033898
0.0338978
0.0338977
0.0338975
0.0338974
0.0338973
0.0338971
0.033897
0.0338968
0.0338966
0.0338964
0.0338961
0.0338959
0.0338956
0.0338953
0.0338951
0.0338947
0.0338944
0.0338941
0.0338937
0.0338933
0.0338929
0.0338925
0.0338921
0.0338916
0.0338912
0.0338908
0.0338903
0.0338899
0.0338895
0.0338891
0.0338887
0.0338883
0.033888
0.0338876
0.0338874
0.0338871
0.033887
0.0338868
0.0338868
0.0338868
0.0338868
0.0338868
0.0338868
0.033887
0.0338872
0.0338875
0.0338878
0.0338882
0.0338885
0.033889
0.0338894
0.0338898
0.0338903
0.0338907
0.0338912
0.0338916
0.033892
0.0338924
0.0338927
0.0338931
0.0338934
0.0338936
0.0338939
0.0338941
0.0338942
0.0338943
0.0338944
0.0338945
0.0338945
0.0338945
0.0338944
0.0338944
0.0338943
0.0338942
0.0338941
0.033894
0.0338939
0.0338938
0.0338936
0.0338935
0.0338934
0.0338933
0.0338931
0.033893
0.0338929
0.0338928
0.0338927
0.0338926
0.0338925
0.0338925
0.0338924
0.0338924
0.0338923
0.0338923
0.0338923
0.0338923
0.0338923
0.0338923
0.0338923
0.0338924
0.0338924
0.0338924
0.0338925
0.0338925
0.0338926
0.0338926
0.0338927
0.0338928
0.0338929
0.0338929
0.033893
0.0338931
0.0338931
0.0338932
0.0338933
0.0338934
0.0338935
0.0338936
0.0338936
0.0338937
0.0338938
0.0338939
0.033894
0.0338941
0.0338942
0.0338942
0.0338943
0.0338944
0.0338945
0.0338946
0.0338946
0.0338947
0.0338948
0.0338949
0.0338949
0.033895
0.0338951
0.0338952
0.0338952
0.0338953
0.0338954
0.0338954
0.0338955
0.0338956
0.0338956
0.0338957
0.0338958
0.0338958
0.0338959
0.0338959
0.033896
0.033896
0.0338961
0.0338961
0.0338961
0.0338962
0.0338962
0.0338962
0.0338963
0.0338963
0.0338963
0.0338963
0.0338963
0.0338963
0.0338963
0.0338963
0.0338963
0.0338963
0.0338962
0.0338962
0.0338962
0.0338962
0.0338961
0.0338961
0.033896
0.033896
0.0338959
0.0338959
0.0338958
0.0338958
0.0338957
0.0338957
0.0338956
0.0338955
0.0338955
0.0338954
0.0338953
0.0338953
0.0338952
0.0338951
0.0338951
0.033895
0.0338949
0.0338948
0.0338948
0.0338947
0.0338946
0.0338945
0.0338944
0.0338944
0.0338943
0.0338942
0.0338941
0.033894
0.0338939
0.0338938
0.0338937
0.0338936
0.0338934
0.0338933
0.0338931
0.033893
0.0338928
0.0338927
0.0338925
0.0338923
0.0338921
0.0338919
0.0338917
0.0338915
0.0338912
0.033891
0.0338907
0.0338905
0.0338902
0.03389
0.0338897
0.0338895
0.0338892
0.033889
0.0338887
0.0338885
0.0338882
0.0338879
0.0338877
0.0338874
0.0338871
0.0338869
0.0338867
0.0338864
0.0338862
0.033886
0.0338858
0.0338856
0.0338854
0.0338852
0.0338851
0.033885
0.0338849
0.0338849
0.0338849
0.0338849
0.0338849
0.033885
0.0338851
0.0338853
0.0338855
0.0338858
0.0338861
0.0338864
0.0338867
0.0338871
0.0338874
0.0338878
0.0338881
0.0338885
0.0338889
0.0338893
0.0338896
0.03389
0.0338903
0.0338906
0.0338909
0.0338912
0.0338915
0.0338917
0.0338919
0.0338921
0.0338923
0.0338924
0.0338925
0.0338926
0.0338927
0.0338928
0.0338928
0.0338928
0.0338929
0.0338929
0.0338929
0.0338929
0.0338929
0.0338929
0.0338928
0.0338928
0.0338928
0.0338928
0.0338928
0.0338928
0.0338928
0.0338928
0.0338928
0.0338927
0.0338927
0.0338928
0.0338928
0.0338928
0.0338928
0.0338929
0.0338929
0.033893
0.033893
0.0338931
0.0338931
0.0338932
0.0338933
0.0338933
0.0338934
0.0338935
0.0338936
0.0338937
0.0338938
0.0338939
0.0338939
0.033894
0.0338941
0.0338942
0.0338943
0.0338944
0.0338945
0.0338946
0.0338947
0.0338947
0.0338948
0.0338949
0.033895
0.0338951
0.0338952
0.0338952
0.0338953
0.0338954
0.0338954
0.0338955
0.0338956
0.0338956
0.0338957
0.0338958
0.0338958
0.0338959
0.0338959
0.033896
0.033896
0.0338961
0.0338961
0.0338962
0.0338962
0.0338963
0.0338963
0.0338963
0.0338964
0.0338964
0.0338964
0.0338965
0.0338965
0.0338965
0.0338965
0.0338966
0.0338966
0.0338966
0.0338966
0.0338966
0.0338966
0.0338967
0.0338967
0.0338967
0.0338967
0.0338967
0.0338967
0.0338967
0.0338967
0.0338967
0.0338967
0.0338966
0.0338966
0.0338966
0.0338966
0.0338966
0.0338965
0.0338965
0.0338965
0.0338964
0.0338964
0.0338964
0.0338963
0.0338963
0.0338962
0.0338962
0.0338961
0.0338961
0.033896
0.0338959
0.0338958
0.0338958
0.0338957
0.0338956
0.0338955
0.0338955
0.0338954
0.0338953
0.0338952
0.0338951
0.033895
0.0338949
0.0338948
0.0338947
0.0338945
0.0338944
0.0338943
0.0338942
0.033894
0.0338939
0.0338938
0.0338936
0.0338935
0.0338933
0.0338931
0.033893
0.0338928
0.0338926
0.0338924
0.0338922
0.033892
0.0338918
0.0338916
0.0338914
0.0338911
0.0338909
0.0338906
0.0338904
0.0338901
0.0338898
0.0338895
0.0338892
0.033889
0.0338887
0.0338884
0.0338881
0.0338878
0.0338875
0.0338872
0.0338869
0.0338866
0.0338864
0.0338861
0.0338859
0.0338857
0.0338855
0.0338853
0.0338852
0.033885
0.0338849
0.0338849
0.0338848
0.0338848
0.0338848
0.0338848
0.0338848
0.0338849
0.033885
0.0338852
0.0338854
0.0338856
0.0338858
0.033886
0.0338863
0.0338866
0.0338869
0.0338872
0.0338875
0.0338878
0.0338881
0.0338884
0.0338887
0.033889
0.0338893
0.0338896
0.0338898
0.0338901
0.0338903
0.0338905
0.0338907
0.0338909
0.0338911
0.0338913
0.0338914
0.0338915
0.0338917
0.0338917
0.0338918
0.0338919
0.033892
0.033892
0.0338921
0.0338921
0.0338922
0.0338922
0.0338922
0.0338922
0.0338923
0.0338923
0.0338923
0.0338923
0.0338924
0.0338924
0.0338924
0.0338924
0.0338925
0.0338925
0.0338925
0.0338926
0.0338926
0.0338927
0.0338927
0.0338928
0.0338928
0.0338929
0.033893
0.033893
0.0338931
0.0338932
0.0338932
0.0338933
0.0338934
0.0338935
0.0338936
0.0338937
0.0338937
0.0338938
0.0338939
0.033894
0.0338941
0.0338942
0.0338943
0.0338944
0.0338945
0.0338946
0.0338947
0.0338947
0.0338948
0.0338949
0.033895
0.0338951
0.0338951
0.0338952
0.0338953
0.0338954
0.0338955
0.0338955
0.0338956
0.0338957
0.0338957
0.0338958
0.0338959
0.0338959
0.033896
0.033896
0.0338961
0.0338961
0.0338961
0.0338962
0.0338962
0.0338963
0.0338963
0.0338964
0.0338964
0.0338964
0.0338964
0.0338964
0.0338964
0.0338965
0.0338965
0.0338965
0.0338965
0.0338965
0.0338965
0.0338965
0.0338965
0.0338965
0.0338966
0.0338966
0.0338966
0.0338966
0.0338966
0.0338965
0.0338965
0.0338965
0.0338965
0.0338965
0.0338965
0.0338965
0.0338964
0.0338964
0.0338964
0.0338964
0.0338963
0.0338963
0.0338962
0.0338962
0.0338961
0.0338961
0.0338961
0.033896
0.033896
0.0338959
0.0338958
0.0338957
0.0338957
0.0338956
0.0338955
0.0338954
0.0338953
0.0338952
0.0338951
0.033895
0.0338949
0.0338948
0.0338947
0.0338945
0.0338944
0.0338943
0.0338941
0.033894
0.0338938
0.0338937
0.0338935
0.0338933
0.0338931
0.033893
0.0338928
0.0338926
0.0338924
0.0338922
0.0338919
0.0338917
0.0338915
0.0338912
0.033891
0.0338907
0.0338905
0.0338902
0.03389
0.0338897
0.0338894
0.0338892
0.0338889
0.0338886
0.0338883
0.033888
0.0338877
0.0338875
0.0338872
0.0338869
0.0338867
0.0338865
0.0338862
0.033886
0.0338858
0.0338856
0.0338854
0.0338853
0.0338851
0.033885
0.0338849
0.0338848
0.0338848
0.0338848
0.0338848
0.0338848
0.0338848
0.0338849
0.0338849
0.0338851
0.0338852
0.0338854
)
;

boundaryField
{
    inlet
    {
        type            calculated;
        value           uniform 0.0976562;
    }
    outlet
    {
        type            calculated;
        value           uniform 0.0338854;
    }
    emptyWalls
    {
        type            empty;
    }
}


// ************************************************************************* //
