/*--------------------------------*- C++ -*----------------------------------*\
  =========                 |
  \\      /  F ield         | OpenFOAM: The Open Source CFD Toolbox
   \\    /   O peration     | Website:  https://openfoam.org
    \\  /    A nd           | Version:  9
     \\/     M anipulation  |
\*---------------------------------------------------------------------------*/
FoamFile
{
    format      ascii;
    class       surfaceScalarField;
    location    "7350";
    object      phib;
}
// * * * * * * * * * * * * * * * * * * * * * * * * * * * * * * * * * * * * * //

dimensions      [0 2 0 0 0 0 0];

internalField   nonuniform List<scalar> 
999
(
1.13634e-09
1.13628e-09
1.13637e-09
1.1364e-09
1.13648e-09
1.13657e-09
1.13674e-09
1.13721e-09
1.13885e-09
1.1489e-09
1.17273e-09
1.1767e-09
1.17789e-09
1.1784e-09
1.17865e-09
1.17877e-09
1.17881e-09
1.17871e-09
1.17839e-09
1.17786e-09
1.17724e-09
1.17675e-09
1.17637e-09
1.17597e-09
1.17558e-09
1.17514e-09
1.17461e-09
1.17396e-09
1.17324e-09
1.17254e-09
1.17188e-09
1.17125e-09
1.1706e-09
1.16991e-09
1.16915e-09
1.16828e-09
1.16731e-09
1.16622e-09
1.16502e-09
1.16373e-09
1.16236e-09
1.16093e-09
1.15946e-09
1.15797e-09
1.15646e-09
1.15496e-09
1.15346e-09
1.15198e-09
1.1505e-09
1.14905e-09
1.1476e-09
1.14616e-09
1.14473e-09
1.14331e-09
1.14188e-09
1.14045e-09
1.13902e-09
1.13759e-09
1.13615e-09
1.13471e-09
1.13326e-09
1.1318e-09
1.13034e-09
1.12887e-09
1.1274e-09
1.12592e-09
1.12444e-09
1.12295e-09
1.12146e-09
1.11996e-09
1.11846e-09
1.11695e-09
1.11544e-09
1.11393e-09
1.11241e-09
1.11088e-09
1.10935e-09
1.10782e-09
1.10628e-09
1.10474e-09
1.1032e-09
1.10165e-09
1.10009e-09
1.09853e-09
1.09696e-09
1.09539e-09
1.09382e-09
1.09223e-09
1.09065e-09
1.08905e-09
1.08745e-09
1.08585e-09
1.08424e-09
1.08262e-09
1.081e-09
1.07937e-09
1.07774e-09
1.0761e-09
1.07446e-09
1.07281e-09
1.07115e-09
1.06949e-09
1.06783e-09
1.06616e-09
1.06448e-09
1.0628e-09
1.06112e-09
1.05943e-09
1.05773e-09
1.05604e-09
1.05433e-09
1.05262e-09
1.05091e-09
1.0492e-09
1.04748e-09
1.04575e-09
1.04402e-09
1.04229e-09
1.04055e-09
1.0388e-09
1.03706e-09
1.03531e-09
1.03355e-09
1.03179e-09
1.03002e-09
1.02825e-09
1.02648e-09
1.0247e-09
1.02292e-09
1.02113e-09
1.01934e-09
1.01754e-09
1.01573e-09
1.01392e-09
1.0121e-09
1.01028e-09
1.00845e-09
1.00661e-09
1.00477e-09
1.00292e-09
1.00106e-09
9.99195e-10
9.97321e-10
9.95437e-10
9.93541e-10
9.91633e-10
9.8971e-10
9.87773e-10
9.8582e-10
9.8385e-10
9.81864e-10
9.79861e-10
9.77842e-10
9.75808e-10
9.7376e-10
9.71702e-10
9.69633e-10
9.67559e-10
9.6548e-10
9.63402e-10
9.61326e-10
9.59258e-10
9.57199e-10
9.55155e-10
9.53128e-10
9.51121e-10
9.49137e-10
9.47176e-10
9.45241e-10
9.4333e-10
9.41442e-10
9.39575e-10
9.37726e-10
9.35892e-10
9.34067e-10
9.32246e-10
9.30425e-10
9.28598e-10
9.26761e-10
9.2491e-10
9.2304e-10
9.2115e-10
9.19236e-10
9.17297e-10
9.15333e-10
9.13343e-10
9.11328e-10
9.09289e-10
9.07228e-10
9.05146e-10
9.03044e-10
9.00925e-10
8.98791e-10
8.96642e-10
8.94481e-10
8.9231e-10
8.90128e-10
8.87939e-10
8.85742e-10
8.83538e-10
8.81327e-10
8.7911e-10
8.76887e-10
8.74658e-10
8.72423e-10
8.70182e-10
8.67934e-10
8.65678e-10
8.63416e-10
8.61145e-10
8.58866e-10
8.56578e-10
8.54281e-10
8.51975e-10
8.49658e-10
8.4733e-10
8.44992e-10
8.42643e-10
8.40282e-10
8.37909e-10
8.35524e-10
8.33126e-10
8.30716e-10
8.28292e-10
8.25855e-10
8.23405e-10
8.20941e-10
8.18462e-10
8.15969e-10
8.13462e-10
8.10939e-10
8.08402e-10
8.05849e-10
8.03281e-10
8.00696e-10
7.98095e-10
7.95478e-10
7.92844e-10
7.90193e-10
7.87524e-10
7.84837e-10
7.82131e-10
7.79408e-10
7.76664e-10
7.73902e-10
7.71119e-10
7.68316e-10
7.65493e-10
7.62647e-10
7.59781e-10
7.56891e-10
7.5398e-10
7.51043e-10
7.48085e-10
7.45101e-10
7.42094e-10
7.39062e-10
7.36002e-10
7.32919e-10
7.29807e-10
7.26671e-10
7.23508e-10
7.20318e-10
7.17105e-10
7.13865e-10
7.10604e-10
7.0732e-10
7.04016e-10
7.00699e-10
6.97369e-10
6.94038e-10
6.90709e-10
6.87394e-10
6.84105e-10
6.80855e-10
6.77665e-10
6.74551e-10
6.71536e-10
6.68643e-10
6.6589e-10
6.63296e-10
6.60873e-10
6.58621e-10
6.56524e-10
6.54528e-10
6.52537e-10
6.50358e-10
6.47656e-10
6.43847e-10
6.3793e-10
6.28276e-10
6.12397e-10
5.87023e-10
5.49039e-10
4.97891e-10
4.38426e-10
3.80487e-10
3.33439e-10
3.00871e-10
2.80864e-10
2.695e-10
2.63337e-10
2.60079e-10
2.58381e-10
2.575e-10
2.57044e-10
2.56808e-10
2.56685e-10
2.56619e-10
2.56583e-10
2.56562e-10
2.56548e-10
2.56538e-10
2.56531e-10
2.56524e-10
2.56517e-10
2.5651e-10
2.56503e-10
2.56496e-10
2.56488e-10
2.5648e-10
2.56472e-10
2.56462e-10
2.56452e-10
2.56442e-10
2.5643e-10
2.56418e-10
2.56404e-10
2.5639e-10
2.56375e-10
2.56358e-10
2.56341e-10
2.56323e-10
2.56303e-10
2.56283e-10
2.56261e-10
2.56239e-10
2.56216e-10
2.56192e-10
2.56168e-10
2.56143e-10
2.56118e-10
2.56093e-10
2.56069e-10
2.56044e-10
2.56021e-10
2.55998e-10
2.55976e-10
2.55956e-10
2.55937e-10
2.5592e-10
2.55906e-10
2.55895e-10
2.55886e-10
2.5588e-10
2.55878e-10
2.55877e-10
2.55877e-10
2.55879e-10
2.55887e-10
2.559e-10
2.55915e-10
2.55934e-10
2.55954e-10
2.55977e-10
2.56002e-10
2.56028e-10
2.56056e-10
2.56084e-10
2.56113e-10
2.56141e-10
2.5617e-10
2.56198e-10
2.56225e-10
2.56251e-10
2.56276e-10
2.56299e-10
2.5632e-10
2.56339e-10
2.56357e-10
2.56373e-10
2.56386e-10
2.56398e-10
2.56408e-10
2.56416e-10
2.56422e-10
2.56427e-10
2.56431e-10
2.56433e-10
2.56434e-10
2.56435e-10
2.56435e-10
2.56434e-10
2.56433e-10
2.56432e-10
2.5643e-10
2.56428e-10
2.56426e-10
2.56424e-10
2.56423e-10
2.56421e-10
2.5642e-10
2.56419e-10
2.56418e-10
2.56418e-10
2.56417e-10
2.56418e-10
2.56419e-10
2.56421e-10
2.56423e-10
2.56425e-10
2.56428e-10
2.56431e-10
2.56434e-10
2.56438e-10
2.56441e-10
2.56445e-10
2.5645e-10
2.56454e-10
2.56459e-10
2.56464e-10
2.56468e-10
2.56473e-10
2.56479e-10
2.56484e-10
2.56489e-10
2.56494e-10
2.56499e-10
2.56504e-10
2.56509e-10
2.56514e-10
2.56519e-10
2.56524e-10
2.56529e-10
2.56534e-10
2.56539e-10
2.56543e-10
2.56547e-10
2.56552e-10
2.56556e-10
2.5656e-10
2.56564e-10
2.56568e-10
2.56572e-10
2.56575e-10
2.56579e-10
2.56582e-10
2.56586e-10
2.56589e-10
2.56592e-10
2.56595e-10
2.56598e-10
2.56601e-10
2.56603e-10
2.56606e-10
2.56608e-10
2.56611e-10
2.56613e-10
2.56615e-10
2.56617e-10
2.56619e-10
2.56621e-10
2.56623e-10
2.56625e-10
2.56627e-10
2.56628e-10
2.5663e-10
2.56631e-10
2.56632e-10
2.56633e-10
2.56634e-10
2.56635e-10
2.56636e-10
2.56636e-10
2.56636e-10
2.56637e-10
2.56637e-10
2.56637e-10
2.56637e-10
2.56636e-10
2.56635e-10
2.56634e-10
2.56633e-10
2.56632e-10
2.56631e-10
2.56629e-10
2.56628e-10
2.56626e-10
2.56624e-10
2.56621e-10
2.56619e-10
2.56616e-10
2.56614e-10
2.56611e-10
2.56608e-10
2.56605e-10
2.56601e-10
2.56598e-10
2.56595e-10
2.56591e-10
2.56588e-10
2.56584e-10
2.5658e-10
2.56577e-10
2.56573e-10
2.56569e-10
2.56565e-10
2.56561e-10
2.56557e-10
2.56553e-10
2.56549e-10
2.56545e-10
2.56541e-10
2.56537e-10
2.56532e-10
2.56528e-10
2.56524e-10
2.56519e-10
2.56514e-10
2.56509e-10
2.56504e-10
2.56499e-10
2.56493e-10
2.56488e-10
2.56482e-10
2.56475e-10
2.56468e-10
2.56461e-10
2.56454e-10
2.56446e-10
2.56437e-10
2.56428e-10
2.56419e-10
2.56409e-10
2.56398e-10
2.56386e-10
2.56374e-10
2.56361e-10
2.56348e-10
2.56334e-10
2.56319e-10
2.56304e-10
2.56288e-10
2.56271e-10
2.56254e-10
2.56236e-10
2.56218e-10
2.562e-10
2.56181e-10
2.56162e-10
2.56143e-10
2.56124e-10
2.56105e-10
2.56087e-10
2.56069e-10
2.56051e-10
2.56035e-10
2.56019e-10
2.56004e-10
2.55991e-10
2.55979e-10
2.55968e-10
2.55959e-10
2.55952e-10
2.55948e-10
2.55945e-10
2.55944e-10
2.55944e-10
2.55944e-10
2.55946e-10
2.55955e-10
2.55966e-10
2.55978e-10
2.55992e-10
2.56008e-10
2.56026e-10
2.56045e-10
2.56065e-10
2.56086e-10
2.56108e-10
2.56131e-10
2.56153e-10
2.56176e-10
2.56198e-10
2.5622e-10
2.56241e-10
2.56261e-10
2.56281e-10
2.56299e-10
2.56316e-10
2.56332e-10
2.56346e-10
2.56359e-10
2.56371e-10
2.56382e-10
2.56391e-10
2.56399e-10
2.56406e-10
2.56412e-10
2.56416e-10
2.5642e-10
2.56423e-10
2.56425e-10
2.56427e-10
2.56428e-10
2.56429e-10
2.56429e-10
2.56429e-10
2.56429e-10
2.56429e-10
2.56428e-10
2.56428e-10
2.56428e-10
2.56428e-10
2.56427e-10
2.56427e-10
2.56427e-10
2.56428e-10
2.56429e-10
2.5643e-10
2.56431e-10
2.56433e-10
2.56435e-10
2.56438e-10
2.5644e-10
2.56443e-10
2.56447e-10
2.5645e-10
2.56454e-10
2.56458e-10
2.56462e-10
2.56466e-10
2.56471e-10
2.56476e-10
2.5648e-10
2.56486e-10
2.56491e-10
2.56496e-10
2.56501e-10
2.56506e-10
2.56511e-10
2.56517e-10
2.56522e-10
2.56527e-10
2.56532e-10
2.56537e-10
2.56543e-10
2.56548e-10
2.56552e-10
2.56557e-10
2.56562e-10
2.56567e-10
2.56571e-10
2.56575e-10
2.5658e-10
2.56584e-10
2.56588e-10
2.56592e-10
2.56595e-10
2.56599e-10
2.56602e-10
2.56606e-10
2.56609e-10
2.56612e-10
2.56615e-10
2.56618e-10
2.5662e-10
2.56623e-10
2.56626e-10
2.56628e-10
2.5663e-10
2.56632e-10
2.56634e-10
2.56636e-10
2.56638e-10
2.5664e-10
2.56642e-10
2.56643e-10
2.56645e-10
2.56646e-10
2.56647e-10
2.56649e-10
2.5665e-10
2.56651e-10
2.56652e-10
2.56653e-10
2.56653e-10
2.56654e-10
2.56655e-10
2.56655e-10
2.56655e-10
2.56655e-10
2.56655e-10
2.56656e-10
2.56656e-10
2.56655e-10
2.56655e-10
2.56654e-10
2.56653e-10
2.56652e-10
2.56651e-10
2.5665e-10
2.56649e-10
2.56647e-10
2.56645e-10
2.56643e-10
2.56641e-10
2.56639e-10
2.56636e-10
2.56634e-10
2.56631e-10
2.56628e-10
2.56625e-10
2.56622e-10
2.56618e-10
2.56615e-10
2.56611e-10
2.56607e-10
2.56603e-10
2.56599e-10
2.56594e-10
2.5659e-10
2.56585e-10
2.5658e-10
2.56575e-10
2.5657e-10
2.56565e-10
2.56559e-10
2.56554e-10
2.56548e-10
2.56542e-10
2.56535e-10
2.56528e-10
2.56521e-10
2.56514e-10
2.56507e-10
2.56499e-10
2.56491e-10
2.56482e-10
2.56473e-10
2.56464e-10
2.56454e-10
2.56443e-10
2.56433e-10
2.56421e-10
2.5641e-10
2.56397e-10
2.56385e-10
2.56371e-10
2.56358e-10
2.56343e-10
2.56328e-10
2.56313e-10
2.56297e-10
2.56281e-10
2.56265e-10
2.56248e-10
2.56231e-10
2.56213e-10
2.56196e-10
2.56178e-10
2.5616e-10
2.56143e-10
2.56126e-10
2.56109e-10
2.56092e-10
2.56076e-10
2.56061e-10
2.56046e-10
2.56033e-10
2.5602e-10
2.56008e-10
2.55998e-10
2.55989e-10
2.55981e-10
2.55974e-10
2.5597e-10
2.55967e-10
2.55965e-10
2.55965e-10
2.55965e-10
2.55966e-10
2.5597e-10
2.55977e-10
2.55986e-10
2.55996e-10
2.56007e-10
2.5602e-10
2.56034e-10
2.56049e-10
2.56065e-10
2.56082e-10
2.56099e-10
2.56116e-10
2.56134e-10
2.56152e-10
2.5617e-10
2.56188e-10
2.56205e-10
2.56222e-10
2.56238e-10
2.56254e-10
2.56269e-10
2.56283e-10
2.56296e-10
2.56308e-10
2.56319e-10
2.5633e-10
2.56339e-10
2.56348e-10
2.56355e-10
2.56362e-10
2.56369e-10
2.56374e-10
2.56379e-10
2.56383e-10
2.56386e-10
2.56389e-10
2.56392e-10
2.56394e-10
2.56396e-10
2.56398e-10
2.564e-10
2.56401e-10
2.56402e-10
2.56403e-10
2.56405e-10
2.56406e-10
2.56407e-10
2.56409e-10
2.5641e-10
2.56412e-10
2.56413e-10
2.56415e-10
2.56418e-10
2.5642e-10
2.56423e-10
2.56425e-10
2.56428e-10
2.56431e-10
2.56435e-10
2.56438e-10
2.56442e-10
2.56446e-10
2.5645e-10
2.56454e-10
2.56458e-10
2.56463e-10
2.56468e-10
2.56472e-10
2.56477e-10
2.56482e-10
2.56487e-10
2.56492e-10
2.56497e-10
2.56502e-10
2.56508e-10
2.56513e-10
2.56518e-10
2.56523e-10
2.56528e-10
2.56534e-10
2.56539e-10
2.56544e-10
2.56549e-10
2.56553e-10
2.56558e-10
2.56563e-10
2.56568e-10
2.56572e-10
2.56577e-10
2.56581e-10
2.56585e-10
2.56589e-10
2.56593e-10
2.56597e-10
2.566e-10
2.56604e-10
2.56607e-10
2.5661e-10
2.56613e-10
2.56616e-10
2.56619e-10
2.56621e-10
2.56624e-10
2.56626e-10
2.56628e-10
2.5663e-10
2.56632e-10
2.56633e-10
2.56635e-10
2.56636e-10
2.56638e-10
2.56639e-10
2.5664e-10
2.56641e-10
2.56642e-10
2.56642e-10
2.56643e-10
2.56643e-10
2.56644e-10
2.56644e-10
2.56644e-10
2.56644e-10
2.56644e-10
2.56645e-10
2.56645e-10
2.56644e-10
2.56644e-10
2.56643e-10
2.56643e-10
2.56642e-10
2.56641e-10
2.5664e-10
2.56639e-10
2.56638e-10
2.56636e-10
2.56635e-10
2.56633e-10
2.56631e-10
2.56629e-10
2.56627e-10
2.56625e-10
2.56622e-10
2.56619e-10
2.56617e-10
2.56614e-10
2.5661e-10
2.56607e-10
2.56603e-10
2.56599e-10
2.56595e-10
2.56591e-10
2.56586e-10
2.56581e-10
2.56576e-10
2.56571e-10
2.56565e-10
2.56559e-10
2.56553e-10
2.56546e-10
2.56539e-10
2.56532e-10
2.56525e-10
2.56517e-10
2.56509e-10
2.56501e-10
2.56492e-10
2.56483e-10
2.56473e-10
2.56463e-10
2.56453e-10
2.56443e-10
2.56432e-10
2.5642e-10
2.56408e-10
2.56396e-10
2.56383e-10
2.5637e-10
2.56357e-10
2.56343e-10
2.56329e-10
2.56314e-10
2.56299e-10
2.56284e-10
2.56268e-10
2.56253e-10
2.56237e-10
2.56221e-10
2.56205e-10
2.56188e-10
2.56172e-10
2.56156e-10
2.5614e-10
2.56124e-10
2.56108e-10
2.56093e-10
2.56078e-10
2.56064e-10
2.5605e-10
2.56038e-10
2.56025e-10
2.56014e-10
2.56004e-10
2.55994e-10
2.55986e-10
2.55979e-10
2.55973e-10
2.55969e-10
2.55966e-10
2.55965e-10
2.55965e-10
2.55965e-10
2.55966e-10
2.55968e-10
2.55973e-10
2.55979e-10
2.55987e-10
2.55997e-10
)
;

boundaryField
{
    inlet
    {
        type            calculated;
        value           uniform -1.13622e-09;
    }
    outlet
    {
        type            calculated;
        value           uniform 2.56008e-10;
    }
    emptyWalls
    {
        type            empty;
        value           nonuniform List<scalar> 0();
    }
}


// ************************************************************************* //
