/*--------------------------------*- C++ -*----------------------------------*\
  =========                 |
  \\      /  F ield         | OpenFOAM: The Open Source CFD Toolbox
   \\    /   O peration     | Website:  https://openfoam.org
    \\  /    A nd           | Version:  9
     \\/     M anipulation  |
\*---------------------------------------------------------------------------*/
FoamFile
{
    format      ascii;
    class       volScalarField;
    location    "19000";
    object      p;
}
// * * * * * * * * * * * * * * * * * * * * * * * * * * * * * * * * * * * * * //

dimensions      [0 0 0 0 0 0 0];

internalField   nonuniform List<scalar> 
100
(
2.15373e+06
2.13209e+06
2.11044e+06
2.0888e+06
2.06715e+06
2.04551e+06
2.02386e+06
2.00221e+06
1.98057e+06
1.95892e+06
1.93728e+06
1.91563e+06
1.89398e+06
1.87234e+06
1.85069e+06
1.82905e+06
1.8074e+06
1.78576e+06
1.76411e+06
1.74246e+06
1.72082e+06
1.69917e+06
1.67753e+06
1.65588e+06
1.63423e+06
1.61259e+06
1.59094e+06
1.5693e+06
1.54765e+06
1.52601e+06
1.50436e+06
1.48271e+06
1.46107e+06
1.43942e+06
1.41778e+06
1.39613e+06
1.37448e+06
1.35284e+06
1.33119e+06
1.30955e+06
1.2879e+06
1.26626e+06
1.24461e+06
1.22296e+06
1.20132e+06
1.17967e+06
1.15803e+06
1.13638e+06
1.11473e+06
1.09309e+06
1.07144e+06
1.0498e+06
1.02815e+06
1.00651e+06
984860
963214
941568
919922
898276
876630
854985
833339
811693
790047
768401
746755
725110
703464
681818
660172
638526
616880
595235
573589
551943
530297
508651
487005
465360
443714
422068
400422
378776
357130
335485
313839
292193
270547
248901
227255
205610
183964
162318
140672
119026
97380.4
75734.6
54088.7
32442.9
10797.1
)
;

boundaryField
{
    inlet
    {
        type            darcyGradPressure;
        gradient        uniform 8.7587e+06;
        Mf              Mf;
        phi             phi;
        value           uniform 2.16455e+06;
    }
    outlet
    {
        type            fixedValue;
        value           uniform 0;
    }
    emptyWalls
    {
        type            empty;
    }
}


// ************************************************************************* //
