/*--------------------------------*- C++ -*----------------------------------*\
  =========                 |
  \\      /  F ield         | OpenFOAM: The Open Source CFD Toolbox
   \\    /   O peration     | Website:  https://openfoam.org
    \\  /    A nd           | Version:  9
     \\/     M anipulation  |
\*---------------------------------------------------------------------------*/
FoamFile
{
    format      ascii;
    class       volScalarField;
    location    "23450";
    object      krc;
}
// * * * * * * * * * * * * * * * * * * * * * * * * * * * * * * * * * * * * * //

dimensions      [0 0 0 0 0 0 0];

internalField   nonuniform List<scalar> 
1000
(
8.2107e-08
7.51849e-07
2.67003e-06
5.75956e-06
1.00028e-05
1.54047e-05
2.19841e-05
2.97604e-05
3.87568e-05
4.89917e-05
6.04759e-05
7.32061e-05
8.71623e-05
0.000102298
0.000118534
0.000135749
0.000153775
0.000172392
0.000191327
0.000210269
0.000228885
0.000246846
0.000263863
0.000279699
0.000294214
0.000307337
0.000319125
0.000329825
0.000340504
0.00035596
0.000398754
0.000569847
0.00165708
0.0152147
0.0374335
0.0433965
0.0455949
0.0467863
0.0475941
0.048221
0.048745
0.0492052
0.0496196
0.0500013
0.0503559
0.0506898
0.0510048
0.0513047
0.0515903
0.0518641
0.0521263
0.052379
0.0526222
0.0528576
0.0530853
0.0533067
0.0535217
0.0537315
0.0539362
0.0541367
0.0543333
0.0545269
0.0547176
0.0549062
0.0550928
0.055278
0.055462
0.0556458
0.0558298
0.0560166
0.0562047
0.0563934
0.0565835
0.0567745
0.0569669
0.0571612
0.0573577
0.0575569
0.0577593
0.0579658
0.0581772
0.0583946
0.0586195
0.0588539
0.0591005
0.0593629
0.059646
0.059956
0.0603
0.0606855
0.0611183
0.0616007
0.0621295
0.0626965
0.0632918
0.0639075
0.064538
0.0651791
0.0658281
0.0664828
0.0671417
0.0678037
0.0684678
0.0691334
0.0698
0.0704671
0.0711344
0.0718017
0.0724687
0.0731353
0.0738012
0.0744665
0.0751309
0.0757944
0.076457
0.0771185
0.077779
0.0784382
0.0790964
0.0797533
0.080409
0.0810634
0.0817166
0.0823685
0.0830191
0.0836683
0.0843163
0.0849629
0.0856082
0.0862521
0.0868946
0.0875358
0.0881757
0.0888141
0.0894513
0.090087
0.0907214
0.0913544
0.091986
0.0926163
0.0932452
0.0938728
0.094499
0.0951239
0.0957474
0.0963696
0.0969904
0.0976099
0.098228
0.0988448
0.0994603
0.100074
0.100687
0.101299
0.101909
0.102518
0.103126
0.103732
0.104337
0.104941
0.105544
0.106145
0.106745
0.107344
0.107941
0.108537
0.109132
0.109726
0.110318
0.110909
0.111499
0.112087
0.112675
0.113261
0.113845
0.114429
0.115011
0.115593
0.116173
0.116752
0.117329
0.117906
0.118482
0.119056
0.11963
0.120202
0.120773
0.121344
0.121913
0.122481
0.123048
0.123615
0.12418
0.124744
0.125307
0.125869
0.12643
0.126989
0.127548
0.128106
0.128662
0.129218
0.129772
0.130325
0.130877
0.131429
0.131979
0.132528
0.133076
0.133623
0.134169
0.134714
0.135258
0.135801
0.136343
0.136884
0.137425
0.137964
0.138502
0.139039
0.139576
0.140111
0.140646
0.14118
0.141712
0.142244
0.142775
0.143305
0.143834
0.144362
0.14489
0.145416
0.145942
0.146466
0.14699
0.147513
0.148035
0.148556
0.149077
0.149596
0.150115
0.150633
0.15115
0.151666
0.152181
0.152696
0.153209
0.153722
0.154234
0.154745
0.155256
0.155765
0.156274
0.156782
0.157289
0.157796
0.158301
0.158806
0.15931
0.159814
0.160316
0.160818
0.161319
0.161819
0.162319
0.162818
0.163316
0.163813
0.16431
0.164806
0.165301
0.165795
0.166289
0.166782
0.167274
0.167766
0.168257
0.168747
0.169236
0.169725
0.170213
0.170701
0.171187
0.171674
0.172159
0.172644
0.173128
0.173611
0.174094
0.174576
0.175058
0.175538
0.176018
0.176498
0.176977
0.177455
0.177933
0.178409
0.178886
0.179361
0.179836
0.18031
0.180784
0.181256
0.181729
0.1822
0.182671
0.183141
0.183611
0.18408
0.184548
0.185016
0.185484
0.18595
0.186417
0.186882
0.187347
0.187812
0.188276
0.18874
0.189203
0.189666
0.190129
0.190591
0.191052
0.191514
0.191974
0.192435
0.192894
0.193354
0.193813
0.194271
0.194729
0.195186
0.195643
0.196099
0.196555
0.197011
0.197465
0.197919
0.198373
0.198826
0.199279
0.199731
0.200182
0.200633
0.201084
0.201534
0.201983
0.202432
0.202881
0.203329
0.203776
0.204224
0.20467
0.205116
0.205562
0.206008
0.206452
0.206897
0.207341
0.207784
0.208228
0.20867
0.209113
0.209554
0.209996
0.210437
0.210878
0.211318
0.211758
0.212197
0.212636
0.213074
0.213513
0.21395
0.214388
0.214825
0.215261
0.215697
0.216133
0.216569
0.217004
0.217438
0.217872
0.218306
0.21874
0.219173
0.219605
0.220038
0.22047
0.220901
0.221332
0.221763
0.222194
0.222624
0.223053
0.223483
0.223912
0.22434
0.224769
0.225197
0.225624
0.226051
0.226478
0.226905
0.227331
0.227757
0.228183
0.228608
0.229033
0.229457
0.229881
0.230305
0.230729
0.231152
0.231575
0.231998
0.23242
0.232842
0.233264
0.233685
0.234106
0.234527
0.234948
0.235368
0.235788
0.236207
0.236626
0.237045
0.237464
0.237883
0.238301
0.238719
0.239136
0.239554
0.23997
0.240387
0.240804
0.24122
0.241636
0.242051
0.242466
0.242881
0.243296
0.24371
0.244124
0.244538
0.244951
0.245364
0.245777
0.24619
0.246602
0.247014
0.247425
0.247837
0.248248
0.248659
0.249069
0.249479
0.249889
0.250299
0.250709
0.251118
0.251528
0.251937
0.252346
0.252755
0.253163
0.253572
0.253981
0.254389
0.254797
0.255206
0.255614
0.256022
0.25643
0.256838
0.257246
0.257653
0.258061
0.258468
0.258876
0.259283
0.25969
0.260097
0.260504
0.26091
0.261317
0.261723
0.262129
0.262535
0.26294
0.263345
0.263751
0.264156
0.26456
0.264965
0.265369
0.265773
0.266177
0.266581
0.266984
0.267388
0.267791
0.268194
0.268597
0.269
0.269402
0.269805
0.270207
0.270609
0.271011
0.271413
0.271815
0.272216
0.272618
0.273019
0.273421
0.273822
0.274223
0.274624
0.275025
0.275426
0.275826
0.276227
0.276627
0.277027
0.277428
0.277828
0.278228
0.278628
0.279028
0.279427
0.279827
0.280227
0.280626
0.281025
0.281425
0.281824
0.282223
0.282622
0.283021
0.28342
0.283818
0.284217
0.284616
0.285014
0.285413
0.285811
0.286209
0.286608
0.287006
0.287404
0.287802
0.2882
0.288598
0.288996
0.289394
0.289792
0.290189
0.290587
0.290984
0.291382
0.29178
0.292177
0.292574
0.292972
0.293369
0.293767
0.294164
0.294561
0.294958
0.295355
0.295753
0.29615
0.296547
0.296944
0.297341
0.297738
0.298135
0.298532
0.298929
0.299326
0.299723
0.30012
0.300517
0.300914
0.301311
0.301708
0.302105
0.302502
0.302899
0.303296
0.303693
0.30409
0.304488
0.304885
0.305282
0.305679
0.306076
0.306473
0.30687
0.307267
0.307664
0.308061
0.308458
0.308854
0.309251
0.309648
0.310045
0.310442
0.310839
0.311236
0.311633
0.31203
0.312427
0.312824
0.313221
0.313618
0.314015
0.314412
0.314809
0.315207
0.315604
0.316002
0.316399
0.316797
0.317195
0.317593
0.317991
0.31839
0.318789
0.319188
0.319587
0.319986
0.320386
0.320785
0.321185
0.321586
0.321986
0.322387
0.322788
0.323189
0.323591
0.323992
0.324394
0.324796
0.325199
0.325601
0.326004
0.326407
0.32681
0.327213
0.327616
0.32802
0.328423
0.328827
0.329231
0.329635
0.330039
0.330443
0.330847
0.331252
0.331657
0.332061
0.332466
0.332871
0.333277
0.333682
0.334087
0.334493
0.334899
0.335305
0.335711
0.336118
0.336525
0.336931
0.337338
0.337746
0.338153
0.338561
0.338969
0.339377
0.339785
0.340194
0.340603
0.341012
0.341422
0.341831
0.342241
0.342651
0.343062
0.343473
0.343884
0.344295
0.344706
0.345118
0.34553
0.345943
0.346355
0.346768
0.347182
0.347595
0.348009
0.348423
0.348838
0.349253
0.349668
0.350083
0.350499
0.350915
0.351331
0.351748
0.352165
0.352582
0.353
0.353418
0.353837
0.354256
0.354675
0.355094
0.355514
0.355934
0.356355
0.356776
0.357197
0.357619
0.358041
0.358463
0.358886
0.359309
0.359733
0.360157
0.360581
0.361006
0.361432
0.361857
0.362284
0.36271
0.363137
0.363565
0.363993
0.364421
0.36485
0.365279
0.365709
0.366139
0.36657
0.367001
0.367433
0.367865
0.368297
0.368731
0.369164
0.369598
0.370033
0.370468
0.370904
0.37134
0.371777
0.372215
0.372653
0.373091
0.37353
0.37397
0.37441
0.374851
0.375292
0.375734
0.376176
0.376619
0.377063
0.377507
0.377952
0.378397
0.378843
0.37929
0.379737
0.380185
0.380633
0.381082
0.381532
0.381982
0.382433
0.382884
0.383337
0.383789
0.384243
0.384697
0.385152
0.385608
0.386064
0.386522
0.386979
0.387438
0.387898
0.388358
0.388819
0.389281
0.389744
0.390207
0.390672
0.391138
0.391604
0.392071
0.39254
0.393009
0.393479
0.393951
0.394423
0.394897
0.395371
0.395847
0.396324
0.396801
0.39728
0.39776
0.398242
0.398724
0.399208
0.399692
0.400178
0.400665
0.401153
0.401643
0.402133
0.402625
0.403118
0.403612
0.404107
0.404603
0.405101
0.405599
0.406099
0.4066
0.407103
0.407606
0.408111
0.408617
0.409124
0.409632
0.410142
0.410652
0.411164
0.411677
0.412192
0.412708
0.413225
0.413743
0.414263
0.414783
0.415306
0.415829
0.416354
0.41688
0.417408
0.417936
0.418466
0.418998
0.41953
0.420064
0.4206
0.421136
0.421674
0.422213
0.422752
0.423293
0.423836
0.424379
0.424923
0.425468
0.426013
0.426559
0.427106
0.427653
0.4282
0.428747
0.429294
0.42984
0.430385
0.430929
0.431472
0.432013
0.432551
0.433086
0.433617
0.434143
0.434665
0.43518
0.435689
0.43619
0.436682
0.437164
0.437634
0.438092
0.438537
0.438967
0.439381
0.439777
0.440156
0.440515
0.440854
0.441174
0.441472
0.441748
0.442003
0.442237
0.44245
0.442644
0.442817
0.442972
0.443109
0.443229
0.443335
0.443426
0.443505
0.443572
0.44363
0.443677
0.443717
0.443751
0.443779
0.443802
0.443822
0.443839
0.443854
0.44387
0.443891
0.44392
0.443966
0.444045
0.444183
0.444428
0.444868
0.445654
0.447055
0.449528
0.453838
0.461157
0.473071
0.491169
0.515941
0.545338
0.574673
0.599083
0.616344
0.627117
0.633301
0.636675
0.638464
0.639398
0.639882
0.640131
0.640259
0.640324
0.640357
0.640374
0.640382
0.640385
0.640386
0.640386
0.640386
0.640385
0.640383
0.640382
0.64038
0.640379
0.640377
0.640375
0.640373
0.640371
0.640369
0.640367
0.640365
0.640363
0.64036
0.640358
0.640356
0.640353
0.64035
0.640348
0.640345
0.640342
0.640339
0.640337
0.640334
0.640331
0.640328
0.640325
0.640323
0.64032
0.640318
0.640314
0.640313
0.64031
0.640308
0.640305
0.640304
0.640301
)
;

boundaryField
{
    inlet
    {
        type            calculated;
        value           uniform 3.08149e-33;
    }
    outlet
    {
        type            calculated;
        value           uniform 0.640301;
    }
    emptyWalls
    {
        type            empty;
    }
}


// ************************************************************************* //
