/*--------------------------------*- C++ -*----------------------------------*\
  =========                 |
  \\      /  F ield         | OpenFOAM: The Open Source CFD Toolbox
   \\    /   O peration     | Website:  https://openfoam.org
    \\  /    A nd           | Version:  9
     \\/     M anipulation  |
\*---------------------------------------------------------------------------*/
FoamFile
{
    format      ascii;
    class       volScalarField;
    location    "50000";
    object      krc;
}
// * * * * * * * * * * * * * * * * * * * * * * * * * * * * * * * * * * * * * //

dimensions      [0 0 0 0 0 0 0];

internalField   nonuniform List<scalar> 
100
(
2.30292e-23
4.0866e-24
2.90489e-24
4.37626e-24
4.99146e-25
3.96531e-24
7.40104e-25
1.35706e-25
3.11183e-24
1.60217e-24
3.37936e-24
9.51139e-26
4.71691e-25
2.01159e-24
3.75982e-24
9.46779e-25
1.81256e-24
6.56987e-28
8.00564e-24
1.3745e-23
9.68578e-24
2.54851e-23
2.4715e-23
1.34912e-23
7.07678e-23
4.53828e-23
1.45018e-22
1.10866e-22
2.61701e-22
2.43765e-22
4.9209e-22
5.16772e-22
6.03231e-22
7.86995e-22
1.13547e-21
1.17832e-21
1.45681e-21
1.63627e-21
1.90344e-21
2.01614e-21
1.99468e-21
1.75112e-21
1.59415e-21
1.8169e-21
1.2172e-21
7.07526e-22
3.14584e-22
1.50743e-24
1.07981e-22
3.51966e-22
1.21352e-21
2.88387e-21
5.12679e-21
7.49657e-21
1.15989e-20
1.76977e-20
2.30754e-20
3.03585e-20
3.96259e-20
4.7843e-20
5.62185e-20
6.40371e-20
7.08689e-20
7.75024e-20
8.1945e-20
8.47003e-20
8.9658e-20
8.86906e-20
9.10257e-20
8.85304e-20
8.75506e-20
8.37856e-20
7.91321e-20
7.38802e-20
6.89433e-20
6.26825e-20
5.75575e-20
5.13391e-20
4.64896e-20
3.99703e-20
3.52711e-20
2.90388e-20
2.53948e-20
2.16144e-20
1.78714e-20
1.46506e-20
1.20173e-20
9.84244e-21
7.61989e-21
6.1332e-21
4.39857e-21
3.37877e-21
2.77283e-21
1.04459e-21
4.67491e-21
3.13573e-20
4.07257e-19
8.38054e-18
1.06468e-16
5.59639e-16
)
;

boundaryField
{
    inlet
    {
        type            calculated;
        value           uniform 2.30292e-23;
    }
    outlet
    {
        type            calculated;
        value           uniform 5.59639e-16;
    }
    emptyWalls
    {
        type            empty;
    }
}


// ************************************************************************* //
