/*--------------------------------*- C++ -*----------------------------------*\
  =========                 |
  \\      /  F ield         | OpenFOAM: The Open Source CFD Toolbox
   \\    /   O peration     | Website:  https://openfoam.org
    \\  /    A nd           | Version:  9
     \\/     M anipulation  |
\*---------------------------------------------------------------------------*/
FoamFile
{
    format      ascii;
    class       volScalarField;
    location    "23700";
    object      krb;
}
// * * * * * * * * * * * * * * * * * * * * * * * * * * * * * * * * * * * * * //

dimensions      [0 0 0 0 0 0 0];

internalField   nonuniform List<scalar> 
1000
(
0.0978487
0.0981721
0.0986547
0.0991235
0.0995976
0.100081
0.100566
0.101056
0.101559
0.102065
0.102579
0.103107
0.103623
0.104171
0.104676
0.105242
0.105724
0.106293
0.106749
0.107281
0.107712
0.108167
0.108558
0.10893
0.109256
0.109553
0.109811
0.110042
0.110255
0.110513
0.111067
0.112989
0.120962
0.177797
0.40756
0.476024
0.494612
0.502704
0.507462
0.510797
0.513374
0.515492
0.517288
0.518853
0.520228
0.521454
0.522549
0.523534
0.524421
0.525221
0.525941
0.526593
0.527179
0.527707
0.528182
0.528607
0.528987
0.529326
0.529624
0.529889
0.530117
0.530317
0.530484
0.530625
0.530736
0.530823
0.530881
0.530917
0.530926
0.530912
0.530874
0.530811
0.530724
0.530613
0.530477
0.530315
0.530127
0.529912
0.529668
0.529395
0.529092
0.528756
0.528386
0.527977
0.527527
0.527027
0.526467
0.525833
0.525106
0.524262
0.523279
0.522137
0.520829
0.519369
0.517795
0.516146
0.514445
0.512712
0.51096
0.509199
0.507436
0.505676
0.503922
0.502177
0.500441
0.498718
0.497009
0.495317
0.493642
0.491987
0.49035
0.488732
0.48713
0.485544
0.483972
0.482412
0.480863
0.479324
0.477793
0.47627
0.474756
0.473248
0.471748
0.470257
0.468773
0.467298
0.465832
0.464375
0.462928
0.461492
0.460066
0.45865
0.457245
0.45585
0.454466
0.453093
0.45173
0.450377
0.449034
0.447701
0.446378
0.445064
0.443759
0.442463
0.441177
0.439899
0.43863
0.437369
0.436117
0.434873
0.433638
0.43241
0.431191
0.429979
0.428775
0.427579
0.426391
0.42521
0.424036
0.42287
0.421711
0.420559
0.419414
0.418277
0.417146
0.416022
0.414905
0.413795
0.412691
0.411594
0.410503
0.409419
0.408341
0.407269
0.406204
0.405145
0.404091
0.403044
0.402003
0.400967
0.399937
0.398913
0.397895
0.396883
0.395876
0.394875
0.393879
0.392889
0.391904
0.390925
0.389951
0.388982
0.388018
0.38706
0.386106
0.385158
0.384214
0.383275
0.382342
0.381413
0.380489
0.37957
0.378656
0.377747
0.376842
0.375943
0.375047
0.374156
0.37327
0.372386
0.371507
0.370631
0.369758
0.368888
0.368021
0.367157
0.366296
0.365437
0.364582
0.36373
0.362881
0.362035
0.361194
0.360356
0.359522
0.358693
0.357869
0.35705
0.356236
0.355428
0.354625
0.353829
0.353038
0.352254
0.351476
0.350704
0.349937
0.349175
0.348419
0.347667
0.34692
0.346176
0.345436
0.344698
0.343964
0.343232
0.342502
0.341775
0.341049
0.340325
0.339604
0.338884
0.338167
0.337452
0.336738
0.336028
0.335319
0.334614
0.33391
0.33321
0.332512
0.331817
0.331125
0.330436
0.329749
0.329066
0.328385
0.327707
0.327032
0.32636
0.325691
0.325024
0.324361
0.323699
0.323041
0.322385
0.321732
0.321081
0.320433
0.319787
0.319144
0.318503
0.317865
0.317229
0.316595
0.315964
0.315335
0.314709
0.314084
0.313462
0.312842
0.312225
0.311609
0.310996
0.310385
0.309776
0.309169
0.308565
0.307962
0.307362
0.306763
0.306167
0.305573
0.304981
0.30439
0.303802
0.303216
0.302632
0.30205
0.301469
0.300891
0.300314
0.29974
0.299167
0.298596
0.298028
0.297461
0.296896
0.296332
0.295771
0.295211
0.294654
0.294098
0.293544
0.292991
0.292441
0.291892
0.291345
0.2908
0.290256
0.289714
0.289174
0.288636
0.288099
0.287564
0.287031
0.2865
0.28597
0.285442
0.284915
0.28439
0.283867
0.283345
0.282824
0.282305
0.281788
0.281271
0.280756
0.280242
0.279729
0.279217
0.278706
0.278196
0.277688
0.27718
0.276673
0.276167
0.275662
0.275159
0.274657
0.274155
0.273656
0.273157
0.272661
0.272165
0.271672
0.271181
0.270691
0.270204
0.269718
0.269235
0.268754
0.268276
0.2678
0.267326
0.266855
0.266386
0.265919
0.265455
0.264992
0.264532
0.264073
0.263617
0.263161
0.262708
0.262255
0.261804
0.261354
0.260905
0.260457
0.26001
0.259564
0.259119
0.258674
0.25823
0.257787
0.257344
0.256903
0.256462
0.256022
0.255583
0.255144
0.254707
0.254271
0.253835
0.253401
0.252967
0.252535
0.252104
0.251674
0.251245
0.250817
0.25039
0.249964
0.249539
0.249116
0.248693
0.248272
0.247851
0.247432
0.247014
0.246597
0.246181
0.245766
0.245352
0.244939
0.244527
0.244116
0.243706
0.243297
0.242889
0.242481
0.242075
0.24167
0.241266
0.240862
0.24046
0.240058
0.239658
0.239258
0.238859
0.238461
0.238064
0.237668
0.237272
0.236878
0.236484
0.236092
0.2357
0.235309
0.234919
0.234529
0.234141
0.233753
0.233366
0.23298
0.232595
0.23221
0.231827
0.231444
0.231062
0.230681
0.2303
0.229921
0.229542
0.229164
0.228786
0.22841
0.228034
0.227659
0.227285
0.226912
0.226539
0.226167
0.225796
0.225426
0.225056
0.224687
0.224319
0.223952
0.223585
0.223219
0.222854
0.22249
0.222126
0.221763
0.221401
0.22104
0.220679
0.220319
0.219959
0.219601
0.219242
0.218885
0.218528
0.218172
0.217816
0.217461
0.217106
0.216752
0.216398
0.216045
0.215692
0.21534
0.214988
0.214636
0.214285
0.213934
0.213584
0.213235
0.212885
0.212537
0.212189
0.211841
0.211494
0.211148
0.210802
0.210457
0.210113
0.209769
0.209427
0.209085
0.208744
0.208405
0.208066
0.207728
0.207391
0.207056
0.206721
0.206388
0.206055
0.205724
0.205394
0.205064
0.204736
0.204409
0.204082
0.203757
0.203432
0.203108
0.202785
0.202463
0.202141
0.201819
0.201499
0.201178
0.200859
0.200539
0.20022
0.199902
0.199583
0.199265
0.198948
0.198631
0.198314
0.197997
0.197681
0.197365
0.197049
0.196734
0.196419
0.196105
0.195791
0.195477
0.195164
0.194852
0.194539
0.194227
0.193916
0.193605
0.193295
0.192985
0.192675
0.192366
0.192057
0.191749
0.191442
0.191134
0.190828
0.190522
0.190216
0.189911
0.189606
0.189301
0.188997
0.188694
0.188391
0.188088
0.187786
0.187485
0.187183
0.186882
0.186582
0.186282
0.185982
0.185683
0.185384
0.185086
0.184788
0.18449
0.184193
0.183896
0.1836
0.183304
0.183008
0.182713
0.182418
0.182123
0.181829
0.181535
0.181242
0.180949
0.180656
0.180364
0.180072
0.17978
0.179489
0.179198
0.178907
0.178617
0.178327
0.178038
0.177748
0.17746
0.177171
0.176883
0.176595
0.176307
0.17602
0.175733
0.175447
0.175161
0.174875
0.174589
0.174304
0.174019
0.173734
0.17345
0.173166
0.172883
0.172599
0.172316
0.172034
0.171751
0.171469
0.171187
0.170906
0.170625
0.170344
0.170063
0.169783
0.169503
0.169223
0.168944
0.168665
0.168386
0.168107
0.167828
0.16755
0.167272
0.166994
0.166717
0.166439
0.166162
0.165885
0.165608
0.165331
0.165055
0.164779
0.164502
0.164226
0.16395
0.163675
0.163399
0.163124
0.162849
0.162573
0.162299
0.162024
0.16175
0.161476
0.161202
0.160928
0.160655
0.160382
0.160109
0.159837
0.159564
0.159293
0.159021
0.158751
0.15848
0.15821
0.15794
0.157671
0.157402
0.157134
0.156866
0.156599
0.156332
0.156065
0.155799
0.155534
0.155268
0.155004
0.154739
0.154475
0.154211
0.153948
0.153684
0.153422
0.153159
0.152896
0.152634
0.152372
0.15211
0.151849
0.151587
0.151325
0.151064
0.150803
0.150542
0.15028
0.150019
0.149758
0.149498
0.149237
0.148976
0.148715
0.148455
0.148194
0.147934
0.147673
0.147413
0.147153
0.146893
0.146633
0.146373
0.146113
0.145853
0.145593
0.145334
0.145074
0.144815
0.144556
0.144297
0.144038
0.143779
0.14352
0.143261
0.143002
0.142744
0.142486
0.142227
0.141969
0.141711
0.141453
0.141195
0.140937
0.140679
0.140422
0.140164
0.139906
0.139649
0.139391
0.139134
0.138877
0.138619
0.138362
0.138105
0.137848
0.137591
0.137334
0.137077
0.13682
0.136563
0.136306
0.136049
0.135792
0.135535
0.135278
0.135022
0.134765
0.134508
0.134251
0.133994
0.133738
0.133481
0.133224
0.132967
0.13271
0.132453
0.132196
0.131939
0.131683
0.131426
0.131169
0.130912
0.130654
0.130397
0.13014
0.129883
0.129626
0.129368
0.129111
0.128854
0.128596
0.128339
0.128081
0.127823
0.127566
0.127308
0.12705
0.126792
0.126534
0.126276
0.126018
0.125759
0.125501
0.125242
0.124984
0.124725
0.124466
0.124207
0.123948
0.123689
0.123429
0.12317
0.12291
0.12265
0.12239
0.12213
0.12187
0.12161
0.121349
0.121088
0.120827
0.120566
0.120305
0.120043
0.119781
0.119519
0.119257
0.118995
0.118732
0.118469
0.118206
0.117942
0.117679
0.117415
0.117151
0.116886
0.116622
0.116357
0.116092
0.115827
0.115561
0.115295
0.115029
0.114763
0.114497
0.11423
0.113964
0.113697
0.11343
0.113162
0.112895
0.112627
0.11236
0.112092
0.111824
0.111556
0.111288
0.11102
0.110752
0.110484
0.110216
0.109948
0.109681
0.109413
0.109145
0.108878
0.108611
0.108344
0.108078
0.107812
0.107547
0.107282
0.107019
0.106756
0.106494
0.106233
0.105974
0.105716
0.10546
0.105206
0.104955
0.104706
0.10446
0.104218
0.103979
0.103745
0.103516
0.103292
0.103074
0.102862
0.102657
0.102459
0.10227
0.102088
0.101916
0.101752
0.101598
0.101454
0.10132
0.101196
0.101081
0.100977
0.100882
0.100796
0.100719
0.100651
0.10059
0.100537
0.100491
0.100451
0.100417
0.100388
0.100363
0.100342
0.100325
0.10031
0.100299
0.100289
0.100281
0.100274
0.100267
0.10026
0.100251
0.100238
0.100218
0.100183
0.100121
0.100011
0.0998132
0.099461
0.0988355
0.0977364
0.0958403
0.0926739
0.0876649
0.0803887
0.0710523
0.0608608
0.0515983
0.0445473
0.0399067
0.0371512
0.0356175
0.0347952
0.0343631
0.0341386
0.0340226
0.0339628
0.0339321
0.0339163
0.0339082
0.033904
0.0339019
0.0339007
0.0339002
0.0338998
0.0338997
0.0338995
0.0338995
0.0338994
0.0338993
0.0338992
0.0338992
0.0338991
0.033899
0.0338989
0.0338988
0.0338987
0.0338987
0.0338985
0.0338984
0.0338983
0.0338982
0.033898
0.033898
0.0338978
0.0338977
0.0338975
0.0338975
0.0338973
0.0338973
0.0338971
0.033897
0.0338968
)
;

boundaryField
{
    inlet
    {
        type            calculated;
        value           uniform 0.0976562;
    }
    outlet
    {
        type            calculated;
        value           uniform 0.0338968;
    }
    emptyWalls
    {
        type            empty;
    }
}


// ************************************************************************* //
