/*--------------------------------*- C++ -*----------------------------------*\
  =========                 |
  \\      /  F ield         | OpenFOAM: The Open Source CFD Toolbox
   \\    /   O peration     | Website:  https://openfoam.org
    \\  /    A nd           | Version:  9
     \\/     M anipulation  |
\*---------------------------------------------------------------------------*/
FoamFile
{
    format      ascii;
    class       surfaceScalarField;
    location    "22800";
    object      phic;
}
// * * * * * * * * * * * * * * * * * * * * * * * * * * * * * * * * * * * * * //

dimensions      [0 2 0 0 0 0 0];

internalField   nonuniform List<scalar> 
999
(
1.01029e-15
4.2056e-15
1.0306e-14
1.91635e-14
3.07232e-14
4.49681e-14
6.19082e-14
8.15405e-14
1.03871e-13
1.28876e-13
1.56504e-13
1.86668e-13
2.19217e-13
2.5393e-13
2.90507e-13
3.28527e-13
3.67503e-13
4.06798e-13
4.45796e-13
4.83744e-13
5.20055e-13
5.5413e-13
5.85559e-13
6.14158e-13
6.39812e-13
6.62895e-13
6.84515e-13
7.09916e-13
7.63113e-13
9.5058e-13
1.64296e-12
5.03801e-12
1.73088e-11
2.03905e-11
2.12741e-11
2.168e-11
2.19335e-11
2.21229e-11
2.22798e-11
2.2418e-11
2.25441e-11
2.26617e-11
2.2773e-11
2.28793e-11
2.29816e-11
2.30806e-11
2.31769e-11
2.32709e-11
2.33627e-11
2.34524e-11
2.35402e-11
2.36262e-11
2.37106e-11
2.37939e-11
2.38765e-11
2.39586e-11
2.40401e-11
2.41214e-11
2.42022e-11
2.42826e-11
2.43628e-11
2.44418e-11
2.4518e-11
2.4594e-11
2.467e-11
2.47471e-11
2.48258e-11
2.49073e-11
2.49915e-11
2.50786e-11
2.51684e-11
2.52605e-11
2.53548e-11
2.54516e-11
2.55529e-11
2.56597e-11
2.57714e-11
2.58879e-11
2.60095e-11
2.61368e-11
2.62706e-11
2.64123e-11
2.65639e-11
2.67286e-11
2.69102e-11
2.71133e-11
2.73428e-11
2.76027e-11
2.78944e-11
2.82158e-11
2.85617e-11
2.89262e-11
2.93045e-11
2.96935e-11
3.00909e-11
3.04951e-11
3.09047e-11
3.1319e-11
3.17372e-11
3.21589e-11
3.25835e-11
3.30108e-11
3.34404e-11
3.38722e-11
3.43059e-11
3.47414e-11
3.51786e-11
3.56174e-11
3.60577e-11
3.64993e-11
3.69423e-11
3.73865e-11
3.78319e-11
3.82786e-11
3.87263e-11
3.91751e-11
3.9625e-11
4.00759e-11
4.05279e-11
4.09808e-11
4.14346e-11
4.18894e-11
4.23451e-11
4.28017e-11
4.32592e-11
4.37175e-11
4.41766e-11
4.46366e-11
4.50974e-11
4.5559e-11
4.60213e-11
4.64844e-11
4.69483e-11
4.74129e-11
4.78783e-11
4.83444e-11
4.88112e-11
4.92787e-11
4.97469e-11
5.02158e-11
5.06853e-11
5.11555e-11
5.16263e-11
5.20977e-11
5.25698e-11
5.30425e-11
5.35159e-11
5.399e-11
5.44647e-11
5.49401e-11
5.54161e-11
5.58928e-11
5.63701e-11
5.6848e-11
5.73264e-11
5.78054e-11
5.8285e-11
5.87651e-11
5.92457e-11
5.97269e-11
6.02086e-11
6.06909e-11
6.11739e-11
6.16575e-11
6.21417e-11
6.26267e-11
6.31123e-11
6.35984e-11
6.4085e-11
6.45719e-11
6.5059e-11
6.55462e-11
6.60331e-11
6.65198e-11
6.70061e-11
6.7492e-11
6.79775e-11
6.84625e-11
6.89472e-11
6.94316e-11
6.99158e-11
7.04e-11
7.08843e-11
7.1369e-11
7.18541e-11
7.23401e-11
7.2827e-11
7.33152e-11
7.38049e-11
7.42964e-11
7.47899e-11
7.52856e-11
7.57836e-11
7.62839e-11
7.67866e-11
7.72915e-11
7.77986e-11
7.83075e-11
7.88181e-11
7.933e-11
7.98429e-11
8.03565e-11
8.08705e-11
8.13847e-11
8.18989e-11
8.24128e-11
8.29263e-11
8.34394e-11
8.39521e-11
8.44643e-11
8.49761e-11
8.54876e-11
8.59988e-11
8.65099e-11
8.70209e-11
8.7532e-11
8.80432e-11
8.85547e-11
8.90665e-11
8.95787e-11
9.00914e-11
9.06047e-11
9.11184e-11
9.16328e-11
9.21477e-11
9.26632e-11
9.31794e-11
9.36961e-11
9.42134e-11
9.47312e-11
9.52496e-11
9.57685e-11
9.6288e-11
9.68079e-11
9.73283e-11
9.78492e-11
9.83706e-11
9.88924e-11
9.94146e-11
9.99372e-11
1.0046e-10
1.00984e-10
1.01508e-10
1.02032e-10
1.02557e-10
1.03082e-10
1.03607e-10
1.04133e-10
1.04659e-10
1.05185e-10
1.05712e-10
1.0624e-10
1.06767e-10
1.07295e-10
1.07824e-10
1.08352e-10
1.08881e-10
1.09411e-10
1.0994e-10
1.1047e-10
1.11001e-10
1.11532e-10
1.12063e-10
1.12594e-10
1.13126e-10
1.13658e-10
1.1419e-10
1.14723e-10
1.15256e-10
1.1579e-10
1.16323e-10
1.16857e-10
1.17392e-10
1.17926e-10
1.18461e-10
1.18997e-10
1.19533e-10
1.20069e-10
1.20605e-10
1.21142e-10
1.21679e-10
1.22217e-10
1.22755e-10
1.23293e-10
1.23831e-10
1.2437e-10
1.24909e-10
1.25449e-10
1.25989e-10
1.26529e-10
1.2707e-10
1.27611e-10
1.28153e-10
1.28695e-10
1.29237e-10
1.2978e-10
1.30323e-10
1.30866e-10
1.3141e-10
1.31954e-10
1.32498e-10
1.33042e-10
1.33586e-10
1.3413e-10
1.34674e-10
1.35218e-10
1.35761e-10
1.36304e-10
1.36846e-10
1.37388e-10
1.37929e-10
1.38469e-10
1.39009e-10
1.39548e-10
1.40087e-10
1.40625e-10
1.41164e-10
1.41702e-10
1.4224e-10
1.42779e-10
1.43318e-10
1.43858e-10
1.44398e-10
1.4494e-10
1.45484e-10
1.46029e-10
1.46576e-10
1.47125e-10
1.47676e-10
1.4823e-10
1.48786e-10
1.49344e-10
1.49905e-10
1.50468e-10
1.51034e-10
1.51601e-10
1.52171e-10
1.52742e-10
1.53314e-10
1.53887e-10
1.54462e-10
1.55037e-10
1.55612e-10
1.56187e-10
1.56763e-10
1.57338e-10
1.57913e-10
1.58488e-10
1.59062e-10
1.59636e-10
1.60209e-10
1.60782e-10
1.61355e-10
1.61927e-10
1.62499e-10
1.6307e-10
1.63642e-10
1.64213e-10
1.64784e-10
1.65356e-10
1.65928e-10
1.665e-10
1.67072e-10
1.67645e-10
1.68218e-10
1.68792e-10
1.69366e-10
1.6994e-10
1.70515e-10
1.71091e-10
1.71667e-10
1.72244e-10
1.72821e-10
1.73399e-10
1.73978e-10
1.74557e-10
1.75136e-10
1.75716e-10
1.76297e-10
1.76878e-10
1.77459e-10
1.78041e-10
1.78623e-10
1.79206e-10
1.79789e-10
1.80373e-10
1.80957e-10
1.81542e-10
1.82126e-10
1.82712e-10
1.83297e-10
1.83883e-10
1.8447e-10
1.85057e-10
1.85644e-10
1.86232e-10
1.8682e-10
1.87408e-10
1.87997e-10
1.88586e-10
1.89175e-10
1.89765e-10
1.90355e-10
1.90946e-10
1.91537e-10
1.92128e-10
1.9272e-10
1.93312e-10
1.93904e-10
1.94497e-10
1.9509e-10
1.95683e-10
1.96277e-10
1.96871e-10
1.97466e-10
1.98061e-10
1.98656e-10
1.99251e-10
1.99847e-10
2.00444e-10
2.0104e-10
2.01638e-10
2.02235e-10
2.02833e-10
2.03431e-10
2.0403e-10
2.04629e-10
2.05228e-10
2.05828e-10
2.06428e-10
2.07029e-10
2.0763e-10
2.08231e-10
2.08833e-10
2.09436e-10
2.10039e-10
2.10642e-10
2.11245e-10
2.1185e-10
2.12454e-10
2.13059e-10
2.13665e-10
2.1427e-10
2.14877e-10
2.15483e-10
2.1609e-10
2.16697e-10
2.17304e-10
2.17912e-10
2.1852e-10
2.19127e-10
2.19735e-10
2.20342e-10
2.20949e-10
2.21556e-10
2.22163e-10
2.22769e-10
2.23375e-10
2.2398e-10
2.24585e-10
2.2519e-10
2.25794e-10
2.26397e-10
2.27e-10
2.27603e-10
2.28206e-10
2.28809e-10
2.29411e-10
2.30014e-10
2.30617e-10
2.31221e-10
2.31825e-10
2.3243e-10
2.33037e-10
2.33644e-10
2.34253e-10
2.34864e-10
2.35476e-10
2.36091e-10
2.36708e-10
2.37327e-10
2.37948e-10
2.38572e-10
2.39199e-10
2.39828e-10
2.4046e-10
2.41094e-10
2.41731e-10
2.42369e-10
2.43011e-10
2.43654e-10
2.44299e-10
2.44946e-10
2.45594e-10
2.46243e-10
2.46893e-10
2.47544e-10
2.48196e-10
2.48848e-10
2.49501e-10
2.50154e-10
2.50806e-10
2.51459e-10
2.52112e-10
2.52764e-10
2.53416e-10
2.54068e-10
2.5472e-10
2.55371e-10
2.56023e-10
2.56674e-10
2.57325e-10
2.57976e-10
2.58628e-10
2.59279e-10
2.59931e-10
2.60583e-10
2.61235e-10
2.61887e-10
2.6254e-10
2.63194e-10
2.63848e-10
2.64502e-10
2.65158e-10
2.65813e-10
2.6647e-10
2.67127e-10
2.67785e-10
2.68444e-10
2.69103e-10
2.69763e-10
2.70424e-10
2.71086e-10
2.71748e-10
2.72411e-10
2.73075e-10
2.7374e-10
2.74405e-10
2.75071e-10
2.75738e-10
2.76405e-10
2.77073e-10
2.77742e-10
2.78411e-10
2.79082e-10
2.79752e-10
2.80424e-10
2.81096e-10
2.81768e-10
2.82442e-10
2.83116e-10
2.8379e-10
2.84465e-10
2.85141e-10
2.85818e-10
2.86495e-10
2.87172e-10
2.8785e-10
2.88529e-10
2.89209e-10
2.89889e-10
2.90569e-10
2.91251e-10
2.91932e-10
2.92615e-10
2.93298e-10
2.93982e-10
2.94666e-10
2.95351e-10
2.96036e-10
2.96722e-10
2.97409e-10
2.98096e-10
2.98784e-10
2.99472e-10
3.00161e-10
3.00851e-10
3.01542e-10
3.02233e-10
3.02924e-10
3.03616e-10
3.04309e-10
3.05003e-10
3.05697e-10
3.06392e-10
3.07088e-10
3.07784e-10
3.08481e-10
3.09178e-10
3.09877e-10
3.10576e-10
3.11275e-10
3.11976e-10
3.12677e-10
3.13379e-10
3.14081e-10
3.14785e-10
3.15489e-10
3.16194e-10
3.16899e-10
3.17605e-10
3.18312e-10
3.1902e-10
3.19728e-10
3.20437e-10
3.21147e-10
3.21857e-10
3.22568e-10
3.23279e-10
3.23991e-10
3.24703e-10
3.25416e-10
3.26129e-10
3.26842e-10
3.27556e-10
3.28269e-10
3.28983e-10
3.29697e-10
3.3041e-10
3.31124e-10
3.31838e-10
3.32552e-10
3.33265e-10
3.33979e-10
3.34693e-10
3.35407e-10
3.3612e-10
3.36834e-10
3.37548e-10
3.38263e-10
3.38978e-10
3.39693e-10
3.40409e-10
3.41126e-10
3.41843e-10
3.42562e-10
3.43282e-10
3.44004e-10
3.44726e-10
3.45451e-10
3.46178e-10
3.46906e-10
3.47637e-10
3.48371e-10
3.49107e-10
3.49845e-10
3.50587e-10
3.51331e-10
3.52078e-10
3.52829e-10
3.53582e-10
3.54339e-10
3.55098e-10
3.55861e-10
3.56627e-10
3.57396e-10
3.58167e-10
3.58941e-10
3.59718e-10
3.60497e-10
3.61278e-10
3.62062e-10
3.62847e-10
3.63634e-10
3.64422e-10
3.65212e-10
3.66004e-10
3.66796e-10
3.67589e-10
3.68383e-10
3.69178e-10
3.69973e-10
3.7077e-10
3.71566e-10
3.72363e-10
3.73161e-10
3.73959e-10
3.74757e-10
3.75556e-10
3.76356e-10
3.77156e-10
3.77956e-10
3.78758e-10
3.79559e-10
3.80362e-10
3.81166e-10
3.8197e-10
3.82775e-10
3.83582e-10
3.84389e-10
3.85197e-10
3.86007e-10
3.86817e-10
3.87629e-10
3.88443e-10
3.89257e-10
3.90073e-10
3.9089e-10
3.91709e-10
3.92529e-10
3.93351e-10
3.94174e-10
3.94998e-10
3.95824e-10
3.96652e-10
3.97481e-10
3.98311e-10
3.99143e-10
3.99977e-10
4.00811e-10
4.01648e-10
4.02486e-10
4.03325e-10
4.04167e-10
4.05009e-10
4.05853e-10
4.06699e-10
4.07546e-10
4.08395e-10
4.09245e-10
4.10096e-10
4.1095e-10
4.11804e-10
4.1266e-10
4.13518e-10
4.14377e-10
4.15238e-10
4.16101e-10
4.16964e-10
4.1783e-10
4.18697e-10
4.19565e-10
4.20436e-10
4.21307e-10
4.22181e-10
4.23055e-10
4.23932e-10
4.2481e-10
4.2569e-10
4.26571e-10
4.27454e-10
4.28339e-10
4.29225e-10
4.30113e-10
4.31003e-10
4.31894e-10
4.32787e-10
4.33682e-10
4.34578e-10
4.35477e-10
4.36377e-10
4.37279e-10
4.38182e-10
4.39088e-10
4.39995e-10
4.40904e-10
4.41815e-10
4.42728e-10
4.43643e-10
4.4456e-10
4.45479e-10
4.46399e-10
4.47322e-10
4.48247e-10
4.49174e-10
4.50103e-10
4.51033e-10
4.51966e-10
4.52901e-10
4.53839e-10
4.54778e-10
4.55719e-10
4.56663e-10
4.57609e-10
4.58557e-10
4.59507e-10
4.60459e-10
4.61413e-10
4.6237e-10
4.63329e-10
4.64289e-10
4.65252e-10
4.66217e-10
4.67185e-10
4.68154e-10
4.69125e-10
4.70098e-10
4.71073e-10
4.7205e-10
4.7303e-10
4.74011e-10
4.74993e-10
4.75978e-10
4.76965e-10
4.77953e-10
4.78943e-10
4.79936e-10
4.8093e-10
4.81926e-10
4.82924e-10
4.83924e-10
4.84925e-10
4.85929e-10
4.86935e-10
4.87944e-10
4.88954e-10
4.89968e-10
4.90983e-10
4.92001e-10
4.93022e-10
4.94046e-10
4.95073e-10
4.96103e-10
4.97137e-10
4.98174e-10
4.99215e-10
5.00259e-10
5.01308e-10
5.02361e-10
5.03418e-10
5.0448e-10
5.05547e-10
5.06619e-10
5.07695e-10
5.08777e-10
5.09864e-10
5.10956e-10
5.12054e-10
5.13158e-10
5.14267e-10
5.15381e-10
5.16502e-10
5.17627e-10
5.18759e-10
5.19896e-10
5.21039e-10
5.22186e-10
5.23339e-10
5.24497e-10
5.2566e-10
5.26827e-10
5.27999e-10
5.29175e-10
5.30355e-10
5.31538e-10
5.32725e-10
5.33914e-10
5.35106e-10
5.363e-10
5.37496e-10
5.38693e-10
5.3989e-10
5.41087e-10
5.42284e-10
5.4348e-10
5.44674e-10
5.45865e-10
5.47052e-10
5.48234e-10
5.49409e-10
5.50578e-10
5.51738e-10
5.52887e-10
5.54025e-10
5.55148e-10
5.56255e-10
5.57343e-10
5.58411e-10
5.59456e-10
5.60475e-10
5.61465e-10
5.62424e-10
5.63349e-10
5.64238e-10
5.65088e-10
5.65898e-10
5.66664e-10
5.67386e-10
5.68061e-10
5.6869e-10
5.69272e-10
5.69808e-10
5.70297e-10
5.70742e-10
5.71142e-10
5.715e-10
5.71818e-10
5.721e-10
5.72348e-10
5.72564e-10
5.7275e-10
5.72911e-10
5.73047e-10
5.73164e-10
5.73264e-10
5.73348e-10
5.73419e-10
5.73479e-10
5.73531e-10
5.73578e-10
5.73624e-10
5.73675e-10
5.7374e-10
5.73834e-10
5.73985e-10
5.7424e-10
5.74689e-10
5.75483e-10
5.76896e-10
5.7941e-10
5.83856e-10
5.91628e-10
6.04914e-10
6.26779e-10
6.60577e-10
7.08015e-10
7.66147e-10
8.26269e-10
8.78026e-10
9.15642e-10
9.39574e-10
9.53477e-10
9.61119e-10
9.65189e-10
9.67322e-10
9.6843e-10
9.69004e-10
9.69302e-10
9.69456e-10
9.69537e-10
9.69581e-10
9.69604e-10
9.69617e-10
9.69625e-10
9.6963e-10
9.69634e-10
9.69636e-10
9.69637e-10
9.69638e-10
9.69639e-10
9.6964e-10
9.6964e-10
9.6964e-10
9.6964e-10
9.69639e-10
9.69638e-10
9.69637e-10
9.69636e-10
9.69634e-10
9.69632e-10
9.6963e-10
9.69628e-10
9.69625e-10
9.69622e-10
9.69619e-10
9.69616e-10
9.69612e-10
9.69608e-10
9.69604e-10
9.696e-10
9.69595e-10
9.6959e-10
9.69584e-10
9.69578e-10
9.69572e-10
9.69566e-10
9.69558e-10
9.69551e-10
9.69543e-10
9.69535e-10
9.69526e-10
9.69516e-10
9.69506e-10
9.69495e-10
9.69484e-10
9.69471e-10
9.69457e-10
9.69443e-10
9.69428e-10
9.69412e-10
9.69395e-10
9.69377e-10
9.69358e-10
9.69337e-10
9.69316e-10
9.69293e-10
9.69269e-10
9.69243e-10
9.69217e-10
9.69189e-10
9.6916e-10
9.69129e-10
9.69098e-10
9.69064e-10
9.6903e-10
9.68994e-10
9.68958e-10
9.6892e-10
9.68882e-10
)
;

boundaryField
{
    inlet
    {
        type            calculated;
        value           uniform 0;
    }
    outlet
    {
        type            calculated;
        value           uniform 9.68841e-10;
    }
    emptyWalls
    {
        type            empty;
        value           nonuniform List<scalar> 0();
    }
}


// ************************************************************************* //
