/*--------------------------------*- C++ -*----------------------------------*\
  =========                 |
  \\      /  F ield         | OpenFOAM: The Open Source CFD Toolbox
   \\    /   O peration     | Website:  https://openfoam.org
    \\  /    A nd           | Version:  9
     \\/     M anipulation  |
\*---------------------------------------------------------------------------*/
FoamFile
{
    format      ascii;
    class       volScalarField;
    location    "8200";
    object      krb;
}
// * * * * * * * * * * * * * * * * * * * * * * * * * * * * * * * * * * * * * //

dimensions      [0 0 0 0 0 0 0];

internalField   nonuniform List<scalar> 
1000
(
0.098191
0.0995517
0.101067
0.102562
0.103965
0.1053
0.106477
0.107604
0.109184
0.113705
0.13295
0.282875
0.459517
0.49752
0.510792
0.517709
0.522058
0.524995
0.52706
0.528502
0.529507
0.530185
0.530612
0.530845
0.530865
0.530698
0.530269
0.529522
0.528345
0.526531
0.523843
0.520194
0.515893
0.511302
0.506581
0.50182
0.497073
0.492371
0.48773
0.483159
0.478661
0.474242
0.4699
0.46564
0.461462
0.457365
0.45335
0.449416
0.445561
0.441785
0.438086
0.434463
0.430916
0.427443
0.424043
0.420713
0.41745
0.414251
0.411112
0.408029
0.404997
0.402013
0.399075
0.396179
0.393324
0.390508
0.38773
0.384991
0.382289
0.379624
0.376997
0.374407
0.371853
0.369336
0.366854
0.364408
0.361997
0.35962
0.357275
0.354963
0.352682
0.350432
0.348211
0.346019
0.343855
0.341718
0.339608
0.337524
0.335465
0.333431
0.33142
0.329433
0.32747
0.325528
0.323609
0.321711
0.319835
0.317978
0.316143
0.314327
0.31253
0.310752
0.308993
0.307252
0.305529
0.303823
0.302135
0.300463
0.298808
0.297169
0.295546
0.293938
0.292345
0.290768
0.289205
0.287656
0.286122
0.284601
0.283094
0.2816
0.28012
0.278652
0.277197
0.275754
0.274324
0.272906
0.271499
0.270105
0.268721
0.267349
0.265988
0.264639
0.263299
0.261971
0.260653
0.259345
0.258047
0.256759
0.255481
0.254212
0.252953
0.251703
0.250462
0.24923
0.248007
0.246793
0.245587
0.244389
0.2432
0.24202
0.240847
0.239682
0.238525
0.237376
0.236234
0.2351
0.233973
0.232853
0.231741
0.230635
0.229537
0.228445
0.22736
0.226282
0.22521
0.224144
0.223085
0.222032
0.220985
0.219944
0.218909
0.21788
0.216856
0.215838
0.214825
0.213818
0.212816
0.211819
0.210827
0.209839
0.208857
0.207879
0.206905
0.205937
0.204972
0.204013
0.203057
0.202106
0.20116
0.200218
0.199281
0.198349
0.197421
0.196499
0.195581
0.194668
0.193761
0.192858
0.191961
0.191069
0.190182
0.1893
0.188423
0.187551
0.186683
0.18582
0.184962
0.184107
0.183257
0.182409
0.181566
0.180725
0.179887
0.179052
0.178219
0.177389
0.176561
0.175736
0.174912
0.174091
0.173272
0.172455
0.17164
0.170828
0.170018
0.16921
0.168404
0.1676
0.166799
0.166
0.165203
0.164409
0.163617
0.162827
0.162039
0.161254
0.160471
0.159689
0.15891
0.158133
0.157358
0.156585
0.155814
0.155044
0.154276
0.15351
0.152745
0.151982
0.151221
0.150461
0.149702
0.148945
0.148189
0.147434
0.146681
0.145928
0.145177
0.144426
0.143677
0.142928
0.142181
0.141434
0.140688
0.139943
0.139198
0.138454
0.13771
0.136967
0.136225
0.135483
0.13474
0.133999
0.133257
0.132516
0.131775
0.131034
0.130292
0.129551
0.128809
0.128067
0.127325
0.126583
0.12584
0.125096
0.124353
0.123608
0.122863
0.122117
0.121371
0.120623
0.119875
0.119127
0.118377
0.117628
0.116877
0.116126
0.115375
0.114624
0.113874
0.113125
0.112377
0.111632
0.11089
0.110153
0.109423
0.108701
0.10799
0.107293
0.106613
0.105953
0.105318
0.10471
0.104136
0.103596
0.103095
0.102634
0.102212
0.101826
0.101467
0.101121
0.100759
0.10033
0.0997486
0.0988675
0.0974441
0.0950995
0.0913072
0.0854992
0.077403
0.0675564
0.0574657
0.0488665
0.0426753
0.0387653
0.0365054
0.0352677
0.03461
0.0342663
0.0340883
0.0339964
0.033949
0.0339247
0.0339122
0.0339058
0.0339024
0.0339006
0.0338996
0.033899
0.0338987
0.0338985
0.0338983
0.0338982
0.033898
0.0338979
0.0338977
0.0338976
0.0338974
0.0338972
0.033897
0.0338967
0.0338965
0.0338962
0.033896
0.0338957
0.0338954
0.033895
0.0338947
0.0338943
0.033894
0.0338936
0.0338932
0.0338928
0.0338924
0.0338919
0.0338915
0.0338911
0.0338907
0.0338903
0.0338899
0.0338895
0.0338891
0.0338888
0.0338885
0.0338882
0.033888
0.0338878
0.0338876
0.0338875
0.0338875
0.0338874
0.0338874
0.0338874
0.0338875
0.0338876
0.0338878
0.0338881
0.0338883
0.0338886
0.033889
0.0338893
0.0338897
0.03389
0.0338904
0.0338908
0.0338911
0.0338915
0.0338918
0.0338922
0.0338925
0.0338928
0.033893
0.0338933
0.0338935
0.0338936
0.0338938
0.0338939
0.033894
0.033894
0.0338941
0.0338941
0.0338941
0.033894
0.033894
0.0338939
0.0338938
0.0338938
0.0338937
0.0338936
0.0338935
0.0338934
0.0338933
0.0338932
0.0338931
0.033893
0.033893
0.0338929
0.0338928
0.0338928
0.0338927
0.0338927
0.0338926
0.0338926
0.0338926
0.0338926
0.0338926
0.0338926
0.0338926
0.0338926
0.0338927
0.0338927
0.0338927
0.0338928
0.0338928
0.0338929
0.0338929
0.033893
0.0338931
0.0338931
0.0338932
0.0338933
0.0338933
0.0338934
0.0338935
0.0338936
0.0338936
0.0338937
0.0338938
0.0338939
0.033894
0.0338941
0.0338942
0.0338943
0.0338943
0.0338944
0.0338945
0.0338946
0.0338947
0.0338948
0.0338949
0.033895
0.0338951
0.0338952
0.0338953
0.0338954
0.0338954
0.0338955
0.0338956
0.0338957
0.0338958
0.0338959
0.033896
0.033896
0.0338961
0.0338962
0.0338963
0.0338963
0.0338964
0.0338964
0.0338965
0.0338965
0.0338966
0.0338966
0.0338966
0.0338967
0.0338967
0.0338967
0.0338967
0.0338967
0.0338967
0.0338967
0.0338967
0.0338967
0.0338967
0.0338967
0.0338966
0.0338966
0.0338966
0.0338965
0.0338965
0.0338965
0.0338964
0.0338964
0.0338963
0.0338963
0.0338962
0.0338961
0.0338961
0.033896
0.0338959
0.0338959
0.0338958
0.0338958
0.0338957
0.0338956
0.0338955
0.0338955
0.0338954
0.0338953
0.0338953
0.0338952
0.0338951
0.033895
0.033895
0.0338949
0.0338948
0.0338947
0.0338946
0.0338945
0.0338944
0.0338943
0.0338942
0.0338941
0.033894
0.0338939
0.0338938
0.0338937
0.0338935
0.0338934
0.0338932
0.0338931
0.0338929
0.0338927
0.0338925
0.0338923
0.0338921
0.0338919
0.0338917
0.0338915
0.0338912
0.0338909
0.0338907
0.0338904
0.0338902
0.03389
0.0338897
0.0338895
0.0338892
0.0338889
0.0338887
0.0338884
0.0338882
0.0338879
0.0338877
0.0338874
0.0338872
0.0338869
0.0338867
0.0338864
0.0338862
0.033886
0.0338858
0.0338856
0.0338854
0.0338852
0.0338851
0.033885
0.0338849
0.0338848
0.0338848
0.0338848
0.0338848
0.0338848
0.0338849
0.033885
0.0338852
0.0338854
0.0338856
0.0338858
0.0338861
0.0338864
0.0338867
0.0338871
0.0338874
0.0338877
0.0338881
0.0338884
0.0338888
0.0338891
0.0338894
0.0338898
0.0338901
0.0338903
0.0338906
0.0338909
0.0338911
0.0338913
0.0338915
0.0338917
0.0338918
0.033892
0.0338921
0.0338922
0.0338923
0.0338924
0.0338925
0.0338925
0.0338925
0.0338926
0.0338926
0.0338926
0.0338926
0.0338926
0.0338927
0.0338927
0.0338927
0.0338927
0.0338927
0.0338927
0.0338928
0.0338928
0.0338928
0.0338928
0.0338929
0.0338929
0.0338929
0.033893
0.033893
0.0338931
0.0338932
0.0338932
0.0338933
0.0338933
0.0338934
0.0338935
0.0338935
0.0338936
0.0338937
0.0338938
0.0338939
0.0338939
0.033894
0.0338941
0.0338942
0.0338942
0.0338943
0.0338944
0.0338945
0.0338946
0.0338946
0.0338947
0.0338948
0.0338949
0.033895
0.033895
0.0338951
0.0338952
0.0338952
0.0338953
0.0338953
0.0338954
0.0338954
0.0338955
0.0338955
0.0338956
0.0338957
0.0338957
0.0338958
0.0338958
0.0338959
0.0338959
0.0338959
0.033896
0.033896
0.033896
0.0338961
0.0338961
0.0338961
0.0338961
0.0338962
0.0338962
0.0338962
0.0338962
0.0338962
0.0338962
0.0338963
0.0338963
0.0338963
0.0338963
0.0338963
0.0338962
0.0338962
0.0338962
0.0338962
0.0338962
0.0338962
0.0338962
0.0338962
0.0338961
0.0338961
0.0338961
0.033896
0.033896
0.033896
0.0338959
0.0338959
0.0338958
0.0338958
0.0338957
0.0338957
0.0338956
0.0338956
0.0338955
0.0338955
0.0338954
0.0338953
0.0338953
0.0338952
0.0338951
0.0338951
0.033895
0.0338949
0.0338948
0.0338948
0.0338947
0.0338946
0.0338945
0.0338944
0.0338944
0.0338943
0.0338942
0.0338941
0.033894
0.0338939
0.0338938
0.0338937
0.0338935
0.0338934
0.0338933
0.0338932
0.033893
0.0338929
0.0338928
0.0338926
0.0338925
0.0338923
0.0338921
0.033892
0.0338918
0.0338916
0.0338914
0.0338912
0.033891
0.0338908
0.0338905
0.0338903
0.0338901
0.0338898
0.0338896
0.0338893
0.0338891
0.0338888
0.0338885
0.0338883
0.033888
0.0338878
0.0338875
0.0338873
0.033887
0.0338868
0.0338866
0.0338864
0.0338862
0.033886
0.0338859
0.0338858
0.0338857
0.0338856
0.0338855
0.0338855
0.0338855
0.0338854
0.0338854
0.0338855
0.0338856
0.0338857
0.0338859
0.033886
0.0338862
0.0338864
0.0338867
0.0338869
0.0338872
0.0338874
0.0338877
0.033888
0.0338883
0.0338886
0.0338889
0.0338892
0.0338894
0.0338897
0.03389
0.0338902
0.0338905
0.0338907
0.0338909
0.0338911
0.0338913
0.0338915
0.0338916
0.0338918
0.0338919
0.033892
0.0338921
0.0338922
0.0338923
0.0338924
0.0338924
0.0338925
0.0338925
0.0338926
0.0338926
0.0338926
0.0338927
0.0338927
0.0338927
0.0338927
0.0338928
0.0338928
0.0338928
0.0338928
0.0338929
0.0338929
0.0338929
0.033893
0.033893
0.0338931
0.0338931
0.0338932
0.0338932
0.0338933
0.0338934
0.0338934
0.0338935
0.0338936
0.0338936
0.0338937
0.0338938
0.0338939
0.033894
0.033894
0.0338941
0.0338942
0.0338943
0.0338944
0.0338945
0.0338945
0.0338946
0.0338947
0.0338948
0.0338949
0.033895
0.033895
0.0338951
0.0338952
0.0338953
0.0338953
0.0338954
0.0338955
0.0338955
0.0338956
0.0338957
0.0338957
0.0338958
0.0338958
0.0338959
0.0338959
0.033896
0.0338961
0.0338961
0.0338961
0.0338962
0.0338962
0.0338963
0.0338963
0.0338963
0.0338964
0.0338964
0.0338965
0.0338965
0.0338965
0.0338965
0.0338965
0.0338966
0.0338966
0.0338966
0.0338966
0.0338967
0.0338967
0.0338967
0.0338967
0.0338967
0.0338967
0.0338967
0.0338967
0.0338967
0.0338967
0.0338967
0.0338967
0.0338967
0.0338967
0.0338966
0.0338966
0.0338966
0.0338966
0.0338965
0.0338965
0.0338965
0.0338965
0.0338964
0.0338964
0.0338963
0.0338963
0.0338962
0.0338962
0.0338961
0.0338961
0.033896
0.0338959
0.0338959
0.0338958
0.0338957
0.0338956
0.0338956
0.0338955
0.0338954
0.0338953
0.0338952
0.0338951
0.033895
0.0338949
0.0338948
0.0338947
0.0338946
0.0338945
0.0338943
0.0338942
0.0338941
0.033894
0.0338938
0.0338937
0.0338934
0.0338934
0.0338931
0.033893
0.0338927
0.0338927
0.0338924
0.0338923
0.0338919
0.0338919
0.0338915
0.0338914
0.033891
0.033891
0.0338906
0.0338905
0.0338901
0.03389
0.0338895
)
;

boundaryField
{
    inlet
    {
        type            calculated;
        value           uniform 0.0976562;
    }
    outlet
    {
        type            calculated;
        value           uniform 0.0338895;
    }
    emptyWalls
    {
        type            empty;
    }
}


// ************************************************************************* //
