/*--------------------------------*- C++ -*----------------------------------*\
  =========                 |
  \\      /  F ield         | OpenFOAM: The Open Source CFD Toolbox
   \\    /   O peration     | Website:  https://openfoam.org
    \\  /    A nd           | Version:  9
     \\/     M anipulation  |
\*---------------------------------------------------------------------------*/
FoamFile
{
    format      ascii;
    class       volScalarField;
    location    "8200";
    object      p;
}
// * * * * * * * * * * * * * * * * * * * * * * * * * * * * * * * * * * * * * //

dimensions      [0 0 0 0 0 0 0];

internalField   nonuniform List<scalar> 
1000
(
241898
241476
241060
240651
240247
239848
239454
239064
238680
238305
237965
237720
237604
237514
237428
237344
237260
237178
237095
237013
236931
236850
236768
236686
236605
236523
236442
236360
236278
236196
236114
236031
235947
235863
235778
235693
235607
235520
235432
235344
235254
235165
235074
234983
234891
234798
234704
234610
234515
234420
234324
234227
234129
234031
233932
233832
233732
233631
233529
233427
233324
233220
233115
233010
232904
232798
232691
232583
232475
232365
232256
232145
232034
231923
231811
231698
231584
231470
231356
231240
231125
231008
230891
230773
230655
230536
230417
230297
230176
230055
229933
229811
229688
229564
229440
229315
229190
229064
228938
228811
228683
228555
228427
228297
228168
228037
227906
227775
227643
227510
227377
227243
227109
226975
226839
226703
226567
226430
226293
226155
226016
225877
225737
225597
225457
225315
225174
225032
224889
224745
224602
224457
224312
224167
224021
223875
223728
223580
223433
223284
223135
222986
222836
222685
222534
222383
222231
222078
221925
221771
221617
221463
221308
221152
220996
220840
220683
220525
220367
220209
220050
219890
219730
219570
219409
219247
219085
218923
218760
218596
218432
218268
218103
217938
217772
217605
217439
217271
217103
216935
216766
216597
216427
216257
216087
215916
215744
215572
215400
215227
215053
214879
214705
214530
214355
214179
214003
213826
213649
213472
213294
213115
212936
212756
212576
212396
212215
212033
211851
211669
211486
211302
211118
210934
210749
210563
210377
210191
210004
209816
209628
209440
209251
209061
208871
208681
208490
208299
208107
207915
207722
207529
207335
207141
206946
206751
206555
206359
206162
205965
205767
205569
205371
205172
204972
204772
204572
204371
204169
203967
203765
203562
203358
203154
202950
202745
202539
202333
202127
201920
201713
201505
201296
201088
200878
200668
200458
200247
200035
199824
199611
199398
199185
198971
198756
198541
198326
198110
197893
197676
197459
197241
197022
196803
196583
196363
196143
195921
195700
195477
195255
195031
194807
194583
194358
194133
193907
193680
193453
193225
192997
192769
192539
192310
192079
191848
191617
191385
191153
190920
190687
190453
190219
189984
189749
189514
189278
189042
188806
188570
188333
188096
187858
187621
187382
187142
186899
186653
186402
186145
185881
185612
185338
185062
184786
184508
184231
183953
183675
183398
183120
182842
182564
182287
182009
181731
181453
181175
180898
180620
180342
180065
179787
179509
179231
178954
178676
178398
178121
177843
177565
177288
177010
176732
176455
176177
175900
175622
175345
175067
174790
174512
174235
173957
173680
173403
173125
172848
172571
172293
172016
171739
171462
171184
170907
170630
170353
170076
169799
169521
169244
168967
168690
168413
168136
167858
167581
167304
167027
166750
166472
166195
165918
165640
165363
165085
164808
164531
164253
163976
163698
163421
163143
162865
162588
162310
162033
161755
161477
161200
160922
160644
160367
160089
159812
159534
159256
158979
158701
158423
158146
157868
157590
157313
157035
156757
156480
156202
155924
155647
155369
155091
154813
154536
154258
153980
153703
153425
153147
152870
152592
152314
152036
151759
151481
151203
150926
150648
150370
150092
149815
149537
149259
148981
148703
148426
148148
147870
147592
147315
147037
146759
146481
146203
145925
145648
145370
145092
144814
144536
144258
143981
143703
143425
143147
142869
142591
142314
142036
141758
141480
141202
140924
140646
140368
140091
139813
139535
139257
138979
138701
138423
138145
137867
137590
137312
137034
136756
136478
136200
135922
135644
135366
135089
134811
134533
134255
133977
133699
133421
133143
132866
132588
132310
132032
131754
131476
131198
130921
130643
130365
130087
129809
129531
129254
128976
128698
128420
128142
127865
127587
127309
127031
126753
126476
126198
125920
125642
125364
125087
124809
124531
124253
123976
123698
123420
123143
122865
122587
122309
122032
121754
121476
121199
120921
120643
120366
120088
119810
119533
119255
118978
118700
118423
118145
117868
117590
117313
117035
116758
116480
116203
115925
115648
115371
115093
114816
114539
114261
113984
113707
113430
113152
112875
112598
112321
112043
111766
111489
111212
110935
110657
110380
110103
109826
109549
109271
108994
108717
108439
108162
107885
107607
107330
107053
106775
106498
106220
105943
105666
105388
105110
104833
104555
104278
104000
103723
103445
103168
102890
102612
102335
102057
101779
101502
101224
100946
100669
100391
100114
99835.9
99558.2
99280.6
99002.9
98725.2
98447.6
98169.9
97892.2
97614.6
97336.9
97059.2
96781.6
96503.9
96226.2
95948.5
95670.9
95393.2
95115.5
94837.8
94560.1
94282.4
94004.7
93727
93449.3
93171.6
92893.8
92616.1
92338.4
92060.7
91782.9
91505.2
91227.4
90949.7
90671.9
90394.2
90116.4
89838.6
89560.9
89283.1
89005.3
88727.5
88449.7
88171.9
87894.2
87616.4
87338.6
87060.7
86782.9
86505.1
86227.3
85949.5
85671.7
85393.8
85116
84838.2
84560.4
84282.5
84004.7
83726.8
83449
83171.2
82893.3
82615.5
82337.6
82059.8
81781.9
81504.1
81226.2
80948.4
80670.5
80392.7
80114.8
79836.9
79559.1
79281.2
79003.4
78725.5
78447.6
78169.8
77891.9
77614.1
77336.2
77058.3
76780.5
76502.6
76224.8
75946.9
75669.1
75391.2
75113.4
74835.5
74557.7
74279.8
74002
73724.1
73446.3
73168.5
72890.6
72612.8
72335
72057.2
71779.3
71501.5
71223.7
70945.9
70668.1
70390.3
70112.5
69834.7
69556.9
69279.1
69001.3
68723.5
68445.7
68168
67890.2
67612.4
67334.7
67056.9
66779.2
66501.4
66223.7
65945.9
65668.2
65390.5
65112.7
64835
64557.3
64279.6
64001.9
63724.2
63446.5
63168.9
62891.2
62613.5
62335.9
62058.3
61780.6
61503
61225.4
60947.8
60670.2
60392.7
60115.1
59837.6
59560
59282.5
59005
58727.5
58450.1
58172.6
57895.2
57617.8
57340.3
57062.9
56785.6
56508.2
56230.8
55953.5
55676.2
55398.8
55121.5
54844.2
54566.9
54289.7
54012.4
53735.1
53457.8
53180.6
52903.3
52626
52348.8
52071.5
51794.2
51516.9
51239.7
50962.4
50685.1
50407.7
50130.4
49853.1
49575.7
49298.3
49021
48743.6
48466.1
48188.7
47911.3
47633.8
47356.3
47078.8
46801.3
46523.8
46246.2
45968.7
45691.1
45413.5
45136
44858.4
44580.8
44303.2
44025.5
43747.9
43470.3
43192.6
42915
42637.4
42359.7
42082.1
41804.4
41526.7
41249.1
40971.4
40693.8
40416.1
40138.4
39860.8
39583.1
39305.4
39027.8
38750.1
38472.4
38194.7
37917.1
37639.4
37361.7
37084
36806.3
36528.6
36250.9
35973.3
35695.6
35417.9
35140.1
34862.4
34584.7
34307
34029.3
33751.6
33473.8
33196.1
32918.4
32640.6
32362.9
32085.1
31807.4
31529.6
31251.8
30974.1
30696.3
30418.5
30140.7
29862.9
29585.1
29307.4
29029.6
28751.7
28473.9
28196.1
27918.3
27640.5
27362.7
27084.9
26807
26529.2
26251.4
25973.5
25695.7
25417.8
25140
24862.1
24584.3
24306.4
24028.6
23750.7
23472.9
23195
22917.1
22639.3
22361.4
22083.5
21805.7
21527.8
21249.9
20972.1
20694.2
20416.3
20138.4
19860.6
19582.7
19304.8
19026.9
18749.1
18471.2
18193.3
17915.4
17637.6
17359.7
17081.8
16803.9
16526
16248.2
15970.3
15692.4
15414.6
15136.7
14858.8
14581
14303.1
14025.2
13747.4
13469.5
13191.7
12913.8
12636
12358.1
12080.3
11802.4
11524.6
11246.7
10968.9
10691.1
10413.3
10135.5
9857.64
9579.83
9302.02
9024.22
8746.43
8468.64
8190.85
7913.07
7635.3
7357.53
7079.77
6802.02
6524.27
6246.53
5968.8
5691.07
5413.36
5135.65
4857.95
4580.26
4302.58
4024.91
3747.25
3469.6
3191.96
2914.33
2636.71
2359.11
2081.52
1803.94
1526.37
1248.82
971.279
693.753
416.241
138.742
)
;

boundaryField
{
    inlet
    {
        type            darcyGradPressure;
        gradient        uniform 116344;
        Mf              Mf;
        phi             phi;
        value           uniform 242111;
    }
    outlet
    {
        type            fixedValue;
        value           uniform 0;
    }
    emptyWalls
    {
        type            empty;
    }
}


// ************************************************************************* //
