/*--------------------------------*- C++ -*----------------------------------*\
  =========                 |
  \\      /  F ield         | OpenFOAM: The Open Source CFD Toolbox
   \\    /   O peration     | Website:  https://openfoam.org
    \\  /    A nd           | Version:  9
     \\/     M anipulation  |
\*---------------------------------------------------------------------------*/
FoamFile
{
    format      ascii;
    class       volScalarField;
    location    "48000";
    object      krc;
}
// * * * * * * * * * * * * * * * * * * * * * * * * * * * * * * * * * * * * * //

dimensions      [0 0 0 0 0 0 0];

internalField   nonuniform List<scalar> 
100
(
1.7939e-23
3.01837e-24
2.47889e-24
3.64502e-24
4.58414e-25
3.32875e-24
6.66011e-25
7.33761e-26
2.81172e-24
1.28035e-24
2.90891e-24
8.21737e-26
3.97543e-25
1.77471e-24
3.12708e-24
5.80413e-25
1.35752e-24
4.57405e-27
7.08151e-24
1.1979e-23
8.85513e-24
2.33232e-23
2.40283e-23
1.46518e-23
6.69045e-23
4.73153e-23
1.40093e-22
1.13894e-22
2.5793e-22
2.49371e-22
4.86449e-22
5.20498e-22
6.12183e-22
7.98462e-22
1.12942e-21
1.18517e-21
1.4599e-21
1.63563e-21
1.89055e-21
1.99544e-21
1.97362e-21
1.75184e-21
1.60811e-21
1.80294e-21
1.22349e-21
7.07247e-22
3.09387e-22
1.88084e-24
1.12161e-22
3.57924e-22
1.21392e-21
2.88546e-21
5.10429e-21
7.52973e-21
1.16209e-20
1.76573e-20
2.3135e-20
3.0424e-20
3.95515e-20
4.77949e-20
5.61403e-20
6.39642e-20
7.08164e-20
7.74043e-20
8.19329e-20
8.47923e-20
8.95448e-20
8.88052e-20
9.09111e-20
8.85438e-20
8.74429e-20
8.36919e-20
7.91334e-20
7.38964e-20
6.8942e-20
6.27288e-20
5.75544e-20
5.13386e-20
4.64134e-20
3.99758e-20
3.52077e-20
2.90936e-20
2.53955e-20
2.15813e-20
1.78726e-20
1.46508e-20
1.20204e-20
9.82191e-21
7.62078e-21
6.11924e-21
4.41023e-21
3.37235e-21
2.77332e-21
1.0443e-21
4.67524e-21
3.13606e-20
4.07442e-19
8.37787e-18
1.06397e-16
5.59775e-16
)
;

boundaryField
{
    inlet
    {
        type            calculated;
        value           uniform 1.7939e-23;
    }
    outlet
    {
        type            calculated;
        value           uniform 5.59775e-16;
    }
    emptyWalls
    {
        type            empty;
    }
}


// ************************************************************************* //
