/*--------------------------------*- C++ -*----------------------------------*\
  =========                 |
  \\      /  F ield         | OpenFOAM: The Open Source CFD Toolbox
   \\    /   O peration     | Website:  https://openfoam.org
    \\  /    A nd           | Version:  9
     \\/     M anipulation  |
\*---------------------------------------------------------------------------*/
FoamFile
{
    format      ascii;
    class       volScalarField;
    location    "13950";
    object      krb;
}
// * * * * * * * * * * * * * * * * * * * * * * * * * * * * * * * * * * * * * //

dimensions      [0 0 0 0 0 0 0];

internalField   nonuniform List<scalar> 
1000
(
0.0979063
0.0986995
0.0994386
0.1004
0.101172
0.102088
0.10293
0.103812
0.104665
0.105506
0.106293
0.107038
0.1077
0.108296
0.108815
0.109338
0.110205
0.112816
0.123554
0.207692
0.426828
0.483858
0.500745
0.508746
0.513704
0.517232
0.519938
0.522095
0.523854
0.525304
0.526501
0.527495
0.528312
0.528987
0.529534
0.529978
0.530321
0.530587
0.53077
0.530887
0.530928
0.530906
0.530809
0.530638
0.530389
0.530059
0.529642
0.529127
0.528494
0.527713
0.526735
0.525495
0.523918
0.521953
0.519618
0.517026
0.514295
0.511485
0.508633
0.505763
0.502892
0.500031
0.497187
0.494366
0.49157
0.488802
0.486065
0.483358
0.480684
0.478041
0.475431
0.472851
0.470299
0.467775
0.465278
0.462806
0.460359
0.457938
0.455544
0.453177
0.450838
0.448527
0.446243
0.443988
0.441762
0.439564
0.437397
0.435259
0.433152
0.431075
0.429029
0.427011
0.425021
0.423058
0.421118
0.419201
0.417304
0.415426
0.413565
0.411721
0.409891
0.408076
0.406275
0.404489
0.402716
0.400958
0.399215
0.397487
0.395774
0.394077
0.392395
0.390729
0.389078
0.387443
0.385823
0.384219
0.382629
0.381055
0.379494
0.377948
0.376416
0.374897
0.373392
0.3719
0.37042
0.368953
0.367498
0.366056
0.364625
0.363206
0.361798
0.360402
0.359017
0.357643
0.35628
0.354928
0.353586
0.352254
0.350932
0.349621
0.348319
0.347027
0.345745
0.344472
0.343209
0.341954
0.340709
0.339473
0.338245
0.337026
0.335816
0.334614
0.333421
0.332236
0.331059
0.32989
0.328729
0.327576
0.32643
0.325292
0.324162
0.323039
0.321924
0.320815
0.319714
0.31862
0.317533
0.316453
0.315379
0.314313
0.313252
0.312199
0.311152
0.310111
0.309077
0.308049
0.307027
0.306012
0.305002
0.303999
0.303001
0.30201
0.301024
0.300044
0.299069
0.298101
0.297137
0.29618
0.295227
0.29428
0.293338
0.292402
0.29147
0.290544
0.289623
0.288707
0.287795
0.286889
0.285987
0.28509
0.284197
0.283308
0.282424
0.281544
0.280667
0.279795
0.278926
0.278061
0.277199
0.276341
0.275487
0.274636
0.273789
0.272946
0.272107
0.271272
0.270441
0.269614
0.268792
0.267975
0.267163
0.266355
0.265553
0.264756
0.263965
0.263179
0.262398
0.261623
0.260853
0.260088
0.259328
0.258572
0.257821
0.257074
0.256331
0.255591
0.254855
0.254121
0.25339
0.252662
0.251936
0.251213
0.250492
0.249773
0.249056
0.248341
0.247629
0.246919
0.246211
0.245506
0.244803
0.244103
0.243406
0.242711
0.242018
0.241329
0.240642
0.239958
0.239276
0.238598
0.237922
0.237248
0.236578
0.23591
0.235245
0.234583
0.233923
0.233266
0.232611
0.231959
0.231309
0.230662
0.230017
0.229374
0.228734
0.228096
0.227461
0.226828
0.226197
0.225568
0.224942
0.224318
0.223696
0.223076
0.222458
0.221842
0.221229
0.220618
0.220008
0.219401
0.218796
0.218192
0.217591
0.216992
0.216394
0.215799
0.215205
0.214614
0.214024
0.213436
0.21285
0.212266
0.211684
0.211103
0.210525
0.209948
0.209372
0.208799
0.208227
0.207657
0.207089
0.206522
0.205958
0.205394
0.204833
0.204273
0.203714
0.203158
0.202603
0.202049
0.201497
0.200947
0.200398
0.19985
0.199304
0.19876
0.198217
0.197676
0.197136
0.196598
0.196061
0.195525
0.194991
0.194458
0.193927
0.193397
0.192869
0.192341
0.191816
0.191291
0.190768
0.190246
0.189726
0.189207
0.188689
0.188172
0.187657
0.187143
0.18663
0.186118
0.185607
0.185098
0.18459
0.184083
0.183576
0.183071
0.182567
0.182064
0.181562
0.181061
0.180561
0.180062
0.179563
0.179066
0.178569
0.178073
0.177578
0.177084
0.17659
0.176098
0.175606
0.175116
0.174626
0.174137
0.17365
0.173163
0.172678
0.172193
0.17171
0.171228
0.170747
0.170268
0.169789
0.169313
0.168837
0.168363
0.16789
0.167419
0.166949
0.166481
0.166013
0.165547
0.165083
0.164619
0.164157
0.163695
0.163235
0.162776
0.162317
0.161859
0.161402
0.160945
0.160489
0.160034
0.159579
0.159124
0.15867
0.158217
0.157763
0.157311
0.156858
0.156406
0.155954
0.155503
0.155052
0.154601
0.154151
0.153701
0.153252
0.152803
0.152354
0.151906
0.151459
0.151011
0.150565
0.150118
0.149673
0.149227
0.148782
0.148338
0.147894
0.14745
0.147007
0.146564
0.146122
0.14568
0.145238
0.144797
0.144356
0.143916
0.143476
0.143036
0.142596
0.142157
0.141718
0.141279
0.140841
0.140402
0.139964
0.139527
0.139089
0.138652
0.138214
0.137777
0.137341
0.136904
0.136467
0.136031
0.135594
0.135158
0.134721
0.134285
0.133849
0.133413
0.132977
0.132541
0.132105
0.131669
0.131232
0.130796
0.13036
0.129923
0.129487
0.12905
0.128614
0.128177
0.12774
0.127303
0.126865
0.126428
0.12599
0.125552
0.125114
0.124676
0.124237
0.123798
0.123359
0.122919
0.122479
0.122039
0.121598
0.121157
0.120716
0.120274
0.119832
0.119389
0.118946
0.118502
0.118059
0.117614
0.117169
0.116724
0.116278
0.115832
0.115386
0.114939
0.114492
0.114044
0.113596
0.113148
0.1127
0.112251
0.111803
0.111354
0.110906
0.110459
0.110012
0.109566
0.109121
0.108678
0.108237
0.107798
0.107363
0.106931
0.106504
0.106082
0.105668
0.105261
0.104863
0.104475
0.1041
0.103737
0.10339
0.103058
0.102745
0.10245
0.102174
0.10192
0.101687
0.101475
0.101285
0.101115
0.100965
0.100833
0.100719
0.10062
0.100533
0.100455
0.100379
0.100298
0.100196
0.10005
0.0998176
0.0994249
0.0987456
0.097567
0.0955504
0.0922068
0.0869634
0.0794377
0.0699357
0.0597625
0.0507003
0.0439223
0.0395196
0.0369276
0.035492
0.0347243
0.0343215
0.0341123
0.0340042
0.0339485
0.0339199
0.0339051
0.0338976
0.0338938
0.0338919
0.0338911
0.0338908
0.0338906
0.0338907
0.0338909
0.0338911
0.0338913
0.0338916
0.0338919
0.0338922
0.0338925
0.0338928
0.0338931
0.0338934
0.0338937
0.0338939
0.0338942
0.0338945
0.0338947
0.033895
0.0338952
0.0338954
0.0338956
0.0338958
0.033896
0.0338961
0.0338963
0.0338964
0.0338965
0.0338966
0.0338967
0.0338967
0.0338968
0.0338968
0.0338968
0.0338968
0.0338968
0.0338968
0.0338968
0.0338967
0.0338967
0.0338967
0.0338966
0.0338965
0.0338965
0.0338964
0.0338964
0.0338963
0.0338962
0.0338961
0.0338961
0.033896
0.0338959
0.0338958
0.0338958
0.0338957
0.0338956
0.0338956
0.0338955
0.0338954
0.0338954
0.0338953
0.0338953
0.0338952
0.0338952
0.0338951
0.0338951
0.033895
0.033895
0.033895
0.0338949
0.0338949
0.0338949
0.0338948
0.0338948
0.0338948
0.0338948
0.0338948
0.0338947
0.0338947
0.0338947
0.0338947
0.0338947
0.0338947
0.0338947
0.0338947
0.0338947
0.0338947
0.0338947
0.0338947
0.0338948
0.0338948
0.0338948
0.0338948
0.0338948
0.0338948
0.0338948
0.0338948
0.0338949
0.0338949
0.0338949
0.0338949
0.0338949
0.033895
0.033895
0.033895
0.033895
0.033895
0.0338951
0.0338951
0.0338951
0.0338951
0.0338951
0.0338952
0.0338952
0.0338952
0.0338952
0.0338952
0.0338952
0.0338953
0.0338953
0.0338953
0.0338953
0.0338953
0.0338953
0.0338953
0.0338953
0.0338953
0.0338954
0.0338954
0.0338954
0.0338954
0.0338954
0.0338954
0.0338953
0.0338953
0.0338953
0.0338953
0.0338953
0.0338953
0.0338952
0.0338952
0.0338952
0.0338952
0.0338951
0.0338951
0.033895
0.033895
0.0338949
0.0338949
0.0338948
0.0338948
0.0338947
0.0338946
0.0338945
0.0338945
0.0338944
0.0338943
0.0338942
0.033894
0.0338939
0.0338938
0.0338937
0.0338935
0.0338934
0.0338932
0.033893
0.0338928
0.0338927
0.0338925
0.0338922
0.033892
0.0338918
0.0338916
0.0338913
0.0338911
0.0338909
0.0338906
0.0338903
0.0338901
0.0338898
0.0338895
0.0338892
0.0338889
0.0338887
0.0338884
0.0338881
0.0338878
0.0338876
0.0338873
0.0338871
0.0338868
0.0338866
0.0338864
0.0338862
0.033886
0.0338858
0.0338857
0.0338856
0.0338855
0.0338854
0.0338853
0.0338853
0.0338853
0.0338853
0.0338853
0.0338854
0.0338856
0.0338857
0.0338859
0.0338861
0.0338864
0.0338866
0.0338869
0.0338872
0.0338875
0.0338878
0.0338881
0.0338885
0.0338888
0.0338891
0.0338894
0.0338897
0.0338901
0.0338903
0.0338906
0.0338909
0.0338911
0.0338914
0.0338916
0.0338918
0.033892
0.0338922
0.0338924
0.0338925
0.0338927
0.0338928
0.0338929
0.033893
0.0338931
0.0338932
0.0338933
0.0338934
0.0338934
0.0338935
0.0338936
0.0338936
0.0338937
0.0338937
0.0338937
0.0338938
0.0338938
0.0338939
0.0338939
0.0338939
0.033894
0.033894
0.0338941
0.0338941
0.0338941
0.0338942
0.0338942
0.0338943
0.0338943
0.0338943
0.0338944
0.0338944
0.0338945
0.0338945
0.0338946
0.0338946
0.0338947
0.0338947
0.0338947
0.0338948
0.0338948
0.0338949
0.0338949
0.0338949
0.033895
0.033895
0.0338951
0.0338951
0.0338951
0.0338952
0.0338952
0.0338952
0.0338953
0.0338953
0.0338953
0.0338954
0.0338954
0.0338954
0.0338954
0.0338955
0.0338955
0.0338955
0.0338955
0.0338956
0.0338956
0.0338956
0.0338956
0.0338956
0.0338956
0.0338957
0.0338957
0.0338957
0.0338957
0.0338957
0.0338957
0.0338957
0.0338957
0.0338957
0.0338958
0.0338958
0.0338958
0.0338958
0.0338958
0.0338957
0.0338957
0.0338957
0.0338957
0.0338957
0.0338957
0.0338957
0.0338957
0.0338957
0.0338957
0.0338957
0.0338957
0.0338956
0.0338956
0.0338956
0.0338956
0.0338955
0.0338955
0.0338955
0.0338955
0.0338954
0.0338954
0.0338954
0.0338954
0.0338953
0.0338953
0.0338953
0.0338952
0.0338952
0.0338951
0.0338951
0.033895
0.033895
0.0338949
0.0338949
0.0338948
0.0338948
0.0338947
0.0338946
0.0338946
0.0338945
0.0338944
0.0338943
0.0338943
0.0338942
0.0338941
0.033894
0.0338939
0.0338938
0.0338936
0.0338935
0.0338934
0.0338932
0.0338931
0.0338929
0.0338928
0.0338926
0.0338924
0.0338922
0.0338921
0.0338919
0.0338917
0.0338915
0.0338912
0.033891
0.0338908
0.0338906
0.0338903
0.0338901
0.0338899
0.0338896
0.0338894
0.0338892
0.0338889
0.0338887
0.0338885
0.0338882
0.033888
0.0338878
0.0338876
0.0338874
0.0338872
0.0338871
0.0338869
0.0338868
0.0338867
0.0338866
0.0338865
0.0338864
0.0338864
0.0338864
0.0338864
0.0338864
0.0338864
0.0338864
0.0338865
0.0338866
0.0338866
0.0338868
0.0338869
0.0338872
0.0338872
0.0338875
0.0338876
0.0338879
)
;

boundaryField
{
    inlet
    {
        type            calculated;
        value           uniform 0.0976562;
    }
    outlet
    {
        type            calculated;
        value           uniform 0.0338879;
    }
    emptyWalls
    {
        type            empty;
    }
}


// ************************************************************************* //
