/*--------------------------------*- C++ -*----------------------------------*\
  =========                 |
  \\      /  F ield         | OpenFOAM: The Open Source CFD Toolbox
   \\    /   O peration     | Website:  https://openfoam.org
    \\  /    A nd           | Version:  9
     \\/     M anipulation  |
\*---------------------------------------------------------------------------*/
FoamFile
{
    format      ascii;
    class       volScalarField;
    location    "4200";
    object      kra;
}
// * * * * * * * * * * * * * * * * * * * * * * * * * * * * * * * * * * * * * //

dimensions      [0 0 0 0 0 0 0];

internalField   nonuniform List<scalar> 
100
(
4.06669e-05
3.02455e-05
3.26933e-05
3.13502e-05
3.1291e-05
3.09485e-05
3.07812e-05
3.05619e-05
3.03642e-05
3.01823e-05
3.00051e-05
2.9843e-05
2.96862e-05
2.95414e-05
2.94007e-05
2.9272e-05
2.91446e-05
2.90273e-05
2.89108e-05
2.8803e-05
2.86949e-05
2.85953e-05
2.84944e-05
2.8401e-05
2.83058e-05
2.8218e-05
2.81286e-05
2.80434e-05
2.79574e-05
2.78615e-05
2.77557e-05
2.76199e-05
2.74448e-05
2.73198e-05
2.74026e-05
2.74232e-05
2.74606e-05
2.74849e-05
2.75113e-05
2.75385e-05
2.75641e-05
2.75899e-05
2.76132e-05
2.76375e-05
2.76597e-05
2.76834e-05
2.77043e-05
2.77263e-05
2.7745e-05
2.77649e-05
2.77825e-05
2.78014e-05
2.78184e-05
2.78365e-05
2.78521e-05
2.78688e-05
2.78833e-05
2.78994e-05
2.79134e-05
2.79289e-05
2.79414e-05
2.79556e-05
2.79664e-05
2.79794e-05
2.79902e-05
2.80025e-05
2.80128e-05
2.80235e-05
2.80319e-05
2.80416e-05
2.80489e-05
2.80584e-05
2.80651e-05
2.8074e-05
2.80789e-05
2.80869e-05
2.80922e-05
2.8096e-05
2.81105e-05
2.81013e-05
2.81271e-05
2.81077e-05
2.81336e-05
2.81152e-05
2.8141e-05
2.81208e-05
2.81455e-05
2.81255e-05
2.81488e-05
2.81277e-05
2.81501e-05
2.8129e-05
2.81503e-05
2.81289e-05
2.81493e-05
2.81274e-05
2.81465e-05
2.81243e-05
2.81457e-05
7.34619e-05
)
;

boundaryField
{
    inlet
    {
        type            calculated;
        value           uniform 1.21568e-05;
    }
    outlet
    {
        type            calculated;
        value           uniform 8.49997e-06;
    }
    emptyWalls
    {
        type            empty;
    }
}


// ************************************************************************* //
