/*--------------------------------*- C++ -*----------------------------------*\
  =========                 |
  \\      /  F ield         | OpenFOAM: The Open Source CFD Toolbox
   \\    /   O peration     | Website:  https://openfoam.org
    \\  /    A nd           | Version:  9
     \\/     M anipulation  |
\*---------------------------------------------------------------------------*/
FoamFile
{
    format      ascii;
    class       volScalarField;
    location    "4200";
    object      p;
}
// * * * * * * * * * * * * * * * * * * * * * * * * * * * * * * * * * * * * * //

dimensions      [0 0 0 0 0 0 0];

internalField   nonuniform List<scalar> 
100
(
6.09601e+06
6.08802e+06
6.07728e+06
6.06734e+06
6.05699e+06
6.04661e+06
6.03611e+06
6.02555e+06
6.01492e+06
6.00423e+06
5.99348e+06
5.98268e+06
5.97182e+06
5.96092e+06
5.94997e+06
5.93898e+06
5.92795e+06
5.91688e+06
5.90577e+06
5.89463e+06
5.88345e+06
5.87224e+06
5.86099e+06
5.84972e+06
5.83842e+06
5.82709e+06
5.81573e+06
5.80434e+06
5.79293e+06
5.78148e+06
5.77001e+06
5.7585e+06
5.74695e+06
5.73535e+06
5.72374e+06
5.71219e+06
5.70066e+06
5.68915e+06
5.67768e+06
5.66622e+06
5.65479e+06
5.64339e+06
5.63201e+06
5.62065e+06
5.60931e+06
5.598e+06
5.58671e+06
5.57544e+06
5.56419e+06
5.55297e+06
5.54177e+06
5.53058e+06
5.51942e+06
5.50829e+06
5.49717e+06
5.48607e+06
5.475e+06
5.46394e+06
5.45291e+06
5.44189e+06
5.4309e+06
5.41992e+06
5.40897e+06
5.39803e+06
5.38712e+06
5.37622e+06
5.36535e+06
5.35449e+06
5.34366e+06
5.33284e+06
5.32204e+06
5.31127e+06
5.30051e+06
5.28977e+06
5.27905e+06
5.26834e+06
5.25766e+06
5.247e+06
5.23635e+06
5.22573e+06
5.21511e+06
5.20453e+06
5.19395e+06
5.1834e+06
5.17286e+06
5.16235e+06
5.15184e+06
5.14137e+06
5.1309e+06
5.12046e+06
5.11003e+06
5.09962e+06
5.08922e+06
5.07885e+06
5.06849e+06
5.05816e+06
5.04783e+06
5.03753e+06
5.02724e+06
5.01698e+06
)
;

boundaryField
{
    inlet
    {
        type            darcyGradPressure;
        gradient        uniform 3.92146e+06;
        Mf              Mf;
        phi             phi;
        value           uniform 6.10385e+06;
    }
    outlet
    {
        type            fixedValue;
        value           uniform 5e+06;
    }
    emptyWalls
    {
        type            empty;
    }
}


// ************************************************************************* //
