/*--------------------------------*- C++ -*----------------------------------*\
  =========                 |
  \\      /  F ield         | OpenFOAM: The Open Source CFD Toolbox
   \\    /   O peration     | Website:  https://openfoam.org
    \\  /    A nd           | Version:  9
     \\/     M anipulation  |
\*---------------------------------------------------------------------------*/
FoamFile
{
    format      ascii;
    class       surfaceScalarField;
    location    "4200";
    object      phia;
}
// * * * * * * * * * * * * * * * * * * * * * * * * * * * * * * * * * * * * * //

dimensions      [0 2 0 0 0 0 0];

internalField   nonuniform List<scalar> 
99
(
1.4207e-08
1.42012e-08
1.41947e-08
1.4184e-08
1.41698e-08
1.41665e-08
1.41621e-08
1.4155e-08
1.41482e-08
1.41404e-08
1.41316e-08
1.41231e-08
1.41141e-08
1.41048e-08
1.4096e-08
1.4087e-08
1.40776e-08
1.40682e-08
1.40587e-08
1.4049e-08
1.40395e-08
1.403e-08
1.40203e-08
1.40105e-08
1.40007e-08
1.39913e-08
1.39808e-08
1.39719e-08
1.39597e-08
1.39468e-08
1.39312e-08
1.39107e-08
1.38864e-08
1.38628e-08
1.38461e-08
1.38308e-08
1.3814e-08
1.37975e-08
1.37816e-08
1.3766e-08
1.37503e-08
1.37342e-08
1.3718e-08
1.37018e-08
1.36859e-08
1.36698e-08
1.36535e-08
1.36368e-08
1.36196e-08
1.36024e-08
1.35851e-08
1.35679e-08
1.35508e-08
1.35333e-08
1.35157e-08
1.34979e-08
1.34801e-08
1.34624e-08
1.34448e-08
1.34268e-08
1.34087e-08
1.33901e-08
1.33714e-08
1.33528e-08
1.33342e-08
1.33157e-08
1.32967e-08
1.32774e-08
1.32578e-08
1.32381e-08
1.32184e-08
1.31988e-08
1.31791e-08
1.3159e-08
1.31388e-08
1.31183e-08
1.30986e-08
1.30771e-08
1.30589e-08
1.30385e-08
1.30165e-08
1.29957e-08
1.29758e-08
1.29551e-08
1.29335e-08
1.29123e-08
1.28916e-08
1.28706e-08
1.28489e-08
1.28272e-08
1.28057e-08
1.27843e-08
1.27627e-08
1.2741e-08
1.27193e-08
1.26977e-08
1.26759e-08
1.26541e-08
1.26323e-08
)
;

boundaryField
{
    inlet
    {
        type            calculated;
        value           uniform -1.42126e-08;
    }
    outlet
    {
        type            calculated;
        value           uniform 1.26188e-08;
    }
    emptyWalls
    {
        type            empty;
        value           nonuniform List<scalar> 0();
    }
}


// ************************************************************************* //
