/*--------------------------------*- C++ -*----------------------------------*\
  =========                 |
  \\      /  F ield         | OpenFOAM: The Open Source CFD Toolbox
   \\    /   O peration     | Website:  https://openfoam.org
    \\  /    A nd           | Version:  9
     \\/     M anipulation  |
\*---------------------------------------------------------------------------*/
FoamFile
{
    format      ascii;
    class       surfaceScalarField;
    location    "4200";
    object      phib;
}
// * * * * * * * * * * * * * * * * * * * * * * * * * * * * * * * * * * * * * //

dimensions      [0 2 0 0 0 0 0];

internalField   nonuniform List<scalar> 
99
(
6.09092e-09
6.09068e-09
6.0904e-09
6.09397e-09
6.10064e-09
6.09611e-09
6.09246e-09
6.09121e-09
6.08952e-09
6.08846e-09
6.08827e-09
6.08755e-09
6.08722e-09
6.08703e-09
6.08624e-09
6.08566e-09
6.08538e-09
6.08496e-09
6.08467e-09
6.08449e-09
6.08405e-09
6.08355e-09
6.08316e-09
6.08276e-09
6.08243e-09
6.08153e-09
6.08166e-09
6.07991e-09
6.08058e-09
6.08022e-09
6.079e-09
6.07799e-09
6.07753e-09
6.07877e-09
6.07818e-09
6.07723e-09
6.07837e-09
6.07955e-09
6.08022e-09
6.08066e-09
6.08115e-09
6.08199e-09
6.08282e-09
6.0835e-09
6.08384e-09
6.08419e-09
6.08463e-09
6.08539e-09
6.08652e-09
6.0875e-09
6.0885e-09
6.08924e-09
6.08983e-09
6.09057e-09
6.09139e-09
6.09225e-09
6.09297e-09
6.09349e-09
6.09378e-09
6.09434e-09
6.09496e-09
6.09587e-09
6.09686e-09
6.09749e-09
6.09815e-09
6.09853e-09
6.09924e-09
6.10024e-09
6.10142e-09
6.10257e-09
6.10354e-09
6.10437e-09
6.10522e-09
6.10633e-09
6.10738e-09
6.10868e-09
6.10958e-09
6.1104e-09
6.11093e-09
6.11173e-09
6.11281e-09
6.11386e-09
6.11483e-09
6.11579e-09
6.11674e-09
6.11768e-09
6.11865e-09
6.11969e-09
6.1209e-09
6.12211e-09
6.1233e-09
6.12447e-09
6.1256e-09
6.12675e-09
6.12794e-09
6.12919e-09
6.13054e-09
6.13192e-09
6.1333e-09
)
;

boundaryField
{
    inlet
    {
        type            calculated;
        value           uniform -6.09112e-09;
    }
    outlet
    {
        type            calculated;
        value           uniform 6.13325e-09;
    }
    emptyWalls
    {
        type            empty;
        value           nonuniform List<scalar> 0();
    }
}


// ************************************************************************* //
