/*--------------------------------*- C++ -*----------------------------------*\
  =========                 |
  \\      /  F ield         | OpenFOAM: The Open Source CFD Toolbox
   \\    /   O peration     | Website:  https://openfoam.org
    \\  /    A nd           | Version:  9
     \\/     M anipulation  |
\*---------------------------------------------------------------------------*/
FoamFile
{
    format      ascii;
    class       surfaceScalarField;
    location    "4200";
    object      phic;
}
// * * * * * * * * * * * * * * * * * * * * * * * * * * * * * * * * * * * * * //

dimensions      [0 2 0 0 0 0 0];

internalField   nonuniform List<scalar> 
99
(
5.81583e-12
1.18667e-11
1.8597e-11
2.57493e-11
3.33185e-11
4.11211e-11
4.91769e-11
5.74813e-11
6.60402e-11
7.48431e-11
8.38605e-11
9.30634e-11
1.02414e-10
1.11885e-10
1.21455e-10
1.31095e-10
1.40799e-10
1.50566e-10
1.60389e-10
1.70271e-10
1.80218e-10
1.9023e-10
2.00305e-10
2.10446e-10
2.20639e-10
2.30898e-10
2.41265e-10
2.51963e-10
2.63441e-10
2.76757e-10
2.93488e-10
3.15068e-10
3.39769e-10
3.62197e-10
3.79411e-10
3.95737e-10
4.11327e-10
4.2667e-10
4.41875e-10
4.57061e-10
4.72291e-10
4.87582e-10
5.02961e-10
5.18445e-10
5.34044e-10
5.49762e-10
5.65595e-10
5.81541e-10
5.97608e-10
6.13804e-10
6.30122e-10
6.46566e-10
6.63137e-10
6.79832e-10
6.96648e-10
7.13581e-10
7.30642e-10
7.47828e-10
7.65141e-10
7.82565e-10
8.00103e-10
8.17763e-10
8.35525e-10
8.53421e-10
8.71427e-10
8.8955e-10
9.07787e-10
9.26107e-10
9.44567e-10
9.63108e-10
9.81786e-10
1.00055e-09
1.01946e-09
1.03839e-09
1.0575e-09
1.07679e-09
1.09555e-09
1.11623e-09
1.13391e-09
1.15355e-09
1.1744e-09
1.19414e-09
1.21313e-09
1.23283e-09
1.25347e-09
1.27379e-09
1.29351e-09
1.31343e-09
1.33395e-09
1.35446e-09
1.37471e-09
1.39496e-09
1.41543e-09
1.43598e-09
1.45647e-09
1.4769e-09
1.49731e-09
1.51775e-09
1.53812e-09
)
;

boundaryField
{
    inlet
    {
        type            calculated;
        value           uniform 0;
    }
    outlet
    {
        type            calculated;
        value           uniform 1.55165e-09;
    }
    emptyWalls
    {
        type            empty;
        value           nonuniform List<scalar> 0();
    }
}


// ************************************************************************* //
