/*--------------------------------*- C++ -*----------------------------------*\
  =========                 |
  \\      /  F ield         | OpenFOAM: The Open Source CFD Toolbox
   \\    /   O peration     | Website:  https://openfoam.org
    \\  /    A nd           | Version:  9
     \\/     M anipulation  |
\*---------------------------------------------------------------------------*/
FoamFile
{
    format      ascii;
    class       volVectorField;
    location    "4200";
    object      Ua;
}
// * * * * * * * * * * * * * * * * * * * * * * * * * * * * * * * * * * * * * //

dimensions      [0 0 0 0 0 0 0];

internalField   nonuniform List<vector> 
100
(
(0 0 8.96975e-06)
(0 0 1.13033e-05)
(0 0 1.12984e-05)
(0 0 1.12915e-05)
(0 0 1.12816e-05)
(0 0 1.12747e-05)
(0 0 1.12716e-05)
(0 0 1.1267e-05)
(0 0 1.12615e-05)
(0 0 1.12557e-05)
(0 0 1.12491e-05)
(0 0 1.12422e-05)
(0 0 1.12352e-05)
(0 0 1.1228e-05)
(0 0 1.12208e-05)
(0 0 1.12137e-05)
(0 0 1.12063e-05)
(0 0 1.11988e-05)
(0 0 1.11913e-05)
(0 0 1.11837e-05)
(0 0 1.1176e-05)
(0 0 1.11685e-05)
(0 0 1.11608e-05)
(0 0 1.11531e-05)
(0 0 1.11453e-05)
(0 0 1.11377e-05)
(0 0 1.11298e-05)
(0 0 1.1122e-05)
(0 0 1.11136e-05)
(0 0 1.11036e-05)
(0 0 1.10923e-05)
(0 0 1.1078e-05)
(0 0 1.10601e-05)
(0 0 1.10411e-05)
(0 0 1.1025e-05)
(0 0 1.10123e-05)
(0 0 1.09995e-05)
(0 0 1.09863e-05)
(0 0 1.09734e-05)
(0 0 1.09609e-05)
(0 0 1.09484e-05)
(0 0 1.09357e-05)
(0 0 1.09229e-05)
(0 0 1.091e-05)
(0 0 1.08972e-05)
(0 0 1.08845e-05)
(0 0 1.08716e-05)
(0 0 1.08585e-05)
(0 0 1.0845e-05)
(0 0 1.08313e-05)
(0 0 1.08176e-05)
(0 0 1.08039e-05)
(0 0 1.07902e-05)
(0 0 1.07764e-05)
(0 0 1.07625e-05)
(0 0 1.07484e-05)
(0 0 1.07342e-05)
(0 0 1.07201e-05)
(0 0 1.0706e-05)
(0 0 1.06919e-05)
(0 0 1.06775e-05)
(0 0 1.06629e-05)
(0 0 1.0648e-05)
(0 0 1.06332e-05)
(0 0 1.06184e-05)
(0 0 1.06036e-05)
(0 0 1.05887e-05)
(0 0 1.05735e-05)
(0 0 1.0558e-05)
(0 0 1.05423e-05)
(0 0 1.05267e-05)
(0 0 1.05111e-05)
(0 0 1.04954e-05)
(0 0 1.04796e-05)
(0 0 1.04636e-05)
(0 0 1.04474e-05)
(0 0 1.04314e-05)
(0 0 1.0415e-05)
(0 0 1.03992e-05)
(0 0 1.03838e-05)
(0 0 1.03669e-05)
(0 0 1.03499e-05)
(0 0 1.03337e-05)
(0 0 1.03176e-05)
(0 0 1.03008e-05)
(0 0 1.02837e-05)
(0 0 1.0267e-05)
(0 0 1.02505e-05)
(0 0 1.02335e-05)
(0 0 1.02162e-05)
(0 0 1.0199e-05)
(0 0 1.0182e-05)
(0 0 1.01648e-05)
(0 0 1.01476e-05)
(0 0 1.01303e-05)
(0 0 1.01131e-05)
(0 0 1.00958e-05)
(0 0 1.00785e-05)
(0 0 1.00611e-05)
(0 0 1.00471e-05)
)
;

boundaryField
{
    inlet
    {
        type            fixedValue;
        value           uniform (0 0 1.131e-05);
    }
    outlet
    {
        type            zeroGradient;
    }
    emptyWalls
    {
        type            empty;
    }
}


// ************************************************************************* //
