/*--------------------------------*- C++ -*----------------------------------*\
  =========                 |
  \\      /  F ield         | OpenFOAM: The Open Source CFD Toolbox
   \\    /   O peration     | Website:  https://openfoam.org
    \\  /    A nd           | Version:  9
     \\/     M anipulation  |
\*---------------------------------------------------------------------------*/
FoamFile
{
    format      ascii;
    class       volVectorField;
    location    "4200";
    object      Ub;
}
// * * * * * * * * * * * * * * * * * * * * * * * * * * * * * * * * * * * * * //

dimensions      [0 0 0 0 0 0 0];

internalField   nonuniform List<vector> 
100
(
(0 0 7.18059e-06)
(0 0 4.8469e-06)
(0 0 4.8467e-06)
(0 0 4.84801e-06)
(0 0 4.85208e-06)
(0 0 4.85293e-06)
(0 0 4.84968e-06)
(0 0 4.84773e-06)
(0 0 4.84656e-06)
(0 0 4.84547e-06)
(0 0 4.84497e-06)
(0 0 4.8446e-06)
(0 0 4.84419e-06)
(0 0 4.84398e-06)
(0 0 4.84359e-06)
(0 0 4.84304e-06)
(0 0 4.84271e-06)
(0 0 4.84242e-06)
(0 0 4.84214e-06)
(0 0 4.84196e-06)
(0 0 4.84171e-06)
(0 0 4.84133e-06)
(0 0 4.84098e-06)
(0 0 4.84067e-06)
(0 0 4.84038e-06)
(0 0 4.83988e-06)
(0 0 4.83958e-06)
(0 0 4.83894e-06)
(0 0 4.83851e-06)
(0 0 4.83863e-06)
(0 0 4.838e-06)
(0 0 4.83711e-06)
(0 0 4.83653e-06)
(0 0 4.83684e-06)
(0 0 4.8371e-06)
(0 0 4.83648e-06)
(0 0 4.83656e-06)
(0 0 4.83748e-06)
(0 0 4.83822e-06)
(0 0 4.83866e-06)
(0 0 4.83903e-06)
(0 0 4.83956e-06)
(0 0 4.84022e-06)
(0 0 4.84082e-06)
(0 0 4.84123e-06)
(0 0 4.8415e-06)
(0 0 4.84182e-06)
(0 0 4.8423e-06)
(0 0 4.84305e-06)
(0 0 4.84389e-06)
(0 0 4.84468e-06)
(0 0 4.84537e-06)
(0 0 4.8459e-06)
(0 0 4.84643e-06)
(0 0 4.84705e-06)
(0 0 4.84772e-06)
(0 0 4.84834e-06)
(0 0 4.84884e-06)
(0 0 4.84916e-06)
(0 0 4.8495e-06)
(0 0 4.84997e-06)
(0 0 4.85058e-06)
(0 0 4.85133e-06)
(0 0 4.85198e-06)
(0 0 4.85249e-06)
(0 0 4.85291e-06)
(0 0 4.85334e-06)
(0 0 4.85402e-06)
(0 0 4.85489e-06)
(0 0 4.85581e-06)
(0 0 4.85666e-06)
(0 0 4.85738e-06)
(0 0 4.85804e-06)
(0 0 4.85882e-06)
(0 0 4.85968e-06)
(0 0 4.86062e-06)
(0 0 4.86149e-06)
(0 0 4.86218e-06)
(0 0 4.86271e-06)
(0 0 4.86324e-06)
(0 0 4.86399e-06)
(0 0 4.86484e-06)
(0 0 4.86564e-06)
(0 0 4.86641e-06)
(0 0 4.86717e-06)
(0 0 4.86792e-06)
(0 0 4.86868e-06)
(0 0 4.86948e-06)
(0 0 4.87038e-06)
(0 0 4.87134e-06)
(0 0 4.8723e-06)
(0 0 4.87323e-06)
(0 0 4.87415e-06)
(0 0 4.87506e-06)
(0 0 4.87599e-06)
(0 0 4.87696e-06)
(0 0 4.87799e-06)
(0 0 4.87908e-06)
(0 0 4.88018e-06)
(0 0 4.8807e-06)
)
;

boundaryField
{
    inlet
    {
        type            fixedValue;
        value           uniform (0 0 4.84716e-06);
    }
    outlet
    {
        type            zeroGradient;
    }
    emptyWalls
    {
        type            empty;
    }
}


// ************************************************************************* //
