/*--------------------------------*- C++ -*----------------------------------*\
  =========                 |
  \\      /  F ield         | OpenFOAM: The Open Source CFD Toolbox
   \\    /   O peration     | Website:  https://openfoam.org
    \\  /    A nd           | Version:  9
     \\/     M anipulation  |
\*---------------------------------------------------------------------------*/
FoamFile
{
    format      ascii;
    class       volVectorField;
    location    "4200";
    object      Uc;
}
// * * * * * * * * * * * * * * * * * * * * * * * * * * * * * * * * * * * * * //

dimensions      [0 0 0 0 0 0 0];

internalField   nonuniform List<vector> 
100
(
(0 0 6.85628e-09)
(0 0 7.03564e-09)
(0 0 1.21211e-08)
(0 0 1.76448e-08)
(0 0 2.35023e-08)
(0 0 2.96186e-08)
(0 0 3.59284e-08)
(0 0 4.24379e-08)
(0 0 4.91476e-08)
(0 0 5.60557e-08)
(0 0 6.31462e-08)
(0 0 7.03958e-08)
(0 0 7.77781e-08)
(0 0 8.52671e-08)
(0 0 9.28431e-08)
(0 0 1.00486e-07)
(0 0 1.08183e-07)
(0 0 1.1593e-07)
(0 0 1.23725e-07)
(0 0 1.31565e-07)
(0 0 1.39455e-07)
(0 0 1.47397e-07)
(0 0 1.55389e-07)
(0 0 1.63433e-07)
(0 0 1.71523e-07)
(0 0 1.79661e-07)
(0 0 1.87868e-07)
(0 0 1.96249e-07)
(0 0 2.05073e-07)
(0 0 2.14938e-07)
(0 0 2.26894e-07)
(0 0 2.42137e-07)
(0 0 2.60551e-07)
(0 0 2.79303e-07)
(0 0 2.95076e-07)
(0 0 3.08421e-07)
(0 0 3.2112e-07)
(0 0 3.33428e-07)
(0 0 3.45583e-07)
(0 0 3.57675e-07)
(0 0 3.69778e-07)
(0 0 3.81922e-07)
(0 0 3.94125e-07)
(0 0 4.06404e-07)
(0 0 4.18772e-07)
(0 0 4.31233e-07)
(0 0 4.43787e-07)
(0 0 4.56431e-07)
(0 0 4.69169e-07)
(0 0 4.82006e-07)
(0 0 4.94942e-07)
(0 0 5.07978e-07)
(0 0 5.21114e-07)
(0 0 5.3435e-07)
(0 0 5.47684e-07)
(0 0 5.61112e-07)
(0 0 5.74638e-07)
(0 0 5.88265e-07)
(0 0 6.01991e-07)
(0 0 6.15813e-07)
(0 0 6.29724e-07)
(0 0 6.43729e-07)
(0 0 6.57822e-07)
(0 0 6.7201e-07)
(0 0 6.86295e-07)
(0 0 7.00671e-07)
(0 0 7.15137e-07)
(0 0 7.29683e-07)
(0 0 7.44317e-07)
(0 0 7.5904e-07)
(0 0 7.73849e-07)
(0 0 7.88745e-07)
(0 0 8.03737e-07)
(0 0 8.18795e-07)
(0 0 8.3393e-07)
(0 0 8.49209e-07)
(0 0 8.64346e-07)
(0 0 8.80038e-07)
(0 0 8.95303e-07)
(0 0 9.10153e-07)
(0 0 9.26262e-07)
(0 0 9.42414e-07)
(0 0 9.57824e-07)
(0 0 9.73216e-07)
(0 0 9.89267e-07)
(0 0 1.00556e-06)
(0 0 1.02149e-06)
(0 0 1.03726e-06)
(0 0 1.05336e-06)
(0 0 1.06969e-06)
(0 0 1.08591e-06)
(0 0 1.10202e-06)
(0 0 1.11822e-06)
(0 0 1.13454e-06)
(0 0 1.15087e-06)
(0 0 1.16715e-06)
(0 0 1.1834e-06)
(0 0 1.19965e-06)
(0 0 1.21589e-06)
(0 0 1.22938e-06)
)
;

boundaryField
{
    inlet
    {
        type            fixedValue;
        value           uniform (0 0 0);
    }
    outlet
    {
        type            zeroGradient;
    }
    emptyWalls
    {
        type            empty;
    }
}


// ************************************************************************* //
