/*--------------------------------*- C++ -*----------------------------------*\
  =========                 |
  \\      /  F ield         | OpenFOAM: The Open Source CFD Toolbox
   \\    /   O peration     | Website:  https://openfoam.org
    \\  /    A nd           | Version:  9
     \\/     M anipulation  |
\*---------------------------------------------------------------------------*/
FoamFile
{
    format      ascii;
    class       surfaceScalarField;
    location    "25450";
    object      phia;
}
// * * * * * * * * * * * * * * * * * * * * * * * * * * * * * * * * * * * * * //

dimensions      [0 2 0 0 0 0 0];

internalField   nonuniform List<scalar> 
999
(
2.74884e-10
2.7488e-10
2.74859e-10
2.74851e-10
2.74819e-10
2.74807e-10
2.7477e-10
2.74753e-10
2.7471e-10
2.74677e-10
2.74636e-10
2.74576e-10
2.74541e-10
2.74466e-10
2.74417e-10
2.74343e-10
2.7427e-10
2.74196e-10
2.74117e-10
2.7404e-10
2.73968e-10
2.73895e-10
2.73828e-10
2.73756e-10
2.737e-10
2.73625e-10
2.73586e-10
2.73521e-10
2.73482e-10
2.73441e-10
2.73389e-10
2.73347e-10
2.732e-10
2.72726e-10
2.70869e-10
2.60171e-10
2.22614e-10
2.14532e-10
2.12374e-10
2.11431e-10
2.10879e-10
2.10483e-10
2.10153e-10
2.09863e-10
2.09624e-10
2.09448e-10
2.09317e-10
2.09186e-10
2.09013e-10
2.08793e-10
2.08574e-10
2.08432e-10
2.08441e-10
2.08638e-10
2.09004e-10
2.09476e-10
2.09963e-10
2.10379e-10
2.10662e-10
2.10794e-10
2.10794e-10
2.10714e-10
2.10612e-10
2.1048e-10
2.10083e-10
2.09511e-10
2.08903e-10
2.08313e-10
2.07782e-10
2.07322e-10
2.06945e-10
2.0665e-10
2.06432e-10
2.06286e-10
2.06182e-10
2.06116e-10
2.06075e-10
2.06051e-10
2.06035e-10
2.06017e-10
2.0599e-10
2.05953e-10
2.05903e-10
2.05844e-10
2.05777e-10
2.05704e-10
2.05628e-10
2.05549e-10
2.05469e-10
2.05389e-10
2.05311e-10
2.05234e-10
2.05159e-10
2.05087e-10
2.05018e-10
2.04952e-10
2.04891e-10
2.04834e-10
2.04782e-10
2.04736e-10
2.04694e-10
2.04653e-10
2.04612e-10
2.04573e-10
2.04534e-10
2.04497e-10
2.04461e-10
2.04426e-10
2.04392e-10
2.04361e-10
2.0433e-10
2.04301e-10
2.04273e-10
2.04247e-10
2.04221e-10
2.04196e-10
2.04173e-10
2.0415e-10
2.04128e-10
2.04108e-10
2.04089e-10
2.04073e-10
2.04059e-10
2.04047e-10
2.04037e-10
2.04029e-10
2.04022e-10
2.04016e-10
2.04011e-10
2.04005e-10
2.03998e-10
2.0399e-10
2.03983e-10
2.03975e-10
2.03967e-10
2.03961e-10
2.03958e-10
2.03958e-10
2.03961e-10
2.03966e-10
2.03974e-10
2.03983e-10
2.03991e-10
2.03999e-10
2.04004e-10
2.04007e-10
2.04006e-10
2.04002e-10
2.03994e-10
2.03985e-10
2.03977e-10
2.03974e-10
2.03983e-10
2.04008e-10
2.04053e-10
2.04124e-10
2.04221e-10
2.04345e-10
2.04494e-10
2.04665e-10
2.04855e-10
2.0506e-10
2.05274e-10
2.05494e-10
2.05716e-10
2.05933e-10
2.0614e-10
2.06333e-10
2.06504e-10
2.06647e-10
2.06758e-10
2.0683e-10
2.06861e-10
2.06848e-10
2.06792e-10
2.06693e-10
2.06556e-10
2.06386e-10
2.06189e-10
2.05973e-10
2.05745e-10
2.05512e-10
2.05283e-10
2.05062e-10
2.04856e-10
2.04666e-10
2.04497e-10
2.04349e-10
2.04222e-10
2.04116e-10
2.04029e-10
2.03959e-10
2.03904e-10
2.03862e-10
2.03829e-10
2.03803e-10
2.03782e-10
2.03764e-10
2.03748e-10
2.03731e-10
2.03714e-10
2.03694e-10
2.03672e-10
2.03646e-10
2.03618e-10
2.03587e-10
2.03554e-10
2.03517e-10
2.03479e-10
2.03439e-10
2.03397e-10
2.03354e-10
2.03309e-10
2.03265e-10
2.03219e-10
2.03174e-10
2.03129e-10
2.03084e-10
2.03039e-10
2.02994e-10
2.02951e-10
2.02907e-10
2.02865e-10
2.02823e-10
2.02782e-10
2.02742e-10
2.02703e-10
2.02665e-10
2.02628e-10
2.02592e-10
2.02557e-10
2.02523e-10
2.0249e-10
2.02459e-10
2.02428e-10
2.02398e-10
2.02369e-10
2.02341e-10
2.02314e-10
2.02288e-10
2.02264e-10
2.0224e-10
2.02218e-10
2.02197e-10
2.02178e-10
2.02159e-10
2.02142e-10
2.02126e-10
2.02112e-10
2.02098e-10
2.02085e-10
2.02072e-10
2.02061e-10
2.0205e-10
2.02039e-10
2.02029e-10
2.02019e-10
2.02011e-10
2.02003e-10
2.01996e-10
2.01989e-10
2.01984e-10
2.0198e-10
2.01977e-10
2.01975e-10
2.01974e-10
2.01973e-10
2.01972e-10
2.01971e-10
2.0197e-10
2.01968e-10
2.01966e-10
2.01963e-10
2.01959e-10
2.01957e-10
2.01955e-10
2.01956e-10
2.0196e-10
2.0197e-10
2.01985e-10
2.02008e-10
2.02041e-10
2.02083e-10
2.02136e-10
2.02201e-10
2.02278e-10
2.02367e-10
2.02468e-10
2.0258e-10
2.02702e-10
2.02833e-10
2.02972e-10
2.03116e-10
2.03263e-10
2.03411e-10
2.03557e-10
2.03699e-10
2.03833e-10
2.03957e-10
2.04068e-10
2.04164e-10
2.04241e-10
2.04298e-10
2.04333e-10
2.04345e-10
2.04335e-10
2.04301e-10
2.04244e-10
2.04167e-10
2.0407e-10
2.03956e-10
2.03827e-10
2.03688e-10
2.0354e-10
2.03387e-10
2.03231e-10
2.03077e-10
2.02925e-10
2.02778e-10
2.02639e-10
2.02508e-10
2.02386e-10
2.02275e-10
2.02173e-10
2.02081e-10
2.02e-10
2.01927e-10
2.01862e-10
2.01805e-10
2.01755e-10
2.0171e-10
2.0167e-10
2.01634e-10
2.016e-10
2.01569e-10
2.01539e-10
2.01509e-10
2.0148e-10
2.01451e-10
2.01421e-10
2.01391e-10
2.01359e-10
2.01326e-10
2.01293e-10
2.01258e-10
2.01222e-10
2.01185e-10
2.01147e-10
2.01109e-10
2.0107e-10
2.0103e-10
2.0099e-10
2.00949e-10
2.00909e-10
2.00868e-10
2.00828e-10
2.00787e-10
2.00747e-10
2.00707e-10
2.00668e-10
2.00629e-10
2.00591e-10
2.00553e-10
2.00516e-10
2.00479e-10
2.00444e-10
2.00409e-10
2.00375e-10
2.00341e-10
2.00308e-10
2.00277e-10
2.00246e-10
2.00216e-10
2.00186e-10
2.00158e-10
2.0013e-10
2.00104e-10
2.00078e-10
2.00053e-10
2.00029e-10
2.00006e-10
1.99984e-10
1.99963e-10
1.99943e-10
1.99924e-10
1.99906e-10
1.99888e-10
1.99872e-10
1.99856e-10
1.99841e-10
1.99826e-10
1.99813e-10
1.99799e-10
1.99787e-10
1.99775e-10
1.99764e-10
1.99754e-10
1.99744e-10
1.99735e-10
1.99726e-10
1.99718e-10
1.99711e-10
1.99704e-10
1.99698e-10
1.99692e-10
1.99686e-10
1.99681e-10
1.99676e-10
1.99671e-10
1.99667e-10
1.99662e-10
1.99658e-10
1.99655e-10
1.99651e-10
1.99649e-10
1.99648e-10
1.99648e-10
1.9965e-10
1.99655e-10
1.99663e-10
1.99674e-10
1.9969e-10
1.9971e-10
1.99736e-10
1.99767e-10
1.99805e-10
1.99849e-10
1.999e-10
1.99957e-10
2.00022e-10
2.00094e-10
2.00172e-10
2.00256e-10
2.00346e-10
2.0044e-10
2.00539e-10
2.0064e-10
2.00743e-10
2.00847e-10
2.00951e-10
2.01052e-10
2.0115e-10
2.01242e-10
2.01329e-10
2.01407e-10
2.01477e-10
2.01536e-10
2.01584e-10
2.0162e-10
2.01642e-10
2.01651e-10
2.01646e-10
2.01627e-10
2.01594e-10
2.01548e-10
2.01489e-10
2.01419e-10
2.01338e-10
2.01248e-10
2.0115e-10
2.01045e-10
2.00936e-10
2.00823e-10
2.00709e-10
2.00593e-10
2.00479e-10
2.00366e-10
2.00257e-10
2.00151e-10
2.0005e-10
1.99953e-10
1.99862e-10
1.99776e-10
1.99696e-10
1.99622e-10
1.99553e-10
1.99489e-10
1.9943e-10
1.99375e-10
1.99324e-10
1.99277e-10
1.99233e-10
1.99192e-10
1.99153e-10
1.99116e-10
1.9908e-10
1.99045e-10
1.99011e-10
1.98978e-10
1.98945e-10
1.98912e-10
1.98879e-10
1.98846e-10
1.98812e-10
1.98778e-10
1.98744e-10
1.98709e-10
1.98673e-10
1.98638e-10
1.98601e-10
1.98565e-10
1.98528e-10
1.98491e-10
1.98453e-10
1.98416e-10
1.98379e-10
1.98341e-10
1.98304e-10
1.98266e-10
1.98229e-10
1.98192e-10
1.98156e-10
1.98119e-10
1.98083e-10
1.98048e-10
1.98013e-10
1.97978e-10
1.97944e-10
1.97911e-10
1.97878e-10
1.97846e-10
1.97814e-10
1.97783e-10
1.97753e-10
1.97723e-10
1.97694e-10
1.97666e-10
1.97638e-10
1.97612e-10
1.97585e-10
1.9756e-10
1.97536e-10
1.97512e-10
1.97489e-10
1.97466e-10
1.97445e-10
1.97424e-10
1.97404e-10
1.97384e-10
1.97365e-10
1.97347e-10
1.9733e-10
1.97313e-10
1.97297e-10
1.97282e-10
1.97267e-10
1.97252e-10
1.97239e-10
1.97226e-10
1.97213e-10
1.97201e-10
1.97189e-10
1.97178e-10
1.97167e-10
1.97157e-10
1.97147e-10
1.97138e-10
1.97129e-10
1.9712e-10
1.97112e-10
1.97104e-10
1.97096e-10
1.97089e-10
1.97082e-10
1.97076e-10
1.9707e-10
1.97065e-10
1.97061e-10
1.97058e-10
1.97056e-10
1.97056e-10
1.97057e-10
1.97061e-10
1.97066e-10
1.97074e-10
1.97084e-10
1.97098e-10
1.97115e-10
1.97136e-10
1.97161e-10
1.97189e-10
1.97222e-10
1.97259e-10
1.973e-10
1.97346e-10
1.97396e-10
1.97451e-10
1.97509e-10
1.97572e-10
1.97638e-10
1.97706e-10
1.97778e-10
1.97852e-10
1.97927e-10
1.98003e-10
1.98079e-10
1.98155e-10
1.9823e-10
1.98302e-10
1.98372e-10
1.98438e-10
1.98499e-10
1.98555e-10
1.98606e-10
1.98649e-10
1.98686e-10
1.98715e-10
1.98735e-10
1.98747e-10
1.9875e-10
1.98743e-10
1.98728e-10
1.98704e-10
1.98671e-10
1.9863e-10
1.9858e-10
1.98523e-10
1.98459e-10
1.98389e-10
1.98313e-10
1.98233e-10
1.98149e-10
1.98062e-10
1.97972e-10
1.97881e-10
1.9779e-10
1.97699e-10
1.97608e-10
1.97519e-10
1.97431e-10
1.97346e-10
1.97263e-10
1.97184e-10
1.97107e-10
1.97034e-10
1.96964e-10
1.96897e-10
1.96834e-10
1.96774e-10
1.96717e-10
1.96663e-10
1.96612e-10
1.96563e-10
1.96516e-10
1.96471e-10
1.96429e-10
1.96387e-10
1.96348e-10
1.96309e-10
1.96271e-10
1.96234e-10
1.96198e-10
1.96162e-10
1.96127e-10
1.96091e-10
1.96056e-10
1.96021e-10
1.95986e-10
1.95951e-10
1.95915e-10
1.9588e-10
1.95844e-10
1.95808e-10
1.95772e-10
1.95736e-10
1.957e-10
1.95663e-10
1.95627e-10
1.95591e-10
1.95554e-10
1.95518e-10
1.95482e-10
1.95446e-10
1.9541e-10
1.95374e-10
1.95339e-10
1.95303e-10
1.95268e-10
1.95234e-10
1.952e-10
1.95166e-10
1.95133e-10
1.951e-10
1.95068e-10
1.95036e-10
1.95004e-10
1.94974e-10
1.94944e-10
1.94914e-10
1.94885e-10
1.94856e-10
1.94829e-10
1.94801e-10
1.94775e-10
1.94749e-10
1.94724e-10
1.94699e-10
1.94675e-10
1.94652e-10
1.94629e-10
1.94607e-10
1.94585e-10
1.94564e-10
1.94544e-10
1.94525e-10
1.94506e-10
1.94487e-10
1.94469e-10
1.94452e-10
1.94435e-10
1.94419e-10
1.94403e-10
1.94388e-10
1.94373e-10
1.94359e-10
1.94346e-10
1.94332e-10
1.94319e-10
1.94307e-10
1.94295e-10
1.94283e-10
1.94272e-10
1.94262e-10
1.94251e-10
1.94241e-10
1.94232e-10
1.94223e-10
1.94214e-10
1.94206e-10
1.94198e-10
1.94191e-10
1.94185e-10
1.9418e-10
1.94175e-10
1.94172e-10
1.94169e-10
1.94168e-10
1.94168e-10
1.9417e-10
1.94174e-10
1.94179e-10
1.94186e-10
1.94195e-10
1.94207e-10
1.94221e-10
1.94238e-10
1.94257e-10
1.94279e-10
1.94304e-10
1.94332e-10
1.94363e-10
1.94396e-10
1.94433e-10
1.94473e-10
1.94515e-10
1.9456e-10
1.94607e-10
1.94657e-10
1.94709e-10
1.94762e-10
1.94817e-10
1.94873e-10
1.9493e-10
1.94987e-10
1.95044e-10
1.95101e-10
1.95157e-10
1.95211e-10
1.95263e-10
1.95314e-10
1.95361e-10
1.95405e-10
1.95445e-10
1.95482e-10
1.95513e-10
1.9554e-10
1.95561e-10
1.95577e-10
1.95587e-10
1.95591e-10
1.95588e-10
1.9558e-10
1.95565e-10
1.95544e-10
1.95517e-10
1.95483e-10
1.95444e-10
1.954e-10
1.9535e-10
1.95295e-10
1.95236e-10
1.95173e-10
1.95106e-10
1.95037e-10
1.94964e-10
1.9489e-10
1.94814e-10
1.94737e-10
1.94659e-10
1.94581e-10
1.94504e-10
1.94426e-10
1.9435e-10
1.94275e-10
1.94201e-10
1.94129e-10
1.94059e-10
1.9399e-10
1.93924e-10
1.9386e-10
1.93798e-10
1.93738e-10
1.9368e-10
1.93624e-10
1.93571e-10
1.93519e-10
1.93469e-10
1.93421e-10
1.93374e-10
1.93328e-10
1.93284e-10
1.93241e-10
1.932e-10
1.93159e-10
1.93119e-10
1.93079e-10
1.93041e-10
1.93002e-10
1.92965e-10
1.92927e-10
1.9289e-10
1.92853e-10
1.92816e-10
1.9278e-10
1.92743e-10
1.92707e-10
1.9267e-10
1.92634e-10
1.92597e-10
1.92561e-10
1.92525e-10
1.92488e-10
1.92452e-10
1.92416e-10
1.9238e-10
1.92344e-10
1.92308e-10
1.92272e-10
1.92237e-10
1.92201e-10
1.92166e-10
1.92131e-10
1.92097e-10
1.92062e-10
1.92028e-10
1.91995e-10
1.91961e-10
1.91928e-10
1.91895e-10
1.91863e-10
1.91831e-10
1.918e-10
1.91769e-10
1.91738e-10
1.91708e-10
1.91679e-10
1.9165e-10
1.91621e-10
1.91593e-10
1.91565e-10
1.91538e-10
1.91512e-10
1.91486e-10
1.9146e-10
1.91435e-10
1.91411e-10
1.91387e-10
1.91363e-10
1.9134e-10
1.91318e-10
1.91296e-10
1.91274e-10
1.91253e-10
1.91233e-10
1.91212e-10
1.91193e-10
1.91174e-10
1.91155e-10
1.91136e-10
1.91118e-10
1.91101e-10
1.91084e-10
1.91067e-10
1.91051e-10
1.91035e-10
1.91019e-10
1.91004e-10
1.90989e-10
1.90974e-10
1.9096e-10
1.90946e-10
1.90933e-10
1.9092e-10
1.90908e-10
1.90896e-10
1.90884e-10
1.90873e-10
1.90862e-10
1.90852e-10
1.90843e-10
1.90835e-10
1.90827e-10
1.9082e-10
1.90814e-10
1.90809e-10
1.90806e-10
1.90803e-10
1.90802e-10
1.90802e-10
1.90803e-10
1.90807e-10
1.90811e-10
1.90818e-10
1.90826e-10
1.90836e-10
1.90848e-10
1.90862e-10
1.90878e-10
1.90896e-10
1.90916e-10
1.90938e-10
1.90962e-10
1.90988e-10
1.91016e-10
1.91046e-10
1.91077e-10
1.91111e-10
1.91145e-10
1.91181e-10
1.91219e-10
1.91257e-10
1.91296e-10
1.91336e-10
1.91375e-10
1.91416e-10
1.91455e-10
1.91495e-10
1.91534e-10
1.91572e-10
1.91608e-10
1.91643e-10
1.91676e-10
1.91708e-10
1.91736e-10
1.91762e-10
1.91785e-10
1.91805e-10
1.91821e-10
1.91834e-10
1.91843e-10
1.91849e-10
1.9185e-10
1.91847e-10
1.91839e-10
1.91828e-10
1.91812e-10
1.91792e-10
1.91768e-10
1.9174e-10
1.91708e-10
1.91673e-10
1.91633e-10
1.91591e-10
1.91546e-10
1.91498e-10
1.91448e-10
1.91396e-10
1.91342e-10
1.91286e-10
1.9123e-10
1.91173e-10
1.91115e-10
1.91057e-10
1.90999e-10
1.90942e-10
1.90885e-10
1.9083e-10
1.90775e-10
1.90722e-10
1.90669e-10
1.90619e-10
1.9057e-10
1.90523e-10
1.90477e-10
1.90434e-10
1.90391e-10
1.90352e-10
1.90313e-10
1.90277e-10
)
;

boundaryField
{
    inlet
    {
        type            calculated;
        value           uniform -2.74882e-10;
    }
    outlet
    {
        type            calculated;
        value           uniform 2.48997e-11;
    }
    emptyWalls
    {
        type            empty;
        value           nonuniform List<scalar> 0();
    }
}


// ************************************************************************* //
