/*--------------------------------*- C++ -*----------------------------------*\
  =========                 |
  \\      /  F ield         | OpenFOAM: The Open Source CFD Toolbox
   \\    /   O peration     | Website:  https://openfoam.org
    \\  /    A nd           | Version:  9
     \\/     M anipulation  |
\*---------------------------------------------------------------------------*/
FoamFile
{
    format      ascii;
    class       volScalarField;
    location    "25450";
    object      Sa;
}
// * * * * * * * * * * * * * * * * * * * * * * * * * * * * * * * * * * * * * //

dimensions      [0 0 0 0 0 0 0];

internalField   nonuniform List<scalar> 
1000
(
0.549584
0.548748
0.547635
0.546512
0.545404
0.544262
0.543163
0.541992
0.540894
0.539687
0.538581
0.537352
0.536217
0.534997
0.533823
0.532625
0.53144
0.530263
0.52911
0.527979
0.526894
0.525853
0.524871
0.523957
0.523107
0.522352
0.521636
0.521058
0.520464
0.520035
0.519546
0.519139
0.518389
0.516323
0.508704
0.472349
0.269485
0.106645
0.074794
0.0640956
0.0586083
0.0550333
0.0523615
0.0501903
0.0483449
0.0467284
0.0452895
0.0439848
0.0427883
0.041677
0.0406444
0.0396857
0.0388047
0.0379983
0.0372631
0.0365875
0.0359601
0.0353667
0.0347983
0.0342472
0.0337132
0.033197
0.0327036
0.0322332
0.0317786
0.031317
0.0308695
0.0304414
0.0300344
0.0296507
0.0292882
0.0289484
0.0286271
0.0283252
0.0280385
0.0277626
0.0275003
0.0272507
0.0270129
0.0267858
0.0265688
0.026361
0.0261623
0.0259723
0.0257911
0.0256183
0.0254543
0.0252985
0.0251512
0.0250119
0.0248807
0.0247572
0.0246414
0.024533
0.0244322
0.0243394
0.0242556
0.0241823
0.0241209
0.0240719
0.0240334
0.0239996
0.0239651
0.0239297
0.0238938
0.0238576
0.0238212
0.0237848
0.0237485
0.0237122
0.0236761
0.0236402
0.0236046
0.0235691
0.0235339
0.0234989
0.0234641
0.0234296
0.0233953
0.0233613
0.0233276
0.0232942
0.0232611
0.0232284
0.0231961
0.023164
0.0231323
0.0231008
0.0230695
0.0230384
0.0230075
0.0229767
0.0229461
0.0229156
0.0228853
0.0228553
0.0228256
0.0227962
0.0227672
0.0227386
0.0227104
0.0226824
0.0226545
0.0226268
0.0225992
0.0225716
0.022544
0.0225163
0.0224885
0.0224608
0.0224331
0.0224058
0.0223792
0.0223535
0.0223292
0.0223065
0.0222854
0.0222662
0.0222487
0.0222328
0.0222183
0.0222049
0.0221924
0.0221804
0.0221688
0.0221572
0.0221452
0.0221326
0.0221191
0.0221041
0.0220875
0.0220687
0.0220477
0.0220243
0.0219983
0.0219698
0.021939
0.0219062
0.0218718
0.0218361
0.0217996
0.0217628
0.0217261
0.0216899
0.0216545
0.0216202
0.0215871
0.0215555
0.0215252
0.0214963
0.0214687
0.0214423
0.0214169
0.0213925
0.0213689
0.0213458
0.0213232
0.0213009
0.0212789
0.021257
0.0212351
0.0212132
0.0211913
0.0211694
0.0211473
0.0211252
0.021103
0.0210808
0.0210585
0.0210362
0.0210139
0.0209916
0.0209693
0.0209471
0.0209249
0.0209028
0.0208808
0.0208589
0.020837
0.0208153
0.0207937
0.0207723
0.0207509
0.0207297
0.0207086
0.0206877
0.0206668
0.0206461
0.0206256
0.0206052
0.0205849
0.0205648
0.0205448
0.0205249
0.0205052
0.0204856
0.0204661
0.0204468
0.0204276
0.0204085
0.0203896
0.0203708
0.0203521
0.0203336
0.0203152
0.020297
0.0202789
0.0202609
0.0202431
0.0202254
0.0202078
0.0201903
0.020173
0.0201557
0.0201385
0.0201214
0.0201044
0.0200875
0.0200707
0.0200541
0.0200375
0.020021
0.0200047
0.0199885
0.0199724
0.0199564
0.0199404
0.0199246
0.0199088
0.0198931
0.0198774
0.0198617
0.019846
0.0198304
0.0198148
0.0197994
0.019784
0.0197689
0.0197541
0.0197396
0.0197256
0.0197121
0.0196991
0.0196868
0.0196751
0.0196642
0.0196539
0.0196444
0.0196355
0.0196273
0.0196196
0.0196124
0.0196056
0.0195991
0.0195927
0.0195863
0.0195798
0.019573
0.0195658
0.0195579
0.0195493
0.0195399
0.0195294
0.0195178
0.0195051
0.0194912
0.0194761
0.0194598
0.0194423
0.0194238
0.0194044
0.0193842
0.0193633
0.019342
0.0193203
0.0192986
0.0192768
0.0192552
0.0192338
0.0192128
0.0191923
0.0191724
0.019153
0.0191341
0.0191159
0.0190982
0.0190811
0.0190645
0.0190484
0.0190327
0.0190173
0.0190023
0.0189875
0.0189729
0.0189585
0.0189442
0.0189301
0.018916
0.0189019
0.0188878
0.0188738
0.0188597
0.0188456
0.0188315
0.0188174
0.0188033
0.0187891
0.018775
0.0187608
0.0187466
0.0187324
0.0187183
0.0187041
0.01869
0.0186759
0.0186619
0.0186479
0.0186339
0.01862
0.0186061
0.0185923
0.0185786
0.0185649
0.0185513
0.0185378
0.0185243
0.0185109
0.0184976
0.0184843
0.0184712
0.0184581
0.018445
0.0184321
0.0184192
0.0184064
0.0183937
0.018381
0.0183684
0.0183559
0.0183435
0.0183312
0.0183189
0.0183068
0.0182947
0.0182826
0.0182707
0.0182588
0.018247
0.0182353
0.0182236
0.018212
0.0182005
0.018189
0.0181776
0.0181663
0.018155
0.0181437
0.0181326
0.0181215
0.0181104
0.0180994
0.0180885
0.0180776
0.0180668
0.018056
0.0180453
0.0180346
0.0180239
0.0180133
0.0180027
0.0179922
0.0179817
0.0179712
0.0179608
0.0179504
0.0179401
0.0179299
0.0179199
0.0179099
0.0179001
0.0178905
0.0178811
0.017872
0.0178632
0.0178546
0.0178464
0.0178385
0.017831
0.0178238
0.017817
0.0178106
0.0178045
0.0177988
0.0177933
0.0177882
0.0177832
0.0177785
0.0177739
0.0177694
0.0177649
0.0177604
0.0177557
0.0177508
0.0177457
0.0177403
0.0177344
0.0177281
0.0177212
0.0177138
0.0177057
0.017697
0.0176877
0.0176777
0.017667
0.0176556
0.0176437
0.0176311
0.0176181
0.0176046
0.0175906
0.0175764
0.0175618
0.0175472
0.0175323
0.0175175
0.0175027
0.017488
0.0174734
0.017459
0.0174449
0.017431
0.0174173
0.017404
0.017391
0.0173782
0.0173658
0.0173536
0.0173417
0.0173301
0.0173186
0.0173074
0.0172964
0.0172855
0.0172748
0.0172641
0.0172536
0.0172432
0.0172328
0.0172225
0.0172122
0.0172019
0.0171917
0.0171815
0.0171712
0.017161
0.0171508
0.0171406
0.0171303
0.0171201
0.0171099
0.0170996
0.0170894
0.0170791
0.0170689
0.0170587
0.0170485
0.0170383
0.0170281
0.017018
0.0170079
0.0169978
0.0169877
0.0169777
0.0169677
0.0169577
0.0169478
0.0169379
0.016928
0.0169182
0.0169085
0.0168988
0.0168891
0.0168795
0.0168699
0.0168604
0.0168509
0.0168415
0.0168321
0.0168228
0.0168135
0.0168043
0.0167951
0.016786
0.0167769
0.0167679
0.0167589
0.01675
0.0167412
0.0167323
0.0167236
0.0167148
0.0167062
0.0166975
0.0166889
0.0166804
0.0166719
0.0166635
0.016655
0.0166467
0.0166383
0.01663
0.0166218
0.0166136
0.0166054
0.0165972
0.0165891
0.016581
0.016573
0.016565
0.016557
0.016549
0.0165411
0.0165332
0.0165253
0.0165175
0.0165097
0.0165019
0.0164942
0.0164866
0.016479
0.0164715
0.0164641
0.0164567
0.0164495
0.0164424
0.0164355
0.0164287
0.016422
0.0164156
0.0164093
0.0164032
0.0163973
0.0163916
0.0163862
0.0163809
0.0163759
0.0163711
0.0163665
0.016362
0.0163578
0.0163537
0.0163498
0.016346
0.0163423
0.0163386
0.016335
0.0163313
0.0163277
0.016324
0.0163201
0.0163162
0.016312
0.0163076
0.016303
0.0162981
0.0162929
0.0162873
0.0162814
0.0162751
0.0162684
0.0162613
0.0162538
0.0162459
0.0162375
0.0162288
0.0162197
0.0162103
0.0162006
0.0161905
0.0161802
0.0161697
0.016159
0.0161482
0.0161372
0.0161262
0.0161151
0.0161041
0.016093
0.0160821
0.0160712
0.0160604
0.0160497
0.0160392
0.0160289
0.0160187
0.0160086
0.0159988
0.0159891
0.0159795
0.0159701
0.0159609
0.0159518
0.0159428
0.0159339
0.0159252
0.0159166
0.015908
0.0158995
0.0158911
0.0158828
0.0158745
0.0158662
0.015858
0.0158498
0.0158416
0.0158334
0.0158253
0.0158171
0.015809
0.0158009
0.0157928
0.0157846
0.0157765
0.0157684
0.0157603
0.0157522
0.0157441
0.015736
0.0157279
0.0157198
0.0157117
0.0157037
0.0156956
0.0156876
0.0156796
0.0156716
0.0156637
0.0156557
0.0156478
0.0156399
0.015632
0.0156242
0.0156164
0.0156086
0.0156008
0.0155931
0.0155854
0.0155778
0.0155702
0.0155626
0.015555
0.0155475
0.01554
0.0155326
0.0155252
0.0155178
0.0155105
0.0155032
0.0154959
0.0154887
0.0154815
0.0154744
0.0154673
0.0154602
0.0154532
0.0154461
0.0154392
0.0154322
0.0154253
0.0154184
0.0154116
0.0154048
0.015398
0.0153913
0.0153845
0.0153778
0.0153712
0.0153645
0.0153579
0.0153513
0.0153448
0.0153382
0.0153317
0.0153252
0.0153188
0.0153123
0.0153059
0.0152995
0.0152932
0.0152868
0.0152805
0.0152743
0.015268
0.0152619
0.0152557
0.0152497
0.0152436
0.0152377
0.0152318
0.015226
0.0152202
0.0152147
0.0152091
0.0152037
0.0151983
0.0151932
0.015188
0.0151832
0.0151782
0.0151736
0.0151689
0.0151646
0.0151601
0.0151562
0.0151519
0.0151482
0.0151442
0.0151408
0.0151369
0.0151337
0.0151299
0.0151269
0.0151232
0.0151202
0.0151166
0.0151137
0.01511
0.015107
0.0151032
0.0151
0.015096
0.0150926
0.0150884
0.0150845
0.01508
0.0150758
0.0150708
0.0150661
0.0150608
0.0150555
0.0150496
0.0150438
0.0150375
0.0150311
0.0150242
0.0150173
0.0150099
0.0150025
0.0149947
0.0149868
0.0149786
0.0149703
0.0149618
0.0149531
0.0149444
0.0149356
0.0149267
0.0149177
0.0149087
0.0148997
0.0148907
0.0148817
0.0148728
0.0148639
0.014855
0.0148463
0.0148376
0.014829
0.0148205
0.0148121
0.0148038
0.0147956
0.0147875
0.0147795
0.0147715
0.0147637
0.0147559
0.0147483
0.0147407
0.0147332
0.0147257
0.0147183
0.0147109
0.0147036
0.0146964
0.0146891
0.0146819
0.0146748
0.0146676
0.0146605
0.0146534
0.0146463
0.0146392
0.0146321
0.0146251
0.014618
0.014611
0.0146039
0.0145969
0.0145899
0.0145828
0.0145758
0.0145688
0.0145618
0.0145548
0.0145478
0.0145408
0.0145338
0.0145268
0.0145199
0.0145129
0.014506
0.014499
0.0144921
0.0144852
0.0144784
0.0144715
0.0144647
0.0144578
0.014451
0.0144442
0.0144375
0.0144307
0.014424
0.0144173
0.0144106
0.0144039
0.0143974
0.0143907
0.0143842
0.0143775
0.014371
0.0143645
0.014358
0.0143515
0.0143451
0.0143386
0.0143323
0.0143258
0.0143196
0.0143131
0.0143069
0.0143005
0.0142944
0.014288
0.0142819
0.0142756
0.0142695
0.0142632
0.0142572
0.014251
0.0142449
0.0142387
0.0142327
0.0142266
0.0142206
0.0142145
0.0142086
0.0142025
0.0141966
0.0141905
0.0141847
0.0141787
0.0141728
0.0141668
0.014161
0.0141551
0.0141493
0.0141435
0.0141377
0.0141319
0.0141262
0.0141205
0.0141149
0.0141092
0.0141037
0.0140981
0.0140927
0.0140872
0.014082
0.0140766
0.0140715
0.0140662
0.0140612
0.014056
0.0140513
0.0140462
0.0140417
0.0140367
0.0140324
0.0140276
0.0140234
0.0140188
0.0140148
0.0140103
0.0140065
0.0140021
0.0139984
0.0139942
0.0139906
0.0139864
0.013983
0.0139789
0.0139755
0.0139714
0.0139681
0.0139639
0.0139606
0.0139564
0.013953
0.0139487
0.0139452
0.0139407
0.0139371
0.0139325
0.0139287
0.0139238
0.0139199
0.0139147
0.0139105
0.0139052
0.0139007
0.0138951
0.0138904
0.0138846
0.0138797
0.0138736
0.0138685
0.0138623
0.013857
0.0138507
0.0138454
0.013839
0.0138337
0.0138273
0.0138221
0.0138158
0.0138107
0.0138046
0.0137999
0.013794
0.0137896
0.013784
0.01378
0.0137748
0.0137713
0.0137664
0.0137634
0.0137588
0.0137563
0.0137521
0.0137501
0.0137462
0.0137446
0.013741
0.0137399
0.0137365
0.0137357
0.0137321
0.182212
)
;

boundaryField
{
    inlet
    {
        type            fixedValue;
        value           uniform 0.55;
    }
    outlet
    {
        type            zeroGradient;
    }
    emptyWalls
    {
        type            empty;
    }
}


// ************************************************************************* //
