/*--------------------------------*- C++ -*----------------------------------*\
  =========                 |
  \\      /  F ield         | OpenFOAM: The Open Source CFD Toolbox
   \\    /   O peration     | Website:  https://openfoam.org
    \\  /    A nd           | Version:  9
     \\/     M anipulation  |
\*---------------------------------------------------------------------------*/
FoamFile
{
    format      ascii;
    class       volVectorField;
    location    "5800";
    object      Uc;
}
// * * * * * * * * * * * * * * * * * * * * * * * * * * * * * * * * * * * * * //

dimensions      [0 0 0 0 0 0 0];

internalField   nonuniform List<vector> 
1000
(
(1.1207e-10 0 0)
(5.80609e-10 0 0)
(1.42509e-09 0 0)
(2.50007e-09 0 0)
(4.00734e-09 0 0)
(7.80027e-09 0 0)
(1.99313e-08 0 0)
(7.58666e-08 0 0)
(1.61657e-07 0 0)
(2.08502e-07 0 0)
(2.2008e-07 0 0)
(2.26638e-07 0 0)
(2.31554e-07 0 0)
(2.35635e-07 0 0)
(2.39159e-07 0 0)
(2.42334e-07 0 0)
(2.45385e-07 0 0)
(2.48608e-07 0 0)
(2.52599e-07 0 0)
(2.57898e-07 0 0)
(2.64963e-07 0 0)
(2.74339e-07 0 0)
(2.8608e-07 0 0)
(2.99675e-07 0 0)
(3.14507e-07 0 0)
(3.30154e-07 0 0)
(3.46372e-07 0 0)
(3.63011e-07 0 0)
(3.79978e-07 0 0)
(3.97214e-07 0 0)
(4.14675e-07 0 0)
(4.32332e-07 0 0)
(4.50165e-07 0 0)
(4.68158e-07 0 0)
(4.86298e-07 0 0)
(5.04575e-07 0 0)
(5.2298e-07 0 0)
(5.41504e-07 0 0)
(5.60144e-07 0 0)
(5.78894e-07 0 0)
(5.97749e-07 0 0)
(6.16706e-07 0 0)
(6.3576e-07 0 0)
(6.54907e-07 0 0)
(6.74144e-07 0 0)
(6.93469e-07 0 0)
(7.12878e-07 0 0)
(7.32371e-07 0 0)
(7.51944e-07 0 0)
(7.71596e-07 0 0)
(7.91324e-07 0 0)
(8.11127e-07 0 0)
(8.31003e-07 0 0)
(8.50953e-07 0 0)
(8.70974e-07 0 0)
(8.91066e-07 0 0)
(9.11227e-07 0 0)
(9.31457e-07 0 0)
(9.51756e-07 0 0)
(9.72122e-07 0 0)
(9.92556e-07 0 0)
(1.01306e-06 0 0)
(1.03362e-06 0 0)
(1.05425e-06 0 0)
(1.07495e-06 0 0)
(1.09571e-06 0 0)
(1.11653e-06 0 0)
(1.13742e-06 0 0)
(1.15837e-06 0 0)
(1.17939e-06 0 0)
(1.20047e-06 0 0)
(1.22161e-06 0 0)
(1.24281e-06 0 0)
(1.26407e-06 0 0)
(1.2854e-06 0 0)
(1.30678e-06 0 0)
(1.32823e-06 0 0)
(1.34973e-06 0 0)
(1.3713e-06 0 0)
(1.39293e-06 0 0)
(1.41461e-06 0 0)
(1.43636e-06 0 0)
(1.45816e-06 0 0)
(1.48003e-06 0 0)
(1.50196e-06 0 0)
(1.52395e-06 0 0)
(1.546e-06 0 0)
(1.56811e-06 0 0)
(1.59029e-06 0 0)
(1.61253e-06 0 0)
(1.63483e-06 0 0)
(1.6572e-06 0 0)
(1.67963e-06 0 0)
(1.70213e-06 0 0)
(1.72469e-06 0 0)
(1.74732e-06 0 0)
(1.77002e-06 0 0)
(1.79279e-06 0 0)
(1.81563e-06 0 0)
(1.83853e-06 0 0)
(1.86151e-06 0 0)
(1.88455e-06 0 0)
(1.90766e-06 0 0)
(1.93085e-06 0 0)
(1.9541e-06 0 0)
(1.97742e-06 0 0)
(2.00081e-06 0 0)
(2.02427e-06 0 0)
(2.0478e-06 0 0)
(2.0714e-06 0 0)
(2.09507e-06 0 0)
(2.11881e-06 0 0)
(2.14263e-06 0 0)
(2.16652e-06 0 0)
(2.19049e-06 0 0)
(2.21452e-06 0 0)
(2.23863e-06 0 0)
(2.26281e-06 0 0)
(2.28705e-06 0 0)
(2.31136e-06 0 0)
(2.33573e-06 0 0)
(2.36015e-06 0 0)
(2.38463e-06 0 0)
(2.40915e-06 0 0)
(2.43374e-06 0 0)
(2.45837e-06 0 0)
(2.48306e-06 0 0)
(2.50781e-06 0 0)
(2.53262e-06 0 0)
(2.55751e-06 0 0)
(2.58247e-06 0 0)
(2.60751e-06 0 0)
(2.63265e-06 0 0)
(2.6579e-06 0 0)
(2.68327e-06 0 0)
(2.70876e-06 0 0)
(2.7344e-06 0 0)
(2.7602e-06 0 0)
(2.78617e-06 0 0)
(2.81232e-06 0 0)
(2.83866e-06 0 0)
(2.86519e-06 0 0)
(2.89193e-06 0 0)
(2.91886e-06 0 0)
(2.946e-06 0 0)
(2.97334e-06 0 0)
(3.00086e-06 0 0)
(3.02856e-06 0 0)
(3.05642e-06 0 0)
(3.08443e-06 0 0)
(3.11258e-06 0 0)
(3.14084e-06 0 0)
(3.16922e-06 0 0)
(3.1977e-06 0 0)
(3.22626e-06 0 0)
(3.25491e-06 0 0)
(3.28363e-06 0 0)
(3.31244e-06 0 0)
(3.34133e-06 0 0)
(3.3703e-06 0 0)
(3.39935e-06 0 0)
(3.42851e-06 0 0)
(3.45777e-06 0 0)
(3.48715e-06 0 0)
(3.51665e-06 0 0)
(3.54628e-06 0 0)
(3.57605e-06 0 0)
(3.60598e-06 0 0)
(3.63607e-06 0 0)
(3.66633e-06 0 0)
(3.69676e-06 0 0)
(3.72739e-06 0 0)
(3.75821e-06 0 0)
(3.78923e-06 0 0)
(3.82045e-06 0 0)
(3.85189e-06 0 0)
(3.88354e-06 0 0)
(3.91542e-06 0 0)
(3.94752e-06 0 0)
(3.97985e-06 0 0)
(4.01242e-06 0 0)
(4.04524e-06 0 0)
(4.07829e-06 0 0)
(4.1116e-06 0 0)
(4.14516e-06 0 0)
(4.17899e-06 0 0)
(4.21307e-06 0 0)
(4.24743e-06 0 0)
(4.28207e-06 0 0)
(4.31699e-06 0 0)
(4.35219e-06 0 0)
(4.3877e-06 0 0)
(4.42351e-06 0 0)
(4.45964e-06 0 0)
(4.49608e-06 0 0)
(4.53285e-06 0 0)
(4.56995e-06 0 0)
(4.6074e-06 0 0)
(4.64518e-06 0 0)
(4.68333e-06 0 0)
(4.72184e-06 0 0)
(4.76072e-06 0 0)
(4.79997e-06 0 0)
(4.83961e-06 0 0)
(4.87962e-06 0 0)
(4.92002e-06 0 0)
(4.96078e-06 0 0)
(5.00189e-06 0 0)
(5.04335e-06 0 0)
(5.08511e-06 0 0)
(5.12713e-06 0 0)
(5.16935e-06 0 0)
(5.21165e-06 0 0)
(5.25393e-06 0 0)
(5.29601e-06 0 0)
(5.33773e-06 0 0)
(5.37883e-06 0 0)
(5.41906e-06 0 0)
(5.45813e-06 0 0)
(5.49576e-06 0 0)
(5.53174e-06 0 0)
(5.56598e-06 0 0)
(5.59868e-06 0 0)
(5.63056e-06 0 0)
(5.66316e-06 0 0)
(5.6995e-06 0 0)
(5.74508e-06 0 0)
(5.80943e-06 0 0)
(5.90828e-06 0 0)
(6.06559e-06 0 0)
(6.31293e-06 0 0)
(6.68084e-06 0 0)
(7.17721e-06 0 0)
(7.76169e-06 0 0)
(8.34615e-06 0 0)
(8.8384e-06 0 0)
(9.19253e-06 0 0)
(9.41707e-06 0 0)
(9.5474e-06 0 0)
(9.61897e-06 0 0)
(9.65705e-06 0 0)
(9.67695e-06 0 0)
(9.68727e-06 0 0)
(9.6926e-06 0 0)
(9.69535e-06 0 0)
(9.69678e-06 0 0)
(9.69753e-06 0 0)
(9.69793e-06 0 0)
(9.69815e-06 0 0)
(9.69828e-06 0 0)
(9.69835e-06 0 0)
(9.6984e-06 0 0)
(9.69843e-06 0 0)
(9.69845e-06 0 0)
(9.69845e-06 0 0)
(9.69846e-06 0 0)
(9.69845e-06 0 0)
(9.69845e-06 0 0)
(9.69843e-06 0 0)
(9.6984e-06 0 0)
(9.69837e-06 0 0)
(9.69833e-06 0 0)
(9.69828e-06 0 0)
(9.69822e-06 0 0)
(9.69815e-06 0 0)
(9.69808e-06 0 0)
(9.698e-06 0 0)
(9.6979e-06 0 0)
(9.6978e-06 0 0)
(9.69769e-06 0 0)
(9.69758e-06 0 0)
(9.69745e-06 0 0)
(9.69733e-06 0 0)
(9.69719e-06 0 0)
(9.69705e-06 0 0)
(9.6969e-06 0 0)
(9.69674e-06 0 0)
(9.69659e-06 0 0)
(9.69642e-06 0 0)
(9.69625e-06 0 0)
(9.69608e-06 0 0)
(9.6959e-06 0 0)
(9.69573e-06 0 0)
(9.69554e-06 0 0)
(9.69536e-06 0 0)
(9.69517e-06 0 0)
(9.69498e-06 0 0)
(9.69478e-06 0 0)
(9.69458e-06 0 0)
(9.69438e-06 0 0)
(9.69417e-06 0 0)
(9.69396e-06 0 0)
(9.69374e-06 0 0)
(9.69352e-06 0 0)
(9.69329e-06 0 0)
(9.69306e-06 0 0)
(9.69282e-06 0 0)
(9.69256e-06 0 0)
(9.6923e-06 0 0)
(9.69202e-06 0 0)
(9.69174e-06 0 0)
(9.69143e-06 0 0)
(9.69111e-06 0 0)
(9.69077e-06 0 0)
(9.6904e-06 0 0)
(9.69001e-06 0 0)
(9.68959e-06 0 0)
(9.68914e-06 0 0)
(9.68865e-06 0 0)
(9.68813e-06 0 0)
(9.68757e-06 0 0)
(9.68696e-06 0 0)
(9.68632e-06 0 0)
(9.68563e-06 0 0)
(9.68489e-06 0 0)
(9.68411e-06 0 0)
(9.68328e-06 0 0)
(9.68242e-06 0 0)
(9.68151e-06 0 0)
(9.68057e-06 0 0)
(9.6796e-06 0 0)
(9.6786e-06 0 0)
(9.67758e-06 0 0)
(9.67655e-06 0 0)
(9.67552e-06 0 0)
(9.6745e-06 0 0)
(9.67349e-06 0 0)
(9.67251e-06 0 0)
(9.67158e-06 0 0)
(9.67069e-06 0 0)
(9.66987e-06 0 0)
(9.66913e-06 0 0)
(9.66849e-06 0 0)
(9.66794e-06 0 0)
(9.66751e-06 0 0)
(9.6672e-06 0 0)
(9.66703e-06 0 0)
(9.66696e-06 0 0)
(9.66695e-06 0 0)
(9.66699e-06 0 0)
(9.66721e-06 0 0)
(9.66767e-06 0 0)
(9.6683e-06 0 0)
(9.66906e-06 0 0)
(9.66993e-06 0 0)
(9.6709e-06 0 0)
(9.67197e-06 0 0)
(9.67311e-06 0 0)
(9.6743e-06 0 0)
(9.67553e-06 0 0)
(9.67679e-06 0 0)
(9.67804e-06 0 0)
(9.67929e-06 0 0)
(9.6805e-06 0 0)
(9.68167e-06 0 0)
(9.68279e-06 0 0)
(9.68383e-06 0 0)
(9.68481e-06 0 0)
(9.68569e-06 0 0)
(9.6865e-06 0 0)
(9.68721e-06 0 0)
(9.68783e-06 0 0)
(9.68836e-06 0 0)
(9.68881e-06 0 0)
(9.68918e-06 0 0)
(9.68947e-06 0 0)
(9.68969e-06 0 0)
(9.68984e-06 0 0)
(9.68994e-06 0 0)
(9.68999e-06 0 0)
(9.69001e-06 0 0)
(9.69001e-06 0 0)
(9.68999e-06 0 0)
(9.68992e-06 0 0)
(9.6898e-06 0 0)
(9.68968e-06 0 0)
(9.68956e-06 0 0)
(9.68943e-06 0 0)
(9.68931e-06 0 0)
(9.6892e-06 0 0)
(9.68909e-06 0 0)
(9.689e-06 0 0)
(9.68892e-06 0 0)
(9.68886e-06 0 0)
(9.68881e-06 0 0)
(9.68878e-06 0 0)
(9.68877e-06 0 0)
(9.68876e-06 0 0)
(9.68876e-06 0 0)
(9.68877e-06 0 0)
(9.68881e-06 0 0)
(9.68887e-06 0 0)
(9.68895e-06 0 0)
(9.68904e-06 0 0)
(9.68914e-06 0 0)
(9.68925e-06 0 0)
(9.68938e-06 0 0)
(9.68951e-06 0 0)
(9.68965e-06 0 0)
(9.6898e-06 0 0)
(9.68995e-06 0 0)
(9.69012e-06 0 0)
(9.69029e-06 0 0)
(9.69046e-06 0 0)
(9.69065e-06 0 0)
(9.69083e-06 0 0)
(9.69102e-06 0 0)
(9.69122e-06 0 0)
(9.69142e-06 0 0)
(9.69162e-06 0 0)
(9.69183e-06 0 0)
(9.69203e-06 0 0)
(9.69224e-06 0 0)
(9.69246e-06 0 0)
(9.69267e-06 0 0)
(9.69289e-06 0 0)
(9.6931e-06 0 0)
(9.69332e-06 0 0)
(9.69353e-06 0 0)
(9.69375e-06 0 0)
(9.69396e-06 0 0)
(9.69417e-06 0 0)
(9.69438e-06 0 0)
(9.69459e-06 0 0)
(9.6948e-06 0 0)
(9.695e-06 0 0)
(9.69519e-06 0 0)
(9.69539e-06 0 0)
(9.69557e-06 0 0)
(9.69575e-06 0 0)
(9.69593e-06 0 0)
(9.6961e-06 0 0)
(9.69626e-06 0 0)
(9.69642e-06 0 0)
(9.69657e-06 0 0)
(9.69671e-06 0 0)
(9.69685e-06 0 0)
(9.69698e-06 0 0)
(9.6971e-06 0 0)
(9.69721e-06 0 0)
(9.69732e-06 0 0)
(9.69742e-06 0 0)
(9.69751e-06 0 0)
(9.69759e-06 0 0)
(9.69767e-06 0 0)
(9.69774e-06 0 0)
(9.69781e-06 0 0)
(9.69786e-06 0 0)
(9.69792e-06 0 0)
(9.69796e-06 0 0)
(9.698e-06 0 0)
(9.69804e-06 0 0)
(9.69807e-06 0 0)
(9.6981e-06 0 0)
(9.69812e-06 0 0)
(9.69814e-06 0 0)
(9.69816e-06 0 0)
(9.69817e-06 0 0)
(9.69818e-06 0 0)
(9.69819e-06 0 0)
(9.6982e-06 0 0)
(9.6982e-06 0 0)
(9.6982e-06 0 0)
(9.69821e-06 0 0)
(9.69821e-06 0 0)
(9.69821e-06 0 0)
(9.6982e-06 0 0)
(9.6982e-06 0 0)
(9.69819e-06 0 0)
(9.69818e-06 0 0)
(9.69816e-06 0 0)
(9.69815e-06 0 0)
(9.69813e-06 0 0)
(9.69811e-06 0 0)
(9.69808e-06 0 0)
(9.69805e-06 0 0)
(9.69802e-06 0 0)
(9.69798e-06 0 0)
(9.69793e-06 0 0)
(9.69788e-06 0 0)
(9.69783e-06 0 0)
(9.69776e-06 0 0)
(9.69769e-06 0 0)
(9.69761e-06 0 0)
(9.69753e-06 0 0)
(9.69743e-06 0 0)
(9.69732e-06 0 0)
(9.69721e-06 0 0)
(9.69708e-06 0 0)
(9.69695e-06 0 0)
(9.6968e-06 0 0)
(9.69664e-06 0 0)
(9.69648e-06 0 0)
(9.6963e-06 0 0)
(9.69612e-06 0 0)
(9.69593e-06 0 0)
(9.69572e-06 0 0)
(9.69551e-06 0 0)
(9.69528e-06 0 0)
(9.69505e-06 0 0)
(9.69481e-06 0 0)
(9.69455e-06 0 0)
(9.69429e-06 0 0)
(9.69402e-06 0 0)
(9.69373e-06 0 0)
(9.69344e-06 0 0)
(9.69314e-06 0 0)
(9.69283e-06 0 0)
(9.6925e-06 0 0)
(9.69216e-06 0 0)
(9.6918e-06 0 0)
(9.69143e-06 0 0)
(9.69105e-06 0 0)
(9.69064e-06 0 0)
(9.69022e-06 0 0)
(9.68978e-06 0 0)
(9.68931e-06 0 0)
(9.68883e-06 0 0)
(9.68831e-06 0 0)
(9.68778e-06 0 0)
(9.68722e-06 0 0)
(9.68663e-06 0 0)
(9.68601e-06 0 0)
(9.68536e-06 0 0)
(9.68469e-06 0 0)
(9.68399e-06 0 0)
(9.68326e-06 0 0)
(9.68251e-06 0 0)
(9.68174e-06 0 0)
(9.68094e-06 0 0)
(9.68012e-06 0 0)
(9.67929e-06 0 0)
(9.67845e-06 0 0)
(9.6776e-06 0 0)
(9.67674e-06 0 0)
(9.6759e-06 0 0)
(9.67506e-06 0 0)
(9.67423e-06 0 0)
(9.67343e-06 0 0)
(9.67266e-06 0 0)
(9.67193e-06 0 0)
(9.67124e-06 0 0)
(9.6706e-06 0 0)
(9.67002e-06 0 0)
(9.66951e-06 0 0)
(9.66908e-06 0 0)
(9.66872e-06 0 0)
(9.66846e-06 0 0)
(9.66829e-06 0 0)
(9.66821e-06 0 0)
(9.66819e-06 0 0)
(9.6682e-06 0 0)
(9.66827e-06 0 0)
(9.66853e-06 0 0)
(9.66898e-06 0 0)
(9.6695e-06 0 0)
(9.67013e-06 0 0)
(9.67084e-06 0 0)
(9.67163e-06 0 0)
(9.67249e-06 0 0)
(9.67341e-06 0 0)
(9.67439e-06 0 0)
(9.6754e-06 0 0)
(9.67644e-06 0 0)
(9.67749e-06 0 0)
(9.67855e-06 0 0)
(9.67959e-06 0 0)
(9.68062e-06 0 0)
(9.68162e-06 0 0)
(9.68258e-06 0 0)
(9.68349e-06 0 0)
(9.68436e-06 0 0)
(9.68517e-06 0 0)
(9.68592e-06 0 0)
(9.68661e-06 0 0)
(9.68724e-06 0 0)
(9.68781e-06 0 0)
(9.68831e-06 0 0)
(9.68876e-06 0 0)
(9.68915e-06 0 0)
(9.68948e-06 0 0)
(9.68977e-06 0 0)
(9.69001e-06 0 0)
(9.6902e-06 0 0)
(9.69037e-06 0 0)
(9.6905e-06 0 0)
(9.6906e-06 0 0)
(9.69068e-06 0 0)
(9.69074e-06 0 0)
(9.69078e-06 0 0)
(9.69082e-06 0 0)
(9.69084e-06 0 0)
(9.69085e-06 0 0)
(9.69086e-06 0 0)
(9.69087e-06 0 0)
(9.69088e-06 0 0)
(9.69089e-06 0 0)
(9.69091e-06 0 0)
(9.69093e-06 0 0)
(9.69096e-06 0 0)
(9.691e-06 0 0)
(9.69105e-06 0 0)
(9.6911e-06 0 0)
(9.69117e-06 0 0)
(9.69124e-06 0 0)
(9.69132e-06 0 0)
(9.69141e-06 0 0)
(9.69151e-06 0 0)
(9.69161e-06 0 0)
(9.69172e-06 0 0)
(9.69184e-06 0 0)
(9.69196e-06 0 0)
(9.69208e-06 0 0)
(9.69221e-06 0 0)
(9.69235e-06 0 0)
(9.69248e-06 0 0)
(9.69262e-06 0 0)
(9.69276e-06 0 0)
(9.69291e-06 0 0)
(9.69305e-06 0 0)
(9.6932e-06 0 0)
(9.69334e-06 0 0)
(9.69349e-06 0 0)
(9.69364e-06 0 0)
(9.69379e-06 0 0)
(9.69394e-06 0 0)
(9.69408e-06 0 0)
(9.69423e-06 0 0)
(9.69438e-06 0 0)
(9.69453e-06 0 0)
(9.69468e-06 0 0)
(9.69483e-06 0 0)
(9.69498e-06 0 0)
(9.69512e-06 0 0)
(9.69527e-06 0 0)
(9.69541e-06 0 0)
(9.69556e-06 0 0)
(9.6957e-06 0 0)
(9.69585e-06 0 0)
(9.69599e-06 0 0)
(9.69613e-06 0 0)
(9.69627e-06 0 0)
(9.69641e-06 0 0)
(9.69655e-06 0 0)
(9.69668e-06 0 0)
(9.69681e-06 0 0)
(9.69694e-06 0 0)
(9.69707e-06 0 0)
(9.6972e-06 0 0)
(9.69732e-06 0 0)
(9.69743e-06 0 0)
(9.69755e-06 0 0)
(9.69766e-06 0 0)
(9.69777e-06 0 0)
(9.69787e-06 0 0)
(9.69797e-06 0 0)
(9.69806e-06 0 0)
(9.69815e-06 0 0)
(9.69823e-06 0 0)
(9.69831e-06 0 0)
(9.69838e-06 0 0)
(9.69845e-06 0 0)
(9.69851e-06 0 0)
(9.69857e-06 0 0)
(9.69861e-06 0 0)
(9.69866e-06 0 0)
(9.6987e-06 0 0)
(9.69873e-06 0 0)
(9.69875e-06 0 0)
(9.69877e-06 0 0)
(9.69878e-06 0 0)
(9.69879e-06 0 0)
(9.6988e-06 0 0)
(9.6988e-06 0 0)
(9.6988e-06 0 0)
(9.69879e-06 0 0)
(9.69878e-06 0 0)
(9.69876e-06 0 0)
(9.69873e-06 0 0)
(9.6987e-06 0 0)
(9.69867e-06 0 0)
(9.69864e-06 0 0)
(9.6986e-06 0 0)
(9.69856e-06 0 0)
(9.69851e-06 0 0)
(9.69847e-06 0 0)
(9.69842e-06 0 0)
(9.69837e-06 0 0)
(9.69832e-06 0 0)
(9.69826e-06 0 0)
(9.69821e-06 0 0)
(9.69815e-06 0 0)
(9.69809e-06 0 0)
(9.69803e-06 0 0)
(9.69797e-06 0 0)
(9.6979e-06 0 0)
(9.69784e-06 0 0)
(9.69777e-06 0 0)
(9.69769e-06 0 0)
(9.69762e-06 0 0)
(9.69754e-06 0 0)
(9.69745e-06 0 0)
(9.69736e-06 0 0)
(9.69726e-06 0 0)
(9.69716e-06 0 0)
(9.69705e-06 0 0)
(9.69693e-06 0 0)
(9.6968e-06 0 0)
(9.69667e-06 0 0)
(9.69652e-06 0 0)
(9.69636e-06 0 0)
(9.6962e-06 0 0)
(9.69602e-06 0 0)
(9.69583e-06 0 0)
(9.69562e-06 0 0)
(9.6954e-06 0 0)
(9.69517e-06 0 0)
(9.69492e-06 0 0)
(9.69465e-06 0 0)
(9.69437e-06 0 0)
(9.69407e-06 0 0)
(9.69375e-06 0 0)
(9.69341e-06 0 0)
(9.69305e-06 0 0)
(9.69268e-06 0 0)
(9.69228e-06 0 0)
(9.69186e-06 0 0)
(9.69141e-06 0 0)
(9.69094e-06 0 0)
(9.69045e-06 0 0)
(9.68994e-06 0 0)
(9.6894e-06 0 0)
(9.68884e-06 0 0)
(9.68826e-06 0 0)
(9.68765e-06 0 0)
(9.68702e-06 0 0)
(9.68637e-06 0 0)
(9.68569e-06 0 0)
(9.685e-06 0 0)
(9.68429e-06 0 0)
(9.68356e-06 0 0)
(9.68282e-06 0 0)
(9.68206e-06 0 0)
(9.6813e-06 0 0)
(9.68053e-06 0 0)
(9.67977e-06 0 0)
(9.679e-06 0 0)
(9.67823e-06 0 0)
(9.67748e-06 0 0)
(9.67674e-06 0 0)
(9.67602e-06 0 0)
(9.67533e-06 0 0)
(9.67467e-06 0 0)
(9.67404e-06 0 0)
(9.67346e-06 0 0)
(9.67292e-06 0 0)
(9.67243e-06 0 0)
(9.67201e-06 0 0)
(9.67164e-06 0 0)
(9.67135e-06 0 0)
(9.67112e-06 0 0)
(9.67098e-06 0 0)
(9.67091e-06 0 0)
(9.67089e-06 0 0)
(9.67089e-06 0 0)
(9.67093e-06 0 0)
(9.67114e-06 0 0)
(9.67149e-06 0 0)
(9.67191e-06 0 0)
(9.67241e-06 0 0)
(9.67299e-06 0 0)
(9.67363e-06 0 0)
(9.67434e-06 0 0)
(9.6751e-06 0 0)
(9.67591e-06 0 0)
(9.67676e-06 0 0)
(9.67764e-06 0 0)
(9.67855e-06 0 0)
(9.67946e-06 0 0)
(9.68039e-06 0 0)
(9.6813e-06 0 0)
(9.6822e-06 0 0)
(9.68309e-06 0 0)
(9.68394e-06 0 0)
(9.68477e-06 0 0)
(9.68555e-06 0 0)
(9.6863e-06 0 0)
(9.687e-06 0 0)
(9.68765e-06 0 0)
(9.68825e-06 0 0)
(9.6888e-06 0 0)
(9.68931e-06 0 0)
(9.68976e-06 0 0)
(9.69016e-06 0 0)
(9.69052e-06 0 0)
(9.69084e-06 0 0)
(9.69111e-06 0 0)
(9.69134e-06 0 0)
(9.69154e-06 0 0)
(9.6917e-06 0 0)
(9.69184e-06 0 0)
(9.69195e-06 0 0)
(9.69204e-06 0 0)
(9.69211e-06 0 0)
(9.69216e-06 0 0)
(9.6922e-06 0 0)
(9.69223e-06 0 0)
(9.69224e-06 0 0)
(9.69225e-06 0 0)
(9.69226e-06 0 0)
(9.69226e-06 0 0)
(9.69226e-06 0 0)
(9.69227e-06 0 0)
(9.69227e-06 0 0)
(9.69227e-06 0 0)
(9.69227e-06 0 0)
(9.69227e-06 0 0)
(9.69228e-06 0 0)
(9.69229e-06 0 0)
(9.69231e-06 0 0)
(9.69234e-06 0 0)
(9.69236e-06 0 0)
(9.6924e-06 0 0)
(9.69243e-06 0 0)
(9.69247e-06 0 0)
(9.69251e-06 0 0)
(9.69255e-06 0 0)
(9.69259e-06 0 0)
(9.69264e-06 0 0)
(9.69269e-06 0 0)
(9.69274e-06 0 0)
(9.69279e-06 0 0)
(9.69284e-06 0 0)
(9.69289e-06 0 0)
(9.69294e-06 0 0)
(9.69299e-06 0 0)
(9.69304e-06 0 0)
(9.69309e-06 0 0)
(9.69314e-06 0 0)
(9.69319e-06 0 0)
(9.69324e-06 0 0)
(9.69329e-06 0 0)
(9.69333e-06 0 0)
(9.69338e-06 0 0)
(9.69343e-06 0 0)
(9.69348e-06 0 0)
(9.69353e-06 0 0)
(9.69358e-06 0 0)
(9.69363e-06 0 0)
(9.69368e-06 0 0)
(9.69374e-06 0 0)
(9.69379e-06 0 0)
(9.69385e-06 0 0)
(9.6939e-06 0 0)
(9.69396e-06 0 0)
(9.69403e-06 0 0)
(9.6941e-06 0 0)
(9.69417e-06 0 0)
(9.69424e-06 0 0)
(9.69431e-06 0 0)
(9.69439e-06 0 0)
(9.69447e-06 0 0)
(9.69455e-06 0 0)
(9.69464e-06 0 0)
(9.69473e-06 0 0)
(9.69483e-06 0 0)
(9.69493e-06 0 0)
(9.69502e-06 0 0)
(9.69513e-06 0 0)
(9.69523e-06 0 0)
(9.69534e-06 0 0)
(9.69545e-06 0 0)
(9.69556e-06 0 0)
(9.69567e-06 0 0)
(9.69578e-06 0 0)
(9.6959e-06 0 0)
(9.69601e-06 0 0)
(9.69612e-06 0 0)
(9.69623e-06 0 0)
(9.69635e-06 0 0)
(9.69646e-06 0 0)
(9.69656e-06 0 0)
(9.69667e-06 0 0)
(9.69677e-06 0 0)
(9.69686e-06 0 0)
(9.69696e-06 0 0)
(9.69705e-06 0 0)
(9.69713e-06 0 0)
(9.69721e-06 0 0)
(9.69728e-06 0 0)
(9.69734e-06 0 0)
(9.6974e-06 0 0)
(9.69746e-06 0 0)
(9.6975e-06 0 0)
(9.69754e-06 0 0)
(9.69757e-06 0 0)
(9.69759e-06 0 0)
(9.6976e-06 0 0)
(9.6976e-06 0 0)
(9.6976e-06 0 0)
(9.6976e-06 0 0)
(9.69759e-06 0 0)
(9.69757e-06 0 0)
(9.69754e-06 0 0)
(9.69751e-06 0 0)
(9.69746e-06 0 0)
(9.69741e-06 0 0)
(9.69735e-06 0 0)
(9.69728e-06 0 0)
(9.6972e-06 0 0)
(9.69712e-06 0 0)
(9.69703e-06 0 0)
(9.69693e-06 0 0)
(9.69683e-06 0 0)
(9.69672e-06 0 0)
(9.6966e-06 0 0)
(9.69649e-06 0 0)
(9.69636e-06 0 0)
(9.69623e-06 0 0)
(9.69609e-06 0 0)
(9.69595e-06 0 0)
(9.69581e-06 0 0)
(9.69567e-06 0 0)
(9.69552e-06 0 0)
(9.69536e-06 0 0)
(9.6952e-06 0 0)
(9.69504e-06 0 0)
(9.69486e-06 0 0)
(9.69466e-06 0 0)
(9.69448e-06 0 0)
(9.69428e-06 0 0)
(9.69404e-06 0 0)
(9.69382e-06 0 0)
(9.6936e-06 0 0)
(9.69333e-06 0 0)
(9.69304e-06 0 0)
(9.69279e-06 0 0)
(9.69249e-06 0 0)
(9.69213e-06 0 0)
(9.69182e-06 0 0)
(9.69151e-06 0 0)
(9.69107e-06 0 0)
(9.69065e-06 0 0)
(9.69031e-06 0 0)
(9.68983e-06 0 0)
(9.68928e-06 0 0)
(9.68903e-06 0 0)
(9.68926e-06 0 0)
(9.69613e-06 0 0)
(9.72872e-06 0 0)
(1.00617e-05 0 0)
(1.07326e-05 0 0)
(1.11202e-05 0 0)
(1.11438e-05 0 0)
(1.11437e-05 0 0)
(1.11437e-05 0 0)
(1.11437e-05 0 0)
(1.11437e-05 0 0)
(1.11437e-05 0 0)
(1.11437e-05 0 0)
(1.11437e-05 0 0)
(1.11437e-05 0 0)
(1.11437e-05 0 0)
(1.11437e-05 0 0)
(1.11437e-05 0 0)
(1.11437e-05 0 0)
(1.11437e-05 0 0)
(1.11437e-05 0 0)
(1.11437e-05 0 0)
(1.11437e-05 0 0)
(1.11437e-05 0 0)
(1.11437e-05 0 0)
(1.11437e-05 0 0)
(1.11437e-05 0 0)
(1.11437e-05 0 0)
(1.11437e-05 0 0)
(1.11437e-05 0 0)
(1.11437e-05 0 0)
(1.11437e-05 0 0)
(1.11437e-05 0 0)
(1.11437e-05 0 0)
(1.11437e-05 0 0)
(1.11437e-05 0 0)
(1.11437e-05 0 0)
(1.11437e-05 0 0)
(1.11437e-05 0 0)
(1.11437e-05 0 0)
(1.11437e-05 0 0)
(1.11437e-05 0 0)
(1.11437e-05 0 0)
(1.11437e-05 0 0)
(1.11437e-05 0 0)
(1.11437e-05 0 0)
(1.11437e-05 0 0)
(1.11437e-05 0 0)
(1.11437e-05 0 0)
(1.11437e-05 0 0)
(1.11437e-05 0 0)
(1.11437e-05 0 0)
(1.11437e-05 0 0)
)
;

boundaryField
{
    inlet
    {
        type            fixedValue;
        value           uniform (0 0 0);
    }
    outlet
    {
        type            zeroGradient;
    }
    emptyWalls
    {
        type            empty;
    }
}


// ************************************************************************* //
