/*--------------------------------*- C++ -*----------------------------------*\
  =========                 |
  \\      /  F ield         | OpenFOAM: The Open Source CFD Toolbox
   \\    /   O peration     | Website:  https://openfoam.org
    \\  /    A nd           | Version:  9
     \\/     M anipulation  |
\*---------------------------------------------------------------------------*/
FoamFile
{
    format      ascii;
    class       surfaceScalarField;
    location    "6900";
    object      phia;
}
// * * * * * * * * * * * * * * * * * * * * * * * * * * * * * * * * * * * * * //

dimensions      [0 2 0 0 0 0 0];

internalField   nonuniform List<scalar> 
999
(
2.74865e-10
2.74744e-10
2.74628e-10
2.74367e-10
2.74296e-10
2.73928e-10
2.73477e-10
2.71534e-10
2.63078e-10
2.23939e-10
2.13839e-10
2.10888e-10
2.09397e-10
2.08406e-10
2.07671e-10
2.07096e-10
2.06639e-10
2.06261e-10
2.0594e-10
2.05657e-10
2.05395e-10
2.05131e-10
2.04876e-10
2.04647e-10
2.04465e-10
2.04369e-10
2.04347e-10
2.04324e-10
2.04299e-10
2.04271e-10
2.04243e-10
2.04213e-10
2.04183e-10
2.04154e-10
2.04125e-10
2.04097e-10
2.0407e-10
2.04043e-10
2.04016e-10
2.03988e-10
2.03958e-10
2.03928e-10
2.03897e-10
2.03867e-10
2.03841e-10
2.03824e-10
2.03817e-10
2.03819e-10
2.03829e-10
2.03842e-10
2.03854e-10
2.03863e-10
2.03873e-10
2.0389e-10
2.03924e-10
2.03982e-10
2.04074e-10
2.04204e-10
2.04371e-10
2.04573e-10
2.04804e-10
2.05056e-10
2.05319e-10
2.05585e-10
2.05844e-10
2.06086e-10
2.063e-10
2.06475e-10
2.066e-10
2.06663e-10
2.06656e-10
2.06571e-10
2.06406e-10
2.06162e-10
2.05846e-10
2.05468e-10
2.05044e-10
2.04591e-10
2.04127e-10
2.03669e-10
2.03233e-10
2.02834e-10
2.02479e-10
2.02174e-10
2.01923e-10
2.01724e-10
2.01573e-10
2.01466e-10
2.01395e-10
2.01353e-10
2.01333e-10
2.01326e-10
2.01328e-10
2.01333e-10
2.01335e-10
2.01331e-10
2.01319e-10
2.01297e-10
2.01265e-10
2.01223e-10
2.0117e-10
2.01107e-10
2.01037e-10
2.00959e-10
2.00875e-10
2.00786e-10
2.00694e-10
2.00598e-10
2.005e-10
2.00401e-10
2.00301e-10
2.00201e-10
2.00101e-10
2.00002e-10
1.99902e-10
1.99804e-10
1.99706e-10
1.99609e-10
1.99512e-10
1.99417e-10
1.99322e-10
1.99229e-10
1.99135e-10
1.99043e-10
1.98951e-10
1.9886e-10
1.9877e-10
1.9868e-10
1.9859e-10
1.98501e-10
1.98412e-10
1.98324e-10
1.98235e-10
1.98148e-10
1.9806e-10
1.97973e-10
1.97886e-10
1.978e-10
1.97714e-10
1.97629e-10
1.97544e-10
1.9746e-10
1.97377e-10
1.97296e-10
1.97215e-10
1.97136e-10
1.97059e-10
1.96983e-10
1.96909e-10
1.96837e-10
1.96767e-10
1.96699e-10
1.96633e-10
1.96569e-10
1.96508e-10
1.96448e-10
1.96391e-10
1.96335e-10
1.96282e-10
1.9623e-10
1.96181e-10
1.96132e-10
1.96085e-10
1.9604e-10
1.95995e-10
1.95952e-10
1.95909e-10
1.95867e-10
1.95825e-10
1.95784e-10
1.95743e-10
1.95702e-10
1.95661e-10
1.95621e-10
1.9558e-10
1.95539e-10
1.95499e-10
1.95458e-10
1.95417e-10
1.95376e-10
1.95335e-10
1.95293e-10
1.95252e-10
1.9521e-10
1.95168e-10
1.95126e-10
1.95084e-10
1.95042e-10
1.95001e-10
1.9496e-10
1.9492e-10
1.9488e-10
1.94842e-10
1.94804e-10
1.94767e-10
1.94732e-10
1.94697e-10
1.94664e-10
1.94632e-10
1.94602e-10
1.94574e-10
1.94548e-10
1.94525e-10
1.94505e-10
1.9449e-10
1.94479e-10
1.94473e-10
1.94474e-10
1.94481e-10
1.94497e-10
1.94521e-10
1.94553e-10
1.94594e-10
1.94645e-10
1.94704e-10
1.94771e-10
1.94847e-10
1.94929e-10
1.95017e-10
1.95109e-10
1.95203e-10
1.95298e-10
1.95391e-10
1.9548e-10
1.95562e-10
1.95634e-10
1.95695e-10
1.9574e-10
1.95769e-10
1.95777e-10
1.95764e-10
1.95727e-10
1.95665e-10
1.95578e-10
1.95464e-10
1.95324e-10
1.95159e-10
1.94972e-10
1.94763e-10
1.94535e-10
1.94292e-10
1.94038e-10
1.93774e-10
1.93507e-10
1.93238e-10
1.92971e-10
1.9271e-10
1.92458e-10
1.92216e-10
1.91987e-10
1.91772e-10
1.91572e-10
1.91389e-10
1.91221e-10
1.91069e-10
1.90932e-10
1.9081e-10
1.90703e-10
1.90608e-10
1.90526e-10
1.90455e-10
1.90394e-10
1.90342e-10
1.90299e-10
1.90263e-10
1.90232e-10
1.90205e-10
1.90179e-10
1.90149e-10
1.90107e-10
1.90043e-10
1.89935e-10
1.89754e-10
1.89457e-10
1.89e-10
1.88368e-10
1.8762e-10
1.86906e-10
1.86372e-10
1.86048e-10
1.85876e-10
1.85786e-10
1.85735e-10
1.857e-10
1.85673e-10
1.85649e-10
1.85625e-10
1.85602e-10
1.85578e-10
1.85554e-10
1.85529e-10
1.85503e-10
1.85477e-10
1.85451e-10
1.85425e-10
1.85398e-10
1.85372e-10
1.85346e-10
1.85319e-10
1.85293e-10
1.85267e-10
1.85242e-10
1.85217e-10
1.85193e-10
1.85169e-10
1.85145e-10
1.85122e-10
1.851e-10
1.85079e-10
1.85058e-10
1.85037e-10
1.85018e-10
1.84999e-10
1.84981e-10
1.84963e-10
1.84947e-10
1.8493e-10
1.84915e-10
1.849e-10
1.84886e-10
1.84872e-10
1.84859e-10
1.84846e-10
1.84834e-10
1.84823e-10
1.84811e-10
1.84801e-10
1.8479e-10
1.8478e-10
1.84771e-10
1.84762e-10
1.84753e-10
1.84744e-10
1.84736e-10
1.84729e-10
1.84721e-10
1.84714e-10
1.84708e-10
1.84702e-10
1.84696e-10
1.84691e-10
1.84687e-10
1.84682e-10
1.84679e-10
1.84676e-10
1.84674e-10
1.84673e-10
1.84672e-10
1.84672e-10
1.84672e-10
1.84673e-10
1.84675e-10
1.84679e-10
1.84683e-10
1.84688e-10
1.84694e-10
1.84701e-10
1.84709e-10
1.84717e-10
1.84727e-10
1.84737e-10
1.84749e-10
1.84761e-10
1.84773e-10
1.84787e-10
1.84801e-10
1.84816e-10
1.84831e-10
1.84847e-10
1.84863e-10
1.8488e-10
1.84897e-10
1.84914e-10
1.84932e-10
1.8495e-10
1.84968e-10
1.84986e-10
1.85005e-10
1.85023e-10
1.85042e-10
1.8506e-10
1.85079e-10
1.85098e-10
1.85117e-10
1.85136e-10
1.85155e-10
1.85175e-10
1.85194e-10
1.85214e-10
1.85235e-10
1.85256e-10
1.85277e-10
1.85299e-10
1.85322e-10
1.85345e-10
1.85369e-10
1.85395e-10
1.85422e-10
1.8545e-10
1.8548e-10
1.85511e-10
1.85545e-10
1.85581e-10
1.85619e-10
1.85661e-10
1.85705e-10
1.85752e-10
1.85804e-10
1.85858e-10
1.85917e-10
1.8598e-10
1.86048e-10
1.86119e-10
1.86195e-10
1.86276e-10
1.8636e-10
1.86449e-10
1.86542e-10
1.86638e-10
1.86738e-10
1.8684e-10
1.86944e-10
1.8705e-10
1.87157e-10
1.87263e-10
1.87369e-10
1.87473e-10
1.87574e-10
1.8767e-10
1.87762e-10
1.87848e-10
1.87926e-10
1.87995e-10
1.88056e-10
1.88105e-10
1.88144e-10
1.88169e-10
1.88183e-10
1.88187e-10
1.88187e-10
1.88182e-10
1.88156e-10
1.88104e-10
1.8804e-10
1.87964e-10
1.87876e-10
1.87778e-10
1.87672e-10
1.87558e-10
1.87438e-10
1.87313e-10
1.87186e-10
1.87058e-10
1.86929e-10
1.86803e-10
1.86679e-10
1.8656e-10
1.86446e-10
1.86339e-10
1.86239e-10
1.86146e-10
1.86061e-10
1.85985e-10
1.85917e-10
1.85857e-10
1.85806e-10
1.85762e-10
1.85726e-10
1.85696e-10
1.85673e-10
1.85656e-10
1.85643e-10
1.85636e-10
1.85632e-10
1.85631e-10
1.85631e-10
1.85632e-10
1.85638e-10
1.85646e-10
1.85655e-10
1.85664e-10
1.85672e-10
1.8568e-10
1.85687e-10
1.85692e-10
1.85697e-10
1.85699e-10
1.857e-10
1.857e-10
1.857e-10
1.85699e-10
1.85693e-10
1.85686e-10
1.85676e-10
1.85665e-10
1.85652e-10
1.85637e-10
1.85621e-10
1.85604e-10
1.85585e-10
1.85565e-10
1.85544e-10
1.85522e-10
1.85499e-10
1.85476e-10
1.85451e-10
1.85427e-10
1.85401e-10
1.85376e-10
1.8535e-10
1.85324e-10
1.85298e-10
1.85271e-10
1.85245e-10
1.85219e-10
1.85194e-10
1.85168e-10
1.85143e-10
1.85118e-10
1.85094e-10
1.8507e-10
1.85047e-10
1.85025e-10
1.85003e-10
1.84981e-10
1.8496e-10
1.8494e-10
1.84921e-10
1.84902e-10
1.84884e-10
1.84867e-10
1.8485e-10
1.84835e-10
1.84819e-10
1.84805e-10
1.84791e-10
1.84777e-10
1.84765e-10
1.84752e-10
1.84741e-10
1.8473e-10
1.84719e-10
1.84709e-10
1.84699e-10
1.8469e-10
1.84681e-10
1.84672e-10
1.84664e-10
1.84657e-10
1.84649e-10
1.84642e-10
1.84636e-10
1.8463e-10
1.84624e-10
1.84618e-10
1.84613e-10
1.84608e-10
1.84604e-10
1.846e-10
1.84597e-10
1.84594e-10
1.84592e-10
1.8459e-10
1.84589e-10
1.84588e-10
1.84588e-10
1.84588e-10
1.84589e-10
1.8459e-10
1.84593e-10
1.84596e-10
1.84601e-10
1.84606e-10
1.84612e-10
1.84618e-10
1.84626e-10
1.84634e-10
1.84643e-10
1.84653e-10
1.84664e-10
1.84676e-10
1.84688e-10
1.84702e-10
1.84716e-10
1.8473e-10
1.84746e-10
1.84762e-10
1.84779e-10
1.84797e-10
1.84815e-10
1.84834e-10
1.84854e-10
1.84875e-10
1.84896e-10
1.84917e-10
1.8494e-10
1.84963e-10
1.84987e-10
1.85011e-10
1.85036e-10
1.85063e-10
1.8509e-10
1.85118e-10
1.85146e-10
1.85177e-10
1.85208e-10
1.8524e-10
1.85274e-10
1.8531e-10
1.85347e-10
1.85386e-10
1.85427e-10
1.8547e-10
1.85515e-10
1.85563e-10
1.85613e-10
1.85665e-10
1.85721e-10
1.85779e-10
1.8584e-10
1.85905e-10
1.85972e-10
1.86042e-10
1.86116e-10
1.86192e-10
1.86271e-10
1.86353e-10
1.86437e-10
1.86524e-10
1.86612e-10
1.86703e-10
1.86794e-10
1.86887e-10
1.8698e-10
1.87072e-10
1.87164e-10
1.87255e-10
1.87344e-10
1.8743e-10
1.87513e-10
1.87591e-10
1.87666e-10
1.87734e-10
1.87797e-10
1.87853e-10
1.87902e-10
1.87943e-10
1.87975e-10
1.87998e-10
1.88012e-10
1.88017e-10
1.88018e-10
1.88016e-10
1.88008e-10
1.87974e-10
1.87931e-10
1.87878e-10
1.87818e-10
1.87749e-10
1.87673e-10
1.87591e-10
1.87504e-10
1.87412e-10
1.87317e-10
1.8722e-10
1.87121e-10
1.87022e-10
1.86924e-10
1.86827e-10
1.86732e-10
1.86641e-10
1.86554e-10
1.8647e-10
1.86392e-10
1.86319e-10
1.86251e-10
1.86188e-10
1.86131e-10
1.8608e-10
1.86034e-10
1.85993e-10
1.85957e-10
1.85926e-10
1.85899e-10
1.85877e-10
1.85858e-10
1.85842e-10
1.85829e-10
1.85819e-10
1.85811e-10
1.85805e-10
1.858e-10
1.85797e-10
1.85794e-10
1.85792e-10
1.8579e-10
1.85789e-10
1.85787e-10
1.85785e-10
1.85782e-10
1.85779e-10
1.85774e-10
1.85769e-10
1.85763e-10
1.85756e-10
1.85747e-10
1.85738e-10
1.85727e-10
1.85715e-10
1.85702e-10
1.85687e-10
1.85672e-10
1.85655e-10
1.85638e-10
1.8562e-10
1.856e-10
1.8558e-10
1.8556e-10
1.85538e-10
1.85516e-10
1.85493e-10
1.8547e-10
1.85446e-10
1.85422e-10
1.85397e-10
1.85372e-10
1.85347e-10
1.85322e-10
1.85297e-10
1.85271e-10
1.85246e-10
1.85221e-10
1.85195e-10
1.8517e-10
1.85146e-10
1.85121e-10
1.85097e-10
1.85073e-10
1.8505e-10
1.85027e-10
1.85004e-10
1.84983e-10
1.84961e-10
1.84941e-10
1.84921e-10
1.84901e-10
1.84883e-10
1.84865e-10
1.84848e-10
1.84832e-10
1.84816e-10
1.84801e-10
1.84787e-10
1.84774e-10
1.84761e-10
1.8475e-10
1.84739e-10
1.84728e-10
1.84719e-10
1.8471e-10
1.84702e-10
1.84694e-10
1.84687e-10
1.84681e-10
1.84675e-10
1.8467e-10
1.84666e-10
1.84662e-10
1.84658e-10
1.84655e-10
1.84653e-10
1.84651e-10
1.84649e-10
1.84648e-10
1.84647e-10
1.84647e-10
1.84646e-10
1.84646e-10
1.84647e-10
1.84648e-10
1.8465e-10
1.84652e-10
1.84655e-10
1.84658e-10
1.84662e-10
1.84666e-10
1.84671e-10
1.84676e-10
1.84682e-10
1.84689e-10
1.84696e-10
1.84704e-10
1.84713e-10
1.84723e-10
1.84733e-10
1.84745e-10
1.84757e-10
1.8477e-10
1.84784e-10
1.84799e-10
1.84815e-10
1.84832e-10
1.8485e-10
1.84869e-10
1.8489e-10
1.84911e-10
1.84934e-10
1.84957e-10
1.84983e-10
1.85009e-10
1.85036e-10
1.85065e-10
1.85095e-10
1.85127e-10
1.8516e-10
1.85195e-10
1.85231e-10
1.85268e-10
1.85308e-10
1.85349e-10
1.85392e-10
1.85436e-10
1.85483e-10
1.85531e-10
1.85582e-10
1.85634e-10
1.85689e-10
1.85745e-10
1.85804e-10
1.85866e-10
1.85929e-10
1.85994e-10
1.86062e-10
1.86132e-10
1.86204e-10
1.86278e-10
1.86354e-10
1.86431e-10
1.8651e-10
1.86591e-10
1.86672e-10
1.86755e-10
1.86838e-10
1.86921e-10
1.87005e-10
1.87088e-10
1.8717e-10
1.87251e-10
1.87331e-10
1.87408e-10
1.87482e-10
1.87554e-10
1.87622e-10
1.87685e-10
1.87745e-10
1.87799e-10
1.87847e-10
1.87889e-10
1.87925e-10
1.87954e-10
1.87975e-10
1.87989e-10
1.87995e-10
1.87996e-10
1.87996e-10
1.87991e-10
1.87969e-10
1.87936e-10
1.87894e-10
1.87845e-10
1.87789e-10
1.87726e-10
1.87657e-10
1.87583e-10
1.87504e-10
1.8742e-10
1.87333e-10
1.87244e-10
1.87153e-10
1.87061e-10
1.86968e-10
1.86876e-10
1.86785e-10
1.86695e-10
1.86608e-10
1.86523e-10
1.86442e-10
1.86364e-10
1.8629e-10
1.8622e-10
1.86154e-10
1.86093e-10
1.86035e-10
1.85983e-10
1.85934e-10
1.85889e-10
1.85849e-10
1.85812e-10
1.85778e-10
1.85748e-10
1.85721e-10
1.85697e-10
1.85675e-10
1.85655e-10
1.85638e-10
1.85622e-10
1.85607e-10
1.85594e-10
1.85581e-10
1.85569e-10
1.85558e-10
1.85548e-10
1.85537e-10
1.85527e-10
1.85516e-10
1.85506e-10
1.85495e-10
1.85484e-10
1.85473e-10
1.85461e-10
1.85449e-10
1.85436e-10
1.85423e-10
1.8541e-10
1.85396e-10
1.85381e-10
1.85367e-10
1.85351e-10
1.85336e-10
1.8532e-10
1.85303e-10
1.85287e-10
1.8527e-10
1.85252e-10
1.85235e-10
1.85217e-10
1.852e-10
1.85182e-10
1.85164e-10
1.85146e-10
1.85127e-10
1.85109e-10
1.85091e-10
1.85073e-10
1.85054e-10
1.85036e-10
1.85018e-10
1.85e-10
1.84982e-10
1.84964e-10
1.84947e-10
1.84929e-10
1.84912e-10
1.84895e-10
1.84878e-10
1.84861e-10
1.84845e-10
1.84829e-10
1.84813e-10
1.84798e-10
1.84783e-10
1.84768e-10
1.84754e-10
1.84741e-10
1.84727e-10
1.84715e-10
1.84702e-10
1.84691e-10
1.8468e-10
1.84669e-10
1.84659e-10
1.8465e-10
1.84641e-10
1.84633e-10
1.84625e-10
1.84618e-10
1.84612e-10
1.84606e-10
1.84601e-10
1.84597e-10
1.84593e-10
1.8459e-10
1.84587e-10
1.84585e-10
1.84584e-10
1.84583e-10
1.84583e-10
1.84583e-10
1.84584e-10
1.84585e-10
1.84586e-10
1.84588e-10
1.8459e-10
1.84594e-10
1.84597e-10
1.84601e-10
1.84605e-10
1.8461e-10
1.84616e-10
)
;

boundaryField
{
    inlet
    {
        type            calculated;
        value           uniform -2.74882e-10;
    }
    outlet
    {
        type            calculated;
        value           uniform 1.84622e-10;
    }
    emptyWalls
    {
        type            empty;
        value           nonuniform List<scalar> 0();
    }
}


// ************************************************************************* //
