/*--------------------------------*- C++ -*----------------------------------*\
  =========                 |
  \\      /  F ield         | OpenFOAM: The Open Source CFD Toolbox
   \\    /   O peration     | Website:  https://openfoam.org
    \\  /    A nd           | Version:  9
     \\/     M anipulation  |
\*---------------------------------------------------------------------------*/
FoamFile
{
    format      ascii;
    class       surfaceScalarField;
    location    "6900";
    object      phic;
}
// * * * * * * * * * * * * * * * * * * * * * * * * * * * * * * * * * * * * * //

dimensions      [0 2 0 0 0 0 0];

internalField   nonuniform List<scalar> 
999
(
1.46335e-14
6.49609e-14
1.3945e-13
2.2968e-13
3.28087e-13
4.46164e-13
7.07325e-13
1.58919e-12
5.17402e-12
1.76482e-11
2.0807e-11
2.18608e-11
2.24572e-11
2.28986e-11
2.32657e-11
2.35872e-11
2.38763e-11
2.41435e-11
2.43996e-11
2.46584e-11
2.4935e-11
2.52678e-11
2.56685e-11
2.61705e-11
2.68253e-11
2.76719e-11
2.8702e-11
2.98671e-11
3.11209e-11
3.24349e-11
3.3792e-11
3.51815e-11
3.65964e-11
3.80321e-11
3.94853e-11
4.09538e-11
4.24357e-11
4.393e-11
4.54357e-11
4.69518e-11
4.84778e-11
5.00132e-11
5.15573e-11
5.31098e-11
5.46701e-11
5.62379e-11
5.78126e-11
5.93942e-11
6.09824e-11
6.25771e-11
6.41782e-11
6.57857e-11
6.73994e-11
6.90187e-11
7.0643e-11
7.22718e-11
7.39046e-11
7.55408e-11
7.71802e-11
7.88227e-11
8.04685e-11
8.21177e-11
8.37709e-11
8.54282e-11
8.70901e-11
8.87572e-11
9.04302e-11
9.21096e-11
9.37965e-11
9.54913e-11
9.7195e-11
9.89083e-11
1.00632e-10
1.02365e-10
1.04108e-10
1.05861e-10
1.07622e-10
1.09391e-10
1.11165e-10
1.12945e-10
1.14729e-10
1.16515e-10
1.18303e-10
1.20093e-10
1.21883e-10
1.23674e-10
1.25466e-10
1.27258e-10
1.29053e-10
1.30849e-10
1.32647e-10
1.34449e-10
1.36254e-10
1.38064e-10
1.39877e-10
1.41696e-10
1.4352e-10
1.45348e-10
1.47183e-10
1.49022e-10
1.50868e-10
1.52718e-10
1.54574e-10
1.56435e-10
1.58302e-10
1.60173e-10
1.6205e-10
1.63932e-10
1.65818e-10
1.6771e-10
1.69606e-10
1.71507e-10
1.73413e-10
1.75324e-10
1.77239e-10
1.7916e-10
1.81085e-10
1.83015e-10
1.8495e-10
1.8689e-10
1.88834e-10
1.90784e-10
1.92739e-10
1.94698e-10
1.96663e-10
1.98633e-10
2.00608e-10
2.02588e-10
2.04573e-10
2.06564e-10
2.0856e-10
2.10561e-10
2.12568e-10
2.1458e-10
2.16598e-10
2.18621e-10
2.2065e-10
2.22684e-10
2.24724e-10
2.2677e-10
2.28822e-10
2.30879e-10
2.32942e-10
2.35011e-10
2.37085e-10
2.39166e-10
2.41252e-10
2.43345e-10
2.45443e-10
2.47547e-10
2.49657e-10
2.51774e-10
2.53896e-10
2.56024e-10
2.58159e-10
2.603e-10
2.62448e-10
2.64602e-10
2.66762e-10
2.68929e-10
2.71102e-10
2.73283e-10
2.7547e-10
2.77664e-10
2.79865e-10
2.82074e-10
2.84289e-10
2.86513e-10
2.88743e-10
2.90982e-10
2.93228e-10
2.95482e-10
2.97744e-10
3.00014e-10
3.02292e-10
3.04579e-10
3.06874e-10
3.09178e-10
3.1149e-10
3.13811e-10
3.16142e-10
3.18481e-10
3.2083e-10
3.23188e-10
3.25555e-10
3.27932e-10
3.30319e-10
3.32716e-10
3.35122e-10
3.37539e-10
3.39966e-10
3.42403e-10
3.44851e-10
3.47309e-10
3.49778e-10
3.52258e-10
3.54749e-10
3.57251e-10
3.59764e-10
3.62289e-10
3.64825e-10
3.67374e-10
3.69934e-10
3.72505e-10
3.75089e-10
3.77684e-10
3.80291e-10
3.8291e-10
3.85541e-10
3.88184e-10
3.90839e-10
3.93506e-10
3.96186e-10
3.98877e-10
4.01582e-10
4.04299e-10
4.07031e-10
4.09776e-10
4.12536e-10
4.15311e-10
4.18103e-10
4.20912e-10
4.23739e-10
4.26585e-10
4.29453e-10
4.32342e-10
4.35255e-10
4.38193e-10
4.41157e-10
4.44149e-10
4.47169e-10
4.50219e-10
4.53301e-10
4.56415e-10
4.59561e-10
4.62742e-10
4.65957e-10
4.69207e-10
4.7249e-10
4.75808e-10
4.79159e-10
4.82543e-10
4.85958e-10
4.89405e-10
4.92882e-10
4.96387e-10
4.99919e-10
5.03476e-10
5.07055e-10
5.10654e-10
5.14269e-10
5.17896e-10
5.2153e-10
5.25164e-10
5.28787e-10
5.32389e-10
5.35956e-10
5.39472e-10
5.42917e-10
5.4627e-10
5.49507e-10
5.52605e-10
5.55542e-10
5.58302e-10
5.60882e-10
5.63297e-10
5.65595e-10
5.67881e-10
5.7035e-10
5.7336e-10
5.77535e-10
5.83941e-10
5.94311e-10
6.11251e-10
6.38125e-10
6.77958e-10
7.30872e-10
7.91341e-10
8.4915e-10
8.95268e-10
9.26749e-10
9.45904e-10
9.56725e-10
9.62578e-10
9.65671e-10
9.67289e-10
9.68133e-10
9.68576e-10
9.68813e-10
9.68944e-10
9.69021e-10
9.69071e-10
9.69106e-10
9.69135e-10
9.69159e-10
9.69182e-10
9.69204e-10
9.69225e-10
9.69246e-10
9.69267e-10
9.69287e-10
9.69307e-10
9.69327e-10
9.69346e-10
9.69365e-10
9.69384e-10
9.69402e-10
9.69419e-10
9.69436e-10
9.69452e-10
9.69468e-10
9.69484e-10
9.69499e-10
9.69513e-10
9.69527e-10
9.6954e-10
9.69553e-10
9.69565e-10
9.69576e-10
9.69588e-10
9.69599e-10
9.69609e-10
9.69619e-10
9.69628e-10
9.69638e-10
9.69646e-10
9.69655e-10
9.69663e-10
9.69671e-10
9.69678e-10
9.69685e-10
9.69692e-10
9.69699e-10
9.69705e-10
9.69711e-10
9.69717e-10
9.69723e-10
9.69728e-10
9.69733e-10
9.69737e-10
9.69741e-10
9.69745e-10
9.69748e-10
9.69751e-10
9.69753e-10
9.69755e-10
9.69756e-10
9.69757e-10
9.69757e-10
9.69758e-10
9.69758e-10
9.69756e-10
9.69754e-10
9.69751e-10
9.69748e-10
9.69743e-10
9.69739e-10
9.69733e-10
9.69727e-10
9.6972e-10
9.69713e-10
9.69705e-10
9.69696e-10
9.69687e-10
9.69677e-10
9.69667e-10
9.69656e-10
9.69645e-10
9.69634e-10
9.69622e-10
9.69609e-10
9.69597e-10
9.69584e-10
9.69571e-10
9.69558e-10
9.69545e-10
9.69531e-10
9.69517e-10
9.69504e-10
9.6949e-10
9.69476e-10
9.69462e-10
9.69448e-10
9.69434e-10
9.69419e-10
9.69405e-10
9.6939e-10
9.69375e-10
9.6936e-10
9.69345e-10
9.69329e-10
9.69313e-10
9.69296e-10
9.69279e-10
9.69261e-10
9.69242e-10
9.69222e-10
9.69202e-10
9.6918e-10
9.69157e-10
9.69132e-10
9.69106e-10
9.69078e-10
9.69048e-10
9.69016e-10
9.68981e-10
9.68944e-10
9.68904e-10
9.68861e-10
9.68815e-10
9.68765e-10
9.68712e-10
9.68656e-10
9.68596e-10
9.68533e-10
9.68466e-10
9.68396e-10
9.68323e-10
9.68248e-10
9.68169e-10
9.68089e-10
9.68006e-10
9.67923e-10
9.67839e-10
9.67755e-10
9.67671e-10
9.6759e-10
9.6751e-10
9.67434e-10
9.67361e-10
9.67294e-10
9.67232e-10
9.67177e-10
9.6713e-10
9.6709e-10
9.6706e-10
9.67039e-10
9.67029e-10
9.67025e-10
9.67025e-10
9.67028e-10
9.67049e-10
9.67089e-10
9.6714e-10
9.67199e-10
9.67268e-10
9.67345e-10
9.67428e-10
9.67518e-10
9.67612e-10
9.6771e-10
9.6781e-10
9.67911e-10
9.68012e-10
9.68111e-10
9.68209e-10
9.68302e-10
9.68392e-10
9.68476e-10
9.68555e-10
9.68628e-10
9.68694e-10
9.68754e-10
9.68808e-10
9.68855e-10
9.68895e-10
9.6893e-10
9.68958e-10
9.68981e-10
9.69e-10
9.69013e-10
9.69023e-10
9.69029e-10
9.69032e-10
9.69032e-10
9.69032e-10
9.69032e-10
9.69027e-10
9.6902e-10
9.69014e-10
9.69007e-10
9.69e-10
9.68994e-10
9.68989e-10
9.68984e-10
9.68981e-10
9.68979e-10
9.68978e-10
9.68978e-10
9.68978e-10
9.68979e-10
9.68984e-10
9.6899e-10
9.68997e-10
9.69006e-10
9.69016e-10
9.69028e-10
9.69041e-10
9.69054e-10
9.69069e-10
9.69085e-10
9.69102e-10
9.69119e-10
9.69137e-10
9.69156e-10
9.69175e-10
9.69194e-10
9.69215e-10
9.69235e-10
9.69256e-10
9.69276e-10
9.69297e-10
9.69318e-10
9.69339e-10
9.69359e-10
9.6938e-10
9.694e-10
9.6942e-10
9.69439e-10
9.69459e-10
9.69477e-10
9.69496e-10
9.69514e-10
9.69531e-10
9.69548e-10
9.69564e-10
9.69579e-10
9.69594e-10
9.69608e-10
9.69622e-10
9.69635e-10
9.69648e-10
9.6966e-10
9.69671e-10
9.69682e-10
9.69692e-10
9.69702e-10
9.69712e-10
9.69721e-10
9.69729e-10
9.69738e-10
9.69746e-10
9.69753e-10
9.69761e-10
9.69768e-10
9.69775e-10
9.69781e-10
9.69788e-10
9.69794e-10
9.69799e-10
9.69805e-10
9.6981e-10
9.69815e-10
9.6982e-10
9.69824e-10
9.69829e-10
9.69832e-10
9.69836e-10
9.69839e-10
9.69842e-10
9.69844e-10
9.69846e-10
9.69848e-10
9.69849e-10
9.69849e-10
9.6985e-10
9.6985e-10
9.6985e-10
9.69849e-10
9.69847e-10
9.69844e-10
9.69841e-10
9.69837e-10
9.69832e-10
9.69827e-10
9.69821e-10
9.69815e-10
9.69808e-10
9.698e-10
9.69791e-10
9.69782e-10
9.69773e-10
9.69762e-10
9.69751e-10
9.6974e-10
9.69728e-10
9.69715e-10
9.69702e-10
9.69688e-10
9.69673e-10
9.69658e-10
9.69643e-10
9.69627e-10
9.69611e-10
9.69594e-10
9.69576e-10
9.69558e-10
9.69539e-10
9.6952e-10
9.695e-10
9.6948e-10
9.69458e-10
9.69437e-10
9.69414e-10
9.6939e-10
9.69366e-10
9.6934e-10
9.69313e-10
9.69285e-10
9.69256e-10
9.69226e-10
9.69194e-10
9.6916e-10
9.69124e-10
9.69087e-10
9.69048e-10
9.69006e-10
9.68963e-10
9.68917e-10
9.68868e-10
9.68818e-10
9.68765e-10
9.68709e-10
9.68652e-10
9.68592e-10
9.68529e-10
9.68465e-10
9.68399e-10
9.68331e-10
9.68261e-10
9.6819e-10
9.68117e-10
9.68045e-10
9.67971e-10
9.67898e-10
9.67826e-10
9.67755e-10
9.67685e-10
9.67617e-10
9.67552e-10
9.6749e-10
9.67431e-10
9.67377e-10
9.67328e-10
9.67283e-10
9.67245e-10
9.67213e-10
9.67187e-10
9.67169e-10
9.67158e-10
9.67154e-10
9.67154e-10
9.67155e-10
9.67161e-10
9.67188e-10
9.67222e-10
9.67263e-10
9.67311e-10
9.67365e-10
9.67425e-10
9.6749e-10
9.67558e-10
9.6763e-10
9.67705e-10
9.67782e-10
9.6786e-10
9.67938e-10
9.68015e-10
9.68091e-10
9.68166e-10
9.68237e-10
9.68306e-10
9.68372e-10
9.68434e-10
9.68491e-10
9.68545e-10
9.68594e-10
9.68639e-10
9.68679e-10
9.68716e-10
9.68748e-10
9.68776e-10
9.68801e-10
9.68822e-10
9.68839e-10
9.68854e-10
9.68867e-10
9.68877e-10
9.68885e-10
9.68891e-10
9.68896e-10
9.689e-10
9.68902e-10
9.68905e-10
9.68906e-10
9.68907e-10
9.68909e-10
9.6891e-10
9.68912e-10
9.68914e-10
9.68917e-10
9.6892e-10
9.68924e-10
9.68929e-10
9.68935e-10
9.68941e-10
9.68949e-10
9.68958e-10
9.68967e-10
9.68978e-10
9.68989e-10
9.69001e-10
9.69014e-10
9.69028e-10
9.69042e-10
9.69057e-10
9.69073e-10
9.6909e-10
9.69107e-10
9.69124e-10
9.69142e-10
9.69161e-10
9.69179e-10
9.69198e-10
9.69217e-10
9.69237e-10
9.69257e-10
9.69276e-10
9.69296e-10
9.69316e-10
9.69336e-10
9.69356e-10
9.69375e-10
9.69395e-10
9.69414e-10
9.69434e-10
9.69453e-10
9.69471e-10
9.69489e-10
9.69507e-10
9.69525e-10
9.69542e-10
9.69558e-10
9.69574e-10
9.6959e-10
9.69605e-10
9.6962e-10
9.69634e-10
9.69647e-10
9.6966e-10
9.69672e-10
9.69684e-10
9.69695e-10
9.69705e-10
9.69715e-10
9.69724e-10
9.69733e-10
9.69741e-10
9.69749e-10
9.69756e-10
9.69762e-10
9.69768e-10
9.69774e-10
9.69779e-10
9.69783e-10
9.69787e-10
9.69791e-10
9.69794e-10
9.69797e-10
9.69799e-10
9.69801e-10
9.69803e-10
9.69805e-10
9.69806e-10
9.69806e-10
9.69807e-10
9.69807e-10
9.69807e-10
9.69807e-10
9.69806e-10
9.69804e-10
9.69803e-10
9.69801e-10
9.69798e-10
9.69795e-10
9.69792e-10
9.69788e-10
9.69784e-10
9.69779e-10
9.69774e-10
9.69768e-10
9.69762e-10
9.69755e-10
9.69747e-10
9.69739e-10
9.6973e-10
9.69721e-10
9.6971e-10
9.69699e-10
9.69687e-10
9.69675e-10
9.69661e-10
9.69647e-10
9.69632e-10
9.69616e-10
9.69599e-10
9.69581e-10
9.69563e-10
9.69543e-10
9.69522e-10
9.695e-10
9.69478e-10
9.69454e-10
9.69429e-10
9.69403e-10
9.69376e-10
9.69347e-10
9.69318e-10
9.69287e-10
9.69254e-10
9.69221e-10
9.69186e-10
9.69149e-10
9.69111e-10
9.69071e-10
9.6903e-10
9.68987e-10
9.68942e-10
9.68896e-10
9.68847e-10
9.68798e-10
9.68746e-10
9.68693e-10
9.68638e-10
9.68581e-10
9.68523e-10
9.68463e-10
9.68402e-10
9.6834e-10
9.68276e-10
9.68212e-10
9.68147e-10
9.68082e-10
9.68016e-10
9.6795e-10
9.67885e-10
9.6782e-10
9.67756e-10
9.67694e-10
9.67633e-10
9.67574e-10
9.67518e-10
9.67465e-10
9.67415e-10
9.67368e-10
9.67325e-10
9.67287e-10
9.67254e-10
9.67226e-10
9.67203e-10
9.67186e-10
9.67176e-10
9.67171e-10
9.6717e-10
9.6717e-10
9.67174e-10
9.67191e-10
9.67218e-10
9.6725e-10
9.67289e-10
9.67333e-10
9.67382e-10
9.67437e-10
9.67495e-10
9.67558e-10
9.67623e-10
9.67692e-10
9.67762e-10
9.67834e-10
9.67906e-10
9.67979e-10
9.68052e-10
9.68124e-10
9.68194e-10
9.68263e-10
9.6833e-10
9.68394e-10
9.68455e-10
9.68513e-10
9.68568e-10
9.6862e-10
9.68668e-10
9.68713e-10
9.68755e-10
9.68794e-10
9.68829e-10
9.68861e-10
9.6889e-10
9.68916e-10
9.6894e-10
9.68961e-10
9.6898e-10
9.68997e-10
9.69013e-10
9.69027e-10
9.69039e-10
9.69051e-10
9.69061e-10
9.69071e-10
9.69081e-10
9.69089e-10
9.69098e-10
9.69106e-10
9.69114e-10
9.69122e-10
9.6913e-10
9.69139e-10
9.69148e-10
9.69156e-10
9.69166e-10
9.69175e-10
9.69185e-10
9.69195e-10
9.69206e-10
9.69217e-10
9.69228e-10
9.6924e-10
9.69252e-10
9.69264e-10
9.69277e-10
9.6929e-10
9.69303e-10
9.69316e-10
9.6933e-10
9.69343e-10
9.69357e-10
9.69371e-10
9.69385e-10
9.69399e-10
9.69414e-10
9.69428e-10
9.69442e-10
9.69457e-10
9.69471e-10
9.69485e-10
9.69499e-10
9.69514e-10
9.69528e-10
9.69542e-10
9.69556e-10
9.6957e-10
9.69583e-10
9.69597e-10
9.6961e-10
9.69623e-10
9.69636e-10
9.69649e-10
9.69662e-10
9.69674e-10
9.69686e-10
9.69698e-10
9.6971e-10
9.69721e-10
9.69731e-10
9.69742e-10
9.69752e-10
9.69761e-10
9.69771e-10
9.6978e-10
9.69788e-10
9.69796e-10
9.69803e-10
9.6981e-10
9.69817e-10
9.69823e-10
9.69828e-10
9.69833e-10
9.69838e-10
9.69842e-10
9.69845e-10
9.69848e-10
9.69851e-10
9.69853e-10
9.69855e-10
9.69856e-10
9.69856e-10
9.69856e-10
9.69856e-10
9.69856e-10
9.69855e-10
9.69854e-10
9.69853e-10
9.69851e-10
9.69848e-10
9.69846e-10
9.69843e-10
9.69839e-10
9.69835e-10
9.69831e-10
)
;

boundaryField
{
    inlet
    {
        type            calculated;
        value           uniform 0;
    }
    outlet
    {
        type            calculated;
        value           uniform 9.69827e-10;
    }
    emptyWalls
    {
        type            empty;
        value           nonuniform List<scalar> 0();
    }
}


// ************************************************************************* //
