/*--------------------------------*- C++ -*----------------------------------*\
  =========                 |
  \\      /  F ield         | OpenFOAM: The Open Source CFD Toolbox
   \\    /   O peration     | Website:  https://openfoam.org
    \\  /    A nd           | Version:  9
     \\/     M anipulation  |
\*---------------------------------------------------------------------------*/
FoamFile
{
    format      ascii;
    class       volScalarField;
    location    "6900";
    object      Sb;
}
// * * * * * * * * * * * * * * * * * * * * * * * * * * * * * * * * * * * * * //

dimensions      [0 0 0 0 0 0 0];

internalField   nonuniform List<scalar> 
1000
(
0.350876
0.353008
0.355313
0.35738
0.359393
0.360931
0.363291
0.367884
0.385829
0.499611
0.637801
0.664296
0.67261
0.676683
0.679096
0.680632
0.681625
0.682261
0.68265
0.682869
0.682924
0.682838
0.682526
0.681916
0.680849
0.679132
0.676699
0.673828
0.670771
0.667631
0.664468
0.661314
0.65819
0.655106
0.652068
0.649081
0.646145
0.64326
0.640428
0.637646
0.634913
0.632229
0.629593
0.627002
0.624455
0.621951
0.619488
0.617065
0.61468
0.612333
0.610022
0.607748
0.605507
0.6033
0.601124
0.598979
0.596862
0.594773
0.59271
0.590674
0.588662
0.586676
0.584714
0.582776
0.580863
0.578974
0.577109
0.575268
0.573451
0.571658
0.569889
0.568144
0.566422
0.564723
0.563046
0.56139
0.559755
0.558138
0.556539
0.554955
0.553387
0.551833
0.550291
0.548762
0.547244
0.545737
0.544242
0.542758
0.541285
0.539823
0.538373
0.536934
0.535506
0.53409
0.532686
0.531293
0.529911
0.528541
0.527182
0.525833
0.524495
0.523167
0.52185
0.520543
0.519245
0.517956
0.516676
0.515406
0.514144
0.51289
0.511645
0.510408
0.509179
0.507957
0.506744
0.505537
0.504338
0.503146
0.501961
0.500783
0.499611
0.498446
0.497288
0.496136
0.49499
0.49385
0.492716
0.491588
0.490466
0.48935
0.488239
0.487133
0.486033
0.484938
0.483848
0.482763
0.481683
0.480608
0.479538
0.478472
0.477411
0.476354
0.475301
0.474253
0.473209
0.472169
0.471133
0.470101
0.469073
0.468048
0.467027
0.466009
0.464995
0.463985
0.462977
0.461973
0.460972
0.459974
0.458979
0.457987
0.456998
0.456012
0.455028
0.454047
0.453069
0.452093
0.45112
0.450149
0.449181
0.448215
0.447251
0.446289
0.445329
0.444372
0.443416
0.442462
0.44151
0.44056
0.439612
0.438665
0.437719
0.436776
0.435833
0.434892
0.433952
0.433014
0.432076
0.43114
0.430204
0.42927
0.428336
0.427403
0.426471
0.425539
0.424608
0.423678
0.422747
0.421818
0.420888
0.419958
0.419029
0.418099
0.41717
0.41624
0.41531
0.414379
0.413448
0.412517
0.411584
0.410651
0.409717
0.408781
0.407845
0.406907
0.405968
0.405027
0.404085
0.403142
0.402196
0.401249
0.4003
0.39935
0.398398
0.397443
0.396487
0.395529
0.394568
0.393606
0.392641
0.391674
0.390705
0.389733
0.388759
0.387783
0.386803
0.385821
0.384835
0.383846
0.382854
0.381858
0.380858
0.379854
0.378846
0.377834
0.376817
0.375795
0.374769
0.373738
0.372703
0.371664
0.370622
0.369578
0.368533
0.367489
0.366448
0.365412
0.364387
0.363375
0.362382
0.361414
0.360477
0.359578
0.358723
0.357917
0.357164
0.356463
0.355805
0.355171
0.354522
0.353788
0.352841
0.351463
0.349291
0.345754
0.340046
0.33127
0.318906
0.30359
0.287472
0.273298
0.262775
0.255966
0.251965
0.249752
0.24857
0.247951
0.24763
0.247464
0.247379
0.247336
0.247314
0.247302
0.247297
0.247294
0.247293
0.247292
0.247292
0.247292
0.247292
0.247292
0.247292
0.247292
0.247293
0.247293
0.247293
0.247293
0.247293
0.247294
0.247294
0.247294
0.247294
0.247294
0.247294
0.247295
0.247295
0.247295
0.247295
0.247295
0.247295
0.247295
0.247295
0.247296
0.247296
0.247296
0.247296
0.247296
0.247296
0.247296
0.247296
0.247296
0.247296
0.247297
0.247297
0.247297
0.247297
0.247297
0.247297
0.247297
0.247297
0.247297
0.247297
0.247297
0.247297
0.247297
0.247297
0.247297
0.247297
0.247297
0.247297
0.247297
0.247297
0.247296
0.247296
0.247296
0.247296
0.247296
0.247296
0.247295
0.247295
0.247295
0.247294
0.247294
0.247294
0.247293
0.247293
0.247293
0.247292
0.247292
0.247292
0.247291
0.247291
0.24729
0.24729
0.247289
0.247289
0.247289
0.247288
0.247288
0.247287
0.247287
0.247287
0.247286
0.247286
0.247286
0.247285
0.247285
0.247284
0.247284
0.247284
0.247283
0.247283
0.247283
0.247282
0.247282
0.247282
0.247281
0.247281
0.247281
0.24728
0.24728
0.24728
0.247279
0.247279
0.247278
0.247278
0.247278
0.247277
0.247277
0.247276
0.247276
0.247275
0.247275
0.247274
0.247273
0.247273
0.247272
0.247271
0.247271
0.24727
0.247269
0.247268
0.247267
0.247267
0.247266
0.247265
0.247264
0.247263
0.247263
0.247262
0.247261
0.24726
0.24726
0.247259
0.247259
0.247258
0.247258
0.247258
0.247258
0.247258
0.247258
0.247258
0.247258
0.247258
0.247259
0.24726
0.24726
0.247261
0.247262
0.247263
0.247264
0.247265
0.247266
0.247267
0.247268
0.24727
0.247271
0.247272
0.247273
0.247274
0.247274
0.247275
0.247276
0.247277
0.247277
0.247278
0.247278
0.247279
0.247279
0.247279
0.24728
0.24728
0.24728
0.24728
0.24728
0.24728
0.24728
0.24728
0.24728
0.24728
0.24728
0.24728
0.24728
0.24728
0.24728
0.24728
0.24728
0.24728
0.247279
0.247279
0.247279
0.247279
0.247279
0.24728
0.24728
0.24728
0.24728
0.24728
0.24728
0.24728
0.24728
0.24728
0.247281
0.247281
0.247281
0.247281
0.247281
0.247281
0.247282
0.247282
0.247282
0.247282
0.247282
0.247282
0.247282
0.247283
0.247283
0.247283
0.247283
0.247283
0.247283
0.247284
0.247284
0.247284
0.247284
0.247284
0.247284
0.247285
0.247285
0.247285
0.247286
0.247286
0.247286
0.247286
0.247287
0.247287
0.247287
0.247288
0.247288
0.247288
0.247288
0.247289
0.247289
0.247289
0.247289
0.247289
0.24729
0.24729
0.24729
0.24729
0.24729
0.24729
0.24729
0.24729
0.24729
0.24729
0.24729
0.24729
0.24729
0.24729
0.24729
0.24729
0.24729
0.24729
0.24729
0.24729
0.24729
0.24729
0.24729
0.24729
0.24729
0.247289
0.247289
0.247289
0.247289
0.247289
0.247289
0.247289
0.247289
0.247289
0.247289
0.247289
0.247288
0.247288
0.247288
0.247288
0.247288
0.247288
0.247288
0.247287
0.247287
0.247287
0.247287
0.247287
0.247286
0.247286
0.247286
0.247286
0.247286
0.247285
0.247285
0.247285
0.247285
0.247284
0.247284
0.247284
0.247284
0.247283
0.247283
0.247283
0.247283
0.247282
0.247282
0.247281
0.247281
0.247281
0.24728
0.24728
0.247279
0.247279
0.247278
0.247278
0.247277
0.247277
0.247276
0.247276
0.247275
0.247274
0.247274
0.247273
0.247272
0.247271
0.247271
0.24727
0.247269
0.247269
0.247268
0.247267
0.247266
0.247266
0.247265
0.247264
0.247264
0.247263
0.247262
0.247262
0.247262
0.247261
0.247261
0.247261
0.247261
0.247261
0.247261
0.247261
0.247261
0.247261
0.247261
0.247261
0.247262
0.247262
0.247263
0.247264
0.247264
0.247265
0.247266
0.247267
0.247267
0.247268
0.247269
0.24727
0.247271
0.247271
0.247272
0.247273
0.247273
0.247274
0.247275
0.247275
0.247276
0.247276
0.247277
0.247277
0.247277
0.247277
0.247278
0.247278
0.247278
0.247278
0.247278
0.247278
0.247279
0.247279
0.247279
0.247279
0.247279
0.247279
0.247279
0.247279
0.247279
0.247279
0.247279
0.247279
0.247279
0.247279
0.247279
0.247279
0.247279
0.247279
0.247279
0.247279
0.247279
0.247279
0.247279
0.24728
0.24728
0.24728
0.24728
0.24728
0.24728
0.24728
0.247281
0.247281
0.247281
0.247281
0.247281
0.247282
0.247282
0.247282
0.247282
0.247283
0.247283
0.247283
0.247283
0.247284
0.247284
0.247284
0.247284
0.247284
0.247285
0.247285
0.247285
0.247285
0.247286
0.247286
0.247286
0.247286
0.247286
0.247287
0.247287
0.247287
0.247287
0.247287
0.247287
0.247288
0.247288
0.247288
0.247288
0.247288
0.247288
0.247288
0.247288
0.247288
0.247288
0.247288
0.247288
0.247288
0.247288
0.247288
0.247288
0.247288
0.247288
0.247288
0.247288
0.247288
0.247288
0.247288
0.247288
0.247288
0.247288
0.247288
0.247288
0.247288
0.247288
0.247288
0.247288
0.247288
0.247288
0.247288
0.247288
0.247288
0.247288
0.247288
0.247288
0.247288
0.247288
0.247288
0.247287
0.247287
0.247287
0.247287
0.247287
0.247287
0.247287
0.247287
0.247286
0.247286
0.247286
0.247286
0.247286
0.247286
0.247285
0.247285
0.247285
0.247285
0.247284
0.247284
0.247284
0.247284
0.247283
0.247283
0.247283
0.247282
0.247282
0.247282
0.247281
0.247281
0.24728
0.24728
0.24728
0.247279
0.247279
0.247278
0.247278
0.247277
0.247276
0.247276
0.247275
0.247275
0.247274
0.247273
0.247273
0.247272
0.247271
0.247271
0.24727
0.247269
0.247269
0.247268
0.247267
0.247267
0.247266
0.247265
0.247265
0.247264
0.247264
0.247263
0.247263
0.247262
0.247262
0.247262
0.247261
0.247261
0.247261
0.247261
0.247261
0.247261
0.247261
0.247261
0.247261
0.247262
0.247262
0.247262
0.247263
0.247263
0.247264
0.247265
0.247265
0.247266
0.247267
0.247267
0.247268
0.247269
0.24727
0.24727
0.247271
0.247272
0.247273
0.247273
0.247274
0.247275
0.247275
0.247276
0.247276
0.247277
0.247277
0.247278
0.247278
0.247278
0.247279
0.247279
0.247279
0.247279
0.24728
0.24728
0.24728
0.24728
0.24728
0.24728
0.24728
0.247281
0.247281
0.247281
0.247281
0.247281
0.247281
0.247281
0.247281
0.247281
0.247281
0.247281
0.247282
0.247282
0.247282
0.247282
0.247282
0.247282
0.247282
0.247282
0.247282
0.247283
0.247283
0.247283
0.247283
0.247283
0.247283
0.247283
0.247284
0.247284
0.247284
0.247284
0.247284
0.247284
0.247285
0.247285
0.247285
0.247285
0.247285
0.247285
0.247286
0.247286
0.247286
0.247286
0.247286
0.247286
0.247287
0.247287
0.247287
0.247287
0.247287
0.247287
0.247287
0.247288
0.247288
0.247288
0.247288
0.247288
0.247288
0.247288
0.247288
0.247288
0.247288
0.247289
0.247289
0.247289
0.247289
0.247289
0.247289
0.247289
0.247289
0.247289
0.247289
0.247289
0.247289
0.247289
0.247289
0.247289
0.247289
0.247289
0.247289
0.247289
0.247289
0.247289
0.247289
0.247289
0.247289
0.247289
0.247289
0.247289
0.247289
0.247289
0.247288
)
;

boundaryField
{
    inlet
    {
        type            fixedValue;
        value           uniform 0.35;
    }
    outlet
    {
        type            zeroGradient;
    }
    emptyWalls
    {
        type            empty;
    }
}


// ************************************************************************* //
