/*--------------------------------*- C++ -*----------------------------------*\
  =========                 |
  \\      /  F ield         | OpenFOAM: The Open Source CFD Toolbox
   \\    /   O peration     | Website:  https://openfoam.org
    \\  /    A nd           | Version:  9
     \\/     M anipulation  |
\*---------------------------------------------------------------------------*/
FoamFile
{
    format      ascii;
    class       volScalarField;
    location    "400";
    object      Fa;
}
// * * * * * * * * * * * * * * * * * * * * * * * * * * * * * * * * * * * * * //

dimensions      [0 0 0 0 0 0 0];

internalField   nonuniform List<scalar> 
100
(
0.694888
0.688968
0.680286
0.671538
0.66131
0.649942
0.636893
0.621749
0.603546
0.580517
0.548759
0.49833
0.399434
0.190746
0.0201434
6.6954e-05
3.39137e-11
1.09991e-25
1.37152e-33
1.47546e-33
1.35055e-33
1.51755e-33
1.39137e-33
1.39137e-33
1.39137e-33
1.51755e-33
1.35053e-33
1.51755e-33
1.39137e-33
1.69436e-33
1.39137e-33
1.51755e-33
1.51755e-33
1.47488e-33
1.39137e-33
1.47488e-33
1.51755e-33
1.39137e-33
1.39137e-33
1.47488e-33
1.51755e-33
1.51755e-33
1.51755e-33
1.51755e-33
1.51755e-33
1.39137e-33
1.51755e-33
1.51755e-33
1.39137e-33
1.51755e-33
1.47488e-33
1.39137e-33
1.39137e-33
1.51755e-33
1.39137e-33
1.47488e-33
1.39137e-33
1.39137e-33
1.47488e-33
1.51755e-33
1.47488e-33
1.51755e-33
1.47488e-33
1.39137e-33
1.39137e-33
1.64924e-33
1.51755e-33
1.60473e-33
1.39137e-33
1.39137e-33
1.51755e-33
1.60473e-33
1.51755e-33
1.64924e-33
1.60473e-33
1.64924e-33
1.51755e-33
1.51755e-33
1.51755e-33
1.60473e-33
1.39137e-33
1.64924e-33
1.51755e-33
1.51755e-33
1.60473e-33
1.35053e-33
1.64924e-33
1.51755e-33
1.60473e-33
1.64924e-33
1.60473e-33
1.64924e-33
1.51755e-33
1.60473e-33
1.64924e-33
1.39137e-33
1.60473e-33
1.64924e-33
1.60473e-33
1.64924e-33
)
;

boundaryField
{
    inlet
    {
        type            calculated;
        value           uniform 0.364462;
    }
    outlet
    {
        type            calculated;
        value           uniform 5.9205e-34;
    }
    emptyWalls
    {
        type            empty;
    }
}


// ************************************************************************* //
