/*--------------------------------*- C++ -*----------------------------------*\
  =========                 |
  \\      /  F ield         | OpenFOAM: The Open Source CFD Toolbox
   \\    /   O peration     | Website:  https://openfoam.org
    \\  /    A nd           | Version:  9
     \\/     M anipulation  |
\*---------------------------------------------------------------------------*/
FoamFile
{
    format      ascii;
    class       volScalarField;
    location    "400";
    object      Foil;
}
// * * * * * * * * * * * * * * * * * * * * * * * * * * * * * * * * * * * * * //

dimensions      [0 0 0 0 0 0 0];

internalField   nonuniform List<scalar> 
100
(
1
1
0.95028
0.852709
0.762177
0.690159
0.624347
0.564649
0.507202
0.449633
0.387749
0.314809
0.219157
0.0998593
0.0274103
0.0178669
0.0510572
0.266467
0.355429
0.358849
0.358936
0.358938
0.358938
0.358938
0.358938
0.358938
0.358938
0.358938
0.358938
0.358938
0.358938
0.358938
0.358938
0.358938
0.358938
0.358938
0.358938
0.358938
0.358938
0.358938
0.358938
0.358938
0.358938
0.358938
0.358938
0.358938
0.358938
0.358938
0.358938
0.358938
0.358938
0.358938
0.358938
0.358938
0.358938
0.358938
0.358938
0.358938
0.358938
0.358938
0.358938
0.358938
0.358938
0.358938
0.358938
0.358938
0.358938
0.358938
0.358938
0.358938
0.358938
0.358938
0.358938
0.358938
0.358938
0.358938
0.358938
0.358938
0.358938
0.358938
0.358938
0.358938
0.358938
0.358938
0.358938
0.358938
0.358938
0.358938
0.358938
0.358938
0.358938
0.358938
0.358938
0.358938
0.358938
0.358938
0.358938
0.358938
0.358938
0.358938
)
;

boundaryField
{
    inlet
    {
        type            calculated;
        value           uniform 0.481947;
    }
    outlet
    {
        type            calculated;
        value           uniform 0.013;
    }
    emptyWalls
    {
        type            empty;
    }
}


// ************************************************************************* //
