/*--------------------------------*- C++ -*----------------------------------*\
  =========                 |
  \\      /  F ield         | OpenFOAM: The Open Source CFD Toolbox
   \\    /   O peration     | Website:  https://openfoam.org
    \\  /    A nd           | Version:  9
     \\/     M anipulation  |
\*---------------------------------------------------------------------------*/
FoamFile
{
    format      ascii;
    class       volScalarField;
    location    "400";
    object      kra;
}
// * * * * * * * * * * * * * * * * * * * * * * * * * * * * * * * * * * * * * //

dimensions      [0 0 0 0 0 0 0];

internalField   nonuniform List<scalar> 
100
(
3.69015e-05
2.59824e-05
2.81858e-05
2.7661e-05
2.81825e-05
2.81767e-05
2.8309e-05
2.83014e-05
2.82588e-05
2.81061e-05
2.77936e-05
2.70953e-05
2.51087e-05
1.7621e-05
3.58618e-06
1.55827e-08
1.0349e-14
7.42193e-29
1.08902e-36
1.17796e-36
1.07839e-36
1.21174e-36
1.11099e-36
1.11099e-36
1.11099e-36
1.21174e-36
1.07838e-36
1.21174e-36
1.11099e-36
1.35292e-36
1.11099e-36
1.21174e-36
1.21174e-36
1.17767e-36
1.11099e-36
1.17767e-36
1.21174e-36
1.11099e-36
1.11099e-36
1.17767e-36
1.21174e-36
1.21174e-36
1.21174e-36
1.21174e-36
1.21174e-36
1.11099e-36
1.21174e-36
1.21174e-36
1.11099e-36
1.21174e-36
1.17767e-36
1.11099e-36
1.11099e-36
1.21174e-36
1.11099e-36
1.17767e-36
1.11099e-36
1.11099e-36
1.17767e-36
1.21174e-36
1.17767e-36
1.21174e-36
1.17767e-36
1.11099e-36
1.11099e-36
1.31689e-36
1.21174e-36
1.28135e-36
1.11099e-36
1.11099e-36
1.21174e-36
1.28135e-36
1.21174e-36
1.31689e-36
1.28135e-36
1.31689e-36
1.21174e-36
1.21174e-36
1.21174e-36
1.28135e-36
1.11099e-36
1.31689e-36
1.21174e-36
1.21174e-36
1.28135e-36
1.07838e-36
1.31689e-36
1.21174e-36
1.28135e-36
1.31689e-36
1.28135e-36
1.31689e-36
1.21174e-36
1.28135e-36
1.31689e-36
1.11099e-36
1.28135e-36
1.31689e-36
1.28135e-36
1.31689e-36
)
;

boundaryField
{
    inlet
    {
        type            calculated;
        value           uniform 9.29179e-06;
    }
    outlet
    {
        type            calculated;
        value           uniform 4.72742e-37;
    }
    emptyWalls
    {
        type            empty;
    }
}


// ************************************************************************* //
