/*--------------------------------*- C++ -*----------------------------------*\
  =========                 |
  \\      /  F ield         | OpenFOAM: The Open Source CFD Toolbox
   \\    /   O peration     | Website:  https://openfoam.org
    \\  /    A nd           | Version:  9
     \\/     M anipulation  |
\*---------------------------------------------------------------------------*/
FoamFile
{
    format      ascii;
    class       volScalarField;
    location    "400";
    object      Nca;
}
// * * * * * * * * * * * * * * * * * * * * * * * * * * * * * * * * * * * * * //

dimensions      [0 0 0 0 0 0 0];

internalField   nonuniform List<scalar> 
100
(
0.000284243
0.000222025
0.000248
0.00023704
0.000233758
0.000227829
0.000223093
0.00021772
0.000212139
0.000205705
0.000197807
0.000186732
0.000167958
0.000130911
8.05108e-05
4.85384e-05
3.70818e-05
2.33005e-05
1.34221e-05
1.22989e-05
1.22644e-05
1.22636e-05
1.22636e-05
1.22636e-05
1.22636e-05
1.22636e-05
1.22636e-05
1.22636e-05
1.22636e-05
1.22636e-05
1.22636e-05
1.22636e-05
1.22636e-05
1.22636e-05
1.22636e-05
1.22636e-05
1.22636e-05
1.22636e-05
1.22636e-05
1.22636e-05
1.22636e-05
1.22636e-05
1.22636e-05
1.22636e-05
1.22636e-05
1.22636e-05
1.22636e-05
1.22636e-05
1.22636e-05
1.22636e-05
1.22636e-05
1.22636e-05
1.22636e-05
1.22636e-05
1.22636e-05
1.22636e-05
1.22636e-05
1.22636e-05
1.22636e-05
1.22636e-05
1.22636e-05
1.22636e-05
1.22636e-05
1.22636e-05
1.22636e-05
1.22636e-05
1.22636e-05
1.22636e-05
1.22636e-05
1.22636e-05
1.22636e-05
1.22636e-05
1.22636e-05
1.22636e-05
1.22636e-05
1.22636e-05
1.22636e-05
1.22636e-05
1.22636e-05
1.22636e-05
1.22636e-05
1.22636e-05
1.22636e-05
1.22636e-05
1.22636e-05
1.22636e-05
1.22636e-05
1.22636e-05
1.22636e-05
1.22636e-05
1.22636e-05
1.22636e-05
1.22636e-05
1.22636e-05
1.22636e-05
1.22636e-05
1.22636e-05
1.22636e-05
1.22636e-05
1.22636e-05
)
;

boundaryField
{
    inlet
    {
        type            calculated;
        value           uniform 0.000384092;
    }
    outlet
    {
        type            calculated;
        value           uniform 1.22636e-05;
    }
    emptyWalls
    {
        type            empty;
    }
}


// ************************************************************************* //
