/*--------------------------------*- C++ -*----------------------------------*\
  =========                 |
  \\      /  F ield         | OpenFOAM: The Open Source CFD Toolbox
   \\    /   O peration     | Website:  https://openfoam.org
    \\  /    A nd           | Version:  9
     \\/     M anipulation  |
\*---------------------------------------------------------------------------*/
FoamFile
{
    format      ascii;
    class       surfaceScalarField;
    location    "400";
    object      phib;
}
// * * * * * * * * * * * * * * * * * * * * * * * * * * * * * * * * * * * * * //

dimensions      [0 2 0 0 0 0 0];

internalField   nonuniform List<scalar> 
99
(
6.08683e-09
6.08176e-09
6.09175e-09
6.09703e-09
6.10653e-09
6.11715e-09
6.13113e-09
6.14905e-09
6.17346e-09
6.20899e-09
6.26758e-09
6.38709e-09
6.73314e-09
7.90493e-09
9.22913e-09
1.0257e-08
1.5995e-08
1.99122e-08
2.00896e-08
2.00941e-08
2.00942e-08
2.00942e-08
2.00942e-08
2.00942e-08
2.00942e-08
2.00942e-08
2.00942e-08
2.00942e-08
2.00942e-08
2.00942e-08
2.00942e-08
2.00942e-08
2.00942e-08
2.00942e-08
2.00942e-08
2.00942e-08
2.00942e-08
2.00942e-08
2.00942e-08
2.00942e-08
2.00942e-08
2.00942e-08
2.00942e-08
2.00942e-08
2.00942e-08
2.00942e-08
2.00942e-08
2.00942e-08
2.00942e-08
2.00942e-08
2.00942e-08
2.00942e-08
2.00942e-08
2.00942e-08
2.00942e-08
2.00942e-08
2.00942e-08
2.00942e-08
2.00942e-08
2.00942e-08
2.00942e-08
2.00942e-08
2.00942e-08
2.00942e-08
2.00942e-08
2.00942e-08
2.00942e-08
2.00942e-08
2.00942e-08
2.00942e-08
2.00942e-08
2.00942e-08
2.00942e-08
2.00942e-08
2.00942e-08
2.00942e-08
2.00942e-08
2.00942e-08
2.00942e-08
2.00942e-08
2.00942e-08
2.00942e-08
2.00942e-08
2.00942e-08
2.00942e-08
2.00942e-08
2.00942e-08
2.00942e-08
2.00942e-08
2.00942e-08
2.00942e-08
2.00942e-08
2.00942e-08
2.00942e-08
2.00942e-08
2.00942e-08
2.00942e-08
2.00942e-08
2.00942e-08
)
;

boundaryField
{
    inlet
    {
        type            calculated;
        value           uniform -6.09112e-09;
    }
    outlet
    {
        type            calculated;
        value           uniform 2.00942e-08;
    }
    emptyWalls
    {
        type            empty;
        value           nonuniform List<scalar> 0();
    }
}


// ************************************************************************* //
