/*--------------------------------*- C++ -*----------------------------------*\
  =========                 |
  \\      /  F ield         | OpenFOAM: The Open Source CFD Toolbox
   \\    /   O peration     | Website:  https://openfoam.org
    \\  /    A nd           | Version:  9
     \\/     M anipulation  |
\*---------------------------------------------------------------------------*/
FoamFile
{
    format      ascii;
    class       surfaceScalarField;
    location    "400";
    object      phic;
}
// * * * * * * * * * * * * * * * * * * * * * * * * * * * * * * * * * * * * * //

dimensions      [0 2 0 0 0 0 0];

internalField   nonuniform List<scalar> 
99
(
1.08092e-10
2.33357e-10
3.99638e-10
5.7197e-10
7.70147e-10
9.90329e-10
1.2413e-09
1.53085e-09
1.87605e-09
2.30807e-09
2.8943e-09
3.79868e-09
5.4606e-09
8.52595e-09
1.06656e-08
1.00454e-08
4.3087e-09
3.91554e-10
2.1414e-10
2.09606e-10
2.09493e-10
2.0949e-10
2.0949e-10
2.0949e-10
2.0949e-10
2.0949e-10
2.0949e-10
2.0949e-10
2.0949e-10
2.0949e-10
2.0949e-10
2.0949e-10
2.0949e-10
2.0949e-10
2.0949e-10
2.0949e-10
2.0949e-10
2.0949e-10
2.0949e-10
2.0949e-10
2.0949e-10
2.0949e-10
2.0949e-10
2.0949e-10
2.0949e-10
2.0949e-10
2.0949e-10
2.0949e-10
2.0949e-10
2.0949e-10
2.0949e-10
2.0949e-10
2.0949e-10
2.0949e-10
2.0949e-10
2.0949e-10
2.0949e-10
2.0949e-10
2.0949e-10
2.0949e-10
2.0949e-10
2.0949e-10
2.0949e-10
2.0949e-10
2.0949e-10
2.0949e-10
2.0949e-10
2.0949e-10
2.0949e-10
2.0949e-10
2.0949e-10
2.0949e-10
2.0949e-10
2.0949e-10
2.0949e-10
2.0949e-10
2.0949e-10
2.0949e-10
2.0949e-10
2.0949e-10
2.0949e-10
2.0949e-10
2.0949e-10
2.0949e-10
2.0949e-10
2.0949e-10
2.0949e-10
2.0949e-10
2.0949e-10
2.0949e-10
2.0949e-10
2.0949e-10
2.0949e-10
2.0949e-10
2.0949e-10
2.0949e-10
2.0949e-10
2.0949e-10
2.0949e-10
)
;

boundaryField
{
    inlet
    {
        type            calculated;
        value           uniform 0;
    }
    outlet
    {
        type            calculated;
        value           uniform 2.0949e-10;
    }
    emptyWalls
    {
        type            empty;
        value           nonuniform List<scalar> 0();
    }
}


// ************************************************************************* //
