/*--------------------------------*- C++ -*----------------------------------*\
  =========                 |
  \\      /  F ield         | OpenFOAM: The Open Source CFD Toolbox
   \\    /   O peration     | Website:  https://openfoam.org
    \\  /    A nd           | Version:  9
     \\/     M anipulation  |
\*---------------------------------------------------------------------------*/
FoamFile
{
    format      ascii;
    class       volScalarField;
    location    "9600";
    object      Fa;
}
// * * * * * * * * * * * * * * * * * * * * * * * * * * * * * * * * * * * * * //

dimensions      [0 0 0 0 0 0 0];

internalField   nonuniform List<scalar> 
1000
(
0.194988
0.194696
0.194795
0.19462
0.194568
0.194436
0.19435
0.194224
0.194149
0.194019
0.193853
0.19321
0.189582
0.165233
0.152816
0.15034
0.149234
0.148573
0.148091
0.147693
0.147381
0.147114
0.14688
0.146689
0.146503
0.146339
0.146221
0.146041
0.145976
0.145818
0.1457
0.14559
0.145499
0.145425
0.145371
0.145339
0.145336
0.145363
0.145386
0.145411
0.145454
0.145532
0.145659
0.145834
0.146049
0.146287
0.146532
0.146772
0.146999
0.147209
0.147393
0.147545
0.147655
0.14771
0.147702
0.147623
0.147473
0.147257
0.146983
0.146668
0.146327
0.14598
0.145643
0.145331
0.145055
0.144821
0.144634
0.144491
0.144391
0.144327
0.144293
0.144281
0.144285
0.144299
0.144316
0.144333
0.144345
0.144351
0.144348
0.144338
0.144319
0.144292
0.144258
0.144219
0.144174
0.144125
0.144073
0.144019
0.143964
0.143907
0.14385
0.143792
0.143735
0.143677
0.143619
0.143562
0.143505
0.143448
0.143392
0.143337
0.143283
0.14323
0.143177
0.143126
0.143077
0.143028
0.142981
0.142936
0.142892
0.14285
0.142808
0.142769
0.14273
0.142692
0.142655
0.142619
0.142583
0.142548
0.142513
0.142478
0.142444
0.14241
0.142376
0.142342
0.142309
0.142276
0.142243
0.142211
0.142179
0.142148
0.142117
0.142087
0.142058
0.142029
0.142001
0.141973
0.141946
0.14192
0.141895
0.14187
0.141846
0.141822
0.141799
0.141777
0.141756
0.141735
0.141714
0.141694
0.141675
0.141655
0.141636
0.141617
0.141597
0.141578
0.141558
0.141539
0.14152
0.141502
0.141484
0.141467
0.141451
0.141436
0.141422
0.141409
0.141397
0.141386
0.141377
0.141369
0.141364
0.141363
0.141365
0.141374
0.141387
0.141408
0.141435
0.141474
0.141519
0.141576
0.141639
0.141717
0.141798
0.141892
0.141988
0.142095
0.142199
0.142312
0.142417
0.142526
0.142623
0.142715
0.142793
0.142858
0.142905
0.142934
0.14294
0.142924
0.142885
0.14282
0.142734
0.142625
0.142496
0.142349
0.142188
0.142017
0.141837
0.141655
0.141471
0.141291
0.141117
0.140952
0.140796
0.140653
0.140522
0.140404
0.140299
0.140206
0.140125
0.140055
0.139994
0.139941
0.139895
0.139855
0.13982
0.139787
0.139757
0.139728
0.139699
0.13967
0.139641
0.13961
0.139577
0.139543
0.139506
0.139468
0.139428
0.139386
0.139343
0.139297
0.139251
0.139203
0.139154
0.139104
0.139053
0.139002
0.13895
0.138897
0.138845
0.138792
0.138739
0.138686
0.138633
0.138581
0.138528
0.138476
0.138424
0.138373
0.138323
0.138272
0.138223
0.138174
0.138126
0.138078
0.138031
0.137985
0.13794
0.137895
0.137851
0.137808
0.137766
0.137724
0.137683
0.137642
0.137602
0.137563
0.137524
0.137486
0.137449
0.137412
0.137375
0.137339
0.137303
0.137268
0.137233
0.137199
0.137165
0.137131
0.137097
0.137064
0.137032
0.136999
0.136967
0.136935
0.136904
0.136872
0.136841
0.13681
0.13678
0.13675
0.13672
0.13669
0.13666
0.136631
0.136602
0.136574
0.136545
0.136517
0.136489
0.136462
0.136434
0.136407
0.13638
0.136353
0.136326
0.1363
0.136273
0.136247
0.136221
0.136195
0.136169
0.136143
0.136117
0.136092
0.136066
0.136041
0.136017
0.135992
0.135968
0.135945
0.135922
0.135899
0.135878
0.135857
0.135837
0.135818
0.135801
0.135785
0.135771
0.135759
0.135749
0.135742
0.135737
0.135736
0.135737
0.135742
0.135751
0.135763
0.135779
0.135799
0.135823
0.135851
0.135883
0.135918
0.135956
0.135997
0.136041
0.136087
0.136134
0.136183
0.136231
0.136279
0.136326
0.136371
0.136413
0.136452
0.136486
0.136516
0.13654
0.136557
0.136569
0.136572
0.136568
0.136555
0.136534
0.136504
0.136465
0.136416
0.136355
0.136282
0.136192
0.136079
0.135931
0.135729
0.135445
0.135046
0.134515
0.133888
0.133279
0.132808
0.132501
0.13231
0.132182
0.132086
0.132008
0.13194
0.13188
0.131826
0.131778
0.131735
0.131697
0.131663
0.131634
0.131609
0.131587
0.131568
0.131553
0.13154
0.131529
0.13152
0.131513
0.131507
0.131502
0.131498
0.131494
0.131491
0.131488
0.131485
0.131481
0.131477
0.131473
0.131469
0.131463
0.131458
0.131451
0.131444
0.131437
0.131428
0.131419
0.13141
0.1314
0.13139
0.131379
0.131368
0.131356
0.131345
0.131332
0.13132
0.131307
0.131295
0.131282
0.131269
0.131256
0.131243
0.13123
0.131217
0.131204
0.131191
0.131178
0.131166
0.131153
0.131141
0.131129
0.131117
0.131106
0.131095
0.131084
0.131073
0.131063
0.131053
0.131043
0.131034
0.131025
0.131017
0.131009
0.131002
0.130994
0.130988
0.130982
0.130976
0.130971
0.130966
0.130962
0.130958
0.130955
0.130952
0.130949
0.130947
0.130946
0.130944
0.130944
0.130943
0.130943
0.130943
0.130943
0.130943
0.130945
0.130946
0.130948
0.130949
0.130952
0.130954
0.130956
0.130959
0.130962
0.130965
0.130968
0.130972
0.130976
0.130979
0.130984
0.130988
0.130992
0.130997
0.131001
0.131006
0.131012
0.131017
0.131022
0.131028
0.131034
0.13104
0.131046
0.131052
0.131059
0.131066
0.131073
0.13108
0.131087
0.131095
0.131103
0.131111
0.13112
0.131128
0.131138
0.131147
0.131157
0.131167
0.131178
0.131189
0.131201
0.131213
0.131226
0.13124
0.131255
0.13127
0.131287
0.131305
0.131324
0.131344
0.131365
0.131388
0.131413
0.131439
0.131467
0.131497
0.131529
0.131563
0.1316
0.131638
0.131679
0.131722
0.131767
0.131815
0.131865
0.131917
0.131971
0.132027
0.132085
0.132144
0.132205
0.132267
0.13233
0.132394
0.132457
0.132521
0.132583
0.132645
0.132706
0.132764
0.13282
0.132873
0.132922
0.132968
0.13301
0.133046
0.133078
0.133104
0.133125
0.133139
0.133147
0.133149
0.133149
0.133148
0.133139
0.133116
0.133086
0.133051
0.13301
0.132965
0.132915
0.132861
0.132804
0.132744
0.132681
0.132618
0.132553
0.132488
0.132423
0.13236
0.132297
0.132236
0.132178
0.132122
0.132068
0.132018
0.13197
0.131926
0.131885
0.131848
0.131814
0.131782
0.131754
0.131729
0.131706
0.131686
0.131668
0.131652
0.131638
0.131626
0.131615
0.131605
0.131596
0.131588
0.13158
0.131573
0.131567
0.13156
0.131554
0.131547
0.131541
0.131534
0.131526
0.131519
0.131511
0.131502
0.131494
0.131484
0.131475
0.131465
0.131454
0.131443
0.131432
0.13142
0.131408
0.131396
0.131383
0.131371
0.131358
0.131344
0.131331
0.131317
0.131304
0.13129
0.131276
0.131262
0.131249
0.131235
0.131221
0.131207
0.131193
0.13118
0.131166
0.131153
0.13114
0.131127
0.131114
0.131101
0.131088
0.131076
0.131064
0.131052
0.131041
0.13103
0.131019
0.131008
0.130998
0.130988
0.130979
0.13097
0.130961
0.130953
0.130945
0.130938
0.130931
0.130925
0.130919
0.130913
0.130908
0.130903
0.130899
0.130896
0.130893
0.13089
0.130888
0.130886
0.130885
0.130884
0.130884
0.130883
0.130884
0.130884
0.130885
0.130887
0.130889
0.130891
0.130894
0.130897
0.130901
0.130905
0.130909
0.130914
0.130919
0.130924
0.130929
0.130935
0.130941
0.130948
0.130954
0.130961
0.130969
0.130976
0.130984
0.130992
0.131
0.131009
0.131018
0.131027
0.131036
0.131046
0.131057
0.131067
0.131078
0.13109
0.131102
0.131114
0.131127
0.131141
0.131155
0.13117
0.131186
0.131202
0.13122
0.131238
0.131257
0.131278
0.131299
0.131322
0.131346
0.131371
0.131398
0.131426
0.131456
0.131487
0.13152
0.131555
0.131591
0.131629
0.131669
0.131711
0.131754
0.131799
0.131845
0.131893
0.131942
0.131993
0.132045
0.132098
0.132151
0.132206
0.132261
0.132316
0.132371
0.132425
0.132479
0.132532
0.132584
0.132635
0.132683
0.13273
0.132773
0.132814
0.132852
0.132887
0.132917
0.132944
0.132966
0.132984
0.132998
0.133006
0.133009
0.13301
0.133009
0.133007
0.132993
0.132972
0.132947
0.132918
0.132884
0.132847
0.132806
0.132762
0.132716
0.132667
0.132616
0.132565
0.132512
0.132459
0.132405
0.132352
0.1323
0.132249
0.132199
0.13215
0.132104
0.132059
0.132016
0.131976
0.131938
0.131902
0.131868
0.131837
0.131808
0.131781
0.131756
0.131733
0.131712
0.131693
0.131675
0.131658
0.131643
0.131628
0.131615
0.131602
0.13159
0.131578
0.131567
0.131556
0.131546
0.131535
0.131524
0.131514
0.131503
0.131492
0.13148
0.131469
0.131457
0.131445
0.131433
0.13142
0.131407
0.131394
0.13138
0.131366
0.131352
0.131338
0.131324
0.131309
0.131294
0.131279
0.131264
0.131249
0.131234
0.131219
0.131204
0.131189
0.131174
0.131159
0.131144
0.131129
0.131115
0.1311
0.131086
0.131072
0.131058
0.131044
0.131031
0.131018
0.131005
0.130992
0.13098
0.130968
0.130957
0.130946
0.130935
0.130925
0.130915
0.130905
0.130896
0.130888
0.13088
0.130872
0.130865
0.130859
0.130853
0.130847
0.130843
0.130838
0.130835
0.130832
0.130829
0.130827
0.130826
0.130826
0.130826
0.130826
0.130826
0.130827
0.130829
0.130832
0.130835
0.130839
0.130844
0.130849
0.130854
0.13086
0.130866
0.130873
0.13088
0.130888
0.130896
0.130905
0.130913
0.130923
0.130932
0.130942
0.130952
0.130963
0.130973
0.130984
0.130996
0.131007
0.131019
0.131032
0.131044
0.131057
0.13107
0.131083
0.131097
0.131111
0.131125
0.13114
0.131155
0.131171
0.131187
0.131203
0.13122
0.131238
0.131256
0.131275
0.131295
0.131315
0.131336
0.131359
0.131381
0.131405
0.13143
0.131456
0.131483
0.131511
0.13154
0.131571
0.131602
0.131635
0.131669
0.131705
0.131742
0.13178
0.131819
0.131859
0.1319
0.131943
0.131986
0.132031
0.132076
0.132122
0.132168
0.132215
0.132262
0.132309
0.132356
0.132403
0.13245
0.132495
0.13254
0.132583
0.132625
0.132666
0.132705
0.132741
0.132775
0.132807
0.132836
0.132861
0.132884
0.132903
0.132919
0.132931
0.132938
0.132941
0.132941
0.132946
)
;

boundaryField
{
    inlet
    {
        type            calculated;
        value           uniform 0.194831;
    }
    outlet
    {
        type            calculated;
        value           uniform 0.132938;
    }
    emptyWalls
    {
        type            empty;
    }
}


// ************************************************************************* //
