/*--------------------------------*- C++ -*----------------------------------*\
  =========                 |
  \\      /  F ield         | OpenFOAM: The Open Source CFD Toolbox
   \\    /   O peration     | Website:  https://openfoam.org
    \\  /    A nd           | Version:  9
     \\/     M anipulation  |
\*---------------------------------------------------------------------------*/
FoamFile
{
    format      ascii;
    class       surfaceScalarField;
    location    "9600";
    object      phic;
}
// * * * * * * * * * * * * * * * * * * * * * * * * * * * * * * * * * * * * * //

dimensions      [0 2 0 0 0 0 0];

internalField   nonuniform List<scalar> 
999
(
6.73865e-15
3.0735e-14
7.07516e-14
1.24425e-13
1.89267e-13
2.61498e-13
3.36385e-13
4.09682e-13
4.82234e-13
5.80613e-13
8.52199e-13
1.79696e-12
6.13706e-12
1.80877e-11
2.08017e-11
2.16984e-11
2.2196e-11
2.2557e-11
2.28549e-11
2.31171e-11
2.33554e-11
2.35758e-11
2.37823e-11
2.39781e-11
2.41671e-11
2.43532e-11
2.45399e-11
2.47311e-11
2.49307e-11
2.51539e-11
2.53949e-11
2.56603e-11
2.5963e-11
2.63234e-11
2.67683e-11
2.73233e-11
2.79978e-11
2.87755e-11
2.96272e-11
3.05294e-11
3.14667e-11
3.24293e-11
3.34107e-11
3.44066e-11
3.54144e-11
3.64325e-11
3.74598e-11
3.84956e-11
3.95391e-11
4.059e-11
4.16481e-11
4.27134e-11
4.3786e-11
4.48662e-11
4.59543e-11
4.70503e-11
4.81543e-11
4.92658e-11
5.03845e-11
5.15095e-11
5.26401e-11
5.37753e-11
5.49143e-11
5.60562e-11
5.72004e-11
5.83464e-11
5.94941e-11
6.06432e-11
6.17937e-11
6.29459e-11
6.41e-11
6.52561e-11
6.64147e-11
6.75759e-11
6.87401e-11
6.99074e-11
7.10779e-11
7.22517e-11
7.3429e-11
7.46096e-11
7.57936e-11
7.69809e-11
7.81714e-11
7.93651e-11
8.05618e-11
8.17616e-11
8.29642e-11
8.41697e-11
8.53779e-11
8.65889e-11
8.78025e-11
8.90188e-11
9.02376e-11
9.1459e-11
9.2683e-11
9.39094e-11
9.51383e-11
9.63698e-11
9.76036e-11
9.88398e-11
1.00078e-10
1.01319e-10
1.02563e-10
1.03808e-10
1.05056e-10
1.06306e-10
1.07559e-10
1.08813e-10
1.1007e-10
1.11329e-10
1.12591e-10
1.13854e-10
1.1512e-10
1.16388e-10
1.17658e-10
1.1893e-10
1.20205e-10
1.21482e-10
1.22761e-10
1.24042e-10
1.25326e-10
1.26612e-10
1.279e-10
1.2919e-10
1.30483e-10
1.31778e-10
1.33075e-10
1.34375e-10
1.35676e-10
1.3698e-10
1.38286e-10
1.39594e-10
1.40904e-10
1.42217e-10
1.43532e-10
1.44849e-10
1.46168e-10
1.47489e-10
1.48813e-10
1.50139e-10
1.51467e-10
1.52797e-10
1.54129e-10
1.55464e-10
1.56801e-10
1.5814e-10
1.59481e-10
1.60825e-10
1.62171e-10
1.63519e-10
1.64869e-10
1.66222e-10
1.67578e-10
1.68935e-10
1.70295e-10
1.71657e-10
1.73022e-10
1.74389e-10
1.75758e-10
1.7713e-10
1.78504e-10
1.7988e-10
1.81258e-10
1.82638e-10
1.84021e-10
1.85406e-10
1.86793e-10
1.88183e-10
1.89574e-10
1.90967e-10
1.92361e-10
1.93758e-10
1.95155e-10
1.96553e-10
1.97953e-10
1.99353e-10
2.00754e-10
2.02155e-10
2.03557e-10
2.04959e-10
2.06363e-10
2.07767e-10
2.09172e-10
2.10578e-10
2.11987e-10
2.13398e-10
2.14811e-10
2.16228e-10
2.17648e-10
2.19074e-10
2.20504e-10
2.21941e-10
2.23384e-10
2.24834e-10
2.26291e-10
2.27757e-10
2.29231e-10
2.30713e-10
2.32203e-10
2.33702e-10
2.35207e-10
2.3672e-10
2.3824e-10
2.39765e-10
2.41295e-10
2.42829e-10
2.44366e-10
2.45906e-10
2.47448e-10
2.48992e-10
2.50536e-10
2.52081e-10
2.53627e-10
2.55173e-10
2.5672e-10
2.58268e-10
2.59816e-10
2.61365e-10
2.62915e-10
2.64468e-10
2.66022e-10
2.67578e-10
2.69137e-10
2.70699e-10
2.72264e-10
2.73833e-10
2.75406e-10
2.76982e-10
2.78562e-10
2.80147e-10
2.81736e-10
2.83329e-10
2.84926e-10
2.86529e-10
2.88135e-10
2.89747e-10
2.91362e-10
2.92983e-10
2.94608e-10
2.96237e-10
2.97871e-10
2.9951e-10
3.01153e-10
3.02801e-10
3.04453e-10
3.0611e-10
3.07772e-10
3.09438e-10
3.11109e-10
3.12784e-10
3.14464e-10
3.16149e-10
3.17838e-10
3.19532e-10
3.21231e-10
3.22935e-10
3.24644e-10
3.26357e-10
3.28075e-10
3.29799e-10
3.31527e-10
3.3326e-10
3.34999e-10
3.36742e-10
3.38491e-10
3.40245e-10
3.42004e-10
3.43768e-10
3.45538e-10
3.47313e-10
3.49094e-10
3.50881e-10
3.52673e-10
3.54471e-10
3.56275e-10
3.58084e-10
3.599e-10
3.61722e-10
3.6355e-10
3.65384e-10
3.67224e-10
3.69071e-10
3.70924e-10
3.72784e-10
3.74651e-10
3.76524e-10
3.78404e-10
3.80291e-10
3.82185e-10
3.84087e-10
3.85995e-10
3.87911e-10
3.89834e-10
3.91765e-10
3.93704e-10
3.9565e-10
3.97605e-10
3.99567e-10
4.01538e-10
4.03516e-10
4.05503e-10
4.07499e-10
4.09503e-10
4.11516e-10
4.13537e-10
4.15568e-10
4.17607e-10
4.19656e-10
4.21715e-10
4.23783e-10
4.25861e-10
4.27949e-10
4.30047e-10
4.32155e-10
4.34273e-10
4.36403e-10
4.38542e-10
4.40693e-10
4.42855e-10
4.45028e-10
4.47213e-10
4.4941e-10
4.51618e-10
4.53839e-10
4.56071e-10
4.58316e-10
4.60574e-10
4.62844e-10
4.65128e-10
4.67424e-10
4.69734e-10
4.72058e-10
4.74395e-10
4.76746e-10
4.7911e-10
4.81489e-10
4.83881e-10
4.86288e-10
4.88709e-10
4.91145e-10
4.93595e-10
4.96058e-10
4.98536e-10
5.01027e-10
5.03532e-10
5.06051e-10
5.08584e-10
5.11129e-10
5.13686e-10
5.16254e-10
5.18832e-10
5.21418e-10
5.24012e-10
5.26611e-10
5.29213e-10
5.31812e-10
5.34404e-10
5.36984e-10
5.39546e-10
5.42081e-10
5.4458e-10
5.47033e-10
5.49427e-10
5.51749e-10
5.53986e-10
5.56123e-10
5.58149e-10
5.60052e-10
5.61821e-10
5.63449e-10
5.64934e-10
5.66282e-10
5.67506e-10
5.68636e-10
5.69722e-10
5.7085e-10
5.72173e-10
5.73951e-10
5.76641e-10
5.81019e-10
5.88384e-10
6.00797e-10
6.21203e-10
6.53005e-10
6.98371e-10
7.55277e-10
8.15814e-10
8.69454e-10
9.09433e-10
9.35359e-10
9.50626e-10
9.59104e-10
9.63665e-10
9.66085e-10
9.67367e-10
9.68054e-10
9.68429e-10
9.68641e-10
9.68766e-10
9.68846e-10
9.68899e-10
9.68937e-10
9.68965e-10
9.68987e-10
9.69004e-10
9.69018e-10
9.6903e-10
9.69039e-10
9.69046e-10
9.69052e-10
9.69057e-10
9.69061e-10
9.69065e-10
9.69069e-10
9.69072e-10
9.69076e-10
9.6908e-10
9.69085e-10
9.6909e-10
9.69095e-10
9.69101e-10
9.69108e-10
9.69115e-10
9.69123e-10
9.69132e-10
9.69142e-10
9.69152e-10
9.69162e-10
9.69174e-10
9.69185e-10
9.69198e-10
9.6921e-10
9.69223e-10
9.69237e-10
9.6925e-10
9.69264e-10
9.69278e-10
9.69292e-10
9.69307e-10
9.69321e-10
9.69336e-10
9.6935e-10
9.69365e-10
9.69379e-10
9.69394e-10
9.69408e-10
9.69423e-10
9.69437e-10
9.69451e-10
9.69465e-10
9.69478e-10
9.69492e-10
9.69505e-10
9.69518e-10
9.6953e-10
9.69542e-10
9.69554e-10
9.69566e-10
9.69577e-10
9.69588e-10
9.69598e-10
9.69608e-10
9.69617e-10
9.69626e-10
9.69634e-10
9.69642e-10
9.6965e-10
9.69657e-10
9.69663e-10
9.69669e-10
9.69675e-10
9.69679e-10
9.69684e-10
9.69688e-10
9.69691e-10
9.69694e-10
9.69697e-10
9.69699e-10
9.697e-10
9.69701e-10
9.69702e-10
9.69703e-10
9.69703e-10
9.69703e-10
9.69703e-10
9.69702e-10
9.697e-10
9.69699e-10
9.69697e-10
9.69695e-10
9.69692e-10
9.6969e-10
9.69687e-10
9.69684e-10
9.69681e-10
9.69677e-10
9.69673e-10
9.69669e-10
9.69665e-10
9.69661e-10
9.69656e-10
9.69651e-10
9.69646e-10
9.69641e-10
9.69635e-10
9.6963e-10
9.69624e-10
9.69617e-10
9.69611e-10
9.69604e-10
9.69597e-10
9.6959e-10
9.69583e-10
9.69575e-10
9.69568e-10
9.69559e-10
9.69551e-10
9.69542e-10
9.69533e-10
9.69524e-10
9.69514e-10
9.69504e-10
9.69494e-10
9.69483e-10
9.69472e-10
9.6946e-10
9.69448e-10
9.69435e-10
9.69421e-10
9.69407e-10
9.69392e-10
9.69376e-10
9.69359e-10
9.69341e-10
9.69322e-10
9.69301e-10
9.69279e-10
9.69256e-10
9.69231e-10
9.69204e-10
9.69176e-10
9.69145e-10
9.69113e-10
9.69078e-10
9.69041e-10
9.69002e-10
9.6896e-10
9.68916e-10
9.68869e-10
9.68819e-10
9.68768e-10
9.68713e-10
9.68656e-10
9.68597e-10
9.68536e-10
9.68472e-10
9.68407e-10
9.6834e-10
9.68271e-10
9.68202e-10
9.68132e-10
9.68061e-10
9.6799e-10
9.6792e-10
9.67851e-10
9.67783e-10
9.67717e-10
9.67653e-10
9.67593e-10
9.67536e-10
9.67483e-10
9.67434e-10
9.67391e-10
9.67353e-10
9.6732e-10
9.67294e-10
9.67275e-10
9.67263e-10
9.67258e-10
9.67256e-10
9.67256e-10
9.6726e-10
9.67281e-10
9.6731e-10
9.67346e-10
9.67388e-10
9.67436e-10
9.67489e-10
9.67547e-10
9.67608e-10
9.67674e-10
9.67742e-10
9.67812e-10
9.67883e-10
9.67955e-10
9.68027e-10
9.68098e-10
9.68169e-10
9.68237e-10
9.68304e-10
9.68367e-10
9.68428e-10
9.68486e-10
9.68541e-10
9.68591e-10
9.68639e-10
9.68683e-10
9.68723e-10
9.68759e-10
9.68792e-10
9.68822e-10
9.68849e-10
9.68873e-10
9.68894e-10
9.68913e-10
9.6893e-10
9.68945e-10
9.68958e-10
9.6897e-10
9.68981e-10
9.6899e-10
9.68999e-10
9.69007e-10
9.69014e-10
9.69021e-10
9.69028e-10
9.69035e-10
9.69042e-10
9.69049e-10
9.69057e-10
9.69064e-10
9.69072e-10
9.69081e-10
9.6909e-10
9.69099e-10
9.69109e-10
9.6912e-10
9.6913e-10
9.69142e-10
9.69154e-10
9.69166e-10
9.69179e-10
9.69192e-10
9.69206e-10
9.6922e-10
9.69234e-10
9.69248e-10
9.69263e-10
9.69278e-10
9.69293e-10
9.69309e-10
9.69324e-10
9.69339e-10
9.69355e-10
9.6937e-10
9.69386e-10
9.69401e-10
9.69417e-10
9.69432e-10
9.69447e-10
9.69462e-10
9.69477e-10
9.69492e-10
9.69507e-10
9.69521e-10
9.69535e-10
9.69549e-10
9.69563e-10
9.69576e-10
9.69589e-10
9.69602e-10
9.69614e-10
9.69626e-10
9.69638e-10
9.69649e-10
9.6966e-10
9.6967e-10
9.6968e-10
9.69689e-10
9.69698e-10
9.69707e-10
9.69715e-10
9.69722e-10
9.69729e-10
9.69736e-10
9.69742e-10
9.69747e-10
9.69752e-10
9.69757e-10
9.69761e-10
9.69764e-10
9.69767e-10
9.69769e-10
9.69771e-10
9.69772e-10
9.69773e-10
9.69773e-10
9.69773e-10
9.69773e-10
9.69773e-10
9.69771e-10
9.69769e-10
9.69766e-10
9.69763e-10
9.6976e-10
9.69756e-10
9.69752e-10
9.69747e-10
9.69743e-10
9.69737e-10
9.69732e-10
9.69726e-10
9.6972e-10
9.69713e-10
9.69706e-10
9.69699e-10
9.69692e-10
9.69684e-10
9.69676e-10
9.69667e-10
9.69658e-10
9.69649e-10
9.6964e-10
9.6963e-10
9.6962e-10
9.6961e-10
9.69599e-10
9.69588e-10
9.69576e-10
9.69564e-10
9.69552e-10
9.69539e-10
9.69525e-10
9.69511e-10
9.69496e-10
9.69481e-10
9.69464e-10
9.69447e-10
9.6943e-10
9.69411e-10
9.69391e-10
9.6937e-10
9.69348e-10
9.69325e-10
9.693e-10
9.69274e-10
9.69247e-10
9.69218e-10
9.69187e-10
9.69155e-10
9.69121e-10
9.69085e-10
9.69048e-10
9.69008e-10
9.68967e-10
9.68923e-10
9.68878e-10
9.68831e-10
9.68782e-10
9.68732e-10
9.68679e-10
9.68625e-10
9.68569e-10
9.68512e-10
9.68454e-10
9.68395e-10
9.68335e-10
9.68274e-10
9.68213e-10
9.68152e-10
9.68091e-10
9.68031e-10
9.67971e-10
9.67913e-10
9.67856e-10
9.67801e-10
9.67749e-10
9.67698e-10
9.67651e-10
9.67608e-10
9.67567e-10
9.67531e-10
9.67499e-10
9.67472e-10
9.6745e-10
9.67432e-10
9.6742e-10
9.67414e-10
9.67412e-10
9.67411e-10
9.67412e-10
9.6742e-10
9.67441e-10
9.67467e-10
9.67497e-10
9.67532e-10
9.67572e-10
9.67615e-10
9.67662e-10
9.67712e-10
9.67765e-10
9.6782e-10
9.67877e-10
9.67935e-10
9.67994e-10
9.68054e-10
9.68113e-10
9.68171e-10
9.68229e-10
9.68285e-10
9.6834e-10
9.68393e-10
9.68444e-10
9.68492e-10
9.68538e-10
9.68582e-10
9.68623e-10
9.68662e-10
9.68698e-10
9.68731e-10
9.68763e-10
9.68791e-10
9.68818e-10
9.68842e-10
9.68865e-10
9.68885e-10
9.68905e-10
9.68922e-10
9.68939e-10
9.68954e-10
9.68968e-10
9.68982e-10
9.68995e-10
9.69007e-10
9.6902e-10
9.69031e-10
9.69043e-10
9.69055e-10
9.69067e-10
9.69078e-10
9.69091e-10
9.69103e-10
9.69115e-10
9.69128e-10
9.69141e-10
9.69155e-10
9.69169e-10
9.69183e-10
9.69197e-10
9.69212e-10
9.69227e-10
9.69243e-10
9.69258e-10
9.69274e-10
9.69291e-10
9.69307e-10
9.69324e-10
9.6934e-10
9.69357e-10
9.69374e-10
9.69391e-10
9.69407e-10
9.69424e-10
9.69441e-10
9.69458e-10
9.69474e-10
9.69491e-10
9.69507e-10
9.69524e-10
9.6954e-10
9.69555e-10
9.69571e-10
9.69586e-10
9.69602e-10
9.69616e-10
9.69631e-10
9.69645e-10
9.69659e-10
9.69672e-10
9.69685e-10
9.69698e-10
9.6971e-10
9.69722e-10
9.69733e-10
9.69744e-10
9.69754e-10
9.69764e-10
9.69773e-10
9.69782e-10
9.6979e-10
9.69797e-10
9.69804e-10
9.6981e-10
9.69816e-10
9.69821e-10
9.69825e-10
9.69829e-10
9.69832e-10
9.69835e-10
9.69836e-10
9.69837e-10
9.69838e-10
9.69838e-10
9.69838e-10
9.69837e-10
9.69835e-10
9.69832e-10
9.69829e-10
9.69825e-10
9.6982e-10
9.69815e-10
9.69809e-10
9.69803e-10
9.69796e-10
9.69789e-10
9.69781e-10
9.69773e-10
9.69764e-10
9.69755e-10
9.69745e-10
9.69735e-10
9.69725e-10
9.69714e-10
9.69703e-10
9.69691e-10
9.6968e-10
9.69667e-10
9.69655e-10
9.69642e-10
9.69629e-10
9.69616e-10
9.69602e-10
9.69588e-10
9.69574e-10
9.69559e-10
9.69544e-10
9.69528e-10
9.69513e-10
9.69496e-10
9.6948e-10
9.69463e-10
9.69445e-10
9.69427e-10
9.69408e-10
9.69389e-10
9.69369e-10
9.69348e-10
9.69327e-10
9.69305e-10
9.69282e-10
9.69258e-10
9.69233e-10
9.69207e-10
9.6918e-10
9.69152e-10
9.69122e-10
9.69092e-10
9.6906e-10
9.69027e-10
9.68992e-10
9.68956e-10
9.68919e-10
9.6888e-10
9.6884e-10
9.68799e-10
9.68756e-10
9.68712e-10
9.68667e-10
9.6862e-10
9.68572e-10
9.68523e-10
9.68474e-10
9.68423e-10
9.68372e-10
9.6832e-10
9.68268e-10
9.68215e-10
9.68163e-10
9.68111e-10
9.68059e-10
9.68008e-10
9.67958e-10
9.67909e-10
9.67861e-10
9.67815e-10
9.67771e-10
9.6773e-10
9.6769e-10
9.67654e-10
9.6762e-10
9.6759e-10
9.67563e-10
9.6754e-10
9.6752e-10
9.67505e-10
9.67494e-10
9.67489e-10
9.67487e-10
9.67486e-10
)
;

boundaryField
{
    inlet
    {
        type            calculated;
        value           uniform 0;
    }
    outlet
    {
        type            calculated;
        value           uniform 9.6749e-10;
    }
    emptyWalls
    {
        type            empty;
        value           nonuniform List<scalar> 0();
    }
}


// ************************************************************************* //
