/*--------------------------------*- C++ -*----------------------------------*\
  =========                 |
  \\      /  F ield         | OpenFOAM: The Open Source CFD Toolbox
   \\    /   O peration     | Website:  https://openfoam.org
    \\  /    A nd           | Version:  9
     \\/     M anipulation  |
\*---------------------------------------------------------------------------*/
FoamFile
{
    format      ascii;
    class       volScalarField;
    location    "2550";
    object      kra;
}
// * * * * * * * * * * * * * * * * * * * * * * * * * * * * * * * * * * * * * //

dimensions      [0 0 0 0 0 0 0];

internalField   nonuniform List<scalar> 
1000
(
0.000242409
0.000262367
0.000311865
0.000611538
0.000886605
0.000922548
0.000924941
0.00092396
0.000917602
0.000897911
0.000875243
0.000852296
0.000830207
0.000809304
0.000789601
0.000771036
0.00075353
0.000737012
0.000721411
0.00070665
0.000692666
0.000679389
0.000666767
0.000654742
0.000643266
0.000632291
0.000621774
0.000611682
0.000601994
0.000592686
0.000583747
0.000575148
0.000566873
0.000558878
0.000551147
0.000543644
0.000536369
0.000529305
0.000522479
0.000515893
0.00050958
0.000503547
0.00049781
0.000492369
0.000487216
0.000482345
0.000477727
0.00047335
0.00046918
0.000465194
0.000461361
0.000457646
0.000454025
0.000450459
0.000446925
0.00044339
0.000439828
0.000436211
0.00043251
0.000428699
0.00042475
0.000420638
0.000416346
0.000411865
0.000407197
0.000402361
0.00039739
0.000392329
0.000387236
0.00038217
0.000377193
0.000372359
0.000367715
0.000363293
0.000359114
0.000355187
0.000351505
0.000348057
0.000344819
0.000341768
0.000338877
0.000336116
0.00033346
0.000330882
0.000328363
0.000325882
0.000323426
0.000320987
0.000318554
0.000316132
0.000313716
0.000311318
0.000308938
0.000306575
0.000304209
0.000301773
0.000299136
0.000296037
0.000292073
0.000286715
0.000279561
0.000270853
0.00026191
0.000254592
0.000249858
0.00024732
0.000246094
0.000245513
0.000245227
0.000245076
0.000244988
0.00024493
0.000244886
0.000244848
0.000244814
0.000244781
0.000244748
0.000244715
0.000244682
0.000244648
0.000244614
0.000244581
0.000244547
0.000244513
0.000244479
0.000244445
0.000244412
0.000244378
0.000244346
0.000244314
0.000244282
0.000244252
0.000244223
0.000244194
0.000244167
0.000244142
0.000244117
0.000244094
0.000244072
0.00024405
0.00024403
0.000244011
0.000243992
0.000243974
0.000243956
0.000243939
0.000243922
0.000243907
0.000243892
0.00024388
0.000243869
0.000243862
0.000243857
0.000243854
0.000243854
0.000243854
0.000243856
0.000243866
0.00024388
0.000243897
0.000243917
0.000243939
0.000243964
0.000243991
0.00024402
0.00024405
0.000244081
0.000244113
0.000244145
0.000244178
0.00024421
0.000244242
0.000244273
0.000244304
0.000244333
0.000244361
0.000244387
0.000244412
0.000244434
0.000244455
0.000244472
0.000244488
0.0002445
0.000244509
0.000244514
0.000244517
0.000244517
0.000244517
0.000244516
0.000244506
0.000244492
0.000244475
0.000244455
0.000244433
0.000244408
0.000244381
0.000244353
0.000244323
0.000244293
0.000244263
0.000244233
0.000244204
0.000244176
0.00024415
0.000244126
0.000244104
0.000244085
0.000244069
0.000244057
0.000244047
0.000244041
0.000244038
0.000244038
0.000244038
0.00024404
0.000244048
0.000244062
0.000244076
0.000244096
0.000244115
0.00024414
0.000244164
0.000244193
0.000244223
0.000244258
0.000244293
0.000244335
0.000244379
0.00024443
0.000244484
0.000244548
0.000244616
0.000244696
0.000244783
0.000244884
0.000244995
0.000245121
0.000245259
0.000245416
0.000245585
0.000245775
0.000245979
0.000246203
0.000246443
0.000246702
0.000246975
0.000247267
0.000247571
0.000247891
0.000248219
0.000248557
0.000248899
0.000249244
0.000249585
0.000249921
0.000250243
0.000250549
0.000250829
0.00025108
0.00025129
0.000251455
0.000251559
0.000251607
0.000251612
0.000251608
0.000251581
0.000251389
0.000251073
0.000250664
0.00025017
0.000249592
0.000248943
0.000248229
0.000247468
0.000246672
0.000245862
0.00024505
0.000244258
0.000243496
0.000242783
0.000242126
0.000241538
0.00024102
0.00024058
0.000240215
0.000239927
0.000239711
0.000239567
0.000239485
0.000239459
0.000239457
0.000239463
0.000239526
0.000239678
0.000239856
0.000240052
0.000240259
0.000240473
0.000240689
0.000240904
0.000241113
0.000241314
0.000241505
0.000241683
0.000241849
0.000241999
0.000242135
0.000242256
0.000242362
0.000242454
0.000242532
0.000242597
0.000242651
0.000242694
0.000242727
0.000242752
0.00024277
0.000242781
0.000242787
0.000242789
0.000242789
0.000242789
0.000242784
0.000242776
0.000242767
0.000242758
0.000242748
0.00024274
0.000242731
0.000242724
0.000242716
0.00024271
0.000242703
0.000242697
0.00024269
0.000242683
0.000242675
0.000242667
0.000242657
0.000242647
0.000242635
0.000242621
0.000242605
0.000242588
0.000242568
0.000242547
0.000242523
0.000242497
0.000242468
0.000242437
0.000242403
0.000242368
0.000242329
0.000242289
0.000242246
0.000242202
0.000242155
0.000242107
0.000242056
0.000242004
0.00024195
0.000241895
0.000241838
0.000241781
0.000241723
0.000241664
0.000241605
0.000241546
0.000241487
0.000241429
0.000241372
0.000241316
0.000241262
0.000241211
0.000241162
0.000241117
0.000241074
0.000241037
0.000241004
0.000240978
0.000240958
0.000240946
0.000240941
0.000240941
0.000240941
0.000240951
0.000240956
0.000240987
0.000240998
0.000241055
0.000241076
0.000241161
0.0002412
0.000241317
0.000241378
0.000241509
0.000241585
0.000241741
0.000241834
0.000241998
0.000242111
0.000242302
0.000242416
0.000242617
0.000242766
0.000242973
0.000243113
0.000243351
0.000243521
0.00024373
0.000243905
0.000244176
0.000244331
0.000244552
0.000244783
0.000245041
0.000245159
0.000245448
0.000245705
0.00024588
0.000246021
0.000246438
0.000246569
0.000246573
0.000245669
0.000241599
0.000192381
1.22841e-05
9.27346e-09
8.07744e-16
4.83802e-31
2.09639e-63
2.09341e-132
2.92868e-279
0
0
0
0
0
0
0
0
0
0
0
0
0
0
0
0
0
0
0
0
0
0
0
0
0
0
0
0
0
0
0
0
0
0
0
0
0
0
0
0
0
0
0
0
0
0
0
0
0
0
0
0
0
0
0
0
0
0
0
0
0
0
0
0
0
0
0
0
0
0
0
0
0
0
0
0
0
0
0
0
0
0
0
0
0
0
0
0
0
0
0
0
0
0
0
0
0
0
0
0
0
0
0
0
0
0
0
0
0
0
0
0
0
0
0
0
0
0
0
0
0
0
0
0
0
0
0
0
0
0
0
0
0
0
0
0
0
0
0
0
0
0
0
0
0
0
0
0
0
0
0
0
0
0
0
0
0
0
0
0
0
0
0
0
0
0
0
0
0
0
0
0
0
0
0
0
0
0
0
0
0
0
0
0
0
0
0
0
0
0
0
0
0
0
0
0
0
0
0
0
0
0
0
0
0
0
0
0
0
0
0
0
0
0
0
0
0
0
0
0
0
0
0
0
0
0
0
0
0
0
0
0
0
0
0
0
0
0
0
0
0
0
0
0
0
0
0
0
0
0
0
0
0
0
0
0
0
0
0
0
0
0
0
0
0
0
0
0
0
0
0
0
0
0
0
0
0
0
0
0
0
0
0
0
0
0
0
0
0
0
0
0
0
0
0
0
0
0
0
0
0
0
0
0
0
0
0
0
0
0
0
0
0
0
0
0
0
0
0
0
0
0
0
0
0
0
0
0
0
0
0
0
0
0
0
0
0
0
0
0
0
0
0
0
0
0
0
0
0
0
0
0
0
0
0
0
0
0
0
0
0
0
0
0
0
0
0
0
0
0
0
0
0
0
0
0
0
0
0
0
0
0
0
0
0
0
0
0
0
0
0
0
0
0
0
0
0
0
0
0
0
0
0
0
0
0
0
0
0
0
0
0
0
0
0
0
0
0
0
0
0
0
0
0
0
0
0
0
0
0
0
0
0
0
0
0
0
0
0
0
0
0
0
0
0
0
0
0
0
0
0
0
0
0
0
0
0
0
0
0
0
0
0
0
0
0
0
0
0
0
0
0
0
0
0
0
0
0
0
0
0
0
0
0
0
0
0
0
0
0
0
0
0
0
0
0
0
0
0
0
0
0
0
0
0
0
0
0
0
0
0
0
0
0
0
0
0
0
0
0
0
0
0
0
0
0
0
0
0
0
0
0
0
0
0
0
0
0
0
0
0
0
0
0
0
0
0
0
0
0
0
0
0
0
0
0
0
0
0
0
0
0
0
0
0
0
)
;

boundaryField
{
    inlet
    {
        type            calculated;
        value           uniform 0.000236304;
    }
    outlet
    {
        type            calculated;
        value           uniform 0;
    }
    emptyWalls
    {
        type            empty;
    }
}


// ************************************************************************* //
