/*--------------------------------*- C++ -*----------------------------------*\
  =========                 |
  \\      /  F ield         | OpenFOAM: The Open Source CFD Toolbox
   \\    /   O peration     | Website:  https://openfoam.org
    \\  /    A nd           | Version:  9
     \\/     M anipulation  |
\*---------------------------------------------------------------------------*/
FoamFile
{
    format      ascii;
    class       volScalarField;
    location    "2550";
    object      Sa;
}
// * * * * * * * * * * * * * * * * * * * * * * * * * * * * * * * * * * * * * //

dimensions      [0 0 0 0 0 0 0];

internalField   nonuniform List<scalar> 
1000
(
0.541642
0.524648
0.47448
0.234676
0.068678
0.0416265
0.0326914
0.0282736
0.0252656
0.0239721
0.0236676
0.0233553
0.0230507
0.0227586
0.0224799
0.022214
0.0219604
0.0217184
0.0214873
0.0212663
0.0210548
0.0208521
0.0206575
0.0204703
0.0202901
0.0201163
0.0199483
0.0197858
0.0196284
0.0194761
0.0193287
0.0191858
0.0190473
0.0189125
0.0187812
0.0186529
0.0185277
0.0184053
0.0182863
0.0181707
0.0180592
0.017952
0.0178494
0.0177516
0.0176585
0.01757
0.0174857
0.0174054
0.0173285
0.0172547
0.0171835
0.0171141
0.0170463
0.0169792
0.0169124
0.0168454
0.0167775
0.0167084
0.0166373
0.0165638
0.0164873
0.0164073
0.0163233
0.0162353
0.016143
0.0160469
0.0159475
0.0158457
0.0157426
0.0156394
0.0155372
0.0154374
0.0153409
0.0152484
0.0151605
0.0150774
0.014999
0.0149252
0.0148556
0.0147897
0.014727
0.0146669
0.0146088
0.0145522
0.0144966
0.0144418
0.0143872
0.0143328
0.0142784
0.014224
0.0141696
0.0141153
0.0140613
0.0140074
0.0139532
0.0138973
0.0138364
0.0137645
0.013672
0.013546
0.013376
0.0131661
0.012947
0.0127648
0.0126456
0.0125812
0.0125499
0.0125351
0.0125278
0.0125239
0.0125217
0.0125202
0.0125191
0.0125181
0.0125172
0.0125164
0.0125155
0.0125147
0.0125138
0.012513
0.0125121
0.0125113
0.0125104
0.0125095
0.0125087
0.0125078
0.0125069
0.0125061
0.0125053
0.0125044
0.0125036
0.0125029
0.0125021
0.0125014
0.0125007
0.0125
0.0124994
0.0124988
0.0124982
0.0124977
0.0124972
0.0124967
0.0124962
0.0124957
0.0124953
0.0124948
0.0124944
0.012494
0.0124936
0.0124933
0.0124931
0.0124929
0.0124927
0.0124927
0.0124927
0.0124927
0.0124927
0.012493
0.0124933
0.0124938
0.0124943
0.0124948
0.0124955
0.0124962
0.0124969
0.0124977
0.0124985
0.0124993
0.0125001
0.012501
0.0125018
0.0125026
0.0125034
0.0125042
0.0125049
0.0125056
0.0125063
0.0125069
0.0125075
0.012508
0.0125085
0.0125089
0.0125092
0.0125094
0.0125096
0.0125096
0.0125096
0.0125096
0.0125096
0.0125094
0.012509
0.0125086
0.012508
0.0125075
0.0125068
0.0125062
0.0125054
0.0125047
0.0125039
0.0125031
0.0125024
0.0125016
0.0125009
0.0125002
0.0124996
0.0124991
0.0124986
0.0124982
0.0124979
0.0124976
0.0124975
0.0124974
0.0124974
0.0124974
0.0124974
0.0124976
0.012498
0.0124984
0.0124989
0.0124994
0.0125
0.0125006
0.0125014
0.0125021
0.012503
0.0125039
0.012505
0.0125061
0.0125074
0.0125088
0.0125104
0.0125122
0.0125142
0.0125165
0.0125191
0.0125219
0.0125251
0.0125286
0.0125326
0.012537
0.0125418
0.012547
0.0125527
0.0125588
0.0125654
0.0125724
0.0125798
0.0125875
0.0125957
0.012604
0.0126126
0.0126212
0.01263
0.0126386
0.0126471
0.0126552
0.0126629
0.01267
0.0126763
0.0126816
0.0126857
0.0126884
0.0126896
0.0126898
0.0126896
0.0126884
0.0126843
0.012676
0.0126657
0.0126532
0.0126386
0.0126222
0.0126041
0.0125848
0.0125646
0.012544
0.0125233
0.0125031
0.0124836
0.0124653
0.0124485
0.0124333
0.01242
0.0124087
0.0123992
0.0123918
0.0123862
0.0123825
0.0123803
0.0123796
0.0123796
0.01238
0.0123813
0.0123853
0.0123899
0.0123949
0.0124002
0.0124058
0.0124113
0.0124168
0.0124222
0.0124274
0.0124323
0.0124369
0.0124412
0.012445
0.0124485
0.0124516
0.0124544
0.0124567
0.0124587
0.0124604
0.0124618
0.0124629
0.0124637
0.0124644
0.0124648
0.0124651
0.0124653
0.0124653
0.0124654
0.0124653
0.0124652
0.012465
0.0124648
0.0124646
0.0124643
0.0124641
0.0124639
0.0124637
0.0124635
0.0124633
0.0124631
0.012463
0.0124628
0.0124626
0.0124624
0.0124622
0.012462
0.0124617
0.0124614
0.012461
0.0124606
0.0124602
0.0124597
0.0124591
0.0124585
0.0124578
0.0124571
0.0124563
0.0124554
0.0124545
0.0124535
0.0124525
0.0124514
0.0124503
0.0124491
0.0124478
0.0124465
0.0124452
0.0124438
0.0124424
0.0124409
0.0124395
0.0124379
0.0124364
0.0124349
0.0124334
0.0124319
0.0124304
0.0124289
0.0124275
0.0124261
0.0124248
0.0124235
0.0124224
0.0124213
0.0124203
0.0124195
0.0124188
0.0124183
0.012418
0.0124178
0.0124178
0.0124178
0.0124181
0.0124182
0.012419
0.0124192
0.0124209
0.0124212
0.0124236
0.0124245
0.0124275
0.0124291
0.0124325
0.0124344
0.0124384
0.0124408
0.012445
0.0124479
0.0124529
0.0124558
0.012461
0.0124648
0.0124701
0.0124737
0.0124798
0.0124841
0.0124895
0.012494
0.0125009
0.0125049
0.0125106
0.0125164
0.012523
0.0125261
0.0125334
0.0125399
0.0125445
0.0125481
0.0125584
0.0125618
0.0125611
0.0125114
0.0123683
0.0110096
0.00296108
0.000101442
5.08768e-08
3.78628e-15
2.22569e-30
9.64252e-63
9.62881e-132
1.34707e-278
0
0
0
0
0
0
0
0
0
0
0
0
0
0
0
0
0
0
0
0
0
0
0
0
0
0
0
0
0
0
0
0
0
0
0
0
0
0
0
0
0
0
0
0
0
0
0
0
0
0
0
0
0
0
0
0
0
0
0
0
0
0
0
0
0
0
0
0
0
0
0
0
0
0
0
0
0
0
0
0
0
0
0
0
0
0
0
0
0
0
0
0
0
0
0
0
0
0
0
0
0
0
0
0
0
0
0
0
0
0
0
0
0
0
0
0
0
0
0
0
0
0
0
0
0
0
0
0
0
0
0
0
0
0
0
0
0
0
0
0
0
0
0
0
0
0
0
0
0
0
0
0
0
0
0
0
0
0
0
0
0
0
0
0
0
0
0
0
0
0
0
0
0
0
0
0
0
0
0
0
0
0
0
0
0
0
0
0
0
0
0
0
0
0
0
0
0
0
0
0
0
0
0
0
0
0
0
0
0
0
0
0
0
0
0
0
0
0
0
0
0
0
0
0
0
0
0
0
0
0
0
0
0
0
0
0
0
0
0
0
0
0
0
0
0
0
0
0
0
0
0
0
0
0
0
0
0
0
0
0
0
0
0
0
0
0
0
0
0
0
0
0
0
0
0
0
0
0
0
0
0
0
0
0
0
0
0
0
0
0
0
0
0
0
0
0
0
0
0
0
0
0
0
0
0
0
0
0
0
0
0
0
0
0
0
0
0
0
0
0
0
0
0
0
0
0
0
0
0
0
0
0
0
0
0
0
0
0
0
0
0
0
0
0
0
0
0
0
0
0
0
0
0
0
0
0
0
0
0
0
0
0
0
0
0
0
0
0
0
0
0
0
0
0
0
0
0
0
0
0
0
0
0
0
0
0
0
0
0
0
0
0
0
0
0
0
0
0
0
0
0
0
0
0
0
0
0
0
0
0
0
0
0
0
0
0
0
0
0
0
0
0
0
0
0
0
0
0
0
0
0
0
0
0
0
0
0
0
0
0
0
0
0
0
0
0
0
0
0
0
0
0
0
0
0
0
0
0
0
0
0
0
0
0
0
0
0
0
0
0
0
0
0
0
0
0
0
0
0
0
0
0
0
0
0
0
0
0
0
0
0
0
0
0
0
0
0
0
0
0
0
0
0
0
0
0
0
0
0
0
0
0
0
0
0
0
0
0
0
0
0
0
0
0
0
0
0
0
0
0
0
0
0
0
0
0
0
0
0
0
0
0
0
0
0
0
0
0
0
0
0
0
0
0
0
0
0
0
0
0
0
0
0
0
0
)
;

boundaryField
{
    inlet
    {
        type            fixedValue;
        value           uniform 0.55;
    }
    outlet
    {
        type            zeroGradient;
    }
    emptyWalls
    {
        type            empty;
    }
}


// ************************************************************************* //
