/*--------------------------------*- C++ -*----------------------------------*\
  =========                 |
  \\      /  F ield         | OpenFOAM: The Open Source CFD Toolbox
   \\    /   O peration     | Website:  https://openfoam.org
    \\  /    A nd           | Version:  9
     \\/     M anipulation  |
\*---------------------------------------------------------------------------*/
FoamFile
{
    format      ascii;
    class       volScalarField;
    location    "20950";
    object      p;
}
// * * * * * * * * * * * * * * * * * * * * * * * * * * * * * * * * * * * * * //

dimensions      [0 0 0 0 0 0 0];

internalField   nonuniform List<scalar> 
1000
(
186857
186432
186008
185588
185169
184753
184339
183927
183517
183110
182705
182303
181903
181505
181109
180715
180324
179934
179547
179160
178776
178393
178011
177630
177250
176871
176494
176121
175763
175457
175310
175212
175123
175037
174951
174867
174782
174698
174615
174532
174449
174366
174283
174200
174118
174036
173954
173871
173789
173707
173626
173544
173462
173380
173299
173217
173135
173054
172972
172890
172809
172727
172645
172564
172482
172401
172319
172237
172155
172074
171992
171910
171828
171746
171664
171582
171500
171417
171335
171252
171170
171087
171004
170920
170837
170753
170669
170584
170499
170414
170329
170243
170157
170071
169985
169898
169811
169723
169636
169548
169459
169371
169282
169193
169104
169014
168924
168834
168743
168653
168562
168470
168379
168287
168194
168102
168009
167916
167822
167728
167634
167540
167445
167350
167255
167160
167064
166968
166871
166775
166678
166581
166483
166386
166288
166189
166091
165992
165893
165794
165694
165594
165494
165394
165293
165192
165091
164989
164888
164786
164683
164581
164478
164375
164272
164168
164064
163960
163856
163751
163646
163541
163436
163330
163224
163118
163012
162905
162798
162691
162583
162476
162368
162260
162151
162042
161933
161824
161715
161605
161495
161385
161275
161164
161053
160942
160830
160719
160607
160495
160382
160270
160157
160044
159931
159817
159703
159589
159475
159360
159246
159131
159015
158900
158784
158668
158552
158436
158319
158202
158085
157968
157850
157732
157614
157496
157377
157259
157140
157021
156901
156782
156662
156542
156421
156301
156180
156059
155938
155817
155695
155574
155452
155329
155207
155084
154961
154838
154715
154591
154468
154344
154219
154095
153970
153845
153720
153595
153469
153343
153217
153090
152964
152837
152710
152583
152455
152327
152199
152071
151943
151814
151685
151556
151427
151298
151168
151038
150908
150777
150647
150516
150385
150254
150122
149991
149859
149727
149594
149462
149329
149196
149063
148929
148796
148662
148528
148394
148259
148124
147989
147854
147719
147583
147448
147312
147175
147039
146902
146766
146628
146491
146354
146216
146078
145940
145802
145663
145525
145386
145246
145107
144968
144828
144688
144548
144407
144267
144126
143985
143843
143702
143560
143419
143277
143134
142992
142849
142706
142563
142420
142276
142133
141989
141845
141701
141556
141411
141266
141121
140976
140831
140685
140539
140393
140246
140100
139953
139806
139659
139512
139364
139217
139069
138921
138772
138624
138475
138326
138177
138028
137879
137729
137579
137429
137279
137128
136978
136827
136676
136525
136374
136222
136070
135918
135766
135614
135462
135309
135156
135003
134850
134696
134543
134389
134235
134081
133926
133772
133617
133462
133306
133151
132995
132839
132683
132527
132371
132214
132057
131900
131743
131585
131427
131269
131111
130953
130794
130636
130477
130318
130158
129999
129839
129679
129519
129359
129198
129038
128877
128716
128555
128393
128232
128070
127908
127745
127583
127420
127258
127095
126931
126768
126604
126441
126277
126112
125948
125784
125619
125454
125289
125123
124958
124792
124626
124460
124294
124127
123961
123794
123627
123459
123292
123124
122956
122788
122620
122452
122283
122114
121945
121776
121607
121437
121268
121098
120927
120757
120587
120416
120245
120074
119903
119731
119560
119388
119216
119044
118871
118699
118526
118353
118180
118006
117833
117659
117485
117311
117137
116962
116788
116613
116438
116262
116087
115911
115736
115560
115384
115207
115031
114854
114677
114500
114323
114145
113968
113790
113612
113434
113255
113077
112898
112719
112540
112361
112181
112001
111822
111642
111461
111281
111100
110920
110739
110558
110376
110195
110013
109832
109650
109468
109285
109103
108920
108737
108554
108371
108188
108004
107820
107637
107452
107268
107084
106899
106714
106529
106344
106158
105973
105787
105601
105415
105228
105042
104855
104668
104481
104293
104106
103918
103730
103542
103353
103165
102976
102787
102598
102408
102219
102029
101839
101649
101459
101268
101078
100887
100696
100504
100313
100121
99929.5
99737.5
99545.3
99352.9
99160.3
98967.5
98774.6
98581.4
98388.1
98194.5
98000.8
97806.9
97612.8
97418.5
97224
97029.3
96834.4
96639.4
96444.1
96248.7
96053.1
95857.2
95661.2
95465
95268.6
95072
94875.3
94678.3
94481.1
94283.8
94086.2
93888.5
93690.6
93492.5
93294.2
93095.7
92897
92698.1
92499
92299.8
92100.3
91900.7
91700.8
91500.8
91300.6
91100.2
90899.6
90698.8
90497.8
90296.7
90095.3
89893.7
89692
89490.1
89287.9
89085.6
88883.1
88680.4
88477.5
88274.4
88071.2
87867.7
87664
87460.2
87256.2
87051.9
86847.5
86642.9
86438.1
86233.1
86027.9
85822.6
85617
85411.2
85205.3
84999.1
84792.8
84586.3
84379.6
84172.7
83965.6
83758.3
83550.8
83343.1
83135.2
82927.2
82718.9
82510.5
82301.9
82093
81884
81674.8
81465.4
81255.8
81046
80836
80625.9
80415.5
80204.9
79994.2
79783.3
79572.1
79360.8
79149.3
78937.6
78725.7
78513.7
78301.4
78088.9
77876.3
77663.5
77450.5
77237.2
77023.9
76810.3
76596.5
76382.5
76168.4
75954.1
75739.6
75524.9
75310
75094.9
74879.6
74664.2
74448.5
74232.7
74016.6
73800.4
73584
73367.4
73150.6
72933.6
72716.4
72499
72281.4
72063.6
71845.6
71627.4
71409
71190.4
70971.6
70752.6
70533.3
70313.9
70094.2
69874.4
69654.3
69434
69213.5
68992.8
68771.8
68550.7
68329.3
68107.7
67885.9
67663.9
67441.6
67219.2
66996.5
66773.6
66550.5
66327.2
66103.6
65879.9
65655.9
65431.7
65207.3
64982.6
64757.8
64532.7
64307.4
64081.9
63856.2
63630.3
63404.1
63177.7
62951.2
62724.3
62497.3
62270.1
62042.6
61814.9
61587
61358.9
61130.6
60902
60673.2
60444.2
60215
59985.6
59755.9
59526
59295.9
59065.6
58835.1
58604.3
58373.3
58142.1
57910.7
57679
57447.1
57215.1
56982.8
56750.2
56517.5
56284.5
56051.4
55818
55584.4
55350.6
55116.6
54882.4
54648
54413.4
54178.6
53943.7
53708.5
53473.2
53237.7
53002.1
52766.3
52530.4
52294.3
52058.1
51821.8
51585.4
51348.8
51112.2
50875.5
50638.8
50401.9
50165
49928.1
49691.1
49454.1
49217
48979.9
48742.8
48505.7
48268.5
48031.3
47794.2
47557
47319.8
47082.6
46845.3
46608.1
46370.8
46133.5
45896.1
45658.5
45420.7
45182.3
44943
44702.3
44459
44212
43959.5
43700.5
43434.9
43164.1
42890
42613.9
42336.9
42059.5
41781.9
41504.2
41226.5
40948.7
40670.9
40393.1
40115.3
39837.5
39559.7
39281.9
39004.1
38726.3
38448.5
38170.7
37893
37615.2
37337.4
37059.6
36781.9
36504.1
36226.4
35948.6
35670.9
35393.1
35115.4
34837.7
34560
34282.3
34004.6
33726.9
33449.2
33171.5
32893.8
32616.2
32338.5
32060.9
31783.3
31505.7
31228.1
30950.5
30672.9
30395.3
30117.8
29840.2
29562.7
29285.2
29007.7
28730.2
28452.7
28175.2
27897.7
27620.3
27342.8
27065.4
26788
26510.6
26233.2
25955.8
25678.4
25401
25123.6
24846.2
24568.9
24291.5
24014.1
23736.7
23459.4
23182
22904.6
22627.3
22349.9
22072.5
21795.1
21517.8
21240.4
20963
20685.6
20408.1
20130.7
19853.3
19575.9
19298.4
19020.9
18743.5
18466
18188.5
17911
17633.5
17356
17078.4
16800.9
16523.4
16245.8
15968.2
15690.7
15413.1
15135.5
14857.9
14580.3
14302.6
14025
13747.4
13469.8
13192.1
12914.5
12636.8
12359.2
12081.5
11803.8
11526.2
11248.5
10970.8
10693.1
10415.4
10137.7
9860.05
9582.35
9304.65
9026.94
8749.23
8471.52
8193.81
7916.09
7638.37
7360.65
7082.93
6805.2
6527.47
6249.73
5972
5694.26
5416.52
5138.77
4861.02
4583.27
4305.52
4027.76
3750.01
3472.24
3194.48
2916.71
2638.94
2361.17
2083.4
1805.62
1527.84
1250.05
972.269
694.481
416.691
138.898
)
;

boundaryField
{
    inlet
    {
        type            darcyGradPressure;
        gradient        uniform 116344;
        Mf              Mf;
        phi             phi;
        value           uniform 187070;
    }
    outlet
    {
        type            fixedValue;
        value           uniform 0;
    }
    emptyWalls
    {
        type            empty;
    }
}


// ************************************************************************* //
