/*--------------------------------*- C++ -*----------------------------------*\
  =========                 |
  \\      /  F ield         | OpenFOAM: The Open Source CFD Toolbox
   \\    /   O peration     | Website:  https://openfoam.org
    \\  /    A nd           | Version:  9
     \\/     M anipulation  |
\*---------------------------------------------------------------------------*/
FoamFile
{
    format      ascii;
    class       volVectorField;
    location    "20950";
    object      Ua;
}
// * * * * * * * * * * * * * * * * * * * * * * * * * * * * * * * * * * * * * //

dimensions      [0 0 0 0 0 0 0];

internalField   nonuniform List<vector> 
1000
(
(2.74904e-06 0 0)
(2.74871e-06 0 0)
(2.74853e-06 0 0)
(2.74835e-06 0 0)
(2.74808e-06 0 0)
(2.74782e-06 0 0)
(2.74748e-06 0 0)
(2.7471e-06 0 0)
(2.74661e-06 0 0)
(2.74607e-06 0 0)
(2.74545e-06 0 0)
(2.74472e-06 0 0)
(2.74403e-06 0 0)
(2.74316e-06 0 0)
(2.74233e-06 0 0)
(2.74143e-06 0 0)
(2.74048e-06 0 0)
(2.73962e-06 0 0)
(2.73874e-06 0 0)
(2.73797e-06 0 0)
(2.73728e-06 0 0)
(2.73663e-06 0 0)
(2.73603e-06 0 0)
(2.73547e-06 0 0)
(2.7349e-06 0 0)
(2.73414e-06 0 0)
(2.73236e-06 0 0)
(2.72578e-06 0 0)
(2.69789e-06 0 0)
(2.50434e-06 0 0)
(2.24762e-06 0 0)
(2.14916e-06 0 0)
(2.13125e-06 0 0)
(2.1224e-06 0 0)
(2.11578e-06 0 0)
(2.11029e-06 0 0)
(2.10557e-06 0 0)
(2.1014e-06 0 0)
(2.09766e-06 0 0)
(2.09425e-06 0 0)
(2.09109e-06 0 0)
(2.08818e-06 0 0)
(2.08546e-06 0 0)
(2.0829e-06 0 0)
(2.08052e-06 0 0)
(2.07828e-06 0 0)
(2.07618e-06 0 0)
(2.07419e-06 0 0)
(2.07231e-06 0 0)
(2.07055e-06 0 0)
(2.0689e-06 0 0)
(2.06732e-06 0 0)
(2.06583e-06 0 0)
(2.06442e-06 0 0)
(2.0631e-06 0 0)
(2.06185e-06 0 0)
(2.06067e-06 0 0)
(2.05956e-06 0 0)
(2.0585e-06 0 0)
(2.0575e-06 0 0)
(2.05654e-06 0 0)
(2.05563e-06 0 0)
(2.05476e-06 0 0)
(2.05395e-06 0 0)
(2.05321e-06 0 0)
(2.05252e-06 0 0)
(2.05191e-06 0 0)
(2.05135e-06 0 0)
(2.05084e-06 0 0)
(2.05036e-06 0 0)
(2.04988e-06 0 0)
(2.04941e-06 0 0)
(2.04895e-06 0 0)
(2.0485e-06 0 0)
(2.04805e-06 0 0)
(2.04766e-06 0 0)
(2.04732e-06 0 0)
(2.04706e-06 0 0)
(2.04688e-06 0 0)
(2.04679e-06 0 0)
(2.04681e-06 0 0)
(2.04689e-06 0 0)
(2.04701e-06 0 0)
(2.04711e-06 0 0)
(2.04714e-06 0 0)
(2.0471e-06 0 0)
(2.04703e-06 0 0)
(2.04695e-06 0 0)
(2.04692e-06 0 0)
(2.04696e-06 0 0)
(2.04714e-06 0 0)
(2.04755e-06 0 0)
(2.04832e-06 0 0)
(2.04954e-06 0 0)
(2.05125e-06 0 0)
(2.05342e-06 0 0)
(2.05593e-06 0 0)
(2.05865e-06 0 0)
(2.06146e-06 0 0)
(2.06423e-06 0 0)
(2.06692e-06 0 0)
(2.06947e-06 0 0)
(2.07185e-06 0 0)
(2.07399e-06 0 0)
(2.07581e-06 0 0)
(2.07722e-06 0 0)
(2.07812e-06 0 0)
(2.07842e-06 0 0)
(2.07807e-06 0 0)
(2.07706e-06 0 0)
(2.07543e-06 0 0)
(2.07324e-06 0 0)
(2.07061e-06 0 0)
(2.06768e-06 0 0)
(2.06456e-06 0 0)
(2.06142e-06 0 0)
(2.05836e-06 0 0)
(2.05549e-06 0 0)
(2.05289e-06 0 0)
(2.05061e-06 0 0)
(2.04868e-06 0 0)
(2.04711e-06 0 0)
(2.04587e-06 0 0)
(2.04495e-06 0 0)
(2.0443e-06 0 0)
(2.04388e-06 0 0)
(2.04363e-06 0 0)
(2.0435e-06 0 0)
(2.04346e-06 0 0)
(2.04347e-06 0 0)
(2.04348e-06 0 0)
(2.04348e-06 0 0)
(2.04344e-06 0 0)
(2.04336e-06 0 0)
(2.04322e-06 0 0)
(2.04302e-06 0 0)
(2.04277e-06 0 0)
(2.04247e-06 0 0)
(2.04212e-06 0 0)
(2.04173e-06 0 0)
(2.0413e-06 0 0)
(2.04085e-06 0 0)
(2.04037e-06 0 0)
(2.03988e-06 0 0)
(2.03938e-06 0 0)
(2.03887e-06 0 0)
(2.03836e-06 0 0)
(2.03785e-06 0 0)
(2.03734e-06 0 0)
(2.03684e-06 0 0)
(2.03634e-06 0 0)
(2.03584e-06 0 0)
(2.03535e-06 0 0)
(2.03487e-06 0 0)
(2.0344e-06 0 0)
(2.03394e-06 0 0)
(2.03349e-06 0 0)
(2.03304e-06 0 0)
(2.0326e-06 0 0)
(2.03218e-06 0 0)
(2.03176e-06 0 0)
(2.03135e-06 0 0)
(2.03096e-06 0 0)
(2.03057e-06 0 0)
(2.0302e-06 0 0)
(2.02984e-06 0 0)
(2.02949e-06 0 0)
(2.02915e-06 0 0)
(2.02882e-06 0 0)
(2.0285e-06 0 0)
(2.0282e-06 0 0)
(2.0279e-06 0 0)
(2.02762e-06 0 0)
(2.02735e-06 0 0)
(2.02709e-06 0 0)
(2.02684e-06 0 0)
(2.02661e-06 0 0)
(2.02639e-06 0 0)
(2.02619e-06 0 0)
(2.026e-06 0 0)
(2.02582e-06 0 0)
(2.02567e-06 0 0)
(2.02552e-06 0 0)
(2.02539e-06 0 0)
(2.02527e-06 0 0)
(2.02517e-06 0 0)
(2.02506e-06 0 0)
(2.02497e-06 0 0)
(2.02488e-06 0 0)
(2.02479e-06 0 0)
(2.0247e-06 0 0)
(2.02461e-06 0 0)
(2.02453e-06 0 0)
(2.02446e-06 0 0)
(2.02439e-06 0 0)
(2.02433e-06 0 0)
(2.02428e-06 0 0)
(2.02424e-06 0 0)
(2.02421e-06 0 0)
(2.02419e-06 0 0)
(2.02417e-06 0 0)
(2.02416e-06 0 0)
(2.02414e-06 0 0)
(2.02411e-06 0 0)
(2.02408e-06 0 0)
(2.02403e-06 0 0)
(2.02398e-06 0 0)
(2.02392e-06 0 0)
(2.02388e-06 0 0)
(2.02385e-06 0 0)
(2.02388e-06 0 0)
(2.02396e-06 0 0)
(2.02413e-06 0 0)
(2.0244e-06 0 0)
(2.02479e-06 0 0)
(2.02531e-06 0 0)
(2.02599e-06 0 0)
(2.02681e-06 0 0)
(2.0278e-06 0 0)
(2.02893e-06 0 0)
(2.0302e-06 0 0)
(2.03161e-06 0 0)
(2.03313e-06 0 0)
(2.03474e-06 0 0)
(2.03641e-06 0 0)
(2.03812e-06 0 0)
(2.03983e-06 0 0)
(2.0415e-06 0 0)
(2.04309e-06 0 0)
(2.04457e-06 0 0)
(2.0459e-06 0 0)
(2.04703e-06 0 0)
(2.04794e-06 0 0)
(2.04859e-06 0 0)
(2.04895e-06 0 0)
(2.04902e-06 0 0)
(2.04878e-06 0 0)
(2.04824e-06 0 0)
(2.04741e-06 0 0)
(2.04631e-06 0 0)
(2.04497e-06 0 0)
(2.04342e-06 0 0)
(2.04172e-06 0 0)
(2.03989e-06 0 0)
(2.03799e-06 0 0)
(2.03607e-06 0 0)
(2.03415e-06 0 0)
(2.03229e-06 0 0)
(2.03051e-06 0 0)
(2.02884e-06 0 0)
(2.02729e-06 0 0)
(2.02588e-06 0 0)
(2.02461e-06 0 0)
(2.02349e-06 0 0)
(2.02251e-06 0 0)
(2.02166e-06 0 0)
(2.02094e-06 0 0)
(2.02032e-06 0 0)
(2.0198e-06 0 0)
(2.01935e-06 0 0)
(2.01898e-06 0 0)
(2.01865e-06 0 0)
(2.01835e-06 0 0)
(2.01808e-06 0 0)
(2.01783e-06 0 0)
(2.01758e-06 0 0)
(2.01732e-06 0 0)
(2.01706e-06 0 0)
(2.01678e-06 0 0)
(2.01649e-06 0 0)
(2.01618e-06 0 0)
(2.01585e-06 0 0)
(2.0155e-06 0 0)
(2.01514e-06 0 0)
(2.01475e-06 0 0)
(2.01435e-06 0 0)
(2.01394e-06 0 0)
(2.01351e-06 0 0)
(2.01308e-06 0 0)
(2.01263e-06 0 0)
(2.01218e-06 0 0)
(2.01173e-06 0 0)
(2.01127e-06 0 0)
(2.01081e-06 0 0)
(2.01035e-06 0 0)
(2.00989e-06 0 0)
(2.00944e-06 0 0)
(2.00898e-06 0 0)
(2.00853e-06 0 0)
(2.00809e-06 0 0)
(2.00765e-06 0 0)
(2.00722e-06 0 0)
(2.0068e-06 0 0)
(2.00638e-06 0 0)
(2.00597e-06 0 0)
(2.00557e-06 0 0)
(2.00517e-06 0 0)
(2.00479e-06 0 0)
(2.00441e-06 0 0)
(2.00404e-06 0 0)
(2.00368e-06 0 0)
(2.00332e-06 0 0)
(2.00298e-06 0 0)
(2.00265e-06 0 0)
(2.00232e-06 0 0)
(2.002e-06 0 0)
(2.00169e-06 0 0)
(2.0014e-06 0 0)
(2.00111e-06 0 0)
(2.00083e-06 0 0)
(2.00056e-06 0 0)
(2.0003e-06 0 0)
(2.00005e-06 0 0)
(1.99981e-06 0 0)
(1.99958e-06 0 0)
(1.99936e-06 0 0)
(1.99915e-06 0 0)
(1.99896e-06 0 0)
(1.99877e-06 0 0)
(1.99859e-06 0 0)
(1.99842e-06 0 0)
(1.99826e-06 0 0)
(1.99811e-06 0 0)
(1.99797e-06 0 0)
(1.99783e-06 0 0)
(1.9977e-06 0 0)
(1.99758e-06 0 0)
(1.99746e-06 0 0)
(1.99735e-06 0 0)
(1.99724e-06 0 0)
(1.99714e-06 0 0)
(1.99704e-06 0 0)
(1.99695e-06 0 0)
(1.99686e-06 0 0)
(1.99678e-06 0 0)
(1.99671e-06 0 0)
(1.99663e-06 0 0)
(1.99656e-06 0 0)
(1.99649e-06 0 0)
(1.99643e-06 0 0)
(1.99636e-06 0 0)
(1.99629e-06 0 0)
(1.99623e-06 0 0)
(1.99616e-06 0 0)
(1.9961e-06 0 0)
(1.99604e-06 0 0)
(1.99599e-06 0 0)
(1.99595e-06 0 0)
(1.99593e-06 0 0)
(1.99592e-06 0 0)
(1.99594e-06 0 0)
(1.996e-06 0 0)
(1.9961e-06 0 0)
(1.99624e-06 0 0)
(1.99644e-06 0 0)
(1.9967e-06 0 0)
(1.99703e-06 0 0)
(1.99744e-06 0 0)
(1.99792e-06 0 0)
(1.99848e-06 0 0)
(1.99912e-06 0 0)
(1.99985e-06 0 0)
(2.00065e-06 0 0)
(2.00153e-06 0 0)
(2.00247e-06 0 0)
(2.00348e-06 0 0)
(2.00454e-06 0 0)
(2.00563e-06 0 0)
(2.00675e-06 0 0)
(2.00788e-06 0 0)
(2.00901e-06 0 0)
(2.01011e-06 0 0)
(2.01118e-06 0 0)
(2.01218e-06 0 0)
(2.01311e-06 0 0)
(2.01394e-06 0 0)
(2.01466e-06 0 0)
(2.01526e-06 0 0)
(2.01571e-06 0 0)
(2.01601e-06 0 0)
(2.01616e-06 0 0)
(2.01613e-06 0 0)
(2.01594e-06 0 0)
(2.01558e-06 0 0)
(2.01506e-06 0 0)
(2.01438e-06 0 0)
(2.01355e-06 0 0)
(2.0126e-06 0 0)
(2.01153e-06 0 0)
(2.01036e-06 0 0)
(2.00912e-06 0 0)
(2.00782e-06 0 0)
(2.00648e-06 0 0)
(2.00512e-06 0 0)
(2.00376e-06 0 0)
(2.00241e-06 0 0)
(2.0011e-06 0 0)
(1.99983e-06 0 0)
(1.99862e-06 0 0)
(1.99747e-06 0 0)
(1.99639e-06 0 0)
(1.99537e-06 0 0)
(1.99444e-06 0 0)
(1.99358e-06 0 0)
(1.99279e-06 0 0)
(1.99206e-06 0 0)
(1.99141e-06 0 0)
(1.99081e-06 0 0)
(1.99026e-06 0 0)
(1.98977e-06 0 0)
(1.98931e-06 0 0)
(1.98889e-06 0 0)
(1.9885e-06 0 0)
(1.98813e-06 0 0)
(1.98778e-06 0 0)
(1.98744e-06 0 0)
(1.98711e-06 0 0)
(1.98678e-06 0 0)
(1.98646e-06 0 0)
(1.98613e-06 0 0)
(1.9858e-06 0 0)
(1.98547e-06 0 0)
(1.98513e-06 0 0)
(1.98478e-06 0 0)
(1.98443e-06 0 0)
(1.98406e-06 0 0)
(1.98369e-06 0 0)
(1.98331e-06 0 0)
(1.98292e-06 0 0)
(1.98253e-06 0 0)
(1.98213e-06 0 0)
(1.98173e-06 0 0)
(1.98132e-06 0 0)
(1.98091e-06 0 0)
(1.9805e-06 0 0)
(1.98008e-06 0 0)
(1.97967e-06 0 0)
(1.97925e-06 0 0)
(1.97884e-06 0 0)
(1.97842e-06 0 0)
(1.97801e-06 0 0)
(1.97761e-06 0 0)
(1.9772e-06 0 0)
(1.9768e-06 0 0)
(1.97641e-06 0 0)
(1.97601e-06 0 0)
(1.97563e-06 0 0)
(1.97525e-06 0 0)
(1.97487e-06 0 0)
(1.9745e-06 0 0)
(1.97414e-06 0 0)
(1.97378e-06 0 0)
(1.97343e-06 0 0)
(1.97308e-06 0 0)
(1.97274e-06 0 0)
(1.97241e-06 0 0)
(1.97209e-06 0 0)
(1.97177e-06 0 0)
(1.97146e-06 0 0)
(1.97115e-06 0 0)
(1.97085e-06 0 0)
(1.97056e-06 0 0)
(1.97028e-06 0 0)
(1.97001e-06 0 0)
(1.96974e-06 0 0)
(1.96948e-06 0 0)
(1.96923e-06 0 0)
(1.96898e-06 0 0)
(1.96875e-06 0 0)
(1.96852e-06 0 0)
(1.96829e-06 0 0)
(1.96808e-06 0 0)
(1.96787e-06 0 0)
(1.96767e-06 0 0)
(1.96748e-06 0 0)
(1.96729e-06 0 0)
(1.96711e-06 0 0)
(1.96694e-06 0 0)
(1.96677e-06 0 0)
(1.96661e-06 0 0)
(1.96646e-06 0 0)
(1.96631e-06 0 0)
(1.96616e-06 0 0)
(1.96602e-06 0 0)
(1.96589e-06 0 0)
(1.96576e-06 0 0)
(1.96563e-06 0 0)
(1.96551e-06 0 0)
(1.96539e-06 0 0)
(1.96528e-06 0 0)
(1.96517e-06 0 0)
(1.96506e-06 0 0)
(1.96496e-06 0 0)
(1.96486e-06 0 0)
(1.96476e-06 0 0)
(1.96466e-06 0 0)
(1.96457e-06 0 0)
(1.96448e-06 0 0)
(1.96439e-06 0 0)
(1.96431e-06 0 0)
(1.96424e-06 0 0)
(1.96417e-06 0 0)
(1.96412e-06 0 0)
(1.96407e-06 0 0)
(1.96405e-06 0 0)
(1.96403e-06 0 0)
(1.96404e-06 0 0)
(1.96407e-06 0 0)
(1.96413e-06 0 0)
(1.96422e-06 0 0)
(1.96434e-06 0 0)
(1.9645e-06 0 0)
(1.9647e-06 0 0)
(1.96494e-06 0 0)
(1.96522e-06 0 0)
(1.96555e-06 0 0)
(1.96593e-06 0 0)
(1.96636e-06 0 0)
(1.96683e-06 0 0)
(1.96735e-06 0 0)
(1.96792e-06 0 0)
(1.96853e-06 0 0)
(1.96918e-06 0 0)
(1.96987e-06 0 0)
(1.97059e-06 0 0)
(1.97134e-06 0 0)
(1.97211e-06 0 0)
(1.97289e-06 0 0)
(1.97368e-06 0 0)
(1.97446e-06 0 0)
(1.97523e-06 0 0)
(1.97599e-06 0 0)
(1.97671e-06 0 0)
(1.97739e-06 0 0)
(1.97803e-06 0 0)
(1.97861e-06 0 0)
(1.97912e-06 0 0)
(1.97956e-06 0 0)
(1.97992e-06 0 0)
(1.98019e-06 0 0)
(1.98037e-06 0 0)
(1.98045e-06 0 0)
(1.98043e-06 0 0)
(1.9803e-06 0 0)
(1.98007e-06 0 0)
(1.97974e-06 0 0)
(1.97931e-06 0 0)
(1.97878e-06 0 0)
(1.97817e-06 0 0)
(1.97747e-06 0 0)
(1.97669e-06 0 0)
(1.97585e-06 0 0)
(1.97494e-06 0 0)
(1.97399e-06 0 0)
(1.973e-06 0 0)
(1.97198e-06 0 0)
(1.97094e-06 0 0)
(1.96989e-06 0 0)
(1.96885e-06 0 0)
(1.96781e-06 0 0)
(1.96678e-06 0 0)
(1.96578e-06 0 0)
(1.96481e-06 0 0)
(1.96387e-06 0 0)
(1.96296e-06 0 0)
(1.9621e-06 0 0)
(1.96127e-06 0 0)
(1.96049e-06 0 0)
(1.95975e-06 0 0)
(1.95905e-06 0 0)
(1.95839e-06 0 0)
(1.95777e-06 0 0)
(1.95718e-06 0 0)
(1.95663e-06 0 0)
(1.95611e-06 0 0)
(1.95562e-06 0 0)
(1.95515e-06 0 0)
(1.9547e-06 0 0)
(1.95428e-06 0 0)
(1.95387e-06 0 0)
(1.95347e-06 0 0)
(1.95308e-06 0 0)
(1.9527e-06 0 0)
(1.95233e-06 0 0)
(1.95196e-06 0 0)
(1.9516e-06 0 0)
(1.95123e-06 0 0)
(1.95087e-06 0 0)
(1.9505e-06 0 0)
(1.95013e-06 0 0)
(1.94976e-06 0 0)
(1.94938e-06 0 0)
(1.94901e-06 0 0)
(1.94862e-06 0 0)
(1.94824e-06 0 0)
(1.94785e-06 0 0)
(1.94746e-06 0 0)
(1.94706e-06 0 0)
(1.94666e-06 0 0)
(1.94626e-06 0 0)
(1.94586e-06 0 0)
(1.94545e-06 0 0)
(1.94505e-06 0 0)
(1.94464e-06 0 0)
(1.94423e-06 0 0)
(1.94383e-06 0 0)
(1.94342e-06 0 0)
(1.94302e-06 0 0)
(1.94262e-06 0 0)
(1.94222e-06 0 0)
(1.94182e-06 0 0)
(1.94143e-06 0 0)
(1.94104e-06 0 0)
(1.94065e-06 0 0)
(1.94026e-06 0 0)
(1.93988e-06 0 0)
(1.93951e-06 0 0)
(1.93914e-06 0 0)
(1.93877e-06 0 0)
(1.93841e-06 0 0)
(1.93805e-06 0 0)
(1.9377e-06 0 0)
(1.93735e-06 0 0)
(1.93701e-06 0 0)
(1.93668e-06 0 0)
(1.93635e-06 0 0)
(1.93602e-06 0 0)
(1.93571e-06 0 0)
(1.93539e-06 0 0)
(1.93509e-06 0 0)
(1.93479e-06 0 0)
(1.93449e-06 0 0)
(1.93421e-06 0 0)
(1.93392e-06 0 0)
(1.93365e-06 0 0)
(1.93338e-06 0 0)
(1.93312e-06 0 0)
(1.93286e-06 0 0)
(1.93261e-06 0 0)
(1.93237e-06 0 0)
(1.93213e-06 0 0)
(1.9319e-06 0 0)
(1.93167e-06 0 0)
(1.93145e-06 0 0)
(1.93123e-06 0 0)
(1.93102e-06 0 0)
(1.93082e-06 0 0)
(1.93062e-06 0 0)
(1.93043e-06 0 0)
(1.93024e-06 0 0)
(1.93006e-06 0 0)
(1.92988e-06 0 0)
(1.92971e-06 0 0)
(1.92954e-06 0 0)
(1.92937e-06 0 0)
(1.92921e-06 0 0)
(1.92905e-06 0 0)
(1.9289e-06 0 0)
(1.92875e-06 0 0)
(1.92861e-06 0 0)
(1.92847e-06 0 0)
(1.92833e-06 0 0)
(1.92819e-06 0 0)
(1.92806e-06 0 0)
(1.92794e-06 0 0)
(1.92781e-06 0 0)
(1.9277e-06 0 0)
(1.92758e-06 0 0)
(1.92748e-06 0 0)
(1.92738e-06 0 0)
(1.92728e-06 0 0)
(1.9272e-06 0 0)
(1.92712e-06 0 0)
(1.92706e-06 0 0)
(1.92701e-06 0 0)
(1.92697e-06 0 0)
(1.92694e-06 0 0)
(1.92693e-06 0 0)
(1.92694e-06 0 0)
(1.92697e-06 0 0)
(1.92702e-06 0 0)
(1.92709e-06 0 0)
(1.92719e-06 0 0)
(1.92731e-06 0 0)
(1.92746e-06 0 0)
(1.92764e-06 0 0)
(1.92785e-06 0 0)
(1.92809e-06 0 0)
(1.92835e-06 0 0)
(1.92865e-06 0 0)
(1.92898e-06 0 0)
(1.92934e-06 0 0)
(1.92973e-06 0 0)
(1.93014e-06 0 0)
(1.93059e-06 0 0)
(1.93105e-06 0 0)
(1.93154e-06 0 0)
(1.93205e-06 0 0)
(1.93257e-06 0 0)
(1.9331e-06 0 0)
(1.93365e-06 0 0)
(1.9342e-06 0 0)
(1.93474e-06 0 0)
(1.93529e-06 0 0)
(1.93582e-06 0 0)
(1.93634e-06 0 0)
(1.93684e-06 0 0)
(1.93731e-06 0 0)
(1.93776e-06 0 0)
(1.93817e-06 0 0)
(1.93853e-06 0 0)
(1.93886e-06 0 0)
(1.93913e-06 0 0)
(1.93935e-06 0 0)
(1.93952e-06 0 0)
(1.93962e-06 0 0)
(1.93966e-06 0 0)
(1.93964e-06 0 0)
(1.93954e-06 0 0)
(1.93938e-06 0 0)
(1.93915e-06 0 0)
(1.93886e-06 0 0)
(1.93849e-06 0 0)
(1.93806e-06 0 0)
(1.93757e-06 0 0)
(1.93702e-06 0 0)
(1.93641e-06 0 0)
(1.93575e-06 0 0)
(1.93504e-06 0 0)
(1.93429e-06 0 0)
(1.93351e-06 0 0)
(1.93269e-06 0 0)
(1.93185e-06 0 0)
(1.93098e-06 0 0)
(1.93011e-06 0 0)
(1.92922e-06 0 0)
(1.92833e-06 0 0)
(1.92744e-06 0 0)
(1.92655e-06 0 0)
(1.92567e-06 0 0)
(1.92481e-06 0 0)
(1.92396e-06 0 0)
(1.92313e-06 0 0)
(1.92232e-06 0 0)
(1.92153e-06 0 0)
(1.92077e-06 0 0)
(1.92003e-06 0 0)
(1.91932e-06 0 0)
(1.91863e-06 0 0)
(1.91797e-06 0 0)
(1.91733e-06 0 0)
(1.91672e-06 0 0)
(1.91612e-06 0 0)
(1.91556e-06 0 0)
(1.91501e-06 0 0)
(1.91448e-06 0 0)
(1.91396e-06 0 0)
(1.91346e-06 0 0)
(1.91298e-06 0 0)
(1.91251e-06 0 0)
(1.91205e-06 0 0)
(1.9116e-06 0 0)
(1.91116e-06 0 0)
(1.91072e-06 0 0)
(1.91029e-06 0 0)
(1.90987e-06 0 0)
(1.90945e-06 0 0)
(1.90903e-06 0 0)
(1.90861e-06 0 0)
(1.90819e-06 0 0)
(1.90778e-06 0 0)
(1.90736e-06 0 0)
(1.90695e-06 0 0)
(1.90653e-06 0 0)
(1.90611e-06 0 0)
(1.90569e-06 0 0)
(1.90527e-06 0 0)
(1.90485e-06 0 0)
(1.90443e-06 0 0)
(1.90401e-06 0 0)
(1.90359e-06 0 0)
(1.90317e-06 0 0)
(1.90275e-06 0 0)
(1.90233e-06 0 0)
(1.90191e-06 0 0)
(1.90149e-06 0 0)
(1.90107e-06 0 0)
(1.90066e-06 0 0)
(1.90025e-06 0 0)
(1.89984e-06 0 0)
(1.89944e-06 0 0)
(1.89904e-06 0 0)
(1.89864e-06 0 0)
(1.89826e-06 0 0)
(1.89787e-06 0 0)
(1.8975e-06 0 0)
(1.89713e-06 0 0)
(1.89677e-06 0 0)
(1.89642e-06 0 0)
(1.89608e-06 0 0)
(1.89576e-06 0 0)
(1.89544e-06 0 0)
(1.89513e-06 0 0)
(1.89484e-06 0 0)
(1.89456e-06 0 0)
(1.8943e-06 0 0)
(1.89405e-06 0 0)
(1.89382e-06 0 0)
(1.89359e-06 0 0)
(1.89339e-06 0 0)
(1.8932e-06 0 0)
(1.89302e-06 0 0)
(1.89287e-06 0 0)
(1.89272e-06 0 0)
(1.89259e-06 0 0)
(1.89247e-06 0 0)
(1.89237e-06 0 0)
(1.89227e-06 0 0)
(1.89219e-06 0 0)
(1.89212e-06 0 0)
(1.89207e-06 0 0)
(1.89202e-06 0 0)
(1.89198e-06 0 0)
(1.89195e-06 0 0)
(1.89192e-06 0 0)
(1.89191e-06 0 0)
(1.8919e-06 0 0)
(1.89189e-06 0 0)
(1.89189e-06 0 0)
(1.89189e-06 0 0)
(1.89188e-06 0 0)
(1.89186e-06 0 0)
(1.89181e-06 0 0)
(1.89169e-06 0 0)
(1.89147e-06 0 0)
(1.89105e-06 0 0)
(1.89029e-06 0 0)
(1.88894e-06 0 0)
(1.88665e-06 0 0)
(1.88301e-06 0 0)
(1.87771e-06 0 0)
(1.87096e-06 0 0)
(1.8638e-06 0 0)
(1.85768e-06 0 0)
(1.85353e-06 0 0)
(1.8512e-06 0 0)
(1.85007e-06 0 0)
(1.84958e-06 0 0)
(1.84939e-06 0 0)
(1.84935e-06 0 0)
(1.84938e-06 0 0)
(1.84944e-06 0 0)
(1.84953e-06 0 0)
(1.84963e-06 0 0)
(1.84974e-06 0 0)
(1.84986e-06 0 0)
(1.84998e-06 0 0)
(1.85011e-06 0 0)
(1.85025e-06 0 0)
(1.8504e-06 0 0)
(1.85056e-06 0 0)
(1.85073e-06 0 0)
(1.8509e-06 0 0)
(1.85109e-06 0 0)
(1.85129e-06 0 0)
(1.8515e-06 0 0)
(1.85172e-06 0 0)
(1.85196e-06 0 0)
(1.85221e-06 0 0)
(1.85248e-06 0 0)
(1.85276e-06 0 0)
(1.85306e-06 0 0)
(1.85338e-06 0 0)
(1.85371e-06 0 0)
(1.85406e-06 0 0)
(1.85443e-06 0 0)
(1.85482e-06 0 0)
(1.85523e-06 0 0)
(1.85565e-06 0 0)
(1.8561e-06 0 0)
(1.85656e-06 0 0)
(1.85704e-06 0 0)
(1.85753e-06 0 0)
(1.85804e-06 0 0)
(1.85857e-06 0 0)
(1.85911e-06 0 0)
(1.85966e-06 0 0)
(1.86023e-06 0 0)
(1.8608e-06 0 0)
(1.86139e-06 0 0)
(1.86197e-06 0 0)
(1.86257e-06 0 0)
(1.86316e-06 0 0)
(1.86376e-06 0 0)
(1.86435e-06 0 0)
(1.86494e-06 0 0)
(1.86552e-06 0 0)
(1.86609e-06 0 0)
(1.86664e-06 0 0)
(1.86718e-06 0 0)
(1.86771e-06 0 0)
(1.86821e-06 0 0)
(1.86869e-06 0 0)
(1.86914e-06 0 0)
(1.86957e-06 0 0)
(1.86996e-06 0 0)
(1.87032e-06 0 0)
(1.87065e-06 0 0)
(1.87094e-06 0 0)
(1.87118e-06 0 0)
(1.87139e-06 0 0)
(1.87155e-06 0 0)
(1.87167e-06 0 0)
(1.87174e-06 0 0)
(1.87177e-06 0 0)
(1.87178e-06 0 0)
(1.87178e-06 0 0)
(1.87173e-06 0 0)
(1.8716e-06 0 0)
(1.87142e-06 0 0)
(1.8712e-06 0 0)
(1.87094e-06 0 0)
(1.87065e-06 0 0)
(1.87033e-06 0 0)
(1.86998e-06 0 0)
(1.8696e-06 0 0)
(1.86919e-06 0 0)
(1.86877e-06 0 0)
(1.86832e-06 0 0)
(1.86785e-06 0 0)
(1.86738e-06 0 0)
(1.86689e-06 0 0)
(1.86639e-06 0 0)
(1.86589e-06 0 0)
(1.86538e-06 0 0)
(1.86488e-06 0 0)
(1.86437e-06 0 0)
(1.86387e-06 0 0)
(1.86338e-06 0 0)
(1.8629e-06 0 0)
(1.86243e-06 0 0)
(1.86197e-06 0 0)
(1.86152e-06 0 0)
(1.86108e-06 0 0)
(1.86067e-06 0 0)
(1.86026e-06 0 0)
(1.85987e-06 0 0)
(1.8595e-06 0 0)
(1.85915e-06 0 0)
(1.85881e-06 0 0)
(1.85848e-06 0 0)
(1.85817e-06 0 0)
(1.85788e-06 0 0)
(1.8576e-06 0 0)
(1.85734e-06 0 0)
(1.85709e-06 0 0)
(1.85685e-06 0 0)
(1.85662e-06 0 0)
(1.8564e-06 0 0)
(1.85619e-06 0 0)
(1.85599e-06 0 0)
(1.8558e-06 0 0)
(1.85562e-06 0 0)
(1.85545e-06 0 0)
(1.85527e-06 0 0)
(1.85511e-06 0 0)
(1.85495e-06 0 0)
(1.85479e-06 0 0)
(1.85464e-06 0 0)
(1.85449e-06 0 0)
(1.85434e-06 0 0)
(1.85419e-06 0 0)
(1.85405e-06 0 0)
(1.8539e-06 0 0)
(1.85376e-06 0 0)
(1.85362e-06 0 0)
(1.85348e-06 0 0)
(1.85334e-06 0 0)
(1.8532e-06 0 0)
(1.85305e-06 0 0)
(1.85291e-06 0 0)
(1.85277e-06 0 0)
(1.85263e-06 0 0)
(1.85249e-06 0 0)
(1.85235e-06 0 0)
(1.85221e-06 0 0)
(1.85208e-06 0 0)
(1.85194e-06 0 0)
(1.8518e-06 0 0)
(1.85166e-06 0 0)
(1.85153e-06 0 0)
(1.85139e-06 0 0)
(1.85126e-06 0 0)
(1.85113e-06 0 0)
(1.851e-06 0 0)
(1.85087e-06 0 0)
(1.85074e-06 0 0)
(1.85062e-06 0 0)
(1.8505e-06 0 0)
(1.85038e-06 0 0)
)
;

boundaryField
{
    inlet
    {
        type            fixedValue;
        value           uniform (2.74882e-06 0 0);
    }
    outlet
    {
        type            zeroGradient;
    }
    emptyWalls
    {
        type            empty;
    }
}


// ************************************************************************* //
