/*--------------------------------*- C++ -*----------------------------------*\
  =========                 |
  \\      /  F ield         | OpenFOAM: The Open Source CFD Toolbox
   \\    /   O peration     | Website:  https://openfoam.org
    \\  /    A nd           | Version:  9
     \\/     M anipulation  |
\*---------------------------------------------------------------------------*/
FoamFile
{
    format      ascii;
    class       volScalarField;
    location    "8550";
    object      Fa;
}
// * * * * * * * * * * * * * * * * * * * * * * * * * * * * * * * * * * * * * //

dimensions      [0 0 0 0 0 0 0];

internalField   nonuniform List<scalar> 
1000
(
0.194745
0.194912
0.19451
0.194907
0.194216
0.194711
0.194014
0.194369
0.193871
0.193799
0.19235
0.184931
0.157512
0.151176
0.149353
0.148749
0.148452
0.148223
0.147945
0.147695
0.147387
0.147135
0.14687
0.146707
0.146428
0.146291
0.146064
0.145868
0.145696
0.145525
0.145377
0.145243
0.145157
0.145102
0.145045
0.144988
0.14493
0.144873
0.144817
0.144762
0.144708
0.144657
0.144608
0.144561
0.144517
0.144474
0.144433
0.144394
0.144356
0.144319
0.144282
0.144247
0.144212
0.144178
0.144145
0.144112
0.14408
0.144049
0.144019
0.143989
0.14396
0.143931
0.143903
0.143875
0.143847
0.14382
0.143793
0.143767
0.143741
0.143716
0.143692
0.143668
0.143646
0.143624
0.143602
0.143581
0.143561
0.143541
0.143522
0.143503
0.143485
0.143467
0.143448
0.14343
0.14341
0.14339
0.143369
0.143348
0.143328
0.14331
0.143295
0.143282
0.143272
0.143264
0.143258
0.143252
0.143248
0.143246
0.143247
0.143253
0.143266
0.143289
0.143325
0.143374
0.143438
0.143518
0.143614
0.143724
0.143846
0.143979
0.144119
0.144264
0.144409
0.14455
0.144683
0.144802
0.144902
0.144978
0.145026
0.145041
0.145021
0.144963
0.144867
0.144735
0.144569
0.144374
0.144156
0.143922
0.143678
0.143432
0.143191
0.142959
0.142743
0.142545
0.142368
0.142214
0.142082
0.141972
0.141882
0.14181
0.141753
0.14171
0.141676
0.14165
0.14163
0.141612
0.141596
0.141579
0.141561
0.14154
0.141516
0.141489
0.141458
0.141424
0.141387
0.141347
0.141304
0.141258
0.14121
0.141161
0.14111
0.141059
0.141006
0.140953
0.140899
0.140845
0.140791
0.140736
0.140682
0.140627
0.140573
0.140519
0.140464
0.14041
0.140357
0.140303
0.14025
0.140196
0.140144
0.140091
0.140039
0.139987
0.139936
0.139885
0.139836
0.139786
0.139737
0.139689
0.139642
0.139595
0.13955
0.139505
0.139461
0.139418
0.139376
0.139336
0.139294
0.139257
0.139216
0.139181
0.139142
0.139108
0.13907
0.139037
0.139001
0.138968
0.138934
0.138901
0.138868
0.138834
0.138802
0.138769
0.138737
0.138705
0.138673
0.138641
0.138609
0.138577
0.138546
0.138515
0.138484
0.138453
0.138422
0.138392
0.138362
0.138332
0.138303
0.138274
0.138245
0.138216
0.138188
0.138159
0.138131
0.138104
0.138076
0.138048
0.138021
0.137994
0.137967
0.13794
0.137914
0.137888
0.137863
0.137838
0.137814
0.13779
0.137768
0.137746
0.137725
0.137705
0.137687
0.137669
0.137654
0.137641
0.13763
0.137621
0.137616
0.137614
0.137616
0.137622
0.137632
0.137647
0.137668
0.137694
0.137725
0.137761
0.137803
0.13785
0.137901
0.137957
0.138016
0.138077
0.138141
0.138205
0.138269
0.138331
0.13839
0.138445
0.138494
0.138536
0.138568
0.138591
0.138603
0.138602
0.138587
0.138559
0.138516
0.138458
0.138386
0.1383
0.1382
0.138089
0.137965
0.137833
0.137693
0.137546
0.137396
0.137243
0.137089
0.136937
0.136788
0.136643
0.136503
0.136369
0.136243
0.136124
0.136013
0.135909
0.135814
0.135726
0.135645
0.135571
0.135503
0.135441
0.135383
0.13533
0.13528
0.135234
0.13519
0.135149
0.135109
0.135071
0.135034
0.134998
0.134964
0.13493
0.134898
0.134866
0.134836
0.134807
0.13478
0.134753
0.134726
0.134699
0.13467
0.134636
0.134592
0.13453
0.134435
0.134286
0.134051
0.133696
0.133213
0.132651
0.132137
0.131774
0.131564
0.131453
0.131393
0.131357
0.131332
0.131312
0.131295
0.131279
0.131264
0.131249
0.131234
0.13122
0.131205
0.131191
0.131177
0.131163
0.131149
0.131135
0.131121
0.131108
0.131095
0.131081
0.131068
0.131056
0.131043
0.131031
0.131019
0.131008
0.130996
0.130985
0.130975
0.130965
0.130955
0.130946
0.130937
0.130928
0.13092
0.130913
0.130906
0.1309
0.130894
0.130888
0.130883
0.130879
0.130875
0.130872
0.130869
0.130867
0.130865
0.130864
0.130864
0.130864
0.130864
0.130864
0.130865
0.130867
0.130869
0.130871
0.130874
0.130878
0.130881
0.130885
0.13089
0.130894
0.130899
0.130905
0.13091
0.130916
0.130922
0.130929
0.130935
0.130942
0.130949
0.130957
0.130964
0.130972
0.13098
0.130988
0.130996
0.131005
0.131014
0.131023
0.131032
0.131042
0.131052
0.131062
0.131072
0.131083
0.131094
0.131105
0.131117
0.13113
0.131142
0.131156
0.13117
0.131185
0.1312
0.131216
0.131233
0.131252
0.131271
0.131291
0.131313
0.131336
0.131361
0.131388
0.131416
0.131446
0.131478
0.131513
0.13155
0.131589
0.131631
0.131675
0.131722
0.131772
0.131825
0.13188
0.131937
0.131998
0.13206
0.132125
0.132192
0.13226
0.13233
0.132401
0.132472
0.132544
0.132615
0.132686
0.132755
0.132823
0.132888
0.13295
0.133008
0.133061
0.13311
0.133153
0.13319
0.133221
0.133244
0.13326
0.133268
0.133271
0.13327
0.133268
0.133254
0.133225
0.133188
0.133144
0.133094
0.133039
0.132978
0.132913
0.132844
0.132772
0.132699
0.132624
0.132549
0.132474
0.1324
0.132328
0.132258
0.132191
0.132128
0.132067
0.132011
0.131959
0.131911
0.131867
0.131828
0.131792
0.13176
0.131732
0.131708
0.131686
0.131668
0.131652
0.131638
0.131627
0.131617
0.131609
0.131602
0.131595
0.13159
0.131584
0.131579
0.131574
0.131569
0.131563
0.131557
0.131551
0.131543
0.131536
0.131527
0.131518
0.131509
0.131498
0.131487
0.131475
0.131463
0.13145
0.131437
0.131423
0.131408
0.131393
0.131378
0.131363
0.131348
0.131332
0.131316
0.1313
0.131284
0.131268
0.131251
0.131235
0.131219
0.131203
0.131187
0.131172
0.131156
0.13114
0.131125
0.13111
0.131095
0.13108
0.131065
0.131051
0.131037
0.131023
0.131009
0.130995
0.130982
0.130969
0.130957
0.130945
0.130933
0.130921
0.13091
0.130899
0.130889
0.130879
0.13087
0.130861
0.130852
0.130844
0.130837
0.13083
0.130824
0.130819
0.130814
0.13081
0.130806
0.130803
0.130801
0.1308
0.130799
0.130799
0.130799
0.130799
0.1308
0.130802
0.130806
0.130809
0.130814
0.130819
0.130824
0.13083
0.130837
0.130844
0.130851
0.130859
0.130868
0.130877
0.130886
0.130895
0.130906
0.130916
0.130926
0.130937
0.130948
0.130959
0.130971
0.130983
0.130995
0.131007
0.131019
0.131032
0.131045
0.131057
0.131071
0.131084
0.131097
0.131111
0.131125
0.131139
0.131154
0.131168
0.131184
0.131199
0.131215
0.131232
0.131249
0.131266
0.131285
0.131303
0.131323
0.131344
0.131365
0.131388
0.131412
0.131436
0.131462
0.13149
0.131519
0.131549
0.131581
0.131615
0.13165
0.131687
0.131726
0.131767
0.13181
0.131854
0.131901
0.131949
0.131999
0.132051
0.132104
0.132158
0.132214
0.132271
0.132329
0.132387
0.132446
0.132504
0.132562
0.13262
0.132676
0.132731
0.132785
0.132836
0.132885
0.13293
0.132972
0.133011
0.133045
0.133075
0.1331
0.13312
0.133134
0.133142
0.133145
0.133146
0.133145
0.13314
0.133122
0.133096
0.133065
0.133029
0.132988
0.132942
0.132893
0.13284
0.132784
0.132726
0.132666
0.132605
0.132543
0.13248
0.132419
0.132358
0.132298
0.13224
0.132184
0.132131
0.13208
0.132032
0.131987
0.131945
0.131906
0.131871
0.131838
0.131808
0.131781
0.131757
0.131735
0.131716
0.131699
0.131684
0.13167
0.131659
0.131648
0.131638
0.13163
0.131622
0.131615
0.131608
0.131601
0.131595
0.131588
0.131581
0.131574
0.131567
0.131559
0.13155
0.131541
0.131532
0.131522
0.131512
0.131501
0.131489
0.131477
0.131464
0.131451
0.131438
0.131424
0.13141
0.131395
0.131381
0.131366
0.13135
0.131335
0.13132
0.131305
0.131289
0.131274
0.131259
0.131244
0.131229
0.131214
0.1312
0.131185
0.131172
0.131158
0.131144
0.131131
0.131119
0.131106
0.131094
0.131082
0.131071
0.13106
0.131049
0.131039
0.131029
0.13102
0.13101
0.131001
0.130993
0.130985
0.130977
0.13097
0.130963
0.130956
0.13095
0.130944
0.130938
0.130933
0.130929
0.130924
0.13092
0.130917
0.130914
0.130911
0.130909
0.130907
0.130905
0.130904
0.130904
0.130904
0.130904
0.130904
0.130905
0.130907
0.130909
0.130912
0.130915
0.130919
0.130923
0.130928
0.130933
0.130938
0.130944
0.130951
0.130958
0.130965
0.130973
0.130981
0.13099
0.130999
0.131008
0.131017
0.131027
0.131038
0.131048
0.131059
0.13107
0.131082
0.131094
0.131106
0.131118
0.131131
0.131144
0.131157
0.131171
0.131185
0.131199
0.131214
0.131229
0.131245
0.131261
0.131278
0.131295
0.131313
0.131332
0.131351
0.131372
0.131393
0.131415
0.131438
0.131462
0.131488
0.131514
0.131542
0.131571
0.131601
0.131633
0.131666
0.1317
0.131736
0.131774
0.131813
0.131853
0.131894
0.131937
0.131981
0.132026
0.132072
0.132119
0.132167
0.132215
0.132264
0.132313
0.132361
0.13241
0.132458
0.132505
0.132552
0.132596
0.13264
0.132681
0.132721
0.132757
0.132792
0.132823
0.132851
0.132875
0.132896
0.132912
0.132925
0.132932
0.132936
0.132937
0.132936
0.132935
0.132923
0.132905
0.132882
0.132855
0.132825
0.13279
0.132752
0.132712
0.132668
0.132623
0.132575
0.132526
0.132476
0.132425
0.132374
0.132323
0.132273
0.132223
0.132175
0.132128
0.132083
0.132039
0.131998
0.131958
0.131921
0.131886
0.131854
0.131824
0.131796
0.131771
0.131748
0.131727
0.131707
0.13169
0.131675
0.131661
0.131648
0.131637
0.131627
0.131618
0.131609
0.131601
0.131594
0.131587
0.13158
0.131574
0.131567
0.131561
0.131554
0.131547
0.131539
0.131532
0.131523
0.131515
0.131505
0.131496
0.131485
0.131476
0.131463
0.131453
0.131438
0.131428
0.131412
0.131402
0.131384
0.131374
0.131355
0.131345
0.131325
0.131314
0.131294
0.131284
0.131263
0.131253
0.131232
0.131222
0.131201
0.131192
0.131171
0.131162
0.131141
0.131133
0.131113
0.131105
0.131086
0.131078
0.13106
0.131052
)
;

boundaryField
{
    inlet
    {
        type            calculated;
        value           uniform 0.194831;
    }
    outlet
    {
        type            calculated;
        value           uniform 0.131044;
    }
    emptyWalls
    {
        type            empty;
    }
}


// ************************************************************************* //
