/*--------------------------------*- C++ -*----------------------------------*\
  =========                 |
  \\      /  F ield         | OpenFOAM: The Open Source CFD Toolbox
   \\    /   O peration     | Website:  https://openfoam.org
    \\  /    A nd           | Version:  9
     \\/     M anipulation  |
\*---------------------------------------------------------------------------*/
FoamFile
{
    format      ascii;
    class       surfaceScalarField;
    location    "8550";
    object      phib;
}
// * * * * * * * * * * * * * * * * * * * * * * * * * * * * * * * * * * * * * //

dimensions      [0 2 0 0 0 0 0];

internalField   nonuniform List<scalar> 
999
(
1.13617e-09
1.13631e-09
1.13625e-09
1.1364e-09
1.13646e-09
1.13652e-09
1.13668e-09
1.1367e-09
1.13693e-09
1.1375e-09
1.13989e-09
1.15324e-09
1.17366e-09
1.17767e-09
1.17871e-09
1.17891e-09
1.17894e-09
1.179e-09
1.17911e-09
1.17926e-09
1.17942e-09
1.17955e-09
1.17967e-09
1.17977e-09
1.17985e-09
1.1799e-09
1.17992e-09
1.17989e-09
1.1798e-09
1.17963e-09
1.17933e-09
1.17886e-09
1.17818e-09
1.17737e-09
1.17648e-09
1.17553e-09
1.17455e-09
1.17353e-09
1.17249e-09
1.17143e-09
1.17035e-09
1.16926e-09
1.16815e-09
1.16703e-09
1.1659e-09
1.16475e-09
1.1636e-09
1.16244e-09
1.16127e-09
1.16009e-09
1.1589e-09
1.15771e-09
1.15651e-09
1.15531e-09
1.15409e-09
1.15288e-09
1.15165e-09
1.15042e-09
1.14919e-09
1.14795e-09
1.1467e-09
1.14545e-09
1.1442e-09
1.14294e-09
1.14167e-09
1.1404e-09
1.13913e-09
1.13785e-09
1.13657e-09
1.13528e-09
1.13399e-09
1.13269e-09
1.13139e-09
1.13008e-09
1.12877e-09
1.12746e-09
1.12614e-09
1.12482e-09
1.12349e-09
1.12216e-09
1.12083e-09
1.11949e-09
1.11816e-09
1.11681e-09
1.11547e-09
1.11412e-09
1.11278e-09
1.11142e-09
1.11007e-09
1.1087e-09
1.10733e-09
1.10596e-09
1.10457e-09
1.10319e-09
1.1018e-09
1.1004e-09
1.099e-09
1.09759e-09
1.09617e-09
1.09475e-09
1.09331e-09
1.09185e-09
1.09037e-09
1.08887e-09
1.08735e-09
1.08581e-09
1.08424e-09
1.08265e-09
1.08105e-09
1.07943e-09
1.07781e-09
1.07617e-09
1.07454e-09
1.07291e-09
1.0713e-09
1.0697e-09
1.06813e-09
1.06659e-09
1.06508e-09
1.06362e-09
1.0622e-09
1.06083e-09
1.0595e-09
1.05821e-09
1.05696e-09
1.05573e-09
1.05453e-09
1.05335e-09
1.05216e-09
1.05097e-09
1.04977e-09
1.04855e-09
1.0473e-09
1.04603e-09
1.04472e-09
1.04339e-09
1.04202e-09
1.04062e-09
1.0392e-09
1.03775e-09
1.03628e-09
1.03479e-09
1.03329e-09
1.03178e-09
1.03026e-09
1.02873e-09
1.0272e-09
1.02567e-09
1.02414e-09
1.02261e-09
1.02108e-09
1.01955e-09
1.01802e-09
1.01649e-09
1.01496e-09
1.01343e-09
1.0119e-09
1.01038e-09
1.00885e-09
1.00732e-09
1.00578e-09
1.00425e-09
1.00271e-09
1.00117e-09
9.99624e-10
9.98077e-10
9.96526e-10
9.94972e-10
9.93415e-10
9.91853e-10
9.90288e-10
9.88718e-10
9.87145e-10
9.85568e-10
9.83987e-10
9.82402e-10
9.80812e-10
9.79219e-10
9.77621e-10
9.76018e-10
9.74411e-10
9.728e-10
9.71184e-10
9.69563e-10
9.67938e-10
9.66307e-10
9.64672e-10
9.63031e-10
9.61386e-10
9.59735e-10
9.58079e-10
9.56417e-10
9.5475e-10
9.53078e-10
9.514e-10
9.49716e-10
9.48027e-10
9.46333e-10
9.44633e-10
9.42927e-10
9.41216e-10
9.395e-10
9.37778e-10
9.36051e-10
9.34318e-10
9.3258e-10
9.30837e-10
9.29089e-10
9.27335e-10
9.25576e-10
9.23812e-10
9.22042e-10
9.20267e-10
9.18487e-10
9.16701e-10
9.1491e-10
9.13113e-10
9.1131e-10
9.09502e-10
9.07688e-10
9.05868e-10
9.04042e-10
9.0221e-10
9.00371e-10
8.98527e-10
8.96676e-10
8.94819e-10
8.92956e-10
8.91086e-10
8.89209e-10
8.87326e-10
8.85437e-10
8.83541e-10
8.81638e-10
8.79728e-10
8.77811e-10
8.75887e-10
8.73956e-10
8.72018e-10
8.70073e-10
8.6812e-10
8.66159e-10
8.6419e-10
8.62214e-10
8.60229e-10
8.58236e-10
8.56234e-10
8.54223e-10
8.52204e-10
8.50175e-10
8.48137e-10
8.46089e-10
8.4403e-10
8.41961e-10
8.39881e-10
8.37789e-10
8.35685e-10
8.33569e-10
8.31439e-10
8.29296e-10
8.27139e-10
8.24967e-10
8.2278e-10
8.20579e-10
8.18362e-10
8.1613e-10
8.13882e-10
8.1162e-10
8.09343e-10
8.07052e-10
8.04747e-10
8.02429e-10
8.00099e-10
7.97758e-10
7.95406e-10
7.93045e-10
7.90676e-10
7.883e-10
7.85918e-10
7.83531e-10
7.8114e-10
7.78746e-10
7.76351e-10
7.73954e-10
7.71556e-10
7.69157e-10
7.66757e-10
7.64356e-10
7.61953e-10
7.59546e-10
7.57135e-10
7.54719e-10
7.52295e-10
7.49862e-10
7.47417e-10
7.44959e-10
7.42485e-10
7.39994e-10
7.37483e-10
7.3495e-10
7.32395e-10
7.29816e-10
7.27212e-10
7.24581e-10
7.21924e-10
7.19239e-10
7.16528e-10
7.1379e-10
7.11027e-10
7.08239e-10
7.05428e-10
7.02597e-10
6.99746e-10
6.9688e-10
6.94002e-10
6.91119e-10
6.88236e-10
6.85361e-10
6.82502e-10
6.7967e-10
6.76877e-10
6.74138e-10
6.71468e-10
6.68885e-10
6.66405e-10
6.64045e-10
6.61821e-10
6.59746e-10
6.57831e-10
6.56077e-10
6.54476e-10
6.53001e-10
6.51601e-10
6.50182e-10
6.48576e-10
6.46492e-10
6.43422e-10
6.38503e-10
6.30302e-10
6.16586e-10
5.94268e-10
5.60037e-10
5.12356e-10
4.54444e-10
3.95144e-10
3.44607e-10
3.08199e-10
2.85192e-10
2.71888e-10
2.646e-10
2.60729e-10
2.58707e-10
2.57662e-10
2.57125e-10
2.56851e-10
2.56712e-10
2.56643e-10
2.56609e-10
2.56594e-10
2.56588e-10
2.56587e-10
2.56589e-10
2.56592e-10
2.56595e-10
2.56599e-10
2.56603e-10
2.56607e-10
2.56611e-10
2.56615e-10
2.56618e-10
2.56622e-10
2.56626e-10
2.56629e-10
2.56633e-10
2.56636e-10
2.56639e-10
2.56642e-10
2.56645e-10
2.56648e-10
2.56651e-10
2.56653e-10
2.56656e-10
2.56658e-10
2.5666e-10
2.56662e-10
2.56664e-10
2.56666e-10
2.56668e-10
2.56669e-10
2.5667e-10
2.56671e-10
2.56672e-10
2.56673e-10
2.56673e-10
2.56674e-10
2.56674e-10
2.56674e-10
2.56674e-10
2.56674e-10
2.56674e-10
2.56674e-10
2.56673e-10
2.56672e-10
2.56671e-10
2.5667e-10
2.56669e-10
2.56667e-10
2.56666e-10
2.56664e-10
2.56663e-10
2.56661e-10
2.56659e-10
2.56657e-10
2.56654e-10
2.56652e-10
2.56649e-10
2.56647e-10
2.56644e-10
2.56641e-10
2.56638e-10
2.56635e-10
2.56632e-10
2.56629e-10
2.56626e-10
2.56622e-10
2.56619e-10
2.56615e-10
2.56611e-10
2.56608e-10
2.56604e-10
2.566e-10
2.56596e-10
2.56592e-10
2.56588e-10
2.56583e-10
2.56579e-10
2.56575e-10
2.5657e-10
2.56565e-10
2.5656e-10
2.56555e-10
2.5655e-10
2.56544e-10
2.56538e-10
2.56532e-10
2.56526e-10
2.56519e-10
2.56512e-10
2.56505e-10
2.56497e-10
2.56489e-10
2.5648e-10
2.56471e-10
2.56461e-10
2.5645e-10
2.56439e-10
2.56427e-10
2.56415e-10
2.56401e-10
2.56387e-10
2.56372e-10
2.56357e-10
2.5634e-10
2.56323e-10
2.56305e-10
2.56286e-10
2.56267e-10
2.56247e-10
2.56227e-10
2.56206e-10
2.56184e-10
2.56163e-10
2.56141e-10
2.5612e-10
2.56099e-10
2.56077e-10
2.56057e-10
2.56037e-10
2.56018e-10
2.56e-10
2.55983e-10
2.55968e-10
2.55954e-10
2.55942e-10
2.55932e-10
2.55924e-10
2.55919e-10
2.55915e-10
2.55914e-10
2.55913e-10
2.55914e-10
2.55916e-10
2.55923e-10
2.55933e-10
2.55946e-10
2.5596e-10
2.55976e-10
2.55994e-10
2.56013e-10
2.56033e-10
2.56054e-10
2.56076e-10
2.56099e-10
2.56122e-10
2.56144e-10
2.56167e-10
2.56189e-10
2.56211e-10
2.56231e-10
2.56251e-10
2.5627e-10
2.56287e-10
2.56304e-10
2.56319e-10
2.56333e-10
2.56346e-10
2.56357e-10
2.56368e-10
2.56377e-10
2.56385e-10
2.56392e-10
2.56398e-10
2.56403e-10
2.56408e-10
2.56411e-10
2.56415e-10
2.56417e-10
2.5642e-10
2.56422e-10
2.56424e-10
2.56426e-10
2.56427e-10
2.56429e-10
2.5643e-10
2.56432e-10
2.56434e-10
2.56436e-10
2.56438e-10
2.5644e-10
2.56442e-10
2.56445e-10
2.56448e-10
2.56451e-10
2.56454e-10
2.56457e-10
2.56461e-10
2.56465e-10
2.56469e-10
2.56473e-10
2.56477e-10
2.56481e-10
2.56486e-10
2.5649e-10
2.56495e-10
2.56499e-10
2.56504e-10
2.56509e-10
2.56514e-10
2.56519e-10
2.56523e-10
2.56528e-10
2.56533e-10
2.56538e-10
2.56542e-10
2.56547e-10
2.56552e-10
2.56556e-10
2.56561e-10
2.56565e-10
2.56569e-10
2.56574e-10
2.56578e-10
2.56582e-10
2.56586e-10
2.5659e-10
2.56594e-10
2.56598e-10
2.56602e-10
2.56606e-10
2.56609e-10
2.56613e-10
2.56616e-10
2.5662e-10
2.56623e-10
2.56627e-10
2.5663e-10
2.56633e-10
2.56637e-10
2.5664e-10
2.56643e-10
2.56646e-10
2.56648e-10
2.56651e-10
2.56654e-10
2.56656e-10
2.56658e-10
2.5666e-10
2.56662e-10
2.56663e-10
2.56665e-10
2.56666e-10
2.56666e-10
2.56667e-10
2.56667e-10
2.56667e-10
2.56668e-10
2.56667e-10
2.56666e-10
2.56665e-10
2.56664e-10
2.56663e-10
2.56661e-10
2.56659e-10
2.56657e-10
2.56655e-10
2.56653e-10
2.5665e-10
2.56648e-10
2.56645e-10
2.56642e-10
2.56639e-10
2.56636e-10
2.56633e-10
2.5663e-10
2.56626e-10
2.56623e-10
2.56619e-10
2.56616e-10
2.56612e-10
2.56608e-10
2.56605e-10
2.56601e-10
2.56597e-10
2.56593e-10
2.56589e-10
2.56585e-10
2.56581e-10
2.56577e-10
2.56573e-10
2.56569e-10
2.56564e-10
2.5656e-10
2.56555e-10
2.56551e-10
2.56546e-10
2.56541e-10
2.56536e-10
2.56531e-10
2.56526e-10
2.5652e-10
2.56515e-10
2.56509e-10
2.56503e-10
2.56496e-10
2.5649e-10
2.56483e-10
2.56475e-10
2.56468e-10
2.5646e-10
2.56451e-10
2.56442e-10
2.56433e-10
2.56423e-10
2.56412e-10
2.56401e-10
2.5639e-10
2.56378e-10
2.56365e-10
2.56352e-10
2.56338e-10
2.56324e-10
2.56309e-10
2.56294e-10
2.56278e-10
2.56262e-10
2.56245e-10
2.56228e-10
2.56211e-10
2.56194e-10
2.56176e-10
2.56159e-10
2.56141e-10
2.56124e-10
2.56106e-10
2.5609e-10
2.56073e-10
2.56058e-10
2.56043e-10
2.56029e-10
2.56015e-10
2.56003e-10
2.55992e-10
2.55983e-10
2.55975e-10
2.55968e-10
2.55963e-10
2.5596e-10
2.55958e-10
2.55957e-10
2.55957e-10
2.55958e-10
2.55962e-10
2.55968e-10
2.55977e-10
2.55987e-10
2.55998e-10
2.56011e-10
2.56026e-10
2.56041e-10
2.56057e-10
2.56075e-10
2.56092e-10
2.56111e-10
2.56129e-10
2.56148e-10
2.56166e-10
2.56185e-10
2.56203e-10
2.5622e-10
2.56238e-10
2.56254e-10
2.5627e-10
2.56284e-10
2.56298e-10
2.56311e-10
2.56324e-10
2.56335e-10
2.56345e-10
2.56354e-10
2.56363e-10
2.56371e-10
2.56377e-10
2.56384e-10
2.56389e-10
2.56394e-10
2.56398e-10
2.56402e-10
2.56405e-10
2.56408e-10
2.56411e-10
2.56414e-10
2.56416e-10
2.56418e-10
2.5642e-10
2.56422e-10
2.56424e-10
2.56426e-10
2.56428e-10
2.5643e-10
2.56433e-10
2.56435e-10
2.56438e-10
2.5644e-10
2.56443e-10
2.56446e-10
2.5645e-10
2.56453e-10
2.56456e-10
2.5646e-10
2.56464e-10
2.56468e-10
2.56472e-10
2.56476e-10
2.5648e-10
2.56485e-10
2.56489e-10
2.56494e-10
2.56498e-10
2.56503e-10
2.56507e-10
2.56512e-10
2.56517e-10
2.56521e-10
2.56525e-10
2.5653e-10
2.56534e-10
2.56539e-10
2.56543e-10
2.56547e-10
2.56551e-10
2.56555e-10
2.56559e-10
2.56563e-10
2.56567e-10
2.56571e-10
2.56574e-10
2.56578e-10
2.56581e-10
2.56585e-10
2.56588e-10
2.56591e-10
2.56594e-10
2.56597e-10
2.566e-10
2.56603e-10
2.56605e-10
2.56608e-10
2.5661e-10
2.56613e-10
2.56615e-10
2.56617e-10
2.56619e-10
2.56621e-10
2.56622e-10
2.56624e-10
2.56625e-10
2.56627e-10
2.56628e-10
2.56629e-10
2.5663e-10
2.56631e-10
2.56632e-10
2.56632e-10
2.56632e-10
2.56633e-10
2.56633e-10
2.56633e-10
2.56633e-10
2.56633e-10
2.56632e-10
2.56631e-10
2.56631e-10
2.5663e-10
2.56628e-10
2.56627e-10
2.56626e-10
2.56624e-10
2.56623e-10
2.56621e-10
2.56619e-10
2.56617e-10
2.56615e-10
2.56612e-10
2.5661e-10
2.56607e-10
2.56605e-10
2.56602e-10
2.56599e-10
2.56596e-10
2.56593e-10
2.5659e-10
2.56586e-10
2.56583e-10
2.5658e-10
2.56576e-10
2.56572e-10
2.56569e-10
2.56565e-10
2.56561e-10
2.56557e-10
2.56553e-10
2.56549e-10
2.56545e-10
2.5654e-10
2.56536e-10
2.56531e-10
2.56526e-10
2.56521e-10
2.56516e-10
2.56511e-10
2.56505e-10
2.565e-10
2.56494e-10
2.56487e-10
2.56481e-10
2.56474e-10
2.56467e-10
2.5646e-10
2.56452e-10
2.56444e-10
2.56435e-10
2.56426e-10
2.56417e-10
2.56407e-10
2.56397e-10
2.56386e-10
2.56375e-10
2.56364e-10
2.56352e-10
2.5634e-10
2.56327e-10
2.56314e-10
2.56301e-10
2.56287e-10
2.56273e-10
2.56259e-10
2.56245e-10
2.5623e-10
2.56216e-10
2.56201e-10
2.56186e-10
2.56172e-10
2.56158e-10
2.56144e-10
2.5613e-10
2.56117e-10
2.56104e-10
2.56092e-10
2.5608e-10
2.5607e-10
2.5606e-10
2.56051e-10
2.56043e-10
2.56037e-10
2.56031e-10
2.56027e-10
2.56024e-10
2.56022e-10
2.56021e-10
2.56021e-10
2.56021e-10
2.56023e-10
2.56028e-10
2.56034e-10
2.56041e-10
2.5605e-10
2.5606e-10
2.56071e-10
2.56082e-10
2.56095e-10
2.56108e-10
2.56122e-10
2.56137e-10
2.56152e-10
2.56167e-10
2.56182e-10
2.56197e-10
2.56213e-10
2.56228e-10
2.56242e-10
2.56257e-10
2.5627e-10
2.56284e-10
2.56296e-10
2.56309e-10
2.5632e-10
2.56331e-10
2.56341e-10
2.5635e-10
2.56359e-10
2.56367e-10
2.56374e-10
2.56381e-10
2.56387e-10
2.56392e-10
2.56397e-10
2.56402e-10
2.56406e-10
2.56409e-10
2.56413e-10
2.56415e-10
2.56418e-10
2.56421e-10
2.56423e-10
2.56425e-10
2.56427e-10
2.56429e-10
2.56431e-10
2.56433e-10
2.56435e-10
2.56437e-10
2.56439e-10
2.56442e-10
2.56444e-10
2.56446e-10
2.56449e-10
2.56452e-10
2.56455e-10
2.56458e-10
2.56461e-10
2.56465e-10
2.56469e-10
2.56472e-10
2.56476e-10
2.5648e-10
2.56484e-10
2.56488e-10
2.56493e-10
2.56497e-10
2.56502e-10
2.56506e-10
2.56511e-10
2.56515e-10
2.5652e-10
2.56525e-10
2.56529e-10
2.56534e-10
2.56539e-10
2.56543e-10
2.56548e-10
2.56552e-10
2.56557e-10
2.56561e-10
2.56565e-10
2.5657e-10
2.56574e-10
2.56578e-10
2.56582e-10
2.56586e-10
)
;

boundaryField
{
    inlet
    {
        type            calculated;
        value           uniform -1.13622e-09;
    }
    outlet
    {
        type            calculated;
        value           uniform 2.5659e-10;
    }
    emptyWalls
    {
        type            empty;
        value           nonuniform List<scalar> 0();
    }
}


// ************************************************************************* //
