/*--------------------------------*- C++ -*----------------------------------*\
  =========                 |
  \\      /  F ield         | OpenFOAM: The Open Source CFD Toolbox
   \\    /   O peration     | Website:  https://openfoam.org
    \\  /    A nd           | Version:  9
     \\/     M anipulation  |
\*---------------------------------------------------------------------------*/
FoamFile
{
    format      ascii;
    class       volScalarField;
    location    "8550";
    object      Sb;
}
// * * * * * * * * * * * * * * * * * * * * * * * * * * * * * * * * * * * * * //

dimensions      [0 0 0 0 0 0 0];

internalField   nonuniform List<scalar> 
1000
(
0.350714
0.352212
0.354274
0.355787
0.357821
0.35908
0.360841
0.361865
0.363475
0.366339
0.3763
0.430452
0.608929
0.656464
0.668399
0.673563
0.676549
0.678519
0.679911
0.680903
0.681624
0.682129
0.682482
0.682702
0.682833
0.682851
0.682776
0.682571
0.682213
0.681658
0.680812
0.679556
0.6778
0.675618
0.673219
0.670711
0.668152
0.665577
0.663006
0.660451
0.657921
0.655421
0.652952
0.650517
0.648117
0.645752
0.643422
0.641126
0.638863
0.636634
0.634438
0.632273
0.63014
0.628036
0.625962
0.623917
0.6219
0.61991
0.617947
0.616009
0.614097
0.612209
0.610346
0.608505
0.606687
0.604891
0.603117
0.601364
0.599631
0.597918
0.596224
0.59455
0.592894
0.591256
0.589636
0.588033
0.586447
0.584877
0.583323
0.581786
0.580263
0.578756
0.577263
0.575785
0.574321
0.57287
0.571434
0.57001
0.568599
0.567201
0.565815
0.564441
0.563079
0.561728
0.560388
0.55906
0.557742
0.556435
0.555138
0.553852
0.552575
0.551307
0.550048
0.548798
0.547556
0.546322
0.545096
0.543879
0.542669
0.541467
0.540273
0.539087
0.537909
0.53674
0.535579
0.534427
0.533283
0.532149
0.531024
0.529908
0.528802
0.527705
0.526617
0.525538
0.524468
0.523407
0.522353
0.521306
0.520267
0.519233
0.518205
0.517181
0.516163
0.515149
0.514139
0.513133
0.512131
0.511133
0.510139
0.509149
0.508163
0.507181
0.506203
0.50523
0.504261
0.503297
0.502337
0.501381
0.500431
0.499484
0.498543
0.497605
0.496673
0.495744
0.49482
0.4939
0.492983
0.492071
0.491163
0.490259
0.489359
0.488462
0.487568
0.486679
0.485793
0.48491
0.48403
0.483154
0.482282
0.481412
0.480545
0.479682
0.478821
0.477964
0.477109
0.476258
0.475409
0.474563
0.473719
0.472879
0.472041
0.471205
0.470373
0.469542
0.468714
0.467889
0.467066
0.466245
0.465426
0.46461
0.463796
0.462984
0.462174
0.461366
0.46056
0.459756
0.458954
0.458154
0.457356
0.45656
0.455766
0.454973
0.454182
0.453393
0.452605
0.451819
0.451035
0.450252
0.449471
0.448691
0.447913
0.447136
0.446361
0.445586
0.444814
0.444042
0.443272
0.442503
0.441735
0.440969
0.440203
0.439438
0.438675
0.437912
0.437151
0.43639
0.435631
0.434872
0.434114
0.433356
0.4326
0.431844
0.431089
0.430334
0.42958
0.428827
0.428074
0.427321
0.426569
0.425818
0.425067
0.424316
0.423565
0.422815
0.422065
0.421315
0.420565
0.419815
0.419065
0.418316
0.417566
0.416816
0.416066
0.415315
0.414564
0.413813
0.413062
0.41231
0.411557
0.410804
0.410051
0.409296
0.408541
0.407785
0.407028
0.40627
0.405511
0.404751
0.40399
0.403228
0.402465
0.401701
0.400936
0.400169
0.399401
0.398633
0.397863
0.397091
0.396319
0.395545
0.394771
0.393994
0.393217
0.392438
0.391659
0.390877
0.390095
0.38931
0.388524
0.387737
0.386947
0.386156
0.385362
0.384566
0.383768
0.382967
0.382164
0.381358
0.380548
0.379735
0.37892
0.3781
0.377278
0.376452
0.375622
0.374788
0.373951
0.373111
0.372267
0.37142
0.37057
0.369718
0.368864
0.368009
0.367153
0.366299
0.365446
0.364598
0.363756
0.362924
0.362103
0.361297
0.360512
0.359751
0.359019
0.358321
0.357662
0.357044
0.356472
0.355947
0.355469
0.355032
0.354626
0.354232
0.353816
0.353317
0.35263
0.351575
0.34985
0.346966
0.342203
0.334668
0.323633
0.309237
0.29312
0.277996
0.266094
0.258036
0.253155
0.250403
0.248917
0.248134
0.247727
0.247516
0.247408
0.247352
0.247323
0.247309
0.247301
0.247298
0.247296
0.247295
0.247294
0.247294
0.247294
0.247295
0.247295
0.247295
0.247295
0.247295
0.247295
0.247295
0.247296
0.247296
0.247296
0.247296
0.247296
0.247296
0.247296
0.247296
0.247296
0.247297
0.247297
0.247297
0.247297
0.247297
0.247297
0.247297
0.247297
0.247297
0.247297
0.247297
0.247297
0.247297
0.247297
0.247297
0.247297
0.247297
0.247297
0.247297
0.247297
0.247297
0.247297
0.247297
0.247297
0.247297
0.247297
0.247297
0.247297
0.247297
0.247296
0.247296
0.247296
0.247296
0.247296
0.247295
0.247295
0.247295
0.247295
0.247294
0.247294
0.247294
0.247293
0.247293
0.247293
0.247292
0.247292
0.247292
0.247291
0.247291
0.24729
0.24729
0.24729
0.247289
0.247289
0.247289
0.247288
0.247288
0.247287
0.247287
0.247287
0.247286
0.247286
0.247285
0.247285
0.247284
0.247284
0.247284
0.247283
0.247283
0.247282
0.247282
0.247281
0.247281
0.24728
0.24728
0.247279
0.247279
0.247278
0.247277
0.247277
0.247276
0.247275
0.247275
0.247274
0.247273
0.247272
0.247271
0.247271
0.24727
0.247269
0.247268
0.247267
0.247266
0.247266
0.247265
0.247264
0.247263
0.247262
0.247262
0.247261
0.24726
0.24726
0.247259
0.247259
0.247259
0.247258
0.247258
0.247258
0.247258
0.247258
0.247258
0.247259
0.247259
0.247259
0.24726
0.247261
0.247261
0.247262
0.247263
0.247264
0.247265
0.247266
0.247267
0.247267
0.247268
0.247269
0.24727
0.247271
0.247272
0.247273
0.247273
0.247274
0.247275
0.247275
0.247276
0.247276
0.247277
0.247277
0.247278
0.247278
0.247278
0.247279
0.247279
0.247279
0.247279
0.247279
0.247279
0.247279
0.24728
0.24728
0.24728
0.24728
0.24728
0.24728
0.24728
0.24728
0.24728
0.24728
0.24728
0.24728
0.24728
0.247281
0.247281
0.247281
0.247281
0.247281
0.247281
0.247281
0.247281
0.247282
0.247282
0.247282
0.247282
0.247282
0.247283
0.247283
0.247283
0.247283
0.247283
0.247283
0.247284
0.247284
0.247284
0.247284
0.247284
0.247284
0.247284
0.247285
0.247285
0.247285
0.247285
0.247285
0.247285
0.247285
0.247285
0.247286
0.247286
0.247286
0.247286
0.247286
0.247286
0.247286
0.247286
0.247286
0.247287
0.247287
0.247287
0.247287
0.247287
0.247288
0.247288
0.247288
0.247288
0.247289
0.247289
0.247289
0.247289
0.24729
0.24729
0.24729
0.24729
0.24729
0.24729
0.24729
0.24729
0.24729
0.24729
0.24729
0.24729
0.24729
0.24729
0.24729
0.24729
0.24729
0.24729
0.24729
0.24729
0.247289
0.247289
0.247289
0.247289
0.247289
0.247289
0.247289
0.247288
0.247288
0.247288
0.247288
0.247288
0.247287
0.247287
0.247287
0.247287
0.247287
0.247287
0.247286
0.247286
0.247286
0.247286
0.247286
0.247285
0.247285
0.247285
0.247285
0.247285
0.247284
0.247284
0.247284
0.247284
0.247284
0.247283
0.247283
0.247283
0.247283
0.247282
0.247282
0.247282
0.247281
0.247281
0.247281
0.24728
0.24728
0.247279
0.247279
0.247279
0.247278
0.247278
0.247277
0.247277
0.247276
0.247275
0.247275
0.247274
0.247274
0.247273
0.247272
0.247272
0.247271
0.24727
0.24727
0.247269
0.247268
0.247268
0.247267
0.247266
0.247266
0.247265
0.247265
0.247264
0.247264
0.247263
0.247263
0.247262
0.247262
0.247262
0.247262
0.247262
0.247262
0.247262
0.247262
0.247262
0.247262
0.247262
0.247262
0.247263
0.247263
0.247264
0.247265
0.247265
0.247266
0.247266
0.247267
0.247268
0.247269
0.247269
0.24727
0.247271
0.247271
0.247272
0.247273
0.247273
0.247274
0.247274
0.247275
0.247275
0.247276
0.247276
0.247277
0.247277
0.247277
0.247278
0.247278
0.247278
0.247278
0.247278
0.247279
0.247279
0.247279
0.247279
0.247279
0.247279
0.247279
0.247279
0.247279
0.24728
0.24728
0.24728
0.24728
0.24728
0.24728
0.24728
0.24728
0.24728
0.24728
0.24728
0.247281
0.247281
0.247281
0.247281
0.247281
0.247281
0.247281
0.247282
0.247282
0.247282
0.247282
0.247282
0.247282
0.247283
0.247283
0.247283
0.247283
0.247283
0.247283
0.247284
0.247284
0.247284
0.247284
0.247284
0.247284
0.247284
0.247285
0.247285
0.247285
0.247285
0.247285
0.247285
0.247286
0.247286
0.247286
0.247286
0.247286
0.247286
0.247286
0.247287
0.247287
0.247287
0.247287
0.247287
0.247287
0.247287
0.247287
0.247288
0.247288
0.247288
0.247288
0.247288
0.247288
0.247288
0.247288
0.247288
0.247288
0.247288
0.247288
0.247288
0.247288
0.247288
0.247288
0.247288
0.247288
0.247288
0.247288
0.247288
0.247288
0.247288
0.247288
0.247288
0.247288
0.247287
0.247287
0.247287
0.247287
0.247287
0.247287
0.247287
0.247287
0.247287
0.247286
0.247286
0.247286
0.247286
0.247286
0.247286
0.247286
0.247286
0.247285
0.247285
0.247285
0.247285
0.247285
0.247285
0.247284
0.247284
0.247284
0.247284
0.247284
0.247284
0.247283
0.247283
0.247283
0.247283
0.247282
0.247282
0.247282
0.247282
0.247281
0.247281
0.247281
0.247281
0.24728
0.24728
0.24728
0.247279
0.247279
0.247278
0.247278
0.247278
0.247277
0.247277
0.247276
0.247276
0.247275
0.247275
0.247274
0.247274
0.247273
0.247273
0.247272
0.247271
0.247271
0.24727
0.24727
0.247269
0.247269
0.247268
0.247268
0.247267
0.247267
0.247266
0.247266
0.247266
0.247265
0.247265
0.247265
0.247265
0.247264
0.247264
0.247264
0.247264
0.247264
0.247264
0.247264
0.247265
0.247265
0.247265
0.247266
0.247266
0.247266
0.247267
0.247267
0.247268
0.247268
0.247269
0.24727
0.24727
0.247271
0.247271
0.247272
0.247272
0.247273
0.247274
0.247274
0.247275
0.247275
0.247275
0.247276
0.247276
0.247277
0.247277
0.247277
0.247278
0.247278
0.247278
0.247278
0.247279
0.247279
0.247279
0.247279
0.247279
0.247279
0.247279
0.24728
0.24728
0.24728
0.24728
0.24728
0.24728
0.24728
0.24728
0.24728
0.24728
0.24728
0.24728
0.247281
0.247281
0.247281
0.247281
0.247281
0.247281
0.247281
0.247281
0.247282
0.247282
0.247282
0.247282
0.247282
0.247282
0.247282
0.247283
0.247283
0.247283
0.247283
0.247283
0.247284
0.247284
0.247284
0.247284
0.247284
0.247284
0.247285
0.247285
0.247285
0.247285
0.247285
0.247285
0.247286
0.247286
0.247286
0.247286
)
;

boundaryField
{
    inlet
    {
        type            fixedValue;
        value           uniform 0.35;
    }
    outlet
    {
        type            zeroGradient;
    }
    emptyWalls
    {
        type            empty;
    }
}


// ************************************************************************* //
