/*--------------------------------*- C++ -*----------------------------------*\
  =========                 |
  \\      /  F ield         | OpenFOAM: The Open Source CFD Toolbox
   \\    /   O peration     | Website:  https://openfoam.org
    \\  /    A nd           | Version:  9
     \\/     M anipulation  |
\*---------------------------------------------------------------------------*/
FoamFile
{
    format      ascii;
    class       volScalarField;
    location    "20900";
    object      p;
}
// * * * * * * * * * * * * * * * * * * * * * * * * * * * * * * * * * * * * * //

dimensions      [0 0 0 0 0 0 0];

internalField   nonuniform List<scalar> 
1000
(
187077
186652
186229
185808
185389
184973
184559
184147
183738
183331
182926
182523
182123
181725
181330
180936
180545
180155
179768
179382
178997
178614
178232
177851
177472
177093
176715
176343
175987
175688
175548
175451
175363
175276
175191
175106
175022
174938
174855
174771
174688
174606
174523
174440
174358
174276
174193
174111
174029
173947
173865
173784
173702
173620
173538
173457
173375
173293
173212
173130
173049
172967
172885
172804
172722
172640
172559
172477
172395
172314
172232
172150
172068
171986
171904
171822
171740
171657
171575
171492
171410
171327
171243
171160
171076
170992
170908
170824
170739
170654
170568
170483
170397
170311
170224
170138
170050
169963
169876
169788
169699
169611
169522
169433
169343
169254
169164
169073
168983
168892
168800
168709
168617
168525
168432
168339
168246
168153
168059
167966
167871
167777
167682
167587
167492
167396
167300
167204
167108
167011
166914
166817
166719
166622
166523
166425
166327
166228
166128
166029
165929
165829
165729
165629
165528
165427
165325
165224
165122
165020
164918
164815
164712
164609
164505
164402
164298
164193
164089
163984
163879
163774
163669
163563
163457
163351
163244
163137
163030
162923
162815
162708
162600
162491
162383
162274
162165
162056
161946
161836
161726
161616
161505
161395
161284
161172
161061
160949
160837
160725
160612
160500
160387
160274
160160
160046
159933
159818
159704
159589
159475
159359
159244
159129
159013
158897
158780
158664
158547
158430
158313
158196
158078
157960
157842
157724
157605
157487
157368
157248
157129
157009
156890
156770
156649
156529
156408
156287
156166
156045
155923
155801
155679
155556
155434
155311
155188
155065
154941
154817
154693
154569
154444
154320
154195
154069
153944
153818
153693
153566
153440
153314
153187
153060
152933
152805
152677
152550
152421
152293
152165
152036
151907
151778
151648
151519
151389
151259
151128
150998
150867
150736
150605
150473
150342
150210
150078
149946
149813
149680
149547
149414
149281
149147
149014
148880
148745
148611
148476
148341
148206
148071
147936
147800
147664
147528
147391
147255
147118
146981
146844
146706
146569
146431
146293
146155
146016
145877
145739
145599
145460
145321
145181
145041
144901
144760
144620
144479
144338
144197
144056
143914
143772
143630
143488
143346
143203
143060
142917
142774
142631
142487
142343
142199
142055
141910
141766
141621
141476
141331
141185
141040
140894
140748
140601
140455
140308
140161
140014
139867
139720
139572
139424
139276
139128
138980
138831
138682
138533
138384
138235
138085
137936
137786
137636
137486
137335
137184
137034
136883
136731
136580
136428
136276
136124
135972
135820
135667
135514
135361
135208
135054
134901
134747
134593
134438
134284
134129
133974
133819
133664
133508
133352
133196
133040
132884
132727
132571
132414
132257
132099
131942
131784
131626
131468
131309
131151
130992
130833
130674
130515
130355
130196
130036
129876
129715
129555
129394
129233
129072
128911
128749
128588
128426
128264
128102
127939
127777
127614
127451
127287
127124
126960
126797
126633
126468
126304
126139
125975
125810
125644
125479
125314
125148
124982
124816
124649
124483
124316
124149
123982
123815
123647
123480
123312
123144
122976
122807
122638
122470
122301
122131
121962
121792
121623
121453
121283
121112
120942
120771
120600
120429
120258
120086
119914
119743
119571
119398
119226
119053
118881
118708
118534
118361
118187
118014
117840
117666
117491
117317
117142
116967
116792
116617
116442
116266
116090
115914
115738
115562
115385
115208
115032
114854
114677
114500
114322
114144
113966
113788
113610
113431
113253
113074
112895
112715
112536
112356
112177
111997
111817
111636
111456
111275
111094
110913
110732
110551
110369
110187
110006
109823
109641
109459
109276
109093
108910
108727
108543
108360
108176
107992
107808
107623
107439
107254
107069
106884
106698
106513
106327
106141
105955
105768
105582
105395
105208
105021
104834
104646
104458
104270
104082
103894
103705
103517
103328
103139
102949
102760
102570
102380
102190
102000
101810
101619
101428
101237
101046
100855
100663
100472
100280
100088
99895.3
99702.8
99510.1
99317.2
99124.2
98930.9
98737.5
98543.8
98350
98156
97961.8
97767.3
97572.8
97378
97183
96987.8
96792.5
96596.9
96401.2
96205.2
96009.1
95812.8
95616.3
95419.6
95222.7
95025.6
94828.4
94630.9
94433.3
94235.4
94037.4
93839.2
93640.7
93442.1
93243.3
93044.4
92845.2
92645.8
92446.3
92246.5
92046.6
91846.4
91646.1
91445.6
91244.9
91044
90842.9
90641.7
90440.2
90238.5
90036.7
89834.7
89632.4
89430
89227.4
89024.6
88821.6
88618.4
88415.1
88211.5
88007.8
87803.8
87599.7
87395.4
87190.8
86986.1
86781.2
86576.1
86370.9
86165.4
85959.7
85753.9
85547.8
85341.6
85135.2
84928.6
84721.7
84514.7
84307.6
84100.2
83892.6
83684.8
83476.9
83268.7
83060.4
82851.9
82643.2
82434.3
82225.2
82015.9
81806.4
81596.7
81386.9
81176.8
80966.6
80756.2
80545.6
80334.8
80123.9
79912.7
79701.3
79489.8
79278.1
79066.2
78854.1
78641.8
78429.4
78216.7
78003.9
77790.9
77577.7
77364.3
77150.7
76936.9
76723
76508.8
76294.5
76079.9
75865.2
75650.3
75435.1
75219.8
75004.3
74788.6
74572.7
74356.5
74140.2
73923.7
73707
73490
73272.9
73055.5
72837.9
72620.2
72402.2
72184
71965.6
71746.9
71528.1
71309
71089.8
70870.3
70650.6
70430.7
70210.5
69990.2
69769.6
69548.9
69327.9
69106.7
68885.2
68663.6
68441.8
68219.7
67997.4
67774.9
67552.2
67329.3
67106.2
66882.8
66659.3
66435.5
66211.5
65987.3
65762.9
65538.3
65313.4
65088.4
64863.1
64637.6
64411.9
64185.9
63959.8
63733.4
63506.8
63280.1
63053
62825.8
62598.3
62370.7
62142.8
61914.7
61686.3
61457.8
61229
61000
60770.8
60541.4
60311.7
60081.8
59851.7
59621.4
59390.9
59160.1
58929.1
58697.9
58466.5
58234.8
58003
57770.9
57538.6
57306.1
57073.3
56840.4
56607.2
56373.8
56140.2
55906.4
55672.4
55438.2
55203.8
54969.2
54734.4
54499.5
54264.3
54029
53793.5
53557.9
53322.1
53086.2
52850.1
52613.9
52377.6
52141.2
51904.6
51668
51431.3
51194.5
50957.7
50720.8
50483.9
50246.9
50009.9
49772.8
49535.7
49298.6
49061.4
48824.3
48587.1
48350
48112.8
47875.6
47638.4
47401.2
47163.9
46926.7
46689.3
46451.9
46214.4
45976.5
45738.2
45498.9
45258.2
45014.9
44767.8
44515.2
44256.2
43990.6
43719.8
43445.6
43169.5
42892.6
42615.2
42337.6
42060
41782.2
41504.5
41226.7
40949
40671.2
40393.4
40115.7
39837.9
39560.2
39282.5
39004.7
38727
38449.3
38171.6
37893.9
37616.2
37338.5
37060.8
36783.2
36505.5
36227.9
35950.3
35672.6
35395
35117.4
34839.8
34562.3
34284.7
34007.1
33729.6
33452.1
33174.5
32897
32619.5
32342.1
32064.6
31787.1
31509.7
31232.2
30954.8
30677.4
30400
30122.6
29845.2
29567.8
29290.4
29013
28735.7
28458.3
28180.9
27903.6
27626.2
27348.8
27071.5
26794.1
26516.7
26239.4
25962
25684.6
25407.2
25129.8
24852.4
24575
24297.6
24020.2
23742.7
23465.3
23187.8
22910.4
22632.9
22355.4
22077.9
21800.4
21522.9
21245.4
20967.9
20690.3
20412.8
20135.2
19857.6
19580.1
19302.5
19024.9
18747.3
18469.7
18192
17914.4
17636.8
17359.2
17081.5
16803.9
16526.2
16248.5
15970.9
15693.2
15415.5
15137.9
14860.2
14582.5
14304.8
14027.1
13749.4
13471.7
13194
12916.3
12638.6
12360.9
12083.2
11805.5
11527.7
11250
10972.3
10694.6
10416.8
10139.1
9861.36
9583.62
9305.87
9028.13
8750.38
8472.63
8194.87
7917.12
7639.36
7361.6
7083.83
6806.06
6528.29
6250.52
5972.74
5694.96
5417.18
5139.4
4861.61
4583.83
4306.03
4028.24
3750.44
3472.65
3194.85
2917.04
2639.24
2361.43
2083.62
1805.81
1528
1250.19
972.369
694.552
416.732
138.911
)
;

boundaryField
{
    inlet
    {
        type            darcyGradPressure;
        gradient        uniform 116344;
        Mf              Mf;
        phi             phi;
        value           uniform 187290;
    }
    outlet
    {
        type            fixedValue;
        value           uniform 0;
    }
    emptyWalls
    {
        type            empty;
    }
}


// ************************************************************************* //
