/*--------------------------------*- C++ -*----------------------------------*\
  =========                 |
  \\      /  F ield         | OpenFOAM: The Open Source CFD Toolbox
   \\    /   O peration     | Website:  https://openfoam.org
    \\  /    A nd           | Version:  9
     \\/     M anipulation  |
\*---------------------------------------------------------------------------*/
FoamFile
{
    format      ascii;
    class       volScalarField;
    location    "20900";
    object      Sb;
}
// * * * * * * * * * * * * * * * * * * * * * * * * * * * * * * * * * * * * * //

dimensions      [0 0 0 0 0 0 0];

internalField   nonuniform List<scalar> 
1000
(
0.350253
0.35078
0.351471
0.35216
0.352858
0.353549
0.354253
0.354973
0.355679
0.356435
0.357132
0.357927
0.358599
0.359415
0.360063
0.360841
0.361473
0.36215
0.362736
0.363298
0.363792
0.364246
0.364636
0.36499
0.365309
0.365682
0.366444
0.369027
0.379551
0.449619
0.615772
0.653412
0.663555
0.668044
0.670718
0.672605
0.674064
0.675259
0.676266
0.677136
0.677892
0.678559
0.679147
0.679669
0.680131
0.680542
0.680905
0.681228
0.681513
0.681764
0.681983
0.682176
0.682341
0.682484
0.682603
0.682703
0.682781
0.682843
0.682884
0.682909
0.682916
0.682907
0.68288
0.682835
0.682773
0.682694
0.682597
0.682481
0.682347
0.682192
0.682016
0.681816
0.681592
0.68134
0.681056
0.680733
0.680362
0.679931
0.679424
0.678823
0.678114
0.677293
0.676372
0.675381
0.674345
0.673278
0.672189
0.671085
0.669972
0.668856
0.667739
0.666625
0.665515
0.66441
0.663311
0.662219
0.661136
0.660061
0.658996
0.657942
0.656899
0.655867
0.654845
0.653834
0.652831
0.651837
0.65085
0.64987
0.648894
0.647924
0.646957
0.645995
0.645037
0.644083
0.643133
0.642187
0.641246
0.64031
0.639379
0.638453
0.637533
0.636619
0.63571
0.634807
0.633911
0.63302
0.632135
0.631256
0.630382
0.629514
0.628652
0.627795
0.626943
0.626096
0.625254
0.624418
0.623586
0.622759
0.621936
0.621119
0.620305
0.619497
0.618693
0.617893
0.617098
0.616306
0.61552
0.614737
0.613959
0.613184
0.612414
0.611648
0.610885
0.610127
0.609372
0.608622
0.607875
0.607132
0.606392
0.605656
0.604924
0.604195
0.60347
0.602749
0.602031
0.601316
0.600605
0.599897
0.599192
0.598491
0.597792
0.597097
0.596406
0.595717
0.595031
0.594349
0.593669
0.592993
0.59232
0.591649
0.590982
0.590318
0.589656
0.588998
0.588342
0.587689
0.587039
0.586392
0.585747
0.585105
0.584466
0.583829
0.583195
0.582564
0.581935
0.581309
0.580686
0.580065
0.579447
0.578831
0.578218
0.577606
0.576997
0.57639
0.575784
0.57518
0.574578
0.573977
0.573377
0.572779
0.572182
0.571587
0.570994
0.570402
0.569812
0.569224
0.568638
0.568055
0.567474
0.566895
0.56632
0.565747
0.565178
0.564612
0.56405
0.563492
0.562937
0.562385
0.561837
0.561293
0.560751
0.560213
0.559677
0.559144
0.558613
0.558084
0.557557
0.557031
0.556506
0.555983
0.555461
0.554939
0.554419
0.553899
0.553381
0.552863
0.552346
0.551831
0.551316
0.550803
0.550292
0.549781
0.549272
0.548765
0.548259
0.547754
0.547251
0.54675
0.54625
0.545752
0.545256
0.544761
0.544267
0.543776
0.543285
0.542797
0.542309
0.541824
0.54134
0.540857
0.540375
0.539895
0.539417
0.538939
0.538463
0.537989
0.537516
0.537044
0.536573
0.536103
0.535635
0.535168
0.534703
0.534238
0.533775
0.533313
0.532852
0.532392
0.531934
0.531477
0.531021
0.530566
0.530112
0.529659
0.529208
0.528757
0.528308
0.527859
0.527412
0.526966
0.526521
0.526077
0.525634
0.525193
0.524752
0.524312
0.523873
0.523436
0.522999
0.522563
0.522129
0.521695
0.521262
0.520831
0.5204
0.51997
0.519542
0.519114
0.518687
0.518261
0.517836
0.517412
0.516989
0.516567
0.516146
0.515726
0.515307
0.514889
0.514471
0.514055
0.513639
0.513225
0.512811
0.512398
0.511986
0.511575
0.511165
0.510755
0.510347
0.509939
0.509532
0.509125
0.508719
0.508314
0.507909
0.507505
0.507101
0.506698
0.506295
0.505893
0.505491
0.50509
0.504689
0.504288
0.503889
0.503489
0.50309
0.502692
0.502295
0.501898
0.501502
0.501107
0.500714
0.500321
0.499929
0.499539
0.49915
0.498762
0.498376
0.497991
0.497608
0.497226
0.496845
0.496466
0.496089
0.495712
0.495337
0.494963
0.49459
0.494219
0.493848
0.493478
0.493108
0.492739
0.492371
0.492003
0.491636
0.491269
0.490902
0.490536
0.49017
0.489804
0.489438
0.489073
0.488708
0.488344
0.487979
0.487615
0.487252
0.486889
0.486526
0.486164
0.485802
0.485441
0.48508
0.48472
0.48436
0.484001
0.483643
0.483285
0.482927
0.482571
0.482214
0.481859
0.481504
0.481149
0.480795
0.480442
0.480089
0.479736
0.479384
0.479033
0.478682
0.478332
0.477982
0.477633
0.477284
0.476936
0.476588
0.47624
0.475893
0.475547
0.475201
0.474855
0.47451
0.474165
0.473821
0.473477
0.473134
0.472791
0.472448
0.472106
0.471764
0.471423
0.471082
0.470742
0.470401
0.470062
0.469722
0.469383
0.469045
0.468707
0.468369
0.468031
0.467694
0.467358
0.467021
0.466685
0.46635
0.466014
0.465679
0.465345
0.465011
0.464677
0.464343
0.46401
0.463677
0.463345
0.463013
0.462681
0.46235
0.462019
0.461688
0.461357
0.461027
0.460698
0.460368
0.460039
0.45971
0.459382
0.459054
0.458726
0.458398
0.458071
0.457744
0.457418
0.457091
0.456765
0.45644
0.456114
0.455789
0.455464
0.45514
0.454815
0.454491
0.454167
0.453843
0.45352
0.453196
0.452873
0.45255
0.452227
0.451904
0.451581
0.451258
0.450936
0.450613
0.450291
0.449969
0.449646
0.449324
0.449002
0.44868
0.448358
0.448037
0.447715
0.447394
0.447073
0.446753
0.446432
0.446112
0.445793
0.445474
0.445155
0.444837
0.444519
0.444202
0.443885
0.443569
0.443253
0.442938
0.442624
0.44231
0.441997
0.441684
0.441372
0.44106
0.440749
0.440439
0.440128
0.439818
0.439509
0.4392
0.438891
0.438582
0.438274
0.437965
0.437657
0.437349
0.437041
0.436733
0.436425
0.436117
0.435809
0.435501
0.435192
0.434884
0.434576
0.434268
0.43396
0.433652
0.433344
0.433036
0.432728
0.43242
0.432112
0.431804
0.431496
0.431188
0.43088
0.430572
0.430265
0.429957
0.42965
0.429342
0.429035
0.428728
0.428421
0.428114
0.427807
0.4275
0.427194
0.426887
0.42658
0.426274
0.425968
0.425661
0.425355
0.425049
0.424743
0.424437
0.424131
0.423825
0.423519
0.423213
0.422907
0.422601
0.422295
0.42199
0.421684
0.421378
0.421072
0.420767
0.420461
0.420155
0.419849
0.419544
0.419238
0.418932
0.418626
0.41832
0.418015
0.417709
0.417403
0.417097
0.416791
0.416485
0.416179
0.415873
0.415566
0.41526
0.414954
0.414648
0.414341
0.414035
0.413728
0.413422
0.413115
0.412808
0.412501
0.412194
0.411887
0.41158
0.411273
0.410966
0.410658
0.410351
0.410043
0.409736
0.409428
0.40912
0.408812
0.408504
0.408195
0.407887
0.407579
0.40727
0.406961
0.406652
0.406343
0.406034
0.405725
0.405415
0.405105
0.404796
0.404486
0.404175
0.403865
0.403555
0.403244
0.402933
0.402622
0.40231
0.401999
0.401687
0.401375
0.401063
0.40075
0.400437
0.400124
0.399811
0.399497
0.399183
0.398869
0.398554
0.398239
0.397924
0.397608
0.397292
0.396976
0.39666
0.396343
0.396025
0.395708
0.39539
0.395071
0.394753
0.394434
0.394115
0.393795
0.393475
0.393155
0.392835
0.392514
0.392193
0.391872
0.391551
0.391229
0.390907
0.390585
0.390263
0.389941
0.389618
0.389295
0.388972
0.388649
0.388325
0.388002
0.387678
0.387354
0.38703
0.386705
0.38638
0.386055
0.385729
0.385404
0.385078
0.384751
0.384424
0.384097
0.383769
0.383441
0.383112
0.382783
0.382453
0.382122
0.381791
0.38146
0.381128
0.380795
0.380461
0.380127
0.379792
0.379457
0.379121
0.378784
0.378446
0.378108
0.377769
0.37743
0.377089
0.376748
0.376406
0.376064
0.37572
0.375376
0.375032
0.374686
0.37434
0.373993
0.373645
0.373297
0.372947
0.372597
0.372246
0.371895
0.371543
0.37119
0.370836
0.370481
0.370126
0.36977
0.369413
0.369055
0.368697
0.368338
0.367978
0.367618
0.367256
0.366895
0.366532
0.366169
0.365806
0.365441
0.365077
0.364712
0.364347
0.363981
0.363616
0.36325
0.362885
0.36252
0.362156
0.361792
0.361429
0.361068
0.360708
0.36035
0.359995
0.359643
0.359294
0.358949
0.358608
0.358273
0.357944
0.357622
0.357308
0.357002
0.356706
0.35642
0.356146
0.355883
0.355633
0.355397
0.355175
0.354967
0.354774
0.354595
0.354432
0.354283
0.354149
0.354029
0.353922
0.353827
0.353744
0.353672
0.35361
0.353557
0.353512
0.353474
0.353442
0.353415
0.353393
0.353374
0.353356
0.353339
0.353319
0.353293
0.353253
0.353188
0.353074
0.352873
0.352515
0.351878
0.35075
0.348777
0.345399
0.339825
0.331165
0.318905
0.303671
0.287598
0.273426
0.262881
0.256041
0.252015
0.249784
0.248591
0.247965
0.24764
0.247472
0.247385
0.24734
0.247317
0.247305
0.247299
0.247296
0.247294
0.247292
0.247292
0.247291
0.247291
0.24729
0.24729
0.247289
0.247289
0.247289
0.247288
0.247287
0.247287
0.247286
0.247286
0.247285
0.247284
0.247284
0.247283
0.247282
0.247282
0.247281
0.24728
0.24728
0.247279
0.247278
0.247277
0.247277
0.247276
0.247275
0.247275
0.247274
0.247273
0.247273
0.247272
0.247272
0.247271
0.247271
0.24727
0.24727
0.247269
0.247269
0.247269
0.247269
0.247268
0.247268
0.247268
0.247268
0.247268
0.247268
0.247268
0.247268
0.247268
0.247268
0.247269
0.247269
0.247269
0.247269
0.247269
0.24727
0.24727
0.24727
0.247271
0.247271
0.247271
0.247272
0.247272
0.247272
0.247273
0.247273
0.247273
0.247274
0.247274
0.247274
0.247275
0.247275
0.247275
0.247276
0.247276
0.247276
0.247276
0.247277
0.247277
0.247277
0.247277
0.247278
0.247278
0.247278
0.247278
0.247278
0.247279
0.247279
0.247279
0.247279
0.247279
0.24728
0.24728
0.24728
0.24728
0.24728
0.24728
0.247281
0.247281
0.247281
0.247281
0.247281
0.247282
0.247282
0.247282
0.247282
0.247282
0.247282
0.247283
0.247283
0.247283
0.247283
0.247283
0.247283
0.247284
0.247284
0.247284
0.247284
0.247284
0.247284
0.247284
0.247285
0.247285
0.247285
0.247285
0.247285
0.247285
0.247285
0.247285
0.247285
0.247285
0.247286
0.247286
0.247286
0.247286
0.247286
0.247286
0.247286
0.247286
)
;

boundaryField
{
    inlet
    {
        type            fixedValue;
        value           uniform 0.35;
    }
    outlet
    {
        type            zeroGradient;
    }
    emptyWalls
    {
        type            empty;
    }
}


// ************************************************************************* //
