/*--------------------------------*- C++ -*----------------------------------*\
  =========                 |
  \\      /  F ield         | OpenFOAM: The Open Source CFD Toolbox
   \\    /   O peration     | Website:  https://openfoam.org
    \\  /    A nd           | Version:  9
     \\/     M anipulation  |
\*---------------------------------------------------------------------------*/
FoamFile
{
    format      ascii;
    class       volVectorField;
    location    "24400";
    object      Ua;
}
// * * * * * * * * * * * * * * * * * * * * * * * * * * * * * * * * * * * * * //

dimensions      [0 0 0 0 0 0 0];

internalField   nonuniform List<vector> 
1000
(
(2.74907e-06 0 0)
(2.74875e-06 0 0)
(2.74866e-06 0 0)
(2.74854e-06 0 0)
(2.74832e-06 0 0)
(2.74812e-06 0 0)
(2.74782e-06 0 0)
(2.74751e-06 0 0)
(2.74716e-06 0 0)
(2.74676e-06 0 0)
(2.74633e-06 0 0)
(2.74583e-06 0 0)
(2.74526e-06 0 0)
(2.74461e-06 0 0)
(2.74393e-06 0 0)
(2.74318e-06 0 0)
(2.74243e-06 0 0)
(2.7417e-06 0 0)
(2.74089e-06 0 0)
(2.74018e-06 0 0)
(2.73939e-06 0 0)
(2.73865e-06 0 0)
(2.73797e-06 0 0)
(2.73727e-06 0 0)
(2.73668e-06 0 0)
(2.7361e-06 0 0)
(2.73555e-06 0 0)
(2.73505e-06 0 0)
(2.73457e-06 0 0)
(2.7341e-06 0 0)
(2.73346e-06 0 0)
(2.73179e-06 0 0)
(2.72569e-06 0 0)
(2.69897e-06 0 0)
(2.52099e-06 0 0)
(2.26319e-06 0 0)
(2.14793e-06 0 0)
(2.13021e-06 0 0)
(2.12319e-06 0 0)
(2.11776e-06 0 0)
(2.1129e-06 0 0)
(2.10852e-06 0 0)
(2.10459e-06 0 0)
(2.10102e-06 0 0)
(2.09774e-06 0 0)
(2.0947e-06 0 0)
(2.09188e-06 0 0)
(2.08923e-06 0 0)
(2.08674e-06 0 0)
(2.0844e-06 0 0)
(2.08218e-06 0 0)
(2.08011e-06 0 0)
(2.07813e-06 0 0)
(2.07626e-06 0 0)
(2.0745e-06 0 0)
(2.07284e-06 0 0)
(2.07127e-06 0 0)
(2.06979e-06 0 0)
(2.06839e-06 0 0)
(2.06707e-06 0 0)
(2.06583e-06 0 0)
(2.06466e-06 0 0)
(2.06355e-06 0 0)
(2.06247e-06 0 0)
(2.06145e-06 0 0)
(2.06049e-06 0 0)
(2.0596e-06 0 0)
(2.05877e-06 0 0)
(2.05801e-06 0 0)
(2.05731e-06 0 0)
(2.05668e-06 0 0)
(2.05609e-06 0 0)
(2.05551e-06 0 0)
(2.0549e-06 0 0)
(2.05428e-06 0 0)
(2.05366e-06 0 0)
(2.05305e-06 0 0)
(2.05248e-06 0 0)
(2.05197e-06 0 0)
(2.05153e-06 0 0)
(2.05118e-06 0 0)
(2.05092e-06 0 0)
(2.05074e-06 0 0)
(2.0506e-06 0 0)
(2.05047e-06 0 0)
(2.05032e-06 0 0)
(2.0501e-06 0 0)
(2.04982e-06 0 0)
(2.04949e-06 0 0)
(2.04911e-06 0 0)
(2.04876e-06 0 0)
(2.04854e-06 0 0)
(2.04848e-06 0 0)
(2.04865e-06 0 0)
(2.04911e-06 0 0)
(2.04995e-06 0 0)
(2.05127e-06 0 0)
(2.05312e-06 0 0)
(2.05549e-06 0 0)
(2.05828e-06 0 0)
(2.06128e-06 0 0)
(2.06427e-06 0 0)
(2.06712e-06 0 0)
(2.06977e-06 0 0)
(2.0722e-06 0 0)
(2.07443e-06 0 0)
(2.07642e-06 0 0)
(2.07811e-06 0 0)
(2.07939e-06 0 0)
(2.08014e-06 0 0)
(2.08028e-06 0 0)
(2.07975e-06 0 0)
(2.07855e-06 0 0)
(2.07674e-06 0 0)
(2.0744e-06 0 0)
(2.07167e-06 0 0)
(2.0687e-06 0 0)
(2.06561e-06 0 0)
(2.06256e-06 0 0)
(2.05964e-06 0 0)
(2.05696e-06 0 0)
(2.05457e-06 0 0)
(2.05251e-06 0 0)
(2.0508e-06 0 0)
(2.04944e-06 0 0)
(2.04839e-06 0 0)
(2.04762e-06 0 0)
(2.0471e-06 0 0)
(2.04676e-06 0 0)
(2.04658e-06 0 0)
(2.04649e-06 0 0)
(2.04646e-06 0 0)
(2.04645e-06 0 0)
(2.04644e-06 0 0)
(2.0464e-06 0 0)
(2.04632e-06 0 0)
(2.04619e-06 0 0)
(2.04601e-06 0 0)
(2.04577e-06 0 0)
(2.04548e-06 0 0)
(2.04515e-06 0 0)
(2.04478e-06 0 0)
(2.04437e-06 0 0)
(2.04394e-06 0 0)
(2.04348e-06 0 0)
(2.04301e-06 0 0)
(2.04253e-06 0 0)
(2.04205e-06 0 0)
(2.04156e-06 0 0)
(2.04107e-06 0 0)
(2.04058e-06 0 0)
(2.0401e-06 0 0)
(2.03963e-06 0 0)
(2.03916e-06 0 0)
(2.0387e-06 0 0)
(2.03825e-06 0 0)
(2.03781e-06 0 0)
(2.03738e-06 0 0)
(2.03696e-06 0 0)
(2.03654e-06 0 0)
(2.03614e-06 0 0)
(2.03576e-06 0 0)
(2.03538e-06 0 0)
(2.03501e-06 0 0)
(2.03466e-06 0 0)
(2.03432e-06 0 0)
(2.034e-06 0 0)
(2.03368e-06 0 0)
(2.03338e-06 0 0)
(2.03309e-06 0 0)
(2.03281e-06 0 0)
(2.03254e-06 0 0)
(2.03228e-06 0 0)
(2.03203e-06 0 0)
(2.0318e-06 0 0)
(2.03158e-06 0 0)
(2.03137e-06 0 0)
(2.03118e-06 0 0)
(2.031e-06 0 0)
(2.03084e-06 0 0)
(2.03069e-06 0 0)
(2.03056e-06 0 0)
(2.03045e-06 0 0)
(2.03034e-06 0 0)
(2.03025e-06 0 0)
(2.03015e-06 0 0)
(2.03007e-06 0 0)
(2.02998e-06 0 0)
(2.0299e-06 0 0)
(2.02982e-06 0 0)
(2.02974e-06 0 0)
(2.02967e-06 0 0)
(2.0296e-06 0 0)
(2.02955e-06 0 0)
(2.02951e-06 0 0)
(2.02948e-06 0 0)
(2.02947e-06 0 0)
(2.02947e-06 0 0)
(2.02948e-06 0 0)
(2.0295e-06 0 0)
(2.02953e-06 0 0)
(2.02955e-06 0 0)
(2.02956e-06 0 0)
(2.02956e-06 0 0)
(2.02954e-06 0 0)
(2.02951e-06 0 0)
(2.02946e-06 0 0)
(2.02941e-06 0 0)
(2.02938e-06 0 0)
(2.02937e-06 0 0)
(2.02943e-06 0 0)
(2.02956e-06 0 0)
(2.0298e-06 0 0)
(2.03016e-06 0 0)
(2.03066e-06 0 0)
(2.03133e-06 0 0)
(2.03215e-06 0 0)
(2.03315e-06 0 0)
(2.03431e-06 0 0)
(2.03562e-06 0 0)
(2.03707e-06 0 0)
(2.03864e-06 0 0)
(2.04031e-06 0 0)
(2.04205e-06 0 0)
(2.04382e-06 0 0)
(2.0456e-06 0 0)
(2.04734e-06 0 0)
(2.049e-06 0 0)
(2.05055e-06 0 0)
(2.05193e-06 0 0)
(2.05311e-06 0 0)
(2.05406e-06 0 0)
(2.05474e-06 0 0)
(2.05513e-06 0 0)
(2.05521e-06 0 0)
(2.05497e-06 0 0)
(2.05443e-06 0 0)
(2.05359e-06 0 0)
(2.05247e-06 0 0)
(2.05112e-06 0 0)
(2.04958e-06 0 0)
(2.04787e-06 0 0)
(2.04606e-06 0 0)
(2.04419e-06 0 0)
(2.04231e-06 0 0)
(2.04044e-06 0 0)
(2.03865e-06 0 0)
(2.03694e-06 0 0)
(2.03535e-06 0 0)
(2.03389e-06 0 0)
(2.03258e-06 0 0)
(2.03141e-06 0 0)
(2.03039e-06 0 0)
(2.0295e-06 0 0)
(2.02874e-06 0 0)
(2.02809e-06 0 0)
(2.02755e-06 0 0)
(2.02709e-06 0 0)
(2.0267e-06 0 0)
(2.02637e-06 0 0)
(2.02608e-06 0 0)
(2.02581e-06 0 0)
(2.02556e-06 0 0)
(2.02533e-06 0 0)
(2.02509e-06 0 0)
(2.02484e-06 0 0)
(2.02458e-06 0 0)
(2.02431e-06 0 0)
(2.02402e-06 0 0)
(2.02371e-06 0 0)
(2.02338e-06 0 0)
(2.02304e-06 0 0)
(2.02268e-06 0 0)
(2.0223e-06 0 0)
(2.02191e-06 0 0)
(2.02151e-06 0 0)
(2.0211e-06 0 0)
(2.02068e-06 0 0)
(2.02026e-06 0 0)
(2.01983e-06 0 0)
(2.0194e-06 0 0)
(2.01897e-06 0 0)
(2.01855e-06 0 0)
(2.01812e-06 0 0)
(2.01769e-06 0 0)
(2.01727e-06 0 0)
(2.01686e-06 0 0)
(2.01645e-06 0 0)
(2.01604e-06 0 0)
(2.01564e-06 0 0)
(2.01525e-06 0 0)
(2.01487e-06 0 0)
(2.0145e-06 0 0)
(2.01413e-06 0 0)
(2.01377e-06 0 0)
(2.01342e-06 0 0)
(2.01308e-06 0 0)
(2.01275e-06 0 0)
(2.01242e-06 0 0)
(2.01211e-06 0 0)
(2.0118e-06 0 0)
(2.0115e-06 0 0)
(2.01122e-06 0 0)
(2.01094e-06 0 0)
(2.01067e-06 0 0)
(2.01041e-06 0 0)
(2.01016e-06 0 0)
(2.00993e-06 0 0)
(2.0097e-06 0 0)
(2.00948e-06 0 0)
(2.00928e-06 0 0)
(2.00908e-06 0 0)
(2.0089e-06 0 0)
(2.00872e-06 0 0)
(2.00856e-06 0 0)
(2.0084e-06 0 0)
(2.00825e-06 0 0)
(2.00811e-06 0 0)
(2.00798e-06 0 0)
(2.00785e-06 0 0)
(2.00773e-06 0 0)
(2.00761e-06 0 0)
(2.0075e-06 0 0)
(2.0074e-06 0 0)
(2.0073e-06 0 0)
(2.00721e-06 0 0)
(2.00712e-06 0 0)
(2.00704e-06 0 0)
(2.00697e-06 0 0)
(2.0069e-06 0 0)
(2.00684e-06 0 0)
(2.00679e-06 0 0)
(2.00673e-06 0 0)
(2.00668e-06 0 0)
(2.00664e-06 0 0)
(2.00659e-06 0 0)
(2.00654e-06 0 0)
(2.00649e-06 0 0)
(2.00645e-06 0 0)
(2.0064e-06 0 0)
(2.00636e-06 0 0)
(2.00632e-06 0 0)
(2.00631e-06 0 0)
(2.00631e-06 0 0)
(2.00633e-06 0 0)
(2.00639e-06 0 0)
(2.0065e-06 0 0)
(2.00665e-06 0 0)
(2.00686e-06 0 0)
(2.00715e-06 0 0)
(2.0075e-06 0 0)
(2.00794e-06 0 0)
(2.00846e-06 0 0)
(2.00907e-06 0 0)
(2.00977e-06 0 0)
(2.01055e-06 0 0)
(2.01143e-06 0 0)
(2.01238e-06 0 0)
(2.01341e-06 0 0)
(2.0145e-06 0 0)
(2.01564e-06 0 0)
(2.01683e-06 0 0)
(2.01804e-06 0 0)
(2.01925e-06 0 0)
(2.02046e-06 0 0)
(2.02163e-06 0 0)
(2.02276e-06 0 0)
(2.02382e-06 0 0)
(2.02479e-06 0 0)
(2.02565e-06 0 0)
(2.02639e-06 0 0)
(2.02699e-06 0 0)
(2.02743e-06 0 0)
(2.02771e-06 0 0)
(2.02782e-06 0 0)
(2.02775e-06 0 0)
(2.0275e-06 0 0)
(2.02708e-06 0 0)
(2.0265e-06 0 0)
(2.02576e-06 0 0)
(2.02488e-06 0 0)
(2.02388e-06 0 0)
(2.02277e-06 0 0)
(2.02158e-06 0 0)
(2.02032e-06 0 0)
(2.01902e-06 0 0)
(2.0177e-06 0 0)
(2.01638e-06 0 0)
(2.01507e-06 0 0)
(2.01379e-06 0 0)
(2.01255e-06 0 0)
(2.01137e-06 0 0)
(2.01025e-06 0 0)
(2.0092e-06 0 0)
(2.00822e-06 0 0)
(2.00732e-06 0 0)
(2.00649e-06 0 0)
(2.00573e-06 0 0)
(2.00504e-06 0 0)
(2.00441e-06 0 0)
(2.00384e-06 0 0)
(2.00333e-06 0 0)
(2.00285e-06 0 0)
(2.00242e-06 0 0)
(2.00202e-06 0 0)
(2.00164e-06 0 0)
(2.00129e-06 0 0)
(2.00095e-06 0 0)
(2.00062e-06 0 0)
(2.0003e-06 0 0)
(1.99998e-06 0 0)
(1.99966e-06 0 0)
(1.99934e-06 0 0)
(1.99901e-06 0 0)
(1.99868e-06 0 0)
(1.99834e-06 0 0)
(1.99799e-06 0 0)
(1.99764e-06 0 0)
(1.99728e-06 0 0)
(1.99691e-06 0 0)
(1.99653e-06 0 0)
(1.99615e-06 0 0)
(1.99577e-06 0 0)
(1.99537e-06 0 0)
(1.99498e-06 0 0)
(1.99458e-06 0 0)
(1.99418e-06 0 0)
(1.99378e-06 0 0)
(1.99338e-06 0 0)
(1.99298e-06 0 0)
(1.99258e-06 0 0)
(1.99219e-06 0 0)
(1.9918e-06 0 0)
(1.99141e-06 0 0)
(1.99102e-06 0 0)
(1.99064e-06 0 0)
(1.99027e-06 0 0)
(1.9899e-06 0 0)
(1.98953e-06 0 0)
(1.98918e-06 0 0)
(1.98883e-06 0 0)
(1.98848e-06 0 0)
(1.98814e-06 0 0)
(1.98781e-06 0 0)
(1.98749e-06 0 0)
(1.98718e-06 0 0)
(1.98687e-06 0 0)
(1.98657e-06 0 0)
(1.98628e-06 0 0)
(1.98599e-06 0 0)
(1.98572e-06 0 0)
(1.98545e-06 0 0)
(1.98519e-06 0 0)
(1.98494e-06 0 0)
(1.9847e-06 0 0)
(1.98447e-06 0 0)
(1.98425e-06 0 0)
(1.98403e-06 0 0)
(1.98382e-06 0 0)
(1.98362e-06 0 0)
(1.98343e-06 0 0)
(1.98325e-06 0 0)
(1.98307e-06 0 0)
(1.9829e-06 0 0)
(1.98274e-06 0 0)
(1.98259e-06 0 0)
(1.98244e-06 0 0)
(1.9823e-06 0 0)
(1.98216e-06 0 0)
(1.98203e-06 0 0)
(1.98191e-06 0 0)
(1.98179e-06 0 0)
(1.98168e-06 0 0)
(1.98157e-06 0 0)
(1.98147e-06 0 0)
(1.98137e-06 0 0)
(1.98128e-06 0 0)
(1.98119e-06 0 0)
(1.98111e-06 0 0)
(1.98103e-06 0 0)
(1.98095e-06 0 0)
(1.98088e-06 0 0)
(1.98081e-06 0 0)
(1.98074e-06 0 0)
(1.98068e-06 0 0)
(1.98062e-06 0 0)
(1.98056e-06 0 0)
(1.98051e-06 0 0)
(1.98047e-06 0 0)
(1.98044e-06 0 0)
(1.98041e-06 0 0)
(1.98041e-06 0 0)
(1.98041e-06 0 0)
(1.98044e-06 0 0)
(1.98049e-06 0 0)
(1.98057e-06 0 0)
(1.98068e-06 0 0)
(1.98083e-06 0 0)
(1.98101e-06 0 0)
(1.98124e-06 0 0)
(1.98151e-06 0 0)
(1.98183e-06 0 0)
(1.9822e-06 0 0)
(1.98263e-06 0 0)
(1.98311e-06 0 0)
(1.98364e-06 0 0)
(1.98422e-06 0 0)
(1.98486e-06 0 0)
(1.98555e-06 0 0)
(1.98628e-06 0 0)
(1.98705e-06 0 0)
(1.98785e-06 0 0)
(1.98869e-06 0 0)
(1.98955e-06 0 0)
(1.99042e-06 0 0)
(1.99129e-06 0 0)
(1.99216e-06 0 0)
(1.99302e-06 0 0)
(1.99385e-06 0 0)
(1.99465e-06 0 0)
(1.9954e-06 0 0)
(1.9961e-06 0 0)
(1.99673e-06 0 0)
(1.99729e-06 0 0)
(1.99776e-06 0 0)
(1.99814e-06 0 0)
(1.99842e-06 0 0)
(1.9986e-06 0 0)
(1.99867e-06 0 0)
(1.99864e-06 0 0)
(1.99849e-06 0 0)
(1.99823e-06 0 0)
(1.99786e-06 0 0)
(1.99739e-06 0 0)
(1.99683e-06 0 0)
(1.99617e-06 0 0)
(1.99543e-06 0 0)
(1.99462e-06 0 0)
(1.99375e-06 0 0)
(1.99282e-06 0 0)
(1.99185e-06 0 0)
(1.99086e-06 0 0)
(1.98984e-06 0 0)
(1.98881e-06 0 0)
(1.98778e-06 0 0)
(1.98677e-06 0 0)
(1.98576e-06 0 0)
(1.98479e-06 0 0)
(1.98384e-06 0 0)
(1.98293e-06 0 0)
(1.98205e-06 0 0)
(1.98122e-06 0 0)
(1.98042e-06 0 0)
(1.97967e-06 0 0)
(1.97897e-06 0 0)
(1.9783e-06 0 0)
(1.97767e-06 0 0)
(1.97709e-06 0 0)
(1.97653e-06 0 0)
(1.97601e-06 0 0)
(1.97552e-06 0 0)
(1.97506e-06 0 0)
(1.97462e-06 0 0)
(1.97419e-06 0 0)
(1.97379e-06 0 0)
(1.9734e-06 0 0)
(1.97302e-06 0 0)
(1.97265e-06 0 0)
(1.97229e-06 0 0)
(1.97194e-06 0 0)
(1.97158e-06 0 0)
(1.97123e-06 0 0)
(1.97088e-06 0 0)
(1.97053e-06 0 0)
(1.97017e-06 0 0)
(1.96982e-06 0 0)
(1.96946e-06 0 0)
(1.9691e-06 0 0)
(1.96874e-06 0 0)
(1.96837e-06 0 0)
(1.968e-06 0 0)
(1.96763e-06 0 0)
(1.96726e-06 0 0)
(1.96689e-06 0 0)
(1.96651e-06 0 0)
(1.96614e-06 0 0)
(1.96576e-06 0 0)
(1.96539e-06 0 0)
(1.96502e-06 0 0)
(1.96464e-06 0 0)
(1.96427e-06 0 0)
(1.9639e-06 0 0)
(1.96354e-06 0 0)
(1.96318e-06 0 0)
(1.96282e-06 0 0)
(1.96246e-06 0 0)
(1.96211e-06 0 0)
(1.96176e-06 0 0)
(1.96142e-06 0 0)
(1.96108e-06 0 0)
(1.96075e-06 0 0)
(1.96043e-06 0 0)
(1.96011e-06 0 0)
(1.95979e-06 0 0)
(1.95948e-06 0 0)
(1.95918e-06 0 0)
(1.95889e-06 0 0)
(1.9586e-06 0 0)
(1.95831e-06 0 0)
(1.95804e-06 0 0)
(1.95777e-06 0 0)
(1.95751e-06 0 0)
(1.95725e-06 0 0)
(1.957e-06 0 0)
(1.95676e-06 0 0)
(1.95652e-06 0 0)
(1.95629e-06 0 0)
(1.95607e-06 0 0)
(1.95586e-06 0 0)
(1.95565e-06 0 0)
(1.95545e-06 0 0)
(1.95525e-06 0 0)
(1.95506e-06 0 0)
(1.95488e-06 0 0)
(1.9547e-06 0 0)
(1.95453e-06 0 0)
(1.95436e-06 0 0)
(1.9542e-06 0 0)
(1.95405e-06 0 0)
(1.9539e-06 0 0)
(1.95375e-06 0 0)
(1.95361e-06 0 0)
(1.95348e-06 0 0)
(1.95335e-06 0 0)
(1.95322e-06 0 0)
(1.9531e-06 0 0)
(1.95298e-06 0 0)
(1.95287e-06 0 0)
(1.95276e-06 0 0)
(1.95265e-06 0 0)
(1.95255e-06 0 0)
(1.95245e-06 0 0)
(1.95235e-06 0 0)
(1.95226e-06 0 0)
(1.95217e-06 0 0)
(1.95209e-06 0 0)
(1.95201e-06 0 0)
(1.95193e-06 0 0)
(1.95187e-06 0 0)
(1.95181e-06 0 0)
(1.95175e-06 0 0)
(1.95171e-06 0 0)
(1.95168e-06 0 0)
(1.95166e-06 0 0)
(1.95165e-06 0 0)
(1.95166e-06 0 0)
(1.95169e-06 0 0)
(1.95174e-06 0 0)
(1.95181e-06 0 0)
(1.9519e-06 0 0)
(1.95202e-06 0 0)
(1.95217e-06 0 0)
(1.95234e-06 0 0)
(1.95255e-06 0 0)
(1.95279e-06 0 0)
(1.95306e-06 0 0)
(1.95337e-06 0 0)
(1.95372e-06 0 0)
(1.95409e-06 0 0)
(1.95451e-06 0 0)
(1.95495e-06 0 0)
(1.95543e-06 0 0)
(1.95594e-06 0 0)
(1.95648e-06 0 0)
(1.95704e-06 0 0)
(1.95763e-06 0 0)
(1.95823e-06 0 0)
(1.95886e-06 0 0)
(1.95949e-06 0 0)
(1.96013e-06 0 0)
(1.96076e-06 0 0)
(1.9614e-06 0 0)
(1.96202e-06 0 0)
(1.96263e-06 0 0)
(1.96322e-06 0 0)
(1.96378e-06 0 0)
(1.9643e-06 0 0)
(1.96479e-06 0 0)
(1.96523e-06 0 0)
(1.96562e-06 0 0)
(1.96595e-06 0 0)
(1.96622e-06 0 0)
(1.96643e-06 0 0)
(1.96657e-06 0 0)
(1.96664e-06 0 0)
(1.96664e-06 0 0)
(1.96657e-06 0 0)
(1.96642e-06 0 0)
(1.9662e-06 0 0)
(1.9659e-06 0 0)
(1.96553e-06 0 0)
(1.9651e-06 0 0)
(1.9646e-06 0 0)
(1.96404e-06 0 0)
(1.96343e-06 0 0)
(1.96276e-06 0 0)
(1.96205e-06 0 0)
(1.9613e-06 0 0)
(1.96052e-06 0 0)
(1.95971e-06 0 0)
(1.95889e-06 0 0)
(1.95805e-06 0 0)
(1.9572e-06 0 0)
(1.95635e-06 0 0)
(1.9555e-06 0 0)
(1.95465e-06 0 0)
(1.95382e-06 0 0)
(1.95301e-06 0 0)
(1.95221e-06 0 0)
(1.95144e-06 0 0)
(1.95069e-06 0 0)
(1.94996e-06 0 0)
(1.94926e-06 0 0)
(1.94859e-06 0 0)
(1.94794e-06 0 0)
(1.94732e-06 0 0)
(1.94673e-06 0 0)
(1.94616e-06 0 0)
(1.94562e-06 0 0)
(1.94509e-06 0 0)
(1.94459e-06 0 0)
(1.94411e-06 0 0)
(1.94365e-06 0 0)
(1.9432e-06 0 0)
(1.94277e-06 0 0)
(1.94236e-06 0 0)
(1.94195e-06 0 0)
(1.94155e-06 0 0)
(1.94116e-06 0 0)
(1.94078e-06 0 0)
(1.94041e-06 0 0)
(1.94004e-06 0 0)
(1.93967e-06 0 0)
(1.93931e-06 0 0)
(1.93894e-06 0 0)
(1.93858e-06 0 0)
(1.93822e-06 0 0)
(1.93786e-06 0 0)
(1.9375e-06 0 0)
(1.93714e-06 0 0)
(1.93678e-06 0 0)
(1.93642e-06 0 0)
(1.93605e-06 0 0)
(1.93569e-06 0 0)
(1.93533e-06 0 0)
(1.93497e-06 0 0)
(1.9346e-06 0 0)
(1.93424e-06 0 0)
(1.93388e-06 0 0)
(1.93351e-06 0 0)
(1.93315e-06 0 0)
(1.93279e-06 0 0)
(1.93243e-06 0 0)
(1.93208e-06 0 0)
(1.93172e-06 0 0)
(1.93137e-06 0 0)
(1.93102e-06 0 0)
(1.93067e-06 0 0)
(1.93033e-06 0 0)
(1.92999e-06 0 0)
(1.92965e-06 0 0)
(1.92931e-06 0 0)
(1.92898e-06 0 0)
(1.92866e-06 0 0)
(1.92834e-06 0 0)
(1.92802e-06 0 0)
(1.92771e-06 0 0)
(1.9274e-06 0 0)
(1.9271e-06 0 0)
(1.9268e-06 0 0)
(1.9265e-06 0 0)
(1.92622e-06 0 0)
(1.92593e-06 0 0)
(1.92566e-06 0 0)
(1.92538e-06 0 0)
(1.92512e-06 0 0)
(1.92485e-06 0 0)
(1.9246e-06 0 0)
(1.92435e-06 0 0)
(1.9241e-06 0 0)
(1.92386e-06 0 0)
(1.92362e-06 0 0)
(1.92339e-06 0 0)
(1.92317e-06 0 0)
(1.92295e-06 0 0)
(1.92274e-06 0 0)
(1.92253e-06 0 0)
(1.92232e-06 0 0)
(1.92212e-06 0 0)
(1.92193e-06 0 0)
(1.92174e-06 0 0)
(1.92155e-06 0 0)
(1.92137e-06 0 0)
(1.9212e-06 0 0)
(1.92102e-06 0 0)
(1.92085e-06 0 0)
(1.92069e-06 0 0)
(1.92053e-06 0 0)
(1.92038e-06 0 0)
(1.92022e-06 0 0)
(1.92007e-06 0 0)
(1.91993e-06 0 0)
(1.91979e-06 0 0)
(1.91965e-06 0 0)
(1.91952e-06 0 0)
(1.91939e-06 0 0)
(1.91926e-06 0 0)
(1.91914e-06 0 0)
(1.91903e-06 0 0)
(1.91891e-06 0 0)
(1.91881e-06 0 0)
(1.91871e-06 0 0)
(1.91861e-06 0 0)
(1.91853e-06 0 0)
(1.91845e-06 0 0)
(1.91838e-06 0 0)
(1.91832e-06 0 0)
(1.91827e-06 0 0)
(1.91823e-06 0 0)
(1.9182e-06 0 0)
(1.91819e-06 0 0)
(1.91819e-06 0 0)
(1.91821e-06 0 0)
(1.91824e-06 0 0)
(1.91829e-06 0 0)
(1.91836e-06 0 0)
(1.91846e-06 0 0)
(1.91857e-06 0 0)
(1.9187e-06 0 0)
(1.91886e-06 0 0)
(1.91904e-06 0 0)
(1.91924e-06 0 0)
(1.91947e-06 0 0)
(1.91972e-06 0 0)
(1.92e-06 0 0)
(1.92029e-06 0 0)
(1.92062e-06 0 0)
(1.92096e-06 0 0)
(1.92132e-06 0 0)
(1.9217e-06 0 0)
(1.9221e-06 0 0)
(1.92252e-06 0 0)
(1.92295e-06 0 0)
(1.92339e-06 0 0)
(1.92384e-06 0 0)
(1.92429e-06 0 0)
(1.92475e-06 0 0)
(1.92521e-06 0 0)
(1.92567e-06 0 0)
(1.92612e-06 0 0)
(1.92656e-06 0 0)
(1.92699e-06 0 0)
(1.9274e-06 0 0)
(1.92779e-06 0 0)
(1.92816e-06 0 0)
(1.92849e-06 0 0)
(1.9288e-06 0 0)
(1.92907e-06 0 0)
(1.92931e-06 0 0)
(1.9295e-06 0 0)
(1.92965e-06 0 0)
(1.92976e-06 0 0)
(1.92982e-06 0 0)
(1.92983e-06 0 0)
(1.92979e-06 0 0)
(1.9297e-06 0 0)
(1.92955e-06 0 0)
(1.92936e-06 0 0)
(1.92911e-06 0 0)
(1.92881e-06 0 0)
(1.92846e-06 0 0)
(1.92807e-06 0 0)
(1.92762e-06 0 0)
(1.92714e-06 0 0)
(1.92661e-06 0 0)
(1.92605e-06 0 0)
(1.92545e-06 0 0)
(1.92482e-06 0 0)
(1.92416e-06 0 0)
(1.92348e-06 0 0)
(1.92278e-06 0 0)
(1.92206e-06 0 0)
(1.92133e-06 0 0)
(1.92059e-06 0 0)
(1.91984e-06 0 0)
(1.91909e-06 0 0)
(1.91834e-06 0 0)
(1.9176e-06 0 0)
(1.91686e-06 0 0)
(1.91613e-06 0 0)
(1.91541e-06 0 0)
(1.91471e-06 0 0)
(1.91401e-06 0 0)
(1.91334e-06 0 0)
(1.91268e-06 0 0)
(1.91203e-06 0 0)
(1.91141e-06 0 0)
(1.9108e-06 0 0)
(1.9102e-06 0 0)
(1.90963e-06 0 0)
(1.90907e-06 0 0)
(1.90853e-06 0 0)
(1.90801e-06 0 0)
(1.9075e-06 0 0)
(1.907e-06 0 0)
(1.90652e-06 0 0)
(1.90605e-06 0 0)
(1.9056e-06 0 0)
(1.90515e-06 0 0)
(1.90472e-06 0 0)
(1.9043e-06 0 0)
(1.90388e-06 0 0)
(1.90347e-06 0 0)
(1.90308e-06 0 0)
(1.90268e-06 0 0)
(1.9023e-06 0 0)
(1.90192e-06 0 0)
(1.90155e-06 0 0)
(1.90119e-06 0 0)
(1.90083e-06 0 0)
(1.90047e-06 0 0)
(1.90013e-06 0 0)
(1.89979e-06 0 0)
(1.89945e-06 0 0)
(1.89913e-06 0 0)
(1.89881e-06 0 0)
(1.89849e-06 0 0)
(1.89819e-06 0 0)
(1.89789e-06 0 0)
(1.8976e-06 0 0)
(1.89732e-06 0 0)
(1.89705e-06 0 0)
(1.89679e-06 0 0)
(1.89654e-06 0 0)
(1.89629e-06 0 0)
(1.89606e-06 0 0)
(1.89583e-06 0 0)
(1.89561e-06 0 0)
(1.89541e-06 0 0)
(1.8952e-06 0 0)
(1.89501e-06 0 0)
(1.89483e-06 0 0)
(1.89465e-06 0 0)
(1.89448e-06 0 0)
(1.89432e-06 0 0)
(1.89416e-06 0 0)
(1.89402e-06 0 0)
(1.89387e-06 0 0)
(1.89374e-06 0 0)
(1.8936e-06 0 0)
(1.89348e-06 0 0)
(1.89336e-06 0 0)
(1.89325e-06 0 0)
(1.89314e-06 0 0)
(1.89303e-06 0 0)
(1.89293e-06 0 0)
(1.89283e-06 0 0)
(1.89273e-06 0 0)
(1.89263e-06 0 0)
(1.89253e-06 0 0)
(1.8924e-06 0 0)
(1.89224e-06 0 0)
(1.89201e-06 0 0)
(1.89165e-06 0 0)
(1.89106e-06 0 0)
(1.89008e-06 0 0)
(1.88844e-06 0 0)
(1.88576e-06 0 0)
(1.88162e-06 0 0)
(1.87581e-06 0 0)
(1.86874e-06 0 0)
(1.86162e-06 0 0)
(1.85588e-06 0 0)
(1.85214e-06 0 0)
(1.8501e-06 0 0)
(1.8491e-06 0 0)
(1.84863e-06 0 0)
(1.8484e-06 0 0)
(1.8483e-06 0 0)
(1.84826e-06 0 0)
(1.84825e-06 0 0)
(1.84826e-06 0 0)
(1.84827e-06 0 0)
(1.8483e-06 0 0)
(1.84833e-06 0 0)
(1.84836e-06 0 0)
(1.8484e-06 0 0)
(1.84845e-06 0 0)
(1.84849e-06 0 0)
(1.84854e-06 0 0)
)
;

boundaryField
{
    inlet
    {
        type            fixedValue;
        value           uniform (2.74882e-06 0 0);
    }
    outlet
    {
        type            zeroGradient;
    }
    emptyWalls
    {
        type            empty;
    }
}


// ************************************************************************* //
