/*--------------------------------*- C++ -*----------------------------------*\
  =========                 |
  \\      /  F ield         | OpenFOAM: The Open Source CFD Toolbox
   \\    /   O peration     | Website:  https://openfoam.org
    \\  /    A nd           | Version:  9
     \\/     M anipulation  |
\*---------------------------------------------------------------------------*/
FoamFile
{
    format      ascii;
    class       volScalarField;
    location    "29300";
    object      Fa;
}
// * * * * * * * * * * * * * * * * * * * * * * * * * * * * * * * * * * * * * //

dimensions      [0 0 0 0 0 0 0];

internalField   nonuniform List<scalar> 
1000
(
0.194785
0.194826
0.194766
0.194823
0.194739
0.194808
0.194717
0.194775
0.194705
0.194719
0.194683
0.194656
0.194634
0.194599
0.194564
0.194533
0.19449
0.194449
0.194411
0.194354
0.194332
0.194253
0.194256
0.194144
0.194171
0.194044
0.194067
0.193966
0.193959
0.193899
0.193872
0.193833
0.193808
0.193777
0.193758
0.193735
0.193718
0.19369
0.193627
0.193395
0.192315
0.183362
0.16008
0.155619
0.153494
0.151677
0.150318
0.149486
0.149135
0.149032
0.149017
0.148994
0.148929
0.148821
0.148682
0.148528
0.148368
0.148208
0.148053
0.147902
0.147758
0.14762
0.147488
0.147362
0.147242
0.147128
0.147018
0.146912
0.146814
0.146715
0.146626
0.146536
0.146458
0.146375
0.146306
0.146228
0.146167
0.146093
0.146034
0.145968
0.145914
0.145855
0.145811
0.145761
0.145727
0.145689
0.145656
0.145621
0.145585
0.145546
0.145508
0.145471
0.145437
0.145407
0.145382
0.145363
0.14535
0.145342
0.145337
0.145332
0.145325
0.145314
0.145297
0.145274
0.145247
0.145219
0.145194
0.145176
0.145169
0.14518
0.145214
0.145262
0.145342
0.145464
0.145618
0.145813
0.146024
0.146244
0.146443
0.14663
0.146792
0.146948
0.147082
0.147208
0.147303
0.147375
0.147399
0.147389
0.147324
0.147226
0.14708
0.146915
0.14672
0.146525
0.146317
0.146127
0.145937
0.145777
0.145624
0.145506
0.145396
0.145321
0.145251
0.145212
0.145173
0.145159
0.145139
0.145139
0.145128
0.145132
0.145121
0.145122
0.145107
0.145102
0.145081
0.145069
0.145042
0.145024
0.144992
0.144969
0.144935
0.144908
0.144872
0.144844
0.144807
0.144779
0.144743
0.144714
0.144678
0.14465
0.144616
0.144589
0.144556
0.144531
0.144499
0.144475
0.144445
0.144423
0.144394
0.144375
0.144347
0.14433
0.144303
0.144288
0.144262
0.144248
0.144223
0.144211
0.144187
0.144178
0.144155
0.144149
0.144127
0.144125
0.144105
0.144106
0.144087
0.14409
0.144072
0.144077
0.144058
0.144065
0.144046
0.144054
0.144035
0.144045
0.144027
0.14404
0.144025
0.14404
0.144027
0.144045
0.144034
0.144053
0.144042
0.144062
0.144049
0.144066
0.14405
0.144065
0.144046
0.144058
0.144039
0.144055
0.144042
0.144067
0.144067
0.144109
0.144129
0.144193
0.144236
0.144325
0.144393
0.144504
0.144593
0.144723
0.144828
0.14497
0.145081
0.145226
0.145335
0.145472
0.145568
0.145686
0.145756
0.145843
0.145879
0.145927
0.145921
0.145926
0.145876
0.145839
0.14575
0.145677
0.145557
0.14546
0.145322
0.145213
0.145068
0.14496
0.144821
0.144722
0.144597
0.144515
0.144408
0.144346
0.144258
0.144214
0.144145
0.144117
0.144061
0.144046
0.144001
0.143994
0.143956
0.143954
0.143918
0.143918
0.143883
0.143882
0.143846
0.143844
0.143806
0.143801
0.143761
0.143754
0.143712
0.143703
0.143659
0.143649
0.143604
0.143593
0.143547
0.143536
0.14349
0.143479
0.143432
0.143422
0.143376
0.143366
0.143321
0.143313
0.143269
0.143261
0.143218
0.143212
0.14317
0.143165
0.143124
0.14312
0.14308
0.143078
0.143039
0.143038
0.143001
0.143001
0.142966
0.142967
0.142933
0.142936
0.142904
0.142908
0.142877
0.142883
0.142854
0.142861
0.142833
0.142841
0.142814
0.142824
0.142797
0.142808
0.142783
0.142795
0.142771
0.142785
0.142762
0.142777
0.142755
0.142771
0.142751
0.142768
0.142748
0.142766
0.142747
0.142765
0.142745
0.142763
0.142743
0.14276
0.14274
0.142758
0.142739
0.142759
0.142743
0.142767
0.142756
0.142787
0.142785
0.142826
0.142834
0.142886
0.142907
0.142972
0.143006
0.143084
0.143131
0.143222
0.14328
0.143381
0.143447
0.143555
0.143625
0.143734
0.143804
0.14391
0.143973
0.144069
0.14412
0.144201
0.144234
0.144296
0.144307
0.144344
0.14433
0.144343
0.144304
0.144291
0.144228
0.144194
0.14411
0.144058
0.14396
0.143895
0.143788
0.143717
0.143607
0.143536
0.143427
0.14336
0.143258
0.143199
0.143105
0.143056
0.142972
0.142933
0.14286
0.142831
0.142766
0.142746
0.142689
0.142676
0.142625
0.142617
0.142571
0.142566
0.142523
0.14252
0.142478
0.142476
0.142434
0.142432
0.14239
0.142388
0.142345
0.142341
0.142297
0.142293
0.142249
0.142244
0.142198
0.142193
0.142146
0.142141
0.142094
0.142088
0.142042
0.142036
0.14199
0.141984
0.141938
0.141933
0.141888
0.141884
0.141839
0.141836
0.141791
0.141789
0.141746
0.141744
0.141702
0.141702
0.141661
0.141661
0.141621
0.141623
0.141584
0.141587
0.141549
0.141553
0.141517
0.141522
0.141487
0.141493
0.141459
0.141467
0.141433
0.141442
0.14141
0.14142
0.141389
0.1414
0.14137
0.141382
0.141353
0.141366
0.141338
0.141352
0.141325
0.14134
0.141314
0.14133
0.141305
0.141322
0.141297
0.141314
0.14129
0.141308
0.141284
0.141302
0.141279
0.141298
0.141275
0.141295
0.141273
0.141295
0.141275
0.1413
0.141283
0.141311
0.141298
0.141331
0.141324
0.141363
0.141363
0.141409
0.141416
0.141471
0.141486
0.141548
0.141572
0.141643
0.141674
0.141751
0.141789
0.141872
0.141915
0.142002
0.142047
0.142135
0.142179
0.142266
0.142307
0.142388
0.142423
0.142496
0.142521
0.142583
0.142595
0.142644
0.142642
0.142676
0.142658
0.142675
0.142641
0.142642
0.142592
0.142579
0.142515
0.142488
0.142413
0.142376
0.142292
0.142248
0.142158
0.142111
0.142019
0.141971
0.141879
0.141833
0.141744
0.141701
0.141617
0.14158
0.141501
0.141469
0.141396
0.141371
0.141304
0.141284
0.141222
0.141208
0.141151
0.141141
0.141087
0.14108
0.14103
0.141026
0.140977
0.140974
0.140927
0.140925
0.140879
0.140878
0.140831
0.140831
0.140784
0.140783
0.140736
0.140735
0.140688
0.140686
0.140639
0.140637
0.140589
0.140587
0.140539
0.140538
0.14049
0.140488
0.14044
0.140439
0.140391
0.14039
0.140343
0.140343
0.140296
0.140296
0.14025
0.140251
0.140206
0.140207
0.140163
0.140165
0.140122
0.140125
0.140082
0.140087
0.140045
0.14005
0.14001
0.140016
0.139976
0.139984
0.139945
0.139953
0.139915
0.139925
0.139888
0.139899
0.139863
0.139874
0.139839
0.139852
0.139818
0.139831
0.139798
0.139812
0.13978
0.139795
0.139764
0.13978
0.139749
0.139766
0.139736
0.139754
0.139724
0.139743
0.139714
0.139733
0.139705
0.139725
0.139697
0.139718
0.139691
0.139712
0.139686
0.139709
0.139685
0.139709
0.139686
0.139712
0.139692
0.13972
0.139703
0.139735
0.139721
0.139757
0.139748
0.139789
0.139784
0.13983
0.13983
0.139881
0.139887
0.139944
0.139955
0.140017
0.140033
0.1401
0.14012
0.140191
0.140214
0.140288
0.140314
0.140389
0.140415
0.14049
0.140515
0.140588
0.14061
0.140679
0.140696
0.140759
0.14077
0.140826
0.140828
0.140875
0.140867
0.140904
0.140885
0.140911
0.140882
0.140897
0.140856
0.14086
0.140809
0.140803
0.140742
0.140728
0.140659
0.140637
0.140562
0.140534
0.140454
0.140424
0.140341
0.140308
0.140225
0.140192
0.14011
0.140078
0.139998
0.139969
0.139891
0.139865
0.139791
0.139769
0.139698
0.139681
0.139613
0.139599
0.139536
0.139525
0.139465
0.139457
0.1394
0.139395
0.139339
0.139336
0.139283
0.139282
0.13923
0.139229
0.139178
0.139179
0.139129
0.13913
0.13908
0.139081
0.139031
0.139033
0.138983
0.138985
0.138935
0.138937
0.138887
0.138889
0.138839
0.138841
0.138791
0.138793
0.138744
0.138746
0.138697
0.1387
0.138651
0.138654
0.138605
0.138609
0.138561
0.138565
0.138517
0.138522
0.138475
0.138481
0.138435
0.138441
0.138396
0.138403
0.138358
0.138366
0.138322
0.138331
0.138288
0.138297
0.138255
0.138265
0.138224
0.138235
0.138195
0.138207
0.138167
0.13818
0.138141
0.138155
0.138117
0.138132
0.138094
0.13811
0.138073
0.138089
0.138053
0.13807
0.138035
0.138053
0.138018
0.138037
0.138003
0.138022
0.137988
0.138008
0.137975
0.137996
0.137964
0.137985
0.137953
0.137975
0.137945
0.137968
0.137938
0.137962
0.137933
0.137959
0.137931
0.137959
0.137933
0.137962
0.137939
0.137971
0.13795
0.137984
0.137966
0.138004
0.137989
0.13803
0.138018
0.138063
0.138055
0.138104
0.1381
0.138153
0.138152
0.138209
0.138211
0.138272
0.138277
0.13834
0.138348
0.138414
0.138423
0.138489
0.138499
0.138566
0.138575
0.138642
0.13865
0.138717
0.138722
0.138787
0.138787
0.13885
0.138844
0.138905
0.138889
0.138948
0.138921
0.138977
0.13894
0.138993
0.138943
0.138993
0.13893
0.138977
0.138901
0.138945
0.138857
0.138899
0.138799
0.138833
0.138725
0.138755
0.138643
0.138669
0.138555
0.138577
0.13846
0.13848
0.138362
0.13838
0.138263
0.13828
0.138164
0.138182
0.138067
0.138086
0.137974
0.137994
0.137885
0.137907
0.137801
0.137826
0.137722
0.137749
0.137648
0.137677
0.137579
0.13761
0.137514
0.137546
0.137453
0.137487
0.137395
0.13743
0.13734
0.137376
0.137287
0.137324
0.137236
0.137273
0.137186
0.137224
0.137137
0.137175
0.137089
0.137127
0.137041
0.137079
0.136993
0.137032
0.136946
0.136985
0.136899
0.136938
0.136853
0.136892
0.136807
0.136846
0.136761
0.136801
0.136716
0.136756
0.136672
0.136713
0.136629
0.13667
0.136586
0.136628
0.136545
0.136587
0.136505
0.136547
0.136466
0.136509
0.136428
0.136471
0.136392
0.136435
0.136357
0.136401
0.136323
0.136368
0.136291
0.136336
0.13626
0.136306
0.13623
0.136277
0.136202
0.136249
0.136175
0.136223
0.13615
0.136198
0.136126
0.136175
0.136103
0.136153
0.136081
0.136132
0.136061
0.136112
0.136041
0.136093
0.136023
0.136076
0.136006
0.136061
0.13599
0.136046
0.135975
0.136034
0.135962
0.136023
0.135951
0.136014
0.135941
0.136007
0.135934
0.136003
0.13593
0.136002
0.135929
0.136004
0.135931
0.13601
0.135938
0.13602
0.135858
0.989169
)
;

boundaryField
{
    inlet
    {
        type            calculated;
        value           uniform 0.194831;
    }
    outlet
    {
        type            calculated;
        value           uniform 0.0443437;
    }
    emptyWalls
    {
        type            empty;
    }
}


// ************************************************************************* //
