/*--------------------------------*- C++ -*----------------------------------*\
  =========                 |
  \\      /  F ield         | OpenFOAM: The Open Source CFD Toolbox
   \\    /   O peration     | Website:  https://openfoam.org
    \\  /    A nd           | Version:  9
     \\/     M anipulation  |
\*---------------------------------------------------------------------------*/
FoamFile
{
    format      ascii;
    class       volScalarField;
    location    "11950";
    object      krb;
}
// * * * * * * * * * * * * * * * * * * * * * * * * * * * * * * * * * * * * * //

dimensions      [0 0 0 0 0 0 0];

internalField   nonuniform List<scalar> 
1000
(
0.0980357
0.0988377
0.0998771
0.100877
0.101888
0.102889
0.103893
0.104866
0.105802
0.10667
0.107416
0.108157
0.108695
0.109716
0.112016
0.121239
0.186271
0.416409
0.482263
0.501137
0.509843
0.515112
0.518802
0.521562
0.523716
0.525417
0.526779
0.527858
0.528721
0.529397
0.529926
0.530322
0.530614
0.530796
0.530892
0.530885
0.530789
0.530585
0.53027
0.529838
0.529267
0.528528
0.527564
0.526293
0.52461
0.52243
0.519763
0.516762
0.513588
0.510322
0.50701
0.503685
0.500366
0.497067
0.493796
0.490559
0.487359
0.484199
0.48108
0.478003
0.474968
0.471975
0.469023
0.466113
0.463244
0.460415
0.457625
0.454874
0.452162
0.449486
0.446847
0.444244
0.441676
0.439142
0.43664
0.434171
0.431733
0.429326
0.42695
0.424603
0.422286
0.419997
0.417736
0.415503
0.413294
0.411111
0.40895
0.406812
0.404696
0.402601
0.400528
0.398475
0.396444
0.394435
0.392446
0.39048
0.388536
0.386613
0.384714
0.382837
0.380984
0.379155
0.377349
0.375567
0.373808
0.372072
0.370358
0.368664
0.36699
0.365334
0.363694
0.36207
0.36046
0.358863
0.357278
0.355705
0.354144
0.352594
0.351054
0.349526
0.34801
0.346504
0.345011
0.343529
0.34206
0.340602
0.339157
0.337724
0.336303
0.334894
0.333497
0.332112
0.330739
0.329377
0.328026
0.326686
0.325358
0.324039
0.322732
0.321434
0.320146
0.318869
0.317601
0.316342
0.315093
0.313853
0.312622
0.3114
0.310187
0.308982
0.307786
0.306599
0.305419
0.304248
0.303085
0.30193
0.300783
0.299644
0.298512
0.297388
0.296272
0.295162
0.29406
0.292966
0.291878
0.290797
0.289723
0.288656
0.287596
0.286542
0.285495
0.284454
0.28342
0.282392
0.28137
0.280355
0.279345
0.278342
0.277344
0.276352
0.275366
0.274386
0.273412
0.272443
0.271479
0.270521
0.269568
0.268621
0.267679
0.266742
0.26581
0.264884
0.263962
0.263045
0.262133
0.261227
0.260325
0.259427
0.258535
0.257647
0.256764
0.255885
0.255011
0.254141
0.253276
0.252416
0.251559
0.250707
0.249859
0.249015
0.248176
0.24734
0.246509
0.245682
0.244858
0.244038
0.243223
0.242411
0.241603
0.240798
0.239997
0.239199
0.238405
0.237614
0.236827
0.236042
0.235261
0.234482
0.233707
0.232934
0.232164
0.231397
0.230633
0.229872
0.229114
0.228358
0.227606
0.226857
0.226111
0.225368
0.224629
0.223893
0.223161
0.222433
0.221708
0.220987
0.220271
0.219558
0.218849
0.218145
0.217444
0.216747
0.216055
0.215365
0.21468
0.213997
0.213318
0.212642
0.211969
0.211298
0.210629
0.209963
0.209299
0.208636
0.207976
0.207317
0.20666
0.206005
0.205351
0.204699
0.204049
0.2034
0.202753
0.202108
0.201465
0.200824
0.200184
0.199547
0.198911
0.198278
0.197646
0.197017
0.196389
0.195764
0.19514
0.194519
0.193899
0.193282
0.192666
0.192053
0.191441
0.190831
0.190224
0.189618
0.189013
0.188411
0.18781
0.187212
0.186614
0.186019
0.185425
0.184833
0.184242
0.183654
0.183066
0.18248
0.181896
0.181313
0.180732
0.180153
0.179574
0.178997
0.178422
0.177848
0.177276
0.176704
0.176135
0.175566
0.174999
0.174433
0.173869
0.173306
0.172744
0.172183
0.171624
0.171066
0.170509
0.169954
0.169399
0.168846
0.168293
0.167743
0.167193
0.166644
0.166096
0.16555
0.165004
0.16446
0.163916
0.163374
0.162832
0.162292
0.161753
0.161214
0.160677
0.16014
0.159604
0.159069
0.158536
0.158002
0.15747
0.156939
0.156408
0.155879
0.15535
0.154822
0.154294
0.153768
0.153242
0.152717
0.152192
0.151669
0.151146
0.150623
0.150101
0.14958
0.14906
0.14854
0.14802
0.147502
0.146983
0.146466
0.145949
0.145432
0.144916
0.1444
0.143885
0.14337
0.142856
0.142342
0.141828
0.141315
0.140802
0.140289
0.139776
0.139264
0.138752
0.13824
0.137729
0.137217
0.136706
0.136194
0.135683
0.135172
0.13466
0.134149
0.133638
0.133126
0.132615
0.132103
0.131592
0.13108
0.130568
0.130056
0.129544
0.129032
0.128519
0.128007
0.127494
0.126981
0.126468
0.125955
0.125442
0.124929
0.124416
0.123902
0.123389
0.122875
0.122361
0.121847
0.121333
0.120819
0.120305
0.11979
0.119276
0.118761
0.118246
0.11773
0.117215
0.116698
0.116182
0.115665
0.115148
0.114631
0.114113
0.113595
0.113077
0.112559
0.112041
0.111523
0.111005
0.110489
0.109974
0.10946
0.108948
0.108439
0.107934
0.107434
0.106939
0.106452
0.105972
0.105503
0.105046
0.104602
0.104174
0.103764
0.103374
0.103005
0.102659
0.102338
0.102042
0.101774
0.101531
0.101315
0.101123
0.100955
0.100807
0.100674
0.100549
0.100422
0.100273
0.10007
0.0997614
0.0992521
0.0983832
0.0968926
0.0943767
0.0902924
0.0840971
0.0756335
0.0656301
0.0557146
0.0475355
0.0418024
0.0382494
0.0362196
0.035115
0.03453
0.0342248
0.0340668
0.0339854
0.0339435
0.033922
0.0339109
0.0339053
0.0339024
0.0339009
0.0339002
0.0338999
0.0338997
0.0338997
0.0338997
0.0338997
0.0338997
0.0338997
0.0338998
0.0338998
0.0338999
0.0338999
0.0338999
0.0339
0.0339
0.0339
0.0339001
0.0339001
0.0339001
0.0339001
0.0339002
0.0339002
0.0339002
0.0339002
0.0339002
0.0339003
0.0339003
0.0339003
0.0339003
0.0339003
0.0339003
0.0339003
0.0339003
0.0339003
0.0339002
0.0339002
0.0339002
0.0339001
0.0339001
0.0339
0.0339
0.0338999
0.0338998
0.0338998
0.0338997
0.0338996
0.0338995
0.0338994
0.0338992
0.0338991
0.033899
0.0338989
0.0338987
0.0338986
0.0338985
0.0338983
0.0338982
0.033898
0.0338979
0.0338977
0.0338976
0.0338974
0.0338973
0.0338971
0.0338969
0.0338968
0.0338966
0.0338965
0.0338963
0.0338962
0.033896
0.0338959
0.0338957
0.0338956
0.0338954
0.0338953
0.0338951
0.033895
0.0338948
0.0338947
0.0338945
0.0338944
0.0338942
0.0338941
0.0338939
0.0338937
0.0338936
0.0338934
0.0338932
0.033893
0.0338928
0.0338926
0.0338924
0.0338922
0.033892
0.0338917
0.0338915
0.0338913
0.033891
0.0338907
0.0338904
0.0338902
0.0338899
0.0338896
0.0338893
0.033889
0.0338887
0.0338883
0.033888
0.0338877
0.0338874
0.0338871
0.0338868
0.0338865
0.0338862
0.033886
0.0338857
0.0338855
0.0338853
0.0338851
0.0338849
0.0338847
0.0338846
0.0338845
0.0338844
0.0338844
0.0338844
0.0338844
0.0338844
0.0338845
0.0338845
0.0338847
0.0338848
0.033885
0.0338852
0.0338855
0.0338857
0.033886
0.0338863
0.0338866
0.0338869
0.0338872
0.0338875
0.0338879
0.0338882
0.0338885
0.0338888
0.0338891
0.0338894
0.0338897
0.03389
0.0338903
0.0338905
0.0338908
0.033891
0.0338912
0.0338914
0.0338916
0.0338917
0.0338919
0.033892
0.0338921
0.0338923
0.0338924
0.0338925
0.0338925
0.0338926
0.0338927
0.0338927
0.0338928
0.0338929
0.0338929
0.033893
0.033893
0.033893
0.0338931
0.0338931
0.0338932
0.0338932
0.0338933
0.0338933
0.0338934
0.0338934
0.0338935
0.0338935
0.0338936
0.0338936
0.0338937
0.0338937
0.0338938
0.0338938
0.0338939
0.0338939
0.033894
0.0338941
0.0338941
0.0338942
0.0338942
0.0338943
0.0338943
0.0338944
0.0338944
0.0338944
0.0338944
0.0338945
0.0338945
0.0338945
0.0338946
0.0338946
0.0338947
0.0338947
0.0338948
0.0338948
0.0338949
0.033895
0.033895
0.0338951
0.0338952
0.0338953
0.0338954
0.0338955
0.0338956
0.0338957
0.0338959
0.033896
0.0338961
0.0338962
0.0338963
0.0338963
0.0338964
0.0338965
0.0338965
0.0338966
0.0338966
0.0338967
0.0338967
0.0338967
0.0338968
0.0338968
0.0338968
0.0338968
0.0338968
0.0338968
0.0338967
0.0338967
0.0338967
0.0338967
0.0338967
0.0338966
0.0338966
0.0338966
0.0338965
0.0338965
0.0338965
0.0338964
0.0338964
0.0338964
0.0338963
0.0338963
0.0338962
0.0338962
0.0338962
0.0338961
0.0338961
0.033896
0.033896
0.0338959
0.0338959
0.0338959
0.0338958
0.0338958
0.0338957
0.0338956
0.0338956
0.0338955
0.0338955
0.0338954
0.0338953
0.0338953
0.0338952
0.0338951
0.0338951
0.033895
0.0338949
0.0338948
0.0338947
0.0338946
0.0338945
0.0338944
0.0338943
0.0338942
0.0338941
0.033894
0.0338938
0.0338937
0.0338935
0.0338934
0.0338932
0.033893
0.0338929
0.0338927
0.0338925
0.0338923
0.0338921
0.0338918
0.0338916
0.0338914
0.0338911
0.0338909
0.0338906
0.0338904
0.0338901
0.0338898
0.0338895
0.0338893
0.033889
0.0338887
0.0338885
0.0338882
0.0338879
0.0338877
0.0338874
0.0338872
0.0338869
0.0338867
0.0338865
0.0338863
0.0338861
0.033886
0.0338858
0.0338857
0.0338856
0.0338855
0.0338854
0.0338854
0.0338854
0.0338854
0.0338854
0.0338854
0.0338855
0.0338856
0.0338857
0.0338858
0.033886
0.0338862
0.0338864
0.0338866
0.0338868
0.033887
0.0338873
0.0338875
0.0338878
0.0338881
0.0338883
0.0338886
0.0338888
0.0338891
0.0338894
0.0338896
0.0338898
0.0338901
0.0338903
0.0338905
0.0338907
0.0338909
0.0338911
0.0338913
0.0338915
0.0338916
0.0338918
0.0338919
0.0338921
0.0338922
0.0338923
0.0338924
0.0338925
0.0338926
0.0338927
0.0338928
0.0338929
0.033893
0.033893
0.0338931
0.0338932
0.0338932
0.0338933
0.0338934
0.0338934
0.0338935
0.0338935
0.0338936
0.0338937
0.0338937
0.0338938
0.0338938
0.0338939
0.033894
0.033894
0.0338941
0.0338942
0.0338942
0.0338943
0.0338943
0.0338944
0.0338945
0.0338945
0.0338946
0.0338946
0.0338947
0.0338948
0.0338948
0.0338949
0.033895
0.033895
0.0338951
0.0338952
0.0338952
0.0338953
0.0338954
0.0338955
0.0338955
0.0338956
0.0338956
0.0338957
0.0338958
0.0338958
0.0338959
0.033896
0.033896
0.0338961
0.0338961
0.0338961
0.0338962
0.0338962
0.0338963
0.0338963
0.0338963
0.0338964
0.0338964
0.0338964
0.0338964
0.0338964
0.0338964
0.0338964
0.0338964
0.0338964
0.0338964
0.0338964
0.0338964
0.0338964
0.0338964
0.0338964
0.0338964
0.0338964
0.0338963
0.0338963
0.0338963
0.0338963
0.0338962
0.0338962
0.0338962
0.0338962
0.0338961
0.0338961
0.033896
0.033896
0.033896
0.033896
0.0338959
0.0338959
0.0338958
0.0338958
0.0338957
0.0338957
0.0338957
0.0338956
0.0338956
0.0338955
0.0338955
0.0338955
0.0338954
0.0338954
0.0338953
0.0338952
0.0338951
0.0338951
0.033895
0.033895
0.0338949
0.0338949
0.0338947
0.0338947
0.0338946
0.0338945
0.0338944
0.0338944
0.0338942
0.0338942
0.033894
0.0338939
0.0338937
0.0338937
0.0338934
)
;

boundaryField
{
    inlet
    {
        type            calculated;
        value           uniform 0.0976562;
    }
    outlet
    {
        type            calculated;
        value           uniform 0.0338934;
    }
    emptyWalls
    {
        type            empty;
    }
}


// ************************************************************************* //
