/*--------------------------------*- C++ -*----------------------------------*\
  =========                 |
  \\      /  F ield         | OpenFOAM: The Open Source CFD Toolbox
   \\    /   O peration     | Website:  https://openfoam.org
    \\  /    A nd           | Version:  9
     \\/     M anipulation  |
\*---------------------------------------------------------------------------*/
FoamFile
{
    format      ascii;
    class       volVectorField;
    location    "11950";
    object      Ua;
}
// * * * * * * * * * * * * * * * * * * * * * * * * * * * * * * * * * * * * * //

dimensions      [0 0 0 0 0 0 0];

internalField   nonuniform List<vector> 
1000
(
(2.74882e-06 0 0)
(2.74825e-06 0 0)
(2.74788e-06 0 0)
(2.74736e-06 0 0)
(2.7467e-06 0 0)
(2.74587e-06 0 0)
(2.74487e-06 0 0)
(2.74367e-06 0 0)
(2.74228e-06 0 0)
(2.741e-06 0 0)
(2.73959e-06 0 0)
(2.73844e-06 0 0)
(2.7372e-06 0 0)
(2.73463e-06 0 0)
(2.72687e-06 0 0)
(2.69553e-06 0 0)
(2.48939e-06 0 0)
(2.23947e-06 0 0)
(2.15252e-06 0 0)
(2.12647e-06 0 0)
(2.11341e-06 0 0)
(2.10471e-06 0 0)
(2.09801e-06 0 0)
(2.09247e-06 0 0)
(2.08772e-06 0 0)
(2.08355e-06 0 0)
(2.07986e-06 0 0)
(2.07654e-06 0 0)
(2.07353e-06 0 0)
(2.07078e-06 0 0)
(2.06824e-06 0 0)
(2.06587e-06 0 0)
(2.06364e-06 0 0)
(2.06155e-06 0 0)
(2.05958e-06 0 0)
(2.05772e-06 0 0)
(2.0559e-06 0 0)
(2.05417e-06 0 0)
(2.05255e-06 0 0)
(2.05104e-06 0 0)
(2.04962e-06 0 0)
(2.04829e-06 0 0)
(2.04707e-06 0 0)
(2.04597e-06 0 0)
(2.04505e-06 0 0)
(2.04436e-06 0 0)
(2.04392e-06 0 0)
(2.04359e-06 0 0)
(2.04328e-06 0 0)
(2.04298e-06 0 0)
(2.04268e-06 0 0)
(2.0424e-06 0 0)
(2.04212e-06 0 0)
(2.04186e-06 0 0)
(2.04161e-06 0 0)
(2.04137e-06 0 0)
(2.04115e-06 0 0)
(2.04095e-06 0 0)
(2.04076e-06 0 0)
(2.04058e-06 0 0)
(2.04042e-06 0 0)
(2.04028e-06 0 0)
(2.04014e-06 0 0)
(2.04002e-06 0 0)
(2.0399e-06 0 0)
(2.03978e-06 0 0)
(2.03966e-06 0 0)
(2.03953e-06 0 0)
(2.03938e-06 0 0)
(2.03922e-06 0 0)
(2.03905e-06 0 0)
(2.03887e-06 0 0)
(2.0387e-06 0 0)
(2.03854e-06 0 0)
(2.03842e-06 0 0)
(2.03835e-06 0 0)
(2.03833e-06 0 0)
(2.03835e-06 0 0)
(2.03839e-06 0 0)
(2.03844e-06 0 0)
(2.03847e-06 0 0)
(2.03849e-06 0 0)
(2.03853e-06 0 0)
(2.03863e-06 0 0)
(2.03887e-06 0 0)
(2.03931e-06 0 0)
(2.04001e-06 0 0)
(2.04102e-06 0 0)
(2.04235e-06 0 0)
(2.04399e-06 0 0)
(2.04591e-06 0 0)
(2.04807e-06 0 0)
(2.05042e-06 0 0)
(2.05288e-06 0 0)
(2.05541e-06 0 0)
(2.05792e-06 0 0)
(2.06035e-06 0 0)
(2.06259e-06 0 0)
(2.06458e-06 0 0)
(2.0662e-06 0 0)
(2.06738e-06 0 0)
(2.06803e-06 0 0)
(2.06808e-06 0 0)
(2.0675e-06 0 0)
(2.06628e-06 0 0)
(2.06445e-06 0 0)
(2.06206e-06 0 0)
(2.05921e-06 0 0)
(2.05601e-06 0 0)
(2.05258e-06 0 0)
(2.04905e-06 0 0)
(2.04555e-06 0 0)
(2.04218e-06 0 0)
(2.03905e-06 0 0)
(2.03622e-06 0 0)
(2.03375e-06 0 0)
(2.03164e-06 0 0)
(2.0299e-06 0 0)
(2.02852e-06 0 0)
(2.02746e-06 0 0)
(2.02668e-06 0 0)
(2.02614e-06 0 0)
(2.02578e-06 0 0)
(2.02556e-06 0 0)
(2.02544e-06 0 0)
(2.02536e-06 0 0)
(2.0253e-06 0 0)
(2.02524e-06 0 0)
(2.02514e-06 0 0)
(2.025e-06 0 0)
(2.0248e-06 0 0)
(2.02455e-06 0 0)
(2.02423e-06 0 0)
(2.02386e-06 0 0)
(2.02343e-06 0 0)
(2.02295e-06 0 0)
(2.02244e-06 0 0)
(2.02189e-06 0 0)
(2.02131e-06 0 0)
(2.02071e-06 0 0)
(2.02009e-06 0 0)
(2.01946e-06 0 0)
(2.01883e-06 0 0)
(2.01819e-06 0 0)
(2.01755e-06 0 0)
(2.01691e-06 0 0)
(2.01628e-06 0 0)
(2.01564e-06 0 0)
(2.01502e-06 0 0)
(2.01439e-06 0 0)
(2.01378e-06 0 0)
(2.01317e-06 0 0)
(2.01257e-06 0 0)
(2.01197e-06 0 0)
(2.01138e-06 0 0)
(2.0108e-06 0 0)
(2.01022e-06 0 0)
(2.00965e-06 0 0)
(2.00909e-06 0 0)
(2.00854e-06 0 0)
(2.00799e-06 0 0)
(2.00745e-06 0 0)
(2.00692e-06 0 0)
(2.00639e-06 0 0)
(2.00587e-06 0 0)
(2.00536e-06 0 0)
(2.00485e-06 0 0)
(2.00436e-06 0 0)
(2.00387e-06 0 0)
(2.00339e-06 0 0)
(2.00291e-06 0 0)
(2.00245e-06 0 0)
(2.002e-06 0 0)
(2.00155e-06 0 0)
(2.00112e-06 0 0)
(2.00069e-06 0 0)
(2.00028e-06 0 0)
(1.99987e-06 0 0)
(1.99948e-06 0 0)
(1.99909e-06 0 0)
(1.99872e-06 0 0)
(1.99836e-06 0 0)
(1.99801e-06 0 0)
(1.99767e-06 0 0)
(1.99734e-06 0 0)
(1.99702e-06 0 0)
(1.99672e-06 0 0)
(1.99642e-06 0 0)
(1.99614e-06 0 0)
(1.99586e-06 0 0)
(1.9956e-06 0 0)
(1.99535e-06 0 0)
(1.99511e-06 0 0)
(1.99487e-06 0 0)
(1.99465e-06 0 0)
(1.99443e-06 0 0)
(1.99422e-06 0 0)
(1.99401e-06 0 0)
(1.99381e-06 0 0)
(1.99361e-06 0 0)
(1.99342e-06 0 0)
(1.99322e-06 0 0)
(1.99303e-06 0 0)
(1.99284e-06 0 0)
(1.99264e-06 0 0)
(1.99246e-06 0 0)
(1.99227e-06 0 0)
(1.99209e-06 0 0)
(1.99192e-06 0 0)
(1.99175e-06 0 0)
(1.99158e-06 0 0)
(1.99143e-06 0 0)
(1.99128e-06 0 0)
(1.99113e-06 0 0)
(1.991e-06 0 0)
(1.99088e-06 0 0)
(1.99077e-06 0 0)
(1.99067e-06 0 0)
(1.9906e-06 0 0)
(1.99056e-06 0 0)
(1.99056e-06 0 0)
(1.9906e-06 0 0)
(1.9907e-06 0 0)
(1.99087e-06 0 0)
(1.99112e-06 0 0)
(1.99145e-06 0 0)
(1.99188e-06 0 0)
(1.99241e-06 0 0)
(1.99305e-06 0 0)
(1.9938e-06 0 0)
(1.99466e-06 0 0)
(1.99562e-06 0 0)
(1.99669e-06 0 0)
(1.99785e-06 0 0)
(1.99908e-06 0 0)
(2.00038e-06 0 0)
(2.00173e-06 0 0)
(2.00309e-06 0 0)
(2.00445e-06 0 0)
(2.00578e-06 0 0)
(2.00705e-06 0 0)
(2.00823e-06 0 0)
(2.00929e-06 0 0)
(2.0102e-06 0 0)
(2.01093e-06 0 0)
(2.01146e-06 0 0)
(2.01176e-06 0 0)
(2.01182e-06 0 0)
(2.01161e-06 0 0)
(2.01115e-06 0 0)
(2.01041e-06 0 0)
(2.00942e-06 0 0)
(2.00819e-06 0 0)
(2.00673e-06 0 0)
(2.00508e-06 0 0)
(2.00325e-06 0 0)
(2.0013e-06 0 0)
(1.99925e-06 0 0)
(1.99714e-06 0 0)
(1.99502e-06 0 0)
(1.9929e-06 0 0)
(1.99083e-06 0 0)
(1.98883e-06 0 0)
(1.98692e-06 0 0)
(1.98513e-06 0 0)
(1.98347e-06 0 0)
(1.98193e-06 0 0)
(1.98054e-06 0 0)
(1.97928e-06 0 0)
(1.97816e-06 0 0)
(1.97716e-06 0 0)
(1.97628e-06 0 0)
(1.9755e-06 0 0)
(1.97482e-06 0 0)
(1.97422e-06 0 0)
(1.97368e-06 0 0)
(1.97319e-06 0 0)
(1.97275e-06 0 0)
(1.97234e-06 0 0)
(1.97195e-06 0 0)
(1.97157e-06 0 0)
(1.97119e-06 0 0)
(1.97081e-06 0 0)
(1.97042e-06 0 0)
(1.97002e-06 0 0)
(1.9696e-06 0 0)
(1.96916e-06 0 0)
(1.96871e-06 0 0)
(1.96823e-06 0 0)
(1.96774e-06 0 0)
(1.96723e-06 0 0)
(1.9667e-06 0 0)
(1.96616e-06 0 0)
(1.9656e-06 0 0)
(1.96503e-06 0 0)
(1.96445e-06 0 0)
(1.96386e-06 0 0)
(1.96327e-06 0 0)
(1.96267e-06 0 0)
(1.96207e-06 0 0)
(1.96148e-06 0 0)
(1.96088e-06 0 0)
(1.96028e-06 0 0)
(1.95969e-06 0 0)
(1.9591e-06 0 0)
(1.95851e-06 0 0)
(1.95794e-06 0 0)
(1.95736e-06 0 0)
(1.9568e-06 0 0)
(1.95623e-06 0 0)
(1.95568e-06 0 0)
(1.95513e-06 0 0)
(1.95459e-06 0 0)
(1.95405e-06 0 0)
(1.95352e-06 0 0)
(1.953e-06 0 0)
(1.95248e-06 0 0)
(1.95197e-06 0 0)
(1.95146e-06 0 0)
(1.95095e-06 0 0)
(1.95046e-06 0 0)
(1.94996e-06 0 0)
(1.94947e-06 0 0)
(1.94899e-06 0 0)
(1.94851e-06 0 0)
(1.94804e-06 0 0)
(1.94757e-06 0 0)
(1.9471e-06 0 0)
(1.94665e-06 0 0)
(1.94619e-06 0 0)
(1.94574e-06 0 0)
(1.9453e-06 0 0)
(1.94486e-06 0 0)
(1.94443e-06 0 0)
(1.944e-06 0 0)
(1.94358e-06 0 0)
(1.94316e-06 0 0)
(1.94275e-06 0 0)
(1.94235e-06 0 0)
(1.94195e-06 0 0)
(1.94156e-06 0 0)
(1.94118e-06 0 0)
(1.9408e-06 0 0)
(1.94043e-06 0 0)
(1.94006e-06 0 0)
(1.9397e-06 0 0)
(1.93935e-06 0 0)
(1.939e-06 0 0)
(1.93866e-06 0 0)
(1.93833e-06 0 0)
(1.938e-06 0 0)
(1.93768e-06 0 0)
(1.93736e-06 0 0)
(1.93705e-06 0 0)
(1.93674e-06 0 0)
(1.93644e-06 0 0)
(1.93614e-06 0 0)
(1.93585e-06 0 0)
(1.93556e-06 0 0)
(1.93528e-06 0 0)
(1.935e-06 0 0)
(1.93472e-06 0 0)
(1.93444e-06 0 0)
(1.93416e-06 0 0)
(1.93389e-06 0 0)
(1.93362e-06 0 0)
(1.93335e-06 0 0)
(1.93308e-06 0 0)
(1.93282e-06 0 0)
(1.93256e-06 0 0)
(1.93229e-06 0 0)
(1.93203e-06 0 0)
(1.93178e-06 0 0)
(1.93152e-06 0 0)
(1.93127e-06 0 0)
(1.93102e-06 0 0)
(1.93078e-06 0 0)
(1.93054e-06 0 0)
(1.93031e-06 0 0)
(1.93009e-06 0 0)
(1.92988e-06 0 0)
(1.92968e-06 0 0)
(1.92949e-06 0 0)
(1.92932e-06 0 0)
(1.92918e-06 0 0)
(1.92905e-06 0 0)
(1.92895e-06 0 0)
(1.92887e-06 0 0)
(1.92883e-06 0 0)
(1.92883e-06 0 0)
(1.92887e-06 0 0)
(1.92894e-06 0 0)
(1.92907e-06 0 0)
(1.92924e-06 0 0)
(1.92946e-06 0 0)
(1.92974e-06 0 0)
(1.93006e-06 0 0)
(1.93044e-06 0 0)
(1.93087e-06 0 0)
(1.93136e-06 0 0)
(1.93189e-06 0 0)
(1.93247e-06 0 0)
(1.93308e-06 0 0)
(1.93374e-06 0 0)
(1.93442e-06 0 0)
(1.93512e-06 0 0)
(1.93584e-06 0 0)
(1.93656e-06 0 0)
(1.93727e-06 0 0)
(1.93797e-06 0 0)
(1.93864e-06 0 0)
(1.93927e-06 0 0)
(1.93985e-06 0 0)
(1.94037e-06 0 0)
(1.94081e-06 0 0)
(1.94116e-06 0 0)
(1.94142e-06 0 0)
(1.94158e-06 0 0)
(1.94162e-06 0 0)
(1.94154e-06 0 0)
(1.94133e-06 0 0)
(1.94099e-06 0 0)
(1.94052e-06 0 0)
(1.93991e-06 0 0)
(1.93917e-06 0 0)
(1.93831e-06 0 0)
(1.93732e-06 0 0)
(1.93622e-06 0 0)
(1.93502e-06 0 0)
(1.93373e-06 0 0)
(1.93235e-06 0 0)
(1.93091e-06 0 0)
(1.92942e-06 0 0)
(1.92788e-06 0 0)
(1.92633e-06 0 0)
(1.92476e-06 0 0)
(1.9232e-06 0 0)
(1.92165e-06 0 0)
(1.92013e-06 0 0)
(1.91865e-06 0 0)
(1.91721e-06 0 0)
(1.91582e-06 0 0)
(1.91449e-06 0 0)
(1.91323e-06 0 0)
(1.91203e-06 0 0)
(1.91089e-06 0 0)
(1.90982e-06 0 0)
(1.90882e-06 0 0)
(1.90789e-06 0 0)
(1.90702e-06 0 0)
(1.90621e-06 0 0)
(1.90546e-06 0 0)
(1.90477e-06 0 0)
(1.90413e-06 0 0)
(1.90353e-06 0 0)
(1.90299e-06 0 0)
(1.90249e-06 0 0)
(1.90203e-06 0 0)
(1.90161e-06 0 0)
(1.90122e-06 0 0)
(1.90087e-06 0 0)
(1.90054e-06 0 0)
(1.90024e-06 0 0)
(1.89997e-06 0 0)
(1.89971e-06 0 0)
(1.89948e-06 0 0)
(1.89925e-06 0 0)
(1.89904e-06 0 0)
(1.89882e-06 0 0)
(1.89859e-06 0 0)
(1.89833e-06 0 0)
(1.89802e-06 0 0)
(1.8976e-06 0 0)
(1.89698e-06 0 0)
(1.89603e-06 0 0)
(1.89451e-06 0 0)
(1.89207e-06 0 0)
(1.8883e-06 0 0)
(1.88287e-06 0 0)
(1.87595e-06 0 0)
(1.86852e-06 0 0)
(1.86205e-06 0 0)
(1.85751e-06 0 0)
(1.85483e-06 0 0)
(1.8534e-06 0 0)
(1.85262e-06 0 0)
(1.85217e-06 0 0)
(1.85186e-06 0 0)
(1.85162e-06 0 0)
(1.85142e-06 0 0)
(1.85124e-06 0 0)
(1.85108e-06 0 0)
(1.85092e-06 0 0)
(1.85076e-06 0 0)
(1.85061e-06 0 0)
(1.85046e-06 0 0)
(1.85032e-06 0 0)
(1.85018e-06 0 0)
(1.85004e-06 0 0)
(1.84991e-06 0 0)
(1.84979e-06 0 0)
(1.84966e-06 0 0)
(1.84954e-06 0 0)
(1.84943e-06 0 0)
(1.84932e-06 0 0)
(1.84921e-06 0 0)
(1.84911e-06 0 0)
(1.84901e-06 0 0)
(1.84891e-06 0 0)
(1.84882e-06 0 0)
(1.84874e-06 0 0)
(1.84865e-06 0 0)
(1.84857e-06 0 0)
(1.8485e-06 0 0)
(1.84843e-06 0 0)
(1.84836e-06 0 0)
(1.8483e-06 0 0)
(1.84824e-06 0 0)
(1.84819e-06 0 0)
(1.84813e-06 0 0)
(1.84809e-06 0 0)
(1.84804e-06 0 0)
(1.848e-06 0 0)
(1.84797e-06 0 0)
(1.84793e-06 0 0)
(1.84791e-06 0 0)
(1.84788e-06 0 0)
(1.84786e-06 0 0)
(1.84784e-06 0 0)
(1.84783e-06 0 0)
(1.84782e-06 0 0)
(1.84782e-06 0 0)
(1.84782e-06 0 0)
(1.84782e-06 0 0)
(1.84782e-06 0 0)
(1.84783e-06 0 0)
(1.84784e-06 0 0)
(1.84786e-06 0 0)
(1.84788e-06 0 0)
(1.84791e-06 0 0)
(1.84794e-06 0 0)
(1.84797e-06 0 0)
(1.84801e-06 0 0)
(1.84805e-06 0 0)
(1.84809e-06 0 0)
(1.84814e-06 0 0)
(1.84819e-06 0 0)
(1.84824e-06 0 0)
(1.8483e-06 0 0)
(1.84836e-06 0 0)
(1.84842e-06 0 0)
(1.84849e-06 0 0)
(1.84855e-06 0 0)
(1.84863e-06 0 0)
(1.8487e-06 0 0)
(1.84878e-06 0 0)
(1.84886e-06 0 0)
(1.84894e-06 0 0)
(1.84903e-06 0 0)
(1.84911e-06 0 0)
(1.8492e-06 0 0)
(1.8493e-06 0 0)
(1.84939e-06 0 0)
(1.84949e-06 0 0)
(1.8496e-06 0 0)
(1.8497e-06 0 0)
(1.84981e-06 0 0)
(1.84993e-06 0 0)
(1.85005e-06 0 0)
(1.85017e-06 0 0)
(1.8503e-06 0 0)
(1.85044e-06 0 0)
(1.85058e-06 0 0)
(1.85074e-06 0 0)
(1.8509e-06 0 0)
(1.85107e-06 0 0)
(1.85125e-06 0 0)
(1.85145e-06 0 0)
(1.85166e-06 0 0)
(1.85188e-06 0 0)
(1.85212e-06 0 0)
(1.85238e-06 0 0)
(1.85266e-06 0 0)
(1.85296e-06 0 0)
(1.85328e-06 0 0)
(1.85363e-06 0 0)
(1.854e-06 0 0)
(1.85439e-06 0 0)
(1.85482e-06 0 0)
(1.85527e-06 0 0)
(1.85575e-06 0 0)
(1.85626e-06 0 0)
(1.8568e-06 0 0)
(1.85738e-06 0 0)
(1.85798e-06 0 0)
(1.85861e-06 0 0)
(1.85927e-06 0 0)
(1.85996e-06 0 0)
(1.86068e-06 0 0)
(1.86142e-06 0 0)
(1.86219e-06 0 0)
(1.86298e-06 0 0)
(1.86378e-06 0 0)
(1.8646e-06 0 0)
(1.86543e-06 0 0)
(1.86627e-06 0 0)
(1.86712e-06 0 0)
(1.86796e-06 0 0)
(1.86879e-06 0 0)
(1.86961e-06 0 0)
(1.87042e-06 0 0)
(1.8712e-06 0 0)
(1.87196e-06 0 0)
(1.87268e-06 0 0)
(1.87337e-06 0 0)
(1.874e-06 0 0)
(1.87459e-06 0 0)
(1.87512e-06 0 0)
(1.87559e-06 0 0)
(1.87599e-06 0 0)
(1.87633e-06 0 0)
(1.87659e-06 0 0)
(1.87678e-06 0 0)
(1.87688e-06 0 0)
(1.87693e-06 0 0)
(1.87694e-06 0 0)
(1.87692e-06 0 0)
(1.8768e-06 0 0)
(1.87655e-06 0 0)
(1.87621e-06 0 0)
(1.87579e-06 0 0)
(1.87531e-06 0 0)
(1.87477e-06 0 0)
(1.87417e-06 0 0)
(1.87353e-06 0 0)
(1.87284e-06 0 0)
(1.87212e-06 0 0)
(1.87137e-06 0 0)
(1.87059e-06 0 0)
(1.8698e-06 0 0)
(1.869e-06 0 0)
(1.8682e-06 0 0)
(1.8674e-06 0 0)
(1.86662e-06 0 0)
(1.86585e-06 0 0)
(1.86509e-06 0 0)
(1.86436e-06 0 0)
(1.86366e-06 0 0)
(1.86299e-06 0 0)
(1.86235e-06 0 0)
(1.86175e-06 0 0)
(1.86118e-06 0 0)
(1.86065e-06 0 0)
(1.86016e-06 0 0)
(1.8597e-06 0 0)
(1.85927e-06 0 0)
(1.85888e-06 0 0)
(1.85853e-06 0 0)
(1.8582e-06 0 0)
(1.8579e-06 0 0)
(1.85763e-06 0 0)
(1.85738e-06 0 0)
(1.85716e-06 0 0)
(1.85695e-06 0 0)
(1.85676e-06 0 0)
(1.85659e-06 0 0)
(1.85643e-06 0 0)
(1.85628e-06 0 0)
(1.85613e-06 0 0)
(1.856e-06 0 0)
(1.85587e-06 0 0)
(1.85574e-06 0 0)
(1.85561e-06 0 0)
(1.85549e-06 0 0)
(1.85536e-06 0 0)
(1.85523e-06 0 0)
(1.8551e-06 0 0)
(1.85497e-06 0 0)
(1.85484e-06 0 0)
(1.8547e-06 0 0)
(1.85455e-06 0 0)
(1.8544e-06 0 0)
(1.85425e-06 0 0)
(1.85409e-06 0 0)
(1.85393e-06 0 0)
(1.85377e-06 0 0)
(1.8536e-06 0 0)
(1.85343e-06 0 0)
(1.85326e-06 0 0)
(1.85308e-06 0 0)
(1.85291e-06 0 0)
(1.85273e-06 0 0)
(1.85255e-06 0 0)
(1.85237e-06 0 0)
(1.85219e-06 0 0)
(1.85202e-06 0 0)
(1.85184e-06 0 0)
(1.85166e-06 0 0)
(1.85149e-06 0 0)
(1.85132e-06 0 0)
(1.85115e-06 0 0)
(1.85098e-06 0 0)
(1.85082e-06 0 0)
(1.85066e-06 0 0)
(1.85051e-06 0 0)
(1.85036e-06 0 0)
(1.85021e-06 0 0)
(1.85007e-06 0 0)
(1.84994e-06 0 0)
(1.8498e-06 0 0)
(1.84968e-06 0 0)
(1.84955e-06 0 0)
(1.84944e-06 0 0)
(1.84932e-06 0 0)
(1.84922e-06 0 0)
(1.84911e-06 0 0)
(1.84901e-06 0 0)
(1.84892e-06 0 0)
(1.84883e-06 0 0)
(1.84875e-06 0 0)
(1.84867e-06 0 0)
(1.8486e-06 0 0)
(1.84852e-06 0 0)
(1.84846e-06 0 0)
(1.8484e-06 0 0)
(1.84834e-06 0 0)
(1.84829e-06 0 0)
(1.84824e-06 0 0)
(1.84819e-06 0 0)
(1.84815e-06 0 0)
(1.84811e-06 0 0)
(1.84808e-06 0 0)
(1.84805e-06 0 0)
(1.84803e-06 0 0)
(1.848e-06 0 0)
(1.84799e-06 0 0)
(1.84797e-06 0 0)
(1.84796e-06 0 0)
(1.84796e-06 0 0)
(1.84795e-06 0 0)
(1.84795e-06 0 0)
(1.84795e-06 0 0)
(1.84796e-06 0 0)
(1.84797e-06 0 0)
(1.84798e-06 0 0)
(1.848e-06 0 0)
(1.84803e-06 0 0)
(1.84805e-06 0 0)
(1.84808e-06 0 0)
(1.84812e-06 0 0)
(1.84816e-06 0 0)
(1.8482e-06 0 0)
(1.84824e-06 0 0)
(1.84829e-06 0 0)
(1.84834e-06 0 0)
(1.8484e-06 0 0)
(1.84846e-06 0 0)
(1.84852e-06 0 0)
(1.84859e-06 0 0)
(1.84866e-06 0 0)
(1.84874e-06 0 0)
(1.84881e-06 0 0)
(1.8489e-06 0 0)
(1.84898e-06 0 0)
(1.84907e-06 0 0)
(1.84916e-06 0 0)
(1.84926e-06 0 0)
(1.84936e-06 0 0)
(1.84947e-06 0 0)
(1.84958e-06 0 0)
(1.84969e-06 0 0)
(1.84981e-06 0 0)
(1.84994e-06 0 0)
(1.85007e-06 0 0)
(1.85021e-06 0 0)
(1.85035e-06 0 0)
(1.8505e-06 0 0)
(1.85066e-06 0 0)
(1.85083e-06 0 0)
(1.851e-06 0 0)
(1.85119e-06 0 0)
(1.85139e-06 0 0)
(1.85159e-06 0 0)
(1.85181e-06 0 0)
(1.85205e-06 0 0)
(1.85229e-06 0 0)
(1.85255e-06 0 0)
(1.85283e-06 0 0)
(1.85313e-06 0 0)
(1.85344e-06 0 0)
(1.85377e-06 0 0)
(1.85412e-06 0 0)
(1.85449e-06 0 0)
(1.85488e-06 0 0)
(1.85529e-06 0 0)
(1.85573e-06 0 0)
(1.85619e-06 0 0)
(1.85667e-06 0 0)
(1.85717e-06 0 0)
(1.8577e-06 0 0)
(1.85825e-06 0 0)
(1.85882e-06 0 0)
(1.85941e-06 0 0)
(1.86003e-06 0 0)
(1.86066e-06 0 0)
(1.86132e-06 0 0)
(1.86199e-06 0 0)
(1.86268e-06 0 0)
(1.86338e-06 0 0)
(1.86409e-06 0 0)
(1.86481e-06 0 0)
(1.86554e-06 0 0)
(1.86627e-06 0 0)
(1.867e-06 0 0)
(1.86772e-06 0 0)
(1.86844e-06 0 0)
(1.86915e-06 0 0)
(1.86985e-06 0 0)
(1.87052e-06 0 0)
(1.87118e-06 0 0)
(1.87181e-06 0 0)
(1.8724e-06 0 0)
(1.87297e-06 0 0)
(1.87349e-06 0 0)
(1.87398e-06 0 0)
(1.87442e-06 0 0)
(1.87481e-06 0 0)
(1.87515e-06 0 0)
(1.87543e-06 0 0)
(1.87566e-06 0 0)
(1.87583e-06 0 0)
(1.87593e-06 0 0)
(1.87599e-06 0 0)
(1.876e-06 0 0)
(1.876e-06 0 0)
(1.87595e-06 0 0)
(1.87579e-06 0 0)
(1.87552e-06 0 0)
(1.87521e-06 0 0)
(1.87484e-06 0 0)
(1.87442e-06 0 0)
(1.87395e-06 0 0)
(1.87344e-06 0 0)
(1.87288e-06 0 0)
(1.8723e-06 0 0)
(1.87168e-06 0 0)
(1.87103e-06 0 0)
(1.87036e-06 0 0)
(1.86968e-06 0 0)
(1.86899e-06 0 0)
(1.86829e-06 0 0)
(1.86759e-06 0 0)
(1.86689e-06 0 0)
(1.86621e-06 0 0)
(1.86553e-06 0 0)
(1.86486e-06 0 0)
(1.86422e-06 0 0)
(1.86359e-06 0 0)
(1.86298e-06 0 0)
(1.8624e-06 0 0)
(1.86184e-06 0 0)
(1.86131e-06 0 0)
(1.86081e-06 0 0)
(1.86033e-06 0 0)
(1.85988e-06 0 0)
(1.85945e-06 0 0)
(1.85905e-06 0 0)
(1.85867e-06 0 0)
(1.85832e-06 0 0)
(1.85799e-06 0 0)
(1.85768e-06 0 0)
(1.85739e-06 0 0)
(1.85712e-06 0 0)
(1.85686e-06 0 0)
(1.85662e-06 0 0)
(1.85639e-06 0 0)
(1.85617e-06 0 0)
(1.85596e-06 0 0)
(1.85576e-06 0 0)
(1.85557e-06 0 0)
(1.85538e-06 0 0)
(1.8552e-06 0 0)
(1.85502e-06 0 0)
(1.85485e-06 0 0)
(1.85468e-06 0 0)
(1.8545e-06 0 0)
(1.85433e-06 0 0)
(1.85416e-06 0 0)
(1.85399e-06 0 0)
(1.85382e-06 0 0)
(1.85365e-06 0 0)
(1.85347e-06 0 0)
(1.8533e-06 0 0)
(1.85312e-06 0 0)
(1.85294e-06 0 0)
(1.85277e-06 0 0)
(1.85259e-06 0 0)
(1.85241e-06 0 0)
(1.85223e-06 0 0)
(1.85205e-06 0 0)
(1.85187e-06 0 0)
(1.85169e-06 0 0)
(1.85151e-06 0 0)
(1.85133e-06 0 0)
(1.85115e-06 0 0)
(1.85098e-06 0 0)
(1.85081e-06 0 0)
(1.85064e-06 0 0)
(1.85047e-06 0 0)
(1.8503e-06 0 0)
(1.85014e-06 0 0)
(1.84998e-06 0 0)
(1.84983e-06 0 0)
(1.84968e-06 0 0)
(1.84954e-06 0 0)
(1.84939e-06 0 0)
(1.84926e-06 0 0)
(1.84913e-06 0 0)
(1.849e-06 0 0)
(1.84888e-06 0 0)
(1.84876e-06 0 0)
(1.84865e-06 0 0)
(1.84855e-06 0 0)
(1.84844e-06 0 0)
(1.84835e-06 0 0)
(1.84826e-06 0 0)
(1.84817e-06 0 0)
(1.8481e-06 0 0)
(1.84802e-06 0 0)
(1.84795e-06 0 0)
(1.84789e-06 0 0)
(1.84783e-06 0 0)
(1.84778e-06 0 0)
(1.84773e-06 0 0)
(1.84769e-06 0 0)
(1.84765e-06 0 0)
(1.84762e-06 0 0)
(1.84759e-06 0 0)
(1.84757e-06 0 0)
(1.84755e-06 0 0)
(1.84753e-06 0 0)
(1.84753e-06 0 0)
(1.84752e-06 0 0)
(1.84752e-06 0 0)
(1.84752e-06 0 0)
(1.84752e-06 0 0)
(1.84753e-06 0 0)
(1.84754e-06 0 0)
(1.84756e-06 0 0)
(1.84759e-06 0 0)
(1.84762e-06 0 0)
(1.84765e-06 0 0)
(1.84768e-06 0 0)
(1.84772e-06 0 0)
(1.84776e-06 0 0)
(1.84781e-06 0 0)
(1.84786e-06 0 0)
(1.84791e-06 0 0)
(1.84796e-06 0 0)
(1.84802e-06 0 0)
(1.84809e-06 0 0)
(1.84815e-06 0 0)
(1.84822e-06 0 0)
(1.8483e-06 0 0)
(1.84837e-06 0 0)
(1.84845e-06 0 0)
(1.84853e-06 0 0)
(1.84862e-06 0 0)
(1.84871e-06 0 0)
(1.8488e-06 0 0)
(1.8489e-06 0 0)
(1.849e-06 0 0)
(1.84911e-06 0 0)
(1.84922e-06 0 0)
(1.84933e-06 0 0)
(1.84945e-06 0 0)
(1.84957e-06 0 0)
(1.8497e-06 0 0)
(1.84983e-06 0 0)
(1.84997e-06 0 0)
(1.85012e-06 0 0)
(1.85027e-06 0 0)
(1.85043e-06 0 0)
(1.85059e-06 0 0)
(1.85076e-06 0 0)
(1.85095e-06 0 0)
(1.85114e-06 0 0)
(1.85134e-06 0 0)
(1.85155e-06 0 0)
(1.85177e-06 0 0)
(1.852e-06 0 0)
(1.85224e-06 0 0)
(1.8525e-06 0 0)
(1.85277e-06 0 0)
(1.85306e-06 0 0)
(1.85335e-06 0 0)
(1.85367e-06 0 0)
(1.854e-06 0 0)
(1.85434e-06 0 0)
(1.85471e-06 0 0)
)
;

boundaryField
{
    inlet
    {
        type            fixedValue;
        value           uniform (2.74882e-06 0 0);
    }
    outlet
    {
        type            zeroGradient;
    }
    emptyWalls
    {
        type            empty;
    }
}


// ************************************************************************* //
