/*--------------------------------*- C++ -*----------------------------------*\
  =========                 |
  \\      /  F ield         | OpenFOAM: The Open Source CFD Toolbox
   \\    /   O peration     | Website:  https://openfoam.org
    \\  /    A nd           | Version:  9
     \\/     M anipulation  |
\*---------------------------------------------------------------------------*/
FoamFile
{
    format      ascii;
    class       volScalarField;
    location    "6150";
    object      kra;
}
// * * * * * * * * * * * * * * * * * * * * * * * * * * * * * * * * * * * * * //

dimensions      [0 0 0 0 0 0 0];

internalField   nonuniform List<scalar> 
1000
(
0.00023818
0.000242801
0.000247496
0.000251612
0.000255545
0.000259635
0.000270282
0.000306679
0.000543182
0.000841523
0.000898208
0.000914088
0.000921085
0.000924162
0.000925761
0.000926105
0.000925987
0.000925156
0.000924728
0.000922812
0.000919978
0.000916033
0.000909956
0.000902311
0.000893174
0.000883483
0.000873611
0.000863773
0.000854068
0.00084455
0.00083524
0.000826158
0.000817316
0.000808714
0.000800349
0.000792211
0.0007843
0.000776625
0.000769196
0.000762011
0.000755054
0.000748289
0.000741686
0.00073522
0.000728899
0.000722741
0.000716797
0.000711095
0.000705684
0.000700553
0.00069572
0.000691129
0.000686779
0.000682584
0.000678549
0.000674572
0.000670672
0.000666738
0.000662795
0.000658729
0.00065456
0.000650191
0.00064564
0.000640851
0.000635849
0.000630636
0.000625254
0.000619757
0.000614202
0.000608669
0.000603217
0.000597916
0.000592814
0.000587949
0.000583345
0.000579005
0.000574929
0.000571096
0.000567486
0.000564067
0.00056081
0.000557685
0.00055466
0.000551711
0.000548815
0.000545954
0.000543114
0.000540286
0.000537462
0.000534641
0.000531821
0.000529004
0.00052619
0.000523384
0.000520588
0.000517806
0.000515041
0.000512296
0.000509573
0.000506874
0.0005042
0.000501553
0.000498933
0.00049634
0.000493775
0.000491238
0.000488729
0.000486247
0.000483792
0.000481365
0.000478965
0.000476591
0.000474245
0.000471926
0.000469633
0.000467367
0.000465128
0.000462915
0.000460729
0.000458567
0.000456432
0.000454322
0.000452236
0.000450174
0.000448135
0.000446119
0.000444125
0.000442152
0.0004402
0.000438268
0.000436355
0.000434461
0.000432586
0.000430728
0.000428888
0.000427064
0.000425258
0.000423467
0.000421693
0.000419934
0.000418191
0.000416463
0.00041475
0.000413052
0.000411369
0.000409701
0.000408048
0.00040641
0.000404786
0.000403178
0.000401585
0.000400007
0.000398444
0.000396896
0.000395364
0.000393846
0.000392343
0.000390855
0.00038938
0.00038792
0.000386474
0.00038504
0.00038362
0.000382212
0.000380816
0.00037943
0.000378056
0.000376692
0.000375338
0.000373994
0.000372658
0.00037133
0.000370011
0.000368698
0.000367394
0.000366095
0.000364804
0.000363519
0.00036224
0.000360967
0.000359701
0.000358441
0.000357187
0.000355941
0.000354702
0.00035347
0.000352246
0.000351029
0.000349819
0.000348617
0.000347423
0.000346236
0.000345057
0.000343885
0.000342723
0.000341568
0.000340424
0.00033929
0.000338167
0.000337058
0.000335963
0.000334883
0.000333821
0.000332777
0.000331752
0.000330748
0.000329765
0.000328802
0.000327861
0.000326939
0.000326036
0.000325151
0.000324279
0.000323421
0.00032257
0.000321726
0.000320882
0.000320036
0.000319183
0.000318317
0.000317437
0.000316535
0.00031561
0.000314657
0.000313675
0.000312663
0.000311619
0.000310547
0.000309448
0.000308329
0.000307194
0.000306055
0.000304918
0.000303794
0.000302692
0.000301616
0.00030057
0.00029954
0.000298502
0.000297397
0.000296123
0.000294491
0.000292214
0.000288858
0.000283943
0.000277159
0.000268937
0.000260629
0.000253969
0.000249678
0.000247348
0.000246198
0.000245624
0.000245351
0.000245211
0.000245138
0.000245122
0.000245124
0.000245134
0.000245159
0.00024519
0.000245226
0.000245264
0.000245303
0.000245341
0.000245378
0.000245412
0.000245444
0.000245473
0.000245498
0.000245518
0.000245535
0.000245546
0.000245552
0.000245554
0.000245555
0.000245554
0.000245548
0.000245535
0.000245518
0.000245499
0.000245477
0.000245452
0.000245425
0.000245395
0.000245364
0.00024533
0.000245295
0.000245258
0.00024522
0.000245181
0.000245141
0.0002451
0.000245058
0.000245016
0.000244973
0.00024493
0.000244887
0.000244845
0.000244802
0.00024476
0.000244718
0.000244676
0.000244636
0.000244596
0.000244556
0.000244518
0.000244481
0.000244445
0.000244409
0.000244375
0.000244342
0.000244311
0.00024428
0.000244251
0.000244223
0.000244196
0.000244171
0.000244146
0.000244123
0.000244101
0.00024408
0.00024406
0.000244042
0.000244024
0.000244007
0.000243991
0.000243976
0.000243961
0.000243947
0.000243934
0.000243921
0.000243909
0.000243897
0.000243886
0.000243875
0.000243864
0.000243854
0.000243844
0.000243835
0.000243826
0.000243817
0.000243808
0.0002438
0.000243793
0.000243786
0.000243779
0.000243774
0.000243768
0.000243764
0.000243761
0.000243758
0.000243756
0.000243756
0.000243756
0.000243756
0.000243756
0.00024376
0.000243765
0.000243772
0.000243779
0.000243789
0.000243799
0.000243811
0.000243825
0.00024384
0.000243856
0.000243874
0.000243893
0.000243914
0.000243935
0.000243959
0.000243983
0.000244008
0.000244035
0.000244063
0.000244091
0.000244121
0.000244151
0.000244183
0.000244215
0.000244248
0.000244282
0.000244317
0.000244352
0.000244388
0.000244425
0.000244463
0.000244501
0.000244541
0.000244581
0.000244623
0.000244666
0.00024471
0.000244756
0.000244804
0.000244853
0.000244905
0.00024496
0.000245017
0.000245077
0.000245142
0.00024521
0.000245282
0.000245359
0.000245441
0.000245528
0.000245622
0.000245722
0.000245828
0.00024594
0.00024606
0.000246186
0.00024632
0.000246459
0.000246606
0.000246758
0.000246917
0.00024708
0.000247248
0.000247418
0.000247592
0.000247766
0.000247941
0.000248113
0.000248283
0.000248447
0.000248606
0.000248755
0.000248895
0.000249023
0.000249138
0.000249237
0.00024932
0.000249383
0.000249427
0.00024945
0.000249456
0.000249456
0.000249451
0.000249415
0.000249334
0.000249232
0.00024911
0.000248971
0.000248815
0.000248646
0.000248464
0.000248274
0.000248077
0.000247876
0.000247673
0.000247472
0.000247274
0.000247081
0.000246896
0.000246721
0.000246556
0.000246402
0.000246261
0.000246134
0.000246019
0.000245918
0.00024583
0.000245755
0.000245691
0.000245639
0.000245598
0.000245566
0.000245542
0.000245527
0.000245518
0.000245514
0.000245514
0.000245514
0.000245518
0.000245529
0.000245542
0.000245555
0.000245568
0.00024558
0.000245591
0.000245601
0.000245608
0.000245614
0.000245617
0.000245618
0.000245618
0.000245618
0.000245615
0.000245606
0.000245595
0.000245581
0.000245565
0.000245547
0.000245526
0.000245504
0.000245479
0.000245453
0.000245426
0.000245397
0.000245366
0.000245334
0.000245301
0.000245267
0.000245232
0.000245196
0.00024516
0.000245122
0.000245084
0.000245045
0.000245006
0.000244967
0.000244927
0.000244887
0.000244846
0.000244806
0.000244766
0.000244725
0.000244686
0.000244646
0.000244606
0.000244568
0.000244529
0.000244492
0.000244455
0.000244418
0.000244383
0.000244349
0.000244315
0.000244283
0.000244252
0.000244222
0.000244193
0.000244165
0.000244139
0.000244114
0.000244091
0.000244068
0.000244047
0.000244027
0.000244009
0.000243992
0.000243976
0.000243961
0.000243948
0.000243936
0.000243924
0.000243914
0.000243905
0.000243897
0.00024389
0.000243883
0.000243878
0.000243873
0.000243868
0.000243865
0.000243862
0.00024386
0.000243858
0.000243856
0.000243856
0.000243855
0.000243855
0.000243855
0.000243856
0.000243857
0.000243859
0.000243861
0.000243865
0.000243868
0.000243872
0.000243877
0.000243883
0.000243889
0.000243897
0.000243905
0.000243914
0.000243924
0.000243936
0.000243948
0.000243962
0.000243977
0.000243994
0.000244011
0.000244031
0.000244052
0.000244075
0.000244099
0.000244125
0.000244153
0.000244182
0.000244213
0.000244246
0.000244281
0.000244318
0.000244356
0.000244397
0.000244439
0.000244483
0.000244529
0.000244578
0.000244628
0.00024468
0.000244735
0.000244792
0.000244851
0.000244913
0.000244977
0.000245045
0.000245115
0.000245189
0.000245265
0.000245346
0.00024543
0.000245518
0.000245609
0.000245705
0.000245805
0.00024591
0.000246018
0.000246132
0.000246249
0.000246372
0.000246498
0.000246629
0.000246763
0.000246901
0.000247042
0.000247186
0.000247332
0.000247479
0.000247627
0.000247776
0.000247923
0.000248069
0.000248211
0.000248351
0.000248485
0.000248613
0.000248734
0.000248847
0.00024895
0.000249042
0.000249123
0.000249191
0.000249245
0.000249284
0.000249306
0.000249315
0.000249315
0.000249313
0.000249299
0.000249244
0.000249171
0.000249081
0.000248976
0.000248857
0.000248726
0.000248582
0.000248429
0.000248267
0.000248099
0.000247927
0.000247751
0.000247574
0.000247398
0.000247224
0.000247054
0.000246889
0.00024673
0.000246579
0.000246435
0.000246301
0.000246175
0.00024606
0.000245953
0.000245857
0.00024577
0.000245692
0.000245623
0.000245562
0.000245508
0.000245462
0.000245423
0.000245389
0.000245361
0.000245337
0.000245317
0.0002453
0.000245287
0.000245275
0.000245265
0.000245257
0.000245249
0.000245241
0.000245234
0.000245226
0.000245218
0.000245209
0.000245199
0.000245188
0.000245177
0.000245163
0.000245149
0.000245133
0.000245117
0.000245099
0.00024508
0.000245059
0.000245038
0.000245016
0.000244993
0.000244969
0.000244945
0.00024492
0.000244894
0.000244868
0.000244842
0.000244815
0.000244788
0.00024476
0.000244733
0.000244705
0.000244677
0.000244649
0.000244621
0.000244593
0.000244565
0.000244537
0.000244509
0.000244481
0.000244453
0.000244425
0.000244398
0.00024437
0.000244343
0.000244316
0.000244289
0.000244262
0.000244236
0.00024421
0.000244184
0.000244158
0.000244133
0.000244109
0.000244085
0.000244061
0.000244039
0.000244016
0.000243995
0.000243974
0.000243954
0.000243934
0.000243916
0.000243898
0.000243881
0.000243865
0.00024385
0.000243837
0.000243824
0.000243812
0.000243801
0.000243791
0.000243783
0.000243775
0.000243768
0.000243763
0.000243758
0.000243755
0.000243752
0.000243751
0.00024375
0.00024375
0.00024375
0.000243751
0.000243754
0.000243757
0.000243762
0.000243767
0.000243773
0.000243779
0.000243786
0.000243793
0.000243801
0.000243809
0.000243818
0.000243827
0.000243837
0.000243847
0.000243857
0.000243868
0.00024388
0.000243891
0.000243904
0.000243916
0.00024393
0.000243944
0.00024396
0.000243975
0.000243992
0.00024401
0.000244029
0.000244049
0.000244071
0.000244094
0.000244118
0.000244144
0.000244173
0.000244203
0.000244235
0.000244269
0.000244306
0.000244345
0.000244387
0.000244431
0.000244478
0.000244528
0.000244582
0.000244638
0.000244698
0.000244761
0.000244829
0.000244899
0.000244974
0.000245052
0.000245134
0.00024522
0.000245311
0.000245404
0.000245503
0.000245605
0.000245712
0.000245822
0.000245936
0.000246053
0.000246175
0.000246299
0.000246426
0.000246555
0.000246688
0.000246821
0.000246956
0.000247092
0.000247228
0.000247363
0.000247498
0.000247631
0.000247761
0.000247888
0.00024801
0.000248128
0.00024824
0.000248344
0.000248442
0.00024853
0.00024861
0.000248679
0.000248738
0.000248784
0.000248818
0.000248838
0.000248846
0.000248846
0.000248845
0.000248835
0.000248791
0.000248731
0.000248657
0.000248571
0.000248472
0.000248362
0.000248242
0.000248113
0.000247975
0.000247831
0.000247681
0.000247528
0.000247372
0.000247215
0.000247058
0.000246903
0.00024675
0.000246602
0.000246458
0.000246319
0.000246187
0.000246062
0.000245944
0.000245834
0.000245732
0.000245638
0.000245552
0.000245474
0.000245404
0.000245341
0.000245285
0.000245235
0.000245192
0.000245155
0.000245122
0.000245095
0.000245072
0.000245053
0.000245037
0.000245023
0.000245013
0.000245004
0.000244997
0.000244992
0.000244987
0.000244983
0.00024498
0.000244977
0.000244974
0.000244971
0.000244968
0.000244965
0.000244961
0.000244957
0.000244952
0.000244947
0.000244941
0.000244935
0.000244928
0.000244921
0.000244914
0.000244906
0.000244898
0.000244889
0.00024488
0.000244872
0.000244863
0.000244854
0.000244844
0.000244835
0.000244826
0.000244817
0.000244807
0.000244798
0.000244788
0.000244779
0.00024477
0.00024476
0.00024475
0.000244741
0.000244731
0.000244721
0.00024471
0.0002447
0.000244689
0.000244678
0.000244666
0.000244655
0.000244642
0.00024463
0.000244616
0.000244603
0.000244589
0.000244574
0.000244559
0.000244543
0.000244527
0.00024451
0.000244492
0.000244475
0.000244456
0.000244438
0.000244418
0.000244399
0.000244379
0.000244359
0.000244339
0.000244318
0.000244298
0.000244277
0.000244257
0.000244236
0.000244216
0.000244196
0.000244177
0.000244158
0.000244139
0.000244122
0.000244105
0.000244088
0.000244073
0.000244059
0.000244045
0.000244033
0.000244022
0.000244012
0.000244004
0.000243997
0.000243991
0.000243987
0.000243984
0.000243983
0.000243982
0.000243998
)
;

boundaryField
{
    inlet
    {
        type            calculated;
        value           uniform 0.000236304;
    }
    outlet
    {
        type            calculated;
        value           uniform 0.00024398;
    }
    emptyWalls
    {
        type            empty;
    }
}


// ************************************************************************* //
