/*--------------------------------*- C++ -*----------------------------------*\
  =========                 |
  \\      /  F ield         | OpenFOAM: The Open Source CFD Toolbox
   \\    /   O peration     | Website:  https://openfoam.org
    \\  /    A nd           | Version:  9
     \\/     M anipulation  |
\*---------------------------------------------------------------------------*/
FoamFile
{
    format      ascii;
    class       volVectorField;
    location    "6150";
    object      Ub;
}
// * * * * * * * * * * * * * * * * * * * * * * * * * * * * * * * * * * * * * //

dimensions      [0 0 0 0 0 0 0];

internalField   nonuniform List<vector> 
1000
(
(1.13621e-05 0 0)
(1.13626e-05 0 0)
(1.13636e-05 0 0)
(1.13644e-05 0 0)
(1.13659e-05 0 0)
(1.13686e-05 0 0)
(1.13759e-05 0 0)
(1.14106e-05 0 0)
(1.15741e-05 0 0)
(1.17403e-05 0 0)
(1.17801e-05 0 0)
(1.17927e-05 0 0)
(1.1799e-05 0 0)
(1.18028e-05 0 0)
(1.1805e-05 0 0)
(1.18063e-05 0 0)
(1.18069e-05 0 0)
(1.1807e-05 0 0)
(1.18067e-05 0 0)
(1.18057e-05 0 0)
(1.18038e-05 0 0)
(1.18001e-05 0 0)
(1.17936e-05 0 0)
(1.1784e-05 0 0)
(1.17719e-05 0 0)
(1.17585e-05 0 0)
(1.17442e-05 0 0)
(1.17293e-05 0 0)
(1.17141e-05 0 0)
(1.16985e-05 0 0)
(1.16826e-05 0 0)
(1.16666e-05 0 0)
(1.16504e-05 0 0)
(1.1634e-05 0 0)
(1.16174e-05 0 0)
(1.16008e-05 0 0)
(1.15839e-05 0 0)
(1.15669e-05 0 0)
(1.15497e-05 0 0)
(1.15323e-05 0 0)
(1.15147e-05 0 0)
(1.1497e-05 0 0)
(1.14792e-05 0 0)
(1.14613e-05 0 0)
(1.14434e-05 0 0)
(1.14254e-05 0 0)
(1.14071e-05 0 0)
(1.13885e-05 0 0)
(1.13695e-05 0 0)
(1.135e-05 0 0)
(1.133e-05 0 0)
(1.13096e-05 0 0)
(1.12889e-05 0 0)
(1.12678e-05 0 0)
(1.12467e-05 0 0)
(1.12255e-05 0 0)
(1.12043e-05 0 0)
(1.11833e-05 0 0)
(1.11625e-05 0 0)
(1.11422e-05 0 0)
(1.11224e-05 0 0)
(1.11032e-05 0 0)
(1.10847e-05 0 0)
(1.10669e-05 0 0)
(1.10499e-05 0 0)
(1.10336e-05 0 0)
(1.10179e-05 0 0)
(1.10027e-05 0 0)
(1.09878e-05 0 0)
(1.09731e-05 0 0)
(1.09583e-05 0 0)
(1.09432e-05 0 0)
(1.09278e-05 0 0)
(1.09118e-05 0 0)
(1.08953e-05 0 0)
(1.08781e-05 0 0)
(1.08603e-05 0 0)
(1.0842e-05 0 0)
(1.08231e-05 0 0)
(1.08037e-05 0 0)
(1.0784e-05 0 0)
(1.07639e-05 0 0)
(1.07437e-05 0 0)
(1.07233e-05 0 0)
(1.07028e-05 0 0)
(1.06823e-05 0 0)
(1.06617e-05 0 0)
(1.06412e-05 0 0)
(1.06208e-05 0 0)
(1.06004e-05 0 0)
(1.058e-05 0 0)
(1.05597e-05 0 0)
(1.05394e-05 0 0)
(1.05192e-05 0 0)
(1.0499e-05 0 0)
(1.04788e-05 0 0)
(1.04586e-05 0 0)
(1.04384e-05 0 0)
(1.04181e-05 0 0)
(1.03978e-05 0 0)
(1.03775e-05 0 0)
(1.03571e-05 0 0)
(1.03367e-05 0 0)
(1.03163e-05 0 0)
(1.02957e-05 0 0)
(1.02751e-05 0 0)
(1.02545e-05 0 0)
(1.02338e-05 0 0)
(1.0213e-05 0 0)
(1.01922e-05 0 0)
(1.01713e-05 0 0)
(1.01503e-05 0 0)
(1.01293e-05 0 0)
(1.01081e-05 0 0)
(1.00869e-05 0 0)
(1.00657e-05 0 0)
(1.00443e-05 0 0)
(1.00229e-05 0 0)
(1.00014e-05 0 0)
(9.97978e-06 0 0)
(9.9581e-06 0 0)
(9.93634e-06 0 0)
(9.91449e-06 0 0)
(9.89256e-06 0 0)
(9.87054e-06 0 0)
(9.84844e-06 0 0)
(9.82625e-06 0 0)
(9.80399e-06 0 0)
(9.78163e-06 0 0)
(9.7592e-06 0 0)
(9.73668e-06 0 0)
(9.71408e-06 0 0)
(9.69139e-06 0 0)
(9.66863e-06 0 0)
(9.64578e-06 0 0)
(9.62284e-06 0 0)
(9.59982e-06 0 0)
(9.57671e-06 0 0)
(9.55352e-06 0 0)
(9.53024e-06 0 0)
(9.50687e-06 0 0)
(9.48341e-06 0 0)
(9.45986e-06 0 0)
(9.43622e-06 0 0)
(9.41249e-06 0 0)
(9.38865e-06 0 0)
(9.36472e-06 0 0)
(9.34069e-06 0 0)
(9.31656e-06 0 0)
(9.29233e-06 0 0)
(9.26798e-06 0 0)
(9.24353e-06 0 0)
(9.21897e-06 0 0)
(9.19429e-06 0 0)
(9.1695e-06 0 0)
(9.1446e-06 0 0)
(9.11957e-06 0 0)
(9.09443e-06 0 0)
(9.06916e-06 0 0)
(9.04378e-06 0 0)
(9.01827e-06 0 0)
(8.99263e-06 0 0)
(8.96687e-06 0 0)
(8.94099e-06 0 0)
(8.91497e-06 0 0)
(8.88883e-06 0 0)
(8.86256e-06 0 0)
(8.83616e-06 0 0)
(8.80964e-06 0 0)
(8.78298e-06 0 0)
(8.75619e-06 0 0)
(8.72926e-06 0 0)
(8.7022e-06 0 0)
(8.67501e-06 0 0)
(8.64768e-06 0 0)
(8.62021e-06 0 0)
(8.59259e-06 0 0)
(8.56484e-06 0 0)
(8.53694e-06 0 0)
(8.50889e-06 0 0)
(8.48068e-06 0 0)
(8.45231e-06 0 0)
(8.42379e-06 0 0)
(8.39509e-06 0 0)
(8.36623e-06 0 0)
(8.33719e-06 0 0)
(8.30797e-06 0 0)
(8.27856e-06 0 0)
(8.24896e-06 0 0)
(8.21917e-06 0 0)
(8.18918e-06 0 0)
(8.15899e-06 0 0)
(8.12858e-06 0 0)
(8.09796e-06 0 0)
(8.06712e-06 0 0)
(8.03605e-06 0 0)
(8.00475e-06 0 0)
(7.9732e-06 0 0)
(7.9414e-06 0 0)
(7.90934e-06 0 0)
(7.877e-06 0 0)
(7.84438e-06 0 0)
(7.81146e-06 0 0)
(7.77822e-06 0 0)
(7.74467e-06 0 0)
(7.71079e-06 0 0)
(7.67657e-06 0 0)
(7.64202e-06 0 0)
(7.60711e-06 0 0)
(7.57185e-06 0 0)
(7.53624e-06 0 0)
(7.50027e-06 0 0)
(7.46394e-06 0 0)
(7.42727e-06 0 0)
(7.39024e-06 0 0)
(7.35287e-06 0 0)
(7.31518e-06 0 0)
(7.27718e-06 0 0)
(7.23889e-06 0 0)
(7.20032e-06 0 0)
(7.1615e-06 0 0)
(7.12247e-06 0 0)
(7.08326e-06 0 0)
(7.04395e-06 0 0)
(7.00459e-06 0 0)
(6.96528e-06 0 0)
(6.92612e-06 0 0)
(6.88726e-06 0 0)
(6.84884e-06 0 0)
(6.81108e-06 0 0)
(6.77419e-06 0 0)
(6.73843e-06 0 0)
(6.70405e-06 0 0)
(6.67128e-06 0 0)
(6.64028e-06 0 0)
(6.61105e-06 0 0)
(6.58335e-06 0 0)
(6.55645e-06 0 0)
(6.52883e-06 0 0)
(6.49757e-06 0 0)
(6.45746e-06 0 0)
(6.39947e-06 0 0)
(6.30873e-06 0 0)
(6.16244e-06 0 0)
(5.93e-06 0 0)
(5.58054e-06 0 0)
(5.10302e-06 0 0)
(4.53207e-06 0 0)
(3.95145e-06 0 0)
(3.45428e-06 0 0)
(3.09151e-06 0 0)
(2.85902e-06 0 0)
(2.72313e-06 0 0)
(2.6482e-06 0 0)
(2.60825e-06 0 0)
(2.58734e-06 0 0)
(2.5765e-06 0 0)
(2.5709e-06 0 0)
(2.568e-06 0 0)
(2.56649e-06 0 0)
(2.56569e-06 0 0)
(2.56525e-06 0 0)
(2.565e-06 0 0)
(2.56485e-06 0 0)
(2.56474e-06 0 0)
(2.56466e-06 0 0)
(2.5646e-06 0 0)
(2.56455e-06 0 0)
(2.56451e-06 0 0)
(2.56447e-06 0 0)
(2.56444e-06 0 0)
(2.56442e-06 0 0)
(2.5644e-06 0 0)
(2.56439e-06 0 0)
(2.56439e-06 0 0)
(2.56439e-06 0 0)
(2.56439e-06 0 0)
(2.56439e-06 0 0)
(2.56441e-06 0 0)
(2.56444e-06 0 0)
(2.56447e-06 0 0)
(2.5645e-06 0 0)
(2.56453e-06 0 0)
(2.56457e-06 0 0)
(2.56461e-06 0 0)
(2.56466e-06 0 0)
(2.5647e-06 0 0)
(2.56475e-06 0 0)
(2.56481e-06 0 0)
(2.56486e-06 0 0)
(2.56492e-06 0 0)
(2.56497e-06 0 0)
(2.56503e-06 0 0)
(2.56509e-06 0 0)
(2.56515e-06 0 0)
(2.56521e-06 0 0)
(2.56527e-06 0 0)
(2.56533e-06 0 0)
(2.56539e-06 0 0)
(2.56545e-06 0 0)
(2.56551e-06 0 0)
(2.56557e-06 0 0)
(2.56563e-06 0 0)
(2.56569e-06 0 0)
(2.56575e-06 0 0)
(2.5658e-06 0 0)
(2.56586e-06 0 0)
(2.56591e-06 0 0)
(2.56596e-06 0 0)
(2.56601e-06 0 0)
(2.56606e-06 0 0)
(2.56611e-06 0 0)
(2.56615e-06 0 0)
(2.56619e-06 0 0)
(2.56624e-06 0 0)
(2.56627e-06 0 0)
(2.56631e-06 0 0)
(2.56635e-06 0 0)
(2.56638e-06 0 0)
(2.56641e-06 0 0)
(2.56644e-06 0 0)
(2.56646e-06 0 0)
(2.56649e-06 0 0)
(2.56651e-06 0 0)
(2.56653e-06 0 0)
(2.56655e-06 0 0)
(2.56657e-06 0 0)
(2.56659e-06 0 0)
(2.5666e-06 0 0)
(2.56661e-06 0 0)
(2.56662e-06 0 0)
(2.56664e-06 0 0)
(2.56664e-06 0 0)
(2.56665e-06 0 0)
(2.56666e-06 0 0)
(2.56667e-06 0 0)
(2.56668e-06 0 0)
(2.56668e-06 0 0)
(2.56669e-06 0 0)
(2.56669e-06 0 0)
(2.5667e-06 0 0)
(2.5667e-06 0 0)
(2.5667e-06 0 0)
(2.5667e-06 0 0)
(2.56671e-06 0 0)
(2.56671e-06 0 0)
(2.56671e-06 0 0)
(2.56671e-06 0 0)
(2.5667e-06 0 0)
(2.5667e-06 0 0)
(2.5667e-06 0 0)
(2.56669e-06 0 0)
(2.56669e-06 0 0)
(2.56668e-06 0 0)
(2.56667e-06 0 0)
(2.56666e-06 0 0)
(2.56666e-06 0 0)
(2.56664e-06 0 0)
(2.56663e-06 0 0)
(2.56661e-06 0 0)
(2.5666e-06 0 0)
(2.56658e-06 0 0)
(2.56655e-06 0 0)
(2.56653e-06 0 0)
(2.56651e-06 0 0)
(2.56648e-06 0 0)
(2.56645e-06 0 0)
(2.56642e-06 0 0)
(2.56639e-06 0 0)
(2.56636e-06 0 0)
(2.56632e-06 0 0)
(2.56629e-06 0 0)
(2.56625e-06 0 0)
(2.56621e-06 0 0)
(2.56617e-06 0 0)
(2.56612e-06 0 0)
(2.56608e-06 0 0)
(2.56604e-06 0 0)
(2.56599e-06 0 0)
(2.56594e-06 0 0)
(2.5659e-06 0 0)
(2.56585e-06 0 0)
(2.5658e-06 0 0)
(2.56575e-06 0 0)
(2.5657e-06 0 0)
(2.56565e-06 0 0)
(2.56559e-06 0 0)
(2.56554e-06 0 0)
(2.56548e-06 0 0)
(2.56543e-06 0 0)
(2.56537e-06 0 0)
(2.56531e-06 0 0)
(2.56525e-06 0 0)
(2.56519e-06 0 0)
(2.56512e-06 0 0)
(2.56505e-06 0 0)
(2.56498e-06 0 0)
(2.56491e-06 0 0)
(2.56484e-06 0 0)
(2.56476e-06 0 0)
(2.56467e-06 0 0)
(2.56458e-06 0 0)
(2.56449e-06 0 0)
(2.56439e-06 0 0)
(2.56428e-06 0 0)
(2.56416e-06 0 0)
(2.56404e-06 0 0)
(2.56391e-06 0 0)
(2.56377e-06 0 0)
(2.56362e-06 0 0)
(2.56346e-06 0 0)
(2.5633e-06 0 0)
(2.56312e-06 0 0)
(2.56293e-06 0 0)
(2.56274e-06 0 0)
(2.56253e-06 0 0)
(2.56232e-06 0 0)
(2.5621e-06 0 0)
(2.56187e-06 0 0)
(2.56164e-06 0 0)
(2.5614e-06 0 0)
(2.56115e-06 0 0)
(2.56091e-06 0 0)
(2.56067e-06 0 0)
(2.56042e-06 0 0)
(2.56019e-06 0 0)
(2.55995e-06 0 0)
(2.55973e-06 0 0)
(2.55952e-06 0 0)
(2.55933e-06 0 0)
(2.55915e-06 0 0)
(2.55899e-06 0 0)
(2.55885e-06 0 0)
(2.55874e-06 0 0)
(2.55865e-06 0 0)
(2.55859e-06 0 0)
(2.55855e-06 0 0)
(2.55854e-06 0 0)
(2.55854e-06 0 0)
(2.55856e-06 0 0)
(2.55861e-06 0 0)
(2.55872e-06 0 0)
(2.55887e-06 0 0)
(2.55904e-06 0 0)
(2.55924e-06 0 0)
(2.55946e-06 0 0)
(2.5597e-06 0 0)
(2.55995e-06 0 0)
(2.56022e-06 0 0)
(2.5605e-06 0 0)
(2.56078e-06 0 0)
(2.56107e-06 0 0)
(2.56135e-06 0 0)
(2.56163e-06 0 0)
(2.5619e-06 0 0)
(2.56216e-06 0 0)
(2.56241e-06 0 0)
(2.56264e-06 0 0)
(2.56286e-06 0 0)
(2.56306e-06 0 0)
(2.56324e-06 0 0)
(2.5634e-06 0 0)
(2.56355e-06 0 0)
(2.56367e-06 0 0)
(2.56378e-06 0 0)
(2.56387e-06 0 0)
(2.56394e-06 0 0)
(2.564e-06 0 0)
(2.56405e-06 0 0)
(2.56408e-06 0 0)
(2.5641e-06 0 0)
(2.56411e-06 0 0)
(2.56412e-06 0 0)
(2.56412e-06 0 0)
(2.56412e-06 0 0)
(2.56411e-06 0 0)
(2.5641e-06 0 0)
(2.56408e-06 0 0)
(2.56406e-06 0 0)
(2.56404e-06 0 0)
(2.56402e-06 0 0)
(2.564e-06 0 0)
(2.56399e-06 0 0)
(2.56398e-06 0 0)
(2.56397e-06 0 0)
(2.56396e-06 0 0)
(2.56396e-06 0 0)
(2.56395e-06 0 0)
(2.56395e-06 0 0)
(2.56396e-06 0 0)
(2.56397e-06 0 0)
(2.56398e-06 0 0)
(2.564e-06 0 0)
(2.56402e-06 0 0)
(2.56405e-06 0 0)
(2.56407e-06 0 0)
(2.56411e-06 0 0)
(2.56414e-06 0 0)
(2.56418e-06 0 0)
(2.56422e-06 0 0)
(2.56427e-06 0 0)
(2.56432e-06 0 0)
(2.56437e-06 0 0)
(2.56442e-06 0 0)
(2.56447e-06 0 0)
(2.56453e-06 0 0)
(2.56459e-06 0 0)
(2.56464e-06 0 0)
(2.5647e-06 0 0)
(2.56476e-06 0 0)
(2.56482e-06 0 0)
(2.56488e-06 0 0)
(2.56495e-06 0 0)
(2.56501e-06 0 0)
(2.56507e-06 0 0)
(2.56513e-06 0 0)
(2.56519e-06 0 0)
(2.56525e-06 0 0)
(2.56531e-06 0 0)
(2.56536e-06 0 0)
(2.56542e-06 0 0)
(2.56547e-06 0 0)
(2.56553e-06 0 0)
(2.56558e-06 0 0)
(2.56564e-06 0 0)
(2.56569e-06 0 0)
(2.56574e-06 0 0)
(2.56579e-06 0 0)
(2.56584e-06 0 0)
(2.56588e-06 0 0)
(2.56592e-06 0 0)
(2.56597e-06 0 0)
(2.56601e-06 0 0)
(2.56605e-06 0 0)
(2.56609e-06 0 0)
(2.56612e-06 0 0)
(2.56616e-06 0 0)
(2.56619e-06 0 0)
(2.56622e-06 0 0)
(2.56625e-06 0 0)
(2.56627e-06 0 0)
(2.5663e-06 0 0)
(2.56632e-06 0 0)
(2.56634e-06 0 0)
(2.56636e-06 0 0)
(2.56638e-06 0 0)
(2.5664e-06 0 0)
(2.56641e-06 0 0)
(2.56642e-06 0 0)
(2.56644e-06 0 0)
(2.56645e-06 0 0)
(2.56646e-06 0 0)
(2.56646e-06 0 0)
(2.56647e-06 0 0)
(2.56648e-06 0 0)
(2.56648e-06 0 0)
(2.56649e-06 0 0)
(2.56649e-06 0 0)
(2.56649e-06 0 0)
(2.56649e-06 0 0)
(2.5665e-06 0 0)
(2.5665e-06 0 0)
(2.5665e-06 0 0)
(2.5665e-06 0 0)
(2.56649e-06 0 0)
(2.56649e-06 0 0)
(2.56649e-06 0 0)
(2.56649e-06 0 0)
(2.56648e-06 0 0)
(2.56648e-06 0 0)
(2.56647e-06 0 0)
(2.56646e-06 0 0)
(2.56646e-06 0 0)
(2.56645e-06 0 0)
(2.56644e-06 0 0)
(2.56643e-06 0 0)
(2.56641e-06 0 0)
(2.5664e-06 0 0)
(2.56638e-06 0 0)
(2.56637e-06 0 0)
(2.56635e-06 0 0)
(2.56633e-06 0 0)
(2.56631e-06 0 0)
(2.56628e-06 0 0)
(2.56626e-06 0 0)
(2.56623e-06 0 0)
(2.5662e-06 0 0)
(2.56616e-06 0 0)
(2.56613e-06 0 0)
(2.56609e-06 0 0)
(2.56605e-06 0 0)
(2.56601e-06 0 0)
(2.56596e-06 0 0)
(2.56592e-06 0 0)
(2.56587e-06 0 0)
(2.56582e-06 0 0)
(2.56576e-06 0 0)
(2.5657e-06 0 0)
(2.56564e-06 0 0)
(2.56558e-06 0 0)
(2.56551e-06 0 0)
(2.56544e-06 0 0)
(2.56537e-06 0 0)
(2.5653e-06 0 0)
(2.56522e-06 0 0)
(2.56514e-06 0 0)
(2.56506e-06 0 0)
(2.56497e-06 0 0)
(2.56488e-06 0 0)
(2.56478e-06 0 0)
(2.56468e-06 0 0)
(2.56458e-06 0 0)
(2.56447e-06 0 0)
(2.56436e-06 0 0)
(2.56424e-06 0 0)
(2.56411e-06 0 0)
(2.56398e-06 0 0)
(2.56385e-06 0 0)
(2.5637e-06 0 0)
(2.56356e-06 0 0)
(2.5634e-06 0 0)
(2.56324e-06 0 0)
(2.56308e-06 0 0)
(2.5629e-06 0 0)
(2.56272e-06 0 0)
(2.56254e-06 0 0)
(2.56235e-06 0 0)
(2.56215e-06 0 0)
(2.56195e-06 0 0)
(2.56175e-06 0 0)
(2.56154e-06 0 0)
(2.56134e-06 0 0)
(2.56113e-06 0 0)
(2.56092e-06 0 0)
(2.56071e-06 0 0)
(2.5605e-06 0 0)
(2.5603e-06 0 0)
(2.56011e-06 0 0)
(2.55992e-06 0 0)
(2.55974e-06 0 0)
(2.55957e-06 0 0)
(2.55941e-06 0 0)
(2.55926e-06 0 0)
(2.55913e-06 0 0)
(2.55902e-06 0 0)
(2.55892e-06 0 0)
(2.55885e-06 0 0)
(2.55879e-06 0 0)
(2.55876e-06 0 0)
(2.55874e-06 0 0)
(2.55874e-06 0 0)
(2.55875e-06 0 0)
(2.55878e-06 0 0)
(2.55885e-06 0 0)
(2.55895e-06 0 0)
(2.55908e-06 0 0)
(2.55923e-06 0 0)
(2.55939e-06 0 0)
(2.55958e-06 0 0)
(2.55978e-06 0 0)
(2.56e-06 0 0)
(2.56023e-06 0 0)
(2.56046e-06 0 0)
(2.56071e-06 0 0)
(2.56095e-06 0 0)
(2.5612e-06 0 0)
(2.56145e-06 0 0)
(2.5617e-06 0 0)
(2.56194e-06 0 0)
(2.56217e-06 0 0)
(2.5624e-06 0 0)
(2.56261e-06 0 0)
(2.56281e-06 0 0)
(2.563e-06 0 0)
(2.56318e-06 0 0)
(2.56334e-06 0 0)
(2.56349e-06 0 0)
(2.56363e-06 0 0)
(2.56375e-06 0 0)
(2.56387e-06 0 0)
(2.56396e-06 0 0)
(2.56405e-06 0 0)
(2.56413e-06 0 0)
(2.56419e-06 0 0)
(2.56425e-06 0 0)
(2.56429e-06 0 0)
(2.56433e-06 0 0)
(2.56437e-06 0 0)
(2.5644e-06 0 0)
(2.56442e-06 0 0)
(2.56444e-06 0 0)
(2.56445e-06 0 0)
(2.56447e-06 0 0)
(2.56448e-06 0 0)
(2.56449e-06 0 0)
(2.5645e-06 0 0)
(2.56451e-06 0 0)
(2.56453e-06 0 0)
(2.56454e-06 0 0)
(2.56455e-06 0 0)
(2.56457e-06 0 0)
(2.56458e-06 0 0)
(2.5646e-06 0 0)
(2.56462e-06 0 0)
(2.56464e-06 0 0)
(2.56467e-06 0 0)
(2.56469e-06 0 0)
(2.56472e-06 0 0)
(2.56475e-06 0 0)
(2.56478e-06 0 0)
(2.56481e-06 0 0)
(2.56484e-06 0 0)
(2.56488e-06 0 0)
(2.56491e-06 0 0)
(2.56495e-06 0 0)
(2.56499e-06 0 0)
(2.56502e-06 0 0)
(2.56506e-06 0 0)
(2.5651e-06 0 0)
(2.56514e-06 0 0)
(2.56518e-06 0 0)
(2.56522e-06 0 0)
(2.56526e-06 0 0)
(2.5653e-06 0 0)
(2.56534e-06 0 0)
(2.56538e-06 0 0)
(2.56542e-06 0 0)
(2.56546e-06 0 0)
(2.5655e-06 0 0)
(2.56554e-06 0 0)
(2.56557e-06 0 0)
(2.56561e-06 0 0)
(2.56565e-06 0 0)
(2.56569e-06 0 0)
(2.56573e-06 0 0)
(2.56577e-06 0 0)
(2.56581e-06 0 0)
(2.56585e-06 0 0)
(2.56588e-06 0 0)
(2.56592e-06 0 0)
(2.56596e-06 0 0)
(2.56599e-06 0 0)
(2.56603e-06 0 0)
(2.56607e-06 0 0)
(2.5661e-06 0 0)
(2.56613e-06 0 0)
(2.56617e-06 0 0)
(2.5662e-06 0 0)
(2.56623e-06 0 0)
(2.56626e-06 0 0)
(2.56629e-06 0 0)
(2.56632e-06 0 0)
(2.56635e-06 0 0)
(2.56638e-06 0 0)
(2.5664e-06 0 0)
(2.56643e-06 0 0)
(2.56645e-06 0 0)
(2.56647e-06 0 0)
(2.56649e-06 0 0)
(2.56651e-06 0 0)
(2.56653e-06 0 0)
(2.56655e-06 0 0)
(2.56656e-06 0 0)
(2.56658e-06 0 0)
(2.56659e-06 0 0)
(2.5666e-06 0 0)
(2.56661e-06 0 0)
(2.56662e-06 0 0)
(2.56662e-06 0 0)
(2.56663e-06 0 0)
(2.56663e-06 0 0)
(2.56663e-06 0 0)
(2.56663e-06 0 0)
(2.56663e-06 0 0)
(2.56663e-06 0 0)
(2.56663e-06 0 0)
(2.56663e-06 0 0)
(2.56662e-06 0 0)
(2.56662e-06 0 0)
(2.56661e-06 0 0)
(2.5666e-06 0 0)
(2.56659e-06 0 0)
(2.56658e-06 0 0)
(2.56657e-06 0 0)
(2.56656e-06 0 0)
(2.56655e-06 0 0)
(2.56654e-06 0 0)
(2.56653e-06 0 0)
(2.56651e-06 0 0)
(2.5665e-06 0 0)
(2.56648e-06 0 0)
(2.56647e-06 0 0)
(2.56645e-06 0 0)
(2.56643e-06 0 0)
(2.56642e-06 0 0)
(2.5664e-06 0 0)
(2.56638e-06 0 0)
(2.56636e-06 0 0)
(2.56634e-06 0 0)
(2.56631e-06 0 0)
(2.56629e-06 0 0)
(2.56627e-06 0 0)
(2.56624e-06 0 0)
(2.56621e-06 0 0)
(2.56618e-06 0 0)
(2.56615e-06 0 0)
(2.56611e-06 0 0)
(2.56607e-06 0 0)
(2.56603e-06 0 0)
(2.56599e-06 0 0)
(2.56595e-06 0 0)
(2.5659e-06 0 0)
(2.56584e-06 0 0)
(2.56579e-06 0 0)
(2.56573e-06 0 0)
(2.56567e-06 0 0)
(2.5656e-06 0 0)
(2.56553e-06 0 0)
(2.56545e-06 0 0)
(2.56537e-06 0 0)
(2.56529e-06 0 0)
(2.5652e-06 0 0)
(2.5651e-06 0 0)
(2.565e-06 0 0)
(2.56489e-06 0 0)
(2.56478e-06 0 0)
(2.56467e-06 0 0)
(2.56454e-06 0 0)
(2.56442e-06 0 0)
(2.56428e-06 0 0)
(2.56414e-06 0 0)
(2.564e-06 0 0)
(2.56385e-06 0 0)
(2.56369e-06 0 0)
(2.56353e-06 0 0)
(2.56336e-06 0 0)
(2.56319e-06 0 0)
(2.56302e-06 0 0)
(2.56284e-06 0 0)
(2.56265e-06 0 0)
(2.56247e-06 0 0)
(2.56228e-06 0 0)
(2.56208e-06 0 0)
(2.56189e-06 0 0)
(2.5617e-06 0 0)
(2.56151e-06 0 0)
(2.56132e-06 0 0)
(2.56113e-06 0 0)
(2.56095e-06 0 0)
(2.56077e-06 0 0)
(2.56059e-06 0 0)
(2.56043e-06 0 0)
(2.56027e-06 0 0)
(2.56012e-06 0 0)
(2.55999e-06 0 0)
(2.55986e-06 0 0)
(2.55975e-06 0 0)
(2.55965e-06 0 0)
(2.55957e-06 0 0)
(2.5595e-06 0 0)
(2.55945e-06 0 0)
(2.55943e-06 0 0)
(2.55941e-06 0 0)
(2.55941e-06 0 0)
(2.55942e-06 0 0)
(2.55944e-06 0 0)
(2.5595e-06 0 0)
(2.55958e-06 0 0)
(2.55968e-06 0 0)
(2.5598e-06 0 0)
(2.55994e-06 0 0)
(2.5601e-06 0 0)
(2.56027e-06 0 0)
(2.56045e-06 0 0)
(2.56065e-06 0 0)
(2.56085e-06 0 0)
(2.56106e-06 0 0)
(2.56128e-06 0 0)
(2.5615e-06 0 0)
(2.56172e-06 0 0)
(2.56194e-06 0 0)
(2.56216e-06 0 0)
(2.56238e-06 0 0)
(2.56259e-06 0 0)
(2.56279e-06 0 0)
(2.56299e-06 0 0)
(2.56317e-06 0 0)
(2.56335e-06 0 0)
(2.56352e-06 0 0)
(2.56368e-06 0 0)
(2.56382e-06 0 0)
(2.56395e-06 0 0)
(2.56407e-06 0 0)
(2.56418e-06 0 0)
(2.56429e-06 0 0)
(2.56438e-06 0 0)
(2.56446e-06 0 0)
(2.56453e-06 0 0)
(2.56459e-06 0 0)
(2.56464e-06 0 0)
(2.56469e-06 0 0)
(2.56473e-06 0 0)
(2.56476e-06 0 0)
(2.56479e-06 0 0)
(2.56481e-06 0 0)
(2.56483e-06 0 0)
(2.56485e-06 0 0)
(2.56486e-06 0 0)
(2.56487e-06 0 0)
(2.56488e-06 0 0)
(2.56488e-06 0 0)
(2.56489e-06 0 0)
(2.56489e-06 0 0)
(2.5649e-06 0 0)
(2.5649e-06 0 0)
(2.56491e-06 0 0)
(2.56492e-06 0 0)
(2.56492e-06 0 0)
(2.56493e-06 0 0)
(2.56493e-06 0 0)
(2.56494e-06 0 0)
(2.56495e-06 0 0)
(2.56496e-06 0 0)
(2.56497e-06 0 0)
(2.56498e-06 0 0)
(2.56499e-06 0 0)
(2.565e-06 0 0)
(2.56501e-06 0 0)
(2.56502e-06 0 0)
(2.56504e-06 0 0)
(2.56505e-06 0 0)
(2.56506e-06 0 0)
(2.56507e-06 0 0)
(2.56509e-06 0 0)
(2.5651e-06 0 0)
(2.56511e-06 0 0)
(2.56513e-06 0 0)
(2.56514e-06 0 0)
(2.56515e-06 0 0)
(2.56517e-06 0 0)
(2.56518e-06 0 0)
(2.56519e-06 0 0)
(2.5652e-06 0 0)
(2.56522e-06 0 0)
(2.56523e-06 0 0)
(2.56524e-06 0 0)
(2.56526e-06 0 0)
(2.56527e-06 0 0)
(2.56529e-06 0 0)
(2.5653e-06 0 0)
(2.56532e-06 0 0)
(2.56533e-06 0 0)
(2.56535e-06 0 0)
(2.56536e-06 0 0)
(2.56538e-06 0 0)
(2.5654e-06 0 0)
(2.56541e-06 0 0)
(2.56543e-06 0 0)
(2.56545e-06 0 0)
(2.56547e-06 0 0)
(2.56549e-06 0 0)
(2.56552e-06 0 0)
(2.56554e-06 0 0)
(2.56556e-06 0 0)
(2.56559e-06 0 0)
(2.56561e-06 0 0)
(2.56564e-06 0 0)
(2.56566e-06 0 0)
(2.56569e-06 0 0)
(2.56572e-06 0 0)
(2.56575e-06 0 0)
(2.56577e-06 0 0)
(2.5658e-06 0 0)
(2.56583e-06 0 0)
(2.56586e-06 0 0)
(2.56589e-06 0 0)
(2.56592e-06 0 0)
(2.56595e-06 0 0)
(2.56598e-06 0 0)
(2.566e-06 0 0)
(2.56603e-06 0 0)
(2.56606e-06 0 0)
(2.56608e-06 0 0)
(2.56611e-06 0 0)
(2.56613e-06 0 0)
(2.56616e-06 0 0)
(2.56618e-06 0 0)
(2.5662e-06 0 0)
(2.56622e-06 0 0)
(2.56623e-06 0 0)
(2.56625e-06 0 0)
(2.56626e-06 0 0)
(2.56627e-06 0 0)
(2.56629e-06 0 0)
(2.56629e-06 0 0)
(2.5663e-06 0 0)
(2.5663e-06 0 0)
(2.5663e-06 0 0)
(2.5663e-06 0 0)
(2.56635e-06 0 0)
)
;

boundaryField
{
    inlet
    {
        type            fixedValue;
        value           uniform (1.13622e-05 0 0);
    }
    outlet
    {
        type            zeroGradient;
    }
    emptyWalls
    {
        type            empty;
    }
}


// ************************************************************************* //
