/*--------------------------------*- C++ -*----------------------------------*\
  =========                 |
  \\      /  F ield         | OpenFOAM: The Open Source CFD Toolbox
   \\    /   O peration     | Website:  https://openfoam.org
    \\  /    A nd           | Version:  9
     \\/     M anipulation  |
\*---------------------------------------------------------------------------*/
FoamFile
{
    format      ascii;
    class       volScalarField;
    location    "14950";
    object      Fa;
}
// * * * * * * * * * * * * * * * * * * * * * * * * * * * * * * * * * * * * * //

dimensions      [0 0 0 0 0 0 0];

internalField   nonuniform List<scalar> 
1000
(
0.194787
0.194779
0.19475
0.194744
0.194697
0.194674
0.194623
0.194559
0.194505
0.194392
0.194387
0.194178
0.194282
0.193975
0.194144
0.193852
0.193974
0.19376
0.193645
0.192757
0.186274
0.159823
0.15262
0.150987
0.150321
0.150049
0.150145
0.150514
0.150879
0.150982
0.150784
0.150448
0.150126
0.149699
0.149001
0.148301
0.147675
0.147159
0.146759
0.146469
0.146276
0.146165
0.146106
0.146082
0.146059
0.146048
0.146031
0.145998
0.145955
0.145898
0.145836
0.145766
0.145695
0.14562
0.145548
0.145476
0.145413
0.145357
0.145315
0.145274
0.145232
0.14519
0.145148
0.145106
0.145064
0.145024
0.144983
0.144944
0.144905
0.144867
0.14483
0.144794
0.144758
0.144723
0.14469
0.144657
0.144625
0.144593
0.144563
0.144534
0.144506
0.144478
0.144452
0.144427
0.144402
0.144379
0.144357
0.144336
0.144315
0.144296
0.144278
0.14426
0.144244
0.144228
0.144213
0.144199
0.144186
0.144174
0.144164
0.144154
0.144145
0.144137
0.14413
0.144123
0.144116
0.144109
0.144102
0.144094
0.144085
0.144077
0.144068
0.14406
0.144052
0.144047
0.144042
0.14404
0.144039
0.144038
0.144037
0.144036
0.144033
0.14403
0.144026
0.144025
0.144029
0.144041
0.144063
0.144099
0.14415
0.144218
0.144302
0.144403
0.144518
0.144647
0.144786
0.144934
0.145085
0.145238
0.145388
0.145531
0.145661
0.145774
0.145865
0.14593
0.145965
0.145968
0.145936
0.145871
0.145773
0.145645
0.145491
0.145317
0.145128
0.144932
0.144733
0.144537
0.144349
0.144175
0.144015
0.143873
0.14375
0.143645
0.143557
0.143487
0.143431
0.143389
0.143357
0.143333
0.143316
0.143303
0.143293
0.143284
0.143275
0.143265
0.143253
0.143239
0.143223
0.143204
0.143182
0.143157
0.14313
0.143101
0.14307
0.143037
0.143003
0.142968
0.142931
0.142894
0.142857
0.142819
0.14278
0.142742
0.142704
0.142665
0.142627
0.142589
0.142552
0.142514
0.142477
0.142441
0.142405
0.142369
0.142334
0.142299
0.142265
0.142231
0.142198
0.142166
0.142134
0.142103
0.142072
0.142042
0.142013
0.141984
0.141956
0.141928
0.141902
0.141875
0.14185
0.141825
0.141801
0.141778
0.141755
0.141733
0.141711
0.14169
0.14167
0.141651
0.141632
0.141614
0.141596
0.141579
0.141563
0.141547
0.141533
0.141518
0.141504
0.141491
0.141478
0.141465
0.141453
0.14144
0.141428
0.141417
0.141405
0.141394
0.141383
0.141372
0.141362
0.141352
0.141343
0.141334
0.141325
0.141317
0.141309
0.141301
0.141294
0.141287
0.141282
0.141277
0.141273
0.141272
0.141273
0.141277
0.141285
0.141298
0.141315
0.141338
0.141367
0.141403
0.141445
0.141495
0.141551
0.141615
0.141685
0.141762
0.141843
0.141929
0.142018
0.142109
0.1422
0.142291
0.142378
0.142461
0.142537
0.142606
0.142664
0.142711
0.142745
0.142765
0.142769
0.142758
0.142731
0.142687
0.142629
0.142556
0.14247
0.142371
0.142263
0.142147
0.142025
0.1419
0.141772
0.141645
0.14152
0.141398
0.141282
0.141171
0.141068
0.140972
0.140883
0.140803
0.14073
0.140665
0.140606
0.140554
0.140507
0.140466
0.140428
0.140395
0.140364
0.140337
0.140309
0.140285
0.140259
0.140237
0.140211
0.140188
0.140162
0.140138
0.140109
0.140084
0.140054
0.140026
0.139994
0.139964
0.139932
0.139899
0.139866
0.139832
0.139797
0.139762
0.139727
0.139691
0.139655
0.139619
0.139583
0.139547
0.139511
0.139475
0.139439
0.139403
0.139368
0.139332
0.139297
0.139263
0.139228
0.139194
0.139161
0.139127
0.139095
0.139062
0.13903
0.138999
0.138968
0.138937
0.138907
0.138877
0.138848
0.13882
0.138791
0.138764
0.138737
0.13871
0.138684
0.138658
0.138633
0.138608
0.138584
0.138561
0.138538
0.138515
0.138493
0.138472
0.138451
0.13843
0.13841
0.138391
0.138372
0.138353
0.138335
0.138317
0.1383
0.138283
0.138267
0.138251
0.138235
0.13822
0.138205
0.13819
0.138176
0.138162
0.138148
0.138134
0.138121
0.138108
0.138095
0.138082
0.13807
0.138058
0.138046
0.138034
0.138023
0.138013
0.138002
0.137992
0.137983
0.137975
0.137967
0.13796
0.137954
0.13795
0.137947
0.137946
0.137947
0.137951
0.137956
0.137965
0.137976
0.137991
0.138009
0.13803
0.138055
0.138084
0.138116
0.138152
0.138192
0.138235
0.138281
0.13833
0.138381
0.138435
0.13849
0.138546
0.138603
0.138659
0.138714
0.138767
0.138818
0.138866
0.138909
0.138947
0.13898
0.139006
0.139026
0.139037
0.139041
0.139036
0.139023
0.139
0.138969
0.138929
0.138881
0.138824
0.13876
0.138689
0.138612
0.13853
0.138443
0.138352
0.138259
0.138163
0.138067
0.137971
0.137876
0.137782
0.13769
0.137601
0.137515
0.137433
0.137354
0.137279
0.137209
0.137142
0.137079
0.13702
0.136965
0.136913
0.136865
0.136819
0.136776
0.136735
0.136697
0.13666
0.136625
0.136591
0.136558
0.136525
0.136494
0.136463
0.136432
0.136401
0.13637
0.136339
0.136308
0.136276
0.136245
0.136213
0.13618
0.136148
0.136114
0.136081
0.136047
0.136013
0.135978
0.135944
0.135909
0.135874
0.135839
0.135803
0.135768
0.135732
0.135697
0.135661
0.135626
0.135591
0.135555
0.13552
0.135485
0.13545
0.135415
0.13538
0.135346
0.135311
0.135277
0.135243
0.13521
0.135176
0.135143
0.13511
0.135077
0.135045
0.135012
0.134981
0.134949
0.134918
0.134887
0.134856
0.134825
0.134795
0.134766
0.134736
0.134707
0.134678
0.13465
0.134622
0.134595
0.134568
0.134541
0.134515
0.13449
0.134465
0.13444
0.134417
0.134393
0.134373
0.134349
0.134332
0.134308
0.134294
0.134271
0.134261
0.13424
0.134232
0.134214
0.134208
0.134195
0.134189
0.134183
0.134174
0.134177
0.134167
0.134173
0.134167
0.134171
0.134173
0.134173
0.134183
0.134179
0.134189
0.134188
0.134189
0.134189
0.134171
0.134151
0.134091
0.133996
0.133824
0.13354
0.133137
0.132614
0.132101
0.131703
0.131469
0.131366
0.131314
0.131312
0.131313
0.131328
0.131352
0.131371
0.131395
0.131422
0.131451
0.131482
0.131515
0.13155
0.131587
0.131625
0.131666
0.131709
0.131753
0.131799
0.131847
0.131897
0.131948
0.132
0.132053
0.132107
0.132161
0.132216
0.132271
0.132325
0.132379
0.132433
0.132485
0.132536
0.132585
0.132631
0.132675
0.132717
0.132755
0.13279
0.132822
0.132849
0.132871
0.132889
0.132902
0.132909
0.132912
0.132912
0.132911
0.132907
0.132891
0.13287
0.132845
0.132816
0.132784
0.132747
0.132708
0.132666
0.132621
0.132575
0.132526
0.132476
0.132425
0.132374
0.132322
0.132271
0.13222
0.132169
0.13212
0.132073
0.132026
0.131982
0.131939
0.131899
0.13186
0.131824
0.13179
0.131758
0.131728
0.131701
0.131675
0.131651
0.131629
0.131609
0.131591
0.131574
0.131558
0.131544
0.13153
0.131518
0.131506
0.131496
0.131486
0.131476
0.131467
0.131459
0.13145
0.131442
0.131434
0.131426
0.131418
0.13141
0.131402
0.131394
0.131386
0.131378
0.13137
0.131361
0.131353
0.131344
0.131335
0.131326
0.131317
0.131308
0.131299
0.131289
0.13128
0.131271
0.131261
0.131251
0.131242
0.131232
0.131223
0.131213
0.131204
0.131194
0.131185
0.131176
0.131166
0.131157
0.131148
0.131139
0.131131
0.131122
0.131114
0.131105
0.131097
0.131089
0.131082
0.131074
0.131067
0.13106
0.131053
0.131046
0.13104
0.131033
0.131027
0.131022
0.131016
0.131011
0.131006
0.131002
0.130997
0.130993
0.130989
0.130986
0.130983
0.13098
0.130977
0.130975
0.130973
0.130972
0.13097
0.130969
0.130968
0.130968
0.130968
0.130968
0.130968
0.130969
0.13097
0.130971
0.130973
0.130975
0.130977
0.13098
0.130982
0.130985
0.130989
0.130992
0.130996
0.131
0.131005
0.131009
0.131014
0.131019
0.131025
0.13103
0.131036
0.131043
0.131049
0.131056
0.131064
0.131071
0.131079
0.131088
0.131097
0.131106
0.131116
0.131127
0.131138
0.13115
0.131162
0.131176
0.13119
0.131205
0.131221
0.131238
0.131257
0.131276
0.131297
0.131318
0.131342
0.131366
0.131392
0.13142
0.131449
0.131479
0.131511
0.131544
0.131579
0.131616
0.131654
0.131693
0.131734
0.131776
0.131819
0.131864
0.131909
0.131955
0.132002
0.132049
0.132097
0.132145
0.132193
0.132241
0.132288
0.132334
0.13238
0.132424
0.132467
0.132509
0.132548
0.132585
0.13262
0.132652
0.132681
0.132707
0.13273
0.13275
0.132766
0.132778
0.132786
0.13279
0.132792
0.132792
0.132791
0.132785
0.13277
0.132752
0.132731
0.132706
0.132678
0.132648
0.132615
0.132579
0.132541
0.132502
0.132461
0.132419
0.132376
0.132333
0.132289
0.132245
0.132202
0.132159
0.132116
0.132074
0.132034
0.131994
0.131956
0.131919
0.131884
0.131851
0.131818
0.131788
0.131759
0.131732
0.131706
0.131682
0.131659
0.131638
0.131618
0.131599
0.131581
0.131564
0.131549
0.131534
0.13152
0.131507
0.131494
0.131482
0.13147
0.131459
0.131448
0.131438
0.131427
0.131417
0.131407
0.131397
0.131387
0.131377
0.131367
0.131357
0.131347
0.131337
0.131327
0.131316
0.131306
0.131296
0.131286
0.131275
0.131265
0.131254
0.131244
0.131234
0.131223
0.131213
0.131202
0.131192
0.131182
0.131172
0.131162
0.131152
0.131142
0.131132
0.131123
0.131114
0.131104
0.131095
0.131087
0.131078
0.13107
0.131061
0.131054
0.131046
0.131038
0.131031
0.131024
0.131018
0.131011
0.131005
0.130999
0.130994
0.130989
0.130984
0.130979
0.130975
0.130971
0.130967
0.130964
0.130961
0.130958
0.130956
0.130954
0.130952
0.130951
0.13095
0.130949
0.130949
0.130949
0.130949
0.130949
0.13095
0.130951
0.130952
0.130955
0.130955
0.130959
0.130961
0.130966
0.130967
0.130973
0.130975
0.130982
0.130983
0.130991
0.130993
0.131002
0.131005
0.131014
0.131017
0.131027
0.13103
0.131042
0.131045
0.131068
)
;

boundaryField
{
    inlet
    {
        type            calculated;
        value           uniform 0.194831;
    }
    outlet
    {
        type            calculated;
        value           uniform 0.13106;
    }
    emptyWalls
    {
        type            empty;
    }
}


// ************************************************************************* //
