/*--------------------------------*- C++ -*----------------------------------*\
  =========                 |
  \\      /  F ield         | OpenFOAM: The Open Source CFD Toolbox
   \\    /   O peration     | Website:  https://openfoam.org
    \\  /    A nd           | Version:  9
     \\/     M anipulation  |
\*---------------------------------------------------------------------------*/
FoamFile
{
    format      ascii;
    class       volScalarField;
    location    "119000";
    object      krc;
}
// * * * * * * * * * * * * * * * * * * * * * * * * * * * * * * * * * * * * * //

dimensions      [0 0 0 0 0 0 0];

internalField   nonuniform List<scalar> 
100
(
2.42511e-21
2.61248e-23
3.05668e-23
3.29051e-23
3.95406e-24
3.08391e-23
5.43502e-24
3.08448e-25
2.15279e-23
1.17594e-23
2.81571e-23
1.93789e-25
6.46306e-24
9.91532e-24
2.04547e-23
2.70125e-23
3.14939e-23
1.10866e-23
2.31786e-23
2.18086e-23
7.61471e-24
4.48881e-23
7.60865e-24
7.31105e-24
3.56494e-23
1.97375e-23
2.62686e-23
2.67115e-23
1.30775e-23
4.72268e-23
9.1952e-24
8.84439e-24
3.76519e-23
3.45545e-23
1.92938e-24
3.33959e-23
4.68462e-25
8.64359e-28
1.19459e-23
2.59133e-23
1.9617e-23
8.45651e-24
3.77512e-23
2.72251e-23
9.96085e-24
7.72394e-27
2.33672e-23
2.17258e-23
2.11587e-23
3.12012e-23
6.71789e-25
9.52108e-26
4.15506e-23
2.89981e-23
1.83516e-23
2.17434e-23
2.04043e-23
3.2639e-23
2.30925e-23
2.26898e-23
3.19298e-23
1.98353e-23
7.33314e-24
2.19268e-23
3.727e-25
3.13355e-23
3.09762e-23
3.31939e-23
3.55444e-23
6.01291e-25
2.88284e-23
2.07712e-23
1.12606e-25
6.22637e-26
4.61929e-25
9.1933e-24
4.60543e-25
3.81764e-25
2.88925e-23
2.25543e-25
3.17597e-23
3.24939e-23
1.3163e-25
2.18504e-23
1.56891e-25
2.70374e-25
2.44026e-25
2.11147e-23
5.63019e-26
2.18306e-23
2.51517e-23
2.16074e-23
1.75379e-25
1.00722e-23
6.87311e-26
9.47269e-26
1.9764e-23
3.12556e-23
3.286e-23
2.33194e-23
)
;

boundaryField
{
    inlet
    {
        type            calculated;
        value           uniform 2.42511e-21;
    }
    outlet
    {
        type            calculated;
        value           uniform 2.33194e-23;
    }
    emptyWalls
    {
        type            empty;
    }
}


// ************************************************************************* //
