/*--------------------------------*- C++ -*----------------------------------*\
  =========                 |
  \\      /  F ield         | OpenFOAM: The Open Source CFD Toolbox
   \\    /   O peration     | Website:  https://openfoam.org
    \\  /    A nd           | Version:  9
     \\/     M anipulation  |
\*---------------------------------------------------------------------------*/
FoamFile
{
    format      ascii;
    class       volScalarField;
    location    "67000";
    object      krc;
}
// * * * * * * * * * * * * * * * * * * * * * * * * * * * * * * * * * * * * * //

dimensions      [0 0 0 0 0 0 0];

internalField   nonuniform List<scalar> 
100
(
4.17242e-24
3.79343e-25
4.27796e-25
7.05401e-25
1.03322e-25
3.00306e-25
8.46678e-26
1.0234e-27
2.2346e-25
1.11712e-25
3.38078e-25
9.39232e-27
1.01213e-25
2.90069e-25
3.08274e-25
2.8737e-25
2.19985e-25
1.44175e-26
4.1546e-25
6.04949e-25
8.64128e-26
3.65545e-25
1.3559e-25
2.83093e-25
2.38781e-25
4.96598e-25
1.57514e-25
5.35733e-25
1.90965e-25
5.92919e-25
1.18801e-25
3.11858e-25
9.74633e-25
9.00607e-25
5.62274e-26
1.55561e-24
7.88414e-25
7.42267e-25
2.95763e-25
4.0022e-25
4.17994e-25
2.76532e-24
4.65313e-24
8.15266e-25
4.42204e-24
3.35257e-24
2.28768e-24
7.39919e-24
2.24044e-24
1.6953e-24
3.94751e-24
3.8231e-24
5.93351e-24
1.07929e-24
1.12862e-24
3.65882e-24
4.2329e-25
1.54044e-25
2.35177e-24
1.37587e-24
1.05062e-24
5.6473e-25
1.87007e-25
2.46359e-25
3.67069e-26
9.61194e-25
1.32144e-25
9.2914e-25
1.63553e-25
5.33247e-26
5.68276e-25
6.47561e-25
5.41263e-25
1.78037e-24
4.65448e-24
7.39749e-24
1.72951e-23
3.01783e-23
6.3552e-23
7.91491e-23
1.38529e-22
1.73533e-22
2.95484e-22
4.61036e-22
6.55292e-22
9.68189e-22
1.44183e-21
1.99393e-21
2.84339e-21
3.99109e-21
5.68422e-21
7.71451e-21
1.21116e-20
1.44886e-20
3.34771e-21
6.43642e-20
5.38436e-18
2.48142e-17
6.11194e-16
4.0391e-15
)
;

boundaryField
{
    inlet
    {
        type            calculated;
        value           uniform 4.17242e-24;
    }
    outlet
    {
        type            calculated;
        value           uniform 4.0391e-15;
    }
    emptyWalls
    {
        type            empty;
    }
}


// ************************************************************************* //
