/*--------------------------------*- C++ -*----------------------------------*\
  =========                 |
  \\      /  F ield         | OpenFOAM: The Open Source CFD Toolbox
   \\    /   O peration     | Website:  https://openfoam.org
    \\  /    A nd           | Version:  9
     \\/     M anipulation  |
\*---------------------------------------------------------------------------*/
FoamFile
{
    format      ascii;
    class       volScalarField;
    location    "4800";
    object      kra;
}
// * * * * * * * * * * * * * * * * * * * * * * * * * * * * * * * * * * * * * //

dimensions      [0 0 0 0 0 0 0];

internalField   nonuniform List<scalar> 
100
(
4.08092e-05
3.03996e-05
3.28739e-05
3.1539e-05
3.15061e-05
3.11777e-05
3.10085e-05
3.07896e-05
3.05974e-05
3.042e-05
3.02497e-05
3.00934e-05
2.99424e-05
2.98018e-05
2.96671e-05
2.95389e-05
2.94185e-05
2.92995e-05
2.9191e-05
2.90819e-05
2.89812e-05
2.88812e-05
2.87872e-05
2.86926e-05
2.86049e-05
2.85156e-05
2.84326e-05
2.83483e-05
2.82699e-05
2.81895e-05
2.81147e-05
2.8038e-05
2.79656e-05
2.78866e-05
2.78037e-05
2.76978e-05
2.75706e-05
2.73934e-05
2.73383e-05
2.73973e-05
2.74134e-05
2.74455e-05
2.74713e-05
2.74967e-05
2.75211e-05
2.75455e-05
2.75681e-05
2.75907e-05
2.76113e-05
2.76328e-05
2.76518e-05
2.76721e-05
2.76903e-05
2.77098e-05
2.77277e-05
2.77459e-05
2.77621e-05
2.77789e-05
2.77951e-05
2.78118e-05
2.78274e-05
2.7843e-05
2.78564e-05
2.7871e-05
2.78837e-05
2.78973e-05
2.79109e-05
2.79202e-05
2.79404e-05
2.79407e-05
2.79716e-05
2.79601e-05
2.79919e-05
2.79798e-05
2.80125e-05
2.79983e-05
2.80293e-05
2.80157e-05
2.80464e-05
2.8032e-05
2.80619e-05
2.80476e-05
2.80764e-05
2.80614e-05
2.80891e-05
2.80735e-05
2.81002e-05
2.80845e-05
2.81106e-05
2.80945e-05
2.81197e-05
2.81033e-05
2.81275e-05
2.81106e-05
2.81339e-05
2.81165e-05
2.81388e-05
2.81212e-05
2.81451e-05
7.17012e-05
)
;

boundaryField
{
    inlet
    {
        type            calculated;
        value           uniform 1.22851e-05;
    }
    outlet
    {
        type            calculated;
        value           uniform 8.7624e-06;
    }
    emptyWalls
    {
        type            empty;
    }
}


// ************************************************************************* //
