/*--------------------------------*- C++ -*----------------------------------*\
  =========                 |
  \\      /  F ield         | OpenFOAM: The Open Source CFD Toolbox
   \\    /   O peration     | Website:  https://openfoam.org
    \\  /    A nd           | Version:  9
     \\/     M anipulation  |
\*---------------------------------------------------------------------------*/
FoamFile
{
    format      ascii;
    class       volScalarField;
    location    "4800";
    object      p;
}
// * * * * * * * * * * * * * * * * * * * * * * * * * * * * * * * * * * * * * //

dimensions      [0 0 0 0 0 0 0];

internalField   nonuniform List<scalar> 
100
(
6.10339e+06
6.09542e+06
6.08474e+06
6.07486e+06
6.06456e+06
6.05426e+06
6.04383e+06
6.03334e+06
6.02278e+06
6.01217e+06
6.00149e+06
5.99077e+06
5.98e+06
5.96918e+06
5.95832e+06
5.94741e+06
5.93646e+06
5.92548e+06
5.91446e+06
5.90341e+06
5.89232e+06
5.8812e+06
5.87005e+06
5.85887e+06
5.84766e+06
5.83642e+06
5.82515e+06
5.81386e+06
5.80254e+06
5.7912e+06
5.77984e+06
5.76845e+06
5.75703e+06
5.7456e+06
5.73414e+06
5.72265e+06
5.71112e+06
5.69955e+06
5.68795e+06
5.67635e+06
5.66479e+06
5.65326e+06
5.64174e+06
5.63026e+06
5.61879e+06
5.60735e+06
5.59592e+06
5.58452e+06
5.57314e+06
5.56177e+06
5.55043e+06
5.53911e+06
5.52781e+06
5.51653e+06
5.50526e+06
5.49402e+06
5.48279e+06
5.47159e+06
5.4604e+06
5.44923e+06
5.43808e+06
5.42695e+06
5.41584e+06
5.40474e+06
5.39367e+06
5.38261e+06
5.37157e+06
5.36055e+06
5.34954e+06
5.33855e+06
5.32758e+06
5.31663e+06
5.30569e+06
5.29478e+06
5.28387e+06
5.273e+06
5.26213e+06
5.25128e+06
5.24044e+06
5.22963e+06
5.21883e+06
5.20805e+06
5.19729e+06
5.18654e+06
5.17581e+06
5.1651e+06
5.15439e+06
5.14372e+06
5.13305e+06
5.1224e+06
5.11177e+06
5.10116e+06
5.09055e+06
5.07997e+06
5.0694e+06
5.05885e+06
5.04832e+06
5.0378e+06
5.02729e+06
5.01682e+06
)
;

boundaryField
{
    inlet
    {
        type            darcyGradPressure;
        gradient        uniform 3.897e+06;
        Mf              Mf;
        phi             phi;
        value           uniform 6.11118e+06;
    }
    outlet
    {
        type            fixedValue;
        value           uniform 5e+06;
    }
    emptyWalls
    {
        type            empty;
    }
}


// ************************************************************************* //
