/*--------------------------------*- C++ -*----------------------------------*\
  =========                 |
  \\      /  F ield         | OpenFOAM: The Open Source CFD Toolbox
   \\    /   O peration     | Website:  https://openfoam.org
    \\  /    A nd           | Version:  9
     \\/     M anipulation  |
\*---------------------------------------------------------------------------*/
FoamFile
{
    format      ascii;
    class       surfaceScalarField;
    location    "4800";
    object      phi;
}
// * * * * * * * * * * * * * * * * * * * * * * * * * * * * * * * * * * * * * //

dimensions      [0 2 0 0 0 0 0];

internalField   nonuniform List<scalar> 
99
(
2.03037e-08
2.03037e-08
2.03037e-08
2.03037e-08
2.03037e-08
2.03037e-08
2.03037e-08
2.03037e-08
2.03037e-08
2.03037e-08
2.03037e-08
2.03037e-08
2.03037e-08
2.03037e-08
2.03037e-08
2.03037e-08
2.03037e-08
2.03037e-08
2.03037e-08
2.03037e-08
2.03037e-08
2.03037e-08
2.03037e-08
2.03037e-08
2.03037e-08
2.03037e-08
2.03037e-08
2.03037e-08
2.03037e-08
2.03037e-08
2.03037e-08
2.03037e-08
2.03037e-08
2.03037e-08
2.03037e-08
2.03037e-08
2.03037e-08
2.03037e-08
2.03037e-08
2.03037e-08
2.03037e-08
2.03037e-08
2.03037e-08
2.03037e-08
2.03037e-08
2.03037e-08
2.03037e-08
2.03037e-08
2.03037e-08
2.03037e-08
2.03037e-08
2.03037e-08
2.03037e-08
2.03037e-08
2.03037e-08
2.03037e-08
2.03037e-08
2.03037e-08
2.03037e-08
2.03037e-08
2.03037e-08
2.03037e-08
2.03037e-08
2.03037e-08
2.03037e-08
2.03037e-08
2.03037e-08
2.03037e-08
2.03037e-08
2.03037e-08
2.03037e-08
2.03037e-08
2.03037e-08
2.03037e-08
2.03037e-08
2.03037e-08
2.03037e-08
2.03037e-08
2.03037e-08
2.03037e-08
2.03037e-08
2.03037e-08
2.03037e-08
2.03037e-08
2.03037e-08
2.03037e-08
2.03037e-08
2.03037e-08
2.03037e-08
2.03037e-08
2.03037e-08
2.03037e-08
2.03037e-08
2.03037e-08
2.03037e-08
2.03037e-08
2.03037e-08
2.03037e-08
2.03037e-08
)
;

boundaryField
{
    inlet
    {
        type            calculated;
        value           uniform -2.03037e-08;
    }
    outlet
    {
        type            calculated;
        value           uniform 2.03037e-08;
    }
    emptyWalls
    {
        type            empty;
        value           nonuniform List<scalar> 0();
    }
}


// ************************************************************************* //
