/*--------------------------------*- C++ -*----------------------------------*\
  =========                 |
  \\      /  F ield         | OpenFOAM: The Open Source CFD Toolbox
   \\    /   O peration     | Website:  https://openfoam.org
    \\  /    A nd           | Version:  9
     \\/     M anipulation  |
\*---------------------------------------------------------------------------*/
FoamFile
{
    format      ascii;
    class       surfaceScalarField;
    location    "4800";
    object      phia;
}
// * * * * * * * * * * * * * * * * * * * * * * * * * * * * * * * * * * * * * //

dimensions      [0 2 0 0 0 0 0];

internalField   nonuniform List<scalar> 
99
(
1.42079e-08
1.42029e-08
1.41975e-08
1.41895e-08
1.41795e-08
1.41759e-08
1.41704e-08
1.41645e-08
1.41583e-08
1.41515e-08
1.41442e-08
1.4137e-08
1.4129e-08
1.41217e-08
1.41132e-08
1.41059e-08
1.40971e-08
1.40892e-08
1.40812e-08
1.40727e-08
1.40649e-08
1.40568e-08
1.40482e-08
1.40399e-08
1.40314e-08
1.40228e-08
1.40144e-08
1.4006e-08
1.39974e-08
1.39886e-08
1.39799e-08
1.39712e-08
1.39619e-08
1.39517e-08
1.39396e-08
1.3923e-08
1.39042e-08
1.38818e-08
1.38619e-08
1.38464e-08
1.38317e-08
1.38176e-08
1.38033e-08
1.37894e-08
1.37759e-08
1.37622e-08
1.37485e-08
1.37344e-08
1.37203e-08
1.3706e-08
1.36916e-08
1.36772e-08
1.36628e-08
1.36486e-08
1.36342e-08
1.36194e-08
1.36043e-08
1.35896e-08
1.35749e-08
1.35604e-08
1.35455e-08
1.35302e-08
1.35146e-08
1.34992e-08
1.34835e-08
1.34679e-08
1.34525e-08
1.34359e-08
1.34211e-08
1.34036e-08
1.33878e-08
1.3372e-08
1.33558e-08
1.33391e-08
1.3322e-08
1.33053e-08
1.32888e-08
1.3272e-08
1.32548e-08
1.32378e-08
1.32211e-08
1.32042e-08
1.31869e-08
1.31694e-08
1.31519e-08
1.31344e-08
1.31167e-08
1.30989e-08
1.30811e-08
1.30633e-08
1.30455e-08
1.30275e-08
1.30093e-08
1.2991e-08
1.29726e-08
1.29541e-08
1.29355e-08
1.29169e-08
1.28981e-08
)
;

boundaryField
{
    inlet
    {
        type            calculated;
        value           uniform -1.42126e-08;
    }
    outlet
    {
        type            calculated;
        value           uniform 1.28864e-08;
    }
    emptyWalls
    {
        type            empty;
        value           nonuniform List<scalar> 0();
    }
}


// ************************************************************************* //
