/*--------------------------------*- C++ -*----------------------------------*\
  =========                 |
  \\      /  F ield         | OpenFOAM: The Open Source CFD Toolbox
   \\    /   O peration     | Website:  https://openfoam.org
    \\  /    A nd           | Version:  9
     \\/     M anipulation  |
\*---------------------------------------------------------------------------*/
FoamFile
{
    format      ascii;
    class       surfaceScalarField;
    location    "4800";
    object      phib;
}
// * * * * * * * * * * * * * * * * * * * * * * * * * * * * * * * * * * * * * //

dimensions      [0 2 0 0 0 0 0];

internalField   nonuniform List<scalar> 
99
(
6.09095e-09
6.09074e-09
6.09051e-09
6.0924e-09
6.09598e-09
6.09298e-09
6.0916e-09
6.09047e-09
6.08937e-09
6.08874e-09
6.08846e-09
6.08779e-09
6.08788e-09
6.08714e-09
6.08737e-09
6.08637e-09
6.08683e-09
6.08638e-09
6.08586e-09
6.0858e-09
6.08505e-09
6.08449e-09
6.08438e-09
6.084e-09
6.08363e-09
6.08339e-09
6.08295e-09
6.0824e-09
6.08202e-09
6.08178e-09
6.08141e-09
6.08096e-09
6.08058e-09
6.0802e-09
6.07954e-09
6.07983e-09
6.07773e-09
6.07747e-09
6.07783e-09
6.07808e-09
6.07834e-09
6.0788e-09
6.07962e-09
6.08025e-09
6.08048e-09
6.08085e-09
6.08125e-09
6.08199e-09
6.08262e-09
6.08342e-09
6.08423e-09
6.08491e-09
6.08551e-09
6.08583e-09
6.08626e-09
6.08697e-09
6.08788e-09
6.08837e-09
6.08866e-09
6.08871e-09
6.08902e-09
6.08971e-09
6.09052e-09
6.0912e-09
6.09193e-09
6.09249e-09
6.09295e-09
6.09372e-09
6.0944e-09
6.09517e-09
6.09586e-09
6.09659e-09
6.09735e-09
6.09815e-09
6.09901e-09
6.09988e-09
6.10072e-09
6.10152e-09
6.10223e-09
6.10287e-09
6.10343e-09
6.10401e-09
6.10471e-09
6.10547e-09
6.10634e-09
6.10722e-09
6.10808e-09
6.10891e-09
6.10967e-09
6.11042e-09
6.11118e-09
6.11199e-09
6.11288e-09
6.11382e-09
6.11481e-09
6.11582e-09
6.11685e-09
6.11789e-09
6.11895e-09
)
;

boundaryField
{
    inlet
    {
        type            calculated;
        value           uniform -6.09112e-09;
    }
    outlet
    {
        type            calculated;
        value           uniform 6.11881e-09;
    }
    emptyWalls
    {
        type            empty;
        value           nonuniform List<scalar> 0();
    }
}


// ************************************************************************* //
