/*--------------------------------*- C++ -*----------------------------------*\
  =========                 |
  \\      /  F ield         | OpenFOAM: The Open Source CFD Toolbox
   \\    /   O peration     | Website:  https://openfoam.org
    \\  /    A nd           | Version:  9
     \\/     M anipulation  |
\*---------------------------------------------------------------------------*/
FoamFile
{
    format      ascii;
    class       surfaceScalarField;
    location    "4800";
    object      phic;
}
// * * * * * * * * * * * * * * * * * * * * * * * * * * * * * * * * * * * * * //

dimensions      [0 2 0 0 0 0 0];

internalField   nonuniform List<scalar> 
99
(
4.93166e-12
1.00644e-11
1.57708e-11
2.18224e-11
2.8232e-11
3.48818e-11
4.17428e-11
4.88006e-11
5.60497e-11
6.34915e-11
7.11183e-11
7.89176e-11
8.68656e-11
9.49457e-11
1.03134e-10
1.11423e-10
1.19778e-10
1.28203e-10
1.36686e-10
1.4522e-10
1.53807e-10
1.62445e-10
1.71133e-10
1.79872e-10
1.88666e-10
1.97517e-10
2.06417e-10
2.15364e-10
2.24344e-10
2.33354e-10
2.42418e-10
2.51619e-10
2.61225e-10
2.71836e-10
2.84559e-10
3.00887e-10
3.21838e-10
3.44506e-10
3.64019e-10
3.79252e-10
3.93677e-10
4.07382e-10
4.20816e-10
4.34118e-10
4.47391e-10
4.60671e-10
4.7399e-10
4.87363e-10
5.00812e-10
5.14338e-10
5.27951e-10
5.41649e-10
5.55436e-10
5.69328e-10
5.83306e-10
5.97382e-10
6.11539e-10
6.25802e-10
6.40174e-10
6.54625e-10
6.69193e-10
6.83816e-10
6.98567e-10
7.13384e-10
7.28304e-10
7.4339e-10
7.58251e-10
7.74106e-10
7.88205e-10
8.04928e-10
8.201e-10
8.35129e-10
8.50549e-10
8.66473e-10
8.82679e-10
8.98555e-10
9.14209e-10
9.30188e-10
9.46679e-10
9.6307e-10
9.79235e-10
9.95503e-10
1.01213e-09
1.02883e-09
1.04549e-09
1.06215e-09
1.07896e-09
1.09588e-09
1.11295e-09
1.13e-09
1.1471e-09
1.16426e-09
1.18159e-09
1.19895e-09
1.21636e-09
1.23381e-09
1.25136e-09
1.26895e-09
1.28666e-09
)
;

boundaryField
{
    inlet
    {
        type            calculated;
        value           uniform 0;
    }
    outlet
    {
        type            calculated;
        value           uniform 1.29855e-09;
    }
    emptyWalls
    {
        type            empty;
        value           nonuniform List<scalar> 0();
    }
}


// ************************************************************************* //
