/*--------------------------------*- C++ -*----------------------------------*\
  =========                 |
  \\      /  F ield         | OpenFOAM: The Open Source CFD Toolbox
   \\    /   O peration     | Website:  https://openfoam.org
    \\  /    A nd           | Version:  9
     \\/     M anipulation  |
\*---------------------------------------------------------------------------*/
FoamFile
{
    format      ascii;
    class       volVectorField;
    location    "4800";
    object      Ua;
}
// * * * * * * * * * * * * * * * * * * * * * * * * * * * * * * * * * * * * * //

dimensions      [0 0 0 0 0 0 0];

internalField   nonuniform List<vector> 
100
(
(0 0 8.98418e-06)
(0 0 1.13043e-05)
(0 0 1.13002e-05)
(0 0 1.12948e-05)
(0 0 1.12877e-05)
(0 0 1.12823e-05)
(0 0 1.12786e-05)
(0 0 1.12741e-05)
(0 0 1.12693e-05)
(0 0 1.12641e-05)
(0 0 1.12585e-05)
(0 0 1.12527e-05)
(0 0 1.12467e-05)
(0 0 1.12406e-05)
(0 0 1.12343e-05)
(0 0 1.12281e-05)
(0 0 1.12216e-05)
(0 0 1.1215e-05)
(0 0 1.12086e-05)
(0 0 1.12021e-05)
(0 0 1.11956e-05)
(0 0 1.11893e-05)
(0 0 1.11826e-05)
(0 0 1.11759e-05)
(0 0 1.11692e-05)
(0 0 1.11624e-05)
(0 0 1.11556e-05)
(0 0 1.11489e-05)
(0 0 1.11422e-05)
(0 0 1.11353e-05)
(0 0 1.11283e-05)
(0 0 1.11214e-05)
(0 0 1.11142e-05)
(0 0 1.11065e-05)
(0 0 1.10976e-05)
(0 0 1.10862e-05)
(0 0 1.10721e-05)
(0 0 1.10557e-05)
(0 0 1.10388e-05)
(0 0 1.10248e-05)
(0 0 1.10128e-05)
(0 0 1.10013e-05)
(0 0 1.099e-05)
(0 0 1.09788e-05)
(0 0 1.09679e-05)
(0 0 1.09571e-05)
(0 0 1.09462e-05)
(0 0 1.09351e-05)
(0 0 1.09239e-05)
(0 0 1.09126e-05)
(0 0 1.09011e-05)
(0 0 1.08897e-05)
(0 0 1.08782e-05)
(0 0 1.08668e-05)
(0 0 1.08555e-05)
(0 0 1.08438e-05)
(0 0 1.0832e-05)
(0 0 1.08201e-05)
(0 0 1.08084e-05)
(0 0 1.07968e-05)
(0 0 1.07851e-05)
(0 0 1.07731e-05)
(0 0 1.07608e-05)
(0 0 1.07485e-05)
(0 0 1.07361e-05)
(0 0 1.07236e-05)
(0 0 1.07113e-05)
(0 0 1.06986e-05)
(0 0 1.06861e-05)
(0 0 1.06732e-05)
(0 0 1.066e-05)
(0 0 1.06474e-05)
(0 0 1.06347e-05)
(0 0 1.06216e-05)
(0 0 1.06081e-05)
(0 0 1.05947e-05)
(0 0 1.05815e-05)
(0 0 1.05682e-05)
(0 0 1.05547e-05)
(0 0 1.05411e-05)
(0 0 1.05276e-05)
(0 0 1.05143e-05)
(0 0 1.05007e-05)
(0 0 1.04869e-05)
(0 0 1.04729e-05)
(0 0 1.0459e-05)
(0 0 1.0445e-05)
(0 0 1.04309e-05)
(0 0 1.04167e-05)
(0 0 1.04025e-05)
(0 0 1.03884e-05)
(0 0 1.03741e-05)
(0 0 1.03597e-05)
(0 0 1.03452e-05)
(0 0 1.03306e-05)
(0 0 1.03159e-05)
(0 0 1.03012e-05)
(0 0 1.02864e-05)
(0 0 1.02715e-05)
(0 0 1.02593e-05)
)
;

boundaryField
{
    inlet
    {
        type            fixedValue;
        value           uniform (0 0 1.131e-05);
    }
    outlet
    {
        type            zeroGradient;
    }
    emptyWalls
    {
        type            empty;
    }
}


// ************************************************************************* //
