/*--------------------------------*- C++ -*----------------------------------*\
  =========                 |
  \\      /  F ield         | OpenFOAM: The Open Source CFD Toolbox
   \\    /   O peration     | Website:  https://openfoam.org
    \\  /    A nd           | Version:  9
     \\/     M anipulation  |
\*---------------------------------------------------------------------------*/
FoamFile
{
    format      ascii;
    class       volVectorField;
    location    "4800";
    object      Ub;
}
// * * * * * * * * * * * * * * * * * * * * * * * * * * * * * * * * * * * * * //

dimensions      [0 0 0 0 0 0 0];

internalField   nonuniform List<vector> 
100
(
(0 0 7.16722e-06)
(0 0 4.84694e-06)
(0 0 4.84677e-06)
(0 0 4.84743e-06)
(0 0 4.8496e-06)
(0 0 4.84983e-06)
(0 0 4.84809e-06)
(0 0 4.84709e-06)
(0 0 4.8462e-06)
(0 0 4.84551e-06)
(0 0 4.84515e-06)
(0 0 4.84478e-06)
(0 0 4.84455e-06)
(0 0 4.84429e-06)
(0 0 4.84408e-06)
(0 0 4.84378e-06)
(0 0 4.84356e-06)
(0 0 4.84357e-06)
(0 0 4.84318e-06)
(0 0 4.84295e-06)
(0 0 4.84263e-06)
(0 0 4.8421e-06)
(0 0 4.84184e-06)
(0 0 4.84164e-06)
(0 0 4.84135e-06)
(0 0 4.8411e-06)
(0 0 4.84083e-06)
(0 0 4.84044e-06)
(0 0 4.84007e-06)
(0 0 4.83982e-06)
(0 0 4.83958e-06)
(0 0 4.83925e-06)
(0 0 4.83892e-06)
(0 0 4.83862e-06)
(0 0 4.83821e-06)
(0 0 4.83806e-06)
(0 0 4.83734e-06)
(0 0 4.8364e-06)
(0 0 4.83644e-06)
(0 0 4.83668e-06)
(0 0 4.83688e-06)
(0 0 4.83717e-06)
(0 0 4.83768e-06)
(0 0 4.83826e-06)
(0 0 4.8386e-06)
(0 0 4.83884e-06)
(0 0 4.83915e-06)
(0 0 4.8396e-06)
(0 0 4.84014e-06)
(0 0 4.84071e-06)
(0 0 4.84136e-06)
(0 0 4.84195e-06)
(0 0 4.84246e-06)
(0 0 4.84282e-06)
(0 0 4.84312e-06)
(0 0 4.84357e-06)
(0 0 4.84422e-06)
(0 0 4.84478e-06)
(0 0 4.84509e-06)
(0 0 4.84522e-06)
(0 0 4.84537e-06)
(0 0 4.84576e-06)
(0 0 4.84636e-06)
(0 0 4.84695e-06)
(0 0 4.84751e-06)
(0 0 4.84802e-06)
(0 0 4.84843e-06)
(0 0 4.84892e-06)
(0 0 4.8495e-06)
(0 0 4.85008e-06)
(0 0 4.85066e-06)
(0 0 4.85122e-06)
(0 0 4.85181e-06)
(0 0 4.85243e-06)
(0 0 4.8531e-06)
(0 0 4.85379e-06)
(0 0 4.85446e-06)
(0 0 4.85512e-06)
(0 0 4.85572e-06)
(0 0 4.85626e-06)
(0 0 4.85673e-06)
(0 0 4.85718e-06)
(0 0 4.85769e-06)
(0 0 4.85827e-06)
(0 0 4.85892e-06)
(0 0 4.85962e-06)
(0 0 4.86031e-06)
(0 0 4.86099e-06)
(0 0 4.86162e-06)
(0 0 4.86222e-06)
(0 0 4.86282e-06)
(0 0 4.86344e-06)
(0 0 4.86412e-06)
(0 0 4.86485e-06)
(0 0 4.86562e-06)
(0 0 4.86641e-06)
(0 0 4.86722e-06)
(0 0 4.86805e-06)
(0 0 4.86888e-06)
(0 0 4.86925e-06)
)
;

boundaryField
{
    inlet
    {
        type            fixedValue;
        value           uniform (0 0 4.84716e-06);
    }
    outlet
    {
        type            zeroGradient;
    }
    emptyWalls
    {
        type            empty;
    }
}


// ************************************************************************* //
