/*--------------------------------*- C++ -*----------------------------------*\
  =========                 |
  \\      /  F ield         | OpenFOAM: The Open Source CFD Toolbox
   \\    /   O peration     | Website:  https://openfoam.org
    \\  /    A nd           | Version:  9
     \\/     M anipulation  |
\*---------------------------------------------------------------------------*/
FoamFile
{
    format      ascii;
    class       volVectorField;
    location    "4800";
    object      Uc;
}
// * * * * * * * * * * * * * * * * * * * * * * * * * * * * * * * * * * * * * //

dimensions      [0 0 0 0 0 0 0];

internalField   nonuniform List<vector> 
100
(
(0 0 5.80308e-09)
(0 0 5.96675e-09)
(0 0 1.02795e-08)
(0 0 1.49579e-08)
(0 0 1.9916e-08)
(0 0 2.51122e-08)
(0 0 3.0488e-08)
(0 0 3.60261e-08)
(0 0 4.17186e-08)
(0 0 4.75639e-08)
(0 0 5.35595e-08)
(0 0 5.96974e-08)
(0 0 6.5963e-08)
(0 0 7.23404e-08)
(0 0 7.88135e-08)
(0 0 8.53695e-08)
(0 0 9.19919e-08)
(0 0 9.86684e-08)
(0 0 1.05396e-07)
(0 0 1.12167e-07)
(0 0 1.18979e-07)
(0 0 1.25833e-07)
(0 0 1.32726e-07)
(0 0 1.3966e-07)
(0 0 1.46637e-07)
(0 0 1.53657e-07)
(0 0 1.6072e-07)
(0 0 1.67821e-07)
(0 0 1.74954e-07)
(0 0 1.82112e-07)
(0 0 1.89304e-07)
(0 0 1.96571e-07)
(0 0 2.04054e-07)
(0 0 2.12098e-07)
(0 0 2.21383e-07)
(0 0 2.32941e-07)
(0 0 2.47774e-07)
(0 0 2.6513e-07)
(0 0 2.81913e-07)
(0 0 2.95738e-07)
(0 0 3.07538e-07)
(0 0 3.18731e-07)
(0 0 3.2953e-07)
(0 0 3.40167e-07)
(0 0 3.50741e-07)
(0 0 3.61307e-07)
(0 0 3.7189e-07)
(0 0 3.8251e-07)
(0 0 3.93182e-07)
(0 0 4.03915e-07)
(0 0 4.14714e-07)
(0 0 4.2558e-07)
(0 0 4.36516e-07)
(0 0 4.4753e-07)
(0 0 4.58619e-07)
(0 0 4.69781e-07)
(0 0 4.81014e-07)
(0 0 4.92322e-07)
(0 0 5.03716e-07)
(0 0 5.15184e-07)
(0 0 5.2673e-07)
(0 0 5.38345e-07)
(0 0 5.50033e-07)
(0 0 5.61798e-07)
(0 0 5.73629e-07)
(0 0 5.85568e-07)
(0 0 5.97484e-07)
(0 0 6.09705e-07)
(0 0 6.21624e-07)
(0 0 6.33887e-07)
(0 0 6.46578e-07)
(0 0 6.58595e-07)
(0 0 6.7071e-07)
(0 0 6.83182e-07)
(0 0 6.95966e-07)
(0 0 7.0873e-07)
(0 0 7.21276e-07)
(0 0 7.33862e-07)
(0 0 7.46782e-07)
(0 0 7.59865e-07)
(0 0 7.72819e-07)
(0 0 7.85723e-07)
(0 0 7.98813e-07)
(0 0 8.12074e-07)
(0 0 8.25348e-07)
(0 0 8.38607e-07)
(0 0 8.51924e-07)
(0 0 8.65344e-07)
(0 0 8.78865e-07)
(0 0 8.92441e-07)
(0 0 9.06029e-07)
(0 0 9.1966e-07)
(0 0 9.33383e-07)
(0 0 9.47186e-07)
(0 0 9.61023e-07)
(0 0 9.74893e-07)
(0 0 9.88815e-07)
(0 0 1.0028e-06)
(0 0 1.01685e-06)
(0 0 1.02863e-06)
)
;

boundaryField
{
    inlet
    {
        type            fixedValue;
        value           uniform (0 0 0);
    }
    outlet
    {
        type            zeroGradient;
    }
    emptyWalls
    {
        type            empty;
    }
}


// ************************************************************************* //
