/*--------------------------------*- C++ -*----------------------------------*\
  =========                 |
  \\      /  F ield         | OpenFOAM: The Open Source CFD Toolbox
   \\    /   O peration     | Website:  https://openfoam.org
    \\  /    A nd           | Version:  9
     \\/     M anipulation  |
\*---------------------------------------------------------------------------*/
FoamFile
{
    format      ascii;
    class       volScalarField;
    location    "24450";
    object      krc;
}
// * * * * * * * * * * * * * * * * * * * * * * * * * * * * * * * * * * * * * //

dimensions      [0 0 0 0 0 0 0];

internalField   nonuniform List<scalar> 
1000
(
7.51507e-08
6.85788e-07
2.43177e-06
5.25021e-06
9.12566e-06
1.40617e-05
2.00752e-05
2.71839e-05
3.54097e-05
4.47716e-05
5.52847e-05
6.69534e-05
7.97709e-05
9.37123e-05
0.000108727
0.000124737
0.000141622
0.000159225
0.000177333
0.000195702
0.000214039
0.000232044
0.000249416
0.000265889
0.000281251
0.000295362
0.000308159
0.000319664
0.000330028
0.000339811
0.000351425
0.000376056
0.000464552
0.000886805
0.00529881
0.030863
0.0415392
0.0447535
0.0462572
0.0471886
0.0478707
0.0484242
0.0488994
0.0493237
0.0497102
0.0500688
0.050404
0.0507208
0.0510208
0.0513072
0.0515807
0.0518434
0.0520955
0.0523388
0.0525733
0.0528006
0.0530207
0.0532348
0.053443
0.0536464
0.0538448
0.0540395
0.0542302
0.054418
0.0546029
0.0547857
0.0549662
0.0551452
0.0553227
0.0554995
0.0556758
0.0558526
0.0560322
0.0562123
0.0563932
0.0565749
0.0567575
0.0569414
0.0571269
0.0573143
0.057504
0.0576967
0.0578927
0.058093
0.0582981
0.0585094
0.0587282
0.0589565
0.0591968
0.0594527
0.0597288
0.0600308
0.0603655
0.0607395
0.0611582
0.0616235
0.0621322
0.0626768
0.063248
0.0638386
0.0644431
0.0650579
0.0656802
0.066308
0.0669399
0.0675747
0.0682116
0.06885
0.0694893
0.0701293
0.0707695
0.0714097
0.0720498
0.0726895
0.0733287
0.0739673
0.0746053
0.0752425
0.0758788
0.0765144
0.077149
0.0777826
0.0784153
0.0790469
0.0796774
0.0803068
0.0809351
0.0815623
0.0821882
0.0828129
0.0834364
0.0840586
0.0846795
0.0852992
0.0859176
0.0865347
0.0871506
0.0877651
0.0883784
0.0889905
0.0896012
0.0902107
0.090819
0.0914259
0.0920317
0.0926362
0.0932394
0.0938414
0.0944422
0.0950417
0.09564
0.096237
0.0968329
0.0974275
0.0980208
0.098613
0.0992039
0.0997936
0.100382
0.100969
0.101555
0.10214
0.102724
0.103307
0.103888
0.104468
0.105047
0.105625
0.106201
0.106777
0.107351
0.107924
0.108496
0.109067
0.109637
0.110206
0.110773
0.111339
0.111904
0.112469
0.113032
0.113593
0.114154
0.114714
0.115273
0.11583
0.116386
0.116942
0.117496
0.118049
0.118602
0.119153
0.119703
0.120252
0.1208
0.121347
0.121893
0.122438
0.122981
0.123524
0.124066
0.124607
0.125147
0.125686
0.126224
0.126761
0.127297
0.127831
0.128365
0.128898
0.12943
0.129962
0.130492
0.131021
0.131549
0.132077
0.132603
0.133129
0.133653
0.134177
0.134699
0.135221
0.135742
0.136262
0.136781
0.137299
0.137816
0.138332
0.138848
0.139362
0.139875
0.140388
0.140899
0.14141
0.14192
0.142429
0.142937
0.143445
0.143951
0.144457
0.144962
0.145466
0.14597
0.146473
0.146975
0.147476
0.147977
0.148477
0.148977
0.149475
0.149973
0.15047
0.150967
0.151462
0.151957
0.152452
0.152945
0.153438
0.15393
0.154421
0.154911
0.155401
0.155889
0.156377
0.156865
0.157351
0.157837
0.158322
0.158806
0.159289
0.159772
0.160254
0.160736
0.161216
0.161696
0.162176
0.162654
0.163132
0.16361
0.164086
0.164562
0.165037
0.165512
0.165986
0.16646
0.166932
0.167404
0.167876
0.168347
0.168817
0.169286
0.169755
0.170223
0.170691
0.171158
0.171624
0.17209
0.172555
0.17302
0.173484
0.173947
0.17441
0.174872
0.175334
0.175795
0.176255
0.176715
0.177174
0.177633
0.178091
0.178548
0.179005
0.179461
0.179917
0.180372
0.180827
0.181281
0.181734
0.182187
0.18264
0.183092
0.183543
0.183994
0.184444
0.184894
0.185343
0.185791
0.18624
0.186687
0.187134
0.187581
0.188027
0.188472
0.188917
0.189362
0.189806
0.190249
0.190692
0.191134
0.191576
0.192018
0.192459
0.192899
0.193339
0.193779
0.194218
0.194657
0.195095
0.195532
0.195969
0.196406
0.196842
0.197278
0.197713
0.198148
0.198583
0.199016
0.19945
0.199883
0.200315
0.200747
0.201179
0.20161
0.20204
0.20247
0.2029
0.203329
0.203757
0.204185
0.204613
0.20504
0.205467
0.205893
0.206319
0.206744
0.207169
0.207594
0.208018
0.208442
0.208866
0.209289
0.209712
0.210134
0.210556
0.210978
0.2114
0.211822
0.212243
0.212664
0.213084
0.213505
0.213925
0.214345
0.214764
0.215183
0.215602
0.216021
0.216439
0.216857
0.217274
0.217691
0.218108
0.218524
0.21894
0.219356
0.219771
0.220186
0.2206
0.221014
0.221428
0.221841
0.222254
0.222667
0.223079
0.223491
0.223902
0.224314
0.224724
0.225135
0.225545
0.225955
0.226365
0.226774
0.227183
0.227592
0.228
0.228408
0.228816
0.229223
0.22963
0.230037
0.230444
0.23085
0.231256
0.231662
0.232068
0.232473
0.232878
0.233282
0.233687
0.234091
0.234494
0.234898
0.235301
0.235704
0.236107
0.236509
0.236912
0.237314
0.237715
0.238117
0.238518
0.238919
0.239319
0.23972
0.24012
0.24052
0.240919
0.241319
0.241718
0.242116
0.242515
0.242913
0.243312
0.243709
0.244107
0.244504
0.244902
0.245299
0.245695
0.246092
0.246488
0.246884
0.24728
0.247675
0.248071
0.248466
0.248861
0.249255
0.24965
0.250044
0.250438
0.250832
0.251225
0.251619
0.252012
0.252405
0.252798
0.25319
0.253583
0.253975
0.254367
0.254759
0.25515
0.255542
0.255933
0.256324
0.256715
0.257106
0.257496
0.257887
0.258277
0.258667
0.259056
0.259446
0.259835
0.260225
0.260614
0.261002
0.261391
0.261779
0.262168
0.262556
0.262943
0.263331
0.263718
0.264105
0.264492
0.264879
0.265266
0.265652
0.266038
0.266424
0.26681
0.267196
0.267581
0.267966
0.268351
0.268736
0.269121
0.269506
0.269891
0.270276
0.27066
0.271045
0.271429
0.271814
0.272198
0.272582
0.272967
0.273351
0.273736
0.27412
0.274504
0.274889
0.275273
0.275658
0.276042
0.276426
0.276811
0.277195
0.277579
0.277964
0.278348
0.278732
0.279116
0.2795
0.279884
0.280268
0.280652
0.281035
0.281419
0.281802
0.282185
0.282568
0.282951
0.283334
0.283717
0.2841
0.284482
0.284865
0.285247
0.285629
0.286012
0.286394
0.286776
0.287158
0.28754
0.287922
0.288303
0.288685
0.289067
0.289448
0.28983
0.290212
0.290593
0.290975
0.291356
0.291738
0.292119
0.2925
0.292882
0.293263
0.293644
0.294025
0.294407
0.294788
0.295169
0.29555
0.295932
0.296313
0.296694
0.297075
0.297456
0.297837
0.298218
0.298599
0.298981
0.299362
0.299743
0.300124
0.300505
0.300886
0.301267
0.301648
0.302029
0.30241
0.302791
0.303172
0.303554
0.303935
0.304316
0.304697
0.305078
0.305459
0.305841
0.306222
0.306603
0.306984
0.307366
0.307747
0.308128
0.30851
0.308891
0.309273
0.309654
0.310036
0.310417
0.310799
0.311181
0.311562
0.311944
0.312326
0.312708
0.31309
0.313472
0.313854
0.314236
0.314618
0.315
0.315383
0.315765
0.316147
0.31653
0.316913
0.317295
0.317678
0.318061
0.318444
0.318827
0.31921
0.319593
0.319976
0.32036
0.320743
0.321127
0.32151
0.321894
0.322278
0.322662
0.323046
0.32343
0.323814
0.324198
0.324582
0.324967
0.325351
0.325735
0.32612
0.326505
0.326889
0.327274
0.327659
0.328044
0.328429
0.328814
0.329199
0.329585
0.32997
0.330356
0.330742
0.331127
0.331514
0.3319
0.332286
0.332673
0.333059
0.333446
0.333834
0.334221
0.334609
0.334996
0.335385
0.335773
0.336162
0.336551
0.33694
0.33733
0.33772
0.33811
0.338501
0.338892
0.339283
0.339675
0.340067
0.340459
0.340852
0.341245
0.341638
0.342031
0.342425
0.342819
0.343214
0.343609
0.344004
0.344399
0.344794
0.34519
0.345586
0.345982
0.346379
0.346776
0.347173
0.34757
0.347967
0.348365
0.348763
0.349161
0.34956
0.349958
0.350357
0.350757
0.351156
0.351556
0.351956
0.352356
0.352757
0.353158
0.353559
0.353961
0.354363
0.354765
0.355167
0.35557
0.355973
0.356377
0.356781
0.357185
0.35759
0.357995
0.3584
0.358805
0.359212
0.359618
0.360025
0.360432
0.36084
0.361248
0.361656
0.362065
0.362474
0.362884
0.363294
0.363704
0.364115
0.364526
0.364938
0.36535
0.365763
0.366176
0.36659
0.367003
0.367418
0.367833
0.368248
0.368664
0.36908
0.369497
0.369914
0.370332
0.37075
0.371169
0.371588
0.372007
0.372428
0.372848
0.373269
0.373691
0.374113
0.374536
0.374959
0.375383
0.375808
0.376233
0.376658
0.377084
0.377511
0.377938
0.378366
0.378794
0.379223
0.379653
0.380083
0.380514
0.380945
0.381377
0.38181
0.382243
0.382677
0.383112
0.383547
0.383983
0.38442
0.384857
0.385295
0.385734
0.386173
0.386613
0.387054
0.387495
0.387937
0.38838
0.388824
0.389269
0.389714
0.39016
0.390606
0.391054
0.391502
0.391951
0.392401
0.392852
0.393303
0.393755
0.394208
0.394662
0.395117
0.395572
0.396029
0.396486
0.396944
0.397403
0.397863
0.398323
0.398785
0.399247
0.39971
0.400175
0.40064
0.401106
0.401573
0.402041
0.40251
0.402979
0.40345
0.403922
0.404395
0.404869
0.405344
0.40582
0.406297
0.406775
0.407254
0.407735
0.408216
0.408699
0.409183
0.409668
0.410155
0.410642
0.411131
0.411621
0.412113
0.412606
0.4131
0.413595
0.414092
0.41459
0.415089
0.41559
0.416093
0.416596
0.417101
0.417607
0.418115
0.418624
0.419135
0.419646
0.420159
0.420673
0.421189
0.421706
0.422224
0.422743
0.423263
0.423784
0.424307
0.42483
0.425354
0.425878
0.426404
0.42693
0.427456
0.427982
0.428509
0.429035
0.429561
0.430087
0.430611
0.431135
0.431657
0.432176
0.432694
0.433209
0.43372
0.434227
0.434729
0.435226
0.435716
0.436199
0.436674
0.43714
0.437596
0.43804
0.438472
0.43889
0.439294
0.439682
0.440053
0.440407
0.440742
0.441059
0.441355
0.441632
0.441889
0.442126
0.442342
0.442539
0.442718
0.442879
0.443022
0.443149
0.44326
0.443358
0.443443
0.443516
0.443579
0.443633
0.443678
0.443715
0.443747
0.443774
0.443796
0.443814
0.443829
0.443843
0.443855
0.443869
0.443887
0.443912
0.443953
0.444022
0.444143
0.44436
0.444747
0.445439
0.446673
0.448858
0.452679
0.459214
0.469971
0.486606
0.509981
0.538694
0.568506
0.594309
0.613165
0.625218
0.632242
0.636111
0.638172
0.639253
0.639813
0.640103
0.640251
0.640329
0.640368
0.640389
0.640398
0.640405
)
;

boundaryField
{
    inlet
    {
        type            calculated;
        value           uniform 3.08149e-33;
    }
    outlet
    {
        type            calculated;
        value           uniform 0.640405;
    }
    emptyWalls
    {
        type            empty;
    }
}


// ************************************************************************* //
