/*--------------------------------*- C++ -*----------------------------------*\
  =========                 |
  \\      /  F ield         | OpenFOAM: The Open Source CFD Toolbox
   \\    /   O peration     | Website:  https://openfoam.org
    \\  /    A nd           | Version:  9
     \\/     M anipulation  |
\*---------------------------------------------------------------------------*/
FoamFile
{
    format      ascii;
    class       volVectorField;
    location    "24450";
    object      Ua;
}
// * * * * * * * * * * * * * * * * * * * * * * * * * * * * * * * * * * * * * //

dimensions      [0 0 0 0 0 0 0];

internalField   nonuniform List<vector> 
1000
(
(2.74911e-06 0 0)
(2.74881e-06 0 0)
(2.74868e-06 0 0)
(2.74856e-06 0 0)
(2.74834e-06 0 0)
(2.74812e-06 0 0)
(2.74784e-06 0 0)
(2.7475e-06 0 0)
(2.74715e-06 0 0)
(2.74673e-06 0 0)
(2.7463e-06 0 0)
(2.74581e-06 0 0)
(2.74528e-06 0 0)
(2.74466e-06 0 0)
(2.74399e-06 0 0)
(2.74327e-06 0 0)
(2.74247e-06 0 0)
(2.74174e-06 0 0)
(2.74091e-06 0 0)
(2.74017e-06 0 0)
(2.73941e-06 0 0)
(2.73864e-06 0 0)
(2.73797e-06 0 0)
(2.73727e-06 0 0)
(2.73666e-06 0 0)
(2.7361e-06 0 0)
(2.73559e-06 0 0)
(2.7351e-06 0 0)
(2.73464e-06 0 0)
(2.73417e-06 0 0)
(2.73352e-06 0 0)
(2.73201e-06 0 0)
(2.72635e-06 0 0)
(2.70243e-06 0 0)
(2.57911e-06 0 0)
(2.34353e-06 0 0)
(2.17977e-06 0 0)
(2.13451e-06 0 0)
(2.11643e-06 0 0)
(2.11005e-06 0 0)
(2.10818e-06 0 0)
(2.1072e-06 0 0)
(2.10573e-06 0 0)
(2.10359e-06 0 0)
(2.10101e-06 0 0)
(2.09823e-06 0 0)
(2.09543e-06 0 0)
(2.09271e-06 0 0)
(2.0901e-06 0 0)
(2.08761e-06 0 0)
(2.08526e-06 0 0)
(2.08302e-06 0 0)
(2.08089e-06 0 0)
(2.07887e-06 0 0)
(2.07695e-06 0 0)
(2.07514e-06 0 0)
(2.07341e-06 0 0)
(2.07175e-06 0 0)
(2.07017e-06 0 0)
(2.06868e-06 0 0)
(2.06726e-06 0 0)
(2.06591e-06 0 0)
(2.06463e-06 0 0)
(2.06341e-06 0 0)
(2.06225e-06 0 0)
(2.06116e-06 0 0)
(2.06013e-06 0 0)
(2.05915e-06 0 0)
(2.0582e-06 0 0)
(2.0573e-06 0 0)
(2.05643e-06 0 0)
(2.05561e-06 0 0)
(2.05483e-06 0 0)
(2.05409e-06 0 0)
(2.05341e-06 0 0)
(2.0528e-06 0 0)
(2.05225e-06 0 0)
(2.05175e-06 0 0)
(2.05129e-06 0 0)
(2.05083e-06 0 0)
(2.05038e-06 0 0)
(2.04992e-06 0 0)
(2.04946e-06 0 0)
(2.04902e-06 0 0)
(2.0486e-06 0 0)
(2.04823e-06 0 0)
(2.04791e-06 0 0)
(2.04767e-06 0 0)
(2.04752e-06 0 0)
(2.04744e-06 0 0)
(2.04741e-06 0 0)
(2.04742e-06 0 0)
(2.04744e-06 0 0)
(2.04745e-06 0 0)
(2.04742e-06 0 0)
(2.04736e-06 0 0)
(2.04727e-06 0 0)
(2.04718e-06 0 0)
(2.0471e-06 0 0)
(2.04709e-06 0 0)
(2.04718e-06 0 0)
(2.04743e-06 0 0)
(2.04791e-06 0 0)
(2.04873e-06 0 0)
(2.04999e-06 0 0)
(2.05175e-06 0 0)
(2.05396e-06 0 0)
(2.05652e-06 0 0)
(2.05926e-06 0 0)
(2.06205e-06 0 0)
(2.06479e-06 0 0)
(2.0674e-06 0 0)
(2.06986e-06 0 0)
(2.07215e-06 0 0)
(2.07421e-06 0 0)
(2.07599e-06 0 0)
(2.07738e-06 0 0)
(2.07829e-06 0 0)
(2.07864e-06 0 0)
(2.07838e-06 0 0)
(2.0775e-06 0 0)
(2.07601e-06 0 0)
(2.074e-06 0 0)
(2.07156e-06 0 0)
(2.06883e-06 0 0)
(2.06591e-06 0 0)
(2.06296e-06 0 0)
(2.06007e-06 0 0)
(2.05735e-06 0 0)
(2.05486e-06 0 0)
(2.05267e-06 0 0)
(2.05079e-06 0 0)
(2.04923e-06 0 0)
(2.04799e-06 0 0)
(2.04704e-06 0 0)
(2.04634e-06 0 0)
(2.04585e-06 0 0)
(2.04553e-06 0 0)
(2.04534e-06 0 0)
(2.04524e-06 0 0)
(2.04518e-06 0 0)
(2.04515e-06 0 0)
(2.0451e-06 0 0)
(2.04503e-06 0 0)
(2.04493e-06 0 0)
(2.04478e-06 0 0)
(2.04458e-06 0 0)
(2.04433e-06 0 0)
(2.04403e-06 0 0)
(2.0437e-06 0 0)
(2.04332e-06 0 0)
(2.04292e-06 0 0)
(2.04249e-06 0 0)
(2.04204e-06 0 0)
(2.04157e-06 0 0)
(2.0411e-06 0 0)
(2.04062e-06 0 0)
(2.04014e-06 0 0)
(2.03965e-06 0 0)
(2.03917e-06 0 0)
(2.0387e-06 0 0)
(2.03823e-06 0 0)
(2.03776e-06 0 0)
(2.03731e-06 0 0)
(2.03686e-06 0 0)
(2.03642e-06 0 0)
(2.03599e-06 0 0)
(2.03557e-06 0 0)
(2.03516e-06 0 0)
(2.03476e-06 0 0)
(2.03438e-06 0 0)
(2.034e-06 0 0)
(2.03364e-06 0 0)
(2.03329e-06 0 0)
(2.03295e-06 0 0)
(2.03262e-06 0 0)
(2.03231e-06 0 0)
(2.032e-06 0 0)
(2.03171e-06 0 0)
(2.03143e-06 0 0)
(2.03116e-06 0 0)
(2.0309e-06 0 0)
(2.03065e-06 0 0)
(2.03042e-06 0 0)
(2.03019e-06 0 0)
(2.02998e-06 0 0)
(2.02979e-06 0 0)
(2.02961e-06 0 0)
(2.02945e-06 0 0)
(2.0293e-06 0 0)
(2.02916e-06 0 0)
(2.02904e-06 0 0)
(2.02893e-06 0 0)
(2.02883e-06 0 0)
(2.02873e-06 0 0)
(2.02864e-06 0 0)
(2.02855e-06 0 0)
(2.02847e-06 0 0)
(2.02839e-06 0 0)
(2.02831e-06 0 0)
(2.02823e-06 0 0)
(2.02816e-06 0 0)
(2.02811e-06 0 0)
(2.02806e-06 0 0)
(2.02803e-06 0 0)
(2.02801e-06 0 0)
(2.02801e-06 0 0)
(2.02801e-06 0 0)
(2.02803e-06 0 0)
(2.02805e-06 0 0)
(2.02806e-06 0 0)
(2.02807e-06 0 0)
(2.02807e-06 0 0)
(2.02805e-06 0 0)
(2.02802e-06 0 0)
(2.02798e-06 0 0)
(2.02793e-06 0 0)
(2.0279e-06 0 0)
(2.02789e-06 0 0)
(2.02793e-06 0 0)
(2.02804e-06 0 0)
(2.02824e-06 0 0)
(2.02855e-06 0 0)
(2.029e-06 0 0)
(2.02959e-06 0 0)
(2.03033e-06 0 0)
(2.03123e-06 0 0)
(2.03229e-06 0 0)
(2.03349e-06 0 0)
(2.03484e-06 0 0)
(2.03632e-06 0 0)
(2.0379e-06 0 0)
(2.03955e-06 0 0)
(2.04126e-06 0 0)
(2.04299e-06 0 0)
(2.04471e-06 0 0)
(2.04637e-06 0 0)
(2.04794e-06 0 0)
(2.04938e-06 0 0)
(2.05065e-06 0 0)
(2.05171e-06 0 0)
(2.05253e-06 0 0)
(2.05309e-06 0 0)
(2.05336e-06 0 0)
(2.05333e-06 0 0)
(2.053e-06 0 0)
(2.05239e-06 0 0)
(2.05149e-06 0 0)
(2.05035e-06 0 0)
(2.04898e-06 0 0)
(2.04744e-06 0 0)
(2.04576e-06 0 0)
(2.04398e-06 0 0)
(2.04216e-06 0 0)
(2.04033e-06 0 0)
(2.03853e-06 0 0)
(2.03679e-06 0 0)
(2.03515e-06 0 0)
(2.03361e-06 0 0)
(2.03221e-06 0 0)
(2.03094e-06 0 0)
(2.0298e-06 0 0)
(2.02881e-06 0 0)
(2.02794e-06 0 0)
(2.02719e-06 0 0)
(2.02656e-06 0 0)
(2.02601e-06 0 0)
(2.02555e-06 0 0)
(2.02516e-06 0 0)
(2.02482e-06 0 0)
(2.02452e-06 0 0)
(2.02424e-06 0 0)
(2.02399e-06 0 0)
(2.02374e-06 0 0)
(2.02349e-06 0 0)
(2.02324e-06 0 0)
(2.02297e-06 0 0)
(2.0227e-06 0 0)
(2.0224e-06 0 0)
(2.02209e-06 0 0)
(2.02177e-06 0 0)
(2.02143e-06 0 0)
(2.02107e-06 0 0)
(2.02069e-06 0 0)
(2.02031e-06 0 0)
(2.01991e-06 0 0)
(2.0195e-06 0 0)
(2.01909e-06 0 0)
(2.01867e-06 0 0)
(2.01825e-06 0 0)
(2.01782e-06 0 0)
(2.01739e-06 0 0)
(2.01697e-06 0 0)
(2.01654e-06 0 0)
(2.01612e-06 0 0)
(2.0157e-06 0 0)
(2.01529e-06 0 0)
(2.01488e-06 0 0)
(2.01448e-06 0 0)
(2.01408e-06 0 0)
(2.01369e-06 0 0)
(2.01331e-06 0 0)
(2.01294e-06 0 0)
(2.01257e-06 0 0)
(2.01221e-06 0 0)
(2.01186e-06 0 0)
(2.01152e-06 0 0)
(2.01119e-06 0 0)
(2.01087e-06 0 0)
(2.01055e-06 0 0)
(2.01024e-06 0 0)
(2.00995e-06 0 0)
(2.00966e-06 0 0)
(2.00938e-06 0 0)
(2.00911e-06 0 0)
(2.00885e-06 0 0)
(2.0086e-06 0 0)
(2.00836e-06 0 0)
(2.00814e-06 0 0)
(2.00792e-06 0 0)
(2.00771e-06 0 0)
(2.00751e-06 0 0)
(2.00733e-06 0 0)
(2.00715e-06 0 0)
(2.00698e-06 0 0)
(2.00682e-06 0 0)
(2.00667e-06 0 0)
(2.00652e-06 0 0)
(2.00639e-06 0 0)
(2.00626e-06 0 0)
(2.00613e-06 0 0)
(2.00601e-06 0 0)
(2.0059e-06 0 0)
(2.00579e-06 0 0)
(2.00569e-06 0 0)
(2.0056e-06 0 0)
(2.00551e-06 0 0)
(2.00543e-06 0 0)
(2.00535e-06 0 0)
(2.00528e-06 0 0)
(2.00522e-06 0 0)
(2.00516e-06 0 0)
(2.00511e-06 0 0)
(2.00505e-06 0 0)
(2.005e-06 0 0)
(2.00495e-06 0 0)
(2.0049e-06 0 0)
(2.00485e-06 0 0)
(2.00481e-06 0 0)
(2.00476e-06 0 0)
(2.00472e-06 0 0)
(2.00468e-06 0 0)
(2.00466e-06 0 0)
(2.00465e-06 0 0)
(2.00467e-06 0 0)
(2.00472e-06 0 0)
(2.00481e-06 0 0)
(2.00495e-06 0 0)
(2.00514e-06 0 0)
(2.00539e-06 0 0)
(2.00571e-06 0 0)
(2.00611e-06 0 0)
(2.00659e-06 0 0)
(2.00715e-06 0 0)
(2.0078e-06 0 0)
(2.00853e-06 0 0)
(2.00935e-06 0 0)
(2.01025e-06 0 0)
(2.01122e-06 0 0)
(2.01226e-06 0 0)
(2.01335e-06 0 0)
(2.01449e-06 0 0)
(2.01566e-06 0 0)
(2.01685e-06 0 0)
(2.01803e-06 0 0)
(2.0192e-06 0 0)
(2.02032e-06 0 0)
(2.0214e-06 0 0)
(2.02239e-06 0 0)
(2.0233e-06 0 0)
(2.02409e-06 0 0)
(2.02476e-06 0 0)
(2.02528e-06 0 0)
(2.02565e-06 0 0)
(2.02587e-06 0 0)
(2.02591e-06 0 0)
(2.02578e-06 0 0)
(2.02548e-06 0 0)
(2.02502e-06 0 0)
(2.02441e-06 0 0)
(2.02364e-06 0 0)
(2.02275e-06 0 0)
(2.02174e-06 0 0)
(2.02063e-06 0 0)
(2.01945e-06 0 0)
(2.01821e-06 0 0)
(2.01693e-06 0 0)
(2.01564e-06 0 0)
(2.01434e-06 0 0)
(2.01306e-06 0 0)
(2.01181e-06 0 0)
(2.01061e-06 0 0)
(2.00946e-06 0 0)
(2.00837e-06 0 0)
(2.00734e-06 0 0)
(2.00639e-06 0 0)
(2.00551e-06 0 0)
(2.0047e-06 0 0)
(2.00395e-06 0 0)
(2.00327e-06 0 0)
(2.00266e-06 0 0)
(2.00209e-06 0 0)
(2.00158e-06 0 0)
(2.00111e-06 0 0)
(2.00067e-06 0 0)
(2.00027e-06 0 0)
(1.99989e-06 0 0)
(1.99953e-06 0 0)
(1.99919e-06 0 0)
(1.99886e-06 0 0)
(1.99853e-06 0 0)
(1.99821e-06 0 0)
(1.99789e-06 0 0)
(1.99757e-06 0 0)
(1.99724e-06 0 0)
(1.9969e-06 0 0)
(1.99656e-06 0 0)
(1.99622e-06 0 0)
(1.99586e-06 0 0)
(1.9955e-06 0 0)
(1.99513e-06 0 0)
(1.99476e-06 0 0)
(1.99438e-06 0 0)
(1.99399e-06 0 0)
(1.99361e-06 0 0)
(1.99321e-06 0 0)
(1.99282e-06 0 0)
(1.99242e-06 0 0)
(1.99202e-06 0 0)
(1.99162e-06 0 0)
(1.99123e-06 0 0)
(1.99083e-06 0 0)
(1.99044e-06 0 0)
(1.99005e-06 0 0)
(1.98966e-06 0 0)
(1.98928e-06 0 0)
(1.9889e-06 0 0)
(1.98853e-06 0 0)
(1.98816e-06 0 0)
(1.9878e-06 0 0)
(1.98744e-06 0 0)
(1.98709e-06 0 0)
(1.98675e-06 0 0)
(1.98641e-06 0 0)
(1.98608e-06 0 0)
(1.98576e-06 0 0)
(1.98545e-06 0 0)
(1.98514e-06 0 0)
(1.98484e-06 0 0)
(1.98455e-06 0 0)
(1.98426e-06 0 0)
(1.98399e-06 0 0)
(1.98372e-06 0 0)
(1.98346e-06 0 0)
(1.98321e-06 0 0)
(1.98297e-06 0 0)
(1.98274e-06 0 0)
(1.98251e-06 0 0)
(1.9823e-06 0 0)
(1.98209e-06 0 0)
(1.98189e-06 0 0)
(1.9817e-06 0 0)
(1.98151e-06 0 0)
(1.98133e-06 0 0)
(1.98116e-06 0 0)
(1.981e-06 0 0)
(1.98084e-06 0 0)
(1.98069e-06 0 0)
(1.98055e-06 0 0)
(1.98041e-06 0 0)
(1.98028e-06 0 0)
(1.98016e-06 0 0)
(1.98004e-06 0 0)
(1.97993e-06 0 0)
(1.97982e-06 0 0)
(1.97971e-06 0 0)
(1.97962e-06 0 0)
(1.97952e-06 0 0)
(1.97943e-06 0 0)
(1.97935e-06 0 0)
(1.97927e-06 0 0)
(1.97919e-06 0 0)
(1.97911e-06 0 0)
(1.97904e-06 0 0)
(1.97897e-06 0 0)
(1.97891e-06 0 0)
(1.97884e-06 0 0)
(1.97879e-06 0 0)
(1.97874e-06 0 0)
(1.97869e-06 0 0)
(1.97866e-06 0 0)
(1.97863e-06 0 0)
(1.97862e-06 0 0)
(1.97863e-06 0 0)
(1.97865e-06 0 0)
(1.9787e-06 0 0)
(1.97877e-06 0 0)
(1.97887e-06 0 0)
(1.97901e-06 0 0)
(1.97918e-06 0 0)
(1.9794e-06 0 0)
(1.97965e-06 0 0)
(1.97996e-06 0 0)
(1.98031e-06 0 0)
(1.98071e-06 0 0)
(1.98117e-06 0 0)
(1.98168e-06 0 0)
(1.98224e-06 0 0)
(1.98285e-06 0 0)
(1.9835e-06 0 0)
(1.98421e-06 0 0)
(1.98495e-06 0 0)
(1.98573e-06 0 0)
(1.98654e-06 0 0)
(1.98737e-06 0 0)
(1.98822e-06 0 0)
(1.98907e-06 0 0)
(1.98993e-06 0 0)
(1.99078e-06 0 0)
(1.9916e-06 0 0)
(1.9924e-06 0 0)
(1.99315e-06 0 0)
(1.99386e-06 0 0)
(1.9945e-06 0 0)
(1.99508e-06 0 0)
(1.99558e-06 0 0)
(1.99599e-06 0 0)
(1.99631e-06 0 0)
(1.99654e-06 0 0)
(1.99666e-06 0 0)
(1.99668e-06 0 0)
(1.99658e-06 0 0)
(1.99639e-06 0 0)
(1.99608e-06 0 0)
(1.99568e-06 0 0)
(1.99517e-06 0 0)
(1.99458e-06 0 0)
(1.9939e-06 0 0)
(1.99314e-06 0 0)
(1.99231e-06 0 0)
(1.99143e-06 0 0)
(1.99051e-06 0 0)
(1.98954e-06 0 0)
(1.98855e-06 0 0)
(1.98755e-06 0 0)
(1.98654e-06 0 0)
(1.98553e-06 0 0)
(1.98453e-06 0 0)
(1.98355e-06 0 0)
(1.9826e-06 0 0)
(1.98167e-06 0 0)
(1.98078e-06 0 0)
(1.97993e-06 0 0)
(1.97911e-06 0 0)
(1.97834e-06 0 0)
(1.97761e-06 0 0)
(1.97692e-06 0 0)
(1.97627e-06 0 0)
(1.97565e-06 0 0)
(1.97508e-06 0 0)
(1.97453e-06 0 0)
(1.97402e-06 0 0)
(1.97353e-06 0 0)
(1.97308e-06 0 0)
(1.97264e-06 0 0)
(1.97222e-06 0 0)
(1.97182e-06 0 0)
(1.97143e-06 0 0)
(1.97105e-06 0 0)
(1.97068e-06 0 0)
(1.97032e-06 0 0)
(1.96996e-06 0 0)
(1.96961e-06 0 0)
(1.96926e-06 0 0)
(1.9689e-06 0 0)
(1.96855e-06 0 0)
(1.9682e-06 0 0)
(1.96784e-06 0 0)
(1.96748e-06 0 0)
(1.96712e-06 0 0)
(1.96676e-06 0 0)
(1.96639e-06 0 0)
(1.96603e-06 0 0)
(1.96566e-06 0 0)
(1.96529e-06 0 0)
(1.96491e-06 0 0)
(1.96454e-06 0 0)
(1.96417e-06 0 0)
(1.96379e-06 0 0)
(1.96342e-06 0 0)
(1.96305e-06 0 0)
(1.96268e-06 0 0)
(1.96231e-06 0 0)
(1.96194e-06 0 0)
(1.96158e-06 0 0)
(1.96122e-06 0 0)
(1.96086e-06 0 0)
(1.96051e-06 0 0)
(1.96016e-06 0 0)
(1.95981e-06 0 0)
(1.95947e-06 0 0)
(1.95914e-06 0 0)
(1.95881e-06 0 0)
(1.95848e-06 0 0)
(1.95816e-06 0 0)
(1.95785e-06 0 0)
(1.95754e-06 0 0)
(1.95724e-06 0 0)
(1.95695e-06 0 0)
(1.95666e-06 0 0)
(1.95638e-06 0 0)
(1.9561e-06 0 0)
(1.95584e-06 0 0)
(1.95557e-06 0 0)
(1.95532e-06 0 0)
(1.95507e-06 0 0)
(1.95483e-06 0 0)
(1.95459e-06 0 0)
(1.95437e-06 0 0)
(1.95415e-06 0 0)
(1.95393e-06 0 0)
(1.95372e-06 0 0)
(1.95352e-06 0 0)
(1.95332e-06 0 0)
(1.95313e-06 0 0)
(1.95295e-06 0 0)
(1.95277e-06 0 0)
(1.9526e-06 0 0)
(1.95244e-06 0 0)
(1.95227e-06 0 0)
(1.95212e-06 0 0)
(1.95197e-06 0 0)
(1.95182e-06 0 0)
(1.95168e-06 0 0)
(1.95155e-06 0 0)
(1.95142e-06 0 0)
(1.95129e-06 0 0)
(1.95117e-06 0 0)
(1.95105e-06 0 0)
(1.95093e-06 0 0)
(1.95082e-06 0 0)
(1.95072e-06 0 0)
(1.95061e-06 0 0)
(1.95051e-06 0 0)
(1.95041e-06 0 0)
(1.95032e-06 0 0)
(1.95023e-06 0 0)
(1.95015e-06 0 0)
(1.95007e-06 0 0)
(1.94999e-06 0 0)
(1.94992e-06 0 0)
(1.94986e-06 0 0)
(1.94981e-06 0 0)
(1.94977e-06 0 0)
(1.94973e-06 0 0)
(1.94971e-06 0 0)
(1.94971e-06 0 0)
(1.94972e-06 0 0)
(1.94975e-06 0 0)
(1.94979e-06 0 0)
(1.94986e-06 0 0)
(1.94995e-06 0 0)
(1.95007e-06 0 0)
(1.95021e-06 0 0)
(1.95039e-06 0 0)
(1.95059e-06 0 0)
(1.95082e-06 0 0)
(1.95109e-06 0 0)
(1.95139e-06 0 0)
(1.95173e-06 0 0)
(1.9521e-06 0 0)
(1.9525e-06 0 0)
(1.95293e-06 0 0)
(1.9534e-06 0 0)
(1.9539e-06 0 0)
(1.95442e-06 0 0)
(1.95497e-06 0 0)
(1.95555e-06 0 0)
(1.95614e-06 0 0)
(1.95674e-06 0 0)
(1.95736e-06 0 0)
(1.95799e-06 0 0)
(1.95861e-06 0 0)
(1.95924e-06 0 0)
(1.95985e-06 0 0)
(1.96045e-06 0 0)
(1.96103e-06 0 0)
(1.96158e-06 0 0)
(1.9621e-06 0 0)
(1.96258e-06 0 0)
(1.96302e-06 0 0)
(1.96342e-06 0 0)
(1.96375e-06 0 0)
(1.96404e-06 0 0)
(1.96426e-06 0 0)
(1.96441e-06 0 0)
(1.9645e-06 0 0)
(1.96451e-06 0 0)
(1.96446e-06 0 0)
(1.96433e-06 0 0)
(1.96413e-06 0 0)
(1.96386e-06 0 0)
(1.96352e-06 0 0)
(1.96311e-06 0 0)
(1.96264e-06 0 0)
(1.96211e-06 0 0)
(1.96152e-06 0 0)
(1.96088e-06 0 0)
(1.9602e-06 0 0)
(1.95947e-06 0 0)
(1.95871e-06 0 0)
(1.95793e-06 0 0)
(1.95712e-06 0 0)
(1.95629e-06 0 0)
(1.95546e-06 0 0)
(1.95461e-06 0 0)
(1.95377e-06 0 0)
(1.95294e-06 0 0)
(1.95211e-06 0 0)
(1.9513e-06 0 0)
(1.9505e-06 0 0)
(1.94972e-06 0 0)
(1.94897e-06 0 0)
(1.94823e-06 0 0)
(1.94753e-06 0 0)
(1.94684e-06 0 0)
(1.94619e-06 0 0)
(1.94556e-06 0 0)
(1.94495e-06 0 0)
(1.94437e-06 0 0)
(1.94382e-06 0 0)
(1.94329e-06 0 0)
(1.94278e-06 0 0)
(1.94228e-06 0 0)
(1.94181e-06 0 0)
(1.94136e-06 0 0)
(1.94092e-06 0 0)
(1.94049e-06 0 0)
(1.94008e-06 0 0)
(1.93967e-06 0 0)
(1.93928e-06 0 0)
(1.93889e-06 0 0)
(1.93851e-06 0 0)
(1.93814e-06 0 0)
(1.93777e-06 0 0)
(1.9374e-06 0 0)
(1.93703e-06 0 0)
(1.93667e-06 0 0)
(1.93631e-06 0 0)
(1.93595e-06 0 0)
(1.93559e-06 0 0)
(1.93523e-06 0 0)
(1.93486e-06 0 0)
(1.9345e-06 0 0)
(1.93414e-06 0 0)
(1.93378e-06 0 0)
(1.93342e-06 0 0)
(1.93305e-06 0 0)
(1.93269e-06 0 0)
(1.93233e-06 0 0)
(1.93196e-06 0 0)
(1.9316e-06 0 0)
(1.93124e-06 0 0)
(1.93088e-06 0 0)
(1.93052e-06 0 0)
(1.93016e-06 0 0)
(1.9298e-06 0 0)
(1.92945e-06 0 0)
(1.9291e-06 0 0)
(1.92875e-06 0 0)
(1.9284e-06 0 0)
(1.92806e-06 0 0)
(1.92772e-06 0 0)
(1.92738e-06 0 0)
(1.92705e-06 0 0)
(1.92672e-06 0 0)
(1.9264e-06 0 0)
(1.92608e-06 0 0)
(1.92576e-06 0 0)
(1.92545e-06 0 0)
(1.92514e-06 0 0)
(1.92484e-06 0 0)
(1.92455e-06 0 0)
(1.92425e-06 0 0)
(1.92397e-06 0 0)
(1.92368e-06 0 0)
(1.92341e-06 0 0)
(1.92314e-06 0 0)
(1.92287e-06 0 0)
(1.92261e-06 0 0)
(1.92235e-06 0 0)
(1.9221e-06 0 0)
(1.92186e-06 0 0)
(1.92162e-06 0 0)
(1.92138e-06 0 0)
(1.92115e-06 0 0)
(1.92093e-06 0 0)
(1.92071e-06 0 0)
(1.92049e-06 0 0)
(1.92028e-06 0 0)
(1.92008e-06 0 0)
(1.91988e-06 0 0)
(1.91969e-06 0 0)
(1.91949e-06 0 0)
(1.91931e-06 0 0)
(1.91913e-06 0 0)
(1.91895e-06 0 0)
(1.91878e-06 0 0)
(1.91861e-06 0 0)
(1.91844e-06 0 0)
(1.91828e-06 0 0)
(1.91813e-06 0 0)
(1.91797e-06 0 0)
(1.91782e-06 0 0)
(1.91768e-06 0 0)
(1.91753e-06 0 0)
(1.9174e-06 0 0)
(1.91726e-06 0 0)
(1.91713e-06 0 0)
(1.917e-06 0 0)
(1.91688e-06 0 0)
(1.91677e-06 0 0)
(1.91665e-06 0 0)
(1.91655e-06 0 0)
(1.91645e-06 0 0)
(1.91635e-06 0 0)
(1.91626e-06 0 0)
(1.91619e-06 0 0)
(1.91612e-06 0 0)
(1.91606e-06 0 0)
(1.91601e-06 0 0)
(1.91597e-06 0 0)
(1.91594e-06 0 0)
(1.91593e-06 0 0)
(1.91593e-06 0 0)
(1.91595e-06 0 0)
(1.91598e-06 0 0)
(1.91604e-06 0 0)
(1.91611e-06 0 0)
(1.9162e-06 0 0)
(1.91631e-06 0 0)
(1.91645e-06 0 0)
(1.9166e-06 0 0)
(1.91678e-06 0 0)
(1.91698e-06 0 0)
(1.91721e-06 0 0)
(1.91746e-06 0 0)
(1.91773e-06 0 0)
(1.91802e-06 0 0)
(1.91834e-06 0 0)
(1.91867e-06 0 0)
(1.91903e-06 0 0)
(1.9194e-06 0 0)
(1.9198e-06 0 0)
(1.9202e-06 0 0)
(1.92062e-06 0 0)
(1.92105e-06 0 0)
(1.92149e-06 0 0)
(1.92194e-06 0 0)
(1.92239e-06 0 0)
(1.92284e-06 0 0)
(1.92328e-06 0 0)
(1.92372e-06 0 0)
(1.92415e-06 0 0)
(1.92456e-06 0 0)
(1.92496e-06 0 0)
(1.92534e-06 0 0)
(1.92569e-06 0 0)
(1.92602e-06 0 0)
(1.92632e-06 0 0)
(1.92658e-06 0 0)
(1.92681e-06 0 0)
(1.927e-06 0 0)
(1.92714e-06 0 0)
(1.92724e-06 0 0)
(1.9273e-06 0 0)
(1.92731e-06 0 0)
(1.92726e-06 0 0)
(1.92717e-06 0 0)
(1.92703e-06 0 0)
(1.92684e-06 0 0)
(1.92659e-06 0 0)
(1.9263e-06 0 0)
(1.92596e-06 0 0)
(1.92557e-06 0 0)
(1.92513e-06 0 0)
(1.92466e-06 0 0)
(1.92414e-06 0 0)
(1.92358e-06 0 0)
(1.92299e-06 0 0)
(1.92237e-06 0 0)
(1.92173e-06 0 0)
(1.92105e-06 0 0)
(1.92036e-06 0 0)
(1.91965e-06 0 0)
(1.91893e-06 0 0)
(1.91819e-06 0 0)
(1.91746e-06 0 0)
(1.91671e-06 0 0)
(1.91597e-06 0 0)
(1.91523e-06 0 0)
(1.9145e-06 0 0)
(1.91377e-06 0 0)
(1.91306e-06 0 0)
(1.91236e-06 0 0)
(1.91167e-06 0 0)
(1.91099e-06 0 0)
(1.91033e-06 0 0)
(1.90969e-06 0 0)
(1.90907e-06 0 0)
(1.90846e-06 0 0)
(1.90787e-06 0 0)
(1.9073e-06 0 0)
(1.90675e-06 0 0)
(1.90622e-06 0 0)
(1.9057e-06 0 0)
(1.9052e-06 0 0)
(1.90472e-06 0 0)
(1.90425e-06 0 0)
(1.9038e-06 0 0)
(1.90337e-06 0 0)
(1.90295e-06 0 0)
(1.90254e-06 0 0)
(1.90215e-06 0 0)
(1.90177e-06 0 0)
(1.9014e-06 0 0)
(1.90105e-06 0 0)
(1.9007e-06 0 0)
(1.90037e-06 0 0)
(1.90005e-06 0 0)
(1.89974e-06 0 0)
(1.89944e-06 0 0)
(1.89915e-06 0 0)
(1.89888e-06 0 0)
(1.89861e-06 0 0)
(1.89835e-06 0 0)
(1.8981e-06 0 0)
(1.89786e-06 0 0)
(1.89762e-06 0 0)
(1.8974e-06 0 0)
(1.89718e-06 0 0)
(1.89697e-06 0 0)
(1.89676e-06 0 0)
(1.89656e-06 0 0)
(1.89637e-06 0 0)
(1.89618e-06 0 0)
(1.896e-06 0 0)
(1.89582e-06 0 0)
(1.89565e-06 0 0)
(1.89548e-06 0 0)
(1.89532e-06 0 0)
(1.89515e-06 0 0)
(1.89499e-06 0 0)
(1.89484e-06 0 0)
(1.89469e-06 0 0)
(1.89454e-06 0 0)
(1.8944e-06 0 0)
(1.89425e-06 0 0)
(1.89411e-06 0 0)
(1.89397e-06 0 0)
(1.89382e-06 0 0)
(1.89367e-06 0 0)
(1.89349e-06 0 0)
(1.89328e-06 0 0)
(1.893e-06 0 0)
(1.89259e-06 0 0)
(1.89196e-06 0 0)
(1.89093e-06 0 0)
(1.88925e-06 0 0)
(1.88653e-06 0 0)
(1.88235e-06 0 0)
(1.87651e-06 0 0)
(1.8694e-06 0 0)
(1.86222e-06 0 0)
(1.85639e-06 0 0)
(1.85258e-06 0 0)
(1.85048e-06 0 0)
(1.84942e-06 0 0)
(1.84889e-06 0 0)
(1.84861e-06 0 0)
(1.84846e-06 0 0)
(1.84837e-06 0 0)
(1.84831e-06 0 0)
(1.84827e-06 0 0)
(1.84824e-06 0 0)
(1.84822e-06 0 0)
(1.8482e-06 0 0)
(1.84819e-06 0 0)
(1.84818e-06 0 0)
(1.84818e-06 0 0)
)
;

boundaryField
{
    inlet
    {
        type            fixedValue;
        value           uniform (2.74882e-06 0 0);
    }
    outlet
    {
        type            zeroGradient;
    }
    emptyWalls
    {
        type            empty;
    }
}


// ************************************************************************* //
