/*--------------------------------*- C++ -*----------------------------------*\
  =========                 |
  \\      /  F ield         | OpenFOAM: The Open Source CFD Toolbox
   \\    /   O peration     | Website:  https://openfoam.org
    \\  /    A nd           | Version:  9
     \\/     M anipulation  |
\*---------------------------------------------------------------------------*/
FoamFile
{
    format      ascii;
    class       volVectorField;
    location    "24450";
    object      Ub;
}
// * * * * * * * * * * * * * * * * * * * * * * * * * * * * * * * * * * * * * //

dimensions      [0 0 0 0 0 0 0];

internalField   nonuniform List<vector> 
1000
(
(1.13619e-05 0 0)
(1.13622e-05 0 0)
(1.13623e-05 0 0)
(1.13623e-05 0 0)
(1.13624e-05 0 0)
(1.13625e-05 0 0)
(1.13627e-05 0 0)
(1.13629e-05 0 0)
(1.1363e-05 0 0)
(1.13633e-05 0 0)
(1.13635e-05 0 0)
(1.13637e-05 0 0)
(1.1364e-05 0 0)
(1.13643e-05 0 0)
(1.13646e-05 0 0)
(1.1365e-05 0 0)
(1.13655e-05 0 0)
(1.13658e-05 0 0)
(1.13663e-05 0 0)
(1.13667e-05 0 0)
(1.13671e-05 0 0)
(1.13675e-05 0 0)
(1.13678e-05 0 0)
(1.13682e-05 0 0)
(1.13685e-05 0 0)
(1.13688e-05 0 0)
(1.1369e-05 0 0)
(1.13693e-05 0 0)
(1.13695e-05 0 0)
(1.13698e-05 0 0)
(1.13702e-05 0 0)
(1.1371e-05 0 0)
(1.13741e-05 0 0)
(1.13875e-05 0 0)
(1.14549e-05 0 0)
(1.16068e-05 0 0)
(1.17278e-05 0 0)
(1.17639e-05 0 0)
(1.17779e-05 0 0)
(1.17818e-05 0 0)
(1.17819e-05 0 0)
(1.17814e-05 0 0)
(1.17815e-05 0 0)
(1.17825e-05 0 0)
(1.1784e-05 0 0)
(1.17857e-05 0 0)
(1.17875e-05 0 0)
(1.17892e-05 0 0)
(1.17909e-05 0 0)
(1.17924e-05 0 0)
(1.17939e-05 0 0)
(1.17952e-05 0 0)
(1.17965e-05 0 0)
(1.17977e-05 0 0)
(1.17988e-05 0 0)
(1.17998e-05 0 0)
(1.18007e-05 0 0)
(1.18016e-05 0 0)
(1.18024e-05 0 0)
(1.18031e-05 0 0)
(1.18037e-05 0 0)
(1.18043e-05 0 0)
(1.18049e-05 0 0)
(1.18053e-05 0 0)
(1.18057e-05 0 0)
(1.1806e-05 0 0)
(1.18063e-05 0 0)
(1.18065e-05 0 0)
(1.18067e-05 0 0)
(1.18069e-05 0 0)
(1.18069e-05 0 0)
(1.1807e-05 0 0)
(1.18069e-05 0 0)
(1.18069e-05 0 0)
(1.18067e-05 0 0)
(1.18065e-05 0 0)
(1.18061e-05 0 0)
(1.18058e-05 0 0)
(1.18053e-05 0 0)
(1.18049e-05 0 0)
(1.18044e-05 0 0)
(1.18039e-05 0 0)
(1.18033e-05 0 0)
(1.18027e-05 0 0)
(1.18021e-05 0 0)
(1.18013e-05 0 0)
(1.18005e-05 0 0)
(1.17995e-05 0 0)
(1.17984e-05 0 0)
(1.1797e-05 0 0)
(1.17955e-05 0 0)
(1.17938e-05 0 0)
(1.17919e-05 0 0)
(1.17897e-05 0 0)
(1.17873e-05 0 0)
(1.17847e-05 0 0)
(1.17818e-05 0 0)
(1.17787e-05 0 0)
(1.17754e-05 0 0)
(1.17719e-05 0 0)
(1.17682e-05 0 0)
(1.17642e-05 0 0)
(1.176e-05 0 0)
(1.17554e-05 0 0)
(1.17503e-05 0 0)
(1.17447e-05 0 0)
(1.17386e-05 0 0)
(1.17322e-05 0 0)
(1.17255e-05 0 0)
(1.17188e-05 0 0)
(1.17121e-05 0 0)
(1.17055e-05 0 0)
(1.16991e-05 0 0)
(1.16928e-05 0 0)
(1.16867e-05 0 0)
(1.16809e-05 0 0)
(1.16755e-05 0 0)
(1.16705e-05 0 0)
(1.1666e-05 0 0)
(1.16622e-05 0 0)
(1.16589e-05 0 0)
(1.16562e-05 0 0)
(1.1654e-05 0 0)
(1.16522e-05 0 0)
(1.16507e-05 0 0)
(1.16494e-05 0 0)
(1.16481e-05 0 0)
(1.16467e-05 0 0)
(1.16452e-05 0 0)
(1.16434e-05 0 0)
(1.16413e-05 0 0)
(1.16389e-05 0 0)
(1.16361e-05 0 0)
(1.16331e-05 0 0)
(1.16298e-05 0 0)
(1.16262e-05 0 0)
(1.16224e-05 0 0)
(1.16184e-05 0 0)
(1.16143e-05 0 0)
(1.16101e-05 0 0)
(1.16059e-05 0 0)
(1.16016e-05 0 0)
(1.15973e-05 0 0)
(1.15931e-05 0 0)
(1.15888e-05 0 0)
(1.15846e-05 0 0)
(1.15805e-05 0 0)
(1.15764e-05 0 0)
(1.15723e-05 0 0)
(1.15683e-05 0 0)
(1.15643e-05 0 0)
(1.15603e-05 0 0)
(1.15563e-05 0 0)
(1.15524e-05 0 0)
(1.15484e-05 0 0)
(1.15445e-05 0 0)
(1.15405e-05 0 0)
(1.15366e-05 0 0)
(1.15327e-05 0 0)
(1.15287e-05 0 0)
(1.15247e-05 0 0)
(1.15208e-05 0 0)
(1.15168e-05 0 0)
(1.15128e-05 0 0)
(1.15087e-05 0 0)
(1.15047e-05 0 0)
(1.15007e-05 0 0)
(1.14966e-05 0 0)
(1.14925e-05 0 0)
(1.14884e-05 0 0)
(1.14843e-05 0 0)
(1.14802e-05 0 0)
(1.1476e-05 0 0)
(1.14719e-05 0 0)
(1.14677e-05 0 0)
(1.14635e-05 0 0)
(1.14593e-05 0 0)
(1.14551e-05 0 0)
(1.14508e-05 0 0)
(1.14466e-05 0 0)
(1.14423e-05 0 0)
(1.1438e-05 0 0)
(1.14337e-05 0 0)
(1.14294e-05 0 0)
(1.1425e-05 0 0)
(1.14207e-05 0 0)
(1.14163e-05 0 0)
(1.14119e-05 0 0)
(1.14075e-05 0 0)
(1.14031e-05 0 0)
(1.13986e-05 0 0)
(1.13941e-05 0 0)
(1.13896e-05 0 0)
(1.13852e-05 0 0)
(1.13806e-05 0 0)
(1.13761e-05 0 0)
(1.13716e-05 0 0)
(1.13671e-05 0 0)
(1.13625e-05 0 0)
(1.1358e-05 0 0)
(1.13534e-05 0 0)
(1.13489e-05 0 0)
(1.13443e-05 0 0)
(1.13397e-05 0 0)
(1.13351e-05 0 0)
(1.13305e-05 0 0)
(1.13258e-05 0 0)
(1.13211e-05 0 0)
(1.13165e-05 0 0)
(1.13118e-05 0 0)
(1.13071e-05 0 0)
(1.13024e-05 0 0)
(1.12978e-05 0 0)
(1.12931e-05 0 0)
(1.12884e-05 0 0)
(1.12838e-05 0 0)
(1.12791e-05 0 0)
(1.12745e-05 0 0)
(1.12698e-05 0 0)
(1.1265e-05 0 0)
(1.12602e-05 0 0)
(1.12553e-05 0 0)
(1.12503e-05 0 0)
(1.12452e-05 0 0)
(1.12399e-05 0 0)
(1.12345e-05 0 0)
(1.12289e-05 0 0)
(1.12232e-05 0 0)
(1.12173e-05 0 0)
(1.12113e-05 0 0)
(1.12051e-05 0 0)
(1.11989e-05 0 0)
(1.11926e-05 0 0)
(1.11862e-05 0 0)
(1.11798e-05 0 0)
(1.11734e-05 0 0)
(1.11671e-05 0 0)
(1.11609e-05 0 0)
(1.11547e-05 0 0)
(1.11488e-05 0 0)
(1.1143e-05 0 0)
(1.11374e-05 0 0)
(1.11321e-05 0 0)
(1.11271e-05 0 0)
(1.11223e-05 0 0)
(1.11179e-05 0 0)
(1.11136e-05 0 0)
(1.11097e-05 0 0)
(1.11059e-05 0 0)
(1.11024e-05 0 0)
(1.1099e-05 0 0)
(1.10958e-05 0 0)
(1.10926e-05 0 0)
(1.10895e-05 0 0)
(1.10864e-05 0 0)
(1.10833e-05 0 0)
(1.10801e-05 0 0)
(1.10767e-05 0 0)
(1.10733e-05 0 0)
(1.10698e-05 0 0)
(1.10661e-05 0 0)
(1.10623e-05 0 0)
(1.10584e-05 0 0)
(1.10543e-05 0 0)
(1.10502e-05 0 0)
(1.10459e-05 0 0)
(1.10415e-05 0 0)
(1.10371e-05 0 0)
(1.10326e-05 0 0)
(1.1028e-05 0 0)
(1.10234e-05 0 0)
(1.10187e-05 0 0)
(1.10141e-05 0 0)
(1.10094e-05 0 0)
(1.10047e-05 0 0)
(1.1e-05 0 0)
(1.09954e-05 0 0)
(1.09907e-05 0 0)
(1.09861e-05 0 0)
(1.09814e-05 0 0)
(1.09768e-05 0 0)
(1.09722e-05 0 0)
(1.09676e-05 0 0)
(1.0963e-05 0 0)
(1.09584e-05 0 0)
(1.09538e-05 0 0)
(1.09493e-05 0 0)
(1.09447e-05 0 0)
(1.09401e-05 0 0)
(1.09356e-05 0 0)
(1.0931e-05 0 0)
(1.09264e-05 0 0)
(1.09218e-05 0 0)
(1.09173e-05 0 0)
(1.09127e-05 0 0)
(1.09081e-05 0 0)
(1.09035e-05 0 0)
(1.08989e-05 0 0)
(1.08942e-05 0 0)
(1.08896e-05 0 0)
(1.0885e-05 0 0)
(1.08803e-05 0 0)
(1.08757e-05 0 0)
(1.0871e-05 0 0)
(1.08663e-05 0 0)
(1.08616e-05 0 0)
(1.08569e-05 0 0)
(1.08522e-05 0 0)
(1.08475e-05 0 0)
(1.08427e-05 0 0)
(1.0838e-05 0 0)
(1.08332e-05 0 0)
(1.08284e-05 0 0)
(1.08236e-05 0 0)
(1.08188e-05 0 0)
(1.0814e-05 0 0)
(1.08092e-05 0 0)
(1.08044e-05 0 0)
(1.07995e-05 0 0)
(1.07946e-05 0 0)
(1.07898e-05 0 0)
(1.07849e-05 0 0)
(1.078e-05 0 0)
(1.07751e-05 0 0)
(1.07701e-05 0 0)
(1.07652e-05 0 0)
(1.07602e-05 0 0)
(1.07553e-05 0 0)
(1.07503e-05 0 0)
(1.07453e-05 0 0)
(1.07403e-05 0 0)
(1.07353e-05 0 0)
(1.07303e-05 0 0)
(1.07253e-05 0 0)
(1.07203e-05 0 0)
(1.07153e-05 0 0)
(1.07102e-05 0 0)
(1.07052e-05 0 0)
(1.07001e-05 0 0)
(1.0695e-05 0 0)
(1.069e-05 0 0)
(1.06849e-05 0 0)
(1.06798e-05 0 0)
(1.06747e-05 0 0)
(1.06696e-05 0 0)
(1.06645e-05 0 0)
(1.06594e-05 0 0)
(1.06542e-05 0 0)
(1.06491e-05 0 0)
(1.0644e-05 0 0)
(1.06389e-05 0 0)
(1.06337e-05 0 0)
(1.06286e-05 0 0)
(1.06234e-05 0 0)
(1.06182e-05 0 0)
(1.0613e-05 0 0)
(1.06077e-05 0 0)
(1.06024e-05 0 0)
(1.0597e-05 0 0)
(1.05916e-05 0 0)
(1.05861e-05 0 0)
(1.05805e-05 0 0)
(1.05749e-05 0 0)
(1.05691e-05 0 0)
(1.05633e-05 0 0)
(1.05575e-05 0 0)
(1.05515e-05 0 0)
(1.05455e-05 0 0)
(1.05394e-05 0 0)
(1.05332e-05 0 0)
(1.0527e-05 0 0)
(1.05207e-05 0 0)
(1.05144e-05 0 0)
(1.05081e-05 0 0)
(1.05018e-05 0 0)
(1.04955e-05 0 0)
(1.04893e-05 0 0)
(1.04831e-05 0 0)
(1.04769e-05 0 0)
(1.04708e-05 0 0)
(1.04649e-05 0 0)
(1.0459e-05 0 0)
(1.04533e-05 0 0)
(1.04477e-05 0 0)
(1.04422e-05 0 0)
(1.04369e-05 0 0)
(1.04317e-05 0 0)
(1.04267e-05 0 0)
(1.04218e-05 0 0)
(1.0417e-05 0 0)
(1.04124e-05 0 0)
(1.04079e-05 0 0)
(1.04035e-05 0 0)
(1.03992e-05 0 0)
(1.03949e-05 0 0)
(1.03907e-05 0 0)
(1.03865e-05 0 0)
(1.03823e-05 0 0)
(1.03781e-05 0 0)
(1.03739e-05 0 0)
(1.03697e-05 0 0)
(1.03654e-05 0 0)
(1.03611e-05 0 0)
(1.03567e-05 0 0)
(1.03522e-05 0 0)
(1.03477e-05 0 0)
(1.03431e-05 0 0)
(1.03384e-05 0 0)
(1.03337e-05 0 0)
(1.0329e-05 0 0)
(1.03241e-05 0 0)
(1.03192e-05 0 0)
(1.03143e-05 0 0)
(1.03093e-05 0 0)
(1.03043e-05 0 0)
(1.02992e-05 0 0)
(1.02942e-05 0 0)
(1.02891e-05 0 0)
(1.0284e-05 0 0)
(1.02788e-05 0 0)
(1.02737e-05 0 0)
(1.02686e-05 0 0)
(1.02634e-05 0 0)
(1.02583e-05 0 0)
(1.02531e-05 0 0)
(1.0248e-05 0 0)
(1.02428e-05 0 0)
(1.02377e-05 0 0)
(1.02325e-05 0 0)
(1.02274e-05 0 0)
(1.02223e-05 0 0)
(1.02171e-05 0 0)
(1.0212e-05 0 0)
(1.02069e-05 0 0)
(1.02017e-05 0 0)
(1.01966e-05 0 0)
(1.01915e-05 0 0)
(1.01863e-05 0 0)
(1.01812e-05 0 0)
(1.0176e-05 0 0)
(1.01709e-05 0 0)
(1.01657e-05 0 0)
(1.01605e-05 0 0)
(1.01554e-05 0 0)
(1.01502e-05 0 0)
(1.0145e-05 0 0)
(1.01398e-05 0 0)
(1.01346e-05 0 0)
(1.01294e-05 0 0)
(1.01242e-05 0 0)
(1.01189e-05 0 0)
(1.01137e-05 0 0)
(1.01084e-05 0 0)
(1.01032e-05 0 0)
(1.00979e-05 0 0)
(1.00926e-05 0 0)
(1.00873e-05 0 0)
(1.0082e-05 0 0)
(1.00767e-05 0 0)
(1.00714e-05 0 0)
(1.00661e-05 0 0)
(1.00607e-05 0 0)
(1.00554e-05 0 0)
(1.005e-05 0 0)
(1.00446e-05 0 0)
(1.00392e-05 0 0)
(1.00338e-05 0 0)
(1.00284e-05 0 0)
(1.0023e-05 0 0)
(1.00175e-05 0 0)
(1.00121e-05 0 0)
(1.00066e-05 0 0)
(1.00011e-05 0 0)
(9.99565e-06 0 0)
(9.99015e-06 0 0)
(9.98465e-06 0 0)
(9.97913e-06 0 0)
(9.97361e-06 0 0)
(9.96808e-06 0 0)
(9.96253e-06 0 0)
(9.95698e-06 0 0)
(9.95142e-06 0 0)
(9.94584e-06 0 0)
(9.94026e-06 0 0)
(9.93467e-06 0 0)
(9.92908e-06 0 0)
(9.92347e-06 0 0)
(9.91785e-06 0 0)
(9.91223e-06 0 0)
(9.9066e-06 0 0)
(9.90096e-06 0 0)
(9.89531e-06 0 0)
(9.88966e-06 0 0)
(9.884e-06 0 0)
(9.87833e-06 0 0)
(9.87266e-06 0 0)
(9.86698e-06 0 0)
(9.86129e-06 0 0)
(9.85559e-06 0 0)
(9.84988e-06 0 0)
(9.84415e-06 0 0)
(9.83842e-06 0 0)
(9.83267e-06 0 0)
(9.8269e-06 0 0)
(9.82111e-06 0 0)
(9.81529e-06 0 0)
(9.80945e-06 0 0)
(9.80358e-06 0 0)
(9.79768e-06 0 0)
(9.79174e-06 0 0)
(9.78577e-06 0 0)
(9.77975e-06 0 0)
(9.77369e-06 0 0)
(9.76758e-06 0 0)
(9.76143e-06 0 0)
(9.75523e-06 0 0)
(9.74898e-06 0 0)
(9.74268e-06 0 0)
(9.73634e-06 0 0)
(9.72995e-06 0 0)
(9.72353e-06 0 0)
(9.71706e-06 0 0)
(9.71056e-06 0 0)
(9.70403e-06 0 0)
(9.69748e-06 0 0)
(9.69091e-06 0 0)
(9.68433e-06 0 0)
(9.67775e-06 0 0)
(9.67117e-06 0 0)
(9.6646e-06 0 0)
(9.65805e-06 0 0)
(9.65154e-06 0 0)
(9.64506e-06 0 0)
(9.63863e-06 0 0)
(9.63224e-06 0 0)
(9.62592e-06 0 0)
(9.61967e-06 0 0)
(9.61349e-06 0 0)
(9.60738e-06 0 0)
(9.60135e-06 0 0)
(9.59541e-06 0 0)
(9.58955e-06 0 0)
(9.58377e-06 0 0)
(9.57808e-06 0 0)
(9.57246e-06 0 0)
(9.56692e-06 0 0)
(9.56145e-06 0 0)
(9.55605e-06 0 0)
(9.5507e-06 0 0)
(9.5454e-06 0 0)
(9.54014e-06 0 0)
(9.53492e-06 0 0)
(9.52971e-06 0 0)
(9.52453e-06 0 0)
(9.51935e-06 0 0)
(9.51417e-06 0 0)
(9.50898e-06 0 0)
(9.50377e-06 0 0)
(9.49855e-06 0 0)
(9.49329e-06 0 0)
(9.48801e-06 0 0)
(9.48269e-06 0 0)
(9.47734e-06 0 0)
(9.47195e-06 0 0)
(9.46652e-06 0 0)
(9.46105e-06 0 0)
(9.45554e-06 0 0)
(9.44999e-06 0 0)
(9.4444e-06 0 0)
(9.43878e-06 0 0)
(9.43312e-06 0 0)
(9.42744e-06 0 0)
(9.42172e-06 0 0)
(9.41598e-06 0 0)
(9.41022e-06 0 0)
(9.40443e-06 0 0)
(9.39863e-06 0 0)
(9.39281e-06 0 0)
(9.38697e-06 0 0)
(9.38112e-06 0 0)
(9.37526e-06 0 0)
(9.36939e-06 0 0)
(9.36351e-06 0 0)
(9.35762e-06 0 0)
(9.35173e-06 0 0)
(9.34583e-06 0 0)
(9.33993e-06 0 0)
(9.33402e-06 0 0)
(9.3281e-06 0 0)
(9.32219e-06 0 0)
(9.31626e-06 0 0)
(9.31034e-06 0 0)
(9.30441e-06 0 0)
(9.29847e-06 0 0)
(9.29253e-06 0 0)
(9.28659e-06 0 0)
(9.28064e-06 0 0)
(9.27468e-06 0 0)
(9.26872e-06 0 0)
(9.26275e-06 0 0)
(9.25677e-06 0 0)
(9.25079e-06 0 0)
(9.2448e-06 0 0)
(9.23879e-06 0 0)
(9.23279e-06 0 0)
(9.22677e-06 0 0)
(9.22074e-06 0 0)
(9.2147e-06 0 0)
(9.20866e-06 0 0)
(9.2026e-06 0 0)
(9.19653e-06 0 0)
(9.19045e-06 0 0)
(9.18436e-06 0 0)
(9.17826e-06 0 0)
(9.17215e-06 0 0)
(9.16603e-06 0 0)
(9.1599e-06 0 0)
(9.15375e-06 0 0)
(9.14759e-06 0 0)
(9.14143e-06 0 0)
(9.13524e-06 0 0)
(9.12905e-06 0 0)
(9.12285e-06 0 0)
(9.11663e-06 0 0)
(9.1104e-06 0 0)
(9.10416e-06 0 0)
(9.09791e-06 0 0)
(9.09164e-06 0 0)
(9.08536e-06 0 0)
(9.07907e-06 0 0)
(9.07277e-06 0 0)
(9.06646e-06 0 0)
(9.06013e-06 0 0)
(9.05379e-06 0 0)
(9.04744e-06 0 0)
(9.04108e-06 0 0)
(9.03471e-06 0 0)
(9.02832e-06 0 0)
(9.02193e-06 0 0)
(9.01552e-06 0 0)
(9.0091e-06 0 0)
(9.00267e-06 0 0)
(8.99623e-06 0 0)
(8.98978e-06 0 0)
(8.98331e-06 0 0)
(8.97684e-06 0 0)
(8.97035e-06 0 0)
(8.96386e-06 0 0)
(8.95735e-06 0 0)
(8.95083e-06 0 0)
(8.94431e-06 0 0)
(8.93777e-06 0 0)
(8.93122e-06 0 0)
(8.92467e-06 0 0)
(8.9181e-06 0 0)
(8.91152e-06 0 0)
(8.90493e-06 0 0)
(8.89833e-06 0 0)
(8.89172e-06 0 0)
(8.8851e-06 0 0)
(8.87846e-06 0 0)
(8.87181e-06 0 0)
(8.86515e-06 0 0)
(8.85847e-06 0 0)
(8.85178e-06 0 0)
(8.84507e-06 0 0)
(8.83834e-06 0 0)
(8.83159e-06 0 0)
(8.82482e-06 0 0)
(8.81802e-06 0 0)
(8.81121e-06 0 0)
(8.80436e-06 0 0)
(8.79749e-06 0 0)
(8.79059e-06 0 0)
(8.78366e-06 0 0)
(8.7767e-06 0 0)
(8.76971e-06 0 0)
(8.76268e-06 0 0)
(8.75563e-06 0 0)
(8.74853e-06 0 0)
(8.74141e-06 0 0)
(8.73425e-06 0 0)
(8.72706e-06 0 0)
(8.71983e-06 0 0)
(8.71258e-06 0 0)
(8.7053e-06 0 0)
(8.69799e-06 0 0)
(8.69065e-06 0 0)
(8.68329e-06 0 0)
(8.67592e-06 0 0)
(8.66852e-06 0 0)
(8.66112e-06 0 0)
(8.6537e-06 0 0)
(8.64628e-06 0 0)
(8.63886e-06 0 0)
(8.63144e-06 0 0)
(8.62403e-06 0 0)
(8.61663e-06 0 0)
(8.60924e-06 0 0)
(8.60188e-06 0 0)
(8.59454e-06 0 0)
(8.58722e-06 0 0)
(8.57994e-06 0 0)
(8.57269e-06 0 0)
(8.56548e-06 0 0)
(8.5583e-06 0 0)
(8.55117e-06 0 0)
(8.54408e-06 0 0)
(8.53704e-06 0 0)
(8.53004e-06 0 0)
(8.52308e-06 0 0)
(8.51617e-06 0 0)
(8.50929e-06 0 0)
(8.50246e-06 0 0)
(8.49567e-06 0 0)
(8.4889e-06 0 0)
(8.48217e-06 0 0)
(8.47547e-06 0 0)
(8.46879e-06 0 0)
(8.46213e-06 0 0)
(8.45548e-06 0 0)
(8.44884e-06 0 0)
(8.44221e-06 0 0)
(8.43558e-06 0 0)
(8.42894e-06 0 0)
(8.4223e-06 0 0)
(8.41564e-06 0 0)
(8.40897e-06 0 0)
(8.40228e-06 0 0)
(8.39558e-06 0 0)
(8.38884e-06 0 0)
(8.38208e-06 0 0)
(8.3753e-06 0 0)
(8.36848e-06 0 0)
(8.36164e-06 0 0)
(8.35476e-06 0 0)
(8.34786e-06 0 0)
(8.34092e-06 0 0)
(8.33396e-06 0 0)
(8.32696e-06 0 0)
(8.31993e-06 0 0)
(8.31288e-06 0 0)
(8.3058e-06 0 0)
(8.29869e-06 0 0)
(8.29156e-06 0 0)
(8.2844e-06 0 0)
(8.27722e-06 0 0)
(8.27001e-06 0 0)
(8.26279e-06 0 0)
(8.25554e-06 0 0)
(8.24828e-06 0 0)
(8.241e-06 0 0)
(8.2337e-06 0 0)
(8.22639e-06 0 0)
(8.21906e-06 0 0)
(8.21171e-06 0 0)
(8.20435e-06 0 0)
(8.19698e-06 0 0)
(8.18959e-06 0 0)
(8.18219e-06 0 0)
(8.17478e-06 0 0)
(8.16735e-06 0 0)
(8.15991e-06 0 0)
(8.15246e-06 0 0)
(8.14499e-06 0 0)
(8.13752e-06 0 0)
(8.13002e-06 0 0)
(8.12252e-06 0 0)
(8.115e-06 0 0)
(8.10747e-06 0 0)
(8.09992e-06 0 0)
(8.09236e-06 0 0)
(8.08479e-06 0 0)
(8.0772e-06 0 0)
(8.06959e-06 0 0)
(8.06197e-06 0 0)
(8.05434e-06 0 0)
(8.04669e-06 0 0)
(8.03902e-06 0 0)
(8.03134e-06 0 0)
(8.02364e-06 0 0)
(8.01592e-06 0 0)
(8.00818e-06 0 0)
(8.00043e-06 0 0)
(7.99266e-06 0 0)
(7.98488e-06 0 0)
(7.97707e-06 0 0)
(7.96925e-06 0 0)
(7.96141e-06 0 0)
(7.95355e-06 0 0)
(7.94567e-06 0 0)
(7.93777e-06 0 0)
(7.92986e-06 0 0)
(7.92192e-06 0 0)
(7.91397e-06 0 0)
(7.90599e-06 0 0)
(7.898e-06 0 0)
(7.88999e-06 0 0)
(7.88195e-06 0 0)
(7.8739e-06 0 0)
(7.86583e-06 0 0)
(7.85773e-06 0 0)
(7.84962e-06 0 0)
(7.84148e-06 0 0)
(7.83333e-06 0 0)
(7.82515e-06 0 0)
(7.81696e-06 0 0)
(7.80874e-06 0 0)
(7.8005e-06 0 0)
(7.79224e-06 0 0)
(7.78396e-06 0 0)
(7.77566e-06 0 0)
(7.76734e-06 0 0)
(7.759e-06 0 0)
(7.75064e-06 0 0)
(7.74225e-06 0 0)
(7.73385e-06 0 0)
(7.72542e-06 0 0)
(7.71697e-06 0 0)
(7.7085e-06 0 0)
(7.70001e-06 0 0)
(7.6915e-06 0 0)
(7.68296e-06 0 0)
(7.67441e-06 0 0)
(7.66583e-06 0 0)
(7.65723e-06 0 0)
(7.64861e-06 0 0)
(7.63996e-06 0 0)
(7.6313e-06 0 0)
(7.62261e-06 0 0)
(7.6139e-06 0 0)
(7.60516e-06 0 0)
(7.5964e-06 0 0)
(7.58762e-06 0 0)
(7.57881e-06 0 0)
(7.56997e-06 0 0)
(7.56111e-06 0 0)
(7.55223e-06 0 0)
(7.54331e-06 0 0)
(7.53437e-06 0 0)
(7.5254e-06 0 0)
(7.5164e-06 0 0)
(7.50737e-06 0 0)
(7.49831e-06 0 0)
(7.48922e-06 0 0)
(7.48009e-06 0 0)
(7.47093e-06 0 0)
(7.46174e-06 0 0)
(7.45251e-06 0 0)
(7.44325e-06 0 0)
(7.43394e-06 0 0)
(7.42461e-06 0 0)
(7.41523e-06 0 0)
(7.40581e-06 0 0)
(7.39636e-06 0 0)
(7.38687e-06 0 0)
(7.37734e-06 0 0)
(7.36776e-06 0 0)
(7.35815e-06 0 0)
(7.34851e-06 0 0)
(7.33882e-06 0 0)
(7.32909e-06 0 0)
(7.31933e-06 0 0)
(7.30954e-06 0 0)
(7.2997e-06 0 0)
(7.28984e-06 0 0)
(7.27994e-06 0 0)
(7.27e-06 0 0)
(7.26004e-06 0 0)
(7.25006e-06 0 0)
(7.24004e-06 0 0)
(7.23e-06 0 0)
(7.21994e-06 0 0)
(7.20985e-06 0 0)
(7.19975e-06 0 0)
(7.18963e-06 0 0)
(7.17949e-06 0 0)
(7.16934e-06 0 0)
(7.15918e-06 0 0)
(7.14901e-06 0 0)
(7.13884e-06 0 0)
(7.12865e-06 0 0)
(7.11846e-06 0 0)
(7.10827e-06 0 0)
(7.09808e-06 0 0)
(7.08788e-06 0 0)
(7.07769e-06 0 0)
(7.06749e-06 0 0)
(7.0573e-06 0 0)
(7.0471e-06 0 0)
(7.03691e-06 0 0)
(7.02671e-06 0 0)
(7.01652e-06 0 0)
(7.00633e-06 0 0)
(6.99613e-06 0 0)
(6.98593e-06 0 0)
(6.97572e-06 0 0)
(6.96551e-06 0 0)
(6.95529e-06 0 0)
(6.94506e-06 0 0)
(6.93482e-06 0 0)
(6.92457e-06 0 0)
(6.9143e-06 0 0)
(6.90401e-06 0 0)
(6.89371e-06 0 0)
(6.88339e-06 0 0)
(6.87305e-06 0 0)
(6.86269e-06 0 0)
(6.85231e-06 0 0)
(6.84191e-06 0 0)
(6.83149e-06 0 0)
(6.82104e-06 0 0)
(6.81058e-06 0 0)
(6.8001e-06 0 0)
(6.78961e-06 0 0)
(6.7791e-06 0 0)
(6.76859e-06 0 0)
(6.75807e-06 0 0)
(6.74756e-06 0 0)
(6.73705e-06 0 0)
(6.72656e-06 0 0)
(6.71609e-06 0 0)
(6.70566e-06 0 0)
(6.69527e-06 0 0)
(6.68494e-06 0 0)
(6.67468e-06 0 0)
(6.6645e-06 0 0)
(6.65443e-06 0 0)
(6.64447e-06 0 0)
(6.63465e-06 0 0)
(6.62498e-06 0 0)
(6.6155e-06 0 0)
(6.60622e-06 0 0)
(6.59717e-06 0 0)
(6.58836e-06 0 0)
(6.57982e-06 0 0)
(6.57158e-06 0 0)
(6.56366e-06 0 0)
(6.55609e-06 0 0)
(6.54887e-06 0 0)
(6.54203e-06 0 0)
(6.53558e-06 0 0)
(6.52952e-06 0 0)
(6.52388e-06 0 0)
(6.51866e-06 0 0)
(6.51385e-06 0 0)
(6.50945e-06 0 0)
(6.50545e-06 0 0)
(6.50184e-06 0 0)
(6.4986e-06 0 0)
(6.49572e-06 0 0)
(6.49318e-06 0 0)
(6.49095e-06 0 0)
(6.48902e-06 0 0)
(6.48735e-06 0 0)
(6.48591e-06 0 0)
(6.4847e-06 0 0)
(6.48368e-06 0 0)
(6.48284e-06 0 0)
(6.48215e-06 0 0)
(6.48158e-06 0 0)
(6.48112e-06 0 0)
(6.48074e-06 0 0)
(6.48045e-06 0 0)
(6.48022e-06 0 0)
(6.48003e-06 0 0)
(6.47984e-06 0 0)
(6.47962e-06 0 0)
(6.47932e-06 0 0)
(6.47884e-06 0 0)
(6.47801e-06 0 0)
(6.47653e-06 0 0)
(6.47386e-06 0 0)
(6.46903e-06 0 0)
(6.46035e-06 0 0)
(6.44478e-06 0 0)
(6.41702e-06 0 0)
(6.36798e-06 0 0)
(6.28269e-06 0 0)
(6.13825e-06 0 0)
(5.90428e-06 0 0)
(5.55097e-06 0 0)
(5.06969e-06 0 0)
(4.49827e-06 0 0)
(3.92211e-06 0 0)
(3.43283e-06 0 0)
(3.07821e-06 0 0)
(2.85195e-06 0 0)
(2.72e-06 0 0)
(2.64726e-06 0 0)
(2.60847e-06 0 0)
(2.58815e-06 0 0)
(2.5776e-06 0 0)
(2.57216e-06 0 0)
(2.56935e-06 0 0)
(2.56791e-06 0 0)
(2.56717e-06 0 0)
(2.56679e-06 0 0)
(2.56659e-06 0 0)
(2.56649e-06 0 0)
)
;

boundaryField
{
    inlet
    {
        type            fixedValue;
        value           uniform (1.13622e-05 0 0);
    }
    outlet
    {
        type            zeroGradient;
    }
    emptyWalls
    {
        type            empty;
    }
}


// ************************************************************************* //
