/*--------------------------------*- C++ -*----------------------------------*\
  =========                 |
  \\      /  F ield         | OpenFOAM: The Open Source CFD Toolbox
   \\    /   O peration     | Website:  https://openfoam.org
    \\  /    A nd           | Version:  9
     \\/     M anipulation  |
\*---------------------------------------------------------------------------*/
FoamFile
{
    format      ascii;
    class       volVectorField;
    location    "24450";
    object      Uc;
}
// * * * * * * * * * * * * * * * * * * * * * * * * * * * * * * * * * * * * * //

dimensions      [0 0 0 0 0 0 0];

internalField   nonuniform List<vector> 
1000
(
(4.35694e-12 0 0)
(2.23576e-11 0 0)
(6.21532e-11 0 0)
(1.26396e-10 0 0)
(2.14282e-10 0 0)
(3.25528e-10 0 0)
(4.60099e-10 0 0)
(6.18062e-10 0 0)
(7.99518e-10 0 0)
(1.0045e-09 0 0)
(1.23296e-09 0 0)
(1.48459e-09 0 0)
(1.75885e-09 0 0)
(2.05476e-09 0 0)
(2.37094e-09 0 0)
(2.70532e-09 0 0)
(3.05515e-09 0 0)
(3.41695e-09 0 0)
(3.78623e-09 0 0)
(4.15802e-09 0 0)
(4.52657e-09 0 0)
(4.88605e-09 0 0)
(5.23096e-09 0 0)
(5.55632e-09 0 0)
(5.85848e-09 0 0)
(6.13506e-09 0 0)
(6.38521e-09 0 0)
(6.60987e-09 0 0)
(6.81359e-09 0 0)
(7.01437e-09 0 0)
(7.29184e-09 0 0)
(8.00483e-09 0 0)
(1.05582e-08 0 0)
(2.10832e-08 0 0)
(7.7011e-08 0 0)
(1.60648e-07 0 0)
(2.03448e-07 0 0)
(2.12636e-07 0 0)
(2.16701e-07 0 0)
(2.19164e-07 0 0)
(2.20961e-07 0 0)
(2.22434e-07 0 0)
(2.23731e-07 0 0)
(2.2492e-07 0 0)
(2.26034e-07 0 0)
(2.27093e-07 0 0)
(2.28108e-07 0 0)
(2.29086e-07 0 0)
(2.30034e-07 0 0)
(2.30956e-07 0 0)
(2.31854e-07 0 0)
(2.32732e-07 0 0)
(2.33591e-07 0 0)
(2.34434e-07 0 0)
(2.35261e-07 0 0)
(2.36075e-07 0 0)
(2.36877e-07 0 0)
(2.37669e-07 0 0)
(2.38452e-07 0 0)
(2.39228e-07 0 0)
(2.39996e-07 0 0)
(2.4076e-07 0 0)
(2.4152e-07 0 0)
(2.42278e-07 0 0)
(2.43035e-07 0 0)
(2.43792e-07 0 0)
(2.44551e-07 0 0)
(2.45312e-07 0 0)
(2.46077e-07 0 0)
(2.46848e-07 0 0)
(2.47627e-07 0 0)
(2.48419e-07 0 0)
(2.4923e-07 0 0)
(2.50055e-07 0 0)
(2.50893e-07 0 0)
(2.51745e-07 0 0)
(2.52611e-07 0 0)
(2.53493e-07 0 0)
(2.54393e-07 0 0)
(2.55313e-07 0 0)
(2.56256e-07 0 0)
(2.57225e-07 0 0)
(2.58223e-07 0 0)
(2.59253e-07 0 0)
(2.60321e-07 0 0)
(2.61433e-07 0 0)
(2.62597e-07 0 0)
(2.63824e-07 0 0)
(2.6513e-07 0 0)
(2.66536e-07 0 0)
(2.68071e-07 0 0)
(2.69769e-07 0 0)
(2.71671e-07 0 0)
(2.73817e-07 0 0)
(2.76239e-07 0 0)
(2.7895e-07 0 0)
(2.81932e-07 0 0)
(2.85141e-07 0 0)
(2.88526e-07 0 0)
(2.92042e-07 0 0)
(2.95657e-07 0 0)
(2.99347e-07 0 0)
(3.03095e-07 0 0)
(3.06887e-07 0 0)
(3.10712e-07 0 0)
(3.14563e-07 0 0)
(3.18433e-07 0 0)
(3.22322e-07 0 0)
(3.26229e-07 0 0)
(3.30155e-07 0 0)
(3.34099e-07 0 0)
(3.38062e-07 0 0)
(3.42043e-07 0 0)
(3.46041e-07 0 0)
(3.50056e-07 0 0)
(3.54091e-07 0 0)
(3.58145e-07 0 0)
(3.62221e-07 0 0)
(3.66321e-07 0 0)
(3.70446e-07 0 0)
(3.74596e-07 0 0)
(3.78771e-07 0 0)
(3.8297e-07 0 0)
(3.87189e-07 0 0)
(3.91426e-07 0 0)
(3.95678e-07 0 0)
(3.99942e-07 0 0)
(4.04214e-07 0 0)
(4.08492e-07 0 0)
(4.12773e-07 0 0)
(4.17057e-07 0 0)
(4.21341e-07 0 0)
(4.25625e-07 0 0)
(4.2991e-07 0 0)
(4.34195e-07 0 0)
(4.38481e-07 0 0)
(4.42768e-07 0 0)
(4.47059e-07 0 0)
(4.51353e-07 0 0)
(4.55652e-07 0 0)
(4.59956e-07 0 0)
(4.64267e-07 0 0)
(4.68585e-07 0 0)
(4.7291e-07 0 0)
(4.77243e-07 0 0)
(4.81583e-07 0 0)
(4.85932e-07 0 0)
(4.90289e-07 0 0)
(4.94654e-07 0 0)
(4.99026e-07 0 0)
(5.03406e-07 0 0)
(5.07793e-07 0 0)
(5.12188e-07 0 0)
(5.16589e-07 0 0)
(5.20997e-07 0 0)
(5.25411e-07 0 0)
(5.29832e-07 0 0)
(5.34258e-07 0 0)
(5.38691e-07 0 0)
(5.4313e-07 0 0)
(5.47574e-07 0 0)
(5.52024e-07 0 0)
(5.5648e-07 0 0)
(5.60941e-07 0 0)
(5.65407e-07 0 0)
(5.69879e-07 0 0)
(5.74356e-07 0 0)
(5.78838e-07 0 0)
(5.83325e-07 0 0)
(5.87818e-07 0 0)
(5.92315e-07 0 0)
(5.96817e-07 0 0)
(6.01324e-07 0 0)
(6.05836e-07 0 0)
(6.10353e-07 0 0)
(6.14875e-07 0 0)
(6.19401e-07 0 0)
(6.23931e-07 0 0)
(6.28467e-07 0 0)
(6.33007e-07 0 0)
(6.37551e-07 0 0)
(6.42101e-07 0 0)
(6.46654e-07 0 0)
(6.51212e-07 0 0)
(6.55774e-07 0 0)
(6.60341e-07 0 0)
(6.64912e-07 0 0)
(6.69487e-07 0 0)
(6.74065e-07 0 0)
(6.78648e-07 0 0)
(6.83235e-07 0 0)
(6.87826e-07 0 0)
(6.92421e-07 0 0)
(6.9702e-07 0 0)
(7.01623e-07 0 0)
(7.06231e-07 0 0)
(7.10843e-07 0 0)
(7.15459e-07 0 0)
(7.2008e-07 0 0)
(7.24705e-07 0 0)
(7.29334e-07 0 0)
(7.33966e-07 0 0)
(7.38603e-07 0 0)
(7.43244e-07 0 0)
(7.47888e-07 0 0)
(7.52535e-07 0 0)
(7.57187e-07 0 0)
(7.61841e-07 0 0)
(7.665e-07 0 0)
(7.71162e-07 0 0)
(7.75829e-07 0 0)
(7.805e-07 0 0)
(7.85176e-07 0 0)
(7.89856e-07 0 0)
(7.94542e-07 0 0)
(7.99232e-07 0 0)
(8.03926e-07 0 0)
(8.08623e-07 0 0)
(8.13324e-07 0 0)
(8.18025e-07 0 0)
(8.22727e-07 0 0)
(8.27428e-07 0 0)
(8.32127e-07 0 0)
(8.36822e-07 0 0)
(8.41514e-07 0 0)
(8.462e-07 0 0)
(8.50881e-07 0 0)
(8.55557e-07 0 0)
(8.60228e-07 0 0)
(8.64894e-07 0 0)
(8.69556e-07 0 0)
(8.74214e-07 0 0)
(8.78871e-07 0 0)
(8.83528e-07 0 0)
(8.88187e-07 0 0)
(8.92848e-07 0 0)
(8.97516e-07 0 0)
(9.02191e-07 0 0)
(9.06877e-07 0 0)
(9.11575e-07 0 0)
(9.16289e-07 0 0)
(9.21019e-07 0 0)
(9.25769e-07 0 0)
(9.30539e-07 0 0)
(9.35331e-07 0 0)
(9.40144e-07 0 0)
(9.44979e-07 0 0)
(9.49835e-07 0 0)
(9.5471e-07 0 0)
(9.59604e-07 0 0)
(9.64513e-07 0 0)
(9.69435e-07 0 0)
(9.74368e-07 0 0)
(9.79309e-07 0 0)
(9.84255e-07 0 0)
(9.89204e-07 0 0)
(9.94154e-07 0 0)
(9.99102e-07 0 0)
(1.00405e-06 0 0)
(1.00899e-06 0 0)
(1.01393e-06 0 0)
(1.01886e-06 0 0)
(1.02379e-06 0 0)
(1.02871e-06 0 0)
(1.03363e-06 0 0)
(1.03855e-06 0 0)
(1.04346e-06 0 0)
(1.04837e-06 0 0)
(1.05329e-06 0 0)
(1.0582e-06 0 0)
(1.06311e-06 0 0)
(1.06803e-06 0 0)
(1.07294e-06 0 0)
(1.07786e-06 0 0)
(1.08279e-06 0 0)
(1.08771e-06 0 0)
(1.09265e-06 0 0)
(1.09758e-06 0 0)
(1.10252e-06 0 0)
(1.10747e-06 0 0)
(1.11242e-06 0 0)
(1.11738e-06 0 0)
(1.12234e-06 0 0)
(1.1273e-06 0 0)
(1.13227e-06 0 0)
(1.13725e-06 0 0)
(1.14223e-06 0 0)
(1.14721e-06 0 0)
(1.1522e-06 0 0)
(1.15719e-06 0 0)
(1.16218e-06 0 0)
(1.16718e-06 0 0)
(1.17218e-06 0 0)
(1.17719e-06 0 0)
(1.1822e-06 0 0)
(1.18721e-06 0 0)
(1.19223e-06 0 0)
(1.19725e-06 0 0)
(1.20227e-06 0 0)
(1.2073e-06 0 0)
(1.21233e-06 0 0)
(1.21736e-06 0 0)
(1.22239e-06 0 0)
(1.22743e-06 0 0)
(1.23247e-06 0 0)
(1.23752e-06 0 0)
(1.24257e-06 0 0)
(1.24762e-06 0 0)
(1.25267e-06 0 0)
(1.25772e-06 0 0)
(1.26278e-06 0 0)
(1.26784e-06 0 0)
(1.27291e-06 0 0)
(1.27798e-06 0 0)
(1.28305e-06 0 0)
(1.28812e-06 0 0)
(1.29319e-06 0 0)
(1.29827e-06 0 0)
(1.30335e-06 0 0)
(1.30843e-06 0 0)
(1.31352e-06 0 0)
(1.31861e-06 0 0)
(1.3237e-06 0 0)
(1.32879e-06 0 0)
(1.33389e-06 0 0)
(1.33899e-06 0 0)
(1.34409e-06 0 0)
(1.3492e-06 0 0)
(1.3543e-06 0 0)
(1.35941e-06 0 0)
(1.36453e-06 0 0)
(1.36964e-06 0 0)
(1.37476e-06 0 0)
(1.37989e-06 0 0)
(1.38501e-06 0 0)
(1.39014e-06 0 0)
(1.39527e-06 0 0)
(1.4004e-06 0 0)
(1.40554e-06 0 0)
(1.41068e-06 0 0)
(1.41582e-06 0 0)
(1.42097e-06 0 0)
(1.42612e-06 0 0)
(1.43127e-06 0 0)
(1.43642e-06 0 0)
(1.44158e-06 0 0)
(1.44674e-06 0 0)
(1.45191e-06 0 0)
(1.45708e-06 0 0)
(1.46225e-06 0 0)
(1.46742e-06 0 0)
(1.4726e-06 0 0)
(1.47778e-06 0 0)
(1.48296e-06 0 0)
(1.48814e-06 0 0)
(1.49333e-06 0 0)
(1.49851e-06 0 0)
(1.50369e-06 0 0)
(1.50887e-06 0 0)
(1.51404e-06 0 0)
(1.51922e-06 0 0)
(1.52438e-06 0 0)
(1.52955e-06 0 0)
(1.5347e-06 0 0)
(1.53986e-06 0 0)
(1.545e-06 0 0)
(1.55014e-06 0 0)
(1.55528e-06 0 0)
(1.56041e-06 0 0)
(1.56553e-06 0 0)
(1.57065e-06 0 0)
(1.57578e-06 0 0)
(1.5809e-06 0 0)
(1.58602e-06 0 0)
(1.59114e-06 0 0)
(1.59627e-06 0 0)
(1.6014e-06 0 0)
(1.60654e-06 0 0)
(1.6117e-06 0 0)
(1.61686e-06 0 0)
(1.62205e-06 0 0)
(1.62724e-06 0 0)
(1.63246e-06 0 0)
(1.63769e-06 0 0)
(1.64295e-06 0 0)
(1.64823e-06 0 0)
(1.65353e-06 0 0)
(1.65885e-06 0 0)
(1.6642e-06 0 0)
(1.66956e-06 0 0)
(1.67495e-06 0 0)
(1.68035e-06 0 0)
(1.68578e-06 0 0)
(1.69121e-06 0 0)
(1.69666e-06 0 0)
(1.70213e-06 0 0)
(1.7076e-06 0 0)
(1.71307e-06 0 0)
(1.71855e-06 0 0)
(1.72404e-06 0 0)
(1.72952e-06 0 0)
(1.73501e-06 0 0)
(1.74049e-06 0 0)
(1.74597e-06 0 0)
(1.75145e-06 0 0)
(1.75692e-06 0 0)
(1.76239e-06 0 0)
(1.76786e-06 0 0)
(1.77332e-06 0 0)
(1.77878e-06 0 0)
(1.78423e-06 0 0)
(1.78968e-06 0 0)
(1.79513e-06 0 0)
(1.80058e-06 0 0)
(1.80603e-06 0 0)
(1.81148e-06 0 0)
(1.81693e-06 0 0)
(1.82239e-06 0 0)
(1.82784e-06 0 0)
(1.8333e-06 0 0)
(1.83876e-06 0 0)
(1.84422e-06 0 0)
(1.84969e-06 0 0)
(1.85516e-06 0 0)
(1.86064e-06 0 0)
(1.86612e-06 0 0)
(1.8716e-06 0 0)
(1.87709e-06 0 0)
(1.88259e-06 0 0)
(1.88809e-06 0 0)
(1.8936e-06 0 0)
(1.89911e-06 0 0)
(1.90462e-06 0 0)
(1.91014e-06 0 0)
(1.91567e-06 0 0)
(1.9212e-06 0 0)
(1.92673e-06 0 0)
(1.93227e-06 0 0)
(1.93781e-06 0 0)
(1.94336e-06 0 0)
(1.94891e-06 0 0)
(1.95446e-06 0 0)
(1.96002e-06 0 0)
(1.96558e-06 0 0)
(1.97115e-06 0 0)
(1.97672e-06 0 0)
(1.98229e-06 0 0)
(1.98787e-06 0 0)
(1.99345e-06 0 0)
(1.99903e-06 0 0)
(2.00462e-06 0 0)
(2.01021e-06 0 0)
(2.01581e-06 0 0)
(2.0214e-06 0 0)
(2.02701e-06 0 0)
(2.03261e-06 0 0)
(2.03822e-06 0 0)
(2.04383e-06 0 0)
(2.04944e-06 0 0)
(2.05506e-06 0 0)
(2.06068e-06 0 0)
(2.0663e-06 0 0)
(2.07193e-06 0 0)
(2.07756e-06 0 0)
(2.08319e-06 0 0)
(2.08882e-06 0 0)
(2.09446e-06 0 0)
(2.1001e-06 0 0)
(2.10575e-06 0 0)
(2.1114e-06 0 0)
(2.11705e-06 0 0)
(2.1227e-06 0 0)
(2.12836e-06 0 0)
(2.13402e-06 0 0)
(2.13968e-06 0 0)
(2.14535e-06 0 0)
(2.15102e-06 0 0)
(2.1567e-06 0 0)
(2.16237e-06 0 0)
(2.16805e-06 0 0)
(2.17374e-06 0 0)
(2.17943e-06 0 0)
(2.18512e-06 0 0)
(2.19081e-06 0 0)
(2.19651e-06 0 0)
(2.20221e-06 0 0)
(2.20792e-06 0 0)
(2.21363e-06 0 0)
(2.21934e-06 0 0)
(2.22505e-06 0 0)
(2.23077e-06 0 0)
(2.2365e-06 0 0)
(2.24223e-06 0 0)
(2.24796e-06 0 0)
(2.2537e-06 0 0)
(2.25944e-06 0 0)
(2.26518e-06 0 0)
(2.27093e-06 0 0)
(2.27668e-06 0 0)
(2.28243e-06 0 0)
(2.28819e-06 0 0)
(2.29395e-06 0 0)
(2.29971e-06 0 0)
(2.30548e-06 0 0)
(2.31124e-06 0 0)
(2.31701e-06 0 0)
(2.32278e-06 0 0)
(2.32855e-06 0 0)
(2.33431e-06 0 0)
(2.34008e-06 0 0)
(2.34584e-06 0 0)
(2.3516e-06 0 0)
(2.35736e-06 0 0)
(2.36311e-06 0 0)
(2.36886e-06 0 0)
(2.3746e-06 0 0)
(2.38034e-06 0 0)
(2.38608e-06 0 0)
(2.39181e-06 0 0)
(2.39754e-06 0 0)
(2.40327e-06 0 0)
(2.40899e-06 0 0)
(2.41471e-06 0 0)
(2.42043e-06 0 0)
(2.42615e-06 0 0)
(2.43187e-06 0 0)
(2.4376e-06 0 0)
(2.44332e-06 0 0)
(2.44906e-06 0 0)
(2.4548e-06 0 0)
(2.46055e-06 0 0)
(2.46631e-06 0 0)
(2.47208e-06 0 0)
(2.47787e-06 0 0)
(2.48368e-06 0 0)
(2.4895e-06 0 0)
(2.49534e-06 0 0)
(2.5012e-06 0 0)
(2.50708e-06 0 0)
(2.51299e-06 0 0)
(2.51891e-06 0 0)
(2.52486e-06 0 0)
(2.53084e-06 0 0)
(2.53684e-06 0 0)
(2.54286e-06 0 0)
(2.5489e-06 0 0)
(2.55497e-06 0 0)
(2.56106e-06 0 0)
(2.56716e-06 0 0)
(2.57328e-06 0 0)
(2.57942e-06 0 0)
(2.58558e-06 0 0)
(2.59174e-06 0 0)
(2.59792e-06 0 0)
(2.60411e-06 0 0)
(2.6103e-06 0 0)
(2.6165e-06 0 0)
(2.6227e-06 0 0)
(2.6289e-06 0 0)
(2.63511e-06 0 0)
(2.64132e-06 0 0)
(2.64753e-06 0 0)
(2.65373e-06 0 0)
(2.65994e-06 0 0)
(2.66614e-06 0 0)
(2.67235e-06 0 0)
(2.67855e-06 0 0)
(2.68475e-06 0 0)
(2.69095e-06 0 0)
(2.69715e-06 0 0)
(2.70334e-06 0 0)
(2.70954e-06 0 0)
(2.71574e-06 0 0)
(2.72194e-06 0 0)
(2.72814e-06 0 0)
(2.73435e-06 0 0)
(2.74055e-06 0 0)
(2.74676e-06 0 0)
(2.75298e-06 0 0)
(2.7592e-06 0 0)
(2.76542e-06 0 0)
(2.77165e-06 0 0)
(2.77788e-06 0 0)
(2.78412e-06 0 0)
(2.79037e-06 0 0)
(2.79662e-06 0 0)
(2.80288e-06 0 0)
(2.80914e-06 0 0)
(2.81541e-06 0 0)
(2.82169e-06 0 0)
(2.82798e-06 0 0)
(2.83427e-06 0 0)
(2.84057e-06 0 0)
(2.84687e-06 0 0)
(2.85318e-06 0 0)
(2.8595e-06 0 0)
(2.86582e-06 0 0)
(2.87215e-06 0 0)
(2.87849e-06 0 0)
(2.88483e-06 0 0)
(2.89118e-06 0 0)
(2.89754e-06 0 0)
(2.9039e-06 0 0)
(2.91026e-06 0 0)
(2.91664e-06 0 0)
(2.92302e-06 0 0)
(2.9294e-06 0 0)
(2.93579e-06 0 0)
(2.94219e-06 0 0)
(2.94859e-06 0 0)
(2.955e-06 0 0)
(2.96141e-06 0 0)
(2.96783e-06 0 0)
(2.97425e-06 0 0)
(2.98068e-06 0 0)
(2.98712e-06 0 0)
(2.99356e-06 0 0)
(3.00001e-06 0 0)
(3.00646e-06 0 0)
(3.01291e-06 0 0)
(3.01938e-06 0 0)
(3.02584e-06 0 0)
(3.03232e-06 0 0)
(3.0388e-06 0 0)
(3.04528e-06 0 0)
(3.05177e-06 0 0)
(3.05826e-06 0 0)
(3.06476e-06 0 0)
(3.07127e-06 0 0)
(3.07778e-06 0 0)
(3.0843e-06 0 0)
(3.09082e-06 0 0)
(3.09735e-06 0 0)
(3.10388e-06 0 0)
(3.11042e-06 0 0)
(3.11697e-06 0 0)
(3.12352e-06 0 0)
(3.13007e-06 0 0)
(3.13664e-06 0 0)
(3.14321e-06 0 0)
(3.14978e-06 0 0)
(3.15636e-06 0 0)
(3.16295e-06 0 0)
(3.16954e-06 0 0)
(3.17614e-06 0 0)
(3.18275e-06 0 0)
(3.18936e-06 0 0)
(3.19598e-06 0 0)
(3.2026e-06 0 0)
(3.20923e-06 0 0)
(3.21587e-06 0 0)
(3.22251e-06 0 0)
(3.22917e-06 0 0)
(3.23582e-06 0 0)
(3.24249e-06 0 0)
(3.24916e-06 0 0)
(3.25584e-06 0 0)
(3.26252e-06 0 0)
(3.26921e-06 0 0)
(3.27591e-06 0 0)
(3.28261e-06 0 0)
(3.28932e-06 0 0)
(3.29604e-06 0 0)
(3.30276e-06 0 0)
(3.30949e-06 0 0)
(3.31622e-06 0 0)
(3.32295e-06 0 0)
(3.32969e-06 0 0)
(3.33644e-06 0 0)
(3.34318e-06 0 0)
(3.34993e-06 0 0)
(3.35669e-06 0 0)
(3.36344e-06 0 0)
(3.3702e-06 0 0)
(3.37695e-06 0 0)
(3.38371e-06 0 0)
(3.39047e-06 0 0)
(3.39722e-06 0 0)
(3.40398e-06 0 0)
(3.41074e-06 0 0)
(3.4175e-06 0 0)
(3.42425e-06 0 0)
(3.43101e-06 0 0)
(3.43777e-06 0 0)
(3.44452e-06 0 0)
(3.45128e-06 0 0)
(3.45804e-06 0 0)
(3.4648e-06 0 0)
(3.47157e-06 0 0)
(3.47834e-06 0 0)
(3.48511e-06 0 0)
(3.49189e-06 0 0)
(3.49868e-06 0 0)
(3.50548e-06 0 0)
(3.51229e-06 0 0)
(3.51911e-06 0 0)
(3.52594e-06 0 0)
(3.53279e-06 0 0)
(3.53965e-06 0 0)
(3.54654e-06 0 0)
(3.55344e-06 0 0)
(3.56036e-06 0 0)
(3.56731e-06 0 0)
(3.57427e-06 0 0)
(3.58127e-06 0 0)
(3.58829e-06 0 0)
(3.59533e-06 0 0)
(3.6024e-06 0 0)
(3.6095e-06 0 0)
(3.61663e-06 0 0)
(3.62379e-06 0 0)
(3.63097e-06 0 0)
(3.63819e-06 0 0)
(3.64543e-06 0 0)
(3.65269e-06 0 0)
(3.65999e-06 0 0)
(3.66731e-06 0 0)
(3.67465e-06 0 0)
(3.68201e-06 0 0)
(3.6894e-06 0 0)
(3.69681e-06 0 0)
(3.70423e-06 0 0)
(3.71167e-06 0 0)
(3.71913e-06 0 0)
(3.7266e-06 0 0)
(3.73409e-06 0 0)
(3.74158e-06 0 0)
(3.74909e-06 0 0)
(3.7566e-06 0 0)
(3.76413e-06 0 0)
(3.77166e-06 0 0)
(3.77919e-06 0 0)
(3.78673e-06 0 0)
(3.79428e-06 0 0)
(3.80183e-06 0 0)
(3.80939e-06 0 0)
(3.81695e-06 0 0)
(3.82452e-06 0 0)
(3.83209e-06 0 0)
(3.83967e-06 0 0)
(3.84725e-06 0 0)
(3.85483e-06 0 0)
(3.86243e-06 0 0)
(3.87003e-06 0 0)
(3.87763e-06 0 0)
(3.88525e-06 0 0)
(3.89287e-06 0 0)
(3.9005e-06 0 0)
(3.90814e-06 0 0)
(3.91578e-06 0 0)
(3.92344e-06 0 0)
(3.93111e-06 0 0)
(3.93879e-06 0 0)
(3.94648e-06 0 0)
(3.95418e-06 0 0)
(3.96189e-06 0 0)
(3.96961e-06 0 0)
(3.97735e-06 0 0)
(3.9851e-06 0 0)
(3.99286e-06 0 0)
(4.00064e-06 0 0)
(4.00842e-06 0 0)
(4.01622e-06 0 0)
(4.02404e-06 0 0)
(4.03187e-06 0 0)
(4.03971e-06 0 0)
(4.04756e-06 0 0)
(4.05543e-06 0 0)
(4.06331e-06 0 0)
(4.07121e-06 0 0)
(4.07912e-06 0 0)
(4.08704e-06 0 0)
(4.09498e-06 0 0)
(4.10293e-06 0 0)
(4.11089e-06 0 0)
(4.11887e-06 0 0)
(4.12686e-06 0 0)
(4.13486e-06 0 0)
(4.14288e-06 0 0)
(4.15091e-06 0 0)
(4.15896e-06 0 0)
(4.16702e-06 0 0)
(4.17509e-06 0 0)
(4.18318e-06 0 0)
(4.19128e-06 0 0)
(4.1994e-06 0 0)
(4.20753e-06 0 0)
(4.21567e-06 0 0)
(4.22383e-06 0 0)
(4.232e-06 0 0)
(4.24018e-06 0 0)
(4.24838e-06 0 0)
(4.2566e-06 0 0)
(4.26482e-06 0 0)
(4.27307e-06 0 0)
(4.28132e-06 0 0)
(4.28959e-06 0 0)
(4.29788e-06 0 0)
(4.30618e-06 0 0)
(4.31449e-06 0 0)
(4.32282e-06 0 0)
(4.33117e-06 0 0)
(4.33953e-06 0 0)
(4.3479e-06 0 0)
(4.35629e-06 0 0)
(4.3647e-06 0 0)
(4.37312e-06 0 0)
(4.38155e-06 0 0)
(4.39001e-06 0 0)
(4.39847e-06 0 0)
(4.40696e-06 0 0)
(4.41546e-06 0 0)
(4.42397e-06 0 0)
(4.43251e-06 0 0)
(4.44106e-06 0 0)
(4.44962e-06 0 0)
(4.4582e-06 0 0)
(4.4668e-06 0 0)
(4.47542e-06 0 0)
(4.48406e-06 0 0)
(4.49271e-06 0 0)
(4.50138e-06 0 0)
(4.51006e-06 0 0)
(4.51877e-06 0 0)
(4.52749e-06 0 0)
(4.53624e-06 0 0)
(4.545e-06 0 0)
(4.55377e-06 0 0)
(4.56257e-06 0 0)
(4.57139e-06 0 0)
(4.58022e-06 0 0)
(4.58907e-06 0 0)
(4.59795e-06 0 0)
(4.60684e-06 0 0)
(4.61575e-06 0 0)
(4.62467e-06 0 0)
(4.63362e-06 0 0)
(4.64259e-06 0 0)
(4.65157e-06 0 0)
(4.66057e-06 0 0)
(4.66959e-06 0 0)
(4.67863e-06 0 0)
(4.68769e-06 0 0)
(4.69676e-06 0 0)
(4.70585e-06 0 0)
(4.71496e-06 0 0)
(4.72408e-06 0 0)
(4.73322e-06 0 0)
(4.74238e-06 0 0)
(4.75155e-06 0 0)
(4.76074e-06 0 0)
(4.76995e-06 0 0)
(4.77917e-06 0 0)
(4.7884e-06 0 0)
(4.79765e-06 0 0)
(4.80692e-06 0 0)
(4.81621e-06 0 0)
(4.82551e-06 0 0)
(4.83482e-06 0 0)
(4.84416e-06 0 0)
(4.85351e-06 0 0)
(4.86288e-06 0 0)
(4.87226e-06 0 0)
(4.88167e-06 0 0)
(4.89109e-06 0 0)
(4.90054e-06 0 0)
(4.91001e-06 0 0)
(4.9195e-06 0 0)
(4.92902e-06 0 0)
(4.93856e-06 0 0)
(4.94813e-06 0 0)
(4.95772e-06 0 0)
(4.96735e-06 0 0)
(4.977e-06 0 0)
(4.98669e-06 0 0)
(4.99641e-06 0 0)
(5.00617e-06 0 0)
(5.01596e-06 0 0)
(5.0258e-06 0 0)
(5.03567e-06 0 0)
(5.04558e-06 0 0)
(5.05554e-06 0 0)
(5.06554e-06 0 0)
(5.07559e-06 0 0)
(5.08568e-06 0 0)
(5.09582e-06 0 0)
(5.10601e-06 0 0)
(5.11624e-06 0 0)
(5.12653e-06 0 0)
(5.13687e-06 0 0)
(5.14726e-06 0 0)
(5.15769e-06 0 0)
(5.16818e-06 0 0)
(5.17872e-06 0 0)
(5.1893e-06 0 0)
(5.19994e-06 0 0)
(5.21062e-06 0 0)
(5.22135e-06 0 0)
(5.23213e-06 0 0)
(5.24295e-06 0 0)
(5.25381e-06 0 0)
(5.26471e-06 0 0)
(5.27565e-06 0 0)
(5.28663e-06 0 0)
(5.29764e-06 0 0)
(5.30868e-06 0 0)
(5.31975e-06 0 0)
(5.33085e-06 0 0)
(5.34197e-06 0 0)
(5.35312e-06 0 0)
(5.36428e-06 0 0)
(5.37546e-06 0 0)
(5.38665e-06 0 0)
(5.39784e-06 0 0)
(5.40904e-06 0 0)
(5.42023e-06 0 0)
(5.43142e-06 0 0)
(5.4426e-06 0 0)
(5.45375e-06 0 0)
(5.46488e-06 0 0)
(5.47598e-06 0 0)
(5.48703e-06 0 0)
(5.49804e-06 0 0)
(5.50898e-06 0 0)
(5.51984e-06 0 0)
(5.53062e-06 0 0)
(5.5413e-06 0 0)
(5.55185e-06 0 0)
(5.56228e-06 0 0)
(5.57255e-06 0 0)
(5.58265e-06 0 0)
(5.59255e-06 0 0)
(5.60224e-06 0 0)
(5.61169e-06 0 0)
(5.62087e-06 0 0)
(5.62977e-06 0 0)
(5.63837e-06 0 0)
(5.64663e-06 0 0)
(5.65454e-06 0 0)
(5.66208e-06 0 0)
(5.66923e-06 0 0)
(5.67598e-06 0 0)
(5.68232e-06 0 0)
(5.68824e-06 0 0)
(5.69373e-06 0 0)
(5.6988e-06 0 0)
(5.70345e-06 0 0)
(5.70769e-06 0 0)
(5.71154e-06 0 0)
(5.715e-06 0 0)
(5.7181e-06 0 0)
(5.72085e-06 0 0)
(5.72328e-06 0 0)
(5.72542e-06 0 0)
(5.72728e-06 0 0)
(5.7289e-06 0 0)
(5.7303e-06 0 0)
(5.73149e-06 0 0)
(5.73251e-06 0 0)
(5.73337e-06 0 0)
(5.73411e-06 0 0)
(5.73473e-06 0 0)
(5.73526e-06 0 0)
(5.73571e-06 0 0)
(5.73609e-06 0 0)
(5.73643e-06 0 0)
(5.73676e-06 0 0)
(5.73712e-06 0 0)
(5.73757e-06 0 0)
(5.73819e-06 0 0)
(5.73917e-06 0 0)
(5.7408e-06 0 0)
(5.74365e-06 0 0)
(5.74868e-06 0 0)
(5.75765e-06 0 0)
(5.77363e-06 0 0)
(5.80202e-06 0 0)
(5.85209e-06 0 0)
(5.93906e-06 0 0)
(6.08622e-06 0 0)
(6.32437e-06 0 0)
(6.68352e-06 0 0)
(7.17191e-06 0 0)
(7.75051e-06 0 0)
(8.3325e-06 0 0)
(8.82558e-06 0 0)
(9.18231e-06 0 0)
(9.40963e-06 0 0)
(9.54212e-06 0 0)
(9.61512e-06 0 0)
(9.65407e-06 0 0)
(9.67448e-06 0 0)
(9.68509e-06 0 0)
(9.69057e-06 0 0)
(9.69341e-06 0 0)
(9.69487e-06 0 0)
(9.69563e-06 0 0)
(9.69602e-06 0 0)
(9.69623e-06 0 0)
(9.69633e-06 0 0)
)
;

boundaryField
{
    inlet
    {
        type            fixedValue;
        value           uniform (0 0 0);
    }
    outlet
    {
        type            zeroGradient;
    }
    emptyWalls
    {
        type            empty;
    }
}


// ************************************************************************* //
