/*--------------------------------*- C++ -*----------------------------------*\
  =========                 |
  \\      /  F ield         | OpenFOAM: The Open Source CFD Toolbox
   \\    /   O peration     | Website:  https://openfoam.org
    \\  /    A nd           | Version:  9
     \\/     M anipulation  |
\*---------------------------------------------------------------------------*/
FoamFile
{
    format      ascii;
    class       volScalarField;
    location    "22900";
    object      krb;
}
// * * * * * * * * * * * * * * * * * * * * * * * * * * * * * * * * * * * * * //

dimensions      [0 0 0 0 0 0 0];

internalField   nonuniform List<scalar> 
1000
(
0.0978091
0.0982267
0.0986763
0.0991934
0.0996767
0.100178
0.100686
0.101196
0.101714
0.102243
0.102773
0.103315
0.103863
0.104409
0.104972
0.105499
0.106069
0.106552
0.10711
0.107538
0.108044
0.108423
0.108834
0.109161
0.109477
0.109742
0.109989
0.110215
0.110509
0.111184
0.11358
0.124116
0.210352
0.425442
0.48071
0.496724
0.504077
0.508555
0.511745
0.514244
0.516302
0.518059
0.519582
0.520925
0.522115
0.523179
0.52413
0.524985
0.525751
0.526441
0.527058
0.527613
0.528107
0.528548
0.528941
0.529288
0.529595
0.529866
0.5301
0.530304
0.530474
0.530615
0.530722
0.530804
0.530855
0.530883
0.530882
0.530859
0.530811
0.530738
0.53064
0.530515
0.53036
0.530175
0.529957
0.529705
0.52942
0.529096
0.528719
0.528303
0.527845
0.527343
0.526795
0.526192
0.525508
0.524726
0.523824
0.522775
0.521565
0.520191
0.518677
0.517067
0.515401
0.513698
0.511974
0.510235
0.508489
0.506739
0.504987
0.503236
0.501486
0.49974
0.497999
0.496263
0.494535
0.492815
0.491105
0.489404
0.487715
0.486038
0.484373
0.482721
0.481082
0.479456
0.477844
0.476245
0.474659
0.473086
0.471525
0.469978
0.468442
0.466919
0.465407
0.463907
0.462419
0.460942
0.459476
0.458021
0.456577
0.455143
0.45372
0.452308
0.450906
0.449514
0.448132
0.44676
0.445398
0.444045
0.442702
0.441368
0.440044
0.438728
0.437422
0.436125
0.434836
0.433557
0.432286
0.431023
0.429769
0.428523
0.427285
0.426056
0.424834
0.423621
0.422415
0.421217
0.420026
0.418843
0.417668
0.4165
0.415339
0.414185
0.413039
0.4119
0.410767
0.409642
0.408523
0.407412
0.406307
0.405209
0.404118
0.403033
0.401954
0.400882
0.399816
0.398756
0.397702
0.396655
0.395613
0.394577
0.393548
0.392524
0.391507
0.390495
0.389489
0.388489
0.387495
0.386505
0.385521
0.384541
0.383566
0.382594
0.381627
0.380663
0.379703
0.378746
0.377793
0.376844
0.375899
0.374957
0.37402
0.373087
0.372159
0.371236
0.370319
0.369407
0.368501
0.367601
0.366708
0.365822
0.364943
0.364071
0.363206
0.362349
0.361498
0.360654
0.359816
0.358984
0.358157
0.357336
0.356518
0.355705
0.354895
0.354089
0.353285
0.352484
0.351685
0.350889
0.350096
0.349304
0.348516
0.347729
0.346946
0.346165
0.345387
0.344613
0.343841
0.343072
0.342307
0.341545
0.340787
0.340032
0.33928
0.338532
0.337787
0.337046
0.336308
0.335573
0.334842
0.334113
0.333389
0.332667
0.331949
0.331233
0.330521
0.329811
0.329105
0.328402
0.327701
0.327004
0.326309
0.325617
0.324928
0.324241
0.323558
0.322877
0.322198
0.321523
0.32085
0.32018
0.319512
0.318847
0.318184
0.317524
0.316866
0.316211
0.315559
0.314908
0.314261
0.313616
0.312973
0.312332
0.311694
0.311058
0.310425
0.309794
0.309165
0.308538
0.307914
0.307292
0.306672
0.306054
0.305439
0.304825
0.304214
0.303605
0.302999
0.302394
0.301792
0.301191
0.300593
0.299997
0.299403
0.298811
0.298221
0.297633
0.297047
0.296463
0.295882
0.295302
0.294724
0.294148
0.293574
0.293002
0.292432
0.291864
0.291298
0.290734
0.290171
0.289611
0.289052
0.288495
0.287939
0.287385
0.286833
0.286282
0.285732
0.285184
0.284637
0.284091
0.283546
0.283002
0.28246
0.281919
0.281379
0.28084
0.280303
0.279767
0.279232
0.278699
0.278167
0.277638
0.27711
0.276584
0.276061
0.275539
0.27502
0.274504
0.273989
0.273478
0.272969
0.272463
0.271959
0.271458
0.27096
0.270464
0.269971
0.26948
0.268991
0.268504
0.268019
0.267536
0.267054
0.266574
0.266095
0.265617
0.265141
0.264665
0.26419
0.263717
0.263244
0.262772
0.262301
0.26183
0.261361
0.260892
0.260425
0.259958
0.259493
0.259028
0.258565
0.258102
0.257641
0.257181
0.256722
0.256265
0.255808
0.255353
0.254899
0.254446
0.253995
0.253545
0.253096
0.252648
0.252201
0.251756
0.251312
0.250869
0.250428
0.249987
0.249548
0.24911
0.248673
0.248237
0.247802
0.247368
0.246936
0.246504
0.246074
0.245644
0.245216
0.244789
0.244363
0.243938
0.243513
0.24309
0.242668
0.242247
0.241827
0.241408
0.24099
0.240573
0.240157
0.239741
0.239327
0.238914
0.238502
0.23809
0.23768
0.23727
0.236862
0.236454
0.236048
0.235642
0.235237
0.234833
0.23443
0.234028
0.233626
0.233226
0.232826
0.232428
0.23203
0.231633
0.231237
0.230842
0.230448
0.230054
0.229662
0.22927
0.228879
0.228489
0.2281
0.227712
0.227324
0.226938
0.226552
0.226167
0.225783
0.225399
0.225017
0.224635
0.224254
0.223874
0.223495
0.223116
0.222739
0.222362
0.221985
0.22161
0.221235
0.220861
0.220487
0.220114
0.219742
0.21937
0.218999
0.218629
0.218259
0.217889
0.21752
0.217152
0.216784
0.216416
0.216049
0.215683
0.215316
0.214951
0.214586
0.214222
0.213858
0.213495
0.213133
0.212771
0.21241
0.21205
0.211691
0.211332
0.210975
0.210619
0.210264
0.209909
0.209556
0.209204
0.208854
0.208504
0.208156
0.207808
0.207462
0.207117
0.206773
0.206431
0.206089
0.205748
0.205408
0.205069
0.204731
0.204394
0.204057
0.203721
0.203386
0.203051
0.202717
0.202384
0.20205
0.201718
0.201385
0.201053
0.200721
0.20039
0.200059
0.199729
0.199399
0.199069
0.198739
0.19841
0.198082
0.197754
0.197426
0.197099
0.196772
0.196445
0.19612
0.195794
0.195469
0.195145
0.194821
0.194498
0.194175
0.193853
0.193531
0.19321
0.192889
0.192569
0.192249
0.19193
0.191611
0.191293
0.190975
0.190658
0.190342
0.190026
0.18971
0.189395
0.18908
0.188766
0.188452
0.188139
0.187826
0.187514
0.187202
0.186891
0.18658
0.186269
0.185959
0.185649
0.18534
0.185031
0.184723
0.184415
0.184107
0.1838
0.183494
0.183187
0.182881
0.182576
0.182271
0.181966
0.181662
0.181358
0.181054
0.180751
0.180448
0.180146
0.179844
0.179542
0.179241
0.17894
0.17864
0.17834
0.17804
0.177741
0.177442
0.177143
0.176845
0.176547
0.176249
0.175952
0.175655
0.175359
0.175063
0.174767
0.174471
0.174176
0.173882
0.173587
0.173293
0.172999
0.172706
0.172413
0.17212
0.171828
0.171536
0.171244
0.170953
0.170662
0.170371
0.17008
0.16979
0.169501
0.169211
0.168922
0.168633
0.168344
0.168056
0.167767
0.167479
0.167192
0.166904
0.166617
0.16633
0.166043
0.165756
0.16547
0.165183
0.164897
0.164611
0.164326
0.16404
0.163755
0.163469
0.163184
0.162899
0.162615
0.16233
0.162046
0.161762
0.161478
0.161195
0.160912
0.160629
0.160346
0.160064
0.159782
0.159501
0.15922
0.158939
0.158659
0.158379
0.1581
0.157821
0.157542
0.157264
0.156987
0.15671
0.156433
0.156157
0.155882
0.155607
0.155332
0.155058
0.154784
0.15451
0.154237
0.153964
0.153692
0.15342
0.153148
0.152876
0.152605
0.152334
0.152063
0.151792
0.151521
0.151251
0.15098
0.15071
0.15044
0.15017
0.1499
0.14963
0.14936
0.14909
0.14882
0.148551
0.148281
0.148012
0.147742
0.147473
0.147203
0.146934
0.146665
0.146396
0.146127
0.145858
0.14559
0.145321
0.145053
0.144784
0.144516
0.144248
0.14398
0.143712
0.143444
0.143176
0.142909
0.142641
0.142374
0.142106
0.141839
0.141572
0.141305
0.141038
0.140771
0.140505
0.140238
0.139971
0.139705
0.139438
0.139172
0.138906
0.138639
0.138373
0.138107
0.137841
0.137575
0.137309
0.137043
0.136777
0.136511
0.136245
0.135979
0.135714
0.135448
0.135182
0.134916
0.13465
0.134385
0.134119
0.133853
0.133587
0.133322
0.133056
0.13279
0.132524
0.132259
0.131993
0.131727
0.131461
0.131195
0.130929
0.130663
0.130397
0.130131
0.129865
0.129599
0.129332
0.129066
0.1288
0.128533
0.128267
0.128
0.127733
0.127467
0.1272
0.126933
0.126666
0.126399
0.126132
0.125865
0.125597
0.12533
0.125062
0.124794
0.124527
0.124259
0.123991
0.123723
0.123454
0.123186
0.122917
0.122648
0.12238
0.12211
0.121841
0.121572
0.121302
0.121033
0.120763
0.120493
0.120222
0.119952
0.119681
0.11941
0.119139
0.118867
0.118596
0.118324
0.118052
0.117779
0.117507
0.117234
0.116961
0.116687
0.116414
0.11614
0.115866
0.115591
0.115316
0.115041
0.114766
0.114491
0.114215
0.113939
0.113663
0.113387
0.11311
0.112833
0.112556
0.112279
0.112002
0.111724
0.111447
0.111169
0.110891
0.110614
0.110336
0.110058
0.109781
0.109503
0.109226
0.108949
0.108672
0.108396
0.10812
0.107844
0.107569
0.107295
0.107022
0.10675
0.106479
0.106209
0.105942
0.105675
0.105411
0.10515
0.104891
0.104635
0.104383
0.104134
0.10389
0.103651
0.103417
0.103189
0.102968
0.102754
0.102548
0.102349
0.10216
0.101979
0.101808
0.101647
0.101496
0.101356
0.101226
0.101107
0.100997
0.100898
0.100809
0.100729
0.100658
0.100595
0.10054
0.100492
0.100451
0.100416
0.100386
0.100361
0.100339
0.100322
0.100307
0.100295
0.100285
0.100276
0.100268
0.10026
0.10025
0.100235
0.100212
0.100173
0.100105
0.0999821
0.0997637
0.0993745
0.0986846
0.097475
0.0953976
0.091955
0.0865751
0.0789033
0.0693068
0.0591483
0.0502049
0.0435839
0.0393159
0.036816
0.0354357
0.0346989
0.0343127
0.0341123
0.0340088
0.0339555
0.0339281
0.0339141
0.0339069
0.0339032
0.0339013
0.0339003
0.0338998
0.0338995
0.0338994
0.0338993
0.0338992
0.0338992
0.0338992
0.0338991
0.0338991
0.033899
0.0338989
0.0338989
0.0338988
0.0338987
0.0338987
0.0338986
0.0338985
0.0338984
0.0338983
0.0338982
0.0338981
0.033898
0.0338979
0.0338978
0.0338977
0.0338976
0.0338975
0.0338973
0.0338973
0.0338971
0.033897
0.0338969
0.0338968
0.0338967
0.0338966
0.0338964
0.0338964
0.0338962
0.0338962
0.033896
0.033896
0.0338958
0.0338958
0.0338956
0.0338956
0.0338954
0.0338954
0.0338953
0.0338952
0.0338951
0.0338951
0.0338949
0.0338949
0.0338948
0.0338948
0.0338946
0.0338946
0.0338945
0.0338945
0.0338943
0.0338943
0.0338941
)
;

boundaryField
{
    inlet
    {
        type            calculated;
        value           uniform 0.0976562;
    }
    outlet
    {
        type            calculated;
        value           uniform 0.0338941;
    }
    emptyWalls
    {
        type            empty;
    }
}


// ************************************************************************* //
