/*--------------------------------*- C++ -*----------------------------------*\
  =========                 |
  \\      /  F ield         | OpenFOAM: The Open Source CFD Toolbox
   \\    /   O peration     | Website:  https://openfoam.org
    \\  /    A nd           | Version:  9
     \\/     M anipulation  |
\*---------------------------------------------------------------------------*/
FoamFile
{
    format      ascii;
    class       volScalarField;
    location    "20500";
    object      krc;
}
// * * * * * * * * * * * * * * * * * * * * * * * * * * * * * * * * * * * * * //

dimensions      [0 0 0 0 0 0 0];

internalField   nonuniform List<scalar> 
1000
(
1.09347e-07
1.01511e-06
3.61522e-06
7.76928e-06
1.3452e-05
2.06734e-05
2.94585e-05
3.98298e-05
5.18067e-05
6.53887e-05
8.0548e-05
9.72163e-05
0.000115274
0.000134533
0.000154732
0.00017553
0.000196521
0.00021726
0.000237302
0.00025625
0.000273798
0.00028976
0.000304122
0.000317183
0.000330514
0.000351525
0.000415599
0.000687365
0.00289251
0.0236877
0.0400609
0.0443499
0.0461812
0.0472733
0.0480577
0.048688
0.0492248
0.0497019
0.0501341
0.050534
0.050906
0.0512569
0.0515876
0.0519024
0.0522017
0.0524888
0.0527632
0.0530279
0.0532824
0.0535293
0.0537683
0.0540015
0.0542285
0.0544515
0.05467
0.0548859
0.0550988
0.0553102
0.05552
0.0557299
0.0559413
0.0561567
0.0563731
0.0565909
0.0568102
0.0570317
0.057256
0.0574836
0.0577157
0.0579533
0.058198
0.0584516
0.0587171
0.0589982
0.0593002
0.0596302
0.059997
0.0604104
0.0608793
0.0614087
0.0619967
0.062634
0.063308
0.064008
0.0647265
0.0654581
0.0661992
0.0669471
0.0676998
0.068456
0.0692145
0.0699745
0.0707353
0.0714966
0.0722578
0.0730187
0.0737789
0.0745384
0.075297
0.0760544
0.0768106
0.0775656
0.0783191
0.0790712
0.0798217
0.0805708
0.0813182
0.082064
0.0828081
0.0835506
0.0842914
0.0850304
0.0857678
0.0865034
0.0872372
0.0879693
0.0886996
0.0894282
0.090155
0.09088
0.0916033
0.0923248
0.0930445
0.0937624
0.0944787
0.0951931
0.0959058
0.0966168
0.097326
0.0980335
0.0987392
0.0994431
0.100145
0.100846
0.101544
0.102241
0.102937
0.10363
0.104322
0.105012
0.1057
0.106387
0.107072
0.107755
0.108437
0.109117
0.109796
0.110473
0.111148
0.111822
0.112495
0.113166
0.113836
0.114504
0.115171
0.115836
0.1165
0.117162
0.117823
0.118482
0.11914
0.119796
0.120451
0.121104
0.121756
0.122406
0.123055
0.123702
0.124348
0.124992
0.125635
0.126277
0.126917
0.127555
0.128193
0.128829
0.129463
0.130096
0.130728
0.131359
0.131988
0.132616
0.133243
0.133868
0.134492
0.135115
0.135736
0.136356
0.136975
0.137593
0.13821
0.138825
0.139439
0.140052
0.140663
0.141273
0.141883
0.142491
0.143097
0.143703
0.144307
0.14491
0.145512
0.146113
0.146713
0.147312
0.147909
0.148505
0.149101
0.149695
0.150288
0.15088
0.15147
0.15206
0.152649
0.153236
0.153823
0.154408
0.154993
0.155576
0.156158
0.156739
0.15732
0.157899
0.158477
0.159054
0.15963
0.160205
0.160779
0.161352
0.161925
0.162496
0.163066
0.163635
0.164204
0.164771
0.165337
0.165903
0.166467
0.167031
0.167593
0.168155
0.168716
0.169276
0.169835
0.170393
0.17095
0.171507
0.172062
0.172617
0.17317
0.173723
0.174275
0.174827
0.175377
0.175926
0.176475
0.177023
0.17757
0.178116
0.178661
0.179205
0.179749
0.180292
0.180833
0.181374
0.181915
0.182454
0.182992
0.18353
0.184067
0.184603
0.185138
0.185672
0.186206
0.186739
0.187271
0.187802
0.188333
0.188863
0.189392
0.189921
0.190449
0.190977
0.191504
0.19203
0.192556
0.193081
0.193606
0.19413
0.194654
0.195177
0.1957
0.196221
0.196743
0.197263
0.197783
0.198302
0.198821
0.199339
0.199856
0.200373
0.200889
0.201404
0.201919
0.202433
0.202946
0.203459
0.203971
0.204482
0.204993
0.205503
0.206012
0.206521
0.207029
0.207537
0.208044
0.20855
0.209056
0.209562
0.210067
0.210571
0.211075
0.211578
0.212081
0.212583
0.213084
0.213585
0.214086
0.214586
0.215086
0.215585
0.216083
0.216581
0.217079
0.217576
0.218072
0.218568
0.219064
0.219559
0.220054
0.220548
0.221041
0.221534
0.222027
0.222519
0.223011
0.223502
0.223993
0.224483
0.224973
0.225463
0.225952
0.22644
0.226928
0.227416
0.227903
0.22839
0.228876
0.229362
0.229847
0.230332
0.230817
0.231301
0.231785
0.232268
0.232751
0.233234
0.233716
0.234198
0.234679
0.23516
0.235641
0.236121
0.236601
0.23708
0.237559
0.238038
0.238516
0.238994
0.239471
0.239949
0.240425
0.240902
0.241378
0.241854
0.242329
0.242804
0.243279
0.243753
0.244227
0.244701
0.245174
0.245648
0.24612
0.246593
0.247065
0.247537
0.248008
0.248479
0.24895
0.249421
0.249891
0.250361
0.25083
0.2513
0.251769
0.252237
0.252706
0.253174
0.253641
0.254109
0.254576
0.255042
0.255509
0.255975
0.25644
0.256906
0.257371
0.257835
0.2583
0.258764
0.259228
0.259691
0.260155
0.260618
0.26108
0.261543
0.262005
0.262468
0.26293
0.263392
0.263854
0.264315
0.264777
0.265238
0.2657
0.266161
0.266622
0.267084
0.267545
0.268006
0.268467
0.268928
0.269389
0.26985
0.270311
0.270772
0.271232
0.271693
0.272153
0.272613
0.273073
0.273533
0.273992
0.274452
0.274911
0.27537
0.275829
0.276288
0.276746
0.277204
0.277662
0.27812
0.278578
0.279035
0.279493
0.27995
0.280407
0.280864
0.28132
0.281777
0.282233
0.28269
0.283146
0.283602
0.284058
0.284514
0.28497
0.285426
0.285882
0.286337
0.286793
0.287248
0.287704
0.288159
0.288615
0.28907
0.289525
0.28998
0.290435
0.29089
0.291345
0.2918
0.292255
0.29271
0.293165
0.29362
0.294074
0.294529
0.294984
0.295438
0.295893
0.296348
0.296802
0.297257
0.297711
0.298166
0.29862
0.299075
0.299529
0.299984
0.300438
0.300893
0.301347
0.301802
0.302256
0.302711
0.303166
0.30362
0.304075
0.304529
0.304984
0.305438
0.305893
0.306348
0.306803
0.307257
0.307712
0.308167
0.308622
0.309077
0.309532
0.309987
0.310442
0.310898
0.311353
0.311808
0.312264
0.312719
0.313175
0.31363
0.314086
0.314542
0.314998
0.315454
0.31591
0.316366
0.316823
0.317279
0.317736
0.318193
0.318649
0.319106
0.319564
0.320021
0.320478
0.320936
0.321393
0.321851
0.322309
0.322767
0.323225
0.323684
0.324142
0.324601
0.32506
0.325519
0.325978
0.326437
0.326897
0.327356
0.327816
0.328276
0.328736
0.329196
0.329656
0.330117
0.330577
0.331038
0.331499
0.33196
0.332421
0.332883
0.333344
0.333806
0.334268
0.334731
0.335193
0.335656
0.336119
0.336582
0.337046
0.33751
0.337974
0.338438
0.338903
0.339369
0.339834
0.3403
0.340767
0.341234
0.341701
0.342169
0.342638
0.343107
0.343576
0.344046
0.344516
0.344987
0.345458
0.34593
0.346403
0.346876
0.347349
0.347823
0.348297
0.348772
0.349247
0.349723
0.350199
0.350676
0.351153
0.351631
0.352109
0.352587
0.353066
0.353545
0.354024
0.354504
0.354985
0.355466
0.355947
0.356429
0.356911
0.357394
0.357877
0.35836
0.358844
0.359329
0.359814
0.360299
0.360786
0.361272
0.361759
0.362247
0.362735
0.363224
0.363714
0.364204
0.364694
0.365185
0.365677
0.36617
0.366663
0.367157
0.367651
0.368146
0.368642
0.369139
0.369636
0.370134
0.370632
0.371132
0.371632
0.372132
0.372634
0.373136
0.373639
0.374143
0.374647
0.375153
0.375659
0.376165
0.376673
0.377182
0.377691
0.378201
0.378712
0.379224
0.379737
0.38025
0.380765
0.38128
0.381796
0.382313
0.382831
0.38335
0.38387
0.384391
0.384913
0.385436
0.385959
0.386484
0.38701
0.387537
0.388065
0.388593
0.389123
0.389654
0.390187
0.39072
0.391254
0.39179
0.392326
0.392864
0.393403
0.393943
0.394484
0.395026
0.39557
0.396115
0.396661
0.397209
0.397757
0.398307
0.398859
0.399411
0.399965
0.400521
0.401077
0.401636
0.402195
0.402756
0.403318
0.403882
0.404448
0.405014
0.405583
0.406152
0.406724
0.407296
0.407871
0.408447
0.409024
0.409604
0.410184
0.410767
0.411351
0.411936
0.412524
0.413113
0.413703
0.414295
0.414889
0.415485
0.416082
0.41668
0.417281
0.417883
0.418487
0.419092
0.419698
0.420306
0.420916
0.421527
0.42214
0.422753
0.423368
0.423984
0.424601
0.425219
0.425837
0.426456
0.427075
0.427695
0.428314
0.428932
0.429549
0.430165
0.430779
0.431391
0.431999
0.432603
0.433203
0.433797
0.434384
0.434962
0.435532
0.436091
0.436639
0.437172
0.437691
0.438194
0.438678
0.439142
0.439585
0.440007
0.440405
0.440778
0.441126
0.441449
0.441745
0.442017
0.442263
0.442485
0.442683
0.442859
0.443013
0.443149
0.443266
0.443367
0.443453
0.443526
0.443587
0.443639
0.443683
0.443722
0.443756
0.44379
0.443827
0.443875
0.443948
0.444067
0.444272
0.444631
0.445269
0.446404
0.448414
0.451934
0.457978
0.467995
0.483658
0.506037
0.534152
0.564136
0.5908
0.610752
0.623731
0.631382
0.635624
0.637894
0.639086
0.639705
0.640026
0.640191
0.640277
0.640321
0.640345
0.640357
0.640364
0.640368
0.64037
0.640372
0.640373
0.640374
0.640375
0.640376
0.640377
0.640378
0.640379
0.64038
0.640382
0.640383
0.640384
0.640385
0.640386
0.640387
0.640389
0.64039
0.640391
0.640392
0.640394
0.640395
0.640396
0.640397
0.640399
0.6404
0.640401
0.640403
0.640404
0.640405
0.640406
0.640408
0.640409
0.64041
0.640411
0.640412
0.640413
0.640414
0.640415
0.640416
0.640417
0.640418
0.640419
0.64042
0.640421
0.640422
0.640423
0.640423
0.640424
0.640425
0.640426
0.640426
0.640427
0.640427
0.640428
0.640428
0.640429
0.640429
0.640429
0.640429
0.64043
0.64043
0.64043
0.64043
0.64043
0.64043
0.64043
0.64043
0.64043
0.64043
0.64043
0.64043
0.64043
0.64043
0.64043
0.640429
0.640429
0.640429
0.640428
0.640428
0.640428
0.640427
0.640427
0.640426
0.640425
0.640425
0.640424
0.640424
0.640423
0.640422
0.640421
0.640421
0.64042
0.640419
0.640418
0.640417
0.640416
0.640415
0.640413
0.640412
0.640411
0.640409
0.640408
0.640406
0.640404
0.640403
0.640401
0.640399
0.640397
0.640395
0.640392
0.64039
0.640388
0.640385
0.640382
0.64038
0.640377
0.640374
0.640371
0.640368
0.640365
0.640361
0.640358
0.640355
0.640351
0.640348
0.640345
0.640341
0.640338
0.640334
0.640331
0.640327
0.640324
0.640321
0.640317
0.640314
0.640311
0.640309
0.640306
0.640303
0.640301
0.640299
0.640297
0.640295
0.640293
0.640292
0.640291
0.64029
0.640289
0.640289
0.640289
0.640289
0.640289
0.640289
0.640289
0.640291
0.640291
0.640293
)
;

boundaryField
{
    inlet
    {
        type            calculated;
        value           uniform 3.08149e-33;
    }
    outlet
    {
        type            calculated;
        value           uniform 0.640293;
    }
    emptyWalls
    {
        type            empty;
    }
}


// ************************************************************************* //
