/*--------------------------------*- C++ -*----------------------------------*\
  =========                 |
  \\      /  F ield         | OpenFOAM: The Open Source CFD Toolbox
   \\    /   O peration     | Website:  https://openfoam.org
    \\  /    A nd           | Version:  9
     \\/     M anipulation  |
\*---------------------------------------------------------------------------*/
FoamFile
{
    format      ascii;
    class       surfaceScalarField;
    location    "20500";
    object      phib;
}
// * * * * * * * * * * * * * * * * * * * * * * * * * * * * * * * * * * * * * //

dimensions      [0 2 0 0 0 0 0];

internalField   nonuniform List<scalar> 
999
(
1.1362e-09
1.13623e-09
1.13622e-09
1.13624e-09
1.13626e-09
1.13627e-09
1.13631e-09
1.13631e-09
1.13636e-09
1.13637e-09
1.13641e-09
1.13645e-09
1.13649e-09
1.13654e-09
1.13659e-09
1.13664e-09
1.13669e-09
1.13673e-09
1.13679e-09
1.13682e-09
1.13688e-09
1.13688e-09
1.13693e-09
1.13695e-09
1.13697e-09
1.13709e-09
1.13742e-09
1.13881e-09
1.14824e-09
1.17204e-09
1.17611e-09
1.17719e-09
1.17764e-09
1.1779e-09
1.17796e-09
1.1777e-09
1.17711e-09
1.17637e-09
1.17576e-09
1.17547e-09
1.17551e-09
1.17572e-09
1.17596e-09
1.17632e-09
1.17711e-09
1.17791e-09
1.1786e-09
1.17916e-09
1.17957e-09
1.17985e-09
1.18e-09
1.18006e-09
1.18007e-09
1.18e-09
1.17992e-09
1.17987e-09
1.17982e-09
1.17977e-09
1.17975e-09
1.17975e-09
1.17976e-09
1.17977e-09
1.17979e-09
1.1798e-09
1.17982e-09
1.17982e-09
1.17983e-09
1.17982e-09
1.17981e-09
1.17979e-09
1.17976e-09
1.17972e-09
1.17966e-09
1.17959e-09
1.17949e-09
1.17938e-09
1.17923e-09
1.17904e-09
1.17881e-09
1.17853e-09
1.17821e-09
1.17786e-09
1.17749e-09
1.1771e-09
1.1767e-09
1.1763e-09
1.17588e-09
1.17545e-09
1.17502e-09
1.17458e-09
1.17414e-09
1.17369e-09
1.17324e-09
1.17279e-09
1.17233e-09
1.17187e-09
1.1714e-09
1.17094e-09
1.17046e-09
1.16999e-09
1.16951e-09
1.16903e-09
1.16854e-09
1.16805e-09
1.16756e-09
1.16706e-09
1.16657e-09
1.16607e-09
1.16557e-09
1.16507e-09
1.16457e-09
1.16407e-09
1.16357e-09
1.16306e-09
1.16256e-09
1.16205e-09
1.16154e-09
1.16102e-09
1.1605e-09
1.15998e-09
1.15946e-09
1.15894e-09
1.15842e-09
1.1579e-09
1.15738e-09
1.15687e-09
1.15636e-09
1.15584e-09
1.15532e-09
1.15479e-09
1.15423e-09
1.15366e-09
1.15306e-09
1.15243e-09
1.15177e-09
1.15109e-09
1.15038e-09
1.14966e-09
1.14892e-09
1.14817e-09
1.14742e-09
1.14666e-09
1.14591e-09
1.14518e-09
1.14446e-09
1.14377e-09
1.14311e-09
1.14248e-09
1.1419e-09
1.14136e-09
1.14087e-09
1.14043e-09
1.14003e-09
1.13966e-09
1.13933e-09
1.13901e-09
1.13872e-09
1.13842e-09
1.13813e-09
1.13782e-09
1.1375e-09
1.13716e-09
1.13679e-09
1.1364e-09
1.13599e-09
1.13555e-09
1.13509e-09
1.1346e-09
1.13411e-09
1.13359e-09
1.13307e-09
1.13253e-09
1.132e-09
1.13145e-09
1.13091e-09
1.13037e-09
1.12982e-09
1.12928e-09
1.12874e-09
1.12821e-09
1.12768e-09
1.12715e-09
1.12662e-09
1.1261e-09
1.12558e-09
1.12505e-09
1.12454e-09
1.12402e-09
1.1235e-09
1.12298e-09
1.12246e-09
1.12194e-09
1.12143e-09
1.12091e-09
1.12039e-09
1.11986e-09
1.11934e-09
1.11882e-09
1.11829e-09
1.11777e-09
1.11724e-09
1.11671e-09
1.11618e-09
1.11565e-09
1.11512e-09
1.11458e-09
1.11405e-09
1.11351e-09
1.11297e-09
1.11243e-09
1.11189e-09
1.11134e-09
1.1108e-09
1.11025e-09
1.1097e-09
1.10915e-09
1.1086e-09
1.10805e-09
1.1075e-09
1.10694e-09
1.10638e-09
1.10582e-09
1.10526e-09
1.1047e-09
1.10414e-09
1.10357e-09
1.103e-09
1.10243e-09
1.10186e-09
1.10129e-09
1.10072e-09
1.10014e-09
1.09957e-09
1.09899e-09
1.09841e-09
1.09783e-09
1.09725e-09
1.09667e-09
1.09609e-09
1.09551e-09
1.09492e-09
1.09434e-09
1.09375e-09
1.09316e-09
1.09258e-09
1.09199e-09
1.0914e-09
1.09081e-09
1.09022e-09
1.08962e-09
1.08903e-09
1.08844e-09
1.08785e-09
1.08726e-09
1.08667e-09
1.08607e-09
1.08547e-09
1.08487e-09
1.08427e-09
1.08365e-09
1.08303e-09
1.0824e-09
1.08176e-09
1.08111e-09
1.08045e-09
1.07978e-09
1.07909e-09
1.0784e-09
1.07769e-09
1.07698e-09
1.07626e-09
1.07553e-09
1.07479e-09
1.07405e-09
1.07331e-09
1.07257e-09
1.07184e-09
1.07111e-09
1.0704e-09
1.06969e-09
1.069e-09
1.06833e-09
1.06768e-09
1.06704e-09
1.06643e-09
1.06584e-09
1.06527e-09
1.06473e-09
1.0642e-09
1.06368e-09
1.06319e-09
1.0627e-09
1.06223e-09
1.06176e-09
1.0613e-09
1.06083e-09
1.06037e-09
1.0599e-09
1.05942e-09
1.05894e-09
1.05844e-09
1.05794e-09
1.05742e-09
1.0569e-09
1.05636e-09
1.05581e-09
1.05526e-09
1.05469e-09
1.05412e-09
1.05354e-09
1.05295e-09
1.05236e-09
1.05177e-09
1.05117e-09
1.05057e-09
1.04997e-09
1.04937e-09
1.04876e-09
1.04816e-09
1.04756e-09
1.04695e-09
1.04635e-09
1.04575e-09
1.04515e-09
1.04455e-09
1.04395e-09
1.04335e-09
1.04275e-09
1.04215e-09
1.04155e-09
1.04096e-09
1.04036e-09
1.03976e-09
1.03916e-09
1.03856e-09
1.03797e-09
1.03737e-09
1.03677e-09
1.03617e-09
1.03556e-09
1.03496e-09
1.03436e-09
1.03375e-09
1.03315e-09
1.03254e-09
1.03193e-09
1.03132e-09
1.03071e-09
1.0301e-09
1.02949e-09
1.02888e-09
1.02826e-09
1.02765e-09
1.02703e-09
1.02641e-09
1.02579e-09
1.02517e-09
1.02455e-09
1.02393e-09
1.0233e-09
1.02267e-09
1.02205e-09
1.02142e-09
1.02079e-09
1.02016e-09
1.01953e-09
1.01889e-09
1.01826e-09
1.01762e-09
1.01698e-09
1.01634e-09
1.0157e-09
1.01506e-09
1.01442e-09
1.01377e-09
1.01313e-09
1.01248e-09
1.01183e-09
1.01118e-09
1.01053e-09
1.00988e-09
1.00923e-09
1.00858e-09
1.00792e-09
1.00727e-09
1.00661e-09
1.00595e-09
1.0053e-09
1.00464e-09
1.00398e-09
1.00332e-09
1.00266e-09
1.00199e-09
1.00133e-09
1.00067e-09
1e-09
9.99337e-10
9.98671e-10
9.98003e-10
9.97335e-10
9.96665e-10
9.95993e-10
9.95319e-10
9.94643e-10
9.93963e-10
9.93281e-10
9.92594e-10
9.91904e-10
9.91208e-10
9.90508e-10
9.89802e-10
9.89091e-10
9.88373e-10
9.87649e-10
9.86919e-10
9.86183e-10
9.85441e-10
9.84693e-10
9.8394e-10
9.83182e-10
9.8242e-10
9.81654e-10
9.80885e-10
9.80114e-10
9.79343e-10
9.78572e-10
9.77802e-10
9.77035e-10
9.76271e-10
9.75512e-10
9.7476e-10
9.74014e-10
9.73276e-10
9.72548e-10
9.71829e-10
9.7112e-10
9.70422e-10
9.69735e-10
9.69059e-10
9.68394e-10
9.67739e-10
9.67094e-10
9.66459e-10
9.65831e-10
9.6521e-10
9.64595e-10
9.63985e-10
9.63378e-10
9.62774e-10
9.6217e-10
9.61566e-10
9.6096e-10
9.60352e-10
9.59741e-10
9.59126e-10
9.58506e-10
9.5788e-10
9.5725e-10
9.56613e-10
9.55971e-10
9.55324e-10
9.5467e-10
9.54011e-10
9.53347e-10
9.52679e-10
9.52005e-10
9.51328e-10
9.50647e-10
9.49963e-10
9.49276e-10
9.48587e-10
9.47895e-10
9.47201e-10
9.46506e-10
9.4581e-10
9.45113e-10
9.44414e-10
9.43715e-10
9.43016e-10
9.42316e-10
9.41615e-10
9.40914e-10
9.40213e-10
9.39512e-10
9.3881e-10
9.38108e-10
9.37406e-10
9.36703e-10
9.36e-10
9.35296e-10
9.34591e-10
9.33886e-10
9.3318e-10
9.32474e-10
9.31766e-10
9.31058e-10
9.30349e-10
9.29639e-10
9.28928e-10
9.28215e-10
9.27502e-10
9.26787e-10
9.26072e-10
9.25355e-10
9.24636e-10
9.23917e-10
9.23196e-10
9.22474e-10
9.2175e-10
9.21025e-10
9.20299e-10
9.19572e-10
9.18842e-10
9.18112e-10
9.1738e-10
9.16647e-10
9.15912e-10
9.15175e-10
9.14438e-10
9.13698e-10
9.12957e-10
9.12215e-10
9.11471e-10
9.10726e-10
9.09979e-10
9.09231e-10
9.08481e-10
9.07729e-10
9.06976e-10
9.06221e-10
9.05465e-10
9.04707e-10
9.03948e-10
9.03187e-10
9.02425e-10
9.01661e-10
9.00896e-10
9.00129e-10
8.99361e-10
8.98591e-10
8.9782e-10
8.97047e-10
8.96273e-10
8.95498e-10
8.94721e-10
8.93942e-10
8.93162e-10
8.92381e-10
8.91599e-10
8.90815e-10
8.9003e-10
8.89243e-10
8.88455e-10
8.87666e-10
8.86875e-10
8.86083e-10
8.85289e-10
8.84494e-10
8.83698e-10
8.82899e-10
8.82099e-10
8.81298e-10
8.80494e-10
8.79688e-10
8.7888e-10
8.78069e-10
8.77256e-10
8.7644e-10
8.75621e-10
8.74798e-10
8.73973e-10
8.73144e-10
8.72311e-10
8.71474e-10
8.70633e-10
8.69789e-10
8.6894e-10
8.68086e-10
8.67229e-10
8.66367e-10
8.65502e-10
8.64632e-10
8.63759e-10
8.62882e-10
8.62001e-10
8.61118e-10
8.60232e-10
8.59343e-10
8.58453e-10
8.57561e-10
8.56669e-10
8.55776e-10
8.54883e-10
8.5399e-10
8.53099e-10
8.52209e-10
8.51322e-10
8.50437e-10
8.49556e-10
8.48678e-10
8.47804e-10
8.46935e-10
8.4607e-10
8.4521e-10
8.44355e-10
8.43505e-10
8.4266e-10
8.4182e-10
8.40984e-10
8.40153e-10
8.39326e-10
8.38503e-10
8.37684e-10
8.36867e-10
8.36052e-10
8.35239e-10
8.34427e-10
8.33615e-10
8.32804e-10
8.31991e-10
8.31177e-10
8.30362e-10
8.29544e-10
8.28723e-10
8.27899e-10
8.27072e-10
8.26241e-10
8.25406e-10
8.24567e-10
8.23724e-10
8.22877e-10
8.22025e-10
8.21169e-10
8.20308e-10
8.19444e-10
8.18575e-10
8.17702e-10
8.16826e-10
8.15946e-10
8.15062e-10
8.14175e-10
8.13285e-10
8.12392e-10
8.11496e-10
8.10598e-10
8.09696e-10
8.08792e-10
8.07886e-10
8.06978e-10
8.06067e-10
8.05154e-10
8.0424e-10
8.03323e-10
8.02404e-10
8.01483e-10
8.0056e-10
7.99636e-10
7.98709e-10
7.9778e-10
7.9685e-10
7.95917e-10
7.94982e-10
7.94045e-10
7.93106e-10
7.92165e-10
7.91222e-10
7.90277e-10
7.89329e-10
7.88379e-10
7.87426e-10
7.86471e-10
7.85514e-10
7.84554e-10
7.83591e-10
7.82626e-10
7.81658e-10
7.80688e-10
7.79715e-10
7.78739e-10
7.77761e-10
7.76779e-10
7.75795e-10
7.74808e-10
7.73818e-10
7.72825e-10
7.71829e-10
7.7083e-10
7.69828e-10
7.68823e-10
7.67815e-10
7.66804e-10
7.65789e-10
7.64772e-10
7.63751e-10
7.62727e-10
7.617e-10
7.6067e-10
7.59636e-10
7.58599e-10
7.57558e-10
7.56514e-10
7.55467e-10
7.54417e-10
7.53363e-10
7.52305e-10
7.51244e-10
7.5018e-10
7.49112e-10
7.4804e-10
7.46965e-10
7.45886e-10
7.44804e-10
7.43718e-10
7.42628e-10
7.41535e-10
7.40437e-10
7.39336e-10
7.38232e-10
7.37123e-10
7.36011e-10
7.34895e-10
7.33775e-10
7.32651e-10
7.31524e-10
7.30392e-10
7.29256e-10
7.28116e-10
7.26973e-10
7.25825e-10
7.24673e-10
7.23517e-10
7.22357e-10
7.21192e-10
7.20024e-10
7.1885e-10
7.17673e-10
7.16491e-10
7.15304e-10
7.14113e-10
7.12917e-10
7.11716e-10
7.1051e-10
7.09299e-10
7.08083e-10
7.06863e-10
7.05636e-10
7.04405e-10
7.03168e-10
7.01926e-10
7.00678e-10
6.99425e-10
6.98167e-10
6.96903e-10
6.95634e-10
6.94359e-10
6.9308e-10
6.91795e-10
6.90505e-10
6.89211e-10
6.87913e-10
6.8661e-10
6.85304e-10
6.83994e-10
6.82683e-10
6.81369e-10
6.80054e-10
6.78738e-10
6.77423e-10
6.7611e-10
6.74799e-10
6.73493e-10
6.72193e-10
6.709e-10
6.69616e-10
6.68344e-10
6.67086e-10
6.65844e-10
6.64622e-10
6.63422e-10
6.62247e-10
6.611e-10
6.59986e-10
6.58906e-10
6.57866e-10
6.56868e-10
6.55915e-10
6.5501e-10
6.54156e-10
6.53355e-10
6.52608e-10
6.51918e-10
6.51285e-10
6.50708e-10
6.50187e-10
6.49719e-10
6.49305e-10
6.48942e-10
6.48626e-10
6.48355e-10
6.48124e-10
6.47931e-10
6.47771e-10
6.47642e-10
6.47539e-10
6.47459e-10
6.47397e-10
6.47349e-10
6.47311e-10
6.47278e-10
6.47241e-10
6.47188e-10
6.47098e-10
6.46932e-10
6.46629e-10
6.46074e-10
6.45067e-10
6.43253e-10
6.40009e-10
6.34276e-10
6.24326e-10
6.07566e-10
5.80693e-10
5.40838e-10
4.88167e-10
4.28467e-10
3.71925e-10
3.27208e-10
2.96889e-10
2.78522e-10
2.68176e-10
2.62591e-10
2.59648e-10
2.58117e-10
2.57327e-10
2.56921e-10
2.56714e-10
2.56609e-10
2.56556e-10
2.56531e-10
2.56519e-10
2.56515e-10
2.56514e-10
2.56515e-10
2.56516e-10
2.56519e-10
2.56521e-10
2.56524e-10
2.56526e-10
2.56529e-10
2.56532e-10
2.56534e-10
2.56537e-10
2.5654e-10
2.56542e-10
2.56545e-10
2.56547e-10
2.5655e-10
2.56552e-10
2.56554e-10
2.56557e-10
2.56559e-10
2.56561e-10
2.56563e-10
2.56565e-10
2.56567e-10
2.56569e-10
2.56571e-10
2.56573e-10
2.56575e-10
2.56577e-10
2.56579e-10
2.5658e-10
2.56582e-10
2.56584e-10
2.56585e-10
2.56586e-10
2.56588e-10
2.56589e-10
2.5659e-10
2.56592e-10
2.56593e-10
2.56594e-10
2.56595e-10
2.56596e-10
2.56597e-10
2.56598e-10
2.56598e-10
2.56599e-10
2.566e-10
2.566e-10
2.56601e-10
2.56601e-10
2.56602e-10
2.56602e-10
2.56602e-10
2.56602e-10
2.56603e-10
2.56603e-10
2.56603e-10
2.56603e-10
2.56602e-10
2.56602e-10
2.56602e-10
2.56602e-10
2.56601e-10
2.56601e-10
2.56601e-10
2.566e-10
2.56599e-10
2.56599e-10
2.56598e-10
2.56597e-10
2.56596e-10
2.56596e-10
2.56595e-10
2.56594e-10
2.56593e-10
2.56591e-10
2.5659e-10
2.56589e-10
2.56588e-10
2.56586e-10
2.56585e-10
2.56583e-10
2.56582e-10
2.5658e-10
2.56579e-10
2.56577e-10
2.56575e-10
2.56573e-10
2.56571e-10
2.56569e-10
2.56566e-10
2.56564e-10
2.56561e-10
2.56559e-10
2.56556e-10
2.56552e-10
2.56549e-10
2.56546e-10
2.56542e-10
2.56538e-10
2.56534e-10
2.56529e-10
2.56524e-10
2.56519e-10
2.56514e-10
2.56508e-10
2.56502e-10
2.56496e-10
2.56489e-10
2.56482e-10
2.56475e-10
2.56467e-10
2.56459e-10
2.5645e-10
2.56441e-10
2.56432e-10
2.56422e-10
2.56412e-10
2.56402e-10
2.56391e-10
2.5638e-10
2.56369e-10
2.56358e-10
2.56346e-10
2.56334e-10
2.56322e-10
2.5631e-10
2.56298e-10
2.56286e-10
2.56274e-10
2.56262e-10
2.5625e-10
2.56239e-10
2.56227e-10
2.56216e-10
2.56206e-10
2.56195e-10
2.56185e-10
2.56176e-10
2.56167e-10
2.56159e-10
2.56152e-10
2.56145e-10
2.56139e-10
2.56133e-10
2.56129e-10
2.56125e-10
2.56122e-10
2.5612e-10
2.56119e-10
2.56119e-10
2.56119e-10
2.5612e-10
2.56121e-10
2.56123e-10
2.56127e-10
2.56131e-10
)
;

boundaryField
{
    inlet
    {
        type            calculated;
        value           uniform -1.13622e-09;
    }
    outlet
    {
        type            calculated;
        value           uniform 2.56136e-10;
    }
    emptyWalls
    {
        type            empty;
        value           nonuniform List<scalar> 0();
    }
}


// ************************************************************************* //
