/*--------------------------------*- C++ -*----------------------------------*\
  =========                 |
  \\      /  F ield         | OpenFOAM: The Open Source CFD Toolbox
   \\    /   O peration     | Website:  https://openfoam.org
    \\  /    A nd           | Version:  9
     \\/     M anipulation  |
\*---------------------------------------------------------------------------*/
FoamFile
{
    format      ascii;
    class       volVectorField;
    location    "20500";
    object      Uc;
}
// * * * * * * * * * * * * * * * * * * * * * * * * * * * * * * * * * * * * * //

dimensions      [0 0 0 0 0 0 0];

internalField   nonuniform List<vector> 
1000
(
(6.33484e-12 0 0)
(3.30265e-11 0 0)
(9.19526e-11 0 0)
(1.86227e-10 0 0)
(3.14399e-10 0 0)
(4.76003e-10 0 0)
(6.70884e-10 0 0)
(8.98974e-10 0 0)
(1.15996e-09 0 0)
(1.4532e-09 0 0)
(1.77743e-09 0 0)
(2.1305e-09 0 0)
(2.50931e-09 0 0)
(2.90942e-09 0 0)
(3.32505e-09 0 0)
(3.74912e-09 0 0)
(4.17345e-09 0 0)
(4.58944e-09 0 0)
(4.98867e-09 0 0)
(5.36399e-09 0 0)
(5.70988e-09 0 0)
(6.02366e-09 0 0)
(6.30622e-09 0 0)
(6.56829e-09 0 0)
(6.86289e-09 0 0)
(7.43742e-09 0 0)
(9.34018e-09 0 0)
(1.6541e-08 0 0)
(5.34174e-08 0 0)
(1.36484e-07 0 0)
(1.98264e-07 0 0)
(2.11419e-07 0 0)
(2.16417e-07 0 0)
(2.19318e-07 0 0)
(2.21413e-07 0 0)
(2.23106e-07 0 0)
(2.24553e-07 0 0)
(2.25838e-07 0 0)
(2.27025e-07 0 0)
(2.28164e-07 0 0)
(2.29283e-07 0 0)
(2.30388e-07 0 0)
(2.31469e-07 0 0)
(2.32526e-07 0 0)
(2.33597e-07 0 0)
(2.34677e-07 0 0)
(2.35729e-07 0 0)
(2.36752e-07 0 0)
(2.37744e-07 0 0)
(2.38706e-07 0 0)
(2.39643e-07 0 0)
(2.40558e-07 0 0)
(2.41458e-07 0 0)
(2.42346e-07 0 0)
(2.43227e-07 0 0)
(2.44111e-07 0 0)
(2.45002e-07 0 0)
(2.45899e-07 0 0)
(2.46808e-07 0 0)
(2.47733e-07 0 0)
(2.48684e-07 0 0)
(2.49665e-07 0 0)
(2.50669e-07 0 0)
(2.51696e-07 0 0)
(2.52745e-07 0 0)
(2.53821e-07 0 0)
(2.54925e-07 0 0)
(2.56063e-07 0 0)
(2.57238e-07 0 0)
(2.58458e-07 0 0)
(2.59731e-07 0 0)
(2.61069e-07 0 0)
(2.62489e-07 0 0)
(2.64013e-07 0 0)
(2.65674e-07 0 0)
(2.67514e-07 0 0)
(2.69585e-07 0 0)
(2.71947e-07 0 0)
(2.74653e-07 0 0)
(2.77732e-07 0 0)
(2.81174e-07 0 0)
(2.84929e-07 0 0)
(2.88925e-07 0 0)
(2.93101e-07 0 0)
(2.97412e-07 0 0)
(3.01826e-07 0 0)
(3.06322e-07 0 0)
(3.10883e-07 0 0)
(3.15498e-07 0 0)
(3.20158e-07 0 0)
(3.24856e-07 0 0)
(3.29588e-07 0 0)
(3.3435e-07 0 0)
(3.39138e-07 0 0)
(3.4395e-07 0 0)
(3.48784e-07 0 0)
(3.53639e-07 0 0)
(3.58512e-07 0 0)
(3.63404e-07 0 0)
(3.68312e-07 0 0)
(3.73235e-07 0 0)
(3.78174e-07 0 0)
(3.83127e-07 0 0)
(3.88094e-07 0 0)
(3.93074e-07 0 0)
(3.98067e-07 0 0)
(4.03072e-07 0 0)
(4.0809e-07 0 0)
(4.13121e-07 0 0)
(4.18163e-07 0 0)
(4.23217e-07 0 0)
(4.28283e-07 0 0)
(4.3336e-07 0 0)
(4.38448e-07 0 0)
(4.43546e-07 0 0)
(4.48654e-07 0 0)
(4.53772e-07 0 0)
(4.58899e-07 0 0)
(4.64035e-07 0 0)
(4.69181e-07 0 0)
(4.74336e-07 0 0)
(4.79501e-07 0 0)
(4.84675e-07 0 0)
(4.8986e-07 0 0)
(4.95054e-07 0 0)
(5.00258e-07 0 0)
(5.05472e-07 0 0)
(5.10695e-07 0 0)
(5.15925e-07 0 0)
(5.21161e-07 0 0)
(5.26401e-07 0 0)
(5.31642e-07 0 0)
(5.36882e-07 0 0)
(5.42121e-07 0 0)
(5.47358e-07 0 0)
(5.52592e-07 0 0)
(5.57825e-07 0 0)
(5.63057e-07 0 0)
(5.68289e-07 0 0)
(5.73523e-07 0 0)
(5.7876e-07 0 0)
(5.84003e-07 0 0)
(5.89252e-07 0 0)
(5.94511e-07 0 0)
(5.99782e-07 0 0)
(6.05068e-07 0 0)
(6.10371e-07 0 0)
(6.15695e-07 0 0)
(6.21041e-07 0 0)
(6.26412e-07 0 0)
(6.3181e-07 0 0)
(6.37234e-07 0 0)
(6.42685e-07 0 0)
(6.4816e-07 0 0)
(6.53659e-07 0 0)
(6.59178e-07 0 0)
(6.64713e-07 0 0)
(6.70261e-07 0 0)
(6.75818e-07 0 0)
(6.81381e-07 0 0)
(6.86947e-07 0 0)
(6.92514e-07 0 0)
(6.98078e-07 0 0)
(7.0364e-07 0 0)
(7.09198e-07 0 0)
(7.14752e-07 0 0)
(7.20302e-07 0 0)
(7.25849e-07 0 0)
(7.31394e-07 0 0)
(7.36938e-07 0 0)
(7.42483e-07 0 0)
(7.48029e-07 0 0)
(7.53578e-07 0 0)
(7.59131e-07 0 0)
(7.64689e-07 0 0)
(7.70253e-07 0 0)
(7.75824e-07 0 0)
(7.81401e-07 0 0)
(7.86986e-07 0 0)
(7.92579e-07 0 0)
(7.9818e-07 0 0)
(8.03788e-07 0 0)
(8.09405e-07 0 0)
(8.15029e-07 0 0)
(8.2066e-07 0 0)
(8.26298e-07 0 0)
(8.31944e-07 0 0)
(8.37596e-07 0 0)
(8.43255e-07 0 0)
(8.48921e-07 0 0)
(8.54593e-07 0 0)
(8.6027e-07 0 0)
(8.65954e-07 0 0)
(8.71643e-07 0 0)
(8.77338e-07 0 0)
(8.83039e-07 0 0)
(8.88745e-07 0 0)
(8.94456e-07 0 0)
(9.00173e-07 0 0)
(9.05895e-07 0 0)
(9.11623e-07 0 0)
(9.17355e-07 0 0)
(9.23092e-07 0 0)
(9.28835e-07 0 0)
(9.34583e-07 0 0)
(9.40335e-07 0 0)
(9.46093e-07 0 0)
(9.51855e-07 0 0)
(9.57622e-07 0 0)
(9.63394e-07 0 0)
(9.69171e-07 0 0)
(9.74953e-07 0 0)
(9.80739e-07 0 0)
(9.8653e-07 0 0)
(9.92326e-07 0 0)
(9.98126e-07 0 0)
(1.00393e-06 0 0)
(1.00974e-06 0 0)
(1.01555e-06 0 0)
(1.02137e-06 0 0)
(1.0272e-06 0 0)
(1.03302e-06 0 0)
(1.03886e-06 0 0)
(1.04469e-06 0 0)
(1.05053e-06 0 0)
(1.05638e-06 0 0)
(1.06223e-06 0 0)
(1.06808e-06 0 0)
(1.07394e-06 0 0)
(1.0798e-06 0 0)
(1.08567e-06 0 0)
(1.09154e-06 0 0)
(1.09741e-06 0 0)
(1.10329e-06 0 0)
(1.10917e-06 0 0)
(1.11506e-06 0 0)
(1.12096e-06 0 0)
(1.12685e-06 0 0)
(1.13276e-06 0 0)
(1.13866e-06 0 0)
(1.14458e-06 0 0)
(1.15049e-06 0 0)
(1.15641e-06 0 0)
(1.16234e-06 0 0)
(1.16827e-06 0 0)
(1.1742e-06 0 0)
(1.18014e-06 0 0)
(1.18608e-06 0 0)
(1.19203e-06 0 0)
(1.19799e-06 0 0)
(1.20394e-06 0 0)
(1.20991e-06 0 0)
(1.21588e-06 0 0)
(1.22185e-06 0 0)
(1.22783e-06 0 0)
(1.23381e-06 0 0)
(1.2398e-06 0 0)
(1.24578e-06 0 0)
(1.25177e-06 0 0)
(1.25776e-06 0 0)
(1.26375e-06 0 0)
(1.26973e-06 0 0)
(1.27571e-06 0 0)
(1.28169e-06 0 0)
(1.28766e-06 0 0)
(1.29363e-06 0 0)
(1.29959e-06 0 0)
(1.30555e-06 0 0)
(1.31149e-06 0 0)
(1.31744e-06 0 0)
(1.32338e-06 0 0)
(1.32931e-06 0 0)
(1.33525e-06 0 0)
(1.34118e-06 0 0)
(1.34712e-06 0 0)
(1.35306e-06 0 0)
(1.359e-06 0 0)
(1.36496e-06 0 0)
(1.37093e-06 0 0)
(1.37691e-06 0 0)
(1.38291e-06 0 0)
(1.38893e-06 0 0)
(1.39498e-06 0 0)
(1.40105e-06 0 0)
(1.40714e-06 0 0)
(1.41326e-06 0 0)
(1.41941e-06 0 0)
(1.42559e-06 0 0)
(1.4318e-06 0 0)
(1.43803e-06 0 0)
(1.44428e-06 0 0)
(1.45055e-06 0 0)
(1.45684e-06 0 0)
(1.46315e-06 0 0)
(1.46947e-06 0 0)
(1.4758e-06 0 0)
(1.48214e-06 0 0)
(1.48847e-06 0 0)
(1.49481e-06 0 0)
(1.50115e-06 0 0)
(1.50749e-06 0 0)
(1.51382e-06 0 0)
(1.52015e-06 0 0)
(1.52647e-06 0 0)
(1.53279e-06 0 0)
(1.5391e-06 0 0)
(1.5454e-06 0 0)
(1.55171e-06 0 0)
(1.558e-06 0 0)
(1.5643e-06 0 0)
(1.5706e-06 0 0)
(1.57689e-06 0 0)
(1.58318e-06 0 0)
(1.58948e-06 0 0)
(1.59578e-06 0 0)
(1.60208e-06 0 0)
(1.60839e-06 0 0)
(1.6147e-06 0 0)
(1.62102e-06 0 0)
(1.62734e-06 0 0)
(1.63367e-06 0 0)
(1.64001e-06 0 0)
(1.64635e-06 0 0)
(1.6527e-06 0 0)
(1.65906e-06 0 0)
(1.66542e-06 0 0)
(1.67179e-06 0 0)
(1.67817e-06 0 0)
(1.68455e-06 0 0)
(1.69094e-06 0 0)
(1.69734e-06 0 0)
(1.70374e-06 0 0)
(1.71015e-06 0 0)
(1.71657e-06 0 0)
(1.72299e-06 0 0)
(1.72941e-06 0 0)
(1.73584e-06 0 0)
(1.74228e-06 0 0)
(1.74872e-06 0 0)
(1.75517e-06 0 0)
(1.76163e-06 0 0)
(1.76808e-06 0 0)
(1.77455e-06 0 0)
(1.78102e-06 0 0)
(1.78749e-06 0 0)
(1.79397e-06 0 0)
(1.80045e-06 0 0)
(1.80694e-06 0 0)
(1.81343e-06 0 0)
(1.81993e-06 0 0)
(1.82643e-06 0 0)
(1.83294e-06 0 0)
(1.83945e-06 0 0)
(1.84596e-06 0 0)
(1.85249e-06 0 0)
(1.85901e-06 0 0)
(1.86554e-06 0 0)
(1.87208e-06 0 0)
(1.87862e-06 0 0)
(1.88516e-06 0 0)
(1.89171e-06 0 0)
(1.89826e-06 0 0)
(1.90482e-06 0 0)
(1.91138e-06 0 0)
(1.91795e-06 0 0)
(1.92452e-06 0 0)
(1.9311e-06 0 0)
(1.93768e-06 0 0)
(1.94427e-06 0 0)
(1.95086e-06 0 0)
(1.95745e-06 0 0)
(1.96405e-06 0 0)
(1.97066e-06 0 0)
(1.97726e-06 0 0)
(1.98388e-06 0 0)
(1.9905e-06 0 0)
(1.99712e-06 0 0)
(2.00375e-06 0 0)
(2.01038e-06 0 0)
(2.01702e-06 0 0)
(2.02366e-06 0 0)
(2.03031e-06 0 0)
(2.03696e-06 0 0)
(2.04362e-06 0 0)
(2.05028e-06 0 0)
(2.05695e-06 0 0)
(2.06362e-06 0 0)
(2.0703e-06 0 0)
(2.07698e-06 0 0)
(2.08367e-06 0 0)
(2.09037e-06 0 0)
(2.09707e-06 0 0)
(2.10377e-06 0 0)
(2.11048e-06 0 0)
(2.1172e-06 0 0)
(2.12393e-06 0 0)
(2.13065e-06 0 0)
(2.13739e-06 0 0)
(2.14413e-06 0 0)
(2.15087e-06 0 0)
(2.15762e-06 0 0)
(2.16437e-06 0 0)
(2.17113e-06 0 0)
(2.17789e-06 0 0)
(2.18465e-06 0 0)
(2.19142e-06 0 0)
(2.19818e-06 0 0)
(2.20495e-06 0 0)
(2.21171e-06 0 0)
(2.21848e-06 0 0)
(2.22524e-06 0 0)
(2.23199e-06 0 0)
(2.23875e-06 0 0)
(2.2455e-06 0 0)
(2.25224e-06 0 0)
(2.25898e-06 0 0)
(2.26572e-06 0 0)
(2.27245e-06 0 0)
(2.27918e-06 0 0)
(2.2859e-06 0 0)
(2.29262e-06 0 0)
(2.29935e-06 0 0)
(2.30607e-06 0 0)
(2.31279e-06 0 0)
(2.31952e-06 0 0)
(2.32626e-06 0 0)
(2.333e-06 0 0)
(2.33975e-06 0 0)
(2.34652e-06 0 0)
(2.35329e-06 0 0)
(2.36009e-06 0 0)
(2.36691e-06 0 0)
(2.37374e-06 0 0)
(2.38061e-06 0 0)
(2.38749e-06 0 0)
(2.3944e-06 0 0)
(2.40135e-06 0 0)
(2.40832e-06 0 0)
(2.41532e-06 0 0)
(2.42235e-06 0 0)
(2.42941e-06 0 0)
(2.4365e-06 0 0)
(2.44362e-06 0 0)
(2.45076e-06 0 0)
(2.45793e-06 0 0)
(2.46512e-06 0 0)
(2.47233e-06 0 0)
(2.47956e-06 0 0)
(2.4868e-06 0 0)
(2.49406e-06 0 0)
(2.50133e-06 0 0)
(2.50861e-06 0 0)
(2.51589e-06 0 0)
(2.52318e-06 0 0)
(2.53047e-06 0 0)
(2.53776e-06 0 0)
(2.54505e-06 0 0)
(2.55234e-06 0 0)
(2.55962e-06 0 0)
(2.56691e-06 0 0)
(2.57419e-06 0 0)
(2.58147e-06 0 0)
(2.58875e-06 0 0)
(2.59602e-06 0 0)
(2.6033e-06 0 0)
(2.61057e-06 0 0)
(2.61785e-06 0 0)
(2.62513e-06 0 0)
(2.6324e-06 0 0)
(2.63969e-06 0 0)
(2.64697e-06 0 0)
(2.65426e-06 0 0)
(2.66156e-06 0 0)
(2.66886e-06 0 0)
(2.67617e-06 0 0)
(2.68348e-06 0 0)
(2.6908e-06 0 0)
(2.69814e-06 0 0)
(2.70547e-06 0 0)
(2.71282e-06 0 0)
(2.72018e-06 0 0)
(2.72755e-06 0 0)
(2.73492e-06 0 0)
(2.74231e-06 0 0)
(2.74971e-06 0 0)
(2.75711e-06 0 0)
(2.76452e-06 0 0)
(2.77195e-06 0 0)
(2.77938e-06 0 0)
(2.78683e-06 0 0)
(2.79428e-06 0 0)
(2.80174e-06 0 0)
(2.80921e-06 0 0)
(2.81669e-06 0 0)
(2.82418e-06 0 0)
(2.83168e-06 0 0)
(2.83918e-06 0 0)
(2.8467e-06 0 0)
(2.85422e-06 0 0)
(2.86175e-06 0 0)
(2.86929e-06 0 0)
(2.87684e-06 0 0)
(2.8844e-06 0 0)
(2.89196e-06 0 0)
(2.89954e-06 0 0)
(2.90712e-06 0 0)
(2.91471e-06 0 0)
(2.92231e-06 0 0)
(2.92991e-06 0 0)
(2.93753e-06 0 0)
(2.94515e-06 0 0)
(2.95278e-06 0 0)
(2.96042e-06 0 0)
(2.96807e-06 0 0)
(2.97572e-06 0 0)
(2.98338e-06 0 0)
(2.99105e-06 0 0)
(2.99873e-06 0 0)
(3.00642e-06 0 0)
(3.01412e-06 0 0)
(3.02182e-06 0 0)
(3.02953e-06 0 0)
(3.03725e-06 0 0)
(3.04498e-06 0 0)
(3.05272e-06 0 0)
(3.06046e-06 0 0)
(3.06822e-06 0 0)
(3.07598e-06 0 0)
(3.08375e-06 0 0)
(3.09153e-06 0 0)
(3.09931e-06 0 0)
(3.10711e-06 0 0)
(3.11491e-06 0 0)
(3.12272e-06 0 0)
(3.13054e-06 0 0)
(3.13837e-06 0 0)
(3.14621e-06 0 0)
(3.15406e-06 0 0)
(3.16192e-06 0 0)
(3.16978e-06 0 0)
(3.17766e-06 0 0)
(3.18554e-06 0 0)
(3.19343e-06 0 0)
(3.20133e-06 0 0)
(3.20925e-06 0 0)
(3.21717e-06 0 0)
(3.2251e-06 0 0)
(3.23304e-06 0 0)
(3.24099e-06 0 0)
(3.24895e-06 0 0)
(3.25692e-06 0 0)
(3.2649e-06 0 0)
(3.27289e-06 0 0)
(3.28089e-06 0 0)
(3.2889e-06 0 0)
(3.29692e-06 0 0)
(3.30495e-06 0 0)
(3.313e-06 0 0)
(3.32105e-06 0 0)
(3.32911e-06 0 0)
(3.33718e-06 0 0)
(3.34526e-06 0 0)
(3.35335e-06 0 0)
(3.36144e-06 0 0)
(3.36955e-06 0 0)
(3.37766e-06 0 0)
(3.38578e-06 0 0)
(3.39391e-06 0 0)
(3.40205e-06 0 0)
(3.41019e-06 0 0)
(3.41833e-06 0 0)
(3.42648e-06 0 0)
(3.43463e-06 0 0)
(3.44279e-06 0 0)
(3.45094e-06 0 0)
(3.45911e-06 0 0)
(3.46727e-06 0 0)
(3.47543e-06 0 0)
(3.4836e-06 0 0)
(3.49177e-06 0 0)
(3.49994e-06 0 0)
(3.50811e-06 0 0)
(3.51629e-06 0 0)
(3.52447e-06 0 0)
(3.53265e-06 0 0)
(3.54084e-06 0 0)
(3.54904e-06 0 0)
(3.55724e-06 0 0)
(3.56545e-06 0 0)
(3.57368e-06 0 0)
(3.58191e-06 0 0)
(3.59016e-06 0 0)
(3.59843e-06 0 0)
(3.60671e-06 0 0)
(3.61501e-06 0 0)
(3.62334e-06 0 0)
(3.63169e-06 0 0)
(3.64006e-06 0 0)
(3.64846e-06 0 0)
(3.6569e-06 0 0)
(3.66536e-06 0 0)
(3.67386e-06 0 0)
(3.68239e-06 0 0)
(3.69096e-06 0 0)
(3.69957e-06 0 0)
(3.70821e-06 0 0)
(3.71689e-06 0 0)
(3.72561e-06 0 0)
(3.73437e-06 0 0)
(3.74316e-06 0 0)
(3.752e-06 0 0)
(3.76086e-06 0 0)
(3.76977e-06 0 0)
(3.7787e-06 0 0)
(3.78767e-06 0 0)
(3.79667e-06 0 0)
(3.8057e-06 0 0)
(3.81475e-06 0 0)
(3.82382e-06 0 0)
(3.83292e-06 0 0)
(3.84204e-06 0 0)
(3.85118e-06 0 0)
(3.86033e-06 0 0)
(3.8695e-06 0 0)
(3.87868e-06 0 0)
(3.88787e-06 0 0)
(3.89708e-06 0 0)
(3.90629e-06 0 0)
(3.91551e-06 0 0)
(3.92474e-06 0 0)
(3.93399e-06 0 0)
(3.94323e-06 0 0)
(3.95249e-06 0 0)
(3.96176e-06 0 0)
(3.97103e-06 0 0)
(3.98032e-06 0 0)
(3.98961e-06 0 0)
(3.99891e-06 0 0)
(4.00823e-06 0 0)
(4.01755e-06 0 0)
(4.02689e-06 0 0)
(4.03625e-06 0 0)
(4.04561e-06 0 0)
(4.055e-06 0 0)
(4.06439e-06 0 0)
(4.07381e-06 0 0)
(4.08324e-06 0 0)
(4.09269e-06 0 0)
(4.10216e-06 0 0)
(4.11165e-06 0 0)
(4.12115e-06 0 0)
(4.13068e-06 0 0)
(4.14022e-06 0 0)
(4.14979e-06 0 0)
(4.15938e-06 0 0)
(4.16899e-06 0 0)
(4.17862e-06 0 0)
(4.18827e-06 0 0)
(4.19795e-06 0 0)
(4.20765e-06 0 0)
(4.21737e-06 0 0)
(4.22711e-06 0 0)
(4.23687e-06 0 0)
(4.24666e-06 0 0)
(4.25647e-06 0 0)
(4.2663e-06 0 0)
(4.27616e-06 0 0)
(4.28604e-06 0 0)
(4.29594e-06 0 0)
(4.30587e-06 0 0)
(4.31581e-06 0 0)
(4.32579e-06 0 0)
(4.33578e-06 0 0)
(4.3458e-06 0 0)
(4.35584e-06 0 0)
(4.36591e-06 0 0)
(4.376e-06 0 0)
(4.38611e-06 0 0)
(4.39624e-06 0 0)
(4.4064e-06 0 0)
(4.41659e-06 0 0)
(4.4268e-06 0 0)
(4.43703e-06 0 0)
(4.44729e-06 0 0)
(4.45757e-06 0 0)
(4.46788e-06 0 0)
(4.47821e-06 0 0)
(4.48857e-06 0 0)
(4.49895e-06 0 0)
(4.50936e-06 0 0)
(4.51979e-06 0 0)
(4.53025e-06 0 0)
(4.54074e-06 0 0)
(4.55125e-06 0 0)
(4.56179e-06 0 0)
(4.57236e-06 0 0)
(4.58295e-06 0 0)
(4.59357e-06 0 0)
(4.60422e-06 0 0)
(4.6149e-06 0 0)
(4.6256e-06 0 0)
(4.63633e-06 0 0)
(4.6471e-06 0 0)
(4.65789e-06 0 0)
(4.6687e-06 0 0)
(4.67955e-06 0 0)
(4.69043e-06 0 0)
(4.70134e-06 0 0)
(4.71228e-06 0 0)
(4.72325e-06 0 0)
(4.73425e-06 0 0)
(4.74528e-06 0 0)
(4.75634e-06 0 0)
(4.76744e-06 0 0)
(4.77857e-06 0 0)
(4.78973e-06 0 0)
(4.80092e-06 0 0)
(4.81215e-06 0 0)
(4.82341e-06 0 0)
(4.8347e-06 0 0)
(4.84603e-06 0 0)
(4.8574e-06 0 0)
(4.8688e-06 0 0)
(4.88023e-06 0 0)
(4.8917e-06 0 0)
(4.90321e-06 0 0)
(4.91475e-06 0 0)
(4.92633e-06 0 0)
(4.93795e-06 0 0)
(4.9496e-06 0 0)
(4.96129e-06 0 0)
(4.97302e-06 0 0)
(4.98479e-06 0 0)
(4.9966e-06 0 0)
(5.00844e-06 0 0)
(5.02033e-06 0 0)
(5.03225e-06 0 0)
(5.0442e-06 0 0)
(5.0562e-06 0 0)
(5.06824e-06 0 0)
(5.08031e-06 0 0)
(5.09242e-06 0 0)
(5.10457e-06 0 0)
(5.11675e-06 0 0)
(5.12897e-06 0 0)
(5.14123e-06 0 0)
(5.15352e-06 0 0)
(5.16585e-06 0 0)
(5.17821e-06 0 0)
(5.1906e-06 0 0)
(5.20303e-06 0 0)
(5.21548e-06 0 0)
(5.22797e-06 0 0)
(5.24049e-06 0 0)
(5.25304e-06 0 0)
(5.26561e-06 0 0)
(5.27821e-06 0 0)
(5.29083e-06 0 0)
(5.30347e-06 0 0)
(5.31614e-06 0 0)
(5.32882e-06 0 0)
(5.34152e-06 0 0)
(5.35424e-06 0 0)
(5.36696e-06 0 0)
(5.37968e-06 0 0)
(5.39241e-06 0 0)
(5.40513e-06 0 0)
(5.41784e-06 0 0)
(5.43053e-06 0 0)
(5.4432e-06 0 0)
(5.45583e-06 0 0)
(5.46841e-06 0 0)
(5.48093e-06 0 0)
(5.49338e-06 0 0)
(5.50574e-06 0 0)
(5.51798e-06 0 0)
(5.5301e-06 0 0)
(5.54206e-06 0 0)
(5.55384e-06 0 0)
(5.56542e-06 0 0)
(5.57676e-06 0 0)
(5.58785e-06 0 0)
(5.59863e-06 0 0)
(5.60909e-06 0 0)
(5.61918e-06 0 0)
(5.62888e-06 0 0)
(5.63817e-06 0 0)
(5.64701e-06 0 0)
(5.65538e-06 0 0)
(5.66326e-06 0 0)
(5.67063e-06 0 0)
(5.67748e-06 0 0)
(5.68381e-06 0 0)
(5.68963e-06 0 0)
(5.69495e-06 0 0)
(5.69976e-06 0 0)
(5.70409e-06 0 0)
(5.70797e-06 0 0)
(5.71141e-06 0 0)
(5.71446e-06 0 0)
(5.71714e-06 0 0)
(5.71948e-06 0 0)
(5.72152e-06 0 0)
(5.72329e-06 0 0)
(5.72482e-06 0 0)
(5.72615e-06 0 0)
(5.72732e-06 0 0)
(5.72836e-06 0 0)
(5.72933e-06 0 0)
(5.73029e-06 0 0)
(5.73133e-06 0 0)
(5.73263e-06 0 0)
(5.73449e-06 0 0)
(5.73742e-06 0 0)
(5.74232e-06 0 0)
(5.75077e-06 0 0)
(5.76562e-06 0 0)
(5.79185e-06 0 0)
(5.83802e-06 0 0)
(5.9183e-06 0 0)
(6.05468e-06 0 0)
(6.27706e-06 0 0)
(6.61655e-06 0 0)
(7.0864e-06 0 0)
(7.65575e-06 0 0)
(8.24327e-06 0 0)
(8.75387e-06 0 0)
(9.13155e-06 0 0)
(9.37633e-06 0 0)
(9.52064e-06 0 0)
(9.60075e-06 0 0)
(9.6437e-06 0 0)
(9.66631e-06 0 0)
(9.67812e-06 0 0)
(9.68428e-06 0 0)
(9.68751e-06 0 0)
(9.68923e-06 0 0)
(9.69017e-06 0 0)
(9.69071e-06 0 0)
(9.69104e-06 0 0)
(9.69127e-06 0 0)
(9.69143e-06 0 0)
(9.69157e-06 0 0)
(9.6917e-06 0 0)
(9.69182e-06 0 0)
(9.69193e-06 0 0)
(9.69204e-06 0 0)
(9.69215e-06 0 0)
(9.69227e-06 0 0)
(9.69238e-06 0 0)
(9.69249e-06 0 0)
(9.69261e-06 0 0)
(9.69272e-06 0 0)
(9.69284e-06 0 0)
(9.69295e-06 0 0)
(9.69307e-06 0 0)
(9.69318e-06 0 0)
(9.6933e-06 0 0)
(9.69342e-06 0 0)
(9.69354e-06 0 0)
(9.69365e-06 0 0)
(9.69377e-06 0 0)
(9.69389e-06 0 0)
(9.694e-06 0 0)
(9.69412e-06 0 0)
(9.69423e-06 0 0)
(9.69434e-06 0 0)
(9.69445e-06 0 0)
(9.69456e-06 0 0)
(9.69467e-06 0 0)
(9.69478e-06 0 0)
(9.69488e-06 0 0)
(9.69499e-06 0 0)
(9.69509e-06 0 0)
(9.69518e-06 0 0)
(9.69528e-06 0 0)
(9.69537e-06 0 0)
(9.69546e-06 0 0)
(9.69555e-06 0 0)
(9.69564e-06 0 0)
(9.69572e-06 0 0)
(9.6958e-06 0 0)
(9.69587e-06 0 0)
(9.69595e-06 0 0)
(9.69602e-06 0 0)
(9.69608e-06 0 0)
(9.69615e-06 0 0)
(9.69621e-06 0 0)
(9.69626e-06 0 0)
(9.69632e-06 0 0)
(9.69637e-06 0 0)
(9.69642e-06 0 0)
(9.69646e-06 0 0)
(9.6965e-06 0 0)
(9.69654e-06 0 0)
(9.69657e-06 0 0)
(9.6966e-06 0 0)
(9.69662e-06 0 0)
(9.69665e-06 0 0)
(9.69666e-06 0 0)
(9.69668e-06 0 0)
(9.69669e-06 0 0)
(9.6967e-06 0 0)
(9.6967e-06 0 0)
(9.69671e-06 0 0)
(9.69671e-06 0 0)
(9.69671e-06 0 0)
(9.6967e-06 0 0)
(9.69669e-06 0 0)
(9.69668e-06 0 0)
(9.69666e-06 0 0)
(9.69664e-06 0 0)
(9.69662e-06 0 0)
(9.69659e-06 0 0)
(9.69656e-06 0 0)
(9.69653e-06 0 0)
(9.69649e-06 0 0)
(9.69646e-06 0 0)
(9.69642e-06 0 0)
(9.69637e-06 0 0)
(9.69632e-06 0 0)
(9.69628e-06 0 0)
(9.69622e-06 0 0)
(9.69617e-06 0 0)
(9.69611e-06 0 0)
(9.69604e-06 0 0)
(9.69598e-06 0 0)
(9.69591e-06 0 0)
(9.69584e-06 0 0)
(9.69576e-06 0 0)
(9.69568e-06 0 0)
(9.69559e-06 0 0)
(9.6955e-06 0 0)
(9.6954e-06 0 0)
(9.6953e-06 0 0)
(9.69519e-06 0 0)
(9.69508e-06 0 0)
(9.69496e-06 0 0)
(9.69483e-06 0 0)
(9.69469e-06 0 0)
(9.69455e-06 0 0)
(9.69439e-06 0 0)
(9.69423e-06 0 0)
(9.69406e-06 0 0)
(9.69388e-06 0 0)
(9.69368e-06 0 0)
(9.69348e-06 0 0)
(9.69326e-06 0 0)
(9.69303e-06 0 0)
(9.69279e-06 0 0)
(9.69254e-06 0 0)
(9.69227e-06 0 0)
(9.69199e-06 0 0)
(9.6917e-06 0 0)
(9.69139e-06 0 0)
(9.69107e-06 0 0)
(9.69074e-06 0 0)
(9.6904e-06 0 0)
(9.69004e-06 0 0)
(9.68966e-06 0 0)
(9.68928e-06 0 0)
(9.68889e-06 0 0)
(9.68848e-06 0 0)
(9.68807e-06 0 0)
(9.68764e-06 0 0)
(9.68721e-06 0 0)
(9.68678e-06 0 0)
(9.68633e-06 0 0)
(9.68589e-06 0 0)
(9.68544e-06 0 0)
(9.68499e-06 0 0)
(9.68454e-06 0 0)
(9.6841e-06 0 0)
(9.68366e-06 0 0)
(9.68322e-06 0 0)
(9.68279e-06 0 0)
(9.68238e-06 0 0)
(9.68197e-06 0 0)
(9.68158e-06 0 0)
(9.68121e-06 0 0)
(9.68085e-06 0 0)
(9.68052e-06 0 0)
(9.6802e-06 0 0)
(9.67991e-06 0 0)
(9.67964e-06 0 0)
(9.6794e-06 0 0)
(9.67919e-06 0 0)
(9.67901e-06 0 0)
(9.67886e-06 0 0)
(9.67874e-06 0 0)
(9.67865e-06 0 0)
(9.6786e-06 0 0)
(9.67858e-06 0 0)
(9.67858e-06 0 0)
(9.67859e-06 0 0)
(9.67863e-06 0 0)
(9.67869e-06 0 0)
(9.6788e-06 0 0)
(9.67894e-06 0 0)
(9.67912e-06 0 0)
)
;

boundaryField
{
    inlet
    {
        type            fixedValue;
        value           uniform (0 0 0);
    }
    outlet
    {
        type            zeroGradient;
    }
    emptyWalls
    {
        type            empty;
    }
}


// ************************************************************************* //
