/*--------------------------------*- C++ -*----------------------------------*\
  =========                 |
  \\      /  F ield         | OpenFOAM: The Open Source CFD Toolbox
   \\    /   O peration     | Website:  https://openfoam.org
    \\  /    A nd           | Version:  9
     \\/     M anipulation  |
\*---------------------------------------------------------------------------*/
FoamFile
{
    format      ascii;
    class       surfaceScalarField;
    location    "5950";
    object      phic;
}
// * * * * * * * * * * * * * * * * * * * * * * * * * * * * * * * * * * * * * //

dimensions      [0 2 0 0 0 0 0];

internalField   nonuniform List<scalar> 
999
(
2.1035e-14
8.89295e-14
1.82847e-13
2.94227e-13
4.49839e-13
8.74275e-13
2.27225e-12
8.94772e-12
1.93315e-11
2.13941e-11
2.22454e-11
2.28019e-11
2.32404e-11
2.36136e-11
2.3942e-11
2.42429e-11
2.4536e-11
2.484e-11
2.52223e-11
2.57179e-11
2.638e-11
2.72685e-11
2.83954e-11
2.9708e-11
3.11416e-11
3.26562e-11
3.42287e-11
3.58455e-11
3.74977e-11
3.91797e-11
4.0887e-11
4.26159e-11
4.43635e-11
4.61269e-11
4.79038e-11
4.96922e-11
5.14904e-11
5.32973e-11
5.51122e-11
5.69347e-11
5.87647e-11
6.06024e-11
6.2448e-11
6.43016e-11
6.61636e-11
6.80341e-11
6.99132e-11
7.1801e-11
7.36975e-11
7.56026e-11
7.75159e-11
7.94374e-11
8.13667e-11
8.33037e-11
8.52481e-11
8.71999e-11
8.91587e-11
9.11244e-11
9.30969e-11
9.50761e-11
9.70618e-11
9.90541e-11
1.01053e-10
1.03058e-10
1.05069e-10
1.07087e-10
1.09111e-10
1.11141e-10
1.13177e-10
1.15219e-10
1.17268e-10
1.19322e-10
1.21383e-10
1.23449e-10
1.25521e-10
1.276e-10
1.29684e-10
1.31774e-10
1.33869e-10
1.35971e-10
1.38078e-10
1.40192e-10
1.42311e-10
1.44436e-10
1.46567e-10
1.48704e-10
1.50847e-10
1.52996e-10
1.55152e-10
1.57313e-10
1.5948e-10
1.61654e-10
1.63833e-10
1.66019e-10
1.68212e-10
1.7041e-10
1.72615e-10
1.74826e-10
1.77043e-10
1.79267e-10
1.81498e-10
1.83734e-10
1.85977e-10
1.88227e-10
1.90483e-10
1.92746e-10
1.95015e-10
1.97291e-10
1.99573e-10
2.01862e-10
2.04158e-10
2.0646e-10
2.0877e-10
2.11086e-10
2.13409e-10
2.15739e-10
2.18076e-10
2.2042e-10
2.22771e-10
2.2513e-10
2.27496e-10
2.2987e-10
2.32252e-10
2.34641e-10
2.37039e-10
2.39444e-10
2.41858e-10
2.4428e-10
2.4671e-10
2.49149e-10
2.51596e-10
2.54052e-10
2.56517e-10
2.58991e-10
2.61474e-10
2.63966e-10
2.66467e-10
2.68977e-10
2.71496e-10
2.74024e-10
2.76562e-10
2.79109e-10
2.81666e-10
2.84233e-10
2.86809e-10
2.89396e-10
2.91992e-10
2.94599e-10
2.97216e-10
2.99843e-10
3.02479e-10
3.05126e-10
3.07782e-10
3.10447e-10
3.13122e-10
3.15807e-10
3.185e-10
3.21202e-10
3.23914e-10
3.26634e-10
3.29365e-10
3.32105e-10
3.34856e-10
3.37618e-10
3.40392e-10
3.43179e-10
3.4598e-10
3.48795e-10
3.51627e-10
3.54477e-10
3.57346e-10
3.60235e-10
3.63145e-10
3.6608e-10
3.69038e-10
3.72023e-10
3.75035e-10
3.78074e-10
3.81142e-10
3.84238e-10
3.87363e-10
3.90516e-10
3.93697e-10
3.96905e-10
4.0014e-10
4.03399e-10
4.06682e-10
4.09989e-10
4.13317e-10
4.16667e-10
4.20036e-10
4.23426e-10
4.26836e-10
4.30265e-10
4.33715e-10
4.37186e-10
4.40679e-10
4.44194e-10
4.47733e-10
4.51298e-10
4.54888e-10
4.58506e-10
4.62152e-10
4.65829e-10
4.69538e-10
4.7328e-10
4.77056e-10
4.80868e-10
4.84716e-10
4.886e-10
4.92521e-10
4.96478e-10
5.00471e-10
5.04498e-10
5.08557e-10
5.12642e-10
5.16748e-10
5.20866e-10
5.24984e-10
5.29089e-10
5.33163e-10
5.37184e-10
5.41127e-10
5.44964e-10
5.48666e-10
5.52209e-10
5.55576e-10
5.58772e-10
5.61838e-10
5.64873e-10
5.68086e-10
5.71865e-10
5.76902e-10
5.8438e-10
5.96207e-10
6.15194e-10
6.44793e-10
6.8771e-10
7.43074e-10
8.04098e-10
8.60208e-10
9.03389e-10
9.32043e-10
9.49146e-10
9.58694e-10
9.63824e-10
9.66526e-10
9.67938e-10
9.68675e-10
9.69063e-10
9.69271e-10
9.69387e-10
9.69455e-10
9.69498e-10
9.69528e-10
9.69551e-10
9.69571e-10
9.69587e-10
9.69602e-10
9.69617e-10
9.6963e-10
9.69642e-10
9.69654e-10
9.69665e-10
9.69676e-10
9.69686e-10
9.69695e-10
9.69704e-10
9.69713e-10
9.69721e-10
9.69729e-10
9.69736e-10
9.69743e-10
9.69749e-10
9.69755e-10
9.69761e-10
9.69767e-10
9.69773e-10
9.69779e-10
9.69784e-10
9.69789e-10
9.69794e-10
9.69799e-10
9.69804e-10
9.69809e-10
9.69813e-10
9.69817e-10
9.69821e-10
9.69825e-10
9.69829e-10
9.69832e-10
9.69835e-10
9.69837e-10
9.69839e-10
9.69841e-10
9.69842e-10
9.69842e-10
9.69842e-10
9.69842e-10
9.69842e-10
9.6984e-10
9.69837e-10
9.69833e-10
9.69829e-10
9.69824e-10
9.69818e-10
9.69812e-10
9.69804e-10
9.69796e-10
9.69788e-10
9.69778e-10
9.69768e-10
9.69757e-10
9.69745e-10
9.69733e-10
9.6972e-10
9.69706e-10
9.69692e-10
9.69677e-10
9.69662e-10
9.69647e-10
9.69631e-10
9.69615e-10
9.69598e-10
9.69581e-10
9.69564e-10
9.69547e-10
9.69529e-10
9.6951e-10
9.69492e-10
9.69473e-10
9.69453e-10
9.69433e-10
9.69413e-10
9.69392e-10
9.6937e-10
9.69348e-10
9.69325e-10
9.69302e-10
9.69277e-10
9.69251e-10
9.69224e-10
9.69195e-10
9.69164e-10
9.69132e-10
9.69098e-10
9.69061e-10
9.69022e-10
9.68979e-10
9.68934e-10
9.68885e-10
9.68833e-10
9.68777e-10
9.68718e-10
9.68654e-10
9.68586e-10
9.68514e-10
9.68437e-10
9.68357e-10
9.68273e-10
9.68186e-10
9.68095e-10
9.68002e-10
9.67907e-10
9.6781e-10
9.67712e-10
9.67614e-10
9.67517e-10
9.67422e-10
9.6733e-10
9.67241e-10
9.67157e-10
9.6708e-10
9.67009e-10
9.66947e-10
9.66894e-10
9.66851e-10
9.66819e-10
9.668e-10
9.66791e-10
9.6679e-10
9.6679e-10
9.66799e-10
9.66838e-10
9.66892e-10
9.66958e-10
9.67034e-10
9.67121e-10
9.67216e-10
9.67319e-10
9.67427e-10
9.67539e-10
9.67655e-10
9.67771e-10
9.67887e-10
9.68001e-10
9.68112e-10
9.68218e-10
9.68319e-10
9.68413e-10
9.68501e-10
9.6858e-10
9.68652e-10
9.68716e-10
9.68772e-10
9.6882e-10
9.6886e-10
9.68894e-10
9.6892e-10
9.6894e-10
9.68955e-10
9.68965e-10
9.6897e-10
9.68972e-10
9.68972e-10
9.68972e-10
9.68968e-10
9.68958e-10
9.68949e-10
9.68939e-10
9.68929e-10
9.68919e-10
9.6891e-10
9.68902e-10
9.68894e-10
9.68888e-10
9.68884e-10
9.68881e-10
9.68879e-10
9.68879e-10
9.68879e-10
9.68879e-10
9.68882e-10
9.68888e-10
9.68895e-10
9.68903e-10
9.68912e-10
9.68923e-10
9.68935e-10
9.68948e-10
9.68961e-10
9.68976e-10
9.68991e-10
9.69008e-10
9.69024e-10
9.69042e-10
9.6906e-10
9.69078e-10
9.69097e-10
9.69117e-10
9.69137e-10
9.69157e-10
9.69177e-10
9.69198e-10
9.69219e-10
9.6924e-10
9.69262e-10
9.69283e-10
9.69305e-10
9.69326e-10
9.69348e-10
9.69369e-10
9.69391e-10
9.69412e-10
9.69433e-10
9.69453e-10
9.69474e-10
9.69494e-10
9.69513e-10
9.69533e-10
9.69552e-10
9.6957e-10
9.69587e-10
9.69605e-10
9.69621e-10
9.69637e-10
9.69652e-10
9.69667e-10
9.69681e-10
9.69694e-10
9.69706e-10
9.69718e-10
9.69729e-10
9.69739e-10
9.69748e-10
9.69757e-10
9.69765e-10
9.69772e-10
9.69779e-10
9.69785e-10
9.6979e-10
9.69795e-10
9.69799e-10
9.69802e-10
9.69805e-10
9.69808e-10
9.6981e-10
9.69811e-10
9.69813e-10
9.69813e-10
9.69814e-10
9.69815e-10
9.69815e-10
9.69815e-10
9.69814e-10
9.69814e-10
9.69813e-10
9.69813e-10
9.69812e-10
9.69811e-10
9.6981e-10
9.69809e-10
9.69807e-10
9.69806e-10
9.69803e-10
9.69801e-10
9.69798e-10
9.69795e-10
9.69791e-10
9.69787e-10
9.69782e-10
9.69777e-10
9.69772e-10
9.69765e-10
9.69758e-10
9.6975e-10
9.69741e-10
9.69732e-10
9.69722e-10
9.69711e-10
9.69699e-10
9.69686e-10
9.69672e-10
9.69658e-10
9.69642e-10
9.69625e-10
9.69608e-10
9.69589e-10
9.6957e-10
9.69549e-10
9.69528e-10
9.69505e-10
9.69482e-10
9.69457e-10
9.69431e-10
9.69405e-10
9.69377e-10
9.69348e-10
9.69318e-10
9.69286e-10
9.69254e-10
9.6922e-10
9.69184e-10
9.69147e-10
9.69108e-10
9.69068e-10
9.69025e-10
9.68981e-10
9.68934e-10
9.68886e-10
9.68835e-10
9.68781e-10
9.68725e-10
9.68667e-10
9.68606e-10
9.68542e-10
9.68476e-10
9.68408e-10
9.68337e-10
9.68263e-10
9.68188e-10
9.68111e-10
9.68032e-10
9.67951e-10
9.6787e-10
9.67788e-10
9.67706e-10
9.67625e-10
9.67545e-10
9.67466e-10
9.67389e-10
9.67316e-10
9.67245e-10
9.67179e-10
9.67118e-10
9.67062e-10
9.67013e-10
9.6697e-10
9.66935e-10
9.66909e-10
9.66891e-10
9.66882e-10
9.66879e-10
9.66879e-10
9.66883e-10
9.66905e-10
9.66941e-10
9.66988e-10
9.67043e-10
9.67108e-10
9.67179e-10
9.67258e-10
9.67343e-10
9.67433e-10
9.67527e-10
9.67624e-10
9.67723e-10
9.67823e-10
9.67922e-10
9.6802e-10
9.68116e-10
9.68209e-10
9.68298e-10
9.68383e-10
9.68464e-10
9.68539e-10
9.68608e-10
9.68672e-10
9.68731e-10
9.68783e-10
9.6883e-10
9.68872e-10
9.68909e-10
9.68941e-10
9.68968e-10
9.68991e-10
9.69011e-10
9.69027e-10
9.69041e-10
9.69051e-10
9.6906e-10
9.69067e-10
9.69072e-10
9.69076e-10
9.6908e-10
9.69082e-10
9.69085e-10
9.69087e-10
9.69089e-10
9.69092e-10
9.69095e-10
9.69099e-10
9.69103e-10
9.69108e-10
9.69113e-10
9.69119e-10
9.69127e-10
9.69134e-10
9.69143e-10
9.69152e-10
9.69162e-10
9.69173e-10
9.69184e-10
9.69196e-10
9.69208e-10
9.6922e-10
9.69233e-10
9.69247e-10
9.69261e-10
9.69274e-10
9.69289e-10
9.69303e-10
9.69317e-10
9.69332e-10
9.69346e-10
9.69361e-10
9.69376e-10
9.69391e-10
9.69406e-10
9.69421e-10
9.69435e-10
9.6945e-10
9.69465e-10
9.6948e-10
9.69495e-10
9.69509e-10
9.69524e-10
9.69539e-10
9.69553e-10
9.69568e-10
9.69582e-10
9.69596e-10
9.6961e-10
9.69624e-10
9.69638e-10
9.69652e-10
9.69665e-10
9.69678e-10
9.69691e-10
9.69704e-10
9.69716e-10
9.69728e-10
9.6974e-10
9.69751e-10
9.69762e-10
9.69773e-10
9.69783e-10
9.69792e-10
9.69801e-10
9.6981e-10
9.69818e-10
9.69826e-10
9.69833e-10
9.69839e-10
9.69845e-10
9.6985e-10
9.69855e-10
9.69859e-10
9.69863e-10
9.69866e-10
9.69869e-10
9.69871e-10
9.69872e-10
9.69873e-10
9.69874e-10
9.69874e-10
9.69874e-10
9.69873e-10
9.69872e-10
9.6987e-10
9.69868e-10
9.69865e-10
9.69862e-10
9.69859e-10
9.69856e-10
9.69852e-10
9.69848e-10
9.69843e-10
9.69839e-10
9.69834e-10
9.69829e-10
9.69824e-10
9.69819e-10
9.69814e-10
9.69808e-10
9.69802e-10
9.69796e-10
9.69789e-10
9.69783e-10
9.69776e-10
9.69769e-10
9.69761e-10
9.69753e-10
9.69744e-10
9.69735e-10
9.69725e-10
9.69715e-10
9.69704e-10
9.69692e-10
9.69679e-10
9.69665e-10
9.69651e-10
9.69635e-10
9.69618e-10
9.696e-10
9.69581e-10
9.6956e-10
9.69538e-10
9.69515e-10
9.6949e-10
9.69463e-10
9.69434e-10
9.69404e-10
9.69373e-10
9.69339e-10
9.69303e-10
9.69265e-10
9.69226e-10
9.69184e-10
9.69139e-10
9.69093e-10
9.69045e-10
9.68994e-10
9.68941e-10
9.68886e-10
9.68828e-10
9.68768e-10
9.68706e-10
9.68642e-10
9.68576e-10
9.68509e-10
9.68439e-10
9.68369e-10
9.68297e-10
9.68224e-10
9.6815e-10
9.68075e-10
9.68001e-10
9.67926e-10
9.67853e-10
9.6778e-10
9.67709e-10
9.6764e-10
9.67573e-10
9.67509e-10
9.67448e-10
9.67392e-10
9.67339e-10
9.67292e-10
9.6725e-10
9.67214e-10
9.67185e-10
9.67162e-10
9.67147e-10
9.67139e-10
9.67136e-10
9.67136e-10
9.67138e-10
9.67154e-10
9.67184e-10
9.67222e-10
9.67267e-10
9.67319e-10
9.67378e-10
9.67444e-10
9.67514e-10
9.6759e-10
9.6767e-10
9.67753e-10
9.67838e-10
9.67925e-10
9.68012e-10
9.681e-10
9.68186e-10
9.68272e-10
9.68355e-10
9.68436e-10
9.68513e-10
9.68586e-10
9.68656e-10
9.68721e-10
9.68782e-10
9.68838e-10
9.6889e-10
9.68937e-10
9.68979e-10
9.69017e-10
9.69051e-10
9.6908e-10
9.69106e-10
9.69129e-10
9.69148e-10
9.69164e-10
9.69178e-10
9.69189e-10
9.69198e-10
9.69205e-10
9.6921e-10
9.69215e-10
9.69218e-10
9.69221e-10
9.69223e-10
9.69224e-10
9.69225e-10
9.69226e-10
9.69226e-10
9.69227e-10
9.69227e-10
9.69228e-10
9.6923e-10
9.69231e-10
9.69233e-10
9.69235e-10
9.69238e-10
9.69241e-10
9.69244e-10
9.69247e-10
9.69251e-10
9.69255e-10
9.6926e-10
9.69264e-10
9.69269e-10
9.69273e-10
9.69278e-10
9.69283e-10
9.69288e-10
9.69293e-10
9.69298e-10
9.69303e-10
9.69308e-10
9.69312e-10
9.69317e-10
9.69322e-10
9.69327e-10
9.69332e-10
9.69337e-10
9.69342e-10
9.69347e-10
9.69352e-10
9.69357e-10
9.69362e-10
9.69368e-10
9.69373e-10
9.69379e-10
9.69384e-10
9.6939e-10
9.69396e-10
9.69403e-10
9.69409e-10
9.69416e-10
9.69423e-10
9.69431e-10
9.69439e-10
9.69447e-10
9.69455e-10
9.69464e-10
9.69473e-10
9.69482e-10
9.69491e-10
9.69501e-10
9.69511e-10
9.69521e-10
9.69532e-10
9.69543e-10
9.69553e-10
9.69564e-10
9.69575e-10
9.69586e-10
9.69597e-10
9.69608e-10
9.69619e-10
9.6963e-10
9.69641e-10
9.69651e-10
9.69661e-10
9.69671e-10
9.69681e-10
9.6969e-10
9.69699e-10
9.69707e-10
9.69714e-10
9.69722e-10
9.69728e-10
9.69734e-10
9.69739e-10
9.69744e-10
9.69748e-10
9.69751e-10
9.69753e-10
9.69754e-10
9.69754e-10
9.69754e-10
9.69754e-10
9.69753e-10
9.69752e-10
9.6975e-10
9.69747e-10
9.69743e-10
9.69738e-10
9.69733e-10
9.69726e-10
9.69718e-10
9.6971e-10
9.69702e-10
9.69692e-10
9.69681e-10
9.69672e-10
9.69661e-10
9.69648e-10
9.69637e-10
9.69626e-10
9.6961e-10
9.69596e-10
9.69585e-10
9.69569e-10
9.6955e-10
9.69539e-10
9.69523e-10
9.69499e-10
9.69486e-10
9.69488e-10
9.69537e-10
9.70395e-10
9.73698e-10
9.90423e-10
1.10292e-09
1.11437e-09
1.11438e-09
1.11437e-09
1.11437e-09
1.11437e-09
1.11437e-09
1.11437e-09
1.11437e-09
1.11437e-09
1.11437e-09
1.11437e-09
1.11437e-09
1.11437e-09
1.11437e-09
1.11437e-09
1.11437e-09
1.11437e-09
1.11437e-09
1.11437e-09
1.11437e-09
1.11437e-09
1.11437e-09
1.11437e-09
)
;

boundaryField
{
    inlet
    {
        type            calculated;
        value           uniform 0;
    }
    outlet
    {
        type            calculated;
        value           uniform 1.11437e-09;
    }
    emptyWalls
    {
        type            empty;
        value           nonuniform List<scalar> 0();
    }
}


// ************************************************************************* //
