/*--------------------------------*- C++ -*----------------------------------*\
  =========                 |
  \\      /  F ield         | OpenFOAM: The Open Source CFD Toolbox
   \\    /   O peration     | Website:  https://openfoam.org
    \\  /    A nd           | Version:  9
     \\/     M anipulation  |
\*---------------------------------------------------------------------------*/
FoamFile
{
    format      ascii;
    class       volScalarField;
    location    "5950";
    object      Sb;
}
// * * * * * * * * * * * * * * * * * * * * * * * * * * * * * * * * * * * * * //

dimensions      [0 0 0 0 0 0 0];

internalField   nonuniform List<scalar> 
1000
(
0.351099
0.353621
0.356256
0.358529
0.360703
0.363592
0.371437
0.405598
0.571696
0.653603
0.669555
0.675603
0.678744
0.68057
0.681664
0.682292
0.682635
0.68274
0.682641
0.682241
0.681349
0.679723
0.677149
0.673899
0.670385
0.666766
0.663128
0.659516
0.655956
0.65246
0.649034
0.645679
0.642394
0.639176
0.63602
0.632924
0.629884
0.626899
0.623966
0.621084
0.618253
0.615471
0.612738
0.610053
0.607416
0.604824
0.602278
0.599776
0.597316
0.594897
0.592517
0.590176
0.587872
0.585603
0.583368
0.581166
0.578996
0.576856
0.574746
0.572665
0.570611
0.568584
0.566583
0.564608
0.562657
0.56073
0.558826
0.556944
0.555084
0.553246
0.551428
0.54963
0.547852
0.546092
0.544351
0.542628
0.540922
0.539234
0.537562
0.535906
0.534266
0.532642
0.531032
0.529437
0.527856
0.52629
0.524737
0.523197
0.52167
0.520156
0.518654
0.517165
0.515687
0.514221
0.512765
0.511322
0.509888
0.508466
0.507053
0.505651
0.504259
0.502876
0.501502
0.500138
0.498783
0.497436
0.496098
0.494768
0.493446
0.492133
0.490827
0.489528
0.488237
0.486953
0.485677
0.484407
0.483144
0.481888
0.480638
0.479395
0.478158
0.476926
0.475701
0.474482
0.473268
0.47206
0.470857
0.46966
0.468468
0.467281
0.466099
0.464921
0.463749
0.462581
0.461417
0.460258
0.459102
0.457951
0.456804
0.455661
0.454521
0.453385
0.452252
0.451123
0.449997
0.448874
0.447754
0.446637
0.445523
0.444411
0.443302
0.442196
0.441091
0.439989
0.438888
0.43779
0.436693
0.435597
0.434503
0.433409
0.432318
0.431227
0.430137
0.429048
0.427961
0.426874
0.425788
0.424703
0.42362
0.422537
0.421455
0.420374
0.419294
0.418216
0.417138
0.416061
0.414985
0.413909
0.412834
0.41176
0.410686
0.409611
0.408537
0.407461
0.406385
0.405307
0.404228
0.403146
0.402063
0.400977
0.399888
0.398795
0.3977
0.396601
0.395498
0.394391
0.39328
0.392165
0.391045
0.389921
0.388792
0.387658
0.38652
0.385376
0.384228
0.383074
0.381914
0.380749
0.379578
0.378402
0.37722
0.376033
0.374841
0.373644
0.372443
0.371239
0.370034
0.36883
0.367628
0.366434
0.365252
0.364086
0.362944
0.361832
0.360759
0.359732
0.358757
0.357836
0.356963
0.35612
0.355268
0.354331
0.353168
0.351538
0.349038
0.345043
0.338706
0.329147
0.316015
0.300264
0.284299
0.270777
0.26106
0.254924
0.251377
0.249434
0.248403
0.247865
0.247587
0.247444
0.247371
0.247334
0.247315
0.247305
0.2473
0.247298
0.247296
0.247296
0.247296
0.247296
0.247296
0.247296
0.247296
0.247296
0.247296
0.247296
0.247297
0.247297
0.247297
0.247297
0.247297
0.247297
0.247297
0.247297
0.247297
0.247297
0.247297
0.247297
0.247297
0.247297
0.247297
0.247298
0.247298
0.247298
0.247298
0.247298
0.247298
0.247298
0.247298
0.247298
0.247298
0.247298
0.247298
0.247298
0.247298
0.247298
0.247298
0.247298
0.247298
0.247298
0.247298
0.247298
0.247298
0.247298
0.247298
0.247298
0.247298
0.247298
0.247298
0.247297
0.247297
0.247297
0.247297
0.247297
0.247296
0.247296
0.247296
0.247296
0.247295
0.247295
0.247295
0.247294
0.247294
0.247294
0.247293
0.247293
0.247292
0.247292
0.247292
0.247291
0.247291
0.24729
0.24729
0.247289
0.247289
0.247288
0.247288
0.247287
0.247287
0.247286
0.247286
0.247285
0.247285
0.247284
0.247283
0.247283
0.247282
0.247282
0.247281
0.24728
0.24728
0.247279
0.247278
0.247277
0.247276
0.247276
0.247275
0.247274
0.247273
0.247272
0.247271
0.24727
0.247269
0.247268
0.247266
0.247265
0.247264
0.247263
0.247262
0.247261
0.24726
0.247259
0.247258
0.247257
0.247257
0.247256
0.247255
0.247255
0.247255
0.247255
0.247254
0.247254
0.247255
0.247255
0.247255
0.247256
0.247257
0.247257
0.247258
0.247259
0.247261
0.247262
0.247263
0.247264
0.247266
0.247267
0.247268
0.247269
0.24727
0.247271
0.247272
0.247273
0.247274
0.247275
0.247276
0.247276
0.247277
0.247277
0.247278
0.247278
0.247278
0.247278
0.247278
0.247279
0.247279
0.247279
0.247279
0.247279
0.247279
0.247279
0.247279
0.247279
0.247278
0.247278
0.247278
0.247278
0.247278
0.247278
0.247278
0.247278
0.247278
0.247278
0.247278
0.247279
0.247279
0.247279
0.247279
0.247279
0.247279
0.247279
0.247279
0.247279
0.24728
0.24728
0.24728
0.24728
0.24728
0.24728
0.247281
0.247281
0.247281
0.247281
0.247281
0.247282
0.247282
0.247282
0.247282
0.247282
0.247283
0.247283
0.247283
0.247283
0.247284
0.247284
0.247284
0.247284
0.247284
0.247285
0.247285
0.247285
0.247285
0.247285
0.247285
0.247286
0.247286
0.247286
0.247286
0.247286
0.247286
0.247286
0.247286
0.247286
0.247286
0.247286
0.247286
0.247287
0.247287
0.247287
0.247287
0.247287
0.247287
0.247287
0.247287
0.247287
0.247287
0.247288
0.247288
0.247288
0.247288
0.247288
0.247289
0.247289
0.247289
0.247289
0.247289
0.24729
0.24729
0.24729
0.24729
0.24729
0.24729
0.24729
0.24729
0.24729
0.24729
0.24729
0.24729
0.24729
0.24729
0.24729
0.24729
0.247289
0.247289
0.247289
0.247289
0.247289
0.247289
0.247289
0.247289
0.247288
0.247288
0.247288
0.247288
0.247288
0.247287
0.247287
0.247287
0.247287
0.247287
0.247286
0.247286
0.247286
0.247286
0.247285
0.247285
0.247285
0.247284
0.247284
0.247284
0.247283
0.247283
0.247283
0.247282
0.247282
0.247282
0.247281
0.247281
0.24728
0.24728
0.247279
0.247279
0.247278
0.247277
0.247277
0.247276
0.247276
0.247275
0.247274
0.247273
0.247273
0.247272
0.247271
0.24727
0.247269
0.247268
0.247268
0.247267
0.247266
0.247265
0.247264
0.247263
0.247263
0.247262
0.247261
0.24726
0.24726
0.247259
0.247259
0.247258
0.247258
0.247258
0.247258
0.247258
0.247258
0.247258
0.247258
0.247258
0.247258
0.247259
0.24726
0.24726
0.247261
0.247262
0.247263
0.247264
0.247265
0.247266
0.247267
0.247268
0.247269
0.24727
0.247271
0.247272
0.247273
0.247274
0.247274
0.247275
0.247276
0.247277
0.247277
0.247278
0.247278
0.247278
0.247279
0.247279
0.247279
0.24728
0.24728
0.24728
0.24728
0.24728
0.24728
0.24728
0.24728
0.24728
0.24728
0.24728
0.247281
0.247281
0.247281
0.247281
0.247281
0.247281
0.247281
0.247281
0.247281
0.247281
0.247281
0.247281
0.247281
0.247281
0.247281
0.247281
0.247282
0.247282
0.247282
0.247282
0.247282
0.247282
0.247282
0.247283
0.247283
0.247283
0.247283
0.247283
0.247283
0.247283
0.247284
0.247284
0.247284
0.247284
0.247284
0.247284
0.247284
0.247285
0.247285
0.247285
0.247285
0.247285
0.247285
0.247285
0.247286
0.247286
0.247286
0.247286
0.247286
0.247286
0.247286
0.247287
0.247287
0.247287
0.247287
0.247287
0.247287
0.247287
0.247288
0.247288
0.247288
0.247288
0.247288
0.247288
0.247288
0.247289
0.247289
0.247289
0.247289
0.247289
0.247289
0.247289
0.247289
0.247289
0.247289
0.247289
0.247289
0.247289
0.247289
0.247289
0.247289
0.247289
0.247289
0.247289
0.247289
0.247289
0.247289
0.247289
0.247289
0.247289
0.247289
0.247289
0.247289
0.247289
0.247289
0.247289
0.247289
0.247289
0.247288
0.247288
0.247288
0.247288
0.247288
0.247288
0.247288
0.247288
0.247288
0.247288
0.247288
0.247287
0.247287
0.247287
0.247287
0.247287
0.247287
0.247287
0.247286
0.247286
0.247286
0.247286
0.247286
0.247285
0.247285
0.247285
0.247285
0.247284
0.247284
0.247284
0.247283
0.247283
0.247282
0.247282
0.247282
0.247281
0.247281
0.24728
0.24728
0.247279
0.247278
0.247278
0.247277
0.247276
0.247276
0.247275
0.247274
0.247274
0.247273
0.247272
0.247271
0.247271
0.24727
0.247269
0.247268
0.247268
0.247267
0.247266
0.247265
0.247265
0.247264
0.247264
0.247263
0.247263
0.247262
0.247262
0.247261
0.247261
0.247261
0.247261
0.247261
0.247261
0.247261
0.247261
0.247261
0.247261
0.247262
0.247262
0.247263
0.247263
0.247264
0.247265
0.247266
0.247266
0.247267
0.247268
0.247269
0.24727
0.247271
0.247272
0.247273
0.247274
0.247274
0.247275
0.247276
0.247277
0.247277
0.247278
0.247278
0.247279
0.247279
0.24728
0.24728
0.247281
0.247281
0.247281
0.247281
0.247281
0.247282
0.247282
0.247282
0.247282
0.247282
0.247282
0.247282
0.247282
0.247282
0.247282
0.247282
0.247282
0.247282
0.247282
0.247282
0.247282
0.247282
0.247282
0.247282
0.247282
0.247282
0.247282
0.247282
0.247282
0.247283
0.247283
0.247283
0.247283
0.247283
0.247283
0.247283
0.247283
0.247283
0.247283
0.247283
0.247283
0.247283
0.247283
0.247283
0.247283
0.247283
0.247283
0.247283
0.247283
0.247283
0.247284
0.247284
0.247284
0.247284
0.247284
0.247284
0.247284
0.247284
0.247284
0.247284
0.247284
0.247284
0.247284
0.247284
0.247285
0.247285
0.247285
0.247285
0.247285
0.247285
0.247285
0.247285
0.247285
0.247286
0.247286
0.247286
0.247286
0.247286
0.247286
0.247286
0.247286
0.247287
0.247287
0.247287
0.247287
0.247287
0.247287
0.247287
0.247287
0.247287
0.247288
0.247288
0.247288
0.247288
0.247288
0.247288
0.247288
0.247288
0.247288
0.247288
0.247288
0.247288
0.247288
0.247288
0.247288
0.247288
0.247288
0.247288
0.247288
0.247288
0.247288
0.247288
0.247288
0.247288
0.247287
0.247287
0.247287
0.247287
0.247287
0.247287
0.247287
0.247287
0.247287
0.247286
0.247286
0.247286
0.247286
0.247286
0.247286
0.247285
0.247285
0.247285
0.247285
0.247285
0.247292
0.24731
0.247511
0.248802
0.249921
0.249999
0.25
0.25
0.25
0.25
0.25
0.25
0.25
0.25
0.25
0.25
0.25
0.25
0.25
0.25
0.25
0.25
0.25
0.25
0.25
0.25
0.25
0.25
)
;

boundaryField
{
    inlet
    {
        type            fixedValue;
        value           uniform 0.35;
    }
    outlet
    {
        type            zeroGradient;
    }
    emptyWalls
    {
        type            empty;
    }
}


// ************************************************************************* //
