/*--------------------------------*- C++ -*----------------------------------*\
  =========                 |
  \\      /  F ield         | OpenFOAM: The Open Source CFD Toolbox
   \\    /   O peration     | Website:  https://openfoam.org
    \\  /    A nd           | Version:  9
     \\/     M anipulation  |
\*---------------------------------------------------------------------------*/
FoamFile
{
    format      ascii;
    class       volScalarField;
    location    "14550";
    object      Sb;
}
// * * * * * * * * * * * * * * * * * * * * * * * * * * * * * * * * * * * * * //

dimensions      [0 0 0 0 0 0 0];

internalField   nonuniform List<scalar> 
1000
(
0.350393
0.351141
0.352275
0.353193
0.354365
0.355251
0.356439
0.357362
0.358476
0.359432
0.360426
0.361317
0.362165
0.362901
0.363567
0.364146
0.364767
0.365906
0.369611
0.385068
0.489613
0.630201
0.658214
0.666687
0.670832
0.673442
0.675319
0.676768
0.677929
0.678883
0.679673
0.68033
0.680879
0.681335
0.681714
0.682027
0.682281
0.682486
0.682644
0.682765
0.682844
0.682892
0.682901
0.682879
0.682819
0.682722
0.682585
0.682408
0.682187
0.681915
0.681587
0.681187
0.680694
0.680078
0.6793
0.678327
0.677151
0.675811
0.674373
0.672876
0.67134
0.669782
0.668212
0.666639
0.665068
0.663504
0.66195
0.660408
0.658878
0.657363
0.655862
0.654378
0.652912
0.651464
0.650034
0.648622
0.647229
0.645851
0.644489
0.643141
0.641805
0.640481
0.639166
0.637861
0.636565
0.635278
0.633998
0.632728
0.631465
0.630212
0.628968
0.627733
0.626509
0.625294
0.624089
0.622894
0.621709
0.620534
0.619369
0.618214
0.617068
0.615932
0.614805
0.613686
0.612577
0.611476
0.610384
0.6093
0.608224
0.607155
0.606095
0.605042
0.603997
0.602959
0.601928
0.600905
0.599889
0.598879
0.597877
0.596881
0.595891
0.594908
0.593932
0.592962
0.591998
0.591041
0.590089
0.589143
0.588204
0.58727
0.586342
0.585419
0.584502
0.58359
0.582684
0.581784
0.580888
0.579998
0.579113
0.578232
0.577357
0.576487
0.575622
0.574761
0.573905
0.573054
0.572208
0.571366
0.570528
0.569695
0.568867
0.568042
0.567222
0.566406
0.565595
0.564787
0.563984
0.563184
0.562389
0.561598
0.56081
0.560027
0.559247
0.558471
0.557699
0.55693
0.556166
0.555404
0.554647
0.553892
0.553142
0.552394
0.55165
0.55091
0.550172
0.549438
0.548708
0.54798
0.547256
0.546534
0.545816
0.5451
0.544386
0.543676
0.542967
0.542261
0.541557
0.540856
0.540156
0.539459
0.538764
0.538071
0.53738
0.536692
0.536006
0.535323
0.534643
0.533965
0.533291
0.53262
0.531953
0.531289
0.53063
0.529973
0.529322
0.528673
0.528029
0.527389
0.526753
0.52612
0.525491
0.524864
0.524241
0.52362
0.523002
0.522386
0.521771
0.521159
0.520547
0.519938
0.519329
0.518722
0.518116
0.517511
0.516907
0.516305
0.515704
0.515104
0.514506
0.513909
0.513315
0.512721
0.51213
0.51154
0.510952
0.510365
0.509781
0.509198
0.508617
0.508038
0.507461
0.506886
0.506312
0.505741
0.50517
0.504602
0.504035
0.50347
0.502907
0.502345
0.501785
0.501227
0.50067
0.500114
0.49956
0.499008
0.498457
0.497907
0.497359
0.496812
0.496267
0.495723
0.495181
0.49464
0.4941
0.493561
0.493024
0.492488
0.491954
0.49142
0.490888
0.490358
0.489828
0.4893
0.488773
0.488247
0.487722
0.487199
0.486676
0.486155
0.485635
0.485116
0.484598
0.484082
0.483566
0.483052
0.482538
0.482026
0.481515
0.481005
0.480495
0.479987
0.47948
0.478974
0.478469
0.477965
0.477462
0.47696
0.476459
0.475958
0.475459
0.474961
0.474464
0.473967
0.473472
0.472977
0.472483
0.471991
0.471499
0.471008
0.470517
0.470028
0.46954
0.469052
0.468565
0.468079
0.467594
0.46711
0.466627
0.466144
0.465662
0.465181
0.4647
0.464221
0.463742
0.463264
0.462786
0.462309
0.461833
0.461358
0.460883
0.460408
0.459934
0.459461
0.458988
0.458515
0.458043
0.457571
0.4571
0.456629
0.456159
0.455689
0.455219
0.45475
0.454281
0.453812
0.453344
0.452877
0.45241
0.451943
0.451478
0.451013
0.450548
0.450085
0.449622
0.449161
0.4487
0.448241
0.447782
0.447325
0.446868
0.446413
0.445959
0.445506
0.445054
0.444602
0.444152
0.443703
0.443255
0.442807
0.442361
0.441914
0.441469
0.441023
0.440578
0.440134
0.439689
0.439245
0.438801
0.438357
0.437913
0.437469
0.437025
0.436581
0.436137
0.435693
0.43525
0.434806
0.434362
0.433919
0.433475
0.433032
0.432588
0.432145
0.431702
0.431259
0.430817
0.430374
0.429932
0.42949
0.429048
0.428606
0.428164
0.427723
0.427282
0.426841
0.4264
0.425959
0.425519
0.425079
0.424638
0.424198
0.423758
0.423318
0.422879
0.422439
0.421999
0.42156
0.42112
0.420681
0.420242
0.419802
0.419363
0.418923
0.418484
0.418044
0.417605
0.417166
0.416726
0.416287
0.415847
0.415407
0.414967
0.414528
0.414088
0.413648
0.413207
0.412767
0.412326
0.411886
0.411445
0.411004
0.410563
0.410122
0.40968
0.409238
0.408796
0.408354
0.407911
0.407469
0.407026
0.406582
0.406139
0.405695
0.405251
0.404806
0.404362
0.403917
0.403471
0.403025
0.402579
0.402132
0.401685
0.401238
0.40079
0.400342
0.399893
0.399444
0.398994
0.398544
0.398093
0.397642
0.397191
0.396738
0.396286
0.395832
0.395379
0.394924
0.394469
0.394013
0.393557
0.3931
0.392642
0.392184
0.391725
0.391265
0.390805
0.390344
0.389882
0.389419
0.388955
0.388491
0.388026
0.38756
0.387093
0.386625
0.386156
0.385686
0.385215
0.384743
0.384271
0.383797
0.383322
0.382846
0.382369
0.38189
0.381411
0.38093
0.380448
0.379965
0.37948
0.378995
0.378508
0.378019
0.377529
0.377038
0.376545
0.376052
0.375556
0.37506
0.374561
0.374062
0.373561
0.373059
0.372555
0.37205
0.371544
0.371036
0.370527
0.370017
0.369506
0.368994
0.36848
0.367966
0.367451
0.366935
0.366419
0.365902
0.365385
0.364869
0.364352
0.363836
0.363322
0.362809
0.362299
0.361791
0.361288
0.360789
0.360296
0.35981
0.359332
0.358864
0.358408
0.357965
0.357536
0.357124
0.35673
0.356357
0.356005
0.355676
0.35537
0.355089
0.354833
0.354602
0.354396
0.354213
0.354053
0.353913
0.353793
0.353689
0.353598
0.353516
0.353437
0.353349
0.353237
0.353072
0.352805
0.352349
0.351555
0.350165
0.347756
0.343682
0.337088
0.327144
0.313657
0.297809
0.282131
0.269161
0.260017
0.254317
0.251046
0.249261
0.248314
0.24782
0.247564
0.247431
0.247364
0.247329
0.247311
0.247302
0.247297
0.247295
0.247293
0.247293
0.247293
0.247293
0.247293
0.247293
0.247293
0.247293
0.247293
0.247293
0.247293
0.247293
0.247294
0.247294
0.247294
0.247294
0.247294
0.247294
0.247294
0.247294
0.247294
0.247294
0.247294
0.247295
0.247295
0.247295
0.247295
0.247295
0.247295
0.247295
0.247295
0.247295
0.247295
0.247294
0.247294
0.247294
0.247294
0.247294
0.247294
0.247294
0.247294
0.247293
0.247293
0.247293
0.247293
0.247293
0.247292
0.247292
0.247292
0.247292
0.247291
0.247291
0.247291
0.247291
0.24729
0.24729
0.24729
0.247289
0.247289
0.247289
0.247289
0.247288
0.247288
0.247288
0.247288
0.247287
0.247287
0.247287
0.247287
0.247286
0.247286
0.247286
0.247286
0.247286
0.247285
0.247285
0.247285
0.247285
0.247285
0.247284
0.247284
0.247284
0.247284
0.247284
0.247283
0.247283
0.247283
0.247283
0.247283
0.247283
0.247282
0.247282
0.247282
0.247282
0.247282
0.247281
0.247281
0.247281
0.247281
0.24728
0.24728
0.24728
0.24728
0.247279
0.247279
0.247279
0.247278
0.247278
0.247277
0.247277
0.247277
0.247276
0.247276
0.247275
0.247275
0.247274
0.247274
0.247273
0.247273
0.247272
0.247272
0.247271
0.247271
0.24727
0.24727
0.247269
0.247269
0.247268
0.247268
0.247267
0.247267
0.247267
0.247266
0.247266
0.247266
0.247265
0.247265
0.247265
0.247265
0.247265
0.247265
0.247265
0.247265
0.247265
0.247265
0.247265
0.247266
0.247266
0.247266
0.247267
0.247267
0.247267
0.247268
0.247268
0.247269
0.247269
0.24727
0.247271
0.247271
0.247272
0.247272
0.247273
0.247273
0.247274
0.247274
0.247275
0.247275
0.247276
0.247276
0.247277
0.247277
0.247277
0.247278
0.247278
0.247278
0.247279
0.247279
0.247279
0.247279
0.247279
0.24728
0.24728
0.24728
0.24728
0.24728
0.24728
0.24728
0.24728
0.247281
0.247281
0.247281
0.247281
0.247281
0.247281
0.247281
0.247281
0.247281
0.247281
0.247281
0.247281
0.247281
0.247281
0.247281
0.247282
0.247282
0.247282
0.247282
0.247282
0.247283
0.247283
0.247283
0.247283
0.247284
0.247284
0.247284
0.247285
0.247285
0.247285
0.247285
0.247286
0.247286
0.247286
0.247286
0.247286
0.247287
0.247287
0.247287
0.247287
0.247287
0.247287
0.247287
0.247288
0.247288
0.247288
0.247288
0.247288
0.247288
0.247288
0.247288
0.247288
0.247288
0.247288
0.247288
0.247288
0.247288
0.247288
0.247288
0.247288
0.247288
0.247288
0.247288
0.247288
0.247288
0.247288
0.247288
0.247288
0.247288
0.247288
0.247288
0.247288
0.247288
0.247288
0.247288
0.247288
0.247288
0.247287
0.247287
0.247287
0.247287
0.247287
0.247287
0.247287
0.247287
0.247287
0.247287
0.247287
0.247287
0.247287
0.247286
0.247286
0.247286
0.247286
0.247286
0.247286
0.247286
0.247286
0.247286
0.247285
0.247285
0.247285
0.247285
0.247285
0.247285
0.247285
0.247284
0.247284
0.247284
0.247284
0.247284
0.247283
0.247283
0.247283
0.247283
0.247283
0.247282
0.247282
0.247282
0.247281
0.247281
0.247281
0.247281
0.24728
0.24728
0.247279
0.247279
0.247279
0.247278
0.247278
0.247277
0.247277
0.247276
0.247276
0.247275
0.247275
0.247274
0.247274
0.247273
0.247273
0.247272
0.247272
0.247271
0.247271
0.24727
0.24727
0.247269
0.247269
0.247268
0.247268
0.247268
0.247267
0.247267
0.247267
0.247266
0.247266
0.247266
0.247266
0.247266
0.247266
0.247266
0.247266
0.247266
0.247266
0.247266
0.247266
0.247266
0.247267
0.247267
0.247267
0.247268
0.247268
0.247268
0.247269
0.247269
0.24727
0.24727
0.247271
0.247271
0.247271
0.247272
0.247272
0.247273
0.247273
0.247274
0.247274
0.247275
0.247275
0.247276
0.247276
0.247276
0.247277
0.247277
0.247277
0.247278
0.247278
0.247278
0.247279
0.247279
0.247279
0.247279
0.247279
0.24728
0.24728
0.24728
0.24728
0.24728
0.24728
0.247281
0.247281
)
;

boundaryField
{
    inlet
    {
        type            fixedValue;
        value           uniform 0.35;
    }
    outlet
    {
        type            zeroGradient;
    }
    emptyWalls
    {
        type            empty;
    }
}


// ************************************************************************* //
