/*--------------------------------*- C++ -*----------------------------------*\
  =========                 |
  \\      /  F ield         | OpenFOAM: The Open Source CFD Toolbox
   \\    /   O peration     | Website:  https://openfoam.org
    \\  /    A nd           | Version:  9
     \\/     M anipulation  |
\*---------------------------------------------------------------------------*/
FoamFile
{
    format      ascii;
    class       volScalarField;
    location    "19100";
    object      krc;
}
// * * * * * * * * * * * * * * * * * * * * * * * * * * * * * * * * * * * * * //

dimensions      [0 0 0 0 0 0 0];

internalField   nonuniform List<scalar> 
1000
(
1.27264e-07
1.19194e-06
4.24546e-06
9.10035e-06
1.57267e-05
2.41377e-05
3.43598e-05
4.64117e-05
6.03001e-05
7.59935e-05
9.34139e-05
0.000112415
0.000132769
0.000154149
0.000176139
0.000198246
0.000219943
0.000240723
0.000260162
0.000277961
0.000294025
0.000308603
0.000323294
0.000345853
0.000413748
0.000702671
0.00310594
0.0246821
0.0403537
0.044514
0.046333
0.0474355
0.0482359
0.0488829
0.049436
0.0499286
0.0503754
0.050789
0.0511732
0.0515351
0.0518759
0.0522003
0.0525079
0.0528026
0.0530841
0.0533557
0.0536172
0.0538713
0.0541176
0.0543588
0.0545943
0.0548266
0.0550552
0.0552821
0.055507
0.055732
0.0559588
0.0561905
0.0564235
0.0566582
0.056895
0.0571347
0.057378
0.0576262
0.0578804
0.0581427
0.0584154
0.0587022
0.059008
0.0593395
0.0597059
0.060118
0.0605871
0.0611214
0.061723
0.0623846
0.0630926
0.0638335
0.0645976
0.065378
0.0661699
0.0669701
0.067776
0.068586
0.0693987
0.0702132
0.0710286
0.0718444
0.0726602
0.0734755
0.0742901
0.0751037
0.0759162
0.0767274
0.0775371
0.0783453
0.0791519
0.0799567
0.0807598
0.0815611
0.0823605
0.0831581
0.0839537
0.0847474
0.0855391
0.0863288
0.0871165
0.0879023
0.088686
0.0894678
0.0902474
0.0910251
0.0918007
0.0925743
0.0933459
0.0941155
0.094883
0.0956485
0.0964121
0.0971736
0.0979331
0.0986907
0.0994462
0.1002
0.100951
0.101701
0.102449
0.103195
0.103938
0.10468
0.10542
0.106158
0.106894
0.107628
0.10836
0.10909
0.109818
0.110544
0.111269
0.111991
0.112712
0.113431
0.114149
0.114864
0.115578
0.116291
0.117001
0.11771
0.118418
0.119124
0.119828
0.12053
0.121231
0.12193
0.122628
0.123324
0.124018
0.124711
0.125402
0.126091
0.126779
0.127465
0.128149
0.128832
0.129513
0.130193
0.130871
0.131547
0.132222
0.132895
0.133567
0.134237
0.134906
0.135574
0.136239
0.136904
0.137567
0.138228
0.138889
0.139547
0.140205
0.140861
0.141515
0.142168
0.14282
0.14347
0.14412
0.144767
0.145414
0.146059
0.146703
0.147345
0.147986
0.148626
0.149265
0.149902
0.150538
0.151173
0.151806
0.152438
0.153069
0.153699
0.154328
0.154955
0.155581
0.156206
0.15683
0.157452
0.158074
0.158694
0.159313
0.159931
0.160547
0.161163
0.161777
0.162391
0.163003
0.163614
0.164224
0.164833
0.165441
0.166048
0.166653
0.167258
0.167861
0.168464
0.169065
0.169666
0.170265
0.170863
0.17146
0.172057
0.172652
0.173246
0.17384
0.174432
0.175023
0.175614
0.176203
0.176791
0.177379
0.177965
0.178551
0.179135
0.179719
0.180302
0.180884
0.181465
0.182045
0.182624
0.183202
0.183779
0.184356
0.184931
0.185506
0.18608
0.186653
0.187225
0.187796
0.188367
0.188936
0.189504
0.190072
0.190639
0.191205
0.19177
0.192334
0.192897
0.193459
0.194021
0.194582
0.195142
0.195701
0.196259
0.196817
0.197374
0.19793
0.198485
0.19904
0.199594
0.200148
0.200701
0.201253
0.201805
0.202356
0.202907
0.203457
0.204007
0.204556
0.205104
0.205652
0.206199
0.206746
0.207292
0.207837
0.208382
0.208926
0.209469
0.210012
0.210554
0.211095
0.211635
0.212175
0.212714
0.213253
0.213791
0.214328
0.214864
0.2154
0.215935
0.21647
0.217004
0.217537
0.21807
0.218602
0.219134
0.219665
0.220196
0.220726
0.221255
0.221784
0.222313
0.222841
0.223368
0.223895
0.224421
0.224947
0.225472
0.225997
0.226521
0.227045
0.227568
0.228091
0.228613
0.229135
0.229656
0.230177
0.230698
0.231218
0.231737
0.232256
0.232774
0.233292
0.23381
0.234327
0.234844
0.23536
0.235876
0.236391
0.236906
0.23742
0.237934
0.238448
0.238961
0.239474
0.239986
0.240498
0.241009
0.241521
0.242031
0.242542
0.243051
0.243561
0.24407
0.244579
0.245087
0.245595
0.246103
0.24661
0.247117
0.247623
0.248129
0.248635
0.24914
0.249645
0.25015
0.250654
0.251159
0.251662
0.252166
0.252669
0.253171
0.253674
0.254176
0.254677
0.255179
0.25568
0.256181
0.256681
0.257181
0.257681
0.258181
0.25868
0.259179
0.259678
0.260177
0.260675
0.261173
0.26167
0.262168
0.262665
0.263162
0.263659
0.264155
0.264651
0.265147
0.265642
0.266138
0.266633
0.267127
0.267622
0.268116
0.26861
0.269103
0.269597
0.27009
0.270582
0.271075
0.271567
0.272059
0.272551
0.273042
0.273533
0.274024
0.274515
0.275006
0.275496
0.275986
0.276477
0.276967
0.277456
0.277946
0.278436
0.278926
0.279416
0.279905
0.280395
0.280885
0.281374
0.281864
0.282354
0.282844
0.283334
0.283824
0.284313
0.284803
0.285293
0.285783
0.286273
0.286763
0.287253
0.287743
0.288232
0.288722
0.289211
0.289701
0.29019
0.290679
0.291168
0.291657
0.292146
0.292634
0.293123
0.293611
0.2941
0.294588
0.295076
0.295564
0.296052
0.29654
0.297028
0.297516
0.298004
0.298491
0.298979
0.299467
0.299955
0.300442
0.30093
0.301418
0.301906
0.302393
0.302881
0.303369
0.303857
0.304345
0.304833
0.305321
0.305809
0.306297
0.306786
0.307274
0.307762
0.308251
0.308739
0.309228
0.309716
0.310205
0.310694
0.311183
0.311672
0.312161
0.31265
0.313139
0.313629
0.314118
0.314608
0.315098
0.315587
0.316077
0.316568
0.317058
0.317548
0.318039
0.318529
0.31902
0.319511
0.320002
0.320493
0.320985
0.321476
0.321968
0.32246
0.322952
0.323445
0.323937
0.32443
0.324923
0.325416
0.325909
0.326402
0.326896
0.32739
0.327884
0.328378
0.328873
0.329368
0.329863
0.330358
0.330854
0.33135
0.331846
0.332342
0.332839
0.333336
0.333833
0.33433
0.334828
0.335326
0.335825
0.336323
0.336822
0.337322
0.337821
0.338321
0.338822
0.339322
0.339823
0.340325
0.340827
0.341329
0.341831
0.342334
0.342837
0.343341
0.343845
0.344349
0.344854
0.345359
0.345864
0.34637
0.346877
0.347383
0.347891
0.348398
0.348906
0.349414
0.349923
0.350432
0.350942
0.351452
0.351962
0.352473
0.352985
0.353496
0.354009
0.354521
0.355035
0.355548
0.356062
0.356577
0.357092
0.357608
0.358125
0.358642
0.359159
0.359677
0.360196
0.360716
0.361236
0.361757
0.362278
0.362801
0.363324
0.363848
0.364373
0.364898
0.365425
0.365952
0.366481
0.36701
0.36754
0.368071
0.368603
0.369136
0.36967
0.370205
0.37074
0.371277
0.371815
0.372353
0.372893
0.373433
0.373975
0.374517
0.37506
0.375604
0.376149
0.376695
0.377242
0.37779
0.378338
0.378888
0.379438
0.37999
0.380542
0.381096
0.38165
0.382205
0.382762
0.383319
0.383877
0.384437
0.384997
0.385559
0.386121
0.386685
0.38725
0.387816
0.388384
0.388952
0.389522
0.390093
0.390665
0.391238
0.391813
0.392389
0.392967
0.393546
0.394126
0.394707
0.39529
0.395875
0.396461
0.397048
0.397637
0.398227
0.398819
0.399413
0.400008
0.400604
0.401202
0.401802
0.402404
0.403007
0.403611
0.404218
0.404826
0.405436
0.406047
0.406661
0.407276
0.407893
0.408511
0.409132
0.409754
0.410378
0.411005
0.411633
0.412262
0.412894
0.413528
0.414163
0.414801
0.41544
0.416081
0.416724
0.417369
0.418016
0.418665
0.419315
0.419968
0.420622
0.421277
0.421935
0.422593
0.423253
0.423914
0.424577
0.42524
0.425904
0.426569
0.427233
0.427897
0.428561
0.429224
0.429885
0.430543
0.431199
0.431851
0.432498
0.43314
0.433775
0.434402
0.435019
0.435625
0.436218
0.436797
0.43736
0.437905
0.438431
0.438935
0.439415
0.439871
0.440301
0.440704
0.441079
0.441425
0.441743
0.442032
0.442293
0.442527
0.442735
0.442918
0.443078
0.443216
0.443335
0.443436
0.443522
0.443594
0.443655
0.443707
0.443752
0.443795
0.443842
0.443902
0.443991
0.444133
0.444377
0.444806
0.445569
0.446924
0.449319
0.453493
0.460595
0.472188
0.489887
0.514288
0.543516
0.572997
0.597784
0.615465
0.626566
0.632963
0.63646
0.638315
0.639284
0.639784
0.64004
0.640169
0.640234
0.640266
0.64028
0.640286
0.640287
0.640286
0.640283
0.640281
0.640278
0.640275
0.640273
0.64027
0.640268
0.640266
0.640264
0.640263
0.640262
0.640261
0.640261
0.640261
0.640261
0.640261
0.640262
0.640263
0.640265
0.640267
0.640269
0.640271
0.640274
0.640276
0.64028
0.640283
0.640286
0.64029
0.640293
0.640297
0.640301
0.640305
0.640309
0.640313
0.640317
0.640321
0.640324
0.640328
0.640332
0.640335
0.640339
0.640342
0.640345
0.640349
0.640352
0.640354
0.640357
0.64036
0.640362
0.640365
0.640367
0.640369
0.640371
0.640373
0.640375
0.640376
0.640378
0.640379
0.640381
0.640382
0.640383
0.640385
0.640386
0.640387
0.640388
0.640389
0.64039
0.640391
0.640392
0.640393
0.640394
0.640395
0.640396
0.640397
0.640398
0.640399
0.6404
0.640401
0.640402
0.640403
0.640404
0.640405
0.640405
0.640406
0.640407
0.640408
0.640409
0.64041
0.640411
0.640412
0.640412
0.640413
0.640414
0.640415
0.640415
0.640416
0.640417
0.640418
0.640418
0.640419
0.64042
0.64042
0.640421
0.640421
0.640422
0.640422
0.640423
0.640423
0.640424
0.640424
0.640425
0.640425
0.640425
0.640426
0.640426
0.640426
0.640427
0.640427
0.640427
0.640427
0.640427
0.640428
0.640428
0.640428
0.640428
0.640428
0.640428
0.640428
0.640428
0.640428
0.640428
0.640428
0.640428
0.640428
0.640428
0.640427
0.640427
0.640427
0.640427
0.640427
0.640426
0.640426
0.640426
0.640425
0.640425
0.640425
0.640424
0.640424
0.640424
0.640423
0.640423
0.640422
0.640422
0.640421
0.640421
0.64042
0.640419
0.640419
0.640418
0.640417
0.640417
0.640416
0.640415
0.640414
0.640413
0.640412
0.640411
0.64041
0.640409
0.640408
0.640407
0.640405
0.640404
0.640402
0.640401
0.640399
0.640398
0.640396
0.640394
0.640392
0.64039
0.640388
0.640385
0.640383
0.64038
0.640378
0.640375
0.640372
0.640369
0.640366
0.640362
0.640359
0.640355
0.640352
0.640348
0.640344
0.64034
0.640337
0.640333
0.640329
0.640326
0.640322
0.640318
0.640315
0.640311
0.640308
0.640305
0.640302
0.6403
0.640296
0.640295
0.640291
0.64029
0.640287
)
;

boundaryField
{
    inlet
    {
        type            calculated;
        value           uniform 3.08149e-33;
    }
    outlet
    {
        type            calculated;
        value           uniform 0.640287;
    }
    emptyWalls
    {
        type            empty;
    }
}


// ************************************************************************* //
