/*--------------------------------*- C++ -*----------------------------------*\
  =========                 |
  \\      /  F ield         | OpenFOAM: The Open Source CFD Toolbox
   \\    /   O peration     | Website:  https://openfoam.org
    \\  /    A nd           | Version:  9
     \\/     M anipulation  |
\*---------------------------------------------------------------------------*/
FoamFile
{
    format      ascii;
    class       volVectorField;
    location    "19100";
    object      Ub;
}
// * * * * * * * * * * * * * * * * * * * * * * * * * * * * * * * * * * * * * //

dimensions      [0 0 0 0 0 0 0];

internalField   nonuniform List<vector> 
1000
(
(1.13619e-05 0 0)
(1.13621e-05 0 0)
(1.13622e-05 0 0)
(1.13623e-05 0 0)
(1.13625e-05 0 0)
(1.13627e-05 0 0)
(1.13629e-05 0 0)
(1.13633e-05 0 0)
(1.13636e-05 0 0)
(1.1364e-05 0 0)
(1.13643e-05 0 0)
(1.13646e-05 0 0)
(1.13651e-05 0 0)
(1.13655e-05 0 0)
(1.1366e-05 0 0)
(1.13666e-05 0 0)
(1.13671e-05 0 0)
(1.13676e-05 0 0)
(1.13681e-05 0 0)
(1.13685e-05 0 0)
(1.13688e-05 0 0)
(1.13693e-05 0 0)
(1.13696e-05 0 0)
(1.13703e-05 0 0)
(1.13726e-05 0 0)
(1.13817e-05 0 0)
(1.14394e-05 0 0)
(1.1606e-05 0 0)
(1.17412e-05 0 0)
(1.17652e-05 0 0)
(1.17721e-05 0 0)
(1.17741e-05 0 0)
(1.1772e-05 0 0)
(1.17663e-05 0 0)
(1.17592e-05 0 0)
(1.17539e-05 0 0)
(1.17522e-05 0 0)
(1.17537e-05 0 0)
(1.17567e-05 0 0)
(1.17604e-05 0 0)
(1.1767e-05 0 0)
(1.17756e-05 0 0)
(1.17835e-05 0 0)
(1.179e-05 0 0)
(1.17948e-05 0 0)
(1.17981e-05 0 0)
(1.18e-05 0 0)
(1.18009e-05 0 0)
(1.18011e-05 0 0)
(1.18004e-05 0 0)
(1.17994e-05 0 0)
(1.17988e-05 0 0)
(1.17983e-05 0 0)
(1.17978e-05 0 0)
(1.17976e-05 0 0)
(1.17976e-05 0 0)
(1.17977e-05 0 0)
(1.17978e-05 0 0)
(1.1798e-05 0 0)
(1.17981e-05 0 0)
(1.17983e-05 0 0)
(1.17983e-05 0 0)
(1.17983e-05 0 0)
(1.17982e-05 0 0)
(1.17981e-05 0 0)
(1.17978e-05 0 0)
(1.17974e-05 0 0)
(1.17968e-05 0 0)
(1.17961e-05 0 0)
(1.17951e-05 0 0)
(1.17939e-05 0 0)
(1.17924e-05 0 0)
(1.17904e-05 0 0)
(1.17879e-05 0 0)
(1.17849e-05 0 0)
(1.17814e-05 0 0)
(1.17776e-05 0 0)
(1.17736e-05 0 0)
(1.17695e-05 0 0)
(1.17651e-05 0 0)
(1.17607e-05 0 0)
(1.17562e-05 0 0)
(1.17516e-05 0 0)
(1.1747e-05 0 0)
(1.17423e-05 0 0)
(1.17375e-05 0 0)
(1.17327e-05 0 0)
(1.17278e-05 0 0)
(1.17229e-05 0 0)
(1.1718e-05 0 0)
(1.1713e-05 0 0)
(1.1708e-05 0 0)
(1.1703e-05 0 0)
(1.16979e-05 0 0)
(1.16928e-05 0 0)
(1.16877e-05 0 0)
(1.16825e-05 0 0)
(1.16773e-05 0 0)
(1.16721e-05 0 0)
(1.16668e-05 0 0)
(1.16615e-05 0 0)
(1.16561e-05 0 0)
(1.16508e-05 0 0)
(1.16454e-05 0 0)
(1.164e-05 0 0)
(1.16346e-05 0 0)
(1.16292e-05 0 0)
(1.16237e-05 0 0)
(1.16183e-05 0 0)
(1.16129e-05 0 0)
(1.16074e-05 0 0)
(1.1602e-05 0 0)
(1.15965e-05 0 0)
(1.15909e-05 0 0)
(1.15854e-05 0 0)
(1.15798e-05 0 0)
(1.15742e-05 0 0)
(1.15686e-05 0 0)
(1.1563e-05 0 0)
(1.15573e-05 0 0)
(1.15517e-05 0 0)
(1.15462e-05 0 0)
(1.15406e-05 0 0)
(1.15351e-05 0 0)
(1.15295e-05 0 0)
(1.15238e-05 0 0)
(1.1518e-05 0 0)
(1.1512e-05 0 0)
(1.15057e-05 0 0)
(1.14992e-05 0 0)
(1.14925e-05 0 0)
(1.14854e-05 0 0)
(1.14781e-05 0 0)
(1.14706e-05 0 0)
(1.14629e-05 0 0)
(1.1455e-05 0 0)
(1.14471e-05 0 0)
(1.14391e-05 0 0)
(1.14312e-05 0 0)
(1.14233e-05 0 0)
(1.14156e-05 0 0)
(1.1408e-05 0 0)
(1.14008e-05 0 0)
(1.13939e-05 0 0)
(1.13873e-05 0 0)
(1.13812e-05 0 0)
(1.13756e-05 0 0)
(1.13704e-05 0 0)
(1.13657e-05 0 0)
(1.13614e-05 0 0)
(1.13574e-05 0 0)
(1.13538e-05 0 0)
(1.13503e-05 0 0)
(1.13469e-05 0 0)
(1.13436e-05 0 0)
(1.13402e-05 0 0)
(1.13366e-05 0 0)
(1.13329e-05 0 0)
(1.1329e-05 0 0)
(1.13249e-05 0 0)
(1.13204e-05 0 0)
(1.13158e-05 0 0)
(1.13109e-05 0 0)
(1.13057e-05 0 0)
(1.13004e-05 0 0)
(1.12949e-05 0 0)
(1.12892e-05 0 0)
(1.12835e-05 0 0)
(1.12777e-05 0 0)
(1.12718e-05 0 0)
(1.12659e-05 0 0)
(1.12599e-05 0 0)
(1.1254e-05 0 0)
(1.12481e-05 0 0)
(1.12422e-05 0 0)
(1.12364e-05 0 0)
(1.12306e-05 0 0)
(1.12248e-05 0 0)
(1.1219e-05 0 0)
(1.12133e-05 0 0)
(1.12076e-05 0 0)
(1.12019e-05 0 0)
(1.11963e-05 0 0)
(1.11906e-05 0 0)
(1.1185e-05 0 0)
(1.11793e-05 0 0)
(1.11737e-05 0 0)
(1.1168e-05 0 0)
(1.11624e-05 0 0)
(1.11567e-05 0 0)
(1.11511e-05 0 0)
(1.11454e-05 0 0)
(1.11397e-05 0 0)
(1.1134e-05 0 0)
(1.11283e-05 0 0)
(1.11226e-05 0 0)
(1.11169e-05 0 0)
(1.11112e-05 0 0)
(1.11054e-05 0 0)
(1.10996e-05 0 0)
(1.10939e-05 0 0)
(1.10881e-05 0 0)
(1.10822e-05 0 0)
(1.10764e-05 0 0)
(1.10706e-05 0 0)
(1.10647e-05 0 0)
(1.10588e-05 0 0)
(1.1053e-05 0 0)
(1.10471e-05 0 0)
(1.10411e-05 0 0)
(1.10352e-05 0 0)
(1.10293e-05 0 0)
(1.10233e-05 0 0)
(1.10173e-05 0 0)
(1.10113e-05 0 0)
(1.10053e-05 0 0)
(1.09993e-05 0 0)
(1.09932e-05 0 0)
(1.09872e-05 0 0)
(1.09811e-05 0 0)
(1.0975e-05 0 0)
(1.09689e-05 0 0)
(1.09628e-05 0 0)
(1.09566e-05 0 0)
(1.09505e-05 0 0)
(1.09443e-05 0 0)
(1.09381e-05 0 0)
(1.09319e-05 0 0)
(1.09257e-05 0 0)
(1.09194e-05 0 0)
(1.09132e-05 0 0)
(1.09069e-05 0 0)
(1.09007e-05 0 0)
(1.08944e-05 0 0)
(1.08881e-05 0 0)
(1.08818e-05 0 0)
(1.08755e-05 0 0)
(1.08691e-05 0 0)
(1.08628e-05 0 0)
(1.08565e-05 0 0)
(1.08501e-05 0 0)
(1.08437e-05 0 0)
(1.08373e-05 0 0)
(1.0831e-05 0 0)
(1.08246e-05 0 0)
(1.08181e-05 0 0)
(1.08117e-05 0 0)
(1.08053e-05 0 0)
(1.07989e-05 0 0)
(1.07925e-05 0 0)
(1.0786e-05 0 0)
(1.07796e-05 0 0)
(1.07732e-05 0 0)
(1.07667e-05 0 0)
(1.07602e-05 0 0)
(1.07537e-05 0 0)
(1.07471e-05 0 0)
(1.07404e-05 0 0)
(1.07337e-05 0 0)
(1.07269e-05 0 0)
(1.07201e-05 0 0)
(1.07131e-05 0 0)
(1.0706e-05 0 0)
(1.06988e-05 0 0)
(1.06914e-05 0 0)
(1.0684e-05 0 0)
(1.06765e-05 0 0)
(1.06689e-05 0 0)
(1.06611e-05 0 0)
(1.06533e-05 0 0)
(1.06455e-05 0 0)
(1.06376e-05 0 0)
(1.06297e-05 0 0)
(1.06218e-05 0 0)
(1.06139e-05 0 0)
(1.06061e-05 0 0)
(1.05984e-05 0 0)
(1.05908e-05 0 0)
(1.05833e-05 0 0)
(1.0576e-05 0 0)
(1.05689e-05 0 0)
(1.05619e-05 0 0)
(1.05552e-05 0 0)
(1.05486e-05 0 0)
(1.05423e-05 0 0)
(1.05362e-05 0 0)
(1.05303e-05 0 0)
(1.05246e-05 0 0)
(1.0519e-05 0 0)
(1.05135e-05 0 0)
(1.05082e-05 0 0)
(1.0503e-05 0 0)
(1.04978e-05 0 0)
(1.04926e-05 0 0)
(1.04874e-05 0 0)
(1.04822e-05 0 0)
(1.04769e-05 0 0)
(1.04715e-05 0 0)
(1.04661e-05 0 0)
(1.04606e-05 0 0)
(1.04549e-05 0 0)
(1.04492e-05 0 0)
(1.04433e-05 0 0)
(1.04373e-05 0 0)
(1.04313e-05 0 0)
(1.04251e-05 0 0)
(1.04189e-05 0 0)
(1.04126e-05 0 0)
(1.04062e-05 0 0)
(1.03997e-05 0 0)
(1.03932e-05 0 0)
(1.03867e-05 0 0)
(1.03802e-05 0 0)
(1.03736e-05 0 0)
(1.0367e-05 0 0)
(1.03604e-05 0 0)
(1.03538e-05 0 0)
(1.03472e-05 0 0)
(1.03406e-05 0 0)
(1.0334e-05 0 0)
(1.03274e-05 0 0)
(1.03208e-05 0 0)
(1.03142e-05 0 0)
(1.03077e-05 0 0)
(1.03011e-05 0 0)
(1.02945e-05 0 0)
(1.0288e-05 0 0)
(1.02814e-05 0 0)
(1.02749e-05 0 0)
(1.02683e-05 0 0)
(1.02617e-05 0 0)
(1.02552e-05 0 0)
(1.02486e-05 0 0)
(1.02421e-05 0 0)
(1.02355e-05 0 0)
(1.02289e-05 0 0)
(1.02223e-05 0 0)
(1.02157e-05 0 0)
(1.02091e-05 0 0)
(1.02025e-05 0 0)
(1.01959e-05 0 0)
(1.01892e-05 0 0)
(1.01826e-05 0 0)
(1.01759e-05 0 0)
(1.01692e-05 0 0)
(1.01625e-05 0 0)
(1.01558e-05 0 0)
(1.01491e-05 0 0)
(1.01424e-05 0 0)
(1.01356e-05 0 0)
(1.01289e-05 0 0)
(1.01221e-05 0 0)
(1.01153e-05 0 0)
(1.01086e-05 0 0)
(1.01017e-05 0 0)
(1.00949e-05 0 0)
(1.00881e-05 0 0)
(1.00812e-05 0 0)
(1.00744e-05 0 0)
(1.00675e-05 0 0)
(1.00606e-05 0 0)
(1.00537e-05 0 0)
(1.00468e-05 0 0)
(1.00398e-05 0 0)
(1.00329e-05 0 0)
(1.00259e-05 0 0)
(1.0019e-05 0 0)
(1.0012e-05 0 0)
(1.0005e-05 0 0)
(9.99794e-06 0 0)
(9.9909e-06 0 0)
(9.98385e-06 0 0)
(9.97679e-06 0 0)
(9.96972e-06 0 0)
(9.96263e-06 0 0)
(9.95552e-06 0 0)
(9.94841e-06 0 0)
(9.94128e-06 0 0)
(9.93414e-06 0 0)
(9.92698e-06 0 0)
(9.91982e-06 0 0)
(9.91264e-06 0 0)
(9.90545e-06 0 0)
(9.89825e-06 0 0)
(9.89104e-06 0 0)
(9.88381e-06 0 0)
(9.87658e-06 0 0)
(9.86933e-06 0 0)
(9.86208e-06 0 0)
(9.85481e-06 0 0)
(9.84753e-06 0 0)
(9.84025e-06 0 0)
(9.83295e-06 0 0)
(9.82564e-06 0 0)
(9.81833e-06 0 0)
(9.811e-06 0 0)
(9.80367e-06 0 0)
(9.79632e-06 0 0)
(9.78897e-06 0 0)
(9.7816e-06 0 0)
(9.77421e-06 0 0)
(9.76681e-06 0 0)
(9.75938e-06 0 0)
(9.75194e-06 0 0)
(9.74446e-06 0 0)
(9.73696e-06 0 0)
(9.72942e-06 0 0)
(9.72184e-06 0 0)
(9.71422e-06 0 0)
(9.70655e-06 0 0)
(9.69883e-06 0 0)
(9.69106e-06 0 0)
(9.68323e-06 0 0)
(9.67534e-06 0 0)
(9.6674e-06 0 0)
(9.65939e-06 0 0)
(9.65132e-06 0 0)
(9.6432e-06 0 0)
(9.63502e-06 0 0)
(9.62678e-06 0 0)
(9.6185e-06 0 0)
(9.61018e-06 0 0)
(9.60183e-06 0 0)
(9.59344e-06 0 0)
(9.58504e-06 0 0)
(9.57663e-06 0 0)
(9.56822e-06 0 0)
(9.55983e-06 0 0)
(9.55146e-06 0 0)
(9.54312e-06 0 0)
(9.53482e-06 0 0)
(9.52658e-06 0 0)
(9.51841e-06 0 0)
(9.51032e-06 0 0)
(9.50231e-06 0 0)
(9.49439e-06 0 0)
(9.48656e-06 0 0)
(9.47884e-06 0 0)
(9.47123e-06 0 0)
(9.46371e-06 0 0)
(9.4563e-06 0 0)
(9.44899e-06 0 0)
(9.44178e-06 0 0)
(9.43465e-06 0 0)
(9.42759e-06 0 0)
(9.42061e-06 0 0)
(9.41368e-06 0 0)
(9.4068e-06 0 0)
(9.39996e-06 0 0)
(9.39313e-06 0 0)
(9.38631e-06 0 0)
(9.37949e-06 0 0)
(9.37265e-06 0 0)
(9.36579e-06 0 0)
(9.35889e-06 0 0)
(9.35196e-06 0 0)
(9.34497e-06 0 0)
(9.33794e-06 0 0)
(9.33085e-06 0 0)
(9.3237e-06 0 0)
(9.31649e-06 0 0)
(9.30922e-06 0 0)
(9.3019e-06 0 0)
(9.29451e-06 0 0)
(9.28707e-06 0 0)
(9.27958e-06 0 0)
(9.27205e-06 0 0)
(9.26446e-06 0 0)
(9.25684e-06 0 0)
(9.24918e-06 0 0)
(9.24149e-06 0 0)
(9.23376e-06 0 0)
(9.22601e-06 0 0)
(9.21824e-06 0 0)
(9.21045e-06 0 0)
(9.20264e-06 0 0)
(9.19482e-06 0 0)
(9.18698e-06 0 0)
(9.17913e-06 0 0)
(9.17127e-06 0 0)
(9.16341e-06 0 0)
(9.15554e-06 0 0)
(9.14766e-06 0 0)
(9.13977e-06 0 0)
(9.13187e-06 0 0)
(9.12398e-06 0 0)
(9.11607e-06 0 0)
(9.10816e-06 0 0)
(9.10024e-06 0 0)
(9.09231e-06 0 0)
(9.08437e-06 0 0)
(9.07643e-06 0 0)
(9.06848e-06 0 0)
(9.06052e-06 0 0)
(9.05254e-06 0 0)
(9.04456e-06 0 0)
(9.03657e-06 0 0)
(9.02856e-06 0 0)
(9.02054e-06 0 0)
(9.01251e-06 0 0)
(9.00446e-06 0 0)
(8.99641e-06 0 0)
(8.98833e-06 0 0)
(8.98024e-06 0 0)
(8.97214e-06 0 0)
(8.96402e-06 0 0)
(8.95589e-06 0 0)
(8.94774e-06 0 0)
(8.93958e-06 0 0)
(8.93139e-06 0 0)
(8.9232e-06 0 0)
(8.91498e-06 0 0)
(8.90675e-06 0 0)
(8.8985e-06 0 0)
(8.89024e-06 0 0)
(8.88195e-06 0 0)
(8.87365e-06 0 0)
(8.86534e-06 0 0)
(8.857e-06 0 0)
(8.84865e-06 0 0)
(8.84028e-06 0 0)
(8.83189e-06 0 0)
(8.82349e-06 0 0)
(8.81506e-06 0 0)
(8.80662e-06 0 0)
(8.79816e-06 0 0)
(8.78968e-06 0 0)
(8.78118e-06 0 0)
(8.77267e-06 0 0)
(8.76413e-06 0 0)
(8.75558e-06 0 0)
(8.74701e-06 0 0)
(8.73842e-06 0 0)
(8.72981e-06 0 0)
(8.72118e-06 0 0)
(8.71253e-06 0 0)
(8.70387e-06 0 0)
(8.69518e-06 0 0)
(8.68648e-06 0 0)
(8.67776e-06 0 0)
(8.66902e-06 0 0)
(8.66026e-06 0 0)
(8.65148e-06 0 0)
(8.64269e-06 0 0)
(8.63387e-06 0 0)
(8.62504e-06 0 0)
(8.61618e-06 0 0)
(8.60731e-06 0 0)
(8.59842e-06 0 0)
(8.58952e-06 0 0)
(8.58059e-06 0 0)
(8.57164e-06 0 0)
(8.56268e-06 0 0)
(8.5537e-06 0 0)
(8.5447e-06 0 0)
(8.53568e-06 0 0)
(8.52664e-06 0 0)
(8.51759e-06 0 0)
(8.50851e-06 0 0)
(8.49942e-06 0 0)
(8.4903e-06 0 0)
(8.48117e-06 0 0)
(8.47201e-06 0 0)
(8.46283e-06 0 0)
(8.45363e-06 0 0)
(8.44441e-06 0 0)
(8.43516e-06 0 0)
(8.42588e-06 0 0)
(8.41658e-06 0 0)
(8.40725e-06 0 0)
(8.39788e-06 0 0)
(8.38849e-06 0 0)
(8.37906e-06 0 0)
(8.36959e-06 0 0)
(8.36009e-06 0 0)
(8.35055e-06 0 0)
(8.34096e-06 0 0)
(8.33134e-06 0 0)
(8.32167e-06 0 0)
(8.31195e-06 0 0)
(8.3022e-06 0 0)
(8.29239e-06 0 0)
(8.28254e-06 0 0)
(8.27265e-06 0 0)
(8.26271e-06 0 0)
(8.25272e-06 0 0)
(8.24269e-06 0 0)
(8.23263e-06 0 0)
(8.22252e-06 0 0)
(8.21238e-06 0 0)
(8.2022e-06 0 0)
(8.19199e-06 0 0)
(8.18176e-06 0 0)
(8.17151e-06 0 0)
(8.16124e-06 0 0)
(8.15095e-06 0 0)
(8.14065e-06 0 0)
(8.13035e-06 0 0)
(8.12005e-06 0 0)
(8.10976e-06 0 0)
(8.09947e-06 0 0)
(8.0892e-06 0 0)
(8.07894e-06 0 0)
(8.06871e-06 0 0)
(8.05851e-06 0 0)
(8.04833e-06 0 0)
(8.03819e-06 0 0)
(8.02808e-06 0 0)
(8.018e-06 0 0)
(8.00797e-06 0 0)
(7.99796e-06 0 0)
(7.988e-06 0 0)
(7.97807e-06 0 0)
(7.96817e-06 0 0)
(7.95831e-06 0 0)
(7.94847e-06 0 0)
(7.93865e-06 0 0)
(7.92885e-06 0 0)
(7.91906e-06 0 0)
(7.90929e-06 0 0)
(7.89951e-06 0 0)
(7.88973e-06 0 0)
(7.87995e-06 0 0)
(7.87015e-06 0 0)
(7.86033e-06 0 0)
(7.85048e-06 0 0)
(7.84061e-06 0 0)
(7.8307e-06 0 0)
(7.82075e-06 0 0)
(7.81076e-06 0 0)
(7.80072e-06 0 0)
(7.79063e-06 0 0)
(7.7805e-06 0 0)
(7.77031e-06 0 0)
(7.76007e-06 0 0)
(7.74978e-06 0 0)
(7.73943e-06 0 0)
(7.72902e-06 0 0)
(7.71856e-06 0 0)
(7.70805e-06 0 0)
(7.69749e-06 0 0)
(7.68687e-06 0 0)
(7.67621e-06 0 0)
(7.66549e-06 0 0)
(7.65473e-06 0 0)
(7.64392e-06 0 0)
(7.63306e-06 0 0)
(7.62216e-06 0 0)
(7.61122e-06 0 0)
(7.60024e-06 0 0)
(7.58921e-06 0 0)
(7.57815e-06 0 0)
(7.56705e-06 0 0)
(7.55591e-06 0 0)
(7.54473e-06 0 0)
(7.53352e-06 0 0)
(7.52227e-06 0 0)
(7.51098e-06 0 0)
(7.49966e-06 0 0)
(7.4883e-06 0 0)
(7.47691e-06 0 0)
(7.46548e-06 0 0)
(7.45402e-06 0 0)
(7.44252e-06 0 0)
(7.43098e-06 0 0)
(7.4194e-06 0 0)
(7.40779e-06 0 0)
(7.39614e-06 0 0)
(7.38445e-06 0 0)
(7.37273e-06 0 0)
(7.36096e-06 0 0)
(7.34915e-06 0 0)
(7.3373e-06 0 0)
(7.32541e-06 0 0)
(7.31347e-06 0 0)
(7.3015e-06 0 0)
(7.28948e-06 0 0)
(7.27742e-06 0 0)
(7.26531e-06 0 0)
(7.25316e-06 0 0)
(7.24095e-06 0 0)
(7.22871e-06 0 0)
(7.21641e-06 0 0)
(7.20407e-06 0 0)
(7.19169e-06 0 0)
(7.17925e-06 0 0)
(7.16676e-06 0 0)
(7.15423e-06 0 0)
(7.14164e-06 0 0)
(7.129e-06 0 0)
(7.11632e-06 0 0)
(7.10358e-06 0 0)
(7.0908e-06 0 0)
(7.07796e-06 0 0)
(7.06507e-06 0 0)
(7.05213e-06 0 0)
(7.03913e-06 0 0)
(7.02609e-06 0 0)
(7.013e-06 0 0)
(6.99986e-06 0 0)
(6.98667e-06 0 0)
(6.97343e-06 0 0)
(6.96014e-06 0 0)
(6.94681e-06 0 0)
(6.93343e-06 0 0)
(6.92001e-06 0 0)
(6.90655e-06 0 0)
(6.89306e-06 0 0)
(6.87952e-06 0 0)
(6.86596e-06 0 0)
(6.85237e-06 0 0)
(6.83876e-06 0 0)
(6.82514e-06 0 0)
(6.81151e-06 0 0)
(6.79788e-06 0 0)
(6.78426e-06 0 0)
(6.77066e-06 0 0)
(6.7571e-06 0 0)
(6.74359e-06 0 0)
(6.73014e-06 0 0)
(6.71679e-06 0 0)
(6.70354e-06 0 0)
(6.69042e-06 0 0)
(6.67746e-06 0 0)
(6.66469e-06 0 0)
(6.65214e-06 0 0)
(6.63985e-06 0 0)
(6.62784e-06 0 0)
(6.61616e-06 0 0)
(6.60484e-06 0 0)
(6.59392e-06 0 0)
(6.58344e-06 0 0)
(6.57344e-06 0 0)
(6.56395e-06 0 0)
(6.55498e-06 0 0)
(6.54657e-06 0 0)
(6.53873e-06 0 0)
(6.53147e-06 0 0)
(6.52481e-06 0 0)
(6.51874e-06 0 0)
(6.51324e-06 0 0)
(6.5083e-06 0 0)
(6.5039e-06 0 0)
(6.5e-06 0 0)
(6.49658e-06 0 0)
(6.49361e-06 0 0)
(6.49103e-06 0 0)
(6.48882e-06 0 0)
(6.48691e-06 0 0)
(6.48528e-06 0 0)
(6.48388e-06 0 0)
(6.48266e-06 0 0)
(6.48155e-06 0 0)
(6.48047e-06 0 0)
(6.47928e-06 0 0)
(6.47777e-06 0 0)
(6.47562e-06 0 0)
(6.47222e-06 0 0)
(6.46651e-06 0 0)
(6.45658e-06 0 0)
(6.43913e-06 0 0)
(6.40833e-06 0 0)
(6.35431e-06 0 0)
(6.26096e-06 0 0)
(6.10406e-06 0 0)
(5.8525e-06 0 0)
(5.4782e-06 0 0)
(4.97852e-06 0 0)
(4.39993e-06 0 0)
(3.8325e-06 0 0)
(3.36345e-06 0 0)
(3.03118e-06 0 0)
(2.82271e-06 0 0)
(2.70241e-06 0 0)
(2.63647e-06 0 0)
(2.60137e-06 0 0)
(2.58294e-06 0 0)
(2.57333e-06 0 0)
(2.56829e-06 0 0)
(2.56563e-06 0 0)
(2.5642e-06 0 0)
(2.5634e-06 0 0)
(2.56292e-06 0 0)
(2.56261e-06 0 0)
(2.56239e-06 0 0)
(2.56222e-06 0 0)
(2.56207e-06 0 0)
(2.56194e-06 0 0)
(2.56182e-06 0 0)
(2.56171e-06 0 0)
(2.56161e-06 0 0)
(2.56152e-06 0 0)
(2.56144e-06 0 0)
(2.56137e-06 0 0)
(2.5613e-06 0 0)
(2.56125e-06 0 0)
(2.5612e-06 0 0)
(2.56117e-06 0 0)
(2.56115e-06 0 0)
(2.56114e-06 0 0)
(2.56113e-06 0 0)
(2.56113e-06 0 0)
(2.56114e-06 0 0)
(2.56116e-06 0 0)
(2.5612e-06 0 0)
(2.56125e-06 0 0)
(2.56131e-06 0 0)
(2.56137e-06 0 0)
(2.56144e-06 0 0)
(2.56152e-06 0 0)
(2.56161e-06 0 0)
(2.5617e-06 0 0)
(2.56179e-06 0 0)
(2.56189e-06 0 0)
(2.562e-06 0 0)
(2.56211e-06 0 0)
(2.56222e-06 0 0)
(2.56233e-06 0 0)
(2.56244e-06 0 0)
(2.56255e-06 0 0)
(2.56266e-06 0 0)
(2.56277e-06 0 0)
(2.56288e-06 0 0)
(2.56298e-06 0 0)
(2.56308e-06 0 0)
(2.56318e-06 0 0)
(2.56328e-06 0 0)
(2.56337e-06 0 0)
(2.56346e-06 0 0)
(2.56355e-06 0 0)
(2.56363e-06 0 0)
(2.5637e-06 0 0)
(2.56378e-06 0 0)
(2.56384e-06 0 0)
(2.56391e-06 0 0)
(2.56397e-06 0 0)
(2.56403e-06 0 0)
(2.56408e-06 0 0)
(2.56413e-06 0 0)
(2.56418e-06 0 0)
(2.56422e-06 0 0)
(2.56426e-06 0 0)
(2.5643e-06 0 0)
(2.56434e-06 0 0)
(2.56438e-06 0 0)
(2.56441e-06 0 0)
(2.56444e-06 0 0)
(2.56447e-06 0 0)
(2.5645e-06 0 0)
(2.56453e-06 0 0)
(2.56456e-06 0 0)
(2.56459e-06 0 0)
(2.56462e-06 0 0)
(2.56464e-06 0 0)
(2.56467e-06 0 0)
(2.5647e-06 0 0)
(2.56473e-06 0 0)
(2.56475e-06 0 0)
(2.56478e-06 0 0)
(2.56481e-06 0 0)
(2.56484e-06 0 0)
(2.56487e-06 0 0)
(2.5649e-06 0 0)
(2.56493e-06 0 0)
(2.56496e-06 0 0)
(2.56499e-06 0 0)
(2.56502e-06 0 0)
(2.56505e-06 0 0)
(2.56508e-06 0 0)
(2.56511e-06 0 0)
(2.56514e-06 0 0)
(2.56517e-06 0 0)
(2.56521e-06 0 0)
(2.56524e-06 0 0)
(2.56527e-06 0 0)
(2.5653e-06 0 0)
(2.56534e-06 0 0)
(2.56537e-06 0 0)
(2.5654e-06 0 0)
(2.56543e-06 0 0)
(2.56546e-06 0 0)
(2.56549e-06 0 0)
(2.56552e-06 0 0)
(2.56555e-06 0 0)
(2.56558e-06 0 0)
(2.56561e-06 0 0)
(2.56564e-06 0 0)
(2.56567e-06 0 0)
(2.5657e-06 0 0)
(2.56572e-06 0 0)
(2.56575e-06 0 0)
(2.56578e-06 0 0)
(2.5658e-06 0 0)
(2.56582e-06 0 0)
(2.56585e-06 0 0)
(2.56587e-06 0 0)
(2.56589e-06 0 0)
(2.56591e-06 0 0)
(2.56593e-06 0 0)
(2.56595e-06 0 0)
(2.56597e-06 0 0)
(2.56598e-06 0 0)
(2.566e-06 0 0)
(2.56601e-06 0 0)
(2.56603e-06 0 0)
(2.56604e-06 0 0)
(2.56605e-06 0 0)
(2.56606e-06 0 0)
(2.56607e-06 0 0)
(2.56608e-06 0 0)
(2.56608e-06 0 0)
(2.56609e-06 0 0)
(2.56609e-06 0 0)
(2.5661e-06 0 0)
(2.5661e-06 0 0)
(2.5661e-06 0 0)
(2.5661e-06 0 0)
(2.5661e-06 0 0)
(2.5661e-06 0 0)
(2.5661e-06 0 0)
(2.5661e-06 0 0)
(2.56609e-06 0 0)
(2.56609e-06 0 0)
(2.56608e-06 0 0)
(2.56608e-06 0 0)
(2.56607e-06 0 0)
(2.56606e-06 0 0)
(2.56605e-06 0 0)
(2.56604e-06 0 0)
(2.56603e-06 0 0)
(2.56601e-06 0 0)
(2.566e-06 0 0)
(2.56599e-06 0 0)
(2.56597e-06 0 0)
(2.56596e-06 0 0)
(2.56594e-06 0 0)
(2.56593e-06 0 0)
(2.56591e-06 0 0)
(2.56589e-06 0 0)
(2.56587e-06 0 0)
(2.56585e-06 0 0)
(2.56583e-06 0 0)
(2.5658e-06 0 0)
(2.56578e-06 0 0)
(2.56576e-06 0 0)
(2.56573e-06 0 0)
(2.5657e-06 0 0)
(2.56567e-06 0 0)
(2.56564e-06 0 0)
(2.56561e-06 0 0)
(2.56558e-06 0 0)
(2.56554e-06 0 0)
(2.5655e-06 0 0)
(2.56546e-06 0 0)
(2.56542e-06 0 0)
(2.56537e-06 0 0)
(2.56533e-06 0 0)
(2.56528e-06 0 0)
(2.56522e-06 0 0)
(2.56517e-06 0 0)
(2.56511e-06 0 0)
(2.56504e-06 0 0)
(2.56498e-06 0 0)
(2.56491e-06 0 0)
(2.56484e-06 0 0)
(2.56476e-06 0 0)
(2.56468e-06 0 0)
(2.5646e-06 0 0)
(2.56451e-06 0 0)
(2.56442e-06 0 0)
(2.56433e-06 0 0)
(2.56424e-06 0 0)
(2.56414e-06 0 0)
(2.56404e-06 0 0)
(2.56394e-06 0 0)
(2.56383e-06 0 0)
(2.56372e-06 0 0)
(2.56361e-06 0 0)
(2.5635e-06 0 0)
(2.56339e-06 0 0)
(2.56328e-06 0 0)
(2.56316e-06 0 0)
(2.56304e-06 0 0)
(2.56293e-06 0 0)
(2.56281e-06 0 0)
(2.56269e-06 0 0)
(2.56258e-06 0 0)
(2.56246e-06 0 0)
(2.56235e-06 0 0)
(2.56224e-06 0 0)
(2.56213e-06 0 0)
(2.56202e-06 0 0)
(2.56192e-06 0 0)
(2.56182e-06 0 0)
(2.56173e-06 0 0)
(2.56164e-06 0 0)
(2.56156e-06 0 0)
(2.56149e-06 0 0)
(2.56142e-06 0 0)
(2.56136e-06 0 0)
)
;

boundaryField
{
    inlet
    {
        type            fixedValue;
        value           uniform (1.13622e-05 0 0);
    }
    outlet
    {
        type            zeroGradient;
    }
    emptyWalls
    {
        type            empty;
    }
}


// ************************************************************************* //
