/*--------------------------------*- C++ -*----------------------------------*\
  =========                 |
  \\      /  F ield         | OpenFOAM: The Open Source CFD Toolbox
   \\    /   O peration     | Website:  https://openfoam.org
    \\  /    A nd           | Version:  9
     \\/     M anipulation  |
\*---------------------------------------------------------------------------*/
FoamFile
{
    format      ascii;
    class       volScalarField;
    location    "103000";
    object      krc;
}
// * * * * * * * * * * * * * * * * * * * * * * * * * * * * * * * * * * * * * //

dimensions      [0 0 0 0 0 0 0];

internalField   nonuniform List<scalar> 
100
(
6.60685e-22
4.18398e-24
6.25834e-24
6.64676e-24
6.03728e-25
5.7363e-24
1.2297e-24
6.19116e-26
4.53534e-24
2.60505e-24
6.5319e-24
1.68703e-26
1.09633e-24
6.02875e-25
3.64562e-24
6.51946e-24
6.54635e-24
5.75701e-24
1.68958e-24
2.86064e-24
2.78572e-24
1.19405e-23
2.2588e-24
8.34842e-26
1.07989e-23
3.25979e-24
4.42666e-24
6.39657e-24
1.35697e-24
1.85709e-23
8.31216e-26
3.27597e-24
1.10532e-23
1.25192e-23
2.48124e-26
7.57361e-24
3.80118e-26
1.26644e-26
2.37833e-24
4.27503e-24
2.79963e-24
2.77656e-24
1.05409e-23
3.57788e-24
2.71438e-24
7.24857e-26
3.52846e-24
4.36051e-24
5.55241e-24
6.35336e-24
2.99274e-25
2.2801e-25
9.29354e-24
4.44915e-24
3.32961e-24
4.32844e-24
3.72822e-24
5.56203e-24
5.20399e-24
4.48399e-24
6.92115e-24
3.91917e-24
1.39009e-24
4.24393e-24
4.94808e-26
6.49263e-24
5.86601e-24
7.39706e-24
6.41087e-24
2.98845e-25
6.01911e-24
4.37758e-24
4.77499e-26
1.06142e-29
1.30494e-25
1.93811e-24
6.57994e-26
9.43407e-26
6.0434e-24
3.32718e-26
6.34584e-24
6.43515e-24
1.53366e-26
4.22777e-24
3.77368e-26
3.04695e-26
6.82791e-26
4.17691e-24
1.36916e-26
4.31017e-24
5.38062e-24
4.15864e-24
3.89667e-26
2.06651e-24
7.90436e-27
2.61589e-27
3.12847e-24
5.6479e-24
6.76508e-24
4.95699e-24
)
;

boundaryField
{
    inlet
    {
        type            calculated;
        value           uniform 6.60685e-22;
    }
    outlet
    {
        type            calculated;
        value           uniform 4.95699e-24;
    }
    emptyWalls
    {
        type            empty;
    }
}


// ************************************************************************* //
