/*--------------------------------*- C++ -*----------------------------------*\
  =========                 |
  \\      /  F ield         | OpenFOAM: The Open Source CFD Toolbox
   \\    /   O peration     | Website:  https://openfoam.org
    \\  /    A nd           | Version:  9
     \\/     M anipulation  |
\*---------------------------------------------------------------------------*/
FoamFile
{
    format      ascii;
    class       volScalarField;
    location    "2400";
    object      kra;
}
// * * * * * * * * * * * * * * * * * * * * * * * * * * * * * * * * * * * * * //

dimensions      [0 0 0 0 0 0 0];

internalField   nonuniform List<scalar> 
100
(
4.00094e-05
2.92821e-05
3.17075e-05
3.0236e-05
3.0251e-05
2.9821e-05
2.95904e-05
2.93252e-05
2.90984e-05
2.88794e-05
2.86743e-05
2.84777e-05
2.82884e-05
2.81037e-05
2.79214e-05
2.7738e-05
2.7549e-05
2.7347e-05
2.74049e-05
2.7465e-05
2.75196e-05
2.75694e-05
2.76164e-05
2.766e-05
2.77012e-05
2.77398e-05
2.77763e-05
2.78108e-05
2.78434e-05
2.78741e-05
2.7903e-05
2.79302e-05
2.79558e-05
2.79797e-05
2.8002e-05
2.80227e-05
2.8042e-05
2.80598e-05
2.80761e-05
2.80909e-05
2.81044e-05
2.81164e-05
2.8127e-05
2.81362e-05
2.81441e-05
2.81506e-05
2.81557e-05
2.81595e-05
2.81619e-05
2.81629e-05
2.81626e-05
2.81609e-05
2.81578e-05
2.81532e-05
2.81472e-05
2.81396e-05
2.81304e-05
2.81195e-05
2.81067e-05
2.80921e-05
2.80753e-05
2.80561e-05
2.80344e-05
2.80096e-05
2.79814e-05
2.79489e-05
2.79112e-05
2.78669e-05
2.78139e-05
2.77486e-05
2.76652e-05
2.75533e-05
2.7392e-05
2.71344e-05
2.66537e-05
2.55065e-05
2.166e-05
9.28507e-06
5.10723e-07
1.54613e-10
2.42389e-18
2.04666e-34
3.0494e-35
3.04932e-35
3.22442e-35
2.71359e-35
3.31369e-35
3.04902e-35
3.2241e-35
3.31344e-35
3.22393e-35
3.31327e-35
3.04863e-35
3.22369e-35
3.31301e-35
2.79492e-35
3.22342e-35
3.31258e-35
3.22174e-35
3.29749e-35
)
;

boundaryField
{
    inlet
    {
        type            calculated;
        value           uniform 1.15823e-05;
    }
    outlet
    {
        type            calculated;
        value           uniform 4.72862e-37;
    }
    emptyWalls
    {
        type            empty;
    }
}


// ************************************************************************* //
