/*--------------------------------*- C++ -*----------------------------------*\
  =========                 |
  \\      /  F ield         | OpenFOAM: The Open Source CFD Toolbox
   \\    /   O peration     | Website:  https://openfoam.org
    \\  /    A nd           | Version:  9
     \\/     M anipulation  |
\*---------------------------------------------------------------------------*/
FoamFile
{
    format      ascii;
    class       volScalarField;
    location    "2400";
    object      p;
}
// * * * * * * * * * * * * * * * * * * * * * * * * * * * * * * * * * * * * * //

dimensions      [0 0 0 0 0 0 0];

internalField   nonuniform List<scalar> 
100
(
5.85224e+06
5.84412e+06
5.83303e+06
5.82281e+06
5.81209e+06
5.80139e+06
5.79055e+06
5.77964e+06
5.76864e+06
5.75757e+06
5.74643e+06
5.73523e+06
5.72396e+06
5.71264e+06
5.70125e+06
5.68981e+06
5.67831e+06
5.66676e+06
5.65514e+06
5.64357e+06
5.63205e+06
5.62058e+06
5.60916e+06
5.59778e+06
5.58644e+06
5.57514e+06
5.56389e+06
5.55267e+06
5.54149e+06
5.53035e+06
5.51925e+06
5.50819e+06
5.49716e+06
5.48618e+06
5.47523e+06
5.46431e+06
5.45343e+06
5.44259e+06
5.43178e+06
5.42101e+06
5.41028e+06
5.39958e+06
5.38891e+06
5.37828e+06
5.36769e+06
5.35713e+06
5.34661e+06
5.33612e+06
5.32566e+06
5.31525e+06
5.30487e+06
5.29452e+06
5.28421e+06
5.27394e+06
5.2637e+06
5.2535e+06
5.24334e+06
5.23322e+06
5.22313e+06
5.21309e+06
5.20308e+06
5.19312e+06
5.1832e+06
5.17332e+06
5.16349e+06
5.15371e+06
5.14399e+06
5.13432e+06
5.12471e+06
5.11517e+06
5.10571e+06
5.09635e+06
5.08711e+06
5.07803e+06
5.06919e+06
5.06072e+06
5.05296e+06
5.04678e+06
5.04324e+06
5.04107e+06
5.03906e+06
5.03706e+06
5.03506e+06
5.03305e+06
5.03105e+06
5.02905e+06
5.02704e+06
5.02504e+06
5.02304e+06
5.02103e+06
5.01903e+06
5.01703e+06
5.01502e+06
5.01302e+06
5.01102e+06
5.00901e+06
5.00701e+06
5.00501e+06
5.003e+06
5.001e+06
)
;

boundaryField
{
    inlet
    {
        type            darcyGradPressure;
        gradient        uniform 4.03515e+06;
        Mf              Mf;
        phi             phi;
        value           uniform 5.86031e+06;
    }
    outlet
    {
        type            fixedValue;
        value           uniform 5e+06;
    }
    emptyWalls
    {
        type            empty;
    }
}


// ************************************************************************* //
