/*--------------------------------*- C++ -*----------------------------------*\
  =========                 |
  \\      /  F ield         | OpenFOAM: The Open Source CFD Toolbox
   \\    /   O peration     | Website:  https://openfoam.org
    \\  /    A nd           | Version:  9
     \\/     M anipulation  |
\*---------------------------------------------------------------------------*/
FoamFile
{
    format      ascii;
    class       surfaceScalarField;
    location    "2400";
    object      phia;
}
// * * * * * * * * * * * * * * * * * * * * * * * * * * * * * * * * * * * * * //

dimensions      [0 2 0 0 0 0 0];

internalField   nonuniform List<scalar> 
99
(
1.42014e-08
1.41895e-08
1.41762e-08
1.41622e-08
1.41474e-08
1.4132e-08
1.4116e-08
1.40994e-08
1.40823e-08
1.40646e-08
1.40463e-08
1.40274e-08
1.40078e-08
1.39873e-08
1.39658e-08
1.39427e-08
1.39175e-08
1.3889e-08
1.38572e-08
1.38284e-08
1.37991e-08
1.37701e-08
1.37407e-08
1.37112e-08
1.36813e-08
1.3651e-08
1.36205e-08
1.35896e-08
1.35584e-08
1.35267e-08
1.34946e-08
1.34621e-08
1.34291e-08
1.33956e-08
1.33616e-08
1.33271e-08
1.32921e-08
1.32566e-08
1.32205e-08
1.31838e-08
1.31466e-08
1.31087e-08
1.30703e-08
1.30312e-08
1.29914e-08
1.2951e-08
1.29098e-08
1.28679e-08
1.28253e-08
1.27818e-08
1.27375e-08
1.26923e-08
1.26461e-08
1.25989e-08
1.25505e-08
1.25009e-08
1.24499e-08
1.23974e-08
1.23432e-08
1.2287e-08
1.22286e-08
1.21676e-08
1.21034e-08
1.20356e-08
1.19631e-08
1.18851e-08
1.17998e-08
1.1705e-08
1.15975e-08
1.14722e-08
1.13209e-08
1.11293e-08
1.08714e-08
1.04932e-08
9.86841e-09
8.64928e-09
5.85469e-09
1.43596e-09
4.85586e-11
1.35586e-14
2.12274e-22
1.79237e-38
2.67052e-39
2.67044e-39
2.82378e-39
2.37642e-39
2.90195e-39
2.67016e-39
2.82348e-39
2.90171e-39
2.82333e-39
2.90155e-39
2.6698e-39
2.8231e-39
2.90131e-39
2.4476e-39
2.82284e-39
2.90091e-39
2.82126e-39
)
;

boundaryField
{
    inlet
    {
        type            calculated;
        value           uniform -1.42126e-08;
    }
    outlet
    {
        type            calculated;
        value           uniform 4.1395e-41;
    }
    emptyWalls
    {
        type            empty;
        value           nonuniform List<scalar> 0();
    }
}


// ************************************************************************* //
