/*--------------------------------*- C++ -*----------------------------------*\
  =========                 |
  \\      /  F ield         | OpenFOAM: The Open Source CFD Toolbox
   \\    /   O peration     | Website:  https://openfoam.org
    \\  /    A nd           | Version:  9
     \\/     M anipulation  |
\*---------------------------------------------------------------------------*/
FoamFile
{
    format      ascii;
    class       surfaceScalarField;
    location    "2400";
    object      phib;
}
// * * * * * * * * * * * * * * * * * * * * * * * * * * * * * * * * * * * * * //

dimensions      [0 2 0 0 0 0 0];

internalField   nonuniform List<scalar> 
99
(
6.09072e-09
6.0902e-09
6.08963e-09
6.08903e-09
6.0884e-09
6.08775e-09
6.08707e-09
6.08636e-09
6.08564e-09
6.08489e-09
6.08412e-09
6.08333e-09
6.0825e-09
6.08164e-09
6.08073e-09
6.07977e-09
6.07871e-09
6.0775e-09
6.07926e-09
6.0799e-09
6.08105e-09
6.08213e-09
6.08337e-09
6.08466e-09
6.086e-09
6.08734e-09
6.08865e-09
6.08994e-09
6.09121e-09
6.09247e-09
6.09373e-09
6.09502e-09
6.09633e-09
6.09769e-09
6.09908e-09
6.10052e-09
6.102e-09
6.10354e-09
6.10514e-09
6.1068e-09
6.10852e-09
6.11032e-09
6.11218e-09
6.11412e-09
6.11614e-09
6.11823e-09
6.1204e-09
6.12264e-09
6.12496e-09
6.12734e-09
6.1298e-09
6.13233e-09
6.13494e-09
6.13763e-09
6.14042e-09
6.14331e-09
6.14632e-09
6.14946e-09
6.15275e-09
6.15622e-09
6.1599e-09
6.16381e-09
6.16801e-09
6.17255e-09
6.17751e-09
6.18299e-09
6.18913e-09
6.19615e-09
6.20437e-09
6.2143e-09
6.22683e-09
6.24354e-09
6.26765e-09
6.30659e-09
6.38109e-09
6.56753e-09
7.2046e-09
8.64729e-09
9.1635e-09
9.18087e-09
9.18077e-09
9.18098e-09
9.18117e-09
9.18131e-09
9.18144e-09
9.18157e-09
9.18171e-09
9.18185e-09
9.18199e-09
9.18213e-09
9.18227e-09
9.1824e-09
9.18254e-09
9.18268e-09
9.18283e-09
9.18298e-09
9.18315e-09
9.18354e-09
9.186e-09
)
;

boundaryField
{
    inlet
    {
        type            calculated;
        value           uniform -6.09112e-09;
    }
    outlet
    {
        type            calculated;
        value           uniform 9.2086e-09;
    }
    emptyWalls
    {
        type            empty;
        value           nonuniform List<scalar> 0();
    }
}


// ************************************************************************* //
