/*--------------------------------*- C++ -*----------------------------------*\
  =========                 |
  \\      /  F ield         | OpenFOAM: The Open Source CFD Toolbox
   \\    /   O peration     | Website:  https://openfoam.org
    \\  /    A nd           | Version:  9
     \\/     M anipulation  |
\*---------------------------------------------------------------------------*/
FoamFile
{
    format      ascii;
    class       surfaceScalarField;
    location    "2400";
    object      phic;
}
// * * * * * * * * * * * * * * * * * * * * * * * * * * * * * * * * * * * * * //

dimensions      [0 2 0 0 0 0 0];

internalField   nonuniform List<scalar> 
99
(
1.16076e-11
2.40633e-11
3.79049e-11
5.25392e-11
6.7955e-11
8.4028e-11
1.00719e-10
1.17992e-10
1.35838e-10
1.54262e-10
1.73291e-10
1.9298e-10
2.1342e-10
2.3476e-10
2.57242e-10
2.81263e-10
3.07509e-10
3.37232e-10
3.67248e-10
3.95386e-10
4.23569e-10
4.51523e-10
4.79629e-10
5.07912e-10
5.36474e-10
5.6535e-10
5.94579e-10
6.24183e-10
6.5418e-10
6.84583e-10
7.15405e-10
7.46655e-10
7.78342e-10
8.10474e-10
8.43061e-10
8.7611e-10
9.09631e-10
9.43635e-10
9.7813e-10
1.01313e-09
1.04865e-09
1.0847e-09
1.12129e-09
1.15845e-09
1.1962e-09
1.23455e-09
1.27353e-09
1.31318e-09
1.35353e-09
1.3946e-09
1.43646e-09
1.47914e-09
1.52272e-09
1.56725e-09
1.61282e-09
1.65952e-09
1.70748e-09
1.75684e-09
1.80776e-09
1.86047e-09
1.91522e-09
1.97235e-09
2.0323e-09
2.09563e-09
2.16309e-09
2.23569e-09
2.31485e-09
2.40258e-09
2.50185e-09
2.61723e-09
2.75606e-09
2.93086e-09
3.16467e-09
3.50394e-09
4.05424e-09
5.08693e-09
7.24444e-09
1.02205e-08
1.10917e-08
1.11229e-08
1.1123e-08
1.11228e-08
1.11226e-08
1.11224e-08
1.11223e-08
1.11222e-08
1.1122e-08
1.11219e-08
1.11217e-08
1.11216e-08
1.11215e-08
1.11213e-08
1.11212e-08
1.11211e-08
1.11209e-08
1.11208e-08
1.11206e-08
1.11202e-08
1.11177e-08
)
;

boundaryField
{
    inlet
    {
        type            calculated;
        value           uniform 0;
    }
    outlet
    {
        type            calculated;
        value           uniform 1.10951e-08;
    }
    emptyWalls
    {
        type            empty;
        value           nonuniform List<scalar> 0();
    }
}


// ************************************************************************* //
