/*--------------------------------*- C++ -*----------------------------------*\
  =========                 |
  \\      /  F ield         | OpenFOAM: The Open Source CFD Toolbox
   \\    /   O peration     | Website:  https://openfoam.org
    \\  /    A nd           | Version:  9
     \\/     M anipulation  |
\*---------------------------------------------------------------------------*/
FoamFile
{
    format      ascii;
    class       volVectorField;
    location    "2400";
    object      Ua;
}
// * * * * * * * * * * * * * * * * * * * * * * * * * * * * * * * * * * * * * //

dimensions      [0 0 0 0 0 0 0];

internalField   nonuniform List<vector> 
100
(
(0 0 8.90238e-06)
(0 0 1.12964e-05)
(0 0 1.12863e-05)
(0 0 1.12755e-05)
(0 0 1.1264e-05)
(0 0 1.1252e-05)
(0 0 1.12395e-05)
(0 0 1.12265e-05)
(0 0 1.12131e-05)
(0 0 1.11993e-05)
(0 0 1.1185e-05)
(0 0 1.11702e-05)
(0 0 1.11549e-05)
(0 0 1.11389e-05)
(0 0 1.11222e-05)
(0 0 1.11044e-05)
(0 0 1.10852e-05)
(0 0 1.10639e-05)
(0 0 1.10399e-05)
(0 0 1.10158e-05)
(0 0 1.09927e-05)
(0 0 1.09694e-05)
(0 0 1.09462e-05)
(0 0 1.09228e-05)
(0 0 1.08991e-05)
(0 0 1.08752e-05)
(0 0 1.0851e-05)
(0 0 1.08266e-05)
(0 0 1.08018e-05)
(0 0 1.07768e-05)
(0 0 1.07514e-05)
(0 0 1.07257e-05)
(0 0 1.06996e-05)
(0 0 1.06732e-05)
(0 0 1.06463e-05)
(0 0 1.06191e-05)
(0 0 1.05914e-05)
(0 0 1.05634e-05)
(0 0 1.05349e-05)
(0 0 1.05059e-05)
(0 0 1.04765e-05)
(0 0 1.04466e-05)
(0 0 1.04163e-05)
(0 0 1.03854e-05)
(0 0 1.0354e-05)
(0 0 1.03221e-05)
(0 0 1.02897e-05)
(0 0 1.02566e-05)
(0 0 1.0223e-05)
(0 0 1.01887e-05)
(0 0 1.01538e-05)
(0 0 1.01182e-05)
(0 0 1.00818e-05)
(0 0 1.00446e-05)
(0 0 1.00066e-05)
(0 0 9.96763e-06)
(0 0 9.92762e-06)
(0 0 9.88645e-06)
(0 0 9.84399e-06)
(0 0 9.80007e-06)
(0 0 9.75447e-06)
(0 0 9.70694e-06)
(0 0 9.65712e-06)
(0 0 9.60459e-06)
(0 0 9.54878e-06)
(0 0 9.48889e-06)
(0 0 9.42389e-06)
(0 0 9.35225e-06)
(0 0 9.27178e-06)
(0 0 9.17915e-06)
(0 0 9.06907e-06)
(0 0 8.93265e-06)
(0 0 8.75382e-06)
(0 0 8.50071e-06)
(0 0 8.10163e-06)
(0 0 7.36795e-06)
(0 0 5.77095e-06)
(0 0 2.90086e-06)
(0 0 5.90671e-07)
(0 0 1.93263e-08)
(0 0 5.39481e-12)
(0 0 8.44611e-20)
(0 0 8.19418e-36)
(0 0 2.1251e-36)
(0 0 2.18608e-36)
(0 0 2.06909e-36)
(0 0 2.10019e-36)
(0 0 2.21707e-36)
(0 0 2.18585e-36)
(0 0 2.27798e-36)
(0 0 2.27792e-36)
(0 0 2.27786e-36)
(0 0 2.21677e-36)
(0 0 2.18555e-36)
(0 0 2.27767e-36)
(0 0 2.12827e-36)
(0 0 2.09704e-36)
(0 0 2.27741e-36)
(0 0 2.27678e-36)
(0 0 1.13901e-36)
)
;

boundaryField
{
    inlet
    {
        type            fixedValue;
        value           uniform (0 0 1.131e-05);
    }
    outlet
    {
        type            zeroGradient;
    }
    emptyWalls
    {
        type            empty;
    }
}


// ************************************************************************* //
