/*--------------------------------*- C++ -*----------------------------------*\
  =========                 |
  \\      /  F ield         | OpenFOAM: The Open Source CFD Toolbox
   \\    /   O peration     | Website:  https://openfoam.org
    \\  /    A nd           | Version:  9
     \\/     M anipulation  |
\*---------------------------------------------------------------------------*/
FoamFile
{
    format      ascii;
    class       volVectorField;
    location    "2400";
    object      Ub;
}
// * * * * * * * * * * * * * * * * * * * * * * * * * * * * * * * * * * * * * //

dimensions      [0 0 0 0 0 0 0];

internalField   nonuniform List<vector> 
100
(
(0 0 7.24102e-06)
(0 0 4.84663e-06)
(0 0 4.8462e-06)
(0 0 4.84574e-06)
(0 0 4.84525e-06)
(0 0 4.84474e-06)
(0 0 4.8442e-06)
(0 0 4.84365e-06)
(0 0 4.84309e-06)
(0 0 4.8425e-06)
(0 0 4.8419e-06)
(0 0 4.84127e-06)
(0 0 4.84063e-06)
(0 0 4.83996e-06)
(0 0 4.83926e-06)
(0 0 4.83851e-06)
(0 0 4.8377e-06)
(0 0 4.8368e-06)
(0 0 4.83702e-06)
(0 0 4.83798e-06)
(0 0 4.83869e-06)
(0 0 4.83958e-06)
(0 0 4.8405e-06)
(0 0 4.84151e-06)
(0 0 4.84255e-06)
(0 0 4.84362e-06)
(0 0 4.84467e-06)
(0 0 4.84571e-06)
(0 0 4.84672e-06)
(0 0 4.84773e-06)
(0 0 4.84873e-06)
(0 0 4.84975e-06)
(0 0 4.85079e-06)
(0 0 4.85185e-06)
(0 0 4.85294e-06)
(0 0 4.85406e-06)
(0 0 4.85523e-06)
(0 0 4.85643e-06)
(0 0 4.85768e-06)
(0 0 4.85897e-06)
(0 0 4.86032e-06)
(0 0 4.86172e-06)
(0 0 4.86318e-06)
(0 0 4.86469e-06)
(0 0 4.86627e-06)
(0 0 4.8679e-06)
(0 0 4.8696e-06)
(0 0 4.87135e-06)
(0 0 4.87316e-06)
(0 0 4.87503e-06)
(0 0 4.87696e-06)
(0 0 4.87895e-06)
(0 0 4.88099e-06)
(0 0 4.8831e-06)
(0 0 4.88528e-06)
(0 0 4.88754e-06)
(0 0 4.88989e-06)
(0 0 4.89234e-06)
(0 0 4.8949e-06)
(0 0 4.89759e-06)
(0 0 4.90043e-06)
(0 0 4.90345e-06)
(0 0 4.90668e-06)
(0 0 4.91016e-06)
(0 0 4.91394e-06)
(0 0 4.91809e-06)
(0 0 4.92271e-06)
(0 0 4.92795e-06)
(0 0 4.93401e-06)
(0 0 4.94123e-06)
(0 0 4.95017e-06)
(0 0 4.9618e-06)
(0 0 4.97804e-06)
(0 0 5.00313e-06)
(0 0 5.04827e-06)
(0 0 5.15209e-06)
(0 0 5.47976e-06)
(0 0 6.30727e-06)
(0 0 7.08669e-06)
(0 0 7.29899e-06)
(0 0 7.30586e-06)
(0 0 7.30591e-06)
(0 0 7.30607e-06)
(0 0 7.3062e-06)
(0 0 7.30631e-06)
(0 0 7.30641e-06)
(0 0 7.30652e-06)
(0 0 7.30663e-06)
(0 0 7.30674e-06)
(0 0 7.30685e-06)
(0 0 7.30696e-06)
(0 0 7.30707e-06)
(0 0 7.30718e-06)
(0 0 7.30729e-06)
(0 0 7.30741e-06)
(0 0 7.30752e-06)
(0 0 7.30765e-06)
(0 0 7.30787e-06)
(0 0 7.30901e-06)
(0 0 7.31898e-06)
)
;

boundaryField
{
    inlet
    {
        type            fixedValue;
        value           uniform (0 0 4.84716e-06);
    }
    outlet
    {
        type            zeroGradient;
    }
    emptyWalls
    {
        type            empty;
    }
}


// ************************************************************************* //
