/*--------------------------------*- C++ -*----------------------------------*\
  =========                 |
  \\      /  F ield         | OpenFOAM: The Open Source CFD Toolbox
   \\    /   O peration     | Website:  https://openfoam.org
    \\  /    A nd           | Version:  9
     \\/     M anipulation  |
\*---------------------------------------------------------------------------*/
FoamFile
{
    format      ascii;
    class       volVectorField;
    location    "2400";
    object      Uc;
}
// * * * * * * * * * * * * * * * * * * * * * * * * * * * * * * * * * * * * * //

dimensions      [0 0 0 0 0 0 0];

internalField   nonuniform List<vector> 
100
(
(0 0 1.37998e-08)
(0 0 1.4193e-08)
(0 0 2.46564e-08)
(0 0 3.59866e-08)
(0 0 4.79431e-08)
(0 0 6.04721e-08)
(0 0 7.35083e-08)
(0 0 8.70222e-08)
(0 0 1.00996e-07)
(0 0 1.15427e-07)
(0 0 1.30329e-07)
(0 0 1.45735e-07)
(0 0 1.61702e-07)
(0 0 1.78325e-07)
(0 0 1.95762e-07)
(0 0 2.14264e-07)
(0 0 2.34265e-07)
(0 0 2.56534e-07)
(0 0 2.80304e-07)
(0 0 3.03443e-07)
(0 0 3.25852e-07)
(0 0 3.48188e-07)
(0 0 3.70494e-07)
(0 0 3.9293e-07)
(0 0 4.15548e-07)
(0 0 4.38402e-07)
(0 0 4.61521e-07)
(0 0 4.8493e-07)
(0 0 5.08644e-07)
(0 0 5.32677e-07)
(0 0 5.57038e-07)
(0 0 5.81735e-07)
(0 0 6.06777e-07)
(0 0 6.3217e-07)
(0 0 6.5792e-07)
(0 0 6.84036e-07)
(0 0 7.10524e-07)
(0 0 7.37391e-07)
(0 0 7.64646e-07)
(0 0 7.92297e-07)
(0 0 8.20355e-07)
(0 0 8.4883e-07)
(0 0 8.77734e-07)
(0 0 9.0708e-07)
(0 0 9.36884e-07)
(0 0 9.67162e-07)
(0 0 9.97934e-07)
(0 0 1.02922e-06)
(0 0 1.06105e-06)
(0 0 1.09345e-06)
(0 0 1.12644e-06)
(0 0 1.16008e-06)
(0 0 1.1944e-06)
(0 0 1.22946e-06)
(0 0 1.26531e-06)
(0 0 1.30202e-06)
(0 0 1.33969e-06)
(0 0 1.37841e-06)
(0 0 1.41831e-06)
(0 0 1.45954e-06)
(0 0 1.5023e-06)
(0 0 1.54681e-06)
(0 0 1.5934e-06)
(0 0 1.64245e-06)
(0 0 1.69449e-06)
(0 0 1.75022e-06)
(0 0 1.8106e-06)
(0 0 1.87701e-06)
(0 0 1.95141e-06)
(0 0 2.03682e-06)
(0 0 2.13797e-06)
(0 0 2.26276e-06)
(0 0 2.42533e-06)
(0 0 2.65335e-06)
(0 0 3.0073e-06)
(0 0 3.63715e-06)
(0 0 4.9065e-06)
(0 0 6.94908e-06)
(0 0 8.47984e-06)
(0 0 8.83888e-06)
(0 0 8.85133e-06)
(0 0 8.85129e-06)
(0 0 8.85113e-06)
(0 0 8.851e-06)
(0 0 8.85089e-06)
(0 0 8.85079e-06)
(0 0 8.85068e-06)
(0 0 8.85057e-06)
(0 0 8.85046e-06)
(0 0 8.85035e-06)
(0 0 8.85024e-06)
(0 0 8.85013e-06)
(0 0 8.85002e-06)
(0 0 8.84991e-06)
(0 0 8.84979e-06)
(0 0 8.84968e-06)
(0 0 8.84955e-06)
(0 0 8.84933e-06)
(0 0 8.84819e-06)
(0 0 8.83822e-06)
)
;

boundaryField
{
    inlet
    {
        type            fixedValue;
        value           uniform (0 0 0);
    }
    outlet
    {
        type            zeroGradient;
    }
    emptyWalls
    {
        type            empty;
    }
}


// ************************************************************************* //
