/*--------------------------------*- C++ -*----------------------------------*\
  =========                 |
  \\      /  F ield         | OpenFOAM: The Open Source CFD Toolbox
   \\    /   O peration     | Website:  https://openfoam.org
    \\  /    A nd           | Version:  9
     \\/     M anipulation  |
\*---------------------------------------------------------------------------*/
FoamFile
{
    format      ascii;
    class       volScalarField;
    location    "17800";
    object      Fa;
}
// * * * * * * * * * * * * * * * * * * * * * * * * * * * * * * * * * * * * * //

dimensions      [0 0 0 0 0 0 0];

internalField   nonuniform List<scalar> 
1000
(
0.194727
0.194828
0.19477
0.194775
0.194748
0.194719
0.194674
0.194641
0.194583
0.194527
0.194468
0.194385
0.194339
0.194217
0.194235
0.194042
0.194148
0.193911
0.194029
0.193837
0.193888
0.193752
0.193618
0.192912
0.18816
0.162262
0.152815
0.150814
0.149956
0.149441
0.149095
0.148849
0.148647
0.148446
0.148253
0.148123
0.148128
0.1483
0.148612
0.148979
0.149301
0.149499
0.149551
0.149492
0.149391
0.149292
0.149132
0.148738
0.148247
0.147748
0.147296
0.146853
0.146514
0.146226
0.146007
0.145855
0.145753
0.145694
0.145663
0.145653
0.145651
0.145653
0.145649
0.145639
0.14562
0.145593
0.14556
0.145524
0.145488
0.145454
0.14542
0.145383
0.145344
0.145303
0.145261
0.145219
0.145177
0.145135
0.145094
0.145054
0.145014
0.144975
0.144937
0.1449
0.144863
0.144828
0.144793
0.144759
0.144726
0.144694
0.144663
0.144632
0.144603
0.144575
0.144547
0.144521
0.144495
0.144471
0.144447
0.144425
0.144403
0.144383
0.144363
0.144344
0.144327
0.144309
0.144294
0.144278
0.144264
0.144251
0.144239
0.144228
0.144219
0.14421
0.144204
0.144198
0.144193
0.144188
0.144184
0.14418
0.144175
0.14417
0.144164
0.144159
0.144154
0.14415
0.144146
0.144144
0.144143
0.144143
0.144143
0.144145
0.144146
0.144146
0.144144
0.144141
0.144135
0.14413
0.144126
0.144127
0.144134
0.144153
0.144184
0.14423
0.144293
0.144372
0.144467
0.144577
0.144701
0.144836
0.144979
0.145129
0.14528
0.14543
0.145575
0.14571
0.14583
0.145932
0.146011
0.146062
0.146084
0.146075
0.146034
0.145961
0.145859
0.145731
0.145581
0.145415
0.145238
0.145055
0.144873
0.144695
0.144527
0.144371
0.144229
0.144104
0.143996
0.143904
0.143829
0.143767
0.143719
0.143682
0.143653
0.143632
0.143616
0.143603
0.143592
0.143582
0.143572
0.143561
0.143548
0.143532
0.143514
0.143494
0.143472
0.143447
0.14342
0.143391
0.14336
0.143328
0.143294
0.14326
0.143225
0.14319
0.143154
0.143119
0.143083
0.143047
0.143012
0.142976
0.142942
0.142907
0.142873
0.14284
0.142807
0.142774
0.142742
0.142711
0.14268
0.14265
0.14262
0.142591
0.142563
0.142535
0.142508
0.142481
0.142455
0.14243
0.142405
0.142381
0.142358
0.142335
0.142313
0.142291
0.142271
0.14225
0.142231
0.142212
0.142193
0.142176
0.142159
0.142143
0.142127
0.142113
0.142099
0.142085
0.142073
0.142061
0.142049
0.142038
0.142028
0.142018
0.142008
0.141999
0.141989
0.141981
0.141972
0.141964
0.141957
0.141949
0.141943
0.141936
0.14193
0.141924
0.141918
0.141913
0.141907
0.141901
0.141896
0.141891
0.141886
0.141882
0.141879
0.141878
0.141879
0.141884
0.141892
0.141905
0.141923
0.141947
0.141978
0.142015
0.14206
0.142112
0.142171
0.142237
0.142311
0.14239
0.142474
0.142563
0.142655
0.142748
0.142841
0.142933
0.143022
0.143105
0.143181
0.143249
0.143306
0.143351
0.143383
0.1434
0.143403
0.143389
0.14336
0.143315
0.143256
0.143182
0.143097
0.143001
0.142896
0.142785
0.142669
0.14255
0.142431
0.142313
0.142197
0.142087
0.141981
0.141882
0.14179
0.141706
0.141629
0.141559
0.141497
0.141441
0.141392
0.141349
0.14131
0.141276
0.141246
0.141219
0.141194
0.141171
0.141149
0.141128
0.141107
0.141087
0.141066
0.141044
0.141022
0.140998
0.140974
0.140949
0.140923
0.140896
0.140868
0.140839
0.140809
0.140779
0.140748
0.140717
0.140685
0.140652
0.14062
0.140587
0.140554
0.140521
0.140488
0.140455
0.140423
0.14039
0.140358
0.140326
0.140294
0.140263
0.140232
0.140201
0.140171
0.140141
0.140111
0.140082
0.140054
0.140026
0.139998
0.139971
0.139944
0.139918
0.139892
0.139867
0.139842
0.139818
0.139794
0.139771
0.139749
0.139727
0.139705
0.139684
0.139664
0.139644
0.139625
0.139606
0.139588
0.13957
0.139553
0.139537
0.139521
0.139506
0.139491
0.139477
0.139463
0.139449
0.139437
0.139424
0.139412
0.1394
0.139389
0.139378
0.139368
0.139358
0.139348
0.139339
0.13933
0.139321
0.139312
0.139304
0.139296
0.139288
0.139281
0.139273
0.139266
0.13926
0.139254
0.139249
0.139244
0.13924
0.139238
0.139236
0.139236
0.139238
0.139243
0.139249
0.139258
0.13927
0.139286
0.139305
0.139327
0.139353
0.139383
0.139418
0.139456
0.139498
0.139544
0.139593
0.139646
0.139701
0.139759
0.139819
0.13988
0.139942
0.140004
0.140065
0.140124
0.140181
0.140234
0.140283
0.140328
0.140366
0.140398
0.140423
0.14044
0.140449
0.140449
0.14044
0.140422
0.140396
0.14036
0.140317
0.140265
0.140205
0.140139
0.140067
0.13999
0.139909
0.139825
0.139738
0.13965
0.139562
0.139474
0.139387
0.139302
0.13922
0.13914
0.139064
0.138992
0.138923
0.138858
0.138797
0.13874
0.138687
0.138638
0.138592
0.138549
0.138509
0.138471
0.138436
0.138403
0.138372
0.138342
0.138313
0.138285
0.138258
0.138231
0.138205
0.138178
0.138152
0.138125
0.138099
0.138072
0.138044
0.138016
0.137988
0.137959
0.13793
0.1379
0.13787
0.13784
0.137809
0.137778
0.137747
0.137715
0.137683
0.137651
0.13762
0.137588
0.137556
0.137524
0.137492
0.13746
0.137429
0.137397
0.137366
0.137335
0.137304
0.137273
0.137243
0.137213
0.137184
0.137155
0.137126
0.137097
0.137069
0.137041
0.137014
0.136987
0.136961
0.136935
0.136909
0.136884
0.136859
0.136835
0.136811
0.136788
0.136765
0.136742
0.13672
0.136698
0.136677
0.136656
0.136636
0.136616
0.136597
0.136578
0.136559
0.136541
0.136524
0.136506
0.136489
0.136473
0.136457
0.136441
0.136426
0.136411
0.136396
0.136382
0.136368
0.136354
0.13634
0.136327
0.136314
0.136301
0.136289
0.136277
0.136265
0.136253
0.136242
0.136231
0.13622
0.136209
0.136199
0.136189
0.136179
0.13617
0.136162
0.136154
0.136146
0.13614
0.136133
0.136129
0.136125
0.136122
0.13612
0.136121
0.136122
0.136126
0.136131
0.136138
0.136147
0.136158
0.136171
0.136187
0.136205
0.136225
0.136248
0.136273
0.1363
0.136329
0.13636
0.136393
0.136428
0.136464
0.136502
0.136539
0.136578
0.136617
0.136656
0.136694
0.136731
0.136768
0.136801
0.136833
0.136863
0.136889
0.136912
0.13693
0.136945
0.136955
0.13696
0.13696
0.136955
0.136944
0.136928
0.136906
0.136878
0.136845
0.136807
0.136764
0.136715
0.136662
0.136605
0.136545
0.136481
0.136413
0.136344
0.136273
0.1362
0.136127
0.136052
0.135978
0.135904
0.135831
0.13576
0.135689
0.135621
0.135554
0.135489
0.135427
0.135366
0.135309
0.135254
0.135202
0.135151
0.135104
0.135058
0.135015
0.134975
0.134936
0.1349
0.134866
0.134833
0.134803
0.134774
0.134747
0.134721
0.134697
0.134674
0.134652
0.134632
0.134613
0.134595
0.134578
0.134561
0.134546
0.134531
0.134517
0.134503
0.13449
0.134477
0.134464
0.134452
0.134439
0.134427
0.134414
0.134401
0.134387
0.134371
0.134351
0.134326
0.134289
0.134233
0.134144
0.133999
0.133768
0.133418
0.132938
0.132382
0.131874
0.131518
0.131315
0.13121
0.131155
0.131125
0.131106
0.131092
0.131081
0.131072
0.131063
0.131055
0.131048
0.131041
0.131034
0.131028
0.131022
0.131016
0.13101
0.131005
0.131
0.130995
0.130991
0.130987
0.130983
0.13098
0.130977
0.130974
0.130972
0.13097
0.130968
0.130966
0.130965
0.130964
0.130964
0.130964
0.130964
0.130964
0.130964
0.130965
0.130966
0.130967
0.130969
0.130971
0.130974
0.130976
0.130979
0.130982
0.130985
0.130988
0.130992
0.130996
0.131
0.131005
0.131009
0.131014
0.131019
0.131025
0.13103
0.131036
0.131042
0.131048
0.131055
0.131062
0.131069
0.131076
0.131084
0.131093
0.131101
0.131111
0.13112
0.13113
0.131141
0.131153
0.131165
0.131178
0.131192
0.131206
0.131222
0.131238
0.131256
0.131275
0.131295
0.131316
0.131338
0.131362
0.131387
0.131414
0.131442
0.131471
0.131502
0.131534
0.131568
0.131603
0.13164
0.131677
0.131717
0.131757
0.131799
0.131841
0.131885
0.131929
0.131974
0.132019
0.132064
0.13211
0.132156
0.132201
0.132245
0.132289
0.132333
0.132374
0.132415
0.132454
0.132491
0.132525
0.132558
0.132588
0.132615
0.13264
0.132661
0.132679
0.132694
0.132704
0.132712
0.132716
0.132717
0.132716
0.132715
0.132709
0.132695
0.132678
0.132658
0.132635
0.13261
0.132582
0.132551
0.132518
0.132484
0.132448
0.13241
0.132372
0.132332
0.132292
0.132252
0.132212
0.132171
0.132132
0.132092
0.132053
0.132016
0.131979
0.131943
0.131909
0.131876
0.131844
0.131814
0.131785
0.131758
0.131732
0.131707
0.131684
0.131662
0.131642
0.131623
0.131605
0.131588
0.131572
0.131557
0.131543
0.13153
0.131517
0.131505
0.131494
0.131483
0.131472
0.131462
0.131452
0.131442
0.131433
0.131423
0.131414
0.131405
0.131396
0.131386
0.131377
0.131368
0.131359
0.131349
0.13134
0.131331
0.131321
0.131311
0.131302
0.131292
0.131282
0.131273
0.131263
0.131253
0.131243
0.131233
0.131223
0.131214
0.131204
0.131194
0.131185
0.131175
0.131166
0.131157
0.131148
0.131139
0.13113
0.131121
0.131113
0.131105
0.131097
0.131089
0.131081
0.131074
0.131067
0.13106
0.131053
0.131047
0.131041
0.131035
0.13103
0.131024
0.131019
0.131015
0.13101
0.131006
0.131002
0.130999
0.130996
0.130993
0.13099
0.130988
0.130986
0.130984
0.130983
0.130982
0.130981
0.130981
0.130981
0.13098
0.130981
0.130981
0.130982
0.130982
0.130985
0.130985
0.130989
0.13099
0.130994
0.130995
0.131
0.131001
0.131007
0.131008
0.131015
0.131017
0.131024
0.131026
0.131035
0.131037
0.131046
0.131049
0.131059
0.131062
0.131073
0.131077
0.131089
0.131093
0.131107
0.131111
0.131127
0.131132
0.13115
0.131154
0.131175
0.13118
0.131203
0.131209
0.131246
)
;

boundaryField
{
    inlet
    {
        type            calculated;
        value           uniform 0.194831;
    }
    outlet
    {
        type            calculated;
        value           uniform 0.131238;
    }
    emptyWalls
    {
        type            empty;
    }
}


// ************************************************************************* //
