/*--------------------------------*- C++ -*----------------------------------*\
  =========                 |
  \\      /  F ield         | OpenFOAM: The Open Source CFD Toolbox
   \\    /   O peration     | Website:  https://openfoam.org
    \\  /    A nd           | Version:  9
     \\/     M anipulation  |
\*---------------------------------------------------------------------------*/
FoamFile
{
    format      ascii;
    class       surfaceScalarField;
    location    "17800";
    object      phib;
}
// * * * * * * * * * * * * * * * * * * * * * * * * * * * * * * * * * * * * * //

dimensions      [0 2 0 0 0 0 0];

internalField   nonuniform List<scalar> 
999
(
1.13625e-09
1.13621e-09
1.13624e-09
1.13624e-09
1.13626e-09
1.13629e-09
1.13631e-09
1.13635e-09
1.13639e-09
1.13643e-09
1.13649e-09
1.13653e-09
1.1366e-09
1.13663e-09
1.13671e-09
1.13672e-09
1.13678e-09
1.13682e-09
1.13684e-09
1.13691e-09
1.13693e-09
1.13704e-09
1.13736e-09
1.13861e-09
1.14657e-09
1.17153e-09
1.17616e-09
1.17742e-09
1.17801e-09
1.17836e-09
1.17857e-09
1.17871e-09
1.17884e-09
1.17897e-09
1.17906e-09
1.17902e-09
1.17877e-09
1.17832e-09
1.17773e-09
1.17714e-09
1.17667e-09
1.17639e-09
1.17629e-09
1.1763e-09
1.17633e-09
1.17639e-09
1.1767e-09
1.17722e-09
1.17781e-09
1.17837e-09
1.17888e-09
1.17932e-09
1.17965e-09
1.17989e-09
1.18003e-09
1.18009e-09
1.18008e-09
1.18002e-09
1.17991e-09
1.17978e-09
1.17964e-09
1.17949e-09
1.17933e-09
1.17917e-09
1.179e-09
1.17881e-09
1.17859e-09
1.17833e-09
1.17802e-09
1.17766e-09
1.17727e-09
1.17686e-09
1.17643e-09
1.17599e-09
1.17553e-09
1.17507e-09
1.1746e-09
1.17412e-09
1.17364e-09
1.17315e-09
1.17265e-09
1.17215e-09
1.17165e-09
1.17114e-09
1.17063e-09
1.17012e-09
1.1696e-09
1.16908e-09
1.16856e-09
1.16803e-09
1.1675e-09
1.16696e-09
1.16643e-09
1.16589e-09
1.16534e-09
1.1648e-09
1.16425e-09
1.1637e-09
1.16314e-09
1.16259e-09
1.16203e-09
1.16146e-09
1.1609e-09
1.16033e-09
1.15976e-09
1.15919e-09
1.15861e-09
1.15804e-09
1.15746e-09
1.15687e-09
1.15629e-09
1.1557e-09
1.15511e-09
1.15451e-09
1.15391e-09
1.15331e-09
1.15271e-09
1.15211e-09
1.1515e-09
1.1509e-09
1.15029e-09
1.14969e-09
1.14908e-09
1.14847e-09
1.14786e-09
1.14725e-09
1.14664e-09
1.14602e-09
1.1454e-09
1.14478e-09
1.14415e-09
1.14353e-09
1.14291e-09
1.14228e-09
1.14166e-09
1.14104e-09
1.14042e-09
1.1398e-09
1.13917e-09
1.13853e-09
1.13789e-09
1.13722e-09
1.13654e-09
1.13583e-09
1.1351e-09
1.13435e-09
1.13357e-09
1.13278e-09
1.13197e-09
1.13115e-09
1.13031e-09
1.12947e-09
1.12863e-09
1.12779e-09
1.12696e-09
1.12615e-09
1.12536e-09
1.12459e-09
1.12386e-09
1.12317e-09
1.12251e-09
1.1219e-09
1.12133e-09
1.1208e-09
1.1203e-09
1.11984e-09
1.1194e-09
1.11898e-09
1.11857e-09
1.11816e-09
1.11774e-09
1.11732e-09
1.11688e-09
1.11642e-09
1.11594e-09
1.11544e-09
1.11491e-09
1.11437e-09
1.1138e-09
1.11321e-09
1.11261e-09
1.11199e-09
1.11136e-09
1.11072e-09
1.11007e-09
1.10943e-09
1.10877e-09
1.10812e-09
1.10747e-09
1.10682e-09
1.10617e-09
1.10552e-09
1.10488e-09
1.10424e-09
1.1036e-09
1.10296e-09
1.10232e-09
1.10169e-09
1.10106e-09
1.10043e-09
1.0998e-09
1.09917e-09
1.09854e-09
1.09791e-09
1.09728e-09
1.09664e-09
1.09601e-09
1.09538e-09
1.09475e-09
1.09411e-09
1.09347e-09
1.09284e-09
1.0922e-09
1.09156e-09
1.09092e-09
1.09027e-09
1.08963e-09
1.08898e-09
1.08834e-09
1.08769e-09
1.08704e-09
1.08639e-09
1.08573e-09
1.08508e-09
1.08442e-09
1.08377e-09
1.08311e-09
1.08245e-09
1.08179e-09
1.08112e-09
1.08046e-09
1.07979e-09
1.07912e-09
1.07845e-09
1.07778e-09
1.07711e-09
1.07644e-09
1.07576e-09
1.07509e-09
1.07441e-09
1.07373e-09
1.07305e-09
1.07236e-09
1.07168e-09
1.07099e-09
1.0703e-09
1.06962e-09
1.06892e-09
1.06823e-09
1.06754e-09
1.06685e-09
1.06615e-09
1.06545e-09
1.06476e-09
1.06406e-09
1.06336e-09
1.06266e-09
1.06195e-09
1.06125e-09
1.06055e-09
1.05984e-09
1.05913e-09
1.05843e-09
1.05772e-09
1.05701e-09
1.0563e-09
1.05559e-09
1.05487e-09
1.05416e-09
1.05345e-09
1.05273e-09
1.05202e-09
1.0513e-09
1.05057e-09
1.04985e-09
1.04912e-09
1.04838e-09
1.04763e-09
1.04688e-09
1.04612e-09
1.04535e-09
1.04457e-09
1.04378e-09
1.04298e-09
1.04217e-09
1.04136e-09
1.04053e-09
1.0397e-09
1.03886e-09
1.03801e-09
1.03716e-09
1.03631e-09
1.03546e-09
1.03461e-09
1.03377e-09
1.03293e-09
1.03211e-09
1.03129e-09
1.03049e-09
1.0297e-09
1.02893e-09
1.02818e-09
1.02745e-09
1.02673e-09
1.02604e-09
1.02536e-09
1.0247e-09
1.02405e-09
1.02342e-09
1.02279e-09
1.02218e-09
1.02157e-09
1.02097e-09
1.02037e-09
1.01976e-09
1.01915e-09
1.01854e-09
1.01792e-09
1.01729e-09
1.01666e-09
1.01601e-09
1.01535e-09
1.01469e-09
1.01401e-09
1.01332e-09
1.01263e-09
1.01193e-09
1.01121e-09
1.0105e-09
1.00977e-09
1.00905e-09
1.00832e-09
1.00758e-09
1.00684e-09
1.0061e-09
1.00536e-09
1.00462e-09
1.00388e-09
1.00313e-09
1.00239e-09
1.00165e-09
1.0009e-09
1.00016e-09
9.99418e-10
9.98677e-10
9.97935e-10
9.97194e-10
9.96453e-10
9.95712e-10
9.94971e-10
9.9423e-10
9.93488e-10
9.92746e-10
9.92004e-10
9.91261e-10
9.90518e-10
9.89773e-10
9.89028e-10
9.88282e-10
9.87535e-10
9.86787e-10
9.86037e-10
9.85287e-10
9.84535e-10
9.83782e-10
9.83027e-10
9.82272e-10
9.81515e-10
9.80756e-10
9.79997e-10
9.79235e-10
9.78473e-10
9.77709e-10
9.76943e-10
9.76176e-10
9.75408e-10
9.74638e-10
9.73866e-10
9.73093e-10
9.72319e-10
9.71543e-10
9.70765e-10
9.69986e-10
9.69205e-10
9.68423e-10
9.67639e-10
9.66853e-10
9.66066e-10
9.65278e-10
9.64487e-10
9.63695e-10
9.62902e-10
9.62106e-10
9.6131e-10
9.60511e-10
9.59711e-10
9.58909e-10
9.58106e-10
9.57301e-10
9.56495e-10
9.55687e-10
9.54877e-10
9.54066e-10
9.53253e-10
9.52439e-10
9.51624e-10
9.50807e-10
9.49988e-10
9.49169e-10
9.48347e-10
9.47525e-10
9.46701e-10
9.45875e-10
9.45048e-10
9.4422e-10
9.43391e-10
9.4256e-10
9.41727e-10
9.40894e-10
9.40059e-10
9.39222e-10
9.38384e-10
9.37544e-10
9.36703e-10
9.35859e-10
9.35013e-10
9.34165e-10
9.33314e-10
9.3246e-10
9.31603e-10
9.30742e-10
9.29877e-10
9.29008e-10
9.28134e-10
9.27255e-10
9.26371e-10
9.25482e-10
9.24588e-10
9.23688e-10
9.22782e-10
9.21871e-10
9.20954e-10
9.20033e-10
9.19106e-10
9.18175e-10
9.1724e-10
9.16301e-10
9.1536e-10
9.14416e-10
9.13471e-10
9.12525e-10
9.1158e-10
9.10636e-10
9.09694e-10
9.08755e-10
9.0782e-10
9.06889e-10
9.05965e-10
9.05046e-10
9.04135e-10
9.03231e-10
9.02336e-10
9.01449e-10
9.0057e-10
8.997e-10
8.98838e-10
8.97985e-10
8.97139e-10
8.963e-10
8.95467e-10
8.9464e-10
8.93817e-10
8.92997e-10
8.92181e-10
8.91365e-10
8.9055e-10
8.89735e-10
8.88917e-10
8.88098e-10
8.87275e-10
8.86448e-10
8.85617e-10
8.8478e-10
8.83938e-10
8.83091e-10
8.82238e-10
8.81378e-10
8.80513e-10
8.79642e-10
8.78766e-10
8.77884e-10
8.76997e-10
8.76105e-10
8.75208e-10
8.74308e-10
8.73403e-10
8.72494e-10
8.71583e-10
8.70668e-10
8.6975e-10
8.6883e-10
8.67908e-10
8.66983e-10
8.66057e-10
8.65129e-10
8.64199e-10
8.63268e-10
8.62335e-10
8.61401e-10
8.60465e-10
8.59529e-10
8.5859e-10
8.57651e-10
8.5671e-10
8.55768e-10
8.54824e-10
8.53879e-10
8.52932e-10
8.51983e-10
8.51033e-10
8.50082e-10
8.49128e-10
8.48173e-10
8.47215e-10
8.46256e-10
8.45295e-10
8.44332e-10
8.43366e-10
8.42399e-10
8.41429e-10
8.40457e-10
8.39483e-10
8.38506e-10
8.37527e-10
8.36546e-10
8.35562e-10
8.34576e-10
8.33587e-10
8.32596e-10
8.31602e-10
8.30605e-10
8.29606e-10
8.28604e-10
8.276e-10
8.26593e-10
8.25583e-10
8.2457e-10
8.23555e-10
8.22537e-10
8.21516e-10
8.20492e-10
8.19466e-10
8.18436e-10
8.17404e-10
8.16369e-10
8.15331e-10
8.1429e-10
8.13246e-10
8.122e-10
8.1115e-10
8.10097e-10
8.09041e-10
8.07982e-10
8.0692e-10
8.05855e-10
8.04787e-10
8.03716e-10
8.02642e-10
8.01565e-10
8.00485e-10
7.99401e-10
7.98315e-10
7.97225e-10
7.96132e-10
7.95036e-10
7.93937e-10
7.92834e-10
7.91728e-10
7.90619e-10
7.89507e-10
7.88392e-10
7.87273e-10
7.86151e-10
7.85026e-10
7.83898e-10
7.82765e-10
7.8163e-10
7.80491e-10
7.79349e-10
7.78202e-10
7.77053e-10
7.75899e-10
7.74742e-10
7.73581e-10
7.72416e-10
7.71247e-10
7.70073e-10
7.68896e-10
7.67713e-10
7.66527e-10
7.65335e-10
7.64138e-10
7.62937e-10
7.6173e-10
7.60518e-10
7.593e-10
7.58076e-10
7.56847e-10
7.55612e-10
7.54371e-10
7.53124e-10
7.51871e-10
7.50611e-10
7.49345e-10
7.48074e-10
7.46796e-10
7.45512e-10
7.44222e-10
7.42926e-10
7.41625e-10
7.40318e-10
7.39006e-10
7.37688e-10
7.36366e-10
7.3504e-10
7.33709e-10
7.32374e-10
7.31036e-10
7.29695e-10
7.2835e-10
7.27003e-10
7.25654e-10
7.24303e-10
7.2295e-10
7.21596e-10
7.2024e-10
7.18884e-10
7.17527e-10
7.16169e-10
7.14811e-10
7.13452e-10
7.12093e-10
7.10734e-10
7.09373e-10
7.08013e-10
7.06651e-10
7.05287e-10
7.03923e-10
7.02557e-10
7.01189e-10
6.99818e-10
6.98445e-10
6.97069e-10
6.95689e-10
6.94306e-10
6.92919e-10
6.91528e-10
6.90133e-10
6.88734e-10
6.87331e-10
6.85923e-10
6.84513e-10
6.83099e-10
6.81683e-10
6.80265e-10
6.78846e-10
6.77427e-10
6.7601e-10
6.74596e-10
6.73189e-10
6.71789e-10
6.70399e-10
6.69022e-10
6.67661e-10
6.6632e-10
6.65003e-10
6.63714e-10
6.62456e-10
6.61235e-10
6.60055e-10
6.58919e-10
6.57833e-10
6.568e-10
6.55825e-10
6.5491e-10
6.54057e-10
6.53269e-10
6.52545e-10
6.51887e-10
6.51293e-10
6.50763e-10
6.50293e-10
6.4988e-10
6.49521e-10
6.49211e-10
6.48947e-10
6.48724e-10
6.48537e-10
6.48378e-10
6.48241e-10
6.48118e-10
6.47997e-10
6.4786e-10
6.47677e-10
6.47395e-10
6.46923e-10
6.46102e-10
6.4465e-10
6.42075e-10
6.37521e-10
6.29569e-10
6.15995e-10
5.93724e-10
5.5947e-10
5.11747e-10
4.53843e-10
3.94642e-10
3.44264e-10
3.08012e-10
2.85118e-10
2.71883e-10
2.64632e-10
2.60779e-10
2.58765e-10
2.57722e-10
2.57185e-10
2.56909e-10
2.56769e-10
2.56698e-10
2.56662e-10
2.56644e-10
2.56636e-10
2.56633e-10
2.56632e-10
2.56632e-10
2.56633e-10
2.56634e-10
2.56636e-10
2.56637e-10
2.56638e-10
2.56639e-10
2.5664e-10
2.56641e-10
2.56641e-10
2.56642e-10
2.56642e-10
2.56643e-10
2.56643e-10
2.56643e-10
2.56643e-10
2.56643e-10
2.56642e-10
2.56642e-10
2.56641e-10
2.56641e-10
2.5664e-10
2.56639e-10
2.56638e-10
2.56637e-10
2.56635e-10
2.56634e-10
2.56632e-10
2.56631e-10
2.56629e-10
2.56627e-10
2.56625e-10
2.56623e-10
2.56621e-10
2.56619e-10
2.56617e-10
2.56615e-10
2.56612e-10
2.5661e-10
2.56607e-10
2.56605e-10
2.56602e-10
2.56599e-10
2.56597e-10
2.56594e-10
2.56591e-10
2.56588e-10
2.56585e-10
2.56581e-10
2.56578e-10
2.56575e-10
2.56571e-10
2.56567e-10
2.56563e-10
2.56559e-10
2.56555e-10
2.56551e-10
2.56546e-10
2.56541e-10
2.56536e-10
2.56531e-10
2.56525e-10
2.56519e-10
2.56513e-10
2.56506e-10
2.56499e-10
2.56492e-10
2.56484e-10
2.56476e-10
2.56468e-10
2.56459e-10
2.5645e-10
2.5644e-10
2.5643e-10
2.56419e-10
2.56408e-10
2.56397e-10
2.56385e-10
2.56373e-10
2.56361e-10
2.56348e-10
2.56335e-10
2.56322e-10
2.56308e-10
2.56295e-10
2.56281e-10
2.56268e-10
2.56254e-10
2.5624e-10
2.56227e-10
2.56214e-10
2.56201e-10
2.56188e-10
2.56176e-10
2.56164e-10
2.56153e-10
2.56142e-10
2.56132e-10
2.56123e-10
2.56115e-10
2.56107e-10
2.561e-10
2.56095e-10
2.5609e-10
2.56086e-10
2.56084e-10
2.56082e-10
2.56082e-10
2.56082e-10
2.56082e-10
2.56084e-10
2.56087e-10
2.56092e-10
2.56098e-10
2.56104e-10
2.56112e-10
2.5612e-10
2.56129e-10
2.56139e-10
2.56149e-10
2.5616e-10
2.56171e-10
2.56183e-10
2.56195e-10
2.56207e-10
2.56219e-10
2.56231e-10
2.56243e-10
2.56255e-10
2.56267e-10
2.56279e-10
2.56291e-10
2.56302e-10
2.56313e-10
2.56324e-10
2.56334e-10
2.56344e-10
2.56353e-10
2.56362e-10
2.5637e-10
2.56378e-10
2.56386e-10
2.56393e-10
2.564e-10
2.56406e-10
2.56412e-10
2.56418e-10
2.56423e-10
2.56428e-10
2.56432e-10
2.56437e-10
2.56441e-10
2.56445e-10
2.56448e-10
2.56452e-10
2.56455e-10
2.56458e-10
2.56461e-10
2.56464e-10
2.56467e-10
2.5647e-10
2.56473e-10
2.56476e-10
2.56479e-10
2.56481e-10
2.56484e-10
2.56487e-10
2.56489e-10
2.56492e-10
2.56495e-10
2.56498e-10
2.565e-10
2.56503e-10
2.56506e-10
2.56509e-10
2.56511e-10
2.56514e-10
2.56517e-10
2.56519e-10
2.56522e-10
2.56525e-10
2.56528e-10
2.5653e-10
2.56533e-10
2.56536e-10
2.56539e-10
2.56541e-10
2.56544e-10
2.56547e-10
2.5655e-10
2.56553e-10
2.56556e-10
2.56558e-10
2.56561e-10
2.56564e-10
2.56567e-10
2.5657e-10
2.56573e-10
2.56576e-10
2.56578e-10
2.56581e-10
2.56584e-10
2.56586e-10
2.56589e-10
2.56591e-10
2.56593e-10
2.56595e-10
2.56597e-10
2.56599e-10
2.56601e-10
2.56603e-10
2.56604e-10
2.56606e-10
2.56607e-10
2.56608e-10
2.56609e-10
2.5661e-10
2.56611e-10
2.56611e-10
2.56612e-10
2.56612e-10
2.56612e-10
2.56613e-10
2.56613e-10
2.56613e-10
2.56613e-10
2.56612e-10
2.56612e-10
2.56612e-10
2.56612e-10
2.56611e-10
2.5661e-10
2.5661e-10
2.56609e-10
2.56608e-10
2.56607e-10
2.56606e-10
2.56605e-10
2.56604e-10
2.56603e-10
2.56601e-10
2.566e-10
2.56598e-10
2.56597e-10
2.56595e-10
2.56594e-10
2.56592e-10
2.5659e-10
2.56588e-10
2.56586e-10
2.56584e-10
2.56581e-10
2.56579e-10
2.56576e-10
2.56573e-10
2.5657e-10
2.56567e-10
2.56564e-10
2.56561e-10
2.56557e-10
2.56554e-10
2.5655e-10
2.56545e-10
2.56541e-10
2.56536e-10
)
;

boundaryField
{
    inlet
    {
        type            calculated;
        value           uniform -1.13622e-09;
    }
    outlet
    {
        type            calculated;
        value           uniform 2.56531e-10;
    }
    emptyWalls
    {
        type            empty;
        value           nonuniform List<scalar> 0();
    }
}


// ************************************************************************* //
