/*--------------------------------*- C++ -*----------------------------------*\
  =========                 |
  \\      /  F ield         | OpenFOAM: The Open Source CFD Toolbox
   \\    /   O peration     | Website:  https://openfoam.org
    \\  /    A nd           | Version:  9
     \\/     M anipulation  |
\*---------------------------------------------------------------------------*/
FoamFile
{
    format      ascii;
    class       surfaceScalarField;
    location    "17800";
    object      phic;
}
// * * * * * * * * * * * * * * * * * * * * * * * * * * * * * * * * * * * * * //

dimensions      [0 2 0 0 0 0 0];

internalField   nonuniform List<scalar> 
999
(
1.71514e-15
7.35335e-15
1.78892e-14
3.29879e-14
5.25348e-14
7.64828e-14
1.04775e-13
1.37301e-13
1.73846e-13
2.14058e-13
2.5739e-13
3.03107e-13
3.5022e-13
3.97658e-13
4.44133e-13
4.88596e-13
5.29992e-13
5.67737e-13
6.01781e-13
6.33403e-13
6.70221e-13
7.48656e-13
1.02838e-12
2.05499e-12
7.47581e-12
1.85339e-11
2.07605e-11
2.14782e-11
2.18544e-11
2.21118e-11
2.23153e-11
2.249e-11
2.26473e-11
2.27931e-11
2.29301e-11
2.30592e-11
2.31806e-11
2.32949e-11
2.34036e-11
2.35087e-11
2.36123e-11
2.37158e-11
2.38196e-11
2.39234e-11
2.40264e-11
2.4129e-11
2.42353e-11
2.43443e-11
2.44551e-11
2.45665e-11
2.46788e-11
2.47921e-11
2.49071e-11
2.5025e-11
2.5145e-11
2.52667e-11
2.53909e-11
2.55185e-11
2.56504e-11
2.57877e-11
2.5932e-11
2.60855e-11
2.62509e-11
2.64323e-11
2.66352e-11
2.68666e-11
2.71346e-11
2.74463e-11
2.78053e-11
2.82092e-11
2.86497e-11
2.91173e-11
2.96047e-11
3.0107e-11
3.06207e-11
3.11435e-11
3.16735e-11
3.22096e-11
3.27507e-11
3.32963e-11
3.38457e-11
3.43986e-11
3.49545e-11
3.55133e-11
3.60747e-11
3.66386e-11
3.72047e-11
3.77729e-11
3.83432e-11
3.89155e-11
3.94896e-11
4.00654e-11
4.0643e-11
4.12223e-11
4.18032e-11
4.23856e-11
4.29696e-11
4.3555e-11
4.41419e-11
4.47302e-11
4.53198e-11
4.59108e-11
4.65031e-11
4.70967e-11
4.76916e-11
4.82877e-11
4.8885e-11
4.94836e-11
5.00833e-11
5.06841e-11
5.12861e-11
5.18892e-11
5.24933e-11
5.30986e-11
5.37048e-11
5.43122e-11
5.49206e-11
5.553e-11
5.61405e-11
5.6752e-11
5.73646e-11
5.79782e-11
5.85929e-11
5.92085e-11
5.98251e-11
6.04426e-11
6.1061e-11
6.16803e-11
6.23005e-11
6.29216e-11
6.35436e-11
6.41664e-11
6.47902e-11
6.5415e-11
6.60408e-11
6.66676e-11
6.72953e-11
6.79239e-11
6.85531e-11
6.91828e-11
6.98128e-11
7.04429e-11
7.10729e-11
7.17027e-11
7.23322e-11
7.29613e-11
7.35902e-11
7.42187e-11
7.48471e-11
7.54754e-11
7.61038e-11
7.67326e-11
7.73619e-11
7.79921e-11
7.86234e-11
7.92561e-11
7.98907e-11
8.05274e-11
8.11665e-11
8.18084e-11
8.24533e-11
8.31014e-11
8.37526e-11
8.44069e-11
8.50642e-11
8.57242e-11
8.63866e-11
8.7051e-11
8.77169e-11
8.83841e-11
8.90519e-11
8.97201e-11
9.03884e-11
9.10565e-11
9.17241e-11
9.23912e-11
9.30578e-11
9.37238e-11
9.43893e-11
9.50543e-11
9.57191e-11
9.63838e-11
9.70485e-11
9.77134e-11
9.83785e-11
9.90441e-11
9.97103e-11
1.00377e-10
1.01045e-10
1.01713e-10
1.02382e-10
1.03053e-10
1.03724e-10
1.04396e-10
1.05069e-10
1.05743e-10
1.06417e-10
1.07093e-10
1.07769e-10
1.08446e-10
1.09125e-10
1.09803e-10
1.10483e-10
1.11163e-10
1.11844e-10
1.12526e-10
1.13209e-10
1.13892e-10
1.14575e-10
1.1526e-10
1.15945e-10
1.16631e-10
1.17317e-10
1.18004e-10
1.18692e-10
1.1938e-10
1.20069e-10
1.20758e-10
1.21448e-10
1.22139e-10
1.22831e-10
1.23522e-10
1.24215e-10
1.24908e-10
1.25602e-10
1.26296e-10
1.26991e-10
1.27687e-10
1.28383e-10
1.2908e-10
1.29777e-10
1.30475e-10
1.31174e-10
1.31873e-10
1.32572e-10
1.33273e-10
1.33974e-10
1.34675e-10
1.35377e-10
1.3608e-10
1.36783e-10
1.37487e-10
1.38191e-10
1.38896e-10
1.39601e-10
1.40307e-10
1.41014e-10
1.41721e-10
1.42429e-10
1.43137e-10
1.43846e-10
1.44556e-10
1.45266e-10
1.45977e-10
1.46688e-10
1.474e-10
1.48113e-10
1.48826e-10
1.4954e-10
1.50254e-10
1.50969e-10
1.51685e-10
1.52401e-10
1.53118e-10
1.53835e-10
1.54554e-10
1.55272e-10
1.55992e-10
1.56712e-10
1.57433e-10
1.58154e-10
1.58876e-10
1.59598e-10
1.60321e-10
1.61043e-10
1.61766e-10
1.62489e-10
1.63212e-10
1.63935e-10
1.64657e-10
1.65379e-10
1.661e-10
1.66821e-10
1.67542e-10
1.68262e-10
1.68981e-10
1.697e-10
1.70418e-10
1.71136e-10
1.71854e-10
1.72573e-10
1.73292e-10
1.74011e-10
1.74731e-10
1.75453e-10
1.76176e-10
1.76901e-10
1.77628e-10
1.78358e-10
1.7909e-10
1.79826e-10
1.80564e-10
1.81306e-10
1.82052e-10
1.828e-10
1.83552e-10
1.84308e-10
1.85066e-10
1.85828e-10
1.86591e-10
1.87358e-10
1.88125e-10
1.88895e-10
1.89666e-10
1.90437e-10
1.91209e-10
1.91982e-10
1.92754e-10
1.93526e-10
1.94298e-10
1.95069e-10
1.9584e-10
1.9661e-10
1.9738e-10
1.98149e-10
1.98918e-10
1.99687e-10
2.00455e-10
2.01223e-10
2.01991e-10
2.0276e-10
2.03528e-10
2.04297e-10
2.05067e-10
2.05837e-10
2.06608e-10
2.0738e-10
2.08152e-10
2.08925e-10
2.097e-10
2.10475e-10
2.11251e-10
2.12028e-10
2.12807e-10
2.13586e-10
2.14366e-10
2.15148e-10
2.1593e-10
2.16713e-10
2.17498e-10
2.18283e-10
2.19069e-10
2.19856e-10
2.20644e-10
2.21433e-10
2.22223e-10
2.23014e-10
2.23806e-10
2.24598e-10
2.25392e-10
2.26186e-10
2.26981e-10
2.27777e-10
2.28574e-10
2.29371e-10
2.3017e-10
2.30969e-10
2.31769e-10
2.3257e-10
2.33371e-10
2.34174e-10
2.34977e-10
2.35781e-10
2.36586e-10
2.37392e-10
2.38198e-10
2.39006e-10
2.39814e-10
2.40623e-10
2.41432e-10
2.42243e-10
2.43054e-10
2.43867e-10
2.4468e-10
2.45493e-10
2.46308e-10
2.47123e-10
2.4794e-10
2.48757e-10
2.49575e-10
2.50394e-10
2.51213e-10
2.52034e-10
2.52855e-10
2.53677e-10
2.545e-10
2.55323e-10
2.56148e-10
2.56973e-10
2.578e-10
2.58627e-10
2.59455e-10
2.60284e-10
2.61114e-10
2.61944e-10
2.62776e-10
2.63609e-10
2.64442e-10
2.65276e-10
2.66112e-10
2.66948e-10
2.67785e-10
2.68623e-10
2.69462e-10
2.70302e-10
2.71143e-10
2.71985e-10
2.72828e-10
2.73672e-10
2.74517e-10
2.75363e-10
2.7621e-10
2.77058e-10
2.77907e-10
2.78756e-10
2.79607e-10
2.80458e-10
2.8131e-10
2.82162e-10
2.83015e-10
2.83869e-10
2.84722e-10
2.85577e-10
2.86431e-10
2.87286e-10
2.8814e-10
2.88995e-10
2.8985e-10
2.90704e-10
2.91559e-10
2.92413e-10
2.93268e-10
2.94122e-10
2.94977e-10
2.95832e-10
2.96687e-10
2.97542e-10
2.98399e-10
2.99256e-10
3.00113e-10
3.00973e-10
3.01833e-10
3.02696e-10
3.0356e-10
3.04426e-10
3.05296e-10
3.06167e-10
3.07042e-10
3.0792e-10
3.08802e-10
3.09688e-10
3.10577e-10
3.1147e-10
3.12367e-10
3.13269e-10
3.14174e-10
3.15084e-10
3.15997e-10
3.16915e-10
3.17836e-10
3.1876e-10
3.19688e-10
3.20619e-10
3.21553e-10
3.22489e-10
3.23427e-10
3.24367e-10
3.25309e-10
3.26252e-10
3.27196e-10
3.28141e-10
3.29086e-10
3.30033e-10
3.3098e-10
3.31927e-10
3.32874e-10
3.33822e-10
3.3477e-10
3.35719e-10
3.36668e-10
3.37617e-10
3.38567e-10
3.39517e-10
3.40468e-10
3.4142e-10
3.42373e-10
3.43327e-10
3.44282e-10
3.45238e-10
3.46196e-10
3.47155e-10
3.48115e-10
3.49077e-10
3.50041e-10
3.51006e-10
3.51973e-10
3.52942e-10
3.53913e-10
3.54886e-10
3.5586e-10
3.56837e-10
3.57815e-10
3.58796e-10
3.59778e-10
3.60763e-10
3.61749e-10
3.62737e-10
3.63728e-10
3.6472e-10
3.65715e-10
3.66711e-10
3.67709e-10
3.6871e-10
3.69712e-10
3.70716e-10
3.71723e-10
3.72731e-10
3.73741e-10
3.74754e-10
3.75768e-10
3.76784e-10
3.77802e-10
3.78822e-10
3.79845e-10
3.80869e-10
3.81895e-10
3.82923e-10
3.83954e-10
3.84986e-10
3.8602e-10
3.87057e-10
3.88095e-10
3.89136e-10
3.90178e-10
3.91223e-10
3.9227e-10
3.93319e-10
3.9437e-10
3.95424e-10
3.96479e-10
3.97537e-10
3.98597e-10
3.99659e-10
4.00723e-10
4.0179e-10
4.02859e-10
4.0393e-10
4.05003e-10
4.06079e-10
4.07157e-10
4.08237e-10
4.0932e-10
4.10406e-10
4.11493e-10
4.12584e-10
4.13676e-10
4.14772e-10
4.15869e-10
4.16969e-10
4.18072e-10
4.19178e-10
4.20286e-10
4.21396e-10
4.2251e-10
4.23626e-10
4.24745e-10
4.25867e-10
4.26991e-10
4.28118e-10
4.29249e-10
4.30382e-10
4.31518e-10
4.32657e-10
4.33799e-10
4.34943e-10
4.36091e-10
4.37242e-10
4.38397e-10
4.39554e-10
4.40714e-10
4.41878e-10
4.43044e-10
4.44214e-10
4.45387e-10
4.46563e-10
4.47742e-10
4.48924e-10
4.5011e-10
4.51298e-10
4.5249e-10
4.53684e-10
4.54882e-10
4.56082e-10
4.57286e-10
4.58492e-10
4.59701e-10
4.60913e-10
4.62128e-10
4.63346e-10
4.64567e-10
4.6579e-10
4.67016e-10
4.68246e-10
4.69478e-10
4.70713e-10
4.71951e-10
4.73192e-10
4.74437e-10
4.75685e-10
4.76936e-10
4.78191e-10
4.7945e-10
4.80713e-10
4.81981e-10
4.83252e-10
4.84529e-10
4.8581e-10
4.87097e-10
4.88389e-10
4.89687e-10
4.90991e-10
4.92301e-10
4.93618e-10
4.94941e-10
4.96272e-10
4.9761e-10
4.98955e-10
5.00309e-10
5.0167e-10
5.0304e-10
5.04418e-10
5.05804e-10
5.07198e-10
5.08601e-10
5.10012e-10
5.11432e-10
5.1286e-10
5.14296e-10
5.15739e-10
5.1719e-10
5.18649e-10
5.20114e-10
5.21587e-10
5.23066e-10
5.24551e-10
5.26041e-10
5.27536e-10
5.29036e-10
5.30539e-10
5.32046e-10
5.33555e-10
5.35067e-10
5.36579e-10
5.38091e-10
5.39601e-10
5.4111e-10
5.42615e-10
5.44115e-10
5.45608e-10
5.47092e-10
5.48564e-10
5.50023e-10
5.51465e-10
5.52888e-10
5.54288e-10
5.55661e-10
5.57003e-10
5.5831e-10
5.59579e-10
5.60804e-10
5.61982e-10
5.63107e-10
5.64177e-10
5.65187e-10
5.66135e-10
5.67019e-10
5.67838e-10
5.68589e-10
5.69274e-10
5.69892e-10
5.70446e-10
5.70938e-10
5.71373e-10
5.71753e-10
5.72082e-10
5.72365e-10
5.72606e-10
5.72812e-10
5.72989e-10
5.73143e-10
5.73284e-10
5.73422e-10
5.73577e-10
5.7378e-10
5.74083e-10
5.7458e-10
5.75433e-10
5.76928e-10
5.79569e-10
5.84225e-10
5.92342e-10
6.0618e-10
6.28861e-10
6.63699e-10
7.12151e-10
7.70806e-10
8.30619e-10
8.81393e-10
9.17863e-10
9.4087e-10
9.54165e-10
9.61451e-10
9.65327e-10
9.67359e-10
9.68416e-10
9.68966e-10
9.69253e-10
9.69404e-10
9.69486e-10
9.69531e-10
9.69558e-10
9.69575e-10
9.69587e-10
9.69596e-10
9.69603e-10
9.69609e-10
9.69615e-10
9.6962e-10
9.69625e-10
9.69629e-10
9.69633e-10
9.69637e-10
9.6964e-10
9.69643e-10
9.69646e-10
9.69648e-10
9.6965e-10
9.69652e-10
9.69653e-10
9.69654e-10
9.69655e-10
9.69655e-10
9.69656e-10
9.69656e-10
9.69656e-10
9.69655e-10
9.69654e-10
9.69653e-10
9.69651e-10
9.6965e-10
9.69648e-10
9.69645e-10
9.69643e-10
9.6964e-10
9.69637e-10
9.69634e-10
9.69631e-10
9.69627e-10
9.69623e-10
9.69619e-10
9.69615e-10
9.6961e-10
9.69605e-10
9.696e-10
9.69595e-10
9.69589e-10
9.69583e-10
9.69577e-10
9.6957e-10
9.69563e-10
9.69556e-10
9.69548e-10
9.6954e-10
9.69531e-10
9.69522e-10
9.69512e-10
9.69502e-10
9.69491e-10
9.69479e-10
9.69467e-10
9.69453e-10
9.69439e-10
9.69424e-10
9.69408e-10
9.6939e-10
9.69372e-10
9.69352e-10
9.69331e-10
9.69309e-10
9.69285e-10
9.6926e-10
9.69233e-10
9.69205e-10
9.69175e-10
9.69143e-10
9.6911e-10
9.69075e-10
9.69039e-10
9.69001e-10
9.68961e-10
9.6892e-10
9.68877e-10
9.68833e-10
9.68788e-10
9.68741e-10
9.68693e-10
9.68645e-10
9.68595e-10
9.68545e-10
9.68495e-10
9.68444e-10
9.68394e-10
9.68343e-10
9.68293e-10
9.68244e-10
9.68195e-10
9.68148e-10
9.68102e-10
9.68058e-10
9.68016e-10
9.67976e-10
9.67938e-10
9.67903e-10
9.67871e-10
9.67842e-10
9.67817e-10
9.67795e-10
9.67776e-10
9.67762e-10
9.67752e-10
9.67745e-10
9.67742e-10
9.67742e-10
9.67742e-10
9.67745e-10
9.67757e-10
9.67774e-10
9.67794e-10
9.67818e-10
9.67845e-10
9.67874e-10
9.67907e-10
9.67941e-10
9.67979e-10
9.68018e-10
9.68058e-10
9.681e-10
9.68143e-10
9.68187e-10
9.68232e-10
9.68277e-10
9.68321e-10
9.68366e-10
9.6841e-10
9.68453e-10
9.68495e-10
9.68537e-10
9.68577e-10
9.68616e-10
9.68653e-10
9.68689e-10
9.68723e-10
9.68756e-10
9.68787e-10
9.68817e-10
9.68845e-10
9.68871e-10
9.68896e-10
9.6892e-10
9.68942e-10
9.68962e-10
9.68982e-10
9.69e-10
9.69017e-10
9.69033e-10
9.69049e-10
9.69063e-10
9.69077e-10
9.6909e-10
9.69102e-10
9.69114e-10
9.69126e-10
9.69137e-10
9.69148e-10
9.69158e-10
9.69169e-10
9.69179e-10
9.6919e-10
9.692e-10
9.6921e-10
9.6922e-10
9.69231e-10
9.69241e-10
9.69251e-10
9.69262e-10
9.69272e-10
9.69283e-10
9.69294e-10
9.69305e-10
9.69316e-10
9.69327e-10
9.69338e-10
9.69349e-10
9.6936e-10
9.69371e-10
9.69382e-10
9.69393e-10
9.69404e-10
9.69415e-10
9.69426e-10
9.69437e-10
9.69448e-10
9.69458e-10
9.69469e-10
9.69479e-10
9.69488e-10
9.69498e-10
9.69507e-10
9.69517e-10
9.69525e-10
9.69534e-10
9.69542e-10
9.6955e-10
9.69558e-10
9.69566e-10
9.69573e-10
9.6958e-10
9.69586e-10
9.69593e-10
9.69599e-10
9.69605e-10
9.6961e-10
9.69616e-10
9.69621e-10
9.69626e-10
9.6963e-10
9.69634e-10
9.69638e-10
9.69642e-10
9.69645e-10
9.69648e-10
9.69651e-10
9.69653e-10
9.69655e-10
9.69657e-10
9.69658e-10
9.69659e-10
9.6966e-10
9.69661e-10
9.69661e-10
9.69661e-10
9.69661e-10
9.6966e-10
9.6966e-10
9.69658e-10
9.69657e-10
9.69655e-10
9.69652e-10
9.6965e-10
9.69647e-10
9.69644e-10
9.6964e-10
9.69637e-10
9.69633e-10
9.69628e-10
9.69624e-10
9.69619e-10
9.69614e-10
9.69608e-10
9.69602e-10
9.69596e-10
9.69589e-10
9.69582e-10
9.69575e-10
9.69567e-10
9.69559e-10
9.6955e-10
9.69541e-10
9.69532e-10
9.69521e-10
9.69511e-10
9.69499e-10
9.69487e-10
9.69474e-10
9.69461e-10
9.69446e-10
9.69431e-10
9.69415e-10
9.69398e-10
)
;

boundaryField
{
    inlet
    {
        type            calculated;
        value           uniform 0;
    }
    outlet
    {
        type            calculated;
        value           uniform 9.69379e-10;
    }
    emptyWalls
    {
        type            empty;
        value           nonuniform List<scalar> 0();
    }
}


// ************************************************************************* //
