/*--------------------------------*- C++ -*----------------------------------*\
  =========                 |
  \\      /  F ield         | OpenFOAM: The Open Source CFD Toolbox
   \\    /   O peration     | Website:  https://openfoam.org
    \\  /    A nd           | Version:  9
     \\/     M anipulation  |
\*---------------------------------------------------------------------------*/
FoamFile
{
    format      ascii;
    class       volScalarField;
    location    "27500";
    object      kra;
}
// * * * * * * * * * * * * * * * * * * * * * * * * * * * * * * * * * * * * * //

dimensions      [0 0 0 0 0 0 0];

internalField   nonuniform List<scalar> 
1000
(
0.000236615
0.00023734
0.000238286
0.000239248
0.000240213
0.000241177
0.000242153
0.000243137
0.000244121
0.000245136
0.000246126
0.000247176
0.000248173
0.000249256
0.00025026
0.00025136
0.000252378
0.000253462
0.000254497
0.000255545
0.000256569
0.000257573
0.000258542
0.000259476
0.000260357
0.000261186
0.000261954
0.000262655
0.000263298
0.000263858
0.000264387
0.000264805
0.000265248
0.000265567
0.000266007
0.000266636
0.000268708
0.000276285
0.000314242
0.00056873
0.000829923
0.000880871
0.000896562
0.000904157
0.00090882
0.000912066
0.000914606
0.000916893
0.000919069
0.000920981
0.000922387
0.000923252
0.000923875
0.000924781
0.000926449
0.000929086
0.000932541
0.000936377
0.000940045
0.000943062
0.000945152
0.000946299
0.000946722
0.00094677
0.000946703
0.000946001
0.00094351
0.000940707
0.000937983
0.000935544
0.000933495
0.000931873
0.000930666
0.000929834
0.000929316
0.000929045
0.000928905
0.000928843
0.000928759
0.000928735
0.000928637
0.000928438
0.000928132
0.000927725
0.000927241
0.000926688
0.000926082
0.000925427
0.000924739
0.000924014
0.000923266
0.000922488
0.000921691
0.000920867
0.000920022
0.000919148
0.000918251
0.000917318
0.000916351
0.000915338
0.000914274
0.000913139
0.000911924
0.000910601
0.000909153
0.000907551
0.000905781
0.000903834
0.000901727
0.00089949
0.000897161
0.000894773
0.000892348
0.0008899
0.000887439
0.000884973
0.00088251
0.000880055
0.000877613
0.00087519
0.000872789
0.000870411
0.000868059
0.000865729
0.000863422
0.000861133
0.000858861
0.000856603
0.000854356
0.00085212
0.000849897
0.000847689
0.000845498
0.000843329
0.000841187
0.000839073
0.000836993
0.000834944
0.000832924
0.000830925
0.00082894
0.000826961
0.000824983
0.000823004
0.000821023
0.000819039
0.000817052
0.000815066
0.000813089
0.000811136
0.00080923
0.000807398
0.000805667
0.000804059
0.00080259
0.000801262
0.000800071
0.000799
0.00079803
0.00079714
0.000796306
0.000795506
0.000794721
0.000793929
0.000793109
0.000792235
0.000791283
0.000790227
0.000789039
0.000787698
0.000786187
0.000784493
0.000782616
0.000780562
0.000778348
0.000775997
0.000773538
0.000771005
0.000768431
0.000765851
0.000763295
0.000760789
0.000758355
0.000756009
0.00075376
0.000751614
0.00074957
0.000747625
0.000745771
0.000743999
0.000742298
0.000740657
0.000739065
0.000737511
0.000735985
0.000734479
0.000732985
0.000731499
0.000730015
0.00072853
0.000727042
0.00072555
0.000724055
0.000722555
0.000721052
0.000719547
0.000718042
0.000716537
0.000715034
0.000713534
0.000712039
0.000710549
0.000709065
0.000707589
0.00070612
0.00070466
0.000703209
0.000701768
0.000700335
0.000698913
0.000697501
0.0006961
0.000694709
0.000693329
0.000691959
0.000690601
0.000689252
0.000687915
0.000686588
0.000685271
0.000683964
0.000682668
0.000681381
0.000680104
0.000678837
0.00067758
0.000676333
0.000675097
0.000673871
0.000672656
0.000671451
0.000670258
0.000669075
0.000667902
0.000666739
0.000665585
0.000664439
0.000663302
0.000662172
0.00066105
0.000659934
0.000658827
0.000657726
0.000656634
0.00065555
0.000654474
0.000653408
0.00065235
0.000651302
0.000650264
0.000649233
0.000648211
0.000647195
0.000646184
0.000645177
0.000644172
0.000643168
0.000642165
0.000641162
0.000640162
0.000639165
0.000638177
0.000637198
0.000636237
0.000635295
0.000634382
0.000633498
0.000632655
0.000631849
0.000631092
0.000630377
0.000629716
0.000629096
0.000628531
0.000628002
0.000627522
0.000627067
0.000626652
0.000626246
0.000625867
0.000625479
0.000625099
0.000624689
0.000624269
0.000623795
0.000623293
0.000622716
0.000622096
0.000621383
0.000620618
0.000619751
0.000618828
0.000617803
0.000616729
0.000615561
0.000614357
0.000613077
0.00061178
0.000610428
0.00060908
0.000607701
0.000606346
0.00060498
0.000603655
0.000602335
0.000601066
0.000599815
0.000598618
0.000597444
0.000596322
0.000595226
0.000594176
0.000593149
0.000592161
0.000591191
0.000590252
0.000589327
0.000588423
0.000587528
0.000586647
0.000585771
0.000584904
0.000584038
0.000583177
0.000582316
0.000581457
0.000580596
0.000579736
0.000578874
0.000578012
0.000577149
0.000576287
0.000575424
0.000574562
0.0005737
0.00057284
0.000571981
0.000571124
0.00057027
0.000569419
0.000568571
0.000567726
0.000566885
0.000566049
0.000565216
0.000564389
0.000563565
0.000562747
0.000561933
0.000561125
0.00056032
0.000559522
0.000558728
0.00055794
0.000557156
0.000556378
0.000555604
0.000554837
0.000554074
0.000553317
0.000552564
0.000551817
0.000551075
0.000550339
0.000549607
0.000548882
0.00054816
0.000547446
0.000546734
0.00054603
0.000545327
0.000544632
0.000543939
0.000543254
0.000542568
0.000541892
0.000541215
0.000540547
0.000539879
0.000539219
0.000538559
0.000537908
0.000537256
0.000536614
0.00053597
0.000535336
0.0005347
0.000534073
0.000533443
0.000532823
0.000532198
0.000531583
0.000530962
0.000530351
0.000529735
0.000529129
0.000528518
0.000527918
0.000527316
0.000526727
0.000526139
0.000525566
0.000524997
0.000524448
0.000523906
0.000523388
0.00052288
0.0005224
0.000521933
0.000521495
0.000521073
0.000520682
0.000520305
0.00051996
0.000519627
0.000519323
0.000519027
0.000518758
0.00051849
0.000518244
0.000517991
0.000517753
0.0005175
0.000517254
0.000516983
0.000516712
0.000516405
0.000516091
0.000515731
0.00051536
0.000514933
0.000514491
0.000513987
0.000513467
0.000512882
0.000512284
0.000511619
0.000510946
0.000510208
0.000509472
0.000508676
0.00050789
0.000507051
0.000506234
0.000505371
0.000504541
0.000503672
0.000502845
0.000501985
0.000501176
0.000500338
0.000499557
0.000498749
0.000498003
0.000497228
0.000496518
0.000495779
0.000495105
0.000494398
0.000493757
0.000493079
0.000492467
0.000491812
0.000491223
0.000490586
0.000490016
0.000489392
0.000488835
0.00048822
0.000487672
0.000487062
0.000486521
0.000485912
0.000485376
0.000484767
0.000484235
0.000483625
0.000483095
0.000482483
0.000481956
0.000481342
0.000480817
0.000480202
0.000479681
0.000479065
0.000478548
0.000477933
0.000477419
0.000476806
0.000476296
0.000475686
0.00047518
0.000474574
0.000474073
0.000473472
0.000472974
0.00047238
0.000471885
0.000471298
0.000470807
0.000470229
0.00046974
0.000469171
0.000468685
0.000468125
0.000467642
0.000467091
0.000466611
0.00046607
0.000465592
0.000465061
0.000464586
0.000464065
0.000463593
0.000463081
0.000462612
0.000462109
0.000461644
0.000461148
0.000460687
0.000460199
0.000459743
0.00045926
0.00045881
0.000458333
0.000457888
0.000457416
0.000456976
0.000456509
0.000456076
0.000455612
0.000455185
0.000454724
0.000454304
0.000453846
0.000453433
0.000452976
0.00045257
0.000452113
0.000451715
0.000451259
0.000450868
0.000450411
0.000450029
0.000449572
0.000449199
0.000448743
0.000448381
0.000447927
0.000447579
0.000447128
0.000446796
0.000446352
0.000446038
0.000445605
0.000445312
0.000444892
0.000444624
0.000444221
0.000443979
0.000443595
0.000443381
0.000443019
0.000442833
0.000442494
0.000442334
0.000442017
0.000441881
0.000441583
0.000441468
0.000441186
0.000441086
0.000440814
0.000440722
0.000440455
0.000440363
0.000440091
0.000439992
0.000439708
0.000439593
0.000439288
0.000439148
0.000438814
0.000438641
0.000438272
0.00043806
0.000437649
0.000437395
0.000436939
0.000436639
0.000436138
0.000435793
0.000435248
0.00043486
0.000434275
0.00043385
0.000433232
0.000432777
0.000432132
0.000431655
0.000430993
0.000430502
0.000429831
0.000429336
0.000428664
0.000428172
0.000427507
0.000427024
0.00042637
0.000425901
0.000425263
0.000424811
0.00042419
0.000423757
0.000423155
0.00042274
0.000422156
0.000421759
0.000421192
0.00042081
0.000420258
0.00041989
0.00041935
0.000418994
0.000418464
0.000418116
0.000417595
0.000417254
0.000416738
0.000416402
0.00041589
0.000415557
0.000415049
0.000414718
0.000414212
0.000413883
0.000413377
0.000413049
0.000412545
0.000412218
0.000411715
0.000411388
0.000410886
0.00041056
0.000410059
0.000409735
0.000409236
0.000408913
0.000408415
0.000408095
0.000407599
0.000407281
0.000406788
0.000406472
0.000405982
0.00040567
0.000405183
0.000404873
0.00040439
0.000404084
0.000403604
0.000403302
0.000402826
0.000402528
0.000402056
0.000401761
0.000401293
0.000401003
0.000400539
0.000400253
0.000399794
0.000399512
0.000399057
0.000398779
0.000398328
0.000398054
0.000397607
0.000397337
0.000396895
0.000396629
0.000396191
0.000395929
0.000395495
0.000395236
0.000394806
0.000394552
0.000394125
0.000393874
0.000393451
0.000393204
0.000392784
0.000392541
0.000392125
0.000391884
0.000391471
0.000391234
0.000390824
0.000390589
0.000390183
0.000389951
0.000389547
0.000389319
0.000388919
0.000388693
0.000388296
0.000388075
0.000387682
0.000387465
0.000387077
0.000386865
0.000386483
0.000386277
0.000385902
0.000385704
0.000385337
0.000385148
0.000384791
0.000384613
0.000384267
0.000384101
0.000383768
0.000383615
0.000383296
0.000383157
0.000382852
0.000382728
0.000382438
0.000382328
0.000382053
0.000381956
0.000381694
0.00038161
0.000381359
0.000381286
0.000381044
0.000380978
0.000380742
0.000380681
0.000380447
0.000380386
0.00038015
0.000380085
0.000379843
0.00037977
0.000379518
0.000379431
0.000379164
0.00037906
0.000378774
0.000378649
0.00037834
0.000378191
0.000377857
0.000377682
0.00037732
0.000377117
0.000376727
0.000376496
0.000376079
0.000375821
0.000375378
0.000375095
0.000374629
0.000374325
0.000373839
0.000373517
0.000373016
0.000372681
0.000372169
0.000371825
0.000371306
0.000370958
0.000370437
0.000370089
0.00036957
0.000369226
0.000368712
0.000368374
0.000367868
0.000367538
0.000367041
0.000366721
0.000366234
0.000365925
0.000365449
0.00036515
0.000364684
0.000364395
0.00036394
0.00036366
0.000363213
0.000362941
0.000362502
0.000362238
0.000361805
0.000361547
0.000361119
0.000360866
0.000360443
0.000360193
0.000359773
0.000359526
0.000359109
0.000358865
0.00035845
0.000358207
0.000357793
0.000357552
0.000357139
0.000356899
0.000356488
0.000356248
0.000355838
0.000355599
0.00035519
0.000354953
0.000354545
0.000354308
0.000353902
0.000353667
0.000353261
0.000353028
0.000352624
0.000352393
0.000351991
0.000351761
0.000351361
0.000351134
0.000350736
0.000350511
0.000350115
0.000349892
0.000349499
0.000349279
0.000348889
0.000348671
0.000348283
0.000348069
0.000347684
0.000347472
0.000347089
0.00034688
0.000346501
0.000346295
0.000345918
0.000345715
0.000345341
0.00034514
0.000344769
0.000344572
0.000344203
0.000344009
0.000343642
0.000343451
0.000343087
0.000342899
0.000342537
0.000342352
0.000341992
0.00034181
0.000341451
0.000341272
0.000340916
0.000340739
0.000340385
0.000340211
0.000339858
0.000339687
0.000339336
0.000339167
0.000338819
0.000338651
0.000338306
0.00033814
0.000337797
0.000337634
0.000337294
0.000337134
0.000336797
0.000336639
0.000336307
0.000336152
0.000335825
0.000335673
0.000335351
0.000335203
0.000334888
0.000334745
0.000334436
0.0003343
0.000333998
0.000333869
0.000333574
0.000333454
0.000333167
0.000333055
0.000332777
0.000332673
0.000332404
0.000332309
0.000332049
0.000331963
0.000331711
0.000331634
0.000331389
0.000331319
0.000331082
0.000331018
0.000330785
0.000330727
0.000330497
0.00033044
0.000330212
0.000330155
0.000329927
0.00032987
0.000329639
0.000329582
0.000329345
0.000329285
0.000329037
0.000328974
0.000328712
0.000328645
0.000328363
0.000328291
0.000327987
0.000327909
0.00032758
0.000327495
0.000327139
0.000327047
0.000326663
0.000326564
0.000326152
0.000326045
0.00032561
0.000325492
0.000325035
0.000324893
0.000324424
0.000324264
0.000323784
0.000323608
0.00032312
0.000322933
0.000322438
0.000322241
0.000321742
0.00032154
0.000321038
0.000320835
0.000320331
0.000320129
0.000319625
0.000319426
0.000318923
0.00031873
0.00031823
0.000318042
0.000317545
0.000317364
0.000316872
0.000316699
0.000316211
0.000316045
0.000315562
0.000315403
0.000314924
0.000314773
0.000314298
0.000314152
0.000313683
0.000313542
0.000313076
0.00031294
0.000312476
0.000312346
0.000311883
0.000311757
0.000311296
0.000311173
0.000310713
0.000310593
0.000310133
0.000310017
0.000309557
0.000309443
0.000308697
0.0670664
)
;

boundaryField
{
    inlet
    {
        type            calculated;
        value           uniform 0.000236304;
    }
    outlet
    {
        type            calculated;
        value           uniform 3.36833e-05;
    }
    emptyWalls
    {
        type            empty;
    }
}


// ************************************************************************* //
