/*--------------------------------*- C++ -*----------------------------------*\
  =========                 |
  \\      /  F ield         | OpenFOAM: The Open Source CFD Toolbox
   \\    /   O peration     | Website:  https://openfoam.org
    \\  /    A nd           | Version:  9
     \\/     M anipulation  |
\*---------------------------------------------------------------------------*/
FoamFile
{
    format      ascii;
    class       volScalarField;
    location    "27500";
    object      Sa;
}
// * * * * * * * * * * * * * * * * * * * * * * * * * * * * * * * * * * * * * //

dimensions      [0 0 0 0 0 0 0];

internalField   nonuniform List<scalar> 
1000
(
0.549618
0.548853
0.547831
0.546807
0.545778
0.544743
0.543708
0.542666
0.541606
0.54056
0.539467
0.538419
0.537294
0.536244
0.535094
0.534036
0.532887
0.531808
0.53069
0.529608
0.528536
0.527494
0.526483
0.525521
0.524603
0.523748
0.522957
0.522231
0.521581
0.520982
0.520477
0.519979
0.519607
0.51918
0.518821
0.518096
0.516033
0.508311
0.470759
0.264171
0.105751
0.0748193
0.06439
0.0590441
0.0555747
0.0529808
0.0508818
0.0490984
0.0475392
0.04614
0.0448622
0.0436797
0.0425853
0.0415768
0.0406567
0.0398186
0.0390534
0.0383441
0.0376761
0.037035
0.0364144
0.0358102
0.0352261
0.0346654
0.0341324
0.033614
0.0330906
0.0325852
0.0321049
0.0316503
0.0312225
0.0308199
0.0304417
0.0300852
0.0297493
0.029431
0.0291284
0.0288388
0.0285609
0.0282944
0.0280363
0.0277842
0.0275407
0.0273057
0.0270794
0.0268618
0.0266529
0.0264526
0.0262608
0.0260773
0.0259021
0.025735
0.0255758
0.0254244
0.0252806
0.0251442
0.0250151
0.0248931
0.024778
0.0246696
0.0245678
0.0244724
0.0243835
0.0243015
0.0242271
0.0241614
0.0241057
0.0240604
0.0240242
0.0239932
0.0239621
0.0239302
0.0238978
0.0238649
0.0238319
0.0237988
0.0237657
0.0237326
0.0236996
0.0236669
0.0236344
0.0236022
0.0235703
0.0235386
0.0235072
0.0234761
0.0234451
0.0234142
0.0233835
0.0233529
0.0233224
0.0232921
0.023262
0.0232321
0.0232026
0.0231734
0.0231447
0.0231163
0.0230883
0.0230606
0.023033
0.0230055
0.022978
0.0229504
0.0229228
0.0228951
0.0228673
0.0228395
0.0228118
0.0227844
0.0227576
0.0227318
0.0227075
0.0226848
0.0226641
0.0226453
0.0226285
0.0226133
0.0225996
0.022587
0.0225751
0.0225638
0.0225526
0.0225414
0.0225297
0.0225173
0.0225038
0.0224887
0.0224718
0.0224527
0.0224311
0.022407
0.0223801
0.0223508
0.022319
0.0222853
0.02225
0.0222136
0.0221765
0.0221392
0.0221022
0.0220659
0.0220306
0.0219965
0.0219638
0.0219325
0.0219027
0.0218742
0.0218471
0.0218211
0.0217961
0.021772
0.0217486
0.0217257
0.0217032
0.021681
0.021659
0.021637
0.021615
0.021593
0.021571
0.0215488
0.0215266
0.0215043
0.0214819
0.0214595
0.021437
0.0214146
0.0213921
0.0213696
0.0213472
0.0213249
0.0213026
0.0212804
0.0212583
0.0212364
0.0212145
0.0211927
0.0211711
0.0211496
0.0211282
0.021107
0.0210859
0.0210649
0.0210441
0.0210234
0.0210029
0.0209825
0.0209623
0.0209421
0.0209222
0.0209023
0.0208826
0.020863
0.0208436
0.0208243
0.0208051
0.0207861
0.0207672
0.0207485
0.0207299
0.0207115
0.0206932
0.020675
0.020657
0.0206391
0.0206214
0.0206037
0.0205862
0.0205687
0.0205514
0.0205341
0.0205169
0.0204999
0.020483
0.0204662
0.0204495
0.0204329
0.0204165
0.0204002
0.020384
0.020368
0.020352
0.0203361
0.0203203
0.0203044
0.0202886
0.0202728
0.0202569
0.0202411
0.0202254
0.0202097
0.0201942
0.020179
0.0201641
0.0201496
0.0201355
0.0201221
0.0201093
0.0200973
0.0200859
0.0200753
0.0200655
0.0200564
0.020048
0.0200403
0.0200331
0.0200264
0.0200199
0.0200139
0.0200077
0.0200016
0.019995
0.0199883
0.0199807
0.0199726
0.0199634
0.0199534
0.019942
0.0199297
0.0199158
0.019901
0.0198845
0.0198672
0.0198484
0.0198289
0.0198083
0.0197873
0.0197655
0.0197436
0.0197213
0.0196993
0.0196771
0.0196555
0.019634
0.0196133
0.0195929
0.0195734
0.0195542
0.0195358
0.0195178
0.0195006
0.0194837
0.0194675
0.0194516
0.0194361
0.0194208
0.0194059
0.0193912
0.0193766
0.0193622
0.0193478
0.0193335
0.0193193
0.019305
0.0192907
0.0192764
0.0192622
0.0192478
0.0192335
0.0192191
0.0192048
0.0191904
0.019176
0.0191616
0.0191473
0.0191329
0.0191186
0.0191043
0.01909
0.0190758
0.0190616
0.0190475
0.0190334
0.0190194
0.0190055
0.0189916
0.0189778
0.0189641
0.0189505
0.0189369
0.0189234
0.0189099
0.0188966
0.0188833
0.0188701
0.018857
0.018844
0.018831
0.0188181
0.0188053
0.0187926
0.01878
0.0187674
0.018755
0.0187426
0.0187303
0.018718
0.0187059
0.0186938
0.0186818
0.0186699
0.018658
0.0186462
0.0186345
0.0186229
0.0186112
0.0185997
0.0185882
0.0185769
0.0185655
0.0185543
0.018543
0.018532
0.0185208
0.0185099
0.0184989
0.018488
0.0184771
0.0184664
0.0184555
0.0184449
0.0184341
0.0184235
0.0184128
0.0184022
0.0183916
0.0183812
0.0183707
0.0183604
0.0183502
0.0183402
0.0183303
0.0183207
0.0183112
0.0183021
0.0182933
0.0182849
0.0182767
0.018269
0.0182616
0.0182548
0.0182482
0.0182421
0.0182363
0.0182309
0.0182257
0.018221
0.0182163
0.018212
0.0182075
0.0182033
0.0181989
0.0181946
0.0181898
0.018185
0.0181796
0.0181741
0.0181678
0.0181612
0.0181537
0.0181459
0.018137
0.0181278
0.0181175
0.0181069
0.0180952
0.0180833
0.0180702
0.0180572
0.018043
0.0180291
0.0180142
0.0179997
0.0179844
0.0179696
0.0179541
0.0179394
0.017924
0.0179096
0.0178946
0.0178806
0.0178662
0.0178528
0.0178389
0.0178262
0.0178129
0.0178008
0.0177881
0.0177765
0.0177643
0.0177533
0.0177415
0.0177308
0.0177194
0.017709
0.0176978
0.0176877
0.0176766
0.0176666
0.0176556
0.0176458
0.0176347
0.017625
0.0176139
0.0176043
0.0175932
0.0175835
0.0175724
0.0175628
0.0175516
0.017542
0.0175308
0.0175213
0.01751
0.0175006
0.0174893
0.0174799
0.0174687
0.0174594
0.0174482
0.0174389
0.0174278
0.0174186
0.0174075
0.0173984
0.0173874
0.0173783
0.0173675
0.0173585
0.0173478
0.0173388
0.0173283
0.0173193
0.017309
0.0173
0.0172898
0.0172809
0.0172709
0.0172621
0.0172522
0.0172434
0.0172337
0.017225
0.0172155
0.0172067
0.0171974
0.0171887
0.0171795
0.0171709
0.0171618
0.0171533
0.0171443
0.0171359
0.017127
0.0171186
0.0171098
0.0171016
0.0170929
0.0170847
0.0170761
0.0170681
0.0170594
0.0170515
0.0170429
0.0170352
0.0170266
0.017019
0.0170104
0.0170029
0.0169943
0.0169869
0.0169783
0.0169711
0.0169625
0.0169555
0.0169468
0.01694
0.0169314
0.0169248
0.0169163
0.01691
0.0169016
0.0168957
0.0168875
0.0168819
0.016874
0.0168689
0.0168612
0.0168567
0.0168494
0.0168453
0.0168384
0.0168349
0.0168284
0.0168254
0.0168194
0.0168168
0.0168111
0.0168089
0.0168035
0.0168016
0.0167965
0.0167947
0.0167896
0.0167879
0.0167827
0.0167808
0.0167754
0.0167732
0.0167673
0.0167647
0.0167583
0.016755
0.0167479
0.0167439
0.016736
0.0167312
0.0167225
0.0167167
0.0167071
0.0167005
0.0166901
0.0166826
0.0166714
0.0166632
0.0166514
0.0166426
0.0166302
0.016621
0.0166083
0.0165988
0.0165859
0.0165763
0.0165634
0.0165539
0.016541
0.0165316
0.016519
0.0165099
0.0164975
0.0164888
0.0164767
0.0164683
0.0164566
0.0164485
0.0164372
0.0164294
0.0164184
0.0164109
0.0164002
0.016393
0.0163824
0.0163755
0.0163651
0.0163583
0.0163481
0.0163414
0.0163313
0.0163247
0.0163147
0.0163082
0.0162982
0.0162917
0.0162818
0.0162753
0.0162653
0.0162589
0.016249
0.0162425
0.0162326
0.0162262
0.0162163
0.0162098
0.0161999
0.0161935
0.0161837
0.0161773
0.0161674
0.0161611
0.0161513
0.016145
0.0161352
0.0161289
0.0161192
0.016113
0.0161033
0.0160972
0.0160876
0.0160815
0.0160719
0.0160659
0.0160564
0.0160505
0.0160411
0.0160352
0.0160259
0.01602
0.0160108
0.0160051
0.0159959
0.0159902
0.0159811
0.0159756
0.0159665
0.015961
0.0159521
0.0159467
0.0159378
0.0159324
0.0159236
0.0159184
0.0159096
0.0159044
0.0158958
0.0158907
0.0158821
0.015877
0.0158685
0.0158635
0.015855
0.0158501
0.0158417
0.0158368
0.0158285
0.0158237
0.0158154
0.0158107
0.0158024
0.0157977
0.0157896
0.0157849
0.0157768
0.0157722
0.0157642
0.0157597
0.0157517
0.0157473
0.0157394
0.0157351
0.0157273
0.0157232
0.0157155
0.0157115
0.015704
0.0157002
0.0156929
0.0156892
0.0156822
0.0156788
0.015672
0.0156689
0.0156624
0.0156595
0.0156533
0.0156508
0.0156448
0.0156426
0.0156369
0.015635
0.0156296
0.0156279
0.0156227
0.0156212
0.0156163
0.0156149
0.0156101
0.0156088
0.015604
0.0156028
0.0155979
0.0155966
0.0155917
0.0155901
0.015585
0.0155832
0.0155777
0.0155756
0.0155697
0.0155671
0.0155608
0.0155577
0.0155508
0.0155472
0.0155398
0.0155356
0.0155276
0.0155228
0.0155142
0.0155089
0.0154997
0.0154939
0.0154843
0.015478
0.0154679
0.0154613
0.0154509
0.0154439
0.0154333
0.0154262
0.0154154
0.0154082
0.0153974
0.0153902
0.0153794
0.0153722
0.0153615
0.0153545
0.0153439
0.015337
0.0153267
0.01532
0.0153098
0.0153033
0.0152934
0.0152871
0.0152774
0.0152713
0.0152618
0.0152559
0.0152465
0.0152408
0.0152316
0.015226
0.0152169
0.0152115
0.0152025
0.0151972
0.0151883
0.015183
0.0151742
0.0151689
0.0151601
0.015155
0.0151462
0.0151411
0.0151323
0.0151272
0.0151185
0.0151134
0.0151047
0.0150996
0.0150909
0.0150859
0.0150772
0.0150722
0.0150635
0.0150585
0.0150498
0.0150448
0.0150362
0.0150312
0.0150226
0.0150177
0.0150091
0.0150042
0.0149957
0.0149908
0.0149824
0.0149775
0.0149691
0.0149643
0.0149559
0.0149512
0.0149429
0.0149382
0.0149299
0.0149253
0.014917
0.0149125
0.0149043
0.0148998
0.0148916
0.0148872
0.0148791
0.0148747
0.0148667
0.0148624
0.0148544
0.0148501
0.0148422
0.014838
0.0148301
0.014826
0.0148181
0.014814
0.0148062
0.0148022
0.0147944
0.0147905
0.0147827
0.0147788
0.0147711
0.0147673
0.0147596
0.0147558
0.0147482
0.0147445
0.0147369
0.0147332
0.0147256
0.014722
0.0147145
0.0147109
0.0147034
0.0146999
0.0146925
0.014689
0.0146816
0.0146782
0.0146709
0.0146676
0.0146604
0.0146571
0.0146501
0.0146469
0.01464
0.0146368
0.0146301
0.0146271
0.0146205
0.0146177
0.0146112
0.0146086
0.0146023
0.0145998
0.0145937
0.0145915
0.0145856
0.0145835
0.0145778
0.0145759
0.0145704
0.0145687
0.0145633
0.0145617
0.0145565
0.0145551
0.01455
0.0145487
0.0145437
0.0145424
0.0145374
0.0145361
0.0145311
0.0145299
0.0145248
0.0145235
0.0145183
0.014517
0.0145115
0.0145101
0.0145043
0.0145028
0.0144966
0.014495
0.0144883
0.0144866
0.0144793
0.0144774
0.0144696
0.0144675
0.0144591
0.0144568
0.0144478
0.0144453
0.0144358
0.0144331
0.014423
0.0144198
0.0144094
0.0144058
0.0143952
0.0143913
0.0143804
0.0143763
0.0143652
0.0143609
0.0143497
0.0143452
0.014334
0.0143295
0.0143182
0.0143137
0.0143024
0.014298
0.0142867
0.0142824
0.0142712
0.014267
0.0142558
0.0142518
0.0142407
0.0142368
0.0142259
0.0142221
0.0142112
0.0142077
0.0141969
0.0141935
0.0141828
0.0141795
0.0141689
0.0141657
0.0141552
0.0141521
0.0141416
0.0141386
0.0141282
0.0141253
0.0141149
0.0141121
0.0141016
0.0140989
0.0140885
0.0140858
0.0140754
0.0140728
0.0140558
0.221894
)
;

boundaryField
{
    inlet
    {
        type            fixedValue;
        value           uniform 0.55;
    }
    outlet
    {
        type            zeroGradient;
    }
    emptyWalls
    {
        type            empty;
    }
}


// ************************************************************************* //
