/*--------------------------------*- C++ -*----------------------------------*\
  =========                 |
  \\      /  F ield         | OpenFOAM: The Open Source CFD Toolbox
   \\    /   O peration     | Website:  https://openfoam.org
    \\  /    A nd           | Version:  9
     \\/     M anipulation  |
\*---------------------------------------------------------------------------*/
FoamFile
{
    format      ascii;
    class       volScalarField;
    location    "1400";
    object      kra;
}
// * * * * * * * * * * * * * * * * * * * * * * * * * * * * * * * * * * * * * //

dimensions      [0 0 0 0 0 0 0];

internalField   nonuniform List<scalar> 
100
(
3.92655e-05
2.87663e-05
3.09178e-05
2.9538e-05
2.92563e-05
2.88188e-05
2.8622e-05
2.83865e-05
2.81194e-05
2.78366e-05
2.73928e-05
2.73905e-05
2.75086e-05
2.75639e-05
2.76421e-05
2.77098e-05
2.7771e-05
2.78244e-05
2.78722e-05
2.79147e-05
2.79533e-05
2.79894e-05
2.80209e-05
2.80476e-05
2.80708e-05
2.80909e-05
2.81062e-05
2.81186e-05
2.81292e-05
2.81364e-05
2.81399e-05
2.81397e-05
2.81375e-05
2.81334e-05
2.81282e-05
2.81222e-05
2.8114e-05
2.81019e-05
2.80851e-05
2.80571e-05
2.79993e-05
2.78699e-05
2.74653e-05
2.42977e-05
4.52694e-06
3.83183e-09
4.14363e-16
9.54728e-31
2.81329e-35
3.06878e-35
2.98254e-35
2.81364e-35
2.81351e-35
3.06835e-35
2.81297e-35
2.9817e-35
2.81287e-35
2.81281e-35
2.96854e-35
1.7561e-35
1.47971e-36
1.21493e-36
1.1777e-36
1.11099e-36
1.11099e-36
1.31689e-36
1.21174e-36
1.28135e-36
1.11099e-36
1.11099e-36
1.21174e-36
1.28135e-36
1.21174e-36
1.31689e-36
1.28135e-36
1.31689e-36
1.21174e-36
1.21174e-36
1.21174e-36
1.28135e-36
1.11099e-36
1.31689e-36
1.21174e-36
1.21174e-36
1.28135e-36
1.07838e-36
1.31689e-36
1.21174e-36
1.28135e-36
1.31689e-36
1.28135e-36
1.31689e-36
1.21174e-36
1.28135e-36
1.31689e-36
1.11099e-36
1.28135e-36
1.31689e-36
1.28135e-36
1.31689e-36
)
;

boundaryField
{
    inlet
    {
        type            calculated;
        value           uniform 1.09691e-05;
    }
    outlet
    {
        type            calculated;
        value           uniform 4.72742e-37;
    }
    emptyWalls
    {
        type            empty;
    }
}


// ************************************************************************* //
