/*--------------------------------*- C++ -*----------------------------------*\
  =========                 |
  \\      /  F ield         | OpenFOAM: The Open Source CFD Toolbox
   \\    /   O peration     | Website:  https://openfoam.org
    \\  /    A nd           | Version:  9
     \\/     M anipulation  |
\*---------------------------------------------------------------------------*/
FoamFile
{
    format      ascii;
    class       volScalarField;
    location    "1400";
    object      p;
}
// * * * * * * * * * * * * * * * * * * * * * * * * * * * * * * * * * * * * * //

dimensions      [0 0 0 0 0 0 0];

internalField   nonuniform List<scalar> 
100
(
5.52056e+06
5.51229e+06
5.50102e+06
5.49056e+06
5.47959e+06
5.46852e+06
5.45734e+06
5.44609e+06
5.43476e+06
5.42334e+06
5.41181e+06
5.40022e+06
5.38868e+06
5.37723e+06
5.36585e+06
5.35455e+06
5.3433e+06
5.33213e+06
5.32101e+06
5.30996e+06
5.29897e+06
5.28804e+06
5.27717e+06
5.26636e+06
5.2556e+06
5.2449e+06
5.23425e+06
5.22366e+06
5.21311e+06
5.20262e+06
5.19218e+06
5.18179e+06
5.17145e+06
5.16115e+06
5.15089e+06
5.14068e+06
5.1305e+06
5.12035e+06
5.11025e+06
5.10019e+06
5.09019e+06
5.08032e+06
5.07069e+06
5.06164e+06
5.05513e+06
5.05281e+06
5.0508e+06
5.0488e+06
5.04679e+06
5.04479e+06
5.04279e+06
5.04078e+06
5.03878e+06
5.03677e+06
5.03477e+06
5.03276e+06
5.03076e+06
5.02876e+06
5.02675e+06
5.02475e+06
5.02301e+06
5.02239e+06
5.02181e+06
5.02123e+06
5.02065e+06
5.02007e+06
5.01949e+06
5.0189e+06
5.01832e+06
5.01774e+06
5.01716e+06
5.01658e+06
5.016e+06
5.01541e+06
5.01483e+06
5.01425e+06
5.01367e+06
5.01309e+06
5.01251e+06
5.01192e+06
5.01134e+06
5.01076e+06
5.01018e+06
5.0096e+06
5.00902e+06
5.00843e+06
5.00785e+06
5.00727e+06
5.00669e+06
5.00611e+06
5.00553e+06
5.00494e+06
5.00436e+06
5.00378e+06
5.0032e+06
5.00262e+06
5.00204e+06
5.00145e+06
5.00087e+06
5.00029e+06
)
;

boundaryField
{
    inlet
    {
        type            darcyGradPressure;
        gradient        uniform 4.16408e+06;
        Mf              Mf;
        phi             phi;
        value           uniform 5.52888e+06;
    }
    outlet
    {
        type            fixedValue;
        value           uniform 5e+06;
    }
    emptyWalls
    {
        type            empty;
    }
}


// ************************************************************************* //
