/*--------------------------------*- C++ -*----------------------------------*\
  =========                 |
  \\      /  F ield         | OpenFOAM: The Open Source CFD Toolbox
   \\    /   O peration     | Website:  https://openfoam.org
    \\  /    A nd           | Version:  9
     \\/     M anipulation  |
\*---------------------------------------------------------------------------*/
FoamFile
{
    format      ascii;
    class       surfaceScalarField;
    location    "1400";
    object      phia;
}
// * * * * * * * * * * * * * * * * * * * * * * * * * * * * * * * * * * * * * //

dimensions      [0 2 0 0 0 0 0];

internalField   nonuniform List<scalar> 
99
(
1.41908e-08
1.41683e-08
1.4143e-08
1.40988e-08
1.40471e-08
1.40385e-08
1.40211e-08
1.39974e-08
1.39659e-08
1.39233e-08
1.38732e-08
1.38228e-08
1.37775e-08
1.37288e-08
1.36817e-08
1.36335e-08
1.3583e-08
1.35304e-08
1.34764e-08
1.34214e-08
1.33662e-08
1.33107e-08
1.32538e-08
1.31959e-08
1.31378e-08
1.30788e-08
1.30192e-08
1.29601e-08
1.29013e-08
1.28423e-08
1.27834e-08
1.27254e-08
1.26685e-08
1.26138e-08
1.25619e-08
1.25123e-08
1.24631e-08
1.24112e-08
1.23473e-08
1.2247e-08
1.20583e-08
1.16842e-08
1.07049e-08
6.00968e-09
2.29757e-10
1.68437e-13
1.81521e-20
4.1826e-35
2.46492e-39
2.68879e-39
2.53924e-39
2.46518e-39
2.46511e-39
2.68837e-39
2.46461e-39
2.61243e-39
2.46449e-39
2.46445e-39
2.59917e-39
7.22372e-40
3.65009e-41
3.04429e-41
2.90985e-41
2.825e-41
2.825e-41
3.34858e-41
3.0812e-41
3.25821e-41
2.825e-41
2.825e-41
3.1697e-41
3.25821e-41
3.0812e-41
3.34858e-41
3.25821e-41
3.34858e-41
3.0812e-41
3.0812e-41
3.0812e-41
3.25821e-41
2.825e-41
3.34858e-41
3.0812e-41
3.0812e-41
3.25821e-41
2.74209e-41
3.34858e-41
3.0812e-41
3.30339e-41
3.34858e-41
3.25821e-41
3.34858e-41
3.0812e-41
3.30339e-41
3.34858e-41
2.825e-41
3.30339e-41
3.34858e-41
3.25821e-41
)
;

boundaryField
{
    inlet
    {
        type            calculated;
        value           uniform -1.42126e-08;
    }
    outlet
    {
        type            calculated;
        value           uniform 1.20208e-41;
    }
    emptyWalls
    {
        type            empty;
        value           nonuniform List<scalar> 0();
    }
}


// ************************************************************************* //
