/*--------------------------------*- C++ -*----------------------------------*\
  =========                 |
  \\      /  F ield         | OpenFOAM: The Open Source CFD Toolbox
   \\    /   O peration     | Website:  https://openfoam.org
    \\  /    A nd           | Version:  9
     \\/     M anipulation  |
\*---------------------------------------------------------------------------*/
FoamFile
{
    format      ascii;
    class       surfaceScalarField;
    location    "1400";
    object      phib;
}
// * * * * * * * * * * * * * * * * * * * * * * * * * * * * * * * * * * * * * //

dimensions      [0 2 0 0 0 0 0];

internalField   nonuniform List<scalar> 
99
(
6.09031e-09
6.08935e-09
6.08825e-09
6.10487e-09
6.12723e-09
6.10702e-09
6.09587e-09
6.08908e-09
6.08471e-09
6.08122e-09
6.07866e-09
6.07967e-09
6.08051e-09
6.08335e-09
6.08413e-09
6.08489e-09
6.08696e-09
6.08999e-09
6.09335e-09
6.09674e-09
6.09917e-09
6.10113e-09
6.10363e-09
6.10635e-09
6.10871e-09
6.11141e-09
6.11447e-09
6.11681e-09
6.11886e-09
6.1214e-09
6.12451e-09
6.12771e-09
6.13113e-09
6.13412e-09
6.13641e-09
6.13857e-09
6.14154e-09
6.14522e-09
6.14927e-09
6.1551e-09
6.16639e-09
6.19056e-09
6.268e-09
7.08988e-09
9.05554e-09
9.14241e-09
9.14647e-09
9.14748e-09
9.14677e-09
9.1464e-09
9.14635e-09
9.14646e-09
9.14691e-09
9.14747e-09
9.14781e-09
9.14791e-09
9.1479e-09
9.14815e-09
9.19624e-09
1.4989e-08
2.00322e-08
2.00936e-08
2.00942e-08
2.00942e-08
2.00942e-08
2.00942e-08
2.00942e-08
2.00942e-08
2.00942e-08
2.00942e-08
2.00942e-08
2.00942e-08
2.00942e-08
2.00942e-08
2.00942e-08
2.00942e-08
2.00942e-08
2.00942e-08
2.00942e-08
2.00942e-08
2.00942e-08
2.00942e-08
2.00942e-08
2.00942e-08
2.00942e-08
2.00942e-08
2.00942e-08
2.00942e-08
2.00942e-08
2.00942e-08
2.00942e-08
2.00942e-08
2.00942e-08
2.00942e-08
2.00942e-08
2.00942e-08
2.00942e-08
2.00942e-08
2.00942e-08
)
;

boundaryField
{
    inlet
    {
        type            calculated;
        value           uniform -6.09112e-09;
    }
    outlet
    {
        type            calculated;
        value           uniform 2.00942e-08;
    }
    emptyWalls
    {
        type            empty;
        value           nonuniform List<scalar> 0();
    }
}


// ************************************************************************* //
