/*--------------------------------*- C++ -*----------------------------------*\
  =========                 |
  \\      /  F ield         | OpenFOAM: The Open Source CFD Toolbox
   \\    /   O peration     | Website:  https://openfoam.org
    \\  /    A nd           | Version:  9
     \\/     M anipulation  |
\*---------------------------------------------------------------------------*/
FoamFile
{
    format      ascii;
    class       surfaceScalarField;
    location    "1400";
    object      phic;
}
// * * * * * * * * * * * * * * * * * * * * * * * * * * * * * * * * * * * * * //

dimensions      [0 2 0 0 0 0 0];

internalField   nonuniform List<scalar> 
99
(
2.26008e-11
4.60574e-11
7.25151e-11
1.00029e-10
1.29443e-10
1.58175e-10
1.86762e-10
2.17222e-10
2.53168e-10
2.99209e-10
3.5187e-10
4.01247e-10
4.45744e-10
4.91596e-10
5.37935e-10
5.85341e-10
6.3379e-10
6.83331e-10
7.33964e-10
7.85636e-10
8.38322e-10
8.91936e-10
9.46338e-10
1.00147e-09
1.05724e-09
1.1135e-09
1.17008e-09
1.22687e-09
1.2836e-09
1.34e-09
1.39578e-09
1.45058e-09
1.50411e-09
1.55584e-09
1.60546e-09
1.65291e-09
1.69908e-09
1.74735e-09
1.80716e-09
1.90163e-09
2.07903e-09
2.429e-09
3.33087e-09
7.20417e-09
1.10184e-08
1.11612e-08
1.11573e-08
1.11563e-08
1.1157e-08
1.11573e-08
1.11574e-08
1.11573e-08
1.11568e-08
1.11563e-08
1.11559e-08
1.11558e-08
1.11558e-08
1.11556e-08
1.11075e-08
5.31475e-09
2.71585e-10
2.10115e-10
2.09496e-10
2.0949e-10
2.0949e-10
2.0949e-10
2.0949e-10
2.0949e-10
2.0949e-10
2.0949e-10
2.0949e-10
2.0949e-10
2.0949e-10
2.0949e-10
2.0949e-10
2.0949e-10
2.0949e-10
2.0949e-10
2.0949e-10
2.0949e-10
2.0949e-10
2.0949e-10
2.0949e-10
2.0949e-10
2.0949e-10
2.0949e-10
2.0949e-10
2.0949e-10
2.0949e-10
2.0949e-10
2.0949e-10
2.0949e-10
2.0949e-10
2.0949e-10
2.0949e-10
2.0949e-10
2.0949e-10
2.0949e-10
2.0949e-10
)
;

boundaryField
{
    inlet
    {
        type            calculated;
        value           uniform 0;
    }
    outlet
    {
        type            calculated;
        value           uniform 2.0949e-10;
    }
    emptyWalls
    {
        type            empty;
        value           nonuniform List<scalar> 0();
    }
}


// ************************************************************************* //
