/*--------------------------------*- C++ -*----------------------------------*\
  =========                 |
  \\      /  F ield         | OpenFOAM: The Open Source CFD Toolbox
   \\    /   O peration     | Website:  https://openfoam.org
    \\  /    A nd           | Version:  9
     \\/     M anipulation  |
\*---------------------------------------------------------------------------*/
FoamFile
{
    format      ascii;
    class       volVectorField;
    location    "1400";
    object      Ua;
}
// * * * * * * * * * * * * * * * * * * * * * * * * * * * * * * * * * * * * * //

dimensions      [0 0 0 0 0 0 0];

internalField   nonuniform List<vector> 
100
(
(0 0 8.82442e-06)
(0 0 1.12837e-05)
(0 0 1.12647e-05)
(0 0 1.12371e-05)
(0 0 1.11989e-05)
(0 0 1.11749e-05)
(0 0 1.11646e-05)
(0 0 1.11482e-05)
(0 0 1.11262e-05)
(0 0 1.10967e-05)
(0 0 1.10599e-05)
(0 0 1.10199e-05)
(0 0 1.09818e-05)
(0 0 1.09444e-05)
(0 0 1.09063e-05)
(0 0 1.08684e-05)
(0 0 1.08291e-05)
(0 0 1.07881e-05)
(0 0 1.07457e-05)
(0 0 1.07023e-05)
(0 0 1.06584e-05)
(0 0 1.06144e-05)
(0 0 1.05697e-05)
(0 0 1.0524e-05)
(0 0 1.04778e-05)
(0 0 1.04313e-05)
(0 0 1.03841e-05)
(0 0 1.03368e-05)
(0 0 1.02899e-05)
(0 0 1.02431e-05)
(0 0 1.01962e-05)
(0 0 1.01497e-05)
(0 0 1.01039e-05)
(0 0 1.00595e-05)
(0 0 1.00171e-05)
(0 0 9.97668e-06)
(0 0 9.93739e-06)
(0 0 9.89716e-06)
(0 0 9.85108e-06)
(0 0 9.78577e-06)
(0 0 9.67078e-06)
(0 0 9.44684e-06)
(0 0 8.90832e-06)
(0 0 6.65051e-06)
(0 0 2.48259e-06)
(0 0 9.14843e-08)
(0 0 6.70188e-11)
(0 0 7.22248e-18)
(0 0 1.6643e-32)
(0 0 2.0506e-36)
(0 0 2.08017e-36)
(0 0 1.99119e-36)
(0 0 1.9617e-36)
(0 0 2.0505e-36)
(0 0 2.0503e-36)
(0 0 2.02009e-36)
(0 0 2.02004e-36)
(0 0 1.96116e-36)
(0 0 2.01475e-36)
(0 0 1.3216e-36)
(0 0 3.01946e-37)
(0 0 2.66361e-38)
(0 0 2.36907e-38)
(0 0 2.28182e-38)
(0 0 2.24807e-38)
(0 0 2.45639e-38)
(0 0 2.55833e-38)
(0 0 2.52237e-38)
(0 0 2.42043e-38)
(0 0 2.24807e-38)
(0 0 2.38522e-38)
(0 0 2.55759e-38)
(0 0 2.52237e-38)
(0 0 2.55833e-38)
(0 0 2.62876e-38)
(0 0 2.62876e-38)
(0 0 2.55833e-38)
(0 0 2.45194e-38)
(0 0 2.45194e-38)
(0 0 2.52237e-38)
(0 0 2.42043e-38)
(0 0 2.45639e-38)
(0 0 2.55833e-38)
(0 0 2.45194e-38)
(0 0 2.52237e-38)
(0 0 2.38744e-38)
(0 0 2.4234e-38)
(0 0 2.55833e-38)
(0 0 2.54035e-38)
(0 0 2.64673e-38)
(0 0 2.62876e-38)
(0 0 2.62876e-38)
(0 0 2.55833e-38)
(0 0 2.54035e-38)
(0 0 2.64673e-38)
(0 0 2.45639e-38)
(0 0 2.43841e-38)
(0 0 2.64673e-38)
(0 0 2.62876e-38)
(0 0 1.77469e-38)
)
;

boundaryField
{
    inlet
    {
        type            fixedValue;
        value           uniform (0 0 1.131e-05);
    }
    outlet
    {
        type            zeroGradient;
    }
    emptyWalls
    {
        type            empty;
    }
}


// ************************************************************************* //
