/*--------------------------------*- C++ -*----------------------------------*\
  =========                 |
  \\      /  F ield         | OpenFOAM: The Open Source CFD Toolbox
   \\    /   O peration     | Website:  https://openfoam.org
    \\  /    A nd           | Version:  9
     \\/     M anipulation  |
\*---------------------------------------------------------------------------*/
FoamFile
{
    format      ascii;
    class       volVectorField;
    location    "1400";
    object      Ub;
}
// * * * * * * * * * * * * * * * * * * * * * * * * * * * * * * * * * * * * * //

dimensions      [0 0 0 0 0 0 0];

internalField   nonuniform List<vector> 
100
(
(0 0 7.30567e-06)
(0 0 4.84613e-06)
(0 0 4.84531e-06)
(0 0 4.85149e-06)
(0 0 4.867e-06)
(0 0 4.86785e-06)
(0 0 4.85538e-06)
(0 0 4.84824e-06)
(0 0 4.8438e-06)
(0 0 4.84067e-06)
(0 0 4.83826e-06)
(0 0 4.83764e-06)
(0 0 4.83838e-06)
(0 0 4.83985e-06)
(0 0 4.84129e-06)
(0 0 4.8419e-06)
(0 0 4.84302e-06)
(0 0 4.84506e-06)
(0 0 4.8476e-06)
(0 0 4.85028e-06)
(0 0 4.8526e-06)
(0 0 4.85434e-06)
(0 0 4.85612e-06)
(0 0 4.8582e-06)
(0 0 4.86022e-06)
(0 0 4.86223e-06)
(0 0 4.86452e-06)
(0 0 4.86667e-06)
(0 0 4.86842e-06)
(0 0 4.87025e-06)
(0 0 4.87249e-06)
(0 0 4.875e-06)
(0 0 4.87764e-06)
(0 0 4.88019e-06)
(0 0 4.88229e-06)
(0 0 4.88406e-06)
(0 0 4.8861e-06)
(0 0 4.88874e-06)
(0 0 4.89182e-06)
(0 0 4.89575e-06)
(0 0 4.90257e-06)
(0 0 4.91667e-06)
(0 0 4.9571e-06)
(0 0 5.31493e-06)
(0 0 6.42406e-06)
(0 0 7.24073e-06)
(0 0 7.27691e-06)
(0 0 7.27893e-06)
(0 0 7.27905e-06)
(0 0 7.27862e-06)
(0 0 7.27845e-06)
(0 0 7.27848e-06)
(0 0 7.2787e-06)
(0 0 7.2791e-06)
(0 0 7.27946e-06)
(0 0 7.27963e-06)
(0 0 7.27967e-06)
(0 0 7.27977e-06)
(0 0 7.299e-06)
(0 0 9.623e-06)
(0 0 1.39345e-05)
(0 0 1.59655e-05)
(0 0 1.59902e-05)
(0 0 1.59905e-05)
(0 0 1.59905e-05)
(0 0 1.59905e-05)
(0 0 1.59905e-05)
(0 0 1.59905e-05)
(0 0 1.59905e-05)
(0 0 1.59905e-05)
(0 0 1.59905e-05)
(0 0 1.59905e-05)
(0 0 1.59905e-05)
(0 0 1.59905e-05)
(0 0 1.59905e-05)
(0 0 1.59905e-05)
(0 0 1.59905e-05)
(0 0 1.59905e-05)
(0 0 1.59905e-05)
(0 0 1.59905e-05)
(0 0 1.59905e-05)
(0 0 1.59905e-05)
(0 0 1.59905e-05)
(0 0 1.59905e-05)
(0 0 1.59905e-05)
(0 0 1.59905e-05)
(0 0 1.59905e-05)
(0 0 1.59905e-05)
(0 0 1.59905e-05)
(0 0 1.59905e-05)
(0 0 1.59905e-05)
(0 0 1.59905e-05)
(0 0 1.59905e-05)
(0 0 1.59905e-05)
(0 0 1.59905e-05)
(0 0 1.59905e-05)
(0 0 1.59905e-05)
(0 0 1.59905e-05)
(0 0 1.59905e-05)
(0 0 1.59905e-05)
)
;

boundaryField
{
    inlet
    {
        type            fixedValue;
        value           uniform (0 0 4.84716e-06);
    }
    outlet
    {
        type            zeroGradient;
    }
    emptyWalls
    {
        type            empty;
    }
}


// ************************************************************************* //
