/*--------------------------------*- C++ -*----------------------------------*\
  =========                 |
  \\      /  F ield         | OpenFOAM: The Open Source CFD Toolbox
   \\    /   O peration     | Website:  https://openfoam.org
    \\  /    A nd           | Version:  9
     \\/     M anipulation  |
\*---------------------------------------------------------------------------*/
FoamFile
{
    format      ascii;
    class       volVectorField;
    location    "1400";
    object      Uc;
}
// * * * * * * * * * * * * * * * * * * * * * * * * * * * * * * * * * * * * * //

dimensions      [0 0 0 0 0 0 0];

internalField   nonuniform List<vector> 
100
(
(0 0 2.7111e-08)
(0 0 2.73182e-08)
(0 0 4.71785e-08)
(0 0 6.86533e-08)
(0 0 9.1304e-08)
(0 0 1.14439e-07)
(0 0 1.37246e-07)
(0 0 1.6074e-07)
(0 0 1.87162e-07)
(0 0 2.19784e-07)
(0 0 2.59056e-07)
(0 0 2.99656e-07)
(0 0 3.37007e-07)
(0 0 3.72956e-07)
(0 0 4.09637e-07)
(0 0 4.46938e-07)
(0 0 4.85077e-07)
(0 0 5.24066e-07)
(0 0 5.63924e-07)
(0 0 6.0463e-07)
(0 0 6.46152e-07)
(0 0 6.88448e-07)
(0 0 7.31426e-07)
(0 0 7.75007e-07)
(0 0 8.19135e-07)
(0 0 8.63709e-07)
(0 0 9.08607e-07)
(0 0 9.53715e-07)
(0 0 9.98883e-07)
(0 0 1.0439e-06)
(0 0 1.08854e-06)
(0 0 1.13253e-06)
(0 0 1.17563e-06)
(0 0 1.21752e-06)
(0 0 1.25784e-06)
(0 0 1.29646e-06)
(0 0 1.33372e-06)
(0 0 1.37129e-06)
(0 0 1.4143e-06)
(0 0 1.47568e-06)
(0 0 1.58385e-06)
(0 0 1.79369e-06)
(0 0 2.29178e-06)
(0 0 4.19176e-06)
(0 0 7.25055e-06)
(0 0 8.82498e-06)
(0 0 8.88022e-06)
(0 0 8.87827e-06)
(0 0 8.87815e-06)
(0 0 8.87858e-06)
(0 0 8.87875e-06)
(0 0 8.87872e-06)
(0 0 8.8785e-06)
(0 0 8.8781e-06)
(0 0 8.87774e-06)
(0 0 8.87757e-06)
(0 0 8.87753e-06)
(0 0 8.87743e-06)
(0 0 8.8582e-06)
(0 0 6.5342e-06)
(0 0 2.22273e-06)
(0 0 1.91662e-07)
(0 0 1.66958e-07)
(0 0 1.66709e-07)
(0 0 1.66707e-07)
(0 0 1.66707e-07)
(0 0 1.66707e-07)
(0 0 1.66707e-07)
(0 0 1.66707e-07)
(0 0 1.66707e-07)
(0 0 1.66707e-07)
(0 0 1.66707e-07)
(0 0 1.66707e-07)
(0 0 1.66707e-07)
(0 0 1.66707e-07)
(0 0 1.66707e-07)
(0 0 1.66707e-07)
(0 0 1.66707e-07)
(0 0 1.66707e-07)
(0 0 1.66707e-07)
(0 0 1.66707e-07)
(0 0 1.66707e-07)
(0 0 1.66707e-07)
(0 0 1.66707e-07)
(0 0 1.66707e-07)
(0 0 1.66707e-07)
(0 0 1.66707e-07)
(0 0 1.66707e-07)
(0 0 1.66707e-07)
(0 0 1.66707e-07)
(0 0 1.66707e-07)
(0 0 1.66707e-07)
(0 0 1.66707e-07)
(0 0 1.66707e-07)
(0 0 1.66707e-07)
(0 0 1.66707e-07)
(0 0 1.66707e-07)
(0 0 1.66707e-07)
(0 0 1.66707e-07)
(0 0 1.66707e-07)
)
;

boundaryField
{
    inlet
    {
        type            fixedValue;
        value           uniform (0 0 0);
    }
    outlet
    {
        type            zeroGradient;
    }
    emptyWalls
    {
        type            empty;
    }
}


// ************************************************************************* //
