/*--------------------------------*- C++ -*----------------------------------*\
  =========                 |
  \\      /  F ield         | OpenFOAM: The Open Source CFD Toolbox
   \\    /   O peration     | Website:  https://openfoam.org
    \\  /    A nd           | Version:  9
     \\/     M anipulation  |
\*---------------------------------------------------------------------------*/
FoamFile
{
    format      ascii;
    class       surfaceScalarField;
    location    "15450";
    object      phib;
}
// * * * * * * * * * * * * * * * * * * * * * * * * * * * * * * * * * * * * * //

dimensions      [0 2 0 0 0 0 0];

internalField   nonuniform List<scalar> 
999
(
1.13624e-09
1.13626e-09
1.13624e-09
1.1363e-09
1.13628e-09
1.13634e-09
1.13637e-09
1.13641e-09
1.13645e-09
1.13651e-09
1.13656e-09
1.13663e-09
1.1367e-09
1.13676e-09
1.13681e-09
1.13687e-09
1.13687e-09
1.13696e-09
1.13708e-09
1.13765e-09
1.14013e-09
1.15883e-09
1.17527e-09
1.17714e-09
1.17744e-09
1.17765e-09
1.17792e-09
1.17821e-09
1.1785e-09
1.17875e-09
1.17899e-09
1.1792e-09
1.17939e-09
1.17956e-09
1.17971e-09
1.17985e-09
1.17997e-09
1.18008e-09
1.18017e-09
1.18026e-09
1.18033e-09
1.1804e-09
1.18045e-09
1.18049e-09
1.18052e-09
1.18054e-09
1.18055e-09
1.18055e-09
1.18054e-09
1.18051e-09
1.18047e-09
1.18041e-09
1.18034e-09
1.18024e-09
1.18012e-09
1.17997e-09
1.17977e-09
1.17951e-09
1.17919e-09
1.17879e-09
1.17833e-09
1.17782e-09
1.17729e-09
1.17673e-09
1.17615e-09
1.17556e-09
1.17496e-09
1.17435e-09
1.17374e-09
1.17311e-09
1.17248e-09
1.17185e-09
1.17121e-09
1.17057e-09
1.16992e-09
1.16928e-09
1.16864e-09
1.16799e-09
1.16733e-09
1.16667e-09
1.16601e-09
1.16534e-09
1.16467e-09
1.16399e-09
1.16331e-09
1.16263e-09
1.16195e-09
1.16127e-09
1.16059e-09
1.15991e-09
1.15922e-09
1.15852e-09
1.15779e-09
1.15703e-09
1.15623e-09
1.15539e-09
1.15453e-09
1.15363e-09
1.15272e-09
1.15178e-09
1.15084e-09
1.1499e-09
1.14895e-09
1.14802e-09
1.14711e-09
1.14622e-09
1.14537e-09
1.14457e-09
1.14381e-09
1.14311e-09
1.14247e-09
1.14189e-09
1.14136e-09
1.14088e-09
1.14044e-09
1.14002e-09
1.13961e-09
1.13921e-09
1.13879e-09
1.13836e-09
1.1379e-09
1.1374e-09
1.13688e-09
1.13632e-09
1.13572e-09
1.13509e-09
1.13444e-09
1.13376e-09
1.13306e-09
1.13235e-09
1.13162e-09
1.13089e-09
1.13016e-09
1.12942e-09
1.12868e-09
1.12795e-09
1.12722e-09
1.12649e-09
1.12577e-09
1.12505e-09
1.12433e-09
1.12362e-09
1.12291e-09
1.12221e-09
1.1215e-09
1.1208e-09
1.12009e-09
1.11939e-09
1.11869e-09
1.11799e-09
1.11728e-09
1.11658e-09
1.11587e-09
1.11517e-09
1.11446e-09
1.11375e-09
1.11304e-09
1.11233e-09
1.11161e-09
1.1109e-09
1.11018e-09
1.10946e-09
1.10874e-09
1.10802e-09
1.10729e-09
1.10657e-09
1.10584e-09
1.10511e-09
1.10438e-09
1.10365e-09
1.10291e-09
1.10217e-09
1.10143e-09
1.10069e-09
1.09995e-09
1.0992e-09
1.09846e-09
1.09771e-09
1.09696e-09
1.09621e-09
1.09545e-09
1.0947e-09
1.09394e-09
1.09318e-09
1.09242e-09
1.09165e-09
1.09089e-09
1.09012e-09
1.08935e-09
1.08858e-09
1.08781e-09
1.08703e-09
1.08626e-09
1.08548e-09
1.0847e-09
1.08392e-09
1.08313e-09
1.08235e-09
1.08156e-09
1.08078e-09
1.07999e-09
1.0792e-09
1.07841e-09
1.07762e-09
1.07683e-09
1.07604e-09
1.07524e-09
1.07445e-09
1.07365e-09
1.07285e-09
1.07205e-09
1.07125e-09
1.07045e-09
1.06964e-09
1.06884e-09
1.06803e-09
1.06722e-09
1.06642e-09
1.0656e-09
1.06479e-09
1.06397e-09
1.06314e-09
1.06231e-09
1.06147e-09
1.06062e-09
1.05976e-09
1.05889e-09
1.05801e-09
1.05711e-09
1.05621e-09
1.05529e-09
1.05436e-09
1.05342e-09
1.05247e-09
1.05152e-09
1.05056e-09
1.04959e-09
1.04863e-09
1.04767e-09
1.04671e-09
1.04577e-09
1.04483e-09
1.04391e-09
1.043e-09
1.04211e-09
1.04124e-09
1.0404e-09
1.03958e-09
1.03878e-09
1.03801e-09
1.03725e-09
1.03652e-09
1.0358e-09
1.0351e-09
1.03441e-09
1.03373e-09
1.03306e-09
1.03238e-09
1.03171e-09
1.03103e-09
1.03034e-09
1.02964e-09
1.02893e-09
1.02821e-09
1.02747e-09
1.02673e-09
1.02597e-09
1.02519e-09
1.02441e-09
1.02361e-09
1.0228e-09
1.02199e-09
1.02117e-09
1.02034e-09
1.0195e-09
1.01866e-09
1.01782e-09
1.01698e-09
1.01613e-09
1.01528e-09
1.01443e-09
1.01358e-09
1.01274e-09
1.01189e-09
1.01104e-09
1.01019e-09
1.00935e-09
1.0085e-09
1.00765e-09
1.00681e-09
1.00596e-09
1.00512e-09
1.00427e-09
1.00343e-09
1.00258e-09
1.00174e-09
1.00089e-09
1.00004e-09
9.99192e-10
9.98343e-10
9.97492e-10
9.9664e-10
9.95787e-10
9.94933e-10
9.94077e-10
9.9322e-10
9.92362e-10
9.91502e-10
9.9064e-10
9.89777e-10
9.88913e-10
9.88046e-10
9.87179e-10
9.86309e-10
9.85438e-10
9.84565e-10
9.8369e-10
9.82813e-10
9.81935e-10
9.81055e-10
9.80173e-10
9.7929e-10
9.78404e-10
9.77517e-10
9.76628e-10
9.75737e-10
9.74844e-10
9.73949e-10
9.73053e-10
9.72154e-10
9.71254e-10
9.70352e-10
9.69448e-10
9.68542e-10
9.67634e-10
9.66724e-10
9.65813e-10
9.64899e-10
9.63984e-10
9.63067e-10
9.62147e-10
9.61226e-10
9.60303e-10
9.59379e-10
9.58452e-10
9.57524e-10
9.56594e-10
9.55662e-10
9.54728e-10
9.53793e-10
9.52856e-10
9.51917e-10
9.50977e-10
9.50035e-10
9.49091e-10
9.48145e-10
9.47198e-10
9.4625e-10
9.45299e-10
9.44347e-10
9.43393e-10
9.42437e-10
9.4148e-10
9.40521e-10
9.3956e-10
9.38597e-10
9.37632e-10
9.36666e-10
9.35696e-10
9.34725e-10
9.3375e-10
9.32773e-10
9.31793e-10
9.30809e-10
9.29821e-10
9.28829e-10
9.27832e-10
9.2683e-10
9.25823e-10
9.2481e-10
9.23792e-10
9.22767e-10
9.21735e-10
9.20697e-10
9.19653e-10
9.18602e-10
9.17545e-10
9.16482e-10
9.15413e-10
9.14339e-10
9.1326e-10
9.12177e-10
9.11091e-10
9.10002e-10
9.08912e-10
9.07821e-10
9.06731e-10
9.05642e-10
9.04556e-10
9.03474e-10
9.02396e-10
9.01325e-10
9.0026e-10
8.99203e-10
8.98154e-10
8.97114e-10
8.96083e-10
8.95062e-10
8.9405e-10
8.93048e-10
8.92054e-10
8.9107e-10
8.90093e-10
8.89123e-10
8.88158e-10
8.87199e-10
8.86243e-10
8.85289e-10
8.84336e-10
8.83383e-10
8.82428e-10
8.81471e-10
8.8051e-10
8.79544e-10
8.78573e-10
8.77595e-10
8.76611e-10
8.7562e-10
8.74622e-10
8.73617e-10
8.72604e-10
8.71584e-10
8.70556e-10
8.69522e-10
8.68481e-10
8.67434e-10
8.66381e-10
8.65323e-10
8.6426e-10
8.63192e-10
8.62119e-10
8.61043e-10
8.59962e-10
8.58879e-10
8.57792e-10
8.56703e-10
8.55611e-10
8.54516e-10
8.53419e-10
8.5232e-10
8.51218e-10
8.50115e-10
8.49009e-10
8.47902e-10
8.46792e-10
8.45681e-10
8.44567e-10
8.43451e-10
8.42333e-10
8.41213e-10
8.4009e-10
8.38965e-10
8.37837e-10
8.36707e-10
8.35575e-10
8.3444e-10
8.33302e-10
8.32161e-10
8.31017e-10
8.29871e-10
8.28721e-10
8.27568e-10
8.26412e-10
8.25253e-10
8.24091e-10
8.22925e-10
8.21756e-10
8.20584e-10
8.19408e-10
8.18229e-10
8.17046e-10
8.15859e-10
8.14669e-10
8.13476e-10
8.12278e-10
8.11077e-10
8.09872e-10
8.08664e-10
8.07451e-10
8.06235e-10
8.05015e-10
8.0379e-10
8.02562e-10
8.01329e-10
8.00093e-10
7.98852e-10
7.97608e-10
7.96359e-10
7.95106e-10
7.93849e-10
7.92587e-10
7.91321e-10
7.90051e-10
7.88776e-10
7.87497e-10
7.86213e-10
7.84925e-10
7.83632e-10
7.82334e-10
7.81033e-10
7.79726e-10
7.78415e-10
7.77098e-10
7.75777e-10
7.74452e-10
7.73121e-10
7.71786e-10
7.70445e-10
7.691e-10
7.6775e-10
7.66394e-10
7.65034e-10
7.63668e-10
7.62297e-10
7.60921e-10
7.5954e-10
7.58153e-10
7.56761e-10
7.55363e-10
7.5396e-10
7.52552e-10
7.51138e-10
7.49717e-10
7.48292e-10
7.4686e-10
7.45422e-10
7.43979e-10
7.42529e-10
7.41073e-10
7.3961e-10
7.38141e-10
7.36665e-10
7.35182e-10
7.33692e-10
7.32196e-10
7.30691e-10
7.2918e-10
7.27661e-10
7.26133e-10
7.24598e-10
7.23054e-10
7.21503e-10
7.19942e-10
7.18374e-10
7.16796e-10
7.15209e-10
7.13613e-10
7.12009e-10
7.10395e-10
7.08772e-10
7.07141e-10
7.05501e-10
7.03851e-10
7.02194e-10
7.00528e-10
6.98854e-10
6.97174e-10
6.95486e-10
6.93792e-10
6.92093e-10
6.90388e-10
6.88679e-10
6.86968e-10
6.85256e-10
6.83543e-10
6.81832e-10
6.80124e-10
6.78422e-10
6.76727e-10
6.75043e-10
6.73373e-10
6.71719e-10
6.70087e-10
6.68479e-10
6.669e-10
6.65356e-10
6.63852e-10
6.62393e-10
6.60985e-10
6.59634e-10
6.58343e-10
6.5712e-10
6.55969e-10
6.54894e-10
6.53899e-10
6.52985e-10
6.52153e-10
6.51404e-10
6.50736e-10
6.50148e-10
6.49636e-10
6.49195e-10
6.48819e-10
6.48502e-10
6.48235e-10
6.48009e-10
6.47814e-10
6.4763e-10
6.47431e-10
6.47176e-10
6.46792e-10
6.4616e-10
6.45064e-10
6.43128e-10
6.39696e-10
6.33659e-10
6.23216e-10
6.05694e-10
5.77761e-10
5.36692e-10
4.8307e-10
4.23205e-10
3.67426e-10
3.23971e-10
2.94851e-10
2.77351e-10
2.67539e-10
2.62258e-10
2.59478e-10
2.58034e-10
2.57288e-10
2.56905e-10
2.56709e-10
2.5661e-10
2.5656e-10
2.56535e-10
2.56524e-10
2.56519e-10
2.56518e-10
2.56518e-10
2.5652e-10
2.56522e-10
2.56524e-10
2.56526e-10
2.56529e-10
2.56532e-10
2.56534e-10
2.56537e-10
2.5654e-10
2.56543e-10
2.56545e-10
2.56548e-10
2.56551e-10
2.56554e-10
2.56557e-10
2.5656e-10
2.56563e-10
2.56565e-10
2.56568e-10
2.56571e-10
2.56574e-10
2.56576e-10
2.56579e-10
2.56581e-10
2.56584e-10
2.56586e-10
2.56588e-10
2.56591e-10
2.56593e-10
2.56595e-10
2.56597e-10
2.56598e-10
2.566e-10
2.56602e-10
2.56603e-10
2.56605e-10
2.56606e-10
2.56607e-10
2.56609e-10
2.5661e-10
2.56611e-10
2.56611e-10
2.56612e-10
2.56613e-10
2.56614e-10
2.56614e-10
2.56614e-10
2.56615e-10
2.56615e-10
2.56615e-10
2.56615e-10
2.56616e-10
2.56615e-10
2.56615e-10
2.56615e-10
2.56615e-10
2.56615e-10
2.56614e-10
2.56614e-10
2.56613e-10
2.56613e-10
2.56612e-10
2.56611e-10
2.56611e-10
2.5661e-10
2.56609e-10
2.56608e-10
2.56607e-10
2.56606e-10
2.56605e-10
2.56603e-10
2.56602e-10
2.56601e-10
2.56599e-10
2.56598e-10
2.56597e-10
2.56595e-10
2.56594e-10
2.56592e-10
2.5659e-10
2.56589e-10
2.56587e-10
2.56585e-10
2.56583e-10
2.56581e-10
2.56579e-10
2.56577e-10
2.56575e-10
2.56573e-10
2.56571e-10
2.56569e-10
2.56567e-10
2.56564e-10
2.56562e-10
2.56559e-10
2.56556e-10
2.56553e-10
2.5655e-10
2.56547e-10
2.56544e-10
2.5654e-10
2.56537e-10
2.56533e-10
2.56528e-10
2.56524e-10
2.56519e-10
2.56514e-10
2.56508e-10
2.56503e-10
2.56496e-10
2.5649e-10
2.56483e-10
2.56476e-10
2.56468e-10
2.56459e-10
2.56451e-10
2.56441e-10
2.56432e-10
2.56421e-10
2.56411e-10
2.564e-10
2.56388e-10
2.56376e-10
2.56363e-10
2.5635e-10
2.56337e-10
2.56324e-10
2.5631e-10
2.56295e-10
2.56281e-10
2.56267e-10
2.56252e-10
2.56237e-10
2.56223e-10
2.56209e-10
2.56194e-10
2.5618e-10
2.56167e-10
2.56154e-10
2.56141e-10
2.56129e-10
2.56117e-10
2.56107e-10
2.56097e-10
2.56088e-10
2.5608e-10
2.56073e-10
2.56067e-10
2.56063e-10
2.56059e-10
2.56057e-10
2.56056e-10
2.56055e-10
2.56055e-10
2.56056e-10
2.56059e-10
2.56064e-10
2.5607e-10
2.56077e-10
2.56085e-10
2.56094e-10
2.56104e-10
2.56114e-10
2.56126e-10
2.56138e-10
2.5615e-10
2.56163e-10
2.56177e-10
2.5619e-10
2.56204e-10
2.56217e-10
2.56231e-10
2.56244e-10
2.56258e-10
2.56271e-10
2.56284e-10
2.56296e-10
2.56308e-10
2.5632e-10
2.56331e-10
2.56341e-10
2.56351e-10
2.56361e-10
2.5637e-10
2.56378e-10
2.56386e-10
2.56393e-10
2.564e-10
2.56407e-10
2.56413e-10
2.56418e-10
2.56423e-10
2.56428e-10
2.56433e-10
2.56437e-10
2.56441e-10
2.56445e-10
2.56449e-10
2.56452e-10
2.56456e-10
2.56459e-10
2.56462e-10
2.56465e-10
2.56469e-10
2.56472e-10
2.56475e-10
2.56478e-10
2.56481e-10
2.56485e-10
2.56488e-10
2.56491e-10
2.56494e-10
2.56497e-10
2.565e-10
2.56503e-10
2.56506e-10
2.56509e-10
2.56512e-10
2.56515e-10
2.56518e-10
2.56521e-10
2.56524e-10
2.56527e-10
2.5653e-10
2.56532e-10
2.56535e-10
2.56538e-10
2.56541e-10
2.56544e-10
2.56546e-10
2.56549e-10
2.56551e-10
2.56554e-10
2.56557e-10
2.56559e-10
2.56562e-10
2.56564e-10
2.56567e-10
2.56569e-10
2.56571e-10
2.56573e-10
2.56576e-10
2.56578e-10
2.5658e-10
2.56582e-10
2.56584e-10
2.56586e-10
2.56588e-10
2.5659e-10
2.56592e-10
2.56593e-10
2.56595e-10
2.56596e-10
2.56598e-10
2.56599e-10
2.56601e-10
2.56602e-10
2.56603e-10
2.56604e-10
2.56605e-10
2.56606e-10
2.56607e-10
2.56608e-10
2.56608e-10
2.56609e-10
2.56609e-10
2.5661e-10
2.5661e-10
2.5661e-10
2.5661e-10
2.5661e-10
2.5661e-10
2.5661e-10
2.5661e-10
2.5661e-10
2.56609e-10
2.56609e-10
2.56608e-10
2.56608e-10
2.56607e-10
2.56606e-10
2.56605e-10
2.56604e-10
2.56603e-10
2.56602e-10
2.56601e-10
2.56599e-10
2.56598e-10
2.56597e-10
2.56595e-10
2.56593e-10
2.56592e-10
2.5659e-10
2.56588e-10
2.56586e-10
2.56584e-10
2.56581e-10
2.56579e-10
2.56576e-10
2.56574e-10
2.56571e-10
2.56568e-10
2.56565e-10
2.56562e-10
2.56558e-10
2.56555e-10
2.56551e-10
2.56547e-10
2.56542e-10
2.56538e-10
2.56533e-10
2.56528e-10
2.56522e-10
2.56516e-10
2.5651e-10
2.56504e-10
2.56497e-10
2.5649e-10
2.56482e-10
2.56474e-10
2.56466e-10
2.56457e-10
2.56448e-10
2.56439e-10
2.56429e-10
2.56418e-10
2.56408e-10
2.56397e-10
2.56385e-10
2.56374e-10
2.56362e-10
2.5635e-10
2.56337e-10
2.56325e-10
2.56312e-10
2.56299e-10
2.56286e-10
2.56273e-10
2.5626e-10
2.56247e-10
2.56234e-10
2.56221e-10
2.56208e-10
2.56196e-10
2.56184e-10
2.56173e-10
2.56162e-10
2.56152e-10
2.56142e-10
2.56132e-10
2.56124e-10
2.56116e-10
2.56109e-10
2.56103e-10
2.56098e-10
2.56094e-10
2.5609e-10
2.56088e-10
2.56087e-10
)
;

boundaryField
{
    inlet
    {
        type            calculated;
        value           uniform -1.13622e-09;
    }
    outlet
    {
        type            calculated;
        value           uniform 2.56086e-10;
    }
    emptyWalls
    {
        type            empty;
        value           nonuniform List<scalar> 0();
    }
}


// ************************************************************************* //
