/*--------------------------------*- C++ -*----------------------------------*\
  =========                 |
  \\      /  F ield         | OpenFOAM: The Open Source CFD Toolbox
   \\    /   O peration     | Website:  https://openfoam.org
    \\  /    A nd           | Version:  9
     \\/     M anipulation  |
\*---------------------------------------------------------------------------*/
FoamFile
{
    format      ascii;
    class       volVectorField;
    location    "15450";
    object      Uc;
}
// * * * * * * * * * * * * * * * * * * * * * * * * * * * * * * * * * * * * * //

dimensions      [0 0 0 0 0 0 0];

internalField   nonuniform List<vector> 
1000
(
(1.16558e-11 0 0)
(6.25184e-11 0 0)
(1.73712e-10 0 0)
(3.47866e-10 0 0)
(5.8152e-10 0 0)
(8.73014e-10 0 0)
(1.22046e-09 0 0)
(1.62059e-09 0 0)
(2.06785e-09 0 0)
(2.55373e-09 0 0)
(3.06649e-09 0 0)
(3.59155e-09 0 0)
(4.11262e-09 0 0)
(4.6138e-09 0 0)
(5.08196e-09 0 0)
(5.5101e-09 0 0)
(5.9092e-09 0 0)
(6.3612e-09 0 0)
(7.28133e-09 0 0)
(1.03504e-08 0 0)
(2.24599e-08 0 0)
(8.57868e-08 0 0)
(1.69213e-07 0 0)
(2.05352e-07 0 0)
(2.14395e-07 0 0)
(2.18752e-07 0 0)
(2.21641e-07 0 0)
(2.23913e-07 0 0)
(2.25866e-07 0 0)
(2.27627e-07 0 0)
(2.29257e-07 0 0)
(2.30793e-07 0 0)
(2.32253e-07 0 0)
(2.33652e-07 0 0)
(2.34999e-07 0 0)
(2.36302e-07 0 0)
(2.37569e-07 0 0)
(2.38805e-07 0 0)
(2.40019e-07 0 0)
(2.41217e-07 0 0)
(2.42405e-07 0 0)
(2.4359e-07 0 0)
(2.44778e-07 0 0)
(2.45975e-07 0 0)
(2.47189e-07 0 0)
(2.4843e-07 0 0)
(2.49726e-07 0 0)
(2.51075e-07 0 0)
(2.52464e-07 0 0)
(2.53901e-07 0 0)
(2.55396e-07 0 0)
(2.56962e-07 0 0)
(2.58619e-07 0 0)
(2.60396e-07 0 0)
(2.62337e-07 0 0)
(2.64504e-07 0 0)
(2.6698e-07 0 0)
(2.69868e-07 0 0)
(2.73266e-07 0 0)
(2.77234e-07 0 0)
(2.81757e-07 0 0)
(2.86746e-07 0 0)
(2.92083e-07 0 0)
(2.97673e-07 0 0)
(3.0345e-07 0 0)
(3.09367e-07 0 0)
(3.15396e-07 0 0)
(3.21513e-07 0 0)
(3.27703e-07 0 0)
(3.33955e-07 0 0)
(3.40259e-07 0 0)
(3.46611e-07 0 0)
(3.53003e-07 0 0)
(3.59434e-07 0 0)
(3.65899e-07 0 0)
(3.72396e-07 0 0)
(3.78924e-07 0 0)
(3.85479e-07 0 0)
(3.9206e-07 0 0)
(3.98665e-07 0 0)
(4.05294e-07 0 0)
(4.11944e-07 0 0)
(4.18616e-07 0 0)
(4.25309e-07 0 0)
(4.32021e-07 0 0)
(4.38754e-07 0 0)
(4.45507e-07 0 0)
(4.5228e-07 0 0)
(4.59072e-07 0 0)
(4.65882e-07 0 0)
(4.72709e-07 0 0)
(4.79549e-07 0 0)
(4.864e-07 0 0)
(4.93258e-07 0 0)
(5.00122e-07 0 0)
(5.06989e-07 0 0)
(5.1386e-07 0 0)
(5.20735e-07 0 0)
(5.27615e-07 0 0)
(5.34501e-07 0 0)
(5.41396e-07 0 0)
(5.48301e-07 0 0)
(5.55218e-07 0 0)
(5.62151e-07 0 0)
(5.691e-07 0 0)
(5.7607e-07 0 0)
(5.83063e-07 0 0)
(5.90084e-07 0 0)
(5.97137e-07 0 0)
(6.04223e-07 0 0)
(6.11346e-07 0 0)
(6.18507e-07 0 0)
(6.25704e-07 0 0)
(6.32937e-07 0 0)
(6.40203e-07 0 0)
(6.47497e-07 0 0)
(6.54814e-07 0 0)
(6.62151e-07 0 0)
(6.69501e-07 0 0)
(6.7686e-07 0 0)
(6.84223e-07 0 0)
(6.91588e-07 0 0)
(6.98952e-07 0 0)
(7.06314e-07 0 0)
(7.13673e-07 0 0)
(7.2103e-07 0 0)
(7.28384e-07 0 0)
(7.35738e-07 0 0)
(7.43094e-07 0 0)
(7.50452e-07 0 0)
(7.57815e-07 0 0)
(7.65185e-07 0 0)
(7.72563e-07 0 0)
(7.7995e-07 0 0)
(7.87348e-07 0 0)
(7.94757e-07 0 0)
(8.02179e-07 0 0)
(8.09614e-07 0 0)
(8.17061e-07 0 0)
(8.24521e-07 0 0)
(8.31994e-07 0 0)
(8.3948e-07 0 0)
(8.46978e-07 0 0)
(8.54489e-07 0 0)
(8.62011e-07 0 0)
(8.69545e-07 0 0)
(8.77091e-07 0 0)
(8.84647e-07 0 0)
(8.92214e-07 0 0)
(8.99791e-07 0 0)
(9.07379e-07 0 0)
(9.14977e-07 0 0)
(9.22584e-07 0 0)
(9.30202e-07 0 0)
(9.37829e-07 0 0)
(9.45465e-07 0 0)
(9.53111e-07 0 0)
(9.60766e-07 0 0)
(9.68431e-07 0 0)
(9.76104e-07 0 0)
(9.83787e-07 0 0)
(9.91478e-07 0 0)
(9.99179e-07 0 0)
(1.00689e-06 0 0)
(1.01461e-06 0 0)
(1.02233e-06 0 0)
(1.03007e-06 0 0)
(1.03781e-06 0 0)
(1.04557e-06 0 0)
(1.05333e-06 0 0)
(1.0611e-06 0 0)
(1.06888e-06 0 0)
(1.07666e-06 0 0)
(1.08446e-06 0 0)
(1.09226e-06 0 0)
(1.10008e-06 0 0)
(1.1079e-06 0 0)
(1.11572e-06 0 0)
(1.12356e-06 0 0)
(1.13141e-06 0 0)
(1.13926e-06 0 0)
(1.14712e-06 0 0)
(1.15499e-06 0 0)
(1.16287e-06 0 0)
(1.17075e-06 0 0)
(1.17865e-06 0 0)
(1.18655e-06 0 0)
(1.19446e-06 0 0)
(1.20238e-06 0 0)
(1.2103e-06 0 0)
(1.21824e-06 0 0)
(1.22618e-06 0 0)
(1.23413e-06 0 0)
(1.24208e-06 0 0)
(1.25005e-06 0 0)
(1.25802e-06 0 0)
(1.266e-06 0 0)
(1.27399e-06 0 0)
(1.28199e-06 0 0)
(1.29e-06 0 0)
(1.29801e-06 0 0)
(1.30603e-06 0 0)
(1.31406e-06 0 0)
(1.3221e-06 0 0)
(1.33015e-06 0 0)
(1.33821e-06 0 0)
(1.34627e-06 0 0)
(1.35435e-06 0 0)
(1.36243e-06 0 0)
(1.37051e-06 0 0)
(1.37861e-06 0 0)
(1.38671e-06 0 0)
(1.39483e-06 0 0)
(1.40295e-06 0 0)
(1.41108e-06 0 0)
(1.41922e-06 0 0)
(1.42736e-06 0 0)
(1.43552e-06 0 0)
(1.44368e-06 0 0)
(1.45184e-06 0 0)
(1.46002e-06 0 0)
(1.46819e-06 0 0)
(1.47637e-06 0 0)
(1.48455e-06 0 0)
(1.49273e-06 0 0)
(1.50091e-06 0 0)
(1.50909e-06 0 0)
(1.51726e-06 0 0)
(1.52543e-06 0 0)
(1.53359e-06 0 0)
(1.54175e-06 0 0)
(1.5499e-06 0 0)
(1.55805e-06 0 0)
(1.5662e-06 0 0)
(1.57434e-06 0 0)
(1.58249e-06 0 0)
(1.59064e-06 0 0)
(1.59879e-06 0 0)
(1.60696e-06 0 0)
(1.61513e-06 0 0)
(1.62332e-06 0 0)
(1.63153e-06 0 0)
(1.63977e-06 0 0)
(1.64803e-06 0 0)
(1.65632e-06 0 0)
(1.66465e-06 0 0)
(1.67301e-06 0 0)
(1.68141e-06 0 0)
(1.68985e-06 0 0)
(1.69833e-06 0 0)
(1.70685e-06 0 0)
(1.71541e-06 0 0)
(1.724e-06 0 0)
(1.73263e-06 0 0)
(1.74129e-06 0 0)
(1.74997e-06 0 0)
(1.75868e-06 0 0)
(1.7674e-06 0 0)
(1.77614e-06 0 0)
(1.78488e-06 0 0)
(1.79363e-06 0 0)
(1.80238e-06 0 0)
(1.81113e-06 0 0)
(1.81987e-06 0 0)
(1.82861e-06 0 0)
(1.83735e-06 0 0)
(1.84608e-06 0 0)
(1.8548e-06 0 0)
(1.86352e-06 0 0)
(1.87223e-06 0 0)
(1.88095e-06 0 0)
(1.88965e-06 0 0)
(1.89836e-06 0 0)
(1.90707e-06 0 0)
(1.91579e-06 0 0)
(1.9245e-06 0 0)
(1.93323e-06 0 0)
(1.94196e-06 0 0)
(1.9507e-06 0 0)
(1.95944e-06 0 0)
(1.9682e-06 0 0)
(1.97697e-06 0 0)
(1.98575e-06 0 0)
(1.99455e-06 0 0)
(2.00335e-06 0 0)
(2.01217e-06 0 0)
(2.021e-06 0 0)
(2.02984e-06 0 0)
(2.0387e-06 0 0)
(2.04757e-06 0 0)
(2.05645e-06 0 0)
(2.06535e-06 0 0)
(2.07425e-06 0 0)
(2.08317e-06 0 0)
(2.09211e-06 0 0)
(2.10105e-06 0 0)
(2.11001e-06 0 0)
(2.11897e-06 0 0)
(2.12795e-06 0 0)
(2.13694e-06 0 0)
(2.14594e-06 0 0)
(2.15495e-06 0 0)
(2.16398e-06 0 0)
(2.17301e-06 0 0)
(2.18206e-06 0 0)
(2.19112e-06 0 0)
(2.20018e-06 0 0)
(2.20926e-06 0 0)
(2.21835e-06 0 0)
(2.22745e-06 0 0)
(2.23656e-06 0 0)
(2.24568e-06 0 0)
(2.25481e-06 0 0)
(2.26395e-06 0 0)
(2.27311e-06 0 0)
(2.28227e-06 0 0)
(2.29145e-06 0 0)
(2.30063e-06 0 0)
(2.30983e-06 0 0)
(2.31903e-06 0 0)
(2.32825e-06 0 0)
(2.33748e-06 0 0)
(2.34672e-06 0 0)
(2.35597e-06 0 0)
(2.36523e-06 0 0)
(2.3745e-06 0 0)
(2.38378e-06 0 0)
(2.39308e-06 0 0)
(2.40238e-06 0 0)
(2.4117e-06 0 0)
(2.42102e-06 0 0)
(2.43036e-06 0 0)
(2.43971e-06 0 0)
(2.44907e-06 0 0)
(2.45844e-06 0 0)
(2.46782e-06 0 0)
(2.47721e-06 0 0)
(2.48662e-06 0 0)
(2.49603e-06 0 0)
(2.50546e-06 0 0)
(2.5149e-06 0 0)
(2.52435e-06 0 0)
(2.53381e-06 0 0)
(2.54328e-06 0 0)
(2.55277e-06 0 0)
(2.56227e-06 0 0)
(2.57177e-06 0 0)
(2.5813e-06 0 0)
(2.59083e-06 0 0)
(2.60037e-06 0 0)
(2.60993e-06 0 0)
(2.6195e-06 0 0)
(2.62909e-06 0 0)
(2.63868e-06 0 0)
(2.64829e-06 0 0)
(2.65791e-06 0 0)
(2.66755e-06 0 0)
(2.67719e-06 0 0)
(2.68685e-06 0 0)
(2.69653e-06 0 0)
(2.70621e-06 0 0)
(2.71591e-06 0 0)
(2.72563e-06 0 0)
(2.73535e-06 0 0)
(2.74509e-06 0 0)
(2.75484e-06 0 0)
(2.76461e-06 0 0)
(2.77439e-06 0 0)
(2.78418e-06 0 0)
(2.79398e-06 0 0)
(2.8038e-06 0 0)
(2.81362e-06 0 0)
(2.82346e-06 0 0)
(2.83331e-06 0 0)
(2.84316e-06 0 0)
(2.85303e-06 0 0)
(2.8629e-06 0 0)
(2.87278e-06 0 0)
(2.88266e-06 0 0)
(2.89255e-06 0 0)
(2.90244e-06 0 0)
(2.91234e-06 0 0)
(2.92223e-06 0 0)
(2.93213e-06 0 0)
(2.94203e-06 0 0)
(2.95194e-06 0 0)
(2.96184e-06 0 0)
(2.97175e-06 0 0)
(2.98166e-06 0 0)
(2.99157e-06 0 0)
(3.00149e-06 0 0)
(3.01142e-06 0 0)
(3.02136e-06 0 0)
(3.0313e-06 0 0)
(3.04126e-06 0 0)
(3.05124e-06 0 0)
(3.06124e-06 0 0)
(3.07125e-06 0 0)
(3.0813e-06 0 0)
(3.09137e-06 0 0)
(3.10147e-06 0 0)
(3.11161e-06 0 0)
(3.12179e-06 0 0)
(3.13201e-06 0 0)
(3.14227e-06 0 0)
(3.15258e-06 0 0)
(3.16294e-06 0 0)
(3.17334e-06 0 0)
(3.1838e-06 0 0)
(3.19431e-06 0 0)
(3.20487e-06 0 0)
(3.21548e-06 0 0)
(3.22614e-06 0 0)
(3.23685e-06 0 0)
(3.24761e-06 0 0)
(3.2584e-06 0 0)
(3.26924e-06 0 0)
(3.28011e-06 0 0)
(3.29101e-06 0 0)
(3.30195e-06 0 0)
(3.31291e-06 0 0)
(3.32389e-06 0 0)
(3.33489e-06 0 0)
(3.34591e-06 0 0)
(3.35694e-06 0 0)
(3.36798e-06 0 0)
(3.37903e-06 0 0)
(3.39009e-06 0 0)
(3.40116e-06 0 0)
(3.41223e-06 0 0)
(3.42331e-06 0 0)
(3.4344e-06 0 0)
(3.44549e-06 0 0)
(3.45659e-06 0 0)
(3.4677e-06 0 0)
(3.47882e-06 0 0)
(3.48995e-06 0 0)
(3.50109e-06 0 0)
(3.51224e-06 0 0)
(3.52341e-06 0 0)
(3.53459e-06 0 0)
(3.5458e-06 0 0)
(3.55702e-06 0 0)
(3.56826e-06 0 0)
(3.57952e-06 0 0)
(3.5908e-06 0 0)
(3.60211e-06 0 0)
(3.61344e-06 0 0)
(3.62479e-06 0 0)
(3.63617e-06 0 0)
(3.64758e-06 0 0)
(3.65901e-06 0 0)
(3.67047e-06 0 0)
(3.68195e-06 0 0)
(3.69347e-06 0 0)
(3.70501e-06 0 0)
(3.71658e-06 0 0)
(3.72818e-06 0 0)
(3.73981e-06 0 0)
(3.75146e-06 0 0)
(3.76315e-06 0 0)
(3.77486e-06 0 0)
(3.7866e-06 0 0)
(3.79837e-06 0 0)
(3.81017e-06 0 0)
(3.822e-06 0 0)
(3.83386e-06 0 0)
(3.84574e-06 0 0)
(3.85766e-06 0 0)
(3.8696e-06 0 0)
(3.88158e-06 0 0)
(3.89358e-06 0 0)
(3.90562e-06 0 0)
(3.91768e-06 0 0)
(3.92977e-06 0 0)
(3.9419e-06 0 0)
(3.95405e-06 0 0)
(3.96624e-06 0 0)
(3.97845e-06 0 0)
(3.9907e-06 0 0)
(4.00297e-06 0 0)
(4.01528e-06 0 0)
(4.02762e-06 0 0)
(4.03999e-06 0 0)
(4.05239e-06 0 0)
(4.06483e-06 0 0)
(4.07729e-06 0 0)
(4.08979e-06 0 0)
(4.10233e-06 0 0)
(4.11489e-06 0 0)
(4.12749e-06 0 0)
(4.14013e-06 0 0)
(4.15279e-06 0 0)
(4.1655e-06 0 0)
(4.17823e-06 0 0)
(4.191e-06 0 0)
(4.20381e-06 0 0)
(4.21665e-06 0 0)
(4.22953e-06 0 0)
(4.24245e-06 0 0)
(4.2554e-06 0 0)
(4.26839e-06 0 0)
(4.28141e-06 0 0)
(4.29448e-06 0 0)
(4.30758e-06 0 0)
(4.32073e-06 0 0)
(4.33391e-06 0 0)
(4.34713e-06 0 0)
(4.36039e-06 0 0)
(4.37369e-06 0 0)
(4.38703e-06 0 0)
(4.40042e-06 0 0)
(4.41384e-06 0 0)
(4.42731e-06 0 0)
(4.44082e-06 0 0)
(4.45438e-06 0 0)
(4.46798e-06 0 0)
(4.48162e-06 0 0)
(4.49531e-06 0 0)
(4.50904e-06 0 0)
(4.52282e-06 0 0)
(4.53665e-06 0 0)
(4.55053e-06 0 0)
(4.56445e-06 0 0)
(4.57842e-06 0 0)
(4.59244e-06 0 0)
(4.60652e-06 0 0)
(4.62064e-06 0 0)
(4.63481e-06 0 0)
(4.64903e-06 0 0)
(4.66331e-06 0 0)
(4.67763e-06 0 0)
(4.69202e-06 0 0)
(4.70645e-06 0 0)
(4.72095e-06 0 0)
(4.73549e-06 0 0)
(4.75009e-06 0 0)
(4.76475e-06 0 0)
(4.77946e-06 0 0)
(4.79423e-06 0 0)
(4.80906e-06 0 0)
(4.82395e-06 0 0)
(4.83889e-06 0 0)
(4.85389e-06 0 0)
(4.86895e-06 0 0)
(4.88406e-06 0 0)
(4.89923e-06 0 0)
(4.91446e-06 0 0)
(4.92975e-06 0 0)
(4.9451e-06 0 0)
(4.96051e-06 0 0)
(4.97596e-06 0 0)
(4.99148e-06 0 0)
(5.00705e-06 0 0)
(5.02268e-06 0 0)
(5.03837e-06 0 0)
(5.05411e-06 0 0)
(5.0699e-06 0 0)
(5.08576e-06 0 0)
(5.10166e-06 0 0)
(5.11762e-06 0 0)
(5.13363e-06 0 0)
(5.1497e-06 0 0)
(5.16582e-06 0 0)
(5.182e-06 0 0)
(5.19823e-06 0 0)
(5.21451e-06 0 0)
(5.23084e-06 0 0)
(5.24722e-06 0 0)
(5.26365e-06 0 0)
(5.28012e-06 0 0)
(5.29664e-06 0 0)
(5.31319e-06 0 0)
(5.32977e-06 0 0)
(5.34638e-06 0 0)
(5.363e-06 0 0)
(5.37963e-06 0 0)
(5.39625e-06 0 0)
(5.41285e-06 0 0)
(5.4294e-06 0 0)
(5.44589e-06 0 0)
(5.46228e-06 0 0)
(5.47854e-06 0 0)
(5.49465e-06 0 0)
(5.51056e-06 0 0)
(5.52622e-06 0 0)
(5.54159e-06 0 0)
(5.55661e-06 0 0)
(5.57122e-06 0 0)
(5.58538e-06 0 0)
(5.59902e-06 0 0)
(5.61209e-06 0 0)
(5.62453e-06 0 0)
(5.63629e-06 0 0)
(5.64733e-06 0 0)
(5.65762e-06 0 0)
(5.66714e-06 0 0)
(5.67587e-06 0 0)
(5.68381e-06 0 0)
(5.69096e-06 0 0)
(5.69736e-06 0 0)
(5.70303e-06 0 0)
(5.70802e-06 0 0)
(5.71239e-06 0 0)
(5.7162e-06 0 0)
(5.71954e-06 0 0)
(5.7225e-06 0 0)
(5.72523e-06 0 0)
(5.72796e-06 0 0)
(5.73102e-06 0 0)
(5.73499e-06 0 0)
(5.74085e-06 0 0)
(5.7503e-06 0 0)
(5.76636e-06 0 0)
(5.79428e-06 0 0)
(5.84305e-06 0 0)
(5.92748e-06 0 0)
(6.07031e-06 0 0)
(6.30199e-06 0 0)
(6.65304e-06 0 0)
(7.13383e-06 0 0)
(7.70873e-06 0 0)
(8.2931e-06 0 0)
(8.7934e-06 0 0)
(9.15864e-06 0 0)
(9.39301e-06 0 0)
(9.53026e-06 0 0)
(9.60615e-06 0 0)
(9.64673e-06 0 0)
(9.66806e-06 0 0)
(9.67919e-06 0 0)
(9.68498e-06 0 0)
(9.68801e-06 0 0)
(9.68962e-06 0 0)
(9.69049e-06 0 0)
(9.69098e-06 0 0)
(9.69127e-06 0 0)
(9.69147e-06 0 0)
(9.69161e-06 0 0)
(9.69173e-06 0 0)
(9.69183e-06 0 0)
(9.69193e-06 0 0)
(9.69203e-06 0 0)
(9.69212e-06 0 0)
(9.69222e-06 0 0)
(9.69231e-06 0 0)
(9.69241e-06 0 0)
(9.69251e-06 0 0)
(9.69261e-06 0 0)
(9.69271e-06 0 0)
(9.69282e-06 0 0)
(9.69292e-06 0 0)
(9.69303e-06 0 0)
(9.69314e-06 0 0)
(9.69324e-06 0 0)
(9.69335e-06 0 0)
(9.69346e-06 0 0)
(9.69357e-06 0 0)
(9.69368e-06 0 0)
(9.69379e-06 0 0)
(9.6939e-06 0 0)
(9.69401e-06 0 0)
(9.69412e-06 0 0)
(9.69422e-06 0 0)
(9.69433e-06 0 0)
(9.69443e-06 0 0)
(9.69454e-06 0 0)
(9.69464e-06 0 0)
(9.69474e-06 0 0)
(9.69485e-06 0 0)
(9.69494e-06 0 0)
(9.69504e-06 0 0)
(9.69514e-06 0 0)
(9.69523e-06 0 0)
(9.69532e-06 0 0)
(9.69541e-06 0 0)
(9.6955e-06 0 0)
(9.69558e-06 0 0)
(9.69566e-06 0 0)
(9.69574e-06 0 0)
(9.69582e-06 0 0)
(9.6959e-06 0 0)
(9.69597e-06 0 0)
(9.69604e-06 0 0)
(9.6961e-06 0 0)
(9.69617e-06 0 0)
(9.69623e-06 0 0)
(9.69628e-06 0 0)
(9.69634e-06 0 0)
(9.69639e-06 0 0)
(9.69643e-06 0 0)
(9.69648e-06 0 0)
(9.69652e-06 0 0)
(9.69656e-06 0 0)
(9.69659e-06 0 0)
(9.69662e-06 0 0)
(9.69665e-06 0 0)
(9.69667e-06 0 0)
(9.69669e-06 0 0)
(9.69671e-06 0 0)
(9.69672e-06 0 0)
(9.69673e-06 0 0)
(9.69673e-06 0 0)
(9.69674e-06 0 0)
(9.69674e-06 0 0)
(9.69674e-06 0 0)
(9.69673e-06 0 0)
(9.69672e-06 0 0)
(9.6967e-06 0 0)
(9.69669e-06 0 0)
(9.69667e-06 0 0)
(9.69664e-06 0 0)
(9.69662e-06 0 0)
(9.69659e-06 0 0)
(9.69655e-06 0 0)
(9.69652e-06 0 0)
(9.69648e-06 0 0)
(9.69644e-06 0 0)
(9.69639e-06 0 0)
(9.69635e-06 0 0)
(9.6963e-06 0 0)
(9.69624e-06 0 0)
(9.69619e-06 0 0)
(9.69613e-06 0 0)
(9.69607e-06 0 0)
(9.69601e-06 0 0)
(9.69594e-06 0 0)
(9.69587e-06 0 0)
(9.6958e-06 0 0)
(9.69572e-06 0 0)
(9.69564e-06 0 0)
(9.69556e-06 0 0)
(9.69547e-06 0 0)
(9.69538e-06 0 0)
(9.69529e-06 0 0)
(9.69519e-06 0 0)
(9.69508e-06 0 0)
(9.69497e-06 0 0)
(9.69485e-06 0 0)
(9.69473e-06 0 0)
(9.6946e-06 0 0)
(9.69446e-06 0 0)
(9.69431e-06 0 0)
(9.69415e-06 0 0)
(9.69398e-06 0 0)
(9.6938e-06 0 0)
(9.69361e-06 0 0)
(9.6934e-06 0 0)
(9.69319e-06 0 0)
(9.69296e-06 0 0)
(9.69271e-06 0 0)
(9.69245e-06 0 0)
(9.69217e-06 0 0)
(9.69188e-06 0 0)
(9.69157e-06 0 0)
(9.69124e-06 0 0)
(9.6909e-06 0 0)
(9.69054e-06 0 0)
(9.69016e-06 0 0)
(9.68976e-06 0 0)
(9.68934e-06 0 0)
(9.68891e-06 0 0)
(9.68846e-06 0 0)
(9.68799e-06 0 0)
(9.68751e-06 0 0)
(9.68702e-06 0 0)
(9.68651e-06 0 0)
(9.68599e-06 0 0)
(9.68546e-06 0 0)
(9.68492e-06 0 0)
(9.68438e-06 0 0)
(9.68384e-06 0 0)
(9.68329e-06 0 0)
(9.68274e-06 0 0)
(9.6822e-06 0 0)
(9.68166e-06 0 0)
(9.68113e-06 0 0)
(9.68062e-06 0 0)
(9.68012e-06 0 0)
(9.67963e-06 0 0)
(9.67917e-06 0 0)
(9.67873e-06 0 0)
(9.67832e-06 0 0)
(9.67794e-06 0 0)
(9.67759e-06 0 0)
(9.67727e-06 0 0)
(9.677e-06 0 0)
(9.67676e-06 0 0)
(9.67656e-06 0 0)
(9.67641e-06 0 0)
(9.6763e-06 0 0)
(9.67624e-06 0 0)
(9.67622e-06 0 0)
(9.67621e-06 0 0)
(9.67622e-06 0 0)
(9.67629e-06 0 0)
(9.67644e-06 0 0)
(9.67664e-06 0 0)
(9.67688e-06 0 0)
(9.67716e-06 0 0)
(9.67748e-06 0 0)
(9.67783e-06 0 0)
(9.67821e-06 0 0)
(9.67862e-06 0 0)
(9.67905e-06 0 0)
(9.6795e-06 0 0)
(9.67997e-06 0 0)
(9.68046e-06 0 0)
(9.68095e-06 0 0)
(9.68146e-06 0 0)
(9.68196e-06 0 0)
(9.68247e-06 0 0)
(9.68298e-06 0 0)
(9.68348e-06 0 0)
(9.68397e-06 0 0)
(9.68445e-06 0 0)
(9.68492e-06 0 0)
(9.68537e-06 0 0)
(9.68581e-06 0 0)
(9.68624e-06 0 0)
(9.68664e-06 0 0)
(9.68703e-06 0 0)
(9.6874e-06 0 0)
(9.68775e-06 0 0)
(9.68808e-06 0 0)
(9.68839e-06 0 0)
(9.68868e-06 0 0)
(9.68895e-06 0 0)
(9.68921e-06 0 0)
(9.68945e-06 0 0)
(9.68967e-06 0 0)
(9.68988e-06 0 0)
(9.69007e-06 0 0)
(9.69025e-06 0 0)
(9.69042e-06 0 0)
(9.69058e-06 0 0)
(9.69073e-06 0 0)
(9.69087e-06 0 0)
(9.691e-06 0 0)
(9.69112e-06 0 0)
(9.69123e-06 0 0)
(9.69134e-06 0 0)
(9.69145e-06 0 0)
(9.69155e-06 0 0)
(9.69165e-06 0 0)
(9.69174e-06 0 0)
(9.69183e-06 0 0)
(9.69193e-06 0 0)
(9.69202e-06 0 0)
(9.69211e-06 0 0)
(9.6922e-06 0 0)
(9.69229e-06 0 0)
(9.69238e-06 0 0)
(9.69247e-06 0 0)
(9.69257e-06 0 0)
(9.69266e-06 0 0)
(9.69276e-06 0 0)
(9.69285e-06 0 0)
(9.69295e-06 0 0)
(9.69305e-06 0 0)
(9.69315e-06 0 0)
(9.69325e-06 0 0)
(9.69335e-06 0 0)
(9.69346e-06 0 0)
(9.69356e-06 0 0)
(9.69366e-06 0 0)
(9.69377e-06 0 0)
(9.69387e-06 0 0)
(9.69397e-06 0 0)
(9.69408e-06 0 0)
(9.69418e-06 0 0)
(9.69428e-06 0 0)
(9.69439e-06 0 0)
(9.69449e-06 0 0)
(9.69459e-06 0 0)
(9.69469e-06 0 0)
(9.69479e-06 0 0)
(9.69488e-06 0 0)
(9.69498e-06 0 0)
(9.69507e-06 0 0)
(9.69516e-06 0 0)
(9.69526e-06 0 0)
(9.69534e-06 0 0)
(9.69543e-06 0 0)
(9.69551e-06 0 0)
(9.6956e-06 0 0)
(9.69568e-06 0 0)
(9.69575e-06 0 0)
(9.69583e-06 0 0)
(9.6959e-06 0 0)
(9.69597e-06 0 0)
(9.69603e-06 0 0)
(9.6961e-06 0 0)
(9.69616e-06 0 0)
(9.69622e-06 0 0)
(9.69627e-06 0 0)
(9.69633e-06 0 0)
(9.69637e-06 0 0)
(9.69642e-06 0 0)
(9.69646e-06 0 0)
(9.6965e-06 0 0)
(9.69654e-06 0 0)
(9.69657e-06 0 0)
(9.6966e-06 0 0)
(9.69663e-06 0 0)
(9.69665e-06 0 0)
(9.69667e-06 0 0)
(9.69669e-06 0 0)
(9.6967e-06 0 0)
(9.69671e-06 0 0)
(9.69672e-06 0 0)
(9.69672e-06 0 0)
(9.69672e-06 0 0)
(9.69672e-06 0 0)
(9.69672e-06 0 0)
(9.69671e-06 0 0)
(9.6967e-06 0 0)
(9.69668e-06 0 0)
(9.69666e-06 0 0)
(9.69664e-06 0 0)
(9.69661e-06 0 0)
(9.69658e-06 0 0)
(9.69655e-06 0 0)
(9.69652e-06 0 0)
(9.69648e-06 0 0)
(9.69644e-06 0 0)
(9.69639e-06 0 0)
(9.69635e-06 0 0)
(9.6963e-06 0 0)
(9.69624e-06 0 0)
(9.69619e-06 0 0)
(9.69613e-06 0 0)
(9.69606e-06 0 0)
(9.69599e-06 0 0)
(9.69592e-06 0 0)
(9.69585e-06 0 0)
(9.69577e-06 0 0)
(9.69568e-06 0 0)
(9.6956e-06 0 0)
(9.6955e-06 0 0)
(9.6954e-06 0 0)
(9.6953e-06 0 0)
(9.69519e-06 0 0)
(9.69507e-06 0 0)
(9.69494e-06 0 0)
(9.69481e-06 0 0)
(9.69467e-06 0 0)
(9.69453e-06 0 0)
(9.69437e-06 0 0)
(9.6942e-06 0 0)
(9.69403e-06 0 0)
(9.69384e-06 0 0)
(9.69364e-06 0 0)
(9.69343e-06 0 0)
(9.69321e-06 0 0)
(9.69298e-06 0 0)
(9.69273e-06 0 0)
(9.69247e-06 0 0)
(9.6922e-06 0 0)
(9.69191e-06 0 0)
(9.69161e-06 0 0)
(9.69129e-06 0 0)
(9.69096e-06 0 0)
(9.69061e-06 0 0)
(9.69025e-06 0 0)
(9.68988e-06 0 0)
(9.68949e-06 0 0)
(9.68909e-06 0 0)
(9.68867e-06 0 0)
(9.68825e-06 0 0)
(9.68781e-06 0 0)
(9.68736e-06 0 0)
(9.6869e-06 0 0)
(9.68644e-06 0 0)
(9.68596e-06 0 0)
(9.68548e-06 0 0)
(9.685e-06 0 0)
(9.68452e-06 0 0)
(9.68403e-06 0 0)
(9.68355e-06 0 0)
(9.68307e-06 0 0)
(9.68259e-06 0 0)
(9.68213e-06 0 0)
(9.68167e-06 0 0)
(9.68122e-06 0 0)
(9.68079e-06 0 0)
(9.68037e-06 0 0)
(9.67998e-06 0 0)
(9.6796e-06 0 0)
(9.67925e-06 0 0)
(9.67892e-06 0 0)
(9.67862e-06 0 0)
(9.67834e-06 0 0)
(9.6781e-06 0 0)
(9.67789e-06 0 0)
(9.67771e-06 0 0)
(9.67757e-06 0 0)
(9.67747e-06 0 0)
(9.6774e-06 0 0)
(9.67737e-06 0 0)
)
;

boundaryField
{
    inlet
    {
        type            fixedValue;
        value           uniform (0 0 0);
    }
    outlet
    {
        type            zeroGradient;
    }
    emptyWalls
    {
        type            empty;
    }
}


// ************************************************************************* //
