/*--------------------------------*- C++ -*----------------------------------*\
  =========                 |
  \\      /  F ield         | OpenFOAM: The Open Source CFD Toolbox
   \\    /   O peration     | Website:  https://openfoam.org
    \\  /    A nd           | Version:  9
     \\/     M anipulation  |
\*---------------------------------------------------------------------------*/
FoamFile
{
    format      ascii;
    class       volScalarField;
    location    "9100";
    object      krc;
}
// * * * * * * * * * * * * * * * * * * * * * * * * * * * * * * * * * * * * * //

dimensions      [0 0 0 0 0 0 0];

internalField   nonuniform List<scalar> 
1000
(
6.62092e-07
7.14447e-06
2.34737e-05
4.73492e-05
7.78394e-05
0.000113235
0.000151021
0.000188672
0.000226196
0.000277426
0.000427024
0.00115944
0.00999702
0.0359627
0.0440067
0.0470248
0.0487466
0.0499686
0.0509401
0.0517543
0.052463
0.0530859
0.0536485
0.0541626
0.0546483
0.0551154
0.0555786
0.0560476
0.0565557
0.0570929
0.0576716
0.0583208
0.0590832
0.0600082
0.0611307
0.0624437
0.0639009
0.0654503
0.0670568
0.0686983
0.0703609
0.0720355
0.073716
0.0753981
0.0770791
0.0787569
0.0804301
0.0820975
0.0837586
0.0854126
0.0870592
0.0886981
0.0903291
0.0919519
0.0935666
0.095173
0.096771
0.0983607
0.0999421
0.101515
0.10308
0.104637
0.106185
0.107725
0.109258
0.110782
0.112299
0.113807
0.115308
0.116801
0.118287
0.119765
0.121236
0.122699
0.124156
0.125604
0.127046
0.128481
0.129909
0.13133
0.132744
0.134151
0.135552
0.136946
0.138334
0.139716
0.141092
0.142462
0.143825
0.145183
0.146536
0.147882
0.149224
0.15056
0.15189
0.153216
0.154536
0.155851
0.15716
0.158465
0.159765
0.161059
0.162348
0.163633
0.164912
0.166187
0.167456
0.168721
0.169981
0.171237
0.172488
0.173735
0.174977
0.176215
0.177449
0.178678
0.179904
0.181125
0.182343
0.183556
0.184766
0.185972
0.187174
0.188373
0.189568
0.190759
0.191947
0.193131
0.194312
0.19549
0.196664
0.197835
0.199002
0.200167
0.201328
0.202486
0.203641
0.204793
0.205942
0.207088
0.208231
0.209371
0.210509
0.211643
0.212775
0.213904
0.215031
0.216154
0.217276
0.218394
0.219511
0.220624
0.221736
0.222845
0.223951
0.225055
0.226157
0.227257
0.228354
0.22945
0.230543
0.231634
0.232723
0.23381
0.234895
0.235978
0.237059
0.238138
0.239216
0.240291
0.241365
0.242437
0.243507
0.244576
0.245643
0.246708
0.247771
0.248834
0.249894
0.250953
0.252011
0.253067
0.254122
0.255175
0.256227
0.257278
0.258328
0.259376
0.260423
0.261469
0.262514
0.263557
0.2646
0.265641
0.266682
0.267721
0.26876
0.269797
0.270834
0.27187
0.272904
0.273939
0.274972
0.276004
0.277036
0.278067
0.279098
0.280128
0.281157
0.282185
0.283213
0.284241
0.285268
0.286294
0.28732
0.288346
0.289371
0.290396
0.291421
0.292445
0.293469
0.294492
0.295515
0.296538
0.297561
0.298584
0.299606
0.300628
0.30165
0.302672
0.303694
0.304716
0.305738
0.30676
0.307783
0.308805
0.309828
0.310852
0.311876
0.312901
0.313926
0.314952
0.315979
0.317007
0.318035
0.319065
0.320096
0.321128
0.322161
0.323195
0.324231
0.325267
0.326305
0.327344
0.328384
0.329426
0.330468
0.331512
0.332557
0.333603
0.33465
0.335698
0.336748
0.337798
0.33885
0.339904
0.340959
0.342015
0.343073
0.344132
0.345193
0.346256
0.34732
0.348387
0.349455
0.350525
0.351598
0.352673
0.35375
0.354829
0.355911
0.356995
0.358082
0.359172
0.360264
0.361359
0.362457
0.363558
0.364662
0.365769
0.366879
0.367992
0.369109
0.370229
0.371353
0.372481
0.373612
0.374747
0.375886
0.377029
0.378176
0.379326
0.380482
0.381642
0.382806
0.383975
0.385149
0.386327
0.387511
0.388699
0.389893
0.391092
0.392296
0.393506
0.394722
0.395944
0.397171
0.398405
0.399645
0.400891
0.402144
0.403403
0.404668
0.405941
0.40722
0.408506
0.409799
0.411098
0.412403
0.413715
0.415033
0.416356
0.417684
0.419017
0.420352
0.421688
0.423024
0.424358
0.425687
0.427008
0.428315
0.429605
0.430872
0.43211
0.433312
0.434471
0.435579
0.43663
0.437615
0.43853
0.439373
0.44014
0.440836
0.441469
0.442056
0.442629
0.443244
0.443998
0.445059
0.446715
0.449458
0.454091
0.461838
0.474319
0.493088
0.518462
0.548113
0.577198
0.601002
0.617605
0.627866
0.633719
0.636901
0.638584
0.639462
0.639916
0.64015
0.64027
0.640331
0.640362
0.640378
0.640385
0.640389
0.64039
0.640391
0.64039
0.64039
0.640389
0.640388
0.640387
0.640386
0.640384
0.640383
0.640382
0.64038
0.640379
0.640377
0.640375
0.640373
0.640371
0.640369
0.640367
0.640364
0.640361
0.640358
0.640355
0.640351
0.640347
0.640343
0.640339
0.640335
0.64033
0.640325
0.64032
0.640315
0.640309
0.640303
0.640297
0.640291
0.640285
0.640279
0.640273
0.640266
0.64026
0.640254
0.640249
0.640243
0.640238
0.640233
0.640229
0.640225
0.640221
0.640219
0.640216
0.640215
0.640214
0.640214
0.640215
0.640215
0.640216
0.640219
0.640222
0.640226
0.640231
0.640236
0.640241
0.640247
0.640254
0.640261
0.640267
0.640275
0.640282
0.640289
0.640296
0.640303
0.640309
0.640316
0.640322
0.640328
0.640334
0.640339
0.640344
0.640348
0.640352
0.640356
0.640359
0.640362
0.640365
0.640367
0.640369
0.640371
0.640372
0.640373
0.640375
0.640376
0.640376
0.640377
0.640378
0.640378
0.640379
0.640379
0.64038
0.64038
0.640381
0.640382
0.640382
0.640383
0.640383
0.640384
0.640385
0.640385
0.640386
0.640387
0.640388
0.640389
0.64039
0.640391
0.640392
0.640393
0.640394
0.640395
0.640396
0.640397
0.640398
0.640399
0.640401
0.640402
0.640403
0.640404
0.640405
0.640406
0.640407
0.640408
0.64041
0.640411
0.640412
0.640413
0.640414
0.640415
0.640416
0.640417
0.640418
0.640419
0.64042
0.640421
0.640422
0.640423
0.640423
0.640424
0.640425
0.640426
0.640427
0.640428
0.640428
0.640429
0.64043
0.64043
0.640431
0.640431
0.640432
0.640432
0.640433
0.640433
0.640434
0.640434
0.640435
0.640435
0.640435
0.640435
0.640435
0.640436
0.640436
0.640436
0.640436
0.640436
0.640436
0.640436
0.640436
0.640436
0.640435
0.640435
0.640435
0.640435
0.640434
0.640434
0.640434
0.640433
0.640433
0.640433
0.640432
0.640432
0.640431
0.640431
0.64043
0.640429
0.640429
0.640428
0.640428
0.640427
0.640426
0.640426
0.640425
0.640424
0.640423
0.640423
0.640422
0.640421
0.64042
0.64042
0.640419
0.640418
0.640417
0.640416
0.640415
0.640414
0.640413
0.640412
0.64041
0.640409
0.640408
0.640406
0.640405
0.640403
0.640401
0.640399
0.640397
0.640395
0.640392
0.64039
0.640387
0.640384
0.64038
0.640377
0.640373
0.64037
0.640365
0.640361
0.640357
0.640352
0.640348
0.640343
0.640338
0.640333
0.640328
0.640323
0.640317
0.640312
0.640307
0.640302
0.640296
0.640291
0.640286
0.640281
0.640276
0.640272
0.640267
0.640263
0.640259
0.640256
0.640252
0.64025
0.640247
0.640245
0.640244
0.640243
0.640243
0.640243
0.640243
0.640243
0.640244
0.640246
0.640249
0.640252
0.640255
0.640259
0.640263
0.640267
0.640272
0.640277
0.640282
0.640288
0.640293
0.640298
0.640303
0.640309
0.640314
0.640319
0.640324
0.640328
0.640333
0.640337
0.640341
0.640344
0.640348
0.640351
0.640354
0.640357
0.640359
0.640361
0.640363
0.640365
0.640367
0.640368
0.64037
0.640371
0.640372
0.640373
0.640374
0.640375
0.640375
0.640376
0.640377
0.640378
0.640379
0.640379
0.64038
0.640381
0.640382
0.640383
0.640384
0.640384
0.640385
0.640386
0.640388
0.640389
0.64039
0.640391
0.640392
0.640393
0.640395
0.640396
0.640397
0.640398
0.6404
0.640401
0.640402
0.640403
0.640405
0.640406
0.640407
0.640409
0.64041
0.640411
0.640413
0.640414
0.640415
0.640416
0.640418
0.640419
0.64042
0.640421
0.640422
0.640424
0.640425
0.640426
0.640427
0.640428
0.640429
0.64043
0.640431
0.640432
0.640433
0.640434
0.640434
0.640435
0.640436
0.640437
0.640437
0.640438
0.640438
0.640439
0.640439
0.64044
0.64044
0.64044
0.640441
0.640441
0.640441
0.640441
0.640441
0.640441
0.640441
0.640441
0.640441
0.640441
0.64044
0.64044
0.64044
0.640439
0.640439
0.640438
0.640438
0.640437
0.640437
0.640436
0.640435
0.640435
0.640434
0.640433
0.640432
0.640431
0.640431
0.64043
0.640429
0.640428
0.640427
0.640426
0.640425
0.640424
0.640423
0.640422
0.640421
0.64042
0.640419
0.640417
0.640416
0.640415
0.640414
0.640413
0.640411
0.64041
0.640409
0.640407
0.640406
0.640404
0.640403
0.640401
0.640399
0.640398
0.640396
0.640394
0.640392
0.64039
0.640387
0.640385
0.640382
0.64038
0.640377
0.640374
0.640371
0.640368
0.640365
0.640362
0.640359
0.640355
0.640351
0.640348
0.640344
0.64034
0.640336
0.640331
0.640327
0.640323
0.640319
0.640314
0.64031
0.640305
0.640301
0.640297
0.640292
0.640288
0.640284
0.64028
0.640276
0.640273
0.640269
0.640266
0.640263
0.640261
0.640258
0.640256
0.640255
0.640253
0.640253
0.640252
0.640252
0.640252
0.640252
0.640253
0.640254
0.640256
0.640258
0.64026
0.640263
0.640267
0.64027
0.640274
0.640278
0.640282
0.640286
0.64029
0.640295
0.640299
0.640304
0.640308
0.640313
0.640317
0.640321
0.640325
0.640329
0.640333
0.640337
0.64034
0.640343
0.640346
0.640349
0.640352
0.640354
0.640356
0.640358
0.64036
0.640362
0.640364
0.640365
0.640366
0.640368
0.640369
0.64037
0.640371
0.640372
0.640373
0.640373
0.640374
0.640375
0.640376
0.640376
0.640377
0.640378
0.640379
0.64038
0.640381
0.640382
0.640382
0.640383
0.640384
0.640385
0.640387
0.640388
0.640389
0.64039
0.640391
0.640392
0.640393
0.640395
0.640396
0.640397
0.640398
0.6404
0.640401
0.640402
0.640403
0.640404
0.640406
0.640407
0.640408
0.640409
0.64041
0.640412
0.640413
0.640414
0.640415
0.640416
0.640417
0.640418
0.640419
0.64042
0.64042
0.640421
0.640422
0.640423
0.640424
0.640424
0.640425
0.640426
0.640426
0.640427
0.640428
0.640428
0.640429
0.640429
0.64043
0.64043
0.64043
0.640431
0.640431
0.640431
0.640432
0.640432
0.640432
0.640432
0.640432
0.640432
0.640432
0.640432
0.640432
0.640432
0.640432
0.640432
0.640432
0.640431
0.640431
0.640431
0.64043
0.64043
0.64043
0.640429
0.640429
0.640428
0.640427
0.640426
0.640426
0.640425
0.640425
0.640424
0.640423
0.640422
0.640422
0.64042
0.64042
0.640418
)
;

boundaryField
{
    inlet
    {
        type            calculated;
        value           uniform 3.08149e-33;
    }
    outlet
    {
        type            calculated;
        value           uniform 0.640418;
    }
    emptyWalls
    {
        type            empty;
    }
}


// ************************************************************************* //
