/*--------------------------------*- C++ -*----------------------------------*\
  =========                 |
  \\      /  F ield         | OpenFOAM: The Open Source CFD Toolbox
   \\    /   O peration     | Website:  https://openfoam.org
    \\  /    A nd           | Version:  9
     \\/     M anipulation  |
\*---------------------------------------------------------------------------*/
FoamFile
{
    format      ascii;
    class       volVectorField;
    location    "9100";
    object      Ub;
}
// * * * * * * * * * * * * * * * * * * * * * * * * * * * * * * * * * * * * * //

dimensions      [0 0 0 0 0 0 0];

internalField   nonuniform List<vector> 
1000
(
(1.1362e-05 0 0)
(1.13624e-05 0 0)
(1.13628e-05 0 0)
(1.13634e-05 0 0)
(1.13643e-05 0 0)
(1.13651e-05 0 0)
(1.13662e-05 0 0)
(1.13669e-05 0 0)
(1.13675e-05 0 0)
(1.1369e-05 0 0)
(1.13739e-05 0 0)
(1.13956e-05 0 0)
(1.15392e-05 0 0)
(1.17077e-05 0 0)
(1.17615e-05 0 0)
(1.17776e-05 0 0)
(1.17858e-05 0 0)
(1.17911e-05 0 0)
(1.17951e-05 0 0)
(1.17981e-05 0 0)
(1.18005e-05 0 0)
(1.18023e-05 0 0)
(1.18037e-05 0 0)
(1.18047e-05 0 0)
(1.18055e-05 0 0)
(1.18059e-05 0 0)
(1.18061e-05 0 0)
(1.18061e-05 0 0)
(1.18059e-05 0 0)
(1.18053e-05 0 0)
(1.18042e-05 0 0)
(1.18025e-05 0 0)
(1.18e-05 0 0)
(1.17961e-05 0 0)
(1.17905e-05 0 0)
(1.17833e-05 0 0)
(1.1775e-05 0 0)
(1.17661e-05 0 0)
(1.17567e-05 0 0)
(1.1747e-05 0 0)
(1.1737e-05 0 0)
(1.17268e-05 0 0)
(1.17164e-05 0 0)
(1.17059e-05 0 0)
(1.16952e-05 0 0)
(1.16845e-05 0 0)
(1.16736e-05 0 0)
(1.16627e-05 0 0)
(1.16516e-05 0 0)
(1.16405e-05 0 0)
(1.16293e-05 0 0)
(1.16181e-05 0 0)
(1.16068e-05 0 0)
(1.15954e-05 0 0)
(1.1584e-05 0 0)
(1.15725e-05 0 0)
(1.1561e-05 0 0)
(1.15494e-05 0 0)
(1.15378e-05 0 0)
(1.15262e-05 0 0)
(1.15146e-05 0 0)
(1.15029e-05 0 0)
(1.14911e-05 0 0)
(1.14792e-05 0 0)
(1.14673e-05 0 0)
(1.14552e-05 0 0)
(1.1443e-05 0 0)
(1.14308e-05 0 0)
(1.14186e-05 0 0)
(1.14063e-05 0 0)
(1.13939e-05 0 0)
(1.13815e-05 0 0)
(1.13689e-05 0 0)
(1.13561e-05 0 0)
(1.13429e-05 0 0)
(1.13295e-05 0 0)
(1.13158e-05 0 0)
(1.13017e-05 0 0)
(1.12873e-05 0 0)
(1.12726e-05 0 0)
(1.12578e-05 0 0)
(1.12428e-05 0 0)
(1.12278e-05 0 0)
(1.12128e-05 0 0)
(1.11978e-05 0 0)
(1.1183e-05 0 0)
(1.11685e-05 0 0)
(1.11544e-05 0 0)
(1.11407e-05 0 0)
(1.11275e-05 0 0)
(1.11149e-05 0 0)
(1.11029e-05 0 0)
(1.10915e-05 0 0)
(1.10807e-05 0 0)
(1.10704e-05 0 0)
(1.10606e-05 0 0)
(1.1051e-05 0 0)
(1.10416e-05 0 0)
(1.10322e-05 0 0)
(1.10227e-05 0 0)
(1.1013e-05 0 0)
(1.1003e-05 0 0)
(1.09927e-05 0 0)
(1.09819e-05 0 0)
(1.09707e-05 0 0)
(1.09592e-05 0 0)
(1.09472e-05 0 0)
(1.09349e-05 0 0)
(1.09223e-05 0 0)
(1.09095e-05 0 0)
(1.08965e-05 0 0)
(1.08833e-05 0 0)
(1.087e-05 0 0)
(1.08566e-05 0 0)
(1.08433e-05 0 0)
(1.08299e-05 0 0)
(1.08165e-05 0 0)
(1.08032e-05 0 0)
(1.07899e-05 0 0)
(1.07766e-05 0 0)
(1.07634e-05 0 0)
(1.07502e-05 0 0)
(1.07371e-05 0 0)
(1.07239e-05 0 0)
(1.07108e-05 0 0)
(1.06977e-05 0 0)
(1.06845e-05 0 0)
(1.06714e-05 0 0)
(1.06583e-05 0 0)
(1.06451e-05 0 0)
(1.0632e-05 0 0)
(1.06188e-05 0 0)
(1.06056e-05 0 0)
(1.05923e-05 0 0)
(1.05791e-05 0 0)
(1.05658e-05 0 0)
(1.05525e-05 0 0)
(1.05391e-05 0 0)
(1.05257e-05 0 0)
(1.05123e-05 0 0)
(1.04989e-05 0 0)
(1.04854e-05 0 0)
(1.04719e-05 0 0)
(1.04583e-05 0 0)
(1.04447e-05 0 0)
(1.04311e-05 0 0)
(1.04174e-05 0 0)
(1.04037e-05 0 0)
(1.039e-05 0 0)
(1.03762e-05 0 0)
(1.03623e-05 0 0)
(1.03485e-05 0 0)
(1.03345e-05 0 0)
(1.03206e-05 0 0)
(1.03066e-05 0 0)
(1.02925e-05 0 0)
(1.02785e-05 0 0)
(1.02643e-05 0 0)
(1.02502e-05 0 0)
(1.0236e-05 0 0)
(1.02218e-05 0 0)
(1.02075e-05 0 0)
(1.01932e-05 0 0)
(1.01788e-05 0 0)
(1.01645e-05 0 0)
(1.01501e-05 0 0)
(1.01356e-05 0 0)
(1.01211e-05 0 0)
(1.01066e-05 0 0)
(1.0092e-05 0 0)
(1.00775e-05 0 0)
(1.00628e-05 0 0)
(1.00482e-05 0 0)
(1.00335e-05 0 0)
(1.00187e-05 0 0)
(1.0004e-05 0 0)
(9.98918e-06 0 0)
(9.97434e-06 0 0)
(9.95947e-06 0 0)
(9.94456e-06 0 0)
(9.92961e-06 0 0)
(9.91463e-06 0 0)
(9.89961e-06 0 0)
(9.88455e-06 0 0)
(9.86946e-06 0 0)
(9.85433e-06 0 0)
(9.83916e-06 0 0)
(9.82395e-06 0 0)
(9.8087e-06 0 0)
(9.79342e-06 0 0)
(9.77809e-06 0 0)
(9.76273e-06 0 0)
(9.74733e-06 0 0)
(9.7319e-06 0 0)
(9.71643e-06 0 0)
(9.70092e-06 0 0)
(9.68537e-06 0 0)
(9.66979e-06 0 0)
(9.65417e-06 0 0)
(9.63852e-06 0 0)
(9.62282e-06 0 0)
(9.60709e-06 0 0)
(9.59131e-06 0 0)
(9.5755e-06 0 0)
(9.55963e-06 0 0)
(9.54373e-06 0 0)
(9.52778e-06 0 0)
(9.51178e-06 0 0)
(9.49573e-06 0 0)
(9.47964e-06 0 0)
(9.46349e-06 0 0)
(9.44729e-06 0 0)
(9.43103e-06 0 0)
(9.41471e-06 0 0)
(9.39833e-06 0 0)
(9.38187e-06 0 0)
(9.36534e-06 0 0)
(9.34873e-06 0 0)
(9.33202e-06 0 0)
(9.31522e-06 0 0)
(9.29832e-06 0 0)
(9.2813e-06 0 0)
(9.26418e-06 0 0)
(9.24694e-06 0 0)
(9.22957e-06 0 0)
(9.21209e-06 0 0)
(9.19449e-06 0 0)
(9.17678e-06 0 0)
(9.15895e-06 0 0)
(9.14103e-06 0 0)
(9.12301e-06 0 0)
(9.10491e-06 0 0)
(9.08674e-06 0 0)
(9.06853e-06 0 0)
(9.05027e-06 0 0)
(9.03201e-06 0 0)
(9.01375e-06 0 0)
(8.99551e-06 0 0)
(8.97732e-06 0 0)
(8.95919e-06 0 0)
(8.94115e-06 0 0)
(8.92321e-06 0 0)
(8.90539e-06 0 0)
(8.88769e-06 0 0)
(8.87013e-06 0 0)
(8.85271e-06 0 0)
(8.83542e-06 0 0)
(8.81827e-06 0 0)
(8.80124e-06 0 0)
(8.78432e-06 0 0)
(8.76748e-06 0 0)
(8.75071e-06 0 0)
(8.73398e-06 0 0)
(8.71726e-06 0 0)
(8.70052e-06 0 0)
(8.68375e-06 0 0)
(8.6669e-06 0 0)
(8.64996e-06 0 0)
(8.63291e-06 0 0)
(8.61572e-06 0 0)
(8.59838e-06 0 0)
(8.58088e-06 0 0)
(8.56322e-06 0 0)
(8.54538e-06 0 0)
(8.52736e-06 0 0)
(8.50917e-06 0 0)
(8.4908e-06 0 0)
(8.47227e-06 0 0)
(8.45358e-06 0 0)
(8.43474e-06 0 0)
(8.41576e-06 0 0)
(8.39664e-06 0 0)
(8.37739e-06 0 0)
(8.35802e-06 0 0)
(8.33855e-06 0 0)
(8.31897e-06 0 0)
(8.29929e-06 0 0)
(8.27951e-06 0 0)
(8.25965e-06 0 0)
(8.2397e-06 0 0)
(8.21967e-06 0 0)
(8.19956e-06 0 0)
(8.17937e-06 0 0)
(8.1591e-06 0 0)
(8.13875e-06 0 0)
(8.11831e-06 0 0)
(8.0978e-06 0 0)
(8.0772e-06 0 0)
(8.05651e-06 0 0)
(8.03574e-06 0 0)
(8.01488e-06 0 0)
(7.99392e-06 0 0)
(7.97286e-06 0 0)
(7.95171e-06 0 0)
(7.93045e-06 0 0)
(7.90909e-06 0 0)
(7.88762e-06 0 0)
(7.86603e-06 0 0)
(7.84434e-06 0 0)
(7.82252e-06 0 0)
(7.80059e-06 0 0)
(7.77854e-06 0 0)
(7.75637e-06 0 0)
(7.73406e-06 0 0)
(7.71163e-06 0 0)
(7.68907e-06 0 0)
(7.66637e-06 0 0)
(7.64352e-06 0 0)
(7.62054e-06 0 0)
(7.59742e-06 0 0)
(7.57415e-06 0 0)
(7.55074e-06 0 0)
(7.52717e-06 0 0)
(7.50345e-06 0 0)
(7.47956e-06 0 0)
(7.45552e-06 0 0)
(7.43131e-06 0 0)
(7.40694e-06 0 0)
(7.3824e-06 0 0)
(7.35768e-06 0 0)
(7.3328e-06 0 0)
(7.30774e-06 0 0)
(7.2825e-06 0 0)
(7.25707e-06 0 0)
(7.23147e-06 0 0)
(7.20568e-06 0 0)
(7.17972e-06 0 0)
(7.15358e-06 0 0)
(7.12726e-06 0 0)
(7.10077e-06 0 0)
(7.07411e-06 0 0)
(7.0473e-06 0 0)
(7.02034e-06 0 0)
(6.99326e-06 0 0)
(6.96608e-06 0 0)
(6.93884e-06 0 0)
(6.91155e-06 0 0)
(6.88428e-06 0 0)
(6.85707e-06 0 0)
(6.83001e-06 0 0)
(6.80317e-06 0 0)
(6.77667e-06 0 0)
(6.75061e-06 0 0)
(6.72513e-06 0 0)
(6.70035e-06 0 0)
(6.67644e-06 0 0)
(6.65355e-06 0 0)
(6.63184e-06 0 0)
(6.61144e-06 0 0)
(6.59247e-06 0 0)
(6.57499e-06 0 0)
(6.55902e-06 0 0)
(6.5445e-06 0 0)
(6.53124e-06 0 0)
(6.51885e-06 0 0)
(6.50662e-06 0 0)
(6.49329e-06 0 0)
(6.4767e-06 0 0)
(6.45309e-06 0 0)
(6.416e-06 0 0)
(6.3546e-06 0 0)
(6.25146e-06 0 0)
(6.08089e-06 0 0)
(5.81109e-06 0 0)
(5.41593e-06 0 0)
(4.89889e-06 0 0)
(4.31458e-06 0 0)
(3.75645e-06 0 0)
(3.30661e-06 0 0)
(2.99464e-06 0 0)
(2.80195e-06 0 0)
(2.69191e-06 0 0)
(2.63202e-06 0 0)
(2.6003e-06 0 0)
(2.58373e-06 0 0)
(2.57514e-06 0 0)
(2.5707e-06 0 0)
(2.5684e-06 0 0)
(2.56721e-06 0 0)
(2.56659e-06 0 0)
(2.56625e-06 0 0)
(2.56607e-06 0 0)
(2.56596e-06 0 0)
(2.56588e-06 0 0)
(2.56583e-06 0 0)
(2.56579e-06 0 0)
(2.56575e-06 0 0)
(2.56572e-06 0 0)
(2.56568e-06 0 0)
(2.56564e-06 0 0)
(2.5656e-06 0 0)
(2.56556e-06 0 0)
(2.56551e-06 0 0)
(2.56546e-06 0 0)
(2.56541e-06 0 0)
(2.56535e-06 0 0)
(2.56529e-06 0 0)
(2.56523e-06 0 0)
(2.56516e-06 0 0)
(2.56509e-06 0 0)
(2.56501e-06 0 0)
(2.56492e-06 0 0)
(2.56483e-06 0 0)
(2.56473e-06 0 0)
(2.56462e-06 0 0)
(2.56451e-06 0 0)
(2.56438e-06 0 0)
(2.56425e-06 0 0)
(2.56411e-06 0 0)
(2.56396e-06 0 0)
(2.5638e-06 0 0)
(2.56364e-06 0 0)
(2.56346e-06 0 0)
(2.56328e-06 0 0)
(2.56309e-06 0 0)
(2.56289e-06 0 0)
(2.56269e-06 0 0)
(2.56248e-06 0 0)
(2.56226e-06 0 0)
(2.56205e-06 0 0)
(2.56183e-06 0 0)
(2.56161e-06 0 0)
(2.56139e-06 0 0)
(2.56117e-06 0 0)
(2.56096e-06 0 0)
(2.56075e-06 0 0)
(2.56055e-06 0 0)
(2.56036e-06 0 0)
(2.56018e-06 0 0)
(2.56002e-06 0 0)
(2.55987e-06 0 0)
(2.55974e-06 0 0)
(2.55963e-06 0 0)
(2.55954e-06 0 0)
(2.55947e-06 0 0)
(2.55943e-06 0 0)
(2.55941e-06 0 0)
(2.5594e-06 0 0)
(2.5594e-06 0 0)
(2.55942e-06 0 0)
(2.55948e-06 0 0)
(2.55958e-06 0 0)
(2.5597e-06 0 0)
(2.55984e-06 0 0)
(2.56e-06 0 0)
(2.56017e-06 0 0)
(2.56036e-06 0 0)
(2.56055e-06 0 0)
(2.56076e-06 0 0)
(2.56098e-06 0 0)
(2.5612e-06 0 0)
(2.56142e-06 0 0)
(2.56164e-06 0 0)
(2.56186e-06 0 0)
(2.56208e-06 0 0)
(2.56229e-06 0 0)
(2.56249e-06 0 0)
(2.56268e-06 0 0)
(2.56286e-06 0 0)
(2.56303e-06 0 0)
(2.56319e-06 0 0)
(2.56333e-06 0 0)
(2.56347e-06 0 0)
(2.56358e-06 0 0)
(2.56369e-06 0 0)
(2.56378e-06 0 0)
(2.56387e-06 0 0)
(2.56394e-06 0 0)
(2.564e-06 0 0)
(2.56405e-06 0 0)
(2.56409e-06 0 0)
(2.56413e-06 0 0)
(2.56416e-06 0 0)
(2.56418e-06 0 0)
(2.5642e-06 0 0)
(2.56421e-06 0 0)
(2.56422e-06 0 0)
(2.56423e-06 0 0)
(2.56424e-06 0 0)
(2.56425e-06 0 0)
(2.56426e-06 0 0)
(2.56426e-06 0 0)
(2.56427e-06 0 0)
(2.56428e-06 0 0)
(2.56429e-06 0 0)
(2.5643e-06 0 0)
(2.56432e-06 0 0)
(2.56433e-06 0 0)
(2.56435e-06 0 0)
(2.56437e-06 0 0)
(2.56439e-06 0 0)
(2.56441e-06 0 0)
(2.56444e-06 0 0)
(2.56447e-06 0 0)
(2.5645e-06 0 0)
(2.56453e-06 0 0)
(2.56456e-06 0 0)
(2.5646e-06 0 0)
(2.56463e-06 0 0)
(2.56467e-06 0 0)
(2.56471e-06 0 0)
(2.56475e-06 0 0)
(2.56479e-06 0 0)
(2.56483e-06 0 0)
(2.56487e-06 0 0)
(2.56491e-06 0 0)
(2.56495e-06 0 0)
(2.565e-06 0 0)
(2.56504e-06 0 0)
(2.56509e-06 0 0)
(2.56513e-06 0 0)
(2.56517e-06 0 0)
(2.56522e-06 0 0)
(2.56526e-06 0 0)
(2.56531e-06 0 0)
(2.56535e-06 0 0)
(2.56539e-06 0 0)
(2.56544e-06 0 0)
(2.56548e-06 0 0)
(2.56552e-06 0 0)
(2.56557e-06 0 0)
(2.56561e-06 0 0)
(2.56565e-06 0 0)
(2.56569e-06 0 0)
(2.56573e-06 0 0)
(2.56577e-06 0 0)
(2.56581e-06 0 0)
(2.56585e-06 0 0)
(2.56589e-06 0 0)
(2.56593e-06 0 0)
(2.56596e-06 0 0)
(2.56599e-06 0 0)
(2.56603e-06 0 0)
(2.56606e-06 0 0)
(2.56609e-06 0 0)
(2.56612e-06 0 0)
(2.56615e-06 0 0)
(2.56618e-06 0 0)
(2.5662e-06 0 0)
(2.56622e-06 0 0)
(2.56625e-06 0 0)
(2.56627e-06 0 0)
(2.56629e-06 0 0)
(2.5663e-06 0 0)
(2.56632e-06 0 0)
(2.56633e-06 0 0)
(2.56635e-06 0 0)
(2.56636e-06 0 0)
(2.56637e-06 0 0)
(2.56638e-06 0 0)
(2.56638e-06 0 0)
(2.56639e-06 0 0)
(2.56639e-06 0 0)
(2.56639e-06 0 0)
(2.56639e-06 0 0)
(2.56639e-06 0 0)
(2.56639e-06 0 0)
(2.56639e-06 0 0)
(2.56639e-06 0 0)
(2.56638e-06 0 0)
(2.56637e-06 0 0)
(2.56636e-06 0 0)
(2.56635e-06 0 0)
(2.56634e-06 0 0)
(2.56633e-06 0 0)
(2.56632e-06 0 0)
(2.5663e-06 0 0)
(2.56629e-06 0 0)
(2.56627e-06 0 0)
(2.56626e-06 0 0)
(2.56624e-06 0 0)
(2.56622e-06 0 0)
(2.5662e-06 0 0)
(2.56618e-06 0 0)
(2.56616e-06 0 0)
(2.56614e-06 0 0)
(2.56612e-06 0 0)
(2.56609e-06 0 0)
(2.56607e-06 0 0)
(2.56605e-06 0 0)
(2.56602e-06 0 0)
(2.56599e-06 0 0)
(2.56597e-06 0 0)
(2.56594e-06 0 0)
(2.56591e-06 0 0)
(2.56588e-06 0 0)
(2.56585e-06 0 0)
(2.56582e-06 0 0)
(2.56578e-06 0 0)
(2.56575e-06 0 0)
(2.56571e-06 0 0)
(2.56567e-06 0 0)
(2.56564e-06 0 0)
(2.5656e-06 0 0)
(2.56555e-06 0 0)
(2.56551e-06 0 0)
(2.56546e-06 0 0)
(2.56541e-06 0 0)
(2.56536e-06 0 0)
(2.56531e-06 0 0)
(2.56525e-06 0 0)
(2.56519e-06 0 0)
(2.56513e-06 0 0)
(2.56506e-06 0 0)
(2.56499e-06 0 0)
(2.56492e-06 0 0)
(2.56485e-06 0 0)
(2.56477e-06 0 0)
(2.56468e-06 0 0)
(2.56459e-06 0 0)
(2.5645e-06 0 0)
(2.5644e-06 0 0)
(2.56429e-06 0 0)
(2.56418e-06 0 0)
(2.56407e-06 0 0)
(2.56394e-06 0 0)
(2.56381e-06 0 0)
(2.56368e-06 0 0)
(2.56354e-06 0 0)
(2.56339e-06 0 0)
(2.56324e-06 0 0)
(2.56308e-06 0 0)
(2.56291e-06 0 0)
(2.56274e-06 0 0)
(2.56257e-06 0 0)
(2.56239e-06 0 0)
(2.56221e-06 0 0)
(2.56202e-06 0 0)
(2.56184e-06 0 0)
(2.56165e-06 0 0)
(2.56147e-06 0 0)
(2.56129e-06 0 0)
(2.56111e-06 0 0)
(2.56094e-06 0 0)
(2.56078e-06 0 0)
(2.56062e-06 0 0)
(2.56047e-06 0 0)
(2.56033e-06 0 0)
(2.5602e-06 0 0)
(2.56008e-06 0 0)
(2.55998e-06 0 0)
(2.55989e-06 0 0)
(2.55982e-06 0 0)
(2.55977e-06 0 0)
(2.55973e-06 0 0)
(2.55971e-06 0 0)
(2.5597e-06 0 0)
(2.5597e-06 0 0)
(2.5597e-06 0 0)
(2.55974e-06 0 0)
(2.55981e-06 0 0)
(2.55989e-06 0 0)
(2.56e-06 0 0)
(2.56011e-06 0 0)
(2.56024e-06 0 0)
(2.56039e-06 0 0)
(2.56054e-06 0 0)
(2.5607e-06 0 0)
(2.56088e-06 0 0)
(2.56105e-06 0 0)
(2.56123e-06 0 0)
(2.56142e-06 0 0)
(2.5616e-06 0 0)
(2.56179e-06 0 0)
(2.56197e-06 0 0)
(2.56215e-06 0 0)
(2.56232e-06 0 0)
(2.56249e-06 0 0)
(2.56265e-06 0 0)
(2.5628e-06 0 0)
(2.56294e-06 0 0)
(2.56308e-06 0 0)
(2.56321e-06 0 0)
(2.56333e-06 0 0)
(2.56344e-06 0 0)
(2.56354e-06 0 0)
(2.56363e-06 0 0)
(2.56371e-06 0 0)
(2.56379e-06 0 0)
(2.56386e-06 0 0)
(2.56392e-06 0 0)
(2.56397e-06 0 0)
(2.56402e-06 0 0)
(2.56407e-06 0 0)
(2.56411e-06 0 0)
(2.56414e-06 0 0)
(2.56418e-06 0 0)
(2.56421e-06 0 0)
(2.56424e-06 0 0)
(2.56426e-06 0 0)
(2.56429e-06 0 0)
(2.56431e-06 0 0)
(2.56434e-06 0 0)
(2.56436e-06 0 0)
(2.56439e-06 0 0)
(2.56442e-06 0 0)
(2.56444e-06 0 0)
(2.56447e-06 0 0)
(2.5645e-06 0 0)
(2.56453e-06 0 0)
(2.56456e-06 0 0)
(2.5646e-06 0 0)
(2.56463e-06 0 0)
(2.56467e-06 0 0)
(2.5647e-06 0 0)
(2.56474e-06 0 0)
(2.56478e-06 0 0)
(2.56482e-06 0 0)
(2.56487e-06 0 0)
(2.56491e-06 0 0)
(2.56495e-06 0 0)
(2.565e-06 0 0)
(2.56504e-06 0 0)
(2.56509e-06 0 0)
(2.56513e-06 0 0)
(2.56518e-06 0 0)
(2.56523e-06 0 0)
(2.56527e-06 0 0)
(2.56532e-06 0 0)
(2.56537e-06 0 0)
(2.56541e-06 0 0)
(2.56546e-06 0 0)
(2.56551e-06 0 0)
(2.56555e-06 0 0)
(2.5656e-06 0 0)
(2.56564e-06 0 0)
(2.56569e-06 0 0)
(2.56573e-06 0 0)
(2.56578e-06 0 0)
(2.56582e-06 0 0)
(2.56586e-06 0 0)
(2.5659e-06 0 0)
(2.56595e-06 0 0)
(2.56599e-06 0 0)
(2.56602e-06 0 0)
(2.56606e-06 0 0)
(2.5661e-06 0 0)
(2.56614e-06 0 0)
(2.56617e-06 0 0)
(2.56621e-06 0 0)
(2.56624e-06 0 0)
(2.56627e-06 0 0)
(2.5663e-06 0 0)
(2.56633e-06 0 0)
(2.56636e-06 0 0)
(2.56639e-06 0 0)
(2.56641e-06 0 0)
(2.56643e-06 0 0)
(2.56645e-06 0 0)
(2.56647e-06 0 0)
(2.56649e-06 0 0)
(2.56651e-06 0 0)
(2.56652e-06 0 0)
(2.56654e-06 0 0)
(2.56655e-06 0 0)
(2.56656e-06 0 0)
(2.56656e-06 0 0)
(2.56657e-06 0 0)
(2.56657e-06 0 0)
(2.56657e-06 0 0)
(2.56657e-06 0 0)
(2.56657e-06 0 0)
(2.56657e-06 0 0)
(2.56657e-06 0 0)
(2.56656e-06 0 0)
(2.56655e-06 0 0)
(2.56654e-06 0 0)
(2.56653e-06 0 0)
(2.56651e-06 0 0)
(2.5665e-06 0 0)
(2.56648e-06 0 0)
(2.56646e-06 0 0)
(2.56644e-06 0 0)
(2.56642e-06 0 0)
(2.56639e-06 0 0)
(2.56637e-06 0 0)
(2.56634e-06 0 0)
(2.56632e-06 0 0)
(2.56629e-06 0 0)
(2.56626e-06 0 0)
(2.56623e-06 0 0)
(2.5662e-06 0 0)
(2.56617e-06 0 0)
(2.56613e-06 0 0)
(2.5661e-06 0 0)
(2.56607e-06 0 0)
(2.56603e-06 0 0)
(2.56599e-06 0 0)
(2.56596e-06 0 0)
(2.56592e-06 0 0)
(2.56588e-06 0 0)
(2.56584e-06 0 0)
(2.5658e-06 0 0)
(2.56576e-06 0 0)
(2.56572e-06 0 0)
(2.56568e-06 0 0)
(2.56564e-06 0 0)
(2.56559e-06 0 0)
(2.56555e-06 0 0)
(2.5655e-06 0 0)
(2.56546e-06 0 0)
(2.56541e-06 0 0)
(2.56536e-06 0 0)
(2.56531e-06 0 0)
(2.56525e-06 0 0)
(2.5652e-06 0 0)
(2.56514e-06 0 0)
(2.56509e-06 0 0)
(2.56502e-06 0 0)
(2.56496e-06 0 0)
(2.5649e-06 0 0)
(2.56483e-06 0 0)
(2.56475e-06 0 0)
(2.56468e-06 0 0)
(2.5646e-06 0 0)
(2.56452e-06 0 0)
(2.56443e-06 0 0)
(2.56434e-06 0 0)
(2.56425e-06 0 0)
(2.56415e-06 0 0)
(2.56405e-06 0 0)
(2.56394e-06 0 0)
(2.56383e-06 0 0)
(2.56371e-06 0 0)
(2.56359e-06 0 0)
(2.56347e-06 0 0)
(2.56334e-06 0 0)
(2.5632e-06 0 0)
(2.56306e-06 0 0)
(2.56292e-06 0 0)
(2.56278e-06 0 0)
(2.56263e-06 0 0)
(2.56248e-06 0 0)
(2.56233e-06 0 0)
(2.56217e-06 0 0)
(2.56202e-06 0 0)
(2.56186e-06 0 0)
(2.56171e-06 0 0)
(2.56155e-06 0 0)
(2.5614e-06 0 0)
(2.56125e-06 0 0)
(2.5611e-06 0 0)
(2.56096e-06 0 0)
(2.56083e-06 0 0)
(2.5607e-06 0 0)
(2.56058e-06 0 0)
(2.56046e-06 0 0)
(2.56036e-06 0 0)
(2.56027e-06 0 0)
(2.56018e-06 0 0)
(2.56011e-06 0 0)
(2.56005e-06 0 0)
(2.56e-06 0 0)
(2.55997e-06 0 0)
(2.55995e-06 0 0)
(2.55994e-06 0 0)
(2.55994e-06 0 0)
(2.55994e-06 0 0)
(2.55996e-06 0 0)
(2.56e-06 0 0)
(2.56007e-06 0 0)
(2.56014e-06 0 0)
(2.56023e-06 0 0)
(2.56033e-06 0 0)
(2.56044e-06 0 0)
(2.56056e-06 0 0)
(2.56069e-06 0 0)
(2.56083e-06 0 0)
(2.56098e-06 0 0)
(2.56113e-06 0 0)
(2.56128e-06 0 0)
(2.56143e-06 0 0)
(2.56159e-06 0 0)
(2.56175e-06 0 0)
(2.56191e-06 0 0)
(2.56206e-06 0 0)
(2.56221e-06 0 0)
(2.56236e-06 0 0)
(2.56251e-06 0 0)
(2.56265e-06 0 0)
(2.56278e-06 0 0)
(2.5629e-06 0 0)
(2.56302e-06 0 0)
(2.56314e-06 0 0)
(2.56324e-06 0 0)
(2.56334e-06 0 0)
(2.56344e-06 0 0)
(2.56352e-06 0 0)
(2.5636e-06 0 0)
(2.56367e-06 0 0)
(2.56374e-06 0 0)
(2.5638e-06 0 0)
(2.56386e-06 0 0)
(2.56391e-06 0 0)
(2.56396e-06 0 0)
(2.564e-06 0 0)
(2.56404e-06 0 0)
(2.56408e-06 0 0)
(2.56411e-06 0 0)
(2.56414e-06 0 0)
(2.56417e-06 0 0)
(2.5642e-06 0 0)
(2.56423e-06 0 0)
(2.56426e-06 0 0)
(2.56429e-06 0 0)
(2.56432e-06 0 0)
(2.56434e-06 0 0)
(2.56437e-06 0 0)
(2.5644e-06 0 0)
(2.56443e-06 0 0)
(2.56446e-06 0 0)
(2.56449e-06 0 0)
(2.56453e-06 0 0)
(2.56456e-06 0 0)
(2.5646e-06 0 0)
(2.56463e-06 0 0)
(2.56467e-06 0 0)
(2.56471e-06 0 0)
(2.56474e-06 0 0)
(2.56478e-06 0 0)
(2.56483e-06 0 0)
(2.56487e-06 0 0)
(2.56491e-06 0 0)
(2.56495e-06 0 0)
(2.56499e-06 0 0)
(2.56504e-06 0 0)
(2.56508e-06 0 0)
(2.56512e-06 0 0)
(2.56517e-06 0 0)
(2.56521e-06 0 0)
(2.56526e-06 0 0)
(2.5653e-06 0 0)
(2.56534e-06 0 0)
(2.56538e-06 0 0)
(2.56542e-06 0 0)
(2.56546e-06 0 0)
(2.5655e-06 0 0)
(2.56554e-06 0 0)
(2.56558e-06 0 0)
(2.56562e-06 0 0)
(2.56566e-06 0 0)
(2.5657e-06 0 0)
(2.56573e-06 0 0)
(2.56576e-06 0 0)
(2.5658e-06 0 0)
(2.56583e-06 0 0)
(2.56586e-06 0 0)
(2.56589e-06 0 0)
(2.56592e-06 0 0)
(2.56595e-06 0 0)
(2.56598e-06 0 0)
(2.566e-06 0 0)
(2.56603e-06 0 0)
(2.56605e-06 0 0)
(2.56607e-06 0 0)
(2.5661e-06 0 0)
(2.56612e-06 0 0)
(2.56614e-06 0 0)
(2.56615e-06 0 0)
(2.56617e-06 0 0)
(2.56619e-06 0 0)
(2.5662e-06 0 0)
(2.56621e-06 0 0)
(2.56623e-06 0 0)
(2.56624e-06 0 0)
(2.56625e-06 0 0)
(2.56625e-06 0 0)
(2.56626e-06 0 0)
(2.56627e-06 0 0)
(2.56627e-06 0 0)
(2.56628e-06 0 0)
(2.56628e-06 0 0)
(2.56628e-06 0 0)
(2.56628e-06 0 0)
(2.56628e-06 0 0)
(2.56627e-06 0 0)
(2.56627e-06 0 0)
(2.56627e-06 0 0)
(2.56626e-06 0 0)
(2.56625e-06 0 0)
(2.56624e-06 0 0)
(2.56623e-06 0 0)
(2.56622e-06 0 0)
(2.5662e-06 0 0)
(2.56619e-06 0 0)
(2.56617e-06 0 0)
(2.56615e-06 0 0)
(2.56613e-06 0 0)
(2.56611e-06 0 0)
(2.56609e-06 0 0)
(2.56606e-06 0 0)
(2.56604e-06 0 0)
(2.56601e-06 0 0)
(2.56599e-06 0 0)
(2.56596e-06 0 0)
(2.56593e-06 0 0)
(2.5659e-06 0 0)
(2.56587e-06 0 0)
(2.56584e-06 0 0)
(2.56581e-06 0 0)
)
;

boundaryField
{
    inlet
    {
        type            fixedValue;
        value           uniform (1.13622e-05 0 0);
    }
    outlet
    {
        type            zeroGradient;
    }
    emptyWalls
    {
        type            empty;
    }
}


// ************************************************************************* //
