/*--------------------------------*- C++ -*----------------------------------*\
  =========                 |
  \\      /  F ield         | OpenFOAM: The Open Source CFD Toolbox
   \\    /   O peration     | Website:  https://openfoam.org
    \\  /    A nd           | Version:  9
     \\/     M anipulation  |
\*---------------------------------------------------------------------------*/
FoamFile
{
    format      ascii;
    class       volScalarField;
    location    "19750";
    object      Fb;
}
// * * * * * * * * * * * * * * * * * * * * * * * * * * * * * * * * * * * * * //

dimensions      [0 0 0 0 0 0 0];

internalField   nonuniform List<scalar> 
1000
(
0.80517
0.805255
0.805149
0.805293
0.805141
0.805316
0.805177
0.805319
0.805261
0.805336
0.805345
0.805382
0.805407
0.80544
0.805464
0.805501
0.80553
0.805563
0.805597
0.805609
0.805672
0.805629
0.80576
0.805652
0.805838
0.80581
0.80633
0.810601
0.828366
0.832635
0.833375
0.833294
0.832751
0.832257
0.832211
0.832552
0.832975
0.833455
0.834213
0.834893
0.835416
0.835773
0.835987
0.836107
0.836135
0.836064
0.836
0.835952
0.835943
0.835959
0.835975
0.835985
0.83603
0.836059
0.836114
0.836144
0.836193
0.836218
0.836254
0.836279
0.8363
0.836315
0.836325
0.836328
0.836327
0.836318
0.836303
0.83628
0.83625
0.836209
0.836159
0.836095
0.836016
0.835914
0.835788
0.835629
0.835436
0.835207
0.83495
0.834676
0.834387
0.834088
0.833781
0.833467
0.833147
0.832823
0.832494
0.832161
0.831825
0.831485
0.831142
0.830796
0.830446
0.830094
0.829738
0.82938
0.82902
0.828659
0.828297
0.827934
0.827571
0.827208
0.826845
0.826481
0.826115
0.825746
0.825375
0.825
0.824624
0.824246
0.823867
0.823488
0.82311
0.822732
0.822356
0.821983
0.82161
0.821236
0.820858
0.82047
0.820069
0.819649
0.819208
0.818745
0.818261
0.817757
0.817236
0.816703
0.816159
0.81561
0.815058
0.814509
0.813965
0.813432
0.812915
0.812419
0.811948
0.811508
0.811102
0.81073
0.810394
0.810092
0.809819
0.809572
0.809345
0.80913
0.80892
0.80871
0.808494
0.808266
0.808023
0.807762
0.807482
0.807183
0.806864
0.806528
0.806176
0.80581
0.805433
0.805047
0.804654
0.804257
0.803857
0.803456
0.803055
0.802656
0.802258
0.801862
0.801469
0.801078
0.800689
0.800303
0.799918
0.799535
0.799153
0.798772
0.798391
0.798011
0.797631
0.797251
0.796871
0.79649
0.796109
0.795727
0.795345
0.794961
0.794577
0.794191
0.793805
0.793418
0.793029
0.79264
0.79225
0.791858
0.791466
0.791072
0.790678
0.790282
0.789885
0.789487
0.789089
0.788689
0.788287
0.787885
0.787482
0.787078
0.786672
0.786266
0.785858
0.78545
0.78504
0.784629
0.784217
0.783803
0.783389
0.782973
0.782556
0.782138
0.781718
0.781298
0.780876
0.780454
0.780031
0.779607
0.779182
0.778757
0.778331
0.777904
0.777477
0.777049
0.776621
0.776191
0.775761
0.77533
0.774898
0.774466
0.774033
0.7736
0.773166
0.772733
0.772299
0.771866
0.771432
0.770998
0.770562
0.770124
0.769684
0.76924
0.768792
0.768338
0.767878
0.767412
0.766937
0.766454
0.765963
0.765464
0.764956
0.76444
0.763917
0.763387
0.762852
0.762313
0.761772
0.761229
0.760688
0.760149
0.759616
0.75909
0.758572
0.758066
0.757571
0.757091
0.756626
0.756177
0.755743
0.755326
0.754924
0.754536
0.75416
0.753796
0.753441
0.753093
0.752749
0.752408
0.752066
0.751723
0.751376
0.751024
0.750666
0.750301
0.749927
0.749546
0.749156
0.748759
0.748354
0.747942
0.747524
0.747099
0.746671
0.746237
0.745801
0.745361
0.74492
0.744476
0.744033
0.743588
0.743143
0.742698
0.742254
0.741809
0.741366
0.740923
0.740481
0.740039
0.739598
0.739157
0.738717
0.738277
0.737837
0.737397
0.736958
0.736518
0.736078
0.735637
0.735197
0.734755
0.734314
0.733871
0.733429
0.732985
0.732541
0.732096
0.73165
0.731204
0.730756
0.730308
0.729859
0.729409
0.728959
0.728507
0.728054
0.727601
0.727147
0.726691
0.726235
0.725778
0.72532
0.724861
0.724401
0.72394
0.723479
0.723016
0.722552
0.722087
0.721622
0.721155
0.720687
0.720218
0.719749
0.719278
0.718806
0.718334
0.71786
0.717385
0.71691
0.716433
0.715956
0.715478
0.714999
0.714519
0.714039
0.713557
0.713075
0.712592
0.712108
0.711624
0.711139
0.710653
0.710166
0.709679
0.709191
0.708703
0.708214
0.707724
0.707234
0.706743
0.706252
0.70576
0.705266
0.704772
0.704277
0.70378
0.703281
0.702781
0.702278
0.701772
0.701264
0.700752
0.700236
0.699717
0.699194
0.698666
0.698134
0.697598
0.697056
0.696511
0.695961
0.695407
0.69485
0.694289
0.693725
0.693159
0.692592
0.692024
0.691456
0.690888
0.690322
0.689759
0.689198
0.688642
0.688091
0.687546
0.687006
0.686474
0.68595
0.685433
0.684924
0.684423
0.68393
0.683444
0.682966
0.682495
0.682029
0.681569
0.681113
0.680661
0.680212
0.679764
0.679316
0.678869
0.678421
0.67797
0.677518
0.677062
0.676603
0.67614
0.675673
0.675202
0.674726
0.674246
0.673762
0.673274
0.672782
0.672287
0.671788
0.671287
0.670782
0.670275
0.669766
0.669255
0.668743
0.668229
0.667714
0.667198
0.666681
0.666163
0.665645
0.665126
0.664607
0.664088
0.663568
0.663048
0.662528
0.662008
0.661487
0.660966
0.660444
0.659922
0.6594
0.658877
0.658354
0.65783
0.657305
0.65678
0.656254
0.655728
0.6552
0.654672
0.654143
0.653613
0.653082
0.65255
0.652017
0.651483
0.650948
0.650413
0.649876
0.649338
0.648799
0.648259
0.647718
0.647176
0.646632
0.646088
0.645542
0.644996
0.644448
0.643899
0.643349
0.642798
0.642246
0.641693
0.641138
0.640582
0.640025
0.639467
0.638908
0.638348
0.637786
0.637223
0.63666
0.636094
0.635529
0.634961
0.634393
0.633823
0.633252
0.63268
0.632107
0.631533
0.630958
0.630381
0.629804
0.629225
0.628646
0.628065
0.627483
0.6269
0.626316
0.625731
0.625145
0.624558
0.62397
0.62338
0.62279
0.622199
0.621606
0.621012
0.620418
0.619821
0.619224
0.618625
0.618025
0.617423
0.616819
0.616214
0.615606
0.614997
0.614385
0.613771
0.613155
0.612536
0.611914
0.611289
0.610662
0.610031
0.609397
0.60876
0.608121
0.607478
0.606832
0.606183
0.605531
0.604877
0.60422
0.603561
0.602899
0.602237
0.601572
0.600907
0.60024
0.599573
0.598906
0.59824
0.597574
0.596909
0.596246
0.595584
0.594925
0.594268
0.593614
0.592963
0.592315
0.59167
0.591029
0.590391
0.589756
0.589125
0.588497
0.587872
0.58725
0.586631
0.586013
0.585397
0.584783
0.58417
0.583557
0.582944
0.582331
0.581717
0.581102
0.580485
0.579867
0.579246
0.578623
0.577997
0.577368
0.576736
0.5761
0.575462
0.57482
0.574175
0.573526
0.572874
0.572219
0.57156
0.570899
0.570234
0.569567
0.568897
0.568224
0.567549
0.566871
0.566191
0.565509
0.564824
0.564138
0.56345
0.56276
0.562068
0.561374
0.560678
0.559981
0.559282
0.558582
0.557879
0.557175
0.55647
0.555763
0.555054
0.554343
0.55363
0.552916
0.5522
0.551482
0.550763
0.550041
0.549317
0.548592
0.547864
0.547135
0.546403
0.545669
0.544933
0.544195
0.543455
0.542712
0.541967
0.54122
0.540471
0.539719
0.538965
0.538208
0.537449
0.536687
0.535923
0.535157
0.534387
0.533616
0.532841
0.532064
0.531285
0.530502
0.529718
0.52893
0.528139
0.527346
0.52655
0.525751
0.524949
0.524145
0.523337
0.522527
0.521713
0.520897
0.520077
0.519255
0.51843
0.517601
0.516769
0.515935
0.515097
0.514256
0.513412
0.512564
0.511714
0.51086
0.510003
0.509143
0.508279
0.507412
0.506542
0.505669
0.504792
0.503912
0.503029
0.502142
0.501252
0.500358
0.499461
0.498561
0.497658
0.496751
0.49584
0.494927
0.49401
0.49309
0.492167
0.491241
0.490312
0.48938
0.488445
0.487507
0.486567
0.485625
0.484681
0.483735
0.482788
0.48184
0.480891
0.479944
0.478997
0.478052
0.477111
0.476173
0.47524
0.474315
0.473398
0.472492
0.471597
0.470717
0.469854
0.469009
0.468187
0.467389
0.466618
0.465875
0.465165
0.464488
0.463848
0.463246
0.462683
0.462159
0.461676
0.461233
0.46083
0.460466
0.460141
0.459851
0.459596
0.459371
0.459177
0.45901
0.458868
0.458748
0.458646
0.458561
0.45849
0.458427
0.458368
0.458309
0.458232
0.45812
0.457935
0.457614
0.457045
0.456027
0.454207
0.450972
0.445299
0.435568
0.4195
0.394606
0.359736
0.317519
0.275
0.239771
0.215172
0.200026
0.191423
0.186761
0.184301
0.183022
0.182364
0.182028
0.181859
0.181775
0.181735
0.181717
0.181711
0.18171
0.181713
0.181716
0.18172
0.181725
0.181729
0.181733
0.181736
0.18174
0.181743
0.181746
0.181749
0.181752
0.181754
0.181757
0.181759
0.181761
0.181763
0.181765
0.181766
0.181768
0.18177
0.181771
0.181773
0.181774
0.181776
0.181777
0.181779
0.18178
0.181782
0.181783
0.181785
0.181786
0.181787
0.181789
0.18179
0.181792
0.181794
0.181795
0.181797
0.181798
0.1818
0.181801
0.181803
0.181805
0.181806
0.181808
0.181809
0.181811
0.181813
0.181814
0.181816
0.181817
0.181819
0.18182
0.181822
0.181823
0.181825
0.181826
0.181827
0.181829
0.18183
0.181831
0.181833
0.181834
0.181835
0.181836
0.181837
0.181838
0.181839
0.18184
0.181841
0.181842
0.181843
0.181843
0.181844
0.181845
0.181845
0.181846
0.181846
0.181847
0.181847
0.181847
0.181847
0.181848
0.181848
0.181848
0.181848
0.181848
0.181848
0.181848
0.181848
0.181847
0.181847
0.181847
0.181846
0.181846
0.181845
0.181845
0.181844
0.181844
0.181843
0.181842
0.181841
0.18184
0.181839
0.181838
0.181837
0.181836
0.181835
0.181834
0.181832
0.181831
0.18183
0.181828
0.181826
0.181824
0.181822
0.18182
0.181818
0.181816
0.181813
0.181811
0.181808
0.181805
0.181802
0.181798
0.181795
0.181791
0.181787
0.181783
0.181778
0.181774
0.181768
0.181763
0.181758
0.181752
0.181746
0.18174
0.181733
0.181726
0.181719
0.181712
0.181704
0.181696
0.181688
0.18168
0.181672
0.181664
0.181655
0.181646
0.181637
0.181629
0.18162
0.181611
0.181602
0.181594
0.181585
0.181577
0.181569
0.181561
0.181553
0.181546
0.181539
0.181533
0.181527
0.181521
0.181516
0.181511
0.181507
0.181504
0.181501
0.181499
0.181497
0.181496
0.181495
0.181495
0.181496
0.181496
0.181498
0.181499
0.181504
0.181506
0.181513
0.181515
0.181523
0.181526
0.181535
0.181538
0.181549
)
;

boundaryField
{
    inlet
    {
        type            calculated;
        value           uniform 0.805169;
    }
    outlet
    {
        type            calculated;
        value           uniform 0.181551;
    }
    emptyWalls
    {
        type            empty;
    }
}


// ************************************************************************* //
