/*--------------------------------*- C++ -*----------------------------------*\
  =========                 |
  \\      /  F ield         | OpenFOAM: The Open Source CFD Toolbox
   \\    /   O peration     | Website:  https://openfoam.org
    \\  /    A nd           | Version:  9
     \\/     M anipulation  |
\*---------------------------------------------------------------------------*/
FoamFile
{
    format      ascii;
    class       surfaceScalarField;
    location    "19750";
    object      phia;
}
// * * * * * * * * * * * * * * * * * * * * * * * * * * * * * * * * * * * * * //

dimensions      [0 2 0 0 0 0 0];

internalField   nonuniform List<scalar> 
999
(
2.74863e-10
2.74874e-10
2.74839e-10
2.74833e-10
2.748e-10
2.74755e-10
2.7473e-10
2.74645e-10
2.74603e-10
2.7451e-10
2.74441e-10
2.74359e-10
2.74277e-10
2.74193e-10
2.74107e-10
2.74016e-10
2.7393e-10
2.73842e-10
2.73772e-10
2.73684e-10
2.73638e-10
2.73548e-10
2.73505e-10
2.73413e-10
2.73211e-10
2.72497e-10
2.69564e-10
2.50979e-10
2.19602e-10
2.14728e-10
2.13672e-10
2.13787e-10
2.14295e-10
2.14496e-10
2.14128e-10
2.13445e-10
2.12742e-10
2.11659e-10
2.10515e-10
2.09543e-10
2.08805e-10
2.08289e-10
2.07946e-10
2.07693e-10
2.0767e-10
2.07668e-10
2.07652e-10
2.07598e-10
2.07499e-10
2.07387e-10
2.07271e-10
2.07146e-10
2.06994e-10
2.06842e-10
2.06688e-10
2.06537e-10
2.06389e-10
2.06245e-10
2.06103e-10
2.05966e-10
2.05834e-10
2.05708e-10
2.05587e-10
2.05471e-10
2.05361e-10
2.05256e-10
2.05156e-10
2.05061e-10
2.0497e-10
2.04885e-10
2.04804e-10
2.04729e-10
2.04659e-10
2.04594e-10
2.04536e-10
2.04488e-10
2.04448e-10
2.04417e-10
2.04388e-10
2.0436e-10
2.04333e-10
2.04307e-10
2.04282e-10
2.04259e-10
2.04237e-10
2.04216e-10
2.04196e-10
2.04178e-10
2.04162e-10
2.04147e-10
2.04135e-10
2.04124e-10
2.04117e-10
2.04111e-10
2.04107e-10
2.04105e-10
2.04103e-10
2.04101e-10
2.04098e-10
2.04094e-10
2.04089e-10
2.04083e-10
2.04076e-10
2.0407e-10
2.04066e-10
2.04064e-10
2.04066e-10
2.04069e-10
2.04074e-10
2.0408e-10
2.04085e-10
2.04089e-10
2.0409e-10
2.04089e-10
2.04083e-10
2.04075e-10
2.04065e-10
2.04058e-10
2.04061e-10
2.04079e-10
2.0412e-10
2.04188e-10
2.04287e-10
2.04417e-10
2.04576e-10
2.0476e-10
2.04966e-10
2.05187e-10
2.05419e-10
2.05657e-10
2.05893e-10
2.06124e-10
2.06341e-10
2.06539e-10
2.06708e-10
2.06843e-10
2.06936e-10
2.06981e-10
2.06976e-10
2.06917e-10
2.06808e-10
2.0665e-10
2.06451e-10
2.06218e-10
2.05961e-10
2.05689e-10
2.05413e-10
2.05141e-10
2.0488e-10
2.04639e-10
2.04421e-10
2.04229e-10
2.04065e-10
2.03929e-10
2.03819e-10
2.03732e-10
2.03667e-10
2.0362e-10
2.03586e-10
2.03564e-10
2.03549e-10
2.03538e-10
2.0353e-10
2.03521e-10
2.03511e-10
2.03498e-10
2.03482e-10
2.03462e-10
2.03437e-10
2.03408e-10
2.03375e-10
2.03339e-10
2.033e-10
2.03257e-10
2.03213e-10
2.03166e-10
2.03118e-10
2.03069e-10
2.0302e-10
2.0297e-10
2.0292e-10
2.02869e-10
2.0282e-10
2.0277e-10
2.02721e-10
2.02673e-10
2.02625e-10
2.02579e-10
2.02532e-10
2.02487e-10
2.02443e-10
2.024e-10
2.02357e-10
2.02315e-10
2.02275e-10
2.02235e-10
2.02196e-10
2.02159e-10
2.02122e-10
2.02086e-10
2.02051e-10
2.02018e-10
2.01985e-10
2.01953e-10
2.01923e-10
2.01893e-10
2.01864e-10
2.01837e-10
2.0181e-10
2.01784e-10
2.0176e-10
2.01737e-10
2.01715e-10
2.01694e-10
2.01675e-10
2.01657e-10
2.0164e-10
2.01624e-10
2.01609e-10
2.01596e-10
2.01583e-10
2.01571e-10
2.01559e-10
2.01548e-10
2.01538e-10
2.01528e-10
2.01518e-10
2.01509e-10
2.015e-10
2.01491e-10
2.01483e-10
2.01476e-10
2.0147e-10
2.01464e-10
2.01458e-10
2.01453e-10
2.01448e-10
2.01443e-10
2.01437e-10
2.01431e-10
2.01424e-10
2.01417e-10
2.0141e-10
2.01405e-10
2.01401e-10
2.01399e-10
2.01402e-10
2.01411e-10
2.01426e-10
2.0145e-10
2.01484e-10
2.01528e-10
2.01584e-10
2.01652e-10
2.01733e-10
2.01826e-10
2.01932e-10
2.02048e-10
2.02175e-10
2.02311e-10
2.02453e-10
2.026e-10
2.02749e-10
2.02898e-10
2.03043e-10
2.03181e-10
2.0331e-10
2.03426e-10
2.03526e-10
2.03608e-10
2.03669e-10
2.03706e-10
2.0372e-10
2.03708e-10
2.0367e-10
2.03608e-10
2.03522e-10
2.03414e-10
2.03287e-10
2.03144e-10
2.02987e-10
2.02821e-10
2.02649e-10
2.02474e-10
2.023e-10
2.0213e-10
2.01965e-10
2.01809e-10
2.01663e-10
2.01527e-10
2.01404e-10
2.01292e-10
2.01192e-10
2.01104e-10
2.01027e-10
2.00959e-10
2.009e-10
2.00849e-10
2.00805e-10
2.00765e-10
2.0073e-10
2.00699e-10
2.00669e-10
2.00641e-10
2.00614e-10
2.00586e-10
2.00559e-10
2.0053e-10
2.005e-10
2.00468e-10
2.00435e-10
2.004e-10
2.00364e-10
2.00326e-10
2.00287e-10
2.00247e-10
2.00205e-10
2.00162e-10
2.00118e-10
2.00074e-10
2.00029e-10
1.99983e-10
1.99938e-10
1.99892e-10
1.99846e-10
1.998e-10
1.99754e-10
1.99709e-10
1.99664e-10
1.99619e-10
1.99575e-10
1.99532e-10
1.99489e-10
1.99446e-10
1.99404e-10
1.99363e-10
1.99322e-10
1.99283e-10
1.99244e-10
1.99205e-10
1.99168e-10
1.99131e-10
1.99095e-10
1.99059e-10
1.99025e-10
1.98991e-10
1.98958e-10
1.98926e-10
1.98895e-10
1.98865e-10
1.98835e-10
1.98807e-10
1.98779e-10
1.98752e-10
1.98726e-10
1.98701e-10
1.98677e-10
1.98653e-10
1.98631e-10
1.9861e-10
1.98589e-10
1.98569e-10
1.9855e-10
1.98532e-10
1.98515e-10
1.98498e-10
1.98482e-10
1.98467e-10
1.98453e-10
1.98439e-10
1.98425e-10
1.98412e-10
1.984e-10
1.98388e-10
1.98377e-10
1.98366e-10
1.98355e-10
1.98345e-10
1.98336e-10
1.98326e-10
1.98317e-10
1.98308e-10
1.983e-10
1.98291e-10
1.98283e-10
1.98275e-10
1.98267e-10
1.98261e-10
1.98255e-10
1.9825e-10
1.98246e-10
1.98245e-10
1.98245e-10
1.98249e-10
1.98256e-10
1.98266e-10
1.98282e-10
1.98302e-10
1.98327e-10
1.98359e-10
1.98396e-10
1.98441e-10
1.98492e-10
1.98549e-10
1.98614e-10
1.98685e-10
1.98762e-10
1.98845e-10
1.98934e-10
1.99026e-10
1.99122e-10
1.99221e-10
1.99321e-10
1.99421e-10
1.99519e-10
1.99615e-10
1.99707e-10
1.99794e-10
1.99873e-10
1.99944e-10
2.00005e-10
2.00055e-10
2.00094e-10
2.00119e-10
2.0013e-10
2.00128e-10
2.00111e-10
2.00079e-10
2.00033e-10
1.99974e-10
1.99902e-10
1.99818e-10
1.99723e-10
1.9962e-10
1.99508e-10
1.9939e-10
1.99267e-10
1.99141e-10
1.99014e-10
1.98886e-10
1.9876e-10
1.98637e-10
1.98517e-10
1.98401e-10
1.9829e-10
1.98185e-10
1.98087e-10
1.97994e-10
1.97908e-10
1.97827e-10
1.97753e-10
1.97684e-10
1.97621e-10
1.97563e-10
1.97509e-10
1.97459e-10
1.97412e-10
1.97368e-10
1.97327e-10
1.97287e-10
1.97249e-10
1.97213e-10
1.97177e-10
1.97141e-10
1.97106e-10
1.9707e-10
1.97035e-10
1.96999e-10
1.96963e-10
1.96926e-10
1.96888e-10
1.9685e-10
1.96811e-10
1.96771e-10
1.96731e-10
1.9669e-10
1.96649e-10
1.96608e-10
1.96566e-10
1.96523e-10
1.96481e-10
1.96438e-10
1.96396e-10
1.96353e-10
1.9631e-10
1.96268e-10
1.96225e-10
1.96183e-10
1.96141e-10
1.961e-10
1.96059e-10
1.96018e-10
1.95978e-10
1.95938e-10
1.95899e-10
1.95861e-10
1.95822e-10
1.95785e-10
1.95748e-10
1.95712e-10
1.95676e-10
1.95641e-10
1.95606e-10
1.95573e-10
1.95539e-10
1.95507e-10
1.95475e-10
1.95444e-10
1.95414e-10
1.95384e-10
1.95355e-10
1.95326e-10
1.95299e-10
1.95272e-10
1.95245e-10
1.9522e-10
1.95195e-10
1.95171e-10
1.95147e-10
1.95124e-10
1.95102e-10
1.9508e-10
1.95059e-10
1.95039e-10
1.9502e-10
1.95001e-10
1.94982e-10
1.94964e-10
1.94947e-10
1.9493e-10
1.94914e-10
1.94898e-10
1.94883e-10
1.94868e-10
1.94853e-10
1.94839e-10
1.94826e-10
1.94812e-10
1.94799e-10
1.94787e-10
1.94775e-10
1.94763e-10
1.94751e-10
1.9474e-10
1.94729e-10
1.94719e-10
1.94709e-10
1.94699e-10
1.9469e-10
1.94682e-10
1.94675e-10
1.94668e-10
1.94663e-10
1.94659e-10
1.94657e-10
1.94656e-10
1.94658e-10
1.94661e-10
1.94668e-10
1.94677e-10
1.94689e-10
1.94704e-10
1.94722e-10
1.94745e-10
1.94771e-10
1.94801e-10
1.94834e-10
1.94872e-10
1.94914e-10
1.9496e-10
1.9501e-10
1.95064e-10
1.9512e-10
1.9518e-10
1.95243e-10
1.95307e-10
1.95374e-10
1.95442e-10
1.9551e-10
1.95578e-10
1.95646e-10
1.95712e-10
1.95775e-10
1.95836e-10
1.95894e-10
1.95946e-10
1.95994e-10
1.96035e-10
1.96071e-10
1.96099e-10
1.96119e-10
1.96131e-10
1.96134e-10
1.96129e-10
1.96115e-10
1.96092e-10
1.9606e-10
1.96019e-10
1.95969e-10
1.95911e-10
1.95846e-10
1.95773e-10
1.95694e-10
1.95609e-10
1.9552e-10
1.95426e-10
1.95329e-10
1.95229e-10
1.95128e-10
1.95025e-10
1.94923e-10
1.94821e-10
1.94721e-10
1.94622e-10
1.94525e-10
1.94432e-10
1.94341e-10
1.94254e-10
1.9417e-10
1.94089e-10
1.94013e-10
1.9394e-10
1.93871e-10
1.93805e-10
1.93742e-10
1.93683e-10
1.93627e-10
1.93573e-10
1.93522e-10
1.93473e-10
1.93427e-10
1.93381e-10
1.93338e-10
1.93296e-10
1.93254e-10
1.93214e-10
1.93174e-10
1.93135e-10
1.93096e-10
1.93057e-10
1.93019e-10
1.9298e-10
1.92942e-10
1.92903e-10
1.92864e-10
1.92825e-10
1.92785e-10
1.92745e-10
1.92705e-10
1.92665e-10
1.92625e-10
1.92584e-10
1.92543e-10
1.92502e-10
1.9246e-10
1.92419e-10
1.92377e-10
1.92336e-10
1.92294e-10
1.92253e-10
1.92211e-10
1.9217e-10
1.92129e-10
1.92087e-10
1.92047e-10
1.92006e-10
1.91966e-10
1.91925e-10
1.91886e-10
1.91846e-10
1.91807e-10
1.91768e-10
1.9173e-10
1.91692e-10
1.91654e-10
1.91617e-10
1.9158e-10
1.91544e-10
1.91508e-10
1.91473e-10
1.91438e-10
1.91404e-10
1.9137e-10
1.91336e-10
1.91303e-10
1.9127e-10
1.91238e-10
1.91207e-10
1.91176e-10
1.91145e-10
1.91115e-10
1.91086e-10
1.91057e-10
1.91028e-10
1.91e-10
1.90972e-10
1.90945e-10
1.90919e-10
1.90892e-10
1.90867e-10
1.90842e-10
1.90817e-10
1.90792e-10
1.90768e-10
1.90745e-10
1.90722e-10
1.90699e-10
1.90677e-10
1.90655e-10
1.90634e-10
1.90612e-10
1.90592e-10
1.90571e-10
1.90551e-10
1.90531e-10
1.90512e-10
1.90493e-10
1.90474e-10
1.90456e-10
1.90438e-10
1.9042e-10
1.90403e-10
1.90386e-10
1.9037e-10
1.90355e-10
1.90339e-10
1.90325e-10
1.90311e-10
1.90298e-10
1.90286e-10
1.90276e-10
1.90266e-10
1.90257e-10
1.9025e-10
1.90244e-10
1.9024e-10
1.90238e-10
1.90237e-10
1.90239e-10
1.90243e-10
1.90249e-10
1.90258e-10
1.90269e-10
1.90283e-10
1.90299e-10
1.90318e-10
1.90341e-10
1.90366e-10
1.90394e-10
1.90425e-10
1.90459e-10
1.90496e-10
1.90535e-10
1.90578e-10
1.90623e-10
1.9067e-10
1.9072e-10
1.90771e-10
1.90825e-10
1.90879e-10
1.90936e-10
1.90992e-10
1.9105e-10
1.91107e-10
1.91164e-10
1.9122e-10
1.91275e-10
1.91328e-10
1.91379e-10
1.91428e-10
1.91473e-10
1.91514e-10
1.91552e-10
1.91585e-10
1.91614e-10
1.91637e-10
1.91654e-10
1.91666e-10
1.91675e-10
1.9168e-10
1.9167e-10
1.91657e-10
1.91637e-10
1.91609e-10
1.9157e-10
1.91516e-10
1.91441e-10
1.91332e-10
1.91168e-10
1.90917e-10
1.90537e-10
1.89988e-10
1.89268e-10
1.88463e-10
1.87731e-10
1.872e-10
1.86871e-10
1.86679e-10
1.86558e-10
1.86472e-10
1.86402e-10
1.8634e-10
1.86284e-10
1.86231e-10
1.86181e-10
1.86133e-10
1.86087e-10
1.86043e-10
1.86001e-10
1.85961e-10
1.85923e-10
1.85887e-10
1.85853e-10
1.85821e-10
1.85791e-10
1.85763e-10
1.85736e-10
1.85711e-10
1.85688e-10
1.85666e-10
1.85645e-10
1.85625e-10
1.85607e-10
1.85589e-10
1.85572e-10
1.85556e-10
1.8554e-10
1.85525e-10
1.85511e-10
1.85496e-10
1.85482e-10
1.85469e-10
1.85455e-10
1.85442e-10
1.85428e-10
1.85415e-10
1.85401e-10
1.85388e-10
1.85374e-10
1.85361e-10
1.85347e-10
1.85333e-10
1.85319e-10
1.85305e-10
1.85291e-10
1.85277e-10
1.85262e-10
1.85248e-10
1.85234e-10
1.85219e-10
1.85205e-10
1.8519e-10
1.85176e-10
1.85161e-10
1.85147e-10
1.85133e-10
1.85118e-10
1.85104e-10
1.8509e-10
1.85077e-10
1.85063e-10
1.8505e-10
1.85036e-10
1.85024e-10
1.85011e-10
1.84998e-10
1.84986e-10
1.84974e-10
1.84963e-10
1.84952e-10
1.84941e-10
1.8493e-10
1.8492e-10
1.8491e-10
1.84901e-10
1.84892e-10
1.84883e-10
1.84875e-10
1.84867e-10
1.8486e-10
1.84852e-10
1.84846e-10
1.8484e-10
1.84834e-10
1.84829e-10
1.84824e-10
1.84819e-10
1.84815e-10
1.84812e-10
1.84808e-10
1.84806e-10
1.84803e-10
1.84802e-10
1.848e-10
1.848e-10
1.84799e-10
1.84799e-10
1.84799e-10
1.84799e-10
1.848e-10
1.84802e-10
1.84804e-10
1.84806e-10
1.84809e-10
1.84812e-10
1.84816e-10
1.8482e-10
1.84824e-10
1.84829e-10
1.84834e-10
1.8484e-10
1.84846e-10
1.84852e-10
1.84859e-10
1.84866e-10
1.84874e-10
1.84881e-10
1.8489e-10
1.84899e-10
1.84908e-10
1.84918e-10
1.84928e-10
1.84939e-10
1.8495e-10
1.84962e-10
1.84975e-10
1.84988e-10
1.85003e-10
1.85017e-10
1.85033e-10
1.8505e-10
1.85068e-10
1.85086e-10
1.85106e-10
1.85127e-10
1.85149e-10
1.85173e-10
1.85198e-10
1.85224e-10
1.85252e-10
1.85281e-10
1.85312e-10
1.85345e-10
1.85379e-10
1.85415e-10
1.85453e-10
1.85492e-10
1.85533e-10
1.85576e-10
1.85621e-10
1.85667e-10
1.85715e-10
1.85764e-10
1.85815e-10
1.85867e-10
1.85921e-10
1.85975e-10
1.86031e-10
1.86088e-10
1.86145e-10
1.86203e-10
1.86261e-10
1.86319e-10
1.86378e-10
1.86436e-10
1.86493e-10
1.8655e-10
1.86605e-10
1.8666e-10
1.86713e-10
1.86764e-10
1.86813e-10
1.8686e-10
1.86904e-10
1.86946e-10
1.86984e-10
1.8702e-10
1.87052e-10
1.8708e-10
1.87104e-10
1.87125e-10
1.87141e-10
1.87153e-10
1.87161e-10
1.87164e-10
1.87165e-10
1.87165e-10
1.87161e-10
1.87155e-10
1.87141e-10
1.87124e-10
1.87098e-10
1.87071e-10
1.87038e-10
1.87005e-10
1.86967e-10
1.86929e-10
1.86887e-10
1.86843e-10
)
;

boundaryField
{
    inlet
    {
        type            calculated;
        value           uniform -2.74882e-10;
    }
    outlet
    {
        type            calculated;
        value           uniform 1.86797e-10;
    }
    emptyWalls
    {
        type            empty;
        value           nonuniform List<scalar> 0();
    }
}


// ************************************************************************* //
