/*--------------------------------*- C++ -*----------------------------------*\
  =========                 |
  \\      /  F ield         | OpenFOAM: The Open Source CFD Toolbox
   \\    /   O peration     | Website:  https://openfoam.org
    \\  /    A nd           | Version:  9
     \\/     M anipulation  |
\*---------------------------------------------------------------------------*/
FoamFile
{
    format      ascii;
    class       volScalarField;
    location    "23000";
    object      krc;
}
// * * * * * * * * * * * * * * * * * * * * * * * * * * * * * * * * * * * * * //

dimensions      [0 0 0 0 0 0 0];

internalField   nonuniform List<scalar> 
1000
(
8.55562e-08
7.84785e-07
2.78868e-06
6.01278e-06
1.04385e-05
1.60712e-05
2.29309e-05
3.10376e-05
4.04151e-05
5.10805e-05
6.30422e-05
7.62918e-05
9.08008e-05
0.000106511
0.000123323
0.000141096
0.000159631
0.000178679
0.000197933
0.000217061
0.000235708
0.000253549
0.000270302
0.000285767
0.000299831
0.000312485
0.000323876
0.000334642
0.000347598
0.000375952
0.000479802
0.000999878
0.00694075
0.0331112
0.0420928
0.0450277
0.0464599
0.0473741
0.0480562
0.048616
0.0490998
0.0495335
0.0499291
0.0502967
0.0506403
0.0509652
0.0512727
0.0515661
0.051846
0.0521148
0.0523725
0.0526212
0.0528609
0.0530934
0.0533184
0.0535377
0.0537509
0.0539596
0.0541635
0.054364
0.054561
0.0547554
0.0549473
0.0551375
0.0553259
0.0555136
0.0557008
0.055889
0.0560803
0.0562721
0.056465
0.0566589
0.056854
0.0570508
0.0572497
0.0574511
0.0576557
0.0578642
0.0580773
0.0582963
0.0585224
0.0587576
0.0590044
0.0592664
0.0595482
0.059856
0.0601969
0.0605787
0.0610081
0.0614886
0.0620179
0.0625885
0.0631901
0.0638141
0.064454
0.0651056
0.0657656
0.0664318
0.0671026
0.0677766
0.0684529
0.0691309
0.0698099
0.0704895
0.0711694
0.0718493
0.072529
0.0732083
0.073887
0.0745651
0.0752424
0.0759187
0.0765941
0.0772684
0.0779416
0.0786136
0.0792844
0.0799538
0.080622
0.0812888
0.0819543
0.0826184
0.0832811
0.0839425
0.0846024
0.0852609
0.0859181
0.0865738
0.0872281
0.087881
0.0885325
0.0891826
0.0898313
0.0904786
0.0911244
0.0917689
0.092412
0.0930536
0.0936939
0.0943327
0.0949701
0.0956062
0.0962408
0.0968741
0.097506
0.0981365
0.0987656
0.0993933
0.10002
0.100645
0.101268
0.101891
0.102512
0.103131
0.103749
0.104366
0.104982
0.105596
0.106209
0.106821
0.107431
0.10804
0.108648
0.109254
0.109859
0.110463
0.111066
0.111667
0.112267
0.112866
0.113464
0.11406
0.114655
0.115249
0.115842
0.116433
0.117023
0.117612
0.1182
0.118787
0.119372
0.119956
0.120539
0.121121
0.121702
0.122282
0.12286
0.123437
0.124014
0.124589
0.125162
0.125735
0.126307
0.126877
0.127447
0.128015
0.128582
0.129149
0.129714
0.130278
0.130841
0.131402
0.131963
0.132523
0.133082
0.133639
0.134196
0.134752
0.135306
0.13586
0.136412
0.136964
0.137514
0.138063
0.138611
0.139159
0.139705
0.14025
0.140794
0.141337
0.141879
0.142421
0.142961
0.1435
0.144038
0.144576
0.145113
0.145648
0.146183
0.146717
0.147251
0.147783
0.148315
0.148846
0.149376
0.149905
0.150434
0.150961
0.151488
0.152014
0.152539
0.153064
0.153587
0.15411
0.154632
0.155153
0.155673
0.156192
0.15671
0.157228
0.157744
0.15826
0.158775
0.159289
0.159802
0.160315
0.160826
0.161337
0.161847
0.162356
0.162865
0.163373
0.16388
0.164386
0.164891
0.165396
0.1659
0.166403
0.166906
0.167408
0.167909
0.168409
0.168909
0.169408
0.169906
0.170404
0.170901
0.171397
0.171892
0.172387
0.172881
0.173374
0.173867
0.174359
0.17485
0.175341
0.175831
0.17632
0.176809
0.177297
0.177784
0.178271
0.178757
0.179243
0.179727
0.180211
0.180695
0.181178
0.18166
0.182142
0.182623
0.183103
0.183583
0.184062
0.18454
0.185018
0.185496
0.185972
0.186449
0.186924
0.187399
0.187873
0.188347
0.18882
0.189293
0.189765
0.190236
0.190707
0.191178
0.191648
0.192117
0.192585
0.193054
0.193521
0.193988
0.194455
0.194921
0.195386
0.195851
0.196315
0.196779
0.197242
0.197705
0.198168
0.198629
0.199091
0.199551
0.200012
0.200471
0.20093
0.201389
0.201847
0.202305
0.202762
0.203219
0.203675
0.204131
0.204586
0.205041
0.205495
0.205948
0.206402
0.206854
0.207306
0.207758
0.208209
0.208659
0.209109
0.209559
0.210008
0.210456
0.210904
0.211352
0.211799
0.212246
0.212693
0.213139
0.213584
0.21403
0.214475
0.21492
0.215364
0.215808
0.216252
0.216696
0.217139
0.217582
0.218024
0.218467
0.218909
0.219351
0.219792
0.220233
0.220674
0.221115
0.221555
0.221994
0.222434
0.222872
0.223311
0.223749
0.224187
0.224624
0.225061
0.225497
0.225933
0.226369
0.226804
0.227239
0.227674
0.228108
0.228542
0.228975
0.229408
0.229841
0.230273
0.230705
0.231137
0.231568
0.231999
0.23243
0.23286
0.23329
0.23372
0.234149
0.234579
0.235007
0.235436
0.235864
0.236292
0.23672
0.237147
0.237574
0.238001
0.238428
0.238854
0.23928
0.239705
0.240131
0.240556
0.240981
0.241405
0.241829
0.242253
0.242677
0.243101
0.243524
0.243947
0.244369
0.244792
0.245214
0.245636
0.246057
0.246478
0.2469
0.24732
0.247741
0.248161
0.248581
0.249001
0.249421
0.24984
0.250259
0.250678
0.251097
0.251515
0.251933
0.252351
0.252769
0.253186
0.253603
0.254021
0.254437
0.254854
0.25527
0.255686
0.256102
0.256518
0.256934
0.257349
0.257764
0.258179
0.258594
0.259008
0.259422
0.259837
0.26025
0.260664
0.261078
0.261491
0.261904
0.262317
0.26273
0.263143
0.263555
0.263967
0.26438
0.264791
0.265203
0.265615
0.266026
0.266437
0.266848
0.267259
0.26767
0.268081
0.268491
0.268901
0.269311
0.269721
0.27013
0.27054
0.270949
0.271358
0.271767
0.272175
0.272584
0.272992
0.2734
0.273808
0.274216
0.274623
0.275031
0.275438
0.275845
0.276252
0.276659
0.277065
0.277472
0.277879
0.278285
0.278691
0.279098
0.279504
0.279911
0.280317
0.280723
0.28113
0.281536
0.281943
0.282349
0.282756
0.283162
0.283569
0.283975
0.284382
0.284789
0.285196
0.285602
0.286009
0.286416
0.286822
0.287229
0.287636
0.288042
0.288449
0.288855
0.289262
0.289668
0.290074
0.290481
0.290887
0.291293
0.291699
0.292104
0.29251
0.292916
0.293321
0.293727
0.294132
0.294538
0.294943
0.295348
0.295754
0.296159
0.296564
0.296969
0.297374
0.297779
0.298184
0.298589
0.298995
0.2994
0.299805
0.30021
0.300615
0.30102
0.301425
0.30183
0.302235
0.30264
0.303046
0.303451
0.303856
0.304261
0.304667
0.305072
0.305477
0.305883
0.306288
0.306694
0.307099
0.307505
0.30791
0.308316
0.308722
0.309127
0.309533
0.309939
0.310345
0.310751
0.311157
0.311563
0.311969
0.312375
0.312781
0.313187
0.313594
0.314
0.314407
0.314813
0.31522
0.315627
0.316033
0.31644
0.316847
0.317254
0.317661
0.318069
0.318476
0.318883
0.319291
0.319699
0.320106
0.320514
0.320922
0.32133
0.321738
0.322147
0.322555
0.322963
0.323372
0.323781
0.32419
0.324599
0.325008
0.325417
0.325827
0.326236
0.326646
0.327056
0.327466
0.327876
0.328286
0.328697
0.329108
0.329518
0.329929
0.330341
0.330752
0.331163
0.331575
0.331987
0.332399
0.332811
0.333223
0.333636
0.334049
0.334462
0.334875
0.335288
0.335701
0.336115
0.336529
0.336943
0.337357
0.337771
0.338186
0.3386
0.339015
0.33943
0.339846
0.340261
0.340677
0.341092
0.341508
0.341925
0.342341
0.342758
0.343174
0.343592
0.344009
0.344426
0.344844
0.345263
0.345681
0.3461
0.346519
0.346938
0.347358
0.347778
0.348199
0.34862
0.349041
0.349463
0.349885
0.350308
0.350731
0.351155
0.351579
0.352004
0.352429
0.352854
0.35328
0.353707
0.354134
0.354561
0.35499
0.355418
0.355847
0.356276
0.356706
0.357137
0.357568
0.357999
0.35843
0.358863
0.359295
0.359728
0.360162
0.360595
0.36103
0.361464
0.361899
0.362335
0.362771
0.363207
0.363644
0.364081
0.364519
0.364957
0.365395
0.365834
0.366274
0.366714
0.367154
0.367595
0.368036
0.368478
0.368921
0.369363
0.369807
0.370251
0.370695
0.37114
0.371586
0.372032
0.372479
0.372927
0.373375
0.373823
0.374272
0.374722
0.375173
0.375624
0.376075
0.376528
0.376981
0.377435
0.377889
0.378344
0.3788
0.379256
0.379713
0.380171
0.380629
0.381088
0.381548
0.382009
0.38247
0.382932
0.383395
0.383859
0.384323
0.384788
0.385254
0.385721
0.386188
0.386657
0.387126
0.387596
0.388066
0.388538
0.38901
0.389483
0.389958
0.390432
0.390908
0.391385
0.391863
0.392341
0.392821
0.393301
0.393782
0.394265
0.394748
0.395232
0.395717
0.396203
0.396691
0.397179
0.397668
0.398158
0.398649
0.399142
0.399635
0.40013
0.400625
0.401122
0.401619
0.402118
0.402618
0.403119
0.403622
0.404125
0.40463
0.405136
0.405643
0.406151
0.40666
0.407171
0.407683
0.408196
0.408711
0.409227
0.409744
0.410262
0.410782
0.411303
0.411825
0.412349
0.412874
0.4134
0.413928
0.414457
0.414987
0.415519
0.416052
0.416586
0.417122
0.417659
0.418197
0.418737
0.419278
0.41982
0.420364
0.420908
0.421454
0.422002
0.42255
0.423099
0.42365
0.424201
0.424753
0.425306
0.425859
0.426414
0.426968
0.427523
0.428078
0.428633
0.429188
0.429742
0.430295
0.430846
0.431396
0.431944
0.432489
0.433031
0.43357
0.434103
0.434631
0.435153
0.435668
0.436174
0.436671
0.437158
0.437633
0.438095
0.438542
0.438975
0.439391
0.439789
0.440168
0.440527
0.440866
0.441184
0.44148
0.441755
0.442008
0.442239
0.442449
0.442638
0.442808
0.442959
0.443093
0.443211
0.443313
0.443402
0.443478
0.443543
0.443599
0.443646
0.443685
0.443718
0.443745
0.443768
0.443789
0.443808
0.443828
0.443851
0.443883
0.443933
0.444018
0.444166
0.444427
0.444892
0.445722
0.447198
0.449802
0.454331
0.461999
0.474415
0.493124
0.518441
0.548046
0.577106
0.600907
0.617522
0.627797
0.633663
0.636854
0.638545
0.639427
0.639885
0.640121
0.640244
0.640307
0.64034
0.640357
0.640367
0.640372
0.640376
0.640378
0.640379
0.640381
0.640382
0.640383
0.640385
0.640386
0.640387
0.640388
0.64039
0.640391
0.640392
0.640393
0.640395
0.640396
0.640397
0.640399
0.6404
0.640401
0.640402
0.640404
0.640405
0.640406
0.640407
0.640409
0.64041
0.640411
0.640412
0.640413
0.640414
0.640416
0.640416
0.640418
0.640418
0.640419
0.64042
0.640421
0.640422
0.640423
0.640423
0.640424
0.640425
0.640426
0.640426
0.640427
0.640427
0.640428
0.640428
0.640429
0.640429
0.640429
0.640429
0.64043
0.64043
0.64043
0.64043
0.64043
)
;

boundaryField
{
    inlet
    {
        type            calculated;
        value           uniform 3.08149e-33;
    }
    outlet
    {
        type            calculated;
        value           uniform 0.64043;
    }
    emptyWalls
    {
        type            empty;
    }
}


// ************************************************************************* //
