/*--------------------------------*- C++ -*----------------------------------*\
  =========                 |
  \\      /  F ield         | OpenFOAM: The Open Source CFD Toolbox
   \\    /   O peration     | Website:  https://openfoam.org
    \\  /    A nd           | Version:  9
     \\/     M anipulation  |
\*---------------------------------------------------------------------------*/
FoamFile
{
    format      ascii;
    class       surfaceScalarField;
    location    "23000";
    object      phib;
}
// * * * * * * * * * * * * * * * * * * * * * * * * * * * * * * * * * * * * * //

dimensions      [0 2 0 0 0 0 0];

internalField   nonuniform List<scalar> 
999
(
1.1362e-09
1.13623e-09
1.13623e-09
1.13624e-09
1.13626e-09
1.13627e-09
1.13629e-09
1.13631e-09
1.13633e-09
1.13636e-09
1.13637e-09
1.13641e-09
1.13643e-09
1.13648e-09
1.13651e-09
1.13656e-09
1.13661e-09
1.13665e-09
1.13671e-09
1.13673e-09
1.13678e-09
1.13681e-09
1.13685e-09
1.13688e-09
1.1369e-09
1.13693e-09
1.13695e-09
1.13698e-09
1.13703e-09
1.13717e-09
1.13773e-09
1.14036e-09
1.16488e-09
1.17403e-09
1.17593e-09
1.17679e-09
1.17734e-09
1.17775e-09
1.17808e-09
1.17835e-09
1.1786e-09
1.17882e-09
1.17902e-09
1.1792e-09
1.17937e-09
1.17952e-09
1.17966e-09
1.17978e-09
1.1799e-09
1.18001e-09
1.1801e-09
1.18019e-09
1.18027e-09
1.18034e-09
1.1804e-09
1.18046e-09
1.1805e-09
1.18054e-09
1.18058e-09
1.18061e-09
1.18063e-09
1.18065e-09
1.18066e-09
1.18066e-09
1.18065e-09
1.18064e-09
1.18062e-09
1.1806e-09
1.18057e-09
1.18055e-09
1.18052e-09
1.1805e-09
1.18046e-09
1.18043e-09
1.18038e-09
1.18032e-09
1.18025e-09
1.18017e-09
1.18008e-09
1.17998e-09
1.17987e-09
1.17977e-09
1.17965e-09
1.17954e-09
1.17942e-09
1.17927e-09
1.17909e-09
1.17886e-09
1.17858e-09
1.17824e-09
1.17784e-09
1.17736e-09
1.17682e-09
1.17621e-09
1.17555e-09
1.17486e-09
1.17416e-09
1.17347e-09
1.1728e-09
1.17214e-09
1.1715e-09
1.17088e-09
1.17029e-09
1.16974e-09
1.16924e-09
1.1688e-09
1.16843e-09
1.16812e-09
1.16787e-09
1.16767e-09
1.16751e-09
1.16737e-09
1.16724e-09
1.16711e-09
1.16696e-09
1.16678e-09
1.16658e-09
1.16633e-09
1.16605e-09
1.16574e-09
1.16539e-09
1.16501e-09
1.16461e-09
1.16419e-09
1.16375e-09
1.1633e-09
1.16285e-09
1.16239e-09
1.16194e-09
1.16149e-09
1.16104e-09
1.16059e-09
1.16015e-09
1.15972e-09
1.15929e-09
1.15886e-09
1.15844e-09
1.15801e-09
1.15759e-09
1.15718e-09
1.15676e-09
1.15634e-09
1.15593e-09
1.15551e-09
1.15509e-09
1.15467e-09
1.15425e-09
1.15383e-09
1.15341e-09
1.15299e-09
1.15256e-09
1.15213e-09
1.1517e-09
1.15127e-09
1.15084e-09
1.15041e-09
1.14997e-09
1.14954e-09
1.1491e-09
1.14866e-09
1.14822e-09
1.14777e-09
1.14733e-09
1.14688e-09
1.14643e-09
1.14598e-09
1.14552e-09
1.14507e-09
1.14461e-09
1.14416e-09
1.1437e-09
1.14324e-09
1.14277e-09
1.14231e-09
1.14184e-09
1.14137e-09
1.1409e-09
1.14042e-09
1.13995e-09
1.13947e-09
1.13899e-09
1.13851e-09
1.13803e-09
1.13755e-09
1.13707e-09
1.13659e-09
1.1361e-09
1.13562e-09
1.13513e-09
1.13465e-09
1.13416e-09
1.13367e-09
1.13318e-09
1.13269e-09
1.13219e-09
1.13169e-09
1.1312e-09
1.1307e-09
1.1302e-09
1.12971e-09
1.12921e-09
1.12872e-09
1.12823e-09
1.12773e-09
1.12724e-09
1.12674e-09
1.12623e-09
1.12571e-09
1.12519e-09
1.12465e-09
1.1241e-09
1.12353e-09
1.12295e-09
1.12235e-09
1.12173e-09
1.1211e-09
1.12046e-09
1.1198e-09
1.11914e-09
1.11847e-09
1.11779e-09
1.11712e-09
1.11645e-09
1.11579e-09
1.11514e-09
1.1145e-09
1.11388e-09
1.11329e-09
1.11272e-09
1.11218e-09
1.11167e-09
1.11119e-09
1.11074e-09
1.11031e-09
1.10991e-09
1.10953e-09
1.10917e-09
1.10882e-09
1.10848e-09
1.10815e-09
1.10781e-09
1.10747e-09
1.10713e-09
1.10678e-09
1.10641e-09
1.10603e-09
1.10564e-09
1.10523e-09
1.1048e-09
1.10437e-09
1.10392e-09
1.10346e-09
1.10299e-09
1.10252e-09
1.10203e-09
1.10154e-09
1.10105e-09
1.10055e-09
1.10005e-09
1.09955e-09
1.09905e-09
1.09855e-09
1.09806e-09
1.09756e-09
1.09706e-09
1.09657e-09
1.09607e-09
1.09558e-09
1.09509e-09
1.0946e-09
1.09411e-09
1.09362e-09
1.09314e-09
1.09265e-09
1.09216e-09
1.09167e-09
1.09118e-09
1.0907e-09
1.09021e-09
1.08972e-09
1.08923e-09
1.08874e-09
1.08824e-09
1.08775e-09
1.08726e-09
1.08676e-09
1.08627e-09
1.08577e-09
1.08527e-09
1.08477e-09
1.08427e-09
1.08377e-09
1.08327e-09
1.08276e-09
1.08226e-09
1.08175e-09
1.08124e-09
1.08073e-09
1.08022e-09
1.07971e-09
1.07919e-09
1.07868e-09
1.07816e-09
1.07765e-09
1.07713e-09
1.07661e-09
1.07609e-09
1.07556e-09
1.07504e-09
1.07452e-09
1.07399e-09
1.07346e-09
1.07293e-09
1.0724e-09
1.07187e-09
1.07134e-09
1.0708e-09
1.07027e-09
1.06974e-09
1.0692e-09
1.06866e-09
1.06812e-09
1.06759e-09
1.06705e-09
1.06651e-09
1.06596e-09
1.06542e-09
1.06488e-09
1.06434e-09
1.06379e-09
1.06325e-09
1.0627e-09
1.06215e-09
1.06161e-09
1.06106e-09
1.06051e-09
1.05997e-09
1.05942e-09
1.05887e-09
1.05832e-09
1.05776e-09
1.05721e-09
1.05665e-09
1.05609e-09
1.05552e-09
1.05495e-09
1.05437e-09
1.05378e-09
1.05319e-09
1.05259e-09
1.05198e-09
1.05136e-09
1.05074e-09
1.0501e-09
1.04946e-09
1.04881e-09
1.04816e-09
1.0475e-09
1.04684e-09
1.04617e-09
1.0455e-09
1.04483e-09
1.04417e-09
1.0435e-09
1.04285e-09
1.04219e-09
1.04155e-09
1.04092e-09
1.0403e-09
1.03969e-09
1.0391e-09
1.03852e-09
1.03795e-09
1.0374e-09
1.03687e-09
1.03635e-09
1.03585e-09
1.03535e-09
1.03487e-09
1.0344e-09
1.03393e-09
1.03348e-09
1.03302e-09
1.03257e-09
1.03212e-09
1.03167e-09
1.03121e-09
1.03075e-09
1.03029e-09
1.02982e-09
1.02934e-09
1.02886e-09
1.02837e-09
1.02787e-09
1.02737e-09
1.02685e-09
1.02634e-09
1.02581e-09
1.02528e-09
1.02475e-09
1.02421e-09
1.02367e-09
1.02313e-09
1.02258e-09
1.02203e-09
1.02148e-09
1.02093e-09
1.02037e-09
1.01982e-09
1.01926e-09
1.01871e-09
1.01815e-09
1.0176e-09
1.01705e-09
1.01649e-09
1.01594e-09
1.01538e-09
1.01483e-09
1.01428e-09
1.01372e-09
1.01317e-09
1.01261e-09
1.01206e-09
1.01151e-09
1.01095e-09
1.0104e-09
1.00984e-09
1.00928e-09
1.00873e-09
1.00817e-09
1.00761e-09
1.00705e-09
1.00649e-09
1.00593e-09
1.00537e-09
1.00481e-09
1.00424e-09
1.00368e-09
1.00311e-09
1.00255e-09
1.00198e-09
1.00141e-09
1.00084e-09
1.00027e-09
9.99699e-10
9.99126e-10
9.98552e-10
9.97977e-10
9.97401e-10
9.96823e-10
9.96245e-10
9.95665e-10
9.95084e-10
9.94502e-10
9.93919e-10
9.93334e-10
9.92748e-10
9.92161e-10
9.91573e-10
9.90984e-10
9.90394e-10
9.89803e-10
9.8921e-10
9.88617e-10
9.88022e-10
9.87426e-10
9.86829e-10
9.86232e-10
9.85633e-10
9.85033e-10
9.84433e-10
9.83831e-10
9.83228e-10
9.82625e-10
9.8202e-10
9.81415e-10
9.80809e-10
9.80202e-10
9.79594e-10
9.78986e-10
9.78377e-10
9.77767e-10
9.77156e-10
9.76544e-10
9.75932e-10
9.75318e-10
9.74704e-10
9.74089e-10
9.73472e-10
9.72854e-10
9.72234e-10
9.71613e-10
9.70989e-10
9.70363e-10
9.69735e-10
9.69103e-10
9.68468e-10
9.6783e-10
9.67187e-10
9.66541e-10
9.6589e-10
9.65234e-10
9.64574e-10
9.63909e-10
9.63239e-10
9.62564e-10
9.61884e-10
9.612e-10
9.60512e-10
9.59819e-10
9.59123e-10
9.58424e-10
9.57722e-10
9.57019e-10
9.56314e-10
9.55608e-10
9.54903e-10
9.54199e-10
9.53497e-10
9.52797e-10
9.52101e-10
9.51409e-10
9.50723e-10
9.50042e-10
9.49367e-10
9.487e-10
9.4804e-10
9.47389e-10
9.46745e-10
9.4611e-10
9.45483e-10
9.44864e-10
9.44253e-10
9.43649e-10
9.43053e-10
9.42463e-10
9.41878e-10
9.41299e-10
9.40724e-10
9.40151e-10
9.39582e-10
9.39013e-10
9.38446e-10
9.37878e-10
9.37309e-10
9.36738e-10
9.36165e-10
9.35589e-10
9.3501e-10
9.34427e-10
9.33841e-10
9.3325e-10
9.32655e-10
9.32056e-10
9.31453e-10
9.30845e-10
9.30234e-10
9.29619e-10
9.29e-10
9.28378e-10
9.27753e-10
9.27125e-10
9.26495e-10
9.25862e-10
9.25227e-10
9.2459e-10
9.23952e-10
9.23312e-10
9.22671e-10
9.22029e-10
9.21386e-10
9.20742e-10
9.20097e-10
9.19451e-10
9.18806e-10
9.18159e-10
9.17512e-10
9.16865e-10
9.16217e-10
9.15568e-10
9.14919e-10
9.14269e-10
9.13619e-10
9.12969e-10
9.12317e-10
9.11665e-10
9.11013e-10
9.10359e-10
9.09705e-10
9.0905e-10
9.08394e-10
9.07737e-10
9.07079e-10
9.0642e-10
9.05761e-10
9.051e-10
9.04438e-10
9.03775e-10
9.03111e-10
9.02445e-10
9.01779e-10
9.01111e-10
9.00442e-10
8.99772e-10
8.99101e-10
8.98428e-10
8.97754e-10
8.97079e-10
8.96402e-10
8.95724e-10
8.95045e-10
8.94364e-10
8.93682e-10
8.92999e-10
8.92314e-10
8.91628e-10
8.9094e-10
8.90251e-10
8.89561e-10
8.88869e-10
8.88176e-10
8.87482e-10
8.86786e-10
8.86088e-10
8.8539e-10
8.8469e-10
8.83988e-10
8.83286e-10
8.82581e-10
8.81876e-10
8.81169e-10
8.80461e-10
8.79751e-10
8.7904e-10
8.78328e-10
8.77615e-10
8.769e-10
8.76184e-10
8.75467e-10
8.74748e-10
8.74028e-10
8.73307e-10
8.72585e-10
8.71861e-10
8.71137e-10
8.7041e-10
8.69683e-10
8.68954e-10
8.68224e-10
8.67493e-10
8.6676e-10
8.66025e-10
8.65289e-10
8.64551e-10
8.63812e-10
8.6307e-10
8.62326e-10
8.6158e-10
8.60832e-10
8.60082e-10
8.59328e-10
8.58572e-10
8.57813e-10
8.57051e-10
8.56286e-10
8.55518e-10
8.54746e-10
8.53971e-10
8.53192e-10
8.5241e-10
8.51625e-10
8.50835e-10
8.50043e-10
8.49246e-10
8.48447e-10
8.47644e-10
8.46839e-10
8.46031e-10
8.4522e-10
8.44407e-10
8.43592e-10
8.42775e-10
8.41957e-10
8.41139e-10
8.40319e-10
8.395e-10
8.38681e-10
8.37862e-10
8.37045e-10
8.36229e-10
8.35415e-10
8.34604e-10
8.33795e-10
8.32989e-10
8.32186e-10
8.31386e-10
8.30591e-10
8.29799e-10
8.29011e-10
8.28227e-10
8.27447e-10
8.26671e-10
8.25898e-10
8.25129e-10
8.24364e-10
8.23601e-10
8.22842e-10
8.22084e-10
8.21329e-10
8.20575e-10
8.19823e-10
8.19071e-10
8.18319e-10
8.17567e-10
8.16815e-10
8.16061e-10
8.15306e-10
8.14549e-10
8.1379e-10
8.13028e-10
8.12264e-10
8.11497e-10
8.10727e-10
8.09953e-10
8.09176e-10
8.08396e-10
8.07612e-10
8.06824e-10
8.06033e-10
8.05239e-10
8.04441e-10
8.0364e-10
8.02836e-10
8.02028e-10
8.01218e-10
8.00404e-10
7.99588e-10
7.98769e-10
7.97948e-10
7.97123e-10
7.96297e-10
7.95468e-10
7.94637e-10
7.93804e-10
7.92969e-10
7.92132e-10
7.91292e-10
7.90451e-10
7.89608e-10
7.88763e-10
7.87917e-10
7.87068e-10
7.86218e-10
7.85366e-10
7.84512e-10
7.83656e-10
7.82798e-10
7.81938e-10
7.81077e-10
7.80213e-10
7.79348e-10
7.7848e-10
7.77611e-10
7.76739e-10
7.75866e-10
7.7499e-10
7.74112e-10
7.73232e-10
7.72349e-10
7.71464e-10
7.70577e-10
7.69688e-10
7.68796e-10
7.67902e-10
7.67006e-10
7.66107e-10
7.65205e-10
7.64301e-10
7.63394e-10
7.62485e-10
7.61573e-10
7.60659e-10
7.59742e-10
7.58822e-10
7.579e-10
7.56974e-10
7.56046e-10
7.55115e-10
7.54182e-10
7.53245e-10
7.52306e-10
7.51364e-10
7.50419e-10
7.49471e-10
7.4852e-10
7.47566e-10
7.46609e-10
7.4565e-10
7.44687e-10
7.43721e-10
7.42752e-10
7.4178e-10
7.40805e-10
7.39827e-10
7.38846e-10
7.37862e-10
7.36874e-10
7.35884e-10
7.3489e-10
7.33893e-10
7.32893e-10
7.3189e-10
7.30883e-10
7.29873e-10
7.2886e-10
7.27844e-10
7.26825e-10
7.25802e-10
7.24775e-10
7.23746e-10
7.22713e-10
7.21676e-10
7.20636e-10
7.19593e-10
7.18546e-10
7.17495e-10
7.16441e-10
7.15383e-10
7.14322e-10
7.13257e-10
7.12188e-10
7.11115e-10
7.10038e-10
7.08957e-10
7.07871e-10
7.06782e-10
7.05689e-10
7.04591e-10
7.03489e-10
7.02383e-10
7.01272e-10
7.00156e-10
6.99036e-10
6.97912e-10
6.96783e-10
6.9565e-10
6.94512e-10
6.93369e-10
6.92223e-10
6.91071e-10
6.89916e-10
6.88757e-10
6.87594e-10
6.86428e-10
6.85258e-10
6.84085e-10
6.8291e-10
6.81732e-10
6.80553e-10
6.79373e-10
6.78192e-10
6.77011e-10
6.75831e-10
6.74652e-10
6.73477e-10
6.72306e-10
6.7114e-10
6.6998e-10
6.68828e-10
6.67685e-10
6.66554e-10
6.65436e-10
6.64334e-10
6.6325e-10
6.62185e-10
6.61143e-10
6.60126e-10
6.59137e-10
6.58179e-10
6.57255e-10
6.56366e-10
6.55515e-10
6.54705e-10
6.53938e-10
6.53216e-10
6.5254e-10
6.51911e-10
6.5133e-10
6.50796e-10
6.5031e-10
6.49871e-10
6.49478e-10
6.49128e-10
6.4882e-10
6.48551e-10
6.48318e-10
6.4812e-10
6.47953e-10
6.47814e-10
6.477e-10
6.47608e-10
6.47535e-10
6.47479e-10
6.47437e-10
6.47408e-10
6.47388e-10
6.47374e-10
6.47364e-10
6.47354e-10
6.47338e-10
6.47309e-10
6.47251e-10
6.47137e-10
6.46921e-10
6.4652e-10
6.45788e-10
6.44463e-10
6.42086e-10
6.37858e-10
6.30443e-10
6.17729e-10
5.96734e-10
5.64125e-10
5.18039e-10
4.61041e-10
4.0145e-10
3.49595e-10
3.11564e-10
2.87213e-10
2.7301e-10
2.65188e-10
2.6102e-10
2.58838e-10
2.57708e-10
2.57126e-10
2.56828e-10
2.56676e-10
2.56599e-10
2.56561e-10
2.56543e-10
2.56535e-10
2.56532e-10
2.56532e-10
2.56533e-10
2.56535e-10
2.56537e-10
2.5654e-10
2.56542e-10
2.56545e-10
2.56547e-10
2.56549e-10
2.56552e-10
2.56554e-10
2.56556e-10
2.56559e-10
2.56561e-10
2.56563e-10
2.56565e-10
2.56567e-10
2.56569e-10
2.56571e-10
2.56573e-10
2.56575e-10
2.56576e-10
2.56578e-10
2.5658e-10
2.56581e-10
2.56583e-10
2.56584e-10
2.56586e-10
2.56587e-10
2.56589e-10
2.5659e-10
2.56591e-10
2.56592e-10
2.56593e-10
2.56594e-10
2.56595e-10
2.56596e-10
2.56597e-10
2.56598e-10
2.56598e-10
2.56599e-10
2.566e-10
2.566e-10
2.56601e-10
2.56601e-10
2.56601e-10
2.56602e-10
2.56602e-10
2.56602e-10
2.56602e-10
2.56602e-10
2.56602e-10
2.56602e-10
2.56602e-10
2.56601e-10
2.56601e-10
2.56601e-10
)
;

boundaryField
{
    inlet
    {
        type            calculated;
        value           uniform -1.13622e-09;
    }
    outlet
    {
        type            calculated;
        value           uniform 2.566e-10;
    }
    emptyWalls
    {
        type            empty;
        value           nonuniform List<scalar> 0();
    }
}


// ************************************************************************* //
