/*--------------------------------*- C++ -*----------------------------------*\
  =========                 |
  \\      /  F ield         | OpenFOAM: The Open Source CFD Toolbox
   \\    /   O peration     | Website:  https://openfoam.org
    \\  /    A nd           | Version:  9
     \\/     M anipulation  |
\*---------------------------------------------------------------------------*/
FoamFile
{
    format      ascii;
    class       volScalarField;
    location    "108000";
    object      krc;
}
// * * * * * * * * * * * * * * * * * * * * * * * * * * * * * * * * * * * * * //

dimensions      [0 0 0 0 0 0 0];

internalField   nonuniform List<scalar> 
100
(
1.41658e-21
9.44107e-24
1.02549e-23
1.38903e-23
1.37569e-24
1.16842e-23
2.53832e-24
1.72889e-25
9.2052e-24
5.41783e-24
1.25971e-23
1.20266e-25
2.00113e-24
2.05975e-24
8.00342e-24
1.03916e-23
1.13437e-23
6.54233e-24
6.02797e-24
7.83552e-24
4.87553e-24
2.10304e-23
4.03345e-24
7.84237e-25
1.74509e-23
6.09872e-24
1.02448e-23
1.03002e-23
4.15928e-24
2.51565e-23
1.58216e-24
4.12637e-24
1.66061e-23
1.73932e-23
5.55331e-25
1.24581e-23
5.14916e-26
8.7788e-27
5.20579e-24
9.93956e-24
6.93355e-24
3.84154e-24
1.59818e-23
9.05812e-24
3.90954e-24
2.8876e-27
8.30062e-24
7.77761e-24
9.9168e-24
1.23972e-23
2.90577e-25
1.48971e-25
1.58159e-23
1.08381e-23
7.58268e-24
7.50377e-24
8.26628e-24
1.25865e-23
8.72804e-24
8.04701e-24
1.19785e-23
6.88279e-24
2.32177e-24
8.0292e-24
4.64551e-26
1.3111e-23
1.09563e-23
1.44255e-23
1.21082e-23
5.36998e-25
1.02901e-23
7.53563e-24
1.39315e-26
5.6153e-26
1.19451e-25
4.04544e-24
6.96397e-26
2.4457e-25
1.07396e-23
1.5392e-25
1.14264e-23
1.32175e-23
1.10085e-26
7.63682e-24
1.74877e-26
1.52875e-25
5.21349e-26
7.52658e-24
7.78878e-28
7.60475e-24
1.07144e-23
7.4956e-24
2.61405e-26
4.4161e-24
4.71173e-28
5.68247e-26
7.40304e-24
1.21596e-23
1.20187e-23
8.49262e-24
)
;

boundaryField
{
    inlet
    {
        type            calculated;
        value           uniform 1.41658e-21;
    }
    outlet
    {
        type            calculated;
        value           uniform 8.49262e-24;
    }
    emptyWalls
    {
        type            empty;
    }
}


// ************************************************************************* //
