/*--------------------------------*- C++ -*----------------------------------*\
  =========                 |
  \\      /  F ield         | OpenFOAM: The Open Source CFD Toolbox
   \\    /   O peration     | Website:  https://openfoam.org
    \\  /    A nd           | Version:  9
     \\/     M anipulation  |
\*---------------------------------------------------------------------------*/
FoamFile
{
    format      ascii;
    class       volScalarField;
    location    "7250";
    object      krb;
}
// * * * * * * * * * * * * * * * * * * * * * * * * * * * * * * * * * * * * * //

dimensions      [0 0 0 0 0 0 0];

internalField   nonuniform List<scalar> 
1000
(
0.0984809
0.0997264
0.101706
0.103156
0.104786
0.106084
0.107494
0.109826
0.117171
0.15781
0.379153
0.480504
0.504368
0.514412
0.520245
0.524017
0.526526
0.528276
0.529481
0.530246
0.530719
0.530868
0.530759
0.530277
0.529332
0.527711
0.525114
0.521317
0.516589
0.511457
0.506156
0.500809
0.495486
0.490226
0.485051
0.479974
0.475001
0.470134
0.465372
0.460715
0.456161
0.451707
0.44735
0.443086
0.438915
0.434832
0.430835
0.42692
0.423085
0.419327
0.415643
0.412032
0.40849
0.405015
0.401606
0.39826
0.394974
0.391748
0.388578
0.385464
0.382404
0.379395
0.376437
0.373528
0.370666
0.367849
0.365078
0.362349
0.359663
0.357018
0.354412
0.351845
0.349315
0.346822
0.344364
0.341941
0.339551
0.337195
0.33487
0.332576
0.330313
0.328079
0.325875
0.323698
0.32155
0.319428
0.317332
0.315262
0.313217
0.311196
0.3092
0.307226
0.305276
0.303348
0.301442
0.299557
0.297693
0.29585
0.294027
0.292223
0.290439
0.288673
0.286926
0.285197
0.283485
0.281791
0.280114
0.278453
0.276809
0.275181
0.273568
0.27197
0.270388
0.26882
0.267266
0.265726
0.264201
0.262689
0.26119
0.259704
0.258231
0.256771
0.255322
0.253886
0.252461
0.251047
0.249644
0.248251
0.246869
0.245497
0.244136
0.242784
0.241442
0.24011
0.238788
0.237476
0.236173
0.234881
0.233599
0.232327
0.231065
0.229814
0.228573
0.227343
0.226123
0.224914
0.223715
0.222526
0.221347
0.220178
0.219018
0.217866
0.216723
0.215588
0.214459
0.213338
0.212223
0.211114
0.21001
0.208912
0.20782
0.206732
0.20565
0.204573
0.203501
0.202434
0.201372
0.200315
0.199263
0.198217
0.197176
0.19614
0.19511
0.194084
0.193065
0.19205
0.19104
0.190036
0.189037
0.188043
0.187053
0.186069
0.185089
0.184114
0.183144
0.182178
0.181216
0.180259
0.179305
0.178356
0.177411
0.176469
0.175532
0.174598
0.173668
0.172741
0.171818
0.170898
0.169982
0.169068
0.168158
0.167252
0.166348
0.165447
0.164549
0.163654
0.162762
0.161873
0.160986
0.160102
0.15922
0.158341
0.157464
0.156589
0.155717
0.154847
0.153979
0.153113
0.152249
0.151387
0.150527
0.149668
0.148811
0.147956
0.147103
0.14625
0.145399
0.14455
0.143702
0.142854
0.142008
0.141164
0.140319
0.139476
0.138634
0.137792
0.136951
0.136111
0.135271
0.134431
0.133591
0.132752
0.131913
0.131074
0.130235
0.129396
0.128556
0.127717
0.126877
0.126036
0.125195
0.124354
0.123512
0.122669
0.121826
0.120982
0.120137
0.119291
0.118445
0.117598
0.116751
0.115904
0.115058
0.114212
0.113368
0.112527
0.11169
0.110858
0.110034
0.109221
0.10842
0.107636
0.106872
0.106134
0.105425
0.104752
0.104117
0.103524
0.102974
0.102465
0.101991
0.101535
0.101067
0.10053
0.09983
0.098802
0.0971766
0.0945425
0.090347
0.0840446
0.0754873
0.0654265
0.0555072
0.0473663
0.0416849
0.0381756
0.0361756
0.0350891
0.0345144
0.0342148
0.0340598
0.0339798
0.0339385
0.0339171
0.0339059
0.0339001
0.033897
0.0338951
0.0338939
0.0338931
0.0338925
0.033892
0.0338915
0.033891
0.0338905
0.0338901
0.0338896
0.0338892
0.0338887
0.0338884
0.033888
0.0338877
0.0338873
0.0338871
0.0338868
0.0338867
0.0338866
0.0338865
0.0338865
0.0338865
0.0338865
0.0338867
0.033887
0.0338872
0.0338876
0.033888
0.0338884
0.0338889
0.0338894
0.0338899
0.0338904
0.033891
0.0338915
0.033892
0.0338925
0.0338931
0.0338935
0.033894
0.0338944
0.0338948
0.0338952
0.0338955
0.0338958
0.0338961
0.0338963
0.0338964
0.0338966
0.0338967
0.0338967
0.0338968
0.0338968
0.0338968
0.0338967
0.0338967
0.0338966
0.0338966
0.0338965
0.0338964
0.0338963
0.0338962
0.033896
0.0338959
0.0338958
0.0338957
0.0338956
0.0338955
0.0338954
0.0338953
0.0338952
0.0338951
0.033895
0.0338949
0.0338948
0.0338948
0.0338947
0.0338946
0.0338946
0.0338945
0.0338945
0.0338945
0.0338944
0.0338944
0.0338944
0.0338944
0.0338943
0.0338943
0.0338943
0.0338943
0.0338943
0.0338943
0.0338943
0.0338943
0.0338943
0.0338943
0.0338943
0.0338944
0.0338944
0.0338944
0.0338944
0.0338944
0.0338945
0.0338945
0.0338945
0.0338945
0.0338945
0.0338945
0.0338946
0.0338946
0.0338946
0.0338947
0.0338947
0.0338947
0.0338947
0.0338948
0.0338948
0.0338948
0.0338948
0.0338949
0.0338949
0.0338949
0.033895
0.033895
0.033895
0.0338951
0.0338951
0.0338951
0.0338952
0.0338952
0.0338953
0.0338953
0.0338953
0.0338954
0.0338954
0.0338954
0.0338955
0.0338955
0.0338955
0.0338956
0.0338956
0.0338956
0.0338956
0.0338957
0.0338957
0.0338957
0.0338957
0.0338957
0.0338957
0.0338957
0.0338957
0.0338957
0.0338957
0.0338957
0.0338957
0.0338957
0.0338957
0.0338956
0.0338956
0.0338956
0.0338955
0.0338955
0.0338955
0.0338954
0.0338954
0.0338954
0.0338953
0.0338953
0.0338952
0.0338951
0.0338951
0.033895
0.033895
0.0338949
0.0338948
0.0338948
0.0338947
0.0338946
0.0338946
0.0338945
0.0338944
0.0338943
0.0338942
0.0338942
0.0338941
0.033894
0.0338939
0.0338938
0.0338937
0.0338936
0.0338935
0.0338933
0.0338932
0.0338931
0.0338929
0.0338928
0.0338926
0.0338924
0.0338922
0.033892
0.0338918
0.0338916
0.0338914
0.0338911
0.0338908
0.0338905
0.0338902
0.0338899
0.0338896
0.0338893
0.0338889
0.0338886
0.0338882
0.0338878
0.0338874
0.0338871
0.0338867
0.0338863
0.033886
0.0338856
0.0338853
0.033885
0.0338847
0.0338844
0.0338841
0.0338839
0.0338837
0.0338836
0.0338835
0.0338834
0.0338835
0.0338835
0.0338836
0.0338837
0.0338839
0.0338842
0.0338845
0.0338848
0.0338852
0.0338856
0.033886
0.0338865
0.033887
0.0338874
0.0338879
0.0338884
0.0338889
0.0338893
0.0338898
0.0338902
0.0338906
0.0338909
0.0338913
0.0338916
0.0338919
0.0338921
0.0338924
0.0338926
0.0338927
0.0338929
0.033893
0.0338931
0.0338932
0.0338932
0.0338933
0.0338933
0.0338933
0.0338933
0.0338933
0.0338933
0.0338933
0.0338932
0.0338932
0.0338932
0.0338932
0.0338931
0.0338931
0.0338931
0.0338931
0.033893
0.033893
0.033893
0.033893
0.033893
0.033893
0.0338931
0.0338931
0.0338931
0.0338932
0.0338932
0.0338932
0.0338933
0.0338934
0.0338934
0.0338935
0.0338936
0.0338936
0.0338937
0.0338938
0.0338938
0.0338939
0.033894
0.0338941
0.0338942
0.0338943
0.0338944
0.0338944
0.0338945
0.0338946
0.0338947
0.0338947
0.0338948
0.0338949
0.033895
0.0338951
0.0338951
0.0338952
0.0338953
0.0338953
0.0338954
0.0338955
0.0338955
0.0338956
0.0338956
0.0338957
0.0338958
0.0338958
0.0338959
0.0338959
0.0338959
0.033896
0.033896
0.0338961
0.0338961
0.0338961
0.0338962
0.0338962
0.0338963
0.0338963
0.0338963
0.0338964
0.0338964
0.0338964
0.0338964
0.0338965
0.0338965
0.0338965
0.0338965
0.0338965
0.0338966
0.0338966
0.0338966
0.0338966
0.0338966
0.0338966
0.0338966
0.0338966
0.0338967
0.0338967
0.0338967
0.0338966
0.0338966
0.0338966
0.0338966
0.0338966
0.0338966
0.0338965
0.0338965
0.0338965
0.0338965
0.0338964
0.0338964
0.0338963
0.0338963
0.0338963
0.0338962
0.0338961
0.0338961
0.033896
0.033896
0.0338959
0.0338958
0.0338958
0.0338957
0.0338956
0.0338955
0.0338955
0.0338954
0.0338953
0.0338952
0.0338951
0.033895
0.0338949
0.0338948
0.0338947
0.0338946
0.0338945
0.0338943
0.0338942
0.0338941
0.033894
0.0338938
0.0338937
0.0338935
0.0338933
0.0338932
0.033893
0.0338928
0.0338926
0.0338924
0.0338921
0.0338919
0.0338917
0.0338914
0.0338912
0.0338909
0.0338906
0.0338903
0.03389
0.0338897
0.0338894
0.0338891
0.0338888
0.0338884
0.0338881
0.0338878
0.0338875
0.0338872
0.0338869
0.0338866
0.0338863
0.033886
0.0338858
0.0338855
0.0338853
0.0338851
0.033885
0.0338848
0.0338847
0.0338846
0.0338845
0.0338845
0.0338845
0.0338845
0.0338846
0.0338846
0.0338847
0.0338848
0.033885
0.0338852
0.0338854
0.0338857
0.033886
0.0338862
0.0338866
0.0338869
0.0338872
0.0338875
0.0338878
0.0338882
0.0338885
0.0338888
0.0338891
0.0338894
0.0338897
0.03389
0.0338902
0.0338905
0.0338907
0.0338909
0.0338911
0.0338912
0.0338914
0.0338916
0.0338917
0.0338918
0.0338919
0.033892
0.033892
0.0338921
0.0338921
0.0338922
0.0338922
0.0338922
0.0338923
0.0338923
0.0338923
0.0338923
0.0338923
0.0338924
0.0338924
0.0338924
0.0338924
0.0338924
0.0338924
0.0338925
0.0338925
0.0338925
0.0338926
0.0338926
0.0338926
0.0338927
0.0338927
0.0338928
0.0338928
0.0338929
0.033893
0.033893
0.0338931
0.0338932
0.0338933
0.0338933
0.0338934
0.0338935
0.0338936
0.0338937
0.0338938
0.0338939
0.033894
0.033894
0.0338941
0.0338942
0.0338943
0.0338944
0.0338945
0.0338946
0.0338947
0.0338948
0.0338949
0.033895
0.033895
0.0338951
0.0338952
0.0338953
0.0338954
0.0338954
0.0338955
0.0338956
0.0338957
0.0338957
0.0338958
0.0338959
0.0338959
0.033896
0.033896
0.0338961
0.0338961
0.0338961
0.0338962
0.0338962
0.0338963
0.0338963
0.0338964
0.0338964
0.0338964
0.0338964
0.0338964
0.0338964
0.0338965
0.0338965
0.0338965
0.0338965
0.0338965
0.0338965
0.0338965
0.0338965
0.0338966
0.0338966
0.0338966
0.0338966
0.0338965
0.0338965
0.0338965
0.0338965
0.0338965
0.0338965
0.0338965
0.0338965
0.0338965
0.0338964
0.0338964
0.0338964
0.0338963
0.0338963
0.0338963
0.0338963
0.0338962
0.0338962
0.0338961
0.0338961
0.033896
0.0338959
0.0338959
0.0338958
0.0338958
0.0338957
0.0338956
0.0338956
0.0338955
0.0338954
0.0338953
0.0338952
0.0338951
0.033895
0.0338949
0.0338947
0.0338946
0.0338945
0.0338944
0.0338942
0.0338941
0.0338939
0.0338937
0.0338936
0.0338934
0.0338932
0.0338931
0.0338929
0.0338927
0.0338924
0.0338922
0.033892
0.0338918
0.0338915
0.0338913
0.033891
0.0338908
0.0338905
0.0338902
0.0338899
0.0338897
0.0338894
0.0338891
0.0338888
0.0338885
0.0338882
0.033888
0.0338877
0.0338874
0.0338871
0.0338868
0.0338866
0.0338863
0.0338861
0.0338859
0.0338857
0.0338855
0.0338853
0.0338851
0.033885
0.0338849
0.0338848
0.0338847
0.0338847
0.0338847
0.0338847
0.0338847
0.0338847
0.0338848
0.0338848
0.033885
0.0338851
0.0338853
0.0338855
0.0338858
0.033886
0.0338863
0.0338865
0.0338868
0.0338871
0.0338874
0.0338877
0.033888
0.0338883
0.0338887
0.0338889
0.0338893
0.0338895
0.0338898
0.0338901
0.0338904
0.0338906
0.0338909
0.0338911
0.0338913
0.0338915
0.0338917
0.0338918
0.033892
0.0338921
0.0338922
0.0338924
)
;

boundaryField
{
    inlet
    {
        type            calculated;
        value           uniform 0.0976562;
    }
    outlet
    {
        type            calculated;
        value           uniform 0.0338924;
    }
    emptyWalls
    {
        type            empty;
    }
}


// ************************************************************************* //
