/*--------------------------------*- C++ -*----------------------------------*\
  =========                 |
  \\      /  F ield         | OpenFOAM: The Open Source CFD Toolbox
   \\    /   O peration     | Website:  https://openfoam.org
    \\  /    A nd           | Version:  9
     \\/     M anipulation  |
\*---------------------------------------------------------------------------*/
FoamFile
{
    format      ascii;
    class       volVectorField;
    location    "7250";
    object      Uc;
}
// * * * * * * * * * * * * * * * * * * * * * * * * * * * * * * * * * * * * * //

dimensions      [0 0 0 0 0 0 0];

internalField   nonuniform List<vector> 
1000
(
(6.49558e-11 0 0)
(3.56355e-10 0 0)
(9.25058e-10 0 0)
(1.69023e-09 0 0)
(2.57564e-09 0 0)
(3.53579e-09 0 0)
(4.80716e-09 0 0)
(8.02995e-09 0 0)
(1.85978e-08 0 0)
(6.80515e-08 0 0)
(1.53249e-07 0 0)
(2.05441e-07 0 0)
(2.17371e-07 0 0)
(2.23367e-07 0 0)
(2.277e-07 0 0)
(2.31308e-07 0 0)
(2.345e-07 0 0)
(2.37421e-07 0 0)
(2.40133e-07 0 0)
(2.42711e-07 0 0)
(2.45247e-07 0 0)
(2.47849e-07 0 0)
(2.50732e-07 0 0)
(2.54112e-07 0 0)
(2.58165e-07 0 0)
(2.63238e-07 0 0)
(2.69781e-07 0 0)
(2.78066e-07 0 0)
(2.8797e-07 0 0)
(2.99085e-07 0 0)
(3.11016e-07 0 0)
(3.23508e-07 0 0)
(3.36405e-07 0 0)
(3.49607e-07 0 0)
(3.6305e-07 0 0)
(3.76691e-07 0 0)
(3.90499e-07 0 0)
(4.04452e-07 0 0)
(4.18532e-07 0 0)
(4.32729e-07 0 0)
(4.47032e-07 0 0)
(4.61433e-07 0 0)
(4.75927e-07 0 0)
(4.90508e-07 0 0)
(5.05172e-07 0 0)
(5.19913e-07 0 0)
(5.34731e-07 0 0)
(5.4962e-07 0 0)
(5.6458e-07 0 0)
(5.79608e-07 0 0)
(5.94701e-07 0 0)
(6.09859e-07 0 0)
(6.25077e-07 0 0)
(6.40356e-07 0 0)
(6.55694e-07 0 0)
(6.7109e-07 0 0)
(6.86541e-07 0 0)
(7.02047e-07 0 0)
(7.17608e-07 0 0)
(7.33221e-07 0 0)
(7.48886e-07 0 0)
(7.64601e-07 0 0)
(7.80366e-07 0 0)
(7.9618e-07 0 0)
(8.12042e-07 0 0)
(8.27951e-07 0 0)
(8.43907e-07 0 0)
(8.59908e-07 0 0)
(8.75954e-07 0 0)
(8.92045e-07 0 0)
(9.08179e-07 0 0)
(9.24357e-07 0 0)
(9.40576e-07 0 0)
(9.56838e-07 0 0)
(9.73142e-07 0 0)
(9.89487e-07 0 0)
(1.00587e-06 0 0)
(1.0223e-06 0 0)
(1.03877e-06 0 0)
(1.05528e-06 0 0)
(1.07183e-06 0 0)
(1.08841e-06 0 0)
(1.10504e-06 0 0)
(1.12171e-06 0 0)
(1.13842e-06 0 0)
(1.15517e-06 0 0)
(1.17195e-06 0 0)
(1.18878e-06 0 0)
(1.20564e-06 0 0)
(1.22255e-06 0 0)
(1.23949e-06 0 0)
(1.25647e-06 0 0)
(1.2735e-06 0 0)
(1.29056e-06 0 0)
(1.30766e-06 0 0)
(1.3248e-06 0 0)
(1.34198e-06 0 0)
(1.3592e-06 0 0)
(1.37645e-06 0 0)
(1.39375e-06 0 0)
(1.41109e-06 0 0)
(1.42846e-06 0 0)
(1.44588e-06 0 0)
(1.46333e-06 0 0)
(1.48082e-06 0 0)
(1.49836e-06 0 0)
(1.51593e-06 0 0)
(1.53355e-06 0 0)
(1.5512e-06 0 0)
(1.5689e-06 0 0)
(1.58663e-06 0 0)
(1.6044e-06 0 0)
(1.62221e-06 0 0)
(1.64005e-06 0 0)
(1.65794e-06 0 0)
(1.67586e-06 0 0)
(1.69382e-06 0 0)
(1.71182e-06 0 0)
(1.72986e-06 0 0)
(1.74793e-06 0 0)
(1.76605e-06 0 0)
(1.78419e-06 0 0)
(1.80238e-06 0 0)
(1.82059e-06 0 0)
(1.83883e-06 0 0)
(1.8571e-06 0 0)
(1.87539e-06 0 0)
(1.8937e-06 0 0)
(1.91203e-06 0 0)
(1.93038e-06 0 0)
(1.94875e-06 0 0)
(1.96715e-06 0 0)
(1.98556e-06 0 0)
(2.004e-06 0 0)
(2.02248e-06 0 0)
(2.04098e-06 0 0)
(2.05953e-06 0 0)
(2.07813e-06 0 0)
(2.09679e-06 0 0)
(2.11551e-06 0 0)
(2.13431e-06 0 0)
(2.15318e-06 0 0)
(2.17216e-06 0 0)
(2.19123e-06 0 0)
(2.21041e-06 0 0)
(2.22971e-06 0 0)
(2.24913e-06 0 0)
(2.26866e-06 0 0)
(2.28831e-06 0 0)
(2.30808e-06 0 0)
(2.32796e-06 0 0)
(2.34794e-06 0 0)
(2.36801e-06 0 0)
(2.38817e-06 0 0)
(2.40839e-06 0 0)
(2.42867e-06 0 0)
(2.449e-06 0 0)
(2.46937e-06 0 0)
(2.48977e-06 0 0)
(2.51019e-06 0 0)
(2.53063e-06 0 0)
(2.55109e-06 0 0)
(2.57157e-06 0 0)
(2.59206e-06 0 0)
(2.61258e-06 0 0)
(2.63312e-06 0 0)
(2.65369e-06 0 0)
(2.6743e-06 0 0)
(2.69494e-06 0 0)
(2.71563e-06 0 0)
(2.73637e-06 0 0)
(2.75716e-06 0 0)
(2.77802e-06 0 0)
(2.79894e-06 0 0)
(2.81993e-06 0 0)
(2.84099e-06 0 0)
(2.86213e-06 0 0)
(2.88334e-06 0 0)
(2.90464e-06 0 0)
(2.92601e-06 0 0)
(2.94747e-06 0 0)
(2.96901e-06 0 0)
(2.99064e-06 0 0)
(3.01234e-06 0 0)
(3.03414e-06 0 0)
(3.05601e-06 0 0)
(3.07798e-06 0 0)
(3.10002e-06 0 0)
(3.12216e-06 0 0)
(3.14437e-06 0 0)
(3.16668e-06 0 0)
(3.18907e-06 0 0)
(3.21155e-06 0 0)
(3.23411e-06 0 0)
(3.25677e-06 0 0)
(3.27951e-06 0 0)
(3.30234e-06 0 0)
(3.32527e-06 0 0)
(3.34828e-06 0 0)
(3.37139e-06 0 0)
(3.3946e-06 0 0)
(3.4179e-06 0 0)
(3.4413e-06 0 0)
(3.46479e-06 0 0)
(3.48839e-06 0 0)
(3.51208e-06 0 0)
(3.53588e-06 0 0)
(3.55979e-06 0 0)
(3.5838e-06 0 0)
(3.60792e-06 0 0)
(3.63215e-06 0 0)
(3.65649e-06 0 0)
(3.68095e-06 0 0)
(3.70552e-06 0 0)
(3.73021e-06 0 0)
(3.75502e-06 0 0)
(3.77995e-06 0 0)
(3.805e-06 0 0)
(3.83018e-06 0 0)
(3.85549e-06 0 0)
(3.88093e-06 0 0)
(3.9065e-06 0 0)
(3.93221e-06 0 0)
(3.95805e-06 0 0)
(3.98404e-06 0 0)
(4.01016e-06 0 0)
(4.03643e-06 0 0)
(4.06285e-06 0 0)
(4.08942e-06 0 0)
(4.11614e-06 0 0)
(4.14301e-06 0 0)
(4.17004e-06 0 0)
(4.19723e-06 0 0)
(4.22459e-06 0 0)
(4.2521e-06 0 0)
(4.27979e-06 0 0)
(4.30766e-06 0 0)
(4.3357e-06 0 0)
(4.36392e-06 0 0)
(4.39233e-06 0 0)
(4.42093e-06 0 0)
(4.44972e-06 0 0)
(4.4787e-06 0 0)
(4.50788e-06 0 0)
(4.53727e-06 0 0)
(4.56687e-06 0 0)
(4.59668e-06 0 0)
(4.62672e-06 0 0)
(4.65698e-06 0 0)
(4.68747e-06 0 0)
(4.7182e-06 0 0)
(4.74916e-06 0 0)
(4.78037e-06 0 0)
(4.81182e-06 0 0)
(4.84352e-06 0 0)
(4.87548e-06 0 0)
(4.9077e-06 0 0)
(4.94018e-06 0 0)
(4.97291e-06 0 0)
(5.0059e-06 0 0)
(5.03914e-06 0 0)
(5.07261e-06 0 0)
(5.10631e-06 0 0)
(5.14021e-06 0 0)
(5.17429e-06 0 0)
(5.20851e-06 0 0)
(5.2428e-06 0 0)
(5.2771e-06 0 0)
(5.31131e-06 0 0)
(5.34534e-06 0 0)
(5.37905e-06 0 0)
(5.41227e-06 0 0)
(5.44482e-06 0 0)
(5.47649e-06 0 0)
(5.50705e-06 0 0)
(5.53629e-06 0 0)
(5.56399e-06 0 0)
(5.59001e-06 0 0)
(5.61428e-06 0 0)
(5.63687e-06 0 0)
(5.65813e-06 0 0)
(5.67881e-06 0 0)
(5.70042e-06 0 0)
(5.72565e-06 0 0)
(5.75926e-06 0 0)
(5.80941e-06 0 0)
(5.88963e-06 0 0)
(6.02105e-06 0 0)
(6.23303e-06 0 0)
(6.55776e-06 0 0)
(7.01277e-06 0 0)
(7.57442e-06 0 0)
(8.1668e-06 0 0)
(8.69307e-06 0 0)
(9.08983e-06 0 0)
(9.35055e-06 0 0)
(9.50547e-06 0 0)
(9.59168e-06 0 0)
(9.63769e-06 0 0)
(9.66161e-06 0 0)
(9.67379e-06 0 0)
(9.67978e-06 0 0)
(9.68254e-06 0 0)
(9.68363e-06 0 0)
(9.68384e-06 0 0)
(9.68356e-06 0 0)
(9.68303e-06 0 0)
(9.68235e-06 0 0)
(9.68157e-06 0 0)
(9.68073e-06 0 0)
(9.67984e-06 0 0)
(9.67892e-06 0 0)
(9.67799e-06 0 0)
(9.67703e-06 0 0)
(9.67607e-06 0 0)
(9.67512e-06 0 0)
(9.67418e-06 0 0)
(9.67326e-06 0 0)
(9.67237e-06 0 0)
(9.67153e-06 0 0)
(9.67074e-06 0 0)
(9.67001e-06 0 0)
(9.66935e-06 0 0)
(9.66879e-06 0 0)
(9.66832e-06 0 0)
(9.66798e-06 0 0)
(9.66776e-06 0 0)
(9.66766e-06 0 0)
(9.66763e-06 0 0)
(9.66764e-06 0 0)
(9.66773e-06 0 0)
(9.66806e-06 0 0)
(9.66859e-06 0 0)
(9.66921e-06 0 0)
(9.66993e-06 0 0)
(9.67074e-06 0 0)
(9.67164e-06 0 0)
(9.67261e-06 0 0)
(9.67364e-06 0 0)
(9.67472e-06 0 0)
(9.67584e-06 0 0)
(9.67697e-06 0 0)
(9.67811e-06 0 0)
(9.67924e-06 0 0)
(9.68034e-06 0 0)
(9.68141e-06 0 0)
(9.68243e-06 0 0)
(9.68339e-06 0 0)
(9.6843e-06 0 0)
(9.68513e-06 0 0)
(9.68589e-06 0 0)
(9.68657e-06 0 0)
(9.68718e-06 0 0)
(9.68771e-06 0 0)
(9.68817e-06 0 0)
(9.68855e-06 0 0)
(9.68887e-06 0 0)
(9.68912e-06 0 0)
(9.68932e-06 0 0)
(9.68947e-06 0 0)
(9.68957e-06 0 0)
(9.68963e-06 0 0)
(9.68967e-06 0 0)
(9.68968e-06 0 0)
(9.68968e-06 0 0)
(9.68967e-06 0 0)
(9.68963e-06 0 0)
(9.68957e-06 0 0)
(9.68951e-06 0 0)
(9.68946e-06 0 0)
(9.68941e-06 0 0)
(9.68937e-06 0 0)
(9.68935e-06 0 0)
(9.68933e-06 0 0)
(9.68933e-06 0 0)
(9.68934e-06 0 0)
(9.68935e-06 0 0)
(9.68937e-06 0 0)
(9.68942e-06 0 0)
(9.68949e-06 0 0)
(9.68958e-06 0 0)
(9.68968e-06 0 0)
(9.6898e-06 0 0)
(9.68992e-06 0 0)
(9.69006e-06 0 0)
(9.69021e-06 0 0)
(9.69037e-06 0 0)
(9.69054e-06 0 0)
(9.69072e-06 0 0)
(9.6909e-06 0 0)
(9.69109e-06 0 0)
(9.69128e-06 0 0)
(9.69148e-06 0 0)
(9.69168e-06 0 0)
(9.69188e-06 0 0)
(9.69209e-06 0 0)
(9.6923e-06 0 0)
(9.6925e-06 0 0)
(9.69271e-06 0 0)
(9.69291e-06 0 0)
(9.69312e-06 0 0)
(9.69332e-06 0 0)
(9.69351e-06 0 0)
(9.69371e-06 0 0)
(9.6939e-06 0 0)
(9.69409e-06 0 0)
(9.69427e-06 0 0)
(9.69445e-06 0 0)
(9.69462e-06 0 0)
(9.69479e-06 0 0)
(9.69495e-06 0 0)
(9.69511e-06 0 0)
(9.69526e-06 0 0)
(9.69541e-06 0 0)
(9.69555e-06 0 0)
(9.69569e-06 0 0)
(9.69582e-06 0 0)
(9.69595e-06 0 0)
(9.69607e-06 0 0)
(9.69619e-06 0 0)
(9.6963e-06 0 0)
(9.69641e-06 0 0)
(9.69651e-06 0 0)
(9.69661e-06 0 0)
(9.69671e-06 0 0)
(9.6968e-06 0 0)
(9.69689e-06 0 0)
(9.69697e-06 0 0)
(9.69705e-06 0 0)
(9.69713e-06 0 0)
(9.6972e-06 0 0)
(9.69727e-06 0 0)
(9.69734e-06 0 0)
(9.6974e-06 0 0)
(9.69746e-06 0 0)
(9.69752e-06 0 0)
(9.69757e-06 0 0)
(9.69762e-06 0 0)
(9.69766e-06 0 0)
(9.6977e-06 0 0)
(9.69774e-06 0 0)
(9.69777e-06 0 0)
(9.6978e-06 0 0)
(9.69782e-06 0 0)
(9.69784e-06 0 0)
(9.69785e-06 0 0)
(9.69785e-06 0 0)
(9.69785e-06 0 0)
(9.69785e-06 0 0)
(9.69785e-06 0 0)
(9.69784e-06 0 0)
(9.69781e-06 0 0)
(9.69778e-06 0 0)
(9.69775e-06 0 0)
(9.6977e-06 0 0)
(9.69766e-06 0 0)
(9.6976e-06 0 0)
(9.69754e-06 0 0)
(9.69747e-06 0 0)
(9.69739e-06 0 0)
(9.69731e-06 0 0)
(9.69722e-06 0 0)
(9.69713e-06 0 0)
(9.69703e-06 0 0)
(9.69693e-06 0 0)
(9.69682e-06 0 0)
(9.69671e-06 0 0)
(9.69659e-06 0 0)
(9.69647e-06 0 0)
(9.69635e-06 0 0)
(9.69622e-06 0 0)
(9.69609e-06 0 0)
(9.69596e-06 0 0)
(9.69582e-06 0 0)
(9.69568e-06 0 0)
(9.69554e-06 0 0)
(9.6954e-06 0 0)
(9.69526e-06 0 0)
(9.69512e-06 0 0)
(9.69497e-06 0 0)
(9.69482e-06 0 0)
(9.69468e-06 0 0)
(9.69453e-06 0 0)
(9.69438e-06 0 0)
(9.69422e-06 0 0)
(9.69407e-06 0 0)
(9.69391e-06 0 0)
(9.69375e-06 0 0)
(9.69359e-06 0 0)
(9.69342e-06 0 0)
(9.69325e-06 0 0)
(9.69307e-06 0 0)
(9.69289e-06 0 0)
(9.6927e-06 0 0)
(9.69251e-06 0 0)
(9.6923e-06 0 0)
(9.69209e-06 0 0)
(9.69186e-06 0 0)
(9.69162e-06 0 0)
(9.69137e-06 0 0)
(9.69111e-06 0 0)
(9.69082e-06 0 0)
(9.69052e-06 0 0)
(9.6902e-06 0 0)
(9.68986e-06 0 0)
(9.68949e-06 0 0)
(9.6891e-06 0 0)
(9.68869e-06 0 0)
(9.68825e-06 0 0)
(9.68778e-06 0 0)
(9.68728e-06 0 0)
(9.68676e-06 0 0)
(9.68621e-06 0 0)
(9.68563e-06 0 0)
(9.68502e-06 0 0)
(9.68439e-06 0 0)
(9.68373e-06 0 0)
(9.68305e-06 0 0)
(9.68235e-06 0 0)
(9.68163e-06 0 0)
(9.6809e-06 0 0)
(9.68015e-06 0 0)
(9.67941e-06 0 0)
(9.67866e-06 0 0)
(9.67792e-06 0 0)
(9.67719e-06 0 0)
(9.67648e-06 0 0)
(9.67579e-06 0 0)
(9.67513e-06 0 0)
(9.6745e-06 0 0)
(9.67392e-06 0 0)
(9.67339e-06 0 0)
(9.67292e-06 0 0)
(9.67251e-06 0 0)
(9.67217e-06 0 0)
(9.6719e-06 0 0)
(9.67171e-06 0 0)
(9.67161e-06 0 0)
(9.67156e-06 0 0)
(9.67155e-06 0 0)
(9.67157e-06 0 0)
(9.67171e-06 0 0)
(9.67201e-06 0 0)
(9.6724e-06 0 0)
(9.67288e-06 0 0)
(9.67343e-06 0 0)
(9.67406e-06 0 0)
(9.67474e-06 0 0)
(9.67548e-06 0 0)
(9.67626e-06 0 0)
(9.67708e-06 0 0)
(9.67793e-06 0 0)
(9.67879e-06 0 0)
(9.67966e-06 0 0)
(9.68052e-06 0 0)
(9.68138e-06 0 0)
(9.68222e-06 0 0)
(9.68303e-06 0 0)
(9.68381e-06 0 0)
(9.68454e-06 0 0)
(9.68524e-06 0 0)
(9.68588e-06 0 0)
(9.68648e-06 0 0)
(9.68703e-06 0 0)
(9.68752e-06 0 0)
(9.68796e-06 0 0)
(9.68835e-06 0 0)
(9.68869e-06 0 0)
(9.68898e-06 0 0)
(9.68922e-06 0 0)
(9.68943e-06 0 0)
(9.6896e-06 0 0)
(9.68973e-06 0 0)
(9.68983e-06 0 0)
(9.6899e-06 0 0)
(9.68995e-06 0 0)
(9.68998e-06 0 0)
(9.69e-06 0 0)
(9.69001e-06 0 0)
(9.69001e-06 0 0)
(9.69e-06 0 0)
(9.68998e-06 0 0)
(9.68996e-06 0 0)
(9.68994e-06 0 0)
(9.68992e-06 0 0)
(9.68991e-06 0 0)
(9.6899e-06 0 0)
(9.6899e-06 0 0)
(9.68991e-06 0 0)
(9.68992e-06 0 0)
(9.68994e-06 0 0)
(9.68999e-06 0 0)
(9.69005e-06 0 0)
(9.69012e-06 0 0)
(9.6902e-06 0 0)
(9.69029e-06 0 0)
(9.6904e-06 0 0)
(9.69052e-06 0 0)
(9.69064e-06 0 0)
(9.69078e-06 0 0)
(9.69092e-06 0 0)
(9.69108e-06 0 0)
(9.69124e-06 0 0)
(9.69141e-06 0 0)
(9.69158e-06 0 0)
(9.69177e-06 0 0)
(9.69195e-06 0 0)
(9.69214e-06 0 0)
(9.69233e-06 0 0)
(9.69253e-06 0 0)
(9.69272e-06 0 0)
(9.69292e-06 0 0)
(9.69312e-06 0 0)
(9.69332e-06 0 0)
(9.69352e-06 0 0)
(9.69371e-06 0 0)
(9.69391e-06 0 0)
(9.6941e-06 0 0)
(9.69429e-06 0 0)
(9.69448e-06 0 0)
(9.69466e-06 0 0)
(9.69484e-06 0 0)
(9.69502e-06 0 0)
(9.69519e-06 0 0)
(9.69536e-06 0 0)
(9.69552e-06 0 0)
(9.69568e-06 0 0)
(9.69583e-06 0 0)
(9.69598e-06 0 0)
(9.69612e-06 0 0)
(9.69626e-06 0 0)
(9.69639e-06 0 0)
(9.69652e-06 0 0)
(9.69664e-06 0 0)
(9.69676e-06 0 0)
(9.69687e-06 0 0)
(9.69698e-06 0 0)
(9.69708e-06 0 0)
(9.69718e-06 0 0)
(9.69728e-06 0 0)
(9.69737e-06 0 0)
(9.69745e-06 0 0)
(9.69754e-06 0 0)
(9.69762e-06 0 0)
(9.69769e-06 0 0)
(9.69776e-06 0 0)
(9.69783e-06 0 0)
(9.6979e-06 0 0)
(9.69796e-06 0 0)
(9.69802e-06 0 0)
(9.69807e-06 0 0)
(9.69812e-06 0 0)
(9.69817e-06 0 0)
(9.69822e-06 0 0)
(9.69826e-06 0 0)
(9.6983e-06 0 0)
(9.69834e-06 0 0)
(9.69837e-06 0 0)
(9.69839e-06 0 0)
(9.69842e-06 0 0)
(9.69844e-06 0 0)
(9.69845e-06 0 0)
(9.69846e-06 0 0)
(9.69847e-06 0 0)
(9.69847e-06 0 0)
(9.69847e-06 0 0)
(9.69847e-06 0 0)
(9.69846e-06 0 0)
(9.69845e-06 0 0)
(9.69842e-06 0 0)
(9.69839e-06 0 0)
(9.69836e-06 0 0)
(9.69832e-06 0 0)
(9.69827e-06 0 0)
(9.69822e-06 0 0)
(9.69816e-06 0 0)
(9.69809e-06 0 0)
(9.69802e-06 0 0)
(9.69794e-06 0 0)
(9.69786e-06 0 0)
(9.69777e-06 0 0)
(9.69767e-06 0 0)
(9.69757e-06 0 0)
(9.69746e-06 0 0)
(9.69734e-06 0 0)
(9.69722e-06 0 0)
(9.6971e-06 0 0)
(9.69697e-06 0 0)
(9.69683e-06 0 0)
(9.69669e-06 0 0)
(9.69654e-06 0 0)
(9.69638e-06 0 0)
(9.69622e-06 0 0)
(9.69606e-06 0 0)
(9.69589e-06 0 0)
(9.69571e-06 0 0)
(9.69553e-06 0 0)
(9.69534e-06 0 0)
(9.69514e-06 0 0)
(9.69494e-06 0 0)
(9.69473e-06 0 0)
(9.69451e-06 0 0)
(9.69429e-06 0 0)
(9.69405e-06 0 0)
(9.69381e-06 0 0)
(9.69356e-06 0 0)
(9.69329e-06 0 0)
(9.69302e-06 0 0)
(9.69273e-06 0 0)
(9.69243e-06 0 0)
(9.69211e-06 0 0)
(9.69178e-06 0 0)
(9.69143e-06 0 0)
(9.69107e-06 0 0)
(9.69069e-06 0 0)
(9.69029e-06 0 0)
(9.68987e-06 0 0)
(9.68943e-06 0 0)
(9.68897e-06 0 0)
(9.68849e-06 0 0)
(9.688e-06 0 0)
(9.68748e-06 0 0)
(9.68694e-06 0 0)
(9.68638e-06 0 0)
(9.6858e-06 0 0)
(9.68521e-06 0 0)
(9.68459e-06 0 0)
(9.68397e-06 0 0)
(9.68333e-06 0 0)
(9.68267e-06 0 0)
(9.68201e-06 0 0)
(9.68135e-06 0 0)
(9.68068e-06 0 0)
(9.68001e-06 0 0)
(9.67934e-06 0 0)
(9.67868e-06 0 0)
(9.67803e-06 0 0)
(9.6774e-06 0 0)
(9.67679e-06 0 0)
(9.6762e-06 0 0)
(9.67564e-06 0 0)
(9.67511e-06 0 0)
(9.67462e-06 0 0)
(9.67417e-06 0 0)
(9.67377e-06 0 0)
(9.67342e-06 0 0)
(9.67312e-06 0 0)
(9.67288e-06 0 0)
(9.6727e-06 0 0)
(9.67259e-06 0 0)
(9.67253e-06 0 0)
(9.67252e-06 0 0)
(9.67252e-06 0 0)
(9.67256e-06 0 0)
(9.67273e-06 0 0)
(9.67301e-06 0 0)
(9.67334e-06 0 0)
(9.67373e-06 0 0)
(9.67417e-06 0 0)
(9.67467e-06 0 0)
(9.67521e-06 0 0)
(9.67579e-06 0 0)
(9.67641e-06 0 0)
(9.67705e-06 0 0)
(9.67771e-06 0 0)
(9.67839e-06 0 0)
(9.67908e-06 0 0)
(9.67977e-06 0 0)
(9.68045e-06 0 0)
(9.68113e-06 0 0)
(9.68179e-06 0 0)
(9.68243e-06 0 0)
(9.68304e-06 0 0)
(9.68363e-06 0 0)
(9.68419e-06 0 0)
(9.68472e-06 0 0)
(9.68521e-06 0 0)
(9.68567e-06 0 0)
(9.68609e-06 0 0)
(9.68647e-06 0 0)
(9.68682e-06 0 0)
(9.68714e-06 0 0)
(9.68742e-06 0 0)
(9.68767e-06 0 0)
(9.68789e-06 0 0)
(9.68809e-06 0 0)
(9.68826e-06 0 0)
(9.6884e-06 0 0)
(9.68852e-06 0 0)
(9.68863e-06 0 0)
(9.68872e-06 0 0)
(9.6888e-06 0 0)
(9.68886e-06 0 0)
(9.68892e-06 0 0)
(9.68897e-06 0 0)
(9.68901e-06 0 0)
(9.68905e-06 0 0)
(9.68909e-06 0 0)
(9.68913e-06 0 0)
(9.68917e-06 0 0)
(9.68921e-06 0 0)
(9.68926e-06 0 0)
(9.68931e-06 0 0)
(9.68937e-06 0 0)
(9.68943e-06 0 0)
(9.6895e-06 0 0)
(9.68958e-06 0 0)
(9.68967e-06 0 0)
(9.68976e-06 0 0)
(9.68986e-06 0 0)
(9.68997e-06 0 0)
(9.69009e-06 0 0)
(9.69021e-06 0 0)
(9.69034e-06 0 0)
(9.69048e-06 0 0)
(9.69063e-06 0 0)
(9.69078e-06 0 0)
(9.69093e-06 0 0)
(9.6911e-06 0 0)
(9.69127e-06 0 0)
(9.69144e-06 0 0)
(9.69162e-06 0 0)
(9.6918e-06 0 0)
(9.69198e-06 0 0)
(9.69217e-06 0 0)
(9.69235e-06 0 0)
(9.69255e-06 0 0)
(9.69274e-06 0 0)
(9.69293e-06 0 0)
(9.69313e-06 0 0)
(9.69332e-06 0 0)
(9.69352e-06 0 0)
(9.69371e-06 0 0)
(9.6939e-06 0 0)
(9.69409e-06 0 0)
(9.69428e-06 0 0)
(9.69446e-06 0 0)
(9.69465e-06 0 0)
(9.69483e-06 0 0)
(9.695e-06 0 0)
(9.69518e-06 0 0)
(9.69535e-06 0 0)
(9.69551e-06 0 0)
(9.69567e-06 0 0)
(9.69582e-06 0 0)
(9.69597e-06 0 0)
(9.69612e-06 0 0)
(9.69626e-06 0 0)
(9.69639e-06 0 0)
(9.69652e-06 0 0)
(9.69664e-06 0 0)
(9.69676e-06 0 0)
(9.69687e-06 0 0)
(9.69698e-06 0 0)
(9.69708e-06 0 0)
(9.69717e-06 0 0)
(9.69726e-06 0 0)
(9.69734e-06 0 0)
(9.69742e-06 0 0)
(9.69749e-06 0 0)
(9.69756e-06 0 0)
(9.69762e-06 0 0)
(9.69768e-06 0 0)
(9.69773e-06 0 0)
(9.69778e-06 0 0)
(9.69782e-06 0 0)
(9.69786e-06 0 0)
(9.69789e-06 0 0)
(9.69792e-06 0 0)
(9.69795e-06 0 0)
(9.69797e-06 0 0)
(9.69799e-06 0 0)
(9.698e-06 0 0)
(9.69801e-06 0 0)
(9.69802e-06 0 0)
(9.69802e-06 0 0)
(9.69802e-06 0 0)
(9.69802e-06 0 0)
(9.69802e-06 0 0)
(9.69801e-06 0 0)
(9.698e-06 0 0)
(9.69798e-06 0 0)
(9.69796e-06 0 0)
(9.69793e-06 0 0)
(9.6979e-06 0 0)
(9.69786e-06 0 0)
(9.69782e-06 0 0)
(9.69778e-06 0 0)
(9.69773e-06 0 0)
(9.69767e-06 0 0)
(9.69761e-06 0 0)
(9.69754e-06 0 0)
(9.69747e-06 0 0)
(9.69739e-06 0 0)
(9.6973e-06 0 0)
(9.69721e-06 0 0)
(9.69712e-06 0 0)
(9.69701e-06 0 0)
(9.6969e-06 0 0)
(9.69678e-06 0 0)
(9.69665e-06 0 0)
(9.69651e-06 0 0)
(9.69636e-06 0 0)
(9.69621e-06 0 0)
(9.69605e-06 0 0)
(9.69588e-06 0 0)
(9.6957e-06 0 0)
(9.69551e-06 0 0)
(9.69531e-06 0 0)
(9.6951e-06 0 0)
(9.69489e-06 0 0)
(9.69466e-06 0 0)
(9.69442e-06 0 0)
(9.69417e-06 0 0)
(9.6939e-06 0 0)
(9.69363e-06 0 0)
(9.69334e-06 0 0)
(9.69304e-06 0 0)
(9.69273e-06 0 0)
(9.69241e-06 0 0)
(9.69207e-06 0 0)
(9.69172e-06 0 0)
(9.69135e-06 0 0)
(9.69097e-06 0 0)
(9.69057e-06 0 0)
(9.69016e-06 0 0)
(9.68974e-06 0 0)
(9.68929e-06 0 0)
(9.68884e-06 0 0)
(9.68836e-06 0 0)
(9.68787e-06 0 0)
(9.68737e-06 0 0)
(9.68685e-06 0 0)
(9.68632e-06 0 0)
(9.68577e-06 0 0)
(9.68521e-06 0 0)
(9.68464e-06 0 0)
(9.68405e-06 0 0)
(9.68346e-06 0 0)
(9.68286e-06 0 0)
(9.68225e-06 0 0)
(9.68164e-06 0 0)
(9.68103e-06 0 0)
(9.68041e-06 0 0)
(9.6798e-06 0 0)
(9.67919e-06 0 0)
(9.67859e-06 0 0)
(9.678e-06 0 0)
(9.67742e-06 0 0)
(9.67686e-06 0 0)
(9.67632e-06 0 0)
(9.6758e-06 0 0)
(9.6753e-06 0 0)
(9.67484e-06 0 0)
(9.67441e-06 0 0)
(9.67402e-06 0 0)
(9.67367e-06 0 0)
(9.67336e-06 0 0)
(9.67309e-06 0 0)
(9.67287e-06 0 0)
(9.67271e-06 0 0)
(9.6726e-06 0 0)
(9.67254e-06 0 0)
(9.67252e-06 0 0)
(9.67251e-06 0 0)
(9.67254e-06 0 0)
(9.67265e-06 0 0)
(9.67286e-06 0 0)
(9.67313e-06 0 0)
(9.67346e-06 0 0)
(9.67383e-06 0 0)
(9.67425e-06 0 0)
(9.67472e-06 0 0)
(9.67523e-06 0 0)
(9.67577e-06 0 0)
(9.67635e-06 0 0)
(9.67695e-06 0 0)
(9.67757e-06 0 0)
(9.67821e-06 0 0)
(9.67887e-06 0 0)
(9.67953e-06 0 0)
(9.68019e-06 0 0)
(9.68085e-06 0 0)
(9.68151e-06 0 0)
(9.68215e-06 0 0)
(9.68278e-06 0 0)
(9.68339e-06 0 0)
(9.68398e-06 0 0)
(9.68454e-06 0 0)
(9.68509e-06 0 0)
(9.6856e-06 0 0)
(9.68609e-06 0 0)
(9.68655e-06 0 0)
(9.68698e-06 0 0)
(9.68738e-06 0 0)
(9.68775e-06 0 0)
(9.6881e-06 0 0)
(9.68841e-06 0 0)
(9.68871e-06 0 0)
(9.68898e-06 0 0)
)
;

boundaryField
{
    inlet
    {
        type            fixedValue;
        value           uniform (0 0 0);
    }
    outlet
    {
        type            zeroGradient;
    }
    emptyWalls
    {
        type            empty;
    }
}


// ************************************************************************* //
