/*--------------------------------*- C++ -*----------------------------------*\
  =========                 |
  \\      /  F ield         | OpenFOAM: The Open Source CFD Toolbox
   \\    /   O peration     | Website:  https://openfoam.org
    \\  /    A nd           | Version:  9
     \\/     M anipulation  |
\*---------------------------------------------------------------------------*/
FoamFile
{
    format      ascii;
    class       volScalarField;
    location    "121999.999999";
    object      p;
}
// * * * * * * * * * * * * * * * * * * * * * * * * * * * * * * * * * * * * * //

dimensions      [0 0 0 0 0 0 0];

internalField   nonuniform List<scalar> 
100
(
3.61443e+06
3.57811e+06
3.54178e+06
3.50545e+06
3.46912e+06
3.43279e+06
3.39647e+06
3.36014e+06
3.32381e+06
3.28748e+06
3.25116e+06
3.21483e+06
3.1785e+06
3.14217e+06
3.10584e+06
3.06952e+06
3.03319e+06
2.99686e+06
2.96053e+06
2.92421e+06
2.88788e+06
2.85155e+06
2.81522e+06
2.77889e+06
2.74257e+06
2.70624e+06
2.66991e+06
2.63358e+06
2.59726e+06
2.56093e+06
2.5246e+06
2.48827e+06
2.45194e+06
2.41562e+06
2.37929e+06
2.34296e+06
2.30663e+06
2.27031e+06
2.23398e+06
2.19765e+06
2.16132e+06
2.125e+06
2.08867e+06
2.05234e+06
2.01601e+06
1.97968e+06
1.94336e+06
1.90703e+06
1.8707e+06
1.83437e+06
1.79805e+06
1.76172e+06
1.72539e+06
1.68906e+06
1.65273e+06
1.61641e+06
1.58008e+06
1.54375e+06
1.50742e+06
1.4711e+06
1.43477e+06
1.39844e+06
1.36211e+06
1.32578e+06
1.28946e+06
1.25313e+06
1.2168e+06
1.18047e+06
1.14415e+06
1.10782e+06
1.07149e+06
1.03516e+06
998835
962507
926179
889852
853524
817196
780868
744541
708213
671885
635557
599230
562902
526574
490246
453919
417591
381263
344935
308608
272280
235952
199624
163297
126969
90641
54313.3
17985.5
)
;

boundaryField
{
    inlet
    {
        type            darcyGradPressure;
        gradient        uniform 7.91851e+06;
        Mf              Mf;
        phi             phi;
        value           uniform 3.62421e+06;
    }
    outlet
    {
        type            fixedValue;
        value           uniform 0;
    }
    emptyWalls
    {
        type            empty;
    }
}


// ************************************************************************* //
