/*--------------------------------*- C++ -*----------------------------------*\
  =========                 |
  \\      /  F ield         | OpenFOAM: The Open Source CFD Toolbox
   \\    /   O peration     | Website:  https://openfoam.org
    \\  /    A nd           | Version:  9
     \\/     M anipulation  |
\*---------------------------------------------------------------------------*/
FoamFile
{
    format      ascii;
    class       volScalarField;
    location    "27000";
    object      krc;
}
// * * * * * * * * * * * * * * * * * * * * * * * * * * * * * * * * * * * * * //

dimensions      [0 0 0 0 0 0 0];

internalField   nonuniform List<scalar> 
100
(
7.17152e-22
7.24117e-25
1.89732e-25
5.1207e-26
8.70139e-26
9.48236e-26
3.67069e-26
1.70547e-25
1.49051e-24
2.1419e-24
2.61418e-24
2.75625e-25
2.21536e-24
6.01526e-24
8.84144e-25
4.36806e-24
8.62629e-24
9.36267e-25
1.72065e-23
4.77212e-23
4.88614e-23
5.45981e-23
2.5158e-23
1.33933e-23
6.63341e-24
8.77867e-24
3.89207e-23
1.17085e-22
9.40883e-23
1.21641e-22
6.83467e-23
4.42038e-23
2.80131e-23
1.94519e-23
1.18884e-23
4.0807e-23
1.19491e-22
3.37193e-22
5.60647e-22
8.13842e-22
9.46769e-22
9.61795e-22
8.60304e-22
5.84574e-22
4.13487e-22
3.04693e-22
1.49618e-22
1.56682e-22
1.8269e-23
1.22376e-22
6.53344e-22
1.21252e-21
1.44295e-21
1.60179e-21
1.56374e-21
1.39397e-21
1.55309e-21
1.59391e-21
1.54418e-21
1.49422e-21
1.39559e-21
1.19279e-21
1.04276e-21
7.30454e-22
6.06865e-22
5.2968e-22
4.29641e-22
4.59568e-22
3.8925e-22
3.78734e-22
3.11254e-22
2.43079e-22
2.03189e-22
1.43364e-22
1.08959e-22
7.14417e-23
5.76108e-23
3.70857e-23
1.94547e-23
4.26789e-24
1.67067e-23
8.64712e-23
1.91012e-22
2.80892e-22
2.65755e-22
2.53091e-22
2.07353e-22
1.83645e-22
1.20847e-22
1.09425e-22
8.94278e-23
9.8348e-23
9.3471e-23
1.12414e-22
9.48299e-23
3.79696e-21
1.09632e-21
1.08994e-19
2.03072e-18
5.56491e-18
)
;

boundaryField
{
    inlet
    {
        type            calculated;
        value           uniform 7.17152e-22;
    }
    outlet
    {
        type            calculated;
        value           uniform 5.56491e-18;
    }
    emptyWalls
    {
        type            empty;
    }
}


// ************************************************************************* //
