/*--------------------------------*- C++ -*----------------------------------*\
  =========                 |
  \\      /  F ield         | OpenFOAM: The Open Source CFD Toolbox
   \\    /   O peration     | Website:  https://openfoam.org
    \\  /    A nd           | Version:  9
     \\/     M anipulation  |
\*---------------------------------------------------------------------------*/
FoamFile
{
    format      ascii;
    class       volScalarField;
    location    "46000";
    object      krc;
}
// * * * * * * * * * * * * * * * * * * * * * * * * * * * * * * * * * * * * * //

dimensions      [0 0 0 0 0 0 0];

internalField   nonuniform List<scalar> 
100
(
1.27889e-23
2.33039e-24
1.89767e-24
2.76584e-24
4.23903e-25
2.66725e-24
6.70889e-25
3.03326e-26
2.18903e-24
1.07067e-24
2.41138e-24
9.3811e-26
2.32682e-25
1.2063e-24
2.57951e-24
4.58733e-25
9.24152e-25
1.55121e-26
6.37871e-24
1.08154e-23
8.38998e-24
2.14428e-23
2.31892e-23
1.58835e-23
6.44942e-23
4.93499e-23
1.36612e-22
1.18405e-22
2.53344e-22
2.53701e-22
4.78449e-22
5.23131e-22
6.2318e-22
8.06214e-22
1.12615e-21
1.19643e-21
1.46059e-21
1.62937e-21
1.87849e-21
1.97595e-21
1.95647e-21
1.75589e-21
1.62072e-21
1.78623e-21
1.23003e-21
7.0549e-22
3.03776e-22
2.33231e-24
1.16386e-22
3.68444e-22
1.21375e-21
2.88523e-21
5.07544e-21
7.56887e-21
1.16582e-20
1.76202e-20
2.31884e-20
3.0497e-20
3.94771e-20
4.77292e-20
5.60505e-20
6.38772e-20
7.07681e-20
7.73181e-20
8.19216e-20
8.49091e-20
8.94363e-20
8.89065e-20
9.08132e-20
8.85552e-20
8.73494e-20
8.36014e-20
7.91264e-20
7.38977e-20
6.89286e-20
6.27605e-20
5.75489e-20
5.1353e-20
4.63514e-20
3.99807e-20
3.5144e-20
2.91493e-20
2.53915e-20
2.15465e-20
1.7872e-20
1.46511e-20
1.20192e-20
9.80096e-21
7.62051e-21
6.10141e-21
4.42039e-21
3.36309e-21
2.77317e-21
1.04468e-21
4.67309e-21
3.13636e-20
4.0763e-19
8.37514e-18
1.06326e-16
5.5991e-16
)
;

boundaryField
{
    inlet
    {
        type            calculated;
        value           uniform 1.27889e-23;
    }
    outlet
    {
        type            calculated;
        value           uniform 5.5991e-16;
    }
    emptyWalls
    {
        type            empty;
    }
}


// ************************************************************************* //
