/*--------------------------------*- C++ -*----------------------------------*\
  =========                 |
  \\      /  F ield         | OpenFOAM: The Open Source CFD Toolbox
   \\    /   O peration     | Website:  https://openfoam.org
    \\  /    A nd           | Version:  9
     \\/     M anipulation  |
\*---------------------------------------------------------------------------*/
FoamFile
{
    format      ascii;
    class       volScalarField;
    location    "14800";
    object      Sb;
}
// * * * * * * * * * * * * * * * * * * * * * * * * * * * * * * * * * * * * * //

dimensions      [0 0 0 0 0 0 0];

internalField   nonuniform List<scalar> 
1000
(
0.350433
0.351113
0.352202
0.35318
0.354205
0.355217
0.356251
0.357268
0.358297
0.359293
0.360262
0.361173
0.362009
0.362779
0.363401
0.364054
0.364509
0.365461
0.367683
0.376377
0.427427
0.601057
0.651904
0.664285
0.669504
0.672491
0.674534
0.67608
0.677318
0.678339
0.679191
0.679907
0.680508
0.681013
0.681436
0.681788
0.68208
0.682316
0.682511
0.682657
0.682771
0.682842
0.682885
0.682889
0.682862
0.682798
0.682697
0.682558
0.682379
0.682157
0.681888
0.681561
0.681164
0.680675
0.680064
0.679294
0.678334
0.677178
0.675863
0.674455
0.672991
0.671493
0.669977
0.668452
0.666925
0.6654
0.663881
0.662371
0.660869
0.659379
0.6579
0.656433
0.654978
0.653536
0.652106
0.650689
0.649285
0.647893
0.646514
0.645147
0.643793
0.642451
0.641121
0.639803
0.638497
0.637202
0.635919
0.634646
0.633384
0.632133
0.630893
0.629662
0.628442
0.627233
0.626033
0.624844
0.623664
0.622493
0.621331
0.620177
0.619031
0.617892
0.61676
0.615634
0.614516
0.613405
0.612301
0.611204
0.610115
0.609033
0.60796
0.606895
0.605839
0.604792
0.603754
0.602725
0.601707
0.600699
0.599701
0.598713
0.597735
0.596765
0.595804
0.594852
0.593906
0.592966
0.592033
0.591104
0.59018
0.589261
0.588345
0.587433
0.586525
0.585621
0.584721
0.583825
0.582933
0.582045
0.581162
0.580284
0.57941
0.578542
0.577678
0.576819
0.575965
0.575116
0.574272
0.573433
0.572599
0.57177
0.570945
0.570124
0.569308
0.568497
0.56769
0.566887
0.566088
0.565294
0.564503
0.563717
0.562934
0.562156
0.561381
0.56061
0.559842
0.559079
0.558319
0.557562
0.556809
0.55606
0.555314
0.554571
0.553832
0.553096
0.552364
0.551634
0.550908
0.550185
0.549466
0.548749
0.548036
0.547325
0.546618
0.545913
0.545212
0.544513
0.543817
0.543124
0.542434
0.541747
0.541062
0.54038
0.539701
0.539025
0.538351
0.53768
0.537011
0.536346
0.535682
0.535021
0.534363
0.533707
0.533053
0.532402
0.531753
0.531107
0.530463
0.529821
0.529182
0.528545
0.52791
0.527278
0.526647
0.526019
0.525394
0.52477
0.524148
0.523529
0.522912
0.522296
0.521683
0.521072
0.520463
0.519856
0.519251
0.518647
0.518046
0.517447
0.516849
0.516253
0.515659
0.515067
0.514476
0.513887
0.5133
0.512713
0.512128
0.511544
0.510962
0.510381
0.509801
0.509222
0.508645
0.508068
0.507494
0.50692
0.506348
0.505778
0.505209
0.504642
0.504077
0.503514
0.502953
0.502394
0.501838
0.501284
0.500732
0.500183
0.499637
0.499093
0.498552
0.498013
0.497477
0.496943
0.496411
0.495881
0.495353
0.494827
0.494302
0.493778
0.493256
0.492734
0.492214
0.491694
0.491175
0.490657
0.490139
0.489622
0.489106
0.48859
0.488075
0.487561
0.487048
0.486535
0.486024
0.485513
0.485003
0.484495
0.483987
0.48348
0.482974
0.48247
0.481966
0.481464
0.480963
0.480462
0.479963
0.479465
0.478968
0.478472
0.477978
0.477484
0.476991
0.476499
0.476009
0.475519
0.47503
0.474542
0.474055
0.473569
0.473084
0.4726
0.472116
0.471634
0.471152
0.470672
0.470192
0.469713
0.469234
0.468757
0.46828
0.467804
0.467329
0.466855
0.466381
0.465908
0.465436
0.464965
0.464494
0.464024
0.463555
0.463087
0.462619
0.462152
0.461685
0.461219
0.460754
0.46029
0.459826
0.459363
0.4589
0.458438
0.457977
0.457516
0.457056
0.456597
0.456138
0.455679
0.455222
0.454764
0.454308
0.453852
0.453396
0.452941
0.452486
0.452032
0.451579
0.451126
0.450674
0.450222
0.44977
0.449319
0.448869
0.448419
0.447969
0.44752
0.447072
0.446623
0.446176
0.445729
0.445282
0.444835
0.444389
0.443944
0.443499
0.443054
0.44261
0.442166
0.441722
0.441279
0.440836
0.440393
0.439951
0.439509
0.439068
0.438626
0.438185
0.437744
0.437304
0.436863
0.436423
0.435983
0.435543
0.435103
0.434663
0.434224
0.433784
0.433345
0.432905
0.432466
0.432026
0.431587
0.431148
0.430709
0.43027
0.429831
0.429392
0.428953
0.428515
0.428077
0.427639
0.427201
0.426764
0.426327
0.42589
0.425454
0.425019
0.424583
0.424149
0.423715
0.423281
0.422848
0.422416
0.421984
0.421552
0.421121
0.420691
0.420261
0.419831
0.419402
0.418972
0.418543
0.418115
0.417686
0.417257
0.416828
0.4164
0.415971
0.415541
0.415112
0.414682
0.414253
0.413822
0.413392
0.412961
0.41253
0.412098
0.411667
0.411234
0.410802
0.410369
0.409936
0.409502
0.409069
0.408634
0.4082
0.407765
0.40733
0.406895
0.40646
0.406024
0.405588
0.405151
0.404714
0.404277
0.40384
0.403403
0.402965
0.402526
0.402088
0.401649
0.401209
0.40077
0.40033
0.399889
0.399448
0.399007
0.398565
0.398123
0.39768
0.397237
0.396793
0.396349
0.395904
0.395459
0.395013
0.394566
0.394119
0.393671
0.393223
0.392774
0.392325
0.391874
0.391423
0.390972
0.390519
0.390066
0.389612
0.389157
0.388702
0.388246
0.387789
0.387331
0.386872
0.386412
0.385952
0.38549
0.385028
0.384564
0.3841
0.383635
0.383169
0.382701
0.382233
0.381763
0.381293
0.380821
0.380348
0.379875
0.379399
0.378923
0.378446
0.377967
0.377487
0.377006
0.376523
0.37604
0.375554
0.375068
0.37458
0.374091
0.373601
0.373109
0.372616
0.372121
0.371625
0.371128
0.370629
0.37013
0.369628
0.369126
0.368622
0.368118
0.367612
0.367105
0.366597
0.366089
0.365581
0.365072
0.364563
0.364054
0.363546
0.363039
0.362534
0.362032
0.361533
0.361037
0.360547
0.360062
0.359585
0.359117
0.358659
0.358213
0.35778
0.357362
0.356962
0.35658
0.356218
0.355878
0.35556
0.355266
0.354996
0.354751
0.35453
0.354332
0.354158
0.354004
0.353871
0.353756
0.353657
0.35357
0.353491
0.353414
0.353328
0.353218
0.353057
0.352796
0.352351
0.351575
0.350218
0.347866
0.343886
0.337429
0.327654
0.314321
0.298539
0.282794
0.269663
0.260343
0.254505
0.251144
0.249306
0.248329
0.247819
0.247555
0.247418
0.247348
0.247312
0.247293
0.247284
0.247279
0.247277
0.247276
0.247275
0.247275
0.247275
0.247276
0.247276
0.247277
0.247277
0.247278
0.247279
0.247279
0.24728
0.24728
0.247281
0.247282
0.247282
0.247283
0.247283
0.247284
0.247284
0.247285
0.247285
0.247286
0.247286
0.247287
0.247287
0.247287
0.247287
0.247288
0.247288
0.247288
0.247288
0.247288
0.247288
0.247288
0.247288
0.247288
0.247288
0.247288
0.247288
0.247288
0.247288
0.247287
0.247287
0.247287
0.247287
0.247287
0.247287
0.247286
0.247286
0.247286
0.247286
0.247286
0.247286
0.247285
0.247285
0.247285
0.247285
0.247285
0.247285
0.247284
0.247284
0.247284
0.247284
0.247284
0.247284
0.247284
0.247284
0.247284
0.247284
0.247284
0.247284
0.247283
0.247283
0.247283
0.247283
0.247283
0.247283
0.247283
0.247283
0.247283
0.247283
0.247283
0.247283
0.247283
0.247283
0.247283
0.247283
0.247283
0.247284
0.247284
0.247284
0.247284
0.247284
0.247284
0.247284
0.247284
0.247284
0.247284
0.247284
0.247284
0.247284
0.247284
0.247284
0.247284
0.247284
0.247284
0.247285
0.247285
0.247285
0.247285
0.247285
0.247285
0.247285
0.247285
0.247285
0.247285
0.247285
0.247285
0.247285
0.247285
0.247285
0.247285
0.247285
0.247286
0.247286
0.247286
0.247286
0.247286
0.247286
0.247286
0.247286
0.247286
0.247286
0.247286
0.247286
0.247286
0.247286
0.247286
0.247286
0.247285
0.247285
0.247285
0.247285
0.247285
0.247285
0.247285
0.247285
0.247285
0.247285
0.247285
0.247284
0.247284
0.247284
0.247284
0.247284
0.247284
0.247283
0.247283
0.247283
0.247283
0.247282
0.247282
0.247282
0.247281
0.247281
0.247281
0.24728
0.24728
0.247279
0.247279
0.247279
0.247278
0.247278
0.247277
0.247277
0.247276
0.247276
0.247275
0.247274
0.247274
0.247273
0.247273
0.247272
0.247271
0.247271
0.24727
0.24727
0.247269
0.247269
0.247268
0.247268
0.247267
0.247267
0.247266
0.247266
0.247265
0.247265
0.247265
0.247265
0.247265
0.247265
0.247265
0.247265
0.247265
0.247265
0.247265
0.247265
0.247266
0.247266
0.247267
0.247267
0.247268
0.247268
0.247269
0.24727
0.24727
0.247271
0.247272
0.247272
0.247273
0.247273
0.247274
0.247275
0.247275
0.247276
0.247276
0.247277
0.247277
0.247278
0.247278
0.247278
0.247279
0.247279
0.247279
0.24728
0.24728
0.24728
0.24728
0.247281
0.247281
0.247281
0.247281
0.247281
0.247281
0.247281
0.247282
0.247282
0.247282
0.247282
0.247282
0.247282
0.247282
0.247282
0.247282
0.247282
0.247282
0.247283
0.247283
0.247283
0.247283
0.247283
0.247283
0.247283
0.247283
0.247283
0.247283
0.247283
0.247284
0.247284
0.247284
0.247284
0.247284
0.247284
0.247284
0.247284
0.247284
0.247284
0.247284
0.247285
0.247285
0.247285
0.247285
0.247285
0.247285
0.247285
0.247285
0.247285
0.247285
0.247285
0.247286
0.247286
0.247286
0.247286
0.247286
0.247286
0.247286
0.247286
0.247286
0.247286
0.247286
0.247286
0.247286
0.247286
0.247286
0.247286
0.247286
0.247287
0.247287
0.247287
0.247287
0.247287
0.247287
0.247287
0.247287
0.247287
0.247287
0.247287
0.247287
0.247287
0.247287
0.247287
0.247287
0.247287
0.247287
0.247287
0.247287
0.247287
0.247287
0.247287
0.247287
0.247287
0.247286
0.247286
0.247286
0.247286
0.247286
0.247286
0.247286
0.247286
0.247286
0.247286
0.247286
0.247286
0.247286
0.247286
0.247286
0.247285
0.247285
0.247285
0.247285
0.247285
0.247285
0.247285
0.247285
0.247284
0.247284
0.247284
0.247284
0.247284
0.247284
0.247283
0.247283
0.247283
0.247283
0.247282
0.247282
0.247282
0.247282
0.247281
0.247281
0.247281
0.24728
0.24728
0.24728
0.247279
0.247279
0.247278
0.247278
0.247277
0.247277
0.247276
0.247276
0.247275
0.247275
0.247274
0.247274
0.247273
)
;

boundaryField
{
    inlet
    {
        type            fixedValue;
        value           uniform 0.35;
    }
    outlet
    {
        type            zeroGradient;
    }
    emptyWalls
    {
        type            empty;
    }
}


// ************************************************************************* //
