/*--------------------------------*- C++ -*----------------------------------*\
  =========                 |
  \\      /  F ield         | OpenFOAM: The Open Source CFD Toolbox
   \\    /   O peration     | Website:  https://openfoam.org
    \\  /    A nd           | Version:  9
     \\/     M anipulation  |
\*---------------------------------------------------------------------------*/
FoamFile
{
    format      ascii;
    class       volVectorField;
    location    "14800";
    object      Uc;
}
// * * * * * * * * * * * * * * * * * * * * * * * * * * * * * * * * * * * * * //

dimensions      [0 0 0 0 0 0 0];

internalField   nonuniform List<vector> 
1000
(
(1.28021e-11 0 0)
(6.89746e-11 0 0)
(1.91455e-10 0 0)
(3.82532e-10 0 0)
(6.38186e-10 0 0)
(9.56293e-10 0 0)
(1.33414e-09 0 0)
(1.76706e-09 0 0)
(2.24736e-09 0 0)
(2.76381e-09 0 0)
(3.30164e-09 0 0)
(3.8435e-09 0 0)
(4.37135e-09 0 0)
(4.8695e-09 0 0)
(5.32776e-09 0 0)
(5.75307e-09 0 0)
(6.21814e-09 0 0)
(7.10337e-09 0 0)
(9.9894e-09 0 0)
(2.1108e-08 0 0)
(7.80167e-08 0 0)
(1.61955e-07 0 0)
(2.046e-07 0 0)
(2.14227e-07 0 0)
(2.18836e-07 0 0)
(2.21851e-07 0 0)
(2.24187e-07 0 0)
(2.2618e-07 0 0)
(2.27976e-07 0 0)
(2.29645e-07 0 0)
(2.3122e-07 0 0)
(2.32722e-07 0 0)
(2.34162e-07 0 0)
(2.35549e-07 0 0)
(2.36891e-07 0 0)
(2.38196e-07 0 0)
(2.39472e-07 0 0)
(2.40728e-07 0 0)
(2.4197e-07 0 0)
(2.43206e-07 0 0)
(2.44444e-07 0 0)
(2.4569e-07 0 0)
(2.46953e-07 0 0)
(2.48243e-07 0 0)
(2.49591e-07 0 0)
(2.51e-07 0 0)
(2.52454e-07 0 0)
(2.53963e-07 0 0)
(2.55537e-07 0 0)
(2.57194e-07 0 0)
(2.58958e-07 0 0)
(2.60868e-07 0 0)
(2.62981e-07 0 0)
(2.65374e-07 0 0)
(2.68152e-07 0 0)
(2.71427e-07 0 0)
(2.75288e-07 0 0)
(2.7976e-07 0 0)
(2.84775e-07 0 0)
(2.90213e-07 0 0)
(2.95957e-07 0 0)
(3.01924e-07 0 0)
(3.08057e-07 0 0)
(3.1432e-07 0 0)
(3.20684e-07 0 0)
(3.27131e-07 0 0)
(3.33648e-07 0 0)
(3.40224e-07 0 0)
(3.46852e-07 0 0)
(3.53525e-07 0 0)
(3.60239e-07 0 0)
(3.66991e-07 0 0)
(3.73777e-07 0 0)
(3.80595e-07 0 0)
(3.87443e-07 0 0)
(3.9432e-07 0 0)
(4.01223e-07 0 0)
(4.08152e-07 0 0)
(4.15105e-07 0 0)
(4.22083e-07 0 0)
(4.29083e-07 0 0)
(4.36107e-07 0 0)
(4.43153e-07 0 0)
(4.50219e-07 0 0)
(4.57306e-07 0 0)
(4.64413e-07 0 0)
(4.71539e-07 0 0)
(4.78683e-07 0 0)
(4.85844e-07 0 0)
(4.93023e-07 0 0)
(5.00218e-07 0 0)
(5.0743e-07 0 0)
(5.1466e-07 0 0)
(5.21907e-07 0 0)
(5.29171e-07 0 0)
(5.36452e-07 0 0)
(5.43749e-07 0 0)
(5.51059e-07 0 0)
(5.58381e-07 0 0)
(5.65712e-07 0 0)
(5.73048e-07 0 0)
(5.80388e-07 0 0)
(5.87731e-07 0 0)
(5.95075e-07 0 0)
(6.02421e-07 0 0)
(6.0977e-07 0 0)
(6.17123e-07 0 0)
(6.24482e-07 0 0)
(6.3185e-07 0 0)
(6.39227e-07 0 0)
(6.46617e-07 0 0)
(6.54023e-07 0 0)
(6.61447e-07 0 0)
(6.68895e-07 0 0)
(6.76369e-07 0 0)
(6.83873e-07 0 0)
(6.91412e-07 0 0)
(6.98987e-07 0 0)
(7.06601e-07 0 0)
(7.14253e-07 0 0)
(7.21944e-07 0 0)
(7.2967e-07 0 0)
(7.37429e-07 0 0)
(7.45215e-07 0 0)
(7.53024e-07 0 0)
(7.6085e-07 0 0)
(7.68688e-07 0 0)
(7.76534e-07 0 0)
(7.84383e-07 0 0)
(7.92232e-07 0 0)
(8.00078e-07 0 0)
(8.07921e-07 0 0)
(8.1576e-07 0 0)
(8.23596e-07 0 0)
(8.31428e-07 0 0)
(8.3926e-07 0 0)
(8.47091e-07 0 0)
(8.54926e-07 0 0)
(8.62764e-07 0 0)
(8.70608e-07 0 0)
(8.7846e-07 0 0)
(8.86321e-07 0 0)
(8.94193e-07 0 0)
(9.02077e-07 0 0)
(9.09972e-07 0 0)
(9.17881e-07 0 0)
(9.25802e-07 0 0)
(9.33737e-07 0 0)
(9.41685e-07 0 0)
(9.49646e-07 0 0)
(9.5762e-07 0 0)
(9.65607e-07 0 0)
(9.73605e-07 0 0)
(9.81616e-07 0 0)
(9.89639e-07 0 0)
(9.97673e-07 0 0)
(1.00572e-06 0 0)
(1.01377e-06 0 0)
(1.02184e-06 0 0)
(1.02992e-06 0 0)
(1.03801e-06 0 0)
(1.0461e-06 0 0)
(1.05421e-06 0 0)
(1.06233e-06 0 0)
(1.07046e-06 0 0)
(1.0786e-06 0 0)
(1.08674e-06 0 0)
(1.0949e-06 0 0)
(1.10307e-06 0 0)
(1.11125e-06 0 0)
(1.11943e-06 0 0)
(1.12763e-06 0 0)
(1.13583e-06 0 0)
(1.14405e-06 0 0)
(1.15227e-06 0 0)
(1.1605e-06 0 0)
(1.16874e-06 0 0)
(1.177e-06 0 0)
(1.18526e-06 0 0)
(1.19352e-06 0 0)
(1.2018e-06 0 0)
(1.21009e-06 0 0)
(1.21839e-06 0 0)
(1.22669e-06 0 0)
(1.23501e-06 0 0)
(1.24333e-06 0 0)
(1.25166e-06 0 0)
(1.26e-06 0 0)
(1.26835e-06 0 0)
(1.27671e-06 0 0)
(1.28508e-06 0 0)
(1.29345e-06 0 0)
(1.30184e-06 0 0)
(1.31023e-06 0 0)
(1.31863e-06 0 0)
(1.32704e-06 0 0)
(1.33546e-06 0 0)
(1.34389e-06 0 0)
(1.35233e-06 0 0)
(1.36077e-06 0 0)
(1.36922e-06 0 0)
(1.37769e-06 0 0)
(1.38616e-06 0 0)
(1.39464e-06 0 0)
(1.40313e-06 0 0)
(1.41162e-06 0 0)
(1.42013e-06 0 0)
(1.42864e-06 0 0)
(1.43717e-06 0 0)
(1.4457e-06 0 0)
(1.45424e-06 0 0)
(1.4628e-06 0 0)
(1.47136e-06 0 0)
(1.47993e-06 0 0)
(1.48851e-06 0 0)
(1.4971e-06 0 0)
(1.50569e-06 0 0)
(1.5143e-06 0 0)
(1.52291e-06 0 0)
(1.53154e-06 0 0)
(1.54017e-06 0 0)
(1.54881e-06 0 0)
(1.55746e-06 0 0)
(1.56612e-06 0 0)
(1.57479e-06 0 0)
(1.58347e-06 0 0)
(1.59216e-06 0 0)
(1.60085e-06 0 0)
(1.60956e-06 0 0)
(1.61827e-06 0 0)
(1.62698e-06 0 0)
(1.6357e-06 0 0)
(1.64442e-06 0 0)
(1.65315e-06 0 0)
(1.66187e-06 0 0)
(1.6706e-06 0 0)
(1.67932e-06 0 0)
(1.68804e-06 0 0)
(1.69676e-06 0 0)
(1.70547e-06 0 0)
(1.71417e-06 0 0)
(1.72288e-06 0 0)
(1.73158e-06 0 0)
(1.74027e-06 0 0)
(1.74897e-06 0 0)
(1.75766e-06 0 0)
(1.76636e-06 0 0)
(1.77507e-06 0 0)
(1.78378e-06 0 0)
(1.79251e-06 0 0)
(1.80125e-06 0 0)
(1.81002e-06 0 0)
(1.8188e-06 0 0)
(1.82762e-06 0 0)
(1.83646e-06 0 0)
(1.84535e-06 0 0)
(1.85427e-06 0 0)
(1.86323e-06 0 0)
(1.87223e-06 0 0)
(1.88127e-06 0 0)
(1.89036e-06 0 0)
(1.8995e-06 0 0)
(1.90867e-06 0 0)
(1.91788e-06 0 0)
(1.92713e-06 0 0)
(1.9364e-06 0 0)
(1.94571e-06 0 0)
(1.95504e-06 0 0)
(1.96439e-06 0 0)
(1.97375e-06 0 0)
(1.98312e-06 0 0)
(1.99249e-06 0 0)
(2.00187e-06 0 0)
(2.01125e-06 0 0)
(2.02062e-06 0 0)
(2.03e-06 0 0)
(2.03936e-06 0 0)
(2.04873e-06 0 0)
(2.05809e-06 0 0)
(2.06744e-06 0 0)
(2.07679e-06 0 0)
(2.08614e-06 0 0)
(2.09548e-06 0 0)
(2.10483e-06 0 0)
(2.11418e-06 0 0)
(2.12354e-06 0 0)
(2.1329e-06 0 0)
(2.14226e-06 0 0)
(2.15164e-06 0 0)
(2.16103e-06 0 0)
(2.17042e-06 0 0)
(2.17983e-06 0 0)
(2.18925e-06 0 0)
(2.19869e-06 0 0)
(2.20814e-06 0 0)
(2.2176e-06 0 0)
(2.22708e-06 0 0)
(2.23657e-06 0 0)
(2.24608e-06 0 0)
(2.2556e-06 0 0)
(2.26513e-06 0 0)
(2.27469e-06 0 0)
(2.28425e-06 0 0)
(2.29383e-06 0 0)
(2.30343e-06 0 0)
(2.31304e-06 0 0)
(2.32266e-06 0 0)
(2.3323e-06 0 0)
(2.34195e-06 0 0)
(2.35162e-06 0 0)
(2.3613e-06 0 0)
(2.37099e-06 0 0)
(2.38069e-06 0 0)
(2.39041e-06 0 0)
(2.40015e-06 0 0)
(2.40989e-06 0 0)
(2.41965e-06 0 0)
(2.42942e-06 0 0)
(2.43921e-06 0 0)
(2.44901e-06 0 0)
(2.45882e-06 0 0)
(2.46864e-06 0 0)
(2.47848e-06 0 0)
(2.48833e-06 0 0)
(2.4982e-06 0 0)
(2.50807e-06 0 0)
(2.51796e-06 0 0)
(2.52786e-06 0 0)
(2.53778e-06 0 0)
(2.54771e-06 0 0)
(2.55765e-06 0 0)
(2.56761e-06 0 0)
(2.57758e-06 0 0)
(2.58756e-06 0 0)
(2.59756e-06 0 0)
(2.60756e-06 0 0)
(2.61759e-06 0 0)
(2.62762e-06 0 0)
(2.63767e-06 0 0)
(2.64773e-06 0 0)
(2.65781e-06 0 0)
(2.6679e-06 0 0)
(2.67801e-06 0 0)
(2.68812e-06 0 0)
(2.69826e-06 0 0)
(2.7084e-06 0 0)
(2.71856e-06 0 0)
(2.72873e-06 0 0)
(2.73892e-06 0 0)
(2.74912e-06 0 0)
(2.75934e-06 0 0)
(2.76957e-06 0 0)
(2.77982e-06 0 0)
(2.79008e-06 0 0)
(2.80035e-06 0 0)
(2.81064e-06 0 0)
(2.82094e-06 0 0)
(2.83126e-06 0 0)
(2.8416e-06 0 0)
(2.85195e-06 0 0)
(2.86231e-06 0 0)
(2.87269e-06 0 0)
(2.88309e-06 0 0)
(2.8935e-06 0 0)
(2.90393e-06 0 0)
(2.91437e-06 0 0)
(2.92483e-06 0 0)
(2.93531e-06 0 0)
(2.9458e-06 0 0)
(2.95631e-06 0 0)
(2.96684e-06 0 0)
(2.97738e-06 0 0)
(2.98794e-06 0 0)
(2.99852e-06 0 0)
(3.00911e-06 0 0)
(3.01973e-06 0 0)
(3.03035e-06 0 0)
(3.041e-06 0 0)
(3.05166e-06 0 0)
(3.06234e-06 0 0)
(3.07304e-06 0 0)
(3.08375e-06 0 0)
(3.09448e-06 0 0)
(3.10522e-06 0 0)
(3.11598e-06 0 0)
(3.12675e-06 0 0)
(3.13754e-06 0 0)
(3.14834e-06 0 0)
(3.15916e-06 0 0)
(3.16998e-06 0 0)
(3.18082e-06 0 0)
(3.19167e-06 0 0)
(3.20252e-06 0 0)
(3.21339e-06 0 0)
(3.22426e-06 0 0)
(3.23514e-06 0 0)
(3.24602e-06 0 0)
(3.25691e-06 0 0)
(3.26781e-06 0 0)
(3.27871e-06 0 0)
(3.28962e-06 0 0)
(3.30054e-06 0 0)
(3.31147e-06 0 0)
(3.3224e-06 0 0)
(3.33335e-06 0 0)
(3.34431e-06 0 0)
(3.35529e-06 0 0)
(3.36628e-06 0 0)
(3.37729e-06 0 0)
(3.38833e-06 0 0)
(3.39939e-06 0 0)
(3.41048e-06 0 0)
(3.42161e-06 0 0)
(3.43277e-06 0 0)
(3.44397e-06 0 0)
(3.45521e-06 0 0)
(3.4665e-06 0 0)
(3.47785e-06 0 0)
(3.48924e-06 0 0)
(3.50069e-06 0 0)
(3.51219e-06 0 0)
(3.52376e-06 0 0)
(3.53538e-06 0 0)
(3.54707e-06 0 0)
(3.55882e-06 0 0)
(3.57062e-06 0 0)
(3.58248e-06 0 0)
(3.59441e-06 0 0)
(3.60638e-06 0 0)
(3.61841e-06 0 0)
(3.63048e-06 0 0)
(3.64261e-06 0 0)
(3.65477e-06 0 0)
(3.66697e-06 0 0)
(3.67921e-06 0 0)
(3.69147e-06 0 0)
(3.70377e-06 0 0)
(3.71609e-06 0 0)
(3.72843e-06 0 0)
(3.74079e-06 0 0)
(3.75317e-06 0 0)
(3.76556e-06 0 0)
(3.77797e-06 0 0)
(3.79039e-06 0 0)
(3.80283e-06 0 0)
(3.81528e-06 0 0)
(3.82775e-06 0 0)
(3.84023e-06 0 0)
(3.85273e-06 0 0)
(3.86525e-06 0 0)
(3.87778e-06 0 0)
(3.89033e-06 0 0)
(3.90291e-06 0 0)
(3.91551e-06 0 0)
(3.92813e-06 0 0)
(3.94078e-06 0 0)
(3.95345e-06 0 0)
(3.96616e-06 0 0)
(3.9789e-06 0 0)
(3.99166e-06 0 0)
(4.00446e-06 0 0)
(4.0173e-06 0 0)
(4.03016e-06 0 0)
(4.04307e-06 0 0)
(4.05601e-06 0 0)
(4.06899e-06 0 0)
(4.082e-06 0 0)
(4.09506e-06 0 0)
(4.10815e-06 0 0)
(4.12129e-06 0 0)
(4.13446e-06 0 0)
(4.14768e-06 0 0)
(4.16094e-06 0 0)
(4.17423e-06 0 0)
(4.18758e-06 0 0)
(4.20096e-06 0 0)
(4.21438e-06 0 0)
(4.22785e-06 0 0)
(4.24136e-06 0 0)
(4.25491e-06 0 0)
(4.2685e-06 0 0)
(4.28214e-06 0 0)
(4.29583e-06 0 0)
(4.30956e-06 0 0)
(4.32333e-06 0 0)
(4.33715e-06 0 0)
(4.35101e-06 0 0)
(4.36492e-06 0 0)
(4.37887e-06 0 0)
(4.39288e-06 0 0)
(4.40692e-06 0 0)
(4.42102e-06 0 0)
(4.43516e-06 0 0)
(4.44936e-06 0 0)
(4.4636e-06 0 0)
(4.47789e-06 0 0)
(4.49223e-06 0 0)
(4.50662e-06 0 0)
(4.52106e-06 0 0)
(4.53556e-06 0 0)
(4.5501e-06 0 0)
(4.5647e-06 0 0)
(4.57935e-06 0 0)
(4.59406e-06 0 0)
(4.60882e-06 0 0)
(4.62364e-06 0 0)
(4.63851e-06 0 0)
(4.65344e-06 0 0)
(4.66842e-06 0 0)
(4.68346e-06 0 0)
(4.69857e-06 0 0)
(4.71373e-06 0 0)
(4.72895e-06 0 0)
(4.74423e-06 0 0)
(4.75958e-06 0 0)
(4.77498e-06 0 0)
(4.79045e-06 0 0)
(4.80598e-06 0 0)
(4.82158e-06 0 0)
(4.83724e-06 0 0)
(4.85297e-06 0 0)
(4.86876e-06 0 0)
(4.88463e-06 0 0)
(4.90056e-06 0 0)
(4.91655e-06 0 0)
(4.93262e-06 0 0)
(4.94876e-06 0 0)
(4.96497e-06 0 0)
(4.98125e-06 0 0)
(4.9976e-06 0 0)
(5.01403e-06 0 0)
(5.03053e-06 0 0)
(5.0471e-06 0 0)
(5.06374e-06 0 0)
(5.08046e-06 0 0)
(5.09726e-06 0 0)
(5.11413e-06 0 0)
(5.13107e-06 0 0)
(5.14808e-06 0 0)
(5.16517e-06 0 0)
(5.18232e-06 0 0)
(5.19955e-06 0 0)
(5.21684e-06 0 0)
(5.2342e-06 0 0)
(5.25162e-06 0 0)
(5.26909e-06 0 0)
(5.28662e-06 0 0)
(5.30419e-06 0 0)
(5.32179e-06 0 0)
(5.33942e-06 0 0)
(5.35707e-06 0 0)
(5.37472e-06 0 0)
(5.39235e-06 0 0)
(5.40995e-06 0 0)
(5.42748e-06 0 0)
(5.44493e-06 0 0)
(5.46226e-06 0 0)
(5.47944e-06 0 0)
(5.49643e-06 0 0)
(5.51317e-06 0 0)
(5.52961e-06 0 0)
(5.54572e-06 0 0)
(5.56142e-06 0 0)
(5.57665e-06 0 0)
(5.59136e-06 0 0)
(5.60547e-06 0 0)
(5.61892e-06 0 0)
(5.63165e-06 0 0)
(5.64362e-06 0 0)
(5.65478e-06 0 0)
(5.6651e-06 0 0)
(5.67454e-06 0 0)
(5.68311e-06 0 0)
(5.69079e-06 0 0)
(5.6976e-06 0 0)
(5.7036e-06 0 0)
(5.70881e-06 0 0)
(5.71329e-06 0 0)
(5.71711e-06 0 0)
(5.72037e-06 0 0)
(5.72316e-06 0 0)
(5.72568e-06 0 0)
(5.72815e-06 0 0)
(5.73096e-06 0 0)
(5.73473e-06 0 0)
(5.74053e-06 0 0)
(5.75023e-06 0 0)
(5.76713e-06 0 0)
(5.79691e-06 0 0)
(5.84928e-06 0 0)
(5.94008e-06 0 0)
(6.09328e-06 0 0)
(6.34002e-06 0 0)
(6.70941e-06 0 0)
(7.20645e-06 0 0)
(7.78753e-06 0 0)
(8.36341e-06 0 0)
(8.84425e-06 0 0)
(9.18775e-06 0 0)
(9.40453e-06 0 0)
(9.52998e-06 0 0)
(9.59873e-06 0 0)
(9.63523e-06 0 0)
(9.65425e-06 0 0)
(9.66406e-06 0 0)
(9.6691e-06 0 0)
(9.67169e-06 0 0)
(9.67303e-06 0 0)
(9.67379e-06 0 0)
(9.67428e-06 0 0)
(9.67463e-06 0 0)
(9.67494e-06 0 0)
(9.67526e-06 0 0)
(9.67561e-06 0 0)
(9.67599e-06 0 0)
(9.67641e-06 0 0)
(9.67686e-06 0 0)
(9.67735e-06 0 0)
(9.67786e-06 0 0)
(9.6784e-06 0 0)
(9.67896e-06 0 0)
(9.67954e-06 0 0)
(9.68013e-06 0 0)
(9.68072e-06 0 0)
(9.68132e-06 0 0)
(9.68191e-06 0 0)
(9.6825e-06 0 0)
(9.68308e-06 0 0)
(9.68364e-06 0 0)
(9.68419e-06 0 0)
(9.68472e-06 0 0)
(9.68523e-06 0 0)
(9.68571e-06 0 0)
(9.68618e-06 0 0)
(9.68661e-06 0 0)
(9.68702e-06 0 0)
(9.68741e-06 0 0)
(9.68777e-06 0 0)
(9.68811e-06 0 0)
(9.68842e-06 0 0)
(9.68871e-06 0 0)
(9.68897e-06 0 0)
(9.68922e-06 0 0)
(9.68944e-06 0 0)
(9.68965e-06 0 0)
(9.68984e-06 0 0)
(9.69002e-06 0 0)
(9.69018e-06 0 0)
(9.69033e-06 0 0)
(9.69046e-06 0 0)
(9.69059e-06 0 0)
(9.69071e-06 0 0)
(9.69083e-06 0 0)
(9.69093e-06 0 0)
(9.69104e-06 0 0)
(9.69114e-06 0 0)
(9.69123e-06 0 0)
(9.69133e-06 0 0)
(9.69142e-06 0 0)
(9.69152e-06 0 0)
(9.69161e-06 0 0)
(9.6917e-06 0 0)
(9.6918e-06 0 0)
(9.69189e-06 0 0)
(9.69199e-06 0 0)
(9.69209e-06 0 0)
(9.69219e-06 0 0)
(9.69229e-06 0 0)
(9.69239e-06 0 0)
(9.6925e-06 0 0)
(9.6926e-06 0 0)
(9.69271e-06 0 0)
(9.69282e-06 0 0)
(9.69293e-06 0 0)
(9.69304e-06 0 0)
(9.69315e-06 0 0)
(9.69327e-06 0 0)
(9.69338e-06 0 0)
(9.69349e-06 0 0)
(9.69361e-06 0 0)
(9.69372e-06 0 0)
(9.69383e-06 0 0)
(9.69395e-06 0 0)
(9.69406e-06 0 0)
(9.69417e-06 0 0)
(9.69428e-06 0 0)
(9.69439e-06 0 0)
(9.6945e-06 0 0)
(9.69461e-06 0 0)
(9.69471e-06 0 0)
(9.69482e-06 0 0)
(9.69492e-06 0 0)
(9.69502e-06 0 0)
(9.69512e-06 0 0)
(9.69522e-06 0 0)
(9.69532e-06 0 0)
(9.69541e-06 0 0)
(9.6955e-06 0 0)
(9.69559e-06 0 0)
(9.69568e-06 0 0)
(9.69576e-06 0 0)
(9.69584e-06 0 0)
(9.69592e-06 0 0)
(9.696e-06 0 0)
(9.69607e-06 0 0)
(9.69615e-06 0 0)
(9.69621e-06 0 0)
(9.69628e-06 0 0)
(9.69634e-06 0 0)
(9.6964e-06 0 0)
(9.69645e-06 0 0)
(9.69651e-06 0 0)
(9.69656e-06 0 0)
(9.6966e-06 0 0)
(9.69664e-06 0 0)
(9.69668e-06 0 0)
(9.69672e-06 0 0)
(9.69675e-06 0 0)
(9.69678e-06 0 0)
(9.69681e-06 0 0)
(9.69683e-06 0 0)
(9.69684e-06 0 0)
(9.69686e-06 0 0)
(9.69687e-06 0 0)
(9.69688e-06 0 0)
(9.69688e-06 0 0)
(9.69688e-06 0 0)
(9.69688e-06 0 0)
(9.69687e-06 0 0)
(9.69687e-06 0 0)
(9.69685e-06 0 0)
(9.69684e-06 0 0)
(9.69682e-06 0 0)
(9.69679e-06 0 0)
(9.69677e-06 0 0)
(9.69674e-06 0 0)
(9.6967e-06 0 0)
(9.69667e-06 0 0)
(9.69663e-06 0 0)
(9.69659e-06 0 0)
(9.69654e-06 0 0)
(9.6965e-06 0 0)
(9.69645e-06 0 0)
(9.6964e-06 0 0)
(9.69634e-06 0 0)
(9.69628e-06 0 0)
(9.69622e-06 0 0)
(9.69616e-06 0 0)
(9.69609e-06 0 0)
(9.69602e-06 0 0)
(9.69595e-06 0 0)
(9.69587e-06 0 0)
(9.69579e-06 0 0)
(9.69571e-06 0 0)
(9.69562e-06 0 0)
(9.69553e-06 0 0)
(9.69543e-06 0 0)
(9.69533e-06 0 0)
(9.69522e-06 0 0)
(9.69511e-06 0 0)
(9.69499e-06 0 0)
(9.69486e-06 0 0)
(9.69473e-06 0 0)
(9.69459e-06 0 0)
(9.69443e-06 0 0)
(9.69427e-06 0 0)
(9.6941e-06 0 0)
(9.69392e-06 0 0)
(9.69372e-06 0 0)
(9.69352e-06 0 0)
(9.69329e-06 0 0)
(9.69306e-06 0 0)
(9.69281e-06 0 0)
(9.69254e-06 0 0)
(9.69226e-06 0 0)
(9.69196e-06 0 0)
(9.69165e-06 0 0)
(9.69132e-06 0 0)
(9.69097e-06 0 0)
(9.6906e-06 0 0)
(9.69021e-06 0 0)
(9.68981e-06 0 0)
(9.68939e-06 0 0)
(9.68895e-06 0 0)
(9.68849e-06 0 0)
(9.68802e-06 0 0)
(9.68754e-06 0 0)
(9.68704e-06 0 0)
(9.68653e-06 0 0)
(9.68601e-06 0 0)
(9.68548e-06 0 0)
(9.68494e-06 0 0)
(9.6844e-06 0 0)
(9.68385e-06 0 0)
(9.6833e-06 0 0)
(9.68276e-06 0 0)
(9.68221e-06 0 0)
(9.68168e-06 0 0)
(9.68115e-06 0 0)
(9.68064e-06 0 0)
(9.68014e-06 0 0)
(9.67966e-06 0 0)
(9.67921e-06 0 0)
(9.67877e-06 0 0)
(9.67837e-06 0 0)
(9.67799e-06 0 0)
(9.67765e-06 0 0)
(9.67734e-06 0 0)
(9.67707e-06 0 0)
(9.67684e-06 0 0)
(9.67665e-06 0 0)
(9.6765e-06 0 0)
(9.67639e-06 0 0)
(9.67633e-06 0 0)
(9.67631e-06 0 0)
(9.6763e-06 0 0)
(9.67631e-06 0 0)
(9.67638e-06 0 0)
(9.67652e-06 0 0)
(9.67672e-06 0 0)
(9.67696e-06 0 0)
(9.67723e-06 0 0)
(9.67754e-06 0 0)
(9.67789e-06 0 0)
(9.67826e-06 0 0)
(9.67867e-06 0 0)
(9.67909e-06 0 0)
(9.67954e-06 0 0)
(9.68e-06 0 0)
(9.68048e-06 0 0)
(9.68097e-06 0 0)
(9.68146e-06 0 0)
(9.68196e-06 0 0)
(9.68246e-06 0 0)
(9.68296e-06 0 0)
(9.68345e-06 0 0)
(9.68394e-06 0 0)
(9.68441e-06 0 0)
(9.68487e-06 0 0)
(9.68532e-06 0 0)
(9.68576e-06 0 0)
(9.68617e-06 0 0)
(9.68657e-06 0 0)
(9.68695e-06 0 0)
(9.68732e-06 0 0)
(9.68766e-06 0 0)
(9.68798e-06 0 0)
(9.68829e-06 0 0)
(9.68858e-06 0 0)
(9.68885e-06 0 0)
(9.6891e-06 0 0)
(9.68934e-06 0 0)
(9.68956e-06 0 0)
(9.68977e-06 0 0)
(9.68997e-06 0 0)
(9.69015e-06 0 0)
(9.69032e-06 0 0)
(9.69048e-06 0 0)
(9.69064e-06 0 0)
(9.69078e-06 0 0)
(9.69092e-06 0 0)
(9.69105e-06 0 0)
(9.69118e-06 0 0)
(9.6913e-06 0 0)
(9.69142e-06 0 0)
(9.69153e-06 0 0)
(9.69165e-06 0 0)
(9.69176e-06 0 0)
(9.69187e-06 0 0)
(9.69198e-06 0 0)
(9.69209e-06 0 0)
(9.6922e-06 0 0)
(9.69231e-06 0 0)
(9.69242e-06 0 0)
(9.69253e-06 0 0)
(9.69265e-06 0 0)
(9.69276e-06 0 0)
(9.69287e-06 0 0)
(9.69299e-06 0 0)
(9.6931e-06 0 0)
(9.69322e-06 0 0)
(9.69333e-06 0 0)
(9.69345e-06 0 0)
(9.69357e-06 0 0)
(9.69369e-06 0 0)
(9.6938e-06 0 0)
(9.69392e-06 0 0)
(9.69404e-06 0 0)
(9.69415e-06 0 0)
(9.69427e-06 0 0)
(9.69438e-06 0 0)
(9.6945e-06 0 0)
(9.69461e-06 0 0)
(9.69472e-06 0 0)
(9.69484e-06 0 0)
(9.69495e-06 0 0)
(9.69505e-06 0 0)
(9.69516e-06 0 0)
(9.69526e-06 0 0)
(9.69536e-06 0 0)
(9.69546e-06 0 0)
(9.69556e-06 0 0)
(9.69566e-06 0 0)
(9.69575e-06 0 0)
(9.69584e-06 0 0)
(9.69593e-06 0 0)
(9.69601e-06 0 0)
(9.69609e-06 0 0)
(9.69617e-06 0 0)
(9.69625e-06 0 0)
(9.69632e-06 0 0)
(9.69639e-06 0 0)
(9.69646e-06 0 0)
(9.69652e-06 0 0)
(9.69658e-06 0 0)
(9.69663e-06 0 0)
(9.69669e-06 0 0)
(9.69674e-06 0 0)
(9.69678e-06 0 0)
(9.69682e-06 0 0)
(9.69686e-06 0 0)
(9.6969e-06 0 0)
(9.69693e-06 0 0)
(9.69696e-06 0 0)
(9.69698e-06 0 0)
(9.697e-06 0 0)
(9.69702e-06 0 0)
(9.69703e-06 0 0)
(9.69704e-06 0 0)
(9.69704e-06 0 0)
(9.69704e-06 0 0)
(9.69704e-06 0 0)
(9.69704e-06 0 0)
(9.69704e-06 0 0)
(9.69702e-06 0 0)
(9.69701e-06 0 0)
(9.69699e-06 0 0)
(9.69696e-06 0 0)
(9.69694e-06 0 0)
(9.69691e-06 0 0)
(9.69687e-06 0 0)
(9.69683e-06 0 0)
(9.69679e-06 0 0)
(9.69675e-06 0 0)
(9.6967e-06 0 0)
(9.69665e-06 0 0)
(9.6966e-06 0 0)
(9.69654e-06 0 0)
(9.69648e-06 0 0)
(9.69642e-06 0 0)
(9.69635e-06 0 0)
(9.69628e-06 0 0)
(9.69621e-06 0 0)
(9.69614e-06 0 0)
(9.69606e-06 0 0)
(9.69597e-06 0 0)
(9.69589e-06 0 0)
(9.69579e-06 0 0)
(9.6957e-06 0 0)
(9.6956e-06 0 0)
(9.6955e-06 0 0)
(9.69539e-06 0 0)
(9.69527e-06 0 0)
(9.69515e-06 0 0)
(9.69503e-06 0 0)
(9.6949e-06 0 0)
(9.69476e-06 0 0)
(9.69461e-06 0 0)
(9.69446e-06 0 0)
(9.6943e-06 0 0)
(9.69413e-06 0 0)
(9.69395e-06 0 0)
(9.69376e-06 0 0)
(9.69356e-06 0 0)
(9.69335e-06 0 0)
(9.69313e-06 0 0)
(9.6929e-06 0 0)
(9.69266e-06 0 0)
(9.6924e-06 0 0)
(9.69213e-06 0 0)
(9.69185e-06 0 0)
(9.69155e-06 0 0)
(9.69124e-06 0 0)
(9.69092e-06 0 0)
(9.69058e-06 0 0)
(9.69023e-06 0 0)
(9.68987e-06 0 0)
(9.68949e-06 0 0)
(9.68909e-06 0 0)
(9.68869e-06 0 0)
(9.68827e-06 0 0)
(9.68784e-06 0 0)
(9.6874e-06 0 0)
(9.68695e-06 0 0)
(9.68649e-06 0 0)
(9.68602e-06 0 0)
(9.68555e-06 0 0)
(9.68507e-06 0 0)
(9.68458e-06 0 0)
(9.6841e-06 0 0)
)
;

boundaryField
{
    inlet
    {
        type            fixedValue;
        value           uniform (0 0 0);
    }
    outlet
    {
        type            zeroGradient;
    }
    emptyWalls
    {
        type            empty;
    }
}


// ************************************************************************* //
