/*--------------------------------*- C++ -*----------------------------------*\
  =========                 |
  \\      /  F ield         | OpenFOAM: The Open Source CFD Toolbox
   \\    /   O peration     | Website:  https://openfoam.org
    \\  /    A nd           | Version:  9
     \\/     M anipulation  |
\*---------------------------------------------------------------------------*/
FoamFile
{
    format      ascii;
    class       volScalarField;
    location    "14100";
    object      p;
}
// * * * * * * * * * * * * * * * * * * * * * * * * * * * * * * * * * * * * * //

dimensions      [0 0 0 0 0 0 0];

internalField   nonuniform List<scalar> 
1000
(
216430
216006
215585
215167
214753
214343
213936
213532
213131
212734
212340
211949
211560
211173
210789
210406
210025
209649
209288
208978
208820
208721
208633
208547
208462
208378
208294
208211
208128
208046
207963
207881
207799
207717
207635
207553
207472
207390
207308
207227
207145
207064
206982
206900
206819
206737
206655
206574
206492
206410
206328
206245
206163
206080
205998
205914
205831
205747
205662
205578
205492
205407
205321
205234
205147
205060
204972
204884
204795
204706
204616
204526
204435
204345
204253
204161
204069
203977
203884
203790
203696
203602
203507
203412
203317
203221
203124
203028
202930
202833
202735
202637
202538
202439
202339
202239
202139
202038
201937
201835
201733
201631
201528
201425
201322
201218
201114
201009
200905
200799
200694
200588
200481
200375
200268
200160
200053
199944
199836
199727
199618
199508
199398
199287
199177
199065
198954
198842
198729
198617
198504
198390
198276
198162
198048
197933
197817
197702
197586
197470
197353
197236
197119
197001
196883
196764
196646
196527
196407
196287
196167
196047
195926
195805
195683
195562
195439
195317
195194
195071
194947
194824
194699
194575
194450
194325
194199
194073
193947
193821
193694
193567
193439
193311
193183
193055
192926
192797
192667
192538
192407
192277
192146
192015
191884
191752
191620
191487
191355
191222
191088
190955
190821
190686
190552
190417
190282
190146
190010
189874
189738
189601
189464
189326
189189
189051
188912
188773
188635
188495
188356
188216
188076
187935
187794
187653
187512
187370
187228
187086
186943
186800
186657
186513
186369
186225
186081
185936
185791
185645
185500
185354
185208
185061
184914
184767
184620
184472
184324
184176
184027
183878
183729
183580
183430
183280
183130
182979
182828
182677
182526
182374
182222
182070
181917
181764
181611
181458
181304
181150
180996
180841
180687
180531
180376
180220
180064
179908
179751
179594
179437
179279
179121
178963
178805
178646
178487
178327
178167
178007
177847
177687
177526
177365
177203
177041
176879
176717
176554
176391
176228
176065
175901
175737
175573
175408
175243
175078
174912
174747
174581
174414
174248
174081
173914
173746
173578
173410
173242
173073
172904
172735
172566
172396
172226
172056
171885
171714
171543
171372
171200
171028
170856
170683
170510
170337
170164
169990
169816
169642
169467
169292
169117
168942
168766
168590
168414
168237
168060
167883
167706
167528
167350
167172
166994
166815
166636
166456
166277
166097
165917
165736
165556
165375
165193
165012
164830
164648
164465
164283
164100
163917
163733
163549
163365
163181
162996
162811
162626
162441
162255
162069
161883
161696
161509
161322
161135
160947
160759
160571
160383
160194
160005
159816
159626
159436
159246
159056
158865
158674
158483
158291
158099
157907
157715
157522
157329
157136
156943
156749
156555
156361
156166
155972
155777
155581
155386
155190
154994
154797
154601
154404
154207
154009
153812
153614
153415
153217
153018
152819
152620
152420
152220
152020
151820
151619
151418
151217
151015
150814
150611
150409
150206
150003
149800
149596
149392
149188
148984
148779
148574
148368
148163
147956
147750
147544
147337
147129
146922
146714
146506
146298
146089
145880
145671
145461
145251
145041
144831
144620
144409
144198
143986
143774
143562
143349
143137
142924
142710
142497
142283
142068
141854
141639
141424
141208
140993
140776
140560
140343
140127
139909
139692
139474
139256
139037
138818
138599
138380
138160
137940
137720
137499
137278
137057
136836
136614
136392
136169
135946
135723
135500
135276
135052
134828
134603
134378
134153
133927
133701
133475
133249
133022
132795
132567
132339
132111
131883
131654
131425
131195
130965
130735
130505
130274
130043
129812
129580
129348
129116
128883
128650
128417
128184
127950
127716
127481
127247
127012
126777
126541
126306
126070
125834
125598
125362
125125
124889
124652
124415
124179
123942
123705
123468
123231
122993
122756
122519
122282
122044
121806
121567
121327
121086
120841
120591
120336
120074
119805
119533
119258
118981
118704
118427
118149
117871
117594
117316
117038
116761
116483
116205
115927
115650
115372
115095
114817
114539
114262
113984
113707
113429
113151
112874
112596
112319
112041
111764
111486
111209
110932
110654
110377
110099
109822
109545
109267
108990
108713
108436
108158
107881
107604
107326
107049
106772
106495
106217
105940
105663
105385
105108
104831
104553
104276
103999
103721
103444
103167
102889
102612
102334
102057
101779
101502
101224
100947
100669
100392
100114
99836.7
99559.1
99281.5
99003.9
98726.3
98448.7
98171.1
97893.5
97615.8
97338.2
97060.5
96782.9
96505.2
96227.5
95949.9
95672.2
95394.5
95116.8
94839.1
94561.4
94283.7
94006
93728.3
93450.6
93172.9
92895.2
92617.5
92339.8
92062.1
91784.4
91506.7
91228.9
90951.2
90673.5
90395.8
90118
89840.3
89562.6
89284.8
89007.1
88729.3
88451.6
88173.8
87896.1
87618.3
87340.6
87062.8
86785
86507.3
86229.5
85951.7
85673.9
85396.2
85118.4
84840.6
84562.8
84285
84007.2
83729.4
83451.6
83173.8
82896
82618.2
82340.4
82062.6
81784.7
81506.9
81229.1
80951.3
80673.5
80395.6
80117.8
79840
79562.1
79284.3
79006.5
78728.6
78450.8
78172.9
77895.1
77617.3
77339.4
77061.6
76783.7
76505.9
76228
75950.2
75672.3
75394.5
75116.6
74838.8
74561
74283.1
74005.3
73727.4
73449.6
73171.7
72893.9
72616
72338.2
72060.3
71782.5
71504.6
71226.8
70949
70671.1
70393.3
70115.4
69837.6
69559.8
69281.9
69004.1
68726.3
68448.5
68170.6
67892.8
67615
67337.2
67059.3
66781.5
66503.7
66225.9
65948.1
65670.3
65392.5
65114.7
64836.9
64559.1
64281.3
64003.5
63725.7
63448
63170.2
62892.4
62614.7
62336.9
62059.1
61781.4
61503.6
61225.9
60948.2
60670.4
60392.7
60115
59837.3
59559.6
59281.9
59004.3
58726.6
58448.9
58171.3
57893.7
57616
57338.4
57060.8
56783.2
56505.7
56228.1
55950.6
55673
55395.5
55118
54840.5
54563
54285.6
54008.1
53730.7
53453.3
53175.9
52898.5
52621.1
52343.7
52066.4
51789
51511.7
51234.3
50957
50679.7
50402.4
50125.1
49847.7
49570.4
49293.1
49015.8
48738.5
48461.2
48183.9
47906.6
47629.3
47351.9
47074.6
46797.3
46519.9
46242.5
45965.2
45687.8
45410.4
45133
44855.5
44578.1
44300.7
44023.2
43745.7
43468.2
43190.7
42913.2
42635.7
42358.1
42080.6
41803
41525.4
41247.9
40970.3
40692.7
40415
40137.4
39859.8
39582.2
39304.5
39026.9
38749.2
38471.6
38193.9
37916.2
37638.6
37360.9
37083.2
36805.5
36527.8
36250.1
35972.4
35694.7
35417
35139.3
34861.6
34583.9
34306.2
34028.5
33750.7
33473
33195.3
32917.6
32639.8
32362.1
32084.3
31806.6
31528.9
31251.1
30973.4
30695.6
30417.9
30140.1
29862.3
29584.6
29306.8
29029
28751.2
28473.5
28195.7
27917.9
27640.1
27362.3
27084.5
26806.8
26529
26251.2
25973.4
25695.6
25417.8
25139.9
24862.1
24584.3
24306.5
24028.7
23750.9
23473.1
23195.2
22917.4
22639.6
22361.8
22083.9
21806.1
21528.3
21250.5
20972.6
20694.8
20417
20139.1
19861.3
19583.5
19305.6
19027.8
18750
18472.1
18194.3
17916.5
17638.6
17360.8
17082.9
16805.1
16527.3
16249.4
15971.6
15693.8
15415.9
15138.1
14860.3
14582.4
14304.6
14026.8
13749
13471.1
13193.3
12915.5
12637.6
12359.8
12082
11804.2
11526.4
11248.6
10970.7
10692.9
10415.1
10137.3
9859.5
9581.69
9303.89
9026.09
8748.29
8470.5
8192.71
7914.92
7637.13
7359.35
7081.56
6803.79
6526.01
6248.24
5970.48
5692.72
5414.96
5137.21
4859.46
4581.72
4303.98
4026.25
3748.52
3470.8
3193.09
2915.39
2637.69
2360
2082.32
1804.64
1526.98
1249.33
971.679
694.043
416.418
138.802
)
;

boundaryField
{
    inlet
    {
        type            darcyGradPressure;
        gradient        uniform 116344;
        Mf              Mf;
        phi             phi;
        value           uniform 216643;
    }
    outlet
    {
        type            fixedValue;
        value           uniform 0;
    }
    emptyWalls
    {
        type            empty;
    }
}


// ************************************************************************* //
