/*--------------------------------*- C++ -*----------------------------------*\
  =========                 |
  \\      /  F ield         | OpenFOAM: The Open Source CFD Toolbox
   \\    /   O peration     | Website:  https://openfoam.org
    \\  /    A nd           | Version:  9
     \\/     M anipulation  |
\*---------------------------------------------------------------------------*/
FoamFile
{
    format      ascii;
    class       volScalarField;
    location    "11900";
    object      Fb;
}
// * * * * * * * * * * * * * * * * * * * * * * * * * * * * * * * * * * * * * //

dimensions      [0 0 0 0 0 0 0];

internalField   nonuniform List<scalar> 
1000
(
0.80528
0.805204
0.805248
0.805236
0.80527
0.805283
0.805335
0.805376
0.805441
0.805481
0.805531
0.805609
0.805553
0.805823
0.805769
0.806874
0.81568
0.831061
0.833516
0.834409
0.834905
0.835236
0.835503
0.835703
0.835889
0.836029
0.836167
0.836269
0.836371
0.83645
0.836506
0.836564
0.836605
0.836634
0.83666
0.836657
0.836665
0.836649
0.836617
0.836572
0.836503
0.836413
0.836284
0.836111
0.835868
0.835549
0.835144
0.834691
0.834205
0.833694
0.833166
0.832624
0.832071
0.831509
0.830939
0.830363
0.829782
0.829196
0.828607
0.828016
0.827422
0.826826
0.826228
0.825628
0.825024
0.824416
0.823803
0.823183
0.822557
0.821925
0.821289
0.820653
0.820016
0.819379
0.818738
0.818087
0.817422
0.816735
0.816023
0.815283
0.814517
0.813728
0.81292
0.812097
0.811265
0.810428
0.809591
0.808761
0.807943
0.807145
0.806372
0.805632
0.80493
0.804273
0.803661
0.803094
0.802571
0.802085
0.801628
0.801192
0.800767
0.800342
0.799909
0.79946
0.798988
0.79849
0.797962
0.797406
0.796822
0.796211
0.795578
0.794926
0.794257
0.793578
0.79289
0.792198
0.791502
0.790807
0.790112
0.789421
0.788731
0.788047
0.787364
0.786687
0.786009
0.785337
0.784664
0.783994
0.783323
0.782655
0.781985
0.781315
0.780644
0.779973
0.7793
0.778627
0.777951
0.777275
0.776597
0.775917
0.775236
0.774554
0.77387
0.773184
0.772497
0.771808
0.771118
0.770426
0.769733
0.769038
0.768342
0.767644
0.766944
0.766243
0.765541
0.764837
0.764131
0.763424
0.762715
0.762005
0.761293
0.760579
0.759863
0.759146
0.758428
0.757707
0.756985
0.756261
0.755535
0.754807
0.754078
0.753347
0.752614
0.751879
0.751143
0.750405
0.749664
0.748923
0.748179
0.747433
0.746686
0.745937
0.745187
0.744435
0.743681
0.742925
0.742168
0.74141
0.740651
0.73989
0.739128
0.738365
0.737601
0.736835
0.736069
0.735301
0.734532
0.733761
0.732989
0.732216
0.73144
0.730663
0.729885
0.729105
0.728323
0.72754
0.726754
0.725966
0.725175
0.724381
0.723582
0.722779
0.721971
0.721157
0.720335
0.719507
0.718671
0.717826
0.716974
0.716113
0.715244
0.714367
0.713483
0.712594
0.711699
0.7108
0.709899
0.708997
0.708097
0.707199
0.706306
0.70542
0.704543
0.703677
0.702823
0.701982
0.701157
0.700346
0.699551
0.698772
0.698008
0.697257
0.696518
0.69579
0.695069
0.694355
0.693643
0.692933
0.692221
0.691506
0.690785
0.690056
0.68932
0.688574
0.687818
0.687052
0.686275
0.685489
0.684693
0.683887
0.683074
0.682252
0.681424
0.68059
0.679751
0.678908
0.678061
0.677212
0.67636
0.675506
0.67465
0.673794
0.672937
0.672079
0.671221
0.670362
0.669503
0.668643
0.667783
0.666922
0.666061
0.665198
0.664334
0.66347
0.662603
0.661736
0.660867
0.659996
0.659123
0.658249
0.657372
0.656494
0.655613
0.65473
0.653845
0.652957
0.652067
0.651176
0.650281
0.649384
0.648485
0.647584
0.64668
0.645774
0.644865
0.643955
0.643041
0.642126
0.641207
0.640287
0.639364
0.638439
0.637511
0.636581
0.635648
0.634713
0.633775
0.632834
0.631891
0.630946
0.629998
0.629047
0.628094
0.627137
0.626178
0.625217
0.624252
0.623285
0.622315
0.621342
0.620366
0.619388
0.618406
0.617422
0.616434
0.615444
0.614449
0.613454
0.612453
0.611453
0.610444
0.609439
0.608424
0.607412
0.606391
0.605373
0.604345
0.603321
0.602288
0.601257
0.600218
0.599179
0.598135
0.597089
0.59604
0.594986
0.593931
0.59287
0.591808
0.590741
0.589671
0.588598
0.58752
0.58644
0.585355
0.584267
0.583174
0.582077
0.580976
0.579871
0.578761
0.577647
0.576527
0.575403
0.574273
0.573138
0.571996
0.570849
0.569696
0.568536
0.56737
0.566196
0.565016
0.563829
0.562634
0.561433
0.560224
0.559009
0.557786
0.556557
0.555321
0.554079
0.55283
0.551576
0.550317
0.549053
0.547785
0.546512
0.545237
0.543958
0.542677
0.541394
0.54011
0.538824
0.537538
0.536252
0.534966
0.533679
0.532393
0.531107
0.529821
0.528535
0.527248
0.52596
0.524671
0.52338
0.522085
0.520788
0.519486
0.518178
0.516865
0.515544
0.514217
0.512881
0.511537
0.510183
0.508819
0.507446
0.506061
0.504665
0.503259
0.501842
0.500415
0.498977
0.497529
0.496071
0.494603
0.493128
0.491645
0.490157
0.488663
0.487166
0.485667
0.484169
0.482674
0.481186
0.479709
0.478246
0.476801
0.475381
0.47399
0.472636
0.471325
0.470063
0.468857
0.467714
0.46664
0.465639
0.464716
0.463875
0.463115
0.462436
0.461834
0.461304
0.460837
0.46042
0.460029
0.459628
0.459159
0.458521
0.45754
0.455915
0.453122
0.44828
0.439961
0.426073
0.404076
0.372155
0.331538
0.288113
0.249933
0.221947
0.204126
0.193792
0.188123
0.18511
0.183535
0.18272
0.1823
0.182084
0.181974
0.181919
0.181891
0.181877
0.18187
0.181868
0.181867
0.181867
0.181868
0.181869
0.18187
0.181871
0.181871
0.181872
0.181873
0.181874
0.181875
0.181875
0.181876
0.181876
0.181877
0.181877
0.181878
0.181878
0.181878
0.181878
0.181878
0.181879
0.181879
0.181879
0.181879
0.181878
0.181878
0.181878
0.181877
0.181877
0.181877
0.181876
0.181875
0.181875
0.181874
0.181873
0.181872
0.181871
0.18187
0.181869
0.181867
0.181866
0.181864
0.181863
0.181861
0.18186
0.181858
0.181856
0.181855
0.181853
0.181851
0.181849
0.181847
0.181845
0.181842
0.18184
0.181838
0.181836
0.181833
0.181831
0.181828
0.181825
0.181822
0.18182
0.181817
0.181813
0.18181
0.181806
0.181803
0.181799
0.181794
0.18179
0.181785
0.18178
0.181775
0.181769
0.181763
0.181757
0.18175
0.181742
0.181735
0.181726
0.181718
0.181709
0.181699
0.181689
0.181679
0.181668
0.181657
0.181645
0.181633
0.181621
0.181608
0.181596
0.181583
0.18157
0.181557
0.181544
0.181531
0.181518
0.181506
0.181494
0.181483
0.181472
0.181461
0.181452
0.181443
0.181435
0.181428
0.181422
0.181417
0.181413
0.181411
0.18141
0.18141
0.18141
0.18141
0.181412
0.181417
0.181423
0.18143
0.181437
0.181446
0.181456
0.181466
0.181477
0.181488
0.1815
0.181512
0.181524
0.181537
0.181549
0.181562
0.181574
0.181586
0.181597
0.181608
0.181619
0.181629
0.181639
0.181648
0.181657
0.181665
0.181672
0.181679
0.181685
0.181691
0.181696
0.181701
0.181706
0.18171
0.181713
0.181716
0.18172
0.181722
0.181725
0.181727
0.181729
0.181731
0.181733
0.181735
0.181737
0.181739
0.181741
0.181743
0.181745
0.181747
0.181749
0.181751
0.181753
0.181755
0.181757
0.181759
0.181762
0.181764
0.181767
0.181769
0.181772
0.181774
0.181777
0.18178
0.181782
0.181785
0.181788
0.181791
0.181793
0.181796
0.181799
0.181801
0.181804
0.181806
0.181808
0.181811
0.181813
0.181815
0.181818
0.18182
0.181822
0.181824
0.181826
0.181827
0.181829
0.18183
0.181832
0.181833
0.181835
0.181836
0.181837
0.181839
0.18184
0.181841
0.181842
0.181843
0.181844
0.181846
0.181847
0.181848
0.181849
0.18185
0.181851
0.181852
0.181853
0.181853
0.181854
0.181855
0.181856
0.181856
0.181857
0.181857
0.181857
0.181858
0.181858
0.181858
0.181858
0.181858
0.181857
0.181857
0.181857
0.181856
0.181856
0.181855
0.181854
0.181854
0.181853
0.181852
0.181851
0.18185
0.181849
0.181848
0.181847
0.181845
0.181844
0.181843
0.181841
0.18184
0.181838
0.181837
0.181835
0.181833
0.181832
0.18183
0.181828
0.181826
0.181824
0.181822
0.181819
0.181817
0.181815
0.181812
0.181809
0.181806
0.181803
0.1818
0.181797
0.181793
0.181789
0.181785
0.181781
0.181777
0.181772
0.181767
0.181761
0.181756
0.18175
0.181743
0.181737
0.181729
0.181722
0.181714
0.181706
0.181698
0.181689
0.18168
0.181671
0.181661
0.181651
0.18164
0.18163
0.181619
0.181608
0.181597
0.181586
0.181575
0.181564
0.181553
0.181542
0.181531
0.18152
0.18151
0.1815
0.181491
0.181481
0.181473
0.181465
0.181458
0.181451
0.181445
0.181441
0.181436
0.181433
0.181431
0.18143
0.181429
0.181429
0.181429
0.18143
0.181433
0.181437
0.181442
0.181448
0.181455
0.181462
0.18147
0.181479
0.181488
0.181498
0.181508
0.181518
0.181529
0.181539
0.18155
0.181561
0.181571
0.181582
0.181592
0.181602
0.181612
0.181621
0.18163
0.181639
0.181647
0.181655
0.181663
0.18167
0.181677
0.181683
0.181689
0.181694
0.1817
0.181704
0.181709
0.181713
0.181717
0.181721
0.181725
0.181728
0.181731
0.181734
0.181737
0.18174
0.181743
0.181745
0.181748
0.181751
0.181753
0.181756
0.181758
0.181761
0.181763
0.181766
0.181769
0.181771
0.181774
0.181777
0.181779
0.181782
0.181785
0.181787
0.18179
0.181793
0.181795
0.181798
0.181801
0.181803
0.181806
0.181809
0.181811
0.181814
0.181816
0.181819
0.181821
0.181823
0.181826
0.181828
0.18183
0.181832
0.181834
0.181836
0.181838
0.18184
0.181842
0.181843
0.181845
0.181846
0.181848
0.181849
0.181851
0.181852
0.181853
0.181854
0.181855
0.181856
0.181857
0.181858
0.181859
0.181859
0.18186
0.18186
0.181861
0.181861
0.181861
0.181862
0.181862
0.181862
0.181862
0.181862
0.181862
0.181862
0.181861
0.181861
0.181861
0.18186
0.18186
0.181859
0.181858
0.181858
0.181857
0.181856
0.181855
0.181854
0.181853
0.181852
0.181851
0.18185
0.181849
0.181847
0.181846
0.181845
0.181843
0.181842
0.18184
0.181839
0.181837
0.181835
0.181834
0.181832
0.18183
0.181828
0.181826
0.181824
0.181822
0.181819
0.181817
0.181814
0.181812
0.181808
0.181807
0.181802
0.181801
0.181795
0.181794
0.181788
0.181786
0.18178
0.181778
0.181771
0.181769
0.181761
0.181759
0.18175
0.181748
0.181738
0.181735
0.181725
0.181722
0.181711
0.181708
0.181696
0.181692
0.181679
0.181676
0.181662
0.181659
0.181641
)
;

boundaryField
{
    inlet
    {
        type            calculated;
        value           uniform 0.805169;
    }
    outlet
    {
        type            calculated;
        value           uniform 0.181642;
    }
    emptyWalls
    {
        type            empty;
    }
}


// ************************************************************************* //
