/*--------------------------------*- C++ -*----------------------------------*\
  =========                 |
  \\      /  F ield         | OpenFOAM: The Open Source CFD Toolbox
   \\    /   O peration     | Website:  https://openfoam.org
    \\  /    A nd           | Version:  9
     \\/     M anipulation  |
\*---------------------------------------------------------------------------*/
FoamFile
{
    format      ascii;
    class       volScalarField;
    location    "14900";
    object      Fb;
}
// * * * * * * * * * * * * * * * * * * * * * * * * * * * * * * * * * * * * * //

dimensions      [0 0 0 0 0 0 0];

internalField   nonuniform List<scalar> 
1000
(
0.805241
0.805215
0.805228
0.805224
0.80525
0.805248
0.805288
0.805315
0.805351
0.805399
0.805416
0.805519
0.805456
0.805667
0.805491
0.805765
0.805562
0.805798
0.805768
0.806326
0.810981
0.828585
0.832175
0.832579
0.832231
0.831909
0.83214
0.832717
0.83326
0.833974
0.834776
0.835415
0.835867
0.836145
0.836289
0.836355
0.836304
0.836208
0.836141
0.836113
0.836093
0.836063
0.836063
0.836052
0.83607
0.836078
0.836085
0.836086
0.83608
0.836067
0.836041
0.836003
0.835948
0.835873
0.835767
0.835625
0.835431
0.835184
0.834879
0.834541
0.834179
0.8338
0.833408
0.833005
0.832593
0.832175
0.831751
0.831321
0.830887
0.830449
0.830006
0.82956
0.829111
0.828658
0.828202
0.827743
0.827281
0.826816
0.826348
0.825878
0.825404
0.824929
0.824451
0.82397
0.823488
0.823003
0.822515
0.822026
0.821534
0.821039
0.820543
0.820044
0.819543
0.81904
0.818535
0.818029
0.817522
0.817015
0.816507
0.815999
0.81549
0.814979
0.814468
0.813954
0.813439
0.81292
0.812399
0.811875
0.811349
0.810822
0.810295
0.809769
0.809243
0.808717
0.808187
0.807652
0.807107
0.806551
0.805979
0.80539
0.804782
0.804157
0.803515
0.802857
0.802186
0.801505
0.800816
0.800123
0.799431
0.798743
0.798064
0.797398
0.796752
0.796128
0.795533
0.794968
0.794437
0.793939
0.793475
0.79304
0.792633
0.792246
0.791876
0.791514
0.791156
0.790794
0.790424
0.790041
0.789642
0.789225
0.788788
0.788332
0.787856
0.787363
0.786854
0.786332
0.785798
0.785255
0.784704
0.784149
0.783591
0.783031
0.782471
0.781911
0.781353
0.780796
0.780241
0.779688
0.779137
0.778588
0.778041
0.777495
0.77695
0.776407
0.775863
0.775321
0.774778
0.774236
0.773693
0.77315
0.772606
0.772062
0.771517
0.770971
0.770424
0.769877
0.769328
0.768778
0.768228
0.767676
0.767123
0.766569
0.766014
0.765458
0.764901
0.764342
0.763782
0.763221
0.762659
0.762095
0.761531
0.760964
0.760397
0.759828
0.759258
0.758687
0.758115
0.757541
0.756966
0.756389
0.755812
0.755233
0.754652
0.754071
0.753488
0.752904
0.752319
0.751732
0.751144
0.750555
0.749964
0.749372
0.748779
0.748185
0.747589
0.746992
0.746394
0.745795
0.745195
0.744595
0.743993
0.74339
0.742787
0.742182
0.741577
0.74097
0.740363
0.739755
0.739145
0.738535
0.737924
0.737311
0.736697
0.736083
0.735467
0.734851
0.734233
0.733614
0.732994
0.732371
0.731747
0.731119
0.730488
0.729854
0.729215
0.72857
0.72792
0.727264
0.726601
0.725931
0.725254
0.724569
0.723878
0.72318
0.722476
0.721766
0.721052
0.720334
0.719613
0.718892
0.71817
0.717451
0.716735
0.716025
0.715321
0.714626
0.71394
0.713266
0.712604
0.711955
0.711319
0.710697
0.710089
0.709493
0.70891
0.708337
0.707774
0.707218
0.706668
0.706121
0.705577
0.705032
0.704486
0.703936
0.703382
0.702821
0.702254
0.701679
0.701097
0.700506
0.699908
0.699302
0.698689
0.698069
0.697443
0.696811
0.696174
0.695532
0.694887
0.694239
0.693588
0.692934
0.692279
0.691623
0.690966
0.690308
0.68965
0.688991
0.688332
0.687673
0.687013
0.686354
0.685694
0.685035
0.684375
0.683715
0.683054
0.682393
0.681732
0.681069
0.680407
0.679743
0.679079
0.678413
0.677748
0.67708
0.676413
0.675743
0.675073
0.6744
0.673729
0.673054
0.67238
0.671702
0.671025
0.670344
0.669664
0.668981
0.668298
0.667613
0.666927
0.666238
0.665549
0.664858
0.664165
0.663471
0.662776
0.662078
0.66138
0.660679
0.659978
0.659274
0.658569
0.657863
0.657154
0.656445
0.655733
0.65502
0.654306
0.653589
0.652871
0.652152
0.651431
0.650708
0.649983
0.649257
0.648529
0.6478
0.647069
0.646336
0.645602
0.644866
0.644128
0.643389
0.642648
0.641906
0.641162
0.640417
0.639669
0.638921
0.638171
0.637419
0.636665
0.63591
0.635154
0.634396
0.633636
0.632874
0.632111
0.631347
0.63058
0.629812
0.629042
0.62827
0.627496
0.62672
0.625943
0.625162
0.62438
0.623594
0.622807
0.622016
0.621222
0.620424
0.619624
0.618819
0.618011
0.617198
0.616381
0.61556
0.614735
0.613905
0.61307
0.612231
0.611388
0.61054
0.609688
0.608833
0.607974
0.607112
0.606247
0.605379
0.60451
0.603639
0.602768
0.601897
0.601025
0.600155
0.599287
0.59842
0.597556
0.596696
0.595839
0.594986
0.594137
0.593293
0.592453
0.591618
0.590788
0.589961
0.589139
0.588321
0.587505
0.586693
0.585882
0.585072
0.584263
0.583454
0.582644
0.581832
0.581019
0.580202
0.579381
0.578557
0.577728
0.576895
0.576056
0.575212
0.574362
0.573507
0.572646
0.571779
0.570907
0.570029
0.569146
0.568258
0.567365
0.566467
0.565564
0.564657
0.563746
0.562831
0.561912
0.560989
0.560063
0.559133
0.5582
0.557263
0.556323
0.55538
0.554434
0.553485
0.552533
0.551578
0.550619
0.549658
0.548693
0.547725
0.546754
0.545779
0.544801
0.54382
0.542835
0.541847
0.540855
0.539859
0.538859
0.537856
0.536848
0.535837
0.534822
0.533802
0.532778
0.531751
0.530718
0.529682
0.52864
0.527595
0.526545
0.52549
0.524431
0.523366
0.522297
0.521223
0.520144
0.51906
0.517971
0.516878
0.515778
0.514674
0.513564
0.51245
0.511329
0.510204
0.509073
0.507937
0.506795
0.505647
0.504494
0.503336
0.502172
0.501002
0.499828
0.498648
0.497462
0.496272
0.495076
0.493876
0.492671
0.491462
0.49025
0.489034
0.487815
0.486594
0.485371
0.484149
0.482927
0.481708
0.480493
0.479284
0.478082
0.476891
0.475713
0.474553
0.473412
0.472295
0.471206
0.470148
0.469128
0.468149
0.467214
0.466329
0.465496
0.464718
0.463999
0.463338
0.462738
0.462197
0.461714
0.461285
0.460912
0.460584
0.460305
0.460058
0.459848
0.459649
0.45946
0.459244
0.458976
0.458571
0.457923
0.456818
0.454885
0.451507
0.44561
0.435561
0.419022
0.393538
0.358085
0.315553
0.273172
0.2384
0.214319
0.199564
0.191206
0.186679
0.184282
0.183031
0.182378
0.182036
0.181855
0.181756
0.1817
0.181665
0.181642
0.181624
0.181609
0.181596
0.181583
0.181571
0.181559
0.181548
0.181537
0.181527
0.181517
0.181508
0.181499
0.181491
0.181483
0.181477
0.181471
0.181467
0.181463
0.181461
0.181459
0.181459
0.181459
0.181459
0.181461
0.181465
0.181469
0.181475
0.181481
0.181488
0.181496
0.181504
0.181513
0.181522
0.181532
0.181542
0.181553
0.181563
0.181574
0.181585
0.181595
0.181606
0.181616
0.181626
0.181635
0.181645
0.181653
0.181662
0.18167
0.181677
0.181684
0.181691
0.181697
0.181702
0.181707
0.181712
0.181716
0.18172
0.181724
0.181727
0.18173
0.181732
0.181735
0.181737
0.181739
0.181741
0.181743
0.181744
0.181746
0.181747
0.181748
0.18175
0.181751
0.181752
0.181753
0.181755
0.181756
0.181757
0.181759
0.18176
0.181762
0.181763
0.181765
0.181766
0.181768
0.18177
0.181772
0.181773
0.181775
0.181777
0.181779
0.181781
0.181783
0.181785
0.181787
0.181789
0.181791
0.181793
0.181795
0.181797
0.181799
0.181801
0.181803
0.181805
0.181807
0.181809
0.181811
0.181812
0.181814
0.181816
0.181818
0.18182
0.181822
0.181824
0.181825
0.181827
0.181829
0.18183
0.181832
0.181833
0.181835
0.181836
0.181838
0.181839
0.18184
0.181841
0.181842
0.181844
0.181845
0.181846
0.181846
0.181847
0.181848
0.181849
0.181849
0.18185
0.18185
0.181851
0.181851
0.181851
0.181851
0.181851
0.181851
0.181852
0.181851
0.181851
0.181851
0.181851
0.18185
0.18185
0.181849
0.181849
0.181848
0.181847
0.181847
0.181846
0.181845
0.181844
0.181843
0.181842
0.181841
0.18184
0.181838
0.181837
0.181836
0.181834
0.181833
0.181831
0.18183
0.181828
0.181826
0.181824
0.181822
0.18182
0.181818
0.181815
0.181813
0.18181
0.181807
0.181804
0.181801
0.181797
0.181794
0.18179
0.181785
0.181781
0.181776
0.181771
0.181766
0.18176
0.181754
0.181748
0.181741
0.181734
0.181727
0.181719
0.181711
0.181703
0.181694
0.181685
0.181676
0.181667
0.181657
0.181647
0.181637
0.181627
0.181617
0.181607
0.181597
0.181587
0.181578
0.181568
0.181558
0.181549
0.18154
0.181531
0.181523
0.181515
0.181507
0.1815
0.181494
0.181488
0.181483
0.181478
0.181474
0.181471
0.181469
0.181467
0.181467
0.181467
0.181467
0.181467
0.181469
0.181472
0.181476
0.181481
0.181487
0.181493
0.181499
0.181506
0.181514
0.181522
0.181531
0.18154
0.181549
0.181558
0.181567
0.181576
0.181586
0.181595
0.181604
0.181613
0.181622
0.18163
0.181639
0.181647
0.181654
0.181662
0.181669
0.181675
0.181682
0.181688
0.181693
0.181699
0.181703
0.181708
0.181713
0.181717
0.18172
0.181724
0.181727
0.181731
0.181734
0.181736
0.181739
0.181742
0.181744
0.181747
0.181749
0.181751
0.181753
0.181755
0.181757
0.181759
0.181762
0.181764
0.181766
0.181768
0.18177
0.181772
0.181774
0.181776
0.181778
0.18178
0.181782
0.181785
0.181787
0.181789
0.181791
0.181793
0.181795
0.181798
0.1818
0.181802
0.181804
0.181806
0.181809
0.181811
0.181813
0.181815
0.181817
0.181819
0.181821
0.181823
0.181825
0.181827
0.181828
0.18183
0.181832
0.181834
0.181835
0.181837
0.181838
0.18184
0.181841
0.181843
0.181844
0.181845
0.181846
0.181847
0.181848
0.181849
0.18185
0.181851
0.181852
0.181853
0.181853
0.181854
0.181854
0.181855
0.181855
0.181855
0.181856
0.181856
0.181856
0.181856
0.181856
0.181856
0.181856
0.181855
0.181855
0.181855
0.181854
0.181853
0.181853
0.181852
0.181852
0.181851
0.18185
0.181849
0.181848
0.181847
0.181846
0.181844
0.181844
0.181842
0.181841
0.181839
0.181838
0.181836
0.181835
0.181832
0.181832
0.181829
0.181828
0.181825
0.181824
0.18182
0.181819
0.181815
0.181814
0.18181
0.181809
0.181804
0.181802
0.181794
)
;

boundaryField
{
    inlet
    {
        type            calculated;
        value           uniform 0.805169;
    }
    outlet
    {
        type            calculated;
        value           uniform 0.181796;
    }
    emptyWalls
    {
        type            empty;
    }
}


// ************************************************************************* //
