/*--------------------------------*- C++ -*----------------------------------*\
  =========                 |
  \\      /  F ield         | OpenFOAM: The Open Source CFD Toolbox
   \\    /   O peration     | Website:  https://openfoam.org
    \\  /    A nd           | Version:  9
     \\/     M anipulation  |
\*---------------------------------------------------------------------------*/
FoamFile
{
    format      ascii;
    class       volScalarField;
    location    "9350";
    object      Fa;
}
// * * * * * * * * * * * * * * * * * * * * * * * * * * * * * * * * * * * * * //

dimensions      [0 0 0 0 0 0 0];

internalField   nonuniform List<scalar> 
1000
(
0.194908
0.19457
0.194968
0.194383
0.194831
0.194223
0.19453
0.194102
0.194214
0.193948
0.193742
0.192627
0.184426
0.158455
0.153397
0.152476
0.152394
0.152101
0.151307
0.150535
0.149794
0.148835
0.147952
0.14723
0.146673
0.146291
0.146028
0.145934
0.145825
0.145786
0.145761
0.145739
0.145707
0.145666
0.145623
0.145591
0.145578
0.14555
0.145509
0.145462
0.145407
0.14535
0.14529
0.14523
0.145168
0.145108
0.145047
0.144987
0.144927
0.144868
0.144808
0.144749
0.144691
0.144634
0.144578
0.144523
0.144469
0.144417
0.144367
0.144319
0.144272
0.144228
0.144186
0.144146
0.144107
0.14407
0.144033
0.143998
0.143963
0.143929
0.143895
0.143861
0.143826
0.143792
0.143759
0.143725
0.143692
0.143659
0.143627
0.143595
0.143564
0.143533
0.143503
0.143475
0.143446
0.143419
0.143393
0.143367
0.143342
0.143318
0.143295
0.143273
0.143252
0.143231
0.143211
0.143192
0.143173
0.143155
0.143138
0.14312
0.143103
0.143086
0.143068
0.143049
0.14303
0.143011
0.142993
0.142975
0.142959
0.142944
0.142932
0.142921
0.142912
0.142904
0.142897
0.142892
0.142889
0.142888
0.142892
0.142903
0.142921
0.142949
0.142989
0.143042
0.143108
0.143189
0.143283
0.143389
0.143507
0.143635
0.143769
0.143907
0.144046
0.144182
0.144311
0.144429
0.144531
0.144613
0.14467
0.144699
0.144698
0.144664
0.144597
0.144497
0.144365
0.144206
0.144024
0.143823
0.143609
0.143388
0.143166
0.142948
0.142738
0.142542
0.142361
0.142198
0.142054
0.141928
0.141821
0.141731
0.141657
0.141597
0.141548
0.141509
0.141476
0.14145
0.141426
0.141405
0.141384
0.141362
0.141339
0.141313
0.141285
0.141254
0.141221
0.141184
0.141144
0.141102
0.141058
0.141012
0.140963
0.140913
0.140862
0.14081
0.140757
0.140703
0.140649
0.140595
0.14054
0.140485
0.14043
0.140376
0.140321
0.140267
0.140213
0.14016
0.140107
0.140055
0.140004
0.139953
0.139903
0.139853
0.139805
0.139758
0.139711
0.139665
0.139621
0.139577
0.139534
0.139491
0.13945
0.139409
0.13937
0.139331
0.139292
0.139254
0.139217
0.139181
0.139145
0.13911
0.139075
0.13904
0.139007
0.138973
0.13894
0.138908
0.138875
0.138843
0.138812
0.138781
0.138749
0.13872
0.138689
0.13866
0.138629
0.138602
0.13857
0.138545
0.138513
0.13849
0.138458
0.138435
0.138404
0.138382
0.138352
0.13833
0.138301
0.138279
0.138252
0.138228
0.138204
0.138179
0.138156
0.138131
0.138108
0.138084
0.138061
0.138037
0.138014
0.137992
0.137969
0.137947
0.137924
0.137903
0.137882
0.137862
0.137842
0.137823
0.137804
0.137787
0.137771
0.137756
0.137743
0.137732
0.137723
0.137716
0.137712
0.137712
0.137715
0.137722
0.137734
0.13775
0.137771
0.137797
0.137828
0.137864
0.137906
0.137952
0.138002
0.138057
0.138115
0.138176
0.138239
0.138304
0.138368
0.138431
0.138492
0.138549
0.138601
0.138647
0.138685
0.138714
0.138734
0.138742
0.138738
0.138721
0.138691
0.138647
0.138589
0.138518
0.138434
0.138338
0.13823
0.138112
0.137986
0.137853
0.137715
0.137573
0.137429
0.137285
0.137142
0.137002
0.136866
0.136735
0.136609
0.13649
0.136377
0.136272
0.136174
0.136083
0.135999
0.135921
0.135849
0.135783
0.135721
0.135664
0.135611
0.135561
0.135514
0.135469
0.135426
0.135383
0.135342
0.135301
0.135261
0.13522
0.135179
0.135138
0.135096
0.135054
0.135012
0.13497
0.134927
0.134885
0.134843
0.134802
0.134761
0.134722
0.134684
0.134647
0.134612
0.134579
0.134547
0.134517
0.134487
0.134458
0.134427
0.134393
0.13435
0.134291
0.134202
0.134064
0.133846
0.133514
0.133052
0.132498
0.131967
0.131577
0.131347
0.131225
0.131162
0.131125
0.131102
0.131085
0.131071
0.131059
0.131048
0.131038
0.131029
0.13102
0.131012
0.131003
0.130996
0.130989
0.130982
0.130976
0.130971
0.130965
0.130961
0.130957
0.130953
0.13095
0.130947
0.130945
0.130943
0.130941
0.13094
0.13094
0.130939
0.130939
0.130939
0.13094
0.130941
0.130942
0.130944
0.130945
0.130947
0.13095
0.130952
0.130955
0.130958
0.13096
0.130964
0.130967
0.130971
0.130974
0.130978
0.130982
0.130987
0.130991
0.130996
0.131
0.131005
0.13101
0.131016
0.131021
0.131027
0.131033
0.131039
0.131045
0.131051
0.131058
0.131065
0.131072
0.131079
0.131086
0.131094
0.131102
0.13111
0.131118
0.131127
0.131136
0.131145
0.131155
0.131165
0.131175
0.131186
0.131197
0.131209
0.131222
0.131235
0.131249
0.131264
0.13128
0.131297
0.131315
0.131335
0.131355
0.131378
0.131401
0.131427
0.131454
0.131484
0.131515
0.131549
0.131585
0.131624
0.131665
0.131709
0.131755
0.131804
0.131855
0.131909
0.131965
0.132024
0.132084
0.132147
0.132211
0.132277
0.132344
0.132412
0.13248
0.132548
0.132615
0.132682
0.132747
0.13281
0.132871
0.132928
0.132982
0.133031
0.133076
0.133115
0.133149
0.133176
0.133196
0.13321
0.133216
0.133217
0.133217
0.133214
0.133198
0.133169
0.133134
0.133093
0.133045
0.132993
0.132935
0.132874
0.13281
0.132743
0.132674
0.132603
0.132533
0.132462
0.132392
0.132324
0.132258
0.132194
0.132133
0.132075
0.13202
0.131969
0.131922
0.131879
0.131839
0.131803
0.131771
0.131742
0.131716
0.131693
0.131674
0.131656
0.131641
0.131628
0.131617
0.131608
0.131599
0.131592
0.131586
0.13158
0.131574
0.131569
0.131564
0.131559
0.131553
0.131548
0.131542
0.131535
0.131529
0.131521
0.131514
0.131505
0.131496
0.131487
0.131477
0.131467
0.131456
0.131445
0.131433
0.131421
0.131409
0.131396
0.131384
0.13137
0.131357
0.131343
0.13133
0.131316
0.131302
0.131288
0.131274
0.13126
0.131246
0.131232
0.131218
0.131204
0.13119
0.131177
0.131163
0.131149
0.131136
0.131123
0.13111
0.131097
0.131084
0.131072
0.13106
0.131048
0.131036
0.131025
0.131014
0.131003
0.130993
0.130983
0.130974
0.130965
0.130956
0.130948
0.13094
0.130933
0.130926
0.130919
0.130913
0.130908
0.130903
0.130898
0.130894
0.13089
0.130887
0.130885
0.130883
0.130881
0.13088
0.130879
0.130879
0.130879
0.130879
0.130879
0.130881
0.130883
0.130885
0.130888
0.130891
0.130894
0.130898
0.130902
0.130907
0.130911
0.130916
0.130922
0.130927
0.130933
0.13094
0.130946
0.130953
0.13096
0.130967
0.130974
0.130982
0.13099
0.130999
0.131007
0.131016
0.131025
0.131035
0.131044
0.131055
0.131065
0.131076
0.131087
0.131099
0.131111
0.131124
0.131137
0.131151
0.131166
0.131181
0.131197
0.131214
0.131232
0.131251
0.13127
0.131292
0.131314
0.131337
0.131362
0.131389
0.131417
0.131446
0.131478
0.131511
0.131545
0.131582
0.13162
0.131661
0.131703
0.131747
0.131793
0.131841
0.131891
0.131942
0.131994
0.132049
0.132104
0.13216
0.132217
0.132275
0.132333
0.132391
0.132449
0.132507
0.132563
0.132618
0.132672
0.132724
0.132773
0.132819
0.132863
0.132903
0.132939
0.132971
0.132999
0.133022
0.13304
0.133052
0.133059
0.133062
0.133062
0.133061
0.133055
0.133036
0.133012
0.132982
0.132948
0.13291
0.132868
0.132822
0.132773
0.132721
0.132667
0.132612
0.132555
0.132498
0.132441
0.132383
0.132327
0.132272
0.132218
0.132166
0.132116
0.132068
0.132023
0.13198
0.13194
0.131902
0.131867
0.131835
0.131805
0.131777
0.131752
0.131729
0.131708
0.131689
0.131671
0.131656
0.131641
0.131627
0.131615
0.131603
0.131592
0.131582
0.131572
0.131562
0.131552
0.131542
0.131533
0.131523
0.131513
0.131502
0.131492
0.131481
0.131469
0.131458
0.131446
0.131433
0.131421
0.131407
0.131394
0.13138
0.131366
0.131352
0.131337
0.131323
0.131308
0.131293
0.131278
0.131262
0.131247
0.131232
0.131216
0.131201
0.131186
0.13117
0.131155
0.13114
0.131125
0.131111
0.131096
0.131082
0.131067
0.131053
0.13104
0.131026
0.131013
0.131
0.130987
0.130975
0.130963
0.130952
0.13094
0.130929
0.130919
0.130909
0.130899
0.13089
0.130882
0.130874
0.130866
0.130859
0.130852
0.130847
0.130841
0.130836
0.130832
0.130828
0.130825
0.130823
0.130821
0.13082
0.13082
0.130819
0.130819
0.13082
0.130821
0.130824
0.130827
0.13083
0.130834
0.130839
0.130844
0.13085
0.130856
0.130862
0.130869
0.130877
0.130885
0.130893
0.130902
0.130911
0.13092
0.13093
0.13094
0.13095
0.130961
0.130972
0.130983
0.130995
0.131006
0.131018
0.131031
0.131043
0.131056
0.131069
0.131082
0.131096
0.13111
0.131124
0.131139
0.131154
0.131169
0.131185
0.131201
0.131218
0.131236
0.131253
0.131272
0.131291
0.131312
0.131332
0.131354
0.131377
0.1314
0.131425
0.131451
0.131478
0.131506
0.131535
0.131565
0.131597
0.13163
0.131665
0.131701
0.131738
0.131777
0.131817
0.131858
0.1319
0.131944
0.131989
0.132035
0.132082
0.132129
0.132178
0.132227
0.132276
0.132325
0.132374
0.132424
0.132472
0.13252
0.132567
0.132613
0.132657
0.1327
0.132741
0.132779
0.132815
0.132848
0.132878
0.132905
0.132928
0.132947
0.132963
0.132975
0.132982
0.132985
0.132985
0.132985
0.132983
0.13297
0.132953
0.132931
0.132905
0.132875
0.132842
0.132806
0.132766
0.132725
0.132681
0.132635
0.132588
0.13254
0.132491
0.132441
0.132392
0.132343
0.132294
0.132247
0.132201
0.132156
0.132112
0.13207
0.132031
0.131993
0.131957
0.131923
0.131892
0.131861
0.131835
0.131807
0.131786
0.131761
0.131744
0.131722
0.131708
0.131688
0.131677
0.131659
0.13165
0.131633
0.131626
0.13161
0.131605
0.131588
0.131584
0.131568
0.131564
0.131548
0.131544
0.131527
0.131523
0.131506
0.1315
0.131484
0.131477
0.13146
0.131452
0.131436
0.131427
0.13141
0.1314
0.131383
0.131373
0.131356
0.131345
0.131328
0.131316
0.1313
0.131288
)
;

boundaryField
{
    inlet
    {
        type            calculated;
        value           uniform 0.194831;
    }
    outlet
    {
        type            calculated;
        value           uniform 0.131279;
    }
    emptyWalls
    {
        type            empty;
    }
}


// ************************************************************************* //
