/*--------------------------------*- C++ -*----------------------------------*\
  =========                 |
  \\      /  F ield         | OpenFOAM: The Open Source CFD Toolbox
   \\    /   O peration     | Website:  https://openfoam.org
    \\  /    A nd           | Version:  9
     \\/     M anipulation  |
\*---------------------------------------------------------------------------*/
FoamFile
{
    format      ascii;
    class       volScalarField;
    location    "4700";
    object      kra;
}
// * * * * * * * * * * * * * * * * * * * * * * * * * * * * * * * * * * * * * //

dimensions      [0 0 0 0 0 0 0];

internalField   nonuniform List<scalar> 
1000
(
0.000239037
0.000245137
0.000251171
0.000256656
0.000269704
0.000311821
0.000576714
0.000858055
0.000906712
0.000919826
0.000924487
0.000925789
0.000925618
0.000924347
0.000923616
0.000919847
0.000913271
0.000904435
0.000892945
0.000880485
0.000867795
0.000855215
0.000842902
0.000830923
0.000819303
0.000808059
0.000797196
0.000786708
0.000776574
0.000766775
0.000757307
0.000748174
0.000739386
0.000730931
0.000722782
0.000714892
0.000707219
0.000699738
0.000692451
0.000685387
0.000678586
0.000672089
0.000665928
0.000660107
0.000654617
0.000649426
0.000644492
0.000639769
0.000635207
0.000630758
0.000626375
0.000622011
0.000617622
0.000613162
0.000608588
0.000603863
0.000598955
0.000593848
0.000588537
0.000583038
0.000577382
0.000571619
0.000565808
0.000560018
0.000554317
0.00054877
0.000543429
0.000538336
0.000533515
0.000528976
0.000524715
0.000520715
0.000516952
0.000513396
0.000510016
0.000506777
0.00050365
0.000500606
0.000497622
0.000494679
0.000491762
0.000488861
0.000485971
0.000483086
0.000480207
0.000477335
0.000474471
0.00047162
0.000468784
0.000465965
0.000463168
0.000460394
0.000457646
0.000454924
0.000452231
0.000449565
0.00044693
0.000444322
0.000441746
0.000439196
0.000436677
0.000434181
0.000431717
0.000429272
0.000426862
0.000424466
0.000422105
0.000419756
0.000417442
0.000415141
0.000412872
0.000410617
0.00040839
0.000406181
0.000403995
0.00040183
0.000399685
0.000397562
0.000395458
0.000393375
0.000391312
0.000389269
0.000387248
0.000385245
0.000383263
0.000381302
0.00037936
0.000377438
0.000375536
0.000373654
0.000371791
0.000369947
0.000368122
0.000366314
0.000364524
0.000362751
0.000360996
0.000359255
0.000357532
0.000355822
0.000354127
0.000352446
0.000350778
0.000349124
0.000347479
0.000345851
0.000344227
0.000342624
0.000341016
0.000339439
0.000337841
0.000336292
0.0003347
0.00033318
0.000331593
0.000330095
0.00032852
0.00032703
0.000325482
0.000323982
0.000322476
0.000320958
0.000319491
0.000317971
0.000316519
0.000315029
0.000313568
0.000312126
0.000310661
0.000309258
0.000307827
0.000306445
0.000305089
0.000303739
0.000302469
0.000301206
0.000300019
0.000298892
0.000297796
0.00029678
0.000295741
0.000294658
0.000293399
0.000291707
0.000289308
0.000285659
0.000280326
0.000273164
0.000264869
0.000257132
0.000251387
0.000248007
0.000246294
0.000245506
0.00024518
0.000245032
0.000245022
0.000245031
0.000245069
0.000245123
0.000245185
0.000245251
0.00024532
0.000245394
0.000245469
0.000245552
0.000245637
0.000245729
0.000245827
0.000245935
0.000246049
0.000246175
0.00024631
0.000246457
0.000246615
0.000246786
0.000246967
0.000247161
0.000247365
0.000247581
0.000247804
0.000248037
0.000248275
0.000248518
0.000248762
0.000249007
0.000249247
0.000249483
0.000249708
0.000249923
0.000250121
0.000250299
0.000250451
0.000250575
0.000250664
0.000250718
0.000250736
0.000250738
0.000250733
0.000250698
0.000250572
0.000250404
0.000250201
0.000249965
0.0002497
0.000249411
0.000249101
0.000248775
0.000248439
0.000248099
0.000247759
0.000247426
0.000247104
0.000246797
0.000246509
0.000246244
0.000246003
0.000245789
0.000245602
0.000245442
0.000245309
0.000245201
0.000245118
0.000245056
0.000245015
0.000244991
0.000244981
0.00024498
0.000244981
0.000244991
0.000245023
0.000245058
0.000245096
0.000245134
0.000245171
0.000245206
0.000245238
0.000245267
0.000245292
0.000245312
0.000245328
0.000245339
0.000245346
0.000245348
0.000245349
0.000245348
0.000245344
0.000245332
0.000245316
0.000245297
0.000245276
0.000245254
0.000245229
0.000245204
0.000245177
0.000245149
0.00024512
0.000245091
0.000245062
0.000245032
0.000245003
0.000244973
0.000244943
0.000244913
0.000244883
0.000244853
0.000244824
0.000244795
0.000244766
0.000244737
0.000244708
0.00024468
0.000244651
0.000244623
0.000244595
0.000244567
0.000244539
0.000244512
0.000244484
0.000244456
0.000244428
0.000244401
0.000244373
0.000244345
0.000244317
0.00024429
0.000244262
0.000244234
0.000244207
0.000244179
0.000244152
0.000244124
0.000244097
0.000244071
0.000244044
0.000244018
0.000243993
0.000243968
0.000243943
0.00024392
0.000243897
0.000243875
0.000243854
0.000243834
0.000243815
0.000243797
0.00024378
0.000243764
0.00024375
0.000243737
0.000243726
0.000243716
0.000243707
0.0002437
0.000243694
0.00024369
0.000243687
0.000243686
0.000243685
0.000243685
0.000243685
0.000243688
0.000243693
0.000243698
0.000243705
0.000243713
0.000243722
0.00024373
0.000243741
0.000243751
0.000243762
0.000243773
0.000243785
0.000243796
0.000243809
0.00024382
0.000243832
0.000243843
0.000243855
0.000243865
0.000243877
0.000243886
0.000243897
0.000243907
0.000243917
0.000243926
0.000243937
0.000243946
0.000243957
0.000243967
0.00024398
0.000243992
0.000244006
0.000244021
0.000244038
0.000244056
0.000244077
0.000244099
0.000244125
0.000244152
0.000244183
0.000244216
0.000244253
0.000244292
0.000244335
0.000244381
0.000244431
0.000244483
0.00024454
0.000244599
0.000244663
0.00024473
0.000244803
0.000244878
0.000244959
0.000245044
0.000245134
0.000245229
0.000245331
0.000245438
0.000245552
0.000245671
0.000245799
0.000245932
0.000246074
0.000246222
0.000246378
0.00024654
0.000246711
0.000246887
0.00024707
0.000247257
0.00024745
0.000247646
0.000247846
0.000248045
0.000248246
0.000248443
0.000248638
0.000248827
0.000249009
0.00024918
0.00024934
0.000249486
0.000249616
0.000249727
0.000249817
0.000249884
0.000249926
0.000249943
0.000249945
0.000249943
0.000249928
0.000249846
0.00024973
0.000249585
0.000249414
0.000249219
0.000249003
0.000248768
0.000248519
0.000248258
0.00024799
0.000247717
0.000247444
0.000247174
0.000246911
0.000246657
0.000246416
0.000246189
0.000245978
0.000245784
0.00024561
0.000245453
0.000245316
0.000245197
0.000245097
0.000245013
0.000244946
0.000244893
0.000244854
0.000244827
0.000244811
0.000244804
0.000244803
0.000244804
0.000244808
0.000244825
0.000244847
0.00024487
0.000244893
0.000244916
0.000244938
0.000244959
0.000244977
0.000244994
0.000245008
0.000245019
0.000245028
0.000245034
0.000245038
0.000245039
0.000245039
0.000245039
0.000245036
0.000245029
0.00024502
0.00024501
0.000244999
0.000244987
0.000244975
0.000244962
0.000244948
0.000244935
0.000244921
0.000244908
0.000244895
0.000244882
0.00024487
0.000244858
0.000244846
0.000244835
0.000244825
0.000244815
0.000244805
0.000244796
0.000244788
0.000244779
0.000244772
0.000244764
0.000244757
0.00024475
0.000244743
0.000244736
0.000244729
0.000244722
0.000244714
0.000244707
0.000244699
0.000244691
0.000244682
0.000244673
0.000244663
0.000244652
0.000244641
0.000244629
0.000244616
0.000244602
0.000244587
0.000244572
0.000244555
0.000244538
0.00024452
0.0002445
0.00024448
0.000244459
0.000244437
0.000244415
0.000244392
0.000244368
0.000244343
0.000244318
0.000244293
0.000244268
0.000244242
0.000244216
0.000244191
0.000244165
0.00024414
0.000244116
0.000244092
0.000244069
0.000244046
0.000244025
0.000244004
0.000243985
0.000243968
0.000243951
0.000243936
0.000243923
0.000243912
0.000243902
0.000243894
0.000243888
0.000243884
0.000243882
0.000243882
0.000243882
0.000243883
0.000243887
0.000243894
0.000243904
0.000243914
0.000243928
0.000243942
0.000243959
0.000243976
0.000243995
0.000244015
0.000244037
0.000244059
0.000244083
0.000244107
0.000244133
0.000244158
0.000244185
0.000244212
0.00024424
0.000244267
0.000244296
0.000244324
0.000244353
0.000244382
0.000244411
0.000244441
0.000244472
0.000244503
0.000244535
0.000244568
0.000244603
0.000244638
0.000244676
0.000244716
0.000244759
0.000244804
0.000244853
0.000244905
0.000244961
0.000245022
0.000245089
0.00024516
0.000245238
0.000245322
0.000245413
0.00024551
0.000245615
0.000245727
0.000245848
0.000245975
0.000246111
0.000246254
0.000246405
0.000246562
0.000246727
0.000246897
0.000247074
0.000247254
0.00024744
0.000247628
0.000247818
0.000248009
0.000248199
0.000248387
0.000248572
0.000248752
0.000248925
0.000249089
0.000249244
0.000249385
0.000249514
0.000249627
0.000249723
0.000249799
0.000249855
0.000249887
0.000249899
0.0002499
0.000249897
0.000249877
0.000249799
0.000249692
0.000249561
0.000249407
0.000249233
0.000249039
0.000248828
0.000248603
0.000248366
0.00024812
0.000247869
0.000247614
0.00024736
0.000247108
0.000246862
0.000246623
0.000246394
0.000246177
0.000245973
0.000245783
0.000245608
0.000245449
0.000245305
0.000245177
0.000245065
0.000244967
0.000244884
0.000244814
0.000244756
0.00024471
0.000244675
0.000244648
0.00024463
0.00024462
0.000244615
0.000244614
0.000244614
0.000244617
0.000244628
0.000244642
0.000244656
0.000244671
0.000244685
0.000244698
0.000244711
0.000244721
0.00024473
0.000244737
0.000244741
0.000244743
0.000244744
0.000244744
0.000244743
0.000244738
0.000244729
0.000244718
0.000244706
0.000244691
0.000244674
0.000244656
0.000244637
0.000244617
0.000244595
0.000244573
0.000244549
0.000244525
0.000244501
0.000244476
0.000244451
0.000244426
0.000244401
0.000244376
0.000244351
0.000244327
0.000244303
0.000244279
0.000244256
0.000244234
0.000244213
0.000244192
0.000244172
0.000244154
0.000244136
0.000244119
0.000244104
0.00024409
0.000244077
0.000244065
0.000244055
0.000244047
0.000244039
0.000244033
0.000244029
0.000244026
0.000244025
0.000244025
0.000244025
0.000244027
0.000244027
0.000244018
0.000243977
0.000243449
0.000241201
0.000229978
4.21599e-05
1.60321e-07
3.39221e-13
2.39407e-25
3.83335e-51
7.17531e-106
6.71832e-222
0
0
0
0
0
0
0
0
0
0
0
0
0
0
0
0
0
0
0
0
0
0
0
0
0
0
0
0
0
0
0
0
0
0
0
0
0
0
0
0
0
0
0
0
0
0
0
0
0
0
0
0
0
0
0
0
0
0
0
0
0
0
0
0
0
0
0
0
0
0
0
0
0
0
0
0
0
0
0
0
0
0
0
0
0
0
0
0
0
0
0
0
0
0
0
0
0
0
0
0
0
0
0
0
0
0
0
0
0
0
0
0
0
0
0
0
0
0
0
0
0
0
0
0
0
0
0
0
0
0
0
0
0
0
0
0
0
0
0
0
0
0
0
0
0
0
0
0
0
0
0
0
0
0
0
0
0
0
0
0
0
0
0
0
0
0
0
0
0
0
0
0
0
0
0
0
0
0
0
0
0
0
0
0
0
0
0
0
0
0
0
0
0
0
0
0
0
0
0
0
0
0
0
0
0
0
0
0
0
0
0
0
0
0
0
0
0
0
0
0
)
;

boundaryField
{
    inlet
    {
        type            calculated;
        value           uniform 0.000236304;
    }
    outlet
    {
        type            calculated;
        value           uniform 0;
    }
    emptyWalls
    {
        type            empty;
    }
}


// ************************************************************************* //
