/*--------------------------------*- C++ -*----------------------------------*\
  =========                 |
  \\      /  F ield         | OpenFOAM: The Open Source CFD Toolbox
   \\    /   O peration     | Website:  https://openfoam.org
    \\  /    A nd           | Version:  9
     \\/     M anipulation  |
\*---------------------------------------------------------------------------*/
FoamFile
{
    format      ascii;
    class       surfaceScalarField;
    location    "4700";
    object      phic;
}
// * * * * * * * * * * * * * * * * * * * * * * * * * * * * * * * * * * * * * //

dimensions      [0 2 0 0 0 0 0];

internalField   nonuniform List<scalar> 
999
(
3.84974e-14
1.42282e-13
2.9422e-13
6.39631e-13
1.76636e-12
6.40638e-12
1.85542e-11
2.13155e-11
2.23715e-11
2.30389e-11
2.35564e-11
2.39907e-11
2.4379e-11
2.47719e-11
2.52525e-11
2.60057e-11
2.70611e-11
2.84564e-11
3.01225e-11
3.19589e-11
3.39041e-11
3.5924e-11
3.79986e-11
4.01159e-11
4.22682e-11
4.44501e-11
4.66578e-11
4.88888e-11
5.11409e-11
5.34126e-11
5.57023e-11
5.80086e-11
6.03303e-11
6.26669e-11
6.50177e-11
6.73824e-11
6.97606e-11
7.21518e-11
7.45556e-11
7.69709e-11
7.93966e-11
8.18315e-11
8.42747e-11
8.67257e-11
8.91841e-11
9.165e-11
9.41236e-11
9.66051e-11
9.90952e-11
1.01594e-10
1.04104e-10
1.06624e-10
1.09156e-10
1.11701e-10
1.1426e-10
1.16835e-10
1.19426e-10
1.22034e-10
1.24659e-10
1.27303e-10
1.29963e-10
1.32639e-10
1.35329e-10
1.38033e-10
1.40747e-10
1.43469e-10
1.46199e-10
1.48935e-10
1.51675e-10
1.54418e-10
1.57166e-10
1.59917e-10
1.62673e-10
1.65434e-10
1.682e-10
1.70974e-10
1.73755e-10
1.76546e-10
1.79346e-10
1.82157e-10
1.84978e-10
1.87812e-10
1.90657e-10
1.93515e-10
1.96385e-10
1.99267e-10
2.02162e-10
2.05069e-10
2.07989e-10
2.10921e-10
2.13866e-10
2.16823e-10
2.19793e-10
2.22775e-10
2.2577e-10
2.28778e-10
2.31798e-10
2.34832e-10
2.37878e-10
2.40939e-10
2.44012e-10
2.47099e-10
2.502e-10
2.53316e-10
2.56445e-10
2.5959e-10
2.62749e-10
2.65923e-10
2.69112e-10
2.72317e-10
2.75537e-10
2.78774e-10
2.82027e-10
2.85296e-10
2.88582e-10
2.91885e-10
2.95206e-10
2.98544e-10
3.019e-10
3.05275e-10
3.08667e-10
3.12079e-10
3.1551e-10
3.18961e-10
3.22432e-10
3.25923e-10
3.29435e-10
3.32968e-10
3.36523e-10
3.401e-10
3.437e-10
3.47323e-10
3.50969e-10
3.54639e-10
3.58334e-10
3.62055e-10
3.65801e-10
3.69574e-10
3.73375e-10
3.77203e-10
3.81061e-10
3.84948e-10
3.88866e-10
3.92815e-10
3.96797e-10
4.00812e-10
4.0486e-10
4.08945e-10
4.13066e-10
4.17225e-10
4.21422e-10
4.25659e-10
4.29936e-10
4.34256e-10
4.38618e-10
4.43025e-10
4.4748e-10
4.5198e-10
4.56532e-10
4.61131e-10
4.65784e-10
4.70487e-10
4.75244e-10
4.80055e-10
4.84917e-10
4.89835e-10
4.94801e-10
4.99818e-10
5.04876e-10
5.09967e-10
5.1508e-10
5.20195e-10
5.25295e-10
5.30351e-10
5.35333e-10
5.40208e-10
5.44945e-10
5.49535e-10
5.53997e-10
5.58422e-10
5.63027e-10
5.68234e-10
5.74833e-10
5.84174e-10
5.98422e-10
6.2067e-10
6.54417e-10
7.01732e-10
7.60153e-10
8.2125e-10
8.74417e-10
9.13354e-10
9.38218e-10
9.52654e-10
9.6056e-10
9.64738e-10
9.66896e-10
9.67994e-10
9.6854e-10
9.68801e-10
9.68916e-10
9.68955e-10
9.68956e-10
9.68936e-10
9.68905e-10
9.68867e-10
9.68822e-10
9.68773e-10
9.6872e-10
9.68662e-10
9.68599e-10
9.6853e-10
9.68456e-10
9.68376e-10
9.6829e-10
9.68197e-10
9.68099e-10
9.67994e-10
9.67884e-10
9.67769e-10
9.6765e-10
9.67526e-10
9.674e-10
9.67273e-10
9.67145e-10
9.67018e-10
9.66893e-10
9.66772e-10
9.66657e-10
9.66549e-10
9.66451e-10
9.66364e-10
9.66292e-10
9.66236e-10
9.66199e-10
9.6618e-10
9.66175e-10
9.66175e-10
9.66182e-10
9.66229e-10
9.66305e-10
9.66402e-10
9.66517e-10
9.66648e-10
9.66793e-10
9.6695e-10
9.67117e-10
9.6729e-10
9.67467e-10
9.67645e-10
9.67822e-10
9.67994e-10
9.68159e-10
9.68315e-10
9.6846e-10
9.68593e-10
9.68712e-10
9.68818e-10
9.68909e-10
9.68986e-10
9.69049e-10
9.691e-10
9.69138e-10
9.69165e-10
9.69182e-10
9.69192e-10
9.69195e-10
9.69195e-10
9.69195e-10
9.69182e-10
9.69165e-10
9.69146e-10
9.69126e-10
9.69107e-10
9.69089e-10
9.69072e-10
9.69056e-10
9.69043e-10
9.69032e-10
9.69023e-10
9.69017e-10
9.69013e-10
9.69012e-10
9.69012e-10
9.69012e-10
9.69014e-10
9.6902e-10
9.69028e-10
9.69038e-10
9.69049e-10
9.69062e-10
9.69075e-10
9.69089e-10
9.69104e-10
9.69119e-10
9.69135e-10
9.69151e-10
9.69167e-10
9.69183e-10
9.692e-10
9.69216e-10
9.69233e-10
9.69249e-10
9.69265e-10
9.69282e-10
9.69298e-10
9.69314e-10
9.6933e-10
9.69346e-10
9.69361e-10
9.69377e-10
9.69393e-10
9.69408e-10
9.69423e-10
9.69438e-10
9.69454e-10
9.69468e-10
9.69483e-10
9.69498e-10
9.69513e-10
9.69528e-10
9.69543e-10
9.69558e-10
9.69573e-10
9.69588e-10
9.69602e-10
9.69617e-10
9.69632e-10
9.69647e-10
9.69661e-10
9.69676e-10
9.6969e-10
9.69704e-10
9.69718e-10
9.69732e-10
9.69746e-10
9.69759e-10
9.69772e-10
9.69785e-10
9.69797e-10
9.69808e-10
9.6982e-10
9.6983e-10
9.69841e-10
9.6985e-10
9.69859e-10
9.69868e-10
9.69875e-10
9.69882e-10
9.69888e-10
9.69894e-10
9.69899e-10
9.69903e-10
9.69906e-10
9.69908e-10
9.6991e-10
9.69911e-10
9.69911e-10
9.69911e-10
9.69911e-10
9.6991e-10
9.69908e-10
9.69905e-10
9.69901e-10
9.69897e-10
9.69893e-10
9.69888e-10
9.69882e-10
9.69877e-10
9.69871e-10
9.69865e-10
9.69859e-10
9.69852e-10
9.69846e-10
9.6984e-10
9.69833e-10
9.69827e-10
9.69821e-10
9.69815e-10
9.69809e-10
9.69803e-10
9.69798e-10
9.69792e-10
9.69787e-10
9.69782e-10
9.69777e-10
9.69772e-10
9.69766e-10
9.6976e-10
9.69754e-10
9.69748e-10
9.69741e-10
9.69733e-10
9.69725e-10
9.69716e-10
9.69705e-10
9.69694e-10
9.69681e-10
9.69668e-10
9.69652e-10
9.69635e-10
9.69617e-10
9.69597e-10
9.69576e-10
9.69552e-10
9.69527e-10
9.695e-10
9.69472e-10
9.69441e-10
9.69409e-10
9.69374e-10
9.69338e-10
9.69299e-10
9.69258e-10
9.69214e-10
9.69168e-10
9.69119e-10
9.69067e-10
9.69013e-10
9.68955e-10
9.68893e-10
9.68829e-10
9.6876e-10
9.68688e-10
9.68612e-10
9.68532e-10
9.68449e-10
9.68362e-10
9.68271e-10
9.68177e-10
9.6808e-10
9.6798e-10
9.67878e-10
9.67775e-10
9.6767e-10
9.67566e-10
9.67461e-10
9.67359e-10
9.67258e-10
9.67161e-10
9.67069e-10
9.66982e-10
9.66902e-10
9.6683e-10
9.66767e-10
9.66714e-10
9.66673e-10
9.66644e-10
9.66628e-10
9.66622e-10
9.66621e-10
9.66623e-10
9.66644e-10
9.66701e-10
9.66769e-10
9.66851e-10
9.66946e-10
9.67053e-10
9.67171e-10
9.67297e-10
9.6743e-10
9.67569e-10
9.6771e-10
9.67853e-10
9.67995e-10
9.68135e-10
9.68271e-10
9.68401e-10
9.68524e-10
9.68639e-10
9.68746e-10
9.68842e-10
9.68929e-10
9.69006e-10
9.69074e-10
9.69132e-10
9.6918e-10
9.6922e-10
9.69252e-10
9.69276e-10
9.69294e-10
9.69305e-10
9.69311e-10
9.69313e-10
9.69314e-10
9.69314e-10
9.69308e-10
9.69297e-10
9.69286e-10
9.69274e-10
9.69262e-10
9.6925e-10
9.69239e-10
9.69228e-10
9.69219e-10
9.69211e-10
9.69205e-10
9.692e-10
9.69196e-10
9.69193e-10
9.69192e-10
9.69192e-10
9.69192e-10
9.69192e-10
9.69195e-10
9.692e-10
9.69205e-10
9.6921e-10
9.69217e-10
9.69223e-10
9.6923e-10
9.69237e-10
9.69244e-10
9.69251e-10
9.69258e-10
9.69265e-10
9.69272e-10
9.69279e-10
9.69286e-10
9.69292e-10
9.69298e-10
9.69303e-10
9.69309e-10
9.69314e-10
9.69319e-10
9.69324e-10
9.69328e-10
9.69333e-10
9.69337e-10
9.69341e-10
9.69344e-10
9.69348e-10
9.69352e-10
9.69356e-10
9.69359e-10
9.69363e-10
9.69367e-10
9.69372e-10
9.69376e-10
9.6938e-10
9.69385e-10
9.6939e-10
9.69395e-10
9.69401e-10
9.69407e-10
9.69414e-10
9.69421e-10
9.69428e-10
9.69436e-10
9.69445e-10
9.69454e-10
9.69463e-10
9.69473e-10
9.69483e-10
9.69494e-10
9.69505e-10
9.69517e-10
9.69529e-10
9.69541e-10
9.69554e-10
9.69567e-10
9.6958e-10
9.69594e-10
9.69607e-10
9.69621e-10
9.69634e-10
9.69647e-10
9.69661e-10
9.69674e-10
9.69686e-10
9.69699e-10
9.69711e-10
9.69722e-10
9.69733e-10
9.69743e-10
9.69753e-10
9.69762e-10
9.69771e-10
9.69778e-10
9.69784e-10
9.6979e-10
9.69794e-10
9.69798e-10
9.69801e-10
9.69802e-10
9.69803e-10
9.69803e-10
9.69803e-10
9.69802e-10
9.69798e-10
9.69794e-10
9.69789e-10
9.69782e-10
9.69775e-10
9.69767e-10
9.69758e-10
9.69748e-10
9.69738e-10
9.69727e-10
9.69715e-10
9.69703e-10
9.69691e-10
9.69677e-10
9.69664e-10
9.6965e-10
9.69636e-10
9.69622e-10
9.69607e-10
9.69593e-10
9.69578e-10
9.69563e-10
9.69547e-10
9.69532e-10
9.69516e-10
9.695e-10
9.69484e-10
9.69468e-10
9.69451e-10
9.69433e-10
9.69414e-10
9.69395e-10
9.69374e-10
9.69353e-10
9.6933e-10
9.69305e-10
9.69279e-10
9.6925e-10
9.69219e-10
9.69186e-10
9.6915e-10
9.6911e-10
9.69068e-10
9.69022e-10
9.68973e-10
9.6892e-10
9.68862e-10
9.68801e-10
9.68736e-10
9.68667e-10
9.68594e-10
9.68517e-10
9.68436e-10
9.68351e-10
9.68263e-10
9.68172e-10
9.68078e-10
9.67982e-10
9.67884e-10
9.67785e-10
9.67685e-10
9.67585e-10
9.67485e-10
9.67388e-10
9.67292e-10
9.67199e-10
9.67111e-10
9.67027e-10
9.66949e-10
9.66878e-10
9.66815e-10
9.6676e-10
9.66715e-10
9.6668e-10
9.66657e-10
9.66645e-10
9.66642e-10
9.66642e-10
9.66647e-10
9.66674e-10
9.66723e-10
9.66785e-10
9.66859e-10
9.66945e-10
9.67042e-10
9.67148e-10
9.67262e-10
9.67383e-10
9.6751e-10
9.6764e-10
9.67773e-10
9.67906e-10
9.68039e-10
9.6817e-10
9.68297e-10
9.6842e-10
9.68537e-10
9.68648e-10
9.68751e-10
9.68847e-10
9.68935e-10
9.69015e-10
9.69086e-10
9.69149e-10
9.69205e-10
9.69252e-10
9.69293e-10
9.69326e-10
9.69354e-10
9.69375e-10
9.69392e-10
9.69403e-10
9.69411e-10
9.69415e-10
9.69416e-10
9.69417e-10
9.69416e-10
9.69413e-10
9.69406e-10
9.69399e-10
9.69391e-10
9.69383e-10
9.69376e-10
9.69369e-10
9.69363e-10
9.69358e-10
9.69354e-10
9.69351e-10
9.6935e-10
9.69349e-10
9.69349e-10
9.69349e-10
9.6935e-10
9.69354e-10
9.69359e-10
9.69366e-10
9.69373e-10
9.69381e-10
9.6939e-10
9.694e-10
9.6941e-10
9.69421e-10
9.69433e-10
9.69445e-10
9.69457e-10
9.6947e-10
9.69483e-10
9.69496e-10
9.69509e-10
9.69523e-10
9.69536e-10
9.69549e-10
9.69562e-10
9.69575e-10
9.69587e-10
9.69599e-10
9.69611e-10
9.69622e-10
9.69633e-10
9.69644e-10
9.69654e-10
9.69664e-10
9.69673e-10
9.69681e-10
9.69689e-10
9.69696e-10
9.69702e-10
9.69708e-10
9.69713e-10
9.69718e-10
9.69721e-10
9.69724e-10
9.69726e-10
9.69727e-10
9.69727e-10
9.69727e-10
9.69727e-10
9.69726e-10
9.69726e-10
9.6974e-10
9.69796e-10
9.70585e-10
9.73595e-10
9.89281e-10
1.10072e-09
1.11436e-09
1.11438e-09
1.11437e-09
1.11437e-09
1.11437e-09
1.11437e-09
1.11437e-09
1.11437e-09
1.11437e-09
1.11437e-09
1.11437e-09
1.11437e-09
1.11437e-09
1.11437e-09
1.11437e-09
1.11437e-09
1.11437e-09
1.11437e-09
1.11437e-09
1.11437e-09
1.11437e-09
1.11437e-09
1.11437e-09
1.11437e-09
1.11437e-09
1.11437e-09
1.11437e-09
1.11437e-09
1.11437e-09
1.11437e-09
1.11437e-09
1.11437e-09
1.11437e-09
1.11437e-09
1.11437e-09
1.11437e-09
1.11437e-09
1.11437e-09
1.11437e-09
1.11437e-09
1.11437e-09
1.11437e-09
1.11437e-09
1.11437e-09
1.11437e-09
1.11437e-09
1.11437e-09
1.11437e-09
1.11437e-09
1.11437e-09
1.11437e-09
1.11437e-09
1.11437e-09
1.11437e-09
1.11437e-09
1.11437e-09
1.11437e-09
1.11437e-09
1.11437e-09
1.11437e-09
1.11437e-09
1.11437e-09
1.11437e-09
1.11437e-09
1.11437e-09
1.11437e-09
1.11437e-09
1.11437e-09
1.11437e-09
1.11437e-09
1.11437e-09
1.11437e-09
1.11437e-09
1.11437e-09
1.11437e-09
1.11437e-09
1.11437e-09
1.11437e-09
1.11437e-09
1.11437e-09
1.11437e-09
1.11437e-09
1.11437e-09
1.11437e-09
1.11437e-09
1.11437e-09
1.11437e-09
1.11437e-09
1.11437e-09
1.11437e-09
1.11437e-09
1.11437e-09
1.11437e-09
1.11437e-09
1.11437e-09
1.11437e-09
1.11437e-09
1.11437e-09
1.11437e-09
1.11437e-09
1.11437e-09
1.11437e-09
1.11437e-09
1.11437e-09
1.11437e-09
1.11437e-09
1.11437e-09
1.11437e-09
1.11437e-09
1.11437e-09
1.11437e-09
1.11437e-09
1.11437e-09
1.11437e-09
1.11437e-09
1.11437e-09
1.11437e-09
1.11437e-09
1.11437e-09
1.11437e-09
1.11437e-09
1.11437e-09
1.11437e-09
1.11437e-09
1.11437e-09
1.11437e-09
1.11437e-09
1.11437e-09
1.11437e-09
1.11437e-09
1.11437e-09
1.11437e-09
1.11437e-09
1.11437e-09
1.11437e-09
1.11437e-09
1.11437e-09
1.11437e-09
1.11437e-09
1.11437e-09
1.11437e-09
1.11437e-09
1.11437e-09
1.11437e-09
1.11437e-09
1.11437e-09
1.11437e-09
1.11437e-09
1.11437e-09
1.11437e-09
1.11437e-09
1.11437e-09
1.11437e-09
1.11437e-09
1.11437e-09
1.11437e-09
1.11437e-09
1.11437e-09
1.11437e-09
1.11437e-09
1.11437e-09
1.11437e-09
1.11437e-09
1.11437e-09
1.11437e-09
1.11437e-09
1.11437e-09
1.11437e-09
1.11437e-09
1.11437e-09
1.11437e-09
1.11437e-09
1.11437e-09
1.11437e-09
1.11437e-09
1.11437e-09
1.11437e-09
1.11437e-09
1.11437e-09
1.11437e-09
1.11437e-09
1.11437e-09
1.11437e-09
1.11437e-09
1.11437e-09
1.11437e-09
1.11437e-09
1.11437e-09
1.11437e-09
1.11437e-09
1.11437e-09
1.11437e-09
1.11437e-09
1.11437e-09
1.11437e-09
1.11437e-09
1.11437e-09
1.11437e-09
1.11437e-09
1.11437e-09
1.11437e-09
1.11437e-09
1.11437e-09
1.11437e-09
1.11437e-09
1.11437e-09
1.11437e-09
1.11437e-09
1.11437e-09
1.11437e-09
1.11437e-09
1.11437e-09
1.11437e-09
1.11437e-09
1.11437e-09
1.11437e-09
1.11437e-09
1.11437e-09
1.11437e-09
1.11437e-09
1.11437e-09
1.11437e-09
1.11437e-09
1.11437e-09
1.11437e-09
)
;

boundaryField
{
    inlet
    {
        type            calculated;
        value           uniform 0;
    }
    outlet
    {
        type            calculated;
        value           uniform 1.11437e-09;
    }
    emptyWalls
    {
        type            empty;
        value           nonuniform List<scalar> 0();
    }
}


// ************************************************************************* //
