/*--------------------------------*- C++ -*----------------------------------*\
  =========                 |
  \\      /  F ield         | OpenFOAM: The Open Source CFD Toolbox
   \\    /   O peration     | Website:  https://openfoam.org
    \\  /    A nd           | Version:  9
     \\/     M anipulation  |
\*---------------------------------------------------------------------------*/
FoamFile
{
    format      ascii;
    class       volScalarField;
    location    "3600";
    object      kra;
}
// * * * * * * * * * * * * * * * * * * * * * * * * * * * * * * * * * * * * * //

dimensions      [0 0 0 0 0 0 0];

internalField   nonuniform List<scalar> 
100
(
4.0496e-05
2.9821e-05
3.23386e-05
3.08843e-05
3.09488e-05
3.05474e-05
3.03511e-05
3.01154e-05
2.99187e-05
2.97288e-05
2.95535e-05
2.93872e-05
2.92299e-05
2.90798e-05
2.89362e-05
2.8798e-05
2.86646e-05
2.85354e-05
2.84095e-05
2.82865e-05
2.81656e-05
2.8046e-05
2.79269e-05
2.78072e-05
2.76852e-05
2.75586e-05
2.7424e-05
2.73091e-05
2.74164e-05
2.7433e-05
2.74804e-05
2.75126e-05
2.75479e-05
2.75797e-05
2.76108e-05
2.76402e-05
2.76685e-05
2.76956e-05
2.77217e-05
2.77467e-05
2.77708e-05
2.77939e-05
2.7816e-05
2.78373e-05
2.78577e-05
2.78773e-05
2.78961e-05
2.79141e-05
2.79313e-05
2.79478e-05
2.79636e-05
2.79788e-05
2.79932e-05
2.8007e-05
2.80202e-05
2.80327e-05
2.80446e-05
2.80558e-05
2.80664e-05
2.80764e-05
2.80858e-05
2.80946e-05
2.81027e-05
2.81103e-05
2.81172e-05
2.81235e-05
2.81293e-05
2.81344e-05
2.81389e-05
2.81429e-05
2.81463e-05
2.81491e-05
2.81513e-05
2.81529e-05
2.8154e-05
2.81544e-05
2.81543e-05
2.81537e-05
2.81524e-05
2.81505e-05
2.8148e-05
2.8145e-05
2.81412e-05
2.81369e-05
2.81318e-05
2.81261e-05
2.81198e-05
2.81126e-05
2.81048e-05
2.80961e-05
2.80867e-05
2.80763e-05
2.80651e-05
2.80529e-05
2.80396e-05
2.80252e-05
2.80095e-05
2.79924e-05
2.79738e-05
7.64675e-05
)
;

boundaryField
{
    inlet
    {
        type            calculated;
        value           uniform 1.20046e-05;
    }
    outlet
    {
        type            calculated;
        value           uniform 7.96511e-06;
    }
    emptyWalls
    {
        type            empty;
    }
}


// ************************************************************************* //
