/*--------------------------------*- C++ -*----------------------------------*\
  =========                 |
  \\      /  F ield         | OpenFOAM: The Open Source CFD Toolbox
   \\    /   O peration     | Website:  https://openfoam.org
    \\  /    A nd           | Version:  9
     \\/     M anipulation  |
\*---------------------------------------------------------------------------*/
FoamFile
{
    format      ascii;
    class       volScalarField;
    location    "3600";
    object      p;
}
// * * * * * * * * * * * * * * * * * * * * * * * * * * * * * * * * * * * * * //

dimensions      [0 0 0 0 0 0 0];

internalField   nonuniform List<scalar> 
100
(
6.08151e+06
6.07349e+06
6.0626e+06
6.05256e+06
6.04206e+06
6.03158e+06
6.02098e+06
6.01031e+06
5.99956e+06
5.98876e+06
5.97789e+06
5.96697e+06
5.95599e+06
5.94496e+06
5.93389e+06
5.92277e+06
5.9116e+06
5.9004e+06
5.88915e+06
5.87786e+06
5.86653e+06
5.85517e+06
5.84377e+06
5.83233e+06
5.82085e+06
5.80934e+06
5.79779e+06
5.7862e+06
5.77458e+06
5.76302e+06
5.75148e+06
5.73998e+06
5.72851e+06
5.71707e+06
5.70566e+06
5.69428e+06
5.68293e+06
5.6716e+06
5.6603e+06
5.64903e+06
5.63779e+06
5.62657e+06
5.61538e+06
5.60421e+06
5.59307e+06
5.58195e+06
5.57086e+06
5.5598e+06
5.54876e+06
5.53774e+06
5.52675e+06
5.51578e+06
5.50484e+06
5.49392e+06
5.48302e+06
5.47215e+06
5.4613e+06
5.45048e+06
5.43968e+06
5.4289e+06
5.41815e+06
5.40742e+06
5.39671e+06
5.38603e+06
5.37536e+06
5.36473e+06
5.35411e+06
5.34352e+06
5.33295e+06
5.32241e+06
5.31188e+06
5.30138e+06
5.29091e+06
5.28045e+06
5.27002e+06
5.25962e+06
5.24923e+06
5.23887e+06
5.22853e+06
5.21822e+06
5.20793e+06
5.19766e+06
5.18742e+06
5.1772e+06
5.16701e+06
5.15683e+06
5.14669e+06
5.13656e+06
5.12647e+06
5.1164e+06
5.10635e+06
5.09633e+06
5.08633e+06
5.07636e+06
5.06642e+06
5.05651e+06
5.04663e+06
5.03677e+06
5.02695e+06
5.01715e+06
)
;

boundaryField
{
    inlet
    {
        type            darcyGradPressure;
        gradient        uniform 3.95091e+06;
        Mf              Mf;
        phi             phi;
        value           uniform 6.08942e+06;
    }
    outlet
    {
        type            fixedValue;
        value           uniform 5e+06;
    }
    emptyWalls
    {
        type            empty;
    }
}


// ************************************************************************* //
