/*--------------------------------*- C++ -*----------------------------------*\
  =========                 |
  \\      /  F ield         | OpenFOAM: The Open Source CFD Toolbox
   \\    /   O peration     | Website:  https://openfoam.org
    \\  /    A nd           | Version:  9
     \\/     M anipulation  |
\*---------------------------------------------------------------------------*/
FoamFile
{
    format      ascii;
    class       surfaceScalarField;
    location    "3600";
    object      phia;
}
// * * * * * * * * * * * * * * * * * * * * * * * * * * * * * * * * * * * * * //

dimensions      [0 2 0 0 0 0 0];

internalField   nonuniform List<scalar> 
99
(
1.42058e-08
1.41986e-08
1.41905e-08
1.4182e-08
1.41731e-08
1.41638e-08
1.41542e-08
1.41443e-08
1.41341e-08
1.41237e-08
1.4113e-08
1.41021e-08
1.40909e-08
1.40796e-08
1.4068e-08
1.40561e-08
1.40441e-08
1.40317e-08
1.40191e-08
1.40062e-08
1.39929e-08
1.39792e-08
1.39649e-08
1.395e-08
1.39342e-08
1.39172e-08
1.38984e-08
1.38752e-08
1.3855e-08
1.38348e-08
1.38152e-08
1.37958e-08
1.37766e-08
1.37573e-08
1.3738e-08
1.37186e-08
1.36991e-08
1.36795e-08
1.36597e-08
1.36398e-08
1.36197e-08
1.35994e-08
1.35789e-08
1.35582e-08
1.35373e-08
1.35162e-08
1.34949e-08
1.34734e-08
1.34517e-08
1.34297e-08
1.34076e-08
1.33854e-08
1.33629e-08
1.33402e-08
1.33173e-08
1.32942e-08
1.32709e-08
1.32474e-08
1.32236e-08
1.31996e-08
1.31754e-08
1.3151e-08
1.31263e-08
1.31014e-08
1.30762e-08
1.30507e-08
1.3025e-08
1.2999e-08
1.29728e-08
1.29462e-08
1.29194e-08
1.28923e-08
1.28649e-08
1.28372e-08
1.28092e-08
1.27809e-08
1.27522e-08
1.27232e-08
1.26938e-08
1.26641e-08
1.2634e-08
1.26034e-08
1.25724e-08
1.2541e-08
1.2509e-08
1.24765e-08
1.24435e-08
1.24098e-08
1.23755e-08
1.23404e-08
1.23046e-08
1.22679e-08
1.22302e-08
1.21915e-08
1.21516e-08
1.21103e-08
1.20674e-08
1.20228e-08
1.1976e-08
)
;

boundaryField
{
    inlet
    {
        type            calculated;
        value           uniform -1.42126e-08;
    }
    outlet
    {
        type            calculated;
        value           uniform 1.1946e-08;
    }
    emptyWalls
    {
        type            empty;
        value           nonuniform List<scalar> 0();
    }
}


// ************************************************************************* //
