/*--------------------------------*- C++ -*----------------------------------*\
  =========                 |
  \\      /  F ield         | OpenFOAM: The Open Source CFD Toolbox
   \\    /   O peration     | Website:  https://openfoam.org
    \\  /    A nd           | Version:  9
     \\/     M anipulation  |
\*---------------------------------------------------------------------------*/
FoamFile
{
    format      ascii;
    class       surfaceScalarField;
    location    "3600";
    object      phib;
}
// * * * * * * * * * * * * * * * * * * * * * * * * * * * * * * * * * * * * * //

dimensions      [0 2 0 0 0 0 0];

internalField   nonuniform List<scalar> 
99
(
6.09088e-09
6.09057e-09
6.09022e-09
6.08986e-09
6.08948e-09
6.08909e-09
6.08868e-09
6.08826e-09
6.08783e-09
6.08739e-09
6.08694e-09
6.08648e-09
6.08601e-09
6.08553e-09
6.08504e-09
6.08454e-09
6.08403e-09
6.08351e-09
6.08298e-09
6.08244e-09
6.08189e-09
6.08131e-09
6.08072e-09
6.08009e-09
6.07943e-09
6.07872e-09
6.07792e-09
6.07916e-09
6.07956e-09
6.08027e-09
6.08085e-09
6.08148e-09
6.0821e-09
6.08273e-09
6.08336e-09
6.08401e-09
6.08467e-09
6.08535e-09
6.08604e-09
6.08676e-09
6.08751e-09
6.08828e-09
6.08909e-09
6.08993e-09
6.09081e-09
6.09171e-09
6.09264e-09
6.09359e-09
6.09455e-09
6.09553e-09
6.09651e-09
6.09749e-09
6.09848e-09
6.09947e-09
6.10047e-09
6.10147e-09
6.10249e-09
6.10352e-09
6.10456e-09
6.10563e-09
6.10672e-09
6.10784e-09
6.10898e-09
6.11016e-09
6.11136e-09
6.1126e-09
6.11387e-09
6.11517e-09
6.1165e-09
6.11787e-09
6.11926e-09
6.12068e-09
6.12213e-09
6.1236e-09
6.1251e-09
6.12663e-09
6.12818e-09
6.12976e-09
6.13137e-09
6.13301e-09
6.13469e-09
6.1364e-09
6.13815e-09
6.13995e-09
6.1418e-09
6.14369e-09
6.14564e-09
6.14765e-09
6.14973e-09
6.15187e-09
6.15409e-09
6.15639e-09
6.15878e-09
6.16126e-09
6.16385e-09
6.16656e-09
6.1694e-09
6.17241e-09
6.17559e-09
)
;

boundaryField
{
    inlet
    {
        type            calculated;
        value           uniform -6.09112e-09;
    }
    outlet
    {
        type            calculated;
        value           uniform 6.17574e-09;
    }
    emptyWalls
    {
        type            empty;
        value           nonuniform List<scalar> 0();
    }
}


// ************************************************************************* //
