/*--------------------------------*- C++ -*----------------------------------*\
  =========                 |
  \\      /  F ield         | OpenFOAM: The Open Source CFD Toolbox
   \\    /   O peration     | Website:  https://openfoam.org
    \\  /    A nd           | Version:  9
     \\/     M anipulation  |
\*---------------------------------------------------------------------------*/
FoamFile
{
    format      ascii;
    class       surfaceScalarField;
    location    "3600";
    object      phic;
}
// * * * * * * * * * * * * * * * * * * * * * * * * * * * * * * * * * * * * * //

dimensions      [0 2 0 0 0 0 0];

internalField   nonuniform List<scalar> 
99
(
7.03527e-12
1.45932e-11
2.29853e-11
3.1844e-11
4.11578e-11
5.08424e-11
6.08652e-11
7.11931e-11
8.18045e-11
9.26817e-11
1.03812e-10
1.15187e-10
1.26801e-10
1.38651e-10
1.50739e-10
1.6307e-10
1.75654e-10
1.88507e-10
2.01652e-10
2.15124e-10
2.2897e-10
2.4326e-10
2.58096e-10
2.73627e-10
2.90078e-10
3.07807e-10
3.27402e-10
3.49383e-10
3.69133e-10
3.88689e-10
4.07636e-10
4.26432e-10
4.45086e-10
4.63725e-10
4.82385e-10
5.01114e-10
5.19937e-10
5.38875e-10
5.57945e-10
5.77158e-10
5.96523e-10
6.16046e-10
6.35734e-10
6.55591e-10
6.75621e-10
6.95827e-10
7.16211e-10
7.36776e-10
7.57525e-10
7.7846e-10
7.99582e-10
8.20894e-10
8.42398e-10
8.64095e-10
8.85988e-10
9.08079e-10
9.30369e-10
9.52862e-10
9.7556e-10
9.98464e-10
1.02158e-09
1.04491e-09
1.06845e-09
1.09221e-09
1.1162e-09
1.14041e-09
1.16486e-09
1.18954e-09
1.21446e-09
1.23963e-09
1.26506e-09
1.29074e-09
1.31669e-09
1.34292e-09
1.36943e-09
1.39624e-09
1.42335e-09
1.45077e-09
1.47853e-09
1.50663e-09
1.53509e-09
1.56393e-09
1.59317e-09
1.62283e-09
1.65294e-09
1.68353e-09
1.71463e-09
1.74629e-09
1.77854e-09
1.81144e-09
1.84505e-09
1.87945e-09
1.91472e-09
1.95096e-09
1.98829e-09
2.02687e-09
2.06689e-09
2.10855e-09
2.15216e-09
)
;

boundaryField
{
    inlet
    {
        type            calculated;
        value           uniform 0;
    }
    outlet
    {
        type            calculated;
        value           uniform 2.18199e-09;
    }
    emptyWalls
    {
        type            empty;
        value           nonuniform List<scalar> 0();
    }
}


// ************************************************************************* //
