/*--------------------------------*- C++ -*----------------------------------*\
  =========                 |
  \\      /  F ield         | OpenFOAM: The Open Source CFD Toolbox
   \\    /   O peration     | Website:  https://openfoam.org
    \\  /    A nd           | Version:  9
     \\/     M anipulation  |
\*---------------------------------------------------------------------------*/
FoamFile
{
    format      ascii;
    class       volVectorField;
    location    "3600";
    object      Ua;
}
// * * * * * * * * * * * * * * * * * * * * * * * * * * * * * * * * * * * * * //

dimensions      [0 0 0 0 0 0 0];

internalField   nonuniform List<vector> 
100
(
(0 0 8.95235e-06)
(0 0 1.13017e-05)
(0 0 1.12957e-05)
(0 0 1.12891e-05)
(0 0 1.12821e-05)
(0 0 1.12749e-05)
(0 0 1.12674e-05)
(0 0 1.12596e-05)
(0 0 1.12516e-05)
(0 0 1.12434e-05)
(0 0 1.1235e-05)
(0 0 1.12264e-05)
(0 0 1.12176e-05)
(0 0 1.12087e-05)
(0 0 1.11995e-05)
(0 0 1.11902e-05)
(0 0 1.11807e-05)
(0 0 1.1171e-05)
(0 0 1.11611e-05)
(0 0 1.11509e-05)
(0 0 1.11405e-05)
(0 0 1.11297e-05)
(0 0 1.11186e-05)
(0 0 1.1107e-05)
(0 0 1.10948e-05)
(0 0 1.10817e-05)
(0 0 1.10675e-05)
(0 0 1.10508e-05)
(0 0 1.10335e-05)
(0 0 1.10174e-05)
(0 0 1.10016e-05)
(0 0 1.09861e-05)
(0 0 1.09707e-05)
(0 0 1.09554e-05)
(0 0 1.094e-05)
(0 0 1.09246e-05)
(0 0 1.09092e-05)
(0 0 1.08936e-05)
(0 0 1.08779e-05)
(0 0 1.08622e-05)
(0 0 1.08462e-05)
(0 0 1.08301e-05)
(0 0 1.08139e-05)
(0 0 1.07975e-05)
(0 0 1.0781e-05)
(0 0 1.07642e-05)
(0 0 1.07474e-05)
(0 0 1.07303e-05)
(0 0 1.07131e-05)
(0 0 1.06958e-05)
(0 0 1.06783e-05)
(0 0 1.06606e-05)
(0 0 1.06428e-05)
(0 0 1.06248e-05)
(0 0 1.06067e-05)
(0 0 1.05884e-05)
(0 0 1.05699e-05)
(0 0 1.05513e-05)
(0 0 1.05325e-05)
(0 0 1.05135e-05)
(0 0 1.04943e-05)
(0 0 1.0475e-05)
(0 0 1.04554e-05)
(0 0 1.04357e-05)
(0 0 1.04157e-05)
(0 0 1.03956e-05)
(0 0 1.03752e-05)
(0 0 1.03546e-05)
(0 0 1.03338e-05)
(0 0 1.03128e-05)
(0 0 1.02916e-05)
(0 0 1.02702e-05)
(0 0 1.02485e-05)
(0 0 1.02266e-05)
(0 0 1.02044e-05)
(0 0 1.0182e-05)
(0 0 1.01593e-05)
(0 0 1.01363e-05)
(0 0 1.01131e-05)
(0 0 1.00896e-05)
(0 0 1.00658e-05)
(0 0 1.00416e-05)
(0 0 1.00171e-05)
(0 0 9.99229e-06)
(0 0 9.96706e-06)
(0 0 9.94142e-06)
(0 0 9.91534e-06)
(0 0 9.8888e-06)
(0 0 9.86174e-06)
(0 0 9.83414e-06)
(0 0 9.80594e-06)
(0 0 9.77708e-06)
(0 0 9.7475e-06)
(0 0 9.71711e-06)
(0 0 9.68582e-06)
(0 0 9.6535e-06)
(0 0 9.62002e-06)
(0 0 9.5852e-06)
(0 0 9.5488e-06)
(0 0 9.51825e-06)
)
;

boundaryField
{
    inlet
    {
        type            fixedValue;
        value           uniform (0 0 1.131e-05);
    }
    outlet
    {
        type            zeroGradient;
    }
    emptyWalls
    {
        type            empty;
    }
}


// ************************************************************************* //
