/*--------------------------------*- C++ -*----------------------------------*\
  =========                 |
  \\      /  F ield         | OpenFOAM: The Open Source CFD Toolbox
   \\    /   O peration     | Website:  https://openfoam.org
    \\  /    A nd           | Version:  9
     \\/     M anipulation  |
\*---------------------------------------------------------------------------*/
FoamFile
{
    format      ascii;
    class       volVectorField;
    location    "3600";
    object      Ub;
}
// * * * * * * * * * * * * * * * * * * * * * * * * * * * * * * * * * * * * * //

dimensions      [0 0 0 0 0 0 0];

internalField   nonuniform List<vector> 
100
(
(0 0 7.19653e-06)
(0 0 4.84684e-06)
(0 0 4.84658e-06)
(0 0 4.8463e-06)
(0 0 4.84601e-06)
(0 0 4.8457e-06)
(0 0 4.84538e-06)
(0 0 4.84505e-06)
(0 0 4.84471e-06)
(0 0 4.84437e-06)
(0 0 4.84401e-06)
(0 0 4.84365e-06)
(0 0 4.84328e-06)
(0 0 4.8429e-06)
(0 0 4.84251e-06)
(0 0 4.84212e-06)
(0 0 4.84172e-06)
(0 0 4.84131e-06)
(0 0 4.8409e-06)
(0 0 4.84047e-06)
(0 0 4.84003e-06)
(0 0 4.83958e-06)
(0 0 4.83912e-06)
(0 0 4.83863e-06)
(0 0 4.83812e-06)
(0 0 4.83757e-06)
(0 0 4.83697e-06)
(0 0 4.83715e-06)
(0 0 4.8378e-06)
(0 0 4.83825e-06)
(0 0 4.83876e-06)
(0 0 4.83924e-06)
(0 0 4.83973e-06)
(0 0 4.84023e-06)
(0 0 4.84073e-06)
(0 0 4.84124e-06)
(0 0 4.84176e-06)
(0 0 4.8423e-06)
(0 0 4.84284e-06)
(0 0 4.8434e-06)
(0 0 4.84399e-06)
(0 0 4.84459e-06)
(0 0 4.84522e-06)
(0 0 4.84588e-06)
(0 0 4.84656e-06)
(0 0 4.84727e-06)
(0 0 4.848e-06)
(0 0 4.84875e-06)
(0 0 4.84951e-06)
(0 0 4.85028e-06)
(0 0 4.85106e-06)
(0 0 4.85184e-06)
(0 0 4.85262e-06)
(0 0 4.85341e-06)
(0 0 4.8542e-06)
(0 0 4.855e-06)
(0 0 4.8558e-06)
(0 0 4.85661e-06)
(0 0 4.85744e-06)
(0 0 4.85828e-06)
(0 0 4.85914e-06)
(0 0 4.86002e-06)
(0 0 4.86092e-06)
(0 0 4.86184e-06)
(0 0 4.86279e-06)
(0 0 4.86376e-06)
(0 0 4.86476e-06)
(0 0 4.86578e-06)
(0 0 4.86683e-06)
(0 0 4.8679e-06)
(0 0 4.869e-06)
(0 0 4.87012e-06)
(0 0 4.87126e-06)
(0 0 4.87242e-06)
(0 0 4.8736e-06)
(0 0 4.87481e-06)
(0 0 4.87603e-06)
(0 0 4.87728e-06)
(0 0 4.87855e-06)
(0 0 4.87984e-06)
(0 0 4.88116e-06)
(0 0 4.88251e-06)
(0 0 4.88389e-06)
(0 0 4.8853e-06)
(0 0 4.88675e-06)
(0 0 4.88824e-06)
(0 0 4.88977e-06)
(0 0 4.89135e-06)
(0 0 4.89297e-06)
(0 0 4.89465e-06)
(0 0 4.89639e-06)
(0 0 4.89818e-06)
(0 0 4.90005e-06)
(0 0 4.90199e-06)
(0 0 4.904e-06)
(0 0 4.90611e-06)
(0 0 4.90832e-06)
(0 0 4.91065e-06)
(0 0 4.91311e-06)
(0 0 4.91444e-06)
)
;

boundaryField
{
    inlet
    {
        type            fixedValue;
        value           uniform (0 0 4.84716e-06);
    }
    outlet
    {
        type            zeroGradient;
    }
    emptyWalls
    {
        type            empty;
    }
}


// ************************************************************************* //
