/*--------------------------------*- C++ -*----------------------------------*\
  =========                 |
  \\      /  F ield         | OpenFOAM: The Open Source CFD Toolbox
   \\    /   O peration     | Website:  https://openfoam.org
    \\  /    A nd           | Version:  9
     \\/     M anipulation  |
\*---------------------------------------------------------------------------*/
FoamFile
{
    format      ascii;
    class       volVectorField;
    location    "3600";
    object      Uc;
}
// * * * * * * * * * * * * * * * * * * * * * * * * * * * * * * * * * * * * * //

dimensions      [0 0 0 0 0 0 0];

internalField   nonuniform List<vector> 
100
(
(0 0 8.31236e-09)
(0 0 8.60568e-09)
(0 0 1.4952e-08)
(0 0 2.18159e-08)
(0 0 2.90465e-08)
(0 0 3.66057e-08)
(0 0 4.4447e-08)
(0 0 5.25443e-08)
(0 0 6.08758e-08)
(0 0 6.94258e-08)
(0 0 7.81825e-08)
(0 0 8.71371e-08)
(0 0 9.62839e-08)
(0 0 1.0562e-07)
(0 0 1.15145e-07)
(0 0 1.24861e-07)
(0 0 1.34774e-07)
(0 0 1.44895e-07)
(0 0 1.55239e-07)
(0 0 1.6583e-07)
(0 0 1.76699e-07)
(0 0 1.87894e-07)
(0 0 1.99484e-07)
(0 0 2.11566e-07)
(0 0 2.24291e-07)
(0 0 2.37891e-07)
(0 0 2.52742e-07)
(0 0 2.69284e-07)
(0 0 2.85889e-07)
(0 0 3.01528e-07)
(0 0 3.16848e-07)
(0 0 3.31865e-07)
(0 0 3.46766e-07)
(0 0 3.61605e-07)
(0 0 3.76445e-07)
(0 0 3.91322e-07)
(0 0 4.06263e-07)
(0 0 4.21288e-07)
(0 0 4.36411e-07)
(0 0 4.51643e-07)
(0 0 4.66993e-07)
(0 0 4.82466e-07)
(0 0 4.98068e-07)
(0 0 5.13802e-07)
(0 0 5.29673e-07)
(0 0 5.45682e-07)
(0 0 5.61832e-07)
(0 0 5.78125e-07)
(0 0 5.94564e-07)
(0 0 6.11149e-07)
(0 0 6.27883e-07)
(0 0 6.44767e-07)
(0 0 6.61803e-07)
(0 0 6.78992e-07)
(0 0 6.96336e-07)
(0 0 7.13836e-07)
(0 0 7.31495e-07)
(0 0 7.49314e-07)
(0 0 7.67295e-07)
(0 0 7.85439e-07)
(0 0 8.03749e-07)
(0 0 8.22228e-07)
(0 0 8.40877e-07)
(0 0 8.597e-07)
(0 0 8.78699e-07)
(0 0 8.97877e-07)
(0 0 9.17238e-07)
(0 0 9.36784e-07)
(0 0 9.56522e-07)
(0 0 9.76453e-07)
(0 0 9.96584e-07)
(0 0 1.01692e-06)
(0 0 1.03746e-06)
(0 0 1.05823e-06)
(0 0 1.07921e-06)
(0 0 1.10042e-06)
(0 0 1.12188e-06)
(0 0 1.14358e-06)
(0 0 1.16553e-06)
(0 0 1.18776e-06)
(0 0 1.21026e-06)
(0 0 1.23306e-06)
(0 0 1.25617e-06)
(0 0 1.27961e-06)
(0 0 1.30339e-06)
(0 0 1.32754e-06)
(0 0 1.35209e-06)
(0 0 1.37706e-06)
(0 0 1.40248e-06)
(0 0 1.42841e-06)
(0 0 1.45487e-06)
(0 0 1.48193e-06)
(0 0 1.50965e-06)
(0 0 1.5381e-06)
(0 0 1.56738e-06)
(0 0 1.59758e-06)
(0 0 1.62886e-06)
(0 0 1.66135e-06)
(0 0 1.69528e-06)
(0 0 1.7245e-06)
)
;

boundaryField
{
    inlet
    {
        type            fixedValue;
        value           uniform (0 0 0);
    }
    outlet
    {
        type            zeroGradient;
    }
    emptyWalls
    {
        type            empty;
    }
}


// ************************************************************************* //
