/*--------------------------------*- C++ -*----------------------------------*\
  =========                 |
  \\      /  F ield         | OpenFOAM: The Open Source CFD Toolbox
   \\    /   O peration     | Website:  https://openfoam.org
    \\  /    A nd           | Version:  9
     \\/     M anipulation  |
\*---------------------------------------------------------------------------*/
FoamFile
{
    format      ascii;
    class       volScalarField;
    location    "3000";
    object      kra;
}
// * * * * * * * * * * * * * * * * * * * * * * * * * * * * * * * * * * * * * //

dimensions      [0 0 0 0 0 0 0];

internalField   nonuniform List<scalar> 
100
(
4.02841e-05
2.95853e-05
3.20633e-05
3.06017e-05
3.06451e-05
3.02318e-05
3.00212e-05
2.97734e-05
2.95645e-05
2.9363e-05
2.91761e-05
2.89985e-05
2.88296e-05
2.86677e-05
2.85118e-05
2.83605e-05
2.82129e-05
2.80677e-05
2.79235e-05
2.77784e-05
2.76298e-05
2.7474e-05
2.73038e-05
2.74206e-05
2.74423e-05
2.74969e-05
2.75344e-05
2.75754e-05
2.7612e-05
2.76476e-05
2.76812e-05
2.77132e-05
2.77438e-05
2.77729e-05
2.78007e-05
2.78272e-05
2.78524e-05
2.78765e-05
2.78994e-05
2.79211e-05
2.79418e-05
2.79614e-05
2.79799e-05
2.79974e-05
2.80139e-05
2.80294e-05
2.8044e-05
2.80576e-05
2.80703e-05
2.80821e-05
2.8093e-05
2.8103e-05
2.81123e-05
2.81206e-05
2.81281e-05
2.81348e-05
2.81407e-05
2.81457e-05
2.81499e-05
2.81532e-05
2.81557e-05
2.81573e-05
2.8158e-05
2.81579e-05
2.81569e-05
2.8155e-05
2.81522e-05
2.81484e-05
2.81438e-05
2.81381e-05
2.81315e-05
2.81238e-05
2.81151e-05
2.81053e-05
2.80943e-05
2.80821e-05
2.80685e-05
2.80535e-05
2.80369e-05
2.80186e-05
2.79983e-05
2.79757e-05
2.79504e-05
2.79219e-05
2.78895e-05
2.78522e-05
2.78084e-05
2.77558e-05
2.76908e-05
2.76071e-05
2.74935e-05
2.73273e-05
2.70563e-05
2.65363e-05
2.52462e-05
2.07707e-05
7.79281e-06
2.86636e-07
3.85935e-11
1.24541e-19
)
;

boundaryField
{
    inlet
    {
        type            calculated;
        value           uniform 1.18187e-05;
    }
    outlet
    {
        type            calculated;
        value           uniform 1.77542e-21;
    }
    emptyWalls
    {
        type            empty;
    }
}


// ************************************************************************* //
