/*--------------------------------*- C++ -*----------------------------------*\
  =========                 |
  \\      /  F ield         | OpenFOAM: The Open Source CFD Toolbox
   \\    /   O peration     | Website:  https://openfoam.org
    \\  /    A nd           | Version:  9
     \\/     M anipulation  |
\*---------------------------------------------------------------------------*/
FoamFile
{
    format      ascii;
    class       volScalarField;
    location    "3000";
    object      p;
}
// * * * * * * * * * * * * * * * * * * * * * * * * * * * * * * * * * * * * * //

dimensions      [0 0 0 0 0 0 0];

internalField   nonuniform List<scalar> 
100
(
6.01524e+06
6.00717e+06
5.9962e+06
5.98608e+06
5.97548e+06
5.96491e+06
5.9542e+06
5.94343e+06
5.93257e+06
5.92165e+06
5.91067e+06
5.89962e+06
5.88852e+06
5.87737e+06
5.86616e+06
5.85491e+06
5.8436e+06
5.83225e+06
5.82086e+06
5.80942e+06
5.79793e+06
5.7864e+06
5.77482e+06
5.7632e+06
5.75164e+06
5.74011e+06
5.72862e+06
5.71717e+06
5.70575e+06
5.69437e+06
5.68302e+06
5.67171e+06
5.66043e+06
5.64918e+06
5.63796e+06
5.62678e+06
5.61562e+06
5.6045e+06
5.5934e+06
5.58234e+06
5.5713e+06
5.5603e+06
5.54932e+06
5.53838e+06
5.52746e+06
5.51657e+06
5.50571e+06
5.49488e+06
5.48408e+06
5.4733e+06
5.46256e+06
5.45184e+06
5.44115e+06
5.43048e+06
5.41985e+06
5.40924e+06
5.39867e+06
5.38812e+06
5.37759e+06
5.3671e+06
5.35663e+06
5.34619e+06
5.33578e+06
5.3254e+06
5.31504e+06
5.30472e+06
5.29442e+06
5.28415e+06
5.27391e+06
5.2637e+06
5.25352e+06
5.24337e+06
5.23324e+06
5.22315e+06
5.21309e+06
5.20306e+06
5.19306e+06
5.1831e+06
5.17317e+06
5.16327e+06
5.15341e+06
5.14358e+06
5.1338e+06
5.12405e+06
5.11435e+06
5.1047e+06
5.09509e+06
5.08555e+06
5.07607e+06
5.06666e+06
5.05735e+06
5.04816e+06
5.03913e+06
5.03034e+06
5.02194e+06
5.01431e+06
5.0084e+06
5.00513e+06
5.00301e+06
5.001e+06
)
;

boundaryField
{
    inlet
    {
        type            darcyGradPressure;
        gradient        uniform 3.98754e+06;
        Mf              Mf;
        phi             phi;
        value           uniform 6.02321e+06;
    }
    outlet
    {
        type            fixedValue;
        value           uniform 5e+06;
    }
    emptyWalls
    {
        type            empty;
    }
}


// ************************************************************************* //
