/*--------------------------------*- C++ -*----------------------------------*\
  =========                 |
  \\      /  F ield         | OpenFOAM: The Open Source CFD Toolbox
   \\    /   O peration     | Website:  https://openfoam.org
    \\  /    A nd           | Version:  9
     \\/     M anipulation  |
\*---------------------------------------------------------------------------*/
FoamFile
{
    format      ascii;
    class       surfaceScalarField;
    location    "3000";
    object      phia;
}
// * * * * * * * * * * * * * * * * * * * * * * * * * * * * * * * * * * * * * //

dimensions      [0 2 0 0 0 0 0];

internalField   nonuniform List<scalar> 
99
(
1.42041e-08
1.4195e-08
1.4185e-08
1.41743e-08
1.41631e-08
1.41515e-08
1.41394e-08
1.41269e-08
1.41141e-08
1.4101e-08
1.40875e-08
1.40736e-08
1.40594e-08
1.40449e-08
1.403e-08
1.40146e-08
1.39987e-08
1.39823e-08
1.39651e-08
1.3947e-08
1.39275e-08
1.39061e-08
1.38814e-08
1.38558e-08
1.38318e-08
1.38081e-08
1.37848e-08
1.37616e-08
1.37384e-08
1.37151e-08
1.36916e-08
1.36679e-08
1.3644e-08
1.36198e-08
1.35954e-08
1.35707e-08
1.35457e-08
1.35205e-08
1.34949e-08
1.34691e-08
1.34429e-08
1.34165e-08
1.33897e-08
1.33626e-08
1.33351e-08
1.33074e-08
1.32793e-08
1.32508e-08
1.32221e-08
1.3193e-08
1.31636e-08
1.31338e-08
1.31037e-08
1.30732e-08
1.30424e-08
1.30112e-08
1.29796e-08
1.29476e-08
1.29152e-08
1.28823e-08
1.2849e-08
1.28152e-08
1.27809e-08
1.27461e-08
1.27108e-08
1.26749e-08
1.26383e-08
1.26012e-08
1.25633e-08
1.25247e-08
1.24854e-08
1.24451e-08
1.2404e-08
1.23618e-08
1.23185e-08
1.2274e-08
1.2228e-08
1.21805e-08
1.21311e-08
1.20795e-08
1.20254e-08
1.19683e-08
1.19076e-08
1.18423e-08
1.17713e-08
1.1693e-08
1.16051e-08
1.1504e-08
1.13845e-08
1.12378e-08
1.10487e-08
1.0789e-08
1.03996e-08
9.7401e-09
8.4169e-09
5.36644e-09
1.11396e-09
2.66644e-11
3.38236e-15
)
;

boundaryField
{
    inlet
    {
        type            calculated;
        value           uniform -1.42126e-08;
    }
    outlet
    {
        type            calculated;
        value           uniform 1.55494e-25;
    }
    emptyWalls
    {
        type            empty;
        value           nonuniform List<scalar> 0();
    }
}


// ************************************************************************* //
