/*--------------------------------*- C++ -*----------------------------------*\
  =========                 |
  \\      /  F ield         | OpenFOAM: The Open Source CFD Toolbox
   \\    /   O peration     | Website:  https://openfoam.org
    \\  /    A nd           | Version:  9
     \\/     M anipulation  |
\*---------------------------------------------------------------------------*/
FoamFile
{
    format      ascii;
    class       surfaceScalarField;
    location    "3000";
    object      phib;
}
// * * * * * * * * * * * * * * * * * * * * * * * * * * * * * * * * * * * * * //

dimensions      [0 2 0 0 0 0 0];

internalField   nonuniform List<scalar> 
99
(
6.09082e-09
6.09043e-09
6.08999e-09
6.08954e-09
6.08907e-09
6.08857e-09
6.08806e-09
6.08753e-09
6.08699e-09
6.08643e-09
6.08586e-09
6.08527e-09
6.08468e-09
6.08406e-09
6.08344e-09
6.08279e-09
6.08213e-09
6.08144e-09
6.08072e-09
6.07996e-09
6.07914e-09
6.07824e-09
6.0776e-09
6.07954e-09
6.08049e-09
6.08157e-09
6.0824e-09
6.08321e-09
6.08399e-09
6.08478e-09
6.08558e-09
6.0864e-09
6.08724e-09
6.0881e-09
6.08898e-09
6.08989e-09
6.09082e-09
6.09178e-09
6.09277e-09
6.0938e-09
6.09487e-09
6.09598e-09
6.09713e-09
6.09832e-09
6.09956e-09
6.10083e-09
6.10215e-09
6.10349e-09
6.10487e-09
6.10627e-09
6.10769e-09
6.10913e-09
6.11059e-09
6.11207e-09
6.11357e-09
6.11509e-09
6.11665e-09
6.11823e-09
6.11985e-09
6.12152e-09
6.12322e-09
6.12498e-09
6.12679e-09
6.12865e-09
6.13058e-09
6.13256e-09
6.13461e-09
6.13673e-09
6.13892e-09
6.14118e-09
6.14351e-09
6.14593e-09
6.14842e-09
6.15101e-09
6.1537e-09
6.15649e-09
6.15941e-09
6.16247e-09
6.16568e-09
6.16908e-09
6.1727e-09
6.17659e-09
6.1808e-09
6.18541e-09
6.19052e-09
6.1963e-09
6.20297e-09
6.21085e-09
6.22052e-09
6.2329e-09
6.24971e-09
6.27447e-09
6.31542e-09
6.39624e-09
6.6071e-09
7.33806e-09
8.76085e-09
9.16622e-09
9.17598e-09
)
;

boundaryField
{
    inlet
    {
        type            calculated;
        value           uniform -6.09112e-09;
    }
    outlet
    {
        type            calculated;
        value           uniform 9.17622e-09;
    }
    emptyWalls
    {
        type            empty;
        value           nonuniform List<scalar> 0();
    }
}


// ************************************************************************* //
