/*--------------------------------*- C++ -*----------------------------------*\
  =========                 |
  \\      /  F ield         | OpenFOAM: The Open Source CFD Toolbox
   \\    /   O peration     | Website:  https://openfoam.org
    \\  /    A nd           | Version:  9
     \\/     M anipulation  |
\*---------------------------------------------------------------------------*/
FoamFile
{
    format      ascii;
    class       surfaceScalarField;
    location    "3000";
    object      phic;
}
// * * * * * * * * * * * * * * * * * * * * * * * * * * * * * * * * * * * * * //

dimensions      [0 2 0 0 0 0 0];

internalField   nonuniform List<scalar> 
99
(
8.81163e-12
1.82719e-11
2.87784e-11
3.98741e-11
5.15464e-11
6.36932e-11
7.62767e-11
8.92595e-11
1.02619e-10
1.1634e-10
1.30414e-10
1.4484e-10
1.59625e-10
1.74785e-10
1.90348e-10
2.06358e-10
2.22881e-10
2.40017e-10
2.57918e-10
2.76816e-10
2.97088e-10
3.19363e-10
3.44756e-10
3.68431e-10
3.9148e-10
4.14081e-10
4.36521e-10
4.58906e-10
4.81342e-10
5.03885e-10
5.26581e-10
5.4946e-10
5.72543e-10
5.95847e-10
6.19384e-10
6.43164e-10
6.67194e-10
6.91479e-10
7.16027e-10
7.4084e-10
7.65923e-10
7.91281e-10
8.16915e-10
8.42832e-10
8.69034e-10
8.95525e-10
9.2231e-10
9.49393e-10
9.76779e-10
1.00447e-09
1.03248e-09
1.06081e-09
1.08947e-09
1.11846e-09
1.14779e-09
1.17747e-09
1.20752e-09
1.23793e-09
1.26873e-09
1.29992e-09
1.33152e-09
1.36355e-09
1.39602e-09
1.42896e-09
1.46238e-09
1.49631e-09
1.53079e-09
1.56584e-09
1.60151e-09
1.63783e-09
1.67487e-09
1.71268e-09
1.75133e-09
1.7909e-09
1.8315e-09
1.87325e-09
1.91628e-09
1.96078e-09
2.00697e-09
2.05513e-09
2.10559e-09
2.15881e-09
2.21538e-09
2.27606e-09
2.34192e-09
2.41444e-09
2.49571e-09
2.58887e-09
2.69873e-09
2.83308e-09
3.00532e-09
3.24027e-09
3.58867e-09
4.16739e-09
5.27973e-09
7.59924e-09
1.04289e-08
1.11109e-08
1.11278e-08
)
;

boundaryField
{
    inlet
    {
        type            calculated;
        value           uniform 0;
    }
    outlet
    {
        type            calculated;
        value           uniform 1.11275e-08;
    }
    emptyWalls
    {
        type            empty;
        value           nonuniform List<scalar> 0();
    }
}


// ************************************************************************* //
