/*--------------------------------*- C++ -*----------------------------------*\
  =========                 |
  \\      /  F ield         | OpenFOAM: The Open Source CFD Toolbox
   \\    /   O peration     | Website:  https://openfoam.org
    \\  /    A nd           | Version:  9
     \\/     M anipulation  |
\*---------------------------------------------------------------------------*/
FoamFile
{
    format      ascii;
    class       volVectorField;
    location    "3000";
    object      Ua;
}
// * * * * * * * * * * * * * * * * * * * * * * * * * * * * * * * * * * * * * //

dimensions      [0 0 0 0 0 0 0];

internalField   nonuniform List<vector> 
100
(
(0 0 8.93068e-06)
(0 0 1.12997e-05)
(0 0 1.1292e-05)
(0 0 1.12838e-05)
(0 0 1.12751e-05)
(0 0 1.1266e-05)
(0 0 1.12566e-05)
(0 0 1.12468e-05)
(0 0 1.12368e-05)
(0 0 1.12264e-05)
(0 0 1.12158e-05)
(0 0 1.12049e-05)
(0 0 1.11938e-05)
(0 0 1.11824e-05)
(0 0 1.11706e-05)
(0 0 1.11586e-05)
(0 0 1.11461e-05)
(0 0 1.11333e-05)
(0 0 1.11199e-05)
(0 0 1.11059e-05)
(0 0 1.10909e-05)
(0 0 1.10747e-05)
(0 0 1.10563e-05)
(0 0 1.10363e-05)
(0 0 1.10165e-05)
(0 0 1.09975e-05)
(0 0 1.09789e-05)
(0 0 1.09604e-05)
(0 0 1.09419e-05)
(0 0 1.09234e-05)
(0 0 1.09048e-05)
(0 0 1.0886e-05)
(0 0 1.0867e-05)
(0 0 1.08479e-05)
(0 0 1.08286e-05)
(0 0 1.0809e-05)
(0 0 1.07893e-05)
(0 0 1.07693e-05)
(0 0 1.07491e-05)
(0 0 1.07286e-05)
(0 0 1.0708e-05)
(0 0 1.0687e-05)
(0 0 1.06658e-05)
(0 0 1.06444e-05)
(0 0 1.06227e-05)
(0 0 1.06007e-05)
(0 0 1.05785e-05)
(0 0 1.0556e-05)
(0 0 1.05332e-05)
(0 0 1.05102e-05)
(0 0 1.04869e-05)
(0 0 1.04634e-05)
(0 0 1.04396e-05)
(0 0 1.04155e-05)
(0 0 1.03911e-05)
(0 0 1.03664e-05)
(0 0 1.03414e-05)
(0 0 1.03161e-05)
(0 0 1.02905e-05)
(0 0 1.02645e-05)
(0 0 1.02382e-05)
(0 0 1.02115e-05)
(0 0 1.01844e-05)
(0 0 1.01569e-05)
(0 0 1.0129e-05)
(0 0 1.01006e-05)
(0 0 1.00718e-05)
(0 0 1.00425e-05)
(0 0 1.00126e-05)
(0 0 9.98221e-06)
(0 0 9.95119e-06)
(0 0 9.91953e-06)
(0 0 9.88715e-06)
(0 0 9.854e-06)
(0 0 9.82e-06)
(0 0 9.78506e-06)
(0 0 9.74905e-06)
(0 0 9.71185e-06)
(0 0 9.67326e-06)
(0 0 9.63309e-06)
(0 0 9.59106e-06)
(0 0 9.54682e-06)
(0 0 9.49992e-06)
(0 0 9.44976e-06)
(0 0 9.39554e-06)
(0 0 9.33614e-06)
(0 0 9.27e-06)
(0 0 9.19481e-06)
(0 0 9.10705e-06)
(0 0 9.00111e-06)
(0 0 8.86751e-06)
(0 0 8.68895e-06)
(0 0 8.43069e-06)
(0 0 8.01335e-06)
(0 0 7.22444e-06)
(0 0 5.48422e-06)
(0 0 2.57847e-06)
(0 0 4.53838e-07)
(0 0 1.06108e-08)
(0 0 1.3458e-12)
)
;

boundaryField
{
    inlet
    {
        type            fixedValue;
        value           uniform (0 0 1.131e-05);
    }
    outlet
    {
        type            zeroGradient;
    }
    emptyWalls
    {
        type            empty;
    }
}


// ************************************************************************* //
