/*--------------------------------*- C++ -*----------------------------------*\
  =========                 |
  \\      /  F ield         | OpenFOAM: The Open Source CFD Toolbox
   \\    /   O peration     | Website:  https://openfoam.org
    \\  /    A nd           | Version:  9
     \\/     M anipulation  |
\*---------------------------------------------------------------------------*/
FoamFile
{
    format      ascii;
    class       volVectorField;
    location    "3000";
    object      Ub;
}
// * * * * * * * * * * * * * * * * * * * * * * * * * * * * * * * * * * * * * //

dimensions      [0 0 0 0 0 0 0];

internalField   nonuniform List<vector> 
100
(
(0 0 7.21608e-06)
(0 0 4.84676e-06)
(0 0 4.84643e-06)
(0 0 4.84608e-06)
(0 0 4.84571e-06)
(0 0 4.84533e-06)
(0 0 4.84493e-06)
(0 0 4.84451e-06)
(0 0 4.84409e-06)
(0 0 4.84365e-06)
(0 0 4.8432e-06)
(0 0 4.84274e-06)
(0 0 4.84227e-06)
(0 0 4.84179e-06)
(0 0 4.84129e-06)
(0 0 4.84079e-06)
(0 0 4.84027e-06)
(0 0 4.83973e-06)
(0 0 4.83917e-06)
(0 0 4.83858e-06)
(0 0 4.83795e-06)
(0 0 4.83727e-06)
(0 0 4.83666e-06)
(0 0 4.83718e-06)
(0 0 4.83832e-06)
(0 0 4.83913e-06)
(0 0 4.83989e-06)
(0 0 4.84054e-06)
(0 0 4.84117e-06)
(0 0 4.8418e-06)
(0 0 4.84243e-06)
(0 0 4.84308e-06)
(0 0 4.84374e-06)
(0 0 4.84441e-06)
(0 0 4.84511e-06)
(0 0 4.84582e-06)
(0 0 4.84655e-06)
(0 0 4.8473e-06)
(0 0 4.84808e-06)
(0 0 4.84888e-06)
(0 0 4.84972e-06)
(0 0 4.85058e-06)
(0 0 4.85148e-06)
(0 0 4.85241e-06)
(0 0 4.85338e-06)
(0 0 4.85438e-06)
(0 0 4.85541e-06)
(0 0 4.85647e-06)
(0 0 4.85755e-06)
(0 0 4.85866e-06)
(0 0 4.85978e-06)
(0 0 4.86092e-06)
(0 0 4.86207e-06)
(0 0 4.86324e-06)
(0 0 4.86443e-06)
(0 0 4.86563e-06)
(0 0 4.86685e-06)
(0 0 4.8681e-06)
(0 0 4.86938e-06)
(0 0 4.87069e-06)
(0 0 4.87203e-06)
(0 0 4.8734e-06)
(0 0 4.87482e-06)
(0 0 4.87628e-06)
(0 0 4.87779e-06)
(0 0 4.87935e-06)
(0 0 4.88095e-06)
(0 0 4.88261e-06)
(0 0 4.88433e-06)
(0 0 4.88609e-06)
(0 0 4.88792e-06)
(0 0 4.88981e-06)
(0 0 4.89177e-06)
(0 0 4.89379e-06)
(0 0 4.89589e-06)
(0 0 4.89807e-06)
(0 0 4.90034e-06)
(0 0 4.90272e-06)
(0 0 4.90521e-06)
(0 0 4.90785e-06)
(0 0 4.91064e-06)
(0 0 4.91363e-06)
(0 0 4.91685e-06)
(0 0 4.92036e-06)
(0 0 4.92423e-06)
(0 0 4.92856e-06)
(0 0 4.93351e-06)
(0 0 4.9393e-06)
(0 0 4.94629e-06)
(0 0 4.95506e-06)
(0 0 4.96667e-06)
(0 0 4.98321e-06)
(0 0 5.00936e-06)
(0 0 5.05781e-06)
(0 0 5.17386e-06)
(0 0 5.5486e-06)
(0 0 6.40555e-06)
(0 0 7.13295e-06)
(0 0 7.29813e-06)
(0 0 7.30211e-06)
)
;

boundaryField
{
    inlet
    {
        type            fixedValue;
        value           uniform (0 0 4.84716e-06);
    }
    outlet
    {
        type            zeroGradient;
    }
    emptyWalls
    {
        type            empty;
    }
}


// ************************************************************************* //
