/*--------------------------------*- C++ -*----------------------------------*\
  =========                 |
  \\      /  F ield         | OpenFOAM: The Open Source CFD Toolbox
   \\    /   O peration     | Website:  https://openfoam.org
    \\  /    A nd           | Version:  9
     \\/     M anipulation  |
\*---------------------------------------------------------------------------*/
FoamFile
{
    format      ascii;
    class       volVectorField;
    location    "3000";
    object      Uc;
}
// * * * * * * * * * * * * * * * * * * * * * * * * * * * * * * * * * * * * * //

dimensions      [0 0 0 0 0 0 0];

internalField   nonuniform List<vector> 
100
(
(0 0 1.04396e-08)
(0 0 1.07762e-08)
(0 0 1.87207e-08)
(0 0 2.73159e-08)
(0 0 3.63751e-08)
(0 0 4.58524e-08)
(0 0 5.56922e-08)
(0 0 6.58648e-08)
(0 0 7.63461e-08)
(0 0 8.7121e-08)
(0 0 9.818e-08)
(0 0 1.0952e-07)
(0 0 1.21142e-07)
(0 0 1.33057e-07)
(0 0 1.45282e-07)
(0 0 1.57844e-07)
(0 0 1.70789e-07)
(0 0 1.84182e-07)
(0 0 1.98122e-07)
(0 0 2.12764e-07)
(0 0 2.28349e-07)
(0 0 2.45278e-07)
(0 0 2.64245e-07)
(0 0 2.83768e-07)
(0 0 3.02359e-07)
(0 0 3.20523e-07)
(0 0 3.38444e-07)
(0 0 3.56279e-07)
(0 0 3.74113e-07)
(0 0 3.92009e-07)
(0 0 4.1001e-07)
(0 0 4.28143e-07)
(0 0 4.46431e-07)
(0 0 4.64888e-07)
(0 0 4.83525e-07)
(0 0 5.02352e-07)
(0 0 5.21375e-07)
(0 0 5.40599e-07)
(0 0 5.60029e-07)
(0 0 5.79669e-07)
(0 0 5.99522e-07)
(0 0 6.19592e-07)
(0 0 6.39881e-07)
(0 0 6.60392e-07)
(0 0 6.8113e-07)
(0 0 7.02095e-07)
(0 0 7.23293e-07)
(0 0 7.44727e-07)
(0 0 7.66399e-07)
(0 0 7.88315e-07)
(0 0 8.10479e-07)
(0 0 8.32895e-07)
(0 0 8.55569e-07)
(0 0 8.78505e-07)
(0 0 9.01711e-07)
(0 0 9.25193e-07)
(0 0 9.48957e-07)
(0 0 9.73013e-07)
(0 0 9.97368e-07)
(0 0 1.02203e-06)
(0 0 1.04702e-06)
(0 0 1.07233e-06)
(0 0 1.098e-06)
(0 0 1.12402e-06)
(0 0 1.15043e-06)
(0 0 1.17723e-06)
(0 0 1.20445e-06)
(0 0 1.23211e-06)
(0 0 1.26025e-06)
(0 0 1.28889e-06)
(0 0 1.31808e-06)
(0 0 1.34786e-06)
(0 0 1.37828e-06)
(0 0 1.40941e-06)
(0 0 1.44131e-06)
(0 0 1.47407e-06)
(0 0 1.5078e-06)
(0 0 1.54264e-06)
(0 0 1.57872e-06)
(0 0 1.61626e-06)
(0 0 1.6555e-06)
(0 0 1.69675e-06)
(0 0 1.74043e-06)
(0 0 1.78709e-06)
(0 0 1.83744e-06)
(0 0 1.89249e-06)
(0 0 1.95368e-06)
(0 0 2.02309e-06)
(0 0 2.10387e-06)
(0 0 2.20104e-06)
(0 0 2.32302e-06)
(0 0 2.48504e-06)
(0 0 2.71715e-06)
(0 0 3.08604e-06)
(0 0 3.75889e-06)
(0 0 5.12438e-06)
(0 0 7.17318e-06)
(0 0 8.57041e-06)
(0 0 8.84846e-06)
(0 0 8.85509e-06)
)
;

boundaryField
{
    inlet
    {
        type            fixedValue;
        value           uniform (0 0 0);
    }
    outlet
    {
        type            zeroGradient;
    }
    emptyWalls
    {
        type            empty;
    }
}


// ************************************************************************* //
