/*--------------------------------*- C++ -*----------------------------------*\
  =========                 |
  \\      /  F ield         | OpenFOAM: The Open Source CFD Toolbox
   \\    /   O peration     | Website:  https://openfoam.org
    \\  /    A nd           | Version:  9
     \\/     M anipulation  |
\*---------------------------------------------------------------------------*/
FoamFile
{
    format      ascii;
    class       volScalarField;
    location    "13400";
    object      krc;
}
// * * * * * * * * * * * * * * * * * * * * * * * * * * * * * * * * * * * * * //

dimensions      [0 0 0 0 0 0 0];

internalField   nonuniform List<scalar> 
1000
(
2.7565e-07
2.74148e-06
9.59618e-06
2.01684e-05
3.4379e-05
5.21785e-05
7.34038e-05
9.76949e-05
0.000124427
0.000152691
0.000181379
0.000209321
0.000235548
0.000259673
0.000283405
0.000318011
0.000421864
0.000894536
0.00578442
0.0320157
0.042322
0.0456666
0.0473725
0.0485069
0.0493801
0.050106
0.0507377
0.051302
0.0518144
0.0522848
0.0527199
0.0531263
0.053508
0.0538708
0.0542178
0.0545535
0.0548801
0.0552015
0.0555192
0.0558377
0.0561659
0.0565033
0.0568459
0.0571963
0.0575582
0.0579372
0.0583419
0.0587852
0.059285
0.0598636
0.0605431
0.0613364
0.0622377
0.063224
0.0642688
0.0653525
0.0664621
0.067589
0.0687274
0.0698731
0.0710234
0.0721761
0.0733296
0.0744829
0.0756351
0.0767855
0.0779338
0.0790793
0.080222
0.0813614
0.0824975
0.08363
0.0847589
0.0858841
0.0870055
0.088123
0.0892366
0.0903463
0.091452
0.0925537
0.0936514
0.0947452
0.0958349
0.0969207
0.0980025
0.0990803
0.100154
0.101224
0.10229
0.103352
0.104411
0.105465
0.106516
0.107562
0.108606
0.109645
0.11068
0.111712
0.11274
0.113764
0.114785
0.115802
0.116815
0.117825
0.118832
0.119834
0.120834
0.121829
0.122822
0.123811
0.124797
0.12578
0.126759
0.127735
0.128709
0.129679
0.130646
0.131611
0.132572
0.13353
0.134486
0.135438
0.136388
0.137335
0.138279
0.13922
0.140158
0.141093
0.142025
0.142954
0.14388
0.144804
0.145725
0.146643
0.147558
0.148471
0.149381
0.150288
0.151193
0.152095
0.152995
0.153892
0.154787
0.155679
0.156569
0.157456
0.158341
0.159224
0.160105
0.160983
0.161859
0.162732
0.163604
0.164473
0.16534
0.166205
0.167067
0.167928
0.168786
0.169642
0.170496
0.171348
0.172198
0.173046
0.173892
0.174736
0.175578
0.176418
0.177256
0.178092
0.178927
0.179759
0.180589
0.181418
0.182245
0.18307
0.183893
0.184714
0.185534
0.186352
0.187168
0.187983
0.188795
0.189606
0.190416
0.191223
0.192029
0.192834
0.193637
0.194438
0.195238
0.196036
0.196832
0.197627
0.198421
0.199213
0.200003
0.200792
0.20158
0.202366
0.203151
0.203934
0.204716
0.205496
0.206275
0.207053
0.20783
0.208605
0.209378
0.210151
0.210922
0.211692
0.21246
0.213228
0.213994
0.214758
0.215522
0.216284
0.217046
0.217806
0.218564
0.219322
0.220079
0.220834
0.221588
0.222342
0.223094
0.223845
0.224594
0.225343
0.226091
0.226838
0.227583
0.228328
0.229071
0.229813
0.230555
0.231295
0.232034
0.232772
0.233509
0.234245
0.23498
0.235714
0.236448
0.23718
0.237911
0.238641
0.239371
0.240099
0.240827
0.241554
0.242281
0.243006
0.243731
0.244456
0.245179
0.245903
0.246625
0.247347
0.248069
0.24879
0.249511
0.250231
0.250951
0.25167
0.252389
0.253107
0.253825
0.254542
0.255258
0.255974
0.256689
0.257403
0.258117
0.25883
0.259542
0.260254
0.260965
0.261676
0.262385
0.263095
0.263803
0.264511
0.265219
0.265925
0.266632
0.267338
0.268043
0.268748
0.269453
0.270157
0.27086
0.271564
0.272267
0.272969
0.273671
0.274373
0.275075
0.275776
0.276477
0.277177
0.277877
0.278577
0.279277
0.279977
0.280676
0.281375
0.282073
0.282772
0.28347
0.284168
0.284865
0.285563
0.28626
0.286957
0.287654
0.288351
0.289048
0.289744
0.29044
0.291137
0.291833
0.292529
0.293224
0.29392
0.294616
0.295312
0.296007
0.296703
0.297398
0.298094
0.298789
0.299484
0.30018
0.300875
0.301571
0.302266
0.302961
0.303657
0.304353
0.305048
0.305744
0.30644
0.307136
0.307832
0.308528
0.309224
0.309921
0.310617
0.311314
0.312011
0.312708
0.313405
0.314103
0.314801
0.315499
0.316197
0.316895
0.317594
0.318293
0.318993
0.319692
0.320392
0.321093
0.321793
0.322494
0.323196
0.323898
0.3246
0.325302
0.326005
0.326709
0.327413
0.328117
0.328822
0.329527
0.330233
0.33094
0.331646
0.332354
0.333062
0.33377
0.33448
0.335189
0.3359
0.336611
0.337322
0.338035
0.338748
0.339461
0.340176
0.340891
0.341606
0.342323
0.34304
0.343757
0.344476
0.345195
0.345915
0.346636
0.347358
0.34808
0.348803
0.349527
0.350252
0.350978
0.351705
0.352433
0.353161
0.353891
0.354621
0.355353
0.356086
0.35682
0.357555
0.358292
0.359029
0.359768
0.360509
0.361251
0.361994
0.362739
0.363485
0.364233
0.364983
0.365734
0.366487
0.367242
0.367999
0.368757
0.369517
0.37028
0.371043
0.371809
0.372577
0.373347
0.374118
0.374891
0.375667
0.376444
0.377223
0.378004
0.378787
0.379572
0.380358
0.381147
0.381938
0.38273
0.383525
0.384322
0.385121
0.385922
0.386726
0.387531
0.388339
0.389149
0.389962
0.390777
0.391595
0.392415
0.393238
0.394063
0.394891
0.395722
0.396556
0.397393
0.398232
0.399075
0.399921
0.40077
0.401621
0.402477
0.403335
0.404196
0.405061
0.40593
0.406802
0.407677
0.408555
0.409437
0.410323
0.411212
0.412105
0.413001
0.413901
0.414804
0.415711
0.41662
0.417534
0.41845
0.419369
0.420291
0.421216
0.422142
0.42307
0.423999
0.424929
0.425858
0.426786
0.427712
0.428634
0.42955
0.430459
0.431359
0.432248
0.433122
0.433979
0.434815
0.435627
0.436412
0.437166
0.437885
0.438566
0.439206
0.439802
0.440353
0.440857
0.441314
0.441723
0.442087
0.442406
0.442685
0.442928
0.443142
0.443333
0.443516
0.44371
0.443948
0.444287
0.444824
0.44573
0.4473
0.450037
0.454767
0.462742
0.475591
0.49482
0.520591
0.550354
0.579169
0.60246
0.618545
0.628417
0.634026
0.637068
0.638676
0.639514
0.639948
0.640171
0.640286
0.640345
0.640375
0.64039
0.640397
0.640401
0.640402
0.640403
0.640403
0.640402
0.640402
0.640401
0.6404
0.6404
0.640399
0.640398
0.640397
0.640396
0.640396
0.640395
0.640394
0.640393
0.640392
0.64039
0.640389
0.640388
0.640387
0.640385
0.640384
0.640382
0.64038
0.640378
0.640376
0.640374
0.640372
0.64037
0.640367
0.640365
0.640362
0.640359
0.640356
0.640353
0.640349
0.640346
0.640342
0.640339
0.640335
0.640331
0.640326
0.640322
0.640318
0.640313
0.640309
0.640305
0.6403
0.640296
0.640291
0.640287
0.640283
0.640279
0.640275
0.640271
0.640268
0.640265
0.640262
0.640259
0.640257
0.640255
0.640254
0.640253
0.640252
0.640252
0.640253
0.640253
0.640254
0.640255
0.640257
0.640259
0.640262
0.640265
0.640269
0.640273
0.640277
0.640281
0.640286
0.64029
0.640295
0.6403
0.640305
0.64031
0.640315
0.64032
0.640325
0.640329
0.640334
0.640338
0.640342
0.640346
0.64035
0.640354
0.640357
0.64036
0.640363
0.640366
0.640369
0.640371
0.640373
0.640375
0.640377
0.640378
0.64038
0.640381
0.640382
0.640384
0.640385
0.640386
0.640386
0.640387
0.640388
0.640389
0.64039
0.64039
0.640391
0.640392
0.640392
0.640393
0.640394
0.640394
0.640395
0.640396
0.640396
0.640397
0.640398
0.640399
0.640399
0.6404
0.640401
0.640402
0.640403
0.640403
0.640404
0.640405
0.640406
0.640407
0.640407
0.640408
0.640409
0.64041
0.640411
0.640411
0.640412
0.640413
0.640414
0.640414
0.640415
0.640416
0.640416
0.640417
0.640418
0.640418
0.640419
0.64042
0.64042
0.640421
0.640421
0.640422
0.640422
0.640423
0.640423
0.640424
0.640424
0.640425
0.640425
0.640425
0.640426
0.640426
0.640426
0.640427
0.640427
0.640427
0.640427
0.640427
0.640427
0.640427
0.640428
0.640428
0.640428
0.640428
0.640428
0.640428
0.640428
0.640428
0.640428
0.640427
0.640427
0.640427
0.640427
0.640427
0.640427
0.640426
0.640426
0.640426
0.640426
0.640426
0.640425
0.640425
0.640425
0.640424
0.640424
0.640424
0.640423
0.640423
0.640422
0.640421
0.640421
0.64042
0.640419
0.640418
0.640417
0.640416
0.640415
0.640414
0.640413
0.640412
0.640411
0.640409
0.640408
0.640407
0.640405
0.640404
0.640403
0.640401
0.6404
0.640398
0.640396
0.640395
0.640393
0.640391
0.640389
0.640387
0.640385
0.640383
0.64038
0.640378
0.640375
0.640372
0.640369
0.640366
0.640363
0.64036
0.640357
0.640353
0.64035
0.640346
0.640342
0.640338
0.640334
0.64033
0.640326
0.640322
0.640318
0.640314
0.64031
0.640306
0.640302
0.640298
0.640294
0.640291
0.640288
0.640284
0.640281
0.640279
0.640276
0.640274
0.640272
0.64027
0.640269
0.640268
0.640268
0.640267
0.640267
0.640267
0.640268
0.640269
0.64027
0.640272
0.640274
0.640276
0.640279
0.640282
0.640285
0.640288
0.640292
0.640296
0.640299
0.640303
0.640307
0.640311
0.640315
0.640319
0.640323
0.640327
0.640331
0.640335
0.640339
0.640342
0.640346
0.640349
0.640352
0.640355
0.640358
0.64036
0.640363
0.640365
0.640367
0.640369
0.640371
0.640373
0.640375
0.640376
0.640378
0.640379
0.64038
0.640382
0.640383
0.640384
0.640385
0.640386
0.640387
0.640388
0.640389
0.64039
0.64039
0.640391
0.640392
0.640393
0.640394
0.640395
0.640396
0.640396
0.640397
0.640398
0.640399
0.6404
0.640401
0.640402
0.640403
0.640403
0.640404
0.640405
0.640406
0.640407
0.640408
0.640409
0.64041
0.64041
0.640411
0.640412
0.640413
0.640414
0.640415
0.640415
0.640416
0.640417
0.640417
0.640418
0.640419
0.640419
0.64042
0.640421
0.640421
0.640422
0.640422
0.640423
0.640423
0.640424
0.640424
0.640425
0.640425
0.640425
0.640426
0.640426
0.640426
0.640427
0.640427
0.640427
0.640427
0.640428
0.640428
0.640428
0.640428
0.640428
0.640428
0.640428
0.640428
0.640428
0.640428
0.640428
0.640428
0.640428
0.640428
0.640428
0.640428
0.640428
0.640428
0.640428
0.640427
0.640427
0.640427
0.640426
0.640426
0.640426
0.640426
0.640425
0.640425
0.640424
0.640424
0.640423
0.640423
0.640422
0.640422
0.640421
0.64042
0.640419
0.640419
0.640418
0.640417
0.640416
0.640416
0.640414
0.640414
0.640412
0.640412
0.64041
0.64041
0.640408
0.640407
0.640405
0.640405
0.640402
0.640402
0.640399
0.640398
0.640396
0.640395
0.640392
0.640391
0.640387
0.640386
0.640381
)
;

boundaryField
{
    inlet
    {
        type            calculated;
        value           uniform 3.08149e-33;
    }
    outlet
    {
        type            calculated;
        value           uniform 0.640381;
    }
    emptyWalls
    {
        type            empty;
    }
}


// ************************************************************************* //
