/*--------------------------------*- C++ -*----------------------------------*\
  =========                 |
  \\      /  F ield         | OpenFOAM: The Open Source CFD Toolbox
   \\    /   O peration     | Website:  https://openfoam.org
    \\  /    A nd           | Version:  9
     \\/     M anipulation  |
\*---------------------------------------------------------------------------*/
FoamFile
{
    format      ascii;
    class       volScalarField;
    location    "13400";
    object      Sb;
}
// * * * * * * * * * * * * * * * * * * * * * * * * * * * * * * * * * * * * * //

dimensions      [0 0 0 0 0 0 0];

internalField   nonuniform List<scalar> 
1000
(
0.350444
0.351303
0.352466
0.353581
0.354708
0.355826
0.356962
0.358078
0.359176
0.360226
0.361192
0.36211
0.362842
0.36363
0.364158
0.36522
0.367576
0.376758
0.429831
0.605705
0.653338
0.665141
0.670191
0.673152
0.675212
0.676775
0.678016
0.679021
0.679844
0.680519
0.681072
0.681526
0.681895
0.68219
0.682429
0.682608
0.682746
0.682832
0.682883
0.682887
0.682854
0.682774
0.682648
0.682475
0.682249
0.681965
0.681611
0.681168
0.680605
0.679882
0.678953
0.67779
0.676414
0.674898
0.673305
0.671667
0.670003
0.668326
0.666647
0.664971
0.663302
0.661643
0.659995
0.658361
0.65674
0.655134
0.653543
0.651967
0.650407
0.648862
0.647331
0.645816
0.644316
0.64283
0.641359
0.639903
0.63846
0.637032
0.635617
0.634216
0.632828
0.631454
0.630092
0.628743
0.627406
0.626081
0.624767
0.623466
0.622175
0.620896
0.619628
0.618371
0.617125
0.615889
0.614664
0.613448
0.612241
0.611043
0.609852
0.60867
0.607495
0.606328
0.605169
0.604017
0.602874
0.601738
0.600611
0.599493
0.598383
0.597283
0.596192
0.595111
0.59404
0.59298
0.59193
0.590891
0.589862
0.588843
0.587834
0.586834
0.585842
0.584858
0.583881
0.582911
0.581945
0.580985
0.58003
0.579079
0.578132
0.57719
0.576251
0.575317
0.574387
0.573461
0.57254
0.571624
0.570713
0.569807
0.568906
0.56801
0.567119
0.566234
0.565354
0.564478
0.563608
0.562744
0.561884
0.561028
0.560178
0.559332
0.558491
0.557655
0.556823
0.555995
0.555172
0.554352
0.553537
0.552726
0.551919
0.551116
0.550317
0.549522
0.548731
0.547943
0.54716
0.54638
0.545603
0.54483
0.544061
0.543295
0.542533
0.541774
0.541019
0.540267
0.539518
0.538772
0.53803
0.537291
0.536555
0.535822
0.535093
0.534366
0.533642
0.532922
0.532204
0.531489
0.530777
0.530068
0.529362
0.528659
0.527958
0.52726
0.526565
0.525872
0.525183
0.524495
0.523811
0.523128
0.522449
0.521772
0.521097
0.520425
0.519755
0.519088
0.518423
0.51776
0.5171
0.516442
0.515786
0.515133
0.514481
0.513833
0.513186
0.512541
0.511899
0.511259
0.510621
0.509985
0.509351
0.508719
0.508089
0.507461
0.506835
0.506211
0.505589
0.504969
0.504351
0.503735
0.50312
0.502507
0.501896
0.501287
0.500679
0.500072
0.499467
0.498864
0.498261
0.49766
0.49706
0.496462
0.495865
0.495269
0.494674
0.49408
0.493488
0.492897
0.492307
0.491719
0.491133
0.490548
0.489965
0.489384
0.488806
0.488229
0.487654
0.487082
0.486512
0.485945
0.48538
0.484817
0.484257
0.483699
0.483144
0.48259
0.482039
0.48149
0.480942
0.480396
0.479852
0.479308
0.478766
0.478225
0.477685
0.477145
0.476606
0.476068
0.475531
0.474994
0.474458
0.473922
0.473387
0.472852
0.472319
0.471786
0.471253
0.470722
0.470191
0.469662
0.469133
0.468605
0.468078
0.467552
0.467027
0.466503
0.46598
0.465458
0.464937
0.464416
0.463897
0.463379
0.462862
0.462346
0.46183
0.461316
0.460802
0.460289
0.459777
0.459266
0.458756
0.458246
0.457738
0.45723
0.456722
0.456216
0.45571
0.455205
0.454701
0.454198
0.453695
0.453193
0.452691
0.45219
0.45169
0.451191
0.450692
0.450194
0.449696
0.449199
0.448703
0.448207
0.447711
0.447217
0.446722
0.446229
0.445736
0.445243
0.444751
0.44426
0.443769
0.443278
0.442788
0.442298
0.441809
0.44132
0.440832
0.440344
0.439857
0.43937
0.438883
0.438397
0.437911
0.437425
0.43694
0.436455
0.435971
0.435487
0.435003
0.434519
0.434036
0.433553
0.43307
0.432588
0.432106
0.431624
0.431143
0.430661
0.43018
0.429699
0.429219
0.428738
0.428258
0.427778
0.427298
0.426818
0.426339
0.425859
0.42538
0.424901
0.424422
0.423943
0.423464
0.422986
0.422507
0.422029
0.42155
0.421072
0.420593
0.420115
0.419636
0.419158
0.418679
0.4182
0.417722
0.417243
0.416764
0.416285
0.415805
0.415326
0.414846
0.414366
0.413886
0.413405
0.412924
0.412443
0.411961
0.411479
0.410997
0.410515
0.410032
0.409549
0.409065
0.408582
0.408098
0.407614
0.407129
0.406645
0.40616
0.405675
0.40519
0.404704
0.404219
0.403734
0.403248
0.402763
0.402278
0.401792
0.401306
0.400821
0.400335
0.399849
0.399363
0.398877
0.39839
0.397904
0.397417
0.396929
0.396441
0.395953
0.395464
0.394975
0.394485
0.393994
0.393502
0.393009
0.392516
0.392021
0.391526
0.39103
0.390532
0.390034
0.389534
0.389033
0.388531
0.388028
0.387524
0.387019
0.386512
0.386005
0.385496
0.384986
0.384474
0.383962
0.383448
0.382933
0.382417
0.381899
0.38138
0.38086
0.380338
0.379815
0.379291
0.378765
0.378238
0.377709
0.377179
0.376648
0.376115
0.37558
0.375044
0.374506
0.373967
0.373426
0.372884
0.37234
0.371794
0.371247
0.370698
0.370148
0.369596
0.369043
0.368489
0.367933
0.367376
0.366819
0.366261
0.365702
0.365143
0.364585
0.364027
0.363471
0.362916
0.362365
0.361817
0.361274
0.360737
0.360207
0.359687
0.359177
0.35868
0.358198
0.357732
0.357285
0.356859
0.356456
0.356078
0.355725
0.3554
0.355102
0.354833
0.354591
0.354377
0.354188
0.354024
0.353881
0.353755
0.353643
0.353535
0.353421
0.353281
0.353081
0.352765
0.352232
0.351309
0.349704
0.346941
0.342313
0.334935
0.324065
0.309799
0.293719
0.278521
0.266482
0.258288
0.253304
0.250488
0.248965
0.248162
0.247743
0.247526
0.247414
0.247357
0.247327
0.247312
0.247304
0.2473
0.247298
0.247296
0.247296
0.247295
0.247295
0.247295
0.247295
0.247295
0.247295
0.247295
0.247295
0.247294
0.247294
0.247294
0.247294
0.247294
0.247294
0.247294
0.247294
0.247293
0.247293
0.247293
0.247293
0.247293
0.247292
0.247292
0.247292
0.247292
0.247291
0.247291
0.247291
0.24729
0.24729
0.247289
0.247289
0.247288
0.247287
0.247287
0.247286
0.247286
0.247285
0.247284
0.247283
0.247282
0.247282
0.247281
0.24728
0.247279
0.247278
0.247277
0.247276
0.247275
0.247274
0.247273
0.247273
0.247272
0.247271
0.24727
0.247269
0.247269
0.247268
0.247267
0.247267
0.247266
0.247266
0.247265
0.247265
0.247265
0.247265
0.247264
0.247264
0.247264
0.247264
0.247265
0.247265
0.247265
0.247265
0.247266
0.247266
0.247267
0.247267
0.247267
0.247268
0.247268
0.247269
0.24727
0.24727
0.247271
0.247271
0.247272
0.247272
0.247273
0.247273
0.247274
0.247274
0.247274
0.247275
0.247275
0.247275
0.247276
0.247276
0.247276
0.247277
0.247277
0.247277
0.247277
0.247278
0.247278
0.247278
0.247278
0.247278
0.247278
0.247279
0.247279
0.247279
0.247279
0.247279
0.247279
0.24728
0.24728
0.24728
0.24728
0.24728
0.24728
0.247281
0.247281
0.247281
0.247281
0.247281
0.247281
0.247282
0.247282
0.247282
0.247282
0.247282
0.247283
0.247283
0.247283
0.247283
0.247283
0.247284
0.247284
0.247284
0.247284
0.247284
0.247284
0.247284
0.247285
0.247285
0.247285
0.247285
0.247285
0.247285
0.247285
0.247285
0.247286
0.247286
0.247286
0.247286
0.247286
0.247286
0.247286
0.247286
0.247286
0.247286
0.247286
0.247286
0.247286
0.247286
0.247286
0.247286
0.247287
0.247287
0.247287
0.247287
0.247287
0.247287
0.247287
0.247287
0.247287
0.247287
0.247287
0.247287
0.247287
0.247287
0.247287
0.247286
0.247286
0.247286
0.247286
0.247286
0.247286
0.247286
0.247286
0.247286
0.247286
0.247286
0.247286
0.247286
0.247285
0.247285
0.247285
0.247285
0.247285
0.247285
0.247285
0.247285
0.247285
0.247285
0.247285
0.247285
0.247285
0.247285
0.247285
0.247285
0.247285
0.247285
0.247285
0.247285
0.247285
0.247285
0.247285
0.247285
0.247285
0.247285
0.247285
0.247285
0.247285
0.247285
0.247285
0.247284
0.247284
0.247284
0.247284
0.247283
0.247283
0.247283
0.247282
0.247282
0.247282
0.247281
0.247281
0.24728
0.24728
0.247279
0.247279
0.247278
0.247278
0.247277
0.247277
0.247276
0.247276
0.247275
0.247274
0.247274
0.247273
0.247273
0.247272
0.247271
0.247271
0.24727
0.24727
0.247269
0.247269
0.247268
0.247268
0.247267
0.247267
0.247267
0.247266
0.247266
0.247266
0.247266
0.247266
0.247266
0.247266
0.247266
0.247266
0.247266
0.247266
0.247266
0.247266
0.247267
0.247267
0.247267
0.247268
0.247268
0.247269
0.247269
0.24727
0.24727
0.247271
0.247271
0.247272
0.247272
0.247273
0.247273
0.247274
0.247274
0.247275
0.247275
0.247275
0.247276
0.247276
0.247277
0.247277
0.247277
0.247278
0.247278
0.247278
0.247279
0.247279
0.247279
0.247279
0.247279
0.24728
0.24728
0.24728
0.24728
0.24728
0.24728
0.247281
0.247281
0.247281
0.247281
0.247281
0.247281
0.247281
0.247282
0.247282
0.247282
0.247282
0.247282
0.247282
0.247282
0.247282
0.247283
0.247283
0.247283
0.247283
0.247283
0.247283
0.247283
0.247283
0.247284
0.247284
0.247284
0.247284
0.247284
0.247284
0.247284
0.247284
0.247285
0.247285
0.247285
0.247285
0.247285
0.247285
0.247285
0.247285
0.247285
0.247285
0.247286
0.247286
0.247286
0.247286
0.247286
0.247286
0.247286
0.247286
0.247286
0.247286
0.247286
0.247286
0.247286
0.247286
0.247286
0.247286
0.247287
0.247287
0.247287
0.247287
0.247287
0.247287
0.247287
0.247287
0.247287
0.247287
0.247287
0.247287
0.247287
0.247287
0.247287
0.247287
0.247287
0.247287
0.247287
0.247287
0.247286
0.247286
0.247286
0.247286
0.247286
0.247286
0.247286
0.247286
0.247286
0.247286
0.247286
0.247286
0.247286
0.247286
0.247286
0.247286
0.247286
0.247286
0.247286
0.247286
0.247286
0.247286
0.247286
0.247286
0.247286
0.247285
0.247285
0.247285
0.247285
0.247285
0.247285
0.247285
0.247285
0.247285
0.247284
0.247284
0.247284
0.247284
0.247284
0.247284
0.247283
0.247283
0.247283
0.247283
0.247282
0.247282
0.247281
)
;

boundaryField
{
    inlet
    {
        type            fixedValue;
        value           uniform 0.35;
    }
    outlet
    {
        type            zeroGradient;
    }
    emptyWalls
    {
        type            empty;
    }
}


// ************************************************************************* //
