/*--------------------------------*- C++ -*----------------------------------*\
  =========                 |
  \\      /  F ield         | OpenFOAM: The Open Source CFD Toolbox
   \\    /   O peration     | Website:  https://openfoam.org
    \\  /    A nd           | Version:  9
     \\/     M anipulation  |
\*---------------------------------------------------------------------------*/
FoamFile
{
    format      ascii;
    class       surfaceScalarField;
    location    "25250";
    object      phib;
}
// * * * * * * * * * * * * * * * * * * * * * * * * * * * * * * * * * * * * * //

dimensions      [0 2 0 0 0 0 0];

internalField   nonuniform List<scalar> 
999
(
1.13624e-09
1.13623e-09
1.13623e-09
1.13624e-09
1.13624e-09
1.13625e-09
1.13627e-09
1.13627e-09
1.1363e-09
1.13631e-09
1.13635e-09
1.13636e-09
1.13641e-09
1.13643e-09
1.13647e-09
1.1365e-09
1.13653e-09
1.13658e-09
1.1366e-09
1.13665e-09
1.13669e-09
1.13673e-09
1.13677e-09
1.13681e-09
1.13684e-09
1.13688e-09
1.13691e-09
1.13694e-09
1.13696e-09
1.13699e-09
1.13699e-09
1.13704e-09
1.13713e-09
1.13751e-09
1.13914e-09
1.15071e-09
1.17226e-09
1.1752e-09
1.17539e-09
1.17473e-09
1.17412e-09
1.17414e-09
1.17466e-09
1.1753e-09
1.17618e-09
1.17732e-09
1.17819e-09
1.1788e-09
1.17919e-09
1.17945e-09
1.17944e-09
1.17935e-09
1.17929e-09
1.17926e-09
1.17927e-09
1.17931e-09
1.17938e-09
1.17946e-09
1.17954e-09
1.17963e-09
1.17972e-09
1.1798e-09
1.17989e-09
1.17997e-09
1.18004e-09
1.18011e-09
1.18017e-09
1.18023e-09
1.18028e-09
1.18033e-09
1.18037e-09
1.18041e-09
1.18044e-09
1.18047e-09
1.18049e-09
1.18051e-09
1.18052e-09
1.18053e-09
1.18053e-09
1.18052e-09
1.18051e-09
1.18049e-09
1.18047e-09
1.18044e-09
1.18041e-09
1.18036e-09
1.18032e-09
1.18026e-09
1.1802e-09
1.18012e-09
1.18004e-09
1.17994e-09
1.17982e-09
1.17969e-09
1.17954e-09
1.17936e-09
1.17916e-09
1.17892e-09
1.17866e-09
1.17837e-09
1.17805e-09
1.17773e-09
1.17739e-09
1.17704e-09
1.17668e-09
1.17631e-09
1.17593e-09
1.17554e-09
1.17514e-09
1.17475e-09
1.17436e-09
1.17396e-09
1.17358e-09
1.17319e-09
1.17281e-09
1.17243e-09
1.17204e-09
1.17166e-09
1.17126e-09
1.17085e-09
1.17041e-09
1.16994e-09
1.16943e-09
1.16888e-09
1.16829e-09
1.16768e-09
1.16704e-09
1.16639e-09
1.16574e-09
1.16509e-09
1.16445e-09
1.16382e-09
1.1632e-09
1.16261e-09
1.16204e-09
1.16151e-09
1.16103e-09
1.16059e-09
1.16021e-09
1.15988e-09
1.1596e-09
1.15937e-09
1.15916e-09
1.15899e-09
1.15883e-09
1.15867e-09
1.15851e-09
1.15834e-09
1.15815e-09
1.15794e-09
1.1577e-09
1.15743e-09
1.15713e-09
1.15681e-09
1.15647e-09
1.1561e-09
1.15572e-09
1.15532e-09
1.15492e-09
1.15451e-09
1.15409e-09
1.15367e-09
1.15325e-09
1.15284e-09
1.15242e-09
1.15201e-09
1.1516e-09
1.1512e-09
1.1508e-09
1.1504e-09
1.15001e-09
1.14961e-09
1.14922e-09
1.14883e-09
1.14844e-09
1.14805e-09
1.14766e-09
1.14727e-09
1.14688e-09
1.14649e-09
1.1461e-09
1.14571e-09
1.14531e-09
1.14492e-09
1.14452e-09
1.14413e-09
1.14373e-09
1.14333e-09
1.14293e-09
1.14252e-09
1.14212e-09
1.14171e-09
1.14131e-09
1.1409e-09
1.14049e-09
1.14007e-09
1.13966e-09
1.13925e-09
1.13883e-09
1.13841e-09
1.13799e-09
1.13757e-09
1.13715e-09
1.13673e-09
1.1363e-09
1.13587e-09
1.13544e-09
1.13501e-09
1.13458e-09
1.13415e-09
1.13371e-09
1.13327e-09
1.13283e-09
1.1324e-09
1.13195e-09
1.13151e-09
1.13107e-09
1.13063e-09
1.13018e-09
1.12974e-09
1.12929e-09
1.12884e-09
1.1284e-09
1.12795e-09
1.12749e-09
1.12704e-09
1.12659e-09
1.12613e-09
1.12567e-09
1.12521e-09
1.12476e-09
1.1243e-09
1.12384e-09
1.12338e-09
1.12293e-09
1.12247e-09
1.12202e-09
1.12156e-09
1.1211e-09
1.12064e-09
1.12016e-09
1.11969e-09
1.1192e-09
1.1187e-09
1.11819e-09
1.11766e-09
1.11712e-09
1.11657e-09
1.116e-09
1.11542e-09
1.11483e-09
1.11423e-09
1.11362e-09
1.113e-09
1.11238e-09
1.11176e-09
1.11114e-09
1.11053e-09
1.10993e-09
1.10934e-09
1.10876e-09
1.1082e-09
1.10767e-09
1.10716e-09
1.10667e-09
1.1062e-09
1.10577e-09
1.10535e-09
1.10497e-09
1.1046e-09
1.10425e-09
1.10391e-09
1.10359e-09
1.10327e-09
1.10296e-09
1.10265e-09
1.10233e-09
1.10201e-09
1.10169e-09
1.10135e-09
1.10101e-09
1.10065e-09
1.10028e-09
1.0999e-09
1.0995e-09
1.0991e-09
1.09868e-09
1.09826e-09
1.09783e-09
1.09739e-09
1.09695e-09
1.09651e-09
1.09606e-09
1.0956e-09
1.09515e-09
1.0947e-09
1.09424e-09
1.09379e-09
1.09333e-09
1.09288e-09
1.09243e-09
1.09198e-09
1.09153e-09
1.09108e-09
1.09063e-09
1.09018e-09
1.08973e-09
1.08929e-09
1.08884e-09
1.0884e-09
1.08795e-09
1.0875e-09
1.08706e-09
1.08661e-09
1.08616e-09
1.08572e-09
1.08527e-09
1.08482e-09
1.08437e-09
1.08392e-09
1.08347e-09
1.08301e-09
1.08256e-09
1.08211e-09
1.08165e-09
1.08119e-09
1.08074e-09
1.08028e-09
1.07982e-09
1.07935e-09
1.07889e-09
1.07843e-09
1.07796e-09
1.0775e-09
1.07703e-09
1.07656e-09
1.07609e-09
1.07562e-09
1.07515e-09
1.07468e-09
1.0742e-09
1.07373e-09
1.07325e-09
1.07277e-09
1.07229e-09
1.07181e-09
1.07133e-09
1.07085e-09
1.07036e-09
1.06988e-09
1.06939e-09
1.06891e-09
1.06842e-09
1.06793e-09
1.06744e-09
1.06695e-09
1.06646e-09
1.06597e-09
1.06548e-09
1.06498e-09
1.06449e-09
1.06399e-09
1.0635e-09
1.063e-09
1.0625e-09
1.062e-09
1.0615e-09
1.06101e-09
1.06051e-09
1.06001e-09
1.05951e-09
1.059e-09
1.0585e-09
1.058e-09
1.05749e-09
1.05699e-09
1.05648e-09
1.05596e-09
1.05545e-09
1.05493e-09
1.0544e-09
1.05387e-09
1.05333e-09
1.05278e-09
1.05223e-09
1.05167e-09
1.0511e-09
1.05052e-09
1.04994e-09
1.04935e-09
1.04875e-09
1.04815e-09
1.04755e-09
1.04694e-09
1.04633e-09
1.04571e-09
1.0451e-09
1.04449e-09
1.04388e-09
1.04328e-09
1.04268e-09
1.04209e-09
1.04151e-09
1.04095e-09
1.04039e-09
1.03984e-09
1.03931e-09
1.03879e-09
1.03829e-09
1.0378e-09
1.03732e-09
1.03685e-09
1.0364e-09
1.03596e-09
1.03553e-09
1.0351e-09
1.03468e-09
1.03427e-09
1.03386e-09
1.03345e-09
1.03304e-09
1.03263e-09
1.03221e-09
1.0318e-09
1.03137e-09
1.03095e-09
1.03051e-09
1.03007e-09
1.02963e-09
1.02918e-09
1.02872e-09
1.02826e-09
1.02779e-09
1.02731e-09
1.02684e-09
1.02635e-09
1.02587e-09
1.02538e-09
1.02489e-09
1.02439e-09
1.02389e-09
1.0234e-09
1.0229e-09
1.0224e-09
1.0219e-09
1.0214e-09
1.02089e-09
1.02039e-09
1.01989e-09
1.01939e-09
1.01889e-09
1.01839e-09
1.01789e-09
1.01739e-09
1.01689e-09
1.01639e-09
1.01589e-09
1.01539e-09
1.01488e-09
1.01438e-09
1.01388e-09
1.01338e-09
1.01288e-09
1.01237e-09
1.01187e-09
1.01137e-09
1.01086e-09
1.01036e-09
1.00985e-09
1.00934e-09
1.00884e-09
1.00833e-09
1.00782e-09
1.00731e-09
1.0068e-09
1.00628e-09
1.00577e-09
1.00526e-09
1.00474e-09
1.00423e-09
1.00371e-09
1.00319e-09
1.00267e-09
1.00215e-09
1.00163e-09
1.00111e-09
1.00058e-09
1.00006e-09
9.99532e-10
9.99005e-10
9.98477e-10
9.97948e-10
9.97418e-10
9.96887e-10
9.96355e-10
9.95821e-10
9.95287e-10
9.94752e-10
9.94216e-10
9.93679e-10
9.93141e-10
9.92602e-10
9.92062e-10
9.91521e-10
9.90979e-10
9.90436e-10
9.89893e-10
9.89349e-10
9.88804e-10
9.88258e-10
9.87711e-10
9.87164e-10
9.86615e-10
9.86066e-10
9.85517e-10
9.84967e-10
9.84416e-10
9.83864e-10
9.83311e-10
9.82758e-10
9.82204e-10
9.81649e-10
9.81092e-10
9.80535e-10
9.79975e-10
9.79414e-10
9.78851e-10
9.78286e-10
9.77719e-10
9.77148e-10
9.76574e-10
9.75997e-10
9.75417e-10
9.74832e-10
9.74243e-10
9.73651e-10
9.73053e-10
9.72451e-10
9.71845e-10
9.71234e-10
9.70618e-10
9.69999e-10
9.69375e-10
9.68748e-10
9.68117e-10
9.67483e-10
9.66847e-10
9.66209e-10
9.6557e-10
9.6493e-10
9.6429e-10
9.63652e-10
9.63015e-10
9.6238e-10
9.61749e-10
9.61121e-10
9.60499e-10
9.59881e-10
9.5927e-10
9.58665e-10
9.58067e-10
9.57476e-10
9.56894e-10
9.56319e-10
9.55752e-10
9.55192e-10
9.54641e-10
9.54097e-10
9.53559e-10
9.53029e-10
9.52504e-10
9.51984e-10
9.51468e-10
9.50957e-10
9.50448e-10
9.49941e-10
9.49435e-10
9.4893e-10
9.48425e-10
9.47919e-10
9.47411e-10
9.46901e-10
9.46389e-10
9.45874e-10
9.45356e-10
9.44834e-10
9.44309e-10
9.43779e-10
9.43247e-10
9.4271e-10
9.4217e-10
9.41627e-10
9.4108e-10
9.4053e-10
9.39977e-10
9.39422e-10
9.38864e-10
9.38304e-10
9.37741e-10
9.37177e-10
9.36612e-10
9.36045e-10
9.35476e-10
9.34907e-10
9.34336e-10
9.33765e-10
9.33193e-10
9.32621e-10
9.32048e-10
9.31474e-10
9.309e-10
9.30326e-10
9.29751e-10
9.29176e-10
9.286e-10
9.28024e-10
9.27448e-10
9.26871e-10
9.26293e-10
9.25715e-10
9.25137e-10
9.24557e-10
9.23978e-10
9.23397e-10
9.22816e-10
9.22234e-10
9.21651e-10
9.21068e-10
9.20483e-10
9.19898e-10
9.19312e-10
9.18725e-10
9.18137e-10
9.17548e-10
9.16958e-10
9.16366e-10
9.15774e-10
9.15181e-10
9.14587e-10
9.13991e-10
9.13395e-10
9.12797e-10
9.12198e-10
9.11598e-10
9.10997e-10
9.10395e-10
9.09791e-10
9.09186e-10
9.0858e-10
9.07973e-10
9.07365e-10
9.06756e-10
9.06145e-10
9.05533e-10
9.0492e-10
9.04306e-10
9.03691e-10
9.03075e-10
9.02457e-10
9.01838e-10
9.01219e-10
9.00598e-10
8.99976e-10
8.99352e-10
8.98728e-10
8.98103e-10
8.97476e-10
8.96849e-10
8.9622e-10
8.95591e-10
8.9496e-10
8.94328e-10
8.93696e-10
8.93062e-10
8.92427e-10
8.91792e-10
8.91155e-10
8.90517e-10
8.89879e-10
8.89239e-10
8.88598e-10
8.87956e-10
8.87312e-10
8.86668e-10
8.86022e-10
8.85374e-10
8.84725e-10
8.84075e-10
8.83422e-10
8.82768e-10
8.82112e-10
8.81454e-10
8.80793e-10
8.8013e-10
8.79464e-10
8.78796e-10
8.78124e-10
8.7745e-10
8.76773e-10
8.76093e-10
8.75409e-10
8.74722e-10
8.74032e-10
8.73339e-10
8.72643e-10
8.71943e-10
8.71241e-10
8.70536e-10
8.69828e-10
8.69117e-10
8.68405e-10
8.6769e-10
8.66974e-10
8.66256e-10
8.65537e-10
8.64817e-10
8.64098e-10
8.63378e-10
8.62658e-10
8.6194e-10
8.61222e-10
8.60507e-10
8.59793e-10
8.59082e-10
8.58373e-10
8.57668e-10
8.56966e-10
8.56267e-10
8.55573e-10
8.54882e-10
8.54196e-10
8.53513e-10
8.52836e-10
8.52162e-10
8.51492e-10
8.50827e-10
8.50165e-10
8.49507e-10
8.48852e-10
8.482e-10
8.47551e-10
8.46904e-10
8.46258e-10
8.45614e-10
8.44972e-10
8.44329e-10
8.43687e-10
8.43045e-10
8.42401e-10
8.41757e-10
8.41112e-10
8.40465e-10
8.39815e-10
8.39164e-10
8.38511e-10
8.37854e-10
8.37196e-10
8.36534e-10
8.3587e-10
8.35202e-10
8.34532e-10
8.33859e-10
8.33183e-10
8.32505e-10
8.31824e-10
8.3114e-10
8.30453e-10
8.29765e-10
8.29074e-10
8.28381e-10
8.27685e-10
8.26988e-10
8.26289e-10
8.25588e-10
8.24885e-10
8.24181e-10
8.23475e-10
8.22768e-10
8.22059e-10
8.21349e-10
8.20637e-10
8.19924e-10
8.1921e-10
8.18495e-10
8.17779e-10
8.17061e-10
8.16342e-10
8.15622e-10
8.149e-10
8.14177e-10
8.13453e-10
8.12728e-10
8.12002e-10
8.11274e-10
8.10544e-10
8.09814e-10
8.09082e-10
8.08349e-10
8.07614e-10
8.06877e-10
8.06139e-10
8.054e-10
8.04659e-10
8.03917e-10
8.03172e-10
8.02427e-10
8.01679e-10
8.0093e-10
8.0018e-10
7.99427e-10
7.98673e-10
7.97917e-10
7.9716e-10
7.964e-10
7.95639e-10
7.94876e-10
7.94111e-10
7.93344e-10
7.92576e-10
7.91805e-10
7.91033e-10
7.90259e-10
7.89483e-10
7.88705e-10
7.87926e-10
7.87144e-10
7.8636e-10
7.85575e-10
7.84787e-10
7.83998e-10
7.83206e-10
7.82413e-10
7.81618e-10
7.80821e-10
7.80022e-10
7.79221e-10
7.78418e-10
7.77613e-10
7.76806e-10
7.75997e-10
7.75186e-10
7.74373e-10
7.73558e-10
7.72742e-10
7.71923e-10
7.71102e-10
7.70279e-10
7.69455e-10
7.68628e-10
7.67799e-10
7.66968e-10
7.66135e-10
7.653e-10
7.64463e-10
7.63623e-10
7.62781e-10
7.61937e-10
7.61091e-10
7.60242e-10
7.59391e-10
7.58538e-10
7.57682e-10
7.56823e-10
7.55961e-10
7.55097e-10
7.5423e-10
7.5336e-10
7.52487e-10
7.51611e-10
7.50731e-10
7.49849e-10
7.48963e-10
7.48073e-10
7.4718e-10
7.46284e-10
7.45384e-10
7.44481e-10
7.43574e-10
7.42663e-10
7.41749e-10
7.40831e-10
7.39909e-10
7.38984e-10
7.38056e-10
7.37124e-10
7.36188e-10
7.3525e-10
7.34308e-10
7.33363e-10
7.32415e-10
7.31465e-10
7.30512e-10
7.29556e-10
7.28598e-10
7.27638e-10
7.26676e-10
7.25713e-10
7.24748e-10
7.23781e-10
7.22814e-10
7.21845e-10
7.20876e-10
7.19906e-10
7.18935e-10
7.17964e-10
7.16994e-10
7.16022e-10
7.15051e-10
7.14081e-10
7.1311e-10
7.1214e-10
7.11169e-10
7.10199e-10
7.0923e-10
7.0826e-10
7.0729e-10
7.06321e-10
7.05351e-10
7.04381e-10
7.03411e-10
7.0244e-10
7.01468e-10
7.00495e-10
6.99521e-10
6.98545e-10
6.97568e-10
6.9659e-10
6.95609e-10
6.94626e-10
6.9364e-10
6.92653e-10
6.91662e-10
6.90669e-10
6.89673e-10
6.88674e-10
6.87672e-10
6.86667e-10
6.85659e-10
6.84648e-10
6.83635e-10
6.82619e-10
6.816e-10
6.8058e-10
6.79557e-10
6.78533e-10
6.77508e-10
6.76481e-10
6.75455e-10
6.74429e-10
6.73404e-10
6.7238e-10
6.7136e-10
6.70343e-10
6.6933e-10
6.68323e-10
6.67323e-10
6.66331e-10
6.6535e-10
6.6438e-10
6.63423e-10
6.62482e-10
6.61557e-10
6.60652e-10
6.59768e-10
6.58908e-10
6.58074e-10
6.57267e-10
6.56492e-10
6.55747e-10
6.55038e-10
6.54363e-10
6.53727e-10
6.53128e-10
6.52568e-10
6.52048e-10
6.51567e-10
6.51126e-10
6.50725e-10
6.5036e-10
6.50032e-10
6.49738e-10
6.49478e-10
6.49247e-10
6.49047e-10
6.48873e-10
6.48723e-10
6.48594e-10
6.48485e-10
6.48394e-10
6.48318e-10
6.48255e-10
6.48204e-10
6.48163e-10
6.48131e-10
6.48105e-10
6.4808e-10
6.48059e-10
6.48036e-10
6.4801e-10
)
;

boundaryField
{
    inlet
    {
        type            calculated;
        value           uniform -1.13622e-09;
    }
    outlet
    {
        type            calculated;
        value           uniform 7.3696e-10;
    }
    emptyWalls
    {
        type            empty;
        value           nonuniform List<scalar> 0();
    }
}


// ************************************************************************* //
