/*--------------------------------*- C++ -*----------------------------------*\
  =========                 |
  \\      /  F ield         | OpenFOAM: The Open Source CFD Toolbox
   \\    /   O peration     | Website:  https://openfoam.org
    \\  /    A nd           | Version:  9
     \\/     M anipulation  |
\*---------------------------------------------------------------------------*/
FoamFile
{
    format      ascii;
    class       volVectorField;
    location    "25250";
    object      Ua;
}
// * * * * * * * * * * * * * * * * * * * * * * * * * * * * * * * * * * * * * //

dimensions      [0 0 0 0 0 0 0];

internalField   nonuniform List<vector> 
1000
(
(2.74895e-06 0 0)
(2.74867e-06 0 0)
(2.74867e-06 0 0)
(2.74855e-06 0 0)
(2.74843e-06 0 0)
(2.74825e-06 0 0)
(2.74799e-06 0 0)
(2.74772e-06 0 0)
(2.74738e-06 0 0)
(2.747e-06 0 0)
(2.74655e-06 0 0)
(2.74605e-06 0 0)
(2.74548e-06 0 0)
(2.74488e-06 0 0)
(2.74428e-06 0 0)
(2.74359e-06 0 0)
(2.74297e-06 0 0)
(2.74225e-06 0 0)
(2.74154e-06 0 0)
(2.74081e-06 0 0)
(2.74e-06 0 0)
(2.73926e-06 0 0)
(2.7385e-06 0 0)
(2.73777e-06 0 0)
(2.73709e-06 0 0)
(2.73645e-06 0 0)
(2.73584e-06 0 0)
(2.7353e-06 0 0)
(2.73484e-06 0 0)
(2.7344e-06 0 0)
(2.73406e-06 0 0)
(2.73354e-06 0 0)
(2.73228e-06 0 0)
(2.72787e-06 0 0)
(2.70964e-06 0 0)
(2.60043e-06 0 0)
(2.3513e-06 0 0)
(2.17351e-06 0 0)
(2.14648e-06 0 0)
(2.14444e-06 0 0)
(2.14831e-06 0 0)
(2.14951e-06 0 0)
(2.14529e-06 0 0)
(2.13816e-06 0 0)
(2.12935e-06 0 0)
(2.11805e-06 0 0)
(2.10687e-06 0 0)
(2.09841e-06 0 0)
(2.09243e-06 0 0)
(2.08822e-06 0 0)
(2.08607e-06 0 0)
(2.08573e-06 0 0)
(2.08566e-06 0 0)
(2.08527e-06 0 0)
(2.08453e-06 0 0)
(2.0835e-06 0 0)
(2.08218e-06 0 0)
(2.08066e-06 0 0)
(2.07909e-06 0 0)
(2.07748e-06 0 0)
(2.07583e-06 0 0)
(2.07419e-06 0 0)
(2.07258e-06 0 0)
(2.07103e-06 0 0)
(2.06953e-06 0 0)
(2.06808e-06 0 0)
(2.06668e-06 0 0)
(2.06534e-06 0 0)
(2.06405e-06 0 0)
(2.0628e-06 0 0)
(2.06161e-06 0 0)
(2.06046e-06 0 0)
(2.05934e-06 0 0)
(2.05828e-06 0 0)
(2.05725e-06 0 0)
(2.05625e-06 0 0)
(2.05529e-06 0 0)
(2.05438e-06 0 0)
(2.05351e-06 0 0)
(2.0527e-06 0 0)
(2.05192e-06 0 0)
(2.05119e-06 0 0)
(2.05049e-06 0 0)
(2.04983e-06 0 0)
(2.0492e-06 0 0)
(2.04861e-06 0 0)
(2.04805e-06 0 0)
(2.04752e-06 0 0)
(2.04703e-06 0 0)
(2.04658e-06 0 0)
(2.04618e-06 0 0)
(2.04583e-06 0 0)
(2.04554e-06 0 0)
(2.04529e-06 0 0)
(2.04508e-06 0 0)
(2.04491e-06 0 0)
(2.04476e-06 0 0)
(2.04465e-06 0 0)
(2.04456e-06 0 0)
(2.04449e-06 0 0)
(2.04444e-06 0 0)
(2.04438e-06 0 0)
(2.04433e-06 0 0)
(2.04429e-06 0 0)
(2.04429e-06 0 0)
(2.04433e-06 0 0)
(2.04441e-06 0 0)
(2.04454e-06 0 0)
(2.04469e-06 0 0)
(2.04485e-06 0 0)
(2.04499e-06 0 0)
(2.04508e-06 0 0)
(2.04512e-06 0 0)
(2.04511e-06 0 0)
(2.04505e-06 0 0)
(2.04497e-06 0 0)
(2.04488e-06 0 0)
(2.04481e-06 0 0)
(2.04479e-06 0 0)
(2.04489e-06 0 0)
(2.04518e-06 0 0)
(2.04577e-06 0 0)
(2.04671e-06 0 0)
(2.04804e-06 0 0)
(2.04975e-06 0 0)
(2.05178e-06 0 0)
(2.05406e-06 0 0)
(2.05649e-06 0 0)
(2.059e-06 0 0)
(2.06151e-06 0 0)
(2.06398e-06 0 0)
(2.06636e-06 0 0)
(2.0686e-06 0 0)
(2.07063e-06 0 0)
(2.07239e-06 0 0)
(2.0738e-06 0 0)
(2.07478e-06 0 0)
(2.07528e-06 0 0)
(2.07524e-06 0 0)
(2.07466e-06 0 0)
(2.07355e-06 0 0)
(2.07196e-06 0 0)
(2.06995e-06 0 0)
(2.06762e-06 0 0)
(2.06507e-06 0 0)
(2.0624e-06 0 0)
(2.05973e-06 0 0)
(2.05713e-06 0 0)
(2.05468e-06 0 0)
(2.05245e-06 0 0)
(2.05047e-06 0 0)
(2.04875e-06 0 0)
(2.04731e-06 0 0)
(2.04614e-06 0 0)
(2.04522e-06 0 0)
(2.04452e-06 0 0)
(2.044e-06 0 0)
(2.04363e-06 0 0)
(2.04338e-06 0 0)
(2.04321e-06 0 0)
(2.04309e-06 0 0)
(2.043e-06 0 0)
(2.04291e-06 0 0)
(2.0428e-06 0 0)
(2.04267e-06 0 0)
(2.04251e-06 0 0)
(2.0423e-06 0 0)
(2.04205e-06 0 0)
(2.04177e-06 0 0)
(2.04145e-06 0 0)
(2.04109e-06 0 0)
(2.0407e-06 0 0)
(2.04029e-06 0 0)
(2.03986e-06 0 0)
(2.03942e-06 0 0)
(2.03896e-06 0 0)
(2.0385e-06 0 0)
(2.03803e-06 0 0)
(2.03756e-06 0 0)
(2.03709e-06 0 0)
(2.03662e-06 0 0)
(2.03615e-06 0 0)
(2.0357e-06 0 0)
(2.03524e-06 0 0)
(2.0348e-06 0 0)
(2.03436e-06 0 0)
(2.03393e-06 0 0)
(2.03351e-06 0 0)
(2.0331e-06 0 0)
(2.0327e-06 0 0)
(2.03231e-06 0 0)
(2.03193e-06 0 0)
(2.03157e-06 0 0)
(2.03121e-06 0 0)
(2.03087e-06 0 0)
(2.03053e-06 0 0)
(2.03021e-06 0 0)
(2.0299e-06 0 0)
(2.0296e-06 0 0)
(2.02931e-06 0 0)
(2.02903e-06 0 0)
(2.02876e-06 0 0)
(2.02851e-06 0 0)
(2.02826e-06 0 0)
(2.02803e-06 0 0)
(2.02781e-06 0 0)
(2.0276e-06 0 0)
(2.02741e-06 0 0)
(2.02723e-06 0 0)
(2.02707e-06 0 0)
(2.02692e-06 0 0)
(2.02679e-06 0 0)
(2.02666e-06 0 0)
(2.02654e-06 0 0)
(2.02643e-06 0 0)
(2.02632e-06 0 0)
(2.02622e-06 0 0)
(2.02613e-06 0 0)
(2.02603e-06 0 0)
(2.02595e-06 0 0)
(2.02586e-06 0 0)
(2.02579e-06 0 0)
(2.02573e-06 0 0)
(2.02567e-06 0 0)
(2.02563e-06 0 0)
(2.02561e-06 0 0)
(2.02559e-06 0 0)
(2.02559e-06 0 0)
(2.0256e-06 0 0)
(2.02561e-06 0 0)
(2.02562e-06 0 0)
(2.02563e-06 0 0)
(2.02563e-06 0 0)
(2.02562e-06 0 0)
(2.02559e-06 0 0)
(2.02556e-06 0 0)
(2.02552e-06 0 0)
(2.02549e-06 0 0)
(2.02548e-06 0 0)
(2.0255e-06 0 0)
(2.02557e-06 0 0)
(2.02572e-06 0 0)
(2.02596e-06 0 0)
(2.02631e-06 0 0)
(2.02678e-06 0 0)
(2.02738e-06 0 0)
(2.02812e-06 0 0)
(2.02901e-06 0 0)
(2.03004e-06 0 0)
(2.03121e-06 0 0)
(2.03251e-06 0 0)
(2.03392e-06 0 0)
(2.03542e-06 0 0)
(2.037e-06 0 0)
(2.03863e-06 0 0)
(2.04028e-06 0 0)
(2.04191e-06 0 0)
(2.0435e-06 0 0)
(2.04501e-06 0 0)
(2.0464e-06 0 0)
(2.04764e-06 0 0)
(2.04869e-06 0 0)
(2.04954e-06 0 0)
(2.05014e-06 0 0)
(2.05049e-06 0 0)
(2.05056e-06 0 0)
(2.05036e-06 0 0)
(2.04989e-06 0 0)
(2.04917e-06 0 0)
(2.0482e-06 0 0)
(2.04701e-06 0 0)
(2.04565e-06 0 0)
(2.04414e-06 0 0)
(2.04252e-06 0 0)
(2.04083e-06 0 0)
(2.03911e-06 0 0)
(2.0374e-06 0 0)
(2.03572e-06 0 0)
(2.0341e-06 0 0)
(2.03258e-06 0 0)
(2.03115e-06 0 0)
(2.02984e-06 0 0)
(2.02866e-06 0 0)
(2.02759e-06 0 0)
(2.02665e-06 0 0)
(2.02582e-06 0 0)
(2.0251e-06 0 0)
(2.02447e-06 0 0)
(2.02393e-06 0 0)
(2.02346e-06 0 0)
(2.02305e-06 0 0)
(2.02269e-06 0 0)
(2.02237e-06 0 0)
(2.02207e-06 0 0)
(2.02179e-06 0 0)
(2.02152e-06 0 0)
(2.02125e-06 0 0)
(2.02098e-06 0 0)
(2.0207e-06 0 0)
(2.02041e-06 0 0)
(2.02011e-06 0 0)
(2.01979e-06 0 0)
(2.01946e-06 0 0)
(2.01912e-06 0 0)
(2.01876e-06 0 0)
(2.01839e-06 0 0)
(2.018e-06 0 0)
(2.01761e-06 0 0)
(2.01721e-06 0 0)
(2.0168e-06 0 0)
(2.01639e-06 0 0)
(2.01598e-06 0 0)
(2.01556e-06 0 0)
(2.01514e-06 0 0)
(2.01472e-06 0 0)
(2.01431e-06 0 0)
(2.01389e-06 0 0)
(2.01348e-06 0 0)
(2.01308e-06 0 0)
(2.01268e-06 0 0)
(2.01229e-06 0 0)
(2.0119e-06 0 0)
(2.01152e-06 0 0)
(2.01115e-06 0 0)
(2.01079e-06 0 0)
(2.01043e-06 0 0)
(2.01008e-06 0 0)
(2.00974e-06 0 0)
(2.00941e-06 0 0)
(2.00909e-06 0 0)
(2.00877e-06 0 0)
(2.00847e-06 0 0)
(2.00817e-06 0 0)
(2.00788e-06 0 0)
(2.00761e-06 0 0)
(2.00734e-06 0 0)
(2.00708e-06 0 0)
(2.00683e-06 0 0)
(2.00659e-06 0 0)
(2.00636e-06 0 0)
(2.00614e-06 0 0)
(2.00593e-06 0 0)
(2.00574e-06 0 0)
(2.00555e-06 0 0)
(2.00537e-06 0 0)
(2.0052e-06 0 0)
(2.00504e-06 0 0)
(2.00488e-06 0 0)
(2.00474e-06 0 0)
(2.0046e-06 0 0)
(2.00447e-06 0 0)
(2.00434e-06 0 0)
(2.00422e-06 0 0)
(2.00411e-06 0 0)
(2.00401e-06 0 0)
(2.00391e-06 0 0)
(2.00381e-06 0 0)
(2.00373e-06 0 0)
(2.00365e-06 0 0)
(2.00358e-06 0 0)
(2.00351e-06 0 0)
(2.00345e-06 0 0)
(2.0034e-06 0 0)
(2.00335e-06 0 0)
(2.0033e-06 0 0)
(2.00326e-06 0 0)
(2.00321e-06 0 0)
(2.00317e-06 0 0)
(2.00313e-06 0 0)
(2.0031e-06 0 0)
(2.00306e-06 0 0)
(2.00302e-06 0 0)
(2.00299e-06 0 0)
(2.00297e-06 0 0)
(2.00296e-06 0 0)
(2.00297e-06 0 0)
(2.00301e-06 0 0)
(2.00307e-06 0 0)
(2.00317e-06 0 0)
(2.00332e-06 0 0)
(2.00352e-06 0 0)
(2.00378e-06 0 0)
(2.0041e-06 0 0)
(2.00449e-06 0 0)
(2.00495e-06 0 0)
(2.0055e-06 0 0)
(2.00612e-06 0 0)
(2.00683e-06 0 0)
(2.00761e-06 0 0)
(2.00847e-06 0 0)
(2.00939e-06 0 0)
(2.01038e-06 0 0)
(2.01143e-06 0 0)
(2.01251e-06 0 0)
(2.01363e-06 0 0)
(2.01477e-06 0 0)
(2.0159e-06 0 0)
(2.01703e-06 0 0)
(2.01812e-06 0 0)
(2.01916e-06 0 0)
(2.02014e-06 0 0)
(2.02104e-06 0 0)
(2.02184e-06 0 0)
(2.02253e-06 0 0)
(2.02309e-06 0 0)
(2.02351e-06 0 0)
(2.02378e-06 0 0)
(2.0239e-06 0 0)
(2.02386e-06 0 0)
(2.02365e-06 0 0)
(2.0233e-06 0 0)
(2.02279e-06 0 0)
(2.02214e-06 0 0)
(2.02135e-06 0 0)
(2.02046e-06 0 0)
(2.01945e-06 0 0)
(2.01837e-06 0 0)
(2.01722e-06 0 0)
(2.01602e-06 0 0)
(2.01479e-06 0 0)
(2.01354e-06 0 0)
(2.0123e-06 0 0)
(2.01108e-06 0 0)
(2.00989e-06 0 0)
(2.00874e-06 0 0)
(2.00764e-06 0 0)
(2.0066e-06 0 0)
(2.00562e-06 0 0)
(2.0047e-06 0 0)
(2.00385e-06 0 0)
(2.00307e-06 0 0)
(2.00234e-06 0 0)
(2.00168e-06 0 0)
(2.00107e-06 0 0)
(2.00052e-06 0 0)
(2.00001e-06 0 0)
(1.99954e-06 0 0)
(1.9991e-06 0 0)
(1.9987e-06 0 0)
(1.99832e-06 0 0)
(1.99796e-06 0 0)
(1.99761e-06 0 0)
(1.99728e-06 0 0)
(1.99695e-06 0 0)
(1.99663e-06 0 0)
(1.9963e-06 0 0)
(1.99598e-06 0 0)
(1.99566e-06 0 0)
(1.99533e-06 0 0)
(1.99499e-06 0 0)
(1.99465e-06 0 0)
(1.99431e-06 0 0)
(1.99396e-06 0 0)
(1.9936e-06 0 0)
(1.99324e-06 0 0)
(1.99287e-06 0 0)
(1.99249e-06 0 0)
(1.99212e-06 0 0)
(1.99174e-06 0 0)
(1.99136e-06 0 0)
(1.99098e-06 0 0)
(1.99059e-06 0 0)
(1.99021e-06 0 0)
(1.98983e-06 0 0)
(1.98945e-06 0 0)
(1.98907e-06 0 0)
(1.98869e-06 0 0)
(1.98832e-06 0 0)
(1.98795e-06 0 0)
(1.98759e-06 0 0)
(1.98723e-06 0 0)
(1.98687e-06 0 0)
(1.98652e-06 0 0)
(1.98618e-06 0 0)
(1.98584e-06 0 0)
(1.98551e-06 0 0)
(1.98519e-06 0 0)
(1.98487e-06 0 0)
(1.98456e-06 0 0)
(1.98425e-06 0 0)
(1.98396e-06 0 0)
(1.98367e-06 0 0)
(1.98338e-06 0 0)
(1.98311e-06 0 0)
(1.98284e-06 0 0)
(1.98258e-06 0 0)
(1.98233e-06 0 0)
(1.98209e-06 0 0)
(1.98185e-06 0 0)
(1.98163e-06 0 0)
(1.98141e-06 0 0)
(1.9812e-06 0 0)
(1.98099e-06 0 0)
(1.9808e-06 0 0)
(1.98061e-06 0 0)
(1.98042e-06 0 0)
(1.98025e-06 0 0)
(1.98008e-06 0 0)
(1.97992e-06 0 0)
(1.97976e-06 0 0)
(1.97962e-06 0 0)
(1.97947e-06 0 0)
(1.97934e-06 0 0)
(1.97921e-06 0 0)
(1.97908e-06 0 0)
(1.97896e-06 0 0)
(1.97885e-06 0 0)
(1.97874e-06 0 0)
(1.97863e-06 0 0)
(1.97854e-06 0 0)
(1.97844e-06 0 0)
(1.97835e-06 0 0)
(1.97826e-06 0 0)
(1.97818e-06 0 0)
(1.9781e-06 0 0)
(1.97802e-06 0 0)
(1.97795e-06 0 0)
(1.97788e-06 0 0)
(1.97781e-06 0 0)
(1.97775e-06 0 0)
(1.97769e-06 0 0)
(1.97764e-06 0 0)
(1.9776e-06 0 0)
(1.97757e-06 0 0)
(1.97755e-06 0 0)
(1.97754e-06 0 0)
(1.97755e-06 0 0)
(1.97758e-06 0 0)
(1.97764e-06 0 0)
(1.97772e-06 0 0)
(1.97783e-06 0 0)
(1.97797e-06 0 0)
(1.97815e-06 0 0)
(1.97837e-06 0 0)
(1.97864e-06 0 0)
(1.97895e-06 0 0)
(1.9793e-06 0 0)
(1.97971e-06 0 0)
(1.98017e-06 0 0)
(1.98067e-06 0 0)
(1.98122e-06 0 0)
(1.98182e-06 0 0)
(1.98247e-06 0 0)
(1.98316e-06 0 0)
(1.98388e-06 0 0)
(1.98464e-06 0 0)
(1.98543e-06 0 0)
(1.98624e-06 0 0)
(1.98706e-06 0 0)
(1.98788e-06 0 0)
(1.98871e-06 0 0)
(1.98952e-06 0 0)
(1.99032e-06 0 0)
(1.99108e-06 0 0)
(1.99181e-06 0 0)
(1.99249e-06 0 0)
(1.99311e-06 0 0)
(1.99367e-06 0 0)
(1.99415e-06 0 0)
(1.99455e-06 0 0)
(1.99486e-06 0 0)
(1.99509e-06 0 0)
(1.99521e-06 0 0)
(1.99524e-06 0 0)
(1.99516e-06 0 0)
(1.99498e-06 0 0)
(1.9947e-06 0 0)
(1.99433e-06 0 0)
(1.99386e-06 0 0)
(1.99331e-06 0 0)
(1.99267e-06 0 0)
(1.99196e-06 0 0)
(1.99118e-06 0 0)
(1.99035e-06 0 0)
(1.98948e-06 0 0)
(1.98856e-06 0 0)
(1.98762e-06 0 0)
(1.98666e-06 0 0)
(1.98569e-06 0 0)
(1.98472e-06 0 0)
(1.98376e-06 0 0)
(1.98281e-06 0 0)
(1.98188e-06 0 0)
(1.98098e-06 0 0)
(1.98011e-06 0 0)
(1.97928e-06 0 0)
(1.97848e-06 0 0)
(1.97771e-06 0 0)
(1.97699e-06 0 0)
(1.9763e-06 0 0)
(1.97565e-06 0 0)
(1.97504e-06 0 0)
(1.97446e-06 0 0)
(1.97392e-06 0 0)
(1.9734e-06 0 0)
(1.97292e-06 0 0)
(1.97245e-06 0 0)
(1.97201e-06 0 0)
(1.97159e-06 0 0)
(1.97119e-06 0 0)
(1.9708e-06 0 0)
(1.97042e-06 0 0)
(1.97005e-06 0 0)
(1.96969e-06 0 0)
(1.96933e-06 0 0)
(1.96898e-06 0 0)
(1.96863e-06 0 0)
(1.96828e-06 0 0)
(1.96793e-06 0 0)
(1.96758e-06 0 0)
(1.96723e-06 0 0)
(1.96688e-06 0 0)
(1.96652e-06 0 0)
(1.96616e-06 0 0)
(1.96581e-06 0 0)
(1.96544e-06 0 0)
(1.96508e-06 0 0)
(1.96472e-06 0 0)
(1.96435e-06 0 0)
(1.96398e-06 0 0)
(1.96361e-06 0 0)
(1.96324e-06 0 0)
(1.96288e-06 0 0)
(1.96251e-06 0 0)
(1.96214e-06 0 0)
(1.96178e-06 0 0)
(1.96141e-06 0 0)
(1.96105e-06 0 0)
(1.96069e-06 0 0)
(1.96034e-06 0 0)
(1.95999e-06 0 0)
(1.95964e-06 0 0)
(1.95929e-06 0 0)
(1.95895e-06 0 0)
(1.95862e-06 0 0)
(1.95829e-06 0 0)
(1.95797e-06 0 0)
(1.95765e-06 0 0)
(1.95733e-06 0 0)
(1.95703e-06 0 0)
(1.95673e-06 0 0)
(1.95643e-06 0 0)
(1.95614e-06 0 0)
(1.95586e-06 0 0)
(1.95558e-06 0 0)
(1.95531e-06 0 0)
(1.95505e-06 0 0)
(1.9548e-06 0 0)
(1.95455e-06 0 0)
(1.9543e-06 0 0)
(1.95407e-06 0 0)
(1.95384e-06 0 0)
(1.95362e-06 0 0)
(1.9534e-06 0 0)
(1.95319e-06 0 0)
(1.95299e-06 0 0)
(1.95279e-06 0 0)
(1.9526e-06 0 0)
(1.95242e-06 0 0)
(1.95224e-06 0 0)
(1.95207e-06 0 0)
(1.9519e-06 0 0)
(1.95174e-06 0 0)
(1.95159e-06 0 0)
(1.95144e-06 0 0)
(1.95129e-06 0 0)
(1.95115e-06 0 0)
(1.95102e-06 0 0)
(1.95089e-06 0 0)
(1.95076e-06 0 0)
(1.95064e-06 0 0)
(1.95053e-06 0 0)
(1.95041e-06 0 0)
(1.95031e-06 0 0)
(1.9502e-06 0 0)
(1.9501e-06 0 0)
(1.95001e-06 0 0)
(1.94991e-06 0 0)
(1.94983e-06 0 0)
(1.94974e-06 0 0)
(1.94966e-06 0 0)
(1.94959e-06 0 0)
(1.94952e-06 0 0)
(1.94946e-06 0 0)
(1.94941e-06 0 0)
(1.94937e-06 0 0)
(1.94933e-06 0 0)
(1.94931e-06 0 0)
(1.9493e-06 0 0)
(1.9493e-06 0 0)
(1.94932e-06 0 0)
(1.94936e-06 0 0)
(1.94942e-06 0 0)
(1.94949e-06 0 0)
(1.9496e-06 0 0)
(1.94972e-06 0 0)
(1.94987e-06 0 0)
(1.95006e-06 0 0)
(1.95027e-06 0 0)
(1.95051e-06 0 0)
(1.95078e-06 0 0)
(1.95108e-06 0 0)
(1.95142e-06 0 0)
(1.95179e-06 0 0)
(1.9522e-06 0 0)
(1.95263e-06 0 0)
(1.95309e-06 0 0)
(1.95359e-06 0 0)
(1.95411e-06 0 0)
(1.95465e-06 0 0)
(1.95522e-06 0 0)
(1.9558e-06 0 0)
(1.9564e-06 0 0)
(1.95701e-06 0 0)
(1.95763e-06 0 0)
(1.95825e-06 0 0)
(1.95886e-06 0 0)
(1.95947e-06 0 0)
(1.96007e-06 0 0)
(1.96064e-06 0 0)
(1.96119e-06 0 0)
(1.96171e-06 0 0)
(1.9622e-06 0 0)
(1.96265e-06 0 0)
(1.96305e-06 0 0)
(1.9634e-06 0 0)
(1.96369e-06 0 0)
(1.96393e-06 0 0)
(1.96411e-06 0 0)
(1.96422e-06 0 0)
(1.96427e-06 0 0)
(1.96424e-06 0 0)
(1.96415e-06 0 0)
(1.96399e-06 0 0)
(1.96376e-06 0 0)
(1.96346e-06 0 0)
(1.9631e-06 0 0)
(1.96267e-06 0 0)
(1.96219e-06 0 0)
(1.96164e-06 0 0)
(1.96105e-06 0 0)
(1.96041e-06 0 0)
(1.95973e-06 0 0)
(1.95902e-06 0 0)
(1.95827e-06 0 0)
(1.9575e-06 0 0)
(1.95672e-06 0 0)
(1.95591e-06 0 0)
(1.9551e-06 0 0)
(1.95429e-06 0 0)
(1.95348e-06 0 0)
(1.95267e-06 0 0)
(1.95188e-06 0 0)
(1.95109e-06 0 0)
(1.95033e-06 0 0)
(1.94958e-06 0 0)
(1.94885e-06 0 0)
(1.94815e-06 0 0)
(1.94747e-06 0 0)
(1.94681e-06 0 0)
(1.94618e-06 0 0)
(1.94557e-06 0 0)
(1.94498e-06 0 0)
(1.94442e-06 0 0)
(1.94388e-06 0 0)
(1.94336e-06 0 0)
(1.94286e-06 0 0)
(1.94238e-06 0 0)
(1.94191e-06 0 0)
(1.94147e-06 0 0)
(1.94103e-06 0 0)
(1.94061e-06 0 0)
(1.9402e-06 0 0)
(1.9398e-06 0 0)
(1.9394e-06 0 0)
(1.93902e-06 0 0)
(1.93863e-06 0 0)
(1.93826e-06 0 0)
(1.93789e-06 0 0)
(1.93752e-06 0 0)
(1.93715e-06 0 0)
(1.93679e-06 0 0)
(1.93642e-06 0 0)
(1.93606e-06 0 0)
(1.9357e-06 0 0)
(1.93534e-06 0 0)
(1.93498e-06 0 0)
(1.93461e-06 0 0)
(1.93425e-06 0 0)
(1.93389e-06 0 0)
(1.93353e-06 0 0)
(1.93317e-06 0 0)
(1.93281e-06 0 0)
(1.93244e-06 0 0)
(1.93208e-06 0 0)
(1.93173e-06 0 0)
(1.93137e-06 0 0)
(1.93101e-06 0 0)
(1.93066e-06 0 0)
(1.9303e-06 0 0)
(1.92995e-06 0 0)
(1.92961e-06 0 0)
(1.92926e-06 0 0)
(1.92892e-06 0 0)
(1.92858e-06 0 0)
(1.92825e-06 0 0)
(1.92791e-06 0 0)
(1.92759e-06 0 0)
(1.92726e-06 0 0)
(1.92694e-06 0 0)
(1.92663e-06 0 0)
(1.92632e-06 0 0)
(1.92602e-06 0 0)
(1.92572e-06 0 0)
(1.92542e-06 0 0)
(1.92513e-06 0 0)
(1.92485e-06 0 0)
(1.92457e-06 0 0)
(1.92429e-06 0 0)
(1.92402e-06 0 0)
(1.92376e-06 0 0)
(1.9235e-06 0 0)
(1.92325e-06 0 0)
(1.923e-06 0 0)
(1.92276e-06 0 0)
(1.92252e-06 0 0)
(1.92229e-06 0 0)
(1.92207e-06 0 0)
(1.92185e-06 0 0)
(1.92163e-06 0 0)
(1.92142e-06 0 0)
(1.92122e-06 0 0)
(1.92102e-06 0 0)
(1.92082e-06 0 0)
(1.92063e-06 0 0)
(1.92045e-06 0 0)
(1.92027e-06 0 0)
(1.92009e-06 0 0)
(1.91992e-06 0 0)
(1.91975e-06 0 0)
(1.91959e-06 0 0)
(1.91943e-06 0 0)
(1.91927e-06 0 0)
(1.91912e-06 0 0)
(1.91897e-06 0 0)
(1.91883e-06 0 0)
(1.91869e-06 0 0)
(1.91855e-06 0 0)
(1.91842e-06 0 0)
(1.91829e-06 0 0)
(1.91817e-06 0 0)
(1.91805e-06 0 0)
(1.91793e-06 0 0)
(1.91782e-06 0 0)
(1.91771e-06 0 0)
(1.91761e-06 0 0)
(1.91751e-06 0 0)
(1.91742e-06 0 0)
(1.91734e-06 0 0)
(1.91726e-06 0 0)
(1.91719e-06 0 0)
(1.91713e-06 0 0)
(1.91708e-06 0 0)
(1.91704e-06 0 0)
(1.91701e-06 0 0)
(1.917e-06 0 0)
(1.917e-06 0 0)
(1.91701e-06 0 0)
(1.91704e-06 0 0)
(1.91709e-06 0 0)
(1.91715e-06 0 0)
(1.91723e-06 0 0)
(1.91733e-06 0 0)
(1.91745e-06 0 0)
(1.9176e-06 0 0)
(1.91776e-06 0 0)
(1.91795e-06 0 0)
(1.91815e-06 0 0)
(1.91839e-06 0 0)
(1.91864e-06 0 0)
(1.91891e-06 0 0)
(1.91921e-06 0 0)
(1.91953e-06 0 0)
(1.91987e-06 0 0)
(1.92022e-06 0 0)
(1.9206e-06 0 0)
(1.92099e-06 0 0)
(1.92139e-06 0 0)
(1.92181e-06 0 0)
(1.92224e-06 0 0)
(1.92267e-06 0 0)
(1.92311e-06 0 0)
(1.92356e-06 0 0)
(1.924e-06 0 0)
(1.92444e-06 0 0)
(1.92487e-06 0 0)
(1.92529e-06 0 0)
(1.9257e-06 0 0)
(1.92609e-06 0 0)
(1.92646e-06 0 0)
(1.92681e-06 0 0)
(1.92713e-06 0 0)
(1.92742e-06 0 0)
(1.92768e-06 0 0)
(1.92791e-06 0 0)
(1.92809e-06 0 0)
(1.92824e-06 0 0)
(1.92834e-06 0 0)
(1.92839e-06 0 0)
(1.9284e-06 0 0)
(1.92837e-06 0 0)
(1.92828e-06 0 0)
(1.92814e-06 0 0)
(1.92796e-06 0 0)
(1.92773e-06 0 0)
(1.92744e-06 0 0)
(1.92711e-06 0 0)
(1.92674e-06 0 0)
(1.92632e-06 0 0)
(1.92586e-06 0 0)
(1.92535e-06 0 0)
(1.92482e-06 0 0)
(1.92424e-06 0 0)
(1.92364e-06 0 0)
(1.92301e-06 0 0)
(1.92236e-06 0 0)
(1.92168e-06 0 0)
(1.92099e-06 0 0)
(1.92028e-06 0 0)
(1.91956e-06 0 0)
(1.91884e-06 0 0)
(1.91811e-06 0 0)
(1.91738e-06 0 0)
(1.91665e-06 0 0)
(1.91593e-06 0 0)
(1.91522e-06 0 0)
(1.91451e-06 0 0)
(1.91381e-06 0 0)
(1.91313e-06 0 0)
(1.91246e-06 0 0)
(1.9118e-06 0 0)
(1.91116e-06 0 0)
(1.91053e-06 0 0)
(1.90993e-06 0 0)
(1.90933e-06 0 0)
(1.90876e-06 0 0)
(1.9082e-06 0 0)
(1.90766e-06 0 0)
(1.90713e-06 0 0)
(1.90662e-06 0 0)
(1.90612e-06 0 0)
(1.90564e-06 0 0)
(1.90517e-06 0 0)
(1.90471e-06 0 0)
(1.90427e-06 0 0)
(1.90384e-06 0 0)
(1.90342e-06 0 0)
(1.90301e-06 0 0)
(1.90261e-06 0 0)
(1.90222e-06 0 0)
(1.90183e-06 0 0)
(1.90146e-06 0 0)
(1.9011e-06 0 0)
(1.90074e-06 0 0)
(1.90039e-06 0 0)
(1.90005e-06 0 0)
(1.89972e-06 0 0)
(1.89939e-06 0 0)
(1.89908e-06 0 0)
(1.89877e-06 0 0)
(1.89847e-06 0 0)
(1.89818e-06 0 0)
(1.8979e-06 0 0)
(1.89762e-06 0 0)
(1.89736e-06 0 0)
(1.8971e-06 0 0)
(1.89685e-06 0 0)
(1.89661e-06 0 0)
(1.89638e-06 0 0)
(1.89616e-06 0 0)
(1.89595e-06 0 0)
(1.89574e-06 0 0)
(1.89554e-06 0 0)
(1.89535e-06 0 0)
(1.89517e-06 0 0)
(1.89499e-06 0 0)
(1.89482e-06 0 0)
(1.89466e-06 0 0)
(1.8945e-06 0 0)
(1.89435e-06 0 0)
(1.8942e-06 0 0)
(1.89406e-06 0 0)
(1.89392e-06 0 0)
(1.89379e-06 0 0)
(1.89367e-06 0 0)
(1.89355e-06 0 0)
(1.89343e-06 0 0)
(1.89332e-06 0 0)
(1.89321e-06 0 0)
(1.07066e-06 0 0)
)
;

boundaryField
{
    inlet
    {
        type            fixedValue;
        value           uniform (2.74882e-06 0 0);
    }
    outlet
    {
        type            zeroGradient;
    }
    emptyWalls
    {
        type            empty;
    }
}


// ************************************************************************* //
