/*--------------------------------*- C++ -*----------------------------------*\
  =========                 |
  \\      /  F ield         | OpenFOAM: The Open Source CFD Toolbox
   \\    /   O peration     | Website:  https://openfoam.org
    \\  /    A nd           | Version:  9
     \\/     M anipulation  |
\*---------------------------------------------------------------------------*/
FoamFile
{
    format      ascii;
    class       volScalarField;
    location    "19700";
    object      krb;
}
// * * * * * * * * * * * * * * * * * * * * * * * * * * * * * * * * * * * * * //

dimensions      [0 0 0 0 0 0 0];

internalField   nonuniform List<scalar> 
1000
(
0.0978605
0.0983179
0.0988675
0.0994912
0.100019
0.100676
0.101203
0.101882
0.102441
0.103108
0.103711
0.104354
0.104976
0.105599
0.106202
0.106789
0.10734
0.107857
0.108328
0.108753
0.109135
0.109456
0.109782
0.110046
0.110617
0.112126
0.118172
0.156898
0.369729
0.469367
0.492451
0.501911
0.507561
0.511517
0.514588
0.517069
0.519083
0.520769
0.52217
0.523355
0.524395
0.525317
0.526136
0.526864
0.52751
0.528086
0.52859
0.529031
0.529418
0.529749
0.530035
0.530271
0.530469
0.530622
0.530742
0.53082
0.530867
0.530874
0.53085
0.530788
0.530689
0.530553
0.530379
0.530167
0.529917
0.529624
0.529289
0.528906
0.52847
0.527975
0.527408
0.526754
0.525989
0.525082
0.524
0.52271
0.521199
0.519486
0.517626
0.515678
0.513675
0.511638
0.509583
0.507518
0.505452
0.50339
0.501335
0.49929
0.497258
0.495239
0.493235
0.491246
0.489274
0.487318
0.485379
0.483457
0.481551
0.479661
0.477788
0.475931
0.47409
0.472266
0.470458
0.468666
0.46689
0.46513
0.463386
0.461658
0.459945
0.458247
0.456562
0.45489
0.45323
0.451581
0.449943
0.448314
0.446697
0.44509
0.443494
0.44191
0.440338
0.438779
0.437233
0.435699
0.43418
0.432675
0.431186
0.429711
0.428253
0.426811
0.425385
0.423976
0.422582
0.421204
0.419839
0.418488
0.417149
0.41582
0.414501
0.413191
0.411888
0.410593
0.409305
0.408023
0.406747
0.405478
0.404216
0.40296
0.401711
0.400469
0.399235
0.398009
0.39679
0.395579
0.394377
0.393183
0.391997
0.390819
0.38965
0.388488
0.387334
0.386189
0.38505
0.38392
0.382797
0.381681
0.380572
0.379471
0.378376
0.377289
0.376208
0.375133
0.374066
0.373004
0.371949
0.370901
0.369858
0.368822
0.367792
0.366767
0.365749
0.364737
0.36373
0.362729
0.361734
0.360744
0.35976
0.358782
0.357808
0.356841
0.355878
0.354921
0.353969
0.353022
0.352081
0.351144
0.350212
0.349285
0.348364
0.347447
0.346535
0.345627
0.344724
0.343826
0.342933
0.342044
0.341159
0.340279
0.339404
0.338532
0.337666
0.336803
0.335945
0.335091
0.334241
0.333395
0.332554
0.331717
0.330884
0.330054
0.329229
0.328408
0.327591
0.326777
0.325968
0.325162
0.32436
0.323562
0.322767
0.321977
0.32119
0.320406
0.319627
0.318851
0.318078
0.317309
0.316543
0.31578
0.31502
0.314263
0.313509
0.312757
0.312008
0.311262
0.310517
0.309775
0.309036
0.308298
0.307564
0.306831
0.306102
0.305375
0.304651
0.30393
0.303212
0.302498
0.301787
0.30108
0.300377
0.299679
0.298984
0.298294
0.297609
0.296928
0.296251
0.295579
0.294911
0.294248
0.293588
0.292932
0.29228
0.291631
0.290985
0.290341
0.2897
0.289061
0.288424
0.287789
0.287156
0.286525
0.285895
0.285267
0.28464
0.284015
0.283391
0.28277
0.28215
0.281532
0.280915
0.280301
0.279688
0.279078
0.27847
0.277864
0.27726
0.276658
0.276059
0.275461
0.274866
0.274273
0.273682
0.273094
0.272508
0.271923
0.271341
0.270761
0.270183
0.269608
0.269034
0.268462
0.267892
0.267324
0.266758
0.266194
0.265632
0.265072
0.264513
0.263957
0.263402
0.262849
0.262298
0.261749
0.261201
0.260655
0.260111
0.259568
0.259028
0.258489
0.257951
0.257416
0.256882
0.256349
0.255818
0.255289
0.254762
0.254236
0.253712
0.253189
0.252668
0.252148
0.25163
0.251113
0.250598
0.250085
0.249573
0.249062
0.248553
0.248046
0.247539
0.247035
0.246532
0.24603
0.245529
0.245031
0.244533
0.244037
0.243542
0.243049
0.242557
0.242066
0.241577
0.241089
0.240603
0.240118
0.239634
0.239152
0.238671
0.238191
0.237712
0.237235
0.236759
0.236285
0.235812
0.23534
0.234869
0.2344
0.233931
0.233464
0.232999
0.232534
0.232071
0.231608
0.231147
0.230687
0.230228
0.22977
0.229313
0.228856
0.228401
0.227947
0.227493
0.22704
0.226588
0.226137
0.225687
0.225237
0.224788
0.224341
0.223894
0.223448
0.223003
0.222559
0.222116
0.221674
0.221233
0.220794
0.220356
0.21992
0.219485
0.219051
0.218619
0.218189
0.21776
0.217333
0.216908
0.216485
0.216063
0.215642
0.215224
0.214807
0.214391
0.213977
0.213565
0.213153
0.212743
0.212334
0.211926
0.211519
0.211113
0.210708
0.210303
0.209899
0.209496
0.209094
0.208692
0.20829
0.207889
0.207489
0.20709
0.206691
0.206292
0.205894
0.205497
0.2051
0.204705
0.204309
0.203915
0.203521
0.203128
0.202735
0.202344
0.201953
0.201563
0.201174
0.200785
0.200398
0.200011
0.199625
0.199239
0.198855
0.198471
0.198088
0.197706
0.197325
0.196944
0.196564
0.196185
0.195807
0.195429
0.195052
0.194676
0.194301
0.193926
0.193552
0.193178
0.192806
0.192434
0.192062
0.191692
0.191322
0.190952
0.190583
0.190215
0.189848
0.189481
0.189115
0.188749
0.188384
0.18802
0.187656
0.187293
0.18693
0.186568
0.186207
0.185846
0.185486
0.185127
0.184768
0.184409
0.184051
0.183694
0.183337
0.182981
0.182625
0.18227
0.181916
0.181562
0.181208
0.180855
0.180503
0.180151
0.1798
0.179449
0.179099
0.178749
0.178399
0.178051
0.177703
0.177355
0.177008
0.176661
0.176315
0.175969
0.175624
0.175279
0.174935
0.174591
0.174248
0.173905
0.173562
0.173221
0.172879
0.172538
0.172198
0.171858
0.171518
0.171179
0.17084
0.170502
0.170164
0.169827
0.16949
0.169153
0.168817
0.168481
0.168146
0.16781
0.167476
0.167141
0.166807
0.166473
0.166139
0.165806
0.165473
0.16514
0.164808
0.164475
0.164143
0.163812
0.16348
0.163149
0.162818
0.162487
0.162157
0.161827
0.161497
0.161168
0.160839
0.160511
0.160182
0.159855
0.159527
0.159201
0.158874
0.158548
0.158223
0.157898
0.157574
0.157251
0.156928
0.156605
0.156284
0.155962
0.155642
0.155322
0.155002
0.154684
0.154365
0.154047
0.15373
0.153413
0.153097
0.152781
0.152466
0.15215
0.151835
0.151521
0.151206
0.150892
0.150578
0.150265
0.149951
0.149638
0.149324
0.149011
0.148698
0.148385
0.148072
0.147759
0.147447
0.147134
0.146821
0.146509
0.146197
0.145884
0.145572
0.14526
0.144948
0.144636
0.144324
0.144013
0.143701
0.14339
0.143078
0.142767
0.142456
0.142145
0.141835
0.141524
0.141213
0.140903
0.140593
0.140283
0.139973
0.139663
0.139353
0.139043
0.138733
0.138424
0.138114
0.137805
0.137496
0.137187
0.136877
0.136568
0.136259
0.13595
0.135642
0.135333
0.135024
0.134715
0.134406
0.134097
0.133789
0.13348
0.133171
0.132862
0.132554
0.132245
0.131936
0.131627
0.131318
0.131009
0.1307
0.130391
0.130082
0.129773
0.129464
0.129155
0.128846
0.128536
0.128227
0.127917
0.127608
0.127298
0.126988
0.126678
0.126368
0.126058
0.125747
0.125437
0.125126
0.124815
0.124504
0.124193
0.123882
0.12357
0.123259
0.122947
0.122635
0.122323
0.12201
0.121698
0.121385
0.121072
0.120759
0.120445
0.120132
0.119818
0.119503
0.119189
0.118874
0.118559
0.118244
0.117929
0.117613
0.117297
0.116981
0.116664
0.116347
0.11603
0.115713
0.115395
0.115077
0.114759
0.11444
0.114121
0.113802
0.113483
0.113163
0.112843
0.112523
0.112203
0.111882
0.111561
0.11124
0.110919
0.110598
0.110277
0.109956
0.109635
0.109314
0.108993
0.108673
0.108353
0.108034
0.107716
0.107398
0.107082
0.106768
0.106455
0.106144
0.105835
0.10553
0.105228
0.10493
0.104636
0.104347
0.104064
0.103787
0.103517
0.103256
0.103003
0.102759
0.102526
0.102303
0.102092
0.101893
0.101707
0.101533
0.101373
0.101225
0.101091
0.10097
0.100861
0.100764
0.100678
0.100603
0.100538
0.100482
0.100435
0.100394
0.100361
0.100333
0.100309
0.100289
0.100271
0.100254
0.100236
0.100212
0.100175
0.100115
0.100011
0.0998275
0.0995015
0.0989228
0.0979044
0.0961422
0.0931837
0.0884615
0.0815064
0.0724075
0.062234
0.0527493
0.0453615
0.0404129
0.0374401
0.0357736
0.0348765
0.0344041
0.0341585
0.0340315
0.0339661
0.0339325
0.0339152
0.0339064
0.0339019
0.0338996
0.0338985
0.0338979
0.0338977
0.0338976
0.0338976
0.0338976
0.0338976
0.0338976
0.0338976
0.0338976
0.0338977
0.0338977
0.0338977
0.0338977
0.0338977
0.0338977
0.0338977
0.0338977
0.0338976
0.0338976
0.0338976
0.0338975
0.0338975
0.0338975
0.0338974
0.0338974
0.0338973
0.0338973
0.0338972
0.0338971
0.0338971
0.033897
0.033897
0.0338969
0.0338968
0.0338968
0.0338967
0.0338966
0.0338966
0.0338965
0.0338964
0.0338964
0.0338963
0.0338962
0.0338962
0.0338961
0.033896
0.033896
0.0338959
0.0338959
0.0338958
0.0338958
0.0338957
0.0338957
0.0338956
0.0338956
0.0338955
0.0338955
0.0338954
0.0338954
0.0338954
0.0338953
0.0338953
0.0338952
0.0338952
0.0338952
0.0338952
0.0338951
0.0338951
0.0338951
0.0338951
0.033895
0.033895
0.033895
0.033895
0.0338949
0.0338949
0.0338949
0.0338949
0.0338949
0.0338949
0.0338949
0.0338948
0.0338948
0.0338948
0.0338948
0.0338948
0.0338948
0.0338948
0.0338948
0.0338948
0.0338947
0.0338947
0.0338947
0.0338947
0.0338947
0.0338947
0.0338947
0.0338947
0.0338947
0.0338947
0.0338947
0.0338946
0.0338946
0.0338946
0.0338946
0.0338946
0.0338945
0.0338945
0.0338945
0.0338944
0.0338944
0.0338943
0.0338943
0.0338942
0.0338942
0.0338941
0.033894
0.0338939
0.0338939
0.0338938
0.0338937
0.0338935
0.0338934
0.0338933
0.0338932
0.033893
0.0338929
0.0338927
0.0338925
0.0338924
0.0338922
0.033892
0.0338918
0.0338916
0.0338914
0.0338912
0.033891
0.0338908
0.0338905
0.0338903
0.0338901
0.0338899
0.0338897
0.0338894
0.0338892
0.033889
0.0338888
0.0338886
0.0338884
0.0338883
0.0338881
0.0338879
0.0338878
0.0338876
0.0338875
0.0338874
0.0338873
0.0338872
0.0338871
0.0338871
0.0338871
0.033887
0.033887
0.033887
0.033887
0.033887
0.0338871
0.0338871
0.0338872
0.0338873
0.0338874
0.0338875
0.0338876
0.0338877
0.0338878
0.033888
0.0338881
0.0338882
0.0338884
0.0338886
0.0338887
0.0338889
0.0338891
0.0338892
0.0338895
0.0338896
0.0338899
0.03389
0.0338903
0.0338904
0.0338907
)
;

boundaryField
{
    inlet
    {
        type            calculated;
        value           uniform 0.0976562;
    }
    outlet
    {
        type            calculated;
        value           uniform 0.0338907;
    }
    emptyWalls
    {
        type            empty;
    }
}


// ************************************************************************* //
