/*--------------------------------*- C++ -*----------------------------------*\
  =========                 |
  \\      /  F ield         | OpenFOAM: The Open Source CFD Toolbox
   \\    /   O peration     | Website:  https://openfoam.org
    \\  /    A nd           | Version:  9
     \\/     M anipulation  |
\*---------------------------------------------------------------------------*/
FoamFile
{
    format      ascii;
    class       surfaceScalarField;
    location    "19700";
    object      phib;
}
// * * * * * * * * * * * * * * * * * * * * * * * * * * * * * * * * * * * * * //

dimensions      [0 2 0 0 0 0 0];

internalField   nonuniform List<scalar> 
999
(
1.13623e-09
1.13622e-09
1.13624e-09
1.13623e-09
1.13626e-09
1.13628e-09
1.1363e-09
1.13635e-09
1.13636e-09
1.13643e-09
1.13644e-09
1.13649e-09
1.13653e-09
1.13657e-09
1.13661e-09
1.13666e-09
1.13671e-09
1.13675e-09
1.13679e-09
1.13684e-09
1.13686e-09
1.13692e-09
1.13693e-09
1.137e-09
1.1371e-09
1.13754e-09
1.13937e-09
1.15237e-09
1.17096e-09
1.17272e-09
1.17299e-09
1.17377e-09
1.17502e-09
1.17625e-09
1.17757e-09
1.17849e-09
1.17908e-09
1.17948e-09
1.17941e-09
1.17933e-09
1.17926e-09
1.17923e-09
1.17924e-09
1.17929e-09
1.17936e-09
1.17945e-09
1.17954e-09
1.17964e-09
1.17974e-09
1.17983e-09
1.17991e-09
1.17999e-09
1.18006e-09
1.18013e-09
1.18019e-09
1.18024e-09
1.18028e-09
1.18032e-09
1.18035e-09
1.18037e-09
1.18038e-09
1.18039e-09
1.18039e-09
1.18038e-09
1.18036e-09
1.18033e-09
1.18029e-09
1.18023e-09
1.18017e-09
1.18009e-09
1.17999e-09
1.17988e-09
1.17973e-09
1.17955e-09
1.17933e-09
1.17905e-09
1.17873e-09
1.17837e-09
1.17798e-09
1.17756e-09
1.17713e-09
1.17669e-09
1.17623e-09
1.17577e-09
1.1753e-09
1.17482e-09
1.17433e-09
1.17384e-09
1.17334e-09
1.17285e-09
1.17235e-09
1.17185e-09
1.17135e-09
1.17085e-09
1.17035e-09
1.16984e-09
1.16933e-09
1.16882e-09
1.1683e-09
1.16778e-09
1.16725e-09
1.16672e-09
1.1662e-09
1.16567e-09
1.16515e-09
1.16462e-09
1.1641e-09
1.16358e-09
1.16306e-09
1.16254e-09
1.162e-09
1.16144e-09
1.16085e-09
1.16022e-09
1.15957e-09
1.15888e-09
1.15816e-09
1.15742e-09
1.15665e-09
1.15588e-09
1.1551e-09
1.15432e-09
1.15355e-09
1.15278e-09
1.15204e-09
1.15132e-09
1.15064e-09
1.14999e-09
1.1494e-09
1.14885e-09
1.14836e-09
1.14792e-09
1.14753e-09
1.14718e-09
1.14687e-09
1.14657e-09
1.14629e-09
1.14601e-09
1.14573e-09
1.14543e-09
1.1451e-09
1.14476e-09
1.14438e-09
1.14397e-09
1.14354e-09
1.14307e-09
1.14259e-09
1.14208e-09
1.14155e-09
1.14101e-09
1.14046e-09
1.13991e-09
1.13934e-09
1.13878e-09
1.13822e-09
1.13766e-09
1.1371e-09
1.13654e-09
1.13599e-09
1.13544e-09
1.1349e-09
1.13436e-09
1.13382e-09
1.13329e-09
1.13275e-09
1.13222e-09
1.13169e-09
1.13116e-09
1.13062e-09
1.13009e-09
1.12956e-09
1.12903e-09
1.1285e-09
1.12796e-09
1.12743e-09
1.12689e-09
1.12635e-09
1.12581e-09
1.12527e-09
1.12473e-09
1.12418e-09
1.12364e-09
1.12309e-09
1.12254e-09
1.12199e-09
1.12144e-09
1.12089e-09
1.12034e-09
1.11978e-09
1.11922e-09
1.11866e-09
1.1181e-09
1.11754e-09
1.11698e-09
1.11641e-09
1.11584e-09
1.11528e-09
1.11471e-09
1.11413e-09
1.11356e-09
1.11299e-09
1.11241e-09
1.11183e-09
1.11125e-09
1.11067e-09
1.11008e-09
1.1095e-09
1.10891e-09
1.10832e-09
1.10773e-09
1.10714e-09
1.10655e-09
1.10595e-09
1.10536e-09
1.10476e-09
1.10416e-09
1.10357e-09
1.10297e-09
1.10237e-09
1.10177e-09
1.10117e-09
1.10056e-09
1.09996e-09
1.09935e-09
1.09875e-09
1.09814e-09
1.09753e-09
1.09692e-09
1.09631e-09
1.09571e-09
1.0951e-09
1.09449e-09
1.09388e-09
1.09327e-09
1.09266e-09
1.09204e-09
1.09142e-09
1.0908e-09
1.09016e-09
1.08952e-09
1.08887e-09
1.08821e-09
1.08753e-09
1.08685e-09
1.08615e-09
1.08544e-09
1.08471e-09
1.08398e-09
1.08323e-09
1.08248e-09
1.08172e-09
1.08096e-09
1.08019e-09
1.07943e-09
1.07866e-09
1.07791e-09
1.07716e-09
1.07643e-09
1.07571e-09
1.07501e-09
1.07433e-09
1.07367e-09
1.07304e-09
1.07243e-09
1.07184e-09
1.07127e-09
1.07073e-09
1.07021e-09
1.0697e-09
1.0692e-09
1.06872e-09
1.06824e-09
1.06777e-09
1.0673e-09
1.06682e-09
1.06634e-09
1.06585e-09
1.06535e-09
1.06484e-09
1.06432e-09
1.06379e-09
1.06324e-09
1.06269e-09
1.06212e-09
1.06154e-09
1.06095e-09
1.06036e-09
1.05976e-09
1.05915e-09
1.05853e-09
1.05792e-09
1.0573e-09
1.05667e-09
1.05605e-09
1.05543e-09
1.0548e-09
1.05418e-09
1.05355e-09
1.05293e-09
1.05231e-09
1.05169e-09
1.05107e-09
1.05045e-09
1.04983e-09
1.04921e-09
1.0486e-09
1.04798e-09
1.04736e-09
1.04675e-09
1.04613e-09
1.04551e-09
1.0449e-09
1.04428e-09
1.04366e-09
1.04304e-09
1.04243e-09
1.04181e-09
1.04118e-09
1.04056e-09
1.03994e-09
1.03932e-09
1.03869e-09
1.03807e-09
1.03744e-09
1.03681e-09
1.03618e-09
1.03555e-09
1.03492e-09
1.03428e-09
1.03365e-09
1.03301e-09
1.03238e-09
1.03174e-09
1.0311e-09
1.03046e-09
1.02981e-09
1.02917e-09
1.02853e-09
1.02788e-09
1.02723e-09
1.02658e-09
1.02593e-09
1.02528e-09
1.02463e-09
1.02397e-09
1.02332e-09
1.02266e-09
1.022e-09
1.02134e-09
1.02068e-09
1.02001e-09
1.01935e-09
1.01868e-09
1.01802e-09
1.01735e-09
1.01668e-09
1.01601e-09
1.01533e-09
1.01466e-09
1.01399e-09
1.01331e-09
1.01264e-09
1.01196e-09
1.01128e-09
1.0106e-09
1.00992e-09
1.00924e-09
1.00855e-09
1.00787e-09
1.00719e-09
1.0065e-09
1.00582e-09
1.00513e-09
1.00444e-09
1.00375e-09
1.00306e-09
1.00237e-09
1.00168e-09
1.00099e-09
1.00029e-09
9.99595e-10
9.98895e-10
9.98192e-10
9.97485e-10
9.96774e-10
9.96058e-10
9.95337e-10
9.94611e-10
9.93879e-10
9.93141e-10
9.92396e-10
9.91645e-10
9.90887e-10
9.90122e-10
9.89352e-10
9.88575e-10
9.87793e-10
9.87005e-10
9.86214e-10
9.85419e-10
9.84621e-10
9.83822e-10
9.83023e-10
9.82225e-10
9.81429e-10
9.80636e-10
9.79847e-10
9.79065e-10
9.7829e-10
9.77523e-10
9.76766e-10
9.76018e-10
9.75282e-10
9.74557e-10
9.73844e-10
9.73142e-10
9.72453e-10
9.71774e-10
9.71106e-10
9.70449e-10
9.698e-10
9.69159e-10
9.68525e-10
9.67895e-10
9.6727e-10
9.66647e-10
9.66024e-10
9.65402e-10
9.64778e-10
9.64151e-10
9.63521e-10
9.62886e-10
9.62246e-10
9.616e-10
9.60948e-10
9.6029e-10
9.59626e-10
9.58956e-10
9.58279e-10
9.57597e-10
9.56909e-10
9.56217e-10
9.55519e-10
9.54817e-10
9.54111e-10
9.53402e-10
9.5269e-10
9.51975e-10
9.51258e-10
9.5054e-10
9.49819e-10
9.49098e-10
9.48375e-10
9.47651e-10
9.46927e-10
9.46202e-10
9.45477e-10
9.44752e-10
9.44026e-10
9.43299e-10
9.42573e-10
9.41846e-10
9.41119e-10
9.40391e-10
9.39663e-10
9.38934e-10
9.38205e-10
9.37475e-10
9.36744e-10
9.36012e-10
9.3528e-10
9.34547e-10
9.33813e-10
9.33077e-10
9.32341e-10
9.31603e-10
9.30865e-10
9.30125e-10
9.29383e-10
9.28641e-10
9.27897e-10
9.27152e-10
9.26405e-10
9.25657e-10
9.24908e-10
9.24157e-10
9.23404e-10
9.2265e-10
9.21895e-10
9.21138e-10
9.2038e-10
9.1962e-10
9.18859e-10
9.18096e-10
9.17331e-10
9.16565e-10
9.15797e-10
9.15028e-10
9.14257e-10
9.13485e-10
9.12711e-10
9.11935e-10
9.11158e-10
9.10379e-10
9.09599e-10
9.08817e-10
9.08033e-10
9.07248e-10
9.06461e-10
9.05673e-10
9.04883e-10
9.04091e-10
9.03298e-10
9.02503e-10
9.01707e-10
9.00909e-10
9.00109e-10
8.99308e-10
8.98506e-10
8.97702e-10
8.96897e-10
8.9609e-10
8.95281e-10
8.94471e-10
8.9366e-10
8.92847e-10
8.92033e-10
8.91217e-10
8.904e-10
8.89581e-10
8.88761e-10
8.8794e-10
8.87117e-10
8.86293e-10
8.85467e-10
8.84639e-10
8.8381e-10
8.82979e-10
8.82146e-10
8.81312e-10
8.80475e-10
8.79636e-10
8.78794e-10
8.7795e-10
8.77103e-10
8.76253e-10
8.75399e-10
8.74543e-10
8.73682e-10
8.72818e-10
8.7195e-10
8.71078e-10
8.70201e-10
8.69321e-10
8.68435e-10
8.67546e-10
8.66652e-10
8.65753e-10
8.64851e-10
8.63944e-10
8.63034e-10
8.62119e-10
8.61202e-10
8.60282e-10
8.59359e-10
8.58434e-10
8.57507e-10
8.56579e-10
8.5565e-10
8.54722e-10
8.53793e-10
8.52866e-10
8.51941e-10
8.51017e-10
8.50097e-10
8.49179e-10
8.48266e-10
8.47356e-10
8.46451e-10
8.45551e-10
8.44656e-10
8.43766e-10
8.42881e-10
8.42001e-10
8.41127e-10
8.40257e-10
8.39392e-10
8.38532e-10
8.37675e-10
8.36822e-10
8.35971e-10
8.35123e-10
8.34276e-10
8.3343e-10
8.32584e-10
8.31738e-10
8.30891e-10
8.30043e-10
8.29192e-10
8.28339e-10
8.27483e-10
8.26623e-10
8.25759e-10
8.24891e-10
8.24019e-10
8.23142e-10
8.2226e-10
8.21374e-10
8.20483e-10
8.19587e-10
8.18687e-10
8.17782e-10
8.16873e-10
8.1596e-10
8.15042e-10
8.14121e-10
8.13195e-10
8.12266e-10
8.11334e-10
8.10399e-10
8.0946e-10
8.08519e-10
8.07574e-10
8.06627e-10
8.05678e-10
8.04726e-10
8.03772e-10
8.02815e-10
8.01856e-10
8.00895e-10
7.99932e-10
7.98967e-10
7.97999e-10
7.9703e-10
7.96058e-10
7.95084e-10
7.94108e-10
7.93129e-10
7.92149e-10
7.91166e-10
7.90181e-10
7.89193e-10
7.88203e-10
7.87211e-10
7.86216e-10
7.85218e-10
7.84218e-10
7.83215e-10
7.8221e-10
7.81202e-10
7.80191e-10
7.79177e-10
7.7816e-10
7.77141e-10
7.76118e-10
7.75092e-10
7.74064e-10
7.73032e-10
7.71997e-10
7.70959e-10
7.69918e-10
7.68874e-10
7.67826e-10
7.66775e-10
7.65721e-10
7.64664e-10
7.63603e-10
7.62538e-10
7.61471e-10
7.60399e-10
7.59325e-10
7.58246e-10
7.57164e-10
7.56079e-10
7.5499e-10
7.53897e-10
7.52801e-10
7.517e-10
7.50597e-10
7.49489e-10
7.48377e-10
7.47262e-10
7.46143e-10
7.4502e-10
7.43892e-10
7.42761e-10
7.41626e-10
7.40487e-10
7.39344e-10
7.38197e-10
7.37046e-10
7.3589e-10
7.34731e-10
7.33567e-10
7.32399e-10
7.31227e-10
7.3005e-10
7.28869e-10
7.27684e-10
7.26494e-10
7.253e-10
7.24102e-10
7.22899e-10
7.21692e-10
7.2048e-10
7.19263e-10
7.18042e-10
7.16816e-10
7.15586e-10
7.14351e-10
7.13111e-10
7.11866e-10
7.10617e-10
7.09362e-10
7.08103e-10
7.06838e-10
7.05569e-10
7.04294e-10
7.03015e-10
7.01729e-10
7.00439e-10
6.99143e-10
6.97843e-10
6.96537e-10
6.95225e-10
6.93909e-10
6.92588e-10
6.91261e-10
6.89929e-10
6.88593e-10
6.87253e-10
6.85908e-10
6.8456e-10
6.83209e-10
6.81855e-10
6.80499e-10
6.79142e-10
6.77785e-10
6.76429e-10
6.75075e-10
6.73725e-10
6.7238e-10
6.71042e-10
6.69713e-10
6.68396e-10
6.67093e-10
6.65807e-10
6.64542e-10
6.63299e-10
6.62083e-10
6.60898e-10
6.59748e-10
6.58635e-10
6.57564e-10
6.56539e-10
6.55562e-10
6.54637e-10
6.53767e-10
6.52954e-10
6.52199e-10
6.51504e-10
6.50867e-10
6.5029e-10
6.49772e-10
6.49311e-10
6.48903e-10
6.48548e-10
6.4824e-10
6.47977e-10
6.47755e-10
6.47571e-10
6.47421e-10
6.473e-10
6.47203e-10
6.47126e-10
6.47065e-10
6.47012e-10
6.4696e-10
6.46892e-10
6.46786e-10
6.46599e-10
6.46263e-10
6.45651e-10
6.44542e-10
6.42542e-10
6.38969e-10
6.32664e-10
6.21761e-10
6.03515e-10
5.74579e-10
5.32387e-10
4.77944e-10
4.18043e-10
3.63092e-10
3.2088e-10
2.92899e-10
2.76205e-10
2.66888e-10
2.61886e-10
2.59259e-10
2.57895e-10
2.57193e-10
2.56834e-10
2.56652e-10
2.5656e-10
2.56515e-10
2.56494e-10
2.56485e-10
2.56482e-10
2.56482e-10
2.56484e-10
2.56486e-10
2.56489e-10
2.56492e-10
2.56494e-10
2.56497e-10
2.565e-10
2.56503e-10
2.56505e-10
2.56508e-10
2.5651e-10
2.56513e-10
2.56515e-10
2.56518e-10
2.5652e-10
2.56522e-10
2.56525e-10
2.56527e-10
2.5653e-10
2.56532e-10
2.56534e-10
2.56536e-10
2.56539e-10
2.56541e-10
2.56543e-10
2.56546e-10
2.56548e-10
2.5655e-10
2.56552e-10
2.56555e-10
2.56557e-10
2.56559e-10
2.56561e-10
2.56563e-10
2.56565e-10
2.56567e-10
2.56569e-10
2.56571e-10
2.56573e-10
2.56575e-10
2.56577e-10
2.56579e-10
2.56581e-10
2.56582e-10
2.56584e-10
2.56586e-10
2.56587e-10
2.56589e-10
2.5659e-10
2.56592e-10
2.56593e-10
2.56594e-10
2.56595e-10
2.56597e-10
2.56598e-10
2.56599e-10
2.566e-10
2.56601e-10
2.56602e-10
2.56602e-10
2.56603e-10
2.56604e-10
2.56604e-10
2.56605e-10
2.56605e-10
2.56606e-10
2.56606e-10
2.56606e-10
2.56606e-10
2.56606e-10
2.56606e-10
2.56606e-10
2.56606e-10
2.56606e-10
2.56606e-10
2.56605e-10
2.56605e-10
2.56604e-10
2.56604e-10
2.56603e-10
2.56603e-10
2.56602e-10
2.56601e-10
2.566e-10
2.56599e-10
2.56598e-10
2.56597e-10
2.56596e-10
2.56594e-10
2.56593e-10
2.56592e-10
2.5659e-10
2.56589e-10
2.56587e-10
2.56585e-10
2.56584e-10
2.56582e-10
2.5658e-10
2.56578e-10
2.56575e-10
2.56573e-10
2.56571e-10
2.56568e-10
2.56565e-10
2.56562e-10
2.56559e-10
2.56556e-10
2.56552e-10
2.56548e-10
2.56544e-10
2.5654e-10
2.56536e-10
2.56531e-10
2.56526e-10
2.5652e-10
2.56514e-10
2.56508e-10
2.56502e-10
2.56495e-10
2.56488e-10
2.5648e-10
2.56472e-10
2.56464e-10
2.56455e-10
2.56446e-10
2.56436e-10
2.56427e-10
2.56416e-10
2.56406e-10
2.56395e-10
2.56384e-10
2.56372e-10
2.56361e-10
2.56349e-10
2.56337e-10
2.56324e-10
2.56312e-10
2.56299e-10
2.56287e-10
2.56274e-10
2.56262e-10
2.5625e-10
2.56238e-10
2.56226e-10
2.56214e-10
2.56203e-10
2.56192e-10
2.56181e-10
2.56171e-10
2.56162e-10
2.56153e-10
2.56145e-10
2.56138e-10
2.56131e-10
2.56125e-10
2.5612e-10
2.56116e-10
2.56112e-10
2.5611e-10
2.56109e-10
2.56108e-10
2.56108e-10
2.56108e-10
2.56109e-10
2.56111e-10
2.56114e-10
2.56119e-10
2.56124e-10
2.5613e-10
2.56137e-10
2.56144e-10
2.56152e-10
2.5616e-10
2.56169e-10
2.56178e-10
2.56188e-10
2.56198e-10
2.56208e-10
2.56218e-10
2.56229e-10
2.56239e-10
2.5625e-10
2.56261e-10
2.56271e-10
2.56282e-10
2.56292e-10
2.56302e-10
2.56312e-10
2.56322e-10
)
;

boundaryField
{
    inlet
    {
        type            calculated;
        value           uniform -1.13622e-09;
    }
    outlet
    {
        type            calculated;
        value           uniform 2.56331e-10;
    }
    emptyWalls
    {
        type            empty;
        value           nonuniform List<scalar> 0();
    }
}


// ************************************************************************* //
