/*--------------------------------*- C++ -*----------------------------------*\
  =========                 |
  \\      /  F ield         | OpenFOAM: The Open Source CFD Toolbox
   \\    /   O peration     | Website:  https://openfoam.org
    \\  /    A nd           | Version:  9
     \\/     M anipulation  |
\*---------------------------------------------------------------------------*/
FoamFile
{
    format      ascii;
    class       volScalarField;
    location    "5650";
    object      Fb;
}
// * * * * * * * * * * * * * * * * * * * * * * * * * * * * * * * * * * * * * //

dimensions      [0 0 0 0 0 0 0];

internalField   nonuniform List<scalar> 
1000
(
0.805759
0.804572
0.805747
0.804907
0.805764
0.80554
0.806707
0.815578
0.831263
0.83383
0.834781
0.835378
0.835709
0.835998
0.836185
0.83624
0.836395
0.836302
0.836372
0.836191
0.835834
0.835108
0.834211
0.833213
0.83215
0.831041
0.829897
0.828727
0.827535
0.826325
0.825101
0.823864
0.822615
0.821355
0.820085
0.818805
0.817516
0.816217
0.814911
0.813596
0.812273
0.810943
0.809605
0.80826
0.806907
0.805546
0.804177
0.8028
0.801414
0.800021
0.798619
0.797209
0.795792
0.794368
0.792937
0.791499
0.790055
0.788606
0.787151
0.785691
0.784226
0.782756
0.781283
0.779805
0.778323
0.776838
0.775348
0.773855
0.772359
0.770858
0.769354
0.767846
0.766333
0.764815
0.76329
0.761758
0.76022
0.758674
0.757121
0.755562
0.753998
0.75243
0.750856
0.749277
0.747691
0.746096
0.744489
0.742868
0.74123
0.739574
0.737899
0.736203
0.734488
0.732755
0.731006
0.729243
0.72747
0.72569
0.723907
0.722127
0.720352
0.718588
0.71684
0.715111
0.713407
0.711729
0.71008
0.708461
0.706872
0.705309
0.703771
0.702251
0.700745
0.699244
0.697744
0.696234
0.694712
0.693168
0.691602
0.690007
0.688384
0.686729
0.685045
0.683331
0.68159
0.679824
0.678035
0.676227
0.674401
0.672562
0.67071
0.668848
0.666979
0.665102
0.663221
0.661334
0.659444
0.657549
0.655651
0.653749
0.651842
0.649931
0.648015
0.646093
0.644166
0.642232
0.640291
0.638342
0.636386
0.634422
0.632449
0.630467
0.628476
0.626476
0.624465
0.622444
0.620413
0.618371
0.616317
0.614254
0.612175
0.61009
0.607986
0.605876
0.603744
0.601611
0.59945
0.59729
0.595099
0.59291
0.59069
0.588468
0.58622
0.583962
0.581685
0.579388
0.57708
0.574746
0.572402
0.570032
0.567648
0.565243
0.562815
0.560372
0.557902
0.555416
0.552905
0.550371
0.547817
0.545234
0.542632
0.540003
0.537348
0.53467
0.531963
0.529231
0.526471
0.523682
0.520867
0.518022
0.51515
0.512252
0.509326
0.506379
0.503407
0.50042
0.497421
0.494417
0.491425
0.488449
0.485512
0.482629
0.47982
0.47711
0.47451
0.472036
0.469672
0.467382
0.465067
0.462526
0.459404
0.455055
0.448415
0.437788
0.420816
0.394962
0.35915
0.316259
0.273556
0.238583
0.214406
0.199634
0.19129
0.186783
0.184412
0.183177
0.182538
0.182209
0.182039
0.181951
0.181904
0.181878
0.181862
0.181853
0.181846
0.181841
0.181836
0.181832
0.181828
0.181824
0.18182
0.181815
0.181811
0.181806
0.181802
0.181797
0.181792
0.181787
0.181781
0.181775
0.181769
0.181762
0.181755
0.181748
0.18174
0.181731
0.181722
0.181711
0.1817
0.181688
0.181675
0.181661
0.181646
0.18163
0.181613
0.181595
0.181577
0.181557
0.181537
0.181516
0.181496
0.181474
0.181453
0.181432
0.181412
0.181392
0.181373
0.181355
0.181339
0.181324
0.181312
0.181302
0.181294
0.18129
0.181288
0.181288
0.181288
0.18129
0.181299
0.181311
0.181326
0.181344
0.181364
0.181385
0.181408
0.181432
0.181457
0.181483
0.181509
0.181534
0.181558
0.181582
0.181604
0.181625
0.181644
0.181662
0.181677
0.181691
0.181702
0.181712
0.18172
0.181726
0.181731
0.181734
0.181735
0.181736
0.181735
0.181735
0.181734
0.181731
0.181728
0.181725
0.181721
0.181718
0.181714
0.181711
0.181708
0.181705
0.181702
0.1817
0.181698
0.181697
0.181695
0.181695
0.181694
0.181694
0.181693
0.181694
0.181695
0.181696
0.181697
0.181699
0.181701
0.181703
0.181706
0.181708
0.181711
0.181714
0.181717
0.18172
0.181723
0.181727
0.18173
0.181734
0.181738
0.181741
0.181745
0.181749
0.181753
0.181757
0.181761
0.181766
0.18177
0.181774
0.181778
0.181782
0.181787
0.181791
0.181795
0.181799
0.181803
0.181807
0.181812
0.181816
0.181819
0.181823
0.181827
0.18183
0.181834
0.181837
0.18184
0.181844
0.181847
0.181849
0.181852
0.181855
0.181857
0.181859
0.181861
0.181863
0.181865
0.181867
0.181868
0.18187
0.181871
0.181872
0.181873
0.181874
0.181875
0.181875
0.181876
0.181877
0.181877
0.181878
0.181878
0.181878
0.181878
0.181879
0.181879
0.181879
0.181879
0.181879
0.181879
0.181879
0.181879
0.181879
0.181878
0.181878
0.181878
0.181877
0.181877
0.181877
0.181876
0.181875
0.181875
0.181874
0.181873
0.181872
0.181871
0.18187
0.181868
0.181867
0.181865
0.181863
0.181861
0.181859
0.181856
0.181854
0.181851
0.181848
0.181845
0.181841
0.181838
0.181834
0.18183
0.181826
0.181821
0.181817
0.181812
0.181807
0.181802
0.181796
0.181791
0.181785
0.181779
0.181773
0.181766
0.18176
0.181752
0.181745
0.181738
0.181729
0.181721
0.181712
0.181703
0.181694
0.181684
0.181673
0.181662
0.18165
0.181638
0.181625
0.181612
0.181599
0.181585
0.18157
0.181555
0.181539
0.181523
0.181507
0.18149
0.181474
0.181457
0.18144
0.181424
0.181408
0.181392
0.181377
0.181363
0.18135
0.181338
0.181327
0.181317
0.18131
0.181304
0.1813
0.181298
0.181297
0.181297
0.181298
0.181301
0.18131
0.18132
0.181332
0.181346
0.181362
0.18138
0.181398
0.181418
0.181438
0.181459
0.181481
0.181502
0.181523
0.181544
0.181564
0.181583
0.181602
0.181619
0.181635
0.18165
0.181664
0.181676
0.181687
0.181696
0.181705
0.181712
0.181718
0.181723
0.181728
0.181731
0.181734
0.181736
0.181737
0.181738
0.181739
0.181739
0.181739
0.181739
0.181739
0.181739
0.181739
0.181739
0.181739
0.181739
0.181739
0.181739
0.18174
0.18174
0.181741
0.181743
0.181744
0.181745
0.181747
0.181749
0.181751
0.181753
0.181755
0.181758
0.18176
0.181762
0.181765
0.181768
0.18177
0.181773
0.181776
0.181779
0.181781
0.181784
0.181787
0.18179
0.181793
0.181796
0.181798
0.181801
0.181804
0.181807
0.18181
0.181813
0.181816
0.181819
0.181821
0.181824
0.181827
0.18183
0.181832
0.181835
0.181838
0.181841
0.181843
0.181846
0.181848
0.181851
0.181854
0.181856
0.181859
0.181861
0.181863
0.181866
0.181868
0.18187
0.181872
0.181874
0.181876
0.181877
0.181879
0.181881
0.181882
0.181883
0.181885
0.181886
0.181887
0.181888
0.181888
0.181889
0.181889
0.18189
0.18189
0.18189
0.18189
0.18189
0.18189
0.18189
0.18189
0.18189
0.181889
0.181889
0.181888
0.181887
0.181887
0.181886
0.181885
0.181884
0.181883
0.181882
0.181881
0.18188
0.181879
0.181878
0.181877
0.181876
0.181875
0.181874
0.181872
0.181871
0.18187
0.181868
0.181867
0.181865
0.181864
0.181862
0.18186
0.181858
0.181856
0.181854
0.181851
0.181849
0.181846
0.181843
0.181839
0.181836
0.181832
0.181828
0.181824
0.181819
0.181814
0.181809
0.181803
0.181797
0.181791
0.181785
0.181778
0.18177
0.181762
0.181754
0.181745
0.181736
0.181727
0.181717
0.181706
0.181695
0.181683
0.181671
0.181659
0.181646
0.181633
0.181619
0.181605
0.181591
0.181576
0.181561
0.181546
0.181531
0.181515
0.1815
0.181485
0.18147
0.181456
0.181442
0.181428
0.181415
0.181403
0.181392
0.181382
0.181373
0.181365
0.181358
0.181354
0.18135
0.181348
0.181348
0.181348
0.181348
0.181351
0.181357
0.181366
0.181375
0.181387
0.181399
0.181414
0.181429
0.181445
0.181462
0.18148
0.181498
0.181516
0.181535
0.181554
0.181572
0.181589
0.181607
0.181623
0.181639
0.181654
0.181668
0.181681
0.181692
0.181703
0.181713
0.181722
0.181729
0.181736
0.181742
0.181747
0.181751
0.181755
0.181758
0.18176
0.181762
0.181764
0.181765
0.181765
0.181766
0.181766
0.181766
0.181766
0.181766
0.181766
0.181766
0.181766
0.181765
0.181765
0.181765
0.181765
0.181765
0.181765
0.181766
0.181766
0.181767
0.181767
0.181768
0.181769
0.18177
0.18177
0.181771
0.181772
0.181773
0.181774
0.181775
0.181776
0.181777
0.181778
0.181779
0.18178
0.181781
0.181782
0.181783
0.181784
0.181785
0.181786
0.181787
0.181788
0.181788
0.181789
0.18179
0.181791
0.181792
0.181793
0.181794
0.181795
0.181796
0.181797
0.181799
0.1818
0.181801
0.181802
0.181804
0.181805
0.181807
0.181808
0.18181
0.181812
0.181814
0.181815
0.181817
0.181819
0.181821
0.181823
0.181826
0.181828
0.18183
0.181832
0.181834
0.181836
0.181839
0.181841
0.181843
0.181845
0.181847
0.18185
0.181852
0.181853
0.181855
0.181857
0.181859
0.18186
0.181862
0.181863
0.181865
0.181866
0.181867
0.181867
0.181868
0.181868
0.181869
0.181869
0.181869
0.181869
0.181869
0.181869
0.181868
0.181867
0.181866
0.181865
0.181864
0.181863
0.181861
0.18186
0.181858
0.181856
0.181855
0.181852
0.181851
0.181848
0.181846
0.181843
0.181841
0.181838
0.181836
0.181832
0.18183
0.181826
0.181824
0.18182
0.181818
0.181814
0.181811
0.181806
0.181803
0.181798
0.181795
0.181789
0.181785
0.181779
0.181775
0.181767
0.181763
0.181755
0.181749
0.18174
0.181734
0.181724
0.181717
0.181706
0.181698
0.181687
0.181678
0.181664
0.181655
0.181641
0.181629
0.181614
0.181605
0.181587
0.181574
0.18156
0.181549
0.181527
0.181516
0.181505
0.181488
0.181466
0.181465
0.181472
0.18163
0.182333
0.193041
0.209603
0.21027
0.21028
0.21028
0.21028
0.21028
0.21028
0.21028
0.21028
0.21028
0.21028
0.21028
0.21028
0.21028
0.21028
0.21028
0.21028
0.21028
0.21028
0.21028
0.21028
0.21028
0.21028
0.21028
0.21028
0.21028
0.21028
0.21028
0.21028
0.21028
0.21028
0.21028
0.21028
0.21028
0.21028
0.21028
0.21028
0.21028
0.21028
0.21028
0.21028
0.21028
0.21028
0.21028
0.21028
0.21028
0.21028
0.21028
0.21028
0.21028
0.21028
0.21028
0.21028
0.21028
0.21028
0.21028
0.21028
0.21028
0.21028
0.21028
0.21028
0.21028
0.21028
0.21028
0.21028
0.21028
0.21028
0.21028
0.21028
0.21028
0.21028
0.21028
0.21028
)
;

boundaryField
{
    inlet
    {
        type            calculated;
        value           uniform 0.805169;
    }
    outlet
    {
        type            calculated;
        value           uniform 0.21028;
    }
    emptyWalls
    {
        type            empty;
    }
}


// ************************************************************************* //
