/*--------------------------------*- C++ -*----------------------------------*\
  =========                 |
  \\      /  F ield         | OpenFOAM: The Open Source CFD Toolbox
   \\    /   O peration     | Website:  https://openfoam.org
    \\  /    A nd           | Version:  9
     \\/     M anipulation  |
\*---------------------------------------------------------------------------*/
FoamFile
{
    format      ascii;
    class       volScalarField;
    location    "5650";
    object      p;
}
// * * * * * * * * * * * * * * * * * * * * * * * * * * * * * * * * * * * * * //

dimensions      [0 0 0 0 0 0 0];

internalField   nonuniform List<scalar> 
1000
(
255247
254828
254418
254016
253622
253237
252877
252588
252454
252361
252275
252192
252109
252027
251945
251863
251782
251700
251618
251537
251454
251372
251288
251203
251118
251031
250943
250855
250765
250674
250582
250489
250395
250300
250204
250107
250008
249909
249809
249708
249606
249503
249399
249294
249188
249081
248973
248865
248755
248645
248533
248421
248307
248193
248078
247962
247846
247728
247610
247490
247370
247249
247127
247004
246881
246756
246631
246505
246378
246251
246122
245993
245863
245732
245600
245467
245334
245200
245065
244930
244793
244656
244518
244379
244240
244099
243958
243816
243674
243531
243387
243242
243096
242950
242803
242655
242507
242358
242208
242057
241906
241754
241601
241448
241294
241139
240983
240827
240670
240512
240353
240194
240034
239873
239712
239550
239387
239223
239058
238893
238727
238560
238393
238225
238056
237886
237716
237545
237373
237201
237028
236854
236680
236504
236328
236152
235975
235797
235618
235439
235259
235078
234897
234715
234532
234348
234164
233979
233794
233607
233420
233233
233044
232855
232666
232475
232284
232092
231900
231706
231512
231318
231122
230926
230729
230532
230334
230135
229935
229735
229534
229332
229130
228927
228723
228518
228313
228107
227900
227693
227484
227276
227066
226856
226644
226433
226220
226007
225793
225578
225363
225146
224929
224712
224493
224274
224054
223833
223612
223390
223167
222943
222718
222493
222267
222040
221813
221584
221355
221125
220894
220663
220431
220198
219965
219731
219496
219261
219026
218789
218553
218315
218076
217835
217591
217343
217088
216827
216560
216288
216013
215737
215459
215182
214904
214626
214349
214071
213793
213515
213237
212960
212682
212404
212126
211848
211571
211293
211015
210737
210459
210182
209904
209626
209348
209071
208793
208515
208238
207960
207682
207404
207127
206849
206571
206294
206016
205738
205461
205183
204906
204628
204351
204073
203796
203518
203241
202963
202686
202408
202131
201854
201576
201299
201022
200745
200468
200190
199913
199636
199359
199082
198805
198528
198251
197974
197697
197420
197142
196865
196588
196311
196034
195757
195480
195202
194925
194648
194370
194093
193816
193538
193261
192983
192706
192428
192151
191873
191595
191318
191040
190762
190485
190207
189929
189652
189374
189096
188819
188541
188263
187986
187708
187430
187153
186875
186597
186320
186042
185765
185487
185209
184932
184654
184376
184099
183821
183544
183266
182988
182711
182433
182155
181878
181600
181322
181045
180767
180489
180212
179934
179656
179379
179101
178823
178546
178268
177990
177712
177435
177157
176879
176602
176324
176046
175768
175491
175213
174935
174657
174379
174102
173824
173546
173268
172990
172713
172435
172157
171879
171601
171324
171046
170768
170490
170212
169934
169656
169379
169101
168823
168545
168267
167989
167711
167434
167156
166878
166600
166322
166044
165766
165488
165211
164933
164655
164377
164099
163821
163543
163265
162988
162710
162432
162154
161876
161598
161320
161042
160765
160487
160209
159931
159653
159375
159097
158820
158542
158264
157986
157708
157430
157152
156874
156597
156319
156041
155763
155485
155207
154930
154652
154374
154096
153818
153540
153263
152985
152707
152429
152152
151874
151596
151318
151041
150763
150485
150207
149930
149652
149374
149097
148819
148541
148264
147986
147708
147431
147153
146875
146598
146320
146043
145765
145488
145210
144933
144655
144378
144101
143823
143546
143269
142991
142714
142437
142159
141882
141605
141328
141051
140774
140496
140219
139942
139665
139388
139111
138834
138557
138280
138003
137725
137448
137171
136894
136617
136340
136062
135785
135508
135230
134953
134676
134398
134121
133843
133566
133288
133011
132733
132456
132178
131900
131623
131345
131067
130790
130512
130234
129957
129679
129401
129124
128846
128568
128291
128013
127735
127458
127180
126902
126625
126347
126069
125792
125514
125236
124958
124681
124403
124125
123848
123570
123292
123015
122737
122459
122181
121904
121626
121348
121071
120793
120515
120237
119960
119682
119404
119126
118849
118571
118293
118015
117738
117460
117182
116904
116626
116349
116071
115793
115515
115237
114960
114682
114404
114126
113848
113570
113293
113015
112737
112459
112181
111903
111626
111348
111070
110792
110514
110236
109958
109681
109403
109125
108847
108569
108291
108013
107735
107458
107180
106902
106624
106346
106068
105790
105512
105234
104957
104679
104401
104123
103845
103567
103289
103011
102733
102456
102178
101900
101622
101344
101066
100788
100510
100232
99954.6
99676.7
99398.9
99121
98843.1
98565.2
98287.4
98009.5
97731.6
97453.8
97175.9
96898.1
96620.2
96342.4
96064.5
95786.7
95508.8
95231
94953.1
94675.3
94397.5
94119.7
93841.8
93564
93286.2
93008.4
92730.6
92452.8
92175
91897.2
91619.5
91341.7
91063.9
90786.2
90508.5
90230.7
89953
89675.3
89397.6
89119.9
88842.3
88564.6
88287
88009.4
87731.8
87454.2
87176.6
86899
86621.5
86344
86066.5
85789
85511.5
85234.1
84956.7
84679.3
84401.9
84124.5
83847.2
83569.9
83292.5
83015.3
82738
82460.7
82183.5
81906.3
81629.1
81351.9
81074.7
80797.5
80520.3
80243.2
79966
79688.8
79411.7
79134.5
78857.3
78580.1
78302.9
78025.7
77748.5
77471.2
77194
76916.7
76639.4
76362
76084.7
75807.3
75529.9
75252.4
74975
74697.5
74420
74142.5
73864.9
73587.4
73309.8
73032.2
72754.6
72476.9
72199.3
71921.6
71643.9
71366.3
71088.6
70810.9
70533.2
70255.5
69977.7
69700
69422.3
69144.6
68866.9
68589.1
68311.4
68033.7
67756
67478.2
67200.5
66922.8
66645.1
66367.3
66089.6
65811.9
65534.2
65256.4
64978.7
64701
64423.3
64145.5
63867.8
63590.1
63312.4
63034.6
62756.9
62479.2
62201.4
61923.7
61646
61368.2
61090.5
60812.8
60535
60257.3
59979.5
59701.8
59424
59146.3
58868.6
58590.8
58313.1
58035.3
57757.6
57479.8
57202
56924.3
56646.5
56368.8
56091
55813.3
55535.5
55257.7
54980
54702.2
54424.4
54146.7
53868.9
53591.1
53313.3
53035.6
52757.8
52480
52202.2
51924.4
51646.6
51368.9
51091.1
50813.3
50535.5
50257.7
49979.9
49702.1
49424.3
49146.4
48868.6
48590.8
48313
48035.2
47757.3
47479.5
47201.7
46923.8
46646
46368.2
46090.3
45812.5
45534.6
45256.8
44978.9
44701.1
44423.2
44145.4
43867.5
43589.7
43311.8
43033.9
42756.1
42478.2
42200.3
41922.5
41644.6
41366.8
41088.9
40811
40533.2
40255.3
39977.5
39699.6
39421.8
39143.9
38866.1
38588.2
38310.4
38032.5
37754.7
37476.9
37199
36921.2
36643.4
36365.5
36087.7
35809.9
35532.1
35254.3
34976.5
34698.7
34420.9
34143.1
33865.3
33587.5
33309.8
33032
32754.2
32476.5
32198.7
31921
31643.2
31365.5
31087.8
30810.1
30532.3
30254.6
29977
29699.3
29421.6
29144
28866.3
28588.7
28311.1
28033.5
27755.9
27478.3
27200.8
26923.3
26645.7
26368.2
26090.8
25813.3
25535.9
25258.4
24981
24703.7
24426.3
24148.9
23871.6
23594.3
23316.9
23039
22758.6
22457.6
22147.6
21837.8
21528.1
21218.3
20908.5
20598.8
20289
19979.3
19669.5
19359.8
19050
18740.3
18430.5
18120.7
17811
17501.2
17191.5
16881.7
16572
16262.2
15952.4
15642.7
15332.9
15023.2
14713.4
14403.7
14093.9
13784.2
13474.4
13164.6
12854.9
12545.1
12235.4
11925.6
11615.9
11306.1
10996.3
10686.6
10376.8
10067.1
9757.32
9447.57
9137.81
8828.05
8518.3
8208.54
7898.78
7589.03
7279.27
6969.52
6659.76
6350
6040.25
5730.49
5420.73
5110.98
4801.22
4491.47
4181.71
3871.95
3562.2
3252.44
2942.68
2632.93
2323.17
2013.42
1703.66
1393.9
1084.15
774.391
464.634
154.878
)
;

boundaryField
{
    inlet
    {
        type            darcyGradPressure;
        gradient        uniform 116344;
        Mf              Mf;
        phi             phi;
        value           uniform 255460;
    }
    outlet
    {
        type            fixedValue;
        value           uniform 0;
    }
    emptyWalls
    {
        type            empty;
    }
}


// ************************************************************************* //
