/*--------------------------------*- C++ -*----------------------------------*\
  =========                 |
  \\      /  F ield         | OpenFOAM: The Open Source CFD Toolbox
   \\    /   O peration     | Website:  https://openfoam.org
    \\  /    A nd           | Version:  9
     \\/     M anipulation  |
\*---------------------------------------------------------------------------*/
FoamFile
{
    format      ascii;
    class       surfaceScalarField;
    location    "5650";
    object      phia;
}
// * * * * * * * * * * * * * * * * * * * * * * * * * * * * * * * * * * * * * //

dimensions      [0 2 0 0 0 0 0];

internalField   nonuniform List<scalar> 
999
(
2.7491e-10
2.7483e-10
2.74507e-10
2.74359e-10
2.73696e-10
2.72199e-10
2.66398e-10
2.28546e-10
2.15595e-10
2.11937e-10
2.10151e-10
2.08986e-10
2.08128e-10
2.07461e-10
2.0693e-10
2.06481e-10
2.06079e-10
2.05657e-10
2.0524e-10
2.04885e-10
2.04663e-10
2.04572e-10
2.04486e-10
2.04399e-10
2.04312e-10
2.04227e-10
2.04143e-10
2.04061e-10
2.0398e-10
2.03899e-10
2.03817e-10
2.03735e-10
2.03653e-10
2.0357e-10
2.03488e-10
2.03407e-10
2.03326e-10
2.03245e-10
2.03165e-10
2.03085e-10
2.03006e-10
2.02927e-10
2.0285e-10
2.02774e-10
2.027e-10
2.02629e-10
2.02561e-10
2.02496e-10
2.02435e-10
2.02377e-10
2.02324e-10
2.02273e-10
2.02225e-10
2.02181e-10
2.02138e-10
2.02097e-10
2.02057e-10
2.02019e-10
2.01981e-10
2.01943e-10
2.01905e-10
2.01866e-10
2.01827e-10
2.01786e-10
2.01744e-10
2.017e-10
2.01655e-10
2.01609e-10
2.01561e-10
2.01512e-10
2.01461e-10
2.01411e-10
2.01361e-10
2.01313e-10
2.01268e-10
2.01226e-10
2.01189e-10
2.01156e-10
2.01125e-10
2.01096e-10
2.01067e-10
2.01038e-10
2.0101e-10
2.00985e-10
2.00965e-10
2.00955e-10
2.00957e-10
2.00976e-10
2.01016e-10
2.01079e-10
2.01165e-10
2.01276e-10
2.01409e-10
2.01563e-10
2.01733e-10
2.01916e-10
2.02104e-10
2.02293e-10
2.02476e-10
2.02645e-10
2.02792e-10
2.02911e-10
2.02992e-10
2.0303e-10
2.03019e-10
2.02953e-10
2.02829e-10
2.02647e-10
2.02409e-10
2.02118e-10
2.01781e-10
2.01407e-10
2.01006e-10
2.00589e-10
2.00168e-10
1.99753e-10
1.99354e-10
1.98981e-10
1.98638e-10
1.98332e-10
1.98065e-10
1.97837e-10
1.97648e-10
1.97495e-10
1.97375e-10
1.97283e-10
1.97216e-10
1.97168e-10
1.97135e-10
1.97113e-10
1.97097e-10
1.97084e-10
1.9707e-10
1.97055e-10
1.97035e-10
1.97009e-10
1.96977e-10
1.96938e-10
1.96891e-10
1.96837e-10
1.96776e-10
1.96708e-10
1.96634e-10
1.96555e-10
1.9647e-10
1.96381e-10
1.96288e-10
1.96192e-10
1.96093e-10
1.9599e-10
1.95886e-10
1.95779e-10
1.9567e-10
1.9556e-10
1.95448e-10
1.95335e-10
1.95221e-10
1.95106e-10
1.9499e-10
1.94874e-10
1.94756e-10
1.9464e-10
1.94522e-10
1.94406e-10
1.94288e-10
1.94173e-10
1.94056e-10
1.93941e-10
1.93826e-10
1.93711e-10
1.93599e-10
1.93485e-10
1.93376e-10
1.93264e-10
1.93156e-10
1.93047e-10
1.9294e-10
1.92835e-10
1.92729e-10
1.92627e-10
1.92522e-10
1.92422e-10
1.9232e-10
1.9222e-10
1.92121e-10
1.92021e-10
1.91925e-10
1.91826e-10
1.91729e-10
1.91633e-10
1.91536e-10
1.91441e-10
1.91344e-10
1.91248e-10
1.91153e-10
1.91055e-10
1.9096e-10
1.90863e-10
1.90766e-10
1.9067e-10
1.90572e-10
1.90476e-10
1.90378e-10
1.90281e-10
1.90185e-10
1.90088e-10
1.89994e-10
1.899e-10
1.89807e-10
1.89718e-10
1.89629e-10
1.89546e-10
1.89465e-10
1.89389e-10
1.89318e-10
1.89251e-10
1.8919e-10
1.89129e-10
1.89069e-10
1.88997e-10
1.88903e-10
1.88766e-10
1.88549e-10
1.88211e-10
1.87708e-10
1.87042e-10
1.863e-10
1.85644e-10
1.85196e-10
1.84949e-10
1.84838e-10
1.84793e-10
1.84784e-10
1.8479e-10
1.84803e-10
1.84822e-10
1.84841e-10
1.84862e-10
1.84884e-10
1.84907e-10
1.8493e-10
1.84954e-10
1.84978e-10
1.85002e-10
1.85027e-10
1.85052e-10
1.85078e-10
1.85104e-10
1.85131e-10
1.85158e-10
1.85186e-10
1.85215e-10
1.85245e-10
1.85275e-10
1.85307e-10
1.85339e-10
1.85374e-10
1.85409e-10
1.85447e-10
1.85487e-10
1.85529e-10
1.85574e-10
1.85623e-10
1.85675e-10
1.85731e-10
1.85792e-10
1.85859e-10
1.8593e-10
1.86007e-10
1.8609e-10
1.8618e-10
1.86276e-10
1.86379e-10
1.86487e-10
1.86602e-10
1.86723e-10
1.86849e-10
1.8698e-10
1.87115e-10
1.87253e-10
1.87393e-10
1.87533e-10
1.87673e-10
1.87811e-10
1.87945e-10
1.88074e-10
1.88197e-10
1.8831e-10
1.88412e-10
1.88501e-10
1.88575e-10
1.88633e-10
1.88673e-10
1.88694e-10
1.887e-10
1.88701e-10
1.88696e-10
1.88659e-10
1.88584e-10
1.88492e-10
1.88383e-10
1.88259e-10
1.88121e-10
1.87971e-10
1.87812e-10
1.87646e-10
1.87476e-10
1.87304e-10
1.87133e-10
1.86965e-10
1.86802e-10
1.86646e-10
1.86499e-10
1.86363e-10
1.86237e-10
1.86124e-10
1.86024e-10
1.85937e-10
1.85862e-10
1.858e-10
1.8575e-10
1.8571e-10
1.85681e-10
1.85661e-10
1.8565e-10
1.85645e-10
1.85644e-10
1.85644e-10
1.85648e-10
1.85666e-10
1.85684e-10
1.85703e-10
1.85723e-10
1.85743e-10
1.85762e-10
1.85779e-10
1.85796e-10
1.85811e-10
1.85823e-10
1.85834e-10
1.85842e-10
1.85848e-10
1.85851e-10
1.85852e-10
1.85852e-10
1.85852e-10
1.8585e-10
1.85842e-10
1.85833e-10
1.85822e-10
1.85809e-10
1.85795e-10
1.85779e-10
1.85762e-10
1.85745e-10
1.85726e-10
1.85706e-10
1.85685e-10
1.85663e-10
1.8564e-10
1.85617e-10
1.85593e-10
1.85569e-10
1.85544e-10
1.85519e-10
1.85493e-10
1.85466e-10
1.8544e-10
1.85413e-10
1.85385e-10
1.85358e-10
1.8533e-10
1.85302e-10
1.85274e-10
1.85247e-10
1.85219e-10
1.85191e-10
1.85163e-10
1.85136e-10
1.85109e-10
1.85082e-10
1.85056e-10
1.8503e-10
1.85005e-10
1.8498e-10
1.84956e-10
1.84933e-10
1.8491e-10
1.84889e-10
1.84868e-10
1.84848e-10
1.84829e-10
1.84811e-10
1.84793e-10
1.84777e-10
1.84762e-10
1.84748e-10
1.84735e-10
1.84722e-10
1.84711e-10
1.84701e-10
1.84691e-10
1.84683e-10
1.84675e-10
1.84668e-10
1.84662e-10
1.84656e-10
1.84651e-10
1.84647e-10
1.84643e-10
1.8464e-10
1.84638e-10
1.84636e-10
1.84634e-10
1.84632e-10
1.84631e-10
1.84631e-10
1.8463e-10
1.8463e-10
1.8463e-10
1.8463e-10
1.8463e-10
1.8463e-10
1.84631e-10
1.84632e-10
1.84633e-10
1.84634e-10
1.84636e-10
1.84638e-10
1.84641e-10
1.84644e-10
1.84647e-10
1.84651e-10
1.84655e-10
1.8466e-10
1.84665e-10
1.84672e-10
1.84679e-10
1.84687e-10
1.84696e-10
1.84706e-10
1.84717e-10
1.84729e-10
1.84742e-10
1.84756e-10
1.84771e-10
1.84788e-10
1.84806e-10
1.84825e-10
1.84845e-10
1.84867e-10
1.8489e-10
1.84914e-10
1.8494e-10
1.84966e-10
1.84995e-10
1.85024e-10
1.85054e-10
1.85086e-10
1.85119e-10
1.85154e-10
1.85189e-10
1.85227e-10
1.85265e-10
1.85305e-10
1.85346e-10
1.8539e-10
1.85435e-10
1.85481e-10
1.8553e-10
1.85581e-10
1.85635e-10
1.85691e-10
1.8575e-10
1.85812e-10
1.85877e-10
1.85946e-10
1.86018e-10
1.86094e-10
1.86173e-10
1.86256e-10
1.86343e-10
1.86434e-10
1.86529e-10
1.86628e-10
1.86729e-10
1.86834e-10
1.86942e-10
1.87052e-10
1.87163e-10
1.87276e-10
1.8739e-10
1.87503e-10
1.87615e-10
1.87725e-10
1.87832e-10
1.87935e-10
1.88033e-10
1.88125e-10
1.8821e-10
1.88287e-10
1.88354e-10
1.88412e-10
1.88457e-10
1.88491e-10
1.88511e-10
1.88519e-10
1.8852e-10
1.88519e-10
1.88507e-10
1.88461e-10
1.88399e-10
1.88323e-10
1.88235e-10
1.88135e-10
1.88024e-10
1.87904e-10
1.87776e-10
1.87642e-10
1.87504e-10
1.87362e-10
1.8722e-10
1.87078e-10
1.86938e-10
1.86802e-10
1.8667e-10
1.86544e-10
1.86425e-10
1.86314e-10
1.86211e-10
1.86116e-10
1.8603e-10
1.85952e-10
1.85884e-10
1.85823e-10
1.85771e-10
1.85726e-10
1.85688e-10
1.85657e-10
1.85631e-10
1.85611e-10
1.85595e-10
1.85583e-10
1.85575e-10
1.85569e-10
1.85565e-10
1.85563e-10
1.85562e-10
1.85562e-10
1.85562e-10
1.85562e-10
1.85562e-10
1.85562e-10
1.85562e-10
1.85562e-10
1.85561e-10
1.85557e-10
1.85553e-10
1.85546e-10
1.85539e-10
1.8553e-10
1.85521e-10
1.8551e-10
1.85498e-10
1.85485e-10
1.85471e-10
1.85456e-10
1.85441e-10
1.85425e-10
1.85408e-10
1.85391e-10
1.85374e-10
1.85356e-10
1.85338e-10
1.8532e-10
1.85301e-10
1.85282e-10
1.85264e-10
1.85245e-10
1.85226e-10
1.85207e-10
1.85188e-10
1.85169e-10
1.8515e-10
1.85131e-10
1.85112e-10
1.85093e-10
1.85074e-10
1.85056e-10
1.85037e-10
1.85018e-10
1.84999e-10
1.84981e-10
1.84962e-10
1.84944e-10
1.84926e-10
1.84908e-10
1.8489e-10
1.84872e-10
1.84854e-10
1.84837e-10
1.8482e-10
1.84803e-10
1.84786e-10
1.8477e-10
1.84754e-10
1.84738e-10
1.84723e-10
1.84708e-10
1.84694e-10
1.8468e-10
1.84667e-10
1.84655e-10
1.84643e-10
1.84632e-10
1.84621e-10
1.84611e-10
1.84602e-10
1.84594e-10
1.84586e-10
1.84579e-10
1.84573e-10
1.84568e-10
1.84563e-10
1.8456e-10
1.84557e-10
1.84554e-10
1.84553e-10
1.84552e-10
1.84552e-10
1.84552e-10
1.84552e-10
1.84553e-10
1.84556e-10
1.84559e-10
1.84562e-10
1.84566e-10
1.8457e-10
1.84575e-10
1.8458e-10
1.84586e-10
1.84591e-10
1.84597e-10
1.84604e-10
1.8461e-10
1.84617e-10
1.84623e-10
1.8463e-10
1.84637e-10
1.84644e-10
1.84652e-10
1.8466e-10
1.84667e-10
1.84676e-10
1.84684e-10
1.84693e-10
1.84702e-10
1.84712e-10
1.84723e-10
1.84734e-10
1.84746e-10
1.84758e-10
1.84772e-10
1.84786e-10
1.84802e-10
1.84819e-10
1.84837e-10
1.84856e-10
1.84877e-10
1.849e-10
1.84924e-10
1.8495e-10
1.84978e-10
1.85007e-10
1.85039e-10
1.85072e-10
1.85108e-10
1.85147e-10
1.85187e-10
1.8523e-10
1.85276e-10
1.85324e-10
1.85375e-10
1.85429e-10
1.85486e-10
1.85546e-10
1.85609e-10
1.85675e-10
1.85745e-10
1.85817e-10
1.85893e-10
1.85971e-10
1.86053e-10
1.86138e-10
1.86225e-10
1.86316e-10
1.86409e-10
1.86504e-10
1.86601e-10
1.867e-10
1.868e-10
1.86901e-10
1.87003e-10
1.87104e-10
1.87205e-10
1.87304e-10
1.87401e-10
1.87496e-10
1.87588e-10
1.87675e-10
1.87758e-10
1.87835e-10
1.87906e-10
1.8797e-10
1.88025e-10
1.88073e-10
1.8811e-10
1.88138e-10
1.88155e-10
1.88163e-10
1.88164e-10
1.88163e-10
1.88155e-10
1.8812e-10
1.88071e-10
1.88012e-10
1.87941e-10
1.87861e-10
1.87772e-10
1.87674e-10
1.87569e-10
1.87458e-10
1.87342e-10
1.87223e-10
1.87101e-10
1.86978e-10
1.86854e-10
1.86733e-10
1.86613e-10
1.86497e-10
1.86385e-10
1.86278e-10
1.86176e-10
1.86081e-10
1.85992e-10
1.85909e-10
1.85834e-10
1.85766e-10
1.85704e-10
1.85649e-10
1.85601e-10
1.85559e-10
1.85523e-10
1.85492e-10
1.85466e-10
1.85444e-10
1.85427e-10
1.85413e-10
1.85402e-10
1.85394e-10
1.85388e-10
1.85385e-10
1.85382e-10
1.85381e-10
1.85381e-10
1.85381e-10
1.85381e-10
1.85383e-10
1.85384e-10
1.85385e-10
1.85386e-10
1.85386e-10
1.85386e-10
1.85386e-10
1.85386e-10
1.85384e-10
1.85381e-10
1.85378e-10
1.85374e-10
1.8537e-10
1.85365e-10
1.8536e-10
1.85354e-10
1.85349e-10
1.85343e-10
1.85336e-10
1.8533e-10
1.85323e-10
1.85317e-10
1.8531e-10
1.85304e-10
1.85297e-10
1.85291e-10
1.85284e-10
1.85278e-10
1.85271e-10
1.85265e-10
1.85259e-10
1.85253e-10
1.85247e-10
1.85241e-10
1.85235e-10
1.85229e-10
1.85223e-10
1.85217e-10
1.8521e-10
1.85204e-10
1.85197e-10
1.8519e-10
1.85183e-10
1.85176e-10
1.85168e-10
1.8516e-10
1.85152e-10
1.85143e-10
1.85134e-10
1.85125e-10
1.85115e-10
1.85104e-10
1.85094e-10
1.85082e-10
1.85071e-10
1.85059e-10
1.85046e-10
1.85033e-10
1.8502e-10
1.85007e-10
1.84993e-10
1.84979e-10
1.84964e-10
1.8495e-10
1.84935e-10
1.8492e-10
1.84906e-10
1.84891e-10
1.84876e-10
1.84862e-10
1.84848e-10
1.84834e-10
1.8482e-10
1.84807e-10
1.84795e-10
1.84782e-10
1.84771e-10
1.8476e-10
1.8475e-10
1.84741e-10
1.84732e-10
1.84724e-10
1.84718e-10
1.84712e-10
1.84707e-10
1.84703e-10
1.847e-10
1.84699e-10
1.84698e-10
1.84698e-10
1.84698e-10
1.84699e-10
1.84702e-10
1.84706e-10
1.84712e-10
1.84718e-10
1.84726e-10
1.84734e-10
1.84743e-10
1.84753e-10
1.84764e-10
1.84776e-10
1.84788e-10
1.84801e-10
1.84815e-10
1.8483e-10
1.84845e-10
1.84861e-10
1.84877e-10
1.84894e-10
1.84911e-10
1.8493e-10
1.84948e-10
1.84968e-10
1.84988e-10
1.85009e-10
1.8503e-10
1.85053e-10
1.85076e-10
1.85101e-10
1.85127e-10
1.85154e-10
1.85182e-10
1.85212e-10
1.85244e-10
1.85277e-10
1.85313e-10
1.85351e-10
1.85391e-10
1.85433e-10
1.85478e-10
1.85526e-10
1.85577e-10
1.85631e-10
1.85687e-10
1.85748e-10
1.85811e-10
1.85877e-10
1.85946e-10
1.86022e-10
1.86097e-10
1.86173e-10
1.86259e-10
1.86347e-10
1.86429e-10
1.86517e-10
1.86621e-10
1.86711e-10
1.86793e-10
1.86903e-10
1.87013e-10
1.87085e-10
1.87178e-10
1.8731e-10
1.87387e-10
1.8739e-10
1.87238e-10
1.84184e-10
1.72193e-10
5.86539e-11
1.69529e-12
2.46248e-16
7.05784e-25
2.90094e-43
2.08452e-82
3.07899e-166
0
0
0
0
0
0
0
0
0
0
0
0
0
0
0
0
0
0
0
0
0
0
0
0
0
0
0
0
0
0
0
0
0
0
0
0
0
0
0
0
0
0
0
0
0
0
0
0
0
0
0
0
0
0
0
0
0
0
0
0
0
0
0
0
0
0
)
;

boundaryField
{
    inlet
    {
        type            calculated;
        value           uniform -2.74882e-10;
    }
    outlet
    {
        type            calculated;
        value           uniform 0;
    }
    emptyWalls
    {
        type            empty;
        value           nonuniform List<scalar> 0();
    }
}


// ************************************************************************* //
