/*--------------------------------*- C++ -*----------------------------------*\
  =========                 |
  \\      /  F ield         | OpenFOAM: The Open Source CFD Toolbox
   \\    /   O peration     | Website:  https://openfoam.org
    \\  /    A nd           | Version:  9
     \\/     M anipulation  |
\*---------------------------------------------------------------------------*/
FoamFile
{
    format      ascii;
    class       volScalarField;
    location    "51000";
    object      krc;
}
// * * * * * * * * * * * * * * * * * * * * * * * * * * * * * * * * * * * * * //

dimensions      [0 0 0 0 0 0 0];

internalField   nonuniform List<scalar> 
100
(
2.51525e-23
4.32811e-24
3.35085e-24
4.66601e-24
5.84487e-25
4.50163e-24
8.7869e-25
1.18692e-25
3.40307e-24
1.57132e-24
3.66784e-24
1.20593e-25
5.59081e-25
2.15594e-24
3.74917e-24
1.1011e-24
2.25574e-24
6.15681e-27
8.44418e-24
1.45954e-23
1.02222e-23
2.68138e-23
2.4808e-23
1.28998e-23
7.23964e-23
4.42675e-23
1.46679e-22
1.08793e-22
2.65338e-22
2.43039e-22
4.98323e-22
5.15816e-22
5.98739e-22
7.81828e-22
1.13987e-21
1.17669e-21
1.45796e-21
1.64112e-21
1.9119e-21
2.02489e-21
2.00009e-21
1.74856e-21
1.58606e-21
1.82343e-21
1.21386e-21
7.09035e-22
3.17641e-22
1.23894e-24
1.06504e-22
3.48218e-22
1.21459e-21
2.88567e-21
5.14085e-21
7.47919e-21
1.15772e-20
1.77239e-20
2.30474e-20
3.03144e-20
3.96593e-20
4.78733e-20
5.62554e-20
6.40696e-20
7.09008e-20
7.75488e-20
8.19551e-20
8.46472e-20
8.97226e-20
8.86387e-20
9.10779e-20
8.85237e-20
8.75909e-20
8.38335e-20
7.91394e-20
7.38859e-20
6.8951e-20
6.26645e-20
5.75652e-20
5.13354e-20
4.65287e-20
3.99716e-20
3.52941e-20
2.90121e-20
2.53951e-20
2.16308e-20
1.7872e-20
1.46501e-20
1.20182e-20
9.8519e-21
7.62052e-21
6.14192e-21
4.39366e-21
3.38141e-21
2.77309e-21
1.04413e-21
4.67528e-21
3.13576e-20
4.07163e-19
8.38187e-18
1.06504e-16
5.59571e-16
)
;

boundaryField
{
    inlet
    {
        type            calculated;
        value           uniform 2.51525e-23;
    }
    outlet
    {
        type            calculated;
        value           uniform 5.59571e-16;
    }
    emptyWalls
    {
        type            empty;
    }
}


// ************************************************************************* //
