/*--------------------------------*- C++ -*----------------------------------*\
  =========                 |
  \\      /  F ield         | OpenFOAM: The Open Source CFD Toolbox
   \\    /   O peration     | Website:  https://openfoam.org
    \\  /    A nd           | Version:  9
     \\/     M anipulation  |
\*---------------------------------------------------------------------------*/
FoamFile
{
    format      ascii;
    class       volScalarField;
    location    "112000";
    object      krc;
}
// * * * * * * * * * * * * * * * * * * * * * * * * * * * * * * * * * * * * * //

dimensions      [0 0 0 0 0 0 0];

internalField   nonuniform List<scalar> 
100
(
1.88674e-21
1.49381e-23
1.66317e-23
1.96846e-23
2.24985e-24
1.76449e-23
3.51608e-24
1.78483e-25
1.22523e-23
7.39877e-24
1.73442e-23
9.02861e-26
3.14376e-24
4.13722e-24
1.23084e-23
1.52669e-23
1.80802e-23
8.3047e-24
1.05328e-23
1.20449e-23
5.81365e-24
2.84268e-23
4.99166e-24
2.58254e-24
2.28217e-23
1.085e-23
1.48623e-23
1.58597e-23
6.63624e-24
3.31162e-23
3.58442e-24
5.47793e-24
2.36321e-23
2.35352e-23
8.23652e-25
1.88889e-23
1.2633e-25
1.78424e-26
7.25005e-24
1.47958e-23
1.05236e-23
5.72277e-24
2.36611e-23
1.45594e-23
5.66844e-24
5.38153e-28
1.2963e-23
1.23216e-23
1.31816e-23
1.82495e-23
4.38855e-25
1.38906e-25
2.39675e-23
1.60321e-23
1.0571e-23
1.22292e-23
1.18122e-23
1.82864e-23
1.34399e-23
1.29421e-23
1.81437e-23
1.07576e-23
3.89497e-24
1.25993e-23
1.44401e-25
1.84675e-23
1.72906e-23
2.01202e-23
1.91587e-23
5.2966e-25
1.63086e-23
1.17029e-23
4.25153e-26
6.19898e-26
2.16173e-25
5.66172e-24
1.68221e-25
2.85186e-25
1.65575e-23
1.68736e-25
1.76581e-23
1.91841e-23
5.30712e-26
1.19942e-23
8.16794e-26
1.69124e-25
1.2555e-25
1.17637e-23
1.28952e-26
1.20585e-23
1.5183e-23
1.18652e-23
7.37167e-26
6.12473e-24
1.395e-26
5.85974e-26
1.10965e-23
1.79111e-23
1.86169e-23
1.31924e-23
)
;

boundaryField
{
    inlet
    {
        type            calculated;
        value           uniform 1.88674e-21;
    }
    outlet
    {
        type            calculated;
        value           uniform 1.31924e-23;
    }
    emptyWalls
    {
        type            empty;
    }
}


// ************************************************************************* //
