/*--------------------------------*- C++ -*----------------------------------*\
  =========                 |
  \\      /  F ield         | OpenFOAM: The Open Source CFD Toolbox
   \\    /   O peration     | Website:  https://openfoam.org
    \\  /    A nd           | Version:  9
     \\/     M anipulation  |
\*---------------------------------------------------------------------------*/
FoamFile
{
    format      ascii;
    class       volVectorField;
    location    "27100";
    object      Ua;
}
// * * * * * * * * * * * * * * * * * * * * * * * * * * * * * * * * * * * * * //

dimensions      [0 0 0 0 0 0 0];

internalField   nonuniform List<vector> 
1000
(
(2.74898e-06 0 0)
(2.74874e-06 0 0)
(2.7487e-06 0 0)
(2.74861e-06 0 0)
(2.74851e-06 0 0)
(2.74831e-06 0 0)
(2.74811e-06 0 0)
(2.7478e-06 0 0)
(2.74748e-06 0 0)
(2.74713e-06 0 0)
(2.74672e-06 0 0)
(2.74635e-06 0 0)
(2.74589e-06 0 0)
(2.74542e-06 0 0)
(2.7449e-06 0 0)
(2.74433e-06 0 0)
(2.74375e-06 0 0)
(2.74311e-06 0 0)
(2.74247e-06 0 0)
(2.74177e-06 0 0)
(2.74106e-06 0 0)
(2.74029e-06 0 0)
(2.73954e-06 0 0)
(2.73882e-06 0 0)
(2.73809e-06 0 0)
(2.73749e-06 0 0)
(2.73686e-06 0 0)
(2.73631e-06 0 0)
(2.7358e-06 0 0)
(2.7353e-06 0 0)
(2.73488e-06 0 0)
(2.73448e-06 0 0)
(2.73411e-06 0 0)
(2.73371e-06 0 0)
(2.73308e-06 0 0)
(2.73124e-06 0 0)
(2.72455e-06 0 0)
(2.69431e-06 0 0)
(2.48884e-06 0 0)
(2.24133e-06 0 0)
(2.1572e-06 0 0)
(2.13308e-06 0 0)
(2.12212e-06 0 0)
(2.11528e-06 0 0)
(2.11017e-06 0 0)
(2.10598e-06 0 0)
(2.10234e-06 0 0)
(2.09909e-06 0 0)
(2.09613e-06 0 0)
(2.09341e-06 0 0)
(2.09088e-06 0 0)
(2.08852e-06 0 0)
(2.08631e-06 0 0)
(2.08423e-06 0 0)
(2.08229e-06 0 0)
(2.08047e-06 0 0)
(2.07877e-06 0 0)
(2.07717e-06 0 0)
(2.07566e-06 0 0)
(2.07422e-06 0 0)
(2.07285e-06 0 0)
(2.07153e-06 0 0)
(2.07031e-06 0 0)
(2.0692e-06 0 0)
(2.06818e-06 0 0)
(2.06727e-06 0 0)
(2.06646e-06 0 0)
(2.06567e-06 0 0)
(2.06489e-06 0 0)
(2.06411e-06 0 0)
(2.0633e-06 0 0)
(2.06246e-06 0 0)
(2.06164e-06 0 0)
(2.06095e-06 0 0)
(2.06039e-06 0 0)
(2.05995e-06 0 0)
(2.05958e-06 0 0)
(2.05927e-06 0 0)
(2.059e-06 0 0)
(2.0587e-06 0 0)
(2.05829e-06 0 0)
(2.05775e-06 0 0)
(2.0571e-06 0 0)
(2.05639e-06 0 0)
(2.05571e-06 0 0)
(2.05516e-06 0 0)
(2.05483e-06 0 0)
(2.05481e-06 0 0)
(2.05512e-06 0 0)
(2.05567e-06 0 0)
(2.05674e-06 0 0)
(2.05906e-06 0 0)
(2.06219e-06 0 0)
(2.06537e-06 0 0)
(2.06856e-06 0 0)
(2.07161e-06 0 0)
(2.07426e-06 0 0)
(2.07636e-06 0 0)
(2.07805e-06 0 0)
(2.07959e-06 0 0)
(2.08103e-06 0 0)
(2.08221e-06 0 0)
(2.08294e-06 0 0)
(2.08301e-06 0 0)
(2.08232e-06 0 0)
(2.08089e-06 0 0)
(2.07881e-06 0 0)
(2.07622e-06 0 0)
(2.07326e-06 0 0)
(2.07011e-06 0 0)
(2.06691e-06 0 0)
(2.06383e-06 0 0)
(2.06095e-06 0 0)
(2.05838e-06 0 0)
(2.05615e-06 0 0)
(2.05428e-06 0 0)
(2.05278e-06 0 0)
(2.05163e-06 0 0)
(2.05079e-06 0 0)
(2.05023e-06 0 0)
(2.04988e-06 0 0)
(2.0497e-06 0 0)
(2.04964e-06 0 0)
(2.04964e-06 0 0)
(2.04968e-06 0 0)
(2.04971e-06 0 0)
(2.04971e-06 0 0)
(2.04966e-06 0 0)
(2.04956e-06 0 0)
(2.0494e-06 0 0)
(2.04918e-06 0 0)
(2.04891e-06 0 0)
(2.04858e-06 0 0)
(2.04822e-06 0 0)
(2.04781e-06 0 0)
(2.04738e-06 0 0)
(2.04693e-06 0 0)
(2.04646e-06 0 0)
(2.04599e-06 0 0)
(2.04551e-06 0 0)
(2.04502e-06 0 0)
(2.04454e-06 0 0)
(2.04406e-06 0 0)
(2.04359e-06 0 0)
(2.04312e-06 0 0)
(2.04266e-06 0 0)
(2.04221e-06 0 0)
(2.04177e-06 0 0)
(2.04134e-06 0 0)
(2.04092e-06 0 0)
(2.04051e-06 0 0)
(2.04012e-06 0 0)
(2.03973e-06 0 0)
(2.03936e-06 0 0)
(2.039e-06 0 0)
(2.03866e-06 0 0)
(2.03833e-06 0 0)
(2.03801e-06 0 0)
(2.0377e-06 0 0)
(2.03741e-06 0 0)
(2.03712e-06 0 0)
(2.03685e-06 0 0)
(2.03658e-06 0 0)
(2.03633e-06 0 0)
(2.03609e-06 0 0)
(2.03586e-06 0 0)
(2.03564e-06 0 0)
(2.03544e-06 0 0)
(2.03526e-06 0 0)
(2.0351e-06 0 0)
(2.03496e-06 0 0)
(2.03483e-06 0 0)
(2.03472e-06 0 0)
(2.03462e-06 0 0)
(2.03453e-06 0 0)
(2.03444e-06 0 0)
(2.03436e-06 0 0)
(2.03428e-06 0 0)
(2.0342e-06 0 0)
(2.03412e-06 0 0)
(2.03404e-06 0 0)
(2.03398e-06 0 0)
(2.03393e-06 0 0)
(2.03389e-06 0 0)
(2.03388e-06 0 0)
(2.03388e-06 0 0)
(2.0339e-06 0 0)
(2.03394e-06 0 0)
(2.034e-06 0 0)
(2.03406e-06 0 0)
(2.03412e-06 0 0)
(2.03418e-06 0 0)
(2.03422e-06 0 0)
(2.03424e-06 0 0)
(2.03424e-06 0 0)
(2.03421e-06 0 0)
(2.03416e-06 0 0)
(2.0341e-06 0 0)
(2.03405e-06 0 0)
(2.03404e-06 0 0)
(2.0341e-06 0 0)
(2.03425e-06 0 0)
(2.03453e-06 0 0)
(2.03496e-06 0 0)
(2.03556e-06 0 0)
(2.03635e-06 0 0)
(2.03733e-06 0 0)
(2.0385e-06 0 0)
(2.03984e-06 0 0)
(2.04135e-06 0 0)
(2.043e-06 0 0)
(2.04475e-06 0 0)
(2.0466e-06 0 0)
(2.04849e-06 0 0)
(2.05039e-06 0 0)
(2.05227e-06 0 0)
(2.05407e-06 0 0)
(2.05575e-06 0 0)
(2.05726e-06 0 0)
(2.05857e-06 0 0)
(2.05963e-06 0 0)
(2.0604e-06 0 0)
(2.06085e-06 0 0)
(2.06098e-06 0 0)
(2.06076e-06 0 0)
(2.06022e-06 0 0)
(2.05935e-06 0 0)
(2.05819e-06 0 0)
(2.05678e-06 0 0)
(2.05517e-06 0 0)
(2.0534e-06 0 0)
(2.05152e-06 0 0)
(2.04959e-06 0 0)
(2.04765e-06 0 0)
(2.04576e-06 0 0)
(2.04395e-06 0 0)
(2.04224e-06 0 0)
(2.04067e-06 0 0)
(2.03924e-06 0 0)
(2.03797e-06 0 0)
(2.03686e-06 0 0)
(2.03589e-06 0 0)
(2.03507e-06 0 0)
(2.03437e-06 0 0)
(2.03379e-06 0 0)
(2.0333e-06 0 0)
(2.0329e-06 0 0)
(2.03255e-06 0 0)
(2.03226e-06 0 0)
(2.03199e-06 0 0)
(2.03175e-06 0 0)
(2.03152e-06 0 0)
(2.03128e-06 0 0)
(2.03104e-06 0 0)
(2.03079e-06 0 0)
(2.03052e-06 0 0)
(2.03023e-06 0 0)
(2.02993e-06 0 0)
(2.0296e-06 0 0)
(2.02926e-06 0 0)
(2.0289e-06 0 0)
(2.02852e-06 0 0)
(2.02813e-06 0 0)
(2.02773e-06 0 0)
(2.02732e-06 0 0)
(2.0269e-06 0 0)
(2.02648e-06 0 0)
(2.02606e-06 0 0)
(2.02563e-06 0 0)
(2.02521e-06 0 0)
(2.02478e-06 0 0)
(2.02436e-06 0 0)
(2.02395e-06 0 0)
(2.02354e-06 0 0)
(2.02313e-06 0 0)
(2.02273e-06 0 0)
(2.02235e-06 0 0)
(2.02196e-06 0 0)
(2.02159e-06 0 0)
(2.02123e-06 0 0)
(2.02087e-06 0 0)
(2.02053e-06 0 0)
(2.02019e-06 0 0)
(2.01987e-06 0 0)
(2.01955e-06 0 0)
(2.01924e-06 0 0)
(2.01894e-06 0 0)
(2.01865e-06 0 0)
(2.01837e-06 0 0)
(2.0181e-06 0 0)
(2.01784e-06 0 0)
(2.01759e-06 0 0)
(2.01736e-06 0 0)
(2.01713e-06 0 0)
(2.01691e-06 0 0)
(2.01671e-06 0 0)
(2.01651e-06 0 0)
(2.01633e-06 0 0)
(2.01616e-06 0 0)
(2.016e-06 0 0)
(2.01584e-06 0 0)
(2.0157e-06 0 0)
(2.01556e-06 0 0)
(2.01543e-06 0 0)
(2.01531e-06 0 0)
(2.0152e-06 0 0)
(2.01509e-06 0 0)
(2.01498e-06 0 0)
(2.01489e-06 0 0)
(2.0148e-06 0 0)
(2.01472e-06 0 0)
(2.01465e-06 0 0)
(2.01459e-06 0 0)
(2.01453e-06 0 0)
(2.01449e-06 0 0)
(2.01445e-06 0 0)
(2.01442e-06 0 0)
(2.0144e-06 0 0)
(2.01438e-06 0 0)
(2.01436e-06 0 0)
(2.01435e-06 0 0)
(2.01433e-06 0 0)
(2.01431e-06 0 0)
(2.01428e-06 0 0)
(2.01425e-06 0 0)
(2.01423e-06 0 0)
(2.0142e-06 0 0)
(2.01419e-06 0 0)
(2.01419e-06 0 0)
(2.01421e-06 0 0)
(2.01426e-06 0 0)
(2.01436e-06 0 0)
(2.01451e-06 0 0)
(2.01473e-06 0 0)
(2.01501e-06 0 0)
(2.01538e-06 0 0)
(2.01583e-06 0 0)
(2.01638e-06 0 0)
(2.01703e-06 0 0)
(2.01778e-06 0 0)
(2.01863e-06 0 0)
(2.01957e-06 0 0)
(2.0206e-06 0 0)
(2.02171e-06 0 0)
(2.02289e-06 0 0)
(2.02413e-06 0 0)
(2.02542e-06 0 0)
(2.02672e-06 0 0)
(2.02803e-06 0 0)
(2.02932e-06 0 0)
(2.03058e-06 0 0)
(2.03177e-06 0 0)
(2.03289e-06 0 0)
(2.03389e-06 0 0)
(2.03478e-06 0 0)
(2.03552e-06 0 0)
(2.0361e-06 0 0)
(2.0365e-06 0 0)
(2.03672e-06 0 0)
(2.03675e-06 0 0)
(2.03659e-06 0 0)
(2.03624e-06 0 0)
(2.03571e-06 0 0)
(2.03501e-06 0 0)
(2.03415e-06 0 0)
(2.03315e-06 0 0)
(2.03204e-06 0 0)
(2.03083e-06 0 0)
(2.02955e-06 0 0)
(2.02822e-06 0 0)
(2.02687e-06 0 0)
(2.02551e-06 0 0)
(2.02417e-06 0 0)
(2.02286e-06 0 0)
(2.0216e-06 0 0)
(2.0204e-06 0 0)
(2.01927e-06 0 0)
(2.01822e-06 0 0)
(2.01724e-06 0 0)
(2.01634e-06 0 0)
(2.01552e-06 0 0)
(2.01478e-06 0 0)
(2.01411e-06 0 0)
(2.0135e-06 0 0)
(2.01296e-06 0 0)
(2.01246e-06 0 0)
(2.01201e-06 0 0)
(2.0116e-06 0 0)
(2.01123e-06 0 0)
(2.01087e-06 0 0)
(2.01054e-06 0 0)
(2.01022e-06 0 0)
(2.00991e-06 0 0)
(2.0096e-06 0 0)
(2.00929e-06 0 0)
(2.00899e-06 0 0)
(2.00867e-06 0 0)
(2.00836e-06 0 0)
(2.00804e-06 0 0)
(2.0077e-06 0 0)
(2.00737e-06 0 0)
(2.00702e-06 0 0)
(2.00667e-06 0 0)
(2.00631e-06 0 0)
(2.00594e-06 0 0)
(2.00557e-06 0 0)
(2.0052e-06 0 0)
(2.00482e-06 0 0)
(2.00444e-06 0 0)
(2.00406e-06 0 0)
(2.00368e-06 0 0)
(2.00329e-06 0 0)
(2.00291e-06 0 0)
(2.00254e-06 0 0)
(2.00216e-06 0 0)
(2.00179e-06 0 0)
(2.00142e-06 0 0)
(2.00106e-06 0 0)
(2.0007e-06 0 0)
(2.00035e-06 0 0)
(2.00001e-06 0 0)
(1.99967e-06 0 0)
(1.99933e-06 0 0)
(1.99901e-06 0 0)
(1.99869e-06 0 0)
(1.99838e-06 0 0)
(1.99807e-06 0 0)
(1.99778e-06 0 0)
(1.99749e-06 0 0)
(1.99721e-06 0 0)
(1.99693e-06 0 0)
(1.99667e-06 0 0)
(1.99641e-06 0 0)
(1.99616e-06 0 0)
(1.99592e-06 0 0)
(1.99569e-06 0 0)
(1.99547e-06 0 0)
(1.99526e-06 0 0)
(1.99505e-06 0 0)
(1.99485e-06 0 0)
(1.99466e-06 0 0)
(1.99448e-06 0 0)
(1.9943e-06 0 0)
(1.99414e-06 0 0)
(1.99397e-06 0 0)
(1.99382e-06 0 0)
(1.99367e-06 0 0)
(1.99353e-06 0 0)
(1.9934e-06 0 0)
(1.99327e-06 0 0)
(1.99315e-06 0 0)
(1.99304e-06 0 0)
(1.99293e-06 0 0)
(1.99283e-06 0 0)
(1.99274e-06 0 0)
(1.99265e-06 0 0)
(1.99256e-06 0 0)
(1.99249e-06 0 0)
(1.99241e-06 0 0)
(1.99235e-06 0 0)
(1.99228e-06 0 0)
(1.99222e-06 0 0)
(1.99217e-06 0 0)
(1.99211e-06 0 0)
(1.99206e-06 0 0)
(1.99201e-06 0 0)
(1.99197e-06 0 0)
(1.99193e-06 0 0)
(1.99189e-06 0 0)
(1.99186e-06 0 0)
(1.99185e-06 0 0)
(1.99185e-06 0 0)
(1.99186e-06 0 0)
(1.99189e-06 0 0)
(1.99195e-06 0 0)
(1.99204e-06 0 0)
(1.99216e-06 0 0)
(1.99232e-06 0 0)
(1.99252e-06 0 0)
(1.99277e-06 0 0)
(1.99307e-06 0 0)
(1.99342e-06 0 0)
(1.99383e-06 0 0)
(1.9943e-06 0 0)
(1.99483e-06 0 0)
(1.99542e-06 0 0)
(1.99607e-06 0 0)
(1.99678e-06 0 0)
(1.99754e-06 0 0)
(1.99835e-06 0 0)
(1.9992e-06 0 0)
(2.00009e-06 0 0)
(2.00101e-06 0 0)
(2.00195e-06 0 0)
(2.0029e-06 0 0)
(2.00386e-06 0 0)
(2.0048e-06 0 0)
(2.00572e-06 0 0)
(2.0066e-06 0 0)
(2.00744e-06 0 0)
(2.00822e-06 0 0)
(2.00894e-06 0 0)
(2.00957e-06 0 0)
(2.01012e-06 0 0)
(2.01056e-06 0 0)
(2.0109e-06 0 0)
(2.01113e-06 0 0)
(2.01124e-06 0 0)
(2.01123e-06 0 0)
(2.0111e-06 0 0)
(2.01086e-06 0 0)
(2.01049e-06 0 0)
(2.01002e-06 0 0)
(2.00944e-06 0 0)
(2.00877e-06 0 0)
(2.00801e-06 0 0)
(2.00718e-06 0 0)
(2.00628e-06 0 0)
(2.00533e-06 0 0)
(2.00434e-06 0 0)
(2.00332e-06 0 0)
(2.00229e-06 0 0)
(2.00125e-06 0 0)
(2.00022e-06 0 0)
(1.9992e-06 0 0)
(1.9982e-06 0 0)
(1.99724e-06 0 0)
(1.99631e-06 0 0)
(1.99542e-06 0 0)
(1.99457e-06 0 0)
(1.99377e-06 0 0)
(1.99301e-06 0 0)
(1.9923e-06 0 0)
(1.99163e-06 0 0)
(1.991e-06 0 0)
(1.99042e-06 0 0)
(1.98987e-06 0 0)
(1.98936e-06 0 0)
(1.98888e-06 0 0)
(1.98843e-06 0 0)
(1.988e-06 0 0)
(1.98759e-06 0 0)
(1.98721e-06 0 0)
(1.98683e-06 0 0)
(1.98647e-06 0 0)
(1.98611e-06 0 0)
(1.98577e-06 0 0)
(1.98543e-06 0 0)
(1.98509e-06 0 0)
(1.98475e-06 0 0)
(1.98441e-06 0 0)
(1.98407e-06 0 0)
(1.98373e-06 0 0)
(1.98339e-06 0 0)
(1.98304e-06 0 0)
(1.98269e-06 0 0)
(1.98234e-06 0 0)
(1.98198e-06 0 0)
(1.98163e-06 0 0)
(1.98127e-06 0 0)
(1.98091e-06 0 0)
(1.98054e-06 0 0)
(1.98018e-06 0 0)
(1.97982e-06 0 0)
(1.97945e-06 0 0)
(1.97909e-06 0 0)
(1.97873e-06 0 0)
(1.97837e-06 0 0)
(1.97801e-06 0 0)
(1.97766e-06 0 0)
(1.97731e-06 0 0)
(1.97696e-06 0 0)
(1.97662e-06 0 0)
(1.97628e-06 0 0)
(1.97594e-06 0 0)
(1.97561e-06 0 0)
(1.97529e-06 0 0)
(1.97497e-06 0 0)
(1.97466e-06 0 0)
(1.97435e-06 0 0)
(1.97405e-06 0 0)
(1.97376e-06 0 0)
(1.97347e-06 0 0)
(1.97319e-06 0 0)
(1.97292e-06 0 0)
(1.97265e-06 0 0)
(1.97239e-06 0 0)
(1.97214e-06 0 0)
(1.97189e-06 0 0)
(1.97165e-06 0 0)
(1.97142e-06 0 0)
(1.9712e-06 0 0)
(1.97098e-06 0 0)
(1.97077e-06 0 0)
(1.97056e-06 0 0)
(1.97037e-06 0 0)
(1.97018e-06 0 0)
(1.97e-06 0 0)
(1.96982e-06 0 0)
(1.96965e-06 0 0)
(1.96949e-06 0 0)
(1.96933e-06 0 0)
(1.96918e-06 0 0)
(1.96903e-06 0 0)
(1.9689e-06 0 0)
(1.96876e-06 0 0)
(1.96864e-06 0 0)
(1.96851e-06 0 0)
(1.9684e-06 0 0)
(1.96829e-06 0 0)
(1.96818e-06 0 0)
(1.96808e-06 0 0)
(1.96799e-06 0 0)
(1.96789e-06 0 0)
(1.96781e-06 0 0)
(1.96772e-06 0 0)
(1.96765e-06 0 0)
(1.96757e-06 0 0)
(1.9675e-06 0 0)
(1.96744e-06 0 0)
(1.96738e-06 0 0)
(1.96732e-06 0 0)
(1.96727e-06 0 0)
(1.96723e-06 0 0)
(1.9672e-06 0 0)
(1.96718e-06 0 0)
(1.96717e-06 0 0)
(1.96717e-06 0 0)
(1.96718e-06 0 0)
(1.96722e-06 0 0)
(1.96727e-06 0 0)
(1.96734e-06 0 0)
(1.96744e-06 0 0)
(1.96757e-06 0 0)
(1.96772e-06 0 0)
(1.96791e-06 0 0)
(1.96813e-06 0 0)
(1.96838e-06 0 0)
(1.96867e-06 0 0)
(1.969e-06 0 0)
(1.96936e-06 0 0)
(1.96977e-06 0 0)
(1.97021e-06 0 0)
(1.9707e-06 0 0)
(1.97122e-06 0 0)
(1.97177e-06 0 0)
(1.97236e-06 0 0)
(1.97298e-06 0 0)
(1.97363e-06 0 0)
(1.9743e-06 0 0)
(1.97499e-06 0 0)
(1.97569e-06 0 0)
(1.9764e-06 0 0)
(1.97712e-06 0 0)
(1.97783e-06 0 0)
(1.97853e-06 0 0)
(1.97922e-06 0 0)
(1.97988e-06 0 0)
(1.98051e-06 0 0)
(1.9811e-06 0 0)
(1.98166e-06 0 0)
(1.98216e-06 0 0)
(1.9826e-06 0 0)
(1.98299e-06 0 0)
(1.9833e-06 0 0)
(1.98355e-06 0 0)
(1.98372e-06 0 0)
(1.98382e-06 0 0)
(1.98383e-06 0 0)
(1.98376e-06 0 0)
(1.98362e-06 0 0)
(1.98339e-06 0 0)
(1.98308e-06 0 0)
(1.9827e-06 0 0)
(1.98225e-06 0 0)
(1.98173e-06 0 0)
(1.98114e-06 0 0)
(1.9805e-06 0 0)
(1.97981e-06 0 0)
(1.97908e-06 0 0)
(1.97831e-06 0 0)
(1.97751e-06 0 0)
(1.97669e-06 0 0)
(1.97585e-06 0 0)
(1.975e-06 0 0)
(1.97415e-06 0 0)
(1.9733e-06 0 0)
(1.97245e-06 0 0)
(1.97163e-06 0 0)
(1.97081e-06 0 0)
(1.97002e-06 0 0)
(1.96925e-06 0 0)
(1.96851e-06 0 0)
(1.96779e-06 0 0)
(1.96711e-06 0 0)
(1.96645e-06 0 0)
(1.96581e-06 0 0)
(1.96521e-06 0 0)
(1.96464e-06 0 0)
(1.96409e-06 0 0)
(1.96356e-06 0 0)
(1.96306e-06 0 0)
(1.96258e-06 0 0)
(1.96212e-06 0 0)
(1.96168e-06 0 0)
(1.96126e-06 0 0)
(1.96085e-06 0 0)
(1.96045e-06 0 0)
(1.96006e-06 0 0)
(1.95969e-06 0 0)
(1.95932e-06 0 0)
(1.95895e-06 0 0)
(1.95859e-06 0 0)
(1.95824e-06 0 0)
(1.95789e-06 0 0)
(1.95754e-06 0 0)
(1.95719e-06 0 0)
(1.95685e-06 0 0)
(1.9565e-06 0 0)
(1.95615e-06 0 0)
(1.95581e-06 0 0)
(1.95546e-06 0 0)
(1.95511e-06 0 0)
(1.95476e-06 0 0)
(1.95442e-06 0 0)
(1.95407e-06 0 0)
(1.95372e-06 0 0)
(1.95337e-06 0 0)
(1.95303e-06 0 0)
(1.95268e-06 0 0)
(1.95234e-06 0 0)
(1.95199e-06 0 0)
(1.95165e-06 0 0)
(1.95131e-06 0 0)
(1.95097e-06 0 0)
(1.95064e-06 0 0)
(1.95031e-06 0 0)
(1.94998e-06 0 0)
(1.94966e-06 0 0)
(1.94934e-06 0 0)
(1.94902e-06 0 0)
(1.94871e-06 0 0)
(1.9484e-06 0 0)
(1.9481e-06 0 0)
(1.9478e-06 0 0)
(1.94751e-06 0 0)
(1.94722e-06 0 0)
(1.94694e-06 0 0)
(1.94667e-06 0 0)
(1.9464e-06 0 0)
(1.94613e-06 0 0)
(1.94587e-06 0 0)
(1.94562e-06 0 0)
(1.94537e-06 0 0)
(1.94513e-06 0 0)
(1.9449e-06 0 0)
(1.94467e-06 0 0)
(1.94445e-06 0 0)
(1.94423e-06 0 0)
(1.94402e-06 0 0)
(1.94382e-06 0 0)
(1.94362e-06 0 0)
(1.94342e-06 0 0)
(1.94324e-06 0 0)
(1.94305e-06 0 0)
(1.94288e-06 0 0)
(1.94271e-06 0 0)
(1.94254e-06 0 0)
(1.94238e-06 0 0)
(1.94223e-06 0 0)
(1.94208e-06 0 0)
(1.94193e-06 0 0)
(1.94179e-06 0 0)
(1.94166e-06 0 0)
(1.94153e-06 0 0)
(1.9414e-06 0 0)
(1.94128e-06 0 0)
(1.94116e-06 0 0)
(1.94105e-06 0 0)
(1.94094e-06 0 0)
(1.94083e-06 0 0)
(1.94073e-06 0 0)
(1.94064e-06 0 0)
(1.94055e-06 0 0)
(1.94046e-06 0 0)
(1.94038e-06 0 0)
(1.9403e-06 0 0)
(1.94023e-06 0 0)
(1.94016e-06 0 0)
(1.9401e-06 0 0)
(1.94005e-06 0 0)
(1.94001e-06 0 0)
(1.93998e-06 0 0)
(1.93995e-06 0 0)
(1.93994e-06 0 0)
(1.93994e-06 0 0)
(1.93996e-06 0 0)
(1.93999e-06 0 0)
(1.94003e-06 0 0)
(1.9401e-06 0 0)
(1.94018e-06 0 0)
(1.94028e-06 0 0)
(1.94041e-06 0 0)
(1.94055e-06 0 0)
(1.94072e-06 0 0)
(1.94092e-06 0 0)
(1.94114e-06 0 0)
(1.94139e-06 0 0)
(1.94166e-06 0 0)
(1.94196e-06 0 0)
(1.94229e-06 0 0)
(1.94265e-06 0 0)
(1.94302e-06 0 0)
(1.94343e-06 0 0)
(1.94386e-06 0 0)
(1.94431e-06 0 0)
(1.94478e-06 0 0)
(1.94526e-06 0 0)
(1.94577e-06 0 0)
(1.94629e-06 0 0)
(1.94681e-06 0 0)
(1.94734e-06 0 0)
(1.94788e-06 0 0)
(1.94841e-06 0 0)
(1.94895e-06 0 0)
(1.94948e-06 0 0)
(1.95e-06 0 0)
(1.95051e-06 0 0)
(1.95099e-06 0 0)
(1.95143e-06 0 0)
(1.95185e-06 0 0)
(1.95224e-06 0 0)
(1.9526e-06 0 0)
(1.95291e-06 0 0)
(1.95318e-06 0 0)
(1.95341e-06 0 0)
(1.95358e-06 0 0)
(1.95371e-06 0 0)
(1.95378e-06 0 0)
(1.95379e-06 0 0)
(1.95375e-06 0 0)
(1.95365e-06 0 0)
(1.9535e-06 0 0)
(1.95328e-06 0 0)
(1.95302e-06 0 0)
(1.95269e-06 0 0)
(1.95232e-06 0 0)
(1.9519e-06 0 0)
(1.95143e-06 0 0)
(1.95091e-06 0 0)
(1.95036e-06 0 0)
(1.94977e-06 0 0)
(1.94914e-06 0 0)
(1.94849e-06 0 0)
(1.94782e-06 0 0)
(1.94713e-06 0 0)
(1.94642e-06 0 0)
(1.9457e-06 0 0)
(1.94497e-06 0 0)
(1.94424e-06 0 0)
(1.94351e-06 0 0)
(1.94279e-06 0 0)
(1.94207e-06 0 0)
(1.94136e-06 0 0)
(1.94066e-06 0 0)
(1.93997e-06 0 0)
(1.9393e-06 0 0)
(1.93865e-06 0 0)
(1.93802e-06 0 0)
(1.9374e-06 0 0)
(1.9368e-06 0 0)
(1.93622e-06 0 0)
(1.93566e-06 0 0)
(1.93512e-06 0 0)
(1.93459e-06 0 0)
(1.93409e-06 0 0)
(1.9336e-06 0 0)
(1.93312e-06 0 0)
(1.93266e-06 0 0)
(1.93222e-06 0 0)
(1.93178e-06 0 0)
(1.93136e-06 0 0)
(1.93095e-06 0 0)
(1.93055e-06 0 0)
(1.93015e-06 0 0)
(1.92977e-06 0 0)
(1.92939e-06 0 0)
(1.92901e-06 0 0)
(1.92864e-06 0 0)
(1.92828e-06 0 0)
(1.92791e-06 0 0)
(1.92755e-06 0 0)
(1.9272e-06 0 0)
(1.92684e-06 0 0)
(1.92649e-06 0 0)
(1.92613e-06 0 0)
(1.92578e-06 0 0)
(1.92543e-06 0 0)
(1.92508e-06 0 0)
(1.92473e-06 0 0)
(1.92438e-06 0 0)
(1.92403e-06 0 0)
(1.92369e-06 0 0)
(1.92334e-06 0 0)
(1.92299e-06 0 0)
(1.92265e-06 0 0)
(1.92231e-06 0 0)
(1.92196e-06 0 0)
(1.92162e-06 0 0)
(1.92128e-06 0 0)
(1.92095e-06 0 0)
(1.92061e-06 0 0)
(1.92028e-06 0 0)
(1.91995e-06 0 0)
(1.91962e-06 0 0)
(1.9193e-06 0 0)
(1.91898e-06 0 0)
(1.91866e-06 0 0)
(1.91835e-06 0 0)
(1.91804e-06 0 0)
(1.91773e-06 0 0)
(1.91743e-06 0 0)
(1.91713e-06 0 0)
(1.91684e-06 0 0)
(1.91655e-06 0 0)
(1.91626e-06 0 0)
(1.91598e-06 0 0)
(1.91571e-06 0 0)
(1.91544e-06 0 0)
(1.91517e-06 0 0)
(1.91491e-06 0 0)
(1.91465e-06 0 0)
(1.9144e-06 0 0)
(1.91415e-06 0 0)
(1.91391e-06 0 0)
(1.91367e-06 0 0)
(1.91344e-06 0 0)
(1.91321e-06 0 0)
(1.91299e-06 0 0)
(1.91277e-06 0 0)
(1.91256e-06 0 0)
(1.91235e-06 0 0)
(1.91215e-06 0 0)
(1.91195e-06 0 0)
(1.91175e-06 0 0)
(1.91156e-06 0 0)
(1.91138e-06 0 0)
(1.9112e-06 0 0)
(1.91102e-06 0 0)
(1.91084e-06 0 0)
(1.91067e-06 0 0)
(1.91051e-06 0 0)
(1.91035e-06 0 0)
(1.91019e-06 0 0)
(1.91004e-06 0 0)
(1.90989e-06 0 0)
(1.90974e-06 0 0)
(1.9096e-06 0 0)
(1.90946e-06 0 0)
(1.90933e-06 0 0)
(1.9092e-06 0 0)
(1.90908e-06 0 0)
(1.90896e-06 0 0)
(1.90884e-06 0 0)
(1.90873e-06 0 0)
(1.90863e-06 0 0)
(1.90853e-06 0 0)
(1.90844e-06 0 0)
(1.90836e-06 0 0)
(1.90828e-06 0 0)
(1.90821e-06 0 0)
(1.90815e-06 0 0)
(1.9081e-06 0 0)
(1.90806e-06 0 0)
(1.90803e-06 0 0)
(1.90801e-06 0 0)
(1.90801e-06 0 0)
(1.90802e-06 0 0)
(1.90804e-06 0 0)
(1.90808e-06 0 0)
(1.90813e-06 0 0)
(1.9082e-06 0 0)
(1.90829e-06 0 0)
(1.90839e-06 0 0)
(1.90852e-06 0 0)
(1.90866e-06 0 0)
(1.90882e-06 0 0)
(1.909e-06 0 0)
(1.9092e-06 0 0)
(1.90941e-06 0 0)
(1.90965e-06 0 0)
(1.9099e-06 0 0)
(1.91017e-06 0 0)
(1.91046e-06 0 0)
(1.91076e-06 0 0)
(1.91108e-06 0 0)
(1.91141e-06 0 0)
(1.91176e-06 0 0)
(1.91211e-06 0 0)
(7.8095e-06 0 0)
)
;

boundaryField
{
    inlet
    {
        type            fixedValue;
        value           uniform (2.74882e-06 0 0);
    }
    outlet
    {
        type            zeroGradient;
    }
    emptyWalls
    {
        type            empty;
    }
}


// ************************************************************************* //
