/*--------------------------------*- C++ -*----------------------------------*\
  =========                 |
  \\      /  F ield         | OpenFOAM: The Open Source CFD Toolbox
   \\    /   O peration     | Website:  https://openfoam.org
    \\  /    A nd           | Version:  9
     \\/     M anipulation  |
\*---------------------------------------------------------------------------*/
FoamFile
{
    format      ascii;
    class       volScalarField;
    location    "113000";
    object      krc;
}
// * * * * * * * * * * * * * * * * * * * * * * * * * * * * * * * * * * * * * //

dimensions      [0 0 0 0 0 0 0];

internalField   nonuniform List<scalar> 
100
(
1.95726e-21
1.67729e-23
1.81511e-23
2.13614e-23
2.57725e-24
1.96017e-23
3.72671e-24
2.61709e-25
1.42276e-23
8.41e-24
1.90427e-23
2.05432e-25
3.37099e-24
4.70305e-24
1.36323e-23
1.61587e-23
1.80369e-23
7.99321e-24
1.28305e-23
1.38009e-23
6.49143e-24
3.09177e-23
5.84246e-24
2.85984e-24
2.53917e-23
1.10929e-23
1.63963e-23
1.69043e-23
7.39364e-24
3.41047e-23
4.31017e-24
5.64044e-24
2.43341e-23
2.40114e-23
1.1044e-24
1.9934e-23
1.17344e-25
2.4198e-26
8.39407e-24
1.67401e-23
1.23624e-23
5.65686e-24
2.47299e-23
1.66971e-23
5.93619e-24
6.84005e-27
1.50128e-23
1.28626e-23
1.48708e-23
2.06919e-23
3.57145e-25
7.93627e-26
2.53553e-23
1.82241e-23
1.21142e-23
1.26283e-23
1.33187e-23
2.07655e-23
1.3936e-23
1.34255e-23
1.92957e-23
1.15184e-23
4.10026e-24
1.34037e-23
1.3559e-25
2.05692e-23
1.84291e-23
2.24645e-23
2.04526e-23
6.66652e-25
1.73004e-23
1.23244e-23
2.14937e-26
1.04384e-25
1.84908e-25
6.44312e-24
1.40431e-25
3.73083e-25
1.74162e-23
2.49878e-25
1.88916e-23
2.13919e-23
4.20633e-26
1.28564e-23
5.44179e-26
2.38244e-25
1.00515e-25
1.24698e-23
3.94924e-27
1.28283e-23
1.70239e-23
1.25993e-23
4.97606e-26
6.96127e-24
3.5926e-27
1.02818e-25
1.26422e-23
2.02133e-23
1.97941e-23
1.39536e-23
)
;

boundaryField
{
    inlet
    {
        type            calculated;
        value           uniform 1.95726e-21;
    }
    outlet
    {
        type            calculated;
        value           uniform 1.39536e-23;
    }
    emptyWalls
    {
        type            empty;
    }
}


// ************************************************************************* //
