/*--------------------------------*- C++ -*----------------------------------*\
  =========                 |
  \\      /  F ield         | OpenFOAM: The Open Source CFD Toolbox
   \\    /   O peration     | Website:  https://openfoam.org
    \\  /    A nd           | Version:  9
     \\/     M anipulation  |
\*---------------------------------------------------------------------------*/
FoamFile
{
    format      ascii;
    class       volScalarField;
    location    "8750";
    object      Fa;
}
// * * * * * * * * * * * * * * * * * * * * * * * * * * * * * * * * * * * * * //

dimensions      [0 0 0 0 0 0 0];

internalField   nonuniform List<scalar> 
1000
(
0.194486
0.195073
0.194551
0.194812
0.194469
0.194498
0.194268
0.194216
0.194048
0.193828
0.192916
0.186874
0.160159
0.152235
0.150288
0.149385
0.148861
0.148512
0.148248
0.148061
0.148013
0.148145
0.148423
0.148733
0.148933
0.148985
0.14897
0.148968
0.148903
0.148739
0.148449
0.148083
0.147652
0.147224
0.14679
0.146361
0.145964
0.145621
0.145344
0.145135
0.144993
0.14491
0.144874
0.144874
0.144898
0.144933
0.144971
0.145004
0.145027
0.145038
0.145036
0.145021
0.144993
0.144956
0.144911
0.144859
0.144802
0.144743
0.144682
0.14462
0.144558
0.144495
0.144433
0.144371
0.144309
0.144247
0.144186
0.144125
0.144064
0.144004
0.143944
0.143885
0.143827
0.14377
0.143714
0.14366
0.143608
0.143557
0.143507
0.14346
0.143414
0.14337
0.143327
0.143285
0.143245
0.143206
0.143167
0.14313
0.143093
0.143057
0.143022
0.142988
0.142954
0.142921
0.142888
0.142856
0.142825
0.142794
0.142763
0.142733
0.142704
0.142675
0.142646
0.142617
0.14259
0.142562
0.142535
0.142509
0.142483
0.142458
0.142433
0.142409
0.142386
0.142363
0.14234
0.142318
0.142297
0.142276
0.142256
0.142235
0.142215
0.142194
0.142174
0.142153
0.142131
0.14211
0.14209
0.142069
0.14205
0.142032
0.142016
0.142
0.141986
0.141974
0.141963
0.141953
0.141944
0.141938
0.141935
0.141936
0.141942
0.141955
0.141975
0.142005
0.142044
0.142094
0.142155
0.142227
0.142309
0.142403
0.142503
0.142613
0.142726
0.142844
0.14296
0.143077
0.143184
0.143285
0.14337
0.143441
0.14349
0.143519
0.14352
0.143496
0.143443
0.143362
0.143254
0.14312
0.142964
0.142788
0.142598
0.142398
0.142191
0.141984
0.14178
0.141583
0.141396
0.141222
0.141063
0.140919
0.140792
0.140681
0.140585
0.140503
0.140434
0.140376
0.140327
0.140287
0.140252
0.140222
0.140195
0.14017
0.140146
0.140121
0.140095
0.140068
0.140039
0.140007
0.139973
0.139937
0.139898
0.139858
0.139815
0.13977
0.139724
0.139676
0.139627
0.139577
0.139527
0.139475
0.139423
0.139371
0.139318
0.139265
0.139212
0.139159
0.139106
0.139053
0.138999
0.138946
0.138894
0.138841
0.138788
0.138736
0.138684
0.138632
0.138581
0.138529
0.138479
0.138428
0.138378
0.138329
0.13828
0.138232
0.138185
0.138138
0.138091
0.138046
0.138001
0.137957
0.137914
0.137871
0.137829
0.137789
0.137748
0.137709
0.13767
0.137632
0.137594
0.137557
0.137521
0.137485
0.137449
0.137414
0.137379
0.137344
0.13731
0.137276
0.137242
0.137208
0.137174
0.137141
0.137108
0.137074
0.137041
0.137008
0.136975
0.136943
0.13691
0.136878
0.136846
0.136814
0.136782
0.13675
0.136719
0.136688
0.136657
0.136626
0.136595
0.136565
0.136534
0.136504
0.136474
0.136444
0.136414
0.136384
0.136355
0.136325
0.136296
0.136268
0.136239
0.136211
0.136183
0.136156
0.136129
0.136103
0.136078
0.136053
0.136029
0.136007
0.135985
0.135965
0.135946
0.135929
0.135914
0.135901
0.135891
0.135884
0.135879
0.135878
0.135881
0.135888
0.135898
0.135913
0.135932
0.135955
0.135982
0.136014
0.136049
0.136088
0.13613
0.136175
0.136222
0.13627
0.13632
0.13637
0.136419
0.136466
0.136511
0.136554
0.136591
0.136624
0.136652
0.136672
0.136686
0.136691
0.136689
0.136677
0.136656
0.136626
0.136585
0.136534
0.136469
0.136392
0.136295
0.136173
0.136012
0.135792
0.135483
0.135054
0.134494
0.133853
0.133256
0.13281
0.132523
0.132342
0.132216
0.13212
0.13204
0.131971
0.13191
0.131856
0.131808
0.131766
0.131729
0.131698
0.131671
0.131648
0.131629
0.131614
0.131602
0.131593
0.131586
0.131581
0.131578
0.131576
0.131574
0.131573
0.131573
0.131572
0.131572
0.131571
0.131569
0.131567
0.131564
0.13156
0.131556
0.131551
0.131545
0.131538
0.13153
0.131522
0.131512
0.131502
0.131492
0.131481
0.131469
0.131457
0.131444
0.131432
0.131418
0.131405
0.131391
0.131377
0.131363
0.131349
0.131335
0.13132
0.131306
0.131291
0.131277
0.131262
0.131248
0.131234
0.131219
0.131205
0.131191
0.131177
0.131163
0.131149
0.131135
0.131122
0.131108
0.131095
0.131082
0.131069
0.131057
0.131044
0.131032
0.131021
0.131009
0.130998
0.130987
0.130977
0.130967
0.130957
0.130948
0.130939
0.130931
0.130923
0.130916
0.130909
0.130903
0.130897
0.130892
0.130887
0.130883
0.130879
0.130876
0.130873
0.130871
0.13087
0.130868
0.130868
0.130868
0.130868
0.130868
0.130869
0.13087
0.130872
0.130875
0.130878
0.130881
0.130885
0.130888
0.130893
0.130897
0.130902
0.130907
0.130913
0.130919
0.130925
0.130931
0.130938
0.130945
0.130952
0.130959
0.130967
0.130974
0.130982
0.13099
0.130999
0.131007
0.131017
0.131026
0.131035
0.131045
0.131055
0.131065
0.131076
0.131086
0.131098
0.131109
0.131122
0.131134
0.131148
0.131161
0.131176
0.131191
0.131207
0.131224
0.131242
0.131261
0.131281
0.131302
0.131325
0.131349
0.131375
0.131402
0.131432
0.131463
0.131496
0.131531
0.131569
0.131609
0.131651
0.131696
0.131743
0.131792
0.131844
0.131899
0.131955
0.132014
0.132075
0.132137
0.132202
0.132267
0.132334
0.132401
0.132469
0.132536
0.132604
0.13267
0.132735
0.132797
0.132857
0.132914
0.132968
0.133017
0.133062
0.133102
0.133136
0.133164
0.133186
0.133201
0.133209
0.133211
0.133211
0.133209
0.133198
0.133172
0.133139
0.133099
0.133054
0.133004
0.132948
0.132889
0.132826
0.13276
0.132692
0.132623
0.132554
0.132484
0.132415
0.132347
0.132281
0.132217
0.132156
0.132098
0.132043
0.131992
0.131944
0.1319
0.13186
0.131824
0.131791
0.131761
0.131734
0.131711
0.13169
0.131672
0.131657
0.131643
0.131631
0.13162
0.131611
0.131602
0.131595
0.131588
0.131581
0.131574
0.131568
0.131561
0.131554
0.131547
0.131539
0.131531
0.131522
0.131513
0.131503
0.131493
0.131482
0.13147
0.131458
0.131445
0.131432
0.131418
0.131404
0.13139
0.131375
0.13136
0.131345
0.13133
0.131314
0.131298
0.131282
0.131266
0.131251
0.131235
0.131219
0.131203
0.131187
0.131171
0.131156
0.13114
0.131125
0.13111
0.131095
0.13108
0.131066
0.131051
0.131037
0.131023
0.13101
0.130997
0.130983
0.130971
0.130958
0.130946
0.130934
0.130923
0.130912
0.130902
0.130891
0.130882
0.130873
0.130864
0.130856
0.130848
0.130841
0.130835
0.130829
0.130823
0.130819
0.130815
0.130811
0.130809
0.130806
0.130805
0.130804
0.130804
0.130804
0.130804
0.130805
0.130808
0.130811
0.130815
0.130819
0.130824
0.130829
0.130835
0.130842
0.130849
0.130856
0.130864
0.130872
0.130881
0.13089
0.130899
0.130909
0.130919
0.13093
0.13094
0.130951
0.130963
0.130974
0.130986
0.130997
0.13101
0.131022
0.131034
0.131047
0.13106
0.131073
0.131087
0.1311
0.131114
0.131128
0.131142
0.131157
0.131172
0.131188
0.131204
0.13122
0.131237
0.131254
0.131272
0.131291
0.13131
0.131331
0.131352
0.131374
0.131397
0.131421
0.131447
0.131473
0.131502
0.131531
0.131562
0.131594
0.131628
0.131664
0.131701
0.13174
0.131781
0.131824
0.131868
0.131914
0.131961
0.13201
0.132061
0.132112
0.132166
0.132219
0.132274
0.13233
0.132385
0.132441
0.132497
0.132552
0.132607
0.13266
0.132713
0.132763
0.132811
0.132856
0.132899
0.132938
0.132974
0.133006
0.133034
0.133058
0.133076
0.13309
0.133098
0.133101
0.133101
0.133101
0.133096
0.133079
0.133056
0.133028
0.132995
0.132957
0.132915
0.13287
0.132821
0.132769
0.132715
0.132659
0.132602
0.132544
0.132485
0.132427
0.132369
0.132313
0.132257
0.132204
0.132152
0.132103
0.132056
0.132012
0.13197
0.131931
0.131895
0.131862
0.131832
0.131804
0.131778
0.131755
0.131735
0.131716
0.131699
0.131684
0.131671
0.131658
0.131647
0.131637
0.131628
0.131619
0.131611
0.131603
0.131595
0.131588
0.13158
0.131572
0.131564
0.131556
0.131547
0.131538
0.131528
0.131518
0.131507
0.131496
0.131485
0.131473
0.13146
0.131447
0.131434
0.131421
0.131407
0.131392
0.131378
0.131363
0.131349
0.131334
0.131319
0.131304
0.131289
0.131274
0.131259
0.131244
0.131229
0.131215
0.131201
0.131187
0.131173
0.131159
0.131146
0.131133
0.13112
0.131108
0.131096
0.131084
0.131073
0.131062
0.131051
0.131041
0.131031
0.131022
0.131013
0.131004
0.130995
0.130987
0.130979
0.130972
0.130965
0.130959
0.130952
0.130947
0.130941
0.130936
0.130931
0.130927
0.130923
0.13092
0.130917
0.130914
0.130912
0.13091
0.130909
0.130908
0.130908
0.130907
0.130907
0.130908
0.130909
0.130911
0.130913
0.130916
0.130919
0.130923
0.130927
0.130932
0.130937
0.130942
0.130949
0.130955
0.130962
0.130969
0.130977
0.130985
0.130993
0.131002
0.131011
0.131021
0.131031
0.131041
0.131052
0.131062
0.131074
0.131085
0.131097
0.131109
0.131121
0.131134
0.131147
0.131161
0.131174
0.131189
0.131203
0.131218
0.131234
0.13125
0.131266
0.131283
0.131301
0.131319
0.131339
0.131358
0.131379
0.131401
0.131423
0.131447
0.131472
0.131497
0.131524
0.131552
0.131582
0.131612
0.131644
0.131677
0.131712
0.131747
0.131784
0.131823
0.131863
0.131903
0.131945
0.131988
0.132032
0.132077
0.132123
0.132169
0.132216
0.132263
0.13231
0.132356
0.132403
0.132449
0.132494
0.132538
0.13258
0.132621
0.132661
0.132698
0.132733
0.132765
0.132794
0.13282
0.132844
0.132863
0.132879
0.13289
0.132898
0.132901
0.132902
0.132901
0.132899
0.132891
0.132871
0.132854
0.132825
0.132801
0.132765
0.132734
0.132691
0.132655
0.132608
0.132568
0.132518
0.132475
0.132422
0.132379
0.132326
0.132283
0.13223
0.13219
0.132138
0.132101
0.132052
0.132018
0.131974
0.131942
0.131904
0.131874
0.131843
0.131814
0.13179
0.131763
)
;

boundaryField
{
    inlet
    {
        type            calculated;
        value           uniform 0.194831;
    }
    outlet
    {
        type            calculated;
        value           uniform 0.131755;
    }
    emptyWalls
    {
        type            empty;
    }
}


// ************************************************************************* //
