/*--------------------------------*- C++ -*----------------------------------*\
  =========                 |
  \\      /  F ield         | OpenFOAM: The Open Source CFD Toolbox
   \\    /   O peration     | Website:  https://openfoam.org
    \\  /    A nd           | Version:  9
     \\/     M anipulation  |
\*---------------------------------------------------------------------------*/
FoamFile
{
    format      ascii;
    class       volScalarField;
    location    "8750";
    object      p;
}
// * * * * * * * * * * * * * * * * * * * * * * * * * * * * * * * * * * * * * //

dimensions      [0 0 0 0 0 0 0];

internalField   nonuniform List<scalar> 
1000
(
239508
239086
238669
238258
237853
237453
237057
236666
236278
235895
235525
235197
234988
234882
234793
234708
234623
234540
234458
234375
234293
234211
234130
234048
233967
233885
233804
233722
233641
233559
233478
233396
233314
233231
233148
233064
232980
232894
232808
232722
232635
232547
232458
232368
232278
232188
232096
232004
231911
231818
231723
231629
231533
231437
231340
231243
231145
231046
230946
230846
230746
230644
230542
230440
230337
230233
230128
230023
229917
229811
229704
229597
229489
229380
229271
229161
229050
228939
228827
228715
228602
228489
228375
228260
228145
228029
227913
227796
227679
227561
227442
227323
227204
227084
226963
226842
226720
226597
226474
226351
226227
226102
225977
225852
225726
225599
225472
225344
225216
225087
224958
224828
224698
224567
224435
224304
224171
224038
223905
223771
223636
223501
223366
223230
223094
222957
222819
222681
222543
222404
222264
222124
221984
221843
221702
221560
221417
221274
221131
220987
220843
220698
220553
220407
220260
220114
219966
219819
219671
219522
219373
219223
219073
218923
218772
218621
218469
218317
218164
218011
217857
217703
217548
217393
217238
217082
216925
216769
216611
216453
216295
216136
215977
215817
215657
215496
215334
215173
215010
214848
214684
214521
214357
214192
214027
213861
213695
213529
213362
213194
213027
212858
212690
212520
212351
212181
212010
211839
211668
211496
211323
211150
210977
210803
210629
210455
210279
210104
209928
209751
209575
209397
209219
209041
208862
208683
208504
208323
208143
207962
207780
207599
207416
207233
207050
206867
206682
206498
206313
206127
205941
205755
205568
205381
205193
205005
204816
204627
204437
204247
204057
203866
203675
203483
203291
203098
202905
202711
202517
202323
202128
201932
201736
201540
201343
201146
200948
200750
200552
200353
200153
199953
199753
199552
199351
199149
198947
198744
198541
198337
198133
197929
197724
197518
197313
197106
196899
196692
196484
196276
196068
195859
195649
195439
195228
195017
194806
194594
194382
194169
193956
193742
193528
193313
193098
192882
192666
192449
192232
192015
191797
191578
191359
191139
190919
190699
190478
190257
190035
189812
189589
189366
189142
188918
188693
188467
188242
188015
187788
187561
187333
187105
186876
186647
186417
186187
185956
185725
185494
185262
185029
184796
184563
184329
184095
183861
183626
183391
183156
182920
182684
182448
182212
181975
181738
181501
181263
181023
180782
180537
180287
180031
179768
179500
179227
178952
178675
178398
178121
177844
177566
177289
177011
176734
176456
176178
175901
175623
175345
175068
174790
174512
174235
173957
173679
173402
173124
172846
172569
172291
172013
171736
171458
171180
170903
170625
170347
170070
169792
169514
169237
168959
168681
168404
168126
167848
167570
167293
167015
166737
166460
166182
165904
165627
165349
165071
164793
164516
164238
163960
163682
163405
163127
162849
162571
162294
162016
161738
161460
161182
160905
160627
160349
160071
159793
159516
159238
158960
158682
158404
158127
157849
157571
157293
157015
156737
156460
156182
155904
155626
155348
155070
154792
154515
154237
153959
153681
153403
153125
152847
152570
152292
152014
151736
151458
151180
150902
150624
150347
150069
149791
149513
149235
148957
148679
148402
148124
147846
147568
147290
147012
146734
146457
146179
145901
145623
145345
145067
144789
144512
144234
143956
143678
143400
143122
142845
142567
142289
142011
141733
141456
141178
140900
140622
140344
140067
139789
139511
139233
138955
138678
138400
138122
137844
137567
137289
137011
136733
136456
136178
135900
135623
135345
135067
134790
134512
134234
133957
133679
133401
133124
132846
132569
132291
132014
131736
131459
131181
130904
130626
130349
130072
129794
129517
129240
128962
128685
128408
128130
127853
127576
127299
127021
126744
126467
126190
125913
125635
125358
125081
124804
124526
124249
123972
123695
123417
123140
122863
122586
122308
122031
121753
121476
121199
120921
120644
120366
120089
119811
119534
119256
118979
118701
118423
118146
117868
117591
117313
117035
116758
116480
116202
115925
115647
115370
115092
114814
114537
114259
113981
113704
113426
113148
112871
112593
112315
112037
111760
111482
111204
110927
110649
110371
110094
109816
109538
109261
108983
108705
108427
108150
107872
107594
107316
107039
106761
106483
106205
105928
105650
105372
105094
104817
104539
104261
103983
103705
103428
103150
102872
102594
102316
102039
101761
101483
101205
100927
100649
100372
100094
99815.8
99538
99260.1
98982.3
98704.4
98426.5
98148.7
97870.8
97592.9
97315.1
97037.2
96759.3
96481.4
96203.5
95925.7
95647.8
95369.9
95092
94814.1
94536.2
94258.4
93980.5
93702.6
93424.7
93146.8
92868.9
92591
92313.2
92035.3
91757.4
91479.5
91201.7
90923.8
90645.9
90368
90090.2
89812.3
89534.4
89256.6
88978.7
88700.9
88423
88145.2
87867.3
87589.5
87311.6
87033.8
86756
86478.1
86200.3
85922.5
85644.7
85366.9
85089
84811.2
84533.4
84255.6
83977.8
83700
83422.3
83144.5
82866.7
82588.9
82311.1
82033.4
81755.6
81477.9
81200.1
80922.4
80644.6
80366.9
80089.2
79811.4
79533.7
79256
78978.3
78700.6
78422.9
78145.3
77867.6
77589.9
77312.3
77034.6
76757
76479.4
76201.8
75924.2
75646.6
75369.1
75091.5
74814
74536.4
74258.9
73981.4
73703.9
73426.5
73149
72871.6
72594.2
72316.8
72039.4
71762
71484.7
71207.3
70930
70652.7
70375.4
70098.1
69820.8
69543.5
69266.3
68989
68711.8
68434.5
68157.3
67880.1
67602.8
67325.6
67048.3
66771.1
66493.9
66216.6
65939.3
65662.1
65384.8
65107.5
64830.2
64552.8
64275.5
63998.1
63720.8
63443.4
63166
62888.6
62611.1
62333.7
62056.2
61778.7
61501.2
61223.7
60946.2
60668.6
60391.1
60113.5
59835.9
59558.4
59280.8
59003.2
58725.6
58447.9
58170.3
57892.7
57615.1
57337.4
57059.8
56782.1
56504.5
56226.9
55949.2
55671.5
55393.9
55116.2
54838.6
54560.9
54283.2
54005.6
53727.9
53450.2
53172.5
52894.9
52617.2
52339.5
52061.8
51784.1
51506.4
51228.7
50951
50673.3
50395.6
50117.9
49840.2
49562.5
49284.8
49007
48729.3
48451.6
48173.8
47896.1
47618.3
47340.6
47062.8
46785.1
46507.3
46229.5
45951.8
45674
45396.2
45118.4
44840.6
44562.9
44285.1
44007.3
43729.5
43451.7
43173.8
42896
42618.2
42340.4
42062.6
41784.8
41506.9
41229.1
40951.3
40673.4
40395.6
40117.8
39839.9
39562.1
39284.2
39006.4
38728.6
38450.7
38172.9
37895
37617.2
37339.3
37061.4
36783.6
36505.7
36227.9
35950
35672.2
35394.3
35116.5
34838.6
34560.7
34282.9
34005
33727.2
33449.3
33171.5
32893.6
32615.8
32337.9
32060.1
31782.2
31504.4
31226.5
30948.7
30670.8
30393
30115.2
29837.3
29559.5
29281.7
29003.8
28726
28448.2
28170.4
27892.6
27614.8
27337
27059.1
26781.3
26503.5
26225.8
25948
25670.2
25392.4
25114.6
24836.8
24559.1
24281.3
24003.5
23725.8
23448
23170.3
22892.5
22614.8
22337.1
22059.3
21781.6
21503.9
21226.2
20948.5
20670.8
20393.1
20115.4
19837.8
19560.1
19282.4
19004.8
18727.2
18449.5
18171.9
17894.3
17616.7
17339.1
17061.6
16784
16506.5
16228.9
15951.4
15673.9
15396.4
15118.9
14841.5
14564
14286.6
14009.1
13731.7
13454.3
13176.9
12899.5
12622.2
12344.8
12067.5
11790.1
11512.8
11235.5
10958.2
10680.9
10403.5
10126.2
9848.95
9571.66
9294.36
9017.07
8739.77
8462.47
8185.17
7907.87
7630.55
7353.23
7075.91
6798.57
6521.22
6243.86
5966.49
5689.1
5411.71
5134.3
4856.88
4579.44
4301.99
4024.53
3747.05
3469.56
3192.06
2914.54
2637.01
2359.47
2081.92
1804.36
1526.79
1249.21
971.623
694.026
416.421
138.809
)
;

boundaryField
{
    inlet
    {
        type            darcyGradPressure;
        gradient        uniform 116344;
        Mf              Mf;
        phi             phi;
        value           uniform 239721;
    }
    outlet
    {
        type            fixedValue;
        value           uniform 0;
    }
    emptyWalls
    {
        type            empty;
    }
}


// ************************************************************************* //
