/*--------------------------------*- C++ -*----------------------------------*\
  =========                 |
  \\      /  F ield         | OpenFOAM: The Open Source CFD Toolbox
   \\    /   O peration     | Website:  https://openfoam.org
    \\  /    A nd           | Version:  9
     \\/     M anipulation  |
\*---------------------------------------------------------------------------*/
FoamFile
{
    format      ascii;
    class       surfaceScalarField;
    location    "6550";
    object      phia;
}
// * * * * * * * * * * * * * * * * * * * * * * * * * * * * * * * * * * * * * //

dimensions      [0 2 0 0 0 0 0];

internalField   nonuniform List<scalar> 
999
(
2.74968e-10
2.74706e-10
2.74586e-10
2.74296e-10
2.74079e-10
2.73713e-10
2.72668e-10
2.69005e-10
2.47323e-10
2.19707e-10
2.16151e-10
2.15249e-10
2.14307e-10
2.13009e-10
2.11866e-10
2.10572e-10
2.09265e-10
2.08017e-10
2.06938e-10
2.06134e-10
2.05489e-10
2.05051e-10
2.04776e-10
2.04663e-10
2.04715e-10
2.04841e-10
2.04968e-10
2.05079e-10
2.05163e-10
2.05215e-10
2.05231e-10
2.05214e-10
2.05168e-10
2.05099e-10
2.05013e-10
2.04915e-10
2.0481e-10
2.047e-10
2.04588e-10
2.04475e-10
2.04362e-10
2.0425e-10
2.04139e-10
2.04029e-10
2.03921e-10
2.03815e-10
2.0371e-10
2.03607e-10
2.03505e-10
2.03405e-10
2.03305e-10
2.03207e-10
2.0311e-10
2.03013e-10
2.02917e-10
2.02823e-10
2.02728e-10
2.02634e-10
2.02541e-10
2.02448e-10
2.02355e-10
2.02263e-10
2.02171e-10
2.0208e-10
2.01988e-10
2.01898e-10
2.01807e-10
2.01718e-10
2.0163e-10
2.01543e-10
2.01459e-10
2.01376e-10
2.01296e-10
2.01218e-10
2.01144e-10
2.01072e-10
2.01003e-10
2.00938e-10
2.00876e-10
2.00817e-10
2.00761e-10
2.00708e-10
2.00658e-10
2.00611e-10
2.00566e-10
2.00524e-10
2.00483e-10
2.00444e-10
2.00407e-10
2.0037e-10
2.00333e-10
2.00297e-10
2.00261e-10
2.00225e-10
2.00189e-10
2.00152e-10
2.00116e-10
2.00079e-10
2.00042e-10
2.00005e-10
1.99968e-10
1.9993e-10
1.99893e-10
1.99855e-10
1.99818e-10
1.99779e-10
1.99741e-10
1.99702e-10
1.99663e-10
1.99624e-10
1.99586e-10
1.9955e-10
1.99515e-10
1.99482e-10
1.99452e-10
1.99424e-10
1.99398e-10
1.99373e-10
1.99351e-10
1.9933e-10
1.99311e-10
1.99294e-10
1.99281e-10
1.99272e-10
1.9927e-10
1.99276e-10
1.99293e-10
1.99322e-10
1.99365e-10
1.99423e-10
1.99496e-10
1.99586e-10
1.99691e-10
1.99811e-10
1.99943e-10
2.00086e-10
2.00236e-10
2.0039e-10
2.00544e-10
2.00693e-10
2.00832e-10
2.00957e-10
2.01062e-10
2.01141e-10
2.0119e-10
2.01205e-10
2.01181e-10
2.01117e-10
2.01009e-10
2.00859e-10
2.00667e-10
2.00437e-10
2.00172e-10
1.99879e-10
1.99563e-10
1.99232e-10
1.98893e-10
1.98554e-10
1.98221e-10
1.979e-10
1.97597e-10
1.97316e-10
1.97059e-10
1.96829e-10
1.96626e-10
1.9645e-10
1.96299e-10
1.96172e-10
1.96067e-10
1.9598e-10
1.9591e-10
1.95852e-10
1.95805e-10
1.95765e-10
1.95729e-10
1.95697e-10
1.95665e-10
1.95631e-10
1.95596e-10
1.95557e-10
1.95513e-10
1.95465e-10
1.95412e-10
1.95353e-10
1.9529e-10
1.95221e-10
1.95148e-10
1.9507e-10
1.94989e-10
1.94903e-10
1.94815e-10
1.94723e-10
1.94629e-10
1.94533e-10
1.94435e-10
1.94336e-10
1.94234e-10
1.94133e-10
1.94029e-10
1.93928e-10
1.93823e-10
1.9372e-10
1.93615e-10
1.93511e-10
1.93407e-10
1.93302e-10
1.932e-10
1.93096e-10
1.92994e-10
1.92892e-10
1.9279e-10
1.9269e-10
1.92589e-10
1.92491e-10
1.92392e-10
1.92295e-10
1.92198e-10
1.92102e-10
1.92008e-10
1.91913e-10
1.91819e-10
1.91727e-10
1.91634e-10
1.91543e-10
1.91451e-10
1.91361e-10
1.91271e-10
1.9118e-10
1.91091e-10
1.91002e-10
1.90913e-10
1.90825e-10
1.90735e-10
1.90648e-10
1.90559e-10
1.90471e-10
1.90384e-10
1.90297e-10
1.90211e-10
1.90125e-10
1.90039e-10
1.89956e-10
1.89873e-10
1.89792e-10
1.89713e-10
1.89638e-10
1.89565e-10
1.89496e-10
1.89432e-10
1.89371e-10
1.89316e-10
1.89265e-10
1.89218e-10
1.89172e-10
1.89124e-10
1.89068e-10
1.8899e-10
1.88871e-10
1.8868e-10
1.88374e-10
1.8791e-10
1.87274e-10
1.86538e-10
1.85852e-10
1.85359e-10
1.85075e-10
1.84939e-10
1.84884e-10
1.84865e-10
1.84867e-10
1.84875e-10
1.8489e-10
1.84905e-10
1.84923e-10
1.84941e-10
1.84959e-10
1.84978e-10
1.84997e-10
1.85015e-10
1.85034e-10
1.85053e-10
1.85072e-10
1.85091e-10
1.85109e-10
1.85128e-10
1.85147e-10
1.85166e-10
1.85185e-10
1.85204e-10
1.85224e-10
1.85243e-10
1.85264e-10
1.85284e-10
1.85305e-10
1.85327e-10
1.8535e-10
1.85373e-10
1.85397e-10
1.85423e-10
1.85449e-10
1.85478e-10
1.85507e-10
1.85539e-10
1.85574e-10
1.8561e-10
1.8565e-10
1.85693e-10
1.85739e-10
1.85789e-10
1.85844e-10
1.85903e-10
1.85967e-10
1.86036e-10
1.8611e-10
1.8619e-10
1.86276e-10
1.86367e-10
1.86463e-10
1.86564e-10
1.86671e-10
1.86781e-10
1.86895e-10
1.87013e-10
1.87133e-10
1.87254e-10
1.87375e-10
1.87496e-10
1.87615e-10
1.87731e-10
1.87842e-10
1.87948e-10
1.88045e-10
1.88133e-10
1.88211e-10
1.88276e-10
1.88327e-10
1.88363e-10
1.88384e-10
1.88391e-10
1.88391e-10
1.88391e-10
1.88372e-10
1.88308e-10
1.88234e-10
1.88144e-10
1.88041e-10
1.87926e-10
1.878e-10
1.87666e-10
1.87524e-10
1.87377e-10
1.87227e-10
1.87076e-10
1.86926e-10
1.86779e-10
1.86637e-10
1.865e-10
1.86371e-10
1.8625e-10
1.86139e-10
1.86038e-10
1.85947e-10
1.85867e-10
1.85798e-10
1.85739e-10
1.8569e-10
1.85651e-10
1.85621e-10
1.85598e-10
1.85583e-10
1.85575e-10
1.85571e-10
1.85571e-10
1.85571e-10
1.85575e-10
1.85589e-10
1.85604e-10
1.85619e-10
1.85635e-10
1.85651e-10
1.85666e-10
1.8568e-10
1.85692e-10
1.85703e-10
1.85712e-10
1.8572e-10
1.85724e-10
1.85727e-10
1.85728e-10
1.85728e-10
1.85728e-10
1.85725e-10
1.85716e-10
1.85706e-10
1.85694e-10
1.8568e-10
1.85665e-10
1.85648e-10
1.85629e-10
1.85609e-10
1.85588e-10
1.85566e-10
1.85543e-10
1.85519e-10
1.85494e-10
1.85468e-10
1.85442e-10
1.85416e-10
1.85389e-10
1.85362e-10
1.85334e-10
1.85307e-10
1.8528e-10
1.85253e-10
1.85226e-10
1.85199e-10
1.85173e-10
1.85147e-10
1.85121e-10
1.85096e-10
1.85071e-10
1.85048e-10
1.85024e-10
1.85002e-10
1.8498e-10
1.84959e-10
1.84938e-10
1.84918e-10
1.84899e-10
1.84881e-10
1.84864e-10
1.84847e-10
1.84831e-10
1.84816e-10
1.84801e-10
1.84787e-10
1.84774e-10
1.84761e-10
1.84749e-10
1.84738e-10
1.84727e-10
1.84716e-10
1.84706e-10
1.84697e-10
1.84688e-10
1.84679e-10
1.84671e-10
1.84663e-10
1.84655e-10
1.84648e-10
1.84641e-10
1.84634e-10
1.84627e-10
1.84621e-10
1.84615e-10
1.8461e-10
1.84605e-10
1.846e-10
1.84596e-10
1.84592e-10
1.84589e-10
1.84586e-10
1.84583e-10
1.84581e-10
1.8458e-10
1.8458e-10
1.84579e-10
1.84579e-10
1.8458e-10
1.84581e-10
1.84584e-10
1.84588e-10
1.84592e-10
1.84597e-10
1.84603e-10
1.8461e-10
1.84618e-10
1.84627e-10
1.84637e-10
1.84647e-10
1.84659e-10
1.84671e-10
1.84684e-10
1.84698e-10
1.84713e-10
1.84729e-10
1.84745e-10
1.84762e-10
1.8478e-10
1.84798e-10
1.84817e-10
1.84837e-10
1.84857e-10
1.84878e-10
1.849e-10
1.84922e-10
1.84945e-10
1.84968e-10
1.84992e-10
1.85017e-10
1.85042e-10
1.85068e-10
1.85095e-10
1.85123e-10
1.85151e-10
1.85181e-10
1.85212e-10
1.85244e-10
1.85277e-10
1.85312e-10
1.85348e-10
1.85387e-10
1.85427e-10
1.8547e-10
1.85514e-10
1.85562e-10
1.85612e-10
1.85665e-10
1.85721e-10
1.8578e-10
1.85843e-10
1.85909e-10
1.85979e-10
1.86053e-10
1.8613e-10
1.8621e-10
1.86295e-10
1.86382e-10
1.86473e-10
1.86567e-10
1.86663e-10
1.86761e-10
1.86861e-10
1.86963e-10
1.87065e-10
1.87167e-10
1.87269e-10
1.87369e-10
1.87467e-10
1.87561e-10
1.87652e-10
1.87739e-10
1.87819e-10
1.87893e-10
1.8796e-10
1.88019e-10
1.88069e-10
1.88108e-10
1.88138e-10
1.88156e-10
1.88164e-10
1.88166e-10
1.88165e-10
1.88157e-10
1.88123e-10
1.88074e-10
1.88014e-10
1.87944e-10
1.87865e-10
1.87777e-10
1.87682e-10
1.87581e-10
1.87474e-10
1.87365e-10
1.87252e-10
1.87139e-10
1.87026e-10
1.86914e-10
1.86805e-10
1.86699e-10
1.86598e-10
1.86501e-10
1.86411e-10
1.86326e-10
1.86248e-10
1.86177e-10
1.86112e-10
1.86055e-10
1.86004e-10
1.85959e-10
1.85921e-10
1.85889e-10
1.85861e-10
1.85839e-10
1.85822e-10
1.85808e-10
1.85798e-10
1.8579e-10
1.85786e-10
1.85783e-10
1.85782e-10
1.85782e-10
1.85782e-10
1.85783e-10
1.85786e-10
1.85789e-10
1.8579e-10
1.85792e-10
1.85792e-10
1.85792e-10
1.85792e-10
1.85791e-10
1.85788e-10
1.85782e-10
1.85776e-10
1.85768e-10
1.85758e-10
1.85748e-10
1.85736e-10
1.85722e-10
1.85708e-10
1.85692e-10
1.85675e-10
1.85657e-10
1.85639e-10
1.85619e-10
1.85598e-10
1.85577e-10
1.85555e-10
1.85532e-10
1.85508e-10
1.85484e-10
1.8546e-10
1.85435e-10
1.8541e-10
1.85384e-10
1.85359e-10
1.85333e-10
1.85307e-10
1.8528e-10
1.85254e-10
1.85228e-10
1.85202e-10
1.85177e-10
1.85151e-10
1.85126e-10
1.85101e-10
1.85076e-10
1.85052e-10
1.85028e-10
1.85005e-10
1.84983e-10
1.84961e-10
1.8494e-10
1.84919e-10
1.84899e-10
1.8488e-10
1.84861e-10
1.84844e-10
1.84827e-10
1.84811e-10
1.84796e-10
1.84782e-10
1.84768e-10
1.84755e-10
1.84743e-10
1.84732e-10
1.84722e-10
1.84712e-10
1.84703e-10
1.84695e-10
1.84688e-10
1.84681e-10
1.84675e-10
1.84669e-10
1.84664e-10
1.8466e-10
1.84656e-10
1.84653e-10
1.8465e-10
1.84647e-10
1.84645e-10
1.84643e-10
1.84642e-10
1.84641e-10
1.84641e-10
1.84641e-10
1.84641e-10
1.84641e-10
1.84642e-10
1.84643e-10
1.84645e-10
1.84647e-10
1.8465e-10
1.84653e-10
1.84657e-10
1.84661e-10
1.84665e-10
1.84671e-10
1.84677e-10
1.84683e-10
1.84691e-10
1.84699e-10
1.84707e-10
1.84717e-10
1.84728e-10
1.84739e-10
1.84751e-10
1.84765e-10
1.84779e-10
1.84794e-10
1.8481e-10
1.84828e-10
1.84846e-10
1.84866e-10
1.84886e-10
1.84908e-10
1.84931e-10
1.84956e-10
1.84981e-10
1.85008e-10
1.85036e-10
1.85065e-10
1.85096e-10
1.85128e-10
1.85162e-10
1.85197e-10
1.85233e-10
1.85271e-10
1.85311e-10
1.85353e-10
1.85396e-10
1.85441e-10
1.85489e-10
1.85538e-10
1.85589e-10
1.85643e-10
1.85699e-10
1.85757e-10
1.85817e-10
1.8588e-10
1.85946e-10
1.86014e-10
1.86084e-10
1.86157e-10
1.86233e-10
1.86311e-10
1.86391e-10
1.86473e-10
1.86557e-10
1.86643e-10
1.8673e-10
1.86818e-10
1.86907e-10
1.86997e-10
1.87087e-10
1.87176e-10
1.87265e-10
1.87352e-10
1.87438e-10
1.87521e-10
1.87601e-10
1.87677e-10
1.8775e-10
1.87817e-10
1.87879e-10
1.87935e-10
1.87985e-10
1.88027e-10
1.88061e-10
1.88088e-10
1.88105e-10
1.88114e-10
1.88116e-10
1.88116e-10
1.88113e-10
1.88092e-10
1.88056e-10
1.8801e-10
1.87956e-10
1.87893e-10
1.87823e-10
1.87746e-10
1.87662e-10
1.87573e-10
1.87479e-10
1.87382e-10
1.87282e-10
1.8718e-10
1.87077e-10
1.86975e-10
1.86873e-10
1.86773e-10
1.86675e-10
1.8658e-10
1.86489e-10
1.86402e-10
1.86319e-10
1.86241e-10
1.86168e-10
1.86101e-10
1.86038e-10
1.85981e-10
1.85928e-10
1.85881e-10
1.85838e-10
1.85799e-10
1.85765e-10
1.85735e-10
1.85708e-10
1.85684e-10
1.85663e-10
1.85645e-10
1.85629e-10
1.85615e-10
1.85603e-10
1.85592e-10
1.85582e-10
1.85572e-10
1.85564e-10
1.85555e-10
1.85547e-10
1.85539e-10
1.8553e-10
1.85522e-10
1.85513e-10
1.85503e-10
1.85493e-10
1.85483e-10
1.85472e-10
1.8546e-10
1.85448e-10
1.85435e-10
1.85421e-10
1.85408e-10
1.85393e-10
1.85378e-10
1.85363e-10
1.85347e-10
1.8533e-10
1.85314e-10
1.85297e-10
1.85279e-10
1.85262e-10
1.85244e-10
1.85226e-10
1.85208e-10
1.8519e-10
1.85172e-10
1.85153e-10
1.85135e-10
1.85116e-10
1.85098e-10
1.85079e-10
1.85061e-10
1.85042e-10
1.85024e-10
1.85006e-10
1.84987e-10
1.84969e-10
1.84951e-10
1.84933e-10
1.84916e-10
1.84898e-10
1.84881e-10
1.84864e-10
1.84848e-10
1.84831e-10
1.84815e-10
1.84799e-10
1.84784e-10
1.84769e-10
1.84754e-10
1.8474e-10
1.84726e-10
1.84713e-10
1.847e-10
1.84688e-10
1.84676e-10
1.84665e-10
1.84655e-10
1.84645e-10
1.84636e-10
1.84627e-10
1.84619e-10
1.84612e-10
1.84605e-10
1.84599e-10
1.84594e-10
1.84589e-10
1.84585e-10
1.84582e-10
1.84579e-10
1.84577e-10
1.84576e-10
1.84575e-10
1.84575e-10
1.84575e-10
1.84575e-10
1.84575e-10
1.84577e-10
1.8458e-10
1.84583e-10
1.84586e-10
1.8459e-10
1.84594e-10
1.84598e-10
1.84603e-10
1.84608e-10
1.84614e-10
1.8462e-10
1.84626e-10
1.84633e-10
1.8464e-10
1.84647e-10
1.84655e-10
1.84663e-10
1.84672e-10
1.84681e-10
1.8469e-10
1.847e-10
1.84711e-10
1.84722e-10
1.84734e-10
1.84747e-10
1.8476e-10
1.84774e-10
1.84789e-10
1.84806e-10
1.84823e-10
1.84841e-10
1.84861e-10
1.84882e-10
1.84904e-10
1.84928e-10
1.84953e-10
1.8498e-10
1.85008e-10
1.85038e-10
1.8507e-10
1.85104e-10
1.8514e-10
1.85178e-10
1.85218e-10
1.8526e-10
1.85305e-10
1.85352e-10
1.85401e-10
1.85452e-10
1.85506e-10
1.85562e-10
1.85621e-10
1.85682e-10
1.85745e-10
1.85811e-10
1.85879e-10
1.85949e-10
1.86022e-10
1.86096e-10
1.86172e-10
1.8625e-10
1.8633e-10
1.86411e-10
1.86493e-10
1.86575e-10
1.86659e-10
1.86742e-10
1.86826e-10
1.86909e-10
1.86991e-10
1.87072e-10
1.87151e-10
1.87228e-10
1.87302e-10
1.87374e-10
1.87442e-10
1.87506e-10
1.87565e-10
1.8762e-10
1.87669e-10
1.87712e-10
1.87749e-10
1.8778e-10
1.87803e-10
1.87818e-10
1.87826e-10
1.87828e-10
1.87829e-10
1.87825e-10
1.87815e-10
1.87781e-10
1.87743e-10
1.87695e-10
1.87644e-10
1.87582e-10
1.87518e-10
1.87444e-10
1.87369e-10
1.87285e-10
1.87202e-10
1.87112e-10
1.87023e-10
1.86929e-10
1.86838e-10
1.86743e-10
1.86653e-10
1.8656e-10
1.86472e-10
1.86384e-10
)
;

boundaryField
{
    inlet
    {
        type            calculated;
        value           uniform -2.74882e-10;
    }
    outlet
    {
        type            calculated;
        value           uniform 1.86302e-10;
    }
    emptyWalls
    {
        type            empty;
        value           nonuniform List<scalar> 0();
    }
}


// ************************************************************************* //
