/*--------------------------------*- C++ -*----------------------------------*\
  =========                 |
  \\      /  F ield         | OpenFOAM: The Open Source CFD Toolbox
   \\    /   O peration     | Website:  https://openfoam.org
    \\  /    A nd           | Version:  9
     \\/     M anipulation  |
\*---------------------------------------------------------------------------*/
FoamFile
{
    format      ascii;
    class       surfaceScalarField;
    location    "6550";
    object      phic;
}
// * * * * * * * * * * * * * * * * * * * * * * * * * * * * * * * * * * * * * //

dimensions      [0 2 0 0 0 0 0];

internalField   nonuniform List<scalar> 
999
(
1.66079e-14
7.26929e-14
1.53761e-13
2.50243e-13
3.57945e-13
5.21508e-13
1.02515e-12
2.68026e-12
1.1011e-11
1.97745e-11
2.14523e-11
2.21947e-11
2.26976e-11
2.31064e-11
2.34594e-11
2.37788e-11
2.40733e-11
2.43549e-11
2.46372e-11
2.49382e-11
2.53e-11
2.57497e-11
2.63212e-11
2.70741e-11
2.80367e-11
2.91797e-11
3.04463e-11
3.17941e-11
3.31983e-11
3.46437e-11
3.61209e-11
3.76236e-11
3.91477e-11
4.06901e-11
4.22485e-11
4.38212e-11
4.54071e-11
4.70051e-11
4.86143e-11
5.0234e-11
5.18636e-11
5.35026e-11
5.51506e-11
5.68073e-11
5.84722e-11
6.01452e-11
6.18259e-11
6.35141e-11
6.52095e-11
6.69119e-11
6.86213e-11
7.03375e-11
7.20602e-11
7.37893e-11
7.55248e-11
7.72664e-11
7.90141e-11
8.07677e-11
8.25272e-11
8.42925e-11
8.60636e-11
8.78402e-11
8.96224e-11
9.14101e-11
9.32033e-11
9.50018e-11
9.68057e-11
9.86148e-11
1.00429e-10
1.02248e-10
1.04073e-10
1.05903e-10
1.07737e-10
1.09576e-10
1.11421e-10
1.1327e-10
1.15123e-10
1.16982e-10
1.18845e-10
1.20713e-10
1.22586e-10
1.24463e-10
1.26345e-10
1.28231e-10
1.30123e-10
1.32018e-10
1.33919e-10
1.35824e-10
1.37734e-10
1.39649e-10
1.41569e-10
1.43493e-10
1.45422e-10
1.47356e-10
1.49295e-10
1.51239e-10
1.53188e-10
1.55142e-10
1.57101e-10
1.59065e-10
1.61034e-10
1.63007e-10
1.64986e-10
1.6697e-10
1.6896e-10
1.70954e-10
1.72953e-10
1.74958e-10
1.76968e-10
1.78983e-10
1.81003e-10
1.83028e-10
1.85059e-10
1.87094e-10
1.89135e-10
1.91181e-10
1.93232e-10
1.95288e-10
1.97349e-10
1.99416e-10
2.01488e-10
2.03565e-10
2.05648e-10
2.07735e-10
2.09827e-10
2.11924e-10
2.14025e-10
2.1613e-10
2.18239e-10
2.20352e-10
2.22467e-10
2.24587e-10
2.26709e-10
2.28835e-10
2.30965e-10
2.33099e-10
2.35238e-10
2.37382e-10
2.39532e-10
2.41689e-10
2.43853e-10
2.46026e-10
2.48209e-10
2.50403e-10
2.52608e-10
2.54826e-10
2.57058e-10
2.59305e-10
2.61567e-10
2.63844e-10
2.66137e-10
2.68445e-10
2.70767e-10
2.73104e-10
2.75454e-10
2.77816e-10
2.80189e-10
2.8257e-10
2.8496e-10
2.87357e-10
2.8976e-10
2.92169e-10
2.94581e-10
2.96998e-10
2.99419e-10
3.01844e-10
3.04273e-10
3.06707e-10
3.09147e-10
3.11591e-10
3.14043e-10
3.16501e-10
3.18968e-10
3.21443e-10
3.23927e-10
3.26421e-10
3.28926e-10
3.31442e-10
3.33969e-10
3.36508e-10
3.3906e-10
3.41625e-10
3.44202e-10
3.46793e-10
3.49398e-10
3.52016e-10
3.54648e-10
3.57294e-10
3.59954e-10
3.62628e-10
3.65317e-10
3.68021e-10
3.7074e-10
3.73474e-10
3.76223e-10
3.78987e-10
3.81768e-10
3.84563e-10
3.87376e-10
3.90205e-10
3.93051e-10
3.95914e-10
3.98794e-10
4.01692e-10
4.04608e-10
4.07543e-10
4.10496e-10
4.13469e-10
4.1646e-10
4.19472e-10
4.22504e-10
4.25556e-10
4.2863e-10
4.31725e-10
4.34843e-10
4.37983e-10
4.41147e-10
4.44335e-10
4.47546e-10
4.50783e-10
4.54045e-10
4.57333e-10
4.60647e-10
4.63988e-10
4.67358e-10
4.70756e-10
4.74184e-10
4.77641e-10
4.81128e-10
4.84645e-10
4.88193e-10
4.91771e-10
4.95381e-10
4.99021e-10
5.0269e-10
5.06388e-10
5.10112e-10
5.13858e-10
5.17621e-10
5.21397e-10
5.25177e-10
5.28952e-10
5.32707e-10
5.36426e-10
5.40089e-10
5.43674e-10
5.47157e-10
5.50512e-10
5.53715e-10
5.56747e-10
5.59597e-10
5.62278e-10
5.64834e-10
5.6737e-10
5.7009e-10
5.73364e-10
5.77845e-10
5.8464e-10
5.95555e-10
6.1328e-10
6.41224e-10
6.82301e-10
7.36247e-10
7.9702e-10
8.54213e-10
8.99171e-10
9.29496e-10
9.47789e-10
9.58059e-10
9.63582e-10
9.66482e-10
9.67982e-10
9.6875e-10
9.69137e-10
9.69328e-10
9.69419e-10
9.69458e-10
9.69472e-10
9.69471e-10
9.69463e-10
9.69452e-10
9.69439e-10
9.69426e-10
9.69411e-10
9.69397e-10
9.69382e-10
9.69367e-10
9.69352e-10
9.69337e-10
9.69322e-10
9.69306e-10
9.6929e-10
9.69274e-10
9.69257e-10
9.6924e-10
9.69222e-10
9.69204e-10
9.69185e-10
9.69165e-10
9.69144e-10
9.69122e-10
9.69098e-10
9.69073e-10
9.69046e-10
9.69017e-10
9.68986e-10
9.68952e-10
9.68916e-10
9.68876e-10
9.68833e-10
9.68787e-10
9.68737e-10
9.68682e-10
9.68623e-10
9.6856e-10
9.68493e-10
9.68422e-10
9.68346e-10
9.68266e-10
9.68182e-10
9.68095e-10
9.68005e-10
9.67913e-10
9.67819e-10
9.67723e-10
9.67627e-10
9.67532e-10
9.67438e-10
9.67347e-10
9.6726e-10
9.67177e-10
9.67101e-10
9.67031e-10
9.66971e-10
9.6692e-10
9.6688e-10
9.66851e-10
9.66836e-10
9.6683e-10
9.6683e-10
9.66831e-10
9.66846e-10
9.66898e-10
9.66957e-10
9.67028e-10
9.6711e-10
9.67201e-10
9.67301e-10
9.67408e-10
9.6752e-10
9.67637e-10
9.67756e-10
9.67875e-10
9.67994e-10
9.68111e-10
9.68224e-10
9.68333e-10
9.68435e-10
9.68531e-10
9.6862e-10
9.687e-10
9.68773e-10
9.68836e-10
9.68892e-10
9.68939e-10
9.68978e-10
9.6901e-10
9.69035e-10
9.69053e-10
9.69066e-10
9.69073e-10
9.69077e-10
9.69078e-10
9.69078e-10
9.69076e-10
9.69065e-10
9.69054e-10
9.69043e-10
9.69031e-10
9.69019e-10
9.69008e-10
9.68997e-10
9.68988e-10
9.6898e-10
9.68973e-10
9.68968e-10
9.68964e-10
9.68962e-10
9.68962e-10
9.68962e-10
9.68963e-10
9.68965e-10
9.68972e-10
9.68981e-10
9.6899e-10
9.69001e-10
9.69013e-10
9.69027e-10
9.69042e-10
9.69058e-10
9.69074e-10
9.69092e-10
9.6911e-10
9.69129e-10
9.69149e-10
9.69169e-10
9.69189e-10
9.6921e-10
9.69231e-10
9.69253e-10
9.69274e-10
9.69295e-10
9.69317e-10
9.69338e-10
9.69359e-10
9.6938e-10
9.694e-10
9.69421e-10
9.69441e-10
9.6946e-10
9.69479e-10
9.69498e-10
9.69516e-10
9.69534e-10
9.69551e-10
9.69567e-10
9.69583e-10
9.69598e-10
9.69613e-10
9.69627e-10
9.69641e-10
9.69654e-10
9.69666e-10
9.69678e-10
9.69689e-10
9.697e-10
9.6971e-10
9.6972e-10
9.69729e-10
9.69738e-10
9.69747e-10
9.69755e-10
9.69762e-10
9.6977e-10
9.69776e-10
9.69783e-10
9.6979e-10
9.69796e-10
9.69802e-10
9.69807e-10
9.69813e-10
9.69818e-10
9.69823e-10
9.69828e-10
9.69832e-10
9.69837e-10
9.69841e-10
9.69844e-10
9.69848e-10
9.69851e-10
9.69853e-10
9.69856e-10
9.69857e-10
9.69859e-10
9.6986e-10
9.69861e-10
9.69861e-10
9.69861e-10
9.6986e-10
9.69859e-10
9.69857e-10
9.69854e-10
9.69851e-10
9.69847e-10
9.69842e-10
9.69836e-10
9.6983e-10
9.69823e-10
9.69816e-10
9.69807e-10
9.69798e-10
9.69789e-10
9.69778e-10
9.69767e-10
9.69756e-10
9.69744e-10
9.69731e-10
9.69717e-10
9.69704e-10
9.69689e-10
9.69674e-10
9.69659e-10
9.69643e-10
9.69626e-10
9.6961e-10
9.69592e-10
9.69574e-10
9.69556e-10
9.69538e-10
9.69518e-10
9.69499e-10
9.69478e-10
9.69457e-10
9.69435e-10
9.69413e-10
9.6939e-10
9.69366e-10
9.69341e-10
9.69315e-10
9.69287e-10
9.69259e-10
9.69228e-10
9.69197e-10
9.69163e-10
9.69127e-10
9.69089e-10
9.69049e-10
9.69007e-10
9.68962e-10
9.68915e-10
9.68865e-10
9.68812e-10
9.68756e-10
9.68698e-10
9.68637e-10
9.68573e-10
9.68506e-10
9.68436e-10
9.68364e-10
9.6829e-10
9.68214e-10
9.68137e-10
9.68058e-10
9.67978e-10
9.67897e-10
9.67817e-10
9.67737e-10
9.67658e-10
9.67581e-10
9.67506e-10
9.67435e-10
9.67367e-10
9.67304e-10
9.67246e-10
9.67193e-10
9.67147e-10
9.67108e-10
9.67077e-10
9.67054e-10
9.6704e-10
9.67034e-10
9.67032e-10
9.67033e-10
9.6704e-10
9.67067e-10
9.67106e-10
9.67153e-10
9.67208e-10
9.6727e-10
9.6734e-10
9.67415e-10
9.67494e-10
9.67578e-10
9.67665e-10
9.67753e-10
9.67842e-10
9.67932e-10
9.6802e-10
9.68106e-10
9.68189e-10
9.68269e-10
9.68345e-10
9.68417e-10
9.68483e-10
9.68545e-10
9.68601e-10
9.68652e-10
9.68697e-10
9.68738e-10
9.68773e-10
9.68803e-10
9.68829e-10
9.6885e-10
9.68868e-10
9.68882e-10
9.68893e-10
9.68901e-10
9.68906e-10
9.6891e-10
9.68912e-10
9.68913e-10
9.68913e-10
9.68913e-10
9.68913e-10
9.6891e-10
9.68909e-10
9.68907e-10
9.68906e-10
9.68906e-10
9.68906e-10
9.68906e-10
9.68907e-10
9.6891e-10
9.68914e-10
9.68919e-10
9.68925e-10
9.68933e-10
9.68941e-10
9.68951e-10
9.68961e-10
9.68973e-10
9.68985e-10
9.68998e-10
9.69013e-10
9.69028e-10
9.69043e-10
9.69059e-10
9.69076e-10
9.69094e-10
9.69112e-10
9.6913e-10
9.69149e-10
9.69168e-10
9.69188e-10
9.69208e-10
9.69228e-10
9.69248e-10
9.69268e-10
9.69289e-10
9.69309e-10
9.6933e-10
9.6935e-10
9.69371e-10
9.69391e-10
9.69411e-10
9.69431e-10
9.69451e-10
9.6947e-10
9.69489e-10
9.69508e-10
9.69526e-10
9.69543e-10
9.69561e-10
9.69577e-10
9.69594e-10
9.69609e-10
9.69625e-10
9.69639e-10
9.69653e-10
9.69666e-10
9.69678e-10
9.6969e-10
9.69702e-10
9.69712e-10
9.69722e-10
9.69732e-10
9.69741e-10
9.69749e-10
9.69756e-10
9.69763e-10
9.6977e-10
9.69776e-10
9.69781e-10
9.69786e-10
9.6979e-10
9.69794e-10
9.69797e-10
9.698e-10
9.69803e-10
9.69805e-10
9.69808e-10
9.69809e-10
9.6981e-10
9.69811e-10
9.69812e-10
9.69812e-10
9.69812e-10
9.69812e-10
9.69812e-10
9.69812e-10
9.69811e-10
9.69809e-10
9.69808e-10
9.69805e-10
9.69803e-10
9.698e-10
9.69797e-10
9.69793e-10
9.69789e-10
9.69784e-10
9.69779e-10
9.69774e-10
9.69767e-10
9.6976e-10
9.69753e-10
9.69744e-10
9.69735e-10
9.69726e-10
9.69715e-10
9.69704e-10
9.69692e-10
9.6968e-10
9.69666e-10
9.69651e-10
9.69636e-10
9.6962e-10
9.69603e-10
9.69585e-10
9.69565e-10
9.69545e-10
9.69524e-10
9.69502e-10
9.69479e-10
9.69455e-10
9.69429e-10
9.69403e-10
9.69375e-10
9.69346e-10
9.69316e-10
9.69284e-10
9.69251e-10
9.69217e-10
9.69181e-10
9.69144e-10
9.69105e-10
9.69065e-10
9.69022e-10
9.68978e-10
9.68932e-10
9.68884e-10
9.68834e-10
9.68783e-10
9.68729e-10
9.68673e-10
9.68616e-10
9.68556e-10
9.68495e-10
9.68432e-10
9.68367e-10
9.68301e-10
9.68234e-10
9.68165e-10
9.68095e-10
9.68025e-10
9.67955e-10
9.67884e-10
9.67813e-10
9.67744e-10
9.67675e-10
9.67608e-10
9.67542e-10
9.6748e-10
9.67419e-10
9.67363e-10
9.6731e-10
9.67261e-10
9.67217e-10
9.67178e-10
9.67144e-10
9.67117e-10
9.67097e-10
9.67083e-10
9.67077e-10
9.67075e-10
9.67075e-10
9.67078e-10
9.67094e-10
9.67122e-10
9.67158e-10
9.67201e-10
9.6725e-10
9.67306e-10
9.67367e-10
9.67432e-10
9.67503e-10
9.67576e-10
9.67653e-10
9.67732e-10
9.67812e-10
9.67893e-10
9.67974e-10
9.68054e-10
9.68133e-10
9.6821e-10
9.68285e-10
9.68357e-10
9.68425e-10
9.6849e-10
9.68552e-10
9.68609e-10
9.68662e-10
9.68712e-10
9.68757e-10
9.68798e-10
9.68836e-10
9.68869e-10
9.689e-10
9.68927e-10
9.68951e-10
9.68972e-10
9.6899e-10
9.69007e-10
9.69021e-10
9.69034e-10
9.69045e-10
9.69054e-10
9.69063e-10
9.69071e-10
9.69078e-10
9.69085e-10
9.69092e-10
9.69098e-10
9.69105e-10
9.69111e-10
9.69118e-10
9.69125e-10
9.69133e-10
9.69141e-10
9.69149e-10
9.69158e-10
9.69167e-10
9.69176e-10
9.69187e-10
9.69197e-10
9.69208e-10
9.69219e-10
9.69231e-10
9.69244e-10
9.69256e-10
9.69269e-10
9.69282e-10
9.69295e-10
9.69309e-10
9.69323e-10
9.69337e-10
9.69351e-10
9.69365e-10
9.6938e-10
9.69394e-10
9.69409e-10
9.69423e-10
9.69438e-10
9.69452e-10
9.69467e-10
9.69481e-10
9.69496e-10
9.6951e-10
9.69525e-10
9.69539e-10
9.69553e-10
9.69567e-10
9.69581e-10
9.69595e-10
9.69609e-10
9.69623e-10
9.69636e-10
9.69649e-10
9.69662e-10
9.69675e-10
9.69687e-10
9.69699e-10
9.69711e-10
9.69723e-10
9.69734e-10
9.69745e-10
9.69755e-10
9.69765e-10
9.69775e-10
9.69784e-10
9.69792e-10
9.69801e-10
9.69809e-10
9.69816e-10
9.69823e-10
9.69829e-10
9.69835e-10
9.6984e-10
9.69844e-10
9.69848e-10
9.69852e-10
9.69855e-10
9.69858e-10
9.6986e-10
9.69862e-10
9.69863e-10
9.69864e-10
9.69864e-10
9.69864e-10
9.69864e-10
9.69863e-10
9.69862e-10
9.6986e-10
9.69857e-10
9.69855e-10
9.69852e-10
9.69849e-10
9.69845e-10
9.69842e-10
9.69837e-10
9.69833e-10
9.69828e-10
9.69823e-10
9.69818e-10
9.69813e-10
9.69807e-10
9.69801e-10
9.69794e-10
9.69787e-10
9.6978e-10
9.69773e-10
9.69765e-10
9.69757e-10
9.69748e-10
9.69738e-10
9.69728e-10
9.69718e-10
9.69706e-10
9.69694e-10
9.69682e-10
9.69668e-10
9.69654e-10
9.69638e-10
9.69622e-10
9.69604e-10
9.69585e-10
9.69566e-10
9.69544e-10
9.69522e-10
9.69498e-10
9.69473e-10
9.69446e-10
9.69418e-10
9.69388e-10
9.69356e-10
9.69323e-10
9.69288e-10
9.69251e-10
9.69212e-10
9.69171e-10
9.69129e-10
9.69085e-10
9.69038e-10
9.6899e-10
9.6894e-10
9.68888e-10
9.68835e-10
9.6878e-10
9.68723e-10
9.68664e-10
9.68604e-10
9.68542e-10
9.6848e-10
9.68416e-10
9.68352e-10
9.68287e-10
9.68221e-10
9.68155e-10
9.6809e-10
9.68024e-10
9.6796e-10
9.67896e-10
9.67834e-10
9.67773e-10
9.67715e-10
9.67658e-10
9.67605e-10
9.67554e-10
9.67508e-10
9.67465e-10
9.67426e-10
9.67392e-10
9.67363e-10
9.6734e-10
9.67321e-10
9.67309e-10
9.67303e-10
9.67301e-10
9.67301e-10
9.67304e-10
9.67312e-10
9.67338e-10
9.67369e-10
9.67406e-10
9.67447e-10
9.67495e-10
9.67546e-10
9.67604e-10
9.67664e-10
9.67729e-10
9.67795e-10
9.67866e-10
9.67936e-10
9.6801e-10
9.68081e-10
9.68156e-10
9.68227e-10
9.68301e-10
9.68369e-10
9.68439e-10
)
;

boundaryField
{
    inlet
    {
        type            calculated;
        value           uniform 0;
    }
    outlet
    {
        type            calculated;
        value           uniform 9.68504e-10;
    }
    emptyWalls
    {
        type            empty;
        value           nonuniform List<scalar> 0();
    }
}


// ************************************************************************* //
