/*--------------------------------*- C++ -*----------------------------------*\
  =========                 |
  \\      /  F ield         | OpenFOAM: The Open Source CFD Toolbox
   \\    /   O peration     | Website:  https://openfoam.org
    \\  /    A nd           | Version:  9
     \\/     M anipulation  |
\*---------------------------------------------------------------------------*/
FoamFile
{
    format      ascii;
    class       volVectorField;
    location    "6550";
    object      Uc;
}
// * * * * * * * * * * * * * * * * * * * * * * * * * * * * * * * * * * * * * //

dimensions      [0 0 0 0 0 0 0];

internalField   nonuniform List<vector> 
1000
(
(8.30397e-11 0 0)
(4.46504e-10 0 0)
(1.13227e-09 0 0)
(2.02002e-09 0 0)
(3.04094e-09 0 0)
(4.39726e-09 0 0)
(7.73329e-09 0 0)
(1.85271e-08 0 0)
(6.84565e-08 0 0)
(1.53928e-07 0 0)
(2.06134e-07 0 0)
(2.18235e-07 0 0)
(2.24462e-07 0 0)
(2.2902e-07 0 0)
(2.32829e-07 0 0)
(2.36191e-07 0 0)
(2.39261e-07 0 0)
(2.42141e-07 0 0)
(2.4496e-07 0 0)
(2.47877e-07 0 0)
(2.51191e-07 0 0)
(2.55248e-07 0 0)
(2.60354e-07 0 0)
(2.66976e-07 0 0)
(2.75554e-07 0 0)
(2.86082e-07 0 0)
(2.9813e-07 0 0)
(3.11202e-07 0 0)
(3.24962e-07 0 0)
(3.3921e-07 0 0)
(3.53823e-07 0 0)
(3.68722e-07 0 0)
(3.83857e-07 0 0)
(3.99189e-07 0 0)
(4.14693e-07 0 0)
(4.30348e-07 0 0)
(4.46142e-07 0 0)
(4.62061e-07 0 0)
(4.78097e-07 0 0)
(4.94241e-07 0 0)
(5.10488e-07 0 0)
(5.26831e-07 0 0)
(5.43266e-07 0 0)
(5.59789e-07 0 0)
(5.76397e-07 0 0)
(5.93087e-07 0 0)
(6.09855e-07 0 0)
(6.267e-07 0 0)
(6.43618e-07 0 0)
(6.60607e-07 0 0)
(6.77666e-07 0 0)
(6.94794e-07 0 0)
(7.11988e-07 0 0)
(7.29248e-07 0 0)
(7.4657e-07 0 0)
(7.63956e-07 0 0)
(7.81402e-07 0 0)
(7.98909e-07 0 0)
(8.16474e-07 0 0)
(8.34098e-07 0 0)
(8.5178e-07 0 0)
(8.69519e-07 0 0)
(8.87313e-07 0 0)
(9.05163e-07 0 0)
(9.23067e-07 0 0)
(9.41026e-07 0 0)
(9.59038e-07 0 0)
(9.77102e-07 0 0)
(9.95219e-07 0 0)
(1.01339e-06 0 0)
(1.03161e-06 0 0)
(1.04988e-06 0 0)
(1.0682e-06 0 0)
(1.08657e-06 0 0)
(1.10498e-06 0 0)
(1.12345e-06 0 0)
(1.14197e-06 0 0)
(1.16053e-06 0 0)
(1.17914e-06 0 0)
(1.19779e-06 0 0)
(1.21649e-06 0 0)
(1.23524e-06 0 0)
(1.25404e-06 0 0)
(1.27288e-06 0 0)
(1.29177e-06 0 0)
(1.31071e-06 0 0)
(1.32969e-06 0 0)
(1.34872e-06 0 0)
(1.36779e-06 0 0)
(1.38692e-06 0 0)
(1.40609e-06 0 0)
(1.42531e-06 0 0)
(1.44458e-06 0 0)
(1.46389e-06 0 0)
(1.48326e-06 0 0)
(1.50267e-06 0 0)
(1.52214e-06 0 0)
(1.54165e-06 0 0)
(1.56122e-06 0 0)
(1.58083e-06 0 0)
(1.60049e-06 0 0)
(1.62021e-06 0 0)
(1.63997e-06 0 0)
(1.65978e-06 0 0)
(1.67965e-06 0 0)
(1.69957e-06 0 0)
(1.71954e-06 0 0)
(1.73956e-06 0 0)
(1.75963e-06 0 0)
(1.77975e-06 0 0)
(1.79993e-06 0 0)
(1.82016e-06 0 0)
(1.84044e-06 0 0)
(1.86077e-06 0 0)
(1.88115e-06 0 0)
(1.90158e-06 0 0)
(1.92206e-06 0 0)
(1.9426e-06 0 0)
(1.96318e-06 0 0)
(1.98382e-06 0 0)
(2.00452e-06 0 0)
(2.02526e-06 0 0)
(2.04606e-06 0 0)
(2.06691e-06 0 0)
(2.08781e-06 0 0)
(2.10876e-06 0 0)
(2.12975e-06 0 0)
(2.15078e-06 0 0)
(2.17185e-06 0 0)
(2.19295e-06 0 0)
(2.21409e-06 0 0)
(2.23527e-06 0 0)
(2.25648e-06 0 0)
(2.27772e-06 0 0)
(2.299e-06 0 0)
(2.32032e-06 0 0)
(2.34169e-06 0 0)
(2.3631e-06 0 0)
(2.38457e-06 0 0)
(2.4061e-06 0 0)
(2.42771e-06 0 0)
(2.4494e-06 0 0)
(2.47118e-06 0 0)
(2.49306e-06 0 0)
(2.51505e-06 0 0)
(2.53717e-06 0 0)
(2.55942e-06 0 0)
(2.58182e-06 0 0)
(2.60436e-06 0 0)
(2.62705e-06 0 0)
(2.6499e-06 0 0)
(2.67291e-06 0 0)
(2.69606e-06 0 0)
(2.71936e-06 0 0)
(2.74279e-06 0 0)
(2.76635e-06 0 0)
(2.79002e-06 0 0)
(2.81379e-06 0 0)
(2.83765e-06 0 0)
(2.86159e-06 0 0)
(2.88559e-06 0 0)
(2.90965e-06 0 0)
(2.93375e-06 0 0)
(2.9579e-06 0 0)
(2.98209e-06 0 0)
(3.00632e-06 0 0)
(3.03059e-06 0 0)
(3.0549e-06 0 0)
(3.07927e-06 0 0)
(3.10369e-06 0 0)
(3.12817e-06 0 0)
(3.15272e-06 0 0)
(3.17734e-06 0 0)
(3.20205e-06 0 0)
(3.22685e-06 0 0)
(3.25174e-06 0 0)
(3.27673e-06 0 0)
(3.30184e-06 0 0)
(3.32705e-06 0 0)
(3.35239e-06 0 0)
(3.37784e-06 0 0)
(3.40342e-06 0 0)
(3.42914e-06 0 0)
(3.45498e-06 0 0)
(3.48096e-06 0 0)
(3.50707e-06 0 0)
(3.53332e-06 0 0)
(3.55971e-06 0 0)
(3.58624e-06 0 0)
(3.61291e-06 0 0)
(3.63973e-06 0 0)
(3.66669e-06 0 0)
(3.69381e-06 0 0)
(3.72107e-06 0 0)
(3.74848e-06 0 0)
(3.77605e-06 0 0)
(3.80378e-06 0 0)
(3.83166e-06 0 0)
(3.8597e-06 0 0)
(3.8879e-06 0 0)
(3.91628e-06 0 0)
(3.94482e-06 0 0)
(3.97354e-06 0 0)
(4.00243e-06 0 0)
(4.0315e-06 0 0)
(4.06075e-06 0 0)
(4.09019e-06 0 0)
(4.11982e-06 0 0)
(4.14964e-06 0 0)
(4.17966e-06 0 0)
(4.20988e-06 0 0)
(4.2403e-06 0 0)
(4.27093e-06 0 0)
(4.30178e-06 0 0)
(4.33284e-06 0 0)
(4.36413e-06 0 0)
(4.39565e-06 0 0)
(4.42741e-06 0 0)
(4.45941e-06 0 0)
(4.49165e-06 0 0)
(4.52414e-06 0 0)
(4.55689e-06 0 0)
(4.5899e-06 0 0)
(4.62318e-06 0 0)
(4.65673e-06 0 0)
(4.69057e-06 0 0)
(4.7247e-06 0 0)
(4.75912e-06 0 0)
(4.79384e-06 0 0)
(4.82886e-06 0 0)
(4.86419e-06 0 0)
(4.89982e-06 0 0)
(4.93576e-06 0 0)
(4.97201e-06 0 0)
(5.00855e-06 0 0)
(5.04539e-06 0 0)
(5.0825e-06 0 0)
(5.11985e-06 0 0)
(5.15739e-06 0 0)
(5.19509e-06 0 0)
(5.23287e-06 0 0)
(5.27065e-06 0 0)
(5.30829e-06 0 0)
(5.34566e-06 0 0)
(5.38257e-06 0 0)
(5.41881e-06 0 0)
(5.45415e-06 0 0)
(5.48835e-06 0 0)
(5.52114e-06 0 0)
(5.55231e-06 0 0)
(5.58172e-06 0 0)
(5.60937e-06 0 0)
(5.63556e-06 0 0)
(5.66102e-06 0 0)
(5.6873e-06 0 0)
(5.71727e-06 0 0)
(5.75604e-06 0 0)
(5.81242e-06 0 0)
(5.90097e-06 0 0)
(6.04417e-06 0 0)
(6.27252e-06 0 0)
(6.61762e-06 0 0)
(7.09274e-06 0 0)
(7.66633e-06 0 0)
(8.25616e-06 0 0)
(8.76692e-06 0 0)
(9.14334e-06 0 0)
(9.38643e-06 0 0)
(9.52924e-06 0 0)
(9.6082e-06 0 0)
(9.65032e-06 0 0)
(9.67232e-06 0 0)
(9.68366e-06 0 0)
(9.68943e-06 0 0)
(9.69233e-06 0 0)
(9.69374e-06 0 0)
(9.69439e-06 0 0)
(9.69465e-06 0 0)
(9.69471e-06 0 0)
(9.69467e-06 0 0)
(9.69458e-06 0 0)
(9.69446e-06 0 0)
(9.69433e-06 0 0)
(9.69418e-06 0 0)
(9.69404e-06 0 0)
(9.69389e-06 0 0)
(9.69374e-06 0 0)
(9.6936e-06 0 0)
(9.69345e-06 0 0)
(9.69329e-06 0 0)
(9.69314e-06 0 0)
(9.69298e-06 0 0)
(9.69282e-06 0 0)
(9.69266e-06 0 0)
(9.69249e-06 0 0)
(9.69231e-06 0 0)
(9.69213e-06 0 0)
(9.69194e-06 0 0)
(9.69175e-06 0 0)
(9.69154e-06 0 0)
(9.69133e-06 0 0)
(9.6911e-06 0 0)
(9.69086e-06 0 0)
(9.6906e-06 0 0)
(9.69032e-06 0 0)
(9.69002e-06 0 0)
(9.68969e-06 0 0)
(9.68934e-06 0 0)
(9.68896e-06 0 0)
(9.68855e-06 0 0)
(9.6881e-06 0 0)
(9.68762e-06 0 0)
(9.68709e-06 0 0)
(9.68653e-06 0 0)
(9.68592e-06 0 0)
(9.68527e-06 0 0)
(9.68457e-06 0 0)
(9.68384e-06 0 0)
(9.68306e-06 0 0)
(9.68224e-06 0 0)
(9.68139e-06 0 0)
(9.6805e-06 0 0)
(9.67959e-06 0 0)
(9.67866e-06 0 0)
(9.67771e-06 0 0)
(9.67675e-06 0 0)
(9.6758e-06 0 0)
(9.67485e-06 0 0)
(9.67393e-06 0 0)
(9.67303e-06 0 0)
(9.67218e-06 0 0)
(9.67139e-06 0 0)
(9.67066e-06 0 0)
(9.67001e-06 0 0)
(9.66945e-06 0 0)
(9.669e-06 0 0)
(9.66866e-06 0 0)
(9.66844e-06 0 0)
(9.66833e-06 0 0)
(9.6683e-06 0 0)
(9.66831e-06 0 0)
(9.66839e-06 0 0)
(9.66872e-06 0 0)
(9.66927e-06 0 0)
(9.66992e-06 0 0)
(9.67069e-06 0 0)
(9.67156e-06 0 0)
(9.67251e-06 0 0)
(9.67355e-06 0 0)
(9.67464e-06 0 0)
(9.67579e-06 0 0)
(9.67696e-06 0 0)
(9.67815e-06 0 0)
(9.67935e-06 0 0)
(9.68053e-06 0 0)
(9.68168e-06 0 0)
(9.68278e-06 0 0)
(9.68384e-06 0 0)
(9.68483e-06 0 0)
(9.68576e-06 0 0)
(9.6866e-06 0 0)
(9.68736e-06 0 0)
(9.68804e-06 0 0)
(9.68864e-06 0 0)
(9.68915e-06 0 0)
(9.68959e-06 0 0)
(9.68994e-06 0 0)
(9.69022e-06 0 0)
(9.69044e-06 0 0)
(9.6906e-06 0 0)
(9.6907e-06 0 0)
(9.69075e-06 0 0)
(9.69077e-06 0 0)
(9.69078e-06 0 0)
(9.69077e-06 0 0)
(9.6907e-06 0 0)
(9.6906e-06 0 0)
(9.69049e-06 0 0)
(9.69037e-06 0 0)
(9.69025e-06 0 0)
(9.69014e-06 0 0)
(9.69003e-06 0 0)
(9.68993e-06 0 0)
(9.68984e-06 0 0)
(9.68976e-06 0 0)
(9.6897e-06 0 0)
(9.68966e-06 0 0)
(9.68963e-06 0 0)
(9.68962e-06 0 0)
(9.68962e-06 0 0)
(9.68962e-06 0 0)
(9.68964e-06 0 0)
(9.68969e-06 0 0)
(9.68976e-06 0 0)
(9.68985e-06 0 0)
(9.68996e-06 0 0)
(9.69007e-06 0 0)
(9.6902e-06 0 0)
(9.69034e-06 0 0)
(9.6905e-06 0 0)
(9.69066e-06 0 0)
(9.69083e-06 0 0)
(9.69101e-06 0 0)
(9.6912e-06 0 0)
(9.69139e-06 0 0)
(9.69159e-06 0 0)
(9.69179e-06 0 0)
(9.692e-06 0 0)
(9.69221e-06 0 0)
(9.69242e-06 0 0)
(9.69263e-06 0 0)
(9.69285e-06 0 0)
(9.69306e-06 0 0)
(9.69327e-06 0 0)
(9.69348e-06 0 0)
(9.69369e-06 0 0)
(9.6939e-06 0 0)
(9.69411e-06 0 0)
(9.69431e-06 0 0)
(9.69451e-06 0 0)
(9.6947e-06 0 0)
(9.69489e-06 0 0)
(9.69507e-06 0 0)
(9.69525e-06 0 0)
(9.69542e-06 0 0)
(9.69559e-06 0 0)
(9.69575e-06 0 0)
(9.69591e-06 0 0)
(9.69606e-06 0 0)
(9.6962e-06 0 0)
(9.69634e-06 0 0)
(9.69647e-06 0 0)
(9.6966e-06 0 0)
(9.69672e-06 0 0)
(9.69683e-06 0 0)
(9.69694e-06 0 0)
(9.69705e-06 0 0)
(9.69715e-06 0 0)
(9.69724e-06 0 0)
(9.69734e-06 0 0)
(9.69742e-06 0 0)
(9.69751e-06 0 0)
(9.69758e-06 0 0)
(9.69766e-06 0 0)
(9.69773e-06 0 0)
(9.6978e-06 0 0)
(9.69786e-06 0 0)
(9.69793e-06 0 0)
(9.69799e-06 0 0)
(9.69805e-06 0 0)
(9.6981e-06 0 0)
(9.69816e-06 0 0)
(9.69821e-06 0 0)
(9.69825e-06 0 0)
(9.6983e-06 0 0)
(9.69834e-06 0 0)
(9.69839e-06 0 0)
(9.69842e-06 0 0)
(9.69846e-06 0 0)
(9.69849e-06 0 0)
(9.69852e-06 0 0)
(9.69854e-06 0 0)
(9.69857e-06 0 0)
(9.69858e-06 0 0)
(9.69859e-06 0 0)
(9.6986e-06 0 0)
(9.69861e-06 0 0)
(9.69861e-06 0 0)
(9.69861e-06 0 0)
(9.6986e-06 0 0)
(9.69858e-06 0 0)
(9.69856e-06 0 0)
(9.69852e-06 0 0)
(9.69849e-06 0 0)
(9.69844e-06 0 0)
(9.69839e-06 0 0)
(9.69833e-06 0 0)
(9.69827e-06 0 0)
(9.69819e-06 0 0)
(9.69811e-06 0 0)
(9.69803e-06 0 0)
(9.69793e-06 0 0)
(9.69783e-06 0 0)
(9.69773e-06 0 0)
(9.69762e-06 0 0)
(9.6975e-06 0 0)
(9.69737e-06 0 0)
(9.69724e-06 0 0)
(9.69711e-06 0 0)
(9.69696e-06 0 0)
(9.69682e-06 0 0)
(9.69666e-06 0 0)
(9.69651e-06 0 0)
(9.69635e-06 0 0)
(9.69618e-06 0 0)
(9.69601e-06 0 0)
(9.69583e-06 0 0)
(9.69565e-06 0 0)
(9.69547e-06 0 0)
(9.69528e-06 0 0)
(9.69508e-06 0 0)
(9.69488e-06 0 0)
(9.69468e-06 0 0)
(9.69446e-06 0 0)
(9.69424e-06 0 0)
(9.69401e-06 0 0)
(9.69378e-06 0 0)
(9.69353e-06 0 0)
(9.69328e-06 0 0)
(9.69301e-06 0 0)
(9.69273e-06 0 0)
(9.69244e-06 0 0)
(9.69212e-06 0 0)
(9.6918e-06 0 0)
(9.69145e-06 0 0)
(9.69108e-06 0 0)
(9.69069e-06 0 0)
(9.69028e-06 0 0)
(9.68984e-06 0 0)
(9.68938e-06 0 0)
(9.6889e-06 0 0)
(9.68838e-06 0 0)
(9.68784e-06 0 0)
(9.68727e-06 0 0)
(9.68667e-06 0 0)
(9.68605e-06 0 0)
(9.68539e-06 0 0)
(9.68471e-06 0 0)
(9.684e-06 0 0)
(9.68327e-06 0 0)
(9.68252e-06 0 0)
(9.68176e-06 0 0)
(9.68097e-06 0 0)
(9.68018e-06 0 0)
(9.67938e-06 0 0)
(9.67857e-06 0 0)
(9.67777e-06 0 0)
(9.67698e-06 0 0)
(9.6762e-06 0 0)
(9.67544e-06 0 0)
(9.67471e-06 0 0)
(9.67401e-06 0 0)
(9.67335e-06 0 0)
(9.67275e-06 0 0)
(9.67219e-06 0 0)
(9.6717e-06 0 0)
(9.67128e-06 0 0)
(9.67093e-06 0 0)
(9.67065e-06 0 0)
(9.67047e-06 0 0)
(9.67037e-06 0 0)
(9.67033e-06 0 0)
(9.67033e-06 0 0)
(9.67036e-06 0 0)
(9.67053e-06 0 0)
(9.67086e-06 0 0)
(9.67129e-06 0 0)
(9.6718e-06 0 0)
(9.67239e-06 0 0)
(9.67305e-06 0 0)
(9.67377e-06 0 0)
(9.67455e-06 0 0)
(9.67536e-06 0 0)
(9.67621e-06 0 0)
(9.67709e-06 0 0)
(9.67798e-06 0 0)
(9.67887e-06 0 0)
(9.67976e-06 0 0)
(9.68063e-06 0 0)
(9.68148e-06 0 0)
(9.68229e-06 0 0)
(9.68307e-06 0 0)
(9.68381e-06 0 0)
(9.6845e-06 0 0)
(9.68514e-06 0 0)
(9.68573e-06 0 0)
(9.68627e-06 0 0)
(9.68675e-06 0 0)
(9.68718e-06 0 0)
(9.68755e-06 0 0)
(9.68788e-06 0 0)
(9.68816e-06 0 0)
(9.6884e-06 0 0)
(9.68859e-06 0 0)
(9.68875e-06 0 0)
(9.68887e-06 0 0)
(9.68897e-06 0 0)
(9.68903e-06 0 0)
(9.68908e-06 0 0)
(9.68911e-06 0 0)
(9.68913e-06 0 0)
(9.68913e-06 0 0)
(9.68913e-06 0 0)
(9.68913e-06 0 0)
(9.68911e-06 0 0)
(9.68909e-06 0 0)
(9.68908e-06 0 0)
(9.68907e-06 0 0)
(9.68906e-06 0 0)
(9.68906e-06 0 0)
(9.68906e-06 0 0)
(9.68906e-06 0 0)
(9.68908e-06 0 0)
(9.68912e-06 0 0)
(9.68917e-06 0 0)
(9.68922e-06 0 0)
(9.68929e-06 0 0)
(9.68937e-06 0 0)
(9.68946e-06 0 0)
(9.68956e-06 0 0)
(9.68967e-06 0 0)
(9.68979e-06 0 0)
(9.68992e-06 0 0)
(9.69006e-06 0 0)
(9.6902e-06 0 0)
(9.69035e-06 0 0)
(9.69051e-06 0 0)
(9.69068e-06 0 0)
(9.69085e-06 0 0)
(9.69103e-06 0 0)
(9.69121e-06 0 0)
(9.69139e-06 0 0)
(9.69158e-06 0 0)
(9.69178e-06 0 0)
(9.69198e-06 0 0)
(9.69218e-06 0 0)
(9.69238e-06 0 0)
(9.69258e-06 0 0)
(9.69279e-06 0 0)
(9.69299e-06 0 0)
(9.6932e-06 0 0)
(9.6934e-06 0 0)
(9.69361e-06 0 0)
(9.69381e-06 0 0)
(9.69401e-06 0 0)
(9.69421e-06 0 0)
(9.69441e-06 0 0)
(9.6946e-06 0 0)
(9.69479e-06 0 0)
(9.69498e-06 0 0)
(9.69517e-06 0 0)
(9.69535e-06 0 0)
(9.69552e-06 0 0)
(9.69569e-06 0 0)
(9.69586e-06 0 0)
(9.69602e-06 0 0)
(9.69617e-06 0 0)
(9.69632e-06 0 0)
(9.69646e-06 0 0)
(9.69659e-06 0 0)
(9.69672e-06 0 0)
(9.69684e-06 0 0)
(9.69696e-06 0 0)
(9.69707e-06 0 0)
(9.69717e-06 0 0)
(9.69727e-06 0 0)
(9.69736e-06 0 0)
(9.69745e-06 0 0)
(9.69752e-06 0 0)
(9.6976e-06 0 0)
(9.69766e-06 0 0)
(9.69773e-06 0 0)
(9.69778e-06 0 0)
(9.69783e-06 0 0)
(9.69788e-06 0 0)
(9.69792e-06 0 0)
(9.69796e-06 0 0)
(9.69799e-06 0 0)
(9.69802e-06 0 0)
(9.69804e-06 0 0)
(9.69806e-06 0 0)
(9.69808e-06 0 0)
(9.6981e-06 0 0)
(9.69811e-06 0 0)
(9.69812e-06 0 0)
(9.69812e-06 0 0)
(9.69812e-06 0 0)
(9.69812e-06 0 0)
(9.69812e-06 0 0)
(9.69812e-06 0 0)
(9.69811e-06 0 0)
(9.6981e-06 0 0)
(9.69809e-06 0 0)
(9.69807e-06 0 0)
(9.69804e-06 0 0)
(9.69802e-06 0 0)
(9.69798e-06 0 0)
(9.69795e-06 0 0)
(9.69791e-06 0 0)
(9.69787e-06 0 0)
(9.69782e-06 0 0)
(9.69776e-06 0 0)
(9.6977e-06 0 0)
(9.69764e-06 0 0)
(9.69756e-06 0 0)
(9.69749e-06 0 0)
(9.6974e-06 0 0)
(9.69731e-06 0 0)
(9.69721e-06 0 0)
(9.6971e-06 0 0)
(9.69698e-06 0 0)
(9.69686e-06 0 0)
(9.69673e-06 0 0)
(9.69659e-06 0 0)
(9.69644e-06 0 0)
(9.69628e-06 0 0)
(9.69611e-06 0 0)
(9.69594e-06 0 0)
(9.69575e-06 0 0)
(9.69555e-06 0 0)
(9.69535e-06 0 0)
(9.69513e-06 0 0)
(9.6949e-06 0 0)
(9.69467e-06 0 0)
(9.69442e-06 0 0)
(9.69416e-06 0 0)
(9.69389e-06 0 0)
(9.69361e-06 0 0)
(9.69331e-06 0 0)
(9.693e-06 0 0)
(9.69268e-06 0 0)
(9.69234e-06 0 0)
(9.69199e-06 0 0)
(9.69163e-06 0 0)
(9.69125e-06 0 0)
(9.69085e-06 0 0)
(9.69043e-06 0 0)
(9.69e-06 0 0)
(9.68955e-06 0 0)
(9.68908e-06 0 0)
(9.68859e-06 0 0)
(9.68809e-06 0 0)
(9.68756e-06 0 0)
(9.68701e-06 0 0)
(9.68645e-06 0 0)
(9.68586e-06 0 0)
(9.68526e-06 0 0)
(9.68464e-06 0 0)
(9.684e-06 0 0)
(9.68334e-06 0 0)
(9.68267e-06 0 0)
(9.68199e-06 0 0)
(9.6813e-06 0 0)
(9.6806e-06 0 0)
(9.6799e-06 0 0)
(9.67919e-06 0 0)
(9.67849e-06 0 0)
(9.67779e-06 0 0)
(9.67709e-06 0 0)
(9.67641e-06 0 0)
(9.67575e-06 0 0)
(9.67511e-06 0 0)
(9.67449e-06 0 0)
(9.67391e-06 0 0)
(9.67336e-06 0 0)
(9.67285e-06 0 0)
(9.67239e-06 0 0)
(9.67197e-06 0 0)
(9.67161e-06 0 0)
(9.67131e-06 0 0)
(9.67107e-06 0 0)
(9.6709e-06 0 0)
(9.6708e-06 0 0)
(9.67076e-06 0 0)
(9.67075e-06 0 0)
(9.67076e-06 0 0)
(9.67086e-06 0 0)
(9.67108e-06 0 0)
(9.6714e-06 0 0)
(9.6718e-06 0 0)
(9.67226e-06 0 0)
(9.67278e-06 0 0)
(9.67336e-06 0 0)
(9.674e-06 0 0)
(9.67468e-06 0 0)
(9.67539e-06 0 0)
(9.67615e-06 0 0)
(9.67693e-06 0 0)
(9.67772e-06 0 0)
(9.67853e-06 0 0)
(9.67934e-06 0 0)
(9.68014e-06 0 0)
(9.68094e-06 0 0)
(9.68172e-06 0 0)
(9.68248e-06 0 0)
(9.68321e-06 0 0)
(9.68391e-06 0 0)
(9.68458e-06 0 0)
(9.68521e-06 0 0)
(9.6858e-06 0 0)
(9.68636e-06 0 0)
(9.68687e-06 0 0)
(9.68734e-06 0 0)
(9.68777e-06 0 0)
(9.68817e-06 0 0)
(9.68853e-06 0 0)
(9.68885e-06 0 0)
(9.68913e-06 0 0)
(9.68939e-06 0 0)
(9.68961e-06 0 0)
(9.68981e-06 0 0)
(9.68998e-06 0 0)
(9.69014e-06 0 0)
(9.69027e-06 0 0)
(9.69039e-06 0 0)
(9.6905e-06 0 0)
(9.69059e-06 0 0)
(9.69067e-06 0 0)
(9.69075e-06 0 0)
(9.69082e-06 0 0)
(9.69089e-06 0 0)
(9.69095e-06 0 0)
(9.69102e-06 0 0)
(9.69108e-06 0 0)
(9.69115e-06 0 0)
(9.69122e-06 0 0)
(9.69129e-06 0 0)
(9.69137e-06 0 0)
(9.69145e-06 0 0)
(9.69153e-06 0 0)
(9.69162e-06 0 0)
(9.69172e-06 0 0)
(9.69181e-06 0 0)
(9.69192e-06 0 0)
(9.69203e-06 0 0)
(9.69214e-06 0 0)
(9.69225e-06 0 0)
(9.69237e-06 0 0)
(9.6925e-06 0 0)
(9.69263e-06 0 0)
(9.69276e-06 0 0)
(9.69289e-06 0 0)
(9.69302e-06 0 0)
(9.69316e-06 0 0)
(9.6933e-06 0 0)
(9.69344e-06 0 0)
(9.69358e-06 0 0)
(9.69372e-06 0 0)
(9.69387e-06 0 0)
(9.69401e-06 0 0)
(9.69416e-06 0 0)
(9.6943e-06 0 0)
(9.69445e-06 0 0)
(9.69459e-06 0 0)
(9.69474e-06 0 0)
(9.69489e-06 0 0)
(9.69503e-06 0 0)
(9.69518e-06 0 0)
(9.69532e-06 0 0)
(9.69546e-06 0 0)
(9.6956e-06 0 0)
(9.69574e-06 0 0)
(9.69588e-06 0 0)
(9.69602e-06 0 0)
(9.69616e-06 0 0)
(9.69629e-06 0 0)
(9.69643e-06 0 0)
(9.69656e-06 0 0)
(9.69668e-06 0 0)
(9.69681e-06 0 0)
(9.69693e-06 0 0)
(9.69705e-06 0 0)
(9.69717e-06 0 0)
(9.69728e-06 0 0)
(9.69739e-06 0 0)
(9.6975e-06 0 0)
(9.6976e-06 0 0)
(9.6977e-06 0 0)
(9.69779e-06 0 0)
(9.69788e-06 0 0)
(9.69797e-06 0 0)
(9.69805e-06 0 0)
(9.69812e-06 0 0)
(9.69819e-06 0 0)
(9.69826e-06 0 0)
(9.69832e-06 0 0)
(9.69837e-06 0 0)
(9.69842e-06 0 0)
(9.69846e-06 0 0)
(9.6985e-06 0 0)
(9.69854e-06 0 0)
(9.69857e-06 0 0)
(9.69859e-06 0 0)
(9.69861e-06 0 0)
(9.69862e-06 0 0)
(9.69863e-06 0 0)
(9.69864e-06 0 0)
(9.69864e-06 0 0)
(9.69864e-06 0 0)
(9.69863e-06 0 0)
(9.69863e-06 0 0)
(9.69861e-06 0 0)
(9.69859e-06 0 0)
(9.69856e-06 0 0)
(9.69853e-06 0 0)
(9.6985e-06 0 0)
(9.69847e-06 0 0)
(9.69843e-06 0 0)
(9.69839e-06 0 0)
(9.69835e-06 0 0)
(9.6983e-06 0 0)
(9.69826e-06 0 0)
(9.6982e-06 0 0)
(9.69815e-06 0 0)
(9.6981e-06 0 0)
(9.69804e-06 0 0)
(9.69798e-06 0 0)
(9.69791e-06 0 0)
(9.69784e-06 0 0)
(9.69777e-06 0 0)
(9.69769e-06 0 0)
(9.69761e-06 0 0)
(9.69752e-06 0 0)
(9.69743e-06 0 0)
(9.69733e-06 0 0)
(9.69723e-06 0 0)
(9.69712e-06 0 0)
(9.697e-06 0 0)
(9.69688e-06 0 0)
(9.69675e-06 0 0)
(9.69661e-06 0 0)
(9.69646e-06 0 0)
(9.6963e-06 0 0)
(9.69613e-06 0 0)
(9.69595e-06 0 0)
(9.69576e-06 0 0)
(9.69555e-06 0 0)
(9.69533e-06 0 0)
(9.6951e-06 0 0)
(9.69485e-06 0 0)
(9.69459e-06 0 0)
(9.69432e-06 0 0)
(9.69403e-06 0 0)
(9.69372e-06 0 0)
(9.69339e-06 0 0)
(9.69305e-06 0 0)
(9.69269e-06 0 0)
(9.69231e-06 0 0)
(9.69192e-06 0 0)
(9.6915e-06 0 0)
(9.69107e-06 0 0)
(9.69061e-06 0 0)
(9.69014e-06 0 0)
(9.68965e-06 0 0)
(9.68914e-06 0 0)
(9.68862e-06 0 0)
(9.68807e-06 0 0)
(9.68751e-06 0 0)
(9.68693e-06 0 0)
(9.68634e-06 0 0)
(9.68573e-06 0 0)
(9.68511e-06 0 0)
(9.68448e-06 0 0)
(9.68384e-06 0 0)
(9.68319e-06 0 0)
(9.68254e-06 0 0)
(9.68188e-06 0 0)
(9.68123e-06 0 0)
(9.68057e-06 0 0)
(9.67992e-06 0 0)
(9.67928e-06 0 0)
(9.67865e-06 0 0)
(9.67803e-06 0 0)
(9.67744e-06 0 0)
(9.67686e-06 0 0)
(9.67632e-06 0 0)
(9.6758e-06 0 0)
(9.67531e-06 0 0)
(9.67486e-06 0 0)
(9.67446e-06 0 0)
(9.67409e-06 0 0)
(9.67378e-06 0 0)
(9.67351e-06 0 0)
(9.6733e-06 0 0)
(9.67315e-06 0 0)
(9.67306e-06 0 0)
(9.67302e-06 0 0)
(9.67301e-06 0 0)
(9.67302e-06 0 0)
(9.67308e-06 0 0)
(9.67325e-06 0 0)
(9.67354e-06 0 0)
(9.67387e-06 0 0)
(9.67426e-06 0 0)
(9.67471e-06 0 0)
(9.67521e-06 0 0)
(9.67575e-06 0 0)
(9.67634e-06 0 0)
(9.67696e-06 0 0)
(9.67762e-06 0 0)
(9.6783e-06 0 0)
(9.67901e-06 0 0)
(9.67973e-06 0 0)
(9.68046e-06 0 0)
(9.68119e-06 0 0)
(9.68192e-06 0 0)
(9.68264e-06 0 0)
(9.68335e-06 0 0)
(9.68404e-06 0 0)
(9.68472e-06 0 0)
)
;

boundaryField
{
    inlet
    {
        type            fixedValue;
        value           uniform (0 0 0);
    }
    outlet
    {
        type            zeroGradient;
    }
    emptyWalls
    {
        type            empty;
    }
}


// ************************************************************************* //
