/*--------------------------------*- C++ -*----------------------------------*\
  =========                 |
  \\      /  F ield         | OpenFOAM: The Open Source CFD Toolbox
   \\    /   O peration     | Website:  https://openfoam.org
    \\  /    A nd           | Version:  9
     \\/     M anipulation  |
\*---------------------------------------------------------------------------*/
FoamFile
{
    format      ascii;
    class       volVectorField;
    location    "18150";
    object      Ua;
}
// * * * * * * * * * * * * * * * * * * * * * * * * * * * * * * * * * * * * * //

dimensions      [0 0 0 0 0 0 0];

internalField   nonuniform List<vector> 
1000
(
(2.74899e-06 0 0)
(2.74873e-06 0 0)
(2.7486e-06 0 0)
(2.74838e-06 0 0)
(2.74799e-06 0 0)
(2.74753e-06 0 0)
(2.74697e-06 0 0)
(2.74627e-06 0 0)
(2.74567e-06 0 0)
(2.74487e-06 0 0)
(2.74413e-06 0 0)
(2.7433e-06 0 0)
(2.74235e-06 0 0)
(2.74146e-06 0 0)
(2.74047e-06 0 0)
(2.73953e-06 0 0)
(2.73863e-06 0 0)
(2.73778e-06 0 0)
(2.73697e-06 0 0)
(2.73622e-06 0 0)
(2.7355e-06 0 0)
(2.73458e-06 0 0)
(2.73261e-06 0 0)
(2.72529e-06 0 0)
(2.69391e-06 0 0)
(2.48756e-06 0 0)
(2.2397e-06 0 0)
(2.15524e-06 0 0)
(2.13041e-06 0 0)
(2.11862e-06 0 0)
(2.11096e-06 0 0)
(2.10512e-06 0 0)
(2.10025e-06 0 0)
(2.09598e-06 0 0)
(2.09219e-06 0 0)
(2.08875e-06 0 0)
(2.08558e-06 0 0)
(2.08266e-06 0 0)
(2.07997e-06 0 0)
(2.07746e-06 0 0)
(2.07513e-06 0 0)
(2.07296e-06 0 0)
(2.07093e-06 0 0)
(2.06904e-06 0 0)
(2.06727e-06 0 0)
(2.06561e-06 0 0)
(2.06404e-06 0 0)
(2.06258e-06 0 0)
(2.0612e-06 0 0)
(2.05991e-06 0 0)
(2.0587e-06 0 0)
(2.05756e-06 0 0)
(2.05648e-06 0 0)
(2.05545e-06 0 0)
(2.05446e-06 0 0)
(2.05355e-06 0 0)
(2.0527e-06 0 0)
(2.05191e-06 0 0)
(2.0512e-06 0 0)
(2.05057e-06 0 0)
(2.04999e-06 0 0)
(2.04947e-06 0 0)
(2.04899e-06 0 0)
(2.04853e-06 0 0)
(2.04808e-06 0 0)
(2.04764e-06 0 0)
(2.04723e-06 0 0)
(2.04686e-06 0 0)
(2.04656e-06 0 0)
(2.04637e-06 0 0)
(2.0463e-06 0 0)
(2.04637e-06 0 0)
(2.0465e-06 0 0)
(2.04665e-06 0 0)
(2.04679e-06 0 0)
(2.04689e-06 0 0)
(2.04693e-06 0 0)
(2.04692e-06 0 0)
(2.04689e-06 0 0)
(2.04684e-06 0 0)
(2.04681e-06 0 0)
(2.04684e-06 0 0)
(2.04701e-06 0 0)
(2.04744e-06 0 0)
(2.04825e-06 0 0)
(2.04953e-06 0 0)
(2.05131e-06 0 0)
(2.05351e-06 0 0)
(2.05605e-06 0 0)
(2.05878e-06 0 0)
(2.06159e-06 0 0)
(2.0644e-06 0 0)
(2.06713e-06 0 0)
(2.06973e-06 0 0)
(2.07213e-06 0 0)
(2.07427e-06 0 0)
(2.07605e-06 0 0)
(2.07736e-06 0 0)
(2.07811e-06 0 0)
(2.07821e-06 0 0)
(2.07763e-06 0 0)
(2.07635e-06 0 0)
(2.07443e-06 0 0)
(2.07196e-06 0 0)
(2.06905e-06 0 0)
(2.06585e-06 0 0)
(2.0625e-06 0 0)
(2.05915e-06 0 0)
(2.05592e-06 0 0)
(2.05293e-06 0 0)
(2.05026e-06 0 0)
(2.04794e-06 0 0)
(2.046e-06 0 0)
(2.04445e-06 0 0)
(2.04326e-06 0 0)
(2.0424e-06 0 0)
(2.04182e-06 0 0)
(2.04146e-06 0 0)
(2.04127e-06 0 0)
(2.0412e-06 0 0)
(2.04121e-06 0 0)
(2.04125e-06 0 0)
(2.04128e-06 0 0)
(2.04129e-06 0 0)
(2.04125e-06 0 0)
(2.04116e-06 0 0)
(2.041e-06 0 0)
(2.04078e-06 0 0)
(2.0405e-06 0 0)
(2.04016e-06 0 0)
(2.03977e-06 0 0)
(2.03934e-06 0 0)
(2.03887e-06 0 0)
(2.03837e-06 0 0)
(2.03785e-06 0 0)
(2.03732e-06 0 0)
(2.03678e-06 0 0)
(2.03623e-06 0 0)
(2.03567e-06 0 0)
(2.03512e-06 0 0)
(2.03457e-06 0 0)
(2.03403e-06 0 0)
(2.03349e-06 0 0)
(2.03297e-06 0 0)
(2.03245e-06 0 0)
(2.03193e-06 0 0)
(2.03143e-06 0 0)
(2.03094e-06 0 0)
(2.03046e-06 0 0)
(2.02998e-06 0 0)
(2.02952e-06 0 0)
(2.02907e-06 0 0)
(2.02863e-06 0 0)
(2.0282e-06 0 0)
(2.02778e-06 0 0)
(2.02737e-06 0 0)
(2.02698e-06 0 0)
(2.02659e-06 0 0)
(2.02622e-06 0 0)
(2.02586e-06 0 0)
(2.02551e-06 0 0)
(2.02517e-06 0 0)
(2.02484e-06 0 0)
(2.02453e-06 0 0)
(2.02422e-06 0 0)
(2.02393e-06 0 0)
(2.02365e-06 0 0)
(2.02338e-06 0 0)
(2.02312e-06 0 0)
(2.02287e-06 0 0)
(2.02263e-06 0 0)
(2.0224e-06 0 0)
(2.02219e-06 0 0)
(2.02199e-06 0 0)
(2.0218e-06 0 0)
(2.02163e-06 0 0)
(2.02147e-06 0 0)
(2.02133e-06 0 0)
(2.02119e-06 0 0)
(2.02107e-06 0 0)
(2.02095e-06 0 0)
(2.02085e-06 0 0)
(2.02074e-06 0 0)
(2.02065e-06 0 0)
(2.02055e-06 0 0)
(2.02046e-06 0 0)
(2.02036e-06 0 0)
(2.02028e-06 0 0)
(2.02019e-06 0 0)
(2.02011e-06 0 0)
(2.02004e-06 0 0)
(2.01998e-06 0 0)
(2.01993e-06 0 0)
(2.01988e-06 0 0)
(2.01984e-06 0 0)
(2.01981e-06 0 0)
(2.01977e-06 0 0)
(2.01973e-06 0 0)
(2.01968e-06 0 0)
(2.01963e-06 0 0)
(2.01957e-06 0 0)
(2.01951e-06 0 0)
(2.01945e-06 0 0)
(2.01942e-06 0 0)
(2.01942e-06 0 0)
(2.01948e-06 0 0)
(2.01961e-06 0 0)
(2.01983e-06 0 0)
(2.02016e-06 0 0)
(2.02062e-06 0 0)
(2.02121e-06 0 0)
(2.02194e-06 0 0)
(2.02283e-06 0 0)
(2.02386e-06 0 0)
(2.02504e-06 0 0)
(2.02635e-06 0 0)
(2.02778e-06 0 0)
(2.0293e-06 0 0)
(2.03091e-06 0 0)
(2.03256e-06 0 0)
(2.03422e-06 0 0)
(2.03587e-06 0 0)
(2.03746e-06 0 0)
(2.03896e-06 0 0)
(2.04032e-06 0 0)
(2.0415e-06 0 0)
(2.04247e-06 0 0)
(2.0432e-06 0 0)
(2.04366e-06 0 0)
(2.04382e-06 0 0)
(2.04368e-06 0 0)
(2.04323e-06 0 0)
(2.04248e-06 0 0)
(2.04144e-06 0 0)
(2.04015e-06 0 0)
(2.03862e-06 0 0)
(2.03691e-06 0 0)
(2.03505e-06 0 0)
(2.03309e-06 0 0)
(2.03107e-06 0 0)
(2.02905e-06 0 0)
(2.02706e-06 0 0)
(2.02513e-06 0 0)
(2.0233e-06 0 0)
(2.02159e-06 0 0)
(2.02002e-06 0 0)
(2.01859e-06 0 0)
(2.01732e-06 0 0)
(2.0162e-06 0 0)
(2.01523e-06 0 0)
(2.01439e-06 0 0)
(2.01367e-06 0 0)
(2.01306e-06 0 0)
(2.01255e-06 0 0)
(2.01212e-06 0 0)
(2.01175e-06 0 0)
(2.01143e-06 0 0)
(2.01115e-06 0 0)
(2.01089e-06 0 0)
(2.01064e-06 0 0)
(2.0104e-06 0 0)
(2.01015e-06 0 0)
(2.00989e-06 0 0)
(2.00962e-06 0 0)
(2.00933e-06 0 0)
(2.00902e-06 0 0)
(2.00869e-06 0 0)
(2.00834e-06 0 0)
(2.00797e-06 0 0)
(2.00758e-06 0 0)
(2.00718e-06 0 0)
(2.00676e-06 0 0)
(2.00632e-06 0 0)
(2.00588e-06 0 0)
(2.00542e-06 0 0)
(2.00496e-06 0 0)
(2.00449e-06 0 0)
(2.00402e-06 0 0)
(2.00355e-06 0 0)
(2.00307e-06 0 0)
(2.0026e-06 0 0)
(2.00212e-06 0 0)
(2.00165e-06 0 0)
(2.00119e-06 0 0)
(2.00073e-06 0 0)
(2.00027e-06 0 0)
(1.99982e-06 0 0)
(1.99937e-06 0 0)
(1.99893e-06 0 0)
(1.99849e-06 0 0)
(1.99807e-06 0 0)
(1.99765e-06 0 0)
(1.99723e-06 0 0)
(1.99683e-06 0 0)
(1.99643e-06 0 0)
(1.99604e-06 0 0)
(1.99566e-06 0 0)
(1.99528e-06 0 0)
(1.99491e-06 0 0)
(1.99455e-06 0 0)
(1.9942e-06 0 0)
(1.99385e-06 0 0)
(1.99352e-06 0 0)
(1.99319e-06 0 0)
(1.99287e-06 0 0)
(1.99255e-06 0 0)
(1.99225e-06 0 0)
(1.99195e-06 0 0)
(1.99166e-06 0 0)
(1.99138e-06 0 0)
(1.9911e-06 0 0)
(1.99084e-06 0 0)
(1.99058e-06 0 0)
(1.99033e-06 0 0)
(1.9901e-06 0 0)
(1.98987e-06 0 0)
(1.98964e-06 0 0)
(1.98943e-06 0 0)
(1.98923e-06 0 0)
(1.98903e-06 0 0)
(1.98884e-06 0 0)
(1.98866e-06 0 0)
(1.98848e-06 0 0)
(1.98832e-06 0 0)
(1.98815e-06 0 0)
(1.988e-06 0 0)
(1.98785e-06 0 0)
(1.9877e-06 0 0)
(1.98756e-06 0 0)
(1.98742e-06 0 0)
(1.98729e-06 0 0)
(1.98717e-06 0 0)
(1.98705e-06 0 0)
(1.98693e-06 0 0)
(1.98682e-06 0 0)
(1.98671e-06 0 0)
(1.98661e-06 0 0)
(1.98651e-06 0 0)
(1.98641e-06 0 0)
(1.98631e-06 0 0)
(1.98622e-06 0 0)
(1.98613e-06 0 0)
(1.98604e-06 0 0)
(1.98596e-06 0 0)
(1.98588e-06 0 0)
(1.98582e-06 0 0)
(1.98577e-06 0 0)
(1.98573e-06 0 0)
(1.98572e-06 0 0)
(1.98574e-06 0 0)
(1.9858e-06 0 0)
(1.98589e-06 0 0)
(1.98603e-06 0 0)
(1.98622e-06 0 0)
(1.98648e-06 0 0)
(1.98679e-06 0 0)
(1.98718e-06 0 0)
(1.98764e-06 0 0)
(1.98818e-06 0 0)
(1.98879e-06 0 0)
(1.98947e-06 0 0)
(1.99023e-06 0 0)
(1.99106e-06 0 0)
(1.99196e-06 0 0)
(1.99291e-06 0 0)
(1.9939e-06 0 0)
(1.99494e-06 0 0)
(1.996e-06 0 0)
(1.99706e-06 0 0)
(1.99813e-06 0 0)
(1.99917e-06 0 0)
(2.00018e-06 0 0)
(2.00113e-06 0 0)
(2.00201e-06 0 0)
(2.0028e-06 0 0)
(2.00349e-06 0 0)
(2.00405e-06 0 0)
(2.00449e-06 0 0)
(2.00477e-06 0 0)
(2.00491e-06 0 0)
(2.00488e-06 0 0)
(2.00468e-06 0 0)
(2.00432e-06 0 0)
(2.0038e-06 0 0)
(2.00312e-06 0 0)
(2.0023e-06 0 0)
(2.00134e-06 0 0)
(2.00026e-06 0 0)
(1.99908e-06 0 0)
(1.99781e-06 0 0)
(1.99647e-06 0 0)
(1.99509e-06 0 0)
(1.99368e-06 0 0)
(1.99226e-06 0 0)
(1.99085e-06 0 0)
(1.98946e-06 0 0)
(1.98811e-06 0 0)
(1.98681e-06 0 0)
(1.98557e-06 0 0)
(1.9844e-06 0 0)
(1.9833e-06 0 0)
(1.98227e-06 0 0)
(1.98132e-06 0 0)
(1.98044e-06 0 0)
(1.97964e-06 0 0)
(1.97891e-06 0 0)
(1.97824e-06 0 0)
(1.97763e-06 0 0)
(1.97708e-06 0 0)
(1.97657e-06 0 0)
(1.97611e-06 0 0)
(1.97568e-06 0 0)
(1.97528e-06 0 0)
(1.9749e-06 0 0)
(1.97454e-06 0 0)
(1.9742e-06 0 0)
(1.97386e-06 0 0)
(1.97353e-06 0 0)
(1.9732e-06 0 0)
(1.97287e-06 0 0)
(1.97253e-06 0 0)
(1.97219e-06 0 0)
(1.97184e-06 0 0)
(1.97148e-06 0 0)
(1.97112e-06 0 0)
(1.97074e-06 0 0)
(1.97036e-06 0 0)
(1.96997e-06 0 0)
(1.96957e-06 0 0)
(1.96916e-06 0 0)
(1.96874e-06 0 0)
(1.96832e-06 0 0)
(1.96789e-06 0 0)
(1.96745e-06 0 0)
(1.96701e-06 0 0)
(1.96657e-06 0 0)
(1.96613e-06 0 0)
(1.96568e-06 0 0)
(1.96523e-06 0 0)
(1.96479e-06 0 0)
(1.96434e-06 0 0)
(1.9639e-06 0 0)
(1.96345e-06 0 0)
(1.96301e-06 0 0)
(1.96258e-06 0 0)
(1.96214e-06 0 0)
(1.96171e-06 0 0)
(1.96128e-06 0 0)
(1.96086e-06 0 0)
(1.96044e-06 0 0)
(1.96003e-06 0 0)
(1.95962e-06 0 0)
(1.95922e-06 0 0)
(1.95882e-06 0 0)
(1.95843e-06 0 0)
(1.95804e-06 0 0)
(1.95767e-06 0 0)
(1.95729e-06 0 0)
(1.95692e-06 0 0)
(1.95656e-06 0 0)
(1.95621e-06 0 0)
(1.95586e-06 0 0)
(1.95552e-06 0 0)
(1.95518e-06 0 0)
(1.95485e-06 0 0)
(1.95453e-06 0 0)
(1.95421e-06 0 0)
(1.95391e-06 0 0)
(1.9536e-06 0 0)
(1.95331e-06 0 0)
(1.95302e-06 0 0)
(1.95274e-06 0 0)
(1.95247e-06 0 0)
(1.9522e-06 0 0)
(1.95194e-06 0 0)
(1.95169e-06 0 0)
(1.95145e-06 0 0)
(1.95121e-06 0 0)
(1.95098e-06 0 0)
(1.95075e-06 0 0)
(1.95054e-06 0 0)
(1.95032e-06 0 0)
(1.95012e-06 0 0)
(1.94992e-06 0 0)
(1.94973e-06 0 0)
(1.94954e-06 0 0)
(1.94936e-06 0 0)
(1.94918e-06 0 0)
(1.94901e-06 0 0)
(1.94884e-06 0 0)
(1.94868e-06 0 0)
(1.94852e-06 0 0)
(1.94837e-06 0 0)
(1.94822e-06 0 0)
(1.94808e-06 0 0)
(1.94794e-06 0 0)
(1.94781e-06 0 0)
(1.94767e-06 0 0)
(1.94755e-06 0 0)
(1.94742e-06 0 0)
(1.9473e-06 0 0)
(1.94719e-06 0 0)
(1.94708e-06 0 0)
(1.94697e-06 0 0)
(1.94688e-06 0 0)
(1.94679e-06 0 0)
(1.94671e-06 0 0)
(1.94664e-06 0 0)
(1.94658e-06 0 0)
(1.94654e-06 0 0)
(1.94652e-06 0 0)
(1.94652e-06 0 0)
(1.94654e-06 0 0)
(1.94658e-06 0 0)
(1.94665e-06 0 0)
(1.94675e-06 0 0)
(1.94689e-06 0 0)
(1.94706e-06 0 0)
(1.94727e-06 0 0)
(1.94752e-06 0 0)
(1.94781e-06 0 0)
(1.94814e-06 0 0)
(1.94852e-06 0 0)
(1.94894e-06 0 0)
(1.9494e-06 0 0)
(1.94991e-06 0 0)
(1.95045e-06 0 0)
(1.95104e-06 0 0)
(1.95165e-06 0 0)
(1.9523e-06 0 0)
(1.95298e-06 0 0)
(1.95367e-06 0 0)
(1.95438e-06 0 0)
(1.9551e-06 0 0)
(1.95582e-06 0 0)
(1.95653e-06 0 0)
(1.95723e-06 0 0)
(1.9579e-06 0 0)
(1.95854e-06 0 0)
(1.95915e-06 0 0)
(1.9597e-06 0 0)
(1.9602e-06 0 0)
(1.96063e-06 0 0)
(1.96099e-06 0 0)
(1.96128e-06 0 0)
(1.96148e-06 0 0)
(1.96158e-06 0 0)
(1.9616e-06 0 0)
(1.96151e-06 0 0)
(1.96133e-06 0 0)
(1.96105e-06 0 0)
(1.96067e-06 0 0)
(1.96019e-06 0 0)
(1.95962e-06 0 0)
(1.95896e-06 0 0)
(1.95821e-06 0 0)
(1.9574e-06 0 0)
(1.95651e-06 0 0)
(1.95556e-06 0 0)
(1.95457e-06 0 0)
(1.95353e-06 0 0)
(1.95246e-06 0 0)
(1.95137e-06 0 0)
(1.95027e-06 0 0)
(1.94916e-06 0 0)
(1.94806e-06 0 0)
(1.94696e-06 0 0)
(1.94589e-06 0 0)
(1.94485e-06 0 0)
(1.94383e-06 0 0)
(1.94285e-06 0 0)
(1.9419e-06 0 0)
(1.94099e-06 0 0)
(1.94013e-06 0 0)
(1.93931e-06 0 0)
(1.93853e-06 0 0)
(1.93779e-06 0 0)
(1.93709e-06 0 0)
(1.93643e-06 0 0)
(1.93581e-06 0 0)
(1.93522e-06 0 0)
(1.93466e-06 0 0)
(1.93413e-06 0 0)
(1.93362e-06 0 0)
(1.93314e-06 0 0)
(1.93267e-06 0 0)
(1.93223e-06 0 0)
(1.93179e-06 0 0)
(1.93137e-06 0 0)
(1.93096e-06 0 0)
(1.93055e-06 0 0)
(1.93015e-06 0 0)
(1.92975e-06 0 0)
(1.92935e-06 0 0)
(1.92895e-06 0 0)
(1.92856e-06 0 0)
(1.92815e-06 0 0)
(1.92775e-06 0 0)
(1.92734e-06 0 0)
(1.92693e-06 0 0)
(1.92651e-06 0 0)
(1.92609e-06 0 0)
(1.92567e-06 0 0)
(1.92524e-06 0 0)
(1.92481e-06 0 0)
(1.92437e-06 0 0)
(1.92393e-06 0 0)
(1.92349e-06 0 0)
(1.92304e-06 0 0)
(1.9226e-06 0 0)
(1.92215e-06 0 0)
(1.9217e-06 0 0)
(1.92124e-06 0 0)
(1.92079e-06 0 0)
(1.92034e-06 0 0)
(1.91989e-06 0 0)
(1.91944e-06 0 0)
(1.91899e-06 0 0)
(1.91854e-06 0 0)
(1.9181e-06 0 0)
(1.91765e-06 0 0)
(1.91721e-06 0 0)
(1.91678e-06 0 0)
(1.91634e-06 0 0)
(1.91591e-06 0 0)
(1.91548e-06 0 0)
(1.91506e-06 0 0)
(1.91464e-06 0 0)
(1.91423e-06 0 0)
(1.91382e-06 0 0)
(1.91341e-06 0 0)
(1.91301e-06 0 0)
(1.91261e-06 0 0)
(1.91222e-06 0 0)
(1.91184e-06 0 0)
(1.91146e-06 0 0)
(1.91108e-06 0 0)
(1.91071e-06 0 0)
(1.91035e-06 0 0)
(1.90999e-06 0 0)
(1.90963e-06 0 0)
(1.90928e-06 0 0)
(1.90894e-06 0 0)
(1.9086e-06 0 0)
(1.90827e-06 0 0)
(1.90794e-06 0 0)
(1.90762e-06 0 0)
(1.90731e-06 0 0)
(1.907e-06 0 0)
(1.90669e-06 0 0)
(1.90639e-06 0 0)
(1.9061e-06 0 0)
(1.90581e-06 0 0)
(1.90552e-06 0 0)
(1.90524e-06 0 0)
(1.90497e-06 0 0)
(1.9047e-06 0 0)
(1.90444e-06 0 0)
(1.90418e-06 0 0)
(1.90392e-06 0 0)
(1.90367e-06 0 0)
(1.90343e-06 0 0)
(1.90319e-06 0 0)
(1.90295e-06 0 0)
(1.90272e-06 0 0)
(1.90249e-06 0 0)
(1.90226e-06 0 0)
(1.90204e-06 0 0)
(1.90182e-06 0 0)
(1.90161e-06 0 0)
(1.9014e-06 0 0)
(1.90119e-06 0 0)
(1.90099e-06 0 0)
(1.90079e-06 0 0)
(1.90059e-06 0 0)
(1.9004e-06 0 0)
(1.90022e-06 0 0)
(1.90004e-06 0 0)
(1.89986e-06 0 0)
(1.89969e-06 0 0)
(1.89953e-06 0 0)
(1.89937e-06 0 0)
(1.89923e-06 0 0)
(1.89909e-06 0 0)
(1.89897e-06 0 0)
(1.89885e-06 0 0)
(1.89875e-06 0 0)
(1.89867e-06 0 0)
(1.8986e-06 0 0)
(1.89855e-06 0 0)
(1.89852e-06 0 0)
(1.89851e-06 0 0)
(1.89853e-06 0 0)
(1.89858e-06 0 0)
(1.89865e-06 0 0)
(1.89876e-06 0 0)
(1.8989e-06 0 0)
(1.89907e-06 0 0)
(1.89928e-06 0 0)
(1.89953e-06 0 0)
(1.89981e-06 0 0)
(1.90013e-06 0 0)
(1.90051e-06 0 0)
(1.9009e-06 0 0)
(1.90134e-06 0 0)
(1.90183e-06 0 0)
(1.90234e-06 0 0)
(1.90289e-06 0 0)
(1.90348e-06 0 0)
(1.90409e-06 0 0)
(1.90473e-06 0 0)
(1.9054e-06 0 0)
(1.90607e-06 0 0)
(1.90679e-06 0 0)
(1.9075e-06 0 0)
(1.90822e-06 0 0)
(1.90894e-06 0 0)
(1.90965e-06 0 0)
(1.91035e-06 0 0)
(1.91099e-06 0 0)
(1.91156e-06 0 0)
(1.91205e-06 0 0)
(1.91236e-06 0 0)
(1.91234e-06 0 0)
(1.9118e-06 0 0)
(1.91043e-06 0 0)
(1.90782e-06 0 0)
(1.90358e-06 0 0)
(1.89765e-06 0 0)
(1.89074e-06 0 0)
(1.88425e-06 0 0)
(1.87943e-06 0 0)
(1.87654e-06 0 0)
(1.87507e-06 0 0)
(1.87436e-06 0 0)
(1.87401e-06 0 0)
(1.87379e-06 0 0)
(1.87361e-06 0 0)
(1.87341e-06 0 0)
(1.87319e-06 0 0)
(1.87292e-06 0 0)
(1.87261e-06 0 0)
(1.87226e-06 0 0)
(1.87186e-06 0 0)
(1.87143e-06 0 0)
(1.87096e-06 0 0)
(1.87046e-06 0 0)
(1.86993e-06 0 0)
(1.86937e-06 0 0)
(1.86879e-06 0 0)
(1.8682e-06 0 0)
(1.8676e-06 0 0)
(1.86698e-06 0 0)
(1.86637e-06 0 0)
(1.86575e-06 0 0)
(1.86514e-06 0 0)
(1.86454e-06 0 0)
(1.86394e-06 0 0)
(1.86336e-06 0 0)
(1.86279e-06 0 0)
(1.86225e-06 0 0)
(1.86172e-06 0 0)
(1.86121e-06 0 0)
(1.86072e-06 0 0)
(1.86026e-06 0 0)
(1.85982e-06 0 0)
(1.8594e-06 0 0)
(1.859e-06 0 0)
(1.85863e-06 0 0)
(1.85828e-06 0 0)
(1.85796e-06 0 0)
(1.85765e-06 0 0)
(1.85736e-06 0 0)
(1.8571e-06 0 0)
(1.85685e-06 0 0)
(1.85661e-06 0 0)
(1.85639e-06 0 0)
(1.85619e-06 0 0)
(1.85599e-06 0 0)
(1.85581e-06 0 0)
(1.85564e-06 0 0)
(1.85548e-06 0 0)
(1.85532e-06 0 0)
(1.85517e-06 0 0)
(1.85503e-06 0 0)
(1.85489e-06 0 0)
(1.85475e-06 0 0)
(1.85462e-06 0 0)
(1.85449e-06 0 0)
(1.85436e-06 0 0)
(1.85423e-06 0 0)
(1.8541e-06 0 0)
(1.85397e-06 0 0)
(1.85384e-06 0 0)
(1.85371e-06 0 0)
(1.85357e-06 0 0)
(1.85344e-06 0 0)
(1.85331e-06 0 0)
(1.85317e-06 0 0)
(1.85303e-06 0 0)
(1.85289e-06 0 0)
(1.85275e-06 0 0)
(1.85261e-06 0 0)
(1.85247e-06 0 0)
(1.85233e-06 0 0)
(1.85219e-06 0 0)
(1.85204e-06 0 0)
(1.8519e-06 0 0)
(1.85176e-06 0 0)
(1.85161e-06 0 0)
(1.85147e-06 0 0)
(1.85133e-06 0 0)
(1.85119e-06 0 0)
(1.85105e-06 0 0)
(1.85091e-06 0 0)
(1.85077e-06 0 0)
(1.85064e-06 0 0)
(1.85051e-06 0 0)
(1.85038e-06 0 0)
(1.85025e-06 0 0)
(1.85012e-06 0 0)
(1.85e-06 0 0)
(1.84988e-06 0 0)
(1.84976e-06 0 0)
(1.84965e-06 0 0)
(1.84954e-06 0 0)
(1.84943e-06 0 0)
(1.84933e-06 0 0)
(1.84923e-06 0 0)
(1.84913e-06 0 0)
(1.84904e-06 0 0)
(1.84895e-06 0 0)
(1.84887e-06 0 0)
(1.84879e-06 0 0)
(1.84871e-06 0 0)
(1.84864e-06 0 0)
(1.84858e-06 0 0)
(1.84851e-06 0 0)
(1.84845e-06 0 0)
(1.8484e-06 0 0)
(1.84835e-06 0 0)
(1.8483e-06 0 0)
(1.84826e-06 0 0)
(1.84822e-06 0 0)
(1.84819e-06 0 0)
(1.84816e-06 0 0)
(1.84814e-06 0 0)
(1.84812e-06 0 0)
(1.84811e-06 0 0)
(1.84809e-06 0 0)
(1.84809e-06 0 0)
(1.84809e-06 0 0)
(1.84809e-06 0 0)
(1.84809e-06 0 0)
(1.84809e-06 0 0)
(1.8481e-06 0 0)
(1.84812e-06 0 0)
(1.84814e-06 0 0)
(1.84817e-06 0 0)
(1.8482e-06 0 0)
(1.84823e-06 0 0)
(1.84827e-06 0 0)
(1.84831e-06 0 0)
(1.84835e-06 0 0)
(1.8484e-06 0 0)
(1.84845e-06 0 0)
(1.8485e-06 0 0)
(1.84856e-06 0 0)
(1.84862e-06 0 0)
(1.84868e-06 0 0)
(1.84875e-06 0 0)
(1.84882e-06 0 0)
(1.84889e-06 0 0)
(1.84897e-06 0 0)
(1.84905e-06 0 0)
(1.84913e-06 0 0)
(1.84922e-06 0 0)
(1.84932e-06 0 0)
(1.84941e-06 0 0)
(1.84952e-06 0 0)
(1.84963e-06 0 0)
(1.84974e-06 0 0)
(1.84986e-06 0 0)
(1.84998e-06 0 0)
(1.85012e-06 0 0)
(1.85026e-06 0 0)
(1.8504e-06 0 0)
(1.85056e-06 0 0)
(1.85073e-06 0 0)
(1.8509e-06 0 0)
(1.85109e-06 0 0)
(1.85128e-06 0 0)
(1.85149e-06 0 0)
(1.85171e-06 0 0)
(1.85195e-06 0 0)
(1.8522e-06 0 0)
(1.85246e-06 0 0)
(1.85274e-06 0 0)
(1.85304e-06 0 0)
(1.85335e-06 0 0)
(1.85368e-06 0 0)
(1.85402e-06 0 0)
(1.85439e-06 0 0)
(1.85477e-06 0 0)
(1.85517e-06 0 0)
(1.85559e-06 0 0)
(1.85603e-06 0 0)
(1.85649e-06 0 0)
(1.85696e-06 0 0)
(1.85745e-06 0 0)
(1.85796e-06 0 0)
(1.85848e-06 0 0)
(1.85902e-06 0 0)
(1.85957e-06 0 0)
(1.86014e-06 0 0)
(1.86071e-06 0 0)
(1.8613e-06 0 0)
(1.86189e-06 0 0)
(1.86249e-06 0 0)
(1.86309e-06 0 0)
(1.86369e-06 0 0)
(1.86429e-06 0 0)
(1.86489e-06 0 0)
(1.86548e-06 0 0)
(1.86607e-06 0 0)
(1.86664e-06 0 0)
(1.8672e-06 0 0)
(1.86774e-06 0 0)
(1.86826e-06 0 0)
(1.86875e-06 0 0)
(1.86923e-06 0 0)
(1.86967e-06 0 0)
(1.87008e-06 0 0)
(1.87046e-06 0 0)
(1.87081e-06 0 0)
(1.87111e-06 0 0)
(1.87138e-06 0 0)
(1.8716e-06 0 0)
(1.87179e-06 0 0)
(1.87192e-06 0 0)
(1.87202e-06 0 0)
(1.87206e-06 0 0)
(1.87208e-06 0 0)
(1.87208e-06 0 0)
(1.87206e-06 0 0)
(1.87197e-06 0 0)
(1.87179e-06 0 0)
(1.87158e-06 0 0)
(1.87133e-06 0 0)
(1.87103e-06 0 0)
(1.8707e-06 0 0)
(1.87034e-06 0 0)
(1.86995e-06 0 0)
(1.86953e-06 0 0)
(1.86909e-06 0 0)
(1.86862e-06 0 0)
(1.86813e-06 0 0)
(1.86763e-06 0 0)
(1.86712e-06 0 0)
(1.8666e-06 0 0)
(1.86608e-06 0 0)
(1.86555e-06 0 0)
(1.86502e-06 0 0)
(1.86449e-06 0 0)
(1.86397e-06 0 0)
(1.86345e-06 0 0)
(1.86295e-06 0 0)
(1.86245e-06 0 0)
(1.86197e-06 0 0)
(1.86151e-06 0 0)
(1.86106e-06 0 0)
(1.86062e-06 0 0)
(1.86021e-06 0 0)
(1.85981e-06 0 0)
(1.85942e-06 0 0)
(1.85906e-06 0 0)
(1.85871e-06 0 0)
(1.85838e-06 0 0)
(1.85807e-06 0 0)
(1.85778e-06 0 0)
(1.8575e-06 0 0)
(1.85724e-06 0 0)
(1.85699e-06 0 0)
(1.85675e-06 0 0)
(1.85653e-06 0 0)
(1.85632e-06 0 0)
(1.85611e-06 0 0)
(1.85592e-06 0 0)
(1.85574e-06 0 0)
(1.85557e-06 0 0)
(1.8554e-06 0 0)
(1.85524e-06 0 0)
(1.85509e-06 0 0)
(1.85493e-06 0 0)
(1.85479e-06 0 0)
(1.85465e-06 0 0)
(1.8545e-06 0 0)
(1.85437e-06 0 0)
(1.85423e-06 0 0)
(1.85409e-06 0 0)
)
;

boundaryField
{
    inlet
    {
        type            fixedValue;
        value           uniform (2.74882e-06 0 0);
    }
    outlet
    {
        type            zeroGradient;
    }
    emptyWalls
    {
        type            empty;
    }
}


// ************************************************************************* //
