/*--------------------------------*- C++ -*----------------------------------*\
  =========                 |
  \\      /  F ield         | OpenFOAM: The Open Source CFD Toolbox
   \\    /   O peration     | Website:  https://openfoam.org
    \\  /    A nd           | Version:  9
     \\/     M anipulation  |
\*---------------------------------------------------------------------------*/
FoamFile
{
    format      ascii;
    class       volVectorField;
    location    "22500";
    object      Ua;
}
// * * * * * * * * * * * * * * * * * * * * * * * * * * * * * * * * * * * * * //

dimensions      [0 0 0 0 0 0 0];

internalField   nonuniform List<vector> 
1000
(
(2.74904e-06 0 0)
(2.74881e-06 0 0)
(2.74867e-06 0 0)
(2.74847e-06 0 0)
(2.74821e-06 0 0)
(2.74793e-06 0 0)
(2.7476e-06 0 0)
(2.74726e-06 0 0)
(2.74688e-06 0 0)
(2.74638e-06 0 0)
(2.7459e-06 0 0)
(2.74525e-06 0 0)
(2.74464e-06 0 0)
(2.74394e-06 0 0)
(2.74317e-06 0 0)
(2.74241e-06 0 0)
(2.74154e-06 0 0)
(2.74068e-06 0 0)
(2.73981e-06 0 0)
(2.73897e-06 0 0)
(2.73819e-06 0 0)
(2.73748e-06 0 0)
(2.73684e-06 0 0)
(2.73623e-06 0 0)
(2.73571e-06 0 0)
(2.73516e-06 0 0)
(2.73468e-06 0 0)
(2.7341e-06 0 0)
(2.73271e-06 0 0)
(2.72813e-06 0 0)
(2.70977e-06 0 0)
(2.60112e-06 0 0)
(2.35176e-06 0 0)
(2.17265e-06 0 0)
(2.1445e-06 0 0)
(2.14135e-06 0 0)
(2.14502e-06 0 0)
(2.14727e-06 0 0)
(2.14434e-06 0 0)
(2.1378e-06 0 0)
(2.12994e-06 0 0)
(2.11957e-06 0 0)
(2.10798e-06 0 0)
(2.09851e-06 0 0)
(2.09154e-06 0 0)
(2.0867e-06 0 0)
(2.08327e-06 0 0)
(2.08184e-06 0 0)
(2.08188e-06 0 0)
(2.08169e-06 0 0)
(2.08123e-06 0 0)
(2.08047e-06 0 0)
(2.07934e-06 0 0)
(2.07798e-06 0 0)
(2.07656e-06 0 0)
(2.07506e-06 0 0)
(2.07347e-06 0 0)
(2.07186e-06 0 0)
(2.07027e-06 0 0)
(2.06872e-06 0 0)
(2.0672e-06 0 0)
(2.06573e-06 0 0)
(2.06432e-06 0 0)
(2.06295e-06 0 0)
(2.06163e-06 0 0)
(2.06036e-06 0 0)
(2.05913e-06 0 0)
(2.05793e-06 0 0)
(2.05678e-06 0 0)
(2.05568e-06 0 0)
(2.05462e-06 0 0)
(2.05361e-06 0 0)
(2.05264e-06 0 0)
(2.05173e-06 0 0)
(2.05085e-06 0 0)
(2.05002e-06 0 0)
(2.04924e-06 0 0)
(2.04851e-06 0 0)
(2.04782e-06 0 0)
(2.04718e-06 0 0)
(2.04658e-06 0 0)
(2.04603e-06 0 0)
(2.04551e-06 0 0)
(2.04504e-06 0 0)
(2.04462e-06 0 0)
(2.04425e-06 0 0)
(2.04394e-06 0 0)
(2.0437e-06 0 0)
(2.04353e-06 0 0)
(2.04341e-06 0 0)
(2.04331e-06 0 0)
(2.04323e-06 0 0)
(2.04318e-06 0 0)
(2.04315e-06 0 0)
(2.04313e-06 0 0)
(2.04312e-06 0 0)
(2.04311e-06 0 0)
(2.04309e-06 0 0)
(2.04306e-06 0 0)
(2.04301e-06 0 0)
(2.04295e-06 0 0)
(2.04288e-06 0 0)
(2.04282e-06 0 0)
(2.04276e-06 0 0)
(2.04273e-06 0 0)
(2.04274e-06 0 0)
(2.04279e-06 0 0)
(2.04287e-06 0 0)
(2.04298e-06 0 0)
(2.04308e-06 0 0)
(2.04317e-06 0 0)
(2.04323e-06 0 0)
(2.04327e-06 0 0)
(2.04326e-06 0 0)
(2.04323e-06 0 0)
(2.04316e-06 0 0)
(2.04308e-06 0 0)
(2.04302e-06 0 0)
(2.04304e-06 0 0)
(2.04321e-06 0 0)
(2.04361e-06 0 0)
(2.04431e-06 0 0)
(2.04534e-06 0 0)
(2.04672e-06 0 0)
(2.04842e-06 0 0)
(2.05039e-06 0 0)
(2.05258e-06 0 0)
(2.05491e-06 0 0)
(2.05733e-06 0 0)
(2.05977e-06 0 0)
(2.06219e-06 0 0)
(2.06452e-06 0 0)
(2.06671e-06 0 0)
(2.06868e-06 0 0)
(2.07038e-06 0 0)
(2.0717e-06 0 0)
(2.0726e-06 0 0)
(2.07301e-06 0 0)
(2.0729e-06 0 0)
(2.07226e-06 0 0)
(2.0711e-06 0 0)
(2.06947e-06 0 0)
(2.06744e-06 0 0)
(2.06509e-06 0 0)
(2.06253e-06 0 0)
(2.05985e-06 0 0)
(2.05715e-06 0 0)
(2.05452e-06 0 0)
(2.05204e-06 0 0)
(2.04976e-06 0 0)
(2.04773e-06 0 0)
(2.04597e-06 0 0)
(2.04448e-06 0 0)
(2.04325e-06 0 0)
(2.04228e-06 0 0)
(2.04153e-06 0 0)
(2.04097e-06 0 0)
(2.04057e-06 0 0)
(2.04029e-06 0 0)
(2.0401e-06 0 0)
(2.03996e-06 0 0)
(2.03985e-06 0 0)
(2.03975e-06 0 0)
(2.03965e-06 0 0)
(2.03951e-06 0 0)
(2.03935e-06 0 0)
(2.03914e-06 0 0)
(2.0389e-06 0 0)
(2.03862e-06 0 0)
(2.03829e-06 0 0)
(2.03793e-06 0 0)
(2.03754e-06 0 0)
(2.03713e-06 0 0)
(2.03669e-06 0 0)
(2.03623e-06 0 0)
(2.03576e-06 0 0)
(2.03529e-06 0 0)
(2.0348e-06 0 0)
(2.03431e-06 0 0)
(2.03383e-06 0 0)
(2.03334e-06 0 0)
(2.03286e-06 0 0)
(2.03238e-06 0 0)
(2.03191e-06 0 0)
(2.03144e-06 0 0)
(2.03099e-06 0 0)
(2.03054e-06 0 0)
(2.0301e-06 0 0)
(2.02967e-06 0 0)
(2.02925e-06 0 0)
(2.02884e-06 0 0)
(2.02844e-06 0 0)
(2.02805e-06 0 0)
(2.02767e-06 0 0)
(2.0273e-06 0 0)
(2.02694e-06 0 0)
(2.0266e-06 0 0)
(2.02626e-06 0 0)
(2.02594e-06 0 0)
(2.02563e-06 0 0)
(2.02533e-06 0 0)
(2.02504e-06 0 0)
(2.02476e-06 0 0)
(2.02449e-06 0 0)
(2.02423e-06 0 0)
(2.02398e-06 0 0)
(2.02375e-06 0 0)
(2.02353e-06 0 0)
(2.02332e-06 0 0)
(2.02312e-06 0 0)
(2.02294e-06 0 0)
(2.02277e-06 0 0)
(2.02262e-06 0 0)
(2.02248e-06 0 0)
(2.02234e-06 0 0)
(2.02222e-06 0 0)
(2.02211e-06 0 0)
(2.022e-06 0 0)
(2.0219e-06 0 0)
(2.02181e-06 0 0)
(2.02171e-06 0 0)
(2.02162e-06 0 0)
(2.02154e-06 0 0)
(2.02145e-06 0 0)
(2.02138e-06 0 0)
(2.0213e-06 0 0)
(2.02124e-06 0 0)
(2.02118e-06 0 0)
(2.02114e-06 0 0)
(2.0211e-06 0 0)
(2.02107e-06 0 0)
(2.02104e-06 0 0)
(2.02102e-06 0 0)
(2.02099e-06 0 0)
(2.02096e-06 0 0)
(2.02093e-06 0 0)
(2.02088e-06 0 0)
(2.02083e-06 0 0)
(2.02077e-06 0 0)
(2.02072e-06 0 0)
(2.02069e-06 0 0)
(2.02067e-06 0 0)
(2.0207e-06 0 0)
(2.02079e-06 0 0)
(2.02094e-06 0 0)
(2.02119e-06 0 0)
(2.02153e-06 0 0)
(2.022e-06 0 0)
(2.02259e-06 0 0)
(2.02331e-06 0 0)
(2.02416e-06 0 0)
(2.02515e-06 0 0)
(2.02627e-06 0 0)
(2.0275e-06 0 0)
(2.02885e-06 0 0)
(2.03028e-06 0 0)
(2.03179e-06 0 0)
(2.03334e-06 0 0)
(2.03491e-06 0 0)
(2.03647e-06 0 0)
(2.03799e-06 0 0)
(2.03943e-06 0 0)
(2.04076e-06 0 0)
(2.04195e-06 0 0)
(2.04297e-06 0 0)
(2.04379e-06 0 0)
(2.04438e-06 0 0)
(2.04473e-06 0 0)
(2.04482e-06 0 0)
(2.04465e-06 0 0)
(2.04421e-06 0 0)
(2.04352e-06 0 0)
(2.04259e-06 0 0)
(2.04145e-06 0 0)
(2.04012e-06 0 0)
(2.03864e-06 0 0)
(2.03704e-06 0 0)
(2.03536e-06 0 0)
(2.03364e-06 0 0)
(2.03191e-06 0 0)
(2.0302e-06 0 0)
(2.02855e-06 0 0)
(2.02697e-06 0 0)
(2.02548e-06 0 0)
(2.02411e-06 0 0)
(2.02285e-06 0 0)
(2.02171e-06 0 0)
(2.02069e-06 0 0)
(2.01979e-06 0 0)
(2.019e-06 0 0)
(2.01831e-06 0 0)
(2.01771e-06 0 0)
(2.01719e-06 0 0)
(2.01673e-06 0 0)
(2.01634e-06 0 0)
(2.01599e-06 0 0)
(2.01567e-06 0 0)
(2.01537e-06 0 0)
(2.01509e-06 0 0)
(2.01481e-06 0 0)
(2.01454e-06 0 0)
(2.01426e-06 0 0)
(2.01398e-06 0 0)
(2.01368e-06 0 0)
(2.01337e-06 0 0)
(2.01305e-06 0 0)
(2.01271e-06 0 0)
(2.01236e-06 0 0)
(2.01199e-06 0 0)
(2.01161e-06 0 0)
(2.01122e-06 0 0)
(2.01082e-06 0 0)
(2.01041e-06 0 0)
(2.00999e-06 0 0)
(2.00957e-06 0 0)
(2.00915e-06 0 0)
(2.00872e-06 0 0)
(2.00829e-06 0 0)
(2.00786e-06 0 0)
(2.00744e-06 0 0)
(2.00701e-06 0 0)
(2.00659e-06 0 0)
(2.00617e-06 0 0)
(2.00576e-06 0 0)
(2.00535e-06 0 0)
(2.00495e-06 0 0)
(2.00455e-06 0 0)
(2.00416e-06 0 0)
(2.00377e-06 0 0)
(2.0034e-06 0 0)
(2.00303e-06 0 0)
(2.00267e-06 0 0)
(2.00231e-06 0 0)
(2.00196e-06 0 0)
(2.00162e-06 0 0)
(2.00129e-06 0 0)
(2.00097e-06 0 0)
(2.00065e-06 0 0)
(2.00034e-06 0 0)
(2.00005e-06 0 0)
(1.99975e-06 0 0)
(1.99947e-06 0 0)
(1.9992e-06 0 0)
(1.99894e-06 0 0)
(1.99868e-06 0 0)
(1.99843e-06 0 0)
(1.9982e-06 0 0)
(1.99797e-06 0 0)
(1.99775e-06 0 0)
(1.99755e-06 0 0)
(1.99735e-06 0 0)
(1.99716e-06 0 0)
(1.99698e-06 0 0)
(1.9968e-06 0 0)
(1.99664e-06 0 0)
(1.99648e-06 0 0)
(1.99633e-06 0 0)
(1.99618e-06 0 0)
(1.99605e-06 0 0)
(1.99592e-06 0 0)
(1.99579e-06 0 0)
(1.99567e-06 0 0)
(1.99556e-06 0 0)
(1.99545e-06 0 0)
(1.99534e-06 0 0)
(1.99524e-06 0 0)
(1.99515e-06 0 0)
(1.99506e-06 0 0)
(1.99498e-06 0 0)
(1.9949e-06 0 0)
(1.99482e-06 0 0)
(1.99474e-06 0 0)
(1.99467e-06 0 0)
(1.9946e-06 0 0)
(1.99453e-06 0 0)
(1.99446e-06 0 0)
(1.9944e-06 0 0)
(1.99433e-06 0 0)
(1.99427e-06 0 0)
(1.99422e-06 0 0)
(1.99418e-06 0 0)
(1.99416e-06 0 0)
(1.99415e-06 0 0)
(1.99417e-06 0 0)
(1.99422e-06 0 0)
(1.9943e-06 0 0)
(1.99443e-06 0 0)
(1.99461e-06 0 0)
(1.99484e-06 0 0)
(1.99513e-06 0 0)
(1.99549e-06 0 0)
(1.99592e-06 0 0)
(1.99642e-06 0 0)
(1.99699e-06 0 0)
(1.99764e-06 0 0)
(1.99836e-06 0 0)
(1.99916e-06 0 0)
(2.00002e-06 0 0)
(2.00094e-06 0 0)
(2.00191e-06 0 0)
(2.00292e-06 0 0)
(2.00397e-06 0 0)
(2.00504e-06 0 0)
(2.00612e-06 0 0)
(2.00719e-06 0 0)
(2.00824e-06 0 0)
(2.00925e-06 0 0)
(2.0102e-06 0 0)
(2.01109e-06 0 0)
(2.01189e-06 0 0)
(2.01259e-06 0 0)
(2.01317e-06 0 0)
(2.01363e-06 0 0)
(2.01396e-06 0 0)
(2.01414e-06 0 0)
(2.01417e-06 0 0)
(2.01405e-06 0 0)
(2.01378e-06 0 0)
(2.01336e-06 0 0)
(2.0128e-06 0 0)
(2.0121e-06 0 0)
(2.01128e-06 0 0)
(2.01036e-06 0 0)
(2.00933e-06 0 0)
(2.00823e-06 0 0)
(2.00707e-06 0 0)
(2.00586e-06 0 0)
(2.00463e-06 0 0)
(2.00338e-06 0 0)
(2.00213e-06 0 0)
(2.00091e-06 0 0)
(1.99971e-06 0 0)
(1.99855e-06 0 0)
(1.99745e-06 0 0)
(1.99639e-06 0 0)
(1.9954e-06 0 0)
(1.99447e-06 0 0)
(1.9936e-06 0 0)
(1.9928e-06 0 0)
(1.99206e-06 0 0)
(1.99138e-06 0 0)
(1.99075e-06 0 0)
(1.99018e-06 0 0)
(1.98965e-06 0 0)
(1.98916e-06 0 0)
(1.98871e-06 0 0)
(1.98828e-06 0 0)
(1.98789e-06 0 0)
(1.98751e-06 0 0)
(1.98715e-06 0 0)
(1.98681e-06 0 0)
(1.98647e-06 0 0)
(1.98614e-06 0 0)
(1.98581e-06 0 0)
(1.98547e-06 0 0)
(1.98514e-06 0 0)
(1.9848e-06 0 0)
(1.98446e-06 0 0)
(1.98412e-06 0 0)
(1.98376e-06 0 0)
(1.9834e-06 0 0)
(1.98304e-06 0 0)
(1.98266e-06 0 0)
(1.98229e-06 0 0)
(1.9819e-06 0 0)
(1.98152e-06 0 0)
(1.98112e-06 0 0)
(1.98073e-06 0 0)
(1.98033e-06 0 0)
(1.97993e-06 0 0)
(1.97953e-06 0 0)
(1.97913e-06 0 0)
(1.97873e-06 0 0)
(1.97833e-06 0 0)
(1.97793e-06 0 0)
(1.97753e-06 0 0)
(1.97714e-06 0 0)
(1.97674e-06 0 0)
(1.97636e-06 0 0)
(1.97597e-06 0 0)
(1.97559e-06 0 0)
(1.97522e-06 0 0)
(1.97485e-06 0 0)
(1.97449e-06 0 0)
(1.97413e-06 0 0)
(1.97378e-06 0 0)
(1.97343e-06 0 0)
(1.97309e-06 0 0)
(1.97275e-06 0 0)
(1.97243e-06 0 0)
(1.97211e-06 0 0)
(1.97179e-06 0 0)
(1.97149e-06 0 0)
(1.97119e-06 0 0)
(1.97089e-06 0 0)
(1.97061e-06 0 0)
(1.97033e-06 0 0)
(1.97006e-06 0 0)
(1.9698e-06 0 0)
(1.96954e-06 0 0)
(1.9693e-06 0 0)
(1.96906e-06 0 0)
(1.96883e-06 0 0)
(1.9686e-06 0 0)
(1.96839e-06 0 0)
(1.96818e-06 0 0)
(1.96798e-06 0 0)
(1.96778e-06 0 0)
(1.9676e-06 0 0)
(1.96742e-06 0 0)
(1.96724e-06 0 0)
(1.96708e-06 0 0)
(1.96692e-06 0 0)
(1.96676e-06 0 0)
(1.96661e-06 0 0)
(1.96647e-06 0 0)
(1.96633e-06 0 0)
(1.9662e-06 0 0)
(1.96608e-06 0 0)
(1.96595e-06 0 0)
(1.96584e-06 0 0)
(1.96572e-06 0 0)
(1.96562e-06 0 0)
(1.96551e-06 0 0)
(1.96541e-06 0 0)
(1.96531e-06 0 0)
(1.96522e-06 0 0)
(1.96513e-06 0 0)
(1.96504e-06 0 0)
(1.96495e-06 0 0)
(1.96488e-06 0 0)
(1.9648e-06 0 0)
(1.96473e-06 0 0)
(1.96467e-06 0 0)
(1.96461e-06 0 0)
(1.96457e-06 0 0)
(1.96453e-06 0 0)
(1.96451e-06 0 0)
(1.96451e-06 0 0)
(1.96452e-06 0 0)
(1.96456e-06 0 0)
(1.96462e-06 0 0)
(1.9647e-06 0 0)
(1.96482e-06 0 0)
(1.96497e-06 0 0)
(1.96516e-06 0 0)
(1.96538e-06 0 0)
(1.96565e-06 0 0)
(1.96595e-06 0 0)
(1.9663e-06 0 0)
(1.9667e-06 0 0)
(1.96714e-06 0 0)
(1.96763e-06 0 0)
(1.96816e-06 0 0)
(1.96874e-06 0 0)
(1.96935e-06 0 0)
(1.97e-06 0 0)
(1.97069e-06 0 0)
(1.9714e-06 0 0)
(1.97214e-06 0 0)
(1.97289e-06 0 0)
(1.97365e-06 0 0)
(1.97442e-06 0 0)
(1.97519e-06 0 0)
(1.97594e-06 0 0)
(1.97667e-06 0 0)
(1.97738e-06 0 0)
(1.97805e-06 0 0)
(1.97867e-06 0 0)
(1.97924e-06 0 0)
(1.97975e-06 0 0)
(1.98018e-06 0 0)
(1.98055e-06 0 0)
(1.98083e-06 0 0)
(1.98102e-06 0 0)
(1.98112e-06 0 0)
(1.98113e-06 0 0)
(1.98104e-06 0 0)
(1.98086e-06 0 0)
(1.98058e-06 0 0)
(1.98021e-06 0 0)
(1.97974e-06 0 0)
(1.97919e-06 0 0)
(1.97856e-06 0 0)
(1.97786e-06 0 0)
(1.97709e-06 0 0)
(1.97626e-06 0 0)
(1.97539e-06 0 0)
(1.97447e-06 0 0)
(1.97352e-06 0 0)
(1.97255e-06 0 0)
(1.97156e-06 0 0)
(1.97057e-06 0 0)
(1.96958e-06 0 0)
(1.9686e-06 0 0)
(1.96764e-06 0 0)
(1.9667e-06 0 0)
(1.96578e-06 0 0)
(1.96489e-06 0 0)
(1.96404e-06 0 0)
(1.96323e-06 0 0)
(1.96245e-06 0 0)
(1.96171e-06 0 0)
(1.961e-06 0 0)
(1.96033e-06 0 0)
(1.9597e-06 0 0)
(1.9591e-06 0 0)
(1.95854e-06 0 0)
(1.958e-06 0 0)
(1.95749e-06 0 0)
(1.95701e-06 0 0)
(1.95655e-06 0 0)
(1.9561e-06 0 0)
(1.95568e-06 0 0)
(1.95527e-06 0 0)
(1.95487e-06 0 0)
(1.95448e-06 0 0)
(1.9541e-06 0 0)
(1.95373e-06 0 0)
(1.95336e-06 0 0)
(1.95299e-06 0 0)
(1.95262e-06 0 0)
(1.95226e-06 0 0)
(1.95189e-06 0 0)
(1.95152e-06 0 0)
(1.95116e-06 0 0)
(1.95079e-06 0 0)
(1.95041e-06 0 0)
(1.95004e-06 0 0)
(1.94966e-06 0 0)
(1.94928e-06 0 0)
(1.9489e-06 0 0)
(1.94851e-06 0 0)
(1.94813e-06 0 0)
(1.94774e-06 0 0)
(1.94735e-06 0 0)
(1.94696e-06 0 0)
(1.94658e-06 0 0)
(1.94619e-06 0 0)
(1.9458e-06 0 0)
(1.94541e-06 0 0)
(1.94503e-06 0 0)
(1.94465e-06 0 0)
(1.94427e-06 0 0)
(1.94389e-06 0 0)
(1.94351e-06 0 0)
(1.94314e-06 0 0)
(1.94278e-06 0 0)
(1.94241e-06 0 0)
(1.94205e-06 0 0)
(1.9417e-06 0 0)
(1.94135e-06 0 0)
(1.941e-06 0 0)
(1.94066e-06 0 0)
(1.94032e-06 0 0)
(1.93999e-06 0 0)
(1.93967e-06 0 0)
(1.93935e-06 0 0)
(1.93904e-06 0 0)
(1.93873e-06 0 0)
(1.93843e-06 0 0)
(1.93814e-06 0 0)
(1.93785e-06 0 0)
(1.93756e-06 0 0)
(1.93729e-06 0 0)
(1.93702e-06 0 0)
(1.93676e-06 0 0)
(1.9365e-06 0 0)
(1.93625e-06 0 0)
(1.936e-06 0 0)
(1.93576e-06 0 0)
(1.93553e-06 0 0)
(1.93531e-06 0 0)
(1.93509e-06 0 0)
(1.93487e-06 0 0)
(1.93467e-06 0 0)
(1.93446e-06 0 0)
(1.93427e-06 0 0)
(1.93408e-06 0 0)
(1.93389e-06 0 0)
(1.93371e-06 0 0)
(1.93354e-06 0 0)
(1.93337e-06 0 0)
(1.9332e-06 0 0)
(1.93304e-06 0 0)
(1.93289e-06 0 0)
(1.93274e-06 0 0)
(1.93259e-06 0 0)
(1.93245e-06 0 0)
(1.93231e-06 0 0)
(1.93217e-06 0 0)
(1.93204e-06 0 0)
(1.93192e-06 0 0)
(1.93179e-06 0 0)
(1.93167e-06 0 0)
(1.93155e-06 0 0)
(1.93144e-06 0 0)
(1.93133e-06 0 0)
(1.93123e-06 0 0)
(1.93113e-06 0 0)
(1.93103e-06 0 0)
(1.93094e-06 0 0)
(1.93086e-06 0 0)
(1.93078e-06 0 0)
(1.93072e-06 0 0)
(1.93066e-06 0 0)
(1.93061e-06 0 0)
(1.93058e-06 0 0)
(1.93056e-06 0 0)
(1.93055e-06 0 0)
(1.93056e-06 0 0)
(1.93059e-06 0 0)
(1.93063e-06 0 0)
(1.9307e-06 0 0)
(1.93079e-06 0 0)
(1.93091e-06 0 0)
(1.93105e-06 0 0)
(1.93121e-06 0 0)
(1.9314e-06 0 0)
(1.93163e-06 0 0)
(1.93188e-06 0 0)
(1.93216e-06 0 0)
(1.93247e-06 0 0)
(1.93281e-06 0 0)
(1.93317e-06 0 0)
(1.93357e-06 0 0)
(1.93399e-06 0 0)
(1.93443e-06 0 0)
(1.9349e-06 0 0)
(1.93539e-06 0 0)
(1.93589e-06 0 0)
(1.93641e-06 0 0)
(1.93694e-06 0 0)
(1.93748e-06 0 0)
(1.93802e-06 0 0)
(1.93856e-06 0 0)
(1.9391e-06 0 0)
(1.93962e-06 0 0)
(1.94013e-06 0 0)
(1.94063e-06 0 0)
(1.94109e-06 0 0)
(1.94153e-06 0 0)
(1.94194e-06 0 0)
(1.9423e-06 0 0)
(1.94263e-06 0 0)
(1.9429e-06 0 0)
(1.94313e-06 0 0)
(1.9433e-06 0 0)
(1.94341e-06 0 0)
(1.94346e-06 0 0)
(1.94345e-06 0 0)
(1.94338e-06 0 0)
(1.94324e-06 0 0)
(1.94304e-06 0 0)
(1.94277e-06 0 0)
(1.94244e-06 0 0)
(1.94205e-06 0 0)
(1.9416e-06 0 0)
(1.94109e-06 0 0)
(1.94053e-06 0 0)
(1.93992e-06 0 0)
(1.93926e-06 0 0)
(1.93857e-06 0 0)
(1.93783e-06 0 0)
(1.93707e-06 0 0)
(1.93628e-06 0 0)
(1.93547e-06 0 0)
(1.93465e-06 0 0)
(1.93382e-06 0 0)
(1.93298e-06 0 0)
(1.93214e-06 0 0)
(1.9313e-06 0 0)
(1.93047e-06 0 0)
(1.92965e-06 0 0)
(1.92885e-06 0 0)
(1.92806e-06 0 0)
(1.92729e-06 0 0)
(1.92654e-06 0 0)
(1.92581e-06 0 0)
(1.9251e-06 0 0)
(1.92442e-06 0 0)
(1.92377e-06 0 0)
(1.92313e-06 0 0)
(1.92252e-06 0 0)
(1.92193e-06 0 0)
(1.92136e-06 0 0)
(1.92082e-06 0 0)
(1.92029e-06 0 0)
(1.91978e-06 0 0)
(1.91929e-06 0 0)
(1.91881e-06 0 0)
(1.91835e-06 0 0)
(1.9179e-06 0 0)
(1.91746e-06 0 0)
(1.91703e-06 0 0)
(1.91661e-06 0 0)
(1.9162e-06 0 0)
(1.91579e-06 0 0)
(1.91539e-06 0 0)
(1.91499e-06 0 0)
(1.91459e-06 0 0)
(1.9142e-06 0 0)
(1.91381e-06 0 0)
(1.91342e-06 0 0)
(1.91303e-06 0 0)
(1.91264e-06 0 0)
(1.91225e-06 0 0)
(1.91186e-06 0 0)
(1.91146e-06 0 0)
(1.91107e-06 0 0)
(1.91068e-06 0 0)
(1.91028e-06 0 0)
(1.90989e-06 0 0)
(1.90949e-06 0 0)
(1.9091e-06 0 0)
(1.9087e-06 0 0)
(1.90831e-06 0 0)
(1.90791e-06 0 0)
(1.90752e-06 0 0)
(1.90712e-06 0 0)
(1.90673e-06 0 0)
(1.90633e-06 0 0)
(1.90594e-06 0 0)
(1.90555e-06 0 0)
(1.90516e-06 0 0)
(1.90477e-06 0 0)
(1.90439e-06 0 0)
(1.90401e-06 0 0)
(1.90363e-06 0 0)
(1.90325e-06 0 0)
(1.90288e-06 0 0)
(1.90251e-06 0 0)
(1.90215e-06 0 0)
(1.90178e-06 0 0)
(1.90143e-06 0 0)
(1.90107e-06 0 0)
(1.90072e-06 0 0)
(1.90038e-06 0 0)
(1.90004e-06 0 0)
(1.8997e-06 0 0)
(1.89937e-06 0 0)
(1.89905e-06 0 0)
(1.89873e-06 0 0)
(1.89841e-06 0 0)
(1.89811e-06 0 0)
(1.8978e-06 0 0)
(1.89751e-06 0 0)
(1.89722e-06 0 0)
(1.89693e-06 0 0)
(1.89666e-06 0 0)
(1.89639e-06 0 0)
(1.89613e-06 0 0)
(1.89587e-06 0 0)
(1.89563e-06 0 0)
(1.89539e-06 0 0)
(1.89516e-06 0 0)
(1.89494e-06 0 0)
(1.89473e-06 0 0)
(1.89453e-06 0 0)
(1.89434e-06 0 0)
(1.89417e-06 0 0)
(1.894e-06 0 0)
(1.89384e-06 0 0)
(1.8937e-06 0 0)
(1.89357e-06 0 0)
(1.89345e-06 0 0)
(1.89335e-06 0 0)
(1.89326e-06 0 0)
(1.89318e-06 0 0)
(1.89312e-06 0 0)
(1.89306e-06 0 0)
(1.89303e-06 0 0)
(1.893e-06 0 0)
(1.89298e-06 0 0)
(1.89298e-06 0 0)
(1.89299e-06 0 0)
(1.89301e-06 0 0)
(1.89304e-06 0 0)
(1.89308e-06 0 0)
(1.89313e-06 0 0)
(1.8932e-06 0 0)
(1.89326e-06 0 0)
(1.89334e-06 0 0)
(1.89343e-06 0 0)
(1.89353e-06 0 0)
(1.89363e-06 0 0)
(1.89374e-06 0 0)
(1.89387e-06 0 0)
(1.89401e-06 0 0)
(1.89415e-06 0 0)
(1.8943e-06 0 0)
(1.89446e-06 0 0)
(1.89462e-06 0 0)
(1.89477e-06 0 0)
(1.89491e-06 0 0)
(1.89502e-06 0 0)
(1.89504e-06 0 0)
(1.89492e-06 0 0)
(1.89452e-06 0 0)
(1.89363e-06 0 0)
(1.89196e-06 0 0)
(1.88907e-06 0 0)
(1.88461e-06 0 0)
(1.87856e-06 0 0)
(1.87167e-06 0 0)
(1.86537e-06 0 0)
(1.86084e-06 0 0)
(1.85831e-06 0 0)
(1.85721e-06 0 0)
(1.85692e-06 0 0)
(1.85704e-06 0 0)
(1.85734e-06 0 0)
(1.85776e-06 0 0)
(1.85822e-06 0 0)
(1.85872e-06 0 0)
(1.85924e-06 0 0)
(1.85978e-06 0 0)
(1.86033e-06 0 0)
(1.86089e-06 0 0)
(1.86145e-06 0 0)
(1.86203e-06 0 0)
(1.8626e-06 0 0)
(1.86317e-06 0 0)
(1.86375e-06 0 0)
(1.86431e-06 0 0)
(1.86488e-06 0 0)
(1.86543e-06 0 0)
(1.86597e-06 0 0)
(1.8665e-06 0 0)
(1.86701e-06 0 0)
(1.8675e-06 0 0)
(1.86797e-06 0 0)
(1.86842e-06 0 0)
(1.86884e-06 0 0)
(1.86923e-06 0 0)
(1.86959e-06 0 0)
(1.86993e-06 0 0)
(1.87022e-06 0 0)
(1.87049e-06 0 0)
(1.87071e-06 0 0)
(1.8709e-06 0 0)
(1.87104e-06 0 0)
(1.87114e-06 0 0)
(1.87119e-06 0 0)
(1.87121e-06 0 0)
(1.87122e-06 0 0)
(1.8712e-06 0 0)
(1.87113e-06 0 0)
(1.87099e-06 0 0)
(1.87081e-06 0 0)
(1.8706e-06 0 0)
(1.87036e-06 0 0)
(1.87008e-06 0 0)
(1.86978e-06 0 0)
(1.86945e-06 0 0)
(1.86909e-06 0 0)
(1.86871e-06 0 0)
(1.86831e-06 0 0)
(1.8679e-06 0 0)
(1.86746e-06 0 0)
(1.86702e-06 0 0)
(1.86656e-06 0 0)
(1.8661e-06 0 0)
(1.86563e-06 0 0)
(1.86516e-06 0 0)
(1.86469e-06 0 0)
(1.86422e-06 0 0)
(1.86375e-06 0 0)
(1.86329e-06 0 0)
(1.86284e-06 0 0)
(1.8624e-06 0 0)
(1.86196e-06 0 0)
(1.86154e-06 0 0)
(1.86113e-06 0 0)
(1.86074e-06 0 0)
(1.86035e-06 0 0)
(1.85998e-06 0 0)
(1.85963e-06 0 0)
(1.85929e-06 0 0)
(1.85896e-06 0 0)
(1.85865e-06 0 0)
(1.85835e-06 0 0)
(1.85806e-06 0 0)
(1.85779e-06 0 0)
(1.85752e-06 0 0)
(1.85727e-06 0 0)
(1.85704e-06 0 0)
(1.85681e-06 0 0)
(1.85659e-06 0 0)
(1.85638e-06 0 0)
(1.85617e-06 0 0)
(1.85598e-06 0 0)
(1.85579e-06 0 0)
(1.85561e-06 0 0)
(1.85543e-06 0 0)
(1.85526e-06 0 0)
(1.85509e-06 0 0)
(1.85493e-06 0 0)
(1.85476e-06 0 0)
(1.85461e-06 0 0)
)
;

boundaryField
{
    inlet
    {
        type            fixedValue;
        value           uniform (2.74882e-06 0 0);
    }
    outlet
    {
        type            zeroGradient;
    }
    emptyWalls
    {
        type            empty;
    }
}


// ************************************************************************* //
