/*--------------------------------*- C++ -*----------------------------------*\
  =========                 |
  \\      /  F ield         | OpenFOAM: The Open Source CFD Toolbox
   \\    /   O peration     | Website:  https://openfoam.org
    \\  /    A nd           | Version:  9
     \\/     M anipulation  |
\*---------------------------------------------------------------------------*/
FoamFile
{
    format      ascii;
    class       volScalarField;
    location    "9250";
    object      Sb;
}
// * * * * * * * * * * * * * * * * * * * * * * * * * * * * * * * * * * * * * //

dimensions      [0 0 0 0 0 0 0];

internalField   nonuniform List<scalar> 
1000
(
0.350618
0.352093
0.353751
0.355534
0.356949
0.358743
0.359884
0.36145
0.362343
0.363854
0.366588
0.376285
0.429621
0.607094
0.655595
0.667689
0.67291
0.675925
0.677938
0.679379
0.680444
0.681228
0.681812
0.68223
0.682531
0.68272
0.682834
0.682851
0.68279
0.68262
0.682335
0.681903
0.681272
0.680352
0.679043
0.677295
0.675213
0.672965
0.670631
0.668255
0.665866
0.663479
0.661107
0.658755
0.656428
0.654128
0.651857
0.649617
0.647406
0.645225
0.643075
0.640954
0.638862
0.636799
0.634764
0.632757
0.630776
0.628822
0.626893
0.624989
0.62311
0.621254
0.619421
0.617611
0.615823
0.614057
0.612311
0.610586
0.608881
0.607195
0.605528
0.60388
0.602249
0.600637
0.599042
0.597464
0.595902
0.594356
0.592826
0.591312
0.589813
0.588328
0.586859
0.585403
0.583961
0.582533
0.581118
0.579717
0.578328
0.576951
0.575587
0.574234
0.572893
0.571563
0.570244
0.568937
0.56764
0.566354
0.565078
0.563812
0.562555
0.561307
0.560069
0.558838
0.557616
0.556402
0.555196
0.553997
0.552807
0.551624
0.550449
0.549283
0.548124
0.546974
0.545833
0.5447
0.543577
0.542462
0.541358
0.540262
0.539177
0.5381
0.537034
0.535976
0.534927
0.533887
0.532854
0.531828
0.530809
0.529796
0.528788
0.527786
0.526788
0.525794
0.524805
0.523819
0.522838
0.52186
0.520886
0.519917
0.518952
0.517991
0.517034
0.516082
0.515135
0.514192
0.513254
0.51232
0.511392
0.510468
0.509548
0.508633
0.507723
0.506817
0.505915
0.505018
0.504125
0.503236
0.502351
0.50147
0.500593
0.499719
0.49885
0.497984
0.497121
0.496263
0.495408
0.494556
0.493707
0.492862
0.49202
0.491182
0.490346
0.489514
0.488685
0.487858
0.487035
0.486215
0.485397
0.484582
0.483771
0.482961
0.482155
0.481351
0.48055
0.479751
0.478955
0.478162
0.477371
0.476582
0.475796
0.475012
0.47423
0.473451
0.472674
0.471899
0.471127
0.470357
0.469588
0.468822
0.468058
0.467296
0.466536
0.465778
0.465022
0.464268
0.463515
0.462765
0.462016
0.461269
0.460524
0.459781
0.459039
0.458299
0.457561
0.456824
0.456089
0.455355
0.454623
0.453892
0.453163
0.452435
0.451708
0.450983
0.450259
0.449537
0.448816
0.448096
0.447377
0.44666
0.445943
0.445228
0.444514
0.443801
0.443089
0.442378
0.441669
0.44096
0.440252
0.439545
0.438838
0.438133
0.437429
0.436725
0.436022
0.435319
0.434618
0.433917
0.433216
0.432516
0.431817
0.431118
0.43042
0.429721
0.429023
0.428326
0.427628
0.426931
0.426234
0.425537
0.42484
0.424143
0.423446
0.422749
0.422053
0.421355
0.420659
0.419962
0.419265
0.418568
0.417871
0.417175
0.416478
0.415782
0.415086
0.41439
0.413694
0.412999
0.412304
0.411609
0.410914
0.41022
0.409526
0.408832
0.408139
0.407445
0.406751
0.406057
0.405363
0.404669
0.403974
0.403278
0.402582
0.401885
0.401186
0.400487
0.399786
0.399084
0.398381
0.397676
0.39697
0.396261
0.395551
0.39484
0.394126
0.393411
0.392694
0.391975
0.391254
0.390532
0.389807
0.38908
0.388351
0.38762
0.386887
0.386152
0.385415
0.384676
0.383934
0.38319
0.382443
0.381694
0.380942
0.380188
0.379431
0.378671
0.377909
0.377144
0.376376
0.375605
0.374831
0.374054
0.373275
0.372493
0.371708
0.370921
0.370131
0.36934
0.368547
0.367753
0.366959
0.366165
0.365373
0.364584
0.3638
0.363023
0.362255
0.361499
0.360759
0.360038
0.35934
0.358668
0.358029
0.357424
0.356859
0.356335
0.355855
0.355419
0.355024
0.354666
0.354335
0.35401
0.353661
0.353231
0.352623
0.351673
0.350099
0.347446
0.343029
0.335969
0.325478
0.311518
0.2955
0.280062
0.267606
0.259005
0.253721
0.250717
0.249087
0.248225
0.247776
0.247543
0.247423
0.247362
0.24733
0.247314
0.247305
0.247301
0.247299
0.247297
0.247297
0.247296
0.247296
0.247296
0.247296
0.247296
0.247296
0.247296
0.247296
0.247296
0.247296
0.247296
0.247296
0.247296
0.247296
0.247296
0.247295
0.247295
0.247295
0.247295
0.247295
0.247295
0.247295
0.247295
0.247295
0.247295
0.247295
0.247295
0.247295
0.247294
0.247294
0.247294
0.247294
0.247294
0.247294
0.247294
0.247294
0.247294
0.247294
0.247293
0.247293
0.247293
0.247293
0.247293
0.247292
0.247292
0.247292
0.247291
0.247291
0.247291
0.24729
0.24729
0.247289
0.247289
0.247288
0.247288
0.247287
0.247286
0.247286
0.247285
0.247284
0.247284
0.247283
0.247282
0.247281
0.24728
0.247279
0.247278
0.247277
0.247276
0.247275
0.247274
0.247273
0.247272
0.247271
0.24727
0.247269
0.247268
0.247267
0.247266
0.247265
0.247264
0.247263
0.247263
0.247262
0.247261
0.247261
0.247261
0.24726
0.24726
0.24726
0.24726
0.24726
0.24726
0.24726
0.247261
0.247261
0.247261
0.247262
0.247263
0.247263
0.247264
0.247265
0.247266
0.247266
0.247267
0.247268
0.247269
0.247269
0.24727
0.247271
0.247272
0.247272
0.247273
0.247273
0.247274
0.247274
0.247275
0.247275
0.247276
0.247276
0.247276
0.247276
0.247277
0.247277
0.247277
0.247277
0.247277
0.247278
0.247278
0.247278
0.247278
0.247278
0.247278
0.247278
0.247278
0.247279
0.247279
0.247279
0.247279
0.247279
0.247279
0.247279
0.24728
0.24728
0.24728
0.24728
0.24728
0.24728
0.247281
0.247281
0.247281
0.247281
0.247281
0.247282
0.247282
0.247282
0.247282
0.247282
0.247283
0.247283
0.247283
0.247283
0.247283
0.247283
0.247284
0.247284
0.247284
0.247284
0.247284
0.247284
0.247285
0.247285
0.247285
0.247285
0.247285
0.247285
0.247286
0.247286
0.247286
0.247286
0.247286
0.247286
0.247286
0.247286
0.247286
0.247287
0.247287
0.247287
0.247287
0.247287
0.247287
0.247287
0.247287
0.247287
0.247287
0.247287
0.247287
0.247287
0.247287
0.247287
0.247287
0.247287
0.247287
0.247287
0.247287
0.247287
0.247287
0.247287
0.247287
0.247287
0.247287
0.247287
0.247287
0.247287
0.247287
0.247287
0.247286
0.247286
0.247286
0.247286
0.247286
0.247286
0.247286
0.247286
0.247286
0.247287
0.247287
0.247287
0.247287
0.247287
0.247287
0.247287
0.247287
0.247287
0.247287
0.247287
0.247287
0.247287
0.247287
0.247287
0.247287
0.247287
0.247287
0.247287
0.247287
0.247287
0.247286
0.247286
0.247286
0.247286
0.247286
0.247285
0.247285
0.247285
0.247284
0.247284
0.247284
0.247284
0.247283
0.247283
0.247282
0.247282
0.247282
0.247281
0.247281
0.24728
0.24728
0.247279
0.247279
0.247278
0.247277
0.247277
0.247276
0.247275
0.247275
0.247274
0.247273
0.247273
0.247272
0.247271
0.247271
0.24727
0.247269
0.247269
0.247268
0.247267
0.247267
0.247266
0.247265
0.247265
0.247264
0.247264
0.247264
0.247263
0.247263
0.247263
0.247263
0.247263
0.247263
0.247263
0.247263
0.247263
0.247263
0.247263
0.247264
0.247264
0.247265
0.247265
0.247266
0.247266
0.247267
0.247267
0.247268
0.247269
0.247269
0.24727
0.247271
0.247271
0.247272
0.247273
0.247273
0.247274
0.247274
0.247275
0.247275
0.247276
0.247276
0.247277
0.247277
0.247277
0.247277
0.247278
0.247278
0.247278
0.247278
0.247279
0.247279
0.247279
0.247279
0.247279
0.247279
0.247279
0.24728
0.24728
0.24728
0.24728
0.24728
0.24728
0.24728
0.24728
0.247281
0.247281
0.247281
0.247281
0.247281
0.247281
0.247281
0.247282
0.247282
0.247282
0.247282
0.247282
0.247282
0.247282
0.247283
0.247283
0.247283
0.247283
0.247283
0.247284
0.247284
0.247284
0.247284
0.247284
0.247284
0.247285
0.247285
0.247285
0.247285
0.247285
0.247285
0.247286
0.247286
0.247286
0.247286
0.247286
0.247286
0.247287
0.247287
0.247287
0.247287
0.247287
0.247287
0.247287
0.247287
0.247288
0.247288
0.247288
0.247288
0.247288
0.247288
0.247288
0.247288
0.247288
0.247288
0.247288
0.247288
0.247288
0.247288
0.247288
0.247288
0.247288
0.247288
0.247288
0.247288
0.247288
0.247288
0.247288
0.247288
0.247288
0.247288
0.247288
0.247288
0.247288
0.247288
0.247288
0.247288
0.247288
0.247288
0.247288
0.247288
0.247287
0.247287
0.247287
0.247287
0.247287
0.247287
0.247287
0.247287
0.247287
0.247287
0.247287
0.247286
0.247286
0.247286
0.247286
0.247286
0.247286
0.247286
0.247285
0.247285
0.247285
0.247285
0.247285
0.247284
0.247284
0.247284
0.247284
0.247284
0.247283
0.247283
0.247283
0.247282
0.247282
0.247282
0.247282
0.247281
0.247281
0.247281
0.24728
0.24728
0.247279
0.247279
0.247278
0.247278
0.247278
0.247277
0.247277
0.247276
0.247276
0.247275
0.247274
0.247274
0.247273
0.247273
0.247272
0.247272
0.247271
0.24727
0.24727
0.247269
0.247269
0.247268
0.247268
0.247267
0.247267
0.247266
0.247266
0.247265
0.247265
0.247265
0.247264
0.247264
0.247264
0.247264
0.247264
0.247264
0.247264
0.247264
0.247264
0.247264
0.247264
0.247264
0.247264
0.247265
0.247265
0.247265
0.247266
0.247266
0.247267
0.247267
0.247268
0.247269
0.247269
0.24727
0.24727
0.247271
0.247271
0.247272
0.247273
0.247273
0.247274
0.247274
0.247275
0.247275
0.247275
0.247276
0.247276
0.247277
0.247277
0.247277
0.247277
0.247278
0.247278
0.247278
0.247278
0.247279
0.247279
0.247279
0.247279
0.247279
0.247279
0.247279
0.24728
0.24728
0.24728
0.24728
0.24728
0.24728
0.24728
0.24728
0.24728
0.247281
0.247281
0.247281
0.247281
0.247281
0.247281
0.247281
0.247282
0.247282
0.247282
0.247282
0.247282
0.247282
0.247282
0.247283
0.247283
0.247283
0.247283
0.247283
0.247283
0.247284
0.247284
0.247284
0.247284
0.247284
0.247284
0.247285
0.247285
0.247285
0.247285
0.247285
0.247285
0.247285
0.247286
0.247286
0.247286
0.247286
0.247286
0.247286
0.247286
0.247286
0.247287
0.247287
0.247287
0.247287
0.247287
0.247287
)
;

boundaryField
{
    inlet
    {
        type            fixedValue;
        value           uniform 0.35;
    }
    outlet
    {
        type            zeroGradient;
    }
    emptyWalls
    {
        type            empty;
    }
}


// ************************************************************************* //
