/*--------------------------------*- C++ -*----------------------------------*\
  =========                 |
  \\      /  F ield         | OpenFOAM: The Open Source CFD Toolbox
   \\    /   O peration     | Website:  https://openfoam.org
    \\  /    A nd           | Version:  9
     \\/     M anipulation  |
\*---------------------------------------------------------------------------*/
FoamFile
{
    format      ascii;
    class       surfaceScalarField;
    location    "9450";
    object      phib;
}
// * * * * * * * * * * * * * * * * * * * * * * * * * * * * * * * * * * * * * //

dimensions      [0 2 0 0 0 0 0];

internalField   nonuniform List<scalar> 
999
(
1.13627e-09
1.13631e-09
1.13629e-09
1.13641e-09
1.1364e-09
1.13653e-09
1.13657e-09
1.13668e-09
1.13675e-09
1.13688e-09
1.1373e-09
1.13883e-09
1.14839e-09
1.17243e-09
1.17656e-09
1.17779e-09
1.17835e-09
1.17862e-09
1.17877e-09
1.17884e-09
1.17881e-09
1.17858e-09
1.17813e-09
1.17754e-09
1.17696e-09
1.17653e-09
1.17628e-09
1.17611e-09
1.17594e-09
1.17581e-09
1.17583e-09
1.17599e-09
1.17622e-09
1.17645e-09
1.1766e-09
1.17659e-09
1.17639e-09
1.17605e-09
1.17557e-09
1.17496e-09
1.17422e-09
1.17338e-09
1.17245e-09
1.17144e-09
1.17038e-09
1.16928e-09
1.16816e-09
1.16704e-09
1.16591e-09
1.1648e-09
1.16369e-09
1.1626e-09
1.16152e-09
1.16045e-09
1.15939e-09
1.15833e-09
1.15728e-09
1.15622e-09
1.15517e-09
1.15412e-09
1.15306e-09
1.152e-09
1.15093e-09
1.14987e-09
1.14879e-09
1.14772e-09
1.14664e-09
1.14555e-09
1.14446e-09
1.14337e-09
1.14227e-09
1.14117e-09
1.14006e-09
1.13895e-09
1.13783e-09
1.13671e-09
1.13558e-09
1.13445e-09
1.13331e-09
1.13217e-09
1.13102e-09
1.12986e-09
1.1287e-09
1.12754e-09
1.12637e-09
1.1252e-09
1.12403e-09
1.12285e-09
1.12167e-09
1.12048e-09
1.1193e-09
1.11811e-09
1.11692e-09
1.11572e-09
1.11452e-09
1.11332e-09
1.11212e-09
1.11091e-09
1.1097e-09
1.10848e-09
1.10727e-09
1.10604e-09
1.10482e-09
1.10359e-09
1.10236e-09
1.10113e-09
1.09989e-09
1.09865e-09
1.0974e-09
1.09616e-09
1.0949e-09
1.09365e-09
1.09239e-09
1.09113e-09
1.08987e-09
1.0886e-09
1.08733e-09
1.08605e-09
1.08478e-09
1.0835e-09
1.08222e-09
1.08094e-09
1.07965e-09
1.07837e-09
1.07708e-09
1.07579e-09
1.07449e-09
1.07319e-09
1.07189e-09
1.07058e-09
1.06927e-09
1.06796e-09
1.06664e-09
1.06532e-09
1.06399e-09
1.06266e-09
1.06132e-09
1.05998e-09
1.05863e-09
1.05727e-09
1.0559e-09
1.05451e-09
1.05311e-09
1.05169e-09
1.05026e-09
1.04881e-09
1.04734e-09
1.04586e-09
1.04436e-09
1.04285e-09
1.04132e-09
1.03979e-09
1.03826e-09
1.03672e-09
1.03519e-09
1.03367e-09
1.03216e-09
1.03066e-09
1.02919e-09
1.02774e-09
1.02632e-09
1.02493e-09
1.02357e-09
1.02225e-09
1.02096e-09
1.0197e-09
1.01847e-09
1.01726e-09
1.01606e-09
1.01488e-09
1.01371e-09
1.01253e-09
1.01135e-09
1.01016e-09
1.00896e-09
1.00773e-09
1.00649e-09
1.00522e-09
1.00394e-09
1.00263e-09
1.00129e-09
9.99942e-10
9.9857e-10
9.97182e-10
9.95779e-10
9.94363e-10
9.92936e-10
9.91501e-10
9.90059e-10
9.88612e-10
9.87161e-10
9.85707e-10
9.84251e-10
9.82794e-10
9.81336e-10
9.79878e-10
9.7842e-10
9.76961e-10
9.75502e-10
9.74042e-10
9.72582e-10
9.71121e-10
9.69658e-10
9.68194e-10
9.66728e-10
9.65259e-10
9.63789e-10
9.62315e-10
9.60839e-10
9.5936e-10
9.57878e-10
9.56392e-10
9.54903e-10
9.5341e-10
9.51913e-10
9.50412e-10
9.48907e-10
9.47398e-10
9.45885e-10
9.44367e-10
9.42845e-10
9.41318e-10
9.39787e-10
9.38251e-10
9.3671e-10
9.35164e-10
9.33613e-10
9.32057e-10
9.30496e-10
9.2893e-10
9.27359e-10
9.25783e-10
9.24202e-10
9.22616e-10
9.21024e-10
9.19428e-10
9.17826e-10
9.1622e-10
9.14608e-10
9.12991e-10
9.11369e-10
9.09742e-10
9.08109e-10
9.06472e-10
9.04829e-10
9.03181e-10
9.01527e-10
8.99869e-10
8.98205e-10
8.96536e-10
8.94861e-10
8.93181e-10
8.91496e-10
8.89805e-10
8.88108e-10
8.86406e-10
8.84699e-10
8.82985e-10
8.81266e-10
8.79541e-10
8.7781e-10
8.76074e-10
8.74331e-10
8.72582e-10
8.70827e-10
8.69066e-10
8.67299e-10
8.65526e-10
8.63746e-10
8.61959e-10
8.60166e-10
8.58367e-10
8.56561e-10
8.54749e-10
8.52929e-10
8.51103e-10
8.4927e-10
8.47431e-10
8.45584e-10
8.4373e-10
8.41869e-10
8.40001e-10
8.38125e-10
8.36242e-10
8.34351e-10
8.32453e-10
8.30546e-10
8.28631e-10
8.26708e-10
8.24777e-10
8.22837e-10
8.20888e-10
8.18929e-10
8.16962e-10
8.14985e-10
8.12998e-10
8.11001e-10
8.08993e-10
8.06974e-10
8.04944e-10
8.02902e-10
8.00848e-10
7.98781e-10
7.96701e-10
7.94607e-10
7.92499e-10
7.90377e-10
7.88241e-10
7.8609e-10
7.83923e-10
7.81742e-10
7.79546e-10
7.77335e-10
7.75109e-10
7.72869e-10
7.70615e-10
7.68346e-10
7.66065e-10
7.63771e-10
7.61465e-10
7.59148e-10
7.5682e-10
7.54483e-10
7.52137e-10
7.49783e-10
7.47422e-10
7.45054e-10
7.4268e-10
7.40301e-10
7.37916e-10
7.35528e-10
7.33134e-10
7.30736e-10
7.28333e-10
7.25925e-10
7.2351e-10
7.21089e-10
7.1866e-10
7.16223e-10
7.13777e-10
7.1132e-10
7.08851e-10
7.0637e-10
7.03876e-10
7.01369e-10
6.98849e-10
6.96316e-10
6.93773e-10
6.9122e-10
6.88661e-10
6.861e-10
6.83543e-10
6.80996e-10
6.78467e-10
6.75966e-10
6.73503e-10
6.71091e-10
6.68744e-10
6.66477e-10
6.64304e-10
6.62241e-10
6.60301e-10
6.58493e-10
6.56828e-10
6.55309e-10
6.53933e-10
6.52687e-10
6.51544e-10
6.50453e-10
6.49327e-10
6.48015e-10
6.46256e-10
6.43594e-10
6.39252e-10
6.3193e-10
6.1957e-10
5.99241e-10
5.67574e-10
5.2247e-10
4.66032e-10
4.06183e-10
3.53343e-10
3.14106e-10
2.88754e-10
2.73883e-10
2.65666e-10
2.6128e-10
2.58982e-10
2.57792e-10
2.57179e-10
2.56866e-10
2.56706e-10
2.56626e-10
2.56587e-10
2.56568e-10
2.56561e-10
2.56559e-10
2.5656e-10
2.56563e-10
2.56566e-10
2.56569e-10
2.56573e-10
2.56577e-10
2.56581e-10
2.56585e-10
2.56588e-10
2.56592e-10
2.56596e-10
2.56599e-10
2.56603e-10
2.56606e-10
2.56609e-10
2.56612e-10
2.56615e-10
2.56618e-10
2.56621e-10
2.56624e-10
2.56627e-10
2.56629e-10
2.56632e-10
2.56634e-10
2.56636e-10
2.56638e-10
2.5664e-10
2.56641e-10
2.56643e-10
2.56644e-10
2.56646e-10
2.56647e-10
2.56648e-10
2.56649e-10
2.56649e-10
2.5665e-10
2.5665e-10
2.56651e-10
2.56651e-10
2.56651e-10
2.56651e-10
2.5665e-10
2.5665e-10
2.5665e-10
2.56649e-10
2.56648e-10
2.56648e-10
2.56647e-10
2.56645e-10
2.56644e-10
2.56643e-10
2.56641e-10
2.5664e-10
2.56638e-10
2.56637e-10
2.56635e-10
2.56633e-10
2.56631e-10
2.56629e-10
2.56627e-10
2.56625e-10
2.56623e-10
2.5662e-10
2.56618e-10
2.56616e-10
2.56613e-10
2.56611e-10
2.56608e-10
2.56605e-10
2.56603e-10
2.566e-10
2.56597e-10
2.56594e-10
2.56591e-10
2.56588e-10
2.56585e-10
2.56582e-10
2.56579e-10
2.56576e-10
2.56573e-10
2.56569e-10
2.56566e-10
2.56563e-10
2.56559e-10
2.56556e-10
2.56552e-10
2.56548e-10
2.56544e-10
2.5654e-10
2.56536e-10
2.56532e-10
2.56527e-10
2.56522e-10
2.56517e-10
2.56512e-10
2.56506e-10
2.565e-10
2.56494e-10
2.56487e-10
2.5648e-10
2.56473e-10
2.56465e-10
2.56456e-10
2.56447e-10
2.56437e-10
2.56427e-10
2.56416e-10
2.56404e-10
2.56391e-10
2.56378e-10
2.56364e-10
2.5635e-10
2.56334e-10
2.56318e-10
2.56301e-10
2.56284e-10
2.56266e-10
2.56248e-10
2.56229e-10
2.5621e-10
2.5619e-10
2.56171e-10
2.56151e-10
2.56131e-10
2.56112e-10
2.56093e-10
2.56074e-10
2.56056e-10
2.56039e-10
2.56022e-10
2.56007e-10
2.55993e-10
2.5598e-10
2.55969e-10
2.5596e-10
2.55952e-10
2.55946e-10
2.55943e-10
2.55941e-10
2.55941e-10
2.55941e-10
2.55942e-10
2.55947e-10
2.55955e-10
2.55966e-10
2.55978e-10
2.55991e-10
2.56007e-10
2.56023e-10
2.56041e-10
2.5606e-10
2.56079e-10
2.56099e-10
2.5612e-10
2.5614e-10
2.56161e-10
2.56181e-10
2.56201e-10
2.56221e-10
2.56239e-10
2.56257e-10
2.56275e-10
2.56291e-10
2.56306e-10
2.5632e-10
2.56333e-10
2.56345e-10
2.56356e-10
2.56366e-10
2.56375e-10
2.56383e-10
2.5639e-10
2.56396e-10
2.56402e-10
2.56406e-10
2.56411e-10
2.56414e-10
2.56418e-10
2.5642e-10
2.56423e-10
2.56425e-10
2.56427e-10
2.56429e-10
2.56431e-10
2.56432e-10
2.56434e-10
2.56436e-10
2.56437e-10
2.56439e-10
2.56441e-10
2.56443e-10
2.56446e-10
2.56448e-10
2.5645e-10
2.56453e-10
2.56456e-10
2.56459e-10
2.56462e-10
2.56465e-10
2.56468e-10
2.56471e-10
2.56475e-10
2.56478e-10
2.56482e-10
2.56486e-10
2.56489e-10
2.56493e-10
2.56497e-10
2.56501e-10
2.56505e-10
2.56509e-10
2.56513e-10
2.56517e-10
2.56521e-10
2.56525e-10
2.56529e-10
2.56533e-10
2.56537e-10
2.56541e-10
2.56545e-10
2.56549e-10
2.56554e-10
2.56558e-10
2.56562e-10
2.56566e-10
2.5657e-10
2.56575e-10
2.56579e-10
2.56583e-10
2.56587e-10
2.56591e-10
2.56595e-10
2.56599e-10
2.56603e-10
2.56607e-10
2.5661e-10
2.56613e-10
2.56616e-10
2.56619e-10
2.56622e-10
2.56625e-10
2.56627e-10
2.56629e-10
2.56631e-10
2.56633e-10
2.56635e-10
2.56636e-10
2.56638e-10
2.56639e-10
2.5664e-10
2.56641e-10
2.56641e-10
2.56642e-10
2.56642e-10
2.56642e-10
2.56642e-10
2.56642e-10
2.56642e-10
2.56642e-10
2.56642e-10
2.56641e-10
2.5664e-10
2.5664e-10
2.56639e-10
2.56638e-10
2.56636e-10
2.56635e-10
2.56634e-10
2.56632e-10
2.56631e-10
2.56629e-10
2.56628e-10
2.56626e-10
2.56624e-10
2.56622e-10
2.5662e-10
2.56618e-10
2.56616e-10
2.56613e-10
2.56611e-10
2.56609e-10
2.56606e-10
2.56603e-10
2.56601e-10
2.56598e-10
2.56595e-10
2.56592e-10
2.56589e-10
2.56586e-10
2.56583e-10
2.56579e-10
2.56576e-10
2.56572e-10
2.56568e-10
2.56564e-10
2.5656e-10
2.56556e-10
2.56551e-10
2.56547e-10
2.56542e-10
2.56536e-10
2.56531e-10
2.56525e-10
2.56519e-10
2.56513e-10
2.56506e-10
2.56498e-10
2.56491e-10
2.56483e-10
2.56474e-10
2.56465e-10
2.56456e-10
2.56446e-10
2.56435e-10
2.56424e-10
2.56413e-10
2.564e-10
2.56388e-10
2.56374e-10
2.56361e-10
2.56346e-10
2.56332e-10
2.56316e-10
2.56301e-10
2.56285e-10
2.56269e-10
2.56252e-10
2.56235e-10
2.56218e-10
2.56201e-10
2.56184e-10
2.56167e-10
2.56151e-10
2.56134e-10
2.56118e-10
2.56102e-10
2.56087e-10
2.56073e-10
2.5606e-10
2.56047e-10
2.56035e-10
2.56025e-10
2.56016e-10
2.56008e-10
2.56001e-10
2.55996e-10
2.55992e-10
2.5599e-10
2.55989e-10
2.55989e-10
2.55989e-10
2.55991e-10
2.55997e-10
2.56003e-10
2.56012e-10
2.56022e-10
2.56033e-10
2.56045e-10
2.56058e-10
2.56072e-10
2.56087e-10
2.56103e-10
2.56119e-10
2.56135e-10
2.56152e-10
2.56168e-10
2.56185e-10
2.56202e-10
2.56218e-10
2.56234e-10
2.56249e-10
2.56264e-10
2.56278e-10
2.56291e-10
2.56304e-10
2.56316e-10
2.56327e-10
2.56338e-10
2.56348e-10
2.56357e-10
2.56365e-10
2.56373e-10
2.5638e-10
2.56387e-10
2.56392e-10
2.56398e-10
2.56403e-10
2.56408e-10
2.56412e-10
2.56416e-10
2.56419e-10
2.56423e-10
2.56426e-10
2.56429e-10
2.56433e-10
2.56436e-10
2.56439e-10
2.56442e-10
2.56445e-10
2.56448e-10
2.56451e-10
2.56454e-10
2.56457e-10
2.56461e-10
2.56464e-10
2.56468e-10
2.56472e-10
2.56475e-10
2.56479e-10
2.56483e-10
2.56487e-10
2.56491e-10
2.56496e-10
2.565e-10
2.56504e-10
2.56509e-10
2.56513e-10
2.56518e-10
2.56522e-10
2.56527e-10
2.56531e-10
2.56536e-10
2.56541e-10
2.56545e-10
2.5655e-10
2.56555e-10
2.56559e-10
2.56564e-10
2.56568e-10
2.56573e-10
2.56577e-10
2.56582e-10
2.56586e-10
2.5659e-10
2.56594e-10
2.56599e-10
2.56603e-10
2.56606e-10
2.5661e-10
2.56614e-10
2.56618e-10
2.56621e-10
2.56624e-10
2.56628e-10
2.56631e-10
2.56633e-10
2.56636e-10
2.56639e-10
2.56641e-10
2.56644e-10
2.56646e-10
2.56648e-10
2.56649e-10
2.56651e-10
2.56652e-10
2.56653e-10
2.56654e-10
2.56655e-10
2.56656e-10
2.56656e-10
2.56657e-10
2.56657e-10
2.56657e-10
2.56657e-10
2.56657e-10
2.56656e-10
2.56655e-10
2.56654e-10
2.56653e-10
2.56652e-10
2.5665e-10
2.56649e-10
2.56647e-10
2.56645e-10
2.56643e-10
2.56641e-10
2.56639e-10
2.56636e-10
2.56634e-10
2.56631e-10
2.56628e-10
2.56626e-10
2.56623e-10
2.5662e-10
2.56617e-10
2.56613e-10
2.5661e-10
2.56607e-10
2.56603e-10
2.566e-10
2.56596e-10
2.56592e-10
2.56589e-10
2.56585e-10
2.56581e-10
2.56577e-10
2.56573e-10
2.56568e-10
2.56564e-10
2.5656e-10
2.56555e-10
2.56551e-10
2.56546e-10
2.56541e-10
2.56536e-10
2.5653e-10
2.56525e-10
2.56519e-10
2.56513e-10
2.56507e-10
2.56501e-10
2.56494e-10
2.56488e-10
2.5648e-10
2.56473e-10
2.56465e-10
2.56457e-10
2.56449e-10
2.5644e-10
2.56431e-10
2.56421e-10
2.56411e-10
2.56401e-10
2.5639e-10
2.56379e-10
2.56367e-10
2.56356e-10
2.56343e-10
2.56331e-10
2.56318e-10
2.56304e-10
2.56291e-10
2.56277e-10
2.56263e-10
2.56248e-10
2.56234e-10
2.5622e-10
2.56205e-10
2.56191e-10
2.56176e-10
2.56162e-10
2.56148e-10
2.56134e-10
2.56121e-10
2.56108e-10
2.56095e-10
2.56083e-10
2.56072e-10
2.56061e-10
2.56052e-10
2.56043e-10
2.56035e-10
2.56029e-10
2.56023e-10
2.56018e-10
2.56015e-10
2.56013e-10
2.56012e-10
2.56012e-10
2.56012e-10
2.56013e-10
2.56016e-10
2.56021e-10
2.56027e-10
2.56035e-10
2.56043e-10
2.56053e-10
2.56063e-10
2.56075e-10
2.56087e-10
2.561e-10
2.56113e-10
2.56127e-10
2.56141e-10
2.56155e-10
2.56169e-10
2.56184e-10
2.56198e-10
2.56212e-10
2.56226e-10
2.5624e-10
2.56253e-10
2.56266e-10
2.56278e-10
2.5629e-10
2.56302e-10
2.56312e-10
2.56322e-10
2.56332e-10
2.56341e-10
2.56349e-10
2.56357e-10
2.56364e-10
2.56371e-10
2.56377e-10
2.56383e-10
2.56389e-10
2.56394e-10
2.56398e-10
2.56403e-10
2.56407e-10
2.56411e-10
)
;

boundaryField
{
    inlet
    {
        type            calculated;
        value           uniform -1.13622e-09;
    }
    outlet
    {
        type            calculated;
        value           uniform 2.56414e-10;
    }
    emptyWalls
    {
        type            empty;
        value           nonuniform List<scalar> 0();
    }
}


// ************************************************************************* //
