/*--------------------------------*- C++ -*----------------------------------*\
  =========                 |
  \\      /  F ield         | OpenFOAM: The Open Source CFD Toolbox
   \\    /   O peration     | Website:  https://openfoam.org
    \\  /    A nd           | Version:  9
     \\/     M anipulation  |
\*---------------------------------------------------------------------------*/
FoamFile
{
    format      ascii;
    class       volScalarField;
    location    "73000";
    object      krc;
}
// * * * * * * * * * * * * * * * * * * * * * * * * * * * * * * * * * * * * * //

dimensions      [0 0 0 0 0 0 0];

internalField   nonuniform List<scalar> 
100
(
3.62972e-23
1.433e-24
2.05232e-24
2.0272e-24
3.10194e-25
1.48936e-24
3.10544e-25
9.76106e-27
8.17678e-25
3.75966e-25
1.35624e-24
3.31573e-26
2.7678e-25
9.11517e-25
1.10902e-24
1.3665e-24
1.18126e-24
1.48668e-25
1.36448e-24
1.70185e-24
1.50856e-25
1.45583e-24
3.47084e-25
1.39658e-24
9.07175e-25
1.4676e-24
7.02635e-25
1.8658e-24
7.18916e-25
1.73333e-24
5.16036e-25
5.74566e-25
2.46211e-24
2.24584e-24
4.05476e-28
3.13681e-24
1.06483e-24
8.50514e-25
2.30454e-27
1.49487e-27
3.68274e-26
3.40046e-24
7.77192e-24
7.21901e-26
5.54945e-24
2.85162e-24
1.02773e-24
1.02408e-23
9.12567e-25
4.88773e-25
4.2023e-24
3.70492e-24
8.91316e-24
1.84435e-25
3.63744e-25
5.41344e-24
1.11573e-26
3.49829e-26
4.34119e-24
2.70637e-24
2.4417e-24
1.44448e-24
5.60491e-25
9.59501e-25
3.20236e-26
2.40261e-24
8.41992e-25
2.1981e-24
9.46015e-25
6.12104e-26
1.69674e-24
1.61951e-24
5.78859e-25
1.65911e-24
4.77002e-24
6.0407e-24
1.75534e-23
2.98737e-23
7.16077e-23
7.87375e-23
1.50264e-22
1.62002e-22
2.96481e-22
4.75859e-22
6.55392e-22
9.67525e-22
1.44198e-21
2.02179e-21
2.84563e-21
4.02298e-21
5.64952e-21
7.74995e-21
1.21121e-20
1.44265e-20
3.35185e-21
6.44016e-20
5.38505e-18
2.48418e-17
6.15193e-16
4.0262e-15
)
;

boundaryField
{
    inlet
    {
        type            calculated;
        value           uniform 3.62972e-23;
    }
    outlet
    {
        type            calculated;
        value           uniform 4.0262e-15;
    }
    emptyWalls
    {
        type            empty;
    }
}


// ************************************************************************* //
