/*--------------------------------*- C++ -*----------------------------------*\
  =========                 |
  \\      /  F ield         | OpenFOAM: The Open Source CFD Toolbox
   \\    /   O peration     | Website:  https://openfoam.org
    \\  /    A nd           | Version:  9
     \\/     M anipulation  |
\*---------------------------------------------------------------------------*/
FoamFile
{
    format      ascii;
    class       volScalarField;
    location    "38000";
    object      krc;
}
// * * * * * * * * * * * * * * * * * * * * * * * * * * * * * * * * * * * * * //

dimensions      [0 0 0 0 0 0 0];

internalField   nonuniform List<scalar> 
100
(
4.30104e-24
5.76591e-25
5.00144e-25
7.75778e-25
2.05717e-25
6.12298e-25
2.18662e-25
6.27347e-26
5.37343e-25
3.08099e-25
6.67036e-25
1.10091e-25
9.46855e-27
1.20266e-25
1.09222e-24
1.11241e-26
6.48963e-28
3.88585e-25
3.94969e-24
6.1695e-24
6.75977e-24
1.52351e-23
1.99951e-23
2.2356e-23
5.48862e-23
5.85549e-23
1.19956e-22
1.33001e-22
2.35133e-22
2.76345e-22
4.44662e-22
5.35136e-22
6.62862e-22
8.45772e-22
1.10395e-21
1.23325e-21
1.46264e-21
1.63392e-21
1.82076e-21
1.91092e-21
1.90944e-21
1.77998e-21
1.68835e-21
1.71961e-21
1.26347e-21
7.04652e-22
2.82996e-22
4.71531e-24
1.31564e-22
4.0068e-22
1.20973e-21
2.89662e-21
4.96593e-21
7.68164e-21
1.17895e-20
1.74346e-20
2.33818e-20
3.07431e-20
3.91721e-20
4.74619e-20
5.56785e-20
6.35225e-20
7.05287e-20
7.69691e-20
8.18673e-20
8.52879e-20
8.89929e-20
8.9366e-20
9.0396e-20
8.85767e-20
8.69675e-20
8.32917e-20
7.90975e-20
7.39035e-20
6.89053e-20
6.29197e-20
5.7523e-20
5.1381e-20
4.60624e-20
3.99963e-20
3.49045e-20
2.93541e-20
2.53861e-20
2.1409e-20
1.78716e-20
1.46552e-20
1.20221e-20
9.73022e-21
7.61889e-21
6.04495e-21
4.46469e-21
3.33407e-21
2.77279e-21
1.0454e-21
4.67186e-21
3.13718e-20
4.08345e-19
8.36423e-18
1.06043e-16
5.60454e-16
)
;

boundaryField
{
    inlet
    {
        type            calculated;
        value           uniform 4.30104e-24;
    }
    outlet
    {
        type            calculated;
        value           uniform 5.60454e-16;
    }
    emptyWalls
    {
        type            empty;
    }
}


// ************************************************************************* //
