/*--------------------------------*- C++ -*----------------------------------*\
  =========                 |
  \\      /  F ield         | OpenFOAM: The Open Source CFD Toolbox
   \\    /   O peration     | Website:  https://openfoam.org
    \\  /    A nd           | Version:  9
     \\/     M anipulation  |
\*---------------------------------------------------------------------------*/
FoamFile
{
    format      ascii;
    class       volScalarField;
    location    "2500";
    object      krc;
}
// * * * * * * * * * * * * * * * * * * * * * * * * * * * * * * * * * * * * * //

dimensions      [0 0 0 0 0 0 0];

internalField   nonuniform List<scalar> 
1000
(
2.32319e-05
0.000285357
0.00223024
0.0242092
0.0455248
0.0511329
0.0539017
0.0560208
0.0588274
0.0634919
0.0689487
0.0747272
0.0806038
0.0864776
0.0923012
0.0980493
0.103711
0.109281
0.114757
0.120141
0.125433
0.130637
0.135754
0.14079
0.145747
0.150628
0.155437
0.160178
0.164853
0.169466
0.17402
0.178517
0.18296
0.187352
0.191694
0.19599
0.200242
0.204452
0.208621
0.212753
0.216849
0.220912
0.224942
0.228942
0.232914
0.23686
0.240781
0.24468
0.248557
0.252416
0.256257
0.260082
0.263893
0.267692
0.27148
0.275259
0.279029
0.282792
0.286549
0.290301
0.294049
0.297794
0.301538
0.305282
0.309027
0.312774
0.316527
0.320286
0.324054
0.327832
0.331623
0.335429
0.339254
0.343098
0.346963
0.350854
0.354772
0.35872
0.362703
0.366722
0.37078
0.374881
0.379027
0.383221
0.387463
0.391753
0.396091
0.40047
0.404886
0.409327
0.413788
0.418275
0.422833
0.427587
0.432824
0.439101
0.447401
0.459229
0.476435
0.500359
0.530211
0.561992
0.590115
0.610921
0.624222
0.631895
0.636045
0.638205
0.639305
0.639857
0.640133
0.640269
0.640337
0.64037
0.640387
0.640395
0.6404
0.640403
0.640404
0.640406
0.640407
0.640408
0.640409
0.64041
0.640411
0.640412
0.640413
0.640413
0.640414
0.640415
0.640416
0.640417
0.640417
0.640418
0.640418
0.640419
0.640419
0.64042
0.64042
0.64042
0.64042
0.64042
0.64042
0.640419
0.640419
0.640418
0.640417
0.640416
0.640415
0.640414
0.640413
0.640412
0.64041
0.640409
0.640408
0.640406
0.640405
0.640404
0.640402
0.640401
0.6404
0.640399
0.640398
0.640397
0.640396
0.640395
0.640394
0.640394
0.640393
0.640393
0.640393
0.640393
0.640393
0.640393
0.640393
0.640393
0.640394
0.640395
0.640396
0.640397
0.640398
0.640399
0.6404
0.640401
0.640403
0.640404
0.640406
0.640407
0.640408
0.64041
0.640411
0.640412
0.640413
0.640414
0.640415
0.640416
0.640416
0.640417
0.640417
0.640418
0.640418
0.640418
0.640418
0.640418
0.640418
0.640418
0.640417
0.640417
0.640416
0.640415
0.640414
0.640413
0.640412
0.640411
0.64041
0.640408
0.640406
0.640404
0.640401
0.640398
0.640394
0.64039
0.640385
0.64038
0.640374
0.640368
0.64036
0.640352
0.640344
0.640334
0.640324
0.640313
0.640301
0.640289
0.640276
0.640263
0.640249
0.640235
0.640221
0.640207
0.640194
0.640181
0.640168
0.640157
0.640147
0.640139
0.640133
0.640129
0.640127
0.640127
0.640127
0.640129
0.640138
0.640151
0.640169
0.64019
0.640214
0.640241
0.640271
0.640303
0.640336
0.64037
0.640403
0.640436
0.640467
0.640496
0.640522
0.640546
0.640567
0.640584
0.640598
0.640609
0.640617
0.640622
0.640624
0.640624
0.640624
0.640624
0.640619
0.640612
0.640604
0.640595
0.640586
0.640576
0.640567
0.640558
0.640549
0.64054
0.640532
0.640525
0.640518
0.640512
0.640507
0.640502
0.640497
0.640494
0.640491
0.640488
0.640486
0.640485
0.640483
0.640482
0.640482
0.640481
0.640481
0.640481
0.640481
0.640481
0.640482
0.640482
0.640482
0.640483
0.640483
0.640483
0.640484
0.640484
0.640484
0.640485
0.640485
0.640485
0.640486
0.640486
0.640486
0.640486
0.640487
0.640487
0.640488
0.640488
0.640489
0.64049
0.640491
0.640491
0.640492
0.640493
0.640495
0.640496
0.640497
0.640499
0.6405
0.640502
0.640504
0.640506
0.640508
0.64051
0.640512
0.640514
0.640517
0.640519
0.640521
0.640524
0.640526
0.640529
0.640531
0.640534
0.640536
0.640539
0.640541
0.640544
0.640546
0.640548
0.64055
0.640552
0.640553
0.640555
0.640556
0.640557
0.640558
0.640558
0.640558
0.640557
0.640557
0.640556
0.640556
0.640554
0.640553
0.64055
0.640549
0.640545
0.640543
0.640538
0.640536
0.64053
0.640526
0.64052
0.640516
0.640509
0.640504
0.640497
0.640492
0.640484
0.640478
0.64047
0.640464
0.640455
0.640448
0.640439
0.640431
0.640421
0.640415
0.640404
0.640397
0.640388
0.64038
0.640369
0.640362
0.640353
0.640343
0.640333
0.640328
0.640316
0.640306
0.640299
0.640292
0.640276
0.640272
0.640272
0.640319
0.640532
0.643712
0.656653
0.660097
0.660157
0.660156
0.660156
0.660156
0.660156
0.660156
0.660156
0.660156
0.660156
0.660156
0.660156
0.660156
0.660156
0.660156
0.660156
0.660156
0.660156
0.660156
0.660156
0.660156
0.660156
0.660156
0.660156
0.660156
0.660156
0.660156
0.660156
0.660156
0.660156
0.660156
0.660156
0.660156
0.660156
0.660156
0.660156
0.660156
0.660156
0.660156
0.660156
0.660156
0.660156
0.660156
0.660156
0.660156
0.660156
0.660156
0.660156
0.660156
0.660156
0.660156
0.660156
0.660156
0.660156
0.660156
0.660156
0.660156
0.660156
0.660156
0.660156
0.660156
0.660156
0.660156
0.660156
0.660156
0.660156
0.660156
0.660156
0.660156
0.660156
0.660156
0.660156
0.660156
0.660156
0.660156
0.660156
0.660156
0.660156
0.660156
0.660156
0.660156
0.660156
0.660156
0.660156
0.660156
0.660156
0.660156
0.660156
0.660156
0.660156
0.660156
0.660156
0.660156
0.660156
0.660156
0.660156
0.660156
0.660156
0.660156
0.660156
0.660156
0.660156
0.660156
0.660156
0.660156
0.660156
0.660156
0.660156
0.660156
0.660156
0.660156
0.660156
0.660156
0.660156
0.660156
0.660156
0.660156
0.660156
0.660156
0.660156
0.660156
0.660156
0.660156
0.660156
0.660156
0.660156
0.660156
0.660156
0.660156
0.660156
0.660156
0.660156
0.660156
0.660156
0.660156
0.660156
0.660156
0.660156
0.660156
0.660156
0.660156
0.660156
0.660156
0.660156
0.660156
0.660156
0.660156
0.660156
0.660156
0.660156
0.660156
0.660156
0.660156
0.660156
0.660156
0.660156
0.660156
0.660156
0.660156
0.660156
0.660156
0.660156
0.660156
0.660156
0.660156
0.660156
0.660156
0.660156
0.660156
0.660156
0.660156
0.660156
0.660156
0.660156
0.660156
0.660156
0.660156
0.660156
0.660156
0.660156
0.660156
0.660156
0.660156
0.660156
0.660156
0.660156
0.660156
0.660156
0.660156
0.660156
0.660156
0.660156
0.660156
0.660156
0.660156
0.660156
0.660156
0.660156
0.660156
0.660156
0.660156
0.660156
0.660156
0.660156
0.660156
0.660156
0.660156
0.660156
0.660156
0.660156
0.660156
0.660156
0.660156
0.660156
0.660156
0.660156
0.660156
0.660156
0.660156
0.660156
0.660156
0.660156
0.660156
0.660156
0.660156
0.660156
0.660156
0.660156
0.660156
0.660156
0.660156
0.660156
0.660156
0.660156
0.660156
0.660156
0.660156
0.660156
0.660156
0.660156
0.660156
0.660156
0.660156
0.660156
0.660156
0.660156
0.660156
0.660156
0.660156
0.660156
0.660156
0.660156
0.660156
0.660156
0.660156
0.660156
0.660156
0.660156
0.660156
0.660156
0.660156
0.660156
0.660156
0.660156
0.660156
0.660156
0.660156
0.660156
0.660156
0.660156
0.660156
0.660156
0.660156
0.660156
0.660156
0.660156
0.660156
0.660156
0.660156
0.660156
0.660156
0.660156
0.660156
0.660156
0.660156
0.660156
0.660156
0.660156
0.660156
0.660156
0.660156
0.660156
0.660156
0.660156
0.660156
0.660156
0.660156
0.660156
0.660156
0.660156
0.660156
0.660156
0.660156
0.660156
0.660156
0.660156
0.660156
0.660156
0.660156
0.660156
0.660156
0.660156
0.660156
0.660156
0.660156
0.660156
0.660156
0.660156
0.660156
0.660156
0.660156
0.660156
0.660156
0.660156
0.660156
0.660156
0.660156
0.660156
0.660156
0.660156
0.660156
0.660156
0.660156
0.660156
0.660156
0.660156
0.660156
0.660156
0.660156
0.660156
0.660156
0.660156
0.660156
0.660156
0.660156
0.660156
0.660156
0.660156
0.660156
0.660156
0.660156
0.660156
0.660156
0.660156
0.660156
0.660156
0.660156
0.660156
0.660156
0.660156
0.660156
0.660156
0.660156
0.660156
0.660156
0.660156
0.660156
0.660156
0.660156
0.660156
0.660156
0.660156
0.660156
0.660156
0.660156
0.660156
0.660156
0.660156
0.660156
0.660156
0.660156
0.660156
0.660156
0.660156
0.660156
0.660156
0.660156
0.660156
0.660156
0.660156
0.660156
0.660156
0.660156
0.660156
0.660156
0.660156
0.660156
0.660156
0.660156
0.660156
0.660156
0.660156
0.660156
0.660156
0.660156
0.660156
0.660156
0.660156
0.660156
0.660156
0.660156
0.660156
0.660156
0.660156
0.660156
0.660156
0.660156
0.660156
0.660156
0.660156
0.660156
0.660156
0.660156
0.660156
0.660156
0.660156
0.660156
0.660156
0.660156
0.660156
0.660156
0.660156
0.660156
0.660156
0.660156
0.660156
0.660156
0.660156
0.660156
0.660156
0.660156
0.660156
0.660156
0.660156
0.660156
0.660156
0.660156
0.660156
0.660156
0.660156
0.660156
0.660156
0.660156
0.660156
0.660156
0.660156
0.660156
0.660156
0.660156
0.660156
0.660156
0.660156
0.660156
0.660156
0.660156
0.660156
0.660156
0.660156
0.660156
0.660156
0.660156
0.660156
0.660156
0.660156
0.660156
0.660156
0.660156
0.660156
0.660156
0.660156
0.660156
0.660156
0.660156
0.660156
0.660156
0.660156
0.660156
0.660156
0.660156
0.660156
0.660156
0.660156
0.660156
0.660156
0.660156
0.660156
0.660156
0.660156
0.660156
0.660156
0.660156
0.660156
0.660156
0.660156
0.660156
0.660156
0.660156
0.660156
0.660156
0.660156
0.660156
0.660156
0.660156
0.660156
0.660156
0.660156
0.660156
0.660156
0.660156
0.660156
0.660156
0.660156
0.660156
0.660156
0.660156
0.660156
0.660156
0.660156
0.660156
0.660156
0.660156
0.660156
0.660156
0.660156
0.660156
0.660156
0.660156
0.660156
0.660156
0.660156
0.660156
0.660156
0.660156
0.660156
0.660156
0.660156
0.660156
0.660156
0.660156
0.660156
0.660156
0.660156
0.660156
0.660156
0.660156
0.660156
0.660156
0.660156
0.660156
0.660156
0.660156
0.660156
0.660156
0.660156
0.660156
0.660156
0.660156
0.660156
0.660156
0.660156
0.660156
0.660156
0.660156
0.660156
0.660156
0.660156
0.660156
0.660156
0.660156
0.660156
)
;

boundaryField
{
    inlet
    {
        type            calculated;
        value           uniform 3.08149e-33;
    }
    outlet
    {
        type            calculated;
        value           uniform 0.660156;
    }
    emptyWalls
    {
        type            empty;
    }
}


// ************************************************************************* //
