/*--------------------------------*- C++ -*----------------------------------*\
  =========                 |
  \\      /  F ield         | OpenFOAM: The Open Source CFD Toolbox
   \\    /   O peration     | Website:  https://openfoam.org
    \\  /    A nd           | Version:  9
     \\/     M anipulation  |
\*---------------------------------------------------------------------------*/
FoamFile
{
    format      ascii;
    class       volScalarField;
    location    "27550";
    object      Fa;
}
// * * * * * * * * * * * * * * * * * * * * * * * * * * * * * * * * * * * * * //

dimensions      [0 0 0 0 0 0 0];

internalField   nonuniform List<scalar> 
1000
(
0.194795
0.194806
0.1948
0.194789
0.194784
0.194768
0.194744
0.194745
0.19469
0.194714
0.194626
0.194671
0.194555
0.19461
0.194492
0.194523
0.194436
0.194416
0.194359
0.194309
0.194256
0.194209
0.194153
0.194107
0.194058
0.194008
0.19397
0.193917
0.193905
0.193829
0.193861
0.193752
0.19381
0.193704
0.193741
0.193653
0.193557
0.193041
0.189818
0.166531
0.153446
0.151022
0.150104
0.149607
0.149281
0.149045
0.148857
0.148688
0.148522
0.148364
0.148232
0.14814
0.148078
0.148017
0.147928
0.147796
0.147641
0.147505
0.147441
0.147486
0.147652
0.147922
0.148251
0.148586
0.148876
0.149084
0.149196
0.149219
0.149183
0.149124
0.149059
0.148901
0.148532
0.148134
0.147726
0.147359
0.147021
0.146745
0.146515
0.146339
0.146222
0.146127
0.146067
0.146028
0.146004
0.14599
0.145979
0.145965
0.145946
0.145919
0.145885
0.145845
0.1458
0.14575
0.145699
0.145646
0.145592
0.145538
0.145485
0.145433
0.145383
0.145334
0.145287
0.145241
0.145198
0.145158
0.145121
0.145087
0.145056
0.145028
0.145
0.144973
0.144947
0.144921
0.144897
0.144873
0.144851
0.144829
0.144809
0.144789
0.14477
0.144751
0.144733
0.144716
0.144699
0.144683
0.144668
0.144655
0.144643
0.144633
0.144625
0.144618
0.144613
0.144608
0.144604
0.1446
0.144596
0.144591
0.144586
0.14458
0.144576
0.144571
0.144569
0.144568
0.14457
0.144574
0.14458
0.144588
0.144596
0.144603
0.144609
0.144613
0.144615
0.144615
0.144612
0.144606
0.144599
0.144593
0.144591
0.144596
0.144612
0.144643
0.144692
0.14476
0.144848
0.144953
0.145074
0.145209
0.145354
0.145506
0.145661
0.145818
0.145971
0.146119
0.146256
0.146378
0.146482
0.146563
0.146618
0.146644
0.14664
0.146605
0.146541
0.14645
0.146335
0.146201
0.146053
0.145896
0.145736
0.145577
0.145424
0.14528
0.145147
0.145028
0.144924
0.144834
0.144758
0.144696
0.144646
0.144606
0.144575
0.14455
0.144532
0.144516
0.144503
0.144491
0.144479
0.144467
0.144453
0.144437
0.14442
0.1444
0.144379
0.144356
0.144331
0.144304
0.144276
0.144247
0.144217
0.144187
0.144156
0.144125
0.144093
0.144062
0.144031
0.144
0.143969
0.143939
0.143909
0.14388
0.143852
0.143824
0.143797
0.14377
0.143744
0.143719
0.143695
0.143671
0.143648
0.143626
0.143605
0.143584
0.143564
0.143544
0.143526
0.143508
0.143491
0.143475
0.143459
0.143445
0.143431
0.143419
0.143407
0.143397
0.143387
0.143377
0.143368
0.14336
0.143352
0.143345
0.143338
0.143332
0.143325
0.14332
0.143315
0.143312
0.143308
0.143306
0.143305
0.143305
0.143304
0.143305
0.143305
0.143307
0.143306
0.143307
0.143306
0.143306
0.143303
0.143302
0.143299
0.1433
0.143299
0.143305
0.143311
0.143325
0.143341
0.143368
0.143398
0.143441
0.143488
0.143548
0.143613
0.14369
0.14377
0.143863
0.143957
0.14406
0.144162
0.14427
0.144374
0.144481
0.144579
0.144675
0.144759
0.144837
0.1449
0.144952
0.144987
0.145009
0.145012
0.145
0.144971
0.144927
0.144868
0.144797
0.144713
0.144621
0.144521
0.144417
0.144309
0.144201
0.144094
0.14399
0.14389
0.143796
0.143707
0.143626
0.143551
0.143483
0.143422
0.143368
0.14332
0.143278
0.14324
0.143207
0.143177
0.14315
0.143125
0.143102
0.14308
0.143059
0.143038
0.143018
0.142997
0.142975
0.142953
0.142931
0.142907
0.142883
0.142858
0.142833
0.142806
0.14278
0.142752
0.142725
0.142697
0.142669
0.142641
0.142613
0.142584
0.142557
0.142529
0.142501
0.142474
0.142447
0.142421
0.142395
0.142369
0.142345
0.14232
0.142296
0.142272
0.14225
0.142227
0.142206
0.142185
0.142165
0.142144
0.142126
0.142107
0.142089
0.142071
0.142056
0.142039
0.142024
0.142009
0.141996
0.141982
0.14197
0.141957
0.141947
0.141935
0.141925
0.141914
0.141906
0.141896
0.141889
0.14188
0.141873
0.141866
0.14186
0.141853
0.141849
0.141843
0.14184
0.141835
0.141832
0.141828
0.141826
0.141822
0.14182
0.141816
0.141815
0.141811
0.14181
0.141807
0.141807
0.141804
0.141806
0.141805
0.14181
0.141812
0.141821
0.141829
0.141844
0.141858
0.141881
0.141904
0.141936
0.141968
0.142011
0.142053
0.142106
0.142157
0.14222
0.14228
0.142351
0.142418
0.142495
0.142566
0.142646
0.142717
0.142796
0.142863
0.142937
0.142997
0.143062
0.14311
0.143162
0.143195
0.14323
0.143245
0.143261
0.143256
0.143253
0.143227
0.143205
0.14316
0.14312
0.143059
0.143005
0.142931
0.142866
0.142783
0.142713
0.142625
0.142553
0.142464
0.142394
0.142308
0.142243
0.142162
0.142104
0.14203
0.14198
0.141913
0.141872
0.141812
0.141778
0.141725
0.141699
0.141651
0.14163
0.141586
0.14157
0.14153
0.141517
0.141478
0.141468
0.14143
0.14142
0.141384
0.141374
0.141338
0.141327
0.141291
0.14128
0.141244
0.141231
0.141196
0.141182
0.141146
0.141131
0.141096
0.141079
0.141045
0.141028
0.140994
0.140976
0.140943
0.140924
0.140893
0.140873
0.140843
0.140824
0.140795
0.140775
0.140748
0.140729
0.140702
0.140683
0.140658
0.14064
0.140615
0.140599
0.140574
0.140559
0.140536
0.140522
0.140499
0.140487
0.140464
0.140454
0.140431
0.140423
0.140401
0.140394
0.140372
0.140367
0.140345
0.140343
0.14032
0.14032
0.140297
0.140299
0.140276
0.14028
0.140257
0.140263
0.140239
0.140247
0.140222
0.140233
0.140208
0.140221
0.140194
0.140209
0.140183
0.140199
0.140172
0.14019
0.140162
0.140181
0.140154
0.140174
0.140147
0.140169
0.140143
0.140166
0.140142
0.140167
0.140145
0.140173
0.140154
0.140186
0.14017
0.140207
0.140196
0.140238
0.140233
0.140281
0.140282
0.140336
0.140344
0.140405
0.140419
0.140486
0.140505
0.140578
0.140603
0.140681
0.140709
0.14079
0.14082
0.140902
0.140933
0.141014
0.141043
0.141121
0.141146
0.141218
0.141236
0.141301
0.14131
0.141365
0.141363
0.141406
0.141392
0.141423
0.141396
0.141414
0.141373
0.141378
0.141325
0.141318
0.141254
0.141236
0.141162
0.141136
0.141054
0.141022
0.140935
0.140898
0.140809
0.140771
0.140681
0.140643
0.140555
0.14052
0.140434
0.140402
0.14032
0.140293
0.140215
0.140193
0.14012
0.140102
0.140034
0.14002
0.139957
0.139947
0.139887
0.139881
0.139823
0.13982
0.139765
0.139764
0.139711
0.139711
0.139659
0.13966
0.139609
0.139611
0.13956
0.139562
0.139511
0.139513
0.139462
0.139465
0.139413
0.139415
0.139364
0.139366
0.139315
0.139316
0.139265
0.139266
0.139215
0.139217
0.139165
0.139167
0.139116
0.139119
0.139068
0.13907
0.13902
0.139023
0.138973
0.138977
0.138928
0.138933
0.138884
0.138889
0.138841
0.138847
0.1388
0.138807
0.138761
0.138769
0.138723
0.138732
0.138687
0.138697
0.138653
0.138664
0.138621
0.138633
0.138591
0.138603
0.138562
0.138575
0.138535
0.13855
0.13851
0.138525
0.138487
0.138503
0.138465
0.138482
0.138444
0.138462
0.138426
0.138444
0.138408
0.138427
0.138392
0.138412
0.138377
0.138398
0.138364
0.138385
0.138352
0.138374
0.138341
0.138364
0.138332
0.138355
0.138324
0.138349
0.138319
0.138345
0.138317
0.138345
0.138319
0.138349
0.138325
0.138357
0.138336
0.138372
0.138354
0.138393
0.138379
0.138422
0.138412
0.138459
0.138454
0.138505
0.138504
0.13856
0.138563
0.138623
0.13863
0.138694
0.138704
0.138771
0.138784
0.138854
0.138868
0.138939
0.138954
0.139025
0.139039
0.139109
0.139121
0.139188
0.139196
0.139259
0.139263
0.13932
0.139318
0.139369
0.139359
0.139402
0.139384
0.139418
0.139391
0.139416
0.13938
0.139396
0.139351
0.139358
0.139304
0.139303
0.139241
0.139232
0.139163
0.139148
0.139074
0.139054
0.138975
0.138952
0.138871
0.138846
0.138763
0.138737
0.138654
0.138629
0.138547
0.138524
0.138444
0.138423
0.138345
0.138326
0.138252
0.138236
0.138165
0.138152
0.138084
0.138075
0.138009
0.138002
0.137939
0.137935
0.137875
0.137873
0.137814
0.137814
0.137756
0.137758
0.137702
0.137704
0.137649
0.137652
0.137598
0.137602
0.137547
0.137552
0.137497
0.137502
0.137448
0.137453
0.137399
0.137404
0.13735
0.137355
0.137301
0.137307
0.137253
0.137258
0.137204
0.13721
0.137156
0.137162
0.137109
0.137116
0.137062
0.137069
0.137016
0.137024
0.136971
0.13698
0.136927
0.136937
0.136885
0.136895
0.136843
0.136854
0.136803
0.136815
0.136764
0.136777
0.136727
0.13674
0.136691
0.136705
0.136657
0.136672
0.136624
0.13664
0.136593
0.136609
0.136563
0.136581
0.136535
0.136553
0.136508
0.136527
0.136483
0.136503
0.136459
0.136479
0.136436
0.136458
0.136415
0.136437
0.136395
0.136417
0.136376
0.136399
0.136358
0.136382
0.136342
0.136366
0.136327
0.136352
0.136313
0.136339
0.1363
0.136327
0.13629
0.136317
0.136281
0.13631
0.136274
0.136305
0.136271
0.136303
0.13627
0.136305
0.136273
0.13631
0.136281
0.136321
0.136293
0.136337
0.13631
0.136358
0.136334
0.136385
0.136363
0.136419
0.136398
0.136458
0.136439
0.136504
0.136486
0.136555
0.136539
0.136611
0.136595
0.13667
0.136654
0.136733
0.136714
0.136797
0.136775
0.136861
0.136836
0.136924
0.136894
0.136985
0.136949
0.137041
0.136998
0.137091
0.13704
0.137133
0.137072
0.137165
0.137094
0.137186
0.137104
0.137195
0.137102
0.137191
0.137089
0.137176
0.137062
0.137142
0.13702
0.137094
0.136966
0.137035
0.136901
0.136964
0.136825
0.136885
0.136742
0.136799
0.136652
0.136707
0.136558
0.136612
0.136462
0.136515
0.136365
0.136419
0.136269
0.136324
0.136175
0.136231
0.136083
0.136141
0.135995
0.136055
0.135911
0.135973
0.13583
0.135895
0.135754
0.135822
0.135682
0.135752
0.135613
0.135686
0.135548
0.135623
0.135376
0.985362
)
;

boundaryField
{
    inlet
    {
        type            calculated;
        value           uniform 0.194831;
    }
    outlet
    {
        type            calculated;
        value           uniform 0.967659;
    }
    emptyWalls
    {
        type            empty;
    }
}


// ************************************************************************* //
