/*--------------------------------*- C++ -*----------------------------------*\
  =========                 |
  \\      /  F ield         | OpenFOAM: The Open Source CFD Toolbox
   \\    /   O peration     | Website:  https://openfoam.org
    \\  /    A nd           | Version:  9
     \\/     M anipulation  |
\*---------------------------------------------------------------------------*/
FoamFile
{
    format      ascii;
    class       volScalarField;
    location    "20700";
    object      p;
}
// * * * * * * * * * * * * * * * * * * * * * * * * * * * * * * * * * * * * * //

dimensions      [0 0 0 0 0 0 0];

internalField   nonuniform List<scalar> 
1000
(
187960
187534
187111
186690
186272
185856
185442
185030
184621
184214
183810
183408
183008
182610
182215
181821
181430
181041
180654
180268
179884
179501
179119
178739
178359
177981
177604
177234
176888
176626
176503
176411
176323
176237
176152
176067
175983
175899
175816
175733
175650
175567
175484
175402
175319
175237
175155
175073
174991
174909
174827
174746
174664
174582
174500
174419
174337
174256
174174
174092
174011
173930
173848
173767
173685
173604
173522
173441
173359
173277
173196
173114
173032
172950
172868
172786
172704
172622
172539
172456
172374
172290
172207
172123
172040
171955
171871
171786
171701
171616
171530
171444
171358
171271
171184
171097
171010
170922
170834
170745
170657
170568
170479
170389
170299
170209
170118
170028
169937
169845
169754
169662
169569
169477
169384
169291
169197
169104
169010
168916
168821
168726
168631
168536
168440
168344
168248
168151
168054
167957
167860
167762
167664
167566
167468
167369
167270
167171
167071
166971
166871
166771
166670
166569
166468
166367
166265
166163
166061
165958
165855
165752
165649
165546
165442
165338
165233
165129
165024
164919
164813
164708
164602
164496
164389
164283
164176
164069
163961
163854
163746
163638
163529
163421
163312
163203
163093
162984
162874
162764
162653
162543
162432
162321
162210
162099
161987
161875
161763
161650
161538
161425
161311
161198
161084
160970
160856
160742
160627
160512
160397
160281
160165
160049
159933
159817
159700
159583
159466
159348
159231
159113
158995
158876
158758
158639
158520
158400
158281
158161
158041
157921
157800
157679
157559
157437
157316
157194
157072
156950
156828
156705
156582
156459
156336
156213
156089
155965
155841
155716
155592
155467
155342
155216
155091
154965
154839
154713
154586
154459
154333
154205
154078
153950
153823
153694
153566
153438
153309
153180
153051
152922
152792
152662
152532
152402
152271
152141
152010
151879
151747
151616
151484
151352
151220
151087
150954
150822
150688
150555
150422
150288
150154
150020
149885
149751
149616
149481
149346
149210
149074
148939
148803
148666
148530
148393
148256
148119
147981
147844
147706
147568
147430
147292
147153
147014
146875
146736
146596
146457
146317
146177
146037
145896
145756
145615
145474
145333
145191
145050
144908
144766
144624
144481
144339
144196
144053
143910
143766
143623
143479
143335
143191
143046
142902
142757
142612
142466
142321
142175
142029
141883
141736
141590
141443
141296
141149
141001
140853
140706
140557
140409
140261
140112
139963
139814
139665
139515
139365
139215
139065
138915
138764
138614
138463
138311
138160
138009
137857
137705
137553
137400
137248
137095
136942
136789
136635
136482
136328
136174
136020
135866
135711
135556
135401
135246
135091
134935
134779
134623
134467
134311
134154
133997
133840
133683
133526
133368
133210
133052
132894
132736
132577
132418
132259
132100
131941
131781
131621
131461
131301
131141
130980
130820
130659
130498
130336
130175
130013
129851
129689
129527
129364
129201
129039
128875
128712
128549
128385
128221
128057
127893
127728
127564
127399
127234
127069
126903
126738
126572
126406
126240
126073
125907
125740
125573
125406
125239
125071
124903
124736
124567
124399
124231
124062
123893
123724
123555
123386
123216
123046
122876
122706
122536
122365
122195
122024
121853
121681
121510
121339
121167
120995
120823
120650
120478
120305
120132
119959
119786
119613
119439
119265
119092
118917
118743
118569
118394
118219
118044
117869
117693
117517
117341
117165
116989
116813
116636
116459
116282
116105
115927
115749
115571
115393
115215
115037
114858
114679
114500
114321
114141
113962
113782
113602
113421
113241
113060
112879
112698
112517
112336
112154
111973
111791
111608
111426
111243
111061
110878
110695
110511
110328
110144
109960
109776
109592
109407
109223
109038
108853
108668
108482
108297
108111
107925
107739
107552
107366
107179
106992
106805
106618
106430
106242
106054
105866
105678
105490
105301
105112
104923
104734
104544
104355
104165
103975
103785
103594
103404
103213
103022
102831
102639
102448
102256
102064
101872
101680
101487
101294
101102
100909
100715
100522
100328
100134
99940.4
99746.2
99551.8
99357.2
99162.4
98967.5
98772.3
98577
98381.4
98185.7
97989.8
97793.7
97597.4
97400.9
97204.3
97007.4
96810.4
96613.1
96415.7
96218.1
96020.3
95822.3
95624.1
95425.7
95227.2
95028.4
94829.5
94630.3
94431
94231.5
94031.8
93831.9
93631.8
93431.6
93231.1
93030.5
92829.7
92628.7
92427.5
92226.1
92024.5
91822.8
91620.8
91418.7
91216.4
91013.9
90811.3
90608.4
90405.4
90202.2
89998.8
89795.2
89591.4
89387.5
89183.4
88979.1
88774.6
88569.9
88365.1
88160
87954.8
87749.4
87543.8
87338
87132.1
86925.9
86719.5
86513
86306.3
86099.3
85892.2
85684.9
85477.4
85269.6
85061.7
84853.6
84645.3
84436.8
84228
84019.1
83809.9
83600.6
83391
83181.3
82971.3
82761.1
82550.8
82340.2
82129.4
81918.4
81707.2
81495.7
81284.1
81072.3
80860.2
80648
80435.5
80222.9
80010
79797
79583.7
79370.2
79156.5
78942.6
78728.5
78514.2
78299.7
78085
77870.1
77655
77439.7
77224.1
77008.4
76792.5
76576.3
76360
76143.4
75926.7
75709.7
75492.5
75275.2
75057.6
74839.8
74621.8
74403.6
74185.2
73966.5
73747.7
73528.7
73309.4
73090
72870.3
72650.4
72430.3
72210
71989.5
71768.8
71547.9
71326.7
71105.4
70883.8
70662
70440
70217.8
69995.4
69772.8
69549.9
69326.9
69103.6
68880.1
68656.4
68432.5
68208.4
67984
67759.5
67534.7
67309.7
67084.5
66859.1
66633.4
66407.6
66181.5
65955.2
65728.7
65501.9
65275
65047.8
64820.4
64592.8
64365
64137
63908.7
63680.2
63451.5
63222.6
62993.5
62764.1
62534.5
62304.7
62074.7
61844.5
61614
61383.3
61152.4
60921.3
60689.9
60458.4
60226.6
59994.6
59762.4
59529.9
59297.3
59064.4
58831.3
58598
58364.5
58130.8
57896.9
57662.8
57428.5
57194
56959.3
56724.4
56489.4
56254.1
56018.8
55783.2
55547.5
55311.7
55075.7
54839.6
54603.4
54367
54130.6
53894.1
53657.5
53420.8
53184.1
52947.3
52710.5
52473.6
52236.7
51999.8
51762.8
51525.9
51288.9
51051.9
50814.9
50577.9
50340.9
50103.9
49866.9
49629.9
49392.8
49155.8
48918.7
48681.6
48444.3
48206.7
47968.5
47729.5
47489
47245.9
46998.9
46746.4
46487.4
46222
45951.4
45677.5
45401.8
45125.3
44848.3
44571.1
44293.9
44016.6
43739.2
43461.9
43184.5
42907.2
42629.8
42352.5
42075.1
41797.7
41520.4
41243
40965.6
40688.2
40410.8
40133.4
39856
39578.5
39301.1
39023.6
38746.2
38468.7
38191.2
37913.7
37636.2
37358.7
37081.2
36803.7
36526.1
36248.6
35971
35693.4
35415.9
35138.3
34860.7
34583.1
34305.5
34027.8
33750.2
33472.6
33194.9
32917.3
32639.6
32362
32084.3
31806.7
31529
31251.3
30973.6
30695.9
30418.3
30140.6
29862.9
29585.2
29307.5
29029.8
28752.1
28474.4
28196.7
27918.9
27641.2
27363.5
27085.8
26808.1
26530.3
26252.6
25974.9
25697.1
25419.4
25141.6
24863.9
24586.1
24308.4
24030.6
23752.9
23475.1
23197.4
22919.6
22641.8
22364.1
22086.3
21808.5
21530.7
21252.9
20975.2
20697.4
20419.6
20141.8
19864
19586.2
19308.4
19030.6
18752.8
18475
18197.2
17919.4
17641.6
17363.8
17085.9
16808.1
16530.3
16252.5
15974.7
15696.8
15419
15141.2
14863.4
14585.5
14307.7
14029.9
13752
13474.2
13196.4
12918.5
12640.7
12362.9
12085
11807.2
11529.4
11251.5
10973.7
10695.9
10418
10140.2
9862.37
9584.53
9306.7
9028.86
8751.03
8473.2
8195.36
7917.53
7639.7
7361.87
7084.04
6806.21
6528.39
6250.56
5972.74
5694.91
5417.09
5139.27
4861.45
4583.64
4305.82
4028.01
3750.2
3472.39
3194.58
2916.78
2638.97
2361.17
2083.38
1805.58
1527.79
1250
972.217
694.435
416.658
138.885
)
;

boundaryField
{
    inlet
    {
        type            darcyGradPressure;
        gradient        uniform 116344;
        Mf              Mf;
        phi             phi;
        value           uniform 188173;
    }
    outlet
    {
        type            fixedValue;
        value           uniform 0;
    }
    emptyWalls
    {
        type            empty;
    }
}


// ************************************************************************* //
