/*--------------------------------*- C++ -*----------------------------------*\
  =========                 |
  \\      /  F ield         | OpenFOAM: The Open Source CFD Toolbox
   \\    /   O peration     | Website:  https://openfoam.org
    \\  /    A nd           | Version:  9
     \\/     M anipulation  |
\*---------------------------------------------------------------------------*/
FoamFile
{
    format      ascii;
    class       surfaceScalarField;
    location    "20700";
    object      phic;
}
// * * * * * * * * * * * * * * * * * * * * * * * * * * * * * * * * * * * * * //

dimensions      [0 2 0 0 0 0 0];

internalField   nonuniform List<scalar> 
999
(
1.24091e-15
5.22311e-15
1.27726e-14
2.36844e-14
3.78813e-14
5.53482e-14
7.60781e-14
1.00058e-13
1.27255e-13
1.57584e-13
1.90896e-13
2.26965e-13
2.65434e-13
3.05847e-13
3.47561e-13
3.89887e-13
4.31928e-13
4.72899e-13
5.11946e-13
5.48407e-13
5.81866e-13
6.12015e-13
6.39127e-13
6.64302e-13
6.93136e-13
7.51726e-13
9.56647e-13
1.70847e-12
5.43119e-12
1.75668e-11
2.04752e-11
2.13264e-11
2.17299e-11
2.19884e-11
2.2185e-11
2.23498e-11
2.24958e-11
2.26297e-11
2.27548e-11
2.28735e-11
2.29872e-11
2.30969e-11
2.32031e-11
2.33063e-11
2.34067e-11
2.35044e-11
2.35999e-11
2.36934e-11
2.37857e-11
2.3877e-11
2.39674e-11
2.40572e-11
2.41461e-11
2.42345e-11
2.43222e-11
2.44069e-11
2.44911e-11
2.45746e-11
2.46578e-11
2.47431e-11
2.48306e-11
2.49217e-11
2.50163e-11
2.51142e-11
2.52149e-11
2.53181e-11
2.54243e-11
2.55348e-11
2.56524e-11
2.57755e-11
2.59049e-11
2.60411e-11
2.61851e-11
2.63385e-11
2.65039e-11
2.66849e-11
2.68864e-11
2.7114e-11
2.73735e-11
2.7669e-11
2.80009e-11
2.83651e-11
2.87547e-11
2.91631e-11
2.95855e-11
3.00187e-11
3.04605e-11
3.09091e-11
3.13635e-11
3.18227e-11
3.22861e-11
3.27532e-11
3.32234e-11
3.36966e-11
3.41724e-11
3.46505e-11
3.51308e-11
3.56131e-11
3.60972e-11
3.65832e-11
3.70708e-11
3.756e-11
3.80506e-11
3.85427e-11
3.90362e-11
3.95311e-11
4.00272e-11
4.05245e-11
4.10231e-11
4.15229e-11
4.20238e-11
4.25258e-11
4.3029e-11
4.35332e-11
4.40385e-11
4.45448e-11
4.50521e-11
4.55605e-11
4.60698e-11
4.658e-11
4.70912e-11
4.76033e-11
4.81163e-11
4.86302e-11
4.9145e-11
4.96606e-11
5.01771e-11
5.06945e-11
5.12126e-11
5.17316e-11
5.22514e-11
5.2772e-11
5.32934e-11
5.38155e-11
5.43384e-11
5.4862e-11
5.53864e-11
5.59114e-11
5.64372e-11
5.69637e-11
5.74909e-11
5.80189e-11
5.85476e-11
5.9077e-11
5.96072e-11
6.01381e-11
6.06697e-11
6.1202e-11
6.17349e-11
6.22686e-11
6.28028e-11
6.33377e-11
6.38732e-11
6.44093e-11
6.4946e-11
6.54834e-11
6.60215e-11
6.65603e-11
6.70998e-11
6.76401e-11
6.81811e-11
6.87227e-11
6.92649e-11
6.98076e-11
7.03505e-11
7.08935e-11
7.14364e-11
7.19792e-11
7.25216e-11
7.30636e-11
7.36051e-11
7.41462e-11
7.46869e-11
7.52273e-11
7.57675e-11
7.63076e-11
7.68477e-11
7.73882e-11
7.79291e-11
7.84709e-11
7.90136e-11
7.95576e-11
8.01033e-11
8.06509e-11
8.12006e-11
8.17526e-11
8.23073e-11
8.28645e-11
8.34244e-11
8.39869e-11
8.45518e-11
8.5119e-11
8.56881e-11
8.62588e-11
8.68309e-11
8.74038e-11
8.79774e-11
8.85512e-11
8.91251e-11
8.96987e-11
9.0272e-11
9.08449e-11
9.14172e-11
9.19891e-11
9.25604e-11
9.31313e-11
9.37019e-11
9.42723e-11
9.48426e-11
9.54129e-11
9.59833e-11
9.65541e-11
9.71251e-11
9.76966e-11
9.82687e-11
9.88413e-11
9.94145e-11
9.99884e-11
1.00563e-10
1.01138e-10
1.01714e-10
1.02291e-10
1.02868e-10
1.03446e-10
1.04025e-10
1.04604e-10
1.05184e-10
1.05765e-10
1.06346e-10
1.06928e-10
1.0751e-10
1.08093e-10
1.08676e-10
1.0926e-10
1.09844e-10
1.10429e-10
1.11014e-10
1.116e-10
1.12186e-10
1.12773e-10
1.1336e-10
1.13947e-10
1.14535e-10
1.15124e-10
1.15713e-10
1.16302e-10
1.16892e-10
1.17482e-10
1.18073e-10
1.18664e-10
1.19256e-10
1.19847e-10
1.2044e-10
1.21033e-10
1.21626e-10
1.2222e-10
1.22814e-10
1.23408e-10
1.24003e-10
1.24598e-10
1.25194e-10
1.2579e-10
1.26387e-10
1.26984e-10
1.27581e-10
1.28178e-10
1.28777e-10
1.29375e-10
1.29974e-10
1.30573e-10
1.31173e-10
1.31773e-10
1.32373e-10
1.32974e-10
1.33576e-10
1.34177e-10
1.3478e-10
1.35382e-10
1.35985e-10
1.36589e-10
1.37193e-10
1.37797e-10
1.38402e-10
1.39007e-10
1.39613e-10
1.40219e-10
1.40825e-10
1.41432e-10
1.4204e-10
1.42648e-10
1.43256e-10
1.43865e-10
1.44475e-10
1.45085e-10
1.45695e-10
1.46306e-10
1.46917e-10
1.47528e-10
1.48139e-10
1.4875e-10
1.49362e-10
1.49973e-10
1.50583e-10
1.51193e-10
1.51803e-10
1.52412e-10
1.53021e-10
1.53629e-10
1.54237e-10
1.54843e-10
1.5545e-10
1.56056e-10
1.56661e-10
1.57267e-10
1.57872e-10
1.58478e-10
1.59084e-10
1.59691e-10
1.60299e-10
1.60908e-10
1.61518e-10
1.6213e-10
1.62745e-10
1.63361e-10
1.63979e-10
1.64601e-10
1.65225e-10
1.65851e-10
1.66481e-10
1.67113e-10
1.67748e-10
1.68385e-10
1.69025e-10
1.69667e-10
1.7031e-10
1.70956e-10
1.71602e-10
1.7225e-10
1.72898e-10
1.73547e-10
1.74196e-10
1.74845e-10
1.75494e-10
1.76142e-10
1.76791e-10
1.77438e-10
1.78086e-10
1.78732e-10
1.79379e-10
1.80024e-10
1.8067e-10
1.81315e-10
1.8196e-10
1.82605e-10
1.8325e-10
1.83895e-10
1.8454e-10
1.85185e-10
1.85831e-10
1.86477e-10
1.87124e-10
1.87771e-10
1.88419e-10
1.89067e-10
1.89717e-10
1.90366e-10
1.91017e-10
1.91668e-10
1.9232e-10
1.92972e-10
1.93626e-10
1.9428e-10
1.94934e-10
1.9559e-10
1.96246e-10
1.96902e-10
1.9756e-10
1.98218e-10
1.98876e-10
1.99535e-10
2.00195e-10
2.00855e-10
2.01516e-10
2.02178e-10
2.0284e-10
2.03502e-10
2.04165e-10
2.04829e-10
2.05493e-10
2.06158e-10
2.06823e-10
2.07488e-10
2.08155e-10
2.08821e-10
2.09489e-10
2.10156e-10
2.10825e-10
2.11493e-10
2.12163e-10
2.12832e-10
2.13503e-10
2.14173e-10
2.14845e-10
2.15516e-10
2.16189e-10
2.16861e-10
2.17535e-10
2.18209e-10
2.18883e-10
2.19558e-10
2.20233e-10
2.20909e-10
2.21585e-10
2.22262e-10
2.22939e-10
2.23617e-10
2.24295e-10
2.24974e-10
2.25653e-10
2.26333e-10
2.27013e-10
2.27694e-10
2.28376e-10
2.29058e-10
2.2974e-10
2.30423e-10
2.31107e-10
2.31791e-10
2.32476e-10
2.33161e-10
2.33847e-10
2.34534e-10
2.35221e-10
2.35908e-10
2.36597e-10
2.37286e-10
2.37975e-10
2.38665e-10
2.39356e-10
2.40047e-10
2.40739e-10
2.41432e-10
2.42125e-10
2.42819e-10
2.43513e-10
2.44208e-10
2.44903e-10
2.45598e-10
2.46294e-10
2.4699e-10
2.47686e-10
2.48383e-10
2.49079e-10
2.49775e-10
2.50471e-10
2.51167e-10
2.51863e-10
2.52558e-10
2.53254e-10
2.53948e-10
2.54643e-10
2.55337e-10
2.5603e-10
2.56724e-10
2.57417e-10
2.5811e-10
2.58803e-10
2.59496e-10
2.6019e-10
2.60884e-10
2.61579e-10
2.62274e-10
2.62971e-10
2.63669e-10
2.64368e-10
2.65069e-10
2.65772e-10
2.66477e-10
2.67184e-10
2.67894e-10
2.68607e-10
2.69323e-10
2.70041e-10
2.70763e-10
2.71487e-10
2.72215e-10
2.72945e-10
2.73679e-10
2.74415e-10
2.75155e-10
2.75896e-10
2.7664e-10
2.77387e-10
2.78135e-10
2.78885e-10
2.79636e-10
2.80389e-10
2.81143e-10
2.81897e-10
2.82653e-10
2.83408e-10
2.84164e-10
2.8492e-10
2.85676e-10
2.86433e-10
2.87189e-10
2.87945e-10
2.88701e-10
2.89457e-10
2.90213e-10
2.90968e-10
2.91724e-10
2.9248e-10
2.93237e-10
2.93993e-10
2.9475e-10
2.95507e-10
2.96265e-10
2.97023e-10
2.97782e-10
2.98542e-10
2.99302e-10
3.00063e-10
3.00825e-10
3.01588e-10
3.02352e-10
3.03117e-10
3.03884e-10
3.04651e-10
3.05419e-10
3.06188e-10
3.06958e-10
3.0773e-10
3.08502e-10
3.09276e-10
3.1005e-10
3.10826e-10
3.11603e-10
3.12381e-10
3.1316e-10
3.1394e-10
3.14721e-10
3.15503e-10
3.16286e-10
3.17071e-10
3.17856e-10
3.18642e-10
3.19429e-10
3.20217e-10
3.21007e-10
3.21797e-10
3.22588e-10
3.2338e-10
3.24173e-10
3.24968e-10
3.25763e-10
3.26559e-10
3.27356e-10
3.28154e-10
3.28953e-10
3.29753e-10
3.30554e-10
3.31356e-10
3.32159e-10
3.32963e-10
3.33768e-10
3.34574e-10
3.35381e-10
3.36189e-10
3.36998e-10
3.37808e-10
3.38619e-10
3.39432e-10
3.40245e-10
3.41059e-10
3.41874e-10
3.4269e-10
3.43507e-10
3.44325e-10
3.45145e-10
3.45965e-10
3.46786e-10
3.47609e-10
3.48433e-10
3.49257e-10
3.50083e-10
3.5091e-10
3.51738e-10
3.52567e-10
3.53397e-10
3.54229e-10
3.55061e-10
3.55895e-10
3.5673e-10
3.57566e-10
3.58404e-10
3.59242e-10
3.60082e-10
3.60923e-10
3.61766e-10
3.62609e-10
3.63454e-10
3.643e-10
3.65147e-10
3.65996e-10
3.66846e-10
3.67697e-10
3.68549e-10
3.69403e-10
3.70258e-10
3.71114e-10
3.71971e-10
3.72829e-10
3.73688e-10
3.74548e-10
3.75409e-10
3.76271e-10
3.77134e-10
3.77997e-10
3.78862e-10
3.79727e-10
3.80592e-10
3.81459e-10
3.82326e-10
3.83193e-10
3.84061e-10
3.8493e-10
3.85799e-10
3.86668e-10
3.87538e-10
3.88409e-10
3.89281e-10
3.90153e-10
3.91026e-10
3.919e-10
3.92775e-10
3.93651e-10
3.94529e-10
3.95408e-10
3.96289e-10
3.97171e-10
3.98056e-10
3.98942e-10
3.99831e-10
4.00723e-10
4.01618e-10
4.02515e-10
4.03416e-10
4.0432e-10
4.05227e-10
4.06139e-10
4.07054e-10
4.07973e-10
4.08896e-10
4.09824e-10
4.10755e-10
4.11691e-10
4.12632e-10
4.13576e-10
4.14525e-10
4.15478e-10
4.16435e-10
4.17396e-10
4.18361e-10
4.19329e-10
4.20301e-10
4.21276e-10
4.22255e-10
4.23236e-10
4.2422e-10
4.25207e-10
4.26196e-10
4.27187e-10
4.28181e-10
4.29176e-10
4.30173e-10
4.31172e-10
4.32173e-10
4.33175e-10
4.34179e-10
4.35184e-10
4.36191e-10
4.37199e-10
4.38208e-10
4.3922e-10
4.40233e-10
4.41247e-10
4.42263e-10
4.43281e-10
4.44301e-10
4.45323e-10
4.46347e-10
4.47372e-10
4.484e-10
4.49431e-10
4.50463e-10
4.51498e-10
4.52536e-10
4.53576e-10
4.54618e-10
4.55664e-10
4.56712e-10
4.57763e-10
4.58816e-10
4.59873e-10
4.60932e-10
4.61995e-10
4.63061e-10
4.64129e-10
4.65201e-10
4.66276e-10
4.67354e-10
4.68435e-10
4.69519e-10
4.70607e-10
4.71698e-10
4.72792e-10
4.73889e-10
4.7499e-10
4.76094e-10
4.77201e-10
4.78312e-10
4.79426e-10
4.80543e-10
4.81664e-10
4.82788e-10
4.83916e-10
4.85047e-10
4.86182e-10
4.8732e-10
4.88462e-10
4.89608e-10
4.90756e-10
4.91909e-10
4.93065e-10
4.94225e-10
4.95389e-10
4.96556e-10
4.97727e-10
4.98902e-10
5.0008e-10
5.01263e-10
5.02449e-10
5.03639e-10
5.04833e-10
5.06031e-10
5.07233e-10
5.08439e-10
5.09649e-10
5.10862e-10
5.1208e-10
5.13302e-10
5.14527e-10
5.15757e-10
5.16991e-10
5.18228e-10
5.1947e-10
5.20715e-10
5.21965e-10
5.23218e-10
5.24475e-10
5.25735e-10
5.26999e-10
5.28266e-10
5.29537e-10
5.30811e-10
5.32088e-10
5.33367e-10
5.34649e-10
5.35933e-10
5.37219e-10
5.38505e-10
5.39792e-10
5.4108e-10
5.42367e-10
5.43652e-10
5.44935e-10
5.46215e-10
5.47489e-10
5.48758e-10
5.50019e-10
5.51271e-10
5.52511e-10
5.53737e-10
5.54948e-10
5.56139e-10
5.57309e-10
5.58455e-10
5.59573e-10
5.6066e-10
5.61713e-10
5.62728e-10
5.63702e-10
5.64633e-10
5.65517e-10
5.66352e-10
5.67135e-10
5.67865e-10
5.68541e-10
5.69162e-10
5.6973e-10
5.70244e-10
5.70704e-10
5.71114e-10
5.71475e-10
5.71789e-10
5.72062e-10
5.72297e-10
5.72493e-10
5.72657e-10
5.72791e-10
5.72899e-10
5.72987e-10
5.73054e-10
5.73109e-10
5.73151e-10
5.73188e-10
5.73228e-10
5.73283e-10
5.73378e-10
5.73543e-10
5.73846e-10
5.74397e-10
5.75397e-10
5.77205e-10
5.80438e-10
5.86154e-10
5.9608e-10
6.12815e-10
6.39686e-10
6.79624e-10
7.32563e-10
7.92787e-10
8.50056e-10
8.95521e-10
9.26441e-10
9.45209e-10
9.5579e-10
9.61502e-10
9.64511e-10
9.66074e-10
9.66881e-10
9.67297e-10
9.67513e-10
9.67628e-10
9.67693e-10
9.67733e-10
9.67762e-10
9.67788e-10
9.67812e-10
9.67838e-10
9.67866e-10
9.67896e-10
9.67928e-10
9.67962e-10
9.67998e-10
9.68036e-10
9.68075e-10
9.68115e-10
9.68156e-10
9.68198e-10
9.6824e-10
9.68282e-10
9.68325e-10
9.68367e-10
9.68408e-10
9.68449e-10
9.68489e-10
9.68529e-10
9.68567e-10
9.68604e-10
9.6864e-10
9.68674e-10
9.68708e-10
9.68739e-10
9.6877e-10
9.68799e-10
9.68827e-10
9.68853e-10
9.68878e-10
9.68902e-10
9.68924e-10
9.68946e-10
9.68966e-10
9.68985e-10
9.69003e-10
9.69021e-10
9.69037e-10
9.69053e-10
9.69069e-10
9.69083e-10
9.69097e-10
9.69111e-10
9.69124e-10
9.69137e-10
9.6915e-10
9.69162e-10
9.69174e-10
9.69186e-10
9.69198e-10
9.69209e-10
9.69221e-10
9.69233e-10
9.69244e-10
9.69256e-10
9.69267e-10
9.69278e-10
9.6929e-10
9.69301e-10
9.69313e-10
9.69324e-10
9.69335e-10
9.69347e-10
9.69358e-10
9.69369e-10
9.69381e-10
9.69392e-10
9.69403e-10
9.69414e-10
9.69425e-10
9.69435e-10
9.69446e-10
9.69457e-10
9.69467e-10
9.69477e-10
9.69487e-10
9.69497e-10
9.69506e-10
9.69516e-10
9.69525e-10
9.69534e-10
9.69543e-10
9.69551e-10
9.69559e-10
9.69567e-10
9.69575e-10
9.69582e-10
9.69589e-10
9.69596e-10
9.69602e-10
9.69608e-10
9.69614e-10
9.6962e-10
9.69625e-10
9.6963e-10
9.69634e-10
9.69639e-10
9.69643e-10
9.69646e-10
9.6965e-10
9.69653e-10
9.69655e-10
9.69658e-10
9.6966e-10
9.69661e-10
9.69663e-10
9.69664e-10
9.69664e-10
9.69665e-10
9.69665e-10
9.69665e-10
9.69665e-10
9.69664e-10
9.69663e-10
9.69662e-10
9.69661e-10
9.69659e-10
9.69656e-10
9.69654e-10
9.69651e-10
9.69648e-10
9.69645e-10
9.69641e-10
9.69638e-10
9.69634e-10
9.69629e-10
9.69625e-10
9.6962e-10
9.69614e-10
9.69609e-10
9.69603e-10
9.69597e-10
9.6959e-10
9.69583e-10
9.69576e-10
9.69569e-10
9.69561e-10
9.69552e-10
9.69543e-10
9.69533e-10
9.69524e-10
9.69513e-10
9.69502e-10
9.69489e-10
9.69477e-10
9.69463e-10
9.69449e-10
9.69434e-10
9.69418e-10
)
;

boundaryField
{
    inlet
    {
        type            calculated;
        value           uniform 0;
    }
    outlet
    {
        type            calculated;
        value           uniform 9.69401e-10;
    }
    emptyWalls
    {
        type            empty;
        value           nonuniform List<scalar> 0();
    }
}


// ************************************************************************* //
