/*--------------------------------*- C++ -*----------------------------------*\
  =========                 |
  \\      /  F ield         | OpenFOAM: The Open Source CFD Toolbox
   \\    /   O peration     | Website:  https://openfoam.org
    \\  /    A nd           | Version:  9
     \\/     M anipulation  |
\*---------------------------------------------------------------------------*/
FoamFile
{
    format      ascii;
    class       volScalarField;
    location    "1200";
    object      kra;
}
// * * * * * * * * * * * * * * * * * * * * * * * * * * * * * * * * * * * * * //

dimensions      [0 0 0 0 0 0 0];

internalField   nonuniform List<scalar> 
100
(
3.90287e-05
2.82217e-05
3.04418e-05
2.89226e-05
2.88152e-05
2.8298e-05
2.79555e-05
2.75657e-05
2.7304e-05
2.75684e-05
2.76092e-05
2.77196e-05
2.77891e-05
2.78621e-05
2.79226e-05
2.79777e-05
2.80254e-05
2.8067e-05
2.81023e-05
2.81317e-05
2.81552e-05
2.81729e-05
2.81847e-05
2.81906e-05
2.81905e-05
2.8184e-05
2.81708e-05
2.81504e-05
2.81218e-05
2.80838e-05
2.80343e-05
2.79703e-05
2.78863e-05
2.77727e-05
2.76103e-05
2.73568e-05
2.68996e-05
2.58567e-05
2.24959e-05
1.10491e-05
8.2918e-07
4.82548e-10
2.71239e-17
1.73802e-32
3.03604e-35
2.78323e-35
3.03496e-35
3.03131e-35
2.7495e-35
2.70782e-35
1.18099e-35
1.83681e-36
1.13334e-36
1.21235e-36
1.111e-36
1.17767e-36
1.11099e-36
1.11099e-36
1.17767e-36
1.21174e-36
1.17767e-36
1.21174e-36
1.17767e-36
1.11099e-36
1.11099e-36
1.31689e-36
1.21174e-36
1.28135e-36
1.11099e-36
1.11099e-36
1.21174e-36
1.28135e-36
1.21174e-36
1.31689e-36
1.28135e-36
1.31689e-36
1.21174e-36
1.21174e-36
1.21174e-36
1.28135e-36
1.11099e-36
1.31689e-36
1.21174e-36
1.21174e-36
1.28135e-36
1.07838e-36
1.31689e-36
1.21174e-36
1.28135e-36
1.31689e-36
1.28135e-36
1.31689e-36
1.21174e-36
1.28135e-36
1.31689e-36
1.11099e-36
1.28135e-36
1.31689e-36
1.28135e-36
1.31689e-36
)
;

boundaryField
{
    inlet
    {
        type            calculated;
        value           uniform 1.07824e-05;
    }
    outlet
    {
        type            calculated;
        value           uniform 4.72742e-37;
    }
    emptyWalls
    {
        type            empty;
    }
}


// ************************************************************************* //
