/*--------------------------------*- C++ -*----------------------------------*\
  =========                 |
  \\      /  F ield         | OpenFOAM: The Open Source CFD Toolbox
   \\    /   O peration     | Website:  https://openfoam.org
    \\  /    A nd           | Version:  9
     \\/     M anipulation  |
\*---------------------------------------------------------------------------*/
FoamFile
{
    format      ascii;
    class       volScalarField;
    location    "1200";
    object      Nca;
}
// * * * * * * * * * * * * * * * * * * * * * * * * * * * * * * * * * * * * * //

dimensions      [0 0 0 0 0 0 0];

internalField   nonuniform List<scalar> 
100
(
0.000264966
0.000208626
0.000232876
0.000229397
0.000235123
0.000237069
0.000239976
0.000242351
0.000244261
0.000243228
0.000240874
0.000239189
0.000237366
0.000235681
0.00023401
0.000232386
0.000230784
0.000229205
0.000227639
0.000226082
0.000224529
0.000222974
0.000221412
0.000219836
0.00021824
0.000216615
0.00021495
0.000213233
0.000211446
0.000209565
0.000207554
0.000205363
0.00020291
0.000200061
0.00019658
0.000192008
0.000185349
0.000174106
0.000151402
0.000108088
6.36376e-05
4.46706e-05
4.22733e-05
4.22228e-05
4.22224e-05
4.2222e-05
4.22214e-05
4.22191e-05
4.21992e-05
4.19884e-05
3.88642e-05
2.60943e-05
1.43296e-05
1.23353e-05
1.22654e-05
1.22636e-05
1.22636e-05
1.22636e-05
1.22636e-05
1.22636e-05
1.22636e-05
1.22636e-05
1.22636e-05
1.22636e-05
1.22636e-05
1.22636e-05
1.22636e-05
1.22636e-05
1.22636e-05
1.22636e-05
1.22636e-05
1.22636e-05
1.22636e-05
1.22636e-05
1.22636e-05
1.22636e-05
1.22636e-05
1.22636e-05
1.22636e-05
1.22636e-05
1.22636e-05
1.22636e-05
1.22636e-05
1.22636e-05
1.22636e-05
1.22636e-05
1.22636e-05
1.22636e-05
1.22636e-05
1.22636e-05
1.22636e-05
1.22636e-05
1.22636e-05
1.22636e-05
1.22636e-05
1.22636e-05
1.22636e-05
1.22636e-05
1.22636e-05
1.22636e-05
)
;

boundaryField
{
    inlet
    {
        type            calculated;
        value           uniform 0.000354629;
    }
    outlet
    {
        type            calculated;
        value           uniform 1.22636e-05;
    }
    emptyWalls
    {
        type            empty;
    }
}


// ************************************************************************* //
