/*--------------------------------*- C++ -*----------------------------------*\
  =========                 |
  \\      /  F ield         | OpenFOAM: The Open Source CFD Toolbox
   \\    /   O peration     | Website:  https://openfoam.org
    \\  /    A nd           | Version:  9
     \\/     M anipulation  |
\*---------------------------------------------------------------------------*/
FoamFile
{
    format      ascii;
    class       volScalarField;
    location    "1200";
    object      p;
}
// * * * * * * * * * * * * * * * * * * * * * * * * * * * * * * * * * * * * * //

dimensions      [0 0 0 0 0 0 0];

internalField   nonuniform List<scalar> 
100
(
5.45681e+06
5.4485e+06
5.43702e+06
5.42641e+06
5.41526e+06
5.4041e+06
5.39277e+06
5.38134e+06
5.36978e+06
5.35817e+06
5.34671e+06
5.33532e+06
5.32402e+06
5.3128e+06
5.30167e+06
5.29061e+06
5.27962e+06
5.26872e+06
5.25788e+06
5.24712e+06
5.23644e+06
5.22582e+06
5.21529e+06
5.20482e+06
5.19443e+06
5.18412e+06
5.17389e+06
5.16373e+06
5.15366e+06
5.14367e+06
5.13378e+06
5.12399e+06
5.1143e+06
5.10474e+06
5.09532e+06
5.08609e+06
5.07711e+06
5.06851e+06
5.0606e+06
5.05415e+06
5.05035e+06
5.04812e+06
5.04611e+06
5.04411e+06
5.0421e+06
5.0401e+06
5.0381e+06
5.0361e+06
5.03409e+06
5.03209e+06
5.03011e+06
5.02841e+06
5.02763e+06
5.02705e+06
5.02646e+06
5.02588e+06
5.0253e+06
5.02472e+06
5.02414e+06
5.02356e+06
5.02297e+06
5.02239e+06
5.02181e+06
5.02123e+06
5.02065e+06
5.02007e+06
5.01949e+06
5.0189e+06
5.01832e+06
5.01774e+06
5.01716e+06
5.01658e+06
5.016e+06
5.01541e+06
5.01483e+06
5.01425e+06
5.01367e+06
5.01309e+06
5.01251e+06
5.01192e+06
5.01134e+06
5.01076e+06
5.01018e+06
5.0096e+06
5.00902e+06
5.00843e+06
5.00785e+06
5.00727e+06
5.00669e+06
5.00611e+06
5.00553e+06
5.00494e+06
5.00436e+06
5.00378e+06
5.0032e+06
5.00262e+06
5.00204e+06
5.00145e+06
5.00087e+06
5.00029e+06
)
;

boundaryField
{
    inlet
    {
        type            darcyGradPressure;
        gradient        uniform 4.2049e+06;
        Mf              Mf;
        phi             phi;
        value           uniform 5.46522e+06;
    }
    outlet
    {
        type            fixedValue;
        value           uniform 5e+06;
    }
    emptyWalls
    {
        type            empty;
    }
}


// ************************************************************************* //
