/*--------------------------------*- C++ -*----------------------------------*\
  =========                 |
  \\      /  F ield         | OpenFOAM: The Open Source CFD Toolbox
   \\    /   O peration     | Website:  https://openfoam.org
    \\  /    A nd           | Version:  9
     \\/     M anipulation  |
\*---------------------------------------------------------------------------*/
FoamFile
{
    format      ascii;
    class       surfaceScalarField;
    location    "1200";
    object      phia;
}
// * * * * * * * * * * * * * * * * * * * * * * * * * * * * * * * * * * * * * //

dimensions      [0 2 0 0 0 0 0];

internalField   nonuniform List<scalar> 
99
(
1.41862e-08
1.4158e-08
1.41264e-08
1.40924e-08
1.40558e-08
1.40164e-08
1.39734e-08
1.39251e-08
1.3864e-08
1.38082e-08
1.37495e-08
1.36903e-08
1.3629e-08
1.3566e-08
1.3501e-08
1.34339e-08
1.33645e-08
1.32929e-08
1.32187e-08
1.31419e-08
1.30622e-08
1.29795e-08
1.28933e-08
1.28034e-08
1.27094e-08
1.26105e-08
1.2506e-08
1.2395e-08
1.22758e-08
1.21465e-08
1.20039e-08
1.18432e-08
1.16568e-08
1.14314e-08
1.11428e-08
1.07414e-08
1.01128e-08
8.94631e-09
6.33865e-09
1.83851e-09
8.08354e-11
4.23465e-14
2.37463e-21
1.52157e-36
2.65792e-39
2.43658e-39
2.6569e-39
2.65346e-39
2.40474e-39
2.34662e-39
8.79896e-40
6.19104e-41
2.91476e-41
3.08364e-41
2.82506e-41
2.99456e-41
2.825e-41
2.825e-41
2.99456e-41
3.0812e-41
2.99456e-41
3.0812e-41
2.99456e-41
2.825e-41
2.825e-41
3.34858e-41
3.0812e-41
3.25821e-41
2.825e-41
2.825e-41
3.0812e-41
3.25821e-41
3.0812e-41
3.34858e-41
3.25821e-41
3.34858e-41
3.0812e-41
3.0812e-41
3.0812e-41
3.25821e-41
2.825e-41
3.34858e-41
3.0812e-41
3.0812e-41
3.25821e-41
2.74209e-41
3.34858e-41
3.0812e-41
3.25821e-41
3.34858e-41
3.25821e-41
3.34858e-41
3.0812e-41
3.25821e-41
3.34858e-41
2.825e-41
3.25821e-41
3.34858e-41
3.25821e-41
)
;

boundaryField
{
    inlet
    {
        type            calculated;
        value           uniform -1.42126e-08;
    }
    outlet
    {
        type            calculated;
        value           uniform 1.20208e-41;
    }
    emptyWalls
    {
        type            empty;
        value           nonuniform List<scalar> 0();
    }
}


// ************************************************************************* //
