/*--------------------------------*- C++ -*----------------------------------*\
  =========                 |
  \\      /  F ield         | OpenFOAM: The Open Source CFD Toolbox
   \\    /   O peration     | Website:  https://openfoam.org
    \\  /    A nd           | Version:  9
     \\/     M anipulation  |
\*---------------------------------------------------------------------------*/
FoamFile
{
    format      ascii;
    class       surfaceScalarField;
    location    "1200";
    object      phib;
}
// * * * * * * * * * * * * * * * * * * * * * * * * * * * * * * * * * * * * * //

dimensions      [0 2 0 0 0 0 0];

internalField   nonuniform List<scalar> 
99
(
6.09013e-09
6.08891e-09
6.08753e-09
6.08609e-09
6.08452e-09
6.08286e-09
6.08103e-09
6.07898e-09
6.08226e-09
6.08352e-09
6.08572e-09
6.08771e-09
6.08997e-09
6.09231e-09
6.09484e-09
6.09753e-09
6.10041e-09
6.10349e-09
6.1068e-09
6.11036e-09
6.11421e-09
6.11838e-09
6.12289e-09
6.12781e-09
6.13315e-09
6.13898e-09
6.14535e-09
6.15234e-09
6.16009e-09
6.16878e-09
6.17872e-09
6.19038e-09
6.20459e-09
6.22285e-09
6.24812e-09
6.28715e-09
6.35837e-09
6.52774e-09
7.09193e-09
8.51979e-09
9.17334e-09
9.20394e-09
9.20403e-09
9.20457e-09
9.20525e-09
9.20597e-09
9.2072e-09
9.21381e-09
9.27296e-09
9.83937e-09
1.42876e-08
1.9727e-08
2.00847e-08
2.0094e-08
2.00942e-08
2.00942e-08
2.00942e-08
2.00942e-08
2.00942e-08
2.00942e-08
2.00942e-08
2.00942e-08
2.00942e-08
2.00942e-08
2.00942e-08
2.00942e-08
2.00942e-08
2.00942e-08
2.00942e-08
2.00942e-08
2.00942e-08
2.00942e-08
2.00942e-08
2.00942e-08
2.00942e-08
2.00942e-08
2.00942e-08
2.00942e-08
2.00942e-08
2.00942e-08
2.00942e-08
2.00942e-08
2.00942e-08
2.00942e-08
2.00942e-08
2.00942e-08
2.00942e-08
2.00942e-08
2.00942e-08
2.00942e-08
2.00942e-08
2.00942e-08
2.00942e-08
2.00942e-08
2.00942e-08
2.00942e-08
2.00942e-08
2.00942e-08
2.00942e-08
)
;

boundaryField
{
    inlet
    {
        type            calculated;
        value           uniform -6.09112e-09;
    }
    outlet
    {
        type            calculated;
        value           uniform 2.00942e-08;
    }
    emptyWalls
    {
        type            empty;
        value           nonuniform List<scalar> 0();
    }
}


// ************************************************************************* //
