/*--------------------------------*- C++ -*----------------------------------*\
  =========                 |
  \\      /  F ield         | OpenFOAM: The Open Source CFD Toolbox
   \\    /   O peration     | Website:  https://openfoam.org
    \\  /    A nd           | Version:  9
     \\/     M anipulation  |
\*---------------------------------------------------------------------------*/
FoamFile
{
    format      ascii;
    class       surfaceScalarField;
    location    "1200";
    object      phic;
}
// * * * * * * * * * * * * * * * * * * * * * * * * * * * * * * * * * * * * * //

dimensions      [0 2 0 0 0 0 0];

internalField   nonuniform List<scalar> 
99
(
2.73552e-11
5.67937e-11
8.98212e-11
1.25266e-10
1.63402e-10
2.04459e-10
2.49276e-10
2.9961e-10
3.57479e-10
4.11966e-10
4.68514e-10
5.25757e-10
5.84766e-10
6.45396e-10
7.07898e-10
7.72322e-10
8.38785e-10
9.07384e-10
9.7824e-10
1.05149e-09
1.12731e-09
1.2059e-09
1.28752e-09
1.37249e-09
1.46123e-09
1.55428e-09
1.65235e-09
1.75642e-09
1.86781e-09
1.98844e-09
2.12112e-09
2.27012e-09
2.44234e-09
2.64947e-09
2.91286e-09
3.27523e-09
3.83256e-09
4.82968e-09
6.87315e-09
9.94544e-09
1.10496e-08
1.10998e-08
1.10997e-08
1.10992e-08
1.10985e-08
1.10978e-08
1.10965e-08
1.10899e-08
1.10308e-08
1.04644e-08
6.01609e-09
5.76697e-10
2.19008e-10
2.09727e-10
2.09496e-10
2.0949e-10
2.0949e-10
2.0949e-10
2.0949e-10
2.0949e-10
2.0949e-10
2.0949e-10
2.0949e-10
2.0949e-10
2.0949e-10
2.0949e-10
2.0949e-10
2.0949e-10
2.0949e-10
2.0949e-10
2.0949e-10
2.0949e-10
2.0949e-10
2.0949e-10
2.0949e-10
2.0949e-10
2.0949e-10
2.0949e-10
2.0949e-10
2.0949e-10
2.0949e-10
2.0949e-10
2.0949e-10
2.0949e-10
2.0949e-10
2.0949e-10
2.0949e-10
2.0949e-10
2.0949e-10
2.0949e-10
2.0949e-10
2.0949e-10
2.0949e-10
2.0949e-10
2.0949e-10
2.0949e-10
2.0949e-10
2.0949e-10
2.0949e-10
)
;

boundaryField
{
    inlet
    {
        type            calculated;
        value           uniform 0;
    }
    outlet
    {
        type            calculated;
        value           uniform 2.0949e-10;
    }
    emptyWalls
    {
        type            empty;
        value           nonuniform List<scalar> 0();
    }
}


// ************************************************************************* //
