/*--------------------------------*- C++ -*----------------------------------*\
  =========                 |
  \\      /  F ield         | OpenFOAM: The Open Source CFD Toolbox
   \\    /   O peration     | Website:  https://openfoam.org
    \\  /    A nd           | Version:  9
     \\/     M anipulation  |
\*---------------------------------------------------------------------------*/
FoamFile
{
    format      ascii;
    class       volVectorField;
    location    "1200";
    object      Ua;
}
// * * * * * * * * * * * * * * * * * * * * * * * * * * * * * * * * * * * * * //

dimensions      [0 0 0 0 0 0 0];

internalField   nonuniform List<vector> 
100
(
(0 0 8.79913e-06)
(0 0 1.12778e-05)
(0 0 1.1254e-05)
(0 0 1.12279e-05)
(0 0 1.11998e-05)
(0 0 1.11696e-05)
(0 0 1.11368e-05)
(0 0 1.11005e-05)
(0 0 1.10569e-05)
(0 0 1.10104e-05)
(0 0 1.09649e-05)
(0 0 1.09179e-05)
(0 0 1.087e-05)
(0 0 1.08206e-05)
(0 0 1.07696e-05)
(0 0 1.0717e-05)
(0 0 1.06628e-05)
(0 0 1.06066e-05)
(0 0 1.05486e-05)
(0 0 1.04885e-05)
(0 0 1.04263e-05)
(0 0 1.03617e-05)
(0 0 1.02945e-05)
(0 0 1.02244e-05)
(0 0 1.01512e-05)
(0 0 1.00744e-05)
(0 0 9.99354e-06)
(0 0 9.9078e-06)
(0 0 9.8162e-06)
(0 0 9.71734e-06)
(0 0 9.60914e-06)
(0 0 9.48848e-06)
(0 0 9.35037e-06)
(0 0 9.18651e-06)
(0 0 8.98198e-06)
(0 0 8.70741e-06)
(0 0 8.2976e-06)
(0 0 7.58338e-06)
(0 0 6.08169e-06)
(0 0 3.25359e-06)
(0 0 7.63682e-07)
(0 0 3.21802e-08)
(0 0 1.68491e-11)
(0 0 9.44833e-19)
(0 0 6.06473e-34)
(0 0 2.02704e-36)
(0 0 2.02663e-36)
(0 0 2.11293e-36)
(0 0 2.0126e-36)
(0 0 1.89051e-36)
(0 0 1.28379e-36)
(0 0 3.74733e-37)
(0 0 3.62308e-38)
(0 0 2.38669e-38)
(0 0 2.351e-38)
(0 0 2.31555e-38)
(0 0 2.31553e-38)
(0 0 2.24807e-38)
(0 0 2.31553e-38)
(0 0 2.41747e-38)
(0 0 2.41747e-38)
(0 0 2.41747e-38)
(0 0 2.41747e-38)
(0 0 2.31553e-38)
(0 0 2.24807e-38)
(0 0 2.45639e-38)
(0 0 2.55833e-38)
(0 0 2.52237e-38)
(0 0 2.42043e-38)
(0 0 2.24807e-38)
(0 0 2.35e-38)
(0 0 2.52237e-38)
(0 0 2.52237e-38)
(0 0 2.55833e-38)
(0 0 2.62876e-38)
(0 0 2.62876e-38)
(0 0 2.55833e-38)
(0 0 2.45194e-38)
(0 0 2.45194e-38)
(0 0 2.52237e-38)
(0 0 2.42043e-38)
(0 0 2.45639e-38)
(0 0 2.55833e-38)
(0 0 2.45194e-38)
(0 0 2.52237e-38)
(0 0 2.38744e-38)
(0 0 2.4234e-38)
(0 0 2.55833e-38)
(0 0 2.52237e-38)
(0 0 2.62876e-38)
(0 0 2.62876e-38)
(0 0 2.62876e-38)
(0 0 2.55833e-38)
(0 0 2.52237e-38)
(0 0 2.62876e-38)
(0 0 2.45639e-38)
(0 0 2.42043e-38)
(0 0 2.62876e-38)
(0 0 2.62876e-38)
(0 0 1.77469e-38)
)
;

boundaryField
{
    inlet
    {
        type            fixedValue;
        value           uniform (0 0 1.131e-05);
    }
    outlet
    {
        type            zeroGradient;
    }
    emptyWalls
    {
        type            empty;
    }
}


// ************************************************************************* //
