/*--------------------------------*- C++ -*----------------------------------*\
  =========                 |
  \\      /  F ield         | OpenFOAM: The Open Source CFD Toolbox
   \\    /   O peration     | Website:  https://openfoam.org
    \\  /    A nd           | Version:  9
     \\/     M anipulation  |
\*---------------------------------------------------------------------------*/
FoamFile
{
    format      ascii;
    class       volVectorField;
    location    "1200";
    object      Ub;
}
// * * * * * * * * * * * * * * * * * * * * * * * * * * * * * * * * * * * * * //

dimensions      [0 0 0 0 0 0 0];

internalField   nonuniform List<vector> 
100
(
(0 0 7.32517e-06)
(0 0 4.84589e-06)
(0 0 4.84485e-06)
(0 0 4.84373e-06)
(0 0 4.84253e-06)
(0 0 4.84125e-06)
(0 0 4.83986e-06)
(0 0 4.83832e-06)
(0 0 4.83881e-06)
(0 0 4.84061e-06)
(0 0 4.84199e-06)
(0 0 4.84366e-06)
(0 0 4.84534e-06)
(0 0 4.84717e-06)
(0 0 4.84911e-06)
(0 0 4.85119e-06)
(0 0 4.85341e-06)
(0 0 4.85578e-06)
(0 0 4.85832e-06)
(0 0 4.86106e-06)
(0 0 4.864e-06)
(0 0 4.86719e-06)
(0 0 4.87065e-06)
(0 0 4.8744e-06)
(0 0 4.87848e-06)
(0 0 4.88292e-06)
(0 0 4.88778e-06)
(0 0 4.89309e-06)
(0 0 4.89896e-06)
(0 0 4.9055e-06)
(0 0 4.91291e-06)
(0 0 4.92151e-06)
(0 0 4.9318e-06)
(0 0 4.94472e-06)
(0 0 4.96204e-06)
(0 0 4.98763e-06)
(0 0 5.0315e-06)
(0 0 5.12722e-06)
(0 0 5.4191e-06)
(0 0 6.21171e-06)
(0 0 7.03987e-06)
(0 0 7.31209e-06)
(0 0 7.3243e-06)
(0 0 7.32455e-06)
(0 0 7.32504e-06)
(0 0 7.32559e-06)
(0 0 7.32637e-06)
(0 0 7.32949e-06)
(0 0 7.35565e-06)
(0 0 7.60455e-06)
(0 0 9.59984e-06)
(0 0 1.3534e-05)
(0 0 1.58406e-05)
(0 0 1.59866e-05)
(0 0 1.59904e-05)
(0 0 1.59905e-05)
(0 0 1.59905e-05)
(0 0 1.59905e-05)
(0 0 1.59905e-05)
(0 0 1.59905e-05)
(0 0 1.59905e-05)
(0 0 1.59905e-05)
(0 0 1.59905e-05)
(0 0 1.59905e-05)
(0 0 1.59905e-05)
(0 0 1.59905e-05)
(0 0 1.59905e-05)
(0 0 1.59905e-05)
(0 0 1.59905e-05)
(0 0 1.59905e-05)
(0 0 1.59905e-05)
(0 0 1.59905e-05)
(0 0 1.59905e-05)
(0 0 1.59905e-05)
(0 0 1.59905e-05)
(0 0 1.59905e-05)
(0 0 1.59905e-05)
(0 0 1.59905e-05)
(0 0 1.59905e-05)
(0 0 1.59905e-05)
(0 0 1.59905e-05)
(0 0 1.59905e-05)
(0 0 1.59905e-05)
(0 0 1.59905e-05)
(0 0 1.59905e-05)
(0 0 1.59905e-05)
(0 0 1.59905e-05)
(0 0 1.59905e-05)
(0 0 1.59905e-05)
(0 0 1.59905e-05)
(0 0 1.59905e-05)
(0 0 1.59905e-05)
(0 0 1.59905e-05)
(0 0 1.59905e-05)
(0 0 1.59905e-05)
(0 0 1.59905e-05)
(0 0 1.59905e-05)
(0 0 1.59905e-05)
(0 0 1.59905e-05)
(0 0 1.59905e-05)
)
;

boundaryField
{
    inlet
    {
        type            fixedValue;
        value           uniform (0 0 4.84716e-06);
    }
    outlet
    {
        type            zeroGradient;
    }
    emptyWalls
    {
        type            empty;
    }
}


// ************************************************************************* //
