/*--------------------------------*- C++ -*----------------------------------*\
  =========                 |
  \\      /  F ield         | OpenFOAM: The Open Source CFD Toolbox
   \\    /   O peration     | Website:  https://openfoam.org
    \\  /    A nd           | Version:  9
     \\/     M anipulation  |
\*---------------------------------------------------------------------------*/
FoamFile
{
    format      ascii;
    class       volVectorField;
    location    "1200";
    object      Uc;
}
// * * * * * * * * * * * * * * * * * * * * * * * * * * * * * * * * * * * * * //

dimensions      [0 0 0 0 0 0 0];

internalField   nonuniform List<vector> 
100
(
(0 0 3.29026e-08)
(0 0 3.34818e-08)
(0 0 5.83362e-08)
(0 0 8.55803e-08)
(0 0 1.14857e-07)
(0 0 1.46368e-07)
(0 0 1.80536e-07)
(0 0 2.18395e-07)
(0 0 2.61447e-07)
(0 0 3.06152e-07)
(0 0 3.50332e-07)
(0 0 3.95608e-07)
(0 0 4.41863e-07)
(0 0 4.89466e-07)
(0 0 5.38459e-07)
(0 0 5.88961e-07)
(0 0 6.41039e-07)
(0 0 6.94778e-07)
(0 0 7.50266e-07)
(0 0 8.07604e-07)
(0 0 8.66917e-07)
(0 0 9.28353e-07)
(0 0 9.92097e-07)
(0 0 1.05838e-06)
(0 0 1.1275e-06)
(0 0 1.19983e-06)
(0 0 1.27588e-06)
(0 0 1.35631e-06)
(0 0 1.44204e-06)
(0 0 1.53436e-06)
(0 0 1.63514e-06)
(0 0 1.74722e-06)
(0 0 1.87503e-06)
(0 0 2.02597e-06)
(0 0 2.21318e-06)
(0 0 2.46216e-06)
(0 0 2.8281e-06)
(0 0 3.4466e-06)
(0 0 4.65641e-06)
(0 0 6.6919e-06)
(0 0 8.35365e-06)
(0 0 8.81293e-06)
(0 0 8.83289e-06)
(0 0 8.83265e-06)
(0 0 8.83216e-06)
(0 0 8.83161e-06)
(0 0 8.83083e-06)
(0 0 8.82771e-06)
(0 0 8.80155e-06)
(0 0 8.55265e-06)
(0 0 6.55736e-06)
(0 0 2.62319e-06)
(0 0 3.16601e-07)
(0 0 1.70588e-07)
(0 0 1.66803e-07)
(0 0 1.66709e-07)
(0 0 1.66707e-07)
(0 0 1.66707e-07)
(0 0 1.66707e-07)
(0 0 1.66707e-07)
(0 0 1.66707e-07)
(0 0 1.66707e-07)
(0 0 1.66707e-07)
(0 0 1.66707e-07)
(0 0 1.66707e-07)
(0 0 1.66707e-07)
(0 0 1.66707e-07)
(0 0 1.66707e-07)
(0 0 1.66707e-07)
(0 0 1.66707e-07)
(0 0 1.66707e-07)
(0 0 1.66707e-07)
(0 0 1.66707e-07)
(0 0 1.66707e-07)
(0 0 1.66707e-07)
(0 0 1.66707e-07)
(0 0 1.66707e-07)
(0 0 1.66707e-07)
(0 0 1.66707e-07)
(0 0 1.66707e-07)
(0 0 1.66707e-07)
(0 0 1.66707e-07)
(0 0 1.66707e-07)
(0 0 1.66707e-07)
(0 0 1.66707e-07)
(0 0 1.66707e-07)
(0 0 1.66707e-07)
(0 0 1.66707e-07)
(0 0 1.66707e-07)
(0 0 1.66707e-07)
(0 0 1.66707e-07)
(0 0 1.66707e-07)
(0 0 1.66707e-07)
(0 0 1.66707e-07)
(0 0 1.66707e-07)
(0 0 1.66707e-07)
(0 0 1.66707e-07)
(0 0 1.66707e-07)
(0 0 1.66707e-07)
(0 0 1.66707e-07)
)
;

boundaryField
{
    inlet
    {
        type            fixedValue;
        value           uniform (0 0 0);
    }
    outlet
    {
        type            zeroGradient;
    }
    emptyWalls
    {
        type            empty;
    }
}


// ************************************************************************* //
