/*--------------------------------*- C++ -*----------------------------------*\
  =========                 |
  \\      /  F ield         | OpenFOAM: The Open Source CFD Toolbox
   \\    /   O peration     | Website:  https://openfoam.org
    \\  /    A nd           | Version:  9
     \\/     M anipulation  |
\*---------------------------------------------------------------------------*/
FoamFile
{
    format      ascii;
    class       volScalarField;
    location    "1800";
    object      kra;
}
// * * * * * * * * * * * * * * * * * * * * * * * * * * * * * * * * * * * * * //

dimensions      [0 0 0 0 0 0 0];

internalField   nonuniform List<scalar> 
100
(
3.96276e-05
2.91416e-05
3.13759e-05
2.99905e-05
2.97494e-05
2.93135e-05
2.91372e-05
2.89e-05
2.86887e-05
2.84722e-05
2.82707e-05
2.80483e-05
2.78049e-05
2.74671e-05
2.73489e-05
2.74736e-05
2.75092e-05
2.75785e-05
2.76345e-05
2.76871e-05
2.77362e-05
2.77818e-05
2.78242e-05
2.78636e-05
2.78992e-05
2.79316e-05
2.79608e-05
2.79869e-05
2.80112e-05
2.80347e-05
2.80555e-05
2.80726e-05
2.80875e-05
2.81004e-05
2.81112e-05
2.81209e-05
2.81295e-05
2.81354e-05
2.81384e-05
2.81395e-05
2.8139e-05
2.81378e-05
2.81355e-05
2.81316e-05
2.8126e-05
2.81184e-05
2.81098e-05
2.8102e-05
2.8095e-05
2.80868e-05
2.80737e-05
2.80528e-05
2.80128e-05
2.79294e-05
2.77132e-05
2.6718e-05
1.50663e-05
2.04697e-07
3.6927e-12
2.23402e-22
2.98211e-35
3.06819e-35
2.98179e-35
2.81288e-35
2.81273e-35
3.3339e-35
3.06767e-35
3.24392e-35
2.8127e-35
2.81285e-35
3.06801e-35
3.24427e-35
3.06799e-35
3.33414e-35
3.244e-35
3.32801e-35
2.40161e-35
2.00455e-36
1.21963e-36
1.28144e-36
1.11099e-36
1.31689e-36
1.21174e-36
1.21174e-36
1.28135e-36
1.07838e-36
1.31689e-36
1.21174e-36
1.28135e-36
1.31689e-36
1.28135e-36
1.31689e-36
1.21174e-36
1.28135e-36
1.31689e-36
1.11099e-36
1.28135e-36
1.31689e-36
1.28135e-36
1.31689e-36
)
;

boundaryField
{
    inlet
    {
        type            calculated;
        value           uniform 1.12626e-05;
    }
    outlet
    {
        type            calculated;
        value           uniform 4.72742e-37;
    }
    emptyWalls
    {
        type            empty;
    }
}


// ************************************************************************* //
