/*--------------------------------*- C++ -*----------------------------------*\
  =========                 |
  \\      /  F ield         | OpenFOAM: The Open Source CFD Toolbox
   \\    /   O peration     | Website:  https://openfoam.org
    \\  /    A nd           | Version:  9
     \\/     M anipulation  |
\*---------------------------------------------------------------------------*/
FoamFile
{
    format      ascii;
    class       volScalarField;
    location    "1800";
    object      p;
}
// * * * * * * * * * * * * * * * * * * * * * * * * * * * * * * * * * * * * * //

dimensions      [0 0 0 0 0 0 0];

internalField   nonuniform List<scalar> 
100
(
5.65281e+06
5.64462e+06
5.63349e+06
5.62316e+06
5.61235e+06
5.60144e+06
5.59042e+06
5.57934e+06
5.56817e+06
5.55694e+06
5.54565e+06
5.53428e+06
5.52285e+06
5.51132e+06
5.49974e+06
5.48816e+06
5.47667e+06
5.46524e+06
5.45386e+06
5.44254e+06
5.43126e+06
5.42004e+06
5.40887e+06
5.39775e+06
5.38667e+06
5.37565e+06
5.36467e+06
5.35374e+06
5.34285e+06
5.33201e+06
5.32121e+06
5.31046e+06
5.29975e+06
5.28909e+06
5.27847e+06
5.26789e+06
5.25735e+06
5.24685e+06
5.23639e+06
5.22597e+06
5.21559e+06
5.20525e+06
5.19494e+06
5.18467e+06
5.17443e+06
5.16423e+06
5.15406e+06
5.14391e+06
5.1338e+06
5.1237e+06
5.11364e+06
5.10361e+06
5.09362e+06
5.08371e+06
5.07397e+06
5.06457e+06
5.05633e+06
5.05321e+06
5.05115e+06
5.04915e+06
5.04715e+06
5.04514e+06
5.04314e+06
5.04113e+06
5.03913e+06
5.03713e+06
5.03512e+06
5.03312e+06
5.03111e+06
5.02911e+06
5.0271e+06
5.0251e+06
5.0231e+06
5.02109e+06
5.01909e+06
5.01708e+06
5.01508e+06
5.01317e+06
5.01251e+06
5.01192e+06
5.01134e+06
5.01076e+06
5.01018e+06
5.0096e+06
5.00902e+06
5.00843e+06
5.00785e+06
5.00727e+06
5.00669e+06
5.00611e+06
5.00553e+06
5.00494e+06
5.00436e+06
5.00378e+06
5.0032e+06
5.00262e+06
5.00204e+06
5.00145e+06
5.00087e+06
5.00029e+06
)
;

boundaryField
{
    inlet
    {
        type            darcyGradPressure;
        gradient        uniform 4.10139e+06;
        Mf              Mf;
        phi             phi;
        value           uniform 5.66102e+06;
    }
    outlet
    {
        type            fixedValue;
        value           uniform 5e+06;
    }
    emptyWalls
    {
        type            empty;
    }
}


// ************************************************************************* //
