/*--------------------------------*- C++ -*----------------------------------*\
  =========                 |
  \\      /  F ield         | OpenFOAM: The Open Source CFD Toolbox
   \\    /   O peration     | Website:  https://openfoam.org
    \\  /    A nd           | Version:  9
     \\/     M anipulation  |
\*---------------------------------------------------------------------------*/
FoamFile
{
    format      ascii;
    class       surfaceScalarField;
    location    "1800";
    object      phia;
}
// * * * * * * * * * * * * * * * * * * * * * * * * * * * * * * * * * * * * * //

dimensions      [0 2 0 0 0 0 0];

internalField   nonuniform List<scalar> 
99
(
1.41966e-08
1.41801e-08
1.41616e-08
1.41258e-08
1.40784e-08
1.40769e-08
1.40661e-08
1.40502e-08
1.40318e-08
1.40111e-08
1.39897e-08
1.39599e-08
1.39264e-08
1.38833e-08
1.38412e-08
1.38049e-08
1.37686e-08
1.37322e-08
1.36947e-08
1.36566e-08
1.3618e-08
1.35787e-08
1.35388e-08
1.3498e-08
1.3456e-08
1.34131e-08
1.33692e-08
1.33248e-08
1.32807e-08
1.32366e-08
1.31913e-08
1.31451e-08
1.30985e-08
1.30516e-08
1.30047e-08
1.29583e-08
1.29118e-08
1.28645e-08
1.2817e-08
1.27697e-08
1.27229e-08
1.26772e-08
1.26324e-08
1.25884e-08
1.25455e-08
1.25038e-08
1.24644e-08
1.24279e-08
1.23928e-08
1.23557e-08
1.23098e-08
1.22401e-08
1.21122e-08
1.1863e-08
1.12959e-08
9.26914e-09
1.04121e-09
9.19356e-12
1.61759e-16
9.78679e-27
2.61283e-39
2.68823e-39
2.53852e-39
2.46445e-39
2.46438e-39
2.921e-39
2.68774e-39
2.84216e-39
2.46436e-39
2.46462e-39
2.76528e-39
2.8425e-39
2.68804e-39
2.92121e-39
2.84223e-39
2.91506e-39
1.23155e-39
4.6835e-41
3.10705e-41
3.25848e-41
2.82501e-41
3.34858e-41
3.0812e-41
3.0812e-41
3.25821e-41
2.74209e-41
3.34858e-41
3.0812e-41
3.30339e-41
3.34858e-41
3.25821e-41
3.34858e-41
3.0812e-41
3.30339e-41
3.34858e-41
2.825e-41
3.30339e-41
3.34858e-41
3.25821e-41
)
;

boundaryField
{
    inlet
    {
        type            calculated;
        value           uniform -1.42126e-08;
    }
    outlet
    {
        type            calculated;
        value           uniform 1.20208e-41;
    }
    emptyWalls
    {
        type            empty;
        value           nonuniform List<scalar> 0();
    }
}


// ************************************************************************* //
