/*--------------------------------*- C++ -*----------------------------------*\
  =========                 |
  \\      /  F ield         | OpenFOAM: The Open Source CFD Toolbox
   \\    /   O peration     | Website:  https://openfoam.org
    \\  /    A nd           | Version:  9
     \\/     M anipulation  |
\*---------------------------------------------------------------------------*/
FoamFile
{
    format      ascii;
    class       surfaceScalarField;
    location    "1800";
    object      phib;
}
// * * * * * * * * * * * * * * * * * * * * * * * * * * * * * * * * * * * * * //

dimensions      [0 2 0 0 0 0 0];

internalField   nonuniform List<scalar> 
99
(
6.09054e-09
6.08983e-09
6.08903e-09
6.10457e-09
6.13025e-09
6.10969e-09
6.09818e-09
6.09176e-09
6.08778e-09
6.08555e-09
6.08198e-09
6.08228e-09
6.07824e-09
6.07784e-09
6.07878e-09
6.07984e-09
6.08055e-09
6.08139e-09
6.08286e-09
6.08433e-09
6.08565e-09
6.08699e-09
6.08828e-09
6.08986e-09
6.09193e-09
6.0943e-09
6.09705e-09
6.09979e-09
6.1016e-09
6.10291e-09
6.10499e-09
6.10756e-09
6.11004e-09
6.11251e-09
6.11473e-09
6.11628e-09
6.11781e-09
6.12011e-09
6.12278e-09
6.12547e-09
6.12803e-09
6.13015e-09
6.13225e-09
6.13468e-09
6.1376e-09
6.14095e-09
6.14386e-09
6.1457e-09
6.14698e-09
6.14908e-09
6.15236e-09
6.157e-09
6.16489e-09
6.18063e-09
6.22072e-09
6.43223e-09
8.65248e-09
9.15199e-09
9.15243e-09
9.14759e-09
9.14714e-09
9.14762e-09
9.14781e-09
9.14802e-09
9.14829e-09
9.14841e-09
9.14843e-09
9.14839e-09
9.14809e-09
9.14789e-09
9.14781e-09
9.14781e-09
9.14792e-09
9.14814e-09
9.14853e-09
9.16788e-09
1.18079e-08
1.9934e-08
2.00927e-08
2.00942e-08
2.00942e-08
2.00942e-08
2.00942e-08
2.00942e-08
2.00942e-08
2.00942e-08
2.00942e-08
2.00942e-08
2.00942e-08
2.00942e-08
2.00942e-08
2.00942e-08
2.00942e-08
2.00942e-08
2.00942e-08
2.00942e-08
2.00942e-08
2.00942e-08
2.00942e-08
)
;

boundaryField
{
    inlet
    {
        type            calculated;
        value           uniform -6.09112e-09;
    }
    outlet
    {
        type            calculated;
        value           uniform 2.00942e-08;
    }
    emptyWalls
    {
        type            empty;
        value           nonuniform List<scalar> 0();
    }
}


// ************************************************************************* //
