/*--------------------------------*- C++ -*----------------------------------*\
  =========                 |
  \\      /  F ield         | OpenFOAM: The Open Source CFD Toolbox
   \\    /   O peration     | Website:  https://openfoam.org
    \\  /    A nd           | Version:  9
     \\/     M anipulation  |
\*---------------------------------------------------------------------------*/
FoamFile
{
    format      ascii;
    class       surfaceScalarField;
    location    "1800";
    object      phic;
}
// * * * * * * * * * * * * * * * * * * * * * * * * * * * * * * * * * * * * * //

dimensions      [0 2 0 0 0 0 0];

internalField   nonuniform List<scalar> 
99
(
1.65622e-11
3.37586e-11
5.31009e-11
7.33587e-11
9.50834e-11
1.17148e-10
1.39502e-10
1.61766e-10
1.84126e-10
2.07116e-10
2.32069e-10
2.61516e-10
2.99067e-10
3.42595e-10
3.83803e-10
4.18982e-10
4.54616e-10
4.90162e-10
5.262e-10
5.62821e-10
6.00091e-10
6.38014e-10
6.7661e-10
7.15878e-10
7.55787e-10
7.96317e-10
8.37441e-10
8.79143e-10
9.21406e-10
9.64195e-10
1.00745e-09
1.05113e-09
1.09519e-09
1.13959e-09
1.18427e-09
1.22917e-09
1.27417e-09
1.31915e-09
1.364e-09
1.40859e-09
1.45278e-09
1.49638e-09
1.53908e-09
1.58061e-09
1.62067e-09
1.65899e-09
1.69545e-09
1.73019e-09
1.76394e-09
1.799e-09
1.84155e-09
1.90659e-09
2.02663e-09
2.26013e-09
2.78708e-09
4.60237e-09
1.061e-08
1.11426e-08
1.11513e-08
1.11561e-08
1.11566e-08
1.11561e-08
1.11559e-08
1.11557e-08
1.11555e-08
1.11553e-08
1.11553e-08
1.11553e-08
1.11556e-08
1.11558e-08
1.11559e-08
1.11559e-08
1.11558e-08
1.11556e-08
1.11552e-08
1.11359e-08
8.4958e-09
3.69701e-10
2.11033e-10
2.09505e-10
2.0949e-10
2.0949e-10
2.0949e-10
2.0949e-10
2.0949e-10
2.0949e-10
2.0949e-10
2.0949e-10
2.0949e-10
2.0949e-10
2.0949e-10
2.0949e-10
2.0949e-10
2.0949e-10
2.0949e-10
2.0949e-10
2.0949e-10
2.0949e-10
2.0949e-10
)
;

boundaryField
{
    inlet
    {
        type            calculated;
        value           uniform 0;
    }
    outlet
    {
        type            calculated;
        value           uniform 2.0949e-10;
    }
    emptyWalls
    {
        type            empty;
        value           nonuniform List<scalar> 0();
    }
}


// ************************************************************************* //
