/*--------------------------------*- C++ -*----------------------------------*\
  =========                 |
  \\      /  F ield         | OpenFOAM: The Open Source CFD Toolbox
   \\    /   O peration     | Website:  https://openfoam.org
    \\  /    A nd           | Version:  9
     \\/     M anipulation  |
\*---------------------------------------------------------------------------*/
FoamFile
{
    format      ascii;
    class       volVectorField;
    location    "1800";
    object      Ua;
}
// * * * * * * * * * * * * * * * * * * * * * * * * * * * * * * * * * * * * * //

dimensions      [0 0 0 0 0 0 0];

internalField   nonuniform List<vector> 
100
(
(0 0 8.86263e-06)
(0 0 1.12908e-05)
(0 0 1.12768e-05)
(0 0 1.12552e-05)
(0 0 1.12221e-05)
(0 0 1.12026e-05)
(0 0 1.11977e-05)
(0 0 1.11871e-05)
(0 0 1.11735e-05)
(0 0 1.11579e-05)
(0 0 1.11411e-05)
(0 0 1.11208e-05)
(0 0 1.10956e-05)
(0 0 1.10651e-05)
(0 0 1.10312e-05)
(0 0 1.1e-05)
(0 0 1.09711e-05)
(0 0 1.09422e-05)
(0 0 1.09128e-05)
(0 0 1.08827e-05)
(0 0 1.08522e-05)
(0 0 1.08212e-05)
(0 0 1.07897e-05)
(0 0 1.07576e-05)
(0 0 1.07247e-05)
(0 0 1.06909e-05)
(0 0 1.06564e-05)
(0 0 1.06212e-05)
(0 0 1.0586e-05)
(0 0 1.05509e-05)
(0 0 1.05153e-05)
(0 0 1.04789e-05)
(0 0 1.0442e-05)
(0 0 1.04048e-05)
(0 0 1.03675e-05)
(0 0 1.03304e-05)
(0 0 1.02934e-05)
(0 0 1.0256e-05)
(0 0 1.02183e-05)
(0 0 1.01806e-05)
(0 0 1.01432e-05)
(0 0 1.01064e-05)
(0 0 1.00704e-05)
(0 0 1.00351e-05)
(0 0 1.00005e-05)
(0 0 9.96678e-06)
(0 0 9.93454e-06)
(0 0 9.90432e-06)
(0 0 9.87583e-06)
(0 0 9.8471e-06)
(0 0 9.81408e-06)
(0 0 9.76812e-06)
(0 0 9.6895e-06)
(0 0 9.53943e-06)
(0 0 9.21464e-06)
(0 0 8.18258e-06)
(0 0 4.10235e-06)
(0 0 4.1794e-07)
(0 0 3.65807e-09)
(0 0 6.4362e-14)
(0 0 3.89404e-24)
(0 0 2.10922e-36)
(0 0 2.07966e-36)
(0 0 1.99062e-36)
(0 0 1.96112e-36)
(0 0 2.14277e-36)
(0 0 2.23165e-36)
(0 0 2.20028e-36)
(0 0 2.1114e-36)
(0 0 1.96118e-36)
(0 0 2.08091e-36)
(0 0 2.23126e-36)
(0 0 2.20053e-36)
(0 0 2.23185e-36)
(0 0 2.2932e-36)
(0 0 2.29075e-36)
(0 0 1.64988e-36)
(0 0 5.08653e-37)
(0 0 3.09976e-38)
(0 0 2.53276e-38)
(0 0 2.42054e-38)
(0 0 2.45639e-38)
(0 0 2.55833e-38)
(0 0 2.45194e-38)
(0 0 2.52237e-38)
(0 0 2.38744e-38)
(0 0 2.4234e-38)
(0 0 2.55833e-38)
(0 0 2.54035e-38)
(0 0 2.64673e-38)
(0 0 2.62876e-38)
(0 0 2.62876e-38)
(0 0 2.55833e-38)
(0 0 2.54035e-38)
(0 0 2.64673e-38)
(0 0 2.45639e-38)
(0 0 2.43841e-38)
(0 0 2.64673e-38)
(0 0 2.62876e-38)
(0 0 1.77469e-38)
)
;

boundaryField
{
    inlet
    {
        type            fixedValue;
        value           uniform (0 0 1.131e-05);
    }
    outlet
    {
        type            zeroGradient;
    }
    emptyWalls
    {
        type            empty;
    }
}


// ************************************************************************* //
