/*--------------------------------*- C++ -*----------------------------------*\
  =========                 |
  \\      /  F ield         | OpenFOAM: The Open Source CFD Toolbox
   \\    /   O peration     | Website:  https://openfoam.org
    \\  /    A nd           | Version:  9
     \\/     M anipulation  |
\*---------------------------------------------------------------------------*/
FoamFile
{
    format      ascii;
    class       volVectorField;
    location    "1800";
    object      Ub;
}
// * * * * * * * * * * * * * * * * * * * * * * * * * * * * * * * * * * * * * //

dimensions      [0 0 0 0 0 0 0];

internalField   nonuniform List<vector> 
100
(
(0 0 7.27479e-06)
(0 0 4.84641e-06)
(0 0 4.84581e-06)
(0 0 4.85168e-06)
(0 0 4.86808e-06)
(0 0 4.87012e-06)
(0 0 4.85736e-06)
(0 0 4.85022e-06)
(0 0 4.84609e-06)
(0 0 4.84361e-06)
(0 0 4.84131e-06)
(0 0 4.84e-06)
(0 0 4.83852e-06)
(0 0 4.83675e-06)
(0 0 4.83697e-06)
(0 0 4.83776e-06)
(0 0 4.83846e-06)
(0 0 4.83908e-06)
(0 0 4.84e-06)
(0 0 4.84117e-06)
(0 0 4.84228e-06)
(0 0 4.84334e-06)
(0 0 4.84439e-06)
(0 0 4.84553e-06)
(0 0 4.84698e-06)
(0 0 4.84874e-06)
(0 0 4.85078e-06)
(0 0 4.85297e-06)
(0 0 4.85478e-06)
(0 0 4.85602e-06)
(0 0 4.85737e-06)
(0 0 4.85922e-06)
(0 0 4.86123e-06)
(0 0 4.8632e-06)
(0 0 4.86506e-06)
(0 0 4.86656e-06)
(0 0 4.86779e-06)
(0 0 4.86932e-06)
(0 0 4.87129e-06)
(0 0 4.87342e-06)
(0 0 4.87551e-06)
(0 0 4.87738e-06)
(0 0 4.87905e-06)
(0 0 4.88086e-06)
(0 0 4.88298e-06)
(0 0 4.88548e-06)
(0 0 4.88797e-06)
(0 0 4.88986e-06)
(0 0 4.8911e-06)
(0 0 4.89245e-06)
(0 0 4.89459e-06)
(0 0 4.89774e-06)
(0 0 4.90273e-06)
(0 0 4.91213e-06)
(0 0 4.93434e-06)
(0 0 5.03445e-06)
(0 0 6.00202e-06)
(0 0 7.08418e-06)
(0 0 7.2831e-06)
(0 0 7.28135e-06)
(0 0 7.27924e-06)
(0 0 7.27925e-06)
(0 0 7.27952e-06)
(0 0 7.27968e-06)
(0 0 7.27987e-06)
(0 0 7.28002e-06)
(0 0 7.28008e-06)
(0 0 7.28007e-06)
(0 0 7.27994e-06)
(0 0 7.27974e-06)
(0 0 7.27963e-06)
(0 0 7.2796e-06)
(0 0 7.27964e-06)
(0 0 7.27977e-06)
(0 0 7.28001e-06)
(0 0 7.28787e-06)
(0 0 8.34601e-06)
(0 0 1.26297e-05)
(0 0 1.59261e-05)
(0 0 1.59899e-05)
(0 0 1.59905e-05)
(0 0 1.59905e-05)
(0 0 1.59905e-05)
(0 0 1.59905e-05)
(0 0 1.59905e-05)
(0 0 1.59905e-05)
(0 0 1.59905e-05)
(0 0 1.59905e-05)
(0 0 1.59905e-05)
(0 0 1.59905e-05)
(0 0 1.59905e-05)
(0 0 1.59905e-05)
(0 0 1.59905e-05)
(0 0 1.59905e-05)
(0 0 1.59905e-05)
(0 0 1.59905e-05)
(0 0 1.59905e-05)
(0 0 1.59905e-05)
(0 0 1.59905e-05)
(0 0 1.59905e-05)
)
;

boundaryField
{
    inlet
    {
        type            fixedValue;
        value           uniform (0 0 4.84716e-06);
    }
    outlet
    {
        type            zeroGradient;
    }
    emptyWalls
    {
        type            empty;
    }
}


// ************************************************************************* //
