/*--------------------------------*- C++ -*----------------------------------*\
  =========                 |
  \\      /  F ield         | OpenFOAM: The Open Source CFD Toolbox
   \\    /   O peration     | Website:  https://openfoam.org
    \\  /    A nd           | Version:  9
     \\/     M anipulation  |
\*---------------------------------------------------------------------------*/
FoamFile
{
    format      ascii;
    class       volVectorField;
    location    "1800";
    object      Uc;
}
// * * * * * * * * * * * * * * * * * * * * * * * * * * * * * * * * * * * * * //

dimensions      [0 0 0 0 0 0 0];

internalField   nonuniform List<vector> 
100
(
(0 0 1.97826e-08)
(0 0 2.0022e-08)
(0 0 3.45603e-08)
(0 0 5.03167e-08)
(0 0 6.7021e-08)
(0 0 8.44444e-08)
(0 0 1.02118e-07)
(0 0 1.19871e-07)
(0 0 1.37626e-07)
(0 0 1.5567e-07)
(0 0 1.74746e-07)
(0 0 1.96391e-07)
(0 0 2.23049e-07)
(0 0 2.55309e-07)
(0 0 2.89024e-07)
(0 0 3.19418e-07)
(0 0 3.47593e-07)
(0 0 3.75915e-07)
(0 0 4.04398e-07)
(0 0 4.33307e-07)
(0 0 4.62708e-07)
(0 0 4.92626e-07)
(0 0 5.23072e-07)
(0 0 5.54053e-07)
(0 0 5.85557e-07)
(0 0 6.17563e-07)
(0 0 6.50052e-07)
(0 0 6.83007e-07)
(0 0 7.16416e-07)
(0 0 7.50257e-07)
(0 0 7.84493e-07)
(0 0 8.19081e-07)
(0 0 8.53993e-07)
(0 0 8.89193e-07)
(0 0 9.24637e-07)
(0 0 9.60278e-07)
(0 0 9.96045e-07)
(0 0 1.03185e-06)
(0 0 1.06759e-06)
(0 0 1.10318e-06)
(0 0 1.1385e-06)
(0 0 1.17343e-06)
(0 0 1.20777e-06)
(0 0 1.24129e-06)
(0 0 1.27375e-06)
(0 0 1.30493e-06)
(0 0 1.33469e-06)
(0 0 1.36302e-06)
(0 0 1.39027e-06)
(0 0 1.41765e-06)
(0 0 1.44853e-06)
(0 0 1.49134e-06)
(0 0 1.56498e-06)
(0 0 1.70565e-06)
(0 0 2.00822e-06)
(0 0 2.94017e-06)
(0 0 6.05283e-06)
(0 0 8.65508e-06)
(0 0 8.87045e-06)
(0 0 8.87585e-06)
(0 0 8.87796e-06)
(0 0 8.87795e-06)
(0 0 8.87768e-06)
(0 0 8.87752e-06)
(0 0 8.87733e-06)
(0 0 8.87718e-06)
(0 0 8.87712e-06)
(0 0 8.87713e-06)
(0 0 8.87726e-06)
(0 0 8.87746e-06)
(0 0 8.87757e-06)
(0 0 8.8776e-06)
(0 0 8.87756e-06)
(0 0 8.87743e-06)
(0 0 8.87719e-06)
(0 0 8.86933e-06)
(0 0 7.81119e-06)
(0 0 3.52747e-06)
(0 0 2.31067e-07)
(0 0 1.67327e-07)
(0 0 1.66713e-07)
(0 0 1.66707e-07)
(0 0 1.66707e-07)
(0 0 1.66707e-07)
(0 0 1.66707e-07)
(0 0 1.66707e-07)
(0 0 1.66707e-07)
(0 0 1.66707e-07)
(0 0 1.66707e-07)
(0 0 1.66707e-07)
(0 0 1.66707e-07)
(0 0 1.66707e-07)
(0 0 1.66707e-07)
(0 0 1.66707e-07)
(0 0 1.66707e-07)
(0 0 1.66707e-07)
(0 0 1.66707e-07)
(0 0 1.66707e-07)
(0 0 1.66707e-07)
(0 0 1.66707e-07)
)
;

boundaryField
{
    inlet
    {
        type            fixedValue;
        value           uniform (0 0 0);
    }
    outlet
    {
        type            zeroGradient;
    }
    emptyWalls
    {
        type            empty;
    }
}


// ************************************************************************* //
