/*--------------------------------*- C++ -*----------------------------------*\
  =========                 |
  \\      /  F ield         | OpenFOAM: The Open Source CFD Toolbox
   \\    /   O peration     | Website:  https://openfoam.org
    \\  /    A nd           | Version:  9
     \\/     M anipulation  |
\*---------------------------------------------------------------------------*/
FoamFile
{
    format      ascii;
    class       volScalarField;
    location    "2000";
    object      krc;
}
// * * * * * * * * * * * * * * * * * * * * * * * * * * * * * * * * * * * * * //

dimensions      [0 0 0 0 0 0 0];

internalField   nonuniform List<scalar> 
1000
(
5.45037e-05
0.000991483
0.0143168
0.0438354
0.051436
0.054871
0.057967
0.0634566
0.0703054
0.0775229
0.0848198
0.0920704
0.099218
0.106237
0.113117
0.119856
0.126455
0.132919
0.139253
0.145463
0.151556
0.157537
0.163414
0.169193
0.174879
0.180479
0.185997
0.191439
0.196808
0.20211
0.20735
0.212529
0.217654
0.222728
0.227753
0.232734
0.237674
0.242576
0.247443
0.252279
0.257085
0.261866
0.266624
0.271363
0.276084
0.28079
0.285485
0.290171
0.294851
0.299528
0.304205
0.308885
0.313572
0.318267
0.322976
0.327702
0.332449
0.337221
0.342022
0.346857
0.351729
0.356645
0.361608
0.366625
0.3717
0.37684
0.382044
0.387319
0.392657
0.398059
0.403524
0.40906
0.414711
0.420595
0.427
0.4345
0.444132
0.457494
0.476502
0.502383
0.53387
0.566355
0.594092
0.61389
0.626158
0.633041
0.636678
0.638526
0.63944
0.639883
0.640089
0.640179
0.640212
0.64022
0.640214
0.640201
0.640185
0.640167
0.640148
0.64013
0.640112
0.640095
0.640078
0.640064
0.640052
0.640043
0.640039
0.640037
0.640037
0.640038
0.640045
0.640062
0.640084
0.640111
0.640143
0.64018
0.64022
0.640263
0.640309
0.640356
0.640403
0.640449
0.640491
0.640531
0.640565
0.640595
0.64062
0.640639
0.640653
0.640661
0.640665
0.640666
0.640666
0.640664
0.640655
0.640643
0.64063
0.640616
0.640601
0.640585
0.640571
0.640556
0.640542
0.64053
0.640518
0.640507
0.640497
0.640488
0.640481
0.640475
0.64047
0.640466
0.640463
0.64046
0.640459
0.640457
0.640457
0.640457
0.640457
0.640457
0.640458
0.640459
0.64046
0.640461
0.640462
0.640463
0.640464
0.640465
0.640465
0.640466
0.640467
0.640468
0.640468
0.640469
0.640469
0.64047
0.64047
0.640471
0.640471
0.640471
0.640472
0.640472
0.640473
0.640474
0.640474
0.640475
0.640476
0.640478
0.640479
0.64048
0.640482
0.640483
0.640485
0.640487
0.640489
0.640491
0.640493
0.640495
0.640498
0.6405
0.640502
0.640505
0.640507
0.64051
0.640513
0.640515
0.640518
0.640521
0.640524
0.640527
0.64053
0.640533
0.640536
0.640539
0.640542
0.640544
0.640547
0.64055
0.640553
0.640555
0.640558
0.64056
0.640562
0.640563
0.640565
0.640566
0.640567
0.640568
0.640568
0.640568
0.640568
0.640568
0.640567
0.640565
0.640563
0.640561
0.640558
0.640555
0.640551
0.640547
0.640542
0.640537
0.640532
0.640526
0.640519
0.640513
0.640506
0.640499
0.640491
0.640483
0.640474
0.640466
0.640457
0.640448
0.640439
0.640429
0.64042
0.64041
0.6404
0.64039
0.640381
0.640371
0.640361
0.640352
0.640342
0.640332
0.640322
0.640313
0.640304
0.640294
0.640285
0.640276
0.640267
0.640258
0.640248
0.640239
0.640229
0.64022
0.640209
0.640199
0.640188
0.640177
0.640165
0.640153
0.64014
0.640126
0.640111
0.640096
0.64008
0.640063
0.640045
0.640026
0.640007
0.639987
0.639966
0.639944
0.639922
0.6399
0.639879
0.639857
0.639836
0.639817
0.639798
0.639783
0.63977
0.639761
0.639756
0.639756
0.639756
0.639757
0.639769
0.639796
0.639832
0.639877
0.639931
0.639994
0.640064
0.640139
0.640217
0.640297
0.640374
0.640448
0.640516
0.640578
0.640632
0.640678
0.640716
0.640746
0.640769
0.640785
0.640794
0.640797
0.640798
0.640799
0.64081
0.640856
0.641149
0.64799
0.658733
0.660153
0.660156
0.660156
0.660156
0.660156
0.660156
0.660156
0.660156
0.660156
0.660156
0.660156
0.660156
0.660156
0.660156
0.660156
0.660156
0.660156
0.660156
0.660156
0.660156
0.660156
0.660156
0.660156
0.660156
0.660156
0.660156
0.660156
0.660156
0.660156
0.660156
0.660156
0.660156
0.660156
0.660156
0.660156
0.660156
0.660156
0.660156
0.660156
0.660156
0.660156
0.660156
0.660156
0.660156
0.660156
0.660156
0.660156
0.660156
0.660156
0.660156
0.660156
0.660156
0.660156
0.660156
0.660156
0.660156
0.660156
0.660156
0.660156
0.660156
0.660156
0.660156
0.660156
0.660156
0.660156
0.660156
0.660156
0.660156
0.660156
0.660156
0.660156
0.660156
0.660156
0.660156
0.660156
0.660156
0.660156
0.660156
0.660156
0.660156
0.660156
0.660156
0.660156
0.660156
0.660156
0.660156
0.660156
0.660156
0.660156
0.660156
0.660156
0.660156
0.660156
0.660156
0.660156
0.660156
0.660156
0.660156
0.660156
0.660156
0.660156
0.660156
0.660156
0.660156
0.660156
0.660156
0.660156
0.660156
0.660156
0.660156
0.660156
0.660156
0.660156
0.660156
0.660156
0.660156
0.660156
0.660156
0.660156
0.660156
0.660156
0.660156
0.660156
0.660156
0.660156
0.660156
0.660156
0.660156
0.660156
0.660156
0.660156
0.660156
0.660156
0.660156
0.660156
0.660156
0.660156
0.660156
0.660156
0.660156
0.660156
0.660156
0.660156
0.660156
0.660156
0.660156
0.660156
0.660156
0.660156
0.660156
0.660156
0.660156
0.660156
0.660156
0.660156
0.660156
0.660156
0.660156
0.660156
0.660156
0.660156
0.660156
0.660156
0.660156
0.660156
0.660156
0.660156
0.660156
0.660156
0.660156
0.660156
0.660156
0.660156
0.660156
0.660156
0.660156
0.660156
0.660156
0.660156
0.660156
0.660156
0.660156
0.660156
0.660156
0.660156
0.660156
0.660156
0.660156
0.660156
0.660156
0.660156
0.660156
0.660156
0.660156
0.660156
0.660156
0.660156
0.660156
0.660156
0.660156
0.660156
0.660156
0.660156
0.660156
0.660156
0.660156
0.660156
0.660156
0.660156
0.660156
0.660156
0.660156
0.660156
0.660156
0.660156
0.660156
0.660156
0.660156
0.660156
0.660156
0.660156
0.660156
0.660156
0.660156
0.660156
0.660156
0.660156
0.660156
0.660156
0.660156
0.660156
0.660156
0.660156
0.660156
0.660156
0.660156
0.660156
0.660156
0.660156
0.660156
0.660156
0.660156
0.660156
0.660156
0.660156
0.660156
0.660156
0.660156
0.660156
0.660156
0.660156
0.660156
0.660156
0.660156
0.660156
0.660156
0.660156
0.660156
0.660156
0.660156
0.660156
0.660156
0.660156
0.660156
0.660156
0.660156
0.660156
0.660156
0.660156
0.660156
0.660156
0.660156
0.660156
0.660156
0.660156
0.660156
0.660156
0.660156
0.660156
0.660156
0.660156
0.660156
0.660156
0.660156
0.660156
0.660156
0.660156
0.660156
0.660156
0.660156
0.660156
0.660156
0.660156
0.660156
0.660156
0.660156
0.660156
0.660156
0.660156
0.660156
0.660156
0.660156
0.660156
0.660156
0.660156
0.660156
0.660156
0.660156
0.660156
0.660156
0.660156
0.660156
0.660156
0.660156
0.660156
0.660156
0.660156
0.660156
0.660156
0.660156
0.660156
0.660156
0.660156
0.660156
0.660156
0.660156
0.660156
0.660156
0.660156
0.660156
0.660156
0.660156
0.660156
0.660156
0.660156
0.660156
0.660156
0.660156
0.660156
0.660156
0.660156
0.660156
0.660156
0.660156
0.660156
0.660156
0.660156
0.660156
0.660156
0.660156
0.660156
0.660156
0.660156
0.660156
0.660156
0.660156
0.660156
0.660156
0.660156
0.660156
0.660156
0.660156
0.660156
0.660156
0.660156
0.660156
0.660156
0.660156
0.660156
0.660156
0.660156
0.660156
0.660156
0.660156
0.660156
0.660156
0.660156
0.660156
0.660156
0.660156
0.660156
0.660156
0.660156
0.660156
0.660156
0.660156
0.660156
0.660156
0.660156
0.660156
0.660156
0.660156
0.660156
0.660156
0.660156
0.660156
0.660156
0.660156
0.660156
0.660156
0.660156
0.660156
0.660156
0.660156
0.660156
0.660156
0.660156
0.660156
0.660156
0.660156
0.660156
0.660156
0.660156
0.660156
0.660156
0.660156
0.660156
0.660156
0.660156
0.660156
0.660156
0.660156
0.660156
0.660156
0.660156
0.660156
0.660156
0.660156
0.660156
0.660156
0.660156
0.660156
0.660156
0.660156
0.660156
0.660156
0.660156
0.660156
0.660156
0.660156
0.660156
0.660156
0.660156
0.660156
0.660156
0.660156
0.660156
0.660156
0.660156
0.660156
0.660156
0.660156
0.660156
0.660156
0.660156
0.660156
0.660156
0.660156
0.660156
0.660156
0.660156
0.660156
0.660156
0.660156
0.660156
0.660156
0.660156
0.660156
0.660156
0.660156
0.660156
0.660156
0.660156
0.660156
0.660156
0.660156
0.660156
0.660156
0.660156
0.660156
0.660156
0.660156
0.660156
0.660156
0.660156
0.660156
0.660156
0.660156
0.660156
0.660156
0.660156
0.660156
0.660156
0.660156
0.660156
0.660156
0.660156
0.660156
0.660156
0.660156
0.660156
0.660156
0.660156
0.660156
0.660156
0.660156
0.660156
0.660156
0.660156
0.660156
0.660156
0.660156
0.660156
0.660156
0.660156
0.660156
0.660156
0.660156
0.660156
0.660156
0.660156
0.660156
0.660156
0.660156
0.660156
0.660156
0.660156
0.660156
0.660156
0.660156
0.660156
0.660156
0.660156
0.660156
0.660156
0.660156
0.660156
0.660156
0.660156
0.660156
0.660156
0.660156
0.660156
0.660156
0.660156
0.660156
0.660156
0.660156
0.660156
0.660156
0.660156
0.660156
0.660156
0.660156
0.660156
0.660156
0.660156
0.660156
0.660156
0.660156
0.660156
0.660156
0.660156
0.660156
0.660156
0.660156
0.660156
0.660156
0.660156
0.660156
0.660156
0.660156
0.660156
0.660156
0.660156
0.660156
0.660156
0.660156
0.660156
0.660156
0.660156
0.660156
0.660156
0.660156
0.660156
0.660156
0.660156
0.660156
0.660156
0.660156
0.660156
0.660156
0.660156
0.660156
0.660156
0.660156
0.660156
0.660156
0.660156
0.660156
0.660156
0.660156
0.660156
0.660156
0.660156
0.660156
0.660156
0.660156
0.660156
0.660156
0.660156
0.660156
0.660156
0.660156
0.660156
0.660156
0.660156
0.660156
0.660156
0.660156
0.660156
0.660156
0.660156
0.660156
0.660156
0.660156
0.660156
0.660156
0.660156
0.660156
0.660156
0.660156
0.660156
0.660156
0.660156
0.660156
0.660156
0.660156
0.660156
0.660156
0.660156
0.660156
0.660156
0.660156
0.660156
0.660156
0.660156
0.660156
0.660156
0.660156
0.660156
0.660156
0.660156
0.660156
0.660156
0.660156
0.660156
0.660156
0.660156
0.660156
0.660156
)
;

boundaryField
{
    inlet
    {
        type            calculated;
        value           uniform 3.08149e-33;
    }
    outlet
    {
        type            calculated;
        value           uniform 0.660156;
    }
    emptyWalls
    {
        type            empty;
    }
}


// ************************************************************************* //
