/*--------------------------------*- C++ -*----------------------------------*\
  =========                 |
  \\      /  F ield         | OpenFOAM: The Open Source CFD Toolbox
   \\    /   O peration     | Website:  https://openfoam.org
    \\  /    A nd           | Version:  9
     \\/     M anipulation  |
\*---------------------------------------------------------------------------*/
FoamFile
{
    format      ascii;
    class       surfaceScalarField;
    location    "2000";
    object      phia;
}
// * * * * * * * * * * * * * * * * * * * * * * * * * * * * * * * * * * * * * //

dimensions      [0 2 0 0 0 0 0];

internalField   nonuniform List<scalar> 
999
(
2.74007e-10
2.66026e-10
2.20786e-10
2.10195e-10
2.07046e-10
2.05467e-10
2.04389e-10
2.04224e-10
2.04036e-10
2.03843e-10
2.03657e-10
2.03473e-10
2.03274e-10
2.03052e-10
2.02815e-10
2.02578e-10
2.02359e-10
2.02164e-10
2.01991e-10
2.01831e-10
2.01676e-10
2.01523e-10
2.01363e-10
2.01202e-10
2.01033e-10
2.00863e-10
2.0069e-10
2.00513e-10
2.00337e-10
2.00156e-10
1.99976e-10
1.9979e-10
1.99602e-10
1.99411e-10
1.99215e-10
1.99016e-10
1.98811e-10
1.98601e-10
1.98386e-10
1.98164e-10
1.97937e-10
1.97703e-10
1.97464e-10
1.97219e-10
1.96969e-10
1.96716e-10
1.96461e-10
1.96205e-10
1.95948e-10
1.95692e-10
1.95439e-10
1.95187e-10
1.94939e-10
1.94694e-10
1.94453e-10
1.94216e-10
1.93982e-10
1.93753e-10
1.93525e-10
1.93304e-10
1.9308e-10
1.92865e-10
1.92642e-10
1.92429e-10
1.92208e-10
1.91991e-10
1.91774e-10
1.91547e-10
1.91338e-10
1.91105e-10
1.90898e-10
1.90668e-10
1.90449e-10
1.90219e-10
1.89948e-10
1.89648e-10
1.89213e-10
1.88658e-10
1.87929e-10
1.87119e-10
1.86441e-10
1.85976e-10
1.85799e-10
1.85768e-10
1.85824e-10
1.85962e-10
1.8611e-10
1.86287e-10
1.86487e-10
1.86707e-10
1.86947e-10
1.87203e-10
1.87475e-10
1.8776e-10
1.88057e-10
1.88362e-10
1.88673e-10
1.88985e-10
1.89295e-10
1.896e-10
1.89895e-10
1.90175e-10
1.90432e-10
1.90653e-10
1.90826e-10
1.90938e-10
1.90989e-10
1.91e-10
1.91e-10
1.90953e-10
1.90733e-10
1.90408e-10
1.89998e-10
1.89504e-10
1.88932e-10
1.88289e-10
1.87587e-10
1.86842e-10
1.86071e-10
1.85295e-10
1.84532e-10
1.83803e-10
1.83125e-10
1.82514e-10
1.8198e-10
1.81532e-10
1.81173e-10
1.80903e-10
1.8072e-10
1.80616e-10
1.80576e-10
1.80571e-10
1.80572e-10
1.80641e-10
1.80841e-10
1.81051e-10
1.8128e-10
1.81522e-10
1.81769e-10
1.82016e-10
1.82258e-10
1.82491e-10
1.82712e-10
1.82917e-10
1.83106e-10
1.83275e-10
1.83426e-10
1.83557e-10
1.83668e-10
1.83761e-10
1.83837e-10
1.83898e-10
1.83944e-10
1.83977e-10
1.84e-10
1.84013e-10
1.84018e-10
1.8402e-10
1.8402e-10
1.84017e-10
1.84002e-10
1.83986e-10
1.83969e-10
1.83953e-10
1.83937e-10
1.83922e-10
1.83909e-10
1.83896e-10
1.83886e-10
1.83877e-10
1.8387e-10
1.83864e-10
1.8386e-10
1.83857e-10
1.83855e-10
1.83854e-10
1.83854e-10
1.83853e-10
1.83853e-10
1.83853e-10
1.83853e-10
1.83852e-10
1.8385e-10
1.83847e-10
1.83841e-10
1.83834e-10
1.83825e-10
1.83814e-10
1.83801e-10
1.83786e-10
1.83769e-10
1.8375e-10
1.8373e-10
1.83707e-10
1.83683e-10
1.83658e-10
1.8363e-10
1.83601e-10
1.83571e-10
1.83539e-10
1.83506e-10
1.83472e-10
1.83436e-10
1.83399e-10
1.8336e-10
1.83321e-10
1.83281e-10
1.83239e-10
1.83197e-10
1.83155e-10
1.83111e-10
1.83068e-10
1.83024e-10
1.82981e-10
1.82938e-10
1.82895e-10
1.82854e-10
1.82814e-10
1.82775e-10
1.82738e-10
1.82704e-10
1.82672e-10
1.82644e-10
1.82619e-10
1.82598e-10
1.82582e-10
1.82571e-10
1.82565e-10
1.82563e-10
1.82563e-10
1.82565e-10
1.82574e-10
1.826e-10
1.8263e-10
1.82667e-10
1.82711e-10
1.82762e-10
1.8282e-10
1.82885e-10
1.82958e-10
1.83037e-10
1.83123e-10
1.83215e-10
1.83315e-10
1.8342e-10
1.83532e-10
1.8365e-10
1.83773e-10
1.83902e-10
1.84036e-10
1.84174e-10
1.84317e-10
1.84464e-10
1.84614e-10
1.84766e-10
1.84922e-10
1.85079e-10
1.85238e-10
1.85397e-10
1.85557e-10
1.85718e-10
1.85878e-10
1.86037e-10
1.86196e-10
1.86354e-10
1.8651e-10
1.86666e-10
1.8682e-10
1.86972e-10
1.87124e-10
1.87276e-10
1.87427e-10
1.87578e-10
1.8773e-10
1.87884e-10
1.8804e-10
1.88199e-10
1.88363e-10
1.88532e-10
1.88707e-10
1.8889e-10
1.89082e-10
1.89283e-10
1.89495e-10
1.89718e-10
1.89955e-10
1.90204e-10
1.90467e-10
1.90745e-10
1.91037e-10
1.91343e-10
1.91663e-10
1.91995e-10
1.9234e-10
1.92694e-10
1.93056e-10
1.93423e-10
1.93791e-10
1.94156e-10
1.94513e-10
1.94854e-10
1.95174e-10
1.95461e-10
1.95703e-10
1.95887e-10
1.95999e-10
1.96043e-10
1.96048e-10
1.96046e-10
1.95958e-10
1.956e-10
1.95075e-10
1.94392e-10
1.93554e-10
1.92569e-10
1.91457e-10
1.90243e-10
1.88964e-10
1.87653e-10
1.86352e-10
1.85097e-10
1.83918e-10
1.82842e-10
1.81886e-10
1.81062e-10
1.8037e-10
1.79811e-10
1.7938e-10
1.79067e-10
1.78861e-10
1.78759e-10
1.78728e-10
1.78716e-10
1.78701e-10
1.78189e-10
1.76276e-10
1.63323e-10
3.90452e-11
5.50355e-13
1.63411e-17
2.2006e-27
1.08217e-48
1.66985e-93
3.5271e-189
0
0
0
0
0
0
0
0
0
0
0
0
0
0
0
0
0
0
0
0
0
0
0
0
0
0
0
0
0
0
0
0
0
0
0
0
0
0
0
0
0
0
0
0
0
0
0
0
0
0
0
0
0
0
0
0
0
0
0
0
0
0
0
0
0
0
0
0
0
0
0
0
0
0
0
0
0
0
0
0
0
0
0
0
0
0
0
0
0
0
0
0
0
0
0
0
0
0
0
0
0
0
0
0
0
0
0
0
0
0
0
0
0
0
0
0
0
0
0
0
0
0
0
0
0
0
0
0
0
0
0
0
0
0
0
0
0
0
0
0
0
0
0
0
0
0
0
0
0
0
0
0
0
0
0
0
0
0
0
0
0
0
0
0
0
0
0
0
0
0
0
0
0
0
0
0
0
0
0
0
0
0
0
0
0
0
0
0
0
0
0
0
0
0
0
0
0
0
0
0
0
0
0
0
0
0
0
0
0
0
0
0
0
0
0
0
0
0
0
0
0
0
0
0
0
0
0
0
0
0
0
0
0
0
0
0
0
0
0
0
0
0
0
0
0
0
0
0
0
0
0
0
0
0
0
0
0
0
0
0
0
0
0
0
0
0
0
0
0
0
0
0
0
0
0
0
0
0
0
0
0
0
0
0
0
0
0
0
0
0
0
0
0
0
0
0
0
0
0
0
0
0
0
0
0
0
0
0
0
0
0
0
0
0
0
0
0
0
0
0
0
0
0
0
0
0
0
0
0
0
0
0
0
0
0
0
0
0
0
0
0
0
0
0
0
0
0
0
0
0
0
0
0
0
0
0
0
0
0
0
0
0
0
0
0
0
0
0
0
0
0
0
0
0
0
0
0
0
0
0
0
0
0
0
0
0
0
0
0
0
0
0
0
0
0
0
0
0
0
0
0
0
0
0
0
0
0
0
0
0
0
0
0
0
0
0
0
0
0
0
0
0
0
0
0
0
0
0
0
0
0
0
0
0
0
0
0
0
0
0
0
0
0
0
0
0
0
0
0
0
0
0
0
0
0
0
0
0
0
0
0
0
0
0
0
0
0
0
0
0
0
0
0
0
0
0
0
0
0
0
0
0
0
0
0
0
0
0
0
0
0
0
0
0
0
0
0
0
0
0
0
0
0
0
0
0
0
0
0
0
0
0
0
0
0
0
0
0
0
0
0
0
0
0
0
0
0
0
0
0
0
0
0
0
0
0
0
0
0
0
0
0
0
0
0
0
0
0
0
0
0
0
0
0
0
0
0
0
0
0
0
0
0
0
0
0
0
0
0
0
0
0
0
0
0
0
0
0
0
0
0
0
0
0
0
0
0
0
0
0
0
0
0
0
0
0
0
0
0
0
0
0
0
0
0
0
0
0
0
0
0
0
0
0
0
0
0
0
0
0
0
0
0
0
0
0
0
0
0
0
0
0
0
0
0
0
0
0
0
0
0
0
0
0
0
0
0
0
0
0
0
0
0
0
0
)
;

boundaryField
{
    inlet
    {
        type            calculated;
        value           uniform -2.74882e-10;
    }
    outlet
    {
        type            calculated;
        value           uniform 0;
    }
    emptyWalls
    {
        type            empty;
        value           nonuniform List<scalar> 0();
    }
}


// ************************************************************************* //
