/*--------------------------------*- C++ -*----------------------------------*\
  =========                 |
  \\      /  F ield         | OpenFOAM: The Open Source CFD Toolbox
   \\    /   O peration     | Website:  https://openfoam.org
    \\  /    A nd           | Version:  9
     \\/     M anipulation  |
\*---------------------------------------------------------------------------*/
FoamFile
{
    format      ascii;
    class       volScalarField;
    location    "21600";
    object      kra;
}
// * * * * * * * * * * * * * * * * * * * * * * * * * * * * * * * * * * * * * //

dimensions      [0 0 0 0 0 0 0];

internalField   nonuniform List<scalar> 
1000
(
0.000236722
0.00023767
0.00023892
0.000240173
0.000241429
0.000242682
0.000243954
0.000245237
0.000246522
0.000247844
0.000249137
0.000250495
0.000251774
0.000253158
0.000254394
0.000255747
0.000256926
0.000258161
0.000259251
0.00026031
0.000261256
0.000262124
0.000262888
0.000263569
0.000264165
0.000264719
0.000265358
0.000266702
0.000271236
0.000289528
0.000415096
0.000777861
0.000873677
0.000897524
0.000907092
0.000912328
0.000915732
0.000918198
0.000920068
0.000921564
0.000922751
0.00092373
0.000924523
0.000925155
0.000925685
0.000926101
0.000926388
0.000926657
0.000926809
0.000926921
0.000926982
0.000926986
0.00092697
0.000926883
0.000926835
0.000926635
0.000926544
0.000926277
0.000926121
0.000925837
0.000925655
0.000925329
0.000925113
0.000924782
0.000924438
0.000924038
0.00092358
0.000923066
0.000922509
0.000921913
0.000921297
0.000920654
0.000920022
0.000919346
0.000918674
0.000917949
0.00091712
0.000916217
0.00091517
0.00091393
0.000912499
0.000910875
0.000909026
0.000906965
0.000904718
0.000902364
0.000899996
0.000897743
0.000895698
0.000893889
0.000892269
0.000890745
0.000889225
0.000887643
0.000885977
0.000884224
0.000882385
0.000880446
0.000878371
0.000876108
0.000873604
0.000870812
0.00086771
0.0008643
0.000860608
0.000856687
0.000852602
0.000848427
0.000844233
0.00084009
0.000836052
0.000832163
0.000828455
0.000824942
0.000821629
0.000818511
0.000815574
0.000812797
0.000810157
0.00080763
0.000805189
0.000802813
0.00080048
0.000798175
0.000795881
0.000793593
0.000791301
0.000789003
0.000786696
0.000784384
0.000782064
0.000779743
0.00077742
0.000775101
0.000772787
0.000770483
0.000768188
0.000765908
0.000763641
0.000761392
0.000759159
0.000756945
0.000754748
0.000752571
0.000750413
0.000748274
0.000746154
0.000744053
0.00074197
0.000739907
0.000737862
0.000735835
0.000733827
0.000731837
0.000729865
0.000727911
0.000725975
0.000724056
0.000722156
0.000720273
0.000718408
0.000716559
0.000714728
0.000712913
0.000711114
0.000709332
0.000707565
0.000705815
0.000704081
0.000702363
0.000700663
0.000698979
0.000697312
0.000695662
0.000694028
0.00069241
0.000690807
0.000689218
0.000687642
0.000686077
0.000684523
0.00068298
0.000681446
0.000679923
0.000678409
0.000676907
0.000675416
0.000673938
0.000672472
0.000671019
0.000669579
0.000668152
0.000666736
0.00066533
0.000663931
0.000662538
0.000661148
0.000659762
0.000658378
0.000657
0.000655632
0.000654278
0.000652947
0.000651645
0.000650381
0.000649164
0.000647999
0.000646893
0.000645851
0.000644873
0.00064396
0.000643111
0.000642321
0.000641586
0.000640898
0.000640248
0.000639626
0.00063902
0.000638418
0.000637805
0.000637168
0.000636491
0.000635759
0.00063496
0.00063408
0.000633108
0.000632038
0.000630864
0.000629585
0.000628203
0.000626725
0.00062516
0.000623519
0.000621818
0.000620073
0.0006183
0.000616517
0.000614738
0.000612979
0.000611251
0.000609566
0.000607929
0.000606348
0.000604824
0.000603358
0.00060195
0.000600595
0.000599291
0.000598033
0.000596814
0.000595631
0.000594477
0.000593346
0.000592235
0.000591138
0.000590051
0.000588971
0.000587896
0.000586822
0.000585749
0.000584676
0.000583601
0.000582524
0.000581445
0.000580365
0.000579283
0.0005782
0.000577118
0.000576036
0.000574955
0.000573876
0.000572799
0.000571725
0.000570655
0.000569589
0.000568527
0.00056747
0.000566418
0.000565372
0.000564331
0.000563296
0.000562266
0.000561243
0.000560226
0.000559215
0.000558211
0.000557213
0.000556221
0.000555236
0.000554257
0.000553285
0.00055232
0.00055136
0.000550408
0.000549462
0.000548522
0.000547589
0.000546662
0.000545742
0.000544828
0.000543921
0.000543021
0.000542127
0.000541239
0.000540359
0.000539485
0.000538618
0.000537757
0.000536903
0.000536055
0.000535214
0.000534378
0.000533548
0.000532724
0.000531905
0.000531092
0.000530283
0.000529479
0.00052868
0.000527886
0.000527096
0.000526312
0.000525531
0.000524756
0.000523984
0.000523218
0.000522455
0.000521697
0.000520942
0.00052019
0.000519442
0.000518697
0.000517954
0.000517214
0.000516478
0.000515745
0.000515016
0.000514293
0.000513577
0.000512869
0.000512171
0.000511486
0.000510816
0.000510162
0.000509527
0.000508913
0.000508322
0.000507755
0.000507214
0.000506699
0.000506211
0.000505749
0.000505312
0.000504899
0.000504509
0.000504138
0.000503783
0.000503442
0.000503109
0.00050278
0.00050245
0.000502115
0.000501768
0.000501404
0.000501018
0.000500605
0.00050016
0.000499678
0.000499156
0.00049859
0.000497979
0.000497322
0.000496617
0.000495866
0.000495071
0.000494235
0.00049336
0.000492453
0.000491517
0.000490559
0.000489584
0.000488598
0.000487606
0.000486615
0.00048563
0.000484654
0.000483692
0.000482747
0.000481822
0.000480918
0.000480037
0.000479179
0.000478345
0.000477533
0.000476743
0.000475974
0.000475223
0.000474491
0.000473773
0.00047307
0.000472379
0.000471698
0.000471025
0.00047036
0.0004697
0.000469045
0.000468393
0.000467743
0.000467095
0.000466447
0.000465801
0.000465154
0.000464507
0.000463859
0.000463212
0.000462564
0.000461916
0.000461268
0.00046062
0.000459972
0.000459325
0.000458678
0.000458033
0.000457388
0.000456745
0.000456104
0.000455465
0.000454828
0.000454193
0.00045356
0.00045293
0.000452303
0.000451678
0.000451057
0.000450438
0.000449822
0.00044921
0.0004486
0.000447994
0.000447391
0.000446792
0.000446196
0.000445603
0.000445013
0.000444427
0.000443845
0.000443266
0.00044269
0.000442118
0.000441549
0.000440984
0.000440422
0.000439864
0.000439309
0.000438758
0.00043821
0.000437666
0.000437125
0.000436587
0.000436053
0.000435523
0.000434995
0.000434471
0.00043395
0.000433432
0.000432917
0.000432405
0.000431896
0.00043139
0.000430886
0.000430385
0.000429886
0.000429391
0.000428897
0.000428406
0.000427917
0.000427431
0.000426946
0.000426464
0.000425983
0.000425505
0.000425028
0.000424553
0.00042408
0.000423608
0.000423139
0.000422672
0.000422207
0.000421745
0.000421286
0.00042083
0.000420378
0.000419932
0.00041949
0.000419055
0.000418626
0.000418205
0.000417793
0.00041739
0.000416998
0.000416616
0.000416246
0.000415888
0.000415542
0.00041521
0.00041489
0.000414582
0.000414288
0.000414005
0.000413734
0.000413473
0.000413222
0.000412979
0.000412742
0.00041251
0.000412282
0.000412054
0.000411826
0.000411594
0.000411357
0.000411111
0.000410856
0.000410588
0.000410306
0.000410007
0.00040969
0.000409352
0.000408993
0.000408611
0.000408205
0.000407775
0.000407322
0.000406844
0.000406343
0.00040582
0.000405275
0.000404712
0.00040413
0.000403534
0.000402924
0.000402304
0.000401675
0.000401041
0.000400402
0.000399764
0.000399126
0.000398493
0.000397863
0.000397241
0.000396626
0.000396022
0.000395426
0.000394842
0.000394267
0.000393705
0.000393153
0.000392613
0.000392082
0.000391562
0.000391051
0.00039055
0.000390056
0.00038957
0.00038909
0.000388617
0.000388148
0.000387684
0.000387224
0.000386768
0.000386314
0.000385862
0.000385412
0.000384963
0.000384516
0.000384069
0.000383623
0.000383177
0.000382731
0.000382286
0.00038184
0.000381395
0.00038095
0.000380504
0.000380059
0.000379615
0.00037917
0.000378726
0.000378282
0.000377839
0.000377397
0.000376956
0.000376515
0.000376076
0.000375637
0.0003752
0.000374764
0.000374329
0.000373896
0.000373464
0.000373034
0.000372605
0.000372178
0.000371753
0.00037133
0.000370908
0.000370488
0.00037007
0.000369654
0.000369239
0.000368827
0.000368417
0.000368008
0.000367602
0.000367197
0.000366795
0.000366394
0.000365995
0.000365599
0.000365204
0.000364812
0.000364421
0.000364033
0.000363646
0.000363261
0.000362878
0.000362498
0.000362119
0.000361742
0.000361367
0.000360993
0.000360622
0.000360252
0.000359884
0.000359518
0.000359153
0.00035879
0.000358428
0.000358068
0.00035771
0.000357353
0.000356997
0.000356643
0.00035629
0.000355938
0.000355588
0.000355239
0.000354891
0.000354544
0.000354198
0.000353854
0.000353511
0.00035317
0.00035283
0.000352491
0.000352154
0.000351819
0.000351486
0.000351156
0.000350827
0.000350502
0.00035018
0.000349861
0.000349546
0.000349235
0.000348929
0.000348627
0.000348331
0.00034804
0.000347755
0.000347476
0.000347203
0.000346937
0.000346678
0.000346425
0.000346179
0.000345941
0.000345708
0.000345483
0.000345263
0.000345049
0.000344841
0.000344637
0.000344438
0.000344243
0.00034405
0.000343859
0.000343669
0.000343479
0.000343289
0.000343096
0.000342901
0.000342701
0.000342497
0.000342286
0.000342067
0.00034184
0.000341604
0.000341358
0.000341101
0.000340832
0.00034055
0.000340256
0.000339948
0.000339627
0.000339292
0.000338944
0.000338582
0.000338207
0.000337819
0.00033742
0.000337009
0.000336588
0.000336158
0.00033572
0.000335274
0.000334822
0.000334365
0.000333904
0.000333441
0.000332976
0.000332511
0.000332047
0.000331583
0.000331123
0.000330665
0.000330211
0.000329761
0.000329316
0.000328876
0.000328442
0.000328013
0.000327589
0.000327171
0.000326759
0.000326351
0.000325949
0.000325552
0.00032516
0.000324772
0.000324388
0.000324008
0.000323631
0.000323258
0.000322887
0.000322518
0.000322152
0.000321787
0.000321424
0.000321063
0.000320702
0.000320342
0.000319983
0.000319625
0.000319266
0.000318909
0.000318551
0.000318193
0.000317836
0.000317478
0.00031712
0.000316763
0.000316405
0.000316047
0.00031569
0.000315332
0.000314974
0.000314617
0.000314259
0.000313902
0.000313545
0.000313189
0.000312832
0.000312477
0.000312121
0.000311766
0.000311412
0.000311058
0.000310705
0.000310353
0.000310001
0.00030965
0.0003093
0.000308951
0.000308602
0.000308256
0.000307908
0.000307564
0.000307218
0.000306876
0.000306532
0.000306192
0.00030585
0.000305513
0.000305174
0.000304838
0.000304502
0.000304168
0.000303836
0.000303503
0.000303174
0.000302845
0.000302518
0.000302193
0.000301868
0.000301546
0.000301226
0.000300907
0.000300591
0.000300277
0.000299965
0.000299656
0.000299348
0.000299045
0.000298744
0.000298446
0.000298153
0.000297864
0.000297579
0.0002973
0.000297025
0.000296756
0.000296495
0.00029624
0.000295992
0.000295755
0.000295524
0.000295304
0.000295096
0.000294896
0.000294708
0.000294534
0.000294369
0.000294219
0.000294084
0.000293957
0.000293846
0.000293749
0.00029366
0.000293589
0.000293529
0.000293476
0.00029344
0.000293413
0.000293391
0.000293386
0.000293389
0.000293394
0.000293414
0.000293438
0.000293458
0.000293508
0.000293532
0.000293599
0.000293628
0.000293701
0.000293734
0.000293791
0.000293812
0.000293801
0.000293744
0.000293564
0.00029318
0.000292435
0.000291078
0.00028872
0.00028489
0.000279177
0.000271723
0.000263584
0.000256532
0.000251682
0.00024901
0.00024769
0.000247142
0.000246897
0.000246847
0.000246856
0.000246897
0.00024696
0.00024703
0.000247102
0.000247172
0.00024724
0.000247305
0.000247365
0.00024742
0.000247471
0.000247515
0.000247555
0.000247588
0.000247616
0.000247635
0.000247647
0.000247652
0.000247653
0.000247652
0.000247647
0.000247626
0.0002476
0.000247568
0.000247532
0.00024749
0.000247443
0.000247392
0.000247336
0.000247277
0.000247214
0.000247148
0.000247079
0.000247008
0.000246936
0.000246862
0.000246787
0.000246712
0.000246637
0.000246562
0.000246488
0.000246415
0.000246343
0.000246273
0.000246204
0.000246137
0.000246072
0.000246009
0.000245949
0.00024589
0.000245835
0.000245781
0.00024573
0.000245681
0.000245634
0.00024559
0.000245548
0.000245507
0.000245469
0.000245432
0.000245397
0.000245364
0.000245332
0.000245301
0.000245272
0.000245243
0.000245216
0.000245189
0.000245164
0.000245138
0.000245114
0.00024509
0.000245066
0.000245042
0.000245019
0.000244996
0.000244974
0.000244951
0.000244928
0.000244906
0.000244884
0.000244861
0.000244839
0.000244817
0.000244794
0.000244772
0.00024475
0.000244728
0.000244706
0.000244684
0.000244662
0.000244641
0.000244619
0.000244598
0.000244577
0.000244556
0.000244536
0.000244516
0.000244496
0.000244476
0.000244457
0.000244438
0.00024442
0.000244401
0.000244384
0.000244367
0.00024435
0.000244334
0.000244318
0.000244303
0.000244289
0.000244275
0.000244261
0.000244249
0.000244236
0.000244225
0.000244212
0.000244205
0.000244192
0.000244186
0.000244173
0.00024417
0.000244157
0.000244169
)
;

boundaryField
{
    inlet
    {
        type            calculated;
        value           uniform 0.000236304;
    }
    outlet
    {
        type            calculated;
        value           uniform 0.000244151;
    }
    emptyWalls
    {
        type            empty;
    }
}


// ************************************************************************* //
