/*--------------------------------*- C++ -*----------------------------------*\
  =========                 |
  \\      /  F ield         | OpenFOAM: The Open Source CFD Toolbox
   \\    /   O peration     | Website:  https://openfoam.org
    \\  /    A nd           | Version:  9
     \\/     M anipulation  |
\*---------------------------------------------------------------------------*/
FoamFile
{
    format      ascii;
    class       volScalarField;
    location    "34000";
    object      krc;
}
// * * * * * * * * * * * * * * * * * * * * * * * * * * * * * * * * * * * * * //

dimensions      [0 0 0 0 0 0 0];

internalField   nonuniform List<scalar> 
100
(
5.70495e-26
7.63834e-26
2.25021e-25
2.12755e-25
9.7894e-26
2.29136e-25
6.98885e-26
3.57506e-26
2.7111e-25
1.08741e-25
3.18823e-25
9.02389e-26
1.44969e-29
1.74981e-28
6.24398e-25
6.21462e-26
1.2891e-25
6.5491e-25
2.87553e-24
4.50663e-24
5.93122e-24
1.23001e-23
1.91477e-23
2.60334e-23
5.06656e-23
6.43581e-23
1.11506e-22
1.3967e-22
2.24456e-22
2.88815e-22
4.28613e-22
5.41781e-22
6.84759e-22
8.65003e-22
1.09712e-21
1.26212e-21
1.46734e-21
1.63473e-21
1.79605e-21
1.8793e-21
1.89071e-21
1.78977e-21
1.72051e-21
1.68408e-21
1.27877e-21
7.01671e-22
2.70876e-22
6.35811e-24
1.37053e-22
4.16308e-22
1.20955e-21
2.90145e-21
4.91222e-21
7.74872e-21
1.18534e-20
1.73388e-20
2.34851e-20
3.08757e-20
3.9019e-20
4.73123e-20
5.55041e-20
6.33638e-20
7.04308e-20
7.68029e-20
8.18538e-20
8.5492e-20
8.87964e-20
8.95791e-20
9.01771e-20
8.85819e-20
8.67517e-20
8.31197e-20
7.90866e-20
7.3912e-20
6.8899e-20
6.30013e-20
5.75207e-20
5.13755e-20
4.59229e-20
4.00012e-20
3.47852e-20
2.94555e-20
2.53803e-20
2.13505e-20
1.78677e-20
1.46553e-20
1.20207e-20
9.69023e-21
7.61852e-21
6.02007e-21
4.4872e-21
3.31903e-21
2.77291e-21
1.04561e-21
4.67302e-21
3.13774e-20
4.08721e-19
8.35875e-18
1.05902e-16
5.60727e-16
)
;

boundaryField
{
    inlet
    {
        type            calculated;
        value           uniform 5.70495e-26;
    }
    outlet
    {
        type            calculated;
        value           uniform 5.60727e-16;
    }
    emptyWalls
    {
        type            empty;
    }
}


// ************************************************************************* //
