/*--------------------------------*- C++ -*----------------------------------*\
  =========                 |
  \\      /  F ield         | OpenFOAM: The Open Source CFD Toolbox
   \\    /   O peration     | Website:  https://openfoam.org
    \\  /    A nd           | Version:  9
     \\/     M anipulation  |
\*---------------------------------------------------------------------------*/
FoamFile
{
    format      ascii;
    class       volScalarField;
    location    "29850";
    object      Fa;
}
// * * * * * * * * * * * * * * * * * * * * * * * * * * * * * * * * * * * * * //

dimensions      [0 0 0 0 0 0 0];

internalField   nonuniform List<scalar> 
1000
(
0.194801
0.194802
0.194794
0.194781
0.194787
0.194748
0.194777
0.194711
0.194758
0.194668
0.194725
0.194626
0.194667
0.19459
0.194588
0.194542
0.194505
0.194467
0.194425
0.194379
0.194341
0.194294
0.194248
0.194207
0.194147
0.19412
0.194041
0.194043
0.193938
0.193968
0.193854
0.193883
0.1938
0.193803
0.19376
0.193749
0.193723
0.193706
0.193672
0.193595
0.193287
0.191726
0.179581
0.156136
0.152345
0.151047
0.150376
0.149931
0.149592
0.149309
0.149064
0.148843
0.148643
0.148459
0.148287
0.148127
0.147976
0.147835
0.147702
0.147579
0.147464
0.147354
0.14725
0.147149
0.147053
0.146963
0.146882
0.146811
0.146748
0.146691
0.146638
0.146585
0.146523
0.14646
0.146397
0.146338
0.146289
0.146251
0.146238
0.14622
0.146194
0.146169
0.146145
0.14611
0.146061
0.145999
0.145951
0.145898
0.145865
0.145854
0.145862
0.145884
0.145992
0.146196
0.146418
0.14665
0.146879
0.147093
0.147281
0.147431
0.14754
0.147614
0.147672
0.147731
0.147785
0.147797
0.147699
0.147563
0.147362
0.147151
0.146902
0.146671
0.146425
0.146218
0.146009
0.145851
0.145697
0.145595
0.145495
0.145444
0.145387
0.145372
0.145344
0.145351
0.145338
0.145354
0.145344
0.145359
0.145344
0.145352
0.145329
0.145328
0.145297
0.145288
0.14525
0.145236
0.145193
0.145176
0.14513
0.145111
0.145065
0.145045
0.144999
0.14498
0.144934
0.144915
0.14487
0.144854
0.14481
0.144794
0.144752
0.144738
0.144697
0.144686
0.144647
0.144637
0.1446
0.144592
0.144556
0.144549
0.144515
0.14451
0.144476
0.144472
0.144441
0.144438
0.144409
0.144409
0.144382
0.144385
0.144361
0.144367
0.144345
0.144353
0.144333
0.144341
0.144321
0.14433
0.14431
0.144319
0.144299
0.144309
0.144292
0.144305
0.14429
0.144307
0.144295
0.144315
0.144305
0.144325
0.144316
0.144335
0.144323
0.14434
0.144324
0.144336
0.144316
0.144326
0.144307
0.144321
0.144311
0.144339
0.144347
0.144398
0.144433
0.144512
0.144575
0.144683
0.144773
0.144904
0.145014
0.145162
0.145283
0.145438
0.145561
0.14571
0.145822
0.145954
0.146041
0.146142
0.146193
0.146252
0.146257
0.146268
0.146223
0.146185
0.146095
0.146016
0.14589
0.145783
0.145636
0.145516
0.145363
0.145244
0.145098
0.144992
0.144863
0.144777
0.144669
0.144605
0.14452
0.144478
0.144412
0.144387
0.144337
0.144324
0.144284
0.14428
0.144246
0.144246
0.144214
0.144214
0.144181
0.14418
0.144145
0.144142
0.144104
0.144098
0.144058
0.144049
0.144007
0.143996
0.143952
0.14394
0.143894
0.143881
0.143835
0.143823
0.143777
0.143764
0.143718
0.143706
0.143662
0.143651
0.143607
0.143597
0.143554
0.143546
0.143504
0.143497
0.143456
0.14345
0.143411
0.143406
0.143368
0.143365
0.143328
0.143327
0.143291
0.143291
0.143257
0.143259
0.143227
0.14323
0.143199
0.143204
0.143175
0.143182
0.143154
0.143162
0.143135
0.143144
0.143119
0.143129
0.143104
0.143115
0.143092
0.143105
0.143083
0.143097
0.143077
0.143092
0.143074
0.143091
0.143073
0.143091
0.143074
0.143092
0.143074
0.143092
0.143073
0.14309
0.143071
0.143088
0.143069
0.143088
0.143072
0.143095
0.143085
0.143115
0.143115
0.143155
0.143166
0.14322
0.143246
0.143314
0.143355
0.143438
0.143493
0.14359
0.143657
0.143765
0.14384
0.143955
0.144034
0.144149
0.144226
0.144335
0.144403
0.144501
0.144553
0.144632
0.144663
0.144717
0.144722
0.14475
0.144727
0.144726
0.144675
0.144648
0.144572
0.144523
0.144427
0.144362
0.144253
0.144178
0.144063
0.143985
0.143871
0.143796
0.143687
0.14362
0.14352
0.143464
0.143375
0.14333
0.143253
0.14322
0.143153
0.143129
0.143072
0.143056
0.143006
0.142996
0.142951
0.142945
0.142903
0.142899
0.142859
0.142856
0.142816
0.142813
0.142772
0.142769
0.142727
0.142722
0.142679
0.142674
0.14263
0.142624
0.142579
0.142572
0.142527
0.14252
0.142474
0.142466
0.142421
0.142414
0.142368
0.142361
0.142316
0.14231
0.142266
0.14226
0.142217
0.142212
0.142169
0.142166
0.142124
0.142122
0.142081
0.142079
0.142039
0.142039
0.142001
0.142002
0.141964
0.141967
0.14193
0.141934
0.141899
0.141904
0.14187
0.141876
0.141843
0.141851
0.141819
0.141828
0.141797
0.141807
0.141777
0.141788
0.14176
0.141772
0.141744
0.141758
0.141731
0.141745
0.14172
0.141735
0.141711
0.141727
0.141704
0.141721
0.141697
0.141715
0.141692
0.141711
0.141688
0.141706
0.141684
0.141703
0.141682
0.141702
0.141681
0.141703
0.141686
0.141711
0.141696
0.141726
0.141717
0.141752
0.14175
0.141793
0.141798
0.14185
0.141864
0.141924
0.141948
0.142017
0.142049
0.142127
0.142167
0.142251
0.142297
0.142387
0.142436
0.142528
0.142578
0.142668
0.142716
0.142802
0.142842
0.14292
0.142951
0.143017
0.143035
0.143087
0.143088
0.143124
0.143108
0.143125
0.143092
0.143092
0.143041
0.143025
0.142959
0.142928
0.14285
0.142809
0.142721
0.142672
0.142579
0.142527
0.142432
0.142379
0.142286
0.142236
0.142145
0.1421
0.142016
0.141977
0.141898
0.141866
0.141794
0.141769
0.141703
0.141684
0.141624
0.14161
0.141555
0.141545
0.141494
0.141488
0.14144
0.141436
0.141389
0.141387
0.141341
0.14134
0.141295
0.141293
0.141248
0.141247
0.141202
0.1412
0.141155
0.141152
0.141106
0.141104
0.141058
0.141055
0.141008
0.141006
0.140959
0.140956
0.14091
0.140907
0.140861
0.140858
0.140812
0.14081
0.140765
0.140764
0.140718
0.140718
0.140673
0.140674
0.14063
0.140631
0.140588
0.140591
0.140548
0.140552
0.14051
0.140515
0.140474
0.14048
0.14044
0.140447
0.140408
0.140416
0.140378
0.140387
0.14035
0.14036
0.140324
0.140335
0.140301
0.140312
0.140279
0.140291
0.140259
0.140272
0.140241
0.140255
0.140224
0.14024
0.14021
0.140226
0.140197
0.140214
0.140185
0.140203
0.140175
0.140194
0.140166
0.140185
0.140158
0.140178
0.140152
0.140173
0.140147
0.140169
0.140145
0.140168
0.140146
0.140171
0.140151
0.140179
0.140163
0.140194
0.140181
0.140217
0.140209
0.140249
0.140246
0.140293
0.140295
0.140347
0.140356
0.140414
0.140429
0.140493
0.140513
0.140582
0.140606
0.14068
0.140708
0.140784
0.140814
0.140892
0.140923
0.141
0.141028
0.141103
0.141128
0.141198
0.141217
0.14128
0.141291
0.141345
0.141347
0.141391
0.141382
0.141415
0.141394
0.141415
0.141382
0.141391
0.141346
0.141343
0.141288
0.141275
0.14121
0.141188
0.141115
0.141087
0.141009
0.140976
0.140894
0.140859
0.140775
0.140739
0.140656
0.140621
0.14054
0.140508
0.140429
0.1404
0.140325
0.140301
0.14023
0.140209
0.140142
0.140126
0.140063
0.140051
0.139991
0.139982
0.139926
0.13992
0.139866
0.139862
0.13981
0.139808
0.139757
0.139756
0.139706
0.139707
0.139657
0.139658
0.139609
0.13961
0.139561
0.139562
0.139513
0.139515
0.139466
0.139467
0.139418
0.139419
0.13937
0.139371
0.139322
0.139323
0.139274
0.139276
0.139227
0.139229
0.139181
0.139183
0.139135
0.139137
0.13909
0.139093
0.139046
0.13905
0.139004
0.139009
0.138963
0.138969
0.138924
0.13893
0.138886
0.138893
0.13885
0.138858
0.138816
0.138825
0.138783
0.138793
0.138752
0.138763
0.138723
0.138735
0.138696
0.138709
0.138671
0.138684
0.138647
0.138661
0.138625
0.13864
0.138605
0.138621
0.138586
0.138603
0.138569
0.138587
0.138553
0.138572
0.138539
0.138558
0.138526
0.138546
0.138515
0.138535
0.138504
0.138525
0.138496
0.138517
0.138489
0.138511
0.138483
0.138508
0.138481
0.138507
0.138482
0.138509
0.138486
0.138516
0.138495
0.138528
0.13851
0.138546
0.138531
0.138571
0.13856
0.138603
0.138596
0.138643
0.13864
0.138691
0.138693
0.138748
0.138753
0.138813
0.138821
0.138884
0.138896
0.138961
0.138975
0.139042
0.139057
0.139125
0.139139
0.139207
0.139221
0.139288
0.139299
0.139365
0.139372
0.139436
0.139435
0.139497
0.139486
0.139545
0.139523
0.13958
0.139545
0.139599
0.139551
0.139602
0.139541
0.139589
0.139515
0.139554
0.139467
0.1395
0.139407
0.139433
0.139334
0.139355
0.139251
0.139268
0.139159
0.139173
0.139061
0.139073
0.138959
0.138971
0.138856
0.138869
0.138754
0.13877
0.138654
0.138673
0.138559
0.138582
0.138469
0.138495
0.138384
0.138414
0.138305
0.138338
0.138231
0.138267
0.138163
0.1382
0.138099
0.138138
0.138039
0.138079
0.137983
0.138023
0.137929
0.13797
0.137877
0.137918
0.137826
0.137868
0.137777
0.137818
0.137728
0.13777
0.13768
0.137721
0.137633
0.137674
0.137585
0.137626
0.137538
0.137579
0.137492
0.137532
0.137445
0.137486
0.137399
0.137441
0.137354
0.137396
0.13731
0.137352
0.137266
0.137309
0.137224
0.137267
0.137183
0.137226
0.137143
0.137186
0.137104
0.137148
0.137066
0.137111
0.13703
0.137076
0.136996
0.137042
0.136962
0.137009
0.136931
0.136978
0.136901
0.136949
0.136872
0.136921
0.136845
0.136894
0.136819
0.136869
0.136795
0.136846
0.136772
0.136823
0.136751
0.136803
0.13673
0.136783
0.136711
0.136765
0.136694
0.136748
0.136678
0.136732
0.136662
0.136718
0.136649
0.136705
0.136637
0.136693
0.136626
0.136683
0.136617
0.136675
0.13661
0.136669
0.136606
0.136666
0.136604
0.136666
0.136606
0.136669
0.136611
0.136677
0.136621
0.136689
0.136636
0.136706
0.136655
0.136729
0.136681
0.136757
0.136712
0.136791
0.13675
0.136832
0.136793
0.136877
0.136841
0.136928
0.136894
0.136984
0.136952
0.137044
0.137012
0.137105
0.137075
0.137168
0.137138
0.13723
0.1372
0.137292
0.13726
0.137351
0.137317
0.137407
0.137369
0.137458
0.137414
0.137501
0.137451
0.137535
0.137478
0.13756
0.137493
0.137573
0.137402
0.989984
)
;

boundaryField
{
    inlet
    {
        type            calculated;
        value           uniform 0.194831;
    }
    outlet
    {
        type            calculated;
        value           uniform 0.0477456;
    }
    emptyWalls
    {
        type            empty;
    }
}


// ************************************************************************* //
