/*--------------------------------*- C++ -*----------------------------------*\
  =========                 |
  \\      /  F ield         | OpenFOAM: The Open Source CFD Toolbox
   \\    /   O peration     | Website:  https://openfoam.org
    \\  /    A nd           | Version:  9
     \\/     M anipulation  |
\*---------------------------------------------------------------------------*/
FoamFile
{
    format      ascii;
    class       volScalarField;
    location    "29850";
    object      p;
}
// * * * * * * * * * * * * * * * * * * * * * * * * * * * * * * * * * * * * * //

dimensions      [0 0 0 0 0 0 0];

internalField   nonuniform List<scalar> 
1000
(
158436
158011
157586
157163
156742
156322
155904
155488
155073
154659
154247
153837
153428
153021
152616
152212
151810
151410
151011
150614
150218
149824
149432
149041
148651
148263
147877
147491
147107
146724
146342
145961
145581
145201
144823
144444
144067
143689
143313
142937
142566
142211
141910
141768
141671
141582
141496
141410
141325
141240
141156
141071
140988
140904
140820
140737
140654
140571
140488
140405
140323
140240
140158
140075
139993
139911
139829
139746
139664
139582
139501
139419
139337
139255
139173
139091
139010
138928
138846
138765
138683
138601
138520
138438
138357
138275
138193
138112
138030
137949
137867
137785
137704
137622
137540
137459
137377
137296
137214
137132
137051
136969
136887
136805
136724
136642
136560
136478
136396
136314
136232
136149
136067
135985
135902
135819
135736
135653
135570
135487
135403
135319
135236
135151
135067
134982
134898
134813
134727
134642
134556
134470
134384
134298
134212
134125
134038
133951
133863
133776
133688
133600
133512
133424
133335
133246
133157
133068
132979
132889
132799
132709
132619
132528
132437
132347
132256
132164
132073
131981
131889
131797
131705
131612
131519
131426
131333
131240
131146
131053
130959
130865
130770
130676
130581
130486
130391
130296
130200
130105
130009
129913
129816
129720
129623
129526
129429
129332
129235
129137
129039
128941
128843
128745
128646
128547
128448
128349
128250
128150
128051
127951
127851
127750
127650
127549
127449
127348
127246
127145
127044
126942
126840
126738
126636
126534
126431
126328
126225
126122
126019
125916
125812
125708
125604
125500
125396
125292
125187
125082
124977
124872
124766
124661
124555
124449
124343
124236
124130
124023
123916
123809
123701
123594
123486
123378
123270
123162
123054
122945
122837
122728
122619
122509
122400
122290
122181
122071
121961
121850
121740
121629
121518
121407
121296
121185
121073
120962
120850
120738
120626
120513
120401
120288
120175
120062
119949
119835
119722
119608
119494
119380
119266
119151
119037
118922
118807
118692
118577
118461
118346
118230
118114
117998
117882
117765
117649
117532
117415
117298
117181
117063
116946
116828
116710
116592
116474
116355
116237
116118
115999
115880
115761
115641
115522
115402
115282
115162
115042
114922
114801
114681
114560
114439
114318
114196
114075
113953
113832
113710
113587
113465
113343
113220
113098
112975
112852
112729
112605
112482
112358
112234
112110
111986
111862
111738
111613
111489
111364
111239
111114
110989
110863
110738
110612
110486
110360
110234
110108
109982
109855
109728
109601
109474
109347
109219
109092
108964
108836
108708
108580
108451
108323
108194
108065
107936
107807
107678
107548
107418
107289
107159
107028
106898
106768
106637
106506
106375
106244
106113
105982
105850
105718
105587
105455
105323
105190
105058
104925
104792
104660
104526
104393
104260
104126
103993
103859
103725
103591
103457
103322
103188
103053
102918
102783
102648
102512
102377
102241
102106
101970
101834
101697
101561
101424
101288
101151
101014
100877
100740
100602
100465
100327
100189
100051
99912.9
99774.6
99636.2
99497.6
99358.8
99220
99080.9
98941.7
98802.4
98663
98523.3
98383.6
98243.7
98103.6
97963.4
97823.1
97682.6
97542
97401.2
97260.3
97119.2
96978
96836.7
96695.2
96553.5
96411.8
96269.8
96127.8
95985.5
95843.2
95700.7
95558.1
95415.3
95272.4
95129.3
94986.1
94842.7
94699.2
94555.6
94411.9
94268
94123.9
93979.7
93835.4
93691
93546.4
93401.7
93256.8
93111.8
92966.7
92821.5
92676.1
92530.6
92384.9
92239.1
92093.2
91947.2
91801
91654.7
91508.3
91361.7
91215
91068.1
90921.1
90774
90626.8
90479.4
90331.8
90184.2
90036.3
89888.4
89740.3
89592
89443.6
89295.1
89146.4
88997.5
88848.5
88699.4
88550.1
88400.7
88251.1
88101.3
87951.4
87801.4
87651.2
87500.9
87350.4
87199.8
87049
86898.1
86747.1
86595.9
86444.6
86293.1
86141.4
85989.7
85837.8
85685.7
85533.5
85381.2
85228.7
85076.1
84923.3
84770.4
84617.4
84464.2
84310.9
84157.4
84003.8
83850.1
83696.2
83542.2
83388
83233.7
83079.3
82924.7
82770
82615.1
82460.1
82305
82149.7
81994.3
81838.7
81683
81527.2
81371.2
81215.1
81058.9
80902.5
80745.9
80589.3
80432.4
80275.5
80118.4
79961.2
79803.8
79646.3
79488.7
79330.9
79173
79014.9
78856.7
78698.4
78539.9
78381.3
78222.5
78063.7
77904.6
77745.5
77586.2
77426.8
77267.2
77107.5
76947.7
76787.7
76627.6
76467.3
76306.9
76146.4
75985.8
75825
75664.1
75503
75341.8
75180.5
75019
74857.4
74695.7
74533.8
74371.8
74209.7
74047.4
73885
73722.4
73559.8
73396.9
73234
73070.9
72907.7
72744.4
72580.9
72417.3
72253.5
72089.7
71925.6
71761.5
71597.2
71432.8
71268.3
71103.6
70938.8
70773.9
70608.8
70443.7
70278.3
70112.9
69947.3
69781.6
69615.8
69449.9
69283.8
69117.6
68951.3
68784.8
68618.3
68451.6
68284.8
68117.8
67950.8
67783.6
67616.2
67448.8
67281.2
67113.6
66945.7
66777.8
66609.7
66441.5
66273.2
66104.7
65936.2
65767.4
65598.6
65429.6
65260.5
65091.2
64921.8
64752.3
64582.6
64412.8
64242.9
64072.8
63902.6
63732.2
63561.7
63391.1
63220.3
63049.4
62878.3
62707.1
62535.8
62364.3
62192.7
62020.9
61849
61677
61504.8
61332.5
61160
60987.4
60814.7
60641.8
60468.8
60295.7
60122.4
59949
59775.4
59601.8
59427.9
59254
59079.9
58905.7
58731.3
58556.8
58382.2
58207.4
58032.5
57857.5
57682.4
57507.1
57331.6
57156.1
56980.4
56804.5
56628.5
56452.4
56276.2
56099.8
55923.3
55746.7
55569.9
55393
55216
55038.8
54861.5
54684
54506.5
54328.7
54150.9
53972.9
53794.8
53616.5
53438.2
53259.7
53081
52902.2
52723.3
52544.3
52365.1
52185.8
52006.3
51826.7
51647
51467.2
51287.2
51107.1
50926.8
50746.5
50566
50385.3
50204.5
50023.6
49842.6
49661.4
49480.1
49298.7
49117.1
48935.4
48753.6
48571.7
48389.6
48207.4
48025
47842.5
47659.9
47477.2
47294.3
47111.3
46928.1
46744.9
46561.5
46377.9
46194.3
46010.5
45826.6
45642.5
45458.3
45274
45089.6
44905
44720.3
44535.5
44350.5
44165.4
43980.2
43794.9
43609.4
43423.8
43238
43052.2
42866.2
42680.1
42493.8
42307.5
42121
41934.3
41747.6
41560.7
41373.7
41186.6
40999.3
40812
40624.5
40436.9
40249.1
40061.2
39873.3
39685.1
39496.9
39308.6
39120.1
38931.5
38742.8
38553.9
38365
38175.9
37986.7
37797.3
37607.9
37418.3
37228.6
37038.7
36848.8
36658.7
36468.5
36278.1
36087.7
35897.1
35706.3
35515.5
35324.5
35133.4
34942.1
34750.7
34559.2
34367.5
34175.7
33983.8
33791.7
33599.5
33407.2
33214.7
33022.1
32829.3
32636.4
32443.4
32250.2
32056.9
31863.4
31669.8
31476.1
31282.2
31088.2
30894
30699.7
30505.3
30310.8
30116.1
29921.2
29726.2
29531.1
29335.9
29140.5
28945
28749.3
28553.5
28357.6
28161.5
27965.3
27769
27572.5
27375.9
27179.2
26982.3
26785.3
26588.2
26390.9
26193.5
25995.9
25798.2
25600.4
25402.5
25204.4
25006.1
24807.8
24609.3
24410.6
24211.9
24013
23813.9
23614.8
23415.5
23216
23016.5
22816.7
22616.9
22416.9
22216.8
22016.5
21816.2
21615.6
21415
21214.2
21013.3
20812.2
20611
20409.7
20208.2
20006.6
19804.8
19603
19401
19198.8
18996.5
18794.1
18591.6
18388.9
18186.1
17983.1
17780
17576.8
17373.5
17170
16966.4
16762.6
16558.7
16354.7
16150.5
15946.2
15741.8
15537.2
15332.5
15127.7
14922.7
14717.6
14512.4
14307
14101.5
13895.8
13690.1
13484.2
13278.1
13071.9
12865.6
12659.2
12452.6
12245.9
12039
11832.1
11624.9
11417.7
11210.3
11002.8
10795.1
10587.3
10379.4
10171.4
9963.17
9754.85
9546.39
9337.81
9129.09
8920.23
8711.25
8502.13
8292.88
8083.5
7873.98
7664.34
7454.56
7244.66
7034.62
6824.45
6614.16
6403.73
6193.17
5982.48
5771.67
5560.72
5349.65
5138.44
4927.11
4715.65
4504.06
4292.34
4080.49
3868.51
3656.4
3444.16
3231.79
3019.3
2806.67
2593.91
2381.02
2168
1954.84
1741.56
1528.14
1314.58
1100.9
887.074
673.116
459.023
244.654
)
;

boundaryField
{
    inlet
    {
        type            darcyGradPressure;
        gradient        uniform 116344;
        Mf              Mf;
        phi             phi;
        value           uniform 158650;
    }
    outlet
    {
        type            fixedValue;
        value           uniform 0;
    }
    emptyWalls
    {
        type            empty;
    }
}


// ************************************************************************* //
