/*--------------------------------*- C++ -*----------------------------------*\
  =========                 |
  \\      /  F ield         | OpenFOAM: The Open Source CFD Toolbox
   \\    /   O peration     | Website:  https://openfoam.org
    \\  /    A nd           | Version:  9
     \\/     M anipulation  |
\*---------------------------------------------------------------------------*/
FoamFile
{
    format      ascii;
    class       volScalarField;
    location    "29850";
    object      Sa;
}
// * * * * * * * * * * * * * * * * * * * * * * * * * * * * * * * * * * * * * //

dimensions      [0 0 0 0 0 0 0];

internalField   nonuniform List<scalar> 
1000
(
0.549649
0.548946
0.548018
0.547076
0.546143
0.545184
0.544258
0.543276
0.54235
0.541342
0.540408
0.539381
0.538424
0.537396
0.536402
0.535379
0.534356
0.533331
0.532304
0.531278
0.530263
0.529254
0.528262
0.527296
0.526348
0.525454
0.524573
0.523786
0.522993
0.522333
0.521651
0.521108
0.520559
0.520113
0.51969
0.519328
0.518992
0.518661
0.51819
0.51698
0.512624
0.49448
0.381998
0.139036
0.0836233
0.068305
0.0615374
0.0575248
0.0546911
0.0524675
0.0506108
0.0489967
0.0475601
0.0462581
0.0450663
0.0439645
0.0429416
0.0419856
0.0410911
0.0402499
0.0394588
0.0387111
0.0380055
0.0373366
0.0367033
0.0361021
0.0355322
0.0349902
0.0344756
0.0339846
0.0335174
0.0330702
0.032642
0.0322316
0.0318389
0.031462
0.0311021
0.0307574
0.0304292
0.030113
0.0298083
0.0295148
0.0292328
0.0289595
0.0286948
0.0284375
0.0281909
0.0279501
0.0277188
0.0274981
0.0272874
0.0270865
0.0269017
0.0267346
0.0265765
0.0264263
0.0262827
0.0261443
0.0260097
0.0258779
0.0257484
0.0256218
0.0254998
0.0253839
0.0252735
0.025165
0.0250518
0.0249407
0.0248289
0.0247218
0.0246165
0.0245184
0.0244246
0.0243405
0.0242633
0.0241985
0.0241424
0.0240991
0.0240617
0.0240301
0.0239972
0.0239676
0.0239363
0.023908
0.0238776
0.0238498
0.0238196
0.0237916
0.023761
0.0237325
0.0237012
0.023672
0.0236402
0.0236106
0.0235784
0.0235485
0.0235161
0.0234862
0.0234539
0.0234241
0.023392
0.0233625
0.0233307
0.0233015
0.0232701
0.0232413
0.0232102
0.0231818
0.0231512
0.0231232
0.023093
0.0230654
0.0230357
0.0230086
0.0229793
0.0229527
0.0229238
0.0228976
0.0228691
0.0228434
0.0228153
0.0227899
0.0227622
0.0227371
0.0227098
0.0226852
0.0226584
0.0226342
0.0226079
0.0225843
0.0225584
0.0225352
0.0225098
0.0224871
0.022462
0.0224396
0.0224147
0.0223926
0.022368
0.022346
0.0223217
0.0223001
0.0222762
0.022255
0.0222316
0.022211
0.022188
0.0221678
0.0221452
0.0221253
0.0221029
0.0220832
0.0220608
0.0220409
0.0220184
0.0219984
0.0219758
0.0219557
0.0219333
0.0219139
0.0218924
0.0218743
0.0218546
0.0218387
0.0218213
0.0218079
0.0217932
0.0217824
0.0217701
0.0217614
0.0217509
0.0217437
0.0217343
0.0217278
0.0217187
0.0217119
0.0217019
0.0216938
0.0216819
0.0216713
0.0216565
0.0216425
0.021624
0.0216061
0.0215837
0.021562
0.0215359
0.021511
0.0214821
0.021455
0.0214245
0.0213964
0.0213657
0.0213379
0.021308
0.0212814
0.021253
0.0212282
0.0212018
0.021179
0.0211546
0.0211337
0.021111
0.0210917
0.0210704
0.0210523
0.021032
0.0210147
0.020995
0.0209782
0.0209588
0.0209421
0.0209228
0.0209062
0.0208868
0.0208701
0.0208506
0.0208338
0.0208143
0.0207974
0.0207778
0.0207608
0.0207412
0.0207243
0.0207047
0.0206878
0.0206683
0.0206516
0.0206322
0.0206156
0.0205963
0.0205799
0.0205608
0.0205445
0.0205257
0.0205096
0.0204909
0.0204751
0.0204566
0.020441
0.0204227
0.0204073
0.0203892
0.020374
0.0203562
0.0203412
0.0203235
0.0203087
0.0202913
0.0202767
0.0202595
0.0202452
0.0202282
0.0202141
0.0201974
0.0201835
0.020167
0.0201533
0.020137
0.0201235
0.0201074
0.0200941
0.0200782
0.020065
0.0200493
0.0200363
0.0200207
0.020008
0.0199926
0.0199801
0.0199649
0.0199526
0.0199376
0.0199254
0.0199106
0.0198986
0.0198839
0.019872
0.0198574
0.0198455
0.0198309
0.0198191
0.0198045
0.0197927
0.0197783
0.0197667
0.0197526
0.0197414
0.0197278
0.0197173
0.0197044
0.0196948
0.019683
0.0196745
0.0196637
0.0196564
0.0196469
0.0196408
0.0196325
0.0196275
0.0196202
0.0196161
0.0196095
0.0196059
0.0195996
0.0195961
0.0195897
0.0195859
0.0195788
0.0195741
0.0195659
0.0195598
0.0195501
0.0195422
0.0195305
0.0195206
0.0195069
0.0194949
0.0194792
0.0194653
0.0194477
0.0194321
0.0194131
0.0193964
0.0193765
0.0193592
0.0193389
0.0193214
0.0193012
0.0192841
0.0192644
0.0192479
0.0192289
0.0192133
0.0191953
0.0191806
0.0191635
0.0191497
0.0191335
0.0191205
0.019105
0.0190927
0.0190779
0.019066
0.0190516
0.0190402
0.019026
0.0190148
0.0190008
0.0189897
0.0189758
0.0189648
0.0189509
0.0189399
0.018926
0.018915
0.0189011
0.01889
0.0188761
0.018865
0.0188511
0.01884
0.0188261
0.0188151
0.0188012
0.0187902
0.0187764
0.0187654
0.0187517
0.0187408
0.0187272
0.0187164
0.0187028
0.0186922
0.0186788
0.0186682
0.0186549
0.0186445
0.0186313
0.018621
0.0186079
0.0185978
0.0185848
0.0185748
0.018562
0.0185521
0.0185394
0.0185297
0.0185171
0.0185075
0.0184951
0.0184857
0.0184734
0.0184641
0.0184519
0.0184428
0.0184307
0.0184217
0.0184098
0.0184009
0.0183891
0.0183803
0.0183687
0.01836
0.0183485
0.01834
0.0183285
0.0183201
0.0183088
0.0183005
0.0182894
0.0182812
0.0182701
0.018262
0.018251
0.018243
0.0182321
0.0182241
0.0182133
0.0182054
0.0181946
0.0181868
0.0181761
0.0181684
0.0181578
0.0181503
0.0181399
0.0181327
0.0181226
0.0181157
0.0181061
0.0180996
0.0180905
0.0180846
0.0180761
0.0180708
0.018063
0.0180584
0.0180512
0.0180473
0.0180408
0.0180375
0.0180316
0.0180289
0.0180234
0.018021
0.0180158
0.0180136
0.0180085
0.0180062
0.0180009
0.0179984
0.0179926
0.0179895
0.0179831
0.0179792
0.0179718
0.0179669
0.0179585
0.0179525
0.0179429
0.0179356
0.0179247
0.0179163
0.0179043
0.0178947
0.0178816
0.0178711
0.0178571
0.0178459
0.0178314
0.0178196
0.0178047
0.0177928
0.0177778
0.0177659
0.017751
0.0177393
0.0177248
0.0177134
0.0176993
0.0176884
0.0176748
0.0176644
0.0176513
0.0176414
0.0176288
0.0176193
0.0176071
0.0175981
0.0175863
0.0175776
0.0175661
0.0175577
0.0175464
0.0175382
0.017527
0.017519
0.0175079
0.0174999
0.017489
0.017481
0.0174701
0.0174622
0.0174512
0.0174434
0.0174324
0.0174245
0.0174136
0.0174057
0.0173948
0.0173869
0.017376
0.0173682
0.0173573
0.0173495
0.0173386
0.0173309
0.01732
0.0173123
0.0173016
0.0172939
0.0172832
0.0172756
0.017265
0.0172575
0.0172469
0.0172395
0.017229
0.0172217
0.0172113
0.017204
0.0171937
0.0171865
0.0171763
0.0171693
0.0171591
0.0171522
0.0171421
0.0171353
0.0171253
0.0171186
0.0171087
0.0171021
0.0170923
0.0170858
0.0170761
0.0170696
0.0170601
0.0170537
0.0170442
0.0170379
0.0170285
0.0170223
0.017013
0.0170069
0.0169977
0.0169917
0.0169826
0.0169766
0.0169676
0.0169617
0.0169527
0.0169469
0.016938
0.0169322
0.0169234
0.0169177
0.0169089
0.0169033
0.0168946
0.0168891
0.0168804
0.016875
0.0168665
0.0168612
0.0168528
0.0168476
0.0168394
0.0168345
0.0168265
0.0168218
0.0168141
0.0168097
0.0168024
0.0167984
0.0167914
0.0167877
0.0167811
0.0167779
0.0167718
0.016769
0.0167632
0.0167608
0.0167555
0.0167534
0.0167484
0.0167466
0.0167419
0.0167403
0.0167357
0.0167343
0.0167297
0.0167282
0.0167235
0.0167219
0.016717
0.016715
0.0167098
0.0167074
0.0167016
0.0166986
0.0166922
0.0166886
0.0166815
0.0166771
0.0166692
0.0166641
0.0166554
0.0166496
0.0166401
0.0166335
0.0166233
0.016616
0.0166053
0.0165974
0.0165862
0.0165779
0.0165663
0.0165578
0.016546
0.0165373
0.0165254
0.0165167
0.0165048
0.0164962
0.0164845
0.0164761
0.0164646
0.0164564
0.0164452
0.0164373
0.0164264
0.0164188
0.0164081
0.0164009
0.0163905
0.0163835
0.0163733
0.0163666
0.0163567
0.0163501
0.0163404
0.016334
0.0163244
0.0163181
0.0163087
0.0163025
0.0162931
0.016287
0.0162777
0.0162717
0.0162624
0.0162564
0.0162471
0.0162412
0.0162319
0.016226
0.0162167
0.0162108
0.0162016
0.0161956
0.0161864
0.0161805
0.0161713
0.0161655
0.0161563
0.0161505
0.0161413
0.0161355
0.0161264
0.0161207
0.0161116
0.0161059
0.0160969
0.0160913
0.0160823
0.0160767
0.0160678
0.0160623
0.0160535
0.016048
0.0160392
0.0160338
0.0160251
0.0160198
0.0160112
0.0160059
0.0159974
0.0159922
0.0159837
0.0159786
0.0159702
0.0159651
0.0159568
0.0159518
0.0159436
0.0159387
0.0159305
0.0159257
0.0159176
0.0159128
0.0159048
0.0159001
0.0158921
0.0158875
0.0158796
0.015875
0.0158672
0.0158627
0.0158549
0.0158504
0.0158427
0.0158383
0.0158307
0.0158263
0.0158187
0.0158144
0.0158069
0.0158027
0.0157952
0.015791
0.0157836
0.0157795
0.0157722
0.0157682
0.015761
0.0157571
0.01575
0.0157462
0.0157392
0.0157357
0.0157288
0.0157254
0.0157188
0.0157156
0.0157092
0.0157063
0.0157001
0.0156974
0.0156915
0.0156891
0.0156835
0.0156813
0.0156759
0.015674
0.015669
0.0156673
0.0156625
0.015661
0.0156564
0.0156552
0.0156507
0.0156495
0.0156451
0.015644
0.0156396
0.0156385
0.015634
0.0156329
0.0156283
0.0156271
0.0156222
0.0156209
0.0156155
0.0156141
0.0156081
0.0156065
0.0155998
0.015598
0.0155906
0.0155886
0.0155804
0.0155782
0.0155692
0.0155668
0.015557
0.015554
0.0155435
0.0155401
0.0155292
0.0155254
0.0155141
0.0155101
0.0154984
0.0154941
0.0154821
0.0154777
0.0154656
0.015461
0.0154488
0.0154442
0.0154319
0.0154275
0.0154152
0.0154109
0.0153986
0.0153945
0.0153824
0.0153785
0.0153665
0.0153627
0.0153509
0.0153473
0.0153358
0.0153323
0.0153211
0.0153175
0.0153067
0.0153031
0.0152926
0.0152889
0.0152788
0.015275
0.0152653
0.0152612
0.0152519
0.0152476
0.0152387
0.0152342
0.0152255
0.0152209
0.0152125
0.0152077
0.0151995
0.0151946
0.0151865
0.0151815
0.0151736
0.0151685
0.0151607
0.0151555
0.0151478
0.0151426
0.015135
0.0151297
0.0151222
0.0151169
0.0151094
0.0151042
0.0150967
0.0150915
0.015084
0.0150789
0.0150715
0.0150664
0.015059
0.015054
0.0150466
0.0150416
0.0150342
0.0150294
0.015022
0.0150172
0.0150099
0.0150051
0.0149979
0.0149932
0.014986
0.0149813
0.0149742
0.0149696
0.0149625
0.014958
0.0149509
0.0149464
0.0149394
0.014935
0.014928
0.0149237
0.0149168
0.0149125
0.0149056
0.0149014
0.0148945
0.0148904
0.0148836
0.0148795
0.0148727
0.0148687
0.0148619
0.014858
0.0148513
0.0148474
0.0148407
0.0148368
0.0148301
0.0148264
0.0148197
0.0148161
0.0148094
0.0148058
0.0147992
0.0147957
0.0147891
0.0147857
0.0147792
0.0147758
0.0147694
0.0147661
0.0147598
0.0147566
0.0147504
0.0147473
0.0147413
0.0147383
0.0147324
0.0147296
0.0147238
0.0147212
0.0147156
0.0147132
0.0147077
0.0147054
0.0147001
0.0146981
0.014693
0.0146911
0.0146861
0.0146845
0.0146797
0.0146782
0.0146735
0.0146722
0.0146676
0.0146664
0.0146618
0.0146607
0.0146562
0.0146551
0.0146506
0.0146495
0.014645
0.0146439
0.0146393
0.0146381
0.0146333
0.0146321
0.0146271
0.0146258
0.0146204
0.014619
0.0146133
0.0146118
0.0146055
0.0146039
0.0145971
0.0145953
0.0145823
0.267006
)
;

boundaryField
{
    inlet
    {
        type            fixedValue;
        value           uniform 0.55;
    }
    outlet
    {
        type            zeroGradient;
    }
    emptyWalls
    {
        type            empty;
    }
}


// ************************************************************************* //
