/*--------------------------------*- C++ -*----------------------------------*\
  =========                 |
  \\      /  F ield         | OpenFOAM: The Open Source CFD Toolbox
   \\    /   O peration     | Website:  https://openfoam.org
    \\  /    A nd           | Version:  9
     \\/     M anipulation  |
\*---------------------------------------------------------------------------*/
FoamFile
{
    format      ascii;
    class       volScalarField;
    location    "17750";
    object      kra;
}
// * * * * * * * * * * * * * * * * * * * * * * * * * * * * * * * * * * * * * //

dimensions      [0 0 0 0 0 0 0];

internalField   nonuniform List<scalar> 
1000
(
0.000236783
0.000238052
0.000239569
0.000241157
0.000242695
0.000244259
0.000245829
0.000247417
0.000249005
0.000250604
0.000252189
0.000253752
0.000255281
0.000256735
0.000258138
0.000259377
0.000260601
0.000261546
0.000262551
0.000263248
0.000264097
0.000265095
0.000268003
0.000278226
0.000331116
0.000639181
0.000849066
0.00088984
0.000904261
0.000911964
0.000916919
0.000920874
0.000925184
0.000930476
0.000936305
0.000941558
0.000945228
0.000947039
0.000947508
0.000947499
0.000947248
0.000945403
0.000942057
0.000938662
0.000935559
0.000932955
0.000930918
0.00092944
0.000928457
0.000927914
0.000927628
0.000927558
0.000927391
0.000927295
0.000927091
0.000926748
0.000926221
0.000925547
0.000924709
0.000923748
0.000922645
0.000921431
0.000920073
0.000918583
0.000916904
0.000915019
0.000912845
0.000910353
0.000907487
0.00090429
0.00090082
0.000897176
0.000893432
0.000889632
0.000885806
0.000881976
0.000878155
0.000874354
0.000870578
0.000866834
0.000863123
0.00085945
0.000855815
0.000852221
0.000848668
0.000845156
0.000841686
0.000838257
0.000834871
0.000831526
0.000828221
0.000824958
0.000821735
0.000818551
0.000815406
0.000812298
0.000809229
0.000806196
0.000803199
0.000800239
0.000797316
0.000794428
0.000791578
0.000788763
0.000785986
0.000783243
0.000780535
0.00077786
0.000775215
0.000772596
0.000770004
0.000767431
0.000764881
0.000762351
0.000759846
0.000757364
0.00075491
0.000752483
0.000750085
0.000747716
0.000745377
0.000743063
0.000740776
0.000738507
0.000736254
0.00073401
0.000731773
0.000729543
0.000727329
0.00072514
0.000722994
0.00072091
0.000718906
0.000716998
0.000715198
0.000713512
0.00071194
0.000710478
0.000709116
0.000707843
0.000706643
0.0007055
0.000704394
0.000703307
0.000702215
0.000701096
0.000699922
0.000698671
0.000697313
0.00069583
0.000694199
0.00069241
0.000690451
0.000688329
0.000686048
0.00068363
0.000681092
0.000678468
0.000675784
0.000673079
0.000670377
0.000667713
0.000665108
0.000662584
0.000660153
0.000657826
0.000655605
0.000653491
0.000651477
0.000649557
0.000647721
0.000645959
0.000644258
0.000642608
0.000640997
0.000639416
0.000637857
0.000636311
0.000634774
0.000633241
0.000631708
0.000630173
0.000628635
0.000627093
0.000625549
0.000624001
0.000622452
0.000620903
0.000619354
0.000617808
0.000616265
0.000614727
0.000613194
0.000611668
0.00061015
0.000608641
0.00060714
0.000605648
0.000604166
0.000602694
0.000601232
0.000599781
0.00059834
0.000596909
0.000595489
0.00059408
0.000592681
0.000591293
0.000589915
0.000588548
0.000587191
0.000585844
0.000584508
0.000583182
0.000581866
0.00058056
0.000579263
0.000577977
0.000576701
0.000575434
0.000574177
0.00057293
0.000571691
0.000570462
0.000569243
0.000568032
0.000566831
0.00056564
0.000564457
0.000563284
0.00056212
0.000560965
0.00055982
0.000558683
0.000557556
0.000556438
0.000555328
0.000554227
0.000553133
0.000552047
0.000550968
0.000549896
0.000548831
0.000547773
0.000546721
0.000545675
0.000544637
0.000543605
0.000542579
0.000541561
0.000540549
0.000539544
0.000538545
0.000537551
0.000536563
0.00053558
0.000534601
0.000533627
0.000532658
0.000531694
0.000530737
0.000529788
0.00052885
0.000527924
0.000527014
0.000526123
0.000525255
0.000524411
0.000523596
0.000522811
0.000522059
0.000521341
0.000520658
0.00052001
0.000519397
0.000518817
0.000518266
0.000517743
0.000517242
0.000516758
0.000516287
0.00051582
0.000515352
0.000514876
0.000514382
0.000513863
0.000513313
0.000512723
0.000512087
0.000511399
0.000510654
0.000509849
0.000508982
0.000508053
0.000507063
0.000506015
0.000504914
0.000503765
0.000502576
0.000501354
0.00050011
0.00049885
0.000497585
0.000496321
0.000495068
0.00049383
0.000492617
0.000491429
0.000490274
0.00048915
0.000488062
0.000487007
0.000485989
0.000485001
0.000484046
0.000483118
0.000482218
0.00048134
0.000480483
0.000479643
0.000478818
0.000478005
0.000477201
0.000476405
0.000475614
0.000474827
0.000474043
0.000473259
0.000472476
0.000471693
0.000470909
0.000470124
0.000469337
0.00046855
0.000467762
0.000466973
0.000466183
0.000465393
0.000464603
0.000463814
0.000463025
0.000462238
0.000461452
0.000460668
0.000459886
0.000459106
0.000458329
0.000457555
0.000456783
0.000456015
0.00045525
0.000454489
0.000453731
0.000452977
0.000452227
0.000451481
0.000450738
0.000449999
0.000449264
0.000448534
0.000447806
0.000447084
0.000446365
0.000445651
0.00044494
0.000444233
0.000443531
0.000442832
0.000442138
0.000441447
0.000440761
0.000440079
0.000439401
0.000438726
0.000438057
0.00043739
0.000436729
0.000436071
0.000435418
0.000434767
0.000434122
0.00043348
0.000432843
0.000432209
0.00043158
0.000430954
0.000430332
0.000429714
0.000429099
0.000428488
0.000427881
0.000427277
0.000426676
0.000426078
0.000425484
0.000424893
0.000424304
0.000423719
0.000423137
0.000422558
0.000421981
0.000421407
0.000420836
0.000420267
0.000419702
0.000419138
0.000418577
0.000418019
0.000417463
0.00041691
0.00041636
0.000415813
0.00041527
0.000414732
0.000414198
0.00041367
0.000413148
0.000412634
0.000412128
0.000411631
0.000411144
0.000410668
0.000410204
0.000409754
0.000409316
0.000408893
0.000408484
0.000408091
0.000407712
0.000407347
0.000406997
0.00040666
0.000406335
0.000406022
0.000405718
0.000405422
0.000405131
0.000404845
0.000404559
0.000404272
0.000403981
0.000403683
0.000403375
0.000403055
0.000402719
0.000402365
0.00040199
0.000401592
0.00040117
0.000400722
0.000400245
0.000399741
0.000399208
0.000398646
0.000398057
0.000397442
0.000396801
0.000396137
0.000395454
0.000394752
0.000394035
0.000393307
0.000392571
0.000391829
0.000391085
0.000390342
0.000389602
0.000388869
0.000388143
0.000387428
0.000386724
0.000386034
0.000385356
0.000384693
0.000384045
0.00038341
0.00038279
0.000382183
0.00038159
0.000381008
0.000380438
0.000379879
0.000379328
0.000378786
0.000378251
0.000377723
0.0003772
0.000376681
0.000376167
0.000375655
0.000375146
0.000374638
0.000374132
0.000373626
0.000373121
0.000372616
0.000372111
0.000371606
0.000371101
0.000370595
0.000370089
0.000369583
0.000369076
0.000368569
0.000368062
0.000367556
0.000367049
0.000366543
0.000366037
0.000365531
0.000365026
0.000364522
0.000364019
0.000363518
0.000363017
0.000362517
0.000362019
0.000361523
0.000361028
0.000360534
0.000360043
0.000359553
0.000359065
0.000358578
0.000358094
0.000357612
0.000357131
0.000356653
0.000356176
0.000355702
0.00035523
0.00035476
0.000354292
0.000353826
0.000353362
0.000352901
0.000352441
0.000351984
0.000351528
0.000351075
0.000350624
0.000350175
0.000349728
0.000349284
0.00034884
0.000348401
0.000347962
0.000347526
0.000347091
0.000346659
0.000346228
0.0003458
0.000345374
0.000344949
0.000344527
0.000344106
0.000343687
0.00034327
0.000342854
0.00034244
0.000342028
0.000341617
0.000341208
0.0003408
0.000340394
0.00033999
0.000339586
0.000339184
0.000338784
0.000338384
0.000337986
0.000337589
0.000337194
0.0003368
0.000336407
0.000336015
0.000335625
0.000335236
0.000334848
0.000334463
0.000334079
0.000333697
0.000333317
0.00033294
0.000332566
0.000332194
0.000331826
0.000331461
0.0003311
0.000330744
0.000330392
0.000330045
0.000329704
0.000329368
0.000329038
0.000328714
0.000328397
0.000328087
0.000327783
0.000327486
0.000327196
0.000326912
0.000326635
0.000326364
0.000326099
0.000325839
0.000325585
0.000325334
0.000325088
0.000324842
0.000324601
0.000324358
0.000324117
0.000323872
0.000323628
0.000323378
0.000323125
0.000322865
0.000322598
0.000322323
0.000322038
0.000321744
0.000321436
0.000321119
0.000320786
0.000320441
0.000320082
0.000319706
0.000319318
0.000318913
0.000318494
0.000318061
0.000317612
0.000317152
0.000316677
0.000316193
0.000315697
0.000315191
0.000314678
0.000314156
0.000313631
0.000313099
0.000312566
0.000312031
0.000311494
0.000310961
0.000310427
0.000309897
0.000309371
0.000308849
0.000308333
0.000307822
0.000307318
0.00030682
0.00030633
0.000305847
0.00030537
0.000304901
0.000304438
0.000303983
0.000303535
0.000303093
0.000302658
0.00030223
0.000301807
0.000301392
0.000300982
0.000300579
0.000300182
0.000299791
0.000299409
0.000299031
0.000298663
0.000298302
0.00029795
0.000297609
0.000297276
0.000296956
0.000296646
0.000296349
0.000296066
0.000295795
0.000295542
0.000295301
0.000295078
0.000294869
0.000294675
0.000294499
0.000294335
0.000294189
0.000294054
0.000293933
0.000293825
0.000293727
0.00029364
0.000293561
0.000293491
0.000293426
0.000293367
0.000293309
0.000293251
0.000293186
0.000293107
0.000292997
0.000292829
0.000292559
0.0002921
0.000291315
0.00028997
0.00028771
0.000284066
0.000278605
0.000271325
0.000263125
0.000255691
0.000250367
0.000247263
0.000245685
0.000244925
0.000244558
0.000244374
0.000244278
0.000244225
0.000244193
0.000244173
0.000244159
0.000244149
0.00024414
0.000244133
0.000244127
0.000244122
0.000244117
0.000244113
0.00024411
0.000244108
0.000244106
0.000244105
0.000244105
0.000244105
0.000244105
0.000244107
0.000244109
0.000244112
0.000244115
0.000244119
0.000244123
0.000244128
0.000244133
0.000244139
0.000244145
0.000244153
0.00024416
0.000244168
0.000244176
0.000244185
0.000244195
0.000244205
0.000244215
0.000244226
0.000244237
0.000244249
0.000244261
0.000244274
0.000244287
0.000244301
0.000244316
0.000244331
0.000244347
0.000244364
0.000244381
0.0002444
0.000244419
0.00024444
0.000244461
0.000244485
0.000244509
0.000244535
0.000244562
0.000244591
0.000244622
0.000244656
0.000244691
0.000244728
0.000244768
0.000244811
0.000244856
0.000244904
0.000244954
0.000245008
0.000245064
0.000245124
0.000245187
0.000245253
0.000245322
0.000245394
0.000245469
0.000245548
0.000245629
0.000245713
0.000245799
0.000245888
0.000245979
0.000246072
0.000246167
0.000246263
0.000246359
0.000246457
0.000246554
0.000246651
0.000246748
0.000246843
0.000246937
0.000247029
0.000247118
0.000247204
0.000247286
0.000247364
0.000247438
0.000247506
0.000247569
0.000247626
0.000247677
0.000247721
0.000247757
0.000247787
0.000247808
0.000247822
0.000247828
0.000247829
0.000247828
0.000247825
0.000247804
0.000247773
0.000247735
0.00024769
0.000247639
0.000247582
0.00024752
0.000247454
0.000247382
0.000247307
0.000247229
0.000247148
0.000247065
0.00024698
0.000246894
0.000246808
0.000246721
0.000246636
0.00024655
0.000246467
0.000246385
0.000246305
0.000246227
0.000246152
0.00024608
0.00024601
0.000245944
0.00024588
0.00024582
0.000245763
0.000245709
0.000245658
0.000245611
0.000245566
0.000245523
0.000245484
0.000245447
0.000245412
0.000245379
0.000245348
0.000245319
0.000245292
0.000245266
0.000245241
0.000245217
0.000245195
0.000245173
0.000245152
0.000245131
0.000245111
0.000245091
0.000245072
0.000245052
0.000245033
0.000245014
0.000244994
0.000244975
0.000244956
0.000244936
0.000244916
0.000244897
0.000244877
0.000244856
0.000244836
0.000244816
0.000244795
0.000244774
0.000244754
0.000244733
0.000244712
0.000244691
0.00024467
0.00024465
0.000244629
0.000244608
0.000244588
0.000244568
0.000244548
0.000244528
0.000244508
0.000244489
0.00024447
0.000244452
0.000244434
0.000244416
0.000244399
0.000244382
0.000244365
0.000244349
0.000244334
0.000244319
0.000244305
0.000244291
0.000244278
0.000244265
0.000244253
0.000244241
0.00024423
0.00024422
0.00024421
0.000244201
0.000244193
0.000244185
0.000244178
0.000244171
0.000244165
0.00024416
0.000244155
0.000244151
0.000244148
0.000244145
0.000244143
0.000244141
0.000244141
0.00024414
0.00024414
0.00024414
0.000244141
0.000244143
0.000244146
0.000244149
0.000244153
0.000244157
0.000244162
0.000244168
0.000244174
0.000244181
0.000244187
0.000244197
0.000244202
0.000244215
0.000244219
0.000244235
0.000244239
0.000244257
0.000244262
0.000244282
0.000244287
0.000244309
0.000244315
0.00024434
0.000244346
0.000244374
0.000244381
0.000244412
0.00024442
0.000244454
0.000244463
0.000244502
0.000244512
0.000244555
0.000244566
0.000244614
0.000244627
0.000244681
0.000244696
0.000244756
0.000244772
0.00024484
0.000244858
0.000244932
0.000244952
0.000245035
0.000245057
0.000245147
0.000245171
0.00024527
0.000245296
0.000245435
)
;

boundaryField
{
    inlet
    {
        type            calculated;
        value           uniform 0.000236304;
    }
    outlet
    {
        type            calculated;
        value           uniform 0.000245417;
    }
    emptyWalls
    {
        type            empty;
    }
}


// ************************************************************************* //
