/*--------------------------------*- C++ -*----------------------------------*\
  =========                 |
  \\      /  F ield         | OpenFOAM: The Open Source CFD Toolbox
   \\    /   O peration     | Website:  https://openfoam.org
    \\  /    A nd           | Version:  9
     \\/     M anipulation  |
\*---------------------------------------------------------------------------*/
FoamFile
{
    format      ascii;
    class       surfaceScalarField;
    location    "17750";
    object      phic;
}
// * * * * * * * * * * * * * * * * * * * * * * * * * * * * * * * * * * * * * //

dimensions      [0 2 0 0 0 0 0];

internalField   nonuniform List<scalar> 
999
(
1.72562e-15
7.40087e-15
1.80021e-14
3.3193e-14
5.28548e-14
7.69439e-14
1.05399e-13
1.38103e-13
1.74842e-13
2.15251e-13
2.58774e-13
3.04659e-13
3.51918e-13
3.99437e-13
4.4595e-13
4.90389e-13
5.31682e-13
5.69336e-13
6.03254e-13
6.35002e-13
6.7307e-13
7.58223e-13
1.06448e-12
2.20636e-12
8.35502e-12
1.88258e-11
2.0838e-11
2.15124e-11
2.18751e-11
2.21267e-11
2.23273e-11
2.24987e-11
2.26502e-11
2.27872e-11
2.29147e-11
2.30371e-11
2.31573e-11
2.32764e-11
2.33935e-11
2.35075e-11
2.362e-11
2.37368e-11
2.3852e-11
2.39654e-11
2.40766e-11
2.41857e-11
2.42928e-11
2.43985e-11
2.45031e-11
2.46076e-11
2.47125e-11
2.48186e-11
2.49293e-11
2.50431e-11
2.516e-11
2.52804e-11
2.54046e-11
2.55334e-11
2.56673e-11
2.58074e-11
2.59551e-11
2.61125e-11
2.62824e-11
2.64691e-11
2.66785e-11
2.69178e-11
2.71952e-11
2.75174e-11
2.7887e-11
2.83003e-11
2.87484e-11
2.92218e-11
2.9714e-11
3.02203e-11
3.07374e-11
3.12632e-11
3.1796e-11
3.23346e-11
3.28781e-11
3.3426e-11
3.39776e-11
3.45326e-11
3.50907e-11
3.56515e-11
3.62149e-11
3.67807e-11
3.73487e-11
3.79189e-11
3.8491e-11
3.90651e-11
3.9641e-11
4.02187e-11
4.07981e-11
4.13792e-11
4.19618e-11
4.2546e-11
4.31317e-11
4.37189e-11
4.43076e-11
4.48976e-11
4.54889e-11
4.60817e-11
4.66756e-11
4.72709e-11
4.78674e-11
4.84651e-11
4.9064e-11
4.96641e-11
5.02654e-11
5.08678e-11
5.14715e-11
5.20763e-11
5.26823e-11
5.32894e-11
5.38977e-11
5.4507e-11
5.51173e-11
5.57287e-11
5.63411e-11
5.69544e-11
5.75687e-11
5.8184e-11
5.88003e-11
5.94175e-11
6.00359e-11
6.06553e-11
6.12758e-11
6.18973e-11
6.25197e-11
6.3143e-11
6.37668e-11
6.4391e-11
6.50154e-11
6.56397e-11
6.62638e-11
6.68878e-11
6.75114e-11
6.81348e-11
6.8758e-11
6.93811e-11
7.00043e-11
7.06277e-11
7.12516e-11
7.18762e-11
7.25018e-11
7.31286e-11
7.3757e-11
7.43873e-11
7.50199e-11
7.5655e-11
7.6293e-11
7.69341e-11
7.75784e-11
7.82258e-11
7.88763e-11
7.95296e-11
8.01855e-11
8.08437e-11
8.15036e-11
8.21649e-11
8.28271e-11
8.34898e-11
8.41528e-11
8.48156e-11
8.54781e-11
8.61402e-11
8.68017e-11
8.74627e-11
8.81232e-11
8.87833e-11
8.94431e-11
9.01028e-11
9.07626e-11
9.14225e-11
9.20827e-11
9.27434e-11
9.34046e-11
9.40666e-11
9.47293e-11
9.53929e-11
9.60574e-11
9.67228e-11
9.73891e-11
9.80563e-11
9.87246e-11
9.93937e-11
1.00064e-10
1.00735e-10
1.01406e-10
1.02079e-10
1.02752e-10
1.03427e-10
1.04102e-10
1.04777e-10
1.05454e-10
1.06131e-10
1.06809e-10
1.07488e-10
1.08167e-10
1.08847e-10
1.09527e-10
1.10209e-10
1.10891e-10
1.11573e-10
1.12256e-10
1.1294e-10
1.13625e-10
1.1431e-10
1.14995e-10
1.15682e-10
1.16369e-10
1.17056e-10
1.17744e-10
1.18433e-10
1.19123e-10
1.19813e-10
1.20503e-10
1.21195e-10
1.21886e-10
1.22579e-10
1.23272e-10
1.23966e-10
1.2466e-10
1.25355e-10
1.2605e-10
1.26746e-10
1.27443e-10
1.2814e-10
1.28838e-10
1.29536e-10
1.30235e-10
1.30935e-10
1.31635e-10
1.32336e-10
1.33037e-10
1.33739e-10
1.34441e-10
1.35144e-10
1.35848e-10
1.36552e-10
1.37256e-10
1.37962e-10
1.38668e-10
1.39374e-10
1.40082e-10
1.40789e-10
1.41498e-10
1.42207e-10
1.42917e-10
1.43627e-10
1.44338e-10
1.45049e-10
1.45761e-10
1.46474e-10
1.47187e-10
1.47901e-10
1.48616e-10
1.49331e-10
1.50047e-10
1.50763e-10
1.51481e-10
1.52198e-10
1.52916e-10
1.53634e-10
1.54353e-10
1.55071e-10
1.5579e-10
1.56508e-10
1.57226e-10
1.57944e-10
1.58661e-10
1.59378e-10
1.60094e-10
1.6081e-10
1.61525e-10
1.6224e-10
1.62954e-10
1.63668e-10
1.64381e-10
1.65095e-10
1.65809e-10
1.66524e-10
1.67239e-10
1.67956e-10
1.68674e-10
1.69394e-10
1.70116e-10
1.7084e-10
1.71567e-10
1.72297e-10
1.7303e-10
1.73766e-10
1.74506e-10
1.75249e-10
1.75995e-10
1.76745e-10
1.77498e-10
1.78254e-10
1.79012e-10
1.79772e-10
1.80535e-10
1.81299e-10
1.82064e-10
1.8283e-10
1.83596e-10
1.84363e-10
1.8513e-10
1.85896e-10
1.86662e-10
1.87428e-10
1.88193e-10
1.88957e-10
1.89721e-10
1.90484e-10
1.91247e-10
1.9201e-10
1.92772e-10
1.93535e-10
1.94297e-10
1.9506e-10
1.95823e-10
1.96586e-10
1.9735e-10
1.98114e-10
1.98879e-10
1.99645e-10
2.00411e-10
2.01179e-10
2.01947e-10
2.02717e-10
2.03487e-10
2.04258e-10
2.05031e-10
2.05804e-10
2.06579e-10
2.07354e-10
2.0813e-10
2.08908e-10
2.09686e-10
2.10465e-10
2.11245e-10
2.12026e-10
2.12808e-10
2.13591e-10
2.14375e-10
2.15159e-10
2.15945e-10
2.16731e-10
2.17518e-10
2.18306e-10
2.19095e-10
2.19884e-10
2.20675e-10
2.21466e-10
2.22258e-10
2.23051e-10
2.23844e-10
2.24638e-10
2.25433e-10
2.26229e-10
2.27026e-10
2.27823e-10
2.28622e-10
2.29421e-10
2.3022e-10
2.31021e-10
2.31822e-10
2.32624e-10
2.33427e-10
2.34231e-10
2.35036e-10
2.35841e-10
2.36647e-10
2.37454e-10
2.38262e-10
2.3907e-10
2.39879e-10
2.40689e-10
2.415e-10
2.42312e-10
2.43124e-10
2.43937e-10
2.44751e-10
2.45566e-10
2.46382e-10
2.47198e-10
2.48015e-10
2.48834e-10
2.49652e-10
2.50472e-10
2.51293e-10
2.52114e-10
2.52937e-10
2.5376e-10
2.54584e-10
2.55409e-10
2.56234e-10
2.57061e-10
2.57889e-10
2.58717e-10
2.59547e-10
2.60377e-10
2.61208e-10
2.6204e-10
2.62874e-10
2.63708e-10
2.64543e-10
2.65379e-10
2.66215e-10
2.67053e-10
2.67892e-10
2.68732e-10
2.69572e-10
2.70413e-10
2.71255e-10
2.72098e-10
2.72941e-10
2.73785e-10
2.74629e-10
2.75474e-10
2.76319e-10
2.77164e-10
2.7801e-10
2.78855e-10
2.797e-10
2.80546e-10
2.81391e-10
2.82236e-10
2.83081e-10
2.83926e-10
2.84771e-10
2.85616e-10
2.86461e-10
2.87306e-10
2.88152e-10
2.88998e-10
2.89845e-10
2.90692e-10
2.91541e-10
2.92391e-10
2.93243e-10
2.94096e-10
2.94952e-10
2.9581e-10
2.96671e-10
2.97535e-10
2.98402e-10
2.99272e-10
3.00146e-10
3.01024e-10
3.01906e-10
3.02792e-10
3.03681e-10
3.04575e-10
3.05473e-10
3.06375e-10
3.0728e-10
3.08189e-10
3.09102e-10
3.10018e-10
3.10936e-10
3.11858e-10
3.12781e-10
3.13707e-10
3.14634e-10
3.15563e-10
3.16493e-10
3.17424e-10
3.18356e-10
3.19289e-10
3.20222e-10
3.21155e-10
3.22089e-10
3.23022e-10
3.23957e-10
3.24891e-10
3.25825e-10
3.2676e-10
3.27696e-10
3.28631e-10
3.29567e-10
3.30504e-10
3.31442e-10
3.3238e-10
3.3332e-10
3.3426e-10
3.35202e-10
3.36145e-10
3.37089e-10
3.38035e-10
3.38982e-10
3.3993e-10
3.40881e-10
3.41833e-10
3.42787e-10
3.43742e-10
3.44699e-10
3.45658e-10
3.46619e-10
3.47582e-10
3.48547e-10
3.49513e-10
3.50482e-10
3.51452e-10
3.52424e-10
3.53398e-10
3.54374e-10
3.55352e-10
3.56332e-10
3.57313e-10
3.58297e-10
3.59282e-10
3.60269e-10
3.61258e-10
3.62249e-10
3.63242e-10
3.64236e-10
3.65233e-10
3.66231e-10
3.67231e-10
3.68233e-10
3.69236e-10
3.70242e-10
3.7125e-10
3.72259e-10
3.7327e-10
3.74283e-10
3.75298e-10
3.76315e-10
3.77334e-10
3.78355e-10
3.79377e-10
3.80402e-10
3.81429e-10
3.82457e-10
3.83488e-10
3.8452e-10
3.85555e-10
3.86592e-10
3.8763e-10
3.88671e-10
3.89714e-10
3.90759e-10
3.91806e-10
3.92855e-10
3.93906e-10
3.94959e-10
3.96015e-10
3.97072e-10
3.98132e-10
3.99194e-10
4.00259e-10
4.01325e-10
4.02394e-10
4.03465e-10
4.04539e-10
4.05614e-10
4.06692e-10
4.07773e-10
4.08856e-10
4.09941e-10
4.11029e-10
4.1212e-10
4.13213e-10
4.14308e-10
4.15406e-10
4.16507e-10
4.1761e-10
4.18716e-10
4.19824e-10
4.20936e-10
4.2205e-10
4.23166e-10
4.24286e-10
4.25408e-10
4.26533e-10
4.27661e-10
4.28792e-10
4.29926e-10
4.31062e-10
4.32201e-10
4.33343e-10
4.34488e-10
4.35636e-10
4.36786e-10
4.37939e-10
4.39096e-10
4.40254e-10
4.41416e-10
4.42579e-10
4.43746e-10
4.44915e-10
4.46087e-10
4.47261e-10
4.48437e-10
4.49616e-10
4.50798e-10
4.51982e-10
4.53168e-10
4.54357e-10
4.55548e-10
4.56742e-10
4.57938e-10
4.59137e-10
4.60339e-10
4.61544e-10
4.62752e-10
4.63963e-10
4.65177e-10
4.66395e-10
4.67616e-10
4.68841e-10
4.70071e-10
4.71305e-10
4.72544e-10
4.73788e-10
4.75037e-10
4.76291e-10
4.77551e-10
4.78817e-10
4.8009e-10
4.81369e-10
4.82655e-10
4.83949e-10
4.85249e-10
4.86557e-10
4.87872e-10
4.89196e-10
4.90527e-10
4.91866e-10
4.93214e-10
4.94569e-10
4.95932e-10
4.97303e-10
4.98683e-10
5.00069e-10
5.01464e-10
5.02866e-10
5.04275e-10
5.05691e-10
5.07114e-10
5.08543e-10
5.09978e-10
5.1142e-10
5.12867e-10
5.1432e-10
5.15778e-10
5.17241e-10
5.18709e-10
5.20181e-10
5.21658e-10
5.23138e-10
5.24623e-10
5.26111e-10
5.27603e-10
5.29097e-10
5.30593e-10
5.32093e-10
5.33594e-10
5.35096e-10
5.36599e-10
5.38102e-10
5.39603e-10
5.41103e-10
5.426e-10
5.44092e-10
5.45578e-10
5.47055e-10
5.48522e-10
5.49976e-10
5.51415e-10
5.52836e-10
5.54235e-10
5.55608e-10
5.56951e-10
5.5826e-10
5.59532e-10
5.6076e-10
5.61943e-10
5.63074e-10
5.6415e-10
5.65167e-10
5.66122e-10
5.67013e-10
5.67839e-10
5.68598e-10
5.6929e-10
5.69915e-10
5.70476e-10
5.70975e-10
5.71415e-10
5.718e-10
5.72135e-10
5.72422e-10
5.72668e-10
5.72877e-10
5.73056e-10
5.73213e-10
5.73356e-10
5.73496e-10
5.73653e-10
5.73857e-10
5.74163e-10
5.74663e-10
5.75521e-10
5.77026e-10
5.79685e-10
5.84371e-10
5.9254e-10
6.06463e-10
6.29269e-10
6.64269e-10
7.12878e-10
7.71615e-10
8.31383e-10
8.82011e-10
9.1831e-10
9.41177e-10
9.5438e-10
9.6161e-10
9.65454e-10
9.67466e-10
9.68512e-10
9.69054e-10
9.69334e-10
9.69481e-10
9.69557e-10
9.69598e-10
9.69621e-10
9.69634e-10
9.69641e-10
9.69646e-10
9.69649e-10
9.69651e-10
9.69653e-10
9.69653e-10
9.69654e-10
9.69654e-10
9.69654e-10
9.69654e-10
9.69653e-10
9.69651e-10
9.6965e-10
9.69648e-10
9.69646e-10
9.69644e-10
9.69642e-10
9.69639e-10
9.69636e-10
9.69633e-10
9.69629e-10
9.69626e-10
9.69622e-10
9.69618e-10
9.69614e-10
9.69609e-10
9.69604e-10
9.69599e-10
9.69594e-10
9.69589e-10
9.69583e-10
9.69577e-10
9.69571e-10
9.69565e-10
9.69558e-10
9.69551e-10
9.69544e-10
9.69536e-10
9.69528e-10
9.69519e-10
9.6951e-10
9.69501e-10
9.6949e-10
9.69479e-10
9.69468e-10
9.69456e-10
9.69442e-10
9.69428e-10
9.69413e-10
9.69397e-10
9.6938e-10
9.69362e-10
9.69342e-10
9.69321e-10
9.69299e-10
9.69275e-10
9.6925e-10
9.69223e-10
9.69195e-10
9.69165e-10
9.69133e-10
9.691e-10
9.69065e-10
9.69028e-10
9.6899e-10
9.6895e-10
9.68909e-10
9.68866e-10
9.68821e-10
9.68776e-10
9.68729e-10
9.68681e-10
9.68632e-10
9.68582e-10
9.68532e-10
9.68481e-10
9.6843e-10
9.68379e-10
9.68328e-10
9.68278e-10
9.68229e-10
9.6818e-10
9.68133e-10
9.68087e-10
9.68043e-10
9.68001e-10
9.67961e-10
9.67924e-10
9.67889e-10
9.67858e-10
9.6783e-10
9.67805e-10
9.67784e-10
9.67766e-10
9.67753e-10
9.67744e-10
9.67738e-10
9.67736e-10
9.67736e-10
9.67737e-10
9.67741e-10
9.67757e-10
9.67775e-10
9.67796e-10
9.67821e-10
9.67849e-10
9.6788e-10
9.67914e-10
9.6795e-10
9.67988e-10
9.68028e-10
9.68069e-10
9.68112e-10
9.68156e-10
9.682e-10
9.68245e-10
9.68291e-10
9.68336e-10
9.6838e-10
9.68424e-10
9.68468e-10
9.6851e-10
9.68551e-10
9.68591e-10
9.6863e-10
9.68667e-10
9.68702e-10
9.68736e-10
9.68769e-10
9.68799e-10
9.68828e-10
9.68856e-10
9.68881e-10
9.68906e-10
9.68929e-10
9.6895e-10
9.6897e-10
9.68989e-10
9.69007e-10
9.69023e-10
9.69039e-10
9.69054e-10
9.69068e-10
9.69081e-10
9.69094e-10
9.69106e-10
9.69118e-10
9.69129e-10
9.6914e-10
9.69151e-10
9.69161e-10
9.69172e-10
9.69182e-10
9.69192e-10
9.69202e-10
9.69212e-10
9.69222e-10
9.69233e-10
9.69243e-10
9.69253e-10
9.69264e-10
9.69274e-10
9.69285e-10
9.69295e-10
9.69306e-10
9.69317e-10
9.69328e-10
9.69339e-10
9.6935e-10
9.69361e-10
9.69372e-10
9.69383e-10
9.69394e-10
9.69405e-10
9.69416e-10
9.69427e-10
9.69437e-10
9.69448e-10
9.69459e-10
9.69469e-10
9.6948e-10
9.6949e-10
9.695e-10
9.6951e-10
9.6952e-10
9.69529e-10
9.69538e-10
9.69547e-10
9.69556e-10
9.69564e-10
9.69572e-10
9.6958e-10
9.69587e-10
9.69594e-10
9.69601e-10
9.69607e-10
9.69613e-10
9.69618e-10
9.69623e-10
9.69628e-10
9.69633e-10
9.69637e-10
9.69641e-10
9.69644e-10
9.69647e-10
9.6965e-10
9.69652e-10
9.69655e-10
9.69656e-10
9.69658e-10
9.69659e-10
9.6966e-10
9.69661e-10
9.69661e-10
9.69661e-10
9.69661e-10
9.69661e-10
9.69661e-10
9.6966e-10
9.69659e-10
9.69657e-10
9.69655e-10
9.69653e-10
9.69651e-10
9.69648e-10
9.69645e-10
9.69642e-10
9.69639e-10
9.69635e-10
9.69631e-10
9.69626e-10
9.69622e-10
9.69617e-10
9.69611e-10
9.69606e-10
9.696e-10
9.69594e-10
9.69587e-10
9.6958e-10
9.69573e-10
9.69565e-10
9.69557e-10
9.69548e-10
9.69539e-10
9.69529e-10
9.69519e-10
9.69508e-10
9.69497e-10
9.69485e-10
9.69471e-10
9.69458e-10
9.69443e-10
9.69428e-10
9.69412e-10
9.69395e-10
9.69376e-10
9.69357e-10
9.69337e-10
9.69316e-10
9.69292e-10
9.69269e-10
9.69243e-10
9.69217e-10
9.69189e-10
9.6916e-10
9.6913e-10
9.69098e-10
9.69065e-10
9.69031e-10
)
;

boundaryField
{
    inlet
    {
        type            calculated;
        value           uniform 0;
    }
    outlet
    {
        type            calculated;
        value           uniform 9.68994e-10;
    }
    emptyWalls
    {
        type            empty;
        value           nonuniform List<scalar> 0();
    }
}


// ************************************************************************* //
