/*--------------------------------*- C++ -*----------------------------------*\
  =========                 |
  \\      /  F ield         | OpenFOAM: The Open Source CFD Toolbox
   \\    /   O peration     | Website:  https://openfoam.org
    \\  /    A nd           | Version:  9
     \\/     M anipulation  |
\*---------------------------------------------------------------------------*/
FoamFile
{
    format      ascii;
    class       volScalarField;
    location    "21550";
    object      Sb;
}
// * * * * * * * * * * * * * * * * * * * * * * * * * * * * * * * * * * * * * //

dimensions      [0 0 0 0 0 0 0];

internalField   nonuniform List<scalar> 
1000
(
0.35023
0.350744
0.351414
0.352082
0.352756
0.353435
0.354112
0.354806
0.355506
0.356205
0.356931
0.357627
0.358378
0.359049
0.359821
0.360448
0.361204
0.361788
0.362457
0.362992
0.363536
0.363994
0.36442
0.364784
0.365113
0.365415
0.36578
0.366576
0.369332
0.380841
0.459749
0.61948
0.654246
0.663815
0.668119
0.670714
0.67255
0.673981
0.675152
0.676146
0.677003
0.677754
0.678415
0.679002
0.679523
0.679987
0.6804
0.680769
0.681095
0.681386
0.681644
0.68187
0.68207
0.682244
0.682394
0.682522
0.682629
0.682719
0.682788
0.682843
0.682879
0.682902
0.682907
0.682897
0.682869
0.682825
0.682763
0.682684
0.682589
0.682476
0.682346
0.682199
0.682033
0.681846
0.681637
0.681402
0.681137
0.680836
0.680492
0.680094
0.679627
0.679076
0.678426
0.677667
0.676806
0.675862
0.674867
0.673839
0.672789
0.671726
0.670657
0.669585
0.668515
0.667451
0.666393
0.665343
0.664301
0.663267
0.662241
0.661221
0.660207
0.659199
0.658194
0.657194
0.656198
0.655205
0.654216
0.653232
0.652251
0.651274
0.650303
0.649337
0.648376
0.647421
0.646472
0.645529
0.644592
0.643662
0.642738
0.64182
0.640908
0.640002
0.639102
0.638208
0.63732
0.636437
0.63556
0.634689
0.633822
0.632961
0.632105
0.631254
0.630408
0.629567
0.628731
0.6279
0.627073
0.626251
0.625434
0.624621
0.623812
0.623009
0.622209
0.621414
0.620623
0.619837
0.619054
0.618276
0.617502
0.616732
0.615966
0.615204
0.614446
0.613691
0.612941
0.612194
0.611451
0.610712
0.609977
0.609245
0.608517
0.607792
0.60707
0.606353
0.605638
0.604927
0.604219
0.603515
0.602814
0.602116
0.601422
0.600731
0.600042
0.599358
0.598676
0.597997
0.597322
0.596649
0.59598
0.595313
0.59465
0.593989
0.593331
0.592676
0.592024
0.591375
0.590728
0.590085
0.589444
0.588806
0.588171
0.587538
0.586908
0.586281
0.585655
0.585032
0.58441
0.58379
0.583172
0.582556
0.581941
0.581327
0.580715
0.580105
0.579497
0.57889
0.578285
0.577682
0.577082
0.576483
0.575888
0.575296
0.574706
0.57412
0.573537
0.572958
0.572383
0.571812
0.571244
0.57068
0.57012
0.569564
0.569011
0.568461
0.567913
0.567369
0.566826
0.566286
0.565748
0.56521
0.564675
0.56414
0.563607
0.563074
0.562543
0.562012
0.561483
0.560954
0.560427
0.559901
0.559376
0.558852
0.55833
0.55781
0.557291
0.556774
0.556258
0.555744
0.555232
0.554721
0.554212
0.553705
0.553199
0.552696
0.552193
0.551693
0.551194
0.550697
0.550201
0.549707
0.549214
0.548723
0.548234
0.547746
0.547259
0.546774
0.54629
0.545808
0.545327
0.544847
0.544369
0.543892
0.543417
0.542943
0.54247
0.541998
0.541528
0.541059
0.540591
0.540125
0.539659
0.539195
0.538733
0.538271
0.537811
0.537352
0.536894
0.536437
0.535981
0.535527
0.535074
0.534622
0.534171
0.533721
0.533272
0.532825
0.532378
0.531933
0.531488
0.531045
0.530603
0.530162
0.529722
0.529283
0.528845
0.528408
0.527973
0.527538
0.527104
0.526672
0.52624
0.525809
0.52538
0.524951
0.524524
0.524097
0.523671
0.523247
0.522823
0.522401
0.521979
0.521558
0.521139
0.52072
0.520302
0.519885
0.519469
0.519054
0.51864
0.518227
0.517814
0.517402
0.516991
0.51658
0.51617
0.515761
0.515352
0.514944
0.514536
0.514129
0.513722
0.513316
0.51291
0.512504
0.512099
0.511695
0.511292
0.510889
0.510486
0.510085
0.509685
0.509285
0.508887
0.50849
0.508094
0.5077
0.507307
0.506915
0.506525
0.506136
0.505749
0.505364
0.50498
0.504598
0.504217
0.503837
0.503459
0.503082
0.502706
0.502332
0.501958
0.501585
0.501212
0.500841
0.50047
0.500099
0.499729
0.499359
0.49899
0.498621
0.498252
0.497884
0.497516
0.497148
0.49678
0.496413
0.496046
0.49568
0.495314
0.494949
0.494584
0.49422
0.493856
0.493493
0.49313
0.492768
0.492406
0.492046
0.491685
0.491326
0.490967
0.490608
0.49025
0.489893
0.489537
0.489181
0.488826
0.488471
0.488117
0.487763
0.48741
0.487058
0.486706
0.486354
0.486004
0.485653
0.485303
0.484954
0.484606
0.484257
0.48391
0.483562
0.483216
0.48287
0.482524
0.482179
0.481834
0.481489
0.481146
0.480802
0.480459
0.480117
0.479775
0.479433
0.479092
0.478751
0.478411
0.478071
0.477732
0.477393
0.477054
0.476716
0.476379
0.476041
0.475704
0.475368
0.475032
0.474696
0.474361
0.474026
0.473692
0.473358
0.473024
0.472691
0.472358
0.472025
0.471693
0.471362
0.47103
0.470699
0.470369
0.470039
0.469709
0.469379
0.46905
0.468722
0.468393
0.468066
0.467738
0.467411
0.467084
0.466757
0.466431
0.466106
0.46578
0.465455
0.46513
0.464806
0.464482
0.464158
0.463835
0.463512
0.463189
0.462866
0.462544
0.462222
0.4619
0.461578
0.461256
0.460935
0.460613
0.460292
0.459971
0.45965
0.459329
0.459009
0.458688
0.458368
0.458047
0.457727
0.457407
0.457088
0.456768
0.456449
0.45613
0.455811
0.455493
0.455175
0.454857
0.45454
0.454224
0.453908
0.453592
0.453277
0.452963
0.452649
0.452336
0.452024
0.451712
0.451401
0.451091
0.450781
0.450472
0.450164
0.449856
0.449549
0.449242
0.448935
0.448629
0.448324
0.448019
0.447714
0.447409
0.447105
0.446801
0.446497
0.446193
0.445889
0.445585
0.445281
0.444977
0.444674
0.44437
0.444067
0.443763
0.443459
0.443156
0.442852
0.442549
0.442246
0.441942
0.441639
0.441336
0.441033
0.44073
0.440428
0.440125
0.439823
0.43952
0.439218
0.438916
0.438614
0.438313
0.438011
0.43771
0.437408
0.437107
0.436806
0.436506
0.436205
0.435905
0.435604
0.435304
0.435004
0.434704
0.434405
0.434105
0.433805
0.433506
0.433207
0.432908
0.432609
0.43231
0.432011
0.431712
0.431413
0.431115
0.430816
0.430518
0.43022
0.429921
0.429623
0.429325
0.429027
0.428729
0.428431
0.428133
0.427836
0.427538
0.42724
0.426942
0.426645
0.426347
0.42605
0.425752
0.425455
0.425158
0.42486
0.424563
0.424265
0.423968
0.423671
0.423374
0.423076
0.422779
0.422482
0.422185
0.421888
0.42159
0.421293
0.420996
0.420699
0.420402
0.420105
0.419807
0.41951
0.419213
0.418916
0.418619
0.418321
0.418024
0.417727
0.41743
0.417132
0.416835
0.416538
0.41624
0.415943
0.415645
0.415348
0.41505
0.414753
0.414455
0.414157
0.413859
0.413562
0.413264
0.412966
0.412667
0.412369
0.412071
0.411772
0.411474
0.411175
0.410876
0.410577
0.410278
0.409978
0.409679
0.409379
0.409079
0.408779
0.408479
0.408178
0.407877
0.407576
0.407275
0.406974
0.406672
0.406371
0.406069
0.405767
0.405465
0.405162
0.40486
0.404557
0.404255
0.403952
0.403649
0.403346
0.403043
0.40274
0.402437
0.402134
0.40183
0.401527
0.401224
0.400921
0.400618
0.400315
0.400012
0.399709
0.399406
0.399103
0.3988
0.398497
0.398194
0.397891
0.397588
0.397284
0.396981
0.396677
0.396374
0.39607
0.395766
0.395462
0.395157
0.394853
0.394548
0.394242
0.393937
0.393631
0.393325
0.393018
0.392711
0.392403
0.392096
0.391787
0.391479
0.39117
0.39086
0.39055
0.39024
0.389929
0.389618
0.389306
0.388994
0.388682
0.388369
0.388056
0.387742
0.387428
0.387113
0.386798
0.386483
0.386167
0.38585
0.385534
0.385216
0.384899
0.38458
0.384262
0.383943
0.383623
0.383303
0.382982
0.382661
0.38234
0.382018
0.381695
0.381372
0.381048
0.380724
0.3804
0.380074
0.379748
0.379422
0.379095
0.378768
0.378439
0.378111
0.377781
0.377451
0.377121
0.376789
0.376458
0.376125
0.375792
0.375458
0.375123
0.374788
0.374452
0.374116
0.373778
0.37344
0.373102
0.372762
0.372422
0.372081
0.37174
0.371397
0.371054
0.37071
0.370366
0.370021
0.369675
0.369328
0.36898
0.368632
0.368283
0.367934
0.367583
0.367232
0.366881
0.366529
0.366176
0.365822
0.365469
0.365114
0.36476
0.364405
0.364049
0.363694
0.363339
0.362983
0.362628
0.362273
0.361919
0.361566
0.361214
0.360863
0.360513
0.360166
0.359821
0.359479
0.359141
0.358806
0.358476
0.358152
0.357833
0.357521
0.357216
0.356919
0.356632
0.356355
0.356089
0.355834
0.355591
0.355361
0.355145
0.354942
0.354753
0.354579
0.354419
0.354273
0.354141
0.354022
0.353916
0.353822
0.353739
0.353667
0.353604
0.35355
0.353503
0.353464
0.353431
0.353403
0.353379
0.353359
0.353342
0.353325
0.35331
0.353291
0.353266
0.353229
0.353167
0.353061
0.352875
0.352543
0.351955
0.350912
0.349085
0.345946
0.340735
0.332558
0.320806
0.305899
0.289782
0.275207
0.264114
0.256796
0.252438
0.250007
0.248701
0.248015
0.247657
0.247473
0.247378
0.247329
0.247303
0.24729
0.247284
0.24728
0.247279
0.247278
0.247278
0.247278
0.247278
0.247278
0.247278
0.247278
0.247278
0.247278
0.247279
0.247279
0.247279
0.247279
0.24728
0.24728
0.24728
0.24728
0.24728
0.247281
0.247281
0.247281
0.247281
0.247281
0.247281
0.247281
0.247281
0.247281
0.247282
0.247282
0.247282
0.247282
0.247282
0.247282
0.247282
0.247282
0.247282
0.247282
0.247282
0.247281
0.247281
0.247281
0.247281
0.247281
0.247281
0.247281
0.247281
0.247281
0.247281
0.247281
0.247281
0.247281
0.247281
0.247281
0.247281
0.247281
0.247281
0.247281
0.247281
0.247281
0.247281
0.247281
0.247281
0.247281
0.247281
0.247281
0.247281
0.247281
0.247281
0.247282
0.247282
0.247282
0.247282
0.247282
0.247282
0.247282
0.247282
0.247282
0.247283
0.247283
0.247283
0.247283
0.247283
0.247283
0.247283
0.247283
0.247284
0.247284
0.247284
0.247284
0.247284
0.247284
0.247284
0.247284
0.247285
0.247285
0.247285
0.247285
0.247285
0.247285
0.247285
0.247285
0.247285
0.247286
0.247286
0.247286
0.247286
0.247286
0.247286
0.247286
0.247286
0.247286
0.247286
0.247286
0.247286
0.247286
0.247286
)
;

boundaryField
{
    inlet
    {
        type            fixedValue;
        value           uniform 0.35;
    }
    outlet
    {
        type            zeroGradient;
    }
    emptyWalls
    {
        type            empty;
    }
}


// ************************************************************************* //
