/*--------------------------------*- C++ -*----------------------------------*\
  =========                 |
  \\      /  F ield         | OpenFOAM: The Open Source CFD Toolbox
   \\    /   O peration     | Website:  https://openfoam.org
    \\  /    A nd           | Version:  9
     \\/     M anipulation  |
\*---------------------------------------------------------------------------*/
FoamFile
{
    format      ascii;
    class       volVectorField;
    location    "21550";
    object      Ub;
}
// * * * * * * * * * * * * * * * * * * * * * * * * * * * * * * * * * * * * * //

dimensions      [0 0 0 0 0 0 0];

internalField   nonuniform List<vector> 
1000
(
(1.13619e-05 0 0)
(1.13621e-05 0 0)
(1.13622e-05 0 0)
(1.13623e-05 0 0)
(1.13625e-05 0 0)
(1.13627e-05 0 0)
(1.13628e-05 0 0)
(1.13631e-05 0 0)
(1.13633e-05 0 0)
(1.13636e-05 0 0)
(1.13639e-05 0 0)
(1.13642e-05 0 0)
(1.13645e-05 0 0)
(1.13649e-05 0 0)
(1.13653e-05 0 0)
(1.13657e-05 0 0)
(1.13663e-05 0 0)
(1.13668e-05 0 0)
(1.13673e-05 0 0)
(1.13677e-05 0 0)
(1.13681e-05 0 0)
(1.13685e-05 0 0)
(1.13688e-05 0 0)
(1.1369e-05 0 0)
(1.13693e-05 0 0)
(1.13696e-05 0 0)
(1.13699e-05 0 0)
(1.1371e-05 0 0)
(1.13751e-05 0 0)
(1.13945e-05 0 0)
(1.15331e-05 0 0)
(1.16994e-05 0 0)
(1.17541e-05 0 0)
(1.17695e-05 0 0)
(1.17767e-05 0 0)
(1.17812e-05 0 0)
(1.17847e-05 0 0)
(1.17874e-05 0 0)
(1.17898e-05 0 0)
(1.17919e-05 0 0)
(1.17937e-05 0 0)
(1.17953e-05 0 0)
(1.17968e-05 0 0)
(1.17981e-05 0 0)
(1.17993e-05 0 0)
(1.18003e-05 0 0)
(1.18012e-05 0 0)
(1.1802e-05 0 0)
(1.18027e-05 0 0)
(1.18034e-05 0 0)
(1.18039e-05 0 0)
(1.18044e-05 0 0)
(1.18047e-05 0 0)
(1.1805e-05 0 0)
(1.18052e-05 0 0)
(1.18053e-05 0 0)
(1.18053e-05 0 0)
(1.18053e-05 0 0)
(1.18052e-05 0 0)
(1.18052e-05 0 0)
(1.18052e-05 0 0)
(1.18051e-05 0 0)
(1.18051e-05 0 0)
(1.18049e-05 0 0)
(1.18047e-05 0 0)
(1.18043e-05 0 0)
(1.18038e-05 0 0)
(1.18033e-05 0 0)
(1.18026e-05 0 0)
(1.1802e-05 0 0)
(1.18013e-05 0 0)
(1.18007e-05 0 0)
(1.18001e-05 0 0)
(1.17995e-05 0 0)
(1.17988e-05 0 0)
(1.17979e-05 0 0)
(1.17967e-05 0 0)
(1.17951e-05 0 0)
(1.1793e-05 0 0)
(1.17903e-05 0 0)
(1.17868e-05 0 0)
(1.17824e-05 0 0)
(1.17772e-05 0 0)
(1.17713e-05 0 0)
(1.17648e-05 0 0)
(1.17583e-05 0 0)
(1.17518e-05 0 0)
(1.17454e-05 0 0)
(1.17391e-05 0 0)
(1.1733e-05 0 0)
(1.17271e-05 0 0)
(1.17216e-05 0 0)
(1.17166e-05 0 0)
(1.17123e-05 0 0)
(1.17087e-05 0 0)
(1.17057e-05 0 0)
(1.17035e-05 0 0)
(1.17017e-05 0 0)
(1.17002e-05 0 0)
(1.16989e-05 0 0)
(1.16977e-05 0 0)
(1.16963e-05 0 0)
(1.16947e-05 0 0)
(1.16927e-05 0 0)
(1.16904e-05 0 0)
(1.16876e-05 0 0)
(1.16845e-05 0 0)
(1.16809e-05 0 0)
(1.1677e-05 0 0)
(1.16728e-05 0 0)
(1.16684e-05 0 0)
(1.16638e-05 0 0)
(1.1659e-05 0 0)
(1.16542e-05 0 0)
(1.16494e-05 0 0)
(1.16445e-05 0 0)
(1.16397e-05 0 0)
(1.16349e-05 0 0)
(1.16301e-05 0 0)
(1.16255e-05 0 0)
(1.16208e-05 0 0)
(1.16162e-05 0 0)
(1.16117e-05 0 0)
(1.16072e-05 0 0)
(1.16027e-05 0 0)
(1.15983e-05 0 0)
(1.15938e-05 0 0)
(1.15894e-05 0 0)
(1.1585e-05 0 0)
(1.15805e-05 0 0)
(1.15761e-05 0 0)
(1.15717e-05 0 0)
(1.15672e-05 0 0)
(1.15627e-05 0 0)
(1.15582e-05 0 0)
(1.15537e-05 0 0)
(1.15492e-05 0 0)
(1.15447e-05 0 0)
(1.15401e-05 0 0)
(1.15355e-05 0 0)
(1.15309e-05 0 0)
(1.15263e-05 0 0)
(1.15217e-05 0 0)
(1.15171e-05 0 0)
(1.15124e-05 0 0)
(1.15077e-05 0 0)
(1.1503e-05 0 0)
(1.14983e-05 0 0)
(1.14936e-05 0 0)
(1.14889e-05 0 0)
(1.14841e-05 0 0)
(1.14793e-05 0 0)
(1.14745e-05 0 0)
(1.14697e-05 0 0)
(1.14648e-05 0 0)
(1.146e-05 0 0)
(1.14551e-05 0 0)
(1.14502e-05 0 0)
(1.14453e-05 0 0)
(1.14404e-05 0 0)
(1.14355e-05 0 0)
(1.14305e-05 0 0)
(1.14255e-05 0 0)
(1.14205e-05 0 0)
(1.14155e-05 0 0)
(1.14104e-05 0 0)
(1.14053e-05 0 0)
(1.14003e-05 0 0)
(1.13951e-05 0 0)
(1.139e-05 0 0)
(1.13849e-05 0 0)
(1.13798e-05 0 0)
(1.13746e-05 0 0)
(1.13695e-05 0 0)
(1.13643e-05 0 0)
(1.13592e-05 0 0)
(1.1354e-05 0 0)
(1.13488e-05 0 0)
(1.13436e-05 0 0)
(1.13384e-05 0 0)
(1.13332e-05 0 0)
(1.13279e-05 0 0)
(1.13227e-05 0 0)
(1.13174e-05 0 0)
(1.13121e-05 0 0)
(1.13068e-05 0 0)
(1.13015e-05 0 0)
(1.12963e-05 0 0)
(1.1291e-05 0 0)
(1.12858e-05 0 0)
(1.12805e-05 0 0)
(1.12752e-05 0 0)
(1.12699e-05 0 0)
(1.12646e-05 0 0)
(1.12591e-05 0 0)
(1.12536e-05 0 0)
(1.1248e-05 0 0)
(1.12422e-05 0 0)
(1.12363e-05 0 0)
(1.12302e-05 0 0)
(1.12239e-05 0 0)
(1.12174e-05 0 0)
(1.12108e-05 0 0)
(1.12041e-05 0 0)
(1.11972e-05 0 0)
(1.11902e-05 0 0)
(1.11832e-05 0 0)
(1.11761e-05 0 0)
(1.11689e-05 0 0)
(1.11618e-05 0 0)
(1.11548e-05 0 0)
(1.11479e-05 0 0)
(1.11411e-05 0 0)
(1.11345e-05 0 0)
(1.11281e-05 0 0)
(1.1122e-05 0 0)
(1.11162e-05 0 0)
(1.11107e-05 0 0)
(1.11054e-05 0 0)
(1.11005e-05 0 0)
(1.10959e-05 0 0)
(1.10915e-05 0 0)
(1.10874e-05 0 0)
(1.10835e-05 0 0)
(1.10797e-05 0 0)
(1.10761e-05 0 0)
(1.10724e-05 0 0)
(1.10688e-05 0 0)
(1.10652e-05 0 0)
(1.10615e-05 0 0)
(1.10576e-05 0 0)
(1.10537e-05 0 0)
(1.10496e-05 0 0)
(1.10454e-05 0 0)
(1.1041e-05 0 0)
(1.10364e-05 0 0)
(1.10317e-05 0 0)
(1.10269e-05 0 0)
(1.10219e-05 0 0)
(1.10169e-05 0 0)
(1.10117e-05 0 0)
(1.10065e-05 0 0)
(1.10012e-05 0 0)
(1.09959e-05 0 0)
(1.09906e-05 0 0)
(1.09852e-05 0 0)
(1.09798e-05 0 0)
(1.09744e-05 0 0)
(1.0969e-05 0 0)
(1.09637e-05 0 0)
(1.09583e-05 0 0)
(1.0953e-05 0 0)
(1.09477e-05 0 0)
(1.09424e-05 0 0)
(1.09371e-05 0 0)
(1.09318e-05 0 0)
(1.09265e-05 0 0)
(1.09213e-05 0 0)
(1.0916e-05 0 0)
(1.09108e-05 0 0)
(1.09055e-05 0 0)
(1.09003e-05 0 0)
(1.0895e-05 0 0)
(1.08898e-05 0 0)
(1.08845e-05 0 0)
(1.08793e-05 0 0)
(1.0874e-05 0 0)
(1.08688e-05 0 0)
(1.08635e-05 0 0)
(1.08582e-05 0 0)
(1.08529e-05 0 0)
(1.08476e-05 0 0)
(1.08423e-05 0 0)
(1.0837e-05 0 0)
(1.08316e-05 0 0)
(1.08263e-05 0 0)
(1.08209e-05 0 0)
(1.08156e-05 0 0)
(1.08102e-05 0 0)
(1.08048e-05 0 0)
(1.07994e-05 0 0)
(1.0794e-05 0 0)
(1.07885e-05 0 0)
(1.07831e-05 0 0)
(1.07776e-05 0 0)
(1.07722e-05 0 0)
(1.07667e-05 0 0)
(1.07612e-05 0 0)
(1.07557e-05 0 0)
(1.07502e-05 0 0)
(1.07446e-05 0 0)
(1.07391e-05 0 0)
(1.07335e-05 0 0)
(1.0728e-05 0 0)
(1.07224e-05 0 0)
(1.07168e-05 0 0)
(1.07111e-05 0 0)
(1.07055e-05 0 0)
(1.06999e-05 0 0)
(1.06942e-05 0 0)
(1.06885e-05 0 0)
(1.06828e-05 0 0)
(1.06771e-05 0 0)
(1.06714e-05 0 0)
(1.06657e-05 0 0)
(1.066e-05 0 0)
(1.06542e-05 0 0)
(1.06485e-05 0 0)
(1.06427e-05 0 0)
(1.06369e-05 0 0)
(1.06311e-05 0 0)
(1.06253e-05 0 0)
(1.06195e-05 0 0)
(1.06137e-05 0 0)
(1.06079e-05 0 0)
(1.06021e-05 0 0)
(1.05962e-05 0 0)
(1.05904e-05 0 0)
(1.05845e-05 0 0)
(1.05787e-05 0 0)
(1.05728e-05 0 0)
(1.05669e-05 0 0)
(1.05611e-05 0 0)
(1.05552e-05 0 0)
(1.05493e-05 0 0)
(1.05434e-05 0 0)
(1.05375e-05 0 0)
(1.05316e-05 0 0)
(1.05256e-05 0 0)
(1.05197e-05 0 0)
(1.05137e-05 0 0)
(1.05076e-05 0 0)
(1.05015e-05 0 0)
(1.04954e-05 0 0)
(1.04892e-05 0 0)
(1.04829e-05 0 0)
(1.04766e-05 0 0)
(1.04702e-05 0 0)
(1.04637e-05 0 0)
(1.04571e-05 0 0)
(1.04504e-05 0 0)
(1.04436e-05 0 0)
(1.04368e-05 0 0)
(1.04299e-05 0 0)
(1.04229e-05 0 0)
(1.04159e-05 0 0)
(1.04089e-05 0 0)
(1.04018e-05 0 0)
(1.03946e-05 0 0)
(1.03875e-05 0 0)
(1.03804e-05 0 0)
(1.03734e-05 0 0)
(1.03663e-05 0 0)
(1.03594e-05 0 0)
(1.03525e-05 0 0)
(1.03458e-05 0 0)
(1.03391e-05 0 0)
(1.03326e-05 0 0)
(1.03263e-05 0 0)
(1.03201e-05 0 0)
(1.0314e-05 0 0)
(1.03081e-05 0 0)
(1.03023e-05 0 0)
(1.02967e-05 0 0)
(1.02913e-05 0 0)
(1.0286e-05 0 0)
(1.02807e-05 0 0)
(1.02756e-05 0 0)
(1.02706e-05 0 0)
(1.02656e-05 0 0)
(1.02607e-05 0 0)
(1.02557e-05 0 0)
(1.02508e-05 0 0)
(1.02459e-05 0 0)
(1.02409e-05 0 0)
(1.02359e-05 0 0)
(1.02309e-05 0 0)
(1.02258e-05 0 0)
(1.02206e-05 0 0)
(1.02153e-05 0 0)
(1.021e-05 0 0)
(1.02046e-05 0 0)
(1.01991e-05 0 0)
(1.01935e-05 0 0)
(1.01879e-05 0 0)
(1.01822e-05 0 0)
(1.01765e-05 0 0)
(1.01707e-05 0 0)
(1.01648e-05 0 0)
(1.0159e-05 0 0)
(1.0153e-05 0 0)
(1.01471e-05 0 0)
(1.01412e-05 0 0)
(1.01352e-05 0 0)
(1.01292e-05 0 0)
(1.01232e-05 0 0)
(1.01172e-05 0 0)
(1.01112e-05 0 0)
(1.01052e-05 0 0)
(1.00992e-05 0 0)
(1.00932e-05 0 0)
(1.00872e-05 0 0)
(1.00812e-05 0 0)
(1.00752e-05 0 0)
(1.00692e-05 0 0)
(1.00632e-05 0 0)
(1.00572e-05 0 0)
(1.00512e-05 0 0)
(1.00452e-05 0 0)
(1.00392e-05 0 0)
(1.00332e-05 0 0)
(1.00272e-05 0 0)
(1.00212e-05 0 0)
(1.00152e-05 0 0)
(1.00092e-05 0 0)
(1.00032e-05 0 0)
(9.99717e-06 0 0)
(9.99114e-06 0 0)
(9.9851e-06 0 0)
(9.97905e-06 0 0)
(9.97299e-06 0 0)
(9.96692e-06 0 0)
(9.96084e-06 0 0)
(9.95475e-06 0 0)
(9.94864e-06 0 0)
(9.94253e-06 0 0)
(9.93641e-06 0 0)
(9.93028e-06 0 0)
(9.92413e-06 0 0)
(9.91797e-06 0 0)
(9.9118e-06 0 0)
(9.90562e-06 0 0)
(9.89943e-06 0 0)
(9.89322e-06 0 0)
(9.88701e-06 0 0)
(9.88078e-06 0 0)
(9.87453e-06 0 0)
(9.86828e-06 0 0)
(9.86201e-06 0 0)
(9.85573e-06 0 0)
(9.84944e-06 0 0)
(9.84313e-06 0 0)
(9.83681e-06 0 0)
(9.83048e-06 0 0)
(9.82413e-06 0 0)
(9.81777e-06 0 0)
(9.8114e-06 0 0)
(9.80501e-06 0 0)
(9.79862e-06 0 0)
(9.79221e-06 0 0)
(9.78578e-06 0 0)
(9.77935e-06 0 0)
(9.7729e-06 0 0)
(9.76644e-06 0 0)
(9.75997e-06 0 0)
(9.75349e-06 0 0)
(9.74699e-06 0 0)
(9.74049e-06 0 0)
(9.73397e-06 0 0)
(9.72744e-06 0 0)
(9.7209e-06 0 0)
(9.71435e-06 0 0)
(9.7078e-06 0 0)
(9.70123e-06 0 0)
(9.69465e-06 0 0)
(9.68806e-06 0 0)
(9.68146e-06 0 0)
(9.67486e-06 0 0)
(9.66824e-06 0 0)
(9.66162e-06 0 0)
(9.65498e-06 0 0)
(9.64834e-06 0 0)
(9.64169e-06 0 0)
(9.63503e-06 0 0)
(9.62837e-06 0 0)
(9.62169e-06 0 0)
(9.615e-06 0 0)
(9.6083e-06 0 0)
(9.60158e-06 0 0)
(9.59485e-06 0 0)
(9.58811e-06 0 0)
(9.58134e-06 0 0)
(9.57455e-06 0 0)
(9.56773e-06 0 0)
(9.56089e-06 0 0)
(9.55401e-06 0 0)
(9.5471e-06 0 0)
(9.54015e-06 0 0)
(9.53316e-06 0 0)
(9.52613e-06 0 0)
(9.51905e-06 0 0)
(9.51193e-06 0 0)
(9.50476e-06 0 0)
(9.49754e-06 0 0)
(9.49027e-06 0 0)
(9.48295e-06 0 0)
(9.47558e-06 0 0)
(9.46817e-06 0 0)
(9.46072e-06 0 0)
(9.45322e-06 0 0)
(9.4457e-06 0 0)
(9.43814e-06 0 0)
(9.43056e-06 0 0)
(9.42296e-06 0 0)
(9.41536e-06 0 0)
(9.40774e-06 0 0)
(9.40014e-06 0 0)
(9.39255e-06 0 0)
(9.38497e-06 0 0)
(9.37743e-06 0 0)
(9.36993e-06 0 0)
(9.36247e-06 0 0)
(9.35506e-06 0 0)
(9.34771e-06 0 0)
(9.34044e-06 0 0)
(9.33323e-06 0 0)
(9.3261e-06 0 0)
(9.31904e-06 0 0)
(9.31207e-06 0 0)
(9.30518e-06 0 0)
(9.29838e-06 0 0)
(9.29165e-06 0 0)
(9.285e-06 0 0)
(9.27841e-06 0 0)
(9.2719e-06 0 0)
(9.26545e-06 0 0)
(9.25904e-06 0 0)
(9.25268e-06 0 0)
(9.24636e-06 0 0)
(9.24006e-06 0 0)
(9.23378e-06 0 0)
(9.22751e-06 0 0)
(9.22123e-06 0 0)
(9.21495e-06 0 0)
(9.20865e-06 0 0)
(9.20233e-06 0 0)
(9.19599e-06 0 0)
(9.1896e-06 0 0)
(9.18318e-06 0 0)
(9.17672e-06 0 0)
(9.17022e-06 0 0)
(9.16367e-06 0 0)
(9.15708e-06 0 0)
(9.15044e-06 0 0)
(9.14376e-06 0 0)
(9.13703e-06 0 0)
(9.13026e-06 0 0)
(9.12346e-06 0 0)
(9.11661e-06 0 0)
(9.10973e-06 0 0)
(9.10282e-06 0 0)
(9.09588e-06 0 0)
(9.08892e-06 0 0)
(9.08192e-06 0 0)
(9.07491e-06 0 0)
(9.06788e-06 0 0)
(9.06083e-06 0 0)
(9.05376e-06 0 0)
(9.04668e-06 0 0)
(9.03959e-06 0 0)
(9.03248e-06 0 0)
(9.02537e-06 0 0)
(9.01825e-06 0 0)
(9.01112e-06 0 0)
(9.00398e-06 0 0)
(8.99684e-06 0 0)
(8.98969e-06 0 0)
(8.98253e-06 0 0)
(8.97537e-06 0 0)
(8.9682e-06 0 0)
(8.96102e-06 0 0)
(8.95383e-06 0 0)
(8.94664e-06 0 0)
(8.93944e-06 0 0)
(8.93223e-06 0 0)
(8.92501e-06 0 0)
(8.91779e-06 0 0)
(8.91055e-06 0 0)
(8.9033e-06 0 0)
(8.89605e-06 0 0)
(8.88878e-06 0 0)
(8.8815e-06 0 0)
(8.87421e-06 0 0)
(8.8669e-06 0 0)
(8.85959e-06 0 0)
(8.85226e-06 0 0)
(8.84492e-06 0 0)
(8.83756e-06 0 0)
(8.83019e-06 0 0)
(8.82281e-06 0 0)
(8.81541e-06 0 0)
(8.808e-06 0 0)
(8.80058e-06 0 0)
(8.79314e-06 0 0)
(8.78568e-06 0 0)
(8.77821e-06 0 0)
(8.77073e-06 0 0)
(8.76323e-06 0 0)
(8.75571e-06 0 0)
(8.74818e-06 0 0)
(8.74063e-06 0 0)
(8.73307e-06 0 0)
(8.72549e-06 0 0)
(8.7179e-06 0 0)
(8.71028e-06 0 0)
(8.70266e-06 0 0)
(8.69501e-06 0 0)
(8.68736e-06 0 0)
(8.67968e-06 0 0)
(8.67199e-06 0 0)
(8.66428e-06 0 0)
(8.65656e-06 0 0)
(8.64881e-06 0 0)
(8.64106e-06 0 0)
(8.63328e-06 0 0)
(8.62549e-06 0 0)
(8.61769e-06 0 0)
(8.60986e-06 0 0)
(8.60202e-06 0 0)
(8.59417e-06 0 0)
(8.5863e-06 0 0)
(8.57841e-06 0 0)
(8.5705e-06 0 0)
(8.56258e-06 0 0)
(8.55465e-06 0 0)
(8.5467e-06 0 0)
(8.53873e-06 0 0)
(8.53074e-06 0 0)
(8.52275e-06 0 0)
(8.51473e-06 0 0)
(8.5067e-06 0 0)
(8.49865e-06 0 0)
(8.49059e-06 0 0)
(8.48252e-06 0 0)
(8.47442e-06 0 0)
(8.46632e-06 0 0)
(8.45819e-06 0 0)
(8.45005e-06 0 0)
(8.4419e-06 0 0)
(8.43372e-06 0 0)
(8.42554e-06 0 0)
(8.41733e-06 0 0)
(8.4091e-06 0 0)
(8.40086e-06 0 0)
(8.3926e-06 0 0)
(8.38431e-06 0 0)
(8.37601e-06 0 0)
(8.36768e-06 0 0)
(8.35933e-06 0 0)
(8.35095e-06 0 0)
(8.34255e-06 0 0)
(8.33411e-06 0 0)
(8.32565e-06 0 0)
(8.31716e-06 0 0)
(8.30864e-06 0 0)
(8.30008e-06 0 0)
(8.29148e-06 0 0)
(8.28285e-06 0 0)
(8.27419e-06 0 0)
(8.26548e-06 0 0)
(8.25674e-06 0 0)
(8.24796e-06 0 0)
(8.23914e-06 0 0)
(8.23029e-06 0 0)
(8.22139e-06 0 0)
(8.21246e-06 0 0)
(8.20349e-06 0 0)
(8.19448e-06 0 0)
(8.18545e-06 0 0)
(8.17638e-06 0 0)
(8.16728e-06 0 0)
(8.15816e-06 0 0)
(8.14901e-06 0 0)
(8.13985e-06 0 0)
(8.13066e-06 0 0)
(8.12147e-06 0 0)
(8.11226e-06 0 0)
(8.10304e-06 0 0)
(8.09383e-06 0 0)
(8.08461e-06 0 0)
(8.0754e-06 0 0)
(8.0662e-06 0 0)
(8.05701e-06 0 0)
(8.04784e-06 0 0)
(8.03869e-06 0 0)
(8.02956e-06 0 0)
(8.02046e-06 0 0)
(8.01138e-06 0 0)
(8.00233e-06 0 0)
(7.99332e-06 0 0)
(7.98433e-06 0 0)
(7.97538e-06 0 0)
(7.96646e-06 0 0)
(7.95756e-06 0 0)
(7.9487e-06 0 0)
(7.93987e-06 0 0)
(7.93106e-06 0 0)
(7.92228e-06 0 0)
(7.91351e-06 0 0)
(7.90476e-06 0 0)
(7.89602e-06 0 0)
(7.88729e-06 0 0)
(7.87856e-06 0 0)
(7.86984e-06 0 0)
(7.8611e-06 0 0)
(7.85236e-06 0 0)
(7.8436e-06 0 0)
(7.83483e-06 0 0)
(7.82603e-06 0 0)
(7.81721e-06 0 0)
(7.80836e-06 0 0)
(7.79947e-06 0 0)
(7.79055e-06 0 0)
(7.7816e-06 0 0)
(7.7726e-06 0 0)
(7.76357e-06 0 0)
(7.7545e-06 0 0)
(7.74538e-06 0 0)
(7.73622e-06 0 0)
(7.72702e-06 0 0)
(7.71777e-06 0 0)
(7.70848e-06 0 0)
(7.69916e-06 0 0)
(7.68978e-06 0 0)
(7.68037e-06 0 0)
(7.67092e-06 0 0)
(7.66143e-06 0 0)
(7.65191e-06 0 0)
(7.64234e-06 0 0)
(7.63274e-06 0 0)
(7.62311e-06 0 0)
(7.61344e-06 0 0)
(7.60374e-06 0 0)
(7.59401e-06 0 0)
(7.58424e-06 0 0)
(7.57445e-06 0 0)
(7.56462e-06 0 0)
(7.55477e-06 0 0)
(7.54488e-06 0 0)
(7.53497e-06 0 0)
(7.52503e-06 0 0)
(7.51506e-06 0 0)
(7.50506e-06 0 0)
(7.49503e-06 0 0)
(7.48498e-06 0 0)
(7.47489e-06 0 0)
(7.46478e-06 0 0)
(7.45464e-06 0 0)
(7.44447e-06 0 0)
(7.43427e-06 0 0)
(7.42404e-06 0 0)
(7.41377e-06 0 0)
(7.40348e-06 0 0)
(7.39316e-06 0 0)
(7.3828e-06 0 0)
(7.37242e-06 0 0)
(7.362e-06 0 0)
(7.35154e-06 0 0)
(7.34106e-06 0 0)
(7.33054e-06 0 0)
(7.31998e-06 0 0)
(7.30939e-06 0 0)
(7.29877e-06 0 0)
(7.2881e-06 0 0)
(7.27741e-06 0 0)
(7.26667e-06 0 0)
(7.2559e-06 0 0)
(7.24509e-06 0 0)
(7.23424e-06 0 0)
(7.22335e-06 0 0)
(7.21243e-06 0 0)
(7.20146e-06 0 0)
(7.19046e-06 0 0)
(7.17941e-06 0 0)
(7.16833e-06 0 0)
(7.1572e-06 0 0)
(7.14604e-06 0 0)
(7.13483e-06 0 0)
(7.12358e-06 0 0)
(7.11229e-06 0 0)
(7.10096e-06 0 0)
(7.08959e-06 0 0)
(7.07817e-06 0 0)
(7.06671e-06 0 0)
(7.05521e-06 0 0)
(7.04367e-06 0 0)
(7.03209e-06 0 0)
(7.02046e-06 0 0)
(7.00879e-06 0 0)
(6.99709e-06 0 0)
(6.98534e-06 0 0)
(6.97355e-06 0 0)
(6.96172e-06 0 0)
(6.94985e-06 0 0)
(6.93794e-06 0 0)
(6.926e-06 0 0)
(6.91401e-06 0 0)
(6.902e-06 0 0)
(6.88995e-06 0 0)
(6.87788e-06 0 0)
(6.86577e-06 0 0)
(6.85364e-06 0 0)
(6.84149e-06 0 0)
(6.82932e-06 0 0)
(6.81713e-06 0 0)
(6.80494e-06 0 0)
(6.79275e-06 0 0)
(6.78056e-06 0 0)
(6.76838e-06 0 0)
(6.75622e-06 0 0)
(6.74409e-06 0 0)
(6.732e-06 0 0)
(6.71997e-06 0 0)
(6.70801e-06 0 0)
(6.69614e-06 0 0)
(6.68436e-06 0 0)
(6.67271e-06 0 0)
(6.66121e-06 0 0)
(6.64987e-06 0 0)
(6.63873e-06 0 0)
(6.62781e-06 0 0)
(6.61714e-06 0 0)
(6.60674e-06 0 0)
(6.59665e-06 0 0)
(6.5869e-06 0 0)
(6.57751e-06 0 0)
(6.56852e-06 0 0)
(6.55994e-06 0 0)
(6.5518e-06 0 0)
(6.54411e-06 0 0)
(6.5369e-06 0 0)
(6.53019e-06 0 0)
(6.52396e-06 0 0)
(6.51821e-06 0 0)
(6.51295e-06 0 0)
(6.50816e-06 0 0)
(6.50382e-06 0 0)
(6.49993e-06 0 0)
(6.49646e-06 0 0)
(6.49336e-06 0 0)
(6.49062e-06 0 0)
(6.48822e-06 0 0)
(6.48611e-06 0 0)
(6.48426e-06 0 0)
(6.48265e-06 0 0)
(6.48124e-06 0 0)
(6.48001e-06 0 0)
(6.47892e-06 0 0)
(6.47793e-06 0 0)
(6.47703e-06 0 0)
(6.47617e-06 0 0)
(6.4753e-06 0 0)
(6.47432e-06 0 0)
(6.47309e-06 0 0)
(6.47136e-06 0 0)
(6.46869e-06 0 0)
(6.46432e-06 0 0)
(6.45685e-06 0 0)
(6.44384e-06 0 0)
(6.42097e-06 0 0)
(6.38077e-06 0 0)
(6.31072e-06 0 0)
(6.19108e-06 0 0)
(5.99393e-06 0 0)
(5.68761e-06 0 0)
(5.25262e-06 0 0)
(4.70741e-06 0 0)
(4.12232e-06 0 0)
(3.59313e-06 0 0)
(3.18759e-06 0 0)
(2.91748e-06 0 0)
(2.75527e-06 0 0)
(2.66424e-06 0 0)
(2.61517e-06 0 0)
(2.58929e-06 0 0)
(2.57581e-06 0 0)
(2.56882e-06 0 0)
(2.56521e-06 0 0)
(2.56335e-06 0 0)
(2.56239e-06 0 0)
(2.5619e-06 0 0)
(2.56166e-06 0 0)
(2.56155e-06 0 0)
(2.56151e-06 0 0)
(2.56152e-06 0 0)
(2.56154e-06 0 0)
(2.56159e-06 0 0)
(2.56164e-06 0 0)
(2.5617e-06 0 0)
(2.56177e-06 0 0)
(2.56185e-06 0 0)
(2.56193e-06 0 0)
(2.56202e-06 0 0)
(2.56211e-06 0 0)
(2.56221e-06 0 0)
(2.5623e-06 0 0)
(2.5624e-06 0 0)
(2.5625e-06 0 0)
(2.5626e-06 0 0)
(2.5627e-06 0 0)
(2.5628e-06 0 0)
(2.5629e-06 0 0)
(2.563e-06 0 0)
(2.56309e-06 0 0)
(2.56319e-06 0 0)
(2.56328e-06 0 0)
(2.56337e-06 0 0)
(2.56345e-06 0 0)
(2.56354e-06 0 0)
(2.56362e-06 0 0)
(2.56369e-06 0 0)
(2.56377e-06 0 0)
(2.56383e-06 0 0)
(2.5639e-06 0 0)
(2.56396e-06 0 0)
(2.56402e-06 0 0)
(2.56408e-06 0 0)
(2.56413e-06 0 0)
(2.56418e-06 0 0)
(2.56423e-06 0 0)
(2.56428e-06 0 0)
(2.56432e-06 0 0)
(2.56436e-06 0 0)
(2.5644e-06 0 0)
(2.56444e-06 0 0)
(2.56447e-06 0 0)
(2.56451e-06 0 0)
(2.56454e-06 0 0)
(2.56457e-06 0 0)
(2.5646e-06 0 0)
(2.56463e-06 0 0)
(2.56466e-06 0 0)
(2.56469e-06 0 0)
(2.56472e-06 0 0)
(2.56475e-06 0 0)
(2.56478e-06 0 0)
(2.5648e-06 0 0)
(2.56483e-06 0 0)
(2.56486e-06 0 0)
(2.56489e-06 0 0)
(2.56492e-06 0 0)
(2.56495e-06 0 0)
(2.56497e-06 0 0)
(2.565e-06 0 0)
(2.56503e-06 0 0)
(2.56506e-06 0 0)
(2.56509e-06 0 0)
(2.56512e-06 0 0)
(2.56515e-06 0 0)
(2.56518e-06 0 0)
(2.56521e-06 0 0)
(2.56524e-06 0 0)
(2.56527e-06 0 0)
(2.5653e-06 0 0)
(2.56533e-06 0 0)
(2.56536e-06 0 0)
(2.56538e-06 0 0)
(2.56541e-06 0 0)
(2.56544e-06 0 0)
(2.56547e-06 0 0)
(2.5655e-06 0 0)
(2.56553e-06 0 0)
(2.56556e-06 0 0)
(2.56558e-06 0 0)
(2.56561e-06 0 0)
(2.56564e-06 0 0)
(2.56566e-06 0 0)
(2.56569e-06 0 0)
(2.56571e-06 0 0)
(2.56574e-06 0 0)
(2.56576e-06 0 0)
(2.56578e-06 0 0)
(2.56581e-06 0 0)
(2.56583e-06 0 0)
(2.56585e-06 0 0)
(2.56587e-06 0 0)
(2.56589e-06 0 0)
(2.56591e-06 0 0)
(2.56592e-06 0 0)
(2.56594e-06 0 0)
(2.56596e-06 0 0)
(2.56597e-06 0 0)
(2.56599e-06 0 0)
(2.566e-06 0 0)
(2.56601e-06 0 0)
(2.56602e-06 0 0)
(2.56603e-06 0 0)
(2.56604e-06 0 0)
(2.56605e-06 0 0)
(2.56606e-06 0 0)
(2.56607e-06 0 0)
(2.56607e-06 0 0)
(2.56608e-06 0 0)
(2.56608e-06 0 0)
(2.56608e-06 0 0)
(2.56608e-06 0 0)
(2.56609e-06 0 0)
(2.56609e-06 0 0)
(2.56609e-06 0 0)
(2.56608e-06 0 0)
)
;

boundaryField
{
    inlet
    {
        type            fixedValue;
        value           uniform (1.13622e-05 0 0);
    }
    outlet
    {
        type            zeroGradient;
    }
    emptyWalls
    {
        type            empty;
    }
}


// ************************************************************************* //
