/*--------------------------------*- C++ -*----------------------------------*\
  =========                 |
  \\      /  F ield         | OpenFOAM: The Open Source CFD Toolbox
   \\    /   O peration     | Website:  https://openfoam.org
    \\  /    A nd           | Version:  9
     \\/     M anipulation  |
\*---------------------------------------------------------------------------*/
FoamFile
{
    format      ascii;
    class       volScalarField;
    location    "10700";
    object      krc;
}
// * * * * * * * * * * * * * * * * * * * * * * * * * * * * * * * * * * * * * //

dimensions      [0 0 0 0 0 0 0];

internalField   nonuniform List<scalar> 
1000
(
4.565e-07
4.76131e-06
1.61706e-05
3.33049e-05
5.58603e-05
8.32769e-05
0.000114481
0.000147854
0.000181495
0.000213737
0.000244734
0.000282927
0.000379332
0.000788164
0.00458005
0.0298378
0.0421581
0.0459064
0.0478077
0.0490732
0.0500493
0.0508577
0.0515582
0.0521771
0.0527348
0.0532412
0.0537091
0.0541468
0.0545647
0.0549684
0.0553654
0.0557606
0.0561685
0.0565987
0.0570425
0.0575078
0.0580084
0.0585657
0.0592101
0.0599777
0.0608978
0.0619743
0.0631791
0.0644719
0.065821
0.0672062
0.0686142
0.0700365
0.0714672
0.0729022
0.0743388
0.075775
0.0772093
0.0786404
0.0800678
0.0814909
0.082909
0.084322
0.0857295
0.0871314
0.0885275
0.0899176
0.0913018
0.0926799
0.0940519
0.0954177
0.0967774
0.098131
0.0994786
0.10082
0.102155
0.103485
0.104808
0.106126
0.107437
0.108743
0.110042
0.111336
0.112625
0.113907
0.115184
0.116456
0.117722
0.118982
0.120238
0.121487
0.122732
0.123971
0.125205
0.126434
0.127658
0.128877
0.130091
0.1313
0.132504
0.133703
0.134898
0.136088
0.137273
0.138454
0.13963
0.140801
0.141969
0.143131
0.14429
0.145444
0.146594
0.14774
0.148882
0.150019
0.151152
0.152282
0.153407
0.154529
0.155646
0.15676
0.157869
0.158975
0.160077
0.161176
0.16227
0.163361
0.164449
0.165533
0.166614
0.167691
0.168765
0.169836
0.170904
0.171968
0.17303
0.174089
0.175145
0.176198
0.177248
0.178295
0.17934
0.180382
0.181421
0.182457
0.18349
0.18452
0.185548
0.186573
0.187595
0.188614
0.18963
0.190644
0.191655
0.192663
0.193669
0.194672
0.195673
0.196671
0.197666
0.19866
0.199651
0.200639
0.201625
0.20261
0.203591
0.204571
0.205549
0.206524
0.207497
0.208469
0.209438
0.210405
0.21137
0.212333
0.213295
0.214254
0.215211
0.216167
0.217121
0.218072
0.219022
0.219971
0.220917
0.221862
0.222805
0.223746
0.224686
0.225624
0.22656
0.227495
0.228428
0.229359
0.230289
0.231218
0.232145
0.23307
0.233994
0.234917
0.235838
0.236757
0.237676
0.238593
0.239508
0.240423
0.241336
0.242248
0.243158
0.244068
0.244976
0.245883
0.246788
0.247693
0.248596
0.249499
0.2504
0.2513
0.252199
0.253097
0.253995
0.254891
0.255786
0.25668
0.257573
0.258465
0.259357
0.260247
0.261137
0.262026
0.262914
0.263801
0.264687
0.265573
0.266458
0.267342
0.268226
0.269108
0.26999
0.270872
0.271753
0.272633
0.273512
0.274391
0.27527
0.276148
0.277025
0.277902
0.278778
0.279654
0.28053
0.281405
0.28228
0.283154
0.284028
0.284901
0.285774
0.286647
0.28752
0.288392
0.289264
0.290136
0.291007
0.291878
0.292749
0.29362
0.294491
0.295361
0.296231
0.297101
0.297971
0.29884
0.29971
0.300579
0.301448
0.302317
0.303186
0.304055
0.304924
0.305793
0.306662
0.307531
0.308401
0.30927
0.31014
0.311011
0.311881
0.312752
0.313624
0.314496
0.315369
0.316242
0.317116
0.317991
0.318867
0.319743
0.320621
0.321499
0.322378
0.323258
0.324138
0.32502
0.325902
0.326786
0.32767
0.328555
0.32944
0.330327
0.331214
0.332102
0.33299
0.33388
0.33477
0.335661
0.336553
0.337446
0.33834
0.339234
0.34013
0.341027
0.341925
0.342823
0.343723
0.344625
0.345527
0.346431
0.347336
0.348243
0.349151
0.350061
0.350972
0.351885
0.352799
0.353715
0.354633
0.355553
0.356474
0.357398
0.358323
0.35925
0.360179
0.361111
0.362044
0.362979
0.363917
0.364857
0.365799
0.366743
0.36769
0.368639
0.36959
0.370544
0.371501
0.37246
0.373422
0.374387
0.375355
0.376325
0.377298
0.378274
0.379254
0.380236
0.381222
0.38221
0.383203
0.384198
0.385197
0.386199
0.387205
0.388215
0.389228
0.390246
0.391267
0.392293
0.393322
0.394355
0.395393
0.396435
0.397482
0.398533
0.399589
0.400649
0.401714
0.402784
0.403859
0.404939
0.406023
0.407113
0.408208
0.409309
0.410414
0.411524
0.41264
0.41376
0.414885
0.416015
0.417149
0.418288
0.41943
0.420574
0.421721
0.422869
0.424017
0.425164
0.426308
0.427446
0.428575
0.429693
0.430796
0.431881
0.432942
0.433975
0.434973
0.435932
0.436846
0.43771
0.438519
0.439269
0.439958
0.440583
0.441145
0.441647
0.442094
0.442497
0.442872
0.443247
0.443667
0.444214
0.445025
0.446339
0.448564
0.452378
0.45885
0.469482
0.48594
0.509135
0.537751
0.567622
0.59361
0.612687
0.62492
0.632062
0.635999
0.638098
0.639195
0.639764
0.640056
0.640205
0.640281
0.640317
0.640334
0.640341
0.640343
0.640342
0.640339
0.640335
0.640331
0.640326
0.640321
0.640316
0.64031
0.640305
0.640299
0.640293
0.640287
0.640281
0.640275
0.64027
0.640264
0.640258
0.640252
0.640247
0.640242
0.640238
0.640233
0.640229
0.640226
0.640223
0.64022
0.640219
0.640217
0.640217
0.640217
0.640217
0.640217
0.640219
0.640221
0.640224
0.640228
0.640232
0.640237
0.640241
0.640247
0.640252
0.640258
0.640264
0.64027
0.640276
0.640283
0.640289
0.640295
0.640301
0.640307
0.640313
0.640318
0.640323
0.640328
0.640333
0.640337
0.640342
0.640345
0.640349
0.640352
0.640355
0.640358
0.64036
0.640363
0.640365
0.640367
0.640368
0.64037
0.640372
0.640373
0.640374
0.640376
0.640377
0.640378
0.640379
0.64038
0.640381
0.640383
0.640384
0.640385
0.640386
0.640387
0.640388
0.64039
0.640391
0.640392
0.640394
0.640395
0.640396
0.640398
0.640399
0.6404
0.640402
0.640403
0.640405
0.640406
0.640407
0.640409
0.64041
0.640411
0.640413
0.640414
0.640415
0.640416
0.640418
0.640419
0.64042
0.640421
0.640422
0.640423
0.640424
0.640425
0.640426
0.640427
0.640428
0.640428
0.640429
0.64043
0.640431
0.640431
0.640432
0.640432
0.640433
0.640433
0.640433
0.640434
0.640434
0.640434
0.640435
0.640435
0.640435
0.640435
0.640435
0.640435
0.640435
0.640435
0.640435
0.640435
0.640435
0.640435
0.640435
0.640434
0.640434
0.640434
0.640434
0.640434
0.640433
0.640433
0.640433
0.640432
0.640432
0.640432
0.640431
0.640431
0.640431
0.64043
0.64043
0.640429
0.640429
0.640428
0.640428
0.640427
0.640427
0.640426
0.640426
0.640425
0.640425
0.640424
0.640424
0.640423
0.640422
0.640422
0.640421
0.64042
0.64042
0.640419
0.640418
0.640417
0.640417
0.640416
0.640415
0.640414
0.640413
0.640412
0.640411
0.64041
0.640409
0.640408
0.640407
0.640405
0.640404
0.640403
0.640401
0.640399
0.640398
0.640396
0.640394
0.640392
0.64039
0.640388
0.640385
0.640382
0.64038
0.640377
0.640374
0.64037
0.640367
0.640364
0.64036
0.640356
0.640352
0.640348
0.640344
0.640339
0.640335
0.64033
0.640325
0.64032
0.640315
0.64031
0.640305
0.6403
0.640295
0.64029
0.640285
0.640281
0.640276
0.640272
0.640268
0.640265
0.640261
0.640258
0.640256
0.640254
0.640252
0.640251
0.64025
0.64025
0.64025
0.64025
0.640251
0.640253
0.640255
0.640257
0.64026
0.640264
0.640267
0.640271
0.640276
0.64028
0.640285
0.64029
0.640295
0.6403
0.640305
0.64031
0.640315
0.640319
0.640324
0.640329
0.640333
0.640337
0.640341
0.640345
0.640349
0.640352
0.640355
0.640358
0.640361
0.640363
0.640366
0.640368
0.64037
0.640372
0.640373
0.640375
0.640376
0.640377
0.640378
0.640379
0.64038
0.640381
0.640382
0.640383
0.640384
0.640385
0.640385
0.640386
0.640387
0.640388
0.640389
0.640389
0.64039
0.640391
0.640392
0.640393
0.640394
0.640395
0.640396
0.640397
0.640398
0.640399
0.6404
0.640401
0.640402
0.640403
0.640404
0.640405
0.640406
0.640407
0.640408
0.640409
0.64041
0.640411
0.640412
0.640413
0.640414
0.640415
0.640416
0.640417
0.640417
0.640418
0.640419
0.64042
0.640421
0.640421
0.640422
0.640423
0.640423
0.640424
0.640424
0.640425
0.640426
0.640426
0.640426
0.640427
0.640427
0.640428
0.640428
0.640428
0.640428
0.640428
0.640429
0.640429
0.640429
0.640429
0.640429
0.640429
0.640429
0.640429
0.640429
0.640429
0.640429
0.640429
0.640429
0.640428
0.640428
0.640428
0.640428
0.640428
0.640427
0.640427
0.640427
0.640426
0.640426
0.640426
0.640425
0.640425
0.640424
0.640424
0.640424
0.640423
0.640423
0.640422
0.640422
0.640421
0.640421
0.64042
0.640419
0.640419
0.640418
0.640418
0.640417
0.640416
0.640415
0.640415
0.640414
0.640413
0.640412
0.640411
0.64041
0.640409
0.640408
0.640407
0.640406
0.640405
0.640403
0.640402
0.640401
0.640399
0.640397
0.640396
0.640394
0.640392
0.64039
0.640388
0.640385
0.640383
0.640381
0.640378
0.640375
0.640372
0.640369
0.640366
0.640363
0.640359
0.640356
0.640352
0.640348
0.640344
0.64034
0.640336
0.640332
0.640328
0.640324
0.640319
0.640315
0.640311
0.640307
0.640302
0.640298
0.640294
0.64029
0.640287
0.640283
0.64028
0.640277
0.640274
0.640271
0.640268
0.640266
0.640265
0.640263
0.640262
0.640261
0.640261
0.640261
0.640261
0.640261
0.640261
0.640263
0.640264
0.640266
0.640269
0.640271
0.640274
0.640277
0.640281
0.640284
0.640288
0.640292
0.640296
0.6403
0.640304
0.640308
0.640312
0.640316
0.64032
0.640323
0.640327
0.640331
0.640334
0.640338
0.640341
0.640344
0.640347
0.64035
0.640352
0.640355
0.640357
0.640359
0.640361
0.640363
0.640365
0.640367
0.640368
0.640369
0.640371
0.640372
0.640373
0.640374
0.640375
0.640376
0.640377
0.640378
0.640379
0.64038
0.640381
0.640382
0.640383
0.640383
0.640384
0.640385
0.640386
0.640387
0.640388
0.640389
0.64039
0.640391
0.640392
0.640393
0.640394
0.640395
0.640396
0.640397
0.640398
0.640399
0.6404
0.640401
0.640402
0.640404
0.640405
0.640406
0.640407
0.640408
0.640409
0.64041
0.640411
0.640412
0.640413
0.640414
0.640415
0.640416
0.640417
0.640418
0.640419
0.64042
0.640421
0.640422
0.640423
0.640424
0.640425
0.640425
0.640426
0.640427
0.640428
0.640428
0.640429
0.640429
0.64043
0.64043
0.640431
0.640431
)
;

boundaryField
{
    inlet
    {
        type            calculated;
        value           uniform 3.08149e-33;
    }
    outlet
    {
        type            calculated;
        value           uniform 0.640431;
    }
    emptyWalls
    {
        type            empty;
    }
}


// ************************************************************************* //
