/*--------------------------------*- C++ -*----------------------------------*\
  =========                 |
  \\      /  F ield         | OpenFOAM: The Open Source CFD Toolbox
   \\    /   O peration     | Website:  https://openfoam.org
    \\  /    A nd           | Version:  9
     \\/     M anipulation  |
\*---------------------------------------------------------------------------*/
FoamFile
{
    format      ascii;
    class       volScalarField;
    location    "20450";
    object      Fb;
}
// * * * * * * * * * * * * * * * * * * * * * * * * * * * * * * * * * * * * * //

dimensions      [0 0 0 0 0 0 0];

internalField   nonuniform List<scalar> 
1000
(
0.805217
0.805167
0.805248
0.805156
0.805293
0.80516
0.805325
0.805196
0.805327
0.805266
0.805333
0.805346
0.805382
0.805415
0.805456
0.805481
0.805525
0.805552
0.805589
0.805622
0.805635
0.805691
0.805645
0.805764
0.805654
0.805833
0.805815
0.80632
0.810424
0.828223
0.832759
0.833632
0.833763
0.833392
0.832784
0.832384
0.832409
0.832727
0.833088
0.833548
0.834272
0.83492
0.835423
0.835773
0.835987
0.836104
0.836156
0.836093
0.836026
0.835973
0.835958
0.835968
0.83598
0.835987
0.836024
0.836051
0.836101
0.836131
0.836177
0.836202
0.836236
0.836262
0.836283
0.836299
0.836309
0.836315
0.836315
0.836309
0.836297
0.836278
0.836252
0.836218
0.836175
0.836121
0.836054
0.835971
0.835866
0.835736
0.835574
0.835379
0.835151
0.834899
0.834631
0.83435
0.83406
0.833762
0.833458
0.833149
0.832836
0.832518
0.832196
0.831871
0.831543
0.831211
0.830875
0.830537
0.830195
0.829851
0.829506
0.829159
0.828811
0.828463
0.828115
0.827767
0.827418
0.827068
0.826716
0.826361
0.826003
0.825642
0.825279
0.824915
0.82455
0.824184
0.82382
0.823456
0.823094
0.822734
0.822376
0.822016
0.821651
0.821276
0.820888
0.820481
0.820052
0.819602
0.81913
0.818639
0.818131
0.81761
0.81708
0.816545
0.816007
0.815472
0.814943
0.814425
0.813923
0.813441
0.812986
0.81256
0.812168
0.811811
0.811489
0.8112
0.810941
0.810707
0.810492
0.81029
0.810093
0.809896
0.809692
0.809477
0.809248
0.809001
0.808735
0.808449
0.808146
0.807825
0.807488
0.807138
0.806777
0.806407
0.806031
0.805651
0.805268
0.804884
0.8045
0.804117
0.803736
0.803357
0.80298
0.802606
0.802234
0.801863
0.801495
0.801128
0.800763
0.800398
0.800034
0.79967
0.799306
0.798942
0.798578
0.798214
0.797849
0.797483
0.797116
0.796749
0.796381
0.796012
0.795641
0.79527
0.794898
0.794525
0.794151
0.793776
0.7934
0.793022
0.792644
0.792265
0.791884
0.791502
0.791119
0.790736
0.790351
0.789964
0.789577
0.789189
0.788799
0.788409
0.788017
0.787624
0.78723
0.786835
0.786439
0.786041
0.785642
0.785241
0.78484
0.784437
0.784034
0.783629
0.783223
0.782817
0.782409
0.782001
0.781593
0.781184
0.780774
0.780363
0.779952
0.779541
0.779128
0.778714
0.7783
0.777885
0.77747
0.777053
0.776637
0.77622
0.775804
0.775387
0.77497
0.774554
0.774136
0.773718
0.773298
0.772876
0.77245
0.77202
0.771585
0.771144
0.770696
0.77024
0.769776
0.769304
0.768823
0.768334
0.767837
0.767332
0.76682
0.766303
0.765782
0.765258
0.764733
0.764208
0.763686
0.763169
0.762659
0.762157
0.761666
0.761187
0.760722
0.760272
0.759838
0.75942
0.759019
0.758632
0.758261
0.757902
0.757555
0.757217
0.756886
0.756561
0.756238
0.755915
0.755591
0.755264
0.754931
0.754592
0.754247
0.753893
0.753532
0.753162
0.752785
0.7524
0.752007
0.751609
0.751204
0.750795
0.750382
0.749965
0.749545
0.749123
0.748699
0.748274
0.747849
0.747423
0.746998
0.746573
0.746148
0.745723
0.7453
0.744876
0.744454
0.744032
0.74361
0.743189
0.742768
0.742347
0.741927
0.741506
0.741085
0.740664
0.740243
0.739821
0.739399
0.738977
0.738554
0.73813
0.737706
0.737281
0.736855
0.736428
0.736001
0.735573
0.735144
0.734715
0.734284
0.733853
0.733421
0.732988
0.732554
0.732119
0.731683
0.731247
0.730809
0.730371
0.729932
0.729491
0.72905
0.728608
0.728165
0.727721
0.727277
0.726831
0.726384
0.725936
0.725488
0.725038
0.724588
0.724136
0.723684
0.723231
0.722777
0.722321
0.721866
0.721409
0.720952
0.720493
0.720035
0.719575
0.719115
0.718654
0.718192
0.717729
0.717266
0.716803
0.716338
0.715873
0.715408
0.714942
0.714475
0.714008
0.713541
0.713073
0.712604
0.712134
0.711664
0.711193
0.710721
0.710247
0.709772
0.709295
0.708815
0.708333
0.707848
0.70736
0.706868
0.706372
0.705872
0.705368
0.704859
0.704346
0.703828
0.703306
0.702779
0.702248
0.701714
0.701176
0.700636
0.700093
0.699548
0.699003
0.698458
0.697914
0.697371
0.696831
0.696295
0.695762
0.695235
0.694714
0.694199
0.693692
0.693192
0.6927
0.692216
0.691741
0.691273
0.690813
0.690361
0.689915
0.689475
0.689041
0.688611
0.688184
0.68776
0.687338
0.686916
0.686494
0.686071
0.685646
0.685218
0.684787
0.684353
0.683915
0.683473
0.683027
0.682576
0.682122
0.681663
0.6812
0.680734
0.680264
0.679791
0.679315
0.678836
0.678355
0.677872
0.677387
0.676901
0.676414
0.675925
0.675436
0.674946
0.674456
0.673965
0.673473
0.672982
0.67249
0.671998
0.671506
0.671014
0.670521
0.670029
0.669536
0.669043
0.668549
0.668055
0.667561
0.667067
0.666571
0.666076
0.665579
0.665083
0.664585
0.664087
0.663588
0.663088
0.662588
0.662087
0.661584
0.661081
0.660578
0.660073
0.659567
0.659061
0.658553
0.658044
0.657535
0.657025
0.656513
0.656001
0.655487
0.654973
0.654457
0.653941
0.653423
0.652905
0.652385
0.651864
0.651343
0.65082
0.650296
0.649771
0.649245
0.648718
0.64819
0.64766
0.64713
0.646599
0.646066
0.645533
0.644998
0.644463
0.643926
0.643388
0.64285
0.64231
0.641769
0.641227
0.640685
0.640141
0.639596
0.639051
0.638504
0.637956
0.637408
0.636859
0.636308
0.635757
0.635205
0.634652
0.634098
0.633543
0.632987
0.63243
0.631872
0.631312
0.630752
0.63019
0.629627
0.629062
0.628495
0.627927
0.627357
0.626785
0.626211
0.625634
0.625055
0.624473
0.623889
0.623301
0.622711
0.622118
0.621522
0.620922
0.62032
0.619715
0.619107
0.618496
0.617882
0.617266
0.616648
0.616027
0.615405
0.614782
0.614157
0.613532
0.612907
0.612281
0.611656
0.611031
0.610408
0.609787
0.609167
0.60855
0.607936
0.607324
0.606716
0.606112
0.605511
0.604913
0.60432
0.60373
0.603144
0.602562
0.601983
0.601408
0.600835
0.600265
0.599697
0.599131
0.598566
0.598002
0.597438
0.596875
0.596311
0.595746
0.59518
0.594613
0.594043
0.593471
0.592897
0.592321
0.591741
0.591158
0.590573
0.589984
0.589393
0.588798
0.5882
0.587599
0.586996
0.586389
0.58578
0.585169
0.584555
0.583938
0.58332
0.582699
0.582077
0.581453
0.580827
0.580199
0.57957
0.578939
0.578307
0.577673
0.577038
0.576402
0.575764
0.575126
0.574486
0.573844
0.573202
0.572558
0.571912
0.571266
0.570618
0.569969
0.569318
0.568666
0.568013
0.567358
0.566702
0.566044
0.565384
0.564723
0.564061
0.563396
0.56273
0.562062
0.561393
0.560722
0.560048
0.559374
0.558697
0.558018
0.557338
0.556656
0.555971
0.555285
0.554597
0.553907
0.553215
0.552521
0.551824
0.551126
0.550426
0.549723
0.549019
0.548312
0.547604
0.546893
0.54618
0.545464
0.544747
0.544027
0.543305
0.542581
0.541855
0.541126
0.540395
0.539662
0.538927
0.538189
0.537449
0.536706
0.535961
0.535214
0.534464
0.533712
0.532958
0.532201
0.531441
0.53068
0.529915
0.529149
0.528379
0.527607
0.526833
0.526056
0.525277
0.524495
0.52371
0.522923
0.522133
0.52134
0.520544
0.519746
0.518945
0.518141
0.517334
0.516524
0.515711
0.514895
0.514075
0.513253
0.512427
0.511598
0.510765
0.509928
0.509088
0.508245
0.507397
0.506546
0.505691
0.504832
0.503969
0.503101
0.50223
0.501355
0.500476
0.499592
0.498705
0.497813
0.496917
0.496018
0.495115
0.494209
0.493298
0.492385
0.491468
0.490548
0.489626
0.488701
0.487775
0.486846
0.485916
0.484985
0.484054
0.483122
0.482191
0.481262
0.480334
0.479408
0.478486
0.477568
0.476655
0.475749
0.474851
0.473961
0.473081
0.472214
0.47136
0.470522
0.469702
0.4689
0.468121
0.467365
0.466636
0.465935
0.465265
0.464627
0.464023
0.463455
0.462924
0.462431
0.461977
0.461562
0.461184
0.460845
0.46054
0.460272
0.460037
0.459833
0.459657
0.459507
0.459381
0.459276
0.45919
0.459121
0.459065
0.459019
0.458982
0.458949
0.458916
0.458878
0.458821
0.458729
0.458566
0.458276
0.457755
0.45682
0.455147
0.452172
0.446945
0.437945
0.422981
0.399525
0.366071
0.324542
0.28146
0.244714
0.218449
0.202016
0.192588
0.187449
0.184726
0.183305
0.182571
0.182193
0.181999
0.1819
0.181851
0.181826
0.181815
0.18181
0.181808
0.181808
0.18181
0.181811
0.181813
0.181815
0.181817
0.181819
0.181821
0.181822
0.181824
0.181826
0.181828
0.181829
0.181831
0.181833
0.181834
0.181836
0.181837
0.181838
0.181839
0.181841
0.181842
0.181843
0.181844
0.181845
0.181846
0.181846
0.181847
0.181848
0.181848
0.181849
0.181849
0.18185
0.18185
0.181851
0.181851
0.181851
0.181851
0.181851
0.181851
0.181851
0.181851
0.181851
0.181851
0.181851
0.181851
0.18185
0.18185
0.18185
0.181849
0.181849
0.181848
0.181848
0.181847
0.181847
0.181846
0.181845
0.181845
0.181844
0.181843
0.181842
0.181841
0.181841
0.18184
0.181839
0.181838
0.181836
0.181835
0.181834
0.181833
0.181832
0.181831
0.181829
0.181828
0.181826
0.181825
0.181823
0.181822
0.18182
0.181818
0.181816
0.181814
0.181812
0.18181
0.181807
0.181805
0.181802
0.181799
0.181796
0.181793
0.18179
0.181786
0.181783
0.181779
0.181774
0.18177
0.181765
0.18176
0.181755
0.18175
0.181744
0.181738
0.181732
0.181725
0.181718
0.181711
0.181704
0.181697
0.181689
0.181681
0.181673
0.181665
0.181657
0.181648
0.18164
0.181631
0.181623
0.181614
0.181606
0.181597
0.181589
0.181581
0.181573
0.181565
0.181558
0.181551
0.181544
0.181538
0.181532
0.181526
0.181521
0.181517
0.181513
0.181509
0.181507
0.181504
0.181503
0.181502
0.181502
0.181502
0.181502
0.181503
0.181504
0.181507
0.18151
0.181514
0.181518
0.181524
0.181527
0.181535
0.181539
0.181547
0.181551
0.181561
0.181565
0.181575
0.181579
0.18159
0.181594
0.181605
)
;

boundaryField
{
    inlet
    {
        type            calculated;
        value           uniform 0.805169;
    }
    outlet
    {
        type            calculated;
        value           uniform 0.181607;
    }
    emptyWalls
    {
        type            empty;
    }
}


// ************************************************************************* //
