/*--------------------------------*- C++ -*----------------------------------*\
  =========                 |
  \\      /  F ield         | OpenFOAM: The Open Source CFD Toolbox
   \\    /   O peration     | Website:  https://openfoam.org
    \\  /    A nd           | Version:  9
     \\/     M anipulation  |
\*---------------------------------------------------------------------------*/
FoamFile
{
    format      ascii;
    class       volScalarField;
    location    "4850";
    object      Sa;
}
// * * * * * * * * * * * * * * * * * * * * * * * * * * * * * * * * * * * * * //

dimensions      [0 0 0 0 0 0 0];

internalField   nonuniform List<scalar> 
1000
(
0.54756
0.540289
0.53525
0.52881
0.519113
0.488516
0.323059
0.10395
0.060437
0.0462656
0.0391042
0.0347475
0.0318751
0.0298418
0.0282407
0.02674
0.0252954
0.0243332
0.023995
0.0238353
0.0236671
0.0234965
0.0233269
0.02316
0.0229967
0.0228373
0.022682
0.0225309
0.0223838
0.0222408
0.0221017
0.0219664
0.0218347
0.0217066
0.0215818
0.0214604
0.021342
0.0212266
0.0211141
0.0210044
0.0208974
0.0207929
0.0206908
0.0205912
0.0204938
0.0203985
0.0203053
0.0202139
0.0201243
0.0200364
0.0199501
0.0198654
0.0197821
0.0197001
0.0196195
0.0195402
0.0194623
0.0193857
0.0193107
0.0192371
0.019165
0.0190943
0.0190248
0.0189564
0.0188889
0.0188224
0.018757
0.0186926
0.0186297
0.0185682
0.0185088
0.0184514
0.0183963
0.0183433
0.0182926
0.0182439
0.0181972
0.0181519
0.018108
0.0180649
0.0180223
0.0179797
0.0179368
0.0178931
0.0178481
0.0178014
0.0177526
0.0177014
0.0176475
0.0175909
0.0175316
0.0174697
0.0174055
0.0173397
0.0172726
0.017205
0.0171375
0.0170709
0.0170056
0.0169422
0.0168811
0.0168225
0.0167666
0.0167134
0.0166628
0.0166146
0.0165685
0.0165245
0.0164819
0.0164409
0.0164006
0.0163615
0.0163225
0.0162844
0.0162458
0.0162081
0.0161695
0.0161318
0.0160929
0.0160551
0.016016
0.0159778
0.0159388
0.0159001
0.0158613
0.0158225
0.015784
0.0157451
0.0157067
0.0156682
0.0156299
0.0155918
0.0155537
0.0155161
0.0154783
0.0154408
0.0154035
0.0153663
0.0153293
0.0152924
0.0152557
0.0152191
0.0151826
0.0151464
0.0151102
0.0150742
0.0150383
0.0150025
0.0149669
0.0149313
0.0148959
0.0148607
0.0148254
0.0147904
0.0147555
0.0147206
0.014686
0.0146512
0.0146169
0.0145824
0.0145482
0.0145142
0.0144801
0.0144464
0.0144125
0.014379
0.0143454
0.014312
0.0142789
0.0142457
0.0142128
0.0141799
0.0141473
0.0141149
0.0140826
0.0140507
0.014019
0.0139879
0.0139572
0.0139272
0.0138981
0.0138699
0.0138429
0.0138172
0.0137926
0.013769
0.0137454
0.0137204
0.013691
0.013652
0.0135958
0.0135108
0.013385
0.0132136
0.0130114
0.0128174
0.0126705
0.0125812
0.0125351
0.012513
0.0125026
0.0124976
0.0124951
0.0124939
0.0124933
0.0124931
0.012493
0.012493
0.0124931
0.0124932
0.0124934
0.0124936
0.0124938
0.0124942
0.0124945
0.0124949
0.0124953
0.0124959
0.0124964
0.012497
0.0124977
0.0124984
0.0124992
0.0125
0.0125009
0.0125019
0.0125029
0.0125039
0.012505
0.0125062
0.0125074
0.0125087
0.01251
0.0125114
0.0125128
0.0125143
0.0125158
0.0125173
0.0125189
0.0125205
0.0125221
0.0125238
0.0125255
0.0125273
0.0125291
0.012531
0.012533
0.0125351
0.0125373
0.0125397
0.0125422
0.0125449
0.0125478
0.0125509
0.0125542
0.0125578
0.0125617
0.0125658
0.0125701
0.0125748
0.0125796
0.0125848
0.0125901
0.0125956
0.0126012
0.0126069
0.0126127
0.0126185
0.0126242
0.0126299
0.0126353
0.0126405
0.0126452
0.0126496
0.0126535
0.0126567
0.0126593
0.012661
0.012662
0.0126623
0.0126623
0.012662
0.0126608
0.0126577
0.0126536
0.0126487
0.0126431
0.0126368
0.01263
0.0126227
0.0126151
0.0126072
0.0125993
0.0125913
0.0125835
0.012576
0.0125688
0.012562
0.0125557
0.01255
0.0125448
0.0125403
0.0125363
0.012533
0.0125302
0.012528
0.0125262
0.012525
0.0125241
0.0125236
0.0125234
0.0125234
0.0125234
0.0125236
0.0125242
0.0125249
0.0125257
0.0125264
0.0125272
0.0125278
0.0125285
0.012529
0.0125294
0.0125298
0.01253
0.0125302
0.0125302
0.0125302
0.0125302
0.0125301
0.0125298
0.0125295
0.012529
0.0125285
0.012528
0.0125274
0.0125268
0.0125261
0.0125254
0.0125247
0.012524
0.0125233
0.0125225
0.0125218
0.012521
0.0125203
0.0125195
0.0125188
0.012518
0.0125173
0.0125165
0.0125158
0.0125151
0.0125143
0.0125136
0.0125129
0.0125122
0.0125114
0.0125107
0.01251
0.0125093
0.0125086
0.0125079
0.0125072
0.0125064
0.0125057
0.012505
0.0125043
0.0125036
0.0125029
0.0125022
0.0125015
0.0125008
0.0125001
0.0124994
0.0124987
0.012498
0.0124974
0.0124967
0.0124961
0.0124955
0.0124949
0.0124943
0.0124937
0.0124932
0.0124926
0.0124921
0.0124917
0.0124912
0.0124908
0.0124904
0.0124901
0.0124898
0.0124895
0.0124893
0.0124891
0.0124889
0.0124888
0.0124886
0.0124886
0.0124886
0.0124885
0.0124885
0.0124886
0.0124886
0.0124887
0.0124889
0.0124891
0.0124893
0.0124895
0.0124897
0.0124899
0.0124902
0.0124905
0.0124907
0.012491
0.0124913
0.0124916
0.0124919
0.0124922
0.0124925
0.0124927
0.012493
0.0124933
0.0124936
0.0124938
0.0124941
0.0124943
0.0124946
0.0124949
0.0124952
0.0124955
0.0124958
0.0124961
0.0124965
0.0124969
0.0124973
0.0124978
0.0124983
0.0124989
0.0124995
0.0125002
0.012501
0.0125018
0.0125027
0.0125036
0.0125047
0.0125058
0.012507
0.0125083
0.0125097
0.0125112
0.0125128
0.0125145
0.0125163
0.0125181
0.0125201
0.0125222
0.0125245
0.0125269
0.0125294
0.012532
0.0125349
0.0125378
0.012541
0.0125442
0.0125477
0.0125513
0.0125551
0.0125591
0.0125632
0.0125675
0.0125719
0.0125765
0.0125811
0.0125859
0.0125907
0.0125955
0.0126003
0.0126051
0.0126099
0.0126144
0.0126189
0.0126231
0.0126271
0.0126308
0.0126341
0.012637
0.0126394
0.0126414
0.0126428
0.0126436
0.0126438
0.0126438
0.0126437
0.0126429
0.0126407
0.0126378
0.0126342
0.0126301
0.0126254
0.0126202
0.0126146
0.0126087
0.0126025
0.0125961
0.0125897
0.0125832
0.0125768
0.0125706
0.0125645
0.0125588
0.0125533
0.0125482
0.0125435
0.0125393
0.0125354
0.012532
0.0125291
0.0125265
0.0125243
0.0125225
0.0125211
0.01252
0.0125192
0.0125186
0.0125183
0.0125181
0.0125181
0.0125181
0.0125182
0.0125186
0.012519
0.0125195
0.0125199
0.0125204
0.0125208
0.0125212
0.0125216
0.0125219
0.0125222
0.0125224
0.0125225
0.0125226
0.0125226
0.0125226
0.0125226
0.0125226
0.0125224
0.0125222
0.012522
0.0125217
0.0125214
0.0125211
0.0125208
0.0125205
0.0125202
0.0125199
0.0125196
0.0125192
0.0125189
0.0125186
0.0125183
0.012518
0.0125178
0.0125175
0.0125172
0.012517
0.0125168
0.0125166
0.0125163
0.0125161
0.0125159
0.0125157
0.0125155
0.0125154
0.0125152
0.012515
0.0125148
0.0125146
0.0125144
0.0125142
0.0125139
0.0125137
0.0125134
0.0125132
0.0125129
0.0125126
0.0125123
0.0125119
0.0125116
0.0125112
0.0125108
0.0125103
0.0125099
0.0125094
0.0125089
0.0125084
0.0125079
0.0125073
0.0125067
0.0125061
0.0125055
0.0125049
0.0125043
0.0125037
0.012503
0.0125024
0.0125017
0.0125011
0.0125005
0.0124999
0.0124993
0.0124987
0.0124981
0.0124975
0.012497
0.0124965
0.0124961
0.0124956
0.0124953
0.0124949
0.0124946
0.0124943
0.0124941
0.0124939
0.0124938
0.0124937
0.0124937
0.0124937
0.0124937
0.0124937
0.0124938
0.0124941
0.0124943
0.0124946
0.0124949
0.0124953
0.0124957
0.0124962
0.0124966
0.0124972
0.0124977
0.0124983
0.0124989
0.0124995
0.0125001
0.0125008
0.0125014
0.0125021
0.0125028
0.0125035
0.0125042
0.012505
0.0125057
0.0125065
0.0125072
0.012508
0.0125088
0.0125097
0.0125105
0.0125114
0.0125123
0.0125133
0.0125143
0.0125154
0.0125166
0.0125178
0.0125191
0.0125206
0.0125221
0.0125238
0.0125255
0.0125275
0.0125296
0.0125318
0.0125342
0.0125368
0.0125395
0.0125424
0.0125455
0.0125488
0.0125523
0.012556
0.0125597
0.0125637
0.0125678
0.0125721
0.0125765
0.0125809
0.0125855
0.0125901
0.0125947
0.0125993
0.0126039
0.0126084
0.0126128
0.0126171
0.0126211
0.012625
0.0126286
0.0126319
0.0126348
0.0126374
0.0126395
0.0126412
0.0126423
0.012643
0.0126432
0.0126431
0.0126429
0.0126422
0.01264
0.0126374
0.0126341
0.0126304
0.0126261
0.0126214
0.0126164
0.012611
0.0126053
0.0125994
0.0125933
0.0125872
0.0125811
0.0125751
0.0125692
0.0125634
0.0125579
0.0125526
0.0125477
0.012543
0.0125387
0.0125348
0.0125313
0.0125281
0.0125252
0.0125227
0.0125206
0.0125188
0.0125172
0.012516
0.012515
0.0125142
0.0125136
0.0125132
0.012513
0.0125129
0.0125129
0.0125129
0.0125129
0.0125131
0.0125134
0.0125137
0.012514
0.0125142
0.0125145
0.0125147
0.0125149
0.012515
0.0125151
0.0125151
0.0125151
0.0125151
0.012515
0.0125149
0.0125146
0.0125145
0.012514
0.0125138
0.0125132
0.0125129
0.0125123
0.0125119
0.0125112
0.0125108
0.0125101
0.0125097
0.0125089
0.0125084
0.0125076
0.0125072
0.0125064
0.0125059
0.0125051
0.0125048
0.0125039
0.0125035
0.0125028
0.0125024
0.0125016
0.0125014
0.0125004
0.0124989
0.0124794
0.0124189
0.0116859
0.00736255
0.000731417
3.99437e-06
3.4888e-11
6.26586e-22
5.43157e-45
1.9408e-93
5.31178e-196
0
0
0
0
0
0
0
0
0
0
0
0
0
0
0
0
0
0
0
0
0
0
0
0
0
0
0
0
0
0
0
0
0
0
0
0
0
0
0
0
0
0
0
0
0
0
0
0
0
0
0
0
0
0
0
0
0
0
0
0
0
0
0
0
0
0
0
0
0
0
0
0
0
0
0
0
0
0
0
0
0
0
0
0
0
0
0
0
0
0
0
0
0
0
0
0
0
0
0
0
0
0
0
0
0
0
0
0
0
0
0
0
0
0
0
0
0
0
0
0
0
0
0
0
0
0
0
0
0
0
0
0
0
0
0
0
0
0
0
0
0
0
0
0
0
0
0
0
0
0
0
0
0
0
0
0
0
0
0
0
0
0
0
0
0
0
0
0
0
0
0
0
0
0
0
0
0
0
0
0
0
0
0
0
0
0
0
0
0
0
0
0
0
0
0
)
;

boundaryField
{
    inlet
    {
        type            fixedValue;
        value           uniform 0.55;
    }
    outlet
    {
        type            zeroGradient;
    }
    emptyWalls
    {
        type            empty;
    }
}


// ************************************************************************* //
