/*--------------------------------*- C++ -*----------------------------------*\
  =========                 |
  \\      /  F ield         | OpenFOAM: The Open Source CFD Toolbox
   \\    /   O peration     | Website:  https://openfoam.org
    \\  /    A nd           | Version:  9
     \\/     M anipulation  |
\*---------------------------------------------------------------------------*/
FoamFile
{
    format      ascii;
    class       volScalarField;
    location    "1400";
    object      kra;
}
// * * * * * * * * * * * * * * * * * * * * * * * * * * * * * * * * * * * * * //

dimensions      [0 0 0 0 0 0 0];

internalField   nonuniform List<scalar> 
100
(
3.92655e-05
2.84748e-05
3.07478e-05
2.9243e-05
2.91701e-05
2.86811e-05
2.83773e-05
2.80378e-05
2.7722e-05
2.73906e-05
2.74304e-05
2.75472e-05
2.76234e-05
2.77011e-05
2.77683e-05
2.78298e-05
2.7885e-05
2.79346e-05
2.7979e-05
2.80186e-05
2.80536e-05
2.80842e-05
2.81106e-05
2.81328e-05
2.81509e-05
2.81649e-05
2.81747e-05
2.81804e-05
2.81818e-05
2.81788e-05
2.81712e-05
2.81587e-05
2.81408e-05
2.8117e-05
2.80866e-05
2.80482e-05
2.80002e-05
2.79397e-05
2.78623e-05
2.77601e-05
2.76179e-05
2.74038e-05
2.70384e-05
2.62761e-05
2.40957e-05
1.60741e-05
2.96809e-06
1.28199e-08
3.21753e-14
3.99466e-26
2.95452e-35
2.78706e-35
2.78686e-35
3.03935e-35
2.78632e-35
2.95241e-35
2.7768e-35
2.69819e-35
2.19602e-35
5.30528e-36
1.35872e-36
1.21667e-36
1.17779e-36
1.11099e-36
1.11099e-36
1.31689e-36
1.21174e-36
1.28135e-36
1.11099e-36
1.11099e-36
1.21174e-36
1.28135e-36
1.21174e-36
1.31689e-36
1.28135e-36
1.31689e-36
1.21174e-36
1.21174e-36
1.21174e-36
1.28135e-36
1.11099e-36
1.31689e-36
1.21174e-36
1.21174e-36
1.28135e-36
1.07838e-36
1.31689e-36
1.21174e-36
1.28135e-36
1.31689e-36
1.28135e-36
1.31689e-36
1.21174e-36
1.28135e-36
1.31689e-36
1.11099e-36
1.28135e-36
1.31689e-36
1.28135e-36
1.31689e-36
)
;

boundaryField
{
    inlet
    {
        type            calculated;
        value           uniform 1.09691e-05;
    }
    outlet
    {
        type            calculated;
        value           uniform 4.72742e-37;
    }
    emptyWalls
    {
        type            empty;
    }
}


// ************************************************************************* //
