/*--------------------------------*- C++ -*----------------------------------*\
  =========                 |
  \\      /  F ield         | OpenFOAM: The Open Source CFD Toolbox
   \\    /   O peration     | Website:  https://openfoam.org
    \\  /    A nd           | Version:  9
     \\/     M anipulation  |
\*---------------------------------------------------------------------------*/
FoamFile
{
    format      ascii;
    class       volScalarField;
    location    "1400";
    object      p;
}
// * * * * * * * * * * * * * * * * * * * * * * * * * * * * * * * * * * * * * //

dimensions      [0 0 0 0 0 0 0];

internalField   nonuniform List<scalar> 
100
(
5.5234e+06
5.51514e+06
5.50376e+06
5.49324e+06
5.4822e+06
5.47115e+06
5.45994e+06
5.44864e+06
5.43724e+06
5.42573e+06
5.41412e+06
5.40258e+06
5.39112e+06
5.37973e+06
5.36842e+06
5.35718e+06
5.34601e+06
5.33491e+06
5.32387e+06
5.3129e+06
5.30199e+06
5.29114e+06
5.28036e+06
5.26964e+06
5.25898e+06
5.24839e+06
5.23785e+06
5.22739e+06
5.21698e+06
5.20664e+06
5.19636e+06
5.18615e+06
5.17601e+06
5.16593e+06
5.15593e+06
5.14601e+06
5.13617e+06
5.12641e+06
5.11676e+06
5.10721e+06
5.09779e+06
5.08853e+06
5.07949e+06
5.07077e+06
5.06259e+06
5.05552e+06
5.0508e+06
5.04827e+06
5.04625e+06
5.04424e+06
5.04224e+06
5.04024e+06
5.03823e+06
5.03623e+06
5.03423e+06
5.03223e+06
5.03022e+06
5.02822e+06
5.02622e+06
5.02428e+06
5.02303e+06
5.02239e+06
5.02181e+06
5.02123e+06
5.02065e+06
5.02007e+06
5.01949e+06
5.0189e+06
5.01832e+06
5.01774e+06
5.01716e+06
5.01658e+06
5.016e+06
5.01541e+06
5.01483e+06
5.01425e+06
5.01367e+06
5.01309e+06
5.01251e+06
5.01192e+06
5.01134e+06
5.01076e+06
5.01018e+06
5.0096e+06
5.00902e+06
5.00843e+06
5.00785e+06
5.00727e+06
5.00669e+06
5.00611e+06
5.00553e+06
5.00494e+06
5.00436e+06
5.00378e+06
5.0032e+06
5.00262e+06
5.00204e+06
5.00145e+06
5.00087e+06
5.00029e+06
)
;

boundaryField
{
    inlet
    {
        type            darcyGradPressure;
        gradient        uniform 4.16408e+06;
        Mf              Mf;
        phi             phi;
        value           uniform 5.53173e+06;
    }
    outlet
    {
        type            fixedValue;
        value           uniform 5e+06;
    }
    emptyWalls
    {
        type            empty;
    }
}


// ************************************************************************* //
