/*--------------------------------*- C++ -*----------------------------------*\
  =========                 |
  \\      /  F ield         | OpenFOAM: The Open Source CFD Toolbox
   \\    /   O peration     | Website:  https://openfoam.org
    \\  /    A nd           | Version:  9
     \\/     M anipulation  |
\*---------------------------------------------------------------------------*/
FoamFile
{
    format      ascii;
    class       surfaceScalarField;
    location    "1400";
    object      phia;
}
// * * * * * * * * * * * * * * * * * * * * * * * * * * * * * * * * * * * * * //

dimensions      [0 2 0 0 0 0 0];

internalField   nonuniform List<scalar> 
99
(
1.41908e-08
1.41675e-08
1.41415e-08
1.41138e-08
1.40842e-08
1.40528e-08
1.40193e-08
1.39834e-08
1.39439e-08
1.38989e-08
1.38464e-08
1.37982e-08
1.37479e-08
1.36972e-08
1.3645e-08
1.35916e-08
1.35366e-08
1.34801e-08
1.34221e-08
1.33625e-08
1.33013e-08
1.32384e-08
1.31738e-08
1.31074e-08
1.30389e-08
1.29683e-08
1.28954e-08
1.28199e-08
1.27416e-08
1.26601e-08
1.25751e-08
1.24858e-08
1.23917e-08
1.22918e-08
1.21846e-08
1.20685e-08
1.19405e-08
1.17966e-08
1.16302e-08
1.14305e-08
1.11776e-08
1.0833e-08
1.03118e-08
9.39565e-09
7.44068e-09
3.32163e-09
3.27371e-10
1.13633e-12
2.81717e-18
3.49751e-30
2.58682e-39
2.44019e-39
2.43999e-39
2.66104e-39
2.43949e-39
2.58483e-39
2.43051e-39
2.35624e-39
1.86237e-39
2.91939e-40
3.74728e-41
3.1009e-41
2.99504e-41
2.82502e-41
2.825e-41
3.34858e-41
3.0812e-41
3.25821e-41
2.825e-41
2.825e-41
3.0812e-41
3.25821e-41
3.0812e-41
3.34858e-41
3.25821e-41
3.34858e-41
3.0812e-41
3.0812e-41
3.0812e-41
3.25821e-41
2.825e-41
3.34858e-41
3.0812e-41
3.0812e-41
3.25821e-41
2.74209e-41
3.34858e-41
3.0812e-41
3.25821e-41
3.34858e-41
3.25821e-41
3.34858e-41
3.0812e-41
3.25821e-41
3.34858e-41
2.825e-41
3.25821e-41
3.34858e-41
3.25821e-41
)
;

boundaryField
{
    inlet
    {
        type            calculated;
        value           uniform -1.42126e-08;
    }
    outlet
    {
        type            calculated;
        value           uniform 1.20208e-41;
    }
    emptyWalls
    {
        type            empty;
        value           nonuniform List<scalar> 0();
    }
}


// ************************************************************************* //
