/*--------------------------------*- C++ -*----------------------------------*\
  =========                 |
  \\      /  F ield         | OpenFOAM: The Open Source CFD Toolbox
   \\    /   O peration     | Website:  https://openfoam.org
    \\  /    A nd           | Version:  9
     \\/     M anipulation  |
\*---------------------------------------------------------------------------*/
FoamFile
{
    format      ascii;
    class       surfaceScalarField;
    location    "1400";
    object      phib;
}
// * * * * * * * * * * * * * * * * * * * * * * * * * * * * * * * * * * * * * //

dimensions      [0 2 0 0 0 0 0];

internalField   nonuniform List<scalar> 
99
(
6.09031e-09
6.0893e-09
6.08817e-09
6.087e-09
6.08573e-09
6.0844e-09
6.08298e-09
6.08146e-09
6.07979e-09
6.07788e-09
6.08076e-09
6.08184e-09
6.08375e-09
6.08552e-09
6.08757e-09
6.08979e-09
6.09223e-09
6.09484e-09
6.09761e-09
6.10048e-09
6.10344e-09
6.10648e-09
6.10959e-09
6.11281e-09
6.11615e-09
6.11965e-09
6.12333e-09
6.12724e-09
6.1314e-09
6.13586e-09
6.14065e-09
6.14584e-09
6.15149e-09
6.15771e-09
6.16463e-09
6.17242e-09
6.18136e-09
6.19186e-09
6.20462e-09
6.22084e-09
6.24284e-09
6.27565e-09
6.33207e-09
6.45361e-09
6.81964e-09
7.99474e-09
9.07074e-09
9.19659e-09
9.19765e-09
9.19786e-09
9.1981e-09
9.19843e-09
9.19883e-09
9.19928e-09
9.19989e-09
9.20201e-09
9.21867e-09
9.37675e-09
1.08606e-08
1.77837e-08
2.0018e-08
2.00923e-08
2.00942e-08
2.00942e-08
2.00942e-08
2.00942e-08
2.00942e-08
2.00942e-08
2.00942e-08
2.00942e-08
2.00942e-08
2.00942e-08
2.00942e-08
2.00942e-08
2.00942e-08
2.00942e-08
2.00942e-08
2.00942e-08
2.00942e-08
2.00942e-08
2.00942e-08
2.00942e-08
2.00942e-08
2.00942e-08
2.00942e-08
2.00942e-08
2.00942e-08
2.00942e-08
2.00942e-08
2.00942e-08
2.00942e-08
2.00942e-08
2.00942e-08
2.00942e-08
2.00942e-08
2.00942e-08
2.00942e-08
2.00942e-08
2.00942e-08
)
;

boundaryField
{
    inlet
    {
        type            calculated;
        value           uniform -6.09112e-09;
    }
    outlet
    {
        type            calculated;
        value           uniform 2.00942e-08;
    }
    emptyWalls
    {
        type            empty;
        value           nonuniform List<scalar> 0();
    }
}


// ************************************************************************* //
