/*--------------------------------*- C++ -*----------------------------------*\
  =========                 |
  \\      /  F ield         | OpenFOAM: The Open Source CFD Toolbox
   \\    /   O peration     | Website:  https://openfoam.org
    \\  /    A nd           | Version:  9
     \\/     M anipulation  |
\*---------------------------------------------------------------------------*/
FoamFile
{
    format      ascii;
    class       surfaceScalarField;
    location    "1400";
    object      phic;
}
// * * * * * * * * * * * * * * * * * * * * * * * * * * * * * * * * * * * * * //

dimensions      [0 2 0 0 0 0 0];

internalField   nonuniform List<scalar> 
99
(
2.26008e-11
4.68845e-11
7.4021e-11
1.02965e-10
1.33822e-10
1.66557e-10
2.01417e-10
2.38901e-10
2.80037e-10
3.26947e-10
3.76539e-10
4.23652e-10
4.72088e-10
5.21019e-10
5.71144e-10
6.22393e-10
6.74933e-10
7.288e-10
7.84067e-10
8.40788e-10
8.99024e-10
9.58845e-10
1.02033e-09
1.08356e-09
1.14866e-09
1.21575e-09
1.28498e-09
1.35656e-09
1.43071e-09
1.50774e-09
1.58803e-09
1.67208e-09
1.76053e-09
1.85427e-09
1.95448e-09
2.06286e-09
2.18189e-09
2.31527e-09
2.46887e-09
2.65244e-09
2.88332e-09
3.19504e-09
3.65982e-09
4.45447e-09
6.04342e-09
8.98737e-09
1.09056e-08
1.1106e-08
1.11061e-08
1.11059e-08
1.11056e-08
1.11053e-08
1.11049e-08
1.11045e-08
1.11038e-08
1.11017e-08
1.10851e-08
1.0927e-08
9.44314e-09
2.52001e-09
2.85722e-10
2.11402e-10
2.09537e-10
2.09491e-10
2.0949e-10
2.0949e-10
2.0949e-10
2.0949e-10
2.0949e-10
2.0949e-10
2.0949e-10
2.0949e-10
2.0949e-10
2.0949e-10
2.0949e-10
2.0949e-10
2.0949e-10
2.0949e-10
2.0949e-10
2.0949e-10
2.0949e-10
2.0949e-10
2.0949e-10
2.0949e-10
2.0949e-10
2.0949e-10
2.0949e-10
2.0949e-10
2.0949e-10
2.0949e-10
2.0949e-10
2.0949e-10
2.0949e-10
2.0949e-10
2.0949e-10
2.0949e-10
2.0949e-10
2.0949e-10
2.0949e-10
)
;

boundaryField
{
    inlet
    {
        type            calculated;
        value           uniform 0;
    }
    outlet
    {
        type            calculated;
        value           uniform 2.0949e-10;
    }
    emptyWalls
    {
        type            empty;
        value           nonuniform List<scalar> 0();
    }
}


// ************************************************************************* //
