/*--------------------------------*- C++ -*----------------------------------*\
  =========                 |
  \\      /  F ield         | OpenFOAM: The Open Source CFD Toolbox
   \\    /   O peration     | Website:  https://openfoam.org
    \\  /    A nd           | Version:  9
     \\/     M anipulation  |
\*---------------------------------------------------------------------------*/
FoamFile
{
    format      ascii;
    class       volVectorField;
    location    "1400";
    object      Ua;
}
// * * * * * * * * * * * * * * * * * * * * * * * * * * * * * * * * * * * * * //

dimensions      [0 0 0 0 0 0 0];

internalField   nonuniform List<vector> 
100
(
(0 0 8.82442e-06)
(0 0 1.12834e-05)
(0 0 1.12638e-05)
(0 0 1.12424e-05)
(0 0 1.12196e-05)
(0 0 1.11953e-05)
(0 0 1.11695e-05)
(0 0 1.11419e-05)
(0 0 1.11119e-05)
(0 0 1.10783e-05)
(0 0 1.10395e-05)
(0 0 1.09995e-05)
(0 0 1.09603e-05)
(0 0 1.09201e-05)
(0 0 1.08791e-05)
(0 0 1.08371e-05)
(0 0 1.07939e-05)
(0 0 1.07496e-05)
(0 0 1.0704e-05)
(0 0 1.06572e-05)
(0 0 1.06092e-05)
(0 0 1.05598e-05)
(0 0 1.05091e-05)
(0 0 1.04569e-05)
(0 0 1.04033e-05)
(0 0 1.0348e-05)
(0 0 1.02909e-05)
(0 0 1.02318e-05)
(0 0 1.01706e-05)
(0 0 1.0107e-05)
(0 0 1.00408e-05)
(0 0 9.9714e-06)
(0 0 9.89845e-06)
(0 0 9.82124e-06)
(0 0 9.73885e-06)
(0 0 9.65e-06)
(0 0 9.55286e-06)
(0 0 9.44469e-06)
(0 0 9.32125e-06)
(0 0 9.17556e-06)
(0 0 8.99545e-06)
(0 0 8.75775e-06)
(0 0 8.41328e-06)
(0 0 7.84136e-06)
(0 0 6.69896e-06)
(0 0 4.28219e-06)
(0 0 1.45189e-06)
(0 0 1.30709e-07)
(0 0 4.52134e-10)
(0 0 1.12091e-15)
(0 0 1.39162e-27)
(0 0 2.00018e-36)
(0 0 1.94176e-36)
(0 0 2.02964e-36)
(0 0 2.02944e-36)
(0 0 1.99911e-36)
(0 0 1.99554e-36)
(0 0 1.90459e-36)
(0 0 1.67853e-36)
(0 0 8.57173e-37)
(0 0 1.31069e-37)
(0 0 2.7248e-38)
(0 0 2.4255e-38)
(0 0 2.31572e-38)
(0 0 2.24807e-38)
(0 0 2.45639e-38)
(0 0 2.55833e-38)
(0 0 2.52237e-38)
(0 0 2.42043e-38)
(0 0 2.24807e-38)
(0 0 2.35e-38)
(0 0 2.52237e-38)
(0 0 2.52237e-38)
(0 0 2.55833e-38)
(0 0 2.62876e-38)
(0 0 2.62876e-38)
(0 0 2.55833e-38)
(0 0 2.45194e-38)
(0 0 2.45194e-38)
(0 0 2.52237e-38)
(0 0 2.42043e-38)
(0 0 2.45639e-38)
(0 0 2.55833e-38)
(0 0 2.45194e-38)
(0 0 2.52237e-38)
(0 0 2.38744e-38)
(0 0 2.4234e-38)
(0 0 2.55833e-38)
(0 0 2.52237e-38)
(0 0 2.62876e-38)
(0 0 2.62876e-38)
(0 0 2.62876e-38)
(0 0 2.55833e-38)
(0 0 2.52237e-38)
(0 0 2.62876e-38)
(0 0 2.45639e-38)
(0 0 2.42043e-38)
(0 0 2.62876e-38)
(0 0 2.62876e-38)
(0 0 1.77469e-38)
)
;

boundaryField
{
    inlet
    {
        type            fixedValue;
        value           uniform (0 0 1.131e-05);
    }
    outlet
    {
        type            zeroGradient;
    }
    emptyWalls
    {
        type            empty;
    }
}


// ************************************************************************* //
