/*--------------------------------*- C++ -*----------------------------------*\
  =========                 |
  \\      /  F ield         | OpenFOAM: The Open Source CFD Toolbox
   \\    /   O peration     | Website:  https://openfoam.org
    \\  /    A nd           | Version:  9
     \\/     M anipulation  |
\*---------------------------------------------------------------------------*/
FoamFile
{
    format      ascii;
    class       volVectorField;
    location    "1400";
    object      Ub;
}
// * * * * * * * * * * * * * * * * * * * * * * * * * * * * * * * * * * * * * //

dimensions      [0 0 0 0 0 0 0];

internalField   nonuniform List<vector> 
100
(
(0 0 7.30567e-06)
(0 0 4.84612e-06)
(0 0 4.84526e-06)
(0 0 4.84435e-06)
(0 0 4.84337e-06)
(0 0 4.84234e-06)
(0 0 4.84124e-06)
(0 0 4.84008e-06)
(0 0 4.83881e-06)
(0 0 4.83738e-06)
(0 0 4.83777e-06)
(0 0 4.83935e-06)
(0 0 4.84054e-06)
(0 0 4.842e-06)
(0 0 4.84352e-06)
(0 0 4.84522e-06)
(0 0 4.84707e-06)
(0 0 4.84908e-06)
(0 0 4.85122e-06)
(0 0 4.85347e-06)
(0 0 4.85579e-06)
(0 0 4.85817e-06)
(0 0 4.86062e-06)
(0 0 4.86314e-06)
(0 0 4.86575e-06)
(0 0 4.86847e-06)
(0 0 4.87133e-06)
(0 0 4.87435e-06)
(0 0 4.87756e-06)
(0 0 4.88099e-06)
(0 0 4.88467e-06)
(0 0 4.88864e-06)
(0 0 4.89295e-06)
(0 0 4.89768e-06)
(0 0 4.9029e-06)
(0 0 4.90875e-06)
(0 0 4.91541e-06)
(0 0 4.92315e-06)
(0 0 4.9324e-06)
(0 0 4.94393e-06)
(0 0 4.95914e-06)
(0 0 4.98095e-06)
(0 0 5.01645e-06)
(0 0 5.08726e-06)
(0 0 5.28126e-06)
(0 0 5.89446e-06)
(0 0 6.79014e-06)
(0 0 7.26834e-06)
(0 0 7.31884e-06)
(0 0 7.31934e-06)
(0 0 7.31952e-06)
(0 0 7.31975e-06)
(0 0 7.32004e-06)
(0 0 7.32037e-06)
(0 0 7.32079e-06)
(0 0 7.32188e-06)
(0 0 7.32935e-06)
(0 0 7.39888e-06)
(0 0 8.05219e-06)
(0 0 1.13972e-05)
(0 0 1.50408e-05)
(0 0 1.59594e-05)
(0 0 1.59897e-05)
(0 0 1.59905e-05)
(0 0 1.59905e-05)
(0 0 1.59905e-05)
(0 0 1.59905e-05)
(0 0 1.59905e-05)
(0 0 1.59905e-05)
(0 0 1.59905e-05)
(0 0 1.59905e-05)
(0 0 1.59905e-05)
(0 0 1.59905e-05)
(0 0 1.59905e-05)
(0 0 1.59905e-05)
(0 0 1.59905e-05)
(0 0 1.59905e-05)
(0 0 1.59905e-05)
(0 0 1.59905e-05)
(0 0 1.59905e-05)
(0 0 1.59905e-05)
(0 0 1.59905e-05)
(0 0 1.59905e-05)
(0 0 1.59905e-05)
(0 0 1.59905e-05)
(0 0 1.59905e-05)
(0 0 1.59905e-05)
(0 0 1.59905e-05)
(0 0 1.59905e-05)
(0 0 1.59905e-05)
(0 0 1.59905e-05)
(0 0 1.59905e-05)
(0 0 1.59905e-05)
(0 0 1.59905e-05)
(0 0 1.59905e-05)
(0 0 1.59905e-05)
(0 0 1.59905e-05)
(0 0 1.59905e-05)
(0 0 1.59905e-05)
(0 0 1.59905e-05)
)
;

boundaryField
{
    inlet
    {
        type            fixedValue;
        value           uniform (0 0 4.84716e-06);
    }
    outlet
    {
        type            zeroGradient;
    }
    emptyWalls
    {
        type            empty;
    }
}


// ************************************************************************* //
