/*--------------------------------*- C++ -*----------------------------------*\
  =========                 |
  \\      /  F ield         | OpenFOAM: The Open Source CFD Toolbox
   \\    /   O peration     | Website:  https://openfoam.org
    \\  /    A nd           | Version:  9
     \\/     M anipulation  |
\*---------------------------------------------------------------------------*/
FoamFile
{
    format      ascii;
    class       volVectorField;
    location    "1400";
    object      Uc;
}
// * * * * * * * * * * * * * * * * * * * * * * * * * * * * * * * * * * * * * //

dimensions      [0 0 0 0 0 0 0];

internalField   nonuniform List<vector> 
100
(
(0 0 2.7111e-08)
(0 0 2.76473e-08)
(0 0 4.81067e-08)
(0 0 7.04206e-08)
(0 0 9.42148e-08)
(0 0 1.19517e-07)
(0 0 1.46412e-07)
(0 0 1.75197e-07)
(0 0 2.06479e-07)
(0 0 2.41511e-07)
(0 0 2.79908e-07)
(0 0 3.18386e-07)
(0 0 3.56404e-07)
(0 0 3.95145e-07)
(0 0 4.34558e-07)
(0 0 4.74893e-07)
(0 0 5.16189e-07)
(0 0 5.58528e-07)
(0 0 6.01951e-07)
(0 0 6.46509e-07)
(0 0 6.92249e-07)
(0 0 7.39223e-07)
(0 0 7.87488e-07)
(0 0 8.37112e-07)
(0 0 8.88174e-07)
(0 0 9.40768e-07)
(0 0 9.95008e-07)
(0 0 1.05103e-06)
(0 0 1.10902e-06)
(0 0 1.16917e-06)
(0 0 1.23177e-06)
(0 0 1.29716e-06)
(0 0 1.36579e-06)
(0 0 1.43828e-06)
(0 0 1.51545e-06)
(0 0 1.59845e-06)
(0 0 1.68893e-06)
(0 0 1.78936e-06)
(0 0 1.90355e-06)
(0 0 2.03771e-06)
(0 0 2.20261e-06)
(0 0 2.4185e-06)
(0 0 2.72746e-06)
(0 0 3.22857e-06)
(0 0 4.17698e-06)
(0 0 5.98056e-06)
(0 0 7.91517e-06)
(0 0 8.75815e-06)
(0 0 8.83791e-06)
(0 0 8.83786e-06)
(0 0 8.83768e-06)
(0 0 8.83745e-06)
(0 0 8.83716e-06)
(0 0 8.83683e-06)
(0 0 8.83641e-06)
(0 0 8.83532e-06)
(0 0 8.82785e-06)
(0 0 8.75832e-06)
(0 0 8.10501e-06)
(0 0 4.75999e-06)
(0 0 1.11637e-06)
(0 0 1.97799e-07)
(0 0 1.67486e-07)
(0 0 1.66726e-07)
(0 0 1.66707e-07)
(0 0 1.66707e-07)
(0 0 1.66707e-07)
(0 0 1.66707e-07)
(0 0 1.66707e-07)
(0 0 1.66707e-07)
(0 0 1.66707e-07)
(0 0 1.66707e-07)
(0 0 1.66707e-07)
(0 0 1.66707e-07)
(0 0 1.66707e-07)
(0 0 1.66707e-07)
(0 0 1.66707e-07)
(0 0 1.66707e-07)
(0 0 1.66707e-07)
(0 0 1.66707e-07)
(0 0 1.66707e-07)
(0 0 1.66707e-07)
(0 0 1.66707e-07)
(0 0 1.66707e-07)
(0 0 1.66707e-07)
(0 0 1.66707e-07)
(0 0 1.66707e-07)
(0 0 1.66707e-07)
(0 0 1.66707e-07)
(0 0 1.66707e-07)
(0 0 1.66707e-07)
(0 0 1.66707e-07)
(0 0 1.66707e-07)
(0 0 1.66707e-07)
(0 0 1.66707e-07)
(0 0 1.66707e-07)
(0 0 1.66707e-07)
(0 0 1.66707e-07)
(0 0 1.66707e-07)
(0 0 1.66707e-07)
)
;

boundaryField
{
    inlet
    {
        type            fixedValue;
        value           uniform (0 0 0);
    }
    outlet
    {
        type            zeroGradient;
    }
    emptyWalls
    {
        type            empty;
    }
}


// ************************************************************************* //
