/*--------------------------------*- C++ -*----------------------------------*\
  =========                 |
  \\      /  F ield         | OpenFOAM: The Open Source CFD Toolbox
   \\    /   O peration     | Website:  https://openfoam.org
    \\  /    A nd           | Version:  9
     \\/     M anipulation  |
\*---------------------------------------------------------------------------*/
FoamFile
{
    format      ascii;
    class       surfaceScalarField;
    location    "28100";
    object      phic;
}
// * * * * * * * * * * * * * * * * * * * * * * * * * * * * * * * * * * * * * //

dimensions      [0 2 0 0 0 0 0];

internalField   nonuniform List<scalar> 
999
(
6.49991e-16
2.64987e-15
6.50279e-15
1.21462e-14
1.9548e-14
2.87006e-14
3.96083e-14
5.22788e-14
6.67254e-14
8.29612e-14
1.00992e-13
1.20827e-13
1.4245e-13
1.6585e-13
1.90976e-13
2.1778e-13
2.46152e-13
2.75976e-13
3.07075e-13
3.39212e-13
3.72141e-13
4.05484e-13
4.38901e-13
4.71941e-13
5.04189e-13
5.35225e-13
5.64677e-13
5.92244e-13
6.1772e-13
6.40996e-13
6.62064e-13
6.80995e-13
6.98026e-13
7.13612e-13
7.29708e-13
7.544e-13
8.24556e-13
1.08784e-12
2.1257e-12
7.87929e-12
1.86264e-11
2.07159e-11
2.13703e-11
2.16947e-11
2.19042e-11
2.20632e-11
2.21957e-11
2.23109e-11
2.24127e-11
2.25044e-11
2.25897e-11
2.2672e-11
2.27539e-11
2.2836e-11
2.2918e-11
2.29987e-11
2.30782e-11
2.31629e-11
2.3246e-11
2.3327e-11
2.34054e-11
2.34811e-11
2.35543e-11
2.36255e-11
2.3695e-11
2.37636e-11
2.38295e-11
2.38953e-11
2.39612e-11
2.40271e-11
2.40929e-11
2.41585e-11
2.42245e-11
2.42906e-11
2.43568e-11
2.44233e-11
2.449e-11
2.4557e-11
2.46244e-11
2.46924e-11
2.47609e-11
2.48302e-11
2.49013e-11
2.49732e-11
2.50461e-11
2.51199e-11
2.51948e-11
2.52708e-11
2.5348e-11
2.54266e-11
2.55065e-11
2.5588e-11
2.56713e-11
2.57565e-11
2.58438e-11
2.59335e-11
2.60259e-11
2.61213e-11
2.62203e-11
2.63233e-11
2.64312e-11
2.6545e-11
2.6666e-11
2.6796e-11
2.69373e-11
2.70925e-11
2.72648e-11
2.74572e-11
2.76722e-11
2.79105e-11
2.81711e-11
2.84504e-11
2.87444e-11
2.90495e-11
2.93631e-11
2.96834e-11
3.00091e-11
3.03391e-11
3.06727e-11
3.10092e-11
3.13483e-11
3.16896e-11
3.20328e-11
3.23776e-11
3.2724e-11
3.30719e-11
3.34211e-11
3.37716e-11
3.41234e-11
3.44765e-11
3.48306e-11
3.51858e-11
3.5542e-11
3.58991e-11
3.62571e-11
3.66157e-11
3.69748e-11
3.73342e-11
3.76936e-11
3.8053e-11
3.84121e-11
3.87711e-11
3.913e-11
3.9489e-11
3.98481e-11
4.02076e-11
4.05676e-11
4.09281e-11
4.12893e-11
4.16514e-11
4.20144e-11
4.23786e-11
4.27441e-11
4.31112e-11
4.34799e-11
4.38505e-11
4.42231e-11
4.45976e-11
4.49739e-11
4.5352e-11
4.57316e-11
4.61126e-11
4.64946e-11
4.68773e-11
4.72606e-11
4.76442e-11
4.80279e-11
4.84115e-11
4.87951e-11
4.91784e-11
4.95615e-11
4.99444e-11
5.03272e-11
5.07098e-11
5.10925e-11
5.14752e-11
5.1858e-11
5.22411e-11
5.26245e-11
5.30083e-11
5.33925e-11
5.37772e-11
5.41624e-11
5.45481e-11
5.49344e-11
5.53212e-11
5.57085e-11
5.60964e-11
5.64849e-11
5.68738e-11
5.72632e-11
5.76532e-11
5.80435e-11
5.84344e-11
5.88257e-11
5.92174e-11
5.96095e-11
6.0002e-11
6.03949e-11
6.07882e-11
6.11819e-11
6.1576e-11
6.19704e-11
6.23652e-11
6.27604e-11
6.31559e-11
6.35517e-11
6.39479e-11
6.43444e-11
6.47413e-11
6.51385e-11
6.5536e-11
6.59339e-11
6.6332e-11
6.67305e-11
6.71293e-11
6.75285e-11
6.7928e-11
6.83277e-11
6.87278e-11
6.91282e-11
6.95289e-11
6.99298e-11
7.03311e-11
7.07326e-11
7.11344e-11
7.15365e-11
7.19388e-11
7.23415e-11
7.27444e-11
7.31476e-11
7.35512e-11
7.3955e-11
7.43592e-11
7.47636e-11
7.51683e-11
7.55733e-11
7.59786e-11
7.63842e-11
7.679e-11
7.7196e-11
7.76023e-11
7.80088e-11
7.84156e-11
7.88226e-11
7.92299e-11
7.96376e-11
8.00455e-11
8.04538e-11
8.08625e-11
8.12715e-11
8.16809e-11
8.20906e-11
8.25007e-11
8.2911e-11
8.33214e-11
8.37319e-11
8.41423e-11
8.45526e-11
8.49627e-11
8.53724e-11
8.57817e-11
8.61905e-11
8.65987e-11
8.70065e-11
8.74136e-11
8.78203e-11
8.82265e-11
8.86324e-11
8.90379e-11
8.94433e-11
8.98487e-11
9.02542e-11
9.06601e-11
9.10665e-11
9.14736e-11
9.18816e-11
9.22907e-11
9.27012e-11
9.31131e-11
9.35267e-11
9.39421e-11
9.43592e-11
9.47783e-11
9.51992e-11
9.56219e-11
9.60463e-11
9.64723e-11
9.68996e-11
9.73281e-11
9.77575e-11
9.81877e-11
9.86185e-11
9.90495e-11
9.94806e-11
9.99118e-11
1.00343e-10
1.00773e-10
1.01204e-10
1.01634e-10
1.02063e-10
1.02492e-10
1.02921e-10
1.03349e-10
1.03777e-10
1.04205e-10
1.04633e-10
1.0506e-10
1.05488e-10
1.05916e-10
1.06343e-10
1.06771e-10
1.07199e-10
1.07628e-10
1.08057e-10
1.08486e-10
1.08915e-10
1.09345e-10
1.09775e-10
1.10205e-10
1.10636e-10
1.11067e-10
1.11499e-10
1.11931e-10
1.12363e-10
1.12796e-10
1.13229e-10
1.13662e-10
1.14095e-10
1.14529e-10
1.14963e-10
1.15398e-10
1.15832e-10
1.16267e-10
1.16702e-10
1.17138e-10
1.17574e-10
1.18009e-10
1.18445e-10
1.18882e-10
1.19318e-10
1.19755e-10
1.20192e-10
1.20629e-10
1.21067e-10
1.21504e-10
1.21942e-10
1.2238e-10
1.22818e-10
1.23257e-10
1.23695e-10
1.24134e-10
1.24573e-10
1.25012e-10
1.25452e-10
1.25891e-10
1.26331e-10
1.26771e-10
1.27211e-10
1.27652e-10
1.28092e-10
1.28533e-10
1.28974e-10
1.29415e-10
1.29856e-10
1.30298e-10
1.30739e-10
1.31181e-10
1.31623e-10
1.32065e-10
1.32508e-10
1.32951e-10
1.33393e-10
1.33836e-10
1.3428e-10
1.34723e-10
1.35167e-10
1.35611e-10
1.36055e-10
1.36499e-10
1.36943e-10
1.37388e-10
1.37833e-10
1.38278e-10
1.38724e-10
1.39169e-10
1.39615e-10
1.40062e-10
1.40508e-10
1.40954e-10
1.41401e-10
1.41848e-10
1.42294e-10
1.42741e-10
1.43187e-10
1.43633e-10
1.44078e-10
1.44524e-10
1.44969e-10
1.45413e-10
1.45857e-10
1.463e-10
1.46743e-10
1.47185e-10
1.47626e-10
1.48068e-10
1.48508e-10
1.48949e-10
1.49389e-10
1.49829e-10
1.50269e-10
1.5071e-10
1.5115e-10
1.51592e-10
1.52033e-10
1.52476e-10
1.5292e-10
1.53365e-10
1.53812e-10
1.54259e-10
1.54709e-10
1.5516e-10
1.55613e-10
1.56068e-10
1.56525e-10
1.56984e-10
1.57445e-10
1.57907e-10
1.58371e-10
1.58836e-10
1.59303e-10
1.59771e-10
1.6024e-10
1.60709e-10
1.6118e-10
1.61651e-10
1.62122e-10
1.62593e-10
1.63064e-10
1.63536e-10
1.64007e-10
1.64477e-10
1.64948e-10
1.65418e-10
1.65888e-10
1.66357e-10
1.66826e-10
1.67295e-10
1.67764e-10
1.68232e-10
1.687e-10
1.69168e-10
1.69636e-10
1.70104e-10
1.70572e-10
1.7104e-10
1.71508e-10
1.71976e-10
1.72445e-10
1.72914e-10
1.73383e-10
1.73852e-10
1.74322e-10
1.74792e-10
1.75263e-10
1.75733e-10
1.76204e-10
1.76676e-10
1.77148e-10
1.7762e-10
1.78092e-10
1.78565e-10
1.79038e-10
1.79512e-10
1.79986e-10
1.8046e-10
1.80934e-10
1.81409e-10
1.81884e-10
1.82359e-10
1.82835e-10
1.8331e-10
1.83787e-10
1.84263e-10
1.84739e-10
1.85216e-10
1.85693e-10
1.8617e-10
1.86648e-10
1.87125e-10
1.87603e-10
1.88081e-10
1.8856e-10
1.89038e-10
1.89517e-10
1.89996e-10
1.90475e-10
1.90955e-10
1.91434e-10
1.91914e-10
1.92394e-10
1.92874e-10
1.93354e-10
1.93835e-10
1.94316e-10
1.94797e-10
1.95278e-10
1.95759e-10
1.96241e-10
1.96723e-10
1.97205e-10
1.97687e-10
1.9817e-10
1.98652e-10
1.99135e-10
1.99619e-10
2.00102e-10
2.00585e-10
2.01069e-10
2.01553e-10
2.02038e-10
2.02522e-10
2.03007e-10
2.03492e-10
2.03977e-10
2.04462e-10
2.04948e-10
2.05434e-10
2.0592e-10
2.06407e-10
2.06894e-10
2.07381e-10
2.07868e-10
2.08355e-10
2.08843e-10
2.09331e-10
2.09819e-10
2.10307e-10
2.10795e-10
2.11283e-10
2.11772e-10
2.1226e-10
2.12748e-10
2.13235e-10
2.13723e-10
2.1421e-10
2.14697e-10
2.15184e-10
2.1567e-10
2.16156e-10
2.16641e-10
2.17126e-10
2.1761e-10
2.18094e-10
2.18577e-10
2.1906e-10
2.19543e-10
2.20026e-10
2.20508e-10
2.20991e-10
2.21473e-10
2.21956e-10
2.22439e-10
2.22922e-10
2.23407e-10
2.23891e-10
2.24377e-10
2.24864e-10
2.25351e-10
2.25841e-10
2.26331e-10
2.26823e-10
2.27317e-10
2.27813e-10
2.2831e-10
2.2881e-10
2.29311e-10
2.29814e-10
2.30319e-10
2.30826e-10
2.31335e-10
2.31846e-10
2.32358e-10
2.32871e-10
2.33386e-10
2.33903e-10
2.3442e-10
2.34939e-10
2.35458e-10
2.35978e-10
2.36498e-10
2.37019e-10
2.3754e-10
2.38061e-10
2.38583e-10
2.39104e-10
2.39625e-10
2.40146e-10
2.40667e-10
2.41188e-10
2.41709e-10
2.42229e-10
2.42749e-10
2.43269e-10
2.43789e-10
2.44309e-10
2.44828e-10
2.45348e-10
2.45867e-10
2.46387e-10
2.46907e-10
2.47427e-10
2.47947e-10
2.48467e-10
2.48988e-10
2.49508e-10
2.5003e-10
2.50551e-10
2.51073e-10
2.51595e-10
2.52118e-10
2.52641e-10
2.53164e-10
2.53688e-10
2.54212e-10
2.54737e-10
2.55262e-10
2.55787e-10
2.56313e-10
2.5684e-10
2.57367e-10
2.57894e-10
2.58421e-10
2.5895e-10
2.59478e-10
2.60007e-10
2.60536e-10
2.61066e-10
2.61596e-10
2.62126e-10
2.62657e-10
2.63188e-10
2.63719e-10
2.64251e-10
2.64783e-10
2.65315e-10
2.65848e-10
2.66381e-10
2.66915e-10
2.67449e-10
2.67983e-10
2.68517e-10
2.69052e-10
2.69587e-10
2.70122e-10
2.70658e-10
2.71194e-10
2.7173e-10
2.72267e-10
2.72804e-10
2.73341e-10
2.73878e-10
2.74416e-10
2.74954e-10
2.75493e-10
2.76032e-10
2.76571e-10
2.7711e-10
2.7765e-10
2.7819e-10
2.78731e-10
2.79272e-10
2.79813e-10
2.80354e-10
2.80896e-10
2.81438e-10
2.81981e-10
2.82524e-10
2.83067e-10
2.8361e-10
2.84154e-10
2.84699e-10
2.85243e-10
2.85788e-10
2.86334e-10
2.8688e-10
2.87426e-10
2.87972e-10
2.88519e-10
2.89067e-10
2.89614e-10
2.90162e-10
2.9071e-10
2.91259e-10
2.91808e-10
2.92357e-10
2.92906e-10
2.93455e-10
2.94005e-10
2.94554e-10
2.95104e-10
2.95654e-10
2.96203e-10
2.96753e-10
2.97303e-10
2.97852e-10
2.98401e-10
2.9895e-10
2.99499e-10
3.00048e-10
3.00596e-10
3.01144e-10
3.01692e-10
3.02239e-10
3.02786e-10
3.03334e-10
3.03881e-10
3.04428e-10
3.04974e-10
3.05521e-10
3.06068e-10
3.06616e-10
3.07163e-10
3.07711e-10
3.0826e-10
3.08809e-10
3.09359e-10
3.09909e-10
3.10461e-10
3.11014e-10
3.11568e-10
3.12124e-10
3.12681e-10
3.1324e-10
3.138e-10
3.14363e-10
3.14927e-10
3.15493e-10
3.16061e-10
3.16632e-10
3.17204e-10
3.17779e-10
3.18355e-10
3.18934e-10
3.19515e-10
3.20097e-10
3.20682e-10
3.21269e-10
3.21857e-10
3.22447e-10
3.23038e-10
3.23631e-10
3.24225e-10
3.2482e-10
3.25416e-10
3.26013e-10
3.26611e-10
3.27209e-10
3.27808e-10
3.28408e-10
3.29007e-10
3.29608e-10
3.30208e-10
3.30809e-10
3.3141e-10
3.32011e-10
3.32612e-10
3.33213e-10
3.33814e-10
3.34415e-10
3.35017e-10
3.35619e-10
3.3622e-10
3.36822e-10
3.37424e-10
3.38027e-10
3.3863e-10
3.39233e-10
3.39836e-10
3.4044e-10
3.41044e-10
3.41649e-10
3.42254e-10
3.4286e-10
3.43466e-10
3.44073e-10
3.4468e-10
3.45288e-10
3.45897e-10
3.46506e-10
3.47116e-10
3.47726e-10
3.48338e-10
3.4895e-10
3.49562e-10
3.50176e-10
3.5079e-10
3.51405e-10
3.5202e-10
3.52636e-10
3.53253e-10
3.53871e-10
3.54489e-10
3.55108e-10
3.55727e-10
3.56347e-10
3.56968e-10
3.5759e-10
3.58212e-10
3.58835e-10
3.59459e-10
3.60083e-10
3.60708e-10
3.61333e-10
3.61959e-10
3.62586e-10
3.63213e-10
3.63841e-10
3.6447e-10
3.65099e-10
3.65729e-10
3.6636e-10
3.66991e-10
3.67623e-10
3.68255e-10
3.68888e-10
3.69522e-10
3.70157e-10
3.70792e-10
3.71427e-10
3.72063e-10
3.727e-10
3.73338e-10
3.73976e-10
3.74615e-10
3.75255e-10
3.75895e-10
3.76536e-10
3.77177e-10
3.7782e-10
3.78463e-10
3.79106e-10
3.79751e-10
3.80396e-10
3.81041e-10
3.81688e-10
3.82335e-10
3.82983e-10
3.83631e-10
3.84281e-10
3.84931e-10
3.85582e-10
3.86233e-10
3.86886e-10
3.87539e-10
3.88193e-10
3.88847e-10
3.89502e-10
3.90158e-10
3.90815e-10
3.91473e-10
3.92131e-10
3.9279e-10
3.93449e-10
3.94109e-10
3.9477e-10
3.95431e-10
3.96093e-10
3.96756e-10
3.97418e-10
3.98082e-10
3.98745e-10
3.9941e-10
4.00074e-10
4.0074e-10
4.01405e-10
4.02071e-10
4.02737e-10
4.03403e-10
4.0407e-10
4.04736e-10
4.05404e-10
4.06071e-10
4.06739e-10
4.07407e-10
4.08075e-10
4.08743e-10
4.09412e-10
4.10082e-10
4.10751e-10
4.11422e-10
4.12093e-10
4.12765e-10
4.13438e-10
4.14111e-10
4.14786e-10
4.15462e-10
4.16138e-10
4.16817e-10
4.17495e-10
4.18177e-10
4.18858e-10
4.19544e-10
4.20226e-10
4.20918e-10
4.21603e-10
4.223e-10
4.22989e-10
4.23691e-10
4.24384e-10
4.25092e-10
4.25789e-10
4.26503e-10
4.27205e-10
4.27924e-10
4.28632e-10
4.29357e-10
4.3007e-10
4.30801e-10
4.31521e-10
4.32257e-10
4.32982e-10
4.33724e-10
4.34455e-10
4.35201e-10
4.35937e-10
4.36687e-10
4.37428e-10
4.38181e-10
4.38927e-10
4.39683e-10
4.40433e-10
4.41191e-10
4.41946e-10
4.42707e-10
4.43464e-10
4.44227e-10
4.44988e-10
4.45753e-10
4.46516e-10
4.47282e-10
4.48049e-10
4.48816e-10
4.49586e-10
4.50355e-10
4.51126e-10
4.51897e-10
4.5267e-10
4.53444e-10
4.54219e-10
4.54994e-10
4.55772e-10
4.56549e-10
4.57329e-10
4.58108e-10
4.5889e-10
4.59673e-10
4.60457e-10
4.61242e-10
4.62029e-10
4.62818e-10
4.63607e-10
4.64398e-10
4.65191e-10
4.65985e-10
4.66782e-10
4.67578e-10
4.68378e-10
4.69178e-10
4.69981e-10
4.70784e-10
4.7159e-10
4.72397e-10
4.73207e-10
4.74017e-10
4.74831e-10
4.75645e-10
4.76462e-10
4.77279e-10
4.781e-10
4.78921e-10
4.79745e-10
4.8057e-10
4.81397e-10
4.82227e-10
4.83057e-10
4.8389e-10
4.84725e-10
4.85561e-10
4.86401e-10
4.8724e-10
4.88083e-10
4.88927e-10
4.89773e-10
4.90621e-10
4.91472e-10
4.92323e-10
4.93178e-10
4.94033e-10
)
;

boundaryField
{
    inlet
    {
        type            calculated;
        value           uniform 0;
    }
    outlet
    {
        type            calculated;
        value           uniform 5.485e-10;
    }
    emptyWalls
    {
        type            empty;
        value           nonuniform List<scalar> 0();
    }
}


// ************************************************************************* //
