/*--------------------------------*- C++ -*----------------------------------*\
  =========                 |
  \\      /  F ield         | OpenFOAM: The Open Source CFD Toolbox
   \\    /   O peration     | Website:  https://openfoam.org
    \\  /    A nd           | Version:  9
     \\/     M anipulation  |
\*---------------------------------------------------------------------------*/
FoamFile
{
    format      ascii;
    class       volVectorField;
    location    "17850";
    object      Ub;
}
// * * * * * * * * * * * * * * * * * * * * * * * * * * * * * * * * * * * * * //

dimensions      [0 0 0 0 0 0 0];

internalField   nonuniform List<vector> 
1000
(
(1.13621e-05 0 0)
(1.13624e-05 0 0)
(1.13624e-05 0 0)
(1.13624e-05 0 0)
(1.13626e-05 0 0)
(1.13627e-05 0 0)
(1.1363e-05 0 0)
(1.13633e-05 0 0)
(1.13637e-05 0 0)
(1.13641e-05 0 0)
(1.13645e-05 0 0)
(1.1365e-05 0 0)
(1.13656e-05 0 0)
(1.13662e-05 0 0)
(1.13667e-05 0 0)
(1.13672e-05 0 0)
(1.13676e-05 0 0)
(1.1368e-05 0 0)
(1.13683e-05 0 0)
(1.13687e-05 0 0)
(1.13691e-05 0 0)
(1.13697e-05 0 0)
(1.13717e-05 0 0)
(1.13788e-05 0 0)
(1.14186e-05 0 0)
(1.15812e-05 0 0)
(1.17357e-05 0 0)
(1.17685e-05 0 0)
(1.17782e-05 0 0)
(1.17829e-05 0 0)
(1.1786e-05 0 0)
(1.17883e-05 0 0)
(1.17903e-05 0 0)
(1.17918e-05 0 0)
(1.17928e-05 0 0)
(1.17935e-05 0 0)
(1.17941e-05 0 0)
(1.17948e-05 0 0)
(1.17957e-05 0 0)
(1.17963e-05 0 0)
(1.17961e-05 0 0)
(1.17946e-05 0 0)
(1.17916e-05 0 0)
(1.17873e-05 0 0)
(1.17822e-05 0 0)
(1.1777e-05 0 0)
(1.17725e-05 0 0)
(1.17693e-05 0 0)
(1.17672e-05 0 0)
(1.17661e-05 0 0)
(1.17654e-05 0 0)
(1.17648e-05 0 0)
(1.17651e-05 0 0)
(1.17673e-05 0 0)
(1.17711e-05 0 0)
(1.17755e-05 0 0)
(1.17799e-05 0 0)
(1.17842e-05 0 0)
(1.1788e-05 0 0)
(1.17911e-05 0 0)
(1.17934e-05 0 0)
(1.17949e-05 0 0)
(1.17955e-05 0 0)
(1.17954e-05 0 0)
(1.17945e-05 0 0)
(1.17929e-05 0 0)
(1.17907e-05 0 0)
(1.17878e-05 0 0)
(1.17843e-05 0 0)
(1.17803e-05 0 0)
(1.17758e-05 0 0)
(1.17711e-05 0 0)
(1.17663e-05 0 0)
(1.17614e-05 0 0)
(1.17564e-05 0 0)
(1.17515e-05 0 0)
(1.17466e-05 0 0)
(1.17417e-05 0 0)
(1.17369e-05 0 0)
(1.1732e-05 0 0)
(1.17271e-05 0 0)
(1.17222e-05 0 0)
(1.17172e-05 0 0)
(1.17123e-05 0 0)
(1.17073e-05 0 0)
(1.17023e-05 0 0)
(1.16972e-05 0 0)
(1.16921e-05 0 0)
(1.1687e-05 0 0)
(1.16819e-05 0 0)
(1.16767e-05 0 0)
(1.16715e-05 0 0)
(1.16663e-05 0 0)
(1.1661e-05 0 0)
(1.16557e-05 0 0)
(1.16504e-05 0 0)
(1.16451e-05 0 0)
(1.16397e-05 0 0)
(1.16343e-05 0 0)
(1.16289e-05 0 0)
(1.16235e-05 0 0)
(1.1618e-05 0 0)
(1.16125e-05 0 0)
(1.1607e-05 0 0)
(1.16014e-05 0 0)
(1.15958e-05 0 0)
(1.15902e-05 0 0)
(1.15846e-05 0 0)
(1.15789e-05 0 0)
(1.15732e-05 0 0)
(1.15675e-05 0 0)
(1.15618e-05 0 0)
(1.1556e-05 0 0)
(1.15503e-05 0 0)
(1.15445e-05 0 0)
(1.15386e-05 0 0)
(1.15328e-05 0 0)
(1.15269e-05 0 0)
(1.1521e-05 0 0)
(1.15151e-05 0 0)
(1.15091e-05 0 0)
(1.15032e-05 0 0)
(1.14971e-05 0 0)
(1.14911e-05 0 0)
(1.14851e-05 0 0)
(1.1479e-05 0 0)
(1.14729e-05 0 0)
(1.14668e-05 0 0)
(1.14607e-05 0 0)
(1.14546e-05 0 0)
(1.14484e-05 0 0)
(1.14423e-05 0 0)
(1.14362e-05 0 0)
(1.143e-05 0 0)
(1.14238e-05 0 0)
(1.14177e-05 0 0)
(1.14114e-05 0 0)
(1.14052e-05 0 0)
(1.13989e-05 0 0)
(1.13927e-05 0 0)
(1.13864e-05 0 0)
(1.13801e-05 0 0)
(1.13738e-05 0 0)
(1.13675e-05 0 0)
(1.13612e-05 0 0)
(1.1355e-05 0 0)
(1.13487e-05 0 0)
(1.13424e-05 0 0)
(1.1336e-05 0 0)
(1.13296e-05 0 0)
(1.1323e-05 0 0)
(1.13162e-05 0 0)
(1.13093e-05 0 0)
(1.13021e-05 0 0)
(1.12948e-05 0 0)
(1.12872e-05 0 0)
(1.12794e-05 0 0)
(1.12715e-05 0 0)
(1.12634e-05 0 0)
(1.12551e-05 0 0)
(1.12468e-05 0 0)
(1.12384e-05 0 0)
(1.123e-05 0 0)
(1.12217e-05 0 0)
(1.12135e-05 0 0)
(1.12054e-05 0 0)
(1.11975e-05 0 0)
(1.11898e-05 0 0)
(1.11825e-05 0 0)
(1.11756e-05 0 0)
(1.1169e-05 0 0)
(1.11628e-05 0 0)
(1.11569e-05 0 0)
(1.11515e-05 0 0)
(1.11464e-05 0 0)
(1.11416e-05 0 0)
(1.1137e-05 0 0)
(1.11326e-05 0 0)
(1.11283e-05 0 0)
(1.11241e-05 0 0)
(1.11198e-05 0 0)
(1.11155e-05 0 0)
(1.1111e-05 0 0)
(1.11063e-05 0 0)
(1.11015e-05 0 0)
(1.10964e-05 0 0)
(1.10912e-05 0 0)
(1.10857e-05 0 0)
(1.108e-05 0 0)
(1.10742e-05 0 0)
(1.10681e-05 0 0)
(1.1062e-05 0 0)
(1.10557e-05 0 0)
(1.10493e-05 0 0)
(1.10429e-05 0 0)
(1.10364e-05 0 0)
(1.10298e-05 0 0)
(1.10233e-05 0 0)
(1.10167e-05 0 0)
(1.10102e-05 0 0)
(1.10036e-05 0 0)
(1.09971e-05 0 0)
(1.09906e-05 0 0)
(1.09842e-05 0 0)
(1.09777e-05 0 0)
(1.09713e-05 0 0)
(1.09649e-05 0 0)
(1.09585e-05 0 0)
(1.09521e-05 0 0)
(1.09457e-05 0 0)
(1.09394e-05 0 0)
(1.0933e-05 0 0)
(1.09267e-05 0 0)
(1.09203e-05 0 0)
(1.0914e-05 0 0)
(1.09076e-05 0 0)
(1.09012e-05 0 0)
(1.08949e-05 0 0)
(1.08885e-05 0 0)
(1.08821e-05 0 0)
(1.08757e-05 0 0)
(1.08693e-05 0 0)
(1.08629e-05 0 0)
(1.08564e-05 0 0)
(1.085e-05 0 0)
(1.08435e-05 0 0)
(1.0837e-05 0 0)
(1.08305e-05 0 0)
(1.0824e-05 0 0)
(1.08175e-05 0 0)
(1.0811e-05 0 0)
(1.08044e-05 0 0)
(1.07978e-05 0 0)
(1.07913e-05 0 0)
(1.07847e-05 0 0)
(1.07781e-05 0 0)
(1.07714e-05 0 0)
(1.07648e-05 0 0)
(1.07581e-05 0 0)
(1.07515e-05 0 0)
(1.07448e-05 0 0)
(1.07381e-05 0 0)
(1.07314e-05 0 0)
(1.07247e-05 0 0)
(1.07179e-05 0 0)
(1.07112e-05 0 0)
(1.07044e-05 0 0)
(1.06976e-05 0 0)
(1.06908e-05 0 0)
(1.0684e-05 0 0)
(1.06772e-05 0 0)
(1.06703e-05 0 0)
(1.06635e-05 0 0)
(1.06566e-05 0 0)
(1.06497e-05 0 0)
(1.06428e-05 0 0)
(1.06359e-05 0 0)
(1.06289e-05 0 0)
(1.0622e-05 0 0)
(1.0615e-05 0 0)
(1.06081e-05 0 0)
(1.06011e-05 0 0)
(1.05941e-05 0 0)
(1.05871e-05 0 0)
(1.058e-05 0 0)
(1.0573e-05 0 0)
(1.0566e-05 0 0)
(1.05589e-05 0 0)
(1.05518e-05 0 0)
(1.05448e-05 0 0)
(1.05377e-05 0 0)
(1.05306e-05 0 0)
(1.05235e-05 0 0)
(1.05163e-05 0 0)
(1.05092e-05 0 0)
(1.05021e-05 0 0)
(1.04949e-05 0 0)
(1.04878e-05 0 0)
(1.04806e-05 0 0)
(1.04734e-05 0 0)
(1.04663e-05 0 0)
(1.04591e-05 0 0)
(1.04519e-05 0 0)
(1.04446e-05 0 0)
(1.04373e-05 0 0)
(1.043e-05 0 0)
(1.04227e-05 0 0)
(1.04152e-05 0 0)
(1.04077e-05 0 0)
(1.04002e-05 0 0)
(1.03925e-05 0 0)
(1.03848e-05 0 0)
(1.0377e-05 0 0)
(1.03691e-05 0 0)
(1.03611e-05 0 0)
(1.0353e-05 0 0)
(1.03448e-05 0 0)
(1.03366e-05 0 0)
(1.03282e-05 0 0)
(1.03198e-05 0 0)
(1.03114e-05 0 0)
(1.03029e-05 0 0)
(1.02944e-05 0 0)
(1.02859e-05 0 0)
(1.02774e-05 0 0)
(1.02689e-05 0 0)
(1.02605e-05 0 0)
(1.02522e-05 0 0)
(1.0244e-05 0 0)
(1.02359e-05 0 0)
(1.0228e-05 0 0)
(1.02202e-05 0 0)
(1.02126e-05 0 0)
(1.02051e-05 0 0)
(1.01978e-05 0 0)
(1.01907e-05 0 0)
(1.01838e-05 0 0)
(1.0177e-05 0 0)
(1.01704e-05 0 0)
(1.01639e-05 0 0)
(1.01576e-05 0 0)
(1.01513e-05 0 0)
(1.01451e-05 0 0)
(1.01389e-05 0 0)
(1.01328e-05 0 0)
(1.01267e-05 0 0)
(1.01205e-05 0 0)
(1.01143e-05 0 0)
(1.01081e-05 0 0)
(1.01017e-05 0 0)
(1.00953e-05 0 0)
(1.00888e-05 0 0)
(1.00823e-05 0 0)
(1.00756e-05 0 0)
(1.00688e-05 0 0)
(1.00619e-05 0 0)
(1.0055e-05 0 0)
(1.00479e-05 0 0)
(1.00408e-05 0 0)
(1.00336e-05 0 0)
(1.00264e-05 0 0)
(1.00191e-05 0 0)
(1.00118e-05 0 0)
(1.00044e-05 0 0)
(9.99696e-06 0 0)
(9.98952e-06 0 0)
(9.98206e-06 0 0)
(9.97459e-06 0 0)
(9.96711e-06 0 0)
(9.95962e-06 0 0)
(9.95213e-06 0 0)
(9.94464e-06 0 0)
(9.93715e-06 0 0)
(9.92966e-06 0 0)
(9.92218e-06 0 0)
(9.91469e-06 0 0)
(9.90721e-06 0 0)
(9.89973e-06 0 0)
(9.89225e-06 0 0)
(9.88478e-06 0 0)
(9.8773e-06 0 0)
(9.86982e-06 0 0)
(9.86234e-06 0 0)
(9.85486e-06 0 0)
(9.84737e-06 0 0)
(9.83988e-06 0 0)
(9.83238e-06 0 0)
(9.82487e-06 0 0)
(9.81735e-06 0 0)
(9.80983e-06 0 0)
(9.8023e-06 0 0)
(9.79475e-06 0 0)
(9.7872e-06 0 0)
(9.77963e-06 0 0)
(9.77205e-06 0 0)
(9.76446e-06 0 0)
(9.75686e-06 0 0)
(9.74924e-06 0 0)
(9.74161e-06 0 0)
(9.73397e-06 0 0)
(9.72631e-06 0 0)
(9.71864e-06 0 0)
(9.71095e-06 0 0)
(9.70325e-06 0 0)
(9.69553e-06 0 0)
(9.6878e-06 0 0)
(9.68006e-06 0 0)
(9.6723e-06 0 0)
(9.66452e-06 0 0)
(9.65673e-06 0 0)
(9.64892e-06 0 0)
(9.6411e-06 0 0)
(9.63326e-06 0 0)
(9.62541e-06 0 0)
(9.61754e-06 0 0)
(9.60966e-06 0 0)
(9.60176e-06 0 0)
(9.59384e-06 0 0)
(9.58591e-06 0 0)
(9.57796e-06 0 0)
(9.57e-06 0 0)
(9.56201e-06 0 0)
(9.55402e-06 0 0)
(9.546e-06 0 0)
(9.53797e-06 0 0)
(9.52992e-06 0 0)
(9.52186e-06 0 0)
(9.51378e-06 0 0)
(9.50568e-06 0 0)
(9.49757e-06 0 0)
(9.48944e-06 0 0)
(9.4813e-06 0 0)
(9.47313e-06 0 0)
(9.46496e-06 0 0)
(9.45677e-06 0 0)
(9.44856e-06 0 0)
(9.44034e-06 0 0)
(9.4321e-06 0 0)
(9.42385e-06 0 0)
(9.41558e-06 0 0)
(9.4073e-06 0 0)
(9.399e-06 0 0)
(9.39069e-06 0 0)
(9.38237e-06 0 0)
(9.37403e-06 0 0)
(9.36568e-06 0 0)
(9.35731e-06 0 0)
(9.34893e-06 0 0)
(9.34053e-06 0 0)
(9.33212e-06 0 0)
(9.3237e-06 0 0)
(9.31526e-06 0 0)
(9.30681e-06 0 0)
(9.29834e-06 0 0)
(9.28985e-06 0 0)
(9.28135e-06 0 0)
(9.27282e-06 0 0)
(9.26427e-06 0 0)
(9.2557e-06 0 0)
(9.2471e-06 0 0)
(9.23847e-06 0 0)
(9.22981e-06 0 0)
(9.22111e-06 0 0)
(9.21237e-06 0 0)
(9.2036e-06 0 0)
(9.19478e-06 0 0)
(9.18591e-06 0 0)
(9.17699e-06 0 0)
(9.16802e-06 0 0)
(9.159e-06 0 0)
(9.14992e-06 0 0)
(9.14079e-06 0 0)
(9.13161e-06 0 0)
(9.12237e-06 0 0)
(9.11308e-06 0 0)
(9.10374e-06 0 0)
(9.09436e-06 0 0)
(9.08494e-06 0 0)
(9.07548e-06 0 0)
(9.06599e-06 0 0)
(9.05648e-06 0 0)
(9.04695e-06 0 0)
(9.03741e-06 0 0)
(9.02787e-06 0 0)
(9.01834e-06 0 0)
(9.00882e-06 0 0)
(8.99933e-06 0 0)
(8.98987e-06 0 0)
(8.98045e-06 0 0)
(8.97108e-06 0 0)
(8.96177e-06 0 0)
(8.95252e-06 0 0)
(8.94334e-06 0 0)
(8.93423e-06 0 0)
(8.9252e-06 0 0)
(8.91625e-06 0 0)
(8.90738e-06 0 0)
(8.89859e-06 0 0)
(8.88988e-06 0 0)
(8.88124e-06 0 0)
(8.87267e-06 0 0)
(8.86416e-06 0 0)
(8.85571e-06 0 0)
(8.8473e-06 0 0)
(8.83894e-06 0 0)
(8.8306e-06 0 0)
(8.82228e-06 0 0)
(8.81397e-06 0 0)
(8.80566e-06 0 0)
(8.79734e-06 0 0)
(8.789e-06 0 0)
(8.78063e-06 0 0)
(8.77223e-06 0 0)
(8.76379e-06 0 0)
(8.7553e-06 0 0)
(8.74676e-06 0 0)
(8.73817e-06 0 0)
(8.72952e-06 0 0)
(8.72082e-06 0 0)
(8.71205e-06 0 0)
(8.70324e-06 0 0)
(8.69436e-06 0 0)
(8.68543e-06 0 0)
(8.67644e-06 0 0)
(8.66741e-06 0 0)
(8.65833e-06 0 0)
(8.6492e-06 0 0)
(8.64003e-06 0 0)
(8.63082e-06 0 0)
(8.62158e-06 0 0)
(8.6123e-06 0 0)
(8.60299e-06 0 0)
(8.59365e-06 0 0)
(8.58429e-06 0 0)
(8.5749e-06 0 0)
(8.5655e-06 0 0)
(8.55607e-06 0 0)
(8.54662e-06 0 0)
(8.53715e-06 0 0)
(8.52767e-06 0 0)
(8.51817e-06 0 0)
(8.50866e-06 0 0)
(8.49913e-06 0 0)
(8.48959e-06 0 0)
(8.48003e-06 0 0)
(8.47046e-06 0 0)
(8.46087e-06 0 0)
(8.45126e-06 0 0)
(8.44164e-06 0 0)
(8.43201e-06 0 0)
(8.42235e-06 0 0)
(8.41268e-06 0 0)
(8.40299e-06 0 0)
(8.39328e-06 0 0)
(8.38356e-06 0 0)
(8.37381e-06 0 0)
(8.36404e-06 0 0)
(8.35425e-06 0 0)
(8.34444e-06 0 0)
(8.33461e-06 0 0)
(8.32476e-06 0 0)
(8.31488e-06 0 0)
(8.30498e-06 0 0)
(8.29505e-06 0 0)
(8.2851e-06 0 0)
(8.27513e-06 0 0)
(8.26513e-06 0 0)
(8.2551e-06 0 0)
(8.24505e-06 0 0)
(8.23497e-06 0 0)
(8.22486e-06 0 0)
(8.21473e-06 0 0)
(8.20457e-06 0 0)
(8.19439e-06 0 0)
(8.18417e-06 0 0)
(8.17393e-06 0 0)
(8.16366e-06 0 0)
(8.15336e-06 0 0)
(8.14303e-06 0 0)
(8.13268e-06 0 0)
(8.12229e-06 0 0)
(8.11187e-06 0 0)
(8.10143e-06 0 0)
(8.09095e-06 0 0)
(8.08045e-06 0 0)
(8.06991e-06 0 0)
(8.05934e-06 0 0)
(8.04875e-06 0 0)
(8.03812e-06 0 0)
(8.02746e-06 0 0)
(8.01676e-06 0 0)
(8.00604e-06 0 0)
(7.99529e-06 0 0)
(7.9845e-06 0 0)
(7.97368e-06 0 0)
(7.96283e-06 0 0)
(7.95194e-06 0 0)
(7.94103e-06 0 0)
(7.93008e-06 0 0)
(7.91909e-06 0 0)
(7.90807e-06 0 0)
(7.89702e-06 0 0)
(7.88594e-06 0 0)
(7.87482e-06 0 0)
(7.86367e-06 0 0)
(7.85249e-06 0 0)
(7.84127e-06 0 0)
(7.83002e-06 0 0)
(7.81873e-06 0 0)
(7.8074e-06 0 0)
(7.79604e-06 0 0)
(7.78465e-06 0 0)
(7.77322e-06 0 0)
(7.76176e-06 0 0)
(7.75026e-06 0 0)
(7.73872e-06 0 0)
(7.72715e-06 0 0)
(7.71554e-06 0 0)
(7.7039e-06 0 0)
(7.69221e-06 0 0)
(7.68049e-06 0 0)
(7.66873e-06 0 0)
(7.65693e-06 0 0)
(7.64509e-06 0 0)
(7.63321e-06 0 0)
(7.62129e-06 0 0)
(7.60933e-06 0 0)
(7.59732e-06 0 0)
(7.58527e-06 0 0)
(7.57317e-06 0 0)
(7.56103e-06 0 0)
(7.54884e-06 0 0)
(7.53659e-06 0 0)
(7.5243e-06 0 0)
(7.51196e-06 0 0)
(7.49956e-06 0 0)
(7.4871e-06 0 0)
(7.47459e-06 0 0)
(7.46202e-06 0 0)
(7.44939e-06 0 0)
(7.4367e-06 0 0)
(7.42394e-06 0 0)
(7.41113e-06 0 0)
(7.39825e-06 0 0)
(7.3853e-06 0 0)
(7.37229e-06 0 0)
(7.35921e-06 0 0)
(7.34607e-06 0 0)
(7.33286e-06 0 0)
(7.31959e-06 0 0)
(7.30625e-06 0 0)
(7.29286e-06 0 0)
(7.2794e-06 0 0)
(7.26588e-06 0 0)
(7.2523e-06 0 0)
(7.23867e-06 0 0)
(7.22498e-06 0 0)
(7.21125e-06 0 0)
(7.19746e-06 0 0)
(7.18363e-06 0 0)
(7.16976e-06 0 0)
(7.15584e-06 0 0)
(7.1419e-06 0 0)
(7.12792e-06 0 0)
(7.11391e-06 0 0)
(7.09987e-06 0 0)
(7.08582e-06 0 0)
(7.07174e-06 0 0)
(7.05764e-06 0 0)
(7.04353e-06 0 0)
(7.02941e-06 0 0)
(7.01528e-06 0 0)
(7.00114e-06 0 0)
(6.987e-06 0 0)
(6.97285e-06 0 0)
(6.95869e-06 0 0)
(6.94454e-06 0 0)
(6.93038e-06 0 0)
(6.91622e-06 0 0)
(6.90207e-06 0 0)
(6.88791e-06 0 0)
(6.87375e-06 0 0)
(6.85959e-06 0 0)
(6.84544e-06 0 0)
(6.8313e-06 0 0)
(6.81717e-06 0 0)
(6.80306e-06 0 0)
(6.78897e-06 0 0)
(6.7749e-06 0 0)
(6.76088e-06 0 0)
(6.7469e-06 0 0)
(6.733e-06 0 0)
(6.71918e-06 0 0)
(6.70546e-06 0 0)
(6.69187e-06 0 0)
(6.67844e-06 0 0)
(6.66519e-06 0 0)
(6.65216e-06 0 0)
(6.63939e-06 0 0)
(6.62691e-06 0 0)
(6.61478e-06 0 0)
(6.60302e-06 0 0)
(6.59167e-06 0 0)
(6.5808e-06 0 0)
(6.57043e-06 0 0)
(6.5606e-06 0 0)
(6.55134e-06 0 0)
(6.54269e-06 0 0)
(6.53465e-06 0 0)
(6.52724e-06 0 0)
(6.52048e-06 0 0)
(6.51435e-06 0 0)
(6.50884e-06 0 0)
(6.50394e-06 0 0)
(6.49961e-06 0 0)
(6.49582e-06 0 0)
(6.49254e-06 0 0)
(6.48972e-06 0 0)
(6.48733e-06 0 0)
(6.48531e-06 0 0)
(6.4836e-06 0 0)
(6.48213e-06 0 0)
(6.48084e-06 0 0)
(6.47963e-06 0 0)
(6.47835e-06 0 0)
(6.47676e-06 0 0)
(6.47443e-06 0 0)
(6.47068e-06 0 0)
(6.46424e-06 0 0)
(6.45295e-06 0 0)
(6.43294e-06 0 0)
(6.39753e-06 0 0)
(6.3354e-06 0 0)
(6.22843e-06 0 0)
(6.05022e-06 0 0)
(5.769e-06 0 0)
(5.36068e-06 0 0)
(4.83377e-06 0 0)
(4.24849e-06 0 0)
(3.69974e-06 0 0)
(3.26511e-06 0 0)
(2.96792e-06 0 0)
(2.78619e-06 0 0)
(2.68307e-06 0 0)
(2.62716e-06 0 0)
(2.59761e-06 0 0)
(2.58221e-06 0 0)
(2.57426e-06 0 0)
(2.57017e-06 0 0)
(2.56809e-06 0 0)
(2.56703e-06 0 0)
(2.56649e-06 0 0)
(2.56623e-06 0 0)
(2.56611e-06 0 0)
(2.56607e-06 0 0)
(2.56605e-06 0 0)
(2.56606e-06 0 0)
(2.56608e-06 0 0)
(2.5661e-06 0 0)
(2.56612e-06 0 0)
(2.56614e-06 0 0)
(2.56616e-06 0 0)
(2.56618e-06 0 0)
(2.5662e-06 0 0)
(2.56622e-06 0 0)
(2.56624e-06 0 0)
(2.56626e-06 0 0)
(2.56628e-06 0 0)
(2.56629e-06 0 0)
(2.56631e-06 0 0)
(2.56632e-06 0 0)
(2.56633e-06 0 0)
(2.56634e-06 0 0)
(2.56635e-06 0 0)
(2.56636e-06 0 0)
(2.56636e-06 0 0)
(2.56637e-06 0 0)
(2.56637e-06 0 0)
(2.56637e-06 0 0)
(2.56637e-06 0 0)
(2.56637e-06 0 0)
(2.56637e-06 0 0)
(2.56637e-06 0 0)
(2.56636e-06 0 0)
(2.56636e-06 0 0)
(2.56635e-06 0 0)
(2.56634e-06 0 0)
(2.56634e-06 0 0)
(2.56633e-06 0 0)
(2.56632e-06 0 0)
(2.5663e-06 0 0)
(2.56629e-06 0 0)
(2.56628e-06 0 0)
(2.56626e-06 0 0)
(2.56625e-06 0 0)
(2.56623e-06 0 0)
(2.56621e-06 0 0)
(2.5662e-06 0 0)
(2.56618e-06 0 0)
(2.56616e-06 0 0)
(2.56614e-06 0 0)
(2.56612e-06 0 0)
(2.5661e-06 0 0)
(2.56608e-06 0 0)
(2.56606e-06 0 0)
(2.56603e-06 0 0)
(2.56601e-06 0 0)
(2.56599e-06 0 0)
(2.56596e-06 0 0)
(2.56594e-06 0 0)
(2.56591e-06 0 0)
(2.56589e-06 0 0)
(2.56586e-06 0 0)
(2.56584e-06 0 0)
(2.56581e-06 0 0)
(2.56578e-06 0 0)
(2.56575e-06 0 0)
(2.56572e-06 0 0)
(2.56569e-06 0 0)
(2.56566e-06 0 0)
(2.56562e-06 0 0)
(2.56559e-06 0 0)
(2.56555e-06 0 0)
(2.56551e-06 0 0)
(2.56547e-06 0 0)
(2.56543e-06 0 0)
(2.56539e-06 0 0)
(2.56534e-06 0 0)
(2.56529e-06 0 0)
(2.56524e-06 0 0)
(2.56519e-06 0 0)
(2.56513e-06 0 0)
(2.56507e-06 0 0)
(2.565e-06 0 0)
(2.56493e-06 0 0)
(2.56486e-06 0 0)
(2.56479e-06 0 0)
(2.56471e-06 0 0)
(2.56462e-06 0 0)
(2.56454e-06 0 0)
(2.56444e-06 0 0)
(2.56435e-06 0 0)
(2.56425e-06 0 0)
(2.56415e-06 0 0)
(2.56404e-06 0 0)
(2.56393e-06 0 0)
(2.56381e-06 0 0)
(2.56369e-06 0 0)
(2.56357e-06 0 0)
(2.56344e-06 0 0)
(2.56332e-06 0 0)
(2.56319e-06 0 0)
(2.56305e-06 0 0)
(2.56292e-06 0 0)
(2.56279e-06 0 0)
(2.56266e-06 0 0)
(2.56252e-06 0 0)
(2.56239e-06 0 0)
(2.56226e-06 0 0)
(2.56213e-06 0 0)
(2.562e-06 0 0)
(2.56188e-06 0 0)
(2.56176e-06 0 0)
(2.56165e-06 0 0)
(2.56154e-06 0 0)
(2.56144e-06 0 0)
(2.56134e-06 0 0)
(2.56125e-06 0 0)
(2.56117e-06 0 0)
(2.5611e-06 0 0)
(2.56104e-06 0 0)
(2.56098e-06 0 0)
(2.56094e-06 0 0)
(2.56091e-06 0 0)
(2.56089e-06 0 0)
(2.56087e-06 0 0)
(2.56087e-06 0 0)
(2.56087e-06 0 0)
(2.56087e-06 0 0)
(2.56089e-06 0 0)
(2.56093e-06 0 0)
(2.56098e-06 0 0)
(2.56103e-06 0 0)
(2.5611e-06 0 0)
(2.56118e-06 0 0)
(2.56126e-06 0 0)
(2.56135e-06 0 0)
(2.56144e-06 0 0)
(2.56154e-06 0 0)
(2.56165e-06 0 0)
(2.56176e-06 0 0)
(2.56187e-06 0 0)
(2.56199e-06 0 0)
(2.56211e-06 0 0)
(2.56223e-06 0 0)
(2.56235e-06 0 0)
(2.56247e-06 0 0)
(2.56259e-06 0 0)
(2.56271e-06 0 0)
(2.56282e-06 0 0)
(2.56293e-06 0 0)
(2.56305e-06 0 0)
(2.56315e-06 0 0)
(2.56326e-06 0 0)
(2.56335e-06 0 0)
(2.56345e-06 0 0)
(2.56354e-06 0 0)
(2.56363e-06 0 0)
(2.56371e-06 0 0)
(2.56379e-06 0 0)
(2.56387e-06 0 0)
(2.56394e-06 0 0)
(2.564e-06 0 0)
(2.56407e-06 0 0)
(2.56412e-06 0 0)
(2.56418e-06 0 0)
(2.56423e-06 0 0)
(2.56428e-06 0 0)
(2.56433e-06 0 0)
(2.56437e-06 0 0)
(2.56441e-06 0 0)
(2.56445e-06 0 0)
(2.56448e-06 0 0)
(2.56452e-06 0 0)
(2.56455e-06 0 0)
(2.56458e-06 0 0)
(2.56462e-06 0 0)
(2.56464e-06 0 0)
(2.56467e-06 0 0)
(2.5647e-06 0 0)
(2.56473e-06 0 0)
(2.56475e-06 0 0)
(2.56478e-06 0 0)
(2.56481e-06 0 0)
(2.56483e-06 0 0)
(2.56486e-06 0 0)
(2.56488e-06 0 0)
(2.56491e-06 0 0)
(2.56493e-06 0 0)
(2.56496e-06 0 0)
(2.56499e-06 0 0)
(2.56501e-06 0 0)
(2.56504e-06 0 0)
(2.56507e-06 0 0)
(2.5651e-06 0 0)
(2.56513e-06 0 0)
(2.56516e-06 0 0)
(2.56519e-06 0 0)
(2.56522e-06 0 0)
(2.56525e-06 0 0)
(2.56529e-06 0 0)
(2.56532e-06 0 0)
(2.56535e-06 0 0)
(2.56539e-06 0 0)
(2.56542e-06 0 0)
(2.56545e-06 0 0)
(2.56549e-06 0 0)
(2.56552e-06 0 0)
(2.56555e-06 0 0)
(2.56559e-06 0 0)
(2.56562e-06 0 0)
(2.56565e-06 0 0)
(2.56568e-06 0 0)
(2.56571e-06 0 0)
(2.56574e-06 0 0)
(2.56576e-06 0 0)
(2.56579e-06 0 0)
(2.56582e-06 0 0)
(2.56584e-06 0 0)
(2.56586e-06 0 0)
(2.56589e-06 0 0)
(2.56591e-06 0 0)
(2.56593e-06 0 0)
(2.56594e-06 0 0)
(2.56596e-06 0 0)
(2.56598e-06 0 0)
(2.56599e-06 0 0)
(2.56601e-06 0 0)
(2.56602e-06 0 0)
(2.56603e-06 0 0)
(2.56605e-06 0 0)
(2.56606e-06 0 0)
(2.56607e-06 0 0)
(2.56607e-06 0 0)
(2.56608e-06 0 0)
(2.56609e-06 0 0)
(2.56609e-06 0 0)
(2.5661e-06 0 0)
(2.5661e-06 0 0)
(2.5661e-06 0 0)
(2.56611e-06 0 0)
(2.56611e-06 0 0)
(2.56611e-06 0 0)
(2.56611e-06 0 0)
(2.56611e-06 0 0)
(2.56611e-06 0 0)
(2.5661e-06 0 0)
(2.5661e-06 0 0)
(2.5661e-06 0 0)
(2.56609e-06 0 0)
(2.56609e-06 0 0)
(2.56608e-06 0 0)
(2.56607e-06 0 0)
(2.56606e-06 0 0)
(2.56605e-06 0 0)
(2.56604e-06 0 0)
(2.56603e-06 0 0)
(2.56602e-06 0 0)
(2.56601e-06 0 0)
(2.56599e-06 0 0)
(2.56598e-06 0 0)
(2.56597e-06 0 0)
(2.56595e-06 0 0)
(2.56593e-06 0 0)
(2.56592e-06 0 0)
(2.5659e-06 0 0)
(2.56588e-06 0 0)
(2.56586e-06 0 0)
(2.56584e-06 0 0)
(2.56582e-06 0 0)
)
;

boundaryField
{
    inlet
    {
        type            fixedValue;
        value           uniform (1.13622e-05 0 0);
    }
    outlet
    {
        type            zeroGradient;
    }
    emptyWalls
    {
        type            empty;
    }
}


// ************************************************************************* //
