/*--------------------------------*- C++ -*----------------------------------*\
  =========                 |
  \\      /  F ield         | OpenFOAM: The Open Source CFD Toolbox
   \\    /   O peration     | Website:  https://openfoam.org
    \\  /    A nd           | Version:  9
     \\/     M anipulation  |
\*---------------------------------------------------------------------------*/
FoamFile
{
    format      ascii;
    class       volScalarField;
    location    "21400";
    object      p;
}
// * * * * * * * * * * * * * * * * * * * * * * * * * * * * * * * * * * * * * //

dimensions      [0 0 0 0 0 0 0];

internalField   nonuniform List<scalar> 
1000
(
184941
184516
184092
183671
183252
182836
182422
182009
181600
181192
180787
180384
179983
179584
179188
178794
178401
178011
177623
177236
176851
176468
176085
175704
175324
174944
174566
174190
173820
173473
173208
173085
172992
172904
172818
172733
172648
172564
172480
172397
172313
172230
172147
172065
171982
171900
171817
171735
171653
171571
171489
171407
171325
171244
171162
171080
170999
170917
170835
170754
170672
170591
170509
170428
170346
170265
170183
170102
170020
169939
169857
169776
169694
169612
169530
169449
169367
169285
169202
169120
169038
168955
168872
168789
168706
168623
168539
168455
168371
168287
168202
168117
168031
167946
167860
167774
167687
167600
167513
167426
167338
167250
167162
167073
166984
166895
166806
166716
166626
166536
166445
166354
166263
166172
166080
165988
165896
165803
165710
165617
165524
165430
165336
165242
165147
165052
164957
164862
164766
164670
164574
164478
164381
164284
164187
164089
163991
163893
163795
163696
163598
163498
163399
163299
163200
163099
162999
162898
162797
162696
162595
162493
162391
162289
162186
162083
161980
161877
161774
161670
161566
161462
161357
161252
161147
161042
160937
160831
160725
160619
160512
160405
160298
160191
160084
159976
159868
159760
159652
159543
159434
159325
159216
159106
158997
158887
158776
158666
158555
158444
158333
158222
158110
157998
157886
157774
157661
157548
157435
157322
157208
157094
156980
156866
156751
156636
156521
156406
156290
156174
156058
155942
155826
155709
155592
155475
155357
155240
155122
155004
154885
154767
154648
154529
154410
154290
154170
154050
153930
153810
153689
153568
153447
153326
153205
153083
152961
152839
152716
152594
152471
152348
152224
152101
151977
151853
151729
151604
151480
151355
151230
151105
150979
150853
150727
150601
150475
150348
150221
150094
149967
149840
149712
149584
149456
149327
149199
149070
148941
148812
148682
148553
148423
148293
148163
148032
147901
147771
147639
147508
147377
147245
147113
146981
146848
146716
146583
146450
146317
146183
146050
145916
145782
145648
145513
145378
145244
145108
144973
144838
144702
144566
144430
144294
144157
144020
143884
143746
143609
143472
143334
143196
143058
142920
142781
142643
142504
142365
142225
142086
141946
141807
141667
141526
141386
141245
141105
140964
140823
140681
140540
140398
140256
140114
139971
139829
139686
139543
139399
139256
139112
138968
138824
138680
138536
138391
138246
138101
137955
137810
137664
137518
137372
137226
137079
136932
136785
136638
136491
136343
136196
136048
135899
135751
135603
135454
135305
135156
135006
134857
134707
134557
134407
134257
134106
133956
133805
133654
133502
133351
133199
133047
132895
132743
132590
132438
132285
132132
131978
131825
131671
131517
131363
131209
131055
130900
130745
130590
130435
130280
130124
129968
129812
129656
129500
129343
129186
129030
128872
128715
128558
128400
128242
128084
127926
127767
127608
127450
127290
127131
126972
126812
126652
126492
126332
126172
126011
125851
125690
125528
125367
125206
125044
124882
124720
124558
124395
124233
124070
123907
123744
123580
123417
123253
123089
122925
122761
122596
122431
122267
122102
121936
121771
121605
121439
121273
121107
120941
120775
120608
120441
120274
120107
119939
119772
119604
119436
119268
119100
118931
118763
118594
118425
118256
118086
117917
117747
117577
117407
117237
117067
116896
116725
116554
116383
116212
116040
115869
115697
115525
115353
115180
115008
114835
114662
114489
114315
114142
113968
113794
113620
113445
113271
113096
112921
112746
112570
112395
112219
112043
111867
111691
111514
111338
111161
110984
110806
110629
110451
110274
110096
109917
109739
109561
109382
109203
109024
108845
108665
108485
108306
108126
107945
107765
107584
107404
107223
107042
106860
106679
106497
106315
106133
105951
105768
105586
105403
105220
105037
104854
104670
104486
104302
104118
103934
103750
103565
103380
103195
103010
102824
102639
102453
102267
102081
101895
101708
101521
101335
101147
100960
100773
100585
100397
100209
100021
99832.9
99644.4
99455.7
99266.8
99077.7
98888.5
98699
98509.4
98319.6
98129.6
97939.4
97749
97558.5
97367.8
97176.9
96985.8
96794.5
96603
96411.4
96219.6
96027.6
95835.4
95643
95450.5
95257.7
95064.8
94871.7
94678.4
94485
94291.3
94097.5
93903.5
93709.3
93514.9
93320.3
93125.6
92930.7
92735.6
92540.3
92344.8
92149.2
91953.3
91757.3
91561.1
91364.8
91168.2
90971.5
90774.6
90577.5
90380.2
90182.8
89985.2
89787.4
89589.4
89391.3
89193
88994.5
88795.8
88597
88398
88198.8
87999.4
87799.9
87600.2
87400.3
87200.2
87000
86799.6
86599
86398.2
86197.3
85996.2
85794.9
85593.4
85391.7
85189.9
84987.9
84785.7
84583.3
84380.7
84177.9
83975
83771.8
83568.5
83364.9
83161.2
82957.3
82753.2
82548.9
82344.4
82139.7
81934.8
81729.7
81524.4
81318.9
81113.2
80907.3
80701.2
80495
80288.5
80081.8
79874.9
79667.9
79460.6
79253.1
79045.5
78837.6
78629.6
78421.3
78212.9
78004.3
77795.4
77586.4
77377.2
77167.8
76958.2
76748.4
76538.4
76328.2
76117.9
75907.3
75696.5
75485.6
75274.4
75063.1
74851.5
74639.8
74427.9
74215.8
74003.4
73790.9
73578.2
73365.3
73152.2
72938.9
72725.4
72511.7
72297.8
72083.8
71869.5
71655
71440.3
71225.5
71010.4
70795.1
70579.7
70364
70148.1
69932.1
69715.8
69499.4
69282.7
69065.8
68848.8
68631.5
68414.1
68196.4
67978.6
67760.5
67542.3
67323.8
67105.1
66886.3
66667.2
66448
66228.5
66008.8
65789
65568.9
65348.6
65128.2
64907.5
64686.6
64465.5
64244.3
64022.8
63801.1
63579.2
63357.1
63134.8
62912.3
62689.6
62466.7
62243.5
62020.2
61796.7
61573
61349
61124.9
60900.5
60676
60451.2
60226.2
60001.1
59775.7
59550.1
59324.3
59098.3
58872
58645.6
58419
58192.1
57965.1
57737.8
57510.3
57282.7
57054.8
56826.7
56598.3
56369.8
56141.1
55912.1
55683
55453.6
55224
54994.2
54764.2
54534
54303.6
54073
53842.1
53611.1
53379.8
53148.3
52916.7
52684.8
52452.7
52220.4
51987.9
51755.2
51522.3
51289.2
51055.9
50822.4
50588.7
50354.9
50120.8
49886.6
49652.2
49417.6
49182.8
48947.9
48712.8
48477.6
48242.3
48006.7
47771.1
47535.4
47299.5
47063.5
46827.4
46591.3
46355
46118.7
45882.3
45645.9
45409.4
45172.8
44936.2
44699.6
44462.9
44226.2
43989.5
43752.8
43516
43279.3
43042.5
42805.7
42568.9
42332.1
42095.2
41858.4
41621.5
41384.6
41147.6
40910.5
40673.3
40435.8
40197.8
39959
39718.7
39476.1
39229.7
38978.1
38720.1
38455.5
38185.4
37911.7
37636.1
37359.4
37082.3
36804.9
36527.4
36249.9
35972.3
35694.7
35417.1
35139.4
34861.8
34584.2
34306.5
34028.9
33751.2
33473.5
33195.8
32918.2
32640.5
32362.8
32085.1
31807.4
31529.7
31252
30974.3
30696.6
30418.9
30141.2
29863.5
29585.8
29308.1
29030.3
28752.6
28474.9
28197.2
27919.4
27641.7
27363.9
27086.2
26808.4
26530.7
26252.9
25975.2
25697.4
25419.7
25141.9
24864.1
24586.4
24308.6
24030.8
23753
23475.3
23197.5
22919.7
22641.9
22364.1
22086.3
21808.5
21530.7
21252.9
20975.1
20697.3
20419.5
20141.7
19863.9
19586
19308.2
19030.4
18752.6
18474.8
18196.9
17919.1
17641.3
17363.4
17085.6
16807.8
16529.9
16252.1
15974.3
15696.4
15418.6
15140.8
14862.9
14585.1
14307.3
14029.4
13751.6
13473.7
13195.9
12918.1
12640.2
12362.4
12084.5
11806.7
11528.9
11251
10973.2
10695.4
10417.5
10139.7
9861.84
9584.01
9306.18
9028.35
8750.52
8472.69
8194.86
7917.03
7639.21
7361.38
7083.56
6805.74
6527.92
6250.11
5972.29
5694.48
5416.67
5138.86
4861.05
4583.25
4305.45
4027.65
3749.85
3472.06
3194.27
2916.49
2638.7
2360.93
2083.15
1805.38
1527.62
1249.86
972.1
694.35
416.605
138.866
)
;

boundaryField
{
    inlet
    {
        type            darcyGradPressure;
        gradient        uniform 116344;
        Mf              Mf;
        phi             phi;
        value           uniform 185154;
    }
    outlet
    {
        type            fixedValue;
        value           uniform 0;
    }
    emptyWalls
    {
        type            empty;
    }
}


// ************************************************************************* //
