/*--------------------------------*- C++ -*----------------------------------*\
  =========                 |
  \\      /  F ield         | OpenFOAM: The Open Source CFD Toolbox
   \\    /   O peration     | Website:  https://openfoam.org
    \\  /    A nd           | Version:  9
     \\/     M anipulation  |
\*---------------------------------------------------------------------------*/
FoamFile
{
    format      ascii;
    class       volScalarField;
    location    "21400";
    object      Sb;
}
// * * * * * * * * * * * * * * * * * * * * * * * * * * * * * * * * * * * * * //

dimensions      [0 0 0 0 0 0 0];

internalField   nonuniform List<scalar> 
1000
(
0.350208
0.350793
0.351399
0.352123
0.35277
0.353463
0.354149
0.354841
0.355542
0.356257
0.356969
0.357696
0.358424
0.359144
0.359871
0.360555
0.361263
0.361866
0.362538
0.363032
0.363624
0.364024
0.364487
0.364817
0.365162
0.365458
0.365879
0.366906
0.370577
0.387391
0.501325
0.632015
0.657379
0.665126
0.66889
0.671259
0.672977
0.674333
0.675451
0.676404
0.677226
0.677948
0.678584
0.679151
0.679655
0.680105
0.680503
0.680857
0.681168
0.681443
0.681687
0.681905
0.682097
0.682265
0.68241
0.682532
0.682631
0.682704
0.682747
0.682766
0.682764
0.682746
0.682712
0.682667
0.682613
0.682548
0.682473
0.682382
0.682275
0.682151
0.682018
0.681878
0.681723
0.68155
0.681355
0.681133
0.680877
0.680581
0.680233
0.679823
0.679334
0.678751
0.67806
0.67726
0.676362
0.675397
0.674389
0.673353
0.672299
0.671235
0.670164
0.669091
0.668018
0.666947
0.665879
0.664816
0.663757
0.662704
0.661656
0.660615
0.659579
0.65855
0.657527
0.65651
0.6555
0.654496
0.653498
0.652507
0.651522
0.650544
0.649572
0.648605
0.647646
0.646692
0.645744
0.644803
0.643867
0.642937
0.642013
0.641095
0.640182
0.639275
0.638374
0.637478
0.636588
0.635703
0.634823
0.633949
0.63308
0.632216
0.631357
0.630503
0.629654
0.62881
0.62797
0.627136
0.626306
0.625481
0.62466
0.623844
0.623033
0.622226
0.621423
0.620625
0.619831
0.619041
0.618256
0.617475
0.616698
0.615925
0.615157
0.614392
0.613631
0.612874
0.612121
0.611372
0.610627
0.609885
0.609147
0.608413
0.607682
0.606956
0.606233
0.605513
0.604798
0.604085
0.603376
0.602669
0.601965
0.601263
0.600564
0.599866
0.599171
0.598478
0.597787
0.597098
0.596412
0.595728
0.595046
0.594368
0.593692
0.59302
0.592351
0.591686
0.591025
0.590368
0.589716
0.589069
0.588426
0.587788
0.587155
0.586527
0.585903
0.585283
0.584668
0.584056
0.583447
0.582841
0.582237
0.581636
0.581036
0.580439
0.579842
0.579247
0.578654
0.578061
0.57747
0.576881
0.576293
0.575706
0.575121
0.574538
0.573957
0.573378
0.5728
0.572225
0.571652
0.571081
0.570512
0.569946
0.569381
0.568819
0.568259
0.567701
0.567145
0.566592
0.56604
0.56549
0.564943
0.564397
0.563854
0.563312
0.562772
0.562234
0.561698
0.561164
0.560631
0.5601
0.559571
0.559044
0.558518
0.557995
0.557472
0.556952
0.556433
0.555916
0.5554
0.554886
0.554374
0.553863
0.553354
0.552846
0.55234
0.551835
0.551332
0.550831
0.550331
0.549832
0.549335
0.548839
0.548345
0.547852
0.547361
0.546871
0.546383
0.545895
0.54541
0.544925
0.544442
0.54396
0.54348
0.543001
0.542523
0.542047
0.541572
0.541098
0.540626
0.540155
0.539685
0.539216
0.538749
0.538283
0.537818
0.537354
0.536892
0.536431
0.535971
0.535512
0.535055
0.534599
0.534144
0.53369
0.533237
0.532786
0.532335
0.531886
0.531438
0.530991
0.530545
0.5301
0.529656
0.529213
0.528771
0.528329
0.527888
0.527448
0.527009
0.52657
0.526131
0.525693
0.525256
0.52482
0.524384
0.523949
0.523514
0.523081
0.522648
0.522216
0.521786
0.521356
0.520928
0.520502
0.520077
0.519653
0.519231
0.518811
0.518393
0.517977
0.517562
0.517149
0.516739
0.51633
0.515922
0.515517
0.515113
0.51471
0.514308
0.513908
0.513509
0.513111
0.512714
0.512317
0.511921
0.511526
0.511131
0.510736
0.510342
0.509949
0.509555
0.509162
0.50877
0.508378
0.507986
0.507595
0.507205
0.506815
0.506426
0.506037
0.505649
0.505261
0.504875
0.504489
0.504103
0.503719
0.503335
0.502952
0.50257
0.502189
0.501808
0.501428
0.501049
0.500671
0.500293
0.499916
0.49954
0.499164
0.498789
0.498415
0.498042
0.497669
0.497297
0.496926
0.496555
0.496185
0.495816
0.495447
0.495079
0.494711
0.494344
0.493978
0.493612
0.493247
0.492882
0.492518
0.492155
0.491792
0.49143
0.491068
0.490707
0.490346
0.489986
0.489627
0.489268
0.48891
0.488552
0.488194
0.487838
0.487481
0.487126
0.486771
0.486416
0.486062
0.485708
0.485355
0.485002
0.48465
0.484298
0.483947
0.483597
0.483246
0.482897
0.482548
0.482199
0.481851
0.481503
0.481156
0.480809
0.480463
0.480117
0.479771
0.479426
0.479082
0.478738
0.478395
0.478052
0.477709
0.477367
0.477025
0.476684
0.476343
0.476003
0.475663
0.475324
0.474985
0.474646
0.474308
0.47397
0.473633
0.473296
0.472959
0.472622
0.472286
0.47195
0.471615
0.471279
0.470944
0.470609
0.470275
0.46994
0.469606
0.469271
0.468937
0.468603
0.46827
0.467936
0.467603
0.46727
0.466937
0.466605
0.466273
0.465941
0.46561
0.465279
0.464949
0.464619
0.46429
0.463962
0.463634
0.463307
0.46298
0.462655
0.46233
0.462006
0.461683
0.46136
0.461039
0.460718
0.460398
0.460079
0.45976
0.459442
0.459125
0.458808
0.458492
0.458176
0.45786
0.457545
0.457231
0.456916
0.456602
0.456288
0.455974
0.45566
0.455347
0.455033
0.45472
0.454407
0.454093
0.45378
0.453467
0.453154
0.452841
0.452528
0.452216
0.451903
0.451591
0.451279
0.450967
0.450655
0.450343
0.450032
0.44972
0.449409
0.449098
0.448788
0.448478
0.448168
0.447858
0.447548
0.447239
0.44693
0.446621
0.446312
0.446004
0.445695
0.445387
0.44508
0.444772
0.444465
0.444158
0.443851
0.443544
0.443238
0.442931
0.442625
0.442319
0.442013
0.441708
0.441402
0.441097
0.440792
0.440487
0.440182
0.439877
0.439573
0.439269
0.438964
0.43866
0.438356
0.438053
0.437749
0.437446
0.437142
0.436839
0.436536
0.436233
0.43593
0.435627
0.435324
0.435022
0.434719
0.434417
0.434115
0.433813
0.43351
0.433209
0.432907
0.432605
0.432303
0.432002
0.4317
0.431399
0.431097
0.430796
0.430495
0.430194
0.429893
0.429592
0.429291
0.42899
0.42869
0.428389
0.428088
0.427788
0.427487
0.427187
0.426887
0.426586
0.426286
0.425986
0.425686
0.425386
0.425086
0.424786
0.424486
0.424186
0.423886
0.423586
0.423286
0.422986
0.422687
0.422387
0.422087
0.421787
0.421487
0.421187
0.420887
0.420587
0.420287
0.419986
0.419686
0.419385
0.419085
0.418784
0.418483
0.418183
0.417881
0.41758
0.417279
0.416978
0.416676
0.416375
0.416073
0.415771
0.415469
0.415168
0.414866
0.414564
0.414262
0.41396
0.413658
0.413356
0.413054
0.412752
0.41245
0.412149
0.411847
0.411546
0.411245
0.410944
0.410643
0.410342
0.410041
0.409741
0.40944
0.40914
0.40884
0.40854
0.408241
0.407941
0.407641
0.407342
0.407042
0.406743
0.406444
0.406144
0.405845
0.405545
0.405245
0.404945
0.404645
0.404345
0.404045
0.403744
0.403443
0.403142
0.402841
0.40254
0.402238
0.401936
0.401633
0.401331
0.401028
0.400724
0.400421
0.400117
0.399813
0.399509
0.399204
0.398899
0.398594
0.398288
0.397983
0.397677
0.39737
0.397064
0.396757
0.39645
0.396143
0.395835
0.395527
0.395219
0.394911
0.394602
0.394293
0.393984
0.393674
0.393364
0.393054
0.392744
0.392433
0.392122
0.39181
0.391499
0.391187
0.390874
0.390562
0.390248
0.389935
0.389621
0.389307
0.388992
0.388677
0.388362
0.388046
0.38773
0.387413
0.387096
0.386779
0.386461
0.386143
0.385824
0.385505
0.385185
0.384865
0.384544
0.384223
0.383901
0.383579
0.383257
0.382934
0.38261
0.382286
0.381961
0.381636
0.38131
0.380984
0.380657
0.380329
0.380001
0.379673
0.379344
0.379014
0.378683
0.378352
0.37802
0.377688
0.377355
0.377022
0.376687
0.376353
0.376017
0.375681
0.375344
0.375006
0.374668
0.374329
0.373989
0.373649
0.373308
0.372966
0.372624
0.37228
0.371936
0.371592
0.371246
0.3709
0.370553
0.370205
0.369857
0.369508
0.369158
0.368807
0.368456
0.368104
0.367751
0.367397
0.367043
0.366689
0.366333
0.365977
0.365621
0.365264
0.364906
0.364549
0.36419
0.363832
0.363474
0.363115
0.362757
0.362399
0.362041
0.361685
0.361329
0.360974
0.360621
0.36027
0.359921
0.359575
0.359232
0.358893
0.358558
0.358228
0.357904
0.357587
0.357277
0.356976
0.356683
0.3564
0.356128
0.355867
0.355619
0.355383
0.355161
0.354953
0.354759
0.35458
0.354415
0.354265
0.354128
0.354005
0.353895
0.353798
0.353713
0.353638
0.353574
0.353518
0.353471
0.353431
0.353398
0.35337
0.353347
0.353328
0.353312
0.353297
0.353282
0.353266
0.353243
0.353207
0.353147
0.353042
0.352855
0.352522
0.351927
0.350871
0.349021
0.345841
0.340565
0.332301
0.320456
0.305487
0.289375
0.274873
0.263883
0.256655
0.252361
0.249969
0.248685
0.248011
0.24766
0.247479
0.247386
0.247339
0.247314
0.247302
0.247295
0.247292
0.247291
0.24729
0.247289
0.247289
0.247289
0.247289
0.247289
0.247289
0.247289
0.247289
0.247289
0.247289
0.247289
0.247289
0.247289
0.247289
0.247289
0.247289
0.247289
0.247289
0.247289
0.247289
0.247289
0.247288
0.247288
0.247288
0.247288
0.247288
0.247288
0.247288
0.247287
0.247287
0.247287
0.247287
0.247287
0.247287
0.247287
0.247287
0.247286
0.247286
0.247286
0.247286
0.247286
0.247286
0.247286
0.247286
0.247286
0.247285
0.247285
0.247285
0.247285
0.247285
0.247285
0.247285
0.247285
0.247285
0.247285
0.247285
0.247285
0.247285
0.247285
0.247285
0.247285
0.247285
0.247285
0.247285
0.247285
0.247284
0.247284
0.247284
0.247284
0.247284
0.247284
0.247284
0.247284
0.247284
0.247284
0.247284
0.247284
0.247284
0.247284
0.247284
0.247284
0.247284
0.247284
0.247284
0.247284
0.247284
0.247284
0.247284
0.247284
0.247284
0.247285
0.247285
0.247285
0.247285
0.247285
0.247285
0.247285
0.247285
0.247285
0.247285
0.247284
0.247284
0.247284
0.247284
0.247284
0.247284
0.247284
0.247284
0.247284
0.247284
0.247284
0.247284
0.247284
0.247284
0.247283
0.247283
0.247283
0.247283
0.247283
0.247283
0.247282
)
;

boundaryField
{
    inlet
    {
        type            fixedValue;
        value           uniform 0.35;
    }
    outlet
    {
        type            zeroGradient;
    }
    emptyWalls
    {
        type            empty;
    }
}


// ************************************************************************* //
