/*--------------------------------*- C++ -*----------------------------------*\
  =========                 |
  \\      /  F ield         | OpenFOAM: The Open Source CFD Toolbox
   \\    /   O peration     | Website:  https://openfoam.org
    \\  /    A nd           | Version:  9
     \\/     M anipulation  |
\*---------------------------------------------------------------------------*/
FoamFile
{
    format      ascii;
    class       surfaceScalarField;
    location    "4550";
    object      phib;
}
// * * * * * * * * * * * * * * * * * * * * * * * * * * * * * * * * * * * * * //

dimensions      [0 2 0 0 0 0 0];

internalField   nonuniform List<scalar> 
999
(
1.13629e-09
1.13641e-09
1.13657e-09
1.13705e-09
1.13903e-09
1.14916e-09
1.1735e-09
1.17746e-09
1.1787e-09
1.17925e-09
1.17948e-09
1.17954e-09
1.1795e-09
1.17937e-09
1.17912e-09
1.17853e-09
1.17727e-09
1.17541e-09
1.17324e-09
1.17087e-09
1.16839e-09
1.16587e-09
1.16333e-09
1.1608e-09
1.15831e-09
1.15587e-09
1.1535e-09
1.15122e-09
1.14905e-09
1.147e-09
1.14505e-09
1.1432e-09
1.14142e-09
1.13967e-09
1.13793e-09
1.13614e-09
1.13429e-09
1.13233e-09
1.13026e-09
1.12808e-09
1.12578e-09
1.12338e-09
1.12089e-09
1.11833e-09
1.11573e-09
1.11309e-09
1.11044e-09
1.10778e-09
1.10513e-09
1.10248e-09
1.09984e-09
1.09722e-09
1.0946e-09
1.09199e-09
1.08939e-09
1.08679e-09
1.08418e-09
1.08158e-09
1.07896e-09
1.07635e-09
1.07372e-09
1.07109e-09
1.06844e-09
1.06579e-09
1.06313e-09
1.06046e-09
1.05777e-09
1.05508e-09
1.05238e-09
1.04967e-09
1.04694e-09
1.04421e-09
1.04147e-09
1.03872e-09
1.03595e-09
1.03318e-09
1.0304e-09
1.0276e-09
1.0248e-09
1.02198e-09
1.01915e-09
1.01631e-09
1.01346e-09
1.0106e-09
1.00772e-09
1.00484e-09
1.00193e-09
9.9902e-10
9.96091e-10
9.93149e-10
9.90192e-10
9.87221e-10
9.84234e-10
9.81231e-10
9.78214e-10
9.7518e-10
9.7213e-10
9.69064e-10
9.65982e-10
9.62883e-10
9.59768e-10
9.56636e-10
9.53488e-10
9.50322e-10
9.4714e-10
9.43941e-10
9.40724e-10
9.3749e-10
9.34238e-10
9.30969e-10
9.27682e-10
9.24376e-10
9.21052e-10
9.17709e-10
9.14348e-10
9.10968e-10
9.07568e-10
9.04148e-10
9.00708e-10
8.97248e-10
8.93766e-10
8.90263e-10
8.86738e-10
8.83191e-10
8.7962e-10
8.76025e-10
8.72406e-10
8.68761e-10
8.65091e-10
8.61394e-10
8.57669e-10
8.53916e-10
8.50134e-10
8.46322e-10
8.42479e-10
8.38604e-10
8.34697e-10
8.30756e-10
8.2678e-10
8.22769e-10
8.18721e-10
8.14636e-10
8.10513e-10
8.0635e-10
8.02146e-10
7.97901e-10
7.93612e-10
7.8928e-10
7.84903e-10
7.8048e-10
7.76008e-10
7.71487e-10
7.66916e-10
7.62291e-10
7.57615e-10
7.52884e-10
7.48097e-10
7.43255e-10
7.38358e-10
7.33405e-10
7.28397e-10
7.23336e-10
7.18227e-10
7.13077e-10
7.07896e-10
7.027e-10
6.97508e-10
6.92344e-10
6.87238e-10
6.82221e-10
6.77322e-10
6.72555e-10
6.67902e-10
6.63275e-10
6.58467e-10
6.53055e-10
6.46263e-10
6.36746e-10
6.22352e-10
6.00023e-10
5.66307e-10
5.19228e-10
4.61314e-10
4.00977e-10
3.48663e-10
3.10459e-10
2.86109e-10
2.7197e-10
2.64214e-10
2.60093e-10
2.57941e-10
2.56827e-10
2.56255e-10
2.55964e-10
2.55817e-10
2.55747e-10
2.55726e-10
2.55728e-10
2.55745e-10
2.55771e-10
2.55804e-10
2.55845e-10
2.5589e-10
2.55938e-10
2.55989e-10
2.56041e-10
2.56094e-10
2.56146e-10
2.56197e-10
2.56245e-10
2.56291e-10
2.56334e-10
2.56372e-10
2.56407e-10
2.56437e-10
2.56462e-10
2.56484e-10
2.56501e-10
2.56514e-10
2.56523e-10
2.56529e-10
2.56532e-10
2.56533e-10
2.56533e-10
2.56533e-10
2.56529e-10
2.56523e-10
2.56516e-10
2.5651e-10
2.56503e-10
2.56496e-10
2.5649e-10
2.56484e-10
2.56479e-10
2.56475e-10
2.56471e-10
2.56468e-10
2.56466e-10
2.56465e-10
2.56464e-10
2.56464e-10
2.56464e-10
2.56464e-10
2.56466e-10
2.56468e-10
2.56471e-10
2.56474e-10
2.56477e-10
2.56481e-10
2.56484e-10
2.56488e-10
2.56492e-10
2.56496e-10
2.565e-10
2.56505e-10
2.56509e-10
2.56513e-10
2.56517e-10
2.56521e-10
2.56526e-10
2.5653e-10
2.56533e-10
2.56537e-10
2.56541e-10
2.56545e-10
2.56548e-10
2.56552e-10
2.56556e-10
2.56559e-10
2.56563e-10
2.56566e-10
2.56569e-10
2.56572e-10
2.56575e-10
2.56578e-10
2.56581e-10
2.56585e-10
2.56588e-10
2.56591e-10
2.56594e-10
2.56597e-10
2.566e-10
2.56603e-10
2.56606e-10
2.56609e-10
2.56612e-10
2.56615e-10
2.56618e-10
2.56621e-10
2.56624e-10
2.56627e-10
2.5663e-10
2.56633e-10
2.56636e-10
2.56639e-10
2.56641e-10
2.56644e-10
2.56646e-10
2.56649e-10
2.56651e-10
2.56653e-10
2.56656e-10
2.56658e-10
2.56659e-10
2.56661e-10
2.56662e-10
2.56664e-10
2.56665e-10
2.56666e-10
2.56666e-10
2.56667e-10
2.56668e-10
2.56668e-10
2.56668e-10
2.56668e-10
2.56667e-10
2.56667e-10
2.56667e-10
2.56666e-10
2.56665e-10
2.56664e-10
2.56663e-10
2.56661e-10
2.5666e-10
2.56658e-10
2.56657e-10
2.56655e-10
2.56654e-10
2.56652e-10
2.5665e-10
2.56648e-10
2.56646e-10
2.56645e-10
2.56643e-10
2.56641e-10
2.5664e-10
2.56638e-10
2.56637e-10
2.56636e-10
2.56634e-10
2.56633e-10
2.56632e-10
2.56631e-10
2.56629e-10
2.56628e-10
2.56627e-10
2.56626e-10
2.56625e-10
2.56623e-10
2.56622e-10
2.5662e-10
2.56618e-10
2.56616e-10
2.56613e-10
2.5661e-10
2.56607e-10
2.56603e-10
2.56599e-10
2.56595e-10
2.5659e-10
2.56584e-10
2.56579e-10
2.56572e-10
2.56566e-10
2.56558e-10
2.5655e-10
2.56542e-10
2.56533e-10
2.56523e-10
2.56513e-10
2.56503e-10
2.56492e-10
2.5648e-10
2.56467e-10
2.56454e-10
2.5644e-10
2.56424e-10
2.56408e-10
2.56391e-10
2.56373e-10
2.56354e-10
2.56334e-10
2.56312e-10
2.5629e-10
2.56266e-10
2.56242e-10
2.56216e-10
2.56189e-10
2.56162e-10
2.56133e-10
2.56104e-10
2.56074e-10
2.56045e-10
2.56015e-10
2.55985e-10
2.55956e-10
2.55928e-10
2.559e-10
2.55875e-10
2.55851e-10
2.55829e-10
2.55809e-10
2.55793e-10
2.5578e-10
2.5577e-10
2.55764e-10
2.55762e-10
2.55762e-10
2.55762e-10
2.55765e-10
2.5578e-10
2.55799e-10
2.55822e-10
2.55849e-10
2.5588e-10
2.55913e-10
2.5595e-10
2.55988e-10
2.56028e-10
2.56069e-10
2.56111e-10
2.56152e-10
2.56192e-10
2.56232e-10
2.56269e-10
2.56304e-10
2.56337e-10
2.56367e-10
2.56394e-10
2.56419e-10
2.5644e-10
2.56459e-10
2.56474e-10
2.56487e-10
2.56497e-10
2.56505e-10
2.56511e-10
2.56515e-10
2.56517e-10
2.56518e-10
2.56518e-10
2.56519e-10
2.56517e-10
2.56514e-10
2.56511e-10
2.56508e-10
2.56504e-10
2.56501e-10
2.56498e-10
2.56495e-10
2.56492e-10
2.5649e-10
2.56488e-10
2.56486e-10
2.56485e-10
2.56484e-10
2.56484e-10
2.56484e-10
2.56484e-10
2.56484e-10
2.56484e-10
2.56485e-10
2.56486e-10
2.56488e-10
2.56489e-10
2.56491e-10
2.56493e-10
2.56495e-10
2.56497e-10
2.56499e-10
2.56501e-10
2.56502e-10
2.56504e-10
2.56506e-10
2.56508e-10
2.56509e-10
2.56511e-10
2.56512e-10
2.56514e-10
2.56515e-10
2.56516e-10
2.56518e-10
2.56519e-10
2.5652e-10
2.5652e-10
2.56521e-10
2.56522e-10
2.56523e-10
2.56524e-10
2.56525e-10
2.56526e-10
2.56527e-10
2.56528e-10
2.56528e-10
2.56529e-10
2.5653e-10
2.56531e-10
2.56532e-10
2.56534e-10
2.56535e-10
2.56536e-10
2.56538e-10
2.56539e-10
2.56541e-10
2.56543e-10
2.56545e-10
2.56547e-10
2.56549e-10
2.56552e-10
2.56554e-10
2.56557e-10
2.5656e-10
2.56563e-10
2.56566e-10
2.56569e-10
2.56572e-10
2.56576e-10
2.56579e-10
2.56583e-10
2.56586e-10
2.5659e-10
2.56594e-10
2.56597e-10
2.56601e-10
2.56605e-10
2.56608e-10
2.56612e-10
2.56615e-10
2.56619e-10
2.56622e-10
2.56625e-10
2.56628e-10
2.5663e-10
2.56633e-10
2.56635e-10
2.56637e-10
2.56639e-10
2.56641e-10
2.56643e-10
2.56644e-10
2.56644e-10
2.56645e-10
2.56645e-10
2.56645e-10
2.56645e-10
2.56645e-10
2.56644e-10
2.56643e-10
2.56642e-10
2.5664e-10
2.56638e-10
2.56636e-10
2.56634e-10
2.56631e-10
2.56628e-10
2.56625e-10
2.56622e-10
2.56618e-10
2.56615e-10
2.56612e-10
2.56608e-10
2.56604e-10
2.566e-10
2.56596e-10
2.56592e-10
2.56589e-10
2.56585e-10
2.56581e-10
2.56577e-10
2.56572e-10
2.56568e-10
2.56564e-10
2.5656e-10
2.56555e-10
2.56551e-10
2.56546e-10
2.56542e-10
2.56537e-10
2.56532e-10
2.56526e-10
2.5652e-10
2.56514e-10
2.56508e-10
2.565e-10
2.56493e-10
2.56484e-10
2.56475e-10
2.56465e-10
2.56454e-10
2.56442e-10
2.56429e-10
2.56416e-10
2.56401e-10
2.56385e-10
2.56367e-10
2.56349e-10
2.56329e-10
2.56308e-10
2.56286e-10
2.56263e-10
2.56239e-10
2.56214e-10
2.56188e-10
2.56161e-10
2.56134e-10
2.56106e-10
2.56078e-10
2.5605e-10
2.56021e-10
2.55993e-10
2.55966e-10
2.55939e-10
2.55913e-10
2.55889e-10
2.55866e-10
2.55845e-10
2.55826e-10
2.5581e-10
2.55796e-10
2.55784e-10
2.55777e-10
2.55772e-10
2.55771e-10
2.5577e-10
2.55771e-10
2.55775e-10
2.5579e-10
2.55807e-10
2.55827e-10
2.55851e-10
2.55878e-10
2.55908e-10
2.55941e-10
2.55975e-10
2.56011e-10
2.56049e-10
2.56087e-10
2.56125e-10
2.56163e-10
2.56201e-10
2.56237e-10
2.56272e-10
2.56306e-10
2.56338e-10
2.56367e-10
2.56394e-10
2.56419e-10
2.56441e-10
2.56461e-10
2.56479e-10
2.56494e-10
2.56507e-10
2.56518e-10
2.56526e-10
2.56533e-10
2.56539e-10
2.56543e-10
2.56545e-10
2.56547e-10
2.56547e-10
2.56548e-10
2.56548e-10
2.56547e-10
2.56544e-10
2.56542e-10
2.56539e-10
2.56536e-10
2.56534e-10
2.56532e-10
2.56529e-10
2.56527e-10
2.56526e-10
2.56524e-10
2.56523e-10
2.56522e-10
2.56522e-10
2.56522e-10
2.56522e-10
2.56522e-10
2.56523e-10
2.56524e-10
2.56526e-10
2.56528e-10
2.5653e-10
2.56532e-10
2.56535e-10
2.56538e-10
2.56541e-10
2.56544e-10
2.56547e-10
2.56551e-10
2.56554e-10
2.56558e-10
2.56561e-10
2.56565e-10
2.56568e-10
2.56572e-10
2.56576e-10
2.56579e-10
2.56583e-10
2.56586e-10
2.5659e-10
2.56593e-10
2.56596e-10
2.56599e-10
2.56602e-10
2.56605e-10
2.56608e-10
2.5661e-10
2.56612e-10
2.56615e-10
2.56616e-10
2.56618e-10
2.5662e-10
2.56622e-10
2.56623e-10
2.56624e-10
2.56625e-10
2.56625e-10
2.56625e-10
2.56626e-10
2.56626e-10
2.56626e-10
2.56626e-10
2.56625e-10
2.56624e-10
2.56623e-10
2.56622e-10
2.56621e-10
2.56619e-10
2.56617e-10
2.56616e-10
2.56614e-10
2.56612e-10
2.56609e-10
2.56607e-10
2.56605e-10
2.56603e-10
2.56601e-10
2.56599e-10
2.56597e-10
2.56595e-10
2.56592e-10
2.56592e-10
2.56596e-10
2.56617e-10
2.56936e-10
2.5805e-10
2.675e-10
2.94691e-10
2.967e-10
2.96725e-10
2.96727e-10
2.96727e-10
2.96727e-10
2.96727e-10
2.96727e-10
2.96727e-10
2.96727e-10
2.96727e-10
2.96727e-10
2.96727e-10
2.96727e-10
2.96727e-10
2.96727e-10
2.96727e-10
2.96727e-10
2.96727e-10
2.96727e-10
2.96727e-10
2.96727e-10
2.96727e-10
2.96727e-10
2.96727e-10
2.96727e-10
2.96727e-10
2.96727e-10
2.96727e-10
2.96727e-10
2.96727e-10
2.96727e-10
2.96727e-10
2.96727e-10
2.96727e-10
2.96727e-10
2.96727e-10
2.96727e-10
2.96727e-10
2.96727e-10
2.96727e-10
2.96727e-10
2.96727e-10
2.96727e-10
2.96727e-10
2.96727e-10
2.96727e-10
2.96727e-10
2.96727e-10
2.96727e-10
2.96727e-10
2.96727e-10
2.96727e-10
2.96727e-10
2.96727e-10
2.96727e-10
2.96727e-10
2.96727e-10
2.96727e-10
2.96727e-10
2.96727e-10
2.96727e-10
2.96727e-10
2.96727e-10
2.96727e-10
2.96727e-10
2.96727e-10
2.96727e-10
2.96727e-10
2.96727e-10
2.96727e-10
2.96727e-10
2.96727e-10
2.96727e-10
2.96727e-10
2.96727e-10
2.96727e-10
2.96727e-10
2.96727e-10
2.96727e-10
2.96727e-10
2.96727e-10
2.96727e-10
2.96727e-10
2.96727e-10
2.96727e-10
2.96727e-10
2.96727e-10
2.96727e-10
2.96727e-10
2.96727e-10
2.96727e-10
2.96727e-10
2.96727e-10
2.96727e-10
2.96727e-10
2.96727e-10
2.96727e-10
2.96727e-10
2.96727e-10
2.96727e-10
2.96727e-10
2.96727e-10
2.96727e-10
2.96727e-10
2.96727e-10
2.96727e-10
2.96727e-10
2.96727e-10
2.96727e-10
2.96727e-10
2.96727e-10
2.96727e-10
2.96727e-10
2.96727e-10
2.96727e-10
2.96727e-10
2.96727e-10
2.96727e-10
2.96727e-10
2.96727e-10
2.96727e-10
2.96727e-10
2.96727e-10
2.96727e-10
2.96727e-10
2.96727e-10
2.96727e-10
2.96727e-10
2.96727e-10
2.96727e-10
2.96727e-10
2.96727e-10
2.96727e-10
2.96727e-10
2.96727e-10
2.96727e-10
2.96727e-10
2.96727e-10
2.96727e-10
2.96727e-10
2.96727e-10
2.96727e-10
2.96727e-10
2.96727e-10
2.96727e-10
2.96727e-10
2.96727e-10
2.96727e-10
2.96727e-10
2.96727e-10
2.96727e-10
2.96727e-10
2.96727e-10
2.96727e-10
2.96727e-10
2.96727e-10
2.96727e-10
2.96727e-10
2.96727e-10
2.96727e-10
2.96727e-10
2.96727e-10
2.96727e-10
2.96727e-10
2.96727e-10
2.96727e-10
2.96727e-10
2.96727e-10
2.96727e-10
2.96727e-10
2.96727e-10
2.96727e-10
2.96727e-10
2.96727e-10
2.96727e-10
2.96727e-10
2.96727e-10
2.96727e-10
2.96727e-10
2.96727e-10
2.96727e-10
2.96727e-10
2.96727e-10
2.96727e-10
2.96727e-10
2.96727e-10
2.96727e-10
2.96727e-10
2.96727e-10
2.96727e-10
2.96727e-10
2.96727e-10
2.96727e-10
2.96727e-10
2.96727e-10
2.96727e-10
2.96727e-10
2.96727e-10
2.96727e-10
2.96727e-10
2.96727e-10
2.96727e-10
2.96727e-10
2.96727e-10
2.96727e-10
2.96727e-10
2.96727e-10
2.96727e-10
2.96727e-10
2.96727e-10
2.96727e-10
2.96727e-10
2.96727e-10
2.96727e-10
2.96727e-10
2.96727e-10
2.96727e-10
2.96727e-10
2.96727e-10
2.96727e-10
2.96727e-10
2.96727e-10
2.96727e-10
2.96727e-10
2.96727e-10
2.96727e-10
2.96727e-10
2.96727e-10
2.96727e-10
2.96727e-10
2.96727e-10
2.96727e-10
2.96727e-10
2.96727e-10
2.96727e-10
2.96727e-10
2.96727e-10
2.96727e-10
2.96727e-10
2.96727e-10
2.96727e-10
2.96727e-10
2.96727e-10
2.96727e-10
2.96727e-10
2.96727e-10
2.96727e-10
2.96727e-10
2.96727e-10
)
;

boundaryField
{
    inlet
    {
        type            calculated;
        value           uniform -1.13622e-09;
    }
    outlet
    {
        type            calculated;
        value           uniform 2.96727e-10;
    }
    emptyWalls
    {
        type            empty;
        value           nonuniform List<scalar> 0();
    }
}


// ************************************************************************* //
