/*--------------------------------*- C++ -*----------------------------------*\
  =========                 |
  \\      /  F ield         | OpenFOAM: The Open Source CFD Toolbox
   \\    /   O peration     | Website:  https://openfoam.org
    \\  /    A nd           | Version:  9
     \\/     M anipulation  |
\*---------------------------------------------------------------------------*/
FoamFile
{
    format      ascii;
    class       volScalarField;
    location    "91000";
    object      kra;
}
// * * * * * * * * * * * * * * * * * * * * * * * * * * * * * * * * * * * * * //

dimensions      [0 0 0 0 0 0 0];

internalField   nonuniform List<scalar> 
100
(
1.31705e-05
1.31705e-05
1.31705e-05
1.31705e-05
1.31705e-05
1.31705e-05
1.31705e-05
1.31705e-05
1.31705e-05
1.31705e-05
1.31705e-05
1.31705e-05
1.31657e-05
1.31605e-05
1.31702e-05
1.31757e-05
1.31754e-05
1.31728e-05
1.31721e-05
1.31712e-05
1.31709e-05
1.31707e-05
1.31706e-05
1.31706e-05
1.31705e-05
1.31705e-05
1.31705e-05
1.31705e-05
1.31705e-05
1.31705e-05
1.31705e-05
1.31705e-05
1.31705e-05
1.31705e-05
1.31705e-05
1.31704e-05
1.31702e-05
1.31909e-05
1.26551e-05
1.22535e-05
1.22014e-05
1.21738e-05
1.21696e-05
1.21709e-05
1.21829e-05
1.22061e-05
1.2215e-05
1.22193e-05
1.22195e-05
1.22065e-05
1.21919e-05
1.21753e-05
1.217e-05
1.21667e-05
1.21663e-05
1.21695e-05
1.21846e-05
1.22113e-05
1.2221e-05
1.22249e-05
1.22247e-05
1.22034e-05
1.21876e-05
1.21724e-05
1.21679e-05
1.21654e-05
1.21652e-05
1.21719e-05
1.21915e-05
1.22181e-05
1.22263e-05
1.22282e-05
1.22256e-05
1.2194e-05
1.21806e-05
1.21689e-05
1.21658e-05
1.21645e-05
1.21645e-05
1.21769e-05
1.22005e-05
1.22256e-05
1.22317e-05
1.2231e-05
1.22179e-05
1.21859e-05
1.21738e-05
1.21658e-05
1.21644e-05
1.2166e-05
1.21673e-05
1.21825e-05
1.22114e-05
1.22554e-05
1.22677e-05
1.22712e-05
1.22671e-05
1.22246e-05
1.22185e-05
1.21701e-05
)
;

boundaryField
{
    inlet
    {
        type            calculated;
        value           uniform 1.50589e-05;
    }
    outlet
    {
        type            calculated;
        value           uniform 1.23663e-05;
    }
    emptyWalls
    {
        type            empty;
    }
}


// ************************************************************************* //
