/*--------------------------------*- C++ -*----------------------------------*\
  =========                 |
  \\      /  F ield         | OpenFOAM: The Open Source CFD Toolbox
   \\    /   O peration     | Website:  https://openfoam.org
    \\  /    A nd           | Version:  9
     \\/     M anipulation  |
\*---------------------------------------------------------------------------*/
FoamFile
{
    format      ascii;
    class       volScalarField;
    location    "91000";
    object      krc;
}
// * * * * * * * * * * * * * * * * * * * * * * * * * * * * * * * * * * * * * //

dimensions      [0 0 0 0 0 0 0];

internalField   nonuniform List<scalar> 
100
(
2.26065e-25
3.42236e-26
4.32958e-26
4.26449e-26
9.40754e-27
2.99238e-26
7.76539e-27
2.33099e-29
3.20798e-26
1.53172e-26
2.03806e-26
1.39593e-28
9.88555e-27
2.5862e-26
2.94369e-26
1.78634e-26
7.16007e-26
2.21387e-25
2.8301e-25
1.02956e-26
4.40729e-25
6.49584e-25
1.67482e-26
3.40785e-26
1.79346e-25
5.38783e-29
1.18476e-26
3.32622e-25
4.70937e-25
2.82411e-24
8.54573e-25
5.45198e-25
6.87711e-25
1.28658e-24
1.43046e-26
5.7538e-26
6.01853e-28
3.24388e-27
6.12492e-26
8.63231e-27
2.77381e-26
7.33548e-30
2.58873e-26
2.80385e-27
1.37592e-27
3.10238e-27
6.35237e-26
3.67779e-27
1.01113e-25
8.36884e-28
2.73404e-25
3.87021e-25
2.66794e-25
3.83801e-26
8.7788e-27
7.77783e-26
1.50703e-27
2.2542e-26
9.3811e-26
3.91529e-26
9.6377e-26
4.90626e-26
1.91882e-26
3.65267e-26
3.72504e-26
5.56333e-26
4.52111e-27
8.16345e-26
3.65267e-26
1.96917e-26
2.60137e-26
1.08224e-25
6.17164e-26
4.37873e-26
2.36395e-26
8.92277e-28
8.42929e-27
1.53766e-27
1.00117e-25
1.79054e-26
9.21831e-26
6.15681e-27
4.35377e-27
3.67671e-26
1.79054e-26
1.21919e-26
3.32718e-26
6.3405e-26
1.96256e-26
6.37614e-26
1.02479e-26
5.68247e-26
3.54248e-26
2.89182e-29
1.18476e-26
8.45765e-26
1.29531e-25
7.3424e-27
9.95714e-26
3.65942e-24
)
;

boundaryField
{
    inlet
    {
        type            calculated;
        value           uniform 2.26065e-25;
    }
    outlet
    {
        type            calculated;
        value           uniform 3.65942e-24;
    }
    emptyWalls
    {
        type            empty;
    }
}


// ************************************************************************* //
