/*--------------------------------*- C++ -*----------------------------------*\
  =========                 |
  \\      /  F ield         | OpenFOAM: The Open Source CFD Toolbox
   \\    /   O peration     | Website:  https://openfoam.org
    \\  /    A nd           | Version:  9
     \\/     M anipulation  |
\*---------------------------------------------------------------------------*/
FoamFile
{
    format      ascii;
    class       volScalarField;
    location    "91000";
    object      p;
}
// * * * * * * * * * * * * * * * * * * * * * * * * * * * * * * * * * * * * * //

dimensions      [0 0 0 0 0 0 0];

internalField   nonuniform List<scalar> 
100
(
4.23143e+06
4.1872e+06
4.14297e+06
4.09874e+06
4.0545e+06
4.01027e+06
3.96604e+06
3.9218e+06
3.87757e+06
3.83334e+06
3.7891e+06
3.74487e+06
3.70064e+06
3.6564e+06
3.61215e+06
3.56792e+06
3.5237e+06
3.47947e+06
3.43524e+06
3.391e+06
3.34677e+06
3.30254e+06
3.25831e+06
3.21407e+06
3.16984e+06
3.12561e+06
3.08137e+06
3.03714e+06
2.99291e+06
2.94868e+06
2.90444e+06
2.86021e+06
2.81598e+06
2.77174e+06
2.72751e+06
2.68328e+06
2.63904e+06
2.59481e+06
2.5506e+06
2.50742e+06
2.46562e+06
2.42429e+06
2.38316e+06
2.34206e+06
2.3009e+06
2.25949e+06
2.21788e+06
2.17619e+06
2.13448e+06
2.09276e+06
2.05129e+06
2.01001e+06
1.96887e+06
1.92778e+06
1.88671e+06
1.84565e+06
1.80447e+06
1.76301e+06
1.72134e+06
1.67958e+06
1.6378e+06
1.59603e+06
1.55461e+06
1.51337e+06
1.47226e+06
1.43119e+06
1.39014e+06
1.3491e+06
1.30784e+06
1.2663e+06
1.22456e+06
1.18275e+06
1.14094e+06
1.09921e+06
1.05788e+06
1.01671e+06
975639
934592
893554
852515
811173
769536
727715
685859
644027
602525
561291
520184
479138
438100
397034
355924
314481
272613
230427
188158
145871
103713
61974.6
20413.8
)
;

boundaryField
{
    inlet
    {
        type            darcyGradPressure;
        gradient        uniform 1.67102e+07;
        Mf              Mf;
        phi             phi;
        value           uniform 4.25207e+06;
    }
    outlet
    {
        type            fixedValue;
        value           uniform 0;
    }
    emptyWalls
    {
        type            empty;
    }
}


// ************************************************************************* //
