/*--------------------------------*- C++ -*----------------------------------*\
  =========                 |
  \\      /  F ield         | OpenFOAM: The Open Source CFD Toolbox
   \\    /   O peration     | Website:  https://openfoam.org
    \\  /    A nd           | Version:  9
     \\/     M anipulation  |
\*---------------------------------------------------------------------------*/
FoamFile
{
    format      ascii;
    class       surfaceScalarField;
    location    "91000";
    object      phia;
}
// * * * * * * * * * * * * * * * * * * * * * * * * * * * * * * * * * * * * * //

dimensions      [0 2 0 0 0 0 0];

internalField   nonuniform List<scalar> 
99
(
1.46187e-09
1.46187e-09
1.46187e-09
1.46187e-09
1.46187e-09
1.46187e-09
1.46187e-09
1.46187e-09
1.46187e-09
1.46187e-09
1.46187e-09
1.46187e-09
1.46128e-09
1.46108e-09
1.46206e-09
1.46228e-09
1.4622e-09
1.46202e-09
1.46196e-09
1.46191e-09
1.46189e-09
1.46188e-09
1.46188e-09
1.46187e-09
1.46187e-09
1.46187e-09
1.46187e-09
1.46187e-09
1.46187e-09
1.46187e-09
1.46187e-09
1.46187e-09
1.46187e-09
1.46187e-09
1.46187e-09
1.46185e-09
1.46184e-09
1.46346e-09
1.34954e-09
1.28246e-09
1.26392e-09
1.25625e-09
1.25522e-09
1.25711e-09
1.26728e-09
1.27493e-09
1.27802e-09
1.27908e-09
1.27912e-09
1.26953e-09
1.26203e-09
1.25673e-09
1.25462e-09
1.2537e-09
1.25359e-09
1.25832e-09
1.26888e-09
1.27753e-09
1.2807e-09
1.2816e-09
1.28127e-09
1.26778e-09
1.26029e-09
1.25548e-09
1.25377e-09
1.25312e-09
1.25307e-09
1.2611e-09
1.27214e-09
1.28035e-09
1.28268e-09
1.28311e-09
1.27951e-09
1.26384e-09
1.25773e-09
1.25411e-09
1.25302e-09
1.25269e-09
1.25269e-09
1.26448e-09
1.27605e-09
1.28332e-09
1.2847e-09
1.28373e-09
1.27075e-09
1.26025e-09
1.25533e-09
1.253e-09
1.25264e-09
1.25377e-09
1.25546e-09
1.2684e-09
1.28527e-09
1.29797e-09
1.30139e-09
1.30214e-09
1.29683e-09
1.28004e-09
1.27298e-09
)
;

boundaryField
{
    inlet
    {
        type            calculated;
        value           uniform -1.46187e-09;
    }
    outlet
    {
        type            calculated;
        value           uniform 1.26693e-09;
    }
    emptyWalls
    {
        type            empty;
        value           nonuniform List<scalar> 0();
    }
}


// ************************************************************************* //
