/*--------------------------------*- C++ -*----------------------------------*\
  =========                 |
  \\      /  F ield         | OpenFOAM: The Open Source CFD Toolbox
   \\    /   O peration     | Website:  https://openfoam.org
    \\  /    A nd           | Version:  9
     \\/     M anipulation  |
\*---------------------------------------------------------------------------*/
FoamFile
{
    format      ascii;
    class       surfaceScalarField;
    location    "91000";
    object      phib;
}
// * * * * * * * * * * * * * * * * * * * * * * * * * * * * * * * * * * * * * //

dimensions      [0 2 0 0 0 0 0];

internalField   nonuniform List<scalar> 
99
(
1.46187e-09
1.46187e-09
1.46187e-09
1.46187e-09
1.46187e-09
1.46187e-09
1.46187e-09
1.46187e-09
1.46187e-09
1.46187e-09
1.46187e-09
1.46187e-09
1.46246e-09
1.46266e-09
1.46168e-09
1.46146e-09
1.46154e-09
1.46172e-09
1.46178e-09
1.46183e-09
1.46185e-09
1.46186e-09
1.46186e-09
1.46187e-09
1.46187e-09
1.46187e-09
1.46187e-09
1.46187e-09
1.46187e-09
1.46187e-09
1.46187e-09
1.46187e-09
1.46187e-09
1.46187e-09
1.46187e-09
1.46189e-09
1.4619e-09
1.46029e-09
1.5742e-09
1.64129e-09
1.65982e-09
1.66749e-09
1.66852e-09
1.66663e-09
1.65646e-09
1.64881e-09
1.64572e-09
1.64466e-09
1.64462e-09
1.65421e-09
1.66171e-09
1.66701e-09
1.66912e-09
1.67004e-09
1.67015e-09
1.66542e-09
1.65486e-09
1.64621e-09
1.64305e-09
1.64214e-09
1.64247e-09
1.65596e-09
1.66345e-09
1.66826e-09
1.66997e-09
1.67062e-09
1.67067e-09
1.66264e-09
1.6516e-09
1.6434e-09
1.64106e-09
1.64063e-09
1.64423e-09
1.6599e-09
1.66601e-09
1.66963e-09
1.67072e-09
1.67105e-09
1.67105e-09
1.65926e-09
1.64769e-09
1.64042e-09
1.63904e-09
1.64002e-09
1.65299e-09
1.66349e-09
1.66841e-09
1.67074e-09
1.6711e-09
1.66997e-09
1.66828e-09
1.65534e-09
1.63847e-09
1.62577e-09
1.62235e-09
1.6216e-09
1.62692e-09
1.6437e-09
1.65076e-09
)
;

boundaryField
{
    inlet
    {
        type            calculated;
        value           uniform -1.46187e-09;
    }
    outlet
    {
        type            calculated;
        value           uniform 1.65681e-09;
    }
    emptyWalls
    {
        type            empty;
        value           nonuniform List<scalar> 0();
    }
}


// ************************************************************************* //
