/*--------------------------------*- C++ -*----------------------------------*\
  =========                 |
  \\      /  F ield         | OpenFOAM: The Open Source CFD Toolbox
   \\    /   O peration     | Website:  https://openfoam.org
    \\  /    A nd           | Version:  9
     \\/     M anipulation  |
\*---------------------------------------------------------------------------*/
FoamFile
{
    format      ascii;
    class       volVectorField;
    location    "91000";
    object      Ua;
}
// * * * * * * * * * * * * * * * * * * * * * * * * * * * * * * * * * * * * * //

dimensions      [0 0 0 0 0 0 0];

internalField   nonuniform List<vector> 
100
(
(1.51077e-05 0 0)
(1.46187e-05 0 0)
(1.46187e-05 0 0)
(1.46187e-05 0 0)
(1.46187e-05 0 0)
(1.46187e-05 0 0)
(1.46187e-05 0 0)
(1.46187e-05 0 0)
(1.46187e-05 0 0)
(1.46187e-05 0 0)
(1.46187e-05 0 0)
(1.46187e-05 0 0)
(1.46158e-05 0 0)
(1.46118e-05 0 0)
(1.46157e-05 0 0)
(1.46217e-05 0 0)
(1.46224e-05 0 0)
(1.46211e-05 0 0)
(1.46199e-05 0 0)
(1.46194e-05 0 0)
(1.4619e-05 0 0)
(1.46189e-05 0 0)
(1.46188e-05 0 0)
(1.46187e-05 0 0)
(1.46187e-05 0 0)
(1.46187e-05 0 0)
(1.46187e-05 0 0)
(1.46187e-05 0 0)
(1.46187e-05 0 0)
(1.46187e-05 0 0)
(1.46187e-05 0 0)
(1.46187e-05 0 0)
(1.46187e-05 0 0)
(1.46187e-05 0 0)
(1.46187e-05 0 0)
(1.46186e-05 0 0)
(1.46185e-05 0 0)
(1.46265e-05 0 0)
(1.4065e-05 0 0)
(1.316e-05 0 0)
(1.27319e-05 0 0)
(1.26008e-05 0 0)
(1.25574e-05 0 0)
(1.25617e-05 0 0)
(1.2622e-05 0 0)
(1.27111e-05 0 0)
(1.27647e-05 0 0)
(1.27855e-05 0 0)
(1.2791e-05 0 0)
(1.27433e-05 0 0)
(1.26578e-05 0 0)
(1.25938e-05 0 0)
(1.25568e-05 0 0)
(1.25416e-05 0 0)
(1.25364e-05 0 0)
(1.25595e-05 0 0)
(1.2636e-05 0 0)
(1.27321e-05 0 0)
(1.27911e-05 0 0)
(1.28115e-05 0 0)
(1.28143e-05 0 0)
(1.27453e-05 0 0)
(1.26404e-05 0 0)
(1.25789e-05 0 0)
(1.25463e-05 0 0)
(1.25345e-05 0 0)
(1.2531e-05 0 0)
(1.25709e-05 0 0)
(1.26662e-05 0 0)
(1.27624e-05 0 0)
(1.28151e-05 0 0)
(1.28289e-05 0 0)
(1.28131e-05 0 0)
(1.27167e-05 0 0)
(1.26079e-05 0 0)
(1.25592e-05 0 0)
(1.25357e-05 0 0)
(1.25286e-05 0 0)
(1.25269e-05 0 0)
(1.25858e-05 0 0)
(1.27026e-05 0 0)
(1.27968e-05 0 0)
(1.28401e-05 0 0)
(1.28421e-05 0 0)
(1.27724e-05 0 0)
(1.2655e-05 0 0)
(1.25779e-05 0 0)
(1.25417e-05 0 0)
(1.25282e-05 0 0)
(1.25321e-05 0 0)
(1.25462e-05 0 0)
(1.26193e-05 0 0)
(1.27684e-05 0 0)
(1.29162e-05 0 0)
(1.29968e-05 0 0)
(1.30176e-05 0 0)
(1.29948e-05 0 0)
(1.28843e-05 0 0)
(1.27651e-05 0 0)
(1.26996e-05 0 0)
)
;

boundaryField
{
    inlet
    {
        type            fixedValue;
        value           uniform (1.46187e-05 0 0);
    }
    outlet
    {
        type            zeroGradient;
    }
    emptyWalls
    {
        type            empty;
    }
}


// ************************************************************************* //
