/*--------------------------------*- C++ -*----------------------------------*\
  =========                 |
  \\      /  F ield         | OpenFOAM: The Open Source CFD Toolbox
   \\    /   O peration     | Website:  https://openfoam.org
    \\  /    A nd           | Version:  9
     \\/     M anipulation  |
\*---------------------------------------------------------------------------*/
FoamFile
{
    format      ascii;
    class       volVectorField;
    location    "91000";
    object      Ub;
}
// * * * * * * * * * * * * * * * * * * * * * * * * * * * * * * * * * * * * * //

dimensions      [0 0 0 0 0 0 0];

internalField   nonuniform List<vector> 
100
(
(1.41297e-05 0 0)
(1.46187e-05 0 0)
(1.46187e-05 0 0)
(1.46187e-05 0 0)
(1.46187e-05 0 0)
(1.46187e-05 0 0)
(1.46187e-05 0 0)
(1.46187e-05 0 0)
(1.46187e-05 0 0)
(1.46187e-05 0 0)
(1.46187e-05 0 0)
(1.46187e-05 0 0)
(1.46216e-05 0 0)
(1.46256e-05 0 0)
(1.46217e-05 0 0)
(1.46157e-05 0 0)
(1.4615e-05 0 0)
(1.46163e-05 0 0)
(1.46175e-05 0 0)
(1.46181e-05 0 0)
(1.46184e-05 0 0)
(1.46185e-05 0 0)
(1.46186e-05 0 0)
(1.46187e-05 0 0)
(1.46187e-05 0 0)
(1.46187e-05 0 0)
(1.46187e-05 0 0)
(1.46187e-05 0 0)
(1.46187e-05 0 0)
(1.46187e-05 0 0)
(1.46187e-05 0 0)
(1.46187e-05 0 0)
(1.46187e-05 0 0)
(1.46187e-05 0 0)
(1.46187e-05 0 0)
(1.46188e-05 0 0)
(1.46189e-05 0 0)
(1.46109e-05 0 0)
(1.51724e-05 0 0)
(1.60774e-05 0 0)
(1.65055e-05 0 0)
(1.66366e-05 0 0)
(1.668e-05 0 0)
(1.66757e-05 0 0)
(1.66154e-05 0 0)
(1.65263e-05 0 0)
(1.64727e-05 0 0)
(1.64519e-05 0 0)
(1.64464e-05 0 0)
(1.64942e-05 0 0)
(1.65796e-05 0 0)
(1.66436e-05 0 0)
(1.66806e-05 0 0)
(1.66958e-05 0 0)
(1.6701e-05 0 0)
(1.66779e-05 0 0)
(1.66014e-05 0 0)
(1.65054e-05 0 0)
(1.64463e-05 0 0)
(1.64259e-05 0 0)
(1.64231e-05 0 0)
(1.64922e-05 0 0)
(1.6597e-05 0 0)
(1.66585e-05 0 0)
(1.66911e-05 0 0)
(1.67029e-05 0 0)
(1.67064e-05 0 0)
(1.66666e-05 0 0)
(1.65712e-05 0 0)
(1.6475e-05 0 0)
(1.64223e-05 0 0)
(1.64085e-05 0 0)
(1.64243e-05 0 0)
(1.65207e-05 0 0)
(1.66296e-05 0 0)
(1.66782e-05 0 0)
(1.67018e-05 0 0)
(1.67089e-05 0 0)
(1.67105e-05 0 0)
(1.66516e-05 0 0)
(1.65348e-05 0 0)
(1.64406e-05 0 0)
(1.63973e-05 0 0)
(1.63953e-05 0 0)
(1.6465e-05 0 0)
(1.65824e-05 0 0)
(1.66595e-05 0 0)
(1.66957e-05 0 0)
(1.67092e-05 0 0)
(1.67054e-05 0 0)
(1.66913e-05 0 0)
(1.66181e-05 0 0)
(1.64691e-05 0 0)
(1.63212e-05 0 0)
(1.62406e-05 0 0)
(1.62198e-05 0 0)
(1.62426e-05 0 0)
(1.63531e-05 0 0)
(1.64723e-05 0 0)
(1.65378e-05 0 0)
)
;

boundaryField
{
    inlet
    {
        type            fixedValue;
        value           uniform (1.46187e-05 0 0);
    }
    outlet
    {
        type            zeroGradient;
    }
    emptyWalls
    {
        type            empty;
    }
}


// ************************************************************************* //
