/*--------------------------------*- C++ -*----------------------------------*\
  =========                 |
  \\      /  F ield         | OpenFOAM: The Open Source CFD Toolbox
   \\    /   O peration     | Website:  https://openfoam.org
    \\  /    A nd           | Version:  9
     \\/     M anipulation  |
\*---------------------------------------------------------------------------*/
FoamFile
{
    format      ascii;
    class       volScalarField;
    location    "12250";
    object      Fa;
}
// * * * * * * * * * * * * * * * * * * * * * * * * * * * * * * * * * * * * * //

dimensions      [0 0 0 0 0 0 0];

internalField   nonuniform List<scalar> 
1000
(
0.194809
0.194759
0.194812
0.194631
0.194802
0.194437
0.1947
0.194254
0.194463
0.194121
0.194203
0.194016
0.19402
0.193895
0.193725
0.192935
0.187655
0.161327
0.152577
0.150587
0.149678
0.149128
0.148761
0.148494
0.148271
0.14808
0.147951
0.147945
0.148096
0.148378
0.148704
0.148969
0.149105
0.149112
0.149064
0.149023
0.148967
0.148736
0.14836
0.147919
0.147436
0.146957
0.1465
0.146095
0.145747
0.145477
0.145278
0.14516
0.145099
0.145077
0.145086
0.145113
0.145151
0.14519
0.145224
0.145249
0.145265
0.145267
0.145259
0.14524
0.145214
0.14518
0.145142
0.145099
0.145056
0.14501
0.144965
0.144919
0.144874
0.144829
0.144786
0.144743
0.144701
0.14466
0.144618
0.144577
0.144537
0.144496
0.144456
0.144416
0.144376
0.144336
0.144297
0.144258
0.144219
0.144181
0.144143
0.144106
0.14407
0.144034
0.143998
0.143964
0.14393
0.143897
0.143864
0.143833
0.143802
0.143772
0.143743
0.143714
0.143687
0.143661
0.143635
0.14361
0.143587
0.143564
0.143542
0.143521
0.143501
0.143482
0.143464
0.143446
0.14343
0.143415
0.1434
0.143387
0.143373
0.143361
0.143349
0.143336
0.143324
0.143312
0.143298
0.143285
0.143271
0.143258
0.143245
0.143233
0.143222
0.143213
0.143205
0.143198
0.143192
0.143186
0.143181
0.143176
0.143173
0.143171
0.143174
0.143182
0.143197
0.143221
0.143256
0.143303
0.143362
0.143436
0.143522
0.143622
0.143733
0.143854
0.143983
0.144117
0.144255
0.144392
0.144524
0.144649
0.144761
0.144858
0.144934
0.144986
0.145013
0.14501
0.144977
0.144914
0.144822
0.144702
0.144559
0.144395
0.144216
0.144027
0.143833
0.143638
0.143448
0.143267
0.143097
0.142941
0.142801
0.142677
0.14257
0.142478
0.142402
0.14234
0.142289
0.142248
0.142216
0.142189
0.142168
0.14215
0.142133
0.142117
0.1421
0.142083
0.142063
0.142042
0.142018
0.141992
0.141963
0.141932
0.141899
0.141864
0.141827
0.141788
0.141749
0.141708
0.141667
0.141625
0.141583
0.14154
0.141498
0.141455
0.141412
0.14137
0.141328
0.141286
0.141244
0.141203
0.141162
0.141121
0.141081
0.141041
0.141002
0.140963
0.140925
0.140886
0.140849
0.140811
0.140775
0.140738
0.140703
0.140667
0.140632
0.140597
0.140563
0.140529
0.140497
0.140464
0.140432
0.1404
0.14037
0.140339
0.14031
0.140281
0.140252
0.140224
0.140197
0.140171
0.140145
0.140119
0.140095
0.140071
0.140049
0.140025
0.140005
0.139982
0.139963
0.139941
0.139924
0.139903
0.139888
0.139867
0.139853
0.139834
0.13982
0.139802
0.139789
0.139771
0.139758
0.139741
0.139728
0.139712
0.139699
0.139684
0.13967
0.139657
0.139643
0.13963
0.139617
0.139605
0.139593
0.139581
0.13957
0.139559
0.13955
0.139541
0.139534
0.139528
0.139524
0.139522
0.139522
0.139526
0.139533
0.139545
0.139561
0.139581
0.139607
0.139638
0.139675
0.139718
0.139766
0.13982
0.139879
0.139943
0.140011
0.140083
0.140158
0.140234
0.140312
0.140388
0.140463
0.140535
0.140603
0.140664
0.140718
0.140762
0.140797
0.140821
0.140832
0.14083
0.140814
0.140785
0.140741
0.140684
0.140614
0.140531
0.140437
0.140333
0.140221
0.140102
0.139979
0.139852
0.139723
0.139595
0.139468
0.139344
0.139225
0.13911
0.139002
0.1389
0.138805
0.138717
0.138636
0.138561
0.138494
0.138432
0.138376
0.138325
0.138278
0.138235
0.138196
0.138159
0.138124
0.138091
0.138059
0.138028
0.137997
0.137966
0.137935
0.137903
0.137871
0.137838
0.137804
0.137769
0.137734
0.137697
0.13766
0.137622
0.137583
0.137543
0.137503
0.137462
0.137422
0.13738
0.137339
0.137297
0.137256
0.137214
0.137173
0.137132
0.13709
0.13705
0.137009
0.136969
0.136929
0.136889
0.13685
0.136811
0.136772
0.136734
0.136696
0.136658
0.136621
0.136584
0.136547
0.13651
0.136474
0.136438
0.136403
0.136368
0.136333
0.136298
0.136264
0.13623
0.136196
0.136163
0.13613
0.136097
0.136064
0.136032
0.136
0.135969
0.135938
0.135907
0.135876
0.135846
0.135816
0.135787
0.135758
0.135729
0.135701
0.135673
0.135645
0.135618
0.135591
0.135564
0.135538
0.135512
0.135487
0.135461
0.135436
0.135412
0.135387
0.135363
0.135339
0.135315
0.135292
0.135269
0.135245
0.135222
0.1352
0.135177
0.135154
0.135132
0.135109
0.135087
0.135065
0.135043
0.135021
0.135
0.134978
0.134957
0.134936
0.134915
0.134895
0.134875
0.134855
0.134837
0.134819
0.134802
0.134786
0.134772
0.134759
0.134747
0.134739
0.134731
0.134728
0.134726
0.134726
0.134734
0.134739
0.134755
0.13477
0.13479
0.134819
0.134845
0.134882
0.134921
0.134961
0.135013
0.135064
0.13512
0.135171
0.135237
0.135287
0.135345
0.135402
0.135441
0.13546
0.135441
0.13536
0.135183
0.134879
0.134445
0.133951
0.133527
0.133258
0.133129
0.133082
0.133073
0.133078
0.133088
0.133095
0.133099
0.133097
0.13309
0.133076
0.133056
0.13303
0.132998
0.132961
0.132918
0.132871
0.132819
0.132764
0.132706
0.132645
0.132583
0.132519
0.132454
0.13239
0.132326
0.132263
0.132201
0.132141
0.132083
0.132028
0.131976
0.131926
0.13188
0.131836
0.131796
0.131759
0.131725
0.131695
0.131667
0.131641
0.131619
0.131598
0.13158
0.131564
0.131549
0.131536
0.131525
0.131514
0.131505
0.131496
0.131488
0.13148
0.131472
0.131465
0.131458
0.131451
0.131443
0.131436
0.131428
0.13142
0.131411
0.131403
0.131394
0.131384
0.131375
0.131365
0.131355
0.131344
0.131333
0.131322
0.131311
0.1313
0.131288
0.131277
0.131265
0.131254
0.131242
0.131231
0.131219
0.131208
0.131197
0.131185
0.131175
0.131164
0.131153
0.131143
0.131133
0.131123
0.131113
0.131104
0.131095
0.131086
0.131078
0.131069
0.131061
0.131054
0.131046
0.131039
0.131032
0.131026
0.131019
0.131013
0.131008
0.131002
0.130997
0.130992
0.130988
0.130983
0.130979
0.130976
0.130972
0.130969
0.130966
0.130963
0.130961
0.130959
0.130957
0.130956
0.130954
0.130953
0.130953
0.130952
0.130952
0.130952
0.130952
0.130952
0.130953
0.130954
0.130956
0.130957
0.130959
0.130962
0.130964
0.130967
0.13097
0.130973
0.130976
0.13098
0.130984
0.130988
0.130992
0.130997
0.131002
0.131006
0.131012
0.131017
0.131023
0.131028
0.131034
0.13104
0.131047
0.131053
0.13106
0.131067
0.131075
0.131083
0.131091
0.131099
0.131108
0.131117
0.131126
0.131136
0.131147
0.131158
0.13117
0.131183
0.131197
0.131211
0.131226
0.131243
0.13126
0.131279
0.131299
0.131321
0.131344
0.131369
0.131395
0.131423
0.131453
0.131485
0.131518
0.131554
0.131591
0.13163
0.131672
0.131715
0.13176
0.131806
0.131855
0.131904
0.131956
0.132008
0.132062
0.132116
0.132171
0.132227
0.132282
0.132338
0.132393
0.132447
0.1325
0.132552
0.132602
0.13265
0.132695
0.132738
0.132777
0.132813
0.132846
0.132874
0.132898
0.132918
0.132933
0.132943
0.132948
0.132949
0.132949
0.132948
0.132938
0.132919
0.132896
0.132868
0.132836
0.1328
0.132761
0.132719
0.132674
0.132627
0.132578
0.132528
0.132476
0.132424
0.132372
0.13232
0.132268
0.132218
0.132168
0.13212
0.132073
0.132029
0.131986
0.131945
0.131907
0.13187
0.131836
0.131804
0.131774
0.131747
0.131721
0.131698
0.131676
0.131656
0.131637
0.13162
0.131604
0.131589
0.131576
0.131563
0.131551
0.13154
0.131529
0.131518
0.131508
0.131498
0.131488
0.131478
0.131468
0.131458
0.131448
0.131438
0.131428
0.131417
0.131407
0.131396
0.131384
0.131373
0.131361
0.13135
0.131338
0.131326
0.131313
0.131301
0.131289
0.131277
0.131264
0.131252
0.13124
0.131228
0.131216
0.131204
0.131192
0.13118
0.131169
0.131158
0.131147
0.131136
0.131126
0.131116
0.131106
0.131097
0.131088
0.131079
0.131071
0.131063
0.131055
0.131047
0.13104
0.131033
0.131027
0.131021
0.131015
0.13101
0.131004
0.131
0.130995
0.130991
0.130987
0.130983
0.13098
0.130977
0.130974
0.130972
0.130969
0.130967
0.130966
0.130964
0.130963
0.130962
0.130962
0.130962
0.130962
0.130962
0.130962
0.130962
0.130963
0.130964
0.130966
0.130968
0.13097
0.130972
0.130975
0.130978
0.130981
0.130984
0.130988
0.130992
0.130996
0.131
0.131005
0.13101
0.131015
0.13102
0.131026
0.131032
0.131038
0.131045
0.131052
0.131059
0.131066
0.131074
0.131083
0.131091
0.1311
0.13111
0.131119
0.13113
0.131141
0.131152
0.131164
0.131177
0.13119
0.131205
0.13122
0.131236
0.131252
0.13127
0.131289
0.131309
0.13133
0.131352
0.131375
0.1314
0.131426
0.131454
0.131482
0.131513
0.131545
0.131578
0.131613
0.131649
0.131687
0.131726
0.131766
0.131808
0.131851
0.131895
0.131941
0.131987
0.132034
0.132082
0.13213
0.132179
0.132228
0.132276
0.132325
0.132373
0.13242
0.132467
0.132512
0.132556
0.132598
0.132639
0.132677
0.132713
0.132746
0.132776
0.132804
0.132828
0.132848
0.132866
0.132879
0.132888
0.132894
0.132895
0.132895
0.132895
0.13289
0.132876
0.132859
0.132837
0.132812
0.132784
0.132752
0.132718
0.132681
0.132642
0.132601
0.132559
0.132515
0.13247
0.132424
0.132378
0.132331
0.132285
0.132239
0.132194
0.13215
0.132106
0.132064
0.132023
0.131983
0.131945
0.131909
0.131874
0.131841
0.13181
0.13178
0.131752
0.131725
0.1317
0.131676
0.131653
0.131632
0.131612
0.131593
0.131575
0.131558
0.131542
0.131526
0.131511
0.131497
0.131483
0.131469
0.131456
0.131443
0.13143
0.131417
0.131404
0.131393
0.131379
0.131368
0.131353
0.131343
0.131328
0.131318
0.131303
0.131293
0.131277
0.131268
0.131252
0.131243
0.131226
0.131218
0.131201
0.131194
0.131176
0.13117
0.131152
0.131146
0.131129
0.131124
0.131106
0.131102
0.131085
0.131081
)
;

boundaryField
{
    inlet
    {
        type            calculated;
        value           uniform 0.194831;
    }
    outlet
    {
        type            calculated;
        value           uniform 0.131073;
    }
    emptyWalls
    {
        type            empty;
    }
}


// ************************************************************************* //
