/*--------------------------------*- C++ -*----------------------------------*\
  =========                 |
  \\      /  F ield         | OpenFOAM: The Open Source CFD Toolbox
   \\    /   O peration     | Website:  https://openfoam.org
    \\  /    A nd           | Version:  9
     \\/     M anipulation  |
\*---------------------------------------------------------------------------*/
FoamFile
{
    format      ascii;
    class       volVectorField;
    location    "15400";
    object      Ub;
}
// * * * * * * * * * * * * * * * * * * * * * * * * * * * * * * * * * * * * * //

dimensions      [0 0 0 0 0 0 0];

internalField   nonuniform List<vector> 
1000
(
(1.13621e-05 0 0)
(1.13624e-05 0 0)
(1.13624e-05 0 0)
(1.13627e-05 0 0)
(1.13628e-05 0 0)
(1.13631e-05 0 0)
(1.13635e-05 0 0)
(1.13638e-05 0 0)
(1.13643e-05 0 0)
(1.13648e-05 0 0)
(1.13654e-05 0 0)
(1.13661e-05 0 0)
(1.13668e-05 0 0)
(1.13674e-05 0 0)
(1.13679e-05 0 0)
(1.13683e-05 0 0)
(1.13686e-05 0 0)
(1.13692e-05 0 0)
(1.13702e-05 0 0)
(1.1374e-05 0 0)
(1.13914e-05 0 0)
(1.15245e-05 0 0)
(1.16905e-05 0 0)
(1.17497e-05 0 0)
(1.17667e-05 0 0)
(1.17747e-05 0 0)
(1.17799e-05 0 0)
(1.17838e-05 0 0)
(1.1787e-05 0 0)
(1.17898e-05 0 0)
(1.17922e-05 0 0)
(1.17943e-05 0 0)
(1.17962e-05 0 0)
(1.17979e-05 0 0)
(1.17994e-05 0 0)
(1.18007e-05 0 0)
(1.18018e-05 0 0)
(1.18028e-05 0 0)
(1.18037e-05 0 0)
(1.18044e-05 0 0)
(1.18051e-05 0 0)
(1.18056e-05 0 0)
(1.1806e-05 0 0)
(1.18063e-05 0 0)
(1.18065e-05 0 0)
(1.18066e-05 0 0)
(1.18066e-05 0 0)
(1.18065e-05 0 0)
(1.18062e-05 0 0)
(1.18059e-05 0 0)
(1.18053e-05 0 0)
(1.18047e-05 0 0)
(1.18038e-05 0 0)
(1.18028e-05 0 0)
(1.18015e-05 0 0)
(1.18e-05 0 0)
(1.1798e-05 0 0)
(1.17954e-05 0 0)
(1.17922e-05 0 0)
(1.17883e-05 0 0)
(1.17837e-05 0 0)
(1.17786e-05 0 0)
(1.17732e-05 0 0)
(1.17676e-05 0 0)
(1.17617e-05 0 0)
(1.17558e-05 0 0)
(1.17498e-05 0 0)
(1.17437e-05 0 0)
(1.17375e-05 0 0)
(1.17313e-05 0 0)
(1.1725e-05 0 0)
(1.17187e-05 0 0)
(1.17122e-05 0 0)
(1.17057e-05 0 0)
(1.16992e-05 0 0)
(1.16926e-05 0 0)
(1.16859e-05 0 0)
(1.16792e-05 0 0)
(1.16726e-05 0 0)
(1.16659e-05 0 0)
(1.16593e-05 0 0)
(1.16526e-05 0 0)
(1.16459e-05 0 0)
(1.16389e-05 0 0)
(1.16318e-05 0 0)
(1.16242e-05 0 0)
(1.16163e-05 0 0)
(1.16079e-05 0 0)
(1.15992e-05 0 0)
(1.15902e-05 0 0)
(1.1581e-05 0 0)
(1.15716e-05 0 0)
(1.15621e-05 0 0)
(1.15527e-05 0 0)
(1.15433e-05 0 0)
(1.15341e-05 0 0)
(1.15251e-05 0 0)
(1.15164e-05 0 0)
(1.15081e-05 0 0)
(1.15003e-05 0 0)
(1.14931e-05 0 0)
(1.14865e-05 0 0)
(1.14805e-05 0 0)
(1.14752e-05 0 0)
(1.14703e-05 0 0)
(1.1466e-05 0 0)
(1.14619e-05 0 0)
(1.1458e-05 0 0)
(1.14542e-05 0 0)
(1.14504e-05 0 0)
(1.14463e-05 0 0)
(1.1442e-05 0 0)
(1.14373e-05 0 0)
(1.14323e-05 0 0)
(1.14269e-05 0 0)
(1.14211e-05 0 0)
(1.1415e-05 0 0)
(1.14086e-05 0 0)
(1.14019e-05 0 0)
(1.1395e-05 0 0)
(1.13879e-05 0 0)
(1.13807e-05 0 0)
(1.13734e-05 0 0)
(1.13661e-05 0 0)
(1.13588e-05 0 0)
(1.13515e-05 0 0)
(1.13442e-05 0 0)
(1.13369e-05 0 0)
(1.13297e-05 0 0)
(1.13226e-05 0 0)
(1.13154e-05 0 0)
(1.13084e-05 0 0)
(1.13013e-05 0 0)
(1.12943e-05 0 0)
(1.12873e-05 0 0)
(1.12803e-05 0 0)
(1.12734e-05 0 0)
(1.12664e-05 0 0)
(1.12595e-05 0 0)
(1.12525e-05 0 0)
(1.12456e-05 0 0)
(1.12386e-05 0 0)
(1.12316e-05 0 0)
(1.12247e-05 0 0)
(1.12177e-05 0 0)
(1.12107e-05 0 0)
(1.12036e-05 0 0)
(1.11966e-05 0 0)
(1.11895e-05 0 0)
(1.11825e-05 0 0)
(1.11754e-05 0 0)
(1.11683e-05 0 0)
(1.11611e-05 0 0)
(1.1154e-05 0 0)
(1.11468e-05 0 0)
(1.11396e-05 0 0)
(1.11324e-05 0 0)
(1.11252e-05 0 0)
(1.1118e-05 0 0)
(1.11107e-05 0 0)
(1.11034e-05 0 0)
(1.10961e-05 0 0)
(1.10888e-05 0 0)
(1.10815e-05 0 0)
(1.10741e-05 0 0)
(1.10667e-05 0 0)
(1.10593e-05 0 0)
(1.10519e-05 0 0)
(1.10445e-05 0 0)
(1.1037e-05 0 0)
(1.10296e-05 0 0)
(1.10221e-05 0 0)
(1.10146e-05 0 0)
(1.1007e-05 0 0)
(1.09995e-05 0 0)
(1.09919e-05 0 0)
(1.09843e-05 0 0)
(1.09767e-05 0 0)
(1.09691e-05 0 0)
(1.09615e-05 0 0)
(1.09538e-05 0 0)
(1.09461e-05 0 0)
(1.09384e-05 0 0)
(1.09307e-05 0 0)
(1.0923e-05 0 0)
(1.09152e-05 0 0)
(1.09074e-05 0 0)
(1.08997e-05 0 0)
(1.08919e-05 0 0)
(1.0884e-05 0 0)
(1.08762e-05 0 0)
(1.08684e-05 0 0)
(1.08606e-05 0 0)
(1.08527e-05 0 0)
(1.08449e-05 0 0)
(1.0837e-05 0 0)
(1.08291e-05 0 0)
(1.08212e-05 0 0)
(1.08133e-05 0 0)
(1.08054e-05 0 0)
(1.07974e-05 0 0)
(1.07895e-05 0 0)
(1.07815e-05 0 0)
(1.07735e-05 0 0)
(1.07655e-05 0 0)
(1.07575e-05 0 0)
(1.07495e-05 0 0)
(1.07415e-05 0 0)
(1.07334e-05 0 0)
(1.07253e-05 0 0)
(1.07172e-05 0 0)
(1.0709e-05 0 0)
(1.07008e-05 0 0)
(1.06924e-05 0 0)
(1.0684e-05 0 0)
(1.06755e-05 0 0)
(1.06668e-05 0 0)
(1.06581e-05 0 0)
(1.06492e-05 0 0)
(1.06401e-05 0 0)
(1.0631e-05 0 0)
(1.06217e-05 0 0)
(1.06124e-05 0 0)
(1.06029e-05 0 0)
(1.05934e-05 0 0)
(1.05838e-05 0 0)
(1.05742e-05 0 0)
(1.05645e-05 0 0)
(1.05549e-05 0 0)
(1.05454e-05 0 0)
(1.05359e-05 0 0)
(1.05266e-05 0 0)
(1.05174e-05 0 0)
(1.05084e-05 0 0)
(1.04995e-05 0 0)
(1.0491e-05 0 0)
(1.04826e-05 0 0)
(1.04745e-05 0 0)
(1.04666e-05 0 0)
(1.0459e-05 0 0)
(1.04516e-05 0 0)
(1.04444e-05 0 0)
(1.04374e-05 0 0)
(1.04306e-05 0 0)
(1.04238e-05 0 0)
(1.04172e-05 0 0)
(1.04105e-05 0 0)
(1.04039e-05 0 0)
(1.03973e-05 0 0)
(1.03906e-05 0 0)
(1.03838e-05 0 0)
(1.03769e-05 0 0)
(1.03698e-05 0 0)
(1.03627e-05 0 0)
(1.03554e-05 0 0)
(1.03479e-05 0 0)
(1.03403e-05 0 0)
(1.03326e-05 0 0)
(1.03248e-05 0 0)
(1.03169e-05 0 0)
(1.03088e-05 0 0)
(1.03007e-05 0 0)
(1.02925e-05 0 0)
(1.02843e-05 0 0)
(1.02759e-05 0 0)
(1.02676e-05 0 0)
(1.02592e-05 0 0)
(1.02508e-05 0 0)
(1.02424e-05 0 0)
(1.0234e-05 0 0)
(1.02256e-05 0 0)
(1.02172e-05 0 0)
(1.02088e-05 0 0)
(1.02003e-05 0 0)
(1.01919e-05 0 0)
(1.01836e-05 0 0)
(1.01752e-05 0 0)
(1.01668e-05 0 0)
(1.01584e-05 0 0)
(1.015e-05 0 0)
(1.01417e-05 0 0)
(1.01333e-05 0 0)
(1.01249e-05 0 0)
(1.01165e-05 0 0)
(1.01082e-05 0 0)
(1.00998e-05 0 0)
(1.00914e-05 0 0)
(1.0083e-05 0 0)
(1.00746e-05 0 0)
(1.00662e-05 0 0)
(1.00577e-05 0 0)
(1.00493e-05 0 0)
(1.00408e-05 0 0)
(1.00324e-05 0 0)
(1.00239e-05 0 0)
(1.00154e-05 0 0)
(1.00069e-05 0 0)
(9.99836e-06 0 0)
(9.98983e-06 0 0)
(9.98127e-06 0 0)
(9.9727e-06 0 0)
(9.96411e-06 0 0)
(9.95551e-06 0 0)
(9.94689e-06 0 0)
(9.93825e-06 0 0)
(9.9296e-06 0 0)
(9.92093e-06 0 0)
(9.91224e-06 0 0)
(9.90353e-06 0 0)
(9.89481e-06 0 0)
(9.88606e-06 0 0)
(9.8773e-06 0 0)
(9.86853e-06 0 0)
(9.85973e-06 0 0)
(9.85092e-06 0 0)
(9.84208e-06 0 0)
(9.83323e-06 0 0)
(9.82436e-06 0 0)
(9.81548e-06 0 0)
(9.80657e-06 0 0)
(9.79765e-06 0 0)
(9.7887e-06 0 0)
(9.77974e-06 0 0)
(9.77076e-06 0 0)
(9.76176e-06 0 0)
(9.75275e-06 0 0)
(9.74371e-06 0 0)
(9.73466e-06 0 0)
(9.72558e-06 0 0)
(9.71649e-06 0 0)
(9.70738e-06 0 0)
(9.69825e-06 0 0)
(9.68911e-06 0 0)
(9.67994e-06 0 0)
(9.67076e-06 0 0)
(9.66156e-06 0 0)
(9.65234e-06 0 0)
(9.64311e-06 0 0)
(9.63386e-06 0 0)
(9.62459e-06 0 0)
(9.61531e-06 0 0)
(9.60601e-06 0 0)
(9.5967e-06 0 0)
(9.58737e-06 0 0)
(9.57802e-06 0 0)
(9.56865e-06 0 0)
(9.55927e-06 0 0)
(9.54988e-06 0 0)
(9.54046e-06 0 0)
(9.53103e-06 0 0)
(9.52159e-06 0 0)
(9.51213e-06 0 0)
(9.50265e-06 0 0)
(9.49315e-06 0 0)
(9.48363e-06 0 0)
(9.4741e-06 0 0)
(9.46454e-06 0 0)
(9.45496e-06 0 0)
(9.44536e-06 0 0)
(9.43573e-06 0 0)
(9.42608e-06 0 0)
(9.41639e-06 0 0)
(9.40666e-06 0 0)
(9.3969e-06 0 0)
(9.38709e-06 0 0)
(9.37723e-06 0 0)
(9.36733e-06 0 0)
(9.35737e-06 0 0)
(9.34735e-06 0 0)
(9.33726e-06 0 0)
(9.32712e-06 0 0)
(9.31691e-06 0 0)
(9.30663e-06 0 0)
(9.29628e-06 0 0)
(9.28587e-06 0 0)
(9.2754e-06 0 0)
(9.26486e-06 0 0)
(9.25427e-06 0 0)
(9.24362e-06 0 0)
(9.23293e-06 0 0)
(9.22219e-06 0 0)
(9.21143e-06 0 0)
(9.20065e-06 0 0)
(9.18985e-06 0 0)
(9.17906e-06 0 0)
(9.16827e-06 0 0)
(9.15751e-06 0 0)
(9.14678e-06 0 0)
(9.1361e-06 0 0)
(9.12547e-06 0 0)
(9.11491e-06 0 0)
(9.10443e-06 0 0)
(9.09403e-06 0 0)
(9.08372e-06 0 0)
(9.07351e-06 0 0)
(9.0634e-06 0 0)
(9.0534e-06 0 0)
(9.04349e-06 0 0)
(9.03369e-06 0 0)
(9.02397e-06 0 0)
(9.01435e-06 0 0)
(9.00481e-06 0 0)
(8.99533e-06 0 0)
(8.98591e-06 0 0)
(8.97653e-06 0 0)
(8.96719e-06 0 0)
(8.95786e-06 0 0)
(8.94854e-06 0 0)
(8.9392e-06 0 0)
(8.92985e-06 0 0)
(8.92046e-06 0 0)
(8.91102e-06 0 0)
(8.90154e-06 0 0)
(8.89199e-06 0 0)
(8.88238e-06 0 0)
(8.8727e-06 0 0)
(8.86294e-06 0 0)
(8.85311e-06 0 0)
(8.8432e-06 0 0)
(8.83322e-06 0 0)
(8.82317e-06 0 0)
(8.81304e-06 0 0)
(8.80285e-06 0 0)
(8.7926e-06 0 0)
(8.78228e-06 0 0)
(8.77191e-06 0 0)
(8.76149e-06 0 0)
(8.75102e-06 0 0)
(8.74051e-06 0 0)
(8.72996e-06 0 0)
(8.71937e-06 0 0)
(8.70875e-06 0 0)
(8.6981e-06 0 0)
(8.68742e-06 0 0)
(8.67672e-06 0 0)
(8.66599e-06 0 0)
(8.65524e-06 0 0)
(8.64448e-06 0 0)
(8.63369e-06 0 0)
(8.62288e-06 0 0)
(8.61206e-06 0 0)
(8.60122e-06 0 0)
(8.59036e-06 0 0)
(8.57948e-06 0 0)
(8.56858e-06 0 0)
(8.55767e-06 0 0)
(8.54673e-06 0 0)
(8.53577e-06 0 0)
(8.5248e-06 0 0)
(8.5138e-06 0 0)
(8.50278e-06 0 0)
(8.49174e-06 0 0)
(8.48067e-06 0 0)
(8.46958e-06 0 0)
(8.45846e-06 0 0)
(8.44732e-06 0 0)
(8.43615e-06 0 0)
(8.42496e-06 0 0)
(8.41373e-06 0 0)
(8.40248e-06 0 0)
(8.3912e-06 0 0)
(8.37989e-06 0 0)
(8.36855e-06 0 0)
(8.35718e-06 0 0)
(8.34578e-06 0 0)
(8.33435e-06 0 0)
(8.32289e-06 0 0)
(8.31139e-06 0 0)
(8.29986e-06 0 0)
(8.2883e-06 0 0)
(8.2767e-06 0 0)
(8.26507e-06 0 0)
(8.25341e-06 0 0)
(8.24171e-06 0 0)
(8.22997e-06 0 0)
(8.2182e-06 0 0)
(8.2064e-06 0 0)
(8.19456e-06 0 0)
(8.18268e-06 0 0)
(8.17077e-06 0 0)
(8.15882e-06 0 0)
(8.14683e-06 0 0)
(8.13481e-06 0 0)
(8.12274e-06 0 0)
(8.11064e-06 0 0)
(8.0985e-06 0 0)
(8.08633e-06 0 0)
(8.07411e-06 0 0)
(8.06185e-06 0 0)
(8.04956e-06 0 0)
(8.03722e-06 0 0)
(8.02485e-06 0 0)
(8.01243e-06 0 0)
(7.99997e-06 0 0)
(7.98747e-06 0 0)
(7.97493e-06 0 0)
(7.96235e-06 0 0)
(7.94972e-06 0 0)
(7.93706e-06 0 0)
(7.92435e-06 0 0)
(7.91159e-06 0 0)
(7.8988e-06 0 0)
(7.88596e-06 0 0)
(7.87307e-06 0 0)
(7.86014e-06 0 0)
(7.84717e-06 0 0)
(7.83415e-06 0 0)
(7.82109e-06 0 0)
(7.80798e-06 0 0)
(7.79483e-06 0 0)
(7.78163e-06 0 0)
(7.76838e-06 0 0)
(7.75509e-06 0 0)
(7.74174e-06 0 0)
(7.72835e-06 0 0)
(7.71492e-06 0 0)
(7.70143e-06 0 0)
(7.6879e-06 0 0)
(7.67431e-06 0 0)
(7.66068e-06 0 0)
(7.64699e-06 0 0)
(7.63325e-06 0 0)
(7.61946e-06 0 0)
(7.60561e-06 0 0)
(7.59171e-06 0 0)
(7.57776e-06 0 0)
(7.56375e-06 0 0)
(7.54968e-06 0 0)
(7.53555e-06 0 0)
(7.52136e-06 0 0)
(7.50711e-06 0 0)
(7.4928e-06 0 0)
(7.47842e-06 0 0)
(7.46397e-06 0 0)
(7.44946e-06 0 0)
(7.43487e-06 0 0)
(7.42021e-06 0 0)
(7.40548e-06 0 0)
(7.39067e-06 0 0)
(7.37578e-06 0 0)
(7.36081e-06 0 0)
(7.34576e-06 0 0)
(7.33063e-06 0 0)
(7.31541e-06 0 0)
(7.3001e-06 0 0)
(7.28471e-06 0 0)
(7.26923e-06 0 0)
(7.25367e-06 0 0)
(7.23801e-06 0 0)
(7.22227e-06 0 0)
(7.20644e-06 0 0)
(7.19053e-06 0 0)
(7.17453e-06 0 0)
(7.15844e-06 0 0)
(7.14228e-06 0 0)
(7.12604e-06 0 0)
(7.10972e-06 0 0)
(7.09333e-06 0 0)
(7.07688e-06 0 0)
(7.06036e-06 0 0)
(7.04378e-06 0 0)
(7.02715e-06 0 0)
(7.01047e-06 0 0)
(6.99374e-06 0 0)
(6.97697e-06 0 0)
(6.96018e-06 0 0)
(6.94336e-06 0 0)
(6.92652e-06 0 0)
(6.90968e-06 0 0)
(6.89282e-06 0 0)
(6.87598e-06 0 0)
(6.85916e-06 0 0)
(6.84237e-06 0 0)
(6.82561e-06 0 0)
(6.80892e-06 0 0)
(6.79229e-06 0 0)
(6.77575e-06 0 0)
(6.75932e-06 0 0)
(6.74303e-06 0 0)
(6.72689e-06 0 0)
(6.71095e-06 0 0)
(6.69523e-06 0 0)
(6.67976e-06 0 0)
(6.66459e-06 0 0)
(6.64978e-06 0 0)
(6.63536e-06 0 0)
(6.62138e-06 0 0)
(6.60791e-06 0 0)
(6.59498e-06 0 0)
(6.58265e-06 0 0)
(6.57096e-06 0 0)
(6.55998e-06 0 0)
(6.54972e-06 0 0)
(6.54023e-06 0 0)
(6.53151e-06 0 0)
(6.52357e-06 0 0)
(6.51642e-06 0 0)
(6.51003e-06 0 0)
(6.50439e-06 0 0)
(6.49945e-06 0 0)
(6.49518e-06 0 0)
(6.4915e-06 0 0)
(6.48835e-06 0 0)
(6.48565e-06 0 0)
(6.4833e-06 0 0)
(6.48115e-06 0 0)
(6.47898e-06 0 0)
(6.47645e-06 0 0)
(6.473e-06 0 0)
(6.46765e-06 0 0)
(6.45872e-06 0 0)
(6.44324e-06 0 0)
(6.41602e-06 0 0)
(6.36818e-06 0 0)
(6.2851e-06 0 0)
(6.14431e-06 0 0)
(5.9157e-06 0 0)
(5.56909e-06 0 0)
(5.09411e-06 0 0)
(4.52583e-06 0 0)
(3.94786e-06 0 0)
(3.45283e-06 0 0)
(3.09138e-06 0 0)
(2.85947e-06 0 0)
(2.72372e-06 0 0)
(2.64873e-06 0 0)
(2.60869e-06 0 0)
(2.58771e-06 0 0)
(2.57683e-06 0 0)
(2.57123e-06 0 0)
(2.56835e-06 0 0)
(2.56689e-06 0 0)
(2.56614e-06 0 0)
(2.56578e-06 0 0)
(2.5656e-06 0 0)
(2.56552e-06 0 0)
(2.5655e-06 0 0)
(2.5655e-06 0 0)
(2.56552e-06 0 0)
(2.56554e-06 0 0)
(2.56556e-06 0 0)
(2.56559e-06 0 0)
(2.56562e-06 0 0)
(2.56565e-06 0 0)
(2.56568e-06 0 0)
(2.56571e-06 0 0)
(2.56574e-06 0 0)
(2.56577e-06 0 0)
(2.56579e-06 0 0)
(2.56582e-06 0 0)
(2.56585e-06 0 0)
(2.56588e-06 0 0)
(2.56591e-06 0 0)
(2.56593e-06 0 0)
(2.56596e-06 0 0)
(2.56598e-06 0 0)
(2.56601e-06 0 0)
(2.56603e-06 0 0)
(2.56605e-06 0 0)
(2.56607e-06 0 0)
(2.56609e-06 0 0)
(2.56611e-06 0 0)
(2.56613e-06 0 0)
(2.56615e-06 0 0)
(2.56616e-06 0 0)
(2.56618e-06 0 0)
(2.56619e-06 0 0)
(2.5662e-06 0 0)
(2.56621e-06 0 0)
(2.56623e-06 0 0)
(2.56623e-06 0 0)
(2.56624e-06 0 0)
(2.56625e-06 0 0)
(2.56625e-06 0 0)
(2.56626e-06 0 0)
(2.56626e-06 0 0)
(2.56626e-06 0 0)
(2.56627e-06 0 0)
(2.56627e-06 0 0)
(2.56626e-06 0 0)
(2.56626e-06 0 0)
(2.56626e-06 0 0)
(2.56626e-06 0 0)
(2.56625e-06 0 0)
(2.56624e-06 0 0)
(2.56624e-06 0 0)
(2.56623e-06 0 0)
(2.56622e-06 0 0)
(2.56621e-06 0 0)
(2.5662e-06 0 0)
(2.56619e-06 0 0)
(2.56618e-06 0 0)
(2.56617e-06 0 0)
(2.56616e-06 0 0)
(2.56614e-06 0 0)
(2.56613e-06 0 0)
(2.56611e-06 0 0)
(2.5661e-06 0 0)
(2.56608e-06 0 0)
(2.56607e-06 0 0)
(2.56605e-06 0 0)
(2.56603e-06 0 0)
(2.56601e-06 0 0)
(2.566e-06 0 0)
(2.56598e-06 0 0)
(2.56596e-06 0 0)
(2.56594e-06 0 0)
(2.56592e-06 0 0)
(2.5659e-06 0 0)
(2.56588e-06 0 0)
(2.56586e-06 0 0)
(2.56583e-06 0 0)
(2.56581e-06 0 0)
(2.56579e-06 0 0)
(2.56577e-06 0 0)
(2.56574e-06 0 0)
(2.56572e-06 0 0)
(2.56569e-06 0 0)
(2.56567e-06 0 0)
(2.56564e-06 0 0)
(2.56561e-06 0 0)
(2.56558e-06 0 0)
(2.56555e-06 0 0)
(2.56552e-06 0 0)
(2.56549e-06 0 0)
(2.56545e-06 0 0)
(2.56541e-06 0 0)
(2.56538e-06 0 0)
(2.56534e-06 0 0)
(2.56529e-06 0 0)
(2.56525e-06 0 0)
(2.5652e-06 0 0)
(2.56515e-06 0 0)
(2.56509e-06 0 0)
(2.56503e-06 0 0)
(2.56497e-06 0 0)
(2.56491e-06 0 0)
(2.56484e-06 0 0)
(2.56476e-06 0 0)
(2.56468e-06 0 0)
(2.5646e-06 0 0)
(2.56451e-06 0 0)
(2.56442e-06 0 0)
(2.56432e-06 0 0)
(2.56422e-06 0 0)
(2.56412e-06 0 0)
(2.56401e-06 0 0)
(2.56389e-06 0 0)
(2.56377e-06 0 0)
(2.56364e-06 0 0)
(2.56352e-06 0 0)
(2.56338e-06 0 0)
(2.56325e-06 0 0)
(2.56311e-06 0 0)
(2.56297e-06 0 0)
(2.56282e-06 0 0)
(2.56268e-06 0 0)
(2.56253e-06 0 0)
(2.56238e-06 0 0)
(2.56224e-06 0 0)
(2.56209e-06 0 0)
(2.56195e-06 0 0)
(2.56181e-06 0 0)
(2.56167e-06 0 0)
(2.56154e-06 0 0)
(2.56141e-06 0 0)
(2.56129e-06 0 0)
(2.56117e-06 0 0)
(2.56106e-06 0 0)
(2.56096e-06 0 0)
(2.56087e-06 0 0)
(2.56079e-06 0 0)
(2.56072e-06 0 0)
(2.56066e-06 0 0)
(2.56061e-06 0 0)
(2.56057e-06 0 0)
(2.56054e-06 0 0)
(2.56053e-06 0 0)
(2.56053e-06 0 0)
(2.56053e-06 0 0)
(2.56053e-06 0 0)
(2.56056e-06 0 0)
(2.5606e-06 0 0)
(2.56066e-06 0 0)
(2.56073e-06 0 0)
(2.56081e-06 0 0)
(2.5609e-06 0 0)
(2.561e-06 0 0)
(2.56111e-06 0 0)
(2.56122e-06 0 0)
(2.56134e-06 0 0)
(2.56147e-06 0 0)
(2.5616e-06 0 0)
(2.56173e-06 0 0)
(2.56187e-06 0 0)
(2.562e-06 0 0)
(2.56214e-06 0 0)
(2.56228e-06 0 0)
(2.56242e-06 0 0)
(2.56255e-06 0 0)
(2.56269e-06 0 0)
(2.56282e-06 0 0)
(2.56294e-06 0 0)
(2.56306e-06 0 0)
(2.56318e-06 0 0)
(2.5633e-06 0 0)
(2.5634e-06 0 0)
(2.56351e-06 0 0)
(2.5636e-06 0 0)
(2.5637e-06 0 0)
(2.56378e-06 0 0)
(2.56386e-06 0 0)
(2.56394e-06 0 0)
(2.56401e-06 0 0)
(2.56408e-06 0 0)
(2.56414e-06 0 0)
(2.5642e-06 0 0)
(2.56425e-06 0 0)
(2.5643e-06 0 0)
(2.56435e-06 0 0)
(2.56439e-06 0 0)
(2.56443e-06 0 0)
(2.56446e-06 0 0)
(2.5645e-06 0 0)
(2.56453e-06 0 0)
(2.56456e-06 0 0)
(2.56459e-06 0 0)
(2.56462e-06 0 0)
(2.56464e-06 0 0)
(2.56467e-06 0 0)
(2.56469e-06 0 0)
(2.56472e-06 0 0)
(2.56474e-06 0 0)
(2.56477e-06 0 0)
(2.56479e-06 0 0)
(2.56482e-06 0 0)
(2.56485e-06 0 0)
(2.56487e-06 0 0)
(2.5649e-06 0 0)
(2.56493e-06 0 0)
(2.56496e-06 0 0)
(2.56499e-06 0 0)
(2.56502e-06 0 0)
(2.56506e-06 0 0)
(2.56509e-06 0 0)
(2.56512e-06 0 0)
(2.56515e-06 0 0)
(2.56519e-06 0 0)
(2.56522e-06 0 0)
(2.56525e-06 0 0)
(2.56529e-06 0 0)
(2.56532e-06 0 0)
(2.56535e-06 0 0)
(2.56538e-06 0 0)
(2.56541e-06 0 0)
(2.56545e-06 0 0)
(2.56548e-06 0 0)
(2.56551e-06 0 0)
(2.56554e-06 0 0)
(2.56556e-06 0 0)
(2.56559e-06 0 0)
(2.56562e-06 0 0)
(2.56565e-06 0 0)
(2.56567e-06 0 0)
(2.5657e-06 0 0)
(2.56572e-06 0 0)
(2.56575e-06 0 0)
(2.56577e-06 0 0)
(2.56579e-06 0 0)
(2.56581e-06 0 0)
(2.56583e-06 0 0)
(2.56585e-06 0 0)
(2.56587e-06 0 0)
(2.56589e-06 0 0)
(2.56591e-06 0 0)
(2.56593e-06 0 0)
(2.56595e-06 0 0)
(2.56596e-06 0 0)
(2.56598e-06 0 0)
(2.56599e-06 0 0)
(2.56601e-06 0 0)
(2.56602e-06 0 0)
(2.56603e-06 0 0)
(2.56604e-06 0 0)
(2.56605e-06 0 0)
(2.56606e-06 0 0)
(2.56607e-06 0 0)
(2.56608e-06 0 0)
(2.56609e-06 0 0)
(2.56609e-06 0 0)
(2.5661e-06 0 0)
(2.56611e-06 0 0)
(2.56611e-06 0 0)
(2.56611e-06 0 0)
(2.56611e-06 0 0)
(2.56612e-06 0 0)
(2.56612e-06 0 0)
(2.56612e-06 0 0)
(2.56611e-06 0 0)
(2.56611e-06 0 0)
(2.56611e-06 0 0)
(2.56611e-06 0 0)
(2.5661e-06 0 0)
(2.5661e-06 0 0)
(2.56609e-06 0 0)
(2.56608e-06 0 0)
(2.56607e-06 0 0)
(2.56607e-06 0 0)
(2.56606e-06 0 0)
(2.56605e-06 0 0)
(2.56603e-06 0 0)
(2.56602e-06 0 0)
(2.56601e-06 0 0)
(2.56599e-06 0 0)
(2.56598e-06 0 0)
(2.56596e-06 0 0)
(2.56595e-06 0 0)
(2.56593e-06 0 0)
(2.56591e-06 0 0)
(2.56589e-06 0 0)
(2.56587e-06 0 0)
(2.56585e-06 0 0)
(2.56583e-06 0 0)
(2.5658e-06 0 0)
(2.56578e-06 0 0)
(2.56575e-06 0 0)
(2.56573e-06 0 0)
(2.5657e-06 0 0)
(2.56567e-06 0 0)
(2.56563e-06 0 0)
(2.5656e-06 0 0)
(2.56556e-06 0 0)
(2.56552e-06 0 0)
(2.56548e-06 0 0)
(2.56544e-06 0 0)
(2.5654e-06 0 0)
(2.56535e-06 0 0)
(2.5653e-06 0 0)
(2.56524e-06 0 0)
(2.56519e-06 0 0)
(2.56513e-06 0 0)
(2.56506e-06 0 0)
(2.56499e-06 0 0)
(2.56492e-06 0 0)
(2.56485e-06 0 0)
(2.56477e-06 0 0)
(2.56469e-06 0 0)
(2.5646e-06 0 0)
(2.56451e-06 0 0)
(2.56442e-06 0 0)
(2.56432e-06 0 0)
(2.56422e-06 0 0)
(2.56411e-06 0 0)
(2.564e-06 0 0)
(2.56389e-06 0 0)
(2.56377e-06 0 0)
(2.56365e-06 0 0)
(2.56353e-06 0 0)
(2.56341e-06 0 0)
(2.56328e-06 0 0)
(2.56315e-06 0 0)
(2.56302e-06 0 0)
(2.56289e-06 0 0)
(2.56276e-06 0 0)
(2.56262e-06 0 0)
(2.56249e-06 0 0)
(2.56236e-06 0 0)
(2.56223e-06 0 0)
(2.56211e-06 0 0)
(2.56198e-06 0 0)
(2.56186e-06 0 0)
(2.56175e-06 0 0)
(2.56163e-06 0 0)
(2.56153e-06 0 0)
(2.56143e-06 0 0)
(2.56133e-06 0 0)
(2.56124e-06 0 0)
(2.56116e-06 0 0)
(2.56109e-06 0 0)
(2.56103e-06 0 0)
(2.56097e-06 0 0)
(2.56092e-06 0 0)
(2.56089e-06 0 0)
(2.56086e-06 0 0)
(2.56085e-06 0 0)
(2.56084e-06 0 0)
(2.56084e-06 0 0)
(2.56084e-06 0 0)
(2.56085e-06 0 0)
(2.56088e-06 0 0)
(2.56091e-06 0 0)
(2.56096e-06 0 0)
(2.56102e-06 0 0)
(2.56109e-06 0 0)
(2.56117e-06 0 0)
(2.56126e-06 0 0)
(2.56135e-06 0 0)
(2.56144e-06 0 0)
(2.56155e-06 0 0)
(2.56166e-06 0 0)
)
;

boundaryField
{
    inlet
    {
        type            fixedValue;
        value           uniform (1.13622e-05 0 0);
    }
    outlet
    {
        type            zeroGradient;
    }
    emptyWalls
    {
        type            empty;
    }
}


// ************************************************************************* //
