/*--------------------------------*- C++ -*----------------------------------*\
  =========                 |
  \\      /  F ield         | OpenFOAM: The Open Source CFD Toolbox
   \\    /   O peration     | Website:  https://openfoam.org
    \\  /    A nd           | Version:  9
     \\/     M anipulation  |
\*---------------------------------------------------------------------------*/
FoamFile
{
    format      ascii;
    class       volVectorField;
    location    "15400";
    object      Uc;
}
// * * * * * * * * * * * * * * * * * * * * * * * * * * * * * * * * * * * * * //

dimensions      [0 0 0 0 0 0 0];

internalField   nonuniform List<vector> 
1000
(
(1.17381e-11 0 0)
(6.29842e-11 0 0)
(1.7499e-10 0 0)
(3.50366e-10 0 0)
(5.85621e-10 0 0)
(8.79042e-10 0 0)
(1.22873e-09 0 0)
(1.63129e-09 0 0)
(2.08102e-09 0 0)
(2.56923e-09 0 0)
(3.08394e-09 0 0)
(3.61036e-09 0 0)
(4.13212e-09 0 0)
(4.6333e-09 0 0)
(5.10081e-09 0 0)
(5.52828e-09 0 0)
(5.92873e-09 0 0)
(6.39472e-09 0 0)
(7.39031e-09 0 0)
(1.07539e-08 0 0)
(2.43267e-08 0 0)
(9.71046e-08 0 0)
(1.79762e-07 0 0)
(2.06379e-07 0 0)
(2.14782e-07 0 0)
(2.19007e-07 0 0)
(2.21858e-07 0 0)
(2.24116e-07 0 0)
(2.26061e-07 0 0)
(2.27817e-07 0 0)
(2.29445e-07 0 0)
(2.30978e-07 0 0)
(2.32437e-07 0 0)
(2.33834e-07 0 0)
(2.3518e-07 0 0)
(2.36482e-07 0 0)
(2.37748e-07 0 0)
(2.38984e-07 0 0)
(2.40198e-07 0 0)
(2.41397e-07 0 0)
(2.42586e-07 0 0)
(2.43773e-07 0 0)
(2.44964e-07 0 0)
(2.46165e-07 0 0)
(2.47383e-07 0 0)
(2.48635e-07 0 0)
(2.49942e-07 0 0)
(2.51298e-07 0 0)
(2.52697e-07 0 0)
(2.54145e-07 0 0)
(2.55653e-07 0 0)
(2.57236e-07 0 0)
(2.58915e-07 0 0)
(2.60722e-07 0 0)
(2.62703e-07 0 0)
(2.64925e-07 0 0)
(2.67478e-07 0 0)
(2.70464e-07 0 0)
(2.73978e-07 0 0)
(2.78069e-07 0 0)
(2.82705e-07 0 0)
(2.87785e-07 0 0)
(2.93195e-07 0 0)
(2.98842e-07 0 0)
(3.04666e-07 0 0)
(3.10626e-07 0 0)
(3.16693e-07 0 0)
(3.22846e-07 0 0)
(3.2907e-07 0 0)
(3.35354e-07 0 0)
(3.4169e-07 0 0)
(3.48071e-07 0 0)
(3.54492e-07 0 0)
(3.60949e-07 0 0)
(3.67439e-07 0 0)
(3.73959e-07 0 0)
(3.8051e-07 0 0)
(3.87088e-07 0 0)
(3.93692e-07 0 0)
(4.00322e-07 0 0)
(4.06977e-07 0 0)
(4.13655e-07 0 0)
(4.20353e-07 0 0)
(4.27068e-07 0 0)
(4.33796e-07 0 0)
(4.40535e-07 0 0)
(4.47281e-07 0 0)
(4.54033e-07 0 0)
(4.60792e-07 0 0)
(4.67559e-07 0 0)
(4.74335e-07 0 0)
(4.81122e-07 0 0)
(4.87922e-07 0 0)
(4.94736e-07 0 0)
(5.01566e-07 0 0)
(5.08415e-07 0 0)
(5.15286e-07 0 0)
(5.22181e-07 0 0)
(5.29104e-07 0 0)
(5.36059e-07 0 0)
(5.43048e-07 0 0)
(5.50075e-07 0 0)
(5.5714e-07 0 0)
(5.64243e-07 0 0)
(5.71382e-07 0 0)
(5.78554e-07 0 0)
(5.85755e-07 0 0)
(5.92981e-07 0 0)
(6.00225e-07 0 0)
(6.07484e-07 0 0)
(6.14752e-07 0 0)
(6.22025e-07 0 0)
(6.293e-07 0 0)
(6.36576e-07 0 0)
(6.43851e-07 0 0)
(6.51124e-07 0 0)
(6.58396e-07 0 0)
(6.65668e-07 0 0)
(6.72941e-07 0 0)
(6.80217e-07 0 0)
(6.87498e-07 0 0)
(6.94786e-07 0 0)
(7.02082e-07 0 0)
(7.09387e-07 0 0)
(7.16704e-07 0 0)
(7.24033e-07 0 0)
(7.31375e-07 0 0)
(7.3873e-07 0 0)
(7.46098e-07 0 0)
(7.5348e-07 0 0)
(7.60876e-07 0 0)
(7.68285e-07 0 0)
(7.75708e-07 0 0)
(7.83143e-07 0 0)
(7.90591e-07 0 0)
(7.98051e-07 0 0)
(8.05523e-07 0 0)
(8.13006e-07 0 0)
(8.20501e-07 0 0)
(8.28007e-07 0 0)
(8.35524e-07 0 0)
(8.43052e-07 0 0)
(8.5059e-07 0 0)
(8.58138e-07 0 0)
(8.65696e-07 0 0)
(8.73264e-07 0 0)
(8.80842e-07 0 0)
(8.8843e-07 0 0)
(8.96027e-07 0 0)
(9.03634e-07 0 0)
(9.11251e-07 0 0)
(9.18877e-07 0 0)
(9.26512e-07 0 0)
(9.34156e-07 0 0)
(9.4181e-07 0 0)
(9.49473e-07 0 0)
(9.57145e-07 0 0)
(9.64826e-07 0 0)
(9.72516e-07 0 0)
(9.80215e-07 0 0)
(9.87923e-07 0 0)
(9.95639e-07 0 0)
(1.00336e-06 0 0)
(1.0111e-06 0 0)
(1.01884e-06 0 0)
(1.02659e-06 0 0)
(1.03435e-06 0 0)
(1.04212e-06 0 0)
(1.0499e-06 0 0)
(1.05768e-06 0 0)
(1.06548e-06 0 0)
(1.07328e-06 0 0)
(1.08109e-06 0 0)
(1.08891e-06 0 0)
(1.09674e-06 0 0)
(1.10457e-06 0 0)
(1.11241e-06 0 0)
(1.12027e-06 0 0)
(1.12813e-06 0 0)
(1.13599e-06 0 0)
(1.14387e-06 0 0)
(1.15175e-06 0 0)
(1.15965e-06 0 0)
(1.16755e-06 0 0)
(1.17546e-06 0 0)
(1.18337e-06 0 0)
(1.1913e-06 0 0)
(1.19923e-06 0 0)
(1.20717e-06 0 0)
(1.21512e-06 0 0)
(1.22308e-06 0 0)
(1.23105e-06 0 0)
(1.23902e-06 0 0)
(1.247e-06 0 0)
(1.255e-06 0 0)
(1.263e-06 0 0)
(1.27101e-06 0 0)
(1.27902e-06 0 0)
(1.28705e-06 0 0)
(1.29508e-06 0 0)
(1.30312e-06 0 0)
(1.31117e-06 0 0)
(1.31923e-06 0 0)
(1.3273e-06 0 0)
(1.33537e-06 0 0)
(1.34345e-06 0 0)
(1.35154e-06 0 0)
(1.35964e-06 0 0)
(1.36775e-06 0 0)
(1.37586e-06 0 0)
(1.38398e-06 0 0)
(1.3921e-06 0 0)
(1.40022e-06 0 0)
(1.40835e-06 0 0)
(1.41647e-06 0 0)
(1.42459e-06 0 0)
(1.43271e-06 0 0)
(1.44083e-06 0 0)
(1.44894e-06 0 0)
(1.45704e-06 0 0)
(1.46514e-06 0 0)
(1.47324e-06 0 0)
(1.48133e-06 0 0)
(1.48942e-06 0 0)
(1.49751e-06 0 0)
(1.5056e-06 0 0)
(1.5137e-06 0 0)
(1.5218e-06 0 0)
(1.52991e-06 0 0)
(1.53804e-06 0 0)
(1.54618e-06 0 0)
(1.55435e-06 0 0)
(1.56254e-06 0 0)
(1.57076e-06 0 0)
(1.57901e-06 0 0)
(1.5873e-06 0 0)
(1.59562e-06 0 0)
(1.60399e-06 0 0)
(1.61239e-06 0 0)
(1.62083e-06 0 0)
(1.62932e-06 0 0)
(1.63783e-06 0 0)
(1.64639e-06 0 0)
(1.65497e-06 0 0)
(1.66358e-06 0 0)
(1.67221e-06 0 0)
(1.68086e-06 0 0)
(1.68953e-06 0 0)
(1.6982e-06 0 0)
(1.70688e-06 0 0)
(1.71555e-06 0 0)
(1.72423e-06 0 0)
(1.73291e-06 0 0)
(1.74158e-06 0 0)
(1.75024e-06 0 0)
(1.7589e-06 0 0)
(1.76755e-06 0 0)
(1.7762e-06 0 0)
(1.78484e-06 0 0)
(1.79348e-06 0 0)
(1.80211e-06 0 0)
(1.81075e-06 0 0)
(1.81938e-06 0 0)
(1.82802e-06 0 0)
(1.83667e-06 0 0)
(1.84532e-06 0 0)
(1.85397e-06 0 0)
(1.86264e-06 0 0)
(1.87131e-06 0 0)
(1.88e-06 0 0)
(1.88869e-06 0 0)
(1.8974e-06 0 0)
(1.90612e-06 0 0)
(1.91485e-06 0 0)
(1.9236e-06 0 0)
(1.93235e-06 0 0)
(1.94112e-06 0 0)
(1.9499e-06 0 0)
(1.9587e-06 0 0)
(1.9675e-06 0 0)
(1.97632e-06 0 0)
(1.98515e-06 0 0)
(1.994e-06 0 0)
(2.00285e-06 0 0)
(2.01172e-06 0 0)
(2.0206e-06 0 0)
(2.02948e-06 0 0)
(2.03838e-06 0 0)
(2.0473e-06 0 0)
(2.05622e-06 0 0)
(2.06515e-06 0 0)
(2.07409e-06 0 0)
(2.08305e-06 0 0)
(2.09201e-06 0 0)
(2.10099e-06 0 0)
(2.10998e-06 0 0)
(2.11897e-06 0 0)
(2.12798e-06 0 0)
(2.137e-06 0 0)
(2.14602e-06 0 0)
(2.15506e-06 0 0)
(2.16411e-06 0 0)
(2.17317e-06 0 0)
(2.18224e-06 0 0)
(2.19132e-06 0 0)
(2.20041e-06 0 0)
(2.20951e-06 0 0)
(2.21862e-06 0 0)
(2.22774e-06 0 0)
(2.23687e-06 0 0)
(2.24601e-06 0 0)
(2.25516e-06 0 0)
(2.26433e-06 0 0)
(2.2735e-06 0 0)
(2.28268e-06 0 0)
(2.29188e-06 0 0)
(2.30108e-06 0 0)
(2.31029e-06 0 0)
(2.31952e-06 0 0)
(2.32876e-06 0 0)
(2.338e-06 0 0)
(2.34726e-06 0 0)
(2.35653e-06 0 0)
(2.36581e-06 0 0)
(2.3751e-06 0 0)
(2.3844e-06 0 0)
(2.39371e-06 0 0)
(2.40303e-06 0 0)
(2.41236e-06 0 0)
(2.42171e-06 0 0)
(2.43106e-06 0 0)
(2.44043e-06 0 0)
(2.44981e-06 0 0)
(2.4592e-06 0 0)
(2.4686e-06 0 0)
(2.47801e-06 0 0)
(2.48743e-06 0 0)
(2.49687e-06 0 0)
(2.50631e-06 0 0)
(2.51577e-06 0 0)
(2.52524e-06 0 0)
(2.53473e-06 0 0)
(2.54422e-06 0 0)
(2.55373e-06 0 0)
(2.56325e-06 0 0)
(2.57278e-06 0 0)
(2.58233e-06 0 0)
(2.59188e-06 0 0)
(2.60145e-06 0 0)
(2.61103e-06 0 0)
(2.62063e-06 0 0)
(2.63024e-06 0 0)
(2.63986e-06 0 0)
(2.64949e-06 0 0)
(2.65913e-06 0 0)
(2.66879e-06 0 0)
(2.67846e-06 0 0)
(2.68814e-06 0 0)
(2.69783e-06 0 0)
(2.70754e-06 0 0)
(2.71725e-06 0 0)
(2.72698e-06 0 0)
(2.73671e-06 0 0)
(2.74645e-06 0 0)
(2.7562e-06 0 0)
(2.76595e-06 0 0)
(2.77571e-06 0 0)
(2.78547e-06 0 0)
(2.79524e-06 0 0)
(2.80501e-06 0 0)
(2.81478e-06 0 0)
(2.82456e-06 0 0)
(2.83433e-06 0 0)
(2.8441e-06 0 0)
(2.85388e-06 0 0)
(2.86366e-06 0 0)
(2.87344e-06 0 0)
(2.88322e-06 0 0)
(2.893e-06 0 0)
(2.9028e-06 0 0)
(2.9126e-06 0 0)
(2.9224e-06 0 0)
(2.93222e-06 0 0)
(2.94206e-06 0 0)
(2.95191e-06 0 0)
(2.96179e-06 0 0)
(2.97168e-06 0 0)
(2.98161e-06 0 0)
(2.99156e-06 0 0)
(3.00155e-06 0 0)
(3.01158e-06 0 0)
(3.02165e-06 0 0)
(3.03175e-06 0 0)
(3.04191e-06 0 0)
(3.05211e-06 0 0)
(3.06236e-06 0 0)
(3.07266e-06 0 0)
(3.08301e-06 0 0)
(3.09341e-06 0 0)
(3.10386e-06 0 0)
(3.11436e-06 0 0)
(3.12491e-06 0 0)
(3.1355e-06 0 0)
(3.14613e-06 0 0)
(3.15679e-06 0 0)
(3.1675e-06 0 0)
(3.17823e-06 0 0)
(3.18899e-06 0 0)
(3.19977e-06 0 0)
(3.21058e-06 0 0)
(3.2214e-06 0 0)
(3.23224e-06 0 0)
(3.24308e-06 0 0)
(3.25394e-06 0 0)
(3.26481e-06 0 0)
(3.27568e-06 0 0)
(3.28656e-06 0 0)
(3.29744e-06 0 0)
(3.30833e-06 0 0)
(3.31922e-06 0 0)
(3.33012e-06 0 0)
(3.34102e-06 0 0)
(3.35193e-06 0 0)
(3.36285e-06 0 0)
(3.37378e-06 0 0)
(3.38472e-06 0 0)
(3.39567e-06 0 0)
(3.40664e-06 0 0)
(3.41762e-06 0 0)
(3.42861e-06 0 0)
(3.43963e-06 0 0)
(3.45066e-06 0 0)
(3.46171e-06 0 0)
(3.47278e-06 0 0)
(3.48388e-06 0 0)
(3.495e-06 0 0)
(3.50614e-06 0 0)
(3.5173e-06 0 0)
(3.52849e-06 0 0)
(3.5397e-06 0 0)
(3.55094e-06 0 0)
(3.5622e-06 0 0)
(3.57349e-06 0 0)
(3.58481e-06 0 0)
(3.59615e-06 0 0)
(3.60752e-06 0 0)
(3.61892e-06 0 0)
(3.63034e-06 0 0)
(3.64179e-06 0 0)
(3.65326e-06 0 0)
(3.66476e-06 0 0)
(3.67629e-06 0 0)
(3.68785e-06 0 0)
(3.69943e-06 0 0)
(3.71104e-06 0 0)
(3.72267e-06 0 0)
(3.73434e-06 0 0)
(3.74602e-06 0 0)
(3.75774e-06 0 0)
(3.76948e-06 0 0)
(3.78125e-06 0 0)
(3.79305e-06 0 0)
(3.80488e-06 0 0)
(3.81673e-06 0 0)
(3.82861e-06 0 0)
(3.84052e-06 0 0)
(3.85245e-06 0 0)
(3.86442e-06 0 0)
(3.87641e-06 0 0)
(3.88843e-06 0 0)
(3.90048e-06 0 0)
(3.91256e-06 0 0)
(3.92467e-06 0 0)
(3.93681e-06 0 0)
(3.94897e-06 0 0)
(3.96117e-06 0 0)
(3.9734e-06 0 0)
(3.98566e-06 0 0)
(3.99794e-06 0 0)
(4.01026e-06 0 0)
(4.02261e-06 0 0)
(4.03499e-06 0 0)
(4.0474e-06 0 0)
(4.05985e-06 0 0)
(4.07232e-06 0 0)
(4.08483e-06 0 0)
(4.09737e-06 0 0)
(4.10994e-06 0 0)
(4.12255e-06 0 0)
(4.13519e-06 0 0)
(4.14787e-06 0 0)
(4.16058e-06 0 0)
(4.17332e-06 0 0)
(4.1861e-06 0 0)
(4.19891e-06 0 0)
(4.21176e-06 0 0)
(4.22465e-06 0 0)
(4.23757e-06 0 0)
(4.25053e-06 0 0)
(4.26352e-06 0 0)
(4.27656e-06 0 0)
(4.28963e-06 0 0)
(4.30274e-06 0 0)
(4.31589e-06 0 0)
(4.32908e-06 0 0)
(4.34231e-06 0 0)
(4.35558e-06 0 0)
(4.36889e-06 0 0)
(4.38225e-06 0 0)
(4.39564e-06 0 0)
(4.40908e-06 0 0)
(4.42256e-06 0 0)
(4.43608e-06 0 0)
(4.44965e-06 0 0)
(4.46326e-06 0 0)
(4.47692e-06 0 0)
(4.49062e-06 0 0)
(4.50437e-06 0 0)
(4.51816e-06 0 0)
(4.532e-06 0 0)
(4.54589e-06 0 0)
(4.55983e-06 0 0)
(4.57382e-06 0 0)
(4.58785e-06 0 0)
(4.60193e-06 0 0)
(4.61607e-06 0 0)
(4.63025e-06 0 0)
(4.64448e-06 0 0)
(4.65877e-06 0 0)
(4.6731e-06 0 0)
(4.68749e-06 0 0)
(4.70192e-06 0 0)
(4.71641e-06 0 0)
(4.73095e-06 0 0)
(4.74553e-06 0 0)
(4.76017e-06 0 0)
(4.77486e-06 0 0)
(4.7896e-06 0 0)
(4.80439e-06 0 0)
(4.81923e-06 0 0)
(4.83412e-06 0 0)
(4.84906e-06 0 0)
(4.86405e-06 0 0)
(4.87908e-06 0 0)
(4.89417e-06 0 0)
(4.90931e-06 0 0)
(4.9245e-06 0 0)
(4.93975e-06 0 0)
(4.95504e-06 0 0)
(4.97039e-06 0 0)
(4.98579e-06 0 0)
(5.00124e-06 0 0)
(5.01675e-06 0 0)
(5.03232e-06 0 0)
(5.04795e-06 0 0)
(5.06364e-06 0 0)
(5.0794e-06 0 0)
(5.09522e-06 0 0)
(5.1111e-06 0 0)
(5.12706e-06 0 0)
(5.14308e-06 0 0)
(5.15918e-06 0 0)
(5.17536e-06 0 0)
(5.19161e-06 0 0)
(5.20794e-06 0 0)
(5.22434e-06 0 0)
(5.24082e-06 0 0)
(5.25738e-06 0 0)
(5.27402e-06 0 0)
(5.29072e-06 0 0)
(5.3075e-06 0 0)
(5.32434e-06 0 0)
(5.34123e-06 0 0)
(5.35817e-06 0 0)
(5.37514e-06 0 0)
(5.39213e-06 0 0)
(5.40912e-06 0 0)
(5.42608e-06 0 0)
(5.44299e-06 0 0)
(5.45983e-06 0 0)
(5.47654e-06 0 0)
(5.49311e-06 0 0)
(5.50947e-06 0 0)
(5.52559e-06 0 0)
(5.54141e-06 0 0)
(5.55687e-06 0 0)
(5.5719e-06 0 0)
(5.58646e-06 0 0)
(5.60048e-06 0 0)
(5.6139e-06 0 0)
(5.62666e-06 0 0)
(5.63871e-06 0 0)
(5.65e-06 0 0)
(5.66051e-06 0 0)
(5.6702e-06 0 0)
(5.67906e-06 0 0)
(5.6871e-06 0 0)
(5.69433e-06 0 0)
(5.70075e-06 0 0)
(5.70642e-06 0 0)
(5.71137e-06 0 0)
(5.71568e-06 0 0)
(5.7194e-06 0 0)
(5.72263e-06 0 0)
(5.72547e-06 0 0)
(5.72807e-06 0 0)
(5.73065e-06 0 0)
(5.73356e-06 0 0)
(5.73739e-06 0 0)
(5.74312e-06 0 0)
(5.75247e-06 0 0)
(5.76848e-06 0 0)
(5.79643e-06 0 0)
(5.84536e-06 0 0)
(5.93017e-06 0 0)
(6.07369e-06 0 0)
(6.30645e-06 0 0)
(6.6589e-06 0 0)
(7.14101e-06 0 0)
(7.71656e-06 0 0)
(8.3005e-06 0 0)
(8.7995e-06 0 0)
(9.16319e-06 0 0)
(9.39626e-06 0 0)
(9.53263e-06 0 0)
(9.60796e-06 0 0)
(9.64823e-06 0 0)
(9.66939e-06 0 0)
(9.68042e-06 0 0)
(9.68616e-06 0 0)
(9.68916e-06 0 0)
(9.69075e-06 0 0)
(9.69162e-06 0 0)
(9.69212e-06 0 0)
(9.69242e-06 0 0)
(9.69263e-06 0 0)
(9.69279e-06 0 0)
(9.69292e-06 0 0)
(9.69304e-06 0 0)
(9.69316e-06 0 0)
(9.69327e-06 0 0)
(9.69338e-06 0 0)
(9.69349e-06 0 0)
(9.6936e-06 0 0)
(9.6937e-06 0 0)
(9.69381e-06 0 0)
(9.69392e-06 0 0)
(9.69402e-06 0 0)
(9.69413e-06 0 0)
(9.69423e-06 0 0)
(9.69434e-06 0 0)
(9.69444e-06 0 0)
(9.69454e-06 0 0)
(9.69464e-06 0 0)
(9.69474e-06 0 0)
(9.69483e-06 0 0)
(9.69493e-06 0 0)
(9.69502e-06 0 0)
(9.69511e-06 0 0)
(9.6952e-06 0 0)
(9.69528e-06 0 0)
(9.69537e-06 0 0)
(9.69545e-06 0 0)
(9.69553e-06 0 0)
(9.69561e-06 0 0)
(9.69568e-06 0 0)
(9.69576e-06 0 0)
(9.69583e-06 0 0)
(9.6959e-06 0 0)
(9.69596e-06 0 0)
(9.69602e-06 0 0)
(9.69608e-06 0 0)
(9.69614e-06 0 0)
(9.6962e-06 0 0)
(9.69625e-06 0 0)
(9.6963e-06 0 0)
(9.69634e-06 0 0)
(9.69639e-06 0 0)
(9.69643e-06 0 0)
(9.69646e-06 0 0)
(9.6965e-06 0 0)
(9.69653e-06 0 0)
(9.69655e-06 0 0)
(9.69658e-06 0 0)
(9.6966e-06 0 0)
(9.69661e-06 0 0)
(9.69663e-06 0 0)
(9.69664e-06 0 0)
(9.69665e-06 0 0)
(9.69665e-06 0 0)
(9.69666e-06 0 0)
(9.69665e-06 0 0)
(9.69665e-06 0 0)
(9.69664e-06 0 0)
(9.69662e-06 0 0)
(9.69661e-06 0 0)
(9.69659e-06 0 0)
(9.69657e-06 0 0)
(9.69654e-06 0 0)
(9.69652e-06 0 0)
(9.69649e-06 0 0)
(9.69645e-06 0 0)
(9.69642e-06 0 0)
(9.69638e-06 0 0)
(9.69633e-06 0 0)
(9.69629e-06 0 0)
(9.69624e-06 0 0)
(9.69619e-06 0 0)
(9.69614e-06 0 0)
(9.69608e-06 0 0)
(9.69603e-06 0 0)
(9.69596e-06 0 0)
(9.6959e-06 0 0)
(9.69583e-06 0 0)
(9.69576e-06 0 0)
(9.69569e-06 0 0)
(9.69561e-06 0 0)
(9.69553e-06 0 0)
(9.69545e-06 0 0)
(9.69536e-06 0 0)
(9.69526e-06 0 0)
(9.69516e-06 0 0)
(9.69506e-06 0 0)
(9.69495e-06 0 0)
(9.69483e-06 0 0)
(9.69471e-06 0 0)
(9.69458e-06 0 0)
(9.69444e-06 0 0)
(9.69429e-06 0 0)
(9.69414e-06 0 0)
(9.69397e-06 0 0)
(9.69379e-06 0 0)
(9.6936e-06 0 0)
(9.69339e-06 0 0)
(9.69318e-06 0 0)
(9.69294e-06 0 0)
(9.6927e-06 0 0)
(9.69244e-06 0 0)
(9.69216e-06 0 0)
(9.69186e-06 0 0)
(9.69155e-06 0 0)
(9.69122e-06 0 0)
(9.69087e-06 0 0)
(9.69051e-06 0 0)
(9.69012e-06 0 0)
(9.68972e-06 0 0)
(9.6893e-06 0 0)
(9.68886e-06 0 0)
(9.6884e-06 0 0)
(9.68793e-06 0 0)
(9.68744e-06 0 0)
(9.68694e-06 0 0)
(9.68643e-06 0 0)
(9.6859e-06 0 0)
(9.68537e-06 0 0)
(9.68482e-06 0 0)
(9.68428e-06 0 0)
(9.68372e-06 0 0)
(9.68317e-06 0 0)
(9.68262e-06 0 0)
(9.68207e-06 0 0)
(9.68152e-06 0 0)
(9.68099e-06 0 0)
(9.68047e-06 0 0)
(9.67997e-06 0 0)
(9.67948e-06 0 0)
(9.67902e-06 0 0)
(9.67858e-06 0 0)
(9.67817e-06 0 0)
(9.67779e-06 0 0)
(9.67744e-06 0 0)
(9.67713e-06 0 0)
(9.67686e-06 0 0)
(9.67663e-06 0 0)
(9.67644e-06 0 0)
(9.67629e-06 0 0)
(9.6762e-06 0 0)
(9.67614e-06 0 0)
(9.67612e-06 0 0)
(9.67612e-06 0 0)
(9.67614e-06 0 0)
(9.67623e-06 0 0)
(9.6764e-06 0 0)
(9.67662e-06 0 0)
(9.67687e-06 0 0)
(9.67717e-06 0 0)
(9.6775e-06 0 0)
(9.67786e-06 0 0)
(9.67826e-06 0 0)
(9.67868e-06 0 0)
(9.67912e-06 0 0)
(9.67959e-06 0 0)
(9.68007e-06 0 0)
(9.68057e-06 0 0)
(9.68107e-06 0 0)
(9.68158e-06 0 0)
(9.68209e-06 0 0)
(9.68261e-06 0 0)
(9.68312e-06 0 0)
(9.68362e-06 0 0)
(9.68411e-06 0 0)
(9.68459e-06 0 0)
(9.68506e-06 0 0)
(9.68552e-06 0 0)
(9.68595e-06 0 0)
(9.68637e-06 0 0)
(9.68677e-06 0 0)
(9.68716e-06 0 0)
(9.68752e-06 0 0)
(9.68786e-06 0 0)
(9.68818e-06 0 0)
(9.68849e-06 0 0)
(9.68877e-06 0 0)
(9.68904e-06 0 0)
(9.68929e-06 0 0)
(9.68952e-06 0 0)
(9.68973e-06 0 0)
(9.68994e-06 0 0)
(9.69012e-06 0 0)
(9.6903e-06 0 0)
(9.69046e-06 0 0)
(9.69062e-06 0 0)
(9.69076e-06 0 0)
(9.6909e-06 0 0)
(9.69103e-06 0 0)
(9.69115e-06 0 0)
(9.69126e-06 0 0)
(9.69138e-06 0 0)
(9.69149e-06 0 0)
(9.69159e-06 0 0)
(9.69169e-06 0 0)
(9.69179e-06 0 0)
(9.69189e-06 0 0)
(9.69199e-06 0 0)
(9.69208e-06 0 0)
(9.69218e-06 0 0)
(9.69227e-06 0 0)
(9.69237e-06 0 0)
(9.69246e-06 0 0)
(9.69256e-06 0 0)
(9.69265e-06 0 0)
(9.69274e-06 0 0)
(9.69284e-06 0 0)
(9.69293e-06 0 0)
(9.69303e-06 0 0)
(9.69312e-06 0 0)
(9.69322e-06 0 0)
(9.69332e-06 0 0)
(9.69342e-06 0 0)
(9.69351e-06 0 0)
(9.69361e-06 0 0)
(9.69371e-06 0 0)
(9.69381e-06 0 0)
(9.69391e-06 0 0)
(9.69401e-06 0 0)
(9.69411e-06 0 0)
(9.69421e-06 0 0)
(9.69431e-06 0 0)
(9.69441e-06 0 0)
(9.69451e-06 0 0)
(9.69461e-06 0 0)
(9.6947e-06 0 0)
(9.6948e-06 0 0)
(9.6949e-06 0 0)
(9.69499e-06 0 0)
(9.69508e-06 0 0)
(9.69517e-06 0 0)
(9.69526e-06 0 0)
(9.69535e-06 0 0)
(9.69544e-06 0 0)
(9.69552e-06 0 0)
(9.6956e-06 0 0)
(9.69568e-06 0 0)
(9.69576e-06 0 0)
(9.69583e-06 0 0)
(9.6959e-06 0 0)
(9.69597e-06 0 0)
(9.69604e-06 0 0)
(9.6961e-06 0 0)
(9.69616e-06 0 0)
(9.69622e-06 0 0)
(9.69628e-06 0 0)
(9.69633e-06 0 0)
(9.69638e-06 0 0)
(9.69642e-06 0 0)
(9.69647e-06 0 0)
(9.69651e-06 0 0)
(9.69654e-06 0 0)
(9.69657e-06 0 0)
(9.6966e-06 0 0)
(9.69663e-06 0 0)
(9.69665e-06 0 0)
(9.69667e-06 0 0)
(9.69669e-06 0 0)
(9.6967e-06 0 0)
(9.69671e-06 0 0)
(9.69671e-06 0 0)
(9.69672e-06 0 0)
(9.69672e-06 0 0)
(9.69672e-06 0 0)
(9.69671e-06 0 0)
(9.6967e-06 0 0)
(9.69669e-06 0 0)
(9.69667e-06 0 0)
(9.69665e-06 0 0)
(9.69663e-06 0 0)
(9.6966e-06 0 0)
(9.69657e-06 0 0)
(9.69654e-06 0 0)
(9.69651e-06 0 0)
(9.69647e-06 0 0)
(9.69643e-06 0 0)
(9.69638e-06 0 0)
(9.69633e-06 0 0)
(9.69628e-06 0 0)
(9.69623e-06 0 0)
(9.69617e-06 0 0)
(9.69611e-06 0 0)
(9.69605e-06 0 0)
(9.69598e-06 0 0)
(9.69591e-06 0 0)
(9.69583e-06 0 0)
(9.69575e-06 0 0)
(9.69567e-06 0 0)
(9.69558e-06 0 0)
(9.69548e-06 0 0)
(9.69538e-06 0 0)
(9.69528e-06 0 0)
(9.69517e-06 0 0)
(9.69505e-06 0 0)
(9.69493e-06 0 0)
(9.69479e-06 0 0)
(9.69465e-06 0 0)
(9.69451e-06 0 0)
(9.69435e-06 0 0)
(9.69418e-06 0 0)
(9.694e-06 0 0)
(9.69382e-06 0 0)
(9.69362e-06 0 0)
(9.69341e-06 0 0)
(9.69318e-06 0 0)
(9.69295e-06 0 0)
(9.6927e-06 0 0)
(9.69243e-06 0 0)
(9.69216e-06 0 0)
(9.69187e-06 0 0)
(9.69156e-06 0 0)
(9.69124e-06 0 0)
(9.69091e-06 0 0)
(9.69056e-06 0 0)
(9.69019e-06 0 0)
(9.68981e-06 0 0)
(9.68942e-06 0 0)
(9.68901e-06 0 0)
(9.6886e-06 0 0)
(9.68816e-06 0 0)
(9.68772e-06 0 0)
(9.68727e-06 0 0)
(9.6868e-06 0 0)
(9.68633e-06 0 0)
(9.68586e-06 0 0)
(9.68537e-06 0 0)
(9.68488e-06 0 0)
(9.6844e-06 0 0)
(9.68391e-06 0 0)
(9.68342e-06 0 0)
(9.68293e-06 0 0)
(9.68246e-06 0 0)
(9.68199e-06 0 0)
(9.68153e-06 0 0)
(9.68108e-06 0 0)
(9.68064e-06 0 0)
(9.68023e-06 0 0)
(9.67983e-06 0 0)
(9.67946e-06 0 0)
(9.67911e-06 0 0)
(9.67878e-06 0 0)
(9.67848e-06 0 0)
(9.67821e-06 0 0)
(9.67797e-06 0 0)
(9.67777e-06 0 0)
(9.6776e-06 0 0)
(9.67746e-06 0 0)
(9.67737e-06 0 0)
(9.67731e-06 0 0)
(9.67729e-06 0 0)
(9.67728e-06 0 0)
(9.6773e-06 0 0)
(9.67733e-06 0 0)
(9.67742e-06 0 0)
(9.67755e-06 0 0)
(9.67772e-06 0 0)
(9.67795e-06 0 0)
(9.67821e-06 0 0)
(9.67851e-06 0 0)
(9.67882e-06 0 0)
(9.67916e-06 0 0)
(9.67952e-06 0 0)
(9.6799e-06 0 0)
(9.6803e-06 0 0)
)
;

boundaryField
{
    inlet
    {
        type            fixedValue;
        value           uniform (0 0 0);
    }
    outlet
    {
        type            zeroGradient;
    }
    emptyWalls
    {
        type            empty;
    }
}


// ************************************************************************* //
