/*--------------------------------*- C++ -*----------------------------------*\
  =========                 |
  \\      /  F ield         | OpenFOAM: The Open Source CFD Toolbox
   \\    /   O peration     | Website:  https://openfoam.org
    \\  /    A nd           | Version:  9
     \\/     M anipulation  |
\*---------------------------------------------------------------------------*/
FoamFile
{
    format      ascii;
    class       volScalarField;
    location    "18000";
    object      krc;
}
// * * * * * * * * * * * * * * * * * * * * * * * * * * * * * * * * * * * * * //

dimensions      [0 0 0 0 0 0 0];

internalField   nonuniform List<scalar> 
100
(
2.11865e-22
1.371e-26
3.46344e-25
4.0595e-26
3.36739e-26
9.09478e-26
4.069e-26
1.8511e-25
3.1423e-25
9.7991e-25
1.6468e-24
1.82619e-25
9.70916e-25
4.2877e-24
1.73789e-24
3.84462e-24
7.99232e-24
1.53434e-24
1.50402e-23
4.26888e-23
5.21889e-23
5.36889e-23
2.98943e-23
1.47228e-23
5.08434e-24
8.60647e-24
4.08361e-23
1.13185e-22
1.03565e-22
1.1842e-22
6.99749e-23
4.63601e-23
2.46238e-23
1.58309e-23
1.11914e-23
3.5885e-23
1.17867e-22
3.30358e-22
5.75416e-22
8.32364e-22
9.52861e-22
9.58905e-22
8.54295e-22
6.00562e-22
4.21485e-22
3.00975e-22
1.53336e-22
1.42733e-22
1.82267e-23
1.1874e-22
6.59394e-22
1.21703e-21
1.4812e-21
1.5873e-21
1.53929e-21
1.4159e-21
1.5238e-21
1.57127e-21
1.55596e-21
1.52974e-21
1.41505e-21
1.21091e-21
1.03188e-21
7.4386e-22
6.04593e-22
5.20176e-22
4.37835e-22
4.48261e-22
3.97165e-22
3.77153e-22
3.19179e-22
2.54041e-22
2.03339e-22
1.4547e-22
1.07038e-22
7.31008e-23
5.69928e-23
3.84821e-23
2.09994e-23
3.90179e-24
1.51243e-23
8.90896e-23
1.91737e-22
2.70664e-22
2.66367e-22
2.50331e-22
2.07226e-22
1.74295e-22
1.20818e-22
1.04802e-22
8.92097e-23
9.3471e-23
9.34346e-23
1.09126e-22
9.48575e-23
3.79244e-21
1.11433e-21
1.08817e-19
2.03161e-18
5.56582e-18
)
;

boundaryField
{
    inlet
    {
        type            calculated;
        value           uniform 2.11865e-22;
    }
    outlet
    {
        type            calculated;
        value           uniform 5.56582e-18;
    }
    emptyWalls
    {
        type            empty;
    }
}


// ************************************************************************* //
