/*--------------------------------*- C++ -*----------------------------------*\
  =========                 |
  \\      /  F ield         | OpenFOAM: The Open Source CFD Toolbox
   \\    /   O peration     | Website:  https://openfoam.org
    \\  /    A nd           | Version:  9
     \\/     M anipulation  |
\*---------------------------------------------------------------------------*/
FoamFile
{
    format      ascii;
    class       volScalarField;
    location    "11600";
    object      kra;
}
// * * * * * * * * * * * * * * * * * * * * * * * * * * * * * * * * * * * * * //

dimensions      [0 0 0 0 0 0 0];

internalField   nonuniform List<scalar> 
1000
(
0.000237135
0.000239255
0.000241647
0.000244284
0.000246517
0.000249117
0.000251313
0.000253698
0.000255738
0.000257713
0.000259384
0.000260914
0.000262494
0.000265573
0.000275522
0.000320725
0.000602558
0.000845436
0.000892155
0.000907646
0.000915407
0.000920102
0.000923244
0.000925494
0.000927234
0.000928631
0.000929726
0.000930513
0.000930973
0.000931359
0.000931736
0.000932735
0.000933922
0.000936063
0.000938026
0.000939873
0.000940878
0.000941038
0.000940973
0.000940641
0.000939632
0.000937741
0.000934695
0.000930323
0.000924621
0.000917844
0.000910323
0.000902448
0.000894499
0.000886688
0.000879166
0.000872031
0.00086533
0.00085907
0.000853225
0.000847751
0.000842587
0.000837671
0.000832939
0.000828335
0.000823813
0.000819339
0.000814887
0.000810444
0.000806004
0.000801568
0.000797141
0.00079273
0.000788343
0.000783988
0.000779672
0.000775402
0.000771182
0.000767016
0.000762906
0.000758853
0.000754856
0.000750917
0.000747034
0.000743206
0.000739432
0.000735711
0.000732042
0.000728423
0.000724855
0.000721335
0.000717863
0.000714437
0.000711058
0.000707723
0.000704432
0.000701183
0.000697977
0.000694811
0.000691686
0.0006886
0.000685553
0.000682544
0.000679573
0.000676639
0.000673742
0.00067088
0.000668055
0.000665264
0.000662507
0.000659785
0.000657096
0.000654441
0.000651818
0.000649227
0.000646668
0.000644141
0.000641644
0.000639177
0.00063674
0.000634333
0.000631953
0.000629603
0.000627279
0.000624983
0.000622714
0.00062047
0.000618252
0.000616059
0.000613889
0.000611743
0.000609619
0.000607516
0.000605432
0.000603367
0.000601319
0.000599288
0.000597274
0.000595277
0.000593297
0.000591337
0.000589396
0.000587477
0.000585579
0.000583703
0.000581846
0.000580009
0.00057819
0.000576389
0.000574606
0.000572842
0.000571101
0.000569388
0.000567708
0.000566066
0.000564471
0.000562928
0.000561443
0.000560018
0.000558658
0.000557362
0.00055613
0.000554958
0.000553841
0.000552773
0.000551745
0.000550747
0.000549767
0.000548791
0.000547807
0.000546797
0.000545748
0.000544642
0.000543467
0.000542207
0.000540854
0.000539395
0.000537832
0.000536157
0.000534381
0.000532504
0.000530547
0.000528513
0.000526433
0.000524311
0.000522185
0.000520051
0.000517953
0.000515879
0.00051387
0.000511907
0.000510029
0.000508206
0.000506473
0.000504797
0.000503204
0.000501662
0.000500191
0.000498761
0.000497384
0.000496038
0.000494727
0.000493438
0.000492169
0.000490913
0.000489667
0.000488426
0.000487187
0.00048595
0.000484712
0.000483472
0.00048223
0.000480986
0.000479741
0.000478494
0.000477247
0.000476
0.000474755
0.000473512
0.000472272
0.000471036
0.000469805
0.00046858
0.000467361
0.000466149
0.000464944
0.000463747
0.000462558
0.000461377
0.000460204
0.00045904
0.000457883
0.000456736
0.000455596
0.000454465
0.000453341
0.000452225
0.000451117
0.000450016
0.000448923
0.000447836
0.000446757
0.000445685
0.000444619
0.00044356
0.000442507
0.000441461
0.000440421
0.000439388
0.000438361
0.00043734
0.000436326
0.000435318
0.000434316
0.000433321
0.000432332
0.000431349
0.000430373
0.000429402
0.000428438
0.000427481
0.000426529
0.000425584
0.000424645
0.000423712
0.000422785
0.000421864
0.000420949
0.00042004
0.000419137
0.00041824
0.000417348
0.000416462
0.000415582
0.000414707
0.000413838
0.000412974
0.000412115
0.000411261
0.000410411
0.000409566
0.000408726
0.00040789
0.000407058
0.000406229
0.000405405
0.000404584
0.000403767
0.000402954
0.000402145
0.000401339
0.000400536
0.000399738
0.000398943
0.000398152
0.000397366
0.000396583
0.000395804
0.00039503
0.000394261
0.000393497
0.000392739
0.000391987
0.000391242
0.000390505
0.000389777
0.000389058
0.000388351
0.000387655
0.000386973
0.000386306
0.000385654
0.000385018
0.000384401
0.000383801
0.000383219
0.000382656
0.000382112
0.000381585
0.000381075
0.00038058
0.0003801
0.000379632
0.000379173
0.000378721
0.000378273
0.000377826
0.000377376
0.000376919
0.000376452
0.00037597
0.00037547
0.000374948
0.000374401
0.000373824
0.000373217
0.000372575
0.000371898
0.000371185
0.000370434
0.000369648
0.000368826
0.000367972
0.000367087
0.000366176
0.000365241
0.000364288
0.00036332
0.000362343
0.000361362
0.00036038
0.000359402
0.000358432
0.000357474
0.00035653
0.000355603
0.000354696
0.000353808
0.000352941
0.000352096
0.000351272
0.000350469
0.000349685
0.000348921
0.000348173
0.000347441
0.000346724
0.000346019
0.000345325
0.000344641
0.000343964
0.000343294
0.000342629
0.000341968
0.00034131
0.000340654
0.000339999
0.000339345
0.00033869
0.000338036
0.000337379
0.000336724
0.000336065
0.000335409
0.000334746
0.000334089
0.000333425
0.000332766
0.000332101
0.000331441
0.000330777
0.000330115
0.000329453
0.000328791
0.000328131
0.00032747
0.000326812
0.000326154
0.000325497
0.000324843
0.000324189
0.000323537
0.000322887
0.000322239
0.000321592
0.000320947
0.000320304
0.000319663
0.000319023
0.000318386
0.00031775
0.000317116
0.000316484
0.000315854
0.000315225
0.000314599
0.000313972
0.000313351
0.000312725
0.000312111
0.000311484
0.000310879
0.00031025
0.000309653
0.000309023
0.000308434
0.000307804
0.00030722
0.000306595
0.000306013
0.000305399
0.000304812
0.000304215
0.000303622
0.000303046
0.00030245
0.000301891
0.000301303
0.000300753
0.000300188
0.000299643
0.000299113
0.000298578
0.000298083
0.000297575
0.00029711
0.000296651
0.000296214
0.000295816
0.00029542
0.000295078
0.000294745
0.000294449
0.00029419
0.000293943
0.000293747
0.000293558
0.000293402
0.000293267
0.000293128
0.000293009
0.000292848
0.000292642
0.000292323
0.000291775
0.000290863
0.000289275
0.000286643
0.000282471
0.000276396
0.0002687
0.000260575
0.000253774
0.000249262
0.000246773
0.00024557
0.000244998
0.000244741
0.000244628
0.000244575
0.000244573
0.000244576
0.000244592
0.000244616
0.000244644
0.000244674
0.000244709
0.000244745
0.000244786
0.000244829
0.000244876
0.000244927
0.000244982
0.000245042
0.000245106
0.000245175
0.000245249
0.000245327
0.000245412
0.000245501
0.000245596
0.000245697
0.000245802
0.000245913
0.000246028
0.000246148
0.000246272
0.0002464
0.000246532
0.000246666
0.000246802
0.00024694
0.000247079
0.000247217
0.000247355
0.000247491
0.000247624
0.000247752
0.000247876
0.000247994
0.000248105
0.000248208
0.000248301
0.000248385
0.000248457
0.000248517
0.000248564
0.000248597
0.000248616
0.000248622
0.000248623
0.00024862
0.000248604
0.000248558
0.000248497
0.000248426
0.000248343
0.00024825
0.000248148
0.000248038
0.000247921
0.000247798
0.000247671
0.00024754
0.000247407
0.000247273
0.000247139
0.000247006
0.000246876
0.000246749
0.000246626
0.000246508
0.000246395
0.000246289
0.000246188
0.000246094
0.000246007
0.000245926
0.000245852
0.000245784
0.000245722
0.000245666
0.000245616
0.000245571
0.00024553
0.000245494
0.000245462
0.000245433
0.000245408
0.000245384
0.000245363
0.000245344
0.000245326
0.000245309
0.000245293
0.000245277
0.000245261
0.000245246
0.00024523
0.000245213
0.000245196
0.000245178
0.00024516
0.000245141
0.00024512
0.000245099
0.000245078
0.000245055
0.000245031
0.000245007
0.000244982
0.000244956
0.00024493
0.000244903
0.000244876
0.000244849
0.000244821
0.000244794
0.000244766
0.000244738
0.00024471
0.000244683
0.000244655
0.000244628
0.000244602
0.000244576
0.00024455
0.000244525
0.000244501
0.000244477
0.000244454
0.000244431
0.00024441
0.000244389
0.000244368
0.000244349
0.00024433
0.000244312
0.000244295
0.000244279
0.000244263
0.000244249
0.000244235
0.000244221
0.000244209
0.000244197
0.000244185
0.000244175
0.000244165
0.000244156
0.000244147
0.000244139
0.000244131
0.000244125
0.000244118
0.000244113
0.000244108
0.000244103
0.000244099
0.000244096
0.000244093
0.00024409
0.000244089
0.000244088
0.000244087
0.000244087
0.000244087
0.000244087
0.000244088
0.00024409
0.000244093
0.000244096
0.0002441
0.000244104
0.000244109
0.000244115
0.000244121
0.000244127
0.000244134
0.000244142
0.00024415
0.000244159
0.000244168
0.000244178
0.000244189
0.0002442
0.000244211
0.000244223
0.000244236
0.000244249
0.000244262
0.000244277
0.000244291
0.000244307
0.000244322
0.000244339
0.000244356
0.000244374
0.000244392
0.000244412
0.000244432
0.000244453
0.000244475
0.000244499
0.000244523
0.000244549
0.000244576
0.000244605
0.000244635
0.000244667
0.000244701
0.000244738
0.000244776
0.000244818
0.000244861
0.000244908
0.000244958
0.00024501
0.000245066
0.000245126
0.000245189
0.000245256
0.000245326
0.000245401
0.000245479
0.000245562
0.000245648
0.000245738
0.000245832
0.00024593
0.000246031
0.000246135
0.000246243
0.000246353
0.000246466
0.000246581
0.000246697
0.000246814
0.000246932
0.000247051
0.000247168
0.000247285
0.000247399
0.000247512
0.000247621
0.000247726
0.000247826
0.000247921
0.00024801
0.000248093
0.000248167
0.000248234
0.000248293
0.000248342
0.000248382
0.000248411
0.00024843
0.000248439
0.00024844
0.00024844
0.000248436
0.000248408
0.000248366
0.000248313
0.000248251
0.00024818
0.000248102
0.000248015
0.000247923
0.000247824
0.00024772
0.000247613
0.000247502
0.000247389
0.000247275
0.00024716
0.000247045
0.000246932
0.00024682
0.000246711
0.000246605
0.000246502
0.000246402
0.000246307
0.000246217
0.000246131
0.000246049
0.000245973
0.000245901
0.000245833
0.000245771
0.000245712
0.000245658
0.000245607
0.00024556
0.000245517
0.000245476
0.000245438
0.000245403
0.00024537
0.000245339
0.00024531
0.000245282
0.000245255
0.000245229
0.000245204
0.000245179
0.000245154
0.00024513
0.000245106
0.000245082
0.000245058
0.000245033
0.000245009
0.000244984
0.000244958
0.000244933
0.000244907
0.00024488
0.000244854
0.000244827
0.0002448
0.000244772
0.000244745
0.000244717
0.00024469
0.000244662
0.000244635
0.000244607
0.00024458
0.000244553
0.000244526
0.0002445
0.000244474
0.000244449
0.000244424
0.0002444
0.000244376
0.000244353
0.00024433
0.000244309
0.000244288
0.000244267
0.000244248
0.000244229
0.000244211
0.000244194
0.000244178
0.000244163
0.000244148
0.000244134
0.000244121
0.000244109
0.000244098
0.000244087
0.000244078
0.000244069
0.000244061
0.000244053
0.000244047
0.000244041
0.000244036
0.000244032
0.000244028
0.000244025
0.000244023
0.000244022
0.000244021
0.000244021
0.000244021
0.000244021
0.000244022
0.000244024
0.000244027
0.00024403
0.000244034
0.000244039
0.000244044
0.00024405
0.000244056
0.000244063
0.00024407
0.000244078
0.000244086
0.000244095
0.000244104
0.000244114
0.000244124
0.000244135
0.000244146
0.000244157
0.00024417
0.000244182
0.000244195
0.000244209
0.000244223
0.000244238
0.000244253
0.000244269
0.000244285
0.000244302
0.00024432
0.000244338
0.000244357
0.000244377
0.000244398
0.000244419
0.000244442
0.000244465
0.000244489
0.000244515
0.000244542
0.00024457
0.0002446
0.000244631
0.000244664
0.000244698
0.000244735
0.000244773
0.000244814
0.000244856
0.000244901
0.000244949
0.000244999
0.000245052
0.000245107
0.000245165
0.000245226
0.00024529
0.000245357
0.000245427
0.0002455
0.000245576
0.000245655
0.000245737
0.000245821
0.000245908
0.000245997
0.000246089
0.000246183
0.000246279
0.000246376
0.000246475
0.000246574
0.000246674
0.000246775
0.000246875
0.000246974
0.000247073
0.000247169
0.000247264
0.000247356
0.000247445
0.000247531
0.000247612
0.000247689
0.000247761
0.000247826
0.000247887
0.00024794
0.000247987
0.000248026
0.000248058
0.000248082
0.000248098
0.000248105
0.000248107
0.000248106
0.000248104
0.000248085
0.000248052
0.00024801
0.000247963
0.000247906
0.000247845
0.000247774
0.000247703
0.00024762
0.00024754
0.000247447
0.000247362
0.000247262
0.000247173
0.00024707
0.00024698
0.000246874
0.000246786
0.000246681
0.000246597
0.000246495
0.000246415
0.000246317
0.000246244
0.000246152
0.000246086
0.000246
0.000245942
0.000245863
0.000245812
0.00024574
0.000245697
0.000245631
0.000245594
0.000245535
0.000245504
0.000245451
0.000245425
0.000245377
0.000245355
0.000245312
0.000245293
0.000245253
0.000245237
0.0002452
0.000245186
0.00024515
0.000245138
0.000245103
0.000245092
0.000245058
0.000245047
0.000245014
0.000245003
0.000244969
0.000244959
)
;

boundaryField
{
    inlet
    {
        type            calculated;
        value           uniform 0.000236304;
    }
    outlet
    {
        type            calculated;
        value           uniform 0.000244941;
    }
    emptyWalls
    {
        type            empty;
    }
}


// ************************************************************************* //
