/*--------------------------------*- C++ -*----------------------------------*\
  =========                 |
  \\      /  F ield         | OpenFOAM: The Open Source CFD Toolbox
   \\    /   O peration     | Website:  https://openfoam.org
    \\  /    A nd           | Version:  9
     \\/     M anipulation  |
\*---------------------------------------------------------------------------*/
FoamFile
{
    format      ascii;
    class       surfaceScalarField;
    location    "11600";
    object      phia;
}
// * * * * * * * * * * * * * * * * * * * * * * * * * * * * * * * * * * * * * //

dimensions      [0 2 0 0 0 0 0];

internalField   nonuniform List<scalar> 
999
(
2.74919e-10
2.74822e-10
2.74816e-10
2.74717e-10
2.74609e-10
2.74534e-10
2.74345e-10
2.74264e-10
2.74094e-10
2.74e-10
2.73876e-10
2.73769e-10
2.73558e-10
2.72896e-10
2.70539e-10
2.57597e-10
2.20948e-10
2.13803e-10
2.11681e-10
2.10606e-10
2.09881e-10
2.09319e-10
2.08861e-10
2.08492e-10
2.08201e-10
2.07971e-10
2.07779e-10
2.07602e-10
2.07449e-10
2.0734e-10
2.07337e-10
2.07453e-10
2.07717e-10
2.08078e-10
2.08467e-10
2.08784e-10
2.08971e-10
2.091e-10
2.09222e-10
2.09299e-10
2.09302e-10
2.09205e-10
2.08997e-10
2.08687e-10
2.08296e-10
2.07839e-10
2.07331e-10
2.06806e-10
2.06297e-10
2.0583e-10
2.05425e-10
2.05092e-10
2.04837e-10
2.04656e-10
2.04543e-10
2.04486e-10
2.04473e-10
2.04491e-10
2.04527e-10
2.0457e-10
2.04612e-10
2.04645e-10
2.04667e-10
2.04675e-10
2.04668e-10
2.04647e-10
2.04613e-10
2.04569e-10
2.04517e-10
2.04457e-10
2.04394e-10
2.04327e-10
2.04258e-10
2.04188e-10
2.04118e-10
2.04048e-10
2.03979e-10
2.0391e-10
2.03842e-10
2.03775e-10
2.03708e-10
2.03643e-10
2.03578e-10
2.03515e-10
2.03452e-10
2.0339e-10
2.03329e-10
2.03269e-10
2.0321e-10
2.03152e-10
2.03094e-10
2.03038e-10
2.02982e-10
2.02927e-10
2.02873e-10
2.02819e-10
2.02767e-10
2.02715e-10
2.02665e-10
2.02615e-10
2.02567e-10
2.0252e-10
2.02473e-10
2.02428e-10
2.02384e-10
2.02342e-10
2.023e-10
2.0226e-10
2.02221e-10
2.02184e-10
2.02148e-10
2.02114e-10
2.0208e-10
2.02049e-10
2.02018e-10
2.01989e-10
2.01962e-10
2.01935e-10
2.0191e-10
2.01887e-10
2.01864e-10
2.01843e-10
2.01823e-10
2.01804e-10
2.01786e-10
2.01768e-10
2.01751e-10
2.01735e-10
2.01718e-10
2.01701e-10
2.01684e-10
2.01666e-10
2.01648e-10
2.0163e-10
2.01612e-10
2.01595e-10
2.01579e-10
2.01565e-10
2.01552e-10
2.0154e-10
2.0153e-10
2.01521e-10
2.01512e-10
2.01505e-10
2.01498e-10
2.01494e-10
2.01493e-10
2.01498e-10
2.01509e-10
2.0153e-10
2.01562e-10
2.01607e-10
2.01668e-10
2.01744e-10
2.01838e-10
2.01949e-10
2.02076e-10
2.02219e-10
2.02376e-10
2.02544e-10
2.0272e-10
2.02901e-10
2.03084e-10
2.03262e-10
2.03433e-10
2.0359e-10
2.03728e-10
2.03843e-10
2.03928e-10
2.03981e-10
2.03998e-10
2.03976e-10
2.03914e-10
2.03813e-10
2.03673e-10
2.03499e-10
2.03294e-10
2.03064e-10
2.02814e-10
2.02551e-10
2.02282e-10
2.02013e-10
2.0175e-10
2.01499e-10
2.01262e-10
2.01043e-10
2.00845e-10
2.00669e-10
2.00514e-10
2.00381e-10
2.00268e-10
2.00173e-10
2.00095e-10
2.0003e-10
1.99977e-10
1.99933e-10
1.99897e-10
1.99865e-10
1.99837e-10
1.99809e-10
1.99782e-10
1.99753e-10
1.99723e-10
1.9969e-10
1.99653e-10
1.99614e-10
1.99571e-10
1.99525e-10
1.99475e-10
1.99423e-10
1.99368e-10
1.99311e-10
1.99252e-10
1.99191e-10
1.99129e-10
1.99066e-10
1.99003e-10
1.98939e-10
1.98876e-10
1.98812e-10
1.98749e-10
1.98687e-10
1.98625e-10
1.98564e-10
1.98504e-10
1.98444e-10
1.98386e-10
1.98328e-10
1.98271e-10
1.98215e-10
1.9816e-10
1.98106e-10
1.98052e-10
1.97999e-10
1.97947e-10
1.97895e-10
1.97844e-10
1.97794e-10
1.97744e-10
1.97694e-10
1.97645e-10
1.97597e-10
1.97549e-10
1.97502e-10
1.97455e-10
1.97409e-10
1.97363e-10
1.97318e-10
1.97274e-10
1.9723e-10
1.97187e-10
1.97144e-10
1.97103e-10
1.97062e-10
1.97021e-10
1.96982e-10
1.96943e-10
1.96905e-10
1.96868e-10
1.96831e-10
1.96795e-10
1.96761e-10
1.96726e-10
1.96693e-10
1.9666e-10
1.96628e-10
1.96597e-10
1.96567e-10
1.96537e-10
1.96508e-10
1.9648e-10
1.96452e-10
1.96425e-10
1.96398e-10
1.96372e-10
1.96346e-10
1.96321e-10
1.96296e-10
1.96271e-10
1.96246e-10
1.96221e-10
1.96197e-10
1.96172e-10
1.96148e-10
1.96124e-10
1.961e-10
1.96077e-10
1.96053e-10
1.9603e-10
1.96007e-10
1.95985e-10
1.95963e-10
1.95942e-10
1.95922e-10
1.95902e-10
1.95883e-10
1.95866e-10
1.95851e-10
1.95837e-10
1.95826e-10
1.95818e-10
1.95814e-10
1.95813e-10
1.95817e-10
1.95826e-10
1.95841e-10
1.95862e-10
1.95889e-10
1.95924e-10
1.95965e-10
1.96015e-10
1.96071e-10
1.96135e-10
1.96206e-10
1.96283e-10
1.96367e-10
1.96456e-10
1.96548e-10
1.96644e-10
1.96742e-10
1.9684e-10
1.96937e-10
1.97031e-10
1.9712e-10
1.97203e-10
1.97277e-10
1.97342e-10
1.97394e-10
1.97433e-10
1.97457e-10
1.97465e-10
1.97456e-10
1.97429e-10
1.97384e-10
1.9732e-10
1.97239e-10
1.9714e-10
1.97025e-10
1.96896e-10
1.96753e-10
1.96598e-10
1.96435e-10
1.96264e-10
1.96089e-10
1.9591e-10
1.95732e-10
1.95554e-10
1.95381e-10
1.95212e-10
1.95049e-10
1.94893e-10
1.94746e-10
1.94608e-10
1.94479e-10
1.94359e-10
1.94248e-10
1.94146e-10
1.94052e-10
1.93966e-10
1.93887e-10
1.93815e-10
1.93748e-10
1.93687e-10
1.93629e-10
1.93575e-10
1.93524e-10
1.93475e-10
1.93427e-10
1.9338e-10
1.93334e-10
1.93287e-10
1.93241e-10
1.93193e-10
1.93145e-10
1.93096e-10
1.93046e-10
1.92994e-10
1.92941e-10
1.92887e-10
1.92832e-10
1.92775e-10
1.92718e-10
1.92659e-10
1.926e-10
1.92539e-10
1.92478e-10
1.92417e-10
1.92355e-10
1.92293e-10
1.9223e-10
1.92168e-10
1.92105e-10
1.92042e-10
1.9198e-10
1.91917e-10
1.91855e-10
1.91793e-10
1.91731e-10
1.9167e-10
1.91609e-10
1.91548e-10
1.91488e-10
1.91428e-10
1.91369e-10
1.9131e-10
1.91252e-10
1.91194e-10
1.91136e-10
1.91079e-10
1.91022e-10
1.90966e-10
1.9091e-10
1.90855e-10
1.908e-10
1.90745e-10
1.90692e-10
1.90637e-10
1.90585e-10
1.90531e-10
1.90479e-10
1.90427e-10
1.90375e-10
1.90324e-10
1.90273e-10
1.90223e-10
1.90172e-10
1.90124e-10
1.90073e-10
1.90026e-10
1.89977e-10
1.89931e-10
1.89884e-10
1.89837e-10
1.89794e-10
1.89748e-10
1.89707e-10
1.89663e-10
1.89624e-10
1.89585e-10
1.89546e-10
1.89513e-10
1.89477e-10
1.89448e-10
1.89418e-10
1.89391e-10
1.89369e-10
1.89346e-10
1.8933e-10
1.89313e-10
1.893e-10
1.89291e-10
1.89281e-10
1.89277e-10
1.89271e-10
1.89268e-10
1.89264e-10
1.89255e-10
1.89242e-10
1.89213e-10
1.89161e-10
1.89065e-10
1.88894e-10
1.88612e-10
1.88168e-10
1.87552e-10
1.86823e-10
1.86127e-10
1.85613e-10
1.85309e-10
1.85161e-10
1.85097e-10
1.85071e-10
1.85069e-10
1.85073e-10
1.85084e-10
1.85098e-10
1.85113e-10
1.85131e-10
1.8515e-10
1.8517e-10
1.85193e-10
1.85217e-10
1.85243e-10
1.85271e-10
1.85301e-10
1.85334e-10
1.85369e-10
1.85408e-10
1.85449e-10
1.85493e-10
1.85541e-10
1.85592e-10
1.85646e-10
1.85704e-10
1.85766e-10
1.85831e-10
1.859e-10
1.85972e-10
1.86047e-10
1.86126e-10
1.86207e-10
1.86291e-10
1.86378e-10
1.86466e-10
1.86557e-10
1.86648e-10
1.8674e-10
1.86833e-10
1.86925e-10
1.87016e-10
1.87105e-10
1.87192e-10
1.87276e-10
1.87357e-10
1.87433e-10
1.87504e-10
1.87569e-10
1.87628e-10
1.8768e-10
1.87724e-10
1.8776e-10
1.87787e-10
1.87804e-10
1.87812e-10
1.87814e-10
1.87814e-10
1.8781e-10
1.87787e-10
1.87751e-10
1.87707e-10
1.87656e-10
1.87598e-10
1.87533e-10
1.87462e-10
1.87387e-10
1.87307e-10
1.87223e-10
1.87137e-10
1.87049e-10
1.8696e-10
1.86871e-10
1.86782e-10
1.86695e-10
1.86609e-10
1.86526e-10
1.86446e-10
1.86369e-10
1.86296e-10
1.86226e-10
1.86162e-10
1.86101e-10
1.86045e-10
1.85993e-10
1.85946e-10
1.85903e-10
1.85863e-10
1.85828e-10
1.85796e-10
1.85768e-10
1.85742e-10
1.85719e-10
1.85699e-10
1.85681e-10
1.85664e-10
1.8565e-10
1.85636e-10
1.85624e-10
1.85612e-10
1.85601e-10
1.8559e-10
1.8558e-10
1.85569e-10
1.85559e-10
1.85548e-10
1.85537e-10
1.85525e-10
1.85513e-10
1.85501e-10
1.85487e-10
1.85474e-10
1.85459e-10
1.85444e-10
1.85429e-10
1.85413e-10
1.85397e-10
1.8538e-10
1.85362e-10
1.85345e-10
1.85327e-10
1.85309e-10
1.8529e-10
1.85272e-10
1.85253e-10
1.85234e-10
1.85216e-10
1.85197e-10
1.85179e-10
1.85161e-10
1.85143e-10
1.85126e-10
1.85108e-10
1.85091e-10
1.85075e-10
1.85059e-10
1.85043e-10
1.85028e-10
1.85013e-10
1.84999e-10
1.84985e-10
1.84972e-10
1.84959e-10
1.84947e-10
1.84935e-10
1.84924e-10
1.84913e-10
1.84903e-10
1.84893e-10
1.84884e-10
1.84876e-10
1.84867e-10
1.8486e-10
1.84852e-10
1.84845e-10
1.84839e-10
1.84833e-10
1.84827e-10
1.84822e-10
1.84818e-10
1.84813e-10
1.84809e-10
1.84806e-10
1.84802e-10
1.84799e-10
1.84797e-10
1.84795e-10
1.84793e-10
1.84792e-10
1.84791e-10
1.8479e-10
1.8479e-10
1.8479e-10
1.8479e-10
1.8479e-10
1.84792e-10
1.84793e-10
1.84795e-10
1.84797e-10
1.848e-10
1.84803e-10
1.84807e-10
1.84811e-10
1.84815e-10
1.84819e-10
1.84824e-10
1.8483e-10
1.84835e-10
1.84841e-10
1.84848e-10
1.84855e-10
1.84862e-10
1.84869e-10
1.84877e-10
1.84885e-10
1.84894e-10
1.84903e-10
1.84912e-10
1.84922e-10
1.84932e-10
1.84942e-10
1.84953e-10
1.84964e-10
1.84976e-10
1.84988e-10
1.85001e-10
1.85014e-10
1.85028e-10
1.85042e-10
1.85057e-10
1.85073e-10
1.8509e-10
1.85108e-10
1.85126e-10
1.85146e-10
1.85167e-10
1.85189e-10
1.85213e-10
1.85238e-10
1.85265e-10
1.85293e-10
1.85323e-10
1.85355e-10
1.85389e-10
1.85426e-10
1.85464e-10
1.85505e-10
1.85549e-10
1.85595e-10
1.85643e-10
1.85694e-10
1.85748e-10
1.85804e-10
1.85863e-10
1.85924e-10
1.85988e-10
1.86054e-10
1.86123e-10
1.86194e-10
1.86266e-10
1.86341e-10
1.86416e-10
1.86493e-10
1.86571e-10
1.8665e-10
1.86729e-10
1.86807e-10
1.86885e-10
1.86962e-10
1.87038e-10
1.87112e-10
1.87183e-10
1.87251e-10
1.87316e-10
1.87378e-10
1.87435e-10
1.87487e-10
1.87534e-10
1.87576e-10
1.87612e-10
1.87641e-10
1.87664e-10
1.8768e-10
1.8769e-10
1.87693e-10
1.87693e-10
1.87693e-10
1.87685e-10
1.87658e-10
1.87626e-10
1.87588e-10
1.87544e-10
1.87494e-10
1.87439e-10
1.8738e-10
1.87316e-10
1.87249e-10
1.87178e-10
1.87106e-10
1.87031e-10
1.86955e-10
1.86879e-10
1.86803e-10
1.86727e-10
1.86652e-10
1.86578e-10
1.86506e-10
1.86436e-10
1.86369e-10
1.86304e-10
1.86242e-10
1.86183e-10
1.86128e-10
1.86075e-10
1.86025e-10
1.85979e-10
1.85935e-10
1.85895e-10
1.85857e-10
1.85822e-10
1.8579e-10
1.85759e-10
1.85731e-10
1.85705e-10
1.85681e-10
1.85658e-10
1.85637e-10
1.85617e-10
1.85597e-10
1.85579e-10
1.85562e-10
1.85544e-10
1.85528e-10
1.85511e-10
1.85495e-10
1.85479e-10
1.85463e-10
1.85447e-10
1.85431e-10
1.85414e-10
1.85398e-10
1.85381e-10
1.85364e-10
1.85347e-10
1.85329e-10
1.85311e-10
1.85294e-10
1.85275e-10
1.85257e-10
1.85239e-10
1.85221e-10
1.85202e-10
1.85184e-10
1.85165e-10
1.85147e-10
1.85129e-10
1.85111e-10
1.85093e-10
1.85075e-10
1.85058e-10
1.8504e-10
1.85024e-10
1.85007e-10
1.84991e-10
1.84975e-10
1.8496e-10
1.84946e-10
1.84931e-10
1.84917e-10
1.84904e-10
1.84891e-10
1.84879e-10
1.84867e-10
1.84856e-10
1.84846e-10
1.84836e-10
1.84826e-10
1.84817e-10
1.84809e-10
1.84801e-10
1.84794e-10
1.84787e-10
1.84781e-10
1.84775e-10
1.8477e-10
1.84765e-10
1.84761e-10
1.84758e-10
1.84755e-10
1.84752e-10
1.8475e-10
1.84748e-10
1.84747e-10
1.84746e-10
1.84746e-10
1.84746e-10
1.84746e-10
1.84746e-10
1.84747e-10
1.84749e-10
1.84751e-10
1.84753e-10
1.84756e-10
1.8476e-10
1.84763e-10
1.84767e-10
1.84772e-10
1.84776e-10
1.84781e-10
1.84787e-10
1.84792e-10
1.84798e-10
1.84805e-10
1.84811e-10
1.84818e-10
1.84826e-10
1.84833e-10
1.84841e-10
1.8485e-10
1.84858e-10
1.84867e-10
1.84876e-10
1.84886e-10
1.84896e-10
1.84906e-10
1.84917e-10
1.84928e-10
1.8494e-10
1.84952e-10
1.84964e-10
1.84977e-10
1.84991e-10
1.85005e-10
1.8502e-10
1.85035e-10
1.85051e-10
1.85068e-10
1.85085e-10
1.85104e-10
1.85123e-10
1.85143e-10
1.85165e-10
1.85187e-10
1.85211e-10
1.85236e-10
1.85262e-10
1.8529e-10
1.85319e-10
1.8535e-10
1.85383e-10
1.85417e-10
1.85453e-10
1.85491e-10
1.85531e-10
1.85573e-10
1.85616e-10
1.85662e-10
1.8571e-10
1.85759e-10
1.85811e-10
1.85865e-10
1.8592e-10
1.85977e-10
1.86036e-10
1.86096e-10
1.86158e-10
1.86222e-10
1.86286e-10
1.86351e-10
1.86417e-10
1.86484e-10
1.86551e-10
1.86618e-10
1.86684e-10
1.8675e-10
1.86815e-10
1.86879e-10
1.86941e-10
1.87001e-10
1.87059e-10
1.87115e-10
1.87168e-10
1.87217e-10
1.87263e-10
1.87305e-10
1.87343e-10
1.87376e-10
1.87405e-10
1.87429e-10
1.87447e-10
1.8746e-10
1.87468e-10
1.87471e-10
1.87472e-10
1.87471e-10
1.87466e-10
1.87446e-10
1.87421e-10
1.87391e-10
1.87357e-10
1.87318e-10
1.87274e-10
1.87226e-10
1.87175e-10
1.87121e-10
1.87063e-10
1.87004e-10
1.86942e-10
1.8688e-10
1.86815e-10
1.86751e-10
1.86686e-10
1.86621e-10
1.86557e-10
1.86494e-10
1.86431e-10
1.86371e-10
1.86312e-10
1.86255e-10
1.862e-10
1.86147e-10
1.86096e-10
1.86048e-10
1.86002e-10
1.85959e-10
1.85918e-10
1.85879e-10
1.85843e-10
1.85809e-10
1.85777e-10
1.85747e-10
1.85719e-10
1.85693e-10
1.85668e-10
1.85645e-10
1.85623e-10
1.85602e-10
1.85582e-10
1.85564e-10
1.85546e-10
1.85529e-10
1.85512e-10
1.85496e-10
1.85481e-10
1.85465e-10
1.8545e-10
1.85435e-10
1.8542e-10
1.85406e-10
1.85391e-10
1.85376e-10
)
;

boundaryField
{
    inlet
    {
        type            calculated;
        value           uniform -2.74882e-10;
    }
    outlet
    {
        type            calculated;
        value           uniform 1.85361e-10;
    }
    emptyWalls
    {
        type            empty;
        value           nonuniform List<scalar> 0();
    }
}


// ************************************************************************* //
