/*--------------------------------*- C++ -*----------------------------------*\
  =========                 |
  \\      /  F ield         | OpenFOAM: The Open Source CFD Toolbox
   \\    /   O peration     | Website:  https://openfoam.org
    \\  /    A nd           | Version:  9
     \\/     M anipulation  |
\*---------------------------------------------------------------------------*/
FoamFile
{
    format      ascii;
    class       surfaceScalarField;
    location    "11600";
    object      phic;
}
// * * * * * * * * * * * * * * * * * * * * * * * * * * * * * * * * * * * * * //

dimensions      [0 2 0 0 0 0 0];

internalField   nonuniform List<scalar> 
999
(
4.38976e-15
1.97828e-14
4.66661e-14
8.38245e-14
1.3045e-13
1.85317e-13
2.46385e-13
3.11035e-13
3.75969e-13
4.38335e-13
4.96625e-13
5.55803e-13
6.50688e-13
9.52104e-13
2.01165e-12
7.27487e-12
1.85363e-11
2.08658e-11
2.16535e-11
2.20939e-11
2.24122e-11
2.26739e-11
2.2904e-11
2.31133e-11
2.33075e-11
2.349e-11
2.36629e-11
2.38283e-11
2.39881e-11
2.41439e-11
2.42967e-11
2.44478e-11
2.45986e-11
2.475e-11
2.49127e-11
2.50859e-11
2.52713e-11
2.54696e-11
2.56844e-11
2.59237e-11
2.61994e-11
2.65278e-11
2.69284e-11
2.74171e-11
2.79971e-11
2.86549e-11
2.93692e-11
3.01228e-11
3.09045e-11
3.17067e-11
3.25241e-11
3.33533e-11
3.41917e-11
3.50376e-11
3.58899e-11
3.67477e-11
3.76106e-11
3.84783e-11
3.93506e-11
4.02273e-11
4.11084e-11
4.19939e-11
4.28835e-11
4.37773e-11
4.46752e-11
4.55769e-11
4.64823e-11
4.73914e-11
4.83038e-11
4.92196e-11
5.01385e-11
5.10605e-11
5.19855e-11
5.29133e-11
5.38439e-11
5.47772e-11
5.57132e-11
5.66517e-11
5.75928e-11
5.85363e-11
5.94823e-11
6.04307e-11
6.13814e-11
6.23344e-11
6.32897e-11
6.42473e-11
6.5207e-11
6.6169e-11
6.7133e-11
6.80992e-11
6.90675e-11
7.00379e-11
7.10102e-11
7.19846e-11
7.2961e-11
7.39393e-11
7.49196e-11
7.59018e-11
7.68859e-11
7.78718e-11
7.88596e-11
7.98492e-11
8.08406e-11
8.18338e-11
8.28288e-11
8.38255e-11
8.4824e-11
8.58242e-11
8.6826e-11
8.78296e-11
8.88348e-11
8.98416e-11
9.08501e-11
9.18602e-11
9.28719e-11
9.38853e-11
9.49002e-11
9.59167e-11
9.69348e-11
9.79544e-11
9.89756e-11
9.99983e-11
1.01023e-10
1.02048e-10
1.03076e-10
1.04105e-10
1.05135e-10
1.06167e-10
1.07201e-10
1.08236e-10
1.09273e-10
1.10311e-10
1.11351e-10
1.12393e-10
1.13436e-10
1.1448e-10
1.15526e-10
1.16574e-10
1.17622e-10
1.18673e-10
1.19724e-10
1.20778e-10
1.21832e-10
1.22888e-10
1.23946e-10
1.25005e-10
1.26065e-10
1.27126e-10
1.28188e-10
1.29251e-10
1.30314e-10
1.31377e-10
1.32441e-10
1.33505e-10
1.34568e-10
1.35632e-10
1.36695e-10
1.37758e-10
1.38821e-10
1.39884e-10
1.40948e-10
1.42013e-10
1.43078e-10
1.44146e-10
1.45215e-10
1.46287e-10
1.47361e-10
1.4844e-10
1.49523e-10
1.5061e-10
1.51702e-10
1.528e-10
1.53904e-10
1.55013e-10
1.56127e-10
1.57248e-10
1.58373e-10
1.59503e-10
1.60636e-10
1.61773e-10
1.62913e-10
1.64055e-10
1.65198e-10
1.66342e-10
1.67486e-10
1.6863e-10
1.69774e-10
1.70917e-10
1.72059e-10
1.73201e-10
1.74343e-10
1.75484e-10
1.76625e-10
1.77766e-10
1.78907e-10
1.80049e-10
1.81192e-10
1.82336e-10
1.83481e-10
1.84628e-10
1.85776e-10
1.86927e-10
1.88079e-10
1.89233e-10
1.9039e-10
1.91549e-10
1.9271e-10
1.93873e-10
1.95038e-10
1.96206e-10
1.97375e-10
1.98547e-10
1.99721e-10
2.00897e-10
2.02075e-10
2.03255e-10
2.04437e-10
2.05621e-10
2.06807e-10
2.07995e-10
2.09184e-10
2.10376e-10
2.11569e-10
2.12764e-10
2.13961e-10
2.1516e-10
2.16361e-10
2.17563e-10
2.18768e-10
2.19974e-10
2.21182e-10
2.22392e-10
2.23604e-10
2.24818e-10
2.26034e-10
2.27251e-10
2.28471e-10
2.29693e-10
2.30916e-10
2.32142e-10
2.3337e-10
2.346e-10
2.35831e-10
2.37065e-10
2.38301e-10
2.39539e-10
2.40779e-10
2.42021e-10
2.43265e-10
2.44512e-10
2.4576e-10
2.47011e-10
2.48263e-10
2.49518e-10
2.50775e-10
2.52034e-10
2.53295e-10
2.54558e-10
2.55824e-10
2.57092e-10
2.58361e-10
2.59634e-10
2.60908e-10
2.62184e-10
2.63463e-10
2.64744e-10
2.66028e-10
2.67313e-10
2.68601e-10
2.69892e-10
2.71184e-10
2.72479e-10
2.73777e-10
2.75077e-10
2.76379e-10
2.77684e-10
2.78991e-10
2.80301e-10
2.81614e-10
2.82929e-10
2.84246e-10
2.85567e-10
2.86889e-10
2.88215e-10
2.89543e-10
2.90874e-10
2.92208e-10
2.93545e-10
2.94884e-10
2.96226e-10
2.9757e-10
2.98918e-10
3.00268e-10
3.01621e-10
3.02977e-10
3.04335e-10
3.05696e-10
3.0706e-10
3.08427e-10
3.09795e-10
3.11167e-10
3.1254e-10
3.13916e-10
3.15294e-10
3.16674e-10
3.18055e-10
3.19439e-10
3.20824e-10
3.22211e-10
3.23599e-10
3.24989e-10
3.2638e-10
3.27773e-10
3.29168e-10
3.30564e-10
3.31962e-10
3.33362e-10
3.34764e-10
3.36169e-10
3.37577e-10
3.38988e-10
3.40403e-10
3.41822e-10
3.43246e-10
3.44674e-10
3.46109e-10
3.47549e-10
3.48996e-10
3.5045e-10
3.51912e-10
3.53382e-10
3.54859e-10
3.56346e-10
3.57841e-10
3.59346e-10
3.60859e-10
3.62381e-10
3.63912e-10
3.65451e-10
3.66999e-10
3.68554e-10
3.70116e-10
3.71685e-10
3.73261e-10
3.74842e-10
3.76429e-10
3.7802e-10
3.79615e-10
3.81215e-10
3.82818e-10
3.84424e-10
3.86034e-10
3.87646e-10
3.89261e-10
3.9088e-10
3.92501e-10
3.94125e-10
3.95753e-10
3.97384e-10
3.99018e-10
4.00657e-10
4.02299e-10
4.03946e-10
4.05598e-10
4.07255e-10
4.08916e-10
4.10584e-10
4.12256e-10
4.13935e-10
4.1562e-10
4.17312e-10
4.1901e-10
4.20715e-10
4.22427e-10
4.24146e-10
4.25872e-10
4.27605e-10
4.29346e-10
4.31094e-10
4.3285e-10
4.34613e-10
4.36385e-10
4.38164e-10
4.39951e-10
4.41746e-10
4.4355e-10
4.45361e-10
4.47181e-10
4.49009e-10
4.50845e-10
4.5269e-10
4.54543e-10
4.56406e-10
4.58277e-10
4.60157e-10
4.62046e-10
4.63944e-10
4.65852e-10
4.67768e-10
4.69695e-10
4.71631e-10
4.73576e-10
4.75532e-10
4.77498e-10
4.79474e-10
4.81461e-10
4.83458e-10
4.85465e-10
4.87483e-10
4.89512e-10
4.91553e-10
4.93604e-10
4.95667e-10
4.9774e-10
4.99826e-10
5.01922e-10
5.0403e-10
5.06149e-10
5.08281e-10
5.10423e-10
5.12576e-10
5.1474e-10
5.16914e-10
5.19099e-10
5.21293e-10
5.23497e-10
5.25707e-10
5.27924e-10
5.30145e-10
5.32369e-10
5.34593e-10
5.36815e-10
5.39031e-10
5.41235e-10
5.43425e-10
5.45591e-10
5.4773e-10
5.49832e-10
5.51889e-10
5.53894e-10
5.55834e-10
5.57701e-10
5.59482e-10
5.61171e-10
5.62758e-10
5.64234e-10
5.65596e-10
5.66836e-10
5.67956e-10
5.68956e-10
5.69843e-10
5.70629e-10
5.71327e-10
5.71968e-10
5.72591e-10
5.73269e-10
5.74122e-10
5.75355e-10
5.77327e-10
5.80651e-10
5.86374e-10
5.96205e-10
6.12715e-10
6.39238e-10
6.78769e-10
7.31424e-10
7.91709e-10
8.49437e-10
8.95565e-10
9.27097e-10
9.46301e-10
9.57155e-10
9.63019e-10
9.6611e-10
9.67713e-10
9.68535e-10
9.68953e-10
9.69161e-10
9.6926e-10
9.69302e-10
9.69314e-10
9.69311e-10
9.69299e-10
9.69281e-10
9.69259e-10
9.69234e-10
9.69207e-10
9.69177e-10
9.69144e-10
9.6911e-10
9.69072e-10
9.69032e-10
9.68989e-10
9.68943e-10
9.68895e-10
9.68843e-10
9.68789e-10
9.68733e-10
9.68673e-10
9.68611e-10
9.68547e-10
9.68481e-10
9.68413e-10
9.68343e-10
9.68272e-10
9.682e-10
9.68128e-10
9.68055e-10
9.67982e-10
9.67911e-10
9.6784e-10
9.67772e-10
9.67705e-10
9.67642e-10
9.67582e-10
9.67526e-10
9.67475e-10
9.67429e-10
9.67388e-10
9.67353e-10
9.67326e-10
9.67305e-10
9.67292e-10
9.67286e-10
9.67284e-10
9.67285e-10
9.67288e-10
9.67308e-10
9.67336e-10
9.67371e-10
9.67412e-10
9.67459e-10
9.67511e-10
9.67567e-10
9.67627e-10
9.67691e-10
9.67757e-10
9.67826e-10
9.67896e-10
9.67967e-10
9.68038e-10
9.68109e-10
9.68179e-10
9.68247e-10
9.68314e-10
9.68378e-10
9.68439e-10
9.68498e-10
9.68553e-10
9.68605e-10
9.68654e-10
9.68699e-10
9.6874e-10
9.68778e-10
9.68813e-10
9.68845e-10
9.68873e-10
9.68899e-10
9.68922e-10
9.68943e-10
9.68962e-10
9.68978e-10
9.68993e-10
9.69007e-10
9.69019e-10
9.6903e-10
9.69041e-10
9.6905e-10
9.69059e-10
9.69068e-10
9.69077e-10
9.69086e-10
9.69094e-10
9.69103e-10
9.69112e-10
9.69122e-10
9.69132e-10
9.69142e-10
9.69152e-10
9.69163e-10
9.69175e-10
9.69187e-10
9.69199e-10
9.69212e-10
9.69225e-10
9.69238e-10
9.69252e-10
9.69266e-10
9.6928e-10
9.69295e-10
9.69309e-10
9.69324e-10
9.69338e-10
9.69353e-10
9.69367e-10
9.69382e-10
9.69396e-10
9.6941e-10
9.69424e-10
9.69438e-10
9.69451e-10
9.69465e-10
9.69478e-10
9.6949e-10
9.69502e-10
9.69514e-10
9.69526e-10
9.69537e-10
9.69547e-10
9.69557e-10
9.69567e-10
9.69577e-10
9.69585e-10
9.69594e-10
9.69602e-10
9.6961e-10
9.69617e-10
9.69624e-10
9.69631e-10
9.69637e-10
9.69643e-10
9.69649e-10
9.69654e-10
9.69659e-10
9.69663e-10
9.69667e-10
9.69671e-10
9.69675e-10
9.69678e-10
9.69681e-10
9.69684e-10
9.69686e-10
9.69688e-10
9.6969e-10
9.69692e-10
9.69693e-10
9.69694e-10
9.69694e-10
9.69695e-10
9.69695e-10
9.69695e-10
9.69695e-10
9.69695e-10
9.69694e-10
9.69692e-10
9.69691e-10
9.69689e-10
9.69687e-10
9.69684e-10
9.69682e-10
9.69679e-10
9.69675e-10
9.69672e-10
9.69668e-10
9.69664e-10
9.69659e-10
9.69654e-10
9.69649e-10
9.69644e-10
9.69638e-10
9.69632e-10
9.69626e-10
9.6962e-10
9.69613e-10
9.69606e-10
9.69599e-10
9.69591e-10
9.69584e-10
9.69575e-10
9.69567e-10
9.69558e-10
9.69549e-10
9.69539e-10
9.69529e-10
9.69519e-10
9.69508e-10
9.69497e-10
9.69485e-10
9.69473e-10
9.6946e-10
9.69446e-10
9.69431e-10
9.69416e-10
9.69399e-10
9.69382e-10
9.69364e-10
9.69344e-10
9.69324e-10
9.69301e-10
9.69278e-10
9.69253e-10
9.69226e-10
9.69198e-10
9.69167e-10
9.69135e-10
9.69101e-10
9.69065e-10
9.69026e-10
9.68986e-10
9.68943e-10
9.68899e-10
9.68852e-10
9.68803e-10
9.68752e-10
9.687e-10
9.68645e-10
9.68589e-10
9.68531e-10
9.68472e-10
9.68412e-10
9.6835e-10
9.68289e-10
9.68226e-10
9.68164e-10
9.68102e-10
9.6804e-10
9.67979e-10
9.67919e-10
9.67861e-10
9.67805e-10
9.67751e-10
9.677e-10
9.67651e-10
9.67606e-10
9.67565e-10
9.67528e-10
9.67495e-10
9.67467e-10
9.67444e-10
9.67426e-10
9.67413e-10
9.67406e-10
9.67404e-10
9.67404e-10
9.67404e-10
9.67411e-10
9.67432e-10
9.67457e-10
9.67487e-10
9.67522e-10
9.67561e-10
9.67605e-10
9.67652e-10
9.67702e-10
9.67755e-10
9.67811e-10
9.67868e-10
9.67927e-10
9.67987e-10
9.68047e-10
9.68107e-10
9.68167e-10
9.68226e-10
9.68284e-10
9.68341e-10
9.68396e-10
9.68449e-10
9.685e-10
9.68549e-10
9.68596e-10
9.6864e-10
9.68681e-10
9.68721e-10
9.68757e-10
9.68792e-10
9.68823e-10
9.68853e-10
9.68881e-10
9.68907e-10
9.68931e-10
9.68953e-10
9.68973e-10
9.68993e-10
9.69011e-10
9.69027e-10
9.69043e-10
9.69059e-10
9.69073e-10
9.69087e-10
9.69101e-10
9.69114e-10
9.69127e-10
9.6914e-10
9.69152e-10
9.69165e-10
9.69178e-10
9.69191e-10
9.69204e-10
9.69217e-10
9.6923e-10
9.69244e-10
9.69257e-10
9.69271e-10
9.69285e-10
9.69299e-10
9.69313e-10
9.69328e-10
9.69342e-10
9.69357e-10
9.69371e-10
9.69386e-10
9.694e-10
9.69415e-10
9.69429e-10
9.69443e-10
9.69457e-10
9.69471e-10
9.69485e-10
9.69498e-10
9.69512e-10
9.69525e-10
9.69537e-10
9.6955e-10
9.69562e-10
9.69573e-10
9.69584e-10
9.69595e-10
9.69606e-10
9.69616e-10
9.69625e-10
9.69634e-10
9.69643e-10
9.69651e-10
9.69659e-10
9.69667e-10
9.69674e-10
9.6968e-10
9.69687e-10
9.69692e-10
9.69698e-10
9.69702e-10
9.69707e-10
9.69711e-10
9.69714e-10
9.69718e-10
9.69721e-10
9.69723e-10
9.69725e-10
9.69727e-10
9.69728e-10
9.69729e-10
9.6973e-10
9.6973e-10
9.6973e-10
9.6973e-10
9.6973e-10
9.69729e-10
9.69727e-10
9.69726e-10
9.69724e-10
9.69721e-10
9.69719e-10
9.69716e-10
9.69713e-10
9.6971e-10
9.69706e-10
9.69702e-10
9.69698e-10
9.69693e-10
9.69688e-10
9.69683e-10
9.69678e-10
9.69673e-10
9.69667e-10
9.69661e-10
9.69655e-10
9.69648e-10
9.69641e-10
9.69634e-10
9.69627e-10
9.69619e-10
9.69612e-10
9.69603e-10
9.69595e-10
9.69586e-10
9.69577e-10
9.69568e-10
9.69558e-10
9.69548e-10
9.69537e-10
9.69526e-10
9.69514e-10
9.69502e-10
9.6949e-10
9.69477e-10
9.69463e-10
9.69449e-10
9.69434e-10
9.69418e-10
9.69401e-10
9.69383e-10
9.69364e-10
9.69345e-10
9.69324e-10
9.69302e-10
9.69279e-10
9.69255e-10
9.69229e-10
9.69202e-10
9.69173e-10
9.69143e-10
9.69112e-10
9.69079e-10
9.69044e-10
9.69008e-10
9.68971e-10
9.68931e-10
9.6889e-10
9.68848e-10
9.68804e-10
9.68759e-10
9.68713e-10
9.68665e-10
9.68616e-10
9.68566e-10
9.68515e-10
9.68464e-10
9.68412e-10
9.68359e-10
9.68306e-10
9.68254e-10
9.68201e-10
9.68149e-10
9.68098e-10
9.68048e-10
9.67999e-10
9.67951e-10
9.67905e-10
9.67862e-10
9.6782e-10
9.67781e-10
9.67745e-10
9.67712e-10
9.67683e-10
9.67656e-10
9.67634e-10
9.67615e-10
9.676e-10
9.6759e-10
9.67584e-10
9.67582e-10
9.67582e-10
9.67583e-10
9.67586e-10
9.67602e-10
9.67622e-10
9.67645e-10
9.67672e-10
9.67703e-10
9.67738e-10
9.67775e-10
9.67816e-10
9.67859e-10
9.67904e-10
9.67951e-10
9.67999e-10
9.68049e-10
9.68099e-10
9.6815e-10
9.68201e-10
9.68252e-10
9.68303e-10
9.68353e-10
9.68402e-10
9.68449e-10
9.68496e-10
9.68541e-10
9.68584e-10
9.68626e-10
9.68666e-10
9.68704e-10
9.6874e-10
9.68774e-10
9.68806e-10
9.68836e-10
9.68865e-10
9.68892e-10
9.68917e-10
9.68941e-10
9.68963e-10
9.68984e-10
9.69003e-10
9.69021e-10
9.69039e-10
9.69055e-10
9.6907e-10
9.69085e-10
9.69099e-10
9.69113e-10
9.69126e-10
9.69138e-10
9.69151e-10
9.69163e-10
9.69175e-10
9.69186e-10
9.69198e-10
9.6921e-10
9.69221e-10
9.69233e-10
)
;

boundaryField
{
    inlet
    {
        type            calculated;
        value           uniform 0;
    }
    outlet
    {
        type            calculated;
        value           uniform 9.69245e-10;
    }
    emptyWalls
    {
        type            empty;
        value           nonuniform List<scalar> 0();
    }
}


// ************************************************************************* //
