/*--------------------------------*- C++ -*----------------------------------*\
  =========                 |
  \\      /  F ield         | OpenFOAM: The Open Source CFD Toolbox
   \\    /   O peration     | Website:  https://openfoam.org
    \\  /    A nd           | Version:  9
     \\/     M anipulation  |
\*---------------------------------------------------------------------------*/
FoamFile
{
    format      ascii;
    class       volVectorField;
    location    "11600";
    object      Ua;
}
// * * * * * * * * * * * * * * * * * * * * * * * * * * * * * * * * * * * * * //

dimensions      [0 0 0 0 0 0 0];

internalField   nonuniform List<vector> 
1000
(
(2.74922e-06 0 0)
(2.74871e-06 0 0)
(2.74819e-06 0 0)
(2.74766e-06 0 0)
(2.74663e-06 0 0)
(2.74572e-06 0 0)
(2.74439e-06 0 0)
(2.74304e-06 0 0)
(2.74179e-06 0 0)
(2.74047e-06 0 0)
(2.73938e-06 0 0)
(2.73822e-06 0 0)
(2.73663e-06 0 0)
(2.73227e-06 0 0)
(2.71718e-06 0 0)
(2.64068e-06 0 0)
(2.39272e-06 0 0)
(2.17376e-06 0 0)
(2.12742e-06 0 0)
(2.11144e-06 0 0)
(2.10244e-06 0 0)
(2.096e-06 0 0)
(2.0909e-06 0 0)
(2.08676e-06 0 0)
(2.08346e-06 0 0)
(2.08086e-06 0 0)
(2.07875e-06 0 0)
(2.0769e-06 0 0)
(2.07525e-06 0 0)
(2.07394e-06 0 0)
(2.07338e-06 0 0)
(2.07395e-06 0 0)
(2.07585e-06 0 0)
(2.07898e-06 0 0)
(2.08273e-06 0 0)
(2.08625e-06 0 0)
(2.08877e-06 0 0)
(2.09036e-06 0 0)
(2.09161e-06 0 0)
(2.0926e-06 0 0)
(2.09301e-06 0 0)
(2.09254e-06 0 0)
(2.09101e-06 0 0)
(2.08842e-06 0 0)
(2.08491e-06 0 0)
(2.08068e-06 0 0)
(2.07585e-06 0 0)
(2.07068e-06 0 0)
(2.06552e-06 0 0)
(2.06064e-06 0 0)
(2.05628e-06 0 0)
(2.05259e-06 0 0)
(2.04965e-06 0 0)
(2.04747e-06 0 0)
(2.046e-06 0 0)
(2.04515e-06 0 0)
(2.0448e-06 0 0)
(2.04482e-06 0 0)
(2.04509e-06 0 0)
(2.04548e-06 0 0)
(2.04591e-06 0 0)
(2.04628e-06 0 0)
(2.04656e-06 0 0)
(2.04671e-06 0 0)
(2.04671e-06 0 0)
(2.04657e-06 0 0)
(2.0463e-06 0 0)
(2.04591e-06 0 0)
(2.04543e-06 0 0)
(2.04487e-06 0 0)
(2.04426e-06 0 0)
(2.0436e-06 0 0)
(2.04292e-06 0 0)
(2.04223e-06 0 0)
(2.04153e-06 0 0)
(2.04083e-06 0 0)
(2.04013e-06 0 0)
(2.03944e-06 0 0)
(2.03876e-06 0 0)
(2.03808e-06 0 0)
(2.03742e-06 0 0)
(2.03676e-06 0 0)
(2.03611e-06 0 0)
(2.03547e-06 0 0)
(2.03483e-06 0 0)
(2.03421e-06 0 0)
(2.0336e-06 0 0)
(2.03299e-06 0 0)
(2.03239e-06 0 0)
(2.03181e-06 0 0)
(2.03123e-06 0 0)
(2.03066e-06 0 0)
(2.0301e-06 0 0)
(2.02954e-06 0 0)
(2.029e-06 0 0)
(2.02846e-06 0 0)
(2.02793e-06 0 0)
(2.02741e-06 0 0)
(2.0269e-06 0 0)
(2.0264e-06 0 0)
(2.02591e-06 0 0)
(2.02543e-06 0 0)
(2.02496e-06 0 0)
(2.02451e-06 0 0)
(2.02406e-06 0 0)
(2.02363e-06 0 0)
(2.02321e-06 0 0)
(2.0228e-06 0 0)
(2.02241e-06 0 0)
(2.02203e-06 0 0)
(2.02166e-06 0 0)
(2.02131e-06 0 0)
(2.02097e-06 0 0)
(2.02065e-06 0 0)
(2.02034e-06 0 0)
(2.02004e-06 0 0)
(2.01975e-06 0 0)
(2.01948e-06 0 0)
(2.01923e-06 0 0)
(2.01898e-06 0 0)
(2.01875e-06 0 0)
(2.01854e-06 0 0)
(2.01833e-06 0 0)
(2.01813e-06 0 0)
(2.01795e-06 0 0)
(2.01777e-06 0 0)
(2.0176e-06 0 0)
(2.01743e-06 0 0)
(2.01727e-06 0 0)
(2.0171e-06 0 0)
(2.01693e-06 0 0)
(2.01675e-06 0 0)
(2.01657e-06 0 0)
(2.01639e-06 0 0)
(2.01621e-06 0 0)
(2.01604e-06 0 0)
(2.01587e-06 0 0)
(2.01572e-06 0 0)
(2.01558e-06 0 0)
(2.01546e-06 0 0)
(2.01535e-06 0 0)
(2.01526e-06 0 0)
(2.01517e-06 0 0)
(2.01509e-06 0 0)
(2.01502e-06 0 0)
(2.01496e-06 0 0)
(2.01494e-06 0 0)
(2.01496e-06 0 0)
(2.01503e-06 0 0)
(2.01519e-06 0 0)
(2.01546e-06 0 0)
(2.01584e-06 0 0)
(2.01637e-06 0 0)
(2.01706e-06 0 0)
(2.01791e-06 0 0)
(2.01893e-06 0 0)
(2.02013e-06 0 0)
(2.02148e-06 0 0)
(2.02297e-06 0 0)
(2.0246e-06 0 0)
(2.02632e-06 0 0)
(2.02811e-06 0 0)
(2.02992e-06 0 0)
(2.03173e-06 0 0)
(2.03348e-06 0 0)
(2.03511e-06 0 0)
(2.03659e-06 0 0)
(2.03785e-06 0 0)
(2.03885e-06 0 0)
(2.03955e-06 0 0)
(2.0399e-06 0 0)
(2.03987e-06 0 0)
(2.03945e-06 0 0)
(2.03864e-06 0 0)
(2.03743e-06 0 0)
(2.03586e-06 0 0)
(2.03397e-06 0 0)
(2.03179e-06 0 0)
(2.02939e-06 0 0)
(2.02682e-06 0 0)
(2.02417e-06 0 0)
(2.02148e-06 0 0)
(2.01882e-06 0 0)
(2.01625e-06 0 0)
(2.0138e-06 0 0)
(2.01153e-06 0 0)
(2.00944e-06 0 0)
(2.00757e-06 0 0)
(2.00592e-06 0 0)
(2.00448e-06 0 0)
(2.00324e-06 0 0)
(2.0022e-06 0 0)
(2.00134e-06 0 0)
(2.00062e-06 0 0)
(2.00004e-06 0 0)
(1.99955e-06 0 0)
(1.99915e-06 0 0)
(1.99881e-06 0 0)
(1.99851e-06 0 0)
(1.99823e-06 0 0)
(1.99796e-06 0 0)
(1.99768e-06 0 0)
(1.99738e-06 0 0)
(1.99706e-06 0 0)
(1.99672e-06 0 0)
(1.99634e-06 0 0)
(1.99592e-06 0 0)
(1.99548e-06 0 0)
(1.995e-06 0 0)
(1.99449e-06 0 0)
(1.99395e-06 0 0)
(1.99339e-06 0 0)
(1.99281e-06 0 0)
(1.99221e-06 0 0)
(1.9916e-06 0 0)
(1.99098e-06 0 0)
(1.99035e-06 0 0)
(1.98971e-06 0 0)
(1.98908e-06 0 0)
(1.98844e-06 0 0)
(1.98781e-06 0 0)
(1.98718e-06 0 0)
(1.98656e-06 0 0)
(1.98595e-06 0 0)
(1.98534e-06 0 0)
(1.98474e-06 0 0)
(1.98415e-06 0 0)
(1.98357e-06 0 0)
(1.983e-06 0 0)
(1.98243e-06 0 0)
(1.98188e-06 0 0)
(1.98133e-06 0 0)
(1.98079e-06 0 0)
(1.98026e-06 0 0)
(1.97973e-06 0 0)
(1.97921e-06 0 0)
(1.9787e-06 0 0)
(1.97819e-06 0 0)
(1.97769e-06 0 0)
(1.97719e-06 0 0)
(1.9767e-06 0 0)
(1.97621e-06 0 0)
(1.97573e-06 0 0)
(1.97525e-06 0 0)
(1.97478e-06 0 0)
(1.97432e-06 0 0)
(1.97386e-06 0 0)
(1.9734e-06 0 0)
(1.97296e-06 0 0)
(1.97252e-06 0 0)
(1.97208e-06 0 0)
(1.97166e-06 0 0)
(1.97123e-06 0 0)
(1.97082e-06 0 0)
(1.97041e-06 0 0)
(1.97002e-06 0 0)
(1.96962e-06 0 0)
(1.96924e-06 0 0)
(1.96886e-06 0 0)
(1.96849e-06 0 0)
(1.96813e-06 0 0)
(1.96778e-06 0 0)
(1.96743e-06 0 0)
(1.9671e-06 0 0)
(1.96677e-06 0 0)
(1.96644e-06 0 0)
(1.96613e-06 0 0)
(1.96582e-06 0 0)
(1.96552e-06 0 0)
(1.96523e-06 0 0)
(1.96494e-06 0 0)
(1.96466e-06 0 0)
(1.96439e-06 0 0)
(1.96412e-06 0 0)
(1.96385e-06 0 0)
(1.96359e-06 0 0)
(1.96334e-06 0 0)
(1.96308e-06 0 0)
(1.96283e-06 0 0)
(1.96258e-06 0 0)
(1.96234e-06 0 0)
(1.96209e-06 0 0)
(1.96185e-06 0 0)
(1.9616e-06 0 0)
(1.96136e-06 0 0)
(1.96112e-06 0 0)
(1.96088e-06 0 0)
(1.96065e-06 0 0)
(1.96042e-06 0 0)
(1.96019e-06 0 0)
(1.95996e-06 0 0)
(1.95974e-06 0 0)
(1.95953e-06 0 0)
(1.95932e-06 0 0)
(1.95912e-06 0 0)
(1.95893e-06 0 0)
(1.95875e-06 0 0)
(1.95859e-06 0 0)
(1.95844e-06 0 0)
(1.95832e-06 0 0)
(1.95822e-06 0 0)
(1.95816e-06 0 0)
(1.95813e-06 0 0)
(1.95815e-06 0 0)
(1.95822e-06 0 0)
(1.95833e-06 0 0)
(1.95851e-06 0 0)
(1.95875e-06 0 0)
(1.95906e-06 0 0)
(1.95945e-06 0 0)
(1.9599e-06 0 0)
(1.96043e-06 0 0)
(1.96103e-06 0 0)
(1.9617e-06 0 0)
(1.96245e-06 0 0)
(1.96325e-06 0 0)
(1.96411e-06 0 0)
(1.96502e-06 0 0)
(1.96596e-06 0 0)
(1.96693e-06 0 0)
(1.96791e-06 0 0)
(1.96889e-06 0 0)
(1.96984e-06 0 0)
(1.97075e-06 0 0)
(1.97161e-06 0 0)
(1.9724e-06 0 0)
(1.97309e-06 0 0)
(1.97368e-06 0 0)
(1.97414e-06 0 0)
(1.97445e-06 0 0)
(1.97461e-06 0 0)
(1.97461e-06 0 0)
(1.97443e-06 0 0)
(1.97407e-06 0 0)
(1.97352e-06 0 0)
(1.9728e-06 0 0)
(1.9719e-06 0 0)
(1.97083e-06 0 0)
(1.9696e-06 0 0)
(1.96824e-06 0 0)
(1.96675e-06 0 0)
(1.96516e-06 0 0)
(1.96349e-06 0 0)
(1.96176e-06 0 0)
(1.95999e-06 0 0)
(1.95821e-06 0 0)
(1.95643e-06 0 0)
(1.95468e-06 0 0)
(1.95296e-06 0 0)
(1.9513e-06 0 0)
(1.94971e-06 0 0)
(1.9482e-06 0 0)
(1.94677e-06 0 0)
(1.94543e-06 0 0)
(1.94419e-06 0 0)
(1.94303e-06 0 0)
(1.94197e-06 0 0)
(1.94099e-06 0 0)
(1.94009e-06 0 0)
(1.93926e-06 0 0)
(1.93851e-06 0 0)
(1.93782e-06 0 0)
(1.93717e-06 0 0)
(1.93658e-06 0 0)
(1.93602e-06 0 0)
(1.9355e-06 0 0)
(1.93499e-06 0 0)
(1.93451e-06 0 0)
(1.93404e-06 0 0)
(1.93357e-06 0 0)
(1.93311e-06 0 0)
(1.93264e-06 0 0)
(1.93217e-06 0 0)
(1.93169e-06 0 0)
(1.9312e-06 0 0)
(1.93071e-06 0 0)
(1.9302e-06 0 0)
(1.92967e-06 0 0)
(1.92914e-06 0 0)
(1.92859e-06 0 0)
(1.92803e-06 0 0)
(1.92746e-06 0 0)
(1.92688e-06 0 0)
(1.92629e-06 0 0)
(1.9257e-06 0 0)
(1.92509e-06 0 0)
(1.92448e-06 0 0)
(1.92386e-06 0 0)
(1.92324e-06 0 0)
(1.92262e-06 0 0)
(1.92199e-06 0 0)
(1.92136e-06 0 0)
(1.92074e-06 0 0)
(1.92011e-06 0 0)
(1.91948e-06 0 0)
(1.91886e-06 0 0)
(1.91824e-06 0 0)
(1.91762e-06 0 0)
(1.917e-06 0 0)
(1.91639e-06 0 0)
(1.91579e-06 0 0)
(1.91518e-06 0 0)
(1.91458e-06 0 0)
(1.91399e-06 0 0)
(1.91339e-06 0 0)
(1.91281e-06 0 0)
(1.91223e-06 0 0)
(1.91165e-06 0 0)
(1.91107e-06 0 0)
(1.91051e-06 0 0)
(1.90994e-06 0 0)
(1.90938e-06 0 0)
(1.90883e-06 0 0)
(1.90827e-06 0 0)
(1.90773e-06 0 0)
(1.90718e-06 0 0)
(1.90664e-06 0 0)
(1.90611e-06 0 0)
(1.90558e-06 0 0)
(1.90505e-06 0 0)
(1.90453e-06 0 0)
(1.90401e-06 0 0)
(1.9035e-06 0 0)
(1.90298e-06 0 0)
(1.90248e-06 0 0)
(1.90198e-06 0 0)
(1.90148e-06 0 0)
(1.90099e-06 0 0)
(1.9005e-06 0 0)
(1.90002e-06 0 0)
(1.89954e-06 0 0)
(1.89907e-06 0 0)
(1.89861e-06 0 0)
(1.89816e-06 0 0)
(1.89771e-06 0 0)
(1.89727e-06 0 0)
(1.89685e-06 0 0)
(1.89643e-06 0 0)
(1.89604e-06 0 0)
(1.89566e-06 0 0)
(1.8953e-06 0 0)
(1.89495e-06 0 0)
(1.89462e-06 0 0)
(1.89433e-06 0 0)
(1.89405e-06 0 0)
(1.8938e-06 0 0)
(1.89357e-06 0 0)
(1.89338e-06 0 0)
(1.89321e-06 0 0)
(1.89306e-06 0 0)
(1.89295e-06 0 0)
(1.89286e-06 0 0)
(1.89279e-06 0 0)
(1.89274e-06 0 0)
(1.89269e-06 0 0)
(1.89266e-06 0 0)
(1.89259e-06 0 0)
(1.89249e-06 0 0)
(1.89228e-06 0 0)
(1.89187e-06 0 0)
(1.89113e-06 0 0)
(1.8898e-06 0 0)
(1.88753e-06 0 0)
(1.8839e-06 0 0)
(1.8786e-06 0 0)
(1.87188e-06 0 0)
(1.86475e-06 0 0)
(1.8587e-06 0 0)
(1.85461e-06 0 0)
(1.85235e-06 0 0)
(1.85129e-06 0 0)
(1.85084e-06 0 0)
(1.8507e-06 0 0)
(1.85071e-06 0 0)
(1.85079e-06 0 0)
(1.85091e-06 0 0)
(1.85106e-06 0 0)
(1.85122e-06 0 0)
(1.8514e-06 0 0)
(1.8516e-06 0 0)
(1.85182e-06 0 0)
(1.85205e-06 0 0)
(1.8523e-06 0 0)
(1.85257e-06 0 0)
(1.85286e-06 0 0)
(1.85317e-06 0 0)
(1.85352e-06 0 0)
(1.85388e-06 0 0)
(1.85428e-06 0 0)
(1.85471e-06 0 0)
(1.85517e-06 0 0)
(1.85566e-06 0 0)
(1.85619e-06 0 0)
(1.85675e-06 0 0)
(1.85735e-06 0 0)
(1.85799e-06 0 0)
(1.85865e-06 0 0)
(1.85936e-06 0 0)
(1.86009e-06 0 0)
(1.86086e-06 0 0)
(1.86166e-06 0 0)
(1.86249e-06 0 0)
(1.86335e-06 0 0)
(1.86422e-06 0 0)
(1.86511e-06 0 0)
(1.86602e-06 0 0)
(1.86694e-06 0 0)
(1.86786e-06 0 0)
(1.86879e-06 0 0)
(1.8697e-06 0 0)
(1.8706e-06 0 0)
(1.87149e-06 0 0)
(1.87234e-06 0 0)
(1.87316e-06 0 0)
(1.87395e-06 0 0)
(1.87468e-06 0 0)
(1.87537e-06 0 0)
(1.87599e-06 0 0)
(1.87654e-06 0 0)
(1.87702e-06 0 0)
(1.87742e-06 0 0)
(1.87773e-06 0 0)
(1.87795e-06 0 0)
(1.87808e-06 0 0)
(1.87813e-06 0 0)
(1.87814e-06 0 0)
(1.87812e-06 0 0)
(1.87798e-06 0 0)
(1.87769e-06 0 0)
(1.87729e-06 0 0)
(1.87682e-06 0 0)
(1.87627e-06 0 0)
(1.87565e-06 0 0)
(1.87498e-06 0 0)
(1.87424e-06 0 0)
(1.87347e-06 0 0)
(1.87265e-06 0 0)
(1.8718e-06 0 0)
(1.87093e-06 0 0)
(1.87005e-06 0 0)
(1.86916e-06 0 0)
(1.86827e-06 0 0)
(1.86739e-06 0 0)
(1.86652e-06 0 0)
(1.86567e-06 0 0)
(1.86486e-06 0 0)
(1.86407e-06 0 0)
(1.86332e-06 0 0)
(1.86261e-06 0 0)
(1.86194e-06 0 0)
(1.86131e-06 0 0)
(1.86073e-06 0 0)
(1.86019e-06 0 0)
(1.8597e-06 0 0)
(1.85924e-06 0 0)
(1.85883e-06 0 0)
(1.85846e-06 0 0)
(1.85812e-06 0 0)
(1.85782e-06 0 0)
(1.85755e-06 0 0)
(1.85731e-06 0 0)
(1.85709e-06 0 0)
(1.8569e-06 0 0)
(1.85673e-06 0 0)
(1.85657e-06 0 0)
(1.85643e-06 0 0)
(1.8563e-06 0 0)
(1.85618e-06 0 0)
(1.85607e-06 0 0)
(1.85596e-06 0 0)
(1.85585e-06 0 0)
(1.85575e-06 0 0)
(1.85564e-06 0 0)
(1.85553e-06 0 0)
(1.85542e-06 0 0)
(1.85531e-06 0 0)
(1.85519e-06 0 0)
(1.85507e-06 0 0)
(1.85494e-06 0 0)
(1.8548e-06 0 0)
(1.85466e-06 0 0)
(1.85452e-06 0 0)
(1.85437e-06 0 0)
(1.85421e-06 0 0)
(1.85405e-06 0 0)
(1.85388e-06 0 0)
(1.85371e-06 0 0)
(1.85354e-06 0 0)
(1.85336e-06 0 0)
(1.85318e-06 0 0)
(1.85299e-06 0 0)
(1.85281e-06 0 0)
(1.85262e-06 0 0)
(1.85244e-06 0 0)
(1.85225e-06 0 0)
(1.85207e-06 0 0)
(1.85188e-06 0 0)
(1.8517e-06 0 0)
(1.85152e-06 0 0)
(1.85134e-06 0 0)
(1.85117e-06 0 0)
(1.851e-06 0 0)
(1.85083e-06 0 0)
(1.85067e-06 0 0)
(1.85051e-06 0 0)
(1.85035e-06 0 0)
(1.8502e-06 0 0)
(1.85006e-06 0 0)
(1.84992e-06 0 0)
(1.84978e-06 0 0)
(1.84965e-06 0 0)
(1.84953e-06 0 0)
(1.84941e-06 0 0)
(1.8493e-06 0 0)
(1.84919e-06 0 0)
(1.84908e-06 0 0)
(1.84898e-06 0 0)
(1.84889e-06 0 0)
(1.8488e-06 0 0)
(1.84871e-06 0 0)
(1.84864e-06 0 0)
(1.84856e-06 0 0)
(1.84849e-06 0 0)
(1.84842e-06 0 0)
(1.84836e-06 0 0)
(1.8483e-06 0 0)
(1.84825e-06 0 0)
(1.8482e-06 0 0)
(1.84815e-06 0 0)
(1.84811e-06 0 0)
(1.84807e-06 0 0)
(1.84804e-06 0 0)
(1.84801e-06 0 0)
(1.84798e-06 0 0)
(1.84796e-06 0 0)
(1.84794e-06 0 0)
(1.84792e-06 0 0)
(1.84791e-06 0 0)
(1.84791e-06 0 0)
(1.8479e-06 0 0)
(1.8479e-06 0 0)
(1.8479e-06 0 0)
(1.8479e-06 0 0)
(1.84791e-06 0 0)
(1.84792e-06 0 0)
(1.84794e-06 0 0)
(1.84796e-06 0 0)
(1.84799e-06 0 0)
(1.84802e-06 0 0)
(1.84805e-06 0 0)
(1.84809e-06 0 0)
(1.84813e-06 0 0)
(1.84817e-06 0 0)
(1.84822e-06 0 0)
(1.84827e-06 0 0)
(1.84833e-06 0 0)
(1.84838e-06 0 0)
(1.84845e-06 0 0)
(1.84851e-06 0 0)
(1.84858e-06 0 0)
(1.84866e-06 0 0)
(1.84873e-06 0 0)
(1.84881e-06 0 0)
(1.8489e-06 0 0)
(1.84898e-06 0 0)
(1.84907e-06 0 0)
(1.84917e-06 0 0)
(1.84927e-06 0 0)
(1.84937e-06 0 0)
(1.84947e-06 0 0)
(1.84959e-06 0 0)
(1.8497e-06 0 0)
(1.84982e-06 0 0)
(1.84994e-06 0 0)
(1.85007e-06 0 0)
(1.85021e-06 0 0)
(1.85035e-06 0 0)
(1.8505e-06 0 0)
(1.85065e-06 0 0)
(1.85082e-06 0 0)
(1.85099e-06 0 0)
(1.85117e-06 0 0)
(1.85136e-06 0 0)
(1.85157e-06 0 0)
(1.85178e-06 0 0)
(1.85201e-06 0 0)
(1.85225e-06 0 0)
(1.85251e-06 0 0)
(1.85279e-06 0 0)
(1.85308e-06 0 0)
(1.85339e-06 0 0)
(1.85372e-06 0 0)
(1.85408e-06 0 0)
(1.85445e-06 0 0)
(1.85485e-06 0 0)
(1.85527e-06 0 0)
(1.85572e-06 0 0)
(1.85619e-06 0 0)
(1.85668e-06 0 0)
(1.85721e-06 0 0)
(1.85776e-06 0 0)
(1.85833e-06 0 0)
(1.85893e-06 0 0)
(1.85956e-06 0 0)
(1.86021e-06 0 0)
(1.86089e-06 0 0)
(1.86158e-06 0 0)
(1.8623e-06 0 0)
(1.86303e-06 0 0)
(1.86378e-06 0 0)
(1.86455e-06 0 0)
(1.86532e-06 0 0)
(1.86611e-06 0 0)
(1.86689e-06 0 0)
(1.86768e-06 0 0)
(1.86846e-06 0 0)
(1.86924e-06 0 0)
(1.87e-06 0 0)
(1.87075e-06 0 0)
(1.87147e-06 0 0)
(1.87217e-06 0 0)
(1.87284e-06 0 0)
(1.87347e-06 0 0)
(1.87406e-06 0 0)
(1.87461e-06 0 0)
(1.87511e-06 0 0)
(1.87555e-06 0 0)
(1.87594e-06 0 0)
(1.87627e-06 0 0)
(1.87653e-06 0 0)
(1.87672e-06 0 0)
(1.87685e-06 0 0)
(1.87691e-06 0 0)
(1.87693e-06 0 0)
(1.87693e-06 0 0)
(1.87689e-06 0 0)
(1.87672e-06 0 0)
(1.87642e-06 0 0)
(1.87607e-06 0 0)
(1.87566e-06 0 0)
(1.87519e-06 0 0)
(1.87467e-06 0 0)
(1.8741e-06 0 0)
(1.87348e-06 0 0)
(1.87282e-06 0 0)
(1.87214e-06 0 0)
(1.87142e-06 0 0)
(1.87068e-06 0 0)
(1.86993e-06 0 0)
(1.86917e-06 0 0)
(1.86841e-06 0 0)
(1.86765e-06 0 0)
(1.86689e-06 0 0)
(1.86615e-06 0 0)
(1.86542e-06 0 0)
(1.86471e-06 0 0)
(1.86403e-06 0 0)
(1.86337e-06 0 0)
(1.86273e-06 0 0)
(1.86213e-06 0 0)
(1.86156e-06 0 0)
(1.86101e-06 0 0)
(1.8605e-06 0 0)
(1.86002e-06 0 0)
(1.85957e-06 0 0)
(1.85915e-06 0 0)
(1.85876e-06 0 0)
(1.8584e-06 0 0)
(1.85806e-06 0 0)
(1.85775e-06 0 0)
(1.85745e-06 0 0)
(1.85718e-06 0 0)
(1.85693e-06 0 0)
(1.8567e-06 0 0)
(1.85648e-06 0 0)
(1.85627e-06 0 0)
(1.85607e-06 0 0)
(1.85588e-06 0 0)
(1.8557e-06 0 0)
(1.85553e-06 0 0)
(1.85536e-06 0 0)
(1.8552e-06 0 0)
(1.85503e-06 0 0)
(1.85487e-06 0 0)
(1.85471e-06 0 0)
(1.85455e-06 0 0)
(1.85439e-06 0 0)
(1.85422e-06 0 0)
(1.85406e-06 0 0)
(1.85389e-06 0 0)
(1.85372e-06 0 0)
(1.85355e-06 0 0)
(1.85338e-06 0 0)
(1.8532e-06 0 0)
(1.85302e-06 0 0)
(1.85284e-06 0 0)
(1.85266e-06 0 0)
(1.85248e-06 0 0)
(1.8523e-06 0 0)
(1.85211e-06 0 0)
(1.85193e-06 0 0)
(1.85174e-06 0 0)
(1.85156e-06 0 0)
(1.85138e-06 0 0)
(1.8512e-06 0 0)
(1.85102e-06 0 0)
(1.85084e-06 0 0)
(1.85066e-06 0 0)
(1.85049e-06 0 0)
(1.85032e-06 0 0)
(1.85015e-06 0 0)
(1.84999e-06 0 0)
(1.84983e-06 0 0)
(1.84968e-06 0 0)
(1.84953e-06 0 0)
(1.84938e-06 0 0)
(1.84924e-06 0 0)
(1.84911e-06 0 0)
(1.84898e-06 0 0)
(1.84885e-06 0 0)
(1.84873e-06 0 0)
(1.84862e-06 0 0)
(1.84851e-06 0 0)
(1.84841e-06 0 0)
(1.84831e-06 0 0)
(1.84822e-06 0 0)
(1.84813e-06 0 0)
(1.84805e-06 0 0)
(1.84797e-06 0 0)
(1.8479e-06 0 0)
(1.84784e-06 0 0)
(1.84778e-06 0 0)
(1.84773e-06 0 0)
(1.84768e-06 0 0)
(1.84763e-06 0 0)
(1.8476e-06 0 0)
(1.84756e-06 0 0)
(1.84753e-06 0 0)
(1.84751e-06 0 0)
(1.84749e-06 0 0)
(1.84748e-06 0 0)
(1.84747e-06 0 0)
(1.84746e-06 0 0)
(1.84746e-06 0 0)
(1.84746e-06 0 0)
(1.84746e-06 0 0)
(1.84747e-06 0 0)
(1.84748e-06 0 0)
(1.8475e-06 0 0)
(1.84752e-06 0 0)
(1.84755e-06 0 0)
(1.84758e-06 0 0)
(1.84761e-06 0 0)
(1.84765e-06 0 0)
(1.84769e-06 0 0)
(1.84774e-06 0 0)
(1.84779e-06 0 0)
(1.84784e-06 0 0)
(1.84789e-06 0 0)
(1.84795e-06 0 0)
(1.84801e-06 0 0)
(1.84808e-06 0 0)
(1.84815e-06 0 0)
(1.84822e-06 0 0)
(1.84829e-06 0 0)
(1.84837e-06 0 0)
(1.84845e-06 0 0)
(1.84854e-06 0 0)
(1.84863e-06 0 0)
(1.84872e-06 0 0)
(1.84881e-06 0 0)
(1.84891e-06 0 0)
(1.84901e-06 0 0)
(1.84912e-06 0 0)
(1.84923e-06 0 0)
(1.84934e-06 0 0)
(1.84946e-06 0 0)
(1.84958e-06 0 0)
(1.84971e-06 0 0)
(1.84984e-06 0 0)
(1.84998e-06 0 0)
(1.85012e-06 0 0)
(1.85027e-06 0 0)
(1.85043e-06 0 0)
(1.85059e-06 0 0)
(1.85076e-06 0 0)
(1.85094e-06 0 0)
(1.85113e-06 0 0)
(1.85133e-06 0 0)
(1.85154e-06 0 0)
(1.85176e-06 0 0)
(1.85199e-06 0 0)
(1.85223e-06 0 0)
(1.85249e-06 0 0)
(1.85276e-06 0 0)
(1.85305e-06 0 0)
(1.85335e-06 0 0)
(1.85366e-06 0 0)
(1.854e-06 0 0)
(1.85435e-06 0 0)
(1.85472e-06 0 0)
(1.85511e-06 0 0)
(1.85552e-06 0 0)
(1.85594e-06 0 0)
(1.85639e-06 0 0)
(1.85686e-06 0 0)
(1.85735e-06 0 0)
(1.85785e-06 0 0)
(1.85838e-06 0 0)
(1.85892e-06 0 0)
(1.85949e-06 0 0)
(1.86007e-06 0 0)
(1.86066e-06 0 0)
(1.86127e-06 0 0)
(1.8619e-06 0 0)
(1.86254e-06 0 0)
(1.86319e-06 0 0)
(1.86384e-06 0 0)
(1.86451e-06 0 0)
(1.86517e-06 0 0)
(1.86584e-06 0 0)
(1.86651e-06 0 0)
(1.86717e-06 0 0)
(1.86782e-06 0 0)
(1.86847e-06 0 0)
(1.8691e-06 0 0)
(1.86971e-06 0 0)
(1.8703e-06 0 0)
(1.87087e-06 0 0)
(1.87141e-06 0 0)
(1.87192e-06 0 0)
(1.8724e-06 0 0)
(1.87284e-06 0 0)
(1.87324e-06 0 0)
(1.87359e-06 0 0)
(1.87391e-06 0 0)
(1.87417e-06 0 0)
(1.87438e-06 0 0)
(1.87454e-06 0 0)
(1.87464e-06 0 0)
(1.8747e-06 0 0)
(1.87471e-06 0 0)
(1.87471e-06 0 0)
(1.87468e-06 0 0)
(1.87456e-06 0 0)
(1.87434e-06 0 0)
(1.87406e-06 0 0)
(1.87374e-06 0 0)
(1.87337e-06 0 0)
(1.87296e-06 0 0)
(1.8725e-06 0 0)
(1.87201e-06 0 0)
(1.87148e-06 0 0)
(1.87092e-06 0 0)
(1.87034e-06 0 0)
(1.86973e-06 0 0)
(1.86911e-06 0 0)
(1.86847e-06 0 0)
(1.86783e-06 0 0)
(1.86718e-06 0 0)
(1.86653e-06 0 0)
(1.86589e-06 0 0)
(1.86525e-06 0 0)
(1.86463e-06 0 0)
(1.86401e-06 0 0)
(1.86341e-06 0 0)
(1.86283e-06 0 0)
(1.86227e-06 0 0)
(1.86173e-06 0 0)
(1.86122e-06 0 0)
(1.86072e-06 0 0)
(1.86025e-06 0 0)
(1.85981e-06 0 0)
(1.85939e-06 0 0)
(1.85899e-06 0 0)
(1.85861e-06 0 0)
(1.85826e-06 0 0)
(1.85793e-06 0 0)
(1.85762e-06 0 0)
(1.85733e-06 0 0)
(1.85706e-06 0 0)
(1.8568e-06 0 0)
(1.85656e-06 0 0)
(1.85634e-06 0 0)
(1.85612e-06 0 0)
(1.85592e-06 0 0)
(1.85573e-06 0 0)
(1.85555e-06 0 0)
(1.85537e-06 0 0)
(1.85521e-06 0 0)
(1.85504e-06 0 0)
(1.85488e-06 0 0)
(1.85473e-06 0 0)
(1.85458e-06 0 0)
(1.85443e-06 0 0)
(1.85428e-06 0 0)
(1.85413e-06 0 0)
(1.85398e-06 0 0)
(1.85383e-06 0 0)
(1.85369e-06 0 0)
)
;

boundaryField
{
    inlet
    {
        type            fixedValue;
        value           uniform (2.74882e-06 0 0);
    }
    outlet
    {
        type            zeroGradient;
    }
    emptyWalls
    {
        type            empty;
    }
}


// ************************************************************************* //
