/*--------------------------------*- C++ -*----------------------------------*\
  =========                 |
  \\      /  F ield         | OpenFOAM: The Open Source CFD Toolbox
   \\    /   O peration     | Website:  https://openfoam.org
    \\  /    A nd           | Version:  9
     \\/     M anipulation  |
\*---------------------------------------------------------------------------*/
FoamFile
{
    format      ascii;
    class       volScalarField;
    location    "14200";
    object      Sa;
}
// * * * * * * * * * * * * * * * * * * * * * * * * * * * * * * * * * * * * * //

dimensions      [0 0 0 0 0 0 0];

internalField   nonuniform List<scalar> 
1000
(
0.549231
0.54756
0.545402
0.543286
0.541198
0.539092
0.537005
0.534928
0.532886
0.530935
0.529034
0.527375
0.525715
0.524473
0.523125
0.522147
0.520564
0.516851
0.503623
0.435132
0.182474
0.0881778
0.0668992
0.057963
0.0526082
0.0487162
0.0456614
0.0431423
0.040976
0.0391217
0.037528
0.0361461
0.0349413
0.033876
0.0329367
0.032092
0.0313231
0.0306131
0.0299607
0.0293575
0.0287964
0.0282733
0.0277755
0.0273017
0.0268619
0.0264557
0.0260811
0.0257368
0.02542
0.0251297
0.0248638
0.024624
0.0244141
0.024244
0.0241217
0.0240451
0.0239871
0.0239271
0.0238655
0.0238029
0.0237399
0.0236768
0.0236139
0.0235513
0.0234892
0.0234275
0.0233665
0.0233061
0.0232464
0.0231873
0.0231289
0.0230711
0.0230141
0.0229577
0.022902
0.0228469
0.0227925
0.0227387
0.0226856
0.0226331
0.0225812
0.0225299
0.0224792
0.0224292
0.0223797
0.0223307
0.0222824
0.0222346
0.0221874
0.0221407
0.0220945
0.0220489
0.0220037
0.0219591
0.0219148
0.021871
0.0218275
0.0217843
0.0217415
0.0216991
0.0216571
0.0216154
0.0215743
0.0215336
0.0214934
0.0214538
0.0214146
0.0213759
0.0213375
0.0212994
0.0212615
0.0212238
0.0211865
0.0211498
0.0211139
0.0210791
0.0210456
0.0210137
0.0209835
0.020955
0.0209282
0.020903
0.0208792
0.0208566
0.020835
0.0208141
0.0207935
0.020773
0.0207522
0.0207306
0.0207078
0.0206835
0.0206572
0.0206287
0.0205977
0.0205639
0.0205276
0.0204886
0.0204474
0.0204041
0.0203594
0.0203137
0.0202675
0.0202213
0.0201757
0.0201311
0.0200877
0.0200459
0.0200058
0.0199675
0.019931
0.0198961
0.0198628
0.0198309
0.0198002
0.0197705
0.0197417
0.0197135
0.0196858
0.0196584
0.0196312
0.0196041
0.0195771
0.0195501
0.0195231
0.0194959
0.0194688
0.0194415
0.0194142
0.0193869
0.0193595
0.0193322
0.0193049
0.0192776
0.0192504
0.0192233
0.0191963
0.0191694
0.0191426
0.0191159
0.0190893
0.0190629
0.0190367
0.0190106
0.0189846
0.0189588
0.0189331
0.0189076
0.0188823
0.0188571
0.0188321
0.0188072
0.0187825
0.018758
0.0187336
0.0187094
0.0186853
0.0186614
0.0186377
0.0186141
0.0185907
0.0185674
0.0185443
0.0185214
0.0184986
0.0184759
0.0184534
0.0184311
0.0184089
0.0183869
0.018365
0.0183433
0.0183217
0.0183002
0.0182789
0.0182578
0.0182367
0.0182159
0.0181951
0.0181745
0.0181541
0.0181338
0.0181136
0.0180935
0.0180736
0.0180538
0.0180341
0.0180146
0.0179951
0.0179757
0.0179564
0.0179373
0.0179182
0.0178992
0.0178803
0.0178616
0.0178428
0.0178243
0.0178058
0.0177874
0.0177691
0.0177509
0.0177328
0.0177149
0.017697
0.0176792
0.0176615
0.017644
0.0176266
0.0176093
0.0175923
0.0175755
0.0175589
0.0175427
0.0175268
0.0175113
0.0174963
0.0174818
0.0174678
0.0174543
0.0174414
0.0174291
0.0174173
0.017406
0.0173952
0.0173848
0.0173748
0.0173651
0.0173556
0.0173462
0.0173367
0.0173271
0.0173172
0.017307
0.0172961
0.0172848
0.0172725
0.0172595
0.0172454
0.0172304
0.0172142
0.0171971
0.0171788
0.0171595
0.0171392
0.017118
0.0170961
0.0170735
0.0170504
0.017027
0.0170033
0.0169796
0.016956
0.0169327
0.0169096
0.016887
0.0168649
0.0168433
0.0168223
0.016802
0.0167822
0.016763
0.0167445
0.0167264
0.0167089
0.0166918
0.016675
0.0166587
0.0166426
0.0166268
0.0166112
0.0165957
0.0165804
0.0165651
0.01655
0.0165348
0.0165197
0.0165046
0.0164894
0.0164743
0.0164591
0.016444
0.0164288
0.0164136
0.0163983
0.0163831
0.0163679
0.0163526
0.0163374
0.0163222
0.016307
0.0162918
0.0162766
0.0162615
0.0162464
0.0162314
0.0162164
0.0162014
0.0161865
0.0161716
0.0161568
0.016142
0.0161273
0.0161126
0.016098
0.0160834
0.0160689
0.0160544
0.01604
0.0160257
0.0160114
0.0159972
0.015983
0.0159689
0.0159549
0.0159409
0.0159269
0.0159131
0.0158992
0.0158855
0.0158718
0.0158581
0.0158446
0.015831
0.0158176
0.0158042
0.0157908
0.0157775
0.0157643
0.0157511
0.015738
0.0157249
0.0157119
0.015699
0.0156861
0.0156733
0.0156605
0.0156478
0.0156351
0.0156225
0.01561
0.0155975
0.015585
0.0155726
0.0155603
0.015548
0.0155357
0.0155235
0.0155113
0.0154992
0.0154871
0.0154751
0.0154631
0.0154511
0.0154391
0.0154272
0.0154154
0.0154036
0.0153918
0.01538
0.0153683
0.0153566
0.015345
0.0153334
0.0153219
0.0153104
0.0152989
0.0152876
0.0152763
0.0152651
0.0152539
0.0152429
0.015232
0.0152212
0.0152106
0.0152001
0.0151897
0.0151796
0.0151697
0.01516
0.0151505
0.0151412
0.0151322
0.0151234
0.0151148
0.0151066
0.0150985
0.0150907
0.0150831
0.0150757
0.0150684
0.0150613
0.0150544
0.0150475
0.0150406
0.0150338
0.0150269
0.0150199
0.0150128
0.0150055
0.0149979
0.0149901
0.014982
0.0149734
0.0149645
0.0149551
0.0149452
0.0149349
0.014924
0.0149125
0.0149005
0.0148881
0.014875
0.0148616
0.0148476
0.0148332
0.0148184
0.0148034
0.0147879
0.0147724
0.0147566
0.0147408
0.0147249
0.014709
0.0146931
0.0146774
0.0146618
0.0146464
0.0146312
0.0146162
0.0146014
0.0145869
0.0145727
0.0145587
0.014545
0.0145316
0.0145183
0.0145053
0.0144926
0.01448
0.0144676
0.0144553
0.0144432
0.0144312
0.0144193
0.0144075
0.0143958
0.0143841
0.0143725
0.0143609
0.0143493
0.0143377
0.0143262
0.0143146
0.0143031
0.0142915
0.0142799
0.0142683
0.0142566
0.014245
0.0142333
0.0142216
0.0142099
0.0141982
0.0141864
0.0141747
0.0141629
0.0141512
0.0141393
0.0141277
0.0141157
0.0141041
0.014092
0.0140805
0.0140684
0.0140569
0.0140448
0.0140333
0.0140214
0.0140096
0.013998
0.0139861
0.0139746
0.0139627
0.0139513
0.0139395
0.013928
0.0139166
0.013905
0.0138938
0.0138823
0.0138713
0.0138601
0.0138492
0.0138385
0.0138277
0.0138175
0.0138072
0.0137973
0.0137877
0.0137783
0.0137695
0.0137609
0.0137529
0.0137452
0.013738
0.0137315
0.0137252
0.0137197
0.0137147
0.0137101
0.0137062
0.0137026
0.0136996
0.013697
0.0136947
0.0136928
0.0136909
0.0136893
0.0136875
0.0136853
0.0136821
0.0136767
0.0136677
0.013652
0.0136246
0.0135781
0.0135011
0.0133825
0.0132173
0.0130199
0.0128285
0.0126819
0.0125922
0.0125454
0.012523
0.0125126
0.0125076
0.0125055
0.0125044
0.0125042
0.0125042
0.0125044
0.0125047
0.012505
0.0125055
0.0125059
0.0125063
0.0125068
0.0125073
0.0125079
0.0125084
0.012509
0.0125097
0.0125104
0.0125111
0.0125119
0.0125127
0.0125136
0.0125146
0.0125157
0.0125168
0.012518
0.0125192
0.0125206
0.0125221
0.0125236
0.0125253
0.0125271
0.0125289
0.0125309
0.012533
0.0125352
0.0125375
0.0125399
0.0125424
0.012545
0.0125477
0.0125505
0.0125533
0.0125562
0.0125592
0.0125622
0.0125652
0.0125682
0.0125713
0.0125743
0.0125773
0.0125802
0.012583
0.0125858
0.0125884
0.0125909
0.0125933
0.0125955
0.0125975
0.0125993
0.0126009
0.0126022
0.0126033
0.0126041
0.0126046
0.0126049
0.012605
0.0126049
0.0126048
0.0126042
0.0126032
0.0126019
0.0126003
0.0125986
0.0125967
0.0125945
0.0125923
0.0125898
0.0125873
0.0125846
0.0125819
0.0125791
0.0125763
0.0125735
0.0125706
0.0125678
0.0125651
0.0125624
0.0125597
0.0125572
0.0125548
0.0125524
0.0125502
0.0125481
0.0125461
0.0125442
0.0125425
0.0125409
0.0125393
0.0125379
0.0125366
0.0125355
0.0125344
0.0125334
0.0125324
0.0125316
0.0125308
0.0125301
0.0125294
0.0125288
0.0125282
0.0125276
0.0125271
0.0125266
0.0125261
0.0125256
0.0125251
0.0125246
0.0125242
0.0125237
0.0125232
0.0125227
0.0125222
0.0125217
0.0125212
0.0125207
0.0125202
0.0125197
0.0125191
0.0125186
0.012518
0.0125175
0.0125169
0.0125163
0.0125157
0.0125151
0.0125146
0.012514
0.0125134
0.0125128
0.0125122
0.0125116
0.0125111
0.0125105
0.0125099
0.0125094
0.0125088
0.0125083
0.0125077
0.0125072
0.0125067
0.0125062
0.0125057
0.0125052
0.0125047
0.0125043
0.0125038
0.0125034
0.012503
0.0125026
0.0125022
0.0125018
0.0125014
0.0125011
0.0125007
0.0125004
0.0125001
0.0124999
0.0124996
0.0124993
0.0124991
0.0124989
0.0124987
0.0124985
0.0124984
0.0124982
0.0124981
0.012498
0.0124979
0.0124978
0.0124978
0.0124978
0.0124978
0.0124978
0.0124978
0.0124978
0.0124978
0.0124979
0.012498
0.0124981
0.0124983
0.0124984
0.0124986
0.0124988
0.012499
0.0124992
0.0124994
0.0124996
0.0124999
0.0125002
0.0125005
0.0125008
0.0125011
0.0125014
0.0125018
0.0125021
0.0125025
0.0125029
0.0125033
0.0125037
0.0125041
0.0125046
0.0125051
0.0125056
0.0125061
0.0125066
0.0125072
0.0125078
0.0125084
0.012509
0.0125097
0.0125104
0.0125112
0.012512
0.0125128
0.0125137
0.0125147
0.0125157
0.0125167
0.0125178
0.012519
0.0125203
0.0125216
0.012523
0.0125245
0.012526
0.0125277
0.0125294
0.0125312
0.0125331
0.012535
0.0125371
0.0125392
0.0125414
0.0125436
0.012546
0.0125484
0.0125508
0.0125534
0.0125559
0.0125585
0.0125611
0.0125637
0.0125664
0.012569
0.0125716
0.0125742
0.0125767
0.0125792
0.0125816
0.0125839
0.0125862
0.0125883
0.0125903
0.0125921
0.0125938
0.0125954
0.0125967
0.0125979
0.0125989
0.0125997
0.0126002
0.0126006
0.0126007
0.0126008
0.0126007
0.0126006
0.0126
0.0125991
0.0125979
0.0125967
0.0125952
0.0125935
0.0125917
0.0125898
0.0125877
0.0125856
0.0125833
0.012581
0.0125786
0.0125762
0.0125737
0.0125712
0.0125688
0.0125663
0.0125639
0.0125616
0.0125593
0.012557
0.0125548
0.0125527
0.0125507
0.0125488
0.0125469
0.0125452
0.0125435
0.012542
0.0125405
0.0125391
0.0125378
0.0125365
0.0125354
0.0125343
0.0125333
0.0125323
0.0125314
0.0125305
0.0125297
0.0125289
0.0125282
0.0125275
0.0125268
0.0125262
0.0125255
0.0125249
0.0125243
0.0125237
0.0125231
0.0125226
0.012522
0.0125214
0.0125209
0.0125203
0.0125197
0.0125192
0.0125186
0.012518
0.0125175
0.0125169
0.0125163
0.0125158
0.0125152
0.0125146
0.0125141
0.0125135
0.012513
0.0125124
0.0125119
0.0125114
0.0125108
0.0125103
0.0125098
0.0125093
0.0125088
0.0125083
0.0125079
0.0125074
0.012507
0.0125065
0.0125061
0.0125057
0.0125053
0.0125049
0.0125046
0.0125042
0.0125039
0.0125035
0.0125032
0.0125029
0.0125026
0.0125023
0.0125021
0.0125019
0.0125016
0.0125014
0.0125012
0.012501
0.0125009
0.0125007
0.0125006
0.0125005
0.0125004
0.0125003
0.0125002
0.0125002
0.0125001
0.0125001
0.0125001
0.0125001
0.0125001
0.0125001
0.0125002
0.0125003
0.0125003
0.0125004
0.0125005
0.0125007
0.0125007
0.012501
0.012501
0.0125014
0.0125014
0.0125018
0.0125018
0.0125023
0.0125023
0.0125028
0.0125029
0.0125034
0.0125035
0.0125041
0.0125041
0.0125047
0.0125048
0.0125055
0.0125056
0.0125063
0.0125064
0.0125072
0.0125074
0.0125082
0.0125083
0.0125099
)
;

boundaryField
{
    inlet
    {
        type            fixedValue;
        value           uniform 0.55;
    }
    outlet
    {
        type            zeroGradient;
    }
    emptyWalls
    {
        type            empty;
    }
}


// ************************************************************************* //
