/*--------------------------------*- C++ -*----------------------------------*\
  =========                 |
  \\      /  F ield         | OpenFOAM: The Open Source CFD Toolbox
   \\    /   O peration     | Website:  https://openfoam.org
    \\  /    A nd           | Version:  9
     \\/     M anipulation  |
\*---------------------------------------------------------------------------*/
FoamFile
{
    format      ascii;
    class       volScalarField;
    location    "3650";
    object      kra;
}
// * * * * * * * * * * * * * * * * * * * * * * * * * * * * * * * * * * * * * //

dimensions      [0 0 0 0 0 0 0];

internalField   nonuniform List<scalar> 
1000
(
0.000240252
0.000248297
0.000258188
0.000280555
0.000391565
0.000804242
0.000905296
0.000919234
0.000921756
0.000923873
0.000923791
0.00092309
0.000917187
0.000907421
0.000893176
0.000877491
0.000861428
0.00084549
0.000829935
0.000814897
0.000800436
0.000786568
0.000773282
0.000760555
0.000748361
0.000736672
0.000725461
0.000714696
0.000704344
0.000694376
0.000684765
0.000675492
0.000666536
0.000657882
0.000649518
0.000641428
0.000633597
0.000626008
0.000618648
0.000611503
0.000604562
0.000597813
0.000591249
0.000584861
0.000578643
0.000572586
0.000566683
0.000560927
0.000555309
0.000549824
0.000544465
0.000539227
0.000534106
0.000529097
0.000524197
0.000519401
0.000514708
0.000510114
0.000505616
0.00050121
0.000496895
0.000492667
0.000488524
0.000484463
0.000480483
0.00047658
0.000472753
0.000468999
0.000465317
0.000461704
0.000458157
0.000454675
0.000451255
0.000447896
0.000444594
0.000441348
0.000438157
0.000435017
0.000431928
0.000428888
0.000425894
0.000422945
0.000420039
0.000417175
0.000414351
0.000411566
0.000408817
0.000406105
0.000403426
0.00040078
0.000398164
0.000395578
0.00039302
0.000390487
0.000387981
0.0003855
0.000383043
0.00038061
0.000378202
0.000375819
0.000373461
0.00037113
0.000368825
0.000366548
0.0003643
0.000362078
0.000359891
0.000357726
0.000355601
0.000353492
0.00035143
0.000349374
0.000347371
0.000345364
0.000343412
0.000341448
0.000339534
0.000337608
0.000335719
0.000333829
0.000331956
0.000330099
0.000328246
0.000326417
0.000324599
0.000322802
0.000321031
0.000319282
0.000317569
0.000315892
0.000314254
0.000312668
0.000311134
0.000309661
0.000308257
0.000306925
0.000305667
0.000304469
0.000303299
0.000302077
0.000300665
0.00029881
0.000296123
0.000292084
0.000286223
0.000278547
0.000270057
0.000262545
0.000257334
0.000254403
0.000252962
0.000252271
0.000251905
0.000251655
0.00025143
0.000251183
0.000250902
0.000250574
0.000250203
0.00024979
0.000249344
0.000248873
0.000248383
0.000247888
0.000247395
0.000246915
0.000246457
0.000246029
0.000245636
0.000245282
0.000244972
0.000244707
0.000244491
0.000244323
0.000244202
0.000244123
0.000244084
0.000244073
0.000244074
0.000244081
0.00024413
0.000244213
0.000244303
0.000244397
0.000244494
0.00024459
0.000244684
0.000244773
0.000244855
0.00024493
0.000244996
0.000245053
0.000245101
0.000245139
0.000245168
0.000245189
0.000245201
0.000245207
0.000245208
0.000245208
0.000245205
0.000245191
0.000245173
0.000245153
0.000245132
0.00024511
0.000245087
0.000245064
0.000245042
0.000245019
0.000244997
0.000244976
0.000244956
0.000244936
0.000244918
0.0002449
0.000244884
0.000244868
0.000244853
0.00024484
0.000244827
0.000244815
0.000244804
0.000244795
0.000244785
0.000244777
0.00024477
0.000244763
0.000244757
0.000244752
0.000244747
0.000244743
0.000244739
0.000244736
0.000244733
0.000244729
0.000244726
0.000244723
0.000244719
0.000244715
0.000244711
0.000244706
0.0002447
0.000244694
0.000244686
0.000244678
0.000244669
0.000244659
0.000244647
0.000244634
0.00024462
0.000244605
0.000244588
0.00024457
0.00024455
0.000244529
0.000244507
0.000244484
0.000244459
0.000244433
0.000244406
0.000244378
0.000244349
0.00024432
0.00024429
0.000244259
0.000244228
0.000244197
0.000244166
0.000244135
0.000244104
0.000244074
0.000244044
0.000244015
0.000243987
0.000243961
0.000243935
0.000243911
0.000243889
0.000243869
0.00024385
0.000243834
0.00024382
0.000243808
0.000243798
0.000243792
0.000243788
0.000243786
0.000243786
0.000243786
0.000243788
0.000243797
0.000243808
0.000243823
0.000243838
0.000243857
0.000243877
0.0002439
0.000243923
0.00024395
0.000243977
0.000244006
0.000244035
0.000244066
0.000244096
0.000244129
0.00024416
0.000244193
0.000244224
0.000244257
0.000244288
0.000244321
0.000244351
0.000244383
0.000244412
0.000244442
0.00024447
0.0002445
0.000244526
0.000244554
0.00024458
0.000244607
0.000244632
0.000244659
0.000244685
0.000244713
0.00024474
0.000244772
0.000244803
0.00024484
0.000244879
0.000244925
0.000244975
0.000245033
0.000245098
0.000245173
0.000245257
0.000245353
0.00024546
0.000245581
0.000245714
0.000245863
0.000246025
0.000246203
0.000246394
0.000246601
0.000246821
0.000247055
0.0002473
0.000247558
0.000247825
0.0002481
0.00024838
0.000248665
0.000248949
0.000249233
0.000249511
0.000249781
0.000250038
0.000250281
0.000250503
0.000250703
0.000250875
0.000251017
0.000251122
0.000251188
0.000251214
0.000251217
0.000251214
0.000251191
0.00025106
0.000250872
0.000250637
0.000250361
0.000250047
0.000249701
0.000249327
0.000248933
0.000248524
0.000248109
0.000247693
0.000247284
0.000246887
0.000246508
0.000246152
0.000245822
0.00024552
0.000245251
0.000245012
0.000244807
0.000244633
0.00024449
0.000244376
0.00024429
0.000244229
0.000244191
0.000244172
0.000244168
0.000244168
0.000244173
0.000244208
0.000244255
0.000244308
0.000244364
0.000244422
0.000244479
0.000244535
0.000244588
0.000244638
0.000244684
0.000244725
0.000244762
0.000244794
0.00024482
0.000244842
0.000244858
0.00024487
0.000244877
0.00024488
0.00024488
0.00024488
0.000244877
0.000244866
0.000244851
0.000244833
0.000244814
0.000244792
0.000244769
0.000244744
0.000244718
0.000244691
0.000244663
0.000244635
0.000244606
0.000244576
0.000244546
0.000244517
0.000244487
0.000244457
0.000244427
0.000244398
0.000244369
0.000244341
0.000244313
0.000244285
0.000244258
0.000244232
0.000244207
0.000244182
0.000244158
0.000244136
0.000244114
0.000244093
0.000244074
0.000244056
0.000244039
0.000244023
0.000244009
0.000243996
0.000243985
0.000243975
0.000243968
0.000243962
0.000243957
0.000243955
0.000243955
0.000243954
0.000243955
0.000243958
0.000243965
0.000243973
0.000243984
0.000243996
0.00024401
0.000244025
0.000244042
0.00024406
0.000244079
0.000244098
0.000244119
0.00024414
0.000244161
0.000244183
0.000244204
0.000244225
0.000244246
0.000244266
0.000244285
0.000244303
0.000244321
0.000244336
0.000244351
0.000244363
0.000244374
0.000244384
0.000244391
0.000244396
0.0002444
0.000244401
0.000244401
0.000244401
0.0002444
0.000244394
0.000244387
0.000244377
0.000244366
0.000244354
0.00024434
0.000244326
0.000244311
0.000244296
0.00024428
0.000244265
0.000244249
0.000244234
0.00024422
0.000244207
0.000244195
0.000244184
0.000244175
0.000244167
0.000244162
0.000244158
0.000244157
0.000244157
0.000244157
0.000244159
0.000244167
0.000244179
0.000244193
0.000244212
0.000244232
0.000244259
0.000244287
0.000244321
0.000244359
0.000244403
0.00024445
0.000244505
0.000244564
0.00024463
0.000244702
0.000244783
0.000244869
0.000244965
0.000245067
0.000245179
0.000245299
0.000245428
0.000245565
0.000245712
0.000245867
0.000246032
0.000246204
0.000246385
0.000246572
0.000246767
0.000246967
0.000247172
0.000247381
0.000247592
0.000247803
0.000248014
0.000248221
0.000248423
0.000248617
0.000248801
0.000248971
0.000249127
0.000249263
0.000249377
0.000249464
0.000249522
0.000249548
0.000249553
0.00024955
0.000249535
0.000249463
0.000249287
0.000249118
0.000248851
0.000248604
0.000248251
0.000247935
0.000247508
0.000247141
0.000246659
0.00024626
0.000245749
0.000245348
0.000244822
0.000244447
0.00024395
0.000243605
0.000243133
0.000242876
0.000242469
0.000242231
0.000241882
0.000241783
0.000241368
0.000240447
0.000234785
0.000142061
4.57557e-06
7.89762e-10
3.57742e-18
3.3033e-36
2.33685e-74
2.33821e-156
0
0
0
0
0
0
0
0
0
0
0
0
0
0
0
0
0
0
0
0
0
0
0
0
0
0
0
0
0
0
0
0
0
0
0
0
0
0
0
0
0
0
0
0
0
0
0
0
0
0
0
0
0
0
0
0
0
0
0
0
0
0
0
0
0
0
0
0
0
0
0
0
0
0
0
0
0
0
0
0
0
0
0
0
0
0
0
0
0
0
0
0
0
0
0
0
0
0
0
0
0
0
0
0
0
0
0
0
0
0
0
0
0
0
0
0
0
0
0
0
0
0
0
0
0
0
0
0
0
0
0
0
0
0
0
0
0
0
0
0
0
0
0
0
0
0
0
0
0
0
0
0
0
0
0
0
0
0
0
0
0
0
0
0
0
0
0
0
0
0
0
0
0
0
0
0
0
0
0
0
0
0
0
0
0
0
0
0
0
0
0
0
0
0
0
0
0
0
0
0
0
0
0
0
0
0
0
0
0
0
0
0
0
0
0
0
0
0
0
0
0
0
0
0
0
0
0
0
0
0
0
0
0
0
0
0
0
0
0
0
0
0
0
0
0
0
0
0
0
0
0
0
0
0
0
0
0
0
0
0
0
0
0
0
0
0
0
0
0
0
0
0
0
0
0
0
0
0
0
0
0
0
0
0
0
0
0
0
0
0
0
0
0
0
0
0
0
0
0
0
0
0
0
0
0
0
0
0
0
0
0
0
0
0
0
0
0
0
0
0
0
0
0
0
0
0
0
0
0
0
0
0
0
0
0
0
0
0
0
0
0
0
0
0
0
0
0
0
0
0
0
0
0
0
0
0
0
0
0
0
0
0
0
0
0
0
0
0
0
0
0
0
0
0
0
0
0
0
0
0
0
0
0
0
0
0
0
0
0
0
)
;

boundaryField
{
    inlet
    {
        type            calculated;
        value           uniform 0.000236304;
    }
    outlet
    {
        type            calculated;
        value           uniform 0;
    }
    emptyWalls
    {
        type            empty;
    }
}


// ************************************************************************* //
