/*--------------------------------*- C++ -*----------------------------------*\
  =========                 |
  \\      /  F ield         | OpenFOAM: The Open Source CFD Toolbox
   \\    /   O peration     | Website:  https://openfoam.org
    \\  /    A nd           | Version:  9
     \\/     M anipulation  |
\*---------------------------------------------------------------------------*/
FoamFile
{
    format      ascii;
    class       surfaceScalarField;
    location    "3650";
    object      phia;
}
// * * * * * * * * * * * * * * * * * * * * * * * * * * * * * * * * * * * * * //

dimensions      [0 2 0 0 0 0 0];

internalField   nonuniform List<scalar> 
999
(
2.74787e-10
2.74322e-10
2.73009e-10
2.68459e-10
2.45408e-10
2.1701e-10
2.10426e-10
2.07475e-10
2.06209e-10
2.05715e-10
2.05429e-10
2.05169e-10
2.0499e-10
2.05155e-10
2.05272e-10
2.05303e-10
2.05268e-10
2.05184e-10
2.05067e-10
2.0493e-10
2.04784e-10
2.04632e-10
2.04478e-10
2.04324e-10
2.04172e-10
2.04022e-10
2.03875e-10
2.0373e-10
2.03585e-10
2.0344e-10
2.03295e-10
2.03149e-10
2.03003e-10
2.02858e-10
2.02715e-10
2.02573e-10
2.02433e-10
2.02293e-10
2.02154e-10
2.02014e-10
2.01874e-10
2.01733e-10
2.01593e-10
2.01452e-10
2.01313e-10
2.01173e-10
2.01034e-10
2.00894e-10
2.00754e-10
2.00613e-10
2.00471e-10
2.00329e-10
2.00186e-10
2.00043e-10
1.999e-10
1.99757e-10
1.99614e-10
1.99473e-10
1.99332e-10
1.99192e-10
1.99053e-10
1.98916e-10
1.9878e-10
1.98646e-10
1.98513e-10
1.98383e-10
1.98255e-10
1.98129e-10
1.98005e-10
1.97883e-10
1.97764e-10
1.97646e-10
1.9753e-10
1.97416e-10
1.97304e-10
1.97193e-10
1.97083e-10
1.96975e-10
1.96868e-10
1.96762e-10
1.96656e-10
1.96551e-10
1.96446e-10
1.96342e-10
1.96238e-10
1.96133e-10
1.96028e-10
1.95923e-10
1.95817e-10
1.9571e-10
1.95601e-10
1.95491e-10
1.95379e-10
1.95264e-10
1.95148e-10
1.95029e-10
1.94909e-10
1.94787e-10
1.94665e-10
1.94542e-10
1.94419e-10
1.94296e-10
1.94175e-10
1.94057e-10
1.93941e-10
1.93829e-10
1.9372e-10
1.93616e-10
1.93516e-10
1.93422e-10
1.93332e-10
1.93248e-10
1.93168e-10
1.93092e-10
1.93019e-10
1.92948e-10
1.92879e-10
1.92809e-10
1.92741e-10
1.92671e-10
1.92602e-10
1.92532e-10
1.92464e-10
1.92398e-10
1.92334e-10
1.92276e-10
1.92224e-10
1.92181e-10
1.92149e-10
1.92129e-10
1.92122e-10
1.92131e-10
1.92154e-10
1.92194e-10
1.92251e-10
1.92322e-10
1.92408e-10
1.92504e-10
1.92604e-10
1.92697e-10
1.92763e-10
1.92774e-10
1.92683e-10
1.92441e-10
1.9201e-10
1.91424e-10
1.90813e-10
1.90338e-10
1.90063e-10
1.89935e-10
1.89876e-10
1.89832e-10
1.89773e-10
1.89685e-10
1.89563e-10
1.89405e-10
1.89212e-10
1.88984e-10
1.88726e-10
1.88441e-10
1.88137e-10
1.87818e-10
1.8749e-10
1.87161e-10
1.86837e-10
1.86525e-10
1.86229e-10
1.85955e-10
1.85706e-10
1.85484e-10
1.85292e-10
1.85132e-10
1.85003e-10
1.84907e-10
1.8484e-10
1.84801e-10
1.84784e-10
1.8478e-10
1.84782e-10
1.84795e-10
1.84846e-10
1.84904e-10
1.84965e-10
1.85029e-10
1.85094e-10
1.85157e-10
1.85218e-10
1.85275e-10
1.85328e-10
1.85375e-10
1.85416e-10
1.85451e-10
1.8548e-10
1.85502e-10
1.85519e-10
1.8553e-10
1.85536e-10
1.85538e-10
1.85538e-10
1.85538e-10
1.85533e-10
1.85521e-10
1.85508e-10
1.85495e-10
1.8548e-10
1.85465e-10
1.8545e-10
1.85435e-10
1.8542e-10
1.85405e-10
1.85391e-10
1.85377e-10
1.85364e-10
1.85351e-10
1.85339e-10
1.85327e-10
1.85317e-10
1.85306e-10
1.85297e-10
1.85288e-10
1.8528e-10
1.85272e-10
1.85266e-10
1.85259e-10
1.85254e-10
1.85248e-10
1.85244e-10
1.85239e-10
1.85236e-10
1.85232e-10
1.85229e-10
1.85227e-10
1.85224e-10
1.85222e-10
1.8522e-10
1.85218e-10
1.85216e-10
1.85213e-10
1.85211e-10
1.85208e-10
1.85205e-10
1.85201e-10
1.85197e-10
1.85193e-10
1.85188e-10
1.85182e-10
1.85175e-10
1.85168e-10
1.8516e-10
1.85151e-10
1.85141e-10
1.8513e-10
1.85119e-10
1.85106e-10
1.85093e-10
1.85078e-10
1.85063e-10
1.85047e-10
1.8503e-10
1.85012e-10
1.84994e-10
1.84975e-10
1.84956e-10
1.84936e-10
1.84915e-10
1.84895e-10
1.84874e-10
1.84853e-10
1.84832e-10
1.84812e-10
1.84791e-10
1.84771e-10
1.84752e-10
1.84733e-10
1.84715e-10
1.84697e-10
1.84681e-10
1.84665e-10
1.84651e-10
1.84638e-10
1.84626e-10
1.84616e-10
1.84607e-10
1.846e-10
1.84595e-10
1.84591e-10
1.8459e-10
1.84589e-10
1.84589e-10
1.8459e-10
1.84593e-10
1.846e-10
1.84608e-10
1.84619e-10
1.8463e-10
1.84643e-10
1.84658e-10
1.84673e-10
1.8469e-10
1.84708e-10
1.84726e-10
1.84746e-10
1.84766e-10
1.84786e-10
1.84807e-10
1.84828e-10
1.8485e-10
1.84871e-10
1.84893e-10
1.84914e-10
1.84935e-10
1.84956e-10
1.84977e-10
1.84998e-10
1.85017e-10
1.85037e-10
1.85056e-10
1.85075e-10
1.85093e-10
1.85111e-10
1.85129e-10
1.85146e-10
1.85164e-10
1.85181e-10
1.85199e-10
1.85218e-10
1.85237e-10
1.85258e-10
1.85281e-10
1.85306e-10
1.85335e-10
1.85367e-10
1.85403e-10
1.85444e-10
1.85491e-10
1.85544e-10
1.85604e-10
1.85672e-10
1.85748e-10
1.85833e-10
1.85927e-10
1.8603e-10
1.86143e-10
1.86266e-10
1.86399e-10
1.86542e-10
1.86693e-10
1.86853e-10
1.87021e-10
1.87195e-10
1.87376e-10
1.8756e-10
1.87748e-10
1.87938e-10
1.88127e-10
1.88313e-10
1.88495e-10
1.88671e-10
1.88837e-10
1.88991e-10
1.89131e-10
1.89255e-10
1.89359e-10
1.89441e-10
1.89498e-10
1.89528e-10
1.89538e-10
1.89539e-10
1.89534e-10
1.89491e-10
1.89372e-10
1.89232e-10
1.89062e-10
1.88867e-10
1.88647e-10
1.88408e-10
1.88152e-10
1.87885e-10
1.87611e-10
1.87335e-10
1.8706e-10
1.86791e-10
1.86533e-10
1.86288e-10
1.86059e-10
1.85848e-10
1.85657e-10
1.85488e-10
1.8534e-10
1.85213e-10
1.85107e-10
1.85022e-10
1.84955e-10
1.84905e-10
1.84872e-10
1.84853e-10
1.84846e-10
1.84844e-10
1.84844e-10
1.84854e-10
1.84887e-10
1.8492e-10
1.84957e-10
1.84995e-10
1.85033e-10
1.85071e-10
1.85107e-10
1.85142e-10
1.85174e-10
1.85203e-10
1.85229e-10
1.85252e-10
1.85271e-10
1.85287e-10
1.853e-10
1.85309e-10
1.85316e-10
1.85319e-10
1.8532e-10
1.8532e-10
1.8532e-10
1.85314e-10
1.85305e-10
1.85294e-10
1.85282e-10
1.85268e-10
1.85253e-10
1.85237e-10
1.8522e-10
1.85203e-10
1.85184e-10
1.85165e-10
1.85146e-10
1.85127e-10
1.85107e-10
1.85087e-10
1.85067e-10
1.85047e-10
1.85027e-10
1.85008e-10
1.84988e-10
1.84969e-10
1.8495e-10
1.84932e-10
1.84913e-10
1.84896e-10
1.84878e-10
1.84862e-10
1.84846e-10
1.8483e-10
1.84815e-10
1.84801e-10
1.84788e-10
1.84775e-10
1.84763e-10
1.84752e-10
1.84742e-10
1.84733e-10
1.84726e-10
1.84719e-10
1.84713e-10
1.84708e-10
1.84705e-10
1.84703e-10
1.84702e-10
1.84701e-10
1.84701e-10
1.84702e-10
1.84706e-10
1.84711e-10
1.84718e-10
1.84725e-10
1.84734e-10
1.84744e-10
1.84754e-10
1.84766e-10
1.84778e-10
1.84791e-10
1.84805e-10
1.84818e-10
1.84832e-10
1.84847e-10
1.84861e-10
1.84875e-10
1.84889e-10
1.84903e-10
1.84916e-10
1.84929e-10
1.8494e-10
1.84951e-10
1.84962e-10
1.84971e-10
1.84979e-10
1.84985e-10
1.84991e-10
1.84995e-10
1.84998e-10
1.85e-10
1.85e-10
1.85e-10
1.85e-10
1.84998e-10
1.84993e-10
1.84987e-10
1.8498e-10
1.84973e-10
1.84964e-10
1.84955e-10
1.84945e-10
1.84935e-10
1.84924e-10
1.84914e-10
1.84904e-10
1.84894e-10
1.84884e-10
1.84875e-10
1.84866e-10
1.84859e-10
1.84852e-10
1.84846e-10
1.84842e-10
1.84839e-10
1.84837e-10
1.84837e-10
1.84837e-10
1.84837e-10
1.84841e-10
1.84847e-10
1.84856e-10
1.84867e-10
1.8488e-10
1.84896e-10
1.84914e-10
1.84935e-10
1.84959e-10
1.84986e-10
1.85017e-10
1.85051e-10
1.85089e-10
1.85131e-10
1.85177e-10
1.85228e-10
1.85284e-10
1.85345e-10
1.85411e-10
1.85482e-10
1.8556e-10
1.85643e-10
1.85732e-10
1.85826e-10
1.85927e-10
1.86034e-10
1.86146e-10
1.86264e-10
1.86386e-10
1.86514e-10
1.86646e-10
1.86781e-10
1.86919e-10
1.87058e-10
1.87199e-10
1.8734e-10
1.87479e-10
1.87615e-10
1.87747e-10
1.87872e-10
1.8799e-10
1.88099e-10
1.88196e-10
1.88279e-10
1.88346e-10
1.88394e-10
1.88422e-10
1.88432e-10
1.88434e-10
1.88429e-10
1.88401e-10
1.88315e-10
1.88201e-10
1.88056e-10
1.87884e-10
1.87685e-10
1.87462e-10
1.87215e-10
1.86951e-10
1.86668e-10
1.86374e-10
1.86071e-10
1.85766e-10
1.85457e-10
1.85156e-10
1.84865e-10
1.84583e-10
1.8431e-10
1.84066e-10
1.83844e-10
1.83628e-10
1.83432e-10
1.83281e-10
1.83115e-10
1.82662e-10
1.81115e-10
1.70863e-10
6.00916e-11
1.93284e-12
3.33298e-16
1.50971e-24
1.39403e-42
9.86178e-81
9.86752e-163
0
0
0
0
0
0
0
0
0
0
0
0
0
0
0
0
0
0
0
0
0
0
0
0
0
0
0
0
0
0
0
0
0
0
0
0
0
0
0
0
0
0
0
0
0
0
0
0
0
0
0
0
0
0
0
0
0
0
0
0
0
0
0
0
0
0
0
0
0
0
0
0
0
0
0
0
0
0
0
0
0
0
0
0
0
0
0
0
0
0
0
0
0
0
0
0
0
0
0
0
0
0
0
0
0
0
0
0
0
0
0
0
0
0
0
0
0
0
0
0
0
0
0
0
0
0
0
0
0
0
0
0
0
0
0
0
0
0
0
0
0
0
0
0
0
0
0
0
0
0
0
0
0
0
0
0
0
0
0
0
0
0
0
0
0
0
0
0
0
0
0
0
0
0
0
0
0
0
0
0
0
0
0
0
0
0
0
0
0
0
0
0
0
0
0
0
0
0
0
0
0
0
0
0
0
0
0
0
0
0
0
0
0
0
0
0
0
0
0
0
0
0
0
0
0
0
0
0
0
0
0
0
0
0
0
0
0
0
0
0
0
0
0
0
0
0
0
0
0
0
0
0
0
0
0
0
0
0
0
0
0
0
0
0
0
0
0
0
0
0
0
0
0
0
0
0
0
0
0
0
0
0
0
0
0
0
0
0
0
0
0
0
0
0
0
0
0
0
0
0
0
0
0
0
0
0
0
0
0
0
0
0
0
0
0
0
0
0
0
0
0
0
0
0
0
0
0
0
0
0
0
0
0
0
0
0
0
0
0
0
0
0
0
0
0
0
0
0
0
0
0
0
0
0
0
0
0
0
0
0
0
0
0
0
0
0
0
0
0
0
0
0
0
0
0
0
0
0
0
0
0
0
0
0
0
0
0
0
0
)
;

boundaryField
{
    inlet
    {
        type            calculated;
        value           uniform -2.74882e-10;
    }
    outlet
    {
        type            calculated;
        value           uniform 0;
    }
    emptyWalls
    {
        type            empty;
        value           nonuniform List<scalar> 0();
    }
}


// ************************************************************************* //
