/*--------------------------------*- C++ -*----------------------------------*\
  =========                 |
  \\      /  F ield         | OpenFOAM: The Open Source CFD Toolbox
   \\    /   O peration     | Website:  https://openfoam.org
    \\  /    A nd           | Version:  9
     \\/     M anipulation  |
\*---------------------------------------------------------------------------*/
FoamFile
{
    format      ascii;
    class       surfaceScalarField;
    location    "16900";
    object      phib;
}
// * * * * * * * * * * * * * * * * * * * * * * * * * * * * * * * * * * * * * //

dimensions      [0 2 0 0 0 0 0];

internalField   nonuniform List<scalar> 
999
(
1.13624e-09
1.13624e-09
1.13624e-09
1.13628e-09
1.13627e-09
1.13633e-09
1.13633e-09
1.13638e-09
1.13641e-09
1.13646e-09
1.13652e-09
1.13658e-09
1.13664e-09
1.1367e-09
1.13674e-09
1.1368e-09
1.13682e-09
1.13688e-09
1.13688e-09
1.13695e-09
1.13707e-09
1.13757e-09
1.13963e-09
1.15318e-09
1.16906e-09
1.17278e-09
1.17542e-09
1.17735e-09
1.17849e-09
1.17899e-09
1.1791e-09
1.17906e-09
1.179e-09
1.17898e-09
1.17902e-09
1.1791e-09
1.17921e-09
1.17933e-09
1.17946e-09
1.17958e-09
1.17969e-09
1.1798e-09
1.1799e-09
1.17998e-09
1.18006e-09
1.18013e-09
1.18019e-09
1.18024e-09
1.18028e-09
1.18032e-09
1.18034e-09
1.18035e-09
1.18036e-09
1.18035e-09
1.18033e-09
1.18031e-09
1.18026e-09
1.18021e-09
1.18013e-09
1.18004e-09
1.17992e-09
1.17977e-09
1.17957e-09
1.17932e-09
1.17901e-09
1.17864e-09
1.17822e-09
1.17776e-09
1.17728e-09
1.17678e-09
1.17626e-09
1.17573e-09
1.1752e-09
1.17465e-09
1.1741e-09
1.17354e-09
1.17298e-09
1.17241e-09
1.17183e-09
1.17125e-09
1.17066e-09
1.17008e-09
1.16948e-09
1.16889e-09
1.1683e-09
1.1677e-09
1.1671e-09
1.16651e-09
1.16591e-09
1.1653e-09
1.16469e-09
1.16408e-09
1.16347e-09
1.16285e-09
1.16222e-09
1.1616e-09
1.16097e-09
1.16035e-09
1.15973e-09
1.1591e-09
1.15849e-09
1.15786e-09
1.15723e-09
1.15658e-09
1.15591e-09
1.1552e-09
1.15447e-09
1.1537e-09
1.1529e-09
1.15207e-09
1.15122e-09
1.15036e-09
1.14948e-09
1.1486e-09
1.14772e-09
1.14685e-09
1.146e-09
1.14516e-09
1.14436e-09
1.14359e-09
1.14287e-09
1.1422e-09
1.14158e-09
1.14102e-09
1.14051e-09
1.14005e-09
1.13963e-09
1.13923e-09
1.13886e-09
1.13849e-09
1.13812e-09
1.13774e-09
1.13734e-09
1.13691e-09
1.13646e-09
1.13597e-09
1.13545e-09
1.1349e-09
1.13432e-09
1.13372e-09
1.1331e-09
1.13246e-09
1.13181e-09
1.13114e-09
1.13048e-09
1.1298e-09
1.12913e-09
1.12846e-09
1.12779e-09
1.12712e-09
1.12646e-09
1.1258e-09
1.12514e-09
1.12449e-09
1.12384e-09
1.1232e-09
1.12255e-09
1.12191e-09
1.12127e-09
1.12063e-09
1.11999e-09
1.11935e-09
1.11871e-09
1.11807e-09
1.11743e-09
1.11679e-09
1.11615e-09
1.11551e-09
1.11486e-09
1.11422e-09
1.11357e-09
1.11292e-09
1.11227e-09
1.11162e-09
1.11097e-09
1.11031e-09
1.10965e-09
1.109e-09
1.10834e-09
1.10767e-09
1.10701e-09
1.10635e-09
1.10568e-09
1.10501e-09
1.10434e-09
1.10367e-09
1.103e-09
1.10232e-09
1.10165e-09
1.10097e-09
1.10029e-09
1.09961e-09
1.09892e-09
1.09824e-09
1.09755e-09
1.09686e-09
1.09617e-09
1.09548e-09
1.09479e-09
1.09409e-09
1.0934e-09
1.0927e-09
1.092e-09
1.09129e-09
1.09059e-09
1.08988e-09
1.08917e-09
1.08846e-09
1.08775e-09
1.08704e-09
1.08632e-09
1.08561e-09
1.08489e-09
1.08418e-09
1.08346e-09
1.08274e-09
1.08202e-09
1.0813e-09
1.08057e-09
1.07985e-09
1.07912e-09
1.07839e-09
1.07767e-09
1.07694e-09
1.07621e-09
1.07548e-09
1.07474e-09
1.07401e-09
1.07328e-09
1.07254e-09
1.07181e-09
1.07106e-09
1.07032e-09
1.06957e-09
1.06881e-09
1.06804e-09
1.06726e-09
1.06648e-09
1.06568e-09
1.06487e-09
1.06405e-09
1.06322e-09
1.06237e-09
1.06152e-09
1.06065e-09
1.05978e-09
1.0589e-09
1.05802e-09
1.05713e-09
1.05625e-09
1.05537e-09
1.05449e-09
1.05362e-09
1.05277e-09
1.05192e-09
1.0511e-09
1.05029e-09
1.04951e-09
1.04875e-09
1.04801e-09
1.04729e-09
1.04659e-09
1.04592e-09
1.04526e-09
1.04463e-09
1.044e-09
1.04339e-09
1.04279e-09
1.04219e-09
1.04159e-09
1.04099e-09
1.04038e-09
1.03977e-09
1.03914e-09
1.03851e-09
1.03787e-09
1.03721e-09
1.03654e-09
1.03586e-09
1.03517e-09
1.03446e-09
1.03375e-09
1.03303e-09
1.03229e-09
1.03155e-09
1.03081e-09
1.03006e-09
1.02931e-09
1.02855e-09
1.02779e-09
1.02703e-09
1.02627e-09
1.02551e-09
1.02475e-09
1.02399e-09
1.02323e-09
1.02247e-09
1.02171e-09
1.02095e-09
1.02019e-09
1.01943e-09
1.01868e-09
1.01792e-09
1.01717e-09
1.01641e-09
1.01565e-09
1.0149e-09
1.01414e-09
1.01338e-09
1.01263e-09
1.01187e-09
1.01111e-09
1.01035e-09
1.00959e-09
1.00883e-09
1.00806e-09
1.0073e-09
1.00653e-09
1.00577e-09
1.005e-09
1.00423e-09
1.00346e-09
1.00268e-09
1.00191e-09
1.00113e-09
1.00035e-09
9.99576e-10
9.98795e-10
9.98013e-10
9.97229e-10
9.96444e-10
9.95657e-10
9.94869e-10
9.94078e-10
9.93287e-10
9.92493e-10
9.91698e-10
9.90901e-10
9.90103e-10
9.89303e-10
9.88501e-10
9.87698e-10
9.86893e-10
9.86086e-10
9.85277e-10
9.84467e-10
9.83655e-10
9.82842e-10
9.82026e-10
9.81209e-10
9.80391e-10
9.79571e-10
9.78749e-10
9.77925e-10
9.771e-10
9.76273e-10
9.75445e-10
9.74616e-10
9.73785e-10
9.72952e-10
9.72118e-10
9.71283e-10
9.70446e-10
9.69608e-10
9.68768e-10
9.67927e-10
9.67085e-10
9.66241e-10
9.65396e-10
9.64549e-10
9.63702e-10
9.62853e-10
9.62002e-10
9.61151e-10
9.60298e-10
9.59443e-10
9.58587e-10
9.57729e-10
9.5687e-10
9.56008e-10
9.55144e-10
9.54278e-10
9.53409e-10
9.52536e-10
9.5166e-10
9.5078e-10
9.49895e-10
9.49006e-10
9.48111e-10
9.47211e-10
9.46305e-10
9.45394e-10
9.44476e-10
9.43552e-10
9.42621e-10
9.41685e-10
9.40743e-10
9.39795e-10
9.38842e-10
9.37884e-10
9.36922e-10
9.35958e-10
9.3499e-10
9.34022e-10
9.33052e-10
9.32084e-10
9.31117e-10
9.30152e-10
9.29192e-10
9.28237e-10
9.27287e-10
9.26345e-10
9.25411e-10
9.24485e-10
9.23569e-10
9.22663e-10
9.21767e-10
9.20881e-10
9.20005e-10
9.19139e-10
9.18283e-10
9.17435e-10
9.16595e-10
9.15762e-10
9.14934e-10
9.14111e-10
9.13291e-10
9.12473e-10
9.11655e-10
9.10837e-10
9.10017e-10
9.09194e-10
9.08368e-10
9.07536e-10
9.06699e-10
9.05857e-10
9.05008e-10
9.04152e-10
9.0329e-10
9.02421e-10
9.01545e-10
9.00662e-10
8.99774e-10
8.98879e-10
8.97979e-10
8.97073e-10
8.96162e-10
8.95247e-10
8.94328e-10
8.93405e-10
8.92479e-10
8.9155e-10
8.90618e-10
8.89683e-10
8.88747e-10
8.87809e-10
8.86869e-10
8.85927e-10
8.84984e-10
8.8404e-10
8.83094e-10
8.82147e-10
8.812e-10
8.80251e-10
8.793e-10
8.78349e-10
8.77396e-10
8.76442e-10
8.75487e-10
8.7453e-10
8.73572e-10
8.72613e-10
8.71651e-10
8.70689e-10
8.69724e-10
8.68758e-10
8.67789e-10
8.66819e-10
8.65847e-10
8.64873e-10
8.63897e-10
8.62919e-10
8.61938e-10
8.60956e-10
8.59971e-10
8.58983e-10
8.57994e-10
8.57002e-10
8.56008e-10
8.55011e-10
8.54012e-10
8.53011e-10
8.52007e-10
8.51e-10
8.49991e-10
8.4898e-10
8.47965e-10
8.46949e-10
8.45929e-10
8.44907e-10
8.43883e-10
8.42855e-10
8.41825e-10
8.40792e-10
8.39757e-10
8.38719e-10
8.37678e-10
8.36634e-10
8.35588e-10
8.34538e-10
8.33486e-10
8.32431e-10
8.31373e-10
8.30313e-10
8.29249e-10
8.28182e-10
8.27113e-10
8.26041e-10
8.24966e-10
8.23887e-10
8.22806e-10
8.21722e-10
8.20635e-10
8.19545e-10
8.18453e-10
8.17357e-10
8.16258e-10
8.15156e-10
8.14052e-10
8.12944e-10
8.11833e-10
8.10719e-10
8.09602e-10
8.08483e-10
8.07359e-10
8.06233e-10
8.05104e-10
8.03971e-10
8.02836e-10
8.01697e-10
8.00555e-10
7.99409e-10
7.9826e-10
7.97108e-10
7.95952e-10
7.94793e-10
7.93629e-10
7.92462e-10
7.91291e-10
7.90116e-10
7.88936e-10
7.87752e-10
7.86564e-10
7.85371e-10
7.84173e-10
7.8297e-10
7.81761e-10
7.80547e-10
7.79328e-10
7.78103e-10
7.76871e-10
7.75634e-10
7.74391e-10
7.73142e-10
7.71887e-10
7.70625e-10
7.69357e-10
7.68083e-10
7.66803e-10
7.65517e-10
7.64225e-10
7.62928e-10
7.61625e-10
7.60317e-10
7.59005e-10
7.57687e-10
7.56366e-10
7.5504e-10
7.53712e-10
7.52379e-10
7.51045e-10
7.49708e-10
7.48369e-10
7.47029e-10
7.45688e-10
7.44346e-10
7.43003e-10
7.4166e-10
7.40317e-10
7.38974e-10
7.37632e-10
7.3629e-10
7.34949e-10
7.33608e-10
7.32268e-10
7.30927e-10
7.29586e-10
7.28245e-10
7.26904e-10
7.25561e-10
7.24216e-10
7.22869e-10
7.2152e-10
7.20167e-10
7.1881e-10
7.17449e-10
7.16084e-10
7.14712e-10
7.13335e-10
7.11952e-10
7.10561e-10
7.09164e-10
7.07759e-10
7.06346e-10
7.04926e-10
7.03497e-10
7.0206e-10
7.00615e-10
6.99162e-10
6.97701e-10
6.96233e-10
6.94757e-10
6.93274e-10
6.91783e-10
6.90287e-10
6.88784e-10
6.87277e-10
6.85766e-10
6.84251e-10
6.82734e-10
6.81216e-10
6.79698e-10
6.78182e-10
6.76669e-10
6.75163e-10
6.73664e-10
6.72176e-10
6.70702e-10
6.69244e-10
6.67807e-10
6.66395e-10
6.65011e-10
6.63661e-10
6.62349e-10
6.61079e-10
6.59856e-10
6.58686e-10
6.57573e-10
6.56521e-10
6.55533e-10
6.54612e-10
6.5376e-10
6.52978e-10
6.52267e-10
6.51627e-10
6.51055e-10
6.50548e-10
6.50103e-10
6.49717e-10
6.49385e-10
6.49103e-10
6.48863e-10
6.4866e-10
6.48484e-10
6.48327e-10
6.48176e-10
6.48009e-10
6.47792e-10
6.47466e-10
6.46928e-10
6.46001e-10
6.4437e-10
6.41482e-10
6.36394e-10
6.27542e-10
6.1253e-10
5.88154e-10
5.51273e-10
5.01102e-10
4.42103e-10
3.839e-10
3.36067e-10
3.02624e-10
2.81932e-10
2.70122e-10
2.63699e-10
2.603e-10
2.58526e-10
2.57609e-10
2.57136e-10
2.56893e-10
2.56769e-10
2.56706e-10
2.56673e-10
2.56657e-10
2.56649e-10
2.56645e-10
2.56643e-10
2.56643e-10
2.56642e-10
2.56642e-10
2.56642e-10
2.56643e-10
2.56643e-10
2.56642e-10
2.56642e-10
2.56642e-10
2.56642e-10
2.56641e-10
2.56641e-10
2.5664e-10
2.56639e-10
2.56638e-10
2.56637e-10
2.56636e-10
2.56635e-10
2.56633e-10
2.56632e-10
2.5663e-10
2.56629e-10
2.56627e-10
2.56625e-10
2.56623e-10
2.56621e-10
2.56619e-10
2.56616e-10
2.56614e-10
2.56611e-10
2.56609e-10
2.56606e-10
2.56603e-10
2.566e-10
2.56597e-10
2.56593e-10
2.5659e-10
2.56586e-10
2.56582e-10
2.56579e-10
2.56574e-10
2.5657e-10
2.56565e-10
2.56561e-10
2.56556e-10
2.5655e-10
2.56545e-10
2.56539e-10
2.56533e-10
2.56526e-10
2.56519e-10
2.56512e-10
2.56504e-10
2.56496e-10
2.56488e-10
2.56479e-10
2.5647e-10
2.5646e-10
2.5645e-10
2.56439e-10
2.56428e-10
2.56416e-10
2.56404e-10
2.56392e-10
2.56379e-10
2.56366e-10
2.56352e-10
2.56338e-10
2.56324e-10
2.5631e-10
2.56295e-10
2.56281e-10
2.56266e-10
2.56251e-10
2.56236e-10
2.56222e-10
2.56207e-10
2.56193e-10
2.56179e-10
2.56166e-10
2.56153e-10
2.5614e-10
2.56128e-10
2.56117e-10
2.56107e-10
2.56097e-10
2.56089e-10
2.56081e-10
2.56074e-10
2.56069e-10
2.56065e-10
2.56061e-10
2.56059e-10
2.56059e-10
2.56058e-10
2.56059e-10
2.56059e-10
2.56063e-10
2.56068e-10
2.56074e-10
2.56081e-10
2.56088e-10
2.56097e-10
2.56107e-10
2.56117e-10
2.56128e-10
2.5614e-10
2.56152e-10
2.56164e-10
2.56177e-10
2.5619e-10
2.56203e-10
2.56216e-10
2.56229e-10
2.56243e-10
2.56255e-10
2.56268e-10
2.56281e-10
2.56293e-10
2.56304e-10
2.56316e-10
2.56327e-10
2.56337e-10
2.56347e-10
2.56357e-10
2.56366e-10
2.56374e-10
2.56382e-10
2.5639e-10
2.56397e-10
2.56404e-10
2.5641e-10
2.56416e-10
2.56421e-10
2.56426e-10
2.56431e-10
2.56436e-10
2.5644e-10
2.56444e-10
2.56448e-10
2.56452e-10
2.56455e-10
2.56459e-10
2.56462e-10
2.56465e-10
2.56468e-10
2.56471e-10
2.56474e-10
2.56477e-10
2.5648e-10
2.56483e-10
2.56486e-10
2.56489e-10
2.56492e-10
2.56495e-10
2.56498e-10
2.56501e-10
2.56504e-10
2.56507e-10
2.5651e-10
2.56513e-10
2.56516e-10
2.56519e-10
2.56522e-10
2.56525e-10
2.56528e-10
2.56531e-10
2.56534e-10
2.56538e-10
2.56541e-10
2.56544e-10
2.56547e-10
2.5655e-10
2.56553e-10
2.56555e-10
2.56558e-10
2.56561e-10
2.56564e-10
2.56566e-10
2.56569e-10
2.56571e-10
2.56574e-10
2.56576e-10
2.56578e-10
2.5658e-10
2.56582e-10
2.56585e-10
2.56586e-10
2.56588e-10
2.5659e-10
2.56592e-10
2.56594e-10
2.56596e-10
2.56597e-10
2.56599e-10
2.56601e-10
2.56603e-10
2.56604e-10
2.56606e-10
2.56607e-10
2.56609e-10
2.5661e-10
2.56611e-10
2.56613e-10
2.56614e-10
2.56615e-10
2.56616e-10
2.56617e-10
2.56617e-10
2.56618e-10
2.56618e-10
2.56619e-10
2.56619e-10
2.56619e-10
2.56619e-10
2.56619e-10
2.56618e-10
2.56618e-10
2.56617e-10
2.56617e-10
2.56616e-10
2.56615e-10
2.56614e-10
2.56613e-10
2.56611e-10
2.5661e-10
2.56609e-10
2.56607e-10
2.56606e-10
2.56604e-10
2.56602e-10
2.566e-10
2.56598e-10
2.56596e-10
2.56594e-10
2.56592e-10
2.56589e-10
2.56587e-10
2.56584e-10
2.56582e-10
2.56579e-10
2.56576e-10
2.56573e-10
2.5657e-10
2.56566e-10
2.56563e-10
2.56559e-10
2.56555e-10
2.56551e-10
2.56546e-10
2.56541e-10
2.56536e-10
2.56531e-10
2.56526e-10
2.5652e-10
2.56513e-10
2.56507e-10
2.565e-10
2.56493e-10
2.56485e-10
2.56477e-10
2.56469e-10
2.5646e-10
2.56451e-10
2.56442e-10
2.56432e-10
2.56422e-10
2.56412e-10
2.56401e-10
2.5639e-10
2.56378e-10
2.56366e-10
2.56354e-10
2.56342e-10
2.5633e-10
2.56317e-10
2.56304e-10
2.56291e-10
2.56279e-10
2.56266e-10
2.56253e-10
2.5624e-10
2.56228e-10
2.56216e-10
2.56204e-10
2.56192e-10
2.56181e-10
2.5617e-10
2.56159e-10
2.5615e-10
2.56141e-10
2.56132e-10
2.56124e-10
2.56117e-10
2.56111e-10
2.56106e-10
2.56102e-10
2.56098e-10
2.56096e-10
2.56095e-10
2.56094e-10
)
;

boundaryField
{
    inlet
    {
        type            calculated;
        value           uniform -1.13622e-09;
    }
    outlet
    {
        type            calculated;
        value           uniform 2.56094e-10;
    }
    emptyWalls
    {
        type            empty;
        value           nonuniform List<scalar> 0();
    }
}


// ************************************************************************* //
