/*--------------------------------*- C++ -*----------------------------------*\
  =========                 |
  \\      /  F ield         | OpenFOAM: The Open Source CFD Toolbox
   \\    /   O peration     | Website:  https://openfoam.org
    \\  /    A nd           | Version:  9
     \\/     M anipulation  |
\*---------------------------------------------------------------------------*/
FoamFile
{
    format      ascii;
    class       volScalarField;
    location    "16900";
    object      Sa;
}
// * * * * * * * * * * * * * * * * * * * * * * * * * * * * * * * * * * * * * //

dimensions      [0 0 0 0 0 0 0];

internalField   nonuniform List<scalar> 
1000
(
0.549405
0.547941
0.546288
0.54443
0.542781
0.540976
0.53926
0.537487
0.535733
0.533976
0.532253
0.530558
0.528945
0.527413
0.526006
0.524733
0.523592
0.522626
0.521703
0.520909
0.519462
0.515593
0.501056
0.421038
0.166283
0.0869284
0.0672934
0.0586459
0.0534977
0.049891
0.0471197
0.0448505
0.0429185
0.0412266
0.0397253
0.0383773
0.0371642
0.0360646
0.0350669
0.0341565
0.0333256
0.0325621
0.0318568
0.0312062
0.0305997
0.0300377
0.0295099
0.0290185
0.0285543
0.0281201
0.0277024
0.0273058
0.0269343
0.0265872
0.0262637
0.0259626
0.025683
0.0254237
0.0251838
0.0249619
0.0247575
0.0245704
0.0244027
0.0242582
0.0241432
0.0240608
0.0240055
0.0239579
0.0239086
0.0238579
0.0238065
0.0237548
0.023703
0.0236513
0.0235998
0.0235487
0.0234979
0.0234477
0.0233979
0.0233486
0.0232999
0.0232516
0.0232037
0.0231563
0.0231093
0.0230625
0.0230161
0.0229701
0.0229244
0.0228792
0.0228346
0.0227906
0.0227471
0.0227041
0.0226617
0.0226196
0.022578
0.0225366
0.0224954
0.0224543
0.0224133
0.0223726
0.0223326
0.0222937
0.0222563
0.0222209
0.0221877
0.0221568
0.0221282
0.0221016
0.0220768
0.0220533
0.0220309
0.0220092
0.0219878
0.0219663
0.0219443
0.0219213
0.0218968
0.0218705
0.0218416
0.0218099
0.0217751
0.0217372
0.0216961
0.0216522
0.0216058
0.0215575
0.0215078
0.0214576
0.0214073
0.0213578
0.0213094
0.0212627
0.0212177
0.0211749
0.0211342
0.0210955
0.0210588
0.0210239
0.0209905
0.0209585
0.0209275
0.0208974
0.0208678
0.0208387
0.0208098
0.0207811
0.0207524
0.0207237
0.0206948
0.0206659
0.0206369
0.0206077
0.0205785
0.0205492
0.0205199
0.0204905
0.0204612
0.020432
0.0204028
0.0203737
0.0203447
0.0203159
0.0202872
0.0202586
0.0202303
0.020202
0.020174
0.0201461
0.0201184
0.0200909
0.0200636
0.0200365
0.0200095
0.0199828
0.0199562
0.0199298
0.0199036
0.0198775
0.0198517
0.019826
0.0198005
0.0197752
0.0197501
0.0197251
0.0197004
0.0196758
0.0196514
0.0196271
0.019603
0.0195791
0.0195554
0.0195318
0.0195084
0.0194852
0.0194622
0.0194393
0.0194166
0.019394
0.0193717
0.0193495
0.0193274
0.0193056
0.0192839
0.0192624
0.019241
0.0192198
0.0191987
0.0191777
0.0191569
0.0191362
0.0191156
0.0190951
0.0190748
0.0190545
0.0190344
0.0190144
0.0189945
0.0189748
0.0189552
0.0189357
0.0189163
0.018897
0.0188778
0.0188587
0.0188397
0.0188207
0.0188019
0.0187831
0.0187646
0.0187462
0.0187281
0.0187104
0.018693
0.0186761
0.0186598
0.0186441
0.018629
0.0186146
0.0186009
0.0185879
0.0185756
0.0185639
0.0185529
0.0185424
0.0185324
0.0185227
0.0185132
0.0185038
0.0184943
0.0184846
0.0184745
0.0184639
0.0184525
0.0184402
0.018427
0.0184126
0.0183969
0.0183801
0.0183619
0.0183424
0.0183218
0.0182999
0.0182771
0.0182534
0.018229
0.0182041
0.0181788
0.0181534
0.0181281
0.018103
0.0180782
0.0180539
0.0180302
0.0180071
0.0179848
0.0179631
0.0179422
0.017922
0.0179025
0.0178835
0.0178652
0.0178473
0.0178299
0.0178129
0.0177962
0.0177797
0.0177634
0.0177473
0.0177313
0.0177154
0.0176995
0.0176836
0.0176677
0.0176518
0.0176358
0.0176198
0.0176038
0.0175877
0.0175716
0.0175555
0.0175393
0.0175231
0.017507
0.0174908
0.0174746
0.0174584
0.0174423
0.0174262
0.0174101
0.017394
0.017378
0.0173621
0.0173462
0.0173304
0.0173146
0.0172989
0.0172833
0.0172677
0.0172522
0.0172368
0.0172214
0.0172062
0.017191
0.0171758
0.0171608
0.0171458
0.0171309
0.0171161
0.0171014
0.0170867
0.0170721
0.0170577
0.0170432
0.0170289
0.0170146
0.0170005
0.0169863
0.0169723
0.0169584
0.0169445
0.0169307
0.016917
0.0169034
0.0168898
0.0168763
0.0168629
0.0168496
0.0168363
0.0168232
0.0168101
0.016797
0.0167841
0.0167712
0.0167583
0.0167456
0.0167329
0.0167202
0.0167077
0.0166951
0.0166827
0.0166702
0.0166579
0.0166456
0.0166333
0.0166211
0.016609
0.0165968
0.0165848
0.0165728
0.0165608
0.0165489
0.016537
0.0165252
0.0165134
0.0165017
0.01649
0.0164784
0.0164669
0.0164554
0.0164441
0.0164329
0.0164218
0.0164109
0.0164002
0.0163896
0.0163793
0.0163693
0.0163595
0.01635
0.0163408
0.0163319
0.0163234
0.0163151
0.0163072
0.0162995
0.0162922
0.0162851
0.0162783
0.0162717
0.0162652
0.0162589
0.0162526
0.0162463
0.0162401
0.0162336
0.0162271
0.0162203
0.0162131
0.0162057
0.0161978
0.0161894
0.0161805
0.016171
0.0161609
0.0161502
0.0161388
0.0161268
0.0161142
0.016101
0.0160872
0.0160728
0.016058
0.0160428
0.0160272
0.0160113
0.0159952
0.015979
0.0159627
0.0159464
0.0159302
0.0159141
0.0158983
0.0158826
0.0158672
0.0158521
0.0158373
0.0158228
0.0158087
0.0157948
0.0157813
0.0157681
0.0157552
0.0157425
0.0157301
0.015718
0.015706
0.0156942
0.0156826
0.0156711
0.0156597
0.0156484
0.0156371
0.0156259
0.0156148
0.0156037
0.0155926
0.0155815
0.0155704
0.0155593
0.0155482
0.0155371
0.015526
0.0155148
0.0155037
0.0154925
0.0154813
0.0154701
0.0154589
0.0154477
0.0154365
0.0154253
0.015414
0.0154028
0.0153917
0.0153805
0.0153693
0.0153582
0.015347
0.0153359
0.0153249
0.0153138
0.0153028
0.0152918
0.0152808
0.0152699
0.015259
0.0152482
0.0152374
0.0152266
0.0152158
0.0152051
0.0151945
0.0151838
0.0151732
0.0151627
0.0151522
0.0151417
0.0151313
0.0151209
0.0151105
0.0151002
0.0150899
0.0150797
0.0150695
0.0150594
0.0150493
0.0150392
0.0150292
0.0150192
0.0150092
0.0149994
0.0149895
0.0149797
0.0149698
0.0149601
0.0149504
0.0149407
0.014931
0.0149214
0.0149118
0.0149023
0.0148928
0.0148833
0.0148738
0.0148644
0.014855
0.0148456
0.0148363
0.014827
0.0148177
0.0148084
0.0147991
0.0147899
0.0147807
0.0147715
0.0147624
0.0147532
0.0147441
0.014735
0.014726
0.0147169
0.0147079
0.014699
0.01469
0.0146811
0.0146723
0.0146635
0.0146547
0.014646
0.0146374
0.0146289
0.0146205
0.0146121
0.0146039
0.0145957
0.0145877
0.0145798
0.0145721
0.0145645
0.0145571
0.0145498
0.0145427
0.0145357
0.0145289
0.0145222
0.0145158
0.0145094
0.0145032
0.0144971
0.0144912
0.0144853
0.0144796
0.0144738
0.0144682
0.0144625
0.0144569
0.0144512
0.0144454
0.0144396
0.0144336
0.0144275
0.0144212
0.0144147
0.014408
0.014401
0.0143937
0.0143861
0.0143783
0.01437
0.0143614
0.0143524
0.0143431
0.0143335
0.0143234
0.014313
0.0143023
0.0142912
0.0142799
0.0142682
0.0142564
0.0142443
0.014232
0.0142196
0.014207
0.0141944
0.0141816
0.0141689
0.0141562
0.0141435
0.0141309
0.0141183
0.0141059
0.0140935
0.0140813
0.0140693
0.0140574
0.0140456
0.014034
0.0140226
0.0140114
0.0140003
0.0139893
0.0139785
0.0139679
0.0139574
0.013947
0.0139368
0.0139266
0.0139166
0.0139067
0.0138969
0.0138873
0.0138777
0.0138682
0.0138589
0.0138497
0.0138407
0.0138317
0.013823
0.0138145
0.0138061
0.013798
0.0137901
0.0137825
0.0137752
0.0137682
0.0137615
0.0137552
0.0137493
0.0137437
0.0137385
0.0137338
0.0137294
0.0137254
0.0137217
0.0137184
0.0137154
0.0137128
0.0137104
0.0137083
0.0137064
0.0137047
0.0137031
0.0137016
0.0137001
0.0136984
0.0136964
0.0136936
0.0136892
0.0136823
0.0136704
0.0136501
0.0136152
0.0135569
0.0134633
0.0133243
0.0131419
0.0129408
0.0127637
0.0126405
0.0125704
0.0125351
0.0125181
0.0125099
0.0125057
0.0125035
0.0125023
0.0125016
0.0125011
0.0125008
0.0125005
0.0125003
0.0125001
0.0125
0.0124998
0.0124997
0.0124996
0.0124996
0.0124995
0.0124995
0.0124995
0.0124995
0.0124995
0.0124995
0.0124995
0.0124996
0.0124996
0.0124997
0.0124998
0.0124999
0.0125001
0.0125002
0.0125004
0.0125006
0.0125007
0.0125009
0.0125011
0.0125014
0.0125016
0.0125019
0.0125021
0.0125024
0.0125027
0.012503
0.0125033
0.0125036
0.012504
0.0125043
0.0125047
0.0125051
0.0125055
0.0125059
0.0125064
0.0125069
0.0125074
0.0125079
0.0125085
0.0125091
0.0125097
0.0125104
0.0125111
0.0125119
0.0125127
0.0125136
0.0125145
0.0125155
0.0125166
0.0125177
0.0125189
0.0125202
0.0125215
0.012523
0.0125245
0.0125261
0.0125278
0.0125295
0.0125314
0.0125333
0.0125353
0.0125374
0.0125396
0.0125419
0.0125442
0.0125466
0.012549
0.0125515
0.012554
0.0125566
0.0125592
0.0125618
0.0125644
0.012567
0.0125696
0.0125721
0.0125746
0.012577
0.0125794
0.0125816
0.0125838
0.0125859
0.0125878
0.0125896
0.0125912
0.0125926
0.0125939
0.012595
0.0125959
0.0125966
0.012597
0.0125973
0.0125974
0.0125974
0.0125973
0.012597
0.0125963
0.0125953
0.0125942
0.0125929
0.0125914
0.0125898
0.012588
0.0125861
0.0125842
0.0125821
0.0125799
0.0125777
0.0125754
0.0125731
0.0125708
0.0125684
0.0125661
0.0125638
0.0125616
0.0125593
0.0125572
0.0125551
0.012553
0.0125511
0.0125492
0.0125474
0.0125457
0.012544
0.0125425
0.012541
0.0125397
0.0125384
0.0125371
0.012536
0.0125349
0.0125339
0.012533
0.0125321
0.0125313
0.0125305
0.0125297
0.012529
0.0125284
0.0125277
0.0125271
0.0125265
0.012526
0.0125254
0.0125248
0.0125243
0.0125238
0.0125232
0.0125227
0.0125222
0.0125217
0.0125211
0.0125206
0.0125201
0.0125195
0.012519
0.0125184
0.0125179
0.0125173
0.0125168
0.0125162
0.0125157
0.0125151
0.0125145
0.012514
0.0125134
0.0125128
0.0125123
0.0125117
0.0125112
0.0125106
0.0125101
0.0125095
0.012509
0.0125085
0.012508
0.0125075
0.012507
0.0125065
0.012506
0.0125055
0.0125051
0.0125047
0.0125042
0.0125038
0.0125034
0.012503
0.0125027
0.0125023
0.012502
0.0125017
0.0125014
0.0125011
0.0125008
0.0125006
0.0125003
0.0125001
0.0124999
0.0124997
0.0124996
0.0124994
0.0124993
0.0124992
0.0124991
0.012499
0.0124989
0.0124989
0.0124988
0.0124988
0.0124988
0.0124988
0.0124988
0.0124989
0.0124989
0.012499
0.0124991
0.0124992
0.0124994
0.0124995
0.0124997
0.0124998
0.0125
0.0125002
0.0125004
0.0125007
0.0125009
0.0125012
0.0125014
0.0125017
0.012502
0.0125023
0.0125027
0.012503
0.0125034
0.0125038
0.0125042
0.0125046
0.0125051
0.0125055
0.012506
0.0125066
0.0125071
0.0125077
0.0125083
0.012509
0.0125096
0.0125104
0.0125111
0.0125119
0.0125128
0.0125137
0.0125147
0.0125157
0.0125167
0.0125179
0.012519
0.0125203
0.0125216
0.012523
0.0125244
0.0125259
0.0125275
0.0125292
0.0125309
0.0125327
0.0125345
0.0125364
0.0125384
0.0125404
0.0125425
0.0125446
0.0125468
0.012549
0.0125512
0.0125535
0.0125558
0.0125581
0.0125604
0.0125627
0.0125649
0.0125672
0.0125694
0.0125716
0.0125737
0.0125757
0.0125777
0.0125796
0.0125814
0.0125831
0.0125847
0.0125861
0.0125874
0.0125886
0.0125896
0.0125905
0.0125912
0.0125917
0.0125921
0.0125921
0.0125926
)
;

boundaryField
{
    inlet
    {
        type            fixedValue;
        value           uniform 0.55;
    }
    outlet
    {
        type            zeroGradient;
    }
    emptyWalls
    {
        type            empty;
    }
}


// ************************************************************************* //
