/*--------------------------------*- C++ -*----------------------------------*\
  =========                 |
  \\      /  F ield         | OpenFOAM: The Open Source CFD Toolbox
   \\    /   O peration     | Website:  https://openfoam.org
    \\  /    A nd           | Version:  9
     \\/     M anipulation  |
\*---------------------------------------------------------------------------*/
FoamFile
{
    format      ascii;
    class       volScalarField;
    location    "12800";
    object      kra;
}
// * * * * * * * * * * * * * * * * * * * * * * * * * * * * * * * * * * * * * //

dimensions      [0 0 0 0 0 0 0];

internalField   nonuniform List<scalar> 
1000
(
0.000237077
0.00023885
0.000241139
0.00024335
0.000245559
0.000247754
0.000249922
0.000252086
0.000254081
0.000256115
0.000257753
0.000259499
0.000260716
0.000262144
0.000263608
0.000267668
0.000281412
0.00035672
0.000714027
0.00087779
0.000916454
0.000931797
0.000935484
0.000935371
0.000933752
0.000930746
0.000928557
0.000927422
0.000927156
0.000927358
0.000928355
0.000929421
0.000930198
0.000930437
0.000930398
0.000930306
0.000929833
0.000929351
0.000928389
0.000927365
0.000926168
0.000924874
0.000923418
0.000921842
0.000920048
0.000918021
0.000915612
0.000912748
0.000909285
0.000905241
0.000900702
0.000895845
0.000890817
0.000885704
0.000880559
0.000875419
0.000870305
0.000865234
0.000860216
0.000855258
0.000850364
0.000845537
0.000840778
0.000836088
0.000831466
0.000826914
0.000822429
0.000818013
0.000813663
0.000809379
0.00080516
0.000801005
0.000796912
0.000792882
0.000788912
0.000785003
0.000781151
0.000777357
0.000773618
0.000769934
0.000766302
0.000762723
0.000759194
0.000755715
0.000752286
0.000748905
0.000745572
0.000742286
0.000739045
0.000735849
0.000732693
0.000729578
0.000726499
0.000723454
0.000720443
0.000717462
0.000714512
0.000711592
0.000708704
0.00070585
0.000703035
0.00070026
0.000697529
0.000694839
0.00069219
0.000689573
0.000686986
0.000684422
0.000681884
0.000679372
0.000676899
0.000674473
0.000672114
0.000669833
0.000667648
0.000665563
0.000663591
0.000661725
0.000659969
0.000658308
0.000656737
0.000655238
0.000653799
0.000652397
0.000651016
0.000649631
0.000648219
0.000646752
0.000645209
0.000643559
0.000641786
0.000639864
0.00063779
0.000635546
0.000633149
0.000630593
0.000627915
0.000625117
0.000622254
0.000619331
0.00061641
0.000613494
0.000610641
0.000607847
0.000605159
0.000602563
0.000600094
0.000597726
0.000595485
0.000593339
0.000591302
0.000589344
0.000587468
0.00058565
0.000583887
0.000582163
0.000580469
0.000578797
0.000577139
0.000575491
0.000573846
0.000572204
0.00057056
0.000568916
0.000567271
0.000565624
0.000563978
0.000562334
0.000560692
0.000559054
0.000557422
0.000555797
0.000554179
0.00055257
0.00055097
0.00054938
0.0005478
0.000546231
0.000544673
0.000543125
0.000541588
0.000540062
0.000538547
0.000537042
0.000535548
0.000534064
0.00053259
0.000531127
0.000529674
0.000528231
0.000526798
0.000525376
0.000523963
0.00052256
0.000521168
0.000519785
0.000518412
0.000517049
0.000515696
0.000514353
0.00051302
0.000511697
0.000510384
0.00050908
0.000507787
0.000506503
0.000505229
0.000503964
0.000502709
0.000501464
0.000500229
0.000499003
0.000497786
0.000496579
0.000495381
0.000494193
0.000493014
0.000491844
0.000490683
0.000489531
0.000488388
0.000487254
0.000486128
0.000485012
0.000483903
0.000482803
0.000481711
0.000480626
0.000479548
0.000478478
0.000477414
0.000476357
0.000475305
0.00047426
0.000473221
0.000472188
0.000471161
0.000470141
0.000469126
0.000468118
0.000467116
0.000466121
0.000465132
0.00046415
0.000463174
0.000462205
0.000461243
0.000460289
0.000459342
0.000458405
0.000457478
0.000456564
0.000455662
0.000454777
0.000453908
0.00045306
0.000452233
0.00045143
0.000450652
0.000449901
0.000449178
0.000448483
0.000447816
0.000447177
0.000446564
0.000445976
0.00044541
0.000444863
0.000444331
0.00044381
0.000443294
0.000442779
0.000442259
0.000441727
0.000441177
0.000440603
0.000439999
0.000439359
0.000438678
0.000437951
0.000437175
0.000436348
0.000435467
0.000434534
0.000433549
0.000432515
0.000431437
0.000430318
0.000429166
0.000427988
0.000426789
0.000425579
0.000424363
0.000423151
0.000421947
0.000420759
0.00041959
0.000418446
0.000417329
0.000416243
0.000415187
0.000414163
0.00041317
0.000412207
0.000411273
0.000410366
0.000409484
0.000408624
0.000407783
0.00040696
0.000406151
0.000405354
0.000404568
0.000403789
0.000403017
0.000402248
0.000401484
0.000400721
0.00039996
0.000399198
0.000398437
0.000397675
0.000396913
0.00039615
0.000395386
0.000394622
0.000393857
0.000393092
0.000392327
0.000391563
0.000390799
0.000390037
0.000389275
0.000388516
0.000387757
0.000387001
0.000386247
0.000385496
0.000384746
0.000384
0.000383256
0.000382515
0.000381777
0.000381042
0.00038031
0.000379582
0.000378856
0.000378133
0.000377414
0.000376698
0.000375984
0.000375274
0.000374568
0.000373864
0.000373165
0.000372466
0.000371774
0.000371081
0.000370396
0.000369709
0.000369031
0.000368349
0.000367678
0.000367003
0.000366338
0.000365669
0.00036501
0.000364349
0.000363695
0.000363043
0.000362393
0.000361749
0.000361103
0.000360468
0.000359827
0.000359199
0.000358564
0.000357942
0.000357315
0.000356697
0.000356079
0.000355465
0.000354855
0.000354245
0.000353642
0.000353038
0.00035244
0.000351842
0.000351248
0.000350658
0.000350068
0.000349482
0.000348898
0.000348316
0.000347737
0.000347159
0.000346584
0.00034601
0.000345439
0.00034487
0.000344302
0.000343737
0.000343172
0.00034261
0.00034205
0.000341491
0.000340935
0.00034038
0.000339827
0.000339277
0.000338728
0.000338182
0.000337639
0.000337098
0.000336561
0.000336027
0.000335497
0.000334971
0.00033445
0.000333934
0.000333425
0.000332921
0.000332424
0.000331935
0.000331454
0.000330982
0.000330518
0.000330064
0.000329619
0.000329185
0.00032876
0.000328345
0.000327939
0.000327543
0.000327157
0.000326777
0.000326406
0.000326041
0.000325682
0.000325327
0.000324973
0.000324622
0.00032427
0.000323916
0.000323557
0.000323192
0.00032282
0.000322436
0.000322042
0.000321633
0.000321209
0.000320768
0.000320307
0.000319828
0.000319327
0.000318805
0.000318261
0.000317694
0.000317106
0.000316496
0.000315866
0.000315216
0.000314549
0.000313866
0.000313168
0.000312459
0.000311739
0.000311014
0.000310282
0.00030955
0.000308816
0.000308086
0.000307359
0.00030664
0.00030593
0.000305229
0.000304541
0.000303866
0.000303206
0.000302562
0.000301935
0.000301326
0.000300737
0.000300168
0.00029962
0.000299096
0.000298594
0.000298117
0.000297667
0.000297242
0.000296846
0.000296477
0.000296137
0.000295825
0.000295542
0.000295287
0.000295058
0.000294856
0.000294675
0.000294516
0.000294373
0.000294243
0.000294119
0.000293989
0.000293837
0.000293631
0.000293325
0.000292828
0.000291997
0.000290587
0.000288234
0.000284465
0.000278857
0.000271453
0.000263219
0.000255865
0.000250671
0.000247672
0.00024615
0.000245413
0.000245049
0.00024486
0.000244754
0.00024469
0.000244645
0.000244612
0.000244584
0.000244559
0.000244535
0.000244513
0.000244492
0.000244472
0.000244452
0.000244432
0.000244414
0.000244395
0.000244378
0.00024436
0.000244344
0.000244328
0.000244312
0.000244297
0.000244282
0.000244269
0.000244255
0.000244242
0.00024423
0.000244218
0.000244207
0.000244196
0.000244186
0.000244177
0.000244168
0.00024416
0.000244152
0.000244145
0.000244138
0.000244132
0.000244127
0.000244122
0.000244118
0.000244115
0.000244112
0.000244111
0.000244109
0.000244109
0.000244109
0.000244109
0.000244109
0.000244111
0.000244114
0.000244117
0.000244121
0.000244125
0.00024413
0.000244136
0.000244142
0.000244149
0.000244157
0.000244165
0.000244173
0.000244183
0.000244192
0.000244203
0.000244213
0.000244224
0.000244236
0.000244248
0.00024426
0.000244273
0.000244286
0.0002443
0.000244314
0.000244328
0.000244343
0.000244358
0.000244374
0.00024439
0.000244406
0.000244424
0.000244441
0.000244459
0.000244478
0.000244498
0.000244518
0.000244539
0.000244561
0.000244585
0.000244609
0.000244636
0.000244663
0.000244693
0.000244724
0.000244758
0.000244793
0.000244831
0.000244872
0.000244916
0.000244963
0.000245013
0.000245067
0.000245124
0.000245185
0.00024525
0.000245319
0.000245392
0.000245469
0.000245551
0.000245636
0.000245726
0.00024582
0.000245918
0.000246019
0.000246124
0.000246232
0.000246344
0.000246457
0.000246573
0.00024669
0.000246808
0.000246927
0.000247045
0.000247163
0.000247279
0.000247393
0.000247504
0.000247611
0.000247713
0.00024781
0.000247901
0.000247985
0.000248061
0.000248129
0.000248187
0.000248237
0.000248276
0.000248304
0.000248321
0.000248328
0.000248329
0.000248328
0.00024832
0.000248287
0.000248241
0.000248184
0.000248118
0.000248044
0.000247961
0.000247871
0.000247775
0.000247673
0.000247566
0.000247456
0.000247343
0.000247228
0.000247112
0.000246996
0.00024688
0.000246767
0.000246655
0.000246546
0.000246441
0.000246339
0.000246242
0.00024615
0.000246062
0.000245979
0.000245901
0.000245828
0.000245761
0.000245698
0.00024564
0.000245586
0.000245537
0.000245491
0.00024545
0.000245411
0.000245376
0.000245344
0.000245314
0.000245287
0.000245261
0.000245237
0.000245215
0.000245193
0.000245172
0.000245152
0.000245132
0.000245113
0.000245094
0.000245075
0.000245056
0.000245036
0.000245016
0.000244996
0.000244976
0.000244955
0.000244934
0.000244913
0.000244891
0.000244869
0.000244847
0.000244824
0.000244801
0.000244778
0.000244755
0.000244732
0.000244708
0.000244685
0.000244662
0.000244639
0.000244616
0.000244593
0.000244571
0.000244549
0.000244527
0.000244506
0.000244485
0.000244464
0.000244444
0.000244424
0.000244405
0.000244387
0.000244368
0.000244351
0.000244334
0.000244317
0.000244302
0.000244286
0.000244272
0.000244257
0.000244244
0.000244231
0.000244219
0.000244207
0.000244196
0.000244185
0.000244175
0.000244166
0.000244157
0.000244148
0.000244141
0.000244134
0.000244127
0.000244121
0.000244116
0.000244111
0.000244107
0.000244104
0.000244101
0.000244098
0.000244096
0.000244095
0.000244094
0.000244094
0.000244094
0.000244094
0.000244095
0.000244097
0.0002441
0.000244103
0.000244107
0.000244111
0.000244116
0.000244121
0.000244127
0.000244133
0.00024414
0.000244147
0.000244155
0.000244163
0.000244172
0.000244181
0.000244191
0.000244201
0.000244212
0.000244223
0.000244235
0.000244246
0.000244259
0.000244272
0.000244286
0.0002443
0.000244315
0.00024433
0.000244347
0.000244363
0.000244381
0.000244399
0.000244419
0.000244439
0.000244461
0.000244484
0.000244508
0.000244534
0.000244561
0.000244589
0.00024462
0.000244652
0.000244687
0.000244724
0.000244763
0.000244804
0.000244849
0.000244895
0.000244945
0.000244998
0.000245054
0.000245112
0.000245175
0.00024524
0.000245309
0.000245381
0.000245457
0.000245535
0.000245618
0.000245703
0.000245791
0.000245882
0.000245976
0.000246072
0.000246171
0.000246271
0.000246373
0.000246476
0.00024658
0.000246685
0.000246789
0.000246893
0.000246996
0.000247098
0.000247198
0.000247294
0.000247389
0.000247479
0.000247565
0.000247646
0.000247722
0.000247792
0.000247856
0.000247913
0.000247963
0.000248006
0.000248041
0.000248067
0.000248085
0.000248093
0.000248096
0.000248095
0.000248093
0.000248077
0.000248044
0.000248004
0.000247955
0.0002479
0.000247837
0.000247768
0.000247694
0.000247615
0.000247531
0.000247443
0.000247352
0.000247259
0.000247165
0.000247069
0.000246973
0.000246877
0.000246782
0.000246688
0.000246596
0.000246506
0.000246418
0.000246334
0.000246252
0.000246174
0.0002461
0.000246029
0.000245961
0.000245898
0.000245837
0.000245781
0.000245728
0.000245678
0.000245631
0.000245587
0.000245546
0.000245507
0.000245471
0.000245437
0.000245405
0.000245374
0.000245345
0.000245318
0.000245291
0.000245265
0.00024524
0.000245215
0.000245191
0.000245168
0.000245144
0.000245121
0.000245097
0.000245074
0.000245051
0.000245027
0.000245003
0.000244979
0.000244955
0.000244931
0.000244906
0.000244881
0.000244857
0.000244832
0.000244807
0.000244782
0.000244757
0.000244732
0.000244707
0.000244682
0.000244657
0.000244633
0.000244609
0.000244585
0.000244562
0.000244539
0.000244517
0.000244495
0.000244473
0.000244452
0.000244432
0.000244412
0.000244393
0.000244374
0.000244356
0.000244339
0.000244322
0.000244306
0.000244291
0.000244276
0.000244262
0.000244249
0.000244236
0.000244224
0.000244213
0.000244202
0.000244192
0.000244182
0.000244173
0.000244165
0.000244158
0.000244151
0.000244145
0.000244139
0.000244134
0.000244129
0.000244125
0.000244122
0.000244119
0.000244117
0.000244116
0.000244115
0.000244115
0.000244115
0.000244115
0.000244116
0.000244118
0.000244118
0.000244123
0.000244124
0.00024413
0.000244132
0.00024414
0.000244143
0.000244153
0.000244155
0.000244167
0.000244171
0.000244184
0.000244188
0.000244223
)
;

boundaryField
{
    inlet
    {
        type            calculated;
        value           uniform 0.000236304;
    }
    outlet
    {
        type            calculated;
        value           uniform 0.000244205;
    }
    emptyWalls
    {
        type            empty;
    }
}


// ************************************************************************* //
