/*--------------------------------*- C++ -*----------------------------------*\
  =========                 |
  \\      /  F ield         | OpenFOAM: The Open Source CFD Toolbox
   \\    /   O peration     | Website:  https://openfoam.org
    \\  /    A nd           | Version:  9
     \\/     M anipulation  |
\*---------------------------------------------------------------------------*/
FoamFile
{
    format      ascii;
    class       volScalarField;
    location    "17900";
    object      kra;
}
// * * * * * * * * * * * * * * * * * * * * * * * * * * * * * * * * * * * * * //

dimensions      [0 0 0 0 0 0 0];

internalField   nonuniform List<scalar> 
1000
(
0.000236815
0.000237992
0.00023955
0.000241094
0.000242631
0.000244184
0.000245741
0.000247309
0.000248897
0.000250468
0.000252069
0.000253586
0.000255165
0.000256541
0.000258018
0.000259199
0.000260454
0.000261432
0.000262398
0.000263181
0.000263948
0.000264868
0.000267071
0.000274719
0.00030973
0.000548019
0.000827237
0.000882754
0.000899579
0.000907698
0.000912737
0.00091635
0.000919129
0.000921338
0.000923076
0.000924439
0.000925513
0.000926425
0.000927251
0.000928026
0.000928701
0.000929205
0.000929478
0.000929527
0.000929523
0.000929553
0.000929843
0.000930707
0.000932046
0.000933872
0.000936017
0.000938085
0.000939975
0.000941353
0.000942097
0.000942315
0.000942315
0.000942264
0.000942053
0.000940993
0.000939051
0.000936475
0.000933432
0.000930057
0.000926498
0.000922832
0.00091913
0.00091538
0.000911595
0.000907747
0.000903895
0.000900076
0.000896352
0.000892734
0.000889211
0.000885759
0.000882351
0.000878962
0.000875571
0.000872163
0.000868732
0.000865273
0.000861791
0.000858289
0.000854776
0.000851259
0.000847747
0.000844245
0.000840763
0.000837302
0.00083387
0.000830468
0.000827099
0.000823764
0.000820465
0.000817201
0.000813976
0.000810785
0.000807633
0.000804516
0.000801436
0.00079839
0.00079538
0.000792404
0.000789462
0.000786554
0.000783678
0.000780836
0.000778025
0.000775247
0.0007725
0.000769785
0.0007671
0.000764445
0.000761821
0.000759226
0.00075666
0.000754124
0.000751614
0.000749133
0.000746678
0.000744251
0.000741849
0.000739474
0.000737123
0.0007348
0.000732499
0.000730227
0.000727978
0.000725757
0.00072356
0.00072139
0.000719242
0.000717118
0.000715014
0.000712931
0.000710865
0.000708816
0.000706782
0.000704765
0.000702763
0.000700778
0.00069881
0.000696861
0.000694931
0.000693021
0.000691131
0.000689262
0.00068741
0.000685574
0.000683749
0.000681933
0.000680124
0.00067832
0.000676525
0.000674743
0.000672982
0.000671253
0.000669567
0.000667936
0.000666371
0.00066488
0.00066347
0.000662144
0.000660903
0.000659742
0.000658658
0.000657642
0.000656684
0.000655773
0.000654893
0.00065403
0.000653167
0.000652285
0.000651364
0.000650385
0.000649328
0.000648176
0.000646913
0.000645528
0.000644013
0.000642365
0.000640587
0.000638688
0.00063668
0.000634583
0.000632416
0.000630202
0.000627966
0.00062573
0.000623516
0.000621343
0.000619226
0.000617177
0.000615203
0.00061331
0.000611498
0.000609765
0.000608108
0.00060652
0.000604994
0.000603522
0.000602096
0.000600708
0.00059935
0.000598016
0.000596698
0.000595392
0.000594093
0.000592798
0.000591504
0.000590209
0.000588912
0.000587613
0.000586311
0.000585006
0.0005837
0.000582393
0.000581085
0.000579779
0.000578474
0.000577172
0.000575874
0.000574579
0.00057329
0.000572007
0.00057073
0.000569459
0.000568196
0.00056694
0.000565692
0.000564451
0.000563218
0.000561994
0.000560778
0.000559569
0.00055837
0.000557178
0.000555995
0.000554819
0.000553653
0.000552494
0.000551343
0.000550201
0.000549067
0.000547941
0.000546822
0.000545712
0.00054461
0.000543515
0.000542428
0.000541349
0.000540277
0.000539213
0.000538156
0.000537107
0.000536066
0.000535032
0.000534005
0.000532986
0.000531975
0.000530971
0.000529974
0.000528985
0.000528004
0.000527029
0.000526062
0.000525101
0.000524148
0.0005232
0.000522259
0.000521323
0.000520394
0.000519469
0.000518552
0.000517638
0.000516731
0.000515828
0.000514932
0.00051404
0.000513155
0.000512273
0.000511399
0.000510527
0.000509662
0.000508799
0.000507942
0.000507087
0.000506237
0.000505391
0.000504551
0.000503715
0.000502887
0.000502067
0.000501257
0.00050046
0.000499677
0.000498911
0.000498165
0.000497441
0.00049674
0.000496066
0.000495419
0.0004948
0.00049421
0.00049365
0.000493117
0.000492611
0.000492131
0.000491672
0.000491232
0.000490807
0.000490392
0.000489982
0.000489572
0.000489156
0.000488727
0.000488279
0.000487807
0.000487304
0.000486764
0.000486184
0.000485557
0.000484882
0.000484156
0.000483377
0.000482546
0.000481665
0.000480735
0.000479762
0.000478749
0.000477703
0.000476629
0.000475535
0.000474427
0.000473313
0.000472199
0.000471092
0.000469997
0.000468919
0.000467862
0.000466828
0.000465822
0.000464842
0.000463892
0.00046297
0.000462076
0.000461208
0.000460365
0.000459545
0.000458746
0.000457965
0.000457202
0.000456452
0.000455714
0.000454985
0.000454265
0.000453551
0.000452841
0.000452135
0.00045143
0.000450727
0.000450025
0.000449322
0.00044862
0.000447916
0.000447211
0.000446506
0.0004458
0.000445093
0.000444385
0.000443678
0.00044297
0.000442263
0.000441556
0.000440849
0.000440144
0.000439441
0.000438738
0.000438038
0.00043734
0.000436644
0.00043595
0.000435259
0.000434571
0.000433885
0.000433203
0.000432523
0.000431847
0.000431174
0.000430504
0.000429837
0.000429174
0.000428514
0.000427857
0.000427204
0.000426555
0.000425909
0.000425266
0.000424627
0.000423991
0.000423359
0.00042273
0.000422105
0.000421483
0.000420865
0.00042025
0.000419639
0.000419031
0.000418427
0.000417827
0.00041723
0.000416636
0.000416046
0.00041546
0.000414877
0.000414297
0.000413721
0.000413149
0.000412579
0.000412014
0.000411451
0.000410891
0.000410335
0.000409782
0.000409231
0.000408684
0.000408139
0.000407598
0.000407059
0.000406522
0.000405989
0.000405458
0.000404929
0.000404403
0.000403879
0.000403358
0.000402839
0.000402322
0.000401808
0.000401295
0.000400785
0.000400277
0.000399772
0.000399269
0.000398769
0.000398273
0.000397779
0.00039729
0.000396805
0.000396326
0.000395852
0.000395385
0.000394925
0.000394473
0.00039403
0.000393596
0.000393173
0.000392761
0.000392361
0.000391973
0.000391597
0.000391234
0.000390883
0.000390545
0.000390219
0.000389905
0.000389602
0.000389308
0.000389024
0.000388746
0.000388474
0.000388206
0.000387941
0.000387675
0.000387406
0.000387133
0.000386853
0.000386564
0.000386263
0.000385949
0.000385618
0.000385269
0.000384899
0.000384509
0.000384095
0.000383657
0.000383195
0.000382708
0.000382196
0.00038166
0.000381101
0.00038052
0.000379918
0.000379298
0.000378662
0.000378012
0.00037735
0.00037668
0.000376004
0.000375324
0.000374643
0.000373964
0.000373289
0.000372618
0.000371956
0.000371302
0.000370659
0.000370026
0.000369405
0.000368796
0.0003682
0.000367615
0.000367043
0.000366482
0.000365932
0.000365393
0.000364863
0.000364342
0.000363829
0.000363324
0.000362825
0.000362331
0.000361842
0.000361358
0.000360877
0.000360398
0.000359922
0.000359447
0.000358974
0.000358502
0.00035803
0.000357558
0.000357087
0.000356615
0.000356144
0.000355672
0.0003552
0.000354727
0.000354254
0.000353781
0.000353308
0.000352835
0.000352362
0.000351889
0.000351416
0.000350944
0.000350472
0.000350001
0.00034953
0.00034906
0.000348592
0.000348124
0.000347657
0.000347191
0.000346727
0.000346264
0.000345803
0.000345343
0.000344884
0.000344427
0.000343972
0.000343518
0.000343066
0.000342616
0.000342167
0.00034172
0.000341275
0.000340832
0.00034039
0.000339951
0.000339512
0.000339077
0.000338641
0.00033821
0.000337779
0.000337351
0.000336923
0.000336499
0.000336075
0.000335653
0.000335234
0.000334816
0.0003344
0.000333985
0.000333573
0.000333162
0.000332753
0.000332346
0.00033194
0.000331536
0.000331133
0.000330732
0.000330333
0.000329935
0.000329539
0.000329143
0.00032875
0.000328357
0.000327967
0.000327577
0.000327188
0.000326801
0.000326415
0.00032603
0.000325647
0.000325264
0.000324882
0.000324501
0.000324122
0.000323743
0.000323366
0.00032299
0.000322614
0.00032224
0.000321867
0.000321496
0.000321126
0.000320757
0.00032039
0.000320025
0.000319663
0.000319302
0.000318944
0.000318589
0.000318237
0.000317888
0.000317543
0.000317202
0.000316865
0.000316533
0.000316206
0.000315883
0.000315566
0.000315255
0.000314949
0.000314648
0.000314354
0.000314065
0.000313782
0.000313505
0.000313233
0.000312966
0.000312703
0.000312446
0.000312192
0.000311941
0.000311693
0.000311447
0.000311202
0.000310957
0.000310713
0.000310466
0.000310218
0.000309966
0.00030971
0.000309449
0.000309181
0.000308907
0.000308624
0.000308333
0.000308032
0.000307721
0.0003074
0.000307067
0.000306723
0.000306366
0.000305999
0.00030562
0.000305229
0.000304828
0.000304416
0.000303996
0.000303567
0.000303132
0.000302691
0.000302246
0.000301798
0.00030135
0.000300904
0.00030046
0.000300023
0.000299592
0.000299171
0.000298762
0.000298365
0.000297985
0.000297619
0.000297273
0.000296945
0.000296638
0.00029635
0.000296083
0.000295838
0.000295612
0.000295408
0.000295222
0.000295055
0.000294905
0.000294771
0.000294653
0.000294547
0.000294454
0.00029437
0.000294295
0.000294224
0.000294156
0.000294084
0.000293999
0.000293886
0.000293718
0.000293449
0.000292996
0.000292223
0.000290897
0.000288668
0.000285069
0.000279658
0.000272411
0.000264192
0.00025668
0.000251256
0.000248071
0.000246443
0.000245655
0.00024527
0.000245073
0.000244965
0.0002449
0.000244857
0.000244824
0.000244797
0.000244773
0.00024475
0.000244727
0.000244705
0.000244683
0.000244661
0.000244639
0.000244618
0.000244596
0.000244575
0.000244553
0.000244532
0.000244512
0.000244491
0.000244471
0.000244451
0.000244432
0.000244413
0.000244395
0.000244377
0.000244359
0.000244342
0.000244325
0.000244309
0.000244294
0.000244279
0.000244264
0.000244251
0.000244237
0.000244225
0.000244213
0.000244201
0.000244191
0.000244181
0.000244171
0.000244162
0.000244154
0.000244147
0.00024414
0.000244134
0.000244128
0.000244123
0.000244119
0.000244116
0.000244113
0.000244111
0.00024411
0.000244109
0.000244109
0.000244109
0.000244109
0.00024411
0.000244112
0.000244115
0.000244118
0.000244122
0.000244127
0.000244132
0.000244137
0.000244143
0.00024415
0.000244157
0.000244165
0.000244173
0.000244181
0.00024419
0.0002442
0.00024421
0.00024422
0.000244231
0.000244243
0.000244255
0.000244268
0.000244281
0.000244294
0.000244309
0.000244324
0.000244339
0.000244356
0.000244373
0.000244392
0.000244411
0.000244431
0.000244453
0.000244475
0.000244499
0.000244525
0.000244552
0.00024458
0.000244611
0.000244643
0.000244678
0.000244714
0.000244753
0.000244795
0.000244838
0.000244885
0.000244934
0.000244986
0.000245041
0.000245098
0.000245159
0.000245223
0.000245289
0.000245359
0.000245431
0.000245507
0.000245585
0.000245666
0.000245749
0.000245835
0.000245923
0.000246013
0.000246104
0.000246197
0.00024629
0.000246385
0.000246479
0.000246574
0.000246668
0.000246761
0.000246853
0.000246944
0.000247031
0.000247117
0.000247199
0.000247277
0.000247351
0.000247421
0.000247486
0.000247545
0.000247598
0.000247645
0.000247686
0.00024772
0.000247747
0.000247766
0.000247778
0.000247783
0.000247783
0.000247782
0.000247778
0.000247755
0.000247725
0.000247687
0.000247644
0.000247594
0.000247539
0.000247479
0.000247414
0.000247345
0.000247272
0.000247196
0.000247118
0.000247037
0.000246955
0.000246872
0.000246788
0.000246705
0.000246621
0.000246539
0.000246458
0.000246378
0.0002463
0.000246224
0.000246151
0.00024608
0.000246012
0.000245947
0.000245884
0.000245825
0.000245768
0.000245715
0.000245664
0.000245617
0.000245572
0.000245529
0.000245489
0.000245452
0.000245416
0.000245383
0.000245352
0.000245322
0.000245294
0.000245267
0.000245242
0.000245218
0.000245194
0.000245172
0.00024515
0.000245129
0.000245108
0.000245088
0.000245068
0.000245048
0.000245028
0.000245008
0.000244989
0.000244969
0.00024495
0.00024493
0.00024491
0.00024489
0.00024487
0.00024485
0.000244829
0.000244809
0.000244789
0.000244768
0.000244747
0.000244727
0.000244706
0.000244685
0.000244665
0.000244644
0.000244624
0.000244603
0.000244583
0.000244563
0.000244543
0.000244524
0.000244505
0.000244486
0.000244467
0.000244449
0.000244431
0.000244413
0.000244396
0.00024438
0.000244364
0.000244348
0.000244333
0.000244318
0.000244304
0.00024429
0.000244277
0.000244265
0.000244253
0.000244242
0.000244231
0.000244221
0.000244211
0.000244202
0.000244194
0.000244186
0.000244179
0.000244173
0.000244167
0.000244162
0.000244158
0.000244154
0.000244151
0.000244148
0.000244146
0.000244145
0.000244145
0.000244145
0.000244145
0.000244145
0.000244147
0.000244148
0.000244152
0.000244153
0.000244159
0.000244161
0.000244169
0.000244171
0.0002442
)
;

boundaryField
{
    inlet
    {
        type            calculated;
        value           uniform 0.000236304;
    }
    outlet
    {
        type            calculated;
        value           uniform 0.000244182;
    }
    emptyWalls
    {
        type            empty;
    }
}


// ************************************************************************* //
