/*--------------------------------*- C++ -*----------------------------------*\
  =========                 |
  \\      /  F ield         | OpenFOAM: The Open Source CFD Toolbox
   \\    /   O peration     | Website:  https://openfoam.org
    \\  /    A nd           | Version:  9
     \\/     M anipulation  |
\*---------------------------------------------------------------------------*/
FoamFile
{
    format      ascii;
    class       volScalarField;
    location    "3200";
    object      kra;
}
// * * * * * * * * * * * * * * * * * * * * * * * * * * * * * * * * * * * * * //

dimensions      [0 0 0 0 0 0 0];

internalField   nonuniform List<scalar> 
100
(
4.03604e-05
2.96699e-05
3.21622e-05
3.07033e-05
3.07544e-05
3.03454e-05
3.01401e-05
2.98968e-05
2.96923e-05
2.94952e-05
2.93126e-05
2.91393e-05
2.89749e-05
2.88176e-05
2.86665e-05
2.85205e-05
2.83788e-05
2.82404e-05
2.81043e-05
2.79695e-05
2.78344e-05
2.76971e-05
2.75549e-05
2.74033e-05
2.7335e-05
2.74291e-05
2.74559e-05
2.75038e-05
2.75401e-05
2.75778e-05
2.76123e-05
2.76456e-05
2.76772e-05
2.77074e-05
2.77362e-05
2.77637e-05
2.779e-05
2.7815e-05
2.7839e-05
2.78619e-05
2.78838e-05
2.79046e-05
2.79246e-05
2.79436e-05
2.79617e-05
2.7979e-05
2.79954e-05
2.80109e-05
2.80257e-05
2.80396e-05
2.80527e-05
2.8065e-05
2.80765e-05
2.80872e-05
2.80971e-05
2.81062e-05
2.81145e-05
2.81221e-05
2.81289e-05
2.8135e-05
2.81403e-05
2.81448e-05
2.81486e-05
2.81517e-05
2.8154e-05
2.81556e-05
2.81564e-05
2.81565e-05
2.81559e-05
2.81544e-05
2.81523e-05
2.81493e-05
2.81456e-05
2.8141e-05
2.81356e-05
2.81294e-05
2.81223e-05
2.81142e-05
2.81051e-05
2.80951e-05
2.80839e-05
2.80717e-05
2.80581e-05
2.80433e-05
2.8027e-05
2.8009e-05
2.79892e-05
2.79673e-05
2.79429e-05
2.79156e-05
2.78846e-05
2.78492e-05
2.78078e-05
2.77586e-05
2.76983e-05
2.76215e-05
2.7519e-05
2.73723e-05
2.71412e-05
7.87114e-05
)
;

boundaryField
{
    inlet
    {
        type            calculated;
        value           uniform 1.18853e-05;
    }
    outlet
    {
        type            calculated;
        value           uniform 6.96802e-06;
    }
    emptyWalls
    {
        type            empty;
    }
}


// ************************************************************************* //
