/*--------------------------------*- C++ -*----------------------------------*\
  =========                 |
  \\      /  F ield         | OpenFOAM: The Open Source CFD Toolbox
   \\    /   O peration     | Website:  https://openfoam.org
    \\  /    A nd           | Version:  9
     \\/     M anipulation  |
\*---------------------------------------------------------------------------*/
FoamFile
{
    format      ascii;
    class       volScalarField;
    location    "3200";
    object      p;
}
// * * * * * * * * * * * * * * * * * * * * * * * * * * * * * * * * * * * * * //

dimensions      [0 0 0 0 0 0 0];

internalField   nonuniform List<scalar> 
100
(
6.06605e+06
6.058e+06
6.04705e+06
6.03696e+06
6.0264e+06
6.01586e+06
6.00519e+06
5.99446e+06
5.98364e+06
5.97276e+06
5.96182e+06
5.95082e+06
5.93976e+06
5.92866e+06
5.9175e+06
5.90629e+06
5.89504e+06
5.88374e+06
5.8724e+06
5.86101e+06
5.84959e+06
5.83812e+06
5.82661e+06
5.81506e+06
5.80346e+06
5.79185e+06
5.7803e+06
5.76879e+06
5.75731e+06
5.74586e+06
5.73444e+06
5.72306e+06
5.71171e+06
5.7004e+06
5.68911e+06
5.67785e+06
5.66662e+06
5.65542e+06
5.64425e+06
5.63311e+06
5.622e+06
5.61092e+06
5.59986e+06
5.58884e+06
5.57784e+06
5.56686e+06
5.55592e+06
5.545e+06
5.53411e+06
5.52325e+06
5.51241e+06
5.5016e+06
5.49081e+06
5.48005e+06
5.46932e+06
5.45862e+06
5.44794e+06
5.43729e+06
5.42666e+06
5.41606e+06
5.40548e+06
5.39493e+06
5.38441e+06
5.37392e+06
5.36344e+06
5.353e+06
5.34258e+06
5.33219e+06
5.32183e+06
5.31149e+06
5.30117e+06
5.29089e+06
5.28063e+06
5.2704e+06
5.26019e+06
5.25001e+06
5.23986e+06
5.22974e+06
5.21965e+06
5.20958e+06
5.19955e+06
5.18954e+06
5.17956e+06
5.16962e+06
5.1597e+06
5.14982e+06
5.13998e+06
5.13016e+06
5.12039e+06
5.11065e+06
5.10095e+06
5.0913e+06
5.0817e+06
5.07215e+06
5.06266e+06
5.05325e+06
5.04392e+06
5.03469e+06
5.02562e+06
5.01675e+06
)
;

boundaryField
{
    inlet
    {
        type            darcyGradPressure;
        gradient        uniform 3.97435e+06;
        Mf              Mf;
        phi             phi;
        value           uniform 6.074e+06;
    }
    outlet
    {
        type            fixedValue;
        value           uniform 5e+06;
    }
    emptyWalls
    {
        type            empty;
    }
}


// ************************************************************************* //
