/*--------------------------------*- C++ -*----------------------------------*\
  =========                 |
  \\      /  F ield         | OpenFOAM: The Open Source CFD Toolbox
   \\    /   O peration     | Website:  https://openfoam.org
    \\  /    A nd           | Version:  9
     \\/     M anipulation  |
\*---------------------------------------------------------------------------*/
FoamFile
{
    format      ascii;
    class       surfaceScalarField;
    location    "3200";
    object      phia;
}
// * * * * * * * * * * * * * * * * * * * * * * * * * * * * * * * * * * * * * //

dimensions      [0 2 0 0 0 0 0];

internalField   nonuniform List<scalar> 
99
(
1.42048e-08
1.41964e-08
1.41871e-08
1.41772e-08
1.41669e-08
1.41562e-08
1.4145e-08
1.41335e-08
1.41217e-08
1.41096e-08
1.40972e-08
1.40845e-08
1.40715e-08
1.40582e-08
1.40446e-08
1.40306e-08
1.40163e-08
1.40015e-08
1.39863e-08
1.39705e-08
1.39538e-08
1.39362e-08
1.39171e-08
1.38959e-08
1.38704e-08
1.38482e-08
1.38257e-08
1.3804e-08
1.37822e-08
1.37605e-08
1.37388e-08
1.37169e-08
1.36949e-08
1.36727e-08
1.36503e-08
1.36276e-08
1.36048e-08
1.35816e-08
1.35582e-08
1.35346e-08
1.35107e-08
1.34866e-08
1.34622e-08
1.34376e-08
1.34128e-08
1.33877e-08
1.33623e-08
1.33368e-08
1.33109e-08
1.32848e-08
1.32583e-08
1.32316e-08
1.32046e-08
1.31773e-08
1.31497e-08
1.31218e-08
1.30935e-08
1.30649e-08
1.3036e-08
1.30067e-08
1.29771e-08
1.29471e-08
1.29168e-08
1.2886e-08
1.28549e-08
1.28234e-08
1.27915e-08
1.27591e-08
1.27263e-08
1.2693e-08
1.26592e-08
1.2625e-08
1.25901e-08
1.25547e-08
1.25186e-08
1.24818e-08
1.24443e-08
1.2406e-08
1.23669e-08
1.23267e-08
1.22855e-08
1.22431e-08
1.21994e-08
1.21541e-08
1.21071e-08
1.20581e-08
1.20066e-08
1.19524e-08
1.18947e-08
1.18327e-08
1.17655e-08
1.16916e-08
1.16088e-08
1.15141e-08
1.14027e-08
1.12672e-08
1.10947e-08
1.08619e-08
1.05216e-08
)
;

boundaryField
{
    inlet
    {
        type            calculated;
        value           uniform -1.42126e-08;
    }
    outlet
    {
        type            calculated;
        value           uniform 1.0204e-08;
    }
    emptyWalls
    {
        type            empty;
        value           nonuniform List<scalar> 0();
    }
}


// ************************************************************************* //
