/*--------------------------------*- C++ -*----------------------------------*\
  =========                 |
  \\      /  F ield         | OpenFOAM: The Open Source CFD Toolbox
   \\    /   O peration     | Website:  https://openfoam.org
    \\  /    A nd           | Version:  9
     \\/     M anipulation  |
\*---------------------------------------------------------------------------*/
FoamFile
{
    format      ascii;
    class       surfaceScalarField;
    location    "3200";
    object      phib;
}
// * * * * * * * * * * * * * * * * * * * * * * * * * * * * * * * * * * * * * //

dimensions      [0 2 0 0 0 0 0];

internalField   nonuniform List<scalar> 
99
(
6.09084e-09
6.09048e-09
6.09008e-09
6.08967e-09
6.08922e-09
6.08877e-09
6.0883e-09
6.08781e-09
6.08731e-09
6.0868e-09
6.08627e-09
6.08573e-09
6.08519e-09
6.08462e-09
6.08405e-09
6.08346e-09
6.08286e-09
6.08224e-09
6.08161e-09
6.08094e-09
6.08025e-09
6.07951e-09
6.07871e-09
6.07781e-09
6.07918e-09
6.07962e-09
6.08041e-09
6.08106e-09
6.08178e-09
6.08248e-09
6.0832e-09
6.08395e-09
6.08472e-09
6.08553e-09
6.08637e-09
6.08727e-09
6.0882e-09
6.08918e-09
6.09019e-09
6.09122e-09
6.09228e-09
6.09334e-09
6.09441e-09
6.09548e-09
6.09655e-09
6.09762e-09
6.0987e-09
6.09979e-09
6.10089e-09
6.10201e-09
6.10315e-09
6.10432e-09
6.10552e-09
6.10675e-09
6.10801e-09
6.10932e-09
6.11066e-09
6.11204e-09
6.11347e-09
6.11493e-09
6.11644e-09
6.11798e-09
6.11956e-09
6.12118e-09
6.12284e-09
6.12453e-09
6.12625e-09
6.12801e-09
6.12981e-09
6.13164e-09
6.13351e-09
6.13543e-09
6.1374e-09
6.13941e-09
6.14149e-09
6.14363e-09
6.14583e-09
6.14812e-09
6.15048e-09
6.15294e-09
6.1555e-09
6.15817e-09
6.16097e-09
6.1639e-09
6.167e-09
6.17027e-09
6.17375e-09
6.17749e-09
6.18152e-09
6.18592e-09
6.19079e-09
6.19626e-09
6.20254e-09
6.20991e-09
6.21886e-09
6.23018e-09
6.2453e-09
6.26706e-09
6.30176e-09
)
;

boundaryField
{
    inlet
    {
        type            calculated;
        value           uniform -6.09112e-09;
    }
    outlet
    {
        type            calculated;
        value           uniform 6.31585e-09;
    }
    emptyWalls
    {
        type            empty;
        value           nonuniform List<scalar> 0();
    }
}


// ************************************************************************* //
