/*--------------------------------*- C++ -*----------------------------------*\
  =========                 |
  \\      /  F ield         | OpenFOAM: The Open Source CFD Toolbox
   \\    /   O peration     | Website:  https://openfoam.org
    \\  /    A nd           | Version:  9
     \\/     M anipulation  |
\*---------------------------------------------------------------------------*/
FoamFile
{
    format      ascii;
    class       surfaceScalarField;
    location    "3200";
    object      phic;
}
// * * * * * * * * * * * * * * * * * * * * * * * * * * * * * * * * * * * * * //

dimensions      [0 2 0 0 0 0 0];

internalField   nonuniform List<scalar> 
99
(
8.13664e-12
1.6874e-11
2.65767e-11
3.68216e-11
4.75963e-11
5.88051e-11
7.0412e-11
8.23809e-11
9.46889e-11
1.07319e-10
1.20261e-10
1.33509e-10
1.47063e-10
1.6093e-10
1.75124e-10
1.89667e-10
2.04594e-10
2.19958e-10
2.35836e-10
2.52343e-10
2.69653e-10
2.88034e-10
3.07921e-10
3.3005e-10
3.54176e-10
3.75941e-10
3.97594e-10
4.18711e-10
4.39754e-10
4.60727e-10
4.81751e-10
5.02861e-10
5.24101e-10
5.45496e-10
5.67066e-10
5.88825e-10
6.10784e-10
6.32951e-10
6.55333e-10
6.77937e-10
7.00766e-10
7.23826e-10
7.47119e-10
7.70648e-10
7.94418e-10
8.18431e-10
8.4269e-10
8.67198e-10
8.91958e-10
9.16974e-10
9.42248e-10
9.67784e-10
9.93587e-10
1.01966e-09
1.04601e-09
1.07264e-09
1.09955e-09
1.12676e-09
1.15426e-09
1.18207e-09
1.21019e-09
1.23863e-09
1.2674e-09
1.29651e-09
1.32598e-09
1.35581e-09
1.38601e-09
1.41662e-09
1.44763e-09
1.47907e-09
1.51097e-09
1.54335e-09
1.57624e-09
1.60966e-09
1.64366e-09
1.67828e-09
1.71356e-09
1.74957e-09
1.78638e-09
1.82406e-09
1.8627e-09
1.90243e-09
1.94337e-09
1.9857e-09
2.02962e-09
2.0754e-09
2.12334e-09
2.17388e-09
2.22755e-09
2.28507e-09
2.3474e-09
2.41588e-09
2.4924e-09
2.57975e-09
2.68215e-09
2.80635e-09
2.96371e-09
3.17481e-09
3.4804e-09
)
;

boundaryField
{
    inlet
    {
        type            calculated;
        value           uniform 0;
    }
    outlet
    {
        type            calculated;
        value           uniform 3.78387e-09;
    }
    emptyWalls
    {
        type            empty;
        value           nonuniform List<scalar> 0();
    }
}


// ************************************************************************* //
