/*--------------------------------*- C++ -*----------------------------------*\
  =========                 |
  \\      /  F ield         | OpenFOAM: The Open Source CFD Toolbox
   \\    /   O peration     | Website:  https://openfoam.org
    \\  /    A nd           | Version:  9
     \\/     M anipulation  |
\*---------------------------------------------------------------------------*/
FoamFile
{
    format      ascii;
    class       volVectorField;
    location    "3200";
    object      Ua;
}
// * * * * * * * * * * * * * * * * * * * * * * * * * * * * * * * * * * * * * //

dimensions      [0 0 0 0 0 0 0];

internalField   nonuniform List<vector> 
100
(
(0 0 8.9385e-06)
(0 0 1.13005e-05)
(0 0 1.12934e-05)
(0 0 1.12858e-05)
(0 0 1.12778e-05)
(0 0 1.12694e-05)
(0 0 1.12607e-05)
(0 0 1.12517e-05)
(0 0 1.12424e-05)
(0 0 1.12329e-05)
(0 0 1.12231e-05)
(0 0 1.12131e-05)
(0 0 1.12029e-05)
(0 0 1.11924e-05)
(0 0 1.11817e-05)
(0 0 1.11708e-05)
(0 0 1.11595e-05)
(0 0 1.11479e-05)
(0 0 1.1136e-05)
(0 0 1.11236e-05)
(0 0 1.11107e-05)
(0 0 1.10971e-05)
(0 0 1.10825e-05)
(0 0 1.10664e-05)
(0 0 1.10478e-05)
(0 0 1.10289e-05)
(0 0 1.10111e-05)
(0 0 1.09935e-05)
(0 0 1.09762e-05)
(0 0 1.09589e-05)
(0 0 1.09416e-05)
(0 0 1.09243e-05)
(0 0 1.09068e-05)
(0 0 1.08892e-05)
(0 0 1.08715e-05)
(0 0 1.08535e-05)
(0 0 1.08354e-05)
(0 0 1.08171e-05)
(0 0 1.07986e-05)
(0 0 1.07799e-05)
(0 0 1.0761e-05)
(0 0 1.07419e-05)
(0 0 1.07226e-05)
(0 0 1.07031e-05)
(0 0 1.06834e-05)
(0 0 1.06636e-05)
(0 0 1.06435e-05)
(0 0 1.06232e-05)
(0 0 1.06028e-05)
(0 0 1.05821e-05)
(0 0 1.05612e-05)
(0 0 1.054e-05)
(0 0 1.05187e-05)
(0 0 1.0497e-05)
(0 0 1.04752e-05)
(0 0 1.04531e-05)
(0 0 1.04307e-05)
(0 0 1.04081e-05)
(0 0 1.03852e-05)
(0 0 1.03621e-05)
(0 0 1.03386e-05)
(0 0 1.03149e-05)
(0 0 1.02909e-05)
(0 0 1.02666e-05)
(0 0 1.0242e-05)
(0 0 1.02171e-05)
(0 0 1.01918e-05)
(0 0 1.01663e-05)
(0 0 1.01403e-05)
(0 0 1.0114e-05)
(0 0 1.00873e-05)
(0 0 1.00603e-05)
(0 0 1.00328e-05)
(0 0 1.00048e-05)
(0 0 9.97633e-06)
(0 0 9.94735e-06)
(0 0 9.91781e-06)
(0 0 9.88765e-06)
(0 0 9.85683e-06)
(0 0 9.82528e-06)
(0 0 9.79291e-06)
(0 0 9.75965e-06)
(0 0 9.72537e-06)
(0 0 9.68996e-06)
(0 0 9.65324e-06)
(0 0 9.61502e-06)
(0 0 9.57504e-06)
(0 0 9.53299e-06)
(0 0 9.48843e-06)
(0 0 9.44084e-06)
(0 0 9.38946e-06)
(0 0 9.3333e-06)
(0 0 9.27093e-06)
(0 0 9.2003e-06)
(0 0 9.11831e-06)
(0 0 9.02008e-06)
(0 0 8.89753e-06)
(0 0 8.73625e-06)
(0 0 8.5082e-06)
(0 0 8.24645e-06)
)
;

boundaryField
{
    inlet
    {
        type            fixedValue;
        value           uniform (0 0 1.131e-05);
    }
    outlet
    {
        type            zeroGradient;
    }
    emptyWalls
    {
        type            empty;
    }
}


// ************************************************************************* //
