/*--------------------------------*- C++ -*----------------------------------*\
  =========                 |
  \\      /  F ield         | OpenFOAM: The Open Source CFD Toolbox
   \\    /   O peration     | Website:  https://openfoam.org
    \\  /    A nd           | Version:  9
     \\/     M anipulation  |
\*---------------------------------------------------------------------------*/
FoamFile
{
    format      ascii;
    class       volVectorField;
    location    "3200";
    object      Ub;
}
// * * * * * * * * * * * * * * * * * * * * * * * * * * * * * * * * * * * * * //

dimensions      [0 0 0 0 0 0 0];

internalField   nonuniform List<vector> 
100
(
(0 0 7.20907e-06)
(0 0 4.84679e-06)
(0 0 4.84649e-06)
(0 0 4.84617e-06)
(0 0 4.84583e-06)
(0 0 4.84547e-06)
(0 0 4.8451e-06)
(0 0 4.84472e-06)
(0 0 4.84433e-06)
(0 0 4.84392e-06)
(0 0 4.84351e-06)
(0 0 4.84309e-06)
(0 0 4.84265e-06)
(0 0 4.84221e-06)
(0 0 4.84176e-06)
(0 0 4.8413e-06)
(0 0 4.84083e-06)
(0 0 4.84034e-06)
(0 0 4.83984e-06)
(0 0 4.83932e-06)
(0 0 4.83878e-06)
(0 0 4.83821e-06)
(0 0 4.8376e-06)
(0 0 4.83692e-06)
(0 0 4.83711e-06)
(0 0 4.83783e-06)
(0 0 4.83832e-06)
(0 0 4.8389e-06)
(0 0 4.83944e-06)
(0 0 4.84e-06)
(0 0 4.84057e-06)
(0 0 4.84116e-06)
(0 0 4.84176e-06)
(0 0 4.84239e-06)
(0 0 4.84305e-06)
(0 0 4.84374e-06)
(0 0 4.84446e-06)
(0 0 4.84522e-06)
(0 0 4.84601e-06)
(0 0 4.84683e-06)
(0 0 4.84766e-06)
(0 0 4.8485e-06)
(0 0 4.84935e-06)
(0 0 4.8502e-06)
(0 0 4.85105e-06)
(0 0 4.85191e-06)
(0 0 4.85276e-06)
(0 0 4.85362e-06)
(0 0 4.85449e-06)
(0 0 4.85538e-06)
(0 0 4.85628e-06)
(0 0 4.8572e-06)
(0 0 4.85814e-06)
(0 0 4.8591e-06)
(0 0 4.8601e-06)
(0 0 4.86112e-06)
(0 0 4.86217e-06)
(0 0 4.86326e-06)
(0 0 4.86438e-06)
(0 0 4.86553e-06)
(0 0 4.86671e-06)
(0 0 4.86792e-06)
(0 0 4.86916e-06)
(0 0 4.87044e-06)
(0 0 4.87174e-06)
(0 0 4.87307e-06)
(0 0 4.87443e-06)
(0 0 4.87582e-06)
(0 0 4.87723e-06)
(0 0 4.87868e-06)
(0 0 4.88015e-06)
(0 0 4.88166e-06)
(0 0 4.8832e-06)
(0 0 4.88479e-06)
(0 0 4.88641e-06)
(0 0 4.88809e-06)
(0 0 4.88982e-06)
(0 0 4.89161e-06)
(0 0 4.89346e-06)
(0 0 4.89538e-06)
(0 0 4.89737e-06)
(0 0 4.89946e-06)
(0 0 4.90163e-06)
(0 0 4.90391e-06)
(0 0 4.90631e-06)
(0 0 4.90884e-06)
(0 0 4.91153e-06)
(0 0 4.9144e-06)
(0 0 4.91749e-06)
(0 0 4.92085e-06)
(0 0 4.92454e-06)
(0 0 4.92865e-06)
(0 0 4.93333e-06)
(0 0 4.93875e-06)
(0 0 4.94525e-06)
(0 0 4.95331e-06)
(0 0 4.96384e-06)
(0 0 4.97851e-06)
(0 0 5.00097e-06)
(0 0 5.02039e-06)
)
;

boundaryField
{
    inlet
    {
        type            fixedValue;
        value           uniform (0 0 4.84716e-06);
    }
    outlet
    {
        type            zeroGradient;
    }
    emptyWalls
    {
        type            empty;
    }
}


// ************************************************************************* //
