/*--------------------------------*- C++ -*----------------------------------*\
  =========                 |
  \\      /  F ield         | OpenFOAM: The Open Source CFD Toolbox
   \\    /   O peration     | Website:  https://openfoam.org
    \\  /    A nd           | Version:  9
     \\/     M anipulation  |
\*---------------------------------------------------------------------------*/
FoamFile
{
    format      ascii;
    class       volVectorField;
    location    "3200";
    object      Uc;
}
// * * * * * * * * * * * * * * * * * * * * * * * * * * * * * * * * * * * * * //

dimensions      [0 0 0 0 0 0 0];

internalField   nonuniform List<vector> 
100
(
(0 0 9.63047e-09)
(0 0 9.95142e-09)
(0 0 1.72885e-08)
(0 0 2.52254e-08)
(0 0 3.35888e-08)
(0 0 4.23358e-08)
(0 0 5.14138e-08)
(0 0 6.07943e-08)
(0 0 7.04538e-08)
(0 0 8.03765e-08)
(0 0 9.05512e-08)
(0 0 1.00972e-07)
(0 0 1.11636e-07)
(0 0 1.22547e-07)
(0 0 1.33712e-07)
(0 0 1.45145e-07)
(0 0 1.56871e-07)
(0 0 1.68924e-07)
(0 0 1.81355e-07)
(0 0 1.9424e-07)
(0 0 2.07696e-07)
(0 0 2.21897e-07)
(0 0 2.37123e-07)
(0 0 2.53841e-07)
(0 0 2.72245e-07)
(0 0 2.90504e-07)
(0 0 3.0778e-07)
(0 0 3.24797e-07)
(0 0 3.41572e-07)
(0 0 3.5829e-07)
(0 0 3.75e-07)
(0 0 3.91765e-07)
(0 0 4.08615e-07)
(0 0 4.25579e-07)
(0 0 4.42675e-07)
(0 0 4.59914e-07)
(0 0 4.77309e-07)
(0 0 4.94866e-07)
(0 0 5.12592e-07)
(0 0 5.30491e-07)
(0 0 5.48569e-07)
(0 0 5.66827e-07)
(0 0 5.8527e-07)
(0 0 6.039e-07)
(0 0 6.2272e-07)
(0 0 6.41732e-07)
(0 0 6.60939e-07)
(0 0 6.80343e-07)
(0 0 6.99946e-07)
(0 0 7.19751e-07)
(0 0 7.39761e-07)
(0 0 7.59978e-07)
(0 0 7.80405e-07)
(0 0 8.01046e-07)
(0 0 8.21904e-07)
(0 0 8.42983e-07)
(0 0 8.64287e-07)
(0 0 8.8582e-07)
(0 0 9.07587e-07)
(0 0 9.29595e-07)
(0 0 9.51848e-07)
(0 0 9.74353e-07)
(0 0 9.97117e-07)
(0 0 1.02015e-06)
(0 0 1.04345e-06)
(0 0 1.06705e-06)
(0 0 1.09093e-06)
(0 0 1.11513e-06)
(0 0 1.13965e-06)
(0 0 1.1645e-06)
(0 0 1.1897e-06)
(0 0 1.21528e-06)
(0 0 1.24124e-06)
(0 0 1.26763e-06)
(0 0 1.29445e-06)
(0 0 1.32176e-06)
(0 0 1.34957e-06)
(0 0 1.37794e-06)
(0 0 1.40691e-06)
(0 0 1.43655e-06)
(0 0 1.46691e-06)
(0 0 1.4981e-06)
(0 0 1.53019e-06)
(0 0 1.56333e-06)
(0 0 1.59765e-06)
(0 0 1.63334e-06)
(0 0 1.67062e-06)
(0 0 1.70981e-06)
(0 0 1.75127e-06)
(0 0 1.79551e-06)
(0 0 1.8432e-06)
(0 0 1.89525e-06)
(0 0 1.95294e-06)
(0 0 2.01815e-06)
(0 0 2.09365e-06)
(0 0 2.18381e-06)
(0 0 2.29583e-06)
(0 0 2.44244e-06)
(0 0 2.64802e-06)
(0 0 2.89036e-06)
)
;

boundaryField
{
    inlet
    {
        type            fixedValue;
        value           uniform (0 0 0);
    }
    outlet
    {
        type            zeroGradient;
    }
    emptyWalls
    {
        type            empty;
    }
}


// ************************************************************************* //
