/*--------------------------------*- C++ -*----------------------------------*\
  =========                 |
  \\      /  F ield         | OpenFOAM: The Open Source CFD Toolbox
   \\    /   O peration     | Website:  https://openfoam.org
    \\  /    A nd           | Version:  9
     \\/     M anipulation  |
\*---------------------------------------------------------------------------*/
FoamFile
{
    format      ascii;
    class       volScalarField;
    location    "25000";
    object      Fb;
}
// * * * * * * * * * * * * * * * * * * * * * * * * * * * * * * * * * * * * * //

dimensions      [0 0 0 0 0 0 0];

internalField   nonuniform List<scalar> 
1000
(
0.805242
0.805146
0.805254
0.805152
0.805255
0.805189
0.805247
0.80524
0.805254
0.805274
0.805283
0.805295
0.80532
0.805334
0.805361
0.805392
0.805407
0.805459
0.805449
0.805539
0.805488
0.805617
0.805541
0.805661
0.805609
0.80568
0.805669
0.805706
0.805712
0.805739
0.80575
0.805776
0.80582
0.806005
0.80699
0.815491
0.830807
0.83323
0.834066
0.834508
0.834804
0.835032
0.83522
0.835383
0.835525
0.835652
0.835767
0.835871
0.835964
0.836049
0.836124
0.836191
0.836252
0.836306
0.836357
0.836401
0.836443
0.836474
0.836497
0.836518
0.836528
0.836535
0.836549
0.836558
0.836567
0.836584
0.836595
0.836599
0.836585
0.836572
0.836544
0.836522
0.836484
0.836459
0.836441
0.83643
0.836425
0.836419
0.836405
0.836376
0.836324
0.836243
0.836136
0.83601
0.835796
0.835508
0.835209
0.834901
0.834597
0.834322
0.834094
0.833881
0.833655
0.833435
0.833217
0.833018
0.832847
0.832711
0.83261
0.83254
0.832498
0.832474
0.832457
0.832436
0.832401
0.832346
0.832266
0.832156
0.832017
0.831849
0.831653
0.831433
0.831192
0.830934
0.830663
0.830384
0.830099
0.829812
0.829525
0.82924
0.828957
0.828679
0.828404
0.828134
0.827866
0.827601
0.827339
0.827079
0.826819
0.826561
0.826303
0.826044
0.825786
0.825527
0.825268
0.825007
0.824746
0.824484
0.824221
0.823956
0.823691
0.823424
0.823156
0.822887
0.822616
0.822345
0.822072
0.821797
0.821522
0.821245
0.820966
0.820686
0.820405
0.820123
0.81984
0.819555
0.819269
0.818982
0.818694
0.818405
0.818114
0.817821
0.817528
0.817232
0.816935
0.816636
0.816336
0.816035
0.815733
0.81543
0.815126
0.814822
0.814518
0.814213
0.813908
0.813602
0.813295
0.812987
0.812677
0.812366
0.812053
0.811738
0.811423
0.811106
0.810789
0.810471
0.810154
0.809838
0.809524
0.80921
0.808898
0.808586
0.808272
0.807955
0.807633
0.807304
0.806967
0.806618
0.806257
0.805883
0.805497
0.805097
0.804686
0.804263
0.80383
0.80339
0.802944
0.802495
0.802045
0.801597
0.801154
0.80072
0.800297
0.799888
0.799497
0.799125
0.798775
0.798448
0.798143
0.797862
0.797601
0.79736
0.797136
0.796925
0.796724
0.796529
0.796337
0.796145
0.795948
0.795746
0.795535
0.795314
0.795083
0.79484
0.794586
0.794322
0.794047
0.793764
0.793472
0.793174
0.79287
0.792561
0.79225
0.791936
0.79162
0.791304
0.790987
0.790671
0.790355
0.790041
0.789727
0.789415
0.789103
0.788793
0.788483
0.788175
0.787867
0.78756
0.787253
0.786946
0.786639
0.786333
0.786026
0.785719
0.785411
0.785103
0.784795
0.784486
0.784176
0.783866
0.783555
0.783243
0.782931
0.782617
0.782303
0.781988
0.781672
0.781355
0.781037
0.780719
0.780399
0.780079
0.779758
0.779436
0.779113
0.778789
0.778464
0.778139
0.777812
0.777484
0.777156
0.776826
0.776495
0.776164
0.775831
0.775498
0.775164
0.774829
0.774493
0.774157
0.77382
0.773482
0.773144
0.772805
0.772465
0.772125
0.771784
0.771442
0.7711
0.770757
0.770413
0.770068
0.769723
0.769377
0.769031
0.768685
0.768338
0.767991
0.767644
0.767297
0.76695
0.766602
0.766254
0.765904
0.765554
0.765201
0.764845
0.764487
0.764125
0.763758
0.763386
0.763009
0.762625
0.762236
0.76184
0.761437
0.761029
0.760613
0.760193
0.759767
0.759337
0.758903
0.758467
0.758029
0.757592
0.757156
0.756722
0.756292
0.755868
0.755451
0.755042
0.754643
0.754254
0.753875
0.753509
0.753155
0.752812
0.752482
0.752163
0.751854
0.751555
0.751264
0.75098
0.750701
0.750427
0.750154
0.749883
0.749612
0.749339
0.749063
0.748783
0.748499
0.748211
0.747917
0.747617
0.747312
0.747002
0.746687
0.746366
0.746042
0.745713
0.74538
0.745045
0.744706
0.744366
0.744023
0.74368
0.743335
0.742989
0.742643
0.742296
0.74195
0.741603
0.741257
0.740911
0.740565
0.740219
0.739874
0.739529
0.739184
0.738839
0.738494
0.73815
0.737805
0.73746
0.737115
0.73677
0.736425
0.736079
0.735733
0.735387
0.73504
0.734693
0.734345
0.733997
0.733648
0.733298
0.732948
0.732597
0.732245
0.731893
0.73154
0.731186
0.730832
0.730477
0.730121
0.729764
0.729407
0.729048
0.728689
0.72833
0.727969
0.727608
0.727246
0.726883
0.726519
0.726154
0.725789
0.725423
0.725056
0.724688
0.72432
0.723951
0.723582
0.723211
0.72284
0.722468
0.722096
0.721723
0.721349
0.720975
0.7206
0.720225
0.719849
0.719472
0.719095
0.718717
0.718339
0.71796
0.717581
0.717201
0.716821
0.716441
0.71606
0.715678
0.715296
0.714914
0.71453
0.714146
0.713761
0.713374
0.712986
0.712596
0.712204
0.71181
0.711414
0.711015
0.710612
0.710207
0.709798
0.709385
0.708969
0.708549
0.708125
0.707697
0.707266
0.706831
0.706393
0.705953
0.705509
0.705064
0.704617
0.704169
0.70372
0.703272
0.702825
0.702379
0.701935
0.701494
0.701057
0.700624
0.700196
0.699774
0.699357
0.698946
0.698542
0.698145
0.697754
0.69737
0.696993
0.696622
0.696258
0.695898
0.695544
0.695194
0.694848
0.694505
0.694165
0.693826
0.693487
0.693149
0.692811
0.692472
0.692131
0.691788
0.691443
0.691095
0.690745
0.690391
0.690034
0.689675
0.689312
0.688946
0.688577
0.688206
0.687832
0.687456
0.687077
0.686697
0.686315
0.685931
0.685546
0.68516
0.684773
0.684385
0.683996
0.683607
0.683217
0.682827
0.682436
0.682046
0.681655
0.681264
0.680873
0.680481
0.68009
0.679698
0.679306
0.678914
0.678521
0.678129
0.677736
0.677343
0.676949
0.676555
0.676161
0.675766
0.67537
0.674974
0.674578
0.674181
0.673783
0.673385
0.672986
0.672587
0.672187
0.671786
0.671384
0.670982
0.670579
0.670175
0.66977
0.669365
0.668959
0.668552
0.668144
0.667736
0.667327
0.666917
0.666506
0.666094
0.665682
0.665268
0.664854
0.664439
0.664024
0.663607
0.66319
0.662772
0.662353
0.661933
0.661513
0.661092
0.66067
0.660247
0.659824
0.6594
0.658975
0.65855
0.658124
0.657697
0.657269
0.656841
0.656412
0.655983
0.655553
0.655122
0.654691
0.654259
0.653826
0.653393
0.652959
0.652524
0.652089
0.651653
0.651216
0.650777
0.650338
0.649898
0.649457
0.649014
0.64857
0.648124
0.647677
0.647228
0.646777
0.646323
0.645868
0.64541
0.64495
0.644488
0.644023
0.643556
0.643086
0.642613
0.642139
0.641661
0.641182
0.6407
0.640216
0.639731
0.639244
0.638755
0.638266
0.637776
0.637285
0.636794
0.636303
0.635813
0.635324
0.634836
0.63435
0.633865
0.633383
0.632903
0.632426
0.631953
0.631483
0.631016
0.630553
0.630093
0.629638
0.629186
0.628738
0.628294
0.627853
0.627415
0.626981
0.626549
0.62612
0.625692
0.625267
0.624843
0.62442
0.623997
0.623575
0.623153
0.622731
0.622307
0.621883
0.621458
0.621031
0.620602
0.620171
0.619739
0.619304
0.618868
0.618429
0.617988
0.617545
0.6171
0.616653
0.616204
0.615753
0.6153
0.614845
0.614389
0.613931
0.613472
0.613012
0.61255
0.612087
0.611623
0.611158
0.610693
0.610226
0.609758
0.60929
0.608821
0.608351
0.607881
0.60741
0.606938
0.606466
0.605993
0.605519
0.605045
0.60457
0.604094
0.603618
0.603141
0.602663
0.602185
0.601706
0.601226
0.600745
0.600264
0.599781
0.599298
0.598814
0.598329
0.597843
0.597356
0.596868
0.59638
0.59589
0.595399
0.594908
0.594415
0.593921
0.593427
0.592931
0.592434
0.591936
0.591437
0.590938
0.590437
0.589934
0.589431
0.588927
0.588422
0.587915
0.587407
0.586899
0.586389
0.585878
0.585366
0.584853
0.584339
0.583824
0.583307
0.58279
0.582271
0.581752
0.581231
0.580709
0.580186
0.579662
0.579137
0.578611
0.578084
0.577555
0.577026
0.576495
0.575964
0.575431
0.574898
0.574363
0.573827
0.57329
0.572751
0.572212
0.571672
0.57113
0.570587
0.570042
0.569497
0.56895
0.568401
0.567851
0.5673
0.566747
0.566192
0.565636
0.565078
0.564517
0.563955
0.563391
0.562825
0.562257
0.561687
0.561114
0.56054
0.559963
0.559383
0.558802
0.558218
0.557632
0.557044
0.556453
0.55586
0.555266
0.554669
0.55407
0.55347
0.552868
0.552264
0.551659
0.551053
0.550445
0.549837
0.549228
0.548618
0.548008
0.547397
0.546787
0.546176
0.545566
0.544957
0.544348
0.543739
0.543132
0.542525
0.54192
0.541316
0.540713
0.540111
0.53951
0.538911
0.538313
0.537716
0.53712
0.536526
0.535931
0.535339
0.534745
0.534154
0.533561
0.53297
0.532377
0.531786
0.531191
0.530599
0.530002
0.529408
0.528808
0.528212
0.527609
0.527009
0.526401
0.525798
0.525186
0.524578
0.52396
0.523348
0.522725
0.522108
0.52148
0.520857
0.520224
0.519596
0.518958
0.518325
0.517681
0.517043
0.516395
0.515751
0.515098
0.514449
0.513792
0.513138
0.512476
0.511818
0.511152
0.510488
0.509819
0.50915
0.508477
0.507803
0.507126
0.506448
0.505767
0.505084
0.504399
0.503712
0.503023
0.502331
0.501638
0.500942
0.500245
0.499545
0.498843
0.498139
0.497432
0.496723
0.496013
0.4953
0.494585
0.493868
0.493148
0.492427
0.491703
0.490978
0.49025
0.48952
0.488789
0.488055
0.48732
0.486583
0.485844
0.485104
0.484362
0.483619
0.482875
0.48213
0.481385
0.480639
0.479894
0.479148
0.478404
0.47766
0.476918
0.476178
0.475441
0.474708
0.47398
0.473256
0.472538
0.471828
0.471127
0.470435
0.469755
0.469086
0.468432
0.467793
0.467171
0.466569
0.465986
0.465426
0.464888
0.464375
0.463887
0.463427
0.462994
0.46259
0.462213
0.461866
0.461544
0.461253
0.460987
0.460748
0.460534
0.460343
0.460172
0.460024
0.459892
0.45978
0.45968
0.4596
0.459519
0.459466
0.459402
0.459367
0.459319
0.459294
0.459256
0.459237
0.459204
0.459186
0.459146
0.459123
0.459046
0.459004
0.45879
0.45869
0.458027
0.457743
0.456041
0.455045
0.0152091
)
;

boundaryField
{
    inlet
    {
        type            calculated;
        value           uniform 0.805169;
    }
    outlet
    {
        type            calculated;
        value           uniform 0.497187;
    }
    emptyWalls
    {
        type            empty;
    }
}


// ************************************************************************* //
