/*--------------------------------*- C++ -*----------------------------------*\
  =========                 |
  \\      /  F ield         | OpenFOAM: The Open Source CFD Toolbox
   \\    /   O peration     | Website:  https://openfoam.org
    \\  /    A nd           | Version:  9
     \\/     M anipulation  |
\*---------------------------------------------------------------------------*/
FoamFile
{
    format      ascii;
    class       volScalarField;
    location    "25000";
    object      p;
}
// * * * * * * * * * * * * * * * * * * * * * * * * * * * * * * * * * * * * * //

dimensions      [0 0 0 0 0 0 0];

internalField   nonuniform List<scalar> 
1000
(
169668
169242
168818
168396
167976
167558
167142
166727
166315
165904
165496
165089
164684
164281
163880
163481
163084
162689
162296
161904
161514
161126
160740
160355
159971
159588
159206
158826
158446
158067
157689
157311
156935
156564
156209
155915
155777
155681
155592
155505
155420
155335
155251
155166
155083
154999
154916
154832
154749
154667
154584
154501
154419
154337
154254
154172
154090
154008
153926
153844
153762
153680
153599
153517
153435
153353
153272
153190
153108
153027
152945
152864
152782
152700
152619
152537
152456
152374
152292
152211
152129
152047
151965
151884
151802
151720
151638
151556
151474
151392
151310
151228
151146
151064
150982
150899
150817
150734
150651
150568
150485
150401
150317
150233
150149
150064
149979
149894
149808
149723
149637
149551
149464
149377
149290
149203
149116
149028
148940
148852
148763
148675
148586
148497
148407
148317
148227
148137
148047
147956
147865
147774
147683
147591
147499
147407
147315
147222
147129
147036
146943
146849
146755
146661
146567
146472
146377
146282
146187
146092
145996
145900
145804
145707
145611
145514
145417
145319
145222
145124
145026
144928
144829
144730
144632
144532
144433
144333
144234
144133
144033
143933
143832
143731
143630
143528
143427
143325
143223
143121
143018
142915
142812
142709
142606
142502
142398
142294
142190
142086
141981
141876
141771
141666
141560
141455
141349
141243
141136
141030
140923
140816
140709
140601
140494
140386
140278
140170
140061
139953
139844
139735
139626
139517
139407
139297
139188
139077
138967
138856
138746
138635
138524
138412
138301
138189
138077
137964
137852
137739
137626
137513
137400
137286
137173
137059
136944
136830
136716
136601
136486
136371
136255
136140
136024
135908
135792
135675
135559
135442
135325
135208
135091
134973
134855
134737
134619
134501
134382
134264
134145
134026
133906
133787
133667
133547
133427
133307
133186
133066
132945
132824
132702
132581
132459
132337
132215
132093
131971
131848
131725
131602
131479
131356
131232
131108
130984
130860
130736
130611
130487
130362
130237
130112
129986
129860
129735
129609
129482
129356
129229
129103
128976
128849
128721
128594
128466
128338
128210
128082
127954
127825
127696
127567
127438
127309
127179
127050
126920
126790
126660
126529
126399
126268
126137
126006
125874
125743
125611
125479
125347
125215
125083
124950
124818
124685
124552
124418
124285
124151
124018
123884
123750
123615
123481
123346
123212
123077
122942
122806
122671
122536
122400
122264
122128
121992
121855
121718
121582
121445
121308
121170
121033
120895
120757
120619
120481
120342
120204
120065
119926
119787
119647
119508
119368
119228
119088
118948
118807
118667
118526
118385
118244
118102
117961
117819
117677
117535
117393
117251
117108
116965
116823
116680
116536
116393
116249
116106
115962
115817
115673
115529
115384
115239
115094
114949
114804
114658
114513
114367
114221
114075
113928
113782
113635
113488
113341
113194
113047
112899
112752
112604
112456
112307
112159
112010
111862
111713
111564
111415
111265
111116
110966
110816
110666
110516
110365
110215
110064
109913
109762
109611
109459
109308
109156
109004
108852
108700
108547
108395
108242
108089
107936
107783
107629
107476
107322
107168
107014
106860
106705
106551
106396
106241
106086
105931
105776
105620
105464
105309
105153
104996
104840
104684
104527
104370
104213
104056
103899
103741
103584
103426
103268
103110
102951
102793
102635
102476
102317
102158
101999
101839
101680
101520
101361
101201
101041
100880
100720
100559
100399
100238
100077
99915.8
99754.5
99593
99431.4
99269.6
99107.6
98945.5
98783.3
98620.8
98458.2
98295.5
98132.5
97969.4
97806.2
97642.7
97479.1
97315.3
97151.4
96987.3
96823
96658.5
96493.9
96329.1
96164.1
95999
95833.7
95668.2
95502.6
95336.8
95170.8
95004.7
94838.4
94671.9
94505.3
94338.5
94171.6
94004.5
93837.2
93669.8
93502.2
93334.4
93166.5
92998.4
92830.2
92661.8
92493.2
92324.5
92155.6
91986.5
91817.3
91647.9
91478.4
91308.7
91138.9
90968.8
90798.7
90628.3
90457.8
90287.2
90116.3
89945.4
89774.2
89602.9
89431.4
89259.8
89088
88916.1
88744
88571.7
88399.3
88226.7
88053.9
87881
87708
87534.7
87361.3
87187.8
87014.1
86840.2
86666.2
86492
86317.6
86143.1
85968.5
85793.6
85618.6
85443.5
85268.2
85092.7
84917.1
84741.3
84565.4
84389.3
84213
84036.6
83860.1
83683.3
83506.5
83329.4
83152.2
82974.9
82797.3
82619.7
82441.8
82263.9
82085.7
81907.4
81729
81550.4
81371.6
81192.7
81013.6
80834.3
80654.9
80475.4
80295.7
80115.8
79935.8
79755.6
79575.3
79394.8
79214.2
79033.4
78852.4
78671.3
78490
78308.6
78127
77945.3
77763.4
77581.4
77399.2
77216.8
77034.3
76851.7
76668.9
76485.9
76302.8
76119.6
75936.1
75752.6
75568.9
75385
75201
75016.8
74832.5
74648.1
74463.5
74278.7
74093.9
73908.8
73723.6
73538.3
73352.8
73167.2
72981.4
72795.5
72609.4
72423.2
72236.9
72050.4
71863.7
71676.9
71489.9
71302.8
71115.6
70928.2
70740.6
70552.9
70365
70176.9
69988.8
69800.4
69611.9
69423.2
69234.4
69045.4
68856.2
68666.9
68477.4
68287.8
68097.9
67908
67717.8
67527.5
67337
67146.4
66955.6
66764.6
66573.4
66382.1
66190.7
65999
65807.2
65615.3
65423.2
65230.9
65038.4
64845.8
64653
64460.1
64267
64073.7
63880.3
63686.7
63493
63299.1
63105
62910.8
62716.4
62521.9
62327.2
62132.3
61937.3
61742.1
61546.8
61351.3
61155.6
60959.8
60763.8
60567.7
60371.4
60174.9
59978.3
59781.5
59584.5
59387.4
59190.2
58992.7
58795.1
58597.4
58399.5
58201.4
58003.2
57804.8
57606.3
57407.5
57208.7
57009.6
56810.4
56611.1
56411.6
56211.9
56012.1
55812.1
55611.9
55411.6
55211.1
55010.5
54809.7
54608.7
54407.6
54206.3
54004.9
53803.3
53601.5
53399.6
53197.5
52995.2
52792.8
52590.3
52387.5
52184.7
51981.6
51778.4
51575
51371.5
51167.8
50964
50760
50555.8
50351.5
50147
49942.3
49737.5
49532.5
49327.4
49122.1
48916.7
48711.1
48505.3
48299.4
48093.3
47887
47680.6
47474
47267.3
47060.4
46853.3
46646.1
46438.7
46231.2
46023.5
45815.6
45607.6
45399.5
45191.1
44982.6
44773.9
44565.1
44356.1
44147
43937.7
43728.2
43518.6
43308.8
43098.9
42888.8
42678.6
42468.1
42257.6
42046.8
41836
41624.9
41413.7
41202.3
40990.8
40779.2
40567.3
40355.4
40143.2
39930.9
39718.5
39505.9
39293.1
39080.2
38867.1
38653.9
38440.5
38227
38013.3
37799.4
37585.4
37371.2
37156.9
36942.4
36727.8
36513
36298
36082.9
35867.6
35652.1
35436.5
35220.8
35004.8
34788.7
34572.4
34356
34139.3
33922.5
33705.6
33488.4
33271.1
33053.6
32836
32618.1
32400.1
32181.9
31963.6
31745
31526.3
31307.4
31088.3
30869.1
30649.6
30430
30210.2
29990.2
29770.1
29549.7
29329.2
29108.5
28887.6
28666.6
28445.3
28223.9
28002.3
27780.5
27558.6
27336.4
27114.1
26891.6
26669
26446.1
26223.1
25999.9
25776.5
25552.9
25329.2
25105.2
24881.1
24656.8
24432.4
24207.7
23982.9
23757.9
23532.7
23307.3
23081.8
22856
22630.1
22404
22177.7
21951.3
21724.6
21497.8
21270.8
21043.6
20816.2
20588.6
20360.9
20133
19904.8
19676.5
19448.1
19219.4
18990.5
18761.5
18532.3
18302.8
18073.2
17843.5
17613.5
17383.3
17153
16922.5
16691.7
16460.8
16229.8
15998.5
15767
15535.4
15303.6
15071.5
14839.3
14607
14374.4
14141.6
13908.7
13675.6
13442.3
13208.8
12975.2
12741.4
12507.4
12273.2
12038.9
11804.3
11569.7
11334.8
11099.9
10864.7
10629.4
10394
10158.4
9922.69
9686.85
9450.89
9214.81
8978.62
8742.32
8505.93
8269.45
8032.88
7796.24
7559.53
7322.75
7085.92
6849.04
6612.11
6375.14
6138.13
5901.1
5664.04
5426.95
5189.85
4952.73
4715.6
4478.46
4241.31
4004.16
3767
3529.84
3292.67
3055.51
2818.34
2581.17
2344
2106.83
1869.65
1632.45
1395.22
1157.94
920.521
682.941
444.986
205.849
)
;

boundaryField
{
    inlet
    {
        type            darcyGradPressure;
        gradient        uniform 116344;
        Mf              Mf;
        phi             phi;
        value           uniform 169881;
    }
    outlet
    {
        type            fixedValue;
        value           uniform 0;
    }
    emptyWalls
    {
        type            empty;
    }
}


// ************************************************************************* //
