/*--------------------------------*- C++ -*----------------------------------*\
  =========                 |
  \\      /  F ield         | OpenFOAM: The Open Source CFD Toolbox
   \\    /   O peration     | Website:  https://openfoam.org
    \\  /    A nd           | Version:  9
     \\/     M anipulation  |
\*---------------------------------------------------------------------------*/
FoamFile
{
    format      ascii;
    class       surfaceScalarField;
    location    "25000";
    object      phia;
}
// * * * * * * * * * * * * * * * * * * * * * * * * * * * * * * * * * * * * * //

dimensions      [0 2 0 0 0 0 0];

internalField   nonuniform List<scalar> 
999
(
2.7489e-10
2.74879e-10
2.7487e-10
2.74862e-10
2.74827e-10
2.7482e-10
2.7477e-10
2.74749e-10
2.74707e-10
2.74666e-10
2.74628e-10
2.74576e-10
2.74521e-10
2.74463e-10
2.74391e-10
2.74325e-10
2.74244e-10
2.74178e-10
2.74085e-10
2.74021e-10
2.7393e-10
2.73857e-10
2.73792e-10
2.73712e-10
2.73668e-10
2.73599e-10
2.73556e-10
2.73503e-10
2.7346e-10
2.73414e-10
2.73367e-10
2.73276e-10
2.72973e-10
2.71825e-10
2.66316e-10
2.29519e-10
2.16847e-10
2.13593e-10
2.1225e-10
2.11466e-10
2.10906e-10
2.10458e-10
2.10078e-10
2.09742e-10
2.09439e-10
2.09163e-10
2.08908e-10
2.08671e-10
2.08452e-10
2.08249e-10
2.0806e-10
2.07883e-10
2.07717e-10
2.0756e-10
2.07412e-10
2.07271e-10
2.0714e-10
2.07024e-10
2.06917e-10
2.0682e-10
2.06733e-10
2.06643e-10
2.06554e-10
2.06467e-10
2.06374e-10
2.06281e-10
2.06197e-10
2.0613e-10
2.06075e-10
2.0603e-10
2.05991e-10
2.05958e-10
2.05924e-10
2.05877e-10
2.05817e-10
2.05747e-10
2.05672e-10
2.05601e-10
2.05545e-10
2.05516e-10
2.05521e-10
2.05563e-10
2.0563e-10
2.05745e-10
2.06042e-10
2.06359e-10
2.06687e-10
2.07013e-10
2.07311e-10
2.07547e-10
2.0773e-10
2.07907e-10
2.08063e-10
2.08202e-10
2.08304e-10
2.08348e-10
2.08318e-10
2.0821e-10
2.08029e-10
2.07783e-10
2.0749e-10
2.07166e-10
2.06832e-10
2.06502e-10
2.0619e-10
2.05907e-10
2.05659e-10
2.0545e-10
2.0528e-10
2.05149e-10
2.05052e-10
2.04986e-10
2.04945e-10
2.04925e-10
2.04918e-10
2.04919e-10
2.04925e-10
2.04931e-10
2.04935e-10
2.04934e-10
2.04927e-10
2.04913e-10
2.04893e-10
2.04867e-10
2.04835e-10
2.04798e-10
2.04758e-10
2.04715e-10
2.04669e-10
2.04621e-10
2.04573e-10
2.04523e-10
2.04473e-10
2.04424e-10
2.04374e-10
2.04326e-10
2.04277e-10
2.0423e-10
2.04183e-10
2.04137e-10
2.04093e-10
2.04049e-10
2.04006e-10
2.03964e-10
2.03924e-10
2.03884e-10
2.03846e-10
2.03809e-10
2.03774e-10
2.03739e-10
2.03706e-10
2.03675e-10
2.03644e-10
2.03615e-10
2.03587e-10
2.0356e-10
2.03534e-10
2.03509e-10
2.03485e-10
2.03463e-10
2.03442e-10
2.03423e-10
2.03406e-10
2.0339e-10
2.03376e-10
2.03364e-10
2.03353e-10
2.03343e-10
2.03334e-10
2.03326e-10
2.03317e-10
2.03309e-10
2.033e-10
2.03292e-10
2.03284e-10
2.03277e-10
2.03271e-10
2.03267e-10
2.03264e-10
2.03263e-10
2.03264e-10
2.03267e-10
2.0327e-10
2.03275e-10
2.03279e-10
2.03283e-10
2.03285e-10
2.03285e-10
2.03283e-10
2.03278e-10
2.03272e-10
2.03267e-10
2.03265e-10
2.03268e-10
2.03279e-10
2.03302e-10
2.0334e-10
2.03393e-10
2.03465e-10
2.03555e-10
2.03664e-10
2.03792e-10
2.03936e-10
2.04095e-10
2.04266e-10
2.04448e-10
2.04635e-10
2.04826e-10
2.05015e-10
2.05198e-10
2.05372e-10
2.0553e-10
2.05669e-10
2.05784e-10
2.05871e-10
2.05927e-10
2.0595e-10
2.05939e-10
2.05893e-10
2.05814e-10
2.05705e-10
2.05568e-10
2.05408e-10
2.05231e-10
2.0504e-10
2.04843e-10
2.04643e-10
2.04446e-10
2.04256e-10
2.04077e-10
2.0391e-10
2.03758e-10
2.03623e-10
2.03503e-10
2.03399e-10
2.0331e-10
2.03235e-10
2.03173e-10
2.03121e-10
2.03077e-10
2.03041e-10
2.03011e-10
2.02984e-10
2.0296e-10
2.02937e-10
2.02914e-10
2.02891e-10
2.02867e-10
2.02841e-10
2.02813e-10
2.02784e-10
2.02752e-10
2.02718e-10
2.02682e-10
2.02645e-10
2.02606e-10
2.02566e-10
2.02525e-10
2.02482e-10
2.0244e-10
2.02396e-10
2.02353e-10
2.02309e-10
2.02266e-10
2.02223e-10
2.0218e-10
2.02137e-10
2.02095e-10
2.02054e-10
2.02013e-10
2.01973e-10
2.01934e-10
2.01896e-10
2.01858e-10
2.01822e-10
2.01786e-10
2.01751e-10
2.01717e-10
2.01684e-10
2.01652e-10
2.01621e-10
2.01591e-10
2.01562e-10
2.01534e-10
2.01507e-10
2.01481e-10
2.01456e-10
2.01432e-10
2.01409e-10
2.01387e-10
2.01366e-10
2.01347e-10
2.01328e-10
2.01311e-10
2.01295e-10
2.01279e-10
2.01265e-10
2.01251e-10
2.01238e-10
2.01226e-10
2.01214e-10
2.01203e-10
2.01193e-10
2.01183e-10
2.01173e-10
2.01165e-10
2.01157e-10
2.0115e-10
2.01144e-10
2.01138e-10
2.01133e-10
2.01129e-10
2.01125e-10
2.01122e-10
2.01119e-10
2.01116e-10
2.01113e-10
2.0111e-10
2.01107e-10
2.01103e-10
2.011e-10
2.01097e-10
2.01095e-10
2.01095e-10
2.01097e-10
2.01102e-10
2.01111e-10
2.01125e-10
2.01145e-10
2.01172e-10
2.01207e-10
2.01251e-10
2.01304e-10
2.01366e-10
2.01438e-10
2.01519e-10
2.0161e-10
2.0171e-10
2.01818e-10
2.01933e-10
2.02054e-10
2.0218e-10
2.02308e-10
2.02437e-10
2.02564e-10
2.02688e-10
2.02807e-10
2.02918e-10
2.0302e-10
2.03109e-10
2.03184e-10
2.03244e-10
2.03286e-10
2.03311e-10
2.03316e-10
2.03303e-10
2.0327e-10
2.03219e-10
2.03151e-10
2.03066e-10
2.02967e-10
2.02856e-10
2.02735e-10
2.02606e-10
2.02471e-10
2.02333e-10
2.02195e-10
2.02057e-10
2.01922e-10
2.01792e-10
2.01668e-10
2.0155e-10
2.0144e-10
2.01338e-10
2.01244e-10
2.01158e-10
2.0108e-10
2.01009e-10
2.00945e-10
2.00888e-10
2.00836e-10
2.00789e-10
2.00747e-10
2.00708e-10
2.00671e-10
2.00637e-10
2.00604e-10
2.00573e-10
2.00542e-10
2.00511e-10
2.0048e-10
2.00449e-10
2.00417e-10
2.00385e-10
2.00352e-10
2.00318e-10
2.00283e-10
2.00248e-10
2.00211e-10
2.00174e-10
2.00137e-10
2.00098e-10
2.0006e-10
2.00021e-10
1.99981e-10
1.99942e-10
1.99902e-10
1.99863e-10
1.99824e-10
1.99785e-10
1.99746e-10
1.99707e-10
1.99669e-10
1.99631e-10
1.99594e-10
1.99557e-10
1.99521e-10
1.99486e-10
1.99451e-10
1.99417e-10
1.99383e-10
1.9935e-10
1.99318e-10
1.99287e-10
1.99256e-10
1.99226e-10
1.99197e-10
1.99169e-10
1.99142e-10
1.99115e-10
1.9909e-10
1.99065e-10
1.99041e-10
1.99017e-10
1.98995e-10
1.98974e-10
1.98953e-10
1.98933e-10
1.98914e-10
1.98896e-10
1.98879e-10
1.98862e-10
1.98846e-10
1.9883e-10
1.98816e-10
1.98802e-10
1.98788e-10
1.98775e-10
1.98763e-10
1.98751e-10
1.9874e-10
1.9873e-10
1.9872e-10
1.9871e-10
1.98701e-10
1.98693e-10
1.98685e-10
1.98677e-10
1.98669e-10
1.98662e-10
1.98655e-10
1.98649e-10
1.98642e-10
1.98636e-10
1.98631e-10
1.98626e-10
1.98622e-10
1.98618e-10
1.98616e-10
1.98615e-10
1.98616e-10
1.98619e-10
1.98625e-10
1.98633e-10
1.98646e-10
1.98662e-10
1.98682e-10
1.98707e-10
1.98737e-10
1.98773e-10
1.98814e-10
1.98861e-10
1.98913e-10
1.98972e-10
1.99036e-10
1.99106e-10
1.9918e-10
1.9926e-10
1.99343e-10
1.9943e-10
1.9952e-10
1.99611e-10
1.99703e-10
1.99795e-10
1.99886e-10
1.99974e-10
2.00059e-10
2.00139e-10
2.00213e-10
2.0028e-10
2.0034e-10
2.0039e-10
2.00431e-10
2.00462e-10
2.00481e-10
2.00488e-10
2.00484e-10
2.00469e-10
2.00441e-10
2.00402e-10
2.00352e-10
2.00292e-10
2.00223e-10
2.00145e-10
2.0006e-10
1.99968e-10
1.99871e-10
1.99771e-10
1.99667e-10
1.99562e-10
1.99457e-10
1.99352e-10
1.99249e-10
1.99148e-10
1.9905e-10
1.98955e-10
1.98865e-10
1.98778e-10
1.98697e-10
1.98619e-10
1.98547e-10
1.98479e-10
1.98415e-10
1.98355e-10
1.98299e-10
1.98247e-10
1.98198e-10
1.98152e-10
1.98108e-10
1.98067e-10
1.98027e-10
1.97989e-10
1.97952e-10
1.97916e-10
1.97881e-10
1.97846e-10
1.97812e-10
1.97777e-10
1.97743e-10
1.97708e-10
1.97674e-10
1.97639e-10
1.97604e-10
1.97568e-10
1.97532e-10
1.97496e-10
1.97459e-10
1.97422e-10
1.97385e-10
1.97348e-10
1.9731e-10
1.97273e-10
1.97235e-10
1.97198e-10
1.9716e-10
1.97123e-10
1.97085e-10
1.97048e-10
1.97011e-10
1.96975e-10
1.96939e-10
1.96903e-10
1.96868e-10
1.96833e-10
1.96799e-10
1.96765e-10
1.96732e-10
1.96699e-10
1.96667e-10
1.96635e-10
1.96604e-10
1.96574e-10
1.96545e-10
1.96516e-10
1.96488e-10
1.9646e-10
1.96433e-10
1.96407e-10
1.96382e-10
1.96357e-10
1.96333e-10
1.9631e-10
1.96288e-10
1.96266e-10
1.96245e-10
1.96225e-10
1.96205e-10
1.96186e-10
1.96167e-10
1.9615e-10
1.96133e-10
1.96116e-10
1.961e-10
1.96085e-10
1.9607e-10
1.96056e-10
1.96043e-10
1.96029e-10
1.96017e-10
1.96005e-10
1.95993e-10
1.95982e-10
1.95971e-10
1.95961e-10
1.95951e-10
1.95941e-10
1.95932e-10
1.95923e-10
1.95915e-10
1.95907e-10
1.95899e-10
1.95892e-10
1.95885e-10
1.95879e-10
1.95874e-10
1.9587e-10
1.95866e-10
1.95864e-10
1.95863e-10
1.95864e-10
1.95866e-10
1.9587e-10
1.95876e-10
1.95885e-10
1.95896e-10
1.9591e-10
1.95927e-10
1.95947e-10
1.95971e-10
1.95998e-10
1.96028e-10
1.96063e-10
1.96101e-10
1.96143e-10
1.96188e-10
1.96237e-10
1.9629e-10
1.96346e-10
1.96404e-10
1.96466e-10
1.9653e-10
1.96595e-10
1.96662e-10
1.9673e-10
1.96799e-10
1.96867e-10
1.96934e-10
1.97e-10
1.97064e-10
1.97125e-10
1.97183e-10
1.97237e-10
1.97286e-10
1.9733e-10
1.97368e-10
1.97399e-10
1.97424e-10
1.97442e-10
1.97452e-10
1.97455e-10
1.9745e-10
1.97436e-10
1.97415e-10
1.97387e-10
1.97351e-10
1.97307e-10
1.97257e-10
1.972e-10
1.97138e-10
1.9707e-10
1.96998e-10
1.96921e-10
1.96841e-10
1.96759e-10
1.96675e-10
1.96589e-10
1.96503e-10
1.96416e-10
1.9633e-10
1.96245e-10
1.96162e-10
1.9608e-10
1.96e-10
1.95923e-10
1.95848e-10
1.95776e-10
1.95707e-10
1.9564e-10
1.95577e-10
1.95516e-10
1.95457e-10
1.95402e-10
1.95349e-10
1.95298e-10
1.95249e-10
1.95202e-10
1.95158e-10
1.95114e-10
1.95072e-10
1.95031e-10
1.94992e-10
1.94953e-10
1.94915e-10
1.94877e-10
1.9484e-10
1.94804e-10
1.94767e-10
1.94731e-10
1.94695e-10
1.94659e-10
1.94623e-10
1.94587e-10
1.94551e-10
1.94515e-10
1.94479e-10
1.94443e-10
1.94407e-10
1.9437e-10
1.94334e-10
1.94298e-10
1.94261e-10
1.94225e-10
1.94189e-10
1.94153e-10
1.94117e-10
1.94081e-10
1.94046e-10
1.94011e-10
1.93976e-10
1.93941e-10
1.93907e-10
1.93873e-10
1.93839e-10
1.93806e-10
1.93773e-10
1.93741e-10
1.93709e-10
1.93678e-10
1.93647e-10
1.93616e-10
1.93587e-10
1.93557e-10
1.93529e-10
1.935e-10
1.93473e-10
1.93446e-10
1.93419e-10
1.93393e-10
1.93368e-10
1.93343e-10
1.93319e-10
1.93296e-10
1.93273e-10
1.9325e-10
1.93228e-10
1.93207e-10
1.93186e-10
1.93166e-10
1.93147e-10
1.93127e-10
1.93109e-10
1.93091e-10
1.93073e-10
1.93056e-10
1.93039e-10
1.93023e-10
1.93008e-10
1.92992e-10
1.92977e-10
1.92963e-10
1.92949e-10
1.92935e-10
1.92922e-10
1.92909e-10
1.92896e-10
1.92884e-10
1.92873e-10
1.92861e-10
1.9285e-10
1.9284e-10
1.92829e-10
1.9282e-10
1.92811e-10
1.92802e-10
1.92794e-10
1.92787e-10
1.92781e-10
1.92775e-10
1.92771e-10
1.92767e-10
1.92765e-10
1.92764e-10
1.92765e-10
1.92767e-10
1.92771e-10
1.92776e-10
1.92784e-10
1.92793e-10
1.92805e-10
1.92819e-10
1.92835e-10
1.92854e-10
1.92875e-10
1.92899e-10
1.92925e-10
1.92954e-10
1.92985e-10
1.93019e-10
1.93055e-10
1.93094e-10
1.93134e-10
1.93177e-10
1.93221e-10
1.93267e-10
1.93315e-10
1.93363e-10
1.93412e-10
1.93462e-10
1.93512e-10
1.93561e-10
1.9361e-10
1.93658e-10
1.93705e-10
1.9375e-10
1.93793e-10
1.93833e-10
1.9387e-10
1.93904e-10
1.93935e-10
1.93961e-10
1.93983e-10
1.94001e-10
1.94013e-10
1.94021e-10
1.94023e-10
1.9402e-10
1.94012e-10
1.93998e-10
1.93978e-10
1.93953e-10
1.93923e-10
1.93887e-10
1.93846e-10
1.93801e-10
1.93751e-10
1.93696e-10
1.93638e-10
1.93576e-10
1.93512e-10
1.93444e-10
1.93374e-10
1.93302e-10
1.93229e-10
1.93155e-10
1.9308e-10
1.93004e-10
1.92929e-10
1.92854e-10
1.92779e-10
1.92705e-10
1.92633e-10
1.92562e-10
1.92492e-10
1.92424e-10
1.92357e-10
1.92292e-10
1.9223e-10
1.92169e-10
1.9211e-10
1.92052e-10
1.91997e-10
1.91943e-10
1.91891e-10
1.9184e-10
1.91791e-10
1.91744e-10
1.91697e-10
1.91652e-10
1.91608e-10
1.91565e-10
1.91523e-10
1.91481e-10
1.9144e-10
1.91401e-10
1.91361e-10
1.91322e-10
1.91283e-10
1.91244e-10
1.91206e-10
1.91168e-10
1.9113e-10
1.91092e-10
1.91054e-10
1.91017e-10
1.90979e-10
1.90941e-10
1.90904e-10
1.90866e-10
1.90829e-10
1.90792e-10
1.90754e-10
1.90717e-10
1.9068e-10
1.90643e-10
1.90606e-10
1.90569e-10
1.90532e-10
1.90496e-10
1.90459e-10
1.90423e-10
1.90387e-10
1.90351e-10
1.90316e-10
1.90281e-10
1.90246e-10
1.90211e-10
1.90177e-10
1.90143e-10
1.9011e-10
1.90077e-10
1.90044e-10
1.90012e-10
1.8998e-10
1.89949e-10
1.89918e-10
1.89887e-10
1.89857e-10
1.89828e-10
1.89799e-10
1.89771e-10
1.89743e-10
1.89716e-10
1.89689e-10
1.89663e-10
1.89638e-10
1.89613e-10
1.89589e-10
1.89566e-10
1.89543e-10
1.89522e-10
1.895e-10
1.8948e-10
1.89461e-10
1.89443e-10
1.89425e-10
1.89409e-10
1.89393e-10
1.89378e-10
1.89365e-10
1.89353e-10
1.89341e-10
1.89331e-10
1.89322e-10
1.89315e-10
1.89308e-10
1.89303e-10
1.89298e-10
1.89296e-10
1.89293e-10
1.89293e-10
1.89293e-10
1.89294e-10
1.89297e-10
1.89301e-10
1.89305e-10
1.89311e-10
1.89318e-10
1.89325e-10
1.89335e-10
1.89345e-10
1.89356e-10
1.89368e-10
1.89381e-10
1.89395e-10
1.89411e-10
1.89428e-10
1.89446e-10
1.89465e-10
1.89486e-10
1.89508e-10
1.89532e-10
1.89556e-10
1.89581e-10
1.89606e-10
1.8963e-10
1.89651e-10
1.89661e-10
1.89663e-10
1.89574e-10
)
;

boundaryField
{
    inlet
    {
        type            calculated;
        value           uniform -2.74882e-10;
    }
    outlet
    {
        type            calculated;
        value           uniform 3.03556e-11;
    }
    emptyWalls
    {
        type            empty;
        value           nonuniform List<scalar> 0();
    }
}


// ************************************************************************* //
