/*--------------------------------*- C++ -*----------------------------------*\
  =========                 |
  \\      /  F ield         | OpenFOAM: The Open Source CFD Toolbox
   \\    /   O peration     | Website:  https://openfoam.org
    \\  /    A nd           | Version:  9
     \\/     M anipulation  |
\*---------------------------------------------------------------------------*/
FoamFile
{
    format      ascii;
    class       volVectorField;
    location    "25000";
    object      Uc;
}
// * * * * * * * * * * * * * * * * * * * * * * * * * * * * * * * * * * * * * //

dimensions      [0 0 0 0 0 0 0];

internalField   nonuniform List<vector> 
1000
(
(4.15687e-12 0 0)
(2.12925e-11 0 0)
(5.91736e-11 0 0)
(1.20384e-10 0 0)
(2.04178e-10 0 0)
(3.10294e-10 0 0)
(4.38691e-10 0 0)
(5.89449e-10 0 0)
(7.62674e-10 0 0)
(9.5843e-10 0 0)
(1.17671e-09 0 0)
(1.41732e-09 0 0)
(1.67981e-09 0 0)
(1.96348e-09 0 0)
(2.26714e-09 0 0)
(2.58913e-09 0 0)
(2.92715e-09 0 0)
(3.27822e-09 0 0)
(3.63847e-09 0 0)
(4.00346e-09 0 0)
(4.36799e-09 0 0)
(4.72651e-09 0 0)
(5.07369e-09 0 0)
(5.40428e-09 0 0)
(5.71426e-09 0 0)
(6.00051e-09 0 0)
(6.26134e-09 0 0)
(6.49661e-09 0 0)
(6.70786e-09 0 0)
(6.9012e-09 0 0)
(7.10076e-09 0 0)
(7.41443e-09 0 0)
(8.32257e-09 0 0)
(1.16407e-08 0 0)
(2.62033e-08 0 0)
(1.00475e-07 0 0)
(1.81807e-07 0 0)
(2.06084e-07 0 0)
(2.13606e-07 0 0)
(2.17178e-07 0 0)
(2.19453e-07 0 0)
(2.21175e-07 0 0)
(2.22614e-07 0 0)
(2.23888e-07 0 0)
(2.25053e-07 0 0)
(2.26144e-07 0 0)
(2.27178e-07 0 0)
(2.28167e-07 0 0)
(2.29121e-07 0 0)
(2.30045e-07 0 0)
(2.30943e-07 0 0)
(2.31819e-07 0 0)
(2.32674e-07 0 0)
(2.33512e-07 0 0)
(2.34333e-07 0 0)
(2.3514e-07 0 0)
(2.35933e-07 0 0)
(2.36715e-07 0 0)
(2.37486e-07 0 0)
(2.38247e-07 0 0)
(2.39001e-07 0 0)
(2.39748e-07 0 0)
(2.4049e-07 0 0)
(2.4123e-07 0 0)
(2.41968e-07 0 0)
(2.42706e-07 0 0)
(2.43443e-07 0 0)
(2.4418e-07 0 0)
(2.44918e-07 0 0)
(2.45658e-07 0 0)
(2.46402e-07 0 0)
(2.47153e-07 0 0)
(2.47911e-07 0 0)
(2.48688e-07 0 0)
(2.49484e-07 0 0)
(2.50293e-07 0 0)
(2.51118e-07 0 0)
(2.51957e-07 0 0)
(2.52809e-07 0 0)
(2.53674e-07 0 0)
(2.54553e-07 0 0)
(2.55447e-07 0 0)
(2.56357e-07 0 0)
(2.57288e-07 0 0)
(2.58227e-07 0 0)
(2.59181e-07 0 0)
(2.60169e-07 0 0)
(2.61198e-07 0 0)
(2.6228e-07 0 0)
(2.6343e-07 0 0)
(2.64665e-07 0 0)
(2.65999e-07 0 0)
(2.67456e-07 0 0)
(2.69069e-07 0 0)
(2.70876e-07 0 0)
(2.72922e-07 0 0)
(2.7524e-07 0 0)
(2.77849e-07 0 0)
(2.80738e-07 0 0)
(2.83869e-07 0 0)
(2.87189e-07 0 0)
(2.90654e-07 0 0)
(2.94226e-07 0 0)
(2.9788e-07 0 0)
(3.01597e-07 0 0)
(3.05363e-07 0 0)
(3.09166e-07 0 0)
(3.12998e-07 0 0)
(3.16855e-07 0 0)
(3.20731e-07 0 0)
(3.24623e-07 0 0)
(3.28531e-07 0 0)
(3.32451e-07 0 0)
(3.36385e-07 0 0)
(3.4033e-07 0 0)
(3.44288e-07 0 0)
(3.48259e-07 0 0)
(3.52242e-07 0 0)
(3.56237e-07 0 0)
(3.60245e-07 0 0)
(3.64265e-07 0 0)
(3.68297e-07 0 0)
(3.72341e-07 0 0)
(3.76396e-07 0 0)
(3.80463e-07 0 0)
(3.8454e-07 0 0)
(3.88628e-07 0 0)
(3.92725e-07 0 0)
(3.96832e-07 0 0)
(4.00948e-07 0 0)
(4.05073e-07 0 0)
(4.09206e-07 0 0)
(4.13348e-07 0 0)
(4.17498e-07 0 0)
(4.21655e-07 0 0)
(4.2582e-07 0 0)
(4.29993e-07 0 0)
(4.34173e-07 0 0)
(4.3836e-07 0 0)
(4.42554e-07 0 0)
(4.46755e-07 0 0)
(4.50963e-07 0 0)
(4.55177e-07 0 0)
(4.59398e-07 0 0)
(4.63625e-07 0 0)
(4.67859e-07 0 0)
(4.72099e-07 0 0)
(4.76345e-07 0 0)
(4.80598e-07 0 0)
(4.84856e-07 0 0)
(4.8912e-07 0 0)
(4.9339e-07 0 0)
(4.97666e-07 0 0)
(5.01947e-07 0 0)
(5.06234e-07 0 0)
(5.10527e-07 0 0)
(5.14825e-07 0 0)
(5.19129e-07 0 0)
(5.23438e-07 0 0)
(5.27752e-07 0 0)
(5.32072e-07 0 0)
(5.36396e-07 0 0)
(5.40726e-07 0 0)
(5.45061e-07 0 0)
(5.494e-07 0 0)
(5.53744e-07 0 0)
(5.58093e-07 0 0)
(5.62447e-07 0 0)
(5.66806e-07 0 0)
(5.7117e-07 0 0)
(5.75538e-07 0 0)
(5.79912e-07 0 0)
(5.84291e-07 0 0)
(5.88675e-07 0 0)
(5.93064e-07 0 0)
(5.97457e-07 0 0)
(6.01855e-07 0 0)
(6.06258e-07 0 0)
(6.10664e-07 0 0)
(6.15075e-07 0 0)
(6.1949e-07 0 0)
(6.23909e-07 0 0)
(6.28332e-07 0 0)
(6.32759e-07 0 0)
(6.3719e-07 0 0)
(6.41627e-07 0 0)
(6.46068e-07 0 0)
(6.50515e-07 0 0)
(6.54967e-07 0 0)
(6.59424e-07 0 0)
(6.63887e-07 0 0)
(6.68354e-07 0 0)
(6.72825e-07 0 0)
(6.77299e-07 0 0)
(6.81774e-07 0 0)
(6.86248e-07 0 0)
(6.90722e-07 0 0)
(6.95193e-07 0 0)
(6.9966e-07 0 0)
(7.04122e-07 0 0)
(7.0858e-07 0 0)
(7.13034e-07 0 0)
(7.17482e-07 0 0)
(7.21927e-07 0 0)
(7.26369e-07 0 0)
(7.30808e-07 0 0)
(7.35247e-07 0 0)
(7.39686e-07 0 0)
(7.44128e-07 0 0)
(7.48574e-07 0 0)
(7.53027e-07 0 0)
(7.57489e-07 0 0)
(7.61962e-07 0 0)
(7.66449e-07 0 0)
(7.70952e-07 0 0)
(7.75473e-07 0 0)
(7.80013e-07 0 0)
(7.84574e-07 0 0)
(7.89156e-07 0 0)
(7.93759e-07 0 0)
(7.98383e-07 0 0)
(8.03026e-07 0 0)
(8.07686e-07 0 0)
(8.12362e-07 0 0)
(8.17051e-07 0 0)
(8.2175e-07 0 0)
(8.26456e-07 0 0)
(8.31168e-07 0 0)
(8.35881e-07 0 0)
(8.40595e-07 0 0)
(8.45307e-07 0 0)
(8.50016e-07 0 0)
(8.54722e-07 0 0)
(8.59423e-07 0 0)
(8.6412e-07 0 0)
(8.68813e-07 0 0)
(8.73502e-07 0 0)
(8.78188e-07 0 0)
(8.82871e-07 0 0)
(8.87553e-07 0 0)
(8.92234e-07 0 0)
(8.96915e-07 0 0)
(9.01597e-07 0 0)
(9.06281e-07 0 0)
(9.10968e-07 0 0)
(9.15658e-07 0 0)
(9.20352e-07 0 0)
(9.2505e-07 0 0)
(9.29752e-07 0 0)
(9.34459e-07 0 0)
(9.39171e-07 0 0)
(9.43888e-07 0 0)
(9.4861e-07 0 0)
(9.53336e-07 0 0)
(9.58068e-07 0 0)
(9.62804e-07 0 0)
(9.67545e-07 0 0)
(9.7229e-07 0 0)
(9.77039e-07 0 0)
(9.81793e-07 0 0)
(9.8655e-07 0 0)
(9.91312e-07 0 0)
(9.96077e-07 0 0)
(1.00085e-06 0 0)
(1.00562e-06 0 0)
(1.0104e-06 0 0)
(1.01517e-06 0 0)
(1.01996e-06 0 0)
(1.02474e-06 0 0)
(1.02953e-06 0 0)
(1.03433e-06 0 0)
(1.03912e-06 0 0)
(1.04392e-06 0 0)
(1.04872e-06 0 0)
(1.05353e-06 0 0)
(1.05833e-06 0 0)
(1.06315e-06 0 0)
(1.06796e-06 0 0)
(1.07278e-06 0 0)
(1.07759e-06 0 0)
(1.08242e-06 0 0)
(1.08724e-06 0 0)
(1.09207e-06 0 0)
(1.0969e-06 0 0)
(1.10173e-06 0 0)
(1.10657e-06 0 0)
(1.11141e-06 0 0)
(1.11625e-06 0 0)
(1.1211e-06 0 0)
(1.12594e-06 0 0)
(1.13079e-06 0 0)
(1.13564e-06 0 0)
(1.1405e-06 0 0)
(1.14536e-06 0 0)
(1.15022e-06 0 0)
(1.15508e-06 0 0)
(1.15994e-06 0 0)
(1.16481e-06 0 0)
(1.16968e-06 0 0)
(1.17456e-06 0 0)
(1.17943e-06 0 0)
(1.18431e-06 0 0)
(1.18919e-06 0 0)
(1.19408e-06 0 0)
(1.19897e-06 0 0)
(1.20386e-06 0 0)
(1.20875e-06 0 0)
(1.21365e-06 0 0)
(1.21855e-06 0 0)
(1.22345e-06 0 0)
(1.22835e-06 0 0)
(1.23326e-06 0 0)
(1.23817e-06 0 0)
(1.24308e-06 0 0)
(1.248e-06 0 0)
(1.25291e-06 0 0)
(1.25784e-06 0 0)
(1.26276e-06 0 0)
(1.26769e-06 0 0)
(1.27262e-06 0 0)
(1.27756e-06 0 0)
(1.28249e-06 0 0)
(1.28743e-06 0 0)
(1.29238e-06 0 0)
(1.29732e-06 0 0)
(1.30227e-06 0 0)
(1.30721e-06 0 0)
(1.31216e-06 0 0)
(1.3171e-06 0 0)
(1.32204e-06 0 0)
(1.32698e-06 0 0)
(1.33191e-06 0 0)
(1.33684e-06 0 0)
(1.34176e-06 0 0)
(1.34668e-06 0 0)
(1.35159e-06 0 0)
(1.3565e-06 0 0)
(1.3614e-06 0 0)
(1.36629e-06 0 0)
(1.37118e-06 0 0)
(1.37607e-06 0 0)
(1.38096e-06 0 0)
(1.38584e-06 0 0)
(1.39072e-06 0 0)
(1.39561e-06 0 0)
(1.4005e-06 0 0)
(1.4054e-06 0 0)
(1.41031e-06 0 0)
(1.41522e-06 0 0)
(1.42015e-06 0 0)
(1.4251e-06 0 0)
(1.43006e-06 0 0)
(1.43504e-06 0 0)
(1.44004e-06 0 0)
(1.44506e-06 0 0)
(1.4501e-06 0 0)
(1.45516e-06 0 0)
(1.46024e-06 0 0)
(1.46535e-06 0 0)
(1.47047e-06 0 0)
(1.47561e-06 0 0)
(1.48077e-06 0 0)
(1.48595e-06 0 0)
(1.49114e-06 0 0)
(1.49634e-06 0 0)
(1.50154e-06 0 0)
(1.50676e-06 0 0)
(1.51197e-06 0 0)
(1.51719e-06 0 0)
(1.52241e-06 0 0)
(1.52763e-06 0 0)
(1.53285e-06 0 0)
(1.53807e-06 0 0)
(1.54328e-06 0 0)
(1.54848e-06 0 0)
(1.55368e-06 0 0)
(1.55888e-06 0 0)
(1.56408e-06 0 0)
(1.56927e-06 0 0)
(1.57445e-06 0 0)
(1.57964e-06 0 0)
(1.58482e-06 0 0)
(1.59e-06 0 0)
(1.59518e-06 0 0)
(1.60037e-06 0 0)
(1.60555e-06 0 0)
(1.61073e-06 0 0)
(1.61592e-06 0 0)
(1.62111e-06 0 0)
(1.6263e-06 0 0)
(1.6315e-06 0 0)
(1.6367e-06 0 0)
(1.6419e-06 0 0)
(1.64711e-06 0 0)
(1.65232e-06 0 0)
(1.65754e-06 0 0)
(1.66276e-06 0 0)
(1.66798e-06 0 0)
(1.67321e-06 0 0)
(1.67845e-06 0 0)
(1.68369e-06 0 0)
(1.68893e-06 0 0)
(1.69418e-06 0 0)
(1.69943e-06 0 0)
(1.70469e-06 0 0)
(1.70995e-06 0 0)
(1.71521e-06 0 0)
(1.72048e-06 0 0)
(1.72575e-06 0 0)
(1.73102e-06 0 0)
(1.7363e-06 0 0)
(1.74158e-06 0 0)
(1.74687e-06 0 0)
(1.75216e-06 0 0)
(1.75745e-06 0 0)
(1.76274e-06 0 0)
(1.76804e-06 0 0)
(1.77334e-06 0 0)
(1.77865e-06 0 0)
(1.78395e-06 0 0)
(1.78926e-06 0 0)
(1.79458e-06 0 0)
(1.79989e-06 0 0)
(1.80521e-06 0 0)
(1.81053e-06 0 0)
(1.81586e-06 0 0)
(1.82118e-06 0 0)
(1.82651e-06 0 0)
(1.83184e-06 0 0)
(1.83718e-06 0 0)
(1.84252e-06 0 0)
(1.84786e-06 0 0)
(1.8532e-06 0 0)
(1.85855e-06 0 0)
(1.8639e-06 0 0)
(1.86925e-06 0 0)
(1.8746e-06 0 0)
(1.87996e-06 0 0)
(1.88532e-06 0 0)
(1.89068e-06 0 0)
(1.89605e-06 0 0)
(1.90142e-06 0 0)
(1.90679e-06 0 0)
(1.91216e-06 0 0)
(1.91754e-06 0 0)
(1.92292e-06 0 0)
(1.9283e-06 0 0)
(1.93369e-06 0 0)
(1.93908e-06 0 0)
(1.94447e-06 0 0)
(1.94986e-06 0 0)
(1.95526e-06 0 0)
(1.96066e-06 0 0)
(1.96606e-06 0 0)
(1.97147e-06 0 0)
(1.97688e-06 0 0)
(1.9823e-06 0 0)
(1.98771e-06 0 0)
(1.99313e-06 0 0)
(1.99856e-06 0 0)
(2.00398e-06 0 0)
(2.00941e-06 0 0)
(2.01485e-06 0 0)
(2.02029e-06 0 0)
(2.02573e-06 0 0)
(2.03117e-06 0 0)
(2.03662e-06 0 0)
(2.04207e-06 0 0)
(2.04752e-06 0 0)
(2.05297e-06 0 0)
(2.05843e-06 0 0)
(2.06388e-06 0 0)
(2.06934e-06 0 0)
(2.0748e-06 0 0)
(2.08026e-06 0 0)
(2.08571e-06 0 0)
(2.09116e-06 0 0)
(2.09662e-06 0 0)
(2.10206e-06 0 0)
(2.10751e-06 0 0)
(2.11295e-06 0 0)
(2.11838e-06 0 0)
(2.12381e-06 0 0)
(2.12924e-06 0 0)
(2.13466e-06 0 0)
(2.14007e-06 0 0)
(2.14548e-06 0 0)
(2.15089e-06 0 0)
(2.1563e-06 0 0)
(2.1617e-06 0 0)
(2.1671e-06 0 0)
(2.1725e-06 0 0)
(2.17791e-06 0 0)
(2.18331e-06 0 0)
(2.18872e-06 0 0)
(2.19414e-06 0 0)
(2.19956e-06 0 0)
(2.20499e-06 0 0)
(2.21044e-06 0 0)
(2.2159e-06 0 0)
(2.22137e-06 0 0)
(2.22686e-06 0 0)
(2.23236e-06 0 0)
(2.23789e-06 0 0)
(2.24343e-06 0 0)
(2.249e-06 0 0)
(2.25459e-06 0 0)
(2.2602e-06 0 0)
(2.26583e-06 0 0)
(2.27149e-06 0 0)
(2.27717e-06 0 0)
(2.28286e-06 0 0)
(2.28858e-06 0 0)
(2.29432e-06 0 0)
(2.30007e-06 0 0)
(2.30584e-06 0 0)
(2.31163e-06 0 0)
(2.31743e-06 0 0)
(2.32323e-06 0 0)
(2.32905e-06 0 0)
(2.33487e-06 0 0)
(2.3407e-06 0 0)
(2.34653e-06 0 0)
(2.35236e-06 0 0)
(2.3582e-06 0 0)
(2.36403e-06 0 0)
(2.36986e-06 0 0)
(2.3757e-06 0 0)
(2.38153e-06 0 0)
(2.38735e-06 0 0)
(2.39318e-06 0 0)
(2.399e-06 0 0)
(2.40482e-06 0 0)
(2.41064e-06 0 0)
(2.41646e-06 0 0)
(2.42228e-06 0 0)
(2.42809e-06 0 0)
(2.43391e-06 0 0)
(2.43973e-06 0 0)
(2.44554e-06 0 0)
(2.45136e-06 0 0)
(2.45718e-06 0 0)
(2.46301e-06 0 0)
(2.46883e-06 0 0)
(2.47466e-06 0 0)
(2.4805e-06 0 0)
(2.48634e-06 0 0)
(2.49218e-06 0 0)
(2.49803e-06 0 0)
(2.50388e-06 0 0)
(2.50974e-06 0 0)
(2.5156e-06 0 0)
(2.52147e-06 0 0)
(2.52735e-06 0 0)
(2.53323e-06 0 0)
(2.53912e-06 0 0)
(2.54501e-06 0 0)
(2.55091e-06 0 0)
(2.55681e-06 0 0)
(2.56272e-06 0 0)
(2.56863e-06 0 0)
(2.57455e-06 0 0)
(2.58048e-06 0 0)
(2.58641e-06 0 0)
(2.59234e-06 0 0)
(2.59828e-06 0 0)
(2.60423e-06 0 0)
(2.61018e-06 0 0)
(2.61614e-06 0 0)
(2.6221e-06 0 0)
(2.62806e-06 0 0)
(2.63403e-06 0 0)
(2.64001e-06 0 0)
(2.64599e-06 0 0)
(2.65197e-06 0 0)
(2.65796e-06 0 0)
(2.66395e-06 0 0)
(2.66995e-06 0 0)
(2.67595e-06 0 0)
(2.68195e-06 0 0)
(2.68796e-06 0 0)
(2.69398e-06 0 0)
(2.7e-06 0 0)
(2.70602e-06 0 0)
(2.71205e-06 0 0)
(2.71808e-06 0 0)
(2.72411e-06 0 0)
(2.73015e-06 0 0)
(2.73619e-06 0 0)
(2.74224e-06 0 0)
(2.74829e-06 0 0)
(2.75435e-06 0 0)
(2.76041e-06 0 0)
(2.76648e-06 0 0)
(2.77254e-06 0 0)
(2.77862e-06 0 0)
(2.7847e-06 0 0)
(2.79078e-06 0 0)
(2.79686e-06 0 0)
(2.80295e-06 0 0)
(2.80905e-06 0 0)
(2.81515e-06 0 0)
(2.82125e-06 0 0)
(2.82736e-06 0 0)
(2.83347e-06 0 0)
(2.83959e-06 0 0)
(2.84571e-06 0 0)
(2.85184e-06 0 0)
(2.85797e-06 0 0)
(2.86411e-06 0 0)
(2.87025e-06 0 0)
(2.8764e-06 0 0)
(2.88255e-06 0 0)
(2.88871e-06 0 0)
(2.89487e-06 0 0)
(2.90103e-06 0 0)
(2.90721e-06 0 0)
(2.91338e-06 0 0)
(2.91957e-06 0 0)
(2.92575e-06 0 0)
(2.93195e-06 0 0)
(2.93814e-06 0 0)
(2.94434e-06 0 0)
(2.95055e-06 0 0)
(2.95676e-06 0 0)
(2.96298e-06 0 0)
(2.9692e-06 0 0)
(2.97542e-06 0 0)
(2.98165e-06 0 0)
(2.98788e-06 0 0)
(2.99412e-06 0 0)
(3.00035e-06 0 0)
(3.00659e-06 0 0)
(3.01283e-06 0 0)
(3.01907e-06 0 0)
(3.02531e-06 0 0)
(3.03155e-06 0 0)
(3.03779e-06 0 0)
(3.04403e-06 0 0)
(3.05027e-06 0 0)
(3.05651e-06 0 0)
(3.06274e-06 0 0)
(3.06898e-06 0 0)
(3.07521e-06 0 0)
(3.08144e-06 0 0)
(3.08766e-06 0 0)
(3.09389e-06 0 0)
(3.10011e-06 0 0)
(3.10634e-06 0 0)
(3.11256e-06 0 0)
(3.11878e-06 0 0)
(3.12501e-06 0 0)
(3.13124e-06 0 0)
(3.13747e-06 0 0)
(3.1437e-06 0 0)
(3.14994e-06 0 0)
(3.15619e-06 0 0)
(3.16245e-06 0 0)
(3.16871e-06 0 0)
(3.17499e-06 0 0)
(3.18128e-06 0 0)
(3.18759e-06 0 0)
(3.19391e-06 0 0)
(3.20025e-06 0 0)
(3.20661e-06 0 0)
(3.21298e-06 0 0)
(3.21938e-06 0 0)
(3.22581e-06 0 0)
(3.23225e-06 0 0)
(3.23872e-06 0 0)
(3.24522e-06 0 0)
(3.25174e-06 0 0)
(3.25828e-06 0 0)
(3.26485e-06 0 0)
(3.27145e-06 0 0)
(3.27807e-06 0 0)
(3.28471e-06 0 0)
(3.29138e-06 0 0)
(3.29807e-06 0 0)
(3.30478e-06 0 0)
(3.31151e-06 0 0)
(3.31826e-06 0 0)
(3.32503e-06 0 0)
(3.33181e-06 0 0)
(3.3386e-06 0 0)
(3.34541e-06 0 0)
(3.35223e-06 0 0)
(3.35905e-06 0 0)
(3.36589e-06 0 0)
(3.37273e-06 0 0)
(3.37958e-06 0 0)
(3.38643e-06 0 0)
(3.39329e-06 0 0)
(3.40015e-06 0 0)
(3.40702e-06 0 0)
(3.41388e-06 0 0)
(3.42075e-06 0 0)
(3.42762e-06 0 0)
(3.43449e-06 0 0)
(3.44137e-06 0 0)
(3.44824e-06 0 0)
(3.45512e-06 0 0)
(3.462e-06 0 0)
(3.46889e-06 0 0)
(3.47577e-06 0 0)
(3.48266e-06 0 0)
(3.48956e-06 0 0)
(3.49646e-06 0 0)
(3.50336e-06 0 0)
(3.51028e-06 0 0)
(3.51719e-06 0 0)
(3.52412e-06 0 0)
(3.53105e-06 0 0)
(3.53798e-06 0 0)
(3.54493e-06 0 0)
(3.55188e-06 0 0)
(3.55885e-06 0 0)
(3.56582e-06 0 0)
(3.57279e-06 0 0)
(3.57978e-06 0 0)
(3.58678e-06 0 0)
(3.59379e-06 0 0)
(3.6008e-06 0 0)
(3.60783e-06 0 0)
(3.61486e-06 0 0)
(3.62191e-06 0 0)
(3.62896e-06 0 0)
(3.63603e-06 0 0)
(3.6431e-06 0 0)
(3.65019e-06 0 0)
(3.65728e-06 0 0)
(3.66438e-06 0 0)
(3.6715e-06 0 0)
(3.67862e-06 0 0)
(3.68575e-06 0 0)
(3.69289e-06 0 0)
(3.70004e-06 0 0)
(3.7072e-06 0 0)
(3.71437e-06 0 0)
(3.72155e-06 0 0)
(3.72874e-06 0 0)
(3.73594e-06 0 0)
(3.74315e-06 0 0)
(3.75037e-06 0 0)
(3.75759e-06 0 0)
(3.76483e-06 0 0)
(3.77207e-06 0 0)
(3.77933e-06 0 0)
(3.78659e-06 0 0)
(3.79386e-06 0 0)
(3.80114e-06 0 0)
(3.80843e-06 0 0)
(3.81573e-06 0 0)
(3.82304e-06 0 0)
(3.83036e-06 0 0)
(3.83769e-06 0 0)
(3.84503e-06 0 0)
(3.85237e-06 0 0)
(3.85973e-06 0 0)
(3.8671e-06 0 0)
(3.87447e-06 0 0)
(3.88186e-06 0 0)
(3.88925e-06 0 0)
(3.89666e-06 0 0)
(3.90407e-06 0 0)
(3.9115e-06 0 0)
(3.91893e-06 0 0)
(3.92638e-06 0 0)
(3.93383e-06 0 0)
(3.9413e-06 0 0)
(3.94877e-06 0 0)
(3.95626e-06 0 0)
(3.96375e-06 0 0)
(3.97126e-06 0 0)
(3.97878e-06 0 0)
(3.9863e-06 0 0)
(3.99384e-06 0 0)
(4.00139e-06 0 0)
(4.00895e-06 0 0)
(4.01652e-06 0 0)
(4.0241e-06 0 0)
(4.0317e-06 0 0)
(4.0393e-06 0 0)
(4.04692e-06 0 0)
(4.05455e-06 0 0)
(4.06219e-06 0 0)
(4.06984e-06 0 0)
(4.0775e-06 0 0)
(4.08518e-06 0 0)
(4.09286e-06 0 0)
(4.10056e-06 0 0)
(4.10827e-06 0 0)
(4.11599e-06 0 0)
(4.12373e-06 0 0)
(4.13147e-06 0 0)
(4.13923e-06 0 0)
(4.14699e-06 0 0)
(4.15477e-06 0 0)
(4.16256e-06 0 0)
(4.17036e-06 0 0)
(4.17817e-06 0 0)
(4.18599e-06 0 0)
(4.19382e-06 0 0)
(4.20166e-06 0 0)
(4.20951e-06 0 0)
(4.21737e-06 0 0)
(4.22523e-06 0 0)
(4.23311e-06 0 0)
(4.24099e-06 0 0)
(4.24888e-06 0 0)
(4.25677e-06 0 0)
(4.26468e-06 0 0)
(4.27259e-06 0 0)
(4.2805e-06 0 0)
(4.28843e-06 0 0)
(4.29636e-06 0 0)
(4.3043e-06 0 0)
(4.31224e-06 0 0)
(4.32019e-06 0 0)
(4.32815e-06 0 0)
(4.33612e-06 0 0)
(4.3441e-06 0 0)
(4.35208e-06 0 0)
(4.36008e-06 0 0)
(4.36808e-06 0 0)
(4.3761e-06 0 0)
(4.38413e-06 0 0)
(4.39217e-06 0 0)
(4.40023e-06 0 0)
(4.40831e-06 0 0)
(4.4164e-06 0 0)
(4.42451e-06 0 0)
(4.43264e-06 0 0)
(4.44079e-06 0 0)
(4.44896e-06 0 0)
(4.45716e-06 0 0)
(4.46539e-06 0 0)
(4.47364e-06 0 0)
(4.48192e-06 0 0)
(4.49023e-06 0 0)
(4.49857e-06 0 0)
(4.50694e-06 0 0)
(4.51535e-06 0 0)
(4.52379e-06 0 0)
(4.53226e-06 0 0)
(4.54078e-06 0 0)
(4.54933e-06 0 0)
(4.55791e-06 0 0)
(4.56654e-06 0 0)
(4.5752e-06 0 0)
(4.5839e-06 0 0)
(4.59264e-06 0 0)
(4.60142e-06 0 0)
(4.61023e-06 0 0)
(4.61908e-06 0 0)
(4.62796e-06 0 0)
(4.63688e-06 0 0)
(4.64584e-06 0 0)
(4.65482e-06 0 0)
(4.66384e-06 0 0)
(4.67289e-06 0 0)
(4.68197e-06 0 0)
(4.69107e-06 0 0)
(4.70021e-06 0 0)
(4.70937e-06 0 0)
(4.71855e-06 0 0)
(4.72776e-06 0 0)
(4.73699e-06 0 0)
(4.74624e-06 0 0)
(4.75551e-06 0 0)
(4.7648e-06 0 0)
(4.77412e-06 0 0)
(4.78345e-06 0 0)
(4.7928e-06 0 0)
(4.80217e-06 0 0)
(4.81156e-06 0 0)
(4.82096e-06 0 0)
(4.83039e-06 0 0)
(4.83983e-06 0 0)
(4.84929e-06 0 0)
(4.85877e-06 0 0)
(4.86827e-06 0 0)
(4.87779e-06 0 0)
(4.88732e-06 0 0)
(4.89688e-06 0 0)
(4.90646e-06 0 0)
(4.91606e-06 0 0)
(4.92569e-06 0 0)
(4.93533e-06 0 0)
(4.945e-06 0 0)
(4.95469e-06 0 0)
(4.96441e-06 0 0)
(4.97415e-06 0 0)
(4.98392e-06 0 0)
(4.99371e-06 0 0)
(5.00353e-06 0 0)
(5.01338e-06 0 0)
(5.02325e-06 0 0)
(5.03315e-06 0 0)
(5.04308e-06 0 0)
(5.05304e-06 0 0)
(5.06302e-06 0 0)
(5.07303e-06 0 0)
(5.08308e-06 0 0)
(5.09315e-06 0 0)
(5.10325e-06 0 0)
(5.11338e-06 0 0)
(5.12354e-06 0 0)
(5.13373e-06 0 0)
(5.14395e-06 0 0)
(5.1542e-06 0 0)
(5.16448e-06 0 0)
(5.17479e-06 0 0)
(5.18513e-06 0 0)
(5.1955e-06 0 0)
(5.2059e-06 0 0)
(5.21632e-06 0 0)
(5.22678e-06 0 0)
(5.23726e-06 0 0)
(5.24778e-06 0 0)
(5.25832e-06 0 0)
(5.26889e-06 0 0)
(5.27948e-06 0 0)
(5.2901e-06 0 0)
(5.30075e-06 0 0)
(5.31142e-06 0 0)
(5.32212e-06 0 0)
(5.33283e-06 0 0)
(5.34357e-06 0 0)
(5.35433e-06 0 0)
(5.3651e-06 0 0)
(5.37589e-06 0 0)
(5.38669e-06 0 0)
(5.39751e-06 0 0)
(5.40833e-06 0 0)
(5.41915e-06 0 0)
(5.42997e-06 0 0)
(5.44079e-06 0 0)
(5.4516e-06 0 0)
(5.46239e-06 0 0)
(5.47317e-06 0 0)
(5.48391e-06 0 0)
(5.49461e-06 0 0)
(5.50527e-06 0 0)
(5.51587e-06 0 0)
(5.5264e-06 0 0)
(5.53685e-06 0 0)
(5.54721e-06 0 0)
(5.55745e-06 0 0)
(5.56757e-06 0 0)
(5.57754e-06 0 0)
(5.58734e-06 0 0)
(5.59696e-06 0 0)
(5.60638e-06 0 0)
(5.61557e-06 0 0)
(5.62451e-06 0 0)
(5.63317e-06 0 0)
(5.64153e-06 0 0)
(5.64958e-06 0 0)
(5.65729e-06 0 0)
(5.66464e-06 0 0)
(5.67162e-06 0 0)
(5.67821e-06 0 0)
(5.6844e-06 0 0)
(5.69018e-06 0 0)
(5.69556e-06 0 0)
(5.70052e-06 0 0)
(5.70507e-06 0 0)
(5.70923e-06 0 0)
(5.71299e-06 0 0)
(5.71637e-06 0 0)
(5.71939e-06 0 0)
(5.72207e-06 0 0)
(5.72444e-06 0 0)
(5.72651e-06 0 0)
(5.72831e-06 0 0)
(5.72985e-06 0 0)
(5.73117e-06 0 0)
(5.73229e-06 0 0)
(5.73323e-06 0 0)
(5.73401e-06 0 0)
(5.73466e-06 0 0)
(5.73517e-06 0 0)
(5.73558e-06 0 0)
(5.73591e-06 0 0)
(5.73618e-06 0 0)
(5.73638e-06 0 0)
(5.73656e-06 0 0)
(5.73673e-06 0 0)
(5.73694e-06 0 0)
(5.73723e-06 0 0)
(5.73777e-06 0 0)
(5.73863e-06 0 0)
(5.74039e-06 0 0)
(5.74331e-06 0 0)
(5.74912e-06 0 0)
(5.75867e-06 0 0)
(5.77603e-06 0 0)
(5.80542e-06 0 0)
(6.30724e-06 0 0)
)
;

boundaryField
{
    inlet
    {
        type            fixedValue;
        value           uniform (0 0 0);
    }
    outlet
    {
        type            zeroGradient;
    }
    emptyWalls
    {
        type            empty;
    }
}


// ************************************************************************* //
