/*--------------------------------*- C++ -*----------------------------------*\
  =========                 |
  \\      /  F ield         | OpenFOAM: The Open Source CFD Toolbox
   \\    /   O peration     | Website:  https://openfoam.org
    \\  /    A nd           | Version:  9
     \\/     M anipulation  |
\*---------------------------------------------------------------------------*/
FoamFile
{
    format      ascii;
    class       volScalarField;
    location    "84000";
    object      krc;
}
// * * * * * * * * * * * * * * * * * * * * * * * * * * * * * * * * * * * * * //

dimensions      [0 0 0 0 0 0 0];

internalField   nonuniform List<scalar> 
100
(
3.88201e-22
4.94267e-24
5.39738e-24
6.72511e-24
1.01472e-24
5.81782e-24
8.04246e-25
6.72368e-27
3.4703e-24
1.47121e-24
3.66994e-24
1.06423e-25
1.51592e-24
2.69372e-24
4.52966e-24
3.29646e-24
4.38021e-24
7.40509e-25
4.10534e-24
5.74157e-24
4.64066e-25
5.85689e-24
1.08861e-24
4.32811e-24
3.34137e-24
5.03243e-24
3.0685e-24
5.05006e-24
3.25639e-24
4.26141e-24
2.70947e-24
1.16731e-24
6.78919e-24
5.61139e-24
1.01964e-25
6.35771e-24
9.71999e-25
5.99101e-25
5.62609e-25
1.12512e-24
4.52481e-25
5.22264e-24
1.59198e-23
3.63744e-25
8.99538e-24
2.78651e-24
1.25411e-26
1.62896e-23
8.88208e-27
1.75576e-25
4.87726e-24
3.38716e-24
1.61152e-23
3.2829e-25
3.5484e-26
1.03658e-23
6.53894e-25
1.61911e-24
9.82308e-24
6.73856e-24
6.43316e-24
4.14137e-24
1.59106e-24
3.19576e-24
1.20363e-26
6.54635e-24
4.17242e-24
6.05615e-24
3.82894e-24
9.90271e-26
4.93534e-24
4.22196e-24
7.9386e-25
1.47255e-24
5.07939e-24
4.01235e-24
1.77288e-23
2.92039e-23
8.85983e-23
7.80189e-23
1.72785e-22
1.41584e-22
2.98238e-22
5.05276e-22
6.57609e-22
9.66187e-22
1.44155e-21
2.06944e-21
2.84604e-21
4.09046e-21
5.58658e-21
7.81549e-21
1.21118e-20
1.43067e-20
3.36094e-21
6.44828e-20
5.38636e-18
2.48939e-17
6.22625e-16
4.00298e-15
)
;

boundaryField
{
    inlet
    {
        type            calculated;
        value           uniform 3.88201e-22;
    }
    outlet
    {
        type            calculated;
        value           uniform 4.00298e-15;
    }
    emptyWalls
    {
        type            empty;
    }
}


// ************************************************************************* //
