/*--------------------------------*- C++ -*----------------------------------*\
  =========                 |
  \\      /  F ield         | OpenFOAM: The Open Source CFD Toolbox
   \\    /   O peration     | Website:  https://openfoam.org
    \\  /    A nd           | Version:  9
     \\/     M anipulation  |
\*---------------------------------------------------------------------------*/
FoamFile
{
    format      ascii;
    class       surfaceScalarField;
    location    "15900";
    object      phic;
}
// * * * * * * * * * * * * * * * * * * * * * * * * * * * * * * * * * * * * * //

dimensions      [0 2 0 0 0 0 0];

internalField   nonuniform List<scalar> 
999
(
2.19004e-15
9.52241e-15
2.30374e-14
4.22602e-14
6.70333e-14
9.72297e-14
1.32691e-13
1.73055e-13
2.17791e-13
2.66057e-13
3.16683e-13
3.68342e-13
4.19389e-13
4.68407e-13
5.14057e-13
5.55649e-13
5.936e-13
6.32653e-13
6.97594e-13
9.0372e-13
1.65112e-12
5.16563e-12
1.74303e-11
2.04812e-11
2.13885e-11
2.1831e-11
2.21236e-11
2.23516e-11
2.2546e-11
2.27203e-11
2.28811e-11
2.30321e-11
2.31755e-11
2.33126e-11
2.34445e-11
2.35719e-11
2.36955e-11
2.38161e-11
2.39342e-11
2.40505e-11
2.41657e-11
2.42803e-11
2.43947e-11
2.45093e-11
2.46251e-11
2.47423e-11
2.4862e-11
2.49886e-11
2.51189e-11
2.52534e-11
2.53925e-11
2.55369e-11
2.56875e-11
2.58459e-11
2.60144e-11
2.61966e-11
2.63975e-11
2.66246e-11
2.68878e-11
2.71972e-11
2.75613e-11
2.79813e-11
2.84499e-11
2.89553e-11
2.94872e-11
3.00389e-11
3.06062e-11
3.11861e-11
3.17768e-11
3.23768e-11
3.29849e-11
3.36002e-11
3.42217e-11
3.48484e-11
3.54794e-11
3.6114e-11
3.67514e-11
3.73911e-11
3.80327e-11
3.86758e-11
3.93202e-11
3.99658e-11
4.06126e-11
4.12605e-11
4.19098e-11
4.25605e-11
4.32128e-11
4.38667e-11
4.45223e-11
4.51798e-11
4.58392e-11
4.65005e-11
4.71638e-11
4.78289e-11
4.84959e-11
4.91647e-11
4.98353e-11
5.05076e-11
5.11816e-11
5.18572e-11
5.25344e-11
5.32131e-11
5.38933e-11
5.45749e-11
5.5258e-11
5.59424e-11
5.66282e-11
5.73154e-11
5.80038e-11
5.86936e-11
5.93846e-11
6.00769e-11
6.07703e-11
6.14651e-11
6.2161e-11
6.2858e-11
6.35563e-11
6.42557e-11
6.49563e-11
6.5658e-11
6.63608e-11
6.70647e-11
6.77696e-11
6.84757e-11
6.91828e-11
6.9891e-11
7.06002e-11
7.13104e-11
7.20217e-11
7.2734e-11
7.34472e-11
7.41615e-11
7.48767e-11
7.55929e-11
7.63101e-11
7.70282e-11
7.77473e-11
7.84673e-11
7.91882e-11
7.991e-11
8.06327e-11
8.13564e-11
8.20809e-11
8.28063e-11
8.35326e-11
8.42598e-11
8.49878e-11
8.57167e-11
8.64464e-11
8.7177e-11
8.79086e-11
8.8641e-11
8.93743e-11
9.01085e-11
9.08437e-11
9.15797e-11
9.23166e-11
9.30543e-11
9.37928e-11
9.45322e-11
9.52723e-11
9.60132e-11
9.6755e-11
9.74975e-11
9.8241e-11
9.89852e-11
9.97304e-11
1.00476e-10
1.01223e-10
1.01971e-10
1.0272e-10
1.03468e-10
1.04218e-10
1.04967e-10
1.05717e-10
1.06467e-10
1.07216e-10
1.07965e-10
1.08714e-10
1.09462e-10
1.10209e-10
1.10957e-10
1.11703e-10
1.1245e-10
1.13197e-10
1.13944e-10
1.14691e-10
1.15439e-10
1.16188e-10
1.16939e-10
1.17691e-10
1.18446e-10
1.19203e-10
1.19963e-10
1.20727e-10
1.21493e-10
1.22264e-10
1.23038e-10
1.23816e-10
1.24598e-10
1.25383e-10
1.26171e-10
1.26961e-10
1.27754e-10
1.28548e-10
1.29343e-10
1.3014e-10
1.30937e-10
1.31733e-10
1.3253e-10
1.33326e-10
1.34122e-10
1.34916e-10
1.35711e-10
1.36504e-10
1.37297e-10
1.3809e-10
1.38882e-10
1.39674e-10
1.40466e-10
1.41258e-10
1.42051e-10
1.42844e-10
1.43638e-10
1.44432e-10
1.45227e-10
1.46024e-10
1.46821e-10
1.47619e-10
1.48418e-10
1.49219e-10
1.5002e-10
1.50822e-10
1.51626e-10
1.52431e-10
1.53237e-10
1.54043e-10
1.54851e-10
1.5566e-10
1.5647e-10
1.57281e-10
1.58093e-10
1.58905e-10
1.59719e-10
1.60534e-10
1.61349e-10
1.62165e-10
1.62983e-10
1.63801e-10
1.64619e-10
1.65439e-10
1.6626e-10
1.67081e-10
1.67903e-10
1.68726e-10
1.6955e-10
1.70375e-10
1.712e-10
1.72027e-10
1.72854e-10
1.73682e-10
1.7451e-10
1.7534e-10
1.7617e-10
1.77002e-10
1.77834e-10
1.78666e-10
1.795e-10
1.80334e-10
1.8117e-10
1.82006e-10
1.82843e-10
1.8368e-10
1.84519e-10
1.85358e-10
1.86198e-10
1.87039e-10
1.87881e-10
1.88723e-10
1.89567e-10
1.90411e-10
1.91256e-10
1.92102e-10
1.92948e-10
1.93796e-10
1.94644e-10
1.95493e-10
1.96344e-10
1.97194e-10
1.98046e-10
1.98899e-10
1.99752e-10
2.00607e-10
2.01462e-10
2.02318e-10
2.03175e-10
2.04033e-10
2.04892e-10
2.05752e-10
2.06613e-10
2.07474e-10
2.08337e-10
2.092e-10
2.10065e-10
2.1093e-10
2.11797e-10
2.12664e-10
2.13532e-10
2.14401e-10
2.15271e-10
2.16142e-10
2.17014e-10
2.17887e-10
2.18761e-10
2.19635e-10
2.2051e-10
2.21385e-10
2.22261e-10
2.23137e-10
2.24013e-10
2.2489e-10
2.25767e-10
2.26643e-10
2.27519e-10
2.28396e-10
2.29271e-10
2.30147e-10
2.31022e-10
2.31897e-10
2.32772e-10
2.33647e-10
2.34522e-10
2.35397e-10
2.36272e-10
2.37148e-10
2.38025e-10
2.38903e-10
2.39782e-10
2.40664e-10
2.41547e-10
2.42433e-10
2.43321e-10
2.44213e-10
2.45108e-10
2.46007e-10
2.46909e-10
2.47816e-10
2.48727e-10
2.49642e-10
2.50562e-10
2.51486e-10
2.52414e-10
2.53345e-10
2.54281e-10
2.5522e-10
2.56162e-10
2.57107e-10
2.58054e-10
2.59003e-10
2.59954e-10
2.60906e-10
2.61859e-10
2.62813e-10
2.63767e-10
2.64721e-10
2.65675e-10
2.6663e-10
2.67584e-10
2.68538e-10
2.69492e-10
2.70445e-10
2.71399e-10
2.72353e-10
2.73306e-10
2.7426e-10
2.75215e-10
2.7617e-10
2.77125e-10
2.78082e-10
2.79039e-10
2.79998e-10
2.80957e-10
2.81918e-10
2.8288e-10
2.83844e-10
2.84809e-10
2.85775e-10
2.86743e-10
2.87713e-10
2.88685e-10
2.89658e-10
2.90633e-10
2.91609e-10
2.92587e-10
2.93567e-10
2.94549e-10
2.95533e-10
2.96518e-10
2.97505e-10
2.98493e-10
2.99483e-10
3.00475e-10
3.01469e-10
3.02464e-10
3.03461e-10
3.04459e-10
3.05459e-10
3.06461e-10
3.07465e-10
3.0847e-10
3.09476e-10
3.10485e-10
3.11495e-10
3.12506e-10
3.13519e-10
3.14534e-10
3.1555e-10
3.16569e-10
3.17588e-10
3.1861e-10
3.19633e-10
3.20657e-10
3.21684e-10
3.22712e-10
3.23741e-10
3.24773e-10
3.25806e-10
3.26841e-10
3.27877e-10
3.28915e-10
3.29955e-10
3.30997e-10
3.32041e-10
3.33086e-10
3.34133e-10
3.35182e-10
3.36232e-10
3.37284e-10
3.38339e-10
3.39395e-10
3.40452e-10
3.41512e-10
3.42574e-10
3.43637e-10
3.44702e-10
3.45769e-10
3.46839e-10
3.4791e-10
3.48983e-10
3.50058e-10
3.51134e-10
3.52213e-10
3.53294e-10
3.54377e-10
3.55463e-10
3.5655e-10
3.57639e-10
3.5873e-10
3.59824e-10
3.6092e-10
3.62017e-10
3.63118e-10
3.6422e-10
3.65324e-10
3.66431e-10
3.6754e-10
3.68651e-10
3.69765e-10
3.70881e-10
3.71999e-10
3.7312e-10
3.74242e-10
3.75368e-10
3.76495e-10
3.77625e-10
3.78757e-10
3.79891e-10
3.81028e-10
3.82166e-10
3.83307e-10
3.8445e-10
3.85595e-10
3.86742e-10
3.87891e-10
3.89041e-10
3.90194e-10
3.91348e-10
3.92504e-10
3.93662e-10
3.94821e-10
3.95982e-10
3.97144e-10
3.98308e-10
3.99473e-10
4.0064e-10
4.01809e-10
4.02979e-10
4.04151e-10
4.05325e-10
4.06502e-10
4.0768e-10
4.08861e-10
4.10045e-10
4.11232e-10
4.12422e-10
4.13615e-10
4.14812e-10
4.16013e-10
4.17219e-10
4.18429e-10
4.19645e-10
4.20865e-10
4.22091e-10
4.23323e-10
4.24562e-10
4.25806e-10
4.27058e-10
4.28316e-10
4.29581e-10
4.30854e-10
4.32133e-10
4.3342e-10
4.34714e-10
4.36015e-10
4.37323e-10
4.38637e-10
4.39959e-10
4.41287e-10
4.42621e-10
4.43961e-10
4.45307e-10
4.46658e-10
4.48014e-10
4.49375e-10
4.50741e-10
4.52111e-10
4.53485e-10
4.54864e-10
4.56246e-10
4.57632e-10
4.59021e-10
4.60414e-10
4.6181e-10
4.63211e-10
4.64614e-10
4.66022e-10
4.67433e-10
4.68848e-10
4.70267e-10
4.7169e-10
4.73117e-10
4.74548e-10
4.75984e-10
4.77425e-10
4.78871e-10
4.80322e-10
4.81778e-10
4.8324e-10
4.84707e-10
4.86179e-10
4.87658e-10
4.89142e-10
4.90633e-10
4.9213e-10
4.93633e-10
4.95142e-10
4.96658e-10
4.9818e-10
4.99709e-10
5.01245e-10
5.02788e-10
5.04337e-10
5.05893e-10
5.07456e-10
5.09026e-10
5.10603e-10
5.12186e-10
5.13777e-10
5.15374e-10
5.16978e-10
5.18589e-10
5.20205e-10
5.21828e-10
5.23457e-10
5.25092e-10
5.26732e-10
5.28377e-10
5.30027e-10
5.3168e-10
5.33337e-10
5.34995e-10
5.36656e-10
5.38317e-10
5.39977e-10
5.41633e-10
5.43284e-10
5.44929e-10
5.46563e-10
5.48186e-10
5.49793e-10
5.5138e-10
5.52943e-10
5.54476e-10
5.55978e-10
5.5744e-10
5.5886e-10
5.60229e-10
5.61544e-10
5.62798e-10
5.63986e-10
5.65106e-10
5.66153e-10
5.67124e-10
5.68017e-10
5.6883e-10
5.69566e-10
5.70224e-10
5.70808e-10
5.71322e-10
5.71769e-10
5.72155e-10
5.72485e-10
5.72769e-10
5.73014e-10
5.73234e-10
5.73443e-10
5.73666e-10
5.73943e-10
5.74342e-10
5.74982e-10
5.76072e-10
5.77974e-10
5.81323e-10
5.87198e-10
5.97358e-10
6.14441e-10
6.41798e-10
6.82317e-10
7.35775e-10
7.96237e-10
8.53367e-10
8.98455e-10
9.28979e-10
9.47449e-10
9.57846e-10
9.63455e-10
9.66408e-10
9.67942e-10
9.68731e-10
9.69135e-10
9.69339e-10
9.69439e-10
9.69487e-10
9.69507e-10
9.69512e-10
9.69511e-10
9.69505e-10
9.69496e-10
9.69486e-10
9.69475e-10
9.69463e-10
9.69451e-10
9.69437e-10
9.69423e-10
9.69407e-10
9.69391e-10
9.69373e-10
9.69355e-10
9.69335e-10
9.69314e-10
9.69291e-10
9.69267e-10
9.69241e-10
9.69214e-10
9.69185e-10
9.69155e-10
9.69122e-10
9.69088e-10
9.69052e-10
9.69014e-10
9.68974e-10
9.68932e-10
9.68889e-10
9.68843e-10
9.68796e-10
9.68747e-10
9.68696e-10
9.68645e-10
9.68591e-10
9.68537e-10
9.68482e-10
9.68426e-10
9.68369e-10
9.68313e-10
9.68256e-10
9.682e-10
9.68144e-10
9.68089e-10
9.68036e-10
9.67984e-10
9.67934e-10
9.67886e-10
9.6784e-10
9.67798e-10
9.67758e-10
9.67722e-10
9.6769e-10
9.67662e-10
9.67638e-10
9.67619e-10
9.67604e-10
9.67595e-10
9.67591e-10
9.6759e-10
9.6759e-10
9.67593e-10
9.67604e-10
9.67623e-10
9.67647e-10
9.67674e-10
9.67706e-10
9.67742e-10
9.6778e-10
9.67822e-10
9.67867e-10
9.67914e-10
9.67963e-10
9.68013e-10
9.68065e-10
9.68118e-10
9.68171e-10
9.68225e-10
9.68279e-10
9.68332e-10
9.68384e-10
9.68435e-10
9.68485e-10
9.68533e-10
9.6858e-10
9.68625e-10
9.68668e-10
9.68709e-10
9.68748e-10
9.68784e-10
9.68819e-10
9.68852e-10
9.68882e-10
9.68911e-10
9.68937e-10
9.68962e-10
9.68985e-10
9.69006e-10
9.69026e-10
9.69044e-10
9.69062e-10
9.69077e-10
9.69092e-10
9.69106e-10
9.69119e-10
9.69132e-10
9.69144e-10
9.69155e-10
9.69166e-10
9.69176e-10
9.69186e-10
9.69196e-10
9.69206e-10
9.69215e-10
9.69225e-10
9.69235e-10
9.69244e-10
9.69254e-10
9.69263e-10
9.69273e-10
9.69283e-10
9.69293e-10
9.69302e-10
9.69312e-10
9.69322e-10
9.69333e-10
9.69343e-10
9.69353e-10
9.69363e-10
9.69374e-10
9.69384e-10
9.69394e-10
9.69405e-10
9.69415e-10
9.69425e-10
9.69436e-10
9.69446e-10
9.69456e-10
9.69466e-10
9.69475e-10
9.69485e-10
9.69495e-10
9.69504e-10
9.69513e-10
9.69522e-10
9.69531e-10
9.69539e-10
9.69548e-10
9.69556e-10
9.69564e-10
9.69572e-10
9.69579e-10
9.69586e-10
9.69593e-10
9.696e-10
9.69606e-10
9.69612e-10
9.69618e-10
9.69624e-10
9.69629e-10
9.69634e-10
9.69639e-10
9.69643e-10
9.69647e-10
9.6965e-10
9.69654e-10
9.69657e-10
9.6966e-10
9.69662e-10
9.69664e-10
9.69666e-10
9.69667e-10
9.69668e-10
9.69669e-10
9.69669e-10
9.6967e-10
9.6967e-10
9.6967e-10
9.69669e-10
9.69668e-10
9.69667e-10
9.69665e-10
9.69663e-10
9.69661e-10
9.69658e-10
9.69656e-10
9.69653e-10
9.69649e-10
9.69646e-10
9.69642e-10
9.69638e-10
9.69634e-10
9.69629e-10
9.69624e-10
9.69619e-10
9.69614e-10
9.69608e-10
9.69602e-10
9.69595e-10
9.69589e-10
9.69582e-10
9.69574e-10
9.69566e-10
9.69558e-10
9.69549e-10
9.69539e-10
9.6953e-10
9.69519e-10
9.69508e-10
9.69497e-10
9.69485e-10
9.69472e-10
9.69459e-10
9.69444e-10
9.69429e-10
9.69414e-10
9.69397e-10
9.69379e-10
9.69361e-10
9.69341e-10
9.6932e-10
9.69298e-10
9.69275e-10
9.69251e-10
9.69225e-10
9.69197e-10
9.69169e-10
9.69139e-10
9.69107e-10
9.69074e-10
9.69039e-10
9.69003e-10
9.68965e-10
9.68926e-10
9.68885e-10
9.68843e-10
9.688e-10
9.68755e-10
9.6871e-10
9.68663e-10
9.68615e-10
9.68567e-10
9.68518e-10
9.68468e-10
9.68419e-10
9.68369e-10
9.68319e-10
9.68269e-10
9.6822e-10
9.68172e-10
9.68125e-10
9.68079e-10
9.68035e-10
9.67992e-10
9.67952e-10
9.67913e-10
9.67878e-10
9.67844e-10
9.67814e-10
9.67787e-10
9.67763e-10
9.67743e-10
9.67726e-10
9.67713e-10
9.67704e-10
9.67699e-10
9.67697e-10
9.67697e-10
9.67697e-10
9.67701e-10
9.67716e-10
9.67733e-10
9.67755e-10
9.67779e-10
9.67807e-10
9.67838e-10
9.67871e-10
9.67907e-10
9.67946e-10
9.67986e-10
9.68028e-10
9.68071e-10
9.68116e-10
9.68161e-10
9.68207e-10
9.68253e-10
9.68299e-10
9.68345e-10
9.6839e-10
9.68435e-10
9.68478e-10
9.68521e-10
9.68563e-10
9.68603e-10
9.68642e-10
9.68679e-10
9.68715e-10
9.68749e-10
9.68782e-10
9.68813e-10
9.68842e-10
9.6887e-10
9.68896e-10
9.68921e-10
9.68944e-10
9.68966e-10
9.68986e-10
9.69006e-10
9.69024e-10
9.69041e-10
9.69057e-10
9.69073e-10
9.69087e-10
9.69101e-10
9.69114e-10
9.69127e-10
9.69139e-10
9.6915e-10
9.69162e-10
9.69173e-10
9.69183e-10
9.69194e-10
9.69204e-10
9.69215e-10
9.69225e-10
9.69235e-10
9.69245e-10
9.69255e-10
9.69265e-10
9.69275e-10
9.69285e-10
9.69295e-10
9.69305e-10
9.69315e-10
9.69325e-10
9.69336e-10
9.69346e-10
9.69356e-10
9.69366e-10
9.69376e-10
9.69386e-10
9.69397e-10
9.69407e-10
9.69417e-10
9.69427e-10
)
;

boundaryField
{
    inlet
    {
        type            calculated;
        value           uniform 0;
    }
    outlet
    {
        type            calculated;
        value           uniform 9.69437e-10;
    }
    emptyWalls
    {
        type            empty;
        value           nonuniform List<scalar> 0();
    }
}


// ************************************************************************* //
