/*--------------------------------*- C++ -*----------------------------------*\
  =========                 |
  \\      /  F ield         | OpenFOAM: The Open Source CFD Toolbox
   \\    /   O peration     | Website:  https://openfoam.org
    \\  /    A nd           | Version:  9
     \\/     M anipulation  |
\*---------------------------------------------------------------------------*/
FoamFile
{
    format      ascii;
    class       volVectorField;
    location    "15900";
    object      Ua;
}
// * * * * * * * * * * * * * * * * * * * * * * * * * * * * * * * * * * * * * //

dimensions      [0 0 0 0 0 0 0];

internalField   nonuniform List<vector> 
1000
(
(2.74904e-06 0 0)
(2.7487e-06 0 0)
(2.74848e-06 0 0)
(2.74812e-06 0 0)
(2.74777e-06 0 0)
(2.74725e-06 0 0)
(2.74666e-06 0 0)
(2.74598e-06 0 0)
(2.74499e-06 0 0)
(2.74405e-06 0 0)
(2.74285e-06 0 0)
(2.74173e-06 0 0)
(2.74063e-06 0 0)
(2.73951e-06 0 0)
(2.73855e-06 0 0)
(2.73758e-06 0 0)
(2.73674e-06 0 0)
(2.73591e-06 0 0)
(2.73483e-06 0 0)
(2.73198e-06 0 0)
(2.72161e-06 0 0)
(2.6719e-06 0 0)
(2.43871e-06 0 0)
(2.1978e-06 0 0)
(2.13533e-06 0 0)
(2.11605e-06 0 0)
(2.10626e-06 0 0)
(2.09971e-06 0 0)
(2.09468e-06 0 0)
(2.09054e-06 0 0)
(2.08698e-06 0 0)
(2.08385e-06 0 0)
(2.08108e-06 0 0)
(2.07861e-06 0 0)
(2.07639e-06 0 0)
(2.07443e-06 0 0)
(2.07266e-06 0 0)
(2.07101e-06 0 0)
(2.06947e-06 0 0)
(2.068e-06 0 0)
(2.06658e-06 0 0)
(2.06522e-06 0 0)
(2.06395e-06 0 0)
(2.06284e-06 0 0)
(2.06189e-06 0 0)
(2.06105e-06 0 0)
(2.06034e-06 0 0)
(2.05966e-06 0 0)
(2.05894e-06 0 0)
(2.05815e-06 0 0)
(2.05733e-06 0 0)
(2.05658e-06 0 0)
(2.05603e-06 0 0)
(2.0558e-06 0 0)
(2.056e-06 0 0)
(2.05672e-06 0 0)
(2.05816e-06 0 0)
(2.06035e-06 0 0)
(2.06317e-06 0 0)
(2.06642e-06 0 0)
(2.06979e-06 0 0)
(2.07297e-06 0 0)
(2.07588e-06 0 0)
(2.07849e-06 0 0)
(2.0808e-06 0 0)
(2.08276e-06 0 0)
(2.08424e-06 0 0)
(2.08508e-06 0 0)
(2.0851e-06 0 0)
(2.08422e-06 0 0)
(2.08241e-06 0 0)
(2.07976e-06 0 0)
(2.07642e-06 0 0)
(2.0726e-06 0 0)
(2.06852e-06 0 0)
(2.0644e-06 0 0)
(2.06044e-06 0 0)
(2.0568e-06 0 0)
(2.05359e-06 0 0)
(2.05089e-06 0 0)
(2.04872e-06 0 0)
(2.04708e-06 0 0)
(2.04592e-06 0 0)
(2.04519e-06 0 0)
(2.0448e-06 0 0)
(2.04468e-06 0 0)
(2.04474e-06 0 0)
(2.04491e-06 0 0)
(2.04513e-06 0 0)
(2.04534e-06 0 0)
(2.0455e-06 0 0)
(2.0456e-06 0 0)
(2.04561e-06 0 0)
(2.04552e-06 0 0)
(2.04535e-06 0 0)
(2.04509e-06 0 0)
(2.04476e-06 0 0)
(2.04436e-06 0 0)
(2.04391e-06 0 0)
(2.04341e-06 0 0)
(2.04288e-06 0 0)
(2.04233e-06 0 0)
(2.04175e-06 0 0)
(2.04117e-06 0 0)
(2.04058e-06 0 0)
(2.03998e-06 0 0)
(2.03939e-06 0 0)
(2.03879e-06 0 0)
(2.0382e-06 0 0)
(2.03762e-06 0 0)
(2.03705e-06 0 0)
(2.03648e-06 0 0)
(2.03592e-06 0 0)
(2.03537e-06 0 0)
(2.03483e-06 0 0)
(2.0343e-06 0 0)
(2.03378e-06 0 0)
(2.03327e-06 0 0)
(2.03278e-06 0 0)
(2.03229e-06 0 0)
(2.03181e-06 0 0)
(2.03135e-06 0 0)
(2.0309e-06 0 0)
(2.03046e-06 0 0)
(2.03003e-06 0 0)
(2.02962e-06 0 0)
(2.02922e-06 0 0)
(2.02883e-06 0 0)
(2.02845e-06 0 0)
(2.02808e-06 0 0)
(2.02773e-06 0 0)
(2.02739e-06 0 0)
(2.02707e-06 0 0)
(2.02675e-06 0 0)
(2.02645e-06 0 0)
(2.02616e-06 0 0)
(2.02589e-06 0 0)
(2.02562e-06 0 0)
(2.02537e-06 0 0)
(2.02513e-06 0 0)
(2.02491e-06 0 0)
(2.0247e-06 0 0)
(2.0245e-06 0 0)
(2.02431e-06 0 0)
(2.02414e-06 0 0)
(2.02399e-06 0 0)
(2.02385e-06 0 0)
(2.02372e-06 0 0)
(2.0236e-06 0 0)
(2.02348e-06 0 0)
(2.02337e-06 0 0)
(2.02327e-06 0 0)
(2.02316e-06 0 0)
(2.02306e-06 0 0)
(2.02296e-06 0 0)
(2.02285e-06 0 0)
(2.02275e-06 0 0)
(2.02265e-06 0 0)
(2.02256e-06 0 0)
(2.02248e-06 0 0)
(2.02242e-06 0 0)
(2.02236e-06 0 0)
(2.02232e-06 0 0)
(2.02228e-06 0 0)
(2.02225e-06 0 0)
(2.02221e-06 0 0)
(2.02217e-06 0 0)
(2.02212e-06 0 0)
(2.02207e-06 0 0)
(2.02203e-06 0 0)
(2.022e-06 0 0)
(2.022e-06 0 0)
(2.02205e-06 0 0)
(2.02218e-06 0 0)
(2.0224e-06 0 0)
(2.02274e-06 0 0)
(2.02323e-06 0 0)
(2.02386e-06 0 0)
(2.02465e-06 0 0)
(2.02562e-06 0 0)
(2.02675e-06 0 0)
(2.02803e-06 0 0)
(2.02946e-06 0 0)
(2.03102e-06 0 0)
(2.03269e-06 0 0)
(2.03442e-06 0 0)
(2.0362e-06 0 0)
(2.03798e-06 0 0)
(2.03972e-06 0 0)
(2.04137e-06 0 0)
(2.04289e-06 0 0)
(2.04423e-06 0 0)
(2.04534e-06 0 0)
(2.04618e-06 0 0)
(2.04672e-06 0 0)
(2.04692e-06 0 0)
(2.04678e-06 0 0)
(2.04627e-06 0 0)
(2.04542e-06 0 0)
(2.04422e-06 0 0)
(2.04273e-06 0 0)
(2.04096e-06 0 0)
(2.03898e-06 0 0)
(2.03683e-06 0 0)
(2.03457e-06 0 0)
(2.03226e-06 0 0)
(2.02996e-06 0 0)
(2.0277e-06 0 0)
(2.02554e-06 0 0)
(2.02352e-06 0 0)
(2.02164e-06 0 0)
(2.01994e-06 0 0)
(2.01842e-06 0 0)
(2.01709e-06 0 0)
(2.01594e-06 0 0)
(2.01496e-06 0 0)
(2.01413e-06 0 0)
(2.01345e-06 0 0)
(2.01289e-06 0 0)
(2.01242e-06 0 0)
(2.01205e-06 0 0)
(2.01173e-06 0 0)
(2.01146e-06 0 0)
(2.01122e-06 0 0)
(2.011e-06 0 0)
(2.01078e-06 0 0)
(2.01055e-06 0 0)
(2.01032e-06 0 0)
(2.01007e-06 0 0)
(2.00979e-06 0 0)
(2.00949e-06 0 0)
(2.00917e-06 0 0)
(2.00882e-06 0 0)
(2.00844e-06 0 0)
(2.00804e-06 0 0)
(2.00762e-06 0 0)
(2.00718e-06 0 0)
(2.00672e-06 0 0)
(2.00625e-06 0 0)
(2.00576e-06 0 0)
(2.00527e-06 0 0)
(2.00476e-06 0 0)
(2.00426e-06 0 0)
(2.00374e-06 0 0)
(2.00323e-06 0 0)
(2.00271e-06 0 0)
(2.0022e-06 0 0)
(2.00169e-06 0 0)
(2.00118e-06 0 0)
(2.00067e-06 0 0)
(2.00017e-06 0 0)
(1.99967e-06 0 0)
(1.99918e-06 0 0)
(1.99869e-06 0 0)
(1.99821e-06 0 0)
(1.99774e-06 0 0)
(1.99728e-06 0 0)
(1.99682e-06 0 0)
(1.99637e-06 0 0)
(1.99592e-06 0 0)
(1.99549e-06 0 0)
(1.99506e-06 0 0)
(1.99464e-06 0 0)
(1.99423e-06 0 0)
(1.99383e-06 0 0)
(1.99344e-06 0 0)
(1.99305e-06 0 0)
(1.99267e-06 0 0)
(1.99231e-06 0 0)
(1.99195e-06 0 0)
(1.99159e-06 0 0)
(1.99125e-06 0 0)
(1.99092e-06 0 0)
(1.99059e-06 0 0)
(1.99028e-06 0 0)
(1.98997e-06 0 0)
(1.98967e-06 0 0)
(1.98938e-06 0 0)
(1.9891e-06 0 0)
(1.98883e-06 0 0)
(1.98857e-06 0 0)
(1.98831e-06 0 0)
(1.98806e-06 0 0)
(1.98783e-06 0 0)
(1.9876e-06 0 0)
(1.98738e-06 0 0)
(1.98717e-06 0 0)
(1.98696e-06 0 0)
(1.98676e-06 0 0)
(1.98657e-06 0 0)
(1.98639e-06 0 0)
(1.98621e-06 0 0)
(1.98603e-06 0 0)
(1.98586e-06 0 0)
(1.9857e-06 0 0)
(1.98553e-06 0 0)
(1.98538e-06 0 0)
(1.98522e-06 0 0)
(1.98507e-06 0 0)
(1.98492e-06 0 0)
(1.98478e-06 0 0)
(1.98464e-06 0 0)
(1.9845e-06 0 0)
(1.98437e-06 0 0)
(1.98424e-06 0 0)
(1.98412e-06 0 0)
(1.984e-06 0 0)
(1.98388e-06 0 0)
(1.98376e-06 0 0)
(1.98365e-06 0 0)
(1.98355e-06 0 0)
(1.98345e-06 0 0)
(1.98337e-06 0 0)
(1.9833e-06 0 0)
(1.98324e-06 0 0)
(1.98321e-06 0 0)
(1.98321e-06 0 0)
(1.98324e-06 0 0)
(1.98331e-06 0 0)
(1.98343e-06 0 0)
(1.9836e-06 0 0)
(1.98384e-06 0 0)
(1.98414e-06 0 0)
(1.98451e-06 0 0)
(1.98496e-06 0 0)
(1.98549e-06 0 0)
(1.9861e-06 0 0)
(1.98679e-06 0 0)
(1.98755e-06 0 0)
(1.9884e-06 0 0)
(1.98931e-06 0 0)
(1.99028e-06 0 0)
(1.9913e-06 0 0)
(1.99236e-06 0 0)
(1.99345e-06 0 0)
(1.99455e-06 0 0)
(1.99565e-06 0 0)
(1.99672e-06 0 0)
(1.99776e-06 0 0)
(1.99873e-06 0 0)
(1.99963e-06 0 0)
(2.00043e-06 0 0)
(2.00111e-06 0 0)
(2.00166e-06 0 0)
(2.00206e-06 0 0)
(2.00231e-06 0 0)
(2.00238e-06 0 0)
(2.00228e-06 0 0)
(2.00199e-06 0 0)
(2.00153e-06 0 0)
(2.00089e-06 0 0)
(2.00007e-06 0 0)
(1.99911e-06 0 0)
(1.99799e-06 0 0)
(1.99675e-06 0 0)
(1.99541e-06 0 0)
(1.99397e-06 0 0)
(1.99248e-06 0 0)
(1.99094e-06 0 0)
(1.98937e-06 0 0)
(1.98781e-06 0 0)
(1.98627e-06 0 0)
(1.98476e-06 0 0)
(1.98331e-06 0 0)
(1.98191e-06 0 0)
(1.98059e-06 0 0)
(1.97935e-06 0 0)
(1.97819e-06 0 0)
(1.97712e-06 0 0)
(1.97613e-06 0 0)
(1.97523e-06 0 0)
(1.97441e-06 0 0)
(1.97367e-06 0 0)
(1.97299e-06 0 0)
(1.97238e-06 0 0)
(1.97183e-06 0 0)
(1.97133e-06 0 0)
(1.97086e-06 0 0)
(1.97044e-06 0 0)
(1.97004e-06 0 0)
(1.96966e-06 0 0)
(1.9693e-06 0 0)
(1.96896e-06 0 0)
(1.96862e-06 0 0)
(1.96828e-06 0 0)
(1.96794e-06 0 0)
(1.96759e-06 0 0)
(1.96724e-06 0 0)
(1.96689e-06 0 0)
(1.96652e-06 0 0)
(1.96614e-06 0 0)
(1.96576e-06 0 0)
(1.96536e-06 0 0)
(1.96495e-06 0 0)
(1.96454e-06 0 0)
(1.96411e-06 0 0)
(1.96367e-06 0 0)
(1.96323e-06 0 0)
(1.96278e-06 0 0)
(1.96232e-06 0 0)
(1.96186e-06 0 0)
(1.96139e-06 0 0)
(1.96092e-06 0 0)
(1.96045e-06 0 0)
(1.95997e-06 0 0)
(1.9595e-06 0 0)
(1.95902e-06 0 0)
(1.95854e-06 0 0)
(1.95807e-06 0 0)
(1.95759e-06 0 0)
(1.95712e-06 0 0)
(1.95665e-06 0 0)
(1.95618e-06 0 0)
(1.95572e-06 0 0)
(1.95526e-06 0 0)
(1.95481e-06 0 0)
(1.95436e-06 0 0)
(1.95391e-06 0 0)
(1.95347e-06 0 0)
(1.95303e-06 0 0)
(1.9526e-06 0 0)
(1.95217e-06 0 0)
(1.95175e-06 0 0)
(1.95134e-06 0 0)
(1.95093e-06 0 0)
(1.95052e-06 0 0)
(1.95013e-06 0 0)
(1.94974e-06 0 0)
(1.94935e-06 0 0)
(1.94897e-06 0 0)
(1.9486e-06 0 0)
(1.94824e-06 0 0)
(1.94788e-06 0 0)
(1.94752e-06 0 0)
(1.94718e-06 0 0)
(1.94684e-06 0 0)
(1.9465e-06 0 0)
(1.94618e-06 0 0)
(1.94586e-06 0 0)
(1.94554e-06 0 0)
(1.94524e-06 0 0)
(1.94494e-06 0 0)
(1.94464e-06 0 0)
(1.94436e-06 0 0)
(1.94407e-06 0 0)
(1.9438e-06 0 0)
(1.94353e-06 0 0)
(1.94327e-06 0 0)
(1.94301e-06 0 0)
(1.94276e-06 0 0)
(1.94252e-06 0 0)
(1.94228e-06 0 0)
(1.94204e-06 0 0)
(1.94181e-06 0 0)
(1.94158e-06 0 0)
(1.94136e-06 0 0)
(1.94115e-06 0 0)
(1.94094e-06 0 0)
(1.94073e-06 0 0)
(1.94052e-06 0 0)
(1.94032e-06 0 0)
(1.94013e-06 0 0)
(1.93993e-06 0 0)
(1.93974e-06 0 0)
(1.93956e-06 0 0)
(1.93938e-06 0 0)
(1.9392e-06 0 0)
(1.93902e-06 0 0)
(1.93885e-06 0 0)
(1.93869e-06 0 0)
(1.93852e-06 0 0)
(1.93837e-06 0 0)
(1.93822e-06 0 0)
(1.93807e-06 0 0)
(1.93793e-06 0 0)
(1.93781e-06 0 0)
(1.93769e-06 0 0)
(1.93758e-06 0 0)
(1.93749e-06 0 0)
(1.93742e-06 0 0)
(1.93736e-06 0 0)
(1.93733e-06 0 0)
(1.93731e-06 0 0)
(1.93733e-06 0 0)
(1.93737e-06 0 0)
(1.93745e-06 0 0)
(1.93756e-06 0 0)
(1.93771e-06 0 0)
(1.93789e-06 0 0)
(1.93812e-06 0 0)
(1.93839e-06 0 0)
(1.93871e-06 0 0)
(1.93906e-06 0 0)
(1.93947e-06 0 0)
(1.93992e-06 0 0)
(1.94041e-06 0 0)
(1.94094e-06 0 0)
(1.94151e-06 0 0)
(1.94211e-06 0 0)
(1.94275e-06 0 0)
(1.94341e-06 0 0)
(1.94409e-06 0 0)
(1.94479e-06 0 0)
(1.94549e-06 0 0)
(1.9462e-06 0 0)
(1.94689e-06 0 0)
(1.94757e-06 0 0)
(1.94823e-06 0 0)
(1.94885e-06 0 0)
(1.94943e-06 0 0)
(1.94996e-06 0 0)
(1.95043e-06 0 0)
(1.95083e-06 0 0)
(1.95115e-06 0 0)
(1.95139e-06 0 0)
(1.95154e-06 0 0)
(1.95159e-06 0 0)
(1.95154e-06 0 0)
(1.9514e-06 0 0)
(1.95114e-06 0 0)
(1.95078e-06 0 0)
(1.95032e-06 0 0)
(1.94976e-06 0 0)
(1.94909e-06 0 0)
(1.94834e-06 0 0)
(1.94749e-06 0 0)
(1.94657e-06 0 0)
(1.94558e-06 0 0)
(1.94452e-06 0 0)
(1.94341e-06 0 0)
(1.94226e-06 0 0)
(1.94108e-06 0 0)
(1.93988e-06 0 0)
(1.93866e-06 0 0)
(1.93744e-06 0 0)
(1.93623e-06 0 0)
(1.93504e-06 0 0)
(1.93386e-06 0 0)
(1.93271e-06 0 0)
(1.9316e-06 0 0)
(1.93052e-06 0 0)
(1.92949e-06 0 0)
(1.9285e-06 0 0)
(1.92755e-06 0 0)
(1.92665e-06 0 0)
(1.9258e-06 0 0)
(1.92498e-06 0 0)
(1.92422e-06 0 0)
(1.92349e-06 0 0)
(1.9228e-06 0 0)
(1.92215e-06 0 0)
(1.92153e-06 0 0)
(1.92095e-06 0 0)
(1.92039e-06 0 0)
(1.91985e-06 0 0)
(1.91933e-06 0 0)
(1.91883e-06 0 0)
(1.91835e-06 0 0)
(1.91788e-06 0 0)
(1.91741e-06 0 0)
(1.91696e-06 0 0)
(1.91651e-06 0 0)
(1.91606e-06 0 0)
(1.91561e-06 0 0)
(1.91517e-06 0 0)
(1.91472e-06 0 0)
(1.91427e-06 0 0)
(1.91381e-06 0 0)
(1.91336e-06 0 0)
(1.9129e-06 0 0)
(1.91243e-06 0 0)
(1.91196e-06 0 0)
(1.91148e-06 0 0)
(1.911e-06 0 0)
(1.91052e-06 0 0)
(1.91003e-06 0 0)
(1.90954e-06 0 0)
(1.90904e-06 0 0)
(1.90854e-06 0 0)
(1.90804e-06 0 0)
(1.90753e-06 0 0)
(1.90703e-06 0 0)
(1.90652e-06 0 0)
(1.90601e-06 0 0)
(1.9055e-06 0 0)
(1.90499e-06 0 0)
(1.90448e-06 0 0)
(1.90397e-06 0 0)
(1.90347e-06 0 0)
(1.90296e-06 0 0)
(1.90246e-06 0 0)
(1.90196e-06 0 0)
(1.90147e-06 0 0)
(1.90098e-06 0 0)
(1.90049e-06 0 0)
(1.90001e-06 0 0)
(1.89953e-06 0 0)
(1.89906e-06 0 0)
(1.8986e-06 0 0)
(1.89815e-06 0 0)
(1.8977e-06 0 0)
(1.89727e-06 0 0)
(1.89684e-06 0 0)
(1.89643e-06 0 0)
(1.89603e-06 0 0)
(1.89564e-06 0 0)
(1.89527e-06 0 0)
(1.89491e-06 0 0)
(1.89457e-06 0 0)
(1.89425e-06 0 0)
(1.89395e-06 0 0)
(1.89366e-06 0 0)
(1.8934e-06 0 0)
(1.89315e-06 0 0)
(1.89293e-06 0 0)
(1.89273e-06 0 0)
(1.89255e-06 0 0)
(1.89239e-06 0 0)
(1.89224e-06 0 0)
(1.89212e-06 0 0)
(1.89202e-06 0 0)
(1.89192e-06 0 0)
(1.89185e-06 0 0)
(1.89179e-06 0 0)
(1.89174e-06 0 0)
(1.8917e-06 0 0)
(1.89166e-06 0 0)
(1.89163e-06 0 0)
(1.89157e-06 0 0)
(1.8915e-06 0 0)
(1.89136e-06 0 0)
(1.89111e-06 0 0)
(1.89065e-06 0 0)
(1.88983e-06 0 0)
(1.88841e-06 0 0)
(1.88601e-06 0 0)
(1.88222e-06 0 0)
(1.87677e-06 0 0)
(1.86992e-06 0 0)
(1.86279e-06 0 0)
(1.85682e-06 0 0)
(1.85283e-06 0 0)
(1.85064e-06 0 0)
(1.84958e-06 0 0)
(1.84912e-06 0 0)
(1.84894e-06 0 0)
(1.8489e-06 0 0)
(1.84892e-06 0 0)
(1.84898e-06 0 0)
(1.84906e-06 0 0)
(1.84914e-06 0 0)
(1.84924e-06 0 0)
(1.84934e-06 0 0)
(1.84945e-06 0 0)
(1.84956e-06 0 0)
(1.84968e-06 0 0)
(1.8498e-06 0 0)
(1.84993e-06 0 0)
(1.85007e-06 0 0)
(1.85021e-06 0 0)
(1.85036e-06 0 0)
(1.85052e-06 0 0)
(1.85068e-06 0 0)
(1.85086e-06 0 0)
(1.85105e-06 0 0)
(1.85125e-06 0 0)
(1.85147e-06 0 0)
(1.8517e-06 0 0)
(1.85194e-06 0 0)
(1.8522e-06 0 0)
(1.85248e-06 0 0)
(1.85278e-06 0 0)
(1.85309e-06 0 0)
(1.85343e-06 0 0)
(1.85379e-06 0 0)
(1.85417e-06 0 0)
(1.85457e-06 0 0)
(1.85499e-06 0 0)
(1.85544e-06 0 0)
(1.85592e-06 0 0)
(1.85641e-06 0 0)
(1.85694e-06 0 0)
(1.85748e-06 0 0)
(1.85806e-06 0 0)
(1.85865e-06 0 0)
(1.85927e-06 0 0)
(1.85991e-06 0 0)
(1.86057e-06 0 0)
(1.86124e-06 0 0)
(1.86193e-06 0 0)
(1.86264e-06 0 0)
(1.86335e-06 0 0)
(1.86407e-06 0 0)
(1.8648e-06 0 0)
(1.86553e-06 0 0)
(1.86626e-06 0 0)
(1.86698e-06 0 0)
(1.86769e-06 0 0)
(1.86839e-06 0 0)
(1.86907e-06 0 0)
(1.86973e-06 0 0)
(1.87037e-06 0 0)
(1.87097e-06 0 0)
(1.87154e-06 0 0)
(1.87207e-06 0 0)
(1.87257e-06 0 0)
(1.87301e-06 0 0)
(1.87341e-06 0 0)
(1.87375e-06 0 0)
(1.87403e-06 0 0)
(1.87425e-06 0 0)
(1.87441e-06 0 0)
(1.87451e-06 0 0)
(1.87455e-06 0 0)
(1.87457e-06 0 0)
(1.87456e-06 0 0)
(1.87448e-06 0 0)
(1.87429e-06 0 0)
(1.87403e-06 0 0)
(1.87371e-06 0 0)
(1.87335e-06 0 0)
(1.87293e-06 0 0)
(1.87246e-06 0 0)
(1.87196e-06 0 0)
(1.87142e-06 0 0)
(1.87084e-06 0 0)
(1.87024e-06 0 0)
(1.86961e-06 0 0)
(1.86897e-06 0 0)
(1.86831e-06 0 0)
(1.86764e-06 0 0)
(1.86696e-06 0 0)
(1.86629e-06 0 0)
(1.86562e-06 0 0)
(1.86495e-06 0 0)
(1.8643e-06 0 0)
(1.86366e-06 0 0)
(1.86304e-06 0 0)
(1.86244e-06 0 0)
(1.86186e-06 0 0)
(1.86131e-06 0 0)
(1.86077e-06 0 0)
(1.86027e-06 0 0)
(1.85979e-06 0 0)
(1.85934e-06 0 0)
(1.85891e-06 0 0)
(1.85851e-06 0 0)
(1.85814e-06 0 0)
(1.85779e-06 0 0)
(1.85747e-06 0 0)
(1.85716e-06 0 0)
(1.85688e-06 0 0)
(1.85662e-06 0 0)
(1.85638e-06 0 0)
(1.85615e-06 0 0)
(1.85594e-06 0 0)
(1.85574e-06 0 0)
(1.85556e-06 0 0)
(1.85538e-06 0 0)
(1.85522e-06 0 0)
(1.85507e-06 0 0)
(1.85492e-06 0 0)
(1.85478e-06 0 0)
(1.85464e-06 0 0)
(1.85451e-06 0 0)
(1.85438e-06 0 0)
(1.85425e-06 0 0)
(1.85412e-06 0 0)
(1.854e-06 0 0)
(1.85388e-06 0 0)
(1.85375e-06 0 0)
(1.85363e-06 0 0)
(1.8535e-06 0 0)
(1.85338e-06 0 0)
(1.85325e-06 0 0)
(1.85312e-06 0 0)
(1.85299e-06 0 0)
(1.85287e-06 0 0)
(1.85274e-06 0 0)
(1.8526e-06 0 0)
(1.85247e-06 0 0)
(1.85234e-06 0 0)
(1.85221e-06 0 0)
(1.85207e-06 0 0)
(1.85194e-06 0 0)
(1.8518e-06 0 0)
(1.85167e-06 0 0)
(1.85154e-06 0 0)
(1.8514e-06 0 0)
(1.85127e-06 0 0)
(1.85114e-06 0 0)
(1.85101e-06 0 0)
(1.85088e-06 0 0)
(1.85076e-06 0 0)
(1.85063e-06 0 0)
(1.85051e-06 0 0)
(1.85039e-06 0 0)
(1.85027e-06 0 0)
(1.85015e-06 0 0)
(1.85004e-06 0 0)
(1.84993e-06 0 0)
(1.84982e-06 0 0)
(1.84971e-06 0 0)
(1.84961e-06 0 0)
(1.84951e-06 0 0)
(1.84942e-06 0 0)
(1.84932e-06 0 0)
(1.84923e-06 0 0)
(1.84915e-06 0 0)
(1.84906e-06 0 0)
(1.84898e-06 0 0)
(1.84891e-06 0 0)
(1.84884e-06 0 0)
(1.84877e-06 0 0)
(1.84871e-06 0 0)
(1.84864e-06 0 0)
(1.84859e-06 0 0)
(1.84854e-06 0 0)
(1.84849e-06 0 0)
(1.84844e-06 0 0)
(1.8484e-06 0 0)
(1.84837e-06 0 0)
(1.84833e-06 0 0)
(1.84831e-06 0 0)
(1.84828e-06 0 0)
(1.84826e-06 0 0)
(1.84825e-06 0 0)
(1.84824e-06 0 0)
(1.84823e-06 0 0)
(1.84823e-06 0 0)
(1.84822e-06 0 0)
(1.84822e-06 0 0)
(1.84823e-06 0 0)
(1.84824e-06 0 0)
(1.84826e-06 0 0)
(1.84828e-06 0 0)
(1.8483e-06 0 0)
(1.84833e-06 0 0)
(1.84836e-06 0 0)
(1.84839e-06 0 0)
(1.84843e-06 0 0)
(1.84847e-06 0 0)
(1.84852e-06 0 0)
(1.84857e-06 0 0)
(1.84862e-06 0 0)
(1.84868e-06 0 0)
(1.84874e-06 0 0)
(1.8488e-06 0 0)
(1.84887e-06 0 0)
(1.84893e-06 0 0)
(1.84901e-06 0 0)
(1.84908e-06 0 0)
(1.84916e-06 0 0)
(1.84925e-06 0 0)
(1.84934e-06 0 0)
(1.84943e-06 0 0)
(1.84952e-06 0 0)
(1.84963e-06 0 0)
(1.84973e-06 0 0)
(1.84984e-06 0 0)
(1.84996e-06 0 0)
(1.85008e-06 0 0)
(1.85021e-06 0 0)
(1.85034e-06 0 0)
(1.85049e-06 0 0)
(1.85064e-06 0 0)
(1.8508e-06 0 0)
(1.85097e-06 0 0)
(1.85114e-06 0 0)
(1.85133e-06 0 0)
(1.85153e-06 0 0)
(1.85175e-06 0 0)
(1.85197e-06 0 0)
(1.85221e-06 0 0)
(1.85246e-06 0 0)
(1.85273e-06 0 0)
(1.85302e-06 0 0)
(1.85332e-06 0 0)
(1.85364e-06 0 0)
(1.85397e-06 0 0)
(1.85433e-06 0 0)
(1.8547e-06 0 0)
(1.85509e-06 0 0)
(1.8555e-06 0 0)
(1.85593e-06 0 0)
(1.85639e-06 0 0)
(1.85686e-06 0 0)
(1.85735e-06 0 0)
(1.85785e-06 0 0)
(1.85838e-06 0 0)
(1.85892e-06 0 0)
(1.85948e-06 0 0)
(1.86006e-06 0 0)
(1.86065e-06 0 0)
(1.86125e-06 0 0)
(1.86186e-06 0 0)
(1.86248e-06 0 0)
(1.86311e-06 0 0)
(1.86374e-06 0 0)
(1.86438e-06 0 0)
(1.86501e-06 0 0)
(1.86564e-06 0 0)
(1.86627e-06 0 0)
(1.86689e-06 0 0)
(1.86749e-06 0 0)
(1.86809e-06 0 0)
(1.86866e-06 0 0)
(1.86921e-06 0 0)
(1.86974e-06 0 0)
(1.87024e-06 0 0)
(1.87072e-06 0 0)
(1.87116e-06 0 0)
(1.87156e-06 0 0)
(1.87193e-06 0 0)
(1.87225e-06 0 0)
(1.87253e-06 0 0)
(1.87277e-06 0 0)
(1.87296e-06 0 0)
(1.8731e-06 0 0)
(1.8732e-06 0 0)
(1.87324e-06 0 0)
(1.87326e-06 0 0)
(1.87326e-06 0 0)
(1.87323e-06 0 0)
(1.87311e-06 0 0)
(1.8729e-06 0 0)
(1.87266e-06 0 0)
(1.87237e-06 0 0)
(1.87204e-06 0 0)
(1.87167e-06 0 0)
(1.87126e-06 0 0)
(1.87082e-06 0 0)
(1.87035e-06 0 0)
(1.86985e-06 0 0)
(1.86933e-06 0 0)
(1.86879e-06 0 0)
(1.86823e-06 0 0)
(1.86766e-06 0 0)
(1.86709e-06 0 0)
(1.8665e-06 0 0)
(1.86592e-06 0 0)
(1.86534e-06 0 0)
(1.86476e-06 0 0)
(1.86419e-06 0 0)
(1.86363e-06 0 0)
(1.86308e-06 0 0)
(1.86254e-06 0 0)
(1.86203e-06 0 0)
(1.86152e-06 0 0)
(1.86104e-06 0 0)
(1.86058e-06 0 0)
(1.86013e-06 0 0)
(1.85971e-06 0 0)
(1.85931e-06 0 0)
(1.85893e-06 0 0)
(1.85856e-06 0 0)
(1.85822e-06 0 0)
(1.8579e-06 0 0)
(1.85759e-06 0 0)
(1.85731e-06 0 0)
(1.85704e-06 0 0)
(1.85678e-06 0 0)
(1.85655e-06 0 0)
(1.85632e-06 0 0)
(1.85611e-06 0 0)
(1.85591e-06 0 0)
(1.85572e-06 0 0)
(1.85554e-06 0 0)
(1.85537e-06 0 0)
(1.85521e-06 0 0)
(1.85505e-06 0 0)
(1.8549e-06 0 0)
(1.85475e-06 0 0)
(1.85461e-06 0 0)
(1.85447e-06 0 0)
(1.85434e-06 0 0)
(1.8542e-06 0 0)
(1.85407e-06 0 0)
(1.85394e-06 0 0)
(1.85381e-06 0 0)
(1.85369e-06 0 0)
(1.85356e-06 0 0)
(1.85343e-06 0 0)
(1.8533e-06 0 0)
(1.85318e-06 0 0)
(1.85305e-06 0 0)
(1.85292e-06 0 0)
(1.85279e-06 0 0)
(1.85266e-06 0 0)
(1.85253e-06 0 0)
(1.8524e-06 0 0)
(1.85227e-06 0 0)
(1.85214e-06 0 0)
(1.85201e-06 0 0)
(1.85188e-06 0 0)
(1.85176e-06 0 0)
(1.85163e-06 0 0)
(1.8515e-06 0 0)
(1.85137e-06 0 0)
(1.85124e-06 0 0)
)
;

boundaryField
{
    inlet
    {
        type            fixedValue;
        value           uniform (2.74882e-06 0 0);
    }
    outlet
    {
        type            zeroGradient;
    }
    emptyWalls
    {
        type            empty;
    }
}


// ************************************************************************* //
