/*--------------------------------*- C++ -*----------------------------------*\
  =========                 |
  \\      /  F ield         | OpenFOAM: The Open Source CFD Toolbox
   \\    /   O peration     | Website:  https://openfoam.org
    \\  /    A nd           | Version:  9
     \\/     M anipulation  |
\*---------------------------------------------------------------------------*/
FoamFile
{
    format      ascii;
    class       surfaceScalarField;
    location    "5200";
    object      phic;
}
// * * * * * * * * * * * * * * * * * * * * * * * * * * * * * * * * * * * * * //

dimensions      [0 2 0 0 0 0 0];

internalField   nonuniform List<scalar> 
999
(
2.95832e-14
1.16497e-13
2.33528e-13
4.0706e-13
8.88748e-13
2.4474e-12
9.95842e-12
1.96736e-11
2.15883e-11
2.24396e-11
2.30167e-11
2.34734e-11
2.3857e-11
2.41982e-11
2.45316e-11
2.48999e-11
2.54069e-11
2.61188e-11
2.71017e-11
2.83791e-11
2.98896e-11
3.15501e-11
3.33091e-11
3.51367e-11
3.70145e-11
3.89308e-11
4.08774e-11
4.28484e-11
4.48396e-11
4.6848e-11
4.88717e-11
5.09095e-11
5.29605e-11
5.50242e-11
5.71006e-11
5.91896e-11
6.12913e-11
6.34055e-11
6.5532e-11
6.76707e-11
6.98212e-11
7.19832e-11
7.41563e-11
7.63402e-11
7.85345e-11
8.07388e-11
8.29528e-11
8.51762e-11
8.74089e-11
8.96506e-11
9.19013e-11
9.41608e-11
9.6429e-11
9.87057e-11
1.00991e-10
1.03285e-10
1.05587e-10
1.07897e-10
1.10216e-10
1.12543e-10
1.14878e-10
1.17221e-10
1.19572e-10
1.21931e-10
1.24298e-10
1.26672e-10
1.29055e-10
1.31445e-10
1.33843e-10
1.36249e-10
1.38663e-10
1.41084e-10
1.43513e-10
1.4595e-10
1.48394e-10
1.50847e-10
1.53307e-10
1.55775e-10
1.58251e-10
1.60735e-10
1.63227e-10
1.65727e-10
1.68235e-10
1.70751e-10
1.73276e-10
1.75809e-10
1.7835e-10
1.80899e-10
1.83458e-10
1.86025e-10
1.886e-10
1.91185e-10
1.93778e-10
1.9638e-10
1.98992e-10
2.01612e-10
2.04242e-10
2.06881e-10
2.09529e-10
2.12187e-10
2.14854e-10
2.1753e-10
2.20216e-10
2.22912e-10
2.25618e-10
2.28333e-10
2.31059e-10
2.33794e-10
2.3654e-10
2.39296e-10
2.42062e-10
2.44839e-10
2.47626e-10
2.50424e-10
2.53233e-10
2.56053e-10
2.58884e-10
2.61727e-10
2.64581e-10
2.67447e-10
2.70325e-10
2.73215e-10
2.76118e-10
2.79033e-10
2.81962e-10
2.84903e-10
2.87858e-10
2.90827e-10
2.93809e-10
2.96805e-10
2.99816e-10
3.0284e-10
3.0588e-10
3.08933e-10
3.12002e-10
3.15087e-10
3.18186e-10
3.21302e-10
3.24434e-10
3.27582e-10
3.30748e-10
3.3393e-10
3.37129e-10
3.40346e-10
3.43579e-10
3.46831e-10
3.50099e-10
3.53385e-10
3.56689e-10
3.60009e-10
3.63348e-10
3.66703e-10
3.70077e-10
3.73469e-10
3.76881e-10
3.80312e-10
3.83763e-10
3.87236e-10
3.90732e-10
3.94252e-10
3.97797e-10
4.01369e-10
4.04971e-10
4.08604e-10
4.12269e-10
4.1597e-10
4.19707e-10
4.23484e-10
4.27303e-10
4.31165e-10
4.35073e-10
4.39028e-10
4.43032e-10
4.47087e-10
4.51192e-10
4.5535e-10
4.5956e-10
4.63821e-10
4.68132e-10
4.72494e-10
4.76904e-10
4.81363e-10
4.85868e-10
4.90417e-10
4.95007e-10
4.99634e-10
5.04293e-10
5.08978e-10
5.1368e-10
5.18388e-10
5.23087e-10
5.27759e-10
5.32379e-10
5.36919e-10
5.41348e-10
5.45637e-10
5.49764e-10
5.53723e-10
5.57546e-10
5.61328e-10
5.6528e-10
5.69815e-10
5.75682e-10
5.8416e-10
5.97303e-10
6.18081e-10
6.49985e-10
6.95376e-10
7.52499e-10
8.13604e-10
8.68039e-10
9.08754e-10
9.35178e-10
9.50707e-10
9.59286e-10
9.6386e-10
9.66254e-10
9.67494e-10
9.68136e-10
9.6847e-10
9.68646e-10
9.68742e-10
9.68798e-10
9.68833e-10
9.68858e-10
9.68879e-10
9.68897e-10
9.68915e-10
9.68933e-10
9.68951e-10
9.68969e-10
9.68987e-10
9.69006e-10
9.69026e-10
9.69046e-10
9.69066e-10
9.69087e-10
9.69107e-10
9.69129e-10
9.6915e-10
9.69172e-10
9.69194e-10
9.69216e-10
9.69239e-10
9.69261e-10
9.69284e-10
9.69306e-10
9.69329e-10
9.69351e-10
9.69374e-10
9.69396e-10
9.69418e-10
9.6944e-10
9.69462e-10
9.69483e-10
9.69504e-10
9.69524e-10
9.69544e-10
9.69563e-10
9.69581e-10
9.69599e-10
9.69616e-10
9.69632e-10
9.69647e-10
9.69662e-10
9.69676e-10
9.69688e-10
9.697e-10
9.69711e-10
9.69722e-10
9.69731e-10
9.6974e-10
9.69747e-10
9.69755e-10
9.69761e-10
9.69766e-10
9.69771e-10
9.69775e-10
9.69779e-10
9.69782e-10
9.69785e-10
9.69787e-10
9.69789e-10
9.69791e-10
9.69792e-10
9.69793e-10
9.69794e-10
9.69794e-10
9.69795e-10
9.69795e-10
9.69796e-10
9.69796e-10
9.69796e-10
9.69796e-10
9.69797e-10
9.69797e-10
9.69797e-10
9.69797e-10
9.69797e-10
9.69797e-10
9.69797e-10
9.69797e-10
9.69796e-10
9.69795e-10
9.69794e-10
9.69792e-10
9.6979e-10
9.69788e-10
9.69785e-10
9.69781e-10
9.69776e-10
9.69771e-10
9.69765e-10
9.69758e-10
9.6975e-10
9.69741e-10
9.69732e-10
9.69721e-10
9.69709e-10
9.69696e-10
9.69682e-10
9.69666e-10
9.6965e-10
9.69632e-10
9.69614e-10
9.69594e-10
9.69573e-10
9.69551e-10
9.69528e-10
9.69504e-10
9.69479e-10
9.69453e-10
9.69426e-10
9.69399e-10
9.6937e-10
9.6934e-10
9.69309e-10
9.69277e-10
9.69245e-10
9.69211e-10
9.69176e-10
9.69139e-10
9.69101e-10
9.69061e-10
9.6902e-10
9.68976e-10
9.6893e-10
9.68881e-10
9.68829e-10
9.68774e-10
9.68716e-10
9.68654e-10
9.68588e-10
9.68519e-10
9.68445e-10
9.68367e-10
9.68285e-10
9.68199e-10
9.68109e-10
9.68016e-10
9.67919e-10
9.6782e-10
9.67718e-10
9.67615e-10
9.67511e-10
9.67407e-10
9.67304e-10
9.67203e-10
9.67104e-10
9.6701e-10
9.66922e-10
9.66839e-10
9.66765e-10
9.66699e-10
9.66644e-10
9.66599e-10
9.66568e-10
9.66549e-10
9.66542e-10
9.66541e-10
9.66543e-10
9.66556e-10
9.66609e-10
9.66673e-10
9.66752e-10
9.66843e-10
9.66946e-10
9.67059e-10
9.6718e-10
9.67308e-10
9.67441e-10
9.67577e-10
9.67714e-10
9.67851e-10
9.67985e-10
9.68115e-10
9.68239e-10
9.68357e-10
9.68467e-10
9.68568e-10
9.68661e-10
9.68744e-10
9.68818e-10
9.68883e-10
9.68939e-10
9.68985e-10
9.69024e-10
9.69055e-10
9.69079e-10
9.69097e-10
9.6911e-10
9.69118e-10
9.69122e-10
9.69123e-10
9.69123e-10
9.69122e-10
9.69117e-10
9.6911e-10
9.69102e-10
9.69095e-10
9.69088e-10
9.69081e-10
9.69076e-10
9.69072e-10
9.6907e-10
9.69069e-10
9.69069e-10
9.69069e-10
9.69069e-10
9.69073e-10
9.69079e-10
9.69086e-10
9.69094e-10
9.69103e-10
9.69114e-10
9.69125e-10
9.69137e-10
9.69149e-10
9.69162e-10
9.69176e-10
9.6919e-10
9.69204e-10
9.69219e-10
9.69234e-10
9.69249e-10
9.69264e-10
9.69279e-10
9.69294e-10
9.6931e-10
9.69325e-10
9.6934e-10
9.69356e-10
9.69371e-10
9.69386e-10
9.69402e-10
9.69417e-10
9.69432e-10
9.69447e-10
9.69461e-10
9.69476e-10
9.69491e-10
9.69506e-10
9.69521e-10
9.69535e-10
9.69549e-10
9.69564e-10
9.69578e-10
9.69592e-10
9.69605e-10
9.69619e-10
9.69633e-10
9.69646e-10
9.6966e-10
9.69673e-10
9.69686e-10
9.69699e-10
9.69712e-10
9.69724e-10
9.69737e-10
9.69749e-10
9.6976e-10
9.69772e-10
9.69783e-10
9.69793e-10
9.69804e-10
9.69814e-10
9.69823e-10
9.69832e-10
9.6984e-10
9.69848e-10
9.69854e-10
9.69861e-10
9.69866e-10
9.69871e-10
9.69876e-10
9.6988e-10
9.69883e-10
9.69885e-10
9.69887e-10
9.69888e-10
9.69888e-10
9.69889e-10
9.69889e-10
9.69888e-10
9.69887e-10
9.69884e-10
9.69882e-10
9.69878e-10
9.69875e-10
9.69871e-10
9.69866e-10
9.69862e-10
9.69857e-10
9.69852e-10
9.69847e-10
9.69842e-10
9.69836e-10
9.69831e-10
9.69825e-10
9.6982e-10
9.69814e-10
9.69809e-10
9.69803e-10
9.69798e-10
9.69792e-10
9.69786e-10
9.6978e-10
9.69774e-10
9.69768e-10
9.69761e-10
9.69754e-10
9.69747e-10
9.69739e-10
9.6973e-10
9.69721e-10
9.69711e-10
9.697e-10
9.69688e-10
9.69675e-10
9.69661e-10
9.69646e-10
9.6963e-10
9.69612e-10
9.69593e-10
9.69572e-10
9.6955e-10
9.69526e-10
9.69501e-10
9.69473e-10
9.69444e-10
9.69413e-10
9.6938e-10
9.69345e-10
9.69308e-10
9.69269e-10
9.69227e-10
9.69183e-10
9.69136e-10
9.69087e-10
9.69034e-10
9.68979e-10
9.68921e-10
9.68861e-10
9.68797e-10
9.68731e-10
9.68661e-10
9.68589e-10
9.68513e-10
9.68435e-10
9.68355e-10
9.68272e-10
9.68186e-10
9.681e-10
9.68011e-10
9.67922e-10
9.67832e-10
9.67742e-10
9.67653e-10
9.67565e-10
9.67479e-10
9.67395e-10
9.67315e-10
9.67239e-10
9.67167e-10
9.67102e-10
9.67043e-10
9.66991e-10
9.66947e-10
9.66912e-10
9.66886e-10
9.66871e-10
9.66866e-10
9.66865e-10
9.66866e-10
9.66875e-10
9.66913e-10
9.66962e-10
9.67022e-10
9.67092e-10
9.67172e-10
9.6726e-10
9.67355e-10
9.67457e-10
9.67565e-10
9.67676e-10
9.67789e-10
9.67904e-10
9.68019e-10
9.68132e-10
9.68243e-10
9.68351e-10
9.68454e-10
9.68551e-10
9.68643e-10
9.68728e-10
9.68807e-10
9.68878e-10
9.68943e-10
9.69e-10
9.6905e-10
9.69094e-10
9.69131e-10
9.69162e-10
9.69188e-10
9.69209e-10
9.69225e-10
9.69237e-10
9.69246e-10
9.69251e-10
9.69254e-10
9.69255e-10
9.69255e-10
9.69255e-10
9.69251e-10
9.69247e-10
9.69242e-10
9.69237e-10
9.69232e-10
9.69227e-10
9.69223e-10
9.6922e-10
9.69218e-10
9.69216e-10
9.69215e-10
9.69215e-10
9.69215e-10
9.69215e-10
9.69217e-10
9.6922e-10
9.69223e-10
9.69227e-10
9.69232e-10
9.69236e-10
9.69242e-10
9.69247e-10
9.69253e-10
9.69259e-10
9.69264e-10
9.6927e-10
9.69276e-10
9.69282e-10
9.69288e-10
9.69293e-10
9.69298e-10
9.69304e-10
9.69309e-10
9.69314e-10
9.69318e-10
9.69323e-10
9.69328e-10
9.69332e-10
9.69336e-10
9.6934e-10
9.69345e-10
9.69349e-10
9.69353e-10
9.69357e-10
9.69362e-10
9.69366e-10
9.69371e-10
9.69375e-10
9.6938e-10
9.69385e-10
9.69391e-10
9.69397e-10
9.69403e-10
9.6941e-10
9.69416e-10
9.69424e-10
9.69431e-10
9.69439e-10
9.69447e-10
9.69456e-10
9.69466e-10
9.69475e-10
9.69485e-10
9.69496e-10
9.69507e-10
9.69518e-10
9.69529e-10
9.69541e-10
9.69553e-10
9.69565e-10
9.69577e-10
9.6959e-10
9.69602e-10
9.69615e-10
9.69627e-10
9.6964e-10
9.69652e-10
9.69664e-10
9.69675e-10
9.69687e-10
9.69698e-10
9.69708e-10
9.69718e-10
9.69728e-10
9.69737e-10
9.69745e-10
9.69752e-10
9.69759e-10
9.69765e-10
9.6977e-10
9.69774e-10
9.69778e-10
9.6978e-10
9.69782e-10
9.69782e-10
9.69783e-10
9.69783e-10
9.69782e-10
9.69779e-10
9.69776e-10
9.69771e-10
9.69765e-10
9.69759e-10
9.69752e-10
9.69744e-10
9.69735e-10
9.69726e-10
9.69716e-10
9.69706e-10
9.69695e-10
9.69683e-10
9.69671e-10
9.69659e-10
9.69646e-10
9.69633e-10
9.69619e-10
9.69605e-10
9.69591e-10
9.69576e-10
9.69561e-10
9.69546e-10
9.6953e-10
9.69514e-10
9.69497e-10
9.6948e-10
9.69462e-10
9.69443e-10
9.69423e-10
9.69403e-10
9.69381e-10
9.69358e-10
9.69333e-10
9.69308e-10
9.6928e-10
9.69251e-10
9.69219e-10
9.69185e-10
9.69149e-10
9.69111e-10
9.6907e-10
9.69026e-10
9.68979e-10
9.68929e-10
9.68876e-10
9.6882e-10
9.68761e-10
9.68698e-10
9.68633e-10
9.68564e-10
9.68493e-10
9.68419e-10
9.68342e-10
9.68262e-10
9.68181e-10
9.68098e-10
9.68014e-10
9.67928e-10
9.67842e-10
9.67756e-10
9.6767e-10
9.67586e-10
9.67502e-10
9.67421e-10
9.67343e-10
9.67268e-10
9.67198e-10
9.67132e-10
9.67072e-10
9.67019e-10
9.66972e-10
9.66932e-10
9.66901e-10
9.66879e-10
9.66866e-10
9.66862e-10
9.66861e-10
9.66862e-10
9.66872e-10
9.6691e-10
9.66955e-10
9.6701e-10
9.67075e-10
9.67148e-10
9.6723e-10
9.67319e-10
9.67414e-10
9.67514e-10
9.67619e-10
9.67727e-10
9.67837e-10
9.67948e-10
9.68059e-10
9.68169e-10
9.68276e-10
9.68381e-10
9.68482e-10
9.68578e-10
9.68669e-10
9.68755e-10
9.68835e-10
9.68909e-10
9.68976e-10
9.69038e-10
9.69093e-10
9.69143e-10
9.69186e-10
9.69223e-10
9.69256e-10
9.69283e-10
9.69306e-10
9.69325e-10
9.69341e-10
9.69353e-10
9.69362e-10
9.69368e-10
9.69376e-10
9.69398e-10
9.69646e-10
9.70577e-10
9.79349e-10
1.05725e-09
1.11178e-09
1.11438e-09
1.11437e-09
1.11437e-09
1.11437e-09
1.11437e-09
1.11437e-09
1.11437e-09
1.11437e-09
1.11437e-09
1.11437e-09
1.11437e-09
1.11437e-09
1.11437e-09
1.11437e-09
1.11437e-09
1.11437e-09
1.11437e-09
1.11437e-09
1.11437e-09
1.11437e-09
1.11437e-09
1.11437e-09
1.11437e-09
1.11437e-09
1.11437e-09
1.11437e-09
1.11437e-09
1.11437e-09
1.11437e-09
1.11437e-09
1.11437e-09
1.11437e-09
1.11437e-09
1.11437e-09
1.11437e-09
1.11437e-09
1.11437e-09
1.11437e-09
1.11437e-09
1.11437e-09
1.11437e-09
1.11437e-09
1.11437e-09
1.11437e-09
1.11437e-09
1.11437e-09
1.11437e-09
1.11437e-09
1.11437e-09
1.11437e-09
1.11437e-09
1.11437e-09
1.11437e-09
1.11437e-09
1.11437e-09
1.11437e-09
1.11437e-09
1.11437e-09
1.11437e-09
1.11437e-09
1.11437e-09
1.11437e-09
1.11437e-09
1.11437e-09
1.11437e-09
1.11437e-09
1.11437e-09
1.11437e-09
1.11437e-09
1.11437e-09
1.11437e-09
1.11437e-09
1.11437e-09
1.11437e-09
1.11437e-09
1.11437e-09
1.11437e-09
1.11437e-09
1.11437e-09
1.11437e-09
1.11437e-09
1.11437e-09
1.11437e-09
1.11437e-09
1.11437e-09
1.11437e-09
1.11437e-09
1.11437e-09
1.11437e-09
1.11437e-09
1.11437e-09
1.11437e-09
1.11437e-09
1.11437e-09
1.11437e-09
1.11437e-09
1.11437e-09
1.11437e-09
1.11437e-09
1.11437e-09
1.11437e-09
1.11437e-09
1.11437e-09
1.11437e-09
1.11437e-09
1.11437e-09
1.11437e-09
1.11437e-09
1.11437e-09
1.11437e-09
1.11437e-09
1.11437e-09
1.11437e-09
1.11437e-09
1.11437e-09
1.11437e-09
1.11437e-09
1.11437e-09
1.11437e-09
1.11437e-09
1.11437e-09
1.11437e-09
1.11437e-09
1.11437e-09
1.11437e-09
1.11437e-09
1.11437e-09
1.11437e-09
1.11437e-09
1.11437e-09
1.11437e-09
1.11437e-09
1.11437e-09
1.11437e-09
1.11437e-09
1.11437e-09
1.11437e-09
1.11437e-09
1.11437e-09
1.11437e-09
1.11437e-09
1.11437e-09
1.11437e-09
1.11437e-09
)
;

boundaryField
{
    inlet
    {
        type            calculated;
        value           uniform 0;
    }
    outlet
    {
        type            calculated;
        value           uniform 1.11437e-09;
    }
    emptyWalls
    {
        type            empty;
        value           nonuniform List<scalar> 0();
    }
}


// ************************************************************************* //
