/*--------------------------------*- C++ -*----------------------------------*\
  =========                 |
  \\      /  F ield         | OpenFOAM: The Open Source CFD Toolbox
   \\    /   O peration     | Website:  https://openfoam.org
    \\  /    A nd           | Version:  9
     \\/     M anipulation  |
\*---------------------------------------------------------------------------*/
FoamFile
{
    format      ascii;
    class       volScalarField;
    location    "4000";
    object      kra;
}
// * * * * * * * * * * * * * * * * * * * * * * * * * * * * * * * * * * * * * //

dimensions      [0 0 0 0 0 0 0];

internalField   nonuniform List<scalar> 
100
(
4.06136e-05
3.0188e-05
3.26257e-05
3.12795e-05
3.12107e-05
3.08654e-05
3.06956e-05
3.04771e-05
3.02782e-05
3.00924e-05
2.99133e-05
2.97494e-05
2.95898e-05
2.94441e-05
2.93019e-05
2.91709e-05
2.90431e-05
2.89227e-05
2.8809e-05
2.86956e-05
2.85921e-05
2.84861e-05
2.83882e-05
2.82893e-05
2.81975e-05
2.81035e-05
2.8015e-05
2.79187e-05
2.7817e-05
2.76858e-05
2.75333e-05
2.732e-05
2.73823e-05
2.74047e-05
2.74422e-05
2.74727e-05
2.75033e-05
2.75327e-05
2.75607e-05
2.7588e-05
2.76139e-05
2.7639e-05
2.76625e-05
2.7686e-05
2.77087e-05
2.77314e-05
2.77522e-05
2.77729e-05
2.77919e-05
2.78109e-05
2.78288e-05
2.78473e-05
2.78641e-05
2.78812e-05
2.78963e-05
2.79116e-05
2.79257e-05
2.79404e-05
2.79538e-05
2.79674e-05
2.7979e-05
2.7991e-05
2.80013e-05
2.80128e-05
2.80228e-05
2.80341e-05
2.80432e-05
2.8053e-05
2.80607e-05
2.80692e-05
2.80762e-05
2.80845e-05
2.80905e-05
2.80979e-05
2.81026e-05
2.81089e-05
2.81125e-05
2.8119e-05
2.81211e-05
2.81268e-05
2.81282e-05
2.81285e-05
2.81387e-05
2.81253e-05
2.8148e-05
2.81261e-05
2.81493e-05
2.81283e-05
2.81507e-05
2.81277e-05
2.8149e-05
2.81266e-05
2.81467e-05
2.81236e-05
2.81426e-05
2.81195e-05
2.81371e-05
2.81138e-05
2.81337e-05
7.40487e-05
)
;

boundaryField
{
    inlet
    {
        type            calculated;
        value           uniform 1.21092e-05;
    }
    outlet
    {
        type            calculated;
        value           uniform 8.40758e-06;
    }
    emptyWalls
    {
        type            empty;
    }
}


// ************************************************************************* //
