/*--------------------------------*- C++ -*----------------------------------*\
  =========                 |
  \\      /  F ield         | OpenFOAM: The Open Source CFD Toolbox
   \\    /   O peration     | Website:  https://openfoam.org
    \\  /    A nd           | Version:  9
     \\/     M anipulation  |
\*---------------------------------------------------------------------------*/
FoamFile
{
    format      ascii;
    class       volScalarField;
    location    "4000";
    object      p;
}
// * * * * * * * * * * * * * * * * * * * * * * * * * * * * * * * * * * * * * //

dimensions      [0 0 0 0 0 0 0];

internalField   nonuniform List<scalar> 
100
(
6.09286e+06
6.08486e+06
6.0741e+06
6.06415e+06
6.05377e+06
6.04336e+06
6.03284e+06
6.02225e+06
6.01159e+06
6.00087e+06
5.99009e+06
5.97926e+06
5.96838e+06
5.95745e+06
5.94647e+06
5.93544e+06
5.92438e+06
5.91328e+06
5.90213e+06
5.89096e+06
5.87975e+06
5.8685e+06
5.85722e+06
5.84592e+06
5.83458e+06
5.82321e+06
5.81182e+06
5.80039e+06
5.78894e+06
5.77745e+06
5.76592e+06
5.75433e+06
5.74271e+06
5.73115e+06
5.71961e+06
5.7081e+06
5.69661e+06
5.68516e+06
5.67373e+06
5.66232e+06
5.65094e+06
5.63958e+06
5.62825e+06
5.61694e+06
5.60565e+06
5.59439e+06
5.58315e+06
5.57193e+06
5.56074e+06
5.54956e+06
5.53842e+06
5.52729e+06
5.51618e+06
5.5051e+06
5.49404e+06
5.483e+06
5.47198e+06
5.46098e+06
5.45001e+06
5.43905e+06
5.42812e+06
5.4172e+06
5.40631e+06
5.39544e+06
5.38459e+06
5.37376e+06
5.36295e+06
5.35216e+06
5.34139e+06
5.33064e+06
5.3199e+06
5.30919e+06
5.2985e+06
5.28783e+06
5.27718e+06
5.26655e+06
5.25594e+06
5.24534e+06
5.23477e+06
5.22422e+06
5.21368e+06
5.20316e+06
5.19267e+06
5.18219e+06
5.17173e+06
5.16129e+06
5.15086e+06
5.14046e+06
5.13007e+06
5.11971e+06
5.10936e+06
5.09903e+06
5.08871e+06
5.07842e+06
5.06814e+06
5.05789e+06
5.04764e+06
5.03742e+06
5.02721e+06
5.01703e+06
)
;

boundaryField
{
    inlet
    {
        type            darcyGradPressure;
        gradient        uniform 3.93064e+06;
        Mf              Mf;
        phi             phi;
        value           uniform 6.10072e+06;
    }
    outlet
    {
        type            fixedValue;
        value           uniform 5e+06;
    }
    emptyWalls
    {
        type            empty;
    }
}


// ************************************************************************* //
