/*--------------------------------*- C++ -*----------------------------------*\
  =========                 |
  \\      /  F ield         | OpenFOAM: The Open Source CFD Toolbox
   \\    /   O peration     | Website:  https://openfoam.org
    \\  /    A nd           | Version:  9
     \\/     M anipulation  |
\*---------------------------------------------------------------------------*/
FoamFile
{
    format      ascii;
    class       surfaceScalarField;
    location    "4000";
    object      phia;
}
// * * * * * * * * * * * * * * * * * * * * * * * * * * * * * * * * * * * * * //

dimensions      [0 2 0 0 0 0 0];

internalField   nonuniform List<scalar> 
99
(
1.42066e-08
1.42005e-08
1.41936e-08
1.41818e-08
1.4166e-08
1.41635e-08
1.41584e-08
1.41521e-08
1.41443e-08
1.41357e-08
1.41267e-08
1.41174e-08
1.41078e-08
1.40984e-08
1.40884e-08
1.40791e-08
1.40683e-08
1.40596e-08
1.4049e-08
1.40395e-08
1.40297e-08
1.40191e-08
1.40089e-08
1.39987e-08
1.39883e-08
1.39778e-08
1.39669e-08
1.39546e-08
1.39396e-08
1.39202e-08
1.38966e-08
1.38728e-08
1.38519e-08
1.38341e-08
1.38161e-08
1.37992e-08
1.37828e-08
1.37665e-08
1.37502e-08
1.37337e-08
1.3717e-08
1.37e-08
1.36828e-08
1.36658e-08
1.36489e-08
1.36317e-08
1.36141e-08
1.35963e-08
1.35782e-08
1.35599e-08
1.35419e-08
1.35238e-08
1.35054e-08
1.34867e-08
1.34677e-08
1.34485e-08
1.34294e-08
1.34103e-08
1.33911e-08
1.33714e-08
1.33515e-08
1.33313e-08
1.33112e-08
1.32912e-08
1.32714e-08
1.32514e-08
1.3231e-08
1.32105e-08
1.31896e-08
1.31688e-08
1.3148e-08
1.31272e-08
1.31061e-08
1.30849e-08
1.30634e-08
1.30418e-08
1.30203e-08
1.29986e-08
1.29768e-08
1.29543e-08
1.29325e-08
1.29084e-08
1.28881e-08
1.28659e-08
1.28423e-08
1.28199e-08
1.27985e-08
1.27764e-08
1.27532e-08
1.27303e-08
1.27082e-08
1.26859e-08
1.26631e-08
1.26404e-08
1.26181e-08
1.25959e-08
1.25735e-08
1.25512e-08
1.25294e-08
)
;

boundaryField
{
    inlet
    {
        type            calculated;
        value           uniform -1.42126e-08;
    }
    outlet
    {
        type            calculated;
        value           uniform 1.2516e-08;
    }
    emptyWalls
    {
        type            empty;
        value           nonuniform List<scalar> 0();
    }
}


// ************************************************************************* //
