/*--------------------------------*- C++ -*----------------------------------*\
  =========                 |
  \\      /  F ield         | OpenFOAM: The Open Source CFD Toolbox
   \\    /   O peration     | Website:  https://openfoam.org
    \\  /    A nd           | Version:  9
     \\/     M anipulation  |
\*---------------------------------------------------------------------------*/
FoamFile
{
    format      ascii;
    class       surfaceScalarField;
    location    "4000";
    object      phib;
}
// * * * * * * * * * * * * * * * * * * * * * * * * * * * * * * * * * * * * * //

dimensions      [0 2 0 0 0 0 0];

internalField   nonuniform List<scalar> 
99
(
6.09091e-09
6.09065e-09
6.09035e-09
6.09454e-09
6.10234e-09
6.09658e-09
6.09313e-09
6.09058e-09
6.08927e-09
6.08859e-09
6.08794e-09
6.08747e-09
6.0872e-09
6.08657e-09
6.08643e-09
6.08565e-09
6.08613e-09
6.08455e-09
6.0848e-09
6.08387e-09
6.08323e-09
6.08323e-09
6.0828e-09
6.08228e-09
6.08189e-09
6.08136e-09
6.08078e-09
6.08017e-09
6.07954e-09
6.07887e-09
6.07772e-09
6.07668e-09
6.07812e-09
6.07856e-09
6.08006e-09
6.08085e-09
6.08129e-09
6.08164e-09
6.08197e-09
6.08241e-09
6.08291e-09
6.08366e-09
6.08447e-09
6.08498e-09
6.08519e-09
6.08563e-09
6.08624e-09
6.08703e-09
6.08798e-09
6.08887e-09
6.08945e-09
6.08997e-09
6.09061e-09
6.09143e-09
6.09246e-09
6.0935e-09
6.09433e-09
6.09501e-09
6.09572e-09
6.09669e-09
6.09784e-09
6.09912e-09
6.10019e-09
6.10108e-09
6.10164e-09
6.10223e-09
6.10302e-09
6.10396e-09
6.10506e-09
6.10603e-09
6.10679e-09
6.10754e-09
6.10838e-09
6.10934e-09
6.11045e-09
6.11156e-09
6.1124e-09
6.11345e-09
6.11446e-09
6.11585e-09
6.1174e-09
6.11895e-09
6.12007e-09
6.12122e-09
6.12229e-09
6.12326e-09
6.12417e-09
6.12517e-09
6.12633e-09
6.12749e-09
6.1286e-09
6.12971e-09
6.13085e-09
6.132e-09
6.13317e-09
6.13439e-09
6.13568e-09
6.13699e-09
6.1383e-09
)
;

boundaryField
{
    inlet
    {
        type            calculated;
        value           uniform -6.09112e-09;
    }
    outlet
    {
        type            calculated;
        value           uniform 6.13824e-09;
    }
    emptyWalls
    {
        type            empty;
        value           nonuniform List<scalar> 0();
    }
}


// ************************************************************************* //
