/*--------------------------------*- C++ -*----------------------------------*\
  =========                 |
  \\      /  F ield         | OpenFOAM: The Open Source CFD Toolbox
   \\    /   O peration     | Website:  https://openfoam.org
    \\  /    A nd           | Version:  9
     \\/     M anipulation  |
\*---------------------------------------------------------------------------*/
FoamFile
{
    format      ascii;
    class       surfaceScalarField;
    location    "4000";
    object      phic;
}
// * * * * * * * * * * * * * * * * * * * * * * * * * * * * * * * * * * * * * //

dimensions      [0 2 0 0 0 0 0];

internalField   nonuniform List<scalar> 
99
(
6.177e-12
1.26028e-11
1.97526e-11
2.73546e-11
3.53946e-11
4.36658e-11
5.22094e-11
6.10325e-11
7.01321e-11
7.94922e-11
8.90744e-11
9.88379e-11
1.08744e-10
1.18764e-10
1.28866e-10
1.39039e-10
1.49268e-10
1.59574e-10
1.69927e-10
1.80356e-10
1.90853e-10
2.01415e-10
2.12047e-10
2.22748e-10
2.33536e-10
2.44532e-10
2.56079e-10
2.68949e-10
2.84565e-10
3.04639e-10
3.2945e-10
3.54287e-10
3.73693e-10
3.91093e-10
4.07615e-10
4.23715e-10
4.39689e-10
4.5563e-10
4.71607e-10
4.87669e-10
5.03828e-10
5.2009e-10
5.36479e-10
5.53e-10
5.69657e-10
5.86444e-10
6.0336e-10
6.20417e-10
6.3761e-10
6.54934e-10
6.72402e-10
6.90008e-10
7.0775e-10
7.2562e-10
7.43617e-10
7.61751e-10
7.80022e-10
7.98422e-10
8.16952e-10
8.35604e-10
8.54382e-10
8.73281e-10
8.92306e-10
9.11465e-10
9.30742e-10
9.50151e-10
9.69672e-10
9.89311e-10
1.00906e-09
1.02892e-09
1.04892e-09
1.069e-09
1.08921e-09
1.1095e-09
1.12992e-09
1.15039e-09
1.17106e-09
1.19168e-09
1.21252e-09
1.23354e-09
1.25382e-09
1.27637e-09
1.29552e-09
1.31661e-09
1.33916e-09
1.36057e-09
1.38103e-09
1.4022e-09
1.42425e-09
1.44593e-09
1.46694e-09
1.48812e-09
1.50978e-09
1.53133e-09
1.55244e-09
1.57347e-09
1.59453e-09
1.61551e-09
1.636e-09
)
;

boundaryField
{
    inlet
    {
        type            calculated;
        value           uniform 0;
    }
    outlet
    {
        type            calculated;
        value           uniform 1.64954e-09;
    }
    emptyWalls
    {
        type            empty;
        value           nonuniform List<scalar> 0();
    }
}


// ************************************************************************* //
