/*--------------------------------*- C++ -*----------------------------------*\
  =========                 |
  \\      /  F ield         | OpenFOAM: The Open Source CFD Toolbox
   \\    /   O peration     | Website:  https://openfoam.org
    \\  /    A nd           | Version:  9
     \\/     M anipulation  |
\*---------------------------------------------------------------------------*/
FoamFile
{
    format      ascii;
    class       volVectorField;
    location    "4000";
    object      Ua;
}
// * * * * * * * * * * * * * * * * * * * * * * * * * * * * * * * * * * * * * //

dimensions      [0 0 0 0 0 0 0];

internalField   nonuniform List<vector> 
100
(
(0 0 8.96433e-06)
(0 0 1.13028e-05)
(0 0 1.12977e-05)
(0 0 1.12902e-05)
(0 0 1.12792e-05)
(0 0 1.1272e-05)
(0 0 1.12689e-05)
(0 0 1.12644e-05)
(0 0 1.12588e-05)
(0 0 1.12522e-05)
(0 0 1.12452e-05)
(0 0 1.1238e-05)
(0 0 1.12305e-05)
(0 0 1.12229e-05)
(0 0 1.12152e-05)
(0 0 1.12075e-05)
(0 0 1.11995e-05)
(0 0 1.11918e-05)
(0 0 1.11841e-05)
(0 0 1.11761e-05)
(0 0 1.11684e-05)
(0 0 1.11602e-05)
(0 0 1.1152e-05)
(0 0 1.11439e-05)
(0 0 1.11357e-05)
(0 0 1.11274e-05)
(0 0 1.11189e-05)
(0 0 1.11096e-05)
(0 0 1.10988e-05)
(0 0 1.10851e-05)
(0 0 1.10679e-05)
(0 0 1.10491e-05)
(0 0 1.10313e-05)
(0 0 1.10159e-05)
(0 0 1.10016e-05)
(0 0 1.09878e-05)
(0 0 1.09745e-05)
(0 0 1.09615e-05)
(0 0 1.09485e-05)
(0 0 1.09355e-05)
(0 0 1.09223e-05)
(0 0 1.09089e-05)
(0 0 1.08953e-05)
(0 0 1.08816e-05)
(0 0 1.08682e-05)
(0 0 1.08546e-05)
(0 0 1.08408e-05)
(0 0 1.08267e-05)
(0 0 1.08124e-05)
(0 0 1.07979e-05)
(0 0 1.07835e-05)
(0 0 1.07691e-05)
(0 0 1.07545e-05)
(0 0 1.07398e-05)
(0 0 1.07248e-05)
(0 0 1.07096e-05)
(0 0 1.06944e-05)
(0 0 1.06792e-05)
(0 0 1.06639e-05)
(0 0 1.06485e-05)
(0 0 1.06327e-05)
(0 0 1.06168e-05)
(0 0 1.06007e-05)
(0 0 1.05848e-05)
(0 0 1.05689e-05)
(0 0 1.05531e-05)
(0 0 1.0537e-05)
(0 0 1.05207e-05)
(0 0 1.05043e-05)
(0 0 1.04877e-05)
(0 0 1.04711e-05)
(0 0 1.04546e-05)
(0 0 1.04379e-05)
(0 0 1.04211e-05)
(0 0 1.04041e-05)
(0 0 1.03869e-05)
(0 0 1.03698e-05)
(0 0 1.03526e-05)
(0 0 1.03353e-05)
(0 0 1.03177e-05)
(0 0 1.03001e-05)
(0 0 1.02818e-05)
(0 0 1.02641e-05)
(0 0 1.02472e-05)
(0 0 1.0229e-05)
(0 0 1.02107e-05)
(0 0 1.01933e-05)
(0 0 1.01759e-05)
(0 0 1.01579e-05)
(0 0 1.01396e-05)
(0 0 1.01217e-05)
(0 0 1.0104e-05)
(0 0 1.00861e-05)
(0 0 1.00679e-05)
(0 0 1.005e-05)
(0 0 1.00323e-05)
(0 0 1.00146e-05)
(0 0 9.99682e-06)
(0 0 9.97928e-06)
(0 0 9.96525e-06)
)
;

boundaryField
{
    inlet
    {
        type            fixedValue;
        value           uniform (0 0 1.131e-05);
    }
    outlet
    {
        type            zeroGradient;
    }
    emptyWalls
    {
        type            empty;
    }
}


// ************************************************************************* //
