/*--------------------------------*- C++ -*----------------------------------*\
  =========                 |
  \\      /  F ield         | OpenFOAM: The Open Source CFD Toolbox
   \\    /   O peration     | Website:  https://openfoam.org
    \\  /    A nd           | Version:  9
     \\/     M anipulation  |
\*---------------------------------------------------------------------------*/
FoamFile
{
    format      ascii;
    class       volVectorField;
    location    "4000";
    object      Ub;
}
// * * * * * * * * * * * * * * * * * * * * * * * * * * * * * * * * * * * * * //

dimensions      [0 0 0 0 0 0 0];

internalField   nonuniform List<vector> 
100
(
(0 0 7.18558e-06)
(0 0 4.84689e-06)
(0 0 4.84667e-06)
(0 0 4.84822e-06)
(0 0 4.85298e-06)
(0 0 4.85379e-06)
(0 0 4.85013e-06)
(0 0 4.84775e-06)
(0 0 4.84621e-06)
(0 0 4.84542e-06)
(0 0 4.84489e-06)
(0 0 4.84444e-06)
(0 0 4.84414e-06)
(0 0 4.84379e-06)
(0 0 4.84348e-06)
(0 0 4.84311e-06)
(0 0 4.84299e-06)
(0 0 4.84256e-06)
(0 0 4.84203e-06)
(0 0 4.84176e-06)
(0 0 4.84113e-06)
(0 0 4.84088e-06)
(0 0 4.84071e-06)
(0 0 4.84033e-06)
(0 0 4.83997e-06)
(0 0 4.8396e-06)
(0 0 4.83916e-06)
(0 0 4.83869e-06)
(0 0 4.83819e-06)
(0 0 4.83768e-06)
(0 0 4.83695e-06)
(0 0 4.83608e-06)
(0 0 4.83624e-06)
(0 0 4.83699e-06)
(0 0 4.83776e-06)
(0 0 4.83867e-06)
(0 0 4.83916e-06)
(0 0 4.83948e-06)
(0 0 4.83975e-06)
(0 0 4.84005e-06)
(0 0 4.84043e-06)
(0 0 4.84093e-06)
(0 0 4.84154e-06)
(0 0 4.84207e-06)
(0 0 4.84236e-06)
(0 0 4.84262e-06)
(0 0 4.84303e-06)
(0 0 4.84359e-06)
(0 0 4.84428e-06)
(0 0 4.84501e-06)
(0 0 4.8456e-06)
(0 0 4.84604e-06)
(0 0 4.8465e-06)
(0 0 4.84708e-06)
(0 0 4.84782e-06)
(0 0 4.84864e-06)
(0 0 4.84938e-06)
(0 0 4.84999e-06)
(0 0 4.85054e-06)
(0 0 4.85121e-06)
(0 0 4.85205e-06)
(0 0 4.85302e-06)
(0 0 4.85395e-06)
(0 0 4.85473e-06)
(0 0 4.85531e-06)
(0 0 4.85577e-06)
(0 0 4.85632e-06)
(0 0 4.857e-06)
(0 0 4.85781e-06)
(0 0 4.85864e-06)
(0 0 4.85933e-06)
(0 0 4.85993e-06)
(0 0 4.86056e-06)
(0 0 4.86128e-06)
(0 0 4.8621e-06)
(0 0 4.86298e-06)
(0 0 4.86376e-06)
(0 0 4.86451e-06)
(0 0 4.86533e-06)
(0 0 4.86629e-06)
(0 0 4.86746e-06)
(0 0 4.86869e-06)
(0 0 4.86975e-06)
(0 0 4.87065e-06)
(0 0 4.87154e-06)
(0 0 4.87235e-06)
(0 0 4.8731e-06)
(0 0 4.87386e-06)
(0 0 4.87472e-06)
(0 0 4.87564e-06)
(0 0 4.87654e-06)
(0 0 4.87742e-06)
(0 0 4.87832e-06)
(0 0 4.87923e-06)
(0 0 4.88016e-06)
(0 0 4.88111e-06)
(0 0 4.88211e-06)
(0 0 4.88314e-06)
(0 0 4.88418e-06)
(0 0 4.88468e-06)
)
;

boundaryField
{
    inlet
    {
        type            fixedValue;
        value           uniform (0 0 4.84716e-06);
    }
    outlet
    {
        type            zeroGradient;
    }
    emptyWalls
    {
        type            empty;
    }
}


// ************************************************************************* //
