/*--------------------------------*- C++ -*----------------------------------*\
  =========                 |
  \\      /  F ield         | OpenFOAM: The Open Source CFD Toolbox
   \\    /   O peration     | Website:  https://openfoam.org
    \\  /    A nd           | Version:  9
     \\/     M anipulation  |
\*---------------------------------------------------------------------------*/
FoamFile
{
    format      ascii;
    class       volVectorField;
    location    "4000";
    object      Uc;
}
// * * * * * * * * * * * * * * * * * * * * * * * * * * * * * * * * * * * * * //

dimensions      [0 0 0 0 0 0 0];

internalField   nonuniform List<vector> 
100
(
(0 0 7.28714e-09)
(0 0 7.47224e-09)
(0 0 1.28738e-08)
(0 0 1.87434e-08)
(0 0 2.49671e-08)
(0 0 3.14571e-08)
(0 0 3.81475e-08)
(0 0 4.50575e-08)
(0 0 5.21888e-08)
(0 0 5.95336e-08)
(0 0 6.70705e-08)
(0 0 7.47679e-08)
(0 0 8.25941e-08)
(0 0 9.05222e-08)
(0 0 9.85286e-08)
(0 0 1.06596e-07)
(0 0 1.14714e-07)
(0 0 1.22885e-07)
(0 0 1.31104e-07)
(0 0 1.39373e-07)
(0 0 1.477e-07)
(0 0 1.56078e-07)
(0 0 1.64511e-07)
(0 0 1.73e-07)
(0 0 1.8155e-07)
(0 0 1.90217e-07)
(0 0 1.99187e-07)
(0 0 2.08902e-07)
(0 0 2.20236e-07)
(0 0 2.34437e-07)
(0 0 2.52296e-07)
(0 0 2.7205e-07)
(0 0 2.89654e-07)
(0 0 3.04299e-07)
(0 0 3.17796e-07)
(0 0 3.30776e-07)
(0 0 3.43537e-07)
(0 0 3.56236e-07)
(0 0 3.68936e-07)
(0 0 3.81684e-07)
(0 0 3.94504e-07)
(0 0 4.07404e-07)
(0 0 4.20395e-07)
(0 0 4.3349e-07)
(0 0 4.46691e-07)
(0 0 4.59998e-07)
(0 0 4.73408e-07)
(0 0 4.86925e-07)
(0 0 5.00553e-07)
(0 0 5.14287e-07)
(0 0 5.2813e-07)
(0 0 5.42086e-07)
(0 0 5.5615e-07)
(0 0 5.7032e-07)
(0 0 5.84591e-07)
(0 0 5.98967e-07)
(0 0 6.13452e-07)
(0 0 6.28043e-07)
(0 0 6.42737e-07)
(0 0 6.57531e-07)
(0 0 6.72424e-07)
(0 0 6.87415e-07)
(0 0 7.02505e-07)
(0 0 7.17697e-07)
(0 0 7.32991e-07)
(0 0 7.48383e-07)
(0 0 7.63873e-07)
(0 0 7.79455e-07)
(0 0 7.95127e-07)
(0 0 8.10887e-07)
(0 0 8.26745e-07)
(0 0 8.42692e-07)
(0 0 8.58722e-07)
(0 0 8.74838e-07)
(0 0 8.91036e-07)
(0 0 9.07306e-07)
(0 0 9.23675e-07)
(0 0 9.40103e-07)
(0 0 9.56599e-07)
(0 0 9.73257e-07)
(0 0 9.8969e-07)
(0 0 1.00673e-06)
(0 0 1.02332e-06)
(0 0 1.03933e-06)
(0 0 1.0567e-06)
(0 0 1.07419e-06)
(0 0 1.09085e-06)
(0 0 1.10742e-06)
(0 0 1.12461e-06)
(0 0 1.14201e-06)
(0 0 1.15899e-06)
(0 0 1.17578e-06)
(0 0 1.19283e-06)
(0 0 1.21002e-06)
(0 0 1.22699e-06)
(0 0 1.24376e-06)
(0 0 1.26051e-06)
(0 0 1.27724e-06)
(0 0 1.29374e-06)
(0 0 1.30728e-06)
)
;

boundaryField
{
    inlet
    {
        type            fixedValue;
        value           uniform (0 0 0);
    }
    outlet
    {
        type            zeroGradient;
    }
    emptyWalls
    {
        type            empty;
    }
}


// ************************************************************************* //
