/*--------------------------------*- C++ -*----------------------------------*\
  =========                 |
  \\      /  F ield         | OpenFOAM: The Open Source CFD Toolbox
   \\    /   O peration     | Website:  https://openfoam.org
    \\  /    A nd           | Version:  9
     \\/     M anipulation  |
\*---------------------------------------------------------------------------*/
FoamFile
{
    format      ascii;
    class       volScalarField;
    location    "4050";
    object      Sb;
}
// * * * * * * * * * * * * * * * * * * * * * * * * * * * * * * * * * * * * * //

dimensions      [0 0 0 0 0 0 0];

internalField   nonuniform List<scalar> 
1000
(
0.352189
0.355117
0.359984
0.365836
0.387412
0.516698
0.648432
0.671278
0.678129
0.681016
0.682329
0.682858
0.682878
0.682178
0.679814
0.675608
0.670617
0.665401
0.660158
0.65498
0.649913
0.644975
0.640173
0.635508
0.630976
0.626572
0.622291
0.618128
0.614076
0.610131
0.606286
0.602538
0.59888
0.59531
0.591821
0.588412
0.585077
0.581813
0.578618
0.575488
0.57242
0.569412
0.566459
0.563561
0.560715
0.557919
0.55517
0.552468
0.549811
0.547196
0.544621
0.542086
0.539587
0.537124
0.534694
0.532296
0.529929
0.527592
0.525283
0.523003
0.52075
0.518523
0.516323
0.514149
0.512001
0.509877
0.507778
0.505703
0.503652
0.501625
0.49962
0.497638
0.495678
0.493739
0.491821
0.489923
0.488043
0.486181
0.484334
0.482502
0.480683
0.478877
0.477081
0.475296
0.473521
0.471755
0.469998
0.468251
0.466511
0.464781
0.46306
0.461347
0.459643
0.457947
0.45626
0.454581
0.45291
0.451247
0.449591
0.447943
0.446302
0.444667
0.443038
0.441416
0.439798
0.438186
0.436578
0.434975
0.433375
0.431779
0.430186
0.428596
0.427007
0.425421
0.423837
0.422254
0.420672
0.41909
0.417509
0.415927
0.414345
0.412761
0.411176
0.40959
0.408001
0.406409
0.404814
0.403215
0.401611
0.400004
0.398391
0.396772
0.395147
0.393515
0.391877
0.39023
0.388576
0.386912
0.385239
0.383557
0.381865
0.380164
0.378454
0.376736
0.375011
0.373283
0.371555
0.369833
0.368124
0.366437
0.364781
0.363164
0.361588
0.360043
0.358493
0.356857
0.354972
0.352546
0.34909
0.343867
0.335951
0.324569
0.309833
0.293401
0.27804
0.266011
0.257918
0.253048
0.250324
0.248864
0.248101
0.247707
0.247506
0.247404
0.247352
0.247325
0.247312
0.247305
0.247302
0.2473
0.247299
0.247299
0.247298
0.247298
0.247298
0.247298
0.247298
0.247298
0.247298
0.247298
0.247298
0.247298
0.247298
0.247298
0.247297
0.247297
0.247297
0.247297
0.247297
0.247297
0.247297
0.247297
0.247297
0.247297
0.247297
0.247297
0.247297
0.247297
0.247297
0.247297
0.247297
0.247297
0.247297
0.247296
0.247296
0.247296
0.247296
0.247296
0.247296
0.247295
0.247295
0.247295
0.247295
0.247294
0.247294
0.247294
0.247293
0.247293
0.247292
0.247292
0.247292
0.247291
0.247291
0.24729
0.24729
0.247289
0.247288
0.247288
0.247287
0.247286
0.247285
0.247285
0.247284
0.247282
0.247281
0.24728
0.247279
0.247277
0.247276
0.247275
0.247273
0.247272
0.24727
0.247268
0.247267
0.247265
0.247264
0.247262
0.247261
0.247259
0.247258
0.247257
0.247256
0.247256
0.247255
0.247255
0.247255
0.247255
0.247255
0.247256
0.247257
0.247258
0.247259
0.24726
0.247262
0.247264
0.247266
0.247267
0.247269
0.247271
0.247273
0.247275
0.247276
0.247278
0.247279
0.24728
0.247281
0.247282
0.247282
0.247283
0.247283
0.247283
0.247283
0.247283
0.247283
0.247283
0.247283
0.247283
0.247282
0.247282
0.247282
0.247281
0.247281
0.247281
0.24728
0.24728
0.24728
0.24728
0.247279
0.247279
0.247279
0.247279
0.247279
0.247279
0.247279
0.247279
0.247279
0.247279
0.247279
0.247279
0.247279
0.247279
0.24728
0.24728
0.24728
0.24728
0.24728
0.24728
0.24728
0.247281
0.247281
0.247281
0.247281
0.247281
0.247281
0.247281
0.247282
0.247282
0.247282
0.247282
0.247282
0.247282
0.247282
0.247282
0.247282
0.247283
0.247283
0.247283
0.247283
0.247283
0.247283
0.247283
0.247283
0.247283
0.247283
0.247283
0.247283
0.247284
0.247284
0.247284
0.247284
0.247284
0.247284
0.247284
0.247284
0.247284
0.247284
0.247284
0.247285
0.247285
0.247285
0.247285
0.247285
0.247285
0.247285
0.247285
0.247286
0.247286
0.247286
0.247286
0.247286
0.247286
0.247286
0.247287
0.247287
0.247287
0.247287
0.247287
0.247287
0.247287
0.247288
0.247288
0.247288
0.247288
0.247288
0.247288
0.247288
0.247288
0.247288
0.247288
0.247288
0.247288
0.247288
0.247288
0.247288
0.247288
0.247288
0.247288
0.247287
0.247287
0.247287
0.247287
0.247287
0.247287
0.247286
0.247286
0.247286
0.247286
0.247286
0.247286
0.247286
0.247285
0.247285
0.247285
0.247285
0.247285
0.247285
0.247285
0.247285
0.247285
0.247285
0.247285
0.247285
0.247285
0.247285
0.247285
0.247285
0.247285
0.247285
0.247285
0.247285
0.247285
0.247285
0.247284
0.247284
0.247284
0.247283
0.247283
0.247282
0.247282
0.247281
0.247281
0.24728
0.247279
0.247279
0.247278
0.247277
0.247276
0.247275
0.247274
0.247272
0.247271
0.24727
0.247269
0.247267
0.247266
0.247265
0.247263
0.247262
0.247261
0.24726
0.247258
0.247257
0.247256
0.247255
0.247254
0.247254
0.247253
0.247253
0.247252
0.247252
0.247252
0.247252
0.247252
0.247253
0.247254
0.247255
0.247256
0.247257
0.247259
0.24726
0.247262
0.247264
0.247265
0.247267
0.247269
0.247271
0.247272
0.247274
0.247276
0.247277
0.247278
0.24728
0.247281
0.247282
0.247282
0.247283
0.247284
0.247284
0.247284
0.247285
0.247285
0.247285
0.247285
0.247285
0.247285
0.247285
0.247285
0.247285
0.247284
0.247284
0.247284
0.247284
0.247284
0.247283
0.247283
0.247283
0.247283
0.247283
0.247283
0.247283
0.247283
0.247283
0.247283
0.247283
0.247283
0.247283
0.247283
0.247283
0.247283
0.247283
0.247283
0.247283
0.247283
0.247284
0.247284
0.247284
0.247284
0.247284
0.247284
0.247285
0.247285
0.247285
0.247285
0.247285
0.247285
0.247285
0.247286
0.247286
0.247286
0.247286
0.247286
0.247286
0.247286
0.247287
0.247287
0.247287
0.247287
0.247287
0.247287
0.247287
0.247287
0.247287
0.247287
0.247287
0.247287
0.247287
0.247287
0.247287
0.247287
0.247287
0.247287
0.247287
0.247287
0.247287
0.247287
0.247287
0.247287
0.247287
0.247287
0.247287
0.247287
0.247287
0.247287
0.247286
0.247286
0.247286
0.247286
0.247286
0.247286
0.247286
0.247286
0.247286
0.247286
0.247285
0.247285
0.247285
0.247285
0.247285
0.247285
0.247285
0.247285
0.247285
0.247285
0.247285
0.247285
0.247285
0.247285
0.247285
0.247285
0.247285
0.247285
0.247285
0.247286
0.247286
0.247286
0.247286
0.247286
0.247286
0.247286
0.247286
0.247286
0.247286
0.247287
0.247287
0.247287
0.247287
0.247287
0.247287
0.247287
0.247287
0.247287
0.247287
0.247287
0.247287
0.247286
0.247286
0.247286
0.247286
0.247286
0.247285
0.247285
0.247285
0.247284
0.247284
0.247284
0.247283
0.247283
0.247282
0.247281
0.247281
0.24728
0.247279
0.247278
0.247279
0.24728
0.24731
0.247391
0.248389
0.249807
0.249997
0.25
0.25
0.25
0.25
0.25
0.25
0.25
0.25
0.25
0.25
0.25
0.25
0.25
0.25
0.25
0.25
0.25
0.25
0.25
0.25
0.25
0.25
0.25
0.25
0.25
0.25
0.25
0.25
0.25
0.25
0.25
0.25
0.25
0.25
0.25
0.25
0.25
0.25
0.25
0.25
0.25
0.25
0.25
0.25
0.25
0.25
0.25
0.25
0.25
0.25
0.25
0.25
0.25
0.25
0.25
0.25
0.25
0.25
0.25
0.25
0.25
0.25
0.25
0.25
0.25
0.25
0.25
0.25
0.25
0.25
0.25
0.25
0.25
0.25
0.25
0.25
0.25
0.25
0.25
0.25
0.25
0.25
0.25
0.25
0.25
0.25
0.25
0.25
0.25
0.25
0.25
0.25
0.25
0.25
0.25
0.25
0.25
0.25
0.25
0.25
0.25
0.25
0.25
0.25
0.25
0.25
0.25
0.25
0.25
0.25
0.25
0.25
0.25
0.25
0.25
0.25
0.25
0.25
0.25
0.25
0.25
0.25
0.25
0.25
0.25
0.25
0.25
0.25
0.25
0.25
0.25
0.25
0.25
0.25
0.25
0.25
0.25
0.25
0.25
0.25
0.25
0.25
0.25
0.25
0.25
0.25
0.25
0.25
0.25
0.25
0.25
0.25
0.25
0.25
0.25
0.25
0.25
0.25
0.25
0.25
0.25
0.25
0.25
0.25
0.25
0.25
0.25
0.25
0.25
0.25
0.25
0.25
0.25
0.25
0.25
0.25
0.25
0.25
0.25
0.25
0.25
0.25
0.25
0.25
0.25
0.25
0.25
0.25
0.25
0.25
0.25
0.25
0.25
0.25
0.25
0.25
0.25
0.25
0.25
0.25
0.25
0.25
0.25
0.25
0.25
0.25
0.25
0.25
0.25
0.25
0.25
0.25
0.25
0.25
0.25
0.25
0.25
0.25
0.25
0.25
0.25
0.25
0.25
0.25
0.25
0.25
0.25
0.25
0.25
0.25
0.25
0.25
0.25
0.25
0.25
0.25
0.25
0.25
0.25
0.25
0.25
0.25
0.25
0.25
0.25
0.25
0.25
0.25
0.25
0.25
0.25
0.25
0.25
0.25
0.25
0.25
0.25
0.25
0.25
0.25
0.25
0.25
0.25
0.25
0.25
0.25
0.25
0.25
0.25
0.25
0.25
0.25
0.25
0.25
0.25
0.25
0.25
0.25
0.25
0.25
0.25
0.25
0.25
0.25
0.25
0.25
0.25
0.25
0.25
0.25
0.25
0.25
0.25
0.25
0.25
0.25
0.25
0.25
0.25
0.25
0.25
0.25
0.25
0.25
0.25
0.25
0.25
0.25
0.25
0.25
0.25
0.25
0.25
0.25
0.25
0.25
0.25
0.25
0.25
0.25
0.25
0.25
0.25
0.25
0.25
0.25
0.25
0.25
0.25
)
;

boundaryField
{
    inlet
    {
        type            fixedValue;
        value           uniform 0.35;
    }
    outlet
    {
        type            zeroGradient;
    }
    emptyWalls
    {
        type            empty;
    }
}


// ************************************************************************* //
