/*--------------------------------*- C++ -*----------------------------------*\
  =========                 |
  \\      /  F ield         | OpenFOAM: The Open Source CFD Toolbox
   \\    /   O peration     | Website:  https://openfoam.org
    \\  /    A nd           | Version:  9
     \\/     M anipulation  |
\*---------------------------------------------------------------------------*/
FoamFile
{
    format      ascii;
    class       volScalarField;
    location    "28000";
    object      Fa;
}
// * * * * * * * * * * * * * * * * * * * * * * * * * * * * * * * * * * * * * //

dimensions      [0 0 0 0 0 0 0];

internalField   nonuniform List<scalar> 
1000
(
0.194758
0.194844
0.194759
0.194821
0.194763
0.194778
0.194755
0.194731
0.194717
0.194691
0.194664
0.194643
0.194613
0.194577
0.194556
0.194495
0.194485
0.194396
0.194409
0.194287
0.194321
0.194185
0.194206
0.194102
0.194086
0.194024
0.193987
0.193942
0.193906
0.193865
0.193832
0.193798
0.193773
0.193746
0.193722
0.193704
0.193616
0.193471
0.192565
0.185374
0.159183
0.153033
0.151909
0.152031
0.152495
0.152559
0.152128
0.151556
0.150928
0.150027
0.149272
0.148725
0.148361
0.148106
0.148016
0.148037
0.148027
0.147992
0.147926
0.147838
0.147738
0.14762
0.1475
0.147381
0.147267
0.147145
0.147035
0.14692
0.146818
0.146711
0.146616
0.146519
0.146431
0.146341
0.146258
0.146177
0.146098
0.146026
0.145952
0.145887
0.145818
0.145761
0.145699
0.145641
0.145586
0.145533
0.145482
0.145432
0.145386
0.145341
0.1453
0.145262
0.145228
0.145201
0.145175
0.145152
0.145131
0.145109
0.145088
0.145068
0.145047
0.145026
0.145008
0.144992
0.14498
0.144972
0.144971
0.144974
0.144983
0.144994
0.145009
0.145022
0.145031
0.145034
0.145032
0.145025
0.145016
0.145008
0.145003
0.145004
0.145014
0.145037
0.14508
0.145151
0.145254
0.145387
0.145547
0.145723
0.145908
0.146094
0.146276
0.14645
0.146615
0.146769
0.146907
0.147025
0.147118
0.147178
0.147202
0.147187
0.147131
0.147037
0.146909
0.146754
0.146579
0.146392
0.1462
0.146012
0.145832
0.145666
0.145517
0.145387
0.145277
0.145187
0.145115
0.145059
0.145019
0.14499
0.14497
0.144957
0.144948
0.144942
0.144937
0.144931
0.144923
0.144913
0.1449
0.144884
0.144866
0.144844
0.144821
0.144795
0.144767
0.144738
0.144707
0.144676
0.144645
0.144613
0.144581
0.144549
0.144516
0.144485
0.144454
0.144423
0.144392
0.144363
0.144334
0.144306
0.144278
0.144251
0.144225
0.1442
0.144175
0.144152
0.144129
0.144108
0.144085
0.144066
0.144044
0.144026
0.144006
0.14399
0.143971
0.143957
0.14394
0.143928
0.143913
0.143903
0.14389
0.143883
0.143872
0.143865
0.143856
0.14385
0.143841
0.143836
0.143828
0.143824
0.143817
0.143813
0.143808
0.143806
0.143803
0.143804
0.143803
0.143805
0.143807
0.14381
0.143812
0.143815
0.143816
0.143816
0.143815
0.143813
0.14381
0.143807
0.143805
0.143804
0.143807
0.143815
0.143829
0.143851
0.143882
0.143924
0.143976
0.144039
0.144114
0.144198
0.144293
0.144396
0.144507
0.144623
0.144743
0.144864
0.144985
0.145103
0.145214
0.145318
0.14541
0.145489
0.145551
0.145597
0.145623
0.145629
0.145615
0.145582
0.145529
0.145459
0.145374
0.145275
0.145167
0.145051
0.144931
0.144809
0.144689
0.144571
0.144459
0.144354
0.144256
0.144167
0.144087
0.144016
0.143953
0.143899
0.143851
0.143811
0.143776
0.143746
0.143719
0.143697
0.143675
0.143656
0.143637
0.143619
0.1436
0.143582
0.143562
0.143542
0.14352
0.143498
0.143474
0.14345
0.143423
0.143398
0.14337
0.143343
0.143314
0.143286
0.143256
0.143228
0.143198
0.14317
0.14314
0.143112
0.143083
0.143056
0.143028
0.143001
0.142974
0.142949
0.142922
0.142898
0.142873
0.14285
0.142825
0.142804
0.142781
0.142761
0.142739
0.14272
0.142699
0.142682
0.142662
0.142647
0.142628
0.142615
0.142597
0.142586
0.142569
0.142559
0.142544
0.142536
0.142522
0.142514
0.142501
0.142496
0.142483
0.142479
0.142467
0.142464
0.142453
0.142452
0.142442
0.142442
0.142433
0.142434
0.142426
0.142429
0.142422
0.142425
0.142418
0.142422
0.142415
0.142419
0.142412
0.142416
0.142409
0.142414
0.142406
0.142413
0.142407
0.142418
0.142416
0.142431
0.142435
0.142459
0.142471
0.142504
0.142526
0.142572
0.142605
0.142664
0.142709
0.142779
0.142835
0.142917
0.142983
0.143073
0.143145
0.143241
0.143315
0.143411
0.143483
0.143575
0.14364
0.143722
0.143774
0.143841
0.143877
0.143924
0.143939
0.143963
0.143956
0.143956
0.143925
0.143902
0.143849
0.143805
0.143734
0.143672
0.143589
0.143515
0.143423
0.143342
0.143248
0.143165
0.143073
0.142994
0.142908
0.142834
0.142756
0.142692
0.142623
0.142568
0.142509
0.142462
0.142413
0.142374
0.142332
0.142301
0.142264
0.142239
0.142206
0.142184
0.142154
0.142135
0.142106
0.142089
0.14206
0.142044
0.142013
0.141998
0.141966
0.141952
0.141918
0.141904
0.141867
0.141854
0.141816
0.141803
0.141763
0.141751
0.141709
0.141698
0.141655
0.141646
0.141602
0.141594
0.141549
0.141542
0.141497
0.141492
0.141447
0.141443
0.141398
0.141396
0.141351
0.14135
0.141306
0.141306
0.141263
0.141265
0.141222
0.141225
0.141184
0.141188
0.141148
0.141153
0.141114
0.14112
0.141082
0.14109
0.141053
0.141062
0.141026
0.141036
0.141001
0.141012
0.140978
0.14099
0.140957
0.140971
0.140938
0.140953
0.140921
0.140937
0.140906
0.140923
0.140893
0.14091
0.140881
0.140899
0.140871
0.14089
0.140862
0.140881
0.140854
0.140874
0.140847
0.140867
0.140841
0.140862
0.140837
0.140859
0.140834
0.140858
0.140835
0.140861
0.140842
0.140871
0.140856
0.14089
0.140879
0.140919
0.140914
0.140961
0.140963
0.141016
0.141026
0.141087
0.141105
0.141173
0.141198
0.141273
0.141304
0.141385
0.14142
0.141505
0.141544
0.14163
0.141669
0.141754
0.141791
0.141873
0.141904
0.141979
0.142002
0.142068
0.14208
0.142135
0.142134
0.142175
0.14216
0.142185
0.142155
0.142166
0.14212
0.142116
0.142057
0.14204
0.141968
0.14194
0.141859
0.141822
0.141734
0.141692
0.1416
0.141556
0.141462
0.141418
0.141326
0.141284
0.141196
0.141158
0.141074
0.141041
0.140962
0.140935
0.140862
0.140841
0.140773
0.140757
0.140694
0.140683
0.140624
0.140617
0.140562
0.140557
0.140505
0.140503
0.140452
0.140451
0.140402
0.140402
0.140354
0.140355
0.140306
0.140307
0.140259
0.14026
0.140211
0.140212
0.140163
0.140163
0.140114
0.140114
0.140065
0.140065
0.140015
0.140016
0.139966
0.139966
0.139917
0.139917
0.139868
0.139869
0.13982
0.139822
0.139773
0.139775
0.139727
0.13973
0.139683
0.139687
0.13964
0.139644
0.139599
0.139604
0.139559
0.139565
0.139521
0.139528
0.139485
0.139493
0.139451
0.13946
0.139418
0.139428
0.139388
0.139399
0.139359
0.139371
0.139332
0.139345
0.139307
0.139321
0.139284
0.139298
0.139262
0.139277
0.139242
0.139258
0.139223
0.13924
0.139206
0.139224
0.139191
0.139209
0.139177
0.139196
0.139164
0.139183
0.139152
0.139172
0.139141
0.139162
0.139132
0.139154
0.139124
0.139147
0.139119
0.139143
0.139116
0.139142
0.139117
0.139145
0.139122
0.139153
0.139133
0.139168
0.139152
0.13919
0.139178
0.13922
0.139213
0.139261
0.139258
0.139311
0.139313
0.139371
0.139378
0.139441
0.139453
0.13952
0.139536
0.139606
0.139625
0.139698
0.139719
0.139793
0.139814
0.139888
0.139908
0.13998
0.139998
0.140066
0.140079
0.140142
0.140148
0.140205
0.140204
0.140252
0.140242
0.14028
0.140261
0.140289
0.140259
0.140277
0.140236
0.140244
0.140194
0.140192
0.140132
0.140122
0.140054
0.140036
0.139962
0.139938
0.139859
0.139832
0.13975
0.13972
0.139637
0.139607
0.139523
0.139494
0.139412
0.139384
0.139305
0.13928
0.139203
0.139182
0.139108
0.139091
0.139021
0.139007
0.13894
0.13893
0.138866
0.138859
0.138798
0.138794
0.138736
0.138733
0.138677
0.138676
0.138621
0.138622
0.138568
0.13857
0.138517
0.138519
0.138467
0.13847
0.138418
0.138421
0.138369
0.138372
0.13832
0.138323
0.138271
0.138274
0.138222
0.138226
0.138174
0.138177
0.138125
0.138129
0.138077
0.13808
0.138029
0.138033
0.137982
0.137986
0.137935
0.13794
0.13789
0.137895
0.137845
0.137851
0.137802
0.137808
0.13776
0.137767
0.137719
0.137727
0.13768
0.137688
0.137642
0.137652
0.137606
0.137616
0.137572
0.137583
0.137539
0.137551
0.137507
0.13752
0.137478
0.137492
0.13745
0.137465
0.137424
0.137439
0.137399
0.137415
0.137375
0.137392
0.137354
0.137371
0.137333
0.137351
0.137314
0.137333
0.137296
0.137316
0.13728
0.1373
0.137264
0.137285
0.13725
0.137272
0.137238
0.13726
0.137227
0.13725
0.137218
0.137242
0.13721
0.137236
0.137206
0.137233
0.137204
0.137233
0.137206
0.137238
0.137213
0.137246
0.137224
0.137261
0.137241
0.137281
0.137264
0.137307
0.137294
0.13734
0.137331
0.137381
0.137375
0.137428
0.137426
0.137482
0.137483
0.137543
0.137546
0.137608
0.137613
0.137677
0.137684
0.137749
0.137755
0.13782
0.137827
0.137892
0.137896
0.137961
0.137962
0.138026
0.138022
0.138085
0.138074
0.138135
0.138114
0.138173
0.138143
0.138199
0.138158
0.138211
0.138159
0.138209
0.138145
0.138192
0.138117
0.138161
0.138072
0.138113
0.138013
0.138051
0.137941
0.137977
0.137861
0.137893
0.137774
0.137803
0.137681
0.137707
0.137584
0.137609
0.137485
0.137509
0.137386
0.13741
0.137288
0.137313
0.137193
0.137219
0.137102
0.13713
0.137015
0.137045
0.136933
0.136964
0.136856
0.136889
0.136783
0.136818
0.136715
0.136751
0.136651
0.136688
0.13659
0.136628
0.136531
0.13657
0.136475
0.136515
0.136421
0.136462
0.136369
0.13641
0.136317
0.136359
0.136266
0.136308
0.136216
0.136259
0.136165
0.136209
0.136116
0.136161
0.136066
0.136112
0.136016
0.136064
0.135967
0.136017
0.135919
0.13597
0.13587
0.135924
0.135823
0.135878
0.135776
0.135833
0.13573
0.135789
0.135685
0.135746
0.135641
0.135703
0.135598
0.135662
0.135556
0.135622
0.135516
0.135583
0.135477
0.135546
0.13544
0.13551
0.135403
0.135475
0.135369
0.135441
0.135335
0.135409
0.135303
0.135378
0.135272
0.135348
0.135243
0.13532
0.135215
0.135293
0.135188
0.135267
0.135162
0.135243
0.135035
0.986707
)
;

boundaryField
{
    inlet
    {
        type            calculated;
        value           uniform 0.194831;
    }
    outlet
    {
        type            calculated;
        value           uniform 0.940497;
    }
    emptyWalls
    {
        type            empty;
    }
}


// ************************************************************************* //
