/*--------------------------------*- C++ -*----------------------------------*\
  =========                 |
  \\      /  F ield         | OpenFOAM: The Open Source CFD Toolbox
   \\    /   O peration     | Website:  https://openfoam.org
    \\  /    A nd           | Version:  9
     \\/     M anipulation  |
\*---------------------------------------------------------------------------*/
FoamFile
{
    format      ascii;
    class       volScalarField;
    location    "28000";
    object      p;
}
// * * * * * * * * * * * * * * * * * * * * * * * * * * * * * * * * * * * * * //

dimensions      [0 0 0 0 0 0 0];

internalField   nonuniform List<scalar> 
1000
(
161962
161536
161112
160689
160268
159849
159431
159016
158601
158189
157778
157369
156962
156556
156152
155750
155350
154951
154554
154159
153766
153374
152983
152595
152207
151822
151437
151054
150671
150290
149909
149530
149151
148772
148395
148018
147641
147268
146905
146579
146386
146281
146191
146104
146018
145933
145848
145764
145680
145596
145513
145429
145346
145263
145180
145097
145014
144932
144849
144767
144685
144603
144520
144438
144356
144274
144193
144111
144029
143947
143865
143784
143702
143620
143539
143457
143375
143294
143212
143131
143049
142967
142886
142804
142722
142641
142559
142478
142396
142314
142232
142151
142069
141987
141905
141823
141741
141660
141578
141495
141413
141331
141249
141167
141084
141002
140919
140837
140754
140671
140588
140504
140421
140337
140253
140169
140085
140000
139915
139830
139745
139660
139574
139488
139402
139316
139229
139142
139055
138968
138881
138793
138705
138617
138529
138441
138352
138263
138174
138085
137995
137905
137815
137725
137635
137544
137453
137362
137271
137179
137087
136995
136903
136811
136718
136625
136532
136438
136345
136251
136157
136063
135968
135874
135779
135684
135589
135493
135398
135302
135206
135109
135013
134916
134819
134722
134625
134527
134429
134331
134233
134135
134036
133938
133839
133739
133640
133540
133441
133341
133240
133140
133040
132939
132838
132737
132635
132534
132432
132330
132228
132125
132023
131920
131817
131714
131610
131507
131403
131299
131195
131091
130986
130881
130777
130671
130566
130461
130355
130249
130143
130037
129930
129824
129717
129610
129503
129395
129288
129180
129072
128964
128856
128747
128639
128530
128421
128312
128202
128093
127983
127873
127763
127652
127542
127431
127320
127209
127098
126987
126875
126763
126652
126539
126427
126315
126202
126090
125977
125864
125750
125637
125523
125410
125296
125182
125067
124953
124838
124723
124608
124493
124378
124262
124146
124030
123914
123798
123681
123564
123447
123330
123213
123096
122978
122860
122742
122624
122506
122387
122268
122150
122031
121911
121792
121672
121553
121433
121313
121192
121072
120951
120831
120710
120588
120467
120346
120224
120102
119980
119858
119736
119613
119491
119368
119245
119122
118998
118875
118751
118627
118503
118379
118254
118130
118005
117880
117755
117630
117505
117379
117253
117127
117001
116875
116749
116622
116496
116369
116242
116114
115987
115859
115732
115604
115476
115348
115219
115091
114962
114833
114704
114575
114445
114316
114186
114056
113926
113796
113666
113535
113405
113274
113143
113012
112881
112749
112617
112486
112354
112222
112089
111957
111824
111692
111559
111426
111293
111159
111026
110892
110758
110624
110490
110356
110221
110087
109952
109817
109682
109547
109412
109276
109141
109005
108869
108733
108597
108460
108324
108187
108050
107913
107776
107639
107502
107364
107226
107088
106950
106812
106674
106535
106396
106258
106118
105979
105840
105700
105561
105421
105281
105140
105000
104860
104719
104578
104437
104296
104154
104013
103871
103730
103588
103445
103303
103161
103018
102876
102733
102590
102446
102303
102160
102016
101872
101728
101584
101440
101295
101151
101006
100861
100716
100571
100425
100280
100134
99988.5
99842.5
99696.4
99550.2
99403.7
99257.1
99110.4
98963.5
98816.5
98669.3
98522
98374.5
98226.8
98079
97931.1
97783
97634.7
97486.3
97337.7
97189
97040.2
96891.2
96742
96592.7
96443.2
96293.6
96143.8
95993.9
95843.9
95693.7
95543.3
95392.8
95242.1
95091.3
94940.4
94789.3
94638
94486.6
94335.1
94183.4
94031.5
93879.5
93727.4
93575.1
93422.7
93270.1
93117.4
92964.5
92811.4
92658.3
92505
92351.5
92197.9
92044.1
91890.2
91736.2
91582
91427.6
91273.1
91118.5
90963.7
90808.8
90653.7
90498.5
90343.2
90187.7
90032
89876.2
89720.3
89564.2
89408
89251.7
89095.2
88938.6
88781.8
88624.9
88467.9
88310.7
88153.4
87995.9
87838.4
87680.6
87522.8
87364.8
87206.7
87048.4
86890
86731.5
86572.8
86414
86255.1
86096
85936.8
85777.4
85617.9
85458.3
85298.5
85138.6
84978.5
84818.2
84657.9
84497.4
84336.7
84175.9
84014.9
83853.8
83692.5
83531.1
83369.5
83207.8
83045.9
82883.8
82721.7
82559.3
82396.8
82234.2
82071.4
81908.4
81745.3
81582.1
81418.7
81255.2
81091.5
80927.6
80763.6
80599.5
80435.2
80270.8
80106.2
79941.5
79776.6
79611.6
79446.4
79281.1
79115.7
78950.1
78784.3
78618.4
78452.4
78286.2
78119.9
77953.5
77786.8
77620.1
77453.2
77286.1
77119
76951.6
76784.1
76616.5
76448.7
76280.8
76112.8
75944.6
75776.2
75607.7
75439.1
75270.3
75101.4
74932.3
74763.1
74593.8
74424.3
74254.6
74084.8
73914.9
73744.8
73574.6
73404.2
73233.7
73063.1
72892.3
72721.4
72550.3
72379.1
72207.7
72036.2
71864.5
71692.8
71520.8
71348.7
71176.5
71004.2
70831.7
70659
70486.2
70313.3
70140.2
69967
69793.7
69620.2
69446.6
69272.8
69098.9
68924.8
68750.6
68576.3
68401.8
68227.2
68052.4
67877.5
67702.5
67527.3
67352
67176.5
67000.9
66825.2
66649.3
66473.3
66297.1
66120.8
65944.4
65767.8
65591.1
65414.2
65237.2
65060.1
64882.8
64705.4
64527.8
64350.1
64172.3
63994.4
63816.3
63638
63459.6
63281.1
63102.5
62923.7
62744.8
62565.7
62386.6
62207.3
62027.8
61848.2
61668.5
61488.7
61308.7
61128.6
60948.4
60768
60587.5
60406.9
60226.1
60045.2
59864.2
59683
59501.8
59320.4
59138.8
58957.1
58775.3
58593.4
58411.3
58229.1
58046.8
57864.3
57681.7
57498.9
57316
57133
56949.8
56766.5
56583
56399.4
56215.6
56031.8
55847.7
55663.5
55479.2
55294.7
55110.1
54925.3
54740.4
54555.3
54370.1
54184.8
53999.2
53813.6
53627.8
53441.8
53255.7
53069.5
52883.1
52696.6
52509.9
52323
52136.1
51948.9
51761.7
51574.3
51386.7
51199
51011.2
50823.2
50635.1
50446.8
50258.4
50069.8
49881.1
49692.3
49503.3
49314.2
49124.9
48935.5
48745.9
48556.2
48366.4
48176.4
47986.3
47796
47605.6
47415
47224.3
47033.5
46842.5
46651.4
46460.1
46268.7
46077.2
45885.5
45693.6
45501.7
45309.5
45117.3
44924.9
44732.3
44539.6
44346.8
44153.8
43960.7
43767.4
43574
43380.5
43186.8
42993
42799
42604.9
42410.6
42216.2
42021.7
41827
41632.2
41437.2
41242.1
41046.8
40851.4
40655.9
40460.2
40264.4
40068.4
39872.3
39676.1
39479.7
39283.2
39086.5
38889.7
38692.8
38495.7
38298.4
38101.1
37903.5
37705.9
37508.1
37310.2
37112.1
36913.9
36715.5
36517
36318.4
36119.6
35920.6
35721.6
35522.4
35323
35123.5
34923.9
34724.1
34524.2
34324.2
34124
33923.7
33723.2
33522.6
33321.8
33120.9
32919.9
32718.7
32517.4
32316
32114.4
31912.7
31710.8
31508.8
31306.7
31104.4
30902
30699.4
30496.7
30293.9
30090.9
29887.8
29684.6
29481.2
29277.7
29074.1
28870.3
28666.4
28462.4
28258.2
28053.9
27849.4
27644.8
27440.1
27235.3
27030.3
26825.2
26619.9
26414.5
26209
26003.4
25797.6
25591.6
25385.6
25179.4
24973
24766.5
24559.9
24353.2
24146.3
23939.2
23732
23524.7
23317.2
23109.6
22901.9
22693.9
22485.9
22277.7
22069.3
21860.8
21652.2
21443.4
21234.4
21025.3
20816
20606.6
20397.1
20187.4
19977.5
19767.5
19557.3
19347
19136.5
18925.8
18715
18504.1
18293
18081.8
17870.3
17658.8
17447.1
17235.2
17023.2
16811
16598.7
16386.2
16173.6
15960.8
15747.9
15534.8
15321.6
15108.2
14894.7
14681
14467.1
14253.1
14039
13824.7
13610.3
13395.7
13180.9
12966
12751
12535.8
12320.4
12104.9
11889.2
11673.4
11457.4
11241.3
11025.1
10808.6
10592.1
10375.3
10158.4
9941.41
9724.22
9506.87
9289.38
9071.73
8853.92
8635.96
8417.85
8199.59
7981.17
7762.59
7543.86
7324.98
7105.94
6886.75
6667.4
6447.9
6228.24
6008.43
5788.47
5568.35
5348.07
5127.64
4907.05
4686.31
4465.41
4244.36
4023.15
3801.78
3580.26
3358.58
3136.75
2914.76
2692.61
2470.31
2247.85
2025.24
1802.47
1579.54
1356.45
1133.21
909.81
686.254
462.54
238.67
14.4813
)
;

boundaryField
{
    inlet
    {
        type            darcyGradPressure;
        gradient        uniform 116344;
        Mf              Mf;
        phi             phi;
        value           uniform 162175;
    }
    outlet
    {
        type            fixedValue;
        value           uniform 0;
    }
    emptyWalls
    {
        type            empty;
    }
}


// ************************************************************************* //
