/*--------------------------------*- C++ -*----------------------------------*\
  =========                 |
  \\      /  F ield         | OpenFOAM: The Open Source CFD Toolbox
   \\    /   O peration     | Website:  https://openfoam.org
    \\  /    A nd           | Version:  9
     \\/     M anipulation  |
\*---------------------------------------------------------------------------*/
FoamFile
{
    format      ascii;
    class       surfaceScalarField;
    location    "25800";
    object      phib;
}
// * * * * * * * * * * * * * * * * * * * * * * * * * * * * * * * * * * * * * //

dimensions      [0 2 0 0 0 0 0];

internalField   nonuniform List<scalar> 
999
(
1.13622e-09
1.13623e-09
1.13622e-09
1.13625e-09
1.13624e-09
1.13626e-09
1.13627e-09
1.13628e-09
1.1363e-09
1.13631e-09
1.13634e-09
1.13637e-09
1.1364e-09
1.13643e-09
1.13646e-09
1.1365e-09
1.13652e-09
1.13657e-09
1.1366e-09
1.13664e-09
1.13668e-09
1.13671e-09
1.13676e-09
1.13678e-09
1.13683e-09
1.13686e-09
1.13689e-09
1.13692e-09
1.13695e-09
1.13697e-09
1.13698e-09
1.137e-09
1.13704e-09
1.13717e-09
1.13767e-09
1.13997e-09
1.15374e-09
1.17358e-09
1.177e-09
1.17761e-09
1.17762e-09
1.17764e-09
1.17777e-09
1.17796e-09
1.17818e-09
1.1784e-09
1.17861e-09
1.1788e-09
1.17898e-09
1.17915e-09
1.1793e-09
1.17945e-09
1.17958e-09
1.17971e-09
1.17982e-09
1.17993e-09
1.18002e-09
1.18011e-09
1.18019e-09
1.18027e-09
1.18034e-09
1.1804e-09
1.18045e-09
1.1805e-09
1.18054e-09
1.18057e-09
1.1806e-09
1.18063e-09
1.18065e-09
1.18067e-09
1.18068e-09
1.18069e-09
1.18068e-09
1.18067e-09
1.18065e-09
1.18063e-09
1.18061e-09
1.18059e-09
1.18057e-09
1.18055e-09
1.18052e-09
1.18049e-09
1.18045e-09
1.1804e-09
1.18034e-09
1.18027e-09
1.18019e-09
1.18011e-09
1.18002e-09
1.17993e-09
1.17985e-09
1.17976e-09
1.17968e-09
1.17959e-09
1.17949e-09
1.17937e-09
1.17921e-09
1.17901e-09
1.17876e-09
1.17845e-09
1.17806e-09
1.1776e-09
1.17706e-09
1.17647e-09
1.17583e-09
1.1752e-09
1.17457e-09
1.17395e-09
1.17336e-09
1.17278e-09
1.17221e-09
1.17168e-09
1.17118e-09
1.17072e-09
1.17032e-09
1.16999e-09
1.16972e-09
1.1695e-09
1.16934e-09
1.16922e-09
1.16911e-09
1.16902e-09
1.16893e-09
1.16882e-09
1.16869e-09
1.16853e-09
1.16834e-09
1.16811e-09
1.16785e-09
1.16756e-09
1.16725e-09
1.1669e-09
1.16654e-09
1.16616e-09
1.16577e-09
1.16538e-09
1.16498e-09
1.16458e-09
1.16418e-09
1.16379e-09
1.1634e-09
1.16301e-09
1.16263e-09
1.16225e-09
1.16187e-09
1.1615e-09
1.16113e-09
1.16076e-09
1.1604e-09
1.16003e-09
1.15967e-09
1.1593e-09
1.15894e-09
1.15857e-09
1.15821e-09
1.15784e-09
1.15747e-09
1.1571e-09
1.15673e-09
1.15636e-09
1.15599e-09
1.15561e-09
1.15523e-09
1.15486e-09
1.15448e-09
1.15409e-09
1.15371e-09
1.15333e-09
1.15294e-09
1.15255e-09
1.15216e-09
1.15177e-09
1.15137e-09
1.15098e-09
1.15058e-09
1.15019e-09
1.14979e-09
1.14939e-09
1.14898e-09
1.14858e-09
1.14817e-09
1.14777e-09
1.14736e-09
1.14694e-09
1.14653e-09
1.14611e-09
1.1457e-09
1.14528e-09
1.14486e-09
1.14444e-09
1.14402e-09
1.1436e-09
1.14317e-09
1.14275e-09
1.14233e-09
1.1419e-09
1.14148e-09
1.14105e-09
1.14062e-09
1.14018e-09
1.13975e-09
1.13931e-09
1.13888e-09
1.13844e-09
1.138e-09
1.13756e-09
1.13713e-09
1.13669e-09
1.13626e-09
1.13582e-09
1.13539e-09
1.13496e-09
1.13452e-09
1.13408e-09
1.13363e-09
1.13317e-09
1.1327e-09
1.13222e-09
1.13172e-09
1.1312e-09
1.13067e-09
1.13012e-09
1.12956e-09
1.12898e-09
1.12839e-09
1.12779e-09
1.12718e-09
1.12657e-09
1.12595e-09
1.12534e-09
1.12473e-09
1.12413e-09
1.12355e-09
1.12298e-09
1.12244e-09
1.12191e-09
1.12142e-09
1.12095e-09
1.12051e-09
1.1201e-09
1.11972e-09
1.11937e-09
1.11904e-09
1.11872e-09
1.11843e-09
1.11814e-09
1.11786e-09
1.11759e-09
1.11731e-09
1.11703e-09
1.11674e-09
1.11644e-09
1.11612e-09
1.1158e-09
1.11546e-09
1.1151e-09
1.11473e-09
1.11435e-09
1.11396e-09
1.11356e-09
1.11315e-09
1.11273e-09
1.11231e-09
1.11188e-09
1.11145e-09
1.11102e-09
1.11058e-09
1.11015e-09
1.10971e-09
1.10928e-09
1.10885e-09
1.10841e-09
1.10798e-09
1.10755e-09
1.10712e-09
1.1067e-09
1.10627e-09
1.10585e-09
1.10542e-09
1.105e-09
1.10457e-09
1.10415e-09
1.10373e-09
1.1033e-09
1.10288e-09
1.10246e-09
1.10203e-09
1.10161e-09
1.10118e-09
1.10075e-09
1.10032e-09
1.0999e-09
1.09947e-09
1.09904e-09
1.0986e-09
1.09817e-09
1.09774e-09
1.0973e-09
1.09687e-09
1.09643e-09
1.09599e-09
1.09555e-09
1.09511e-09
1.09467e-09
1.09422e-09
1.09378e-09
1.09333e-09
1.09289e-09
1.09244e-09
1.09199e-09
1.09154e-09
1.09109e-09
1.09063e-09
1.09018e-09
1.08972e-09
1.08926e-09
1.08881e-09
1.08835e-09
1.08789e-09
1.08742e-09
1.08696e-09
1.0865e-09
1.08603e-09
1.08557e-09
1.0851e-09
1.08463e-09
1.08417e-09
1.0837e-09
1.08323e-09
1.08275e-09
1.08228e-09
1.08181e-09
1.08133e-09
1.08086e-09
1.08038e-09
1.07991e-09
1.07943e-09
1.07895e-09
1.07848e-09
1.078e-09
1.07752e-09
1.07704e-09
1.07656e-09
1.07608e-09
1.0756e-09
1.07512e-09
1.07463e-09
1.07414e-09
1.07365e-09
1.07315e-09
1.07264e-09
1.07213e-09
1.07161e-09
1.07109e-09
1.07055e-09
1.07001e-09
1.06946e-09
1.0689e-09
1.06833e-09
1.06776e-09
1.06718e-09
1.06659e-09
1.066e-09
1.0654e-09
1.0648e-09
1.0642e-09
1.0636e-09
1.063e-09
1.06241e-09
1.06182e-09
1.06124e-09
1.06067e-09
1.06012e-09
1.05957e-09
1.05904e-09
1.05852e-09
1.05802e-09
1.05754e-09
1.05707e-09
1.05662e-09
1.05618e-09
1.05575e-09
1.05534e-09
1.05493e-09
1.05454e-09
1.05415e-09
1.05377e-09
1.05339e-09
1.05302e-09
1.05264e-09
1.05226e-09
1.05188e-09
1.05149e-09
1.0511e-09
1.0507e-09
1.05029e-09
1.04988e-09
1.04946e-09
1.04904e-09
1.0486e-09
1.04817e-09
1.04772e-09
1.04727e-09
1.04681e-09
1.04636e-09
1.04589e-09
1.04543e-09
1.04496e-09
1.04449e-09
1.04401e-09
1.04354e-09
1.04307e-09
1.04259e-09
1.04211e-09
1.04164e-09
1.04116e-09
1.04069e-09
1.04021e-09
1.03974e-09
1.03926e-09
1.03879e-09
1.03831e-09
1.03784e-09
1.03737e-09
1.03689e-09
1.03642e-09
1.03594e-09
1.03547e-09
1.035e-09
1.03452e-09
1.03404e-09
1.03357e-09
1.03309e-09
1.03262e-09
1.03214e-09
1.03166e-09
1.03118e-09
1.0307e-09
1.03022e-09
1.02974e-09
1.02925e-09
1.02877e-09
1.02829e-09
1.0278e-09
1.02731e-09
1.02683e-09
1.02634e-09
1.02585e-09
1.02536e-09
1.02487e-09
1.02437e-09
1.02388e-09
1.02338e-09
1.02289e-09
1.02239e-09
1.02189e-09
1.02139e-09
1.02089e-09
1.02039e-09
1.01989e-09
1.01939e-09
1.01888e-09
1.01838e-09
1.01787e-09
1.01736e-09
1.01685e-09
1.01634e-09
1.01583e-09
1.01532e-09
1.01481e-09
1.0143e-09
1.01378e-09
1.01327e-09
1.01275e-09
1.01223e-09
1.01172e-09
1.0112e-09
1.01068e-09
1.01016e-09
1.00964e-09
1.00912e-09
1.0086e-09
1.00807e-09
1.00755e-09
1.00703e-09
1.0065e-09
1.00598e-09
1.00545e-09
1.00492e-09
1.0044e-09
1.00387e-09
1.00334e-09
1.0028e-09
1.00227e-09
1.00173e-09
1.00119e-09
1.00065e-09
1.00011e-09
9.99556e-10
9.99002e-10
9.98444e-10
9.97882e-10
9.97315e-10
9.96743e-10
9.96166e-10
9.95584e-10
9.94997e-10
9.94405e-10
9.93809e-10
9.93208e-10
9.92603e-10
9.91995e-10
9.91385e-10
9.90772e-10
9.90157e-10
9.89542e-10
9.88926e-10
9.88312e-10
9.87699e-10
9.87089e-10
9.86483e-10
9.85881e-10
9.85285e-10
9.84695e-10
9.84111e-10
9.83535e-10
9.82968e-10
9.82408e-10
9.81858e-10
9.81317e-10
9.80784e-10
9.80261e-10
9.79746e-10
9.79239e-10
9.78741e-10
9.78249e-10
9.77764e-10
9.77284e-10
9.76809e-10
9.76338e-10
9.7587e-10
9.75403e-10
9.74938e-10
9.74472e-10
9.74006e-10
9.73538e-10
9.73069e-10
9.72596e-10
9.72121e-10
9.71642e-10
9.71159e-10
9.70672e-10
9.70182e-10
9.69687e-10
9.69188e-10
9.68685e-10
9.68178e-10
9.67668e-10
9.67154e-10
9.66638e-10
9.66118e-10
9.65596e-10
9.65072e-10
9.64545e-10
9.64017e-10
9.63487e-10
9.62955e-10
9.62423e-10
9.61889e-10
9.61355e-10
9.6082e-10
9.60284e-10
9.59748e-10
9.59212e-10
9.58675e-10
9.58138e-10
9.576e-10
9.57063e-10
9.56525e-10
9.55986e-10
9.55448e-10
9.54909e-10
9.5437e-10
9.5383e-10
9.5329e-10
9.5275e-10
9.52209e-10
9.51667e-10
9.51125e-10
9.50582e-10
9.50039e-10
9.49495e-10
9.4895e-10
9.48405e-10
9.47858e-10
9.47311e-10
9.46763e-10
9.46214e-10
9.45664e-10
9.45113e-10
9.44561e-10
9.44009e-10
9.43455e-10
9.429e-10
9.42344e-10
9.41788e-10
9.4123e-10
9.40671e-10
9.40111e-10
9.3955e-10
9.38988e-10
9.38425e-10
9.37861e-10
9.37295e-10
9.36729e-10
9.36161e-10
9.35593e-10
9.35023e-10
9.34453e-10
9.33881e-10
9.33308e-10
9.32734e-10
9.32159e-10
9.31584e-10
9.31007e-10
9.30429e-10
9.2985e-10
9.2927e-10
9.28689e-10
9.28107e-10
9.27525e-10
9.26941e-10
9.26356e-10
9.25771e-10
9.25184e-10
9.24597e-10
9.24009e-10
9.23419e-10
9.2283e-10
9.22239e-10
9.21647e-10
9.21054e-10
9.20461e-10
9.19867e-10
9.19271e-10
9.18675e-10
9.18077e-10
9.17479e-10
9.16879e-10
9.16277e-10
9.15674e-10
9.1507e-10
9.14464e-10
9.13856e-10
9.13246e-10
9.12633e-10
9.12018e-10
9.11401e-10
9.10781e-10
9.10158e-10
9.09532e-10
9.08903e-10
9.0827e-10
9.07635e-10
9.06996e-10
9.06353e-10
9.05707e-10
9.05058e-10
9.04406e-10
9.0375e-10
9.03091e-10
9.0243e-10
9.01766e-10
9.011e-10
9.00431e-10
8.99761e-10
8.9909e-10
8.98418e-10
8.97746e-10
8.97073e-10
8.96401e-10
8.9573e-10
8.9506e-10
8.94392e-10
8.93727e-10
8.93064e-10
8.92404e-10
8.91748e-10
8.91096e-10
8.90448e-10
8.89805e-10
8.89167e-10
8.88534e-10
8.87905e-10
8.87282e-10
8.86664e-10
8.86051e-10
8.85443e-10
8.84839e-10
8.8424e-10
8.83645e-10
8.83053e-10
8.82465e-10
8.81879e-10
8.81296e-10
8.80715e-10
8.80135e-10
8.79556e-10
8.78977e-10
8.78398e-10
8.77819e-10
8.77239e-10
8.76657e-10
8.76074e-10
8.75489e-10
8.74901e-10
8.74311e-10
8.73719e-10
8.73124e-10
8.72526e-10
8.71926e-10
8.71322e-10
8.70716e-10
8.70107e-10
8.69495e-10
8.68881e-10
8.68264e-10
8.67644e-10
8.67023e-10
8.66399e-10
8.65773e-10
8.65145e-10
8.64515e-10
8.63884e-10
8.63251e-10
8.62617e-10
8.61981e-10
8.61344e-10
8.60706e-10
8.60067e-10
8.59427e-10
8.58786e-10
8.58144e-10
8.575e-10
8.56856e-10
8.56212e-10
8.55566e-10
8.54919e-10
8.54272e-10
8.53624e-10
8.52975e-10
8.52325e-10
8.51674e-10
8.51022e-10
8.50369e-10
8.49716e-10
8.49061e-10
8.48405e-10
8.47748e-10
8.4709e-10
8.46431e-10
8.45771e-10
8.4511e-10
8.44448e-10
8.43784e-10
8.43119e-10
8.42453e-10
8.41786e-10
8.41117e-10
8.40447e-10
8.39776e-10
8.39103e-10
8.38429e-10
8.37754e-10
8.37077e-10
8.36399e-10
8.35719e-10
8.35038e-10
8.34355e-10
8.33672e-10
8.32986e-10
8.32299e-10
8.31611e-10
8.30921e-10
8.3023e-10
8.29537e-10
8.28843e-10
8.28147e-10
8.2745e-10
8.26751e-10
8.26051e-10
8.2535e-10
8.24647e-10
8.23942e-10
8.23236e-10
8.22528e-10
8.21819e-10
8.21109e-10
8.20397e-10
8.19684e-10
8.18969e-10
8.18252e-10
8.17535e-10
8.16815e-10
8.16095e-10
8.15373e-10
8.14649e-10
8.13924e-10
8.13197e-10
8.12469e-10
8.1174e-10
8.11009e-10
8.10276e-10
8.09542e-10
8.08807e-10
8.08069e-10
8.0733e-10
8.0659e-10
8.05847e-10
8.05103e-10
8.04357e-10
8.03609e-10
8.02858e-10
8.02106e-10
8.01351e-10
8.00595e-10
7.99835e-10
7.99074e-10
7.98309e-10
7.97543e-10
7.96773e-10
7.96001e-10
7.95225e-10
7.94447e-10
7.93666e-10
7.92882e-10
7.92094e-10
7.91304e-10
7.90511e-10
7.89714e-10
7.88915e-10
7.88113e-10
7.87307e-10
7.86499e-10
7.85688e-10
7.84875e-10
7.84059e-10
7.83241e-10
7.82421e-10
7.81599e-10
7.80775e-10
7.79949e-10
7.79123e-10
7.78295e-10
7.77466e-10
7.76637e-10
7.75807e-10
7.74977e-10
7.74147e-10
7.73318e-10
7.72489e-10
7.71661e-10
7.70834e-10
7.70008e-10
7.69183e-10
7.6836e-10
7.67539e-10
7.66719e-10
7.65901e-10
7.65085e-10
7.6427e-10
7.63458e-10
7.62647e-10
7.61838e-10
7.6103e-10
7.60224e-10
7.59419e-10
7.58616e-10
7.57813e-10
7.5701e-10
7.56209e-10
7.55407e-10
7.54605e-10
7.53803e-10
7.53e-10
7.52196e-10
7.51391e-10
7.50585e-10
7.49776e-10
7.48966e-10
7.48154e-10
7.47339e-10
7.46522e-10
7.45702e-10
7.44879e-10
7.44053e-10
7.43223e-10
7.42391e-10
7.41555e-10
7.40717e-10
7.39874e-10
7.39028e-10
7.38179e-10
7.37327e-10
7.36471e-10
7.35611e-10
7.34749e-10
7.33883e-10
7.33013e-10
7.32141e-10
7.31265e-10
7.30387e-10
7.29505e-10
7.2862e-10
7.27733e-10
7.26842e-10
7.25948e-10
7.25051e-10
7.24152e-10
7.2325e-10
7.22345e-10
7.21437e-10
7.20527e-10
7.19613e-10
7.18698e-10
7.17779e-10
7.16857e-10
7.15933e-10
7.15006e-10
7.14076e-10
7.13144e-10
7.12208e-10
7.1127e-10
7.10329e-10
7.09385e-10
7.08438e-10
7.07489e-10
7.06536e-10
7.0558e-10
7.04622e-10
7.0366e-10
7.02696e-10
7.01729e-10
7.00759e-10
6.99785e-10
6.98809e-10
6.97829e-10
6.96848e-10
6.95861e-10
6.94874e-10
6.93882e-10
6.92889e-10
6.91892e-10
6.90892e-10
6.8989e-10
6.88885e-10
6.87878e-10
6.86868e-10
6.85855e-10
6.84841e-10
6.83824e-10
6.82807e-10
6.81787e-10
6.80766e-10
6.79743e-10
6.7872e-10
6.77696e-10
6.76673e-10
6.7565e-10
6.74629e-10
6.73608e-10
6.72591e-10
6.71576e-10
6.70565e-10
6.69559e-10
6.68559e-10
6.67566e-10
6.66582e-10
6.65607e-10
6.64644e-10
6.63692e-10
6.62759e-10
6.61838e-10
6.60941e-10
6.60058e-10
6.59205e-10
6.58368e-10
6.57568e-10
6.56786e-10
6.56047e-10
6.55328e-10
6.54657e-10
6.54006e-10
6.53407e-10
6.52832e-10
6.5231e-10
6.5181e-10
6.51364e-10
6.50939e-10
)
;

boundaryField
{
    inlet
    {
        type            calculated;
        value           uniform -1.13622e-09;
    }
    outlet
    {
        type            calculated;
        value           uniform 7.444e-10;
    }
    emptyWalls
    {
        type            empty;
        value           nonuniform List<scalar> 0();
    }
}


// ************************************************************************* //
