/*--------------------------------*- C++ -*----------------------------------*\
  =========                 |
  \\      /  F ield         | OpenFOAM: The Open Source CFD Toolbox
   \\    /   O peration     | Website:  https://openfoam.org
    \\  /    A nd           | Version:  9
     \\/     M anipulation  |
\*---------------------------------------------------------------------------*/
FoamFile
{
    format      ascii;
    class       volScalarField;
    location    "25800";
    object      Sa;
}
// * * * * * * * * * * * * * * * * * * * * * * * * * * * * * * * * * * * * * //

dimensions      [0 0 0 0 0 0 0];

internalField   nonuniform List<scalar> 
1000
(
0.549617
0.548734
0.547693
0.546549
0.545476
0.544357
0.54325
0.542135
0.541006
0.539869
0.538725
0.537564
0.536398
0.535227
0.534043
0.532879
0.531688
0.530554
0.529368
0.528297
0.527155
0.526164
0.52513
0.524234
0.523354
0.522577
0.52186
0.521226
0.520659
0.520163
0.519717
0.519301
0.518785
0.517655
0.513761
0.498329
0.408971
0.153332
0.0857478
0.0685239
0.0611956
0.0569057
0.0538758
0.0514884
0.0494933
0.0477607
0.0462243
0.0448373
0.0435745
0.042413
0.041341
0.0403447
0.039418
0.0385517
0.0377414
0.0369815
0.0362678
0.0355957
0.0349634
0.0343655
0.0338014
0.0332662
0.0327611
0.0322798
0.0318248
0.0313896
0.0309775
0.0305817
0.0302065
0.0298459
0.0295035
0.0291744
0.0288613
0.0285596
0.0282721
0.0279941
0.0277244
0.0274655
0.027217
0.026979
0.0267516
0.0265346
0.0263279
0.0261312
0.0259446
0.0257676
0.0256
0.0254414
0.0252913
0.0251491
0.0250145
0.0248872
0.0247666
0.0246534
0.024547
0.0244478
0.0243578
0.0242767
0.0242064
0.0241492
0.0241064
0.0240777
0.0240598
0.0240459
0.0240333
0.0240206
0.0240067
0.023991
0.0239736
0.0239546
0.0239344
0.0239125
0.0238886
0.0238619
0.0238317
0.0237975
0.0237591
0.0237167
0.0236708
0.0236221
0.0235715
0.0235199
0.0234683
0.0234174
0.0233679
0.0233202
0.0232747
0.0232316
0.0231908
0.0231523
0.023116
0.0230814
0.0230485
0.0230168
0.0229861
0.0229561
0.0229266
0.0228973
0.0228681
0.0228389
0.0228096
0.0227802
0.0227506
0.0227208
0.022691
0.022661
0.022631
0.0226009
0.0225709
0.0225409
0.022511
0.0224812
0.0224516
0.0224221
0.0223927
0.0223636
0.0223346
0.0223058
0.0222772
0.0222488
0.0222207
0.0221927
0.0221649
0.0221373
0.02211
0.0220828
0.0220559
0.0220291
0.0220026
0.0219763
0.0219502
0.0219243
0.0218985
0.021873
0.0218477
0.0218225
0.0217976
0.0217728
0.0217482
0.0217238
0.0216996
0.0216756
0.0216519
0.0216283
0.021605
0.0215818
0.0215589
0.0215361
0.0215134
0.0214909
0.0214685
0.0214463
0.0214241
0.0214021
0.0213802
0.0213584
0.0213369
0.0213154
0.0212942
0.0212732
0.0212523
0.0212317
0.0212112
0.0211908
0.0211706
0.0211504
0.0211302
0.0211101
0.0210899
0.0210697
0.0210495
0.0210293
0.0210094
0.0209897
0.0209705
0.0209519
0.0209339
0.0209168
0.0209007
0.0208856
0.0208715
0.0208585
0.0208465
0.0208354
0.0208253
0.0208158
0.020807
0.0207986
0.0207905
0.0207824
0.0207741
0.0207654
0.020756
0.0207457
0.0207343
0.0207217
0.0207075
0.0206917
0.0206742
0.0206551
0.0206342
0.0206118
0.0205879
0.0205628
0.0205367
0.0205099
0.0204826
0.020455
0.0204275
0.0204002
0.0203734
0.0203472
0.0203217
0.0202971
0.0202733
0.0202504
0.0202284
0.0202072
0.0201867
0.0201669
0.0201478
0.0201291
0.0201109
0.020093
0.0200754
0.020058
0.0200407
0.0200236
0.0200064
0.0199893
0.0199722
0.0199551
0.0199379
0.0199207
0.0199034
0.0198861
0.0198688
0.0198514
0.0198341
0.0198167
0.0197993
0.019782
0.0197647
0.0197474
0.0197302
0.019713
0.0196959
0.0196789
0.0196619
0.019645
0.0196282
0.0196115
0.0195948
0.0195783
0.0195618
0.0195455
0.0195292
0.019513
0.0194969
0.019481
0.0194651
0.0194493
0.0194336
0.019418
0.0194025
0.0193871
0.0193719
0.0193567
0.0193416
0.0193266
0.0193117
0.0192969
0.0192822
0.0192676
0.0192531
0.0192388
0.0192245
0.0192103
0.0191962
0.0191821
0.0191682
0.0191543
0.0191405
0.0191268
0.0191132
0.0190996
0.0190861
0.0190727
0.0190594
0.0190461
0.019033
0.0190199
0.0190069
0.018994
0.0189811
0.0189683
0.0189555
0.0189428
0.0189301
0.0189175
0.0189049
0.0188923
0.0188798
0.0188673
0.0188549
0.0188427
0.0188306
0.0188186
0.018807
0.0187956
0.0187845
0.0187738
0.0187635
0.0187536
0.0187442
0.0187354
0.018727
0.0187191
0.0187117
0.0187048
0.0186983
0.0186922
0.0186865
0.018681
0.0186757
0.0186706
0.0186654
0.0186601
0.0186547
0.018649
0.0186428
0.0186362
0.018629
0.0186211
0.0186125
0.018603
0.0185927
0.0185814
0.0185693
0.0185564
0.0185425
0.0185279
0.0185125
0.0184965
0.0184799
0.0184629
0.0184456
0.018428
0.0184103
0.0183926
0.0183749
0.0183574
0.0183402
0.0183232
0.0183066
0.0182904
0.0182745
0.0182591
0.0182441
0.0182295
0.0182152
0.0182013
0.0181878
0.0181746
0.0181616
0.0181489
0.0181363
0.018124
0.0181117
0.0180996
0.0180876
0.0180757
0.0180638
0.0180519
0.01804
0.0180282
0.0180164
0.0180045
0.0179926
0.0179808
0.0179689
0.017957
0.0179451
0.0179332
0.0179214
0.0179095
0.0178976
0.0178857
0.0178739
0.0178621
0.0178503
0.0178385
0.0178268
0.0178151
0.0178034
0.0177918
0.0177802
0.0177687
0.0177573
0.0177459
0.0177345
0.0177232
0.017712
0.0177008
0.0176896
0.0176786
0.0176676
0.0176566
0.0176457
0.0176349
0.0176241
0.0176134
0.0176028
0.0175922
0.0175817
0.0175712
0.0175609
0.0175505
0.0175403
0.0175301
0.0175199
0.0175098
0.0174998
0.0174898
0.0174799
0.0174701
0.0174603
0.0174505
0.0174408
0.0174312
0.0174216
0.017412
0.0174025
0.0173931
0.0173837
0.0173743
0.017365
0.0173557
0.0173465
0.0173373
0.0173282
0.017319
0.01731
0.0173009
0.0172919
0.0172829
0.017274
0.017265
0.0172562
0.0172474
0.0172386
0.0172299
0.0172214
0.0172129
0.0172045
0.0171963
0.0171882
0.0171803
0.0171726
0.0171651
0.0171579
0.0171509
0.0171441
0.0171377
0.0171315
0.0171256
0.0171199
0.0171146
0.0171095
0.0171046
0.0171
0.0170956
0.0170913
0.0170872
0.0170832
0.0170793
0.0170753
0.0170714
0.0170673
0.0170631
0.0170587
0.0170541
0.0170492
0.017044
0.0170384
0.0170323
0.0170259
0.0170189
0.0170114
0.0170035
0.016995
0.0169859
0.0169764
0.0169664
0.0169559
0.016945
0.0169336
0.016922
0.01691
0.0168978
0.0168854
0.0168728
0.0168601
0.0168475
0.0168348
0.0168221
0.0168096
0.0167972
0.0167849
0.0167728
0.0167609
0.0167492
0.0167378
0.0167265
0.0167155
0.0167047
0.0166941
0.0166837
0.0166735
0.0166634
0.0166536
0.0166438
0.0166342
0.0166247
0.0166153
0.016606
0.0165967
0.0165876
0.0165784
0.0165693
0.0165602
0.0165512
0.0165422
0.0165331
0.0165241
0.0165151
0.0165061
0.0164971
0.0164881
0.0164791
0.0164701
0.0164611
0.0164521
0.0164431
0.0164341
0.0164252
0.0164162
0.0164072
0.0163983
0.0163894
0.0163805
0.0163716
0.0163628
0.016354
0.0163452
0.0163364
0.0163277
0.016319
0.0163103
0.0163017
0.0162931
0.0162846
0.0162761
0.0162676
0.0162591
0.0162508
0.0162424
0.0162341
0.0162258
0.0162176
0.0162094
0.0162013
0.0161932
0.0161851
0.0161771
0.0161691
0.0161612
0.0161533
0.0161455
0.0161377
0.0161299
0.0161222
0.0161145
0.0161069
0.0160993
0.0160917
0.0160842
0.0160767
0.0160692
0.0160618
0.0160544
0.016047
0.0160397
0.0160324
0.0160251
0.0160179
0.0160107
0.0160035
0.0159964
0.0159893
0.0159821
0.0159751
0.015968
0.015961
0.015954
0.0159471
0.0159402
0.0159333
0.0159265
0.0159198
0.015913
0.0159064
0.0158998
0.0158933
0.0158869
0.0158807
0.0158744
0.0158684
0.0158624
0.0158567
0.0158509
0.0158455
0.01584
0.015835
0.0158298
0.0158251
0.0158203
0.015816
0.0158114
0.0158075
0.0158032
0.0157996
0.0157956
0.0157922
0.0157884
0.0157852
0.0157815
0.0157785
0.0157748
0.0157718
0.015768
0.0157649
0.015761
0.0157576
0.0157535
0.0157497
0.0157452
0.015741
0.0157361
0.0157313
0.0157258
0.0157205
0.0157144
0.0157083
0.0157016
0.0156949
0.0156876
0.0156802
0.0156722
0.0156642
0.0156557
0.0156471
0.0156381
0.015629
0.0156197
0.0156102
0.0156006
0.0155909
0.0155811
0.0155713
0.0155614
0.0155516
0.0155418
0.015532
0.0155223
0.0155127
0.0155032
0.0154938
0.0154845
0.0154753
0.0154662
0.0154573
0.0154485
0.0154398
0.0154313
0.0154229
0.0154145
0.0154063
0.0153982
0.0153902
0.0153822
0.0153744
0.0153665
0.0153588
0.0153511
0.0153435
0.0153359
0.0153283
0.0153208
0.0153132
0.0153057
0.0152983
0.0152908
0.0152833
0.0152759
0.0152684
0.015261
0.0152536
0.0152461
0.0152387
0.0152313
0.0152239
0.0152165
0.0152091
0.0152017
0.0151943
0.0151869
0.0151795
0.0151722
0.0151648
0.0151575
0.0151502
0.0151429
0.0151356
0.0151284
0.0151212
0.0151139
0.0151068
0.0150996
0.0150925
0.0150853
0.0150783
0.0150712
0.0150642
0.0150571
0.0150502
0.0150432
0.0150364
0.0150294
0.0150226
0.0150158
0.015009
0.0150022
0.0149956
0.0149888
0.0149822
0.0149755
0.014969
0.0149623
0.0149559
0.0149493
0.0149429
0.0149363
0.01493
0.0149235
0.0149172
0.0149108
0.0149045
0.0148982
0.014892
0.0148857
0.0148795
0.0148732
0.0148672
0.0148609
0.0148549
0.0148487
0.0148427
0.0148366
0.0148306
0.0148245
0.0148186
0.0148125
0.0148067
0.0148007
0.0147949
0.0147889
0.0147832
0.0147773
0.0147716
0.0147658
0.0147602
0.0147545
0.014749
0.0147434
0.0147381
0.0147326
0.0147274
0.0147221
0.0147171
0.0147119
0.0147071
0.014702
0.0146974
0.0146926
0.0146882
0.0146836
0.0146794
0.014675
0.0146711
0.0146668
0.0146632
0.0146591
0.0146556
0.0146517
0.0146485
0.0146446
0.0146416
0.0146378
0.0146349
0.0146312
0.0146283
0.0146246
0.0146217
0.0146179
0.014615
0.0146111
0.014608
0.0146039
0.0146006
0.0145963
0.0145928
0.0145882
0.0145844
0.0145794
0.0145752
0.0145698
0.0145652
0.0145594
0.0145544
0.0145481
0.0145426
0.0145359
0.01453
0.0145228
0.0145165
0.0145089
0.0145022
0.0144942
0.0144872
0.0144788
0.0144715
0.0144629
0.0144554
0.0144465
0.0144389
0.0144299
0.0144222
0.014413
0.0144053
0.0143961
0.0143885
0.0143793
0.0143718
0.0143626
0.0143552
0.0143461
0.0143389
0.0143298
0.0143229
0.0143139
0.0143072
0.0142982
0.0142917
0.0142829
0.0142766
0.0142678
0.0142617
0.014253
0.0142471
0.0142384
0.0142326
0.014224
0.0142183
0.0142099
0.0142041
0.0141958
0.0141901
0.0141819
0.0141761
0.014168
0.0141621
0.0141542
0.0141482
0.0141405
0.0141344
0.0141268
0.0141206
0.014113
0.0141068
0.0140993
0.014093
0.0140856
0.0140792
0.014072
0.0140654
0.0140583
0.0140517
0.0140446
0.014038
0.014031
0.0140244
0.0140174
0.0140108
0.0140038
0.0139972
0.0139902
0.0139837
0.0139768
0.0139702
0.0139634
0.0139568
0.01395
0.0139435
0.0139367
0.0139303
0.0139235
0.0139172
0.0139104
0.0139042
0.0138974
0.0138913
0.0138845
0.0138785
0.0138718
0.0138659
0.0138591
0.0138534
0.0138466
0.013841
0.0138343
0.0138289
0.0138221
0.013817
0.0138102
0.0138054
0.0137985
0.013794
0.0137872
0.013783
0.0137763
0.0137724
0.0137658
0.0137623
0.0137558
0.0137527
0.0137465
0.0137437
0.0137379
0.0137355
0.0137301
0.0137281
0.0137231
0.0137215
0.013717
0.0137158
0.0137119
0.0137111
0.0137054
0.180174
)
;

boundaryField
{
    inlet
    {
        type            fixedValue;
        value           uniform 0.55;
    }
    outlet
    {
        type            zeroGradient;
    }
    emptyWalls
    {
        type            empty;
    }
}


// ************************************************************************* //
