/*--------------------------------*- C++ -*----------------------------------*\
  =========                 |
  \\      /  F ield         | OpenFOAM: The Open Source CFD Toolbox
   \\    /   O peration     | Website:  https://openfoam.org
    \\  /    A nd           | Version:  9
     \\/     M anipulation  |
\*---------------------------------------------------------------------------*/
FoamFile
{
    format      ascii;
    class       volScalarField;
    location    "24750";
    object      Fb;
}
// * * * * * * * * * * * * * * * * * * * * * * * * * * * * * * * * * * * * * //

dimensions      [0 0 0 0 0 0 0];

internalField   nonuniform List<scalar> 
1000
(
0.805199
0.805202
0.805213
0.805194
0.805233
0.805187
0.805262
0.80519
0.805304
0.805213
0.805337
0.805267
0.805351
0.805339
0.805377
0.805402
0.805428
0.805451
0.805483
0.805503
0.805535
0.805563
0.80559
0.805628
0.805632
0.8057
0.805651
0.805761
0.805674
0.805787
0.805719
0.805804
0.805835
0.806156
0.808366
0.824803
0.832659
0.834107
0.834643
0.834922
0.835107
0.835258
0.835386
0.835476
0.83552
0.835541
0.835576
0.835651
0.835755
0.835837
0.835834
0.835699
0.835426
0.835049
0.834632
0.834248
0.833953
0.833774
0.833703
0.833706
0.833735
0.833771
0.833917
0.834275
0.834666
0.835042
0.835387
0.835668
0.835904
0.836063
0.836181
0.836232
0.836252
0.836246
0.83622
0.836179
0.836131
0.836082
0.83604
0.836003
0.835975
0.835951
0.835932
0.835915
0.835899
0.835881
0.835862
0.835838
0.83581
0.835774
0.835731
0.835677
0.835611
0.835527
0.835425
0.8353
0.83515
0.834976
0.834783
0.834578
0.834362
0.834138
0.833908
0.833673
0.833433
0.833189
0.832942
0.832692
0.832439
0.832183
0.831924
0.831663
0.8314
0.831136
0.830869
0.830601
0.830331
0.830059
0.829786
0.82951
0.829232
0.828951
0.828669
0.828384
0.828097
0.827809
0.82752
0.82723
0.82694
0.82665
0.82636
0.826069
0.825778
0.825486
0.825191
0.824894
0.824595
0.824292
0.823988
0.823682
0.823376
0.823069
0.822762
0.822457
0.822154
0.821852
0.821553
0.821255
0.820957
0.820655
0.820347
0.820029
0.819697
0.819348
0.818981
0.818595
0.818191
0.81777
0.817336
0.81689
0.816436
0.815977
0.815515
0.815055
0.814599
0.814152
0.813719
0.813302
0.812907
0.812536
0.812194
0.811881
0.811597
0.811344
0.811117
0.810914
0.810731
0.810562
0.810403
0.810247
0.810091
0.80993
0.809759
0.809576
0.80938
0.809169
0.808942
0.808701
0.808446
0.808178
0.807898
0.80761
0.807314
0.807012
0.806705
0.806396
0.806086
0.805775
0.805464
0.805154
0.804846
0.804539
0.804234
0.80393
0.803628
0.803328
0.803029
0.802731
0.802434
0.802137
0.801841
0.801545
0.801249
0.800953
0.800656
0.800359
0.800062
0.799764
0.799466
0.799166
0.798866
0.798565
0.798264
0.797961
0.797657
0.797353
0.797048
0.796741
0.796434
0.796125
0.795816
0.795506
0.795194
0.794882
0.794569
0.794255
0.79394
0.793624
0.793306
0.792988
0.792669
0.792349
0.792027
0.791705
0.791381
0.791056
0.79073
0.790404
0.790076
0.789748
0.789418
0.789089
0.788758
0.788427
0.788096
0.787763
0.787431
0.787097
0.786763
0.786428
0.786091
0.785755
0.785417
0.785078
0.784739
0.784399
0.784059
0.783719
0.783378
0.783038
0.782698
0.782359
0.782019
0.781678
0.781337
0.780993
0.780647
0.780297
0.779943
0.779583
0.779218
0.778845
0.778465
0.778077
0.777681
0.777277
0.776865
0.776446
0.77602
0.775588
0.775151
0.77471
0.774267
0.773824
0.773382
0.772943
0.772509
0.772081
0.771662
0.771254
0.770857
0.770473
0.770103
0.769749
0.769409
0.769084
0.768773
0.768476
0.768191
0.767916
0.767651
0.767392
0.767138
0.766887
0.766637
0.766386
0.766133
0.765876
0.765613
0.765345
0.76507
0.764788
0.7645
0.764204
0.763902
0.763594
0.76328
0.762961
0.762637
0.76231
0.761979
0.761646
0.76131
0.760973
0.760635
0.760297
0.759958
0.759619
0.75928
0.758941
0.758602
0.758265
0.757927
0.75759
0.757254
0.756918
0.756582
0.756247
0.755912
0.755577
0.755241
0.754906
0.754571
0.754236
0.7539
0.753564
0.753228
0.752891
0.752553
0.752215
0.751877
0.751538
0.751198
0.750858
0.750517
0.750175
0.749832
0.749489
0.749145
0.7488
0.748455
0.748109
0.747762
0.747414
0.747065
0.746716
0.746365
0.746014
0.745662
0.74531
0.744956
0.744601
0.744246
0.74389
0.743533
0.743175
0.742817
0.742458
0.742098
0.741737
0.741375
0.741013
0.740651
0.740287
0.739923
0.739559
0.739193
0.738827
0.738461
0.738094
0.737726
0.737358
0.736989
0.736619
0.736249
0.735879
0.735508
0.735137
0.734766
0.734394
0.734021
0.733649
0.733275
0.732901
0.732527
0.732151
0.731774
0.731395
0.731014
0.730631
0.730245
0.729857
0.729465
0.729069
0.72867
0.728266
0.727858
0.727446
0.727029
0.726607
0.726181
0.725751
0.725317
0.72488
0.724439
0.723996
0.723552
0.723106
0.722659
0.722213
0.721769
0.721326
0.720887
0.720451
0.72002
0.719595
0.719176
0.718764
0.71836
0.717963
0.717574
0.717194
0.716822
0.716458
0.716101
0.715752
0.71541
0.715073
0.714742
0.714415
0.714091
0.71377
0.713451
0.713132
0.712813
0.712492
0.712171
0.711847
0.71152
0.71119
0.710857
0.71052
0.710179
0.709835
0.709487
0.709136
0.708781
0.708423
0.708062
0.707698
0.707332
0.706963
0.706593
0.706222
0.705848
0.705474
0.705099
0.704723
0.704346
0.703969
0.703592
0.703214
0.702837
0.702459
0.702081
0.701703
0.701325
0.700947
0.700569
0.700191
0.699813
0.699435
0.699056
0.698678
0.698299
0.69792
0.69754
0.69716
0.69678
0.696399
0.696018
0.695637
0.695254
0.694872
0.694488
0.694104
0.693719
0.693334
0.692948
0.692562
0.692174
0.691786
0.691397
0.691008
0.690617
0.690226
0.689834
0.689442
0.689048
0.688654
0.688259
0.687863
0.687467
0.687069
0.686671
0.686272
0.685872
0.685472
0.68507
0.684668
0.684265
0.683862
0.683457
0.683052
0.682646
0.68224
0.681833
0.681425
0.681016
0.680607
0.680197
0.679786
0.679375
0.678963
0.67855
0.678137
0.677723
0.677309
0.676894
0.676478
0.676062
0.675645
0.675228
0.67481
0.674392
0.673973
0.673553
0.673132
0.67271
0.672288
0.671864
0.671439
0.671013
0.670585
0.670156
0.669724
0.669291
0.668856
0.668418
0.667978
0.667535
0.667089
0.666641
0.66619
0.665736
0.665279
0.66482
0.664358
0.663893
0.663425
0.662956
0.662484
0.662011
0.661536
0.66106
0.660583
0.660105
0.659628
0.659151
0.658675
0.658201
0.657728
0.657257
0.656789
0.656325
0.655863
0.655405
0.654951
0.654502
0.654057
0.653617
0.653181
0.65275
0.652323
0.651902
0.651484
0.65107
0.650661
0.650254
0.649851
0.64945
0.649051
0.648654
0.648258
0.647863
0.647468
0.647073
0.646678
0.646281
0.645884
0.645484
0.645083
0.64468
0.644275
0.643868
0.643458
0.643046
0.642631
0.642214
0.641795
0.641374
0.64095
0.640525
0.640097
0.639668
0.639237
0.638804
0.638371
0.637935
0.637499
0.637062
0.636623
0.636184
0.635744
0.635303
0.634862
0.63442
0.633977
0.633534
0.63309
0.632646
0.632202
0.631757
0.631311
0.630865
0.630419
0.629972
0.629524
0.629076
0.628628
0.628178
0.627729
0.627278
0.626827
0.626376
0.625923
0.62547
0.625016
0.624562
0.624107
0.623651
0.623194
0.622736
0.622277
0.621818
0.621358
0.620897
0.620435
0.619972
0.619508
0.619043
0.618578
0.618111
0.617643
0.617175
0.616706
0.616235
0.615764
0.615292
0.614819
0.614345
0.61387
0.613393
0.612917
0.612439
0.61196
0.61148
0.610999
0.610517
0.610035
0.609551
0.609067
0.608581
0.608095
0.607607
0.607119
0.60663
0.60614
0.605649
0.605158
0.604665
0.604172
0.603677
0.603182
0.602686
0.602189
0.601691
0.601192
0.600692
0.600192
0.59969
0.599187
0.598684
0.598179
0.597673
0.597166
0.596658
0.596149
0.595638
0.595125
0.594612
0.594096
0.593579
0.593061
0.59254
0.592018
0.591493
0.590967
0.590438
0.589908
0.589375
0.58884
0.588303
0.587763
0.587221
0.586677
0.586131
0.585583
0.585032
0.58448
0.583926
0.58337
0.582813
0.582255
0.581695
0.581134
0.580572
0.58001
0.579447
0.578884
0.578321
0.577759
0.577197
0.576636
0.576075
0.575516
0.574958
0.574402
0.573847
0.573295
0.572744
0.572195
0.571648
0.571104
0.570561
0.570021
0.569483
0.568947
0.568413
0.56788
0.567349
0.56682
0.566291
0.565764
0.565238
0.564711
0.564186
0.56366
0.563134
0.562607
0.56208
0.561552
0.561022
0.560492
0.559959
0.559426
0.55889
0.558352
0.557812
0.557271
0.556727
0.55618
0.555632
0.555081
0.554528
0.553973
0.553415
0.552856
0.552294
0.55173
0.551165
0.550597
0.550027
0.549455
0.548882
0.548307
0.54773
0.547151
0.546571
0.545989
0.545406
0.544821
0.544235
0.543647
0.543058
0.542467
0.541875
0.541281
0.540686
0.54009
0.539492
0.538893
0.538292
0.53769
0.537087
0.536481
0.535875
0.535267
0.534657
0.534046
0.533433
0.532818
0.532202
0.531585
0.530965
0.530344
0.529722
0.529097
0.528471
0.527843
0.527213
0.526581
0.525947
0.525312
0.524675
0.524036
0.523394
0.522751
0.522106
0.521459
0.52081
0.520159
0.519507
0.518851
0.518194
0.517535
0.516874
0.516211
0.515545
0.514878
0.514208
0.513536
0.512862
0.512186
0.511507
0.510827
0.510144
0.509459
0.508772
0.508083
0.507391
0.506697
0.506001
0.505302
0.504602
0.503899
0.503193
0.502486
0.501776
0.501064
0.500349
0.499633
0.498914
0.498192
0.497469
0.496743
0.496014
0.495284
0.494551
0.493816
0.493079
0.492339
0.491597
0.490852
0.490106
0.489357
0.488607
0.487854
0.487099
0.486341
0.485583
0.484821
0.48406
0.483295
0.48253
0.481762
0.480996
0.480226
0.479459
0.478688
0.477922
0.477152
0.476388
0.475621
0.474862
0.474101
0.473351
0.472599
0.47186
0.471122
0.470401
0.469681
0.468982
0.468288
0.467617
0.466954
0.466318
0.465693
0.465099
0.46452
0.463973
0.463445
0.462951
0.462478
0.462042
0.461628
0.461251
0.460898
0.460579
0.460284
0.460022
0.459783
0.459573
0.459385
0.459222
0.459077
0.458955
0.458848
0.458761
0.458684
0.458626
0.458572
0.458536
0.458502
0.458484
0.458464
0.458457
0.458446
0.458445
0.458436
0.458431
0.458409
0.458373
0.458289
0.458139
0.457846
0.457323
0.456355
0.454635
0.451536
0.446132
0.436765
0.421357
0.397117
0.363213
0.320932
0.278879
0.241384
0.218613
0.197833
)
;

boundaryField
{
    inlet
    {
        type            calculated;
        value           uniform 0.805169;
    }
    outlet
    {
        type            calculated;
        value           uniform 0.197835;
    }
    emptyWalls
    {
        type            empty;
    }
}


// ************************************************************************* //
