/*--------------------------------*- C++ -*----------------------------------*\
  =========                 |
  \\      /  F ield         | OpenFOAM: The Open Source CFD Toolbox
   \\    /   O peration     | Website:  https://openfoam.org
    \\  /    A nd           | Version:  9
     \\/     M anipulation  |
\*---------------------------------------------------------------------------*/
FoamFile
{
    format      ascii;
    class       volScalarField;
    location    "28800";
    object      krc;
}
// * * * * * * * * * * * * * * * * * * * * * * * * * * * * * * * * * * * * * //

dimensions      [0 0 0 0 0 0 0];

internalField   nonuniform List<scalar> 
1000
(
5.32097e-08
4.80802e-07
1.69096e-06
3.65882e-06
6.37598e-06
9.84295e-06
1.407e-05
1.90683e-05
2.48527e-05
3.14383e-05
3.88414e-05
4.70757e-05
5.61529e-05
6.60806e-05
7.68605e-05
8.84871e-05
0.000100943
0.0001142
0.000128208
0.000142903
0.000158189
0.00017395
0.000190034
0.000206268
0.000222452
0.000238376
0.000253828
0.000268611
0.000282559
0.000295547
0.000307499
0.000318387
0.000328228
0.000337083
0.000345084
0.000352609
0.000361169
0.000377549
0.00043263
0.000669099
0.00252901
0.0216964
0.039363
0.0438753
0.0456788
0.0466931
0.0473914
0.0479363
0.0483937
0.048796
0.0491595
0.0494947
0.0498072
0.0501021
0.0503816
0.0506486
0.0509042
0.0511499
0.0513862
0.0516147
0.0518356
0.0520497
0.052257
0.0524585
0.0526542
0.052845
0.0530309
0.0532126
0.0533901
0.053564
0.0537344
0.053902
0.0540665
0.0542289
0.0543888
0.054547
0.0547032
0.054858
0.0550112
0.0551634
0.0553146
0.0554653
0.0556154
0.0557656
0.0559168
0.0560693
0.0562219
0.056375
0.0565286
0.0566828
0.0568377
0.0569936
0.0571505
0.0573089
0.0574688
0.0576305
0.0577945
0.0579609
0.0581303
0.0583031
0.0584799
0.0586614
0.0588485
0.0590424
0.0592447
0.0594573
0.0596829
0.0599249
0.0601875
0.0604754
0.0607936
0.0611459
0.0615346
0.0619583
0.0624125
0.0628906
0.0633864
0.0638952
0.0644136
0.0649393
0.0654703
0.0660055
0.0665438
0.0670843
0.0676266
0.0681702
0.0687146
0.0692596
0.0698049
0.0703504
0.0708958
0.0714412
0.0719862
0.072531
0.0730753
0.0736191
0.0741623
0.074705
0.075247
0.0757883
0.0763288
0.0768686
0.0774076
0.0779457
0.078483
0.0790194
0.079555
0.0800897
0.0806235
0.0811565
0.0816885
0.0822197
0.08275
0.0832794
0.0838079
0.0843356
0.0848624
0.0853884
0.0859135
0.0864377
0.0869611
0.0874836
0.0880053
0.0885261
0.089046
0.089565
0.0900832
0.0906004
0.0911167
0.091632
0.0921464
0.0926599
0.0931725
0.0936841
0.0941947
0.0947045
0.0952133
0.0957212
0.0962281
0.0967342
0.0972394
0.0977436
0.098247
0.0987495
0.0992511
0.0997518
0.100252
0.100751
0.101249
0.101746
0.102242
0.102738
0.103233
0.103726
0.104219
0.104712
0.105203
0.105693
0.106183
0.106672
0.107159
0.107647
0.108133
0.108618
0.109103
0.109587
0.11007
0.110552
0.111033
0.111513
0.111993
0.112472
0.11295
0.113427
0.113904
0.11438
0.114855
0.115329
0.115802
0.116275
0.116747
0.117218
0.117688
0.118157
0.118626
0.119094
0.119561
0.120028
0.120493
0.120958
0.121423
0.121886
0.122349
0.122811
0.123272
0.123732
0.124192
0.124651
0.12511
0.125567
0.126024
0.12648
0.126936
0.127391
0.127845
0.128298
0.128751
0.129203
0.129654
0.130105
0.130555
0.131004
0.131453
0.131901
0.132348
0.132794
0.13324
0.133686
0.13413
0.134574
0.135017
0.13546
0.135902
0.136343
0.136784
0.137223
0.137663
0.138101
0.138539
0.138976
0.139412
0.139848
0.140283
0.140718
0.141152
0.141585
0.142018
0.14245
0.142881
0.143312
0.143743
0.144172
0.144602
0.14503
0.145459
0.145886
0.146314
0.14674
0.147167
0.147593
0.148018
0.148442
0.148867
0.14929
0.149714
0.150136
0.150558
0.15098
0.151401
0.151821
0.152241
0.15266
0.153078
0.153496
0.153914
0.15433
0.154747
0.155162
0.155578
0.155992
0.156406
0.15682
0.157233
0.157645
0.158057
0.158469
0.15888
0.15929
0.1597
0.16011
0.160519
0.160927
0.161335
0.161742
0.162149
0.162556
0.162962
0.163367
0.163772
0.164177
0.164581
0.164984
0.165388
0.16579
0.166193
0.166594
0.166995
0.167396
0.167797
0.168196
0.168596
0.168994
0.169393
0.169791
0.170189
0.170586
0.170982
0.171378
0.171774
0.172169
0.172564
0.172959
0.173353
0.173746
0.174139
0.174532
0.174924
0.175316
0.175707
0.176098
0.176489
0.176879
0.177269
0.177658
0.178047
0.178435
0.178823
0.17921
0.179598
0.179984
0.180371
0.180757
0.181142
0.181527
0.181912
0.182296
0.18268
0.183064
0.183447
0.18383
0.184212
0.184594
0.184976
0.185357
0.185738
0.186118
0.186498
0.186878
0.187257
0.187636
0.188015
0.188393
0.188771
0.189148
0.189525
0.189902
0.190278
0.190654
0.19103
0.191404
0.191779
0.192153
0.192528
0.192901
0.193274
0.193647
0.194019
0.194391
0.194763
0.195134
0.195505
0.195875
0.196245
0.196615
0.196985
0.197354
0.197723
0.198091
0.198459
0.198827
0.199195
0.199562
0.19993
0.200296
0.200663
0.20103
0.201396
0.201762
0.202128
0.202494
0.202859
0.203224
0.203589
0.203954
0.204318
0.204682
0.205046
0.205409
0.205773
0.206136
0.206498
0.206861
0.207223
0.207584
0.207946
0.208307
0.208668
0.209028
0.209388
0.209748
0.210107
0.210466
0.210825
0.211184
0.211542
0.2119
0.212258
0.212615
0.212972
0.213329
0.213686
0.214042
0.214398
0.214753
0.215109
0.215464
0.215819
0.216174
0.216529
0.216883
0.217237
0.21759
0.217944
0.218297
0.21865
0.219003
0.219355
0.219707
0.22006
0.220411
0.220763
0.221114
0.221465
0.221816
0.222166
0.222516
0.222867
0.223216
0.223566
0.223915
0.224265
0.224613
0.224962
0.22531
0.225659
0.226006
0.226354
0.226702
0.227049
0.227396
0.227743
0.228089
0.228436
0.228782
0.229128
0.229473
0.229819
0.230164
0.23051
0.230854
0.231199
0.231543
0.231888
0.232231
0.232575
0.232919
0.233262
0.233605
0.233948
0.234291
0.234634
0.234976
0.235318
0.23566
0.236002
0.236343
0.236685
0.237025
0.237367
0.237707
0.238048
0.238388
0.238729
0.239068
0.239408
0.239748
0.240087
0.240426
0.240766
0.241104
0.241443
0.241781
0.24212
0.242458
0.242796
0.243133
0.243471
0.243808
0.244145
0.244482
0.244819
0.245155
0.245491
0.245827
0.246163
0.246498
0.246834
0.247169
0.247504
0.247839
0.248174
0.248508
0.248842
0.249176
0.249511
0.249844
0.250178
0.250511
0.250845
0.251178
0.251512
0.251845
0.252178
0.252511
0.252844
0.253177
0.25351
0.253843
0.254176
0.254508
0.254841
0.255173
0.255507
0.255839
0.256172
0.256504
0.256836
0.257168
0.257501
0.257833
0.258165
0.258496
0.258829
0.25916
0.259492
0.259823
0.260154
0.260485
0.260816
0.261147
0.261478
0.261808
0.262139
0.262468
0.262799
0.263128
0.263459
0.263788
0.264118
0.264447
0.264776
0.265105
0.265435
0.265763
0.266092
0.266421
0.26675
0.267078
0.267407
0.267734
0.268063
0.268391
0.268719
0.269047
0.269375
0.269702
0.27003
0.270357
0.270685
0.271012
0.27134
0.271667
0.271994
0.272321
0.272648
0.272975
0.273302
0.273628
0.273956
0.274282
0.274609
0.274934
0.275261
0.275587
0.275914
0.276239
0.276566
0.276891
0.277218
0.277543
0.277869
0.278194
0.278521
0.278845
0.279171
0.279496
0.279822
0.280147
0.280473
0.280797
0.281123
0.281447
0.281773
0.282097
0.282422
0.282746
0.283072
0.283396
0.283721
0.284045
0.28437
0.284694
0.285019
0.285342
0.285667
0.285991
0.286315
0.286639
0.286964
0.287287
0.287612
0.287935
0.288259
0.288583
0.288907
0.28923
0.289555
0.289878
0.290202
0.290525
0.290849
0.291172
0.291496
0.291819
0.292143
0.292466
0.29279
0.293112
0.293436
0.293759
0.294083
0.294405
0.294729
0.295051
0.295375
0.295697
0.296021
0.296343
0.296667
0.296989
0.297312
0.297634
0.297957
0.298279
0.298602
0.298924
0.299247
0.299569
0.299891
0.300213
0.300536
0.300858
0.30118
0.301502
0.301825
0.302146
0.302469
0.302791
0.303114
0.303436
0.303759
0.304081
0.304404
0.304726
0.305049
0.305371
0.305695
0.306017
0.306341
0.306664
0.306988
0.307311
0.307635
0.307958
0.308283
0.308606
0.308931
0.309254
0.309579
0.309903
0.310228
0.310552
0.310878
0.311202
0.311527
0.311851
0.312177
0.312501
0.312827
0.313151
0.313477
0.313801
0.314127
0.314452
0.314778
0.315102
0.315428
0.315753
0.316079
0.316404
0.31673
0.317054
0.317381
0.317705
0.318032
0.318356
0.318683
0.319008
0.319334
0.319659
0.319986
0.320311
0.320637
0.320963
0.32129
0.321615
0.321942
0.322267
0.322595
0.32292
0.323248
0.323574
0.323901
0.324227
0.324555
0.324881
0.325209
0.325535
0.325863
0.32619
0.326518
0.326845
0.327174
0.327501
0.327829
0.328156
0.328485
0.328813
0.329142
0.329469
0.329799
0.330126
0.330456
0.330784
0.331114
0.331442
0.331772
0.332101
0.332431
0.33276
0.33309
0.333419
0.33375
0.334079
0.33441
0.334739
0.33507
0.3354
0.335731
0.336062
0.336393
0.336724
0.337055
0.337386
0.337718
0.338049
0.338381
0.338713
0.339045
0.339377
0.339709
0.340042
0.340374
0.340707
0.34104
0.341374
0.341706
0.342041
0.342373
0.342708
0.34304
0.343377
0.343707
0.344046
0.344376
0.344716
0.345045
0.345387
0.345715
0.346057
0.346386
0.346728
0.347058
0.3474
0.347731
0.348073
0.348404
0.348747
0.349078
0.349421
0.349752
0.350096
0.350428
0.350772
0.351104
0.351448
0.351781
0.352126
0.352457
0.352805
0.353134
0.353485
0.353811
0.354167
0.354487
0.354852
0.355163
0.355538
0.355838
0.356226
0.356514
0.356915
0.35719
0.357606
0.357867
0.358298
0.358545
0.358991
0.359224
0.359685
0.359904
0.36038
0.360587
0.361075
0.361271
0.361771
0.361957
0.362468
0.362647
0.363164
0.363338
0.363862
0.364032
0.364561
0.364727
0.365262
0.365425
0.365963
0.366125
0.366665
0.366828
0.367368
0.367533
0.368073
0.368239
0.368779
0.368947
0.369487
0.369656
0.370197
0.370367
0.370908
0.371079
0.37162
0.371793
0.372334
0.372508
0.37305
0.373225
0.373767
0.373943
0.374486
0.374662
0.375205
0.375384
0.375926
0.376108
0.376648
0.376833
0.377372
0.377558
0.378098
0.378286
0.378825
0.379015
0.379554
0.379746
0.380285
0.380479
0.381018
0.381213
0.381752
0.381949
0.382489
0.382686
0.383228
0.383426
0.383968
0.384168
0.384709
0.384913
0.385452
0.385659
0.386199
0.386406
0.386947
0.387156
0.387697
0.387909
0.388449
0.388663
0.389203
0.38942
0.38996
0.390178
0.39072
0.390938
0.391482
0.3917
0.392246
0.392466
0.393011
0.393234
0.393779
0.394005
0.39455
0.394778
0.395323
0.395559
0.204382
)
;

boundaryField
{
    inlet
    {
        type            calculated;
        value           uniform 3.08149e-33;
    }
    outlet
    {
        type            calculated;
        value           uniform 0.204382;
    }
    emptyWalls
    {
        type            empty;
    }
}


// ************************************************************************* //
