/*--------------------------------*- C++ -*----------------------------------*\
  =========                 |
  \\      /  F ield         | OpenFOAM: The Open Source CFD Toolbox
   \\    /   O peration     | Website:  https://openfoam.org
    \\  /    A nd           | Version:  9
     \\/     M anipulation  |
\*---------------------------------------------------------------------------*/
FoamFile
{
    format      ascii;
    class       volScalarField;
    location    "17350";
    object      Fb;
}
// * * * * * * * * * * * * * * * * * * * * * * * * * * * * * * * * * * * * * //

dimensions      [0 0 0 0 0 0 0];

internalField   nonuniform List<scalar> 
1000
(
0.805194
0.805208
0.805217
0.805203
0.805251
0.805198
0.805311
0.805203
0.805403
0.805246
0.80548
0.805345
0.805518
0.805468
0.805558
0.805564
0.805617
0.805631
0.805666
0.805681
0.805712
0.805772
0.806004
0.807271
0.818858
0.831673
0.83379
0.834564
0.83499
0.835279
0.835502
0.835682
0.835834
0.835964
0.836078
0.836171
0.836257
0.836331
0.836387
0.836444
0.836485
0.83652
0.836547
0.836562
0.836573
0.83658
0.836571
0.83658
0.836556
0.836565
0.836541
0.836535
0.836516
0.836488
0.836449
0.8364
0.83634
0.836274
0.836206
0.83613
0.836059
0.835977
0.835875
0.835749
0.835585
0.835369
0.835086
0.834724
0.834277
0.833762
0.833196
0.832606
0.832012
0.831426
0.830851
0.830287
0.829737
0.829207
0.828705
0.828242
0.827828
0.82747
0.827167
0.826917
0.826712
0.826538
0.826384
0.826236
0.826081
0.825908
0.82571
0.825481
0.825219
0.824922
0.824593
0.824234
0.82385
0.823445
0.823024
0.822592
0.822154
0.821712
0.821271
0.820831
0.820395
0.819963
0.819536
0.819113
0.818694
0.818279
0.817867
0.817458
0.81705
0.816643
0.816237
0.815831
0.815425
0.815018
0.814611
0.814203
0.813793
0.813383
0.812971
0.812558
0.812143
0.811728
0.811311
0.810892
0.810472
0.810051
0.809629
0.809204
0.808779
0.808352
0.807924
0.807494
0.807063
0.806631
0.806197
0.805762
0.805325
0.804888
0.804448
0.804008
0.803566
0.803122
0.802678
0.802232
0.801785
0.801336
0.800887
0.800435
0.799983
0.799529
0.799073
0.798616
0.798158
0.797698
0.797236
0.796773
0.796309
0.795844
0.795379
0.794912
0.794445
0.793977
0.793508
0.793039
0.792569
0.792098
0.791626
0.791153
0.790678
0.790203
0.789726
0.789248
0.78877
0.788291
0.787813
0.787335
0.786856
0.786377
0.785897
0.785414
0.784927
0.784435
0.783936
0.78343
0.782913
0.782387
0.781849
0.7813
0.780739
0.780168
0.779587
0.778997
0.778399
0.777795
0.777188
0.77658
0.775973
0.77537
0.774775
0.77419
0.773617
0.773061
0.772523
0.772004
0.771507
0.771032
0.770579
0.770146
0.769733
0.769337
0.768955
0.768585
0.768222
0.767863
0.767504
0.767144
0.766778
0.766404
0.766021
0.765626
0.765221
0.764803
0.764374
0.763933
0.763482
0.763021
0.762552
0.762075
0.761593
0.761105
0.760614
0.76012
0.759624
0.759126
0.758629
0.758131
0.757634
0.757137
0.756642
0.756148
0.755655
0.755162
0.754671
0.754181
0.753691
0.753202
0.752714
0.752226
0.751738
0.75125
0.750762
0.750274
0.749786
0.749297
0.748807
0.748317
0.747826
0.747335
0.746843
0.74635
0.745856
0.745361
0.744865
0.744369
0.743871
0.743373
0.742873
0.742373
0.741871
0.741369
0.740866
0.740361
0.739856
0.739349
0.738841
0.738333
0.737823
0.737312
0.736801
0.736288
0.735774
0.735259
0.734743
0.734225
0.733707
0.733188
0.732667
0.732146
0.731623
0.731099
0.730574
0.730047
0.72952
0.728991
0.728462
0.727931
0.7274
0.726867
0.726333
0.725799
0.725263
0.724727
0.724189
0.723651
0.723112
0.722572
0.722031
0.72149
0.720947
0.720404
0.719859
0.719314
0.718768
0.718222
0.717675
0.717127
0.716578
0.716028
0.715477
0.714926
0.714373
0.713818
0.713261
0.712702
0.71214
0.711575
0.711007
0.710434
0.709857
0.709276
0.708689
0.708097
0.7075
0.706897
0.706289
0.705676
0.705057
0.704434
0.703807
0.703177
0.702544
0.701909
0.701272
0.700636
0.700002
0.699369
0.698739
0.698115
0.697495
0.696883
0.696277
0.695681
0.695093
0.694515
0.693947
0.693389
0.69284
0.692302
0.691772
0.691251
0.690737
0.690229
0.689727
0.689228
0.688732
0.688238
0.687743
0.687247
0.686749
0.686248
0.685743
0.685234
0.684719
0.684199
0.683674
0.683142
0.682605
0.682063
0.681516
0.680963
0.680406
0.679845
0.67928
0.678712
0.67814
0.677566
0.67699
0.676412
0.675833
0.675252
0.67467
0.674088
0.673505
0.672922
0.672337
0.671754
0.671169
0.670585
0.669999
0.669415
0.668829
0.668244
0.667658
0.667072
0.666485
0.665898
0.665311
0.664723
0.664134
0.663544
0.662954
0.662363
0.661771
0.661178
0.660584
0.65999
0.659394
0.658797
0.658199
0.6576
0.656999
0.656398
0.655795
0.655192
0.654587
0.65398
0.653373
0.652764
0.652154
0.651542
0.65093
0.650316
0.6497
0.649084
0.648466
0.647847
0.647226
0.646604
0.645981
0.645356
0.64473
0.644102
0.643473
0.642843
0.642211
0.641578
0.640944
0.640308
0.639671
0.639032
0.638392
0.63775
0.637107
0.636463
0.635818
0.63517
0.634522
0.633872
0.633221
0.632569
0.631915
0.63126
0.630603
0.629946
0.629286
0.628626
0.627964
0.627301
0.626637
0.625971
0.625304
0.624636
0.623966
0.623295
0.622623
0.621949
0.621274
0.620598
0.619919
0.61924
0.618558
0.617875
0.617189
0.616502
0.615813
0.615121
0.614427
0.61373
0.61303
0.612328
0.611622
0.610913
0.610201
0.609485
0.608766
0.608043
0.607316
0.606586
0.605852
0.605115
0.604374
0.60363
0.602883
0.602133
0.60138
0.600626
0.599869
0.599111
0.598351
0.597591
0.596831
0.596071
0.595311
0.594553
0.593796
0.59304
0.592288
0.591538
0.590791
0.590047
0.589307
0.58857
0.587837
0.587108
0.586383
0.585661
0.584943
0.584228
0.583515
0.582805
0.582097
0.58139
0.580684
0.579979
0.579273
0.578566
0.577859
0.577149
0.576438
0.575723
0.575006
0.574285
0.573561
0.572833
0.5721
0.571364
0.570623
0.569878
0.569128
0.568374
0.567616
0.566854
0.566087
0.565317
0.564543
0.563765
0.562984
0.5622
0.561412
0.560621
0.559827
0.55903
0.558231
0.557429
0.556624
0.555817
0.555008
0.554196
0.553382
0.552565
0.551746
0.550925
0.550102
0.549276
0.548448
0.547618
0.546785
0.545949
0.545112
0.544271
0.543429
0.542583
0.541735
0.540884
0.540031
0.539175
0.538315
0.537453
0.536588
0.53572
0.534849
0.533974
0.533097
0.532216
0.531332
0.530445
0.529555
0.528661
0.527763
0.526862
0.525958
0.52505
0.524138
0.523223
0.522304
0.521381
0.520455
0.519525
0.518591
0.517653
0.516711
0.515765
0.514815
0.513861
0.512903
0.511941
0.510975
0.510005
0.50903
0.508052
0.507069
0.506081
0.50509
0.504094
0.503094
0.50209
0.501082
0.500069
0.499052
0.498031
0.497006
0.495977
0.494944
0.493907
0.492866
0.491822
0.490774
0.489723
0.48867
0.487614
0.486556
0.485495
0.484434
0.483372
0.482311
0.481251
0.480193
0.479139
0.478088
0.477045
0.476009
0.474984
0.473972
0.472973
0.471993
0.471032
0.470095
0.469185
0.468303
0.467455
0.466644
0.46587
0.465138
0.464451
0.463807
0.463212
0.462665
0.462163
0.46171
0.461301
0.460935
0.460614
0.460329
0.460079
0.459864
0.459673
0.459513
0.459367
0.459238
0.459117
0.458985
0.458841
0.458635
0.458343
0.457859
0.457031
0.455597
0.453081
0.448678
0.44107
0.428285
0.407819
0.377607
0.3382
0.294738
0.255261
0.225502
0.206163
0.194801
0.188518
0.185161
0.183396
0.182479
0.182003
0.181756
0.181627
0.181559
0.181523
0.181505
0.181496
0.181492
0.18149
0.18149
0.181493
0.181496
0.1815
0.181505
0.181511
0.181518
0.181525
0.181532
0.18154
0.181549
0.181558
0.181567
0.181576
0.181585
0.181594
0.181604
0.181613
0.181622
0.181631
0.18164
0.181648
0.181656
0.181664
0.181672
0.181679
0.181685
0.181692
0.181698
0.181703
0.181708
0.181713
0.181717
0.181721
0.181725
0.181728
0.181731
0.181734
0.181737
0.181739
0.181741
0.181743
0.181745
0.181747
0.181748
0.18175
0.181751
0.181753
0.181754
0.181755
0.181756
0.181758
0.181759
0.18176
0.181762
0.181763
0.181764
0.181766
0.181767
0.181769
0.18177
0.181772
0.181773
0.181775
0.181777
0.181779
0.18178
0.181782
0.181784
0.181786
0.181788
0.18179
0.181792
0.181794
0.181796
0.181798
0.181799
0.181801
0.181803
0.181805
0.181807
0.181809
0.181811
0.181813
0.181815
0.181816
0.181818
0.18182
0.181822
0.181823
0.181825
0.181826
0.181828
0.181829
0.181831
0.181832
0.181834
0.181835
0.181836
0.181837
0.181838
0.181839
0.18184
0.181841
0.181842
0.181843
0.181844
0.181845
0.181845
0.181846
0.181846
0.181847
0.181847
0.181847
0.181848
0.181848
0.181848
0.181848
0.181848
0.181848
0.181848
0.181848
0.181848
0.181847
0.181847
0.181847
0.181846
0.181845
0.181845
0.181844
0.181843
0.181843
0.181842
0.181841
0.18184
0.181839
0.181838
0.181837
0.181835
0.181834
0.181833
0.181831
0.18183
0.181828
0.181826
0.181825
0.181823
0.181821
0.181819
0.181816
0.181814
0.181811
0.181809
0.181806
0.181803
0.181799
0.181796
0.181792
0.181788
0.181784
0.18178
0.181775
0.181771
0.181765
0.18176
0.181754
0.181748
0.181742
0.181735
0.181729
0.181721
0.181714
0.181706
0.181698
0.18169
0.181682
0.181673
0.181664
0.181655
0.181645
0.181636
0.181627
0.181617
0.181607
0.181598
0.181588
0.181579
0.18157
0.181561
0.181552
0.181543
0.181535
0.181528
0.181521
0.181514
0.181508
0.181502
0.181497
0.181493
0.181489
0.181486
0.181484
0.181482
0.181481
0.181481
0.181481
0.181482
0.181482
0.181484
0.181488
0.181491
0.181496
0.181501
0.181506
0.181512
0.181519
0.181526
0.181533
0.18154
0.181548
0.181556
0.181564
0.181572
0.181581
0.181589
0.181597
0.181605
0.181614
0.181622
0.181629
0.181637
0.181644
0.181651
0.181658
0.181665
0.181671
0.181677
0.181683
0.181689
0.181694
0.181699
0.181704
0.181708
0.181712
0.181716
0.18172
0.181724
0.181727
0.18173
0.181733
0.181736
0.181739
0.181742
0.181744
0.181747
0.181749
0.181752
0.181753
0.181756
0.181758
0.181761
0.181762
0.181765
0.181766
0.181769
0.18177
0.181773
0.181775
0.181778
0.181779
0.181782
0.181783
0.181786
0.181787
0.18179
0.181791
0.181795
0.181796
0.181799
0.1818
0.181803
0.181804
0.181808
0.181808
)
;

boundaryField
{
    inlet
    {
        type            calculated;
        value           uniform 0.805169;
    }
    outlet
    {
        type            calculated;
        value           uniform 0.18181;
    }
    emptyWalls
    {
        type            empty;
    }
}


// ************************************************************************* //
