/*--------------------------------*- C++ -*----------------------------------*\
  =========                 |
  \\      /  F ield         | OpenFOAM: The Open Source CFD Toolbox
   \\    /   O peration     | Website:  https://openfoam.org
    \\  /    A nd           | Version:  9
     \\/     M anipulation  |
\*---------------------------------------------------------------------------*/
FoamFile
{
    format      ascii;
    class       volScalarField;
    location    "26700";
    object      kra;
}
// * * * * * * * * * * * * * * * * * * * * * * * * * * * * * * * * * * * * * //

dimensions      [0 0 0 0 0 0 0];

internalField   nonuniform List<scalar> 
1000
(
0.000236616
0.000237369
0.000238354
0.000239343
0.000240344
0.000241342
0.000242348
0.000243366
0.000244391
0.000245422
0.000246476
0.000247515
0.000248602
0.000249645
0.000250765
0.000251806
0.000252944
0.000253982
0.000255096
0.000256131
0.000257182
0.000258184
0.000259152
0.000260069
0.000260933
0.000261728
0.000262463
0.000263123
0.00026372
0.000264252
0.000264718
0.00026515
0.000265511
0.000265977
0.000266718
0.000269303
0.000278872
0.000331028
0.000637054
0.000845773
0.000886284
0.000900319
0.00090736
0.000911808
0.000916102
0.000921627
0.000928174
0.000934409
0.000939016
0.000941526
0.00094237
0.000942428
0.000942166
0.000939997
0.000936724
0.000933893
0.000931727
0.000930286
0.000929505
0.000929233
0.000929234
0.000929583
0.00093034
0.000930942
0.000931293
0.000931401
0.000931401
0.000931376
0.000931186
0.000930941
0.000930521
0.000930172
0.000929675
0.000929258
0.000928718
0.000928252
0.000927686
0.00092718
0.000926604
0.000926032
0.00092544
0.00092484
0.000924226
0.000923596
0.000922953
0.0009223
0.000921624
0.000920937
0.000920234
0.000919519
0.000918781
0.000918029
0.00091725
0.000916446
0.000915604
0.00091473
0.000913803
0.000912819
0.000911758
0.000910612
0.00090935
0.000907958
0.000906406
0.000904685
0.000902785
0.000900726
0.000898538
0.000896259
0.00089392
0.000891534
0.000889118
0.00088668
0.000884231
0.00088178
0.000879337
0.000876911
0.000874509
0.000872136
0.000869796
0.000867489
0.00086521
0.000862953
0.000860704
0.000858453
0.000856193
0.000853923
0.000851648
0.000849374
0.000847105
0.000844847
0.000842614
0.000840428
0.000838319
0.000836325
0.000834481
0.00083281
0.000831317
0.000829991
0.000828807
0.000827732
0.000826733
0.000825777
0.00082484
0.000823898
0.000822931
0.000821915
0.000820826
0.000819632
0.000818304
0.00081681
0.000815126
0.000813235
0.00081113
0.000808818
0.000806316
0.000803652
0.000800863
0.000797988
0.00079507
0.000792151
0.000789268
0.000786451
0.000783726
0.00078111
0.000778613
0.000776239
0.000773986
0.000771847
0.000769813
0.00076787
0.000766006
0.000764205
0.000762455
0.000760743
0.000759057
0.000757388
0.000755729
0.000754074
0.000752418
0.000750759
0.000749095
0.000747426
0.000745753
0.000744075
0.000742396
0.000740716
0.000739037
0.00073736
0.000735688
0.000734022
0.000732362
0.000730711
0.000729068
0.000727435
0.000725813
0.000724201
0.000722601
0.000721012
0.000719435
0.000717869
0.000716316
0.000714775
0.000713247
0.000711731
0.000710228
0.000708737
0.000707258
0.000705792
0.000704338
0.000702895
0.000701464
0.000700044
0.000698636
0.000697239
0.000695853
0.000694478
0.000693115
0.000691763
0.000690424
0.000689096
0.000687781
0.000686478
0.000685187
0.000683906
0.000682637
0.000681378
0.000680127
0.000678886
0.000677652
0.000676427
0.000675209
0.000673999
0.000672797
0.000671604
0.00067042
0.000669245
0.000668081
0.000666927
0.000665784
0.000664651
0.000663527
0.000662411
0.000661302
0.000660198
0.000659097
0.000657997
0.000656899
0.0006558
0.000654703
0.000653609
0.000652521
0.000651444
0.000650384
0.000649346
0.000648336
0.000647362
0.000646429
0.000645542
0.000644705
0.00064392
0.00064319
0.000642513
0.000641888
0.000641312
0.000640779
0.000640285
0.000639822
0.00063938
0.000638952
0.000638526
0.000638091
0.000637636
0.000637148
0.000636617
0.000636031
0.000635379
0.000634655
0.000633849
0.000632958
0.00063198
0.000630915
0.000629765
0.000628537
0.000627239
0.00062588
0.000624471
0.000623026
0.000621556
0.000620076
0.000618595
0.000617126
0.000615678
0.000614259
0.000612876
0.000611532
0.000610231
0.000608975
0.000607761
0.000606591
0.00060546
0.000604367
0.000603307
0.000602276
0.000601271
0.000600288
0.000599323
0.000598372
0.000597432
0.0005965
0.000595575
0.000594653
0.000593733
0.000592815
0.000591896
0.000590977
0.000590057
0.000589136
0.000588215
0.000587292
0.000586369
0.000585447
0.000584525
0.000583604
0.000582684
0.000581766
0.000580851
0.000579938
0.000579029
0.000578123
0.000577221
0.000576323
0.00057543
0.000574541
0.000573658
0.000572779
0.000571905
0.000571037
0.000570174
0.000569316
0.000568464
0.000567617
0.000566775
0.000565939
0.000565109
0.000564284
0.000563464
0.00056265
0.000561842
0.000561039
0.000560241
0.00055945
0.000558664
0.000557883
0.000557108
0.000556339
0.000555575
0.000554817
0.000554064
0.000553316
0.000552573
0.000551835
0.000551102
0.000550373
0.000549648
0.000548928
0.000548213
0.000547501
0.000546795
0.000546092
0.000545394
0.0005447
0.000544011
0.000543327
0.000542646
0.00054197
0.000541298
0.000540629
0.000539963
0.0005393
0.00053864
0.000537983
0.000537327
0.000536674
0.000536023
0.000535376
0.000534732
0.000534094
0.000533461
0.000532836
0.000532221
0.000531618
0.000531028
0.000530453
0.000529897
0.00052936
0.000528844
0.000528351
0.000527882
0.000527438
0.000527019
0.000526624
0.000526254
0.000525906
0.00052558
0.000525273
0.000524983
0.000524705
0.000524437
0.000524175
0.000523913
0.000523648
0.000523375
0.000523088
0.000522784
0.000522456
0.000522101
0.000521714
0.000521293
0.000520832
0.000520331
0.000519788
0.000519201
0.000518571
0.000517898
0.000517185
0.000516435
0.000515649
0.000514834
0.000513991
0.000513128
0.000512249
0.000511358
0.000510461
0.000509563
0.000508668
0.00050778
0.000506902
0.000506038
0.000505189
0.000504359
0.000503546
0.000502755
0.00050198
0.000501228
0.000500491
0.000499777
0.000499074
0.000498392
0.000497718
0.000497064
0.000496414
0.000495781
0.000495147
0.000494531
0.000493909
0.000493304
0.000492689
0.000492091
0.00049148
0.000490887
0.000490277
0.000489686
0.000489076
0.000488487
0.000487876
0.000487288
0.000486677
0.00048609
0.000485478
0.000484893
0.000484282
0.000483698
0.000483088
0.000482507
0.0004819
0.000481321
0.000480718
0.000480143
0.000479545
0.000478972
0.00047838
0.000477812
0.000477226
0.000476662
0.000476082
0.000475523
0.000474951
0.000474396
0.000473831
0.000473282
0.000472725
0.00047218
0.000471631
0.000471092
0.00047055
0.000470017
0.000469482
0.000468955
0.000468428
0.000467907
0.000467387
0.000466872
0.000466359
0.000465851
0.000465345
0.000464843
0.000464343
0.000463847
0.000463353
0.000462863
0.000462376
0.000461891
0.00046141
0.000460931
0.000460455
0.000459982
0.000459511
0.000459044
0.000458578
0.000458116
0.000457656
0.000457198
0.000456743
0.00045629
0.000455839
0.00045539
0.000454943
0.000454499
0.000454056
0.000453615
0.000453176
0.00045274
0.000452306
0.000451875
0.000451447
0.000451023
0.000450603
0.000450188
0.000449778
0.000449375
0.000448979
0.000448591
0.000448211
0.000447842
0.000447483
0.000447135
0.000446799
0.000446476
0.000446164
0.000445868
0.000445582
0.000445312
0.000445052
0.000444808
0.000444572
0.00044435
0.000444134
0.00044393
0.000443729
0.000443538
0.000443345
0.000443159
0.000442967
0.000442777
0.000442576
0.000442373
0.000442155
0.000441931
0.000441686
0.000441431
0.000441151
0.000440858
0.000440537
0.000440201
0.000439834
0.00043945
0.000439034
0.000438602
0.000438139
0.000437661
0.000437154
0.000436634
0.000436088
0.000435533
0.000434957
0.000434376
0.000433779
0.000433181
0.000432571
0.000431966
0.000431353
0.000430749
0.000430141
0.000429545
0.000428949
0.000428367
0.000427787
0.000427223
0.000426661
0.000426117
0.000425576
0.000425052
0.00042453
0.000424026
0.000423522
0.000423036
0.000422548
0.000422077
0.000421603
0.000421145
0.000420682
0.000420235
0.000419779
0.000419341
0.000418891
0.00041846
0.000418013
0.000417586
0.000417142
0.000416719
0.000416276
0.000415856
0.000415412
0.000414994
0.000414551
0.000414135
0.000413692
0.000413278
0.000412834
0.000412422
0.000411978
0.000411569
0.000411126
0.000410718
0.000410276
0.000409872
0.000409431
0.00040903
0.000408591
0.000408194
0.000407757
0.000407363
0.000406929
0.00040654
0.000406108
0.000405723
0.000405294
0.000404914
0.000404488
0.000404113
0.00040369
0.00040332
0.000402901
0.000402535
0.00040212
0.00040176
0.000401347
0.000400993
0.000400583
0.000400235
0.000399828
0.000399485
0.000399082
0.000398745
0.000398344
0.000398013
0.000397614
0.000397289
0.000396892
0.000396574
0.000396178
0.000395866
0.000395472
0.000395166
0.000394773
0.000394474
0.000394082
0.000393788
0.000393397
0.000393109
0.000392719
0.000392437
0.000392048
0.00039177
0.000391383
0.000391109
0.000390725
0.000390453
0.000390073
0.000389802
0.000389427
0.000389158
0.000388789
0.000388522
0.000388159
0.000387893
0.00038754
0.000387276
0.000386933
0.000386671
0.00038634
0.000386083
0.000385765
0.000385514
0.000385211
0.000384967
0.00038468
0.000384446
0.000384176
0.000383953
0.0003837
0.000383489
0.000383254
0.000383057
0.000382838
0.000382654
0.000382451
0.000382279
0.00038209
0.00038193
0.000381751
0.000381601
0.000381429
0.000381285
0.000381117
0.000380976
0.000380807
0.000380665
0.00038049
0.000380343
0.000380157
0.000380001
0.000379798
0.000379629
0.000379405
0.000379218
0.000378969
0.000378761
0.000378483
0.000378252
0.000377942
0.000377688
0.000377344
0.000377065
0.000376688
0.000376386
0.000375976
0.000375653
0.000375213
0.000374872
0.000374405
0.00037405
0.000373561
0.000373197
0.000372689
0.000372321
0.000371801
0.000371432
0.000370905
0.000370539
0.00037001
0.000369651
0.000369124
0.000368773
0.000368253
0.000367912
0.0003674
0.00036707
0.000366569
0.00036625
0.00036576
0.000365453
0.000364974
0.000364677
0.000364209
0.000363922
0.000363463
0.000363185
0.000362734
0.000362463
0.00036202
0.000361755
0.000361317
0.000361058
0.000360625
0.00036037
0.00035994
0.000359688
0.00035926
0.00035901
0.000358585
0.000358337
0.000357913
0.000357666
0.000357243
0.000356997
0.000356575
0.00035633
0.000355909
0.000355665
0.000355245
0.000355002
0.000354582
0.00035434
0.000353922
0.000353681
0.000353264
0.000353025
0.00035261
0.000352372
0.000351958
0.000351722
0.00035131
0.000351076
0.000350667
0.000350435
0.000350027
0.000349798
0.000349393
0.000349166
0.000348764
0.000348539
0.000348139
0.000347918
0.000347521
0.000347302
0.000346908
0.000346691
0.0003463
0.000346087
0.000345699
0.000345488
0.000345103
0.000344895
0.000344513
0.000344308
0.000343928
0.000343726
0.000343349
0.00034315
0.000342775
0.000342579
0.000342207
0.000342013
0.000341644
0.000341452
0.000341086
0.000340896
0.000340532
0.000340345
0.000339983
0.000339798
0.000339439
0.000339256
0.000338898
0.000338718
0.000338362
0.000338184
0.000337831
0.000337655
0.000337304
0.00033713
0.000336781
0.00033661
0.000336264
0.000336096
0.000335754
0.000335589
0.00033525
0.000335089
0.000334755
0.000334599
0.000334269
0.000334119
0.000333795
0.000333651
0.000333334
0.000333197
0.000332887
0.000332758
0.000332456
0.000332335
0.000332042
0.00033193
0.000331646
0.000331543
0.000331269
0.000331175
0.000330909
0.000330824
0.000330567
0.00033049
0.000330241
0.000330171
0.000329928
0.000329864
0.000329626
0.000329566
0.00032933
0.000329271
0.000329035
0.000328977
0.00032874
0.000328681
0.00032844
0.000328379
0.00032813
0.000328066
0.000327803
0.000327735
0.000327453
0.00032738
0.000327075
0.000326995
0.000326666
0.000326579
0.000326223
0.000326129
0.000325745
0.000325644
0.000325231
0.000325124
0.000324682
0.000324567
0.000324097
0.000323965
0.000323472
0.00032333
0.000322824
0.000322671
0.000322153
0.000321989
0.000321461
0.00032129
0.000320754
0.000320578
0.000320036
0.000319859
0.000319313
0.000319137
0.00031859
0.000318417
0.00031787
0.000317703
0.000317157
0.000316997
0.000316454
0.000316301
0.000315761
0.000315616
0.000315082
0.000314943
0.000314415
0.000314282
0.000313761
0.000313632
0.000313119
0.000312993
0.000312488
0.000312364
0.000311866
0.000311744
0.000311252
0.000311131
0.000310645
0.000310525
0.000310043
0.000309924
0.000309445
0.000309327
0.000308852
0.000308734
0.000308261
0.000308143
0.000307672
0.000307555
0.000307086
0.000306966
0.000306502
0.00030638
0.000305919
0.000305795
0.000305336
0.000305211
0.000304755
0.000304629
0.000304176
0.00030405
0.000303597
0.000303474
0.000303021
0.0003029
0.000302448
0.00030233
0.000301878
0.000301763
0.000301311
0.0003012
0.00030046
0.0541655
)
;

boundaryField
{
    inlet
    {
        type            calculated;
        value           uniform 0.000236304;
    }
    outlet
    {
        type            calculated;
        value           uniform 2.71652e-05;
    }
    emptyWalls
    {
        type            empty;
    }
}


// ************************************************************************* //
