/*--------------------------------*- C++ -*----------------------------------*\
  =========                 |
  \\      /  F ield         | OpenFOAM: The Open Source CFD Toolbox
   \\    /   O peration     | Website:  https://openfoam.org
    \\  /    A nd           | Version:  9
     \\/     M anipulation  |
\*---------------------------------------------------------------------------*/
FoamFile
{
    format      ascii;
    class       volScalarField;
    location    "29000";
    object      krb;
}
// * * * * * * * * * * * * * * * * * * * * * * * * * * * * * * * * * * * * * //

dimensions      [0 0 0 0 0 0 0];

internalField   nonuniform List<scalar> 
1000
(
0.0977973
0.0980729
0.0984485
0.0988264
0.0992069
0.099593
0.0999829
0.10037
0.100778
0.101165
0.101594
0.101981
0.102432
0.10282
0.103284
0.103686
0.104147
0.104575
0.105024
0.105467
0.105908
0.106344
0.106775
0.107192
0.107599
0.107985
0.108351
0.108698
0.109007
0.109313
0.109554
0.109823
0.110001
0.110227
0.110366
0.110544
0.110688
0.110952
0.11168
0.114412
0.127619
0.239938
0.437029
0.482833
0.496657
0.503167
0.507158
0.510022
0.512274
0.514151
0.515766
0.517187
0.518454
0.519595
0.520633
0.521585
0.522459
0.523264
0.524
0.524673
0.525287
0.525849
0.52637
0.526859
0.527315
0.527738
0.528125
0.528478
0.528793
0.529049
0.529261
0.529434
0.529576
0.529695
0.529799
0.529895
0.529986
0.530074
0.530157
0.53023
0.53029
0.530334
0.530378
0.53044
0.530492
0.530533
0.530553
0.530551
0.530528
0.530479
0.530405
0.530307
0.530185
0.53004
0.529874
0.529686
0.529477
0.529248
0.528998
0.528728
0.528437
0.528123
0.527786
0.527422
0.527027
0.526598
0.526129
0.52561
0.525033
0.524384
0.523647
0.522809
0.521858
0.52079
0.519614
0.518351
0.517031
0.515673
0.514288
0.512886
0.511473
0.510054
0.508632
0.50721
0.505789
0.504372
0.502959
0.501552
0.50015
0.498755
0.497366
0.495985
0.494611
0.493245
0.491887
0.490536
0.489194
0.487859
0.486533
0.485214
0.483903
0.4826
0.481305
0.480017
0.478738
0.477466
0.476202
0.474946
0.473697
0.472456
0.471224
0.469998
0.468781
0.46757
0.466367
0.46517
0.463981
0.462799
0.461624
0.460454
0.459293
0.458138
0.45699
0.455849
0.454715
0.453588
0.452468
0.451354
0.450248
0.449148
0.448055
0.446966
0.445884
0.444806
0.443732
0.442662
0.441596
0.440532
0.439473
0.438417
0.437366
0.436317
0.435276
0.434237
0.433206
0.432178
0.431159
0.430145
0.429139
0.428139
0.427149
0.426166
0.425193
0.424227
0.423271
0.422323
0.421385
0.420453
0.41953
0.418613
0.417703
0.416797
0.415897
0.415
0.414108
0.413218
0.412333
0.411448
0.410568
0.409689
0.408814
0.40794
0.40707
0.406202
0.405339
0.404478
0.403621
0.402767
0.401918
0.401071
0.40023
0.399391
0.398558
0.397728
0.396902
0.39608
0.395263
0.394448
0.393639
0.392832
0.39203
0.391231
0.390437
0.389645
0.388858
0.388073
0.387293
0.386515
0.385742
0.38497
0.384204
0.383439
0.382679
0.381921
0.381167
0.380415
0.379668
0.378922
0.378181
0.377441
0.376707
0.375972
0.375244
0.374515
0.373793
0.37307
0.372354
0.371637
0.370926
0.370214
0.369509
0.368803
0.368104
0.367403
0.366709
0.366014
0.365325
0.364635
0.363952
0.363267
0.362589
0.361909
0.361236
0.360562
0.359894
0.359224
0.358562
0.357897
0.357239
0.35658
0.355927
0.355272
0.354623
0.353973
0.35333
0.352685
0.352046
0.351405
0.350771
0.350136
0.349506
0.348875
0.348251
0.347625
0.347004
0.346382
0.345766
0.345148
0.344535
0.343921
0.343311
0.342699
0.342092
0.341483
0.340879
0.340272
0.33967
0.339066
0.338467
0.337865
0.337269
0.336671
0.336078
0.335483
0.334895
0.334304
0.333721
0.333136
0.332558
0.331978
0.331407
0.330834
0.330269
0.329703
0.329145
0.328586
0.328035
0.327483
0.326938
0.326392
0.325853
0.325313
0.324778
0.324242
0.323712
0.32318
0.322653
0.322123
0.321599
0.321072
0.320549
0.320024
0.319504
0.318981
0.318463
0.317942
0.317425
0.316906
0.316392
0.315876
0.315364
0.31485
0.314341
0.31383
0.313324
0.312815
0.312312
0.311807
0.311306
0.310804
0.310307
0.309808
0.309314
0.308818
0.308327
0.307834
0.307346
0.306856
0.306371
0.305883
0.305401
0.304917
0.304438
0.303956
0.303479
0.303001
0.302527
0.30205
0.301579
0.301106
0.300637
0.300166
0.2997
0.299231
0.298768
0.298302
0.297841
0.297377
0.296919
0.296458
0.296001
0.295543
0.295089
0.294633
0.294181
0.293727
0.293278
0.292827
0.29238
0.291931
0.291486
0.291039
0.290597
0.290152
0.289712
0.289269
0.288831
0.288391
0.287955
0.287517
0.287084
0.286648
0.286217
0.285783
0.285354
0.284922
0.284495
0.284066
0.283641
0.283213
0.28279
0.282365
0.281944
0.281521
0.281102
0.280681
0.280264
0.279845
0.279431
0.279014
0.278601
0.278186
0.277776
0.277362
0.276954
0.276542
0.276135
0.275725
0.275319
0.27491
0.274506
0.274099
0.273695
0.273289
0.272887
0.272482
0.272081
0.271677
0.271277
0.270874
0.270475
0.270074
0.269677
0.269277
0.268881
0.268483
0.26809
0.267694
0.267302
0.266909
0.26652
0.266129
0.265744
0.265356
0.264973
0.264589
0.264209
0.263828
0.263452
0.263074
0.262701
0.262326
0.261956
0.261584
0.261217
0.260848
0.260483
0.260116
0.259754
0.259389
0.259028
0.258665
0.258305
0.257943
0.257585
0.257224
0.256867
0.256507
0.256151
0.255792
0.255437
0.255079
0.254725
0.254368
0.254015
0.253659
0.253307
0.252952
0.252601
0.252247
0.251898
0.251545
0.251197
0.250846
0.250499
0.250149
0.249804
0.249456
0.249111
0.248765
0.248422
0.248077
0.247735
0.247391
0.247051
0.246709
0.24637
0.246029
0.245692
0.245353
0.245017
0.244678
0.244344
0.244007
0.243674
0.243338
0.243006
0.242672
0.242341
0.242008
0.241678
0.241346
0.241018
0.240687
0.24036
0.240031
0.239705
0.239377
0.239052
0.238725
0.238401
0.238075
0.237753
0.237428
0.237107
0.236783
0.236463
0.23614
0.235821
0.2355
0.235182
0.234861
0.234545
0.234225
0.23391
0.233591
0.233277
0.23296
0.232646
0.23233
0.232018
0.231703
0.231391
0.231077
0.230767
0.230454
0.230145
0.229833
0.229525
0.229214
0.228907
0.228597
0.228291
0.227982
0.227677
0.227369
0.227065
0.226759
0.226456
0.22615
0.225848
0.225543
0.225242
0.224938
0.224638
0.224335
0.224035
0.223733
0.223434
0.223133
0.222835
0.222534
0.222237
0.221936
0.22164
0.22134
0.221044
0.220745
0.220449
0.22015
0.219855
0.219557
0.219263
0.218966
0.218672
0.218376
0.218083
0.217787
0.217495
0.217201
0.21691
0.216617
0.216327
0.216035
0.215747
0.215456
0.21517
0.214881
0.214596
0.214308
0.214025
0.213739
0.213458
0.213174
0.212894
0.212612
0.212333
0.212053
0.211776
0.211497
0.211221
0.210944
0.21067
0.210393
0.21012
0.209845
0.209573
0.209298
0.209027
0.208754
0.208483
0.20821
0.20794
0.207668
0.207398
0.207127
0.206858
0.206586
0.206318
0.206047
0.205779
0.205509
0.205241
0.204972
0.204705
0.204435
0.204169
0.203901
0.203635
0.203367
0.203102
0.202834
0.20257
0.202303
0.20204
0.201774
0.201511
0.201245
0.200983
0.200719
0.200457
0.200193
0.199933
0.199669
0.199409
0.199147
0.198887
0.198626
0.198367
0.198106
0.197848
0.197588
0.19733
0.197071
0.196814
0.196555
0.196299
0.19604
0.195785
0.195527
0.195273
0.195015
0.194761
0.194505
0.194251
0.193995
0.193742
0.193487
0.193235
0.19298
0.192728
0.192474
0.192223
0.191969
0.191719
0.191466
0.191216
0.190963
0.190714
0.190462
0.190213
0.189962
0.189713
0.189463
0.189215
0.188965
0.188717
0.188468
0.188221
0.187972
0.187726
0.187477
0.187232
0.186984
0.186738
0.186491
0.186246
0.186
0.185756
0.185509
0.185266
0.18502
0.184777
0.184532
0.184289
0.184044
0.183802
0.183558
0.183316
0.183073
0.182832
0.182588
0.182348
0.182105
0.181865
0.181622
0.181383
0.181141
0.180901
0.18066
0.180421
0.180179
0.179941
0.1797
0.179461
0.179221
0.178982
0.178742
0.178504
0.178264
0.178026
0.177787
0.177549
0.17731
0.177073
0.176834
0.176597
0.176358
0.176122
0.175883
0.175648
0.17541
0.175174
0.174937
0.174702
0.174466
0.174232
0.173995
0.173762
0.173527
0.173294
0.173059
0.172828
0.172594
0.172363
0.17213
0.1719
0.171668
0.171439
0.171208
0.17098
0.170749
0.170522
0.170292
0.170066
0.169837
0.169611
0.169383
0.169158
0.168931
0.168706
0.16848
0.168256
0.168029
0.167806
0.16758
0.167357
0.167131
0.166908
0.166683
0.166461
0.166236
0.166013
0.165789
0.165567
0.165342
0.16512
0.164896
0.164674
0.16445
0.164229
0.164005
0.163784
0.16356
0.163339
0.163115
0.162895
0.162671
0.162452
0.162228
0.162008
0.161785
0.161566
0.161343
0.161124
0.160901
0.160683
0.16046
0.160242
0.160019
0.159802
0.159579
0.159363
0.15914
0.158924
0.1587
0.158486
0.158262
0.158049
0.157824
0.157612
0.157387
0.157176
0.15695
0.15674
0.156515
0.156304
0.156079
0.155869
0.155644
0.155434
0.15521
0.155
0.154776
0.154567
0.154343
0.154133
0.15391
0.153701
0.153477
0.153268
0.153045
0.152837
0.152613
0.152406
0.15218
0.151977
0.151747
0.151549
0.151314
0.151122
0.15088
0.150696
0.150447
0.15027
0.150013
0.149845
0.14958
0.149421
0.149146
0.148997
0.148714
0.148574
0.148281
0.14815
0.14785
0.147727
0.147419
0.147303
0.146989
0.146879
0.14656
0.146455
0.146132
0.14603
0.145704
0.145606
0.145277
0.145181
0.144851
0.144757
0.144425
0.144332
0.144
0.143907
0.143575
0.143481
0.143151
0.143056
0.142727
0.142632
0.142302
0.142207
0.141878
0.141782
0.141454
0.141357
0.14103
0.140932
0.140606
0.140508
0.140181
0.140083
0.139757
0.139658
0.139333
0.139234
0.138909
0.138809
0.138485
0.138383
0.138062
0.137958
0.137638
0.137534
0.137214
0.13711
0.136791
0.136685
0.136368
0.136261
0.135945
0.135838
0.135522
0.135415
0.135099
0.134992
0.134677
0.134571
0.134255
0.134149
0.133835
0.133727
0.133415
0.133306
0.132995
0.132886
0.132576
0.132467
0.132157
0.132047
0.131739
0.131628
0.131322
0.13121
0.130904
0.130792
0.130486
0.130374
0.130068
0.129956
0.12965
0.129539
0.129233
0.12912
0.128815
0.128701
0.128398
0.128283
0.12798
0.127864
0.127561
0.127444
0.127143
0.127025
0.126724
0.126605
0.126304
0.126187
0.063071
)
;

boundaryField
{
    inlet
    {
        type            calculated;
        value           uniform 0.0976562;
    }
    outlet
    {
        type            calculated;
        value           uniform 0.063071;
    }
    emptyWalls
    {
        type            empty;
    }
}


// ************************************************************************* //
