/*--------------------------------*- C++ -*----------------------------------*\
  =========                 |
  \\      /  F ield         | OpenFOAM: The Open Source CFD Toolbox
   \\    /   O peration     | Website:  https://openfoam.org
    \\  /    A nd           | Version:  9
     \\/     M anipulation  |
\*---------------------------------------------------------------------------*/
FoamFile
{
    format      ascii;
    class       volScalarField;
    location    "29000";
    object      p;
}
// * * * * * * * * * * * * * * * * * * * * * * * * * * * * * * * * * * * * * //

dimensions      [0 0 0 0 0 0 0];

internalField   nonuniform List<scalar> 
1000
(
160085
159659
159235
158812
158391
157972
157554
157137
156723
156310
155898
155489
155081
154674
154270
153867
153465
153066
152668
152271
151877
151484
151092
150702
150314
149927
149541
149157
148773
148391
148010
147629
147250
146871
146493
146115
145738
145361
144986
144617
144268
143996
143870
143776
143688
143601
143516
143430
143346
143262
143177
143094
143010
142927
142843
142760
142677
142595
142512
142429
142347
142265
142182
142100
142018
141936
141854
141772
141690
141608
141526
141444
141363
141281
141199
141118
141036
140955
140873
140792
140710
140629
140548
140466
140385
140303
140222
140140
140059
139977
139895
139814
139732
139650
139569
139487
139405
139323
139242
139160
139078
138996
138914
138832
138750
138668
138586
138503
138421
138338
138256
138173
138090
138007
137924
137841
137758
137674
137590
137506
137422
137337
137252
137167
137082
136997
136911
136825
136739
136653
136566
136480
136393
136306
136218
136131
136043
135955
135867
135778
135690
135601
135512
135422
135333
135243
135153
135063
134973
134882
134791
134700
134609
134518
134426
134334
134242
134150
134058
133965
133872
133779
133686
133592
133499
133405
133311
133216
133122
133027
132932
132837
132742
132646
132551
132455
132359
132262
132166
132069
131972
131875
131778
131681
131583
131485
131387
131289
131191
131093
130994
130895
130796
130697
130597
130498
130398
130298
130197
130097
129996
129895
129794
129693
129592
129490
129388
129286
129184
129081
128979
128876
128773
128670
128566
128463
128359
128255
128151
128046
127942
127837
127732
127627
127522
127416
127311
127205
127099
126992
126886
126779
126673
126566
126459
126351
126244
126136
126028
125920
125812
125704
125595
125486
125377
125268
125159
125049
124940
124830
124720
124609
124499
124388
124278
124167
124056
123944
123833
123721
123609
123497
123385
123273
123160
123048
122935
122822
122708
122595
122481
122368
122254
122140
122025
121911
121796
121682
121567
121452
121336
121221
121105
120989
120873
120757
120641
120524
120408
120291
120174
120057
119939
119822
119704
119586
119468
119350
119232
119113
118995
118876
118757
118638
118518
118399
118279
118160
118040
117919
117799
117679
117558
117438
117317
117196
117074
116953
116832
116710
116588
116466
116344
116222
116099
115977
115854
115731
115608
115485
115361
115238
115114
114990
114866
114741
114617
114492
114368
114243
114117
113992
113867
113741
113615
113489
113363
113237
113110
112983
112857
112730
112603
112475
112348
112220
112092
111965
111836
111708
111580
111451
111322
111194
111065
110935
110806
110676
110547
110417
110287
110157
110026
109896
109765
109634
109503
109372
109241
109110
108978
108846
108714
108582
108450
108318
108185
108053
107920
107787
107654
107520
107387
107253
107119
106985
106851
106717
106583
106448
106313
106179
106044
105908
105773
105638
105502
105366
105230
105094
104958
104821
104685
104548
104411
104274
104137
104000
103863
103725
103587
103449
103311
103173
103035
102896
102757
102619
102480
102341
102201
102062
101922
101783
101643
101503
101363
101222
101082
100941
100801
100660
100519
100378
100236
100095
99953.3
99811.6
99669.7
99527.7
99385.5
99243.2
99100.8
98958.3
98815.6
98672.7
98529.8
98386.6
98243.4
98100
97956.5
97812.8
97669
97525.1
97381
97236.8
97092.4
96947.9
96803.2
96658.4
96513.5
96368.4
96223.1
96077.7
95932.2
95786.5
95640.6
95494.6
95348.4
95202.1
95055.6
94909
94762.2
94615.2
94468.1
94320.9
94173.5
94025.9
93878.2
93730.4
93582.3
93434.2
93285.9
93137.4
92988.8
92840
92691.1
92542.1
92392.9
92243.5
92094.1
91944.4
91794.6
91644.7
91494.6
91344.4
91194
91043.5
90892.9
90742
90591.1
90440
90288.8
90137.4
89985.8
89834.2
89682.3
89530.4
89378.3
89226
89073.6
88921
88768.3
88615.5
88462.5
88309.4
88156.1
88002.7
87849.1
87695.4
87541.6
87387.6
87233.4
87079.2
86924.7
86770.2
86615.4
86460.6
86305.6
86150.4
85995.1
85839.7
85684.1
85528.4
85372.6
85216.6
85060.4
84904.1
84747.7
84591.1
84434.4
84277.6
84120.6
83963.4
83806.1
83648.7
83491.2
83333.5
83175.6
83017.6
82859.5
82701.3
82542.8
82384.3
82225.6
82066.8
81907.8
81748.7
81589.5
81430.1
81270.6
81110.9
80951.1
80791.2
80631.1
80470.9
80310.5
80150
79989.4
79828.6
79667.7
79506.7
79345.5
79184.1
79022.7
78861.1
78699.3
78537.5
78375.5
78213.3
78051
77888.6
77726.1
77563.4
77400.6
77237.6
77074.5
76911.3
76748
76584.5
76420.9
76257.1
76093.3
75929.3
75765.1
75600.9
75436.5
75272
75107.3
74942.6
74777.7
74612.6
74447.5
74282.2
74116.8
73951.2
73785.5
73619.7
73453.8
73287.7
73121.5
72955.2
72788.7
72622.1
72455.3
72288.4
72121.4
71954.2
71786.9
71619.5
71451.9
71284.1
71116.2
70948.2
70780
70611.7
70443.3
70274.6
70105.9
69937
69767.9
69598.8
69429.4
69259.9
69090.3
68920.6
68750.7
68580.6
68410.4
68240.1
68069.6
67899
67728.2
67557.3
67386.3
67215.1
67043.8
66872.3
66700.7
66529
66357.1
66185.1
66012.9
65840.6
65668.2
65495.6
65322.9
65150
64977
64803.9
64630.6
64457.2
64283.7
64110
63936.2
63762.2
63588.1
63413.9
63239.5
63065
62890.3
62715.5
62540.6
62365.5
62190.3
62015
61839.5
61663.9
61488.1
61312.2
61136.2
60960
60783.7
60607.3
60430.7
60254
60077.1
59900.1
59723
59545.7
59368.3
59190.8
59013.1
58835.3
58657.3
58479.2
58301
58122.6
57944.1
57765.5
57586.7
57407.8
57228.8
57049.6
56870.3
56690.8
56511.2
56331.5
56151.6
55971.6
55791.5
55611.2
55430.8
55250.3
55069.6
54888.8
54707.9
54526.8
54345.6
54164.2
53982.8
53801.1
53619.4
53437.5
53255.5
53073.3
52891.1
52708.6
52526.1
52343.4
52160.6
51977.6
51794.5
51611.3
51427.9
51244.4
51060.8
50877.1
50693.2
50509.2
50325
50140.7
49956.3
49771.8
49587.1
49402.3
49217.3
49032.3
48847.1
48661.7
48476.3
48290.7
48105
47919.2
47733.2
47547.1
47360.9
47174.5
46988.1
46801.5
46614.8
46427.9
46240.9
46053.8
45866.6
45679.3
45491.8
45304.2
45116.5
44928.6
44740.6
44552.5
44364.3
44175.9
43987.4
43798.8
43610
43421.1
43232
43042.9
42853.6
42664.1
42474.6
42284.8
42095
41905
41714.9
41524.6
41334.2
41143.6
40952.9
40762.1
40571.1
40380
40188.7
39997.3
39805.8
39614.1
39422.2
39230.2
39038.1
38845.9
38653.4
38460.9
38268.2
38075.4
37882.4
37689.3
37496
37302.6
37109.1
36915.4
36721.6
36527.7
36333.6
36139.3
35944.9
35750.4
35555.8
35361
35166.1
34971
34775.8
34580.4
34385
34189.3
33993.6
33797.7
33601.6
33405.5
33209.1
33012.7
32816.1
32619.4
32422.5
32225.5
32028.4
31831.1
31633.6
31436.1
31238.4
31040.5
30842.6
30644.5
30446.2
30247.8
30049.3
29850.6
29651.8
29452.8
29253.8
29054.5
28855.2
28655.7
28456
28256.2
28056.3
27856.3
27656.1
27455.7
27255.3
27054.7
26853.9
26653
26452
26250.8
26049.5
25848.1
25646.5
25444.8
25242.9
25040.9
24838.8
24636.5
24434.1
24231.6
24028.9
23826.1
23623.1
23420
23216.8
23013.4
22809.9
22606.2
22402.5
22198.5
21994.5
21790.3
21585.9
21381.4
21176.8
20972.1
20767.2
20562.2
20357
20151.7
19946.3
19740.7
19535
19329.1
19123.1
18917
18710.7
18504.3
18297.8
18091.1
17884.3
17677.3
17470.2
17263
17055.6
16848.1
16640.5
16432.7
16224.8
16016.8
15808.6
15600.3
15391.9
15183.3
14974.6
14765.7
14556.7
14347.6
14138.4
13929
13719.5
13509.8
13300
13090.1
12880.1
12669.9
12459.6
12249.1
12038.6
11827.9
11617
11406
11194.9
10983.7
10772.3
10560.8
10349.2
10137.4
9925.5
9713.46
9501.28
9288.97
9076.51
8863.93
8651.2
8438.33
8225.32
8012.18
7798.89
7585.46
7371.89
7158.17
6944.31
6730.3
6516.15
6301.85
6087.4
5872.8
5658.06
5443.16
5228.12
5012.93
4797.58
4582.09
4366.44
4150.64
3934.69
3718.59
3502.34
3285.93
3069.37
2852.66
2635.8
2418.78
2201.61
1984.29
1766.82
1549.19
1331.42
1113.49
895.404
677.171
458.787
240.105
)
;

boundaryField
{
    inlet
    {
        type            darcyGradPressure;
        gradient        uniform 116344;
        Mf              Mf;
        phi             phi;
        value           uniform 160299;
    }
    outlet
    {
        type            fixedValue;
        value           uniform 0;
    }
    emptyWalls
    {
        type            empty;
    }
}


// ************************************************************************* //
