/*--------------------------------*- C++ -*----------------------------------*\
  =========                 |
  \\      /  F ield         | OpenFOAM: The Open Source CFD Toolbox
   \\    /   O peration     | Website:  https://openfoam.org
    \\  /    A nd           | Version:  9
     \\/     M anipulation  |
\*---------------------------------------------------------------------------*/
FoamFile
{
    format      ascii;
    class       volScalarField;
    location    "15650";
    object      krb;
}
// * * * * * * * * * * * * * * * * * * * * * * * * * * * * * * * * * * * * * //

dimensions      [0 0 0 0 0 0 0];

internalField   nonuniform List<scalar> 
1000
(
0.097912
0.098498
0.0992541
0.100012
0.100766
0.101535
0.102305
0.103085
0.103867
0.10464
0.105415
0.106122
0.106863
0.107428
0.108096
0.108505
0.109053
0.109397
0.110022
0.111432
0.116653
0.146344
0.340772
0.466331
0.493713
0.504288
0.510155
0.514056
0.516885
0.519077
0.520887
0.522469
0.523867
0.525083
0.526116
0.527036
0.52788
0.528607
0.529214
0.52971
0.530103
0.530404
0.530622
0.530765
0.530841
0.530857
0.53082
0.530723
0.530569
0.53036
0.530092
0.529763
0.529367
0.528894
0.528333
0.527661
0.526848
0.525848
0.524605
0.523065
0.5212
0.519046
0.516702
0.51425
0.511735
0.509185
0.50662
0.504052
0.501491
0.498943
0.496412
0.4939
0.491411
0.488945
0.486503
0.484086
0.481695
0.479329
0.476989
0.474673
0.472383
0.470118
0.467878
0.465662
0.46347
0.461302
0.459157
0.457036
0.454937
0.45286
0.450805
0.448771
0.446759
0.444768
0.442797
0.440846
0.438915
0.437003
0.43511
0.433237
0.431381
0.429544
0.427724
0.425922
0.424137
0.422369
0.420618
0.418884
0.417166
0.415464
0.413777
0.412106
0.41045
0.408809
0.407183
0.40557
0.403972
0.402387
0.400817
0.399259
0.397716
0.396185
0.394668
0.393164
0.391672
0.390192
0.388723
0.387266
0.385818
0.384381
0.382953
0.381534
0.380125
0.378724
0.377333
0.375952
0.37458
0.373218
0.371866
0.370524
0.369193
0.367873
0.366565
0.365269
0.363985
0.362714
0.361455
0.360209
0.358977
0.357756
0.356548
0.355351
0.354165
0.352989
0.351822
0.350664
0.349513
0.34837
0.347233
0.346102
0.344977
0.343857
0.342743
0.341633
0.34053
0.339431
0.338339
0.337252
0.336171
0.335096
0.334028
0.332966
0.33191
0.33086
0.329818
0.328781
0.327752
0.326728
0.325711
0.324701
0.323697
0.322699
0.321707
0.320721
0.319741
0.318766
0.317798
0.316835
0.315878
0.314926
0.31398
0.313039
0.312103
0.311172
0.310247
0.309326
0.308411
0.3075
0.306595
0.305694
0.304798
0.303906
0.30302
0.302138
0.30126
0.300387
0.299519
0.298655
0.297795
0.29694
0.296089
0.295242
0.2944
0.293562
0.292727
0.291897
0.291071
0.290249
0.289431
0.288617
0.287806
0.287
0.286197
0.285398
0.284603
0.283812
0.283024
0.28224
0.281459
0.280682
0.279909
0.279139
0.278373
0.27761
0.27685
0.276094
0.275341
0.274592
0.273846
0.273103
0.272363
0.271627
0.270893
0.270163
0.269437
0.268713
0.267992
0.267275
0.26656
0.265848
0.26514
0.264434
0.263732
0.263032
0.262335
0.261641
0.26095
0.260261
0.259575
0.258893
0.258212
0.257534
0.256859
0.256187
0.255516
0.254848
0.254182
0.253519
0.252857
0.252198
0.25154
0.250885
0.250231
0.24958
0.24893
0.248282
0.247637
0.246993
0.246352
0.245713
0.245077
0.244442
0.243811
0.243182
0.242556
0.241932
0.241312
0.240695
0.240081
0.23947
0.238863
0.238259
0.237658
0.23706
0.236466
0.235875
0.235286
0.234701
0.234118
0.233537
0.232959
0.232383
0.231809
0.231237
0.230667
0.230098
0.229531
0.228965
0.2284
0.227837
0.227275
0.226714
0.226154
0.225596
0.225039
0.224483
0.223929
0.223376
0.222825
0.222275
0.221726
0.221179
0.220634
0.22009
0.219548
0.219007
0.218468
0.217931
0.217395
0.216861
0.216329
0.215798
0.215269
0.214742
0.214216
0.213691
0.213169
0.212647
0.212128
0.211609
0.211093
0.210577
0.210064
0.209551
0.20904
0.208531
0.208023
0.207516
0.207011
0.206507
0.206004
0.205503
0.205002
0.204504
0.204006
0.20351
0.203015
0.202522
0.202029
0.201538
0.201048
0.20056
0.200072
0.199586
0.199101
0.198617
0.198134
0.197653
0.197172
0.196693
0.196215
0.195738
0.195262
0.194787
0.194314
0.193841
0.19337
0.192899
0.19243
0.191961
0.191494
0.191028
0.190563
0.190099
0.189635
0.189173
0.188712
0.188252
0.187793
0.187335
0.186878
0.186421
0.185966
0.185512
0.185058
0.184606
0.184155
0.183704
0.183254
0.182806
0.182358
0.181911
0.181465
0.18102
0.180575
0.180132
0.179689
0.179248
0.178807
0.178367
0.177928
0.177489
0.177052
0.176615
0.176179
0.175744
0.17531
0.174876
0.174443
0.174011
0.173579
0.173149
0.172718
0.172289
0.17186
0.171432
0.171004
0.170577
0.17015
0.169724
0.169299
0.168874
0.168449
0.168025
0.167602
0.167179
0.166756
0.166335
0.165913
0.165493
0.165072
0.164653
0.164234
0.163816
0.163398
0.162981
0.162565
0.16215
0.161735
0.161321
0.160909
0.160497
0.160085
0.159675
0.159266
0.158858
0.15845
0.158044
0.157639
0.157234
0.15683
0.156427
0.156025
0.155624
0.155223
0.154823
0.154424
0.154025
0.153627
0.153229
0.152832
0.152435
0.152038
0.151642
0.151246
0.15085
0.150455
0.150059
0.149664
0.149269
0.148874
0.14848
0.148085
0.147691
0.147296
0.146902
0.146508
0.146115
0.145721
0.145328
0.144935
0.144542
0.144149
0.143757
0.143365
0.142973
0.142581
0.142189
0.141798
0.141407
0.141016
0.140625
0.140234
0.139844
0.139454
0.139064
0.138674
0.138284
0.137894
0.137505
0.137116
0.136726
0.136337
0.135948
0.135559
0.135171
0.134782
0.134393
0.134005
0.133616
0.133227
0.132839
0.13245
0.132062
0.131673
0.131284
0.130896
0.130507
0.130118
0.129729
0.12934
0.128951
0.128562
0.128173
0.127783
0.127394
0.127004
0.126614
0.126224
0.125834
0.125443
0.125053
0.124662
0.124271
0.12388
0.123488
0.123096
0.122704
0.122312
0.121919
0.121526
0.121133
0.120739
0.120345
0.119951
0.119556
0.119161
0.118766
0.11837
0.117974
0.117577
0.117181
0.116783
0.116386
0.115988
0.115589
0.11519
0.114791
0.114392
0.113992
0.113592
0.113191
0.112791
0.11239
0.111989
0.111588
0.111187
0.110786
0.110385
0.109985
0.109585
0.109186
0.108788
0.108391
0.107996
0.107603
0.107212
0.106824
0.10644
0.10606
0.105684
0.105315
0.104952
0.104597
0.104251
0.103915
0.10359
0.103277
0.102978
0.102693
0.102424
0.102172
0.101937
0.101719
0.10152
0.101339
0.101176
0.10103
0.100901
0.100788
0.10069
0.100605
0.100532
0.100469
0.100415
0.100364
0.100314
0.100258
0.100183
0.100071
0.0998878
0.0995735
0.0990249
0.0980657
0.096408
0.0936174
0.089134
0.0824565
0.0735784
0.0634467
0.0537886
0.0461101
0.040884
0.03771
0.0359189
0.0349509
0.0344402
0.0341741
0.0340363
0.0339653
0.0339287
0.0339099
0.0339002
0.0338952
0.0338927
0.0338915
0.033891
0.0338907
0.0338906
0.0338907
0.0338908
0.033891
0.0338912
0.0338914
0.0338917
0.0338919
0.0338922
0.0338924
0.0338927
0.033893
0.0338932
0.0338935
0.0338938
0.033894
0.0338943
0.0338945
0.0338947
0.0338949
0.0338951
0.0338953
0.0338955
0.0338956
0.0338957
0.0338958
0.0338959
0.033896
0.0338961
0.0338961
0.0338962
0.0338962
0.0338962
0.0338962
0.0338962
0.0338962
0.0338961
0.0338961
0.033896
0.033896
0.0338959
0.0338959
0.0338958
0.0338957
0.0338956
0.0338956
0.0338955
0.0338954
0.0338953
0.0338953
0.0338952
0.0338951
0.033895
0.033895
0.0338949
0.0338949
0.0338948
0.0338947
0.0338947
0.0338946
0.0338946
0.0338945
0.0338945
0.0338945
0.0338944
0.0338944
0.0338944
0.0338944
0.0338943
0.0338943
0.0338943
0.0338943
0.0338943
0.0338943
0.0338943
0.0338943
0.0338943
0.0338943
0.0338943
0.0338943
0.0338943
0.0338943
0.0338943
0.0338944
0.0338944
0.0338944
0.0338944
0.0338944
0.0338944
0.0338945
0.0338945
0.0338945
0.0338945
0.0338946
0.0338946
0.0338946
0.0338947
0.0338947
0.0338947
0.0338948
0.0338948
0.0338948
0.0338948
0.0338949
0.0338949
0.0338949
0.033895
0.033895
0.033895
0.0338951
0.0338951
0.0338951
0.0338951
0.0338952
0.0338952
0.0338952
0.0338952
0.0338953
0.0338953
0.0338953
0.0338953
0.0338953
0.0338954
0.0338954
0.0338954
0.0338954
0.0338954
0.0338954
0.0338954
0.0338954
0.0338954
0.0338954
0.0338954
0.0338954
0.0338954
0.0338954
0.0338953
0.0338953
0.0338953
0.0338953
0.0338952
0.0338952
0.0338952
0.0338951
0.0338951
0.033895
0.033895
0.0338949
0.0338949
0.0338948
0.0338947
0.0338947
0.0338946
0.0338945
0.0338944
0.0338943
0.0338942
0.0338941
0.033894
0.0338939
0.0338937
0.0338936
0.0338935
0.0338933
0.0338932
0.033893
0.0338928
0.0338927
0.0338925
0.0338923
0.0338921
0.0338918
0.0338916
0.0338914
0.0338911
0.0338909
0.0338907
0.0338904
0.0338902
0.0338899
0.0338896
0.0338894
0.0338891
0.0338888
0.0338886
0.0338883
0.033888
0.0338878
0.0338875
0.0338873
0.0338871
0.0338868
0.0338867
0.0338865
0.0338863
0.0338862
0.0338861
0.033886
0.033886
0.0338859
0.0338859
0.033886
0.033886
0.0338861
0.0338862
0.0338863
0.0338865
0.0338867
0.0338869
0.0338871
0.0338873
0.0338875
0.0338878
0.033888
0.0338883
0.0338885
0.0338888
0.0338891
0.0338893
0.0338896
0.0338898
0.0338901
0.0338903
0.0338906
0.0338908
0.033891
0.0338912
0.0338914
0.0338916
0.0338918
0.0338919
0.0338921
0.0338922
0.0338924
0.0338925
0.0338926
0.0338927
0.0338928
0.0338929
0.033893
0.0338931
0.0338932
0.0338933
0.0338933
0.0338934
0.0338934
0.0338935
0.0338935
0.0338936
0.0338936
0.0338937
0.0338937
0.0338938
0.0338938
0.0338938
0.0338939
0.0338939
0.0338939
0.033894
0.033894
0.033894
0.0338941
0.0338941
0.0338941
0.0338942
0.0338942
0.0338942
0.0338943
0.0338943
0.0338944
0.0338944
0.0338944
0.0338945
0.0338945
0.0338946
0.0338946
0.0338946
0.0338947
0.0338947
0.0338947
0.0338948
0.0338948
0.0338948
0.0338949
0.0338949
0.033895
0.033895
0.033895
0.0338951
0.0338951
0.0338951
0.0338952
0.0338952
0.0338952
0.0338953
0.0338953
0.0338953
0.0338954
0.0338954
0.0338954
0.0338955
0.0338955
0.0338955
0.0338955
0.0338956
0.0338956
0.0338956
0.0338956
0.0338956
0.0338957
0.0338957
0.0338957
0.0338957
0.0338957
0.0338957
0.0338958
0.0338958
0.0338958
0.0338958
0.0338958
0.0338958
0.0338958
0.0338958
0.0338958
0.0338958
0.0338958
0.0338958
0.0338958
0.0338958
0.0338958
0.0338957
0.0338957
0.0338957
0.0338957
0.0338957
0.0338957
0.0338956
0.0338956
0.0338956
0.0338956
0.0338955
0.0338955
0.0338955
0.0338954
0.0338954
0.0338954
0.0338953
0.0338953
0.0338953
0.0338952
0.0338952
0.033895
)
;

boundaryField
{
    inlet
    {
        type            calculated;
        value           uniform 0.0976562;
    }
    outlet
    {
        type            calculated;
        value           uniform 0.033895;
    }
    emptyWalls
    {
        type            empty;
    }
}


// ************************************************************************* //
