/*--------------------------------*- C++ -*----------------------------------*\
  =========                 |
  \\      /  F ield         | OpenFOAM: The Open Source CFD Toolbox
   \\    /   O peration     | Website:  https://openfoam.org
    \\  /    A nd           | Version:  9
     \\/     M anipulation  |
\*---------------------------------------------------------------------------*/
FoamFile
{
    format      ascii;
    class       surfaceScalarField;
    location    "15650";
    object      phib;
}
// * * * * * * * * * * * * * * * * * * * * * * * * * * * * * * * * * * * * * //

dimensions      [0 2 0 0 0 0 0];

internalField   nonuniform List<scalar> 
999
(
1.13619e-09
1.13621e-09
1.13623e-09
1.13626e-09
1.1363e-09
1.13634e-09
1.13637e-09
1.13642e-09
1.13646e-09
1.13652e-09
1.13656e-09
1.13665e-09
1.13666e-09
1.13674e-09
1.13677e-09
1.13681e-09
1.13688e-09
1.13691e-09
1.13706e-09
1.13744e-09
1.13894e-09
1.14912e-09
1.17229e-09
1.17608e-09
1.17707e-09
1.17745e-09
1.17749e-09
1.17715e-09
1.1765e-09
1.17582e-09
1.17541e-09
1.17537e-09
1.17559e-09
1.17585e-09
1.17617e-09
1.1769e-09
1.17772e-09
1.17848e-09
1.17913e-09
1.17962e-09
1.17997e-09
1.18017e-09
1.18026e-09
1.18026e-09
1.1802e-09
1.18011e-09
1.18e-09
1.17989e-09
1.17978e-09
1.17969e-09
1.17962e-09
1.17954e-09
1.17947e-09
1.1794e-09
1.17932e-09
1.17921e-09
1.17908e-09
1.17891e-09
1.17868e-09
1.17838e-09
1.17802e-09
1.17759e-09
1.17713e-09
1.17664e-09
1.17614e-09
1.17562e-09
1.17508e-09
1.17454e-09
1.17398e-09
1.17342e-09
1.17285e-09
1.17228e-09
1.1717e-09
1.17112e-09
1.17053e-09
1.16994e-09
1.16934e-09
1.16874e-09
1.16813e-09
1.16752e-09
1.16691e-09
1.1663e-09
1.16568e-09
1.16505e-09
1.16442e-09
1.16379e-09
1.16316e-09
1.16252e-09
1.16188e-09
1.16124e-09
1.16059e-09
1.15994e-09
1.15929e-09
1.15863e-09
1.15797e-09
1.15731e-09
1.15665e-09
1.15598e-09
1.15531e-09
1.15463e-09
1.15395e-09
1.15327e-09
1.15259e-09
1.1519e-09
1.15122e-09
1.15053e-09
1.14984e-09
1.14915e-09
1.14846e-09
1.14776e-09
1.14707e-09
1.14638e-09
1.14568e-09
1.14498e-09
1.14428e-09
1.14357e-09
1.14286e-09
1.14215e-09
1.14143e-09
1.14072e-09
1.14001e-09
1.13929e-09
1.13858e-09
1.13787e-09
1.13715e-09
1.13642e-09
1.13569e-09
1.13493e-09
1.13416e-09
1.13337e-09
1.13255e-09
1.13171e-09
1.13084e-09
1.12996e-09
1.12905e-09
1.12814e-09
1.12721e-09
1.12627e-09
1.12534e-09
1.1244e-09
1.12348e-09
1.12257e-09
1.12169e-09
1.12084e-09
1.12002e-09
1.11924e-09
1.1185e-09
1.1178e-09
1.11716e-09
1.11655e-09
1.11598e-09
1.11544e-09
1.11493e-09
1.11443e-09
1.11394e-09
1.11346e-09
1.11296e-09
1.11246e-09
1.11193e-09
1.11139e-09
1.11082e-09
1.11022e-09
1.1096e-09
1.10896e-09
1.10829e-09
1.1076e-09
1.1069e-09
1.10618e-09
1.10545e-09
1.10471e-09
1.10396e-09
1.10321e-09
1.10246e-09
1.10171e-09
1.10095e-09
1.1002e-09
1.09945e-09
1.09871e-09
1.09797e-09
1.09722e-09
1.09649e-09
1.09575e-09
1.09502e-09
1.09428e-09
1.09355e-09
1.09282e-09
1.09209e-09
1.09136e-09
1.09064e-09
1.08991e-09
1.08918e-09
1.08844e-09
1.08771e-09
1.08698e-09
1.08625e-09
1.08551e-09
1.08478e-09
1.08404e-09
1.0833e-09
1.08256e-09
1.08182e-09
1.08107e-09
1.08033e-09
1.07958e-09
1.07883e-09
1.07808e-09
1.07733e-09
1.07658e-09
1.07582e-09
1.07506e-09
1.07431e-09
1.07355e-09
1.07278e-09
1.07202e-09
1.07125e-09
1.07049e-09
1.06972e-09
1.06895e-09
1.06817e-09
1.0674e-09
1.06662e-09
1.06585e-09
1.06507e-09
1.06429e-09
1.0635e-09
1.06272e-09
1.06193e-09
1.06114e-09
1.06035e-09
1.05956e-09
1.05877e-09
1.05797e-09
1.05718e-09
1.05638e-09
1.05558e-09
1.05478e-09
1.05397e-09
1.05317e-09
1.05236e-09
1.05156e-09
1.05075e-09
1.04994e-09
1.04913e-09
1.04832e-09
1.0475e-09
1.04669e-09
1.04587e-09
1.04506e-09
1.04424e-09
1.04342e-09
1.0426e-09
1.04178e-09
1.04096e-09
1.04013e-09
1.03931e-09
1.03848e-09
1.03765e-09
1.03682e-09
1.03599e-09
1.03516e-09
1.03432e-09
1.03348e-09
1.03264e-09
1.03179e-09
1.03093e-09
1.03007e-09
1.0292e-09
1.02833e-09
1.02744e-09
1.02654e-09
1.02564e-09
1.02472e-09
1.0238e-09
1.02286e-09
1.02192e-09
1.02097e-09
1.02001e-09
1.01905e-09
1.01808e-09
1.01711e-09
1.01614e-09
1.01518e-09
1.01421e-09
1.01326e-09
1.01231e-09
1.01137e-09
1.01044e-09
1.00953e-09
1.00864e-09
1.00776e-09
1.0069e-09
1.00606e-09
1.00524e-09
1.00443e-09
1.00364e-09
1.00287e-09
1.00211e-09
1.00136e-09
1.00063e-09
9.99894e-10
9.99167e-10
9.98441e-10
9.97714e-10
9.96983e-10
9.96248e-10
9.95505e-10
9.94754e-10
9.93994e-10
9.93223e-10
9.92442e-10
9.91651e-10
9.90848e-10
9.90036e-10
9.89214e-10
9.88383e-10
9.87544e-10
9.86697e-10
9.85844e-10
9.84985e-10
9.84121e-10
9.83253e-10
9.82382e-10
9.81508e-10
9.80632e-10
9.79755e-10
9.78876e-10
9.77996e-10
9.77116e-10
9.76236e-10
9.75355e-10
9.74475e-10
9.73594e-10
9.72713e-10
9.71833e-10
9.70952e-10
9.70071e-10
9.6919e-10
9.68308e-10
9.67427e-10
9.66544e-10
9.65661e-10
9.64777e-10
9.63892e-10
9.63006e-10
9.62119e-10
9.61231e-10
9.60342e-10
9.59452e-10
9.5856e-10
9.57666e-10
9.56771e-10
9.55875e-10
9.54977e-10
9.54077e-10
9.53176e-10
9.52273e-10
9.51368e-10
9.50462e-10
9.49554e-10
9.48643e-10
9.47731e-10
9.46818e-10
9.45902e-10
9.44984e-10
9.44065e-10
9.43144e-10
9.4222e-10
9.41295e-10
9.40368e-10
9.39438e-10
9.38507e-10
9.37574e-10
9.36639e-10
9.35701e-10
9.34762e-10
9.33821e-10
9.32877e-10
9.31932e-10
9.30985e-10
9.30035e-10
9.29083e-10
9.2813e-10
9.27174e-10
9.26216e-10
9.25256e-10
9.24295e-10
9.2333e-10
9.22364e-10
9.21396e-10
9.20426e-10
9.19454e-10
9.18479e-10
9.17503e-10
9.16525e-10
9.15545e-10
9.14562e-10
9.13578e-10
9.12592e-10
9.11604e-10
9.10614e-10
9.09622e-10
9.08628e-10
9.07632e-10
9.06634e-10
9.05634e-10
9.04632e-10
9.03628e-10
9.02622e-10
9.01614e-10
9.00604e-10
8.99592e-10
8.98578e-10
8.97561e-10
8.96542e-10
8.95521e-10
8.94497e-10
8.9347e-10
8.9244e-10
8.91408e-10
8.90371e-10
8.89331e-10
8.88288e-10
8.8724e-10
8.86187e-10
8.8513e-10
8.84067e-10
8.83e-10
8.81927e-10
8.80848e-10
8.79763e-10
8.78672e-10
8.77576e-10
8.76473e-10
8.75364e-10
8.7425e-10
8.7313e-10
8.72005e-10
8.70875e-10
8.6974e-10
8.68602e-10
8.6746e-10
8.66316e-10
8.6517e-10
8.64022e-10
8.62875e-10
8.61727e-10
8.60581e-10
8.59437e-10
8.58296e-10
8.57158e-10
8.56025e-10
8.54897e-10
8.53775e-10
8.52659e-10
8.51549e-10
8.50446e-10
8.49351e-10
8.48262e-10
8.47179e-10
8.46103e-10
8.45033e-10
8.43969e-10
8.42909e-10
8.41853e-10
8.408e-10
8.39749e-10
8.38699e-10
8.37649e-10
8.36598e-10
8.35545e-10
8.3449e-10
8.33431e-10
8.32367e-10
8.31298e-10
8.30224e-10
8.29143e-10
8.28056e-10
8.26962e-10
8.25861e-10
8.24753e-10
8.23637e-10
8.22515e-10
8.21386e-10
8.20249e-10
8.19107e-10
8.17958e-10
8.16802e-10
8.15642e-10
8.14475e-10
8.13303e-10
8.12127e-10
8.10945e-10
8.09759e-10
8.08569e-10
8.07375e-10
8.06176e-10
8.04974e-10
8.03769e-10
8.02559e-10
8.01347e-10
8.00131e-10
7.98912e-10
7.97689e-10
7.96463e-10
7.95234e-10
7.94002e-10
7.92766e-10
7.91526e-10
7.90283e-10
7.89037e-10
7.87787e-10
7.86534e-10
7.85276e-10
7.84015e-10
7.8275e-10
7.81481e-10
7.80208e-10
7.78931e-10
7.77649e-10
7.76363e-10
7.75073e-10
7.73778e-10
7.72479e-10
7.71175e-10
7.69866e-10
7.68553e-10
7.67235e-10
7.65912e-10
7.64584e-10
7.6325e-10
7.61912e-10
7.60568e-10
7.5922e-10
7.57865e-10
7.56506e-10
7.55141e-10
7.53771e-10
7.52394e-10
7.51013e-10
7.49625e-10
7.48232e-10
7.46832e-10
7.45427e-10
7.44016e-10
7.42599e-10
7.41176e-10
7.39746e-10
7.3831e-10
7.36868e-10
7.35419e-10
7.33964e-10
7.32503e-10
7.31034e-10
7.2956e-10
7.28078e-10
7.2659e-10
7.25094e-10
7.23592e-10
7.22083e-10
7.20568e-10
7.19045e-10
7.17515e-10
7.15977e-10
7.14433e-10
7.12882e-10
7.11323e-10
7.09758e-10
7.08185e-10
7.06606e-10
7.05019e-10
7.03425e-10
7.01825e-10
7.00218e-10
6.98605e-10
6.96985e-10
6.9536e-10
6.93729e-10
6.92092e-10
6.90451e-10
6.88806e-10
6.87158e-10
6.85508e-10
6.83857e-10
6.82205e-10
6.80554e-10
6.78908e-10
6.77266e-10
6.75633e-10
6.7401e-10
6.72402e-10
6.70809e-10
6.69238e-10
6.67693e-10
6.66179e-10
6.647e-10
6.63262e-10
6.6187e-10
6.60529e-10
6.59245e-10
6.58024e-10
6.5687e-10
6.55786e-10
6.54777e-10
6.53842e-10
6.52984e-10
6.52205e-10
6.51501e-10
6.50871e-10
6.50312e-10
6.49817e-10
6.49383e-10
6.49004e-10
6.48673e-10
6.4838e-10
6.48114e-10
6.47855e-10
6.47583e-10
6.47252e-10
6.46799e-10
6.46102e-10
6.44949e-10
6.42975e-10
6.39538e-10
6.33547e-10
6.23235e-10
6.05967e-10
5.78425e-10
5.3783e-10
4.84598e-10
4.24826e-10
3.68776e-10
3.24847e-10
2.95268e-10
2.7743e-10
2.67405e-10
2.61997e-10
2.59144e-10
2.57657e-10
2.56886e-10
2.56487e-10
2.56281e-10
2.56175e-10
2.56121e-10
2.56093e-10
2.56083e-10
2.56081e-10
2.56083e-10
2.56088e-10
2.56094e-10
2.56103e-10
2.56114e-10
2.56125e-10
2.56137e-10
2.5615e-10
2.56164e-10
2.56178e-10
2.56193e-10
2.56208e-10
2.56223e-10
2.56239e-10
2.56254e-10
2.56269e-10
2.56284e-10
2.56299e-10
2.56313e-10
2.56326e-10
2.5634e-10
2.56352e-10
2.56364e-10
2.56375e-10
2.56386e-10
2.56396e-10
2.56406e-10
2.56414e-10
2.56422e-10
2.5643e-10
2.56436e-10
2.56443e-10
2.56448e-10
2.56453e-10
2.56458e-10
2.56462e-10
2.56466e-10
2.5647e-10
2.56473e-10
2.56476e-10
2.56478e-10
2.5648e-10
2.56483e-10
2.56485e-10
2.56487e-10
2.56488e-10
2.5649e-10
2.56492e-10
2.56493e-10
2.56495e-10
2.56497e-10
2.56498e-10
2.565e-10
2.56502e-10
2.56504e-10
2.56505e-10
2.56507e-10
2.56509e-10
2.56511e-10
2.56513e-10
2.56515e-10
2.56517e-10
2.56519e-10
2.56521e-10
2.56524e-10
2.56526e-10
2.56528e-10
2.5653e-10
2.56533e-10
2.56535e-10
2.56537e-10
2.5654e-10
2.56542e-10
2.56545e-10
2.56547e-10
2.56549e-10
2.56552e-10
2.56554e-10
2.56556e-10
2.56559e-10
2.56561e-10
2.56563e-10
2.56565e-10
2.56567e-10
2.56569e-10
2.56571e-10
2.56573e-10
2.56575e-10
2.56577e-10
2.56579e-10
2.56581e-10
2.56583e-10
2.56584e-10
2.56586e-10
2.56588e-10
2.56589e-10
2.56591e-10
2.56592e-10
2.56593e-10
2.56594e-10
2.56596e-10
2.56597e-10
2.56598e-10
2.56599e-10
2.56599e-10
2.566e-10
2.56601e-10
2.56601e-10
2.56602e-10
2.56603e-10
2.56603e-10
2.56603e-10
2.56603e-10
2.56604e-10
2.56604e-10
2.56604e-10
2.56604e-10
2.56604e-10
2.56603e-10
2.56603e-10
2.56603e-10
2.56602e-10
2.56602e-10
2.56601e-10
2.566e-10
2.56599e-10
2.56598e-10
2.56597e-10
2.56596e-10
2.56595e-10
2.56594e-10
2.56593e-10
2.56592e-10
2.5659e-10
2.56589e-10
2.56587e-10
2.56585e-10
2.56584e-10
2.56582e-10
2.5658e-10
2.56578e-10
2.56575e-10
2.56573e-10
2.56571e-10
2.56568e-10
2.56566e-10
2.56563e-10
2.5656e-10
2.56557e-10
2.56553e-10
2.5655e-10
2.56546e-10
2.56542e-10
2.56538e-10
2.56533e-10
2.56528e-10
2.56523e-10
2.56518e-10
2.56512e-10
2.56506e-10
2.56499e-10
2.56492e-10
2.56485e-10
2.56477e-10
2.56469e-10
2.5646e-10
2.56451e-10
2.56442e-10
2.56432e-10
2.56421e-10
2.56411e-10
2.56399e-10
2.56388e-10
2.56375e-10
2.56363e-10
2.5635e-10
2.56337e-10
2.56323e-10
2.5631e-10
2.56296e-10
2.56282e-10
2.56267e-10
2.56253e-10
2.56239e-10
2.56224e-10
2.5621e-10
2.56196e-10
2.56183e-10
2.5617e-10
2.56157e-10
2.56144e-10
2.56133e-10
2.56122e-10
2.56111e-10
2.56102e-10
2.56093e-10
2.56085e-10
2.56079e-10
2.56073e-10
2.56069e-10
2.56066e-10
2.56064e-10
2.56063e-10
2.56063e-10
2.56063e-10
2.56064e-10
2.56067e-10
2.56072e-10
2.56078e-10
2.56085e-10
2.56093e-10
2.56102e-10
2.56112e-10
2.56122e-10
2.56134e-10
2.56145e-10
2.56157e-10
2.5617e-10
2.56183e-10
2.56196e-10
2.56209e-10
2.56222e-10
2.56236e-10
2.56249e-10
2.56262e-10
2.56274e-10
2.56287e-10
2.56299e-10
2.56311e-10
2.56322e-10
2.56333e-10
2.56344e-10
2.56353e-10
2.56363e-10
2.56372e-10
2.5638e-10
2.56388e-10
2.56396e-10
2.56403e-10
2.5641e-10
2.56416e-10
2.56422e-10
2.56427e-10
2.56432e-10
2.56437e-10
2.56442e-10
2.56446e-10
2.5645e-10
2.56453e-10
2.56457e-10
2.5646e-10
2.56463e-10
2.56467e-10
2.56469e-10
2.56472e-10
2.56475e-10
2.56478e-10
2.5648e-10
2.56483e-10
2.56486e-10
2.56488e-10
2.56491e-10
2.56493e-10
2.56496e-10
2.56498e-10
2.56501e-10
2.56504e-10
2.56506e-10
2.56509e-10
2.56511e-10
2.56514e-10
2.56517e-10
2.56519e-10
2.56522e-10
2.56525e-10
2.56528e-10
2.5653e-10
2.56533e-10
2.56536e-10
2.56538e-10
2.56541e-10
2.56544e-10
2.56546e-10
2.56549e-10
2.56552e-10
2.56554e-10
2.56557e-10
2.56559e-10
2.56562e-10
2.56564e-10
2.56566e-10
2.56569e-10
2.56571e-10
2.56573e-10
2.56575e-10
2.56578e-10
2.5658e-10
2.56582e-10
2.56584e-10
2.56586e-10
2.56587e-10
2.56589e-10
2.56591e-10
2.56593e-10
2.56594e-10
2.56596e-10
2.56597e-10
2.56598e-10
2.566e-10
2.56601e-10
2.56602e-10
2.56603e-10
2.56604e-10
2.56604e-10
2.56605e-10
2.56606e-10
2.56606e-10
2.56607e-10
2.56607e-10
2.56608e-10
2.56608e-10
2.56608e-10
2.56608e-10
2.56608e-10
2.56608e-10
2.56608e-10
2.56607e-10
2.56607e-10
2.56607e-10
2.56606e-10
2.56605e-10
2.56605e-10
2.56604e-10
2.56603e-10
2.56602e-10
2.56601e-10
2.566e-10
2.56598e-10
2.56597e-10
2.56596e-10
2.56594e-10
2.56593e-10
2.56591e-10
2.56589e-10
2.56587e-10
2.56585e-10
2.56583e-10
2.56581e-10
2.56578e-10
2.56576e-10
2.56573e-10
2.5657e-10
2.56567e-10
)
;

boundaryField
{
    inlet
    {
        type            calculated;
        value           uniform -1.13622e-09;
    }
    outlet
    {
        type            calculated;
        value           uniform 2.56564e-10;
    }
    emptyWalls
    {
        type            empty;
        value           nonuniform List<scalar> 0();
    }
}


// ************************************************************************* //
