/*--------------------------------*- C++ -*----------------------------------*\
  =========                 |
  \\      /  F ield         | OpenFOAM: The Open Source CFD Toolbox
   \\    /   O peration     | Website:  https://openfoam.org
    \\  /    A nd           | Version:  9
     \\/     M anipulation  |
\*---------------------------------------------------------------------------*/
FoamFile
{
    format      ascii;
    class       surfaceScalarField;
    location    "15650";
    object      phic;
}
// * * * * * * * * * * * * * * * * * * * * * * * * * * * * * * * * * * * * * //

dimensions      [0 2 0 0 0 0 0];

internalField   nonuniform List<scalar> 
999
(
2.267e-15
9.87664e-15
2.38715e-14
4.3756e-14
6.93542e-14
1.00538e-13
1.371e-13
1.78658e-13
2.24592e-13
2.73957e-13
3.25542e-13
3.77782e-13
4.29164e-13
4.78036e-13
5.23309e-13
5.64407e-13
6.02585e-13
6.46676e-13
7.40796e-13
1.07536e-12
2.31115e-12
8.95402e-12
1.9018e-11
2.09157e-11
2.15792e-11
2.19488e-11
2.22102e-11
2.24186e-11
2.25963e-11
2.27562e-11
2.29068e-11
2.30528e-11
2.31949e-11
2.3332e-11
2.34649e-11
2.36002e-11
2.37332e-11
2.38631e-11
2.39897e-11
2.41132e-11
2.42341e-11
2.43529e-11
2.44705e-11
2.45879e-11
2.4706e-11
2.4826e-11
2.49522e-11
2.50827e-11
2.52176e-11
2.53574e-11
2.55029e-11
2.56554e-11
2.58164e-11
2.59885e-11
2.61753e-11
2.63824e-11
2.66173e-11
2.68897e-11
2.721e-11
2.7586e-11
2.8019e-11
2.85014e-11
2.90212e-11
2.95678e-11
3.01342e-11
3.07156e-11
3.13085e-11
3.19108e-11
3.25206e-11
3.31368e-11
3.37584e-11
3.43848e-11
3.50154e-11
3.56499e-11
3.62877e-11
3.69288e-11
3.75729e-11
3.82197e-11
3.88692e-11
3.95211e-11
4.01754e-11
4.0832e-11
4.14907e-11
4.21516e-11
4.28145e-11
4.34794e-11
4.41462e-11
4.48148e-11
4.54853e-11
4.61575e-11
4.68314e-11
4.7507e-11
4.81842e-11
4.88631e-11
4.95435e-11
5.02254e-11
5.09089e-11
5.15938e-11
5.22802e-11
5.2968e-11
5.36572e-11
5.43478e-11
5.50398e-11
5.5733e-11
5.64277e-11
5.71237e-11
5.78211e-11
5.85197e-11
5.92197e-11
5.9921e-11
6.06236e-11
6.13274e-11
6.20324e-11
6.27385e-11
6.34458e-11
6.41542e-11
6.48637e-11
6.55743e-11
6.6286e-11
6.69989e-11
6.7713e-11
6.84284e-11
6.91449e-11
6.98625e-11
7.0581e-11
7.13004e-11
7.20202e-11
7.27404e-11
7.34608e-11
7.4181e-11
7.49011e-11
7.5621e-11
7.63407e-11
7.70602e-11
7.77797e-11
7.84992e-11
7.9219e-11
7.99393e-11
8.06602e-11
8.13822e-11
8.21056e-11
8.28307e-11
8.35578e-11
8.42875e-11
8.50201e-11
8.57558e-11
8.6495e-11
8.72379e-11
8.79844e-11
8.87345e-11
8.94881e-11
9.02448e-11
9.10042e-11
9.1766e-11
9.25295e-11
9.32943e-11
9.40599e-11
9.4826e-11
9.55921e-11
9.63579e-11
9.71234e-11
9.78882e-11
9.86525e-11
9.94162e-11
1.00179e-10
1.00942e-10
1.01705e-10
1.02468e-10
1.0323e-10
1.03994e-10
1.04757e-10
1.05521e-10
1.06286e-10
1.07052e-10
1.07819e-10
1.08587e-10
1.09356e-10
1.10126e-10
1.10897e-10
1.1167e-10
1.12443e-10
1.13218e-10
1.13994e-10
1.14771e-10
1.15549e-10
1.16328e-10
1.17107e-10
1.17888e-10
1.1867e-10
1.19453e-10
1.20237e-10
1.21021e-10
1.21807e-10
1.22593e-10
1.23381e-10
1.24169e-10
1.24958e-10
1.25748e-10
1.26538e-10
1.2733e-10
1.28122e-10
1.28915e-10
1.29709e-10
1.30504e-10
1.31299e-10
1.32095e-10
1.32893e-10
1.33691e-10
1.34489e-10
1.35289e-10
1.36089e-10
1.3689e-10
1.37692e-10
1.38495e-10
1.39298e-10
1.40102e-10
1.40907e-10
1.41713e-10
1.4252e-10
1.43327e-10
1.44135e-10
1.44944e-10
1.45754e-10
1.46564e-10
1.47375e-10
1.48187e-10
1.49e-10
1.49814e-10
1.50628e-10
1.51443e-10
1.52259e-10
1.53075e-10
1.53893e-10
1.54711e-10
1.5553e-10
1.5635e-10
1.5717e-10
1.57991e-10
1.58814e-10
1.59637e-10
1.6046e-10
1.61285e-10
1.6211e-10
1.62937e-10
1.63764e-10
1.64592e-10
1.65421e-10
1.6625e-10
1.67081e-10
1.67912e-10
1.68744e-10
1.69577e-10
1.70411e-10
1.71246e-10
1.72081e-10
1.72918e-10
1.73755e-10
1.74593e-10
1.75432e-10
1.76271e-10
1.77111e-10
1.77952e-10
1.78793e-10
1.79635e-10
1.80476e-10
1.81318e-10
1.8216e-10
1.83001e-10
1.83842e-10
1.84683e-10
1.85524e-10
1.86364e-10
1.87203e-10
1.88043e-10
1.88881e-10
1.8972e-10
1.90559e-10
1.91397e-10
1.92236e-10
1.93076e-10
1.93916e-10
1.94757e-10
1.956e-10
1.96445e-10
1.97292e-10
1.98142e-10
1.98994e-10
1.9985e-10
2.00709e-10
2.01572e-10
2.02439e-10
2.0331e-10
2.04185e-10
2.05065e-10
2.05948e-10
2.06835e-10
2.07726e-10
2.0862e-10
2.09516e-10
2.10416e-10
2.11317e-10
2.1222e-10
2.13124e-10
2.1403e-10
2.14936e-10
2.15842e-10
2.16748e-10
2.17654e-10
2.18559e-10
2.19465e-10
2.20369e-10
2.21274e-10
2.22178e-10
2.23081e-10
2.23985e-10
2.24888e-10
2.25791e-10
2.26694e-10
2.27598e-10
2.28502e-10
2.29407e-10
2.30313e-10
2.31219e-10
2.32126e-10
2.33035e-10
2.33944e-10
2.34855e-10
2.35767e-10
2.3668e-10
2.37595e-10
2.38511e-10
2.39429e-10
2.40348e-10
2.41268e-10
2.4219e-10
2.43113e-10
2.44038e-10
2.44964e-10
2.45891e-10
2.4682e-10
2.4775e-10
2.48682e-10
2.49615e-10
2.50549e-10
2.51484e-10
2.52421e-10
2.53359e-10
2.54299e-10
2.55239e-10
2.56181e-10
2.57125e-10
2.58069e-10
2.59015e-10
2.59962e-10
2.6091e-10
2.6186e-10
2.6281e-10
2.63762e-10
2.64716e-10
2.6567e-10
2.66626e-10
2.67583e-10
2.68541e-10
2.69501e-10
2.70462e-10
2.71424e-10
2.72388e-10
2.73352e-10
2.74318e-10
2.75285e-10
2.76254e-10
2.77224e-10
2.78195e-10
2.79168e-10
2.80141e-10
2.81116e-10
2.82093e-10
2.83071e-10
2.8405e-10
2.8503e-10
2.86012e-10
2.86995e-10
2.8798e-10
2.88965e-10
2.89953e-10
2.90941e-10
2.91931e-10
2.92923e-10
2.93916e-10
2.9491e-10
2.95905e-10
2.96903e-10
2.97901e-10
2.98901e-10
2.99903e-10
3.00906e-10
3.01911e-10
3.02917e-10
3.03924e-10
3.04933e-10
3.05944e-10
3.06957e-10
3.07971e-10
3.08986e-10
3.10003e-10
3.11022e-10
3.12042e-10
3.13064e-10
3.14088e-10
3.15113e-10
3.1614e-10
3.17169e-10
3.18199e-10
3.19231e-10
3.20264e-10
3.21299e-10
3.22335e-10
3.23373e-10
3.24413e-10
3.25453e-10
3.26496e-10
3.27539e-10
3.28583e-10
3.29629e-10
3.30675e-10
3.31722e-10
3.32771e-10
3.3382e-10
3.34869e-10
3.3592e-10
3.36971e-10
3.38022e-10
3.39074e-10
3.40127e-10
3.4118e-10
3.42235e-10
3.4329e-10
3.44346e-10
3.45403e-10
3.46461e-10
3.47521e-10
3.48583e-10
3.49647e-10
3.50713e-10
3.51781e-10
3.52853e-10
3.53927e-10
3.55005e-10
3.56087e-10
3.57173e-10
3.58263e-10
3.59358e-10
3.60458e-10
3.61563e-10
3.62673e-10
3.6379e-10
3.64911e-10
3.66039e-10
3.67172e-10
3.68311e-10
3.69455e-10
3.70605e-10
3.71761e-10
3.72921e-10
3.74086e-10
3.75256e-10
3.76429e-10
3.77607e-10
3.78788e-10
3.79973e-10
3.8116e-10
3.8235e-10
3.83543e-10
3.84738e-10
3.85934e-10
3.87133e-10
3.88333e-10
3.89534e-10
3.90737e-10
3.91942e-10
3.93148e-10
3.94356e-10
3.95565e-10
3.96776e-10
3.97988e-10
3.99203e-10
4.00419e-10
4.01638e-10
4.02859e-10
4.04082e-10
4.05308e-10
4.06536e-10
4.07767e-10
4.09001e-10
4.10239e-10
4.11479e-10
4.12723e-10
4.1397e-10
4.15221e-10
4.16475e-10
4.17733e-10
4.18995e-10
4.2026e-10
4.21529e-10
4.22802e-10
4.24079e-10
4.2536e-10
4.26645e-10
4.27935e-10
4.29228e-10
4.30525e-10
4.31826e-10
4.33132e-10
4.34442e-10
4.35756e-10
4.37074e-10
4.38396e-10
4.39723e-10
4.41054e-10
4.42389e-10
4.43729e-10
4.45074e-10
4.46422e-10
4.47775e-10
4.49133e-10
4.50495e-10
4.51862e-10
4.53234e-10
4.5461e-10
4.55991e-10
4.57376e-10
4.58767e-10
4.60162e-10
4.61563e-10
4.62968e-10
4.64378e-10
4.65794e-10
4.67214e-10
4.6864e-10
4.70071e-10
4.71507e-10
4.72949e-10
4.74396e-10
4.75848e-10
4.77306e-10
4.7877e-10
4.8024e-10
4.81715e-10
4.83196e-10
4.84683e-10
4.86176e-10
4.87674e-10
4.89179e-10
4.9069e-10
4.92207e-10
4.93731e-10
4.9526e-10
4.96796e-10
4.98339e-10
4.99888e-10
5.01443e-10
5.03005e-10
5.04574e-10
5.06149e-10
5.07731e-10
5.0932e-10
5.10915e-10
5.12516e-10
5.14125e-10
5.1574e-10
5.17362e-10
5.1899e-10
5.20624e-10
5.22264e-10
5.2391e-10
5.25562e-10
5.27219e-10
5.28881e-10
5.30547e-10
5.32217e-10
5.33889e-10
5.35563e-10
5.37238e-10
5.38913e-10
5.40585e-10
5.42254e-10
5.43916e-10
5.4557e-10
5.47211e-10
5.48839e-10
5.50448e-10
5.52035e-10
5.53595e-10
5.55121e-10
5.56611e-10
5.58058e-10
5.59456e-10
5.60801e-10
5.62085e-10
5.63304e-10
5.64453e-10
5.65527e-10
5.66524e-10
5.67441e-10
5.68277e-10
5.69033e-10
5.69706e-10
5.70301e-10
5.70823e-10
5.71273e-10
5.71659e-10
5.71986e-10
5.72262e-10
5.72495e-10
5.727e-10
5.72889e-10
5.73095e-10
5.73353e-10
5.73737e-10
5.74367e-10
5.75457e-10
5.77387e-10
5.80806e-10
5.86826e-10
5.97245e-10
6.14744e-10
6.42681e-10
6.83846e-10
7.37751e-10
7.98144e-10
8.54627e-10
8.98785e-10
9.28452e-10
9.46306e-10
9.56315e-10
9.61696e-10
9.64516e-10
9.65977e-10
9.66723e-10
9.67103e-10
9.67296e-10
9.67397e-10
9.67449e-10
9.67478e-10
9.67507e-10
9.6753e-10
9.67555e-10
9.67582e-10
9.67614e-10
9.67649e-10
9.67688e-10
9.6773e-10
9.67776e-10
9.67824e-10
9.67875e-10
9.67928e-10
9.67982e-10
9.68038e-10
9.68094e-10
9.68151e-10
9.68207e-10
9.68264e-10
9.68319e-10
9.68373e-10
9.68426e-10
9.68477e-10
9.68527e-10
9.68574e-10
9.6862e-10
9.68663e-10
9.68704e-10
9.68743e-10
9.68779e-10
9.68813e-10
9.68845e-10
9.68875e-10
9.68902e-10
9.68928e-10
9.68952e-10
9.68974e-10
9.68994e-10
9.69013e-10
9.6903e-10
9.69047e-10
9.69062e-10
9.69076e-10
9.6909e-10
9.69103e-10
9.69115e-10
9.69126e-10
9.69138e-10
9.69148e-10
9.69159e-10
9.69169e-10
9.6918e-10
9.6919e-10
9.692e-10
9.6921e-10
9.69221e-10
9.69231e-10
9.69242e-10
9.69252e-10
9.69263e-10
9.69273e-10
9.69284e-10
9.69295e-10
9.69306e-10
9.69317e-10
9.69328e-10
9.6934e-10
9.69351e-10
9.69362e-10
9.69374e-10
9.69385e-10
9.69396e-10
9.69407e-10
9.69418e-10
9.69429e-10
9.6944e-10
9.69451e-10
9.69462e-10
9.69472e-10
9.69483e-10
9.69493e-10
9.69503e-10
9.69513e-10
9.69522e-10
9.69532e-10
9.69541e-10
9.6955e-10
9.69558e-10
9.69567e-10
9.69575e-10
9.69583e-10
9.69591e-10
9.69598e-10
9.69605e-10
9.69612e-10
9.69618e-10
9.69624e-10
9.6963e-10
9.69635e-10
9.69641e-10
9.69645e-10
9.6965e-10
9.69654e-10
9.69658e-10
9.69662e-10
9.69665e-10
9.69668e-10
9.6967e-10
9.69673e-10
9.69674e-10
9.69676e-10
9.69677e-10
9.69678e-10
9.69678e-10
9.69678e-10
9.69678e-10
9.69678e-10
9.69678e-10
9.69677e-10
9.69675e-10
9.69674e-10
9.69671e-10
9.69669e-10
9.69666e-10
9.69664e-10
9.6966e-10
9.69657e-10
9.69653e-10
9.69649e-10
9.69645e-10
9.6964e-10
9.69635e-10
9.6963e-10
9.69625e-10
9.6962e-10
9.69614e-10
9.69608e-10
9.69601e-10
9.69595e-10
9.69588e-10
9.69581e-10
9.69573e-10
9.69566e-10
9.69558e-10
9.69549e-10
9.6954e-10
9.69531e-10
9.69522e-10
9.69511e-10
9.69501e-10
9.6949e-10
9.69478e-10
9.69465e-10
9.69452e-10
9.69438e-10
9.69423e-10
9.69407e-10
9.6939e-10
9.69372e-10
9.69353e-10
9.69333e-10
9.69312e-10
9.69289e-10
9.69265e-10
9.6924e-10
9.69212e-10
9.69184e-10
9.69154e-10
9.69122e-10
9.69088e-10
9.69053e-10
9.69016e-10
9.68978e-10
9.68938e-10
9.68896e-10
9.68853e-10
9.68808e-10
9.68762e-10
9.68714e-10
9.68666e-10
9.68616e-10
9.68565e-10
9.68514e-10
9.68462e-10
9.6841e-10
9.68358e-10
9.68305e-10
9.68253e-10
9.68202e-10
9.68151e-10
9.68102e-10
9.68054e-10
9.68007e-10
9.67962e-10
9.6792e-10
9.6788e-10
9.67842e-10
9.67808e-10
9.67777e-10
9.67749e-10
9.67724e-10
9.67703e-10
9.67686e-10
9.67674e-10
9.67665e-10
9.67661e-10
9.67659e-10
9.67658e-10
9.67659e-10
9.67669e-10
9.67684e-10
9.67704e-10
9.67728e-10
9.67755e-10
9.67786e-10
9.67819e-10
9.67856e-10
9.67895e-10
9.67936e-10
9.67979e-10
9.68024e-10
9.68071e-10
9.68118e-10
9.68166e-10
9.68214e-10
9.68262e-10
9.68311e-10
9.68358e-10
9.68405e-10
9.68451e-10
9.68496e-10
9.6854e-10
9.68582e-10
9.68623e-10
9.68662e-10
9.687e-10
9.68736e-10
9.6877e-10
9.68802e-10
9.68832e-10
9.68861e-10
9.68888e-10
9.68913e-10
9.68937e-10
9.68959e-10
9.6898e-10
9.68999e-10
9.69018e-10
9.69035e-10
9.69051e-10
9.69066e-10
9.6908e-10
9.69094e-10
9.69107e-10
9.69119e-10
9.69131e-10
9.69142e-10
9.69153e-10
9.69164e-10
9.69174e-10
9.69185e-10
9.69195e-10
9.69205e-10
9.69215e-10
9.69225e-10
9.69235e-10
9.69245e-10
9.69255e-10
9.69265e-10
9.69275e-10
9.69285e-10
9.69295e-10
9.69305e-10
9.69315e-10
9.69325e-10
9.69336e-10
9.69346e-10
9.69356e-10
9.69367e-10
9.69377e-10
9.69388e-10
9.69398e-10
9.69408e-10
9.69418e-10
9.69429e-10
9.69439e-10
9.69449e-10
9.69459e-10
9.69469e-10
9.69478e-10
9.69488e-10
9.69497e-10
9.69507e-10
9.69516e-10
9.69525e-10
9.69534e-10
9.69542e-10
9.6955e-10
9.69559e-10
9.69566e-10
9.69574e-10
9.69582e-10
9.69589e-10
9.69596e-10
9.69602e-10
9.69609e-10
9.69615e-10
9.6962e-10
9.69626e-10
9.69631e-10
9.69636e-10
9.69641e-10
9.69645e-10
9.69649e-10
9.69653e-10
9.69656e-10
9.69659e-10
9.69662e-10
9.69664e-10
9.69666e-10
9.69668e-10
9.69669e-10
9.6967e-10
9.69671e-10
9.69671e-10
9.69671e-10
9.69671e-10
9.69671e-10
9.6967e-10
9.69669e-10
9.69667e-10
9.69666e-10
9.69663e-10
9.69661e-10
9.69658e-10
9.69655e-10
9.69651e-10
9.69647e-10
9.69643e-10
9.69639e-10
9.69634e-10
9.69629e-10
9.69624e-10
9.69618e-10
9.69612e-10
9.69606e-10
9.69599e-10
9.69592e-10
9.69584e-10
9.69576e-10
9.69568e-10
9.69559e-10
9.69549e-10
9.69539e-10
9.69529e-10
9.69517e-10
)
;

boundaryField
{
    inlet
    {
        type            calculated;
        value           uniform 0;
    }
    outlet
    {
        type            calculated;
        value           uniform 9.69506e-10;
    }
    emptyWalls
    {
        type            empty;
        value           nonuniform List<scalar> 0();
    }
}


// ************************************************************************* //
