/*--------------------------------*- C++ -*----------------------------------*\
  =========                 |
  \\      /  F ield         | OpenFOAM: The Open Source CFD Toolbox
   \\    /   O peration     | Website:  https://openfoam.org
    \\  /    A nd           | Version:  9
     \\/     M anipulation  |
\*---------------------------------------------------------------------------*/
FoamFile
{
    format      ascii;
    class       surfaceScalarField;
    location    "13150";
    object      phic;
}
// * * * * * * * * * * * * * * * * * * * * * * * * * * * * * * * * * * * * * //

dimensions      [0 2 0 0 0 0 0];

internalField   nonuniform List<scalar> 
999
(
3.32089e-15
1.47742e-14
3.52677e-14
6.3983e-14
1.00513e-13
1.44382e-13
1.94671e-13
2.50074e-13
3.08634e-13
3.68092e-13
4.26031e-13
4.80443e-13
5.3054e-13
5.79916e-13
6.52196e-13
8.63249e-13
1.61885e-12
5.04849e-12
1.73813e-11
2.05078e-11
2.14531e-11
2.19263e-11
2.22467e-11
2.2501e-11
2.27202e-11
2.29178e-11
2.31008e-11
2.32726e-11
2.34357e-11
2.35913e-11
2.37408e-11
2.38855e-11
2.40267e-11
2.41654e-11
2.4303e-11
2.44406e-11
2.45791e-11
2.47199e-11
2.48643e-11
2.50188e-11
2.51799e-11
2.53479e-11
2.55244e-11
2.57118e-11
2.59143e-11
2.61381e-11
2.63925e-11
2.66903e-11
2.70462e-11
2.74731e-11
2.79744e-11
2.8541e-11
2.91564e-11
2.98061e-11
3.04803e-11
3.11723e-11
3.18774e-11
3.25925e-11
3.33157e-11
3.40458e-11
3.4782e-11
3.55239e-11
3.6271e-11
3.7023e-11
3.77796e-11
3.85408e-11
3.93066e-11
4.00771e-11
4.08528e-11
4.16337e-11
4.242e-11
4.32117e-11
4.40086e-11
4.48103e-11
4.56163e-11
4.6426e-11
4.72387e-11
4.80538e-11
4.88708e-11
4.96891e-11
5.05085e-11
5.13286e-11
5.21495e-11
5.2971e-11
5.37932e-11
5.46164e-11
5.54406e-11
5.62661e-11
5.70931e-11
5.79218e-11
5.87523e-11
5.95847e-11
6.04191e-11
6.12556e-11
6.20942e-11
6.29349e-11
6.37777e-11
6.46225e-11
6.54692e-11
6.63179e-11
6.71684e-11
6.80207e-11
6.88748e-11
6.97305e-11
7.0588e-11
7.1447e-11
7.23076e-11
7.31698e-11
7.40336e-11
7.48989e-11
7.57657e-11
7.66339e-11
7.75037e-11
7.83749e-11
7.92475e-11
8.01216e-11
8.09971e-11
8.18741e-11
8.27524e-11
8.36321e-11
8.45132e-11
8.53957e-11
8.62795e-11
8.71646e-11
8.80511e-11
8.89389e-11
8.9828e-11
9.07184e-11
9.16101e-11
9.25031e-11
9.33974e-11
9.42929e-11
9.51897e-11
9.60877e-11
9.6987e-11
9.78875e-11
9.87893e-11
9.96922e-11
1.00596e-10
1.01502e-10
1.02408e-10
1.03316e-10
1.04225e-10
1.05135e-10
1.06047e-10
1.06959e-10
1.07873e-10
1.08787e-10
1.09703e-10
1.10621e-10
1.11539e-10
1.12458e-10
1.13379e-10
1.143e-10
1.15223e-10
1.16147e-10
1.17073e-10
1.17999e-10
1.18926e-10
1.19855e-10
1.20785e-10
1.21716e-10
1.22649e-10
1.23582e-10
1.24517e-10
1.25453e-10
1.2639e-10
1.27328e-10
1.28267e-10
1.29207e-10
1.30148e-10
1.31091e-10
1.32034e-10
1.32979e-10
1.33925e-10
1.34872e-10
1.3582e-10
1.36768e-10
1.37718e-10
1.38667e-10
1.39618e-10
1.40568e-10
1.41519e-10
1.42469e-10
1.43419e-10
1.44369e-10
1.45319e-10
1.46268e-10
1.47217e-10
1.48166e-10
1.49114e-10
1.50063e-10
1.51012e-10
1.51962e-10
1.52913e-10
1.53866e-10
1.5482e-10
1.55776e-10
1.56736e-10
1.57698e-10
1.58665e-10
1.59635e-10
1.6061e-10
1.6159e-10
1.62574e-10
1.63564e-10
1.64558e-10
1.65557e-10
1.6656e-10
1.67567e-10
1.68578e-10
1.69592e-10
1.70608e-10
1.71626e-10
1.72645e-10
1.73665e-10
1.74685e-10
1.75705e-10
1.76725e-10
1.77745e-10
1.78764e-10
1.79782e-10
1.808e-10
1.81817e-10
1.82834e-10
1.8385e-10
1.84867e-10
1.85884e-10
1.86901e-10
1.87919e-10
1.88937e-10
1.89957e-10
1.90978e-10
1.92e-10
1.93023e-10
1.94048e-10
1.95074e-10
1.96102e-10
1.97132e-10
1.98164e-10
1.99197e-10
2.00232e-10
2.01268e-10
2.02306e-10
2.03346e-10
2.04388e-10
2.05431e-10
2.06476e-10
2.07522e-10
2.0857e-10
2.09619e-10
2.1067e-10
2.11723e-10
2.12777e-10
2.13833e-10
2.1489e-10
2.15948e-10
2.17009e-10
2.1807e-10
2.19134e-10
2.20198e-10
2.21265e-10
2.22332e-10
2.23402e-10
2.24473e-10
2.25545e-10
2.26619e-10
2.27695e-10
2.28772e-10
2.2985e-10
2.3093e-10
2.32012e-10
2.33096e-10
2.3418e-10
2.35267e-10
2.36355e-10
2.37445e-10
2.38536e-10
2.39629e-10
2.40723e-10
2.41819e-10
2.42917e-10
2.44016e-10
2.45117e-10
2.46219e-10
2.47323e-10
2.48429e-10
2.49536e-10
2.50645e-10
2.51755e-10
2.52868e-10
2.53981e-10
2.55097e-10
2.56214e-10
2.57333e-10
2.58453e-10
2.59575e-10
2.60699e-10
2.61825e-10
2.62952e-10
2.64081e-10
2.65212e-10
2.66344e-10
2.67479e-10
2.68615e-10
2.69753e-10
2.70892e-10
2.72034e-10
2.73177e-10
2.74323e-10
2.7547e-10
2.76619e-10
2.7777e-10
2.78923e-10
2.80078e-10
2.81235e-10
2.82394e-10
2.83555e-10
2.84718e-10
2.85883e-10
2.87049e-10
2.88218e-10
2.89389e-10
2.90562e-10
2.91737e-10
2.92914e-10
2.94092e-10
2.95273e-10
2.96455e-10
2.97639e-10
2.98825e-10
3.00013e-10
3.01202e-10
3.02392e-10
3.03584e-10
3.04777e-10
3.05971e-10
3.07166e-10
3.08362e-10
3.09559e-10
3.10756e-10
3.11955e-10
3.13154e-10
3.14354e-10
3.15555e-10
3.16756e-10
3.17959e-10
3.19163e-10
3.20368e-10
3.21575e-10
3.22784e-10
3.23995e-10
3.25209e-10
3.26425e-10
3.27645e-10
3.28868e-10
3.30096e-10
3.31328e-10
3.32565e-10
3.33807e-10
3.35055e-10
3.36309e-10
3.3757e-10
3.38837e-10
3.40111e-10
3.41392e-10
3.4268e-10
3.43974e-10
3.45276e-10
3.46584e-10
3.47899e-10
3.4922e-10
3.50547e-10
3.51879e-10
3.53216e-10
3.54557e-10
3.55903e-10
3.57252e-10
3.58604e-10
3.5996e-10
3.61317e-10
3.62677e-10
3.64039e-10
3.65403e-10
3.66769e-10
3.68136e-10
3.69504e-10
3.70874e-10
3.72246e-10
3.7362e-10
3.74996e-10
3.76373e-10
3.77753e-10
3.79136e-10
3.80521e-10
3.81908e-10
3.83299e-10
3.84693e-10
3.86091e-10
3.87492e-10
3.88896e-10
3.90305e-10
3.91718e-10
3.93135e-10
3.94556e-10
3.95982e-10
3.97412e-10
3.98847e-10
4.00286e-10
4.01731e-10
4.0318e-10
4.04633e-10
4.06092e-10
4.07555e-10
4.09024e-10
4.10497e-10
4.11976e-10
4.13459e-10
4.14948e-10
4.16442e-10
4.17941e-10
4.19445e-10
4.20954e-10
4.22469e-10
4.23989e-10
4.25514e-10
4.27045e-10
4.28581e-10
4.30123e-10
4.3167e-10
4.33223e-10
4.34781e-10
4.36346e-10
4.37916e-10
4.39492e-10
4.41074e-10
4.42661e-10
4.44255e-10
4.45855e-10
4.47462e-10
4.49074e-10
4.50693e-10
4.52319e-10
4.53951e-10
4.5559e-10
4.57235e-10
4.58887e-10
4.60546e-10
4.62212e-10
4.63885e-10
4.65565e-10
4.67253e-10
4.68948e-10
4.7065e-10
4.7236e-10
4.74077e-10
4.75802e-10
4.77535e-10
4.79276e-10
4.81025e-10
4.82783e-10
4.84548e-10
4.86322e-10
4.88104e-10
4.89894e-10
4.91693e-10
4.93501e-10
4.95318e-10
4.97144e-10
4.98978e-10
5.00821e-10
5.02674e-10
5.04535e-10
5.06406e-10
5.08285e-10
5.10174e-10
5.12072e-10
5.13979e-10
5.15894e-10
5.17818e-10
5.1975e-10
5.2169e-10
5.23638e-10
5.25592e-10
5.27552e-10
5.29518e-10
5.31487e-10
5.33459e-10
5.35432e-10
5.37404e-10
5.39372e-10
5.41333e-10
5.43284e-10
5.4522e-10
5.47138e-10
5.49032e-10
5.50896e-10
5.52723e-10
5.54505e-10
5.56236e-10
5.57907e-10
5.59512e-10
5.61041e-10
5.62487e-10
5.63844e-10
5.65106e-10
5.66267e-10
5.67327e-10
5.68284e-10
5.69139e-10
5.69895e-10
5.70556e-10
5.7113e-10
5.71629e-10
5.72069e-10
5.72472e-10
5.72875e-10
5.73336e-10
5.73952e-10
5.74892e-10
5.7645e-10
5.79138e-10
5.8383e-10
5.91983e-10
6.05863e-10
6.28595e-10
6.63489e-10
7.11966e-10
7.70564e-10
8.30206e-10
8.80729e-10
9.16944e-10
9.39731e-10
9.52862e-10
9.60016e-10
9.63787e-10
9.6573e-10
9.66705e-10
9.67179e-10
9.67395e-10
9.6748e-10
9.67499e-10
9.67488e-10
9.67462e-10
9.67431e-10
9.67401e-10
9.67374e-10
9.67352e-10
9.67337e-10
9.67329e-10
9.67327e-10
9.67326e-10
9.67328e-10
9.67344e-10
9.67367e-10
9.67396e-10
9.6743e-10
9.6747e-10
9.67514e-10
9.67564e-10
9.67617e-10
9.67674e-10
9.67733e-10
9.67796e-10
9.6786e-10
9.67926e-10
9.67992e-10
9.68059e-10
9.68125e-10
9.68191e-10
9.68255e-10
9.68318e-10
9.68378e-10
9.68437e-10
9.68493e-10
9.68546e-10
9.68596e-10
9.68643e-10
9.68687e-10
9.68728e-10
9.68767e-10
9.68802e-10
9.68834e-10
9.68864e-10
9.68891e-10
9.68916e-10
9.68939e-10
9.6896e-10
9.68979e-10
9.68996e-10
9.69012e-10
9.69027e-10
9.69041e-10
9.69053e-10
9.69065e-10
9.69077e-10
9.69088e-10
9.69099e-10
9.6911e-10
9.6912e-10
9.69131e-10
9.69141e-10
9.69152e-10
9.69163e-10
9.69174e-10
9.69185e-10
9.69197e-10
9.69208e-10
9.6922e-10
9.69232e-10
9.69245e-10
9.69257e-10
9.6927e-10
9.69283e-10
9.69295e-10
9.69308e-10
9.69321e-10
9.69334e-10
9.69347e-10
9.6936e-10
9.69373e-10
9.69386e-10
9.69399e-10
9.69411e-10
9.69424e-10
9.69436e-10
9.69448e-10
9.69459e-10
9.69471e-10
9.69482e-10
9.69493e-10
9.69504e-10
9.69514e-10
9.69524e-10
9.69534e-10
9.69544e-10
9.69553e-10
9.69562e-10
9.69571e-10
9.69579e-10
9.69587e-10
9.69595e-10
9.69603e-10
9.6961e-10
9.69617e-10
9.69623e-10
9.69629e-10
9.69635e-10
9.69641e-10
9.69646e-10
9.69651e-10
9.69656e-10
9.6966e-10
9.69664e-10
9.69668e-10
9.69671e-10
9.69674e-10
9.69676e-10
9.69679e-10
9.69681e-10
9.69682e-10
9.69683e-10
9.69684e-10
9.69685e-10
9.69685e-10
9.69685e-10
9.69685e-10
9.69684e-10
9.69683e-10
9.69682e-10
9.6968e-10
9.69677e-10
9.69675e-10
9.69672e-10
9.69669e-10
9.69665e-10
9.69662e-10
9.69658e-10
9.69653e-10
9.69649e-10
9.69644e-10
9.69639e-10
9.69633e-10
9.69627e-10
9.69622e-10
9.69615e-10
9.69609e-10
9.69603e-10
9.69596e-10
9.69589e-10
9.69581e-10
9.69574e-10
9.69566e-10
9.69558e-10
9.6955e-10
9.69542e-10
9.69533e-10
9.69524e-10
9.69515e-10
9.69505e-10
9.69495e-10
9.69485e-10
9.69474e-10
9.69463e-10
9.69451e-10
9.69438e-10
9.69425e-10
9.69411e-10
9.69397e-10
9.69381e-10
9.69365e-10
9.69347e-10
9.69329e-10
9.69309e-10
9.69288e-10
9.69265e-10
9.69241e-10
9.69216e-10
9.69189e-10
9.6916e-10
9.69129e-10
9.69097e-10
9.69062e-10
9.69026e-10
9.68988e-10
9.68948e-10
9.68906e-10
9.68862e-10
9.68817e-10
9.68769e-10
9.6872e-10
9.6867e-10
9.68617e-10
9.68564e-10
9.68509e-10
9.68453e-10
9.68397e-10
9.6834e-10
9.68283e-10
9.68225e-10
9.68168e-10
9.68112e-10
9.68057e-10
9.68002e-10
9.6795e-10
9.67899e-10
9.6785e-10
9.67804e-10
9.67761e-10
9.67721e-10
9.67684e-10
9.67651e-10
9.67622e-10
9.67598e-10
9.67578e-10
9.67562e-10
9.67552e-10
9.67547e-10
9.67545e-10
9.67544e-10
9.67545e-10
9.67556e-10
9.67574e-10
9.67598e-10
9.67626e-10
9.67658e-10
9.67694e-10
9.67734e-10
9.67778e-10
9.67824e-10
9.67872e-10
9.67923e-10
9.67976e-10
9.6803e-10
9.68085e-10
9.6814e-10
9.68195e-10
9.6825e-10
9.68305e-10
9.68359e-10
9.68411e-10
9.68462e-10
9.68511e-10
9.68559e-10
9.68604e-10
9.68648e-10
9.68689e-10
9.68728e-10
9.68765e-10
9.688e-10
9.68832e-10
9.68863e-10
9.68891e-10
9.68917e-10
9.68942e-10
9.68964e-10
9.68985e-10
9.69005e-10
9.69023e-10
9.6904e-10
9.69056e-10
9.69071e-10
9.69085e-10
9.69098e-10
9.69111e-10
9.69124e-10
9.69135e-10
9.69147e-10
9.69158e-10
9.69169e-10
9.69181e-10
9.69192e-10
9.69203e-10
9.69214e-10
9.69225e-10
9.69236e-10
9.69247e-10
9.69259e-10
9.6927e-10
9.69282e-10
9.69293e-10
9.69305e-10
9.69317e-10
9.69329e-10
9.69341e-10
9.69353e-10
9.69365e-10
9.69377e-10
9.69389e-10
9.69401e-10
9.69413e-10
9.69424e-10
9.69436e-10
9.69447e-10
9.69459e-10
9.6947e-10
9.69481e-10
9.69492e-10
9.69502e-10
9.69512e-10
9.69523e-10
9.69532e-10
9.69542e-10
9.69551e-10
9.6956e-10
9.69569e-10
9.69577e-10
9.69585e-10
9.69593e-10
9.69601e-10
9.69608e-10
9.69615e-10
9.69621e-10
9.69628e-10
9.69633e-10
9.69639e-10
9.69644e-10
9.69649e-10
9.69654e-10
9.69658e-10
9.69662e-10
9.69666e-10
9.6967e-10
9.69673e-10
9.69676e-10
9.69678e-10
9.6968e-10
9.69682e-10
9.69684e-10
9.69685e-10
9.69686e-10
9.69687e-10
9.69687e-10
9.69687e-10
9.69687e-10
9.69687e-10
9.69687e-10
9.69686e-10
9.69685e-10
9.69683e-10
9.69681e-10
9.69679e-10
9.69676e-10
9.69674e-10
9.69671e-10
9.69667e-10
9.69664e-10
9.6966e-10
9.69656e-10
9.69652e-10
9.69647e-10
9.69642e-10
9.69637e-10
9.69632e-10
9.69626e-10
9.6962e-10
9.69614e-10
9.69608e-10
9.69601e-10
9.69594e-10
9.69587e-10
9.69579e-10
9.69571e-10
9.69563e-10
9.69554e-10
9.69545e-10
9.69535e-10
9.69525e-10
9.69514e-10
9.69503e-10
9.69491e-10
9.69478e-10
9.69465e-10
9.69451e-10
9.69436e-10
9.6942e-10
9.69403e-10
9.69385e-10
9.69366e-10
9.69346e-10
9.69325e-10
9.69303e-10
9.69279e-10
9.69254e-10
9.69227e-10
9.69199e-10
9.6917e-10
9.69139e-10
9.69106e-10
9.69072e-10
9.69036e-10
9.68999e-10
9.6896e-10
9.6892e-10
9.68878e-10
9.68835e-10
9.68791e-10
9.68745e-10
9.68698e-10
9.6865e-10
9.68601e-10
9.68551e-10
9.68501e-10
9.6845e-10
9.68399e-10
9.68347e-10
9.68296e-10
9.68245e-10
9.68195e-10
9.68146e-10
9.68097e-10
9.6805e-10
9.68004e-10
9.6796e-10
9.67918e-10
9.67879e-10
9.67841e-10
9.67807e-10
9.67775e-10
9.67747e-10
9.67722e-10
9.677e-10
9.67682e-10
9.67668e-10
9.67658e-10
9.67652e-10
9.6765e-10
9.67649e-10
9.6765e-10
9.67653e-10
9.67664e-10
9.67681e-10
9.67703e-10
9.67728e-10
9.67756e-10
9.67787e-10
9.67821e-10
9.67858e-10
9.67896e-10
9.67937e-10
9.6798e-10
9.68024e-10
9.68069e-10
9.68115e-10
9.68161e-10
9.68207e-10
9.68254e-10
9.683e-10
9.68346e-10
9.68391e-10
9.68435e-10
9.68478e-10
9.6852e-10
9.6856e-10
9.68599e-10
9.68636e-10
9.68673e-10
9.68706e-10
9.68739e-10
)
;

boundaryField
{
    inlet
    {
        type            calculated;
        value           uniform 0;
    }
    outlet
    {
        type            calculated;
        value           uniform 9.68769e-10;
    }
    emptyWalls
    {
        type            empty;
        value           nonuniform List<scalar> 0();
    }
}


// ************************************************************************* //
