/*--------------------------------*- C++ -*----------------------------------*\
  =========                 |
  \\      /  F ield         | OpenFOAM: The Open Source CFD Toolbox
   \\    /   O peration     | Website:  https://openfoam.org
    \\  /    A nd           | Version:  9
     \\/     M anipulation  |
\*---------------------------------------------------------------------------*/
FoamFile
{
    format      ascii;
    class       volScalarField;
    location    "26100";
    object      Fb;
}
// * * * * * * * * * * * * * * * * * * * * * * * * * * * * * * * * * * * * * //

dimensions      [0 0 0 0 0 0 0];

internalField   nonuniform List<scalar> 
1000
(
0.805205
0.805197
0.805194
0.805203
0.805207
0.80521
0.805239
0.80522
0.805276
0.805232
0.805322
0.805251
0.805367
0.80529
0.805393
0.805351
0.80541
0.805418
0.80545
0.805479
0.80551
0.805537
0.805569
0.805592
0.805619
0.805643
0.805658
0.805696
0.805677
0.805749
0.805683
0.805788
0.805714
0.80582
0.805843
0.806183
0.808601
0.825462
0.832724
0.834085
0.834592
0.834871
0.835065
0.835195
0.835262
0.835296
0.83535
0.835453
0.835574
0.835635
0.835557
0.835307
0.834915
0.83446
0.834037
0.833722
0.833548
0.833505
0.833546
0.833613
0.833698
0.83397
0.83441
0.834844
0.835238
0.835569
0.83583
0.836021
0.836148
0.836219
0.836245
0.836239
0.836218
0.836188
0.836157
0.836117
0.83609
0.836077
0.836071
0.836073
0.836078
0.836087
0.836097
0.836106
0.836114
0.83612
0.836123
0.836123
0.836119
0.836111
0.836098
0.83608
0.836056
0.836026
0.83599
0.835944
0.835889
0.835822
0.835741
0.835642
0.835523
0.835381
0.835217
0.835032
0.834833
0.834623
0.834405
0.834181
0.833951
0.833717
0.833479
0.833238
0.832995
0.832748
0.832499
0.832247
0.831992
0.831735
0.831474
0.831211
0.830946
0.830679
0.830411
0.830143
0.829875
0.829606
0.829337
0.829068
0.828798
0.828526
0.828252
0.827975
0.827694
0.827411
0.827125
0.826838
0.826551
0.826265
0.82598
0.825696
0.825415
0.825135
0.824858
0.824582
0.824306
0.824025
0.823738
0.823439
0.823123
0.822789
0.822435
0.82206
0.821665
0.821254
0.82083
0.820395
0.819954
0.819509
0.819064
0.818622
0.818188
0.817765
0.817357
0.81697
0.816606
0.81627
0.815964
0.815689
0.815446
0.815231
0.815043
0.814877
0.814728
0.814591
0.814459
0.814327
0.814191
0.814046
0.81389
0.813719
0.813533
0.813331
0.813114
0.812882
0.812636
0.812379
0.812111
0.811836
0.811555
0.811269
0.81098
0.81069
0.810399
0.810108
0.809819
0.809531
0.809244
0.80896
0.808677
0.808396
0.808117
0.807838
0.807561
0.807285
0.807009
0.806734
0.806459
0.806184
0.805909
0.805633
0.805357
0.805081
0.804804
0.804526
0.804247
0.803968
0.803688
0.803407
0.803125
0.802842
0.802559
0.802274
0.801988
0.801702
0.801414
0.801125
0.800836
0.800545
0.800254
0.799962
0.799669
0.799374
0.799079
0.798783
0.798486
0.798188
0.797888
0.797588
0.797286
0.796983
0.79668
0.796375
0.79607
0.795763
0.795457
0.795149
0.794841
0.794532
0.794223
0.793913
0.793603
0.793291
0.792979
0.792666
0.792352
0.792037
0.791721
0.791404
0.791086
0.790768
0.790449
0.790131
0.789813
0.789495
0.789178
0.78886
0.788543
0.788225
0.787906
0.787585
0.78726
0.786932
0.786598
0.786259
0.785912
0.785558
0.785196
0.784825
0.784445
0.784057
0.783661
0.783257
0.782846
0.78243
0.782009
0.781585
0.78116
0.780736
0.780313
0.779895
0.779484
0.77908
0.778687
0.778306
0.777938
0.777585
0.777247
0.776925
0.776618
0.776327
0.77605
0.775786
0.775534
0.775291
0.775056
0.774827
0.774601
0.774376
0.77415
0.773922
0.77369
0.773453
0.773209
0.772959
0.772702
0.772438
0.772167
0.771889
0.771604
0.771314
0.771018
0.770718
0.770414
0.770107
0.769797
0.769486
0.769172
0.768858
0.768543
0.768228
0.767913
0.767599
0.767284
0.76697
0.766657
0.766344
0.766032
0.76572
0.765408
0.765097
0.764786
0.764476
0.764165
0.763855
0.763545
0.763234
0.762923
0.762612
0.7623
0.761989
0.761676
0.761363
0.76105
0.760736
0.760421
0.760106
0.75979
0.759473
0.759155
0.758837
0.758518
0.758199
0.757878
0.757557
0.757235
0.756912
0.756589
0.756265
0.755939
0.755614
0.755287
0.754959
0.754631
0.754301
0.753971
0.75364
0.753308
0.752976
0.752643
0.752308
0.751974
0.751638
0.751302
0.750965
0.750628
0.75029
0.749951
0.749612
0.749272
0.748931
0.74859
0.748248
0.747905
0.747562
0.747218
0.746873
0.746528
0.746183
0.745837
0.745491
0.745145
0.744798
0.744451
0.744104
0.743755
0.743407
0.743057
0.742706
0.742353
0.741999
0.741642
0.741283
0.740921
0.740555
0.740185
0.739812
0.739434
0.739052
0.738664
0.738272
0.737875
0.737474
0.737068
0.736658
0.736245
0.735828
0.735408
0.734987
0.734565
0.734142
0.73372
0.733299
0.732881
0.732467
0.732056
0.731651
0.731253
0.730861
0.730476
0.7301
0.729732
0.729373
0.729022
0.728681
0.728348
0.728023
0.727706
0.727395
0.727091
0.726791
0.726496
0.726205
0.725915
0.725626
0.725338
0.72505
0.72476
0.724468
0.724173
0.723875
0.723574
0.723269
0.722961
0.722648
0.722332
0.722012
0.721688
0.721361
0.721031
0.720698
0.720363
0.720025
0.719685
0.719343
0.719001
0.718656
0.718311
0.717965
0.717619
0.717272
0.716925
0.716578
0.71623
0.715883
0.715535
0.715187
0.71484
0.714492
0.714145
0.713797
0.71345
0.713102
0.712754
0.712406
0.712058
0.711709
0.71136
0.711011
0.710662
0.710312
0.709961
0.70961
0.709259
0.708907
0.708555
0.708202
0.707848
0.707494
0.707139
0.706783
0.706427
0.70607
0.705712
0.705354
0.704995
0.704635
0.704275
0.703913
0.703551
0.703189
0.702825
0.702461
0.702096
0.70173
0.701364
0.700997
0.700629
0.70026
0.699891
0.699521
0.69915
0.698779
0.698407
0.698034
0.69766
0.697286
0.696912
0.696536
0.69616
0.695783
0.695406
0.695028
0.69465
0.694271
0.693891
0.693511
0.693131
0.69275
0.692368
0.691986
0.691603
0.69122
0.690836
0.690452
0.690067
0.689681
0.689295
0.688908
0.68852
0.68813
0.687739
0.687347
0.686954
0.686558
0.686161
0.685761
0.685359
0.684955
0.684548
0.684138
0.683726
0.68331
0.682892
0.68247
0.682046
0.681619
0.681189
0.680756
0.680322
0.679884
0.679446
0.679005
0.678564
0.678122
0.67768
0.677237
0.676796
0.676354
0.675916
0.675478
0.675045
0.674612
0.674186
0.67376
0.673342
0.672925
0.672516
0.672108
0.67171
0.671312
0.670925
0.670536
0.670159
0.66978
0.669412
0.669041
0.66868
0.668316
0.667961
0.667602
0.66725
0.666894
0.666544
0.666188
0.665838
0.665482
0.66513
0.664771
0.664416
0.664054
0.663694
0.663328
0.662963
0.662592
0.662223
0.661848
0.661473
0.661093
0.660714
0.660331
0.659947
0.65956
0.659173
0.658783
0.658393
0.658001
0.657608
0.657214
0.656819
0.656423
0.656027
0.65563
0.655233
0.654835
0.654437
0.654038
0.653639
0.653239
0.65284
0.65244
0.652039
0.651638
0.651237
0.650836
0.650434
0.650032
0.64963
0.649226
0.648823
0.648419
0.648015
0.64761
0.647204
0.646798
0.646391
0.645984
0.645576
0.645168
0.644758
0.644348
0.643938
0.643527
0.643115
0.642702
0.642288
0.641874
0.641459
0.641043
0.640627
0.640209
0.639791
0.639372
0.638953
0.638532
0.638111
0.637688
0.637266
0.636842
0.636417
0.635992
0.635566
0.635139
0.634711
0.634282
0.633853
0.633423
0.632993
0.63256
0.632129
0.631695
0.631262
0.630826
0.630392
0.629955
0.629519
0.629081
0.628643
0.628203
0.627764
0.627323
0.626883
0.62644
0.625999
0.625555
0.625112
0.624666
0.624221
0.623774
0.623328
0.622879
0.62243
0.621979
0.621529
0.621075
0.620622
0.620166
0.619711
0.619252
0.618793
0.618331
0.617868
0.617402
0.616936
0.616466
0.615996
0.615522
0.615047
0.614569
0.61409
0.613608
0.613124
0.612638
0.61215
0.61166
0.611169
0.610675
0.610181
0.609684
0.609188
0.608689
0.608191
0.607691
0.607193
0.606692
0.606195
0.605695
0.605199
0.6047
0.604207
0.603711
0.603221
0.602729
0.602244
0.601756
0.601276
0.600792
0.600318
0.59984
0.599371
0.598898
0.598435
0.597967
0.597509
0.597046
0.596593
0.596134
0.595685
0.595229
0.594783
0.594329
0.593884
0.593431
0.592988
0.592535
0.592091
0.591637
0.591192
0.590735
0.590289
0.589829
0.58938
0.588917
0.588465
0.587999
0.587542
0.587072
0.586612
0.586138
0.585675
0.585197
0.58473
0.584248
0.583778
0.583293
0.58282
0.582331
0.581855
0.581363
0.580885
0.58039
0.579909
0.579412
0.57893
0.578429
0.577945
0.577442
0.576957
0.576452
0.575965
0.575457
0.57497
0.57446
0.573971
0.573458
0.572969
0.572454
0.571963
0.571445
0.570954
0.570434
0.569941
0.569418
0.568924
0.568399
0.567903
0.567376
0.566877
0.566349
0.565848
0.565318
0.564814
0.564282
0.563775
0.563242
0.562731
0.562198
0.561683
0.561148
0.56063
0.560094
0.559573
0.559035
0.55851
0.557971
0.557442
0.556901
0.556369
0.555826
0.555291
0.554746
0.554207
0.553661
0.553119
0.55257
0.552025
0.551474
0.550926
0.550372
0.549821
0.549264
0.548711
0.548152
0.547596
0.547033
0.546475
0.545909
0.545348
0.54478
0.544217
0.543645
0.543079
0.542504
0.541936
0.541358
0.540787
0.540205
0.539633
0.539047
0.538473
0.537883
0.537307
0.536713
0.536134
0.535536
0.534955
0.534353
0.53377
0.533162
0.532577
0.531964
0.531377
0.530758
0.530168
0.529544
0.528952
0.528322
0.527726
0.527091
0.526491
0.52585
0.525247
0.5246
0.523993
0.52334
0.522729
0.522071
0.521455
0.520791
0.520171
0.519502
0.518877
0.518204
0.517574
0.516896
0.516262
0.51558
0.514942
0.514256
0.513615
0.512926
0.512281
0.511589
0.510942
0.510247
0.509599
0.5089
0.508253
0.507549
0.506905
0.506195
0.505555
0.50484
0.504204
0.503485
0.502852
0.502132
0.5015
0.500778
0.500149
0.499425
0.498798
0.498073
0.497448
0.496721
0.496096
0.495368
0.494744
0.494014
0.49339
0.492659
0.492034
0.4913
0.490673
0.489938
0.489309
0.488571
0.487939
0.487199
0.486565
0.485819
0.485185
0.484432
0.483801
0.483038
0.482413
0.481636
0.48102
0.480229
0.479626
0.478818
0.478233
0.477404
0.476841
0.475993
0.475455
0.47459
0.474078
0.473198
0.472718
0.471823
0.47138
0.470475
0.470072
0.469164
0.468805
0.467899
0.467587
0.466692
0.466479
0.0127784
)
;

boundaryField
{
    inlet
    {
        type            calculated;
        value           uniform 0.805169;
    }
    outlet
    {
        type            calculated;
        value           uniform 0.525468;
    }
    emptyWalls
    {
        type            empty;
    }
}


// ************************************************************************* //
