/*--------------------------------*- C++ -*----------------------------------*\
  =========                 |
  \\      /  F ield         | OpenFOAM: The Open Source CFD Toolbox
   \\    /   O peration     | Website:  https://openfoam.org
    \\  /    A nd           | Version:  9
     \\/     M anipulation  |
\*---------------------------------------------------------------------------*/
FoamFile
{
    format      ascii;
    class       volScalarField;
    location    "6200";
    object      krc;
}
// * * * * * * * * * * * * * * * * * * * * * * * * * * * * * * * * * * * * * //

dimensions      [0 0 0 0 0 0 0];

internalField   nonuniform List<scalar> 
1000
(
1.66201e-06
1.86972e-05
5.41475e-05
0.000100272
0.000152877
0.000224014
0.000426122
0.00149134
0.0145284
0.0388591
0.0457705
0.0486694
0.0504544
0.051765
0.0528052
0.0536632
0.0544058
0.0550835
0.0557561
0.056498
0.057404
0.0584986
0.0598802
0.0616064
0.063633
0.0658553
0.0681882
0.0705821
0.0730077
0.0754471
0.0778897
0.0803281
0.0827578
0.0851758
0.0875801
0.0899693
0.0923428
0.0946998
0.0970398
0.0993627
0.101668
0.103957
0.106228
0.108483
0.11072
0.112941
0.115146
0.117334
0.119506
0.121663
0.123804
0.12593
0.128041
0.130137
0.132218
0.134285
0.136339
0.138378
0.140404
0.142417
0.144416
0.146403
0.148377
0.15034
0.152289
0.154227
0.156154
0.15807
0.159974
0.161868
0.163752
0.165625
0.167489
0.169342
0.171187
0.173022
0.174848
0.176666
0.178474
0.180274
0.182066
0.183849
0.185624
0.18739
0.189148
0.190899
0.192641
0.194376
0.196103
0.197822
0.199535
0.20124
0.202939
0.204631
0.206316
0.207995
0.209668
0.211335
0.212996
0.214651
0.216301
0.217945
0.219583
0.221217
0.222845
0.224469
0.226087
0.227701
0.22931
0.230915
0.232515
0.23411
0.235702
0.237289
0.238873
0.240452
0.242028
0.243599
0.245168
0.246733
0.248294
0.249852
0.251407
0.252959
0.254508
0.256054
0.257597
0.259137
0.260675
0.262211
0.263743
0.265274
0.266802
0.268329
0.269853
0.271375
0.272896
0.274414
0.275931
0.277447
0.278961
0.280473
0.281985
0.283495
0.285004
0.286513
0.28802
0.289526
0.291032
0.292538
0.294043
0.295547
0.297052
0.298556
0.30006
0.301564
0.303068
0.304572
0.306077
0.307582
0.309088
0.310595
0.312102
0.31361
0.31512
0.31663
0.318142
0.319655
0.321169
0.322686
0.324204
0.325724
0.327246
0.32877
0.330296
0.331825
0.333356
0.33489
0.336427
0.337967
0.33951
0.341057
0.342607
0.344161
0.345718
0.34728
0.348846
0.350416
0.35199
0.35357
0.355155
0.356745
0.35834
0.359941
0.361547
0.36316
0.36478
0.366405
0.368038
0.369677
0.371324
0.372978
0.37464
0.376311
0.377989
0.379677
0.381373
0.383079
0.384795
0.38652
0.388256
0.390002
0.391759
0.393527
0.395306
0.397098
0.398901
0.400717
0.402545
0.404385
0.406237
0.408101
0.409976
0.411862
0.413756
0.415658
0.417564
0.41947
0.421371
0.423262
0.425134
0.426979
0.428783
0.430537
0.432225
0.433838
0.435366
0.436807
0.438171
0.439489
0.440826
0.442312
0.444179
0.446832
0.450945
0.457586
0.468262
0.484667
0.507782
0.536402
0.566435
0.592706
0.612079
0.624538
0.631828
0.63585
0.637998
0.639125
0.639713
0.640019
0.64018
0.640265
0.64031
0.640336
0.64035
0.640358
0.640363
0.640366
0.640368
0.640368
0.640369
0.640369
0.640368
0.640367
0.640366
0.640365
0.640363
0.640362
0.64036
0.640359
0.640358
0.640356
0.640355
0.640354
0.640353
0.640352
0.640352
0.640352
0.640352
0.640352
0.640352
0.640352
0.640352
0.640353
0.640354
0.640354
0.640355
0.640356
0.640358
0.640359
0.64036
0.640361
0.640363
0.640364
0.640366
0.640368
0.640369
0.640371
0.640373
0.640374
0.640376
0.640378
0.640379
0.640381
0.640383
0.640384
0.640386
0.640388
0.64039
0.640391
0.640393
0.640395
0.640396
0.640398
0.640399
0.640401
0.640403
0.640404
0.640406
0.640407
0.640408
0.64041
0.640411
0.640413
0.640414
0.640415
0.640417
0.640418
0.640419
0.64042
0.640421
0.640423
0.640424
0.640425
0.640426
0.640427
0.640428
0.640429
0.64043
0.640431
0.640432
0.640433
0.640434
0.640435
0.640436
0.640437
0.640437
0.640438
0.640439
0.640439
0.64044
0.640441
0.640441
0.640442
0.640442
0.640443
0.640443
0.640444
0.640444
0.640444
0.640444
0.640445
0.640445
0.640445
0.640444
0.640444
0.640444
0.640444
0.640443
0.640443
0.640442
0.640442
0.640441
0.64044
0.64044
0.640439
0.640438
0.640437
0.640436
0.640435
0.640434
0.640433
0.640431
0.64043
0.640429
0.640427
0.640426
0.640425
0.640423
0.640422
0.64042
0.640418
0.640417
0.640415
0.640413
0.640412
0.64041
0.640408
0.640406
0.640404
0.640402
0.6404
0.640397
0.640395
0.640392
0.64039
0.640387
0.640384
0.64038
0.640377
0.640373
0.64037
0.640365
0.640361
0.640356
0.640352
0.640347
0.640341
0.640336
0.64033
0.640324
0.640317
0.640311
0.640304
0.640297
0.64029
0.640283
0.640276
0.64027
0.640263
0.640256
0.64025
0.640244
0.640238
0.640233
0.640229
0.640225
0.640221
0.640219
0.640217
0.640216
0.640215
0.640215
0.640215
0.640216
0.640219
0.640223
0.640227
0.640233
0.640239
0.640245
0.640252
0.640259
0.640267
0.640275
0.640283
0.640291
0.640299
0.640306
0.640314
0.640321
0.640327
0.640334
0.640339
0.640345
0.640349
0.640354
0.640357
0.640361
0.640363
0.640366
0.640368
0.640369
0.64037
0.640371
0.640372
0.640372
0.640372
0.640373
0.640373
0.640372
0.640372
0.640372
0.640371
0.640371
0.640371
0.64037
0.64037
0.64037
0.64037
0.640369
0.640369
0.640369
0.640369
0.640369
0.640369
0.640369
0.640369
0.64037
0.64037
0.640371
0.640371
0.640372
0.640373
0.640373
0.640374
0.640375
0.640376
0.640378
0.640379
0.64038
0.640382
0.640383
0.640385
0.640386
0.640388
0.64039
0.640391
0.640393
0.640395
0.640396
0.640398
0.6404
0.640402
0.640403
0.640405
0.640406
0.640408
0.64041
0.640411
0.640413
0.640414
0.640416
0.640417
0.640419
0.64042
0.640421
0.640423
0.640424
0.640425
0.640426
0.640427
0.640428
0.640429
0.64043
0.640431
0.640431
0.640432
0.640433
0.640433
0.640434
0.640434
0.640435
0.640435
0.640436
0.640436
0.640436
0.640437
0.640437
0.640437
0.640437
0.640438
0.640438
0.640438
0.640438
0.640438
0.640438
0.640438
0.640438
0.640438
0.640438
0.640438
0.640438
0.640438
0.640438
0.640438
0.640438
0.640437
0.640437
0.640437
0.640437
0.640436
0.640436
0.640436
0.640435
0.640434
0.640434
0.640433
0.640433
0.640432
0.640431
0.64043
0.640429
0.640428
0.640427
0.640426
0.640425
0.640423
0.640422
0.64042
0.640419
0.640417
0.640416
0.640414
0.640412
0.64041
0.640408
0.640406
0.640404
0.640401
0.640399
0.640397
0.640394
0.640391
0.640388
0.640385
0.640382
0.640379
0.640376
0.640372
0.640369
0.640365
0.640361
0.640357
0.640352
0.640348
0.640343
0.640338
0.640333
0.640328
0.640323
0.640317
0.640312
0.640306
0.6403
0.640294
0.640288
0.640283
0.640277
0.640271
0.640265
0.64026
0.640255
0.640249
0.640245
0.64024
0.640236
0.640232
0.640229
0.640226
0.640224
0.640222
0.640221
0.640221
0.640221
0.640221
0.640221
0.640223
0.640226
0.640229
0.640233
0.640237
0.640242
0.640248
0.640254
0.64026
0.640267
0.640273
0.64028
0.640287
0.640294
0.640301
0.640308
0.640314
0.640321
0.640327
0.640333
0.640338
0.640343
0.640348
0.640353
0.640357
0.64036
0.640363
0.640366
0.640369
0.640371
0.640373
0.640375
0.640376
0.640377
0.640378
0.640379
0.64038
0.640381
0.640381
0.640381
0.640382
0.640382
0.640382
0.640382
0.640383
0.640383
0.640383
0.640383
0.640384
0.640384
0.640385
0.640385
0.640386
0.640386
0.640387
0.640388
0.640388
0.640389
0.64039
0.640391
0.640392
0.640393
0.640394
0.640395
0.640396
0.640397
0.640398
0.640399
0.6404
0.640401
0.640403
0.640404
0.640405
0.640406
0.640407
0.640409
0.64041
0.640411
0.640412
0.640413
0.640414
0.640415
0.640417
0.640418
0.640419
0.64042
0.640421
0.640422
0.640423
0.640424
0.640425
0.640426
0.640427
0.640428
0.640429
0.64043
0.640431
0.640432
0.640433
0.640434
0.640435
0.640435
0.640436
0.640437
0.640437
0.640438
0.640439
0.640439
0.64044
0.64044
0.640441
0.640441
0.640441
0.640441
0.640442
0.640442
0.640442
0.640442
0.640442
0.640442
0.640442
0.640442
0.640442
0.640442
0.640442
0.640442
0.640442
0.640442
0.640441
0.640441
0.640441
0.64044
0.64044
0.64044
0.640439
0.640439
0.640439
0.640438
0.640438
0.640437
0.640437
0.640436
0.640436
0.640435
0.640435
0.640434
0.640433
0.640433
0.640432
0.640431
0.64043
0.64043
0.640429
0.640428
0.640427
0.640425
0.640424
0.640423
0.640422
0.64042
0.640419
0.640417
0.640415
0.640413
0.640411
0.640409
0.640407
0.640405
0.640402
0.640399
0.640397
0.640393
0.64039
0.640387
0.640384
0.64038
0.640376
0.640372
0.640368
0.640364
0.64036
0.640355
0.64035
0.640346
0.640341
0.640336
0.640331
0.640325
0.64032
0.640315
0.640309
0.640304
0.640299
0.640293
0.640288
0.640283
0.640278
0.640273
0.640268
0.640264
0.640259
0.640255
0.640252
0.640249
0.640246
0.640244
0.640242
0.64024
0.640239
0.640239
0.640239
0.640239
0.640239
0.64024
0.640243
0.640245
0.640249
0.640252
0.640257
0.640261
0.640266
0.640271
0.640277
0.640283
0.640289
0.640295
0.640301
0.640308
0.640314
0.64032
0.640326
0.640331
0.640337
0.640342
0.640347
0.640352
0.640357
0.640361
0.640365
0.640368
0.640371
0.640374
0.640377
0.640379
0.640381
0.640383
0.640385
0.640386
0.640387
0.640388
0.640389
0.640389
0.64039
0.640391
0.640391
0.640391
0.640391
0.640391
0.640392
0.640392
0.640392
0.640392
0.640392
0.640392
0.640392
0.640392
0.640393
0.640393
0.640393
0.640393
0.640393
0.640394
0.640394
0.640394
0.640395
0.640395
0.640395
0.640396
0.640396
0.640396
0.640397
0.640397
0.640398
0.640398
0.640398
0.640399
0.640399
0.6404
0.6404
0.6404
0.640401
0.640401
0.640402
0.640402
0.640403
0.640403
0.640403
0.640404
0.640404
0.640405
0.640405
0.640406
0.640407
0.640407
0.640408
0.640408
0.640409
0.640409
0.64041
0.640411
0.640411
0.640412
0.640413
0.640414
0.640414
0.640415
0.640416
0.640417
0.640418
0.640418
0.640419
0.64042
0.640421
0.640422
0.640422
0.640424
0.640424
0.640425
0.640425
0.640427
0.640427
0.640428
0.640427
)
;

boundaryField
{
    inlet
    {
        type            calculated;
        value           uniform 3.08149e-33;
    }
    outlet
    {
        type            calculated;
        value           uniform 0.640427;
    }
    emptyWalls
    {
        type            empty;
    }
}


// ************************************************************************* //
