/*--------------------------------*- C++ -*----------------------------------*\
  =========                 |
  \\      /  F ield         | OpenFOAM: The Open Source CFD Toolbox
   \\    /   O peration     | Website:  https://openfoam.org
    \\  /    A nd           | Version:  9
     \\/     M anipulation  |
\*---------------------------------------------------------------------------*/
FoamFile
{
    format      ascii;
    class       surfaceScalarField;
    location    "8000";
    object      phic;
}
// * * * * * * * * * * * * * * * * * * * * * * * * * * * * * * * * * * * * * //

dimensions      [0 2 0 0 0 0 0];

internalField   nonuniform List<scalar> 
999
(
1.02872e-14
4.67162e-14
1.04021e-13
1.77268e-13
2.60392e-13
3.46672e-13
4.36813e-13
5.74437e-13
1.00335e-12
2.44838e-12
9.75927e-12
1.94058e-11
2.12515e-11
2.1997e-11
2.24686e-11
2.28306e-11
2.31355e-11
2.34075e-11
2.36595e-11
2.38959e-11
2.41205e-11
2.43425e-11
2.45713e-11
2.48148e-11
2.50827e-11
2.53989e-11
2.57591e-11
2.61944e-11
2.6743e-11
2.74393e-11
2.82879e-11
2.92581e-11
3.03107e-11
3.1419e-11
3.25669e-11
3.37443e-11
3.49446e-11
3.61638e-11
3.73988e-11
3.86475e-11
3.99084e-11
4.11804e-11
4.24624e-11
4.37537e-11
4.50536e-11
4.63615e-11
4.7677e-11
4.89995e-11
5.03288e-11
5.16645e-11
5.30065e-11
5.43544e-11
5.5708e-11
5.70674e-11
5.84321e-11
5.98021e-11
6.11773e-11
6.25575e-11
6.39426e-11
6.53325e-11
6.67271e-11
6.81263e-11
6.953e-11
7.09382e-11
7.23507e-11
7.37674e-11
7.51883e-11
7.66134e-11
7.80424e-11
7.94754e-11
8.09123e-11
8.2353e-11
8.37976e-11
8.52458e-11
8.66977e-11
8.81533e-11
8.96124e-11
9.1075e-11
9.25411e-11
9.40106e-11
9.54836e-11
9.69599e-11
9.84397e-11
9.99228e-11
1.01409e-10
1.02899e-10
1.04392e-10
1.05889e-10
1.07389e-10
1.08892e-10
1.10399e-10
1.11909e-10
1.13422e-10
1.14939e-10
1.16459e-10
1.17982e-10
1.19509e-10
1.21038e-10
1.22571e-10
1.24108e-10
1.25647e-10
1.2719e-10
1.28735e-10
1.30284e-10
1.31836e-10
1.33392e-10
1.3495e-10
1.36512e-10
1.38077e-10
1.39645e-10
1.41216e-10
1.42791e-10
1.44369e-10
1.4595e-10
1.47534e-10
1.49122e-10
1.50713e-10
1.52307e-10
1.53905e-10
1.55505e-10
1.57109e-10
1.58715e-10
1.60325e-10
1.61938e-10
1.63553e-10
1.65172e-10
1.66794e-10
1.6842e-10
1.70048e-10
1.71678e-10
1.73312e-10
1.74948e-10
1.76586e-10
1.78225e-10
1.79867e-10
1.8151e-10
1.83154e-10
1.848e-10
1.86447e-10
1.88095e-10
1.89745e-10
1.91397e-10
1.93051e-10
1.94707e-10
1.96366e-10
1.98029e-10
1.99696e-10
2.01368e-10
2.03047e-10
2.04731e-10
2.06423e-10
2.08124e-10
2.09833e-10
2.11552e-10
2.13281e-10
2.15019e-10
2.16768e-10
2.18527e-10
2.20296e-10
2.22073e-10
2.23858e-10
2.25651e-10
2.2745e-10
2.29253e-10
2.31061e-10
2.32873e-10
2.34686e-10
2.36502e-10
2.38319e-10
2.40137e-10
2.41956e-10
2.43776e-10
2.45597e-10
2.47419e-10
2.49243e-10
2.51069e-10
2.52897e-10
2.54728e-10
2.56562e-10
2.58401e-10
2.60243e-10
2.6209e-10
2.63942e-10
2.65799e-10
2.67662e-10
2.6953e-10
2.71404e-10
2.73285e-10
2.75171e-10
2.77063e-10
2.78962e-10
2.80867e-10
2.82778e-10
2.84696e-10
2.86619e-10
2.88549e-10
2.90485e-10
2.92428e-10
2.94377e-10
2.96331e-10
2.98293e-10
3.0026e-10
3.02234e-10
3.04214e-10
3.06201e-10
3.08194e-10
3.10194e-10
3.12201e-10
3.14214e-10
3.16234e-10
3.18261e-10
3.20295e-10
3.22336e-10
3.24383e-10
3.26439e-10
3.28501e-10
3.30571e-10
3.32649e-10
3.34734e-10
3.36826e-10
3.38927e-10
3.41035e-10
3.43152e-10
3.45276e-10
3.47409e-10
3.49549e-10
3.51698e-10
3.53856e-10
3.56022e-10
3.58196e-10
3.6038e-10
3.62572e-10
3.64774e-10
3.66984e-10
3.69204e-10
3.71433e-10
3.73671e-10
3.75919e-10
3.78177e-10
3.80445e-10
3.82723e-10
3.85011e-10
3.8731e-10
3.89619e-10
3.91939e-10
3.9427e-10
3.96612e-10
3.98965e-10
4.01331e-10
4.03707e-10
4.06096e-10
4.08497e-10
4.10911e-10
4.13337e-10
4.15775e-10
4.18227e-10
4.20692e-10
4.23171e-10
4.25664e-10
4.28171e-10
4.30692e-10
4.33229e-10
4.3578e-10
4.38347e-10
4.4093e-10
4.43528e-10
4.46143e-10
4.48774e-10
4.51422e-10
4.54087e-10
4.56771e-10
4.59472e-10
4.62192e-10
4.64931e-10
4.67688e-10
4.70465e-10
4.73262e-10
4.76078e-10
4.78916e-10
4.81774e-10
4.84654e-10
4.87555e-10
4.90478e-10
4.93422e-10
4.96387e-10
4.99374e-10
5.02383e-10
5.05413e-10
5.08463e-10
5.11532e-10
5.14618e-10
5.17719e-10
5.20833e-10
5.23956e-10
5.27082e-10
5.30207e-10
5.33322e-10
5.36417e-10
5.3948e-10
5.42497e-10
5.45454e-10
5.48333e-10
5.51114e-10
5.53779e-10
5.56306e-10
5.58679e-10
5.60885e-10
5.62918e-10
5.64784e-10
5.66506e-10
5.68135e-10
5.69773e-10
5.71599e-10
5.73933e-10
5.7733e-10
5.8273e-10
5.91682e-10
6.06569e-10
6.30606e-10
6.67046e-10
7.16944e-10
7.76192e-10
8.35296e-10
8.84391e-10
9.19006e-10
9.40537e-10
9.5285e-10
9.59541e-10
9.6307e-10
9.64904e-10
9.65845e-10
9.66331e-10
9.66583e-10
9.66727e-10
9.66819e-10
9.66888e-10
9.66952e-10
9.67016e-10
9.67087e-10
9.67166e-10
9.6725e-10
9.6734e-10
9.67436e-10
9.67536e-10
9.67639e-10
9.67743e-10
9.67848e-10
9.67951e-10
9.68053e-10
9.68151e-10
9.68245e-10
9.68334e-10
9.68418e-10
9.68495e-10
9.68566e-10
9.68631e-10
9.68689e-10
9.6874e-10
9.68784e-10
9.68823e-10
9.68856e-10
9.68883e-10
9.68905e-10
9.68923e-10
9.68937e-10
9.68947e-10
9.68954e-10
9.68959e-10
9.68962e-10
9.68964e-10
9.68965e-10
9.68966e-10
9.68966e-10
9.68966e-10
9.68966e-10
9.68966e-10
9.68967e-10
9.68969e-10
9.68972e-10
9.68977e-10
9.68983e-10
9.6899e-10
9.68998e-10
9.69008e-10
9.69018e-10
9.6903e-10
9.69043e-10
9.69056e-10
9.69071e-10
9.69086e-10
9.69103e-10
9.69119e-10
9.69137e-10
9.69155e-10
9.69173e-10
9.69192e-10
9.69211e-10
9.6923e-10
9.69249e-10
9.69269e-10
9.69288e-10
9.69308e-10
9.69327e-10
9.69346e-10
9.69366e-10
9.69385e-10
9.69404e-10
9.69423e-10
9.69441e-10
9.6946e-10
9.69478e-10
9.69496e-10
9.69514e-10
9.69532e-10
9.69549e-10
9.69567e-10
9.69584e-10
9.69601e-10
9.69617e-10
9.69633e-10
9.69649e-10
9.69665e-10
9.6968e-10
9.69695e-10
9.6971e-10
9.69725e-10
9.69739e-10
9.69752e-10
9.69765e-10
9.69778e-10
9.6979e-10
9.69802e-10
9.69813e-10
9.69823e-10
9.69833e-10
9.69842e-10
9.69851e-10
9.69858e-10
9.69865e-10
9.69872e-10
9.69877e-10
9.69882e-10
9.69886e-10
9.69888e-10
9.6989e-10
9.69892e-10
9.69892e-10
9.69892e-10
9.69892e-10
9.69891e-10
9.69888e-10
9.69884e-10
9.6988e-10
9.69875e-10
9.69869e-10
9.69862e-10
9.69855e-10
9.69847e-10
9.69839e-10
9.6983e-10
9.6982e-10
9.6981e-10
9.69799e-10
9.69788e-10
9.69777e-10
9.69765e-10
9.69753e-10
9.69741e-10
9.69728e-10
9.69715e-10
9.69702e-10
9.69688e-10
9.69675e-10
9.69661e-10
9.69647e-10
9.69633e-10
9.69618e-10
9.69604e-10
9.69589e-10
9.69575e-10
9.6956e-10
9.69545e-10
9.69529e-10
9.69514e-10
9.69498e-10
9.69482e-10
9.69466e-10
9.6945e-10
9.69433e-10
9.69416e-10
9.69399e-10
9.69381e-10
9.69362e-10
9.69343e-10
9.69323e-10
9.69303e-10
9.69281e-10
9.69259e-10
9.69235e-10
9.69211e-10
9.69185e-10
9.69158e-10
9.69129e-10
9.69099e-10
9.69067e-10
9.69033e-10
9.68997e-10
9.68959e-10
9.68918e-10
9.68876e-10
9.6883e-10
9.68782e-10
9.68732e-10
9.68678e-10
9.68622e-10
9.68564e-10
9.68503e-10
9.68439e-10
9.68373e-10
9.68305e-10
9.68234e-10
9.68163e-10
9.68089e-10
9.68015e-10
9.6794e-10
9.67865e-10
9.6779e-10
9.67717e-10
9.67644e-10
9.67574e-10
9.67506e-10
9.67441e-10
9.6738e-10
9.67324e-10
9.67273e-10
9.67227e-10
9.67188e-10
9.67155e-10
9.6713e-10
9.67113e-10
9.67103e-10
9.671e-10
9.671e-10
9.67102e-10
9.67114e-10
9.67147e-10
9.67186e-10
9.67233e-10
9.67286e-10
9.67347e-10
9.67413e-10
9.67484e-10
9.67559e-10
9.67638e-10
9.67719e-10
9.67802e-10
9.67886e-10
9.67969e-10
9.68052e-10
9.68133e-10
9.68212e-10
9.68287e-10
9.68359e-10
9.68428e-10
9.68492e-10
9.68551e-10
9.68605e-10
9.68655e-10
9.687e-10
9.68741e-10
9.68777e-10
9.68808e-10
9.68836e-10
9.68859e-10
9.6888e-10
9.68897e-10
9.68911e-10
9.68922e-10
9.68932e-10
9.68939e-10
9.68946e-10
9.68951e-10
9.68955e-10
9.68958e-10
9.68962e-10
9.68965e-10
9.68968e-10
9.68971e-10
9.68975e-10
9.68979e-10
9.68984e-10
9.6899e-10
9.68997e-10
9.69005e-10
9.69013e-10
9.69023e-10
9.69033e-10
9.69044e-10
9.69056e-10
9.69069e-10
9.69083e-10
9.69098e-10
9.69113e-10
9.69129e-10
9.69145e-10
9.69162e-10
9.69179e-10
9.69197e-10
9.69214e-10
9.69232e-10
9.69251e-10
9.69269e-10
9.69287e-10
9.69305e-10
9.69323e-10
9.69341e-10
9.69359e-10
9.69377e-10
9.69394e-10
9.69411e-10
9.69428e-10
9.69444e-10
9.6946e-10
9.69476e-10
9.69491e-10
9.69506e-10
9.6952e-10
9.69534e-10
9.69548e-10
9.69561e-10
9.69574e-10
9.69586e-10
9.69598e-10
9.69609e-10
9.6962e-10
9.69631e-10
9.69641e-10
9.69651e-10
9.6966e-10
9.69669e-10
9.69678e-10
9.69686e-10
9.69694e-10
9.69702e-10
9.69709e-10
9.69715e-10
9.69722e-10
9.69727e-10
9.69733e-10
9.69738e-10
9.69743e-10
9.69747e-10
9.69751e-10
9.69754e-10
9.69757e-10
9.69759e-10
9.69761e-10
9.69762e-10
9.69763e-10
9.69763e-10
9.69763e-10
9.69763e-10
9.69763e-10
9.69761e-10
9.69759e-10
9.69756e-10
9.69752e-10
9.69748e-10
9.69743e-10
9.69738e-10
9.69732e-10
9.69725e-10
9.69718e-10
9.69711e-10
9.69703e-10
9.69694e-10
9.69685e-10
9.69676e-10
9.69666e-10
9.69656e-10
9.69645e-10
9.69634e-10
9.69623e-10
9.69611e-10
9.69599e-10
9.69586e-10
9.69573e-10
9.6956e-10
9.69547e-10
9.69533e-10
9.6952e-10
9.69505e-10
9.69491e-10
9.69476e-10
9.69462e-10
9.69446e-10
9.69431e-10
9.69415e-10
9.69399e-10
9.69382e-10
9.69365e-10
9.69347e-10
9.69329e-10
9.6931e-10
9.6929e-10
9.6927e-10
9.69249e-10
9.69226e-10
9.69203e-10
9.69179e-10
9.69153e-10
9.69127e-10
9.69098e-10
9.69069e-10
9.69037e-10
9.69004e-10
9.6897e-10
9.68933e-10
9.68895e-10
9.68854e-10
9.68812e-10
9.68768e-10
9.68722e-10
9.68673e-10
9.68623e-10
9.68571e-10
9.68517e-10
9.68462e-10
9.68405e-10
9.68347e-10
9.68288e-10
9.68228e-10
9.68167e-10
9.68106e-10
9.68044e-10
9.67984e-10
9.67923e-10
9.67864e-10
9.67806e-10
9.67751e-10
9.67697e-10
9.67646e-10
9.67598e-10
9.67554e-10
9.67513e-10
9.67477e-10
9.67446e-10
9.6742e-10
9.67399e-10
9.67384e-10
9.67375e-10
9.67372e-10
9.67371e-10
9.67372e-10
9.67377e-10
9.67398e-10
9.67425e-10
9.67458e-10
9.67496e-10
9.6754e-10
9.67589e-10
9.67641e-10
9.67698e-10
9.67758e-10
9.6782e-10
9.67885e-10
9.6795e-10
9.68017e-10
9.68084e-10
9.6815e-10
9.68215e-10
9.68279e-10
9.68342e-10
9.68402e-10
9.68459e-10
9.68513e-10
9.68565e-10
9.68613e-10
9.68657e-10
9.68699e-10
9.68737e-10
9.68771e-10
9.68802e-10
9.6883e-10
9.68855e-10
9.68877e-10
9.68896e-10
9.68912e-10
9.68927e-10
9.68939e-10
9.6895e-10
9.68959e-10
9.68966e-10
9.68973e-10
9.68979e-10
9.68984e-10
9.68988e-10
9.68992e-10
9.68996e-10
9.69001e-10
9.69005e-10
9.6901e-10
9.69015e-10
9.6902e-10
9.69026e-10
9.69033e-10
9.69041e-10
9.69049e-10
9.69058e-10
9.69068e-10
9.69079e-10
9.6909e-10
9.69103e-10
9.69116e-10
9.69129e-10
9.69144e-10
9.69159e-10
9.69175e-10
9.69191e-10
9.69207e-10
9.69224e-10
9.69241e-10
9.69259e-10
9.69277e-10
9.69295e-10
9.69313e-10
9.69331e-10
9.6935e-10
9.69368e-10
9.69386e-10
9.69404e-10
9.69422e-10
9.69439e-10
9.69457e-10
9.69474e-10
9.69491e-10
9.69507e-10
9.69523e-10
9.69539e-10
9.69554e-10
9.69569e-10
9.69584e-10
9.69598e-10
9.69611e-10
9.69625e-10
9.69637e-10
9.6965e-10
9.69662e-10
9.69673e-10
9.69684e-10
9.69695e-10
9.69705e-10
9.69715e-10
9.69724e-10
9.69733e-10
9.69742e-10
9.6975e-10
9.69757e-10
9.69765e-10
9.69772e-10
9.69778e-10
9.69785e-10
9.69791e-10
9.69796e-10
9.69801e-10
9.69806e-10
9.6981e-10
9.69814e-10
9.69818e-10
9.69821e-10
9.69824e-10
9.69827e-10
9.69829e-10
9.6983e-10
9.69831e-10
9.69832e-10
9.69832e-10
9.69832e-10
9.69832e-10
9.69832e-10
9.6983e-10
9.69827e-10
9.69825e-10
9.69821e-10
9.69817e-10
9.69813e-10
9.69808e-10
9.69802e-10
9.69796e-10
9.6979e-10
9.69782e-10
9.69774e-10
9.69766e-10
9.69757e-10
9.69747e-10
9.69737e-10
9.69726e-10
9.69715e-10
9.69703e-10
9.69691e-10
9.69677e-10
9.69664e-10
9.69649e-10
9.69635e-10
9.69619e-10
9.69603e-10
9.69586e-10
9.69569e-10
9.6955e-10
9.69532e-10
9.69512e-10
9.69492e-10
9.69471e-10
9.69449e-10
9.69426e-10
9.69402e-10
9.69377e-10
9.69351e-10
9.69324e-10
9.69296e-10
9.69267e-10
9.69237e-10
9.69205e-10
9.69172e-10
9.69138e-10
9.69102e-10
9.69064e-10
9.69025e-10
9.68985e-10
9.68943e-10
9.689e-10
9.68855e-10
9.68808e-10
9.6876e-10
9.68711e-10
9.6866e-10
9.68608e-10
9.68555e-10
9.68501e-10
9.68445e-10
9.68389e-10
9.68333e-10
9.68275e-10
9.68218e-10
9.68161e-10
9.68103e-10
9.68047e-10
9.6799e-10
9.67935e-10
9.67881e-10
9.67829e-10
9.67779e-10
9.67731e-10
9.67685e-10
9.67642e-10
9.67602e-10
9.67566e-10
9.67533e-10
9.67504e-10
9.67479e-10
9.67459e-10
9.67443e-10
9.67432e-10
9.67426e-10
9.67424e-10
9.67423e-10
9.67424e-10
9.6743e-10
9.67449e-10
9.67472e-10
9.67499e-10
9.67531e-10
9.67567e-10
9.67606e-10
9.67649e-10
9.67694e-10
9.67742e-10
9.67793e-10
9.67845e-10
9.67899e-10
9.67953e-10
9.68008e-10
9.68062e-10
9.68117e-10
9.68171e-10
9.68224e-10
9.68275e-10
9.68325e-10
9.68373e-10
9.68419e-10
9.68462e-10
9.68504e-10
9.68543e-10
9.68579e-10
9.68614e-10
9.68645e-10
9.68675e-10
9.68701e-10
9.68727e-10
)
;

boundaryField
{
    inlet
    {
        type            calculated;
        value           uniform 0;
    }
    outlet
    {
        type            calculated;
        value           uniform 9.68748e-10;
    }
    emptyWalls
    {
        type            empty;
        value           nonuniform List<scalar> 0();
    }
}


// ************************************************************************* //
