/*--------------------------------*- C++ -*----------------------------------*\
  =========                 |
  \\      /  F ield         | OpenFOAM: The Open Source CFD Toolbox
   \\    /   O peration     | Website:  https://openfoam.org
    \\  /    A nd           | Version:  9
     \\/     M anipulation  |
\*---------------------------------------------------------------------------*/
FoamFile
{
    format      ascii;
    class       volScalarField;
    location    "3700";
    object      p;
}
// * * * * * * * * * * * * * * * * * * * * * * * * * * * * * * * * * * * * * //

dimensions      [0 0 0 0 0 0 0];

internalField   nonuniform List<scalar> 
1000
(
273762
273349
272951
272577
272268
272106
272011
271926
271844
271762
271680
271599
271517
271435
271352
271267
271180
271092
271003
270912
270819
270725
270629
270531
270432
270332
270230
270127
270022
269916
269808
269699
269589
269477
269364
269249
269133
269016
268897
268777
268656
268534
268410
268285
268158
268031
267902
267772
267641
267508
267375
267240
267104
266966
266828
266688
266547
266405
266262
266118
265972
265825
265678
265529
265379
265227
265075
264922
264767
264611
264455
264297
264138
263977
263816
263654
263490
263326
263160
262994
262826
262657
262487
262316
262144
261971
261797
261621
261445
261267
261089
260909
260729
260547
260364
260181
259996
259810
259623
259435
259246
259055
258864
258672
258478
258284
258088
257892
257694
257496
257296
257095
256893
256690
256486
256281
256074
255867
255659
255449
255238
255027
254814
254600
254385
254168
253951
253732
253513
253292
253070
252847
252623
252398
252171
251944
251715
251485
251254
251023
250790
250556
250321
250084
249846
249605
249361
249111
248854
248591
248322
248049
247773
247497
247220
246944
246667
246390
246113
245836
245559
245282
245005
244728
244451
244174
243897
243620
243344
243067
242790
242513
242236
241959
241682
241405
241127
240850
240573
240295
240018
239740
239463
239185
238907
238630
238352
238074
237796
237518
237241
236963
236685
236407
236129
235851
235574
235296
235018
234740
234462
234185
233907
233629
233351
233074
232796
232518
232241
231963
231685
231408
231130
230852
230574
230297
230019
229741
229464
229186
228908
228631
228353
228075
227797
227520
227242
226964
226686
226409
226131
225853
225576
225298
225020
224742
224465
224187
223909
223631
223354
223076
222798
222520
222243
221965
221687
221409
221132
220854
220576
220298
220021
219743
219465
219187
218909
218632
218354
218076
217798
217521
217243
216965
216687
216410
216132
215854
215576
215298
215021
214743
214465
214187
213909
213632
213354
213076
212798
212520
212243
211965
211687
211409
211131
210853
210576
210298
210020
209742
209464
209186
208908
208631
208353
208075
207797
207519
207241
206963
206685
206408
206130
205852
205574
205296
205018
204740
204462
204184
203907
203629
203351
203073
202795
202517
202239
201962
201684
201406
201128
200850
200572
200295
200017
199739
199461
199183
198906
198628
198350
198072
197794
197517
197239
196961
196683
196405
196128
195850
195572
195294
195017
194739
194461
194183
193906
193628
193350
193073
192795
192517
192240
191962
191684
191407
191129
190851
190574
190296
190019
189741
189464
189187
188909
188632
188355
188077
187800
187523
187246
186969
186692
186415
186137
185860
185584
185307
185030
184753
184476
184199
183922
183645
183368
183091
182814
182537
182260
181983
181706
181429
181152
180874
180597
180320
180042
179765
179487
179210
178932
178654
178377
178099
177821
177544
177266
176988
176710
176432
176155
175877
175599
175321
175043
174765
174488
174210
173932
173654
173376
173099
172821
172543
172265
171988
171710
171432
171154
170877
170599
170321
170043
169766
169488
169210
168932
168655
168377
168099
167821
167544
167266
166988
166710
166433
166155
165877
165599
165322
165044
164766
164488
164210
163933
163655
163377
163099
162821
162543
162266
161988
161710
161432
161154
160877
160599
160321
160043
159765
159487
159209
158932
158654
158376
158098
157820
157542
157264
156987
156709
156431
156153
155875
155597
155319
155042
154764
154486
154208
153930
153652
153374
153097
152819
152541
152263
151985
151707
151430
151152
150874
150596
150318
150041
149763
149485
149207
148929
148652
148374
148096
147818
147540
147263
146985
146707
146429
146151
145873
145596
145318
145040
144762
144484
144207
143929
143651
143373
143095
142818
142540
142262
141984
141706
141428
141151
140873
140595
140317
140039
139761
139484
139206
138928
138650
138372
138094
137817
137539
137261
136983
136705
136428
136150
135872
135594
135317
135039
134761
134483
134206
133928
133650
133373
133095
132818
132540
132262
131985
131707
131430
131152
130875
130598
130320
130043
129766
129488
129211
128934
128657
128379
128102
127825
127548
127271
126994
126717
126439
126162
125885
125608
125331
125054
124776
124499
124222
123944
123667
123390
123112
122835
122557
122279
122001
121724
121446
121168
120890
120611
120331
120031
119721
119411
119101
118792
118482
118172
117862
117552
117243
116933
116623
116313
116004
115694
115384
115074
114765
114455
114145
113835
113526
113216
112906
112596
112287
111977
111667
111357
111048
110738
110428
110118
109809
109499
109189
108879
108570
108260
107950
107640
107331
107021
106711
106401
106092
105782
105472
105162
104852
104543
104233
103923
103613
103304
102994
102684
102374
102065
101755
101445
101135
100826
100516
100206
99896.4
99586.6
99276.9
98967.1
98657.4
98347.6
98037.8
97728.1
97418.3
97108.6
96798.8
96489.1
96179.3
95869.6
95559.8
95250
94940.3
94630.5
94320.8
94011
93701.3
93391.5
93081.7
92772
92462.2
92152.5
91842.7
91533
91223.2
90913.5
90603.7
90293.9
89984.2
89674.4
89364.7
89054.9
88745.2
88435.4
88125.6
87815.9
87506.1
87196.4
86886.6
86576.9
86267.1
85957.4
85647.6
85337.8
85028.1
84718.3
84408.6
84098.8
83789.1
83479.3
83169.5
82859.8
82550
82240.3
81930.5
81620.8
81311
81001.3
80691.5
80381.7
80072
79762.2
79452.5
79142.7
78833
78523.2
78213.4
77903.7
77593.9
77284.2
76974.4
76664.7
76354.9
76045.2
75735.4
75425.6
75115.9
74806.1
74496.4
74186.6
73876.9
73567.1
73257.3
72947.6
72637.8
72328.1
72018.3
71708.6
71398.8
71089.1
70779.3
70469.5
70159.8
69850
69540.3
69230.5
68920.8
68611
68301.2
67991.5
67681.7
67372
67062.2
66752.5
66442.7
66133
65823.2
65513.4
65203.7
64893.9
64584.2
64274.4
63964.7
63654.9
63345.1
63035.4
62725.6
62415.9
62106.1
61796.4
61486.6
61176.9
60867.1
60557.3
60247.6
59937.8
59628.1
59318.3
59008.6
58698.8
58389
58079.3
57769.5
57459.8
57150
56840.3
56530.5
56220.8
55911
55601.2
55291.5
54981.7
54672
54362.2
54052.5
53742.7
53432.9
53123.2
52813.4
52503.7
52193.9
51884.2
51574.4
51264.7
50954.9
50645.1
50335.4
50025.6
49715.9
49406.1
49096.4
48786.6
48476.9
48167.1
47857.3
47547.6
47237.8
46928.1
46618.3
46308.6
45998.8
45689
45379.3
45069.5
44759.8
44450
44140.3
43830.5
43520.8
43211
42901.2
42591.5
42281.7
41972
41662.2
41352.5
41042.7
40732.9
40423.2
40113.4
39803.7
39493.9
39184.2
38874.4
38564.7
38254.9
37945.1
37635.4
37325.6
37015.9
36706.1
36396.4
36086.6
35776.8
35467.1
35157.3
34847.6
34537.8
34228.1
33918.3
33608.6
33298.8
32989
32679.3
32369.5
32059.8
31750
31440.3
31130.5
30820.7
30511
30201.2
29891.5
29581.7
29272
28962.2
28652.5
28342.7
28032.9
27723.2
27413.4
27103.7
26793.9
26484.2
26174.4
25864.6
25554.9
25245.1
24935.4
24625.6
24315.9
24006.1
23696.4
23386.6
23076.8
22767.1
22457.3
22147.6
21837.8
21528.1
21218.3
20908.5
20598.8
20289
19979.3
19669.5
19359.8
19050
18740.3
18430.5
18120.7
17811
17501.2
17191.5
16881.7
16572
16262.2
15952.4
15642.7
15332.9
15023.2
14713.4
14403.7
14093.9
13784.2
13474.4
13164.6
12854.9
12545.1
12235.4
11925.6
11615.9
11306.1
10996.3
10686.6
10376.8
10067.1
9757.32
9447.57
9137.81
8828.05
8518.3
8208.54
7898.78
7589.03
7279.27
6969.52
6659.76
6350
6040.25
5730.49
5420.73
5110.98
4801.22
4491.47
4181.71
3871.95
3562.2
3252.44
2942.68
2632.93
2323.17
2013.42
1703.66
1393.9
1084.15
774.391
464.634
154.878
)
;

boundaryField
{
    inlet
    {
        type            darcyGradPressure;
        gradient        uniform 116344;
        Mf              Mf;
        phi             phi;
        value           uniform 273976;
    }
    outlet
    {
        type            fixedValue;
        value           uniform 0;
    }
    emptyWalls
    {
        type            empty;
    }
}


// ************************************************************************* //
