/*--------------------------------*- C++ -*----------------------------------*\
  =========                 |
  \\      /  F ield         | OpenFOAM: The Open Source CFD Toolbox
   \\    /   O peration     | Website:  https://openfoam.org
    \\  /    A nd           | Version:  9
     \\/     M anipulation  |
\*---------------------------------------------------------------------------*/
FoamFile
{
    format      ascii;
    class       volScalarField;
    location    "20000";
    object      kra;
}
// * * * * * * * * * * * * * * * * * * * * * * * * * * * * * * * * * * * * * //

dimensions      [0 0 0 0 0 0 0];

internalField   nonuniform List<scalar> 
1000
(
0.00023679
0.000237772
0.000239169
0.00024052
0.000241886
0.000243257
0.000244638
0.00024603
0.00024744
0.000248856
0.000250282
0.000251712
0.00025312
0.000254534
0.00025586
0.000257218
0.000258391
0.00025963
0.000260612
0.000261649
0.000262447
0.000263239
0.00026388
0.000264521
0.000265325
0.000267324
0.000274341
0.000306248
0.000528619
0.000821042
0.000880454
0.000897845
0.000905999
0.000910988
0.000914513
0.000917242
0.000919461
0.000921327
0.00092288
0.000924147
0.000925141
0.000925933
0.000926599
0.00092723
0.000927858
0.000928451
0.000928962
0.000929265
0.000929317
0.000929291
0.000929222
0.000929218
0.000929331
0.00093012
0.000931448
0.000933149
0.000935223
0.000937216
0.000939105
0.000940605
0.000941563
0.000941985
0.00094206
0.000942044
0.000941961
0.000941545
0.000940078
0.000937932
0.00093531
0.000932351
0.000929219
0.000926019
0.000922855
0.000919753
0.000916737
0.000913761
0.000910794
0.000907782
0.000904728
0.000901642
0.000898561
0.000895498
0.000892447
0.000889396
0.00088633
0.000883238
0.000880113
0.000876953
0.00087376
0.000870539
0.000867297
0.000864041
0.00086078
0.000857521
0.000854271
0.000851035
0.00084782
0.000844627
0.00084146
0.000838321
0.000835212
0.000832134
0.000829087
0.000826071
0.000823087
0.000820134
0.000817212
0.000814322
0.000811462
0.000808633
0.000805835
0.000803067
0.000800328
0.000797619
0.00079494
0.000792289
0.000789668
0.000787074
0.00078451
0.000781972
0.000779463
0.000776981
0.000774525
0.000772096
0.000769693
0.000767316
0.000764964
0.000762636
0.000760333
0.000758055
0.000755802
0.000753573
0.00075137
0.000749192
0.000747039
0.000744912
0.000742808
0.000740727
0.000738667
0.000736627
0.000734603
0.000732595
0.000730601
0.000728622
0.000726657
0.000724707
0.000722774
0.000720858
0.000718961
0.000717083
0.000715224
0.000713384
0.000711563
0.000709757
0.000707964
0.000706181
0.000704403
0.000702629
0.000700858
0.000699094
0.000697341
0.000695609
0.000693909
0.000692256
0.00069066
0.000689134
0.000687688
0.000686327
0.000685054
0.000683868
0.000682767
0.000681743
0.000680788
0.000679891
0.000679038
0.000678215
0.000677405
0.000676592
0.000675755
0.000674875
0.000673932
0.000672906
0.00067178
0.000670537
0.000669167
0.000667662
0.000666022
0.00066425
0.000662356
0.000660354
0.000658264
0.000656106
0.000653905
0.000651684
0.000649468
0.000647276
0.000645128
0.000643037
0.000641017
0.000639072
0.000637208
0.000635425
0.00063372
0.000632088
0.000630523
0.000629018
0.000627565
0.000626155
0.000624781
0.000623434
0.000622108
0.000620797
0.000619496
0.0006182
0.000616907
0.000615615
0.00061432
0.000613024
0.000611724
0.000610422
0.000609118
0.000607811
0.000606504
0.000605197
0.000603891
0.000602587
0.000601286
0.000599989
0.000598696
0.000597409
0.000596127
0.000594852
0.000593584
0.000592323
0.00059107
0.000589824
0.000588587
0.000587357
0.000586136
0.000584923
0.000583718
0.000582522
0.000581333
0.000580154
0.000578982
0.00057782
0.000576665
0.000575519
0.00057438
0.000573252
0.000572129
0.000571016
0.00056991
0.000568814
0.000567723
0.000566643
0.000565568
0.000564504
0.000563445
0.000562397
0.000561354
0.000560321
0.000559296
0.000558279
0.000557269
0.000556268
0.000555274
0.000554288
0.00055331
0.000552339
0.000551374
0.000550416
0.000549464
0.000548519
0.000547579
0.000546644
0.000545716
0.000544792
0.000543875
0.000542962
0.000542055
0.000541154
0.000540258
0.000539367
0.000538481
0.0005376
0.000536723
0.000535849
0.00053498
0.000534113
0.000533249
0.000532389
0.000531533
0.000530682
0.000529838
0.000529001
0.000528176
0.000527363
0.000526566
0.000525787
0.00052503
0.000524297
0.00052359
0.000522912
0.000522265
0.000521648
0.000521064
0.000520511
0.000519989
0.000519496
0.00051903
0.000518588
0.000518165
0.000517757
0.000517359
0.000516965
0.000516569
0.000516165
0.000515745
0.000515304
0.000514833
0.000514328
0.000513782
0.000513191
0.000512549
0.000511854
0.000511104
0.000510298
0.000509437
0.000508524
0.000507562
0.000506554
0.000505508
0.00050443
0.000503326
0.000502204
0.000501071
0.000499935
0.000498803
0.00049768
0.000496572
0.000495484
0.00049442
0.000493382
0.000492372
0.00049139
0.000490438
0.000489515
0.000488619
0.000487749
0.000486903
0.00048608
0.000485275
0.000484488
0.000483716
0.000482955
0.000482206
0.000481464
0.000480729
0.000479999
0.000479272
0.000478547
0.000477824
0.0004771
0.000476377
0.000475654
0.00047493
0.000474204
0.000473478
0.000472752
0.000472025
0.000471297
0.000470569
0.000469842
0.000469115
0.000468389
0.000467664
0.00046694
0.000466218
0.000465498
0.000464781
0.000464065
0.000463353
0.000462643
0.000461936
0.000461232
0.000460532
0.000459835
0.000459141
0.000458451
0.000457764
0.000457081
0.000456402
0.000455726
0.000455054
0.000454386
0.000453721
0.000453061
0.000452404
0.000451751
0.000451102
0.000450456
0.000449815
0.000449177
0.000448543
0.000447913
0.000447287
0.000446665
0.000446047
0.000445432
0.000444822
0.000444215
0.000443612
0.000443013
0.000442418
0.000441827
0.000441239
0.000440655
0.000440074
0.000439497
0.000438924
0.000438354
0.000437787
0.000437223
0.000436662
0.000436104
0.00043555
0.000434998
0.000434449
0.000433903
0.000433359
0.000432818
0.00043228
0.000431744
0.00043121
0.000430679
0.00043015
0.000429622
0.000429097
0.000428574
0.000428054
0.000427535
0.000427019
0.000426507
0.000425997
0.000425491
0.000424989
0.000424492
0.000424001
0.000423517
0.00042304
0.000422573
0.000422114
0.000421666
0.000421229
0.000420804
0.000420392
0.000419995
0.00041961
0.000419242
0.000418885
0.000418546
0.000418218
0.000417907
0.000417605
0.000417318
0.000417038
0.00041677
0.000416506
0.00041625
0.000415994
0.000415741
0.000415483
0.000415222
0.000414953
0.000414675
0.000414383
0.000414076
0.00041375
0.000413405
0.000413038
0.000412647
0.00041223
0.000411787
0.000411317
0.00041082
0.000410295
0.000409745
0.000409169
0.000408569
0.000407948
0.000407307
0.00040665
0.000405978
0.000405294
0.000404602
0.000403905
0.000403205
0.000402505
0.000401808
0.000401115
0.000400429
0.000399753
0.000399086
0.00039843
0.000397787
0.000397156
0.000396538
0.000395934
0.000395342
0.000394762
0.000394194
0.000393638
0.000393091
0.000392555
0.000392027
0.000391507
0.000390994
0.000390487
0.000389985
0.000389488
0.000388994
0.000388504
0.000388015
0.000387529
0.000387044
0.00038656
0.000386077
0.000385594
0.000385111
0.000384629
0.000384146
0.000383664
0.000383181
0.000382699
0.000382216
0.000381734
0.000381252
0.000380769
0.000380288
0.000379807
0.000379327
0.000378847
0.000378368
0.00037789
0.000377414
0.000376938
0.000376465
0.000375992
0.000375521
0.000375051
0.000374584
0.000374118
0.000373654
0.000373191
0.000372731
0.000372273
0.000371816
0.000371362
0.000370909
0.000370459
0.000370011
0.000369565
0.000369121
0.000368679
0.000368239
0.000367801
0.000367366
0.000366933
0.000366502
0.000366073
0.000365646
0.000365221
0.000364799
0.000364378
0.00036396
0.000363544
0.00036313
0.000362718
0.000362308
0.0003619
0.000361494
0.000361091
0.000360689
0.000360289
0.000359891
0.000359495
0.0003591
0.000358708
0.000358317
0.000357928
0.000357541
0.000357155
0.000356771
0.000356388
0.000356007
0.000355628
0.000355249
0.000354872
0.000354497
0.000354123
0.00035375
0.000353378
0.000353008
0.000352639
0.000352272
0.000351906
0.000351541
0.000351178
0.000350817
0.000350458
0.0003501
0.000349746
0.000349393
0.000349044
0.000348698
0.000348356
0.000348017
0.000347683
0.000347354
0.000347029
0.000346711
0.000346398
0.000346091
0.000345791
0.000345497
0.000345211
0.000344931
0.000344659
0.000344394
0.000344136
0.000343886
0.000343642
0.000343405
0.000343174
0.000342948
0.000342727
0.000342511
0.000342298
0.000342088
0.000341879
0.000341671
0.000341463
0.000341253
0.000341041
0.000340824
0.000340602
0.000340374
0.000340139
0.000339895
0.000339641
0.000339376
0.000339099
0.00033881
0.000338507
0.000338191
0.00033786
0.000337514
0.000337153
0.000336778
0.000336387
0.000335983
0.000335565
0.000335133
0.00033469
0.000334235
0.00033377
0.000333296
0.000332815
0.000332327
0.000331834
0.000331337
0.000330837
0.000330337
0.000329836
0.000329337
0.000328839
0.000328345
0.000327854
0.000327368
0.000326887
0.000326412
0.000325943
0.00032548
0.000325023
0.000324573
0.000324129
0.000323691
0.00032326
0.000322834
0.000322413
0.000321998
0.000321588
0.000321181
0.000320779
0.000320381
0.000319986
0.000319594
0.000319204
0.000318817
0.00031843
0.000318047
0.000317663
0.000317282
0.0003169
0.000316521
0.00031614
0.00031576
0.000315381
0.000315001
0.000314623
0.000314242
0.000313863
0.000313483
0.000313104
0.000312724
0.000312343
0.000311964
0.000311583
0.000311204
0.000310824
0.000310444
0.000310064
0.000309685
0.000309306
0.000308927
0.000308549
0.000308171
0.000307794
0.000307417
0.000307042
0.000306666
0.000306292
0.000305919
0.000305546
0.000305174
0.000304804
0.000304434
0.000304066
0.000303699
0.000303333
0.000302969
0.000302606
0.000302245
0.000301886
0.000301528
0.000301172
0.000300819
0.000300468
0.00030012
0.000299775
0.000299432
0.000299093
0.000298759
0.000298428
0.000298102
0.000297781
0.000297466
0.000297157
0.000296855
0.00029656
0.000296274
0.000295997
0.000295729
0.000295472
0.000295227
0.000294992
0.000294771
0.000294563
0.000294367
0.000294187
0.00029402
0.000293866
0.000293729
0.000293604
0.000293493
0.000293396
0.00029331
0.000293237
0.000293176
0.000293123
0.000293081
0.000293049
0.000293021
0.000293003
0.000292991
0.000292982
0.00029298
0.00029298
0.000292981
0.00029298
0.000292974
0.000292962
0.000292923
0.000292834
0.000292692
0.000292373
0.000291841
0.000290842
0.000289135
0.000286276
0.000281767
0.000275382
0.000267473
0.000259512
0.000253121
0.000249062
0.000246919
0.000245879
0.000245442
0.000245235
0.00024518
0.000245185
0.00024521
0.00024526
0.000245319
0.000245387
0.000245458
0.000245535
0.000245613
0.000245695
0.000245779
0.000245866
0.000245954
0.000246044
0.000246135
0.000246227
0.00024632
0.000246414
0.000246507
0.0002466
0.000246692
0.000246783
0.000246872
0.00024696
0.000247044
0.000247126
0.000247204
0.000247278
0.000247347
0.000247413
0.000247472
0.000247527
0.000247576
0.000247618
0.000247654
0.000247683
0.000247703
0.000247717
0.000247723
0.000247724
0.000247723
0.00024772
0.0002477
0.000247672
0.000247638
0.000247597
0.000247552
0.000247501
0.000247445
0.000247385
0.00024732
0.000247252
0.000247181
0.000247107
0.00024703
0.000246952
0.000246873
0.000246793
0.000246713
0.000246633
0.000246553
0.000246475
0.000246398
0.000246322
0.000246248
0.000246176
0.000246107
0.00024604
0.000245976
0.000245914
0.000245855
0.000245799
0.000245746
0.000245695
0.000245647
0.000245601
0.000245558
0.000245518
0.000245479
0.000245443
0.000245409
0.000245376
0.000245346
0.000245316
0.000245289
0.000245262
0.000245237
0.000245212
0.000245188
0.000245165
0.000245143
0.000245121
0.0002451
0.000245079
0.000245058
0.000245037
0.000245016
0.000244996
0.000244975
0.000244954
0.000244934
0.000244913
0.000244892
0.000244871
0.00024485
0.000244829
0.000244807
0.000244786
0.000244765
0.000244743
0.000244722
0.0002447
0.000244679
0.000244657
0.000244636
0.000244615
0.000244594
0.000244573
0.000244552
0.000244532
0.000244511
0.000244491
0.000244472
0.000244452
0.000244433
0.000244415
0.000244396
0.000244379
0.000244361
0.000244344
0.000244328
0.000244312
0.000244297
0.000244282
0.000244267
0.000244253
0.00024424
0.000244228
0.000244216
0.000244204
0.000244193
0.000244183
0.000244173
0.000244164
0.000244156
0.000244148
0.000244141
0.000244135
0.000244129
0.000244124
0.00024412
0.000244116
0.000244113
0.00024411
0.000244108
0.000244107
0.000244107
0.000244107
0.000244108
0.000244108
0.00024411
0.000244111
0.000244116
0.000244117
0.000244124
0.000244126
0.000244135
0.000244138
0.000244149
0.000244153
0.000244164
0.000244169
0.000244182
0.000244187
0.000244203
0.000244208
0.000244226
0.000244232
0.000244251
0.000244258
0.00024428
0.000244287
0.000244312
0.00024432
0.000244348
0.000244356
0.000244387
0.000244396
0.000244453
)
;

boundaryField
{
    inlet
    {
        type            calculated;
        value           uniform 0.000236304;
    }
    outlet
    {
        type            calculated;
        value           uniform 0.000244436;
    }
    emptyWalls
    {
        type            empty;
    }
}


// ************************************************************************* //
