/*--------------------------------*- C++ -*----------------------------------*\
  =========                 |
  \\      /  F ield         | OpenFOAM: The Open Source CFD Toolbox
   \\    /   O peration     | Website:  https://openfoam.org
    \\  /    A nd           | Version:  9
     \\/     M anipulation  |
\*---------------------------------------------------------------------------*/
FoamFile
{
    format      ascii;
    class       surfaceScalarField;
    location    "20000";
    object      phib;
}
// * * * * * * * * * * * * * * * * * * * * * * * * * * * * * * * * * * * * * //

dimensions      [0 2 0 0 0 0 0];

internalField   nonuniform List<scalar> 
999
(
1.1362e-09
1.13624e-09
1.13623e-09
1.13626e-09
1.13627e-09
1.13628e-09
1.13631e-09
1.13634e-09
1.13636e-09
1.1364e-09
1.13643e-09
1.13647e-09
1.1365e-09
1.13657e-09
1.1366e-09
1.13668e-09
1.13671e-09
1.13676e-09
1.13681e-09
1.13683e-09
1.13688e-09
1.13689e-09
1.13693e-09
1.13696e-09
1.13703e-09
1.13727e-09
1.1382e-09
1.1435e-09
1.16959e-09
1.17588e-09
1.17747e-09
1.17815e-09
1.17855e-09
1.17883e-09
1.17904e-09
1.1792e-09
1.17933e-09
1.17944e-09
1.17954e-09
1.17963e-09
1.17973e-09
1.17982e-09
1.17988e-09
1.17992e-09
1.17993e-09
1.17993e-09
1.17994e-09
1.17997e-09
1.18001e-09
1.18006e-09
1.18008e-09
1.18008e-09
1.17999e-09
1.17973e-09
1.17939e-09
1.17897e-09
1.17851e-09
1.17805e-09
1.17763e-09
1.17728e-09
1.17703e-09
1.17685e-09
1.1767e-09
1.17655e-09
1.17641e-09
1.17641e-09
1.17655e-09
1.17679e-09
1.17708e-09
1.1774e-09
1.17771e-09
1.178e-09
1.17822e-09
1.17838e-09
1.17845e-09
1.17843e-09
1.17831e-09
1.17809e-09
1.17779e-09
1.17742e-09
1.177e-09
1.17655e-09
1.17608e-09
1.1756e-09
1.17511e-09
1.17462e-09
1.17414e-09
1.17366e-09
1.17318e-09
1.17272e-09
1.17226e-09
1.1718e-09
1.17135e-09
1.1709e-09
1.17045e-09
1.17e-09
1.16955e-09
1.1691e-09
1.16865e-09
1.1682e-09
1.16774e-09
1.16728e-09
1.16683e-09
1.16636e-09
1.1659e-09
1.16544e-09
1.16497e-09
1.1645e-09
1.16403e-09
1.16355e-09
1.16307e-09
1.1626e-09
1.16211e-09
1.16163e-09
1.16114e-09
1.16066e-09
1.16017e-09
1.15967e-09
1.15918e-09
1.15868e-09
1.15818e-09
1.15768e-09
1.15717e-09
1.15667e-09
1.15616e-09
1.15565e-09
1.15513e-09
1.15462e-09
1.1541e-09
1.15358e-09
1.15306e-09
1.15254e-09
1.15201e-09
1.15148e-09
1.15095e-09
1.15041e-09
1.14988e-09
1.14934e-09
1.1488e-09
1.14825e-09
1.14771e-09
1.14717e-09
1.14662e-09
1.14608e-09
1.14553e-09
1.14499e-09
1.14444e-09
1.14389e-09
1.14334e-09
1.14278e-09
1.14223e-09
1.14167e-09
1.14111e-09
1.14055e-09
1.13999e-09
1.13943e-09
1.13888e-09
1.13832e-09
1.13776e-09
1.13721e-09
1.13665e-09
1.13609e-09
1.13552e-09
1.13494e-09
1.13435e-09
1.13374e-09
1.13311e-09
1.13247e-09
1.1318e-09
1.13111e-09
1.1304e-09
1.12968e-09
1.12894e-09
1.12819e-09
1.12744e-09
1.12667e-09
1.12591e-09
1.12516e-09
1.12441e-09
1.12368e-09
1.12296e-09
1.12228e-09
1.12162e-09
1.121e-09
1.12041e-09
1.11985e-09
1.11934e-09
1.11886e-09
1.11841e-09
1.11799e-09
1.11759e-09
1.11721e-09
1.11684e-09
1.11647e-09
1.1161e-09
1.11573e-09
1.11534e-09
1.11494e-09
1.11452e-09
1.11409e-09
1.11363e-09
1.11316e-09
1.11267e-09
1.11216e-09
1.11163e-09
1.11109e-09
1.11054e-09
1.10998e-09
1.10942e-09
1.10885e-09
1.10827e-09
1.1077e-09
1.10712e-09
1.10654e-09
1.10597e-09
1.10539e-09
1.10482e-09
1.10425e-09
1.10368e-09
1.10312e-09
1.10255e-09
1.10199e-09
1.10143e-09
1.10087e-09
1.10031e-09
1.09975e-09
1.09919e-09
1.09863e-09
1.09808e-09
1.09752e-09
1.09696e-09
1.0964e-09
1.09584e-09
1.09528e-09
1.09472e-09
1.09415e-09
1.09359e-09
1.09302e-09
1.09246e-09
1.09189e-09
1.09132e-09
1.09075e-09
1.09018e-09
1.0896e-09
1.08903e-09
1.08845e-09
1.08788e-09
1.0873e-09
1.08672e-09
1.08614e-09
1.08555e-09
1.08497e-09
1.08438e-09
1.0838e-09
1.08321e-09
1.08262e-09
1.08203e-09
1.08144e-09
1.08084e-09
1.08025e-09
1.07965e-09
1.07905e-09
1.07845e-09
1.07785e-09
1.07725e-09
1.07664e-09
1.07604e-09
1.07543e-09
1.07482e-09
1.07421e-09
1.0736e-09
1.07299e-09
1.07238e-09
1.07176e-09
1.07115e-09
1.07053e-09
1.06991e-09
1.06929e-09
1.06867e-09
1.06805e-09
1.06743e-09
1.06681e-09
1.06619e-09
1.06556e-09
1.06494e-09
1.06431e-09
1.06369e-09
1.06306e-09
1.06243e-09
1.0618e-09
1.06118e-09
1.06055e-09
1.05992e-09
1.05929e-09
1.05866e-09
1.05802e-09
1.05738e-09
1.05674e-09
1.0561e-09
1.05544e-09
1.05479e-09
1.05412e-09
1.05345e-09
1.05276e-09
1.05207e-09
1.05137e-09
1.05066e-09
1.04994e-09
1.04922e-09
1.04848e-09
1.04774e-09
1.04699e-09
1.04623e-09
1.04547e-09
1.04471e-09
1.04395e-09
1.04319e-09
1.04244e-09
1.04169e-09
1.04095e-09
1.04021e-09
1.0395e-09
1.03879e-09
1.0381e-09
1.03742e-09
1.03677e-09
1.03613e-09
1.03551e-09
1.0349e-09
1.03431e-09
1.03374e-09
1.03318e-09
1.03263e-09
1.03209e-09
1.03156e-09
1.03103e-09
1.03051e-09
1.02999e-09
1.02946e-09
1.02893e-09
1.0284e-09
1.02786e-09
1.02731e-09
1.02676e-09
1.02619e-09
1.02562e-09
1.02504e-09
1.02445e-09
1.02385e-09
1.02324e-09
1.02263e-09
1.02201e-09
1.02139e-09
1.02076e-09
1.02012e-09
1.01948e-09
1.01884e-09
1.0182e-09
1.01756e-09
1.01691e-09
1.01627e-09
1.01562e-09
1.01497e-09
1.01433e-09
1.01368e-09
1.01304e-09
1.01239e-09
1.01174e-09
1.0111e-09
1.01046e-09
1.00981e-09
1.00917e-09
1.00852e-09
1.00788e-09
1.00724e-09
1.00659e-09
1.00595e-09
1.0053e-09
1.00466e-09
1.00401e-09
1.00336e-09
1.00272e-09
1.00207e-09
1.00142e-09
1.00077e-09
1.00012e-09
9.99467e-10
9.98814e-10
9.98159e-10
9.97504e-10
9.96847e-10
9.9619e-10
9.95531e-10
9.9487e-10
9.94209e-10
9.93546e-10
9.92882e-10
9.92217e-10
9.9155e-10
9.90882e-10
9.90213e-10
9.89543e-10
9.88871e-10
9.88198e-10
9.87523e-10
9.86847e-10
9.8617e-10
9.85491e-10
9.84811e-10
9.8413e-10
9.83447e-10
9.82763e-10
9.82077e-10
9.8139e-10
9.80702e-10
9.80012e-10
9.79321e-10
9.78628e-10
9.77934e-10
9.77239e-10
9.76543e-10
9.75845e-10
9.75146e-10
9.74446e-10
9.73744e-10
9.73042e-10
9.72338e-10
9.71633e-10
9.70927e-10
9.7022e-10
9.69511e-10
9.68802e-10
9.68091e-10
9.6738e-10
9.66667e-10
9.65954e-10
9.65239e-10
9.64524e-10
9.63807e-10
9.6309e-10
9.62371e-10
9.61652e-10
9.60931e-10
9.60209e-10
9.59485e-10
9.5876e-10
9.58033e-10
9.57303e-10
9.56572e-10
9.55837e-10
9.551e-10
9.54359e-10
9.53614e-10
9.52865e-10
9.52112e-10
9.51354e-10
9.50592e-10
9.49824e-10
9.49051e-10
9.48273e-10
9.47489e-10
9.467e-10
9.45906e-10
9.45107e-10
9.44303e-10
9.43496e-10
9.42684e-10
9.41869e-10
9.41052e-10
9.40233e-10
9.39413e-10
9.38593e-10
9.37774e-10
9.36956e-10
9.36141e-10
9.35329e-10
9.34522e-10
9.33719e-10
9.32923e-10
9.32134e-10
9.31352e-10
9.30578e-10
9.29812e-10
9.29055e-10
9.28307e-10
9.27567e-10
9.26837e-10
9.26115e-10
9.254e-10
9.24693e-10
9.23993e-10
9.23298e-10
9.22608e-10
9.21922e-10
9.21239e-10
9.20558e-10
9.19878e-10
9.19198e-10
9.18517e-10
9.17834e-10
9.17148e-10
9.16459e-10
9.15767e-10
9.1507e-10
9.14368e-10
9.13662e-10
9.12951e-10
9.12234e-10
9.11513e-10
9.10786e-10
9.10055e-10
9.09319e-10
9.08578e-10
9.07834e-10
9.07085e-10
9.06333e-10
9.05578e-10
9.0482e-10
9.04059e-10
9.03296e-10
9.0253e-10
9.01763e-10
9.00994e-10
9.00224e-10
8.99452e-10
8.98679e-10
8.97905e-10
8.9713e-10
8.96355e-10
8.95578e-10
8.94801e-10
8.94022e-10
8.93243e-10
8.92464e-10
8.91683e-10
8.90902e-10
8.9012e-10
8.89336e-10
8.88552e-10
8.87767e-10
8.86981e-10
8.86194e-10
8.85405e-10
8.84615e-10
8.83824e-10
8.83032e-10
8.82239e-10
8.81444e-10
8.80647e-10
8.79849e-10
8.7905e-10
8.78249e-10
8.77446e-10
8.76642e-10
8.75836e-10
8.75029e-10
8.7422e-10
8.73409e-10
8.72596e-10
8.71782e-10
8.70966e-10
8.70148e-10
8.69329e-10
8.68507e-10
8.67684e-10
8.66859e-10
8.66033e-10
8.65204e-10
8.64373e-10
8.63541e-10
8.62707e-10
8.61871e-10
8.61033e-10
8.60193e-10
8.59351e-10
8.58508e-10
8.57662e-10
8.56815e-10
8.55965e-10
8.55114e-10
8.54261e-10
8.53406e-10
8.52549e-10
8.5169e-10
8.50829e-10
8.49966e-10
8.49101e-10
8.48234e-10
8.47366e-10
8.46495e-10
8.45623e-10
8.44749e-10
8.43873e-10
8.42994e-10
8.42114e-10
8.41233e-10
8.40349e-10
8.39463e-10
8.38576e-10
8.37686e-10
8.36795e-10
8.35902e-10
8.35007e-10
8.3411e-10
8.33211e-10
8.3231e-10
8.31407e-10
8.30502e-10
8.29595e-10
8.28686e-10
8.27774e-10
8.2686e-10
8.25944e-10
8.25025e-10
8.24103e-10
8.23179e-10
8.22251e-10
8.21321e-10
8.20387e-10
8.1945e-10
8.18509e-10
8.17565e-10
8.16617e-10
8.15664e-10
8.14708e-10
8.13748e-10
8.12783e-10
8.11814e-10
8.10841e-10
8.09864e-10
8.08882e-10
8.07895e-10
8.06905e-10
8.0591e-10
8.04912e-10
8.0391e-10
8.02904e-10
8.01895e-10
8.00884e-10
7.99869e-10
7.98852e-10
7.97833e-10
7.96812e-10
7.9579e-10
7.94767e-10
7.93744e-10
7.9272e-10
7.91697e-10
7.90675e-10
7.89654e-10
7.88634e-10
7.87616e-10
7.866e-10
7.85586e-10
7.84575e-10
7.83566e-10
7.8256e-10
7.81557e-10
7.80557e-10
7.79559e-10
7.78565e-10
7.77572e-10
7.76582e-10
7.75594e-10
7.74607e-10
7.73621e-10
7.72636e-10
7.71652e-10
7.70667e-10
7.69681e-10
7.68695e-10
7.67707e-10
7.66716e-10
7.65723e-10
7.64728e-10
7.63728e-10
7.62725e-10
7.61718e-10
7.60707e-10
7.5969e-10
7.5867e-10
7.57644e-10
7.56612e-10
7.55576e-10
7.54534e-10
7.53487e-10
7.52435e-10
7.51377e-10
7.50315e-10
7.49247e-10
7.48173e-10
7.47095e-10
7.46012e-10
7.44924e-10
7.43831e-10
7.42734e-10
7.41632e-10
7.40526e-10
7.39415e-10
7.383e-10
7.37181e-10
7.36058e-10
7.3493e-10
7.33799e-10
7.32663e-10
7.31524e-10
7.30381e-10
7.29233e-10
7.28082e-10
7.26927e-10
7.25767e-10
7.24604e-10
7.23437e-10
7.22266e-10
7.2109e-10
7.19911e-10
7.18727e-10
7.17539e-10
7.16347e-10
7.15151e-10
7.1395e-10
7.12745e-10
7.11535e-10
7.10321e-10
7.09103e-10
7.0788e-10
7.06652e-10
7.0542e-10
7.04184e-10
7.02943e-10
7.01697e-10
7.00447e-10
6.99192e-10
6.97933e-10
6.9667e-10
6.95402e-10
6.9413e-10
6.92854e-10
6.91574e-10
6.9029e-10
6.89003e-10
6.87712e-10
6.86419e-10
6.85123e-10
6.83825e-10
6.82525e-10
6.81224e-10
6.79924e-10
6.78624e-10
6.77325e-10
6.76028e-10
6.74735e-10
6.73447e-10
6.72166e-10
6.70894e-10
6.69632e-10
6.68383e-10
6.67149e-10
6.65933e-10
6.64738e-10
6.63567e-10
6.62423e-10
6.6131e-10
6.6023e-10
6.59188e-10
6.58186e-10
6.57229e-10
6.56319e-10
6.55459e-10
6.5465e-10
6.53895e-10
6.53194e-10
6.52549e-10
6.51958e-10
6.51423e-10
6.50941e-10
6.50509e-10
6.50126e-10
6.49788e-10
6.49493e-10
6.49238e-10
6.49019e-10
6.48831e-10
6.48672e-10
6.48536e-10
6.48421e-10
6.48323e-10
6.48236e-10
6.48155e-10
6.48071e-10
6.47969e-10
6.47828e-10
6.47609e-10
6.47246e-10
6.46612e-10
6.45497e-10
6.43517e-10
6.4001e-10
6.33855e-10
6.23226e-10
6.0543e-10
5.77122e-10
5.35628e-10
4.81667e-10
4.21718e-10
3.66152e-10
3.23064e-10
2.94295e-10
2.77044e-10
2.67383e-10
2.62183e-10
2.59441e-10
2.58011e-10
2.57267e-10
2.56879e-10
2.56674e-10
2.56564e-10
2.56501e-10
2.56464e-10
2.56439e-10
2.5642e-10
2.56404e-10
2.5639e-10
2.56376e-10
2.56363e-10
2.5635e-10
2.56336e-10
2.56323e-10
2.56309e-10
2.56296e-10
2.56282e-10
2.56269e-10
2.56256e-10
2.56243e-10
2.56231e-10
2.56218e-10
2.56207e-10
2.56195e-10
2.56184e-10
2.56174e-10
2.56165e-10
2.56156e-10
2.56148e-10
2.56141e-10
2.56134e-10
2.56129e-10
2.56125e-10
2.56122e-10
2.56119e-10
2.56118e-10
2.56117e-10
2.56116e-10
2.56117e-10
2.5612e-10
2.56123e-10
2.56128e-10
2.56133e-10
2.56139e-10
2.56146e-10
2.56153e-10
2.56161e-10
2.56169e-10
2.56179e-10
2.56188e-10
2.56198e-10
2.56208e-10
2.56218e-10
2.56229e-10
2.5624e-10
2.5625e-10
2.56261e-10
2.56272e-10
2.56282e-10
2.56292e-10
2.56302e-10
2.56312e-10
2.56321e-10
2.56331e-10
2.56339e-10
2.56348e-10
2.56356e-10
2.56364e-10
2.56371e-10
2.56378e-10
2.56385e-10
2.56391e-10
2.56397e-10
2.56403e-10
2.56408e-10
2.56413e-10
2.56418e-10
2.56423e-10
2.56427e-10
2.56431e-10
2.56435e-10
2.56439e-10
2.56442e-10
2.56446e-10
2.56449e-10
2.56453e-10
2.56456e-10
2.56459e-10
2.56462e-10
2.56465e-10
2.56468e-10
2.56471e-10
2.56474e-10
2.56477e-10
2.5648e-10
2.56483e-10
2.56486e-10
2.56489e-10
2.56492e-10
2.56496e-10
2.56499e-10
2.56502e-10
2.56505e-10
2.56508e-10
2.56512e-10
2.56515e-10
2.56518e-10
2.56521e-10
2.56525e-10
2.56528e-10
2.56531e-10
2.56534e-10
2.56538e-10
2.56541e-10
2.56544e-10
2.56547e-10
2.5655e-10
2.56553e-10
2.56556e-10
2.56559e-10
2.56562e-10
2.56565e-10
2.56568e-10
2.56571e-10
2.56573e-10
2.56576e-10
2.56579e-10
2.56581e-10
2.56583e-10
2.56586e-10
2.56588e-10
2.5659e-10
2.56592e-10
2.56594e-10
2.56596e-10
2.56597e-10
2.56599e-10
2.56601e-10
2.56602e-10
2.56603e-10
2.56605e-10
2.56606e-10
2.56607e-10
2.56608e-10
2.56609e-10
2.5661e-10
2.5661e-10
2.56611e-10
2.56611e-10
2.56612e-10
2.56612e-10
2.56612e-10
2.56612e-10
2.56612e-10
2.56612e-10
2.56612e-10
2.56612e-10
2.56612e-10
2.56611e-10
2.56611e-10
2.5661e-10
2.5661e-10
2.56609e-10
2.56608e-10
2.56607e-10
2.56606e-10
2.56605e-10
2.56604e-10
2.56602e-10
2.56601e-10
2.56599e-10
2.56598e-10
2.56596e-10
2.56594e-10
2.56592e-10
2.5659e-10
2.56588e-10
2.56586e-10
2.56583e-10
2.56581e-10
2.56578e-10
2.56575e-10
2.56572e-10
2.56569e-10
2.56566e-10
)
;

boundaryField
{
    inlet
    {
        type            calculated;
        value           uniform -1.13622e-09;
    }
    outlet
    {
        type            calculated;
        value           uniform 2.56562e-10;
    }
    emptyWalls
    {
        type            empty;
        value           nonuniform List<scalar> 0();
    }
}


// ************************************************************************* //
