/*--------------------------------*- C++ -*----------------------------------*\
  =========                 |
  \\      /  F ield         | OpenFOAM: The Open Source CFD Toolbox
   \\    /   O peration     | Website:  https://openfoam.org
    \\  /    A nd           | Version:  9
     \\/     M anipulation  |
\*---------------------------------------------------------------------------*/
FoamFile
{
    format      ascii;
    class       surfaceScalarField;
    location    "10250";
    object      phia;
}
// * * * * * * * * * * * * * * * * * * * * * * * * * * * * * * * * * * * * * //

dimensions      [0 2 0 0 0 0 0];

internalField   nonuniform List<scalar> 
999
(
2.74876e-10
2.74897e-10
2.74754e-10
2.74727e-10
2.74546e-10
2.74432e-10
2.74265e-10
2.74116e-10
2.73966e-10
2.73822e-10
2.73607e-10
2.72989e-10
2.70762e-10
2.5902e-10
2.21498e-10
2.1377e-10
2.115e-10
2.10358e-10
2.09606e-10
2.09028e-10
2.08561e-10
2.08157e-10
2.07797e-10
2.07493e-10
2.07213e-10
2.06979e-10
2.068e-10
2.06648e-10
2.06513e-10
2.064e-10
2.06296e-10
2.06197e-10
2.06102e-10
2.0604e-10
2.06067e-10
2.06176e-10
2.06375e-10
2.0667e-10
2.07026e-10
2.07403e-10
2.07752e-10
2.08062e-10
2.08333e-10
2.0856e-10
2.08731e-10
2.08825e-10
2.08826e-10
2.08719e-10
2.08501e-10
2.08179e-10
2.07769e-10
2.07295e-10
2.06787e-10
2.06273e-10
2.05781e-10
2.05333e-10
2.04944e-10
2.04625e-10
2.04378e-10
2.042e-10
2.04085e-10
2.04022e-10
2.04e-10
2.04007e-10
2.04032e-10
2.04066e-10
2.04099e-10
2.04127e-10
2.04145e-10
2.0415e-10
2.04142e-10
2.04121e-10
2.04087e-10
2.04042e-10
2.03988e-10
2.03927e-10
2.03859e-10
2.03788e-10
2.03713e-10
2.03637e-10
2.03559e-10
2.03481e-10
2.03403e-10
2.03326e-10
2.0325e-10
2.03174e-10
2.03101e-10
2.03028e-10
2.02958e-10
2.02888e-10
2.0282e-10
2.02754e-10
2.02689e-10
2.02625e-10
2.02562e-10
2.02501e-10
2.02441e-10
2.02381e-10
2.02323e-10
2.02266e-10
2.02211e-10
2.02156e-10
2.02102e-10
2.02049e-10
2.01998e-10
2.01947e-10
2.01897e-10
2.01848e-10
2.01799e-10
2.01752e-10
2.01705e-10
2.01659e-10
2.01613e-10
2.01569e-10
2.01525e-10
2.01482e-10
2.0144e-10
2.01398e-10
2.01358e-10
2.01318e-10
2.01279e-10
2.01241e-10
2.01204e-10
2.01168e-10
2.01133e-10
2.01098e-10
2.01065e-10
2.01032e-10
2.01001e-10
2.0097e-10
2.00941e-10
2.00912e-10
2.00884e-10
2.00857e-10
2.0083e-10
2.00804e-10
2.00779e-10
2.00754e-10
2.00728e-10
2.00703e-10
2.00677e-10
2.00651e-10
2.00624e-10
2.00597e-10
2.00571e-10
2.00545e-10
2.0052e-10
2.00496e-10
2.00473e-10
2.00452e-10
2.00431e-10
2.00413e-10
2.00396e-10
2.0038e-10
2.00366e-10
2.00354e-10
2.00347e-10
2.00343e-10
2.00346e-10
2.00357e-10
2.00377e-10
2.00408e-10
2.00452e-10
2.0051e-10
2.00582e-10
2.0067e-10
2.00773e-10
2.0089e-10
2.01021e-10
2.01165e-10
2.01318e-10
2.0148e-10
2.01645e-10
2.01812e-10
2.01976e-10
2.02133e-10
2.02278e-10
2.02407e-10
2.02516e-10
2.026e-10
2.02656e-10
2.02679e-10
2.02669e-10
2.02622e-10
2.02539e-10
2.02421e-10
2.02269e-10
2.02086e-10
2.01878e-10
2.01648e-10
2.01401e-10
2.01145e-10
2.00883e-10
2.00623e-10
2.00368e-10
2.00124e-10
1.99894e-10
1.9968e-10
1.99485e-10
1.99309e-10
1.99154e-10
1.99018e-10
1.989e-10
1.988e-10
1.98715e-10
1.98644e-10
1.98585e-10
1.98534e-10
1.98491e-10
1.98454e-10
1.9842e-10
1.98388e-10
1.98357e-10
1.98325e-10
1.98292e-10
1.98257e-10
1.98219e-10
1.98179e-10
1.98135e-10
1.98088e-10
1.98038e-10
1.97985e-10
1.97928e-10
1.9787e-10
1.97809e-10
1.97745e-10
1.9768e-10
1.97613e-10
1.97545e-10
1.97476e-10
1.97406e-10
1.97336e-10
1.97265e-10
1.97194e-10
1.97122e-10
1.97051e-10
1.9698e-10
1.9691e-10
1.9684e-10
1.96771e-10
1.96702e-10
1.96634e-10
1.96567e-10
1.96501e-10
1.96437e-10
1.96373e-10
1.9631e-10
1.96248e-10
1.96188e-10
1.96128e-10
1.9607e-10
1.96013e-10
1.95957e-10
1.95901e-10
1.95847e-10
1.95793e-10
1.95741e-10
1.95689e-10
1.95638e-10
1.95587e-10
1.95537e-10
1.95487e-10
1.95438e-10
1.9539e-10
1.95341e-10
1.95294e-10
1.95246e-10
1.952e-10
1.95153e-10
1.95107e-10
1.95061e-10
1.95016e-10
1.94971e-10
1.94926e-10
1.94883e-10
1.94839e-10
1.94796e-10
1.94753e-10
1.94712e-10
1.9467e-10
1.9463e-10
1.94589e-10
1.9455e-10
1.94511e-10
1.94472e-10
1.94435e-10
1.94397e-10
1.94361e-10
1.94325e-10
1.94289e-10
1.94254e-10
1.94219e-10
1.94185e-10
1.94152e-10
1.94119e-10
1.94086e-10
1.94053e-10
1.94021e-10
1.93989e-10
1.93957e-10
1.93926e-10
1.93894e-10
1.93864e-10
1.93833e-10
1.93803e-10
1.93773e-10
1.93744e-10
1.93715e-10
1.93687e-10
1.93659e-10
1.93632e-10
1.93607e-10
1.93582e-10
1.93558e-10
1.93536e-10
1.93516e-10
1.93497e-10
1.93481e-10
1.93468e-10
1.93457e-10
1.9345e-10
1.93447e-10
1.93449e-10
1.93455e-10
1.93466e-10
1.93483e-10
1.93506e-10
1.93534e-10
1.93569e-10
1.93611e-10
1.93659e-10
1.93713e-10
1.93773e-10
1.93838e-10
1.93909e-10
1.93984e-10
1.94063e-10
1.94145e-10
1.94228e-10
1.94312e-10
1.94395e-10
1.94476e-10
1.94554e-10
1.94626e-10
1.94692e-10
1.9475e-10
1.94799e-10
1.94836e-10
1.94861e-10
1.94873e-10
1.9487e-10
1.94851e-10
1.94817e-10
1.94765e-10
1.94698e-10
1.94614e-10
1.94514e-10
1.94399e-10
1.9427e-10
1.94128e-10
1.93975e-10
1.93812e-10
1.93641e-10
1.93465e-10
1.93284e-10
1.93101e-10
1.92918e-10
1.92736e-10
1.92557e-10
1.92382e-10
1.92213e-10
1.9205e-10
1.91894e-10
1.91746e-10
1.91605e-10
1.91474e-10
1.9135e-10
1.91234e-10
1.91126e-10
1.91026e-10
1.90932e-10
1.90845e-10
1.90764e-10
1.90689e-10
1.90619e-10
1.90553e-10
1.90492e-10
1.90434e-10
1.90379e-10
1.90328e-10
1.9028e-10
1.90235e-10
1.90192e-10
1.90151e-10
1.90113e-10
1.90077e-10
1.90043e-10
1.90011e-10
1.8998e-10
1.89949e-10
1.89919e-10
1.89886e-10
1.89849e-10
1.89802e-10
1.89739e-10
1.89647e-10
1.89502e-10
1.89273e-10
1.88917e-10
1.88392e-10
1.877e-10
1.8693e-10
1.86242e-10
1.85756e-10
1.85471e-10
1.85319e-10
1.85235e-10
1.85184e-10
1.85149e-10
1.85121e-10
1.85097e-10
1.85075e-10
1.85055e-10
1.85035e-10
1.85016e-10
1.84997e-10
1.84979e-10
1.84962e-10
1.84945e-10
1.84929e-10
1.84913e-10
1.84898e-10
1.84884e-10
1.8487e-10
1.84857e-10
1.84845e-10
1.84833e-10
1.84822e-10
1.84812e-10
1.84802e-10
1.84793e-10
1.84784e-10
1.84776e-10
1.84769e-10
1.84762e-10
1.84756e-10
1.8475e-10
1.84745e-10
1.84741e-10
1.84737e-10
1.84733e-10
1.8473e-10
1.84728e-10
1.84726e-10
1.84724e-10
1.84723e-10
1.84722e-10
1.84722e-10
1.84722e-10
1.84722e-10
1.84723e-10
1.84724e-10
1.84726e-10
1.84728e-10
1.84731e-10
1.84734e-10
1.84737e-10
1.8474e-10
1.84744e-10
1.84749e-10
1.84753e-10
1.84758e-10
1.84763e-10
1.84769e-10
1.84775e-10
1.84781e-10
1.84788e-10
1.84795e-10
1.84802e-10
1.8481e-10
1.84817e-10
1.84826e-10
1.84834e-10
1.84843e-10
1.84852e-10
1.84861e-10
1.84871e-10
1.84881e-10
1.84891e-10
1.84902e-10
1.84912e-10
1.84923e-10
1.84935e-10
1.84946e-10
1.84958e-10
1.84971e-10
1.84983e-10
1.84996e-10
1.85009e-10
1.85023e-10
1.85038e-10
1.85052e-10
1.85068e-10
1.85084e-10
1.85101e-10
1.85118e-10
1.85137e-10
1.85156e-10
1.85177e-10
1.85198e-10
1.85221e-10
1.85246e-10
1.85272e-10
1.853e-10
1.8533e-10
1.85362e-10
1.85396e-10
1.85433e-10
1.85472e-10
1.85514e-10
1.85558e-10
1.85606e-10
1.85657e-10
1.85711e-10
1.85768e-10
1.85829e-10
1.85893e-10
1.8596e-10
1.86031e-10
1.86104e-10
1.86181e-10
1.86261e-10
1.86343e-10
1.86427e-10
1.86514e-10
1.86602e-10
1.86691e-10
1.86781e-10
1.86872e-10
1.86962e-10
1.87052e-10
1.8714e-10
1.87226e-10
1.87309e-10
1.87389e-10
1.87464e-10
1.87535e-10
1.87601e-10
1.8766e-10
1.87712e-10
1.87757e-10
1.87794e-10
1.87823e-10
1.87843e-10
1.87853e-10
1.87857e-10
1.87857e-10
1.87855e-10
1.87841e-10
1.87806e-10
1.87763e-10
1.87712e-10
1.87654e-10
1.87588e-10
1.87517e-10
1.87439e-10
1.87357e-10
1.87271e-10
1.87181e-10
1.8709e-10
1.86997e-10
1.86903e-10
1.8681e-10
1.86718e-10
1.86628e-10
1.8654e-10
1.86455e-10
1.86373e-10
1.86295e-10
1.86221e-10
1.86152e-10
1.86087e-10
1.86027e-10
1.85971e-10
1.8592e-10
1.85873e-10
1.85831e-10
1.85793e-10
1.85758e-10
1.85728e-10
1.857e-10
1.85675e-10
1.85654e-10
1.85634e-10
1.85617e-10
1.85601e-10
1.85587e-10
1.85575e-10
1.85563e-10
1.85552e-10
1.85541e-10
1.85531e-10
1.85522e-10
1.85512e-10
1.85502e-10
1.85492e-10
1.85482e-10
1.85471e-10
1.8546e-10
1.85448e-10
1.85436e-10
1.85424e-10
1.85411e-10
1.85397e-10
1.85383e-10
1.85369e-10
1.85354e-10
1.85339e-10
1.85323e-10
1.85307e-10
1.8529e-10
1.85274e-10
1.85257e-10
1.8524e-10
1.85223e-10
1.85205e-10
1.85188e-10
1.85171e-10
1.85153e-10
1.85136e-10
1.85119e-10
1.85102e-10
1.85085e-10
1.85069e-10
1.85052e-10
1.85036e-10
1.85021e-10
1.85005e-10
1.8499e-10
1.84976e-10
1.84962e-10
1.84948e-10
1.84935e-10
1.84922e-10
1.8491e-10
1.84898e-10
1.84887e-10
1.84877e-10
1.84867e-10
1.84857e-10
1.84849e-10
1.8484e-10
1.84833e-10
1.84826e-10
1.84819e-10
1.84814e-10
1.84808e-10
1.84804e-10
1.848e-10
1.84796e-10
1.84793e-10
1.84791e-10
1.84789e-10
1.84787e-10
1.84786e-10
1.84786e-10
1.84786e-10
1.84786e-10
1.84786e-10
1.84787e-10
1.84789e-10
1.84791e-10
1.84793e-10
1.84796e-10
1.84799e-10
1.84803e-10
1.84806e-10
1.8481e-10
1.84815e-10
1.84819e-10
1.84824e-10
1.8483e-10
1.84835e-10
1.84841e-10
1.84847e-10
1.84853e-10
1.8486e-10
1.84867e-10
1.84874e-10
1.84881e-10
1.84889e-10
1.84897e-10
1.84905e-10
1.84913e-10
1.84922e-10
1.84931e-10
1.8494e-10
1.8495e-10
1.8496e-10
1.8497e-10
1.84981e-10
1.84992e-10
1.85004e-10
1.85016e-10
1.85028e-10
1.85041e-10
1.85055e-10
1.85069e-10
1.85084e-10
1.85099e-10
1.85116e-10
1.85133e-10
1.85151e-10
1.8517e-10
1.8519e-10
1.85211e-10
1.85234e-10
1.85258e-10
1.85283e-10
1.8531e-10
1.85338e-10
1.85369e-10
1.85401e-10
1.85435e-10
1.85471e-10
1.85509e-10
1.8555e-10
1.85593e-10
1.85638e-10
1.85686e-10
1.85736e-10
1.85789e-10
1.85844e-10
1.85901e-10
1.85961e-10
1.86024e-10
1.86089e-10
1.86155e-10
1.86224e-10
1.86295e-10
1.86368e-10
1.86441e-10
1.86516e-10
1.86592e-10
1.86669e-10
1.86745e-10
1.86821e-10
1.86897e-10
1.86972e-10
1.87046e-10
1.87117e-10
1.87186e-10
1.87253e-10
1.87316e-10
1.87376e-10
1.87431e-10
1.87482e-10
1.87527e-10
1.87568e-10
1.87602e-10
1.87631e-10
1.87653e-10
1.87668e-10
1.87677e-10
1.8768e-10
1.8768e-10
1.87679e-10
1.8767e-10
1.87642e-10
1.87611e-10
1.87573e-10
1.87528e-10
1.87479e-10
1.87424e-10
1.87365e-10
1.87301e-10
1.87234e-10
1.87165e-10
1.87093e-10
1.87019e-10
1.86944e-10
1.86869e-10
1.86795e-10
1.8672e-10
1.86647e-10
1.86576e-10
1.86506e-10
1.86439e-10
1.86374e-10
1.86312e-10
1.86253e-10
1.86198e-10
1.86145e-10
1.86096e-10
1.86051e-10
1.86008e-10
1.85968e-10
1.85932e-10
1.85898e-10
1.85868e-10
1.85839e-10
1.85813e-10
1.85789e-10
1.85768e-10
1.85747e-10
1.85729e-10
1.85712e-10
1.85695e-10
1.8568e-10
1.85666e-10
1.85652e-10
1.85639e-10
1.85626e-10
1.85613e-10
1.856e-10
1.85587e-10
1.85574e-10
1.85561e-10
1.85548e-10
1.85535e-10
1.85521e-10
1.85506e-10
1.85492e-10
1.85477e-10
1.85461e-10
1.85446e-10
1.8543e-10
1.85413e-10
1.85396e-10
1.85379e-10
1.85362e-10
1.85344e-10
1.85326e-10
1.85308e-10
1.8529e-10
1.85271e-10
1.85252e-10
1.85234e-10
1.85215e-10
1.85196e-10
1.85177e-10
1.85158e-10
1.8514e-10
1.85121e-10
1.85103e-10
1.85084e-10
1.85066e-10
1.85048e-10
1.8503e-10
1.85013e-10
1.84996e-10
1.84979e-10
1.84962e-10
1.84946e-10
1.8493e-10
1.84915e-10
1.849e-10
1.84885e-10
1.84871e-10
1.84857e-10
1.84844e-10
1.84832e-10
1.8482e-10
1.84808e-10
1.84797e-10
1.84787e-10
1.84777e-10
1.84768e-10
1.8476e-10
1.84752e-10
1.84744e-10
1.84738e-10
1.84732e-10
1.84726e-10
1.84722e-10
1.84717e-10
1.84714e-10
1.84711e-10
1.84709e-10
1.84707e-10
1.84706e-10
1.84706e-10
1.84706e-10
1.84706e-10
1.84706e-10
1.84708e-10
1.8471e-10
1.84713e-10
1.84717e-10
1.84721e-10
1.84725e-10
1.8473e-10
1.84736e-10
1.84742e-10
1.84748e-10
1.84755e-10
1.84763e-10
1.8477e-10
1.84779e-10
1.84787e-10
1.84796e-10
1.84806e-10
1.84816e-10
1.84826e-10
1.84837e-10
1.84848e-10
1.8486e-10
1.84872e-10
1.84885e-10
1.84898e-10
1.84912e-10
1.84926e-10
1.84941e-10
1.84957e-10
1.84973e-10
1.8499e-10
1.85008e-10
1.85026e-10
1.85045e-10
1.85066e-10
1.85087e-10
1.85109e-10
1.85132e-10
1.85157e-10
1.85183e-10
1.8521e-10
1.85238e-10
1.85268e-10
1.85299e-10
1.85332e-10
1.85367e-10
1.85403e-10
1.85441e-10
1.85481e-10
1.85523e-10
1.85566e-10
1.85612e-10
1.8566e-10
1.85709e-10
1.8576e-10
1.85814e-10
1.85869e-10
1.85926e-10
1.85985e-10
1.86045e-10
1.86107e-10
1.86171e-10
1.86235e-10
1.86301e-10
1.86368e-10
1.86435e-10
1.86503e-10
1.86572e-10
1.8664e-10
1.86708e-10
1.86775e-10
1.86841e-10
1.86907e-10
1.8697e-10
1.87032e-10
1.87092e-10
1.87149e-10
1.87204e-10
1.87255e-10
1.87302e-10
1.87346e-10
1.87386e-10
1.87421e-10
1.87451e-10
1.87477e-10
1.87497e-10
1.87512e-10
1.87522e-10
1.87526e-10
1.87527e-10
1.87527e-10
1.87522e-10
1.8751e-10
1.87485e-10
1.87458e-10
1.87424e-10
1.87387e-10
1.87344e-10
1.87298e-10
1.87248e-10
1.87195e-10
1.87139e-10
1.87081e-10
1.8702e-10
1.86959e-10
1.86896e-10
1.86833e-10
1.86769e-10
1.86706e-10
1.86642e-10
1.86581e-10
1.86519e-10
1.86461e-10
1.86402e-10
)
;

boundaryField
{
    inlet
    {
        type            calculated;
        value           uniform -2.74882e-10;
    }
    outlet
    {
        type            calculated;
        value           uniform 1.86348e-10;
    }
    emptyWalls
    {
        type            empty;
        value           nonuniform List<scalar> 0();
    }
}


// ************************************************************************* //
