/*--------------------------------*- C++ -*----------------------------------*\
  =========                 |
  \\      /  F ield         | OpenFOAM: The Open Source CFD Toolbox
   \\    /   O peration     | Website:  https://openfoam.org
    \\  /    A nd           | Version:  9
     \\/     M anipulation  |
\*---------------------------------------------------------------------------*/
FoamFile
{
    format      ascii;
    class       volScalarField;
    location    "3600";
    object      kra;
}
// * * * * * * * * * * * * * * * * * * * * * * * * * * * * * * * * * * * * * //

dimensions      [0 0 0 0 0 0 0];

internalField   nonuniform List<scalar> 
100
(
4.0496e-05
3.00614e-05
3.24766e-05
3.11238e-05
3.10345e-05
3.06775e-05
3.05123e-05
3.02852e-05
3.00867e-05
2.98917e-05
2.9713e-05
2.954e-05
2.93825e-05
2.92287e-05
2.90886e-05
2.8951e-05
2.88245e-05
2.86993e-05
2.85816e-05
2.8469e-05
2.83565e-05
2.8254e-05
2.81481e-05
2.80482e-05
2.79401e-05
2.78258e-05
2.76794e-05
2.75073e-05
2.72979e-05
2.7412e-05
2.74378e-05
2.74833e-05
2.75024e-05
2.75313e-05
2.75596e-05
2.75877e-05
2.7616e-05
2.76432e-05
2.76701e-05
2.76956e-05
2.77203e-05
2.77433e-05
2.77664e-05
2.77885e-05
2.78102e-05
2.78306e-05
2.78504e-05
2.78687e-05
2.78863e-05
2.79036e-05
2.79202e-05
2.79361e-05
2.79515e-05
2.79661e-05
2.79793e-05
2.79922e-05
2.80049e-05
2.80173e-05
2.80289e-05
2.80404e-05
2.80507e-05
2.80604e-05
2.80692e-05
2.80781e-05
2.80861e-05
2.80938e-05
2.81004e-05
2.81067e-05
2.81116e-05
2.81166e-05
2.81213e-05
2.81256e-05
2.81287e-05
2.81314e-05
2.81329e-05
2.81343e-05
2.81356e-05
2.81375e-05
2.81385e-05
2.8139e-05
2.81382e-05
2.81378e-05
2.81361e-05
2.81354e-05
2.81329e-05
2.81315e-05
2.81275e-05
2.81253e-05
2.81207e-05
2.81172e-05
2.81156e-05
2.81043e-05
2.81113e-05
2.80911e-05
2.81027e-05
2.80798e-05
2.80922e-05
2.80713e-05
2.80848e-05
7.50358e-05
)
;

boundaryField
{
    inlet
    {
        type            calculated;
        value           uniform 1.20046e-05;
    }
    outlet
    {
        type            calculated;
        value           uniform 8.2395e-06;
    }
    emptyWalls
    {
        type            empty;
    }
}


// ************************************************************************* //
