/*--------------------------------*- C++ -*----------------------------------*\
  =========                 |
  \\      /  F ield         | OpenFOAM: The Open Source CFD Toolbox
   \\    /   O peration     | Website:  https://openfoam.org
    \\  /    A nd           | Version:  9
     \\/     M anipulation  |
\*---------------------------------------------------------------------------*/
FoamFile
{
    format      ascii;
    class       volScalarField;
    location    "3600";
    object      p;
}
// * * * * * * * * * * * * * * * * * * * * * * * * * * * * * * * * * * * * * //

dimensions      [0 0 0 0 0 0 0];

internalField   nonuniform List<scalar> 
100
(
6.08536e+06
6.07733e+06
6.06653e+06
6.05653e+06
6.0461e+06
6.03563e+06
6.02505e+06
6.0144e+06
6.00368e+06
5.9929e+06
5.98206e+06
5.97116e+06
5.96021e+06
5.94921e+06
5.93816e+06
5.92707e+06
5.91594e+06
5.90476e+06
5.89355e+06
5.8823e+06
5.87102e+06
5.8597e+06
5.84835e+06
5.83696e+06
5.82555e+06
5.8141e+06
5.80261e+06
5.79107e+06
5.77948e+06
5.76786e+06
5.75631e+06
5.74479e+06
5.7333e+06
5.72184e+06
5.7104e+06
5.69899e+06
5.68761e+06
5.67626e+06
5.66493e+06
5.65363e+06
5.64235e+06
5.6311e+06
5.61988e+06
5.60868e+06
5.59751e+06
5.58636e+06
5.57523e+06
5.56413e+06
5.55306e+06
5.542e+06
5.53098e+06
5.51997e+06
5.50899e+06
5.49803e+06
5.4871e+06
5.47619e+06
5.4653e+06
5.45444e+06
5.44359e+06
5.43278e+06
5.42198e+06
5.4112e+06
5.40045e+06
5.38972e+06
5.37901e+06
5.36833e+06
5.35766e+06
5.34702e+06
5.3364e+06
5.3258e+06
5.31522e+06
5.30466e+06
5.29413e+06
5.28361e+06
5.27312e+06
5.26265e+06
5.25219e+06
5.24176e+06
5.23135e+06
5.22096e+06
5.21059e+06
5.20024e+06
5.18991e+06
5.1796e+06
5.16931e+06
5.15904e+06
5.14879e+06
5.13856e+06
5.12834e+06
5.11814e+06
5.10797e+06
5.09781e+06
5.08766e+06
5.07754e+06
5.06742e+06
5.05733e+06
5.04725e+06
5.03718e+06
5.02713e+06
5.01709e+06
)
;

boundaryField
{
    inlet
    {
        type            darcyGradPressure;
        gradient        uniform 3.95091e+06;
        Mf              Mf;
        phi             phi;
        value           uniform 6.09326e+06;
    }
    outlet
    {
        type            fixedValue;
        value           uniform 5e+06;
    }
    emptyWalls
    {
        type            empty;
    }
}


// ************************************************************************* //
