/*--------------------------------*- C++ -*----------------------------------*\
  =========                 |
  \\      /  F ield         | OpenFOAM: The Open Source CFD Toolbox
   \\    /   O peration     | Website:  https://openfoam.org
    \\  /    A nd           | Version:  9
     \\/     M anipulation  |
\*---------------------------------------------------------------------------*/
FoamFile
{
    format      ascii;
    class       surfaceScalarField;
    location    "3600";
    object      phia;
}
// * * * * * * * * * * * * * * * * * * * * * * * * * * * * * * * * * * * * * //

dimensions      [0 2 0 0 0 0 0];

internalField   nonuniform List<scalar> 
99
(
1.42058e-08
1.41988e-08
1.4191e-08
1.41768e-08
1.41574e-08
1.4156e-08
1.41503e-08
1.41426e-08
1.41342e-08
1.41248e-08
1.41148e-08
1.41046e-08
1.40941e-08
1.40833e-08
1.40726e-08
1.40616e-08
1.4051e-08
1.40388e-08
1.40287e-08
1.40163e-08
1.40055e-08
1.39944e-08
1.39825e-08
1.397e-08
1.39562e-08
1.39395e-08
1.3918e-08
1.38923e-08
1.38652e-08
1.38469e-08
1.38304e-08
1.38094e-08
1.37897e-08
1.37709e-08
1.3752e-08
1.37333e-08
1.37147e-08
1.3696e-08
1.36772e-08
1.36581e-08
1.36386e-08
1.36189e-08
1.35994e-08
1.35798e-08
1.356e-08
1.35399e-08
1.35194e-08
1.34984e-08
1.34775e-08
1.34565e-08
1.34354e-08
1.34141e-08
1.33927e-08
1.33709e-08
1.33487e-08
1.33266e-08
1.33046e-08
1.32825e-08
1.32604e-08
1.32381e-08
1.32154e-08
1.31924e-08
1.31694e-08
1.31464e-08
1.31231e-08
1.30997e-08
1.3076e-08
1.3052e-08
1.30277e-08
1.30036e-08
1.29796e-08
1.29552e-08
1.29305e-08
1.29055e-08
1.28803e-08
1.28553e-08
1.28306e-08
1.28062e-08
1.27815e-08
1.27566e-08
1.27316e-08
1.27066e-08
1.26817e-08
1.2657e-08
1.26323e-08
1.26076e-08
1.25828e-08
1.25582e-08
1.25344e-08
1.25104e-08
1.24887e-08
1.24639e-08
1.24427e-08
1.24215e-08
1.23997e-08
1.23784e-08
1.23594e-08
1.23412e-08
1.23242e-08
)
;

boundaryField
{
    inlet
    {
        type            calculated;
        value           uniform -1.42126e-08;
    }
    outlet
    {
        type            calculated;
        value           uniform 1.23137e-08;
    }
    emptyWalls
    {
        type            empty;
        value           nonuniform List<scalar> 0();
    }
}


// ************************************************************************* //
