/*--------------------------------*- C++ -*----------------------------------*\
  =========                 |
  \\      /  F ield         | OpenFOAM: The Open Source CFD Toolbox
   \\    /   O peration     | Website:  https://openfoam.org
    \\  /    A nd           | Version:  9
     \\/     M anipulation  |
\*---------------------------------------------------------------------------*/
FoamFile
{
    format      ascii;
    class       surfaceScalarField;
    location    "3600";
    object      phib;
}
// * * * * * * * * * * * * * * * * * * * * * * * * * * * * * * * * * * * * * //

dimensions      [0 2 0 0 0 0 0];

internalField   nonuniform List<scalar> 
99
(
6.09088e-09
6.09058e-09
6.09025e-09
6.09576e-09
6.10598e-09
6.098e-09
6.09404e-09
6.09167e-09
6.08962e-09
6.08834e-09
6.08749e-09
6.08658e-09
6.08594e-09
6.08552e-09
6.08482e-09
6.0845e-09
6.08363e-09
6.08427e-09
6.08278e-09
6.08343e-09
6.08244e-09
6.08164e-09
6.08139e-09
6.08105e-09
6.08053e-09
6.07978e-09
6.07887e-09
6.07756e-09
6.07869e-09
6.07719e-09
6.07483e-09
6.07777e-09
6.07951e-09
6.08063e-09
6.08175e-09
6.08261e-09
6.08325e-09
6.08379e-09
6.08435e-09
6.085e-09
6.08594e-09
6.08688e-09
6.08748e-09
6.08801e-09
6.08859e-09
6.08929e-09
6.0902e-09
6.09142e-09
6.09247e-09
6.09337e-09
6.09426e-09
6.0951e-09
6.09593e-09
6.09711e-09
6.09842e-09
6.09948e-09
6.10027e-09
6.10103e-09
6.10168e-09
6.1024e-09
6.10335e-09
6.10445e-09
6.10538e-09
6.10621e-09
6.10714e-09
6.10814e-09
6.10926e-09
6.11062e-09
6.11207e-09
6.11326e-09
6.11429e-09
6.11555e-09
6.11701e-09
6.1187e-09
6.12057e-09
6.12213e-09
6.12322e-09
6.12407e-09
6.12511e-09
6.12641e-09
6.12782e-09
6.12919e-09
6.13045e-09
6.13161e-09
6.13282e-09
6.13421e-09
6.13579e-09
6.13744e-09
6.1387e-09
6.13979e-09
6.14083e-09
6.14215e-09
6.14358e-09
6.14513e-09
6.14674e-09
6.1482e-09
6.14928e-09
6.15029e-09
6.15124e-09
)
;

boundaryField
{
    inlet
    {
        type            calculated;
        value           uniform -6.09112e-09;
    }
    outlet
    {
        type            calculated;
        value           uniform 6.15119e-09;
    }
    emptyWalls
    {
        type            empty;
        value           nonuniform List<scalar> 0();
    }
}


// ************************************************************************* //
