/*--------------------------------*- C++ -*----------------------------------*\
  =========                 |
  \\      /  F ield         | OpenFOAM: The Open Source CFD Toolbox
   \\    /   O peration     | Website:  https://openfoam.org
    \\  /    A nd           | Version:  9
     \\/     M anipulation  |
\*---------------------------------------------------------------------------*/
FoamFile
{
    format      ascii;
    class       surfaceScalarField;
    location    "3600";
    object      phic;
}
// * * * * * * * * * * * * * * * * * * * * * * * * * * * * * * * * * * * * * //

dimensions      [0 2 0 0 0 0 0];

internalField   nonuniform List<scalar> 
99
(
7.03527e-12
1.43519e-11
2.25015e-11
3.11695e-11
4.03218e-11
4.97036e-11
5.942e-11
6.94849e-11
7.98814e-11
9.0559e-11
1.01453e-10
1.12511e-10
1.23687e-10
1.34948e-10
1.46278e-10
1.57672e-10
1.69143e-10
1.80672e-10
1.92298e-10
2.0399e-10
2.15783e-10
2.27694e-10
2.39854e-10
2.52646e-10
2.66968e-10
2.84424e-10
3.06832e-10
3.33848e-10
3.59879e-10
3.79676e-10
3.98507e-10
4.16593e-10
4.34481e-10
4.52241e-10
4.70008e-10
4.87861e-10
5.05827e-10
5.23934e-10
5.42193e-10
5.60599e-10
5.79169e-10
5.9791e-10
6.16815e-10
6.35893e-10
6.55145e-10
6.7456e-10
6.9414e-10
7.13875e-10
7.33785e-10
7.53864e-10
7.74098e-10
7.94497e-10
8.15059e-10
8.35767e-10
8.56627e-10
8.77644e-10
8.98827e-10
9.20155e-10
9.41632e-10
9.63258e-10
9.85024e-10
1.00693e-09
1.02898e-09
1.05116e-09
1.07348e-09
1.09591e-09
1.11848e-09
1.14116e-09
1.16394e-09
1.18687e-09
1.20989e-09
1.23302e-09
1.25622e-09
1.27952e-09
1.30289e-09
1.32633e-09
1.34987e-09
1.37345e-09
1.39708e-09
1.4207e-09
1.44437e-09
1.46799e-09
1.49162e-09
1.51516e-09
1.53865e-09
1.56194e-09
1.58513e-09
1.60806e-09
1.63062e-09
1.65351e-09
1.67421e-09
1.69766e-09
1.71748e-09
1.73713e-09
1.75731e-09
1.77714e-09
1.7951e-09
1.81228e-09
1.82833e-09
)
;

boundaryField
{
    inlet
    {
        type            calculated;
        value           uniform 0;
    }
    outlet
    {
        type            calculated;
        value           uniform 1.83889e-09;
    }
    emptyWalls
    {
        type            empty;
        value           nonuniform List<scalar> 0();
    }
}


// ************************************************************************* //
