/*--------------------------------*- C++ -*----------------------------------*\
  =========                 |
  \\      /  F ield         | OpenFOAM: The Open Source CFD Toolbox
   \\    /   O peration     | Website:  https://openfoam.org
    \\  /    A nd           | Version:  9
     \\/     M anipulation  |
\*---------------------------------------------------------------------------*/
FoamFile
{
    format      ascii;
    class       volVectorField;
    location    "3600";
    object      Ua;
}
// * * * * * * * * * * * * * * * * * * * * * * * * * * * * * * * * * * * * * //

dimensions      [0 0 0 0 0 0 0];

internalField   nonuniform List<vector> 
100
(
(0 0 8.95235e-06)
(0 0 1.13018e-05)
(0 0 1.12959e-05)
(0 0 1.12872e-05)
(0 0 1.12738e-05)
(0 0 1.12656e-05)
(0 0 1.12627e-05)
(0 0 1.12574e-05)
(0 0 1.1251e-05)
(0 0 1.12439e-05)
(0 0 1.12362e-05)
(0 0 1.12282e-05)
(0 0 1.12199e-05)
(0 0 1.12114e-05)
(0 0 1.12029e-05)
(0 0 1.11942e-05)
(0 0 1.11856e-05)
(0 0 1.11766e-05)
(0 0 1.11677e-05)
(0 0 1.11587e-05)
(0 0 1.11495e-05)
(0 0 1.11408e-05)
(0 0 1.11317e-05)
(0 0 1.1122e-05)
(0 0 1.11115e-05)
(0 0 1.10994e-05)
(0 0 1.10842e-05)
(0 0 1.10654e-05)
(0 0 1.10444e-05)
(0 0 1.10263e-05)
(0 0 1.10124e-05)
(0 0 1.09975e-05)
(0 0 1.09813e-05)
(0 0 1.0966e-05)
(0 0 1.0951e-05)
(0 0 1.0936e-05)
(0 0 1.09212e-05)
(0 0 1.09064e-05)
(0 0 1.08915e-05)
(0 0 1.08764e-05)
(0 0 1.0861e-05)
(0 0 1.08454e-05)
(0 0 1.08299e-05)
(0 0 1.08143e-05)
(0 0 1.07986e-05)
(0 0 1.07827e-05)
(0 0 1.07665e-05)
(0 0 1.07501e-05)
(0 0 1.07334e-05)
(0 0 1.07167e-05)
(0 0 1.06999e-05)
(0 0 1.06831e-05)
(0 0 1.06661e-05)
(0 0 1.06489e-05)
(0 0 1.06314e-05)
(0 0 1.06138e-05)
(0 0 1.05962e-05)
(0 0 1.05787e-05)
(0 0 1.05611e-05)
(0 0 1.05434e-05)
(0 0 1.05255e-05)
(0 0 1.05073e-05)
(0 0 1.0489e-05)
(0 0 1.04707e-05)
(0 0 1.04523e-05)
(0 0 1.04337e-05)
(0 0 1.0415e-05)
(0 0 1.0396e-05)
(0 0 1.03768e-05)
(0 0 1.03575e-05)
(0 0 1.03384e-05)
(0 0 1.03191e-05)
(0 0 1.02996e-05)
(0 0 1.02798e-05)
(0 0 1.02598e-05)
(0 0 1.02399e-05)
(0 0 1.02201e-05)
(0 0 1.02006e-05)
(0 0 1.0181e-05)
(0 0 1.01613e-05)
(0 0 1.01414e-05)
(0 0 1.01215e-05)
(0 0 1.01017e-05)
(0 0 1.00819e-05)
(0 0 1.00623e-05)
(0 0 1.00426e-05)
(0 0 1.00229e-05)
(0 0 1.00033e-05)
(0 0 9.98405e-06)
(0 0 9.96503e-06)
(0 0 9.94684e-06)
(0 0 9.92833e-06)
(0 0 9.91002e-06)
(0 0 9.89313e-06)
(0 0 9.87603e-06)
(0 0 9.85888e-06)
(0 0 9.84284e-06)
(0 0 9.82803e-06)
(0 0 9.81403e-06)
(0 0 9.80308e-06)
)
;

boundaryField
{
    inlet
    {
        type            fixedValue;
        value           uniform (0 0 1.131e-05);
    }
    outlet
    {
        type            zeroGradient;
    }
    emptyWalls
    {
        type            empty;
    }
}


// ************************************************************************* //
