/*--------------------------------*- C++ -*----------------------------------*\
  =========                 |
  \\      /  F ield         | OpenFOAM: The Open Source CFD Toolbox
   \\    /   O peration     | Website:  https://openfoam.org
    \\  /    A nd           | Version:  9
     \\/     M anipulation  |
\*---------------------------------------------------------------------------*/
FoamFile
{
    format      ascii;
    class       volVectorField;
    location    "3600";
    object      Ub;
}
// * * * * * * * * * * * * * * * * * * * * * * * * * * * * * * * * * * * * * //

dimensions      [0 0 0 0 0 0 0];

internalField   nonuniform List<vector> 
100
(
(0 0 7.19653e-06)
(0 0 4.84685e-06)
(0 0 4.8466e-06)
(0 0 4.84866e-06)
(0 0 4.85492e-06)
(0 0 4.85581e-06)
(0 0 4.85106e-06)
(0 0 4.84854e-06)
(0 0 4.84678e-06)
(0 0 4.84546e-06)
(0 0 4.84461e-06)
(0 0 4.84391e-06)
(0 0 4.84329e-06)
(0 0 4.84287e-06)
(0 0 4.84242e-06)
(0 0 4.84202e-06)
(0 0 4.84154e-06)
(0 0 4.84145e-06)
(0 0 4.84112e-06)
(0 0 4.84078e-06)
(0 0 4.84065e-06)
(0 0 4.83994e-06)
(0 0 4.83952e-06)
(0 0 4.83928e-06)
(0 0 4.83894e-06)
(0 0 4.83843e-06)
(0 0 4.83777e-06)
(0 0 4.83689e-06)
(0 0 4.83682e-06)
(0 0 4.83667e-06)
(0 0 4.83514e-06)
(0 0 4.83537e-06)
(0 0 4.83722e-06)
(0 0 4.83836e-06)
(0 0 4.83926e-06)
(0 0 4.84005e-06)
(0 0 4.84064e-06)
(0 0 4.84111e-06)
(0 0 4.84155e-06)
(0 0 4.84203e-06)
(0 0 4.84266e-06)
(0 0 4.84341e-06)
(0 0 4.84402e-06)
(0 0 4.84447e-06)
(0 0 4.84492e-06)
(0 0 4.84542e-06)
(0 0 4.84606e-06)
(0 0 4.84691e-06)
(0 0 4.84781e-06)
(0 0 4.84859e-06)
(0 0 4.8493e-06)
(0 0 4.84999e-06)
(0 0 4.85066e-06)
(0 0 4.85145e-06)
(0 0 4.85244e-06)
(0 0 4.85339e-06)
(0 0 4.85413e-06)
(0 0 4.85475e-06)
(0 0 4.85531e-06)
(0 0 4.85585e-06)
(0 0 4.85651e-06)
(0 0 4.85733e-06)
(0 0 4.85814e-06)
(0 0 4.85884e-06)
(0 0 4.85954e-06)
(0 0 4.8603e-06)
(0 0 4.86115e-06)
(0 0 4.86213e-06)
(0 0 4.86325e-06)
(0 0 4.86431e-06)
(0 0 4.86519e-06)
(0 0 4.8661e-06)
(0 0 4.86718e-06)
(0 0 4.86843e-06)
(0 0 4.86985e-06)
(0 0 4.87122e-06)
(0 0 4.87227e-06)
(0 0 4.87304e-06)
(0 0 4.8738e-06)
(0 0 4.87473e-06)
(0 0 4.8758e-06)
(0 0 4.87691e-06)
(0 0 4.87796e-06)
(0 0 4.87892e-06)
(0 0 4.87987e-06)
(0 0 4.8809e-06)
(0 0 4.88208e-06)
(0 0 4.88336e-06)
(0 0 4.88452e-06)
(0 0 4.88545e-06)
(0 0 4.8863e-06)
(0 0 4.88724e-06)
(0 0 4.88834e-06)
(0 0 4.88952e-06)
(0 0 4.89078e-06)
(0 0 4.892e-06)
(0 0 4.89301e-06)
(0 0 4.89384e-06)
(0 0 4.89462e-06)
(0 0 4.89498e-06)
)
;

boundaryField
{
    inlet
    {
        type            fixedValue;
        value           uniform (0 0 4.84716e-06);
    }
    outlet
    {
        type            zeroGradient;
    }
    emptyWalls
    {
        type            empty;
    }
}


// ************************************************************************* //
