/*--------------------------------*- C++ -*----------------------------------*\
  =========                 |
  \\      /  F ield         | OpenFOAM: The Open Source CFD Toolbox
   \\    /   O peration     | Website:  https://openfoam.org
    \\  /    A nd           | Version:  9
     \\/     M anipulation  |
\*---------------------------------------------------------------------------*/
FoamFile
{
    format      ascii;
    class       volVectorField;
    location    "3600";
    object      Uc;
}
// * * * * * * * * * * * * * * * * * * * * * * * * * * * * * * * * * * * * * //

dimensions      [0 0 0 0 0 0 0];

internalField   nonuniform List<vector> 
100
(
(0 0 8.31236e-09)
(0 0 8.50968e-09)
(0 0 1.46635e-08)
(0 0 2.1355e-08)
(0 0 2.84455e-08)
(0 0 3.582e-08)
(0 0 4.34189e-08)
(0 0 5.12896e-08)
(0 0 5.9431e-08)
(0 0 6.78161e-08)
(0 0 7.6399e-08)
(0 0 8.51335e-08)
(0 0 9.39801e-08)
(0 0 1.02908e-07)
(0 0 1.11896e-07)
(0 0 1.20938e-07)
(0 0 1.30036e-07)
(0 0 1.39187e-07)
(0 0 1.484e-07)
(0 0 1.57678e-07)
(0 0 1.67022e-07)
(0 0 1.76454e-07)
(0 0 1.86032e-07)
(0 0 1.95959e-07)
(0 0 2.06748e-07)
(0 0 2.19392e-07)
(0 0 2.35253e-07)
(0 0 2.54919e-07)
(0 0 2.76025e-07)
(0 0 2.9426e-07)
(0 0 3.09629e-07)
(0 0 3.24318e-07)
(0 0 3.38632e-07)
(0 0 3.52815e-07)
(0 0 3.66951e-07)
(0 0 3.81124e-07)
(0 0 3.95376e-07)
(0 0 4.09729e-07)
(0 0 4.24199e-07)
(0 0 4.38787e-07)
(0 0 4.53499e-07)
(0 0 4.68345e-07)
(0 0 4.83324e-07)
(0 0 4.98437e-07)
(0 0 5.13687e-07)
(0 0 5.29072e-07)
(0 0 5.44588e-07)
(0 0 5.60231e-07)
(0 0 5.76006e-07)
(0 0 5.91917e-07)
(0 0 6.07957e-07)
(0 0 6.24124e-07)
(0 0 6.40422e-07)
(0 0 6.56843e-07)
(0 0 6.73382e-07)
(0 0 6.90045e-07)
(0 0 7.06836e-07)
(0 0 7.2375e-07)
(0 0 7.40782e-07)
(0 0 7.57932e-07)
(0 0 7.75197e-07)
(0 0 7.92572e-07)
(0 0 8.10061e-07)
(0 0 8.27661e-07)
(0 0 8.45367e-07)
(0 0 8.63172e-07)
(0 0 8.81079e-07)
(0 0 8.99081e-07)
(0 0 9.17172e-07)
(0 0 9.35357e-07)
(0 0 9.53639e-07)
(0 0 9.72002e-07)
(0 0 9.90436e-07)
(0 0 1.00894e-06)
(0 0 1.02751e-06)
(0 0 1.04613e-06)
(0 0 1.06483e-06)
(0 0 1.08357e-06)
(0 0 1.10236e-06)
(0 0 1.12116e-06)
(0 0 1.13998e-06)
(0 0 1.15879e-06)
(0 0 1.17759e-06)
(0 0 1.19636e-06)
(0 0 1.21507e-06)
(0 0 1.23368e-06)
(0 0 1.25218e-06)
(0 0 1.27053e-06)
(0 0 1.28863e-06)
(0 0 1.30671e-06)
(0 0 1.32406e-06)
(0 0 1.34162e-06)
(0 0 1.35884e-06)
(0 0 1.37455e-06)
(0 0 1.39039e-06)
(0 0 1.40632e-06)
(0 0 1.42135e-06)
(0 0 1.43533e-06)
(0 0 1.44855e-06)
(0 0 1.45914e-06)
)
;

boundaryField
{
    inlet
    {
        type            fixedValue;
        value           uniform (0 0 0);
    }
    outlet
    {
        type            zeroGradient;
    }
    emptyWalls
    {
        type            empty;
    }
}


// ************************************************************************* //
