/*--------------------------------*- C++ -*----------------------------------*\
  =========                 |
  \\      /  F ield         | OpenFOAM: The Open Source CFD Toolbox
   \\    /   O peration     | Website:  https://openfoam.org
    \\  /    A nd           | Version:  9
     \\/     M anipulation  |
\*---------------------------------------------------------------------------*/
FoamFile
{
    format      ascii;
    class       volVectorField;
    location    "27450";
    object      Ub;
}
// * * * * * * * * * * * * * * * * * * * * * * * * * * * * * * * * * * * * * //

dimensions      [0 0 0 0 0 0 0];

internalField   nonuniform List<vector> 
1000
(
(1.13619e-05 0 0)
(1.13621e-05 0 0)
(1.13622e-05 0 0)
(1.13622e-05 0 0)
(1.13624e-05 0 0)
(1.13625e-05 0 0)
(1.13626e-05 0 0)
(1.13627e-05 0 0)
(1.13629e-05 0 0)
(1.1363e-05 0 0)
(1.13632e-05 0 0)
(1.13634e-05 0 0)
(1.13636e-05 0 0)
(1.13638e-05 0 0)
(1.13641e-05 0 0)
(1.13644e-05 0 0)
(1.13647e-05 0 0)
(1.13651e-05 0 0)
(1.13655e-05 0 0)
(1.13658e-05 0 0)
(1.13662e-05 0 0)
(1.13666e-05 0 0)
(1.13669e-05 0 0)
(1.13673e-05 0 0)
(1.13676e-05 0 0)
(1.13679e-05 0 0)
(1.13683e-05 0 0)
(1.13685e-05 0 0)
(1.13688e-05 0 0)
(1.13691e-05 0 0)
(1.13694e-05 0 0)
(1.13696e-05 0 0)
(1.13698e-05 0 0)
(1.137e-05 0 0)
(1.13702e-05 0 0)
(1.13708e-05 0 0)
(1.13725e-05 0 0)
(1.13797e-05 0 0)
(1.14237e-05 0 0)
(1.15874e-05 0 0)
(1.17367e-05 0 0)
(1.17666e-05 0 0)
(1.17756e-05 0 0)
(1.17798e-05 0 0)
(1.1782e-05 0 0)
(1.17832e-05 0 0)
(1.17844e-05 0 0)
(1.1786e-05 0 0)
(1.17875e-05 0 0)
(1.17878e-05 0 0)
(1.17857e-05 0 0)
(1.17811e-05 0 0)
(1.17748e-05 0 0)
(1.17683e-05 0 0)
(1.17631e-05 0 0)
(1.176e-05 0 0)
(1.17591e-05 0 0)
(1.17597e-05 0 0)
(1.1761e-05 0 0)
(1.1763e-05 0 0)
(1.17676e-05 0 0)
(1.17743e-05 0 0)
(1.17809e-05 0 0)
(1.17866e-05 0 0)
(1.17912e-05 0 0)
(1.17947e-05 0 0)
(1.17971e-05 0 0)
(1.17985e-05 0 0)
(1.17993e-05 0 0)
(1.17995e-05 0 0)
(1.17993e-05 0 0)
(1.17988e-05 0 0)
(1.17984e-05 0 0)
(1.17981e-05 0 0)
(1.17979e-05 0 0)
(1.17978e-05 0 0)
(1.17979e-05 0 0)
(1.17981e-05 0 0)
(1.17984e-05 0 0)
(1.17987e-05 0 0)
(1.17991e-05 0 0)
(1.17995e-05 0 0)
(1.17998e-05 0 0)
(1.18001e-05 0 0)
(1.18004e-05 0 0)
(1.18007e-05 0 0)
(1.18009e-05 0 0)
(1.1801e-05 0 0)
(1.18011e-05 0 0)
(1.18012e-05 0 0)
(1.18012e-05 0 0)
(1.18012e-05 0 0)
(1.18011e-05 0 0)
(1.18009e-05 0 0)
(1.18007e-05 0 0)
(1.18005e-05 0 0)
(1.18001e-05 0 0)
(1.17997e-05 0 0)
(1.17992e-05 0 0)
(1.17986e-05 0 0)
(1.17979e-05 0 0)
(1.1797e-05 0 0)
(1.1796e-05 0 0)
(1.17949e-05 0 0)
(1.17935e-05 0 0)
(1.17918e-05 0 0)
(1.17899e-05 0 0)
(1.17877e-05 0 0)
(1.17853e-05 0 0)
(1.17826e-05 0 0)
(1.17798e-05 0 0)
(1.17768e-05 0 0)
(1.17737e-05 0 0)
(1.17705e-05 0 0)
(1.17673e-05 0 0)
(1.1764e-05 0 0)
(1.17606e-05 0 0)
(1.17572e-05 0 0)
(1.17538e-05 0 0)
(1.17503e-05 0 0)
(1.17468e-05 0 0)
(1.17434e-05 0 0)
(1.17399e-05 0 0)
(1.17364e-05 0 0)
(1.17328e-05 0 0)
(1.17293e-05 0 0)
(1.17257e-05 0 0)
(1.17221e-05 0 0)
(1.17184e-05 0 0)
(1.17146e-05 0 0)
(1.17109e-05 0 0)
(1.17071e-05 0 0)
(1.17033e-05 0 0)
(1.16995e-05 0 0)
(1.16957e-05 0 0)
(1.1692e-05 0 0)
(1.16883e-05 0 0)
(1.16846e-05 0 0)
(1.1681e-05 0 0)
(1.16774e-05 0 0)
(1.16737e-05 0 0)
(1.167e-05 0 0)
(1.16662e-05 0 0)
(1.16623e-05 0 0)
(1.16581e-05 0 0)
(1.16536e-05 0 0)
(1.16488e-05 0 0)
(1.16436e-05 0 0)
(1.16382e-05 0 0)
(1.16326e-05 0 0)
(1.16267e-05 0 0)
(1.16208e-05 0 0)
(1.16147e-05 0 0)
(1.16086e-05 0 0)
(1.16026e-05 0 0)
(1.15966e-05 0 0)
(1.15907e-05 0 0)
(1.1585e-05 0 0)
(1.15796e-05 0 0)
(1.15745e-05 0 0)
(1.15697e-05 0 0)
(1.15653e-05 0 0)
(1.15614e-05 0 0)
(1.15579e-05 0 0)
(1.15549e-05 0 0)
(1.15523e-05 0 0)
(1.155e-05 0 0)
(1.15481e-05 0 0)
(1.15463e-05 0 0)
(1.15447e-05 0 0)
(1.15431e-05 0 0)
(1.15415e-05 0 0)
(1.15399e-05 0 0)
(1.1538e-05 0 0)
(1.1536e-05 0 0)
(1.15338e-05 0 0)
(1.15313e-05 0 0)
(1.15286e-05 0 0)
(1.15257e-05 0 0)
(1.15226e-05 0 0)
(1.15193e-05 0 0)
(1.15158e-05 0 0)
(1.15123e-05 0 0)
(1.15086e-05 0 0)
(1.15048e-05 0 0)
(1.1501e-05 0 0)
(1.14972e-05 0 0)
(1.14934e-05 0 0)
(1.14895e-05 0 0)
(1.14857e-05 0 0)
(1.14819e-05 0 0)
(1.14781e-05 0 0)
(1.14743e-05 0 0)
(1.14706e-05 0 0)
(1.14669e-05 0 0)
(1.14632e-05 0 0)
(1.14596e-05 0 0)
(1.14559e-05 0 0)
(1.14523e-05 0 0)
(1.14487e-05 0 0)
(1.14451e-05 0 0)
(1.14415e-05 0 0)
(1.14379e-05 0 0)
(1.14343e-05 0 0)
(1.14306e-05 0 0)
(1.1427e-05 0 0)
(1.14234e-05 0 0)
(1.14198e-05 0 0)
(1.14161e-05 0 0)
(1.14125e-05 0 0)
(1.14088e-05 0 0)
(1.14051e-05 0 0)
(1.14014e-05 0 0)
(1.13977e-05 0 0)
(1.1394e-05 0 0)
(1.13903e-05 0 0)
(1.13865e-05 0 0)
(1.13828e-05 0 0)
(1.1379e-05 0 0)
(1.13752e-05 0 0)
(1.13714e-05 0 0)
(1.13676e-05 0 0)
(1.13638e-05 0 0)
(1.13599e-05 0 0)
(1.13561e-05 0 0)
(1.13522e-05 0 0)
(1.13483e-05 0 0)
(1.13444e-05 0 0)
(1.13405e-05 0 0)
(1.13366e-05 0 0)
(1.13327e-05 0 0)
(1.13287e-05 0 0)
(1.13247e-05 0 0)
(1.13207e-05 0 0)
(1.13167e-05 0 0)
(1.13127e-05 0 0)
(1.13087e-05 0 0)
(1.13046e-05 0 0)
(1.13006e-05 0 0)
(1.12965e-05 0 0)
(1.12924e-05 0 0)
(1.12883e-05 0 0)
(1.12842e-05 0 0)
(1.12801e-05 0 0)
(1.1276e-05 0 0)
(1.12719e-05 0 0)
(1.12678e-05 0 0)
(1.12636e-05 0 0)
(1.12594e-05 0 0)
(1.12552e-05 0 0)
(1.1251e-05 0 0)
(1.12468e-05 0 0)
(1.12426e-05 0 0)
(1.12384e-05 0 0)
(1.12341e-05 0 0)
(1.12299e-05 0 0)
(1.12257e-05 0 0)
(1.12215e-05 0 0)
(1.12172e-05 0 0)
(1.1213e-05 0 0)
(1.12088e-05 0 0)
(1.12046e-05 0 0)
(1.12004e-05 0 0)
(1.11961e-05 0 0)
(1.11918e-05 0 0)
(1.11875e-05 0 0)
(1.11831e-05 0 0)
(1.11785e-05 0 0)
(1.11739e-05 0 0)
(1.11692e-05 0 0)
(1.11643e-05 0 0)
(1.11593e-05 0 0)
(1.11542e-05 0 0)
(1.1149e-05 0 0)
(1.11436e-05 0 0)
(1.11382e-05 0 0)
(1.11326e-05 0 0)
(1.1127e-05 0 0)
(1.11212e-05 0 0)
(1.11155e-05 0 0)
(1.11097e-05 0 0)
(1.1104e-05 0 0)
(1.10983e-05 0 0)
(1.10926e-05 0 0)
(1.10871e-05 0 0)
(1.10817e-05 0 0)
(1.10764e-05 0 0)
(1.10714e-05 0 0)
(1.10665e-05 0 0)
(1.10618e-05 0 0)
(1.10574e-05 0 0)
(1.10532e-05 0 0)
(1.10493e-05 0 0)
(1.10455e-05 0 0)
(1.1042e-05 0 0)
(1.10386e-05 0 0)
(1.10354e-05 0 0)
(1.10324e-05 0 0)
(1.10294e-05 0 0)
(1.10265e-05 0 0)
(1.10236e-05 0 0)
(1.10208e-05 0 0)
(1.10179e-05 0 0)
(1.10149e-05 0 0)
(1.1012e-05 0 0)
(1.10089e-05 0 0)
(1.10057e-05 0 0)
(1.10024e-05 0 0)
(1.09991e-05 0 0)
(1.09956e-05 0 0)
(1.0992e-05 0 0)
(1.09883e-05 0 0)
(1.09846e-05 0 0)
(1.09807e-05 0 0)
(1.09768e-05 0 0)
(1.09728e-05 0 0)
(1.09688e-05 0 0)
(1.09648e-05 0 0)
(1.09607e-05 0 0)
(1.09565e-05 0 0)
(1.09524e-05 0 0)
(1.09483e-05 0 0)
(1.09441e-05 0 0)
(1.094e-05 0 0)
(1.09358e-05 0 0)
(1.09317e-05 0 0)
(1.09276e-05 0 0)
(1.09234e-05 0 0)
(1.09193e-05 0 0)
(1.09152e-05 0 0)
(1.09111e-05 0 0)
(1.0907e-05 0 0)
(1.09029e-05 0 0)
(1.08988e-05 0 0)
(1.08947e-05 0 0)
(1.08907e-05 0 0)
(1.08866e-05 0 0)
(1.08825e-05 0 0)
(1.08784e-05 0 0)
(1.08743e-05 0 0)
(1.08702e-05 0 0)
(1.08661e-05 0 0)
(1.0862e-05 0 0)
(1.08579e-05 0 0)
(1.08538e-05 0 0)
(1.08497e-05 0 0)
(1.08456e-05 0 0)
(1.08414e-05 0 0)
(1.08373e-05 0 0)
(1.08331e-05 0 0)
(1.08289e-05 0 0)
(1.08247e-05 0 0)
(1.08205e-05 0 0)
(1.08163e-05 0 0)
(1.08121e-05 0 0)
(1.08079e-05 0 0)
(1.08037e-05 0 0)
(1.07994e-05 0 0)
(1.07952e-05 0 0)
(1.07909e-05 0 0)
(1.07866e-05 0 0)
(1.07823e-05 0 0)
(1.0778e-05 0 0)
(1.07737e-05 0 0)
(1.07694e-05 0 0)
(1.0765e-05 0 0)
(1.07607e-05 0 0)
(1.07563e-05 0 0)
(1.0752e-05 0 0)
(1.07476e-05 0 0)
(1.07432e-05 0 0)
(1.07388e-05 0 0)
(1.07344e-05 0 0)
(1.07299e-05 0 0)
(1.07255e-05 0 0)
(1.07211e-05 0 0)
(1.07166e-05 0 0)
(1.07121e-05 0 0)
(1.07077e-05 0 0)
(1.07032e-05 0 0)
(1.06987e-05 0 0)
(1.06942e-05 0 0)
(1.06897e-05 0 0)
(1.06852e-05 0 0)
(1.06807e-05 0 0)
(1.06761e-05 0 0)
(1.06716e-05 0 0)
(1.0667e-05 0 0)
(1.06625e-05 0 0)
(1.06579e-05 0 0)
(1.06533e-05 0 0)
(1.06488e-05 0 0)
(1.06442e-05 0 0)
(1.06396e-05 0 0)
(1.0635e-05 0 0)
(1.06305e-05 0 0)
(1.06259e-05 0 0)
(1.06213e-05 0 0)
(1.06167e-05 0 0)
(1.0612e-05 0 0)
(1.06074e-05 0 0)
(1.06027e-05 0 0)
(1.0598e-05 0 0)
(1.05932e-05 0 0)
(1.05884e-05 0 0)
(1.05836e-05 0 0)
(1.05787e-05 0 0)
(1.05737e-05 0 0)
(1.05687e-05 0 0)
(1.05636e-05 0 0)
(1.05584e-05 0 0)
(1.05531e-05 0 0)
(1.05478e-05 0 0)
(1.05424e-05 0 0)
(1.0537e-05 0 0)
(1.05315e-05 0 0)
(1.05259e-05 0 0)
(1.05203e-05 0 0)
(1.05147e-05 0 0)
(1.0509e-05 0 0)
(1.05034e-05 0 0)
(1.04977e-05 0 0)
(1.0492e-05 0 0)
(1.04864e-05 0 0)
(1.04808e-05 0 0)
(1.04753e-05 0 0)
(1.04699e-05 0 0)
(1.04645e-05 0 0)
(1.04592e-05 0 0)
(1.04541e-05 0 0)
(1.0449e-05 0 0)
(1.04441e-05 0 0)
(1.04393e-05 0 0)
(1.04347e-05 0 0)
(1.04302e-05 0 0)
(1.04258e-05 0 0)
(1.04215e-05 0 0)
(1.04173e-05 0 0)
(1.04133e-05 0 0)
(1.04093e-05 0 0)
(1.04054e-05 0 0)
(1.04016e-05 0 0)
(1.03979e-05 0 0)
(1.03941e-05 0 0)
(1.03904e-05 0 0)
(1.03867e-05 0 0)
(1.0383e-05 0 0)
(1.03793e-05 0 0)
(1.03755e-05 0 0)
(1.03717e-05 0 0)
(1.03679e-05 0 0)
(1.0364e-05 0 0)
(1.03601e-05 0 0)
(1.03561e-05 0 0)
(1.0352e-05 0 0)
(1.03479e-05 0 0)
(1.03437e-05 0 0)
(1.03395e-05 0 0)
(1.03353e-05 0 0)
(1.0331e-05 0 0)
(1.03266e-05 0 0)
(1.03222e-05 0 0)
(1.03178e-05 0 0)
(1.03134e-05 0 0)
(1.03089e-05 0 0)
(1.03044e-05 0 0)
(1.02999e-05 0 0)
(1.02954e-05 0 0)
(1.02909e-05 0 0)
(1.02863e-05 0 0)
(1.02818e-05 0 0)
(1.02773e-05 0 0)
(1.02727e-05 0 0)
(1.02682e-05 0 0)
(1.02636e-05 0 0)
(1.02591e-05 0 0)
(1.02545e-05 0 0)
(1.025e-05 0 0)
(1.02454e-05 0 0)
(1.02409e-05 0 0)
(1.02364e-05 0 0)
(1.02318e-05 0 0)
(1.02273e-05 0 0)
(1.02227e-05 0 0)
(1.02182e-05 0 0)
(1.02136e-05 0 0)
(1.02091e-05 0 0)
(1.02045e-05 0 0)
(1.02e-05 0 0)
(1.01954e-05 0 0)
(1.01908e-05 0 0)
(1.01862e-05 0 0)
(1.01817e-05 0 0)
(1.01771e-05 0 0)
(1.01725e-05 0 0)
(1.01679e-05 0 0)
(1.01633e-05 0 0)
(1.01586e-05 0 0)
(1.0154e-05 0 0)
(1.01494e-05 0 0)
(1.01447e-05 0 0)
(1.01401e-05 0 0)
(1.01354e-05 0 0)
(1.01307e-05 0 0)
(1.0126e-05 0 0)
(1.01213e-05 0 0)
(1.01166e-05 0 0)
(1.01119e-05 0 0)
(1.01072e-05 0 0)
(1.01025e-05 0 0)
(1.00977e-05 0 0)
(1.0093e-05 0 0)
(1.00882e-05 0 0)
(1.00834e-05 0 0)
(1.00786e-05 0 0)
(1.00738e-05 0 0)
(1.0069e-05 0 0)
(1.00642e-05 0 0)
(1.00594e-05 0 0)
(1.00546e-05 0 0)
(1.00497e-05 0 0)
(1.00449e-05 0 0)
(1.004e-05 0 0)
(1.00352e-05 0 0)
(1.00303e-05 0 0)
(1.00254e-05 0 0)
(1.00205e-05 0 0)
(1.00156e-05 0 0)
(1.00107e-05 0 0)
(1.00058e-05 0 0)
(1.00009e-05 0 0)
(9.99592e-06 0 0)
(9.99098e-06 0 0)
(9.98603e-06 0 0)
(9.98107e-06 0 0)
(9.97611e-06 0 0)
(9.97113e-06 0 0)
(9.96616e-06 0 0)
(9.96117e-06 0 0)
(9.95618e-06 0 0)
(9.95118e-06 0 0)
(9.94618e-06 0 0)
(9.94117e-06 0 0)
(9.93615e-06 0 0)
(9.93112e-06 0 0)
(9.92608e-06 0 0)
(9.92103e-06 0 0)
(9.91596e-06 0 0)
(9.91089e-06 0 0)
(9.90579e-06 0 0)
(9.90067e-06 0 0)
(9.89553e-06 0 0)
(9.89037e-06 0 0)
(9.88518e-06 0 0)
(9.87995e-06 0 0)
(9.87469e-06 0 0)
(9.8694e-06 0 0)
(9.86407e-06 0 0)
(9.8587e-06 0 0)
(9.85328e-06 0 0)
(9.84782e-06 0 0)
(9.84232e-06 0 0)
(9.83678e-06 0 0)
(9.83119e-06 0 0)
(9.82555e-06 0 0)
(9.81988e-06 0 0)
(9.81417e-06 0 0)
(9.80842e-06 0 0)
(9.80265e-06 0 0)
(9.79684e-06 0 0)
(9.79102e-06 0 0)
(9.78518e-06 0 0)
(9.77933e-06 0 0)
(9.77348e-06 0 0)
(9.76763e-06 0 0)
(9.76179e-06 0 0)
(9.75597e-06 0 0)
(9.75018e-06 0 0)
(9.74442e-06 0 0)
(9.7387e-06 0 0)
(9.73303e-06 0 0)
(9.72741e-06 0 0)
(9.72186e-06 0 0)
(9.71637e-06 0 0)
(9.71095e-06 0 0)
(9.7056e-06 0 0)
(9.70033e-06 0 0)
(9.69514e-06 0 0)
(9.69002e-06 0 0)
(9.68498e-06 0 0)
(9.68002e-06 0 0)
(9.67513e-06 0 0)
(9.67031e-06 0 0)
(9.66555e-06 0 0)
(9.66085e-06 0 0)
(9.6562e-06 0 0)
(9.65159e-06 0 0)
(9.64702e-06 0 0)
(9.64249e-06 0 0)
(9.63797e-06 0 0)
(9.63346e-06 0 0)
(9.62896e-06 0 0)
(9.62447e-06 0 0)
(9.61996e-06 0 0)
(9.61544e-06 0 0)
(9.61091e-06 0 0)
(9.60635e-06 0 0)
(9.60177e-06 0 0)
(9.59716e-06 0 0)
(9.59251e-06 0 0)
(9.58783e-06 0 0)
(9.58312e-06 0 0)
(9.57838e-06 0 0)
(9.5736e-06 0 0)
(9.56879e-06 0 0)
(9.56395e-06 0 0)
(9.55907e-06 0 0)
(9.55417e-06 0 0)
(9.54924e-06 0 0)
(9.54429e-06 0 0)
(9.53931e-06 0 0)
(9.53431e-06 0 0)
(9.52929e-06 0 0)
(9.52426e-06 0 0)
(9.51921e-06 0 0)
(9.51415e-06 0 0)
(9.50907e-06 0 0)
(9.50399e-06 0 0)
(9.4989e-06 0 0)
(9.4938e-06 0 0)
(9.48869e-06 0 0)
(9.48358e-06 0 0)
(9.47846e-06 0 0)
(9.47334e-06 0 0)
(9.46821e-06 0 0)
(9.46308e-06 0 0)
(9.45795e-06 0 0)
(9.45282e-06 0 0)
(9.44768e-06 0 0)
(9.44253e-06 0 0)
(9.43739e-06 0 0)
(9.43224e-06 0 0)
(9.42708e-06 0 0)
(9.42193e-06 0 0)
(9.41676e-06 0 0)
(9.41159e-06 0 0)
(9.40642e-06 0 0)
(9.40124e-06 0 0)
(9.39605e-06 0 0)
(9.39086e-06 0 0)
(9.38566e-06 0 0)
(9.38046e-06 0 0)
(9.37524e-06 0 0)
(9.37002e-06 0 0)
(9.36479e-06 0 0)
(9.35955e-06 0 0)
(9.35431e-06 0 0)
(9.34905e-06 0 0)
(9.34379e-06 0 0)
(9.33852e-06 0 0)
(9.33324e-06 0 0)
(9.32794e-06 0 0)
(9.32264e-06 0 0)
(9.31733e-06 0 0)
(9.31201e-06 0 0)
(9.30668e-06 0 0)
(9.30134e-06 0 0)
(9.29599e-06 0 0)
(9.29063e-06 0 0)
(9.28526e-06 0 0)
(9.27988e-06 0 0)
(9.27449e-06 0 0)
(9.26909e-06 0 0)
(9.26368e-06 0 0)
(9.25826e-06 0 0)
(9.25283e-06 0 0)
(9.24738e-06 0 0)
(9.24193e-06 0 0)
(9.23647e-06 0 0)
(9.231e-06 0 0)
(9.22552e-06 0 0)
(9.22003e-06 0 0)
(9.21453e-06 0 0)
(9.20901e-06 0 0)
(9.20349e-06 0 0)
(9.19796e-06 0 0)
(9.19242e-06 0 0)
(9.18687e-06 0 0)
(9.18132e-06 0 0)
(9.17575e-06 0 0)
(9.17017e-06 0 0)
(9.16459e-06 0 0)
(9.15899e-06 0 0)
(9.15339e-06 0 0)
(9.14777e-06 0 0)
(9.14215e-06 0 0)
(9.13652e-06 0 0)
(9.13089e-06 0 0)
(9.12524e-06 0 0)
(9.11958e-06 0 0)
(9.11392e-06 0 0)
(9.10824e-06 0 0)
(9.10256e-06 0 0)
(9.09686e-06 0 0)
(9.09115e-06 0 0)
(9.08544e-06 0 0)
(9.07971e-06 0 0)
(9.07396e-06 0 0)
(9.06821e-06 0 0)
(9.06243e-06 0 0)
(9.05665e-06 0 0)
(9.05084e-06 0 0)
(9.04501e-06 0 0)
(9.03916e-06 0 0)
(9.03329e-06 0 0)
(9.0274e-06 0 0)
(9.02148e-06 0 0)
(9.01554e-06 0 0)
(9.00957e-06 0 0)
(9.00357e-06 0 0)
(8.99754e-06 0 0)
(8.99149e-06 0 0)
(8.9854e-06 0 0)
(8.97928e-06 0 0)
(8.97313e-06 0 0)
(8.96695e-06 0 0)
(8.96074e-06 0 0)
(8.9545e-06 0 0)
(8.94824e-06 0 0)
(8.94195e-06 0 0)
(8.93563e-06 0 0)
(8.9293e-06 0 0)
(8.92294e-06 0 0)
(8.91657e-06 0 0)
(8.91018e-06 0 0)
(8.90378e-06 0 0)
(8.89738e-06 0 0)
(8.89097e-06 0 0)
(8.88457e-06 0 0)
(8.87817e-06 0 0)
(8.87177e-06 0 0)
(8.86539e-06 0 0)
(8.85903e-06 0 0)
(8.85269e-06 0 0)
(8.84637e-06 0 0)
(8.84009e-06 0 0)
(8.83383e-06 0 0)
(8.82761e-06 0 0)
(8.82142e-06 0 0)
(8.81528e-06 0 0)
(8.80918e-06 0 0)
(8.80312e-06 0 0)
(8.79711e-06 0 0)
(8.79114e-06 0 0)
(8.78522e-06 0 0)
(8.77934e-06 0 0)
(8.77351e-06 0 0)
(8.76772e-06 0 0)
(8.76197e-06 0 0)
(8.75626e-06 0 0)
(8.75058e-06 0 0)
(8.74494e-06 0 0)
(8.73932e-06 0 0)
(8.73372e-06 0 0)
(8.72815e-06 0 0)
(8.72259e-06 0 0)
(8.71704e-06 0 0)
(8.7115e-06 0 0)
(8.70596e-06 0 0)
(8.70042e-06 0 0)
(8.69487e-06 0 0)
(8.68932e-06 0 0)
(8.68376e-06 0 0)
(8.67818e-06 0 0)
(8.67258e-06 0 0)
(8.66697e-06 0 0)
(8.66133e-06 0 0)
(8.65568e-06 0 0)
(8.65e-06 0 0)
(8.64429e-06 0 0)
(8.63856e-06 0 0)
(8.63281e-06 0 0)
(8.62703e-06 0 0)
(8.62122e-06 0 0)
(8.61539e-06 0 0)
(8.60954e-06 0 0)
(8.60367e-06 0 0)
(8.59777e-06 0 0)
(8.59185e-06 0 0)
(8.58591e-06 0 0)
(8.57995e-06 0 0)
(8.57398e-06 0 0)
(8.56799e-06 0 0)
(8.56198e-06 0 0)
(8.55595e-06 0 0)
(8.54992e-06 0 0)
(8.54386e-06 0 0)
(8.5378e-06 0 0)
(8.53172e-06 0 0)
(8.52564e-06 0 0)
(8.51954e-06 0 0)
(8.51343e-06 0 0)
(8.50732e-06 0 0)
(8.50119e-06 0 0)
(8.49505e-06 0 0)
(8.48891e-06 0 0)
(8.48276e-06 0 0)
(8.47659e-06 0 0)
(8.47042e-06 0 0)
(8.46425e-06 0 0)
(8.45806e-06 0 0)
(8.45186e-06 0 0)
(8.44566e-06 0 0)
(8.43944e-06 0 0)
(8.43322e-06 0 0)
(8.42698e-06 0 0)
(8.42074e-06 0 0)
(8.41449e-06 0 0)
(8.40823e-06 0 0)
(8.40195e-06 0 0)
(8.39567e-06 0 0)
(8.38938e-06 0 0)
(8.38307e-06 0 0)
(8.37675e-06 0 0)
(8.37043e-06 0 0)
(8.36409e-06 0 0)
(8.35774e-06 0 0)
(8.35137e-06 0 0)
(8.345e-06 0 0)
(8.33861e-06 0 0)
(8.33221e-06 0 0)
(8.3258e-06 0 0)
(8.31937e-06 0 0)
(8.31294e-06 0 0)
(8.30648e-06 0 0)
(8.30002e-06 0 0)
(8.29354e-06 0 0)
(8.28705e-06 0 0)
(8.28055e-06 0 0)
(8.27403e-06 0 0)
(8.2675e-06 0 0)
(8.26095e-06 0 0)
(8.25439e-06 0 0)
(8.24782e-06 0 0)
(8.24124e-06 0 0)
(8.23464e-06 0 0)
(8.22802e-06 0 0)
(8.2214e-06 0 0)
(8.21476e-06 0 0)
(8.2081e-06 0 0)
(8.20143e-06 0 0)
(8.19475e-06 0 0)
(8.18806e-06 0 0)
(8.18135e-06 0 0)
(8.17463e-06 0 0)
(8.16789e-06 0 0)
(8.16114e-06 0 0)
(8.15437e-06 0 0)
(8.1476e-06 0 0)
(8.14081e-06 0 0)
(8.134e-06 0 0)
(8.12718e-06 0 0)
(8.12035e-06 0 0)
(8.11351e-06 0 0)
(8.10665e-06 0 0)
(8.09977e-06 0 0)
(8.09289e-06 0 0)
(8.08599e-06 0 0)
(8.07907e-06 0 0)
(8.07214e-06 0 0)
(8.0652e-06 0 0)
(8.05824e-06 0 0)
(8.05127e-06 0 0)
(8.04429e-06 0 0)
(8.03728e-06 0 0)
(8.03026e-06 0 0)
(8.02323e-06 0 0)
(8.01618e-06 0 0)
(8.00911e-06 0 0)
(8.00202e-06 0 0)
(7.99492e-06 0 0)
(7.9878e-06 0 0)
(7.98065e-06 0 0)
(7.97349e-06 0 0)
(7.9663e-06 0 0)
(7.95909e-06 0 0)
(7.95186e-06 0 0)
(7.94461e-06 0 0)
(7.93733e-06 0 0)
(7.93002e-06 0 0)
(7.92269e-06 0 0)
(7.91534e-06 0 0)
(7.90795e-06 0 0)
(7.90054e-06 0 0)
(7.8931e-06 0 0)
(7.88564e-06 0 0)
(7.87814e-06 0 0)
(7.87062e-06 0 0)
(7.86307e-06 0 0)
(7.8555e-06 0 0)
(7.84789e-06 0 0)
(7.84026e-06 0 0)
(7.83261e-06 0 0)
(7.82493e-06 0 0)
(7.81723e-06 0 0)
(7.8095e-06 0 0)
(7.80176e-06 0 0)
(7.79399e-06 0 0)
(7.78621e-06 0 0)
(7.77842e-06 0 0)
(7.77061e-06 0 0)
(7.76279e-06 0 0)
(7.75495e-06 0 0)
(7.74711e-06 0 0)
(7.73926e-06 0 0)
(7.7314e-06 0 0)
(7.72354e-06 0 0)
(7.71567e-06 0 0)
(7.70781e-06 0 0)
(7.69996e-06 0 0)
(7.6921e-06 0 0)
(7.68426e-06 0 0)
(7.67643e-06 0 0)
(7.66861e-06 0 0)
(7.66079e-06 0 0)
(7.653e-06 0 0)
(7.64522e-06 0 0)
(7.63745e-06 0 0)
(7.6297e-06 0 0)
(7.62197e-06 0 0)
(7.61425e-06 0 0)
(7.60655e-06 0 0)
(7.59887e-06 0 0)
(7.59121e-06 0 0)
(7.58355e-06 0 0)
(7.57592e-06 0 0)
(7.5683e-06 0 0)
(7.56069e-06 0 0)
(7.55308e-06 0 0)
(7.54549e-06 0 0)
(7.53789e-06 0 0)
(7.53031e-06 0 0)
(7.52272e-06 0 0)
(7.51513e-06 0 0)
(7.50754e-06 0 0)
(7.49993e-06 0 0)
(7.49232e-06 0 0)
(7.48469e-06 0 0)
(7.47705e-06 0 0)
(7.46938e-06 0 0)
(7.4617e-06 0 0)
(7.454e-06 0 0)
(7.44628e-06 0 0)
(7.43853e-06 0 0)
(7.43075e-06 0 0)
(7.42295e-06 0 0)
(7.41512e-06 0 0)
(7.40727e-06 0 0)
(7.39938e-06 0 0)
(7.39147e-06 0 0)
(7.38352e-06 0 0)
(7.37554e-06 0 0)
(7.36754e-06 0 0)
(7.3595e-06 0 0)
(7.35143e-06 0 0)
(7.34334e-06 0 0)
(7.33521e-06 0 0)
(7.32705e-06 0 0)
(7.31886e-06 0 0)
(7.31065e-06 0 0)
(7.3024e-06 0 0)
(7.29413e-06 0 0)
(7.28583e-06 0 0)
(7.2775e-06 0 0)
(7.26914e-06 0 0)
(7.26076e-06 0 0)
(7.25235e-06 0 0)
(7.24391e-06 0 0)
(7.23545e-06 0 0)
(7.22696e-06 0 0)
(7.21844e-06 0 0)
(7.20991e-06 0 0)
(7.20134e-06 0 0)
(7.19275e-06 0 0)
(7.18414e-06 0 0)
(7.1755e-06 0 0)
(7.16684e-06 0 0)
(7.15814e-06 0 0)
(7.14943e-06 0 0)
(7.14069e-06 0 0)
(7.13193e-06 0 0)
(7.12314e-06 0 0)
(7.11433e-06 0 0)
(7.10549e-06 0 0)
(7.09662e-06 0 0)
(7.08773e-06 0 0)
(7.07881e-06 0 0)
(7.06987e-06 0 0)
(7.0609e-06 0 0)
(7.43636e-06 0 0)
)
;

boundaryField
{
    inlet
    {
        type            fixedValue;
        value           uniform (1.13622e-05 0 0);
    }
    outlet
    {
        type            zeroGradient;
    }
    emptyWalls
    {
        type            empty;
    }
}


// ************************************************************************* //
