/*--------------------------------*- C++ -*----------------------------------*\
  =========                 |
  \\      /  F ield         | OpenFOAM: The Open Source CFD Toolbox
   \\    /   O peration     | Website:  https://openfoam.org
    \\  /    A nd           | Version:  9
     \\/     M anipulation  |
\*---------------------------------------------------------------------------*/
FoamFile
{
    format      ascii;
    class       volScalarField;
    location    "19050";
    object      Fb;
}
// * * * * * * * * * * * * * * * * * * * * * * * * * * * * * * * * * * * * * //

dimensions      [0 0 0 0 0 0 0];

internalField   nonuniform List<scalar> 
1000
(
0.805245
0.80513
0.805284
0.80512
0.805311
0.805164
0.805313
0.805248
0.805314
0.805315
0.805346
0.805365
0.805408
0.805434
0.805482
0.805516
0.805556
0.805594
0.805608
0.805681
0.80563
0.80577
0.805647
0.805836
0.8058
0.806338
0.810786
0.828499
0.832466
0.83303
0.832738
0.832194
0.832025
0.832362
0.832866
0.833368
0.834156
0.834875
0.835422
0.835789
0.836007
0.836133
0.836122
0.83605
0.835988
0.835942
0.835934
0.835954
0.835974
0.835987
0.836033
0.836064
0.836119
0.83615
0.836199
0.836223
0.836256
0.836282
0.836299
0.836314
0.83632
0.836323
0.836317
0.836305
0.836284
0.836257
0.836218
0.836171
0.83611
0.836034
0.835936
0.835814
0.835659
0.835468
0.835239
0.834978
0.834697
0.8344
0.834093
0.833776
0.833451
0.833121
0.832786
0.832446
0.832102
0.831755
0.831404
0.83105
0.830693
0.830333
0.82997
0.829603
0.829234
0.828862
0.828488
0.828112
0.827735
0.827358
0.826981
0.826603
0.826225
0.825847
0.825466
0.825084
0.824698
0.82431
0.82392
0.823528
0.823135
0.822741
0.822348
0.821955
0.821564
0.821175
0.820787
0.820398
0.820005
0.819603
0.819187
0.818754
0.8183
0.817824
0.817327
0.81681
0.816275
0.815727
0.815169
0.814604
0.814036
0.81347
0.812909
0.812358
0.811823
0.811309
0.810819
0.81036
0.809935
0.809544
0.809189
0.808869
0.808578
0.808314
0.80807
0.807839
0.807614
0.80739
0.807159
0.806917
0.80666
0.806385
0.806091
0.805777
0.805444
0.805092
0.804725
0.804343
0.80395
0.803547
0.803138
0.802724
0.802307
0.801888
0.80147
0.801053
0.800638
0.800225
0.799815
0.799407
0.799001
0.798597
0.798196
0.797796
0.797398
0.797
0.796604
0.796208
0.795811
0.795415
0.795019
0.794622
0.794225
0.793827
0.793428
0.793028
0.792628
0.792226
0.791824
0.791421
0.791016
0.790611
0.790204
0.789797
0.789388
0.788978
0.788568
0.788156
0.787743
0.787329
0.786914
0.786497
0.78608
0.785661
0.785242
0.784821
0.784399
0.783976
0.783552
0.783127
0.7827
0.782273
0.781844
0.781414
0.780983
0.78055
0.780117
0.779682
0.779245
0.778808
0.77837
0.77793
0.777489
0.777048
0.776606
0.776163
0.775719
0.775275
0.77483
0.774384
0.773938
0.773491
0.773043
0.772594
0.772144
0.771693
0.771242
0.77079
0.770338
0.769886
0.769433
0.768981
0.768528
0.768074
0.76762
0.767165
0.766707
0.766247
0.765783
0.765314
0.76484
0.76436
0.763873
0.763378
0.762875
0.762364
0.761844
0.761316
0.76078
0.760237
0.759688
0.759134
0.758576
0.758015
0.757454
0.756894
0.756336
0.755784
0.755239
0.754703
0.754178
0.753666
0.753167
0.752684
0.752216
0.751764
0.751327
0.750906
0.7505
0.750105
0.749722
0.749348
0.748981
0.748618
0.748257
0.747897
0.747534
0.747168
0.746797
0.746419
0.746034
0.745642
0.745241
0.744832
0.744415
0.74399
0.743558
0.74312
0.742676
0.742228
0.741774
0.741318
0.740858
0.740396
0.739933
0.739469
0.739004
0.738538
0.738073
0.737608
0.737143
0.736679
0.736215
0.735752
0.735289
0.734827
0.734365
0.733904
0.733443
0.732981
0.73252
0.732059
0.731598
0.731137
0.730675
0.730212
0.72975
0.729286
0.728822
0.728357
0.727892
0.727426
0.726959
0.726491
0.726022
0.725553
0.725082
0.724611
0.724139
0.723665
0.723191
0.722716
0.72224
0.721763
0.721285
0.720806
0.720326
0.719845
0.719363
0.718881
0.718397
0.717912
0.717426
0.716939
0.716451
0.715963
0.715473
0.714982
0.71449
0.713997
0.713503
0.713008
0.712512
0.712015
0.711517
0.711019
0.710519
0.710018
0.709516
0.709014
0.70851
0.708006
0.707501
0.706995
0.706489
0.705981
0.705473
0.704964
0.704454
0.703943
0.703432
0.70292
0.702407
0.701894
0.70138
0.700865
0.70035
0.699834
0.699318
0.6988
0.698282
0.697762
0.697241
0.696719
0.696195
0.695669
0.695141
0.69461
0.694076
0.69354
0.692999
0.692455
0.691907
0.691354
0.690798
0.690237
0.689671
0.689101
0.688527
0.687949
0.687367
0.686781
0.686193
0.685603
0.685011
0.684417
0.683824
0.683231
0.682639
0.68205
0.681463
0.68088
0.680302
0.679729
0.679162
0.678602
0.678049
0.677503
0.676965
0.676435
0.675913
0.675398
0.67489
0.67439
0.673895
0.673405
0.672921
0.672439
0.671961
0.671484
0.671009
0.670533
0.670056
0.669578
0.669097
0.668614
0.668127
0.667636
0.667142
0.666643
0.666139
0.665631
0.665119
0.664603
0.664083
0.663558
0.663031
0.6625
0.661966
0.661429
0.660891
0.660349
0.659806
0.659261
0.658716
0.658168
0.65762
0.657071
0.656521
0.65597
0.655419
0.654868
0.654316
0.653763
0.653211
0.652658
0.652104
0.65155
0.650996
0.650441
0.649886
0.64933
0.648773
0.648216
0.647658
0.6471
0.646541
0.645981
0.64542
0.644858
0.644295
0.643731
0.643167
0.642601
0.642034
0.641467
0.640898
0.640328
0.639757
0.639185
0.638612
0.638037
0.637462
0.636885
0.636307
0.635728
0.635148
0.634566
0.633984
0.6334
0.632815
0.632228
0.631641
0.631052
0.630462
0.629871
0.629278
0.628685
0.628089
0.627493
0.626895
0.626297
0.625696
0.625095
0.624492
0.623888
0.623283
0.622676
0.622068
0.621459
0.620849
0.620237
0.619624
0.61901
0.618394
0.617777
0.617159
0.61654
0.615919
0.615298
0.614675
0.61405
0.613425
0.612798
0.61217
0.611541
0.61091
0.610278
0.609645
0.609011
0.608375
0.607738
0.607099
0.606459
0.605817
0.605174
0.604529
0.603883
0.603234
0.602583
0.60193
0.601275
0.600617
0.599957
0.599294
0.598629
0.59796
0.597289
0.596614
0.595936
0.595255
0.594571
0.593884
0.593193
0.592499
0.591802
0.591102
0.5904
0.589694
0.588986
0.588276
0.587564
0.586851
0.586135
0.585419
0.584702
0.583985
0.583268
0.582551
0.581835
0.581119
0.580406
0.579694
0.578984
0.578276
0.57757
0.576868
0.576168
0.575471
0.574777
0.574086
0.573398
0.572712
0.572029
0.571348
0.57067
0.569993
0.569317
0.568642
0.567968
0.567294
0.56662
0.565945
0.565269
0.564591
0.563912
0.56323
0.562545
0.561858
0.561168
0.560474
0.559777
0.559076
0.558372
0.557664
0.556952
0.556236
0.555517
0.554794
0.554067
0.553337
0.552603
0.551866
0.551126
0.550382
0.549636
0.548886
0.548134
0.547379
0.546621
0.545861
0.545098
0.544333
0.543566
0.542796
0.542024
0.541249
0.540472
0.539693
0.538912
0.538128
0.537342
0.536554
0.535764
0.534971
0.534176
0.533378
0.532578
0.531776
0.530971
0.530163
0.529353
0.52854
0.527725
0.526906
0.526085
0.525261
0.524435
0.523605
0.522772
0.521937
0.521098
0.520256
0.519411
0.518563
0.517712
0.516857
0.516
0.515139
0.514274
0.513406
0.512535
0.51166
0.510782
0.509901
0.509015
0.508127
0.507234
0.506338
0.505439
0.504536
0.503629
0.502719
0.501805
0.500887
0.499965
0.49904
0.498111
0.497179
0.496243
0.495305
0.494361
0.493415
0.492465
0.491513
0.490557
0.489599
0.488637
0.487674
0.486708
0.485739
0.48477
0.4838
0.482829
0.481859
0.480888
0.479919
0.478953
0.47799
0.477032
0.47608
0.475136
0.474201
0.473276
0.472365
0.471469
0.470591
0.469735
0.4689
0.468091
0.46731
0.46656
0.465844
0.465164
0.464521
0.463917
0.463354
0.462832
0.462353
0.461915
0.461517
0.461161
0.46084
0.460556
0.460307
0.460087
0.459896
0.45973
0.459589
0.459463
0.459355
0.459262
0.459171
0.45909
0.458993
0.458887
0.458726
0.458494
0.458108
0.457442
0.456283
0.454243
0.450657
0.44442
0.433805
0.416448
0.389934
0.353549
0.310686
0.268839
0.235173
0.212199
0.198269
0.190421
0.186186
0.183947
0.182781
0.182174
0.181857
0.181692
0.181605
0.181557
0.181531
0.181517
0.181508
0.181503
0.181501
0.181499
0.181499
0.181499
0.181501
0.181503
0.181506
0.18151
0.181515
0.18152
0.181525
0.181532
0.181538
0.181545
0.181552
0.18156
0.181568
0.181576
0.181584
0.181592
0.1816
0.181609
0.181617
0.181625
0.181632
0.18164
0.181647
0.181654
0.181661
0.181668
0.181674
0.18168
0.181685
0.181691
0.181696
0.1817
0.181705
0.181709
0.181713
0.181716
0.181719
0.181723
0.181725
0.181728
0.181731
0.181733
0.181735
0.181737
0.181739
0.181741
0.181743
0.181745
0.181747
0.181749
0.18175
0.181752
0.181754
0.181755
0.181757
0.181759
0.181761
0.181763
0.181764
0.181766
0.181768
0.18177
0.181772
0.181774
0.181776
0.181778
0.18178
0.181782
0.181784
0.181786
0.181789
0.181791
0.181793
0.181795
0.181797
0.181799
0.181801
0.181804
0.181806
0.181808
0.18181
0.181812
0.181814
0.181816
0.181818
0.18182
0.181822
0.181823
0.181825
0.181827
0.181829
0.18183
0.181832
0.181833
0.181835
0.181836
0.181837
0.181839
0.18184
0.181841
0.181842
0.181843
0.181844
0.181845
0.181846
0.181847
0.181847
0.181848
0.181849
0.181849
0.181849
0.18185
0.18185
0.18185
0.18185
0.18185
0.18185
0.18185
0.18185
0.18185
0.18185
0.181849
0.181849
0.181848
0.181848
0.181847
0.181846
0.181846
0.181845
0.181844
0.181843
0.181842
0.181841
0.18184
0.181839
0.181837
0.181836
0.181835
0.181833
0.181832
0.18183
0.181828
0.181827
0.181825
0.181823
0.181821
0.181819
0.181816
0.181814
0.181811
0.181809
0.181806
0.181803
0.1818
0.181796
0.181793
0.181789
0.181785
0.181781
0.181777
0.181772
0.181767
0.181762
0.181757
0.181751
0.181745
0.181739
0.181733
0.181726
0.181719
0.181712
0.181704
0.181697
0.181689
0.181681
0.181672
0.181664
0.181656
0.181647
0.181638
0.18163
0.181621
0.181612
0.181604
0.181595
0.181587
0.181579
0.181571
0.181563
0.181556
0.181549
0.181542
0.181535
0.18153
0.181524
0.181519
0.181514
0.18151
0.181507
0.181504
0.181502
0.1815
0.181499
0.181499
0.181499
0.181499
0.181499
0.181501
0.181502
0.181506
0.181508
0.181514
)
;

boundaryField
{
    inlet
    {
        type            calculated;
        value           uniform 0.805169;
    }
    outlet
    {
        type            calculated;
        value           uniform 0.181515;
    }
    emptyWalls
    {
        type            empty;
    }
}


// ************************************************************************* //
