/*--------------------------------*- C++ -*----------------------------------*\
  =========                 |
  \\      /  F ield         | OpenFOAM: The Open Source CFD Toolbox
   \\    /   O peration     | Website:  https://openfoam.org
    \\  /    A nd           | Version:  9
     \\/     M anipulation  |
\*---------------------------------------------------------------------------*/
FoamFile
{
    format      ascii;
    class       surfaceScalarField;
    location    "19050";
    object      phib;
}
// * * * * * * * * * * * * * * * * * * * * * * * * * * * * * * * * * * * * * //

dimensions      [0 2 0 0 0 0 0];

internalField   nonuniform List<scalar> 
999
(
1.1362e-09
1.13623e-09
1.13622e-09
1.13624e-09
1.13627e-09
1.13627e-09
1.13633e-09
1.13633e-09
1.13638e-09
1.1364e-09
1.13644e-09
1.13648e-09
1.13653e-09
1.13658e-09
1.13664e-09
1.13669e-09
1.13675e-09
1.13678e-09
1.13685e-09
1.13686e-09
1.13692e-09
1.13694e-09
1.13698e-09
1.13709e-09
1.13747e-09
1.13914e-09
1.15087e-09
1.17226e-09
1.1751e-09
1.17528e-09
1.17469e-09
1.17419e-09
1.17431e-09
1.1749e-09
1.17555e-09
1.17646e-09
1.17759e-09
1.17848e-09
1.17912e-09
1.17954e-09
1.17978e-09
1.17992e-09
1.1798e-09
1.17971e-09
1.17963e-09
1.17959e-09
1.1796e-09
1.17962e-09
1.17965e-09
1.17969e-09
1.17975e-09
1.17981e-09
1.17987e-09
1.17993e-09
1.17998e-09
1.18002e-09
1.18006e-09
1.18009e-09
1.18011e-09
1.18013e-09
1.18013e-09
1.18013e-09
1.18012e-09
1.1801e-09
1.18006e-09
1.18001e-09
1.17995e-09
1.17988e-09
1.17978e-09
1.17966e-09
1.1795e-09
1.17931e-09
1.17906e-09
1.17877e-09
1.17842e-09
1.17804e-09
1.17763e-09
1.17721e-09
1.17676e-09
1.17631e-09
1.17585e-09
1.17538e-09
1.1749e-09
1.17442e-09
1.17393e-09
1.17344e-09
1.17294e-09
1.17244e-09
1.17194e-09
1.17143e-09
1.17091e-09
1.17039e-09
1.16987e-09
1.16934e-09
1.16881e-09
1.16828e-09
1.16775e-09
1.16722e-09
1.16669e-09
1.16615e-09
1.16562e-09
1.16508e-09
1.16455e-09
1.164e-09
1.16346e-09
1.16291e-09
1.16236e-09
1.1618e-09
1.16125e-09
1.16069e-09
1.16014e-09
1.15959e-09
1.15903e-09
1.15849e-09
1.15794e-09
1.15739e-09
1.15683e-09
1.15625e-09
1.15565e-09
1.15502e-09
1.15437e-09
1.15368e-09
1.15297e-09
1.15222e-09
1.15146e-09
1.15068e-09
1.14989e-09
1.14909e-09
1.14829e-09
1.14749e-09
1.14671e-09
1.14594e-09
1.1452e-09
1.14449e-09
1.14382e-09
1.1432e-09
1.14262e-09
1.1421e-09
1.14162e-09
1.14119e-09
1.1408e-09
1.14044e-09
1.1401e-09
1.13978e-09
1.13947e-09
1.13915e-09
1.13881e-09
1.13846e-09
1.13808e-09
1.13768e-09
1.13725e-09
1.1368e-09
1.13631e-09
1.13581e-09
1.13528e-09
1.13473e-09
1.13417e-09
1.1336e-09
1.13302e-09
1.13243e-09
1.13184e-09
1.13125e-09
1.13066e-09
1.13007e-09
1.12949e-09
1.12891e-09
1.12833e-09
1.12776e-09
1.12719e-09
1.12662e-09
1.12605e-09
1.12549e-09
1.12493e-09
1.12437e-09
1.12381e-09
1.12325e-09
1.12269e-09
1.12213e-09
1.12157e-09
1.12101e-09
1.12045e-09
1.11989e-09
1.11932e-09
1.11876e-09
1.11819e-09
1.11763e-09
1.11706e-09
1.11649e-09
1.11592e-09
1.11534e-09
1.11477e-09
1.11419e-09
1.11362e-09
1.11304e-09
1.11246e-09
1.11188e-09
1.11129e-09
1.11071e-09
1.11012e-09
1.10953e-09
1.10894e-09
1.10835e-09
1.10776e-09
1.10716e-09
1.10657e-09
1.10597e-09
1.10537e-09
1.10477e-09
1.10417e-09
1.10356e-09
1.10296e-09
1.10235e-09
1.10174e-09
1.10113e-09
1.10052e-09
1.0999e-09
1.09928e-09
1.09867e-09
1.09805e-09
1.09743e-09
1.0968e-09
1.09618e-09
1.09556e-09
1.09493e-09
1.0943e-09
1.09368e-09
1.09305e-09
1.09242e-09
1.09179e-09
1.09116e-09
1.09052e-09
1.08989e-09
1.08925e-09
1.08862e-09
1.08798e-09
1.08734e-09
1.08671e-09
1.08607e-09
1.08543e-09
1.08479e-09
1.08415e-09
1.08351e-09
1.08287e-09
1.08222e-09
1.08158e-09
1.08092e-09
1.08027e-09
1.0796e-09
1.07893e-09
1.07825e-09
1.07755e-09
1.07685e-09
1.07613e-09
1.0754e-09
1.07467e-09
1.07392e-09
1.07315e-09
1.07238e-09
1.07161e-09
1.07082e-09
1.07003e-09
1.06924e-09
1.06845e-09
1.06766e-09
1.06688e-09
1.0661e-09
1.06534e-09
1.06459e-09
1.06386e-09
1.06315e-09
1.06245e-09
1.06178e-09
1.06113e-09
1.06051e-09
1.0599e-09
1.05932e-09
1.05875e-09
1.0582e-09
1.05767e-09
1.05715e-09
1.05663e-09
1.05612e-09
1.05561e-09
1.0551e-09
1.05459e-09
1.05407e-09
1.05354e-09
1.053e-09
1.05245e-09
1.05189e-09
1.05132e-09
1.05074e-09
1.05014e-09
1.04954e-09
1.04893e-09
1.0483e-09
1.04767e-09
1.04704e-09
1.0464e-09
1.04575e-09
1.0451e-09
1.04445e-09
1.04379e-09
1.04314e-09
1.04248e-09
1.04182e-09
1.04117e-09
1.04051e-09
1.03986e-09
1.0392e-09
1.03855e-09
1.03789e-09
1.03724e-09
1.03659e-09
1.03594e-09
1.03529e-09
1.03464e-09
1.03399e-09
1.03333e-09
1.03268e-09
1.03203e-09
1.03138e-09
1.03073e-09
1.03008e-09
1.02942e-09
1.02877e-09
1.02811e-09
1.02746e-09
1.0268e-09
1.02614e-09
1.02548e-09
1.02482e-09
1.02416e-09
1.0235e-09
1.02283e-09
1.02217e-09
1.0215e-09
1.02083e-09
1.02016e-09
1.01949e-09
1.01882e-09
1.01814e-09
1.01747e-09
1.01679e-09
1.01611e-09
1.01543e-09
1.01475e-09
1.01407e-09
1.01339e-09
1.0127e-09
1.01202e-09
1.01133e-09
1.01064e-09
1.00995e-09
1.00926e-09
1.00856e-09
1.00787e-09
1.00717e-09
1.00648e-09
1.00578e-09
1.00508e-09
1.00437e-09
1.00367e-09
1.00297e-09
1.00226e-09
1.00155e-09
1.00084e-09
1.00013e-09
9.99424e-10
9.98711e-10
9.97998e-10
9.97284e-10
9.96568e-10
9.95852e-10
9.95134e-10
9.94415e-10
9.93695e-10
9.92974e-10
9.92252e-10
9.91529e-10
9.90805e-10
9.9008e-10
9.89355e-10
9.88628e-10
9.879e-10
9.87172e-10
9.86442e-10
9.85711e-10
9.84979e-10
9.84245e-10
9.83509e-10
9.82771e-10
9.8203e-10
9.81286e-10
9.80539e-10
9.79788e-10
9.79033e-10
9.78273e-10
9.77507e-10
9.76737e-10
9.7596e-10
9.75178e-10
9.74389e-10
9.73594e-10
9.72793e-10
9.71986e-10
9.71173e-10
9.70354e-10
9.6953e-10
9.68703e-10
9.67871e-10
9.67037e-10
9.662e-10
9.65363e-10
9.64526e-10
9.6369e-10
9.62856e-10
9.62027e-10
9.61201e-10
9.60382e-10
9.5957e-10
9.58766e-10
9.57971e-10
9.57185e-10
9.5641e-10
9.55646e-10
9.54892e-10
9.54149e-10
9.53418e-10
9.52696e-10
9.51985e-10
9.51282e-10
9.50588e-10
9.49901e-10
9.49219e-10
9.48542e-10
9.47868e-10
9.47196e-10
9.46525e-10
9.45853e-10
9.45179e-10
9.44503e-10
9.43823e-10
9.43138e-10
9.42448e-10
9.41753e-10
9.41052e-10
9.40345e-10
9.39631e-10
9.38911e-10
9.38186e-10
9.37454e-10
9.36718e-10
9.35975e-10
9.35229e-10
9.34477e-10
9.33722e-10
9.32963e-10
9.32201e-10
9.31436e-10
9.30668e-10
9.29899e-10
9.29127e-10
9.28354e-10
9.2758e-10
9.26805e-10
9.26028e-10
9.25251e-10
9.24473e-10
9.23695e-10
9.22916e-10
9.22136e-10
9.21356e-10
9.20575e-10
9.19794e-10
9.19012e-10
9.18229e-10
9.17446e-10
9.16662e-10
9.15877e-10
9.15091e-10
9.14305e-10
9.13517e-10
9.12728e-10
9.11938e-10
9.11148e-10
9.10355e-10
9.09562e-10
9.08767e-10
9.07971e-10
9.07174e-10
9.06375e-10
9.05574e-10
9.04772e-10
9.03969e-10
9.03164e-10
9.02357e-10
9.01549e-10
9.0074e-10
8.99928e-10
8.99115e-10
8.98301e-10
8.97485e-10
8.96667e-10
8.95847e-10
8.95026e-10
8.94203e-10
8.93378e-10
8.92552e-10
8.91723e-10
8.90893e-10
8.90062e-10
8.89228e-10
8.88393e-10
8.87556e-10
8.86717e-10
8.85877e-10
8.85034e-10
8.8419e-10
8.83344e-10
8.82496e-10
8.81646e-10
8.80795e-10
8.79942e-10
8.79087e-10
8.7823e-10
8.77371e-10
8.76511e-10
8.75648e-10
8.74784e-10
8.73918e-10
8.73051e-10
8.72181e-10
8.7131e-10
8.70437e-10
8.69562e-10
8.68685e-10
8.67807e-10
8.66927e-10
8.66045e-10
8.65162e-10
8.64276e-10
8.63389e-10
8.625e-10
8.6161e-10
8.60717e-10
8.59823e-10
8.58927e-10
8.58029e-10
8.57128e-10
8.56226e-10
8.55322e-10
8.54415e-10
8.53507e-10
8.52595e-10
8.51681e-10
8.50764e-10
8.49844e-10
8.48922e-10
8.47995e-10
8.47065e-10
8.46132e-10
8.45195e-10
8.44253e-10
8.43308e-10
8.42358e-10
8.41404e-10
8.40445e-10
8.39482e-10
8.38514e-10
8.37542e-10
8.36565e-10
8.35584e-10
8.34598e-10
8.33609e-10
8.32615e-10
8.31618e-10
8.30618e-10
8.29615e-10
8.28609e-10
8.276e-10
8.26591e-10
8.2558e-10
8.24568e-10
8.23556e-10
8.22544e-10
8.21532e-10
8.20523e-10
8.19514e-10
8.18508e-10
8.17505e-10
8.16504e-10
8.15507e-10
8.14514e-10
8.13525e-10
8.12539e-10
8.11558e-10
8.10581e-10
8.09607e-10
8.08638e-10
8.07673e-10
8.0671e-10
8.05751e-10
8.04795e-10
8.0384e-10
8.02888e-10
8.01936e-10
8.00985e-10
8.00034e-10
7.99082e-10
7.98128e-10
7.97173e-10
7.96216e-10
7.95255e-10
7.94291e-10
7.93323e-10
7.92351e-10
7.91375e-10
7.90393e-10
7.89407e-10
7.88416e-10
7.87419e-10
7.86417e-10
7.8541e-10
7.84398e-10
7.8338e-10
7.82357e-10
7.81329e-10
7.80296e-10
7.79259e-10
7.78216e-10
7.77169e-10
7.76118e-10
7.75063e-10
7.74003e-10
7.7294e-10
7.71872e-10
7.70801e-10
7.69727e-10
7.68649e-10
7.67567e-10
7.66483e-10
7.65394e-10
7.64303e-10
7.63209e-10
7.62111e-10
7.6101e-10
7.59906e-10
7.58798e-10
7.57688e-10
7.56574e-10
7.55457e-10
7.54337e-10
7.53213e-10
7.52086e-10
7.50955e-10
7.49821e-10
7.48683e-10
7.47542e-10
7.46397e-10
7.45248e-10
7.44095e-10
7.42938e-10
7.41778e-10
7.40613e-10
7.39445e-10
7.38272e-10
7.37095e-10
7.35913e-10
7.34728e-10
7.33538e-10
7.32343e-10
7.31144e-10
7.29941e-10
7.28732e-10
7.2752e-10
7.26302e-10
7.2508e-10
7.23853e-10
7.22621e-10
7.21385e-10
7.20143e-10
7.18896e-10
7.17645e-10
7.16388e-10
7.15127e-10
7.1386e-10
7.12588e-10
7.11311e-10
7.10029e-10
7.08742e-10
7.07449e-10
7.06152e-10
7.04849e-10
7.03541e-10
7.02228e-10
7.0091e-10
6.99587e-10
6.98259e-10
6.96926e-10
6.95588e-10
6.94246e-10
6.929e-10
6.91549e-10
6.90195e-10
6.88837e-10
6.87475e-10
6.86111e-10
6.84744e-10
6.83375e-10
6.82005e-10
6.80636e-10
6.79266e-10
6.77898e-10
6.76533e-10
6.75171e-10
6.73816e-10
6.72469e-10
6.71131e-10
6.69805e-10
6.68492e-10
6.67197e-10
6.65923e-10
6.64671e-10
6.63447e-10
6.62254e-10
6.61094e-10
6.59972e-10
6.58892e-10
6.57858e-10
6.56873e-10
6.55939e-10
6.5506e-10
6.54237e-10
6.53471e-10
6.52764e-10
6.52118e-10
6.51528e-10
6.50996e-10
6.50518e-10
6.50091e-10
6.49715e-10
6.49384e-10
6.49095e-10
6.48844e-10
6.48626e-10
6.48438e-10
6.48272e-10
6.4813e-10
6.48e-10
6.47879e-10
6.47753e-10
6.4761e-10
6.47422e-10
6.47145e-10
6.46706e-10
6.45965e-10
6.44679e-10
6.42423e-10
6.38456e-10
6.31534e-10
6.19667e-10
5.99988e-10
5.69142e-10
5.24897e-10
4.69042e-10
4.09184e-10
3.55758e-10
3.15699e-10
2.89622e-10
2.74244e-10
2.65716e-10
2.61148e-10
2.58746e-10
2.57494e-10
2.56842e-10
2.56502e-10
2.56324e-10
2.56229e-10
2.56177e-10
2.56148e-10
2.56132e-10
2.56123e-10
2.56117e-10
2.56115e-10
2.56113e-10
2.56113e-10
2.56114e-10
2.56117e-10
2.56121e-10
2.56126e-10
2.56132e-10
2.56139e-10
2.56147e-10
2.56155e-10
2.56164e-10
2.56173e-10
2.56184e-10
2.56194e-10
2.56205e-10
2.56216e-10
2.56228e-10
2.56239e-10
2.56251e-10
2.56262e-10
2.56274e-10
2.56285e-10
2.56296e-10
2.56307e-10
2.56317e-10
2.56327e-10
2.56337e-10
2.56347e-10
2.56356e-10
2.56364e-10
2.56372e-10
2.5638e-10
2.56387e-10
2.56394e-10
2.564e-10
2.56406e-10
2.56412e-10
2.56417e-10
2.56422e-10
2.56427e-10
2.56431e-10
2.56435e-10
2.56438e-10
2.56442e-10
2.56445e-10
2.56448e-10
2.56451e-10
2.56454e-10
2.56457e-10
2.56459e-10
2.56462e-10
2.56464e-10
2.56467e-10
2.56469e-10
2.56471e-10
2.56474e-10
2.56476e-10
2.56479e-10
2.56481e-10
2.56484e-10
2.56486e-10
2.56489e-10
2.56492e-10
2.56494e-10
2.56497e-10
2.565e-10
2.56503e-10
2.56506e-10
2.56508e-10
2.56511e-10
2.56514e-10
2.56517e-10
2.5652e-10
2.56523e-10
2.56526e-10
2.56529e-10
2.56532e-10
2.56535e-10
2.56538e-10
2.56541e-10
2.56544e-10
2.56547e-10
2.5655e-10
2.56553e-10
2.56556e-10
2.56559e-10
2.56562e-10
2.56564e-10
2.56567e-10
2.5657e-10
2.56572e-10
2.56575e-10
2.56577e-10
2.56579e-10
2.56582e-10
2.56584e-10
2.56586e-10
2.56588e-10
2.5659e-10
2.56592e-10
2.56594e-10
2.56595e-10
2.56597e-10
2.56598e-10
2.566e-10
2.56601e-10
2.56602e-10
2.56603e-10
2.56604e-10
2.56605e-10
2.56606e-10
2.56607e-10
2.56607e-10
2.56608e-10
2.56608e-10
2.56609e-10
2.56609e-10
2.56609e-10
2.56609e-10
2.56609e-10
2.56609e-10
2.56609e-10
2.56608e-10
2.56608e-10
2.56607e-10
2.56607e-10
2.56606e-10
2.56605e-10
2.56604e-10
2.56603e-10
2.56602e-10
2.56601e-10
2.56599e-10
2.56598e-10
2.56596e-10
2.56595e-10
2.56593e-10
2.56592e-10
2.5659e-10
2.56588e-10
2.56586e-10
2.56584e-10
2.56581e-10
2.56579e-10
2.56577e-10
2.56574e-10
2.56571e-10
2.56569e-10
2.56566e-10
2.56563e-10
2.56559e-10
2.56556e-10
2.56552e-10
2.56548e-10
2.56544e-10
2.5654e-10
2.56535e-10
2.5653e-10
2.56525e-10
2.5652e-10
2.56514e-10
2.56508e-10
2.56502e-10
2.56495e-10
2.56488e-10
2.56481e-10
2.56473e-10
2.56465e-10
2.56457e-10
2.56448e-10
2.56438e-10
2.56429e-10
2.56419e-10
2.56408e-10
2.56398e-10
2.56387e-10
2.56375e-10
2.56364e-10
2.56352e-10
2.5634e-10
2.56328e-10
2.56316e-10
2.56304e-10
2.56291e-10
2.56279e-10
2.56267e-10
2.56255e-10
2.56243e-10
2.56231e-10
2.5622e-10
2.56209e-10
2.56198e-10
2.56188e-10
2.56178e-10
2.56169e-10
2.5616e-10
2.56152e-10
2.56145e-10
2.56138e-10
2.56132e-10
2.56127e-10
2.56122e-10
2.56119e-10
2.56116e-10
2.56114e-10
2.56113e-10
2.56113e-10
2.56113e-10
2.56114e-10
2.56115e-10
2.56117e-10
2.5612e-10
2.56125e-10
2.5613e-10
)
;

boundaryField
{
    inlet
    {
        type            calculated;
        value           uniform -1.13622e-09;
    }
    outlet
    {
        type            calculated;
        value           uniform 2.56136e-10;
    }
    emptyWalls
    {
        type            empty;
        value           nonuniform List<scalar> 0();
    }
}


// ************************************************************************* //
