/*--------------------------------*- C++ -*----------------------------------*\
  =========                 |
  \\      /  F ield         | OpenFOAM: The Open Source CFD Toolbox
   \\    /   O peration     | Website:  https://openfoam.org
    \\  /    A nd           | Version:  9
     \\/     M anipulation  |
\*---------------------------------------------------------------------------*/
FoamFile
{
    format      ascii;
    class       volScalarField;
    location    "11350";
    object      kra;
}
// * * * * * * * * * * * * * * * * * * * * * * * * * * * * * * * * * * * * * //

dimensions      [0 0 0 0 0 0 0];

internalField   nonuniform List<scalar> 
1000
(
0.000237197
0.000239266
0.00024187
0.000244388
0.000246871
0.000249348
0.000251706
0.000254065
0.000256057
0.000258129
0.0002596
0.000261331
0.00026303
0.000267827
0.000283881
0.000377432
0.000762499
0.000882181
0.000902692
0.000910211
0.000915728
0.000920852
0.000924925
0.0009281
0.00093002
0.000931292
0.000931771
0.000931762
0.000931489
0.000931283
0.000930404
0.000929956
0.000928789
0.000928098
0.000926846
0.0009256
0.000924192
0.000922642
0.000920881
0.00091886
0.000916464
0.000913547
0.000909973
0.000905655
0.000900732
0.000895363
0.00088978
0.000884083
0.000878354
0.000872629
0.000866945
0.000861313
0.000855751
0.000850261
0.000844855
0.000839531
0.000834293
0.000829141
0.000824075
0.000819093
0.000814195
0.000809381
0.000804648
0.000799996
0.000795422
0.000790926
0.000786506
0.00078216
0.000777887
0.000773685
0.000769551
0.000765485
0.000761484
0.000757546
0.000753672
0.000749858
0.000746103
0.000742406
0.000738764
0.000735176
0.000731639
0.000728149
0.000724706
0.000721306
0.000717947
0.000714627
0.000711344
0.000708099
0.000704894
0.000701732
0.000698619
0.000695557
0.000692547
0.000689587
0.000686671
0.000683794
0.00068095
0.000678137
0.000675359
0.000672624
0.000669945
0.000667338
0.000664818
0.000662401
0.000660097
0.000657911
0.000655843
0.000653889
0.000652039
0.000650281
0.0006486
0.000646977
0.000645392
0.000643824
0.000642246
0.000640635
0.00063896
0.000637197
0.000635318
0.0006333
0.000631126
0.000628784
0.000626271
0.000623594
0.000620766
0.00061781
0.000614755
0.000611636
0.000608488
0.000605347
0.000602248
0.000599218
0.000596282
0.000593457
0.000590754
0.000588178
0.000585728
0.000583398
0.000581181
0.000579064
0.000577034
0.000575079
0.000573183
0.000571335
0.000569523
0.000567736
0.000565967
0.000564207
0.000562453
0.0005607
0.000558945
0.000557188
0.000555428
0.000553666
0.000551903
0.000550139
0.000548377
0.000546618
0.000544864
0.000543117
0.000541378
0.000539648
0.000537928
0.00053622
0.000534525
0.000532843
0.000531175
0.000529521
0.000527882
0.000526257
0.000524647
0.000523051
0.00052147
0.000519902
0.000518349
0.000516809
0.000515282
0.000513768
0.000512266
0.000510777
0.000509299
0.000507833
0.000506378
0.000504934
0.000503501
0.000502079
0.000500667
0.000499266
0.000497876
0.000496496
0.000495126
0.000493767
0.000492418
0.000491079
0.00048975
0.000488432
0.000487124
0.000485826
0.000484539
0.000483261
0.000481993
0.000480735
0.000479487
0.000478249
0.00047702
0.000475801
0.000474592
0.000473391
0.000472201
0.000471018
0.000469846
0.000468682
0.000467527
0.000466381
0.000465243
0.000464113
0.000462992
0.000461878
0.000460772
0.000459672
0.00045858
0.000457494
0.000456415
0.000455341
0.000454274
0.000453211
0.000452156
0.000451104
0.000450061
0.000449021
0.00044799
0.000446962
0.000445945
0.000444928
0.000443925
0.00044292
0.000441933
0.000440939
0.000439968
0.00043899
0.000438037
0.000437077
0.000436147
0.000435211
0.000434308
0.000433405
0.000432536
0.000431674
0.000430846
0.000430033
0.000429252
0.000428493
0.000427763
0.00042706
0.000426382
0.000425732
0.000425104
0.0004245
0.000423913
0.000423342
0.000422783
0.000422229
0.000421678
0.000421123
0.000420558
0.000419978
0.000419376
0.000418746
0.000418083
0.000417382
0.000416638
0.000415847
0.000415006
0.000414115
0.000413173
0.00041218
0.00041114
0.000410054
0.000408929
0.00040777
0.000406583
0.000405376
0.000404155
0.000402928
0.000401703
0.000400485
0.00039928
0.000398095
0.000396934
0.000395799
0.000394693
0.000393619
0.000392576
0.000391564
0.000390584
0.000389632
0.000388709
0.00038781
0.000386935
0.00038608
0.000385242
0.000384421
0.000383612
0.000382813
0.000382023
0.00038124
0.000380461
0.000379686
0.000378912
0.00037814
0.000377368
0.000376595
0.000375822
0.000375048
0.000374273
0.000373496
0.000372719
0.000371941
0.000371162
0.000370384
0.000369605
0.000368826
0.000368049
0.000367272
0.000366497
0.000365723
0.000364951
0.000364182
0.000363415
0.00036265
0.000361888
0.00036113
0.000360374
0.000359621
0.000358872
0.000358126
0.000357383
0.000356643
0.000355907
0.000355174
0.000354445
0.000353718
0.000352995
0.000352276
0.000351559
0.000350846
0.000350136
0.000349429
0.000348725
0.000348024
0.000347326
0.00034663
0.000345938
0.000345249
0.000344562
0.000343878
0.000343197
0.000342518
0.000341842
0.000341169
0.000340498
0.000339829
0.000339164
0.0003385
0.000337839
0.000337181
0.000336524
0.00033587
0.000335219
0.00033457
0.000333923
0.000333278
0.000332636
0.000331995
0.000331358
0.000330722
0.000330088
0.000329456
0.000328827
0.000328199
0.000327574
0.000326951
0.000326329
0.000325709
0.000325091
0.000324475
0.000323861
0.000323248
0.000322636
0.000322026
0.000321418
0.00032081
0.000320205
0.0003196
0.000318996
0.000318394
0.000317793
0.000317193
0.000316594
0.000315996
0.0003154
0.000314804
0.00031421
0.000313617
0.000313026
0.000312437
0.000311849
0.000311263
0.00031068
0.000310099
0.000309521
0.000308947
0.000308376
0.00030781
0.000307248
0.000306692
0.000306142
0.000305599
0.000305063
0.000304536
0.00030402
0.000303514
0.00030302
0.000302539
0.000302073
0.000301623
0.000301189
0.000300777
0.000300384
0.000300014
0.000299669
0.00029935
0.000299059
0.000298797
0.000298567
0.000298367
0.000298201
0.000298064
0.00029796
0.000297884
0.000297835
0.00029781
0.000297804
0.000297808
0.00029781
0.000297806
0.000297771
0.000297653
0.000297402
0.000296909
0.000295997
0.00029438
0.000291648
0.000287306
0.000281019
0.000273088
0.000264808
0.000257926
0.000253368
0.00025083
0.00024953
0.000248853
0.000248464
0.000248206
0.000248008
0.000247837
0.000247678
0.000247525
0.000247374
0.000247226
0.00024708
0.000246938
0.000246799
0.000246665
0.000246537
0.000246415
0.0002463
0.000246192
0.000246091
0.000245998
0.000245913
0.000245835
0.000245764
0.000245701
0.000245644
0.000245593
0.000245549
0.000245509
0.000245475
0.000245445
0.000245419
0.000245395
0.000245375
0.000245357
0.000245341
0.000245326
0.000245312
0.000245299
0.000245286
0.000245273
0.00024526
0.000245246
0.000245232
0.000245217
0.000245201
0.000245184
0.000245166
0.000245147
0.000245127
0.000245106
0.000245084
0.00024506
0.000245036
0.000245011
0.000244985
0.000244959
0.000244932
0.000244904
0.000244876
0.000244848
0.000244819
0.00024479
0.000244762
0.000244733
0.000244705
0.000244676
0.000244648
0.000244621
0.000244594
0.000244567
0.000244541
0.000244516
0.000244491
0.000244467
0.000244443
0.000244421
0.000244399
0.000244378
0.000244358
0.000244339
0.00024432
0.000244302
0.000244285
0.000244269
0.000244254
0.000244239
0.000244225
0.000244212
0.0002442
0.000244188
0.000244177
0.000244167
0.000244157
0.000244148
0.00024414
0.000244132
0.000244124
0.000244118
0.000244112
0.000244106
0.000244101
0.000244097
0.000244093
0.000244089
0.000244087
0.000244084
0.000244083
0.000244082
0.000244081
0.000244081
0.000244081
0.000244081
0.000244083
0.000244085
0.000244088
0.000244091
0.000244095
0.000244099
0.000244104
0.000244109
0.000244116
0.000244122
0.00024413
0.000244137
0.000244146
0.000244155
0.000244164
0.000244174
0.000244185
0.000244196
0.000244207
0.000244219
0.000244232
0.000244245
0.000244259
0.000244273
0.000244288
0.000244303
0.000244319
0.000244335
0.000244352
0.00024437
0.000244388
0.000244407
0.000244427
0.000244447
0.000244469
0.000244491
0.000244515
0.00024454
0.000244567
0.000244594
0.000244624
0.000244654
0.000244688
0.000244723
0.00024476
0.0002448
0.000244843
0.000244888
0.000244937
0.000244988
0.000245044
0.000245103
0.000245166
0.000245232
0.000245303
0.000245378
0.000245457
0.00024554
0.000245629
0.00024572
0.000245817
0.000245918
0.000246022
0.000246131
0.000246243
0.000246358
0.000246476
0.000246596
0.000246719
0.000246843
0.000246968
0.000247093
0.000247219
0.000247342
0.000247464
0.000247584
0.0002477
0.000247812
0.000247919
0.00024802
0.000248115
0.000248201
0.00024828
0.00024835
0.000248411
0.000248461
0.000248501
0.000248529
0.000248545
0.000248551
0.000248552
0.00024855
0.000248539
0.000248501
0.00024845
0.000248388
0.000248317
0.000248236
0.000248146
0.00024805
0.000247946
0.000247837
0.000247722
0.000247605
0.000247484
0.000247362
0.000247239
0.000247117
0.000246995
0.000246875
0.000246758
0.000246645
0.000246535
0.000246429
0.000246328
0.000246233
0.000246142
0.000246057
0.000245976
0.000245902
0.000245832
0.000245768
0.000245708
0.000245653
0.000245602
0.000245556
0.000245513
0.000245473
0.000245437
0.000245403
0.000245372
0.000245342
0.000245315
0.000245289
0.000245263
0.000245239
0.000245216
0.000245193
0.00024517
0.000245148
0.000245125
0.000245102
0.000245079
0.000245056
0.000245032
0.000245008
0.000244983
0.000244958
0.000244932
0.000244906
0.000244879
0.000244852
0.000244825
0.000244797
0.00024477
0.000244742
0.000244713
0.000244685
0.000244657
0.000244629
0.000244601
0.000244573
0.000244546
0.000244519
0.000244492
0.000244466
0.00024444
0.000244415
0.00024439
0.000244366
0.000244343
0.00024432
0.000244298
0.000244277
0.000244257
0.000244237
0.000244218
0.000244201
0.000244184
0.000244167
0.000244152
0.000244137
0.000244124
0.000244111
0.000244099
0.000244088
0.000244078
0.000244068
0.00024406
0.000244052
0.000244045
0.000244038
0.000244033
0.000244028
0.000244024
0.000244021
0.000244018
0.000244016
0.000244015
0.000244014
0.000244014
0.000244014
0.000244014
0.000244016
0.000244018
0.000244021
0.000244025
0.000244029
0.000244034
0.000244039
0.000244045
0.000244051
0.000244058
0.000244066
0.000244073
0.000244082
0.000244091
0.0002441
0.00024411
0.00024412
0.000244131
0.000244143
0.000244154
0.000244167
0.000244179
0.000244192
0.000244206
0.00024422
0.000244235
0.00024425
0.000244266
0.000244282
0.000244299
0.000244317
0.000244334
0.000244353
0.000244373
0.000244393
0.000244414
0.000244436
0.000244459
0.000244483
0.000244508
0.000244534
0.000244561
0.000244591
0.000244621
0.000244653
0.000244687
0.000244722
0.00024476
0.0002448
0.000244842
0.000244886
0.000244933
0.000244983
0.000245035
0.000245091
0.000245149
0.00024521
0.000245274
0.000245342
0.000245413
0.000245487
0.000245564
0.000245645
0.000245728
0.000245815
0.000245904
0.000245997
0.000246092
0.000246189
0.000246289
0.00024639
0.000246493
0.000246597
0.000246702
0.000246807
0.000246912
0.000247017
0.000247121
0.000247223
0.000247322
0.00024742
0.000247513
0.000247603
0.000247689
0.00024777
0.000247845
0.000247914
0.000247976
0.000248032
0.000248079
0.00024812
0.000248151
0.000248174
0.000248188
0.000248193
0.000248194
0.000248193
0.000248187
0.000248158
0.00024812
0.000248072
0.000248017
0.000247954
0.000247885
0.000247808
0.000247726
0.000247639
0.000247547
0.000247451
0.000247353
0.000247252
0.00024715
0.000247047
0.000246943
0.000246841
0.000246739
0.000246639
0.000246541
0.000246446
0.000246354
0.000246265
0.00024618
0.000246099
0.000246021
0.000245948
0.000245878
0.000245813
0.000245752
0.000245694
0.00024564
0.00024559
0.000245543
0.000245499
0.000245459
0.000245421
0.000245386
0.000245353
0.000245322
0.000245292
0.000245265
0.000245239
0.000245214
0.00024519
0.000245166
0.000245144
0.000245122
0.0002451
0.000245079
0.000245057
0.000245036
0.000245015
0.000244993
0.000244972
0.00024495
0.000244928
0.000244906
0.000244883
0.000244861
0.000244838
0.000244815
0.000244791
0.000244768
0.000244744
0.00024472
0.000244697
0.000244673
0.000244649
0.000244625
0.000244602
0.000244578
0.000244555
0.000244532
0.00024451
0.000244487
0.000244465
0.000244444
0.000244423
0.000244402
0.000244382
0.000244363
0.000244344
0.000244326
0.000244308
0.000244291
0.000244275
0.00024426
0.000244245
0.000244231
0.000244218
0.000244205
0.000244194
0.000244183
0.000244173
0.000244163
0.000244155
0.000244147
0.00024414
0.000244134
0.000244129
0.000244124
0.00024412
0.000244117
0.000244114
0.000244112
0.000244111
0.000244111
0.000244111
0.000244111
0.000244112
0.000244113
0.000244116
0.000244117
0.000244123
0.000244125
0.000244132
0.000244134
0.000244143
0.000244146
0.000244157
0.00024416
0.000244172
0.000244175
0.000244189
0.000244193
0.000244227
)
;

boundaryField
{
    inlet
    {
        type            calculated;
        value           uniform 0.000236304;
    }
    outlet
    {
        type            calculated;
        value           uniform 0.00024421;
    }
    emptyWalls
    {
        type            empty;
    }
}


// ************************************************************************* //
