/*--------------------------------*- C++ -*----------------------------------*\
  =========                 |
  \\      /  F ield         | OpenFOAM: The Open Source CFD Toolbox
   \\    /   O peration     | Website:  https://openfoam.org
    \\  /    A nd           | Version:  9
     \\/     M anipulation  |
\*---------------------------------------------------------------------------*/
FoamFile
{
    format      ascii;
    class       volVectorField;
    location    "6000";
    object      Ub;
}
// * * * * * * * * * * * * * * * * * * * * * * * * * * * * * * * * * * * * * //

dimensions      [0 0 0 0 0 0 0];

internalField   nonuniform List<vector> 
1000
(
(1.13621e-05 0 0)
(1.13629e-05 0 0)
(1.13639e-05 0 0)
(1.13652e-05 0 0)
(1.13668e-05 0 0)
(1.13698e-05 0 0)
(1.13795e-05 0 0)
(1.1431e-05 0 0)
(1.16005e-05 0 0)
(1.17482e-05 0 0)
(1.17768e-05 0 0)
(1.17866e-05 0 0)
(1.17918e-05 0 0)
(1.1795e-05 0 0)
(1.17967e-05 0 0)
(1.17973e-05 0 0)
(1.17972e-05 0 0)
(1.17966e-05 0 0)
(1.17953e-05 0 0)
(1.17933e-05 0 0)
(1.17898e-05 0 0)
(1.1784e-05 0 0)
(1.17747e-05 0 0)
(1.17617e-05 0 0)
(1.1746e-05 0 0)
(1.17285e-05 0 0)
(1.17097e-05 0 0)
(1.16903e-05 0 0)
(1.16706e-05 0 0)
(1.16508e-05 0 0)
(1.16313e-05 0 0)
(1.16121e-05 0 0)
(1.15933e-05 0 0)
(1.15753e-05 0 0)
(1.1558e-05 0 0)
(1.15418e-05 0 0)
(1.15266e-05 0 0)
(1.15125e-05 0 0)
(1.14992e-05 0 0)
(1.14867e-05 0 0)
(1.14746e-05 0 0)
(1.14625e-05 0 0)
(1.14503e-05 0 0)
(1.14374e-05 0 0)
(1.14238e-05 0 0)
(1.14093e-05 0 0)
(1.13939e-05 0 0)
(1.13775e-05 0 0)
(1.13602e-05 0 0)
(1.13421e-05 0 0)
(1.13235e-05 0 0)
(1.13043e-05 0 0)
(1.12849e-05 0 0)
(1.12653e-05 0 0)
(1.12456e-05 0 0)
(1.12259e-05 0 0)
(1.12063e-05 0 0)
(1.11868e-05 0 0)
(1.11674e-05 0 0)
(1.11481e-05 0 0)
(1.11289e-05 0 0)
(1.11098e-05 0 0)
(1.10907e-05 0 0)
(1.10717e-05 0 0)
(1.10528e-05 0 0)
(1.10338e-05 0 0)
(1.10148e-05 0 0)
(1.09958e-05 0 0)
(1.09768e-05 0 0)
(1.09577e-05 0 0)
(1.09386e-05 0 0)
(1.09194e-05 0 0)
(1.09002e-05 0 0)
(1.08809e-05 0 0)
(1.08615e-05 0 0)
(1.08421e-05 0 0)
(1.08226e-05 0 0)
(1.08031e-05 0 0)
(1.07835e-05 0 0)
(1.07638e-05 0 0)
(1.07441e-05 0 0)
(1.07243e-05 0 0)
(1.07044e-05 0 0)
(1.06845e-05 0 0)
(1.06644e-05 0 0)
(1.06444e-05 0 0)
(1.06242e-05 0 0)
(1.06039e-05 0 0)
(1.05836e-05 0 0)
(1.05632e-05 0 0)
(1.05427e-05 0 0)
(1.05221e-05 0 0)
(1.05015e-05 0 0)
(1.04808e-05 0 0)
(1.046e-05 0 0)
(1.04391e-05 0 0)
(1.04182e-05 0 0)
(1.03972e-05 0 0)
(1.03761e-05 0 0)
(1.0355e-05 0 0)
(1.03338e-05 0 0)
(1.03125e-05 0 0)
(1.02912e-05 0 0)
(1.02698e-05 0 0)
(1.02483e-05 0 0)
(1.02267e-05 0 0)
(1.02051e-05 0 0)
(1.01834e-05 0 0)
(1.01617e-05 0 0)
(1.01399e-05 0 0)
(1.01179e-05 0 0)
(1.0096e-05 0 0)
(1.00739e-05 0 0)
(1.00518e-05 0 0)
(1.00296e-05 0 0)
(1.00073e-05 0 0)
(9.9849e-06 0 0)
(9.96244e-06 0 0)
(9.93988e-06 0 0)
(9.91724e-06 0 0)
(9.89451e-06 0 0)
(9.87168e-06 0 0)
(9.84876e-06 0 0)
(9.82575e-06 0 0)
(9.80264e-06 0 0)
(9.77944e-06 0 0)
(9.75615e-06 0 0)
(9.73277e-06 0 0)
(9.70929e-06 0 0)
(9.68572e-06 0 0)
(9.66205e-06 0 0)
(9.6383e-06 0 0)
(9.61446e-06 0 0)
(9.59053e-06 0 0)
(9.56651e-06 0 0)
(9.54241e-06 0 0)
(9.51821e-06 0 0)
(9.49393e-06 0 0)
(9.46956e-06 0 0)
(9.44511e-06 0 0)
(9.42057e-06 0 0)
(9.39594e-06 0 0)
(9.37122e-06 0 0)
(9.34641e-06 0 0)
(9.32151e-06 0 0)
(9.29651e-06 0 0)
(9.27142e-06 0 0)
(9.24622e-06 0 0)
(9.22091e-06 0 0)
(9.1955e-06 0 0)
(9.16997e-06 0 0)
(9.14433e-06 0 0)
(9.11857e-06 0 0)
(9.09269e-06 0 0)
(9.06669e-06 0 0)
(9.04057e-06 0 0)
(9.01432e-06 0 0)
(8.98794e-06 0 0)
(8.96143e-06 0 0)
(8.93478e-06 0 0)
(8.90799e-06 0 0)
(8.88105e-06 0 0)
(8.85394e-06 0 0)
(8.82666e-06 0 0)
(8.7992e-06 0 0)
(8.77155e-06 0 0)
(8.74369e-06 0 0)
(8.71562e-06 0 0)
(8.68733e-06 0 0)
(8.65881e-06 0 0)
(8.63005e-06 0 0)
(8.60106e-06 0 0)
(8.57183e-06 0 0)
(8.54238e-06 0 0)
(8.5127e-06 0 0)
(8.48281e-06 0 0)
(8.45271e-06 0 0)
(8.42243e-06 0 0)
(8.39198e-06 0 0)
(8.36137e-06 0 0)
(8.33064e-06 0 0)
(8.29979e-06 0 0)
(8.26885e-06 0 0)
(8.23785e-06 0 0)
(8.2068e-06 0 0)
(8.17571e-06 0 0)
(8.14461e-06 0 0)
(8.11351e-06 0 0)
(8.08241e-06 0 0)
(8.05132e-06 0 0)
(8.02023e-06 0 0)
(7.98914e-06 0 0)
(7.95802e-06 0 0)
(7.92686e-06 0 0)
(7.89562e-06 0 0)
(7.86428e-06 0 0)
(7.83279e-06 0 0)
(7.80111e-06 0 0)
(7.7692e-06 0 0)
(7.73702e-06 0 0)
(7.70452e-06 0 0)
(7.67167e-06 0 0)
(7.63843e-06 0 0)
(7.60479e-06 0 0)
(7.57071e-06 0 0)
(7.53617e-06 0 0)
(7.50116e-06 0 0)
(7.46566e-06 0 0)
(7.42968e-06 0 0)
(7.39321e-06 0 0)
(7.35625e-06 0 0)
(7.31882e-06 0 0)
(7.28093e-06 0 0)
(7.2426e-06 0 0)
(7.20385e-06 0 0)
(7.1647e-06 0 0)
(7.1252e-06 0 0)
(7.08538e-06 0 0)
(7.04533e-06 0 0)
(7.00512e-06 0 0)
(6.96487e-06 0 0)
(6.9247e-06 0 0)
(6.88478e-06 0 0)
(6.84531e-06 0 0)
(6.80653e-06 0 0)
(6.7687e-06 0 0)
(6.73209e-06 0 0)
(6.69697e-06 0 0)
(6.66353e-06 0 0)
(6.63181e-06 0 0)
(6.6016e-06 0 0)
(6.5722e-06 0 0)
(6.54209e-06 0 0)
(6.50837e-06 0 0)
(6.46576e-06 0 0)
(6.40508e-06 0 0)
(6.31126e-06 0 0)
(6.16118e-06 0 0)
(5.92405e-06 0 0)
(5.56923e-06 0 0)
(5.08681e-06 0 0)
(4.51323e-06 0 0)
(3.93344e-06 0 0)
(3.43991e-06 0 0)
(3.08164e-06 0 0)
(2.85293e-06 0 0)
(2.71961e-06 0 0)
(2.64622e-06 0 0)
(2.60717e-06 0 0)
(2.58678e-06 0 0)
(2.57625e-06 0 0)
(2.57086e-06 0 0)
(2.56813e-06 0 0)
(2.56675e-06 0 0)
(2.56608e-06 0 0)
(2.56577e-06 0 0)
(2.56563e-06 0 0)
(2.5656e-06 0 0)
(2.56561e-06 0 0)
(2.56564e-06 0 0)
(2.56569e-06 0 0)
(2.56574e-06 0 0)
(2.5658e-06 0 0)
(2.56585e-06 0 0)
(2.5659e-06 0 0)
(2.56596e-06 0 0)
(2.56601e-06 0 0)
(2.56606e-06 0 0)
(2.5661e-06 0 0)
(2.56615e-06 0 0)
(2.56619e-06 0 0)
(2.56623e-06 0 0)
(2.56627e-06 0 0)
(2.56631e-06 0 0)
(2.56635e-06 0 0)
(2.56638e-06 0 0)
(2.56642e-06 0 0)
(2.56645e-06 0 0)
(2.56648e-06 0 0)
(2.56651e-06 0 0)
(2.56653e-06 0 0)
(2.56656e-06 0 0)
(2.56658e-06 0 0)
(2.5666e-06 0 0)
(2.56663e-06 0 0)
(2.56665e-06 0 0)
(2.56667e-06 0 0)
(2.56669e-06 0 0)
(2.5667e-06 0 0)
(2.56672e-06 0 0)
(2.56674e-06 0 0)
(2.56675e-06 0 0)
(2.56677e-06 0 0)
(2.56678e-06 0 0)
(2.5668e-06 0 0)
(2.56681e-06 0 0)
(2.56683e-06 0 0)
(2.56684e-06 0 0)
(2.56685e-06 0 0)
(2.56686e-06 0 0)
(2.56688e-06 0 0)
(2.56689e-06 0 0)
(2.5669e-06 0 0)
(2.56691e-06 0 0)
(2.56692e-06 0 0)
(2.56692e-06 0 0)
(2.56693e-06 0 0)
(2.56694e-06 0 0)
(2.56694e-06 0 0)
(2.56694e-06 0 0)
(2.56695e-06 0 0)
(2.56694e-06 0 0)
(2.56694e-06 0 0)
(2.56694e-06 0 0)
(2.56693e-06 0 0)
(2.56692e-06 0 0)
(2.56691e-06 0 0)
(2.5669e-06 0 0)
(2.56688e-06 0 0)
(2.56686e-06 0 0)
(2.56684e-06 0 0)
(2.56682e-06 0 0)
(2.56679e-06 0 0)
(2.56677e-06 0 0)
(2.56673e-06 0 0)
(2.5667e-06 0 0)
(2.56666e-06 0 0)
(2.56662e-06 0 0)
(2.56658e-06 0 0)
(2.56654e-06 0 0)
(2.5665e-06 0 0)
(2.56645e-06 0 0)
(2.5664e-06 0 0)
(2.56635e-06 0 0)
(2.5663e-06 0 0)
(2.56625e-06 0 0)
(2.5662e-06 0 0)
(2.56614e-06 0 0)
(2.56608e-06 0 0)
(2.56603e-06 0 0)
(2.56597e-06 0 0)
(2.56591e-06 0 0)
(2.56585e-06 0 0)
(2.56579e-06 0 0)
(2.56573e-06 0 0)
(2.56566e-06 0 0)
(2.5656e-06 0 0)
(2.56554e-06 0 0)
(2.56547e-06 0 0)
(2.5654e-06 0 0)
(2.56533e-06 0 0)
(2.56526e-06 0 0)
(2.56519e-06 0 0)
(2.56512e-06 0 0)
(2.56504e-06 0 0)
(2.56496e-06 0 0)
(2.56487e-06 0 0)
(2.56479e-06 0 0)
(2.56469e-06 0 0)
(2.5646e-06 0 0)
(2.56449e-06 0 0)
(2.56438e-06 0 0)
(2.56427e-06 0 0)
(2.56414e-06 0 0)
(2.56401e-06 0 0)
(2.56387e-06 0 0)
(2.56372e-06 0 0)
(2.56356e-06 0 0)
(2.56339e-06 0 0)
(2.56321e-06 0 0)
(2.56302e-06 0 0)
(2.56282e-06 0 0)
(2.56261e-06 0 0)
(2.56239e-06 0 0)
(2.56216e-06 0 0)
(2.56192e-06 0 0)
(2.56168e-06 0 0)
(2.56142e-06 0 0)
(2.56117e-06 0 0)
(2.56091e-06 0 0)
(2.56065e-06 0 0)
(2.56039e-06 0 0)
(2.56013e-06 0 0)
(2.55988e-06 0 0)
(2.55964e-06 0 0)
(2.55941e-06 0 0)
(2.55919e-06 0 0)
(2.55899e-06 0 0)
(2.55881e-06 0 0)
(2.55866e-06 0 0)
(2.55852e-06 0 0)
(2.55842e-06 0 0)
(2.55835e-06 0 0)
(2.5583e-06 0 0)
(2.55829e-06 0 0)
(2.55828e-06 0 0)
(2.55829e-06 0 0)
(2.55834e-06 0 0)
(2.55845e-06 0 0)
(2.5586e-06 0 0)
(2.55878e-06 0 0)
(2.55899e-06 0 0)
(2.55923e-06 0 0)
(2.55948e-06 0 0)
(2.55976e-06 0 0)
(2.56005e-06 0 0)
(2.56035e-06 0 0)
(2.56066e-06 0 0)
(2.56097e-06 0 0)
(2.56127e-06 0 0)
(2.56157e-06 0 0)
(2.56187e-06 0 0)
(2.56215e-06 0 0)
(2.56242e-06 0 0)
(2.56267e-06 0 0)
(2.5629e-06 0 0)
(2.56311e-06 0 0)
(2.5633e-06 0 0)
(2.56347e-06 0 0)
(2.56362e-06 0 0)
(2.56374e-06 0 0)
(2.56385e-06 0 0)
(2.56394e-06 0 0)
(2.56401e-06 0 0)
(2.56407e-06 0 0)
(2.56411e-06 0 0)
(2.56414e-06 0 0)
(2.56416e-06 0 0)
(2.56417e-06 0 0)
(2.56417e-06 0 0)
(2.56417e-06 0 0)
(2.56416e-06 0 0)
(2.56414e-06 0 0)
(2.56412e-06 0 0)
(2.5641e-06 0 0)
(2.56407e-06 0 0)
(2.56405e-06 0 0)
(2.56403e-06 0 0)
(2.56401e-06 0 0)
(2.56399e-06 0 0)
(2.56398e-06 0 0)
(2.56397e-06 0 0)
(2.56396e-06 0 0)
(2.56396e-06 0 0)
(2.56396e-06 0 0)
(2.56396e-06 0 0)
(2.56396e-06 0 0)
(2.56397e-06 0 0)
(2.56399e-06 0 0)
(2.564e-06 0 0)
(2.56403e-06 0 0)
(2.56405e-06 0 0)
(2.56408e-06 0 0)
(2.56411e-06 0 0)
(2.56415e-06 0 0)
(2.56419e-06 0 0)
(2.56423e-06 0 0)
(2.56427e-06 0 0)
(2.56431e-06 0 0)
(2.56436e-06 0 0)
(2.5644e-06 0 0)
(2.56445e-06 0 0)
(2.5645e-06 0 0)
(2.56455e-06 0 0)
(2.5646e-06 0 0)
(2.56466e-06 0 0)
(2.56471e-06 0 0)
(2.56477e-06 0 0)
(2.56482e-06 0 0)
(2.56488e-06 0 0)
(2.56493e-06 0 0)
(2.56499e-06 0 0)
(2.56505e-06 0 0)
(2.5651e-06 0 0)
(2.56516e-06 0 0)
(2.56522e-06 0 0)
(2.56527e-06 0 0)
(2.56533e-06 0 0)
(2.56538e-06 0 0)
(2.56544e-06 0 0)
(2.56549e-06 0 0)
(2.56554e-06 0 0)
(2.56559e-06 0 0)
(2.56565e-06 0 0)
(2.5657e-06 0 0)
(2.56574e-06 0 0)
(2.56579e-06 0 0)
(2.56584e-06 0 0)
(2.56588e-06 0 0)
(2.56592e-06 0 0)
(2.56596e-06 0 0)
(2.566e-06 0 0)
(2.56604e-06 0 0)
(2.56608e-06 0 0)
(2.56612e-06 0 0)
(2.56616e-06 0 0)
(2.56619e-06 0 0)
(2.56623e-06 0 0)
(2.56626e-06 0 0)
(2.56629e-06 0 0)
(2.56632e-06 0 0)
(2.56635e-06 0 0)
(2.56637e-06 0 0)
(2.56639e-06 0 0)
(2.56642e-06 0 0)
(2.56644e-06 0 0)
(2.56645e-06 0 0)
(2.56647e-06 0 0)
(2.56649e-06 0 0)
(2.5665e-06 0 0)
(2.56651e-06 0 0)
(2.56652e-06 0 0)
(2.56653e-06 0 0)
(2.56653e-06 0 0)
(2.56654e-06 0 0)
(2.56654e-06 0 0)
(2.56654e-06 0 0)
(2.56654e-06 0 0)
(2.56654e-06 0 0)
(2.56654e-06 0 0)
(2.56654e-06 0 0)
(2.56654e-06 0 0)
(2.56654e-06 0 0)
(2.56654e-06 0 0)
(2.56653e-06 0 0)
(2.56653e-06 0 0)
(2.56652e-06 0 0)
(2.56652e-06 0 0)
(2.56651e-06 0 0)
(2.5665e-06 0 0)
(2.5665e-06 0 0)
(2.56649e-06 0 0)
(2.56647e-06 0 0)
(2.56646e-06 0 0)
(2.56645e-06 0 0)
(2.56643e-06 0 0)
(2.56642e-06 0 0)
(2.5664e-06 0 0)
(2.56638e-06 0 0)
(2.56636e-06 0 0)
(2.56633e-06 0 0)
(2.56631e-06 0 0)
(2.56628e-06 0 0)
(2.56625e-06 0 0)
(2.56622e-06 0 0)
(2.56618e-06 0 0)
(2.56615e-06 0 0)
(2.56611e-06 0 0)
(2.56607e-06 0 0)
(2.56602e-06 0 0)
(2.56598e-06 0 0)
(2.56593e-06 0 0)
(2.56587e-06 0 0)
(2.56582e-06 0 0)
(2.56576e-06 0 0)
(2.5657e-06 0 0)
(2.56564e-06 0 0)
(2.56557e-06 0 0)
(2.56551e-06 0 0)
(2.56543e-06 0 0)
(2.56536e-06 0 0)
(2.56528e-06 0 0)
(2.5652e-06 0 0)
(2.56512e-06 0 0)
(2.56503e-06 0 0)
(2.56494e-06 0 0)
(2.56485e-06 0 0)
(2.56475e-06 0 0)
(2.56465e-06 0 0)
(2.56454e-06 0 0)
(2.56443e-06 0 0)
(2.56431e-06 0 0)
(2.56419e-06 0 0)
(2.56406e-06 0 0)
(2.56392e-06 0 0)
(2.56378e-06 0 0)
(2.56364e-06 0 0)
(2.56348e-06 0 0)
(2.56332e-06 0 0)
(2.56316e-06 0 0)
(2.56298e-06 0 0)
(2.5628e-06 0 0)
(2.56261e-06 0 0)
(2.56242e-06 0 0)
(2.56222e-06 0 0)
(2.56202e-06 0 0)
(2.56181e-06 0 0)
(2.5616e-06 0 0)
(2.56138e-06 0 0)
(2.56117e-06 0 0)
(2.56095e-06 0 0)
(2.56073e-06 0 0)
(2.56051e-06 0 0)
(2.5603e-06 0 0)
(2.56009e-06 0 0)
(2.55989e-06 0 0)
(2.5597e-06 0 0)
(2.55951e-06 0 0)
(2.55934e-06 0 0)
(2.55918e-06 0 0)
(2.55904e-06 0 0)
(2.55892e-06 0 0)
(2.55881e-06 0 0)
(2.55872e-06 0 0)
(2.55866e-06 0 0)
(2.55862e-06 0 0)
(2.5586e-06 0 0)
(2.55859e-06 0 0)
(2.55859e-06 0 0)
(2.55861e-06 0 0)
(2.55868e-06 0 0)
(2.55879e-06 0 0)
(2.55892e-06 0 0)
(2.55907e-06 0 0)
(2.55924e-06 0 0)
(2.55944e-06 0 0)
(2.55965e-06 0 0)
(2.55988e-06 0 0)
(2.56012e-06 0 0)
(2.56037e-06 0 0)
(2.56063e-06 0 0)
(2.56089e-06 0 0)
(2.56115e-06 0 0)
(2.56142e-06 0 0)
(2.56167e-06 0 0)
(2.56193e-06 0 0)
(2.56217e-06 0 0)
(2.56241e-06 0 0)
(2.56263e-06 0 0)
(2.56284e-06 0 0)
(2.56304e-06 0 0)
(2.56323e-06 0 0)
(2.5634e-06 0 0)
(2.56355e-06 0 0)
(2.56369e-06 0 0)
(2.56381e-06 0 0)
(2.56392e-06 0 0)
(2.56402e-06 0 0)
(2.56411e-06 0 0)
(2.56418e-06 0 0)
(2.56424e-06 0 0)
(2.56429e-06 0 0)
(2.56434e-06 0 0)
(2.56437e-06 0 0)
(2.5644e-06 0 0)
(2.56443e-06 0 0)
(2.56445e-06 0 0)
(2.56446e-06 0 0)
(2.56448e-06 0 0)
(2.56449e-06 0 0)
(2.5645e-06 0 0)
(2.5645e-06 0 0)
(2.56451e-06 0 0)
(2.56452e-06 0 0)
(2.56453e-06 0 0)
(2.56454e-06 0 0)
(2.56455e-06 0 0)
(2.56456e-06 0 0)
(2.56457e-06 0 0)
(2.56459e-06 0 0)
(2.56461e-06 0 0)
(2.56462e-06 0 0)
(2.56465e-06 0 0)
(2.56467e-06 0 0)
(2.5647e-06 0 0)
(2.56472e-06 0 0)
(2.56475e-06 0 0)
(2.56478e-06 0 0)
(2.56481e-06 0 0)
(2.56485e-06 0 0)
(2.56488e-06 0 0)
(2.56491e-06 0 0)
(2.56495e-06 0 0)
(2.56499e-06 0 0)
(2.56502e-06 0 0)
(2.56506e-06 0 0)
(2.5651e-06 0 0)
(2.56514e-06 0 0)
(2.56518e-06 0 0)
(2.56522e-06 0 0)
(2.56525e-06 0 0)
(2.56529e-06 0 0)
(2.56533e-06 0 0)
(2.56537e-06 0 0)
(2.56541e-06 0 0)
(2.56545e-06 0 0)
(2.56549e-06 0 0)
(2.56553e-06 0 0)
(2.56557e-06 0 0)
(2.56561e-06 0 0)
(2.56565e-06 0 0)
(2.56569e-06 0 0)
(2.56573e-06 0 0)
(2.56577e-06 0 0)
(2.56581e-06 0 0)
(2.56585e-06 0 0)
(2.56589e-06 0 0)
(2.56593e-06 0 0)
(2.56597e-06 0 0)
(2.56601e-06 0 0)
(2.56604e-06 0 0)
(2.56608e-06 0 0)
(2.56612e-06 0 0)
(2.56616e-06 0 0)
(2.56619e-06 0 0)
(2.56622e-06 0 0)
(2.56626e-06 0 0)
(2.56629e-06 0 0)
(2.56632e-06 0 0)
(2.56635e-06 0 0)
(2.56638e-06 0 0)
(2.56641e-06 0 0)
(2.56644e-06 0 0)
(2.56646e-06 0 0)
(2.56649e-06 0 0)
(2.56651e-06 0 0)
(2.56653e-06 0 0)
(2.56655e-06 0 0)
(2.56657e-06 0 0)
(2.56659e-06 0 0)
(2.5666e-06 0 0)
(2.56661e-06 0 0)
(2.56662e-06 0 0)
(2.56663e-06 0 0)
(2.56664e-06 0 0)
(2.56665e-06 0 0)
(2.56665e-06 0 0)
(2.56666e-06 0 0)
(2.56666e-06 0 0)
(2.56666e-06 0 0)
(2.56666e-06 0 0)
(2.56666e-06 0 0)
(2.56665e-06 0 0)
(2.56665e-06 0 0)
(2.56664e-06 0 0)
(2.56664e-06 0 0)
(2.56663e-06 0 0)
(2.56662e-06 0 0)
(2.56661e-06 0 0)
(2.5666e-06 0 0)
(2.56659e-06 0 0)
(2.56658e-06 0 0)
(2.56657e-06 0 0)
(2.56655e-06 0 0)
(2.56654e-06 0 0)
(2.56652e-06 0 0)
(2.56651e-06 0 0)
(2.5665e-06 0 0)
(2.56648e-06 0 0)
(2.56646e-06 0 0)
(2.56645e-06 0 0)
(2.56643e-06 0 0)
(2.56641e-06 0 0)
(2.56639e-06 0 0)
(2.56637e-06 0 0)
(2.56635e-06 0 0)
(2.56633e-06 0 0)
(2.56631e-06 0 0)
(2.56628e-06 0 0)
(2.56626e-06 0 0)
(2.56623e-06 0 0)
(2.5662e-06 0 0)
(2.56617e-06 0 0)
(2.56614e-06 0 0)
(2.5661e-06 0 0)
(2.56606e-06 0 0)
(2.56602e-06 0 0)
(2.56598e-06 0 0)
(2.56593e-06 0 0)
(2.56588e-06 0 0)
(2.56583e-06 0 0)
(2.56577e-06 0 0)
(2.56571e-06 0 0)
(2.56565e-06 0 0)
(2.56558e-06 0 0)
(2.5655e-06 0 0)
(2.56542e-06 0 0)
(2.56534e-06 0 0)
(2.56525e-06 0 0)
(2.56516e-06 0 0)
(2.56506e-06 0 0)
(2.56496e-06 0 0)
(2.56485e-06 0 0)
(2.56474e-06 0 0)
(2.56461e-06 0 0)
(2.56449e-06 0 0)
(2.56435e-06 0 0)
(2.56421e-06 0 0)
(2.56407e-06 0 0)
(2.56392e-06 0 0)
(2.56377e-06 0 0)
(2.5636e-06 0 0)
(2.56344e-06 0 0)
(2.56326e-06 0 0)
(2.56308e-06 0 0)
(2.5629e-06 0 0)
(2.56271e-06 0 0)
(2.56252e-06 0 0)
(2.56233e-06 0 0)
(2.56214e-06 0 0)
(2.56194e-06 0 0)
(2.56174e-06 0 0)
(2.56154e-06 0 0)
(2.56134e-06 0 0)
(2.56115e-06 0 0)
(2.56095e-06 0 0)
(2.56077e-06 0 0)
(2.56058e-06 0 0)
(2.56041e-06 0 0)
(2.56024e-06 0 0)
(2.56008e-06 0 0)
(2.55993e-06 0 0)
(2.5598e-06 0 0)
(2.55968e-06 0 0)
(2.55957e-06 0 0)
(2.55948e-06 0 0)
(2.55941e-06 0 0)
(2.55935e-06 0 0)
(2.55931e-06 0 0)
(2.5593e-06 0 0)
(2.55929e-06 0 0)
(2.55929e-06 0 0)
(2.5593e-06 0 0)
(2.55935e-06 0 0)
(2.55944e-06 0 0)
(2.55955e-06 0 0)
(2.55967e-06 0 0)
(2.55982e-06 0 0)
(2.55998e-06 0 0)
(2.56015e-06 0 0)
(2.56034e-06 0 0)
(2.56055e-06 0 0)
(2.56076e-06 0 0)
(2.56098e-06 0 0)
(2.56121e-06 0 0)
(2.56144e-06 0 0)
(2.56167e-06 0 0)
(2.5619e-06 0 0)
(2.56213e-06 0 0)
(2.56236e-06 0 0)
(2.56258e-06 0 0)
(2.56279e-06 0 0)
(2.563e-06 0 0)
(2.56319e-06 0 0)
(2.56337e-06 0 0)
(2.56354e-06 0 0)
(2.5637e-06 0 0)
(2.56385e-06 0 0)
(2.56399e-06 0 0)
(2.56411e-06 0 0)
(2.56423e-06 0 0)
(2.56433e-06 0 0)
(2.56442e-06 0 0)
(2.5645e-06 0 0)
(2.56456e-06 0 0)
(2.56462e-06 0 0)
(2.56467e-06 0 0)
(2.56472e-06 0 0)
(2.56476e-06 0 0)
(2.56479e-06 0 0)
(2.56481e-06 0 0)
(2.56483e-06 0 0)
(2.56485e-06 0 0)
(2.56486e-06 0 0)
(2.56487e-06 0 0)
(2.56487e-06 0 0)
(2.56488e-06 0 0)
(2.56489e-06 0 0)
(2.56489e-06 0 0)
(2.56489e-06 0 0)
(2.5649e-06 0 0)
(2.5649e-06 0 0)
(2.5649e-06 0 0)
(2.5649e-06 0 0)
(2.56491e-06 0 0)
(2.56491e-06 0 0)
(2.56492e-06 0 0)
(2.56492e-06 0 0)
(2.56493e-06 0 0)
(2.56494e-06 0 0)
(2.56494e-06 0 0)
(2.56496e-06 0 0)
(2.56497e-06 0 0)
(2.56498e-06 0 0)
(2.56499e-06 0 0)
(2.565e-06 0 0)
(2.56501e-06 0 0)
(2.56502e-06 0 0)
(2.56504e-06 0 0)
(2.56505e-06 0 0)
(2.56507e-06 0 0)
(2.56508e-06 0 0)
(2.56509e-06 0 0)
(2.5651e-06 0 0)
(2.56512e-06 0 0)
(2.56513e-06 0 0)
(2.56515e-06 0 0)
(2.56516e-06 0 0)
(2.56517e-06 0 0)
(2.56519e-06 0 0)
(2.5652e-06 0 0)
(2.56521e-06 0 0)
(2.56523e-06 0 0)
(2.56524e-06 0 0)
(2.56526e-06 0 0)
(2.56527e-06 0 0)
(2.56529e-06 0 0)
(2.5653e-06 0 0)
(2.56532e-06 0 0)
(2.56533e-06 0 0)
(2.56535e-06 0 0)
(2.56537e-06 0 0)
(2.56539e-06 0 0)
(2.56541e-06 0 0)
(2.56542e-06 0 0)
(2.56545e-06 0 0)
(2.56547e-06 0 0)
(2.56549e-06 0 0)
(2.56551e-06 0 0)
(2.56554e-06 0 0)
(2.56556e-06 0 0)
(2.56559e-06 0 0)
(2.56561e-06 0 0)
(2.56564e-06 0 0)
(2.56566e-06 0 0)
(2.56569e-06 0 0)
(2.56572e-06 0 0)
(2.56575e-06 0 0)
(2.56578e-06 0 0)
(2.56581e-06 0 0)
(2.56584e-06 0 0)
(2.56587e-06 0 0)
(2.5659e-06 0 0)
(2.56593e-06 0 0)
(2.56596e-06 0 0)
(2.56598e-06 0 0)
(2.56601e-06 0 0)
(2.56604e-06 0 0)
(2.56607e-06 0 0)
(2.56609e-06 0 0)
(2.56612e-06 0 0)
(2.56614e-06 0 0)
(2.56617e-06 0 0)
(2.56619e-06 0 0)
(2.56621e-06 0 0)
(2.56623e-06 0 0)
(2.56625e-06 0 0)
(2.56627e-06 0 0)
(2.56628e-06 0 0)
(2.56629e-06 0 0)
(2.5663e-06 0 0)
(2.56631e-06 0 0)
(2.56632e-06 0 0)
(2.56632e-06 0 0)
(2.56632e-06 0 0)
(2.56632e-06 0 0)
(2.56633e-06 0 0)
(2.56633e-06 0 0)
(2.56632e-06 0 0)
(2.56632e-06 0 0)
(2.56631e-06 0 0)
(2.5663e-06 0 0)
(2.56629e-06 0 0)
(2.56627e-06 0 0)
(2.56626e-06 0 0)
(2.56624e-06 0 0)
(2.56622e-06 0 0)
(2.56619e-06 0 0)
(2.56617e-06 0 0)
(2.56614e-06 0 0)
(2.56611e-06 0 0)
(2.56609e-06 0 0)
(2.56606e-06 0 0)
(2.56602e-06 0 0)
(2.56599e-06 0 0)
(2.56596e-06 0 0)
(2.56592e-06 0 0)
(2.56588e-06 0 0)
(2.56587e-06 0 0)
(2.56594e-06 0 0)
(2.56703e-06 0 0)
(2.57196e-06 0 0)
(2.59629e-06 0 0)
(2.76983e-06 0 0)
(2.94481e-06 0 0)
(2.96696e-06 0 0)
(2.96725e-06 0 0)
(2.96727e-06 0 0)
(2.96727e-06 0 0)
(2.96727e-06 0 0)
(2.96727e-06 0 0)
(2.96727e-06 0 0)
(2.96727e-06 0 0)
(2.96727e-06 0 0)
(2.96727e-06 0 0)
(2.96727e-06 0 0)
(2.96727e-06 0 0)
(2.96727e-06 0 0)
(2.96727e-06 0 0)
(2.96727e-06 0 0)
)
;

boundaryField
{
    inlet
    {
        type            fixedValue;
        value           uniform (1.13622e-05 0 0);
    }
    outlet
    {
        type            zeroGradient;
    }
    emptyWalls
    {
        type            empty;
    }
}


// ************************************************************************* //
