/*--------------------------------*- C++ -*----------------------------------*\
  =========                 |
  \\      /  F ield         | OpenFOAM: The Open Source CFD Toolbox
   \\    /   O peration     | Website:  https://openfoam.org
    \\  /    A nd           | Version:  9
     \\/     M anipulation  |
\*---------------------------------------------------------------------------*/
FoamFile
{
    format      ascii;
    class       surfaceScalarField;
    location    "14150";
    object      phib;
}
// * * * * * * * * * * * * * * * * * * * * * * * * * * * * * * * * * * * * * //

dimensions      [0 2 0 0 0 0 0];

internalField   nonuniform List<scalar> 
999
(
1.13618e-09
1.13622e-09
1.13624e-09
1.13627e-09
1.13632e-09
1.13636e-09
1.13641e-09
1.13646e-09
1.13651e-09
1.13658e-09
1.13662e-09
1.13671e-09
1.13672e-09
1.13681e-09
1.13683e-09
1.13689e-09
1.13706e-09
1.13752e-09
1.13955e-09
1.15324e-09
1.16936e-09
1.17223e-09
1.1744e-09
1.1764e-09
1.17795e-09
1.17899e-09
1.17941e-09
1.17954e-09
1.17953e-09
1.17946e-09
1.17941e-09
1.1794e-09
1.17942e-09
1.17949e-09
1.17956e-09
1.17963e-09
1.17971e-09
1.17979e-09
1.17986e-09
1.17992e-09
1.17997e-09
1.18001e-09
1.18004e-09
1.18006e-09
1.18006e-09
1.18005e-09
1.18002e-09
1.17998e-09
1.17991e-09
1.17981e-09
1.17968e-09
1.17949e-09
1.17924e-09
1.17891e-09
1.1785e-09
1.17801e-09
1.17748e-09
1.17692e-09
1.17634e-09
1.17574e-09
1.17512e-09
1.17449e-09
1.17385e-09
1.17321e-09
1.17255e-09
1.17189e-09
1.17123e-09
1.17056e-09
1.16988e-09
1.16919e-09
1.16851e-09
1.16782e-09
1.16712e-09
1.16642e-09
1.16571e-09
1.16501e-09
1.16429e-09
1.16358e-09
1.16286e-09
1.16213e-09
1.16141e-09
1.16068e-09
1.15994e-09
1.1592e-09
1.15846e-09
1.15772e-09
1.15698e-09
1.15623e-09
1.15549e-09
1.15474e-09
1.15399e-09
1.15324e-09
1.15249e-09
1.15173e-09
1.15097e-09
1.15021e-09
1.14944e-09
1.14866e-09
1.14789e-09
1.14711e-09
1.14633e-09
1.14555e-09
1.14477e-09
1.14399e-09
1.1432e-09
1.1424e-09
1.14158e-09
1.14074e-09
1.13987e-09
1.13897e-09
1.13805e-09
1.1371e-09
1.13613e-09
1.13513e-09
1.13413e-09
1.13311e-09
1.13209e-09
1.13106e-09
1.13005e-09
1.12905e-09
1.12808e-09
1.12713e-09
1.12622e-09
1.12535e-09
1.12453e-09
1.12377e-09
1.12305e-09
1.12238e-09
1.12175e-09
1.12117e-09
1.12061e-09
1.12007e-09
1.11954e-09
1.11901e-09
1.11847e-09
1.11792e-09
1.11734e-09
1.11674e-09
1.11611e-09
1.11545e-09
1.11476e-09
1.11404e-09
1.11329e-09
1.11253e-09
1.11174e-09
1.11094e-09
1.11013e-09
1.10931e-09
1.10849e-09
1.10766e-09
1.10683e-09
1.106e-09
1.10518e-09
1.10435e-09
1.10353e-09
1.10271e-09
1.1019e-09
1.10109e-09
1.10028e-09
1.09947e-09
1.09867e-09
1.09786e-09
1.09706e-09
1.09625e-09
1.09545e-09
1.09465e-09
1.09384e-09
1.09304e-09
1.09224e-09
1.09143e-09
1.09062e-09
1.08981e-09
1.089e-09
1.08819e-09
1.08738e-09
1.08656e-09
1.08575e-09
1.08493e-09
1.08411e-09
1.08329e-09
1.08247e-09
1.08164e-09
1.08081e-09
1.07999e-09
1.07915e-09
1.07832e-09
1.07749e-09
1.07665e-09
1.07581e-09
1.07497e-09
1.07413e-09
1.07329e-09
1.07244e-09
1.07159e-09
1.07074e-09
1.06989e-09
1.06904e-09
1.06818e-09
1.06733e-09
1.06647e-09
1.0656e-09
1.06474e-09
1.06387e-09
1.06301e-09
1.06214e-09
1.06127e-09
1.06039e-09
1.05952e-09
1.05864e-09
1.05776e-09
1.05688e-09
1.056e-09
1.05511e-09
1.05423e-09
1.05334e-09
1.05245e-09
1.05155e-09
1.05066e-09
1.04977e-09
1.04887e-09
1.04797e-09
1.04707e-09
1.04617e-09
1.04527e-09
1.04437e-09
1.04346e-09
1.04256e-09
1.04165e-09
1.04074e-09
1.03983e-09
1.03892e-09
1.038e-09
1.03709e-09
1.03617e-09
1.03525e-09
1.03433e-09
1.03341e-09
1.03248e-09
1.03156e-09
1.03062e-09
1.02969e-09
1.02875e-09
1.0278e-09
1.02685e-09
1.02589e-09
1.02492e-09
1.02394e-09
1.02295e-09
1.02195e-09
1.02094e-09
1.01992e-09
1.01889e-09
1.01785e-09
1.0168e-09
1.01575e-09
1.01468e-09
1.01362e-09
1.01255e-09
1.01148e-09
1.01041e-09
1.00934e-09
1.00828e-09
1.00723e-09
1.00619e-09
1.00517e-09
1.00416e-09
1.00316e-09
1.00219e-09
1.00123e-09
1.00029e-09
9.99377e-10
9.98479e-10
9.976e-10
9.96738e-10
9.9589e-10
9.95055e-10
9.94229e-10
9.9341e-10
9.92594e-10
9.9178e-10
9.90963e-10
9.90143e-10
9.89315e-10
9.8848e-10
9.87635e-10
9.86779e-10
9.85911e-10
9.85032e-10
9.84141e-10
9.83238e-10
9.82323e-10
9.81399e-10
9.80464e-10
9.79521e-10
9.7857e-10
9.77611e-10
9.76647e-10
9.75678e-10
9.74705e-10
9.73728e-10
9.72748e-10
9.71766e-10
9.70782e-10
9.69797e-10
9.68811e-10
9.67825e-10
9.66837e-10
9.6585e-10
9.64862e-10
9.63873e-10
9.62885e-10
9.61895e-10
9.60906e-10
9.59915e-10
9.58924e-10
9.57932e-10
9.56939e-10
9.55945e-10
9.54949e-10
9.53952e-10
9.52954e-10
9.51955e-10
9.50953e-10
9.49951e-10
9.48946e-10
9.4794e-10
9.46931e-10
9.45921e-10
9.44909e-10
9.43895e-10
9.42879e-10
9.41861e-10
9.40841e-10
9.39819e-10
9.38794e-10
9.37768e-10
9.36739e-10
9.35708e-10
9.34675e-10
9.3364e-10
9.32602e-10
9.31563e-10
9.30521e-10
9.29476e-10
9.2843e-10
9.27381e-10
9.2633e-10
9.25276e-10
9.2422e-10
9.23162e-10
9.22101e-10
9.21038e-10
9.19972e-10
9.18904e-10
9.17834e-10
9.16761e-10
9.15685e-10
9.14607e-10
9.13527e-10
9.12444e-10
9.11358e-10
9.1027e-10
9.09179e-10
9.08086e-10
9.0699e-10
9.05892e-10
9.04791e-10
9.03687e-10
9.02581e-10
9.01472e-10
9.00361e-10
8.99247e-10
8.98131e-10
8.97012e-10
8.9589e-10
8.94766e-10
8.9364e-10
8.92511e-10
8.91379e-10
8.90245e-10
8.89108e-10
8.87969e-10
8.86827e-10
8.85682e-10
8.84535e-10
8.83386e-10
8.82233e-10
8.81079e-10
8.79921e-10
8.7876e-10
8.77597e-10
8.76431e-10
8.75262e-10
8.7409e-10
8.72914e-10
8.71736e-10
8.70553e-10
8.69368e-10
8.68178e-10
8.66984e-10
8.65785e-10
8.64582e-10
8.63374e-10
8.62161e-10
8.60942e-10
8.59717e-10
8.58487e-10
8.57249e-10
8.56006e-10
8.54756e-10
8.53499e-10
8.52235e-10
8.50964e-10
8.49687e-10
8.48402e-10
8.47112e-10
8.45815e-10
8.44513e-10
8.43205e-10
8.41892e-10
8.40575e-10
8.39254e-10
8.3793e-10
8.36605e-10
8.35277e-10
8.3395e-10
8.32622e-10
8.31295e-10
8.2997e-10
8.28648e-10
8.27329e-10
8.26015e-10
8.24704e-10
8.23399e-10
8.22099e-10
8.20805e-10
8.19517e-10
8.18234e-10
8.16957e-10
8.15686e-10
8.14419e-10
8.13156e-10
8.11896e-10
8.10639e-10
8.09384e-10
8.08129e-10
8.06874e-10
8.05617e-10
8.04357e-10
8.03094e-10
8.01827e-10
8.00554e-10
7.99274e-10
7.97988e-10
7.96695e-10
7.95393e-10
7.94082e-10
7.92764e-10
7.91436e-10
7.90099e-10
7.88753e-10
7.87397e-10
7.86033e-10
7.8466e-10
7.83279e-10
7.81889e-10
7.80491e-10
7.79085e-10
7.77672e-10
7.76251e-10
7.74824e-10
7.73389e-10
7.71948e-10
7.705e-10
7.69046e-10
7.67585e-10
7.66119e-10
7.64647e-10
7.63169e-10
7.61685e-10
7.60195e-10
7.58699e-10
7.57198e-10
7.5569e-10
7.54177e-10
7.52657e-10
7.51132e-10
7.496e-10
7.48063e-10
7.46518e-10
7.44967e-10
7.4341e-10
7.41845e-10
7.40274e-10
7.38696e-10
7.37111e-10
7.35519e-10
7.3392e-10
7.32312e-10
7.30698e-10
7.29076e-10
7.27446e-10
7.25808e-10
7.24162e-10
7.22509e-10
7.20847e-10
7.19177e-10
7.17499e-10
7.15813e-10
7.14118e-10
7.12415e-10
7.10704e-10
7.08985e-10
7.07257e-10
7.05521e-10
7.03777e-10
7.02024e-10
7.00265e-10
6.98498e-10
6.96724e-10
6.94943e-10
6.93156e-10
6.91363e-10
6.89567e-10
6.87766e-10
6.85964e-10
6.8416e-10
6.82358e-10
6.80559e-10
6.78764e-10
6.7698e-10
6.75207e-10
6.73452e-10
6.71715e-10
6.70005e-10
6.68325e-10
6.66682e-10
6.65083e-10
6.63533e-10
6.62042e-10
6.60613e-10
6.59254e-10
6.5797e-10
6.56768e-10
6.55653e-10
6.54624e-10
6.53687e-10
6.52839e-10
6.5208e-10
6.51408e-10
6.50817e-10
6.50304e-10
6.49858e-10
6.49469e-10
6.49123e-10
6.48799e-10
6.4847e-10
6.48081e-10
6.47551e-10
6.46734e-10
6.45374e-10
6.43029e-10
6.38932e-10
6.318e-10
6.19588e-10
5.99377e-10
5.67809e-10
5.22781e-10
4.66387e-10
4.06535e-10
3.53651e-10
3.14352e-10
2.88942e-10
2.74029e-10
2.65783e-10
2.61377e-10
2.59066e-10
2.57865e-10
2.57243e-10
2.5692e-10
2.56752e-10
2.56664e-10
2.56616e-10
2.56589e-10
2.56572e-10
2.56561e-10
2.56552e-10
2.56544e-10
2.56536e-10
2.56528e-10
2.5652e-10
2.56511e-10
2.56502e-10
2.56493e-10
2.56482e-10
2.56472e-10
2.5646e-10
2.56448e-10
2.56436e-10
2.56422e-10
2.56408e-10
2.56394e-10
2.56379e-10
2.56364e-10
2.56348e-10
2.56332e-10
2.56315e-10
2.56298e-10
2.56281e-10
2.56264e-10
2.56247e-10
2.5623e-10
2.56213e-10
2.56196e-10
2.56179e-10
2.56163e-10
2.56148e-10
2.56133e-10
2.56119e-10
2.56106e-10
2.56094e-10
2.56083e-10
2.56073e-10
2.56064e-10
2.56057e-10
2.56052e-10
2.56047e-10
2.56045e-10
2.56044e-10
2.56043e-10
2.56042e-10
2.56044e-10
2.56049e-10
2.56055e-10
2.56063e-10
2.56072e-10
2.56081e-10
2.56092e-10
2.56104e-10
2.56117e-10
2.5613e-10
2.56144e-10
2.56159e-10
2.56173e-10
2.56188e-10
2.56204e-10
2.56219e-10
2.56234e-10
2.56249e-10
2.56263e-10
2.56277e-10
2.56291e-10
2.56304e-10
2.56316e-10
2.56328e-10
2.5634e-10
2.5635e-10
2.5636e-10
2.5637e-10
2.56378e-10
2.56386e-10
2.56394e-10
2.564e-10
2.56407e-10
2.56412e-10
2.56418e-10
2.56422e-10
2.56427e-10
2.56431e-10
2.56435e-10
2.56438e-10
2.56441e-10
2.56444e-10
2.56447e-10
2.5645e-10
2.56452e-10
2.56455e-10
2.56457e-10
2.5646e-10
2.56462e-10
2.56465e-10
2.56467e-10
2.5647e-10
2.56473e-10
2.56475e-10
2.56478e-10
2.56481e-10
2.56484e-10
2.56487e-10
2.5649e-10
2.56493e-10
2.56496e-10
2.56499e-10
2.56502e-10
2.56506e-10
2.56509e-10
2.56512e-10
2.56516e-10
2.56519e-10
2.56523e-10
2.56526e-10
2.5653e-10
2.56533e-10
2.56536e-10
2.5654e-10
2.56543e-10
2.56547e-10
2.5655e-10
2.56553e-10
2.56557e-10
2.5656e-10
2.56563e-10
2.56566e-10
2.56569e-10
2.56572e-10
2.56575e-10
2.56578e-10
2.56581e-10
2.56584e-10
2.56586e-10
2.56589e-10
2.56591e-10
2.56594e-10
2.56596e-10
2.56598e-10
2.566e-10
2.56602e-10
2.56604e-10
2.56606e-10
2.56608e-10
2.56609e-10
2.56611e-10
2.56612e-10
2.56613e-10
2.56615e-10
2.56616e-10
2.56617e-10
2.56617e-10
2.56618e-10
2.56619e-10
2.56619e-10
2.5662e-10
2.5662e-10
2.5662e-10
2.5662e-10
2.5662e-10
2.5662e-10
2.5662e-10
2.5662e-10
2.56619e-10
2.56619e-10
2.56618e-10
2.56618e-10
2.56617e-10
2.56616e-10
2.56615e-10
2.56614e-10
2.56613e-10
2.56611e-10
2.5661e-10
2.56609e-10
2.56607e-10
2.56605e-10
2.56604e-10
2.56602e-10
2.566e-10
2.56598e-10
2.56596e-10
2.56594e-10
2.56592e-10
2.56589e-10
2.56587e-10
2.56585e-10
2.56582e-10
2.56579e-10
2.56576e-10
2.56573e-10
2.5657e-10
2.56567e-10
2.56564e-10
2.5656e-10
2.56556e-10
2.56552e-10
2.56548e-10
2.56544e-10
2.56539e-10
2.56535e-10
2.5653e-10
2.56525e-10
2.56519e-10
2.56514e-10
2.56508e-10
2.56502e-10
2.56495e-10
2.56488e-10
2.56481e-10
2.56473e-10
2.56465e-10
2.56457e-10
2.56448e-10
2.56439e-10
2.56429e-10
2.56419e-10
2.56408e-10
2.56397e-10
2.56385e-10
2.56373e-10
2.5636e-10
2.56347e-10
2.56334e-10
2.5632e-10
2.56306e-10
2.56292e-10
2.56277e-10
2.56263e-10
2.56248e-10
2.56233e-10
2.56219e-10
2.56204e-10
2.5619e-10
2.56175e-10
2.56162e-10
2.56148e-10
2.56136e-10
2.56123e-10
2.56112e-10
2.56101e-10
2.56091e-10
2.56082e-10
2.56074e-10
2.56067e-10
2.56061e-10
2.56056e-10
2.56052e-10
2.5605e-10
2.56049e-10
2.56048e-10
2.56048e-10
2.56049e-10
2.56052e-10
2.56056e-10
2.56062e-10
2.56069e-10
2.56077e-10
2.56086e-10
2.56096e-10
2.56107e-10
2.56118e-10
2.5613e-10
2.56143e-10
2.56156e-10
2.56169e-10
2.56183e-10
2.56196e-10
2.5621e-10
2.56224e-10
2.56237e-10
2.56251e-10
2.56264e-10
2.56277e-10
2.5629e-10
2.56302e-10
2.56314e-10
2.56325e-10
2.56336e-10
2.56346e-10
2.56356e-10
2.56365e-10
2.56374e-10
2.56382e-10
2.5639e-10
2.56397e-10
2.56404e-10
2.56411e-10
2.56417e-10
2.56422e-10
2.56427e-10
2.56432e-10
2.56437e-10
2.56442e-10
2.56446e-10
2.5645e-10
2.56454e-10
2.56457e-10
2.56461e-10
2.56464e-10
2.56468e-10
2.56471e-10
2.56474e-10
2.56477e-10
2.56481e-10
2.56484e-10
2.56487e-10
2.5649e-10
2.56493e-10
2.56496e-10
2.565e-10
2.56503e-10
2.56506e-10
2.56509e-10
2.56512e-10
2.56515e-10
2.56518e-10
2.56522e-10
2.56525e-10
2.56528e-10
2.56531e-10
2.56534e-10
2.56537e-10
2.5654e-10
2.56543e-10
2.56546e-10
2.56549e-10
2.56552e-10
2.56555e-10
2.56557e-10
2.5656e-10
2.56563e-10
2.56565e-10
2.56568e-10
2.5657e-10
2.56573e-10
2.56575e-10
2.56577e-10
2.56579e-10
2.56581e-10
2.56584e-10
2.56585e-10
2.56587e-10
2.56589e-10
2.56591e-10
2.56592e-10
2.56594e-10
2.56595e-10
2.56597e-10
2.56598e-10
2.56599e-10
2.566e-10
2.56601e-10
2.56602e-10
2.56603e-10
2.56604e-10
2.56605e-10
2.56605e-10
2.56606e-10
2.56606e-10
2.56607e-10
2.56607e-10
2.56607e-10
2.56607e-10
2.56607e-10
2.56607e-10
2.56607e-10
2.56607e-10
2.56607e-10
2.56606e-10
2.56605e-10
2.56605e-10
2.56604e-10
2.56603e-10
2.56602e-10
2.56602e-10
2.56601e-10
2.56599e-10
2.56598e-10
2.56597e-10
2.56596e-10
2.56594e-10
2.56593e-10
2.56591e-10
2.5659e-10
2.56588e-10
2.56586e-10
2.56584e-10
2.56582e-10
2.5658e-10
2.56578e-10
2.56576e-10
2.56573e-10
2.56571e-10
2.56569e-10
2.56566e-10
2.56563e-10
2.5656e-10
2.56557e-10
2.56554e-10
2.56551e-10
2.56548e-10
2.56544e-10
2.5654e-10
2.56536e-10
2.56532e-10
2.56528e-10
2.56523e-10
2.56518e-10
2.56513e-10
2.56508e-10
2.56502e-10
2.56496e-10
)
;

boundaryField
{
    inlet
    {
        type            calculated;
        value           uniform -1.13622e-09;
    }
    outlet
    {
        type            calculated;
        value           uniform 2.5649e-10;
    }
    emptyWalls
    {
        type            empty;
        value           nonuniform List<scalar> 0();
    }
}


// ************************************************************************* //
