/*--------------------------------*- C++ -*----------------------------------*\
  =========                 |
  \\      /  F ield         | OpenFOAM: The Open Source CFD Toolbox
   \\    /   O peration     | Website:  https://openfoam.org
    \\  /    A nd           | Version:  9
     \\/     M anipulation  |
\*---------------------------------------------------------------------------*/
FoamFile
{
    format      ascii;
    class       surfaceScalarField;
    location    "20100";
    object      phib;
}
// * * * * * * * * * * * * * * * * * * * * * * * * * * * * * * * * * * * * * //

dimensions      [0 2 0 0 0 0 0];

internalField   nonuniform List<scalar> 
999
(
1.1362e-09
1.13621e-09
1.13622e-09
1.13624e-09
1.13626e-09
1.13628e-09
1.13631e-09
1.13634e-09
1.13636e-09
1.13641e-09
1.13643e-09
1.13649e-09
1.1365e-09
1.13656e-09
1.1366e-09
1.13664e-09
1.13671e-09
1.13674e-09
1.13681e-09
1.13684e-09
1.13688e-09
1.13691e-09
1.13693e-09
1.13696e-09
1.13702e-09
1.13722e-09
1.13798e-09
1.14193e-09
1.16743e-09
1.17512e-09
1.17705e-09
1.17787e-09
1.17835e-09
1.1787e-09
1.17897e-09
1.17919e-09
1.17938e-09
1.17955e-09
1.17969e-09
1.17982e-09
1.17993e-09
1.18002e-09
1.1801e-09
1.18017e-09
1.18022e-09
1.18026e-09
1.18029e-09
1.18032e-09
1.18034e-09
1.18036e-09
1.18038e-09
1.18041e-09
1.18042e-09
1.18042e-09
1.18041e-09
1.18039e-09
1.18035e-09
1.18031e-09
1.18027e-09
1.18024e-09
1.18022e-09
1.18019e-09
1.18017e-09
1.18012e-09
1.18004e-09
1.17992e-09
1.17974e-09
1.17953e-09
1.17926e-09
1.17883e-09
1.17834e-09
1.17784e-09
1.17739e-09
1.17696e-09
1.17651e-09
1.17606e-09
1.17561e-09
1.17513e-09
1.17465e-09
1.17419e-09
1.17379e-09
1.17346e-09
1.1732e-09
1.173e-09
1.17285e-09
1.17274e-09
1.17263e-09
1.17252e-09
1.17239e-09
1.17222e-09
1.17201e-09
1.17175e-09
1.17145e-09
1.1711e-09
1.1707e-09
1.17027e-09
1.16981e-09
1.16932e-09
1.16882e-09
1.1683e-09
1.16778e-09
1.16726e-09
1.16674e-09
1.16623e-09
1.16572e-09
1.16522e-09
1.16473e-09
1.16424e-09
1.16376e-09
1.16328e-09
1.16281e-09
1.16233e-09
1.16186e-09
1.16139e-09
1.16092e-09
1.16045e-09
1.15998e-09
1.1595e-09
1.15903e-09
1.15855e-09
1.15808e-09
1.1576e-09
1.15712e-09
1.15663e-09
1.15615e-09
1.15566e-09
1.15517e-09
1.15468e-09
1.15419e-09
1.1537e-09
1.1532e-09
1.1527e-09
1.1522e-09
1.1517e-09
1.1512e-09
1.15069e-09
1.15018e-09
1.14967e-09
1.14916e-09
1.14864e-09
1.14813e-09
1.14761e-09
1.14709e-09
1.14657e-09
1.14604e-09
1.14551e-09
1.14499e-09
1.14446e-09
1.14392e-09
1.14339e-09
1.14285e-09
1.14231e-09
1.14177e-09
1.14123e-09
1.14068e-09
1.14013e-09
1.13958e-09
1.13903e-09
1.13848e-09
1.13793e-09
1.13737e-09
1.13682e-09
1.13627e-09
1.13571e-09
1.13515e-09
1.1346e-09
1.13404e-09
1.13347e-09
1.13291e-09
1.13235e-09
1.13178e-09
1.13121e-09
1.13065e-09
1.13008e-09
1.12951e-09
1.12895e-09
1.12839e-09
1.12782e-09
1.12726e-09
1.12669e-09
1.12611e-09
1.12553e-09
1.12494e-09
1.12433e-09
1.12371e-09
1.12307e-09
1.12242e-09
1.12174e-09
1.12105e-09
1.12034e-09
1.11962e-09
1.11889e-09
1.11814e-09
1.11739e-09
1.11663e-09
1.11588e-09
1.11513e-09
1.11438e-09
1.11366e-09
1.11294e-09
1.11225e-09
1.11159e-09
1.11095e-09
1.11035e-09
1.10978e-09
1.10924e-09
1.10874e-09
1.10826e-09
1.10781e-09
1.10738e-09
1.10697e-09
1.10657e-09
1.10618e-09
1.10579e-09
1.1054e-09
1.105e-09
1.10459e-09
1.10417e-09
1.10373e-09
1.10327e-09
1.1028e-09
1.10231e-09
1.1018e-09
1.10128e-09
1.10075e-09
1.1002e-09
1.09965e-09
1.09908e-09
1.09851e-09
1.09794e-09
1.09736e-09
1.09678e-09
1.0962e-09
1.09561e-09
1.09503e-09
1.09445e-09
1.09387e-09
1.0933e-09
1.09272e-09
1.09215e-09
1.09158e-09
1.09101e-09
1.09044e-09
1.08987e-09
1.0893e-09
1.08874e-09
1.08817e-09
1.0876e-09
1.08704e-09
1.08647e-09
1.08591e-09
1.08534e-09
1.08477e-09
1.0842e-09
1.08363e-09
1.08306e-09
1.08249e-09
1.08192e-09
1.08134e-09
1.08077e-09
1.08019e-09
1.07961e-09
1.07903e-09
1.07845e-09
1.07787e-09
1.07729e-09
1.07671e-09
1.07612e-09
1.07554e-09
1.07495e-09
1.07436e-09
1.07377e-09
1.07318e-09
1.07258e-09
1.07199e-09
1.07139e-09
1.0708e-09
1.0702e-09
1.0696e-09
1.069e-09
1.06839e-09
1.06779e-09
1.06718e-09
1.06657e-09
1.06597e-09
1.06536e-09
1.06474e-09
1.06413e-09
1.06352e-09
1.0629e-09
1.06228e-09
1.06167e-09
1.06105e-09
1.06043e-09
1.0598e-09
1.05918e-09
1.05856e-09
1.05793e-09
1.05731e-09
1.05668e-09
1.05606e-09
1.05543e-09
1.0548e-09
1.05417e-09
1.05354e-09
1.05291e-09
1.05227e-09
1.05164e-09
1.05101e-09
1.05037e-09
1.04974e-09
1.0491e-09
1.04847e-09
1.04783e-09
1.04719e-09
1.04655e-09
1.04591e-09
1.04527e-09
1.04462e-09
1.04396e-09
1.04331e-09
1.04264e-09
1.04197e-09
1.04129e-09
1.0406e-09
1.03991e-09
1.03921e-09
1.0385e-09
1.03777e-09
1.03705e-09
1.03631e-09
1.03557e-09
1.03482e-09
1.03406e-09
1.03331e-09
1.03255e-09
1.03178e-09
1.03102e-09
1.03027e-09
1.02951e-09
1.02877e-09
1.02803e-09
1.0273e-09
1.02658e-09
1.02588e-09
1.02519e-09
1.02452e-09
1.02386e-09
1.02322e-09
1.02259e-09
1.02198e-09
1.02138e-09
1.0208e-09
1.02023e-09
1.01966e-09
1.01911e-09
1.01857e-09
1.01802e-09
1.01748e-09
1.01694e-09
1.0164e-09
1.01586e-09
1.01531e-09
1.01476e-09
1.0142e-09
1.01363e-09
1.01305e-09
1.01247e-09
1.01188e-09
1.01128e-09
1.01067e-09
1.01005e-09
1.00943e-09
1.00881e-09
1.00817e-09
1.00754e-09
1.0069e-09
1.00625e-09
1.0056e-09
1.00495e-09
1.0043e-09
1.00365e-09
1.00299e-09
1.00234e-09
1.00168e-09
1.00103e-09
1.00037e-09
9.99719e-10
9.99064e-10
9.98409e-10
9.97755e-10
9.97101e-10
9.96447e-10
9.95793e-10
9.95139e-10
9.94485e-10
9.93831e-10
9.93177e-10
9.92522e-10
9.91867e-10
9.91211e-10
9.90555e-10
9.89898e-10
9.89241e-10
9.88582e-10
9.87923e-10
9.87263e-10
9.86602e-10
9.8594e-10
9.85276e-10
9.84612e-10
9.83947e-10
9.8328e-10
9.82612e-10
9.81943e-10
9.81273e-10
9.80601e-10
9.79928e-10
9.79254e-10
9.78579e-10
9.77902e-10
9.77225e-10
9.76545e-10
9.75865e-10
9.75183e-10
9.74499e-10
9.73815e-10
9.73129e-10
9.72441e-10
9.71753e-10
9.71063e-10
9.70371e-10
9.69678e-10
9.68984e-10
9.68288e-10
9.67591e-10
9.66892e-10
9.66192e-10
9.65491e-10
9.64788e-10
9.64084e-10
9.63379e-10
9.62672e-10
9.61964e-10
9.61254e-10
9.60544e-10
9.59832e-10
9.59119e-10
9.58404e-10
9.57689e-10
9.56972e-10
9.56254e-10
9.55535e-10
9.54814e-10
9.54093e-10
9.53371e-10
9.52647e-10
9.51922e-10
9.51197e-10
9.5047e-10
9.49742e-10
9.49014e-10
9.48284e-10
9.47553e-10
9.46821e-10
9.46087e-10
9.45352e-10
9.44616e-10
9.43878e-10
9.43138e-10
9.42396e-10
9.41651e-10
9.40904e-10
9.40154e-10
9.394e-10
9.38643e-10
9.37882e-10
9.37116e-10
9.36347e-10
9.35573e-10
9.34794e-10
9.3401e-10
9.33221e-10
9.32427e-10
9.31628e-10
9.30824e-10
9.30015e-10
9.29202e-10
9.28385e-10
9.27565e-10
9.26741e-10
9.25914e-10
9.25086e-10
9.24256e-10
9.23426e-10
9.22596e-10
9.21767e-10
9.2094e-10
9.20115e-10
9.19294e-10
9.18478e-10
9.17666e-10
9.1686e-10
9.1606e-10
9.15268e-10
9.14482e-10
9.13705e-10
9.12935e-10
9.12173e-10
9.11419e-10
9.10673e-10
9.09935e-10
9.09203e-10
9.08478e-10
9.07759e-10
9.07045e-10
9.06335e-10
9.05628e-10
9.04924e-10
9.04222e-10
9.0352e-10
9.02818e-10
9.02115e-10
9.0141e-10
9.00703e-10
8.99992e-10
8.99278e-10
8.9856e-10
8.97838e-10
8.97111e-10
8.9638e-10
8.95643e-10
8.94902e-10
8.94156e-10
8.93405e-10
8.9265e-10
8.9189e-10
8.91127e-10
8.9036e-10
8.89589e-10
8.88815e-10
8.88038e-10
8.87258e-10
8.86476e-10
8.85691e-10
8.84904e-10
8.84116e-10
8.83326e-10
8.82534e-10
8.81741e-10
8.80947e-10
8.80152e-10
8.79355e-10
8.78558e-10
8.77759e-10
8.7696e-10
8.76159e-10
8.75358e-10
8.74556e-10
8.73753e-10
8.72948e-10
8.72143e-10
8.71336e-10
8.70529e-10
8.6972e-10
8.6891e-10
8.68099e-10
8.67286e-10
8.66472e-10
8.65657e-10
8.6484e-10
8.64022e-10
8.63202e-10
8.6238e-10
8.61557e-10
8.60732e-10
8.59906e-10
8.59078e-10
8.58248e-10
8.57416e-10
8.56583e-10
8.55747e-10
8.5491e-10
8.54071e-10
8.5323e-10
8.52387e-10
8.51543e-10
8.50696e-10
8.49848e-10
8.48997e-10
8.48145e-10
8.4729e-10
8.46434e-10
8.45576e-10
8.44715e-10
8.43853e-10
8.42988e-10
8.42122e-10
8.41253e-10
8.40382e-10
8.3951e-10
8.38635e-10
8.37758e-10
8.36879e-10
8.35998e-10
8.35115e-10
8.3423e-10
8.33343e-10
8.32453e-10
8.31562e-10
8.30668e-10
8.29772e-10
8.28875e-10
8.27975e-10
8.27073e-10
8.26168e-10
8.25262e-10
8.24354e-10
8.23443e-10
8.22531e-10
8.21616e-10
8.20699e-10
8.1978e-10
8.18859e-10
8.17936e-10
8.17011e-10
8.16084e-10
8.15154e-10
8.14222e-10
8.13289e-10
8.12352e-10
8.11414e-10
8.10473e-10
8.0953e-10
8.08584e-10
8.07636e-10
8.06686e-10
8.05732e-10
8.04776e-10
8.03816e-10
8.02854e-10
8.01889e-10
8.0092e-10
7.99947e-10
7.98972e-10
7.97992e-10
7.97008e-10
7.96021e-10
7.95029e-10
7.94033e-10
7.93033e-10
7.92028e-10
7.91019e-10
7.90006e-10
7.88988e-10
7.87966e-10
7.86939e-10
7.85908e-10
7.84872e-10
7.83832e-10
7.82789e-10
7.81742e-10
7.80691e-10
7.79636e-10
7.78579e-10
7.77519e-10
7.76456e-10
7.75391e-10
7.74325e-10
7.73257e-10
7.72187e-10
7.71117e-10
7.70047e-10
7.68976e-10
7.67906e-10
7.66836e-10
7.65767e-10
7.64699e-10
7.63633e-10
7.62568e-10
7.61504e-10
7.60443e-10
7.59383e-10
7.58326e-10
7.5727e-10
7.56216e-10
7.55163e-10
7.54112e-10
7.53062e-10
7.52013e-10
7.50964e-10
7.49916e-10
7.48868e-10
7.47818e-10
7.46768e-10
7.45716e-10
7.44663e-10
7.43606e-10
7.42547e-10
7.41485e-10
7.4042e-10
7.3935e-10
7.38275e-10
7.37197e-10
7.36113e-10
7.35024e-10
7.33929e-10
7.3283e-10
7.31724e-10
7.30613e-10
7.29496e-10
7.28373e-10
7.27244e-10
7.2611e-10
7.2497e-10
7.23824e-10
7.22672e-10
7.21514e-10
7.20351e-10
7.19183e-10
7.18009e-10
7.1683e-10
7.15645e-10
7.14456e-10
7.13262e-10
7.12062e-10
7.10858e-10
7.09648e-10
7.08435e-10
7.07216e-10
7.05993e-10
7.04766e-10
7.03534e-10
7.02297e-10
7.01056e-10
6.99811e-10
6.98562e-10
6.97309e-10
6.96051e-10
6.9479e-10
6.93524e-10
6.92255e-10
6.90983e-10
6.89707e-10
6.88428e-10
6.87147e-10
6.85862e-10
6.84576e-10
6.83287e-10
6.81998e-10
6.80708e-10
6.79418e-10
6.78129e-10
6.76842e-10
6.75558e-10
6.74277e-10
6.73002e-10
6.71735e-10
6.70476e-10
6.69229e-10
6.67994e-10
6.66775e-10
6.65574e-10
6.64395e-10
6.6324e-10
6.62113e-10
6.61017e-10
6.59954e-10
6.5893e-10
6.57946e-10
6.57007e-10
6.56115e-10
6.55273e-10
6.54482e-10
6.53745e-10
6.53061e-10
6.52433e-10
6.5186e-10
6.5134e-10
6.50873e-10
6.50455e-10
6.50086e-10
6.49761e-10
6.49479e-10
6.49236e-10
6.49027e-10
6.48849e-10
6.48698e-10
6.48571e-10
6.48465e-10
6.48374e-10
6.48296e-10
6.48222e-10
6.48144e-10
6.4805e-10
6.47917e-10
6.47708e-10
6.47355e-10
6.46737e-10
6.45643e-10
6.43695e-10
6.40244e-10
6.34174e-10
6.23685e-10
6.06098e-10
5.78075e-10
5.36898e-10
4.8317e-10
4.23237e-10
3.67442e-10
3.24008e-10
2.9492e-10
2.77444e-10
2.67649e-10
2.62374e-10
2.59596e-10
2.5815e-10
2.57402e-10
2.57014e-10
2.56814e-10
2.56709e-10
2.56655e-10
2.56625e-10
2.56608e-10
2.56598e-10
2.5659e-10
2.56585e-10
2.5658e-10
2.56575e-10
2.5657e-10
2.56565e-10
2.5656e-10
2.56554e-10
2.56548e-10
2.56542e-10
2.56535e-10
2.56528e-10
2.5652e-10
2.56512e-10
2.56504e-10
2.56495e-10
2.56486e-10
2.56476e-10
2.56466e-10
2.56455e-10
2.56444e-10
2.56432e-10
2.5642e-10
2.56408e-10
2.56395e-10
2.56382e-10
2.56369e-10
2.56356e-10
2.56342e-10
2.56329e-10
2.56315e-10
2.56301e-10
2.56287e-10
2.56273e-10
2.56259e-10
2.56246e-10
2.56233e-10
2.5622e-10
2.56207e-10
2.56195e-10
2.56184e-10
2.56173e-10
2.56162e-10
2.56152e-10
2.56143e-10
2.56135e-10
2.56128e-10
2.56121e-10
2.56115e-10
2.56111e-10
2.56107e-10
2.56105e-10
2.56103e-10
2.56102e-10
2.56102e-10
2.56102e-10
2.56104e-10
2.56107e-10
2.56111e-10
2.56116e-10
2.56122e-10
2.56129e-10
2.56136e-10
2.56144e-10
2.56153e-10
2.56162e-10
2.56171e-10
2.56181e-10
2.56192e-10
2.56202e-10
2.56213e-10
2.56224e-10
2.56235e-10
2.56246e-10
2.56257e-10
2.56268e-10
2.56278e-10
2.56289e-10
2.56299e-10
2.56309e-10
2.56319e-10
2.56329e-10
2.56338e-10
2.56346e-10
2.56355e-10
2.56363e-10
2.56371e-10
2.56378e-10
2.56385e-10
2.56391e-10
2.56398e-10
2.56404e-10
2.56409e-10
2.56415e-10
2.5642e-10
2.56425e-10
2.5643e-10
2.56434e-10
2.56438e-10
2.56442e-10
2.56446e-10
2.5645e-10
2.56454e-10
2.56457e-10
2.56461e-10
2.56464e-10
2.56467e-10
2.56471e-10
2.56474e-10
2.56477e-10
2.5648e-10
2.56484e-10
2.56487e-10
2.5649e-10
2.56493e-10
2.56496e-10
2.56499e-10
2.56502e-10
2.56506e-10
2.56509e-10
2.56512e-10
2.56515e-10
2.56518e-10
2.56521e-10
2.56525e-10
2.56528e-10
2.56531e-10
2.56534e-10
2.56537e-10
2.5654e-10
2.56543e-10
2.56546e-10
2.56549e-10
2.56552e-10
2.56555e-10
2.56558e-10
2.5656e-10
2.56563e-10
2.56566e-10
2.56568e-10
2.56571e-10
2.56574e-10
2.56576e-10
2.56578e-10
2.56581e-10
2.56583e-10
2.56585e-10
2.56587e-10
2.56589e-10
2.56591e-10
2.56593e-10
2.56595e-10
2.56597e-10
2.56598e-10
2.566e-10
2.56601e-10
2.56602e-10
2.56604e-10
2.56605e-10
2.56606e-10
2.56607e-10
2.56608e-10
2.56608e-10
2.56609e-10
2.5661e-10
2.5661e-10
2.5661e-10
2.56611e-10
2.56611e-10
2.56611e-10
2.5661e-10
2.5661e-10
2.5661e-10
2.5661e-10
)
;

boundaryField
{
    inlet
    {
        type            calculated;
        value           uniform -1.13622e-09;
    }
    outlet
    {
        type            calculated;
        value           uniform 2.56609e-10;
    }
    emptyWalls
    {
        type            empty;
        value           nonuniform List<scalar> 0();
    }
}


// ************************************************************************* //
