/*--------------------------------*- C++ -*----------------------------------*\
  =========                 |
  \\      /  F ield         | OpenFOAM: The Open Source CFD Toolbox
   \\    /   O peration     | Website:  https://openfoam.org
    \\  /    A nd           | Version:  9
     \\/     M anipulation  |
\*---------------------------------------------------------------------------*/
FoamFile
{
    format      ascii;
    class       volScalarField;
    location    "25550";
    object      Sa;
}
// * * * * * * * * * * * * * * * * * * * * * * * * * * * * * * * * * * * * * //

dimensions      [0 0 0 0 0 0 0];

internalField   nonuniform List<scalar> 
1000
(
0.549587
0.548743
0.547658
0.546519
0.54544
0.544278
0.543205
0.542017
0.540934
0.539734
0.538614
0.537423
0.536256
0.535071
0.533885
0.532697
0.531519
0.530344
0.529193
0.528067
0.526974
0.525937
0.52494
0.524041
0.52316
0.522433
0.521684
0.521117
0.520519
0.520069
0.519605
0.519184
0.518533
0.516799
0.510529
0.482477
0.310899
0.116457
0.0773726
0.0652127
0.059266
0.0554957
0.0527244
0.0504963
0.0486135
0.0469665
0.0454998
0.0441718
0.04296
0.0418421
0.0408073
0.0398431
0.0389457
0.038108
0.037327
0.0365961
0.0359107
0.0352627
0.034648
0.0340638
0.0335118
0.0329888
0.0324954
0.0320299
0.0316025
0.0312065
0.0308368
0.0304889
0.0301592
0.029842
0.0295348
0.0292339
0.0289387
0.0286498
0.0283684
0.0280946
0.0278301
0.0275677
0.0273
0.0270383
0.0267852
0.0265424
0.0263114
0.0260932
0.0258886
0.0256972
0.0255191
0.0253535
0.0251998
0.0250572
0.024925
0.0248023
0.0246883
0.0245824
0.024484
0.0243931
0.0243102
0.0242364
0.0241733
0.0241219
0.0240814
0.0240477
0.0240142
0.0239794
0.0239435
0.0239071
0.0238702
0.023833
0.0237958
0.0237585
0.0237213
0.0236841
0.0236472
0.0236104
0.0235739
0.0235375
0.0235014
0.0234656
0.02343
0.0233946
0.0233596
0.0233247
0.0232902
0.023256
0.0232221
0.0231884
0.023155
0.0231219
0.0230892
0.0230566
0.0230244
0.0229924
0.0229606
0.0229291
0.0228979
0.0228669
0.0228362
0.0228057
0.0227756
0.0227458
0.0227162
0.022687
0.0226581
0.0226294
0.0226009
0.0225726
0.0225445
0.0225165
0.0224887
0.022461
0.0224335
0.0224061
0.022379
0.0223521
0.0223256
0.0222993
0.0222734
0.0222477
0.0222222
0.0221969
0.0221718
0.0221467
0.0221217
0.0220966
0.0220715
0.0220463
0.0220211
0.021996
0.0219712
0.0219469
0.0219234
0.0219009
0.0218797
0.0218598
0.0218414
0.0218246
0.0218091
0.021795
0.0217821
0.0217702
0.021759
0.0217483
0.021738
0.0217276
0.0217169
0.0217057
0.0216935
0.02168
0.021665
0.0216482
0.0216293
0.0216083
0.021585
0.0215595
0.0215319
0.0215024
0.0214714
0.0214391
0.021406
0.0213724
0.0213387
0.0213053
0.0212724
0.0212404
0.0212093
0.0211794
0.0211507
0.0211232
0.0210969
0.0210717
0.0210476
0.0210243
0.0210018
0.0209799
0.0209586
0.0209377
0.020917
0.0208966
0.0208762
0.0208559
0.0208357
0.0208154
0.020795
0.0207746
0.0207542
0.0207336
0.0207131
0.0206924
0.0206718
0.0206511
0.0206305
0.0206098
0.0205892
0.0205687
0.0205482
0.0205278
0.0205074
0.0204871
0.020467
0.0204469
0.020427
0.0204071
0.0203874
0.0203677
0.0203482
0.0203288
0.0203096
0.0202904
0.0202714
0.0202525
0.0202338
0.0202151
0.0201966
0.0201782
0.0201599
0.0201417
0.0201237
0.0201058
0.020088
0.0200703
0.0200527
0.0200353
0.020018
0.0200008
0.0199838
0.0199669
0.0199501
0.0199334
0.0199168
0.0199004
0.019884
0.0198678
0.0198516
0.0198355
0.0198196
0.0198037
0.0197878
0.0197721
0.0197565
0.019741
0.0197256
0.0197103
0.0196951
0.0196799
0.0196649
0.01965
0.0196352
0.0196204
0.0196056
0.0195909
0.0195762
0.0195615
0.0195469
0.0195323
0.0195178
0.0195034
0.0194892
0.0194752
0.0194616
0.0194482
0.0194353
0.0194229
0.0194109
0.0193996
0.0193889
0.0193788
0.0193694
0.0193606
0.0193524
0.0193447
0.0193376
0.0193309
0.0193246
0.0193184
0.0193125
0.0193065
0.0193004
0.019294
0.0192873
0.01928
0.0192721
0.0192633
0.0192537
0.0192431
0.0192314
0.0192187
0.0192048
0.0191898
0.0191738
0.0191568
0.019139
0.0191203
0.019101
0.0190811
0.019061
0.0190405
0.0190201
0.0189996
0.0189794
0.0189594
0.0189398
0.0189207
0.018902
0.0188838
0.0188662
0.0188491
0.0188325
0.0188164
0.0188007
0.0187855
0.0187706
0.0187561
0.0187418
0.0187278
0.018714
0.0187003
0.0186867
0.0186733
0.0186599
0.0186465
0.0186331
0.0186198
0.0186064
0.0185931
0.0185797
0.0185663
0.0185529
0.0185395
0.0185261
0.0185126
0.0184992
0.0184857
0.0184723
0.0184589
0.0184455
0.0184321
0.0184188
0.0184055
0.0183923
0.018379
0.0183659
0.0183528
0.0183397
0.0183267
0.0183138
0.018301
0.0182881
0.0182754
0.0182627
0.0182501
0.0182376
0.0182251
0.0182127
0.0182004
0.0181882
0.018176
0.0181639
0.0181518
0.0181399
0.018128
0.0181162
0.0181044
0.0180928
0.0180812
0.0180696
0.0180582
0.0180468
0.0180355
0.0180242
0.0180131
0.018002
0.0179909
0.0179799
0.017969
0.0179581
0.0179473
0.0179365
0.0179258
0.0179152
0.0179046
0.0178941
0.0178836
0.0178732
0.0178628
0.0178525
0.0178422
0.0178319
0.0178217
0.0178116
0.0178015
0.0177914
0.0177813
0.0177713
0.0177613
0.0177514
0.0177415
0.0177317
0.017722
0.0177124
0.0177029
0.0176935
0.0176843
0.0176753
0.0176665
0.017658
0.0176497
0.0176418
0.0176341
0.0176267
0.0176197
0.0176131
0.0176067
0.0176007
0.0175951
0.0175897
0.0175846
0.0175797
0.0175751
0.0175706
0.0175662
0.0175619
0.0175576
0.0175532
0.0175487
0.017544
0.017539
0.0175338
0.0175281
0.017522
0.0175154
0.0175083
0.0175006
0.0174923
0.0174834
0.0174739
0.0174638
0.017453
0.0174417
0.0174298
0.0174174
0.0174046
0.0173914
0.0173779
0.0173641
0.0173501
0.017336
0.0173219
0.0173077
0.0172936
0.0172797
0.0172658
0.0172522
0.0172388
0.0172256
0.0172127
0.0172001
0.0171878
0.0171757
0.0171638
0.0171523
0.0171409
0.0171298
0.0171189
0.0171082
0.0170976
0.0170872
0.0170769
0.0170667
0.0170566
0.0170465
0.0170366
0.0170266
0.0170167
0.0170069
0.016997
0.0169871
0.0169773
0.0169675
0.0169576
0.0169478
0.0169379
0.0169281
0.0169182
0.0169084
0.0168985
0.0168887
0.0168789
0.016869
0.0168592
0.0168494
0.0168397
0.0168299
0.0168202
0.0168105
0.0168008
0.0167911
0.0167815
0.0167719
0.0167624
0.0167529
0.0167434
0.016734
0.0167246
0.0167153
0.016706
0.0166967
0.0166875
0.0166783
0.0166692
0.0166602
0.0166511
0.0166422
0.0166332
0.0166244
0.0166155
0.0166067
0.016598
0.0165893
0.0165807
0.0165721
0.0165636
0.0165551
0.0165466
0.0165382
0.0165299
0.0165215
0.0165133
0.016505
0.0164969
0.0164887
0.0164806
0.0164725
0.0164645
0.0164565
0.0164485
0.0164406
0.0164327
0.0164249
0.016417
0.0164092
0.0164015
0.0163937
0.016386
0.0163784
0.0163707
0.0163631
0.0163555
0.016348
0.0163404
0.016333
0.0163256
0.0163182
0.0163109
0.0163037
0.0162965
0.0162895
0.0162825
0.0162757
0.016269
0.0162624
0.016256
0.0162498
0.0162437
0.0162378
0.0162321
0.0162266
0.0162213
0.0162162
0.0162113
0.0162066
0.0162021
0.0161978
0.0161937
0.0161897
0.0161858
0.0161821
0.0161784
0.0161748
0.0161713
0.0161677
0.0161642
0.0161606
0.0161569
0.0161531
0.0161491
0.016145
0.0161406
0.016136
0.016131
0.0161258
0.0161203
0.0161144
0.0161081
0.0161015
0.0160945
0.0160871
0.0160793
0.0160711
0.0160626
0.0160537
0.0160445
0.0160351
0.0160253
0.0160153
0.0160052
0.0159948
0.0159843
0.0159737
0.0159631
0.0159524
0.0159417
0.0159311
0.0159205
0.01591
0.0158995
0.0158892
0.0158791
0.015869
0.0158592
0.0158494
0.0158398
0.0158304
0.0158211
0.015812
0.015803
0.0157941
0.0157854
0.0157768
0.0157682
0.0157598
0.0157515
0.0157432
0.015735
0.0157269
0.0157188
0.0157107
0.0157027
0.0156947
0.0156867
0.0156788
0.0156708
0.0156629
0.015655
0.0156471
0.0156392
0.0156313
0.0156234
0.0156155
0.0156076
0.0155997
0.0155918
0.0155839
0.0155761
0.0155682
0.0155603
0.0155525
0.0155447
0.0155369
0.0155291
0.0155213
0.0155135
0.0155058
0.0154981
0.0154904
0.0154827
0.0154751
0.0154675
0.0154599
0.0154523
0.0154448
0.0154373
0.0154299
0.0154224
0.015415
0.0154076
0.0154003
0.015393
0.0153858
0.0153785
0.0153714
0.0153641
0.0153571
0.0153499
0.015343
0.0153358
0.015329
0.0153219
0.0153151
0.015308
0.0153014
0.0152944
0.0152878
0.0152808
0.0152744
0.0152674
0.015261
0.0152541
0.0152478
0.0152409
0.0152347
0.0152278
0.0152217
0.0152149
0.0152088
0.015202
0.0151959
0.0151893
0.0151832
0.0151766
0.0151706
0.015164
0.015158
0.0151516
0.0151456
0.0151392
0.0151333
0.015127
0.0151211
0.015115
0.0151091
0.0151032
0.0150974
0.0150915
0.0150859
0.0150802
0.0150747
0.0150692
0.0150638
0.0150586
0.0150534
0.0150484
0.0150434
0.0150386
0.0150339
0.0150294
0.0150249
0.0150206
0.0150164
0.0150124
0.0150084
0.0150046
0.0150009
0.0149972
0.0149937
0.0149902
0.0149868
0.0149835
0.0149802
0.0149769
0.0149736
0.0149704
0.014967
0.0149637
0.0149602
0.0149567
0.0149531
0.0149493
0.0149455
0.0149414
0.0149372
0.0149327
0.0149281
0.0149232
0.0149181
0.0149128
0.0149072
0.0149014
0.0148953
0.014889
0.0148824
0.0148755
0.0148685
0.0148611
0.0148536
0.0148459
0.014838
0.0148298
0.0148216
0.0148132
0.0148047
0.0147961
0.0147874
0.0147786
0.0147699
0.014761
0.0147522
0.0147434
0.0147347
0.0147259
0.0147173
0.0147086
0.0147001
0.0146916
0.0146833
0.0146749
0.0146667
0.0146586
0.0146506
0.0146426
0.0146348
0.014627
0.0146194
0.0146117
0.0146042
0.0145967
0.0145893
0.0145819
0.0145747
0.0145674
0.0145602
0.014553
0.0145459
0.0145388
0.0145318
0.0145246
0.0145177
0.0145106
0.0145036
0.0144966
0.0144897
0.0144826
0.0144757
0.0144686
0.0144618
0.0144547
0.0144478
0.0144408
0.0144339
0.0144269
0.0144201
0.0144131
0.0144062
0.0143992
0.0143924
0.0143854
0.0143786
0.0143716
0.0143648
0.0143579
0.0143511
0.0143442
0.0143375
0.0143306
0.0143239
0.0143171
0.0143104
0.0143036
0.014297
0.0142902
0.0142836
0.0142769
0.0142703
0.0142636
0.0142571
0.0142505
0.014244
0.0142374
0.014231
0.0142244
0.0142181
0.0142115
0.0142053
0.0141987
0.0141925
0.0141859
0.0141798
0.0141733
0.0141673
0.0141607
0.0141547
0.0141482
0.0141423
0.0141358
0.01413
0.0141234
0.0141177
0.0141111
0.0141054
0.0140989
0.0140933
0.0140868
0.0140812
0.0140747
0.0140691
0.0140626
0.0140571
0.0140507
0.0140452
0.0140388
0.0140333
0.0140269
0.0140216
0.0140152
0.0140099
0.0140035
0.0139983
0.013992
0.0139868
0.0139805
0.0139754
0.0139692
0.0139642
0.0139581
0.0139533
0.0139472
0.0139425
0.0139366
0.013932
0.0139262
0.0139218
0.0139161
0.0139119
0.0139063
0.0139023
0.0138969
0.0138931
0.0138879
0.0138843
0.0138792
0.0138759
0.013871
0.0138679
0.0138631
0.0138603
0.0138556
0.0138531
0.0138485
0.0138462
0.0138418
0.0138398
0.0138354
0.0138337
0.0138295
0.013828
0.0138239
0.0138227
0.0138187
0.0138177
0.0138139
0.013813
0.0138095
0.0138087
0.0138054
0.0138047
0.0138017
0.013801
0.0137982
0.0137976
0.013795
0.0137944
0.013792
0.0137914
0.013789
0.0137884
0.0137861
0.0137855
0.0137831
0.0137825
0.013779
0.189589
)
;

boundaryField
{
    inlet
    {
        type            fixedValue;
        value           uniform 0.55;
    }
    outlet
    {
        type            zeroGradient;
    }
    emptyWalls
    {
        type            empty;
    }
}


// ************************************************************************* //
