/*--------------------------------*- C++ -*----------------------------------*\
  =========                 |
  \\      /  F ield         | OpenFOAM: The Open Source CFD Toolbox
   \\    /   O peration     | Website:  https://openfoam.org
    \\  /    A nd           | Version:  9
     \\/     M anipulation  |
\*---------------------------------------------------------------------------*/
FoamFile
{
    format      ascii;
    class       volVectorField;
    location    "25550";
    object      Uc;
}
// * * * * * * * * * * * * * * * * * * * * * * * * * * * * * * * * * * * * * //

dimensions      [0 0 0 0 0 0 0];

internalField   nonuniform List<vector> 
1000
(
(3.97016e-12 0 0)
(2.03011e-11 0 0)
(5.64001e-11 0 0)
(1.14781e-10 0 0)
(1.94757e-10 0 0)
(2.96075e-10 0 0)
(4.18706e-10 0 0)
(5.62721e-10 0 0)
(7.28243e-10 0 0)
(9.15341e-10 0 0)
(1.12407e-09 0 0)
(1.35427e-09 0 0)
(1.60565e-09 0 0)
(1.87764e-09 0 0)
(2.16929e-09 0 0)
(2.47926e-09 0 0)
(2.80562e-09 0 0)
(3.14581e-09 0 0)
(3.49659e-09 0 0)
(3.85394e-09 0 0)
(4.21327e-09 0 0)
(4.56945e-09 0 0)
(4.91727e-09 0 0)
(5.25154e-09 0 0)
(5.56784e-09 0 0)
(5.8626e-09 0 0)
(6.13337e-09 0 0)
(6.37931e-09 0 0)
(6.60056e-09 0 0)
(6.79958e-09 0 0)
(6.98428e-09 0 0)
(7.18706e-09 0 0)
(7.55425e-09 0 0)
(8.73151e-09 0 0)
(1.30751e-08 0 0)
(3.35367e-08 0 0)
(1.11858e-07 0 0)
(1.88463e-07 0 0)
(2.08146e-07 0 0)
(2.1448e-07 0 0)
(2.17667e-07 0 0)
(2.19775e-07 0 0)
(2.21404e-07 0 0)
(2.22781e-07 0 0)
(2.24008e-07 0 0)
(2.25135e-07 0 0)
(2.2619e-07 0 0)
(2.27192e-07 0 0)
(2.28152e-07 0 0)
(2.29079e-07 0 0)
(2.29978e-07 0 0)
(2.30855e-07 0 0)
(2.31709e-07 0 0)
(2.32543e-07 0 0)
(2.33357e-07 0 0)
(2.34153e-07 0 0)
(2.34934e-07 0 0)
(2.35706e-07 0 0)
(2.36471e-07 0 0)
(2.3723e-07 0 0)
(2.37981e-07 0 0)
(2.38725e-07 0 0)
(2.39461e-07 0 0)
(2.40185e-07 0 0)
(2.40883e-07 0 0)
(2.41558e-07 0 0)
(2.42224e-07 0 0)
(2.42881e-07 0 0)
(2.43535e-07 0 0)
(2.44195e-07 0 0)
(2.44865e-07 0 0)
(2.4555e-07 0 0)
(2.46254e-07 0 0)
(2.46974e-07 0 0)
(2.47713e-07 0 0)
(2.48471e-07 0 0)
(2.49246e-07 0 0)
(2.50054e-07 0 0)
(2.50903e-07 0 0)
(2.51777e-07 0 0)
(2.52672e-07 0 0)
(2.53585e-07 0 0)
(2.54513e-07 0 0)
(2.55455e-07 0 0)
(2.56413e-07 0 0)
(2.57386e-07 0 0)
(2.58378e-07 0 0)
(2.59392e-07 0 0)
(2.60435e-07 0 0)
(2.61512e-07 0 0)
(2.62632e-07 0 0)
(2.63806e-07 0 0)
(2.6505e-07 0 0)
(2.66381e-07 0 0)
(2.67826e-07 0 0)
(2.69414e-07 0 0)
(2.71182e-07 0 0)
(2.73167e-07 0 0)
(2.75403e-07 0 0)
(2.77907e-07 0 0)
(2.80675e-07 0 0)
(2.83673e-07 0 0)
(2.86856e-07 0 0)
(2.9018e-07 0 0)
(2.9361e-07 0 0)
(2.97122e-07 0 0)
(3.00699e-07 0 0)
(3.04329e-07 0 0)
(3.08003e-07 0 0)
(3.11712e-07 0 0)
(3.15452e-07 0 0)
(3.19219e-07 0 0)
(3.23009e-07 0 0)
(3.2682e-07 0 0)
(3.30649e-07 0 0)
(3.34496e-07 0 0)
(3.38358e-07 0 0)
(3.42234e-07 0 0)
(3.46125e-07 0 0)
(3.50027e-07 0 0)
(3.53942e-07 0 0)
(3.57868e-07 0 0)
(3.61805e-07 0 0)
(3.65753e-07 0 0)
(3.6971e-07 0 0)
(3.73676e-07 0 0)
(3.77652e-07 0 0)
(3.81637e-07 0 0)
(3.8563e-07 0 0)
(3.89632e-07 0 0)
(3.93642e-07 0 0)
(3.9766e-07 0 0)
(4.01686e-07 0 0)
(4.0572e-07 0 0)
(4.09761e-07 0 0)
(4.1381e-07 0 0)
(4.17866e-07 0 0)
(4.21928e-07 0 0)
(4.25998e-07 0 0)
(4.30073e-07 0 0)
(4.34156e-07 0 0)
(4.38245e-07 0 0)
(4.4234e-07 0 0)
(4.46441e-07 0 0)
(4.50549e-07 0 0)
(4.54663e-07 0 0)
(4.58783e-07 0 0)
(4.6291e-07 0 0)
(4.67043e-07 0 0)
(4.71182e-07 0 0)
(4.75327e-07 0 0)
(4.79479e-07 0 0)
(4.83636e-07 0 0)
(4.87798e-07 0 0)
(4.91965e-07 0 0)
(4.96137e-07 0 0)
(5.00315e-07 0 0)
(5.04497e-07 0 0)
(5.08684e-07 0 0)
(5.12877e-07 0 0)
(5.17075e-07 0 0)
(5.21279e-07 0 0)
(5.25488e-07 0 0)
(5.29704e-07 0 0)
(5.33926e-07 0 0)
(5.38155e-07 0 0)
(5.42389e-07 0 0)
(5.46629e-07 0 0)
(5.50873e-07 0 0)
(5.5512e-07 0 0)
(5.59368e-07 0 0)
(5.63615e-07 0 0)
(5.67861e-07 0 0)
(5.72104e-07 0 0)
(5.76343e-07 0 0)
(5.80579e-07 0 0)
(5.8481e-07 0 0)
(5.89037e-07 0 0)
(5.93262e-07 0 0)
(5.97485e-07 0 0)
(6.01707e-07 0 0)
(6.0593e-07 0 0)
(6.10155e-07 0 0)
(6.14384e-07 0 0)
(6.18619e-07 0 0)
(6.22862e-07 0 0)
(6.27115e-07 0 0)
(6.3138e-07 0 0)
(6.3566e-07 0 0)
(6.39957e-07 0 0)
(6.44272e-07 0 0)
(6.48608e-07 0 0)
(6.52964e-07 0 0)
(6.5734e-07 0 0)
(6.61737e-07 0 0)
(6.66153e-07 0 0)
(6.70586e-07 0 0)
(6.75034e-07 0 0)
(6.79494e-07 0 0)
(6.83964e-07 0 0)
(6.88442e-07 0 0)
(6.92923e-07 0 0)
(6.97406e-07 0 0)
(7.0189e-07 0 0)
(7.06371e-07 0 0)
(7.1085e-07 0 0)
(7.15326e-07 0 0)
(7.19798e-07 0 0)
(7.24265e-07 0 0)
(7.2873e-07 0 0)
(7.33191e-07 0 0)
(7.37651e-07 0 0)
(7.42109e-07 0 0)
(7.46567e-07 0 0)
(7.51025e-07 0 0)
(7.55484e-07 0 0)
(7.59946e-07 0 0)
(7.64411e-07 0 0)
(7.6888e-07 0 0)
(7.73352e-07 0 0)
(7.77829e-07 0 0)
(7.82311e-07 0 0)
(7.86798e-07 0 0)
(7.9129e-07 0 0)
(7.95787e-07 0 0)
(8.00289e-07 0 0)
(8.04796e-07 0 0)
(8.09308e-07 0 0)
(8.13825e-07 0 0)
(8.18347e-07 0 0)
(8.22873e-07 0 0)
(8.27404e-07 0 0)
(8.31939e-07 0 0)
(8.36478e-07 0 0)
(8.41021e-07 0 0)
(8.45568e-07 0 0)
(8.50119e-07 0 0)
(8.54673e-07 0 0)
(8.59231e-07 0 0)
(8.63793e-07 0 0)
(8.68358e-07 0 0)
(8.72926e-07 0 0)
(8.77498e-07 0 0)
(8.82073e-07 0 0)
(8.86651e-07 0 0)
(8.91233e-07 0 0)
(8.95817e-07 0 0)
(9.00405e-07 0 0)
(9.04996e-07 0 0)
(9.0959e-07 0 0)
(9.14187e-07 0 0)
(9.18786e-07 0 0)
(9.23389e-07 0 0)
(9.27995e-07 0 0)
(9.32604e-07 0 0)
(9.37216e-07 0 0)
(9.41831e-07 0 0)
(9.46449e-07 0 0)
(9.51069e-07 0 0)
(9.55693e-07 0 0)
(9.60319e-07 0 0)
(9.64948e-07 0 0)
(9.69579e-07 0 0)
(9.74214e-07 0 0)
(9.7885e-07 0 0)
(9.8349e-07 0 0)
(9.88132e-07 0 0)
(9.92777e-07 0 0)
(9.97425e-07 0 0)
(1.00208e-06 0 0)
(1.00673e-06 0 0)
(1.01138e-06 0 0)
(1.01604e-06 0 0)
(1.02071e-06 0 0)
(1.02537e-06 0 0)
(1.03004e-06 0 0)
(1.03471e-06 0 0)
(1.03938e-06 0 0)
(1.04406e-06 0 0)
(1.04874e-06 0 0)
(1.05342e-06 0 0)
(1.0581e-06 0 0)
(1.06279e-06 0 0)
(1.06748e-06 0 0)
(1.07217e-06 0 0)
(1.07687e-06 0 0)
(1.08156e-06 0 0)
(1.08626e-06 0 0)
(1.09097e-06 0 0)
(1.09567e-06 0 0)
(1.10039e-06 0 0)
(1.1051e-06 0 0)
(1.10982e-06 0 0)
(1.11454e-06 0 0)
(1.11926e-06 0 0)
(1.12399e-06 0 0)
(1.12871e-06 0 0)
(1.13344e-06 0 0)
(1.13817e-06 0 0)
(1.14289e-06 0 0)
(1.14762e-06 0 0)
(1.15234e-06 0 0)
(1.15706e-06 0 0)
(1.16177e-06 0 0)
(1.16648e-06 0 0)
(1.17118e-06 0 0)
(1.17587e-06 0 0)
(1.18056e-06 0 0)
(1.18525e-06 0 0)
(1.18993e-06 0 0)
(1.1946e-06 0 0)
(1.19927e-06 0 0)
(1.20394e-06 0 0)
(1.20861e-06 0 0)
(1.21328e-06 0 0)
(1.21795e-06 0 0)
(1.22263e-06 0 0)
(1.22731e-06 0 0)
(1.232e-06 0 0)
(1.2367e-06 0 0)
(1.24142e-06 0 0)
(1.24615e-06 0 0)
(1.25089e-06 0 0)
(1.25566e-06 0 0)
(1.26044e-06 0 0)
(1.26524e-06 0 0)
(1.27007e-06 0 0)
(1.27491e-06 0 0)
(1.27978e-06 0 0)
(1.28467e-06 0 0)
(1.28957e-06 0 0)
(1.29449e-06 0 0)
(1.29943e-06 0 0)
(1.30438e-06 0 0)
(1.30934e-06 0 0)
(1.31431e-06 0 0)
(1.31928e-06 0 0)
(1.32426e-06 0 0)
(1.32924e-06 0 0)
(1.33422e-06 0 0)
(1.3392e-06 0 0)
(1.34417e-06 0 0)
(1.34915e-06 0 0)
(1.35412e-06 0 0)
(1.35908e-06 0 0)
(1.36404e-06 0 0)
(1.369e-06 0 0)
(1.37395e-06 0 0)
(1.3789e-06 0 0)
(1.38384e-06 0 0)
(1.38879e-06 0 0)
(1.39373e-06 0 0)
(1.39867e-06 0 0)
(1.40361e-06 0 0)
(1.40855e-06 0 0)
(1.41349e-06 0 0)
(1.41844e-06 0 0)
(1.42338e-06 0 0)
(1.42833e-06 0 0)
(1.43329e-06 0 0)
(1.43824e-06 0 0)
(1.4432e-06 0 0)
(1.44817e-06 0 0)
(1.45313e-06 0 0)
(1.45811e-06 0 0)
(1.46308e-06 0 0)
(1.46806e-06 0 0)
(1.47305e-06 0 0)
(1.47804e-06 0 0)
(1.48303e-06 0 0)
(1.48803e-06 0 0)
(1.49303e-06 0 0)
(1.49804e-06 0 0)
(1.50305e-06 0 0)
(1.50806e-06 0 0)
(1.51307e-06 0 0)
(1.51809e-06 0 0)
(1.52312e-06 0 0)
(1.52814e-06 0 0)
(1.53317e-06 0 0)
(1.5382e-06 0 0)
(1.54324e-06 0 0)
(1.54828e-06 0 0)
(1.55332e-06 0 0)
(1.55836e-06 0 0)
(1.56341e-06 0 0)
(1.56846e-06 0 0)
(1.57351e-06 0 0)
(1.57857e-06 0 0)
(1.58363e-06 0 0)
(1.58869e-06 0 0)
(1.59375e-06 0 0)
(1.59881e-06 0 0)
(1.60388e-06 0 0)
(1.60895e-06 0 0)
(1.61403e-06 0 0)
(1.6191e-06 0 0)
(1.62418e-06 0 0)
(1.62926e-06 0 0)
(1.63434e-06 0 0)
(1.63943e-06 0 0)
(1.64452e-06 0 0)
(1.64961e-06 0 0)
(1.6547e-06 0 0)
(1.65979e-06 0 0)
(1.66489e-06 0 0)
(1.66999e-06 0 0)
(1.67509e-06 0 0)
(1.6802e-06 0 0)
(1.6853e-06 0 0)
(1.69041e-06 0 0)
(1.69553e-06 0 0)
(1.70064e-06 0 0)
(1.70576e-06 0 0)
(1.71088e-06 0 0)
(1.716e-06 0 0)
(1.72113e-06 0 0)
(1.72625e-06 0 0)
(1.73139e-06 0 0)
(1.73652e-06 0 0)
(1.74165e-06 0 0)
(1.74679e-06 0 0)
(1.75194e-06 0 0)
(1.75708e-06 0 0)
(1.76223e-06 0 0)
(1.76738e-06 0 0)
(1.77253e-06 0 0)
(1.77768e-06 0 0)
(1.78284e-06 0 0)
(1.788e-06 0 0)
(1.79317e-06 0 0)
(1.79834e-06 0 0)
(1.80351e-06 0 0)
(1.80868e-06 0 0)
(1.81386e-06 0 0)
(1.81904e-06 0 0)
(1.82422e-06 0 0)
(1.8294e-06 0 0)
(1.83459e-06 0 0)
(1.83977e-06 0 0)
(1.84496e-06 0 0)
(1.85015e-06 0 0)
(1.85533e-06 0 0)
(1.86052e-06 0 0)
(1.8657e-06 0 0)
(1.87088e-06 0 0)
(1.87605e-06 0 0)
(1.88122e-06 0 0)
(1.88639e-06 0 0)
(1.89155e-06 0 0)
(1.8967e-06 0 0)
(1.90185e-06 0 0)
(1.907e-06 0 0)
(1.91214e-06 0 0)
(1.91728e-06 0 0)
(1.92241e-06 0 0)
(1.92754e-06 0 0)
(1.93267e-06 0 0)
(1.93779e-06 0 0)
(1.94292e-06 0 0)
(1.94805e-06 0 0)
(1.95318e-06 0 0)
(1.95831e-06 0 0)
(1.96346e-06 0 0)
(1.96861e-06 0 0)
(1.97377e-06 0 0)
(1.97894e-06 0 0)
(1.98413e-06 0 0)
(1.98933e-06 0 0)
(1.99455e-06 0 0)
(1.99978e-06 0 0)
(2.00504e-06 0 0)
(2.01032e-06 0 0)
(2.01561e-06 0 0)
(2.02093e-06 0 0)
(2.02627e-06 0 0)
(2.03163e-06 0 0)
(2.03702e-06 0 0)
(2.04242e-06 0 0)
(2.04784e-06 0 0)
(2.05328e-06 0 0)
(2.05873e-06 0 0)
(2.0642e-06 0 0)
(2.06968e-06 0 0)
(2.07517e-06 0 0)
(2.08067e-06 0 0)
(2.08618e-06 0 0)
(2.09169e-06 0 0)
(2.09721e-06 0 0)
(2.10273e-06 0 0)
(2.10825e-06 0 0)
(2.11376e-06 0 0)
(2.11928e-06 0 0)
(2.1248e-06 0 0)
(2.13031e-06 0 0)
(2.13582e-06 0 0)
(2.14132e-06 0 0)
(2.14683e-06 0 0)
(2.15233e-06 0 0)
(2.15783e-06 0 0)
(2.16332e-06 0 0)
(2.16882e-06 0 0)
(2.17431e-06 0 0)
(2.1798e-06 0 0)
(2.18529e-06 0 0)
(2.19079e-06 0 0)
(2.19628e-06 0 0)
(2.20178e-06 0 0)
(2.20727e-06 0 0)
(2.21277e-06 0 0)
(2.21827e-06 0 0)
(2.22378e-06 0 0)
(2.22929e-06 0 0)
(2.2348e-06 0 0)
(2.24032e-06 0 0)
(2.24584e-06 0 0)
(2.25137e-06 0 0)
(2.2569e-06 0 0)
(2.26244e-06 0 0)
(2.26798e-06 0 0)
(2.27353e-06 0 0)
(2.27908e-06 0 0)
(2.28463e-06 0 0)
(2.29019e-06 0 0)
(2.29576e-06 0 0)
(2.30133e-06 0 0)
(2.3069e-06 0 0)
(2.31248e-06 0 0)
(2.31807e-06 0 0)
(2.32366e-06 0 0)
(2.32925e-06 0 0)
(2.33485e-06 0 0)
(2.34045e-06 0 0)
(2.34606e-06 0 0)
(2.35167e-06 0 0)
(2.35728e-06 0 0)
(2.3629e-06 0 0)
(2.36852e-06 0 0)
(2.37414e-06 0 0)
(2.37977e-06 0 0)
(2.38541e-06 0 0)
(2.39104e-06 0 0)
(2.39668e-06 0 0)
(2.40233e-06 0 0)
(2.40798e-06 0 0)
(2.41363e-06 0 0)
(2.41928e-06 0 0)
(2.42494e-06 0 0)
(2.4306e-06 0 0)
(2.43627e-06 0 0)
(2.44193e-06 0 0)
(2.44761e-06 0 0)
(2.45328e-06 0 0)
(2.45896e-06 0 0)
(2.46464e-06 0 0)
(2.47033e-06 0 0)
(2.47602e-06 0 0)
(2.48171e-06 0 0)
(2.4874e-06 0 0)
(2.4931e-06 0 0)
(2.49881e-06 0 0)
(2.50451e-06 0 0)
(2.51022e-06 0 0)
(2.51593e-06 0 0)
(2.52165e-06 0 0)
(2.52737e-06 0 0)
(2.5331e-06 0 0)
(2.53882e-06 0 0)
(2.54455e-06 0 0)
(2.55029e-06 0 0)
(2.55603e-06 0 0)
(2.56177e-06 0 0)
(2.56752e-06 0 0)
(2.57327e-06 0 0)
(2.57902e-06 0 0)
(2.58478e-06 0 0)
(2.59054e-06 0 0)
(2.59631e-06 0 0)
(2.60208e-06 0 0)
(2.60785e-06 0 0)
(2.61363e-06 0 0)
(2.61941e-06 0 0)
(2.6252e-06 0 0)
(2.63099e-06 0 0)
(2.63678e-06 0 0)
(2.64258e-06 0 0)
(2.64839e-06 0 0)
(2.65419e-06 0 0)
(2.66001e-06 0 0)
(2.66582e-06 0 0)
(2.67164e-06 0 0)
(2.67746e-06 0 0)
(2.68328e-06 0 0)
(2.68911e-06 0 0)
(2.69494e-06 0 0)
(2.70077e-06 0 0)
(2.7066e-06 0 0)
(2.71243e-06 0 0)
(2.71827e-06 0 0)
(2.7241e-06 0 0)
(2.72993e-06 0 0)
(2.73576e-06 0 0)
(2.74159e-06 0 0)
(2.74742e-06 0 0)
(2.75324e-06 0 0)
(2.75906e-06 0 0)
(2.76488e-06 0 0)
(2.7707e-06 0 0)
(2.77651e-06 0 0)
(2.78232e-06 0 0)
(2.78812e-06 0 0)
(2.79392e-06 0 0)
(2.79973e-06 0 0)
(2.80553e-06 0 0)
(2.81132e-06 0 0)
(2.81712e-06 0 0)
(2.82292e-06 0 0)
(2.82872e-06 0 0)
(2.83453e-06 0 0)
(2.84034e-06 0 0)
(2.84616e-06 0 0)
(2.85198e-06 0 0)
(2.85781e-06 0 0)
(2.86365e-06 0 0)
(2.8695e-06 0 0)
(2.87537e-06 0 0)
(2.88125e-06 0 0)
(2.88715e-06 0 0)
(2.89307e-06 0 0)
(2.899e-06 0 0)
(2.90496e-06 0 0)
(2.91093e-06 0 0)
(2.91693e-06 0 0)
(2.92295e-06 0 0)
(2.92899e-06 0 0)
(2.93506e-06 0 0)
(2.94115e-06 0 0)
(2.94726e-06 0 0)
(2.9534e-06 0 0)
(2.95956e-06 0 0)
(2.96574e-06 0 0)
(2.97193e-06 0 0)
(2.97815e-06 0 0)
(2.98439e-06 0 0)
(2.99064e-06 0 0)
(2.99691e-06 0 0)
(3.00319e-06 0 0)
(3.00948e-06 0 0)
(3.01578e-06 0 0)
(3.02209e-06 0 0)
(3.02841e-06 0 0)
(3.03474e-06 0 0)
(3.04107e-06 0 0)
(3.0474e-06 0 0)
(3.05374e-06 0 0)
(3.06007e-06 0 0)
(3.06641e-06 0 0)
(3.07275e-06 0 0)
(3.07909e-06 0 0)
(3.08543e-06 0 0)
(3.09178e-06 0 0)
(3.09812e-06 0 0)
(3.10446e-06 0 0)
(3.1108e-06 0 0)
(3.11714e-06 0 0)
(3.12349e-06 0 0)
(3.12983e-06 0 0)
(3.13618e-06 0 0)
(3.14253e-06 0 0)
(3.14888e-06 0 0)
(3.15524e-06 0 0)
(3.1616e-06 0 0)
(3.16796e-06 0 0)
(3.17433e-06 0 0)
(3.1807e-06 0 0)
(3.18708e-06 0 0)
(3.19346e-06 0 0)
(3.19985e-06 0 0)
(3.20625e-06 0 0)
(3.21265e-06 0 0)
(3.21906e-06 0 0)
(3.22547e-06 0 0)
(3.2319e-06 0 0)
(3.23833e-06 0 0)
(3.24477e-06 0 0)
(3.25121e-06 0 0)
(3.25767e-06 0 0)
(3.26413e-06 0 0)
(3.27059e-06 0 0)
(3.27707e-06 0 0)
(3.28355e-06 0 0)
(3.29004e-06 0 0)
(3.29654e-06 0 0)
(3.30305e-06 0 0)
(3.30956e-06 0 0)
(3.31608e-06 0 0)
(3.32261e-06 0 0)
(3.32915e-06 0 0)
(3.33569e-06 0 0)
(3.34224e-06 0 0)
(3.34879e-06 0 0)
(3.35536e-06 0 0)
(3.36193e-06 0 0)
(3.3685e-06 0 0)
(3.37509e-06 0 0)
(3.38168e-06 0 0)
(3.38828e-06 0 0)
(3.39488e-06 0 0)
(3.40149e-06 0 0)
(3.40811e-06 0 0)
(3.41473e-06 0 0)
(3.42136e-06 0 0)
(3.428e-06 0 0)
(3.43465e-06 0 0)
(3.4413e-06 0 0)
(3.44795e-06 0 0)
(3.45462e-06 0 0)
(3.46129e-06 0 0)
(3.46797e-06 0 0)
(3.47465e-06 0 0)
(3.48134e-06 0 0)
(3.48804e-06 0 0)
(3.49474e-06 0 0)
(3.50145e-06 0 0)
(3.50817e-06 0 0)
(3.5149e-06 0 0)
(3.52163e-06 0 0)
(3.52837e-06 0 0)
(3.53511e-06 0 0)
(3.54186e-06 0 0)
(3.54862e-06 0 0)
(3.55539e-06 0 0)
(3.56216e-06 0 0)
(3.56894e-06 0 0)
(3.57573e-06 0 0)
(3.58253e-06 0 0)
(3.58933e-06 0 0)
(3.59614e-06 0 0)
(3.60296e-06 0 0)
(3.60978e-06 0 0)
(3.61661e-06 0 0)
(3.62345e-06 0 0)
(3.6303e-06 0 0)
(3.63716e-06 0 0)
(3.64402e-06 0 0)
(3.65089e-06 0 0)
(3.65777e-06 0 0)
(3.66466e-06 0 0)
(3.67156e-06 0 0)
(3.67846e-06 0 0)
(3.68537e-06 0 0)
(3.69229e-06 0 0)
(3.69922e-06 0 0)
(3.70616e-06 0 0)
(3.7131e-06 0 0)
(3.72005e-06 0 0)
(3.72701e-06 0 0)
(3.73398e-06 0 0)
(3.74095e-06 0 0)
(3.74793e-06 0 0)
(3.75492e-06 0 0)
(3.76191e-06 0 0)
(3.76891e-06 0 0)
(3.77592e-06 0 0)
(3.78293e-06 0 0)
(3.78995e-06 0 0)
(3.79697e-06 0 0)
(3.80399e-06 0 0)
(3.81102e-06 0 0)
(3.81805e-06 0 0)
(3.82508e-06 0 0)
(3.83212e-06 0 0)
(3.83916e-06 0 0)
(3.84621e-06 0 0)
(3.85325e-06 0 0)
(3.8603e-06 0 0)
(3.86735e-06 0 0)
(3.8744e-06 0 0)
(3.88145e-06 0 0)
(3.88851e-06 0 0)
(3.89557e-06 0 0)
(3.90264e-06 0 0)
(3.9097e-06 0 0)
(3.91678e-06 0 0)
(3.92386e-06 0 0)
(3.93094e-06 0 0)
(3.93803e-06 0 0)
(3.94513e-06 0 0)
(3.95224e-06 0 0)
(3.95936e-06 0 0)
(3.96648e-06 0 0)
(3.97363e-06 0 0)
(3.98078e-06 0 0)
(3.98795e-06 0 0)
(3.99514e-06 0 0)
(4.00235e-06 0 0)
(4.00957e-06 0 0)
(4.01682e-06 0 0)
(4.02409e-06 0 0)
(4.03138e-06 0 0)
(4.0387e-06 0 0)
(4.04604e-06 0 0)
(4.05341e-06 0 0)
(4.06081e-06 0 0)
(4.06823e-06 0 0)
(4.07569e-06 0 0)
(4.08317e-06 0 0)
(4.09069e-06 0 0)
(4.09823e-06 0 0)
(4.10581e-06 0 0)
(4.11341e-06 0 0)
(4.12105e-06 0 0)
(4.12871e-06 0 0)
(4.13641e-06 0 0)
(4.14413e-06 0 0)
(4.15188e-06 0 0)
(4.15965e-06 0 0)
(4.16745e-06 0 0)
(4.17528e-06 0 0)
(4.18313e-06 0 0)
(4.19099e-06 0 0)
(4.19888e-06 0 0)
(4.20679e-06 0 0)
(4.21472e-06 0 0)
(4.22266e-06 0 0)
(4.23061e-06 0 0)
(4.23859e-06 0 0)
(4.24657e-06 0 0)
(4.25457e-06 0 0)
(4.26258e-06 0 0)
(4.2706e-06 0 0)
(4.27863e-06 0 0)
(4.28667e-06 0 0)
(4.29472e-06 0 0)
(4.30278e-06 0 0)
(4.31085e-06 0 0)
(4.31893e-06 0 0)
(4.32702e-06 0 0)
(4.33511e-06 0 0)
(4.34322e-06 0 0)
(4.35134e-06 0 0)
(4.35947e-06 0 0)
(4.3676e-06 0 0)
(4.37575e-06 0 0)
(4.38391e-06 0 0)
(4.39208e-06 0 0)
(4.40027e-06 0 0)
(4.40847e-06 0 0)
(4.41668e-06 0 0)
(4.4249e-06 0 0)
(4.43314e-06 0 0)
(4.44139e-06 0 0)
(4.44966e-06 0 0)
(4.45794e-06 0 0)
(4.46624e-06 0 0)
(4.47455e-06 0 0)
(4.48289e-06 0 0)
(4.49123e-06 0 0)
(4.4996e-06 0 0)
(4.50798e-06 0 0)
(4.51638e-06 0 0)
(4.5248e-06 0 0)
(4.53323e-06 0 0)
(4.54169e-06 0 0)
(4.55016e-06 0 0)
(4.55865e-06 0 0)
(4.56716e-06 0 0)
(4.57569e-06 0 0)
(4.58423e-06 0 0)
(4.5928e-06 0 0)
(4.60138e-06 0 0)
(4.60999e-06 0 0)
(4.61861e-06 0 0)
(4.62725e-06 0 0)
(4.63591e-06 0 0)
(4.64459e-06 0 0)
(4.65329e-06 0 0)
(4.66201e-06 0 0)
(4.67075e-06 0 0)
(4.6795e-06 0 0)
(4.68828e-06 0 0)
(4.69708e-06 0 0)
(4.7059e-06 0 0)
(4.71473e-06 0 0)
(4.72359e-06 0 0)
(4.73247e-06 0 0)
(4.74137e-06 0 0)
(4.75028e-06 0 0)
(4.75922e-06 0 0)
(4.76818e-06 0 0)
(4.77716e-06 0 0)
(4.78616e-06 0 0)
(4.79518e-06 0 0)
(4.80422e-06 0 0)
(4.81329e-06 0 0)
(4.82237e-06 0 0)
(4.83148e-06 0 0)
(4.84061e-06 0 0)
(4.84976e-06 0 0)
(4.85893e-06 0 0)
(4.86812e-06 0 0)
(4.87734e-06 0 0)
(4.88658e-06 0 0)
(4.89584e-06 0 0)
(4.90512e-06 0 0)
(4.91443e-06 0 0)
(4.92376e-06 0 0)
(4.93312e-06 0 0)
(4.94249e-06 0 0)
(4.9519e-06 0 0)
(4.96132e-06 0 0)
(4.97077e-06 0 0)
(4.98025e-06 0 0)
(4.98974e-06 0 0)
(4.99927e-06 0 0)
(5.00882e-06 0 0)
(5.01839e-06 0 0)
(5.02799e-06 0 0)
(5.03762e-06 0 0)
(5.04727e-06 0 0)
(5.05695e-06 0 0)
(5.06665e-06 0 0)
(5.07638e-06 0 0)
(5.08614e-06 0 0)
(5.09592e-06 0 0)
(5.10573e-06 0 0)
(5.11556e-06 0 0)
(5.12543e-06 0 0)
(5.13532e-06 0 0)
(5.14523e-06 0 0)
(5.15518e-06 0 0)
(5.16515e-06 0 0)
(5.17514e-06 0 0)
(5.18517e-06 0 0)
(5.19521e-06 0 0)
(5.20529e-06 0 0)
(5.21539e-06 0 0)
(5.22551e-06 0 0)
(5.23567e-06 0 0)
(5.24584e-06 0 0)
(5.25604e-06 0 0)
(5.26626e-06 0 0)
(5.2765e-06 0 0)
(5.28676e-06 0 0)
(5.29705e-06 0 0)
(5.30735e-06 0 0)
(5.31767e-06 0 0)
(5.32801e-06 0 0)
(5.33836e-06 0 0)
(5.34872e-06 0 0)
(5.3591e-06 0 0)
(5.36948e-06 0 0)
(5.37988e-06 0 0)
(5.39028e-06 0 0)
(5.40068e-06 0 0)
(5.41107e-06 0 0)
(5.42147e-06 0 0)
(5.43185e-06 0 0)
(5.44223e-06 0 0)
(5.45259e-06 0 0)
(5.46292e-06 0 0)
(5.47323e-06 0 0)
(5.4835e-06 0 0)
(5.49372e-06 0 0)
(5.5039e-06 0 0)
(5.51402e-06 0 0)
(5.52407e-06 0 0)
(5.53403e-06 0 0)
(5.54389e-06 0 0)
(5.55365e-06 0 0)
(5.56329e-06 0 0)
(5.57278e-06 0 0)
(5.58213e-06 0 0)
(5.59129e-06 0 0)
(5.60026e-06 0 0)
(5.60901e-06 0 0)
(5.61753e-06 0 0)
(5.62579e-06 0 0)
(5.63379e-06 0 0)
(5.64148e-06 0 0)
(5.64886e-06 0 0)
(5.65591e-06 0 0)
(5.66261e-06 0 0)
(5.66896e-06 0 0)
(5.67494e-06 0 0)
(5.68054e-06 0 0)
(5.68576e-06 0 0)
(5.6906e-06 0 0)
(5.69506e-06 0 0)
(5.69914e-06 0 0)
(5.70288e-06 0 0)
(5.70627e-06 0 0)
(5.70932e-06 0 0)
(5.71205e-06 0 0)
(5.7145e-06 0 0)
(5.71667e-06 0 0)
(5.71859e-06 0 0)
(5.72028e-06 0 0)
(5.72177e-06 0 0)
(6.13126e-06 0 0)
)
;

boundaryField
{
    inlet
    {
        type            fixedValue;
        value           uniform (0 0 0);
    }
    outlet
    {
        type            zeroGradient;
    }
    emptyWalls
    {
        type            empty;
    }
}


// ************************************************************************* //
