/*--------------------------------*- C++ -*----------------------------------*\
  =========                 |
  \\      /  F ield         | OpenFOAM: The Open Source CFD Toolbox
   \\    /   O peration     | Website:  https://openfoam.org
    \\  /    A nd           | Version:  9
     \\/     M anipulation  |
\*---------------------------------------------------------------------------*/
FoamFile
{
    format      ascii;
    class       volScalarField;
    location    "4500";
    object      Sa;
}
// * * * * * * * * * * * * * * * * * * * * * * * * * * * * * * * * * * * * * //

dimensions      [0 0 0 0 0 0 0];

internalField   nonuniform List<scalar> 
1000
(
0.54687
0.539937
0.533667
0.526225
0.508932
0.440818
0.178249
0.0732405
0.0506084
0.0410427
0.0357083
0.0323898
0.0301707
0.0284667
0.0268453
0.0253368
0.0245073
0.0242915
0.0241245
0.0239428
0.0237512
0.023552
0.023347
0.0231383
0.0229287
0.0227214
0.0225194
0.0223255
0.0221419
0.0219702
0.0218108
0.0216634
0.0215268
0.0213996
0.02128
0.0211662
0.0210567
0.0209501
0.0208455
0.0207422
0.0206398
0.0205382
0.0204373
0.0203372
0.0202381
0.0201401
0.0200434
0.0199481
0.0198542
0.0197619
0.0196711
0.0195819
0.0194941
0.0194078
0.019323
0.0192396
0.0191575
0.0190768
0.0189973
0.018919
0.0188419
0.0187658
0.0186909
0.018617
0.0185441
0.0184722
0.0184012
0.0183312
0.0182622
0.018194
0.0181268
0.0180604
0.0179948
0.0179301
0.0178662
0.0178031
0.0177408
0.0176793
0.0176186
0.0175586
0.0174995
0.0174411
0.0173835
0.0173267
0.0172706
0.0172152
0.0171605
0.0171066
0.0170533
0.0170006
0.0169486
0.0168971
0.0168463
0.016796
0.0167462
0.016697
0.0166483
0.0166001
0.0165524
0.0165051
0.0164583
0.0164119
0.0163659
0.0163202
0.016275
0.0162301
0.0161856
0.0161414
0.0160976
0.016054
0.0160108
0.0159679
0.0159253
0.015883
0.015841
0.0157993
0.015758
0.0157169
0.0156762
0.0156358
0.0155957
0.015556
0.0155166
0.0154775
0.0154388
0.0154003
0.0153623
0.0153245
0.015287
0.0152499
0.015213
0.0151764
0.0151401
0.0151041
0.0150683
0.0150328
0.0149975
0.0149625
0.0149277
0.0148931
0.0148587
0.0148244
0.0147904
0.0147565
0.0147228
0.0146891
0.0146556
0.0146222
0.0145889
0.0145557
0.0145227
0.0144898
0.0144572
0.0144247
0.0143928
0.0143608
0.0143297
0.0142987
0.0142685
0.0142387
0.0142095
0.0141811
0.0141532
0.0141263
0.0141
0.0140748
0.0140505
0.0140273
0.0140053
0.0139845
0.0139648
0.0139458
0.0139265
0.0139053
0.013879
0.0138421
0.0137863
0.0136997
0.0135701
0.0133936
0.0131873
0.0129917
0.0128449
0.0127551
0.0127064
0.0126797
0.0126631
0.0126508
0.0126402
0.0126302
0.0126202
0.0126103
0.0126004
0.0125907
0.0125812
0.0125721
0.0125635
0.0125555
0.0125483
0.0125418
0.0125362
0.0125313
0.0125272
0.012524
0.0125215
0.0125198
0.0125188
0.0125183
0.0125182
0.0125182
0.0125184
0.0125193
0.0125204
0.0125217
0.012523
0.0125243
0.0125255
0.0125267
0.0125278
0.0125288
0.0125297
0.0125304
0.012531
0.0125314
0.0125317
0.0125318
0.0125319
0.0125319
0.0125318
0.0125315
0.0125311
0.0125306
0.0125301
0.0125295
0.0125288
0.0125282
0.0125275
0.0125267
0.012526
0.0125252
0.0125244
0.0125237
0.0125229
0.0125221
0.0125213
0.0125206
0.0125198
0.012519
0.0125183
0.0125175
0.0125168
0.012516
0.0125153
0.0125145
0.0125138
0.0125131
0.0125124
0.0125117
0.012511
0.0125103
0.0125096
0.0125088
0.0125081
0.0125074
0.0125067
0.012506
0.0125053
0.0125046
0.0125039
0.0125032
0.0125025
0.0125018
0.0125011
0.0125003
0.0124996
0.0124989
0.0124982
0.0124975
0.0124969
0.0124962
0.0124955
0.0124949
0.0124943
0.0124937
0.0124931
0.0124925
0.012492
0.0124915
0.012491
0.0124906
0.0124902
0.0124898
0.0124894
0.0124891
0.0124889
0.0124886
0.0124884
0.0124883
0.0124882
0.0124881
0.0124881
0.0124881
0.0124881
0.0124881
0.0124881
0.0124883
0.0124884
0.0124886
0.0124888
0.0124891
0.0124893
0.0124896
0.0124899
0.0124902
0.0124905
0.0124908
0.0124911
0.0124914
0.0124918
0.0124921
0.0124924
0.0124927
0.012493
0.0124933
0.0124935
0.0124938
0.0124941
0.0124943
0.0124945
0.0124947
0.012495
0.0124952
0.0124955
0.0124957
0.012496
0.0124963
0.0124966
0.012497
0.0124974
0.0124979
0.0124984
0.012499
0.0124997
0.0125004
0.0125013
0.0125021
0.0125031
0.0125042
0.0125054
0.0125066
0.012508
0.0125094
0.0125109
0.0125125
0.0125142
0.012516
0.0125179
0.0125199
0.0125221
0.0125243
0.0125267
0.0125292
0.0125319
0.0125347
0.0125378
0.0125409
0.0125443
0.0125479
0.0125517
0.0125557
0.0125599
0.0125643
0.012569
0.0125738
0.0125788
0.0125839
0.0125892
0.0125946
0.0126
0.0126055
0.0126109
0.0126163
0.0126215
0.0126266
0.0126314
0.0126359
0.01264
0.0126437
0.0126469
0.0126495
0.0126515
0.0126527
0.0126533
0.0126534
0.0126533
0.0126528
0.0126509
0.0126476
0.0126435
0.0126387
0.0126332
0.0126271
0.0126205
0.0126135
0.0126061
0.0125986
0.0125909
0.0125833
0.0125758
0.0125685
0.0125615
0.0125549
0.0125488
0.0125431
0.012538
0.0125334
0.0125294
0.012526
0.012523
0.0125206
0.0125187
0.0125173
0.0125162
0.0125155
0.0125151
0.012515
0.012515
0.0125151
0.0125154
0.0125161
0.0125169
0.0125177
0.0125185
0.0125193
0.01252
0.0125207
0.0125213
0.0125219
0.0125224
0.0125228
0.0125231
0.0125233
0.0125234
0.0125235
0.0125235
0.0125235
0.0125235
0.0125233
0.0125231
0.0125228
0.0125225
0.0125222
0.0125218
0.0125215
0.0125211
0.0125207
0.0125203
0.01252
0.0125196
0.0125192
0.0125189
0.0125186
0.0125183
0.012518
0.0125177
0.0125174
0.0125171
0.0125169
0.0125167
0.0125165
0.0125163
0.0125161
0.0125159
0.0125157
0.0125156
0.0125154
0.0125152
0.0125151
0.0125149
0.0125147
0.0125146
0.0125144
0.0125142
0.012514
0.0125137
0.0125135
0.0125132
0.012513
0.0125127
0.0125124
0.012512
0.0125116
0.0125113
0.0125108
0.0125104
0.0125099
0.0125094
0.0125089
0.0125084
0.0125078
0.0125072
0.0125066
0.012506
0.0125054
0.0125047
0.012504
0.0125034
0.0125027
0.012502
0.0125013
0.0125006
0.0125
0.0124993
0.0124987
0.0124981
0.0124975
0.0124969
0.0124963
0.0124958
0.0124953
0.0124949
0.0124945
0.0124941
0.0124938
0.0124935
0.0124933
0.0124932
0.012493
0.012493
0.012493
0.012493
0.012493
0.0124931
0.0124933
0.0124935
0.0124938
0.0124941
0.0124945
0.012495
0.0124954
0.0124959
0.0124965
0.012497
0.0124977
0.0124983
0.0124989
0.0124996
0.0125003
0.012501
0.0125017
0.0125024
0.0125031
0.0125038
0.0125046
0.0125053
0.0125061
0.0125068
0.0125076
0.0125083
0.0125091
0.0125099
0.0125107
0.0125115
0.0125124
0.0125133
0.0125142
0.0125152
0.0125163
0.0125175
0.0125187
0.0125201
0.0125215
0.0125231
0.0125249
0.0125268
0.0125288
0.0125311
0.0125335
0.0125361
0.012539
0.012542
0.0125453
0.0125488
0.0125525
0.0125564
0.0125605
0.0125648
0.0125693
0.012574
0.0125789
0.0125838
0.0125889
0.012594
0.0125992
0.0126043
0.0126095
0.0126145
0.0126195
0.0126242
0.0126288
0.012633
0.012637
0.0126406
0.0126437
0.0126464
0.0126486
0.0126501
0.0126511
0.0126515
0.0126515
0.0126514
0.0126509
0.0126488
0.0126458
0.0126422
0.012638
0.0126331
0.0126277
0.0126218
0.0126156
0.012609
0.0126022
0.0125952
0.0125882
0.0125812
0.0125743
0.0125676
0.0125612
0.012555
0.0125492
0.0125438
0.0125388
0.0125342
0.0125301
0.0125264
0.0125232
0.0125204
0.0125181
0.0125161
0.0125145
0.0125132
0.0125123
0.0125116
0.0125111
0.0125109
0.0125108
0.0125109
0.0125109
0.0125111
0.0125116
0.0125121
0.0125126
0.0125131
0.0125136
0.0125141
0.0125145
0.0125149
0.0125152
0.0125155
0.0125157
0.0125158
0.0125159
0.0125159
0.0125159
0.0125159
0.0125158
0.0125155
0.0125152
0.0125149
0.0125145
0.012514
0.0125135
0.012513
0.0125125
0.0125119
0.0125113
0.0125106
0.01251
0.0125094
0.0125087
0.012508
0.0125074
0.0125067
0.012506
0.0125054
0.0125047
0.0125041
0.0125035
0.0125029
0.0125023
0.0125017
0.0125012
0.0125007
0.0125002
0.0124997
0.0124993
0.0124989
0.0124985
0.0124981
0.0124978
0.0124976
0.0124973
0.0124971
0.012497
0.0124968
0.0124968
0.0124967
0.0124967
0.0124967
0.0124967
0.0124968
0.012497
0.0124971
0.0124973
0.0124976
0.0124979
0.0124982
0.0124985
0.0124988
0.0124992
0.0124996
0.0125
0.0125004
0.0125008
0.0125012
0.0125016
0.012502
0.0125024
0.0125027
0.0125031
0.0125034
0.0125037
0.012504
0.0125043
0.0125046
0.0125046
0.0125038
0.0125016
0.0124562
0.0123208
0.0111569
0.00355981
0.000138387
1.02561e-07
1.76486e-14
6.31423e-29
1.39252e-59
7.16e-125
1.33666e-263
0
0
0
0
0
0
0
0
0
0
0
0
0
0
0
0
0
0
0
0
0
0
0
0
0
0
0
0
0
0
0
0
0
0
0
0
0
0
0
0
0
0
0
0
0
0
0
0
0
0
0
0
0
0
0
0
0
0
0
0
0
0
0
0
0
0
0
0
0
0
0
0
0
0
0
0
0
0
0
0
0
0
0
0
0
0
0
0
0
0
0
0
0
0
0
0
0
0
0
0
0
0
0
0
0
0
0
0
0
0
0
0
0
0
0
0
0
0
0
0
0
0
0
0
0
0
0
0
0
0
0
0
0
0
0
0
0
0
0
0
0
0
0
0
0
0
0
0
0
0
0
0
0
0
0
0
0
0
0
0
0
0
0
0
0
0
0
0
0
0
0
0
0
0
0
0
0
0
0
0
0
0
0
0
0
0
0
0
0
0
0
0
0
0
0
0
0
0
0
0
0
0
0
0
0
0
0
0
0
0
0
0
0
0
0
0
0
0
0
0
0
0
0
0
0
0
0
0
0
0
0
0
0
0
0
0
0
0
0
0
0
0
0
0
0
0
0
0
0
0
0
)
;

boundaryField
{
    inlet
    {
        type            fixedValue;
        value           uniform 0.55;
    }
    outlet
    {
        type            zeroGradient;
    }
    emptyWalls
    {
        type            empty;
    }
}


// ************************************************************************* //
