/*--------------------------------*- C++ -*----------------------------------*\
  =========                 |
  \\      /  F ield         | OpenFOAM: The Open Source CFD Toolbox
   \\    /   O peration     | Website:  https://openfoam.org
    \\  /    A nd           | Version:  9
     \\/     M anipulation  |
\*---------------------------------------------------------------------------*/
FoamFile
{
    format      ascii;
    class       volScalarField;
    location    "3600";
    object      Sa;
}
// * * * * * * * * * * * * * * * * * * * * * * * * * * * * * * * * * * * * * //

dimensions      [0 0 0 0 0 0 0];

internalField   nonuniform List<scalar> 
1000
(
0.545884
0.536857
0.526257
0.501489
0.389725
0.11722
0.059198
0.0428995
0.0355814
0.0314935
0.0288752
0.0267614
0.0248023
0.0240865
0.0238682
0.0236398
0.0234107
0.0231859
0.0229676
0.0227565
0.0225528
0.0223561
0.0221661
0.0219826
0.0218054
0.0216341
0.0214685
0.0213083
0.0211531
0.0210027
0.0208566
0.0207147
0.0205767
0.0204424
0.0203117
0.0201845
0.0200605
0.0199396
0.0198215
0.0197063
0.0195936
0.0194834
0.0193756
0.01927
0.0191667
0.0190655
0.0189664
0.0188693
0.0187741
0.0186808
0.0185893
0.0184995
0.0184115
0.0183251
0.0182402
0.018157
0.0180752
0.0179949
0.0179161
0.0178386
0.0177624
0.0176874
0.0176138
0.0175412
0.0174699
0.0173996
0.0173304
0.0172622
0.017195
0.0171288
0.0170634
0.0169989
0.0169353
0.0168724
0.0168104
0.0167491
0.0166884
0.0166285
0.0165692
0.0165105
0.0164524
0.0163948
0.0163377
0.0162811
0.016225
0.0161694
0.0161143
0.0160597
0.0160056
0.015952
0.015899
0.0158466
0.0157948
0.0157436
0.015693
0.0156431
0.0155938
0.0155452
0.0154973
0.01545
0.0154032
0.0153571
0.0153115
0.0152663
0.0152215
0.0151771
0.015133
0.0150891
0.0150455
0.0150021
0.014959
0.0149162
0.0148737
0.0148318
0.0147904
0.0147496
0.0147094
0.0146701
0.0146315
0.0145937
0.0145569
0.0145206
0.0144854
0.0144504
0.0144166
0.0143826
0.0143497
0.0143164
0.0142842
0.0142513
0.0142192
0.0141867
0.0141546
0.0141226
0.0140902
0.0140579
0.0140239
0.013987
0.0139438
0.0138883
0.0138117
0.0137018
0.0135469
0.0133468
0.0131246
0.012924
0.0127788
0.0126903
0.0126395
0.0126085
0.0125873
0.0125708
0.012557
0.0125449
0.0125344
0.0125253
0.0125175
0.0125108
0.0125055
0.0125014
0.0124987
0.0124971
0.0124966
0.0124965
0.0124967
0.0124975
0.0124996
0.0125019
0.0125044
0.012507
0.0125096
0.0125122
0.0125146
0.012517
0.0125191
0.012521
0.0125227
0.0125241
0.0125253
0.0125262
0.0125269
0.0125273
0.0125275
0.0125276
0.0125276
0.0125276
0.0125273
0.0125269
0.0125264
0.0125258
0.0125253
0.0125247
0.0125241
0.0125235
0.0125229
0.0125223
0.0125218
0.0125212
0.0125207
0.0125202
0.0125197
0.0125193
0.0125189
0.0125185
0.0125181
0.0125178
0.0125174
0.0125171
0.0125169
0.0125166
0.0125164
0.0125162
0.012516
0.0125159
0.0125157
0.0125156
0.0125155
0.0125154
0.0125153
0.0125152
0.0125151
0.012515
0.012515
0.0125149
0.0125148
0.0125147
0.0125146
0.0125145
0.0125143
0.0125142
0.012514
0.0125138
0.0125135
0.0125133
0.012513
0.0125126
0.0125123
0.0125119
0.0125114
0.0125109
0.0125104
0.0125099
0.0125093
0.0125087
0.0125081
0.0125074
0.0125067
0.012506
0.0125052
0.0125045
0.0125037
0.0125029
0.0125021
0.0125013
0.0125005
0.0124997
0.0124989
0.0124981
0.0124973
0.0124966
0.0124959
0.0124952
0.0124945
0.0124939
0.0124934
0.0124928
0.0124924
0.012492
0.0124916
0.0124913
0.0124911
0.0124909
0.0124908
0.0124908
0.0124908
0.0124908
0.0124909
0.0124911
0.0124914
0.0124918
0.0124922
0.0124927
0.0124933
0.0124939
0.0124945
0.0124952
0.0124959
0.0124967
0.0124974
0.0124982
0.012499
0.0124999
0.0125007
0.0125015
0.0125023
0.0125032
0.012504
0.0125048
0.0125056
0.0125064
0.0125071
0.0125079
0.0125086
0.0125094
0.0125101
0.0125108
0.0125114
0.0125121
0.0125127
0.0125134
0.0125141
0.0125148
0.0125155
0.0125162
0.012517
0.012518
0.0125189
0.0125201
0.0125214
0.0125228
0.0125245
0.0125264
0.0125286
0.0125311
0.0125338
0.012537
0.0125404
0.0125443
0.0125485
0.0125532
0.0125581
0.0125636
0.0125693
0.0125754
0.0125818
0.0125885
0.0125955
0.0126026
0.0126099
0.0126173
0.0126247
0.012632
0.0126392
0.0126461
0.0126527
0.0126589
0.0126646
0.0126696
0.0126739
0.0126774
0.0126799
0.0126815
0.012682
0.012682
0.0126817
0.0126807
0.0126768
0.0126717
0.0126653
0.0126578
0.0126494
0.0126402
0.0126303
0.0126199
0.0126092
0.0125984
0.0125875
0.012577
0.0125667
0.012557
0.0125479
0.0125396
0.012532
0.0125252
0.0125193
0.0125143
0.0125101
0.0125067
0.012504
0.0125021
0.0125008
0.0125001
0.0124998
0.0124998
0.0124999
0.0125004
0.0125016
0.0125029
0.0125044
0.012506
0.0125075
0.012509
0.0125105
0.0125119
0.0125132
0.0125144
0.0125154
0.0125163
0.0125171
0.0125178
0.0125183
0.0125187
0.0125189
0.0125191
0.0125191
0.0125191
0.0125191
0.012519
0.0125186
0.0125182
0.0125177
0.0125172
0.0125166
0.012516
0.0125153
0.0125147
0.012514
0.0125132
0.0125125
0.0125117
0.012511
0.0125102
0.0125094
0.0125087
0.0125079
0.0125072
0.0125064
0.0125057
0.0125049
0.0125042
0.0125035
0.0125028
0.0125022
0.0125015
0.0125009
0.0125003
0.0124997
0.0124991
0.0124986
0.0124981
0.0124977
0.0124972
0.0124968
0.0124965
0.0124962
0.0124959
0.0124956
0.0124954
0.0124953
0.0124952
0.0124952
0.0124951
0.0124951
0.0124952
0.0124953
0.0124954
0.0124957
0.012496
0.0124963
0.0124967
0.0124971
0.0124975
0.012498
0.0124985
0.012499
0.0124995
0.0125001
0.0125006
0.0125012
0.0125018
0.0125023
0.0125028
0.0125034
0.0125039
0.0125043
0.0125048
0.0125052
0.0125055
0.0125059
0.0125061
0.0125064
0.0125065
0.0125067
0.0125067
0.0125068
0.0125068
0.0125068
0.0125067
0.0125065
0.0125063
0.0125061
0.0125058
0.0125054
0.0125051
0.0125047
0.0125043
0.0125039
0.0125035
0.0125031
0.0125027
0.0125023
0.0125019
0.0125016
0.0125013
0.012501
0.0125007
0.0125006
0.0125004
0.0125003
0.0125003
0.0125003
0.0125003
0.0125004
0.0125006
0.0125009
0.0125013
0.0125018
0.0125023
0.012503
0.0125037
0.0125046
0.0125056
0.0125067
0.012508
0.0125094
0.0125109
0.0125126
0.0125145
0.0125166
0.0125188
0.0125213
0.012524
0.0125269
0.01253
0.0125333
0.0125369
0.0125407
0.0125447
0.012549
0.0125535
0.0125582
0.012563
0.0125681
0.0125733
0.0125786
0.012584
0.0125895
0.0125949
0.0126004
0.0126057
0.0126109
0.0126159
0.0126206
0.012625
0.012629
0.0126324
0.0126353
0.0126374
0.0126388
0.0126394
0.0126395
0.0126393
0.0126388
0.0126364
0.0126321
0.0126269
0.0126205
0.0126131
0.0126046
0.0125953
0.0125851
0.0125743
0.0125629
0.0125512
0.0125392
0.0125272
0.0125153
0.0125038
0.0124926
0.0124821
0.0124721
0.0124631
0.0124546
0.0124474
0.0124406
0.0124353
0.0124303
0.0124268
0.0124232
0.0124216
0.0124199
0.0124188
0.0124081
0.0123749
0.0118413
0.00969862
0.00174801
3.02184e-05
3.2537e-09
1.03183e-17
5.4118e-36
1.22708e-74
1.04583e-157
0
0
0
0
0
0
0
0
0
0
0
0
0
0
0
0
0
0
0
0
0
0
0
0
0
0
0
0
0
0
0
0
0
0
0
0
0
0
0
0
0
0
0
0
0
0
0
0
0
0
0
0
0
0
0
0
0
0
0
0
0
0
0
0
0
0
0
0
0
0
0
0
0
0
0
0
0
0
0
0
0
0
0
0
0
0
0
0
0
0
0
0
0
0
0
0
0
0
0
0
0
0
0
0
0
0
0
0
0
0
0
0
0
0
0
0
0
0
0
0
0
0
0
0
0
0
0
0
0
0
0
0
0
0
0
0
0
0
0
0
0
0
0
0
0
0
0
0
0
0
0
0
0
0
0
0
0
0
0
0
0
0
0
0
0
0
0
0
0
0
0
0
0
0
0
0
0
0
0
0
0
0
0
0
0
0
0
0
0
0
0
0
0
0
0
0
0
0
0
0
0
0
0
0
0
0
0
0
0
0
0
0
0
0
0
0
0
0
0
0
0
0
0
0
0
0
0
0
0
0
0
0
0
0
0
0
0
0
0
0
0
0
0
0
0
0
0
0
0
0
0
0
0
0
0
0
0
0
0
0
0
0
0
0
0
0
0
0
0
0
0
0
0
0
0
0
0
0
0
0
0
0
0
0
0
0
0
0
0
0
0
0
0
0
0
0
0
0
0
0
0
0
0
0
0
0
0
0
0
0
0
0
0
0
0
0
0
0
0
0
0
0
0
0
0
0
0
0
0
0
0
0
0
0
0
0
0
0
0
0
0
0
0
0
0
0
0
0
0
0
0
0
0
0
0
0
0
0
0
0
0
0
0
0
0
0
0
0
0
0
0
0
0
0
0
0
0
0
0
0
0
0
0
0
0
0
0
0
0
0
0
0
0
0
0
0
0
)
;

boundaryField
{
    inlet
    {
        type            fixedValue;
        value           uniform 0.55;
    }
    outlet
    {
        type            zeroGradient;
    }
    emptyWalls
    {
        type            empty;
    }
}


// ************************************************************************* //
