/*--------------------------------*- C++ -*----------------------------------*\
  =========                 |
  \\      /  F ield         | OpenFOAM: The Open Source CFD Toolbox
   \\    /   O peration     | Website:  https://openfoam.org
    \\  /    A nd           | Version:  9
     \\/     M anipulation  |
\*---------------------------------------------------------------------------*/
FoamFile
{
    format      ascii;
    class       volVectorField;
    location    "1150";
    object      Uc;
}
// * * * * * * * * * * * * * * * * * * * * * * * * * * * * * * * * * * * * * //

dimensions      [0 0 0 0 0 0 0];

internalField   nonuniform List<vector> 
1000
(
(2.07819e-08 0 0)
(1.23909e-07 0 0)
(2.26101e-07 0 0)
(2.63621e-07 0 0)
(3.17832e-07 0 0)
(3.95691e-07 0 0)
(4.81341e-07 0 0)
(5.72139e-07 0 0)
(6.66639e-07 0 0)
(7.63939e-07 0 0)
(8.63522e-07 0 0)
(9.6509e-07 0 0)
(1.06846e-06 0 0)
(1.17353e-06 0 0)
(1.28025e-06 0 0)
(1.38862e-06 0 0)
(1.49864e-06 0 0)
(1.61031e-06 0 0)
(1.72367e-06 0 0)
(1.83877e-06 0 0)
(1.95567e-06 0 0)
(2.07444e-06 0 0)
(2.19516e-06 0 0)
(2.31794e-06 0 0)
(2.44288e-06 0 0)
(2.57012e-06 0 0)
(2.6998e-06 0 0)
(2.83207e-06 0 0)
(2.96708e-06 0 0)
(3.10506e-06 0 0)
(3.24621e-06 0 0)
(3.3908e-06 0 0)
(3.53915e-06 0 0)
(3.69157e-06 0 0)
(3.84845e-06 0 0)
(4.01014e-06 0 0)
(4.17713e-06 0 0)
(4.35e-06 0 0)
(4.53005e-06 0 0)
(4.72008e-06 0 0)
(4.92662e-06 0 0)
(5.1635e-06 0 0)
(5.45585e-06 0 0)
(5.84151e-06 0 0)
(6.35855e-06 0 0)
(7.01187e-06 0 0)
(7.7363e-06 0 0)
(8.40883e-06 0 0)
(8.92541e-06 0 0)
(9.25932e-06 0 0)
(9.44774e-06 0 0)
(9.54411e-06 0 0)
(9.5893e-06 0 0)
(9.60833e-06 0 0)
(9.61447e-06 0 0)
(9.6144e-06 0 0)
(9.61143e-06 0 0)
(9.60714e-06 0 0)
(9.6023e-06 0 0)
(9.59726e-06 0 0)
(9.59224e-06 0 0)
(9.58737e-06 0 0)
(9.58284e-06 0 0)
(9.57893e-06 0 0)
(9.57598e-06 0 0)
(9.57423e-06 0 0)
(9.57354e-06 0 0)
(9.57343e-06 0 0)
(9.57392e-06 0 0)
(9.57665e-06 0 0)
(9.58275e-06 0 0)
(9.59172e-06 0 0)
(9.60323e-06 0 0)
(9.61721e-06 0 0)
(9.63338e-06 0 0)
(9.65124e-06 0 0)
(9.67008e-06 0 0)
(9.68906e-06 0 0)
(9.70735e-06 0 0)
(9.72417e-06 0 0)
(9.73898e-06 0 0)
(9.7514e-06 0 0)
(9.76129e-06 0 0)
(9.76869e-06 0 0)
(9.77377e-06 0 0)
(9.77678e-06 0 0)
(9.77814e-06 0 0)
(9.77851e-06 0 0)
(9.7784e-06 0 0)
(9.77693e-06 0 0)
(9.77367e-06 0 0)
(9.76957e-06 0 0)
(9.76509e-06 0 0)
(9.76039e-06 0 0)
(9.75557e-06 0 0)
(9.75072e-06 0 0)
(9.74593e-06 0 0)
(9.74128e-06 0 0)
(9.73682e-06 0 0)
(9.73261e-06 0 0)
(9.72868e-06 0 0)
(9.72507e-06 0 0)
(9.7218e-06 0 0)
(9.71889e-06 0 0)
(9.71634e-06 0 0)
(9.71414e-06 0 0)
(9.71227e-06 0 0)
(9.71071e-06 0 0)
(9.70943e-06 0 0)
(9.70839e-06 0 0)
(9.70756e-06 0 0)
(9.70691e-06 0 0)
(9.70641e-06 0 0)
(9.70603e-06 0 0)
(9.70574e-06 0 0)
(9.7055e-06 0 0)
(9.70531e-06 0 0)
(9.70513e-06 0 0)
(9.70497e-06 0 0)
(9.70481e-06 0 0)
(9.70463e-06 0 0)
(9.70444e-06 0 0)
(9.70423e-06 0 0)
(9.704e-06 0 0)
(9.70373e-06 0 0)
(9.70345e-06 0 0)
(9.70314e-06 0 0)
(9.70281e-06 0 0)
(9.70247e-06 0 0)
(9.70212e-06 0 0)
(9.70176e-06 0 0)
(9.7014e-06 0 0)
(9.70104e-06 0 0)
(9.70069e-06 0 0)
(9.70036e-06 0 0)
(9.70005e-06 0 0)
(9.69977e-06 0 0)
(9.69954e-06 0 0)
(9.69937e-06 0 0)
(9.69926e-06 0 0)
(9.69921e-06 0 0)
(9.6992e-06 0 0)
(9.69921e-06 0 0)
(9.69927e-06 0 0)
(9.6995e-06 0 0)
(9.6999e-06 0 0)
(9.70042e-06 0 0)
(9.70107e-06 0 0)
(9.70185e-06 0 0)
(9.70279e-06 0 0)
(9.70388e-06 0 0)
(9.70512e-06 0 0)
(9.70652e-06 0 0)
(9.70808e-06 0 0)
(9.70981e-06 0 0)
(9.71169e-06 0 0)
(9.71372e-06 0 0)
(9.7159e-06 0 0)
(9.71821e-06 0 0)
(9.72065e-06 0 0)
(9.7232e-06 0 0)
(9.72586e-06 0 0)
(9.72861e-06 0 0)
(9.73143e-06 0 0)
(9.73432e-06 0 0)
(9.73725e-06 0 0)
(9.74022e-06 0 0)
(9.74322e-06 0 0)
(9.74623e-06 0 0)
(9.74924e-06 0 0)
(9.75225e-06 0 0)
(9.75524e-06 0 0)
(9.75821e-06 0 0)
(9.76115e-06 0 0)
(9.76406e-06 0 0)
(9.76692e-06 0 0)
(9.76973e-06 0 0)
(9.77249e-06 0 0)
(9.77518e-06 0 0)
(9.77781e-06 0 0)
(9.78036e-06 0 0)
(9.78283e-06 0 0)
(9.78521e-06 0 0)
(9.78749e-06 0 0)
(9.78967e-06 0 0)
(9.79173e-06 0 0)
(9.79368e-06 0 0)
(9.7955e-06 0 0)
(9.79718e-06 0 0)
(9.7987e-06 0 0)
(9.80006e-06 0 0)
(9.80125e-06 0 0)
(9.80226e-06 0 0)
(9.8031e-06 0 0)
(9.80374e-06 0 0)
(9.80418e-06 0 0)
(9.80443e-06 0 0)
(9.80461e-06 0 0)
(9.80522e-06 0 0)
(9.80766e-06 0 0)
(9.84191e-06 0 0)
(9.98947e-06 0 0)
(1.05749e-05 0 0)
(1.10945e-05 0 0)
(1.11438e-05 0 0)
(1.11437e-05 0 0)
(1.11437e-05 0 0)
(1.11437e-05 0 0)
(1.11437e-05 0 0)
(1.11437e-05 0 0)
(1.11437e-05 0 0)
(1.11437e-05 0 0)
(1.11437e-05 0 0)
(1.11437e-05 0 0)
(1.11437e-05 0 0)
(1.11437e-05 0 0)
(1.11437e-05 0 0)
(1.11437e-05 0 0)
(1.11437e-05 0 0)
(1.11437e-05 0 0)
(1.11437e-05 0 0)
(1.11437e-05 0 0)
(1.11437e-05 0 0)
(1.11437e-05 0 0)
(1.11437e-05 0 0)
(1.11437e-05 0 0)
(1.11437e-05 0 0)
(1.11437e-05 0 0)
(1.11437e-05 0 0)
(1.11437e-05 0 0)
(1.11437e-05 0 0)
(1.11437e-05 0 0)
(1.11437e-05 0 0)
(1.11437e-05 0 0)
(1.11437e-05 0 0)
(1.11437e-05 0 0)
(1.11437e-05 0 0)
(1.11437e-05 0 0)
(1.11437e-05 0 0)
(1.11437e-05 0 0)
(1.11437e-05 0 0)
(1.11437e-05 0 0)
(1.11437e-05 0 0)
(1.11437e-05 0 0)
(1.11437e-05 0 0)
(1.11437e-05 0 0)
(1.11437e-05 0 0)
(1.11437e-05 0 0)
(1.11437e-05 0 0)
(1.11437e-05 0 0)
(1.11437e-05 0 0)
(1.11437e-05 0 0)
(1.11437e-05 0 0)
(1.11437e-05 0 0)
(1.11437e-05 0 0)
(1.11437e-05 0 0)
(1.11437e-05 0 0)
(1.11437e-05 0 0)
(1.11437e-05 0 0)
(1.11437e-05 0 0)
(1.11437e-05 0 0)
(1.11437e-05 0 0)
(1.11437e-05 0 0)
(1.11437e-05 0 0)
(1.11437e-05 0 0)
(1.11437e-05 0 0)
(1.11437e-05 0 0)
(1.11437e-05 0 0)
(1.11437e-05 0 0)
(1.11437e-05 0 0)
(1.11437e-05 0 0)
(1.11437e-05 0 0)
(1.11437e-05 0 0)
(1.11437e-05 0 0)
(1.11437e-05 0 0)
(1.11437e-05 0 0)
(1.11437e-05 0 0)
(1.11437e-05 0 0)
(1.11437e-05 0 0)
(1.11437e-05 0 0)
(1.11437e-05 0 0)
(1.11437e-05 0 0)
(1.11437e-05 0 0)
(1.11437e-05 0 0)
(1.11437e-05 0 0)
(1.11437e-05 0 0)
(1.11437e-05 0 0)
(1.11437e-05 0 0)
(1.11437e-05 0 0)
(1.11437e-05 0 0)
(1.11437e-05 0 0)
(1.11437e-05 0 0)
(1.11437e-05 0 0)
(1.11437e-05 0 0)
(1.11437e-05 0 0)
(1.11437e-05 0 0)
(1.11437e-05 0 0)
(1.11437e-05 0 0)
(1.11437e-05 0 0)
(1.11437e-05 0 0)
(1.11437e-05 0 0)
(1.11437e-05 0 0)
(1.11437e-05 0 0)
(1.11437e-05 0 0)
(1.11437e-05 0 0)
(1.11437e-05 0 0)
(1.11437e-05 0 0)
(1.11437e-05 0 0)
(1.11437e-05 0 0)
(1.11437e-05 0 0)
(1.11437e-05 0 0)
(1.11437e-05 0 0)
(1.11437e-05 0 0)
(1.11437e-05 0 0)
(1.11437e-05 0 0)
(1.11437e-05 0 0)
(1.11437e-05 0 0)
(1.11437e-05 0 0)
(1.11437e-05 0 0)
(1.11437e-05 0 0)
(1.11437e-05 0 0)
(1.11437e-05 0 0)
(1.11437e-05 0 0)
(1.11437e-05 0 0)
(1.11437e-05 0 0)
(1.11437e-05 0 0)
(1.11437e-05 0 0)
(1.11437e-05 0 0)
(1.11437e-05 0 0)
(1.11437e-05 0 0)
(1.11437e-05 0 0)
(1.11437e-05 0 0)
(1.11437e-05 0 0)
(1.11437e-05 0 0)
(1.11437e-05 0 0)
(1.11437e-05 0 0)
(1.11437e-05 0 0)
(1.11437e-05 0 0)
(1.11437e-05 0 0)
(1.11437e-05 0 0)
(1.11437e-05 0 0)
(1.11437e-05 0 0)
(1.11437e-05 0 0)
(1.11437e-05 0 0)
(1.11437e-05 0 0)
(1.11437e-05 0 0)
(1.11437e-05 0 0)
(1.11437e-05 0 0)
(1.11437e-05 0 0)
(1.11437e-05 0 0)
(1.11437e-05 0 0)
(1.11437e-05 0 0)
(1.11437e-05 0 0)
(1.11437e-05 0 0)
(1.11437e-05 0 0)
(1.11437e-05 0 0)
(1.11437e-05 0 0)
(1.11437e-05 0 0)
(1.11437e-05 0 0)
(1.11437e-05 0 0)
(1.11437e-05 0 0)
(1.11437e-05 0 0)
(1.11437e-05 0 0)
(1.11437e-05 0 0)
(1.11437e-05 0 0)
(1.11437e-05 0 0)
(1.11437e-05 0 0)
(1.11437e-05 0 0)
(1.11437e-05 0 0)
(1.11437e-05 0 0)
(1.11437e-05 0 0)
(1.11437e-05 0 0)
(1.11437e-05 0 0)
(1.11437e-05 0 0)
(1.11437e-05 0 0)
(1.11437e-05 0 0)
(1.11437e-05 0 0)
(1.11437e-05 0 0)
(1.11437e-05 0 0)
(1.11437e-05 0 0)
(1.11437e-05 0 0)
(1.11437e-05 0 0)
(1.11437e-05 0 0)
(1.11437e-05 0 0)
(1.11437e-05 0 0)
(1.11437e-05 0 0)
(1.11437e-05 0 0)
(1.11437e-05 0 0)
(1.11437e-05 0 0)
(1.11437e-05 0 0)
(1.11437e-05 0 0)
(1.11437e-05 0 0)
(1.11437e-05 0 0)
(1.11437e-05 0 0)
(1.11437e-05 0 0)
(1.11437e-05 0 0)
(1.11437e-05 0 0)
(1.11437e-05 0 0)
(1.11437e-05 0 0)
(1.11437e-05 0 0)
(1.11437e-05 0 0)
(1.11437e-05 0 0)
(1.11437e-05 0 0)
(1.11437e-05 0 0)
(1.11437e-05 0 0)
(1.11437e-05 0 0)
(1.11437e-05 0 0)
(1.11437e-05 0 0)
(1.11437e-05 0 0)
(1.11437e-05 0 0)
(1.11437e-05 0 0)
(1.11437e-05 0 0)
(1.11437e-05 0 0)
(1.11437e-05 0 0)
(1.11437e-05 0 0)
(1.11437e-05 0 0)
(1.11437e-05 0 0)
(1.11437e-05 0 0)
(1.11437e-05 0 0)
(1.11437e-05 0 0)
(1.11437e-05 0 0)
(1.11437e-05 0 0)
(1.11437e-05 0 0)
(1.11437e-05 0 0)
(1.11437e-05 0 0)
(1.11437e-05 0 0)
(1.11437e-05 0 0)
(1.11437e-05 0 0)
(1.11437e-05 0 0)
(1.11437e-05 0 0)
(1.11437e-05 0 0)
(1.11437e-05 0 0)
(1.11437e-05 0 0)
(1.11437e-05 0 0)
(1.11437e-05 0 0)
(1.11437e-05 0 0)
(1.11437e-05 0 0)
(1.11437e-05 0 0)
(1.11437e-05 0 0)
(1.11437e-05 0 0)
(1.11437e-05 0 0)
(1.11437e-05 0 0)
(1.11437e-05 0 0)
(1.11437e-05 0 0)
(1.11437e-05 0 0)
(1.11437e-05 0 0)
(1.11437e-05 0 0)
(1.11437e-05 0 0)
(1.11437e-05 0 0)
(1.11437e-05 0 0)
(1.11437e-05 0 0)
(1.11437e-05 0 0)
(1.11437e-05 0 0)
(1.11437e-05 0 0)
(1.11437e-05 0 0)
(1.11437e-05 0 0)
(1.11437e-05 0 0)
(1.11437e-05 0 0)
(1.11437e-05 0 0)
(1.11437e-05 0 0)
(1.11437e-05 0 0)
(1.11437e-05 0 0)
(1.11437e-05 0 0)
(1.11437e-05 0 0)
(1.11437e-05 0 0)
(1.11437e-05 0 0)
(1.11437e-05 0 0)
(1.11437e-05 0 0)
(1.11437e-05 0 0)
(1.11437e-05 0 0)
(1.11437e-05 0 0)
(1.11437e-05 0 0)
(1.11437e-05 0 0)
(1.11437e-05 0 0)
(1.11437e-05 0 0)
(1.11437e-05 0 0)
(1.11437e-05 0 0)
(1.11437e-05 0 0)
(1.11437e-05 0 0)
(1.11437e-05 0 0)
(1.11437e-05 0 0)
(1.11437e-05 0 0)
(1.11437e-05 0 0)
(1.11437e-05 0 0)
(1.11437e-05 0 0)
(1.11437e-05 0 0)
(1.11437e-05 0 0)
(1.11437e-05 0 0)
(1.11437e-05 0 0)
(1.11437e-05 0 0)
(1.11437e-05 0 0)
(1.11437e-05 0 0)
(1.11437e-05 0 0)
(1.11437e-05 0 0)
(1.11437e-05 0 0)
(1.11437e-05 0 0)
(1.11437e-05 0 0)
(1.11437e-05 0 0)
(1.11437e-05 0 0)
(1.11437e-05 0 0)
(1.11437e-05 0 0)
(1.11437e-05 0 0)
(1.11437e-05 0 0)
(1.11437e-05 0 0)
(1.11437e-05 0 0)
(1.11437e-05 0 0)
(1.11437e-05 0 0)
(1.11437e-05 0 0)
(1.11437e-05 0 0)
(1.11437e-05 0 0)
(1.11437e-05 0 0)
(1.11437e-05 0 0)
(1.11437e-05 0 0)
(1.11437e-05 0 0)
(1.11437e-05 0 0)
(1.11437e-05 0 0)
(1.11437e-05 0 0)
(1.11437e-05 0 0)
(1.11437e-05 0 0)
(1.11437e-05 0 0)
(1.11437e-05 0 0)
(1.11437e-05 0 0)
(1.11437e-05 0 0)
(1.11437e-05 0 0)
(1.11437e-05 0 0)
(1.11437e-05 0 0)
(1.11437e-05 0 0)
(1.11437e-05 0 0)
(1.11437e-05 0 0)
(1.11437e-05 0 0)
(1.11437e-05 0 0)
(1.11437e-05 0 0)
(1.11437e-05 0 0)
(1.11437e-05 0 0)
(1.11437e-05 0 0)
(1.11437e-05 0 0)
(1.11437e-05 0 0)
(1.11437e-05 0 0)
(1.11437e-05 0 0)
(1.11437e-05 0 0)
(1.11437e-05 0 0)
(1.11437e-05 0 0)
(1.11437e-05 0 0)
(1.11437e-05 0 0)
(1.11437e-05 0 0)
(1.11437e-05 0 0)
(1.11437e-05 0 0)
(1.11437e-05 0 0)
(1.11437e-05 0 0)
(1.11437e-05 0 0)
(1.11437e-05 0 0)
(1.11437e-05 0 0)
(1.11437e-05 0 0)
(1.11437e-05 0 0)
(1.11437e-05 0 0)
(1.11437e-05 0 0)
(1.11437e-05 0 0)
(1.11437e-05 0 0)
(1.11437e-05 0 0)
(1.11437e-05 0 0)
(1.11437e-05 0 0)
(1.11437e-05 0 0)
(1.11437e-05 0 0)
(1.11437e-05 0 0)
(1.11437e-05 0 0)
(1.11437e-05 0 0)
(1.11437e-05 0 0)
(1.11437e-05 0 0)
(1.11437e-05 0 0)
(1.11437e-05 0 0)
(1.11437e-05 0 0)
(1.11437e-05 0 0)
(1.11437e-05 0 0)
(1.11437e-05 0 0)
(1.11437e-05 0 0)
(1.11437e-05 0 0)
(1.11437e-05 0 0)
(1.11437e-05 0 0)
(1.11437e-05 0 0)
(1.11437e-05 0 0)
(1.11437e-05 0 0)
(1.11437e-05 0 0)
(1.11437e-05 0 0)
(1.11437e-05 0 0)
(1.11437e-05 0 0)
(1.11437e-05 0 0)
(1.11437e-05 0 0)
(1.11437e-05 0 0)
(1.11437e-05 0 0)
(1.11437e-05 0 0)
(1.11437e-05 0 0)
(1.11437e-05 0 0)
(1.11437e-05 0 0)
(1.11437e-05 0 0)
(1.11437e-05 0 0)
(1.11437e-05 0 0)
(1.11437e-05 0 0)
(1.11437e-05 0 0)
(1.11437e-05 0 0)
(1.11437e-05 0 0)
(1.11437e-05 0 0)
(1.11437e-05 0 0)
(1.11437e-05 0 0)
(1.11437e-05 0 0)
(1.11437e-05 0 0)
(1.11437e-05 0 0)
(1.11437e-05 0 0)
(1.11437e-05 0 0)
(1.11437e-05 0 0)
(1.11437e-05 0 0)
(1.11437e-05 0 0)
(1.11437e-05 0 0)
(1.11437e-05 0 0)
(1.11437e-05 0 0)
(1.11437e-05 0 0)
(1.11437e-05 0 0)
(1.11437e-05 0 0)
(1.11437e-05 0 0)
(1.11437e-05 0 0)
(1.11437e-05 0 0)
(1.11437e-05 0 0)
(1.11437e-05 0 0)
(1.11437e-05 0 0)
(1.11437e-05 0 0)
(1.11437e-05 0 0)
(1.11437e-05 0 0)
(1.11437e-05 0 0)
(1.11437e-05 0 0)
(1.11437e-05 0 0)
(1.11437e-05 0 0)
(1.11437e-05 0 0)
(1.11437e-05 0 0)
(1.11437e-05 0 0)
(1.11437e-05 0 0)
(1.11437e-05 0 0)
(1.11437e-05 0 0)
(1.11437e-05 0 0)
(1.11437e-05 0 0)
(1.11437e-05 0 0)
(1.11437e-05 0 0)
(1.11437e-05 0 0)
(1.11437e-05 0 0)
(1.11437e-05 0 0)
(1.11437e-05 0 0)
(1.11437e-05 0 0)
(1.11437e-05 0 0)
(1.11437e-05 0 0)
(1.11437e-05 0 0)
(1.11437e-05 0 0)
(1.11437e-05 0 0)
(1.11437e-05 0 0)
(1.11437e-05 0 0)
(1.11437e-05 0 0)
(1.11437e-05 0 0)
(1.11437e-05 0 0)
(1.11437e-05 0 0)
(1.11437e-05 0 0)
(1.11437e-05 0 0)
(1.11437e-05 0 0)
(1.11437e-05 0 0)
(1.11437e-05 0 0)
(1.11437e-05 0 0)
(1.11437e-05 0 0)
(1.11437e-05 0 0)
(1.11437e-05 0 0)
(1.11437e-05 0 0)
(1.11437e-05 0 0)
(1.11437e-05 0 0)
(1.11437e-05 0 0)
(1.11437e-05 0 0)
(1.11437e-05 0 0)
(1.11437e-05 0 0)
(1.11437e-05 0 0)
(1.11437e-05 0 0)
(1.11437e-05 0 0)
(1.11437e-05 0 0)
(1.11437e-05 0 0)
(1.11437e-05 0 0)
(1.11437e-05 0 0)
(1.11437e-05 0 0)
(1.11437e-05 0 0)
(1.11437e-05 0 0)
(1.11437e-05 0 0)
(1.11437e-05 0 0)
(1.11437e-05 0 0)
(1.11437e-05 0 0)
(1.11437e-05 0 0)
(1.11437e-05 0 0)
(1.11437e-05 0 0)
(1.11437e-05 0 0)
(1.11437e-05 0 0)
(1.11437e-05 0 0)
(1.11437e-05 0 0)
(1.11437e-05 0 0)
(1.11437e-05 0 0)
(1.11437e-05 0 0)
(1.11437e-05 0 0)
(1.11437e-05 0 0)
(1.11437e-05 0 0)
(1.11437e-05 0 0)
(1.11437e-05 0 0)
(1.11437e-05 0 0)
(1.11437e-05 0 0)
(1.11437e-05 0 0)
(1.11437e-05 0 0)
(1.11437e-05 0 0)
(1.11437e-05 0 0)
(1.11437e-05 0 0)
(1.11437e-05 0 0)
(1.11437e-05 0 0)
(1.11437e-05 0 0)
(1.11437e-05 0 0)
(1.11437e-05 0 0)
(1.11437e-05 0 0)
(1.11437e-05 0 0)
(1.11437e-05 0 0)
(1.11437e-05 0 0)
(1.11437e-05 0 0)
(1.11437e-05 0 0)
(1.11437e-05 0 0)
(1.11437e-05 0 0)
(1.11437e-05 0 0)
(1.11437e-05 0 0)
(1.11437e-05 0 0)
(1.11437e-05 0 0)
(1.11437e-05 0 0)
(1.11437e-05 0 0)
(1.11437e-05 0 0)
(1.11437e-05 0 0)
(1.11437e-05 0 0)
(1.11437e-05 0 0)
(1.11437e-05 0 0)
(1.11437e-05 0 0)
(1.11437e-05 0 0)
(1.11437e-05 0 0)
(1.11437e-05 0 0)
(1.11437e-05 0 0)
(1.11437e-05 0 0)
(1.11437e-05 0 0)
(1.11437e-05 0 0)
(1.11437e-05 0 0)
(1.11437e-05 0 0)
(1.11437e-05 0 0)
(1.11437e-05 0 0)
(1.11437e-05 0 0)
(1.11437e-05 0 0)
(1.11437e-05 0 0)
(1.11437e-05 0 0)
(1.11437e-05 0 0)
(1.11437e-05 0 0)
(1.11437e-05 0 0)
(1.11437e-05 0 0)
(1.11437e-05 0 0)
(1.11437e-05 0 0)
(1.11437e-05 0 0)
(1.11437e-05 0 0)
(1.11437e-05 0 0)
(1.11437e-05 0 0)
(1.11437e-05 0 0)
(1.11437e-05 0 0)
(1.11437e-05 0 0)
(1.11437e-05 0 0)
(1.11437e-05 0 0)
(1.11437e-05 0 0)
(1.11437e-05 0 0)
(1.11437e-05 0 0)
(1.11437e-05 0 0)
(1.11437e-05 0 0)
(1.11437e-05 0 0)
(1.11437e-05 0 0)
(1.11437e-05 0 0)
(1.11437e-05 0 0)
(1.11437e-05 0 0)
(1.11437e-05 0 0)
(1.11437e-05 0 0)
(1.11437e-05 0 0)
(1.11437e-05 0 0)
(1.11437e-05 0 0)
(1.11437e-05 0 0)
(1.11437e-05 0 0)
(1.11437e-05 0 0)
(1.11437e-05 0 0)
(1.11437e-05 0 0)
(1.11437e-05 0 0)
(1.11437e-05 0 0)
(1.11437e-05 0 0)
(1.11437e-05 0 0)
(1.11437e-05 0 0)
(1.11437e-05 0 0)
(1.11437e-05 0 0)
(1.11437e-05 0 0)
(1.11437e-05 0 0)
(1.11437e-05 0 0)
(1.11437e-05 0 0)
(1.11437e-05 0 0)
(1.11437e-05 0 0)
(1.11437e-05 0 0)
(1.11437e-05 0 0)
(1.11437e-05 0 0)
(1.11437e-05 0 0)
(1.11437e-05 0 0)
(1.11437e-05 0 0)
(1.11437e-05 0 0)
(1.11437e-05 0 0)
(1.11437e-05 0 0)
(1.11437e-05 0 0)
(1.11437e-05 0 0)
(1.11437e-05 0 0)
(1.11437e-05 0 0)
(1.11437e-05 0 0)
(1.11437e-05 0 0)
(1.11437e-05 0 0)
(1.11437e-05 0 0)
(1.11437e-05 0 0)
(1.11437e-05 0 0)
(1.11437e-05 0 0)
(1.11437e-05 0 0)
(1.11437e-05 0 0)
(1.11437e-05 0 0)
(1.11437e-05 0 0)
(1.11437e-05 0 0)
(1.11437e-05 0 0)
(1.11437e-05 0 0)
(1.11437e-05 0 0)
(1.11437e-05 0 0)
(1.11437e-05 0 0)
(1.11437e-05 0 0)
(1.11437e-05 0 0)
(1.11437e-05 0 0)
(1.11437e-05 0 0)
(1.11437e-05 0 0)
(1.11437e-05 0 0)
(1.11437e-05 0 0)
(1.11437e-05 0 0)
(1.11437e-05 0 0)
(1.11437e-05 0 0)
(1.11437e-05 0 0)
(1.11437e-05 0 0)
(1.11437e-05 0 0)
(1.11437e-05 0 0)
(1.11437e-05 0 0)
(1.11437e-05 0 0)
(1.11437e-05 0 0)
(1.11437e-05 0 0)
(1.11437e-05 0 0)
(1.11437e-05 0 0)
(1.11437e-05 0 0)
(1.11437e-05 0 0)
(1.11437e-05 0 0)
(1.11437e-05 0 0)
(1.11437e-05 0 0)
(1.11437e-05 0 0)
(1.11437e-05 0 0)
(1.11437e-05 0 0)
(1.11437e-05 0 0)
(1.11437e-05 0 0)
(1.11437e-05 0 0)
(1.11437e-05 0 0)
(1.11437e-05 0 0)
(1.11437e-05 0 0)
(1.11437e-05 0 0)
(1.11437e-05 0 0)
(1.11437e-05 0 0)
(1.11437e-05 0 0)
(1.11437e-05 0 0)
(1.11437e-05 0 0)
(1.11437e-05 0 0)
(1.11437e-05 0 0)
(1.11437e-05 0 0)
(1.11437e-05 0 0)
(1.11437e-05 0 0)
(1.11437e-05 0 0)
(1.11437e-05 0 0)
(1.11437e-05 0 0)
(1.11437e-05 0 0)
(1.11437e-05 0 0)
(1.11437e-05 0 0)
(1.11437e-05 0 0)
(1.11437e-05 0 0)
(1.11437e-05 0 0)
(1.11437e-05 0 0)
(1.11437e-05 0 0)
(1.11437e-05 0 0)
(1.11437e-05 0 0)
(1.11437e-05 0 0)
(1.11437e-05 0 0)
(1.11437e-05 0 0)
(1.11437e-05 0 0)
(1.11437e-05 0 0)
(1.11437e-05 0 0)
(1.11437e-05 0 0)
(1.11437e-05 0 0)
(1.11437e-05 0 0)
(1.11437e-05 0 0)
(1.11437e-05 0 0)
(1.11437e-05 0 0)
(1.11437e-05 0 0)
(1.11437e-05 0 0)
(1.11437e-05 0 0)
(1.11437e-05 0 0)
(1.11437e-05 0 0)
(1.11437e-05 0 0)
(1.11437e-05 0 0)
(1.11437e-05 0 0)
(1.11437e-05 0 0)
(1.11437e-05 0 0)
(1.11437e-05 0 0)
(1.11437e-05 0 0)
(1.11437e-05 0 0)
(1.11437e-05 0 0)
(1.11437e-05 0 0)
(1.11437e-05 0 0)
(1.11437e-05 0 0)
(1.11437e-05 0 0)
(1.11437e-05 0 0)
(1.11437e-05 0 0)
(1.11437e-05 0 0)
(1.11437e-05 0 0)
(1.11437e-05 0 0)
(1.11437e-05 0 0)
(1.11437e-05 0 0)
(1.11437e-05 0 0)
(1.11437e-05 0 0)
(1.11437e-05 0 0)
(1.11437e-05 0 0)
(1.11437e-05 0 0)
(1.11437e-05 0 0)
(1.11437e-05 0 0)
(1.11437e-05 0 0)
(1.11437e-05 0 0)
(1.11437e-05 0 0)
(1.11437e-05 0 0)
(1.11437e-05 0 0)
(1.11437e-05 0 0)
(1.11437e-05 0 0)
(1.11437e-05 0 0)
(1.11437e-05 0 0)
(1.11437e-05 0 0)
(1.11437e-05 0 0)
(1.11437e-05 0 0)
(1.11437e-05 0 0)
(1.11437e-05 0 0)
(1.11437e-05 0 0)
(1.11437e-05 0 0)
(1.11437e-05 0 0)
(1.11437e-05 0 0)
(1.11437e-05 0 0)
(1.11437e-05 0 0)
(1.11437e-05 0 0)
(1.11437e-05 0 0)
(1.11437e-05 0 0)
(1.11437e-05 0 0)
(1.11437e-05 0 0)
(1.11437e-05 0 0)
(1.11437e-05 0 0)
(1.11437e-05 0 0)
(1.11437e-05 0 0)
(1.11437e-05 0 0)
(1.11437e-05 0 0)
(1.11437e-05 0 0)
(1.11437e-05 0 0)
(1.11437e-05 0 0)
(1.11437e-05 0 0)
(1.11437e-05 0 0)
(1.11437e-05 0 0)
(1.11437e-05 0 0)
(1.11437e-05 0 0)
(1.11437e-05 0 0)
(1.11437e-05 0 0)
(1.11437e-05 0 0)
(1.11437e-05 0 0)
(1.11437e-05 0 0)
(1.11437e-05 0 0)
(1.11437e-05 0 0)
(1.11437e-05 0 0)
(1.11437e-05 0 0)
(1.11437e-05 0 0)
(1.11437e-05 0 0)
(1.11437e-05 0 0)
(1.11437e-05 0 0)
(1.11437e-05 0 0)
(1.11437e-05 0 0)
(1.11437e-05 0 0)
(1.11437e-05 0 0)
(1.11437e-05 0 0)
(1.11437e-05 0 0)
(1.11437e-05 0 0)
(1.11437e-05 0 0)
(1.11437e-05 0 0)
(1.11437e-05 0 0)
(1.11437e-05 0 0)
(1.11437e-05 0 0)
(1.11437e-05 0 0)
(1.11437e-05 0 0)
(1.11437e-05 0 0)
(1.11437e-05 0 0)
(1.11437e-05 0 0)
(1.11437e-05 0 0)
(1.11437e-05 0 0)
(1.11437e-05 0 0)
)
;

boundaryField
{
    inlet
    {
        type            fixedValue;
        value           uniform (0 0 0);
    }
    outlet
    {
        type            zeroGradient;
    }
    emptyWalls
    {
        type            empty;
    }
}


// ************************************************************************* //
